/*--------------------------------*- C++ -*----------------------------------*\
| =========                 |                                                 |
| \\      /  F ield         | OpenFOAM: The Open Source CFD Toolbox           |
|  \\    /   O peration     | Version:  v2012                                 |
|   \\  /    A nd           | Website:  www.openfoam.com                      |
|    \\/     M anipulation  |                                                 |
\*---------------------------------------------------------------------------*/
FoamFile
{
    version     2.0;
    format      ascii;
    class       volVectorField;
    location    "800";
    object      U;
}
// * * * * * * * * * * * * * * * * * * * * * * * * * * * * * * * * * * * * * //

dimensions      [0 1 -1 0 0 0 0];


internalField   nonuniform List<vector> 
9793
(
(0.958431 -0.0123559 -2.74406e-20)
(-0.190791 -0.0493853 0)
(0.991031 -0.00557179 2.16046e-20)
(-0.0423189 0.195962 4.28727e-20)
(0.99994 -0.00023257 -4.91574e-22)
(1.1907 -0.0980581 5.61258e-20)
(1.07474 -0.234929 -3.69215e-20)
(-0.0361374 0.0238605 1.9161e-19)
(1.01779 -0.0439437 -7.7758e-22)
(-0.0631504 -0.0432665 1.41366e-19)
(0.999955 -0.00141637 -7.84701e-21)
(0.999926 -0.00153461 9.1266e-21)
(1.00134 -0.00970073 -1.20033e-22)
(-0.0512402 0.137612 1.27675e-22)
(1.01948 -0.0270605 -7.23715e-22)
(1.08353 -0.0194486 0)
(1.11689 -0.106907 -2.65092e-20)
(0.993152 -0.00825375 1.02642e-20)
(-0.053665 0.0168287 8.90559e-20)
(1.01999 -0.0062486 -1.6191e-22)
(1.02611 -0.0125444 1.51452e-21)
(0.999996 -7.7736e-05 -8.0187e-21)
(-0.0564432 0.249114 -6.14185e-20)
(-0.0294148 0.0235691 4.35263e-22)
(-0.0268656 0.131655 5.27747e-20)
(0.912959 -0.0501259 1.61138e-20)
(0.999663 -0.00296006 -2.26652e-21)
(1.00002 -0.000430976 7.19725e-21)
(1.01977 -0.00658426 1.03909e-22)
(1.12152 -0.166559 2.93558e-20)
(-0.20096 -0.000552164 6.25228e-20)
(1.21215 -0.117927 -6.94347e-20)
(0.995775 -0.00242206 -8.12219e-21)
(0.996054 -0.00876717 3.89717e-21)
(1.00562 -0.000619403 3.79082e-21)
(1.08229 -0.0571018 -1.12624e-20)
(1.07379 -0.0221846 -1.69566e-20)
(0.911758 0.011821 9.68121e-21)
(-0.137809 0.11629 -5.64438e-20)
(1.06613 -0.0930501 -1.90274e-20)
(1.11392 -0.163085 0)
(0.771258 -0.016053 -1.16691e-19)
(-0.0286369 0.0206914 -6.49763e-20)
(1.00001 -0.000312741 -1.28681e-20)
(0.991679 0.00129983 -8.88711e-21)
(0.99629 0.00157776 -3.7393e-21)
(-0.134842 0.0111951 5.82001e-21)
(1.00001 -0.000228904 0)
(1.0368 -0.0116146 -5.33603e-21)
(0.992958 -0.0076634 9.3438e-21)
(1.08341 -0.0544401 1.69436e-20)
(1.00608 -0.000771666 -4.0496e-21)
(1.09667 -0.0785723 -1.80007e-20)
(0.999983 -0.000433641 0)
(0.889308 -0.108904 -2.4045e-20)
(-0.0498784 0.189287 -5.35618e-20)
(1.00178 -0.00883098 0)
(1.15173 -0.0502235 -4.76805e-20)
(1.03645 -0.012459 0)
(1.00001 -0.000121703 -7.66136e-21)
(0.89519 -0.00651045 -4.78858e-20)
(0.813437 -0.306565 6.16538e-20)
(0.992815 -0.00550119 0)
(1.1037 -0.0375016 1.10937e-20)
(1.00285 -0.00136142 2.31647e-21)
(1.01725 -0.0421799 6.41588e-22)
(-0.131443 -0.000330865 0)
(1.0495 -0.0605137 0)
(1.07686 -0.0196637 -2.16666e-21)
(0.00808211 0.0428723 7.03907e-20)
(0.976339 -0.00874388 -1.50467e-20)
(0.581406 0.053172 -7.12717e-20)
(-0.0633315 0.0253311 1.44153e-19)
(0.238666 0.0979166 1.56059e-20)
(0.0518679 0.0624669 0)
(0.999978 -0.000602996 -1.52852e-20)
(0.789824 -0.114073 3.39899e-20)
(0.661604 -0.0206522 1.53393e-19)
(0.993887 -0.00221364 -1.05163e-20)
(0.999973 -0.000311995 9.09234e-21)
(0.774361 -0.115948 -1.10109e-19)
(-0.05474 0.0172663 -1.02355e-19)
(1.11421 -0.101481 2.2413e-20)
(0.971131 -0.069664 -1.04543e-20)
(1.07641 -0.0217961 1.35492e-21)
(1.1879 -0.189893 8.28562e-20)
(0.999951 -0.000357374 -2.19997e-21)
(1.13356 -0.0295384 4.6103e-20)
(-0.143108 0.120644 5.64036e-20)
(0.79998 -0.288472 -3.93937e-20)
(-0.0664305 0.215003 1.02563e-19)
(1.25855 -0.216833 5.35132e-20)
(1.25502 -0.224243 6.21888e-20)
(1.06448 -0.137367 2.45075e-22)
(-0.0261956 0.0154768 0)
(0.994454 -0.0124006 -2.15027e-22)
(0.0871815 0.057755 -2.67284e-20)
(1.10532 -0.120648 6.39243e-20)
(1.03271 -0.0772022 4.80906e-21)
(0.999967 -0.00022161 0)
(-0.118286 0.158556 0)
(1.09308 -0.0778101 -2.88963e-23)
(-0.135018 0.0633878 -1.09293e-20)
(0.992264 0.0013026 2.7463e-21)
(-0.0417904 0.0949037 0)
(0.387609 0.0135436 -8.81324e-20)
(0.321552 0.0887575 2.36479e-20)
(1.00437 -0.00796769 4.00027e-21)
(0.993932 -0.00175634 1.03904e-20)
(0.999989 -0.000130043 0)
(1.00007 -0.000839777 1.53081e-20)
(-0.0630955 0.2359 0)
(0.0940525 -0.085076 0)
(-0.214008 -0.00542684 -5.42596e-20)
(0.97718 -0.00937846 -6.47984e-21)
(0.998775 -0.00146516 5.70114e-21)
(1.0726 -0.00670947 -2.18253e-20)
(0.996562 0.000622831 0)
(-0.0624743 0.172021 0)
(0.995718 0.00212733 0)
(-0.0969723 0.106648 0)
(1.13719 -0.0304732 4.6102e-20)
(0.224844 0.0500483 0)
(1.11175 -0.0662732 -2.04172e-20)
(1.07319 -0.0244238 0)
(0.995968 0.00228802 0)
(1.12031 -0.119066 0)
(-0.184026 0.000959809 9.28913e-20)
(1.16232 -0.00822787 9.76687e-20)
(1.16102 -0.00639138 -4.63096e-20)
(1.06245 -0.0382179 0)
(1.00615 -0.0167575 1.94474e-21)
(0.960154 -0.0136361 3.90493e-22)
(1.04549 -0.0541023 5.55794e-21)
(1.07674 -0.0570968 0)
(1.13588 -0.242655 -6.28586e-21)
(1.23451 -0.0714505 4.15067e-21)
(1.07303 -0.00873173 2.62683e-20)
(0.999999 -0.000458131 1.21427e-20)
(1.1301 -0.100368 0)
(-0.047028 0.0152052 -1.06219e-19)
(1.07987 -0.0576888 -2.30216e-20)
(0.98147 -0.0188756 5.06644e-21)
(1.12642 -0.0342961 8.74959e-20)
(-0.124221 0.0120426 -9.58379e-20)
(1.08368 -0.422384 7.14024e-20)
(0.996073 0.00293509 0)
(0.077708 0.0594077 5.17214e-20)
(1.00577 -0.0171454 2.40635e-21)
(0.995846 0.00274184 0)
(0.998678 -0.00304962 -9.90164e-21)
(0.197252 -0.0743855 -2.2421e-19)
(1.03116 -0.0741584 -1.56229e-20)
(0.999588 -0.00293252 -2.77368e-21)
(0.984134 -0.00120718 -1.2942e-21)
(1.25424 -0.247742 0)
(1.12249 -0.106298 0)
(0.992789 -0.00617275 -9.33632e-21)
(1.22792 -0.117757 0)
(0.982344 -0.0100488 -5.54527e-21)
(1.13178 -0.033098 -2.48763e-20)
(1.06324 -0.0404826 4.51395e-21)
(1.02566 -0.0130935 -1.07845e-21)
(0.571506 -0.391614 5.07864e-20)
(1.04287 -0.0248862 5.02597e-21)
(0.869667 -0.0543289 1.27735e-19)
(-0.0933757 0.0378976 1.00719e-19)
(1.04435 -0.0298472 -1.86337e-20)
(1.00447 -0.00731108 1.4046e-21)
(0.999947 -0.00114649 8.45622e-21)
(0.980531 -0.0182195 -6.3788e-21)
(-0.17595 -0.0163103 0)
(0.460886 -0.23667 -1.81967e-19)
(-0.191086 0.140926 -6.87628e-20)
(1.00159 -0.010221 4.38922e-21)
(1.18588 -0.0952226 5.82533e-21)
(0.982375 -0.342041 -1.31288e-20)
(0.539959 -0.486875 0)
(0.9933 -0.00317969 1.82488e-20)
(1.05246 -0.0564111 -7.93319e-21)
(-0.00702164 0.0963013 6.85587e-20)
(-0.139932 0.00831783 1.02305e-19)
(1.13925 -0.0280477 -5.63404e-20)
(0.995938 0.00149843 -4.34623e-21)
(0.997284 0.00105105 -7.99505e-21)
(1.00464 -0.00777616 -3.11156e-21)
(0.303558 0.0520528 1.02655e-19)
(-0.0821873 0.0222719 -1.48782e-19)
(0.884864 -0.414766 1.286e-19)
(-0.140066 0.0817867 0)
(1.01538 -0.0397241 8.22021e-22)
(-0.141573 0.480698 7.51068e-20)
(0.391821 -0.121036 8.98795e-20)
(0.908187 -0.0115467 -2.25801e-20)
(1.03997 -0.00928615 8.50837e-21)
(0.954028 -0.0476731 1.11271e-20)
(0.176542 0.124226 -2.30572e-19)
(1.01708 -0.00634552 3.07116e-22)
(0.992847 -0.00873532 -1.97133e-20)
(0.999688 -0.000664906 9.77892e-21)
(0.973659 -0.00896104 0)
(1.02887 -0.0118293 -3.63139e-21)
(1.08806 -0.0515905 3.15325e-20)
(1.07347 -0.0370271 2.29526e-20)
(-0.0754282 0.0948124 4.54251e-20)
(0.980728 0.000174401 1.843e-20)
(1.059 -0.085325 2.65645e-20)
(1.04599 -0.0288713 0)
(0.964851 -0.0263984 -2.98225e-20)
(0.778455 -0.520458 -2.54607e-20)
(1.12505 -0.100301 -3.78941e-20)
(-0.0419607 0.0138057 0)
(1.01504 -0.00595924 7.89702e-22)
(-0.0119063 0.0404346 -8.47241e-20)
(0.966704 -0.069244 5.32123e-21)
(1.11419 -0.00566762 0)
(1.01928 -0.0281348 -5.88556e-22)
(1.13993 -0.233514 0)
(0.998904 -0.00131555 5.34833e-21)
(0.734227 -0.0321794 -4.87094e-20)
(1.11055 -0.122094 -1.14093e-19)
(1.02864 -0.0124013 1.43451e-21)
(0.366524 0.481972 6.86785e-20)
(-0.191946 0.144375 -5.6075e-20)
(1.05839 -0.135428 -1.69219e-20)
(0.993472 -0.0144634 -1.39975e-20)
(1.12358 -0.0664667 7.66568e-20)
(-0.149017 0.126648 2.0396e-19)
(0.747973 -0.0608078 -2.47829e-20)
(0.744854 -0.0712389 -1.03147e-21)
(-0.0867633 0.133368 -1.62752e-19)
(1.14522 -0.0150095 4.06979e-20)
(1.11184 -0.00679561 1.01199e-20)
(1.10682 -0.0370544 2.83493e-20)
(0.399499 -0.0977249 8.24202e-20)
(1.03301 -0.00630981 4.7267e-22)
(-0.21094 0.326903 -5.32112e-21)
(-0.198973 -0.00594179 1.22795e-19)
(1.01672 -0.00615172 -3.39931e-22)
(0.999781 -0.0003871 0)
(0.852107 -0.0188776 1.14007e-19)
(0.985758 -0.0135705 -1.41771e-20)
(1.00006 -0.000781045 -9.41439e-21)
(1.15649 -0.0408056 4.57582e-20)
(1.16296 -0.0454004 1.01989e-19)
(1.01546 -0.041645 1.07979e-21)
(1.05471 -0.056003 2.91805e-20)
(1.06223 -0.0870709 -2.07971e-20)
(0.928081 -0.164068 -1.28559e-20)
(1.05934 -0.0502329 -1.07119e-20)
(0.993345 -0.0026475 1.17181e-22)
(1.0372 -0.171679 1.2025e-20)
(-0.0356518 0.0876669 1.2594e-19)
(1.02763 -0.0122911 2.04107e-21)
(-0.191556 0.144205 0)
(0.999994 -0.000528229 0)
(0.999866 -0.00176207 -1.01989e-21)
(1.01326 -0.00116041 1.49512e-22)
(-0.05252 0.178182 0)
(0.993258 0.00283097 2.40929e-20)
(1.27335 -0.246336 3.84513e-20)
(-0.0397898 0.0664203 8.94715e-20)
(1.00043 -0.00250744 -3.3524e-21)
(0.999052 -0.00137656 5.73106e-21)
(1.26658 -0.173833 -1.15511e-19)
(1.01319 -0.000742773 1.48245e-21)
(0.999905 -0.000615882 7.08914e-23)
(1.01401 -0.000688799 -1.08204e-21)
(-0.0517151 0.0643551 -8.40856e-20)
(0.574413 -0.356838 3.57434e-20)
(0.926511 -0.0469379 0)
(0.870811 -0.479876 -4.96975e-22)
(1.15005 -0.0569806 0)
(-0.126948 0.0607743 -9.23431e-20)
(-0.0752482 0.307867 -1.78442e-19)
(1.04489 -0.0318009 1.24745e-20)
(-0.0585012 -0.0539388 -1.04888e-19)
(0.999992 -0.000519814 0)
(-0.119036 0.114619 -1.72107e-19)
(0.379056 -1.11814 0)
(-0.161327 0.135201 1.18552e-19)
(-0.0827936 0.101358 -8.5865e-20)
(1.14621 -0.0165686 -2.19064e-20)
(1.0641 -0.0363158 0)
(1.10898 -0.101297 3.50674e-21)
(1.07105 -0.036812 -2.51278e-20)
(1.04145 -0.00794742 3.92644e-21)
(1.05081 -0.024318 0)
(0.805182 -0.491991 1.00355e-20)
(0.909011 -0.0528401 2.14101e-20)
(0.999159 -0.00123926 -6.57443e-21)
(1 -0.000103986 0)
(1.01541 -0.00617936 -3.79259e-22)
(1.01929 -0.000237408 1.79569e-22)
(1.02722 -0.0128385 0)
(-0.0866918 0.268401 0)
(1.00439 -0.00919472 0)
(1.01733 -0.0263172 -9.15745e-23)
(1.01916 -0.000312817 0)
(1.00171 -0.00927312 0)
(-0.0211808 0.0423848 0)
(1.09765 -0.411983 -4.46266e-20)
(0.683503 0.0921799 2.23957e-19)
(0.943217 -0.00855168 0)
(1.12723 -0.0371261 0)
(1.01846 -0.000211081 8.34831e-23)
(0.580871 0.0679178 0)
(0.0777277 -0.0359272 1.52621e-19)
(0.992616 0.00192083 1.25878e-20)
(-0.00944305 0.0620479 -1.31233e-20)
(1.10018 -0.0415828 -2.73624e-21)
(0.991265 0.000820705 9.62573e-21)
(-0.0695288 -0.037197 0)
(0.460692 0.0839597 -2.37585e-20)
(0.996094 -0.00253408 7.28273e-21)
(1.03626 -0.178377 -1.51228e-20)
(0.345065 1.03718 -8.44232e-20)
(0.97057 -0.024708 -8.12852e-21)
(0.829665 0.03512 -1.5497e-20)
(1.01859 -0.0261247 6.28232e-22)
(0.965544 -0.0220099 -2.01492e-20)
(-0.019816 0.0880334 0)
(0.880556 -0.161215 0)
(0.996205 -0.00811889 3.5323e-21)
(0.995435 0.000913288 -1.50743e-22)
(0.945991 -0.00816001 1.66212e-20)
(1.03911 -0.347113 -2.84778e-20)
(0.0943233 -0.170508 -7.82384e-20)
(0.991042 -0.00484065 -1.28628e-20)
(1.0045 -0.00842939 -3.42581e-21)
(1.03116 -0.0197774 5.6678e-21)
(-0.184742 -0.0157743 -6.35375e-20)
(-0.0514539 -0.0248447 -7.6775e-20)
(-0.00476134 -0.0196817 0)
(1.03185 -0.00716877 -3.88956e-21)
(0.881012 -0.173389 -6.03619e-20)
(0.825351 0.0445069 2.97566e-20)
(0.821126 -0.681604 0)
(1.14288 -0.0651359 -5.06631e-20)
(1.03419 -0.00375249 0)
(1.03587 -0.00647323 2.81256e-21)
(1.03027 -0.0200991 -9.54052e-22)
(1.10689 -0.0967212 -3.40268e-21)
(0.985205 -0.0362664 9.45448e-21)
(0.0382002 0.00276127 0)
(0.997935 -0.000822401 1.46926e-20)
(1.00839 -0.0166579 -7.91061e-21)
(-0.180554 0.139057 3.96129e-20)
(-0.0959235 0.268238 0)
(-0.0353521 0.045154 1.27257e-19)
(1.01897 -0.000229189 -7.13164e-22)
(-0.117277 0.157367 6.62893e-20)
(0.971251 -0.0801221 0)
(0.231388 -0.622407 0)
(0.0203234 0.00448408 0)
(-0.0796133 0.128524 1.39367e-19)
(0.983589 -0.0696165 -7.75406e-21)
(1.06724 -0.0964174 0)
(1.22993 -0.0761635 -7.3833e-20)
(-0.0731776 0.214864 -1.02116e-19)
(-0.0605025 0.224321 -5.95176e-20)
(0.899496 0.030493 1.78042e-20)
(1.00002 -0.000479795 -1.21487e-23)
(0.921727 -0.0462208 0)
(1.03617 -0.00989146 5.49741e-21)
(1.0051 -0.00925606 0)
(0.984932 -0.0343146 0)
(0.999735 -0.00340726 9.18142e-21)
(1 -4.1527e-05 0)
(0.0907077 -0.00332957 -7.41014e-20)
(0.999939 -0.00130677 7.17204e-21)
(1.11789 -0.130486 7.13308e-20)
(1.06921 -0.0863183 -2.00206e-20)
(0.674511 0.052954 6.01143e-20)
(1.03422 -0.00313906 -4.63113e-21)
(0.972511 -0.0730603 0)
(-0.020794 0.147934 9.19445e-20)
(0.356178 0.00253293 1.4822e-19)
(-0.0496668 0.131173 -4.20429e-20)
(1.13888 -0.0658065 -3.73853e-20)
(1.00811 -0.0158393 6.33285e-21)
(0.985352 -0.0723566 6.85469e-21)
(0.991605 -0.00578186 -1.05336e-20)
(1.15467 -0.321042 0)
(1.01602 -0.00192803 5.21002e-22)
(-0.043238 0.0505876 0)
(0.931904 -0.380261 -2.9623e-21)
(1.06531 -0.24036 3.55628e-20)
(-0.0561415 -0.0123247 0)
(-0.0156319 0.0807155 -8.79175e-20)
(1.00036 -0.00200956 7.53836e-21)
(0.99474 -0.0146539 -1.15371e-21)
(1.21734 -0.063025 9.6274e-21)
(1.16242 -0.309527 -2.41536e-20)
(0.981217 0.00105776 -5.816e-21)
(-0.0284022 0.00530474 0)
(1.00036 -0.00213005 -7.49374e-21)
(0.999545 -0.000969408 0)
(0.516929 -0.812182 1.59347e-20)
(1.01509 -0.00568238 -8.43479e-22)
(1.15322 -0.0541175 -2.61037e-20)
(1.03284 -0.00708634 3.24658e-21)
(-0.0555715 0.0331573 6.62231e-20)
(0.998138 -0.000839616 -1.40145e-20)
(1.04383 -0.023885 0)
(-0.181416 0.145279 3.55305e-20)
(0.60547 0.0525982 2.09489e-19)
(1.12026 -0.0111411 -2.37296e-20)
(0.907304 -0.0159792 -6.14092e-20)
(1.00059 -0.00290255 5.81527e-21)
(0.999374 -0.0213482 5.19983e-21)
(0.174815 0.0528068 -1.59426e-22)
(1.10102 -0.125535 -3.04245e-20)
(1.02768 -0.00824088 0)
(0.999548 -0.000239283 -1.07124e-20)
(0.880415 -0.106773 4.66751e-22)
(0.830951 0.0630446 0)
(1.12012 -0.00936979 -2.01795e-20)
(-0.12909 0.00887204 3.51815e-21)
(0.999611 -0.000608644 -5.84461e-22)
(0.99564 -0.00909432 -1.55458e-20)
(0.642243 -0.434973 1.02546e-19)
(1.00064 -0.00286026 9.16157e-21)
(-0.0421329 0.0962581 -9.42185e-20)
(0.585003 -0.482008 6.46653e-20)
(0.997 0.0010231 8.55233e-21)
(0.99634 -0.00310782 0)
(1.04928 -0.0248127 4.07488e-21)
(1.00043 -0.00236153 0)
(1.03104 -0.0183328 3.57002e-21)
(-0.123954 0.155383 -5.24724e-20)
(0.731093 -0.0464699 1.21357e-19)
(1.23044 -0.165675 0)
(0.882915 0.0458812 -3.55451e-20)
(1.06511 -0.0163436 0)
(1.11053 -0.0696641 2.29025e-20)
(0.915923 0.0122026 4.68391e-20)
(-0.0693727 0.176341 -2.52289e-20)
(0.898841 -0.0106613 3.65596e-20)
(0.999961 -0.000170862 0)
(1.05196 -0.0597938 0)
(1.10261 -0.385139 3.84273e-20)
(0.978303 -0.0122981 1.24439e-20)
(0.981277 -0.0100028 2.6697e-20)
(0.974809 -0.0081667 7.16227e-21)
(1.0157 -0.00186008 -5.16193e-22)
(0.998131 -0.00635398 6.17191e-21)
(1.01443 -0.028104 -2.41269e-21)
(0.996372 0.000880297 -4.28909e-24)
(1.00028 -0.00171087 1.07121e-22)
(0.964086 -0.0474887 2.18107e-20)
(1.06957 -0.0392877 1.53493e-20)
(1.15559 -0.0381012 5.05763e-20)
(1.01743 -0.000448367 0)
(0.213768 0.14835 2.72645e-19)
(0.914995 -0.0395029 4.17781e-21)
(0.941289 -0.404652 3.6497e-21)
(-0.0837753 0.33701 1.89773e-19)
(1.04137 -0.00901532 -7.57716e-21)
(-0.166029 0.140632 -4.05413e-20)
(1.07418 -0.223712 0)
(1.03975 -0.0103133 -1.72506e-21)
(1.01592 -0.00260957 0)
(0.981904 -0.0213095 1.12944e-20)
(-0.0641869 0.120152 0)
(1.1512 -0.0609619 5.41657e-20)
(1.01613 -0.00245443 0)
(0.998514 3.20162e-05 5.80974e-21)
(0.999669 -0.000753528 0)
(0.707772 0.148288 -3.64275e-21)
(0.973825 -0.364645 -1.27916e-20)
(0.55382 -0.00645916 -1.10157e-20)
(1.0026 -0.00131183 -2.4603e-21)
(0.984364 -0.00038102 0)
(0.85344 -0.027025 0)
(-0.147986 0.00811578 1.06656e-19)
(-0.155743 0.136558 -1.08756e-19)
(0.931584 -0.0201731 0)
(1.05987 -0.0318953 -1.44832e-20)
(-0.195038 0.144454 0)
(0.919859 -0.0574946 6.92241e-20)
(1.18787 -0.0300229 0)
(0.97247 -0.0300359 7.93567e-21)
(1.00726 -0.0167694 0)
(-0.0840213 0.0946161 4.2367e-20)
(0.992933 -0.0115253 -9.91393e-21)
(1.00334 -0.338477 1.3743e-20)
(0.654806 0.0455188 -1.31897e-19)
(1.02723 -0.00766454 0)
(0.606576 -0.345514 0)
(1.05643 -0.0795975 -1.06712e-20)
(-0.100492 0.171174 -4.51924e-20)
(0.99976 -0.0207302 0)
(-0.061933 0.0346154 -9.11817e-20)
(1.20167 -0.143837 0)
(1.08129 -0.020524 7.03589e-21)
(1.27914 -0.16867 1.09855e-19)
(0.994007 -0.0119213 -2.33701e-22)
(0.848457 -0.637216 0)
(0.997988 -0.000299753 -1.85817e-20)
(0.995878 -0.0147431 -1.11858e-21)
(0.999963 -0.00109379 -8.61068e-23)
(0.993429 -0.00691732 0)
(0.00715072 0.0637873 1.07336e-19)
(0.994265 -0.0132104 1.98204e-20)
(1.03483 -0.0131862 -7.04713e-21)
(0.945517 -0.0151202 0)
(1.0316 -0.00786542 3.4287e-21)
(1.00686 -0.0171782 4.13927e-21)
(1.02311 -0.189079 -1.22584e-20)
(0.97638 -0.054664 6.73143e-21)
(1.10304 -0.0411288 1.36019e-20)
(1.00129 -0.003549 -4.5601e-21)
(1.00118 -0.00338405 1.49825e-20)
(-0.0261877 0.139078 -1.24477e-19)
(0.643113 0.0574072 -7.89891e-21)
(0.934437 -0.0196886 0)
(-0.193208 0.141851 0)
(1.06721 -0.0388665 6.40179e-22)
(0.979373 -0.0378436 2.25669e-20)
(0.99357 0.0032528 -1.43006e-20)
(1.03189 -0.0180673 2.20345e-21)
(0.0803749 -0.025207 8.49277e-20)
(1.03511 -0.0123624 4.86242e-21)
(1.00127 -0.000502722 1.20287e-20)
(-0.182315 0.00384698 -1.47927e-20)
(0.838771 -0.0277377 7.62782e-20)
(0.939335 -0.166906 3.20015e-20)
(1.0014 -0.00927775 0)
(0.999989 -0.000156185 8.44005e-21)
(1.03414 -0.0360298 4.48666e-21)
(0.999945 -0.000779417 -1.31999e-22)
(-0.179655 0.144785 -6.10389e-20)
(0.968538 -0.0245879 9.5146e-21)
(-0.102947 0.0976973 -8.89313e-20)
(1.0697 -0.0268465 0)
(0.307952 0.468291 -1.51103e-21)
(0.99996 -0.000398688 0)
(-0.181504 0.00312767 1.28914e-19)
(1.00904 -0.00040014 0)
(1.05535 -0.358571 0)
(0.991988 -0.0104581 6.7178e-21)
(1.13062 -0.0144806 0)
(-0.0250838 0.0870835 0)
(0.998208 -0.000241481 0)
(0.51415 0.0224722 0)
(0.988316 -0.0126402 0)
(1.00014 -0.000110706 -8.71843e-21)
(1.02559 -0.0116823 8.27327e-22)
(0.0973158 0.0888791 3.97355e-20)
(-0.0704369 0.102716 -1.05897e-19)
(0.980917 -0.0203839 -1.26066e-20)
(1.05935 -0.0816011 -8.16117e-21)
(1.0358 -0.0107257 0)
(-0.189112 0.144542 6.01047e-20)
(1.01791 -0.00055245 -1.59099e-22)
(1.04345 -0.169931 0)
(-0.066282 0.0383822 6.76909e-20)
(0.909488 0.0155744 0)
(1.00171 -0.000911701 0)
(0.799649 -0.127867 3.37333e-20)
(1.00009 -0.000510102 7.97911e-21)
(1.03579 -0.0363486 0)
(1.02944 -0.021857 5.08814e-21)
(1.15153 -0.0362616 -4.64538e-20)
(1.00284 -0.00375122 0)
(-0.199185 0.145027 5.59327e-20)
(1.00103 -0.00330192 -7.54363e-21)
(0.98776 -0.0388034 0)
(1.11022 -0.0310061 -1.5163e-20)
(0.757063 -0.226693 0)
(1.09273 -0.0113179 0)
(1.01675 -0.0250739 0)
(-0.169601 0.00114997 0)
(0.995165 -0.0151427 0)
(0.990326 -0.382392 1.80725e-20)
(0.98534 -0.00610519 0)
(1.04559 -0.0270656 1.1142e-20)
(0.993251 -0.0121158 1.84388e-20)
(1.00096 -0.00334672 7.78033e-21)
(0.999965 -0.000284201 -8.4741e-21)
(0.985813 -0.400646 -2.44281e-20)
(1.11168 -0.00922654 -4.08635e-20)
(0.463985 0.0215488 -8.79191e-21)
(1.15617 -0.143174 0)
(0.829068 -0.0465065 3.40319e-20)
(0.89902 -0.124505 1.09748e-20)
(0.576544 -0.781401 1.36687e-20)
(1.04761 -0.0557355 0)
(-0.17394 0.145093 1.42616e-19)
(-0.059753 -0.00130423 0)
(1.0536 -0.378283 -4.84825e-20)
(1.11158 -0.187219 -5.34088e-20)
(0.801867 0.0284281 0)
(1.01859 -0.354685 2.77604e-20)
(1.03686 -0.0356748 -2.7457e-21)
(0.0628502 -0.143855 4.87002e-20)
(1.11015 -0.0286899 9.16755e-22)
(1.0436 -0.0264697 -1.51088e-20)
(1.07053 -0.388325 4.12356e-20)
(1.00006 -0.000459443 -8.92204e-21)
(0.846213 -0.503188 -1.20129e-20)
(0.945693 -0.155125 -2.32557e-20)
(1.18557 -0.054895 1.02343e-19)
(0.886544 0.0358441 0)
(-0.101134 0.248257 0)
(-0.0679423 0.0128456 -6.44687e-20)
(1.10759 -0.0326212 0)
(1.18073 -0.0538006 -9.17688e-20)
(0.999745 -0.000467377 1.23395e-21)
(1.0102 -0.484953 0)
(0.945519 0.0168754 -2.83674e-21)
(0.992361 -0.00995885 -7.07448e-21)
(0.983103 -0.0335321 0)
(1.06677 -0.00627298 8.19831e-21)
(1.09549 -0.123339 0)
(-0.0952421 0.129252 0)
(0.863167 -0.442326 8.78783e-22)
(-0.0859731 0.0205449 8.24333e-20)
(1.04308 -0.0554152 1.03783e-20)
(0.952773 -0.050078 -2.45004e-20)
(-0.101856 0.171254 -3.93022e-20)
(0.416789 0.135267 -8.27801e-20)
(1.05649 -0.0330575 -2.52899e-20)
(1.13418 -0.07193 3.87488e-20)
(0.963272 -0.0275073 2.67634e-20)
(0.251089 -0.730095 -5.10515e-20)
(-0.173268 0.144108 3.66255e-20)
(0.996874 0.000719145 -8.62897e-21)
(0.688405 0.105765 -5.3998e-20)
(0.665206 -0.396842 -8.13859e-20)
(-0.0681133 0.00603245 1.39909e-19)
(1.00296 -0.00121086 -5.12252e-21)
(0.918827 -0.0517994 0)
(0.200354 0.0353781 0)
(1.08588 -0.0490285 0)
(0.385913 0.047817 -1.45549e-19)
(1.13207 -0.0152423 0)
(0.691241 0.056194 8.09152e-20)
(0.942147 -0.0738935 -2.35386e-20)
(1.0473 -0.0587773 -1.63213e-21)
(1.01855 -0.0352447 7.58118e-22)
(0.984763 -0.00180114 0)
(1.13778 0.00192677 -3.31526e-20)
(0.999998 -0.000219711 1.75282e-20)
(1.06037 0.0193083 1.21806e-20)
(1.17065 -0.126928 0)
(1.03928 -0.253001 8.55505e-21)
(1.00003 -0.00022918 0)
(1.00011 -0.000898956 5.3261e-21)
(1.06776 -0.0137512 0)
(1.04959 -0.0066529 -7.56906e-21)
(1.00617 -0.00116621 -2.15623e-21)
(0.985304 -0.0125354 0)
(1.14938 -0.143008 -5.00122e-20)
(-0.0519383 0.123757 2.83108e-20)
(-0.0129503 0.129309 -1.54364e-20)
(1.00001 -0.000298346 6.96452e-21)
(1.13814 -0.326336 1.74396e-20)
(1.00109 -0.00788822 8.49366e-21)
(-0.0675662 -0.00877342 -4.28408e-20)
(1.1187 -0.043159 0)
(0.775804 -0.0802033 -7.18508e-20)
(0.833356 0.0533614 -2.7924e-20)
(1.20048 -0.137607 6.93761e-20)
(1.00973 -0.00624671 3.26768e-21)
(0.998558 -0.00332324 1.2519e-20)
(0.814544 -0.125864 0)
(0.992209 -0.0114145 1.20342e-20)
(1.03286 -0.0350681 6.09426e-21)
(1.13 -0.0901987 3.381e-20)
(-0.0895509 0.160651 -6.31188e-20)
(1.02954 -0.0116949 4.80254e-21)
(1.16108 -0.000785442 -7.104e-20)
(-0.159085 0.124222 4.54544e-20)
(1.05991 -0.0527345 2.46568e-20)
(-0.0742543 0.106864 0)
(-0.158637 0.118341 5.04986e-20)
(1.01477 -0.0293683 3.38147e-21)
(1.11443 -0.116805 0)
(1.08563 -0.0204785 -1.27653e-20)
(1.01402 -0.0391173 1.9919e-21)
(1.02468 -0.0115397 -1.35697e-21)
(0.615947 -0.109004 -1.08839e-19)
(-0.164056 0.130107 -1.13468e-19)
(-0.0562171 0.0282682 -3.4546e-20)
(0.977163 -0.0132702 1.32361e-20)
(0.995218 0.0012083 6.86186e-22)
(1.02132 -0.0148461 0)
(1.07492 -0.00320279 -6.4118e-21)
(0.979481 -0.0548493 -6.4562e-21)
(0.965826 -0.0652477 5.90442e-21)
(0.511313 0.453465 0)
(1.11868 -0.0404009 -3.30065e-20)
(1.00029 -0.0018232 0)
(1.08805 -0.0829618 0)
(1.08695 -0.0541994 1.17236e-20)
(0.839073 -0.0492384 2.17409e-20)
(1.03334 -0.0334508 -5.54648e-21)
(-0.242043 -0.00277441 -4.83675e-21)
(1.06317 -0.0343127 0)
(1.00384 -0.00294327 2.78306e-21)
(1.04962 -0.251479 1.27851e-20)
(0.148989 0.13447 1.46656e-19)
(1.02866 -0.00842085 1.23661e-21)
(0.996511 0.00124358 0)
(0.992254 -0.00522846 0)
(1.07913 -0.0187788 -9.93565e-21)
(1.00982 -0.00590608 1.10198e-21)
(1.10805 -0.0350575 0)
(1.23732 -0.0867823 -7.16686e-20)
(0.989747 -0.0426217 0)
(1.15113 -0.0341567 0)
(1.05448 -0.0325833 1.19268e-20)
(1.03189 -0.0320306 3.33944e-22)
(1.0656 -0.00904545 0)
(-0.0520452 -0.00474054 1.39985e-19)
(1.17413 -0.00997937 6.45592e-20)
(0.998852 -0.00308677 -2.83113e-21)
(1.03013 -0.00843571 0)
(0.378529 0.113247 7.12088e-20)
(0.904388 -0.00841114 1.09715e-20)
(0.754848 0.0684523 6.79366e-20)
(1.02846 -0.00696143 -1.02434e-21)
(0.98742 -0.0125277 7.51296e-21)
(-0.201444 -0.00504502 -6.208e-20)
(-0.120049 0.0821742 5.43548e-20)
(1.06215 -0.092009 1.44858e-20)
(1.15464 -0.0471973 5.22134e-20)
(0.688981 0.0444742 1.46052e-19)
(0.993964 -0.0150784 1.2971e-21)
(1.00002 -0.0001969 -6.47755e-21)
(1.01044 -0.0378604 -2.84006e-21)
(-0.0372123 0.00917878 1.78432e-19)
(1.00138 -0.000625852 -5.35525e-21)
(0.999997 -5.00845e-05 5.90523e-21)
(-0.0779751 0.205101 1.23137e-19)
(0.891724 0.0359775 -3.70869e-20)
(1.19474 -0.186142 -1.16751e-19)
(0.839384 0.0348732 3.97415e-20)
(1.00157 -0.0083668 0)
(-0.0516603 0.000228033 -1.18716e-19)
(1.00001 -0.000460055 1.0649e-20)
(0.986827 -0.00817277 0)
(1.00935 -0.0370912 2.66763e-21)
(0.912105 -0.104262 0)
(-0.0313313 0.186617 0)
(0.999906 -0.00189277 0)
(0.99273 0.00284874 -2.19531e-23)
(0.991794 -0.0118813 -6.52804e-21)
(0.993591 -0.0135328 -4.79078e-21)
(1.00127 -0.00832537 0)
(1.01807 -0.0363585 7.01335e-22)
(1.03705 -0.173366 -3.27724e-20)
(0.904973 -0.108394 -1.71411e-20)
(0.964376 -0.0442918 -2.08902e-20)
(0.999871 -0.00282026 -4.33586e-21)
(0.896914 -0.102879 1.08193e-20)
(1.12459 -0.11628 0)
(1.0836 -0.0170102 1.08023e-20)
(0.882446 0.0411665 -9.20394e-22)
(1 -9.12144e-05 -6.04183e-21)
(1.0214 -0.0141684 -4.42836e-22)
(0.996602 -0.0683064 -3.4605e-21)
(-0.0530765 0.0944111 0)
(0.0910594 0.0770248 -1.25761e-19)
(1.06357 -0.0149238 0)
(-0.0658103 0.025354 0)
(0.999722 -0.000328252 -1.02341e-20)
(0.942407 -0.0688059 -2.48364e-20)
(1.22463 -0.305954 -4.93121e-20)
(0.155628 -0.1359 1.30439e-19)
(1.0213 -0.025697 1.64676e-22)
(0.999888 -0.0015977 1.05308e-20)
(0.428579 0.232741 0)
(1.12435 -0.0640061 0)
(1.00411 -0.00304285 6.59466e-21)
(0.999924 -0.000518387 0)
(-0.199117 0.144474 8.36418e-20)
(1.00002 -0.000144218 0)
(1.10706 -0.169068 0)
(0.99603 -0.00301509 -5.07776e-22)
(0.34624 0.0403564 -1.39815e-19)
(0.999934 -0.000593329 0)
(1.01016 -0.000273396 -1.44806e-21)
(0.998643 -0.000143132 -1.31854e-20)
(1.03926 -0.11041 0)
(1.04844 -0.00588326 0)
(0.929058 -0.0418467 1.37206e-20)
(0.90319 0.0277957 0)
(0.536376 0.123826 9.32974e-20)
(1.00422 -0.00942045 5.26945e-21)
(0.998383 -0.00623019 -1.21283e-20)
(1.00006 -0.000312418 0)
(0.996228 -0.0152176 0)
(1.03818 -0.0333725 0)
(1.04386 -0.016451 0)
(1.06961 -0.0904288 -2.57348e-20)
(0.998304 2.77674e-05 8.91113e-22)
(1.12555 -0.0445077 -6.24124e-20)
(-0.0168958 0.12075 0)
(1.10208 -0.0962091 -3.11033e-20)
(1.13362 -0.0935543 7.91116e-22)
(0.999645 -0.00050418 -1.16321e-20)
(1.03039 -0.0214648 2.23411e-21)
(-0.200243 -0.00716485 8.84375e-21)
(0.121068 0.137497 -8.26616e-20)
(1.0244 -0.0107463 2.68706e-21)
(-0.0984977 0.120158 -5.53406e-20)
(-0.198766 -0.000247331 -5.92196e-22)
(1.03032 -0.0089046 0)
(0.9924 0.00238845 1.24676e-20)
(1.00026 -0.0138884 -1.75663e-22)
(1.09563 -0.225302 -3.08162e-20)
(1.12647 -0.0425872 2.09917e-20)
(0.136505 -0.0957921 -1.28427e-19)
(1.00484 -0.0094929 3.51147e-21)
(1.01077 -0.0875709 7.68187e-23)
(1.00529 -0.00707057 0)
(0.964208 -0.0234406 4.7087e-20)
(1.00926 -0.000361357 -5.1393e-22)
(1.02334 -0.271555 1.44937e-20)
(1.03889 -0.0322031 -3.26081e-21)
(1.18433 -0.197452 -1.79271e-20)
(0.999118 -0.00270446 -5.99402e-21)
(0.900857 -0.238108 0)
(1.00355 -0.00850645 -7.14758e-22)
(0.957663 -0.0470067 2.38147e-20)
(0.98513 -0.00818538 0)
(1.10923 -0.0105272 4.45417e-22)
(0.723047 0.148182 0)
(-0.175177 0.00426642 0)
(-0.0115536 0.0365654 2.78944e-21)
(-0.130296 0.127797 0)
(1.1192 -0.0674836 -4.52425e-20)
(0.98687 -0.0135914 1.50764e-20)
(0.579769 -0.732721 -5.06968e-20)
(0.0752852 -0.10572 0)
(1.13253 -0.0412282 0)
(1.03661 -0.0300679 -3.97365e-21)
(0.999651 -0.00328768 -2.0535e-23)
(0.168778 0.252821 0)
(1.0005 -0.0145205 -6.77982e-21)
(-0.0347134 0.193812 5.76226e-20)
(1.03396 -0.00607602 -2.16559e-21)
(1.09207 -0.0335779 -4.51764e-21)
(1.04183 -0.032176 1.15774e-20)
(0.999949 -3.5668e-05 -1.28562e-20)
(1.02096 -0.026869 0)
(0.687571 0.00700831 1.1346e-19)
(-0.0264231 0.0127446 -6.79658e-20)
(-0.0388795 0.206211 0)
(0.660501 0.0641641 0)
(-0.169911 -0.00877989 -1.32321e-19)
(0.993349 -0.00632679 9.97787e-21)
(-0.128773 0.126498 7.00752e-20)
(0.338069 0.0166797 -7.61148e-22)
(1.00002 -0.000101943 -1.27118e-20)
(0.987232 -0.036912 0)
(1.01117 -0.00823244 0)
(0.882972 0.0317533 2.67834e-20)
(1.02633 -0.0075941 0)
(-0.0276334 0.0322777 1.66228e-19)
(0.845399 -0.032519 0)
(1.1753 -0.0961747 3.08464e-21)
(1.00142 -0.0479661 0)
(1.18752 -0.333773 1.67082e-19)
(-0.110061 0.00745682 -1.17824e-19)
(0.164085 0.0483526 1.28901e-19)
(0.926555 -0.103611 3.96433e-20)
(1.08001 -0.0823344 -5.39845e-20)
(1.00156 -0.000939456 1.66521e-21)
(0.541042 -0.173351 -1.09822e-21)
(1.02806 -0.00585556 0)
(0.398481 0.327373 0)
(1.19432 -0.0959972 2.24906e-21)
(0.796372 -0.229295 0)
(0.429542 0.0158513 0)
(0.0135107 0.0483297 1.61041e-19)
(1.05683 -0.0495607 -8.59925e-21)
(1.0025 -0.0688127 0)
(1.00294 -0.00408298 -2.80891e-21)
(1.1283 -0.0116508 1.69907e-20)
(-0.0272353 0.0283147 1.30267e-19)
(-0.144475 -0.0196483 1.1037e-19)
(1.01034 -0.00777099 1.98027e-21)
(0.207697 0.629175 -5.77623e-21)
(1.08142 -0.0155464 9.14695e-21)
(1.16119 -0.041758 0)
(0.562384 0.127345 8.07435e-20)
(-0.0909884 0.157868 -2.74705e-20)
(-0.0795102 0.153932 5.05205e-20)
(1.036 -0.00565406 -3.2956e-22)
(0.911564 -0.0427796 -3.40856e-21)
(1.09227 -0.0485528 1.72077e-20)
(1.07064 -0.0248594 0)
(1.06976 -0.0132815 -7.39662e-21)
(0.139472 0.0602748 1.60908e-19)
(0.999708 -0.000897589 0)
(0.557806 -0.0157809 1.11985e-19)
(1.01771 -0.000457191 -1.40148e-22)
(1.03507 -0.00508305 1.39872e-22)
(1.08479 -0.210254 0)
(1.15964 -0.0483551 -1.05192e-19)
(0.918944 0.0275013 0)
(1.03848 -0.0454923 4.09987e-21)
(0.93774 -0.41136 2.08278e-21)
(1.1093 -0.231945 -5.4931e-20)
(1.20176 -0.278234 1.08792e-19)
(0.895044 0.0291647 5.61554e-20)
(1.00011 -0.000463218 -4.17644e-21)
(1.03683 -0.046187 6.76726e-21)
(1.00013 -0.0004739 0)
(0.983219 -0.0092796 -4.61483e-21)
(1.20181 -0.291962 4.21308e-20)
(0.832686 0.0607033 -7.36332e-20)
(1.0195 -0.0444474 5.75912e-22)
(0.984403 -0.00658661 -9.48072e-21)
(1.09623 -0.0451848 0)
(0.193409 -0.140627 0)
(1.00231 -0.0927982 3.76225e-22)
(0.98613 0.00144687 2.74051e-21)
(0.381592 0.126417 0)
(0.992179 -0.00678454 9.71479e-21)
(0.999974 -5.44876e-05 1.23339e-20)
(1.02865 -0.006337 -2.71663e-21)
(1.12863 -0.0321684 -8.06913e-20)
(0.995811 0.00104009 1.4602e-22)
(1.07494 -0.0286311 1.98739e-20)