/*--------------------------------*- C++ -*----------------------------------*\
| =========                 |                                                 |
| \\      /  F ield         | OpenFOAM: The Open Source CFD Toolbox           |
|  \\    /   O peration     | Version:  v2012                                 |
|   \\  /    A nd           | Website:  www.openfoam.com                      |
|    \\/     M anipulation  |                                                 |
\*---------------------------------------------------------------------------*/
FoamFile
{
    version     2.0;
    format      ascii;
    class       volScalarField;
    location    "750";
    object      k;
}
// * * * * * * * * * * * * * * * * * * * * * * * * * * * * * * * * * * * * * //

dimensions      [0 2 -2 0 0 0 0];


internalField   nonuniform List<scalar> 
18355
(
0.00030957
0.000136958
0.000226986
0.000140879
0.000256698
0.0074043
0.000145886
0.000256135
0.000151311
0.00201086
0.000156466
0.000192695
0.000193545
0.00711961
0.000142682
0.000135426
0.000140863
0.000155906
0.000227374
0.000153694
0.023878
0.000148902
0.000136915
0.0078439
0.000136991
0.000148317
0.000146021
0.000141006
0.00015193
0.000157684
0.0080216
0.000181558
0.00013752
0.000134208
0.000146141
0.000149674
0.000160353
0.000149942
0.00015832
0.000148889
0.000151292
0.000157196
0.000134361
0.000136776
0.000136881
0.000246385
0.000141101
0.000140978
0.00927396
0.000144543
0.000142259
0.0143387
0.000144938
0.000227426
0.000143069
0.000153818
0.000145813
0.0164091
0.000148527
0.0414463
0.000134305
0.000189481
0.00022606
0.00014537
0.000196319
0.00014037
0.000154113
0.000160454
0.000133957
0.000880582
0.000142042
0.000143102
0.000172336
0.000158734
0.00293688
0.000134104
0.0164003
0.000134201
0.000141772
0.00302732
0.000153993
0.00323684
0.000134052
0.000156024
0.000183737
0.000148786
0.000153288
0.000174343
0.00014053
0.000174522
0.0107446
0.00937415
0.00321866
0.000144413
0.00039002
0.000147323
0.00014005
0.00014493
0.000195523
0.00014853
0.000181284
0.000141436
0.000144079
0.000130578
0.000154463
0.000135543
0.000195487
0.000694813
0.000167256
0.000134987
0.000142582
0.000147454
0.000164106
0.00015547
0.0013148
0.000159354
0.000141192
0.00297381
0.000152042
0.000153685
0.000523678
0.000226762
0.00989233
0.000179985
0.00309191
0.000608911
0.000146061
0.000141214
0.000319053
0.000147496
0.000140129
0.0107583
0.000143482
0.000193469
0.000218914
0.000140584
0.000227086
0.000402831
0.000142393
0.0183417
0.000157066
0.000252934
0.000140868
0.0209861
0.000221163
0.000146567
0.0443305
0.000131411
0.000163637
0.00506808
0.000140925
0.000153533
0.000144687
0.000187948
0.00013447
0.000138214
0.000141384
0.000148712
0.000140942
0.000139223
0.000155828
0.000143606
0.000135059
0.000183689
0.000158655
0.00146883
0.0465933
0.000374048
0.000600465
0.000157025
0.000146822
0.000191606
0.000147958
0.0103371
0.000146596
0.000150647
0.000146704
0.000130244
0.00015146
0.000161887
0.000148928
0.00112437
0.00014829
0.000141286
0.000556355
0.000143932
0.000149507
0.000173481
0.000143312
0.000146486
0.000285051
0.000194833
0.000137243
0.000134849
0.000143832
0.00224118
0.000139436
0.000380571
0.000137054
0.00776166
0.000143627
0.00015472
0.000159014
0.00014866
0.000350881
0.000146801
0.00053195
0.00014125
0.000136962
0.000144301
0.000146823
0.00261991
0.000153086
0.000149128
0.000131573
0.0116723
0.000161904
0.000156969
0.000146976
0.000141227
0.000165949
0.000134077
0.000172189
0.000193532
0.000214792
0.000158461
0.000134272
0.000363631
0.000278495
0.00016838
0.000145495
0.000154526
0.00192113
0.000134241
0.000185162
0.000209034
0.000149132
0.000372633
0.000155891
0.000149267
0.000137277
0.000151182
0.000146311
0.000166764
0.000146806
0.000143075
0.000140913
0.0019914
0.00716464
0.000142666
0.000147421
0.00605545
0.000207296
0.000198614
0.000130275
0.000235831
0.000155888
0.000147465
0.000158076
0.000139673
0.0047462
0.000215114
0.000191673
0.000162493
0.000159787
0.000193987
0.000165453
0.000199151
0.000139623
0.000143115
0.000147417
0.00013503
0.000154919
0.000157249
0.000140643
0.000146804
0.000171265
0.000140432
0.000203821
0.00890049
0.000167268
0.000147049
0.000160234
0.000134912
0.000174895
0.000146213
0.000163163
0.000148703
0.000162265
0.00567745
0.000137244
0.000176246
0.000151722
0.000158458
0.000180011
0.000144962
0.000134655
0.000200882
0.000146806
0.000290116
0.000160372
0.00423244
0.000175579
0.000192537
0.000155366
0.000173183
0.000144209
0.00015436
0.000161909
0.000176332
0.000888701
0.000246349
0.000142143
0.000158298
0.000219258
0.000161118
0.000142074
0.000140916
0.00014094
0.000176336
0.000292374
0.0044199
0.000776965
0.000169941
0.000156494
0.00220433
0.00013131
0.000146601
0.000156409
0.00014413
0.000168526
0.000145518
0.00642897
0.000135831
0.00300462
0.00014351
0.000148664
0.000156691
0.000197673
0.000477543
0.000166954
0.000603497
0.000148834
0.00014065
0.000144016
0.000160801
0.00254305
0.000140873
0.000145369
0.00155313
0.000148532
0.000141005
0.00020468
0.000158438
0.000140928
0.000144723
0.000164312
0.000151898
0.000164027
0.000135495
0.000145304
0.000148326
0.034731
0.000893336
0.0001352
0.000140683
0.000188549
0.000141009
0.00014763
0.00278838
0.00104673
0.000175236
0.000143851
0.000149352
0.000194434
0.000149912
0.000250856
0.000154501
0.000136497
0.000182601
0.000226272
0.000147883
0.000144164
0.000155731
0.000146174
0.000153097
0.00014378
0.000202719
0.000146493
0.000153052
0.000142863
0.000140988
0.000154463
0.000148844
0.000185282
0.0443903
0.00148843
0.000153587
0.000207649
0.000199903
0.000143727
0.000145008
0.000174205
0.000143326
0.000177489
0.000145295
0.000162226
0.00260694
0.000234292
0.00041951
0.000195031
0.00013073
0.0166606
0.000148535
0.000140574
0.0253111
0.000143072
0.000173484
0.000137517
0.000204374
0.000143038
0.000190179
0.00501859
0.000188733
0.00014434
0.000137409
0.000189842
0.000152051
0.000143041
0.00169156
0.000264627
0.000140515
0.000174726
0.000185457
0.000137336
0.00014978
0.000165241
0.02624
0.000174132
0.000148544
0.000144601
0.000170242
0.000144455
0.000135853
0.000143955
0.000225449
0.0442829
0.000136287
0.000150734
0.000145156
0.000198906
0.000223021
0.000134849
0.000174263
0.000172744
0.000145327
0.00298543
0.000189913
0.000148493
0.000145892
0.000172887
0.000199028
0.00847762
0.000136044
0.000422109
0.000142899
0.000136244
0.000178017
0.000152423
0.000205662
0.000172536
0.000153386
0.000160056
0.000148944
0.000204208
0.000152413
0.000160967
0.000148751
0.000135792
0.000147921
0.000135981
0.000190534
0.0414758
0.000203399
0.000156956
0.000147543
0.00014875
0.000145673
0.000155215
0.000146088
0.000135416
0.000143752
0.000175121
0.000137386
0.000145957
0.000537074
0.000387659
0.000221274
0.000147344
0.000150244
0.000165496
0.000148723
0.00466135
0.000237109
0.000156606
0.000156014
0.000161575
0.000150295
0.000154164
0.0590851
0.000167266
0.000148501
0.00598639
0.000146933
0.000396303
0.014531
0.000156604
0.000149614
0.0585714
0.000140711
0.000189043
0.000182198
0.00189748
0.000152411
0.000147779
0.000145192
0.00316674
0.009168
0.00173293
0.00457941
0.000155121
0.00014505
0.000156051
0.000143135
0.000156062
0.017972
0.0127175
0.041345
0.0155644
0.000170848
0.00017799
0.000165476
0.000141165
0.000142283
0.00017551
0.000158899
0.000146413
0.000143084
0.00290682
0.000139972
0.0155258
0.000161591
0.000191248
0.000195558
0.000142333
0.000155447
0.000336379
0.000143709
0.0410469
0.000143502
0.000627287
0.000167316
0.000149271
0.000164907
0.000198061
0.000196597
0.000149491
0.000134004
0.000168862
0.000156959
0.000191824
0.000143511
0.000189371
0.000139919
0.000237229
0.000147532
0.000143472
0.000216937
0.000172999
0.000201942
0.000145502
0.000156596
0.000156664
0.00586299
0.00671394
0.000155517
0.00020382
0.000146009
0.000160154
0.000148075
0.000155144
0.0392495
0.000136726
0.00130822
0.000146854
0.00014635
0.000155508
0.0040932
0.000153206
0.000208919
0.000149777
0.000168421
0.00538298
0.000131443
0.000140977
0.000363574
0.000173493
0.000502145
0.000174618
0.000148143
0.0001431
0.000142409
0.00015846
0.000149261
0.000136593
0.000248426
0.00561242
0.000143278
0.0190659
0.0241938
0.000155015
0.000224499
0.000136053
0.000295266
0.00516261
0.000132444
0.00550581
0.000172382
0.0144834
0.00550906
0.000143635
0.000142389
0.000147932
0.000855511
0.00017576
0.000144789
0.000149018
0.0002436
0.000148296
0.000173249
0.000143082
0.000170646
0.0263326
0.00299422
0.000236548
0.00193601
0.000175282
0.0194319
0.000156043
0.000140568
0.000158535
0.00417257
0.000188089
0.000173871
0.000144552
0.00026609
0.000145338
0.000148324
0.000343096
0.000148722
0.000159434
0.000196491
0.000204109
0.000144684
0.000142852
0.000155294
0.000157245
0.000134155
0.000147565
0.000166698
0.000232343
0.000152959
0.000145133
0.00017765
0.00512356
0.000143906
0.00182394
0.00227207
0.000145211
0.00113089
0.000134721
0.000229041
0.000143666
0.00013826
0.000216179
0.000152819
0.0266676
0.000152632
0.000142869
0.000877036
0.000143635
0.00013481
0.000145715
0.000140662
0.000160129
0.000172341
0.000747561
0.000151085
0.0418962
0.000151994
0.00222991
0.0108675
0.000149823
0.000143962
0.000156622
0.000136495
0.000196382
0.000142515
0.000134662
0.000135581
0.000144585
0.000143624
0.000230457
0.000157474
0.000178027
0.000153888
0.000158156
0.0001549
0.000163771
0.000273364
0.000137344
0.000189826
0.000180331
0.000134442
0.0134487
0.0250264
0.000142124
0.00210831
0.000145894
0.00220375
0.000168282
0.000132255
0.000169211
0.000157826
0.00209649
0.000142943
0.00015514
0.00452689
0.000217528
0.000597225
0.000143589
0.00102222
0.00018521
0.000291145
0.000143521
0.000152145
0.000143268
0.000146115
0.000141969
0.000145625
0.000136719
0.00235296
0.000167664
0.000141087
0.000134147
0.000140961
0.000148355
0.00021386
0.000185056
0.000137206
0.000157206
0.000147024
0.000147297
0.000145923
0.000140783
0.000196063
0.000134169
0.000140246
0.000149129
0.000147122
0.000155356
0.000148623
0.00051475
0.00656091
0.000155747
0.000140104
0.00019782
0.00013456
0.000134226
0.000148515
0.000436273
0.000156072
0.000146581
0.000135812
0.000137134
0.000158936
0.000133902
0.000162309
0.000142416
0.000148086
0.000141894
0.000151936
0.00667711
0.000140516
0.000148656
0.000143421
0.000232005
0.000910719
0.000159706
0.00014926
0.000197064
0.000163031
0.000197905
0.0578106
0.000148903
0.00284704
0.000148756
0.00428305
0.000149836
0.000136713
0.00013582
0.000354064
0.000135415
0.000160012
0.000199263
0.00020726
0.000175595
0.00015387
0.00014234
0.000144323
0.000143718
0.000161457
0.000202891
0.00593587
0.000178308
0.000145541
0.000133939
0.0001549
0.000141849
0.000140659
0.000148339
0.000178187
0.000163812
0.00314232
0.000145458
0.000144461
0.00016724
0.000143147
0.000199569
0.00017861
0.000176705
0.000204926
0.0415231
0.00016292
0.000141131
0.000133997
0.000147585
0.000142932
0.00150413
0.000175911
0.000195861
0.000136843
0.000146975
0.000152422
0.000140902
0.0569246
0.000231206
0.000134255
0.000135718
0.000143132
0.000142013
0.000140938
0.000144769
0.000230482
0.000134854
0.000148888
0.000136884
0.000137868
0.000142089
0.000145899
0.000162611
0.000137825
0.000173175
0.000135806
0.000955426
0.000221775
0.000156455
0.000266173
0.000153875
0.000148755
0.000187152
0.000781613
0.000144533
0.000140145
0.00013702
0.000173722
0.000150322
0.000163192
0.000428072
0.000146377
0.000148317
0.000144726
0.00290236
0.00056489
0.000151169
0.000139592
0.000159754
0.000175405
0.000142385
0.000195971
0.00014024
0.000134023
0.000155998
0.00497946
0.00471933
0.00146883
0.000234164
0.000134669
0.000249194
0.00021379
0.000161791
0.000143679
0.000214755
0.000156522
0.000240789
0.00617465
0.000142598
0.000134714
0.000144776
0.000149661
0.000134876
0.000256617
0.00194794
0.000134506
0.000146611
0.000148946
0.000170456
0.000144241
0.000142107
0.000200096
0.000147723
0.000142221
0.00115313
0.000200276
0.000194003
0.000142752
0.000135896
0.000134701
0.000145122
0.000163954
0.000192031
0.000140636
0.000139002
0.000153143
0.000860804
0.000137042
0.000143981
0.000195408
0.000141039
0.000139209
0.000143602
0.00276914
0.000135694
0.000144554
0.000137106
0.000163621
0.000135725
0.000158522
0.00020285
0.000144017
0.000229773
0.000163481
0.000209071
0.000186136
0.000140821
0.000163577
0.000140494
0.000139072
0.000140836
0.00328885
0.00637145
0.000176603
0.000160514
0.00389476
0.000187779
0.000148961
0.000201837
0.000200734
0.000156805
0.000135526
0.0127562
0.000150158
0.000140623
0.000138056
0.000238982
0.00621705
0.000318732
0.000138873
0.000192423
0.00436215
0.000168183
0.000168009
0.000154256
0.000152464
0.000167408
0.00173172
0.000152587
0.000150312
0.000155357
0.0235393
0.00022766
0.00014414
0.000147265
0.000143361
0.0152349
0.00015624
0.000149141
0.00398644
0.000158517
0.000169088
0.000154136
0.00508207
0.000138559
0.00129107
0.000149659
0.000135666
0.000141198
0.00013569
0.000135724
0.000140838
0.000147877
0.000233722
0.00013805
0.000850559
0.000159673
0.000147532
0.000141115
0.000199303
0.000143463
0.000146751
0.000154929
0.00724343
0.000193771
0.000152824
0.000146384
0.00310327
0.000138522
0.000177644
0.000146172
0.00490585
0.000168537
0.00429842
0.000158942
0.000143098
0.000236696
0.0273276
0.000247636
0.000137674
0.00014353
0.000169625
0.0406356
0.000130947
0.000181448
0.000141976
0.000160628
0.000140473
0.000134861
0.000147999
0.000149851
0.000135141
0.000169418
0.0001703
0.000158841
0.000200026
0.00894094
0.000150132
0.000797389
0.000136094
0.000195243
0.0127654
0.000209654
0.000134649
0.000149673
0.000145943
0.00754794
0.000145502
0.000140506
0.000191894
0.000146363
0.000146203
0.000151157
0.000149458
0.000142912
0.00913926
0.00502599
0.000186783
0.00013917
0.000145278
0.000267717
0.000136162
0.000469221
0.000147577
0.000145748
0.000149226
0.000157339
0.000217014
0.000141129
0.000145198
0.0003783
0.000147083
0.000148336
0.00016971
0.0196086
0.00193639
0.00014446
0.000143023
0.0407041
0.00347284
0.000328192
0.00014031
0.000167098
0.00020753
0.000137551
0.000195116
0.000152571
0.00229725
0.000153632
0.000146016
0.000150175
0.000135565
0.00782824
0.000145068
0.000139066
0.000623665
0.000203253
0.000547872
0.000135179
0.000151525
0.000135381
0.000131983
0.000135886
0.000151309
0.000146711
0.000148569
0.000135579
0.000148079
0.000180651
0.000162457
0.000162971
0.000139945
0.00015475
0.000141951
0.0058754
0.000147855
0.000149356
0.000147783
0.00013583
0.000148346
0.000146685
0.000144047
0.000143421
0.000140907
0.000135945
0.0040174
0.000932128
0.000144657
0.0094089
0.000169305
0.000148925
0.000147737
0.000150053
0.00290248
0.000148851
0.000136059
0.000134449
0.000134644
0.000361387
0.000144708
0.000136744
0.000237165
0.000134057
0.000133292
0.000164606
0.000170195
0.000228769
0.000205142
0.000602604
0.000136152
0.000731628
0.000157812
0.000143159
0.000136778
0.000163937
0.000143099
0.000164137
0.000187217
0.000153426
0.000150712
0.00034737
0.000210934
0.000413208
0.000240656
0.000383433
0.000246271
0.000139114
0.000240422
0.00328014
0.000134891
0.000861403
0.000138849
0.000150677
0.000196646
0.000140455
0.000243865
0.000156562
0.000152078
0.000147677
0.000184226
0.000143892
0.000358039
0.000142808
0.000136026
0.00369027
0.000133575
0.000148805
0.000148553
0.000183912
0.000142239
0.00014407
0.000152412
0.000632306
0.000144308
0.000144645
0.000136583
0.00015458
0.000142378
0.000150664
0.000774879
0.000141387
0.00015846
0.000147857
0.000156197
0.00015973
0.000140396
0.000148899
0.000193564
0.000147253
0.000148219
0.000158795
0.00543771
0.000148845
0.000141781
0.000144007
0.000164134
0.000228019
0.000150798
0.000140969
0.000141301
0.000137707
0.00013182
0.000135455
0.000156149
0.000188148
0.000184937
0.000146579
0.00664107
0.000139653
0.000145594
0.0476708
0.000174468
0.000134215
0.000198244
0.000146408
0.000140952
0.00398853
0.000148644
0.000177448
0.00013267
0.000208782
0.000139567
0.000134783
0.000135986
0.000592874
0.000260165
0.000146986
0.000297387
0.000135793
0.000142454
0.00013903
0.000195841
0.000146084
0.000138416
0.000154396
0.00015168
0.000142921
0.000145668
0.000140296
0.000148989
0.000146627
0.000140378
0.000154598
0.000135198
0.00626356
0.000187985
0.000136275
0.00128841
0.000158714
0.000140717
0.000139874
0.000150639
0.000140742
0.000162852
0.000156382
0.000213455
0.000212432
0.000147943
0.000185547
0.000209791
0.000143069
0.000146568
0.000194417
0.000156101
0.00543976
0.000135597
0.000143515
0.000153088
0.000150858
0.000143498
0.000158088
0.000140461
0.000154328
0.000144149
0.000156
0.000139599
0.00019189
0.000144699
0.000155053
0.000192061
0.000142683
0.00177298
0.00497149
0.000155709
0.000161748
0.000162476
0.000134422
0.000189339
0.000145453
0.000169355
0.00376536
0.00726758
0.000191582
0.000157649
0.000165776
0.000142908
0.000165097
0.000138905
0.00431128
0.000190931
0.000147929
0.000140466
0.0008245
0.000172089
0.000142781
0.00014327
0.00916466
0.00014753
0.000138331
0.00275387
0.000179438
0.000134778
0.000282504
0.000136013
0.000176074
0.000181452
0.000142946
0.000144379
0.000155982
0.0252076
0.000140088
0.000158916
0.000144356
0.000142973
0.000139826
0.00819203
0.000148315
0.00014521
0.00014381
0.000260264
0.000159376
0.000140265
0.000133079
0.000197009
0.000142247
0.00013689
0.00050932
0.0481634
0.000148873
0.000397009
0.000156151
0.000176478
0.000150817
0.000184658
0.00171916
0.000150104
0.000140988
0.000137056
0.000155503
0.000142828
0.00425031
0.000235722
0.000137429
0.000148931
0.000136298
0.000135521
0.000338127
0.000142918
0.000151037
0.000151896
0.000197911
0.000144597
0.000147715
0.000156413
0.00121916
0.00014632
0.000145208
0.000137308
0.000138312
0.000154989
0.000174163
0.000147475
0.000142225
0.000144765
0.000143637
0.000137105
0.0211029
0.000148136
0.000142989
0.000141958
0.000183264
0.000136498
0.000136906
0.000171069
0.000142499
0.000189697
0.000144358
0.000144556
0.000799083
0.0486716
0.00601662
0.000207265
0.000156906
0.000147154
0.00627551
0.000139681
0.000156381
0.000135134
0.00319206
0.00013041
0.000155289
0.000144692
0.0130831
0.000174673
0.000204887
0.00335373
0.000149475
0.000193096
0.00014794
0.00014913
0.00038304
0.00016889
0.000142115
0.000135962
0.00015414
0.000166868
0.000144036
0.000144734
0.000139646
0.000135002
0.000228309
0.00582789
0.000147907
0.000152937
0.029092
0.00644221
0.000155477
0.000150455
0.000152843
0.000155479
0.000142316
0.000151118
0.000283412
0.000140247
0.000136196
0.000146149
0.000263637
0.000252716
0.00015783
0.000146603
0.000146396
0.000159397
0.000143682
0.000157164
0.000177898
0.000269519
0.000155747
0.00131437
0.000134617
0.00014281
0.000148453
0.000135381
0.000146872
0.000140074
0.000270315
0.00014091
0.00335446
0.000144777
0.000139016
0.000137544
0.000174632
0.000150532
0.000174724
0.00019124
0.000136099
0.000307778
0.000168229
0.000137982
0.000133578
0.000811581
0.0002414
0.000133822
0.000140403
0.000140763
0.000150836
0.00021131
0.000265856
0.000154808
0.000149684
0.000201423
0.010413
0.000149165
0.00014262
0.000249377
0.000154592
0.000874318
0.000153156
0.000142433
0.000185792
0.000197204
0.0478292
0.000210051
0.00259457
0.000136855
0.000142414
0.000148784
0.000146494
0.000154415
0.000147679
0.000146273
0.000139527
0.000148989
0.000147186
0.000146987
0.000145449
0.000152252
0.000148828
0.000143615
0.000141442
0.000179147
0.000178769
0.000140331
0.000145344
0.000227619
0.000146271
0.000150615
0.000147618
0.00654154
0.000136922
0.000171433
0.000153263
0.000135808
0.000143499
0.000860559
0.00030551
0.000150041
0.000148358
0.000153218
0.000174691
0.000140025
0.000160623
0.000172295
0.000141229
0.000204917
0.000140688
0.000143205
0.00014385
0.000148632
0.000162571
0.000211183
0.0424614
0.000173114
0.00013602
0.000144968
0.000143445
0.000191873
0.00014906
0.000305818
0.000139771
0.000143864
0.00014351
0.000189502
0.000142766
0.000146647
0.000144399
0.000206348
0.000136997
0.000592645
0.000136974
0.000166489
0.000144387
0.000162864
0.000140773
0.000154085
0.00287057
0.00019488
0.000136063
0.000187886
0.000145343
0.000146991
0.00045426
0.00256997
0.000136111
0.000142706
0.000156717
0.000135901
0.000143851
0.000148564
0.000147701
0.00015842
0.000179301
0.000149962
0.000159277
0.000158
0.000146714
0.000140793
0.000142095
0.000163687
0.000163247
0.000144137
0.0410955
0.000140326
0.00818426
0.000169212
0.000136504
0.000140204
0.000139946
0.000227078
0.000146161
0.000154499
0.000146462
0.000141604
0.00326906
0.000154078
0.000175376
0.000147362
0.000145548
0.000151783
0.000143305
0.000154046
0.000143447
0.000158731
0.000149246
0.000148643
0.00241546
0.000167836
0.00415947
0.000140888
0.00016351
0.0001494
0.00231046
0.000193194
0.00172037
0.000151436
0.000134836
0.000172743
0.000142698
0.00253788
0.000149846
0.000202944
0.000150535
0.00138752
0.000563023
0.000153217
0.000175041
0.000139367
0.000137453
0.000148695
0.000134715
0.000147968
0.000152594
0.000139476
0.000161079
0.000237121
0.0021988
0.000140698
0.000300968
0.000134523
0.000142419
0.00014371
0.000192107
0.000147201
0.000679485
0.000148008
0.000143576
0.000295783
0.000140197
0.000153662
0.000142149
0.000153179
0.00180695
0.00016437
0.0148472
0.000144859
0.000192078
0.000152589
0.00014176
0.000144139
0.000188124
0.000165
0.000143046
0.000151905
0.000143157
0.00281454
0.000139046
0.0357726
0.000244735
0.000194094
0.000156609
0.000257912
0.000171434
0.000134709
0.0251412
0.00014237
0.000448122
0.000148522
0.00015165
0.00480266
0.0047476
0.000159765
0.0246533
0.00014357
0.0053243
0.000131156
0.012149
0.000135099
0.000154204
0.000201318
0.000146079
0.000139083
0.000149173
0.000144578
0.000179528
0.000696987
0.000169817
0.000315101
0.000142007
0.00769067
0.000144428
0.000148064
0.000143254
0.000145684
0.00403755
0.000147854
0.000137982
0.000168841
0.000148269
0.00746998
0.000209282
0.00014292
0.000248147
0.000170337
0.00014055
0.000144871
0.000154099
0.000136492
0.000180234
0.000163017
0.000151757
0.000153566
0.000137157
0.000147029
0.000182205
0.000149134
0.000145015
0.000150368
0.000134926
0.000135557
0.000441632
0.000159358
0.0410189
0.000160429
0.000178683
0.000162199
0.000142119
0.00016427
0.000139057
0.00014074
0.000486277
0.000164968
0.000161919
0.000181379
0.000148548
0.000528905
0.000230743
0.000143552
0.000160943
0.00021705
0.0256137
0.000136345
0.000138098
0.000146737
0.000176545
0.000533031
0.000169217
0.000154489
0.000148466
0.000142027
0.000135293
0.00146087
0.000154836
0.000154943
0.00131381
0.00014688
0.000151307
0.000154424
0.000145027
0.000142761
0.000143027
0.000178259
0.000213739
0.000148661
0.000154634
0.00114268
0.000142467
0.000149375
0.000153214
0.000146847
0.00541313
0.00291461
0.00193255
0.000211248
0.00687071
0.000150226
0.000139802
0.000377109
0.000153243
0.000158618
0.00014319
0.000135313
0.00736274
0.000235307
0.000141423
0.00013951
0.000161218
0.000438813
0.000156433
0.000135338
0.00545523
0.000152428
0.000170046
0.000134874
0.00016281
0.000131103
0.000153168
0.000157125
0.000142033
0.0252891
0.00014919
0.000172127
0.000214966
0.00326475
0.000207867
0.000142185
0.000183929
0.000155792
0.000163441
0.0001515
0.000151089
0.000145327
0.000150245
0.000745379
0.000152118
0.000660895
0.000139923
0.000204585
0.000135871
0.000148855
0.000245724
0.000156162
0.000204016
0.000160388
0.000149702
0.0479454
0.00311378
0.000140028
0.00029162
0.000170158
0.000138842
0.000134115
0.00683319
0.000289349
0.000138822
0.000136131
0.000143719
0.000136595
0.00362961
0.00253616
0.000130224
0.000133309
0.000139945
0.000227545
0.000175539
0.00550175
0.000135728
0.00566126
0.00014755
0.000193634
0.0100897
0.000164647
0.000139306
0.000139688
0.00532379
0.000136547
0.000141239
0.000136353
0.000166383
0.000154759
0.0290233
0.00016123
0.00014829
0.000142371
0.000159064
0.0002086
0.000176261
0.000141709
0.000142097
0.000208664
0.000178342
0.000149615
0.00525328
0.000161042
0.000152088
0.000337001
0.000151917
0.000157913
0.000148425
0.00126219
0.000145235
0.000148475
0.000357187
0.00016075
0.000141171
0.00014332
0.000131154
0.000176239
0.000214933
0.000140983
0.000136007
0.000149657
0.000181886
0.000156729
0.000135073
0.000142755
0.000139117
0.000152697
0.000173095
0.000146071
0.000142514
0.000409485
0.000142062
0.0276248
0.000165577
0.000168031
0.000154878
0.000151415
0.000145121
0.000279217
0.000206698
0.000184659
0.0282098
0.000164665
0.000140092
0.000304293
0.000136105
0.000185707
0.0012978
0.000153131
0.000141811
0.000154451
0.000189001
0.000142712
0.000142997
0.000294212
0.00014284
0.000157098
0.000141398
0.000147864
0.000137303
0.000204443
0.000194231
0.000135811
0.000141071
0.00325625
0.00014262
0.000136655
0.000140847
0.000140613
0.0253215
0.000158075
0.000152448
0.000152903
0.000149205
0.000137328
0.000180299
0.000189353
0.000159506
0.00021407
0.000158547
0.000153618
0.0285464
0.000140092
0.000136222
0.000143522
0.000140509
0.00014847
0.000132854
0.000150966
0.000813778
0.000144551
0.000141867
0.000156112
0.0001405
0.000308296
0.000147595
0.00397003
0.000220607
0.000201615
0.00016364
0.000883262
0.000159331
0.000143226
0.00015307
0.000140447
0.000150845
0.000146586
0.000148397
0.0002852
0.000135798
0.000143741
0.000176583
0.000250017
0.000147782
0.000139757
0.000208723
0.000149015
0.00020202
0.000143033
0.000139886
0.000145011
0.00040997
0.000145802
0.000248431
0.000182831
0.000155944
0.000139673
0.000143506
0.000163231
0.000806046
0.000135833
0.000172596
0.000141849
0.0069239
0.00022557
0.000150866
0.000205091
0.000146267
0.000152439
0.000157436
0.00114139
0.00015717
0.000160332
0.000163949
0.00268279
0.000147938
0.000175072
0.000144646
0.000253046
0.000209832
0.000228141
0.000142485
0.000161249
0.00459746
0.00378105
0.000151545
0.000154653
0.00618635
0.00675679
0.000140325
0.000178777
0.000143424
0.000154557
0.000146226
0.00015275
0.000151991
0.000280184
0.000147727
0.000148258
0.000184074
0.00341294
0.000244321
0.000202699
0.000398727
0.000139844
0.00608519
0.000187258
0.00014211
0.000141791
0.00775179
0.000156585
0.000145236
0.000142559
0.000176378
0.000138627
0.00014278
0.0462666
0.000145525
0.000148082
0.000141107
0.000143892
0.000151361
0.000139049
0.000396614
0.000169016
0.000153017
0.00013917
0.000161063
0.0275523
0.000142035
0.000147583
0.000624444
0.000220779
0.000143478
0.000155284
0.000138704
0.000140369
0.000203738
0.000208416
0.000140405
0.000143515
0.00122811
0.00306986
0.0080459
0.000211145
0.000150646
0.00291265
0.00014074
0.000156453
0.00015501
0.000139523
0.000354636
0.00494267
0.000172135
0.000204976
0.00604214
0.000134121
0.000133312
0.000151842
0.000170372
0.00188972
0.000136349
0.000172099
0.000792644
0.0287175
0.00014718
0.000151172
0.000763017
0.000142953
0.000154472
0.00577018
0.00014081
0.000142537
0.000139058
0.000485538
0.000141389
0.000164608
0.000148804
0.00023369
0.000159244
0.00167853
0.000143255
0.000142275
0.000166551
0.000148422
0.000161154
0.000150861
0.000196638
0.000197404
0.00014078
0.000144398
0.0412931
0.0156643
0.00568948
0.000139067
0.000143377
0.000154579
0.000145318
0.000143075
0.000144064
0.000147732
0.000148591
0.000139457
0.000139637
0.000189109
0.000155626
0.000167711
0.00477438
0.000188609
0.000178549
0.000154814
0.000188792
0.000231824
0.000163965
0.000156635
0.000157766
0.000141758
0.00934459
0.000136058
0.000135704
0.000140346
0.0013211
0.000142003
0.00120564
0.000148222
0.000134848
0.000181171
0.000143077
0.000142334
0.000143033
0.000180112
0.000267076
0.000147867
0.000139493
0.00015172
0.000457171
0.000177827
0.00732141
0.000143216
0.000178614
0.000146829
0.00014576
0.00013603
0.000138882
0.000143387
0.000149626
0.00280916
0.00015301
0.000152859
0.000202216
0.00301808
0.000198695
0.000141587
0.000203945
0.000165478
0.000522449
0.000137871
0.000142613
0.000166749
0.00260423
0.000132395
0.000144593
0.00013883
0.000136469
0.000199501
0.000152483
0.000195895
0.000146376
0.000132187
0.000167845
0.000144036
0.00300903
0.000144057
0.000175052
0.000148093
0.000159991
0.000149487
0.000186242
0.00715452
0.000142453
0.000176575
0.0547273
0.000141687
0.000146582
0.000173178
0.000131949
0.000315536
0.000185367
0.000142376
0.000183305
0.000134308
0.000146506
0.000148674
0.00014242
0.000136312
0.00014994
0.000140571
0.000138762
0.000145253
0.000147398
0.000178046
0.000136129
0.000221834
0.000138297
0.000140342
0.000160654
0.000180714
0.000149438
0.000132098
0.00014242
0.000153323
0.000178856
0.00112843
0.000165861
0.000149011
0.000149093
0.000139466
0.000163572
0.000140631
0.000152513
0.0333013
0.000309707
0.000175014
0.000141389
0.000147097
0.000149924
0.000132231
0.000185247
0.000134722
0.000262938
0.000149226
0.000230505
0.000159291
0.0303887
0.000147527
0.000192442
0.000448377
0.00554473
0.00191542
0.000157038
0.0061499
0.0104729
0.000148698
0.000166983
0.0307349
0.00013834
0.000139018
0.000143863
0.00015496
0.000232758
0.0001459
0.000156723
0.000453782
0.000130249
0.000144645
0.00552972
0.009608
0.000189192
0.00220159
0.0049468
0.000149916
0.000197711
0.000155829
0.000157083
0.000349977
0.00015377
0.0341478
0.000196457
0.000154217
0.000145526
0.00015159
0.000174426
0.000139574
0.000586974
0.000132299
0.000142805
0.000143244
0.00338162
0.0286297
0.000211882
0.00014489
0.000150988
0.000138823
0.0135734
0.000143477
0.000148406
0.000153849
0.000218201
0.000138605
0.000193835
0.0169737
0.000985236
0.000148586
0.00049132
0.000139639
0.00605171
0.000132682
0.000288993
0.000153761
0.000181669
0.000163269
0.00556972
0.000222123
0.000151743
0.000153236
0.00021995
0.000154045
0.000141928
0.00013869
0.000155236
0.000147454
0.0006962
0.00013166
0.00014283
0.000144273
0.000143817
0.000664144
0.000139256
0.000134561
0.000146093
0.000961272
0.000166181
0.000182278
0.000151699
0.000151264
0.000197036
0.000139771
0.000143165
0.000197092
0.000174849
0.000134576
0.000172119
0.000152433
0.000470356
0.000142671
0.000277044
0.00015389
0.000143238
0.000135253
0.000134889
0.000142318
0.000141367
0.00384294
0.000191344
0.00014683
0.000143085
0.000142394
0.000152494
0.00015959
0.00062105
0.000146205
0.000207195
0.000164865
0.000891218
0.00014774
0.000178311
0.000143026
0.000142699
0.000160127
0.000142552
0.000145679
0.000140429
0.00013599
0.0369014
0.000143574
0.000139186
0.00021638
0.00374728
0.000199769
0.000150587
0.000134856
0.000154813
0.00285001
0.000153249
0.000147777
0.00014723
0.00565827