/*--------------------------------*- C++ -*----------------------------------*\
| =========                 |                                                 |
| \\      /  F ield         | OpenFOAM: The Open Source CFD Toolbox           |
|  \\    /   O peration     | Version:  v2012                                 |
|   \\  /    A nd           | Website:  www.openfoam.com                      |
|    \\/     M anipulation  |                                                 |
\*---------------------------------------------------------------------------*/
FoamFile
{
    version     2.0;
    format      ascii;
    class       surfaceScalarField;
    location    "500";
    object      meshPhiCN_0;
}
// * * * * * * * * * * * * * * * * * * * * * * * * * * * * * * * * * * * * * //

dimensions      [0 3 -1 0 0 0 0];
oriented        oriented;


internalField   nonuniform List<scalar> 
27882
(
-0.000132669
-0.000310869
0.00043994
7.07331e-05
-0.000353598
0.000281279
3.43803e-05
-8.80277e-06
-3.98342e-05
-0.000456928
0.000320417
0.00119642
-6.70715e-05
-0.00113447
6.10783e-06
-7.57358e-06
1.07226e-07
0.0010834
-0.00100725
-9.62437e-05
0.0011646
-0.000458613
-0.000708898
7.57426e-05
0.0011153
-0.00103442
5.56453e-05
0.00097693
-0.000259277
-6.7846e-05
0.000325352
4.5703e-05
-0.00074387
0.000697485
-0.000444785
0.00127924
-0.000838263
-4.96821e-05
-0.000895325
0.000940139
0.0012242
-0.000280818
-0.000970937
-0.00018847
0.000588329
-0.00043079
0.00073596
-0.000690875
-2.94365e-06
2.94365e-06
0.000434941
0.000763218
0.0013478
-0.00115255
-0.000201162
-1.00621e-05
-0.000800055
0.000808349
-0.000482738
0.000108858
0.000373839
5.37218e-06
-8.98126e-07
1.19065e-05
-6.77216e-07
-1.38965e-05
-0.000213512
-0.000269262
-0.000103903
0.00049887
-0.000395042
0.000725511
-0.0011494
0.000424033
0.00015456
0.000493519
-0.000648462
0.000216268
-0.000649546
0.000432891
1.64394e-05
-0.00028681
0.000269286
0.000581278
0.000363375
-0.000944771
0.00117128
-0.000446102
0.000280483
0.0008814
0.000379007
8.18365e-06
-0.000387227
0.00117188
-0.000382555
-0.000793008
0.000342586
-0.000327506
0.000640082
-0.00108829
0.00109974
-0.00117542
0.000997056
0.000178333
-1.7569e-05
-7.49414e-06
2.44559e-05
-3.18922e-05
0.000298948
-0.000266998
0.00121292
-0.00104487
-0.00016883
4.15929e-05
-0.00030098
0.000258475
8.68274e-05
0.00054612
-0.000639696
1.91646e-05
0.000173152
-0.00023588
-5.92314e-05
0.000879098
-0.000820153
0.000384017
0.000826863
-0.000316667
0.000717865
-0.000401636
0.000385327
-0.000304439
-8.08903e-05
-0.000124131
-0.000303344
0.000424123
6.83499e-05
-0.000329335
-0.000589673
0.000106756
0.000482887
-0.000433577
0.000305981
-9.75794e-05
0.000962641
-0.000870963
0.000449918
-2.09354e-05
-0.000429072
0.000249773
0.00102449
0.000124123
0.000186834
-0.000316067
0.00106077
0.000281251
-0.000309025
-0.000429272
0.000737826
-0.000250296
0.000368641
0.000127585
-0.00021314
5.10386e-05
-0.000548945
0.000628903
0.00135993
-0.000581779
-0.000815077
0.00056119
0.000253754
0.000153967
-6.81816e-05
4.9167e-05
0.000261084
-0.000310266
-0.000170706
8.33995e-05
5.99135e-05
-5.15133e-06
9.18411e-05
-8.96463e-05
0.000676179
-0.000522038
-2.84404e-07
-2.83993e-06
-0.000376057
-0.000213653
-0.000581481
0.000504984
7.64207e-05
0.00120874
-0.000441722
-0.000785057
-0.00110779
0.000349063
0.000754957
-0.000685886
-0.000280154
0.000964323
0.000979145
-0.000397973
-0.00106809
0.000906733
0.000161081
0.000621869
-0.00071364
9.12055e-05
-0.000963435
-0.000255805
0.000296453
0.000338361
0.000204893
-0.00054347
-0.000903954
-0.000271507
-2.73916e-05
0.000648757
0.00100957
-0.00058655
-0.000424052
-8.76215e-05
0.000641183
-0.00055963
0.000344198
-0.000582208
0.000237891
-0.000420274
0.000960885
-0.000971339
-0.000139448
0.000845381
0.000514399
-0.000159404
0.000503485
0.000667195
-0.000281997
-0.000385212
0.000123712
-9.12176e-06
-0.000159912
0.000577168
2.20328e-05
-0.000599476
0.000313933
7.13953e-05
0.000879547
0.000309239
0.000291404
-0.000439085
0.000127004
-1.71609e-05
1.63609e-05
3.39945e-07
0.000460923
0.000233599
-0.000695141
0.000102488
0.000643953
-0.000746924
-0.00111264
0.000101258
0.00099066
-0.000671219
0.000611771
-0.000235807
-0.000631042
0.000864719
8.38779e-05
-9.20038e-05
-0.000155253
0.000425726
-0.000283611
0.000332762
-0.000636138
0.000624718
0.000335473
-0.000652533
0.000170076
0.000497115
-0.00124389
0.000473306
0.000769931
0.000233541
-0.00106364
0.000827545
-0.000685401
0.00021481
0.000436957
-0.000668658
-0.000146538
-0.000925252
-2.01827e-05
0.000939644
-4.51797e-05
-3.56683e-05
6.31187e-05
-0.000881744
0.000643977
0.000505952
-0.000817454
0.000311198
-0.000353591
0.000813797
6.14263e-05
-0.000316842
0.000249927
0.000815675
-0.00055687
-0.00025902
0.000598529
9.27431e-05
-0.000697173
9.68625e-06
8.12004e-05
-0.000112266
-0.000395722
-0.000672508
-0.000651361
0.000557641
0.000321584
-0.000462833
0.000132022
-0.000226357
0.000334669
-0.000108312
-0.000940814
0.000837365
-6.4689e-05
-0.000542407
0.000599543
-0.000116473
0.0004294
-0.000750945
0.000519844
0.000230854
-0.000313094
0.0002623
0.000408392
-2.13574e-05
8.98035e-05
-0.000104033
0.000505557
0.000421758
-0.000929341
-0.000439422
0.000129371
0.000310038
-2.03073e-05
2.39361e-06
9.71991e-05
1.55346e-07
-0.00011883
-0.000895062
0.0010687
-0.000173469
0.000480869
-0.000719359
0.000231549
0.000511558
-0.000768994
0.000257087
-0.000331108
0.000669216
0.000162607
-0.00109434
9.43682e-05
-0.000541458
0.000446142
0.000502194
0.00021471
-0.000717453
-0.000209409
-0.00103517
-0.000326649
0.000100294
0.00040055
0.000233332
-0.000634301
-1.73844e-05
-0.00026624
-0.000760353
0.000324386
0.000435714
-0.000339697
0.000270058
-0.000767877
0.00031245
0.000455331
0.000307072
-6.46806e-05
-0.00024239
0.00027937
-0.000296391
1.70208e-05
0.00112688
-0.000661453
-0.000472821
-0.000487425
0.00120821
-0.000724942
-0.000242551
0.000210676
0.000192348
0.000755388
-8.747e-05
0.000664331
-0.000548837
-0.000202306
0.000658548
-0.00103004
0.000369517
-0.00027052
0.000446803
0.000205373
-0.000652172
0.000413052
-0.000486233
6.55635e-05
0.000217618
-0.000337496
0.000119876
-0.000325548
0.000308148
-0.000226747
0.000938699
-0.000712292
-8.20755e-05
0.000339965
-0.000262868
-4.20742e-05
0.000447641
-0.00019829
-0.00038946
0.000587735
-0.00024494
-6.81535e-05
0.000140404
0.000635531
-0.000775684
0.000194566
7.9538e-05
-0.000274105
1.95091e-06
2.14576e-05
0.000384178
0.000265632
-0.000650127
4.77228e-06
-4.77228e-06
0.00127401
-0.000801289
0.000878711
-0.00023717
-0.000654828
0.000997404
-0.000138218
0.000512152
-0.000121171
-0.000391058
-6.43187e-05
0.000443286
-0.000551287
0.00117465
-2.3233e-06
-7.98633e-05
7.9048e-05
-0.00111667
0.000956164
0.000155258
0.000529398
-7.9584e-05
0.00095346
-0.000839709
-0.000385946
0.000768286
-0.000382373
0.000370276
0.000422584
-0.000812843
0.000100556
-0.000388521
0.000427419
0.000585102
-0.00101554
0.000223735
9.01936e-05
0.000842739
-0.00100798
0.000164708
2.92627e-05
0.000250107
-0.000566607
0.000914623
0.00105531
-0.000298299
-0.000757798
0.001101
-0.000925596
-0.000175818
-1.67545e-05
5.4674e-05
-4.04969e-05
-0.00078613
-0.000190044
0.000971703
0.000481809
-0.000759727
0.000277603
0.000308846
0.000807298
0.000343836
-0.000120107
1.27126e-05
-2.94527e-05
1.18098e-05
-0.000503337
0.000452627
4.56208e-05
-0.000303383
-0.00024559
-0.000979066
0.000985557
-7.2071e-06
-0.000514173
0.000109642
0.00037057
-0.000246432
-0.00047293
0.000325847
-0.000108232
0.000929955
-0.000307188
-0.000633948
-0.000873609
-0.000265184
0.000175116
6.36108e-07
1.3616e-05
-2.01009e-05
0.000719433
-0.000140646
-0.000579076
-6.81419e-05
-0.000440105
-0.000954898
0.000211838
0.000736764
0.00114403
-0.000305625
-0.000842574
-1.60666e-05
-1.54536e-06
-0.000299191
0.000135917
0.000115789
0.00063165
-7.94205e-06
-1.00029e-06
-0.00035806
9.14953e-05
0.000265804
0.000866717
0.000233592
-0.000540149
0.000476139
5.72313e-05
-0.000297311
0.000798863
-0.000564605
0.000261062
-0.00087858
-0.000101029
-3.64089e-05
1.15643e-06
3.49995e-05
0.000325119
-0.00101293
0.000498799
-0.000110861
-0.00038804
0.000600963
-0.000154171
0.000365608
0.000553612
-0.000447137
0.000343163
-0.000336059
0.000736136
0.000496421
0.000777153
9.78561e-05
-2.31062e-05
-0.000156094
0.00046567
-0.000337077
-0.000448667
-9.81558e-05
0.00101621
-0.00031901
-0.000698135
0.000348737
-0.000269666
-7.90723e-05
0.000477236
-0.000720178
0.00024267
-0.000667884
-0.000521861
0.00118004
0.000812922
-0.00048237
-0.000365668
0.000672729
0.000342381
-0.000753784
0.00046383
0.000289481
2.26372e-05
-3.02084e-05
-1.28603e-06
-0.000438153
-0.000329871
0.000210923
-0.000654778
0.00044368
-0.000278267
-0.000263666
0.000512691
0.000359964
-0.000487074
0.000108269
-0.000381662
9.41112e-05
0.000283056
-0.000377726
-0.000751068
0.000274547
-7.9982e-05
0.000131156
-0.000661238
0.000522505
1.58938e-05
-1.1711e-06
-1.48771e-05
-0.000536868
8.20339e-05
1.29432e-06
-3.50405e-06
1.33328e-06
-0.000473937
0.000726238
-0.000252504
-0.000241208
-8.904e-05
0.000325128
-0.000196382
-0.000385169
-0.000210648
0.000250479
-7.92178e-05
8.1888e-05
0.00104629
0.000812421
-0.000837619
-0.000400475
-7.13697e-05
-0.000457644
0.000153801
0.000716227
0.000338245
-0.000349754
0.000783347
-0.000433917
-0.000833395
0.000483253
-0.00044026
3.14807e-05
-0.000242558
-0.000797549
0.000128774
0.000936082
4.59119e-05
-0.000991053
-0.000691427
-0.000122119
0.000813357
-0.000345587
0.000476406
-0.000130861
-6.12304e-05
0.000988288
0.000863323
-0.000375295
-0.000500425
4.62932e-05
-3.78301e-05
-8.96734e-06
0.000295483
0.000843468
-0.000588757
0.00104497
-0.000458372
5.76202e-08
-9.05016e-06
-0.000260908
-0.000701885
0.000710282
-0.000763868
0.000438799
-9.81773e-05
8.19849e-05
-0.000111845
-2.21726e-06
-0.000542153
-0.000175004
0.000684724
5.76406e-05
0.000303642
-0.000361298
0.000780421
0.00027223
0.000579623
-5.09269e-06
-1.52826e-06
6.27679e-06
-0.000276328
0.000739761
0.000510301
-0.000188081
-0.000339887
0.000335568
-3.39378e-07
1.49346e-05
0.00102737
-0.000324985
-0.000708119
0.000321254
-0.000138766
-5.03492e-06
3.14804e-05
-3.43987e-05
-3.16304e-06
1.73328e-05
-2.1674e-05
0.000401496
-0.000345097
-6.0764e-05
-5.33565e-06
-3.11473e-05
-1.07425e-05
8.89545e-05
-2.73238e-06
1.16008e-05
-0.000378533
0.000141585
0.000236951
-0.00101407
7.50917e-05
0.000936346
-1.56621e-05
-5.9395e-05
6.17555e-05
5.07913e-05
-7.96782e-05
0.00121029
-0.000616018
-0.000594221
-0.000250248
-5.37701e-05
0.000302338
4.57481e-05
-5.00505e-05
-0.000794516
0.000718204
7.23069e-05
0.000294968
-0.000932239
-0.000683144
0.000127136
0.0011173
-0.000872029
0.000120929
-0.000693756
0.000507303
0.000362935
-0.000870451
-0.0002875
0.000959348
-0.000270168
-0.000689717
0.000575707
-0.000359732
-0.000329069
0.000337221
3.45905e-06
-8.50973e-05
7.90639e-05
-0.000292465
-0.000546726
0.000839257
0.000327501
0.000282438
-0.000610111
-0.000176543
7.87955e-05
6.91435e-05
0.00063454
0.000324217
-0.000495612
0.00115235
0.000730502
-0.000418162
0.000615753
-0.000194827
-0.000444882
8.48141e-05
-0.000140787
-7.1366e-07
1.83777e-05
0.000676188
-0.000480228
-0.000209819
-0.000232826
0.000334635
-0.000101808
-0.00100259
0.000334342
0.000667333
0.000169905
0.000789301
-0.000963112
-0.000484906
0.000189725
0.00029517
0.000131103
0.000460197
-0.00032804
7.68211e-05
-0.000321659
-8.37227e-05
2.56115e-05
0.00105571
-3.11014e-05
-0.00102975
-0.000599012
0.000255593
0.000339637
-0.00102776
0.000565958
0.000910199
-0.000292406
-0.000627818
-0.00012042
0.00116789
0.00123975
-0.000316156
-0.000931296
0.000697733
2.12907e-05
0.000442528
0.000767558
0.000704068
-0.000228394
-0.000908467
-0.000597953
0.000699984
0.00035817
0.000307481
-0.000791129
0.000253067
0.000537192
5.55826e-05
-0.000307426
-9.57304e-05
-0.000294886
0.000390586
2.6692e-05
-0.00047681
0.000449398
-0.000459058
-0.000211628
0.000670396
-0.000583239
0.000981255
-0.00032656
0.000251306
7.52545e-05
-0.00102903
-1.63332e-05
0.00104524
0.00109531
-0.000324696
-0.000774125
0.000198071
0.001034
-0.00078577
0.000951481
-0.000387485
-0.000670509
0.00104973
0.000620336
-8.12488e-05
-0.000282776
-0.0010606
0.000134658
5.10027e-06
-0.000423364
0.000417454
0.00038562
0.000599617
-0.000986281
-0.00105298
-8.13167e-06
-0.000443109
0.000602249
-0.000821594
0.000217739
-0.000988873
-0.000131572
0.000352561
-0.000706773
4.4295e-05
0.000795435
-0.000289786
0.0012668
-0.000770958
-0.000476682
-0.00046846
0.000944355
0.000358331
-5.99071e-05
-0.000710167
0.000250798
1.27961e-06
-6.66784e-07
-0.000493304
0.00018409
0.000309195
-0.000240724
-0.000257059
-5.79939e-05
0.000313323
0.000404503
-0.000400194
-0.000117928
-7.9134e-05
-1.17399e-05
8.75859e-06
-0.000302849
0.000411671
-0.000397327
-0.000717026
0.000152581
0.000563198
-0.000117445
-0.000574189
0.000101844
-0.000991626
-0.000603374
0.00102365
-0.00079253
0.000425566
-0.000645665
-3.16305e-05
-0.000661144
0.000690613
-0.000348329
0.00121771
-0.000874402
7.22135e-05
0.000528451
-0.000606275
-8.55554e-05
7.61944e-05
0.000382138
-0.000775999
0.000919841
-3.72043e-05
-0.000903191
-4.33884e-06
5.70413e-05
-4.18565e-06
2.20817e-05
-2.70194e-05
0.000326957
-8.96114e-05
-0.000241145
0.000410584
0.000573331
-0.000986043
-0.00109323
0.000344045
0.000749143
-0.000575092
-0.000309143
0.000882876
0.00108213
-0.000482469
-0.000599527
0.000701439
0.000380599
-3.78744e-05
-0.00025363
0.000291506
-9.21106e-05
0.000683076
-0.000307874
-0.000375453
0.00031353
8.36506e-05
7.05726e-06
-1.36774e-05
4.40581e-06
-1.97836e-05
-0.00028193
-0.000895684
0.000861235
-0.000428946
-0.000723727
0.00114177
-0.000149849
0.00106223
-0.00037719
0.000729113
0.000158644
0.000832453
-0.000993596
0.000230321
-0.000324331
-8.92118e-05
0.000787012
0.000150919
-0.000166816
-0.000317978
-0.000698321
-1.583e-06
-5.18735e-05
5.13563e-05
-0.000251653
-9.2348e-05
0.000343995
-0.000326263
-0.000383302
-2.73712e-05
1.65922e-05
-0.00029002
-0.000194897
-0.000566167
-0.00010365
0.000669552
9.75856e-05
0.000158418
-0.00030568
-0.000536252
0.000602734
1.24581e-05
-3.57779e-06
-1.28918e-05
0.000560393
0.000705888
1.48826e-05
-4.32731e-06
-1.69347e-05
3.00619e-05
-4.33407e-05
0.000639911
-0.000866972
-0.000739172
0.000163045
-0.000959703
0.000175631
0.000802765
-0.000287791
-0.000767248
0.00105351
-0.000968517
0.00108875
-0.000123697
-0.000643889
2.62397e-05
0.000617618
-0.00111611
0.00103476
7.9471e-05
7.08258e-08
7.91188e-07
-2.32646e-06
-0.000232238
5.13605e-05
-5.5235e-05
-0.000308404
-0.000294527
0.000456446
0.000583865
-0.000412313
-0.000206859
-0.000664579
0.00102784
-2.34266e-06
1.00587e-06
-2.51624e-05
-0.000946012
2.1249e-06
-4.47773e-05
2.92935e-05
0.000510149
0.000284974
0.000414596
-0.000156008
-0.000261794
7.32791e-05
0.00082798
0.000335008
-0.000261539
-7.34698e-05
-0.00030757
0.000252113
5.67534e-06
-5.02484e-06
-9.24961e-07
-0.000216629
0.00081758
0.00120223
-0.000468737
-0.000739756
-0.000399174
-0.000148051
2.69755e-05
-6.39111e-05
2.65216e-05
-1.83336e-05
0.000132143
-0.000155467
-0.000927821
0.000312984
0.000614441
-0.0001749
-0.000297346
0.000472251
-0.000935705
0.00103723
-0.000109418
-2.8285e-05
-0.0005966
0.000623853
-0.000716405
-0.000336673
0.000117698
0.000394381
-0.00028532
-0.000101491
0.000386934
0.000681684
-0.000470957
-0.000377033
9.20994e-05
-4.11102e-05
-0.000234678
0.000270675
0.000294496
0.00038832
-0.0003309
0.000758849
-0.00097647
0.000215632
-0.000752705
0.00103079
-7.67186e-05
-0.00028188
0.000546293
0.000193157
-0.00074281
0.000953346
-0.000795669
-1.36247e-05
6.86213e-05
-6.68286e-05
-0.000297497
-0.00072213
0.000244337
-0.000526044
0.000263397
0.00018109
0.000365172
0.000401387
-0.000172973
0.000378366
-0.000258743
-0.000839037
-0.000251923
0.00108586
4.09109e-05
-5.54907e-05
-1.16857e-06
-2.15372e-05
-3.50058e-05
5.39677e-05
-0.000420388
-0.000190705
0.000610843
-0.000137542
7.98014e-05
3.00944e-05
-7.50723e-06
-3.24554e-05
-2.30305e-05
2.85078e-05
-5.90019e-06
0.000571802
0.000625684
0.00072818
-0.000185121
-0.000944757
0.000142787
0.000592389
0.000324021
-0.000257376
-1.21586e-06
1.07774e-06
-2.25245e-07
-0.000421996
0.000826826
-0.000406094
7.71562e-06
0.00041112
-0.000418953
-0.000389784
3.16863e-05
0.000358105
0.000343143
-0.000820451
-0.000204383
-0.00013853
0.000219703
-0.000823537
-0.000370656
0.000195759
-0.000249706
-8.38411e-05
-0.000294122
0.0003755
8.11941e-05
-0.000336631
0.0013109
-0.000491106
-0.000820799
-0.000267922
4.1118e-07
-1.57849e-06
1.18426e-07
-0.00022538
-0.000387363
0.000612726
-0.00124139
0.000931356
0.000266465
-0.000597802
0.000377604
-0.000464599
4.46534e-05
-0.000586186
0.000591143
-0.000620452
-0.000116837
-0.000389504
-0.000913311
0.000725346
0.000174965
-3.44148e-05
0.000121217
-0.000135304
1.47266e-07
4.17909e-06
-6.11201e-06
0.000939693
-0.000585583
0.000185385
-5.75635e-05
-0.000565464
-0.000130732
0.000695889
-6.42721e-05
-1.92706e-06
6.3066e-05
-0.000903468
0.00105926
0.000334563
-0.00105116
4.03212e-07
-5.58685e-06
-6.70171e-05
-1.43115e-07
-6.75531e-07
2.72784e-05
-8.55011e-05
-0.000809341
0.000892541
-0.000105218
-0.000776873
0.000878481
-0.00108771
-3.02155e-05
0.000889345
-0.00080407
0.000723818
0.000118548
-0.000638877
-0.000392535
0.00102951
-0.000230144
0.000987607
0.000552627
-0.000535031
-2.46332e-05
7.40858e-05
0.000248988
-7.22689e-05
0.00105878
-0.000158361
-0.000909687
7.45493e-05
0.000974795
4.93407e-05
-0.000338739
0.0002894
-0.000619475
0.000233517
0.000338088
8.13335e-05
0.000551231
0.000274481
0.000746616
0.000357755
-0.000556056
1.21842e-05
-6.6472e-05
-1.64492e-05
1.72634e-07
0.000137464
0.000198182
2.46006e-05
-4.82548e-05
-0.000732483
0.000557572
0.000164207
6.88001e-05
0.000475738
-0.00110469
0.000935622
0.000162253
0.000156223
-0.000717582
0.000287869
-5.00331e-05
0.000924358
-1.81292e-05
-2.46083e-06
-0.000562365
-0.000339631
0.00090127
-0.000485063
9.52881e-05
-0.00016377
-0.000782442
0.000939587
-0.000583898
0.000512139
0.000294779
0.000619583
-0.000928644
3.14613e-06
1.76237e-05
-0.000786497
0.000927459
-0.000161227
-0.000126536
-0.00013709
-0.000871951
0.00100579
-7.73562e-05
0.000323849
-0.000248
-0.000395393
-0.000605398
0.000995604
-0.000916459
-0.000161258
0.00107703
-0.000562027
0.000843236
-0.00054321
-0.000248727
7.06722e-05
-2.46875e-05
8.62251e-06
1.20408e-05
0.000288913
-0.000625362
-8.64635e-06
8.18441e-06
-6.02391e-06
4.47647e-06
-0.00110922
0.000917074
0.000191811
-5.2213e-05
2.93559e-05
-0.00101233
0.000222707
0.000916124
-0.000531638
1.40188e-05
-6.98233e-05
4.37301e-05
-0.000892447
0.000247954
0.000622485
9.21793e-05
0.000281368
-0.000225069
-0.000227606
-0.0008625
0.00108514
5.44964e-05
-0.000284948
0.000228681
-7.47644e-06
3.05469e-05
-3.04383e-05
-3.69499e-05
2.69639e-05
0.000612786
0.000395843
0.00102701
-0.000260048
-0.000770333
0.00068654
-0.000795079
0.000221418
0.000643854
-0.000999319
8.13995e-05
0.000281077
0.000112527
0.000477485
-0.000359763
-0.000135257
-0.000145025
-0.000233505
7.78112e-06
-4.78119e-05
3.76989e-05
-1.79315e-05
1.26778e-05
-0.000795783
-8.06203e-05
0.000859536
-9.03106e-05
-0.000291595
0.000379145
-0.000724753
-0.000283764
0.000317165
0.00053627
-0.000854097
-0.000459036
0.000534358
-8.10143e-05
0.000759181
-0.000564234
-0.000668894
0.000836069
-0.0001671
0.000240365
0.00106809
0.000389709
-0.000506122
8.41494e-05
-0.00071393
-8.44371e-05
0.00104892
-0.000415969
-0.000635583
6.53406e-05
0.000898939
-0.00039499
0.000145712
0.000794998
-0.000946287
-0.000766801
0.000226409
0.000526526
0.000387003
-0.000480793
-0.000321333
-0.00041813
0.000738847
2.56807e-05
-4.0227e-05
-0.000239659
-0.000540201
-4.38711e-05
5.40302e-05
-0.000644541
0.000411926
0.000216975
-0.000931049
0.000801146
0.000127777
-0.00121885
0.00102143
0.000195311
-3.82566e-07
1.61793e-05
-0.000157602
-0.000790476
0.00093126
0.00132693
-0.000923475
-0.000410016
5.39494e-05
-0.00086357
0.000372224
-0.000104434
-0.000286919
9.16377e-05
-0.000997381
-0.00039861
-3.10588e-05
-0.000381618
-0.000427875
0.000808809
-0.000166047
-0.000130344
0.000255545
-0.000206203
3.39599e-07
7.95406e-06
-3.12253e-06
-1.13166e-06
2.71848e-06
-0.00108346
-0.000382368
-1.22911e-05
0.000394322
4.05066e-05
-3.49829e-05
0.000288593
-0.000234547
-0.00093944
-0.000100807
0.00102596
5.70361e-05
0.000815813
-0.000340951
-0.000475998
0.000168453
-0.000108102
-0.000869433
-0.000606569
-8.31748e-05
-0.000223413
-0.000238628
0.000443832
-7.00369e-05
0.000592733
-0.000186206
-0.000365457
0.000653968
-0.000637307
0.000727031
-9.01141e-05
-0.000740724
0.00094569
-0.000469881
0.000292063
0.000523361
-3.02327e-06
-1.39392e-05
-0.000679143
0.000123361
-0.000689005
-2.11087e-05
-0.000930217
0.000557437
7.08016e-05
-0.000633843
-0.000459701
0.00052346
0.000545216
4.57659e-06
1.24943e-07
-0.000144793
0.000243631
0.000781275
0.0010144
0.00015677
-6.63929e-05
7.05589e-05
-7.83604e-06
-0.000444119
0.000318626
0.000125474
0.000252564
-0.000290436
0.000272297
0.000821732
-0.000100312
-0.000442634
-0.000211387
0.000846815
0.000213509
0.000832513
0.000741028
-0.000940542
0.000198181
0.00117994
-0.000349601
-0.000830785
-0.000666648
0.000586226
8.03453e-05
-0.00111318
0.000856609
0.000245467
0.000584291
0.000140846
-0.000725276
1.68413e-05
-8.28168e-06
0.00034913
-0.000731377
-0.000265659
-1.7024e-05
7.17121e-05
-6.69021e-05
0.000917209
-0.000147176
-0.000771436
0.000696839
-0.00107159
0.00129629
-0.000695914
-0.000603085
-0.000964592
-0.000145518
-5.40802e-05
0.0011011
-0.000909871
6.63041e-05
-0.000717567
0.0011412
0.000156673
0.000674721
-0.000832238
0.000701991
-0.000173426
-0.000537478
-0.000525675
0.000852556
-0.000922193
0.000959174
0.00093374
-0.000554057
-0.000381123
-6.14029e-05
5.52023e-05
3.10179e-06
-1.27408e-05
1.70742e-05
-4.35533e-06
-0.000809501
0.000602492
-0.000359873
-0.000296447
0.000330026
9.72574e-05
0.000271606
-0.000388373
-0.000939239
-7.9059e-06
-0.00038505
0.000392194
-0.000544389
0.000177073
-0.000564278
0.000814811
-9.73443e-05
-0.000734061
-0.00106802
0.000115236
0.000943069
-0.000934149
0.000398035
0.000535166
-0.00102247
-2.93673e-05
0.00104071
-0.00038296
-1.8928e-08
-0.000927623
1.72499e-05
0.000908162
-0.000185676
-4.46954e-05
-0.000938646
0.000977597
0.000686698
0.00020563
-0.000898976
4.29326e-05
9.42514e-06
0.000211488
-8.50342e-06
-5.55903e-05
0.000460867
-0.00023725
-0.000951672
-0.000230269
0.000511472
-0.000281207
-1.44933e-05
-1.35537e-05
0.00094662
-0.00016352
0.000675466
0.000618003
0.000442813
-0.000747552
0.000304762
-0.000861143
-6.76691e-05
0.00092615
0.00101028
-0.000179781
-0.000366596
0.000162248
0.000204298
-5.69685e-06
5.8624e-06
-3.3726e-06
0.000402939
-0.000411666
-3.22636e-05
-0.000111915
0.000132549
0.000572523
0.000606588
-8.34752e-05
-0.00094644
0.000476408
0.00049265
-0.000975969
0.000306549
-0.000443972
0.000137401
-4.00804e-05
0.000444013
0.000528359
0.00107276
-0.000369662
-0.000711511
-0.00104212
0.000442267
-8.423e-05
-0.000368242
3.40911e-05
0.000760776
-0.000261229
0.000352009
-0.000165438
0.000364332
-0.000198894
0.000503584
-4.78725e-05
-0.000461781
0.000349446
8.25211e-05
-0.000147809
0.000104222
-0.000797152
0.000153232
0.000870688
-0.000554284
0.000142555
0.000783874
-0.000931305
-0.000114004
0.000382742
-0.000284965
-0.000685395
-0.000109167
0.000790601
-0.000452042
0.000922047
-0.00113932
-0.00073226
-7.02913e-05
0.000441954
-8.63588e-05
-0.000725777
0.00117969
-0.000309412
-0.000870215
2.94043e-05
1.63882e-05
5.50532e-05
0.000389072
-0.00044624
-0.00104923
0.000735893
0.000296011
0.00109104
-0.000671459
0.000317152
9.01864e-05
5.38197e-05
0.00023344
-0.000291943
0.000674808
-0.000892831
-0.000943232
1.36801e-05
-0.000699115
-0.000524101
0.000139418
0.000345199
-0.000417986
0.000103154
0.000314818
1.67274e-05
0.000115916
-0.000163569
-0.000854912
0.00076792
-0.00108988
0.000832941
-0.000422655
0.000771117
-2.54499e-06
7.56243e-06
-0.000138442
0.000815359
0.000370841
-0.000254359
-0.000117036
-0.000755619
6.64894e-05
0.000980472
-0.00024084
-0.000426055
0.000439267
-3.5546e-05
-0.000429633
-0.00055096
0.000964194
0.000879254
-0.000533623
-0.000261799
0.000184466
-0.000425686
0.000484068
1.2574e-05
-0.00019818
0.000703318
-0.000533975
0.00117517
-0.00038613
-0.000797347
0.000265352
0.00079871
-0.000667205
5.45017e-05
-0.000954999
0.000771314
0.000164043
-9.5843e-05
-0.000248313
-0.000591534
-0.000246389
-0.000666192
0.000127657
-0.000105878
0.000468869
-0.000379627
-0.000533282
-0.000121624
0.000861634
-0.000386896
-0.000475425
0.000449731
0.000280668
-0.000550112
0.000442249
0.000107164
-0.000364069
0.000198633
0.00079995
0.000100386
-0.000921129
-0.000821337
0.000819394
-0.00117286
-0.000527847
0.000473481
-0.000476892
-4.00633e-05
0.000490095
1.70606e-05
6.73533e-05
-9.65057e-05
-4.76945e-05
-1.17045e-05
5.06274e-05
0.00034185
0.000753694
-0.000190035
0.000751095
0.000471741
-0.000464157
0.000498896
0.000680407
-3.67615e-05
-0.000177753
0.000212231
-0.000872896
0.000713627
0.00014382
0.000101757
-0.000742178
-0.000611093
0.00101952
-0.000998735
0.000668365
0.000329534
-3.4651e-06
1.11146e-05
-0.000209469
0.000925666
-0.000723088
0.00028142
-0.000232285
-0.000285228
-0.000100157
0.00038538
0.000870761
-0.00104791
0.00017622
0.00108845
-5.73043e-05
-5.12331e-05
8.52125e-05
-0.000387216
0.000322789
-0.000630893
0.000391097
-0.000337961
-9.09675e-05
0.00081793
0.000253626
-0.00107233
-0.00092434
-0.000168716
0.00108542
2.68251e-06
-4.08875e-05
4.26493e-07
-1.87307e-05
-0.000413424
0.00034907
-0.000954046
0.00103379
-8.70659e-05
-0.000110419
0.000107397
-1.36953e-06
-0.000889141
0.00060241
0.000286188
0.00104539
-0.000836515
0.000650925
0.000165427
-2.61874e-05
2.48634e-05
-0.00102382
0.000202119
0.000819789
0.000617447
-0.000521794
-0.000893566
0.000750602
0.000124167
-0.000604736
-5.8714e-05
0.000627607
0.000926415
-0.000146743
-0.00079047
0.00119623
-0.000738581
-0.000475687
0.00103986
-0.000320936
-0.000723995
0.000354611
0.000664618
-0.00102107
0.000587695
0.000200741
-0.000803507
-0.000976288
1.59877e-05
-0.00112299
0.000945102
0.000177432
9.38396e-05
-0.000379072
0.00088689
-0.000471991
-0.000375655
0.000298393
-0.000460909
0.000355661
0.000105191
0.00080221
0.000299945
-0.00110768
-3.47245e-05
-0.000477574
0.000507103
-4.11953e-05
-0.000492786
-1.69508e-06
-2.70249e-07
-0.00110126
0.000177461
0.000918518
0.00105561
-0.000258716
-3.03549e-05
-8.02509e-06
3.03473e-05
-0.00110989
0.000941846
0.00024375
0.00079133
-0.00104281
0.000150014
0.000884133
0.000454973
-0.000148458
-0.000953862
0.000362847
-1.25382e-06
3.52166e-05
-4.23112e-05
-0.000871927
0.00100498
-0.000142672
-0.00107015
0.000843794
0.000225705
-0.000814621
-9.80967e-05
4.65954e-06
8.99585e-05
0.00033331
0.000409455
-0.000488768
0.000552801
-9.54879e-05
0.000901916
-0.000311813
-0.000143037
0.000816199
-0.000277348
-0.000641502
0.000899337
-0.000464496
3.46339e-05
0.000409785
0.000465204
-0.0001014
-0.000374125
-0.00025683
-0.000900028
-0.00057431
0.000739193
-0.000165456
3.87813e-05
-2.12144e-05
-0.000469554
-8.11264e-05
-0.000283259
-0.000394207
0.000688434
-0.000310125
0.0011273
0.000247877
0.000919759
-0.000236433
-0.000844663
0.0010774
-7.15276e-05
0.000589412
-0.00108158
-0.000935419
-0.000924882
0.000135269
0.000778841
0.00048491
-0.000540441
5.54042e-05
-0.000703194
0.000229063
-0.000659142
-0.000391256
0.00104332
0.000192991
-0.000962198
0.000768568
5.77804e-05
-1.84676e-05
2.51643e-05
-1.11563e-05
0.000347343
0.000467248
-0.000105728
4.03174e-06
0.000108961
-0.000197135
-0.000735988
-0.00131212
0.000404993
0.00089985
-0.000116632
-8.03396e-05
5.85809e-05
-0.000274791
0.000214342
0.000452176
-8.20072e-07
-0.000467789
0.000176286
0.000517011
0.000573546
7.72844e-05
-0.000279543
-0.000262856
-0.000549762
3.94114e-05
-0.000489993
7.01951e-06
0.000109348
1.84337e-05
-0.000899141
-0.000455493
0.000479007
-2.86811e-05
-0.000561712
0.000914619
-0.000484027
-0.00039503
0.000654518
-0.00012234
-0.000533035
0.000225052
0.000500964
-0.000718333
0.000587273
-0.000705813
4.14141e-05
1.84921e-05
-6.28089e-05
0.000564088
-0.000859137
1.90081e-06
-0.000668572
4.22796e-05
-9.92342e-06
-4.88146e-05
0.000670443
6.3635e-05
-0.000750448
-0.000289072
-0.000588229
0.000874864
4.54265e-05
0.000231232
-0.000397535
0.00096898
-0.000935969
0.00102662
-9.82174e-05
-0.000915171
0.000997542
-9.2517e-05
-0.00103086
0.000831989
0.000198035
-0.000762137
0.000897556
-0.000155777
-0.000524247
0.000307759
-1.8826e-05
5.73774e-05
-0.000217388
0.000790026
-0.000462911
0.00125955
-0.000796944
0.00110973
0.000305538
-8.24476e-05
-0.000253207
-0.000816581
0.000272861
8.00057e-05
-0.00123361
0.000376887
0.000838077
0.000846428
0.000235596
-0.0010853
0.000124392
-0.000362731
-0.00093121
0.000639535
-0.000622679
-9.50123e-05
1.91243e-05
-1.77906e-05
-4.10168e-06
-0.000785241
0.000928071
-0.000143585
-9.6822e-06
0.000595742
0.000773927
0.000144289
0.000199716
0.000996829
-0.000425462
-0.000404656
-0.000915367
-0.000814791
0.000109215
0.000705177
0.000116419
-3.66117e-05
-0.000220106
-0.000378176
0.000575283
-0.00103494
0.00086314
0.000168647
-0.000239653
8.83915e-05
-0.000663227
-0.000898658
0.00107944
-0.000185276
-0.000210878
0.000267592
-0.000210965
-7.16718e-05
0.000282635
-0.000861036
0.000376418
-3.57557e-05
5.6728e-06
2.78895e-05
6.35804e-05
8.54277e-05
-2.60833e-05
-0.000612999
0.000387604
-0.000206639
0.000429367
-8.01384e-05
0.000463355
-0.00108063
0.00013675
-0.000204247
-0.000179081
-0.000761933
0.000215179
0.000531327
0.000773516
-0.000330706
0.000220854
-0.000506798
-0.000160803
-0.000194221
-0.000388118
1.62557e-05
-7.23102e-05
-4.14122e-05
4.58622e-05
-6.14651e-06
6.27562e-05
-0.000866498
0.000752845
0.000592065
-0.000990849
-0.000934452
0.000901527
-0.000475986
0.000923591
4.0333e-05
0.000108965
-0.000178886
-0.000101156
-0.000436312
6.22572e-05
-0.000846913
-0.000865772
0.000667158
0.000177205
-0.000341219
-0.000119743
-0.000640526
-1.77431e-05
0.000641939
-0.000270987
0.000972808
-0.000704782
0.000558229
-0.000450952
-6.64093e-05
-0.00058647
-0.000617288
0.000373555
-0.000231226
-0.000544354
0.000418556
0.00044244
8.31852e-05
-0.000985956
-0.000611584
0.00104811
-0.000438307
-0.000362238
0.00088204
-0.000521115
0.00104771
-0.000240386
-0.000815261
-0.000817614
-2.79972e-05
0.000824535
0.000153226
0.000626519
-0.000781336
0.00056461