/*--------------------------------*- C++ -*----------------------------------*\
| =========                 |                                                 |
| \\      /  F ield         | OpenFOAM: The Open Source CFD Toolbox           |
|  \\    /   O peration     | Version:  v2012                                 |
|   \\  /    A nd           | Website:  www.openfoam.com                      |
|    \\/     M anipulation  |                                                 |
\*---------------------------------------------------------------------------*/
FoamFile
{
    version     2.0;
    format      ascii;
    class       surfaceVectorField;
    location    "500";
    object      Uf;
}
// * * * * * * * * * * * * * * * * * * * * * * * * * * * * * * * * * * * * * //

dimensions      [0 1 -1 0 0 0 0];


internalField   nonuniform List<vector> 
27882
(
(1.00607 -0.00212665 -9.33619e-22)
(1.00623 -0.00346258 -5.60686e-22)
(1.0071 -0.00246525 -5.16124e-22)
(0.951507 -0.0324525 -1.85281e-21)
(0.952304 -0.0421746 -3.41853e-21)
(0.962451 -0.0357457 -8.00304e-22)
(1.0029 2.24409e-05 -5.83427e-22)
(1.00347 3.41351e-08 8.93754e-22)
(1.00397 -3.10602e-05 7.71097e-22)
(1.00485 -0.00152988 -8.97063e-22)
(1.0063 -0.000835528 1.9457e-21)
(1.01776 0.000752706 0)
(1.01895 4.1319e-05 0)
(1.0189 0.00156856 0)
(1.00687 0.000126072 2.23718e-23)
(1.00754 0.000228038 1.77537e-22)
(1.00709 0.000171794 2.19174e-23)
(1.01525 -0.00515182 0)
(1.01535 -0.00534202 0)
(1.01551 -0.00525963 -4.31616e-22)
(1.02524 -0.0172314 -8.83416e-22)
(1.02561 -0.0176054 1.01268e-21)
(1.02517 -0.0177244 1.01228e-21)
(1.01665 0.00121374 3.71215e-22)
(1.01678 -3.07457e-05 0)
(1.0156 0.0014744 8.42046e-22)
(1.01451 0.00146552 1.37573e-21)
(1.01483 0.000458297 1.15198e-22)
(0.947921 -0.00796256 4.35365e-21)
(0.954859 -0.0140048 1.47356e-21)
(0.959542 -0.0051128 -7.83083e-22)
(0.867011 0.202696 -3.83285e-21)
(0.856622 0.192902 3.67678e-21)
(0.850571 0.17074 4.51154e-22)
(1.02049 0.0732156 7.70376e-22)
(1.03302 0.0639142 0)
(1.02941 0.074952 0)
(1.03347 -0.0163101 1.61587e-21)
(1.03426 -0.0165472 1.66846e-21)
(1.03385 -0.0157348 1.06938e-21)
(1.0147 -0.00482756 0)
(1.01499 -0.00501256 0)
(1.01475 -0.00505267 0)
(1.01222 -0.00224034 -3.69088e-22)
(1.01207 -0.00214248 1.78749e-22)
(1.01209 -0.00229117 5.04872e-22)
(0.880924 0.20889 -4.55296e-21)
(0.87929 0.2292 1.36554e-20)
(1.01124 0.00149228 6.04765e-24)
(1.0111 0.00143335 -2.43882e-23)
(1.01444 -0.00468588 5.72953e-22)
(1.01466 -0.00463982 -1.71346e-22)
(1.01698 -0.0195718 -1.00135e-22)
(1.01703 -0.0202625 3.47784e-22)
(1.01773 -0.0198725 -2.46868e-22)
(0.939653 -0.102813 -1.39367e-22)
(0.920715 -0.100634 1.04035e-20)
(0.935428 -0.0851203 -1.31461e-22)
(1.12959 -0.241791 1.14395e-20)
(1.13036 -0.23347 2.0878e-20)
(1.1202 -0.235572 7.36387e-21)
(1.00588 8.87095e-05 -1.0409e-22)
(1.00666 0.000132194 4.96486e-23)
(1.00627 0.000136296 6.76527e-23)
(1.00662 0.000172746 1.21242e-22)
(1.00702 0.000223122 9.91234e-23)
(1.13 -0.249087 -4.59081e-20)
(1.1412 -0.24769 2.14622e-21)
(0.944198 -0.248998 3.62137e-21)
(0.95499 -0.245813 -4.85756e-22)
(0.95081 -0.258727 6.44049e-21)
(0.895096 0.297239 -3.10672e-21)
(0.8865 0.298823 -1.43706e-20)
(0.89471 0.303375 -8.605e-21)
(0.952706 0.0216176 1.49243e-21)
(0.953303 0.0134738 3.88302e-21)
(0.945126 0.0203924 -8.88947e-21)
(1.0049 -0.0999863 0)
(0.999757 -0.102314 0)
(1.00094 -0.0964601 2.77616e-22)
(0.933299 -0.0723077 1.85826e-22)
(0.939615 -0.0827387 1.4653e-22)
(0.948682 -0.0703814 -3.92219e-21)
(0.858442 0.106612 -1.19018e-20)
(0.876308 0.0317784 2.71352e-21)
(0.831736 0.101174 -4.44965e-21)
(0.900748 0.293519 2.01926e-21)
(0.89285 0.289376 -2.67646e-21)
(1.02489 -0.0169366 -3.2292e-21)
(1.02524 -0.0168545 -4.13052e-22)
(1.09564 -0.304945 0)
(1.10328 -0.306865 0)
(1.09246 -0.316844 0)
(1.0201 -0.000671499 -7.09225e-22)
(1.02127 -0.0012086 7.92541e-23)
(1.02144 0.000273731 6.26001e-22)
(0.92952 -0.0590804 0)
(0.918525 -0.0701066 -9.0272e-23)
(1.01402 0.0715736 1.45051e-21)
(1.00609 0.0830841 6.58823e-22)
(1.01888 -0.00122625 0)
(0.833852 -0.169878 7.85223e-21)
(0.802328 -0.161727 -9.78483e-21)
(0.815566 -0.22572 8.71668e-21)
(1.01349 0.00252316 -1.81988e-23)
(1.01342 0.00243009 4.84313e-23)
(1.01333 0.00246294 6.79169e-24)
(0.885386 0.0976094 0)
(0.878166 0.063553 0)
(0.88655 0.065418 0)
(1.01224 0.00264189 8.70067e-22)
(1.01214 0.00402079 2.20728e-23)
(1.01351 0.00314654 -6.49696e-22)
(0.933577 0.158041 -4.30328e-22)
(0.919955 0.153135 6.42208e-22)
(0.924913 0.136878 -1.83275e-22)
(1.01303 3.75954e-07 -4.18001e-22)
(1.01278 -2.91111e-06 -1.12514e-22)
(1.01305 0.000195373 3.96969e-22)
(1.00972 -0.000732238 1.17664e-22)
(1.00969 -0.000722975 5.3709e-23)
(1.01006 -0.000818889 0)
(0.950801 0.0163318 1.43465e-20)
(0.991402 -0.0622282 -1.2266e-21)
(0.955148 -0.0455122 -1.32713e-21)
(1.01114 0.00203415 0)
(1.01204 0.00158682 0)
(0.99216 -0.0922835 -6.33361e-22)
(0.992862 -0.0869823 1.82648e-21)
(0.987574 -0.0896234 2.68051e-21)
(0.19979 -0.036973 1.34726e-20)
(0.150567 -0.013153 1.91435e-20)
(0.196769 -0.0455595 1.54e-20)
(1.00646 0.00254191 0)
(1.00599 0.00142431 -3.99575e-22)
(1.00708 0.00154168 0)
(0.940387 0.000218231 1.06111e-21)
(0.93433 -0.0100967 5.82829e-21)
(0.762763 -0.354429 -5.99789e-21)
(0.785139 -0.359495 -4.52802e-21)
(0.789241 -0.344124 3.30898e-21)
(1.00609 0.00380581 -1.64432e-22)
(1.00732 0.00350724 0)
(1.00556 -0.0122062 5.97342e-22)
(1.00589 -0.0112763 7.75353e-23)
(1.00494 -0.0114859 6.51702e-22)
(1.07804 -0.174199 7.56713e-21)
(1.08431 -0.175845 0)
(1.07977 -0.180634 1.0492e-20)
(1.04274 0.0532996 0)
(1.03314 0.0541828 1.69033e-22)
(1.01149 -1.44352e-05 -9.51281e-23)
(1.01152 1.47718e-05 -1.09535e-22)
(1.0118 -4.94356e-05 -3.26157e-22)
(1.01701 -0.0188382 -2.35564e-22)
(1.01626 -0.0191295 -3.05126e-22)
(0.993617 -0.0822683 -8.03501e-22)
(0.989843 -0.0793238 0)
(0.994546 -0.0774088 -1.39552e-21)
(1.01147 -5.99584e-05 6.91949e-22)
(1.01122 3.63367e-05 1.99674e-22)
(1.00889 -0.00055782 9.25105e-23)
(1.00943 -0.000711347 1.15616e-22)
(1.00896 -0.000523869 1.39752e-23)
(1.01327 -2.69923e-05 -2.14971e-22)
(1.01294 -0.000181016 9.74382e-23)
(0.889137 -0.297419 -2.30483e-21)
(0.892225 -0.291355 1.88788e-21)
(0.571383 0.174016 -2.02007e-21)
(0.542171 0.129857 6.30706e-21)
(0.576006 0.180143 -1.30115e-22)
(1.00792 -0.000428524 -1.27829e-22)
(1.0088 -0.000578424 -3.65661e-22)
(0.969579 -0.260522 -2.40514e-20)
(0.981371 -0.255374 2.78203e-22)
(0.924152 -0.239053 -4.36894e-21)
(1.00641 -0.000182051 2.61766e-22)
(1.00572 -0.000117953 -4.84356e-22)
(1.00577 -0.000132211 6.50038e-22)
(1.01028 0.0011749 1.33589e-24)
(1.01017 0.00114714 2.47325e-22)
(1.01036 0.00117607 -4.05804e-22)
(0.961117 0.0222114 -8.4929e-21)
(0.954504 0.0304213 3.02702e-22)
(1.01121 0.0015053 1.54867e-23)
(1.01138 0.0015907 0)
(0.723753 -0.36313 -4.82835e-21)
(0.736519 -0.352569 -3.79544e-21)
(0.923566 -0.273525 4.73364e-22)
(0.927937 -0.263547 -4.65741e-21)
(0.936542 -0.272563 -3.54326e-21)
(1.01269 -0.00529559 -3.63886e-23)
(1.0129 -0.00546315 -6.08345e-22)
(1.01268 -0.0054743 1.06192e-22)
(1.02382 -0.0231031 -4.96728e-22)
(1.0239 -0.0226144 1.06166e-23)
(1.02309 -0.0227548 2.37768e-22)
(1.06925 -0.0404717 -3.67284e-22)
(1.06967 -0.0339167 1.06461e-21)
(1.06338 -0.0370852 -9.7013e-22)
(0.878717 0.116937 -4.41751e-21)
(0.835011 0.173686 1.54595e-20)
(0.932909 -0.282563 -2.01305e-21)
(0.940742 -0.275138 -6.18242e-22)
(0.94498 -0.285477 -7.39655e-21)
(0.912185 0.222882 -5.29384e-22)
(0.907829 0.241652 -6.34324e-22)
(0.925734 0.233598 2.97175e-22)
(1.01638 0.00244725 -1.36351e-22)
(0.944274 0.174843 -4.44936e-22)
(0.949909 0.157946 7.40148e-22)
(1.05044 -0.125118 -4.43601e-21)
(1.05494 -0.125222 3.01474e-22)
(1.05227 -0.129958 1.33527e-20)
(0.864814 -0.177706 7.33478e-21)
(0.858344 -0.111483 -2.41693e-21)
(0.898371 0.211358 -7.54006e-22)
(0.915621 0.207702 -1.67993e-21)
(1.0418 -0.0262465 1.6396e-21)
(1.04421 -0.0276147 1.07022e-21)
(1.04418 -0.0245173 8.16316e-22)
(1.01225 0.000893199 -4.28879e-22)
(1.01252 0.000795083 -3.3373e-22)
(1.01265 0.00130764 -4.48211e-22)
(1.08271 -0.15425 5.60201e-21)
(1.08074 -0.15887 2.88714e-20)
(1.07697 -0.15477 2.36482e-20)
(1.05135 -0.0233169 3.53647e-21)
(1.05094 -0.0216518 3.98889e-21)
(1.02465 -0.023588 -4.8692e-22)
(1.02373 -0.0238056 6.03185e-22)
(0.886812 -0.291887 -5.9832e-21)
(0.884734 -0.301922 1.39095e-21)
(1.08749 -0.151857 -6.61817e-21)
(1.08282 -0.14841 -6.60267e-21)
(0.456941 -0.360048 1.39212e-20)
(0.421753 -0.363551 5.03113e-21)
(0.391637 -0.353162 -1.76092e-21)
(1.0087 -0.00051467 5.07162e-23)
(1.00905 -0.00049902 0)
(1.00995 -0.000567405 2.25708e-22)
(1.0608 -0.0996634 -2.13054e-22)
(1.06448 -0.0996836 8.24498e-21)
(1.06213 -0.10346 6.27887e-21)
(0.245896 -0.054817 0)
(0.195723 -0.0258464 0)
(1.0127 -0.0051485 2.10937e-22)
(1.01251 -0.0051306 7.98347e-23)
(1.00769 -0.000625614 -3.00255e-24)
(1.00776 -0.000663746 -3.38988e-22)
(1.0077 -0.000640789 1.6859e-22)
(1.01241 0.00210445 2.82019e-25)
(1.01225 0.0020347 4.17885e-23)
(1.01243 0.00213714 4.04519e-23)
(1.02189 -0.0735887 1.03118e-21)
(1.02506 -0.0750198 4.93598e-21)
(1.02154 -0.0770853 -1.05778e-21)
(0.913462 0.264024 -1.87507e-22)
(0.903335 0.257371 8.34934e-22)
(0.903636 0.269518 8.11611e-22)
(1.01026 -0.00368959 7.76263e-23)
(1.01033 -0.00378444 -2.40203e-22)
(1.01022 -0.0035974 7.99304e-23)
(0.918347 0.0799846 8.17992e-21)
(0.950927 0.0540563 -2.20803e-20)
(1.01592 -0.0295343 6.93623e-22)
(1.01711 -0.0298199 4.07915e-22)
(1.01662 -0.0282473 -5.70484e-22)
(1.01021 0.00117066 -8.76165e-24)
(1.01039 0.00120217 1.81362e-22)
(1.00767 -0.000600992 0)
(1.00761 -0.00058135 0)
(0.947606 -0.262378 -3.62214e-21)
(1.00891 -0.277104 -1.68371e-20)
(0.946537 -0.117187 9.61372e-23)
(0.956043 -0.102141 -4.64441e-21)
(0.996357 -0.0941026 -2.6486e-21)
(0.991674 -0.0969593 -3.18717e-21)
(0.481987 -0.357305 8.643e-21)
(0.515725 -0.365543 6.98807e-21)
(0.9305 -0.251676 1.89182e-21)
(0.924274 -0.240381 8.72081e-22)
(0.939464 -0.243004 1.91329e-21)
(0.858017 -0.0612028 6.83583e-23)
(0.858917 -0.0823713 3.73967e-21)
(0.878417 -0.0721617 -4.02474e-22)
(1.01265 -0.00223864 5.16702e-23)
(1.01248 -0.00213806 -3.54906e-22)
(1.01263 -0.00207748 -3.37095e-22)
(0.609114 0.218155 -5.29022e-21)
(0.56114 0.156689 6.17346e-22)
(1.00354 0.00869785 4.50354e-22)
(1.00296 0.00669906 -1.52711e-21)
(1.00474 0.00728648 -7.1204e-22)
(1.00504 -5.40327e-05 7.52429e-22)
(1.00507 -4.97858e-05 7.94374e-23)
(1.00413 -3.3894e-05 -9.99038e-23)
(1.01491 -0.0308894 1.45181e-21)
(1.01461 -0.029091 -6.65319e-22)
(0.835318 0.0487919 2.25385e-22)
(0.800467 0.0494131 5.08562e-21)
(0.827643 0.0606917 4.83495e-21)
(1.01846 -0.0722012 -1.87992e-21)
(1.02152 -0.0699721 -2.44965e-21)
(1.01033 0.000495722 -9.51214e-22)
(1.01048 0.000380878 -6.9246e-22)
(1.01031 0.000443944 4.73754e-22)
(0.746869 0.0174592 -3.99968e-21)
(0.700597 0.00556623 1.78265e-21)
(0.72361 -0.00180834 -7.35175e-21)
(1.01129 0.000506952 -1.38879e-22)
(1.01153 0.00100518 -1.50474e-21)
(1.011 0.000971982 -1.15049e-21)
(1.00562 -6.37308e-05 7.7898e-23)
(1.00538 -6.4977e-05 2.93359e-22)
(1.00614 -5.11745e-05 -6.52642e-22)
(0.923047 -0.282475 4.93646e-21)
(0.927609 -0.290756 -5.35847e-21)
(1.01192 0.00101089 -3.2182e-22)
(1.01198 0.000557127 9.96691e-22)
(1.00925 -0.00024612 1.04608e-24)
(1.00938 -0.000233923 6.36107e-22)
(1.00923 -0.000203609 2.44466e-22)
(-0.0511072 0.144617 2.92292e-21)
(-0.0454544 0.133279 -1.57198e-20)
(-0.0441759 0.128447 8.3776e-21)
(1.00548 -0.01311 0)
(1.00634 -0.0127454 0)
(1.0121 -0.000359644 4.74519e-22)
(1.01226 -0.000312678 1.10786e-22)
(1.01202 -0.000427656 3.68493e-22)
(1.00929 -0.000282056 -4.72855e-22)
(1.00912 -0.000247827 0)
(0.970136 -0.148617 4.77744e-21)
(0.976763 -0.143541 -2.15055e-21)
(0.967068 -0.141439 3.46245e-21)
(-0.0781743 0.225991 2.56388e-21)
(-0.0831485 0.223083 5.22772e-21)
(0.9978 -0.0845263 -2.91787e-21)
(1.00592 -0.00027552 2.04205e-22)
(1.00504 -0.000139987 0)
(1.00651 -0.000360657 0)
(1.02417 -0.0234755 -9.75064e-23)
(1.02399 -0.0228145 8.4728e-22)
(1.02347 -0.0233136 1.22976e-21)
(0.705643 -0.273835 -1.38872e-20)
(0.7341 -0.274584 0)
(0.760998 -0.292939 1.04903e-20)
(1.01365 0.00258719 -5.88164e-23)
(1.01357 0.00264612 -3.78062e-23)
(1.00558 -0.000110677 1.46026e-22)
(1.0058 -8.74887e-05 -4.35183e-22)
(1.00624 -6.06685e-05 0)
(0.868669 -0.330267 -6.25757e-22)
(0.879205 -0.339073 -1.01812e-21)
(0.862987 -0.347675 7.63231e-22)
(1.01154 -0.000115435 -1.05e-22)
(1.01141 0.000201543 4.28449e-22)
(1.01172 0.000197534 2.95963e-22)
(0.906857 -0.0471582 1.81976e-23)
(0.897078 -0.0450847 -3.18071e-24)
(0.905663 -0.0375898 3.15377e-22)
(1.0452 -0.125744 3.76154e-22)
(1.04746 -0.121052 -2.8085e-20)
(1.00437 0.0105964 1.10993e-21)
(1.002 0.0104077 7.0803e-22)
(0.835747 0.0424692 -1.63871e-21)
(0.832982 0.0129081 7.931e-21)
(0.836514 0.00512728 -1.61838e-21)
(1.03762 -0.0650338 2.27738e-22)
(1.04027 -0.0654127 -1.03708e-21)
(1.03801 -0.0679262 -1.51463e-20)
(0.937393 -0.264961 2.07971e-21)
(0.922476 -0.261763 6.69698e-22)
(-0.0530354 0.155444 9.72742e-21)
(-0.058034 0.159592 0)
(1.06292 -0.0745511 -4.82802e-22)
(1.06571 -0.0738534 -1.25282e-20)
(1.06468 -0.0773048 -1.24921e-20)
(0.926591 -0.263321 2.85524e-21)
(0.884031 -0.244789 -1.69298e-20)
(0.982617 -0.139833 -1.82061e-21)
(0.98042 -0.133436 5.97542e-21)
(0.988286 -0.135437 3.42519e-21)
(0.952559 -0.0230897 5.54801e-22)
(0.963568 -0.0186841 2.67259e-22)
(0.643754 -0.177842 9.65057e-21)
(0.656573 -0.157715 6.06241e-21)
(0.693051 -0.155499 6.81581e-21)
(-0.0536604 0.2302 -9.46588e-21)
(-0.0443429 0.224707 -1.46336e-20)
(-0.029582 0.228313 1.92335e-20)
(-0.0570998 0.192577 -1.35144e-21)
(-0.0642993 0.194776 -1.35878e-20)
(-0.0561942 0.183794 4.56895e-21)
(1.0257 -0.0051243 -1.17225e-21)
(1.02612 -0.00514819 -2.50907e-25)
(1.02595 -0.00550193 1.22377e-21)
(1.02167 -0.00239972 1.21102e-22)
(1.02053 -0.00344138 -7.6016e-22)
(1.0222 -0.00400281 -1.34079e-22)
(0.892005 0.133131 0)
(0.889115 0.129295 2.49723e-21)
(0.819023 0.266202 -3.56058e-21)
(0.825272 0.274738 7.1232e-22)
(1.05674 -0.0994167 -5.55285e-21)
(1.05899 -0.0958837 -9.64881e-21)
(0.9652 -0.153037 -3.1823e-21)
(0.974523 -0.154029 3.84019e-21)
(1.04281 -0.0339267 -3.92921e-23)
(1.04588 -0.0363398 6.17486e-22)
(1.04203 -0.0372087 -1.71396e-21)
(0.940832 -0.028527 2.81669e-22)
(0.354376 -0.342727 1.41948e-21)
(0.365143 -0.329131 -3.77462e-21)
(0.359454 -0.329048 -8.3314e-21)
(1.01012 -0.000402497 -6.12209e-23)
(1.01028 -0.000442584 2.73829e-22)
(1.01017 -0.000438338 -5.62978e-23)
(0.23074 0.0298466 1.25718e-20)
(0.183039 0.058186 1.73772e-20)
(0.209186 0.0596849 -7.13189e-21)
(0.902136 -0.264897 7.42951e-21)
(0.961905 -0.280672 -1.63879e-20)
(1.09118 -0.135318 -1.41652e-20)
(1.12288 -0.19091 1.2912e-20)
(1.09535 -0.190308 -1.84125e-20)
(1.01124 -0.000213125 -3.34198e-22)
(1.011 -2.05831e-05 1.01374e-22)
(1.01111 -0.000227213 0)
(1.01006 -0.000354251 2.4528e-22)
(1.00996 -0.000357206 0)
(0.387544 -0.364186 -4.74347e-21)
(0.382539 -0.357057 -2.81728e-21)
(0.409455 -0.358256 -1.13525e-21)
(-0.0674534 0.228303 1.29387e-20)
(-0.0732498 0.221905 2.30283e-20)
(0.851696 0.176058 1.5865e-21)
(0.837673 0.132017 2.80707e-22)
(0.853253 0.153639 7.69505e-21)
(-6.29369e-05 0.159718 0)
(-0.00353474 0.171283 7.79474e-21)
(-0.0165272 0.170796 1.27342e-20)
(1.00247 4.61438e-05 -9.1698e-22)
(1.00179 7.18818e-05 -5.79314e-22)
(0.995743 -0.104854 5.3793e-22)
(0.991319 -0.102256 -4.0212e-22)
(0.990726 -0.108219 -2.05746e-22)
(0.890232 -0.13475 1.03667e-22)
(0.893136 -0.137885 -2.21278e-21)
(0.91813 -0.229645 -2.70229e-21)
(0.909162 -0.238489 -1.39758e-22)
(1.00966 -0.00236029 -1.91757e-22)
(1.00973 -0.00246931 -5.70455e-22)
(1.00971 -0.00237301 -3.88266e-22)
(1.01268 -0.00497115 1.38539e-22)
(1.01288 -0.00513596 4.00994e-22)
(0.979209 -0.233562 -5.42484e-21)
(0.985738 -0.240257 -9.38025e-21)
(0.974341 -0.243005 8.26652e-21)
(1.0832 -0.303739 7.77616e-21)
(1.08847 -0.293598 -1.48022e-20)
(1.0359 -0.00787826 1.13922e-21)
(1.03549 -0.00711492 3.2577e-21)
(1.00948 0.00100224 -6.07536e-22)
(1.00952 0.00102112 -1.299e-22)
(1.00938 0.000979172 -3.04123e-22)
(1.0071 -0.0158483 0)
(1.00776 -0.0154157 0)
(1.00696 -0.014896 0)
(1.07546 -0.169068 -8.05111e-21)
(1.07158 -0.173383 7.55874e-21)
(1.04015 -0.0108421 9.9102e-22)
(1.04096 -0.0114937 0)
(0.526286 -0.237917 0)
(0.544424 -0.218714 -2.35881e-21)
(0.500001 -0.228973 -5.95107e-23)
(1.01735 -0.00319399 1.10025e-21)
(1.01743 -0.00307259 -7.55344e-22)
(1.01758 -0.00327343 5.74155e-22)
(0.952802 -0.0878562 -1.57129e-21)
(0.938413 -0.0929588 -1.73419e-23)
(0.993808 -0.0238649 1.51907e-21)
(0.995637 -0.025399 -4.41688e-22)
(0.992976 -0.0264619 -1.00479e-21)
(0.298908 -0.082898 0)
(0.288 -0.067979 0)
(1.18701 -0.179761 -1.01208e-21)
(1.17055 -0.18706 6.17842e-21)
(1.17913 -0.212998 4.2055e-21)
(-0.0571433 0.198317 0)
(-0.0472555 0.187628 1.24916e-20)
(1.01726 -0.00334652 1.60695e-21)
(1.01711 -0.00313054 4.77666e-22)
(0.985095 -0.00476351 -1.09174e-21)
(0.980748 -0.0077862 -3.07179e-22)
(0.981494 -0.00118391 4.12364e-21)
(1.00863 -0.227564 -1.93407e-21)
(1.00038 -0.239849 -4.39869e-21)
(1.01958 -0.236089 1.71396e-21)
(1.00942 0.000827577 -1.8543e-22)
(1.00939 0.000792313 -1.46009e-23)
(1.00951 0.000838855 1.85058e-22)
(1.03893 -0.0115448 7.50144e-22)
(1.03928 -0.0108461 -3.3416e-21)
(1.03837 -0.0107996 -4.20228e-21)
(0.888113 -0.0425801 2.99928e-21)
(0.877882 -0.0393222 3.03199e-21)
(0.886565 -0.0317898 1.24448e-22)
(1.02521 -0.00517964 5.83055e-23)
(1.02537 -0.00482403 9.97977e-22)
(0.3592 -0.107873 1.21448e-20)
(0.314997 -0.101139 0)
(1.00553 0.000133075 -1.32651e-22)
(1.00616 0.000171005 6.92168e-22)
(1.00547 0.000111472 4.34466e-22)
(1.0114 0.0027544 -8.40862e-22)
(1.01145 0.00229685 1.87859e-24)
(1.01187 0.00265395 4.89263e-23)
(0.958345 -0.156439 6.41904e-23)
(0.962036 -0.163051 -5.01005e-21)
(1.11003 -0.0993998 -1.124e-22)
(1.10104 -0.0915541 0)
(1.09849 -0.103702 -1.17583e-21)
(1.01204 -0.00185174 0)
(1.0119 -0.00175846 -3.16073e-22)
(1.01203 -0.00171135 -3.45966e-22)
(1.0128 -0.00232513 7.30066e-23)
(1.01266 -0.002374 4.11333e-22)
(0.292978 -0.000232594 -1.45986e-21)
(0.262231 -0.00327028 3.29807e-20)
(1.01134 -7.31951e-05 9.56482e-22)
(1.01147 -1.71548e-05 1.21777e-21)
(1.01157 -5.22743e-05 1.92796e-22)
(1.02312 -0.0016008 5.88974e-22)
(-0.0881622 0.224113 2.20559e-22)
(-0.0859187 0.218777 0)
(1.0041 6.61342e-05 -5.80234e-22)
(1.00372 4.40961e-05 -1.32498e-22)
(1.00474 0.000109024 -1.06727e-22)
(1.05323 -0.101063 -2.51568e-21)
(1.04934 -0.102709 3.26424e-21)
(1.05346 -0.104755 8.51576e-21)
(1.0109 0.00274605 5.52525e-23)
(1.01149 0.00339129 3.66222e-23)
(1.00811 -0.000315414 1.17292e-21)
(1.00843 -3.69272e-05 1.10663e-21)
(1.00847 -0.000510142 4.10832e-22)
(1.01602 -0.0173283 -1.84207e-22)
(1.01648 -0.0178085 1.21365e-22)
(1.01586 -0.0179592 0)
(1.01256 0.00217922 -9.90511e-23)
(1.01239 0.00206769 -6.37601e-23)
(1.01259 -0.00083606 3.78211e-22)
(1.0122 -0.000686119 3.35109e-22)
(1.0124 -0.000693031 3.88478e-23)
(1.05309 -0.0977621 1.06079e-20)
(1.00809 0.000267276 -8.22347e-23)
(1.00792 0.000240025 1.69188e-22)
(0.869413 -0.0278341 1.37408e-21)
(0.868433 -0.000304301 -8.75402e-22)
(0.870084 -0.0354796 -3.2371e-22)
(1.0166 -0.212918 9.0396e-22)
(0.998628 -0.21788 -9.82676e-22)
(1.01069 -0.000141553 5.12758e-22)
(1.01065 -0.000125461 -2.6153e-23)
(1.01064 -6.79539e-06 1.36941e-25)
(1.03472 -0.0648328 6.64932e-21)
(1.03678 -0.0622492 2.574e-21)
(0.951058 -0.161243 0)
(0.953045 -0.1503 0)
(1.12011 -0.108038 -1.01729e-21)
(1.12107 -0.0937236 -9.83224e-22)
(0.936144 -0.164865 -3.88343e-21)
(0.92983 -0.163325 1.13747e-21)
(0.944937 -0.156019 1.35304e-21)
(1.06763 -0.0465666 -8.59308e-22)
(1.07524 -0.0445069 -4.65936e-22)
(1.10299 -0.142319 -1.09077e-20)
(1.10036 -0.146322 -2.67554e-20)
(1.10596 -0.146598 4.42472e-21)
(0.364022 -0.353903 3.22453e-21)
(0.348782 -0.355355 1.4775e-22)
(1.01121 -9.82751e-05 2.60408e-22)
(1.01113 -7.91454e-05 -6.13519e-22)
(0.933004 -0.253731 -8.76747e-22)
(0.938127 -0.240559 0)
(1.05985 -0.0756131 1.22169e-21)
(1.06075 -0.0722046 6.11862e-23)
(0.912411 -0.218223 5.75349e-22)
(0.928672 -0.220839 -1.44538e-21)
(1.00464 -6.2466e-05 -1.10443e-22)
(1.00549 -8.26565e-05 1.41478e-22)
(1.0095 -0.0016988 1.68452e-24)
(1.00941 -0.00157556 1.43759e-23)
(1.00941 -0.00168 9.5158e-24)
(1.0107 -0.00016828 5.54346e-22)
(1.01076 -0.000316803 3.93047e-22)
(1.06827 0.00214831 -2.17603e-21)
(1.06908 0.00899991 -4.63552e-22)
(1.07475 0.00379948 -4.75385e-22)
(0.116108 0.00468482 -1.15626e-20)
(0.0833045 0.0250712 -1.76862e-20)
(0.11091 -0.00124025 1.43591e-20)
(0.867415 -0.0363686 -1.80853e-21)
(0.85549 -0.0331955 -2.29165e-22)
(0.864878 -0.0248029 -2.71514e-21)
(1.02308 -0.013316 9.16041e-23)
(1.02268 -0.0134761 -2.632e-22)
(1.02268 -0.0129648 2.76819e-22)
(1.01295 -0.00242032 -3.93768e-22)
(1.01297 -0.00259189 2.13965e-22)
(1.01315 -0.00253129 0)
(1.06224 0.000969914 -8.41383e-22)
(1.06726 -0.00338065 2.44773e-21)
(0.915626 -0.0486585 0)
(0.925376 -0.0502201 8.09587e-22)
(0.92379 -0.0418573 -3.86618e-21)
(1.00303 3.25975e-05 0)
(1.00402 7.37308e-05 0)
(1.0034 5.59531e-05 0)
(0.594494 -0.200385 -1.97277e-21)
(0.632274 -0.199095 2.04234e-21)
(0.869542 -0.129462 0)
(0.867601 -0.1404 0)
(0.879469 -0.136351 0)
(1.00968 -0.00171358 1.26554e-23)
(1.00957 -0.00170979 1.26558e-23)
(1.00958 -0.00159994 1.05788e-23)
(1.00763 -0.000216753 3.21557e-22)
(1.00772 -0.000218722 -6.2295e-22)
(1.00767 -0.000203982 -2.96222e-22)
(1.01217 -0.00174742 -4.1373e-23)
(1.01168 -0.0013894 7.65939e-23)
(1.01203 -0.00131434 -1.58299e-22)
(1.01021 -0.00362671 2.34522e-23)
(1.01031 -0.00381277 2.29122e-22)
(0.0213261 0.149354 0)
(0.00374447 0.146429 0)
(1.01214 -0.00022895 2.94332e-24)
(1.01209 -0.000175466 1.40994e-22)
(1.01196 -0.000336084 1.29378e-22)
(0.980455 -0.05015 1.51228e-23)
(0.98592 -0.0594283 0)
(0.972777 -0.0605631 0)
(1.01069 -0.00017665 -1.42131e-22)
(1.01066 3.79733e-06 4.64975e-22)
(1.00535 0.000101387 1.08059e-22)
(1.0062 0.00012248 1.74327e-23)
(1.00515 7.73108e-05 -9.09409e-23)
(0.825601 -0.0514339 8.20494e-21)
(0.837917 -0.0536363 3.90045e-21)
(0.830244 -0.0645805 -4.46503e-22)
(1.01134 -0.00020394 -3.34594e-22)
(1.0114 -0.000164644 -3.37522e-22)
(1.01113 -1.72384e-05 -1.93937e-22)
(0.910407 -0.277655 9.55478e-21)
(0.920952 -0.287753 4.2407e-22)
(1.01334 -0.000980352 0)
(1.01319 -0.000841831 -5.13631e-22)
(1.0132 -0.000965851 0)
(0.910398 0.311638 -8.57064e-21)
(0.894348 0.344995 -2.39564e-20)
(1.00319 0.00494912 -8.63789e-22)
(1.00151 0.00591874 -5.45698e-22)
(1.00955 -0.000274338 -5.50712e-22)
(1.00949 -0.000225737 9.04099e-23)
(1.00976 -0.00182809 4.09705e-23)
(1.00977 -0.00173049 0)
(0.988245 -0.0084831 -2.1997e-21)
(0.98958 -0.00323476 -2.61272e-21)
(0.783631 0.298812 2.99536e-21)
(0.780503 0.288583 1.75135e-21)
(0.769753 0.30034 1.0707e-21)
(0.783558 0.312571 3.12436e-21)
(0.800669 0.294164 -7.02344e-21)
(1.00969 -0.000306663 -8.82074e-22)
(1.00959 -0.000314101 -5.9028e-22)
(0.908477 -0.0565014 -1.4221e-21)
(1.02648 -0.00537046 5.40388e-22)
(1.02638 -0.00494468 1.13558e-21)
(1.01075 -0.00502112 0)
(1.01072 -0.00485752 -5.29647e-22)
(1.01074 -0.00503677 0)
(0.654438 0.0258005 0)
(0.678676 0.013609 -2.32466e-21)
(0.702122 0.0335411 3.41544e-21)
(0.945063 -0.361375 0)
(0.946731 -0.34881 1.21359e-20)
(0.934127 -0.354125 -1.1209e-20)
(1.01078 -0.00519133 -3.56589e-22)
(1.01075 -0.00500033 -4.10355e-22)
(1.01082 -0.000176697 5.48073e-22)
(1.01093 -0.000158523 6.81797e-23)
(1.01099 -0.000174249 7.92134e-22)
(1.01551 0.00174528 0)
(1.01582 0.00145246 8.49352e-23)
(1.01601 0.00172496 1.24635e-22)
(1.01559 -0.0168376 -1.14001e-22)
(1.01614 -0.0168026 -8.88999e-23)
(1.02801 -0.0262355 1.58302e-21)
(1.02868 -0.0259785 0)
(1.02865 -0.0268537 2.24179e-21)
(1.00827 0.000287792 -1.10652e-22)
(1.00855 0.00031383 -2.90939e-23)
(1.00778 -0.000688012 3.79588e-22)
(1.0077 -0.000100739 -2.13247e-22)
(1.03285 -0.0160701 -1.65663e-21)
(1.03316 -0.0168556 2.9873e-21)
(1.00755 -0.000216088 6.09794e-22)
(1.0076 -0.000235125 5.94799e-22)
(1.00465 -0.000141522 -7.94275e-23)
(1.00617 -0.000188851 0)
(1.00516 -0.000142819 0)
(1.01361 -0.00232008 -4.24954e-22)
(1.01345 -0.00234703 1.42168e-21)
(1.01346 -0.00217157 8.72788e-22)
(0.883703 -0.267445 -8.35631e-21)
(0.915832 -0.285713 -1.16458e-21)
(0.860922 -0.269013 -1.7013e-20)
(1.01515 -0.0049163 3.86913e-22)
(1.0107 -0.000191806 0)
(1.01066 -0.00017148 2.53796e-22)
(1.01023 0.000958882 -2.15154e-24)
(1.01016 0.000938229 0)
(1.01014 0.00089997 0)
(0.925591 -0.0583453 -2.37287e-21)
(0.932812 -0.0516482 1.91271e-21)
(1.0077 -0.000592628 0)
(1.00773 -0.000576279 4.84875e-22)
(1.00777 -0.000616846 0)
(1.00762 -0.000567086 3.28785e-22)
(1.00274 5.04721e-05 6.9331e-22)
(1.002 -3.00088e-05 -3.64761e-22)
(1.03453 -0.00953331 1.58802e-21)
(1.03522 -0.00957134 3.1285e-22)
(1.03493 -0.0101677 -1.53197e-21)
(1.01135 4.82546e-05 2.25809e-22)
(1.0116 5.58322e-05 7.09901e-23)
(1.0051 9.97425e-05 -1.62441e-23)
(1.00472 9.20101e-05 -2.07334e-22)
(1.00546 9.82162e-05 -3.99351e-22)
(1.00388 3.74574e-05 7.06462e-22)
(1.00336 4.64632e-05 3.32811e-22)
(1.00433 4.16987e-05 3.76714e-22)
(1.0124 -0.00290284 3.3811e-22)
(1.01242 -0.00364722 1.4355e-23)
(1.01316 -0.0032995 5.78975e-22)
(0.939644 -0.159875 -7.86924e-22)
(0.928362 -0.173818 -3.33902e-21)
(1.0085 -0.000412097 6.31322e-23)
(1.00668 -0.000324032 6.05743e-23)
(1.006 0.000132477 6.76431e-23)
(1.00545 8.96889e-05 -6.74373e-23)
(-0.0305143 0.113775 -8.27396e-21)
(-0.0370149 0.119508 -2.97997e-20)
(-0.0292453 0.100599 -2.79e-21)
(1.04119 -0.0222158 4.24183e-21)
(1.04182 -0.02143 2.51441e-21)
(1.04069 -0.0214014 4.33942e-22)
(1.00541 3.2266e-06 9.73839e-23)
(1.00574 -2.69048e-05 -4.72351e-22)
(1.00492 1.19567e-05 2.04473e-22)
(1.00515 5.42573e-06 1.2791e-22)
(1.00587 1.80925e-05 1.25684e-22)
(0.852688 -0.326814 7.40305e-21)
(0.86869 -0.330665 -3.75524e-21)
(0.865833 -0.326856 3.14017e-21)
(0.97903 0.0549322 -2.44067e-22)
(0.97428 0.0447301 1.35489e-21)
(0.984128 0.0458947 1.02973e-23)
(1.00945 0.000990229 2.88311e-23)
(1.00955 0.00103258 -1.45369e-22)
(1.00215 -0.0111973 0)
(1.0042 -0.0100976 -1.58783e-22)
(1.00212 -0.00849938 3.50812e-22)
(0.961659 -0.127437 7.01172e-23)
(0.942669 -0.130932 9.43297e-23)
(1.01363 0.000122909 2.38176e-22)
(1.01353 -0.000118884 1.05585e-21)
(1.0472 0.0444252 -7.50106e-22)
(1.05124 0.0523895 -6.24204e-22)
(1.01376 -0.00229606 -8.68482e-22)
(1.01375 -0.0024646 1.19901e-22)
(0.782523 0.320773 1.54021e-21)
(0.792902 0.318043 1.99089e-21)
(0.7818 0.328973 -8.90588e-21)
(0.889908 -0.0531907 -2.67015e-21)
(0.960836 -0.0449923 -7.8646e-22)
(0.958958 -0.0506431 -1.38199e-21)
(0.95523 -0.0438389 -1.2131e-21)
(1.00868 -0.0983447 -1.08725e-21)
(1.00755 -0.103739 0)
(1.1046 -0.305693 -5.80291e-21)
(1.11141 -0.298436 -3.49917e-21)
(1.01014 0.00116256 1.78442e-22)
(1.01024 0.0011891 -2.517e-23)
(1.01008 0.00115393 2.93285e-22)
(0.876756 -0.327198 2.00917e-21)
(0.882164 -0.320433 -1.35172e-21)
(0.872043 -0.319677 1.5571e-20)
(0.944465 -0.165746 2.19582e-22)
(0.938024 -0.15985 1.23103e-21)
(0.935727 -0.170518 1.53472e-21)
(1.00654 -0.000184535 3.59051e-22)
(1.00591 -0.000172332 0)
(1.00582 -0.000152191 3.09954e-22)
(0.966531 -0.0463624 1.34541e-21)
(0.963232 -0.040408 1.84403e-21)
(1.04393 -0.0306526 -9.33679e-22)
(1.04076 -0.0317886 -5.88426e-22)
(0.669408 -0.13696 5.88069e-22)
(0.623414 -0.15818 -4.61874e-22)
(1.00916 -0.00181123 1.61962e-22)
(1.00925 -0.0019281 8.6394e-23)
(1.00918 -0.00188198 -4.60481e-23)
(1.01002 0.00114293 -1.33225e-22)
(-0.086737 0.223436 1.90823e-20)
(0.897955 -0.165793 -4.73781e-22)
(0.898649 -0.179813 -5.45023e-22)
(1.0091 -0.000269895 5.19254e-22)
(1.00924 -0.000251456 2.7224e-22)
(1.00921 -0.000278656 5.63625e-22)
(-0.0374369 0.120763 -5.533e-21)
(-0.0254804 0.107188 -2.66972e-21)
(-0.0266519 0.102391 5.97607e-22)
(1.05739 -0.000512336 -9.39261e-22)
(1.05678 -0.00503785 0)
(1.05292 -0.00181133 7.11956e-22)
(1.01067 0.0172889 -3.88788e-22)
(1.00866 0.0159297 -3.86579e-22)
(1.00805 0.0186121 -6.05404e-22)
(0.647542 -0.269687 2.35776e-20)
(0.67938 -0.273162 -5.50515e-21)
(0.698215 -0.290653 1.11914e-20)
(1.00907 -0.0016988 1.65221e-22)
(1.00915 -0.00173444 -5.03173e-23)
(1.01154 -0.00041201 -3.3747e-22)
(1.01346 -0.000967011 0)
(1.01342 -0.00108825 6.24546e-22)
(1.00555 -3.02392e-05 1.98656e-22)
(1.00489 -4.91258e-05 3.23771e-22)
(1.01233 -0.0112726 1.81479e-22)
(1.01197 -0.011109 3.99943e-22)
(1.01216 -0.011577 4.09276e-22)
(1.01334 0.00496206 0)
(1.01378 0.00436852 -3.9369e-22)
(1.01283 0.00437047 -2.46461e-22)
(1.02587 -0.0180073 0)
(1.02599 -0.0175474 2.79445e-22)
(1.01156 1.89567e-05 5.09275e-22)
(1.01166 8.63207e-05 6.15804e-22)
(1.01182 5.93085e-05 -7.5569e-22)
(1.01272 -0.0114457 -2.77972e-22)
(1.01251 -0.0110093 -2.08378e-22)
(1.02372 -0.0130626 0)
(1.0234 -0.0132561 5.10337e-22)
(1.02391 -0.013401 -1.90792e-21)
(0.861382 0.325289 1.16548e-21)
(0.870052 0.334556 -2.52082e-21)
(0.835289 -0.317091 6.9392e-21)
(0.845972 -0.320715 -5.03914e-21)
(1.01157 -0.00031949 0)
(1.01139 -0.00041038 4.61748e-22)
(0.886174 -0.331845 -3.75753e-21)
(0.920095 0.266325 8.53257e-23)
(0.928799 0.255183 -8.70386e-22)
(1.00898 -0.000277739 -2.60107e-22)
(1.009 -0.000258884 -1.66322e-22)
(1.04518 -0.0474166 0)
(1.04391 -0.0459943 0)
(1.04579 -0.0457519 -5.08481e-21)
(0.985085 0.0637647 0)
(0.973419 0.0655127 2.6873e-22)
(1.14937 -0.230794 9.98129e-21)
(1.1583 -0.229128 1.71972e-20)
(1.14797 -0.222786 -1.05107e-20)
(0.850728 0.0886977 8.51549e-24)
(0.841504 0.0659766 8.98621e-23)
(0.848818 0.0565308 -2.41728e-22)
(0.888778 0.0223214 -5.27288e-21)
(0.886475 0.0115941 -1.67173e-20)
(0.897604 0.0162339 -1.23468e-20)
(1.01755 -0.00288843 1.57773e-22)
(1.01728 -0.00281815 -3.48063e-22)
(-0.021194 0.118525 -9.46362e-21)
(-0.00437934 0.105132 -9.40533e-21)
(-0.0183232 0.125134 -1.89548e-20)
(0.902581 0.269868 3.80064e-22)
(0.891054 0.207382 -9.24273e-21)
(0.8707 0.267532 3.82493e-22)
(0.987934 -0.0138279 -2.41145e-21)
(0.986448 -0.0162258 -1.21387e-21)
(0.98497 -0.013542 -7.65858e-22)
(1.02399 -0.0128967 -1.4458e-21)
(1.0235 -0.0127598 -1.14241e-21)
(1.01304 0.0185786 -3.83427e-22)
(1.01266 0.0158797 0)
(1.00813 -0.00173302 -5.19817e-22)
(1.00797 -0.0011896 0)