/*--------------------------------*- C++ -*----------------------------------*\
| =========                 |                                                 |
| \\      /  F ield         | OpenFOAM: The Open Source CFD Toolbox           |
|  \\    /   O peration     | Version:  v2012                                 |
|   \\  /    A nd           | Website:  www.openfoam.com                      |
|    \\/     M anipulation  |                                                 |
\*---------------------------------------------------------------------------*/
FoamFile
{
    version     2.0;
    format      ascii;
    class       volVectorField;
    location    "50";
    object      ddt0(U);
}
// * * * * * * * * * * * * * * * * * * * * * * * * * * * * * * * * * * * * * //

dimensions      [0 1 -2 0 0 0 0];


internalField   nonuniform List<vector> 
18758
(
(0.000871189 0.00203645 8.42834e-20)
(0.0214924 -0.00953715 1.50879e-20)
(-0.000308903 -6.3085e-06 5.09133e-21)
(0.000960645 0.00174505 3.76543e-19)
(0.0051588 -0.00431566 7.55963e-19)
(0.000242848 1.65474e-05 9.32409e-21)
(-6.33905e-05 0.000150909 2.61733e-19)
(0.00135226 0.000259053 -7.18309e-19)
(0.00498341 -0.00340415 -9.66925e-19)
(0.00535329 -0.00189981 7.08512e-20)
(0.0111074 -0.00837297 1.58195e-20)
(-0.00845473 0.0872456 2.24525e-19)
(0.039428 -0.0119205 -1.33376e-18)
(5.1538e-05 0.00101458 1.61197e-18)
(-4.87584e-05 0.000127539 -7.5191e-19)
(-7.87877e-05 1.39506e-05 3.75789e-19)
(0.00249941 0.09724 5.38586e-19)
(9.44196e-05 -0.000119442 4.31164e-22)
(-5.11117e-05 0.000119831 -6.41528e-20)
(-0.00191021 -0.00217387 2.98893e-20)
(-0.0246979 -0.014621 4.96681e-19)
(-0.0692979 -0.064036 -1.35553e-18)
(0.000221258 3.03567e-05 -8.59829e-22)
(0.000187588 -6.69806e-05 1.32083e-20)
(-0.0356036 -0.0624873 -6.209e-19)
(-0.117644 0.0155173 -9.32806e-20)
(0.026164 0.0189766 1.0767e-17)
(0.0497638 0.0308612 -5.66602e-19)
(-0.0241512 0.0278705 5.56868e-19)
(0.0348468 -0.0168051 3.69724e-20)
(0.104142 -0.141934 -3.26359e-19)
(0.0247578 -0.00218055 -9.01659e-18)
(0.0012173 0.000223162 -1.45524e-18)
(0.0446252 -0.0710351 6.22917e-19)
(0.004276 -0.00608399 7.49697e-19)
(0.0305754 -0.022388 2.20788e-20)
(0.0424678 -0.00809217 2.20224e-19)
(0.0041372 -0.00518436 -5.14824e-19)
(0.0114119 0.16767 1.31957e-18)
(0.000109026 -0.000143306 -8.0558e-22)
(-0.0254692 -0.0422949 2.44166e-19)
(0.00695575 -5.27114e-05 2.75531e-19)
(-0.00871019 -0.0117744 -1.92183e-19)
(-0.00130169 -0.00133376 -1.76703e-20)
(-8.57299e-05 1.89161e-05 -1.41924e-18)
(0.142795 -0.121388 8.24788e-18)
(0.00611184 0.000260238 -7.20808e-19)
(-0.017812 0.033262 -3.37255e-19)
(-0.0137098 -0.193123 -2.31211e-17)
(0.000570425 0.00104835 4.25071e-19)
(0.0102667 -0.0112492 -5.78208e-21)
(-0.101094 -0.0728185 2.82082e-19)
(0.000429893 0.000797515 -1.1859e-19)
(-0.0012354 0.00357987 3.87629e-20)
(-0.0516426 -0.022425 2.38277e-19)
(0.0342726 -0.0113466 -5.08276e-19)
(0.000560514 0.00140524 1.74192e-19)
(-0.00191473 -0.00181745 2.69705e-20)
(-0.0123129 0.0313259 -1.67614e-18)
(0.00064459 0.0013115 -1.61997e-19)
(-4.39304e-05 1.76284e-05 -1.75871e-20)
(-0.00121881 -0.00107328 -6.05092e-21)
(0.0401356 0.0260569 4.37523e-18)
(0.0625203 0.0779072 -9.75108e-19)
(-3.98561e-05 1.24252e-05 6.48517e-20)
(0.076581 -0.094395 1.08511e-18)
(3.43509e-05 -1.99938e-05 -9.46084e-21)
(0.000470805 -0.000366013 -2.21596e-20)
(0.0513996 0.0271039 9.74008e-20)
(7.16013e-05 -0.000126936 -2.79577e-22)
(-0.0782293 -0.0721456 4.55501e-19)
(-0.135391 -0.00542432 6.34087e-19)
(-7.04047e-07 2.59696e-05 8.42066e-19)
(0.000528669 -0.00586213 5.56595e-20)
(0.0089178 -0.0375495 -6.66869e-19)
(0.14007 -0.0685835 -2.35256e-18)
(-0.0791249 0.0333271 2.66023e-18)
(0.0324847 0.0962811 4.14348e-19)
(0.00572871 -0.00263609 3.14082e-19)
(-0.00901972 -0.0094275 3.79773e-19)
(-0.0351347 0.000932862 -5.0698e-18)
(0.0293132 0.186416 -3.25088e-18)
(0.0182635 0.088162 -3.47211e-19)
(0.0068219 -0.0209662 1.91321e-19)
(-0.0015985 -0.0016691 -1.136e-19)
(-0.0427286 -0.0169505 -1.82064e-17)
(-0.00210694 0.00096242 -3.19098e-18)
(0.000342756 -0.00661359 -4.3589e-19)
(0.0328753 0.022477 -2.54183e-18)
(-0.0400476 -0.0179309 1.61406e-17)
(0.0668513 -0.100181 -8.14747e-18)
(-9.64043e-05 6.17993e-06 3.14464e-19)
(-0.0229179 -0.000175082 -8.07543e-19)
(-0.00731697 -0.189011 2.83326e-17)
(-1.51131e-06 2.52517e-05 -1.33247e-19)
(0.000129664 -6.10453e-05 7.37299e-20)
(0.000114511 -0.000161735 -1.54268e-21)
(-0.0130939 0.0157714 -3.02508e-18)
(0.0427841 0.117413 -8.92732e-19)
(0.000155013 0.000274258 -1.99214e-19)
(0.157947 -0.0689695 1.43489e-18)
(-0.00710961 -0.00571585 -1.4723e-18)
(0.00045591 -0.000385868 -9.01546e-21)
(0.000129809 -6.39478e-05 -2.07342e-20)
(0.070005 -0.096985 -2.89288e-19)
(-0.024329 -0.0192667 -2.50277e-19)
(-0.020577 0.0324379 2.56946e-18)
(0.0419624 -0.110048 -9.60983e-19)
(-0.0587556 0.0243292 2.26709e-20)
(-0.0762628 0.0582945 -1.7825e-18)
(-8.10229e-05 3.60774e-05 -3.08088e-19)
(-0.026155 0.177212 -2.72179e-18)
(0.00280539 0.00754884 1.6733e-19)
(-0.000419054 -0.000193098 6.97335e-21)
(-0.00782929 -0.00515993 -3.87112e-19)
(0.110257 0.0536447 5.28864e-18)
(-0.0113813 0.0163361 2.64427e-18)
(0.00097817 0.000931822 -1.02567e-19)
(0.174998 0.0731156 -8.96472e-18)
(-0.0016477 -0.00177622 7.82286e-20)
(-4.85297e-05 2.07006e-05 -3.74997e-20)
(-0.0602065 0.0644953 6.5746e-18)
(-0.00161055 -0.00174035 1.33075e-20)
(-0.000493922 0.000498002 -4.56342e-21)
(-0.0702688 -0.217251 7.81101e-18)
(-0.00164736 0.00339163 -1.60586e-20)
(-0.00110834 -0.00152827 -5.83091e-21)
(-0.000457335 0.00049625 -3.45732e-20)
(-0.0533629 0.0478789 -1.92964e-18)
(-0.0350248 -0.0944635 -1.65894e-17)
(-0.0151149 0.0307729 2.04247e-18)
(3.67254e-05 4.98882e-07 -3.91329e-20)
(0.00552224 0.00284769 4.38691e-19)
(0.0435784 -0.171415 -7.57351e-20)
(9.38448e-05 -0.000136571 -6.34995e-22)
(-3.48565e-05 -3.1098e-05 -1.64348e-21)
(0.0202757 0.0935596 -4.34145e-18)
(-0.00159663 -0.00178151 -1.95278e-19)
(0.0335545 0.0785387 -4.59822e-18)
(-0.0344169 0.00337577 4.31396e-18)
(0.00415985 0.00841933 -4.25358e-19)
(0.0193042 0.0252173 -4.47946e-19)
(-0.0106777 0.00859598 -1.87582e-18)
(-0.0519847 0.0368152 2.67271e-18)
(-0.0707252 -0.216929 -8.5727e-18)
(-0.0141694 0.0004665 1.6068e-17)
(0.05996 -0.109295 -9.19651e-19)
(-0.0466229 0.0391963 1.60637e-19)
(0.013943 -0.00830473 -3.13766e-20)
(-0.291737 0.298484 1.1849e-17)
(-0.0525214 -0.096895 -1.17831e-17)
(-0.0242667 -0.119076 -1.80824e-17)
(-0.000133984 0.000110809 -1.72991e-18)
(0.00254623 -0.00711615 -7.30134e-19)
(-0.0263107 -0.0350724 -2.75213e-19)
(0.0659556 -0.015499 5.69093e-19)
(-0.0227387 0.000859866 -9.93313e-19)
(-0.0588022 0.0488076 -1.71518e-18)
(0.00071033 -0.0246164 -2.38733e-18)
(0.0177704 -0.0109178 -1.2239e-19)
(0.205489 0.0493838 2.31993e-19)
(-0.000679157 0.000337451 -5.14261e-20)
(0.0557774 -0.130073 2.56312e-18)
(0.053064 -0.113688 -5.89057e-19)
(0.137616 -0.112069 -1.01448e-18)
(0.00122598 0.00126753 -8.75385e-20)
(-0.000654822 0.000357497 6.79182e-20)
(0.0987034 0.0541846 2.19846e-18)
(-0.0407259 -0.103708 5.74522e-18)
(-0.0227186 0.0690503 -1.06912e-19)
(-0.0148621 -0.12143 -3.68764e-17)
(-0.000257829 -3.5288e-06 -7.58132e-21)
(-0.0269089 0.0333889 7.95471e-19)
(-0.000237897 -2.86923e-05 4.08413e-21)
(-0.0484371 0.0105892 1.47237e-18)
(0.000187643 2.8044e-06 -5.43142e-20)
(-2.22947e-05 2.33353e-05 1.90797e-20)
(-0.106362 0.0174757 -5.49404e-19)
(0.0362015 -0.0616366 -8.96941e-19)
(-0.000399096 0.000297863 -2.94984e-18)
(0.00030658 -0.000131946 2.49799e-20)
(-0.00282051 0.00236435 -4.05751e-19)
(-0.0510926 -0.0188848 -8.58807e-19)
(-0.000635942 0.000514067 -3.4122e-18)
(-0.277648 0.321401 -6.22878e-18)
(-0.000170813 0.000114193 2.90141e-18)
(0.0376751 -0.0148326 -3.4379e-19)
(-0.010988 0.00909552 -1.34394e-18)
(0.00331796 -0.184732 6.06671e-18)
(0.112018 -0.0797179 -1.08065e-19)
(-0.0225353 -0.111291 -3.30861e-17)
(-0.000160566 0.000123336 -3.68839e-18)
(0.0297534 0.0209509 -2.56233e-19)
(-0.112794 -0.17832 -8.93131e-19)
(0.000377503 -0.000168885 9.06637e-22)
(-0.000546159 0.000533337 5.47404e-19)
(0.0461462 0.0883226 -3.44797e-19)
(-0.000144714 9.74943e-05 -1.14636e-19)
(0.0104975 -0.186148 -7.5435e-18)
(0.000279789 2.85064e-05 -2.13017e-20)
(-0.000340132 0.0013361 4.3966e-20)
(-0.0651513 0.0532354 3.73111e-18)
(0.0023086 -0.0814535 4.48981e-18)
(-9.18494e-05 1.27531e-05 1.622e-19)
(-0.000103579 4.19408e-05 1.54843e-18)
(0.064091 -0.135425 -1.57455e-18)
(0.000794243 -0.000771867 -1.89772e-19)
(0.00363787 -0.00712268 1.71026e-18)
(-0.0478597 -0.0882491 2.16513e-18)
(-0.0268466 -0.0842366 6.98803e-18)
(0.000263229 -5.6681e-05 1.46892e-20)
(-0.0247417 0.00367278 6.54115e-18)
(-0.000336064 0.00127782 -1.24757e-19)
(-8.00879e-05 0.00225278 3.18301e-19)
(-0.00163063 -0.00118193 9.7858e-20)
(0.00011182 -0.000171249 1.55249e-21)
(-0.00014629 1.89024e-05 -1.44277e-18)
(-0.0234758 0.00314293 -1.03389e-18)
(0.000261127 3.5258e-05 -8.22785e-21)
(-0.00676718 -0.049315 -3.59152e-19)
(-0.0997961 -0.15165 1.05269e-18)
(-0.000721046 0.00103224 5.05771e-20)
(-0.00973593 0.00924836 3.95001e-18)
(-0.0647306 0.0595878 -2.19113e-18)
(0.00900722 -0.0842112 -5.87586e-18)
(-0.000279456 -3.86605e-05 1.15581e-20)
(0.00712392 -0.041865 4.8715e-19)
(-0.032814 -0.0233663 2.00991e-19)
(0.182381 0.0469001 -2.34689e-19)
(0.000718847 -0.000754047 1.66755e-19)
(-0.129393 0.0217656 -8.26277e-20)
(-0.0138933 0.00142227 -1.49939e-17)
(-0.0434462 -0.00215924 5.91885e-19)
(-3.0629e-05 -2.52024e-05 -1.75173e-20)
(2.55595e-05 9.61243e-05 6.97071e-20)
(-0.000760864 0.00104081 9.6403e-20)
(0.0297638 -0.028581 -1.19032e-18)
(-0.0259101 -0.195861 -3.17062e-18)
(0.0605777 0.0990863 6.96121e-18)
(0.000334559 0.00014542 -1.36942e-18)
(-8.45539e-05 5.43643e-05 6.41903e-19)
(0.0267048 -0.0273455 -5.55505e-19)
(0.024205 0.0675908 -1.04979e-18)
(0.000250361 6.56073e-05 1.13147e-19)
(-0.295294 0.296928 3.1643e-18)
(-0.0451854 0.146119 -3.4725e-18)
(6.96618e-06 9.1989e-05 1.97576e-19)
(4.19475e-05 -0.000202448 1.88944e-21)
(0.00160472 0.00191077 3.28465e-20)
(0.000160357 0.000277163 1.28358e-19)
(-0.0129775 -0.130178 5.19512e-17)
(-0.00120936 -0.0017002 4.91229e-20)
(-0.000178752 -0.000127401 1.45325e-21)
(-0.000752598 0.00105221 -6.78691e-20)
(0.000113062 -5.97155e-05 1.53652e-21)
(0.0771408 0.137979 6.95422e-18)
(0.000996658 0.00128539 1.39355e-20)
(-0.144494 -0.0148735 -2.18072e-18)
(-0.000159981 2.81433e-05 2.80695e-19)
(-0.051576 0.348986 1.38558e-17)
(0.00170235 0.00796916 -2.89599e-19)
(-0.000547683 0.000465112 -4.95345e-20)
(-1.72401e-05 9.82912e-05 -6.87921e-20)
(0.0285043 0.0187467 -1.26979e-18)
(0.0876726 -0.0559794 6.836e-19)
(0.0870855 -0.0565127 -6.12194e-19)
(-0.000551308 0.000436784 6.11123e-20)
(0.0256869 0.0768823 5.82597e-18)
(-0.000147184 0.000113436 1.62963e-18)
(0.000465652 0.000415722 3.0037e-21)
(0.200343 0.0259908 -3.08071e-22)
(-0.0970272 -0.102086 -2.84508e-18)
(0.000429675 0.000424963 -3.12855e-20)
(0.000480504 -0.000806105 -1.60066e-19)
(-1.17908e-05 -0.000267218 -5.81567e-21)
(-0.00148961 -0.000950558 -1.056e-20)
(0.00224311 0.00372912 2.1747e-19)
(0.000271775 1.28577e-05 9.08474e-21)
(-0.000362078 0.00259356 3.02748e-19)
(0.000100083 0.00104509 -8.12363e-19)
(4.49914e-05 -0.000183374 3.76432e-21)
(4.44211e-05 5.31098e-06 2.82834e-19)
(-0.000112798 7.22236e-05 -1.71999e-18)
(0.0395462 -0.12863 1.02509e-19)
(-5.49043e-05 0.000140713 1.20292e-18)
(0.000455549 -0.000771202 -2.50021e-20)
(0.000177259 -0.000259524 -2.42561e-22)
(0.0176843 0.0658502 1.00523e-18)
(0.000134583 -6.40852e-05 1.49912e-20)
(0.000132899 -6.61137e-05 2.97268e-20)
(0.000184533 3.23858e-05 -1.2538e-19)
(-0.000313163 0.000425955 2.65478e-18)
(0.000508598 0.00140348 -1.12175e-19)
(0.00032611 -0.000108356 -7.09418e-20)
(0.00014619 -4.22348e-05 1.34457e-20)
(0.00194766 0.0025754 -1.3172e-19)
(-0.000290529 -3.43455e-05 -5.40462e-21)
(-0.000103917 2.94005e-06 -5.8355e-19)
(0.000176586 -5.60101e-05 -3.54148e-21)
(-0.102021 -0.22378 9.80967e-18)
(-0.000915307 0.00168076 -1.32493e-18)
(-0.000277778 4.57891e-05 -5.97271e-21)
(-0.000294785 2.08825e-06 -4.99283e-20)
(0.0651838 -0.0492436 3.02848e-18)
(0.00185445 -0.0059621 -8.23205e-21)
(0.000271934 -0.000141298 -6.82501e-21)
(-0.00498829 -0.00303464 5.54707e-21)
(-0.0257825 -0.0215806 -1.35108e-19)
(-0.00121399 -0.000809828 -7.89061e-22)
(0.0313506 -0.0150297 3.60592e-21)
(-0.00011076 8.50913e-05 2.22736e-18)
(0.0867786 -0.0557739 -2.95699e-20)
(0.0362813 0.0878808 -1.20576e-18)
(0.0131545 0.045213 -4.29463e-18)
(-0.0246993 0.0250254 -1.01078e-18)
(0.0541926 -0.0685421 -1.39784e-18)
(0.000405707 -0.000362918 7.56753e-21)
(0.061258 -0.0319684 -6.99919e-19)
(-0.0722461 0.0720899 1.44964e-18)
(4.06167e-05 -1.8978e-05 2.35834e-20)
(0.0140131 0.0419306 6.70492e-18)
(0.00256356 -0.0226288 2.48684e-18)
(-0.280742 0.315062 -2.79477e-18)
(8.05295e-05 8.68354e-05 2.86062e-19)
(0.000436156 -0.000355921 8.26795e-21)
(-0.0290152 -0.0855014 1.05715e-18)
(-0.000275298 2.65429e-06 5.07917e-22)
(0.000280878 -0.00039031 2.83245e-20)
(-0.0604843 -0.210571 1.18078e-17)
(0.0238963 -0.0227833 -1.4671e-18)
(0.0092458 0.00637643 1.88316e-19)
(0.0162853 -0.2014 -2.67159e-20)
(7.90668e-05 7.7488e-05 -1.7338e-19)
(0.00112968 0.00135852 -3.60534e-20)
(-0.000157294 3.48164e-05 1.33784e-19)
(-0.000463568 -0.000179385 3.42655e-20)
(-0.000664489 0.000489953 -1.13798e-19)
(-0.000799301 0.00116577 9.08509e-20)
(0.00137936 0.00039894 -1.82455e-18)
(0.00097251 -0.0007011 7.08725e-20)
(-0.000639458 0.000397145 1.06949e-20)
(0.000366026 0.000234603 -5.12883e-19)
(-0.11082 0.06786 4.98159e-19)
(0.0545371 -0.0545021 8.13345e-18)
(-0.00153853 -0.00176888 1.40842e-19)
(0.0679961 -0.0459985 -3.64334e-18)
(0.0520059 0.0573775 3.31046e-19)
(0.000250749 -0.000377487 -2.0179e-19)
(-0.00529456 0.00482354 -1.31825e-18)
(0.000845656 -0.00629937 1.55957e-20)
(-0.0550403 -0.0651483 -4.83344e-18)
(0.0313977 0.015688 2.30762e-19)
(0.0724992 0.0589421 8.17807e-18)
(-0.000167094 9.82623e-05 -5.67642e-19)
(-0.0352983 -0.181532 -7.6203e-18)
(-0.028692 0.459896 -7.35846e-18)
(-0.00467112 0.0155702 -3.16099e-19)
(0.000341655 0.000245312 6.3973e-19)
(0.0095746 0.00487728 -1.70609e-19)
(-0.000799429 0.00210095 -4.59244e-19)
(-0.00128591 -0.0015041 1.33615e-20)
(0.0484139 0.098771 -5.68242e-18)
(-0.140481 -0.139397 -8.36986e-19)
(0.0340601 0.00407507 8.39443e-20)
(0.00689897 -0.0506862 -1.63072e-18)
(-0.150655 -0.168241 5.83267e-19)
(1.94568e-05 0.000105993 5.32061e-19)
(-0.00168084 0.00253824 -1.25433e-17)
(-0.00332848 0.00242397 -2.06653e-19)
(-0.0111547 0.0184638 8.82539e-19)
(-0.0197714 -0.190918 7.1281e-18)
(0.102615 0.0619871 1.01782e-18)
(-0.0255469 -0.0294148 2.59949e-19)
(0.0608681 -0.0156137 5.8961e-19)
(-0.0191823 -0.0438559 3.55639e-19)
(0.0799078 0.0549895 -5.53177e-18)
(7.25007e-05 -5.31155e-05 2.76848e-21)
(0.0908418 -0.0804712 1.65458e-18)
(-0.05148 0.0399744 3.82346e-18)
(0.00481932 -0.00739478 1.35861e-20)
(0.0332923 -0.00543793 8.64744e-20)
(3.96529e-05 -2.47456e-05 -3.84841e-21)
(0.000175032 -5.91264e-05 1.21842e-20)
(-0.0661771 -0.0636552 2.73602e-18)
(0.0357763 0.0097363 -5.8044e-19)
(0.0277371 -0.00926722 1.46843e-18)
(0.195759 0.0182192 7.82449e-19)
(-0.0617344 -0.210115 3.78093e-18)
(0.000372389 0.00018115 1.24212e-18)
(-0.0110019 0.0901496 -2.26081e-19)
(-0.0684094 0.0859249 -2.65045e-18)
(-8.39621e-05 2.16068e-05 6.23598e-19)
(0.000307347 0.00095239 1.34302e-18)
(-0.00194647 -0.000454634 8.27394e-20)
(-0.00170536 0.000288304 6.34831e-20)
(-5.39504e-05 1.27748e-06 1.55745e-20)
(-0.00112794 0.00201571 -1.02422e-19)
(-0.000173496 5.39298e-05 -1.60121e-18)
(2.53515e-05 1.1872e-06 -2.90405e-19)
(0.000184026 4.85698e-05 -7.89153e-20)
(0.00214122 0.00145554 2.83642e-19)
(0.0096235 -0.0020066 -5.73161e-19)
(0.0117914 0.345356 -1.02297e-17)
(-0.00357187 0.00198269 -4.4939e-18)
(-0.147274 -0.578244 -3.63711e-18)
(-0.134069 -0.569433 1.12615e-17)
(-0.124033 -0.246484 -4.15016e-17)
(0.0185142 0.358601 5.92554e-18)
(-0.0386619 0.0515007 3.53999e-18)
(0.00194632 0.00226396 4.24109e-20)
(0.000146621 -3.83734e-05 -1.07258e-20)
(-0.0103133 -0.0137565 2.15831e-19)
(0.000381935 0.000950545 2.30075e-19)
(0.000319245 4.76789e-05 1.76171e-19)
(0.0464532 0.128577 -4.01902e-18)
(-0.00946365 0.0188126 4.95586e-19)
(-0.0251596 0.103482 -1.51859e-18)
(0.000905435 0.00135877 5.07471e-20)
(-0.0622054 0.000384724 -4.64946e-19)
(-8.50038e-05 1.95762e-05 -6.54829e-20)
(-0.000914305 0.00182272 5.07291e-18)
(0.000251667 -0.00020929 -5.39488e-21)
(0.0383981 -0.178529 -6.88871e-18)
(0.0857638 -0.0568773 7.45739e-20)
(0.0280947 0.0247544 1.78367e-19)
(0.000166338 -6.92572e-05 4.07329e-20)
(0.0103013 -0.207474 2.04402e-18)
(-0.0209943 -0.00215705 -4.88406e-18)
(-0.0001778 3.01581e-05 -4.40934e-19)
(-0.00168153 0.000531522 -9.87693e-20)
(0.00016971 -3.72793e-05 6.89205e-20)
(-0.0254613 -0.0426675 2.14982e-19)
(0.000298427 2.94403e-05 3.3845e-20)
(0.000344898 -6.52686e-05 1.20187e-19)
(0.150605 -0.0767536 -6.83349e-20)
(-0.00377673 0.00177739 6.04956e-18)
(0.000359103 8.34888e-05 4.97127e-19)
(-4.4944e-06 2.01492e-05 -6.18699e-19)
(0.00122116 -0.000150494 -2.19731e-18)
(0.00297272 -9.26331e-05 -8.75972e-19)
(-0.169487 0.398494 -1.31577e-17)
(-0.0125903 0.0905069 1.683e-19)
(5.52595e-05 1.3061e-05 -7.75303e-21)
(0.0889131 -0.0854634 -4.1158e-19)
(0.000260255 -0.000217252 -1.3766e-21)
(-0.000893794 0.00106108 -5.67727e-20)
(-0.0309602 -0.0222778 9.5632e-19)
(-0.000247489 -5.7193e-06 -1.15896e-18)
(0.0794579 -0.220461 -4.14003e-20)
(4.92819e-05 1.30166e-05 -3.98184e-21)
(0.00323435 -0.000296319 1.67568e-18)
(-0.000242447 5.19337e-05 -3.39171e-20)
(0.0960049 0.0553875 -1.14365e-18)
(0.00238531 0.00307902 7.48584e-20)
(-0.000185256 5.37808e-05 8.66653e-19)
(-0.0370217 -0.198083 5.81864e-18)
(0.00257084 -0.00640113 -2.96926e-20)
(0.000124953 -0.000221586 1.24958e-21)
(-0.00149227 0.00255573 7.46435e-18)
(-0.000691764 -0.00317781 4.53289e-19)
(-9.44157e-05 1.62538e-05 -2.93993e-19)
(3.8408e-05 0.000129078 1.68026e-20)
(-0.000188755 2.07159e-05 -3.17164e-19)
(0.0854657 -0.0526267 -8.74581e-19)
(0.135991 -0.0605843 -5.87663e-18)
(-5.82145e-05 0.000227591 1.56516e-18)
(0.000268917 0.0103566 -1.77067e-18)
(-0.157107 -0.141981 8.02144e-19)
(-0.113254 0.0216344 4.78789e-20)
(-0.0269926 0.0273216 3.09809e-19)
(-0.0183948 0.141582 1.56163e-18)
(-0.0290161 0.0108034 5.1624e-19)
(0.00103039 0.0007423 1.60002e-20)
(-0.0340927 0.0482639 -3.30735e-18)
(0.0265147 -0.0237195 2.00296e-18)
(0.00603941 -0.00684022 -6.02241e-20)
(0.00118265 9.59782e-05 2.93759e-19)
(-0.0116622 -0.0537551 2.79706e-20)
(0.000709089 0.00119121 -9.56796e-20)
(0.0052371 0.00740312 -1.67509e-20)
(-0.000168225 0.000180738 -3.67848e-20)
(-5.86866e-05 0.000154004 -6.61703e-19)
(0.000156826 -8.37208e-05 -1.79471e-20)
(-0.000252012 -4.56596e-06 1.40185e-18)
(0.00014422 -9.12377e-05 9.55204e-21)
(-0.000275293 -1.91958e-06 9.25674e-19)
(0.0266703 -0.0308638 1.02846e-18)
(-0.000351831 7.4028e-05 -4.10144e-21)
(0.000390191 -0.000219778 -2.06555e-20)
(-0.019412 -0.00407393 1.22409e-17)
(3.47209e-05 7.41018e-07 -9.68583e-20)
(-8.26635e-05 8.50474e-05 -2.91091e-20)
(0.000107331 -0.000180525 -1.43218e-21)
(-0.000643127 -0.00280534 -5.0359e-19)
(0.00109417 0.000242089 -4.47703e-20)
(-0.0229091 -0.0110977 -5.34546e-19)
(0.000876048 -0.000681832 -8.3499e-21)
(0.00762808 -0.0102984 -1.35637e-20)
(-9.12392e-06 -8.75656e-05 -8.78656e-21)
(-0.00349692 0.00255312 -2.08884e-20)
(-0.0612801 0.0063848 1.04017e-18)
(0.101113 -0.0554756 8.72857e-18)
(0.0646846 -0.0123798 -1.48337e-19)
(-0.000131964 2.3086e-05 1.79352e-19)
(-0.00017093 8.92741e-05 -4.04539e-20)
(0.123819 -0.0630158 4.24426e-18)
(0.033788 -0.184519 1.34071e-18)
(-0.00303475 -0.000705784 -3.43139e-19)
(0.000715388 0.00135873 2.96605e-20)
(-0.0156785 0.127505 -1.26664e-19)
(0.0472749 -0.123997 6.49941e-19)
(0.00017425 -0.000266163 1.64693e-22)
(-1.25315e-05 -8.72392e-05 6.74543e-21)
(0.0725832 0.124687 2.3953e-18)
(-0.00142897 -0.00140114 2.48604e-20)
(-0.0364961 0.00541227 4.41922e-19)
(-0.0035118 -0.000166204 -9.04462e-19)
(-0.00189727 0.000651339 1.1375e-19)
(0.00093133 0.0104318 2.06865e-18)
(5.3842e-05 -0.000215084 8.26423e-21)
(0.000200837 2.324e-05 -1.64939e-20)
(-0.000119997 3.67233e-06 1.31903e-19)
(9.35017e-05 2.80062e-07 -1.90758e-21)
(0.000627883 -0.000811286 1.78325e-20)
(-9.14781e-05 1.16914e-05 1.08539e-18)
(0.0715729 -0.126661 -1.61901e-18)
(0.000348491 3.32258e-05 7.64599e-21)
(-0.00330003 0.0940004 -2.19978e-19)
(-0.121268 -0.0565732 -1.11881e-18)
(0.000123514 -0.000220993 -2.18425e-21)
(0.000354931 2.31234e-05 -4.89141e-21)
(-0.000335165 3.72123e-05 -5.63183e-20)
(-0.00014439 0.00348945 -1.30604e-18)
(-0.00863912 0.001158 -1.56208e-18)
(-0.0383569 0.104714 -3.91772e-19)
(0.000139884 0.00028212 -1.27673e-19)
(0.0987094 -0.0771277 -3.14073e-18)
(0.0078755 -0.000225733 3.89003e-19)
(0.00531644 -0.00696255 4.21346e-20)
(-0.00116275 -0.000122759 -6.06715e-21)
(0.00200022 0.00126941 -3.24189e-21)
(0.00162822 0.0021683 1.03251e-19)
(-4.08832e-05 0.000274678 4.42895e-19)
(-4.99639e-05 0.000256886 2.12991e-19)
(-0.0517121 -0.149392 4.42113e-17)
(-0.261791 0.291331 -5.59193e-18)
(3.05347e-05 -0.000171587 -2.45047e-21)
(0.000559271 -0.000766186 1.98851e-19)
(-0.000299763 0.000394081 -1.73053e-18)
(0.123977 0.0350775 -1.69531e-18)
(0.000211552 -0.000198173 6.32015e-21)
(0.000126154 -0.000149547 -3.88074e-22)
(-0.000287966 -5.7746e-06 3.54714e-19)
(0.000377538 -0.000236117 6.72959e-21)
(0.000341588 -0.000758229 2.46634e-19)
(-0.00110942 5.72466e-06 1.27597e-20)
(-0.00141244 -0.000246456 9.06201e-20)
(-8.97735e-05 1.18849e-05 -6.30884e-19)
(-0.0111336 0.0346078 -1.15106e-19)
(0.000133002 0.000270945 7.1891e-20)
(5.77362e-05 -0.000135532 1.63154e-21)
(0.0467897 -0.0126308 8.76056e-20)
(0.0874764 -0.0493603 -5.47e-18)
(0.00548077 0.00515824 3.64431e-21)
(-0.00107681 -0.00163887 -1.22647e-20)
(0.000200049 0.000150215 -3.46456e-20)
(-0.000112589 4.59231e-05 -1.46164e-20)
(-1.26077e-05 2.46538e-05 -3.29025e-19)
(-0.00163547 -0.00180174 -8.96771e-20)
(-0.0147299 0.0567631 -2.05173e-19)
(0.000784485 -0.0096481 -1.14957e-19)
(-0.00036235 0.000359686 7.27347e-18)
(-0.0826082 -0.024968 -4.41136e-19)
(0.000195503 0.00011497 -5.73714e-21)
(-0.00586131 0.00492261 -6.08828e-18)
(-0.00118405 -0.0014511 1.33543e-20)
(0.000357684 9.0468e-05 5.03773e-20)
(-0.0148046 0.00219637 8.34187e-18)
(6.84956e-05 -0.000135796 5.71994e-23)
(9.13856e-05 -8.52691e-06 2.61241e-20)
(0.0379504 -0.0143188 -5.19372e-18)
(-0.00030668 -2.53755e-05 7.35509e-20)
(-0.00053047 0.000601809 1.08695e-18)
(0.00161822 -0.0502739 1.09182e-18)
(-0.000325833 -4.54522e-05 -2.301e-20)
(-0.000135746 0.000159279 2.88833e-19)
(0.0309561 -0.177953 9.20211e-18)
(0.00102553 0.000880115 4.09273e-20)
(0.0218127 -0.0401219 -2.94256e-19)
(0.00151419 -0.00419363 6.41822e-21)
(0.000203803 6.06105e-05 3.13894e-20)
(-0.000200611 7.07492e-05 3.54727e-20)
(0.00557471 -0.0191614 1.06208e-19)
(0.00145036 -0.000679045 8.6794e-19)
(-0.00853708 0.00207074 5.83419e-19)
(0.000186152 6.33037e-06 1.60104e-20)
(-0.0397898 0.442068 3.95304e-18)
(-0.0849466 -0.0185196 2.56158e-18)
(-0.0291259 -0.000624463 -2.35069e-18)
(9.12572e-05 -0.000221432 6.93856e-21)
(-0.10748 -0.217122 -2.46202e-17)
(0.00039407 -0.000146718 -9.77874e-21)
(0.000224504 -5.84041e-05 -3.33294e-20)
(5.53005e-05 0.000213406 2.86404e-19)
(-0.000246356 0.000595361 -1.25118e-19)
(0.128736 -0.0767087 2.42108e-18)
(0.0556571 -0.00603882 2.6301e-19)
(-0.0007969 0.00113874 -8.46364e-20)
(-0.000590457 0.000494185 3.71998e-18)
(-0.00162636 -0.00174311 -5.34963e-20)
(-0.136209 0.174523 1.71626e-18)
(0.0165498 0.097341 -9.13574e-20)
(-7.27973e-05 2.88292e-05 -1.25505e-18)
(-0.00578417 -0.00353208 9.37778e-20)
(-0.000667212 0.00199334 -7.91762e-19)
(-0.030045 -0.193273 4.42717e-18)
(0.005032 0.00307347 1.95865e-19)
(0.0146695 0.00437907 5.59822e-20)
(0.000313551 -0.000231504 2.01553e-21)
(-0.000500976 0.000527106 -4.83874e-20)
(-0.00707752 0.0208501 1.32997e-18)
(0.000194814 4.79202e-05 -1.13464e-19)
(0.000333062 -0.000242614 -3.52109e-20)
(0.00022542 -0.000180126 -1.00094e-20)
(0.000156785 -0.000334393 2.82071e-20)
(0.00361815 0.00282291 2.3065e-18)
(-0.00756775 0.0631434 -3.78351e-19)
(-0.000152059 -0.000139988 -5.17136e-21)
(0.0497284 -0.00466604 1.08735e-17)
(0.0142548 0.00237752 5.62913e-20)
(0.000103096 -0.00390182 -7.45512e-19)
(9.29088e-05 0.000234469 -1.27094e-19)
(-3.70971e-05 -0.000156681 -3.55084e-21)
(0.00754545 0.108701 1.01447e-18)
(-0.0560822 -0.066016 -3.02124e-18)
(9.4057e-05 -0.000156546 1.78557e-21)
(-0.00877446 0.0110899 -2.33385e-18)
(-0.0249265 -0.115863 2.09836e-17)
(-0.0618511 -0.15806 -7.09101e-18)
(0.000128809 -2.86429e-05 -2.7308e-20)
(7.96726e-05 1.48009e-05 9.97828e-22)
(0.00542762 -0.0233235 2.33093e-19)
(-0.00353384 0.0726761 -9.29865e-18)
(0.00037665 -0.000112481 1.88249e-20)
(0.000345576 -0.00573529 8.13246e-20)
(0.000248139 0.000311651 -2.81437e-20)
(1.89578e-05 1.07638e-06 -4.91182e-20)
(-0.00376956 0.003793 1.94674e-18)
(-0.000191677 2.51899e-05 -1.32525e-18)
(-6.80091e-05 0.000250701 -3.54194e-19)
(-0.00134 -0.000859718 2.21869e-20)
(9.50091e-05 -0.000135847 1.24871e-21)
(-0.00148404 0.000145904 3.06265e-20)
(-0.0140868 0.0714725 7.97408e-20)
(-0.014442 0.00318761 -5.55797e-18)
(0.0783839 0.0144676 -1.59049e-18)
(0.00027134 0.00224124 -1.88968e-19)
(0.000379523 -0.000796836 9.19561e-20)
(0.152889 0.0587568 1.0329e-17)
(0.000128532 -0.000156241 1.89859e-22)
(0.184863 0.0597093 5.64961e-18)
(0.0807939 -0.130658 1.12374e-18)
(0.000266165 0.000298052 3.18317e-20)
(0.0510296 0.137744 1.14045e-17)
(-0.00175255 -0.000585547 -1.73221e-21)
(-0.00122716 -0.00168522 -4.85853e-20)
(-0.00536252 0.086482 -1.16586e-18)
(-0.000259587 -3.71715e-05 -6.61462e-22)
(-0.00025919 -4.39436e-06 -3.66141e-21)
(0.0886251 -0.0544192 -4.10967e-20)
(0.00123339 -0.000624324 1.45497e-18)
(0.0377357 -0.00921499 -1.47081e-18)
(0.000365678 3.14616e-05 2.09687e-20)
(0.0965641 -0.0705655 7.73577e-19)
(-0.126314 -0.249195 -3.85151e-18)
(-0.00333669 0.0136888 -3.55876e-20)
(-0.00075385 0.00108082 2.47984e-20)
(-0.0269974 0.0466383 2.15953e-19)
(-0.000542853 0.00185542 -1.79171e-18)
(-0.0233187 -0.0273329 5.5528e-19)
(-0.101774 -0.0034191 1.23843e-20)
(-0.127343 0.299306 5.94564e-18)
(-0.000135719 0.000101814 -7.65517e-19)
(0.0737759 -0.00459376 -1.36824e-18)
(0.000245313 -1.70697e-05 4.54096e-20)
(-0.00877519 0.0125848 3.26424e-18)
(-0.0271654 0.0299332 2.96438e-18)
(-0.000300951 -1.86755e-05 -2.19019e-20)
(0.0013862 0.00686385 -1.5023e-18)
(-0.0690795 0.0320686 -1.24402e-18)
(0.0272669 -0.0371705 -6.92033e-19)
(-0.00198394 -0.00494287 5.36342e-19)
(-0.00152981 -0.00036783 3.50081e-20)
(0.000370525 -0.000190444 1.06698e-20)
(0.000341742 0.000289359 -1.08768e-18)
(0.00234174 0.00265385 -1.28331e-19)
(-0.00930854 0.00989976 2.06446e-18)
(0.0188924 -0.0396036 -5.55089e-18)
(0.00031349 -0.000999176 -7.50849e-20)
(0.135071 0.0510826 8.24096e-18)
(-8.58832e-05 -0.00350023 -6.79043e-19)
(0.000461645 0.000370317 2.00681e-19)
(-0.00229837 0.00192261 2.06831e-18)
(0.000372671 -9.96705e-05 -1.43399e-21)
(-0.000105329 -0.000229041 -4.20655e-21)
(-0.000102936 6.90436e-05 -1.77602e-18)
(0.000178836 -0.00035256 -6.44018e-20)
(-0.290564 0.322755 -1.26798e-17)
(5.39777e-06 -0.000156543 7.30938e-21)
(-0.000745698 0.0025486 5.48897e-19)
(0.0158163 -0.0191698 -3.47878e-20)
(-0.0221403 -0.001738 6.18765e-18)
(-0.0195353 -0.00819194 -4.14983e-18)
(-0.000179854 4.75386e-05 -7.61094e-19)
(0.0003741 0.000446053 -4.64392e-20)
(0.0191596 0.0159199 2.92785e-19)
(0.000226988 0.000387476 -1.23296e-20)
(-0.0117224 0.0874322 8.81207e-18)
(-0.00105225 0.00140443 6.16027e-18)
(-0.00147425 -0.00167967 -3.34507e-20)
(0.000296572 0.000735411 -1.16937e-18)
(0.000444469 0.000199562 5.74228e-20)
(0.000392361 -0.000156615 9.59952e-21)
(0.126558 0.0623428 -5.46259e-18)
(0.000381147 -0.000109521 -7.43123e-21)
(0.245758 0.084585 4.80867e-19)
(-0.0729857 0.0633368 -2.00065e-18)
(-0.000400879 0.00034645 -9.82497e-19)
(-0.0218685 -0.0925757 1.89235e-18)
(0.000402847 0.000108561 2.74559e-20)
(0.00754123 0.00647888 -1.64935e-19)
(-0.00183876 -0.00455256 -2.07054e-19)
(-0.14633 0.416664 -2.87342e-18)
(-0.0011312 0.00115969 2.5241e-18)
(-0.0297466 0.0844659 9.64767e-19)
(-0.0257857 -0.0195131 -1.07106e-19)
(0.000209344 -3.02952e-05 -1.94077e-20)
(0.00831868 -0.0287753 1.47809e-19)
(-0.000225127 -2.35205e-05 -6.60525e-20)
(-0.117453 0.00985405 9.79863e-19)
(0.000291461 0.000420727 4.89302e-20)
(0.000116458 0.000339041 1.14579e-18)
(-0.0618234 -0.14273 -4.09089e-18)
(0.0280863 -0.00828441 -2.69307e-20)
(-0.000106086 5.24455e-05 -1.6247e-18)
(-0.000233343 0.00010328 2.90694e-19)
(0.0013022 -2.03214e-05 -6.3216e-19)
(-0.000422017 -0.000893383 -1.39135e-20)
(-0.00017743 5.26299e-05 -6.94895e-19)
(-0.00878527 -0.0421697 7.07355e-20)
(0.0244554 -0.151399 2.9592e-18)
(-0.000583685 0.00108001 -7.31414e-20)
(-0.000382037 -0.000881904 3.41153e-21)
(-0.000234991 -3.11757e-05 -1.98614e-20)
(-0.1813 0.392073 1.09484e-17)
(0.054019 -0.00968454 -4.04632e-19)
(0.0202088 -0.000614147 2.32145e-20)
(9.25221e-05 -0.000162025 -8.37863e-21)
(-0.00610122 -0.00165816 1.89995e-19)
(0.000119466 0.000332564 -4.15453e-19)
(0.0004232 0.000453077 4.82877e-20)
(-0.00372376 0.00233934 1.61392e-18)
(0.0282364 0.116317 8.43532e-19)
(-7.76424e-05 2.0773e-05 5.6836e-19)
(-0.00981812 0.0105805 -1.6049e-18)
(-0.136233 0.131839 4.69188e-19)
(-1.40848e-05 -0.000247293 2.37469e-21)
(-0.00280085 -0.00564317 2.1092e-20)
(-0.000134969 0.000171537 -4.23441e-19)
(0.00557981 0.00223388 -7.67358e-19)
(-7.24199e-05 2.01321e-05 -5.65059e-20)
(0.00121714 0.000781825 -4.64757e-20)
(-0.00139715 0.00288331 -6.21677e-19)
(0.000514083 0.000342158 -2.28047e-19)
(-0.00897095 0.0207531 -2.12679e-19)
(-0.000260582 -1.31085e-06 -2.79472e-19)
(0.0437465 -0.153875 3.62233e-20)
(6.43621e-05 -1.49044e-06 -2.01478e-19)
(-0.00107158 0.00154254 -3.79208e-18)
(-0.0208298 0.0287252 -9.798e-19)
(0.0308822 -0.0280468 -9.85673e-19)
(-0.00766178 0.012959 -3.15405e-18)
(0.000121616 -2.65163e-05 2.96129e-21)
(0.000394613 0.000167052 -4.45532e-20)
(-0.0333145 -0.0316713 1.69311e-19)
(-0.0066001 -0.00064142 -1.36325e-19)
(-0.0192788 -0.025809 1.29345e-18)