/*--------------------------------*- C++ -*----------------------------------*\
| =========                 |                                                 |
| \\      /  F ield         | OpenFOAM: The Open Source CFD Toolbox           |
|  \\    /   O peration     | Version:  v2012                                 |
|   \\  /    A nd           | Website:  www.openfoam.com                      |
|    \\/     M anipulation  |                                                 |
\*---------------------------------------------------------------------------*/
FoamFile
{
    version     2.0;
    format      ascii;
    class       surfaceVectorField;
    location    "250";
    object      Uf;
}
// * * * * * * * * * * * * * * * * * * * * * * * * * * * * * * * * * * * * * //

dimensions      [0 1 -1 0 0 0 0];


internalField   nonuniform List<vector> 
27907
(
(1.07685 -0.31074 -2.02186e-20)
(1.08685 -0.30513 7.81538e-21)
(1.08486 -0.316991 -2.55136e-20)
(1.31133 0.0526065 0)
(1.26494 0.0561513 0)
(1.30283 0.0598307 -5.4334e-20)
(1.01735 -0.000366118 -3.43717e-22)
(1.01724 -0.000429789 5.48752e-22)
(1.01722 -0.000308338 4.55322e-22)
(0.180862 0.0660498 -5.40264e-21)
(0.212047 0.0612177 -2.97163e-21)
(0.18446 0.0714407 2.67859e-21)
(0.230706 0.0936208 2.08497e-21)
(0.269841 0.0986839 -4.48924e-22)
(0.220817 0.0945163 1.10933e-20)
(0.196507 0.0961327 0)
(0.14343 0.0943922 -6.14718e-20)
(0.217634 0.100225 0)
(-0.216885 -0.00296154 -1.79684e-20)
(-0.228317 0.00345108 -1.04347e-19)
(-0.222706 -0.00293658 -6.17625e-20)
(1.01262 -0.00567954 -1.18946e-22)
(1.01299 -0.00573011 2.87857e-23)
(1.0128 -0.00601793 -4.58837e-23)
(1.14813 0.0769101 -4.21997e-21)
(1.15256 0.0756948 7.72325e-21)
(1.15126 0.0809124 -3.20115e-21)
(1.01118 -0.10567 -6.97058e-22)
(1.0112 -0.109346 -3.78932e-23)
(1.01439 -0.106828 2.20681e-21)
(1.05282 -0.043952 7.03359e-21)
(1.05435 -0.044381 -2.25045e-21)
(1.05317 -0.045638 4.67088e-21)
(0.0896813 -0.0476802 -1.0261e-19)
(0.0840005 -0.0467372 -2.63372e-21)
(0.162001 -0.0565031 -4.99343e-20)
(1.002 -0.000454066 1.47096e-22)
(1.00187 -0.000324482 -6.65794e-22)
(1.00206 -0.000305358 -7.84539e-22)
(1.09329 -0.00845683 0)
(1.09215 -0.00706265 2.63149e-21)
(1.09384 -0.0065876 -3.04244e-21)
(1.05267 0.00530999 0)
(1.05325 0.00470056 0)
(1.0522 0.00445007 -2.53648e-21)
(0.585039 -0.511372 4.82768e-21)
(0.552876 -0.483932 -5.79675e-20)
(0.589278 -0.469804 5.01136e-20)
(1.09927 -0.000715024 -9.11908e-21)
(1.09819 -0.000963222 8.27993e-21)
(1.09904 -0.00187386 1.1788e-20)
(1.004 -0.00797963 9.95102e-22)
(1.00421 -0.00799031 -2.74614e-21)
(1.00397 -0.00771902 1.1513e-21)
(1.03929 -0.00880613 9.68258e-22)
(1.04003 -0.0089971 -1.7215e-23)
(1.03983 -0.00830302 -1.96852e-21)
(1.02272 -0.127836 -4.88464e-22)
(1.01914 -0.127453 -2.08471e-22)
(1.02159 -0.124163 -6.96868e-22)
(0.111571 0.0208818 3.55285e-22)
(0.0889893 0.0172089 3.12513e-21)
(0.106727 0.0208875 5.07407e-21)
(0.999999 -0.000357766 1.98395e-21)
(0.999984 -0.000517544 2.42404e-22)
(1.00001 -0.000434167 -3.40565e-22)
(-0.0793859 -0.02875 0)
(-0.0452926 -0.0325973 0)
(-0.0807371 -0.028092 -5.99007e-20)
(1.0878 0.104197 4.27942e-21)
(1.09153 0.107868 -6.67736e-21)
(1.08898 0.10975 -1.87238e-21)
(1.35814 -0.145169 -4.86554e-20)
(1.3592 -0.149436 0)
(1.35936 -0.139375 0)
(1.01226 -0.00562366 2.26349e-23)
(1.01246 -0.00536288 -5.18714e-23)
(0.778642 -0.662482 -2.28068e-21)
(0.768033 -0.682234 -6.81757e-22)
(0.747898 -0.662874 1.55971e-21)
(0.16082 0.101315 -1.60745e-22)
(0.208608 0.106067 -1.19421e-20)
(0.174117 0.101047 3.20217e-21)
(0.839949 0.055672 4.79381e-20)
(0.943069 0.0546514 5.51786e-21)
(0.870114 0.0515775 2.9129e-20)
(1.05894 -0.687483 5.48642e-21)
(1.01994 -0.685728 -1.49458e-20)
(1.08315 -0.745659 2.54852e-20)
(1.09722 0.0112653 6.74051e-22)
(1.09715 0.0113847 5.57316e-21)
(1.09733 0.0113493 6.65153e-21)
(0.171948 0.0166298 -4.95785e-22)
(0.185236 0.0187108 5.80037e-22)
(0.188763 0.0185576 3.4104e-21)
(1.00036 -0.000144168 -1.71487e-21)
(1.0003 -0.000130566 2.82e-21)
(1.00034 -8.13259e-05 1.19872e-21)
(1.05218 -0.017803 -2.61739e-21)
(1.05299 -0.0171895 -3.34844e-21)
(1.05197 -0.016755 2.98805e-22)
(1.08927 0.021458 3.21383e-22)
(1.08977 0.0201894 2.45512e-21)
(1.08825 0.0202178 -4.74979e-21)
(0.999219 -0.00115964 -1.31092e-23)
(0.999105 -0.00127339 4.8257e-21)
(0.999155 -0.00138522 -4.05881e-21)
(1.00015 -0.000174296 -4.92461e-21)
(1.00012 -0.000137107 0)
(1.00012 -0.000178802 -2.4852e-22)
(1.03475 -0.0253125 0)
(1.03385 -0.0251775 0)
(1.03431 -0.0260824 0)
(1.0403 -0.02945 -8.43377e-22)
(1.04085 -0.0285727 2.01132e-21)
(1.03969 -0.0286324 2.18698e-21)
(1.10374 -0.00182051 0)
(1.10337 -0.00307081 0)
(1.10235 -0.00199904 -5.67027e-21)
(1.0357 -0.0238404 9.7779e-22)
(1.03516 -0.0246097 0)
(1.03479 -0.0236108 -8.07702e-22)
(0.933827 -0.0801443 4.11145e-21)
(0.933792 -0.0757988 -1.26658e-20)
(0.937647 -0.0790909 -9.9202e-22)
(1.02299 -0.0087344 -2.78467e-23)
(1.02293 -0.00909978 4.16421e-23)
(1.02344 -0.00898884 -3.93216e-23)
(0.97057 -0.09215 -3.64126e-22)
(0.972806 -0.0942215 4.65235e-21)
(0.973647 -0.0908536 -3.27719e-21)
(1.17816 -0.50504 -2.00268e-21)
(1.15593 -0.509386 0)
(1.20237 -0.534357 -3.59762e-20)
(1.01431 -0.00177835 -2.5452e-23)
(1.01448 -0.00161959 4.52654e-22)
(1.01452 -0.00188433 -4.71636e-22)
(-0.0798145 -0.0296417 0)
(-0.109252 -0.0253569 -3.34603e-20)
(1.04668 -0.0582898 -3.76634e-22)
(1.04814 -0.0572632 4.52574e-21)
(1.04644 -0.0564319 4.57982e-21)
(1.00821 -0.104726 -2.01297e-21)
(1.01116 -0.102589 -4.23596e-21)
(1.02312 -0.00720395 -1.96013e-23)
(1.0231 -0.00683151 3.56464e-23)
(1.02267 -0.00694603 3.59891e-23)
(1.22059 -0.143155 1.59529e-21)
(1.22382 -0.138281 1.18389e-20)
(1.22754 -0.144609 -3.04666e-20)
(0.364879 0.0546318 -4.57111e-21)
(0.359965 0.0562672 5.30083e-21)
(0.397181 0.0570609 2.68954e-22)
(1.01719 -0.00242167 -5.18189e-23)
(1.01747 -0.00251101 -5.70215e-22)
(1.01729 -0.0022827 -1.50707e-22)
(1.05118 -0.0435604 2.99772e-21)
(1.05233 -0.0424938 -1.77534e-21)
(0.116865 0.0921679 1.82166e-20)
(0.140685 0.0996176 1.97967e-20)
(1.03674 -0.210352 -8.82992e-21)
(1.14388 -0.226334 3.87489e-21)
(1.19332 -0.242332 2.82073e-20)
(1.00018 -0.000173897 1.3301e-22)
(1.00018 -0.000223197 -2.5576e-21)
(0.51115 -0.343309 1.56815e-20)
(0.529303 -0.314552 0)
(0.992406 -0.0229363 -1.52759e-21)
(0.993048 -0.023106 3.42673e-21)
(0.992454 -0.0237919 -6.59359e-21)
(1.08834 -0.00732369 8.00451e-21)
(1.09034 -0.00741476 7.5054e-21)
(1.08939 -0.00918229 -1.56675e-21)
(1.10418 -0.26596 1.27503e-20)
(1.09874 -0.270782 2.52444e-20)
(1.10744 -0.27177 -1.61826e-21)
(-0.21283 -0.00243667 -3.09048e-20)
(-0.196052 -0.00852149 8.8319e-20)
(1.15109 0.0266705 1.47568e-21)
(1.14774 0.0286215 3.25817e-20)
(1.15131 0.0307098 3.93275e-20)
(0.967251 -0.0463703 1.32846e-20)
(0.968993 -0.0456304 8.47464e-21)
(0.96729 -0.0442792 -2.10607e-21)
(1.01709 -0.00256846 1.14218e-22)
(1.01696 -0.00230794 7.57366e-24)
(0.993639 -0.0056189 0)
(0.99383 -0.00527853 0)
(0.993971 -0.00563429 0)
(1.10236 0.000421442 4.02807e-21)
(1.1011 0.00124972 3.52992e-21)
(1.10115 -0.000174527 1.19728e-20)
(1.00042 -0.000141624 -3.37931e-21)
(1.00039 -0.000201892 -3.9644e-21)
(1.03297 -0.0235749 -6.35572e-22)
(1.03212 -0.0235951 -1.43982e-21)
(1.03253 -0.0228354 -3.50684e-23)
(0.338565 0.0533245 -5.31317e-21)
(0.367545 0.0525321 -3.8154e-21)
(0.300372 0.0571055 4.81596e-21)
(0.30412 0.0544221 -1.00959e-21)
(0.274746 0.0519051 1.70851e-21)
(0.969659 -0.025805 -6.43886e-21)
(0.969448 -0.02719 -5.3273e-21)
(0.970844 -0.0265969 7.54487e-21)
(1.02312 -0.00757027 -2.35139e-23)
(1.02359 -0.00746507 -3.29182e-23)
(0.142489 -0.30134 2.12549e-20)
(0.153218 -0.24178 4.56696e-20)
(0.107569 0.055079 7.34283e-20)
(1.01823 -0.00989734 -1.1841e-21)
(1.01774 -0.00978021 -1.52578e-22)
(1.01798 -0.00950927 -4.89019e-23)
(0.994498 -0.0242835 -1.62729e-21)
(0.993913 -0.024107 5.92493e-21)
(0.994445 -0.023494 -4.25477e-22)
(1.09121 0.0593105 1.53579e-20)
(1.09453 0.0598712 -5.39205e-21)
(1.09237 0.0631716 2.09544e-20)
(0.260743 0.0878711 -8.00402e-22)
(0.226259 0.0804334 -8.0087e-21)
(0.25177 0.088883 -1.57332e-20)
(0.884359 -0.321607 -4.6898e-23)
(0.899053 -0.319171 -5.43844e-21)
(0.893668 -0.33469 -1.10891e-21)
(-0.0866667 -0.0271567 -6.73034e-20)
(-0.0857552 -0.0273395 9.49347e-21)
(-0.111874 -0.0246528 -3.29864e-20)
(-0.0315898 -0.0278842 2.15922e-20)
(-0.0312181 -0.0289434 -9.43916e-21)
(0.0176321 -0.0318831 4.76716e-20)
(1.23917 -0.477857 -2.88079e-20)
(1.23045 -0.485661 -7.02252e-22)
(1.22736 -0.489047 -2.68826e-20)
(1.08789 -0.00588415 3.2927e-21)
(1.08696 -0.0073698 -3.49556e-21)
(0.102318 0.0992164 0)
(0.150644 0.102702 0)
(0.158709 0.106751 1.77091e-21)
(1.08884 0.0571919 4.23183e-21)
(1.08762 0.0602579 0)
(1.09066 -0.0325177 -1.37757e-21)
(1.09055 -0.0345615 2.52961e-21)
(1.08874 -0.0328959 5.49721e-22)
(0.366538 -0.139764 -3.18517e-20)
(0.422272 -0.161726 -3.3771e-20)
(0.599962 -0.219867 -1.25251e-19)
(1.15393 0.0257569 -1.85308e-20)
(1.1504 0.0240405 -1.32805e-20)
(-0.063239 -0.0244078 -4.07212e-20)
(-0.073512 -0.0244715 -8.641e-20)
(-0.0431671 -0.0119957 -8.46906e-20)
(0.995286 -0.0244773 3.88178e-21)
(0.994739 -0.0251662 -6.81355e-22)
(0.0617238 0.095458 0)
(0.0530209 0.0926229 -2.5567e-20)
(0.99184 -0.0228088 0)
(0.992368 -0.0222579 -6.74655e-21)
(0.0625828 -0.0509602 -8.91524e-21)
(0.0531044 -0.051881 0)
(0.16192 -0.0712473 0)
(0.933788 -0.0845864 0)
(0.929935 -0.0811356 0)
(-0.0351009 -0.0258668 3.69335e-21)
(-0.0313247 -0.0260474 5.18342e-20)
(0.0172844 -0.0273276 4.23136e-20)
(0.0698381 -0.0507544 -8.44983e-21)
(0.00515558 -0.0380447 -1.11248e-19)
(1.08599 0.0554606 -1.23496e-21)
(1.08949 0.0543035 4.27969e-21)
(1.01867 -0.0100214 -3.7231e-22)
(1.01842 -0.010306 6.47365e-23)
(1.00173 -0.0183058 3.10792e-21)
(1.00141 -0.0180611 -1.33775e-21)
(1.00147 -0.0186133 4.68629e-21)
(0.130489 0.0245295 2.63162e-21)
(0.115641 0.020853 -1.08328e-23)
(1.03464 -0.130004 -3.81363e-21)
(1.03176 -0.133577 1.70657e-21)
(1.03061 -0.128653 1.71942e-21)
(0.0216245 0.090141 2.47979e-20)
(-0.0236795 0.0845987 5.77025e-20)
(-0.0217993 0.0837494 -2.19266e-20)
(1.11003 0.020455 -1.84452e-21)
(1.10968 0.0188196 0)
(1.10839 0.0199851 0)
(1.11563 -0.130281 1.59223e-21)
(1.11107 -0.129818 -6.74083e-21)
(1.11392 -0.126373 -1.12865e-20)
(0.154735 0.0149891 4.17799e-21)
(0.158085 0.0149075 -3.37131e-21)
(1.09832 -0.676333 0)
(1.05429 -0.649667 0)
(0.95947 0.0556038 4.21849e-23)
(0.951268 0.0601739 -2.95385e-21)
(1.00145 0.0528429 2.77466e-22)
(0.267939 0.0863039 1.06324e-20)
(0.304749 0.0924538 1.76147e-20)
(1.04143 -0.039552 7.34423e-22)
(1.04113 -0.0383676 8.23107e-22)
(1.04263 -0.0386854 -1.26657e-22)
(0.963274 -0.0129291 9.57389e-22)
(0.964141 -0.0116338 6.82165e-21)
(0.962475 -0.0113952 -8.3743e-21)
(0.200096 -0.0803632 4.44454e-20)
(0.0804817 -0.0545224 0)
(0.547898 -0.89498 -1.12684e-19)
(1.01105 -0.00620439 -1.24552e-21)
(1.01097 -0.00590191 -1.178e-22)
(1.0107 -0.00603308 -1.05519e-21)
(1.00752 -0.0375373 2.4418e-21)
(1.00852 -0.0377153 -4.4483e-22)
(1.00809 -0.0365669 -1.23195e-21)
(0.873315 0.152969 -1.26277e-20)
(0.881102 0.15431 -1.81784e-20)
(0.802851 0.151367 -1.4461e-21)
(-0.411815 0.0169644 0)
(-0.439002 0.0160575 -4.75008e-20)
(-0.411455 0.0163246 0)
(-0.310638 0.0255313 0)
(-0.316741 0.0261976 -7.81146e-22)
(-0.288605 0.0309159 0)
(1.05293 0.00615948 0)
(1.05192 0.00589855 0)
(-0.0147394 -0.0352176 1.6106e-20)
(0.0342209 -0.039974 -6.93017e-20)
(-0.0155801 -0.034676 -4.97638e-20)
(-0.0428363 -0.0225251 -6.0878e-20)
(-0.0765962 -0.0203379 -8.43107e-20)
(1.11127 -0.0561154 6.29099e-21)
(1.10895 -0.0545137 -5.91539e-21)
(1.10853 -0.0576903 -1.3017e-20)
(0.98721 -0.0108476 6.05567e-21)
(0.986932 -0.0112125 1.7367e-21)
(0.986583 -0.0106578 1.7014e-21)
(0.517348 -0.0659574 2.94072e-20)
(0.480273 -0.0561824 1.18135e-19)
(0.416156 -0.0485439 4.59579e-20)
(0.59428 -0.628048 1.44574e-20)
(0.634222 -0.608484 1.11609e-20)
(0.636043 -0.656028 6.76781e-21)
(1.16249 -0.3951 -3.76811e-20)
(1.16078 -0.407022 5.79547e-21)
(1.17136 -0.40139 -5.4345e-20)
(1.20121 -0.499217 -1.79882e-21)
(1.16822 -0.483226 2.06732e-20)
(1.31803 0.0439765 -6.16721e-21)
(1.32489 0.0460016 0)
(1.15198 0.114105 -1.82977e-20)
(1.14594 0.115366 -3.46519e-20)
(1.15253 0.120367 2.33388e-23)
(0.037164 -0.0461835 0)
(-0.00406836 -0.0325441 -1.31756e-19)
(1.00279 -0.00016243 9.95001e-22)
(1.00303 -0.000172307 4.62427e-23)
(1.00381 -0.000266711 -1.97847e-21)
(1.10017 -0.000550345 -3.97048e-21)
(1.09936 0.000198314 -1.36637e-20)
(0.821474 -0.653398 -1.3592e-23)
(0.792868 -0.623564 5.50903e-21)
(0.0575564 0.0144735 -6.94233e-22)
(0.0620914 0.0143392 2.7634e-21)
(0.926419 -0.220905 2.70882e-21)
(0.91668 -0.221734 -7.15272e-21)
(0.924487 -0.213236 -7.68551e-21)
(0.238765 -0.656226 -6.69303e-20)
(0.219619 -0.730592 -2.36362e-20)
(0.966536 -0.0639484 -4.98815e-22)
(0.965548 -0.0661836 9.36019e-21)
(0.968138 -0.0658693 4.99777e-21)
(1.09717 0.0611805 -1.15002e-20)
(1.09618 0.0576747 -2.05353e-20)
(1.10416 -0.000880878 -3.8081e-21)
(1.10511 -0.00172827 4.17256e-21)
(1.00217 -0.0186639 2.51429e-21)
(1.00204 -0.0180345 3.34246e-21)
(0.782285 -0.256817 1.29992e-20)
(0.769811 -0.252129 -2.73933e-22)
(0.773617 -0.268107 3.27009e-20)
(0.876191 -0.312663 1.8058e-23)
(0.870197 -0.329354 1.01803e-20)
(0.933735 -0.449915 8.52524e-22)
(0.921469 -0.460994 2.52231e-21)
(0.94185 -0.462524 -6.36952e-21)
(1.00307 -0.0320522 -2.07357e-21)
(1.00364 -0.03278 -1.78859e-21)
(1.00277 -0.0328533 -1.89823e-21)
(0.944106 -0.189135 4.61873e-21)
(0.877984 -0.17313 -2.74981e-20)
(1.03613 -0.0233139 5.70844e-22)
(1.03646 -0.0242595 2.13204e-21)
(1.04225 -0.00688786 0)
(1.04209 -0.00623184 0)
(1.04143 -0.00674047 2.40717e-21)
(-0.0116422 0.0274476 -8.41178e-22)
(-0.0195024 0.0278321 -1.26323e-20)
(-0.032581 0.0217917 -1.48601e-20)
(0.213671 0.03172 4.28957e-22)
(0.226792 0.0395499 4.63369e-21)
(0.218573 0.0417245 0)
(1.09725 0.0111866 -7.56975e-22)
(1.09718 0.0111576 -6.15649e-21)
(0.824961 0.141813 -6.75256e-21)
(0.80315 0.14215 1.62561e-20)
(0.760201 0.136757 9.02472e-21)
(1.24549 -0.463635 2.96868e-20)
(1.23896 -0.465624 4.58602e-20)
(1.05022 0.0427615 9.99673e-22)
(1.04765 0.0416199 8.25165e-21)
(1.05039 0.0394403 -5.95154e-21)
(1.09064 -0.0363818 9.93483e-21)
(1.08875 -0.0368594 1.96805e-21)
(1.09065 -0.0384639 3.24763e-21)
(0.999973 -0.000385201 0)
(0.999997 -0.000531874 2.73662e-21)
(0.999979 -0.000414815 -2.68015e-21)
(-0.111263 -0.0254857 -4.31136e-20)
(-0.109102 -0.0256644 -3.55393e-20)
(-0.146201 -0.0232704 3.45924e-20)
(1.08272 -0.0505135 -1.48973e-20)
(1.08142 -0.0489689 -9.20025e-21)
(1.08038 -0.0508321 -5.34178e-21)
(-0.0537531 -0.0322164 8.28608e-20)
(-0.0192979 -0.0342084 7.02697e-20)
(1.04534 -0.059114 -3.12463e-21)
(1.04699 -0.0601077 -2.96059e-21)
(0.990219 -0.037874 3.54945e-21)
(0.989421 -0.0385694 -5.66908e-22)
(0.989245 -0.0372293 4.91004e-21)
(0.999992 -0.000223421 -2.57692e-21)
(1 -0.000107132 0)
(1 -0.00011731 0)
(1.01083 -0.0138973 8.36985e-22)
(1.01115 -0.0142082 -1.97429e-21)
(1.01075 -0.0143017 -3.68284e-21)
(1.08575 -0.00372648 0)
(1.08688 -0.00473392 0)
(1.08535 -0.00524894 7.21012e-22)
(0.131409 -0.0776922 1.43551e-21)
(0.188563 -0.102827 0)
(0.0512953 -0.0597361 -2.44634e-20)
(0.991112 -0.0367976 1.20754e-21)
(0.991404 -0.0382896 -4.14582e-22)
(1.11041 -0.260339 -1.05238e-20)
(1.10169 -0.26021 -5.35386e-21)
(0.802844 0.0617333 -4.63083e-20)
(0.743049 0.0594349 -1.78103e-20)
(1.04041 -0.0103907 4.07503e-22)
(1.04121 -0.0106158 3.53151e-22)
(1.04046 -0.0111435 5.47511e-22)
(0.368752 -0.0663977 -5.88137e-20)
(0.457658 -0.079472 -7.5602e-20)
(0.349495 -0.0657036 -6.51228e-20)
(1.21299 -0.262793 -1.22954e-20)
(1.2066 -0.267105 -2.74329e-20)
(1.20578 -0.258588 0)
(0.201336 0.106627 0)
(0.267661 0.113457 2.57078e-20)
(0.25723 0.109759 0)
(-0.312153 0.0114338 4.91683e-20)
(-0.315088 0.0104255 0)
(-0.281528 0.0106718 0)
(1.00382 -0.00800229 1.74787e-21)
(1.00405 -0.00823582 0)
(0.265669 -0.111627 4.62597e-20)
(0.086084 -0.061935 1.47408e-21)
(0.180064 0.100047 -7.85538e-22)
(0.187481 0.0984977 -1.83861e-20)
(0.227181 0.105014 -2.69889e-20)
(1.08597 -0.00239629 0)
(1.08455 -0.00285306 -2.83498e-21)
(1.08739 0.0995244 2.07757e-20)
(1.08372 0.101047 5.46799e-22)
(0.77226 0.108352 -8.66881e-20)
(0.70508 0.0999333 2.5881e-20)
(0.794478 0.104441 -4.62351e-20)
(0.967286 -0.0479106 -5.66512e-21)
(0.965546 -0.046749 5.03629e-21)
(0.794438 -0.248793 -1.28412e-20)
(0.796574 -0.26485 -1.98501e-20)
(1.02986 -0.034175 -1.54793e-22)
(1.03087 -0.034478 -2.33341e-22)
(1.03053 -0.0333991 2.6164e-22)
(1.00933 -0.00579135 -2.02869e-22)
(1.00903 -0.0056013 -2.95476e-21)
(1.0093 -0.00546484 3.50612e-22)
(-0.380606 0.0137926 3.28853e-20)
(-0.378768 0.011431 2.65955e-20)
(1.05058 0.0427908 -1.06218e-20)
(1.05042 0.0457698 8.70568e-21)
(1.02794 -0.0073095 3.63397e-22)
(1.02839 -0.00715719 -5.34366e-22)
(1.02844 -0.0076877 4.60757e-22)
(1.06972 -0.00784892 5.56804e-21)
(1.07029 -0.00695725 6.10105e-21)
(1.07088 -0.00813894 -5.0878e-21)
(1.05058 0.049854 -1.08618e-20)
(1.0532 0.0504728 3.39536e-21)
(1.05172 0.0463835 8.19662e-21)
(0.996581 -0.018891 -1.14475e-21)
(0.996463 -0.0194619 3.39757e-21)
(0.997004 -0.0193285 7.05691e-22)
(-0.416917 0.0164903 4.24384e-20)
(-0.387838 0.0177227 2.82192e-20)
(1.02211 -0.00811399 -6.88029e-23)
(1.02218 -0.00775161 2.12268e-22)
(1.0217 -0.00782227 3.70395e-22)
(0.994721 -0.0167758 0)
(0.994889 -0.0173032 0)
(0.994326 -0.0172577 0)
(0.933468 -0.222794 7.06569e-22)
(0.925923 -0.230282 8.9153e-21)
(1.15794 0.113103 -3.96578e-22)
(1.15227 0.109053 1.10338e-20)
(1.01005 -0.0491091 0)
(1.01012 -0.0504972 2.13427e-21)
(1.00892 -0.0498656 0)
(1.09731 0.0111352 -1.29227e-21)
(1.09736 0.0111307 1.20002e-20)
(0.969907 -0.1503 -2.54483e-21)
(0.966117 -0.1522 1.52069e-21)
(0.970972 -0.154702 5.32902e-23)
(1.15714 0.0248127 6.32242e-21)
(1.15712 0.0283243 -1.51775e-21)
(1.02652 -0.128127 1.11482e-21)
(1.02401 -0.131998 0)
(1.22041 -0.259282 1.76028e-20)
(1.22187 -0.267801 4.04882e-21)
(1.00055 -0.00219588 -2.73075e-21)
(1.00049 -0.00201838 0)
(1.00048 -0.00208268 1.49416e-22)
(1.02255 -0.00845641 -8.40366e-23)
(1.02304 -0.00831806 -8.45772e-23)
(0.736304 -0.202366 7.6519e-21)
(0.743613 -0.215401 -1.02436e-20)
(0.752301 -0.203468 -1.47915e-20)
(1.04375 -0.0598248 2.09381e-22)
(1.04364 -0.0580973 3.39508e-21)
(1.06859 -0.130368 5.1177e-22)
(1.06477 -0.131969 3.70603e-21)
(1.06835 -0.135426 -3.99379e-22)
(1.14955 0.00306752 2.92524e-21)
(1.15155 0.00157302 8.53599e-22)
(1.15158 0.00488329 2.54001e-21)
(1.00193 -0.000570713 8.11252e-22)
(1.00212 -0.000574235 -3.59031e-21)
(0.969707 -0.145874 -6.76149e-22)
(0.974201 -0.148446 8.59034e-21)
(1.11319 0.0211476 -2.36869e-21)
(1.11483 0.0217147 -1.61086e-20)
(1.11323 0.0227955 -7.55894e-22)
(0.999993 -0.000244359 -2.19809e-21)
(0.999984 -0.000406158 0)
(0.122845 0.0192384 -2.41559e-21)
(0.101083 0.0164778 9.39111e-22)
(0.122407 0.0208992 -6.06151e-22)
(1.00509 -0.103642 2.40135e-21)
(1.00502 -0.107288 0)
(1.00441 -0.00798388 7.58027e-22)
(1.00465 -0.00800492 4.45401e-21)
(1.0044 -0.00768968 2.14584e-21)
(1.11704 -0.134357 1.86674e-20)
(1.12016 -0.130667 1.23177e-20)
(0.991523 -0.0406364 -5.99942e-21)
(0.992644 -0.0406849 7.29107e-21)
(0.991925 -0.0395735 -3.51424e-21)
(1.07368 -0.121095 0)
(1.07679 -0.120578 7.15568e-21)
(1.07627 -0.124746 -1.22789e-20)
(0.852068 -0.296284 0)
(0.846892 -0.283788 -1.16055e-20)
(0.861261 -0.287726 0)
(0.0273852 -0.0375716 -5.27845e-20)
(-0.0106214 -0.0360106 -4.70422e-20)
(-0.0137928 -0.0345628 5.38377e-20)
(0.840821 -0.304398 -1.77909e-20)
(0.856261 -0.307506 0)
(0.504335 -0.426505 2.30591e-20)
(0.527951 -0.456004 -3.6342e-20)
(0.537744 -0.418185 2.5645e-20)
(1.01663 -0.00564378 8.29745e-22)
(1.01699 -0.00574297 1.75389e-22)
(1.01672 -0.00593462 4.78305e-22)
(0.262009 0.100273 -3.1759e-20)
(0.18399 0.0920752 0)
(1.00445 -0.00822854 -3.34419e-21)
(1.04059 -0.0402635 0)
(1.04195 -0.0405365 0)
(1.08236 0.040156 -1.05444e-20)
(1.08214 0.04296 1.79158e-21)
(1.08462 0.0411227 4.1936e-21)
(-0.00417461 0.0269112 -1.15658e-20)
(0.00553182 0.0329546 0)
(1.26641 -0.172174 1.98809e-20)
(1.27288 -0.172512 3.94833e-20)
(1.26904 -0.178974 -3.96813e-22)
(1.11127 0.0208963 -3.27454e-21)
(1.11271 0.0193795 1.12126e-20)
(1.15074 -0.0570587 1.60005e-20)
(1.14947 -0.052674 -1.15377e-20)
(1.1466 -0.0565093 -2.67791e-20)
(0.975682 -0.208753 8.03084e-22)
(0.980739 -0.213651 3.67458e-21)
(0.973191 -0.216286 3.67721e-21)
(1.02784 -0.00467073 1.98338e-22)
(1.02784 -0.00429433 5.74688e-22)
(1.02827 -0.00462385 4.61882e-22)
(1.15461 -0.000784508 -2.19619e-21)
(1.15754 -0.00210404 -2.2411e-20)
(1.15711 0.00189625 1.55117e-20)
(0.993471 -0.00588896 1.17026e-21)
(0.993296 -0.00554184 0)
(1.1567 0.0213155 -1.25498e-20)
(1.16066 0.023419 -2.11631e-20)
(-0.083903 -0.0311123 -1.72244e-21)
(-0.0924776 -0.0288386 4.34715e-20)
(-0.115406 -0.0247119 3.78441e-20)
(1.08394 0.0538996 -7.15973e-21)
(1.08268 0.0562803 1.87493e-21)
(1.00171 -0.000181753 -8.45145e-24)
(1.00172 -0.000304796 -2.3716e-21)
(0.996756 -0.0183035 2.00772e-21)
(0.996214 -0.0184539 -5.26308e-21)
(1.02788 -0.00510292 -2.94876e-22)
(1.02736 -0.0047691 -3.67437e-22)
(1.01393 -0.00204605 8.13812e-25)
(1.01375 -0.00218408 2.78195e-24)
(1.01369 -0.00192496 -4.44321e-23)
(0.628097 -0.0760768 -1.09185e-19)
(0.550314 -0.0697814 -4.5423e-20)
(1.09297 -0.0985116 1.08169e-21)
(1.09018 -0.0988482 5.96642e-21)
(1.09227 -0.101832 5.54683e-21)
(1.00867 -0.0135226 -1.1761e-22)
(1.00865 -0.0138219 3.8389e-21)
(1.009 -0.0137868 1.74067e-21)
(1.27566 -0.286663 4.55045e-20)
(1.28263 -0.296739 -1.91419e-20)
(1.29332 -0.29042 4.12172e-20)
(0.90865 0.0584343 -4.08522e-21)
(0.961265 0.0515404 0)
(1.05353 -0.0280968 -2.82646e-21)
(1.0546 -0.02824 -9.55358e-21)
(1.05385 -0.0271814 9.56689e-23)
(0.848815 0.140157 5.00408e-22)
(0.894407 0.146571 1.18765e-20)
(0.03016 0.0542227 -2.277e-20)
(0.0413528 -0.0833089 -4.09351e-21)
(-0.105892 -0.00536504 4.93453e-20)
(1.08156 0.0520859 -2.26484e-21)
(1.08492 0.050949 5.91511e-21)
(0.999318 -0.00106027 2.40861e-21)
(0.999286 -0.000974439 -3.09364e-21)
(-0.0339339 -0.0271034 -3.41418e-20)
(-0.0328399 -0.0265711 -1.38162e-20)
(0.0190838 -0.029178 -6.79024e-20)
(0.892753 -0.0798857 -1.71872e-20)
(0.889898 -0.0750359 -3.86581e-20)
(0.895315 -0.0755389 5.40269e-21)
(0.998991 -0.0017775 1.17018e-21)
(0.998959 -0.00195263 4.66195e-22)
(0.998861 -0.0019943 -3.44303e-22)
(0.367874 -0.0623383 5.19095e-20)
(0.274159 -0.0547741 9.46345e-20)
(1.09207 -0.0324478 0)
(1.09058 -0.030969 -2.19223e-20)
(0.889091 -0.0843911 0)
(0.894842 -0.0845137 0)
(1.04837 0.000209435 -1.09778e-21)
(1.04868 0.000844653 7.00106e-23)
(1.04917 0.000136776 -2.2632e-21)
(1.11759 -0.0603756 1.40323e-20)
(1.11473 -0.0600252 1.77516e-20)
(1.11673 -0.0574016 3.20049e-20)
(1.07306 0.0770206 -1.23356e-20)
(1.0731 0.081096 4.04474e-21)
(1.07666 0.0789333 1.89045e-21)
(0.473169 -0.437187 1.99229e-20)
(0.485018 -0.403736 -4.82589e-20)
(1.07065 -0.122531 3.76373e-21)
(1.07075 -0.118639 0)
(0.913357 -0.316932 -5.68398e-21)
(0.921675 -0.327119 -1.3311e-22)
(0.9258 -0.313755 5.1658e-24)
(1.03206 0.000165491 7.7088e-22)
(1.03258 0.000260346 -9.47477e-23)
(1.11447 0.0125369 1.2624e-21)
(1.11369 0.0141507 5.49947e-21)
(1.11266 0.0125851 -9.01136e-21)
(0.99906 -0.00815438 0)
(0.999046 -0.0085422 4.79289e-21)
(0.99923 -0.00826526 4.829e-21)
(1.14659 0.00495471 5.29911e-21)
(1.14697 0.00124696 1.84843e-20)
(1.00227 -0.102443 -1.54929e-21)
(1.00525 -0.100507 -2.51029e-23)
(1.08223 0.0377261 -1.07837e-20)
(1.08065 0.039486 3.41807e-21)
(-0.393377 -0.000660793 9.81991e-21)
(-0.401894 0.00541885 6.38464e-20)
(-0.399115 -0.00265653 -1.01497e-20)
(1.01627 -0.00558441 -7.72828e-22)
(1.01651 -0.00539498 1.05451e-21)
(1.04066 -0.0361152 -1.45123e-21)
(1.04192 -0.0364281 -8.28719e-22)
(1.0409 -0.0372379 -7.96494e-22)
(1.00779 -0.4752 -6.91934e-21)
(1.02764 -0.473142 -9.23992e-21)
(1.02056 -0.497309 4.50676e-21)
(1.04039 -0.0350565 7.74369e-23)
(1.03941 -0.035797 1.19224e-22)
(1.06864 -0.00742992 -7.1474e-22)
(1.06905 -0.00862479 1.20295e-20)
(1.15164 -0.00278024 -2.26363e-21)
(0.602353 0.015402 1.49147e-20)
(0.699487 0.014005 -3.93405e-20)
(0.625495 0.0113698 -4.19863e-20)
(-0.308592 0.023586 0)
(-0.333844 0.0208354 3.08719e-20)
(1.00115 -0.0316143 3.27681e-21)
(1.00183 -0.0312398 -9.63241e-22)
(1.00102 -0.0306978 1.97113e-21)
(1.21779 -0.127876 2.33134e-20)
(1.21218 -0.122762 -4.41928e-22)
(1.21132 -0.130737 -4.32791e-20)
(0.172625 0.142299 1.19605e-20)
(0.100364 0.135347 2.61624e-20)
(0.234597 0.102434 6.53058e-21)
(1.216 -0.494045 2.61498e-20)
(1.20915 -0.47638 4.97713e-21)
(1.00758 -0.0551322 3.56777e-21)
(1.00633 -0.0544263 -2.96045e-21)
(1.00766 -0.0535868 -2.63011e-21)
(1.03116 -0.011188 1.96472e-23)
(1.03177 -0.0115107 2.37759e-22)
(1.0317 -0.0108381 1.70695e-21)
(1.07292 -0.0776782 5.95523e-21)
(1.07496 -0.0776359 0)
(1.07376 -0.0751458 0)
(1.09614 -0.0974211 -5.50462e-21)
(1.09377 -0.0947324 -1.18919e-20)
(1.00255 -0.0314434 -2.77764e-21)
(1.00333 -0.031401 0)
(0.135811 0.157352 9.12015e-21)
(0.17426 0.121667 0)
(1.27058 -0.27732 -4.82979e-20)
(1.26245 -0.283659 6.07613e-20)
(0.632567 0.019994 1.42241e-21)
(0.592851 0.0203022 -3.67778e-21)
(0.618602 0.0197418 -3.78268e-21)
(0.0539903 0.0144338 -3.27772e-21)
(-0.0470465 -0.0337263 0)
(1.0265 -0.00711365 -1.9301e-22)
(1.02692 -0.00687141 -2.64917e-22)
(1.02638 -0.00664969 1.45049e-22)
(1.01744 -0.000426575 -6.00654e-22)
(1.01742 -0.000318965 -5.39974e-22)
(0.983263 -0.226416 -3.67702e-21)
(0.976651 -0.22905 -3.48185e-22)
(0.983123 -0.234669 -5.63282e-21)
(0.0734791 -0.0376303 5.68735e-20)
(0.0752266 -0.0407922 1.30119e-21)
(0.917467 -0.0444042 1.62269e-20)
(0.919473 -0.0412273 -4.41532e-22)
(0.921173 -0.044461 3.7824e-22)
(0.905152 -0.307256 9.34861e-22)
(1.18465 -0.00207589 1.38197e-20)
(1.18161 0.00062382 1.25279e-20)
(1.18057 -0.00372296 -1.58891e-20)
(1.06766 -0.0819391 3.24048e-21)
(1.07019 -0.0822993 -1.18676e-20)
(1.06815 -0.0847534 -1.44478e-20)
(-0.074897 -0.0256128 5.7378e-20)
(1.03873 -0.00927737 0)
(1.03855 -0.00858957 0)
(0.902174 -0.00298198 -7.05e-22)
(0.936681 -0.00686718 2.23173e-21)
(0.886295 0.000673214 -8.54709e-22)
(0.139558 0.0996034 0)
(1.01411 -0.00192689 5.03657e-22)
(1.01409 -0.0016629 -3.02044e-22)
(0.382262 0.0357881 1.75819e-22)
(0.357799 0.0346633 2.15723e-21)
(0.363338 0.0341682 -3.81171e-21)
(0.956495 -0.167005 -5.29881e-21)
(0.959259 -0.172034 -6.94733e-21)
(0.952614 -0.172087 0)
(1.03344 -0.0244116 -2.40864e-22)
(1.03385 -0.023509 -1.08741e-21)
(1.06117 -0.113587 4.48936e-21)
(1.06496 -0.115774 -6.03991e-21)
(1.0645 -0.11082 5.02547e-21)
(1.18498 -0.0500362 5.43589e-21)
(1.18319 -0.0451465 7.80523e-21)
(1.18005 -0.0504089 -5.70045e-20)
(1.05335 -0.00384176 -1.14802e-21)
(1.05318 -0.00307867 -2.53397e-21)
(1.05415 -0.00342608 6.11483e-22)
(0.999092 -0.00160311 -3.81693e-21)
(0.998998 -0.00163057 1.61952e-21)
(-0.282902 -0.00107106 -3.152e-21)
(-0.283176 -0.00295528 1.10118e-20)
(-0.257924 -0.00486056 -1.70399e-20)
(0.654997 0.0165229 4.18797e-21)
(0.684739 0.0167413 8.23925e-22)
(1.00139 -0.0136404 -2.52213e-21)
(1.00164 -0.013897 1.5996e-21)
(1.00133 -0.0140046 -2.32225e-21)
(-0.269133 0.000257774 -8.67558e-21)
(-0.275606 0.00247735 -5.53665e-20)
(-0.275581 0.00547827 -1.05155e-20)
(-0.074342 -0.0233484 1.48626e-20)
(1.25973 -0.171645 2.09349e-21)
(1.26372 -0.165482 0)
(0.997817 -0.00864628 -2.51282e-22)
(0.997707 -0.00898463 -3.54003e-21)
(0.99762 -0.00859384 4.91977e-21)
(1.00295 -8.48196e-05 7.65824e-22)
(0.991291 0.00141785 -1.22586e-21)
(0.98782 0.00373001 -1.15871e-21)
(0.949546 0.00634882 -1.7722e-21)
(1.05237 -0.028063 4.53364e-21)
(1.05306 -0.0292756 2.81251e-21)
(1.02742 -0.0070549 3.6468e-22)
(1.02749 -0.00760821 4.45555e-22)
(1.03175 -0.0127088 3.22198e-22)
(1.0318 -0.0131658 4.59248e-23)
(1.03236 -0.0127756 4.15077e-22)
(0.94617 -0.0150705 -3.77974e-21)
(0.943998 -0.0146799 -4.1766e-21)
(0.94531 -0.0125655 -9.04115e-21)
(1.19991 -0.271693 -8.37279e-22)
(1.20772 -0.276111 -2.72049e-20)
(1.18699 -0.0535953 2.45156e-20)
(1.18971 -0.0485899 4.09893e-20)
(1.07198 -0.0800053 -2.9032e-21)
(1.07059 -0.0775599 3.98056e-21)
(1.08714 -0.0977781 0)
(1.08734 -0.100887 1.29078e-20)
(1.01533 -0.126876 5.14604e-22)
(1.0164 -0.130774 5.1019e-22)
(0.941335 -0.222809 -2.14495e-20)
(0.940625 -0.229622 3.34167e-21)
(1.03154 0.000102391 -8.54311e-23)
(1.03186 -0.00028451 -7.40194e-22)
(0.999987 -0.000334704 -1.01355e-21)
(0.999987 -0.000327649 4.46467e-22)
(1.14119 0.118542 -1.53456e-20)
(1.14022 0.112739 9.47307e-21)
(1.06531 -0.206311 4.31862e-21)
(1.06226 -0.212001 0)
(1.06929 -0.211304 5.73297e-21)
(1.22305 -0.132111 6.57234e-20)
(1.22329 -0.124646 -1.12051e-20)
(0.171923 0.061181 3.94239e-21)
(0.147607 0.0725972 1.86491e-21)
(0.914222 -0.0447503 -5.60777e-21)
(0.916392 -0.0478949 2.6095e-20)
(1.00997 -0.0477317 1.02131e-21)
(1.01117 -0.0482541 0)
(1.00461 -0.000242998 -3.13395e-22)
(1.00511 -0.000238339 0)
(1.00644 -0.000248369 0)
(0.912998 -0.00538929 -5.37151e-22)
(0.868614 0.00177976 3.02327e-21)
(0.409109 0.03621 1.15467e-21)
(0.404561 0.0369739 -8.44396e-22)
(1.02795 -0.0055444 0)
(1.02841 -0.00544144 0)
(1.00485 -0.00799115 1.046e-21)
(1.00509 -0.00799609 2.15457e-21)
(1.00483 -0.00768191 -1.46451e-21)
(1.02791 -0.00594713 0)
(1.02745 -0.00555439 -3.65269e-22)
(0.967224 -0.061925 -4.51439e-21)
(0.965054 -0.0624657 9.28822e-21)
(0.969794 -0.203911 -5.04537e-21)
(0.976919 -0.20199 2.49102e-21)
(1.35002 -0.137455 -2.02246e-20)
(1.3436 -0.145803 -7.29702e-20)
(0.987861 -0.01085 4.71219e-21)
(0.98751 -0.0103082 -5.3228e-21)
(0.966882 -0.0120903 -1.10856e-21)
(0.968204 -0.0122445 -1.14546e-21)
(0.967555 -0.01084 5.60016e-21)
(1.02392 -0.00658287 -4.38179e-23)
(1.02429 -0.00641165 -1.73445e-23)
(1.02384 -0.0061862 4.11267e-23)
(0.608317 -0.537619 -8.7886e-21)
(0.571808 -0.554074 0)
(0.947536 -0.437879 -4.03563e-21)
(0.927102 -0.436 -5.03462e-21)
(1.21265 0.0139726 3.48356e-20)
(1.21769 0.0132659 -2.23843e-20)
(1.21448 0.00882768 -2.17062e-20)
(1.12393 -0.309493 -1.54366e-20)
(1.12025 -0.318837 -1.51589e-20)
(1.13329 -0.315494 8.51509e-21)
(1.05466 -0.0121288 1.61367e-21)
(1.05451 -0.0111565 -5.31932e-21)
(1.05566 -0.0116565 -1.36422e-21)