/*--------------------------------*- C++ -*----------------------------------*\
| =========                 |                                                 |
| \\      /  F ield         | OpenFOAM: The Open Source CFD Toolbox           |
|  \\    /   O peration     | Version:  v2012                                 |
|   \\  /    A nd           | Website:  www.openfoam.com                      |
|    \\/     M anipulation  |                                                 |
\*---------------------------------------------------------------------------*/
FoamFile
{
    version     2.0;
    format      ascii;
    class       volScalarField;
    location    "800";
    object      ddt0(omega);
}
// * * * * * * * * * * * * * * * * * * * * * * * * * * * * * * * * * * * * * //

dimensions      [0 0 -2 0 0 0 0];


internalField   nonuniform List<scalar> 
18355
(
-0.0594687
3.49094e-06
-0.00666742
4.73178e-06
0.00783742
-0.0752837
-3.88173e-05
0.00850022
2.43393e-06
0.150732
-0.000332869
-0.0096729
-0.0097193
0.0201225
2.37845e-06
4.16609e-06
5.13187e-06
-0.000188162
-0.00480881
5.92599e-05
-0.0271747
6.50851e-06
2.50572e-06
-0.0585036
2.35334e-06
-5.76783e-05
-3.87085e-05
5.08018e-06
5.07608e-07
-0.000431265
-0.08734
0.00257828
7.73769e-06
7.07093e-07
-6.03958e-06
3.09411e-05
0.000317392
2.79189e-05
-0.000469864
-2.28067e-05
7.77272e-06
-0.000375795
1.273e-06
3.13513e-06
3.42381e-06
0.0787499
2.67456e-06
2.46674e-06
-0.0671138
5.47092e-06
1.6296e-06
1.12814
1.10787e-05
-0.00634448
4.17862e-06
3.9331e-05
-8.64797e-06
-0.189228
-5.51981e-05
0.281981
1.00426e-06
-0.00632889
-0.00608192
3.30021e-05
0.00396007
7.59279e-07
0.000100951
0.000349019
-4.15585e-07
0.0494449
-4.64837e-06
4.19413e-06
0.00124394
-0.000260813
-0.0197592
-3.69384e-07
-0.261017
-2.71345e-07
-5.069e-06
-0.0232045
8.83512e-05
-0.0266181
-4.18967e-07
0.000148809
0.0023822
9.21494e-06
-3.66722e-06
0.00167801
8.1702e-07
0.00170807
0.640295
-0.220298
-0.0147484
4.03209e-06
-0.361326
3.75678e-05
1.05077e-06
-2.76048e-05
-0.00101062
-6.45277e-07
0.00220194
-1.87597e-06
2.42997e-06
-6.08459e-07
9.48102e-05
4.19426e-06
0.00417887
-0.223887
0.000983783
3.27545e-06
-7.70505e-06
1.33127e-06
8.59272e-06
0.000111475
0.48779
5.36294e-05
-2.31345e-06
-0.0291245
5.32201e-06
8.941e-05
0.00227553
-0.00629806
0.630611
0.00189149
-0.0371259
0.255199
-4.12045e-05
4.65665e-06
-0.0729492
4.06728e-06
8.21021e-07
1.04335
3.50222e-07
-0.00313991
-0.00310096
2.12545e-06
-0.00575522
0.00382704
5.40615e-06
-0.157928
0.000259923
0.0233793
6.68404e-07
0.992763
-0.00324772
7.39348e-06
0.330249
2.97761e-07
-0.000100674
-0.00226847
4.88921e-06
8.36739e-05
-5.13374e-05
0.000539163
1.59163e-06
2.6786e-06
4.27397e-06
9.55441e-06
1.00056e-06
3.0166e-06
-0.000255555
-4.50665e-07
3.43657e-06
0.000484283
-0.000364755
0.106124
0.26687
-1.9869
-0.63724
0.000257585
7.61822e-07
-0.00248426
1.18683e-05
-0.0646003
-8.36663e-06
7.82733e-06
1.41748e-06
-8.18718e-07
4.32857e-05
0.000541563
9.64903e-06
0.0814975
2.66149e-06
4.71357e-06
0.0524806
-2.34284e-07
1.29613e-05
0.00172245
6.78263e-06
-3.89304e-05
0.109291
-0.000921649
4.01858e-06
-2.33017e-07
7.68132e-06
0.652921
9.45254e-07
-1.8313
3.78308e-06
0.224477
-1.42834e-06
-1.29084e-05
-0.000557299
1.16426e-05
-0.135436
6.55171e-06
-0.491725
4.70897e-06
6.2516e-06
-2.4334e-05
-3.55552e-06
0.382104
4.72627e-05
1.26599e-05
4.98079e-07
-0.0569351
0.000536252
0.000190122
5.77452e-06
1.59316e-06
0.000856018
2.66027e-06
0.00147457
-0.000892716
0.00101246
7.76708e-05
2.11311e-06
0.0139664
-0.0308892
0.00102344
1.0315e-05
0.000105032
0.129259
2.63894e-06
0.000200411
-0.00201723
1.45052e-05
0.202033
8.60466e-05
3.36771e-06
4.10715e-06
3.74845e-05
-6.38487e-05
0.000893527
6.05015e-06
4.61301e-06
3.28903e-06
0.314996
0.442726
-1.05983e-05
-3.91742e-05
0.446629
-0.0105656
-0.00107572
-5.90973e-07
0.00529751
9.00272e-05
5.33549e-06
2.24518e-05
2.51217e-06
-0.00472142
-0.15506
-0.000775777
6.8185e-05
-0.000596427
0.000779182
-0.00366307
-0.00114992
2.76305e-06
4.51661e-06
-3.27343e-05
3.16353e-06
-7.75587e-06
0.000180566
4.28814e-06
-1.3506e-06
-0.000301034
2.62813e-06
0.00101239
0.530227
-0.000361505
-4.74203e-06
2.74717e-05
2.82009e-06
0.00162114
6.74117e-06
0.000634566
8.51479e-06
0.000566338
0.0241531
7.54873e-06
-0.000325121
1.61761e-05
-2.65132e-05
-0.00359568
2.85974e-06
1.96025e-08
0.000841443
-2.28956e-06
0.0231309
0.000291864
-0.379254
0.00139415
-0.000847385
-0.000107569
-5.04473e-05
9.36882e-06
7.73374e-05
7.95221e-05
-0.000282963
0.0605983
0.00220581
3.54839e-06
0.000151395
-0.00390579
8.33626e-05
3.28757e-06
2.21497e-06
4.18891e-06
-0.0015037
0.00791333
0.539479
0.0760206
-0.000689228
0.000221507
0.197378
3.51393e-07
6.77857e-06
0.000218738
4.7764e-06
0.00105449
-7.58799e-06
0.242818
4.6956e-06
-0.0596628
7.31182e-06
-1.98735e-05
-9.81059e-05
-0.0105991
-1.98609
0.000951101
0.0592731
-1.59789e-05
7.16796e-07
4.63478e-06
-0.000111299
0.203343
-7.49659e-08
5.25211e-06
0.0724174
-1.06111e-05
3.86368e-07
-0.0101653
-0.000123765
3.67931e-06
1.01976e-06
0.000739802
2.84783e-06
0.000704653
7.86651e-06
5.16374e-06
-6.6538e-07
0.348764
0.0622569
6.13989e-06
9.97679e-07
-0.00133343
4.35706e-06
1.36742e-05
0.26413
0.0557107
-0.000955158
4.11502e-06
1.68659e-05
-0.00987526
6.40422e-05
0.00560782
6.96841e-05
6.64785e-06
-0.000267381
-0.00022127
-3.49578e-07
5.64452e-06
-0.000201046
2.80285e-06
-9.86417e-05
7.63088e-06
0.00836843
-5.29226e-05
7.53237e-05
1.01186e-06
3.84285e-06
1.89945e-05
-3.51653e-05
-0.00318798
0.450176
0.0711491
4.53532e-05
-0.0102872
0.00121938
6.6859e-06
-8.1678e-06
-0.000176005
6.49658e-06
-0.00108208
-3.00565e-05
-0.000467613
0.195732
0.000528427
-1.40403
0.000170559
-9.17804e-07
2.69793
4.41809e-08
4.08904e-06
-0.0370948
7.28961e-06
9.0451e-05
0.000101065
0.00484237
6.56685e-06
-0.00279234
-0.00347487
-0.000558538
2.92151e-06
3.87023e-06
-0.000803984
7.33344e-06
-5.68019e-06
0.141106
-0.0675368
3.96338e-06
-0.000249116
-0.00320943
3.99114e-06
-4.09771e-05
0.000782252
1.86004
0.00104471
-1.20074e-05
1.52133e-05
-4.77226e-05
3.27346e-06
1.42193e-06
-8.66087e-06
0.00229136
0.534938
6.13005e-06
8.39023e-06
6.67304e-06
-0.0109601
-0.000912857
2.16079e-06
6.35784e-06
0.0014548
6.2449e-06
0.917491
-0.00619774
4.25411e-06
2.6835e-06
0.00105505
-0.00648716
-0.11145
5.07593e-06
-1.98193
5.44834e-06
5.5446e-06
0.00156428
2.73186e-05
0.013198
0.00128744
8.41049e-05
-0.000289745
6.9363e-06
-0.0104654
-7.98014e-07
7.44352e-05
-9.29577e-06
3.9819e-06
8.82811e-06
4.35227e-06
-0.00595407
0.696868
0.0047936
-0.000230175
-5.68977e-06
-1.04468e-05
-4.12171e-05
-0.000104125
-5.06963e-05
4.40468e-06
5.82882e-06
0.00150421
4.29445e-06
-6.64391e-05
-5.19239
-0.917289
-0.00390775
4.60615e-06
1.07308e-05
0.000833768
2.68279e-06
-0.00244781
-0.00448377
0.000101647
9.80248e-05
-0.000117531
2.73735e-05
0.000134886
-0.152574
0.00111718
1.3631e-05
0.00499796
1.13641e-06
-3.38498
2.12053
8.77953e-05
-3.58658e-05
-0.222095
4.25667e-06
-0.00232855
0.00263469
-0.0630591
-6.24778e-06
8.43812e-06
6.48098e-06
-0.0168106
-0.0417097
-0.059324
-0.0122703
-5.11688e-05
6.52336e-06
0.000156426
4.80986e-06
0.000114551
-0.13334
0.00807115
0.701248
1.1788
0.000611686
0.0021616
-5.60672e-05
2.95041e-06
2.51873e-06
0.000617507
0.000153111
6.63411e-06
4.99191e-06
-0.0886149
1.38843e-06
1.14132
0.000229585
-0.0047318
-0.00977847
2.35675e-06
9.56414e-05
-0.0616151
5.78719e-06
0.34403
5.76583e-06
-0.461588
0.00117542
8.00111e-06
-0.000201103
-0.00125038
-0.000156825
1.09992e-05
-3.29022e-07
9.05795e-05
9.01163e-05
-0.00462083
6.64869e-06
-0.00635597
1.60435e-06
-0.00495541
-8.15035e-06
2.87056e-06
-0.00638065
0.00015031
-0.00212637
-8.03788e-06
9.76994e-05
0.000253763
0.327565
0.877448
0.000172288
-0.00180682
-1.56483e-06
6.64393e-05
-3.52869e-06
0.000157799
-0.335756
3.15506e-06
0.0762205
-5.4976e-06
1.75021e-06
0.00019255
0.0187901
-5.18877e-05
-0.000350809
3.6875e-05
-0.000287621
-0.00173486
8.40809e-07
3.49267e-06
-0.172648
0.00170307
-0.750395
0.00169563
-1.33856e-05
5.4007e-06
-5.46879e-06
-0.00027079
-2.52639e-05
5.05145e-05
-0.0130274
0.624976
2.81697e-06
1.27361
1.6747
-0.0002835
-0.00332933
1.59852e-06
-0.0411001
-0.00631107
4.08001e-07
-0.00219276
-6.55775e-05
2.99663
0.353825
2.04027e-06
-8.91058e-06
1.20237e-05
0.079614
-0.00145206
5.03101e-06
1.16471e-05
-0.0142028
2.44097e-06
-0.000252135
-8.79378e-06
-9.04225e-05
2.95681
-0.0159057
-0.0222053
-0.0520035
0.00181804
-0.217903
0.000104037
3.85268e-07
8.28424e-05
0.313901
0.000494331
-0.0013144
2.95236e-06
-0.0236025
6.58715e-06
-1.70111e-05
-0.0343206
1.30667e-05
0.000204097
-0.00243754
0.00139695
3.60571e-06
6.13648e-06
0.000183212
0.00010117
3.77657e-06
-5.45538e-05
-0.000181125
-0.00469839
7.82624e-05
7.28907e-07
0.00169322
-0.00470714
5.72031e-06
-0.0527564
0.746987
6.2707e-06
-0.551372
3.31304e-06
-0.00653154
5.93212e-06
9.20606e-05
-0.00620858
-1.37959e-05
1.86889
6.95842e-05
6.149e-06
-0.342898
5.70685e-06
2.82367e-06
5.60133e-06
3.04966e-07
0.000170172
0.00148932
-0.762618
6.19183e-06
0.390727
-8.26184e-05
-0.0312869
0.656692
-4.22594e-05
4.28803e-06
0.000105153
1.44648e-05
-0.00894667
1.88548e-06
1.75528e-06
-2.14069e-06
3.46815e-06
5.83315e-06
0.00017657
-0.000302123
-0.000334315
5.77299e-05
0.000148451
-0.000215287
0.000146321
-0.117514
4.23518e-06
-0.00604587
0.00200739
2.00233e-06
0.202156
3.25828
1.93463e-06
-0.0221846
-4.05446e-06
0.114327
-0.000267391
-2.23575e-07
5.55074e-05
5.01185e-05
-0.0312467
1.94178e-06
7.6519e-05
0.00504242
0.000668715
0.131568
5.87815e-06
-0.141038
-0.00500872
-0.0391886
6.57982e-06
6.56198e-05
6.73262e-06
-1.20101e-06
3.96392e-06
-6.50065e-06
3.22673e-06
-0.0187542
-5.15334e-06
1.98327e-06
5.6224e-07
-7.06768e-06
-1.27308e-05
0.0010802
-0.00522488
6.59488e-06
9.27892e-05
-6.27017e-06
-5.73771e-06
1.06875e-06
1.18653e-06
0.000713457
1.34728e-07
8.12613e-07
1.13012e-05
4.40281e-06
0.000115237
0.000149402
0.134628
-0.199947
0.000188962
8.946e-07
-0.00867391
1.3785e-06
2.63002e-07
0.000149448
0.0836601
-0.000247957
7.24692e-05
-1.97815e-06
3.94626e-06
-0.000357473
-3.76107e-07
-0.000306699
2.27645e-06
-3.22388e-07
4.55977e-06
6.23715e-05
0.431303
3.43545e-07
5.74976e-06
3.32404e-06
-0.00840798
-0.0897748
0.000155782
-2.60542e-05
0.000460075
0.000268022
0.000467063
-0.040828
1.04829e-05
-0.0397146
6.8962e-06
0.2393
3.90207e-05
6.18317e-06
-3.08603e-06
-0.547537
7.00705e-06
0.000148218
-0.00167755
-0.00777758
0.00162632
-2.89476e-06
1.98028e-06
-5.56043e-06
5.41231e-06
5.1316e-05
-0.00473348
0.00436294
0.000447626
3.06659e-06
-4.10226e-07
-1.02112e-05
4.91605e-06
-3.97166e-07
9.99819e-06
-0.000332128
-0.000121849
0.245455
2.71059e-06
5.0795e-06
-4.09771e-05
5.18395e-06
-0.00854317
0.000338163
0.00178417
-0.0101944
0.288426
-0.000778251
1.95109e-06
-5.24592e-07
7.41711e-06
5.40026e-06
0.0787848
-0.00128299
-0.00850084
5.84788e-06
5.01474e-06
-9.61387e-05
-1.35371e-07
-0.0263148
-0.0513494
-1.40007e-07
8.42803e-06
8.66601e-06
4.52524e-06
-5.60725e-07
2.92932e-06
0.0108138
1.07557e-06
2.1931e-05
4.92561e-06
1.06068e-06
3.88085e-06
-1.07411e-06
-0.000193036
1.02733e-06
0.000166149
-2.37566e-06
0.073651
-0.00258487
-0.000103254
0.00593771
-0.000157542
1.13605e-05
-0.00310046
0.0446486
6.74009e-06
4.45492e-06
2.25913e-06
-0.000599824
1.19809e-05
-0.000802129
0.0373915
-2.25372e-06
-3.2004e-06
2.89419e-06
0.138003
0.0625529
8.42891e-06
4.54013e-06
0.000146026
0.00140105
3.56085e-06
-0.000459147
2.43516e-06
2.96324e-06
0.000193133
-0.0608102
-0.0151485
0.128454
-0.0042569
-7.78173e-07
0.00781048
0.00715514
0.000166636
6.05716e-06
0.00625823
0.000100538
-0.0134358
-0.038617
-7.59942e-06
-1.15463e-06
3.30218e-06
4.46304e-05
-8.27458e-07
-0.000895001
0.147779
2.20396e-06
-3.51629e-06
-2.0294e-05
-0.000198814
6.44096e-06
4.27311e-06
0.00112294
-2.38939e-05
3.97859e-05
0.0815745
-0.0040508
-0.00481949
5.51462e-06
4.67252e-06
2.46499e-06
-0.000105402
0.000140209
0.000653482
1.5052e-06
3.3698e-06
0.000111174
-0.267415
2.96064e-06
5.24947e-06
0.000603628
-3.72111e-07
3.45377e-06
6.13342e-06
0.0155515
4.78937e-06
4.77532e-06
3.14807e-06
0.000549271
3.95065e-06
0.000361265
-0.0107695
5.23709e-06
-0.00985624
0.00061132
0.0130298
-0.000272524
4.46338e-06
0.000172555
3.91864e-06
3.63161e-06
4.76795e-06
0.256831
0.0100393
-0.000607775
0.000317414
0.0528552
-0.00372371
-3.32734e-05
-0.00459323
-0.00412461
0.000151718
7.02369e-06
0.740962
1.98167e-05
4.01752e-06
6.46928e-07
0.00720825
0.830828
-0.298018
3.53594e-06
-0.00689309
-0.0178131
0.00012856
-0.000802967
-0.000114043
-9.98653e-05
-0.000162463
0.0872452
-0.000105491
2.0792e-05
-0.000271455
1.91552
0.000647858
6.48435e-06
-1.01653e-06
-8.36342e-06
3.0498
-4.78309e-05
-2.77905e-05
0.148577
0.00035884
-0.000225096
-0.000122313
-0.00148817
2.75276e-06
0.0470742
2.22881e-05
-7.95083e-07
1.3044e-06
-2.50811e-05
1.51758e-06
5.96394e-07
-1.94584e-06
-0.00439258
2.48639e-06
0.0250644
0.000264901
6.25716e-06
6.08976e-06
-0.00391686
6.19434e-06
-5.41711e-06
-2.44156e-05
-0.104567
-0.00466588
-4.23357e-06
6.13827e-06
0.349906
2.68303e-06
0.00154107
5.5207e-06
-0.186085
-0.000748459
0.0044327
0.00036851
-2.82658e-06
0.0185277
1.50377
-0.0600706
7.67786e-07
5.88636e-06
-0.000434881
-0.262037
-7.71383e-07
0.000285387
0.000124378
-0.000382165
1.38173e-06
1.02774e-06
-3.99728e-05
2.26598e-05
6.37098e-06
-7.85016e-05
0.00111795
0.000127542
-0.0113064
0.451328
2.35129e-05
0.0474774
2.94975e-06
-0.00866535
2.72761
-0.00925604
2.20131e-06
2.07431e-05
4.57616e-06
-0.20124
-7.41704e-06
1.83148e-06
-0.00650456
-1.40721e-06
6.24103e-06
4.88057e-06
1.89098e-05
2.19746e-06
1.28452
0.0260317
-0.00218454
3.5075e-06
5.2518e-06
-0.0322662
1.19608e-05
-0.0190322
-4.86079e-06
4.46327e-06
1.42437e-05
0.000150679
0.0280339
0.000139461
4.97951e-06
-0.0354362
-6.44673e-06
9.54128e-06
-0.000427486
3.73736
0.0788002
5.74878e-06
-1.12139e-05
-0.0192207
0.287836
-0.180227
-0.000248426
-0.000132731
-0.00155174
8.66913e-06
0.000720611
-0.000106771
0.138396
-4.01907e-05
4.78757e-06
-7.12837e-06
-6.30696e-06
1.14098
5.76075e-06
2.09423e-07
-0.134219
-7.21205e-05
0.022459
-5.68374e-06
1.69066e-05
3.56222e-06
-7.04148e-07
2.40357e-06
5.15602e-05
2.94932e-06
-1.48174e-05
-5.44879e-06
-2.72546e-06
0.00046685
-0.000409942
0.000169413
8.01067e-06
-0.000172129
5.00656e-06
0.0155024
-3.76276e-06
2.39592e-06
1.13217e-05
4.38776e-06
-1.22184e-05
6.05818e-07
-7.86656e-06
1.13522e-06
-1.73215e-06
3.13622e-06
0.000214151
-0.0760286
-9.48759e-06
1.51987
0.000163348
1.01227e-05
8.04795e-06
2.67215e-05
-0.0306819
3.44443e-05
8.11684e-06
1.93212e-06
9.08419e-07
-0.335718
6.77838e-06
7.05363e-06
-0.0015846
-4.98397e-07
2.54792e-06
-0.000707891
-5.66593e-05
0.00517908
-0.0102077
-1.23357
-3.35036e-06
-0.287568
0.000308431
1.02056e-06
3.35503e-06
0.00018535
3.99812e-06
0.000834569
-0.00060424
-0.000118237
1.12596e-05
-0.00240166
0.000207224
-3.55099
-0.00592519
-0.205202
0.00815808
-2.47471e-05
-0.00366715
-0.617193
1.92977e-06
-0.312248
3.5449e-06
3.58868e-05
-0.00868069
-2.20786e-06
-0.0615817
1.59781e-05
1.99592e-05
-4.89888e-05
0.00539482
6.04731e-06
0.00802327
1.91447e-06
-2.13069e-06
0.000275884
-3.26358e-06
-0.000115275
9.39596e-06
-0.00014435
4.4707e-06
7.44465e-06
2.08491e-05
0.0218355
-9.65803e-06
7.34628e-06
-3.9019e-06
0.000151448
2.34721e-06
3.6111e-05
0.0537936
-1.63241e-06
0.000123377
6.11474e-06
0.000110164
-0.000146084
3.46269e-06
1.15749e-05
-0.00730118
-6.33963e-06
2.97894e-05
0.000119118
0.000237972
-1.27771e-05
4.16058e-06
5.12045e-06
0.000239563
0.00753832
-6.85379e-05
5.32193e-06
-1.67656e-06
7.87977e-07
-1.09887e-06
4.67722e-06
-0.000330462
0.000639862
-0.000456549
-1.14712e-08
0.0636072
4.27627e-06
0.000221975
-0.163821
-0.00121065
3.6791e-06
-0.000530381
0.000252224
5.34402e-06
0.339673
-2.04763e-05
0.00163938
-1.05234e-06
-0.00958736
7.01039e-06
3.62767e-06
3.54722e-06
0.0316358
0.00562623
-6.69e-06
-0.0792953
4.05563e-06
5.40567e-06
3.81647e-06
-0.0101316
2.14413e-06
2.06913e-06
0.00047591
1.19366e-05
4.25039e-06
-6.41217e-07
2.26193e-06
2.63248e-05
-4.1464e-06
3.10509e-06
-0.000161722
-3.1213e-06
-0.0319002
-0.00242447
-1.53328e-06
0.121325
0.000258307
4.01044e-07
4.90167e-06
9.95682e-06
-2.17508e-06
0.000227325
0.00010519
-0.0151132
-0.00488137
-9.89631e-06
-0.00497257
-0.0104874
9.66608e-07
-3.72479e-05
-0.00503689
0.000116228
-0.00141852
4.05476e-06
3.52964e-05
0.000156555
0.0002899
1.49804e-05
0.000124517
3.68735e-06
0.000203723
5.74747e-06
0.000141459
-3.63697e-05
-0.00742628
1.7834e-06
8.43458e-05
0.000354532
-1.36533e-05
-0.0258906
0.00271758
-1.40426e-05
-0.00020006
0.000690292
-9.51432e-06
0.00438121
-5.60108e-07
0.000824823
0.0529213
0.79978
0.000647589
0.000197343
0.000173237
8.90563e-06
0.000922694
4.29859e-06
0.607116
0.000498317
1.63623e-06
7.27644e-07
0.155368
0.00140211
1.60943e-06
1.36301e-06
2.5287
1.72905e-06
1.94935e-06
-0.24986
-0.0020529
1.55979e-06
-0.0163234
3.95694e-09
0.00959408
-0.0021874
3.40787e-06
4.95988e-06
-9.58158e-05
-0.150508
4.26571e-06
0.000395725
4.613e-06
3.92823e-06
1.83615e-06
0.462468
7.12347e-06
-1.04715e-05
1.28186e-05
-0.0124116
0.00041674
4.50569e-06
-3.21957e-06
-0.00826359
2.6337e-06
2.5316e-06
-0.706774
0.275652
1.12143e-05
0.0932225
-1.54088e-05
-0.00132808
7.31217e-05
-0.00172439
-0.354566
6.83191e-05
-0.00036106
7.14623e-06
0.000192733
1.18292e-06
0.071776
0.00554513
1.39186e-06
-3.68825e-06
-2.27849e-07
-3.73603e-06
0.0130411
1.20744e-06
-7.28508e-05
5.67906e-05
-0.00393664
4.52315e-06
4.62246e-06
0.000106086
-0.352587
3.25984e-06
-1.30301e-05
1.9162e-06
3.04026e-06
0.000169939
-0.00127267
5.54842e-06
4.13557e-06
-1.12741e-05
1.00473e-06
6.51942e-06
3.52363
-1.36989e-05
-7.47601e-06
4.80604e-06
-0.00260615
1.66445e-06
2.47958e-06
0.00094036
9.67728e-06
0.00237542
7.62542e-06
5.99718e-06
0.0769962
-0.341164
-0.193145
0.0115684
-1.0717e-05
-3.41889e-05
0.789241
7.37444e-06
8.23746e-05
3.1812e-06
-0.246201
-6.34353e-07
0.000182052
4.177e-06
0.852904
0.00168612
0.00217339
0.355298
-1.56278e-05
0.00523552
8.95606e-06
-2.58543e-05
-0.000204799
0.000201382
3.63075e-06
9.57549e-09
0.000134272
0.000159474
5.06852e-06
-1.11711e-05
7.95201e-06
-1.3304e-05
-0.00816848
-0.00620181
7.21182e-06
8.05585e-06
3.00845
-0.0191855
0.000123071
2.54239e-05
8.61126e-05
8.58727e-05
4.46881e-06
-6.43293e-05
0.0154524
2.21844e-06
-2.80865e-07
4.91393e-06
0.0174373
-0.0014366
0.000310096
8.17631e-07
-1.57066e-05
0.000405445
5.8575e-06
-1.40467e-05
0.00187966
0.0148435
-1.4307e-05
-0.051406
2.52361e-06
1.67996e-06
7.62218e-06
-1.9546e-05
1.42986e-06
1.03417e-06
0.0109565
4.95334e-06
-0.0445804
-4.36821e-05
2.53943e-06
2.50221e-06
-0.00310015
-3.72376e-05
-0.00099516
0.00178227
-1.35442e-06
-0.0109067
0.000519849
2.05245e-06
-5.58798e-08
-0.181392
-0.00722022
1.32282e-06
4.0331e-06
8.33096e-06
-8.21153e-05
-0.00864647
0.0107653
0.000387861
4.5323e-05
-0.0105322
1.40418
3.60816e-06
5.30494e-06
-0.00195364
0.000136108
0.0577969
-0.000156813
3.25788e-06
-0.00211875
0.00205937
-0.374893
0.00339045
-0.0416712
1.74583e-06
3.57827e-06
9.3134e-06
4.90787e-06
0.000144412
3.15832e-06
5.94478e-06
2.95278e-06
2.55168e-05
-8.41436e-05
1.4922e-05
2.39061e-05
6.39424e-05
-1.4154e-05
5.53319e-06
3.53411e-06
-0.000621615
0.000584691
2.28336e-06
3.25053e-06
-0.0054749
7.74061e-05
7.35397e-05
-4.08343e-05
0.411142
2.31946e-06
-0.000330303
9.37441e-05
7.95989e-07
1.18595e-05
0.0445674
-0.151956
6.61183e-05
-0.00018697
-4.87154e-05
0.00148665
1.56223e-06
0.000466017
-0.00015668
5.35726e-06
-0.00518806
4.24172e-07
6.263e-06
3.52819e-05
3.49688e-05
0.000203279
0.000430239
-0.0165243
-0.00195797
-2.64671e-08
8.0835e-06
-6.62659e-06
-0.000116179
1.56809e-05
-0.135243
2.13293e-06
6.04274e-06
6.02478e-06
-0.0040449
6.79517e-07
7.05116e-06
7.43128e-06
-0.0106617
2.47049e-06
-2.29876
2.05079e-06
0.000426368
-2.33658e-05
5.428e-05
4.68839e-06
0.000112879
-0.0269686
-0.0110394
6.43541e-07
-0.000195382
3.58286e-06
1.51197e-06
0.0298446
-0.0510362
2.74773e-08
3.66033e-06
0.0001472
3.201e-06
1.36671e-05
7.7441e-06
6.53137e-06
0.000150486
-0.00181829
1.84999e-05
0.000276189
-0.00925278
-2.0507e-05
4.96571e-06
3.84299e-06
0.000627066
0.000616248
7.8883e-06
-0.302588
8.18535e-06
1.09357
-0.000574019
1.49155e-05
-3.02498e-06
-2.42839e-06
-0.011954
-5.93633e-06
-0.000133434
-4.28587e-06
6.49092e-05
-0.0129517
0.000109451
-0.000169809
5.98135e-06
4.36393e-06
4.02068e-05
9.65929e-07
0.000108349
6.76714e-06
0.000276881
1.69356e-05
-1.99768e-05
-0.104814
0.000153325
0.00240616
4.66433e-06
-0.00116997
-2.60083e-05
-0.0438119
0.000216459
-0.267932
-5.75974e-05
-3.02267e-07
-0.000793245
5.39006e-06
-0.0664587
1.74878e-05
-0.0025736
-3.62925e-05
0.108395
-5.17445
-1.28345e-05
-0.000113284
4.10904e-06
1.37097e-06
7.91256e-06
-1.10319e-05
9.19593e-06
7.20148e-05
3.17883e-06
0.000160505
0.0216348
-0.0392437
1.74653e-07
0.00825274
1.88734e-06
2.242e-06
-7.71443e-06
-0.0073881
7.71824e-06
0.210244
1.41127e-07
3.11966e-05
-0.00256859
8.51586e-07
-0.000138339
-1.7444e-06
-9.48529e-05
-0.273661
0.000295627
2.22946
-5.87362e-05
0.000482551
8.06241e-05
4.15424e-06
4.00895e-05
0.000294214
-1.4747e-05
3.82117e-06
4.991e-05
6.30563e-06
-0.0571914
3.10008e-06
0.757084
-0.00446747
-0.00018405
2.47268e-05
-0.00965096
0.000192101
-1.34051e-05
0.147016
2.46045e-06
0.0119986
-5.35274e-06
4.95716e-05
0.0111049
0.0138079
0.000419992
2.02206
6.71368e-06
-0.000707856
-9.5898e-07
-0.143928
3.46493e-06
-5.2541e-05
-0.00202362
0.000103755
3.47444e-06
3.71274e-06
8.64342e-06
-0.000860226
-0.176602
0.00132411
-0.190083
-4.18029e-06
0.507157
4.70938e-06
3.03672e-05
8.20646e-06
-5.15306e-06
-0.0194398
1.63371e-05
2.72859e-08
-0.000565279
6.27898e-06
0.0667312
0.000209669
3.70367e-06
0.020854
0.000852292
3.2952e-06
6.52645e-06
-6.00063e-05
-5.66549e-07
-0.00241751
0.000729643
-7.08106e-05
1.16201e-05
3.97321e-06
-5.54484e-06
-0.00263888
-2.74418e-05
6.53865e-06
2.57819e-05
-1.03367e-05
-2.2032e-06
-5.09322
0.000106298
0.588761
0.00034423
-0.00218128
-0.000293335
4.41672e-06
0.000324896
4.24247e-05
4.33438e-06
0.0468472
-1.70026e-05
0.00020016
0.000545918
-0.000196903
0.237361
-0.427183
2.87511e-05
0.000221098
-0.00695435
3.66318
-3.67501e-07
1.56674e-05
-2.47355e-05
-0.000246606
-0.192357
0.0004021
0.000130378
-1.88391e-05
4.18149e-06
2.1219e-05
0.0742361
-0.000141478
-1.54567e-05
-0.126519
2.98391e-06
-5.4878e-05
-0.000152664
7.90478e-06
2.4559e-06
1.99715e-05
-0.00240109
-0.00341725
-2.04062e-05
2.84605e-05
0.547732
1.30137e-05
6.97841e-06
-2.49607e-05
8.02379e-06
0.0264106
-0.142237
0.166337
-0.00166213
0.52212
-4.35841e-05
1.87511e-06
0.0218337
-6.19152e-05
-3.73663e-05
1.03426e-05
3.9432e-06
0.0578967
0.00174432
5.06585e-06
3.83054e-06
0.000515989
-0.0498461
6.23227e-05
-3.06851e-06
0.734764
7.41671e-05
-0.000160347
3.07318e-06
-0.00028417
-4.81749e-07
3.12484e-05
-0.000107779
3.95607e-06
-0.246053
1.63525e-05
0.000930013
-0.00200469
-0.0246964
-0.000690239
4.24431e-06
-0.00276859
0.000132261
0.000154846
0.000104813
-0.000135866
3.48109e-06
-3.15536e-05
0.0527852
4.71789e-05
0.0465095
4.26843e-06
0.0196327
2.84423e-08
1.35895e-05
-0.00214229
0.000165886
0.0116972
-0.000111284
1.75195e-05
-0.107612
0.399358
1.27808e-06
-0.014778
0.00110291
3.70411e-06
-6.38027e-07
-0.180197
-0.022867
1.02838e-05
1.71173e-06
-7.26671e-06
-2.96e-06
0.407896
1.04427
-8.70755e-07
-3.69332e-06
1.61975e-06
0.015536
-0.00157049
0.0136431
3.32359e-06
1.25731
5.2123e-06
0.00111488
1.43975
9.09846e-06
3.2888e-06
1.80643e-05
0.01915
-1.22264e-06
5.86364e-06
-3.22575e-06
3.2847e-05
0.000119005
-1.07195
0.000178854
-6.67899e-06
2.74187e-06
0.000124461
-0.00539048
-0.000188897
4.34505e-06
8.01426e-06
-0.0102953
-0.00140246
3.90311e-05
0.41312
-0.000644904
-3.48959e-05
-0.0271418
5.06795e-05
7.77267e-05
9.48729e-06
0.0710955
3.01507e-08
6.90122e-06
-0.0237356
0.000174933
5.43262e-06
6.82688e-06
7.1634e-08
-0.0008869
-0.00295905
1.73455e-06
1.45735e-06
-3.88502e-05
-0.00407261
-0.000170825
1.61718e-06
2.90168e-06
2.44053e-06
-0.000155165
-0.000878116
1.11814e-05
1.22944e-05
-0.00685353
4.63725e-06
1.90085
0.00083067
0.00120427
-5.51729e-05
0.00010599
4.31234e-06
-0.0190422
-0.000774089
-0.00427157
-0.495575
0.000748692
1.14974e-06
-0.00200691
2.35484e-06
-0.00522732
0.0608059
5.08807e-05
3.98775e-06
0.000145678
-0.00418273
1.3956e-06
2.02501e-05
0.00758739
4.03661e-06
0.000342834
6.20993e-05
1.55757e-05
8.09002e-06
0.00238619
-0.00971599
-2.02564e-06
5.17648e-06
0.0924354
1.47913e-06
1.48534e-05
4.72459e-06
4.1828e-06
-0.142405
-0.00219772
-2.03966e-05
2.43946e-06
1.64092e-05
-2.42232e-05
1.14424e-05
-0.00830262
0.000290116
0.000141416
0.000300946
-2.37465e-05
-0.666816
1.77177e-06
2.09827e-06
1.10739e-05
4.94342e-06
5.24356e-06
-1.99883e-06
6.16739e-05
0.0228042
3.74413e-06
4.69557e-06
-4.59597e-06
2.17498e-06
-0.143769
8.24596e-06
0.509757
-0.00921788
0.0016213
0.000270998
0.0669185
4.6596e-06
6.31612e-06
-0.000156329
3.78314e-06
-4.97227e-05
0.000247973
-1.53417e-05
0.0057671
1.78936e-07
2.83884e-06
0.000577921
-0.0100581
8.76206e-06
2.12452e-06
-0.00746766
-6.01844e-05
0.003566
6.23462e-06
1.75792e-06
-5.21537e-06
-1.47424
-6.65579e-06
-0.00433793
-0.000369882
0.000253425
2.30711e-06
2.27712e-05
0.000154178
-0.1931
-2.56723e-06
-8.48471e-05
4.46257e-06
0.93874
0.00926956
5.20671e-05
-0.00677554
6.21582e-06
-2.99031e-05
0.000145865
0.292655
-0.00240989
-0.000278515
-6.23165e-05
-0.0795398
-9.65654e-06
-0.00145339
5.0067e-06
0.0345032
-0.00926062
-0.00592919
1.19382e-05
5.62288e-06
-0.00895417
-0.00712792
-8.92306e-05
0.000155312
0.00223361
0.0406661
4.8511e-06
-0.00245865
6.2993e-06
-5.88351e-05
-3.26563e-06
5.33091e-07
1.3168e-06
-0.0305971
-8.23476e-06
6.31575e-06
-0.00158645
0.0383575
-0.014604
-0.010239
-0.00194524
4.45049e-06
0.00203941
-0.00176769
-2.042e-06
3.98449e-06
0.0648001
-8.49826e-06
4.66695e-06
5.46105e-06
0.00177047
3.32979e-06
3.80443e-06
0.323626
3.65446e-06
6.95796e-06
5.36273e-06
5.68555e-06
4.54408e-05
-1.73736e-06
-0.0121365
0.000426257
-9.82296e-05
1.90714e-05
-0.000230927
2.20906
5.9653e-06
1.42506e-05
-0.124261
-0.0081563
6.39619e-06
0.000117156
3.52139e-06
3.04114e-06
0.00496626
-0.00941971
2.84104e-06
2.26502e-05
-0.0620516
-0.0177381
0.405902
-0.00230054
2.5888e-05
0.210325
2.56787e-06
0.000133014
0.000150239
1.97044e-05
0.0118798
0.174033
7.73632e-05
-0.00236283
-0.421562
6.41118e-07
-2.19858e-06
-8.89828e-05
0.00131936
0.138271
-6.47522e-07
0.00168773
-0.350859
2.9114
5.76592e-06
4.3633e-05
0.161036
1.80445e-05
6.60612e-05
0.0138419
2.07543e-06
1.72658e-06
-3.14697e-05
0.208755
2.85016e-06
-1.49932e-05
-2.12868e-05
-0.0102323
-0.000238615
-0.122903
5.79486e-06
3.85526e-06
-0.000335265
3.05057e-06
0.000189691
5.27094e-05
-0.00762432
-0.00974506
4.46244e-06
-3.99013e-07
0.00910501
3.13376
0.504136
3.61091e-06
6.78722e-06
-1.60994e-06
8.12198e-06
2.86762e-06
4.86589e-06
0.000147881
7.52568e-06
-2.89136e-06
4.12674e-06
0.000988599
4.15091e-05
0.000145118
0.457131
-0.0019732
-0.00121556
-0.000162757
-0.000810534
-0.00807178
0.00025114
0.000168911
-3.7416e-05
5.19108e-06
0.299322
3.07632e-05
2.56455e-07
9.27521e-06
-0.16249
5.52079e-06
-0.253556
-1.51451e-05
2.50743e-06
0.0025334
5.74338e-06
3.04339e-06
5.79002e-06
0.00125413
-0.00852932
1.47914e-05
1.61415e-05
5.59483e-05
-1.26605
-0.00134233
0.0622819
9.8959e-06
-0.000920212
1.87884e-05
3.34192e-06
-1.40647e-06
3.38441e-06
6.7909e-06
8.01381e-05
0.0117498
0.000170288
-6.30012e-05
-0.00827014
0.0717386
-0.00983356
9.06258e-07
-0.003903
-0.000232235
-0.658741
2.63665e-06
4.15562e-05
-0.000188313
-0.0293
-1.57475e-06
-6.41307e-07
3.42895e-06
-1.0748e-06
-0.00998844
4.52729e-06
0.00169187
6.64081e-05
-1.39358e-06
-0.000315007
5.0479e-06
-0.119816
6.35738e-06
-0.000702401
5.35224e-06
0.000355597
1.44057e-05
-0.00173757
0.0516756
5.32864e-06
-9.67771e-05
0.103883
4.51351e-06
-1.78203e-06
-0.000729461
-1.84192e-06
-0.0395815
-0.00282577
-1.1644e-05
-0.00222408
5.85397e-07
-0.000180186
-3.96666e-06
-7.2526e-06
-6.77984e-07
2.51788e-05
-2.73449e-06
3.53691e-06
7.9028e-06
-4.32559e-05
-0.00114433
-3.0565e-06
-0.00327416
5.70528e-06
7.33074e-07
0.000165856
0.000707748
-4.34689e-07
-1.50466e-06
2.38375e-06
2.81675e-06
0.000543397
-0.476944
-0.00021432
1.47754e-05
1.38452e-05
4.10991e-06
0.000322806
8.90444e-07
7.80608e-06
0.823771
0.0882011
-0.00142254
5.75187e-06
-2.89869e-05
2.42572e-05
-1.82613e-06
-0.00130753
2.10909e-06
-0.0127551
1.71986e-05
-0.00744374
0.000321747
0.826952
1.237e-05
-0.000359138
0.415327
0.0218661
-0.0493634
0.000237682
0.000119113
1.95618
1.26939e-05
-0.000357047
1.96387
-0.000249526
3.63223e-06
3.02652e-06
0.000104448
0.00362399
-1.74033e-06
5.63897e-05
0.0175675
-7.36622e-07
3.80514e-06
1.27582
0.3612
-0.00729169
-0.0496143
0.000973592
2.63117e-05
0.00270859
4.69148e-05
6.57636e-05
0.000118686
2.26035e-06
-0.594837
0.000445707
8.27359e-05
-8.96674e-06
-7.76372e-05
4.39529e-05
6.67237e-06
-3.52097
-1.24708e-06
2.5517e-06
5.71284e-06
0.0239416
-0.978829
-0.003269
-1.15592e-05
-4.9595e-05
7.34155e-06
1.93856
2.08478e-06
4.14115e-07
0.000120766
0.00196244
3.25531e-06
-0.00260724
2.53721
0.0201472
2.36513e-05
0.0509778
-2.67395e-05
-0.151007
-6.49926e-07
0.0106201
0.000383832
-0.0039571
5.74856e-06
0.225401
-0.00388958
-3.01351e-05
9.37072e-05
-0.00752773
-3.79166e-05
4.50019e-06
3.5104e-06
-0.000279546
-4.63577e-05
-0.24291
-1.50054e-06
-4.73885e-06
4.91442e-06
5.80078e-06
0.0241747
3.91625e-06
2.21823e-06
-1.13828e-05
0.0627176
0.000266303
-0.00174882
-7.83892e-06
4.23841e-05
-0.0029838
1.07456e-05
5.6073e-06
-2.2276e-05
-0.000900105
2.15812e-06
0.00167695
7.30821e-05
-0.124922
3.90342e-06
0.0082513
0.00047289
1.8194e-06
1.29629e-06
2.04536e-06
2.47938e-06
5.17265e-06
-0.582877
-9.24298e-05
-4.41088e-06
6.32105e-06
4.84191e-06
4.20981e-06
0.000188005
0.0251825
9.23952e-05
-0.000876076
-1.49798e-05
-0.0915157
-8.2056e-06
0.000687227
5.16932e-06
4.26152e-06
-0.000152483
2.74686e-06
-1.89821e-06
-5.21714e-06
4.07846e-05
1.85247
6.57787e-06
3.7276e-06
0.0135394
-0.00753181
0.00535903
0.000348487
4.50992e-07
0.000159325
0.328034
9.9744e-05
8.38666e-06
1.70135e-05
-0.62961
7.7057e-06
-9.18755e-06
-0.00157781
6.64059e-06
0.000197573
-3.2761e-06
6.70617e-06
-2.21794e-06
-0.00113579
-0.000128476
2.57433e-06
3.08005e-06
-1.60957e-05
1.77629e-06
0.294106
-1.63375e-06
5.85659e-06
-7.02859e-07