/*--------------------------------*- C++ -*----------------------------------*\
| =========                 |                                                 |
| \\      /  F ield         | OpenFOAM: The Open Source CFD Toolbox           |
|  \\    /   O peration     | Version:  v2012                                 |
|   \\  /    A nd           | Website:  www.openfoam.com                      |
|    \\/     M anipulation  |                                                 |
\*---------------------------------------------------------------------------*/
FoamFile
{
    version     2.0;
    format      ascii;
    class       surfaceScalarField;
    location    "800";
    object      meshPhiCN_0;
}
// * * * * * * * * * * * * * * * * * * * * * * * * * * * * * * * * * * * * * //

dimensions      [0 3 -1 0 0 0 0];
oriented        oriented;


internalField   nonuniform List<scalar> 
27284
(
0.000300693
-0.000497707
0.000197196
-0.000250989
0.000230357
2.83168e-05
0.000178043
0.000149471
-0.000327453
-0.000161483
0.00025535
-7.49904e-05
2.82929e-05
0.000528973
-0.000554854
-0.000552406
-0.00015614
0.000710302
0.000342435
-0.000545768
0.000207005
0.000551676
-0.00052098
-3.99701e-05
5.38686e-05
6.92069e-07
0.000376266
-0.00044272
6.78638e-05
0.000814888
-0.000276461
-0.000536487
0.000309919
-0.000150241
-0.000159626
0.000109514
0.000200452
0.000217602
0.000396314
-0.000613105
-9.27921e-05
9.1428e-05
1.68972e-05
0.000135666
-0.000183205
5.30091e-05
-0.000217007
7.80428e-05
-0.000165368
0.000683519
-0.000516064
0.000191984
0.000199651
-0.000391522
0.000320721
0.000181226
-0.000498403
0.000249138
-0.000559539
0.000310663
0.000138835
-0.000656428
0.000522026
-9.13423e-05
0.000184166
-8.20261e-05
0.000134824
-0.000685701
6.84299e-05
-0.000150212
0.000497515
-0.00068052
0.00018761
0.000144938
0.000435862
-0.000574511
-0.000414357
4.54206e-05
0.000387275
-2.94402e-05
2.77756e-06
0.000763489
-0.000298006
-0.000464083
0.000305294
0.000258783
-0.000563918
0.00022018
-0.000619853
0.000400288
-0.000171934
-2.42803e-05
0.000199965
0.000101094
9.09197e-06
-0.000105644
4.67339e-07
3.97944e-07
-5.40209e-07
0.000424327
-0.000576101
0.000154372
0.000280159
0.000209215
-0.000488777
-5.97571e-05
0.00048628
0.000262962
0.000502111
-0.000677499
0.000588929
9.12834e-05
5.02533e-05
5.56969e-05
-6.8217e-05
0.000518371
1.70139e-05
0.000105259
-0.000117685
0.000205803
-0.000249655
5.17335e-05
-3.72146e-05
0.000201593
-0.00025755
5.5978e-05
-0.000406236
-5.93183e-05
0.000477191
5.38809e-05
-0.000448397
-0.000371842
0.00067925
-0.000110861
-0.000560361
2.94164e-05
-1.45141e-05
-1.01796e-05
0.000317102
-0.000521183
0.000204163
0.000559508
0.000127657
-0.000232648
0.000416556
-0.000183762
0.00066701
-0.000206188
-0.000445679
-0.000210176
0.000534836
8.30834e-06
-3.73641e-06
-2.51296e-06
-0.000586812
0.000683095
-0.000181227
-0.000239712
8.41431e-05
0.000155579
0.000122761
0.000137454
0.000176707
-0.000314059
-0.000454631
0.00022218
0.000302534
-0.000101424
-0.000198299
2.56692e-06
0.000421664
-0.000423653
-2.79995e-05
2.58928e-05
7.08962e-06
-0.000100071
-0.000366642
0.000467933
-0.000101616
0.000382294
9.02116e-05
1.31395e-05
-9.94768e-05
-0.000728516
0.000488675
0.000241395
-0.000410532
0.000533284
-0.000115773
0.000329897
0.000348573
-0.000106189
0.000572994
-0.000465834
0.000711186
-0.000176398
-0.000533046
-7.26628e-05
0.000498703
-0.00042419
0.000101614
1.59737e-05
-0.0001134
-0.000516407
-7.02804e-05
-8.91792e-06
0.000114812
-0.000500814
9.65725e-05
0.000448663
-0.00051936
0.000416326
-0.000515069
-0.000422416
0.000602252
-0.000178137
0.000110119
-0.000458782
-4.07806e-05
0.000500884
-0.000582741
0.000250534
0.0003327
1.78697e-05
6.50806e-06
-1.57927e-05
0.000104937
-4.65404e-05
-3.28548e-05
0.00013457
-0.000466149
0.000332127
0.000436573
3.68305e-05
-0.000462339
-0.000355943
0.000491106
-6.45732e-05
-0.000464908
0.000679872
-0.000457204
-0.000222323
0.000248402
-0.000668571
-0.000619194
0.000515812
0.000770172
-0.000294588
-0.000474638
-0.000309106
0.000115259
0.000196451
0.000425638
-0.000131181
-0.000282149
-9.69399e-05
-0.000209101
-6.0602e-05
0.000353229
-0.00029242
-0.000513863
-5.4728e-05
0.000571616
-0.00037068
-0.000211552
-0.000423326
-6.9774e-05
-0.000109342
-0.000502638
-2.27188e-06
3.33014e-06
-7.44662e-07
-1.0011e-05
0.000472429
-0.000461334
0.000208266
-6.58274e-05
0.000460464
-0.000457267
0.000228127
0.0005425
-0.000572622
0.000291469
0.000281612
5.47929e-06
0.000134093
-0.000134472
6.75525e-06
3.46569e-06
7.97733e-06
-7.18483e-06
3.2574e-06
-7.98605e-05
0.000465625
-0.000384955
4.94894e-05
-0.000506853
0.000236546
-0.000291309
5.47856e-05
0.000577186
-0.000135835
-0.000440263
-0.000528212
0.000112197
-7.86723e-05
0.000529759
-8.91191e-05
0.000558543
-0.000467385
-0.000741897
0.000376781
-0.00032283
-0.000404771
-0.000121297
0.00029939
-0.000609477
-0.000563498
0.000277262
0.000286733
0.000406783
-0.000483276
-0.000229316
0.000202115
2.72196e-05
0.000492448
-0.000162009
-3.285e-05
0.000503626
-0.000202783
-0.000649324
0.00059663
5.64104e-05
0.000116049
0.000321537
0.000619417
-0.000302226
0.000622443
-0.000410445
-0.000204098
-0.000446247
0.000202175
0.000244222
0.000154785
-0.00040001
0.000245423
-0.000375122
-4.29132e-05
0.000427527
0.000384994
-0.000192915
-0.000422313
-0.000181867
0.000605331
-0.000169391
-5.94827e-06
0.000204489
0.000319912
0.000360237
1.28229e-05
-0.000355058
0.000342923
-0.000103815
-0.000448453
0.000554179
0.00038558
-0.000459134
8.44457e-05
-0.000233794
-0.000359319
-0.000297405
0.00045243
-0.000127648
9.05905e-05
6.08759e-05
9.15945e-05
0.000157396
-0.000248979
7.95595e-06
-2.91054e-06
-4.98627e-06
0.000411987
-0.000490915
-8.81279e-06
1.31931e-05
-4.40141e-06
-0.000387643
-7.52941e-06
-0.000296893
-0.000443104
0.000355328
-0.00011052
-0.000241377
0.000103108
0.000427288
-0.000528027
0.00013298
-2.30327e-05
-0.000107248
6.34001e-05
5.41172e-05
3.40439e-05
-0.000173372
-4.16506e-06
2.88194e-05
-2.15445e-07
0.000393604
-4.3048e-05
-5.1151e-05
-0.000634116
0.000138765
0.000497122
0.000178018
0.00045054
0.000112517
-0.000103002
0.000108898
0.000444601
-0.000551153
-0.000686993
0.000175349
0.00051359
-0.00027083
0.000388728
-0.000116509
-0.00011045
0.000202054
-0.000200762
0.000490312
-0.000289392
-0.000373662
-0.000183057
0.000556886
0.00041594
-0.000402307
5.37558e-06
4.51319e-06
-6.25119e-06
-0.00022084
-0.000225239
1.13155e-05
1.03005e-05
-1.37292e-05
0.000281303
-0.000653199
1.95847e-06
2.17838e-06
-2.63838e-06
-4.96921e-05
-4.70235e-05
-3.7748e-06
1.55125e-05
-4.08318e-06
1.90772e-08
4.12826e-06
-0.000642949
0.000333335
0.000311323
-0.000170477
-0.000309751
0.000481131
1.25347e-05
1.2648e-05
-1.61182e-05
-0.000366722
9.7293e-05
0.000554835
4.50129e-05
-0.000596318
-8.37235e-05
0.000419209
-0.000322594
0.000362493
-0.00029968
-6.08166e-05
-0.000605979
0.000503679
-3.14982e-06
-2.72591e-05
4.18366e-05
-0.000126822
0.00050277
-0.000375302
0.000481664
-9.64894e-05
-0.000363032
0.000483023
-4.16726e-05
2.03912e-05
-0.000249687
-0.000336673
0.000276261
0.000299503
-0.000239648
-5.16463e-05
-0.000101515
-1.56578e-05
0.000120266
0.00018076
-0.000215756
7.13233e-05
0.000196015
-0.00030246
0.000106473
2.11794e-05
1.28315e-05
0.000299854
-0.00049613
0.000196391
-2.03746e-05
0.000258622
0.00073819
-0.000519559
-7.083e-05
-0.000529251
9.6334e-05
0.000570148
-0.000663492
0.000747407
-0.000482906
-2.34611e-05
-2.19437e-06
3.5291e-05
-0.00049421
0.000293606
0.000208027
-0.000681502
0.00047848
0.000163596
-0.00053709
0.000277243
-0.000349306
0.000183675
-0.000220496
4.09328e-05
0.000366062
-0.000100079
-0.000262216
0.000544041
-0.000571732
3.22994e-05
-0.000560709
0.000669974
-0.000108319
-0.000387587
0.000108499
0.000282329
-0.00013358
-0.000250804
5.56203e-06
2.55157e-06
-0.000415291
0.000696713
0.000345172
-0.000514693
0.000357984
-0.000416694
5.9494e-05
-0.000737471
0.000210237
0.000532241
-0.000544528
0.000171309
0.000384641
-0.000231583
-0.000340543
8.40266e-05
1.74076e-05
-9.86789e-05
0.000336822
0.000131316
-0.000467406
-3.27269e-05
0.000232412
-0.000197653
-0.000713019
0.000595855
0.000119102
0.00011515
-0.000443806
0.000332072
1.80152e-05
9.29341e-05
-0.000108027
0.000156943
-0.00057815
-0.000272031
0.000554815
-0.000282586
-6.26187e-05
0.000526923
-0.000463399
0.000365879
-0.000428617
6.73669e-05
0.000407264
-3.68571e-05
-0.000181988
0.000219989
0.000104829
-0.000428728
0.000539652
-0.000584442
-0.000125266
0.000648046
-0.000140285
-0.000504811
0.000222002
-7.8526e-05
0.000375305
-0.000296085
-0.000371381
0.000240713
0.000341639
-0.000111372
-0.000222378
-0.000336181
-0.000305492
-0.000113094
-0.000254859
0.000495935
-3.9187e-05
-0.000455994
-0.000524065
0.000631714
-0.000180942
-0.000435763
-5.02351e-05
0.000416311
-0.000353716
-0.000671376
0.000111606
-0.000452307
0.000658019
-0.000204245
-0.000605987
0.000528281
8.40067e-05
0.000102207
0.00020299
0.000219065
-0.000168806
0.000294636
-0.000125775
0.000211615
-0.000242237
-3.20831e-06
-6.54602e-07
-9.65325e-06
0.000225492
-0.000213756
0.000309396
-0.000387251
0.000147588
-0.000131885
1.73214e-05
-0.000354904
0.000473795
0.000115792
0.00025581
-0.000360446
-1.0077e-05
1.27723e-06
-0.000476903
0.000105326
0.000373705
0.000518298
-0.000282402
-0.000235682
-0.000471475
0.000321524
0.000150303
0.000508386
0.000240486
0.000135474
0.000521659
-0.000653696
-9.54286e-05
0.000551796
-0.000453747
-0.000127762
-0.000250416
0.000378377
-0.000237607
0.000364329
0.000439562
4.51494e-05
0.000453626
-0.000494675
-0.000122748
-1.84262e-05
0.000145673
-0.000545858
0.000645027
0.000413913
-5.54076e-05
2.77873e-05
0.000338375
-0.000347815
-3.99636e-06
-0.000514334
0.000522639
0.000874909
-0.000347518
-0.000525639
6.61428e-05
-0.000431545
-0.000471486
0.000252615
0.000219104
-0.000742366
0.000139112
0.000866592
-0.00035479
-0.0005095
-4.09304e-05
0.000588493
0.000664508
-0.000189664
-0.000473675
-0.000137069
1.87249e-05
-0.000504179
0.000351414
0.000153283
0.000533222
8.51772e-05
-0.000612886
-0.000728821
0.000394674
0.000335139
0.000135273
-5.13864e-05
-0.000382556
-9.74172e-06
-1.55337e-06
2.02006e-05
-0.000188467
6.53741e-05
-0.000327683
0.000262534
-0.000488646
0.000527962
-3.72487e-05
-0.00047466
0.000147166
0.000330788
0.00049016
-0.00058314
-2.77006e-05
-4.89411e-05
1.95433e-05
-0.00011806
-0.000210115
-0.000261102
0.000559252
-0.000558602
0.000449877
0.000212117
-0.000484429
0.000272898
-0.000644033
-4.84134e-05
0.000423635
-0.000374818
0.000181823
1.93608e-05
0.000611528
-0.000627967
0.000349058
0.000527476
0.000484489
-0.000565029
8.88176e-05
0.000435928
4.50998e-05
-0.000480349
-0.000226615
-0.000244423
0.000309625
-0.000244033
4.19445e-05
0.000179383
-0.000220188
-9.75545e-05
-0.000171355
0.00026894
-0.000672358
0.000375346
0.00030548
-0.000532118
-0.000120919
0.000654762
0.000262871
-0.000459308
0.000196682
0.000318865
0.000346535
-0.000256149
-0.000406605
0.000469769
-0.00040372
5.41075e-05
0.000355308
-0.000394933
-0.000248299
-0.000118422
0.000366897
-0.000266034
0.000168511
0.000163657
0.000165327
-0.000328952
-0.000167781
0.000210843
0.000520689
-8.26783e-05
-0.000314933
0.000398331
1.43315e-05
0.000464237
-0.000476106
1.11949e-05
-8.96594e-06
-1.82323e-06
-0.000574505
-0.000100757
-0.000436982
-0.000584766
2.10724e-05
0.000572311
0.00043416
-2.90745e-07
1.0347e-06
-0.000427382
-8.77727e-05
0.000516342
3.98315e-06
-0.000178047
0.000179365
0.000698756
-0.000289972
-0.000201754
0.000205275
2.71241e-05
-0.000103643
-0.000570286
-6.28878e-05
-0.000571205
0.000636777
0.000309022
-0.0001332
-0.000175771
-0.000285896
-0.00021262
0.000498648
-0.00045253
0.000414026
4.2575e-05
-0.00020919
0.000657106
-0.000530161
-0.000124166
0.000476379
-2.88505e-05
-3.41274e-05
-0.000541932
-0.000596291
0.000539541
6.02405e-05
3.01616e-05
0.000347736
5.42486e-05
0.000429813
-0.000473406
9.19475e-05
-0.000108365
4.3684e-05
-1.17134e-05
3.18545e-06
8.60061e-06
0.000122697
0.000475851
-0.000596507
-5.13725e-05
-0.000418681
0.000480165
-0.000167268
0.00029936
-0.000132049
-0.000566967
-2.65923e-05
-4.11143e-05
0.000391989
-0.000338583
-0.00052997
7.53618e-05
0.00046061
-5.32401e-05
0.00044876
0.000134434
-4.61482e-05
-5.60806e-05
0.000403232
-0.000455612
-8.98073e-05
-1.77019e-05
0.000109692
-2.4797e-05
0.000137165
-0.000584187
7.39196e-05
-9.81109e-05
-0.000141593
-2.9406e-05
0.000225728
-0.000195031
1.70806e-05
-0.000104706
0.000404429
3.23283e-05
-0.000424329
-0.000681093
0.000556964
0.000127537
-0.000272774
0.000338857
-1.64312e-05
2.18511e-05
8.61311e-07
-7.92201e-05
0.00050019
-0.000419091
0.000194032
-0.000222225
0.000861775
-0.000511014
0.000544524
-0.000547999
1.23317e-05
0.000263416
0.000387088
0.000283191
-0.000173633
0.000409843
-0.000129538
-0.000276854
-0.000228352
0.000220778
0.000461281
-2.47181e-05
-0.000168642
0.000207212
-3.40683e-05
-0.000665905
-1.25722e-05
-0.000344012
0.000583367
-0.000236611
0.00053203
6.5831e-05
-0.000594653
1.89115e-05
-0.000114343
0.000119087
0.000513063
-0.000676541
5.9544e-05
-6.61915e-05
2.39796e-05
-0.000546579
-5.18796e-05
0.000602105
-3.45272e-05
0.000243596
0.000499812
-0.000517145
1.79581e-05
0.000245422
0.000723756
-0.000258944
-0.000463369
-9.94789e-06
-1.31906e-05
0.000325485
-0.000657541
0.000114144
-5.45734e-05
-0.000445142
0.000505389
-5.6895e-06
-0.000250802
0.000256627
-0.000185641
-7.75017e-05
0.000263157
3.70626e-05
0.00018969
7.53484e-05
0.000397306
-0.000468504
-0.000318677
0.000149935
-0.000185825
0.000640434
-0.000450801
-1.33347e-05
-0.00016234
-2.16072e-07
2.16072e-07
0.000495626
-0.000266374
-0.000228974
0.000161954
0.000339504
0.000396923
0.000466329
-0.000343484
-0.00019868
-0.000701014
0.000195336
0.00050738
-0.000372679
0.000388989
-0.000684428
0.000650331
3.51003e-05
0.000209246
-0.000494997
0.000145782
0.00026451
-0.000410076
-2.38496e-06
2.81072e-07
0.000144155
0.000193654
-0.000337787
-0.000598235
0.000546722
-0.00028885
0.00033322
0.000539618
-0.000290205
0.000223501
1.07404e-05
-0.000419157
-0.000243042
-9.83101e-06
4.2664e-06
5.56662e-06
4.76602e-05
0.000413251
0.000275028
-2.88976e-05
-0.000415852
0.000195158
0.000461786
-0.000313146
-0.000147615
0.000513336
-0.000227928
-0.000285184
0.000659368
-0.00049118
-0.000162046
-0.000326794
0.00018738
0.00014567
0.000231128
0.000435618
-0.000522857
0.000350263
8.95567e-05
-0.00043534
-0.000141839
-0.000299321
-0.000361268
-0.000113472
4.0073e-05
-0.000311821
0.000168182
0.000265274
-0.00027082
-0.000119327
-0.000200499
-0.000735941
0.000128695
0.000610102
1.21824e-05
-0.000463948
-0.00045777
-0.000146776
0.00060467
-0.000440356
0.000234565
0.000206101
-0.000466472
0.000591103
0.000652692
-0.000161743
0.00026038
-0.000404566
0.000144464
1.36686e-05
-6.89346e-05
6.96018e-05
0.000145247
2.5537e-05
-0.000167041
-0.000406964
-0.000116915
-8.53762e-05
-0.000253821
6.81937e-05
2.88432e-05
-0.000193055
1.72868e-05
-4.00132e-06
-4.64149e-06
-0.000130721
-2.95228e-05
0.000190047
0.00021734
9.17244e-05
0.000216478
-0.000557471
-2.06852e-05
-9.61907e-05
0.000119685
-0.000651023
0.000235214
-0.000166565
-0.000500219
0.000644626
-0.00013859
-2.18656e-05
0.0002179
-0.000197168
0.000334723
0.000653098
-9.4635e-05
-2.0251e-05
9.41174e-05
-0.000203805
-0.000236223
-0.00021699
-6.77073e-06
0.000223798
0.000376272
0.000204512
-0.000580753
0.000166811
1.23064e-05
-0.000174706
-0.000249888
-0.000258811
0.000508736
-0.00017946
3.84057e-05
0.000200221
-0.000150247
-0.000299302
0.000449868
-0.000574086
0.000111729
0.000464135
-1.03201e-05
0.000510717
0.00044355
-0.000548807
0.000428495
0.00053829
0.000174953
-0.000356441
0.000498485
-0.000311195
0.000143973
9.50441e-05
0.000465533
0.000438197
-0.000197161
-0.000240638
0.000111496
-0.000595329
0.000486424
0.000147455
2.21078e-05
-0.000165506
-0.000682643
0.000350518
0.000334859
0.000163842
-0.000123105
0.000322608
-0.000199409
0.000219939
-0.000297423
0.000459694
-0.000411586
0.000527151
0.000158338
-0.000713676
0.000162281
0.000553122
0.000589869
0.000122473
0.000246878
0.000474106
-0.000452558
9.71883e-05
0.000218124
-0.000312344
1.82062e-05
7.75074e-05
-9.40135e-05
0.000147912
0.000404655
-0.00053768
0.000473872
-0.000122045
0.000229839
-0.000204247
0.000304338
-0.00046314
0.00030231
0.000160874
0.000454015
-0.000154035
-0.00019155
-0.000540257
-0.000105357
1.2879e-05
1.14167e-05
0.000416096
4.32262e-08
-8.36941e-06
-1.47282e-06
-0.000204694
-0.000110202
0.000314946
0.000113872
-0.000643221
-6.01358e-05
0.0005292
-0.000467685
0.000546918
8.84401e-05
-0.000633408
-0.000580901
5.26076e-05
0.000530546
0.000548904
-0.000114701
-0.000433181
0.000139423
-0.000181362
4.1944e-05
-0.000168465
-0.000272335
0.00044144
0.000498839
-0.000687512
0.000193808
0.000198948
3.74539e-05
-0.00023605
7.55927e-05
5.18172e-05
0.000277821
-0.000214356
0.000358533
0.000449348
-0.000406927
-4.17817e-05
-0.00055402
-0.000178638
0.00017292
-3.34921e-05
0.000356988
-1.18567e-06
-0.000192454
-0.000223238
-0.000231138
0.000451752
-0.000148335
-3.72497e-05
0.000186372
0.000564374
-0.000467274
-0.000185452
-0.000493608
-0.0005764
-6.31628e-05
0.000647061
-0.000358248
0.000464318
-0.000104747
-0.000400511
4.0257e-05
-0.000187798
0.00043355
-0.000298898
-0.000133586
0.000644568
-7.17427e-05
1.97119e-05
-0.000588946
0.000449279
-0.00048877
-0.000581601
0.000414614
0.000522397
0.000125395
-0.00064628
-0.00023936
0.000281163
-0.000696204
1.14041e-05
0.000208549
0.000531722
4.43287e-05
-0.000575641
0.00073861
-0.000137154
-0.000598704
-0.000486813
-0.000132075
-6.49869e-05
0.000478269
0.00040815
-0.000456164
-1.09974e-05
0.000458248
-0.000436421
0.000215564
0.000524733
0.000545287
-0.000683165
0.000140169
0.000613789
-7.54722e-05
-0.000148331
-0.000418261
0.000379063
0.000320527
0.000117759
0.000301434
-0.000407293
0.000563916
-3.17668e-05
0.000522519
0.000156836
-0.00067547
9.63087e-05
-0.000306355
0.000210153
0.000149587
0.000133642
-0.000379206
0.000377293
0.000522971
-0.000472023
0.000202394
0.000301368
-0.000334955
0.000496174
-9.99257e-05
-0.000168602
0.000268541
0.00015145
-0.000105866
0.000576224
-0.000147293
-0.000428538
0.000292963
-0.000460721
-5.70721e-05
0.000150714
0.000431118
-0.000494723
0.000225644
-0.000263008
0.000409002
-2.07804e-05
6.71208e-06
-2.06278e-05
0.000106714
-8.26661e-05
0.000263918
0.000140888
-0.000404512
0.00019224
0.000257742
-0.000213535
0.000309953
0.000426446
-0.000330214
-7.60045e-05
-0.000117759
0.000294547
-0.000270311
0.000399376
0.000121484
-0.000326125
-5.27944e-08
-6.08984e-08
-0.000598114
0.00018611
0.000418871
-0.000104632
0.000290251
-0.000185579
-0.000129981
-0.000379041
0.000512641
-0.000666236
8.58829e-05
5.27446e-06
-2.02061e-06
0.000533066
-7.59524e-05
-0.000455847
0.000462939
-0.000143977
-0.000315578
9.3189e-05
-0.00051929
0.00030403
-0.000140351
-0.000588205
0.000244867
0.000344299
3.61228e-05
0.000198187
-6.9539e-06
9.63241e-06
1.31745e-07
0.00038847
-7.16909e-05
0.000589666
-0.000514836
-0.000149332
-0.000437935
-9.11264e-05
-0.000130237
0.00022137
0.000224113
-6.734e-05
-0.000148776
0.000220253
-0.000182161
0.000519517
-0.000610195
9.53161e-05
1.35055e-05
-4.64994e-06
0.000148082
-0.000534108
0.000387128
7.06154e-07
-9.04263e-06
0.000104555
0.000308732
-0.000562466
0.000369609
0.000193207
8.44458e-05
0.000358102
-0.000438731
-0.000174673
0.000323718
-0.000148777
0.000458233
-0.000170867
-0.000286688
8.39353e-06
0.000353542
0.000509208
-0.000334689
-0.000174377
-0.000482128
-5.86627e-05
-0.000404422
-0.000539802
0.000117656
0.000422902
-0.000624322
-2.28013e-05
0.00065107
0.000525669
-9.53118e-05
-0.000415335
0.000196725
0.000344399
0.000486917
-0.000661692
0.000341231
-0.000577182
0.000238535
-7.16794e-06
-2.47433e-06
-0.000150837
0.000462339
-0.000311163
-0.000557975
0.000318276
0.000239721
-0.00045784
-0.000133777
-0.000149239
-0.000476995
0.000626442
-0.000606808
0.000462614
0.000156649
-0.000617694
-0.000120521
0.000301096
-0.000180535
-1.11509e-05
0.000160175
-0.000361215
-0.000136269
-4.5022e-05
0.000186891
-0.000141221
-4.63743e-06
-2.05765e-06
6.86973e-06
0.000310415
0.000148568
0.000465378
-0.000294248
-0.000170828
-4.063e-05
-0.000170288
0.000210935
-0.000421151
0.000515652
-0.000365871
-6.58455e-05
0.000437897
-0.000400519
2.92617e-05
-1.04688e-05
6.72258e-05
0.000297061
0.0001118
-0.000359916
-0.000689508
0.000469172
0.000225138
0.000573766
-0.00047878
-9.25797e-05
0.000303667
-0.00045418
-0.000549634
0.000199241
-5.6868e-05
-0.000410837
0.000473289
-0.00014953
0.000410169
-4.51996e-05
-0.000196065
0.000241285
-0.000479689
0.000122706
0.000389082
5.58322e-05
-0.000442319
-0.000412493
-6.5317e-05
0.000408311
9.49796e-05
-0.000571699
5.54239e-05
0.000464189
0.000345217
9.25084e-05
-0.000426628
0.00052855
-0.000583909
5.67656e-05
9.52081e-05
-0.000514971
0.0004924
-0.000386965
0.00017078
0.000185159
-0.000355755
0.000218845
0.000444626
-0.000463607
0.000191744
1.84761e-05
-0.000119318
0.000710084
-0.000607602
-9.85825e-05
-8.29457e-05
-0.000279931
0.000362929
-1.23448e-05
1.78057e-06
0.000651128
-0.000121306
-0.000105975
-0.000346201
-0.000215916
0.000539741
3.09126e-06
-0.000533778
-0.000121647
-0.000154444
0.000290251
0.000318347
0.000245408
-0.000562577
8.5093e-05
0.000449315
-2.0648e-05
0.000100147
-7.69966e-05
3.16795e-05
0.00020996
-0.000239088
4.70784e-05
0.000477219
-0.00052273
3.11597e-05
0.000385538
-0.000680257
0.000422722
7.84542e-05
-2.56552e-05
-4.0268e-05
-0.000382729
-0.00018031
0.00029151
-0.000549149
0.00066329
-0.000105423
4.47436e-05
-0.000455214
0.0002147
-0.00055678
0.000526078
-0.000341631
-0.000184372
-1.93502e-05
0.000103914
-8.22917e-05
0.000349758
-0.000200228
-0.000305758
0.00053992
-0.000223792
5.83366e-06
-1.50273e-06
0.000170443
-0.000275037
-0.000103964
0.000581112
-0.000475296
-0.000563446
0.000416763
-0.000155706
-0.000522873
-0.000330649
0.000226918
0.000357173
0.000168969
0.000256765
-0.000551889
-0.00012058
-1.1529e-05
7.01574e-05
9.30426e-05
-9.10369e-05
0.000447439
0.000174646
0.000477556
-0.000334147
0.000499469
-0.000290081
1.95234e-05
-2.31139e-05
1.52316e-05
-0.000221548
0.000121635
0.000548592
8.32735e-05
-0.000628219
-0.000420198
0.000467067
-0.000498921
-0.000243177
-0.000516701
0.000648038
0.000518624
0.000454508
-8.51811e-05
-1.41336e-05
0.000101138
-0.000209974
-9.39702e-05
0.000304013
-0.000485208
0.000592573
-9.59592e-05
-0.000120987
0.000146179
-2.04241e-05
0.000121881
2.13938e-05
-0.000140196
-0.000466166
0.000171897
-0.000493162
0.000290014
-0.000127091
-0.000162888
-0.000157523
3.61786e-05
0.000273661
-0.000326484
0.000510773
-0.000666284
0.000547041
-0.000574752
-5.76914e-05
-0.000124053
-0.000367435
0.000495049
0.000487936
-0.000380349
0.000194791
-0.000320177
0.000463951
-0.000186305
0.000114348
-1.84328e-05
0.000573045
-0.000291608
0.000220642
-0.000265819
-1.23778e-05
1.67362e-05
-1.86379e-06
0.000351281
-0.000442276
9.271e-05
1.7454e-06
-6.39394e-06
7.27328e-06
-0.000215449
0.00017966
-0.000351768
0.000177352
-5.14932e-06
6.19887e-07
-0.000140371
-0.000519372
-6.3049e-05
7.31602e-05
-0.000491276
1.65732e-06
-1.10952e-05
-0.000362375
0.000494537
-0.000131203
0.000470708
-0.000326842
-0.000142738
-0.000591891
0.000375853
0.00021638
-0.00053013
-0.000139734
-0.000234772
0.000417724
3.83023e-05
-0.000194843
0.000157396
-0.0002762
0.000295051
-1.87611e-05
0.000193828
0.0003716
7.42819e-05
-0.000636571
0.00033601
0.000301825
-0.000418367
5.80919e-05
-0.000549925
0.000645874
-9.02508e-05
-0.000249897
0.000689499
-0.000429313
1.18324e-06
-4.97008e-07
-7.01277e-05
-0.000171134
0.000426211
-0.000628116
-1.9849e-05
5.62424e-05
-7.32326e-05
3.02138e-05
9.61559e-05
-8.31019e-05
-6.48464e-06
7.35853e-06
6.53088e-07
0.000665527
-0.000142409
-0.000520243
-0.000277102
-0.000314504
5.56944e-05
-0.000331791
0.000207946
-0.000455823
0.000542268
0.000713982
-0.000187655
-0.000522901
-0.000158205
-0.000552315
0.000442925
-7.28362e-05
-4.29032e-05
-0.000501397
0.000640319
-4.4991e-06
9.9608e-05
-9.10394e-05
9.72461e-05
0.000319414
-0.000404659
-2.54419e-05
3.1776e-05
-0.000709375
0.000173323
0.000529627
0.000119974
-0.000646959
3.8898e-05
0.000182029
-0.000218618
-0.000130206
-0.000161078
0.000119427
0.000601889
-0.000355891
0.000300225
-0.000418855
-0.000288257
7.13061e-05
1.66142e-05
9.5675e-05
-0.00017723
0.000218468
-0.000661635
0.000134202
0.000653567
3.37637e-05
-0.000208642
2.48082e-05
0.000131437
-0.000153066
-0.000252163
0.000664233
9.45984e-05
-7.79146e-05
0.000409542
0.000297737
-0.000705717
-0.000530795
5.94301e-05
-4.8238e-05
0.000665261
-0.000218888
-0.000435622
-0.000301448
-0.000333506
-0.000124172
-0.000530368
0.000655297
-0.000336542
0.000440182
0.000737588
-0.000488008
-0.000246838
9.79438e-05
-6.69442e-05
9.38408e-05
0.000291224
-0.000191494
0.000155025
0.000491122
-0.000301742
-0.000188843
-0.000249695
0.000593177
-0.000545107
0.000362046
0.00066464
-0.000138956
-0.000132289
-0.000492746
0.000628932
-0.00013098
-5.03765e-05
2.85389e-05
-9.13406e-06
0.000183297
-0.000142238
0.000384354
0.000220772
-0.000579587
0.000359321
-0.000518023
-0.000163277
0.000684994
-5.49976e-05
-0.000161367
-1.73569e-05
-7.15245e-05
9.04961e-05
0.00037853
-0.000672154
9.36469e-05
-7.3723e-05
0.000323913
0.00016763
-0.000190331
0.000168827
0.000130574
8.73183e-05
7.30871e-05
-2.6976e-05
-2.84445e-05
4.80455e-05
4.10647e-05
-1.35641e-06
-2.66938e-07
2.27091e-06
6.86313e-05
-0.000608395
0.000211936
-0.000354063
0.000151231
0.000202923
-0.000513365
0.000426745
0.000233557
-0.000446122
0.000212878
-0.000740535
0.00044446
0.000301896
-1.03438e-05
9.79948e-05
-8.40199e-05
-4.27133e-05
1.8884e-05
0.00065198
-0.000190133
-0.000450433
0.000486711
-0.000128234
-0.000351621
0.000441179
-0.000601441
0.000163187
0.000289488
-0.000253113
-8.39801e-05
0.000386685
-0.000253896
-0.000481066
0.000538327
-0.000607252
7.90455e-05
0.000479646
0.000391195
0.000210606
0.00044239
-0.00020856
0.000517723
-0.000108894
0.0002021
0.000118147
-0.000320179
-6.27632e-05
0.000146912
1.185e-05
-0.000474249
0.000463458
-0.000461989
-6.90733e-05
8.78234e-05
0.000612316
-0.000151994
-0.0004569
0.000233973
-5.85556e-05
-0.000152432
0.000687374
-0.00019684
0.000241422
-0.000368758
0.000127526
0.000109795
-0.000319693
-2.74882e-05
0.000189793
-0.000158161
-0.000494412
5.58282e-05
-0.000598762
0.000158417
0.000335468
4.48866e-05
-0.000175861
-1.00295e-05
0.000401814
9.44349e-05
0.000100585
-2.13119e-05
3.39391e-05
-1.09805e-05
-1.74167e-05
0.000425271
-0.000322818
0.000385523
-0.000348368
0.000152305
0.00010845
-0.000260729
6.9885e-05
1.36841e-05
-8.19363e-05
-7.43535e-05
0.000164465
-0.000187837
-0.000123795
-0.000105333
0.000238418
0.000443086
-0.000629485
8.51342e-05
3.54172e-06
0.000545128
-0.000224688
0.000109981
-0.000519112
0.000392782
0.000149775
-2.80881e-06
-8.83354e-06
0.000169769
0.000551141
-0.000347246
0.000651282
-0.000302993
-0.000113027
-0.000357834
-0.000588361
0.000502188
8.88251e-05
0.000408988
-0.000143578
-0.000269645
-4.7303e-05
0.000318371
0.000143725
6.13625e-05
7.98597e-06
-5.98136e-05
-0.000105173
0.000181444
0.000107881
-0.000456604
0.000351666
-2.40256e-05
8.20823e-06
-0.000517887
0.000530935
-0.000357647
5.98995e-05
0.000661977
-0.000104812
-0.000550441
0.000676554
-0.000151774
-0.000520647
0.000545091
-0.000568411
-0.000431959
0.000653295
0.000204611
-0.000160859
1.86672e-05
1.29671e-05
-2.13541e-05
2.34341e-05
-3.11016e-05
1.34386e-05
0.000689236
-0.000141528
-0.00033527
0.000287158
-5.10321e-05
-0.00045407
0.000515652
0.000394917
-0.000130201
1.62357e-05
8.76794e-05
9.77613e-05
-7.76695e-05
0.000287877
0.000773905
-0.000507187
-0.000266044
0.000128449
0.000306074
-0.000225175
4.42232e-05
0.000261362
-0.000109033
-1.18275e-05
0.000113272
-9.8365e-05
0.000214305
2.16256e-05
-0.000233992
-2.89134e-05
0.000477191
-0.000447777
0.000743141
-0.000126087
-0.000614309
-0.000516424
0.000593975
0.000431257
0.000646087
-0.00052954
-0.000148125
0.000386961
-0.000238739
0.000306893
0.000467387
5.28109e-08
-5.27217e-06
0.000102565
-0.000111357
-8.945e-06
0.000557601
0.000503266
-0.000680975
0.000181029
0.000100507
0.000304926
0.000248169
2.28278e-05
0.000103945
-0.000122077
9.89864e-05
0.000568941
0.000107944
0.000550669
0.000403994
-0.000257291
-0.000146451
-0.000182645
0.000493072
-0.000304806
0.000347071
5.47794e-05
-0.000396223
0.000414641
-0.000509081
9.6857e-05
-0.000338165
0.000386552
-0.000261539
0.000233473
3.09087e-05
-4.47671e-05
0.000246189
-0.000325774
7.96966e-05
0.000208462
-0.000311349
0.000102988
8.35094e-05
0.000174615
-0.000123083
0.000130779
-0.000134665
1.89519e-05
3.34151e-05
0.000143851
-0.000175346
0.000362392
-0.00048311
0.000538673
-0.000108637
-0.000418761
0.000385186
6.1382e-05
8.17524e-06
-6.09548e-05
-0.000364579
0.000197124
-0.00015791
0.000236143
-0.00015673
-7.10738e-05
0.000545547
-9.47468e-05
-0.000436421
-0.000422488
0.000159707
0.000387451
0.00011169
-0.000293125
0.000192257
-0.0003858
-0.000120074
0.000516508
-0.00060601
0.000294633
0.00031141
3.5829e-05
-4.61645e-05
0.000593905
0.000170459
7.38918e-05
-3.84944e-05
-0.000188139
0.000228901
0.000207171
-0.000140547
-6.13022e-05
-5.76124e-05
0.000442755
-0.000384397
-0.000116253
-0.000194889
9.66221e-05
0.000462652
0.000426866
-0.000227101
-0.000305324
-0.000145654
0.000451373
-0.000279111
5.92807e-05
0.000219859
0.00045304
-0.000213276
-0.000239563
-2.75391e-05
-0.000340088
0.000383863
0.000213236
0.000532342
-7.09541e-05
-0.000362176
0.000442305
0.000139325
0.000191172
-0.000319489
0.000307772
3.80492e-05
-0.000328214
-0.000401905
-9.64196e-05
0.000499578
-4.75484e-05
0.000553205
-0.000106514
0.000421846
0.000178779
0.000298407
-0.000476561
0.000272231
0.000136871
0.000404279
-0.000107792
-0.000724675
0.000218223
0.000508079
-0.000558529
-0.000110235
0.000671635
9.41809e-05
-0.000109718
0.000143826
-0.00062058
0.000507217
-0.000576416
7.11136e-05
2.73019e-05
-3.97909e-05
1.98808e-05
2.87611e-05
1.48462e-06
0.000129243
0.000160804
-0.000233684
-0.000324189
0.000209342
0.000290249
0.000242606
-0.000311092
7.88498e-05
-0.000204656
0.000323459
-0.000118717
0.000138866
0.000130195
-0.000505597
0.000505679
4.79222e-05
-0.000552362
-0.000226813
-0.00026592
0.000493917
0.000608176
-0.000403474
5.19949e-05
-4.13066e-05
-0.000173197
0.000275904
0.0003226
-0.000595422
0.000507407
0.000609287
-0.00014535
-0.000290858