/*--------------------------------*- C++ -*----------------------------------*\
| =========                 |                                                 |
| \\      /  F ield         | OpenFOAM: The Open Source CFD Toolbox           |
|  \\    /   O peration     | Version:  v2012                                 |
|   \\  /    A nd           | Website:  www.openfoam.com                      |
|    \\/     M anipulation  |                                                 |
\*---------------------------------------------------------------------------*/
FoamFile
{
    version     2.0;
    format      ascii;
    class       volVectorField;
    location    "800";
    object      U_0;
}
// * * * * * * * * * * * * * * * * * * * * * * * * * * * * * * * * * * * * * //

dimensions      [0 1 -1 0 0 0 0];


internalField   nonuniform List<vector> 
18355
(
(0.823039 0.0715918 -2.59776e-21)
(1.00925 0.000408218 -2.15945e-22)
(1.08467 0.210232 2.01805e-20)
(1.01027 0.000998731 -1.98336e-22)
(1.00038 -0.0200676 -1.37239e-21)
(1.08463 -0.0606162 0)
(1.01575 0.00105896 0)
(0.997093 -0.0174318 1.54287e-21)
(1.00548 6.50646e-05 -4.56908e-22)
(0.996794 0.073293 0)
(1.02024 0.0117066 0)
(1.12867 0.097274 -1.54869e-20)
(1.13166 0.0988989 -1.65992e-20)
(0.819664 -0.0543073 0)
(1.00755 0.000112284 -4.29171e-22)
(1.00922 0.000172784 -6.89206e-22)
(1.01018 0.000938456 9.33562e-23)
(1.01588 0.0146467 0)
(0.981869 0.17901 3.41234e-21)
(1.01052 -0.00110988 -1.94026e-21)
(0.78099 -0.150186 -5.55645e-22)
(1.02107 0.012325 4.72834e-22)
(1.00842 0.000192433 2.14021e-22)
(1.09601 -0.0377371 0)
(1.0084 0.000175401 2.40244e-22)
(1.01506 0.00090242 0)
(1.01605 0.000512736 -5.31695e-22)
(1.01058 0.00182926 8.22675e-22)
(1.00425 -2.17227e-05 0)
(1.02143 0.0123213 1.50093e-21)
(1.0175 -0.0143761 0)
(1.01028 -0.0173294 4.25587e-21)
(1.01082 0.000189169 -8.86066e-22)
(1.00864 -0.000133367 1.47389e-21)
(1.006 -9.01438e-05 -6.11031e-23)
(1.01092 0.000732336 3.53736e-21)
(1.03659 0.0377861 1.44895e-21)
(1.01108 0.000306707 -3.59816e-21)
(1.02228 0.0122815 -3.30127e-21)
(1.01539 0.00961099 2.77197e-22)
(1.01298 0.00021758 4.77864e-23)
(1.02103 0.0115301 -4.2106e-21)
(1.0087 -6.19949e-05 1.04937e-21)
(1.00901 0.000376211 0)
(1.00912 0.000388689 -4.53283e-22)
(1.17751 0.095382 3.34593e-21)
(1.0104 0.00198073 1.17814e-21)
(1.0103 0.00187227 -1.19112e-21)
(0.997979 0.0481326 1.55176e-20)
(1.01255 -0.000249211 -6.1011e-22)
(1.00594 -4.06686e-05 6.43723e-22)
(0.733822 -0.284835 9.89445e-22)
(1.01254 -0.000334927 6.28744e-22)
(0.927154 0.117364 2.4793e-21)
(1.01533 0.00347014 7.63579e-23)
(1.01058 -0.00181072 1.81505e-21)
(1.0053 -6.86399e-05 9.55406e-22)
(0.923409 0.0379268 -1.8781e-20)
(1.01525 0.000643625 0)
(1.02051 0.0754617 8.57594e-21)
(1.00873 -0.000109448 -1.70101e-21)
(1.09364 0.104089 -2.61351e-20)
(0.92398 0.110344 0)
(1.01198 0.0022896 1.08527e-21)
(0.985954 -0.0250658 5.54479e-21)
(1.00654 -9.96299e-05 -1.30123e-21)
(1.01957 0.0197028 -4.01093e-22)
(1.0355 0.0384157 -1.65991e-21)
(1.00883 -0.000400318 -1.33267e-21)
(0.987443 0.100665 -4.75486e-22)
(1.01239 0.000177884 0)
(1.01543 0.0036102 0)
(1.01248 -0.00643208 0)
(1.01446 0.0171166 1.1449e-21)
(1.02356 -0.0587795 3.74467e-22)
(1.00887 -0.000338793 0)
(0.953122 0.0079622 2.00296e-20)
(1.00895 -0.000321666 6.29103e-22)
(1.01226 0.000209704 -1.37157e-24)
(1.03172 -0.0537408 2.59631e-22)
(1.01912 0.0191856 0)
(1.05858 -0.0357749 0)
(1.00891 -0.000387165 1.35886e-21)
(1.01598 0.0189289 -2.98638e-23)
(0.97518 0.032967 -2.20021e-21)
(1.00378 3.48743e-05 -5.80161e-22)
(1.00681 0.000217714 1.79037e-22)
(0.995393 0.0439669 6.9344e-22)
(1.01023 0.00083447 -2.21744e-21)
(0.993405 0.0416466 -6.74284e-22)
(0.811871 -0.273842 -1.27125e-20)
(0.889628 -0.141223 3.37383e-21)
(1.06433 -0.0225212 7.02135e-22)
(1.0128 -0.00035806 6.4286e-22)
(0.878113 0.0977367 8.22397e-22)
(1.01051 0.000456319 0)
(1.00966 0.00086806 5.62045e-22)
(1.01087 0.000480349 9.45959e-22)
(1.00786 0.113244 -1.23384e-21)
(1.01993 0.0115271 -1.41666e-22)
(0.978727 0.0322469 0)
(1.01201 0.000263768 5.70302e-22)
(1.01276 -0.000260898 0)
(1.01088 -0.000720955 0)
(1.01813 0.0188465 0)
(1.00932 0.000180176 1.49133e-21)
(0.990956 -0.0278515 0)
(0.855618 0.111147 0)
(1.01466 0.0452022 2.6903e-21)
(1.00904 0.000133779 -1.24843e-21)
(1.0064 -0.000138257 0)
(1.00393 -3.58525e-05 0)
(1.02121 0.00300347 -1.41585e-22)
(1.0164 0.0182705 -6.38936e-22)
(1.19165 0.147671 0)
(1.01451 0.00974908 0)
(1.01189 0.000278798 0)
(1.03651 -0.0633871 -2.5077e-22)
(1.01894 0.0153237 1.07401e-22)
(1.02038 0.0196819 9.21119e-22)
(0.992357 0.0864168 1.24307e-22)
(1.09333 0.212097 -2.46708e-20)
(0.822504 -0.298459 0)
(0.985963 0.0474049 8.70394e-22)
(1.04431 -0.0577643 0)
(1.18614 0.105519 3.48108e-21)
(1.01611 0.000907261 -2.95983e-22)
(1.01021 0.000821682 -1.15332e-21)
(0.818541 0.086569 0)
(1.02038 0.0100255 5.05476e-22)
(1.00975 0.000880692 5.78953e-22)
(0.766874 -0.315058 -2.51035e-22)
(1.01424 0.00488391 0)
(1.04745 0.119016 1.131e-21)
(0.923453 0.0209849 1.08317e-20)
(1.01037 0.000794929 1.25811e-21)
(0.988012 0.184776 2.85843e-21)
(0.950935 0.081754 0)
(1.01196 0.000870648 2.00701e-22)
(0.847446 -0.14707 9.25198e-21)
(1.0289 0.0299855 -3.4324e-21)
(1.0429 -0.0145711 3.67491e-22)
(1.01022 0.00151764 -6.29408e-22)
(0.679268 -0.214518 1.02645e-20)
(0.922268 0.0140053 -4.83508e-21)
(1.01376 0.000390749 -3.15237e-23)
(1.02535 0.0875326 0)
(1.0131 -0.00207828 0)
(1.02232 0.00376984 0)
(1.03204 0.0528068 0)
(1.01048 0.00172108 0)
(1.02073 0.019338 0)
(1.015 0.00199557 0)
(1.02715 -0.000177452 0)
(1.0088 -3.43339e-05 0)
(1.00789 0.00010818 0)
(1.01011 0.000754365 1.31458e-21)
(1.00427 1.65869e-05 0)
(1.01029 0.00159097 1.94583e-21)
(1.0077 8.92304e-05 0)
(1.01776 0.014164 1.18343e-21)
(1.01428 0.00504262 4.68265e-22)
(1.00904 0.000148448 -7.93043e-22)
(1.03211 -0.00618873 5.16753e-22)
(1.01745 0.0167346 2.35306e-21)
(1.01898 0.0506211 7.09165e-22)
(0.989654 0.0760274 0)
(0.781196 0.0543439 4.7972e-21)
(0.845553 -0.314586 0)
(1.02792 0.0298845 4.13278e-21)
(1.00427 -4.9887e-05 4.56625e-22)
(1.04633 0.114862 6.74429e-21)
(1.00387 -1.73919e-05 -1.2736e-21)
(1.01714 0.0991574 -2.78001e-20)
(1.00519 -8.13433e-05 -2.3244e-22)
(1.01314 0.000303477 -7.07585e-23)
(1.00459 -5.57492e-05 0)
(1.01161 -0.00126645 7.93091e-23)
(1.03603 0.0154082 3.86335e-21)
(1.00821 0.018007 1.44654e-21)
(1.00376 6.48157e-06 1.60218e-21)
(1.01266 0.0443433 -2.80076e-22)
(1.02078 0.0112796 0)
(1.01087 0.00224348 1.30704e-23)
(1.02298 0.0281282 0)
(1.01299 -0.000304846 1.23015e-21)
(1.00519 6.09774e-05 8.6306e-22)
(0.993056 0.036114 1.0369e-21)
(1.01555 0.00123891 0)
(1.01656 0.000306135 1.7876e-21)
(1.18087 0.103298 -1.21939e-20)
(1.01266 0.113823 -5.08145e-21)
(1.00948 0.000413659 8.66478e-22)
(1.00997 -0.000789715 1.46266e-21)
(1.01501 0.000271231 0)
(1.1882 0.165279 2.52281e-21)
(1.00664 -8.31607e-05 6.37751e-22)
(0.775857 0.0873439 -4.19032e-21)
(1.00937 0.000419013 -2.26527e-22)
(0.827391 -0.0872906 4.696e-22)
(1.01293 -0.000199084 0)
(1.0117 0.0125419 -4.83029e-22)
(1.0226 0.0133582 0)
(1.00475 1.51816e-05 -1.47387e-21)
(0.795826 0.0649061 0)
(1.02082 0.00879893 0)
(0.850809 -0.319638 0)
(1.01078 0.00220112 1.10646e-21)
(1.01063 0.000195107 -1.55567e-21)
(1.01519 0.00105747 1.49538e-21)
(1.0171 0.00872812 -6.13807e-23)
(1.09336 0.0181309 8.89596e-22)
(1.01544 0.00436873 0)
(1.0151 0.00360249 0)
(1.01333 -0.00218068 -3.49701e-23)
(0.999284 0.157888 3.48822e-20)
(1.0084 0.0169794 2.13407e-23)
(1.03961 0.0298321 -3.60889e-21)
(1.02049 0.0091821 -5.61251e-22)
(1.01046 0.00190676 5.89499e-22)
(1.01583 0.0436238 0)
(1.00986 -0.000817481 0)
(1.00065 0.044416 6.86664e-23)
(1.02114 -0.0049407 -7.86857e-22)
(1.00245 0.0281272 0)
(1.01391 0.00541873 -1.15641e-21)
(1.00987 -0.000820369 0)
(0.949516 0.0684491 0)
(0.854832 0.0520066 -1.22056e-20)
(1.00766 0.00140842 7.51488e-22)
(1.01369 0.00160576 9.49732e-22)
(1.01848 0.0193955 0)
(1.01812 0.0629507 -2.06606e-22)
(1.00995 -0.00084498 0)
(1.03374 -0.00324791 4.8419e-22)
(1.00591 0.0253263 5.2492e-22)
(1.0308 0.0103502 -9.03147e-22)
(1.1817 0.0977241 0)
(1.04889 0.023708 2.31799e-21)
(1.01566 0.00324572 0)
(1.00964 0.000449285 -2.07285e-21)
(1.03555 0.0148982 -4.62324e-22)
(1.01517 0.00271652 -1.89561e-24)
(1.00657 0.00515915 0)
(1.02047 0.00886559 0)
(1.01541 0.00321651 0)
(1.01028 0.00189666 1.43459e-21)
(1.08646 0.0238319 -8.05327e-22)
(1.10412 0.00991376 1.14019e-21)
(1.01306 6.66526e-05 -1.06051e-21)
(1.0118 0.00272205 1.06082e-21)
(1.10391 0.0240303 -6.35869e-22)
(1.10944 0.161826 1.66298e-20)
(1.01992 -0.00633869 -7.9173e-22)
(1.01147 -0.00119224 -9.65274e-23)
(1.02939 -0.000792265 -4.26836e-23)
(1.04788 0.0241279 -2.22764e-21)
(1.01279 0.00050752 0)
(1.01297 0.00513275 2.16657e-21)
(1.00947 0.00069623 -6.12111e-22)
(1.03273 0.0618572 -7.07708e-22)
(0.994444 -0.0200602 1.55023e-21)
(1.01663 0.106354 -2.08518e-21)
(1.05738 0.0395462 0)
(1.02363 0.0135277 -1.73451e-21)
(1.03859 0.0112533 -2.3856e-21)
(1.03253 -0.0155825 5.01963e-22)
(1.00074 0.119876 2.30191e-21)
(1.00948 0.000687488 -6.21435e-22)
(1.01551 0.00338297 5.3748e-23)
(1.01701 -0.000367429 0)
(1.0092 0.000109239 7.67235e-22)
(1.01094 0.0123957 -5.22146e-22)
(1.04058 0.0304889 0)
(1.01011 0.00144765 -3.1133e-22)
(1.01787 0.00892569 0)
(1.00205 0.0248865 2.45378e-21)
(1.01027 0.000777526 -6.34013e-22)
(0.942831 0.0550106 0)
(0.925539 0.305376 -1.05572e-20)
(1.006 0.0235538 2.25343e-21)
(1.01729 0.00900245 3.68728e-22)
(1.0153 0.00801253 -1.87895e-21)
(1.00909 8.64991e-05 0)
(0.997798 0.0488783 0)
(1.02071 0.00782322 6.31764e-22)
(1.00668 0.0147856 0)
(1.01372 0.000273595 3.36296e-23)
(1.00808 0.015005 0)
(0.915934 0.0961786 2.09214e-21)
(1.0107 0.000197796 2.26889e-22)
(1.0493 0.0742666 0)
(1.01994 0.0158246 0)
(1.01058 0.00240453 1.22973e-21)
(1.02901 -0.018092 1.52632e-21)
(1.00702 0.00010612 1.82366e-21)
(1.00988 -0.000783823 -1.67843e-21)
(0.948203 0.0529958 3.11451e-21)
(1.01762 0.00886355 0)
(1.03855 -0.018536 0)
(1.03932 0.0379362 1.69469e-21)
(0.812165 0.252916 1.45832e-20)
(1.00119 0.0560109 1.44303e-22)
(1.01685 0.109544 -1.93527e-21)
(1.01328 0.0138402 1.21474e-22)
(1.0007 0.0269006 0)
(1.01218 8.17817e-05 -2.04262e-21)
(1.04581 0.0201142 -8.65352e-22)
(1.05637 0.0385944 -6.95179e-21)
(1.04694 0.0748998 6.50456e-21)
(1.00974 0.0386191 8.10985e-23)
(1.10158 0.249996 0)
(1.01098 0.00260076 8.78309e-22)
(1.01156 -0.00535293 -8.05913e-22)
(0.930079 0.0965368 -4.0951e-23)
(1.01521 0.00712191 -5.19275e-21)
(1.01095 0.00258862 0)
(1.01025 0.00177959 1.15849e-21)
(1.01036 0.00193791 2.52793e-22)
(1.07802 0.0672412 1.9977e-20)
(1.1095 0.244153 0)
(1.04991 0.331063 0)
(1.00168 0.0384507 -3.99674e-22)
(1.00513 0.0254888 0)
(1.03051 0.0289983 -5.4242e-21)
(1.06383 0.0279366 -1.05796e-23)
(1.01272 -0.00195597 3.054e-23)
(1.02078 0.00848807 1.56616e-22)
(1.02946 0.028808 6.0527e-21)
(1.01743 0.00534541 -1.66851e-23)
(1.00578 0.00275615 -8.05583e-22)
(1.00679 -6.83807e-05 -1.22906e-23)
(1.06886 0.107643 1.88591e-21)
(1.00959 0.000193536 8.077e-22)
(1.05666 -0.0584338 3.22634e-22)
(1.01425 0.000675164 0)
(1.01546 0.00948609 0)
(1.01221 0.0147073 -9.7173e-22)
(1.13222 0.11547 1.45829e-20)
(0.729499 0.064236 -1.56736e-20)
(1.00525 0.00657046 0)
(0.998891 0.0313059 3.2335e-22)
(1.01784 0.0110193 1.20412e-21)
(1.01032 0.000861335 2.46395e-21)
(1.01716 0.00517321 0)
(1.01011 0.00563785 -1.02421e-21)
(1.00335 0.0857602 -2.10393e-23)
(1.01043 0.000932578 0)
(1.01075 0.000558891 6.5829e-23)
(1.04673 0.017119 0)
(1.01841 0.0110066 -3.94441e-22)
(1.01056 0.000888791 0)
(1.12639 0.146094 1.8644e-20)
(1.01097 0.00517252 0)
(1.01032 0.00192458 0)
(1.01383 0.00129407 -1.00353e-21)
(1.00587 0.0131676 0)
(1.01141 0.000525276 3.58756e-23)
(1.00661 0.0119407 0)
(1.01122 -0.00130016 -6.64007e-22)
(1.01094 0.000610894 0)
(1.0197 0.0111838 1.07086e-22)
(1.07406 0.0806659 3.1565e-20)
(1.03819 0.0205998 -4.6998e-22)
(1.01112 -0.00123808 6.16652e-22)
(1.01007 0.0014338 5.55703e-22)
(1.00657 0.0148838 0)
(1.01044 0.00200279 1.49456e-21)
(1.00449 8.47728e-06 -1.52705e-21)
(1.06244 0.0466248 -7.09815e-23)
(1.04212 0.0157153 6.74377e-23)
(0.996845 0.0260463 -6.19851e-22)
(1.0167 0.00503942 -1.13595e-22)
(1.03108 0.0108676 0)
(1.13178 0.102938 1.74016e-20)
(1.01433 -0.0017836 1.07949e-21)
(1.0288 -0.00380805 0)
(1.04681 0.0202726 -5.01853e-22)
(1.01024 0.000210985 0)
(1.00872 0.0133253 6.63018e-23)
(1.01418 -0.0204463 0)
(1.01955 0.010541 -6.76214e-23)
(1.01083 0.000651619 1.61942e-22)
(1.01651 0.0143326 -2.05719e-21)
(1.00724 0.0001772 2.0354e-21)
(1.01869 0.00227218 0)
(1.01502 0.000326526 3.39246e-24)
(1.05714 -0.021421 0)
(1.01551 0.00236714 -9.88663e-22)
(1.02184 0.0192515 6.37163e-22)
(1.00581 -6.22391e-05 5.60049e-22)
(1.01038 0.00198933 0)
(1.01068 0.0117018 9.62691e-22)
(1.01795 0.000340012 -8.96611e-22)
(1.07246 0.0954485 3.81024e-22)
(1.02265 0.193945 1.91917e-20)
(1.04193 0.0280478 -5.40765e-23)
(1.01506 0.00444012 0)
(1.10349 0.162351 -2.21385e-20)
(1.02277 -0.0105641 0)
(1.01422 0.000591945 6.62399e-23)
(1.00696 -0.000174402 5.7734e-24)
(1.04959 0.0697216 6.9285e-21)
(1.01568 0.00135261 -6.44912e-23)
(0.995109 0.0276314 7.27395e-22)
(1.01522 0.000916579 0)
(1.01579 0.0204073 0)
(1.06712 0.0186657 1.30259e-23)
(0.999205 0.038196 -5.03284e-22)
(0.736443 0.0440407 1.36613e-20)
(0.997276 0.105732 2.29904e-22)
(1.01088 -0.000678502 0)
(0.941668 0.420397 0)
(1.02028 0.0115905 4.03698e-22)
(1.01002 0.00141437 -1.15187e-22)
(0.782079 -0.168636 -7.28262e-21)
(1.01441 0.000773593 0)
(1.00929 0.0110922 0)
(1.01794 -0.00311507 0)
(0.989648 -0.0362229 7.43696e-21)
(1.01437 0.000846678 1.20882e-23)
(1.05052 0.111406 -9.99182e-21)
(1.07128 -0.0769583 0)
(1.02274 0.100677 -4.98437e-22)
(1.01277 0.00504994 7.98898e-22)
(1.00995 0.000490632 0)
(1.02247 0.10416 7.86046e-23)
(1.01923 0.015666 3.30261e-23)
(1.01323 0.000704405 1.3914e-24)
(1.00498 0.0631223 -6.01432e-22)
(0.997372 -0.0154486 6.98462e-22)
(1.00993 0.00131582 -2.2835e-22)
(1.05052 0.0714653 0)
(1.06996 0.0967422 5.19536e-21)
(1.00982 0.000480804 -1.82457e-21)
(1.01623 0.0106178 0)
(1.0063 0.00872659 1.40705e-22)
(1.02116 0.337617 -8.92106e-21)
(1.01445 0.0620431 -2.49508e-22)
(1.01815 0.0109119 1.52394e-22)
(1.01214 8.19506e-05 2.12809e-21)
(1.05082 0.0606885 -3.59063e-21)
(1.00772 0.000208117 -1.69586e-21)
(1.01016 2.37641e-06 7.5493e-22)
(1.01368 0.00105922 0)
(1.0041 0.0349317 0)
(1.04102 0.189176 -2.05343e-20)
(1.01011 0.000206895 3.80796e-22)
(1.00173 1.75692e-05 7.67934e-22)
(1.01336 0.00062635 1.15521e-23)
(1.13571 0.118235 -8.42247e-21)
(1.0167 -0.0192398 1.00371e-21)
(1.01017 -0.000911451 -3.29069e-22)
(1.00818 0.00961322 9.52228e-22)
(1.00069 0.0470257 0)
(1.02121 0.00535935 5.35825e-23)
(1.19427 0.161586 0)
(1.09214 0.10765 -6.97564e-23)
(1.02106 0.0116434 0)
(1.0076 0.000183453 -2.25086e-21)
(1.01554 0.0596975 2.07232e-21)
(1.14171 0.11293 0)
(0.758808 0.104034 8.51144e-21)
(1.01002 0.000184593 0)
(0.755866 0.129594 -3.39574e-21)
(1.01181 0.000762918 2.14355e-22)
(1.01016 0.000196128 3.67851e-22)
(0.995506 0.0567655 2.95872e-22)
(1.01952 0.0165914 0)
(1.05842 -0.0280179 0)
(1.00952 -0.00562138 -3.37023e-21)
(1.02148 0.0197148 0)
(1.01445 0.0182318 -6.33409e-21)
(1.02146 0.0123929 0)
(1.12065 0.147641 0)
(1.01858 0.015458 -3.07572e-22)
(1.05651 0.0357839 9.21772e-21)
(1.01888 0.0114736 1.10932e-22)
(1.00991 0.000148556 0)
(1.02572 0.00904893 0)
(1.01005 0.000166016 0)
(1.08593 0.110833 4.45282e-21)
(1.06461 0.222422 1.77434e-20)
(0.995276 -0.0386207 -7.08243e-21)
(1.0161 0.0154391 -2.29408e-21)
(1.01433 0.008012 0)
(1.0186 0.0113577 2.38924e-22)
(1.0158 0.0011803 -1.98643e-21)
(1.01395 0.0138488 -1.59382e-22)
(1.01123 0.00179255 -1.01364e-21)
(1.01195 -0.00140809 5.96762e-22)
(1.01714 0.00162686 0)
(0.998201 0.051646 0)
(1.00978 0.000467747 2.19644e-21)
(1.01093 0.00136686 0)
(0.734014 0.236325 5.3328e-22)
(0.773355 0.104132 -4.61742e-21)
(0.931312 0.10401 0)
(1.02046 0.00974309 -5.30296e-22)
(1.00316 -2.61311e-06 6.10125e-23)
(1.00541 0.0100371 -1.5636e-22)
(1.02089 0.0119251 -4.99838e-22)
(1.04472 0.0465749 4.001e-22)
(1.07087 0.233584 -1.00877e-20)
(1.01228 -0.00454302 1.46892e-21)
(1.01528 0.0166395 -1.62135e-22)
(1.00804 0.0174508 -6.4881e-22)
(1.02484 0.0152219 2.64281e-22)
(1.02635 0.0232318 1.79627e-21)
(0.727132 0.0167292 2.53748e-21)
(1.00205 0.0299641 0)
(1.01136 0.00110851 -2.23057e-21)
(0.968446 0.160034 -1.40238e-20)
(1.00799 0.000265467 -1.0525e-21)
(0.7567 0.0649845 4.33489e-21)
(0.92384 0.421426 -1.62094e-20)
(1.05009 0.0255284 -1.39213e-21)
(1.01608 0.0104478 -6.42966e-22)
(0.697389 0.0082177 4.88591e-21)
(1.0102 0.00155208 8.34277e-22)
(1.04932 0.107684 1.07737e-21)
(1.01364 -0.0193286 0)
(0.917525 0.010144 0)
(1.01832 0.0150896 -5.23376e-22)
(1.02551 0.00873067 -1.80731e-21)
(1.02066 0.00551576 -5.88708e-22)
(0.918034 -0.0262708 -8.50529e-22)
(0.764598 0.0389118 -1.62016e-20)
(0.926282 -0.00259031 0)
(1.01736 -0.104804 1.62368e-22)
(1.01207 0.0131728 1.50241e-21)
(1.0203 0.00539379 -5.69284e-22)
(1.01632 0.0196886 1.26888e-22)
(1.01558 0.00315299 1.10283e-23)
(1.00923 -0.00264544 -3.3452e-21)
(0.81469 -0.140992 -7.78166e-21)
(1.01314 0.197636 -2.50812e-20)
(1.0375 0.223916 -1.80455e-20)
(1.15254 0.139702 -8.24561e-21)
(1.01245 -0.0138619 -9.44987e-22)
(1.01021 -0.0132253 0)
(1.02426 0.0021005 0)
(1.01045 0.00207211 0)
(1.01235 0.00329418 0)
(1.01317 -0.0163057 -1.84931e-21)
(1.00357 0.00689266 0)
(1.02107 0.0080261 -1.80116e-22)
(1.01548 0.00297097 -4.61424e-23)
(1.06056 -0.0680476 -2.48599e-21)
(1.00965 0.000799917 -1.76838e-21)
(1.14475 0.157656 8.10746e-21)
(1.00914 -0.00688916 1.87923e-21)
(1.06917 0.114427 -1.09372e-20)
(1.13491 0.104489 2.04164e-20)
(1.01246 0.00332344 6.69576e-24)
(1.01615 0.0175711 -4.54306e-22)
(0.805384 0.0918419 4.69017e-21)
(1.01705 0.00177431 0)
(0.989941 0.239225 -1.79164e-20)
(1.0108 0.000650523 -7.34449e-22)
(0.965544 -0.12891 0)
(1.00165 0.0283813 0)
(1.01356 0.000293873 -6.97333e-23)
(1.02554 0.00322647 -2.29174e-21)
(1.00553 0.119474 3.11981e-21)
(0.991737 0.105889 3.39151e-22)
(1.00371 -2.81601e-05 1.69478e-21)
(1.00918 -0.000571365 -3.26112e-22)
(1.04852 0.0574845 0)
(1.05108 0.026179 5.84904e-21)
(1.06645 0.117513 6.84502e-21)
(1.01578 0.000871665 1.17341e-22)
(1.09699 0.103854 2.10883e-20)
(1.00965 0.000775268 2.44944e-21)
(1.06149 0.228758 5.45008e-21)
(1.00587 -7.61794e-05 -7.03251e-24)
(1.01128 0.00278836 0)
(1.12176 0.183931 0)
(1.02256 0.00641534 0)
(1.00469 0.0208111 5.79646e-22)
(1.00573 -9.1982e-05 0)
(1.0146 0.0155704 2.22209e-22)
(1.01065 2.28196e-05 -2.32303e-21)
(1.05935 0.105946 0)
(1.06633 0.338954 0)
(1.03276 0.026874 -4.30652e-21)
(1.02377 -0.00575432 -3.54194e-22)
(1.0051 -4.17359e-05 0)
(1.01428 0.00883673 -3.74317e-25)
(1.01885 0.0106508 6.40464e-23)
(1.03289 0.0260275 3.69382e-21)
(0.606461 -0.0383366 1.09593e-20)
(1.00879 0.00033642 -1.59222e-24)
(1.03678 0.0334715 -3.38641e-23)
(1.01634 0.00847119 -5.16468e-22)
(1.00485 -6.91082e-05 2.21643e-22)
(1.02587 0.0257187 -2.15151e-21)
(1.0436 0.0503294 0)
(1.01467 -0.00246411 -5.56663e-22)
(0.937246 0.0170119 0)
(1.01229 0.00195097 6.2974e-22)
(1.0637 0.0532818 9.02314e-21)
(1.08674 -0.0617112 -4.34408e-21)
(1.01294 -0.00204432 -1.58133e-22)
(1.01035 0.00196731 -2.9619e-22)
(0.789634 0.128016 3.83369e-21)
(0.994559 0.0386894 1.63498e-22)
(0.748238 0.22894 -1.05275e-21)
(1.0038 -0.00558324 1.88153e-21)
(1.01534 0.00901977 -9.42005e-22)
(1.01553 0.0027247 -4.93841e-24)
(1.01266 0.000105178 0)
(1.01549 0.0167471 -1.15063e-21)
(1.01746 0.0111349 8.9875e-22)
(1.01739 -0.0031476 0)
(0.892707 0.00929648 4.93533e-21)
(0.811479 -0.329168 2.51863e-21)
(1.01125 0.00281199 4.55706e-22)
(1.01024 0.325984 0)
(1.03074 0.332973 1.95537e-20)
(1.01904 0.0118112 -2.88617e-21)
(1.12279 0.198767 1.49738e-20)
(1.0103 3.928e-05 -7.48786e-22)
(0.837925 0.0680991 -2.20826e-21)
(0.919425 -0.0541014 -4.63831e-22)
(1.01418 -0.00253644 -8.52558e-23)
(1.08396 -0.0679261 0)
(1.05136 0.0655646 -3.86677e-21)
(1.19526 0.168295 -1.70447e-20)
(1.04267 0.117717 -9.04888e-22)
(1.01321 0.000975968 1.15619e-21)
(1.01278 0.000119869 1.10548e-21)
(1.00445 -8.74318e-06 2.00699e-21)
(1.0226 0.0350546 0)
(1.07548 0.0670778 -1.30599e-20)
(1.01254 0.00515641 -1.84091e-21)
(1.03215 0.0088468 4.29477e-21)
(0.895849 0.0187864 -9.83087e-21)
(1.0204 0.0112593 -3.51515e-22)
(1.05207 0.0674355 -7.73287e-21)
(1.01317 -6.85768e-05 -1.69116e-21)
(1.05294 0.0613444 0)
(1.02668 0.381342 -1.10412e-20)
(0.932559 -0.0337647 0)
(1.0156 -0.0170356 0)
(0.948496 -0.0256715 -1.5848e-21)
(0.990089 0.0362737 6.37634e-22)
(0.987336 0.0716206 -4.97676e-21)
(1.01544 0.0174065 1.63611e-22)
(1.01002 0.00122034 -1.27562e-21)
(1.0136 0.012131 0)
(1.03228 0.107162 2.33078e-22)
(1.02737 0.00187743 0)
(1.079 0.0603287 1.24325e-20)
(1.01274 0.0051496 2.61236e-23)
(0.863181 0.0611397 0)
(1.0133 0.000574775 0)
(1.01579 0.00940325 2.04278e-22)
(0.89201 0.283468 0)
(1.00352 -3.73801e-05 1.3686e-21)
(1.01261 0.0122363 0)
(1.0073 0.0185704 0)
(0.9439 0.0186489 6.89312e-21)
(1.02057 0.00154331 0)
(1.01451 0.00136648 0)
(1.0244 0.0246571 -1.64003e-21)
(1.01397 0.015155 0)
(1.01015 -0.00090388 -3.27689e-22)
(1.01505 -0.00114101 -4.00084e-22)
(1.02944 0.00357062 5.49388e-22)
(0.923149 0.122212 -3.01835e-21)
(1.02261 0.0195622 0)
(1.00675 6.26235e-05 0)
(0.989385 0.0458983 -8.76713e-22)
(1.07366 -0.0878853 3.32624e-22)
(1.01225 0.00452089 1.76377e-22)
(0.961241 -0.0289578 1.57565e-21)
(1.19473 0.152684 1.57783e-20)
(1.02086 0.00529941 3.45297e-22)
(0.647162 0.180502 0)
(1.01064 -0.00107411 -3.34428e-22)
(1.07777 0.216875 0)
(1.0171 0.00360424 -1.66603e-22)
(1.01816 -0.0028227 0)
(1.12613 0.17762 0)
(1.01776 0.0147341 0)
(1.0359 0.308356 1.30048e-20)
(1.02299 0.0191236 0)
(1.01458 0.00130339 -4.36312e-23)
(0.634788 0.195756 2.38483e-22)
(1.01692 0.00363397 0)
(1.00895 9.03892e-05 0)
(1.01227 0.000580413 -4.00475e-23)
(1.0101 0.00129616 1.21175e-21)
(1.01211 0.0113298 -1.62552e-21)
(0.998352 0.0426717 9.17084e-22)
(0.705186 0.0429384 -2.54455e-21)
(1.00401 -4.54955e-06 8.80033e-22)
(0.991907 0.22655 2.10532e-20)
(1.01678 0.00318229 -5.37248e-22)
(0.964434 -0.0403149 2.78085e-21)
(0.944591 0.297343 7.29767e-21)
(1.01646 0.0107794 0)
(1.01694 0.00521901 1.31364e-22)
(1.01461 0.0163662 -1.07432e-21)
(1.01261 -0.001435 0)
(1.09913 0.126769 -5.72158e-21)
(1.01323 0.00343754 3.46169e-22)
(1.00902 -1.91712e-05 3.42677e-22)
(1.01015 -0.000479223 -1.11618e-21)
(1.01258 0.00505767 -8.42751e-22)
(1.01678 0.00177098 -1.40823e-22)
(1.12222 0.214217 6.7412e-22)
(1.01704 0.0158378 -1.23443e-21)
(1.04673 0.0787154 1.84349e-21)
(1.0102 -0.000744934 -1.14556e-21)
(1.01028 -0.00476232 7.84383e-22)
(1.01739 0.0136499 2.94826e-22)
(1.01697 0.00708208 1.16396e-21)
(0.998461 -0.025115 -1.44125e-21)
(1.00962 0.000435553 -9.76476e-22)
(1.08806 0.107469 0)
(0.983302 0.0452057 -9.71442e-22)
(1.00995 -0.000842244 0)
(0.993003 0.240875 0)
(1.02384 0.389708 -2.79223e-20)
(1.00617 -8.26595e-05 1.38859e-21)
(0.994697 -0.0448628 -5.98382e-22)
(1.00496 -3.15468e-05 -4.0809e-22)
(1.02878 0.0594622 -8.21184e-23)
(1.06211 0.0534129 -1.5608e-20)
(1.0141 -0.00248089 8.69142e-23)
(1.05055 0.0583299 0)
(1.01398 0.012913 0)
(0.976922 -0.0404032 -2.35629e-21)
(1.00572 -4.15356e-05 -1.09277e-21)
(1.0483 0.021741 0)
(0.933958 -0.0808024 -5.06804e-22)
(0.940984 -0.0187345 -4.98083e-21)
(1.07293 0.0151364 1.55202e-21)
(1.01672 0.00188634 1.72672e-22)
(0.971375 0.0331344 -2.06277e-21)
(1.09896 0.0877007 -2.14266e-20)
(0.842233 0.0546629 2.28369e-21)
(1.01591 0.000984854 -1.1865e-22)
(1.03222 0.0188463 1.38953e-22)
(1.01296 0.000856843 -1.15341e-21)
(1.01699 0.0080334 -3.25459e-22)
(1.01096 0.00266318 1.09506e-24)
(1.00655 -8.56321e-05 1.789e-22)
(1.0089 0.000358509 4.63966e-22)
(0.983499 -0.0481246 -3.63578e-22)
(1.00878 0.00770324 -1.096e-21)
(1.00752 7.86711e-05 0)
(1.00866 -0.000173427 -1.86297e-22)
(1.00718 -0.000162527 -3.3026e-22)
(1.0177 0.0104751 1.8678e-22)
(0.947495 -0.0170239 8.00103e-21)
(1.09626 0.0878575 2.23324e-20)
(1.01075 0.000191915 1.02157e-21)
(1.01411 0.0143469 0)
(1.01471 0.00780697 -4.38119e-22)
(1.01441 0.00784542 4.56304e-22)
(1.01405 0.00186461 -1.32613e-21)
(1.01016 0.00151703 -6.0951e-22)
(1.03703 0.0155387 1.46594e-21)
(1.0088 -0.000243025 0)
(1.00977 0.00101543 0)
(1.00503 4.92933e-05 0)
(1.02012 0.00946896 1.98243e-22)
(1.00652 0.00726043 -1.95553e-21)
(1.01553 0.00107132 -4.02766e-22)
(1.18255 0.147515 3.90522e-20)
(0.927454 -0.140262 0)
(1.03151 0.0273386 3.91407e-21)
(1.00967 0.000907776 -5.50052e-22)
(1.13963 0.109501 -4.35284e-21)
(1.00892 -4.9979e-05 1.68027e-22)
(1.00879 -0.000201377 6.87209e-22)
(1.01542 0.00162456 3.98501e-22)
(1.06402 0.0173899 -1.31228e-21)
(1.01728 0.0146255 -1.13798e-21)
(1.01471 0.00162592 0)
(1.01025 -0.000354454 0)
(1.00935 0.000408132 1.14387e-21)
(1.01655 0.0173013 0)
(1.00886 -0.000435202 0)
(1.013 0.0199383 0)
(1.01307 0.0032989 0)
(1.01979 0.0108715 -6.46274e-23)
(1.01098 0.00272826 1.17335e-23)
(1.03198 0.0184373 0)
(0.836504 -0.143414 -5.07491e-22)
(1.01001 0.00115692 -6.43884e-22)
(1.02183 0.0119092 -4.76445e-22)
(1.00783 0.000211898 -3.0825e-24)
(0.98721 0.190672 -1.52673e-21)
(0.92374 0.0266755 1.00181e-21)
(1.04947 0.0347478 5.33344e-21)
(1.01727 0.0110599 -1.40851e-21)
(1.02067 -0.0113094 0)
(1.00775 -0.00742811 -2.85364e-21)
(1.03042 0.0187128 2.62093e-21)
(0.799109 0.0312855 -2.39542e-21)
(1.00434 1.15045e-05 -1.08257e-21)
(0.925543 -0.0211701 0)
(1.0218 0.0121585 0)
(1.10795 0.117125 0)
(1.01009 0.00175485 2.57116e-21)
(1.01046 0.000203771 0)
(1.01225 -0.00146769 2.79451e-22)
(0.898786 0.109301 -1.18361e-21)
(1.012 -0.00144075 0)
(1.05043 0.0354249 -5.92423e-21)
(1.02473 -0.00378104 3.54699e-22)
(1.13072 0.149908 -1.93122e-20)
(1.01334 -0.0105514 -1.49766e-21)
(1.00591 0.000116212 -9.93171e-22)
(1.00739 7.47538e-05 -1.21738e-21)
(1.00682 -7.04811e-05 -6.24907e-23)
(1.01214 0.00436061 0)
(1.05733 0.0368834 6.16421e-21)
(1.03989 0.147047 -5.40319e-21)
(1.08242 0.0856643 0)
(1.02623 0.0763378 3.04488e-21)
(1.02354 0.00253555 0)
(1.00901 -0.000505182 -1.62606e-22)
(1.00587 0.000174781 0)
(1.01103 0.00278049 0)
(1.0114 0.000379843 0)
(1.02361 0.0109923 3.44367e-22)
(1.04458 0.0791056 -9.78489e-21)
(1.01012 0.00722261 9.9188e-22)
(1.06814 0.0371491 0)
(1.02314 0.00248502 0)
(1.01975 0.00258621 9.84251e-22)
(1.02812 0.00193294 1.77814e-21)
(1.01563 0.00289716 0)
(1.14014 0.116907 0)
(1.02892 0.0783376 -5.27192e-21)
(0.988422 0.0394806 0)
(1.09373 0.155505 1.22729e-20)
(1.01954 0.0770286 -2.66208e-20)
(1.0234 0.0188983 -1.88616e-21)
(1.0104 0.00189659 -7.70849e-22)
(1.00899 -0.000470263 1.65618e-22)
(1.02565 0.00796764 -1.05612e-21)
(1.01351 0.000798802 0)
(0.997159 0.114648 0)
(1.07153 0.0690832 -5.96685e-21)
(1.09438 0.126557 -5.08085e-21)
(1.01025 0.000203997 1.17563e-21)
(1.02012 0.00919056 0)
(1.01782 0.0024728 1.13689e-21)
(1.01159 0.000346182 1.33994e-21)
(0.823941 0.0371026 0)
(1.01302 -0.0193343 0)
(1.00893 -0.000272991 -7.26043e-22)
(1.01212 -0.0014065 -5.90954e-22)
(1.00573 -6.36838e-06 0)
(1.01101 0.00277826 -1.32906e-21)
(1.01045 0.000974836 0)
(1.01359 0.00133086 0)
(1.16446 0.153409 3.74765e-20)
(1.01174 -0.00157474 -1.06998e-21)
(1.01108 0.00106746 3.38166e-21)
(1.01024 0.000199511 7.16243e-22)
(1.00876 0.000209959 5.93962e-22)
(1.01098 0.00270493 -6.69759e-22)
(1.01675 0.00778604 -7.3379e-23)
(1.00853 0.0186499 2.39305e-23)
(1.00874 0.000192553 -2.3945e-21)
(1.02337 0.00489574 0)
(1.01027 -0.000427446 -3.7575e-24)
(1.04374 0.011699 2.9212e-22)
(1.12738 0.191617 -1.69762e-20)
(1.01306 0.0146411 0)
(1.00379 0.0524403 0)
(1.01136 0.00217892 -5.98509e-22)
(1.0303 0.00911038 -1.73729e-21)
(1.06902 0.101835 6.1886e-21)
(0.980116 0.0333125 -1.22071e-21)
(1.01327 0.000620018 0)
(1.00734 9.62459e-05 0)
(1.00844 0.000168396 0)
(1.00787 -0.000291689 0)
(1.0039 -5.1891e-05 -1.67624e-21)
(1.02266 0.0201007 -1.89134e-21)
(1.01855 0.0248459 0)
(1.01669 0.0081694 0)
(1.01294 0.000181862 6.21218e-22)
(1.0207 0.00100768 6.98815e-22)
(1.09575 0.12688 0)
(0.992415 0.0286984 1.24418e-21)
(1.00395 2.58526e-05 -9.68327e-22)
(1.00664 4.83559e-06 1.19892e-21)
(1.00299 0.00796756 1.09778e-21)
(1.00366 0.057486 0)
(1.01211 0.00344273 1.05865e-21)
(1.00015 0.109684 0)
(1.00794 0.000158319 2.20813e-21)
(1.00993 -0.000836054 -6.26448e-22)
(1.03147 0.0281325 3.28808e-21)
(0.979492 -0.0888842 0)
(1.01807 -0.123243 1.44889e-21)
(1.01157 0.0552717 2.95398e-22)
(1.1701 0.149801 -3.74898e-20)
(1.00979 -0.000705717 0)
(1.02537 0.00867059 1.02561e-21)
(1.00214 -0.0503072 -6.8421e-22)
(1.00099 0.00617013 -2.091e-21)
(1.01202 0.00427351 -1.30309e-21)
(0.994988 -0.0479068 7.11951e-22)
(1.01346 -0.00477569 0)
(0.958348 0.188544 0)
(0.965522 -0.0948085 0)
(1.00656 -0.000184605 0)
(1.00976 -0.000664848 0)
(1.02095 0.00151548 -2.14794e-23)
(1.00966 0.00374126 -7.88338e-22)
(1.00993 -0.000746603 -1.75006e-22)
(0.998863 0.046663 1.69274e-21)
(1.01724 0.0620392 1.69441e-22)
(1.00863 4.88118e-05 -1.12757e-21)
(1.01664 0.00837309 0)
(1.01774 0.0110787 -7.16654e-22)
(1.0569 0.0601763 -9.14705e-21)
(1.01211 0.00459898 -7.12815e-22)
(1.01238 0.000596111 -8.14265e-22)
(1.02717 0.0107668 -7.86049e-22)
(1.01692 -0.000796679 0)
(1.01212 -0.000737817 0)
(1.01515 0.0447978 -1.06884e-21)
(1.03577 0.138616 0)
(1.06031 0.123615 -1.69835e-21)
(1.01354 0.000916253 2.19903e-22)
(1.00958 0.000188048 -6.71465e-23)
(1.00885 6.75136e-05 3.46162e-22)
(1.01 0.000607219 0)
(1.01818 0.00650766 0)
(1.02854 -0.00160535 -5.57273e-22)
(1.01036 0.000811465 2.54287e-21)
(1.00748 9.18444e-05 0)
(1.01424 0.00436137 1.50326e-23)
(0.962827 0.0266075 1.1381e-21)
(1.00885 0.000278639 1.00606e-21)
(1.01765 0.00108168 0)
(0.989556 0.101167 8.50523e-22)
(1.01054 0.000921158 0)
(1.00914 0.000593678 0)
(1.01697 0.00320479 -2.21545e-23)
(0.829731 -0.288887 -9.11793e-22)
(1.00948 0.000189149 3.58773e-22)
(1.02011 0.00257867 -5.3335e-22)
(1.00897 0.000295563 0)
(1.01807 0.000827449 0)
(1.00938 0.000165827 1.05128e-22)
(1.02406 0.0316202 0)
(1.11675 0.143748 1.37217e-20)
(1.01787 0.00122932 4.09382e-22)
(0.972805 0.180257 -3.29365e-21)
(1.02451 0.0427923 -2.09464e-21)
(1.16121 0.130988 2.40679e-20)
(1.02758 0.0952368 0)
(1.0103 0.00172227 -1.1471e-22)
(0.999412 0.00585033 -3.5333e-21)