/*--------------------------------*- C++ -*----------------------------------*\
| =========                 |                                                 |
| \\      /  F ield         | OpenFOAM: The Open Source CFD Toolbox           |
|  \\    /   O peration     | Version:  v2012                                 |
|   \\  /    A nd           | Website:  www.openfoam.com                      |
|    \\/     M anipulation  |                                                 |
\*---------------------------------------------------------------------------*/
FoamFile
{
    version     2.0;
    format      ascii;
    class       volVectorField;
    location    "450";
    object      ddt0(U);
}
// * * * * * * * * * * * * * * * * * * * * * * * * * * * * * * * * * * * * * //

dimensions      [0 1 -2 0 0 0 0];


internalField   nonuniform List<vector> 
18758
(
(-0.00502328 0.000316233 2.30605e-17)
(-0.0255545 -0.028019 5.47231e-17)
(0.00122675 -3.4569e-05 8.81933e-19)
(0.102063 0.0921197 -7.10866e-18)
(-0.00992533 0.0293695 -7.64543e-19)
(-0.0479508 -0.0237939 3.74268e-17)
(0.0114958 0.0011308 6.51165e-18)
(0.000595951 9.09623e-05 5.34471e-21)
(0.0272441 0.0274678 -2.05728e-17)
(-0.000918834 0.000538111 6.13397e-19)
(-0.000635315 0.000310432 4.40399e-18)
(-0.0012205 0.00714013 -8.31601e-18)
(0.000677044 2.093e-05 2.52221e-18)
(-0.047799 0.0278237 5.41016e-18)
(-0.000806453 -0.00212285 1.29534e-18)
(-0.00164532 0.00500926 2.22521e-18)
(-0.00561082 0.00604998 -2.15527e-17)
(0.000318375 -1.53821e-05 -1.35481e-18)
(-0.000322393 -0.000668376 2.34144e-20)
(-0.00118121 0.000286631 -2.65191e-19)
(0.0118092 0.00623421 -2.15873e-18)
(6.06816e-05 -5.10012e-05 2.4164e-19)
(0.0109458 0.00556159 1.32347e-17)
(0.0234307 0.0600682 -5.29861e-17)
(-0.00755126 -0.0232311 -4.85113e-17)
(0.000665747 9.03975e-05 2.25789e-20)
(-0.00327797 0.0059259 -2.04281e-18)
(-0.0291816 0.0197069 -2.65098e-17)
(-0.0894176 -0.0312025 1.8637e-17)
(-0.00462055 0.00403432 -1.65717e-17)
(-0.0194519 0.0122558 -1.61023e-18)
(0.0577976 0.00850519 -8.4384e-18)
(0.00037725 3.9422e-06 -3.45398e-18)
(-0.00103466 -0.000377609 -3.37964e-18)
(-0.0166113 0.030413 -2.07344e-18)
(6.32322e-05 0.000269671 -3.0581e-18)
(0.000270913 -1.04576e-06 3.10326e-19)
(-0.000440312 -2.13268e-05 5.81832e-20)
(-0.000551956 -1.48388e-06 2.32732e-19)
(-0.00427851 0.00718096 1.55678e-18)
(-0.000435196 -8.01744e-05 -1.53684e-20)
(-0.00062552 0.00149545 -2.48824e-17)
(0.000311836 -0.000236528 9.44469e-20)
(-0.000800658 0.0010762 -3.51749e-18)
(-0.00899092 0.00300712 1.54903e-17)
(0.000945962 -2.73001e-05 -1.21521e-18)
(0.012407 0.00522837 -3.37407e-17)
(-0.000537162 0.000328255 1.33206e-18)
(-0.000907994 0.000571664 -1.4083e-18)
(0.000363691 -0.000272758 3.20753e-20)
(1.74414e-05 -0.00886677 5.40758e-17)
(0.0546683 0.0306805 -4.57305e-18)
(0.000839916 -0.000115703 -2.87088e-19)
(-0.000642341 0.000286017 -3.81396e-18)
(-0.0382822 0.0171269 2.91651e-17)
(-0.0353069 -0.000943301 -4.93723e-18)
(0.000270376 1.48389e-06 9.90415e-19)
(-0.000963861 0.00454912 2.98995e-18)
(-4.85899e-05 0.000298292 9.62817e-18)
(-0.0462948 0.0318329 -1.92852e-18)
(-0.0045621 -0.000903369 1.40714e-18)
(0.0107938 0.00145124 -9.28674e-18)
(0.0133439 0.0153135 -2.92062e-17)
(-0.000317275 0.00113279 1.77019e-17)
(0.00085718 -0.000109205 -5.42833e-19)
(1.24321e-05 0.00043027 -7.91983e-19)
(-0.00561659 0.00745057 2.21197e-18)
(0.000409289 7.36193e-06 4.08277e-18)
(-0.000316704 -5.60158e-05 -1.31247e-19)
(0.0523164 0.0299542 -9.89741e-19)
(0.0310082 0.0275561 -3.80666e-18)
(-0.000135444 0.000892073 5.87344e-18)
(0.000358782 -0.000275858 8.75831e-20)
(0.00560023 0.0170582 9.05656e-17)
(0.000347397 1.12426e-05 -1.24206e-19)
(1.33779e-06 0.000324097 -8.44032e-18)
(0.00452137 0.0435925 3.67183e-18)
(-0.00316765 0.0308398 1.0405e-17)
(-0.00289469 0.0027172 7.08787e-18)
(0.009317 0.0051189 -6.74051e-17)
(0.00646444 -0.00270814 -6.94092e-17)
(-0.0113916 0.00392838 -3.20025e-17)
(-0.0443716 0.0327566 -3.44239e-18)
(-0.0462836 -0.0162524 3.59389e-17)
(0.00242639 0.0450238 -1.15938e-17)
(-0.000767745 0.0018399 -1.565e-17)
(0.00156006 0.00209065 -5.89993e-17)
(0.0131522 0.0143718 2.88097e-17)
(0.0052845 0.000231879 7.44647e-17)
(-4.79423e-05 0.000348264 5.9813e-18)
(-0.0460564 -0.0160537 -5.45939e-17)
(-4.54338e-05 0.000284318 -8.39508e-18)
(0.00366778 0.00360777 8.35124e-17)
(-0.000663533 0.00151927 2.63886e-17)
(0.00379672 -0.00566388 2.00408e-18)
(0.00332138 0.00316413 -1.01866e-17)
(0.000465073 0.0440904 7.53682e-18)
(0.000348072 3.78183e-06 -1.84122e-18)
(3.33163e-05 6.14842e-05 -2.60937e-19)
(0.0136455 0.00792723 -4.03603e-18)
(-0.00115086 0.000118021 -3.87992e-18)
(-0.0488738 -0.0137905 -1.42055e-18)
(-0.00380871 0.0198497 1.54741e-17)
(-0.000264213 -0.00196059 -1.19895e-18)
(0.0607421 0.0058892 7.71708e-18)
(-0.00521911 0.00742479 1.62326e-17)
(0.0399067 0.063189 6.47722e-18)
(0.00589143 0.0331536 -9.79878e-18)
(-0.000606072 0.000204277 1.10026e-19)
(-4.21839e-05 0.000876071 3.40561e-18)
(0.00374589 0.00263122 -5.22384e-17)
(0.00111783 0.000697022 -2.97894e-17)
(0.00066029 0.00011299 4.84467e-19)
(-0.000249086 0.000679464 2.2508e-19)
(-0.0510278 0.00708109 2.25609e-17)
(-0.025653 -0.00409798 4.40197e-17)
(-0.0727211 -0.00562515 -2.08081e-17)
(-0.000723414 -0.00223129 -2.72943e-18)
(0.00532239 0.00628924 3.51094e-17)
(0.00687552 -0.00593061 -8.84373e-18)
(0.00117426 0.00107918 9.24467e-18)
(5.17635e-06 7.02276e-05 2.67245e-18)
(-0.0488102 -0.00258793 -4.81838e-17)
(-0.00188293 0.00564982 2.15241e-17)
(-0.00793987 0.00173229 -2.94021e-18)
(-0.0101611 0.000219299 -1.41121e-17)
(-0.00101852 -0.0279777 -4.74063e-17)
(0.0427053 0.0363312 7.95494e-18)
(0.00346353 0.00379001 -6.44264e-17)
(0.000779697 1.16872e-06 3.00426e-18)
(-0.00576567 0.00647553 -5.98872e-18)
(-0.00330344 0.00564996 -1.51697e-18)
(0.0145175 0.00301722 -9.24896e-18)
(-0.00209741 0.00178896 3.62548e-18)
(-0.000449921 0.0058242 4.66954e-18)
(-0.000514003 0.00120249 3.25417e-18)
(0.00522956 0.0423574 -1.26051e-17)
(-0.00420753 0.00768024 -5.06891e-18)
(8.09426e-05 7.01741e-05 -2.78038e-18)
(-0.00176424 0.00314962 -1.2266e-17)
(-0.00275179 0.00282003 -5.62417e-18)
(-0.00418332 0.00373477 -5.85264e-19)
(-0.000155742 0.000630186 2.45625e-18)
(-0.0373533 0.00262824 7.5593e-17)
(-0.000421871 -0.000106082 1.67765e-18)
(-0.000373233 -0.00080308 6.16312e-19)
(-0.0475867 0.00552178 -6.49434e-18)
(0.122787 0.016439 1.55531e-17)
(-0.0200475 0.0111036 -1.11039e-17)
(-0.00579727 0.0466484 -3.81093e-17)
(-0.00917125 0.00252447 -2.30216e-17)
(-0.0224723 0.0613127 1.26405e-17)
(-0.000509062 0.0016435 -6.59564e-18)
(0.000170002 -4.38174e-05 -1.2974e-18)
(0.0166296 -0.000652032 -1.10691e-17)
(-0.000299008 0.00085145 5.43495e-20)
(0.00676903 0.00600367 -4.58192e-17)
(-0.000544321 0.000332317 -2.692e-19)
(-0.000231944 0.000794787 -9.96987e-19)
(4.72471e-05 -3.06675e-05 1.79385e-18)
(0.000258124 0.000236681 -1.4298e-18)
(-0.0413413 0.0329591 -1.54523e-18)
(0.00404077 0.00192072 -1.04956e-16)
(-0.000228758 0.000784387 5.20311e-18)
(-0.00443069 -0.00102951 -6.53434e-18)
(-0.0856108 -0.0315938 -4.0547e-17)
(-0.000416692 -0.000620715 -7.09587e-19)
(-0.0356369 0.00349673 -3.11571e-17)
(-0.00725461 -0.00422258 1.37155e-17)
(-0.0491193 -0.0177973 7.49194e-17)
(0.00150833 -0.0116522 6.08403e-17)
(0.000317825 -9.4263e-06 1.50784e-18)
(0.00443585 0.00204975 3.89207e-17)
(-0.0254548 0.0227852 -3.43504e-17)
(-0.0400427 0.0329719 -2.94318e-18)
(0.019901 0.0593212 3.05102e-17)
(-0.0765938 -0.0282955 -6.26851e-17)
(-0.000331745 0.00115993 -9.13539e-18)
(-0.00176421 0.00312147 3.44398e-17)
(-0.000406768 0.000265027 -5.97832e-19)
(0.000652151 7.39835e-05 3.35492e-18)
(-0.0231059 -0.000531511 -1.34125e-17)
(-0.0205938 0.0602176 -1.17665e-17)
(0.000276179 -0.000406263 1.51683e-19)
(-0.00283402 -0.000296402 5.82653e-18)
(-0.0136255 0.0585694 -1.04279e-17)
(1.25933e-05 9.06077e-05 5.40795e-18)
(-0.0247526 -0.00594124 -5.71872e-17)
(0.000352737 -0.000224826 -5.29029e-19)
(-8.75481e-06 4.18725e-05 4.42147e-18)
(-0.00219478 0.00176672 7.13163e-18)
(0.0411769 0.0339155 -9.63363e-18)
(-0.00038028 0.000733467 1.84296e-18)
(-0.0191289 0.010179 -2.89543e-18)
(-0.00149763 0.00103705 -5.79722e-22)
(0.0143892 0.0134519 8.69463e-18)
(-0.00116959 0.000243516 -6.81216e-19)
(-0.00764565 -0.00464421 1.3049e-18)
(0.000332903 0.000148257 3.28568e-18)
(0.000327972 -0.000239494 -5.75413e-20)
(-0.00124124 0.00321432 -9.0595e-18)
(-0.000545275 0.000340939 -2.67717e-19)
(-0.00095207 -0.000584364 1.15331e-17)
(0.00900578 0.00896039 1.66934e-17)
(0.000717205 2.87279e-05 1.75142e-18)
(-0.00143359 0.00100198 9.80707e-19)
(-0.00103641 0.0201727 1.02945e-17)
(0.000110671 -3.61198e-05 1.1481e-18)
(0.0224373 0.00594814 5.94638e-18)
(-0.000922972 0.000619325 2.48077e-18)
(0.000328612 -3.81666e-05 -1.86736e-18)
(-0.000205245 -0.00188098 -2.73311e-19)
(-0.000260593 0.000823801 9.5782e-18)
(-0.00065956 -0.00061861 -1.62463e-18)
(-0.00236002 0.0027792 -2.87058e-18)
(0.00621463 0.00260312 5.32383e-17)
(-0.00242607 0.00290141 7.47709e-18)
(-0.0012709 0.00491473 -8.49979e-17)
(0.000562628 -6.61296e-05 -2.8345e-19)
(-0.0495729 -0.0249267 -7.63254e-17)
(0.000334731 -3.39738e-05 1.92693e-18)
(-0.000602555 0.00022071 2.26781e-19)
(-0.00711824 0.0417834 6.82695e-18)
(-0.04518 0.00698894 1.47085e-17)
(-0.00466932 -0.0120173 -2.95492e-20)
(-0.00197288 0.0196699 -8.35267e-18)
(0.00438316 0.000150748 1.35985e-17)
(-0.0023121 0.00104954 2.89275e-19)
(0.000362736 -0.000405786 -4.94159e-19)
(0.00992114 0.00760681 7.53848e-18)
(3.93175e-06 0.000391754 -1.6145e-20)
(0.0141864 0.0124827 -1.03668e-17)
(0.013484 0.00471529 -4.60512e-17)
(-0.000700913 0.0462949 1.71866e-17)
(0.000684399 1.72596e-05 -1.93929e-18)
(7.63969e-06 6.65419e-05 -4.39614e-18)
(0.000319291 -0.000395481 3.84976e-19)
(0.000934251 -1.20136e-05 -1.66866e-18)
(-0.0501567 -0.0029163 6.47935e-17)
(8.29187e-05 -0.000584588 -7.25841e-18)
(0.000333144 0.000140759 -2.59004e-18)
(-0.0110109 -0.00561924 -3.42651e-17)
(0.0537825 0.0599202 1.6401e-18)
(-0.000926234 3.25306e-05 -4.89398e-18)
(-0.00039584 0.051624 3.91666e-17)
(0.00931651 -0.000506323 3.48149e-17)
(-0.00199894 0.0455437 -2.47958e-19)
(3.78474e-05 0.000207855 -9.00596e-19)
(0.00504516 -0.00400298 2.86444e-17)
(-0.000593555 0.00188891 -5.30575e-18)
(7.72947e-05 0.000402361 -1.15153e-17)
(-0.0335855 0.00336012 -1.3204e-17)
(-0.00078144 0.00196177 2.63404e-17)
(-0.000623357 0.00187712 1.51836e-17)
(-0.000556751 -0.00146251 4.65291e-18)
(0.00161575 0.00082427 -1.67553e-17)
(0.00653516 0.0574803 1.4659e-17)
(-0.0010869 0.00495339 4.86057e-18)
(-0.000713393 -0.000548759 7.83709e-18)
(-0.0030871 0.00243153 -2.21369e-18)
(0.000414439 -0.000541022 -2.58106e-19)
(-0.00196383 0.0156138 6.06861e-18)
(0.000131379 0.000474667 -1.49727e-19)
(0.00841514 0.00922974 -1.80547e-17)
(-0.00089775 0.000653913 1.05531e-18)
(-0.00819471 0.0413827 -2.59817e-17)
(0.0245224 -0.000521415 -9.73951e-18)
(0.000684903 -6.13822e-05 -2.67975e-19)
(-0.000584803 0.000167491 5.5006e-18)
(-0.00533575 0.00378208 -1.9827e-17)
(-0.000527474 0.000155938 -2.03273e-18)
(-0.00276145 -0.000373517 -3.51731e-18)
(0.00902959 0.00787814 -1.03528e-17)
(-0.0768516 -0.0262649 -1.57181e-17)
(-0.0748829 -0.00418778 -8.32055e-19)
(-0.000135647 0.000586161 -3.00003e-18)
(0.00123364 -0.00814763 3.17412e-18)
(0.166676 -0.0208755 4.80201e-17)
(-0.00875138 0.0066831 3.98321e-17)
(-0.000431807 0.000768285 -8.33704e-20)
(-4.20548e-06 -0.000422799 1.19272e-19)
(-0.000141817 0.00012302 -3.75355e-18)
(0.000216999 -0.000566062 -8.41472e-18)
(-0.00014528 0.00060075 2.37846e-18)
(0.191151 0.025076 -1.12705e-17)
(-0.0107213 -0.00557788 1.06493e-16)
(0.093681 0.0553247 -7.35226e-20)
(0.00889626 0.00183117 6.26176e-18)
(0.0116589 0.00538167 3.7391e-17)
(0.000263245 -0.000370127 1.25492e-19)
(0.00120856 -4.04074e-05 -1.13494e-18)
(-0.0025814 0.00106387 3.27305e-19)
(-0.00139958 0.00264094 -3.20837e-17)
(-0.000276896 0.00164622 -1.5786e-17)
(-0.00291275 0.00253003 3.63639e-18)
(0.0142747 0.00333755 2.41456e-17)
(-0.000279633 4.71294e-05 -1.55679e-18)
(0.00902025 -0.00336834 3.51421e-17)
(-0.0002439 -0.000647203 -1.45386e-18)
(0.075688 0.0394364 6.64495e-18)
(-0.0469272 -0.0180426 -7.07259e-17)
(0.000927188 -2.09768e-05 7.50679e-19)
(0.0693537 0.0278138 9.89e-18)
(-0.00169233 0.00121164 2.70643e-18)
(-0.00034484 -5.83302e-05 -4.02055e-19)
(-0.000652613 -0.000317059 -1.19557e-17)
(0.00797806 -0.00209302 -6.24634e-18)
(-0.00119669 -0.0012713 1.53416e-18)
(7.21717e-05 0.000360034 9.15076e-18)
(0.0187696 0.00193393 3.53766e-17)
(0.0940431 0.0536688 -2.21737e-18)
(9.84847e-05 -3.9509e-05 4.16948e-18)
(0.0173268 0.00101927 -6.12933e-17)
(0.00824242 -0.0044532 -2.1017e-17)
(-0.00400049 -0.0115823 1.87999e-17)
(0.000163344 0.000437071 -1.26733e-18)
(0.000978288 -9.25438e-07 -3.10624e-18)
(0.0262496 0.0412398 -1.48155e-19)
(-0.000894013 3.37811e-05 5.57652e-18)
(0.000308043 -0.00039132 -6.1976e-19)
(-0.000157015 -0.000384986 6.2523e-19)
(-1.94721e-05 0.00128171 9.00114e-18)
(-0.00741073 -0.00373184 -1.57587e-17)
(0.00801872 -0.00262415 1.02608e-17)
(-0.000190753 9.91823e-05 -3.87811e-18)
(-1.24891e-05 -0.000474009 1.4737e-18)
(-0.00120245 0.000371154 -2.35935e-19)
(-0.00229139 0.00157951 -1.80821e-18)
(0.000421092 -0.000518004 -2.37775e-19)
(4.72479e-05 -4.99475e-05 1.64602e-18)
(0.0403213 0.0387855 1.30074e-17)
(-0.00272829 -0.000635088 -7.86265e-18)
(0.00116601 -0.00840458 3.00806e-17)
(0.105131 0.0966789 -1.44552e-17)
(-0.000297359 0.00168179 1.03097e-17)
(-0.000379104 0.000720526 -1.60759e-18)
(0.00100201 3.77235e-06 -1.44368e-18)
(0.0790814 0.0403324 6.75814e-18)
(0.0746096 0.0290887 8.96339e-18)
(0.000249902 -0.000410401 1.19454e-19)
(0.00034667 -4.723e-05 2.69241e-18)
(0.000214661 -0.000399636 7.25652e-20)
(-0.000497565 0.00120638 -2.34355e-18)
(-0.00218999 0.00103281 -1.74956e-18)
(-0.00253395 -0.0231375 6.69916e-17)
(1.25619e-05 5.03779e-05 1.12222e-18)
(-2.61291e-05 0.00073161 9.92054e-18)
(0.000364549 -0.000306785 1.30245e-20)
(-0.00165887 0.00531021 -5.56496e-18)
(-0.00410171 0.00356741 2.56556e-18)
(0.0210102 -0.00101355 -7.56307e-17)
(-0.00596083 -0.000436272 -8.49994e-19)
(-0.00121596 -0.000646304 -5.06252e-18)
(0.0420138 0.0290978 1.32631e-17)
(-0.00478641 0.000443602 6.01318e-18)
(0.000673238 -0.000138351 3.13167e-18)
(-0.000704382 0.001932 4.70743e-18)
(0.000975871 0.00675545 5.43486e-17)
(-0.0240262 0.00755156 -1.83796e-19)
(-0.014451 0.0603705 1.36682e-17)
(0.000456086 0.000139381 -1.58552e-18)
(-0.00127167 0.000177159 1.16687e-18)
(-0.0726638 -0.0260762 -2.62924e-17)
(-0.074654 -0.0264349 3.89548e-17)
(-0.000691549 0.000544592 -3.8481e-19)
(0.00025293 -0.000361011 1.95631e-19)
(0.00493601 0.00353105 -1.20031e-17)
(-0.000424808 -0.000473359 -5.60471e-19)
(-0.00157394 0.00227275 1.28842e-17)
(-0.0869414 -0.0299597 -2.32632e-17)
(0.135966 0.107764 -3.55773e-18)
(-0.0286974 0.0240801 4.17549e-18)
(-0.0011561 0.00040545 -6.00211e-19)
(0.0237987 -0.000637036 3.54059e-17)
(-8.86063e-05 0.000435242 4.45416e-18)
(-0.000507521 0.000344656 4.85466e-19)
(-1.06436e-05 0.000349533 4.19035e-18)
(-0.000573453 3.43449e-05 -5.37602e-19)
(-0.0164267 0.0260439 8.73425e-19)
(-0.000630771 0.000352787 -2.87799e-18)
(0.016248 0.00160377 6.9872e-17)
(-0.00371565 0.00396302 -5.61373e-18)
(-0.000461988 -0.00140538 -1.00784e-18)
(0.000101842 -3.23239e-05 -1.30416e-19)
(-0.0524403 -0.00687828 -4.66247e-17)
(-0.027406 0.0235738 -4.52612e-18)
(0.0257632 0.0285304 -4.11111e-18)
(-0.000100111 0.000410557 -3.11791e-18)
(-0.0150376 0.00769112 1.26335e-17)
(2.00081e-05 -0.000406404 -1.11003e-19)
(-0.000554498 0.00149539 9.58815e-18)
(-2.78557e-05 8.18361e-05 -1.10077e-17)
(0.000689078 -4.20213e-05 8.38402e-19)
(-0.0815042 -0.000997029 -5.82039e-17)
(0.0243861 0.00689146 -8.4035e-19)
(-0.00584648 0.00739461 -2.74211e-17)
(0.00246686 0.00246172 1.07927e-16)
(0.00100004 1.81458e-07 -2.87126e-18)
(0.0110455 0.0386349 9.21304e-19)
(0.0253428 0.015333 2.25252e-18)
(0.00175119 0.000704865 4.69194e-18)
(0.000644937 0.000120823 2.14071e-19)
(0.101465 0.103219 1.09472e-17)
(-0.000174585 -0.000256175 -2.53186e-19)
(-0.000385974 -0.000924867 -2.84891e-18)
(0.000661762 8.27515e-05 -1.13719e-18)
(-0.0167398 0.0269585 -8.68911e-18)
(-1.26699e-05 3.67172e-05 -4.84939e-18)
(-0.000788429 0.00111786 -1.93108e-18)
(-0.00569433 -0.000602785 6.4322e-18)
(-0.0570053 -0.00756103 5.34373e-17)
(-8.20184e-07 -0.000387481 -4.62372e-19)
(-0.0124911 0.028447 -1.39058e-18)
(0.000210929 0.00657217 7.78199e-18)
(0.000157068 0.000462393 1.41825e-18)
(-0.00231928 0.000573521 1.049e-17)
(-5.98204e-05 0.000371218 1.54493e-17)
(0.000343088 -5.53351e-05 -4.47108e-19)
(-0.00032126 6.52935e-05 -1.70068e-18)
(-0.000957227 0.0135674 8.23433e-18)
(-0.00223487 0.00149748 2.06266e-17)
(0.00111699 -0.00192453 4.48955e-17)
(0.00136869 0.00110533 -1.95652e-17)
(5.35079e-05 0.000642812 -9.26774e-19)
(-0.00504205 0.0036968 6.62992e-18)
(0.101861 0.0393735 -8.69599e-18)
(0.0850488 0.0667494 -4.11791e-18)
(-0.000756111 -0.0111474 1.88698e-17)
(-0.0201912 0.0245414 1.43115e-18)
(-0.000420155 0.000798358 9.39815e-19)
(0.000676554 -3.50077e-05 -5.60915e-19)
(0.000286238 0.000123059 4.68398e-18)
(-0.000269914 0.00084416 -5.20187e-18)
(-0.0301107 0.0230868 -5.37534e-20)
(-0.00288423 0.00634381 -3.68844e-18)
(-0.00623184 0.00178338 -1.0722e-17)
(-0.00160506 0.00119511 -2.75157e-18)
(-0.000549 0.00178121 1.82453e-17)
(-0.0294018 0.0557094 -1.52171e-17)
(-0.00289173 0.0203058 -2.10866e-17)
(-6.68817e-05 0.000347212 1.10894e-18)
(-5.18592e-05 -0.000414199 -5.17701e-18)
(0.00379496 -0.000136355 -6.67301e-17)
(-0.000445534 0.000993254 1.07148e-17)
(0.132999 0.113714 3.10345e-18)
(0.00113451 1.14755e-06 4.87159e-19)
(1.09359e-05 0.000751226 9.57235e-18)
(0.128731 0.0483687 -6.08734e-18)
(-0.000875298 0.00137356 -7.4315e-18)
(-0.000601073 8.35169e-05 1.59483e-18)
(0.00418425 0.0568602 4.90503e-18)
(-0.0153106 0.0310527 2.85434e-18)
(-0.00251621 0.000958362 -1.08489e-18)
(0.00336484 0.00395023 7.27531e-17)
(-6.7167e-05 0.000321079 -1.81896e-18)
(-0.000386153 0.000988682 -1.13154e-17)
(-0.00135507 0.00510096 9.83946e-18)
(0.00118571 0.0069566 -4.83096e-17)
(-0.000944004 0.00211408 2.09386e-17)
(-0.00124889 -0.0037019 1.4636e-17)
(-0.0496812 0.028792 3.89533e-19)
(-0.0255798 0.0540963 1.05654e-17)
(-0.0655095 -0.00125653 2.15774e-17)
(-0.0462084 0.0295154 2.49154e-18)
(-0.000122949 0.000879493 2.79983e-19)
(0.0105936 -0.00767398 2.56275e-17)
(-0.000246441 0.000696533 -1.73352e-18)
(-0.0312213 0.0235741 2.28519e-18)
(-0.000509224 0.000373723 -1.23848e-18)
(0.00299753 0.00415132 -4.09053e-17)
(-0.0152437 0.00690096 -1.29923e-17)
(-0.0349633 -0.0289944 6.6209e-17)
(-0.0059523 0.00180648 7.42636e-18)
(-0.0219696 0.0141486 -2.04529e-17)
(0.000933841 -1.9435e-05 -5.54169e-19)
(0.0256079 0.058696 -1.75315e-18)
(0.000348727 -0.000260691 1.04146e-19)
(-0.0219321 0.00566126 1.00708e-17)
(-3.52027e-05 0.000372101 -4.02743e-18)
(-0.00708437 0.00175468 9.86887e-18)
(0.000116949 0.000578169 -3.58796e-18)
(0.0866414 0.0333381 5.56682e-18)
(-0.00153049 0.00247427 -5.35364e-18)
(0.000176997 0.000543133 -2.15223e-18)
(3.64687e-05 3.51877e-05 2.01119e-18)
(0.000650856 9.34189e-05 -1.7274e-18)
(0.0959533 0.0426524 -5.41488e-18)
(-0.0609361 0.00349827 -1.96147e-17)
(-0.0537381 0.00514896 -7.32883e-17)
(-0.00670967 0.00712767 -1.92893e-17)
(-0.00248797 -0.000546516 -2.8469e-19)
(0.0087032 -0.00168118 1.34174e-18)
(9.77179e-05 -2.95303e-05 2.13408e-18)
(-1.66893e-05 -4.14956e-05 -2.36769e-18)
(0.0524885 0.0317235 -2.06498e-18)
(5.00438e-05 3.66708e-05 4.08942e-18)
(2.80197e-05 0.000728429 3.39672e-18)
(0.0145398 0.00247358 -3.25611e-17)
(0.000544321 0.00012846 -5.70266e-19)
(-0.00133751 -0.00340887 -3.17491e-18)
(0.00865552 -0.00102065 -5.80397e-19)
(2.20959e-05 0.000719055 -1.88201e-18)
(1.36725e-05 3.83299e-05 6.14891e-18)
(-0.000748253 0.00151886 -3.04837e-18)
(-0.000413451 0.000982605 -2.9765e-18)
(-0.000185896 0.000899881 -1.55804e-17)
(0.00549482 0.0563225 2.00278e-17)
(-0.0080017 -0.00487652 -2.14615e-18)
(-0.000947981 0.00208307 1.52623e-17)
(-0.000611049 0.000208199 -9.58671e-19)
(7.01903e-05 0.000663815 -9.46334e-19)
(-0.000966463 0.00592448 -2.63041e-18)
(-3.74008e-05 0.000882577 3.98881e-18)
(-0.000533401 0.000262092 3.84471e-19)
(-0.00372952 0.00627065 2.12483e-17)
(-0.0385445 -0.00564099 -2.08303e-18)
(-0.0214763 0.0130989 -1.09458e-17)
(0.0518202 0.0382208 4.47788e-18)
(-0.000712228 0.000552509 -4.08831e-19)
(-0.000585663 0.000239074 1.40481e-18)
(-0.0389089 -0.00755913 -1.10093e-17)
(-0.000365199 -0.00063195 5.78723e-20)
(-0.0796982 -0.00180699 1.85874e-18)
(-0.00676649 0.00164051 -1.33549e-18)
(0.000174464 0.00057654 -7.06354e-19)
(0.00671143 0.0538507 -2.50996e-17)
(0.0437927 0.0311834 -1.6071e-17)
(0.00512922 0.00401441 -1.33257e-17)
(0.00109702 9.25264e-06 -9.21311e-19)
(-0.00257193 -0.000659224 6.59998e-18)
(0.0665916 0.0288629 -5.29763e-19)
(-0.000456123 -5.02349e-05 -6.85738e-19)
(-0.000262636 -3.16146e-05 -4.0958e-19)
(-0.000957316 -0.00214245 9.87787e-19)
(-0.00117756 -0.00118496 -1.14385e-18)
(-0.000332217 -0.000793194 -5.33106e-19)
(0.00108426 2.00601e-07 -8.28961e-19)
(4.41201e-06 -2.20487e-05 2.82104e-18)
(-0.0603998 -0.00897341 -2.12118e-18)
(-0.000818361 0.000622274 5.90197e-18)
(-0.0846901 -0.0310816 3.96988e-17)
(2.53779e-05 5.48837e-05 1.01642e-17)
(0.0101223 -0.00954962 8.97363e-19)
(-0.0727494 -0.0288492 9.19263e-18)
(0.00012151 0.000503775 4.89587e-19)
(0.000324481 -0.000223421 2.88532e-19)
(-0.000720071 0.000576829 -4.03993e-18)
(0.000325185 0.000190111 -8.96876e-19)
(-0.000442249 0.000757916 -4.01057e-18)
(-0.000231318 0.00133734 1.07976e-17)
(-0.000397732 0.00029156 -1.67129e-19)
(0.0110372 0.0166708 -2.46279e-17)
(-0.00199156 0.00530601 4.05662e-18)
(0.000731102 -0.000168043 1.69786e-19)
(0.063434 0.0291528 -1.77814e-17)
(-0.0468424 0.0155318 2.7743e-17)
(-0.000797181 0.00213925 -1.80037e-18)
(0.0112866 -0.00722672 -7.87816e-18)
(-0.0031515 0.0052384 -3.37684e-17)
(-0.000579498 0.00152306 -6.39675e-18)
(-0.00745275 -0.00483152 -5.80105e-18)
(-0.000846557 0.00144631 -1.38162e-18)
(0.0320002 0.0287202 -2.03374e-19)
(-0.000825603 0.000571494 -5.68476e-18)
(-0.011541 0.00538838 -8.60612e-19)
(-0.000189807 0.000669255 -5.00492e-18)
(0.145026 0.0656161 -5.78434e-18)
(0.00093092 0.00389664 -1.49937e-17)
(-0.00428847 0.00332335 -1.9825e-18)
(0.00431352 0.0289585 8.44788e-18)
(0.0106052 0.00107522 -1.21723e-17)
(-0.000799151 0.000533212 6.27587e-18)
(-6.44871e-05 0.000453329 -2.08731e-18)
(0.00468043 0.000938162 -1.16092e-17)
(-0.00563282 -0.0216801 2.85139e-17)
(-0.000437216 0.000789846 6.86166e-19)
(-0.00784247 0.00119613 2.39457e-17)
(-0.000150974 0.000820805 -5.05022e-18)
(0.073213 0.0563811 7.55027e-18)
(-0.000455398 0.000728178 -1.37083e-19)
(-0.000164829 -0.000181417 -1.93443e-18)
(0.000647453 0.000102516 -5.32607e-19)
(0.000536449 0.000105782 -2.62003e-18)
(-0.038245 0.0200425 -1.86959e-17)
(0.0785125 0.0539801 4.44532e-18)
(-5.15932e-05 0.000423736 -5.15259e-18)
(-0.0376602 0.0430315 -1.13338e-18)
(-0.00112878 0.00129431 8.50914e-18)
(0.0851811 0.0683278 -1.53151e-17)
(-0.0590096 0.00597754 1.56105e-17)
(0.00812069 0.0441446 -2.73419e-18)
(0.0367942 -0.0205266 -7.5721e-18)
(0.000166466 -0.000898791 9.75343e-19)
(-0.021195 0.0215681 2.96505e-17)
(-0.019467 0.00909807 3.64244e-18)
(-0.000234041 0.00060088 1.85606e-18)
(-0.00523296 0.00788677 -5.67966e-18)
(0.0477221 0.029812 1.38494e-17)
(0.131267 0.0501026 6.2275e-18)
(-0.00100381 -0.000332553 1.95144e-18)
(3.30919e-05 0.00108144 7.34834e-18)
(-0.000234314 0.000652441 -2.45413e-18)
(0.00119983 -3.67223e-05 2.49571e-19)
(0.114112 0.0111964 -7.5302e-18)
(0.00954336 0.0181885 1.37197e-17)
(-0.0317098 0.0201419 4.64888e-17)
(0.0247711 0.0129966 7.29755e-18)
(-6.94096e-05 0.000473589 -3.65392e-19)
(0.000335021 0.000169339 2.27883e-18)
(0.00292316 0.00752095 3.07114e-18)
(3.47913e-05 -4.34744e-05 -1.87187e-18)
(0.000283727 0.000222782 1.84098e-18)
(-0.000216057 0.00131905 -2.84818e-18)
(-0.000954916 -0.00178053 -3.35663e-18)
(0.012346 0.0167065 1.8702e-18)
(0.000605046 0.00386397 2.31732e-17)
(-0.006917 -0.00520455 -3.25217e-17)
(0.0120027 0.0339776 -1.2385e-20)
(-0.000929925 -0.00384147 -1.35368e-17)
(0.000136045 0.000591923 6.21693e-18)
(-0.00083789 0.00134957 7.30473e-18)
(-0.00109784 -0.00719659 3.37694e-17)
(0.0390791 0.0338444 1.37174e-18)
(-0.0111654 0.00484767 1.87603e-18)
(-0.0142919 0.0030338 -6.81979e-17)
(0.0036389 0.000825268 -8.65626e-18)
(-6.7858e-05 0.000467461 4.81531e-18)
(-0.036518 0.0423976 2.6503e-18)
(0.119333 0.0317856 1.70192e-17)
(-0.000395433 0.000723223 -2.38966e-18)
(0.000252518 -0.000413264 -2.27798e-20)
(-0.00124647 0.00396414 7.99277e-17)
(-0.0472915 -0.013771 3.81866e-17)
(-0.00748211 -0.00505548 -2.52934e-17)
(0.000486485 9.56154e-05 3.02491e-18)
(-0.0267063 0.00582302 -1.87955e-17)
(0.0160439 0.00236741 1.72837e-17)
(-0.0117603 -0.0204549 -3.88024e-17)
(0.000374603 -0.000283182 3.16397e-20)
(0.00649799 0.000587551 -6.11473e-17)
(0.0177752 0.00163137 -4.01388e-18)
(0.00249989 0.00236869 2.23686e-17)
(-0.000652461 0.000354204 -2.97049e-18)
(4.20211e-06 9.59309e-05 -4.61245e-19)
(-0.0660829 -0.0109106 2.04884e-17)
(1.6459e-06 -2.03419e-05 -4.3438e-18)
(-0.022036 0.038246 2.61767e-18)
(-0.0768207 -0.0024109 4.69654e-18)
(0.0247806 -0.00240393 -4.88714e-17)
(0.0098556 0.00129038 -2.27288e-17)
(-0.00672824 0.0204377 6.2217e-18)
(0.00288501 0.01159 5.53223e-19)
(-0.000121689 0.0138331 3.19754e-18)
(-0.00017806 0.000737197 1.74319e-18)
(3.15062e-05 0.00104955 -4.13638e-19)
(0.00143439 -0.0069774 4.3714e-17)
(0.0786951 0.0969928 3.92671e-18)
(0.0191612 0.00143049 -4.4938e-17)
(0.13368 0.101412 -6.10326e-18)
(-0.000350397 -0.000664609 3.74453e-19)
(-0.0209164 0.0382595 1.64053e-17)
(2.2709e-05 -2.53028e-05 9.41288e-19)
(0.00450219 -0.000217844 -3.75858e-18)
(-0.0127912 0.0205668 -6.79143e-19)
(-0.000541023 -0.00821773 -5.56878e-17)
(0.000169123 0.000561703 -2.35179e-18)
(-0.000696709 0.00117668 -1.67724e-17)
(0.00957126 0.0373109 -3.35533e-18)
(0.0570547 0.0277732 1.9385e-17)
(0.00398281 -0.00738269 2.70349e-17)
(0.0225374 0.000868833 2.05691e-17)
(0.000795441 -0.000209055 -4.74097e-18)
(-0.0011102 5.05132e-05 4.94272e-18)
(-0.00352276 0.0470415 -5.37939e-18)
(-4.13811e-05 0.000784077 4.95512e-18)
(-6.03855e-06 -0.000393773 -8.51985e-19)
(0.0001047 3.58404e-05 1.03673e-19)
(-0.00327748 -0.00248619 2.62992e-18)
(-0.0200065 0.0131679 1.78164e-18)
(1.61664e-05 0.000597549 -4.49438e-18)
(-0.0125247 0.0193862 6.44114e-19)
(0.000298158 5.64791e-05 3.63783e-18)
(0.000805676 6.67447e-06 -3.4379e-18)
(0.000393629 -5.24227e-05 -2.30503e-18)
(-0.0150291 0.0271959 1.17272e-17)
(-4.77511e-05 0.000897807 -5.7708e-18)
(0.000119306 -1.86306e-05 -2.35348e-18)
(0.00243326 0.00706713 8.27685e-18)
(0.00359099 0.00392128 -1.36911e-17)
(0.000809028 -0.000176579 -2.12473e-20)
(-0.0830653 -0.000459348 7.9247e-17)
(-0.000429601 -0.000504205 -1.64286e-18)
(0.000305592 -0.000603072 -2.66942e-19)
(0.00320887 -0.000950778 -1.67118e-17)
(-0.00107637 0.00199882 -1.85748e-17)
(-0.00269105 -0.000553462 5.05239e-18)
(-0.00050141 0.000524063 -4.54763e-20)
(-0.0148953 -0.000207665 5.14276e-17)
(-0.000848374 0.00216916 2.751e-18)
(-0.000842043 -0.000394575 -5.76516e-18)
(0.121208 0.0308389 -1.65166e-17)
(-0.000762071 -0.000440317 1.05539e-18)
(0.0899794 0.104107 4.13773e-18)
(-2.44266e-05 0.0017598 1.97441e-17)
(0.0107286 0.0181127 -1.71703e-17)
(0.00378843 0.000452324 8.35382e-18)
(0.112887 0.00706117 2.06587e-17)
(0.000201895 -0.000402546 -7.05394e-20)
(0.0366809 0.0286422 2.75593e-18)
(0.0362743 0.047797 -1.88083e-17)
(0.000739216 4.41433e-05 -1.77078e-18)
(-0.0374427 0.0112937 9.0372e-18)
(8.94739e-05 0.000663232 -8.01876e-19)
(0.00041221 -5.22311e-05 3.47654e-18)
(0.000946692 0.00280808 3.16712e-18)
(0.000324003 3.5722e-06 1.20209e-18)
(-0.00480563 -0.00207929 -4.36712e-19)
(0.0349105 0.0323592 -9.45256e-19)
(0.000362116 -0.000242836 -4.91814e-19)
(0.00533499 0.000427558 -6.02472e-17)
(0.000214986 -0.000866393 -2.41088e-18)
(0.00108883 0.00123651 -8.51202e-18)
(0.0744395 0.101088 2.66368e-18)
(0.000780049 -0.000160503 -3.57633e-19)
(-0.0502056 -0.00747137 -3.44664e-17)
(-0.000583619 0.000679368 -3.09141e-18)
(-0.000382965 -0.000368021 2.42534e-18)
(1.883e-05 2.56067e-05 -3.64467e-18)
(6.13809e-05 2.67594e-05 -4.5457e-19)
(0.0284144 0.00289793 -3.45594e-18)
(-0.00114979 0.00324962 1.60313e-17)
(-0.0527548 -0.00337349 2.70118e-17)
(-0.000828506 -0.00405745 -1.40814e-18)
(-0.0448348 -0.0239954 1.82714e-17)
(0.00353844 0.00665097 -1.46101e-17)
(-6.34959e-06 0.000619262 6.95694e-18)
(0.00812786 0.0405168 4.05064e-18)
(0.0214386 0.0013601 -2.98454e-17)
(0.0232631 -0.0215165 4.73689e-17)
(-0.0013463 0.00327879 2.4171e-17)
(0.0213028 0.000342894 4.42688e-17)
(-0.0207242 0.00770716 -1.00783e-18)
(-0.00036579 0.000316627 4.73339e-18)
(0.0280703 0.000329288 3.99178e-17)
(-0.000482706 0.000558946 -2.42733e-19)
(-0.00906978 0.00181077 2.60468e-17)
(0.000557306 5.67974e-05 5.50997e-19)
(0.00580785 0.000746815 8.77344e-17)
(-0.00107704 -0.000373695 7.0975e-19)
(-0.00147182 0.00317367 -2.83483e-17)
(-0.000739182 0.00155991 -9.49643e-19)
(-0.000543924 9.1158e-05 -2.85185e-18)
(-0.0947696 -0.0310997 -1.36003e-17)
(5.4342e-05 0.00107515 2.88702e-18)
(0.000308568 0.000188167 -2.36313e-18)
(-0.0155642 -0.0300303 -7.33777e-18)
(-0.00058618 0.00070026 2.68526e-18)
(0.000348612 -5.71938e-05 1.1295e-18)
(-0.0027967 0.00681058 1.07273e-17)
(0.00693539 -0.00318582 -2.27682e-18)
(0.0299506 0.00335243 -8.44454e-18)
(-0.0137367 -0.0218335 7.17733e-17)
(0.0791348 0.0378921 -3.86546e-18)
(-0.053575 -0.0108297 3.70636e-19)
(0.000347193 0.0001738 2.27239e-18)
(3.74322e-07 4.96214e-05 4.26908e-19)
(-0.0290481 0.00723724 5.93757e-18)
(-2.8255e-05 0.000292135 -1.36846e-18)
(-0.0106007 -0.00317167 -3.84282e-17)
(-0.00676512 0.0216349 -6.1198e-18)
(-0.000624345 0.000325013 -9.81718e-18)
(1.53003e-05 0.000728847 9.26793e-20)
(-0.000710483 -0.000251182 -2.66079e-18)
(-2.7027e-05 0.000207613 2.84996e-18)
(-0.000381487 -0.000361885 -1.26516e-18)
(-0.00297928 0.00174459 7.06654e-18)
(-0.010915 -0.00416956 2.2573e-17)
(-0.00686152 -0.00565475 3.59777e-17)
(-0.00133108 0.00406753 -4.57786e-17)