/*--------------------------------*- C++ -*----------------------------------*\
| =========                 |                                                 |
| \\      /  F ield         | OpenFOAM: The Open Source CFD Toolbox           |
|  \\    /   O peration     | Version:  v2012                                 |
|   \\  /    A nd           | Website:  www.openfoam.com                      |
|    \\/     M anipulation  |                                                 |
\*---------------------------------------------------------------------------*/
FoamFile
{
    version     2.0;
    format      ascii;
    class       volScalarField;
    location    "450";
    object      ddt0(k);
}
// * * * * * * * * * * * * * * * * * * * * * * * * * * * * * * * * * * * * * //

dimensions      [0 2 -3 0 0 0 0];


internalField   nonuniform List<scalar> 
18758
(
5.76909e-07
0.00928448
1.87533e-07
-0.00340936
0.00250877
0.0046604
-0.000279418
1.07421e-07
7.50117e-06
1.03144e-07
6.34478e-08
-0.00190928
1.11151e-07
6.38487e-06
-1.18897e-07
-3.53712e-05
2.08637e-07
8.65e-08
2.30906e-08
1.04511e-07
0.00139741
8.68369e-09
-0.00169414
7.99222e-05
0.000134658
1.1659e-07
3.63728e-05
0.0036483
0.0129405
0.00560516
1.92857e-06
-0.000514996
5.60686e-08
-3.4362e-08
5.40406e-06
1.07055e-09
3.97845e-08
8.57912e-08
7.65586e-08
4.55594e-07
8.36377e-08
5.89926e-08
1.11565e-07
5.64063e-08
0.00189575
1.70674e-07
-0.00163244
9.54916e-08
1.02948e-07
1.14568e-07
2.35291e-07
-0.00166144
1.57147e-07
6.19229e-08
0.00401822
-0.00454234
3.96591e-08
-1.74638e-06
-6.88753e-08
7.52055e-06
3.02532e-07
-0.000309823
2.58925e-06
-2.23185e-08
1.60836e-07
3.88038e-08
4.68387e-07
6.0831e-08
9.70611e-08
-0.00129399
0.000823819
-5.8353e-08
1.15685e-07
0.00471136
1.00227e-07
-6.32981e-08
8.3436e-06
0.00239137
-1.87597e-06
-0.000940479
-0.00302192
0.00649002
7.14439e-06
0.00460209
8.22239e-06
4.91537e-08
-0.000157961
2.59935e-06
-4.87039e-05
-7.09241e-08
0.00418658
-6.2799e-08
-7.44612e-05
4.26902e-08
-0.00303929
-2.9214e-05
7.43969e-06
1.02907e-07
-2.12436e-08
0.00140877
1.16154e-07
0.00386005
2.77868e-06
1.51307e-07
-0.000337602
-0.00203325
-0.00572472
0.00150655
8.74792e-08
-4.44878e-08
9.7398e-05
1.40806e-05
1.11009e-07
8.70456e-09
0.0140352
-0.000458144
0.00127405
-1.08377e-07
-0.00137205
-0.00264407
2.62155e-07
-2.06293e-10
-0.00162752
1.06405e-05
4.90121e-07
0.0058698
0.00322084
0.000114437
-0.000203521
7.79174e-08
2.87479e-07
1.12348e-05
0.000825807
1.31301e-07
3.11589e-05
3.15187e-08
8.25394e-06
5.7076e-07
-9.24948e-09
-3.96946e-07
-2.79289e-06
-1.33234e-07
-4.88108e-08
0.00288519
8.11084e-08
4.42958e-09
0.00246446
-0.000912193
1.77366e-06
0.00394244
0.00787736
-0.000105829
6.78355e-08
2.56043e-08
-0.0019119
6.49113e-08
-0.0011348
9.63076e-08
-5.23092e-08
7.15641e-09
3.63274e-08
7.45127e-06
0.000369057
-5.44486e-08
4.07173e-07
0.0118423
2.33901e-08
-0.00263285
3.2268e-06
0.00572767
-9.77042e-05
8.60395e-08
0.00025415
0.00337219
8.05943e-06
6.55906e-05
0.0129649
-1.47967e-08
-9.52864e-07
1.0837e-07
1.10934e-07
2.88897e-05
1.16326e-05
1.14328e-07
-2.43904e-07
2.32269e-05
-2.69659e-08
-0.000402785
1.13555e-07
-8.63776e-09
1.79713e-08
7.61974e-05
5.96689e-08
1.39043e-06
9.41682e-08
2.57687e-06
1.1324e-07
1.01667e-06
4.78444e-08
1.12779e-07
1.24989e-06
1.01734e-07
1.20174e-07
1.60102e-06
1.19281e-07
3.77225e-08
2.74582e-06
1.65915e-08
0.00101179
9.5994e-08
8.56747e-08
1.49482e-07
-4.11796e-08
1.15824e-07
1.48528e-06
-0.00283451
1.25886e-06
2.28264e-05
1.24032e-07
0.00482448
8.69385e-08
8.85683e-08
7.49255e-06
0.00288475
1.53949e-05
2.72922e-06
4.54622e-07
3.52044e-07
1.1217e-07
1.51167e-06
3.7189e-08
2.40132e-06
-0.00169283
1.01261e-05
1.10425e-07
-2.1359e-08
1.07906e-07
1.65304e-07
-0.000861714
1.34997e-07
4.43888e-08
-0.000199658
-0.0103829
1.73542e-09
0.00344865
0.000899993
1.16576e-05
-1.3151e-09
-0.00304302
1.60677e-08
1.36495e-10
-0.00300977
4.95047e-08
-3.76042e-09
-4.96927e-08
2.92684e-07
-2.34615e-06
-1.81718e-05
1.16605e-07
-7.77457e-07
7.96942e-08
1.928e-06
6.49499e-08
1.57644e-06
1.12095e-07
8.14646e-06
-0.000946037
1.40558e-07
8.49968e-08
3.54693e-07
9.15474e-08
-2.31911e-07
1.51299e-06
0.00563711
0.000942956
-5.91879e-08
9.72282e-08
0.000201591
-0.00686832
6.54495e-08
9.09383e-08
1.21302e-07
1.38491e-07
-5.05527e-08
0.000851463
0.000380857
-0.0173398
0.000603282
-0.00182417
1.07041e-07
1.83467e-07
-4.19445e-08
-0.0034324
3.66648e-08
-7.06732e-07
1.68975e-06
1.2111e-07
-0.00268091
3.71019e-08
-0.0208818
0.0048112
1.66555e-07
-0.00369669
1.7355e-07
9.45732e-08
1.21011e-07
7.03869e-07
-1.00511e-07
2.47868e-09
-0.000648154
-0.0187364
5.09827e-08
-0.000426237
-0.00267805
-2.81209e-06
8.157e-08
7.18115e-08
-0.00751102
7.24856e-09
1.17426e-07
7.79883e-08
-2.70466e-08
-2.68479e-06
7.67249e-07
1.208e-07
1.21877e-07
1.06643e-07
6.53574e-08
9.25573e-08
7.14313e-09
4.97558e-05
5.73345e-08
8.97232e-08
-0.00124011
-3.74148e-08
6.24044e-08
5.07882e-08
-0.021732
-0.00434656
1.00805e-07
8.55092e-08
9.7283e-08
2.41394e-08
-6.13657e-08
0.000343621
1.98578e-09
-4.28714e-08
1.13925e-07
-6.58473e-06
1.22598e-06
1.30972e-06
-3.26522e-07
-6.72566e-08
2.99377e-05
4.39677e-07
1.88388e-07
2.97976e-08
-0.00166371
0.0025463
6.86259e-05
8.14962e-08
1.12267e-07
0.0113625
0.00476103
1.0814e-07
1.06281e-07
6.91377e-07
4.05794e-08
2.79553e-09
0.0175611
0.0124767
5.45203e-06
9.94702e-08
-0.00104597
-7.48225e-08
1.05174e-07
-6.33863e-08
7.59878e-08
4.58776e-06
5.52702e-08
-0.000445328
7.56102e-07
-3.06981e-08
5.63074e-08
0.000894107
5.20851e-06
1.82711e-05
-7.26056e-08
5.0872e-07
9.45917e-08
2.13502e-08
-8.06233e-09
1.38896e-07
0.00198951
0.000937906
0.00119622
-5.35628e-05
1.59282e-07
7.64659e-06
0.000796665
2.82214e-07
1.08783e-07
-0.00050992
8.4045e-08
-1.41095e-09
1.1129e-07
4.78618e-06
8.32412e-09
1.47916e-07
-1.31767e-07
-0.000897414
9.84155e-08
0.00278593
6.42279e-07
7.61576e-08
-1.53554e-07
-7.44771e-08
8.5713e-08
1.1302e-07
1.65086e-06
-1.46391e-07
0.000522673
2.83227e-07
3.74689e-08
5.3045e-07
-0.0165039
-0.0113791
-4.87189e-05
4.63598e-06
5.15765e-08
1.3578e-07
4.04786e-08
-4.25589e-08
5.34782e-06
3.98569e-07
-3.69129e-07
8.33217e-08
5.73365e-08
5.30928e-06
2.80183e-06
-7.30963e-08
1.43057e-07
-5.5237e-05
2.20581e-08
0.0137871
6.58163e-08
1.13371e-09
-0.00132133
6.2485e-08
7.63566e-08
6.29478e-06
5.4553e-06
-9.454e-09
-0.000298328
-6.93521e-08
-7.06977e-10
-1.71203e-05
-0.00190101
9.35412e-08
1.87338e-07
5.9947e-06
1.47565e-05
9.98418e-05
6.12338e-06
-5.82482e-08
6.78148e-07
1.77346e-09
5.40293e-06
1.10713e-07
-0.000328728
3.94174e-07
0.00540642
-3.67047e-07
2.80944e-06
1.67104e-07
8.14206e-05
1.14505e-07
0.00234611
-6.66679e-08
2.12148e-06
4.32474e-08
-0.0207753
2.0035e-08
3.32449e-08
-7.12801e-09
1.09483e-07
-0.0190669
0.00254247
0.0149222
3.81335e-07
-2.13331e-07
7.72954e-07
1.45824e-08
-3.24705e-09
-0.00123093
-9.44603e-09
1.39842e-08
1.64589e-06
9.53606e-08
2.02528e-07
7.86336e-07
1.41634e-08
7.96547e-09
4.79406e-08
1.25273e-08
7.86577e-08
0.00205577
-1.20428e-06
4.09319e-08
1.19049e-07
3.80584e-08
1.97221e-05
-4.75026e-08
1.00526e-07
-0.000645596
-0.000122104
2.33888e-06
-0.0135852
1.11793e-07
9.27685e-08
7.05925e-05
2.54475e-08
0.00179218
-2.17575e-06
3.69095e-08
0.00154695
5.07485e-05
7.6302e-07
1.9474e-07
1.29399e-07
-0.00290825
8.30018e-08
9.93757e-08
-1.23616e-07
-9.82461e-08
1.8096e-08
1.80658e-07
4.92735e-12
0.00128134
1.0019e-08
0.011761
2.29398e-09
2.05982e-06
0.0176916
5.95774e-08
1.11272e-07
3.09578e-08
4.88032e-08
7.52445e-08
-1.48349e-08
1.08338e-07
2.72181e-06
-3.555e-06
1.43919e-07
-0.0025988
0.00424518
-4.21699e-08
3.83432e-07
-0.000202541
4.97319e-08
-1.09588e-06
9.12196e-09
0.000663581
1.19246e-08
-7.87976e-08
-2.90781e-08
0.00193568
4.07201e-07
2.21497e-06
4.63339e-06
-0.000254862
2.46833e-08
-7.59248e-08
5.114e-07
0.00163552
6.17894e-08
5.26034e-05
-6.68051e-08
-0.0151629
8.70322e-08
9.3442e-08
1.08242e-07
9.23991e-08
0.00408639
-0.0166297
-6.66809e-08
1.46252e-05
2.01445e-07
-0.0105103
0.0030224
-0.00492559
0.00219732
4.55817e-08
0.00293434
1.35929e-06
4.27201e-08
5.25249e-07
-0.00070982
0.000166337
-2.76997e-08
-2.99e-08
2.19575e-08
1.88788e-07
-0.0010311
2.88039e-06
0.00382065
0.000846279
-6.40241e-08
4.88994e-08
9.63113e-07
4.92904e-09
4.07345e-08
-1.68417e-08
-1.08179e-07
2.67632e-06
3.90249e-07
-6.54928e-08
0.00113752
1.15344e-07
4.20524e-08
5.82995e-08
-2.85262e-07
-0.000629743
-1.46385e-07
0.00587673
4.05091e-07
-6.95296e-08
1.62246e-05
-0.0161452
6.6807e-08
1.07835e-07
1.86935e-06
0.00415972
-2.57132e-07
8.6014e-08
0.00241839
0.000619767
0.0021901
1.1516e-07
-0.000148403
-0.000572557
-0.000101657
5.40173e-08
7.24264e-10
0.0153347
2.91505e-11
7.73009e-06
0.00218991
1.55575e-05
-0.000283655
2.84078e-06
0.00193402
1.67033e-06
-7.06692e-08
-2.81517e-08
-0.00049556
-0.00718833
-0.000525056
0.00826062
2.42711e-08
7.77156e-06
3.35933e-09
4.70332e-07
3.29806e-06
1.58263e-06
3.25498e-08
7.57386e-08
6.84563e-06
-0.00172061
-0.000430184
-0.00059655
1.89335e-07
1.13572e-07
1.01407e-05
-4.49555e-08
8.73008e-08
6.49408e-08
-4.20128e-07
2.17544e-06
3.48522e-08
2.90301e-06
4.91422e-08
6.60098e-08
8.94928e-08
0.00283362
-4.53779e-08
1.77025e-08
8.51116e-07
6.14865e-07
1.56218e-07
0.00149055
3.62325e-08
6.64621e-08
3.15384e-07
-5.63689e-08
-2.38147e-07
1.04027e-07
-0.0020705
-2.81577e-08
1.25347e-07
-0.0171133
1.23375e-07
-0.00240412
-2.0628e-07
2.85686e-06
0.000332376
-0.000704828
9.76141e-08
0.000429486
7.40689e-05
1.31646e-07
0.00327978
3.64249e-08
8.93843e-08
3.19891e-07
8.6839e-08
1.77566e-07
0.000232583
1.15215e-07
0.000632599
5.13668e-08
2.50727e-07
-0.00635766
1.46279e-07
0.00436255
1.06778e-07
5.99321e-08
-5.85324e-09
5.47765e-08
2.48824e-06
3.52098e-07
2.07384e-06
6.88464e-08
0.00397431
9.05684e-07
2.92421e-08
9.46357e-06
-0.000670078
0.00269526
1.16888e-06
7.06628e-06
1.3833e-06
9.44722e-08
1.99246e-07
1.02188e-07
-0.00792836
9.68555e-08
-0.000164833
-4.15617e-08
2.25433e-07
5.29875e-08
8.53374e-08
0.0168469
-2.45851e-08
4.48547e-08
0.00370949
1.01044e-07
8.40863e-08
4.90804e-07
6.6317e-07
-9.31432e-06
-0.000845989
-0.0199077
0.00176515
5.14279e-08
5.64284e-10
0.0026198
5.02541e-08
0.000366896
3.1576e-06
6.24547e-08
9.8447e-09
1.15385e-07
-9.32808e-09
6.08122e-08
-1.60483e-07
0.00109724
5.44798e-07
-2.02267e-05
1.66979e-07
3.8346e-08
1.36767e-06
0.0136902
5.88084e-08
3.29896e-06
-4.67684e-09
-0.000136776
-1.95567e-08
-0.00244945
1.07089e-07
5.35464e-05
6.51669e-09
2.38828e-06
3.98766e-08
-3.817e-07
-9.54192e-07
1.4229e-07
6.83939e-08
1.38794e-07
-0.0185527
0.00155652
-1.32792e-07
0.00458525
-7.30379e-08
3.62197e-07
6.03871e-08
-2.11683e-06
-0.000916413
-1.73291e-07
1.26915e-07
4.09768e-06
5.42282e-08
-6.89146e-08
5.10702e-08
0.000406224
0.000745535
0.000267791
-0.00585607
1.95899e-06
-3.14328e-08
-4.9414e-08
-0.0110555
8.74466e-08
0.00251614
-1.4046e-08
-7.33048e-10
-0.00450221
0.00635051
-5.00011e-10
-6.7823e-05
1.1666e-07
3.17904e-06
1.15839e-07
-0.0136513
0.00595199
0.00199117
1.30186e-07
1.90055e-07
0.000748423
-6.04199e-08
9.99124e-08
5.3978e-09
-6.24962e-08
-0.0195475
7.9616e-06
9.46542e-07
0.00159636
6.71377e-07
5.30438e-06
-9.99436e-09
9.04235e-08
1.80756e-07
9.39698e-08
0.00071873
-0.000622324
1.62744e-05
1.02364e-08
1.30178e-07
-9.91729e-07
4.12245e-08
3.35719e-07
3.66422e-08
-0.00564024
-0.00294579
2.83178e-06
7.86437e-06
-3.29491e-05
1.02182e-07
2.05248e-07
-5.05123e-08
-0.0010416
9.18556e-05
-0.00153514
0.0198493
-1.17738e-07
-1.7671e-07
0.00276331
0.00123373
-0.00158948
2.43991e-07
-4.28901e-07
0.000558623
8.65371e-08
9.34086e-06
2.11784e-07
5.46699e-06
9.35328e-08
9.22377e-08
3.86352e-07
0.00138175
1.14092e-05
-2.9459e-06
8.82689e-09
-3.33355e-07
1.10015e-07
-0.0419656
8.4833e-08
0.000192931
2.92901e-08
8.09877e-09
-8.07453e-07
5.71925e-08
6.63242e-08
1.09653e-07
1.14604e-07
9.24355e-08
1.0677e-07
1.13937e-07
-0.0150993
-0.00526179
-0.00153046
1.06067e-07
-2.57667e-07
1.99574e-08
8.9315e-06
9.28339e-07
1.40909e-07
2.85528e-08
-6.58704e-08
-6.23097e-05
4.1965e-06
3.06323e-08
0.00241292
5.35541e-06
-7.36708e-08
-6.77017e-08
-0.0053975
-5.964e-05
1.41347e-07
1.27804e-07
-0.00885874
4.04454e-08
2.3727e-07
1.06813e-07
-0.000209736
-0.0020381
8.7492e-08
7.09912e-09
0.00423623
-7.31094e-08
-0.00258661
-0.000981271
1.3165e-06
-4.24505e-08
-1.67813e-10
1.05059e-07
1.18453e-07
-0.000218622
-0.00134128
2.12152e-08
1.12546e-07
0.0035165
1.32129e-07
-2.52708e-09
0.0114848
9.27751e-08
0.000940343
1.47899e-07
2.30068e-08
-6.94746e-09
6.85593e-09
1.8677e-08
4.77497e-08
-0.000171345
7.95699e-08
-4.46979e-10
1.40355e-07
4.00351e-07
8.3892e-08
3.22159e-07
1.16106e-07
5.68357e-08
-1.68325e-07
9.40059e-08
1.11538e-07
-0.00250234
3.21055e-06
3.34282e-08
5.79081e-06
3.95198e-06
4.87059e-07
7.85682e-08
1.6595e-06
0.0178259
9.4367e-08
8.76617e-07
5.74879e-08
1.23956e-07
7.75772e-08
-9.91438e-07
1.16695e-07
-3.87284e-08
4.30293e-08
3.07201e-08
1.58147e-06
-0.000939937
8.94296e-06
-6.3422e-09
4.52864e-08
1.03572e-07
6.75893e-07
4.03958e-08
-0.000868111
6.27988e-08
-5.77203e-08
4.73419e-08
2.48962e-06
0.00245474
4.28206e-08
7.95002e-09
8.76692e-08
3.18985e-06
8.64561e-08
-1.46091e-08
2.02488e-05
1.41921e-08
1.15906e-07
9.29544e-09
-2.93225e-07
8.83887e-08
1.03014e-07
-0.00941466
0.00354784
6.69624e-06
3.19188e-07
0.00356715
4.59561e-07
5.76197e-08
1.12629e-09
0.00067966
-3.33765e-09
1.67411e-06
2.81833e-06
3.63571e-07
4.58487e-08
-2.4841e-08
1.01086e-07
7.92845e-08
1.27484e-07
-1.31627e-06
-0.000247621
9.87048e-08
9.72499e-08
-0.00188338
4.36526e-07
-0.00045393
-0.0111235
3.94881e-06
3.24688e-08
1.87518e-07
1.73421e-07
1.35408e-06
2.83916e-08
1.45255e-08
0.000226483
-1.06511e-05
-1.01548e-06
9.02083e-09
2.03382e-07
5.69031e-06
3.07748e-08
1.00225e-07
1.20922e-07
9.44566e-06
1.90634e-06
2.99567e-08
7.11723e-08
2.79546e-07
8.83141e-08
1.24918e-07
5.67163e-08
-0.0127457
5.05501e-07
3.2575e-06
8.37438e-08
1.86956e-07
0.00198923
-0.00529901
0.000652075
1.51868e-07
-0.00098264
3.22069e-08
6.05403e-08
7.81225e-08
7.28019e-07
1.29022e-09
-2.30383e-08
-8.31049e-08
1.29696e-06
8.17859e-08
8.12467e-08
1.93311e-08
7.5231e-09
-0.00178401
0.00795666
0.00104594
6.36487e-08
-0.00101111
5.81091e-08
4.29991e-08
-2.62418e-07
2.09861e-07
1.00916e-06
1.08412e-07
5.55281e-09
-0.00134553
0.000593701
0.000807476
-3.4621e-08
-0.000233757
6.37533e-09
0.000379025
-0.00152397
1.88235e-07
1.42929e-06
3.83789e-06
1.26868e-07
9.82075e-08
-0.00204516
-1.98294e-08
6.13376e-08
6.75662e-06
-0.00155225
1.18726e-07
3.92941e-08
4.34892e-08
-2.47954e-08
4.28882e-06
4.33787e-08
-0.00133501
3.90271e-07
8.19074e-08
0.00081624
1.52172e-07
2.20766e-06
1.00268e-08
-3.39045e-05
1.13804e-08
0.00222688
1.394e-08
5.3365e-08
-0.000430372
1.32896e-07
0.00224932
8.39299e-08
4.24843e-07
0.0163729
-0.00433659
-3.5944e-08
-5.81879e-08
6.37546e-08
-1.80777e-08
1.00101e-07
-8.01167e-08
1.67558e-07
-0.000455117
2.95511e-08
4.4069e-08
5.0116e-08
5.32096e-07
9.71293e-08
1.11227e-07
-0.00078671
1.37397e-06
7.8332e-08
-4.45189e-08
-1.55492e-08
9.00005e-08
0.0132998
1.27166e-07
5.9509e-08
9.87679e-08
0.00271092
4.70253e-08
-1.01334e-08
0.00316964
-1.60721e-08
0.00351826
-2.84851e-07
1.87769e-07
9.05652e-08
0.0063652
-4.52094e-07
1.8253e-08
0.0148854
0.00291906
9.01627e-08
-9.93388e-05
4.77872e-06
2.6831e-08
-5.73214e-08
1.92247e-07
1.8149e-08
-0.0227726
1.09094e-07
1.00305e-07
0.000688817
-0.000556623
8.42724e-06
9.05539e-08
-0.00101742
1.04353e-07
2.19184e-05
-6.24804e-06
-4.87218e-08
-0.000668858
6.25594e-08
9.22375e-08
-4.69588e-07
-0.00204576
1.32898e-07
-2.95898e-08
-0.022411
7.95069e-09
-1.10809e-07
1.4118e-07
-5.93079e-08
0.00149291
6.1303e-07
5.43637e-08
1.93764e-07
0.000458403
-4.65114e-08
8.01223e-08
6.70269e-07
4.73654e-06
-1.62006e-07
9.58654e-09
3.28895e-08
3.45342e-08
7.7252e-08
9.42475e-08
1.20301e-07
1.19394e-07
-5.34067e-06
8.0371e-08
0.000330025
1.59597e-08
-3.99221e-07
8.01775e-08
9.92985e-08
-6.62565e-08
9.29987e-09
0.00148067
0.00102205
9.54695e-08
2.71557e-08
0.00205227
1.17332e-07
-0.000110005
1.98466e-09
6.60334e-07
0.00301275
-0.000334466
-0.00546194
-1.08219e-07
2.14826e-08
8.42848e-08
-0.00628837
9.94071e-08
6.06979e-08
-1.95946e-06
3.91512e-08
-1.44732e-09
2.26749e-08
-0.00102081
0.00141828
2.13819e-08
-2.42613e-05
-0.00130311
-3.56311e-08
1.52953e-07
-7.15335e-08
-0.00665727
7.13739e-08
3.17234e-06
7.88859e-09
8.87896e-08
-4.05357e-09
6.30297e-08
2.14365e-06
4.34211e-08
3.78579e-08
8.63906e-08
1.59853e-07
2.95292e-05
1.35192e-07
9.58075e-08
-8.36113e-09
-1.30324e-08
1.41325e-05
-0.00751284
1.41746e-07
4.77612e-08
-5.27615e-08
-7.98429e-10
1.32644e-08
-0.000206609
-3.93743e-08
1.20416e-07
-2.84487e-07
0.00320805
8.63329e-08
4.6485e-08
-0.00216037
4.31824e-08
7.24574e-07
8.79827e-07
8.83081e-08
-0.00106389
-0.00448694
-3.52832e-10
-0.000801938
5.51373e-08
5.31344e-06
9.90519e-08
-0.011138
6.40537e-08
-0.00478342
3.52312e-08
-1.99691e-08
0.000129061
0.000384021
-2.42427e-05
-1.05541e-06
4.2257e-08
0.00764591
1.65315e-08
0.00220166
8.44543e-07
1.03337e-07
9.99834e-08
4.67628e-08
3.59066e-07
2.36406e-07
0.00363739
8.2112e-08
-5.63636e-08
1.76767e-07
1.97142e-08
-0.000623944
2.5948e-07
1.04988e-07
3.02839e-08
3.90301e-08
9.06133e-08
1.56791e-05
4.55852e-08
1.22847e-07
2.10686e-07
-3.65025e-08
-4.08676e-08
-2.69875e-08
8.47613e-07
-3.74667e-06
9.55486e-08
-4.16296e-08
1.21618e-07
7.44558e-08
0.000959239
1.60915e-07
1.25088e-06
0.000144837
1.25035e-07
-0.000191705
0.00025929
6.17261e-07
-0.00190154
1.38953e-08
-0.0175052
-0.0172266
4.52688e-06
1.43801e-07
-0.000141222
4.88201e-06
7.79245e-08
2.75294e-07
-0.00193692
7.77465e-08
8.04476e-08
1.28549e-07
1.28309e-08
0.00244851
2.33859e-08
1.28956e-08
8.2195e-09
2.05993e-08
4.77271e-07
-8.7585e-07
-0.000511459
4.18293e-06
-0.0010363
3.2702e-07
5.65489e-09
3.23509e-08
-0.000649329
0.00225883
1.65057e-09
-5.36373e-08
1.29183e-06
-6.78266e-09
1.33823e-05
-0.0137276
-6.94091e-05
-1.63364e-08
-7.60476e-08
0.00129131
6.56705e-08
-0.000870796
-7.71927e-05
9.45711e-08
-0.0174292
6.35294e-07
-4.48198e-06
3.64331e-08
0.000470908
7.36952e-08
8.51739e-06
1.65562e-07
6.55873e-07
-9.18143e-08
9.83786e-08
0.00939486
-6.19674e-08
-7.05795e-08
7.44548e-08
0.00266355
3.75799e-08
1.36032e-07
-0.00116291
-4.36906e-08
7.78154e-08
3.85337e-08
-3.55183e-07
2.01899e-08
-2.30374e-09
9.47045e-08
-3.83995e-09
8.0776e-08
1.07694e-07
1.40896e-06
-0.000831276
-4.27245e-06
0.001235
-3.74176e-07
6.32931e-08
-2.44225e-08
8.73129e-08
4.96174e-08
-0.000179853
0.000203699
1.03628e-07
6.77893e-09
2.56687e-08
0.00210065
1.3383e-07
1.98511e-06
2.3641e-05
-0.00608125
0.00140388
0.00285563
0.00185683
1.01313e-07
-0.0121223
0.00328613
0.000881545
9.85538e-08
-4.06033e-08
-1.77524e-07
1.66696e-07
-0.016025
4.40082e-06
8.42301e-07
7.96316e-08
0.00194531
8.94834e-09
1.88483e-07
-0.0124255
4.45195e-06
5.34448e-08
1.69281e-07
-7.93892e-08
4.10189e-08
-0.000227992
0.00106349
-0.00056913
-0.00474262
2.53751e-06
0.0010775
4.35732e-08
8.25099e-06
1.26092e-08
9.50229e-09
1.00716e-07
-0.000812961
1.09567e-07
9.7523e-08
-0.000490243
-0.00135645
-5.22251e-07
4.3898e-06
1.11836e-07
1.72851e-07
0.0019763
-0.00098718
-0.0176384
-0.00152539
1.7591e-06
0.00173973
1.32782e-06
3.15076e-05
6.44332e-07
-7.71669e-07
-1.86539e-08
7.23676e-08
-8.53312e-07
3.04381e-08
-0.0203465
2.01627e-07
5.52315e-08
6.09314e-08
0.000664276
4.2474e-08
8.70541e-08
-5.62953e-09
1.9498e-08
4.51172e-07
1.25104e-06
0.000246067
-6.51244e-08
0.00248405
1.44621e-07
-2.14023e-09
1.74528e-06
-1.461e-07
1.68599e-07
-0.00485879
1.69716e-07
0.00421015
7.8727e-08
-0.000440948
2.7899e-07
1.16104e-08
1.59073e-08
-1.57805e-08
-0.000352675
0.00399754
-0.00081455
1.31053e-07
-2.70846e-08
1.42097e-07
0.00403368
4.45029e-08
3.93356e-08
0.000150686
-2.12815e-08
1.02796e-07
0.000501142
1.1331e-07
2.67154e-08
3.37646e-08
5.85866e-08
1.05537e-07
-3.22999e-08
1.80982e-07
-6.67058e-08
2.52535e-06
2.4986e-07
8.39622e-08
-0.00104441
8.80222e-09
0.00185255
-0.0010244
1.2037e-07
-0.0026472
0.00415758
9.69776e-08
1.20673e-07
7.4053e-08
-1.57479e-08
0.00544533
9.27168e-08
-0.00056509
4.18574e-08
5.61191e-06
-7.06061e-08
1.86444e-08
6.53822e-08
-0.00717975
-2.86544e-08
-0.0013508
9.23091e-09
8.70371e-07
-2.60651e-07
1.10772e-07
2.17025e-07
2.54882e-07
1.22834e-07
0.0111263
-5.30989e-09
-1.61278e-08
7.57158e-08
7.66733e-09
1.44196e-07
8.80538e-06
8.21874e-08
2.52643e-06
-0.00340928
8.09329e-08
-8.31434e-07
1.11924e-07
-0.00632511
4.06687e-07
6.23373e-09
3.42405e-07
-0.000653953
0.000419421
1.37884e-08
4.57216e-08
3.96728e-08
1.19612e-07
-7.48617e-08
0.00320897
-1.3639e-07
3.27414e-08
0.00173394
1.79617e-08
1.34177e-07
8.86577e-08
0.000906098
-4.18893e-08
0.00247754
-0.00783316
2.82294e-06
0.00280591
-3.30107e-08
0.0038936
4.04298e-05
1.80933e-07
-2.62997e-07
-6.68636e-08
-3.02065e-08
1.92535e-07
-0.000592233
1.4292e-06
-0.000239208
-5.29478e-06
-6.54878e-08
0.000252108
6.22432e-08
-0.00867921
1.55872e-08
-0.000779434
-0.00665143
1.84735e-08
9.15192e-08
-9.59502e-09
-1.88165e-07
1.65936e-06
8.83848e-08
0.000693484
-1.10221e-07
-9.1713e-07
2.22781e-07
1.07245e-07
1.50604e-07
0.0114197
5.91463e-08
8.22082e-06
1.22289e-07
0.00105102
8.44775e-08
-5.90498e-08
-0.00887658
1.86806e-07
9.47862e-08
9.07708e-08
4.14643e-07
7.56076e-07
8.44861e-06
4.52319e-08
5.63624e-08
-8.76895e-09
7.15168e-08
3.5099e-08
0.000616278
1.41153e-07
1.50147e-07
-0.00264537
7.56213e-06
2.14128e-08
1.28267e-06
2.07865e-07
-3.83567e-09
6.10992e-06
2.92094e-05
1.41093e-06
2.36534e-08
1.71743e-08
1.37663e-08
2.8865e-06
9.44459e-08
-8.93184e-07
-6.23485e-08
9.93934e-08
8.58476e-08
1.82561e-08
-0.00664858
1.64111e-07
0.0030921
-2.29191e-05
1.1547e-07
1.01486e-07
-0.0162477
-0.00234616
2.02449e-07
3.66006e-08
-0.00134483
4.48394e-08
-2.00466e-07
-9.27664e-08
0.000457074
4.55703e-08
-2.27312e-08
3.53151e-07
3.76749e-08
0.00350326
2.81597e-06
9.86906e-08
1.12969e-07
1.46981e-07
2.90841e-08
-1.50381e-06
2.22279e-08
1.05408e-08
1.09713e-07
6.91712e-08
1.80796e-07
-5.81536e-08
8.11299e-06
1.17309e-08
-0.00188656
1.80074e-06
-5.39055e-08
-4.66896e-08
8.60713e-08
-3.02923e-08
-0.00107858
7.87023e-09
-3.89669e-08
7.83664e-08
1.73306e-07
4.13888e-07
-0.00499479
9.33755e-08
1.51357e-07
-7.28541e-08
1.03799e-07
1.11809e-07
1.0586e-07
-0.00194137
-7.25682e-07
1.11595e-07
2.31808e-06
0.00356327
4.05557e-08
3.88957e-08
9.10732e-05
2.17276e-07
1.08425e-07
-0.0082828
1.06899e-07
0.00289801
-8.45163e-07
3.40398e-08
2.86934e-06
1.00805e-07
2.83202e-10
4.71911e-08
-0.00598675
-4.47141e-08
-0.00068339
0.00377382
8.72469e-06
-8.20784e-07
9.34552e-08
-0.0139467
2.94411e-09
0.00110711
8.39013e-08
-1.72438e-05
1.81969e-08
3.75102e-06
-3.13178e-08
0.00696593
4.17042e-08
2.66441e-08
0.00209237
0.00320633
1.45731e-07
-0.00175715
8.18914e-08
1.14575e-07
9.26301e-08
-0.00040118
3.14038e-05
1.44067e-08
-1.16608e-08
-0.00320345
-1.66672e-06
9.58579e-08
3.13597e-08
5.33386e-08
1.10205e-07
8.8722e-08
3.33123e-08
-0.0010917
0.00186904
3.58681e-08
5.12782e-07
-1.81129e-07
1.33201e-06
7.72602e-08
-0.000464243
-0.00017131
-0.00108664
-3.08988e-08
0.000464669
-0.000699329
6.53474e-08
8.7333e-08
-2.71588e-08
-2.6832e-06
0.00300193
2.75823e-08
9.05651e-08
5.97493e-08
2.66925e-08
1.49733e-07
4.11387e-08
0.000249803
8.35867e-09
2.29164e-07
-6.68535e-08
8.31911e-08
2.11611e-07
6.48221e-08
4.22734e-06
-0.00186758
1.42754e-07
2.74152e-07
1.17442e-07
0.00341749
1.01182e-07
4.05346e-08
0.00301176
-0.000349533
-2.84276e-08
1.70708e-05
-2.13736e-06
7.86927e-09
1.7472e-07
-6.14816e-08
-7.24456e-08
3.24537e-08
7.1082e-08
4.41864e-06
2.96926e-06
-0.000442506
5.01634e-06
-1.4717e-07
0.00397972
-1.32539e-07
3.84745e-07
-2.50558e-08
-0.00100459
-0.0043928
0.0032364
1.3194e-08
1.78381e-07
0.00283481
4.76442e-06
5.06409e-09
-0.0162625
9.40374e-09
8.81182e-08
1.67445e-07
1.01944e-07
8.00902e-08
9.94298e-08
5.75887e-06
1.33286e-07
1.2984e-07
6.51958e-10
1.52222e-08
1.59376e-07
8.60535e-08
1.12579e-07
1.42092e-08
6.22571e-08
0.00212199
0.00252061
9.67365e-05
1.11753e-07
0.0191776
7.17187e-07
0.00538851
0.0203206
6.9965e-07
5.62323e-08
-5.9115e-08
-1.53692e-07
2.11859e-08
-0.0154727
0.00226558
1.05069e-07
1.42253e-07
-6.82151e-07
0.003488
7.70747e-08
-0.00360382
4.28947e-08
3.78069e-08
0.00624894
1.04334e-08
4.93364e-08
4.08173e-08
-0.00186276
1.19672e-07
-2.57633e-08
9.84309e-06
1.14208e-07
1.87337e-08
-1.31221e-08
1.26495e-07
5.78642e-07
-4.54033e-08
-0.0005861
6.76502e-08
2.04834e-09
1.13164e-07
-0.000734279
1.30504e-07
-2.36393e-08
-0.000832157
2.71847e-08
9.77958e-08
1.23511e-05
-9.76455e-05
-7.42262e-08
0.00065487
-0.000977992
7.2764e-08
0.00230948
5.32199e-08
8.92063e-08
3.73029e-06
9.9002e-08
-0.00202742
0.00324704
1.42935e-07
-4.23043e-07
-5.61051e-08
-0.000919746
-6.06646e-05
4.43376e-07
8.01709e-09
1.47682e-05
4.07284e-08
7.6449e-07
8.64e-08
1.14198e-07
-2.67487e-08
-5.05001e-08
4.63345e-08
-0.0168462
1.52443e-07
4.9725e-08
3.96863e-07
0.0140937
2.52074e-06
-0.00239759
1.20812e-07
2.90194e-07
1.00044e-07
5.53549e-08
-1.77778e-08
6.40313e-08
8.82093e-09
2.29934e-08
2.4552e-08
4.31292e-08
-1.2645e-07
6.685e-08
5.06078e-08
1.82892e-07
-0.00100703
0.0054095
3.13354e-08
-1.84537e-08
-0.00507422
3.44439e-08
5.66627e-06
-0.00143118
-0.0181747
0.00600237
-0.000659948
0.00556603
0.0111603
-0.000903642
6.00689e-08
1.00966e-07
-5.11455e-08
1.6417e-07
6.87759e-08
1.57514e-08
9.89676e-08
-0.000678948
1.14513e-07
2.26494e-08
-0.00162235
1.14442e-07
9.14011e-08
2.84505e-07
1.17853e-07
-3.60807e-08
1.64879e-07
-2.33431e-08
0.00235104
-0.00105375
6.03886e-08
-3.09877e-08
1.83919e-08
8.47148e-08
8.16781e-08
1.13367e-07
0.0218787
-6.94755e-07
1.05214e-08
-0.00146959
-1.17184e-07
-1.49964e-08
-0.00181348
1.21159e-07
-2.91621e-06
8.68562e-08
1.08439e-07
7.33482e-08
3.37529e-05
-6.873e-08
8.82732e-08
-7.54714e-08
5.61041e-08
9.65118e-08
6.93506e-09
0.00381649
2.66823e-07
-1.61459e-07
0.00417863
0.000102628
4.69514e-06
-2.46149e-07
-0.0141334
-5.2438e-08
7.82299e-08
-3.85611e-08
0.00398763
-2.78675e-06
1.59846e-07
0.00235128
8.63045e-08
-0.000972939
6.43558e-06
0.000200106
8.83932e-09
-1.18616e-08
-3.2834e-08
1.36268e-06
3.88815e-08
2.44001e-05
-0.00308472
6.96171e-08
2.01796e-07
1.20974e-07
9.82357e-08
-0.00181865
1.46721e-09
-6.85005e-07
-2.79123e-07
9.42103e-07
-2.25097e-08
1.10518e-10
1.77619e-08
4.74923e-07
1.21813e-07
-1.85642e-08
6.06752e-09
5.74703e-08
1.0715e-07
1.93767e-07
1.81343e-07
-0.000392796
0.000943401
5.1247e-08
6.87211e-08
1.04469e-07
1.0611e-07
7.2426e-08
7.59568e-09
0.00255196
-3.05086e-07
5.27234e-08
1.47284e-07
-0.00211557
0.000266658
1.01399e-07
8.12675e-06
1.32896e-08
6.08066e-08
-0.0010611
2.08265e-07
3.37293e-07
2.69347e-08
0.00204733
-0.00111061
1.67288e-08
1.23693e-07
0.00367436
1.53144e-07
0.017478
2.09043e-08
7.94551e-08
0.00331401
0.00588617
2.57657e-09
2.93383e-08
1.0266e-07
-3.21486e-08
-9.58576e-08
0.00122107
0.000600819
-0.010081
-1.39958e-07
7.76491e-08
1.20494e-06
-3.96978e-08
-2.84544e-05
1.14404e-07
0.00246049
1.18371e-07
3.53339e-08
9.57109e-08
4.87284e-08
8.8949e-08
2.52711e-06
0.0143953
1.11343e-07
1.21441e-07
3.19734e-08
-0.000923845
1.0847e-07
1.12602e-07
4.05934e-08
2.22758e-07
-0.00201721
1.374e-07
1.02788e-07
2.86293e-07
1.73932e-06
-2.05952e-09
4.04795e-07
-4.81931e-08
1.10746e-07
5.92645e-06
3.86241e-08
0.00666865
0.000172645
-5.49035e-07
0.00440805
8.78274e-08
-1.81188e-08
1.10539e-07
0.00271313
1.99438e-08
-0.000306105
1.80269e-07
0.00377613
2.29092e-07
-2.67814e-08
1.09007e-07
3.04518e-09
-0.000152657
5.95308e-07
7.35522e-08
-9.17445e-06
4.90318e-06
3.00171e-08
2.62499e-09
3.00664e-08
-4.34245e-08
0.00365451
-9.1539e-08
1.44989e-08
6.77633e-06
4.18235e-08
0.00326965
-2.79691e-08
0.000255826
2.3562e-08
0.0036008
4.62175e-05
1.20897e-07
-1.10954e-08
1.6026e-08
8.90902e-08
-0.00183705
1.17336e-08
4.79531e-07
0.0077108
1.80537e-07
0.00153027
-1.75312e-08
-5.85596e-10
2.88281e-06
8.04316e-08
4.45531e-08
-0.000162527
-0.000228089
0.00221373
-5.06021e-08
6.48823e-08
7.64368e-08
-1.1089e-07
3.97424e-08
6.49799e-08
0.0092222
2.36663e-06
-0.0222738
3.13425e-08
1.19997e-07
-0.00511732
-7.47854e-07
8.21092e-08
6.77333e-08
-0.00108044
1.09611e-07
0.00369716
-6.2033e-08
6.91472e-08
2.21172e-08
8.54098e-08
1.82563e-07
-1.49408e-08
1.04404e-07
-2.61505e-08
0.0143752
1.48928e-07
0.00265096
7.16039e-08
3.59675e-09
1.71381e-08
-1.37442e-06
1.36182e-08
1.98097e-08
5.7189e-08
-0.0012038
-0.000254087
1.07094e-07
-1.93898e-07
-3.59976e-08
1.57511e-08
9.65803e-10
3.39569e-08
-3.8676e-08
-0.000535133
-6.47905e-08
9.82323e-08
1.72776e-06
2.43494e-09
-0.0120175
2.88315e-06
3.85948e-06
6.46346e-06
-1.22692e-07
1.49414e-08
-0.0055513
1.0532e-07
9.10912e-07
-7.77005e-07
3.95209e-08
1.69383e-07
7.2258e-08
-8.77532e-06
1.21641e-07
7.1039e-08
-0.000644588
6.51976e-07
-0.000898167
1.15315e-07
2.6884e-06
-2.16884e-07
7.19489e-08
-0.00911627
9.83319e-08
7.51722e-08
1.18069e-07
2.51377e-07
-3.06856e-08
1.4167e-05
6.65185e-08
2.77796e-08
-0.00174643
6.08022e-06
3.83265e-08
-4.69192e-05
1.0125e-07
-7.16712e-06
3.10254e-08
-1.3617e-07
-6.52926e-08
-0.0200571
1.45265e-08
5.49358e-08
-0.00189263
9.84557e-08
3.21971e-08
2.37817e-08
2.60853e-07
-0.000485654
0.0169892
9.26606e-08
3.99301e-07
6.1065e-08
-2.41474e-05
1.48216e-08
1.06181e-07
1.40615e-06
-0.000515747
9.82488e-08
8.06228e-08
7.81752e-08
-0.000329166
2.67256e-07
2.46652e-06
0.0046838
6.54217e-08
0.00872391
1.45253e-07
-7.65641e-08
4.82281e-08
3.89235e-08
-0.00302329
-4.35466e-09
6.81814e-08
7.27105e-05
-2.21953e-05
-0.00878195
9.46783e-08
-0.00474126
-2.26059e-06
1.30566e-07
4.45218e-06
0.0023862
4.83632e-09
-1.01687e-07
-0.0203981
1.41699e-07
8.15015e-08
1.12022e-07
-1.47555e-08
2.94225e-06
1.66591e-06
-1.0952e-06
0.00284879
6.21466e-09
3.80769e-08
3.84386e-08
-4.1702e-08
-1.83198e-08
-1.08074e-06
6.35392e-08
2.70724e-08
0.0105453
-0.0017434
0.00203739
9.20101e-08
2.62283e-07
2.99543e-08
0.000172052
1.01433e-07
2.57408e-07
0.0162194
-0.000729946
3.49216e-07
6.90734e-08
-0.0164913
-0.0020266
0.000217346
6.84117e-08
5.52969e-09
3.56697e-08
0.00511152
2.64094e-07
3.61173e-06
-0.00219395
1.05388e-07
4.76986e-08
0.000853146
2.88963e-08
8.46067e-07
1.80191e-08
-5.39302e-08
-5.87051e-09
0.000518776
-4.40491e-08
1.25224e-07
1.59422e-07
2.16145e-08
1.05614e-07
-0.00193163
0.000170048
7.34746e-08
1.40556e-05
1.09895e-07
3.47215e-05
2.02743e-08
3.56892e-08
2.90449e-06
-5.31051e-08
-3.69095e-09
3.46768e-09
-1.70712e-06