/*--------------------------------*- C++ -*----------------------------------*\
| =========                 |                                                 |
| \\      /  F ield         | OpenFOAM: The Open Source CFD Toolbox           |
|  \\    /   O peration     | Version:  v2012                                 |
|   \\  /    A nd           | Website:  www.openfoam.com                      |
|    \\/     M anipulation  |                                                 |
\*---------------------------------------------------------------------------*/
FoamFile
{
    version     2.0;
    format      ascii;
    class       volVectorField;
    location    "50";
    object      ddtCorrDdt0(U);
}
// * * * * * * * * * * * * * * * * * * * * * * * * * * * * * * * * * * * * * //

dimensions      [0 1 -2 0 0 0 0];


internalField   nonuniform List<vector> 
18355
(
(-0.0203221 0.0761653 -5.02616e-19)
(-0.000423356 -0.000214057 9.52604e-21)
(0.0613804 0.0416918 -6.90472e-18)
(-3.22936e-05 -1.61281e-07 -3.1279e-19)
(-0.0152555 -0.0113276 3.30877e-19)
(0.0839681 -0.00583021 -3.81021e-20)
(0.00379697 0.0015352 -3.67106e-20)
(-0.0173341 -0.00818057 1.48947e-19)
(4.49382e-06 1.08896e-05 -1.67598e-20)
(0.00859659 -0.0126384 -2.58849e-19)
(0.00439688 -0.00439327 -1.50226e-19)
(0.0365425 -0.0103878 7.2989e-19)
(0.0383432 -0.0113613 5.8611e-18)
(-0.0594967 0.0230332 -1.54087e-19)
(1.99307e-05 1.86117e-05 -2.06848e-20)
(0.000475602 -0.000471584 1.18504e-19)
(-2.97194e-05 1.84416e-07 3.36926e-19)
(0.00393134 0.00100564 1.83171e-19)
(0.0208604 0.0684554 2.92486e-18)
(-0.0018739 -0.00110906 -2.6541e-19)
(-0.26137 -0.195872 -3.12902e-18)
(-0.000841788 3.01041e-05 -1.48078e-19)
(-0.000164388 0.000233127 -1.59907e-20)
(0.0782682 -0.000780953 -3.78692e-20)
(-0.000158146 0.000232125 2.21063e-22)
(0.00123081 -0.00136797 8.18447e-20)
(0.00381698 0.000554384 -9.37947e-20)
(-4.17738e-05 5.27276e-06 9.32687e-19)
(-7.53446e-06 6.04461e-06 1.34685e-20)
(0.00577755 -0.00416537 -2.87815e-19)
(0.0621679 0.0645827 1.61892e-19)
(-0.00567153 -0.0291645 -3.40141e-20)
(0.000719955 -0.000868374 -1.49796e-20)
(0.000533419 -0.000265457 1.33682e-19)
(5.2892e-05 2.60765e-05 -4.12146e-22)
(-0.00142063 -0.00125018 -5.07612e-19)
(-8.90466e-05 0.00537963 -1.73407e-18)
(-0.00141943 -0.00149326 7.12832e-19)
(0.00650948 -0.00448901 -4.10525e-19)
(0.000430855 -0.000397957 -3.79048e-19)
(-6.40475e-05 5.13286e-06 2.45319e-18)
(0.00506462 -0.00481442 4.08762e-19)
(0.00054886 -0.000362892 2.1641e-19)
(-0.000405227 -8.74324e-05 -2.08649e-20)
(-0.000466404 -4.01729e-05 9.09608e-21)
(0.0587284 -0.0342636 -8.64099e-18)
(-4.63332e-05 -0.000152029 1.81137e-19)
(-3.81055e-05 -0.000160848 -1.26331e-20)
(0.0546572 0.0806938 -5.86938e-19)
(0.000565405 -0.000800706 -2.73162e-19)
(0.000343508 -6.25017e-05 -3.74794e-19)
(0.032473 0.026311 -1.633e-19)
(0.00046575 -0.000883011 8.70784e-20)
(-0.028192 0.0702372 -2.28157e-18)
(-0.000151422 8.04907e-05 -3.76491e-19)
(-0.00202552 -0.00152594 1.46954e-19)
(0.000260904 -2.15214e-05 1.65799e-20)
(0.0508149 0.0954213 1.37594e-18)
(0.00122138 -0.00162757 -2.42059e-19)
(0.0430033 -0.0581444 9.26216e-18)
(0.000523246 -0.000294203 -2.14752e-19)
(0.0292158 0.00625816 -5.73983e-18)
(-0.0332278 0.0675753 -6.30073e-19)
(0.00169817 -0.00215403 3.43374e-19)
(-0.0245162 -0.0351303 8.60342e-19)
(0.000476153 -2.11438e-05 -1.46475e-19)
(-0.00322024 0.000192564 1.27342e-18)
(-0.000331088 0.00559957 4.1617e-19)
(0.000588496 5.40183e-05 -2.97129e-19)
(0.0208289 0.0468104 1.1781e-19)
(0.00105086 -7.55269e-05 -4.44461e-20)
(-0.000158638 8.14731e-05 -9.94488e-19)
(-0.00398266 -0.0208951 -1.02239e-19)
(0.00448591 0.00306552 2.47347e-19)
(0.00359864 -0.0608953 -6.69494e-19)
(0.000533584 8.86274e-06 8.23095e-20)
(0.0676792 0.102805 -5.01234e-19)
(0.000524593 -4.65998e-05 -1.49598e-19)
(0.00101744 1.94351e-05 4.4292e-20)
(0.017275 -0.0508586 -8.61706e-19)
(-0.00318795 -5.88776e-05 -3.95496e-19)
(0.0440919 -0.0239086 -7.21149e-19)
(0.000584604 1.82748e-05 2.49758e-19)
(-0.00439274 -0.001112 -2.87081e-19)
(-0.0284553 0.00666864 -6.88296e-19)
(-0.000119419 -4.05388e-05 4.90576e-20)
(1.08385e-05 -1.15914e-05 2.45071e-19)
(-0.0156455 0.0104004 -8.19557e-20)
(0.000169415 -0.000142566 -8.51496e-20)
(-0.0169385 0.00941478 2.70006e-20)
(-0.0256961 0.0332623 -1.19548e-18)
(-0.135134 -0.19536 5.8273e-19)
(0.0434548 -0.0173485 5.28116e-19)
(0.000751035 -0.000863071 -4.64256e-20)
(-0.0321033 0.0686548 6.53198e-19)
(0.00232678 -0.00114603 -2.95192e-19)
(9.14362e-05 -7.82034e-05 -4.00033e-21)
(0.00199255 -0.00109053 1.01772e-19)
(0.00580393 0.0365595 -1.38663e-18)
(-0.000687757 -0.000124946 -1.72583e-18)
(-0.0264864 0.00591991 -7.23691e-19)
(0.000899718 2.82585e-05 2.26081e-19)
(0.000821911 -0.000769457 1.44352e-19)
(0.000280195 2.23888e-05 1.05096e-21)
(-0.00345313 -0.000477676 9.68005e-19)
(0.000438382 -0.000549633 -1.30996e-19)
(-0.0204961 -0.0372928 -1.35603e-18)
(-0.0411266 0.0729667 1.72424e-20)
(-0.00659722 0.00915921 3.85461e-18)
(0.000592946 -0.00038852 -1.52701e-19)
(0.000330673 -3.5412e-05 5.11416e-20)
(0.000248543 4.87432e-06 2.33298e-19)
(0.0034884 -0.0134039 -1.01261e-19)
(-0.00399237 -0.00122198 -5.05961e-20)
(0.0817603 -0.0107651 -5.10369e-18)
(-0.00273969 -0.00754378 -7.02384e-21)
(0.000863908 0.000104723 -1.33189e-19)
(0.0205632 -0.0636064 5.43702e-19)
(-0.00187979 -0.000885015 -3.3866e-19)
(-0.00301778 0.00035129 -1.39679e-18)
(0.0134312 0.0429529 -5.09659e-19)
(0.0642893 0.0398996 1.03902e-17)
(-0.0229855 0.0454286 -9.75841e-19)
(-0.0200962 0.0135236 1.61623e-19)
(0.0323293 -0.0512289 4.32022e-19)
(0.0670569 -0.0310115 -1.1695e-17)
(0.00403461 0.00110672 4.65687e-20)
(-3.05428e-05 -2.21545e-06 8.14123e-20)
(0.00490793 0.0859644 1.58681e-18)
(-0.000519778 8.64596e-05 -2.33999e-18)
(9.95165e-05 -8.42534e-05 -4.67191e-20)
(0.0330358 0.0138579 -3.62825e-18)
(-0.000154997 -0.000110419 6.67599e-19)
(0.0206871 0.0263027 3.32667e-18)
(-0.0685862 0.00990257 4.03065e-18)
(0.000211854 -0.000167073 -2.90281e-20)
(0.0248931 0.0676804 -1.42037e-18)
(0.0035397 0.0499099 -1.49686e-18)
(-8.73376e-05 -2.57546e-05 -1.1118e-18)
(-0.212831 -0.215186 1.92994e-18)
(-0.0020284 0.0036701 -1.80071e-19)
(0.0146283 -0.018337 1.13946e-21)
(2.41187e-05 -0.000232231 -4.50798e-20)
(0.106477 0.0295192 -4.86233e-19)
(-0.0715493 0.0043588 -1.22772e-18)
(-7.93213e-05 1.52387e-05 -5.61605e-19)
(0.0731663 -0.0440723 7.41676e-18)
(0.000163873 5.72547e-05 3.17021e-21)
(0.00439146 -0.0127681 -1.95367e-19)
(-0.000276492 0.000113284 1.56522e-21)
(-4.23184e-05 7.71026e-06 -1.07426e-18)
(-0.00282698 0.000341468 -2.12196e-19)
(6.17261e-06 -0.00440294 5.72427e-20)
(0.0114957 -0.00461028 -8.59234e-20)
(0.000550988 -0.000376085 -1.85295e-19)
(-0.000279595 0.000273792 -3.34895e-20)
(-3.09626e-05 -2.22805e-06 -1.27093e-19)
(-9.89682e-05 -7.09375e-05 8.07494e-20)
(1.42595e-05 -0.00024369 1.26957e-20)
(-0.000259213 0.000248686 -7.8717e-21)
(0.00449124 -0.000445174 -2.06506e-20)
(-0.000153119 -0.000120634 -3.28998e-19)
(0.000579847 -0.000374568 -6.24638e-21)
(0.0121235 -0.0105938 -4.29809e-20)
(0.00576113 0.00138484 3.83145e-19)
(0.00725342 -0.0034966 -6.0356e-20)
(0.0414447 -0.0581052 -5.63274e-18)
(-0.0368538 0.114935 -8.1429e-18)
(-0.172503 -0.547471 2.68198e-17)
(-0.0022827 0.00362477 4.05268e-19)
(0.000320442 3.14257e-06 -6.08454e-20)
(0.0188814 0.0252106 -1.1961e-18)
(0.000174822 1.46491e-05 1.6445e-19)
(0.0618807 0.0780052 -1.16521e-18)
(0.000265791 6.47766e-06 2.11912e-20)
(-7.86501e-05 1.17092e-05 -1.49271e-18)
(0.000298704 -4.09876e-07 -1.87636e-19)
(0.000108774 0.000255351 5.24891e-21)
(-0.000110064 0.0012887 2.39752e-18)
(-0.00864481 -0.00331985 -1.77957e-19)
(-0.00018303 -7.70606e-06 4.49529e-21)
(0.00873243 -0.00382309 -9.15762e-19)
(-0.000676502 4.61778e-05 -2.48175e-18)
(-5.65537e-05 -2.97146e-06 6.57529e-19)
(0.0105801 -0.00404111 -3.07956e-19)
(0.00101569 -0.000772019 6.79284e-20)
(-0.00036777 7.26814e-05 1.34044e-20)
(-0.0176396 0.0065182 -1.62378e-19)
(-6.83111e-05 4.56915e-05 1.52537e-18)
(0.00413054 8.84789e-05 3.99902e-20)
(0.0637244 -0.0307542 1.1972e-17)
(0.00751383 0.035274 1.42823e-18)
(-0.00061078 0.0001461 -5.21626e-20)
(0.000877111 -1.06919e-05 1.14208e-19)
(-4.66268e-05 6.50374e-06 2.58006e-18)
(0.0851796 -0.0015618 -1.70938e-17)
(0.000406705 -9.11065e-05 1.59459e-19)
(-0.000548253 0.14227 -5.37626e-18)
(-0.000495031 -0.000175324 -1.52959e-20)
(-0.0541988 0.0218647 -2.69115e-19)
(0.00106237 -0.000656439 -1.14674e-19)
(0.00137263 0.00218065 1.9684e-19)
(0.00725492 -0.00365945 9.38833e-20)
(-0.000254391 -4.8264e-05 7.36618e-20)
(-0.0214122 0.108004 3.32418e-19)
(-0.000418352 0.000181453 2.54805e-18)
(-0.166537 -0.54707 -2.75431e-17)
(-5.08012e-05 1.66881e-06 -9.99502e-20)
(0.000743154 -0.000811351 2.97641e-19)
(-0.00156772 -0.00417618 -9.96419e-20)
(-0.000218027 -0.000181029 6.63274e-19)
(0.0379818 -0.00335732 9.37091e-19)
(0.00205091 -0.00469417 -4.20157e-20)
(0.00155589 -0.00456559 2.01015e-19)
(0.00015435 3.39475e-05 -3.9023e-21)
(0.0636043 0.0613813 -1.36648e-18)
(-0.00834539 -0.00392401 -1.03343e-19)
(0.000255311 0.00346925 5.524e-19)
(-0.000446633 0.000142916 -2.42825e-19)
(-3.17313e-05 -0.000224206 -1.26386e-19)
(-0.0063682 0.00846564 1.02795e-18)
(0.000734546 1.66928e-05 1.07741e-19)
(-0.0129661 0.0100522 5.44022e-19)
(-0.000287935 0.000408897 3.98714e-19)
(0.000924859 0.0175245 8.50019e-19)
(0.00507166 0.00996678 -5.72569e-20)
(0.000768242 -5.88787e-06 -5.28665e-20)
(-0.000681193 0.0453822 1.38278e-18)
(-0.104905 0.0651793 1.85491e-18)
(-0.00776242 -0.0147853 -1.03847e-18)
(0.00166532 0.0043343 -9.19539e-21)
(-0.00349128 -0.000211758 2.56122e-19)
(0.00599082 -0.0141513 -4.59339e-19)
(0.000753174 1.37679e-05 -9.7841e-20)
(0.0142417 -0.00923645 1.14676e-20)
(0.00169259 0.0151721 -7.57144e-19)
(-0.000258135 0.000674921 -4.12987e-18)
(0.0618831 -0.0341213 1.47412e-17)
(0.00139442 0.00213573 2.90492e-18)
(0.00120084 -0.00497029 4.76047e-21)
(-0.000580067 -0.000200159 -1.78517e-20)
(-0.000133138 0.00122311 -4.51992e-18)
(0.000792503 -0.00465267 4.37948e-19)
(-0.00866011 -0.012069 -2.00325e-19)
(-0.000420043 0.00015487 -3.92682e-18)
(-0.000140022 9.30461e-05 -3.67632e-19)
(-4.37862e-05 -9.91172e-05 -1.86529e-19)
(0.0354973 -3.50213e-05 -1.05232e-18)
(0.0496388 -0.00343196 3.58943e-19)
(0.00144824 -2.5222e-05 3.02919e-19)
(0.00194302 -0.00214657 -2.23477e-19)
(0.045891 0.000175974 -7.44713e-20)
(0.0538978 0.0190318 3.18648e-18)
(-7.71462e-05 0.000789396 -6.32303e-19)
(0.000128816 0.000233711 -3.87356e-21)
(-0.00163348 -0.000665734 3.48415e-19)
(0.0013333 0.00225078 4.20733e-18)
(-0.000113283 1.20518e-05 -2.2996e-18)
(0.00387725 0.0112523 9.98082e-20)
(0.000124402 -8.15775e-05 -4.55098e-20)
(-0.000269682 0.000111994 -7.53572e-22)
(-0.0779815 0.0524062 -1.56842e-19)
(0.00648703 0.0314451 1.21149e-18)
(0.00393128 0.00361953 -5.25156e-18)
(0.00812531 -0.00386061 3.41086e-19)
(0.0149858 0.000527751 1.32805e-18)
(0.00821012 -0.0169732 4.32087e-20)
(0.00512718 0.041618 7.46264e-19)
(0.000133691 -8.19528e-05 -3.55973e-20)
(-0.000144544 9.40232e-05 -1.73609e-20)
(0.00413348 -0.000905802 -4.63571e-20)
(0.000596585 -0.000408053 2.71577e-20)
(0.00103909 0.00246749 -4.90349e-19)
(0.000441529 0.00358993 -3.46344e-18)
(-4.20363e-05 -6.40006e-06 2.92126e-19)
(-0.000303036 -0.000107747 2.13282e-19)
(0.00146892 0.0122547 -2.4086e-19)
(0.000209049 -0.000155016 -9.40566e-21)
(-0.0439095 0.028297 -3.88095e-18)
(0.0896137 0.0910824 1.19443e-18)
(0.00287237 0.00998628 4.55743e-19)
(-0.000236051 -0.000196293 -1.7055e-18)
(-0.00187521 -0.00894159 3.37338e-20)
(0.00059671 -0.000410869 1.02101e-19)
(-0.0139291 0.0125012 9.26033e-20)
(-0.000345252 0.000196083 2.71411e-18)
(-0.00927588 -0.00540235 -8.08289e-20)
(-6.18953e-05 6.04736e-06 -2.81079e-18)
(-0.00841689 -0.00519248 2.25071e-19)
(-0.000310734 -1.05514e-05 9.78424e-22)
(0.000701013 -0.000871685 3.74577e-20)
(0.00880881 0.0125196 -1.14576e-18)
(-0.00189656 -0.000392398 -3.25986e-19)
(-0.00211715 0.0130491 -1.1568e-19)
(0.0055289 -0.0176009 -8.79457e-20)
(2.45463e-05 1.33633e-05 -9.44434e-21)
(0.000866688 -4.42973e-06 -6.55137e-20)
(-0.0413189 0.0252991 4.00531e-18)
(-0.000278191 -0.000132956 -2.69051e-19)
(0.0118024 -0.0197711 -2.23305e-20)
(0.000528209 0.0051809 1.26546e-18)
(-0.0898928 0.153872 3.09702e-19)
(-0.0112413 0.0153195 -2.93405e-19)
(0.00764554 0.0325304 -2.76111e-19)
(0.00249386 0.0019502 -1.69034e-19)
(0.00159926 0.0137157 9.76039e-20)
(0.000412354 -0.000588588 -3.52375e-19)
(0.000942643 0.00180036 8.4008e-18)
(0.00367342 0.00354665 -1.54757e-18)
(0.00837788 0.0131918 4.8946e-18)
(0.0042482 -0.0072727 -6.5847e-20)
(0.0768408 0.0488583 -1.04327e-17)
(-0.000120934 -0.000118776 5.69769e-20)
(-0.00270794 -0.00449741 -7.38559e-20)
(-0.0357176 0.0576811 1.22178e-20)
(-0.00183809 -0.00972903 -1.49988e-19)
(-0.000113952 -0.000109907 6.10359e-20)
(-2.76526e-05 -0.000183498 -2.03237e-20)
(-4.7174e-05 -2.62502e-05 -3.54996e-19)
(0.0129865 0.0035931 -3.47725e-19)
(0.0769787 0.0447228 3.2475e-18)
(0.0855851 0.079155 -1.48694e-18)
(0.00564849 -0.00653417 -2.47556e-19)
(0.00328203 0.0112678 7.50409e-19)
(-0.00161581 0.00346115 -1.88411e-18)
(0.0325852 -0.00493102 -1.79079e-19)
(0.000129451 0.000130496 2.01114e-21)
(-0.000392222 0.000183418 1.15819e-18)
(-0.00184057 0.0033884 6.45017e-19)
(-0.000201246 0.000123867 1.37937e-18)
(-0.00919992 -0.013825 7.55763e-19)
(4.80688e-05 3.07661e-05 -1.98516e-21)
(0.0338625 0.00620653 -9.82433e-20)
(0.000393147 -0.000610537 -2.5346e-20)
(0.0425299 -0.0460595 -1.54637e-18)
(-7.84593e-05 2.82556e-05 -4.13342e-19)
(0.000346686 -0.000390147 5.16777e-19)
(0.00243259 0.00293149 3.56564e-19)
(0.046072 -0.00513039 -2.50916e-17)
(-0.0507162 0.136632 1.35639e-18)
(-0.00970389 -0.0111492 -5.85367e-20)
(0.00519976 -0.00519331 2.78468e-20)
(-0.000325661 -0.000569601 -4.24022e-19)
(0.000170227 -0.000146133 7.86065e-20)
(-0.000193891 0.000119351 -1.29119e-18)
(-0.000981938 0.00324149 4.58428e-19)
(0.00520058 -0.0151807 2.07612e-18)
(0.00016455 -0.000145359 3.30967e-20)
(-6.01843e-05 -2.4501e-05 -1.30821e-19)
(-0.000202787 0.00016387 -5.0381e-22)
(-0.000461879 -0.000393295 7.41102e-19)
(0.000187013 -0.000164637 6.33705e-20)
(0.055033 0.00830642 -5.0316e-18)
(-0.000516126 0.00273696 -3.25493e-20)
(-4.67471e-05 -5.59785e-05 5.84691e-19)
(0.00192596 0.00331024 1.03937e-19)
(-0.00965846 -0.00659098 1.19101e-19)
(-0.000137514 2.29075e-06 1.48326e-19)
(-0.00899133 -0.00734898 1.50918e-19)
(0.00088712 0.000302927 2.4584e-20)
(-4.95607e-05 -2.37322e-05 5.68897e-19)
(-0.000625041 -0.000126862 -1.79623e-19)
(0.0791156 -0.0473337 -8.25465e-18)
(-0.00297575 -0.00496828 4.94425e-20)
(0.000862997 0.000333305 1.39073e-20)
(2.15224e-05 -0.000203318 1.95379e-20)
(-0.000878054 0.00954595 9.26786e-19)
(-5.08509e-05 -6.86437e-06 4.69637e-20)
(0.000141904 -1.7273e-05 -5.08275e-20)
(0.0349187 -0.00139076 8.22164e-19)
(-0.00406128 -0.00409231 1.98658e-19)
(-0.000820917 0.0148176 -1.05324e-18)
(-0.000188563 0.000102172 -4.31675e-19)
(-0.000279608 0.000721896 -1.78701e-18)
(0.0402099 -0.00988658 -1.4148e-17)
(-0.00813001 -0.00146848 6.51269e-20)
(-0.00155168 -4.9711e-05 -9.00679e-20)
(0.00106258 0.00179345 -6.80843e-18)
(0.000567747 -0.000733074 -4.66534e-20)
(-0.000108431 0.00817675 -4.43311e-19)
(-0.00477259 -0.0154464 1.13611e-19)
(-0.000536514 -7.35628e-05 1.34415e-19)
(-4.25881e-05 -2.37271e-05 1.83468e-19)
(0.00402576 0.000454125 -2.78677e-19)
(6.34726e-05 -3.80848e-06 -1.53962e-19)
(0.00326472 -0.000923974 6.82598e-19)
(-4.9704e-05 1.29088e-05 -3.49944e-18)
(0.0273549 -0.03216 -5.29497e-20)
(0.000337155 -0.00485586 -1.50339e-19)
(-0.00252721 0.000572217 1.4313e-18)
(0.000403558 -1.50823e-05 1.23631e-19)
(-5.34788e-05 -3.77103e-05 5.95616e-19)
(0.000706463 0.00231556 4.46371e-19)
(0.0051886 -0.000344527 -1.99307e-20)
(0.020608 0.011304 3.44402e-18)
(0.127997 0.0337147 -2.14802e-19)
(-0.0036654 -0.00699868 -1.06912e-20)
(0.00516343 0.00727644 -7.54305e-20)
(0.0524044 0.0210231 -7.63717e-18)
(0.00434042 -0.0108334 -2.18292e-20)
(-7.71231e-05 2.26003e-05 8.1441e-19)
(1.5245e-05 2.52858e-05 -1.86194e-21)
(0.00760846 0.0113734 6.10131e-18)
(-7.00132e-05 5.21122e-05 -2.45005e-18)
(-0.000996966 0.01618 2.19164e-19)
(0.00331444 0.00152861 1.53592e-20)
(0.00658768 0.0042322 2.55507e-19)
(0.0330356 -0.00744627 -2.14131e-19)
(0.00229169 0.0230006 -2.35763e-19)
(-0.0675054 0.118564 2.16973e-18)
(-0.000950626 0.0370475 -1.32514e-19)
(0.000273981 1.61708e-05 -2.2306e-21)
(0.206896 0.0893241 -6.7452e-19)
(-0.000713637 -6.32091e-05 -2.05566e-18)
(-3.97703e-05 -2.03964e-05 -1.1523e-19)
(-0.272012 -0.230797 -2.46966e-19)
(-7.40099e-05 2.65368e-05 -9.38879e-19)
(-0.000476681 0.00674006 2.81857e-19)
(-6.06269e-05 0.000274161 -7.75169e-22)
(-0.0215159 -0.0440891 4.5182e-21)
(-7.99772e-05 3.57224e-05 1.30439e-18)
(0.0192301 0.0228574 2.46611e-18)
(-0.0319186 -0.0756883 1.45394e-18)
(0.00707884 0.0278834 -2.30256e-18)
(-0.000132407 -0.000171401 -1.1555e-19)
(-0.000700743 -0.000451458 9.41475e-21)
(0.00817235 0.0291562 -1.73581e-18)
(-0.00195919 -0.000710306 -1.76653e-18)
(0.00135372 0.00217167 -1.83217e-19)
(0.00736628 -0.00855065 -1.44571e-18)
(-0.0620901 0.0464275 4.92746e-19)
(-3.78108e-05 -2.68306e-05 1.96452e-19)
(0.00829803 0.0116097 -1.17282e-18)
(0.0205325 0.0124736 -6.96125e-18)
(-0.000638196 -0.000435485 -3.60851e-20)
(0.000552696 -0.000751043 2.03807e-19)
(-0.00902143 -0.00958571 5.67167e-20)
(0.0623688 0.0412921 -1.64436e-18)
(-0.00478753 0.0156655 -1.6107e-19)
(-0.000401265 -0.000439855 5.56689e-19)
(0.000317991 -0.000618686 3.00847e-19)
(0.00613089 0.00871372 1.67248e-18)
(6.65776e-05 2.61187e-06 4.74636e-20)
(0.000820174 -0.000240564 -1.60946e-19)
(0.00175032 0.00285698 1.40113e-20)
(0.00378388 0.0201907 2.3205e-19)
(0.127491 0.0283928 -2.17262e-17)
(0.000579637 -0.000687778 7.50947e-20)
(-7.84957e-05 -5.61156e-06 4.23543e-20)
(-0.000102221 2.41962e-05 5.34583e-19)
(0.0482261 -0.00550886 -1.48109e-17)
(-0.00290017 -0.0153377 -8.88837e-20)
(0.000834012 4.82141e-05 -2.23217e-21)
(-0.00137884 0.00612119 -2.11836e-19)
(-0.0127384 0.0113343 -1.06666e-18)
(-0.00020007 0.000184915 -4.03035e-18)
(0.0866404 -0.00498708 1.86008e-17)
(0.03006 0.00792347 8.14737e-18)
(-0.000732061 6.41112e-05 2.82454e-18)
(6.7594e-05 -1.36509e-06 2.55073e-19)
(-0.00474316 0.0145961 2.98693e-19)
(0.049176 -0.00972692 -1.36212e-17)
(-0.0798894 -0.0421055 -5.63564e-18)
(0.000662298 -0.000607374 -1.04951e-19)
(0.0233205 0.18246 -1.49609e-18)
(-8.55019e-05 -2.40189e-05 5.61091e-19)
(0.000657118 -0.000671561 8.01234e-20)
(-0.0137855 0.0166587 -2.30302e-19)
(-0.0022544 -0.000473067 -2.75035e-19)
(0.0280116 -0.0365022 2.91328e-19)
(-0.00625931 -0.0201946 5.00079e-19)
(-0.00271888 0.000592907 3.41284e-19)
(0.00496505 0.00367654 -9.71532e-19)
(-0.000861878 9.95306e-05 9.04537e-19)
(0.0535468 0.0108452 7.27423e-18)
(-0.00202409 -0.00106289 3.873e-20)
(0.00337655 0.00312938 -9.80849e-19)
(-0.00058812 -0.000368123 4.34202e-19)
(0.000705723 -0.000497274 -9.15739e-20)
(-0.00039533 0.000408097 -4.27813e-19)
(0.00071322 -0.000558417 2.30328e-19)
(0.0293021 0.0111311 1.83034e-18)
(0.12963 0.0403548 1.51714e-17)
(-0.0168899 -0.0457529 -8.68126e-19)
(0.00443249 0.00132125 1.07245e-20)
(0.000148988 -0.000185362 5.74578e-19)
(-0.00052727 -0.000422427 -1.16566e-18)
(-0.00146694 -0.00479238 3.51406e-19)
(0.00275331 0.00159946 -3.70254e-19)
(0.00190201 -0.00152854 -2.16706e-19)
(0.000676745 0.000476978 2.14965e-20)
(-7.24629e-05 5.5762e-05 8.83699e-19)
(-0.0133483 0.0137843 1.76688e-19)
(-0.000615882 -0.000258686 -2.5891e-20)
(0.00204605 -0.00131908 -3.40598e-19)
(0.0255337 0.286768 4.68413e-19)
(0.0157606 0.149438 -1.27062e-18)
(-0.0318965 0.0613732 -5.33938e-18)
(-0.000493062 0.000111991 1.96747e-18)
(-0.000150185 -8.17963e-06 1.19786e-19)
(-0.0097676 -0.00875868 -3.09514e-20)
(-0.000786215 2.08885e-05 -8.69398e-19)
(-0.000283689 0.000132847 1.60093e-21)
(0.0644041 0.0528479 1.49676e-18)
(-0.00206536 -0.00422484 -1.07866e-19)
(-0.00405601 -0.0023448 2.91668e-20)
(0.00170258 0.00605202 7.17066e-19)
(-0.00117846 0.000618556 -1.15035e-18)
(-0.00217644 0.00198177 -1.61133e-18)
(-0.0988388 -0.109463 -2.49006e-17)
(-0.0130211 0.00272003 -1.8258e-19)
(-0.00103729 -0.00113327 2.51009e-19)
(-0.03884 -0.0517396 3.09051e-19)
(1.80576e-05 -1.92251e-05 -2.07594e-19)
(-0.0366857 0.136635 -1.52083e-18)
(0.289728 0.0398769 1.39301e-18)
(0.00165686 0.00229336 2.99743e-20)
(0.000516606 -0.000680045 -4.92104e-20)
(-0.0992141 -0.112644 1.41835e-17)
(-4.24858e-05 -2.28725e-06 -2.81406e-19)
(0.0177342 0.0220394 1.30439e-19)
(-0.00307273 -0.0307209 -4.27704e-19)
(0.0120696 0.00635255 -9.9334e-20)
(-0.00190713 -0.00126281 1.34364e-18)
(-0.000364166 0.000382974 2.18747e-19)
(-0.000206664 0.000186181 1.93797e-18)
(-0.0642805 0.181232 1.92654e-18)
(-0.063574 -0.0671578 8.7055e-18)
(0.00931725 0.00509343 2.86413e-20)
(-0.000716932 -0.141205 4.29224e-18)
(0.00175467 0.00226224 -1.16243e-19)
(-0.000203168 0.000180233 -2.01796e-18)
(-0.00447384 -0.000744975 3.91927e-19)
(-0.000136073 9.71464e-05 -8.58648e-19)
(-0.00335083 -0.00256483 -5.23372e-19)
(-0.262347 -0.198546 -1.72606e-18)
(0.0723667 0.0473287 1.15776e-18)
(0.124765 0.0437924 -5.89304e-18)
(0.0727314 0.0240045 1.42986e-19)
(-0.00400871 -0.0094323 3.3184e-19)
(-0.00576051 -0.026015 -3.73374e-19)
(0.00583371 -0.0143351 -1.14475e-19)
(-5.60222e-05 -0.000122666 3.17355e-19)
(-0.000105851 -0.000169247 5.8206e-19)
(-0.00410421 -0.011011 3.19512e-19)
(-0.00396484 0.00315723 -5.54163e-19)
(-0.000360893 0.000208194 -2.4426e-18)
(-0.000132271 9.36321e-05 7.37939e-19)
(0.0357994 -0.0607452 1.14094e-18)
(0.000107604 -8.01925e-05 -7.64978e-20)
(0.0720566 0.0273726 -1.80752e-19)
(-0.00440791 -0.00476814 -1.67945e-19)
(0.025698 0.0178195 -6.63837e-18)
(0.0420759 -0.0106386 2.08416e-17)
(-0.000108184 -0.000170073 3.07138e-19)
(-0.00390408 -0.00160868 9.21299e-19)
(0.0173031 0.10404 8.98058e-18)
(-7.47953e-05 6.30249e-05 -1.10948e-18)
(0.122821 0.0541075 1.52972e-17)
(-3.02039e-05 -2.34151e-05 4.8465e-19)
(0.00559073 -0.130022 -1.64062e-19)
(-0.0131983 0.00174855 -1.13577e-19)
(-6.78654e-05 9.84074e-06 -8.56699e-19)
(0.00700808 -0.0134864 2.13335e-19)
(0.00682907 0.0397069 2.56302e-19)
(-0.00301144 0.0389797 -1.81523e-20)
(-0.000212183 -2.72928e-05 -1.0263e-19)
(0.000845984 -0.000132237 9.65556e-20)
(0.00504803 0.00854689 -2.1555e-18)
(0.00183189 0.00231601 -6.26748e-18)
(0.0258178 0.0196477 1.91422e-18)
(-5.68421e-05 2.93474e-05 3.00305e-19)
(0.0297876 0.00491191 1.68786e-17)
(0.000116944 -8.50235e-05 1.27138e-20)
(0.0602928 0.0543853 2.91533e-18)
(1.25214e-05 1.76765e-05 2.59792e-21)
(-0.000208388 -0.000205112 -2.20665e-21)
(0.065239 0.0228544 5.78114e-18)
(0.0121113 0.00276957 1.54322e-19)
(-0.000260745 0.013228 1.45807e-19)
(0.00030405 5.64819e-06 3.7369e-20)
(-0.00409515 -0.00317921 -7.12961e-19)
(-0.00643967 0.010737 1.7435e-19)
(0.0339598 0.00237326 -2.09827e-19)
(0.0887758 0.0768618 5.57729e-19)
(-0.00106792 0.00301929 5.51778e-19)
(-0.000733044 0.000483258 -4.18756e-19)
(0.000269732 4.14335e-05 -2.88435e-20)
(-0.00283472 -0.00835055 -7.33686e-20)
(-0.000489732 -0.000213498 3.70444e-19)
(-0.00101125 0.00283511 -9.59292e-19)
(-0.0422027 -0.10898 -7.03635e-18)
(-0.00062292 0.000311264 1.22412e-19)
(-0.00203096 -0.00792259 -2.82204e-19)
(-0.000118832 -0.00023105 4.7176e-19)
(0.000346779 1.95885e-05 8.37573e-20)
(-0.00255514 0.00251661 3.91199e-18)
(-0.000278946 0.000133131 -1.17558e-21)
(-0.00955964 -0.00205212 -3.22844e-20)
(-0.0586135 0.00298069 2.79312e-18)
(-0.000986896 0.00886414 6.36739e-21)
(0.00724445 0.0047349 -4.88428e-18)
(-0.0510735 -0.0414341 9.75325e-19)
(0.000138827 9.575e-05 1.11803e-21)
(-4.79963e-05 -7.39598e-05 -4.07305e-19)
(0.0582219 0.133956 6.9019e-18)
(-0.0166048 0.00776555 8.11601e-20)
(0.0702731 0.245416 9.03622e-19)
(-0.010608 -0.0200873 4.37364e-19)
(0.000220809 -0.000339181 -8.96668e-20)
(-0.000118785 8.99944e-05 -1.3967e-18)
(0.00118191 -0.000135792 -3.76809e-20)
(0.00480758 0.00236836 -3.63063e-19)
(-0.000180788 -0.000737259 -8.64016e-20)
(-1.90498e-05 0.000244176 9.77933e-22)
(-0.0995392 0.00965059 -2.77728e-18)
(0.00854591 -0.0430758 3.78678e-18)
(-0.000193651 -0.000177242 2.77744e-20)
(0.067757 0.0394776 -7.92775e-19)
(0.0658098 0.0413543 3.7374e-19)
(0.003227 -0.00371466 2.45683e-19)
(0.0695159 0.0278717 -8.9744e-18)
(0.000841465 -0.000275035 2.11642e-19)
(-0.0584345 0.0749006 -7.40295e-18)
(0.00663947 0.00752783 2.31526e-21)
(9.49919e-05 2.98372e-05 -6.97933e-21)
(-0.0517916 -0.0340417 -2.70877e-18)
(0.00717287 0.00988159 -8.37817e-20)
(0.0949891 -0.00291261 -2.64547e-19)
(0.0332838 1.47392e-05 -1.38801e-19)
(0.00104066 0.0031849 3.80112e-19)
(0.00127591 -1.02949e-05 -1.9783e-19)
(0.000167622 3.01626e-05 -2.93807e-19)
(0.0102588 -0.00326107 1.16679e-19)
(0.0125455 0.00424431 9.41978e-19)
(-0.000155545 -0.000127888 -9.91332e-20)
(-0.000102401 0.000628654 -1.72101e-19)
(-0.0929412 0.017673 4.47441e-18)
(-0.000662119 -1.13949e-05 8.12613e-19)
(0.00783056 0.0102955 -1.0202e-17)
(0.00141902 -0.000341581 -7.06774e-21)
(0.00673222 0.00851176 1.28218e-18)
(0.101906 0.0909087 4.14833e-18)
(-0.0793505 0.139729 -2.18084e-18)
(-0.0463517 -0.0205793 -3.92228e-21)
(-0.0803423 0.144659 1.2348e-18)
(-0.019276 0.00691696 2.31422e-20)
(0.0672153 0.0771937 -7.8414e-19)
(-0.00424018 -0.00193387 -1.09939e-18)
(6.05484e-05 -0.000165826 3.34096e-20)
(-0.00389726 -0.00588158 4.22099e-19)
(0.0352696 0.00024197 -2.01496e-19)
(0.0125995 -0.00326651 1.12755e-19)
(0.0112836 0.00211046 1.66149e-18)
(-0.000135035 -0.000156933 2.3907e-19)
(-0.102373 0.0707543 8.44289e-18)
(-0.000100086 1.64264e-05 -5.07419e-19)
(0.000197401 -0.000406172 2.44472e-19)
(0.0451251 0.127858 -6.67124e-19)
(0.000134225 -1.62872e-05 1.05432e-19)
(-0.00473808 -0.00607589 1.08961e-19)
(0.000468841 0.0113316 -8.50044e-19)
(-0.0532493 0.00252618 -4.65894e-18)
(-6.61797e-05 7.74863e-05 1.08614e-18)
(-8.70827e-05 5.32165e-05 -3.01789e-19)
(-0.00283329 0.00215597 -6.16822e-19)
(-0.00439471 -0.00366674 1.82684e-19)
(0.000742186 0.000128402 -2.40453e-20)
(0.000762988 -0.000172961 1.65624e-19)
(0.010143 -0.0135989 2.43251e-19)
(-0.0267055 0.0743049 3.36748e-18)
(-0.00241608 0.000779122 -3.17258e-18)
(-2.45e-05 1.56414e-05 2.52034e-20)
(-0.0185521 0.0122393 -4.46461e-19)
(-0.040749 -0.0598235 5.30643e-19)
(-0.0001577 -0.000116451 2.23711e-19)
(-0.0911399 0.113054 -1.18931e-18)
(0.0846745 -0.00883087 -1.53883e-19)
(-0.000193106 0.000180146 2.75896e-18)
(-0.0831098 0.238858 -3.16656e-19)
(0.000829403 0.000193679 -2.61716e-20)
(0.0613129 0.0461454 6.50496e-19)
(-0.000135878 0.000124091 2.93451e-19)
(-9.01882e-05 0.000287865 -1.08379e-21)
(0.0647938 0.0194831 5.82852e-19)
(-0.00188628 -0.00169562 2.59129e-19)
(0.0630111 0.043529 -9.90538e-19)
(-0.00223455 0.00075425 4.45929e-18)
(-8.60879e-05 5.07076e-05 7.13713e-19)
(-0.104447 0.252077 -5.83525e-19)
(-0.000131082 0.00011936 5.27657e-19)
(0.000599222 -0.0004108 -1.58109e-19)
(-0.000123861 3.72648e-06 -6.66284e-19)
(5.59263e-05 -0.000190158 -1.30894e-20)
(-0.00496136 -0.00685492 -4.40146e-20)
(-0.0142623 0.00943394 -1.45134e-19)
(-0.0768953 0.11472 -6.47896e-18)
(-8.51373e-05 4.38551e-05 -4.25109e-20)
(0.118654 0.0477712 -7.99261e-18)
(0.00250725 0.000161034 4.5591e-20)
(-0.0924272 0.0561574 1.1416e-18)
(0.0914931 0.0763828 9.82728e-19)
(0.000468983 -0.000850528 2.54019e-19)
(-0.000194459 0.000107109 5.30233e-19)
(-0.00436262 -0.00274114 1.28229e-20)
(0.000727022 0.000611159 5.30217e-21)
(0.0389641 0.0112465 1.06253e-17)
(-0.000140016 -0.000112275 1.58261e-18)
(0.000549225 -0.000342885 2.85206e-20)
(0.00086179 -0.000365697 9.81926e-20)
(-0.000149074 -0.000140178 6.41924e-20)
(-7.57969e-05 6.46118e-05 -1.35091e-19)
(0.0741111 0.0322652 -7.40985e-18)
(0.00508979 0.00102539 -6.21637e-19)
(0.00892635 0.0142707 3.7009e-18)
(-0.00205517 -0.000793749 -3.08024e-19)
(-0.0032829 -0.00389734 9.1709e-20)
(0.00392748 -0.00057564 -1.54989e-19)
(0.00914077 0.00790313 2.25383e-19)
(-0.0861666 0.0224417 1.47699e-21)
(-0.000604639 5.21132e-05 8.15805e-21)
(0.028714 0.00944128 -2.16827e-18)
(-0.0219644 0.0128146 -6.53181e-19)
(0.000792983 1.0186e-05 4.74674e-20)
(0.078369 0.0330704 1.56654e-18)
(0.0960593 0.0931159 -3.68908e-18)
(0.000455066 -1.65271e-05 -6.25209e-20)
(-0.0830745 -0.046979 -1.80069e-19)
(0.000211691 1.30908e-05 -5.09208e-22)
(0.00186812 -0.0149868 -5.63795e-19)
(0.00702426 0.0050495 -1.82891e-18)
(9.89901e-05 2.17359e-05 6.24858e-21)
(0.00568418 0.00827199 2.87843e-18)
(-0.00375626 -0.00518841 -2.77181e-19)
(-0.095917 0.0249582 -8.48216e-19)
(0.000433265 -2.69852e-05 6.39118e-20)
(0.00126489 0.00188085 4.79385e-19)
(-0.0319966 -0.033029 1.75188e-18)
(-0.0621706 -0.027709 -2.64514e-18)
(0.0301468 -0.00215535 6.41201e-19)
(-7.82488e-05 7.17982e-05 1.94167e-18)
(0.0111674 -0.00248194 -6.27826e-19)
(0.02412 0.000154809 9.16908e-18)
(-0.0779529 0.0659689 6.36817e-18)
(-5.8965e-05 3.32514e-05 8.47149e-19)
(-0.000744488 0.00159838 1.34013e-18)
(0.000706113 0.00306647 -1.95322e-19)
(-0.000225151 -0.000102335 2.6664e-19)
(-0.000112072 -5.83725e-05 -1.62393e-20)
(7.75915e-05 3.73383e-05 2.22515e-21)
(-0.000485568 5.95519e-05 3.85456e-20)
(-0.086081 -0.0276157 1.01023e-19)
(-0.00139224 0.00474775 -5.57665e-19)
(-2.8269e-05 5.48685e-06 1.02679e-20)
(0.000523352 -0.000193377 5.13078e-20)
(0.000387483 -1.18174e-05 -3.96273e-20)
(-0.000282169 -0.000439547 3.99258e-19)
(-0.0561719 -0.0269599 -3.11168e-18)
(0.0236236 0.00120744 -7.9871e-18)
(0.000735996 -0.000862881 -2.07513e-19)
(-0.00404018 -0.00412417 -1.62845e-19)
(5.54867e-05 -0.000214623 -3.99213e-19)
(0.000104847 -0.000190165 4.90401e-20)
(0.00221547 0.00446814 4.84675e-20)
(1.43813e-05 -0.000213345 7.46954e-21)
(0.0148557 0.00310419 1.3261e-19)
(0.000490108 -8.84157e-05 3.27346e-21)
(7.23532e-05 -0.000106408 9.00527e-20)
(-0.000322509 8.89164e-05 -1.35454e-20)
(-0.000463476 9.46204e-05 -2.90371e-18)
(-0.00236739 0.00230391 2.1398e-19)
(0.000744614 -0.000751366 -1.37292e-19)
(0.0780435 -0.00828556 -5.92623e-18)
(-0.0524254 -0.169905 2.16137e-19)
(-0.00136426 0.00310549 -1.25558e-18)
(8.40136e-05 -8.20735e-05 -1.02061e-19)
(0.0465306 -0.01037 -4.61588e-19)
(0.000531996 -0.00033198 -1.14863e-19)
(0.000489712 -0.000150981 9.46267e-21)