/*--------------------------------*- C++ -*----------------------------------*\
| =========                 |                                                 |
| \\      /  F ield         | OpenFOAM: The Open Source CFD Toolbox           |
|  \\    /   O peration     | Version:  v2012                                 |
|   \\  /    A nd           | Website:  www.openfoam.com                      |
|    \\/     M anipulation  |                                                 |
\*---------------------------------------------------------------------------*/
FoamFile
{
    version     2.0;
    format      ascii;
    class       volScalarField;
    location    "50";
    object      omega_0;
}
// * * * * * * * * * * * * * * * * * * * * * * * * * * * * * * * * * * * * * //

dimensions      [0 0 -1 0 0 0 0];


internalField   nonuniform List<scalar> 
18355
(
2.15899
0.0211025
0.191652
0.0210071
0.0299681
0.163173
0.0218555
0.0307047
0.0218672
0.383786
0.0255154
0.118206
0.125193
0.764913
0.0210432
0.0206748
0.0210035
0.0241946
0.1481
0.0223591
1.93062
0.0218786
0.0207642
0.129221
0.020751
0.0221394
0.0218427
0.0210135
0.0221069
0.0262485
0.353598
0.0392518
0.0211851
0.0208938
0.02135
0.0220937
0.0262994
0.022167
0.026666
0.0219006
0.0221781
0.0260316
0.0208025
0.0210237
0.0210934
0.252511
0.0209931
0.0209823
0.276071
0.0212369
0.0216525
1.3773
0.0212774
0.128035
0.0212853
0.0223601
0.0214331
0.258386
0.0222145
1.95639
0.0208698
0.0849223
0.123099
0.0231561
0.0488305
0.0213398
0.0233136
0.0263152
0.0209849
0.207379
0.0209559
0.0212852
0.0335451
0.0251767
0.32672
0.0209824
0.258568
0.0209637
0.0209279
0.258603
0.0232817
0.137971
0.0209752
0.0240771
0.042118
0.0225428
0.022259
0.0345789
0.0208799
0.0345502
0.259801
1.23036
0.105713
0.0212309
0.566602
0.0230839
0.0208614
0.0229118
0.0710404
0.0218219
0.0398731
0.0208909
0.0211946
0.0206591
0.0234612
0.0207161
0.0480301
0.498012
0.0299128
0.0206061
0.0212855
0.0219358
0.0296901
0.0238999
0.274949
0.0261909
0.0208679
0.313394
0.0227101
0.0231645
0.0843006
0.194716
0.362426
0.0397488
0.283317
0.269018
0.0218792
0.0210364
2.17413
0.0216518
0.020866
1.36726
0.0212743
0.0776927
0.0878927
0.020871
0.153433
0.452991
0.0211926
1.72643
0.0244265
0.033677
0.0209586
1.2873
0.0878296
0.02166
1.56116
0.0209215
0.0295706
0.0212457
0.0210064
0.0231075
0.0225168
0.0266325
0.020769
0.0208236
0.0210498
0.0225437
0.0209655
0.0209343
0.0245446
0.0212809
0.0206047
0.0288402
0.025588
0.225138
2.11579
2.13151
1.73719
0.0244044
0.0216447
0.0721738
0.0223977
0.182395
0.0213687
0.0221423
0.0218913
0.0206959
0.0225091
0.0266616
0.0224073
0.167357
0.0217739
0.0210367
0.0436229
0.0211848
0.0221012
0.033427
0.0213482
0.0219065
0.255533
0.0714178
0.021234
0.0209615
0.0214105
0.27659
0.021318
2.11485
0.0211432
0.739378
0.0211536
0.0232428
0.0269619
0.0222119
2.18412
0.0215723
1.74425
0.0210319
0.0210969
0.0222856
0.0215644
0.0489211
0.0240212
0.0236668
0.0208585
0.170905
0.02669
0.0246261
0.0215897
0.0209979
0.0290041
0.0210684
0.032981
0.023157
0.0376041
0.0256966
0.0210625
0.463995
0.576263
0.0305845
0.0220831
0.0234753
0.0533619
0.0210817
0.0291458
0.0334837
0.021936
0.259237
0.0243307
0.0235682
0.0211219
0.0224246
0.0230931
0.0295239
0.0215691
0.0212907
0.0209831
0.0477958
0.0612584
0.0210559
0.023381
0.0574379
0.149989
0.0232102
0.020668
0.0242176
0.0243039
0.0217599
0.0257012
0.0208104
0.0212159
0.537671
0.0647522
0.0286471
0.027458
0.032389
0.0303059
0.0780588
0.0208027
0.0212921
0.0220292
0.0206219
0.023236
0.0247708
0.0209746
0.0215659
0.0301189
0.0208589
0.0709255
0.686482
0.0284527
0.021592
0.0267964
0.0206226
0.0354103
0.021523
0.0273506
0.0218854
0.0268944
0.0217255
0.0211351
0.0428934
0.0225928
0.0267076
0.0306861
0.0212539
0.0209775
0.0655075
0.0215642
0.0348481
0.0264111
0.742973
0.0365479
0.0660666
0.0236522
0.0311967
0.021177
0.0236061
0.0281849
0.0427134
0.0282119
0.252136
0.0210762
0.0237433
0.107318
0.0272419
0.0210715
0.0209743
0.0209935
0.0473934
0.252274
0.35521
0.0277041
0.0297436
0.0242194
0.0414852
0.02097
0.0215512
0.0241679
0.0213662
0.0306829
0.0212262
0.0696854
0.020777
0.271986
0.021354
0.0218511
0.0239808
0.136938
1.95438
0.0296285
0.0267881
0.0219115
0.0208895
0.0213574
0.0237638
0.428149
0.0209127
0.0214812
0.0215211
0.0218419
0.0209155
0.152393
0.023395
0.0209885
0.0216157
0.0279614
0.0223036
0.0278632
0.021184
0.0214711
0.0217877
1.05412
0.0266765
0.0211462
0.0209428
0.0290036
0.0210012
0.0223311
0.0443461
0.0269479
0.0318193
0.0213415
0.0219781
0.126057
0.0249218
0.0243893
0.0236631
0.0209362
0.0278805
0.0304025
0.0217119
0.0213472
0.0242312
0.0214201
0.0232843
0.0214054
0.0523228
0.022987
0.0229429
0.021615
0.0209952
0.023069
0.0224357
0.0646212
0.746051
0.0286358
0.0242917
0.148908
0.0262955
0.021373
0.0211911
0.0401645
0.0213476
0.0327554
0.0217018
0.0269603
0.0439257
0.0476172
1.98104
0.0683332
0.0206577
1.5627
0.0218227
0.0209649
1.91584
0.0213177
0.0261174
0.0213402
0.0537548
0.0213126
0.0700612
0.52934
0.0600011
0.0212882
0.0209802
0.0626808
0.022713
0.0211883
0.338498
0.489134
0.0209589
0.0409137
0.0650243
0.0210209
0.0221491
0.0285893
0.196883
0.036263
0.0218432
0.0212143
0.0356512
0.0212502
0.0209502
0.0213933
0.042589
0.788938
0.0208716
0.0226989
0.0215019
0.144132
0.0303951
0.0210761
0.0261696
0.0335223
0.0214774
0.282374
0.084728
0.0218063
0.0214073
0.034972
0.148758
0.430045
0.0208061
2.03101
0.0212378
0.0208675
0.0386933
0.0228111
0.0544474
0.033637
0.0230495
0.0257285
0.0218876
0.14914
0.0228533
0.0275281
0.0218823
0.0207586
0.0217111
0.0207985
0.0838942
0.539937
0.052895
0.0246274
0.0216237
0.0218816
0.0227222
0.0236865
0.0231738
0.0213032
0.021387
0.0357355
0.0210791
0.0231648
1.91671
2.11514
0.111999
0.0216307
0.0226502
0.0286995
0.0218524
0.0212424
0.212987
0.023518
0.0241749
0.0256465
0.0221658
0.0232852
4.39899
0.0292599
0.0219135
0.352964
0.0215643
2.03614
2.08852
0.0247238
0.0220925
4.43037
0.0209811
0.0665349
0.0396364
0.0503793
0.022857
0.02169
0.0214635
0.583807
0.341734
0.0418575
0.535202
0.0234154
0.0214533
0.0240793
0.0212986
0.0232468
1.93701
0.166911
0.697064
0.104031
0.026522
0.0367293
0.0308234
0.0210013
0.0211531
0.0275256
0.0239179
0.021538
0.0212964
0.382835
0.0208468
0.106349
0.0244492
0.079721
0.133734
0.0211597
0.0238966
2.22384
0.0213818
0.954829
0.0212734
0.188372
0.0292614
0.0219653
0.0306505
0.0778139
0.0694934
0.0223537
0.0208843
0.033967
0.0249278
0.0798507
0.0213752
0.0853546
0.0208387
0.206005
0.0213037
0.0211747
0.185919
0.0261088
0.031951
0.021323
0.0244739
0.0278466
0.0610457
0.357016
0.0238485
0.023854
0.0215024
0.0266324
0.021746
0.0236948
4.01482
0.0209708
0.0277631
0.021563
0.0216278
0.023764
0.0212341
0.0265479
0.0720851
0.0243855
0.0347328
0.552164
0.0209172
0.0209905
2.21668
0.0335296
1.96558
0.034548
0.0217417
0.0213021
0.0210051
0.0251804
0.0220196
0.0212479
0.132646
1.37679
0.0211588
0.180085
0.189242
0.0247369
0.202192
0.0209759
1.50507
0.0434927
0.0207031
0.557487
0.0379782
0.323341
0.061563
0.021488
0.0210047
0.0224002
0.0729675
0.0465385
0.021309
0.0219226
0.133699
0.0217749
0.0394472
0.0211064
0.0360743
0.55392
0.578709
0.324283
0.58141
0.0349686
0.214031
0.0241765
0.0209216
0.0256043
0.0564012
0.0267594
0.044121
0.0212986
0.192086
0.0215195
0.0217864
0.294767
0.022414
0.0259228
0.0305962
0.063351
0.0214741
0.0212913
0.0236802
0.024812
0.0210871
0.0216834
0.031999
0.13722
0.0229079
0.0212106
0.0375337
0.545889
0.0212404
0.579845
0.279684
0.0214692
1.7785
0.0210828
0.194549
0.021349
0.0213537
0.18598
0.0230315
0.195116
0.0228059
0.0212932
1.80066
0.0213458
0.0206005
0.0215323
0.0209316
0.0263204
0.0329774
1.8998
0.0221817
1.08776
0.0228702
0.575033
0.634596
0.0221744
0.0213506
0.0244719
0.0214177
0.107999
0.0211967
0.0207358
0.0210307
0.0212975
0.0213714
0.22037
0.0250158
0.0451438
0.0223982
0.0237301
0.0241504
0.0260386
0.551582
0.0211888
0.0836028
0.0397256
0.0210616
0.228279
0.543275
0.0214287
0.559024
0.021539
0.0585829
0.0346216
0.0207187
0.0343237
0.0252099
0.572238
0.0214668
0.0239659
0.576821
0.0748928
0.0429521
0.0213675
0.0368157
0.0749818
1.57969
0.0213744
0.0226753
0.0214856
0.0214915
0.0210664
0.0212965
0.0209965
0.563148
0.0248902
0.0208596
0.0209399
0.0211821
0.021806
0.0693598
0.0739366
0.0211588
0.0248204
0.0215586
0.0215898
0.0220824
0.0209525
0.0324117
0.0209739
0.0208879
0.0220547
0.0216055
0.023023
0.0215222
0.253426
0.73524
0.0239178
0.0208699
0.143182
0.0207844
0.0209473
0.0215285
0.0413759
0.0245367
0.0215053
0.0211128
0.0211931
0.0255903
0.0209786
0.0265343
0.0211869
0.0217424
0.0210643
0.0226092
0.537713
0.0209132
0.021833
0.0211503
0.162766
0.0562829
0.0263437
0.0220189
0.0262956
0.024712
0.0311132
4.18855
0.0223539
0.0388792
0.0218493
0.0923652
0.0220462
0.0210293
0.02135
0.578836
0.0213021
0.0266123
0.0237631
0.163812
0.0357302
0.0222412
0.0209731
0.0213131
0.0212264
0.0280055
0.102115
0.074405
0.0429964
0.0215302
0.0209208
0.0225491
0.0210653
0.0208242
0.0217688
0.0450803
0.0243025
0.0453952
0.0215251
0.0214397
0.0321942
0.0213043
0.148496
0.0434292
0.036334
0.134096
1.90136
0.0286434
0.0209914
0.0209236
0.0216672
0.0212829
0.1657
0.0460955
0.104874
0.0209387
0.0215863
0.0230717
0.0208442
4.15329
0.421763
0.0209548
0.0213244
0.0218517
0.021073
0.0209229
0.0218232
0.22175
0.0212664
0.0219463
0.0209108
0.0205767
0.0210755
0.0214726
0.0261734
0.020573
0.0259126
0.0211103
0.0215797
0.202243
0.0239985
0.0538811
0.0254587
0.0218658
0.0670046
0.183491
0.0214326
0.0210345
0.0207484
0.0312718
0.0222724
0.0286378
0.0385624
0.0215125
0.0220153
0.0214856
0.0918682
0.0265242
0.0222492
0.0213927
0.0241753
0.0366038
0.0211464
0.070095
0.0208201
0.0210698
0.0240137
0.594986
0.541837
0.0427504
0.22509
0.0208754
0.0241246
0.0585019
0.024715
0.0212179
0.0595204
0.0235062
0.177052
0.792775
0.0212379
0.0208465
0.0214824
0.0219396
0.0209257
0.0540703
0.318896
0.0205661
0.0215381
0.0219395
0.0362538
0.0212593
0.0215253
0.029858
0.0220457
0.0217925
0.0296342
0.0929685
0.0842836
0.0212694
0.0208082
0.0206045
0.0217245
0.0257944
0.0269596
0.0208805
0.020885
0.024601
0.0344847
0.0211397
0.0214191
0.0673061
0.0209237
0.0207604
0.021349
1.59632
0.020736
0.0214484
0.0211999
0.0219178
0.0208019
0.0250052
0.140608
0.0214195
0.155907
0.0277263
0.200187
0.0555308
0.0209889
0.025281
0.0208509
0.0207444
0.0210001
0.148361
0.350507
0.0294832
0.0264384
0.559695
0.0703985
0.0223849
0.0983145
0.0469645
0.0232904
0.0211543
0.15378
0.0221859
0.021652
0.0211303
0.240679
1.402
1.79048
0.0207105
0.0908496
0.0475681
0.025782
0.0305502
0.0239605
0.0230606
0.0334656
0.0335771
0.0230272
0.0222245
0.0248728
2.6985
0.219595
0.0212475
0.0216331
0.021269
0.325596
0.0237627
0.0219621
0.564191
0.0250134
0.033731
0.0239493
0.0212439
0.0206743
0.0872601
0.0220245
0.021302
0.0209931
0.0214599
0.0213053
0.0209024
0.0217103
0.210343
0.0208506
0.0892456
0.0259825
0.0216677
0.0215814
0.0901255
0.0212011
0.021532
0.0243752
0.481789
0.0423422
0.0230207
0.0215301
0.31117
0.0206709
0.0387012
0.0215139
1.70856
0.0311252
0.0215866
0.0251664
0.0212035
0.0320704
0.164043
0.400735
0.020564
0.0213418
0.0364651
3.95613
0.0209858
0.0469855
0.0214657
0.0262198
0.0208701
0.0210514
0.0222978
0.0220683
0.0211644
0.0338822
0.0320138
0.0240452
0.13039
0.173096
0.0221327
0.0290684
0.0213604
0.106923
0.323007
0.158248
0.0210857
0.0243858
0.0214937
0.500744
0.0213154
0.0207855
0.0893772
0.021515
0.021519
0.0221781
0.0219836
0.0212512
1.98521
0.340166
0.0628504
0.0207547
0.0214586
0.187394
0.021386
0.409604
0.0216227
0.0214797
0.0219636
0.0234338
0.2359
0.0214642
0.0214744
2.14774
0.0215913
0.0217691
0.0364622
0.33434
0.0363664
0.0214296
0.0211058
3.60072
0.0621562
2.17413
0.0215541
0.0330869
0.185925
0.0211552
0.031268
0.0230286
0.207094
0.0234327
0.0215407
0.0220918
0.0212158
0.342378
0.0214651
0.0214244
0.0423711
0.0277592
0.0508091
0.0212633
0.0225294
0.0212471
0.0207511
0.0208459
0.022195
0.0216157
0.0218539
0.0212624
0.0217474
0.0457592
0.0269292
0.0301876
0.021488
0.0238633
0.021072
0.0215751
0.021663
0.0220295
0.0224022
0.0213531
0.0218068
0.0221801
0.0211927
0.0212426
0.0208435
0.0208491
0.433507
0.565508
0.0212669
0.338179
0.0340678
0.0224236
0.0216874
0.0221088
0.547317
0.0217708
0.0213542
0.0206477
0.0210211
2.18948
0.0212945
0.0210129
0.16815
0.0208831
0.0206962
0.022277
0.0223204
0.0665923
0.13697
1.93945
0.0209627
0.927228
0.0247184
0.0212373
0.0210063
0.0248042
0.0212838
0.0275689
0.0582977
0.0233008
0.0221628
0.325449
0.0544398
2.01755
0.0797563
0.161098
0.0686321
0.021336
0.210473
1.6696
0.0206815
0.905332
0.0207072
0.0222615
0.135008
0.0208375
0.4694
0.0246315
0.0226924
0.0219689
0.0364788
0.0213772
0.0892
0.0212413
0.0211949
0.547089
0.0207033
0.021812
0.0218298
0.0521352
0.0212057
0.0214457
0.0228109
0.130733
0.0212263
0.021286
0.0213492
0.0234292
0.0211857
0.0222583
0.0687338
0.0209793
0.025719
0.0216979
0.0232693
0.0222246
0.0209408
0.0218946
0.097749
0.0215908
0.0217046
0.0240355
0.0213548
0.0221784
0.021129
0.0214269
0.0253266
0.0661416
0.0224919
0.0210208
0.0209728
0.0205678
0.0207889
0.0212371
0.025424
0.0286438
0.0544816
0.0215403
0.736175
0.0210111
0.0214737
4.01754
0.0443658
0.0210903
0.0760886
0.0215024
0.0210187
0.0731529
0.0218542
0.0381079
0.0210283
0.145706
0.021494
0.0210955
0.0208874
0.0551213
0.0730655
0.0215609
1.12207
0.0208074
0.0215053
0.0207386
0.137797
0.0216415
0.0206514
0.0216823
0.0225825
0.0212732
0.0214542
0.0208003
0.0217898
0.0215357
0.0208494
0.0237728
0.0212953
0.880404
0.0656569
0.0212578
0.0750181
0.0254375
0.02094
0.0210841
0.0221084
0.020897
0.0283669
0.0245356
0.0452737
0.0450341
0.021702
0.0732561
0.147092
0.021229
0.0219102
0.0858822
0.0232081
0.0213209
0.0207473
0.0216626
0.0262127
0.0215775
0.0221437
0.0254758
0.0209494
0.0215462
0.0212547
0.0231153
0.0213909
0.116731
0.021328
0.0239214
0.0279685
0.0210643
0.296942
0.593391
0.0229247
0.0260014
0.0267206
0.021092
0.0436797
0.0214377
0.0321518
0.551264
1.35418
0.0335411
0.0215439
0.0259106
0.0210254
0.028074
0.0213542
0.310026
0.0279924
0.0219263
0.0208108
0.0576192
0.0328441
0.021229
0.0212303
0.314083
0.0215695
0.0206425
0.880858
0.0531651
0.0207424
0.674883
0.0211069
0.0378669
0.056085
0.0212675
0.0214359
0.0256327
1.3724
0.0207963
0.0251435
0.0214409
0.0212754
0.0208288
0.533403
0.0218318
0.0217522
0.0211233
0.18377
0.0253663
0.0208106
0.0210305
0.105745
0.0211559
0.0207164
0.259458
1.95902
0.0218936
0.249558
0.0255824
0.0468836
0.024543
0.0582559
0.354196
0.0216875
0.0215697
0.0210142
0.0237604
0.0212104
0.526335
0.0766343
0.0205601
0.0221611
0.0210608
0.021325
1.27273
0.021218
0.0225735
0.0225841
0.0485516
0.0214554
0.0216791
0.0245451
0.414983
0.0214212
0.0217016
0.0209217
0.0208277
0.0235766
0.0444293
0.021586
0.021128
0.0213055
0.0213208
0.0209821
1.84355
0.0217455
0.0210796
0.0210988
0.059776
0.0207899
0.0206873
0.0334677
0.0219518
0.0341033
0.021258
0.0214346
0.0300715
4.52234
1.81075
0.0215677
0.0241155
0.021822
0.40832
0.0211443
0.0246084
0.021284
0.852389
0.0206283
0.0236801
0.0214642
0.587637
0.0345559
0.0305137
0.356042
0.0223432
0.0455737
0.0217067
0.0219886
1.83693
0.0336373
0.0211786
0.0211326
0.0232825
0.0261772
0.0214269
0.0213077
0.021152
0.0212324
0.16679
0.394998
0.0217047
0.0220305
0.366571
0.883209
0.0230256
0.0237646
0.0228699
0.0241146
0.021217
0.0252207
0.0220977
0.0209112
0.0210875
0.021509
0.0221999
0.201
0.0247322
0.0215459
0.0216182
0.025348
0.0213447
0.024992
0.0373149
0.0295567
0.0229108
0.563237
0.0205716
0.0212324
0.0218242
0.0213699
0.0215162
0.0208575
0.0243137
0.0210076
0.179627
0.0224728
0.0207142
0.0207115
0.0221579
0.0223799
0.0436803
0.0529154
0.0210877
0.339085
0.0221887
0.0210802
0.021012
0.0466447
0.198727
0.0210204
0.0208165
0.0217583
0.0251496
0.164531
0.034386
0.0217379
0.0219502
0.138408
0.373378
0.0219404
0.0212162
0.232142
0.0234981
0.026752
0.0234074
0.0211545
0.0615485
0.0228461
4.58888
0.0230548
0.540578
0.0209098
0.0212898
0.0225196
0.0215905
0.0233875
0.0216744
0.021549
0.0207925
0.0217921
0.0215975
0.0221918
0.0231218
0.0226883
0.0219075
0.0213404
0.021749
0.0330998
0.0223682
0.0209202
0.021515
0.16077
0.0215192
0.0216933
0.021958
0.651032
0.0206833
0.0378248
0.02257
0.0209541
0.021081
0.313154
0.0888699
0.0249706
0.0218056
0.0233142
0.035558
0.0208712
0.0260153
0.0358665
0.0210557
0.102333
0.0208291
0.021333
0.0221466
0.0217557
0.0283148
0.0554017
3.58031
0.0290672
0.0211216
0.0215024
0.0211313
0.0441707
0.0219122
0.0810271
0.0208208
0.0213729
0.0213574
0.0743033
0.0212811
0.0215694
0.0212645
0.13564
0.0206734
1.8959
0.0206929
0.0309488
0.02231
0.0290031
0.0209914
0.0233254
0.555698
0.0331927
0.0210908
0.0334539
0.0215118
0.0218607
2.41234
0.559018
0.0210941
0.0212486
0.0233021
0.020902
0.0211233
0.0218491
0.0216891
0.0278903
0.0517427
0.0220956
0.0257462
0.032207
0.0217009
0.0209972
0.021179
0.0219326
0.0275676
0.0214306
4.06835
0.0215681
0.403313
0.0368476
0.0214219
0.0207537
0.0207255
0.0674491
0.0229257
0.0236284
0.0215051
0.0220784
0.568506
0.0227027
0.0249698
0.0216493
0.0214649
0.0226299
0.0212401
0.0227071
0.0213683
0.0218263
0.021938
0.021872
0.434422
0.0260941
0.579485
0.0209976
0.022249
0.0223718
0.0225999
0.0623118
0.932874
0.0225677
0.0212638
0.0408045
0.021835
0.560742
0.0221036
0.041715
0.0223784
0.324336
1.92204
0.0231943
0.0249214
0.0207478
0.020559
0.0218741
0.021161
0.0217152
0.0227923
0.0207849
0.0246113
0.0405993
0.0224121
0.020899
0.025095
0.0206944
0.021193
0.0211591
0.0939463
0.0216507
0.0517749
0.0216473
0.0230395
0.306719
0.0208797
0.0234396
0.021061
0.0232946
0.943392
0.0253431
2.71442
0.0217162
0.0608027
0.022789
0.0211214
0.0232277
0.027921
0.0240677
0.0212763
0.0226419
0.0213262
0.461204
0.0207274
0.745787
0.203789
0.0683029
0.0246328
0.109681
0.0223391
0.0211591
0.174377
0.0211911
0.0860223
0.0218295
0.0225205
0.0216742
0.0214451
0.025587
0.116495
0.0213854
0.0223163
0.020717
1.83479
0.0206177
0.0219168
0.0406348
0.0225968
0.0207173
0.0219421
0.0212696
0.032891
0.022585
0.0311013
0.123534
0.0212788
0.333732
0.0214436
0.0216664
0.0217071
0.0214909
0.573207
0.0216233
0.0206365
0.036297
0.0217952
0.102417
0.0664334
0.0212681
0.0408332
0.0331339
0.0208607
0.0214365
0.0236956
0.0209081
0.0555327
0.027012
0.0226879
0.0228369
0.0210933
0.0214165
0.0583905
0.0219881
0.0214469
0.0222178
0.0209059
0.0210208
1.96396
0.0261141
0.538313
0.0262632
0.0524619
0.0264592
0.0211177
0.0253109
0.0218388
0.0209811
0.0258431
0.0240518
0.0223212
0.0459594
0.0218026
0.264562
1.73118
0.0230026
0.0258965
0.0231117
0.633409
0.0209653
0.0217328
0.0217059
0.0300912
0.0298072
0.0251181
0.0234813
0.021829
0.0211721
0.0210512
0.0215026
0.0237077
0.0219274
0.530644
0.0216289
0.0228736
0.0241532
0.0214971
0.0212389
0.0227615
0.0534811
0.103719
0.0218712
0.023065
0.293078
0.0221211
0.0219586
0.0232168
0.0215856
0.345622
0.504504
0.0407534
0.0759859
0.432057
0.022607
0.0208437
0.0247952
0.0220342
0.0259523
0.0210495
0.0206506
0.110737
0.0806306
0.0210793
0.0207512
0.0262639
0.409952
0.0228439
0.0209467
0.627716
0.02275
0.0358374
0.0205882
0.0266089
0.020981
0.0227002
0.025255
0.0211721
4.99399
0.0219416
0.034579
0.09668
0.0223324
0.0839839
0.0211963
0.0616279
0.0241367
0.024963
0.0257986
0.0218617
0.0214459
0.0225797
0.11603
0.0227373
0.108613
0.020785
0.199113
0.0211404
0.0218744
0.226886
0.0242322
0.196038
0.0222326
0.0220714
3.92243
0.66026
0.0208657
0.293651
0.03193
0.0207203
0.0210193
1.74492
0.28084
0.0213264
0.0209846
0.0216688
0.0213126
0.397783
0.29941
0.0206269
0.0210319
0.020862
0.222174
0.0468689
0.0215689
0.0207551
0.292739
0.0215983
0.0567277
2.66858
0.0240803
0.0214568
0.02147
0.0216409
0.0209016
0.0210572
0.021294
0.0239206
0.0228443
4.15702
0.0246304
0.0217891
0.0211966
0.0260689
0.186116
0.0383039
0.0211206
0.0216886
0.150072
0.0492949
0.0219846
0.462467
0.0275931
0.0228609
0.287583
0.0226403
0.0251967
0.0218051
0.0303035
0.0214219
0.0217964
2.21455
0.0270434
0.0210482
0.0213518
0.0209799
0.0353019
0.108776
0.0209784
0.0210169
0.0221267
0.0665372
0.0221411
0.0207675
0.0212442
0.0207207
0.0221127
0.0414663
0.0214234
0.0224123
2.44975
0.0211093
0.171866
0.0288796
0.0296926
0.0234221
0.0259869
0.0214798
0.255334
0.0819295
0.0691791
4.45556
0.0282658
0.0208749
0.287754
0.0209574
0.0744147
0.350271
0.0221234
0.0211297
0.0233902
0.074054
0.0212029
0.0226554
0.290314
0.0212646
0.0219348
0.0220811
0.0216713
0.0210633
0.0599225
0.124024
0.0210583
0.0210221
0.459986
0.0211944
0.0216319
0.0209965
0.0208323
1.7969
0.0223919
0.0229341
0.0221802
0.0219409
0.0216906
0.0342393
0.102075
0.0258046
0.241673
0.0220326
0.0233868
4.31286
0.0208866
0.0206518
0.0210819
0.020834
0.0218008
0.0210193
0.0221246
0.34015
0.0213807
0.0210943
0.0228047
0.0208164
0.104452
0.0216614
2.38782
0.174823
0.0228359
0.0288966
0.18675
0.0244961
0.0211778
0.0234165
0.0209492
0.0225019
0.0218282
0.0217919
0.281232
0.0211174
0.0213251
0.0404906
0.190763
0.0216856
0.0208419
0.183231
0.0223392
0.0230572
0.0213115
0.0208531
0.0213525
1.82704
0.0214661
0.192056
0.0512574
0.0213441
0.0208329
0.0229621
0.0235616
0.0227206
0.0210918
0.0360011
0.0210993
2.39939
0.217836
0.022106
0.168672
0.0215447
0.0229492
0.0234788
0.268489
0.0223789
0.0257285
0.026257
0.45241
0.021697
0.0348909
0.0214526
0.0403978
0.143086
0.159944
0.0223192
0.0275393
0.0224037
0.554089
0.0229461
0.0234515
0.0574392
0.0624982
0.0208195
0.0547383
0.0211936
0.0239017
0.0214806
0.0223976
0.0223023
0.268227
0.0216591
0.0217961
0.0569431
0.473064
0.0873947
0.124233
0.0727809
0.0207844
0.0475239
0.0620629
0.0210533
0.0211222
0.422983
0.0242326
0.0214893
0.0212459
0.0362617
0.0206939
0.0212568
1.49791
0.0214605
0.0217293
0.021039
0.0214038
0.0224611
0.0213986
1.24116
0.0226961
0.0230937
0.0214182
0.0279947
0.115925
0.0220915
0.0216952
0.0227291
0.170572
0.021354
0.0238937
0.0207064
0.0209335
0.0413577
0.160664
0.0209348
0.0228732
0.022739
0.468301
0.337558
0.0236394
0.0237724
0.423641
0.0211623
0.0244594
0.023667
0.0214829
2.34932
0.19033
0.0372173
0.023656
1.57545
0.0210387
0.0210095
0.0227873
0.031646
0.367636
0.0210364
0.0320883
0.933056
0.384019
0.0216307
0.0224083
0.260942
0.0225896
0.0235312
0.333856
0.020964
0.0211969
0.021336
0.268358
0.0218389
0.0240572
0.0219064
0.0319547
0.0269436
0.387887
0.0211882
0.0211362
0.0282948
0.0217365
0.0222973
0.0221008
0.103233
0.12072
0.0209904
0.0213473
3.44001
0.323654
0.499784
0.020755
0.0213586
0.0226075
0.0215362
0.0212725
0.0214353
0.0215324
0.0218799
0.0206798
0.0207632
0.0550305
0.0233206
0.0262933
0.566033
0.0650338
0.0487638
0.024378
0.042021
0.135044
0.0291629
0.0267903
0.0254546
0.0210684
0.286052
0.0211534
0.0211127
0.0216378
0.494901
0.0220282
0.448477
0.021777
0.0206526
0.0392224
0.0211741
0.0211498
0.0211663
0.0224043
0.232126
0.0216288
0.0214387
0.0225531
1.05101
0.0483893
0.0931077
0.0210543
0.0319992
0.0214941
0.0215396
0.021184
0.0207213
0.0213579
0.0221279
0.0318033
0.0268238
0.0264909
0.120491
0.697461
0.128493
0.0218296
0.0975801
0.0321806
0.585981
0.0207972
0.0219124
0.021315
0.363357
0.0207373
0.0213617
0.0207126
0.0209665
0.126482
0.0220309
0.058175
0.0222441
0.0207003
0.0227059
0.0214351
0.590368
0.02207
0.0213079
0.0217718
0.02593
0.0220238
0.0608271
0.0945035
0.0212325
0.0384018
3.44564
0.0211203
0.0215368
0.0410811
0.0207329
0.396362
0.0273381
0.0210125
0.0581791
0.0209476
0.0217677
0.0216442
0.02122
0.0212184
0.0221008
0.021614
0.0207112
0.0215309
0.0218807
0.0478786
0.0215813
0.133111
0.0209659
0.020898
0.0270555
0.0449842
0.0220075
0.0209394
0.0211988
0.0222226
0.0429647
1.58816
0.0325324
0.0218927
0.0219319
0.0207533
0.0286702
0.0209342
0.0223044
0.611276
0.243929
0.0461785
0.0210759
0.0218098
0.022098
0.0209815
0.0398243
0.0206872
0.117669
0.0219367
0.163797
0.0256101
0.669166
0.0215806
0.0639696
2.10294
0.349393
0.0528125
0.0243835
0.394999
0.313819
0.0218433
0.0338319
0.395128
0.0216002
0.0207462
0.0213352
0.0236674
0.0736395
0.0214687
0.0237735
0.376244
0.0206188
0.0214674
0.292796
0.239309
0.100057
0.0649597
0.58565
0.0220852
0.0552541
0.0233092
0.0236155
0.0530177
0.0222866
3.8102
0.0350718
0.0235157
0.0214282
0.0226879
0.0223971
0.0215124
1.91328
0.0207265
0.0212462
0.0213118
0.567811
4.25708
0.0245561
0.0213045
0.0224183
0.0212219
0.411891
0.0217938
0.0220046
0.0231807
0.0663604
0.0206921
0.0756721
2.66688
0.0231027
0.0217772
0.0259986
0.0214145
0.276678
0.0207994
0.0249637
0.0221269
0.0651472
0.0258528
0.59012
0.123076
0.0227164
0.0225608
0.0231239
0.0236101
0.0211029
0.0207014
0.0247782
0.021882
0.030867
0.0207327
0.0210878
0.0214326
0.0214037
0.0275477
0.0207363
0.0205292
0.0215354
0.0270634
0.0257698
0.0551213
0.0226335
0.0224406
0.0830337
0.02142
0.0213104
0.0687671
0.0433026
0.0205436
0.032171
0.0227545
0.0359586
0.0212478
0.341467
0.0221639
0.021222
0.0208834
0.0206369
0.0211644
0.0210716
1.26288
0.0623638
0.0215624
0.0213188
0.021131
0.0220502
0.0262018
0.319796
0.0227111
0.0289432
0.0240184
0.0232579
0.021656
0.0423005
0.0212943
0.0212551
0.0272594
0.0212205
0.0214508
0.0212496
0.0211583
0.417016
0.0213845
0.0207278
0.0215554
0.588107
0.038605
0.0221179
0.02094
0.0235102
2.55554
0.0229929
0.0216837
0.0215384
1.04078
0.0218483
0.0211528
0.280783
0.021631
0.0244751
0.0226698
0.0215349
0.0211156
0.0538584
0.0252518
0.020895
0.0212817
0.0225683
0.0208959
0.0484114
0.0225944
0.021397
0.0207229
0.0219659
0.0206714
0.0212485
0.0777824
0.020889
0.0240696
0.0233527
0.310942
0.0210456
0.0223976
0.0545774
0.025944
0.166969
0.0217355
0.0214928
0.0222197
0.021404
0.0212874
0.181831
0.021412
2.16052
0.204748
0.0661267
0.40551
0.0214171
0.0258689
1.87281
0.02125
0.021284
0.601977
0.101124
0.0208935
0.0206658
0.0226274
0.0216403
0.194778
0.0455836
0.751459
0.0214818
0.0216382
0.0212255
0.02138
0.94412
0.365089
3.90231
0.0242314
0.0224285
2.35723
0.0213363
0.0208923
0.0223624
0.0209267
0.0218306
0.0215872
0.021058
0.459335
0.0218377
0.0219539
0.0213952
0.0260326
0.0215914
0.442433
0.0206952
0.0212041
0.0225646
0.0205814
3.47437
0.0239048
0.0256927
1.80066
0.0215868
0.0294638
0.350653
0.0215834
1.71988
0.026325
0.020757
0.0222846
0.022172
0.505465
0.342186
0.0214554
0.0233955
0.0586379
0.0210661
0.0206601
0.0238236
2.24096
0.599628
0.021534
0.022022
0.0939153
0.0227766
0.0683616
0.0677229
0.0664415
0.0205474
0.774128
0.0215342
0.127888
0.0567028
0.0337462
4.37129
0.285225
4.07003
0.0205838
0.839472
0.0210293
0.0207536
0.249338
0.0210308
0.0221246
0.0211473
0.0616952
0.0208546
0.136304
0.0206022
0.0222552
0.50441
0.0257485
0.0244737
0.484144
0.0217993
0.0208909
0.021837
0.0940136
0.0239729
0.132112
0.0214195
0.0253583
0.0217522
2.0718
0.0214192
0.0215776
0.0213692
0.578444
0.0312069
0.021529
3.90402
0.0211044
0.0225135
0.0246034
1.55943
0.0213957
4.19293
0.0214288
0.932708
0.0214265
0.042413
0.0209864
0.0518571
0.0214282
0.0600132
0.0243435
0.0221381
0.0208926
0.021738
0.28454
0.0205755
0.0237859
0.0262984
0.0213257
0.0607174
0.299206
0.133792
0.0220213
0.0210491
0.0211882
0.128045
0.0235342
4.89644
0.0237891
0.022587
0.0219417
0.195359
0.0208859
0.0291011
0.116941
0.0228306
2.06254
0.0233922
3.67452
0.159226
0.0207723
1.74206
0.0222065
0.0211423
0.022681
0.0836253
0.0232509
0.158538
0.024604
0.114578
0.0429265
0.0643919
0.0478023
0.30044
0.0214554
0.0215282
4.01152
3.75777
0.0322039
0.0233419
2.34266
0.248835
0.0219293
0.0214327
0.0212149
0.111107
0.0207051
0.0224856
0.032449
0.105097
0.0208414
0.0206026
0.0221321
3.93116
0.0210228
0.0240905
0.0209313
0.122194
0.0222365
0.961934
0.0218104
0.0206396
0.0213349
0.0212996
0.383954
0.0330543
1.01894
0.0213252
0.0281842
0.0208117
0.203123
0.174025
0.0502477
0.0207942
0.0688147
0.0208849
0.0215782
0.293068
0.0210731
0.0236758
0.0545202
0.0205571
0.113148
0.0208181
0.0210017
0.0215512
2.04243
0.0217607
4.47555
0.125754
0.0307134
0.0253375
0.0207065
0.50462
0.0650479
5.0875
0.0310155
3.63453
0.172365
0.021561
0.0312631
0.0217205
0.027304
0.021801
0.0228162
0.0212057
0.0252388
0.042703
4.28515
0.0240411
0.0228574
0.894542
0.423712
0.0212122
0.0214311
0.0831293
0.0351549
0.0213821
0.244003
0.0364279
0.0221719
0.0213845
0.0223257
0.355345
0.0216169
0.0594616
0.0209458
0.873043
4.67286
0.0748446
0.02233
0.022711
0.0211869
0.0212767
0.0214748
0.0243165
0.0224464
0.0216117
4.15672
0.0208347
0.0228632
0.0210582
0.0253178
0.359413
0.0212513
0.0215279
1.15246
0.0206777
4.36351
0.0215241
0.0213787
0.0210233
0.0216281
0.0209397
0.022809
0.0216515
0.20165
0.0217917
0.0656801
0.0213535
1.89449
0.0214692
0.0242581
1.67005
0.177531
0.0217389
0.0214481
0.030086
0.0208343
0.600134
0.329242
0.0225156
0.0207559
0.0212362
0.0210998
0.0458744
0.0284061
0.0365261
0.468879
0.0342445
0.0213741
0.0211864
0.0205553
0.670863
0.251121
0.022223
0.0211333
0.0208152
0.0269068
0.0213799
0.404134
2.94714
0.0286803
0.0210901
3.58219
0.127288
0.0214459
0.0384898
0.0221101
0.0821473
0.0333207
0.0335403
0.0259607
1.42163
0.0320542
3.97221
0.0217962
0.0205584
0.0206936
0.0212975
0.0214991
0.0279464
0.0214705
0.0250405
0.0209897
0.235608
0.0215344
0.0274814
2.63355
0.0220362
0.0207611
0.0273594
4.58106
0.0212633
0.0205909
0.172257
3.33698
0.263535
0.0220841
0.0210377
0.395298
0.126076
0.0235295
0.054017
0.0214009
0.0314835
0.0215254
0.125118
0.0208261
0.0217705
0.439632
0.0207493
0.0226858
0.289005
0.055912
0.0206265
0.0215137
0.0207444
2.77201
0.0237045
0.025825
0.0214288
0.0207867
0.122326
0.0300992
0.0211524
0.0212936
0.0208886
0.0228654
0.0209181
0.0227435
0.181371
0.47335
0.0232585
0.0383354
0.0216245
0.0386845
0.0212199
0.0215573
0.0207692
0.235292
0.0367132
0.0213215
0.0226289
0.889254
0.0358053
3.91772
0.0513764
0.0212949
0.0207722
0.0269839
0.0222335
4.28411
0.0214245
3.99043
4.38567
0.0209
0.0373201
0.274804
0.0249344
1.48373
0.108281
0.0220792
4.09338
0.0253687
0.0216666
4.1023
0.415369
0.100704
0.021714
0.317386
0.25963
0.0213397
0.169219
0.307585
0.021381
0.0207056
0.0218045
0.0210947
0.0215575
0.457594
3.12864
0.0214254
0.0223668
1.4867
3.84571
0.0324282
0.0644862
0.0210698
0.0223869
3.22402
0.0459298
3.71874
4.00313
0.0212555
0.0214561
0.0210484
0.022168
3.85047
0.255147
0.0220187
0.034649
0.338665
0.0270498
0.0457943
0.021137
0.0214909
0.0219216
0.238003
0.0223241
0.0350696
0.0279945
0.0219933
0.443316
0.0231041
0.0763652
0.138714
0.346108
0.021219
0.0212102
0.0225701
0.0303814
0.199618
0.249878
0.0218567
2.66565
3.77303
0.0300815
0.0316682
0.463568
0.0784146
0.0281068
0.460409