/*--------------------------------*- C++ -*----------------------------------*\
| =========                 |                                                 |
| \\      /  F ield         | OpenFOAM: The Open Source CFD Toolbox           |
|  \\    /   O peration     | Version:  v2012                                 |
|   \\  /    A nd           | Website:  www.openfoam.com                      |
|    \\/     M anipulation  |                                                 |
\*---------------------------------------------------------------------------*/
FoamFile
{
    version     2.0;
    format      ascii;
    class       volScalarField;
    location    "450";
    object      ddt0(k);
}
// * * * * * * * * * * * * * * * * * * * * * * * * * * * * * * * * * * * * * //

dimensions      [0 2 -3 0 0 0 0];


internalField   nonuniform List<scalar> 
18355
(
-8.38011e-08
-0.00324994
5.65046e-08
-1.23502e-08
9.43647e-08
-1.95337e-06
-2.00665e-08
-1.24271e-09
-1.84429e-08
-0.0022592
-3.222e-08
0.00135523
5.30202e-07
-2.75914e-08
-5.43155e-08
-2.92122e-09
-5.77298e-05
6.43705e-09
1.13213e-07
0.000588118
-6.87863e-09
8.47094e-08
-0.000327126
9.58264e-08
2.27639e-07
1.11397e-08
-5.24386e-09
-3.69681e-09
0.0015541
5.92945e-08
5.09304e-08
1.45882e-07
6.18887e-09
-2.35135e-08
8.09809e-08
-1.0248e-07
-1.37949e-08
-8.01473e-08
1.51841e-09
-3.72956e-08
-2.71036e-08
-4.52043e-07
7.05727e-08
-0.000842423
-2.22176e-08
2.52022e-07
-2.2674e-08
9.12648e-09
-2.17529e-07
1.4256e-08
-4.31522e-08
4.11823e-08
-2.18459e-09
-0.0049078
8.02583e-09
-1.04751e-08
-5.43685e-06
-5.52078e-08
6.52127e-07
5.79776e-07
1.55863e-08
-6.88264e-07
2.84252e-09
-1.41792e-07
0.00149204
-6.60451e-08
-0.000245962
2.59826e-08
-5.21813e-09
8.51537e-08
2.25946e-07
-3.15627e-09
5.85867e-07
1.3944e-08
4.18032e-08
-2.21059e-08
-0.00706201
1.34533e-07
1.91292e-07
4.47776e-08
-1.82918e-08
6.48135e-06
-8.94767e-09
-1.85694e-07
1.1131e-08
4.76725e-07
-0.00367669
0.00172412
0.00157371
-0.00421605
-7.29216e-07
-2.43304e-08
1.27072e-08
-2.27947e-08
-0.000158973
-6.20352e-05
-4.55706e-08
9.63951e-08
-0.00472392
-4.58715e-05
0.00127824
-5.82393e-05
7.1735e-08
0.00775682
1.16437e-07
-4.82314e-07
0.000660341
-1.1381e-11
-5.12348e-08
-1.65639e-05
4.46866e-08
3.33083e-08
1.1066e-08
2.48574e-08
-0.00456177
-1.14761e-08
3.9369e-06
-0.00674852
4.72134e-07
-1.48097e-07
-0.00247041
0.014572
1.34896e-07
4.37856e-08
-4.40275e-08
2.08885e-07
3.75712e-08
-1.72637e-09
-0.00969275
-2.42971e-08
-4.33424e-08
-0.0086781
-3.85287e-07
9.91774e-08
-1.15818e-07
-4.57923e-09
-2.07059e-08
-3.13238e-08
-5.43598e-08
6.67277e-08
0.00139507
0.00260209
7.12188e-08
3.46043e-08
-2.41368e-06
8.91228e-08
-3.04035e-08
-0.000898664
5.8393e-08
-0.000165563
6.98621e-08
8.96083e-08
-5.60798e-08
-1.65766e-06
-2.80567e-06
-2.42347e-09
-0.0117814
1.72565e-06
-2.09908e-09
-6.93558e-07
-1.26114e-07
-1.45669e-07
-9.08664e-08
1.06071e-07
-2.42093e-06
-4.85214e-05
-0.00144619
1.01095e-07
1.76795e-05
1.45324e-08
0.00574382
0.00019139
-3.75446e-08
-3.53861e-08
-6.37754e-09
-0.00299988
-1.5391e-06
1.11164e-08
-0.008258
-0.00113094
-1.00341e-06
2.00556e-06
2.14012e-08
-2.34848e-08
-1.66582e-06
-0.00311562
-0.00274887
1.14723e-05
-7.85616e-10
-9.88577e-05
-5.18818e-06
8.06581e-08
1.104e-07
-0.0140049
-1.38283e-07
9.4945e-08
-0.00937688
2.953e-08
-2.27109e-07
-3.83152e-08
-1.6237e-08
2.20817e-08
-0.00128761
-0.00251568
0.00072436
-1.00774e-07
3.73701e-06
0.0013077
0.00253578
-2.21369e-07
-5.74917e-09
5.9815e-08
-0.000808255
8.46002e-08
1.31863e-08
3.74844e-06
0.0167333
-0.000751416
1.07022e-08
5.74243e-08
-2.82306e-05
-5.53264e-08
-4.87023e-08
-1.32181e-08
-0.00110354
1.04455e-07
0.000728904
-0.00314524
3.55498e-06
-4.30109e-10
-3.30934e-09
2.07824e-07
-1.25504e-07
0.000666719
-4.24984e-08
1.03098e-08
1.08797e-08
2.8046e-07
-4.93155e-05
0.000940656
-4.78074e-08
-1.89289e-05
5.53334e-08
1.655e-08
9.70399e-08
-0.00278462
0.0105752
3.98022e-06
-2.8572e-06
-1.50941e-07
-1.50993e-08
-1.71708e-06
2.5348e-08
0.00268933
1.13705e-07
0.000401112
0.0165368
-6.02122e-07
9.96279e-08
-1.93034e-09
-5.41887e-08
1.18632e-07
-0.00131855
-4.20503e-07
-1.51496e-08
9.81964e-09
-4.17689e-09
2.86898e-05
-5.20616e-07
-7.39966e-06
6.69122e-08
8.32901e-05
1.1389e-05
-3.44013e-07
-1.18512e-07
-0.00424271
3.48217e-08
-4.25408e-08
0.000302731
-2.5141e-08
-2.25979e-08
-4.0203e-07
-3.3475e-08
0.00243509
3.06258e-08
8.60295e-09
-2.24238e-08
6.45931e-08
0.00122781
1.4417e-07
-1.27047e-08
2.92924e-09
-1.70283e-06
-0.0039948
-3.18539e-09
-1.36147e-09
0.0167331
-6.05609e-08
-2.92661e-06
-5.23507e-06
-3.80331e-08
9.62244e-08
6.45386e-08
-2.38163e-09
-8.35964e-06
-7.0552e-06
-0.000507784
-1.82267e-06
-2.89286e-08
4.39382e-06
1.02251e-07
1.05248e-07
-0.0186176
1.99665e-08
1.23968e-05
7.62487e-07
1.25023e-08
-3.81424e-08
-2.98359e-06
0.00146914
0.00129386
-4.96088e-09
-9.70009e-08
-0.000442127
-3.41688e-08
0.00449875
2.46967e-07
-1.8227e-07
-0.000344407
-2.83219e-08
-2.28812e-06
1.21399e-07
-8.2605e-08
-1.07073e-08
-2.94857e-06
0.000885034
-2.05073e-10
-0.00104302
-6.3096e-08
-4.05446e-09
-1.87506e-07
-8.38018e-07
-0.0142797
-0.0050109
-0.00747664
1.12978e-07
1.86601e-09
0.00137748
2.78255e-06
1.35925e-08
3.85966e-10
0.00285958
8.14355e-06
-2.77374e-06
0.00132034
1.03425e-08
-1.3089e-08
1.8966e-06
5.52605e-08
-2.85635e-08
-1.11457e-05
-2.5294e-07
1.23543e-07
0.0015539
-2.36335e-09
3.79736e-07
-0.000271066
0.000638336
-1.55505e-08
5.11173e-08
-6.61135e-08
-3.0491e-08
3.00982e-07
-3.25542e-08
-2.45191e-07
-6.59775e-08
-1.28917e-07
9.64535e-09
-1.80479e-08
-5.16374e-08
8.05907e-08
-5.99517e-08
-5.40857e-08
-1.01212e-08
-9.7617e-07
-0.000170865
-2.3165e-08
-0.0163273
2.04812e-07
9.11949e-05
-6.6968e-08
1.41015e-07
9.48951e-08
-0.0160197
-9.90993e-09
-1.11968e-08
1.26722e-08
-2.72627e-08
-0.00485182
-1.2991e-07
-1.77889e-08
-8.53085e-08
-1.34624e-07
6.78189e-08
-3.77594e-08
0.000334874
9.7259e-08
4.06376e-08
1.96419e-06
-3.69601e-08
1.08591e-06
-8.14354e-05
-3.68395e-07
4.42334e-09
1.1494e-07
0.00145924
-3.22301e-09
-6.19961e-08
-2.80786e-06
-3.62722e-09
-3.54042e-08
-6.89756e-05
1.44554e-08
0.000928644
-5.87229e-07
-1.81848e-06
-5.61608e-05
5.90849e-08
-6.25523e-08
-0.00644779
-2.00252e-06
0.00633551
-0.01987
-6.16325e-08
-2.28897e-08
8.40332e-08
0.00573321
2.0432e-07
9.78567e-08
-3.0318e-09
8.53538e-08
5.22465e-08
2.15546e-06
-2.87658e-08
7.97303e-08
-2.24514e-09
-5.50973e-08
6.31992e-05
-0.00417612
0.000422958
-0.0155858
1.02129e-07
-1.32926e-07
-0.00136581
4.53326e-08
-1.02228e-08
5.99601e-09
-2.53057e-08
1.02009e-07
-1.9578e-08
-1.65505e-08
-5.62949e-05
-1.96972e-07
-1.91463e-07
-0.00450507
2.61872e-08
-0.00283329
7.93352e-08
-5.36273e-08
1.97728e-08
-1.52706e-08
-1.93829e-09
-3.6488e-10
-3.34813e-08
0.00257773
-1.03115e-08
-4.08081e-08
0.00128362
2.73525e-08
-9.91506e-09
1.16008e-07
-2.3906e-07
0.000825476
5.46765e-09
-5.72737e-08
-0.0255915
2.79564e-08
7.59153e-05
2.69036e-07
-2.65762e-08
-6.72729e-06
-1.09958e-07
3.37708e-09
0.00264051
0.00229127
-0.000279762
-2.36725e-08
-5.20994e-08
-1.08428e-07
-2.48782e-06
4.56907e-08
0.000291455
0.00544389
-0.0163559
0.00037812
-2.88677e-08
-5.56974e-07
-0.003544
-5.28163e-06
-0.00316091
7.90057e-08
-5.55958e-08
-9.45285e-08
-0.00121289
-6.9669e-05
1.29891e-05
1.05507e-07
-6.18364e-08
8.75508e-09
-1.19045e-07
-2.8878e-08
-0.00717529
-1.02138e-07
-0.0045884
-8.86019e-09
9.92118e-08
-5.72226e-09
4.43748e-09
-7.23997e-08
3.55343e-05
-5.31306e-08
-1.39616e-06
0.00150122
7.31524e-08
1.04322e-07
1.82154e-08
1.13462e-07
-3.1618e-09
-5.20034e-08
-2.54964e-07
6.27081e-08
6.48896e-07
-2.0804e-08
3.038e-09
9.47187e-09
7.40912e-11
-7.73839e-08
1.30342e-07
-6.82942e-07
8.7511e-08
9.66597e-08
-0.00477529
-3.41535e-08
3.96533e-07
3.8427e-08
8.01861e-07
1.54355e-08
-0.00476996
-8.93201e-08
-0.000353302
5.99209e-09
9.90715e-09
0.0155036
-0.00376801
0.0088294
8.86061e-08
-1.27042e-07
-1.55428e-08
-7.09353e-08
-4.47547e-06
-1.11913e-07
5.41401e-08
1.00442e-06
0.00255851
-1.65634e-05
-1.6093e-08
0.00136635
0.0109615
1.23804e-07
-6.55793e-08
2.76938e-07
-0.00397623
-7.09637e-08
-5.78036e-09
2.03284e-06
6.43495e-07
1.35259e-08
-1.24373e-08
-0.000122838
8.92012e-08
-4.20943e-07
-0.00211889
-0.000498887
0.00989753
2.80132e-07
-1.0522e-08
1.89054e-08
-1.12271e-08
1.2627e-07
4.3327e-08
5.23274e-06
1.85452e-05
-0.00325036
-3.82519e-06
0.00172634
0.00209672
-2.49278e-06
-1.29323e-08
-0.00304848
0.00390075
-3.52623e-08
6.06942e-06
0.000520467
0.0082721
-7.55584e-08
-3.26257e-08
8.87488e-08
1.20361e-07
1.11523e-07
7.44534e-08
3.33887e-08
-0.000457405
-6.82689e-09
-1.58281e-08
-0.00141767
8.85381e-08
-3.20509e-07
-0.00259732
-7.03943e-08
-1.33136e-07
0.00262129
-1.40997e-08
-1.66234e-06
-3.12415e-08
0.00212271
7.54896e-08
-5.00517e-07
4.23624e-07
-1.58501e-07
-2.24445e-06
-2.72217e-08
0.000141232
-2.57147e-06
4.41579e-08
0.00132924
-5.31184e-07
5.25973e-05
-3.74537e-05
0.000153184
-1.06117e-05
2.90085e-08
-2.74032e-08
0.00233171
1.72448e-08
-4.85819e-08
-7.76746e-09
2.05241e-08
-0.0145035
-0.00808904
-1.8638e-07
0.00170047
-1.29291e-07
-6.76316e-08
-3.21261e-08
-7.86164e-09
-1.47295e-07
-2.03948e-07
-4.74207e-08
0.00574005
-8.1577e-08
4.10014e-09
-2.64803e-08
0.00252845
0.000465798
6.10273e-08
-3.79769e-08
-2.30629e-06
-5.51971e-09
4.17688e-09
0.00116565
9.80764e-06
6.81501e-08
-7.24091e-08
-7.17059e-06
-2.1093e-07
2.14169e-07
2.27577e-06
7.31371e-08
-0.00367708
-5.48422e-07
1.00001e-07
1.36818e-05
0.000345702
-2.39965e-08
-0.00993897
-1.35825e-08
-6.59987e-08
4.58252e-08
3.58855e-07
0.00026647
-5.87801e-08
-0.00241577
-1.57526e-07
-0.00329106
0.00218196
1.38492e-08
0.0016616
5.71874e-08
0.00274058
1.18065e-07
-0.00263103
-0.00320082
1.06097e-07
-1.4787e-06
-1.09409e-07
-2.79997e-09
0.00606457
-4.26507e-07
0.00157137
1.13032e-09
-0.00486521
-3.88514e-08
-0.0014896
5.56551e-08
-1.04335e-07
8.59561e-08
2.47187e-08
-3.96528e-08
-9.68415e-07
-0.0132997
-0.0125486
-2.15207e-08
-7.90729e-07
1.48183e-08
2.14475e-08
8.60881e-09
-3.44366e-08
-9.60211e-07
0.00501067
-5.64612e-08
-1.53584e-08
-2.36347e-07
-0.00438363
-9.38112e-08
2.21126e-08
2.6771e-08
-9.89485e-08
-3.98342e-08
0.00187194
8.99447e-08
-9.75596e-05
3.66251e-07
0.00993498
-0.000230287
-6.14562e-05
-3.82902e-08
-1.518e-06
7.63529e-08
-3.07159e-08
3.45658e-08
0.000243884
-1.86144e-08
-1.58506e-08
-5.16257e-08
0.00412492
4.51553e-08
5.07835e-08
-1.08732e-07
-1.47637e-07
-0.00341225
0.00083248
-4.07989e-08
-3.97596e-08
-0.00314245
1.06811e-07
0.00297218
-0.00344223
0.000740857
9.40855e-07
-5.15602e-07
-0.00408886
9.6045e-08
9.79848e-09
1.66831e-08
1.16917e-07
6.92285e-08
1.36883e-08
6.66999e-08
0.00448941
0.00258168
-1.12591e-07
-1.94018e-07
-1.39913e-08
-7.34835e-08
-3.87434e-08
9.9872e-09
-3.26434e-08
-1.38257e-07
-6.6418e-06
4.48507e-07
8.48349e-08
0.00175673
-2.2872e-07
-7.42201e-05
3.90275e-07
-0.00248948
0.00353731
-5.13814e-07
-0.000172261
-2.34088e-05
-5.3084e-05
7.67388e-09
-6.3536e-08
-1.37917e-08
1.14162e-07
0.00465384
1.07e-08
-5.23369e-10
2.60715e-07
-2.42174e-08
-5.5094e-08
-3.02068e-07
-4.51912e-09
-0.0018046
4.17758e-08
-2.98539e-08
-7.09506e-06
-6.54872e-09
5.18626e-07
-1.95537e-05
1.06472e-07
1.29239e-07
2.08569e-08
1.15868e-07
-1.629e-08
-1.46e-07
-0.000956397
-4.43945e-09
0.00160274
-1.05782e-07
0.00121025
1.80359e-07
-4.98653e-06
-6.28791e-08
-2.65944e-06
2.81356e-08
6.24091e-09
1.03613e-07
0.0017128
-5.47808e-08
-1.09123e-05
9.87982e-05
6.76317e-08
-1.0266e-08
7.8203e-09
-4.3792e-08
0.000739388
-7.43133e-08
0.00105926
0.00196729
-1.32759e-07
-0.000402442
-2.07554e-08
3.41661e-08
0.00140518
0.00327663
-2.38658e-08
-2.26136e-08
3.4101e-08
1.42468e-08
1.49638e-07
1.1247e-07
-6.74115e-06
-1.57062e-07
-5.79123e-05
-1.73463e-08
0.0152188
-5.35092e-08
-7.10958e-08
0.00174933
0.00525966
-1.40393e-07
-5.84863e-08
6.74308e-08
0.00375247
-2.39245e-08
0.00233229
2.87453e-07
-3.04512e-09
-9.46317e-09
-2.31335e-08
-5.51813e-08
-1.35796e-07
-2.42265e-08
-3.60236e-08
1.42241e-07
-0.000194036
-4.17314e-09
-1.46563e-06
-0.00185239
6.41837e-08
-3.74362e-08
-7.68555e-08
0.000459267
-4.35386e-08
0.00232635
-4.6216e-09
-4.33567e-08
-7.73485e-09
-0.00285811
9.75783e-06
-3.54739e-06
-1.8991e-08
-1.39946e-08
1.10852e-07
0.00217221
-4.23584e-08
-0.00270109
-1.34931e-07
-0.000624172
-5.61428e-09
-1.8303e-08
-1.6601e-06
1.35566e-08
0.0001861
4.0687e-08
-3.89088e-06
-2.65337e-09
9.58276e-09
2.59246e-09
2.01022e-05
0.000119268
-7.24758e-08
-4.72805e-08
5.52972e-08
4.43517e-08
-4.85969e-08
-6.05098e-11
4.31034e-07
5.12095e-08
-0.00287536
-6.23743e-08
0.0027173
1.85043e-08
-4.28538e-08
-0.000434079
0.0032108
-0.0123371
-2.36756e-08
-0.0039642
2.65225e-08
0.000360785
5.82661e-08
1.60605e-06
3.60386e-08
-0.000584481
3.74475e-08
-1.36775e-07
-3.28451e-09
6.68018e-08
-3.45873e-09
-0.00466702
-0.0267325
-0.00367125
-5.57255e-08
1.32132e-07
-1.50717e-07
-1.13703e-08
-1.1699e-08
-1.32561e-08
-4.36736e-09
7.95121e-07
4.81132e-08
0.000706739
6.68998e-07
-2.41601e-08
3.84649e-08
0.000212322
-4.40442e-06
4.15196e-08
-1.51597e-07
-2.09245e-07
0.000127628
-9.8521e-07
0.00291025
-1.53512e-06
-2.42838e-06
2.6969e-07
3.92735e-09
8.09373e-08
4.39336e-08
-5.12906e-08
1.48527e-08
-0.0191456
4.98341e-08
-2.98551e-05
4.34948e-08
7.02831e-06
-1.01407e-07
-6.07717e-09
-1.18238e-07
-1.17686e-09
8.21437e-05
-4.15134e-08
0.00120793
3.61464e-10
-6.3683e-09
0.00259709
-5.47483e-08
1.86123e-07
0.00695483
8.00697e-08
2.09131e-06
-0.00111233
-6.5462e-08
9.33951e-08
-0.00169464
2.29586e-08
8.68232e-08
-4.68086e-08
9.5426e-08
-4.63538e-08
-2.79673e-06
0.015005
1.49495e-07
-4.89669e-08
-0.00316006
-4.03065e-08
-6.84415e-05
1.83733e-07
-1.43903e-07
-6.42048e-05
8.08245e-06
-1.32636e-08
-3.48534e-08
-6.58075e-08
-1.70893e-08
-8.18001e-09
-0.00911241
-2.80732e-09
2.0128e-07
-3.76596e-08
-3.55489e-06
2.50787e-09
-1.14476e-05
-6.25229e-08
1.27754e-07
-0.00312564
-2.06277e-08
-1.16248e-07
1.01829e-07
-0.00212007
-1.12789e-07
-2.52586e-08
-2.86194e-08
-7.7916e-08
6.67866e-08
-3.9125e-07
6.09834e-05
0.000702917
-0.000719067
-3.72018e-09
5.1097e-08
-2.88032e-06
8.20424e-08
-4.02449e-08
-2.178e-05
-0.000212319
-7.00474e-08
-5.22828e-08
0.00182313
-4.35409e-09
-2.25047e-09
-0.0036525
-2.26396e-06
0.0156635
-6.78259e-09
-7.69509e-08
0.00107091
3.61283e-08
2.56261e-08
-4.78953e-09
5.41199e-08
-3.3361e-09
1.25481e-07
1.75896e-06
-5.34073e-07
7.90808e-09
-0.00096283
3.01478e-08
-2.35191e-08
7.05028e-10
8.66673e-10
5.58886e-09
-1.03956e-07
-0.00672123
-1.08738e-08
-0.0149323
-1.20345e-07
2.88709e-08
0.00344189
-2.07271e-08
-1.20143e-07
6.35687e-08
-1.93178e-08
2.23589e-08
-2.32238e-06
-5.55494e-09
-1.00813e-08
3.8695e-09
-1.67512e-08
-1.21215e-06
-5.95117e-09
8.75447e-08
-7.65262e-08
8.69531e-09
-1.33514e-09
-0.00011892
-0.00337139
-0.00342008
-0.0108351
-3.7019e-07
7.47021e-09
0.00342992
-0.000649218
-2.13235e-08
7.62754e-08
-2.23129e-08
-2.01781e-06
0.00664767
-4.26836e-08
-1.19616e-07
-4.14736e-08
1.01619e-07
-5.45783e-09
-8.12871e-09
-0.00124734
-0.000538656
-6.76233e-05
-3.75546e-07
1.01341e-08
-4.51813e-09
1.19158e-09
0.00110652
-0.000426399
-2.76187e-08
-2.14274e-06
-1.01842e-08
-5.68125e-08
1.40665e-07
-1.79842e-08
-6.20549e-08
-4.60283e-05
5.38102e-08
-6.2901e-06
-3.78429e-08
-2.15482e-08
-1.19398e-07
-5.09137e-08
-1.06992e-08
-1.18759e-06
-5.0424e-06
4.09846e-09
5.39443e-07
-4.90397e-08
-2.489e-08
5.77957e-09
-5.28438e-08
-0.014341
-1.2831e-07
-4.9781e-09
3.7131e-08
-0.00287729
1.55238e-05
1.39063e-09
6.91028e-08
-3.93073e-08
-5.6571e-05
-5.73012e-06
0.000773062
6.646e-06
-1.73059e-06
-2.31571e-06
-9.86863e-07
-4.03779e-07
0.000700521
-3.9307e-08
-4.4514e-08
1.49306e-08
1.63707e-05
9.4774e-08
0.0012778
-6.21745e-08
1.00161e-07
0.00273068
-7.58981e-08
6.51188e-08
2.32418e-07
-2.64971e-08
1.47437e-08
-3.79791e-05
4.8409e-07
-6.71527e-08
1.58058e-05
-1.84412e-08
0.00106699
-0.00455293
-1.81553e-08
0.00141384
-4.03449e-08
-1.57719e-07
-2.21648e-08
-1.84948e-08
-0.00316759
-4.1377e-07
-1.17045e-07
1.02511e-07
0.00107854
-1.08701e-07
-0.0160346
-0.0156724
-3.35663e-09
-4.1161e-08
-9.0973e-08
-0.00718153
-6.04046e-08
-4.12987e-07
-5.10983e-08
-7.1901e-06
-1.87853e-09
-9.06488e-08
3.91337e-09
-5.40446e-08
1.72969e-08
1.52229e-07
0.00457192
-1.86777e-07
-2.04455e-06
0.000386245
-9.98103e-09
-7.0162e-06
-1.43182e-07
-3.62189e-08
-4.83087e-09
-4.47121e-08
-4.64527e-08
-1.99622e-08
-1.6112e-08
0.000499334
8.36758e-07
-0.00467622
-1.88887e-07
-4.5584e-07
9.70608e-08
-5.55111e-07
-0.000247469
-5.49735e-08
7.31672e-08
-2.87866e-08
-0.00151365
-0.00375198
-1.64313e-07
-3.02863e-06
-9.66038e-10
0.000860762
-1.31021e-07
1.53535e-08
-3.6761e-07
2.65962e-07
-4.53238e-08
-2.17989e-06
0.000795235
-3.04809e-09
0.00129006
-0.000123243
0.00343439
0.000454622
-7.20792e-08
-0.00143433
7.78948e-07
-2.99224e-06
-0.00184927
-9.52951e-09
6.91079e-08
-3.08871e-08
-3.42247e-09
-0.000427949
1.41601e-07
0.00183583
-3.62675e-09
-2.2672e-08
0.00444331
9.13992e-08
0.000113051
-1.345e-07
-3.12446e-05
-2.08644e-08
1.35727e-09
-0.000422901
1.91775e-07
-1.83327e-06
-2.24846e-08
-6.31626e-08
-1.35851e-05
-2.63268e-06
2.35959e-09
-7.79663e-08
0.000223972
-1.80306e-06
-1.13722e-07
-4.03135e-09
-6.58041e-08
-3.89762e-08
-2.77098e-08
1.23596e-07
-3.15489e-07
-2.61846e-08
0.000244883
3.89467e-08
-2.5204e-09
-2.09023e-07
1.03414e-05
1.64013e-06
4.05404e-08
-1.45047e-08
1.10693e-07
2.58979e-07
-2.67021e-06
4.88823e-05
0.0217603
1.57718e-07
-1.4485e-07
1.99e-06
3.69128e-08
-2.12806e-08
-0.00319177
-1.65694e-08
2.47932e-06
0.000509867
-3.41101e-05
-0.000144512
0.003103
-1.80738e-06
7.40274e-08
-0.00793636
-8.78194e-08
-5.54601e-07
1.99465e-07
5.69236e-08
5.01675e-07
-1.59631e-08
-5.96384e-09
-4.61345e-07
-7.47623e-05
1.22075e-08
-1.88516e-08
-9.61059e-08
0.00130051
-3.80598e-08
0.00250711
-1.66098e-08
-0.00389399
-4.52812e-08
7.9829e-08
9.28943e-07
1.00368e-07
0.000283519
-3.36443e-08
-1.98137e-08
5.22903e-08
2.88322e-08
0.00274019
-2.52229e-06
-5.73686e-09
0.00238747
1.5816e-09
-2.12306e-05
-3.95873e-08
0.000470929
-1.64695e-07
-4.02647e-08
-2.6711e-08
1.02482e-07
-8.55839e-09
-9.40732e-09
-2.26908e-07
1.14375e-11
-9.92319e-09
-4.1165e-07
0.00160038
0.00375214
-5.29801e-07
-0.00299554
-0.0148684
1.07158e-07
0.00143923
-9.03852e-09
5.70468e-06
-8.77749e-09
2.54743e-08
5.06429e-08
1.64722e-07
0.0172011
-1.15607e-05
6.07669e-07
0.000434772
3.22759e-06
-7.28115e-07
-0.00291009
-1.78762e-08
2.43565e-08
-7.84609e-05
-3.91309e-08
-4.60392e-07
-0.0156544
3.49496e-06
4.79276e-08
-0.00318916
1.51892e-07
0.000753022
0.0146684
-9.11606e-08
-5.16029e-08
6.11681e-08
5.55328e-08
-3.64873e-08
0.000189355
-7.65731e-08
-6.20087e-06
6.72837e-07
-2.40958e-08
0.0142428
3.07011e-07
-3.44474e-08
6.44606e-08
-4.0459e-07
-4.74908e-08
-3.92848e-09
-1.97817e-09
-0.000296639
-2.6229e-08
-4.35819e-09
0.00110009
-7.88507e-09
-2.50656e-08
-0.00331866
-2.83733e-08
5.38203e-08
1.89264e-07
-4.18687e-07
1.35815e-06
8.19877e-08
-1.87039e-06
3.89488e-08
-1.81563e-07
-9.68608e-08
-1.53859e-07
4.64578e-06
3.11913e-06
3.66562e-08
0.00194704
8.15937e-06
-7.59753e-08
-9.38303e-06
0.00334251
-2.1053e-06
-1.71149e-08
2.37009e-10
4.22242e-06
1.49768e-07
-0.0103308
7.81767e-06
-3.75201e-08
0.00317761
-1.16445e-07
2.58313e-06
0.0144613
1.1629e-07
-5.54978e-09
7.02736e-09
-1.20593e-08
-0.0105825
4.94005e-05
6.9771e-08
2.49531e-06
-9.36503e-05
-1.9441e-07
-9.81991e-08
9.70007e-08
-1.53466e-07
-1.15146e-08
-1.60716e-08
-0.0126089
1.04633e-07
3.83687e-06
-3.61798e-10
-1.07392e-08
-3.73628e-09
-9.26173e-08
-5.17934e-09
-8.42452e-09
-5.69058e-08
-8.68948e-09
0.00272607
0.00138644
1.16116e-06
0.00324206
2.55695e-09
-3.40584e-08
0.00191942
5.51583e-07
0.00242462
-1.49277e-06
4.77374e-08
-9.34207e-08
-6.96343e-08
-3.11875e-08
-1.7869e-08
8.78288e-08
-2.5812e-06
0.000981088
3.56479e-07
-4.54183e-06
-3.76265e-08
-5.67824e-08
3.62041e-08
-4.39351e-06
0.000513274
-1.04724e-05
-7.08656e-07
7.83439e-08
0.00185517
1.08021e-07
-1.63545e-08
-1.33855e-07
9.92353e-08
0.000455661
-4.75247e-08
-2.68488e-06
-1.03036e-08
3.41989e-07
-1.09945e-08
0.000308508
-2.30462e-08
3.51798e-09
1.97295e-07
9.49005e-10
-3.18671e-07
-3.15434e-06
0.000616799
-4.18591e-08
-2.87972e-08
0.000396937
1.25525e-07
1.46815e-08
-2.58484e-08
-4.89879e-08
-2.97765e-08
-3.78518e-08
0.00037489
-1.40339e-07
1.36461e-07
-1.52422e-09
1.3005e-08
-0.000667668
-2.67056e-08
8.3289e-08
-5.46816e-09
-1.10135e-07
-1.27334e-08
1.57132e-08
-3.63866e-08
2.26125e-10
-1.52151e-07
-5.29678e-09
-1.47306e-07
-1.85041e-06
0.0189736
4.15735e-08
-5.68879e-07
0.00246783
-2.10739e-08
3.66587e-10
-1.68679e-08
-4.35795e-06
1.88754e-08
-2.0256e-07
0.000151145
1.25129e-08
-0.00500352
0.000293141
-6.39092e-09
-8.56888e-08
3.70898e-07
-1.84068e-08
-0.0125623
0.00357103
-0.00163811
-1.56476e-08
3.22392e-08
-1.39564e-08
-1.64609e-06
-3.03034e-09
-9.11393e-06
-2.62419e-09
1.10229e-06
-9.27453e-05
-2.96427e-06
7.2493e-08
0.00367663
-7.31744e-05
0.000928847
3.84929e-08
9.40282e-09
-0.000617981
1.38197e-06
4.42124e-09
-2.43581e-09
-1.30405e-05
-9.4218e-08
-4.15644e-06
-2.05486e-06
2.66042e-09
-8.61413e-08
0.00506681
-1.81861e-06
9.08093e-08
-3.25564e-08
-9.52917e-08
2.29426e-09
-8.61203e-06
2.71139e-08
-8.87591e-08
1.16226e-07
1.51717e-07
6.41317e-09
7.13793e-07
-5.4323e-08
-6.65051e-08
-0.00248951
0.000218227
0.000285299
5.46408e-08
1.6002e-07
-3.15377e-06
5.63633e-08
-2.00169e-08
-3.84675e-07
-2.0613e-08
-3.72266e-08
-0.0173199
-2.35e-07
2.16142e-08
3.97404e-08
-1.56954e-09
-5.38335e-05
-0.00485197
-4.47595e-08
-2.99389e-08
-1.22985e-08
-1.51728e-06
0.00100373
2.3905e-08
-1.69305e-07
1.07745e-08
3.03531e-08
1.56379e-07
2.29198e-06
-9.53943e-05
-3.17882e-08
2.88365e-05
0.00262707
-1.40275e-07
-5.12915e-08
-1.7217e-07
-4.5362e-08
8.67964e-08
-1.31628e-07
-7.32901e-09
-4.92702e-06
-5.22941e-08
1.30148e-06
2.11945e-07
1.03655e-07
-9.06238e-08
-0.00111892
1.13201e-07
-4.79498e-08
-4.66271e-06
-1.78923e-07
0.00175711
0.000750864
-3.92362e-08
2.52308e-06
0.000317814
-9.99681e-07
-2.33569e-08
-4.04037e-08
2.74286e-09
0.0274221
-2.03631e-08
-3.64845e-09
-1.17505e-07
-7.8928e-07
3.21847e-06
8.91216e-06
5.51645e-09
5.05864e-08
7.58436e-08
-3.88401e-06
-0.000259589
-8.24336e-09
-8.92721e-09
-2.55869e-08
3.86582e-08
-7.02825e-09
-1.91359e-05
2.0293e-07
7.89239e-09
-6.68322e-08
-0.0158986
-2.53104e-09
-8.80223e-09
4.2187e-09
-1.25272e-06
4.86613e-08
-5.47145e-09
-8.15715e-08
-0.0263491
-6.59555e-08
-7.3249e-08
1.84304e-08
4.09307e-08
4.26483e-06
-2.61898e-08
-5.14534e-08
0.00181999
0.00209065
8.25246e-08
-5.11862e-09
-1.37196e-06
5.63559e-08
-1.48131e-06
-8.63392e-08
0.00255773
-2.23371e-08
1.1248e-08
-4.04819e-08
0.00388874
0.00133583
-4.43603e-07
-4.27116e-07
0.000569316
0.00256768
0.0356655
-0.0138692
-1.37135e-07
2.60292e-08
-1.76747e-08
-1.82497e-07
3.83006e-08
-2.08215e-08
-2.5914e-08
1.61604e-07
9.49847e-08
-0.000726575
-5.54404e-08
-0.00458063
2.78966e-08
-0.0020424
5.60244e-08
-1.14337e-07
-4.65597e-09
-6.17269e-08
-1.05144e-07
-7.57509e-05
-3.27235e-08
-1.76078e-09
-1.45158e-07
-0.00391317
-2.78671e-08
-3.56824e-07
8.29417e-10
-6.66383e-08
0.00227091
-5.26872e-06
-3.16181e-06
-1.90842e-07
5.92398e-06
-1.08361e-07
-0.001911
-0.000142395
-2.38328e-08
-0.000526416
0.00313921
7.97449e-08
-3.62736e-08
4.52763e-08
-6.75752e-08
5.82315e-08
-6.20862e-09
0.00120821
-1.46569e-07
6.1614e-08
-3.0885e-08
-1.53505e-08
1.41481e-07
-8.92535e-05
-0.00574818
-6.02569e-05
-7.84972e-08
7.86509e-05
5.29143e-08
-6.60165e-05
-2.75135e-08
8.95422e-07
-1.35149e-08
-1.36524e-07
-0.000581764
4.4366e-08
3.21713e-06
9.13329e-08
-1.00462e-07
-0.000279844
0.0100107
-1.39613e-08
0.000192818
-1.00525e-08
-0.000790238
1.0851e-08
-0.00367048
0.000133871
-1.70358e-08
-0.00291578
-1.3328e-07
0.000157709
-4.08494e-08
-1.20364e-07
5.52546e-08
1.16949e-07
-6.58933e-09
1.35273e-05
-1.14273e-08
0.000630623
-4.98428e-07
-0.00490292
-1.4417e-08
-6.21525e-09
-0.00482857
9.63498e-08
1.03993e-07
6.94604e-08
6.06488e-06
-1.36907e-07
5.19922e-08
0.00235803
1.14904e-07
-5.05553e-08
-8.71142e-08
1.09654e-07
-0.00365799
-5.92196e-09
-1.51387e-08
-0.000157326
9.43218e-05
-3.20395e-06
-1.06637e-09
4.08504e-07
1.01104e-06
-7.61209e-08
-6.40372e-09
-7.94466e-08
-1.07793e-09
-1.75681e-08
9.4013e-09
-1.40427e-07
4.35626e-08
0.00106543
-4.78427e-08
-2.86449e-08
-2.12603e-09
-4.96028e-08
0.00144694
-1.44186e-07
-4.85352e-08
-4.28369e-08
0.000511002
0.00308719
5.18782e-08
-0.00519202
-3.00945e-07
-2.21795e-06
-1.36404e-09
0.000515576
-1.12425e-08
1.35047e-07
1.33831e-09
-2.36947e-08
3.25749e-08
0.000210721
3.62792e-09
0.000184755
1.39433e-06
0.000322279
0.00213642
3.35029e-09
1.31027e-08
0.00548353
-5.47537e-08
6.49917e-06
-5.01417e-08
-5.27463e-06
-1.53111e-08
0.00342052
-8.99728e-05
-0.00405183
-4.3918e-09
0.00250536
-0.00119532
-0.00496314
-5.5912e-06
-3.23139e-07
1.23975e-07
8.58641e-08
7.74827e-05
-0.00235223
5.00737e-08
-0.00381035
-2.32095e-08
-2.06154e-09
-1.63564e-07
-0.00996925
-2.00313e-07
0.00729659
-1.11251e-08
0.00623091
-3.97769e-07
-2.52098e-07
-2.93919e-08
-2.6991e-07
3.40661e-06
-2.45792e-09
-3.08371e-07
-1.00664e-07
-4.76813e-06
-3.22189e-08
-2.65582e-08
-0.00204212
0.00210214
-4.90337e-08
0.000160527
-7.59861e-08
-2.72969e-08
-0.00098442
-0.00137808
1.03516e-08
5.39577e-05
-1.81224e-09
5.58509e-09
-6.077e-07
-0.00044149
1.72249e-08
0.0029544
-1.14786e-07
1.84867e-08
-6.13311e-05
-2.2015e-08
-2.01896e-06
-2.212e-08
-2.16681e-06
-1.19187e-08
-6.56951e-05
7.28836e-09
2.61152e-08
2.80466e-08
-9.16529e-09
-7.3932e-06
0.00324427
-9.11193e-08
0.00395127
4.68702e-08
-0.00496997
0.0036911
-0.00361886
-1.53873e-08
-0.00273964
0.00511682
0.00250049
-3.46232e-05
8.49171e-08
-2.5438e-09
-2.77828e-08
-0.000425065
1.07083e-08
-2.43356e-09
0.000979908
-3.764e-09
0.000396215
-9.98021e-08
-0.00817417
1.11265e-07
-3.56128e-09
-2.72076e-06
-2.50709e-08
-1.31554e-06
7.50858e-08
-1.87686e-07
4.10938e-07
0.00248912
-1.23153e-08
6.09786e-08
0.00329457
-0.00146585
-5.81084e-09
-1.00513e-07
-7.00273e-08
-8.6829e-08
-4.81741e-05
0.00203796
0.00362112
1.39333e-06
0.00020858
0.00788419
-1.1339e-05
-2.37988e-08
-7.98752e-09
2.37498e-08
-2.38889e-08
-2.36916e-07
0.00058833
-0.000564074
2.50818e-09
-1.46363e-07
9.49483e-08
-0.000121695
-0.00636129
-0.0660168
0.00196014
1.05474e-07
0.000695944
0.000967698
-2.02559e-10
-0.00308684
-6.26751e-07
-9.49135e-08
-0.00201067
-0.00478062
0.000109595
-2.89364e-09
-1.01318e-07
-5.53957e-08
3.47942e-05
5.41785e-08
1.16883e-07
-3.57604e-09
-2.86202e-08
-5.29273e-10
1.96901e-05
-3.76077e-08
-6.69656e-09
0.000576928
4.35856e-09
0.0019793
-1.13566e-07
0.00202161
-7.16359e-05
-1.15968e-08
0.00393494
9.26461e-06
1.21593e-05
5.4772e-08
3.28813e-08
-1.08034e-08
1.43805e-08
-1.61582e-05
-4.90548e-06
-1.56793e-07
9.07484e-09
-2.73312e-08
1.56834e-06
-1.11253e-07
-3.47682e-09
1.16536e-08
-4.93324e-08
-0.000798615
-8.31923e-09
0.00215938
0.00157958
3.06296e-08
-1.22694e-08
0.0016531
-1.49165e-08
-3.22432e-08
4.89967e-06
-9.93162e-08
-1.45973e-07
3.51273e-07
1.05268e-06
0.00330824
-7.6254e-08
2.29217e-08
2.55331e-09
0.00212736
0.00252863
-5.82675e-08
-1.90197e-07
5.75047e-08
-1.99025e-09
-1.47387e-07
-4.30932e-08
2.6356e-06
4.54992e-08
1.05768e-07
-1.1541e-07
8.82951e-09
8.80806e-08
-8.47009e-09
-3.32144e-08
3.08403e-06
-0.00385972
0.0014804
-4.70238e-06
0.00357451
8.87029e-06
-1.39685e-07
0.000193854
0.000746186
0.00447684
-3.35287e-09
-9.30175e-09
1.73238e-06
0.0173807
-1.27128e-07
3.46604e-06
-0.00657707
2.16257e-09
-3.30987e-08
-0.0039248
-2.05793e-08
-6.01239e-06
1.05384e-06
7.39141e-08
-9.51279e-05
0.00116801
-2.34488e-09
-8.75207e-05
-0.00157936
1.50456e-06
1.98921e-06
1.00449e-07
0.0186352
1.40063e-05
-0.00405905
-2.21394e-08
-2.20173e-07
0.00127649
-2.05127e-08
-4.35429e-07
1.18148e-08
3.75881e-08
1.1238e-07
0.000645179
-0.000222978
4.99017e-08
8.77489e-08
6.13299e-08
0.000730798
8.74157e-09
1.14186e-07
7.63757e-08
0.0090258
2.28683e-09
8.32369e-08
-3.09643e-07
-7.47823e-06
-9.28373e-09
6.71001e-07
1.89556e-06
-5.19075e-08
-7.15992e-06
8.20125e-09
-6.60528e-08
1.48004e-07
-5.47323e-08
1.92722e-07
7.62389e-05
-8.08548e-06
-1.47146e-08
-0.00124614
0.00205249
-1.94384e-06
-9.17301e-05
-4.72058e-07
1.15022e-07
0.00196294
1.56115e-07
-6.75503e-09
-1.5147e-07
6.84862e-07
3.57799e-08
-4.17039e-08
1.21013e-09
3.45885e-06
-0.00297768
0.0027996
-0.00490045
-2.22714e-08
1.21115e-08
4.49946e-07
-2.15027e-07
0.00205207
-8.78347e-09
0.00209548
-9.45253e-09
7.95486e-05
-3.06217e-08
-0.000876227
1.27562e-08
-0.000618127
-0.00212672
-6.46262e-08
0.00164333
-6.06665e-08
-1.58803e-08
5.06274e-07
-5.93711e-05
0.0021977
-6.63175e-09
1.55688e-09
-1.41547e-08
9.74666e-08
-5.09983e-08
8.53414e-10
-1.97338e-08
1.57443e-08
-4.65858e-07
-1.21335e-08
-0.00186688
-4.57429e-09
-0.00205488
-2.36268e-08
-5.1869e-06
-0.00135732
4.93285e-08
-0.0107528
-9.28813e-09
-1.27101e-07
-1.02291e-07
-9.27495e-10
7.34206e-08
1.7385e-05
1.59564e-06
4.18851e-08
-2.07985e-10
-4.01532e-08
-0.00195177
-4.63292e-08
1.68129e-05
4.17985e-06
-1.5981e-09
-4.1486e-07
1.17641e-07
4.37099e-08
1.47793e-07
4.24594e-09
8.23288e-08
-0.000946646
-5.25684e-09
-0.00207849
-6.0482e-08
5.76512e-08
2.83956e-09
0.00157866
-1.66189e-08
0.00336013
4.41221e-07
-1.24906e-09
0.00194223
6.30429e-07
-0.0158666
1.4425e-07
-4.7131e-08
1.13101e-08
4.7293e-08
0.0115876
1.30134e-08
-2.82085e-07
1.96463e-08
-4.48867e-06
1.87856e-07
0.00264467
0.000385419
0.00151761
-1.45115e-07
0.0023839
-9.98174e-08
-0.0018168
0.000194904
4.96021e-09
6.25188e-06
-1.64046e-06
-4.35845e-08
3.24787e-07
-1.5977e-08
5.7293e-09
-1.33372e-08
-9.31428e-09
0.000767552
1.96178e-05
-7.51017e-06
-0.00606332
-2.14526e-09
-0.0108725
4.69414e-09
-4.84e-08
1.77558e-08
0.00209024
-5.03724e-08
0.00114701
8.9566e-07
-5.02006e-06
-0.000160361
-1.09488e-08
-2.92228e-08
-0.00171022
-2.07633e-08
-5.19922e-08
-6.53852e-06
-4.02559e-08
-5.29667e-09
-3.26315e-09
2.39362e-06
-0.00152671
-1.41154e-07
4.54609e-09
-0.00336261
-0.00125837
2.24747e-10
-6.58104e-09
0.00779679
0.000250727
3.60155e-08
1.07856e-06
3.16355e-07
1.59251e-08
1.4481e-07
-1.64967e-09
0.00693022
-1.44631e-08
0.00360868
0.000838023
0.0018257
-1.51551e-07
6.36256e-08
-4.42359e-08
3.35365e-10
0.00252269
1.29241e-08
-9.0574e-05
-0.00444847
-6.63865e-08
-2.07521e-08
-2.56834e-08
1.03641e-05
3.72715e-06
-7.27845e-07
0.0025549
4.45336e-07
-0.0256209
8.2966e-08
0.00184689
1.50766e-07
1.20683e-07
5.16774e-07
0.00363327
0.00112495
1.012e-07