/*--------------------------------*- C++ -*----------------------------------*\
| =========                 |                                                 |
| \\      /  F ield         | OpenFOAM: The Open Source CFD Toolbox           |
|  \\    /   O peration     | Version:  v2012                                 |
|   \\  /    A nd           | Website:  www.openfoam.com                      |
|    \\/     M anipulation  |                                                 |
\*---------------------------------------------------------------------------*/
FoamFile
{
    version     2.0;
    format      ascii;
    class       volScalarField;
    location    "300";
    object      omega;
}
// * * * * * * * * * * * * * * * * * * * * * * * * * * * * * * * * * * * * * //

dimensions      [0 0 -1 0 0 0 0];


internalField   nonuniform List<scalar> 
18355
(
1.21017
0.0204275
0.220624
0.0210109
0.0349075
0.244787
0.0215805
0.0364544
0.0219288
0.414648
0.0257043
0.114283
0.122227
1.05047
0.0210672
0.0201949
0.0210073
0.0238819
0.163871
0.0224924
0.139577
0.02194
0.0204562
0.309554
0.0204668
0.0221152
0.0216285
0.021017
0.0221161
0.0264394
0.826072
0.0446093
0.020342
0.0200688
0.0211092
0.0222492
0.0262743
0.0223263
0.0269274
0.0218738
0.0221709
0.0263112
0.0200873
0.0204142
0.0204241
0.257167
0.0209962
0.020985
0.824564
0.0212578
0.0208518
0.527179
0.0213057
0.111053
0.0212895
0.0225293
0.021177
1.39426
0.0222175
0.519803
0.0200791
0.0760911
0.110099
0.0213975
0.0538589
0.0206445
0.0237192
0.0263399
0.020023
0.554499
0.0209425
0.0212895
0.0376826
0.0247021
0.0544981
0.0200431
1.32324
0.0200533
0.0209131
0.0543686
0.0236796
0.0707073
0.0200339
0.024742
0.0433106
0.0216753
0.0222578
0.0354021
0.0208744
0.0354454
1.10948
0.114391
0.083127
0.0212523
0.53776
0.022036
0.0208611
0.0214601
0.0602164
0.0218713
0.0412018
0.0208811
0.0212044
0.0195619
0.0239242
0.020205
0.053523
0.560556
0.0301919
0.020152
0.0207862
0.0214608
0.0317801
0.0245081
0.292673
0.0275015
0.0208575
0.0548676
0.0229364
0.0235177
0.598931
0.222447
1.05895
0.0397235
0.0439499
0.273977
0.0216258
0.0210408
2.0323
0.0216828
0.0208652
0.427726
0.0212753
0.0663717
0.0737924
0.0208641
0.166546
0.562795
0.0211928
0.124718
0.0247436
0.0371378
0.0209596
1.79763
0.0735944
0.0216587
0.549859
0.0196109
0.0315361
0.320658
0.0210099
0.0234541
0.0213915
0.0264701
0.020098
0.0205757
0.0210547
0.0216675
0.0209665
0.0206703
0.0242819
0.0212818
0.0201598
0.0295256
0.025167
0.361617
0.653521
1.98113
0.24828
0.0247265
0.0213488
0.0619736
0.0215674
0.777751
0.0212084
0.0221337
0.021378
0.0195258
0.0225806
0.0283406
0.0217168
0.338081
0.0218185
0.0210403
0.214771
0.0211911
0.0217072
0.0349641
0.0213483
0.0217339
0.261385
0.0606234
0.0204552
0.0200538
0.0214094
0.302824
0.0205545
2.4281
0.0204364
1.00145
0.0211561
0.0230181
0.0271113
0.0216232
1.95929
0.0215933
0.24051
0.0210357
0.0202964
0.0212614
0.0215801
0.0579239
0.0225185
0.0219553
0.0196216
0.751975
0.0284073
0.0246742
0.0216138
0.0209995
0.0294786
0.0199754
0.0337304
0.025406
0.0630294
0.024086
0.0199958
0.575976
0.13655
0.03388
0.0213548
0.0239395
0.363409
0.0199876
0.0312809
0.0285814
0.0219732
0.264065
0.0242854
0.0219822
0.0204522
0.0224922
0.0216416
0.032468
0.0215907
0.0212945
0.0209866
0.0559193
0.139107
0.0210216
0.0219391
0.154626
0.147002
0.0260004
0.0195313
0.033926
0.0242715
0.0217538
0.0240573
0.0208085
0.317775
0.166084
0.0551066
0.0279739
0.027697
0.0365823
0.0314753
0.0657685
0.0208009
0.0212961
0.0219184
0.0201511
0.0230108
0.0248008
0.0209781
0.0215859
0.0292408
0.0208525
0.0623881
0.359166
0.0276479
0.0216089
0.0282548
0.0201411
0.0356258
0.0215383
0.029347
0.0218824
0.0286495
0.303672
0.0203201
0.0388801
0.0228008
0.0237867
0.0319316
0.021288
0.0200387
0.058712
0.0215824
0.0350436
0.0263044
0.877041
0.0358699
0.0563698
0.0233513
0.0305217
0.0211879
0.0236198
0.0275846
0.038785
0.285765
0.322375
0.0210821
0.0242185
0.0919992
0.0289238
0.0210772
0.0209767
0.0209975
0.0433479
0.330568
3.28504
0.308689
0.0290226
0.0244728
0.250226
0.0196091
0.0215699
0.0244318
0.0213745
0.0339962
0.0209928
0.444211
0.0202244
0.123211
0.0213549
0.0218313
0.0236258
0.133656
2.21706
0.0325827
0.270983
0.0219484
0.020884
0.0213656
0.0238202
0.421258
0.0209079
0.0214808
0.18737
0.0218803
0.0209083
0.150116
0.0234797
0.0209923
0.0212498
0.0302121
0.0222886
0.030117
0.0200667
0.021472
0.021831
0.426601
0.0923126
0.020043
0.0209442
0.0322152
0.0210053
0.0214849
0.379652
0.0714751
0.0310936
0.0213494
0.0220206
0.122721
0.0219885
0.0335537
0.0236707
0.0202634
0.0322991
0.030742
0.0217471
0.0213504
0.0239384
0.0214486
0.0233358
0.0214043
0.0598872
0.0216632
0.0232321
0.0208979
0.0209992
0.0228865
0.0221343
0.0566126
3.45254
0.19145
0.0227282
0.14648
0.0266894
0.0213739
0.0209341
0.0368733
0.0213479
0.0323187
0.0214533
0.0263659
0.191638
0.23081
1.71609
0.0583964
0.0195701
2.24579
0.0218724
0.0209681
0.140733
0.0213186
0.0275465
0.0202063
0.0583602
0.0213136
0.0600958
0.284293
0.0514446
0.0212829
0.0204563
0.053186
0.0229432
0.0209953
0.399471
0.109762
0.0209621
0.0374727
0.0566713
0.0204516
0.0221317
0.0311529
1.1547
0.0348612
0.0218799
0.0212272
0.0333434
0.0212761
0.0201994
0.0211328
0.12137
3.26277
0.0202481
0.0220744
0.0215012
0.141211
0.0306334
0.0200382
0.0276261
0.0339283
0.0214836
0.305029
0.0757084
0.0218555
0.0214304
0.0338818
0.14733
1.01784
0.0202273
2.45257
0.0212384
0.020242
0.0378074
0.0230744
0.0628576
0.037775
0.0233669
0.0251796
0.0219496
0.146249
0.023112
0.0270218
0.0219299
0.0202058
0.0217359
0.0202201
0.0743648
3.48851
0.0579271
0.0242572
0.0216073
0.0219278
0.0215202
0.0233907
0.0216775
0.0200512
0.0213867
0.0356083
0.0204593
0.0216553
1.80895
2.48819
0.0940377
0.0216592
0.0219265
0.0312893
0.021908
0.307681
0.271981
0.0239255
0.0248677
0.0250848
0.0222679
0.0235692
3.61346
0.0310481
0.0220204
0.377997
0.0215789
2.19249
2.16433
0.0246234
0.0220681
3.71486
0.0209846
0.0569967
0.0450312
0.351948
0.0231078
0.0217127
0.0214703
0.465142
1.05461
0.340503
0.180237
0.0231532
0.0214598
0.0247472
0.0213024
0.0236099
0.128656
0.677202
3.59887
0.841564
0.0274257
0.0416791
0.033086
0.0210047
0.0211504
0.0286619
0.0239005
0.0215542
0.0212996
0.16216
0.0208454
0.991723
0.0250367
0.0692551
0.13108
0.021157
0.0245016
2.27968
0.0213816
3.59095
0.0212783
0.102401
0.0311244
0.0219604
0.0327196
0.0659364
0.0590736
0.0218103
0.0200086
0.0320627
0.024805
0.069229
0.0213743
0.0770763
0.0208369
0.268609
0.0212013
0.0211868
0.197432
0.0257512
0.0308612
0.0211016
0.0252641
0.0231293
0.435735
3.30872
0.0240496
0.0282995
0.0212304
0.0281098
0.0217817
0.0238959
3.85807
0.020417
0.231173
0.0215721
0.0213113
0.024123
0.305337
0.0223813
0.0649641
0.0219529
0.0328004
0.393032
0.0196171
0.0209942
2.53303
0.0349754
1.84189
0.03893
0.0217273
0.021305
0.0209876
0.0247189
0.0220506
0.0201349
0.0947818
0.317811
0.0211688
0.882686
1.04381
0.0248481
0.227029
0.020215
0.341842
0.341034
0.0196856
0.425781
0.0352779
0.366218
0.433258
0.0210609
0.0209803
0.0215482
0.274176
0.0424179
0.0213056
0.0219533
0.0951515
0.0218195
0.0362007
0.021085
0.0338301
2.9695
0.458706
0.040554
0.444505
0.0365454
1.3404
0.0248743
0.0209225
0.0267753
0.427389
0.0262836
0.0407356
0.0212936
0.136508
0.0215187
0.0217759
2.60086
0.0216995
0.0272689
0.0326687
0.0600982
0.0214732
0.0212924
0.0240572
0.0257265
0.0199709
0.021554
0.0343065
0.1213
0.0231821
0.021258
0.0377705
0.348689
0.0212394
0.403623
0.299087
0.0214751
2.30384
0.0200082
0.225161
0.0213529
0.0202593
0.197346
0.0233119
1.2959
0.0230525
0.0212944
2.21625
0.0213498
0.0201343
0.0215294
0.0209325
0.0278302
0.0338103
1.65329
0.0219714
3.63354
0.0228214
0.382944
0.377471
0.0221627
0.0213587
0.0252689
0.0201554
0.0987821
0.0211958
0.0201137
0.0201407
0.0212926
0.0213716
0.256484
0.0246574
0.040527
0.0225235
0.0241985
0.0239423
0.0252005
0.142568
0.0204612
0.0743095
0.0400174
0.0200088
0.626468
2.89882
0.0208177
0.190436
0.0212342
0.352581
0.0326311
0.0196662
0.0324215
0.0262173
0.30948
0.0208954
0.0239466
0.478568
0.0696108
0.0558716
0.0213678
0.350251
0.0683638
0.241475
0.0213736
0.0227975
0.0210024
0.021505
0.0210725
0.0210263
0.0204115
0.255291
0.0254332
0.0208759
0.0200606
0.0205916
0.0218338
0.0657351
0.066946
0.0203157
0.0257258
0.0215494
0.0215756
0.0214511
0.0209538
0.0386787
0.0200571
0.0208885
0.0216875
0.0216319
0.0230204
0.0215401
0.270855
0.110472
0.0241521
0.0208698
0.141988
0.0201041
0.0200651
0.0215348
0.0537566
0.0242424
0.0213446
0.0201662
0.0204456
0.0251469
0.0200145
0.0258931
0.0211857
0.0217817
0.0210704
0.0227283
0.897229
0.0209139
0.0218857
0.021173
0.184945
0.355216
0.026135
0.0220491
0.0265561
0.0253363
0.0386254
2.57605
0.0216809
0.340083
0.0219046
0.594215
0.0221864
0.0202766
0.0200723
0.507965
0.0200473
0.0263177
0.0275871
0.165902
0.0402687
0.0222488
0.0209994
0.020896
0.0212258
0.0273705
0.0913362
0.452813
0.0390292
0.0215324
0.0200108
0.0224996
0.021071
0.0208192
0.021809
0.0405139
0.0243106
0.350041
0.0215268
0.0214398
0.0346684
0.0213076
0.147309
0.0395456
0.037281
0.12845
0.507926
0.0284939
0.0209936
0.0200195
0.021686
0.0212834
0.544531
0.0418749
0.0960638
0.0202991
0.0216102
0.0230677
0.0208397
2.44695
0.0475525
0.020062
0.0200822
0.0209705
0.0210796
0.0209183
0.0212456
0.233228
0.0199891
0.0220698
0.0203064
0.0205853
0.0210821
0.0214854
0.0255193
0.0205799
0.0252345
0.0201578
0.0996714
0.220654
0.0236462
0.426471
0.0228603
0.021897
0.0586561
0.371136
0.0214326
0.0207282
0.02047
0.0253098
0.0218721
0.0284445
0.171013
0.0215243
0.0220951
0.0214846
0.818566
0.287405
0.0219928
0.0205986
0.0240836
0.0357683
0.0211442
0.059551
0.0208326
0.0199663
0.0242565
0.060599
0.192031
0.348779
0.240188
0.0200497
0.030032
0.0630031
0.0246438
0.021219
0.0634856
0.0239072
0.203331
0.0644324
0.0207872
0.0200594
0.0214816
0.0220302
0.0200627
0.422846
0.386785
0.0201087
0.0215501
0.0219747
0.0339909
0.02126
0.0208523
0.0336343
0.0219434
0.0209631
0.316012
0.0811173
0.0727284
0.0212698
0.0202325
0.0201247
0.0217647
0.0246339
0.026859
0.0208734
0.0206163
0.0225666
0.352273
0.020457
0.0214175
0.0576604
0.0209172
0.0207598
0.0213521
0.216213
0.0202139
0.0214484
0.0204597
0.0223629
0.0202236
0.0254804
0.136382
0.0214181
0.169415
0.0279682
0.20584
0.0481587
0.0209925
0.0251761
0.0208445
0.0207443
0.0210037
0.441806
0.391507
0.0303408
0.0263891
0.607819
0.0613481
0.0221576
0.08673
0.0526292
0.0233628
0.0200717
0.793346
0.0222235
0.0207241
0.020408
0.298223
0.274173
1.96889
0.0207126
0.0819572
0.340858
0.0249565
0.0302967
0.0242927
0.0230526
0.0317486
0.320318
0.0228729
0.0222621
0.0250504
2.15322
0.255331
0.0212498
0.021416
0.0210486
0.415311
0.0234535
0.0219348
0.584328
0.0254551
0.0363843
0.0242706
0.3261
0.0206768
0.757872
0.0220997
0.0200836
0.0209944
0.0200071
0.0200911
0.0208955
0.0217444
0.266586
0.0205191
0.917246
0.0259657
0.0216824
0.0207525
0.0779981
0.0212033
0.0215268
0.0229983
0.836301
0.0503667
0.0233154
0.0215484
2.5441
0.0206723
0.0375368
0.021531
1.9196
0.0311162
0.27933
0.0261746
0.0209939
0.0365993
1.31178
0.051676
0.0205547
0.021345
0.0341244
3.84511
0.0195744
0.0420518
0.0205349
0.0256868
0.0208644
0.0200456
0.0219868
0.0221531
0.0200362
0.0366115
0.0357346
0.0245555
0.1247
0.675317
0.0222329
0.333916
0.0201264
0.0987908
0.35868
0.163223
0.0200229
0.0219201
0.0215102
0.978492
0.0210937
0.020825
0.079626
0.0215291
0.021535
0.0221639
0.022055
0.0212544
2.17574
0.341607
0.0540106
0.0207544
0.0214616
0.10568
0.020119
0.0410004
0.021604
0.0214951
0.0219984
0.0238157
0.240309
0.0204115
0.021479
2.4881
0.0216011
0.0218099
0.0342796
0.462767
0.296006
0.0214311
0.0210703
3.67892
0.427415
1.11521
0.0205855
0.031472
0.190013
0.0203457
0.0367428
0.022881
0.439767
0.0237795
0.0215422
0.0222319
0.020027
3.32367
0.0214694
0.0204784
0.355503
0.0287197
0.290099
0.0199968
0.0227235
0.020057
0.0196492
0.0202065
0.0221713
0.021622
0.0218804
0.0200357
0.0217846
0.0410927
0.026312
0.0238493
0.0206241
0.0236208
0.0210783
0.328543
0.0216409
0.0221308
0.0215316
0.02008
0.0218359
0.0215781
0.0211739
0.0212382
0.020834
0.0202139
0.616775
0.190168
0.0212434
3.23643
0.0322483
0.0216659
0.0217081
0.0221979
0.626655
0.0217719
0.0201206
0.0201012
0.0200309
2.35721
0.0212939
0.0202814
0.207447
0.0200171
0.0197423
0.0230663
0.0233183
0.0694335
0.132188
1.83063
0.0200672
0.108509
0.0251089
0.0212352
0.0204194
0.0242817
0.0212883
0.0288647
0.0500707
0.0230979
0.0218339
2.67913
0.0442466
2.45465
0.798469
0.379234
0.0737499
0.0204978
0.269567
0.201998
0.0201317
0.0975982
0.0207094
0.0223654
0.131509
0.0207188
0.0677
0.0254167
0.0229237
0.0219466
0.0481126
0.0213796
0.946113
0.0212441
0.0201839
0.636937
0.0197616
0.0220647
0.021856
0.0456333
0.0212053
0.0214436
0.0230715
0.345535
0.0212055
0.0212878
0.0202295
0.0237475
0.0211846
0.0223659
0.30404
0.0209768
0.0255153
0.0217338
0.0236471
0.0242983
0.0209436
0.0219258
0.0886565
0.0215793
0.0217654
0.024537
0.326842
0.0222647
0.0211281
0.021425
0.0253113
0.0692046
0.0224624
0.0210239
0.0209709
0.0205594
0.0196344
0.0200649
0.0256885
0.0300611
0.0472041
0.021559
1.08657
0.0206382
0.0209755
3.89658
0.0409553
0.0199794
0.0648736
0.0210985
0.021022
0.4316
0.0218405
0.0374806
0.0197387
0.14315
0.0205369
0.0200162
0.0202466
0.266851
0.0766729
0.0215541
0.129901
0.0202276
0.020893
0.0207388
0.136416
0.0212784
0.0206553
0.0220275
0.0227877
0.0212767
0.0214667
0.0207997
0.021782
0.0215449
0.0208435
0.0235054
0.0200081
0.632843
0.0563983
0.0202119
0.0508555
0.0254795
0.020941
0.0206504
0.0218267
0.0207403
0.0278432
0.0244852
0.0396628
0.0393893
0.0216893
0.0657114
0.144625
0.0212263
0.0217463
0.0749316
0.0231447
0.328644
0.0202123
0.0214572
0.0224003
0.0217505
0.0208357
0.0253293
0.0209524
0.0220352
0.0212543
0.0232446
0.0205521
0.113756
0.0213432
0.0239129
0.0314421
0.0210059
0.451471
0.491009
0.0229258
0.0253917
0.0278368
0.0198707
0.0497845
0.0214492
0.0315052
0.54959
0.416137
0.038709
0.0223017
0.0258413
0.0210126
0.0294471
0.0205325
1.92066
0.0302666
0.0215087
0.0208088
0.0486144
0.0369634
0.0212303
0.021226
0.339713
0.0215953
0.020646
0.447597
0.0478448
0.0201218
0.127672
0.0203065
0.04909
0.0497919
0.0212714
0.0214357
0.023471
0.129191
0.0207958
0.025723
0.02144
0.0212793
0.0208268
1.04182
0.0218276
0.0213546
0.0211281
0.107346
0.0259276
0.0208089
0.0197767
0.0960103
0.0211535
0.0204538
0.101782
0.772019
0.0219238
0.27111
0.0234746
0.0427064
0.0220978
0.0506003
0.463737
0.0215435
0.0207059
0.0203101
0.0241318
0.0212078
0.659327
0.400305
0.020527
0.0222593
0.0203322
0.0200438
2.5855
0.0212159
0.0225514
0.0227661
0.0612343
0.0214552
0.0217129
0.0244934
0.471677
0.0214561
0.0213659
0.0204414
0.0205624
0.0238978
0.0411871
0.0215689
0.021127
0.0212884
0.0210669
0.0203171
2.23046
0.0217364
0.0210643
0.0210999
0.0526108
0.0203706
0.0204565
0.0326099
0.0208981
0.0337365
0.0212631
0.0214367
0.324714
4.13828
0.171781
0.0271184
0.0233891
0.0218109
2.98084
0.0206305
0.0245168
0.0200135
0.552005
0.019547
0.0240758
0.021464
0.568555
0.0391019
0.0350813
3.19757
0.0224467
0.0514857
0.0217377
0.0220059
2.32815
0.0318616
0.0211783
0.020298
0.0235553
0.0261519
0.0214251
0.0212955
0.0206263
0.0199322
0.187767
0.409753
0.0217407
0.0231958
0.526906
0.420125
0.0230264
0.0223682
0.0230396
0.0241032
0.021217
0.0221374
0.0740544
0.0209133
0.0203215
0.0215264
0.0786694
0.768746
0.0251149
0.021566
0.0216242
0.0263605
0.0213497
0.0258542
0.0384343
0.0433633
0.0229162
0.15465
0.0201195
0.021234
0.0218462
0.0199739
0.0215379
0.0208563
0.0299938
0.021011
0.150346
0.0213943
0.0207197
0.0204843
0.0252447
0.0224596
0.04001
0.0494689
0.0201552
2.86825
0.0228343
0.0204967
0.0198042
0.357411
0.23849
0.0198245
0.0208156
0.0207267
0.0221149
0.168791
0.050339
0.022035
0.0220511
0.13315
3.29212
0.0220104
0.0212163
0.326196
0.0236686
0.234628
0.0232621
0.0211518
0.0532487
0.02589
4.18524
0.0278548
0.202407
0.0203971
0.0208938
0.0216823
0.0215923
0.0236444
0.0217081
0.0215579
0.0207909
0.0217832
0.0215339
0.0214629
0.0214283
0.0229002
0.0219474
0.0213449
0.0208332
0.032026
0.0233936
0.0209224
0.0215163
0.180938
0.0213117
0.0216047
0.0219444
0.653071
0.020458
0.0350328
0.0227332
0.0201913
0.0210806
3.2486
0.050123
0.0219926
0.0223916
0.0236142
0.035286
0.0208722
0.0274048
0.0389407
0.0210577
0.0899328
0.0208265
0.0213337
0.0208642
0.021816
0.0277152
0.052871
3.7489
0.025208
0.0202004
0.0215026
0.0211166
0.0490785
0.0219571
0.327163
0.0208188
0.0213756
0.0213581
0.064463
0.0209369
0.0215823
0.0212679
0.130835
0.0204663
1.83479
0.0204236
0.0244844
0.0212757
0.0282469
0.0209949
0.0234699
0.160838
0.0338074
0.0202093
0.0325226
0.0215133
0.0214085
1.95076
0.277464
0.0203172
0.0212512
0.0233643
0.0202431
0.0211265
0.0218714
0.021707
0.02375
0.0461982
0.0221922
0.0257487
0.0337057
0.0217066
0.0210008
0.0211786
0.0224258
0.0278206
0.0214303
3.91266
0.0206715
3.10381
0.0347988
0.0201615
0.0207093
0.020689
0.106354
0.0215079
0.0233677
0.0215041
0.0206332
0.400645
0.0228295
0.0254611
0.0216626
0.0214796
0.0226825
0.0212368
0.0228238
0.0213676
0.0220707
0.0219999
0.0218817
0.585411
0.025579
0.473287
0.0210014
0.0228887
0.0224588
0.301173
0.0536083
0.269481
0.0224528
0.0199798
0.0376532
0.0209094
0.485591
0.0221411
0.0360564
0.0224622
3.27982
1.81025
0.0235266
0.0254503
0.0207485
0.0205302
0.0218969
0.0199022
0.0217419
0.0230307
0.0207837
0.0252681
0.0414557
0.290713
0.020894
0.0381838
0.0201059
0.0211924
0.0211429
0.0858292
0.0217187
0.0487345
0.0216663
0.0210777
2.87513
0.02088
0.0232311
0.021058
0.0233492
0.305112
0.026096
2.15317
0.0217916
0.0524045
0.0229633
0.0211204
0.0211436
0.0310358
0.0239311
0.0212806
0.0227149
0.0213272
0.598176
0.0207326
0.447879
0.216655
0.0581462
0.0254196
0.0865941
0.0235988
0.0198989
1.3161
0.0211908
0.830314
0.0218745
0.0226961
0.284889
0.294195
0.0267853
1.10573
0.021384
0.291192
0.019609
0.162682
0.020159
0.022636
0.0365718
0.0216991
0.0207205
0.0220126
0.0212778
0.0317767
0.298599
0.0321621
0.35536
0.0206832
1.11689
0.0214431
0.021646
0.0209961
0.0211762
0.488713
0.0216147
0.0205598
0.0342353
0.0218141
0.351971
0.0632596
0.0212719
0.0393064
0.0321699
0.0208539
0.0214436
0.0240774
0.0203131
0.0497502
0.0281009
0.0225701
0.0226749
0.0204422
0.0212105
0.0515699
0.0220011
0.0214541
0.0222683
0.0199149
0.0201311
2.39575
0.027436
3.61639
0.0263035
0.0473439
0.0258187
0.0211174
0.0260325
0.020441
0.0209847
0.266228
0.0239088
0.0232507
0.0415544
0.0216874
0.275079
0.246414
0.0210751
0.0242653
0.0295963
2.6888
0.020304
0.0203556
0.021706
0.0270154
0.330846
0.0247744
0.0236312
0.02183
0.0211716
0.0199669
0.203027
0.0234202
0.0223805
0.482777
0.021636
0.0229604
0.0244544
0.0214979
0.0212415
0.0210152
0.0488468
0.0911708
0.0218778
0.0228825
0.296162
0.0208921
0.0219522
0.0235278
0.0215994
0.352393
0.395799
0.10108
0.0666978
1.04845
0.0226921
0.0208441
0.0354875
0.0231008
0.0270782
0.0210419
0.0201873
0.351148
0.423428
0.02108
0.0207533
0.0277343
0.0443775
0.0229322
0.019983
2.30792
0.0228905
0.0334861
0.0201425
0.0259357
0.019589
0.0225725
0.0260454
0.0211716
3.74981
0.0219862
0.0334053
0.0802594
0.289793
0.070297
0.0211963
0.0542906
0.0241748
0.0242347
0.0221736
0.0225691
0.02146
0.022679
0.325846
0.0227912
0.336968
0.0207843
0.203502
0.0202876
0.0219117
0.243326
0.0243182
0.200342
0.0242125
0.0221092
3.87269
2.3365
0.0208662
2.93982
0.0356371
0.0207212
0.0198416
1.39634
2.93454
0.0204596
0.0202704
0.0214589
0.0202356
2.99212
0.300784
0.0195253
0.0197922
0.020863
0.24039
0.0429172
0.312289
0.0201982
0.340667
0.0215799
0.0521351
2.11663
0.0240431
0.0205823
0.0206118
0.296709
0.0203336
0.0210598
0.0202068
0.0242477
0.0229145
3.6847
0.0252719
0.0218265
0.0211967
0.0258129
0.190654
0.0420144
0.0211199
0.0208491
0.14731
0.0443293
0.0221124
0.367642
0.0274782
0.0230668
2.65101
0.0227177
0.026232
0.0218311
0.288253
0.0214328
0.0218434
2.51563
0.0266881
0.0210506
0.0213517
0.0195954
0.0362026
0.0954543
0.0209803
0.0202641
0.022125
0.0614643
0.0236105
0.0201993
0.021247
0.0207271
0.0224382
0.0382693
0.0214702
0.0209569
2.05727
0.0211096
1.29494
0.0291885
0.0316931
0.023161
0.022169
0.0214824
2.85663
0.0692942
0.0619693
3.58198
0.028685
0.0208756
3.0974
0.0202227
0.0671443
3.10137
0.0225998
0.0211287
0.0236617
0.0644428
0.0212008
0.0210121
2.87487
0.0212678
0.0222527
0.0205913
0.0216217
0.0203282
0.0595718
0.119867
0.0201416
0.0210254
0.525504
0.0211919
0.0201397
0.0210001
0.0208308
0.133281
0.0230415
0.0231847
0.0221968
0.0219861
0.0202539
0.0331538
0.0982049
0.0258658
0.302498
0.0224028
0.0237498
3.5857
0.0208883
0.020365
0.0210777
0.0208306
0.0218497
0.0197526
0.0221791
3.10212
0.0211654
0.0210951
0.0227468
0.0208158
0.357098
0.0216893
2.11485
0.191055
0.0254518
0.0282469
0.365194
0.0237461
0.0211822
0.0232865
0.0209522
0.0225792
0.0218961
0.0217729
3.08023
0.0202845
0.0213327
0.0374052
0.491077
0.0217152
0.0208425
0.187178
0.0223446
0.0286197
0.0213127
0.0208537
0.0209854
2.34855
0.0214829
0.380974
0.044926
0.0212792
0.0208333
0.0210402
0.023832
0.297758
0.0201507
0.03913
0.0210993
2.11489
0.230681
0.0221081
0.169811
0.0215544
0.0231841
0.0234781
0.304858
0.0229094
0.0251559
0.0256439
0.414504
0.0216805
0.0355692
0.0214532
0.0413408
0.14021
0.175581
0.0209543
0.0291797
0.293208
0.633795
0.0229614
0.0237888
0.344798
0.344224
0.020817
0.0501716
0.0211971
0.0243398
0.0214798
0.0223624
0.0222751
2.89034
0.0216445
0.0218149
0.0493918
0.40935
0.897414
0.116951
0.597246
0.0207836
0.341629
0.0532149
0.0210495
0.0211211
0.420044
0.0233106
0.0214919
0.0212461
0.0371168
0.0206973
0.0212597
0.633622
0.0214754
0.0217682
0.0210417
0.0214029
0.0225496
0.0204738
2.42885
0.0243053
0.0229184
0.0205033
0.0293913
1.05981
0.020901
0.0217759
0.302884
0.18755
0.0213549
0.0239552
0.0207087
0.0209361
0.036516
0.164003
0.0209373
0.0210432
0.302231
0.0672549
0.630117
0.0280323
0.0223496
0.420313
0.020725
0.0244732
0.0238378
0.0205582
2.51114
0.621391
0.0345458
0.0275226
0.171213
0.0198485
0.0197849
0.022683
0.0324332
0.442034
0.0203285
0.034978
0.401185
0.452712
0.0216419
0.022496
0.297043
0.0209609
0.0240138
0.342747
0.0209661
0.021196
0.0204873
0.275467
0.0208276
0.023941
0.0219245
0.0329253
0.0279822
0.412698
0.0211893
0.0211346
0.0275648
0.0217062
0.0229672
0.0221075
0.0939311
0.113796
0.020994
0.0213516
3.66797
0.483418
0.896268
0.0207554
0.0213582
0.0225657
0.0215363
0.0212772
0.0214331
0.0207979
0.0218779
0.0206662
0.020764
0.0484808
0.0231269
0.0272962
0.708716
0.0556364
0.0437059
0.0247683
0.0459398
0.112213
0.0285022
0.0231727
0.0264128
0.0210723
1.07098
0.0200613
0.0202739
0.0206744
0.483001
0.020898
0.477577
0.0217833
0.020133
0.044672
0.0211761
0.0211472
0.0211692
0.0242577
0.926992
0.0216181
0.0205569
0.0226574
0.651134
0.0434263
0.346516
0.0210415
0.030952
0.0215234
0.0215426
0.0201912
0.0207224
0.0213577
0.0217816
0.0570722
0.0223823
0.0223519
0.113029
0.481263
0.122305
0.0208473
0.0865172
0.0308134
0.483151
0.0205443
0.0210337
0.0217343
0.0544087
0.0198004
0.0213666
0.0207141
0.0203356
0.119758
0.0220757
0.0537294
0.0209997
0.0197823
0.0246065
0.021433
0.23693
0.0210975
0.0227168
0.0217883
0.026094
0.0220578
0.0524219
0.346608
0.0212325
0.0421353
1.96456
0.0211196
0.0215518
0.0378246
0.0197287
2.7089
0.027227
0.0209633
0.050803
0.0200135
0.0221541
0.0215314
0.0207454
0.0202212
0.0221599
0.0206665
0.0207133
0.0215311
0.0218422
0.0428691
0.0200654
0.131043
0.0205212
0.0208988
0.0266625
0.0407633
0.0220859
0.0197242
0.0211988
0.0222357
0.0393589
0.223188
0.0311875
0.0219447
0.0219673
0.0207544
0.0281283
0.0209355
0.0222952
0.416814
0.2551
0.0426669
0.0210782
0.0218062
0.022156
0.019732
0.042776
0.020122
0.0895027
0.0219971
0.191733
0.0257521
0.40266
0.021571
0.0545523
2.03978
0.361385
0.30357
0.0251097
0.413464
0.416203
0.0218799
0.0321698
2.69693
0.0203963
0.0207467
0.0213433
0.0242027
0.243885
0.0214797
0.0241529
0.560957
0.0195292
0.0214666
0.337739
1.09271
0.09558
0.340007
0.48956
0.0221574
0.0550136
0.0231208
0.0234174
0.571023
0.0222926
3.63194
0.0457613
0.0235484
0.0214354
0.022574
0.0226307
0.0205418
1.79413
0.0197941
0.0212492
0.0213124
0.456721
3.67802
0.0312729
0.0212792
0.0223246
0.0204595
3.10275
0.0210068
0.0220952
0.0234654
0.0579445
0.0206955
0.0645504
2.13548
0.312471
0.0217307
0.252724
0.0205625
0.682912
0.0198322
0.0385198
0.0215944
0.0599868
0.0253401
0.535168
0.112652
0.0228976
0.022733
0.0306838
0.0240089
0.021103
0.0207035
0.0248498
0.0218393
0.329285
0.0196516
0.0210783
0.0214318
0.0214022
0.301104
0.0207386
0.0201325
0.0215472
0.196745
0.0259838
0.0485005
0.0228276
0.0225189
0.0711886
0.0206262
0.0213132
0.0586125
0.0395558
0.0201347
0.0350032
0.0228945
0.339115
0.0212501
0.0714408
0.0215921
0.0212174
0.020226
0.0201737
0.0211619
0.0210727
0.207393
0.053158
0.0215754
0.0213199
0.0211316
0.0220873
0.0259983
3.22822
0.0217338
0.0300331
0.0238672
0.3144
0.0216384
0.0386819
0.0212972
0.0212573
0.0285649
0.0212219
0.021461
0.0206519
0.0200622
2.75937
0.0213832
0.0207302
0.0292692
0.474874
0.0351334
0.0213832
0.0199222
0.0239031
2.06995
0.0231932
0.0217141
0.0215445
0.252204
0.0218707
0.0211304
2.83961
0.0207689
0.0245737
0.0226187
0.0215525
0.0201636
0.0471536
0.0260219
0.0206128
0.0212868
0.0213805
0.0208977
0.419143
0.0225551
0.0213964
0.019771
0.0220361
0.020178
0.0212456
0.0691311
0.0206301
0.023937
0.0236347
0.317111
0.0197265
0.0225566
0.0480906
0.0260423
0.190803
0.0209513
0.0215234
0.208887
0.0214024
0.0201682
0.375587
0.0214236
2.03403
1.05489
0.0605592
0.368174
0.0214168
0.0271904
2.33463
0.021246
0.020018
0.648588
0.688799
0.0208953
0.0201403
0.0228289
0.0208223
0.213108
0.0464612
1.03781
0.0214888
0.0216631
0.0212209
0.0210887
3.44919
0.30572
3.77727
0.0243478
0.0224805
2.45745
0.0213434
0.0208942
0.0225385
0.0209291
0.0218566
0.0252183
0.0197244
0.46977
0.0219164
0.0219983
0.0213942
0.025813
0.0208376
3.19629
0.0206728
0.0212004
0.0227384
0.0201594
3.58506
0.0244435
0.0255581
2.31809
0.0436886
0.0316727
3.19139
0.0212792
3.23727
0.0261466
0.0207642
0.022422
0.0216334
0.400935
3.00768
0.0214881
0.0232561
0.444877
0.021071
0.0205644
0.0238889
1.91608
0.15581
0.0215318
0.0220438
0.0789405
0.0230103
0.0616132
0.0605087
0.0571607
0.0201456
0.425243
0.021559
0.35427
0.0496285
0.0320572
4.04778
2.94239
3.60129
0.0203629
0.401599
0.019981
0.0197799
0.265885
0.0197612
0.0222299
0.021145
0.0534393
0.020599
0.138839
0.0201625
0.0257786
0.475891
0.0255821
0.0246033
0.398826
0.0218212
0.0202389
0.0218684
0.0813656
0.0240982
0.130483
0.0214176
0.0255241
0.0217811
0.144599
0.0214219
0.0215779
0.0213683
0.353866
0.030072
0.0215196
3.52557
0.0210919
0.0213618
0.0245727
0.176855
0.0213946
3.87791
0.0214741
2.54368
0.0214386
0.0387842
0.0209897
0.0460258
0.021426
0.0521694
0.0244273
0.0345522
0.0208947
0.0217406
3.14224
0.0203645
0.024177
0.0272995
0.0200844
0.0584793
0.339917
0.123785
0.022161
0.0197353
0.021188
0.111019
0.0237633
4.21966
0.0238559
0.301621
0.0212984
0.735821
0.0205309
0.0314004
0.112024
0.0227701
0.139853
0.0235691
3.46534
0.165251
0.0207731
0.190797
0.0222236
0.0211421
0.0228284
0.0710234
0.0234857
0.161887
0.0242156
0.105433
0.0392999
0.0587141
0.0439507
0.307224
0.0214662
0.0215295
3.43313
3.45095
0.032401
0.0233837
1.93561
2.90392
0.0213249
0.0214458
0.0212113
1.15132
0.0207087
0.0209084
0.0310756
0.0508953
0.0198319
0.0206122
0.0222321
3.49417
0.0204994
0.0239775
0.0198326
0.116747
0.0220423
0.29217
0.0218414
0.020647
0.0213427
0.02028
0.594904
0.0351029
0.520011
0.0213277
0.0277363
0.0202029
0.212669
0.156406
0.0455623
0.0207931
0.0658921
0.0208865
0.0215948
2.97596
0.0210787
0.0242118
0.436214
0.0201475
0.10503
0.0207482
0.0198438
0.0215547
0.135171
0.0207719
4.07911
0.0915444
0.170775
0.314338
0.0207089
0.679539
0.0586006
3.80536
0.0335039
3.37885
0.186581
0.0215764
0.0343755
0.0217446
0.0286477
0.0210522
0.0227672
0.0212058
0.0253511
0.28496
3.85389
0.0238948
0.0229261
0.0845359
0.42746
0.021208
0.0214497
0.794001
0.033182
0.0204349
0.270509
0.0342837
0.0221681
0.0203914
0.0224001
0.339621
0.0216262
0.0520526
0.0195952
0.0717918
3.6855
0.0765298
0.0222378
0.0215162
0.0211663
0.0212825
0.0214681
0.0248195
0.0224011
0.021625
3.77861
0.0208356
0.0214896
0.0210626
0.310334
0.983893
0.0212542
0.0213931
2.57708
0.0204801
3.79598
0.0215249
0.0213708
0.0197233
0.021634
0.0205847
0.0227573
0.020249
0.954192
0.0218866
0.0641376
0.0213532
0.563191
0.0214689
0.0242787
1.14904
0.192723
0.0212917
0.021447
0.0363098
0.0197263
0.104611
0.415914
0.0224947
0.0207563
0.0212385
0.0203224
0.0446427
0.22666
0.0383743
0.422663
0.0382498
0.0214122
0.0211863
0.0205258
0.359288
1.67578
0.0223227
0.0211327
0.0208121
0.0266209
0.0213788
2.877
3.00752
0.0292389
0.0202664
3.37619
0.122664
0.0214446
0.182409
0.0216817
0.673595
0.0317512
0.031994
0.0264925
0.273191
0.0307035
3.70089
0.0208443
0.0205222
0.0206966
0.0203208
0.0215147
0.0275103
0.02055
0.0251747
0.0200049
0.243115
0.0210109
0.0295222
2.09093
0.0221005
0.0198121
0.0287448
4.12703
0.0212578
0.0206019
0.190129
2.37105
2.93797
0.0216386
0.0197332
2.893
0.119257
0.0240072
0.0474169
0.0213924
0.0332739
0.0215116
0.120697
0.0206553
0.0210735
0.414976
0.0204175
0.0226313
2.66336
0.0494081
0.0206369
0.0208173
0.0207459
2.66933
0.0241683
0.0256799
0.0214265
0.0207835
0.114896
0.0292249
0.0211565
0.0212961
0.0197331
0.0228118
0.0206403
0.0226845
0.195169
2.84394
0.0231236
0.0357205
0.0207966
0.0435213
0.0212197
0.0215419
0.0207667
0.241934
0.0411329
0.0200371
0.0225845
0.352852
0.0337663
3.86091
0.0456853
0.0213
0.0207725
0.0280061
0.0223014
4.00377
0.0205046
3.60597
4.03789
0.0209021
0.0348
0.686628
0.0255355
2.25747
0.103351
0.0216538
3.85352
0.0252852
0.0204011
3.50957
2.77574
0.0918651
0.0217447
3.1679
2.97884
0.0213411
0.171068
3.20323
0.0213798
0.0207086
0.0218305
0.0200278
0.0215553
0.64513
1.39799
0.0214249
0.0236576
2.22545
3.52917
0.0339317
0.0542273
0.0210719
0.0238601
2.90128
0.0523802
3.4554
3.87873
0.021258
0.0214563
0.0210531
0.0220308
3.65762
2.29571
0.0210345
0.0327276
0.417118
0.212736
0.0514415
0.021135
0.0215019
0.0219512
0.266193
0.0222769
0.0329584
0.0296939
0.022027
0.408828
0.0232433
0.051707
0.134037
0.744579
0.0212204
0.0212059
0.0225256
0.0324923
0.210658
2.94504
0.0218827
2.1442
3.50897
0.0330828
0.0303036
3.50337
0.344474
0.32785
3.11741
0.0213333
0.0777533
1.03566
0.0284563
0.0278687
0.121998
0.0224989
0.111147
0.0232059
0.0207395
0.0199842
0.0215732