/*--------------------------------*- C++ -*----------------------------------*\
| =========                 |                                                 |
| \\      /  F ield         | OpenFOAM: The Open Source CFD Toolbox           |
|  \\    /   O peration     | Version:  v2012                                 |
|   \\  /    A nd           | Website:  www.openfoam.com                      |
|    \\/     M anipulation  |                                                 |
\*---------------------------------------------------------------------------*/
FoamFile
{
    version     2.0;
    format      ascii;
    class       volScalarField;
    location    "900";
    object      nut;
}
// * * * * * * * * * * * * * * * * * * * * * * * * * * * * * * * * * * * * * //

dimensions      [0 2 -1 0 0 0 0];


internalField   nonuniform List<scalar> 
18355
(
0.000539965
0.00682888
0.00653254
0.00672178
0.00346183
0.000518346
0.0067202
0.000455268
0.000972325
0.00743908
0.00673532
0.00477888
0.000336065
0.0055041
0.00294113
0.000947516
0.00197681
0.00672822
0.00295388
0.00801456
0.000642075
0.00168892
0.013396
0.00395421
0.00253942
0.00672268
0.00672238
0.00105816
0.00293369
0.00417376
0.00477136
0.00294842
0.00672679
0.00673581
0.000278167
0.000546376
0.00139926
0.00013458
0.00103375
0.00673735
0.00535504
9.42732e-05
0.00607489
0.00391699
0.00679319
0.000132887
0.000434635
0.000819392
0.000430515
0.00672771
0.00672671
0.00620318
0.00672591
0.0100778
0.00672209
0.00672145
0.000577026
0.00308569
3.60423e-05
0.000249133
0.00672705
0.000547314
0.00672851
0.000249325
0.00588784
0.000601186
0.0009976
0.000264452
0.00672228
0.00180282
0.000323694
0.0067253
0.000207787
0.0067232
0.000470436
0.00672016
0.0064493
0.00261965
0.00219049
0.00640354
0.00672033
0.000283202
0.000629037
0.000266046
0.00672264
0.000310234
0.00620647
0.00804618
0.00298692
0.0104182
0.000335125
0.00679265
0.00672225
0.00672215
0.000271592
0.0131462
0.00570963
0.00146057
0.0105976
0.00140841
0.00216844
0.00158367
0.000344979
0.00212658
0.00371658
0.000367549
0.00202912
0.000119147
0.00077208
3.04499e-05
0.00491565
0.00115141
0.00672272
0.00119155
0.0103091
0.00671952
5.27303e-05
0.00672151
4.87702e-05
0.000315721
0.00832557
0.000286786
0.00312844
0.000362084
0.00513328
0.00011407
0.00531307
0.00672557
0.000246823
0.00672088
0.0067265
0.00411412
0.000636652
0.0017495
0.000173473
0.00672541
0.00379685
0.00673503
0.00592246
0.000215544
0.00255727
0.00653804
0.00178023
0.00492818
3.46699e-05
0.00196469
0.000589096
0.00315864
0.00205055
0.00279077
0.00380973
0.00175609
0.000332757
3.69508e-05
0.000635102
0.00672571
0.00383545
5.32641e-05
0.00672563
0.000519376
0.000593816
0.00104642
0.000339348
0.00166564
0.000459948
2.3095e-05
0.00531283
0.00041859
0.000290006
0.00672551
0.0115675
0.0127025
0.00673013
0.00673308
0.00100185
0.00375751
0.00105688
0.00672213
0.000254382
0.00197877
6.85263e-05
0.000279811
0.0011237
0.00671933
0.000432933
0.00414203
0.0120154
0.000323127
0.000831216
0.00134768
0.000573877
0.00596943
0.00178315
0.00264171
0.00014721
0.00163982
0.00219568
0.00131612
0.000768484
0.00673219
0.0022313
0.00076698
0.00303922
0.0103315
0.000409611
0.0005338
4.97944e-05
0.0113664
0.0122785
0.000848348
0.00367708
0.00329316
0.00855019
0.00191488
0.00672498
0.000311288
0.00107096
0.00857414
0.00672285
0.00185809
0.000397527
0.00653398
0.000248807
0.00402769
0.00543108
0.00208185
0.00989285
0.00392679
5.06464e-05
0.00353837
0.00672578
0.00232426
0.000709011
0.0101979
0.0013814
0.00672262
0.00672224
0.000108437
0.00056447
0.000213676
0.000820333
0.000276078
0.00449008
0.006725
0.00188109
0.00252666
0.0017718
6.72425e-05
0.000653627
0.000582655
0.00230787
1.5649e-05
0.00122863
0.0129982
0.00248115
0.00636976
0.00419187
0.000465669
0.00385649
0.00673158
0.00060022
0.000292222
0.00303283
0.000613809
0.00671871
0.00672344
0.00672572
0.000288133
0.000165005
5.578e-05
0.00131304
0.000971506
0.000305188
0.000366537
0.00263133
0.00232434
0.00623321
0.00672532
3.60527e-05
0.00672578
0.00672029
0.000333757
0.00672398
0.00341486
0.00133222
0.000752352
0.0067291
0.000460871
0.00591907
0.00283975
0.00672099
0.00657763
0.000358446
0.0104313
0.00672565
0.00672586
0.00195093
0.000330608
0.000655394
3.62343e-05
0.00672498
0.000309663
0.00141139
0.00672564
3.70013e-05
0.000446909
0.000445834
0.000381896
0.00672144
6.86788e-05
0.00398559
0.00285742
0.00078807
0.00622566
0.000291019
9.00014e-05
0.00672225
0.00672126
0.00029242
0.000288085
0.0117127
0.00235489
0.000358368
0.00301823
0.00677657
0.000632904
0.00259306
0.000306125
0.000343361
0.00672045
2.04349e-05
0.00318373
0.000160325
0.00672196
0.000807601
0.00634546
0.00672568
0.00168834
0.000762007
0.00672348
0.000408887
0.000525799
0.00367688
0.00904673
0.00164255
0.00280318
0.00672838
0.0135885
8.9098e-05
0.00672237
0.00179223
0.000451319
0.00041505
1.7388e-05
0.0139083
0.0067224
0.00193832
6.07698e-05
0.00529368
0.00162029
0.000325473
0.00085964
0.00205574
0.000407052
0.00672586
0.00013629
0.000339395
0.000143467
0.00672064
0.00335282
0.00672831
0.00565841
8.77532e-05
0.00594883
0.000399636
0.00672795
0.00096985
0.00672237
0.000921252
0.00476782
0.00293379
0.00623075
0.00555231
0.00112702
4.81524e-05
0.0088555
0.00377332
0.00542041
0.000260349
0.00945566
0.00106908
0.000364406
0.00195332
0.0048794
0.00149714
0.00671962
0.00672252
0.00672403
0.00831329
0.00133826
0.00677218
0.000584465
0.000466688
0.00502488
0.00677784
0.010128
0.00199372
0.00584699
2.38093e-05
0.00672292
6.10068e-05
0.00109561
0.000306056
0.000564461
0.00365046
0.00761616
0.00672501
0.00672547
2.50298e-05
0.0067257
0.00672938
0.00142014
0.00672365
0.00714356
0.00115563
0.000897025
0.00167607
0.0015936
0.00672529
0.00485062
0.000540495
0.0112724
0.00249874
0.00672716
0.00671944
0.00179987
0.00120274
0.000183865
0.00280046
0.00672583
0.0021173
0.000111164
5.35378e-05
0.000533448
0.00213212
0.00672587
0.000957321
0.000362051
0.0105997
0.00657114
0.00764189
0.000111381
0.000133571
0.00598106
0.00420233
0.00671984
0.00672968
0.00361093
8.85242e-05
0.0067244
0.00676954
0.00103346
0.000102568
0.00043259
0.0109281
0.000101183
0.00272478
0.00459395
0.00499559
0.00482549
0.00672034
0.006726
0.00672598
0.00672491
0.00660586
0.00247625
0.00672183
0.000285383
0.000250853
0.0067199
0.00281193
0.000121469
6.26088e-05
0.0010732
0.00564247
0.0032766
0.000798329
0.00151292
0.00254703
0.0056071
0.0011278
0.000238887
0.00672403
0.0130962
0.00389185
0.00803679
0.00544668
0.00614425
0.000743576
0.000365278
0.00181425
0.0013201
0.000896963
0.00457622
0.00019746
0.00672387
0.00113186
0.00805965
0.0131569
0.00844267
0.00232567
0.000560936
0.000617788
0.00981593
0.00163954
0.000357023
0.00217506
0.00518601
0.00672245
0.000188584
0.00672468
0.00451877
0.000590989
0.0100931
0.00419208
0.00219174
0.00672752
0.000270403
0.000415975
0.000343207
0.0067227
0.000413653
6.35329e-05
0.00167435
0.00386523
0.000821139
0.00206367
0.00672581
0.000676985
0.000815072
0.00174583
0.00020623
0.00163734
0.00672353
0.00672818
0.00672586
0.000459108
0.00212508
0.000494177
0.00477774
0.00348826
0.00504265
0.00672011
0.000239074
0.00133285
0.000155923
0.000724699
0.0105677
0.00227624
0.000325548
0.000526279
0.000769779
0.00417601
0.00542932
0.00517369
0.00180446
0.00141382
0.00556069
0.00656026
0.000484131
0.000408156
0.000319471
0.000140146
0.00627162
0.000466991
0.00672119
0.0119685
0.00594153
0.00287471
0.00673026
0.00023264
0.00995829
0.00059617
0.00672451
9.66736e-05
0.000204784
0.000282248
0.000302884
2.98738e-05
0.00164983
0.000348265
0.00320388
0.000396846
0.00101299
0.000128242
0.000112843
0.00120317
0.00672086
0.00289929
0.00448237
3.72315e-05
3.3456e-05
0.00559551
4.51763e-05
0.00836937
0.00174662
9.27846e-05
0.000889165
0.00410399
0.00658729
0.00673688
5.31655e-05
0.00163542
0.00666728
0.000499281
0.00672124
0.00161518
0.0017981
0.0019671
0.000394838
0.00654011
0.000307315
0.00101544
0.000718137
0.0103927
0.00538654
0.000399897
0.00755358
0.00672467
0.00180947
0.01342
0.00671726
0.000381836
0.00672093
0.00315773
0.00169664
0.00105754
0.000300817
0.000922106
0.000388428
0.000654373
0.00347905
0.000716007
0.00463973
0.00258399
0.00099819
2.172e-05
0.00233758
0.000189738
0.000365721
0.0056657
0.00672635
0.00416158
0.000729919
0.000794188
0.00672505
0.00121195
0.00717565
0.00975183
0.00045264
0.000652152
8.86962e-05
0.00115393
0.00672188
0.00672471
0.000580281
0.000142897
0.00676065
0.0037169
0.000463323
0.000329992
0.00681158
0.0129275
0.0100403
0.00388036
0.00673579
0.000542611
0.00672515
0.00672487
0.00340527
5.0652e-05
0.00161878
0.0067294
0.000498493
0.000444366
0.00219993
8.89257e-05
0.00313203
0.00898647
0.00063587
0.00219194
3.49097e-05
0.0125617
0.00672049
0.00954613
0.0067219
0.00672469
0.00174854
0.000209908
0.00953509
0.000655094
0.00400919
0.000388494
0.00962781
6.09871e-06
0.00120598
0.00749868
0.00318901
0.00689832
0.00284963
0.00423307
0.00696109
0.00228605
2.80145e-05
0.000821098
0.000531345
0.00620213
6.39784e-05
0.00874047
0.00672085
0.00974279
0.00522175
0.00509091
0.0036053
0.00053991
0.00181239
0.00672559
0.00672414
0.000679499
0.00320919
0.00558638
0.00671943
4.48435e-05
0.00117807
0.00672527
0.00672238
0.000410359
0.000339548
0.00721329
0.000645924
0.00679564
0.000706083
0.010348
0.000590781
0.00613683
0.00672704
0.000592095
0.0009025
0.00080631
0.00561464
9.44269e-05
0.000138606
0.00457318
0.00782987
0.00106903
0.00671961
0.000945626
0.0057458
0.00212056
0.00129186
0.00181793
0.0067184
0.00545747
0.00676109
0.00678189
0.000977467
0.0054642
0.00047139
0.000610371
0.0116011
0.00293432
0.00672121
0.00581902
0.0115101
0.00224377
0.0131192
0.00836996
0.0106323
4.06634e-05
4.16006e-05
0.0014555
0.00154522
0.00672303
0.00672428
0.00299764
0.00191301
0.00672232
0.00181537
0.00807301
0.000760253
0.0027268
6.07441e-05
0.00671749
0.00110911
0.000411379
0.0067221
0.000686535
0.00162872
3.43228e-05
4.55512e-05
0.000344126
0.00993024
0.000120886
0.000773683
0.000124401
0.00894256
0.0138938
0.000637622
7.56944e-05
0.000452775
0.00253397
0.0053496
0.00672763
0.00672021
0.00168727
0.00763611
0.00672458
0.00672583
0.000335024
0.00671769
0.000221114
0.000229773
0.00672432
0.00127246
0.00489612
0.0054373
0.000452253
0.00672528
0.000251893
3.21971e-05
0.00248048
0.00330382
0.00672436
0.000115838
0.00671863
0.00133233
0.000158572
0.00624889
0.0120568
0.00285671
0.0139036
0.00223826
0.000533583
0.00672376
0.000755925
0.00044034
0.00672318
0.00244133
0.0140425
0.00598099
0.00203007
0.00256527
0.00133758
0.00672179
0.00672203
0.00672618
0.00408742
0.00672848
0.0140842
0.00104102
0.000323713
0.00478615
0.00674005
0.00673016
0.0118371
0.0133932
0.000628938
0.00672272
0.00506253
0.00672438
0.00317463
0.000146347
2.76745e-05
0.000952769
0.00109545
4.83435e-05
0.000591752
0.000240692
0.00406863
0.0024107
0.0117913
0.000462945
0.00672378
0.00233074
0.014419
0.00672459
0.00353477
0.000103865
0.00672527
0.000454555
0.006751
0.000871281
0.00082732
0.00671756
0.00671903
0.00328902
0.00438891
0.00672448
0.0010886
0.00572367
0.00249974
0.00672331
0.000138579
0.00100666
0.000958097
0.0126993
0.00151141
0.00672585
0.000846857
0.00268127
3.72711e-05
4.2295e-05
0.00675381
0.000280108
0.00338089
0.0118509
0.00674344
0.0012155
0.000136011
0.00578775
0.00672368
0.00671848
4.21303e-05
0.00633551
0.00301282
0.0043778
2.79125e-05
0.00672537
0.00672336
0.000742857
8.09608e-05
0.0045801
0.000685934
0.00251636
0.00157574
0.00474396
0.00676146
0.00672598
0.00031267
0.00190704
0.00949202
0.00109564
0.0125291
0.00498789
0.00672661
0.000229069
0.0133731
0.00907329
0.00178591
0.00709535
0.00479167
0.000417683
0.00139394
0.000262726
0.00664729
0.00649255
0.00672921
0.000757833
0.00672324
0.00558568
0.00672555
0.00931708
0.00111412
0.00829994
0.000229569
0.00179098
0.00101446
0.00672044
0.00672007
0.00671735
0.00105906
0.000246912
0.00395726
0.000559024
0.000296455
0.00672263
0.00129753
0.000534741
0.000461967
0.00105287
0.00106546
0.000282093
0.00445884
0.00074167
0.0059511
0.00100227
0.000640243
4.41683e-05
0.00647455
0.00613971
0.000348327
0.000178763
0.0052271
0.00352708
0.000395448
0.00352332
0.00180338
3.24832e-05
0.000224169
0.000353743
0.00051233
0.00672294
0.000191263
0.00404155
0.000643885
0.00335559
0.00672319
0.0125406
0.000975357
0.00213733
0.00652373
0.00528934
5.90879e-05
0.00303308
0.00673032
0.000145577
0.00433265
0.00127517
0.00581043
0.00415831
0.00196181
0.00152926
0.000607887
0.00550056
0.00305872
0.00059296
0.00621008
0.0067327
0.00109659
0.00250204
0.00136928
0.000411414
0.00158024
0.00671713
0.00672319
0.001466
0.00673612
0.0067222
0.0102271
0.00672576
0.00224689
0.00672163
9.77791e-05
0.00672289
5.00107e-05
2.76063e-05
0.00314084
0.010121
0.00671955
0.0014363
0.00464144
0.00894982
0.000492108
0.00671795
0.00672317
0.00259298
0.00642727
0.000342809
0.00957758
0.00261732
0.00475599
0.00672371
0.00155213
0.00071123
0.00210591
0.00674383
2.34288e-05
0.00864927
0.00095851
0.00367858
0.00342622
0.00672455
0.00672364
0.00910899
0.000526251
0.00120279
0.000994672
0.00401274
0.00856521
0.00205532
0.000222186
0.00672453
0.00156212
0.00555443
0.000359352
0.000293901
0.00108902
0.00672209
0.00426644
0.00123997
0.00671795
0.00674032
0.00319456
0.00612225
0.00306296
0.00672323
0.00186758
0.00485359
0.00245143
0.00122676
0.0137689
0.00671735
7.03846e-05
0.00112605
0.00671742
0.000919646
0.000581859
0.00672337
0.00516822
0.00672237
0.00454395
0.000681179
0.00672264
0.00157815
0.000360887
0.00672207
0.000386914
0.00114261
0.00949979
0.00131537
0.00957712
0.000393403
0.000354912
0.00922167
0.0085151
0.00679244
0.00189386
0.00672209
5.0783e-05
0.00443567
0.000274747
0.000793834
0.00672603
0.00439232
0.00672288
0.0018391
0.00140821
0.00279292
0.000990233
0.000455166
0.00672217
0.00672482
0.00672295
0.00467628
0.000323959
0.00491747
4.7336e-05
0.00672222
0.000678791
0.00300351
0.000288937
0.000677027
0.000338379
0.00100034
5.30915e-05
0.00674171
0.00671827
0.000208965
0.00672251
0.0067209
0.000663814
0.000352909
0.00672242
8.69668e-05
0.00672215
0.00542624
0.0067216
0.00619078
0.00642029
0.000467673
0.001189
0.00247424
0.0095639
4.46554e-05
0.00672264
0.00025084
0.00089649
0.00389179
7.26119e-05
0.0111713
0.000260718
0.000967663
0.00038762
0.000342352
0.000142661
0.00675967
0.00672069
0.00672263
0.00610627
4.68584e-05
0.00204077
0.0022711
0.00506107
0.00236375
0.0127932
0.00042597
0.00153081
7.16144e-05
0.00672053
0.00111186
0.000283802
5.12801e-05
0.00672416
0.000317739
0.000270388
0.000563842
0.00861438
0.00672679
0.00528265
0.0067212
0.000150549
0.00671882
0.00671865
0.00719465
0.00015074
0.00117648
0.00431757
0.00923416
0.000821899
0.00555346
0.0082842
0.00672572
0.00673856
0.000643769
0.00564706
7.65261e-05
0.000957757
0.000295436
0.000349574
0.00596653
0.00238953
0.00526296
0.0039089
0.000979859
0.000109171
0.00845414
0.000441242
0.000427285
0.0057456
0.00672065
0.00648914
0.000239077
0.000110468
0.00672374
0.00672707
0.00672282
0.00671841
0.00671891
0.000372195
0.000156935
0.0106217
0.000526184
0.000349139
0.00208197
0.00040674
0.009137
0.00286831
0.00160327
0.00671889
0.00466114
0.00877291
0.000227509
0.00041363
0.00472733
0.00263361
0.00177448
0.000672417
0.000904352
0.000122639
0.00674457
0.000587379
0.0101912
0.00672592
0.00051595
0.00269807
0.0129958
0.000367624
0.000482568
0.000467702
9.99079e-05
0.000104198
0.00752649
0.00521829
0.000312753
0.00677857
0.00672519
0.0071381
0.00334575
0.0141019
0.006723
0.00679486
0.00510091
0.00450426
0.00436305
0.00168248
3.17716e-05
0.00191307
0.00672361
0.0136165
0.00244038
0.000633664
0.00671883
0.00559088
0.00041153
4.10046e-05
0.00672298
0.000394293
0.000200205
0.000902
4.51842e-05
0.00672553
0.00672411
0.00672144
0.00673011
0.00177746
0.000109767
0.00672158
0.010341
0.0067289
0.0067232
0.00031513
0.00510556
8.38332e-05
0.00135165
0.0067174
0.00393411
0.000378002
4.12491e-05
0.000119305
0.00295354
0.00195215
0.000451763
0.000439947
0.00483808
0.000293593
0.00960772
0.00671883
0.000252654
0.00643299
0.000341099
0.000314304
0.0134131
0.000509211
0.00252349
0.0018294
0.000599896
0.000991381
0.000131917
0.00481613
0.000311402
0.00674612
0.00381659
0.000644977
0.00154935
0.000268093
0.00671955
0.000359387
0.00352998
7.68129e-05
0.00478404
0.0063567
0.00717424
0.00674634
0.000156353
0.000275088
0.00535751
0.00502067
0.0049245
0.00671829
0.00266298
0.00353431
0.0139417
0.000556106
0.00672531
0.0127694
0.00672253
0.00274827
0.0067411
0.00106527
0.00012241
8.84175e-05
0.000664752
0.00457789
0.00672271
0.00672672
0.000351064
0.000113939
0.00672227
0.000815571
0.00372865
0.0141723
0.00105924
0.00896062
0.00826381
0.00458078
0.00315684
0.00671889
0.000449796
0.00672153
0.00252112
0.00413169
0.000341433
0.00455508
0.000417983
0.000271288
0.00945948
3.31033e-05
7.19629e-05
0.00870347
0.00672045
0.000214787
0.00192433
0.00672108
0.000620076
0.00713447
0.000297062
0.00657227
0.00962869
8.83183e-05
0.00182078
0.00124155
0.000941638
7.6507e-05
0.00159425
0.00459356
0.00672008
0.00551221
0.000278337
3.46377e-05
0.000282566
0.00671934
0.00326761
0.000266375
0.00671449
0.00157294
0.000490163
0.00161596
0.00672424
0.00672585
0.00021821
0.00672006
0.000271466
0.00201262
0.00671967
0.00672004
0.00106289
0.00671807
0.000155186
0.00212908
0.000140006
3.9164e-05
0.004637
0.000961933
0.00130826
0.000120251
0.000902681
0.00103807
5.98214e-05
3.06326e-05
0.000413346
0.00631061
6.43706e-05
0.00276837
0.000310471
0.00695894
0.000567698
0.00671746
0.00672313
4.70166e-05
0.00346828
0.00956341
3.03585e-05
0.000970095
0.00974844
0.00152706
0.000277315
0.00528826
0.00347651
0.00672212
0.00672211
0.00671937
0.00140186
0.000341718
0.00158489
0.000297436
0.000439632
0.000413073
0.00302318
0.00200818
0.000313727
0.0067217
0.00672035
0.00123544
0.00280646
2.52746e-05
0.00672081
0.0067205
0.00672574
0.000128291
0.00027288
0.0005235
0.00263036
0.00206528
0.0142962
0.00931925
3.99654e-05
2.14842e-05
0.000530375
0.00248926
0.0143469
0.000307624
0.00250653
0.000101201
0.00673073
0.000418817
0.000582793
0.0025633
0.00671756
5.77195e-05
0.000616968
0.00847802
0.00031904
0.000343756
0.00243263
0.00131085
0.00460131
0.000457563
0.00191041
0.000414272
5.44718e-05
0.0063299
0.0107438
0.00283622
0.00672017
0.000983958
0.00217904
0.00024497
0.00546724
0.000564567
0.0067202
4.3261e-05
0.000246071
0.00122788
0.00265966
0.00368313
0.00253708
0.00672456
0.000411469
5.30011e-05
0.0140571
0.0004668
0.00672534
0.0138379
9.44318e-05
0.00527284
0.000171621
0.00634821
0.0015122
0.00671985
0.00025286
0.00102491
0.000404455
0.00045647
0.00673985
0.00485945
0.00672467
0.00159101
0.00157908
0.00136204
0.0067172
0.00352088
0.000948824
0.00672602
0.000960182
0.00672313
0.00121014
4.32874e-05
0.00307117
0.00146385
0.000934136
0.0129226
0.00671848
0.00672302
0.000444295
0.000442037
0.0034052
0.000466597
0.0027756
0.00118582
0.00960181
0.00345366
0.0051745
0.00191435
0.000175632
0.00672015
0.00179524
0.00810903
0.00793088
0.00207177
0.00128807
0.00673625
4.31063e-05
0.000406903
2.96114e-05
0.00672509
0.000130393
0.00159247
0.000655511
0.00194073
0.00159898
0.00209484
0.00956237
0.00159382
0.00673845
0.00761148
4.24953e-05
0.00672147
0.00672226
3.13254e-05
0.00175993
0.00029409
3.93694e-05
0.00672202
0.00176848
0.00330675
0.000598904
0.00281358
0.00671401
0.000365284
0.00172917
0.000317804
0.00672746
0.0029709
0.00352397
0.00333451
0.00672244
0.000261532
0.00590295
0.000645081
0.00920807
0.00657842
0.00329286
0.00660822
0.000123642
0.000707627
0.00262921
0.000705593
0.000933867
0.00671828
0.000935799
0.0070431
0.000137385
0.0044026
0.00331178
0.00543486
0.00271096
0.0101065
0.00672454
0.00286496
0.00672031
0.000847443
0.00540225
0.000756795
0.000244545
0.00672268
0.000117875
0.00189093
0.000292741
0.000771572
0.00207378
0.000325355
0.0139391
0.000320997
0.00676583
0.000291022
0.000936982
0.000189201
0.000656945
0.00499831
0.00055206
0.000441652
3.77498e-05
0.000184775
0.00212395
0.0027149
0.00860907
0.00229471
0.00685062
0.000318705
0.000150665
0.0140671
0.00256169
0.00514964
3.61628e-05
0.000278827
3.70501e-05
0.000159271
0.000941497
0.00672295
0.00307412
0.000132536
0.00477179
0.000123141
0.000501797
3.61723e-05
0.00862876
0.00672206
0.000412945
0.00171771
0.000374425
0.000261911
0.00672377
0.000330958
0.000564917
0.000916103
0.00672355
0.00171325
0.000374932
0.00491515
0.00145919
0.0082775
0.00672542
0.00672072
0.00120028
7.73458e-05
0.00341307
0.00672294
0.00151144
0.00104448
0.000751242
0.00451427
0.0067238
0.0048461
5.04772e-05
0.00672297
0.00672225
0.00039725
0.0145506
0.00500951
0.00672561
0.000798755
0.00157592
8.60297e-05
0.00264843
0.0051115
0.0067183
0.00133013
0.000926534
0.0145979
0.00193378
4.00177e-05
0.000834825
0.0106938
0.00627705
0.00257511
0.00655596
0.000980063
0.00469536
0.00673491
0.000191341
0.00673003
0.00522221
0.00679739
5.09977e-05
0.00488761
0.00401189
0.000860514
0.0110543
0.00466727
0.0118785
0.00364764
0.000690315
0.00672452
0.00131737
0.000166431
0.000391388
0.00236097
0.00672124
0.000943364
0.0116735
0.00672015
0.000864164
0.00672381
0.000374434
0.00277922
3.56767e-05
6.05804e-05
0.000444915
0.000300429
0.00279842
0.00943752
0.00118591
0.00671813
0.0133036
0.00970688
0.00525644
0.00673284
0.000423705
0.000711891
0.000426745
0.00671925
0.00495992
0.00023151
0.000373263
0.00674314
0.00671906
0.00190736
0.00312743
0.00205859
0.00222192
0.000532057
0.00375099
0.000189621
0.00211545
0.0037185
3.87075e-05
0.00671983
0.000657377
0.000199045
0.00105169
0.000290656
0.00516444
0.000862907
0.0084694
0.0031955
0.00671924
7.82669e-05
0.00672066
0.0134465
0.00672257
0.0115404
0.00478926
0.00487666
0.00585713
0.000762653
0.00706621
0.00590335
0.000682155
0.0011466
0.000181612
0.00672093
0.000279197
0.00671876
0.0111352
0.000403505
0.00968511
0.00673236
0.00672579
0.000626825
0.00233642
0.000284011
0.00618244
6.36747e-05
0.000937249
0.00437427
0.00636927
0.0028381
0.00672228
0.00256434
0.002378
0.00951377
0.000384787
0.00671906
0.00671334
9.89704e-05
3.01584e-05
0.00679167
0.0002721
4.46638e-05
0.00445218
0.00120184
0.00244651
0.00672317
0.00671967
0.00387651
0.000656326
0.00139601
0.011347
4.18033e-05
5.36822e-05
0.00672588
0.00672247
0.00815601
0.00152362
0.0067223
0.00256922
0.00469284
0.0138463
0.00363664
0.00898178
0.000233895
3.30422e-05
0.00672587
0.0104701
0.00671763
0.00326502
0.00672182
0.00671808
0.000916669
0.00544945
0.00672266
0.0121332
0.000270812
4.20444e-05
0.00411116
0.00672192
0.00329126
0.00573737
0.000122711
6.082e-05
0.00672772
0.000519905
0.00222361
0.0136916
0.00700415
0.00901227
0.00672865
0.0129227
0.00339712
0.00922841
3.4655e-05
0.000520309
0.000162496
0.00539799
0.000331641
0.0126815
0.00149576
0.00960606
0.0067176
0.00672343
0.000131769
0.00415622
0.000251167
0.000513192
0.00671979
0.00726552
0.000895937
0.000116991
0.00671925
0.00038467
3.81538e-05
0.00672357
0.000850244
0.000547049
0.000452766
0.00676124
0.00672013
0.0105966
0.00783933
0.000928362
0.00687022
0.000202359
0.00672284
0.00682463
0.00292714
0.00672238
0.000348517
0.00672483
0.00673211
0.000717492
0.00991403
0.00196631
0.00344435
0.00119051
0.00530054
0.00292981
0.00299543
0.000609924
0.00671826
4.26952e-05
0.00672407
0.00314381
0.00674535
0.000101573
0.00494407
0.000400169
3.91247e-05
0.0139798
0.000115572
0.00575356
0.00144958
0.00870809
0.00909312
0.00884527
0.0067208
0.00236471
0.0068749
0.00423645
0.000385989
0.00160034
0.00672139
0.00397945
0.000368833
0.00478499
0.0035716
0.000447807
0.00672491
0.00358114
0.00136736
0.00594517
0.00397128
0.00672472
0.000418681
0.00673783
0.000883022
0.00665677
0.000116013
0.000291646
0.00851523
0.00671878
0.00599066
0.0142648
0.0037856
0.00672514
0.000638077
0.00074378
0.00164505
0.00113725
0.00815802
0.0139631
0.00028545
0.00579362
0.00112899
0.000440951
0.00671832
0.00671906
0.00132443
0.00672008
0.000251519
0.00372946
0.00867433
0.00672172
0.00122969
0.00281251
0.00145731
0.00971557
0.000157941
0.000158293
0.0026194
0.000164983
0.0111466
0.000436206
0.00987013
0.000675129
0.00283737
0.01284
0.00827287
0.00140687
0.006724
0.00140941
0.000427904
0.00033826
0.00673826
0.00289696
0.0067249
0.00671902
0.00672343
0.0101021
0.00100432
0.00671977
0.00239985
0.00672197
0.00652886
0.000536985
0.00673729
0.000355475
0.00671967
0.014361
4.51828e-05
3.36794e-05
0.00131078
0.00132254
0.00672184
0.00104947
0.00268163
0.000408214
0.000236714
0.00249018
0.00672008
4.61481e-05
0.0015794
0.0067229
0.000415361
0.0067221
0.010796
0.00672
0.00440599
0.00291509
0.000937724
0.00671996
0.00333876
0.00672069
0.00678038
2.12325e-05
0.000863458
0.00119755
0.000273689
3.5689e-05
0.0136488
0.000346573
0.000901243
0.00205911
0.00957505
0.00811375
0.00685713
0.00142411
0.00673188
0.00509665
0.00118449
0.00675686
6.64882e-05
0.00150876
0.00302272
0.0026467
0.00672235
0.00510343
0.00477239
0.00672411
2.85294e-05
0.0073337
0.00886367
0.000181521
0.000700483
2.90483e-05
0.000956192
0.00485183
0.00705667
0.000937913
0.00672227
0.00678962
4.03845e-05
0.000901128
0.000113452
0.000238945
0.00921552
0.00672179
0.00668815
0.0100486
0.00671858
0.000482725
0.000288438
0.00284226
0.00133381
0.00832208
0.00672542
0.00113737
0.00436399
4.35601e-05
3.9063e-05
0.00208898
0.000969814
0.000377613
0.0108484
0.00671823
8.19879e-05
0.00889831
0.00671963
0.000918882
0.00653679
0.000479337
0.00259259
0.00452891
0.00021152
0.00316367
0.00223431
0.00154226
0.00750449
0.000554619
0.002362
0.00205873
0.0037769
0.00620743
0.00222647
0.000143088
3.63202e-05
0.00163238
6.84495e-05
0.000108053
0.00672245
0.000478915
0.00340856
0.00672855
0.0019366
0.00672354
0.00230038
0.0126965
0.000350541
0.00672625
0.00358051
0.00513425
5.42804e-05
0.00201051
0.000933831
0.00218223
0.00734539
0.0019387
0.000710397
0.000310069
0.000153199
0.0048581
0.00675141
0.00672198
0.000115355
0.00768663
0.0131805
0.00997469
0.00671755
0.000527584
0.000278808
7.45065e-05
0.00836822
0.0067223
0.00728156
0.00193144
0.00259785
0.00675809
0.00732195
0.00124084
0.00397641
0.00443446
0.000395833
0.0105907
0.000104814
0.00671874
6.51877e-05
0.00212129
0.0037786
0.00116709
0.0016321
0.00671921
0.00245404
0.000872862
0.00672617
0.000981977
0.00672322
0.000504032
0.00672547
0.0128979
0.00672441
0.00911584
0.00673425
0.000410727
0.00551264
0.00106729
0.00102187
0.00672193
0.000714664
0.00256584
0.00672392
0.00481184
3.39293e-05
0.000101167
0.00673925
0.000710351
0.00568356
0.00880674
0.000955346
0.000246455
0.000313814
0.00487335
0.000613222
0.00315931
0.00122106
0.000120092
0.00672229
0.000220371
0.00616319
0.00672229
0.0121201
0.000512777
0.00633958
0.00672813
0.00239648
0.00672715
0.0140262
5.53266e-05
0.00672564
0.00534266
0.000309101
0.00537109
0.00187156
0.000688243
0.00672221
0.000383518
0.00649593
0.00672255
0.000334642
0.00282381
0.000551428
3.87183e-05
0.00731239
0.0103407
0.0019521
0.000489572
0.00685385
0.00230515
0.00960481
0.00039548
0.00117715
0.000315189
0.000607889
0.00672838
0.00014316
0.00672589
0.00664315
0.00075698
0.00501563
0.000508562
2.34053e-05
0.000458572
0.00184695
0.00672128
0.00051216
0.00672255
0.00672351
0.000556475
0.0115253
0.00631229
0.00667563
5.84267e-05
0.000522257
0.00315938
0.00290156
0.000442047
0.00462056
0.00017312
0.00348278
3.39575e-05
0.00524564
0.0067222
0.00672497
2.42178e-05
0.00452015
0.000921323
0.00672229
0.00738582
0.00507756
0.00178981
0.00672505
0.00127079
0.013627
0.00207767
3.1852e-05
0.000238537
0.00672678
0.00211963
0.00672553
0.00457005
0.0067204
0.00728371
0.010932
0.0123863
0.000928997
0.000301762
0.00537792
0.0067207
0.00542757
0.00672317
0.00292965
0.00883483
0.0002425
0.00671839
0.00673912
3.21775e-05
5.40949e-05
0.000102973
0.00983181
0.000299943
0.00261009
0.00239916
0.011263
2.39143e-05
0.00176584
3.17621e-05
0.0138104
0.00363226
0.00285584
0.000849414
0.00672535
0.000918342
0.000328294
2.36805e-05
0.00672627
0.000451334
0.00672224
0.000122504
0.00927616
0.00326645
0.00128949
0.00744128
0.008642
0.00327866
0.00898907
0.00438918
0.00189281
0.00672436
0.0140224
0.00672282
0.0021421
0.00672233
0.00294834
0.00672412
0.00373699
0.00319317
0.000430748
0.00673692
0.00934122
0.00352721
0.00671535
0.00673764
0.000189131
9.56011e-05
0.000613019
0.000302301
0.00106063
0.0103853
0.0105967
0.0128232
0.000566803
0.00101759
0.000421374
0.000231232
0.00365612
0.000879524
0.00601989
0.000517764
0.00080967
0.00105006
0.00331975
9.25971e-05
0.00030779
0.00672366
0.00069556
0.00466348
0.00672209
0.000517413
2.96551e-05
0.0011482
0.000615899
0.00331404
0.00162416
0.00991088
3.20365e-05
0.00674665
0.000701581
0.00325176
0.000419847
0.00224728
4.16054e-05
0.00393429
0.000453412
0.000346146
0.00866972
0.00131949
0.00810866
0.000546088
0.0046877
0.00672284
0.0067191
0.00950287
0.00571871
0.00616707
0.0101465
0.00987953
0.000230509
0.000408982
0.000852626
0.00735345
0.00431215
0.00672094
0.000698474
0.000329835
0.000183245
0.0048951
0.00116482
3.90339e-05
0.00733491
0.00433885
0.000396529
0.00685012
3.97463e-05
0.00022842
0.000637971
0.00626521
0.0076038
0.00840134
4.1531e-05
0.000758706
0.00490994
0.00279529
0.00139347
0.000385343
0.00413986
0.00648572
0.00290761
0.000118548
0.00672932
0.00034797
0.000618691
0.0115404
0.00672206
0.0013966
0.00025737
0.00567306
0.00672172
0.000802647
0.000191668
0.000667835
0.00136073
0.00670329
0.00381775
0.00582493
0.00672384
0.000312409
0.00951136
0.00267015
0.000334345
0.00297336
0.00185669
0.00672547
0.00897066
0.000486321
2.4815e-05
0.00145647
0.00764154
0.006743
0.00671532
0.00672578
0.00672071
0.00671969
0.00945169
3.13094e-05
0.00735921
0.00672418
0.00664209
0.00949123
0.00142817
0.0099006
0.000485015
0.00678342
3.61415e-05
0.000298439
0.00100531
0.00600141
0.00183411
0.000541737
3.32929e-05
0.000411079
0.00672211
3.43524e-05
0.00671846
2.85488e-05
0.00255631
0.00034215
0.00673205
0.00378683
3.7325e-05
0.006725
0.0062028
0.00672259
0.00584118
0.0122825
0.000469323
0.000736601
8.78234e-05
0.0006412
0.00682245
0.0067662
0.00510994
0.000295864
0.000555042
4.18477e-05
3.34623e-05
0.00198435
0.00043706
0.000201054
0.0031708
0.000401468
0.00670865
0.000612227
0.00521695
0.00222093
0.00672465
0.00181707
0.000212548
0.007183
0.00672134
0.00616753
4.59543e-05
0.00551794
0.0034421
0.00672494
2.77022e-05
0.00977995
0.00339109
0.00672613
3.82054e-05
0.0100203
0.00099465
0.00042056
4.20081e-05
0.0092547
0.000956857
0.00108168