/*--------------------------------*- C++ -*----------------------------------*\
| =========                 |                                                 |
| \\      /  F ield         | OpenFOAM: The Open Source CFD Toolbox           |
|  \\    /   O peration     | Version:  v2012                                 |
|   \\  /    A nd           | Website:  www.openfoam.com                      |
|    \\/     M anipulation  |                                                 |
\*---------------------------------------------------------------------------*/
FoamFile
{
    version     2.0;
    format      ascii;
    class       surfaceScalarField;
    location    "900";
    object      phi;
}
// * * * * * * * * * * * * * * * * * * * * * * * * * * * * * * * * * * * * * //

dimensions      [0 3 -1 0 0 0 0];
oriented        oriented;


internalField   nonuniform List<scalar> 
27274
(
0.130623
0.031934
-0.162557
0.0106249
-0.00664209
-0.00398281
0.229032
-0.30952
0.0804894
-0.319911
0.517143
-0.197222
0.289959
-0.243798
-0.0461595
0.133192
-0.123579
-0.00961364
0.360689
-0.417235
0.0565533
-0.166137
0.0801975
0.0859393
-0.144264
0.152951
-0.00213103
0.0013585
0.000772532
0.433951
-0.212242
-0.221703
-0.00991595
0.0116542
-0.0017382
-0.0370874
0.0945752
-0.0574878
0.217961
0.0932254
-0.311186
-0.0580029
0.283135
-0.22513
0.0341039
0.147461
-0.181565
-0.0078829
-0.00247081
0.0103537
0.0408046
0.247752
-0.288551
-0.295301
0.249186
0.0461155
0.0553417
-0.0408079
-0.0145338
-0.118475
0.164365
-0.0458907
-0.0383155
-0.143433
0.181749
0.00171585
-0.00353551
0.00181966
0.256778
0.0331821
-0.224281
-0.0262967
0.373146
0.0379993
-0.411143
-0.422177
0.170857
-0.15743
0.164929
-0.00749865
0.00721362
0.000902146
-0.00811577
-0.215409
-0.0577252
0.273135
0.140099
-0.269102
0.129005
-0.273138
0.110819
0.16232
-0.291839
0.33265
0.209045
-0.529296
0.320269
-0.050418
-0.0798017
0.13022
0.165609
-0.0349861
-0.215819
0.0816203
0.0646823
-0.108676
0.0439939
-0.199959
0.0425286
0.420152
-0.310148
-0.109999
-0.0236332
0.241595
-0.0958374
0.0710137
0.0248237
0.308517
-0.0794829
0.00424717
-0.0020115
-0.00223567
-0.525155
0.363357
0.161816
0.0809969
-0.0163146
-0.126421
0.15144
-0.0250195
0.0618904
0.10699
-0.168881
0.128458
-0.153823
0.0253647
-0.478904
0.210678
0.26823
-0.416384
0.0845175
0.331874
0.188107
0.128641
-0.316746
0.286692
0.171052
-0.457744
0.0104828
-0.0189396
0.00845681
-0.0799636
0.384008
-0.304041
-0.461144
0.487001
-0.0258471
0.077851
-0.122101
0.04425
-0.196724
0.138722
-0.0220088
0.0141029
0.00790592
-0.0484192
0.118262
-0.0698432
-0.241042
-0.237858
0.144669
-0.15431
0.00964059
0.061897
-0.354794
0.292902
-0.00549
-0.116928
0.122418
0.000213154
-0.0101291
-0.141037
0.172971
-0.00685859
0.004937
0.00192159
-0.11966
0.123278
-0.0036176
-0.238225
0.161109
-0.199424
-0.137439
0.10414
0.0332986
0.560129
-0.320315
-0.239812
-0.10512
0.0567008
0.400064
-0.283648
-0.11641
-0.08608
-0.0800567
0.0627952
0.297898
0.0475369
-0.0283642
-0.0191727
0.285569
-0.245768
-0.0398008
0.0278587
0.15808
-0.185939
0.182721
0.156244
-0.338963
-0.33882
-0.0784087
0.0695637
0.0144009
-0.0839646
-0.170881
0.052407
-0.124772
0.010376
0.114396
0.0561958
0.316953
-0.0922277
0.0551404
0.0015958
0.0177612
-0.019357
0.0326425
0.0226992
0.00627551
0.00093811
0.00672022
0.00755185
-0.0142721
-0.0548931
0.108856
-0.0539624
-0.441309
-0.0838209
0.480171
-0.164932
-0.315236
-0.298209
-0.119463
0.417681
0.000453842
-0.000453842
0.000458854
0.001257
-0.360333
0.245344
0.114992
0.213896
-0.216291
0.00239547
0.0160315
-0.0055487
-0.00708063
0.0082023
-0.00112166
-0.00403073
0.00372223
0.000308499
0.0100753
-0.00773051
-0.0023448
-0.174873
0.120118
0.0547551
-0.0932269
0.0591852
0.0340417
0.304138
-0.22311
-0.0810268
-0.0659518
0.115307
-0.0493549
-0.0122388
0.012634
-0.000395199
-0.0268277
-0.0615829
0.0884107
-0.00345078
-0.117537
0.120988
-0.0385905
0.0167295
-0.316846
0.11227
0.204577
0.160403
-0.207357
0.0469541
-0.435226
0.0644483
0.370778
-0.012618
0.173021
0.0108881
0.00822674
-0.0191149
-0.411415
0.549281
-0.137854
-0.0110198
0.0128787
-0.0018589
0.0212274
0.0263095
-0.0138755
0.0133852
0.00049033
-0.145304
-0.0295687
-0.00183915
-0.000291888
0.0446285
0.0441166
-0.0887452
0.210607
0.0749626
-0.101921
-0.0355182
-0.141916
-0.218414
-0.0882841
0.0614563
-0.15388
0.341991
0.280626
0.194737
-0.475363
0.0418088
-0.081448
0.0396392
-0.414004
0.115806
-0.307158
-0.10922
0.0790127
-0.07125
-0.0077627
-0.0229727
0.129639
-0.106667
0.191821
0.0220754
0.0790328
-0.108511
0.0294784
-0.171601
0.452228
-0.193165
0.00868504
0.184482
0.27474
0.159216
-0.217408
-0.0486187
0.266027
0.0585309
-0.121589
0.0630586
-0.00267196
-0.00135877
-0.00548184
0.00344768
0.00203416
-0.215685
-0.0389727
0.254658
-0.267152
-0.049693
-0.0247288
0.0209948
0.00373395
0.258149
-0.107329
-0.15082
-0.157122
0.0420968
0.115025
0.0232907
-0.00354073
-0.0197499
-0.129833
0.209003
-0.0791696
0.0211712
0.00211941
-0.14136
-0.121225
0.262586
0.114716
0.0417934
-0.0922113
-0.0147996
-0.0072092
0.108235
-0.129773
0.0215379
0.0351199
0.424925
-0.460044
0.0677487
0.0112641
-0.00444516
-0.00943036
0.350198
-0.315077
-0.147312
0.0393599
0.107952
0.00560261
-0.122311
0.116709
-0.0306861
0.190604
-0.159918
-0.13832
0.0186545
0.119666
0.220455
-0.0286341
-0.0478123
0.0943541
-0.0465419
0.0297098
0.00981511
-0.0395249
-0.00523783
0.0108034
-0.0055656
-0.175243
0.144626
0.0306178
0.115419
-0.0521421
-0.0632767
-0.345162
0.320735
0.0244323
0.0130811
-0.0146879
0.00160685
-0.00252103
0.00335917
-0.000838139
0.000344202
-0.381142
0.380805
-0.369424
-0.019014
0.388444
-0.158008
0.192112
-0.00149093
0.0101152
-0.00862426
0.136316
-0.149151
0.0128351
-0.361363
0.0228418
0.338524
0.0921478
-0.050339
-0.0101966
-0.0137009
0.0238975
0.0426126
0.0138142
-0.0564268
0.0619456
0.0534732
0.19937
-0.200337
0.000967329
-0.442452
0.369917
0.0725423
0.094347
-0.0442288
-0.0501181
-0.00719186
0.0139974
-0.0068055
0.000553761
0.0102793
-0.0108331
-0.0325142
0.103127
-0.0706126
-0.0300439
-0.135896
0.16594
-0.010459
0.00257614
-0.0271554
-0.185307
-0.139623
0.324932
0.189763
0.0306926
-0.043131
-0.030804
0.073935
0.109826
-0.0744457
-0.0353806
-0.283611
0.128567
0.155044
-0.100764
0.0353058
0.0654585
0.177142
0.0222279
0.169636
-0.152968
-0.0166685
-0.369074
-0.273399
0.108266
0.165134
-0.181805
0.0344061
0.147399
-0.0032195
0.00665145
-0.00343195
-0.00492786
0.00548162
-0.0132851
0.00328098
0.0100041
0.16922
-0.198439
0.0292196
-4.99029e-05
-0.0109699
-0.00061659
0.00299993
-0.00238334
0.00104093
-0.00227777
0.00123684
0.149152
0.0204847
-0.384951
0.191787
0.0825852
-0.223944
-0.0498705
0.032403
0.0174675
-0.243242
0.0275587
0.0849151
-0.430071
0.0933945
-0.0238308
0.0191267
-0.0718118
0.0526851
-0.017228
-0.366168
-0.0690573
0.0851628
-0.214995
-0.0423314
-0.0478026
0.0901339
-0.0277172
-0.274273
0.301991
0.0111686
-0.13594
0.233876
-0.225189
4.4554e-05
-0.00528239
0.11999
-0.259525
0.139536
0.00225389
-0.00423327
0.00197938
-0.00845816
-0.00845709
0.0169152
-0.0430503
0.0364486
0.00660174
-0.160528
-0.224422
-0.189343
0.476035
-0.168021
0.19588
-0.15157
-0.0136232
0.165194
0.00317053
-0.000916646
-0.144508
-0.0636521
0.208161
0.340101
0.0728498
-0.412949
0.0288131
-0.390174
-0.0504558
-0.0334861
0.0839419
-0.109032
0.0599993
0.0490328
-0.0132851
0.154557
-0.158008
0.0720932
-0.118939
0.0468455
-0.035404
-0.241087
-0.415798
0.155901
0.259902
0.118504
-0.239891
0.121388
-0.0129453
0.00448718
-0.0410535
0.0783018
-0.0372483
-0.00298103
-0.00311177
0.0060928
0.12831
-0.0200747
-0.139736
0.145339
-0.149361
-0.124037
-0.0266871
-0.00478035
0.0314674
0.204639
-0.0274964
0.000850368
0.000190558
-0.28564
0.0625367
0.223104
-0.0099679
0.00443007
0.00553783
-0.072142
0.0422773
0.0298647
-0.0793318
-0.06798
0.128294
0.12485
-0.253143
-0.488827
0.443967
0.0448758
-0.162107
0.0210703
-0.0248214
0.105969
-0.0811478
-0.0159242
0.0127047
0.102249
-0.125222
0.129206
-0.415816
0.286618
0.280277
-0.381252
0.10098
0.0770714
-0.35266
0.27559
-0.115352
0.0632102
0.0653836
0.018423
-0.0838066
-0.0475836
0.0438326
0.00375105
-0.23423
0.212994
0.0212359
0.0220896
-0.0193085
-0.0027811
-0.0920139
0.0594996
-0.103071
0.0371192
-0.241451
0.0142446
0.227207
-0.0566913
-0.0440729
-0.159908
0.342632
-0.436349
0.157566
0.278785
-0.0570428
-0.0128973
0.0699401
-0.57499
0.313354
0.261651
0.307774
-0.244974
-0.133342
0.0756013
0.0577409
-0.264845
-0.0477883
0.312636
-0.0010205
-0.0018938
0.00291429
0.172474
0.032165
-0.178034
0.129999
0.0480344
-0.296315
-0.278659
-0.135602
-0.0396409
-0.0039917
-0.00779464
0.0117863
-0.0625294
0.093389
-0.413289
-0.127401
0.283352
-0.155951
0.0606664
-0.107728
0.0470616
0.00707157
-0.00946083
0.00238926
-0.345611
0.422682
0.400855
-0.462229
0.0613751
0.0565484
-0.0374218
-0.15778
0.0878067
0.0699731
-0.0942247
0.12637
-0.0321455
-0.0593287
0.0375037
0.021825
-0.25291
-0.183437
0.0793191
-0.0400181
-0.162148
0.202166
-0.000892868
0.401749
-0.0220941
-0.0372347
-0.0923645
0.0445522
0.0334272
-0.0836974
0.0502703
0.110022
-0.0493555
-0.299594
-0.114401
-0.0160326
0.0586452
-0.127085
-0.179665
-0.0885586
-0.206741
-0.0866817
0.0456282
0.33866
-0.11215
-0.226509
-0.0432591
-0.0664724
-0.029365
0.240865
0.239308
-0.398678
0.122716
0.27597
-0.0819778
-0.0369609
0.0177092
-0.003583
-0.0141262
-0.000957468
0.000340878
0.255031
-0.0134997
-0.24153
-0.00143219
-0.136888
0.00379784
0.00044933
0.34745
-0.139563
-0.207885
-0.063355
-0.0456771
0.173043
-0.190728
0.017685
0.133962
-0.0404417
-0.0935203
-0.0962723
0.0329173
-0.419132
0.119549
0.0427644
-0.0130547
0.180186
0.0987055
-0.278891
-0.0357609
0.114794
0.533292
-0.3576
-0.175684
0.0340849
0.00790519
0.000505948
-0.00841114
-0.390502
-0.0139147
0.404417
0.000681164
-0.0108778
-0.157641
0.181435
-0.0237944
-0.38852
0.236601
0.15192
0.0142991
-0.14072
0.0241843
0.120485
0.0904564
-0.0484378
-0.0420187
-0.00384288
0.021932
-0.0180891
-0.080993
0.037862
-0.0590507
-0.226589
0.257602
-0.1957
-0.00175697
-8.43796e-05
0.00184135
-0.079351
0.0475335
0.0318175
0.40449
-0.252161
-0.152327
0.170258
0.0296647
-0.199922
-0.042758
0.0761851
0.0637309
0.0306161
-0.0350568
0.00836971
0.000596671
-0.00235364
-0.252797
-0.0367428
0.28954
0.238556
-0.207511
-0.0310441
0.00376108
-0.00605329
0.00229221
0.303609
-0.191337
-0.204621
0.060114
0.0921582
-0.0245306
-0.0676276
-0.154355
0.13693
0.0174246
0.254667
-0.0336019
-0.221065
0.0146002
0.00310899
0.266938
0.211019
-0.477956
0.0831513
-0.0933028
0.0101516
0.0431589
-0.0854902
-0.0107958
0.0107958
-0.305272
0.398672
0.270039
-0.164081
-0.105957
-0.350846
0.290228
0.0606185
0.370552
-0.198988
-0.171561
-0.0889305
0.0666717
0.0222588
0.22002
0.150534
-0.0983392
0.148659
-0.0503201
-0.233177
-0.117668
0.0518839
0.134929
-0.186812
0.136942
-0.389738
0.0357434
-0.180008
-0.120571
0.267494
-0.146921
0.0168406
-0.217524
0.200684
0.308421
-0.265764
-0.0426544
0.284536
0.0238876
-0.0235846
-0.164814
0.188399
-0.0481042
0.0120593
0.0360449
-0.00609645
0.00781451
-0.00171806
0.0808949
0.152983
-0.0576316
0.0629259
-0.00529431
-0.133171
0.045303
0.087868
-0.00763056
0.00153412
-0.147286
-0.0287866
0.176073
0.134701
-0.0785261
-0.0561753
-0.0968497
0.215354
-0.0522188
0.0822973
-0.0300785
-0.124478
-0.437183
0.0257795
-0.0163138
0.356416
0.382717
-0.155105
-0.227605
-0.0141474
0.0103045
0.00114148
-0.183602
0.182461
0.458641
-0.0952698
-0.016422
-0.115469
0.131891
-0.14713
0.0487909
0.129613
0.173997
0.180698
0.166754
-0.00177998
2.90833e-05
0.0017509
-0.122502
-0.313785
-0.027139
0.281979
-0.383223
0.101247
-0.00466812
0.00168708
0.00636297
-0.0089815
0.00261852
0.0549039
0.0372543
-0.020139
-0.136983
0.177053
0.00503631
-0.00902801
0.271071
0.289061
-0.235608
-0.106397
0.342007
-0.0147346
-0.0203221
-0.366696
-0.0869476
0.453646
-0.329594
-0.0515436
-0.0034833
-0.00697573
0.298591
0.101478
-0.000760061
0.00866525
0.139871
-0.127147
-0.012724
-0.137193
0.143989
-0.00679647
-0.00303341
0.00939638
0.0166919
0.179082
-0.195774
-0.335544
0.0999384
0.0120905
-0.0400516
0.0279612
0.119868
0.0133238
0.0114588
-0.0449488
-0.0482782
0.346841
-0.209006
-0.137834
-0.343826
-0.0986183
-0.265322
0.157993
-0.0269886
-0.0365941
0.0635827
0.0518217
0.0613629
-0.113185
0.0128133
0.236374
-0.4439
0.388555
0.0553471
-0.223081
-0.0201608
0.0179917
0.0651596
-0.00380491
0.00756598
0.20384
-0.148681
-0.0551587
-0.140756
-0.124565
-0.285798
0.398184
-0.112385
-0.175644
0.0283582
0.102709
-0.072741
-0.0299676
-0.00307854
0.0101501
-0.00760697
-0.00236094
-0.0618471
0.0604237
0.0014234
0.0594629
-0.0758104
0.0163475
0.0664994
0.0175459
-0.0840453
0.00023235
-0.00224385
-0.192743
-0.066141
0.258886
-0.404958
0.275851
0.129112
-0.270648
-0.192484
0.273381
-0.0839919
0.0555604
0.0284314
0.369157
-0.2194
-0.149756
0.181309
-0.00875382
0.00167319
-0.0352413
0.053233
0.142758
0.0199692
-0.0132489
0.0698742
-0.0104113
-0.0110182
0.00382631
-0.210542
-0.0732875
0.283832
0.163967
0.12711
0.183398
-0.310507
0.109704
-0.448518
0.011724
-0.455623
-0.475142
-0.406446
0.153537
0.00369533
-0.00711
0.00341467
0.0559525
0.199079
0.396374
-0.281666
-0.1147
-0.0469688
0.0915973
0.122239
-0.0848966
-0.0373427
-0.31914
-0.0858126
0.154171
-0.236499
0.0823288
-0.097244
0.0214692
0.0757749
0.00812292
-0.0651658
0.022938
-0.180945
0.0572286
0.214381
-0.271607
0.0455076
-0.196213
0.0144082
-0.0207339
0.00340124
0.0173327
-0.0371134
-0.400624
0.201637
-0.000187896
0.00643061
-0.00624271
0.0690638
0.0531756
0.106449
0.266396
-0.372838
-0.000200095
-0.000876213
0.00107631
0.00204104
-0.0030616
0.00102056
-0.000205255
0.00164361
-0.00143835
-0.195464
-0.205157
0.267114
-0.209883
0.00406985
-0.15564
-0.100114
0.107933
-0.00781887
-0.135355
-0.081348
0.216703
0.0187703
0.00331931
-0.067819
0.0408304
0.0162541
-0.0738857
-0.0309226
0.0881581
-0.0572355
0.137104
0.24562
0.0175779
0.122293
-0.0113969
-0.00153399
0.0129309
-0.00206217
0.0138394
-0.032153
0.0183136
0.212291
-0.276907
0.0646161
0.125506
0.0365985
-0.162104
0.0331496
-0.155461
-0.00425083
0.00313996
0.00111087
0.00563137
0.00444393
-0.0871151
0.032222
-0.125168
0.245158
0.0241872
-0.241594
0.376789
-0.0862255
-0.290563
-0.0488941
0.100716
-0.227943
-0.178501
-0.0422025
0.054293
-0.106347
0.139497
-0.0129553
0.0238434
-0.294668
0.228163
0.0665055
-0.274366
0.0512865
-0.425942
-0.0628706
-0.118867
-0.000793746
-0.023364
-0.118403
0.141767
0.0666913
0.0360172
-0.269093
0.381181
-0.112086
0.121591
-0.0672978
-0.0542933
0.0121251
0.0357742
-0.0478993
-0.155487
0.176517
-0.0210298
0.302798
-0.174503
0.210935
-0.126979
-0.0839563
0.185191
-0.167176
-0.0180152
0.487304
-0.249928
-0.237375
0.130168
-0.164077
0.0339091
-0.00520312
-0.173408
0.0179209
-0.0415518
-0.0475972
0.0891491
-0.0343632
-0.294069
0.400524
-0.197507
-0.500417
0.109915
-0.147528
0.0119255
0.187361
0.0673066
-0.11495
0.0889366
-0.299477
0.134732
0.122047
-0.0110999
0.266795
0.142339
-0.409125
0.0187951
0.0798375
-0.0986326
0.186389
-0.195961
0.00957221
-0.0564474
-0.0421243
0.0985717
-0.171651
-0.00638215
-0.0192606
0.00511314
-0.262624
0.0881658
0.174459
0.00654584
-0.00654584
0.132611
0.0275731
-0.160184
-0.0912675
0.153158
-0.0552225
-0.0169195
-0.0116019
-0.0326237
-0.0247608
0.0573845
0.137504
0.0390141
0.193293
-0.192151
-0.394773
0.199311
0.211167
0.111348
-0.322514
-0.129395
0.0762893
0.0531054
0.152065
-0.126967
-0.0250982
-0.0437668
0.132006
-0.0882389
-0.105995
0.0701668
0.035828
-0.00178651
-0.0477406
0.0966098
-0.0488692
-0.356009
0.50586
-0.149836
-0.00021283
-0.00111049
0.00132332
-0.0104107
0.0507264
-0.0403157
0.142174
-0.228581
0.0864082
0.238447
-0.0272787
-0.0588654
0.0776605
0.0109918
-0.00343992
-0.133843
-0.0282637
-0.276548
-0.137559
0.414109
-0.0813803
0.0246656
0.0567147
-0.0959073
0.0543554
-0.143052
0.0632502
0.102843
0.0110262
-0.113869
-0.0377923
-0.00934478
0.047137
-0.162723
-0.0535674
0.0618796
0.0357859
-0.0976654
0.00420854
-0.00464463
0.00043609
-0.0625884
-0.0336839
-0.0425651
0.0985419
-0.0573963
-0.0411456
0.0318261
-0.0822818
0.145904
-0.184848
0.0389446
-0.402064
-0.0590704
-0.103593
-0.318695
0.103287
-0.00209863
-0.0226302
0.019615
0.0153373
-0.0349523
0.00828409
-0.00977502
-0.0106077
-0.0374966
-0.00750648
0.00915051
-0.00164403
-0.00608961
0.00583732
0.000252299
-0.0705732
-0.0108071
-0.0345922
0.182054
-0.00442074
-0.00492745
0.00934818
0.00574474
0.0272235
-0.0329683
0.207914
0.0238153
-0.0477742
0.0239589
-0.00257747
0.00690891
-0.00433144
0.0519848
0.0129354
-0.0649202
0.0822
0.12164
-0.108667
0.402553
-0.293877
-0.193861
0.0311386
-0.213874
0.183668
0.0302071
0.155531
0.0296606
-0.0634647
-0.0595218
0.122987
0.077829
0.260833
0.00371285
-0.00371285
-0.189781
0.166197
0.143114
0.0168126
-0.159926
-0.00212759
-0.00212324
-0.21796
-0.0968275
0.31479
-0.146799
0.123435
0.0366752
-0.0228358
-0.23866
-0.0968814
0.0258994
0.183246
-0.209145
-0.00181472
-0.0017405
0.00355523
-0.114502
0.416515
-0.302001
0.0433972
0.0781939
-0.152329
0.00522896
-0.00408091
-0.00114805
0.186224
-0.0487206
0.127442
-0.141689
0.0142468
0.0901953
-0.193919
0.0481117
0.145807
0.0106833
-0.110798
-0.109904
0.00510619
0.104798
0.0129236
0.00824767
0.107863
-0.120749
0.0128856
0.148271
-0.272259
0.123989
0.0104374
-0.0106876
0.000250244
0.146824
-0.019382
0.00497216
0.0127296
-0.00486443
-0.00786521
0.0434731
-0.0904418
0.0361146
-0.081029
-0.186122
0.138648
0.230468
-0.369109
0.000371316
0.00166973
0.103877
0.107058
-0.0279194
0.158088
0.442779
-0.305406
-0.13737
-0.0544328
-0.00484366
-0.0570034
-0.0211931
-0.0117503
0.0329434
0.00113191
0.000536395
0.00600944
-0.0329139
-0.051078
0.134998
-0.185518
0.0505197
-0.382162
0.273503
0.166234
-0.128223
0.111801
0.108725
-0.0433415
0.328842
-0.200894
-0.127945
0.0337793
-0.066403
0.135646
0.0335742
-0.0376615
-0.454703
0.442489
0.0122339
0.000650273
0.00139055
0.181043
-0.238767
-0.329157
-0.1224
0.0142038
0.108196
0.169294
-0.474698
-0.106129
0.372531
0.00521432
0.00129064
-0.00650496
0.0358746
-0.225994
0.177515
0.0484801
-0.252616
0.363965
-0.0523183
0.106752
-0.0544334
-0.0345956
-0.119227
-0.0254135
0.183494
-0.0216717
-0.0576793
-0.213663
0.230505
0.00578624
-0.0171832
-0.126901
0.0191814
0.107719
0.102333
0.154308
-0.25664
0.0306291
-0.0166248
-0.0140043
0.00157511
0.00178405
0.255523
-0.402285
0.146766
-0.0378198
0.0166267
0.236377
0.280773
-0.331447
0.092789
-0.244135
0.10878
-0.0842571
-0.0153614
0.0996185
-0.000200038
-0.00227842
0.00247846
-0.0340497
-0.123591
0.00057213
0.00363641
0.0320367
0.108747
-0.140784
0.0095012
-0.0269616
0.0174604
-0.0754221
0.0444996
-0.160777
-0.0240708
-0.00729332
0.109539
0.160501
0.0138056
-0.0257903
0.0119847
-0.0744094
0.0166409
-0.0150451
0.00682223
0.00380267
0.0753729
0.170992
-0.246364
-0.0140712
0.0262357
-0.0121644
0.165457
-0.192981
0.0275244
0.00242924
0.130181
-0.0227946
0.0501186
-0.027324
0.019328
-0.0605214
0.0411934
-0.0030855
0.00812181
-0.392394
0.287446
0.104953
-0.00885771
-0.0104028
-0.144393
0.319681
-0.175288
-0.0165088
0.0294324
0.0418023
0.165468
-0.20727
-0.211628
0.105281
-0.174477
0.00730138
-0.344207
0.189156
0.155056
0.198449
-0.499097
0.300667
-0.026637
-0.107114
0.133751
0.0754393
-0.0218008
0.0737856
-0.442365
0.0985451
0.00752702
-0.00773143
0.000204406
-0.184529
0.0237526
-0.240044
-0.10416
0.109589
0.267201
0.0635241
0.0741437
-0.137668
0.0572571
0.0501627
-0.10742
0.0191946
-0.0419892
0.112019
-0.146069
-0.157691
0.36675
0.136124
-0.170655
0.0345311
-0.00719697
0.0154237
-0.129428
-0.328716
0.216568
0.337325
-0.148166
-0.0364889
0.172613
-0.0178525
-0.146032
0.163885
-8.26694e-05
0.00379552
-0.317357
0.0993985
-0.0500459
0.0720594
-0.0220135
0.0484133
0.0614129
0.0482433
-0.058654
5.2617e-05
-0.000257871
-0.00314548
-0.00371312
-0.113012
-0.284384
0.397405
0.0230291
-0.149851
0.126822
0.123212
0.235443
-0.197942
-0.0375001
-0.195321
0.170383
0.0249378
0.0016764
-0.00425387
-0.315373
-0.066893
0.382275
-0.164908
-0.229863
-0.498735
0.21483
0.283923
0.0330002
0.110822
0.0529973
-0.163819
0.250121
-0.101848
0.101971
0.0396947
-0.141666
0.0282983
-0.162141
-0.00302029
0.013814
-0.0107937
-0.00249445
-0.00974436
0.365851
-0.227722
-0.138126
0.170414
0.130567
-0.300981
0.00725905
-0.157192
0.000961966
0.000796361
-0.00175833
0.00261359
-0.00925568
0.000630153
0.00165904
-0.00228919
-0.0603827
0.0382887
-0.0415772
-0.0178445
0.0594218
0.0849858
-0.0453901
-0.0395957
0.0117478
-0.418829
0.05266
-0.117202
0.275219
-0.0950321
0.167671
0.0505505
-0.218221
0.145192
0.2593
-0.0583233
0.020276
0.0287336
-0.0490096
-0.000742491
0.00119633
-0.241892
0.000442496
-0.0176841
-0.0355495
0.0532336
0.100027
0.317338
-0.417354
-0.0683438
0.203342
-0.120141
-0.0269888
0.298734
-0.378696
-0.0277677
-0.141286
0.167186
0.00678261
0.0142122
-0.0084119
0.00530013
0.0925305
-0.14237
0.049839
0.00376985
-0.00685535
0.0847835
-0.0182841
0.00358419
0.00135281
-0.0607322
0.0791552
0.0462083
-0.0138053
0.000733093
0.000142601
-0.000875694
-0.119955
-0.00694572
0.0540247
-0.0418996
-0.0928894
0.0451488
0.00630158
0.00642806
0.219864
-0.301756
0.0818939
0.113665
0.332659
-0.448999
0.116345
-0.0241111
0.0495832
-0.0262223
-0.0233609
0.365198
-0.476522
0.092727
0.383795
0.0973967
-0.00423198
-0.0931647
-0.233627
0.398153
-0.164516
-0.0870575
0.0815675
0.0158272
-0.132755
-0.534018
0.310367
0.223654
-0.0763742
0.0573764
0.0189978
0.190165
-0.281744
0.0915811
0.26364
-0.103873
0.0515548
-0.268134
-0.101063
0.369203
-0.0474571
0.0882169
-0.0407598
-0.0130773
0.0326923
0.283071
-0.109026
-0.174044
-0.243956
0.169966
0.0739914
-0.350322
0.110283
-0.100641
0.0674116
0.0332297
-0.270914
0.400129
0.0618632
0.149377
-0.211239
0.0323172
0.0557481
-0.0880653
-0.13678
-0.157246
0.294026
-0.00117479
0.00138109
-0.000206303
-0.201425
-0.0645483
0.265975
-0.000540338
0.00113701
0.238445
-0.021485
-0.216959
0.0829048
-0.122069
0.0391642
-0.236615
0.328914
-0.092297
-0.00330526
-0.108868
0.112173
-0.149825
0.0296842
-0.34975
-0.0690782
0.169934
0.113137
-0.000916263
-0.000258527
0.234918
-0.262635
-0.00657055
-0.00485092
0.0114215
-0.00843664
0.0113091
-0.00287243
-0.168622
-0.0656079
0.296246
0.237053
0.30222
0.0817908
0.388347
-0.0623382
-0.326003
-0.00137651
0.00659083
0.103764
-0.356379
0.00314466
-0.003685
0.00077073
-0.00122457
-0.0138959
0.101703
0.0017478
-0.00171702
-3.0779e-05
-0.397982
-0.131295
0.226844
0.0839126
-0.310755
-0.0011703
-0.00213597
0.00286906
0.0651893
-0.175093
0.132428
0.223891
-0.356316
-0.146127
0.273238
-0.274164
0.0736676
-0.242521
0.168854
0.0754455
-0.100443
0.0249977
-0.00631219
-0.0173376
0.0236498
0.166858
-0.16591
-0.000947255
-0.00196364
0.00970875
-0.00218173
0.0316436
-0.0766065
0.044963
0.122235
-0.0421001
-0.0801344
-0.277846
0.248249
0.0295975
-0.0112219
-0.000146114
0.011368
-0.00349586
-0.0389887
0.14096
-0.325419
0.088806
-0.276159
0.109017
0.167143
7.63179e-05
0.00147197
-0.00154829
0.141215
0.000403957
0.00482501
-0.0333701
-0.525305
0.341169
0.184138
-0.0598
0.123324
0.18813
0.176584
-0.3647
-0.0516099
0.163629
-0.217452
0.122713
0.0947388
-0.400699
0.167084
-0.105661
-0.281076
0.386747
0.256444
-0.182775
0.00736639
-0.00576904
-0.00159735
-0.0918905
-0.306649
0.398542
0.00523651
0.000483975
0.000874528
-0.096112
-0.180047
0.0596773
-0.32452
-0.0721995
-0.0211033
0.00480071
0.00748906
-0.0122898
0.145083
-0.171225
0.0261424
-0.00176944
0.00497592
-0.00320649
-0.23621
0.111732
0.0811962
0.12477
-0.154814
-0.00694794
0.0025272
0.01998
0.0106491
0.0102486
-0.00484508
-0.00540354
-0.444972
0.0470079
-0.0160237
-0.188645
0.287352
-0.00562443
0.00385499
-0.353184
0.130058
0.22313
-0.0497424
-0.0266318
0.0929915
-0.00754576
0.00616925
-0.103033
-0.291611
0.394647
0.138012
0.31088
-0.448881
-0.0588378
0.0172606
-0.327129
0.0610403
0.26609
0.00732807
3.83216e-05
0.0698259
-0.262567
0.0102665
-0.0243378
-0.175106
-0.111104
-0.270143
-0.0281252
0.135116
-0.0841758
0.0341299
-0.00878801
0.00311913
0.00566889
0.150654
-0.164277
0.164283
0.079426
-0.243708
-0.170135
0.186827
-0.0820927
0.21651
0.112335
-0.0588679
-0.417655
-0.111545
0.0739757
0.0375696
0.27973
-0.130298
-0.149432
0.013537
0.016454
-0.0299911
0.00885288
-0.162584
0.153732
-0.00269292
0.00365488
0.21457
0.0785596
-0.293128
-0.290409
0.394634
-0.10422
-0.0416483
0.0876229
-0.0459745
0.00107548
0.00136293
-0.00243841
0.0232279
-0.0414244
0.0181965
-0.194034
-0.0190934
0.213128
0.0219822
-0.00422099
-0.0633352
0.277908
0.00742421
-0.00328102
-0.00414319
0.139064
0.06907
0.0221911
-0.091261
-0.170832
0.327079
-0.00191775
0.00197036
0.0903095
0.230622
-0.320929
-0.115007
-0.102445
-0.215976
-0.172544
0.332563
-0.235573
-0.0969883
0.27787
0.209435
0.0116272
-0.0245825
0.0529756
0.0341901
-0.0871657
-0.00967811
-0.0104722
0.0201503
0.0656062
0.0566283
-0.194764
0.168647
0.0261179
0.147289
-0.177974
-0.469595
0.150142
0.319458
-0.409819
0.104557
-0.424397
0.309908
-0.166842
0.0392457
-0.0867028
0.25147
-0.209666
0.0126787
-0.00746245
-0.00521622
-0.0574068
-0.0581553
0.115562
0.348472
-0.216041
0.155757
0.0306316
0.00475069
0.00267352
-0.0718538
-0.0575408
-0.0570647
0.167886
0.146663
0.0439414
0.110229
-0.123954
0.0137253
-0.00184114
-0.00702174
0.00886287
0.0905528
-0.11719
0.0205027
-0.014758
-0.0246181
-0.124533
0.110876
-0.117158
0.00628257
-0.0370258
-0.0233569
0.146572
0.221447
0.101152
-0.322597
-0.109816
0.0463515
-0.0847166
-0.0237946
0.298426
-0.0756241
0.0234053
0.0419502
0.0871337
-0.129084
0.00603368
-0.00701498
0.000981299
0.146904
0.132827
-0.0232532
-0.10263
0.0183732
-0.12027
0.0173048
0.102965
0.167468
-0.0419619
0.38838
-0.199881
-0.188499
0.0465097
-0.250705
0.209304
0.0414023
0.0051117
0.00756698
0.220908
-0.22338
0.00247275
0.172404
-0.002685
0.000407239
-0.0305607
0.168127
-0.195132
0.0270058
0.0253578
0.214667
-0.308105
0.0934399
-0.00203759
-0.045546
-0.00243529
0.00222928
0.000206012
0.0896936
0.0583104
-0.0821429
0.0238326
-0.00121298
-0.00122231
0.169141
0.0272513
-0.196392
-0.0959081
-0.210183
-0.0405211
0.0321545
0.151463
-0.183617
-0.15498
0.211462
-0.056482
-0.0219093
-0.0622256
0.0336676
0.028558
-0.07907
-0.16345
-0.0221048
-0.139483
0.161588
0.0184414
-0.322512
-0.13719
0.459719
0.000741111
-0.00847162
0.186552
0.0518925
-0.144786
0.20665
0.0374326
0.0522746
-0.0897072
0.00533977
-0.00552766
-0.109703
0.42732
-0.317604
0.341659
-0.216829
0.0618491
0.085121
0.25487
-0.339987
0.477206
-0.170567
-0.306631
0.0136762
-0.0375828
0.0239066
-0.239472
0.50641
-0.188106
0.020085
-0.28458
-0.114089
-0.065872
0.072151
-0.00627903
-0.392236
0.0981745
-0.000437253
-0.0426131
-0.0304947
0.0241826
-0.153631
-0.0903245
-0.000689726
0.00384427
-0.00315454
-0.326438
-0.115921
-0.178058
-0.0248502
0.202909
-0.0635348
-0.209921
0.273457
0.000993935
0.000815818
-0.00180975
-0.076799
-0.400151
0.40038
-0.000217531
0.122937
0.226511
-0.349445
-0.239919
0.191165
0.0487557
-0.0846516
-0.227486
0.31214
-0.0839689
-0.0493733
2.8913e-05
-0.00022895
0.00350064
0.00913338
-0.00218535
0.00393314
0.0713398
0.278925
-0.350263
0.0432279
-0.213363
-0.109034
0.105729
0.208818
0.00347381
-0.266394
-0.086787
-0.0383946
0.0482097
-0.00171811
-0.00461414
0.00633226
-0.132865
0.141719
-0.0735593
-0.136623
-0.00209624
-0.00912565
-0.325714
-0.208302
-0.304336
0.375677
-0.0211125
0.0114344
-0.00253166
-0.0401682
0.0290326
0.00930773
-0.287151
0.00596085
-0.00672091
-0.0716229
-0.139919
0.211542
-0.126965
0.0425428
0.0844222
-0.378963
0.287075
0.154974
-0.175432
0.020459
-0.287339
0.146657
0.140683
0.0885641
0.0461373
0.119638
-0.0505681
0.108132
0.0386924
0.34832
0.0764657
-0.424782
-0.00525569
0.00693706
-0.00168137
-0.0829043
-0.124452
-0.411492
0.0113511
-0.426692
0.426704
0.0198914
0.201016
-0.217441
-0.109687
0.07647
-0.277894
-0.0535946
0.013543
0.021213
-0.215247
0.0338595
-0.260913
0.0679741
0.19294
-0.0228467
0.000912586
0.000162892
0.174683
-0.387023
0.212352
0.0027629
0.0536365
-0.0563994
-0.0228015
-0.135039
0.157841
0.383911
-0.209217
0.0968377
-0.188105
-0.112948
-0.00521631
0.118165
-0.401629
0.135296
0.266334
0.384833
-0.219512
-0.165318
-0.0925164
0.388679
-0.29616
-0.136292
-0.158376
-0.096508
0.118727
-0.0222185
0.427788
-0.146526
-0.281255
0.0957107
-0.239857
0.144146
-0.122727
0.121295
-0.0703373
0.418661
-0.114762
0.00316073
-0.00973127
-0.0129262
0.0224274
0.0352434
-0.0285533
0.0422295
-0.0274696
-0.0906571
-0.029613
0.0157839
-0.0364343
0.0206504
-0.0186549
0.0493434
-0.0306885
-0.00797845
0.409403
-0.401406
-0.189015
0.239565
0.164783
-0.399497
0.234722
0.0124133
0.0285083
-0.0409216
-0.0268037
0.0564303
-0.0296266
-0.13677
0.105926
0.0308438
0.169527
-0.362578
0.0721754
-0.270592
0.207059
-0.100938
-0.304553
0.405494
0.15574
0.0828166
-0.0451202
0.0314193
-0.00822711
-0.00769711
-0.00755642
-0.00142508
0.0130292
0.0817402
-0.0947693
0.374375
-0.351531
-0.38739
0.516168
-0.128775
-0.0923979
-0.288262
0.380662
-0.0102891
-0.0559474
0.0882647
-0.310778
0.201457
0.109323
-0.00592767
0.00459409
0.00133358
0.279993
-0.139603
-0.0244742
0.255078
-0.144258
0.105688
-0.130369
0.0246806
0.0218646
-0.161467
0.0902422
-0.0528096
-0.150233
0.127432
0.0433953
-0.413019
0.0905251
-0.40295
0.281634
0.121327
0.0955298
-0.0369989
0.0993194
-0.368409
0.325132
0.161876
-0.120219
0.0237108
0.0446806
-0.100066
0.0553856
0.28856
-0.381074
0.0185861
-0.0795058
0.0609197
0.270614
-0.373883
0.103272
0.203979
-0.227612
-0.380907
0.0903558
0.290557
-0.247423
0.198806
0.0572036
-0.0351904
-0.0220131
0.118358
0.0316446
-0.150003
-0.194972
0.0301576
-0.178049
0.106426
-0.00252887
-0.0405903
0.0100634
0.0305269
-0.398038
0.191661
0.206378
-0.104023
-0.0229423
0.136705
0.00724075
-0.00120708
0.0216967
0.0477717
-0.0694684
0.00059884
-0.000735717
0.000136877
-0.0597868
-0.128974
-0.101035
0.111718
0.105238
-0.0479805
0.0394455
0.0692796
0.00684472
-0.00874731
0.0019026
-0.285881
0.408606
-0.119499
-0.263721
-0.120098
-0.208616
0.033001
0.00344758
-0.085583
-8.0273e-05
-0.0126421
0.0127224
-0.170764
-0.0949984
-0.162277
0.237651
-0.000264115
-0.00242089
0.0203992
0.0814287
-0.101828
0.204255
-0.0267402
0.0582746
-0.0444604
0.371733
-0.116206
0.137629
-0.150247
0.0367802
0.0479195
-0.0846997
-0.0341568
0.0724616
-0.0383048
-0.224265
-0.107179
-0.0428173
-0.0463252
0.0891425
-0.109054
0.0814895
0.027564
-0.0157346
0.00681681
0.0089178
0.0272546