/*--------------------------------*- C++ -*----------------------------------*\
| =========                 |                                                 |
| \\      /  F ield         | OpenFOAM: The Open Source CFD Toolbox           |
|  \\    /   O peration     | Version:  v2012                                 |
|   \\  /    A nd           | Website:  www.openfoam.com                      |
|    \\/     M anipulation  |                                                 |
\*---------------------------------------------------------------------------*/
FoamFile
{
    version     2.0;
    format      ascii;
    class       volScalarField;
    location    "100";
    object      p;
}
// * * * * * * * * * * * * * * * * * * * * * * * * * * * * * * * * * * * * * //

dimensions      [0 2 -2 0 0 0 0];


internalField   nonuniform List<scalar> 
18758
(
0.003079
-0.00321349
0.00364779
0.00296869
0.0078039
0.000612885
-0.00202171
-0.00653658
0.00770469
0.00761821
-0.00162821
-0.0326728
0.00954934
-0.0159341
-0.00167054
-0.000655106
-0.026939
5.66114e-05
-0.0016322
0.00411639
-0.0171133
-0.01286
0.000693125
0.00146276
-0.00979458
-0.0106654
-0.0485082
-0.0051841
-0.0237546
-0.0111134
-0.0752883
-0.0426368
-0.00648882
0.0153671
0.00798173
-0.0133718
0.00931929
0.00775552
-0.10341
0.000659772
-0.0280845
0.00763428
-0.00370138
0.00435638
0.000669148
-0.0367871
0.0074774
-0.0222661
-0.0942165
0.00338337
-0.00223717
-0.0268968
0.00314652
0.00645037
-0.0269554
0.00942867
0.00364916
0.00385692
-0.02133
0.00364011
0.00102904
0.00438261
-0.031307
-0.0215082
0.00114469
0.00275527
0.00342174
0.00236547
-0.00361091
9.51679e-05
-0.0271103
-0.0112105
0.000448612
0.00525209
0.0195385
-0.0636493
-0.0189688
-0.0180035
0.00770825
-0.00115452
-0.0326034
-0.0907888
-0.0181118
0.0131952
0.00440694
-0.0327235
-0.0314908
0.00572114
-0.0343357
-0.0352358
-0.0403515
2.93289e-05
-0.0389993
-0.0859288
0.000419184
0.00342911
0.000409894
-0.0259397
-0.0262486
0.00260649
-0.040284
0.00887048
0.00231984
0.00344161
0.00546517
-0.0139794
-0.0225917
-0.0385208
-0.0173274
-0.0171483
-0.00106791
-0.024624
0.00535556
0.00370696
0.00941677
-0.0176128
-0.0251559
0.00349298
-0.0297267
0.00430111
0.00370737
-0.0219426
0.00438439
0.00391009
-0.17635
0.0065034
0.00429555
0.0039132
-0.0219111
-0.186954
-0.0220653
0.00253307
-0.00732725
0.00292626
0.000557896
0.00360478
-0.0300218
0.00430614
-0.02158
-0.03189
0.00539912
-0.0354915
-0.0301746
-0.0197622
-0.182602
-0.0418363
0.00769757
-0.0222821
-0.0012193
-0.102812
-0.194998
-0.159783
-0.00983199
0.00767234
-0.0250931
-0.0246415
-0.0381565
-0.0210261
0.0152479
-0.00383264
-0.0360497
0.0040244
-0.0835315
0.0102804
-0.00539579
0.00356507
0.00400352
-0.0494052
-0.192015
-0.0440086
-0.134789
0.00362142
-0.0232523
-0.000616759
-0.0195165
0.00369161
0.000251169
-0.00554147
0.0132576
-0.0175807
0.00211325
0.00633558
-0.0271431
-0.0218361
-0.113519
-0.00430818
-0.00941798
0.00962313
-0.0783624
0.0135818
-0.153961
-0.00417857
-0.00557126
0.00264455
0.0015377
-0.0202454
-0.0238477
-0.00953629
-0.0702822
0.00223332
0.00374906
-0.0234153
0.0248418
-0.00069621
-0.00110561
-0.075583
0.00447167
0.00781837
-0.192605
-0.17399
0.00243381
-0.0354724
0.00374475
0.00527853
0.00337683
0.000485047
-0.00132698
-0.036529
0.000689074
-0.0265856
0.00542299
0.00388853
-0.0292786
-0.023635
0.0237884
-0.000331669
0.0208715
-0.0419446
-0.0378446
0.00443301
-0.0140634
-0.0405512
-0.0167024
0.00363361
0.001495
0.00388169
0.0156702
-0.113353
-0.0267426
-0.00535873
-0.00126427
0.015091
-0.0185176
0.00304795
-0.108533
-0.0390945
0.00132751
0.00378078
0.00365393
0.00271556
-0.130585
0.00431447
0.00166208
0.00387496
0.000462605
-0.0392001
0.00358626
-0.00956343
-0.00178594
-0.0412926
0.00560025
0.0039489
0.00126151
-0.00506888
0.00277248
0.0014511
0.00397108
-0.0210612
-0.0101231
0.00400552
-0.0238469
0.0101566
0.003851
0.00435108
0.00190558
0.00307679
-0.0136148
0.000666484
0.00532049
-0.0153775
0.00375383
0.00244436
-0.00175015
0.0115671
-0.00192083
0.0043201
0.00021099
-0.0192523
0.00350444
0.00347418
0.00309957
-0.016869
0.00365727
0.00303115
0.00287721
0.00371404
-0.00225804
3.72236e-05
0.00151137
-0.175403
-0.0232554
0.00362569
0.00357039
-0.0648732
0.00233731
0.00206845
0.0033646
-0.0104927
0.00436948
0.00990762
-0.00186403
-0.00510357
-0.023724
-0.015349
-0.0248587
0.0171976
0.00223849
-0.045951
-0.0246114
0.00328847
-0.014683
0.0144718
-0.0998199
0.00207555
0.00227681
-0.178557
-0.00165074
0.00405914
-0.163103
0.0134303
0.00567219
-0.00823832
0.00205031
0.00358698
-0.00188755
0.00369727
0.00326891
0.00365755
-0.00707422
0.00453673
0.00297719
-0.00638135
-0.00432032
-0.0697859
0.00427641
-0.0512301
-0.0263151
0.00403446
-0.0307429
0.00224214
-0.0221467
-0.0266396
-0.01499
-0.00431658
-0.148506
-0.0548972
0.00888039
-0.00649838
0.00588158
0.00539936
0.00434708
-0.0265464
-0.00210299
-0.0162587
0.0225742
-0.00460504
0.00142648
-0.0254717
0.00655723
-0.0242956
-0.10609
-0.0189687
-0.0197221
0.00901463
-0.0284739
-0.0147499
0.000323568
-0.00172287
-0.0221237
7.41143e-05
-0.0127923
0.00340829
0.00144985
-0.0172022
-0.0229836
-0.0157381
-0.0237559
-0.16963
-0.00573668
-0.0393925
-0.0207501
-0.000789554
-0.0137146
0.00394034
0.00452365
0.00378057
0.00546061
-0.00561301
0.00246598
0.00324491
0.00351596
0.000236063
-0.0833748
-0.0331609
-0.0815048
-0.0789584
-0.198451
-0.0659296
-0.0227303
0.00366645
0.00138928
-0.00732918
-0.0132484
-0.00466085
-0.0250912
-0.0234864
-0.00464523
0.00361326
-0.00641255
0.000825924
-0.0234146
0.00185147
-0.0496978
-0.00253795
-0.0320477
0.00290179
-0.0164923
-0.0420452
-0.00202933
0.00454776
0.00223296
-0.0164553
0.00264973
0.00301442
-0.00938186
-0.0341397
-0.0050187
0.000242774
-0.00482058
-0.0048326
-0.0367987
0.0034791
0.00106096
0.00156282
0.00180844
0.0036657
-0.0435985
-0.00380808
-0.0691543
0.000870081
-0.0041756
0.00343824
-0.0167019
0.00357551
-0.00542423
-0.130949
0.00165303
0.000202574
-0.0247164
0.00659737
-0.000732824
0.00342899
-0.00232492
0.00634245
-0.0451092
-0.010091
-0.0185431
-0.0132539
-0.0106261
-0.0243045
-0.0403984
-0.0244333
0.00342158
-0.0225835
0.013898
0.00445787
-0.00588739
-0.0301543
0.00433692
0.00543565
0.00355286
-0.00193401
0.00361711
-0.00371458
0.00362795
-0.00344498
0.0111749
0.00361635
0.00162228
-0.0450041
0.00232377
0.0033958
0.000897464
0.00649398
0.00478823
-0.0185852
0.00449306
-0.00172328
0.000150459
-0.0317371
-0.0211227
-0.0545782
0.00843512
-0.00134639
-0.00447263
-0.0489824
-0.00454482
0.0043039
0.00363947
-0.00350607
0.0100418
0.000157408
5.31175e-05
-0.0609863
0.00303783
-0.0303512
0.0046875
0.0045442
-0.0175751
0.00379774
0.00359138
-0.000313987
0.00115893
0.00440767
0.000598689
-0.0371059
0.00220388
-0.00393084
-0.0155392
0.000159154
0.0021936
0.00365942
-0.019672
0.00886177
0.00196315
0.00250006
0.0199497
-0.00234249
0.00449917
0.00415946
0.00352821
0.00368911
-0.0097256
-0.0096679
-0.147548
-0.114717
0.00374003
0.00437146
-0.0162897
-0.0441295
0.00189192
0.000433185
-0.00339783
0.00167972
0.00427411
0.00414052
0.00315227
-0.000628924
-0.0207919
0.00237412
0.000683196
0.0095626
-0.0585249
0.00557769
0.00428941
0.00320439
0.00346832
-0.00032743
0.00425314
-0.000251097
-0.000409532
-0.0172685
-0.0225823
0.00325447
-0.0313337
0.00429747
0.00211074
-0.0394366
0.000194627
0.00115448
-0.0529098
0.00355136
-0.0204028
0.0224392
0.0036
-0.003403
-0.0579101
0.003455
0.0114958
0.0033187
0.00326326
0.00353628
0.0124764
-0.00320569
0.00882414
0.00361983
-0.0455477
-0.0300902
-0.0203869
0.00380691
-0.176981
0.00149139
0.00247376
0.00191235
0.00373703
0.00689833
0.00673145
0.00389321
-0.0208395
0.00435743
-0.00351927
-0.00210134
0.000544227
0.00283716
-0.0216158
-0.123072
-0.00829561
0.00604939
0.00398717
0.00348704
-0.0216683
0.00324343
0.0040188
0.00193829
0.00395435
-0.0099832
0.00597098
0.00235255
-0.0462969
0.006386
0.0068518
0.00204532
0.00377612
-0.0042294
-0.0167416
0.000840617
-0.027348
-0.164831
-0.151844
0.00233183
0.00109586
0.014219
-0.0175058
0.00141566
0.00326627
0.00333342
0.00246882
-0.0297499
-0.00211803
-0.0100965
0.00445949
0.00368119
0.00453134
0.00443492
-0.0381795
-0.0306492
0.00523515
0.00430305
-0.0259335
0.000498248
-0.0292108
-0.0432054
0.00347289
-0.0276499
0.00455951
0.00432151
-0.0293087
-0.0010145
-0.00129561
0.00312764
-0.00326268
-0.0365352
0.00226933
-0.00601085
-0.193798
0.00875014
0.00386092
-0.047949
-0.0210936
0.0181524
-0.013675
-0.0417644
-0.00884243
-0.036203
0.0022617
-0.0261648
-0.0239819
0.00366932
-0.0170451
-0.0174808
0.0109188
0.00596582
0.00331254
0.00159753
-0.00702365
0.00371679
0.00943437
0.0196787
0.00434741
-0.0205204
0.00668102
0.00406436
-0.0294686
0.00196248
0.00167149
-0.00164084
0.00397896
-0.111885
0.00373834
0.00542215
-0.00272478
-0.040887
-0.0486023
-0.00478811
0.00362528
-0.00646932
0.00311212
-0.0190176
-0.0242298
0.00328581
-0.012466
0.00422904
0.00150366
-0.0485324
0.00194855
-0.00129753
-0.0236713
-0.0177172
-0.0290532
0.00208782
0.00567124
0.0055834
-0.0246148
-0.0251528
-0.00418651
-0.0179862
0.00170232
-0.000675873
0.00365374
-0.0117349
0.00328298
-0.00909293
0.00608512
-0.0086026
-0.00124132
0.00102447
-0.00540613
0.00397696
-0.00464399
-0.0244653
-0.0865059
0.00395551
0.00396008
0.00366277
-0.0299718
0.0088986
0.00659357
0.00372032
0.00252946
-0.00870314
0.00376884
-0.0328176
-0.0239742
0.000440873
-0.0283044
-0.011378
0.00165832
0.00234669
-0.00489361
-0.00668877
0.000470942
0.0034462
-0.0243402
0.00420814
-0.0225246
-0.00359292
0.00982047
0.00286755
-0.0243085
-0.0233701
0.0104728
-0.0251978
0.0013433
0.00419002
-0.0233382
0.00243994
0.0176955
0.00301422
0.00288617
0.00448298
-0.104938
-0.00594629
0.00395446
-0.00101227
-0.00304835
0.000948996
0.00446418
0.000415418
0.00360263
-0.0209365
-0.00160169
-0.00352029
-0.0230035
0.00384197
-0.0424382
0.00137641
-0.000635996
-0.0919049
-0.0393735
-0.0915555
0.000105916
0.00285121
0.00375984
0.00392195
0.000586473
0.00358556
0.00347748
-0.00713033
-0.0237547
-0.0220392
-0.00127382
0.00364176
0.00261531
-0.00277398
0.000841971
-0.00572602
0.00246201
0.00524689
0.0034092
-0.099159
0.0114889
-0.0514748
0.00350953
-0.022742
-0.0228215
0.00296262
-0.109867
-0.0315709
0.00213724
0.00183268
0.000617823
0.0164186
-0.0025571
0.0025707
-0.0146547
-0.0321612
-0.000118494
0.00302382
-0.00684321
-0.00203879
0.0011282
-0.00230124
0.00447793
-0.00153709
0.00655372
-0.0146725
-0.000199761
-0.00235285
-0.0540984
-0.105297
-0.00142227
-0.0320914
-0.000733533
0.00392704
0.00382231
0.00392315
0.000165677
0.00430048
0.00391512
0.00340375
-0.00928729
0.00636939
-0.00400097
0.00812851
-0.0127232
0.00340585
0.0045519
-0.081208
-0.00919447
0.00252122
-0.023906
0.000355638
-0.0172979
-0.0235182
-0.00376306
0.00321505
0.00397335
0.00476199
-0.041789
0.00345974
-0.0433614
-0.00624795
-0.0226006
-0.0288385
-0.00304367
0.0104688
0.00225407
-0.00411421
-0.0174106
0.00426431
-0.0181185
-0.0410307
0.00457928
-0.0220796
-0.0190441
0.00221436
-0.0292221
0.00251663
-0.00211984
-0.0102601
0.00577379
0.00331513
0.00368715
0.00100789
0.00431944
-0.0306352
0.00418342
0.00067118
0.00325928
0.0120407
0.00462153
0.00376703
-0.0136945
0.0260405
-0.0165148
-0.0345103
-0.0355592
0.00365286
0.00182893
-0.00394275
-0.0442068
0.00379526
0.00389339
-0.016026
0.0033935
-0.0208582
-0.00359001
-0.00702638
0.0150082
0.000718905
-0.0437305
-0.0483685
0.00177941
-0.000119613
-0.0249668
0.00326442
-0.199447
-0.0844718
0.00376356
-0.00526672
0.00977313
0.00367705
-0.016777
-0.0187732
0.00143789
-0.0277023
-0.00208037
0.0044101
-0.00149259
-0.000753451
0.00592594
-0.0469607
-0.00230316
0.00189974
0.00384375
-0.0188345
-0.0410571
0.00544722
0.00418236
-0.117059
0.0232676
0.0013803
-0.121966
0.00369595
-0.053729
-0.0505645
0.00388249
0.00364305
-0.00338976
-0.0203474
0.00389752
-0.0338032
0.00417955
0.0136087
-0.0315487
0.00348552
0.00145357
-0.000185351
-0.0203786
-0.0222212
0.00353459
-0.054372
0.00228877
0.000514682
-0.0318015
-0.00284153
0.000761832
0.00381705
-0.0138409
0.00213594
0.00386131
0.00182644
0.00393231
0.00130505
0.00541501
0.00789999
-0.0141031
0.00505145
-0.00154088
-0.0347026
-0.00249261
-0.0447766
-0.00333484
-0.0253041
-0.0205988
-0.00565379
0.0036168
0.00367797
0.000922232
-0.0373222
0.00114786
-0.0448409
0.0173068
-0.00367576
-0.0288333
-0.00240637
0.00370369
0.00489124
0.00429101
-0.0308973
0.00364757
0.00252632
0.00290097
-0.0166525
-0.0162185
-0.0485716
0.00337331
0.00311929
0.00375423
0.00487332
0.0008447
0.00363873
0.00150045
-1.98597e-05
0.00345219
0.00355499
-0.0202126
-0.0297863
0.00320494
0.00342577
0.0107972
0.00584766
-0.05163
0.00923692
-0.00778991
-0.0658889
0.0030888
0.0035584
0.00357492
-0.00379009
0.00656692
0.00352767
-0.0176085
-0.0038569
0.00423015
0.0125824
-0.0289221
-0.14718
0.00934629
-0.00669154
-0.00581463
-0.055435
0.00336565
0.00328065
-0.0206746
0.00386903
0.00341532
0.00353846
-0.156506
-0.0259213
0.00380334
0.00358859
-0.0146278
0.0039377
-0.00541293
-0.025228
0.00304944
0.00945392
0.00399449
-0.00938575
0.00403394
-0.0449914
-0.0126824
-0.00182196
-0.0371461
0.00142978
0.00337855
0.00272218
-0.0113391
0.0037566
-0.0068799
-0.0229501
-0.052933
-0.0122288
-0.0440582
-0.00378206
0.00374362
-0.0324652
-0.043476
0.00283594
-0.0157643
0.00321314
-0.0058873
-0.0115645
0.00573073
0.0205397
0.0104067
0.00331255
0.00361699
0.0148108
0.00404001
-0.00357035
0.00352032
0.00180765
0.00267893
-0.0307039
0.00317751
-0.0165241
0.0146979
0.00214856
0.00258712
-0.0155017
0.0054895
0.00227767
0.00805731
0.00479554
0.00370912
-0.0213117
-0.00111247
0.0090217
0.00260792
0.00342011
-0.00481026
0.0040117
-0.0252864
0.00281143
-0.0457
0.00039549
-0.103997
0.00483754
-0.0903361
-0.0381531
-0.0271095
-0.0307873
-0.0441127
0.00759587
-0.00192948
-0.0224069
0.00943644
7.42462e-05
0.00102271
0.00353173
0.0144233
0.00316964
0.00263776
0.00305509
-0.0594874
-0.0571721
-0.0349127
-0.0295849
-0.0435251
0.0056224
0.00539911
-0.0021092
-0.0417383
-0.0355981
0.000463863
-0.0128554
-0.0738828
-0.140757
-0.168143
-0.00507112
0.00958921
0.00188796
-0.201516
-0.0123244
-0.0142527
-0.0119185
0.00915122
-0.0212777
-0.0226173
-0.00505114
0.000312238
-0.024828
-0.000294664
-0.0225612
0.00458656
0.00358584
0.00513012
-0.00357928
-0.00311012
-0.012898
-0.00784614
-0.0223527
0.000607129
0.00235253
-0.000734992
0.0187827
-0.158147
0.00187958
0.00907613
-0.0349493
-0.016026
-0.000907436
-0.029668
-0.0301382
0.00141209
-0.00238887
0.000836303
0.00374151
0.00441213
-0.0183331
0.00387872
0.00388236
-0.028023
-0.0499495
-0.0199835
-0.00161345
-0.00273484
-0.010484
0.00298265
0.00419266
0.00315402
-0.000631811
0.00335984
-0.0650859
0.00384588
0.00371354
-0.0306104
0.00434191
0.00227456
0.00298072
0.00153369
-0.0122896
0.00393867
0.00307029
-0.00697914
-0.0341958
0.00442572
-0.00322664
-0.0286529
-0.0442165
-0.0222152
-0.00754583
0.00381715
0.00331367
-0.034736
-0.0137516
0.00391292
-0.00615512
-0.00460373
-0.0499308
0.000123688
0.00381771
0.00373495
0.00426937
0.0046745
0.00232337
0.00555467
0.00542644
-0.00317044
-0.000274478
0.00115441
-0.0174079
0.0043993
0.00394404
0.00380655
-0.0060239
-0.0372687
-0.0333773
0.0183972
-0.0394881
0.0118587
-0.036793
0.00453283
0.0092285
-0.0231798
-0.145949
0.00301155
0.00492338
-0.000412859
-0.0247149
0.000415733
-0.0210381
0.00223913
-0.0022401
0.000642203
-0.030938
-0.0225078
-0.0645649
-0.00877453
0.000245131
0.00352948
0.00334952
0.0066374
-0.00394245
-0.0396736
-0.014878
0.00582094
0.0050267
0.00113896
0.00214281
-0.0980146
0.0256641
0.00178679
0.00332977
-0.0108577
0.0033391
-0.00398396
0.0037175
0.00462872
-0.00661026
0.0037484
0.00395854
-0.0029012
-0.0197746
-0.0166304
-0.00309997
-0.0103179
-0.0265619
0.00442777
-0.0208023
-0.0106527
-0.0369472
0.00121106
0.00279379
0.0096605
-0.000131118
-0.141607
0.00460036
0.00866875
-0.000541603
-0.000135501
0.00387224
0.00230202
0.0211704
-0.00266529
-0.0201949
0.0203745
0.00385779
0.00442197
-0.00857815
-0.0218077
0.00138408
-0.0316287
-0.00730303
-0.0291987
0.0204121
0.00361216
-0.00116853
-0.174209
0.0065733
0.0028636
0.00166591
-0.0223543
0.00378251
0.00378674
-0.101373
-0.0192589
0.00529077
0.00557046
0.00382329
-0.0359189
-0.0260383
-0.19744
-0.0323821
-0.00147202
0.0034985
0.00283052
-0.00343408
0.00368782
-0.0119072
0.00366367
0.00383918
0.00307051
0.00426422
-0.0300374
-0.00154816
-0.199725
-0.0119207
-0.026203
-0.0386238
0.00459568
0.00376039
-0.0391903
-0.0406553
0.0036835
-0.0261889
0.00296757
-0.0131502
-0.0205739
0.00468234
0.00382509
0.0070201
0.00561827
-0.00176932
0.0024877
0.00256305
-0.020496
0.00450368
0.000861057
-0.00115195
0.00490914
0.0006323
-0.00257081
0.0030549
0.000275583
0.00192826
-0.0245885
0.00301998
0.00432731
0.00573671
-0.0441048
0.0017286
-0.027796
0.00961665
-0.0241882
0.0030068
0.00200565
-0.105273
0.00508511
-0.00689736
-0.0209661
0.00383574
0.00383761
0.0040022
0.00295782
-0.0114124
-0.0283335
-0.0387072
-0.00253151
0.00289276
-0.00294794
0.00366583
-0.00141356
-0.00453121
0.0181574
0.00225332
0.000185419
-0.0230448
0.00376758
-0.00701854
-0.00155954
-0.0326666
-0.146673
0.00651211
0.00598063
-0.0201628
0.00920106
-0.0345903
0.0036032
0.00340503
-0.0192915
-0.0269747
-0.0358755
-0.00524149
0.00361673
-0.00288747
-0.0342945
0.00351553
0.0027417
-0.00798887
0.0039241
0.00335948
-0.00381271
0.00382498
0.00652112
0.00128325
0.000442806
-0.00102272
-0.0149001
0.00379966
0.00337296
0.00384683
-0.0212471
0.0037468
0.00454475
-0.0522049
-0.028442
0.0191331
-0.0303308
0.00431872
0.0034325
0.00433958
0.00382718
0.000460747
0.00250755
0.00320974
0.00452975
-0.00729153
0.0045655
0.0034437
-0.0110218
0.0103801
0.00241143
-0.0770515
0.00421424
-0.0144032
-0.0142602
-0.0964697
0.00669623
-0.0126301
-0.0267772
0.00624635
0.00157294
-0.0247219
-0.000340482
0.0037155
-0.021107
-0.0328992
0.00155924
-0.00771584
-0.0205632
-0.0200099
-0.00415496
-0.000618228
-0.0225218
-0.000295556
0.0006625
-0.0201284
-0.00211322
0.00363331
-0.0288873
0.0120526
0.00194119
-0.00513989
-0.011813
0.00374689
0.00873477
-0.0499852
-0.00703569
0.00914233
0.00649158
0.00371449
0.0199349
-0.0139956
-0.0261016
-0.0510354
0.00190466
0.00487394
0.00223587
0.00320549
-0.0222392
-0.00423386
0.00223407
-0.0202716
-0.00719059
0.0228662
0.000634762
-0.0812783
-0.017027
-0.0155056
0.00141301
0.00428901
-0.0149919
0.00121297
-0.038908
-0.0594477
0.00868881
0.00149886
0.0129364
-0.0137057
-0.0988697
0.00370804
0.00378402
-0.0355378
-0.0201384
0.00254939
0.00100016
0.0100805
0.00542666
-0.00577338
-0.00173945
-0.00205018
0.00641153
0.00154607
0.0179777
-0.0179106
0.000816715
-0.0387564
0.00141564
-0.00684445
-0.0328028
-0.0135966
0.0052562
-0.0203337
0.00377376
0.00366067
-0.00784314
-0.15161
-0.00353691
0.00246595
0.0027977
0.00179479
0.0252229
0.0186807
-0.00691555
-0.021389
-0.0496531
-0.00982974
-0.0238627
0.00361099
0.00272262
-0.00745752
0.00131434
0.00128214
-0.00696832
0.00256876
0.00352368
0.00367874
0.000853839
-0.018938
-0.000974925
0.00678862
0.00597327
0.00345712
-0.00685605
-0.147451
-0.000797484
0.00363498
-0.00291845
0.00534826
-0.00415435
-0.00201777
6.63057e-05
-0.0394778
0.00432914
0.00315643
-0.00218354
0.00317175
-0.0102677
0.00382851
0.00522483
0.00667275
-0.0040396
0.0183755
0.00317096
0.00416094
8.5539e-05
0.00395094
0.00375907
-0.000361268
0.010569
0.0114938
-0.00305329
-0.0123594
0.00279742
0.00268284
0.00912061
0.00331832
-0.0922348
0.00371355
0.000384495
-0.0268626
0.0053377
-0.0630803
0.00374478
-0.0134667
-0.00511201
0.00366025
-0.0334217
0.00240115
0.00283319
-0.0129086
-0.0807304
0.00320413
0.00120141
0.0190377
0.00431111
-0.0270661
0.00367865
-0.00824181
-0.0411286
-0.0212515
0.00905824
-0.1556
0.00422865
0.00377984
-0.0026657
0.00479691
-0.00781359
-0.00507173
-0.00216582
0.000379954
0.00364735
0.00381324
0.00425118
0.00382613
0.00893633
-0.0080465
0.00379124
0.00664444
-0.0947619
-0.0143831
-0.0406223
-0.00766946
0.00774879
0.00363981
-0.030487
-0.0368099
0.0108875
-0.153142
0.00106744
0.00921745
0.0017274
-0.0232766
0.00382174
-0.0190137
-0.0157392
0.00371841
-0.00211163
0.00329917
-0.00540419
-0.0105205
0.00382953
-0.00617324
0.00341895
0.00351579
-0.186304
0.000782714
-0.000906968
-0.0151814
0.00422104
0.00225338
-0.00674868
-0.00310672
0.00506327
-0.00394983
0.000184672
-0.0624633
-0.0291761
0.014032
0.00299367
0.00159364
0.00175666
0.00256275
0.00250101
0.0122427
0.00237831
0.00375174
-0.00201513
0.00292462
-0.022514
-0.00246482
0.0132994
-0.0446889
-0.0282538
-0.0390393
-0.00670666
-0.0635874
0.00538103
-0.0256608
0.00371168
-0.00880845
-0.00331126
-0.00254362
0.00176131
0.00661414
-0.0211767
0.00269036
0.00343002
0.00832282
0.00117292
0.00705058
-0.0349518
0.0103316
0.0037251
0.00535909
0.0265058
0.00336183
-0.0689204
0.00271831
0.00543052
-0.00105483
0.00376644
0.0081673
-0.0312446
0.0114545
0.00378159
-0.00586346
0.0030194
0.00453334
0.000618604
0.00263171
-0.0170792
0.00376402
-0.0121329
0.00107753
-0.0283451
0.000463387
0.00440159
0.00385685
0.0101785
0.00431903
-0.0377774
0.00209913
-0.03143
-0.0117142
0.00277174
0.00399173
0.0038441
0.00171451
-0.0139913
0.00363107
-0.0957042
0.00715173
0.00952372
-0.00734987
-0.00277464
-0.00566803
0.000916902
0.00374419
0.00658992
0.010125
-0.0269709
-0.00325217
-0.0674779
-0.00573017
0.00601341
-0.0222667
0.00136439
-0.0023772
0.000270745
0.00324604
0.00975691
-0.00779775
-0.0111233
-9.21726e-05
1.89077e-05
-0.0318188
-0.00130352
0.0100042
-0.00873028
-0.0283368
0.00380486
0.00546038
-0.00186486
0.00379533
0.00229385
-0.0141272
-0.0379969
-0.012601
-0.000364153
-0.00387826
-0.00517159
0.00257235
0.00413434
0.00381031
-0.00775269
-0.00164038
0.00272439
0.00391275
-0.0340884
-0.0159642
0.00971583
-0.0152697
0.00384231
0.00415757
-0.0862989
0.00335131
0.0182471
0.0151205
0.00128253
-0.04164
0.00374126
-0.139521
0.00383141
-0.0225373
0.000695824
-0.00501588
0.00758488
0.00685346
-0.0147409
0.00322714
-0.00522452
-0.0209202
0.000820249
0.00140769
-0.00335538
0.00376515
-0.00321826
-0.0132458
-0.0342172
0.00548365
0.00411279
0.0071583
0.00537576
-0.00956387
0.00284838
-0.0205626
-0.0165895
-0.00289709
0.00461277
-0.00193247
0.00382095
-0.0329971
-0.0189569
-0.029413
-0.0529244
-0.0268361
-0.0191646
0.00282914
0.000951147
0.00212343
0.00100524
-0.00145452
0.000714472
-0.0361699
0.00238262
0.0043971
-0.00287343
0.0127444
-0.000560901
-0.155638
-0.0206118
-0.0053379
0.00242235
-0.057221
0.00375226
-0.0250334
0.0209516
0.00447682
-0.00402569
-0.0221375
-0.0310016
0.00414293
0.00330045
-0.0274469
0.0165094
-0.0214638
-0.0108932
-0.0294378
-0.0194472
0.00858674
-0.0115167
0.00312625
-0.0280356
-0.0157355
-0.0485783
0.00344346
0.0228335
-0.0393957
-0.0414325
-0.00602425
-0.0104145
-0.00863054
0.000937896
0.00321761
-0.0016963
-0.026975
-0.00211225
-0.027777
0.00844802
-0.0222484
0.000152353
0.00708454
-0.06507
-0.0190164
-0.0292242
-0.0179077
0.00380801
-0.0275056
-0.00337656
-0.00814285
0.0166085
-0.0219634
-0.0270405
0.0148108
-0.0102662
-0.00245852
-0.0342319
0.0021435
0.00334852
-0.0334951
-0.00178659
0.000828093
-0.0417447
-0.0251631
0.00368284
-0.0235691
0.00343737
0.00383939
-0.0180449
0.0028242
-0.0148585
0.00102352
-0.00929266
-0.114163
0.00554029
-0.0204498
-0.0270441
-0.0145213
-0.0199167
0.00416575
-0.0148504
-0.0238934
-0.0176284
0.00554462
0.00345495
0.00719535
0.00232622
0.000961426
-0.0117427
0.00232821
0.0039858
0.00617043
0.00554407
0.0023857
0.00328441
-0.0272304
-0.0466356
0.00350318
-0.000113815
-0.0220201
0.00147112
0.00208879
0.00222831
0.00379335
-0.0204258
-0.0180645
0.00758526
0.00577964
0.00214673
0.00267324
-0.050498
-0.0268319
0.00142733
0.00383088
-0.0079576
-0.0106518
0.00250916
-0.0345247
0.0157385
0.00727406
0.00401468
-0.0257156
0.003325
-0.00174176
-0.0256499
-0.0345164
-0.0229378
-0.0174886
0.00336984
0.00376804
-0.0173397
0.0200139
-0.0504897
0.00387773
0.00235866
0.00266274
0.00302071
-0.0117272
0.00366356
-0.0303435
-0.0132181
0.00433024
0.00194805
0.00832932
-0.0272746
-0.0275545
0.00333659
0.00438584
-0.0330067
-0.00886464
-0.026617
-0.0110847
-0.018762
0.00595521
-0.0113051
-0.0149411
0.00139526
-0.0213687
0.00363762
0.00329458
-0.0090478
0.00311865
-0.0455781
0.0216352
-0.00335777
-0.00916188
0.00319139
0.00333744
-0.00592392
-0.0189507
0.0042875
0.00665564
-0.00437015
-0.00536394
-0.00545407
-0.0582857
0.00373551
-0.0183512
0.00331968
0.00344572
-0.014223
0.00280906
0.0172442
0.00385923
-0.0210132
-0.0157939
0.00385692
-0.0241391
0.00385047
-0.139653
0.00636741
0.00108674
-0.202798
0.00343807
0.00117961
-0.0182393
-0.0182208
0.00382911
-0.178415
-0.0465315
-0.0146338
0.00177119
-0.00260905
0.00726836
0.0146729
0.00380075
0.00844198
0.00521859
-0.0530147
-0.0516012
-0.00172822
0.00326277
-0.0180127
0.00386821
-0.00685147
0.00442528
0.0025473
-0.0207498
-0.0165568
0.0108336
0.00223055
0.00325437
0.00331909
-0.00223055
0.00374313
0.00530107
0.00562994
-0.00353134
-0.0311463
-0.0126078
0.00372162
-0.0392351
0.00733034
-0.0317635
-0.0482517
-0.0232613
-0.0286946
-0.0403174
0.00371678
-0.0400146
0.0019794
-0.0105291
0.00372641
-0.00432442
-0.00430442
-0.0144923
-0.0021875
-0.00129321
-0.0218415
-0.0142609
-0.0472601
0.00176963
0.00402613
-0.0594967
0.00255746
-0.00230072
-0.00224772
0.00331022
-0.0176158
-0.000159973
-0.023424
-0.0146605
0.00402593
0.0170845
0.0171913
-0.090108
-0.0162203
-0.00288051
-0.000714192
0.00690728
0.00415814
-0.0163647
0.00217807
-0.000242378
-0.00464354
-0.0215201
0.00383455
-0.0785266
-0.0377261
0.0026604
-0.0576011
0.00381208
-0.14296
0.00422182
0.000524235
-0.00869522
-0.0247273
-0.0136766
-0.0857194
-0.198867
0.00309477
-0.0440442
-0.0654293
-0.0049716
-0.0707202
-0.00814748
0.0029738
0.00266371
-0.00415147
-0.0032138
-0.00766238
0.00275986
0.0153299
-0.0250557
-0.00542642
-0.0251274
-0.0153735
0.008117
0.00530834
0.0014361
0.00323812
-0.0381672
-0.0706255
0.00898979
-0.0197015
0.00530326
-0.0266886
-0.00695921
0.00343705
-0.00432196
0.000370088
-0.188292
-0.0303612
-0.0287942
0.00156541
-0.00842178
-0.0193142
0.00913061
0.00442731
0.00380134
0.00525318
-0.0017404
-0.0239309
-0.000505273
-0.00552619
-0.0128984
-0.0361953
0.00401084
0.00178641
-0.0102531
-0.0677305
0.00299503
-0.0458457
0.00103327
0.00380879
-0.0128806
-0.0187156
0.00330683
-0.0152628
-0.0810997
0.000914146
-0.0135181
-0.0132248
0.00605783
-0.000471214
-0.00223561
-0.0279689
-0.0154131
-0.0807853
0.00370587
0.00121812
0.0103393
0.00374756
-0.00279883
-0.00139128
-0.00139422
-0.0447624
-0.00547228
-0.00468944
-0.0123263
0.00217744
0.0089832
-0.0803419
0.00382684
-0.00196336
0.0036398
0.00522696
0.00325973
-0.000498228
-0.00131536
-0.00668943
-0.0261565
-0.00418576
-0.0181089
0.00306136
-0.0376544
0.00369319
0.00331938
-0.00785677
-0.00906567
0.00362749
0.0197908
-0.0126938
0.0031518
-0.0059348
0.00384239
0.00789469
-0.0210147
-0.064573
0.00378619
0.00373329
0.00965015
0.00291905
0.00203105
-0.00199777
-0.00954233
-0.000254039
-0.00701239
0.011762
0.00379211
0.0044257
0.00467641
0.00274861
0.00355827
-0.0816992
0.00229057
0.00538818
-0.0096981
0.00369871
-0.0494196
-0.0033539
0.00380278
-0.0408201
0.0107799
-0.00943146
-0.0432877
-0.00179351
-0.000305212
0.00175865
-0.00219277
0.00496123
0.00485571
0.00110132
-0.0345519
-0.0158081
-0.00815263
0.00663586
0.00198542
-0.0124091
-0.00328881
-0.00476143
-0.00764415
0.00364113
0.00633845
0.0134267
0.00549189
-0.0428507
-0.0188933
0.0103567
-0.0744176
0.00309795
-0.00393118
-0.000246064
-0.0024741
0.00596392
-0.0190752
-0.134967
0.00296636
0.0128944
0.0031407
-0.023593
0.00209805
-0.00250948
-0.0220532
0.00518705
0.00566654
-0.0399341
-0.0116274
-0.0069769
-0.0155698
0.00154431
-0.0100482
0.00316973
0.0201649
-0.00283118
-0.00853137
0.00442291
-0.0515331
0.00341406
-0.0305654
0.000643733
-0.0123494
-0.0749447
-0.00165611
-0.00224779
0.00379564
-0.000523118
0.017812
-0.166825
0.00388353
0.004181
0.00173066
-0.0284436
-0.00353152
-0.0212692
0.00102968
0.00425135
0.00431451
0.00377277
0.00548501
0.00393645
-0.0262468
-0.0205177
-0.0349076
-0.0361714
-0.00192894
-0.0816841
-0.0116067
0.00152643
0.00500796
0.00211832
-0.00380668
-0.000474527
-0.0385258
0.00381561
-0.011878
-0.0237624
-0.0268799
0.00355737
-0.0683767
0.0215762
-0.00162105
-0.0337856
-0.0103061
-0.0124082
0.00280552
0.00733832
-0.004081
0.00554908
-0.0140958
0.00232324
-0.00805091
-0.139212
-0.000532323
-0.00275549
0.00333546
0.00178056
0.00387308
-0.120334
0.00436239
0.0129735
-0.0230379
0.00224666
0.00868555
-0.0437451
0.00489409
-0.00283654
-0.000799757
-0.198879
0.000227323
0.00976171
-0.0181467
-0.0203342
0.00423163
0.0213036
-0.00463184
0.00289036
-0.00427262
-0.022257
-0.0324921
-0.0118913
-0.0417836
0.00375813
0.0150947
-0.0603148
0.00365263
-0.00351822
-0.0621426
0.00743303
0.00367666
-0.0640145
0.0200584
-0.129625
0.00247403
-0.000210263
-0.0505459
0.00916425
-0.199523
-0.0042195
0.0063377
-0.00968555
-0.00474453
-0.0048873
0.0036119
-0.0156875
0.00321106
-0.0368732
0.000957785
-0.00713949
0.00296761
0.00500682
-0.0432089
-0.0267648
-0.00601445
0.00516224
0.00400286
-0.0132595
-0.0134061
0.00285343
-0.00682282
0.0027667
-0.0887653
-0.193477
-0.00647906
-0.174435
0.00126328
-0.00203493
-0.051432
-0.0169054
-0.0134265
-0.0990101
-0.0711889
0.00027763
-0.0391694
0.0034747
0.00332147
-0.156821
0.0087207
-0.0200601
-0.0301886
0.00441925
-0.00641725
-0.00149389
-0.00157721
-0.0405823
0.02292
-0.128533
-0.014693
0.00301327
0.000711114
-0.00686545
-0.0100201
0.0154812
-0.0453693
-0.0171546
-0.030775
0.00298643
0.0026752
-0.000849693
-0.00067996
-0.00157851
-0.027825
-0.00353847
0.00378262
-0.00951283
-0.164344
-0.0137283
0.0173548
-0.0220291
-0.00370633
-0.191335
-0.0195723
-0.0445894
-0.0161174
-0.00169206
0.000927151
-0.000661485
-0.00177142
-0.025758
0.00147437
0.00188976
0.000461277
0.00334924
-0.0203689
0.00195694
-0.0178154
-0.0358904
-0.00219674
-0.0192389
0.00826061
-0.00423483
0.00447809
0.0102415
-0.019119
-0.0103946
0.00380145
-0.00576395
0.00334638
-0.0298327
-0.00338117
-0.134181
-0.00316798
-0.000457486
-0.154411
-0.0311119
0.00366311
0.000451168
0.00188164
-0.0221512
-0.00475405
0.00369559
0.00316534
-0.0144786
-0.031502
-0.0480887
0.00379284
-0.0277409
-0.00344027
-0.0266329
0.00083347
-0.0254894
0.000699624
0.00286707
-0.0276496
-0.0273665
0.00567109
-0.0436847
-0.0159355
0.000705092
0.00297427
-0.00746535
-0.0321561
-0.0190622
0.00593697