/*--------------------------------*- C++ -*----------------------------------*\
| =========                 |                                                 |
| \\      /  F ield         | OpenFOAM: The Open Source CFD Toolbox           |
|  \\    /   O peration     | Version:  v2012                                 |
|   \\  /    A nd           | Website:  www.openfoam.com                      |
|    \\/     M anipulation  |                                                 |
\*---------------------------------------------------------------------------*/
FoamFile
{
    version     2.0;
    format      ascii;
    class       volScalarField;
    location    "350";
    object      k;
}
// * * * * * * * * * * * * * * * * * * * * * * * * * * * * * * * * * * * * * //

dimensions      [0 2 -2 0 0 0 0];


internalField   nonuniform List<scalar> 
18758
(
0.00017453
0.0167917
0.000144201
0.0342508
0.0769883
0.0825931
0.00834964
0.000145879
0.000223284
0.00015658
0.000152542
0.053621
0.000148171
0.000216019
0.000152295
0.000195668
0.000171005
0.000147462
0.000148356
0.000158823
0.0312564
0.000149792
0.0407642
0.00514589
0.000719061
0.000145899
0.000245389
0.0776668
0.0729433
0.000447374
0.000185298
0.0353851
0.000149141
0.0001508
0.000203912
0.000149064
0.000149462
0.000148525
0.000149442
0.000172503
0.000148516
0.000154889
0.000145858
0.000154779
0.000345891
0.000145194
0.0393086
0.000152935
0.000156247
0.000145584
0.000185494
0.0642518
0.000144696
0.000152174
0.0747853
0.0135754
0.000149394
0.000184287
0.000147784
0.00022041
0.000172964
0.00980007
0.000192647
0.000150495
0.000144761
0.000148055
0.000173263
0.000149108
0.000148172
0.0637777
0.0653092
0.000149308
0.00014565
0.000827525
0.000145898
0.000147735
0.00022779
0.0749863
0.000168262
0.02896
0.0586334
0.00118652
0.000220278
0.0806949
0.000230289
0.000160838
0.0520851
0.000192229
0.000906848
0.000147736
0.0774015
0.000147784
0.036708
0.000155262
0.0605093
0.0302371
0.000228252
0.000145924
0.000147252
0.0355345
0.000159768
0.0719583
0.000189026
0.000166887
0.0294202
0.000279392
0.0247628
0.0765179
0.00015045
0.000149297
0.0388707
0.000934795
0.000146166
0.000148462
0.081295
0.0207634
0.0295525
0.000152361
0.0409863
0.058241
0.00016586
0.000147927
0.0766772
0.00022848
0.000213248
0.000347579
0.00799141
0.00145476
0.0298138
0.000148403
0.000171715
0.000241988
0.0186862
0.000163351
0.000460773
0.000152169
0.000226048
0.000173447
0.000147232
0.000166821
0.000168283
0.00018093
0.000147995
0.0283331
0.000148542
0.000148804
0.0277878
0.0280563
0.000184918
0.0793685
0.000735947
0.00241008
0.000160643
0.000149789
0.048213
0.000158327
0.0360774
0.000152933
0.000148853
0.00014992
0.00014661
0.000219498
0.0383431
0.000148811
0.000173291
0.0775565
0.000148532
0.0759252
0.000190398
0.0849148
0.0425658
0.00014743
0.0423909
0.0776218
0.000219277
0.00402963
0.0842132
0.00015069
0.000166612
0.00014895
0.000146419
0.00839837
0.00150516
0.000146286
0.000155796
0.000548759
0.000147503
0.0245901
0.000145668
0.000147589
0.00016343
0.000766194
0.000149703
0.000183528
0.000159521
0.000192344
0.000159218
0.000193823
0.000148894
0.000145789
0.000165791
0.00015281
0.000162317
0.000184085
0.000148082
0.000159337
0.000189546
0.000149847
0.0303819
0.000156175
0.000147372
0.000167496
0.000148972
0.000162498
0.000166892
0.0563508
0.000167925
0.000194613
0.000145413
0.083451
0.000147372
0.000150503
0.00022292
0.0328567
0.000200824
0.0001891
0.000173682
0.00016337
0.00014592
0.000183965
0.000148018
0.000192039
0.0403073
0.000231442
0.000148289
0.000147503
0.000145929
0.000145361
0.0745404
0.000163425
0.000146757
0.000263025
0.0261146
0.000151424
0.0753682
0.0206868
0.000230663
0.00014911
0.05951
0.000156778
0.000148922
0.0754044
0.000160948
0.000157006
0.000150756
0.000167445
0.000510214
0.000202418
0.000162087
0.000168337
0.000147065
0.000183726
0.000148115
0.000183839
0.000155822
0.000222731
0.0152104
0.000145421
0.00015017
0.000194567
0.000149995
0.000155449
0.000183562
0.0815202
0.0240318
0.000147936
0.000183174
0.00960786
0.000286583
0.00015017
0.000147171
0.000158759
0.00016349
0.000147956
0.00912364
0.000246301
0.00167865
0.0102043
0.0423383
0.000145956
0.000144145
0.00016435
0.0611147
0.000153932
0.000168199
0.000188518
0.000158599
0.0564969
0.000148199
0.000319727
0.0819166
0.000145278
0.052504
0.000160681
0.000148287
0.000160753
0.00018068
0.000151451
0.000148955
0.0147608
0.00107287
0.000147426
0.0097626
0.0575291
0.000198162
0.000148046
0.000149224
0.000487557
0.000151343
0.000146184
0.000147349
0.000150782
0.000191018
0.000180846
0.000158707
0.000162739
0.000158826
0.000164172
0.000146909
0.000149846
0.00119214
0.000166628
0.000184719
0.0339226
0.000154209
0.000149557
0.000149786
0.000319764
0.051222
0.000146027
0.000147283
0.000146029
0.000151997
0.000162682
0.00049598
0.000147917
0.00014902
0.000145569
0.000205387
0.000179868
0.000198472
0.000179329
0.000151345
0.000611032
0.000173659
0.000164517
0.000157621
0.0483874
0.0343468
0.00108602
0.000148163
0.000160001
0.0147322
0.083313
0.000153936
0.000145982
0.00017526
0.000148402
0.000161224
0.0424311
0.0323144
0.000201223
0.000158389
0.0185817
0.000148079
0.000152779
0.000147445
0.000149496
0.000198432
0.000153243
0.0117481
0.000182103
0.000150527
0.000147453
0.0321841
0.000200387
0.000221565
0.000148063
0.000178852
0.000147086
0.000154374
0.000147928
0.000145478
0.02914
0.0321875
0.0002656
0.0507142
0.000147367
0.00022037
0.0491866
0.000167656
0.000146136
0.0338091
0.000147267
0.000149065
0.000146393
0.000199621
0.000147829
0.000154679
0.0001787
0.0781165
0.00014726
0.0749964
0.000172976
0.000148081
0.000156369
0.000147899
0.000147298
0.000158021
0.000181784
0.000163516
0.0123437
0.000166621
0.000148213
0.000191037
0.0464519
0.025061
0.0407872
0.000197865
0.000149988
0.000145474
0.000146773
0.000149036
0.000201321
0.000171078
0.000164218
0.00016019
0.00016078
0.000545354
0.00018951
0.000147862
0.00016246
0.000785775
0.000150564
0.032986
0.000150806
0.000148443
0.0318368
0.000156149
0.000150001
0.000500144
0.000204618
0.000164373
0.0287328
0.000147769
0.000150143
0.000203749
0.0499824
0.000159769
0.000172462
0.000217013
0.000411029
0.0100948
0.000216329
0.000149229
0.000189495
0.000148447
0.000201911
0.000151467
0.0369773
0.000178477
0.00652787
0.000164007
0.00018836
0.000145279
0.00556894
0.000145688
0.0283576
0.000147489
0.000195187
0.000148276
0.000359106
0.000161973
0.000148471
0.000147279
0.000146337
0.0301666
0.0258889
0.0796467
0.000173213
0.00015491
0.000181129
0.000149786
0.000149909
0.0659419
0.00014729
0.000148317
0.000188664
0.000148122
0.000171895
0.000181151
0.00014829
0.000147813
0.000155887
0.000150362
0.000158861
0.0727891
0.000163972
0.00015932
0.000156067
0.000148237
0.000342507
0.00014938
0.000150463
0.000345646
0.0233393
0.000187194
0.000904081
0.000154199
0.000150379
0.02901
0.00014844
0.0275123
0.000192834
0.000148429
0.0748287
0.00109255
0.000175869
0.000147431
0.000166155
0.0584523
0.000148544
0.000147831
0.00015246
0.000151382
0.000148881
0.000146024
0.000149956
0.0745486
0.000155035
0.0783902
0.00014795
0.000191408
0.0321759
0.000148151
0.000145731
0.000154933
0.000148755
0.000150338
0.000151259
0.00014888
0.00019249
0.000204917
0.000144762
0.0602046
0.0685008
0.000159119
0.000189497
0.000436764
0.000154729
0.000163204
0.000158958
0.0663692
0.000154912
0.000174499
0.000148215
0.0137621
0.00016933
0.0001798
0.00020207
0.00784414
0.000154782
0.000147727
0.00017407
0.000538382
0.000150169
0.000204802
0.00014903
0.0351385
0.000150557
0.000147393
0.000146316
0.000148164
0.0691161
0.03695
0.000148137
0.000242333
0.000157744
0.0295231
0.0322451
0.000443514
0.0037579
0.0001485
0.0811052
0.000183186
0.000148234
0.000173876
0.0651964
0.0276546
0.000150698
0.000149939
0.000148325
0.000144478
0.0280342
0.000192703
0.0756161
0.0449265
0.000148336
0.000148836
0.000176664
0.000149864
0.000146614
0.000151211
0.000151883
0.00019293
0.000168974
0.000191308
0.0760091
0.000172839
0.000148315
0.000155704
0.000181632
0.0707408
0.000173385
0.00400914
0.00017192
0.000148166
0.000240574
0.0174008
0.000149859
0.000146237
0.000173002
0.0757555
0.000193492
0.000148124
0.0295227
0.0103238
0.000792548
0.000145542
0.00457158
0.0134879
0.0486672
0.000153221
0.000149248
0.0810759
0.00014996
0.000220071
0.0346266
0.000204736
0.0088677
0.000189477
0.0431793
0.000182044
0.000148566
0.000149878
0.0306652
0.0311617
0.0118332
0.0322719
0.000148467
0.00022001
0.000149835
0.000174058
0.000191001
0.00018406
0.000148462
0.000153806
0.000218076
0.0614473
0.0333722
0.0105392
0.000165046
0.000159828
0.000233529
0.000149109
0.000146878
0.000147686
0.000156697
0.000186397
0.000148156
0.000189243
0.000146878
0.000148672
0.000147196
0.0773938
0.000149363
0.000149778
0.000175447
0.000173303
0.000144816
0.0228201
0.000148423
0.000147335
0.000171861
0.000159599
0.000155238
0.00015087
0.00246162
0.000159285
0.000161352
0.0164632
0.000161471
0.0334816
0.000154162
0.000193042
0.0469325
0.0234013
0.000146131
0.0657483
0.00214294
0.000145682
0.0431011
0.000148322
0.000147105
0.00016752
0.000147516
0.000175708
0.0696633
0.000145629
0.0422704
0.000148377
0.000165695
0.0303051
0.000144642
0.0744908
0.000151987
0.000148467
0.000147486
0.000147668
0.000209955
0.000165576
0.0185958
0.000173199
0.0793982
0.00017633
0.000148164
0.000222893
0.0131081
0.00829015
0.000166292
0.000198343
0.000182997
0.000156377
0.000209146
0.000150508
0.00240879
0.000148069
0.00511045
0.000150956
0.000166434
0.000155915
0.000149687
0.0627448
0.000149947
0.000146642
0.00334115
0.000152008
0.000147217
0.000171931
0.000180063
0.000211577
0.00105686
0.0030432
0.0439967
0.000148781
0.000149307
0.0340222
0.000147927
0.000267043
0.000191183
0.000152712
0.00014831
0.000160491
0.000147952
0.00014831
0.000160224
0.000251455
0.000191277
0.000173639
0.000169739
0.000148781
0.000180432
0.0828114
0.000146931
0.000191448
0.000153113
0.068252
0.000151123
0.05348
0.000148033
0.00308055
0.00014983
0.000186953
0.000148277
0.000156187
0.000162289
0.000144694
0.000147194
0.000145059
0.0348324
0.0105844
0.000164146
0.0780371
0.000148208
0.000170613
0.000158361
0.0002303
0.0293968
0.000164301
0.000144879
0.000180638
0.000146886
0.000148207
0.000158452
0.0248878
0.0791307
0.00190637
0.00053251
0.000165877
0.000150634
0.000147544
0.00130973
0.00014713
0.00326826
0.000158237
0.000149166
0.0779232
0.087223
0.000148495
0.0234201
0.000156367
0.000199057
0.000169601
0.000853856
0.0864669
0.000328697
0.000147818
0.000144673
0.075221
0.000147987
0.000148143
0.000158855
0.000148069
0.0229462
0.000235035
0.000176712
0.0691759
0.000173141
0.000202852
0.000152968
0.000147775
0.000144619
0.000146346
0.0239362
0.0249245
0.000243627
0.000148284
0.000144815
0.000162811
0.00014734
0.00016767
0.000154287
0.000565173
0.0673213
0.000188856
0.000238499
0.000246272
0.000147944
0.000206954
0.000147568
0.0318451
0.00217497
0.0408571
0.0695603
0.000152012
0.000160391
0.00067069
0.0682217
0.0429143
0.000161367
0.000183008
0.0361341
0.000148168
0.000234059
0.000239762
0.000202898
0.000148125
0.000148375
0.000169086
0.044513
0.000342792
0.000170753
0.000147935
0.000155577
0.000156225
0.0177183
0.000149512
0.000230907
0.00014716
0.000150331
0.0001972
0.00014694
0.00014807
0.000151657
0.000155789
0.000147679
0.000150458
0.000145607
0.00224799
0.000253748
0.0328547
0.000146067
0.000162982
0.00014805
0.000225832
0.000219608
0.000161479
0.000147191
0.000151282
0.000216249
0.000199381
0.000159607
0.0308848
0.000201935
0.000147827
0.000148335
0.0331902
0.00132367
0.000168818
0.000145327
0.000361012
0.000148731
0.000164883
0.000145933
0.000394775
0.049264
0.000146889
0.000148831
0.00551704
0.000147781
0.0672596
0.0223365
0.000180416
0.000149193
0.000149022
0.000145907
0.000148076
0.00914764
0.00981981
0.00018547
0.000150863
0.0486294
0.00014767
0.00014759
0.0873788
0.000147068
0.0800232
0.000144525
0.000156422
0.000151263
0.000147587
0.000147265
0.000148694
0.0394245
0.000150072
0.000149228
0.000172684
0.000169352
0.00014768
0.000172683
0.000162398
0.000148731
0.000182517
0.000147687
0.000161409
0.0536851
0.000195454
0.000147776
0.000242132
0.000193639
0.00017945
0.000155399
0.000181791
0.0592248
0.000153674
0.000176402
0.000147659
0.000145904
0.000147962
0.000173642
0.000162605
0.00017479
0.000148017
0.000157824
0.000183449
0.0189557
0.000234487
0.000147569
0.000146518
0.000150757
0.000175241
0.00014664
0.0230371
0.00014769
0.000147939
0.000146521
0.000187496
0.0691822
0.000148941
0.000152539
0.000147049
0.00019166
0.000146531
0.000147924
0.000570445
0.000149784
0.000146021
0.000148769
0.000187034
0.000146439
0.000147855
0.0341245
0.0131771
0.000194953
0.000161046
0.0713329
0.000163268
0.000147657
0.000147317
0.0126666
0.000147931
0.000181988
0.000189039
0.000168536
0.000154989
0.000150113
0.000158397
0.000150714
0.00014536
0.000198179
0.0720605
0.000163563
0.000146378
0.0606061
0.000173603
0.0119858
0.00832497
0.000198274
0.000148837
0.000148244
0.000148028
0.0001806
0.000148738
0.000147236
0.0738855
0.000173529
0.000172917
0.000147324
0.000170381
0.00024255
0.000148526
0.000155035
0.00016194
0.000171818
0.000183571
0.000148393
0.000151998
0.000166546
0.000146616
0.000165264
0.000149402
0.0021093
0.000174226
0.000191468
0.000147338
0.000164392
0.070279
0.0344051
0.000329527
0.000168833
0.0195232
0.000148764
0.000147674
0.00015055
0.000180532
0.000149051
0.0001514
0.000157842
0.000180662
0.000147865
0.000147557
0.000148708
0.000149832
0.000248341
0.031335
0.00279301
0.000147961
0.0197792
0.000156584
0.000148944
0.000164067
0.000148154
0.000182057
0.000151163
0.000147946
0.0497844
0.00811624
0.0639918
0.000150049
0.0102323
0.000147939
0.0428789
0.0523711
0.000145147
0.000180649
0.000239752
0.000145367
0.000147584
0.0104163
0.000149898
0.000148041
0.000194764
0.000539785
0.000148038
0.000161946
0.000148913
0.000155097
0.000199267
0.00014903
0.0568899
0.000172414
0.000147594
0.000529144
0.000167709
0.000185914
0.000149915
0.00024392
0.000148499
0.0747095
0.000147924
0.000146644
0.0563021
0.000145777
0.0683121
0.000147635
0.000172506
0.0767109
0.0562655
0.000148152
0.000149342
0.000148111
0.000151141
0.000156645
0.000154732
0.000144271
0.0107295
0.00014711
0.000148431
0.000186838
0.00017994
0.00016361
0.000148033
0.0192289
0.000183237
0.000149801
0.000158946
0.000147479
0.00014718
0.0797769
0.000145411
0.000146694
0.000147447
0.072112
0.000147786
0.000147146
0.0752361
0.000155209
0.0427976
0.000164341
0.000144499
0.000147023
0.0118415
0.000157228
0.000148031
0.0830199
0.0452305
0.000146426
0.0448871
0.000190591
0.000148456
0.00014827
0.000190685
0.000149427
0.000338387
0.00016005
0.000148068
0.00136594
0.0373923
0.000223661
0.000147829
0.0277219
0.000157955
0.000184665
0.000706053
0.000147479
0.0239874
0.000147988
0.0001577
0.000157378
0.0598906
0.000145701
0.000150241
0.000358351
0.000149808
0.000159088
0.000145737
0.000148567
0.0383076
0.000179944
0.00015375
0.000163905
0.00328121
0.00014928
0.000151893
0.00017434
0.000200818
0.000155856
0.000147846
0.000147439
0.000148881
0.000150339
0.0001468
0.000159883
0.000156813
0.000461216
0.00014791
0.00651273
0.000148198
0.000160114
0.000147767
0.000160987
0.000148539
0.000147612
0.041835
0.0582994
0.000153071
0.000148532
0.0319332
0.000156856
0.0565535
0.000159549
0.000165351
0.0449341
0.00904916
0.0411261
0.000151895
0.000148756
0.000146502
0.0352961
0.000147496
0.000148063
0.000174288
0.000147386
0.000149169
0.000148334
0.0149801
0.00440809
0.000149137
0.000429558
0.0675663
0.000153319
0.000147425
0.000148874
0.0431922
0.000147214
0.000195972
0.000149915
0.000147742
0.000149044
0.000146394
0.000185097
0.000148441
0.000148167
0.000147317
0.00014545
0.000245894
0.000145273
0.00014751
0.000149157
0.000147861
0.000239364
0.000364974
0.000167475
0.000150134
0.000148211
0.000149222
0.000149455
0.0487908
0.000147746
0.000159233
0.000166887
0.0502545
0.000147568
0.000147367
0.0511225
0.000148732
0.000175536
0.00018072
0.000149931
0.0555798
0.0487213
0.000157429
0.0145465
0.000158481
0.000202723
0.000144613
0.00715124
0.000148199
0.001555
0.000148262
0.000147143
0.0105196
0.000274574
0.000202149
0.000173324
0.000147295
0.0794357
0.000149103
0.0825906
0.000175341
0.000147387
0.000144675
0.000148547
0.000171319
0.000166757
0.0755906
0.000170432
0.000147386
0.000147421
0.000148428
0.0196127
0.000178774
0.000159505
0.000148875
0.000147305
0.000160356
0.000215271
0.000148663
0.000159597
0.000165583
0.000147737
0.000153093
0.000150934
0.000176057
0.000174629
0.000153559
0.000166724
0.000145742
0.000148043
0.0283083
0.00016569
0.000182772
0.0085763
0.00014539
0.0238567
0.00271651
0.000163139
0.0778097
0.000147625
0.0178046
0.04523
0.00019707
0.00014643
0.0796876
0.000201916
0.000147854
0.00016785
0.045472
0.000150336
0.000147722
0.000164733
0.000149791
0.0281685
0.000157851
0.000149
0.000149871
0.0001471
0.000164943
0.00016483
0.0234656
0.00019474
0.0371959
0.00017426
0.000149717
0.000147653
0.000230795
0.0209349
0.00014801
0.000147545
0.000190024
0.000149122
0.000242595
0.01915
0.0248442
0.000147888
0.000148022
0.0848765
0.000146603
0.069364
0.000216202
0.000146973
0.0412914
0.000174923
0.000167555
0.000147877
0.00693364
0.000148093
0.000367601
0.000144426
0.000173153
0.000151392
0.000145926
0.0842811
0.000150964
0.000147982
0.000152058
0.0423451
0.000148437
0.00014523
0.0283986
0.000147457
0.000146807
0.000148714
0.000155903
0.000148312
0.000149167
0.00015639
0.000149125
0.000154563
0.000145614
0.000187211
0.0284303
0.000172667
0.041521
0.000159627
0.000154728
0.0001472
0.000146699
0.000149013
0.0291866
0.0449392
0.000148023
0.000149838
0.000147422
0.0224456
0.00014517
0.000231933
0.000369279
0.0450448
0.0665188
0.0317979
0.0451711
0.00014674
0.0222934
0.0428455
0.0596367
0.000154984
0.000148835
0.000171968
0.000145722
0.00433954
0.000198881
0.000176285
0.000156787
0.0290063
0.000147985
0.000144277
0.0232539
0.000200709
0.000148288
0.000144557
0.000172877
0.000148707
0.0271843
0.0091638
0.030272
0.0401482
0.000187381
0.0015352
0.000147877
0.000225958
0.000148639
0.000147879
0.00014667
0.0351283
0.000149043
0.000147487
0.000461383
0.0353119
0.000203688
0.000201445
0.000151053
0.00016519
0.0256409
0.0178212
0.0201324
0.0385237
0.000171837
0.0675668
0.000180635
0.000970227
0.000173302
0.000170907
0.000147217
0.000160991
0.000164196
0.000148268
0.0181382
0.000147017
0.00014826
0.000148001
0.0813388
0.000154199
0.000146578
0.000147166
0.000147918
0.000176363
0.000169735
0.0040198
0.000150947
0.0361874
0.000144579
0.00014753
0.000184343
0.000167045
0.000144384
0.0475648
0.000170463
0.0702937
0.000147807
0.0317812
0.000166746
0.000147544
0.000148315
0.000147896
0.0336194
0.0751285
0.0137574
0.00014773
0.000149118
0.000145029
0.0712791
0.000156617
0.000148343
0.00122766
0.000147718
0.000150354
0.0449957
0.00014615
0.000147783
0.000148376
0.000149834
0.000144501
0.000150447
0.000144468
0.000149061
0.000187021
0.000166299
0.000146733
0.01961
0.000152902
0.0743625
0.0163953
0.000165429
0.0555702
0.0711063
0.00014741
0.000170913
0.000148054
0.000147167
0.00788216
0.000154986
0.0703548
0.000155449
0.000203399
0.000148503
0.000151288
0.000147297
0.0417409
0.000161934
0.0362141
0.000148936
0.000188812
0.000160525
0.000146473
0.000166959
0.000169729
0.000144984
0.0841327
0.000148573
0.000170323
0.000147942
0.000157768
0.000166953
0.000219976
0.000155387
0.00018698
0.00364358
0.000160507
0.000170093
0.000146044
0.0764443
0.00017339
0.000149794
0.000175536
0.00197488
0.0188862
0.000147942
0.000151081
0.000149073
0.000145638
0.000147734
0.0529477
0.000159551
0.000148446
0.0250101
0.000148664
0.000145131
0.000154547
0.0708843
0.000148936
0.0264175
0.0269251
0.000169957
0.0324629
0.000150615
0.0715096
0.000444981
0.000145203
0.000160358
0.000148268
0.000149989
0.000168306
0.0130702
0.000180298
0.000384601
0.000198781
0.000147532
0.07479
0.000147252
0.0371042
0.000149771
0.0384256
0.0347308
0.00014898
0.000147156
0.000149847
0.00016415
0.000184158
0.000147658
0.019847
0.000151786
0.000171503
0.000173611
0.000151376
0.000147354
0.0336429
0.000146632
0.000223691
0.000157504
0.0125705
0.000148756
0.000147425
0.0357409
0.000144179
0.0001462
0.000150257
0.000173601
0.000174163
0.000224622
0.000152774
0.000146423
0.000155002
0.000149472
0.000149928
0.064985
0.000147522
0.000166897
0.063685
0.000217284
0.000147795
0.000183152
0.000147864
0.000149333
0.0001867
0.000205803
0.000183611
0.000149558
0.00014778
0.000152965
0.000189072
0.00014787
0.000161936
0.000147507
0.000149378
0.000146781
0.000148809
0.0432385
0.000144794
0.0735348
0.00041664
0.000154359
0.000145915
0.0219548
0.0504484
0.000147193
0.000147876
0.0710979
0.000149405
0.000164627
0.000182611
0.000714008
0.000147357
0.000150415
0.000170601
0.000147916
0.0864863
0.00020042
0.000147425
0.000159396
0.000164353
0.00014849
0.000184935
0.000148933
0.000163427
0.000150982
0.000154326
0.000144578
0.000147547
0.000225883
0.000148133
0.0691462
0.000184839
0.000148159
0.000148108
0.000147757
0.000147139
0.0599157
0.000149796
0.000193625
0.00014723
0.000147171
0.000172771
0.0533186
0.000146276
0.000144876
0.000147697
0.000150198
0.000159877
0.000160193
0.0308128
0.000160464
0.000146743
0.000198421
0.0696405
0.000149258
0.000161907
0.0427286
0.000164552
0.000149885
0.00213775
0.000144538
0.0313457
0.000172286
0.000148346
0.000189191
0.000147809
0.000147543
0.0001482
0.0408398
0.000148277
0.000393048
0.0695418
0.000656336
0.000161348
0.000147605
0.0169161
0.000149841
0.0136827
0.000146425
0.000244962
0.00015419
0.000191643
0.000150141
0.0284796
0.000159742
0.000149449
0.0395206
0.0370565
0.000144898
0.00037571
0.000147785
0.000159307
0.000146985
0.00643608
0.000884741
0.000149337
0.000148354
0.0534906
0.00018498
0.000146855
0.000151601
0.000148118
0.000146511
0.000146071
0.00015239
0.0240605
0.0208734
0.0001498
0.000178069
0.000153479
0.000184406
0.000147892
0.00658824
0.0344155
0.0205305
0.000150241
0.0692143
0.024414
0.00015349
0.000160681
0.000147166
0.00017719
0.0389013
0.000149189
0.00014605
0.000146383
0.000157667
0.00014506
0.000147927
0.000718986
0.000150978
0.000179783
0.000148277
0.000147698
0.000153714
0.000148151
0.000204255
0.0736311
0.000146362
0.000172269
0.000144917
0.0756059
0.000147457
0.000152668
0.0391431
0.00023016
0.000154333
0.0215002
0.000186807
0.000148345
0.000168134
0.000148653
0.000164212
0.000149525
0.000147376
0.000203715
0.000192908
0.0503927
0.000199589
0.000158812
0.00413294
0.000152597
0.000168845
0.000150865
0.0618862
0.0482175
0.0266014
0.000147797
0.000144463
0.0335963
0.0382379
0.000148766
0.0193004
0.000148826
0.000156712
0.000144308
0.00014788
0.000147591
0.000147557
0.000226933
0.000161228
0.0001641
0.000148012
0.000148084
0.000145365
0.000146655
0.00014656
0.000149728
0.000147456
0.0571933
0.0463301
0.0432029
0.000152311
0.0690013
0.000174868
0.0843721
0.066889
0.000174682
0.000148642
0.000149077
0.00018068
0.000149631
0.00660912
0.0281134
0.000150298
0.000145753
0.000162784
0.0504012
0.000147923
0.069205
0.000147926
0.000148558
0.086681
0.000147549
0.000156385
0.000149016
0.040083
0.000145772
0.000147745
0.000206967
0.000145784
0.000148288
0.000147612
0.00014578
0.000165562
0.000147388
0.00810317
0.000148028
0.000149393
0.000144414
0.0236705
0.000161972
0.000149008
0.0635974
0.000148469
0.000145492
0.000228922
0.00043536
0.000148607
0.077053
0.0767328
0.000156229
0.0465085
0.000148629
0.000148329
0.000194413
0.000146327
0.0463746
0.0470524
0.000144351
0.000157206
0.000147358
0.0166226
0.000662561
0.00017197
0.000148863
0.000514148
0.000159712
0.000174275
0.000156582
0.000148042
0.000150392
0.000147397
0.000146612
0.0460252
0.000144
0.000146616
0.000169066
0.0218609
0.000187271
0.0740322
0.00014794
0.000162077
0.000147971
0.0001485
0.000148645
0.000146344
0.000148925
0.000147382
0.000148561
0.00014907
0.000153979
0.000148278
0.000149099
0.00014583
0.0169729
0.0855178
0.000149286
0.00015089
0.0486915
0.000149345
0.000203642
0.0361413
0.000268433
0.0870733
0.000244717
0.0880564
0.00483254
0.0278416
0.000147503
0.000160136
0.000147313
0.000169078
0.000154018
0.000149445
0.000147303
0.0244759
0.000145899
0.000156851
0.0751373
0.00014556
0.000146913
0.0001743
0.000145812
0.00014757
0.000147482
0.000149405
0.0478926
0.0180931
0.000148142
0.000147759
0.000148288
0.000150759
0.000161843
0.000150921
0.00328723
0.000194048
0.000149226
0.0537967
0.000163315
0.000147711
0.0453322
0.000145676
0.000177904
0.000146306
0.000149764
0.000149698
0.0447117
0.000147741
0.000147599
0.000153243
0.000149607
0.000160563
0.0001468
0.0302466
0.000166515
0.000162617
0.00696037
0.0854091
0.000198412
0.000164352
0.0149251
0.000148148
0.00014792
0.000155225
0.0530643
0.000178735
0.000168427
0.0293133
0.000147696
0.00091003
0.000200536
0.00610066
0.000147994
0.000159976
0.000147163
0.000189208
0.000158269
0.000660262
0.0839158
0.000147977
0.000163651
0.000156149
0.000148091
0.000285837
0.000147945
0.000162271
0.000175601
0.000181693
0.000147818
0.000149963
0.00014948
0.00017319
0.000147486
0.000149447
0.000147891
0.000148397
0.000146319
0.000160813
0.000144676
0.000271679
0.0514346
0.000149992
0.000146557
0.00014541
0.000163387
0.000159449
0.000148734
0.0367177
0.00016273
0.000146449
0.00014655
0.0599341
0.0511074
0.00014741
0.000221366
0.000159143
0.000148007
0.021607
0.00015476
0.000175611
0.000149518
0.0305324
0.0829304
0.000149681
0.000165638
0.0454572
0.000162464
0.0587658
0.000149559
0.000154149
0.0576018
0.0779
0.000155195
0.00015386
0.000150127
0.000152663
0.000151469
0.035143
0.051116
0.0314024
0.000153212
0.000148292
0.000179167
0.000147604
0.000204862
0.000153987
0.0285479
0.000145741
0.000149192
0.000147268
0.000148133
0.000146774
0.000187361
0.0839399
0.000157959
0.000145439
0.00014858
0.0142474
0.000152021
0.000152554
0.000148947
0.000165374
0.0472735
0.000145805
0.000147751
0.000169249
0.000184653
0.000148658
0.000169609
0.000149326
0.000152262
0.000204246
0.000156604
0.0810448
0.000540082
0.000163259
0.0640125
0.000146857
0.000147641
0.00015131
0.0795777
0.000151282
0.000330451
0.000145876
0.0478032
0.000165278
0.000147092
0.000159772
0.000149329
0.0677267
0.000173918
0.000160742
0.000197155
0.000198823
0.000148914
0.000149273
0.000149485
0.000154696
0.048783
0.000178191
0.000148581
0.000212521
0.000147948
0.0803356
0.000147815
0.0700539
0.000159878
0.0817706
0.00137233
0.000165985
0.000147955
0.00014802
0.000146939
0.0837922
0.000148702
0.000177345
0.0418605
0.000144582
0.0301032
0.000158931
0.000147851
0.000190015
0.000147279
0.000147857
0.0357216
0.00745611
0.0358909
0.00014737
0.000146334
0.000150548
0.000154051
0.000151211
0.00014828
0.0441758
0.000189678
0.0003277
0.000150207
0.000163808
0.000484221
0.000232627
0.000157616
0.000146601
0.0225998
0.000150977
0.0515832
0.000147381
0.00014806
0.000147932
0.00014642
0.000144567
0.000149764
0.000146358
0.000159849
0.0780872
0.000165349
0.0511313
0.000153734
0.000149332
0.000148721
0.000199537
0.000148099
0.000150158
0.000148189
0.0309258
0.00861608
0.000146334
0.00015336
0.000147117
0.000147936
0.000149843
0.00014832
0.000147359
0.000264459
0.000149064
0.000147372
0.000190344
0.000146827
0.0113066
0.000189245
0.000194081
0.000212749
0.000153606
0.000148417
0.0467459
0.000148729
0.000189114
0.000161081
0.000146792
0.000168915
0.000148302
0.0739344
0.000145627
0.000147483
0.0779461
0.000174243
0.0197282
0.000146127
0.000189145
0.00019011
0.00015856
0.0355118
0.000147023
0.000146505
0.000145723
0.000171818
0.000150346
0.0025617
0.000147988
0.000170753
0.0433315
0.000215884
0.000148063
0.000235283
0.000153591
0.0307207
0.000151712
0.000152645
0.000153399
0.0200148
0.000147893
0.000149682
0.0574324
0.000145525
0.000154623
0.000147159
0.000162043
0.066726
0.0726678
0.000147684
0.000169686
0.000147997
0.000241222
0.000148062
0.00014987
0.000193314
0.00736574
0.000162598
0.00014788
0.000154136
0.0101056
0.000172092
0.000187376
0.0790953
0.000148074
0.0194786
0.000157574
0.000192128
0.000147653
0.000154774
0.0651072
0.000153767
0.00014733
0.000210869
0.0304194
0.0748108
0.000145998
0.0471366
0.000286873
0.000146307
0.000192296
0.0257624
0.000149843
0.000151462
0.00170214
0.00014441
0.00014973
0.000146653
0.000148546
0.000193226
0.000184427
0.000166808
0.0449043
0.000149791
0.000163742
0.000156672
0.000148956
0.000151208
0.000166349
0.000148322
0.00014947
0.083163
0.0412388
0.0296202
0.000146441
0.00016629
0.000148808
0.0545475
0.000148516
0.00016711
0.0798026
0.0174997
0.000165402
0.000148331
0.000272749
0.0397281
0.00178328
0.000147948
0.000148731
0.000146772
0.0823359
0.000166158
0.0001981
0.0702121
0.000148665
0.00014935
0.0400857
0.000156269
0.000181665
0.000149081
0.000147318
0.000148018
0.000949184
0.000148314
0.00017841
0.000147043
0.000148629
0.00014641
0.0443805
0.0403015
0.000152223
0.000221164
0.00015116
0.000915239
0.00014737
0.000147226
0.000189504
0.000148468
0.000147514
0.000153692
0.000174647
0.000160197
0.000186967
0.000148365
0.000181996
0.072966
0.000148582
0.00014935
0.000148268
0.0700412
0.000165806
0.000162388
0.000189573
0.000146971
0.000148034
0.00017381
0.000156543
0.00306564
0.0824213
0.000162056
0.0525558
0.0242072
0.0419301
0.000177639
0.000149243
0.000147833
0.000237447
0.0588257
0.000147032
0.000162093
0.035066
0.000148609
0.000223751
0.000323804
0.000203071
0.000147532
0.000193844
0.00014877
0.000148602
0.000146441
0.000211457
0.000148923
0.000179112
0.000168885
0.000147723
0.000149152
0.0150115
0.000147258
0.000145267
0.000173692
0.00438135
0.000168012
0.000148069
0.000163134
0.0514179
0.0402489
0.000159312
0.0510032
0.000190703
0.000178601
0.000168312
0.000148921
0.000172857
0.000158128
0.000145889
0.000146968
0.000149494
0.000156501
0.000242201
0.0459456
0.000149403
0.000439314
0.000173779
0.000673489
0.048428
0.00023756
0.0551242
0.00020156
0.0490706
0.000172177
0.047411
0.000180294
0.000147969
0.000148807
0.0808344
0.0291791
0.000198148
0.0225237
0.000147054
0.0584767
0.0513662
0.000148114
0.000145398
0.000163687
0.000179001
0.0436158
0.0241111
0.000179617
0.000146939
0.000147515
0.0001494
0.0830058
0.000153734
0.0197148
0.000154701
0.0496958
0.000206339
0.0441384
0.000158742
0.0458017
0.000146606
0.000145179
0.00015456
0.000149006
0.0573285
0.000189306
0.0534499
0.000148549
0.0401759
0.017012
0.000144682