/*--------------------------------*- C++ -*----------------------------------*\
| =========                 |                                                 |
| \\      /  F ield         | OpenFOAM: The Open Source CFD Toolbox           |
|  \\    /   O peration     | Version:  v2012                                 |
|   \\  /    A nd           | Website:  www.openfoam.com                      |
|    \\/     M anipulation  |                                                 |
\*---------------------------------------------------------------------------*/
FoamFile
{
    version     2.0;
    format      ascii;
    class       volScalarField;
    location    "350";
    object      nut;
}
// * * * * * * * * * * * * * * * * * * * * * * * * * * * * * * * * * * * * * //

dimensions      [0 2 -1 0 0 0 0];


internalField   nonuniform List<scalar> 
18758
(
0.000103011
0.00249587
0.0067159
0.00817613
0.012682
0.0137553
0.0011289
0.00671891
0.00032394
0.00051376
0.00132147
0.00425449
0.00672087
0.000417782
0.00324609
2.42844e-05
0.00071205
0.00672012
0.0042479
0.000440337
0.0037314
0.00672581
0.00737784
0.00126839
0.000396681
0.00671853
3.55347e-05
0.012294
0.00764625
0.000106535
0.00054334
0.00592467
0.0067235
0.00233794
0.000361969
0.0067232
0.0067245
0.00324454
0.00268033
0.000606844
0.00308727
0.000482543
0.00673829
0.000613787
0.000145895
0.00671678
0.00755938
0.00116088
0.000617395
0.00673558
0.000247652
0.00937437
0.00671666
0.00145837
0.0131264
0.00140377
0.00672426
3.12645e-05
0.00411369
0.000393497
0.000158777
0.00154715
0.000302624
0.00119553
0.00671673
0.0067252
0.000621387
0.00672339
0.00371168
0.0103834
0.0110409
0.00193993
0.0067366
1.16654e-05
0.00672819
0.00396529
0.00029732
0.011707
7.65559e-05
0.00565858
0.00954153
0.000268355
0.000355379
0.0141013
0.000264252
0.000790593
0.00227638
0.00032868
0.000153141
0.00437039
0.013335
0.00411061
0.00223399
0.000478043
0.0102839
0.00230619
0.000297864
0.00672966
0.00672703
0.00526238
0.000379396
0.0133372
0.000383859
0.000326273
0.00380156
8.47818e-05
0.00461332
0.0114391
0.00178678
0.00173275
0.00203642
7.19569e-06
0.00671834
0.00271062
0.0110416
0.0019889
0.00344606
0.00341348
0.00492726
0.0107244
0.000539693
0.00538322
0.00621665
2.04541e-05
0.000124414
0.000204317
0.00135216
0.00079637
0.00253578
0.00673267
0.000729512
3.16925e-05
0.00102755
0.000151927
2.16616e-05
0.000857421
0.000315731
0.00067517
0.00672686
7.29333e-05
6.88989e-05
5.29929e-05
0.00339653
0.00205429
0.00332023
0.00436728
0.00259797
0.0039352
0.000557888
0.00997008
0.000245429
0.000795486
0.000799025
0.0067258
0.00974694
0.000867132
0.0054064
0.00119093
0.00242296
0.00672622
0.00672461
0.000397133
0.00195965
0.00209398
0.000162617
0.00853666
0.00369208
0.0060238
0.000150568
0.013569
0.00838287
0.00672016
0.00213649
0.0129039
0.000368857
0.00125415
0.00936529
0.00126826
7.53992e-05
0.00273086
0.00671801
0.000193797
0.000674225
0.00675758
0.00166413
0.000506154
0.00636761
0.00280599
0.00673416
0.00616247
0.000147988
0.000628803
0.00183071
0.00057686
0.000316079
0.000329552
0.000418115
0.000157765
0.00672262
0.00673713
7.91637e-05
0.00123226
0.000386469
0.000360987
0.00672032
0.000339965
0.000374529
0.00672596
0.00383131
0.00054426
0.00671992
0.000325591
0.00221769
0.000369379
8.46847e-05
0.00817425
7.95821e-05
2.55258e-05
0.00672233
0.013654
0.00671996
0.00191059
0.00033182
0.00392116
0.000230547
0.00037674
0.000396559
0.00017737
0.00675403
0.00031097
0.00672539
0.000332488
0.00788671
0.000304893
0.00672121
0.00640047
0.00675384
0.0067169
0.00642006
0.000478208
0.0067226
0.000318823
0.0048213
0.0020442
0.00872808
0.000455679
0.000315424
0.00672331
0.0100946
0.000337529
0.00672275
0.00690863
0.000853743
0.000309984
0.00349898
0.000569798
0.000576268
2.66433e-05
0.000399753
8.72395e-05
0.00678948
0.000413757
0.00672257
0.000369209
0.000610978
0.000314177
0.00158523
0.00672115
0.00207125
5.1175e-05
0.00212222
0.00169773
0.000346259
0.00821785
0.00227084
0.00357727
0.000229237
0.000275008
0.000112312
0.0016028
0.00582921
0.000682036
0.00047084
0.00411062
0.000359721
0.000316183
0.000613852
0.000293488
0.0077621
0.00674882
0.00671549
0.000165284
0.00831147
0.000562926
8.85281e-05
0.000338043
0.000625682
0.0102276
0.00436138
0.000507739
0.0136258
0.0067169
0.00757232
0.000241919
0.00344644
0.000478646
0.000334009
0.00284774
0.0067229
0.00227791
0.000564952
0.00672311
0.00118414
0.0104723
0.000220324
0.00672336
0.00674593
0.000581085
0.00185672
0.00675442
0.00492792
0.00100004
0.000141402
0.000290278
0.000669489
0.00045669
0.000425014
0.00016257
0.00678693
0.00672598
0.000691073
0.000202116
0.000228701
0.00825763
0.000521397
0.00189643
0.00678425
0.000614362
0.0079462
0.006755
0.00671974
0.00675442
0.000975283
0.000195767
0.00040959
0.00511946
0.00199422
0.00673792
2.42238e-05
5.75198e-05
0.00029098
0.000108176
0.00228901
0.000606729
0.000109317
0.000512759
0.000287058
0.00502083
0.00453072
0.000589787
0.00672035
0.000391356
0.00179051
0.0077291
0.000798775
0.0067487
0.000409123
0.00367033
0.000857979
0.00503952
0.00848493
0.000411614
0.000438534
0.00232757
0.00356725
0.00115466
0.00514767
0.00247879
0.000377198
0.00127837
0.00159444
4.28487e-05
0.00346987
0.00672292
0.00438033
0.000436125
0.000302357
0.00329275
0.000663401
0.00586612
0.000533695
0.00487338
0.00672087
0.00323017
0.00444129
6.48152e-05
0.00236088
0.00672549
0.000306344
0.00944021
0.000472207
0.0067187
0.00823319
0.00524516
0.00378978
0.00671817
0.000382495
0.00571879
0.000575601
0.000123918
0.00652133
0.00570994
0.0126965
0.000582283
0.00672318
0.00137404
0.0037031
0.00671986
0.000723042
0.000445446
0.000152767
0.000463305
0.00049479
0.00672321
4.60743e-05
0.00654513
0.00530598
0.00780204
0.000422746
0.00163418
0.00672052
0.00672217
0.00199394
0.000466092
0.000656621
0.00108485
0.000264352
0.000824828
0.000567126
0.000393434
0.0041647
0.000549592
0.000145728
0.00128319
0.00873822
0.00649487
0.0067223
0.00585766
0.000467413
0.00221201
0.000584443
0.000347616
0.00017043
0.00273864
0.00409278
0.00144063
2.36405e-05
0.00543821
0.000196713
0.000230867
0.000415563
0.000545141
0.000407695
0.000395702
0.00178076
0.000308849
0.00290841
0.000395883
0.00149868
0.00241156
0.000677386
0.00119603
0.00123837
0.000518325
0.00671664
0.00147838
0.00673646
0.00286644
0.00490879
7.69788e-05
0.00672225
0.000469628
0.000864845
0.00672187
0.00672642
0.0067182
0.00523941
0.00208549
0.0106384
0.000678244
0.00175989
0.00032159
0.00672582
0.00672616
0.00893369
0.00672675
0.00672266
0.000294936
0.00672022
0.000232959
0.000323974
0.00672274
0.00552654
0.000430498
0.00139123
0.000739312
0.00990187
0.0019602
0.000200089
0.000778846
0.00672307
1.57086e-05
0.00177164
0.00204023
3.2691e-05
0.00230715
0.00051109
0.000545145
0.000881666
0.00200947
0.0039267
0.00416933
0.00287834
8.30019e-05
0.00672185
0.0100707
0.000700708
0.000422821
0.0067445
0.000213639
0.00757042
0.00317686
0.00416149
0.00297335
0.00286899
0.00417002
0.00672963
0.00672633
0.00687197
0.00117528
0.00938586
0.00536789
0.000277189
0.00385667
0.0067225
0.0067349
0.00112387
0.00672215
0.00151912
0.000958825
0.00272216
0.000313484
2.41613e-05
0.00672027
0.00794464
0.012562
0.000234438
0.000288717
9.81259e-05
0.000527107
0.00158516
0.000918112
0.0110793
0.00102904
0.000829569
0.00318858
0.00126269
0.000520077
4.88822e-05
0.00030047
0.00109118
0.00121676
0.00412063
0.000387205
0.000396192
0.00154373
0.000107331
0.0019528
0.00614276
0.00135563
0.0050798
0.00671841
0.00672031
0.0125193
0.0063312
0.00293149
0.000405814
0.000354326
0.00612705
0.00394474
0.000583222
0.00093136
0.00502275
0.0134366
0.000591762
0.00325215
0.00058501
0.00988518
0.00402881
0.00247647
0.00136006
0.00294965
0.00671748
0.00383921
0.000333999
0.013114
0.00845549
0.00290501
0.00672244
0.00045305
0.00672605
0.00672398
0.00104848
0.00310537
0.000269347
0.00059864
0.000158882
0.0108067
0.000240275
0.00672203
0.000465806
0.000221804
0.0099897
0.000731832
0.000525964
0.000406281
0.00325667
0.000412007
0.00366995
0.00177883
0.00675855
5.09184e-05
0.0138618
0.000153442
0.00672014
0.00312857
0.000308542
0.00043545
0.0067356
0.000684142
0.0020125
0.00207931
0.00119135
0.00672395
0.010332
0.00672633
0.000354163
0.00472701
0.00029909
0.00141256
0.00040305
0.0076718
0.000426077
0.00243481
0.00147269
0.00489049
0.00696816
0.00147748
0.00836037
0.00419795
0.000329218
0.00672592
0.000357272
0.000425549
0.000217739
0.00672192
0.000658725
0.000280566
0.00848738
0.0057345
0.00113471
0.000486221
0.000417274
0.000295873
0.00183579
0.00664452
0.00672594
0.0023329
0.000523939
0.00672346
0.000432077
0.00672163
0.00673586
0.00671957
0.0122927
0.00164341
0.00672567
0.000467234
0.000439667
0.00672132
0.00195045
0.00396467
0.00679097
0.000378884
0.000210915
0.00176036
0.00144657
0.000430532
0.000198008
0.000382429
0.00348938
0.000418801
0.00785414
0.000536415
0.000315473
0.00164824
0.00247783
0.0067561
0.00978419
0.000801452
0.0067182
0.00718045
0.00672231
0.00671941
0.000582356
0.00672011
0.000151809
0.0112855
0.00673429
0.00163099
0.00486335
0.000600626
0.00682359
0.00671951
0.0136809
0.001077
0.00361563
0.00672912
0.00672619
0.000307309
6.90516e-05
0.00158515
0.000240542
0.0123669
0.000441434
0.00672331
0.000296542
0.00161253
0.00162326
7.48305e-05
0.000293284
0.000613047
0.000879007
0.000313187
0.00177094
0.000398392
0.00671988
0.000889574
0.00226639
8.44395e-05
0.000409427
0.00239714
0.00719366
0.00132177
0.00672288
0.000840512
0.00110006
0.00671969
0.000622531
0.00030135
0.000337637
0.000444157
0.000959556
0.00773059
0.00672225
0.00672405
0.00444984
0.00672525
0.000304018
0.000388712
0.00141308
0.00672268
0.000394097
0.00672858
0.00374952
0.00106397
0.00030435
0.000167789
4.10855e-05
0.000233644
0.00672235
0.000573077
0.0102216
0.00672111
0.000422784
0.0014468
0.0110926
0.000924415
0.00973449
0.00671987
0.0011179
0.00672587
0.000416788
0.00324128
0.00198943
0.00169557
0.00672041
0.00678959
0.00672149
0.00625516
0.0002708
0.000976942
0.0139468
0.00317874
0.000670698
0.000885705
0.000296481
0.00541386
0.000936975
0.00672648
5.57868e-05
0.00672127
0.0032762
0.000858922
0.00261642
0.00681926
0.000760906
0.000576366
7.40706e-05
0.00117483
0.00523409
0.000261645
0.00671954
0.000843301
0.000957559
0.00672357
0.0108851
0.0119468
0.00672227
0.00235567
0.00069661
0.000446608
7.98354e-05
0.000556401
0.0128006
0.000290704
0.00671959
0.00672914
0.0106835
0.0034349
0.00369347
0.000936105
0.00324886
0.004509
0.000379985
0.000443029
0.0133196
0.000504662
0.000359397
0.00158874
0.00671983
0.00671555
0.00671917
0.00227809
0.00292207
0.000411435
0.00672272
0.00672565
0.00164878
0.00529869
0.000582194
0.000614039
0.000199456
0.00951928
0.000433306
0.000317696
0.000446873
0.00400034
0.000299497
0.00428991
0.00582334
0.000961958
0.00628498
0.00900183
0.00290577
0.00105708
0.000132235
0.0132118
0.00557268
0.000132121
0.000221865
0.00585775
0.00672035
0.000312163
2.24993e-05
0.000383215
0.00672019
0.00332374
0.000610973
0.00821751
1.92497e-05
9.7555e-05
0.00576509
0.0021824
0.000344776
0.000331143
0.00237385
0.000212859
0.00672311
0.0014134
0.000270981
0.00672088
0.00672303
0.0013768
0.000572434
0.00671962
0.00180018
0.00673785
0.000884099
0.000397162
0.00588702
0.00675265
0.000129295
0.00672523
0.000304557
0.000310869
0.000296737
0.00672335
0.00249681
0.000119249
0.000313793
0.000878532
0.00350778
0.000423556
0.00412301
0.00287009
0.00754153
0.000218372
0.000207121
0.00672331
0.00064087
0.00672216
0.000597739
0.00673594
0.000339401
0.00972147
0.00671934
0.00401762
0.00109181
0.00380468
0.00901849
0.00276839
0.000617221
0.00191199
0.00672307
0.00673611
0.00671988
0.000389538
0.00102045
0.0002332
0.00156009
0.00885381
0.00672986
0.00673053
0.00810031
0.00597043
0.0119608
0.00671855
0.000380109
0.000937569
0.00672889
0.00508491
0.00672205
0.00751977
0.00215118
0.00672375
4.28533e-05
0.000596927
0.00672065
0.000374421
0.000416041
0.00672209
4.30643e-05
0.00671969
0.000320323
0.00956125
0.000542459
0.00673
0.00045227
0.000466727
0.000304227
0.000617541
0.000499233
0.00688277
0.00109026
0.000434246
0.00672585
0.00675947
0.00672245
0.000905084
0.000428472
0.000770522
0.00447841
0.000906759
0.000604232
0.00312001
0.00033697
0.00635887
0.00672763
0.00132589
0.000159331
0.00672343
0.00279144
0.00672496
0.00341585
0.00672807
3.02309e-05
0.013314
0.00672276
0.00156855
0.00671939
0.00037988
0.00671925
0.00458695
0.000575418
0.0067257
0.00676371
0.00672239
0.00026265
0.00671922
0.00408302
0.00677822
0.00123636
2.47525e-05
0.000140672
0.0134976
0.00013452
0.00672507
0.00672595
0.000545652
0.00473811
0.000447009
0.000413275
0.000564716
0.000576708
0.00367622
0.000434675
0.0013596
0.00672268
0.000294828
0.0103389
0.000251452
0.00671892
0.00853209
0.000683095
0.00180829
0.000749979
0.000470804
0.00672257
0.00676165
0.00678315
0.000555235
0.00672228
0.00543519
0.0133145
4.25379e-05
0.000907801
0.00672588
0.000225222
0.000405014
0.0067219
0.00059764
0.000385267
4.70968e-05
0.000440054
0.00297403
0.00149953
0.000607933
0.00671934
0.000223543
0.00195711
0.000212321
0.000398145
0.000325991
0.00527669
0.00052215
0.013433
0.00793949
0.000379088
0.000213077
0.00212077
0.00672243
0.00672545
0.00189121
0.00030548
0.00672323
0.000962629
0.00033769
0.000541803
0.00672016
0.00672047
0.0039229
0.00672587
0.000391144
0.00804315
0.000888013
0.00672547
0.00236446
0.000321408
0.00672278
0.000966224
0.00677291
0.000329334
0.0015187
0.00544553
0.0104062
0.000168377
0.0127156
0.00320205
0.000438241
0.00543664
0.00797927
0.010796
0.00673875
0.000515627
0.000387925
0.00672312
0.00671942
0.000628548
0.00380943
0.00672238
0.000272693
0.000353377
0.00671996
0.000774024
0.0067227
0.0011834
0.000312773
0.00672308
0.0115353
0.000700208
0.00672047
0.000397817
0.000184532
0.00042154
0.00672619
0.000406326
0.00265394
0.0119947
0.00592432
0.00673662
0.00367696
0.00671753
0.0132291
0.00672066
0.000401517
0.00919006
0.00771073
0.00295075
0.00166437
0.00672287
0.00103079
0.000838348
0.000438124
0.00671439
0.00118248
0.00672304
0.0037651
0.000261646
7.08683e-05
0.000258662
0.00671987
0.00197918
0.000345007
0.00224373
0.000224006
0.00672978
0.00570364
0.00932937
0.00672237
0.00673769
0.00495188
0.0135911
0.00516553
0.00644401
0.0128274
0.0012012
0.00705369
0.000915934
0.00671668
0.00671928
0.00194874
0.00201103
0.00672569
0.0104708
0.0078696
0.00671936
0.00859276
0.000295016
0.0046871
0.00304796
7.50443e-05
0.00672456
0.000567085
0.00038554
0.00671998
0.000601319
0.00261059
0.000307691
0.00405706
0.00378823
0.000445312
3.05692e-05
0.000549408
0.0056278
0.00236571
0.00672242
0.000283942
0.00186027
0.00874129
0.00671783
0.00349073
0.000474856
0.00672586
0.000200908
0.0067174
0.00238435
0.00602549
0.000304362
0.000631986
0.000547402
0.000934746
0.00181451
0.00150618
0.000429315
0.0003301
0.00136783
0.00568154
0.00672519
0.0067227
0.00196529
0.00671901
0.000339107
0.000741574
0.000387235
0.00672019
0.000909118
0.00303289
0.00129344
0.00672083
0.000306067
0.00231368
0.0067292
0.0073757
0.0117702
0.00112655
0.006722
0.00212602
0.000760463
0.00372668
0.000209253
8.56588e-05
0.00796262
0.000943267
0.00870774
0.00263938
0.00421274
0.00671939
0.00806677
0.00479591
0.00672238
6.24352e-05
0.00483541
0.00672355
0.00672226
0.00141303
0.00112109
0.00672356
7.96756e-05
0.00812354
0.00151572
0.00671878
0.00202239
0.00726778
0.00679144
0.000481963
0.00672618
0.00671989
0.00410748
0.00672851
0.000410145
0.00374446
0.00430912
0.00558178
0.00672675
0.000402748
0.00672257
0.00469605
0.00322963
0.00550435
0.000328671
0.000610793
0.000208209
0.00150531
0.00327987
0.00672371
0.00672466
0.00942641
0.00477449
0.000441623
0.000133346
0.00939618
0.00672016
0.00672303
0.00998075
0.00672213
0.000166604
0.00033748
0.00213881
0.0114055
0.00876411
0.000295846
0.00191008
0.000831575
0.000418087
0.00673104
0.000381495
0.00672078
0.000240115
0.00672302
0.00607617
0.00206674
2.57513e-05
0.000105819
4.2801e-05
0.00672303
0.00986402
0.00672341
0.0127859
0.000480929
0.00671911
0.00673335
0.00533099
0.000413594
0.000144001
0.0130402
0.000766985
0.00578369
0.00671827
0.00472226
0.00185106
6.91171e-05
0.000343048
0.00672266
0.00672335
0.000738088
2.49161e-05
0.00491827
0.000395002
8.62381e-05
0.005212
0.00156324
0.00104542
0.000430523
6.47994e-05
0.00110718
6.89122e-05
0.00675111
0.0067229
0.00323452
0.000445285
0.000347119
0.0018803
0.00672689
0.00248003
0.000179937
0.000124753
0.0107268
0.00672836
0.00370807
0.0066818
0.000409577
0.00671707
0.00807167
0.00032723
0.00672098
0.000658033
0.00711282
0.00156854
0.00672082
0.000423672
0.00672572
0.00268095
0.00033501
0.00399889
0.00672603
0.00672339
7.19427e-05
0.00126784
0.00265174
0.000458625
0.00671501
0.000260011
0.00672546
0.00672892
0.000271676
0.00170436
0.00547977
0.00444163
0.00026758
0.00395367
0.000332422
0.00399996
0.00250533
0.00478888
0.00361363
0.01279
0.00673708
0.00896488
0.000177916
0.00634489
0.00613859
0.000401539
9.1023e-05
0.00672817
0.000407846
0.00672051
2.16705e-05
0.00671571
0.000570965
0.00282507
0.00672769
0.00876761
0.00285225
0.00355565
0.00144322
0.00737397
0.00672186
0.00672271
0.0058482
0.00594584
0.00677941
0.00672216
0.00209338
0.00672268
0.00672351
0.000508973
0.00672335
0.000444912
0.0067548
7.79222e-05
0.00382507
6.51453e-05
0.00741037
0.00132729
0.000508238
0.0067277
0.00671935
0.00302458
0.00367625
0.00854384
0.00382952
0.00672588
0.00672574
0.00101682
0.00672199
0.000336947
0.00052523
0.00737977
0.0130281
0.00367599
0.00830394
0.00678365
0.0048537
0.00691307
0.0120326
0.000634475
0.00216773
0.000814331
0.00673266
0.00127257
0.000347328
0.000414728
0.000845882
0.00319252
0.0067274
0.00671602
0.00416906
0.000341204
0.00323422
0.00671587
0.000768636
0.00672202
0.00175208
0.000632206
0.0048069
0.00867473
0.000435249
0.00064499
0.00500896
0.000291717
0.00672211
0.00571587
0.00677588
0.00596812
0.00255825
0.00505772
0.000251989
0.00681651
0.000311195
0.000310977
0.00149109
0.000465225
0.00229744
0.00173897
0.00406377
0.00698726
6.8663e-05
0.0131509
6.09875e-05
0.000656689
0.000492774
0.000965797
0.00672776
0.000297195
0.00130509
0.0067227
0.00370615
0.00674046
0.00306224
0.00672523
0.0121276
0.000623234
0.0067194
0.00530867
0.00630907
0.000123194
0.000108198
0.00103195
0.00261177
0.00534517
0.00671949
0.00656086
0.000370036
0.000122611
0.00671516
0.00883183
0.000721441
0.0127562
0.00672099
0.0030473
0.000164803
0.00672854
0.00672267
0.00483756
0.00574478
0.0131975
0.00153787
0.00671929
0.00201084
0.00672141
0.012738
0.000486351
0.0067222
0.000696662
0.00533021
0.00183644
0.00850022
0.00676723
0.00667431
0.00672203
0.00677567
0.00672806
0.0034991
0.00671437
0.0020055
0.000436331
0.000507563
0.00671946
0.0023647
0.00141906
0.0121005
0.00167208
0.000213647
0.00996523
0.0127844
0.00475821
0.000755718
0.00672044
0.00574143
0.00147023
0.000626314
0.00877028
0.000443435
0.000421788
0.00265072
0.000986885
0.00672112
0.00782089
0.000172841
0.00660473
0.00368356
0.000308681
0.00117746
0.00671804
0.000702851
0.0006906
0.00672886
0.00930868
0.00672226
0.000793923
0.00672112
0.000410077
0.000312375
0.00032925
0.000598138
0.000451755
0.000615986
0.000805607
0.000987096
0.00676325
0.0103385
0.00036735
0.00672576
0.000309801
0.000492446
0.00116274
0.00622262
0.00182916
0.00672322
0.00674784
0.00402481
0.0100046
0.0010774
0.00672182
0.00232647
0.00672218
0.00672212
0.000645625
0.0115024
0.0020354
0.00227379
0.00608757
7.371e-05
0.00376333
0.00241825
0.0126859
0.000528925
0.00671714
0.0011897
0.00292681
0.00320147
0.000720024
0.00176036
0.000511156
0.000395728
0.000103345
0.0044947
0.0100527
0.00672114
0.0073768
0.00672584
0.00131172
0.00788994
0.00672301
0.00557451
0.00672599
0.00102594
0.000357284
0.00672017
0.00122148
0.00264756
0.000919538
0.000272695
0.00143288
0.00672149
0.00875545
0.00673751
0.000355431
0.000455831
0.000598884
0.00672255
0.00519455
0.0073854
0.00671827
0.0067196
0.00198598
0.00038163
0.000519635
0.000298637
0.000803188
0.00672868
0.00120752
0.00245239
0.00160561
0.0128324
0.00672335
0.00031534
0.0115615
0.000319768
0.00607036
0.000345401
0.0067635
0.0067241
2.87489e-05
0.000312159
0.000345313
0.00672491
0.00649149
0.000652256
0.000425714
0.00390222
0.00169018
0.00517769
0.00255005
0.00671939
0.0038575
0.00808816
0.00671715
0.00719921
7.30443e-05
0.000936521
0.00672986
0.00421548
0.00834747
0.00675338
0.00672863
0.00535179
0.00197604
8.82719e-05
7.68918e-05
0.000413192
0.00672311
0.00122284
0.00043261
0.00672799
0.0122214
0.000293526
0.0050063
0.000483389
0.000505902
0.006722
5.82259e-05
0.00672286
0.000131338
0.00160691
0.00107477
0.00671531
0.00499571
0.000290093
0.00325408
0.0124529
0.000603464
0.00334667
0.00354237
0.00672053
0.00672916
0.0120126
0.00672583
0.000269272
0.00672056
0.00673457
0.000401881
0.00763426
0.00671962
0.00672139
0.00464905
0.00163253
0.000710801
0.000863177
0.00582234
0.00176692
0.00671844
0.000296187
0.013303
0.00203261
0.000807165
0.00801248
0.000607917
0.00215221
0.00045868
0.00672989
0.00359794
0.000941847
0.00672222
0.000499714
0.00422632
0.00669569
0.0038587
0.00863369
0.00314123
0.000631864
0.0132531
0.000524192
0.00171024
0.0067195
0.00364374
0.00672595
0.000537456
0.00674077
0.000417461
0.000547838
0.000573977
0.00131386
0.00659387
0.00080036
0.00672452
0.00630352
0.00520588
0.00672146
0.000607281
0.00672046
0.000449213
0.00630695
0.000143653
0.000640832
0.00191862
0.00273786
0.00838322
5.43142e-05
0.00671902
0.000994202
0.00672231
0.00671815
0.00672773
0.000787291
0.00447776
0.0013309
0.00168766
4.89558e-05
0.0035857
0.000615735
0.00672112
0.000153243
0.00581783
0.00243591
0.00124727
0.0132271
0.00315208
0.00072593
0.000770248
0.00672827
0.000910237
0.00564368
0.00300504
0.00672666
0.00672575
0.000930451
0.00672072
0.00672773
0.000498235
0.00109867
6.49487e-05
0.00286361
0.0067214
0.00684435
0.00672068
0.000272278
0.00566396
0.00671697
0.00068026
0.00672796
0.0129482
0.00474657
0.000766482
0.00599661
5.12181e-05
0.000532024
0.00294722
2.99919e-05
0.00672245
0.000216582
0.00237777
0.000901651
0.00672471
0.00672122
0.000308769
0.000328959
0.00969912
0.000418131
0.00021774
0.000689499
0.00322887
0.000578902
0.00220027
0.012275
0.00902032
0.00545933
0.00603563
0.00671465
0.0042981
0.00693633
0.00672239
0.00397421
0.0067225
0.00087035
0.00671483
0.0040867
0.00449434
0.00493039
0.000293577
0.000185527
0.000414578
0.00512465
0.00672459
0.00671663
0.00671943
0.00671815
0.00672544
0.00672257
0.0106785
0.00851255
0.00839485
0.00119638
0.00885098
0.000411815
0.0133499
0.0087691
0.000440799
0.00672194
0.00195368
8.12937e-05
0.00175412
0.00189324
0.00280388
0.00172915
0.00671714
0.00135743
0.00917829
0.0067238
0.0110184
0.00474028
0.00672188
0.0129416
0.0067293
0.000389001
0.00672304
0.00793072
0.00675679
0.00506079
0.000310329
0.00674369
0.00672274
0.00434095
0.00671828
8.94409e-05
0.00614412
0.000379369
0.00672122
0.00672422
0.0067268
0.00288726
0.000509908
0.00216121
0.0125016
0.00672195
0.00675112
0.000369597
8.15815e-05
0.00239364
0.0120204
0.0111057
0.000878862
0.00856018
0.00672183
0.00347549
0.00047534
0.00675306
0.00854686
0.0082646
0.00671826
0.00190102
0.00530638
0.00224735
0.000547046
0.000638649
0.00672261
0.000571473
0.00021925
0.000502118
0.00082973
0.00672036
0.00248893
0.00608894
0.00672282
0.00684008
0.00671393
0.0067224
0.000557013
0.00258741
0.000449244
0.0119719
0.00672007
0.000201925
0.0039674
0.00359488
0.00252824
0.00672548
0.00672277
0.0067255
0.00672195
0.0067232
0.0016584
0.00303185
0.00292503
0.00672582
0.00208976
0.012981
0.00291293
0.0021395
0.0071326
0.00672414
0.000437005
0.00659309
0.000408507
0.0133532
0.000250711
0.0130531
0.00054763
0.00365098
0.00549258
0.000728669
0.00565406
0.000353984
0.00116682
0.00672458
0.00536363
0.00263964
0.00674589
0.000323672
0.00538954
0.00674446
0.00635342
0.000262917
0.00671942
0.00453352
0.00673946
0.00321393
0.00881869
0.00232175
0.00672203
0.00494158
0.00672276
0.00134373
0.000174606
0.00156329
0.00026637
0.000202432
0.00672371
0.0110402
0.000936681
0.00555086
0.00582405
0.00674778
0.000852088
0.00671987
0.00205209
0.00177045
0.00887625
0.00409052
0.00672012
0.00163426
0.00232366
0.000717198
0.00672861
0.00750692
0.00048419
0.000185201
0.000743809
0.0118363
0.00039962
0.000955845
0.00331694
0.00308125
0.00672197
0.00122326
0.00997065
0.000917287
0.000362415
0.00294472
0.00672043
0.000297244
0.000265328
0.00137925
0.00672696
0.000246305
0.0067292
0.000282538
0.000231576
0.000572973
0.011335
0.00672122
0.000561486
0.000504301
0.00382114
0.000305447
0.00529234
0.00135804
7.36322e-05
0.000329378
0.00521748
0.00672634
0.00672471
0.000401614
0.00671888
0.00369791
0.00544169
0.00672137
0.00675599
0.00021767
0.00671547
0.000332578
0.00983903
0.00163735
0.00673759
0.00674748
0.00027645
0.000258092
0.00672229
0.00534769
0.000122246
0.00672802
0.00671724
0.0115552
0.00978371
0.00671919
0.000355675
0.000229373
0.00672393
0.00369111
0.00374072
0.000301899
0.00672477
0.00225396
0.0117709
0.00672532
0.000738384
0.00793809
0.000510219
0.00781778
0.00672495
0.000669609
0.0108234
0.00957071
0.00115419
0.000591382
0.00147233
0.000687372
0.00276802
0.00530099
0.00979761
0.00635345
0.00276782
0.0031417
0.000517979
0.00439717
0.000312131
0.000958424
0.00276729
0.00675707
0.00672363
0.00558333
0.00440614
0.00671915
0.000420077
0.00992162
0.000441212
0.00672763
0.00672196
0.00148378
0.00110712
0.00117943
0.00672283
0.000649103
0.00640206
0.00671832
0.00425445
0.000690707
0.00036135
0.00672232
0.000533209
0.00176142
0.0010538
0.000428165
0.000421947
0.0110007
0.000461823
0.000163303
0.00584877
0.00671923
0.00418206
0.00141491
0.0136173
0.00102664
0.000492698
0.00672429
0.00860486
0.00063692
0.0067289
0.000803189
0.00192245
0.0104562
0.000407372
0.000794704
0.00019112
0.000398553
0.00672278
0.00672391
0.00672494
0.00126252
0.00883543
0.000732458
0.00672207
0.000279855
0.00471484
0.0135729
0.00507498
0.0132333
0.000833682
0.012807
0.000710245
0.000143108
0.00426795
0.00672615
0.00671932
0.0115089
0.00437907
0.000674856
0.00573478
0.00671491
0.00338833
0.000319533
0.00508336
0.000533654
0.00672071
0.00496149
0.00629932
0.00112016
0.00521989
0.00595591
0.00672461
0.0014376
0.00155711
0.00181434
0.00374368
0.0041787
0.000539063
0.000566803
0.00232271
0.000277958
0.00021596
3.53612e-05
0.000400984
0.00673832
0.00392543
0.00149882
0.00955907
0.00555778
0.0067213
0.00672975
0.00674165
0.00671496
0.00391792
0.0067185
0.00021183
0.00968496
0.000744611
0.00968258
0.000697966
0.0067241
0.00672226
9.77371e-05
0.00672438
0.00237056
0.00672194
0.00650548
0.00180038
0.00671878
0.00283981
0.00673012
0.00609978
0.00672591
0.00672226
0.00644855
0.000285311
0.00193441
0.00513377
0.00033
0.00672882
0.00247479
0.00044832
0.00045719
0.000308222
0.00170048
0.00672227
0.00699946
0.00279011
0.000565502
0.00169543
0.00673832
0.000349034
0.00672106
0.0132195
0.00673993
0.00588526
0.0114336
0.000419526
0.00201434
0.00671823
0.000355812
0.000266636
0.000361438
0.00721585
0.00671909
0.00673793
0.00674175
0.000132671
0.0012411
0.000932538
0.00672426
0.000787524
0.00669654
0.000297965
0.00672498
0.000132908
0.000561451
0.00420856
0.000938052
0.00221053
0.00157777
0.00394489
0.00586389
0.00236885
0.01136
0.00675091
0.000539007
0.00577055
0.000137689
0.010067
0.00939099
0.00452437
8.015e-05
0.00672543
0.000418203
0.006725
0.00195217
0.000498778
0.000332908
0.000295919
0.0067225
0.000672451
0.00188935
0.000329007
0.000395798
0.0140199
0.00672291
0.00179639
0.00686169
0.000274011
0.00530135
0.00109481
0.0113506
0.000583939
0.00672124
0.000172349
0.00401591
0.00997198
0.00672773
0.00893008
0.000435339
0.00677048
0.000288191
0.00238828
0.00672597
0.00295041
0.000632652
0.00671915
0.00181373
0.0067183
0.00267678
0.000312223
0.000348619
0.00135813
0.00808792
0.00672578
9.43051e-05
0.000329767
0.00218307
0.000929693
0.00129166
0.00316931
0.00672466
0.0088753
0.00809234
0.00326098
0.00675615
0.000631548
0.00672247
0.0102168
0.00672188
0.000477767
0.0079511
0.00318534
8.59615e-05
0.00361072
0.000431859
0.0079242
0.000787094
0.00672376
0.00672228
0.00672312
0.014126
0.000620101
0.000301875
0.0122847
0.00285573
0.00672405
0.00702416
0.000370058
0.000322566
0.00672333
0.00597387
0.00539752
0.000542969
0.00302836
0.000698631
0.00676042
0.00672211
0.00671851
0.00823093
0.00745015
0.000934139
0.0002589
0.00143642
0.000571176
0.00672597
0.00672309
0.000425066
0.00271598
0.00672926
0.000573114
0.000157641
0.00103759
0.00026445
0.00283575
0.000451554
0.0135832
0.00247528
0.00678314
0.00300561
0.0132893
0.000324202
0.000144935
0.000412318
0.00622913
0.00481472
6.79124e-05
0.00146241
0.000438695
0.00688914
0.000421451
0.0099164
0.00429956
0.00707355
0.000546109
0.001858
0.00671968
0.000335719
0.0115926
0.00672271
0.000307856
0.00651868
0.00672227
0.000332805
0.000236702
0.000364558
0.00622494
0.0004865
0.00226205
0.00672235
0.00677412
2.44252e-05
0.00277488
0.000832078
0.00121574
0.00671938
0.00672348
0.00301519
0.00527899
0.00672755
0.000635968
0.001148
0.000828999
0.00672275
0.000326435
0.00745136
0.00767712
0.00110227
0.00804629
0.000460518
0.000182612
0.000233226
0.00321149
4.67036e-05
0.000239268
0.00673804
0.00629254
0.00185963
0.00134945
0.000331712
0.00835238
0.00672434
0.000569605
0.000256292
0.000277165
0.00384627
0.0003155
0.0103585
0.000318937
0.00943169
0.000487722
0.00871485
0.000568772
0.00600465
0.0024441
0.0126882
0.00618487
0.000362113
0.00437193
0.00627941
0.00881299
0.00947615
0.0067213
0.00671732
0.000431997
0.000460149
0.00748233
0.00227278
0.00020945
0.00671787
0.00484177
0.00672435
0.00764218
0.000566543
0.00460436
0.001758
0.00200611
0.000285279
0.0079006
0.0011025
0.00721558
0.00672529
0.00672442
0.000633506
0.00672309
0.00893164
0.000300421
0.010047
0.00272103
0.00605425
0.00350661
0.00671523
0.00025948
0.00738921
0.000146435
0.00671779
0.00163368
0.00672147
0.0108075
0.00671457
0.00182029
0.0101188
0.000969504
0.000154355
0.000465774
0.00671726
0.00202335
0.000328169
0.00338589
0.00675804
0.00671841
0.000941534
0.00560423
5.00276e-05
0.0067259
7.46576e-05
0.00561841
0.00672219
0.00746388
0.00523206
0.00682009
0.00457549
0.00672216
0.000362405
0.0038814
0.0066859
0.00672304
0.00240288
0.000506118
0.000901746
0.00671836
0.0088862
0.00322752
0.00978646
0.00672025
0.00759358
0.00449407
0.000607689
0.00614744
0.00029113
0.000338672
4.43053e-05
0.00765532
0.00015525