/*--------------------------------*- C++ -*----------------------------------*\
| =========                 |                                                 |
| \\      /  F ield         | OpenFOAM: The Open Source CFD Toolbox           |
|  \\    /   O peration     | Version:  v2012                                 |
|   \\  /    A nd           | Website:  www.openfoam.com                      |
|    \\/     M anipulation  |                                                 |
\*---------------------------------------------------------------------------*/
FoamFile
{
    version     2.0;
    format      ascii;
    class       volScalarField;
    location    "800";
    object      omega_0;
}
// * * * * * * * * * * * * * * * * * * * * * * * * * * * * * * * * * * * * * //

dimensions      [0 0 -1 0 0 0 0];


internalField   nonuniform List<scalar> 
18758
(
0.0254596
0.183788
0.0217219
0.0253084
0.0265788
0.020469
0.0212808
0.0226064
0.0258119
0.0253873
0.208183
0.273733
0.61375
0.0224788
0.0212609
0.0211452
0.322917
0.0195841
0.0212521
0.0237877
0.544648
0.273323
0.0205678
0.0204487
0.313938
0.241513
0.497464
0.0968429
0.0725404
0.226737
1.04876
0.669053
0.0225068
0.810679
0.0272903
0.248222
0.549732
0.0265991
0.324771
0.0199843
0.321158
0.0265557
0.212764
0.02176
0.0214542
1.14585
0.0257021
0.0721369
3.23401
0.0251466
0.234834
2.57412
0.0250318
0.0240917
0.14243
0.398277
0.0207872
0.0235918
0.0650863
0.0207256
0.0216952
0.0216425
0.444554
1.93446
0.0217216
3.77549
0.0215948
0.0198604
0.0955738
0.0196002
2.68903
0.273031
0.0212096
0.0257917
0.0631752
0.956892
1.54472
0.389537
0.0260859
0.206259
0.0857858
0.483504
0.358404
0.0387022
0.0228316
0.119064
0.0246204
0.0263312
0.449957
0.118523
2.77467
0.0224706
0.065009
3.42802
0.0211997
0.0207492
0.0197343
0.0502841
0.419278
0.0210933
1.09951
0.0281692
0.0198536
0.0207457
3.77828
0.538779
0.0724789
2.87343
0.761088
0.229184
0.0211696
1.91009
0.0266808
0.0215685
0.0282176
0.228557
0.0487433
0.020509
0.29024
0.0237373
0.0214373
1.4958
0.0230015
0.0205198
2.05508
0.0241785
0.0213392
0.020522
0.119032
2.29475
0.0665662
0.0225717
0.0262425
3.79947
0.0200217
0.0215334
1.61225
0.022866
0.122884
0.0836357
0.0283735
0.341065
0.0415976
1.1434
2.11504
0.047737
3.95564
0.107235
0.186426
0.380238
2.7997
1.90712
0.0215794
0.0275172
0.317955
0.301514
0.0644304
0.122523
0.0411715
0.212254
2.16168
0.0206223
3.15613
3.95504
1.37594
0.0208728
0.0206125
2.47419
2.4126
0.240025
2.07923
0.0218354
0.0793739
0.33099
0.460214
0.0210609
0.0211989
0.213736
0.568812
0.021969
0.0197859
0.02414
0.136634
0.0223959
2.23091
0.0213586
0.224103
0.0324227
3.80082
1.62759
1.90529
0.021349
0.0615756
1.68795
0.0196943
0.0223116
0.141065
0.0215694
3.95984
0.0205954
0.0220011
0.134495
0.77907
0.0211437
0.0211721
3.56142
0.0209906
0.0283384
2.62478
1.98585
0.0210352
0.0658133
0.0222753
0.0222443
0.0230828
0.0197529
0.0214238
0.0647401
0.0201553
0.305077
1.462
0.0208797
0.0405685
0.135555
1.02996
0.31254
0.0671736
0.118934
2.25245
0.0209663
0.24293
0.0474231
0.277992
0.0218228
0.0209884
0.0209393
0.0736993
2.75016
0.163385
0.02187
0.0211814
0.067255
0.105477
0.0212873
0.487055
0.180563
0.0209999
0.0206399
0.0215352
0.021093
2.16411
0.0216267
0.250127
0.02104
0.0210132
0.192592
0.0208265
0.300955
0.0212669
1.03268
0.0268893
0.0205409
0.0210114
0.059025
1.58382
1.38704
0.020551
0.116654
0.021594
0.0213809
1.06745
1.28675
0.0213525
0.0209017
0.0242928
0.0229209
0.0252354
0.0200428
0.0224421
0.0224705
0.0206397
0.0226995
0.0212158
4.00157
0.0212717
0.0208851
0.0195591
0.101349
0.0207296
0.0207343
0.0214569
0.0220254
0.0207416
0.0207954
0.0211149
0.0224916
0.326174
0.0230305
0.0206149
2.20405
0.0236446
0.0209529
0.0209741
0.226499
0.23765
0.0197806
0.0588862
0.530711
0.0217903
0.482827
0.021219
0.84029
0.131807
0.0767307
0.0718585
0.961037
0.0198308
0.258188
0.150053
0.0215972
0.0732323
0.0391136
0.309058
0.0209693
0.0198373
2.08133
0.310243
0.0207534
2.03614
0.0566271
0.0325265
3.69039
0.0209638
0.0209225
0.0212499
0.0215467
0.0220093
0.0227983
0.0226477
0.0210357
0.0219466
0.0218652
1.01886
0.222091
0.0226656
0.248956
0.426893
0.0207397
0.0312152
0.239962
0.315608
0.384145
0.145839
0.0213594
2.11075
0.950345
0.034594
0.0218606
0.0327573
0.0222996
0.0216111
0.152429
1.6863
0.410309
0.0857908
1.66523
0.0209988
0.0249943
0.0244644
0.0503777
2.90813
0.194448
0.190761
0.151115
0.320817
0.154099
0.0211048
3.2944
0.112333
0.234709
0.416958
0.0210784
0.0204178
0.280765
0.393621
0.338322
1.68966
2.02035
0.0219015
0.292293
0.15274
0.021155
0.0223969
0.0230031
0.0225322
0.0214246
0.0224178
0.0214203
0.0232482
0.0212889
0.0216138
0.0285957
0.701474
0.0271798
1.21212
1.2173
2.70042
0.756936
0.104849
0.0221258
0.0205085
0.21948
0.0223903
0.021897
1.45963
0.0490151
0.0563953
0.0208647
0.908541
0.0213967
0.0237269
0.0197444
4.22469
1.12136
0.354867
0.0211161
3.65599
0.0638484
0.0213911
0.0223033
0.0210612
0.157013
0.0210954
0.020773
1.30731
0.0274679
0.0219208
0.0211887
0.0225355
0.0237841
2.02844
0.0764038
0.0215767
3.6238
0.0197378
0.0230653
0.114528
0.0214072
1.12665
0.0215966
0.0239565
0.021622
0.18518
0.0229334
0.0214145
2.41332
0.2343
0.0195642
0.0249965
0.0232947
0.0211457
0.0210811
0.0221343
1.63226
2.22028
0.0216516
0.0323857
1.64008
0.206094
0.20485
0.177636
0.225316
0.0203993
0.0990365
0.0608875
0.0277257
0.0224692
0.312923
0.0385116
0.027909
0.0206955
0.0212784
0.020733
0.0214057
0.0207271
0.0214236
0.708215
0.0220965
0.019703
0.0628924
0.0224689
0.0216119
0.0199821
0.0230592
0.0386665
0.547774
0.0210093
0.243942
0.0207956
0.0272846
0.12497
2.1008
0.207913
0.021264
0.0213703
2.18664
3.76133
0.0303626
0.0208168
0.0961363
4.02705
0.0195563
0.0206649
2.27671
0.0231286
0.0861767
0.0293497
0.022658
0.0322833
0.0206472
0.0210186
0.0223298
0.0208305
0.0209424
0.0216829
0.40353
0.0197892
0.0442282
1.65378
0.0195625
0.0197889
0.0223452
0.0250378
0.0279141
0.0804538
0.0211018
1.66587
0.0271898
0.0277289
0.0208374
0.0214006
0.0217113
0.0216686
0.0216576
2.1229
2.05525
0.0206348
0.020921
0.0219814
2.4694
0.0197544
0.0197793
0.0214391
0.019713
0.0208552
0.0208077
0.0225617
0.0211421
0.0673921
0.0210998
0.0201062
0.0900871
2.07491
0.0263129
0.0214161
0.0210845
0.0217411
0.0211863
0.023271
0.0612805
0.2463
0.0219981
0.799938
0.0210723
0.0321067
0.0214474
0.0206099
0.0480612
0.019602
0.0208828
0.624646
0.0216594
0.0223598
0.078654
0.0211544
0.0213116
4.23106
0.0204787
0.717109
0.204955
0.0209131
0.0216482
0.0366645
0.0228714
0.0280122
0.0210454
0.98008
0.769535
0.23219
0.0206671
2.33619
0.0196885
0.0210329
0.0211148
0.0244602
1.52665
0.108988
0.0212626
0.0223257
0.0234668
1.74263
0.0897087
0.0210601
0.0897599
0.023731
2.54115
0.0260905
0.0390183
0.0207661
0.0242894
0.0490277
0.0209215
0.0207699
0.0197597
0.020705
0.0251206
0.067902
0.22295
0.613065
0.0369586
0.0237504
0.0211179
0.0205943
0.0882673
0.30329
0.020026
0.0408106
1.90517
2.12622
0.021223
0.021151
0.040804
0.139865
0.0196772
0.238238
0.0211851
0.0229932
0.0285408
0.0214712
0.0216642
0.0220649
0.0206767
0.0222023
0.071659
0.0476387
0.302292
0.0221691
0.0208722
0.271231
0.0198013
0.66187
0.401595
0.0211971
1.58967
0.0229698
0.0215429
1.61853
0.319688
0.319256
1.63701
0.0227308
0.663713
0.0198002
2.65622
2.66678
0.0329831
0.0211327
0.221757
0.0235729
0.0508569
0.115355
2.17626
0.0215471
0.439289
0.0206576
0.0422454
0.0784882
0.0208333
0.0282604
1.47543
0.715247
0.0253655
0.0226775
0.0197041
0.0218591
0.0227389
0.0319499
0.0767111
0.0209425
0.230978
0.0235414
0.0213633
0.0253263
0.0197509
0.0993636
0.0212024
0.0207094
1.27185
0.0206181
0.0225625
0.350933
0.0647688
0.0685623
0.0213907
0.0213496
0.0464309
0.0213371
0.108175
0.0235078
0.023292
0.0221787
0.021337
0.0196899
2.37451
0.0197506
2.12939
0.147819
0.0220184
2.96937
0.02044
0.02999
0.0251359
2.58643
0.0233912
0.067561
0.27588
0.0210799
0.316092
0.0203133
0.109972
0.0213594
0.021745
2.80463
0.418634
0.0211838
0.0215373
0.0225736
0.0205785
0.0213845
0.292937
2.42667
0.0207888
0.0205649
0.0203246
2.18423
0.103379
0.126894
0.0206679
0.0796151
0.021739
0.0213733
0.0275701
0.39747
0.0210635
0.041895
0.0915919
0.0224753
0.0825617
0.0213875
0.0260974
0.0210636
0.0205516
0.0250466
0.0213962
0.0506498
0.0213929
3.9007
0.0216272
0.0236259
0.0702734
0.693585
0.0411154
0.0206301
0.0213266
0.330306
0.0831974
0.047089
0.020827
0.0210827
0.0257688
2.34533
0.412439
0.0207464
0.0211695
0.0219675
0.0215086
0.0222593
0.0211689
0.0212242
0.212585
0.0211949
0.0213186
0.318193
0.0206573
0.193468
0.0781798
1.29999
0.336848
0.310019
2.36973
0.021178
0.021094
0.0230401
0.0207748
0.0210648
0.0206099
0.0207578
0.0218248
1.99591
0.125
0.0887589
0.0226266
0.0210574
0.0275657
0.0282492
0.0521269
0.021224
0.0223096
0.0205059
2.79387
0.966302
0.388565
0.0218094
0.0789034
0.108635
0.0698194
2.27686
1.04533
0.0223501
0.0265193
0.0201767
0.476335
0.0215249
0.0198688
0.064883
1.09884
0.021161
0.267133
0.0941526
0.0212288
0.0211302
0.0212437
0.0211851
0.0212677
0.0229409
0.0278027
0.0212475
0.0215373
0.791139
2.68336
0.021241
0.31204
0.221091
0.022084
0.021405
0.0208216
0.0203102
0.0228127
0.0220682
0.0210978
0.0216664
0.0227286
0.021528
2.35788
0.0253755
0.0209688
0.0211965
0.258764
0.0215587
0.0198585
2.60093
0.0210777
0.031179
0.0250563
0.0213287
0.0208036
0.0205557
0.0240719
0.0382613
0.0211525
0.288056
0.0542682
0.0954255
1.03053
0.0219156
0.344181
0.0197996
0.0901444
0.022044
0.0211101
0.139469
0.204966
0.0216594
0.139408
0.259545
0.0203389
0.0278144
0.0198593
0.0219492
0.0254514
0.0222948
0.0211371
0.173595
0.0210316
0.0209144
0.153576
0.020899
0.0210618
0.0208028
1.71957
0.0212304
0.021362
0.0274861
1.53672
0.259208
0.180158
0.427929
0.0210327
0.0197294
0.021338
2.1426
0.0221212
0.0209164
0.0228995
0.0204453
0.104952
0.0215565
0.0215113
0.473612
0.0211394
0.0642205
1.03728
0.0197268
0.0212402
0.983009
0.0228655
3.12536
0.230415
0.0205908
0.0214058
0.738813
0.0206879
0.0229554
0.328633
0.0200696
0.527763
0.0212302
0.0211569
0.0212584
0.0281573
0.022377
0.527328
0.0225002
0.0209816
0.47396
0.280974
0.0387776
0.0266617
0.171828
2.38398
1.61312
0.0196804
2.26032
0.0217668
2.27785
0.779566
0.0208171
0.0236109
0.021575
0.129209
0.0207781
2.52165
0.0208942
0.930276
0.129236
0.0206719
0.0196971
0.0211865
0.143743
0.106273
0.0211859
0.845634
0.0215996
0.0210621
0.527859
0.021284
0.233413
0.0208172
0.0230424
0.0209535
0.0208196
0.0209913
0.0207819
0.0708017
0.0275776
0.0292542
0.0297671
0.0217384
0.0212261
0.194824
0.0212573
0.529178
0.0215446
0.325614
0.025084
0.202133
0.0207664
0.0210197
0.0210368
3.19237
0.0209458
0.372661
0.0504025
0.0213961
0.0250472
0.0212532
0.0206311
0.0231869
0.0209185
0.192635
0.0211955
0.0224649
0.0211889
0.0225451
2.64123
0.862663
0.0213414
0.0208151
0.0215448
0.0216672
0.0211132
0.0230692
0.0218319
0.0211776
0.0204305
0.0206892
0.181206
0.0842142
0.0212671
0.0204391
1.29137
0.0222082
0.286621
1.46165
0.0217656
3.9747
0.0226993
0.020794
0.0214379
0.0229121
0.0529583
0.0205567
0.0304533
0.353977
0.0272833
1.36544
4.90437
2.22004
0.0289559
0.0215118
0.0214207
0.276221
0.0204105
0.0213331
0.0280012
0.212184
0.0210381
0.0207208
2.0517
0.0232747
0.0223584
0.0230611
0.0230964
0.0273379
0.0214129
0.0235296
0.0212008
0.0298775
0.0225788
0.021676
0.0216265
0.541562
0.0217028
0.0212364
0.288405
0.0196971
0.0209771
0.0211549
0.0220772
0.0217699
0.850941
0.103319
0.243461
0.186378
1.99009
0.309814
0.0221853
2.0381
0.296466
0.0213345
0.0219653
0.021433
0.0214221
0.0221346
0.0221129
0.0738619
0.100817
0.0213122
0.0202803
0.0384017
0.0225764
0.310846
0.021041
0.0218936
0.0210694
0.174898
0.505925
0.0276866
3.73956
0.0211076
0.0210798
0.0676748
0.0267674
0.0210649
0.0950258
0.0217429
0.0235841
0.149783
0.0753084
0.0295886
0.0213125
0.021883
0.0217775
0.0206762
0.301491
0.0674176
3.11657
0.0593609
0.524692
0.0216997
2.94717
2.69195
4.85042
0.111334
0.28773
0.0257585
0.249201
0.0965466
0.0313649
0.0195823
0.0211603
0.0213664
0.0366526
0.0208141
0.0210853
0.0322734
2.17742
0.304548
0.321329
0.0776117
0.540408
0.0281619
0.0234948
0.0212464
2.16746
0.164241
0.0205961
0.0278475
1.16084
2.22455
1.93384
0.0313053
0.0469698
0.0197388
2.94178
0.021698
0.32358
0.127384
0.0288416
0.12136
0.100687
0.0213954
0.0212204
0.540937
0.0635074
0.182215
0.0216988
0.0217312
0.0233868
0.354954
0.0239434
0.266089
0.0217459
0.186276
0.243849
0.0243509
0.0794894
0.0648737
2.20585
0.019738
0.0332287
2.51687
0.0264477
0.0211599
0.254653
0.544617
0.0211314
0.0212543
0.19437
0.0223337
0.0221375
0.299729
0.251381
0.0214408
0.0275306
0.789574
0.0281897
0.022803
0.0226966
0.238209
0.0243227
0.0208121
0.02099
0.0914737
0.0207731
0.437367
0.0204653
0.0206773
0.292298
0.0219973
0.0211106
0.0362637
0.0196896
0.0229915
0.0205231
0.0210766
0.0214911
0.0841416
0.0216406
0.271193
0.144366
0.549511
4.62476
0.0235206
0.020583
0.020776
2.47243
0.0249014
0.0211442
0.284021
0.0296928
0.30473
0.0201653
0.0204495
0.0205895
0.0208906
0.0212121
0.0199129
0.0220266
0.0222934
0.0212961
0.244247
0.0303901
0.244339
0.0220311
0.0205274
0.0236542
3.22422
2.87769
0.436671
3.52227
0.367818
0.0935114
2.76495
0.0226113
0.0350472
0.0414094
2.19017
0.0209769
0.717056
0.225252
0.145339
0.0211788
0.422578
0.0210543
0.0212418
0.0210042
0.0287892
1.91733
0.257617
0.0215392
0.0196194
0.0206405
0.0201719
0.0299168
0.0213418
2.70528
0.0579299
0.0344459
0.0217859
0.0211403
0.0198783
2.07953
0.159569
0.0209731
0.0212083
0.118101
0.0201579
0.0213389
0.0203395
0.0211809
0.0214764
0.0215352
0.0205422
0.0660983
0.0228234
0.176309
0.0239705
0.0216127
0.238889
0.0217136
0.517927
0.0216201
0.048327
0.104136
0.138335
0.0336951
0.0816324
2.21802
0.0227319
0.0298768
0.0223747
0.021168
0.0205311
0.020941
0.0702334
0.0335957
0.0235027
0.0680213
0.020514
0.0217626
0.0328895
0.325292
0.0196767
0.0404716
0.227933
0.112506
0.108275
0.0219996
0.021494
1.96643
0.0284773
0.0208562
0.0211235
0.113714
0.0205628
0.0206581
1.04958
0.0543892
0.0224005
0.0220232
0.0215795
2.94474
0.0234317
2.56024
2.31236
0.0212224
0.0210122
0.828965
0.0300603
0.028195
0.0221743
0.0334564
0.0237309
0.0208264
0.0235753
0.144559
0.0360891
3.1967
0.162967
0.0325059
0.335326
0.81865
0.0209457
0.428921
2.38385
0.02269
4.6871
0.0216248
0.166625
0.0740652
0.422758
0.031867
0.154595
0.0278549
0.305507
0.0210552
0.0198681
4.64975
0.0229714
0.0211394
0.0211818
0.0216315
0.0199346
0.0218947
0.0209879
0.0211685
4.09514
1.31716
0.021088
0.0221519
0.599977
0.28205
0.0197147
0.169772
0.303013
0.0425407
0.0213568
0.0209792
2.07973
0.0216619
0.0486524
0.0809568
0.0206665
0.0270404
3.87149
0.0208035
0.288391
1.63339
2.64258
0.0218469
0.0208187
0.0212913
0.021324
0.0211946
0.259424
0.192937
0.0202731
0.130164
0.345993
0.022272
0.0215182
0.0211979
0.0880005
2.09289
0.113299
0.0362646
0.0228178
3.73099
0.314146
0.0205704
0.0210679
0.025227
0.0327601
2.10723
0.292933
0.0207699
0.0916438
0.312367
0.0233258
0.0208678
0.0215362
0.0233188
0.0210176
0.0219379
0.0206477
0.0583334
0.170708
0.0213307
0.0215068
0.0301696
0.0206767
0.0210797
0.02213
0.18109
0.0206067
0.0224751
2.10252
0.147546
0.0714076
0.0790153
0.021798
0.0220723
0.022625
0.020458
0.0210743
0.0219076
0.369921
0.0395865
0.0221085
0.025314
0.0204939
0.122125
0.495249
0.021196
0.530672
0.0208361
0.0224463
0.159911
2.01626
0.0238651
0.0231289
0.0233251
0.0505744
0.0197286
0.295454
1.95666
0.020635
0.0730837
0.172018
0.02133
0.0222597
0.188018
0.06544
0.0215494
0.374897
0.0238461
0.0211781
0.828974
0.254136
0.0678575
0.0208423
1.62925
0.0316341
0.0198613
0.0448389
0.0275978
0.0217358
0.0864566
0.909579
0.360056
0.0406281
0.123012
0.0206193
0.695117
0.250599
0.163487
0.211334
0.0213307
0.776914
0.0213308
0.0210235
0.0427833
0.0219606
0.163408
0.191905
0.0215749
2.79642
1.48839
2.62119
0.0267346
0.0610753
0.01968
0.0216977
0.0229617
0.0196573
0.165777
1.29198
3.96095
0.23433
0.113261
0.34541
2.10134
0.0211883
0.0228224
2.42333
0.0560066
0.0213327
0.02113
0.718642
0.0306427
0.0254468
0.0212354
0.0214695
0.216808
0.0211335
0.0777718
0.2253
0.0199219
4.89119
0.0201938
2.06795
0.189134
0.656113
0.022422
0.548139
0.0215491
0.0210739
0.0221313
2.11828
0.0329448
0.414527
0.0213183
0.0211258
0.110466
0.835222
0.0215684
0.119422
0.206003
1.9319
0.917902
0.0208619
0.0213529
0.342556
0.0196717
0.0202595
0.0236927
0.021206
0.0216825
0.0208328
0.0211205
0.0235959
0.0211682
0.0285236
0.0286381
0.0213168
2.62062
2.16895
0.0242942
0.0202957
0.0212847
0.029542
0.0213483
0.0212405
0.0213331
0.108376
0.0211322
0.0232
0.0228355
0.03903
0.368242
0.0209119
0.0305027
0.105437
0.025335
0.0657693
0.0394175
0.0208265
0.0211881
0.0897359
0.0648157
0.0231331
0.708153
0.311622
0.0212907
0.402639
0.021975
0.0628769
0.630367
0.792225
3.27884
0.0228554
0.021074
0.917804
0.0230845
0.377136
0.0295088
0.551384
2.0679
0.0209797
0.0391542
0.0210659
0.0417999
0.0790448
3.04454
0.0210005
0.0213295
0.0861027
0.0216481
0.837265
0.0209117
0.315012
1.42994
0.0415915
0.428841
2.07655
0.0208487
0.0208987
0.021335
0.41969
0.238218
0.021744
0.0226147
0.0217718
0.0203052
0.0283532
0.0208751
0.0204264
0.410837
0.0216987
0.0203966
0.0238544
1.79423
1.35394
2.65494
0.0215215
0.0592785
0.0249769
0.0247091
0.118685
0.736727
2.10724
0.0205847
0.0415803
0.0197122
0.0333503
0.0320902
0.0513018
0.531094
0.0220544
0.0782572
0.0203423
0.176508
0.23461
0.0204278
0.0222931
0.0225313
0.0225779
2.48246
0.0213113
0.0213481
0.0219289
0.0216551
0.0203831
0.0223193
0.0212952
0.0217021
0.021345
0.0211103
0.280071
0.433674
0.553361
0.0200661
0.0197258
0.019789
0.0201054
0.0198909
0.0341723
0.0198295
0.0206222
0.021246
0.0208548
0.0279248
0.0212557
1.60898
2.0308
0.0380377
2.26601
0.0215178
0.276119
0.0319984
0.227962
0.0207387
0.839401
0.0220481
0.0213401
0.0213473
0.0631363
0.0908044
0.0209157
0.0490972
0.0280181
0.0211624
0.111072
0.0750713
0.029735
0.0208964
0.023122
0.28729
0.0230335
1.2289
0.0209226
0.022098
0.0213387
0.0226006
0.03054
0.288704
0.0313609
0.0204082
0.651174
0.0262909
0.0257816
0.0210588
0.0240752
4.56611
0.0209424
0.0217296
0.0266858
0.14923
0.0199038
0.0210191
0.0204998
0.0304553
0.0217735
0.539086
0.0213485
0.024776
0.0269446
4.02493
0.0206666
0.0204462
0.0197224
0.0287833
0.0202901
1.03541
0.455921
0.0296099
0.313331
0.021275
0.472651
0.0213805
0.0205913
0.0836903
0.0503149
0.151885
0.293664
0.239382
0.218665
0.0275617
0.0329523
0.022189
0.200896
0.0213443
0.0225243
0.396498
0.0216471
0.335558
0.210037
0.17473
0.336121
0.301258
0.665308
0.524745
0.0797667
0.0224645
0.0745549
0.0213436
0.0204216
0.0210344
3.31803
2.35234
0.378652
0.0244452
0.0234074
0.356578
0.0209338
0.0550157
0.020438
0.0336944
0.021201
0.0199129
0.0224236
0.0400998
0.377342
0.0293522
0.0268428
0.0204732
0.0433885
0.606614
0.0203644
0.0550803
0.34977
0.0196665
0.0604816
0.0205769
2.09872
0.0220341
0.583312
0.0218242
0.0214909
0.0256178
0.0792786
2.53059
0.0259026
0.149988
0.0224806
0.0213291
0.021346
0.0215153
0.0203971
0.0213017
2.51379
4.79817
0.0300927
0.0210599
0.0253494
0.0232579
0.021561
0.0213223
0.0820173
0.361688
0.199911
0.0212113
0.377926
0.0205725
0.0647374
0.0224463
0.0390033
0.214063
0.365325
0.198246
0.01994
0.0212976
0.0209479
0.0211505
0.0213406
0.0211308
2.55978
0.0215568
0.0218531
0.0218022
0.034232
0.0211322
2.23444
4.28201
0.312133
0.0213511
0.241933
0.020385
0.380657
0.156383
0.022388
0.311582
0.0234712
0.0650167
0.0207942
0.0220968
0.0270971
0.0446182
0.0987241
0.496437
0.140525
0.135176
0.0352365
0.0220554
0.0211877
0.36353
0.0230137
0.855481
0.0219999
2.81753
1.48408
0.262732
0.0222187
0.101664
0.0232596
0.0210092
0.0201862
0.0226775
0.0670788
0.0212416
0.132435
0.0592992
0.103006
0.0210871
0.0251713
0.234028
0.286516
0.375699
0.024118
0.0290881
1.04648
0.0830714
0.0216843
0.0439181
0.182211
0.0643638
1.67552
0.0245656
0.0256175
0.186242
0.0198976
0.281801
0.0487358
0.0213299
0.244856
0.312893
2.61909
0.0230489
0.116036
0.0259735
0.0204455
0.0496464
0.0219874
0.183565
0.0208046
2.08935
2.39529
0.787534
0.215458
0.111531
1.51174
0.0236718
0.0273838
0.185818
3.53737
0.0223571
0.0218845
0.0210236
0.0255121
0.0199309
0.0210538
1.43155
0.0210444
0.0206395
0.0283235
0.0219322
0.0198295
0.027331
0.964791
0.0636088
0.0213517
0.0213466
0.0273737
0.0222789
0.0210445
0.0209512
0.0204209
0.988449
0.0246142
0.0610145
0.0257864
0.0212008
0.0198964
0.208962
0.138824
0.0833934
0.0305679
0.0216348
0.0328652
0.020944
0.0266504
0.0993414
1.84947
0.0420084
0.0230378
0.0203739
0.0264095
0.426054
0.323281
0.374343
0.0243083
0.0204618
0.0206061
0.0238976
0.0730815
4.11621
0.0205005
0.383006
0.0198927
0.0209339
0.0814922
0.0208629
0.842712
0.0848864
0.375819
0.0198444
0.0340781
0.0393199
2.96753
0.0204242
0.021648
0.153021
0.521035
1.43454
0.415609
2.06
0.0223079
0.18379
0.0244103
0.0348254
3.2872
0.0246035
0.0209389
0.0215411
0.0201013
0.0782456
3.42043
0.0239877
2.62568
0.0201668
0.0209496
0.0214928
0.118116
0.0271641
2.49355
0.0213913
0.0218316
0.0305652
0.360204
0.0203744
0.374426
0.0208728
0.0227561
2.06525
0.0208666
0.407695
0.682608
0.420359
1.35676
0.0212683
0.0232334
0.0225839
2.26462
0.0594826
0.0213649
2.99917
0.229331
0.0196587
0.0224334
1.43734
0.0204562
2.17998
2.08714
0.0241294
0.0197299
0.0235569
0.0249157
3.77473
0.0205829
0.0326143
0.0223048
0.324627
2.94557
0.0212292
0.0202363
0.147655
0.0250801
0.0214826
0.0210293
0.0208916
0.0509318
0.0227218
0.100614
0.0219128
0.0218874
0.0210172
0.0224545
0.0242449
0.0226759
0.616802
0.194233
0.344938
0.0217537
0.0203631
0.479288
0.0259028
0.0667739
1.34801
0.1108
0.281838
2.08772
0.0203391
0.130784
0.142808
0.0221619
0.0208343
0.0213948
0.0213788
2.47743
0.308002
0.0213491
4.67138
0.466871
4.78912
0.0197812
0.0206333
0.331495
0.0208965
0.0214548
0.0240517
0.0210285
0.207972
0.0227844
3.23885
0.400814
0.0208268
1.8003
0.0640652
0.327934
2.05434
0.0212801
0.0236728
0.0317775
0.417622
1.92951
0.19431
0.0217031
0.0213958
0.082166
0.0204565
0.302072
0.846406
0.0209328
0.0820901
0.0204333
2.20606
0.0214995
0.2834
0.0220902
2.42849
0.198891
2.24517
2.78728
0.0200855
0.158954
3.93348
0.0218137
3.14727
0.0217426
0.0199796
0.0211928
0.0256788
0.0233603
0.0215128
0.0209855
0.0676311
0.0395539
0.0425699
4.51296
0.0526051
0.0277994
0.0221315
0.0548431
0.0202153
0.10799
0.33526
1.76558
0.357429
0.0225668
0.0231766
0.0221752
0.0272411
0.0226539
0.0210697
2.25199
0.798456
4.4061
0.0252051
0.0215259
0.0418734
1.83875
0.0219415
0.020433
0.0223324
0.0224277
0.038574
0.0212489
0.336177
0.021682
2.92117
0.020619
0.222681
0.523827
1.29198
0.0200772
0.104596
0.0213447
0.0204459
0.0661386
0.647822
0.0210044
0.0219941
2.21974
0.0212812
0.0532625
0.377316
0.0258385
0.80956
0.0214366
1.5713
0.0274716
0.297083
0.0203523
0.0205676
0.749826
0.0208247
0.300524
0.0237078
0.0274447
2.72432
0.0221932
0.0213945
0.0220168
0.0210343
1.64086
2.7247
0.0204473
0.365983
0.0334221
1.80851
0.0211997
0.0768307
0.251277
0.0255916
0.0276823
0.0213599
4.66578
0.0200092
2.50157
0.0203403
0.0207703
0.0232169
0.021548
0.0206774
0.0598741
0.0228664
0.0210115
0.293419
0.0204851
0.0416974
0.0247759
0.420532
0.0470602
0.0208057
0.0306062
0.0209762
0.0209503
0.0235223
2.04711
0.0438941
0.28363
0.293899
0.0204093
0.0211239
0.02125
0.0209059
0.020263
0.291545
0.0198516
0.023611
0.193343
0.0220639
0.203477
0.0214812
0.0204162
4.04448
1.76058
0.0215635
0.0471731
0.0241127
1.90921
0.0210545
0.0225555
0.683367
0.0216362
0.0418496
0.158882
0.022012
0.0220689
0.378241
0.0238197
0.051559
0.255405
1.59066
0.0230743
0.0240032
0.0325342
0.390259
0.0218424
0.850372
0.80596
1.67293
2.44346
0.0205089
0.0213632
0.021161
0.252596
0.467932
0.683636
2.12138
0.0200605
0.105412
0.0205712
4.71361
0.0211859
0.0350917
0.0975975
0.0220602
0.021947
0.119604
0.0244057
0.0217021
0.0219066
0.0586489
0.0229029
0.020928
0.0980877
0.0217602
0.0217542
0.0211063
1.33278
0.0258316
0.277924
0.0267871
0.0227564
2.31514
0.0241821
0.0855688
0.0204314
0.0211718
3.68286
2.05247
0.489713
0.0214137
0.0236062
4.51012
0.0875117
0.0895206
0.114501
0.309109
0.599213
0.0203929
0.465936
0.0206651
0.0624552
0.24889
0.108615
0.108838
0.0222188
3.57172
0.0641978
0.197922
0.0403991
0.021054
0.0213389
0.0213113
0.195387
0.0205281
0.299365
0.0660107
0.365637
0.0202674
5.10064
3.17588
0.306412
0.302292
0.0221081
0.0216652
0.0210722
0.0257249
0.021373
0.0247077
4.58529
0.0210031
0.0221907
2.08784
0.305649
0.225973
0.0249229
0.0289031
0.0207864
2.62214
0.0225238
3.55613
0.0397742
0.118118
0.0287239
0.107828
0.638374
0.0212773
0.0211821
2.58509
0.051339
0.611801
0.13777
0.0430836
0.0209311
0.0692597
0.0214176
0.0715483
0.0213816
0.0224844
0.305476
0.0219677
0.107925
0.0205626
3.67412
1.34074
0.0263251
0.0274741
3.30313
0.0261353
0.02033
2.74223
3.13014
2.44592
0.020893
0.0217477
0.562581
2.44623
3.36408
0.0214807
0.0228862
0.0215709
0.0250156
0.0217066
0.020672
0.983644
0.0209377
2.72844
0.0232104
0.0955075
0.0200751
1.75059
0.17855
0.108668
0.30918
0.462075
0.0206516
0.0708145
2.45878
0.0208508
0.0216686
0.0213095
2.85731
2.3955
0.0214768
2.08558
0.0354065
0.0212367
3.35284
0.0226599
0.0630082
2.71778
3.87537
0.0211981
2.57389
0.0235831
0.0203348
2.07546
0.0401862
0.212186
0.348384
0.0496855
3.20024
0.373768
0.0255016
0.974516
2.38097
2.10337
0.0220206
0.0200349
0.0211132
0.0223921
0.270187
1.77015
2.50702
1.9536
0.0242927
0.0200214
0.0207657
0.0234869
0.306031
0.0211988
0.380336
0.296981
0.020398
0.0221567
2.07096
0.0567756
1.368
0.261461
0.021328
2.24275
0.188289
1.41686
0.0223927
0.0241905
0.0406876
0.0213224
0.0226835
0.103136
0.0239521
0.0828262
2.11816
0.0219201
0.0917435
0.428672
0.0474675
0.0376719
0.294121
0.212364
1.15364
0.0213572
0.519453
4.01471
0.0402832
0.0220182
0.0205392
0.0217224
0.0219928
1.2048
0.0224314
2.08806
0.0224602
0.0212358
1.96935
0.163865
0.0203193
0.0211238
0.384866
0.360638
0.0213784
0.0205954
0.0246959
0.0248138
0.171367
0.0619315
0.0205662
0.102712
0.0219918
0.37619
0.0733444
0.382505
0.0212564
0.0423455
2.03454
0.367948
0.0219929
0.369601
0.241633
0.254075
0.0202671
0.022411
2.25221
0.132948
0.0626619
2.84054
0.0214219
0.0628422
0.0227043
0.050746
0.0677465
0.47375
0.12533
0.0270431
0.0207841
0.0311864
0.185225
0.0213421
0.0321346
0.316381
0.0686148
0.0206746
1.8802
1.73623
0.0659793
0.0224625
0.0215399
0.0215077
0.0241913
0.0364171
1.88903
0.102569
0.0205779
0.0212891
0.232235
0.227957
0.0214429
0.321626
0.390874
0.0226767
2.3692
2.32759
0.0203688
3.03218
0.513853
3.14408
2.6995
0.0207716
0.126167
0.115733
0.0220646
0.0239508
0.350952
0.199593
3.18584
0.0344335
0.0212899
0.0244674
1.04831
0.0287026
0.301299
0.0197667
0.0216853
2.73878
0.204274
0.0324832
0.107454
0.05929
0.0229107
1.62702
0.787105
0.184579
0.394858
0.0564247
0.061536
0.0213089
0.0213064
0.0580017
0.275328
2.5574
0.274226
0.108533
0.319156
0.270203
0.0283803
0.0209716
0.0217404
0.066838
1.20801
0.0205122
0.0606436
0.518321
0.102067
0.274845
0.0774604
3.0264
0.0217383
0.0226971
0.381604
0.0369676
0.0217586
0.0222876
0.245535
0.0320876
0.059124
0.0204358
0.0212984
0.208126
0.381253
0.0222502
0.251332
0.28786
0.0765521
0.0223951
0.408793
0.0210443
2.59961
0.096057
3.19352
0.0215298
0.154433
0.0200592
0.0212977
0.537603
0.307216
0.0913527
0.020421
0.188578
0.477475
1.29123
0.875359
0.0401428
0.0223024
0.294018
0.163199
0.0212197
0.0209458
0.16912
0.718046
0.267922
0.0252305
3.87378
0.0203977
0.0217596
0.0727233
0.06537
0.0211766
0.34868
0.0214334
0.021512
0.0220406
0.0222789
0.444625
0.242085
0.0196504
0.0826547
0.0208899
0.0323501
0.359322
0.0218696
0.310419
3.59427
0.19256
0.196698
0.0214641
3.03711
0.0224392
0.129666
0.0207597
0.121687
0.0388561
0.024462
0.0214599
0.105073
0.0597672
0.164716
0.409233
0.0218034
0.0203088
0.328833
0.123566
0.0305604
0.576756
0.023779
3.52305
0.0214707
0.170296
0.113735
0.383028
0.0202473
0.334053
0.0519237
0.133661
0.0224395
0.0238469
0.0241946
0.0236028
0.024196
0.0240689
0.0240316
0.0210466
0.0885936
3.51167
0.523126
0.0243179
0.0212031
2.26032
0.880603
0.0211989
0.0616841
0.0239364
0.0230961
0.188756
0.190124
0.0203009
4.35593
0.0216879
0.285154
0.168841
0.14913
0.0238515
0.0218318
0.0232048
0.0204848
0.0226204
0.29695
0.288907
0.030943
0.225456
0.139563
0.0213522
0.045259
1.42245
0.0214996
0.0241456
0.170287
0.023863
0.0549886
0.023828
0.0238161
0.047063
0.256986
0.0903707
3.46413
0.0246312
0.191916
0.063727
0.174148
0.0637445
0.0265591
0.021056
0.024063
0.136148
0.294807
0.472887
0.0209762
2.29232
0.156166
0.281956
0.120399
0.122428
3.28933
3.11171
0.0197631
0.0906974
0.0237001
0.164209
0.216367
0.20192
0.0211175
0.301418
0.0493113
0.11139
0.0210416
0.647878
0.0237485
0.145683
0.0239393
0.101183
0.153103
0.024739
0.0208486
0.0217074
3.0795
0.0207704
0.704792
0.0595481
0.222519
0.0273701
0.38757
0.0673882
0.0212099
0.0207977
3.03699
0.0231784
0.0208516
0.0211445
0.225713
4.65224
0.104669
0.0213875
0.0366216
0.205771
0.340969
0.0434197
0.02096
0.184009
0.256817
0.0259303
0.0232857
0.0208076
2.05511
0.0205825
3.65403
0.291224
0.0411858
0.103104
0.0372454
0.0204035
0.0225832
0.116455
0.0231752
0.0255713
0.021093
0.021659
0.39207
0.127965
0.0409004
0.0205242
4.05447
0.0663388
0.262082
0.0212035
0.0300453
0.024171
0.127666
0.021245
0.0531401
0.25229
0.0879675
0.0242602
0.0208265
0.02583
0.025631
0.0456221
0.0202957
0.0223868
0.0215584
0.0214979
2.7222
2.16892
0.2746
0.0406184
0.0219926
0.0196784
0.289648
0.814396
2.03335
0.0237813
0.100945
0.0212981
0.0217227
0.0722582
0.0207417
1.77089
0.0217426
2.85718
0.0202381
2.63035
0.0214379
0.268696
0.222361
0.0392678
0.158448
0.0196762
0.442891
0.0204396
0.108763
1.3513
0.147169
0.0206323
0.0749173
0.102577
0.0676393
0.0954333
0.0302156
0.101891
0.0200768
0.0358422
0.020427
0.242581
0.193289
2.15465
3.93367
0.0216891
0.327269
0.0209313
0.0213595
0.16316
0.0201213
0.0210255
0.0210854
0.0210151
0.180895
0.0223343
0.0230317
0.0219543
0.021399
0.0210775
0.0224095
0.0239474
0.0214484
0.0311229
0.0357981
0.030064
0.127858
0.0231354
0.0580779
0.286557
0.0564476
0.0464896
0.100483
0.182182
0.055297
2.00937
0.347628
0.272693
0.0204709
0.020899
0.0234352
0.0199044
0.0967105
0.0298911
0.0202305
2.80072
0.595071
2.20594
0.0359508
0.0585799
0.0400408
0.0213808
0.519381
0.111263
0.0222635
1.94294
1.90694
0.0215461
0.131776
1.02907
0.233639
0.125275
0.0611648
0.0501534
0.0206822
0.0198637
0.691266
0.300507
0.693909
0.0236522
0.0211022
2.31882
0.0305547
0.0229964
0.0198472
1.36274
0.0202976
0.0240177
0.0266094