/*--------------------------------*- C++ -*----------------------------------*\
| =========                 |                                                 |
| \\      /  F ield         | OpenFOAM: The Open Source CFD Toolbox           |
|  \\    /   O peration     | Version:  v2012                                 |
|   \\  /    A nd           | Website:  www.openfoam.com                      |
|    \\/     M anipulation  |                                                 |
\*---------------------------------------------------------------------------*/
FoamFile
{
    version     2.0;
    format      ascii;
    class       volVectorField;
    location    "800";
    object      ddtCorrDdt0(U);
}
// * * * * * * * * * * * * * * * * * * * * * * * * * * * * * * * * * * * * * //

dimensions      [0 1 -2 0 0 0 0];


internalField   nonuniform List<vector> 
18758
(
(-0.00945971 0.000279134 5.9235e-18)
(0.00619144 -0.00160597 9.04758e-17)
(9.35525e-05 -2.29285e-05 1.37009e-20)
(-0.0734805 0.0347577 3.19778e-18)
(-0.01093 0.0218488 -6.22677e-18)
(-0.0280712 -0.00178331 6.26789e-18)
(0.00851685 0.000452573 6.53688e-17)
(-0.000123215 -0.000190528 -4.66557e-19)
(-0.00528912 0.0179256 2.19339e-18)
(-0.00276186 -0.000196198 -7.19927e-20)
(-0.00127963 -0.00138141 -1.2231e-19)
(-0.0121359 0.00135877 6.47978e-17)
(-0.000137825 3.72765e-06 3.80587e-18)
(-0.0229557 -0.0448344 3.19236e-17)
(0.00184153 -0.00139632 4.36557e-20)
(-0.00473234 0.0102196 -2.85984e-17)
(-0.00382609 -0.00539118 -9.13068e-18)
(-0.000183243 -3.73617e-05 -2.23008e-18)
(0.000334063 -0.000672719 5.79835e-18)
(-0.00334536 -0.000305269 7.09716e-19)
(0.0293983 0.00263048 -1.53257e-18)
(-6.99378e-06 0.000106091 2.26244e-18)
(0.0032189 -0.00135836 -8.65506e-18)
(-0.0250224 0.0326679 2.95949e-17)
(0.00185343 -0.0204184 1.07211e-16)
(-0.000126382 -0.000173115 2.60887e-19)
(-0.00844564 0.011243 -6.4296e-19)
(-0.0209016 0.0199489 -1.09517e-17)
(-0.0521718 -0.00922586 2.15716e-17)
(-0.0162259 0.0113981 -5.80057e-18)
(-0.00901605 -0.0155635 -5.09253e-18)
(0.0452177 0.00178171 4.31211e-18)
(-5.01671e-05 1.73103e-05 -1.29819e-18)
(-8.85778e-05 -0.00137993 1.89509e-18)
(-0.02506 -0.00978099 -5.02592e-18)
(-5.81522e-05 0.000737605 -2.06914e-18)
(-1.91813e-05 2.55482e-05 7.66302e-19)
(-0.000458965 -0.000938405 2.44457e-19)
(-0.000588416 -0.00108388 2.34676e-18)
(-0.00449826 -0.0045008 -7.95106e-18)
(-0.000407997 -0.000921861 2.36107e-18)
(-0.00179118 0.00154669 -4.02253e-18)
(2.75476e-05 -0.000309459 -1.22648e-19)
(-0.00223734 0.000726861 2.99566e-18)
(-0.0176659 0.00314886 5.08278e-18)
(2.37325e-05 -7.03573e-05 -8.06123e-19)
(0.00424158 -0.00160242 -8.73184e-18)
(-0.00161341 -0.00121325 2.15964e-18)
(-0.00270261 -0.000158792 2.27671e-19)
(8.56508e-05 -0.000210908 -8.38327e-20)
(-0.00276009 -0.0073698 -2.97627e-17)
(0.0135188 0.014381 5.14128e-19)
(7.75571e-05 -4.76843e-05 -6.41411e-20)
(-0.00121993 -0.00136266 1.09288e-18)
(-0.0260608 0.0184 6.97034e-18)
(-0.0442341 -0.00691384 5.38118e-17)
(-2.56788e-05 2.91621e-05 -7.2993e-19)
(-0.0027894 0.00925488 2.22259e-18)
(-0.000599886 0.000821895 -3.22642e-19)
(-0.0277522 -0.0443888 -6.58562e-18)
(-0.00842533 -0.00124672 4.18507e-19)
(0.00780166 0.000608678 -4.192e-17)
(-0.00502406 0.00616094 -3.04998e-17)
(-0.00112507 0.00103445 -8.51622e-18)
(7.61144e-05 -5.21054e-05 -5.82055e-20)
(-0.000139272 7.6249e-05 3.70392e-18)
(-0.00472087 -0.00533386 -1.86248e-18)
(-5.72776e-05 2.16491e-05 -9.962e-20)
(-0.000392833 -0.000861557 -2.00158e-18)
(0.0143254 0.0134865 5.84459e-18)
(0.0114722 0.0151652 -3.88145e-18)
(-0.000682671 0.00128571 7.54435e-18)
(7.77951e-05 -0.000230288 -8.41299e-20)
(0.0007944 -0.013345 2.70353e-17)
(-9.90958e-05 -0.000394993 -5.3539e-20)
(-0.000647735 0.000742752 -3.02083e-19)
(-0.0250981 0.0135132 -2.33395e-17)
(-0.00756918 0.0214632 1.5641e-18)
(-0.00655062 0.00469072 1.08593e-18)
(0.00562221 0.00120163 4.62864e-17)
(-0.0112536 -0.0119961 -6.18215e-17)
(-0.0171544 0.0036154 5.67542e-17)
(-0.0293412 -0.0425369 -2.80249e-17)
(-0.0297701 0.00363021 -2.41135e-17)
(-0.0267591 0.0125877 -1.97385e-17)
(-0.00199012 -0.00224386 5.18171e-18)
(-0.0100776 0.00386484 5.81711e-18)
(-0.00456413 0.00578919 3.33095e-17)
(0.00490428 0.000520479 4.84156e-17)
(-0.000647849 0.000729582 3.58001e-18)
(-0.0358978 0.00288035 -9.34988e-19)
(-0.000559592 0.000816201 -6.43626e-19)
(-0.00172424 0.00244947 -2.27256e-17)
(-0.00185816 0.0016048 -5.8258e-18)
(-0.0125196 -0.0124555 -1.46465e-17)
(-0.000353912 0.0021633 -1.31697e-16)
(-0.0275515 0.0114207 1.13209e-17)
(-0.000100563 -0.000407898 -2.93683e-20)
(-0.000444604 0.000437238 3.98084e-18)
(0.0293126 0.00336113 2.92057e-18)
(-0.00344756 -0.000512195 -1.99597e-18)
(-0.0436156 0.00317724 -2.08536e-17)
(-0.0126706 -0.00220466 -2.94307e-18)
(-0.00358744 -0.00249772 -1.52159e-17)
(0.0474059 0.00116686 4.67352e-18)
(-0.0145091 0.0104451 8.01831e-18)
(0.0343331 0.0132365 5.1921e-18)
(-0.00438325 0.0224101 -3.2609e-18)
(-0.000977567 -0.00116513 8.81198e-19)
(-0.000317595 0.00147841 4.51943e-18)
(-0.00175593 0.0022647 7.64926e-17)
(0.000326398 0.0113368 2.70809e-18)
(-0.000167995 -8.75616e-05 3.21993e-19)
(-0.000954582 -8.5127e-05 7.50518e-18)
(0.000932233 0.0245012 -7.60944e-18)
(-0.0520142 -0.00235152 1.33423e-16)
(-0.064378 2.32693e-05 -4.67239e-17)
(0.00193403 -0.00134354 2.76822e-18)
(-0.000228344 0.000986709 5.68163e-18)
(-0.0131932 -0.0134616 -1.10356e-17)
(-0.00231328 -0.00183876 4.51691e-18)
(-0.000275328 0.000718296 5.7683e-18)
(-0.0526303 -0.0115905 -5.57381e-17)
(-0.00587644 0.0112788 -1.56925e-17)
(-0.0149698 0.000168308 4.83088e-17)
(-0.0157883 0.00625316 7.84382e-20)
(0.016439 -0.00228609 -8.25748e-17)
(-0.0030742 0.0285242 -1.56958e-17)
(-0.000617299 0.00235922 5.84507e-17)
(-0.000139418 -6.2636e-06 6.70092e-19)
(-0.00413312 -0.0054764 -9.06117e-18)
(-0.00818309 0.0108429 -5.26839e-18)
(0.0320317 0.000902129 -8.19454e-18)
(-0.00476042 0.00278435 1.18397e-17)
(-0.00165316 0.0133373 1.12139e-17)
(-0.00160568 0.000860116 -5.66116e-18)
(-0.0239667 0.01313 3.3571e-17)
(-0.00483566 -0.00446321 5.20135e-18)
(-0.000446687 0.000426 9.19126e-19)
(-0.00438694 0.00564001 -1.05017e-17)
(-0.00628064 0.00487836 6.10689e-18)
(-0.00941707 0.00632789 2.07562e-18)
(-0.000852378 0.000245009 2.88326e-19)
(-0.0523237 -0.00296044 -8.88867e-17)
(-0.000400772 -0.000924411 -1.68054e-18)
(0.00049209 -0.000752228 -1.65454e-18)
(-0.00952395 0.00441567 -4.8752e-18)
(0.0592626 0.0142458 -4.52825e-18)
(-0.00815583 -0.0159866 6.2582e-18)
(0.0291819 0.0309824 9.17488e-18)
(-0.0191239 0.0020445 -1.86035e-17)
(-0.0208506 0.00904774 1.2545e-17)
(-0.00200186 -0.00211189 -1.93209e-17)
(3.81632e-06 8.98301e-05 -2.34078e-18)
(-0.00228898 -0.00911031 6.24897e-18)
(-0.00192821 -0.00178042 9.08108e-18)
(0.00221438 0.0012642 3.16116e-17)
(-0.00166151 -0.00119202 -1.1478e-18)
(-0.000970559 0.000646647 3.03508e-18)
(-1.08701e-06 3.9802e-05 2.00958e-18)
(-0.0003532 4.16558e-06 1.8645e-18)
(-0.0307227 -0.0387804 3.88807e-18)
(-0.00100786 0.0024244 -1.05902e-16)
(-0.000971875 0.000615897 3.2688e-18)
(-0.00822145 -0.00134651 3.57711e-18)
(-0.0490166 -0.0100153 1.79545e-17)
(0.000242367 -0.000747068 2.88729e-18)
(-0.045126 -0.00583973 -2.78626e-17)
(-0.0104099 -0.00586717 8.5263e-18)
(-0.0218151 0.00370898 -2.12772e-17)
(-0.0314557 -0.00928687 2.33179e-17)
(-0.000186992 -3.99932e-05 -1.7515e-18)
(-0.0013961 0.00249185 2.94528e-18)
(-0.0185392 0.0204616 -2.01404e-17)
(-0.0309323 -0.0370687 -3.76608e-18)
(-0.0269284 0.030823 -2.33269e-17)
(-0.0316889 -0.000199861 -2.32717e-18)
(-0.00115977 0.00103581 -1.42696e-18)
(-0.00430689 0.00560087 1.3987e-17)
(-0.000793065 -0.000951491 -3.12085e-19)
(-0.000172325 8.16597e-06 -3.80775e-19)
(-0.0386121 -0.000392509 3.55468e-17)
(-0.0420409 0.0110683 -1.56175e-17)
(0.000161799 -0.000270897 3.85063e-19)
(0.000239384 -0.00298312 -2.92831e-18)
(-0.0526666 0.0130965 -9.03519e-18)
(-0.000473655 0.000596765 -3.245e-18)
(-0.0507561 -0.00331728 -1.27089e-16)
(4.42494e-05 -0.000264896 5.43808e-19)
(-0.000430331 0.000573195 -5.56856e-18)
(-0.00500247 0.00274762 -1.92006e-17)
(-0.00215242 0.0271293 -6.89789e-18)
(-0.00128277 -0.000298505 6.35694e-19)
(-0.00741385 -0.0153421 5.01752e-18)
(-0.00365919 0.00112167 -2.48709e-18)
(-0.00379039 0.00613472 -1.05659e-17)
(-0.00338263 -0.000331206 -6.52776e-19)
(-0.0105689 -0.00651457 -3.04521e-17)
(-9.95859e-05 0.00023805 -2.38136e-18)
(4.24411e-05 -0.000291632 -4.47215e-19)
(-0.00316459 0.00586383 -1.49517e-17)
(-0.00164607 -0.00115669 1.61307e-19)
(-0.00366817 -0.00130352 -2.57674e-19)
(-0.00333048 0.00235 4.78114e-19)
(-0.000132523 4.40523e-06 2.31311e-18)
(-0.00359346 0.00106882 1.33382e-18)
(-0.0121249 -0.000265995 -1.48607e-17)
(4.0994e-06 6.65905e-05 1.99149e-18)
(0.0344807 0.00248513 -1.38557e-17)
(-0.00269768 -7.21905e-05 4.33087e-19)
(-0.000181934 -1.2538e-05 7.30335e-19)
(-0.00359953 -0.0025626 -1.0017e-17)
(-0.00102159 0.000522118 2.56288e-18)
(-0.0034432 -0.00149754 -3.07094e-18)
(-0.00545161 0.00484521 -2.50821e-17)
(-0.00794502 -0.00786763 1.19997e-17)
(-0.00562387 0.00507878 1.17304e-17)
(-0.00343802 0.00980286 -6.45054e-18)
(-3.62784e-06 -0.000229256 1.55099e-19)
(-0.0272966 -0.00264395 -5.94939e-19)
(-0.00018497 -1.31106e-05 -2.2754e-20)
(-0.00102303 -0.00115654 -1.59056e-19)
(-0.0307256 0.00409814 -1.24613e-17)
(-0.00916959 0.00558674 6.7241e-18)
(-0.00492822 -0.0113919 6.93115e-18)
(-0.0120715 -0.000988417 1.07254e-17)
(-0.00170128 -0.00167077 9.69847e-18)
(-0.00519975 0.00151883 -3.63178e-18)
(0.000231159 -0.000211323 1.18081e-18)
(-0.00255434 0.00222383 -5.3632e-18)
(-0.00013692 8.2939e-05 4.73554e-18)
(-0.00330991 0.00567663 5.71527e-18)
(0.00388503 -0.00238254 6.69095e-17)
(-0.0296393 0.0114282 1.31696e-17)
(-0.000142363 5.83898e-06 -7.72161e-19)
(-0.000455755 0.000576778 -3.66842e-18)
(0.000220371 -0.000210368 -1.10035e-18)
(-3.00329e-06 -8.78388e-05 -1.6147e-19)
(-0.0542824 -0.0111753 -1.05736e-17)
(-0.00287537 -0.00183213 -8.48996e-18)
(-0.000339526 0.000148553 -7.85699e-19)
(-0.0136425 -0.0100803 1.90589e-17)
(0.0337133 0.0126008 -6.84137e-19)
(-0.000654118 -0.00143332 -1.6466e-19)
(0.0300519 0.0325616 -2.35727e-17)
(0.0072295 -0.00361175 2.55801e-17)
(-0.0302439 0.0100011 -7.63474e-18)
(-5.18835e-05 0.000723406 -5.62451e-18)
(-0.0125153 -0.0131902 1.20681e-18)
(-0.00155148 0.00235624 -7.85538e-18)
(-9.08314e-05 0.000744009 -1.40938e-18)
(-0.0432224 -0.0063862 1.11423e-17)
(-0.00202899 -0.00229424 -1.41667e-17)
(-0.00175342 0.00242118 2.00715e-17)
(0.00121448 -0.00112291 -2.91169e-18)
(-0.00230181 -0.00183842 -3.18582e-17)
(-0.0324089 0.0233344 -1.37538e-17)
(-0.00333588 0.0100446 5.37944e-17)
(-0.00338742 -0.0014524 3.72553e-18)
(-0.0068381 0.00410769 -1.33533e-18)
(0.000517777 -0.000349588 6.10991e-19)
(-0.00945129 -0.00205613 -5.01323e-18)
(-0.000233972 2.19472e-05 -4.98412e-18)
(-0.00371884 0.00215442 -2.82901e-18)
(-0.00261792 -4.0785e-05 -7.66038e-19)
(-0.0313771 0.00300354 -4.10807e-17)
(-0.00576235 -0.0024913 -5.17583e-17)
(-1.60765e-06 -0.000222629 -1.07074e-19)
(-0.000892201 -0.00115055 4.19893e-18)
(-0.0117082 0.00580053 -8.15362e-18)
(-0.000854908 -0.00113025 2.61248e-19)
(0.000250589 -0.00286749 -2.6455e-18)
(-0.00292845 0.00203025 -3.48533e-17)
(-0.0535778 -0.0160191 -1.33733e-17)
(-0.0649446 -0.000183072 4.70948e-17)
(-0.000811031 0.00036449 -5.73832e-19)
(-0.00207212 -0.00646843 -5.38431e-17)
(0.0805586 0.0578219 -8.94081e-18)
(-0.0165794 0.00182688 -1.54766e-17)
(-0.00139692 -0.00023249 4.12885e-18)
(8.76035e-05 -0.000462613 -6.68155e-20)
(-0.0023224 -0.00153487 8.59531e-19)
(-0.00282518 -0.00184418 -3.68364e-19)
(-0.000831059 0.000280462 -1.08832e-19)
(0.0538793 0.0857548 -7.31656e-18)
(-0.0127615 -0.00932764 1.13224e-16)
(-0.0884358 -0.0418597 5.61302e-19)
(0.0278291 -6.22416e-05 -5.00687e-18)
(0.00272391 -0.00203883 -6.70519e-17)
(0.000145839 -0.000228659 -4.42701e-19)
(9.7387e-05 -2.56017e-05 9.98566e-21)
(-0.00564272 0.00161205 -4.21042e-18)
(-0.0150485 -0.00808684 5.89211e-17)
(-0.00100304 0.00192773 1.3666e-17)
(-0.00653705 0.00432224 5.77062e-19)
(0.000554016 0.00257063 -2.05101e-17)
(-0.0024231 -0.00144467 -5.76763e-18)
(-0.00926205 -0.0121457 2.05836e-17)
(0.000307796 -0.000635311 -2.02494e-18)
(-0.0571333 -0.0539172 6.89609e-18)
(-0.0274965 0.00261674 3.89882e-17)
(1.46693e-05 -7.43791e-05 1.55428e-19)
(0.0189466 0.00302737 -4.21779e-18)
(-0.00402618 0.00155758 6.32024e-18)
(-0.000408257 -0.000885795 2.94207e-18)
(-0.00318069 -0.00127083 -8.29336e-19)
(8.59707e-05 -0.00162358 5.49094e-18)
(0.000960728 -0.00152854 2.68885e-19)
(-7.14419e-05 0.000752373 2.01328e-18)
(0.00907169 -1.87052e-05 5.53653e-17)
(-0.0879862 -0.0451786 -9.25573e-19)
(-0.000320344 0.000170299 -3.67069e-18)
(0.00994903 0.000160826 -6.30511e-17)
(-0.0106837 -0.0125182 1.11569e-17)
(-0.00447585 -0.0108409 1.03891e-17)
(-0.00022328 4.15223e-06 6.57716e-18)
(-9.5429e-05 8.35879e-07 9.86005e-20)
(-0.0134755 -0.0258665 -5.14471e-18)
(-0.00066959 -0.00139978 -1.21142e-18)
(0.000151726 -0.00026023 -1.10156e-18)
(2.53116e-05 -0.000533502 4.99641e-19)
(-0.000358579 0.00165832 -1.96211e-18)
(-0.0107572 -0.00545619 -3.604e-17)
(0.000226726 -0.00180422 1.29148e-17)
(-0.00233497 -0.001517 -6.88877e-18)
(-0.00287451 -0.00175884 -8.53724e-19)
(-0.0033588 -0.000157701 -4.96373e-19)
(-0.00511875 0.00244705 9.74874e-18)
(0.000489343 -0.000336793 -1.30355e-18)
(-1.08625e-06 8.80435e-05 3.90683e-18)
(-0.00522586 0.0292263 2.0885e-17)
(-0.00599738 -0.000805766 6.4046e-18)
(-0.00194011 -0.0068081 -5.5525e-19)
(-0.0832959 0.0368378 -1.64826e-18)
(-0.00104336 0.00197977 9.7587e-18)
(-0.00124792 -0.000315694 -1.11001e-18)
(-0.000142991 -8.80733e-07 -3.97067e-19)
(-0.0599449 -0.0551235 -7.7713e-18)
(0.0146306 0.00290202 1.84859e-17)
(0.000215321 -0.00022192 -6.8788e-20)
(-0.000189886 9.11546e-06 -2.47347e-18)
(0.000202402 -0.000222734 9.1624e-20)
(-0.00153172 0.00088423 -4.89093e-18)
(-0.00498554 0.00148098 6.0836e-18)
(0.00303653 -0.0195145 4.35937e-17)
(-0.000258208 0.000669742 6.29231e-19)
(-0.000327217 0.00143846 -5.67434e-18)
(0.000113939 -0.000186046 -1.667e-19)
(-0.00493119 0.0108132 -1.63234e-17)
(-0.00919417 0.00603344 -2.3305e-18)
(0.00499071 0.00344146 -2.407e-17)
(-0.0104889 -0.00105232 -1.25587e-18)
(0.000272594 -0.00156675 2.04306e-18)
(0.00072988 0.0255886 3.084e-17)
(-0.00913974 0.000530328 2.74364e-18)
(-0.00250755 -0.00190964 -1.27753e-17)
(-0.00192011 0.00258953 8.62228e-18)
(-0.0076107 0.00142875 -1.89e-17)
(0.00550781 0.0056597 6.12629e-18)
(-0.0568224 0.0141682 7.47495e-18)
(-0.00014681 8.73795e-06 6.42012e-19)
(-0.00359532 -0.000330241 -1.76227e-18)
(-0.0294203 -0.0142638 -8.23601e-18)
(-0.0516884 -0.0163176 2.30631e-17)
(-0.00219807 -0.000439525 1.22913e-19)
(0.000129564 -0.000241395 -8.3954e-19)
(-0.00236675 -0.000687923 4.92987e-18)
(5.36161e-05 -0.000758118 -1.57034e-18)
(-0.00197234 -0.00266945 4.12628e-18)
(-0.0308838 -0.00221677 -1.75104e-17)
(-0.106183 0.0679048 -1.1941e-17)
(-0.0208374 -0.0233755 1.72216e-17)
(-0.00324759 -0.000136409 -4.25053e-19)
(-0.00570465 -0.00306101 1.6845e-17)
(-0.000636895 0.000955072 1.29497e-17)
(-0.00169493 -0.00113429 2.57126e-20)
(-0.000633051 0.000471103 1.05596e-18)
(-0.000643271 -0.00109816 -3.0138e-18)
(-0.0208014 -0.011019 -2.42892e-17)
(-0.00136269 -0.00145829 -7.11651e-18)
(0.00935725 0.000363405 4.62866e-17)
(-0.00865592 0.00700986 6.02574e-19)
(0.00116651 -0.00106061 -5.19155e-19)
(-0.00030834 0.000138149 4.17223e-18)
(-0.061256 -0.00120215 4.45432e-18)
(-0.0201279 -0.0222755 -1.4319e-17)
(-0.00650771 0.0178708 -3.74739e-18)
(-0.000602751 0.000963591 -1.48005e-17)
(-0.00525612 -0.0121571 9.65353e-18)
(7.52694e-05 -0.000448486 -2.07171e-19)
(-0.00161759 0.00154486 1.13855e-17)
(-0.000292991 0.000746939 -6.55568e-18)
(-1.68769e-05 -0.000230361 -4.46238e-19)
(-0.0562875 0.00241604 -2.86049e-17)
(0.0351524 0.00276415 1.27207e-18)
(-0.0140788 0.0139455 2.27233e-17)
(-0.00706122 0.00306658 -6.59682e-17)
(-0.000106585 1.7344e-06 -1.77108e-19)
(-0.0186892 0.0147222 1.3754e-17)
(0.0275223 0.00673361 -5.42445e-18)
(-0.00229692 -0.001862 1.23999e-17)
(-0.000170881 -0.000101765 -1.05196e-18)
(-0.0934244 0.028386 5.59924e-18)
(-8.68997e-05 -0.000605367 1.04498e-18)
(0.000632339 -0.000801157 -2.2564e-18)
(-0.000177342 2.24087e-06 2.79741e-19)
(-0.0218344 -0.0110998 1.77702e-17)
(-0.000310535 0.000596142 -3.51091e-19)
(-0.00219403 0.000801974 -5.19677e-18)
(-0.010075 -0.00120096 -6.79113e-18)
(-0.0542773 -0.0142188 2.13138e-17)
(4.4314e-05 -0.000514354 1.01825e-19)
(-0.0118775 0.021295 6.92189e-18)
(-0.00406337 -0.00201705 2.9197e-17)
(-0.000233897 1.15863e-05 -5.36494e-18)
(-0.000626276 -0.00270267 2.81331e-18)
(-0.000629094 0.000849174 8.22863e-18)
(-0.000190567 1.7583e-05 3.26985e-18)
(-0.00235363 -0.00144509 9.15563e-18)
(-0.00796735 -0.0017574 -3.1369e-17)
(-0.00503454 0.00228907 8.07507e-18)
(0.00110865 0.00853368 -7.76159e-17)
(-0.00232591 -0.00184029 1.0872e-17)
(-0.000150119 0.000160678 -3.35938e-18)
(-0.0111366 0.00578117 9.51736e-18)
(0.0301229 0.011502 -4.08433e-18)
(-0.0559358 -0.00952827 -1.4426e-17)
(-0.0336219 -0.00844404 -3.87784e-17)
(-0.0200953 -0.0146804 8.20628e-18)
(-0.00135502 -0.000132449 -5.52269e-19)
(-1.80601e-05 -0.000224303 4.77881e-19)
(-0.000330693 0.000154189 -1.40973e-18)
(-0.001046 0.00052769 6.56384e-18)
(-0.0197483 -0.0251908 1.02674e-18)
(-0.00401486 -0.00367304 1.49216e-18)
(-0.000963621 -0.0056811 3.21784e-18)
(-0.00385472 0.00150994 -6.83226e-18)
(-0.00204117 -0.00215258 6.80092e-18)
(-0.0479156 -0.000322503 5.08936e-18)
(-0.0128141 -0.00148154 1.05765e-17)
(-0.000591463 0.000834198 -1.64319e-18)
(-0.00279998 -0.00171772 6.92717e-18)
(0.00388798 0.000286348 5.06306e-17)
(-0.00138354 0.0004334 -1.58837e-18)
(-0.114788 0.0608764 -2.37328e-18)
(-0.000100382 3.35299e-06 1.02701e-19)
(-2.75648e-05 0.000471002 2.96603e-18)
(0.0493805 0.0364738 4.46058e-19)
(-0.00232694 0.00137118 3.24271e-18)
(-0.000758942 -0.00115203 9.85571e-19)
(-0.0335071 0.0217419 -2.42522e-17)
(-0.0252344 -0.00831603 7.23772e-18)
(-0.00554649 0.00144624 8.3726e-19)
(-0.000430963 0.00259196 -7.83055e-18)
(-0.000615969 0.000776642 1.08405e-18)
(-0.00128625 0.000531488 -3.54608e-18)
(-0.00411722 0.0101168 -4.38853e-17)
(-0.00813872 0.000856207 -5.21868e-17)
(-0.0023846 0.00318263 -1.37729e-17)
(-0.00465034 -0.00390153 2.25428e-17)
(-0.0228655 -0.047414 -1.56204e-17)
(-0.0552962 -0.00111602 6.3585e-18)
(-0.064701 0.000284182 3.45767e-17)
(-0.0248266 -0.0434987 -2.30369e-18)
(-0.000639717 0.00131398 -2.15995e-18)
(0.00293317 -0.00335962 -1.20025e-17)
(-0.000963036 -5.54047e-05 -7.33109e-18)
(-0.0203652 -0.0262487 1.32636e-17)
(-0.00143186 -0.00105624 -8.35302e-19)
(-0.00255659 0.00275405 2.87341e-18)
(-0.00466944 -0.0123234 -1.09569e-17)
(-0.00306419 -0.0150191 2.37727e-17)
(-0.000981415 -0.00551145 -1.79208e-18)
(-0.0106927 -0.0176247 4.1937e-18)
(7.58685e-06 -8.59221e-05 -1.16364e-19)
(-0.0232165 0.0324935 1.54682e-17)
(6.3366e-05 -0.00024883 -2.35684e-19)
(0.00893623 0.00411738 -3.72586e-18)
(-0.000648846 0.000479266 -3.33936e-18)
(-0.0131764 0.00141172 -6.21258e-17)
(-0.000218028 0.000170525 2.55288e-18)
(-0.0287634 -0.0337276 -1.02514e-17)
(-0.00208148 -0.00270198 1.5989e-17)
(-0.000191336 0.000319402 2.09597e-18)
(-0.000429371 0.000418823 2.00301e-18)
(-0.000176917 -1.85875e-05 -1.09939e-18)
(0.0289652 0.00492416 6.39442e-18)
(-0.01992 0.00412333 -1.13761e-17)
(-0.000528607 0.0242939 -2.05777e-17)
(-0.00455019 -0.00603742 -1.04671e-17)
(0.000410536 -0.00270794 3.763e-18)
(0.000326923 -0.0012539 1.23067e-17)
(-2.47652e-06 6.0452e-05 1.44754e-18)
(-9.07118e-06 5.8689e-05 -1.25303e-18)
(0.0126271 0.0158559 -1.1262e-17)
(-0.000432048 0.000426308 8.13881e-19)
(-6.73186e-05 0.000298566 3.36643e-19)
(0.00106235 0.00236774 1.5e-17)
(-0.000147423 1.40847e-06 1.66467e-19)
(-0.00471062 -0.00366744 9.1994e-18)
(4.86354e-05 -0.000977222 -1.29274e-17)
(-6.07431e-05 0.000274075 3.16626e-18)
(-0.000326954 0.00061459 2.13057e-18)
(-0.0020363 0.00164925 -5.31451e-18)
(-0.00135361 0.000454296 -2.36842e-18)
(-0.00197302 -0.00179781 1.26036e-17)
(0.0320111 0.0321084 8.99223e-18)
(0.00432021 -0.00700603 -2.9884e-18)
(-0.00243021 0.00305381 1.09718e-17)
(-0.00240015 -0.000980502 -2.80191e-18)
(-0.000141537 0.000200364 -1.38075e-19)
(-0.00361762 0.01347 3.19705e-18)
(-0.000458983 0.00146683 -1.20268e-18)
(-0.00106664 -0.00113628 -2.96828e-18)
(-0.00876044 0.0127912 4.00516e-18)
(-0.058031 -0.00232144 2.55347e-17)
(-0.00976419 -0.0172292 1.63959e-17)
(-0.00188908 -0.0187756 -6.31347e-18)
(-0.00225366 -0.000419399 -2.50705e-19)
(-0.00102152 -0.00113454 2.63985e-18)
(-0.057684 -0.0032562 -4.65744e-17)
(0.00027062 -0.000711414 -8.77348e-19)
(-0.0599255 0.00164546 1.90541e-17)
(-0.0126819 0.00146087 4.28782e-17)
(-0.000196991 0.00029704 -1.56269e-18)
(0.0336096 0.0309591 -6.69388e-18)
(-5.98155e-05 0.027148 -4.88006e-17)
(-0.00246742 -0.000516868 -2.4715e-17)
(-0.000119416 -7.73237e-06 -3.08715e-19)
(-0.00575408 -0.000857932 -8.34238e-18)
(0.0147684 0.00961881 -2.2579e-20)
(-0.000449137 -0.000940397 -2.12124e-18)
(-0.000350371 -0.000810212 -1.84445e-18)
(0.00183304 -0.00150412 -2.10468e-18)
(0.000891535 -0.00149508 2.63547e-18)
(0.000480811 -0.000794777 1.7557e-18)
(-2.52763e-05 -4.18512e-05 7.37837e-20)
(-4.9164e-06 2.84717e-05 2.02161e-18)
(-0.0586728 -0.0144901 -1.15263e-17)
(-0.00140512 -0.00176179 -1.26261e-18)
(-0.047558 -0.00874476 2.49038e-17)
(-0.000228654 0.000691169 -6.75625e-19)
(0.00333279 -0.00445338 8.3476e-18)
(-0.019492 -0.00294064 1.33792e-17)
(-0.000227833 4.31537e-05 4.4108e-18)
(4.08867e-05 -0.000292869 -6.76108e-20)
(-0.00147068 -0.00168493 -6.00791e-18)
(-0.000121413 0.00020035 1.55271e-18)
(-0.00143637 -0.000262754 5.46499e-19)
(-0.000937306 0.00140616 -7.16585e-18)
(-0.000798157 -0.000926308 -1.40058e-18)
(-0.00643652 0.0057354 7.32586e-18)
(-0.00551637 0.0107529 -1.17484e-17)
(9.49122e-05 -6.24435e-05 5.96341e-20)
(0.0147748 0.0112248 -8.50591e-18)
(-0.029942 0.0164785 -2.43108e-17)
(-0.00212629 0.00320998 -1.41942e-17)
(0.00307951 -0.00293165 -1.94701e-17)
(-0.0124722 0.0126202 -1.35627e-17)
(-0.0016821 0.00160091 2.43522e-18)
(0.00426275 -0.00664127 -3.17535e-18)
(-0.0017781 -0.00214026 2.72116e-20)
(0.0106144 0.0159286 -7.70636e-18)
(-0.00137907 -0.00172439 1.37164e-18)
(-0.0034458 -0.00962204 7.07452e-18)
(-0.000914964 0.000128181 1.40096e-18)
(-0.0466237 0.110522 2.09226e-17)
(-0.00290379 -0.00184307 2.37882e-17)
(-0.00945941 0.00546367 5.06273e-18)
(-0.0158221 0.00620374 1.33502e-18)
(0.00812643 0.000478907 -4.86979e-17)
(-0.00140539 -0.00167481 4.20027e-18)
(-0.00070966 0.000572292 -1.02114e-18)
(-0.00176024 -0.00138728 -9.83312e-18)
(0.00077575 -0.0207924 1.63141e-17)
(-0.00139656 -0.000168327 -2.15777e-18)
(-0.0140546 0.000128286 -3.70029e-17)
(-0.000772097 0.00112023 7.29944e-18)
(0.0355194 0.013688 1.31522e-17)
(-0.00147721 -0.000363859 2.09313e-18)
(-0.000167291 -0.000680538 -1.56283e-18)
(-0.000181729 -2.79846e-05 -1.07413e-19)
(-0.000142147 6.1765e-06 -1.10503e-18)
(-0.0240815 0.0179201 -8.27485e-18)
(0.0364224 0.0130818 -4.77005e-18)
(-0.000598348 0.000994201 -9.90289e-18)
(-0.0465168 -0.0364193 -9.16479e-19)
(-0.00284409 0.0014214 1.44735e-17)
(-0.0466962 -0.00260053 -1.02952e-17)
(-0.0201396 0.00495577 5.358e-18)
(-0.0205996 -0.0291483 5.15376e-19)
(0.0239379 0.00322745 6.93382e-17)
(0.000767104 -0.000540762 1.21887e-18)
(-0.0147908 0.0209332 6.21593e-18)
(-0.00658757 -0.0156179 -3.68303e-18)
(-0.000874411 -0.000373177 3.41943e-19)
(-0.00501676 -0.00513471 2.5338e-18)
(0.0130875 0.0148336 3.80705e-18)
(0.0646346 0.0404754 5.69113e-18)
(-0.000140264 -0.00135555 -5.4205e-19)
(-0.000259601 0.0016025 5.64072e-18)
(-0.000920193 -0.000218402 1.0126e-18)
(8.1553e-05 -1.59791e-05 3.25951e-20)
(0.0563051 0.00687672 2.90439e-18)
(-0.00777396 0.00543169 1.11622e-17)
(-0.0224872 0.0195127 3.88638e-17)
(0.0302713 0.00554689 -6.19001e-18)
(-0.000526145 0.00114514 6.10599e-18)
(-0.000110645 0.000229519 7.27665e-19)
(-0.00410478 -0.000627491 1.55344e-17)
(-3.79297e-06 7.20785e-05 -6.89811e-18)
(-0.000341689 1.39349e-05 1.09539e-18)
(-0.000872933 0.00142029 3.22445e-18)
(0.00149522 -0.00144876 3.94323e-18)
(-0.00591563 0.0062485 -6.038e-18)
(-0.00291328 -0.00189494 -3.67244e-17)
(-0.00946687 -0.00669748 -3.39939e-17)
(-0.00161467 0.022342 7.68739e-18)
(-0.00434289 -0.00394335 -3.40896e-17)
(-0.00020648 0.000214191 -1.29077e-18)
(-0.00222178 0.00133478 8.64268e-18)
(-0.00380848 -0.00645534 7.71763e-18)
(0.0084068 0.0192845 -5.25563e-18)
(-0.0029719 -0.00935924 -3.36794e-18)
(-0.023998 -0.000127271 -1.74786e-17)
(-0.00200379 -0.00161847 -5.52571e-18)
(-0.00060976 0.00100092 6.48736e-18)
(-0.0449765 -0.0344494 4.94924e-18)
(-0.0127707 -0.0103399 6.2946e-18)
(-0.00131532 -0.000339024 2.37335e-20)
(0.000192242 -0.000250883 1.10568e-19)
(-0.00338385 0.00762954 2.02235e-18)
(-0.0383951 0.00383339 1.16585e-17)
(-0.0101251 -0.00685175 -3.6206e-19)
(-0.00014196 8.9649e-08 1.93573e-18)
(0.00538317 0.00461453 1.75115e-17)
(0.0300169 0.000601877 1.42079e-17)
(-0.00286611 -0.020649 -1.63079e-17)
(9.61998e-05 -0.000194989 -3.74889e-20)
(0.00602183 0.000439789 1.89567e-16)
(0.00913587 3.56867e-05 1.24251e-16)
(-0.00755482 0.00324597 8.78113e-18)
(-0.00131989 -0.00147916 2.74504e-19)
(-3.72115e-06 0.000700867 2.29413e-18)
(-0.0134557 0.015977 -3.0877e-17)
(-1.78556e-06 2.51522e-05 -2.25062e-18)
(-0.0356105 -0.0125054 -4.6724e-18)
(-0.0597334 0.0024104 -2.00553e-17)
(0.0072133 0.00441351 3.86107e-17)
(0.0074636 0.000604669 -2.31573e-17)
(-0.0137996 -0.00415737 -8.54678e-18)
(0.018972 0.00610072 6.32057e-18)
(-0.00797258 -0.0012461 2.00758e-18)
(-0.000884863 0.000750909 -1.26697e-18)
(-0.000215564 0.00160189 -2.46858e-18)
(-0.0322763 -0.00584196 -7.26902e-17)
(-0.0902527 -0.00189679 2.86851e-18)
(0.00987473 -3.67665e-05 -1.38319e-17)
(-0.09795 0.065103 -4.03277e-18)
(0.000313976 -0.000710498 -3.30396e-18)
(-0.0350912 -0.0111246 2.57257e-18)
(-2.32118e-06 4.55903e-05 1.33009e-19)
(-0.0015978 -0.0017651 -6.77783e-18)
(-0.0151643 -0.00887496 2.18705e-17)
(-0.00313147 -0.00699773 2.29265e-17)
(-0.000195771 0.000330546 1.5339e-18)
(-0.00197216 0.000892482 2.68332e-18)
(-0.0187061 0.0131756 6.7128e-18)
(0.01539 0.0115789 9.37201e-18)
(-0.0299771 -0.00674982 5.76118e-17)
(0.00894639 -0.000217503 -1.11619e-17)
(-0.00252334 -0.00195105 3.40643e-18)
(-0.00344554 -0.000584207 6.11722e-19)
(-0.0320698 0.00990766 4.99292e-18)
(-0.000325316 0.00144933 -3.23261e-18)
(8.08843e-05 -0.000408847 9.52129e-19)
(-0.000305485 0.000206962 8.7244e-19)
(0.00218818 -0.00336964 -5.43113e-18)
(-0.00983983 -0.0159894 -7.63784e-18)
(-0.000159367 0.000119042 2.46926e-20)
(-0.0141433 -0.008857 -1.92032e-17)
(-0.000312295 0.000192422 3.35781e-18)
(-0.000129826 -4.70102e-06 -2.50219e-18)
(-0.000187925 3.49613e-05 4.62525e-21)
(-0.0133138 0.0214964 -1.00069e-17)
(-0.000353573 0.00147622 1.8578e-18)
(-2.23787e-06 3.98731e-05 2.56892e-19)
(-0.00403251 -0.00100108 -2.81506e-17)
(-0.00271162 -0.00101948 -6.80594e-18)
(9.37448e-05 -6.70646e-05 -1.32556e-19)
(-0.0554107 0.00183266 5.40489e-18)
(7.4791e-05 -0.000760489 7.23053e-19)
(0.00053105 -0.000376586 -3.7874e-18)
(-0.00192802 -0.00218716 2.33356e-17)
(-0.00270335 0.00292023 6.43414e-18)
(0.000391591 -0.0028297 1.89767e-18)
(-0.00147798 -0.000766867 1.15349e-18)
(-0.0226867 -0.00397601 -2.57305e-18)
(-0.00226687 0.00326453 1.31692e-17)
(-0.00339887 -0.00121998 -4.35336e-18)
(-0.0112731 -0.0112503 -8.86517e-18)
(-0.00338021 -0.00127789 4.39459e-18)
(-0.0940893 0.0167764 8.92244e-18)
(-0.000476283 0.00218084 -1.2735e-17)
(-0.00728367 0.00599787 2.7219e-18)
(-0.00380449 0.0019276 -5.29281e-18)
(0.0572208 0.00455734 -4.7694e-18)
(0.000196193 -0.000240815 -3.00131e-19)
(0.0119858 0.0152457 3.87918e-18)
(-0.0119993 0.0314028 2.07838e-17)
(-7.50359e-05 -0.000179938 2.61096e-20)
(-0.00794362 0.00862613 9.29225e-18)
(-0.000178627 0.000256489 -3.57636e-18)
(-0.000184314 6.16776e-05 -2.03132e-18)
(-0.00258409 -0.00187983 -6.43189e-18)
(-0.000184881 -5.11866e-05 6.24799e-19)
(-0.00842111 -0.00271864 -3.09513e-18)
(0.00838313 0.0185121 4.46929e-18)
(5.90537e-05 -0.000246597 -7.12377e-20)
(0.00122526 0.00086123 -4.94771e-17)
(0.000737711 -0.000528115 4.05851e-18)
(-0.00231191 -0.00184123 -1.08797e-17)
(-0.100684 -0.00960149 1.16579e-19)
(0.000100403 -5.40704e-05 2.46766e-20)
(-0.0397106 0.00811315 2.1477e-17)
(-0.00180384 -0.000364954 -9.29741e-19)
(-8.98662e-05 -0.00082305 -2.01452e-18)
(-0.000424273 0.00050005 -4.3747e-19)
(-0.000305828 0.000233859 -1.74686e-18)
(0.00674497 0.008078 -1.47445e-18)
(-0.00292339 0.00591868 2.29352e-17)
(-0.0624241 -0.000774985 7.21691e-18)
(-0.00420894 -0.00410912 1.33419e-17)
(-0.0325933 -0.0023791 1.57812e-17)
(-0.00376469 -0.000498693 2.97447e-18)
(-0.000149939 0.000144884 8.74223e-18)
(-0.0212863 0.0138999 -7.29804e-18)
(0.00844779 -0.000199221 2.64566e-18)
(0.0209619 0.00487637 -5.69737e-17)
(-0.00344463 0.00597987 1.04448e-17)
(0.00455473 0.00411681 5.53542e-17)
(-0.0054526 -0.016753 -1.55553e-17)
(-0.00199233 -0.0014828 1.04382e-18)
(0.00744671 0.00703495 -2.67451e-17)
(-0.00140093 -0.000735274 9.56948e-20)
(-0.0209149 0.00239523 -2.31047e-17)
(-0.000136589 -3.11874e-06 1.89174e-18)
(0.00534567 0.000559295 -2.00136e-16)
(-7.90265e-05 -0.00143215 -1.63001e-18)
(-0.00369227 0.00571265 -3.40293e-17)
(-0.00200209 0.00175485 -2.1405e-17)
(-0.000738951 -0.0011104 3.6364e-19)
(-0.0528481 -0.00697024 -1.43355e-17)
(-0.000180918 0.00162198 5.35701e-19)
(-0.000328603 6.04227e-05 6.94072e-20)
(0.00712286 -0.0159529 -1.57912e-17)
(-0.00180912 -0.000294733 2.8787e-18)
(-0.000189544 3.58422e-05 4.75508e-19)
(-0.00427108 -0.00360978 8.90261e-19)
(-6.63315e-05 -0.00240389 -6.7291e-18)
(0.00701509 0.00878313 -2.15084e-17)
(-0.00289352 -0.0204453 -8.98872e-17)
(0.00863919 -0.0121838 -8.11659e-18)
(-0.060278 -0.00109815 -2.80324e-17)
(-0.00011451 0.000212708 -3.04994e-19)
(-2.32356e-06 0.000651922 1.57757e-18)
(0.00204619 0.00558334 -3.20789e-17)
(-0.000220183 6.12452e-05 1.60975e-18)
(-0.014248 -0.00834479 -5.8946e-18)
(-0.0146786 -0.00397109 5.97799e-18)
(-0.00129037 -0.00141326 5.76409e-19)
(-5.26555e-05 0.000299579 -1.38707e-18)
(-0.00315931 -0.00119649 8.6929e-18)
(-3.06106e-05 0.000230948 9.61022e-18)