/*--------------------------------*- C++ -*----------------------------------*\
| =========                 |                                                 |
| \\      /  F ield         | OpenFOAM: The Open Source CFD Toolbox           |
|  \\    /   O peration     | Version:  v2012                                 |
|   \\  /    A nd           | Website:  www.openfoam.com                      |
|    \\/     M anipulation  |                                                 |
\*---------------------------------------------------------------------------*/
FoamFile
{
    version     2.0;
    format      ascii;
    class       surfaceVectorField;
    location    "750";
    object      ddtCorrDdt0(Uf);
}
// * * * * * * * * * * * * * * * * * * * * * * * * * * * * * * * * * * * * * //

dimensions      [0 1 -2 0 0 0 0];


internalField   nonuniform List<vector> 
27882
(
(-0.00623999 0.00116628 1.76081e-19)
(-0.00656281 0.000405164 4.92952e-19)
(-0.00571567 0.000518542 3.66384e-20)
(0.0208412 -0.0281612 -3.62721e-19)
(0.0247464 -0.0257902 -1.89385e-18)
(0.0216873 -0.0220615 -8.09041e-19)
(0.000386111 -2.72386e-06 5.73419e-20)
(0.000427653 -8.3824e-06 1.3335e-19)
(0.000453152 -1.33998e-05 -4.42253e-20)
(-0.00670775 0.00198967 1.56106e-19)
(-0.00572025 0.00192239 1.66372e-19)
(-0.0105369 -0.00183303 8.00095e-19)
(-0.0112862 -0.000548444 5.19471e-19)
(-0.0118957 -0.0021654 1.0849e-18)
(-0.000672228 -8.8536e-06 6.96295e-21)
(-0.000711298 -1.76291e-05 3.71695e-20)
(-0.000687689 -1.12898e-05 6.0773e-20)
(-0.000252417 -0.00020418 -8.42799e-19)
(-0.000256119 -0.0002076 2.70023e-19)
(-0.0002508 -0.000202328 -1.4394e-18)
(-0.00222716 -0.000741535 7.06794e-21)
(-0.00230075 -0.000893129 -5.04904e-19)
(-0.00244398 -0.000753621 -3.52908e-19)
(-0.00985265 -0.00291223 6.14095e-19)
(-0.00937738 -0.00148395 3.23293e-19)
(-0.00913491 -0.00373408 6.19921e-19)
(-0.00825337 -0.00435074 -7.39637e-19)
(-0.00808278 -0.00305376 4.42349e-19)
(0.00741907 -0.0355647 1.45869e-18)
(0.0115112 -0.030011 -8.78193e-19)
(0.00701266 -0.0291297 6.99854e-19)
(0.006958 -0.045402 -1.66386e-18)
(-0.00128791 -0.0461997 -2.73135e-18)
(0.00248011 -0.0558298 1.72542e-18)
(-0.0307682 -0.0422003 -8.93548e-19)
(-0.0328683 -0.0352087 3.17375e-19)
(-0.0355163 -0.037833 -3.08021e-19)
(-0.000184046 -0.00165751 6.23453e-19)
(-6.46605e-05 -0.00172259 6.08066e-19)
(-9.47135e-05 -0.00157802 -1.03269e-19)
(-0.000255381 -0.000203018 -2.65147e-19)
(-0.00025325 -0.000203738 1.08295e-19)
(-0.000257775 -0.000207044 5.85149e-20)
(-0.000275915 -9.30105e-05 1.35058e-19)
(-0.00027969 -8.54386e-05 8.84805e-20)
(-0.000282512 -8.99277e-05 6.21811e-19)
(0.0126782 -0.042731 -2.61231e-19)
(0.0135511 -0.0328658 3.88313e-18)
(-0.00102902 -1.37569e-05 -3.38488e-21)
(-0.00100606 -1.341e-05 4.58616e-20)
(-0.000257783 -0.000199811 5.75466e-19)
(-0.000251631 -0.000198856 1.20866e-19)
(0.000369776 0.0037972 1.0042e-20)
(0.000463078 0.00428946 4.4047e-19)
(-0.000115501 0.00403277 5.1391e-20)
(0.0391692 0.141804 1.6486e-18)
(0.0430721 0.132511 9.38852e-19)
(0.0428353 0.128232 6.09513e-18)
(0.0529913 0.023083 -7.59558e-18)
(0.0493541 0.0234311 -1.008e-17)
(0.0495223 0.0218014 -8.89468e-19)
(-0.0005992 -6.11202e-06 -7.32111e-22)
(-0.000656787 -1.04574e-05 -3.05677e-20)
(-0.000578033 -3.43056e-05 -5.06447e-20)
(-0.000604293 -3.82923e-05 4.93141e-20)
(-0.000615914 -5.04273e-05 -1.47413e-19)
(0.0568614 0.0224083 -1.03207e-17)
(0.0579432 0.0240124 2.64419e-18)
(0.0665239 -0.0193461 -6.52394e-18)
(0.0652691 -0.0173929 4.33311e-18)
(0.0677867 -0.0170627 -7.56135e-19)
(-0.0749835 0.0503233 3.01858e-18)
(-0.0498361 0.0742678 -1.49993e-17)
(-0.0596339 0.0754126 -1.87882e-17)
(-0.0160253 -0.0597763 3.36883e-18)
(-0.0130318 -0.0566468 2.38303e-18)
(-0.0124585 -0.0627231 -1.47008e-18)
(0.0231999 -0.0171868 2.06512e-18)
(0.0245005 -0.0184795 3.52463e-18)
(0.0226547 -0.0186059 -4.15729e-19)
(0.0346737 -0.0295371 1.15314e-19)
(0.0363743 -0.0225696 -1.87545e-18)
(0.0340522 -0.0204973 -1.34464e-19)
(0.0603433 -0.0899957 -2.87974e-18)
(0.053098 -0.050341 4.26462e-18)
(0.0743124 -0.0845275 7.59282e-18)
(-0.090134 0.0215164 1.69564e-17)
(-0.0723442 -0.024117 2.1118e-17)
(-0.00216245 -0.000579638 -4.07365e-19)
(-0.0020143 -0.00071107 5.13336e-19)
(0.0801055 0.0160178 -1.31449e-18)
(0.0754374 0.0194956 -6.96919e-18)
(0.0739471 0.0194998 -1.45183e-18)
(-0.011974 0.000709754 -3.66387e-21)
(-0.0127326 0.00172153 -1.03069e-19)
(-0.0134902 0.000221692 1.69387e-20)
(0.0295034 -0.0369065 -1.97887e-18)
(0.0309848 -0.0425453 2.94272e-18)
(-0.025977 -0.0456439 -6.48299e-19)
(-0.0295358 -0.0489173 -6.32179e-19)
(-0.0106503 0.000786265 1.70341e-19)
(0.0296445 0.0734175 5.57001e-18)
(0.0500559 0.06871 -9.9874e-18)
(0.0342211 0.0638271 2.32842e-18)
(-0.00136192 -0.000116055 3.82606e-20)
(-0.00137875 -8.64965e-05 -2.29345e-20)
(-0.0013738 -0.000121646 2.21762e-20)
(-0.0107045 -0.135138 1.07462e-18)
(-0.00808335 -0.138765 -3.78865e-19)
(-0.00594217 -0.144483 -7.62557e-19)
(-0.0071056 -0.00687753 6.16761e-19)
(-0.00772899 -0.0079706 5.96696e-19)
(-0.00834163 -0.00654504 -2.83704e-19)
(-0.0473491 -0.0398678 1.53587e-20)
(-0.0429927 -0.0541435 4.07959e-19)
(-0.0418251 -0.0496105 6.99097e-19)
(0.00378861 -0.00186996 5.81207e-20)
(0.00393991 -0.0014865 -5.34959e-20)
(0.00428209 -0.00181807 -2.1351e-19)
(-0.000309917 -5.09317e-07 1.38504e-19)
(-0.000311794 -2.41995e-06 -2.82896e-19)
(-0.000307906 -1.42721e-06 3.01949e-19)
(0.0115319 -0.0389219 3.56293e-18)
(-0.0264784 0.0323417 3.05657e-18)
(0.000726164 0.011028 3.53361e-18)
(-0.00605725 -0.00689828 -8.52096e-19)
(-0.00638801 -0.0059081 2.64084e-19)
(0.021839 -0.0216841 3.247e-18)
(0.0202099 -0.0221045 2.42535e-18)
(0.0216967 -0.0233523 -6.35092e-19)
(-0.0939806 0.22878 3.37977e-18)
(-0.0749477 0.21714 -3.67814e-18)
(-0.0945618 0.232791 2.35704e-17)
(-0.0046785 0.00379754 -1.20006e-19)
(-0.00522805 0.00329589 3.81731e-19)
(-0.00441859 0.00300104 1.46901e-19)
(0.00240371 -0.0398837 3.14045e-19)
(0.00789886 -0.0430649 -4.10979e-20)
(0.106544 -0.0243127 -1.58314e-18)
(0.0955944 -0.0239407 -8.42477e-18)
(0.0988346 -0.0318088 -3.9965e-18)
(-0.00469969 0.00469879 -6.58133e-19)
(-0.00398773 0.00422229 -4.62753e-19)
(0.00438161 -0.00270503 2.59239e-19)
(0.00385142 -0.00297073 -2.7552e-19)
(0.00439499 -0.0033542 -6.37569e-19)
(0.038907 0.00737094 6.21152e-18)
(0.0387482 0.00894406 -1.76241e-18)
(0.0402318 0.00817255 -7.07464e-18)
(-0.0351968 -0.0291235 -3.81472e-19)
(-0.0319513 -0.0329025 4.95638e-19)
(0.00170652 -0.000499517 -7.07835e-20)
(0.00167173 -0.000349853 -2.16149e-19)
(0.00183711 -0.000376616 7.01323e-20)
(0.000245726 0.00333655 -6.18287e-20)
(0.000784265 0.00347674 7.47994e-21)
(0.0184899 -0.0220305 9.06753e-19)
(0.0177345 -0.0237084 8.3327e-19)
(0.016736 -0.0220094 -1.50478e-18)
(0.00174918 -0.000667858 6.7124e-20)
(0.00159538 -0.000617559 4.31885e-20)
(-0.000312384 6.13088e-06 -3.7878e-20)
(-0.000308099 5.4445e-06 -6.09981e-20)
(-0.000313268 3.41872e-06 4.23592e-20)
(0.003564 -0.00226389 -2.23797e-20)
(0.00336213 -0.00189936 -1.29272e-19)
(-0.0429941 -0.0976462 -6.90186e-18)
(-0.0687172 -0.100585 -2.07804e-18)
(0.00327184 -0.28211 -4.0229e-20)
(0.0612618 -0.228223 -1.13314e-18)
(0.00929987 -0.270239 1.18535e-18)
(-0.000319423 4.75372e-06 -6.06454e-20)
(-0.000309792 8.16368e-06 1.63278e-20)
(-0.053866 0.0761698 7.89712e-18)
(-0.0532743 0.0733511 3.78598e-18)
(-0.0747119 0.0866773 -9.79774e-18)
(-1.13743e-05 6.4606e-05 -1.14612e-19)
(-1.04014e-05 5.31139e-05 -9.6438e-20)
(-2.72856e-05 5.18064e-05 8.91494e-20)
(-0.000483879 -0.000674761 -3.20739e-20)
(-0.000469555 -0.000655569 -6.71089e-20)
(-0.000457505 -0.000691152 2.88779e-19)
(-0.0189277 -0.056334 1.99246e-18)
(-0.0198281 -0.0624572 -1.0191e-18)
(-0.00103778 -3.8102e-05 2.50214e-21)
(-0.00105422 -1.48855e-05 -4.00603e-20)
(0.111095 -0.0101139 1.97502e-18)
(0.120009 -0.0218611 -6.87005e-19)
(0.0728639 -0.0216416 1.22094e-18)
(0.0701827 -0.0216291 2.39566e-18)
(0.0715487 -0.0190787 1.9846e-18)
(-0.000305392 -0.00018232 3.98064e-19)
(-0.000295229 -0.000192366 -3.32309e-19)
(-0.000303253 -0.000187991 2.9698e-19)
(-0.00513721 0.00738388 -2.29172e-19)
(-0.0054647 0.00670798 -8.70026e-20)
(-0.0045283 0.00684553 2.44839e-19)
(-0.0357027 0.0548291 -6.78344e-19)
(-0.040254 0.0486858 1.27871e-19)
(-0.0324125 0.0470543 1.26756e-18)
(0.0492979 -0.096494 -6.45104e-18)
(0.0610612 -0.103208 -1.0085e-18)
(0.00964325 0.32115 7.67811e-18)
(0.0155367 0.275211 3.47501e-18)
(-0.0155402 0.426136 -2.57982e-18)
(0.0227666 -0.0335598 1.04982e-19)
(0.0258432 -0.0263819 -8.6389e-20)
(0.0290984 -0.0272671 4.01259e-19)
(-0.0102235 -0.00427826 9.88913e-19)
(-0.050093 -0.0275373 -1.52913e-18)
(-0.0488948 -0.0264538 1.45783e-19)
(0.0278912 -0.00280626 2.65557e-18)
(0.0275436 -0.00156632 3.1308e-18)
(0.0289297 -0.00198448 4.4718e-18)
(0.00970909 0.0746776 -1.40774e-18)
(0.0190639 0.067377 7.88065e-18)
(0.0174162 -0.0403178 1.70295e-19)
(0.0192666 -0.0389447 -5.96559e-19)
(-0.0211561 0.0220778 3.93259e-19)
(-0.0224155 0.025219 -6.5127e-19)
(-0.0245217 0.022296 1.41797e-18)
(0.00674179 -0.00062867 1.98245e-20)
(0.00618124 -0.00101894 9.19521e-20)
(0.00682466 -0.00144051 3.27385e-20)
(0.0333104 0.00731321 2.04175e-19)
(0.034837 0.007269 2.09929e-17)
(0.0338186 0.00591079 -4.37969e-18)
(0.00280582 -0.0017471 9.95592e-19)
(0.00258443 -0.00162394 -7.20258e-18)
(-0.00596908 0.00821281 2.86875e-19)
(-0.004749 0.00823017 -2.44421e-19)
(-0.0329136 -0.120547 -3.64399e-18)
(-0.0243388 -0.079128 -1.85152e-18)
(0.0325698 0.00849163 -1.21077e-17)
(0.0319788 0.00703155 -8.32434e-18)
(0.102001 0.0686376 6.39359e-19)
(0.115901 0.0781925 2.52793e-18)
(0.0949652 0.0886755 2.91121e-19)
(-0.000318267 -6.5788e-06 -4.79696e-20)
(-0.000318701 -7.59419e-06 1.20015e-19)
(-0.000310551 -1.00139e-05 4.22439e-19)
(0.0204098 -0.00131747 -2.42177e-19)
(0.0201531 -0.00040729 -4.17998e-18)
(0.0212327 -0.000968311 -1.31218e-18)
(-0.110726 0.240842 2.28098e-17)
(-0.0880844 0.219431 1.62885e-17)
(-0.000307879 -0.000176056 -1.17349e-19)
(-0.000316394 -0.000170663 -2.94354e-20)
(-0.000125613 0.000215189 1.56872e-20)
(-0.000137005 0.000225881 1.19958e-19)
(-0.000136293 0.000205975 3.53134e-20)
(-0.00126901 -0.000119868 -8.88737e-20)
(-0.0012422 -0.00011548 1.75857e-20)
(-0.00126594 -0.000106335 6.28287e-20)
(0.0141626 -0.013039 1.22038e-18)
(0.0144213 -0.0120492 4.12589e-18)
(0.0152934 -0.0130967 1.21948e-18)
(0.0346713 -0.0190478 -1.14822e-18)
(0.0285313 -0.0196492 5.11086e-20)
(0.0320347 -0.0136567 5.48004e-19)
(-0.000532656 -4.1934e-06 -6.93941e-20)
(-0.000514945 -1.75523e-05 1.02036e-19)
(-0.000514898 4.26154e-06 1.3919e-19)
(0.0301787 -0.0822147 -2.98922e-18)
(0.0155654 -0.0649729 4.02081e-18)
(0.00464981 0.0109751 8.00304e-19)
(0.00385323 0.0117801 -3.81692e-20)
(0.00359754 0.0103126 6.05417e-20)
(-0.000510418 -0.000653999 -4.66881e-20)
(-0.000500503 -0.000691093 3.14126e-20)
(-0.000113718 0.000225632 -2.80309e-20)
(-0.000113784 0.000204984 -6.17259e-20)
(-0.0584388 0.0832229 1.07658e-17)
(-0.0281727 0.0649034 -5.65615e-18)
(0.0329265 0.153533 -1.49148e-18)
(0.0324949 0.144057 -1.08872e-18)
(0.0221611 -0.0202166 -1.67338e-18)
(0.0235764 -0.0217396 -1.58019e-18)
(0.0929882 0.0566467 6.22014e-18)
(0.115565 0.0571817 -1.34368e-18)
(0.124386 -0.0552314 1.09264e-18)
(0.159467 -0.123842 -4.39464e-18)
(0.148171 -0.0393357 -3.0186e-18)
(0.0900547 -0.0635037 -3.92571e-19)
(0.100059 -0.0701294 1.40687e-18)
(0.0992329 -0.0575733 -2.6303e-19)
(-0.000256552 -0.000105235 -1.68018e-19)
(-0.000260923 -9.76311e-05 -6.6667e-19)
(-0.000252044 -9.87885e-05 -9.45129e-21)
(-0.0619063 -0.340205 1.0739e-18)
(0.0100914 -0.282607 4.28418e-19)
(0.00486621 -0.00795141 1.42448e-18)
(0.00556279 -0.00653999 -9.42457e-19)
(0.00413561 -0.0066462 -7.20985e-19)
(0.000486914 1.79584e-05 5.21774e-20)
(0.000480826 2.15699e-05 1.91583e-20)
(0.000447786 1.27472e-05 -2.37758e-19)
(0.00591663 0.0116129 8.94186e-19)
(0.00538627 0.010072 -4.3528e-20)
(0.00767523 -0.106005 1.45779e-19)
(0.0139114 -0.11002 -2.67456e-18)
(0.00496406 -0.109118 -4.46833e-18)
(0.0137431 -0.0141958 1.51365e-18)
(0.0129906 -0.0131096 1.95928e-18)
(0.00108074 -0.00120151 -2.03972e-19)
(0.00119703 -0.00118714 -2.94037e-20)
(0.00109463 -0.00108968 -3.46768e-20)
(0.0410581 -0.102142 2.92228e-19)
(0.0819075 -0.0747941 -2.24032e-18)
(0.0531072 -0.0992093 9.7503e-19)
(0.00786331 0.00112404 -6.1775e-20)
(0.0080452 0.000263044 -5.57191e-20)
(0.00883329 0.000870817 -9.18367e-20)
(0.000392869 5.64598e-05 1.77985e-19)
(0.000373457 5.27011e-05 7.15966e-20)
(0.000386754 7.284e-05 1.52443e-19)
(0.0121093 0.229671 3.60267e-18)
(-0.0020385 0.386416 4.96736e-18)
(0.00737618 -0.000239092 2.21824e-19)
(0.00658212 6.12495e-05 1.14608e-19)
(0.000759941 -0.000341274 -4.62417e-20)
(0.000739166 -0.000380663 -2.2084e-19)
(0.000719068 -0.000332218 -9.8938e-20)
(0.00400957 0.125097 2.97721e-18)
(-0.00588279 0.132953 -1.49997e-17)
(-0.00162914 0.135728 -2.43093e-18)
(0.00480288 -0.00239415 2.8522e-19)
(0.00416004 -0.00211754 2.2208e-19)
(0.00341774 -0.000608258 3.2782e-20)
(0.0033617 -0.000953466 -9.68838e-20)
(0.00309577 -0.000743029 -1.46735e-19)
(0.000798783 -0.000344277 3.29727e-19)
(0.00076753 -0.000303218 -1.37224e-19)
(0.0403833 -0.0226637 -1.566e-18)
(0.0384921 -0.02146 -3.64872e-18)
(0.0389046 -0.0239484 -1.96489e-19)
(0.0418324 0.0432555 -9.3834e-19)
(0.0311303 0.0444395 1.14979e-17)
(0.0190444 -0.0205983 -1.03966e-18)
(-0.000258503 1.92976e-05 2.79641e-20)
(-0.000251283 1.41573e-05 -3.18662e-20)
(-0.000251037 2.35631e-05 -6.8675e-20)
(-0.00562861 -0.00599698 1.95772e-19)
(-0.00619118 -0.00566239 -1.24942e-18)
(-0.00623048 -0.00639746 -1.88346e-19)
(-0.0207549 0.0886873 -1.12618e-17)
(-0.0267316 0.0920673 1.47468e-17)
(-0.0230315 0.0820012 3.58967e-18)
(-0.00133497 -0.00011372 4.04873e-20)
(-0.00134825 -0.000152491 -5.22288e-20)
(0.000184892 6.1774e-05 -1.56394e-19)
(0.000205243 6.94174e-05 -1.7687e-19)
(0.000191671 8.3443e-05 -1.12224e-19)
(-0.0778645 0.563449 3.83935e-18)
(-0.060552 0.592864 -1.29473e-18)
(-0.0516512 0.60894 -5.51861e-18)
(0.00639721 0.00155013 -1.92295e-20)
(0.00715003 0.00127424 -3.71861e-20)
(0.00647189 0.000805377 3.2958e-20)
(0.0212756 -0.0568996 -8.7857e-19)
(0.0227954 -0.0602173 -1.72986e-18)
(0.0186399 -0.0595137 -2.08932e-18)
(0.0282855 -0.00413343 -3.20588e-18)
(0.0269575 -0.00369079 6.76548e-18)
(0.00393772 -0.00914326 1.2062e-18)
(0.00572046 -0.00940362 5.85866e-19)
(-0.00516299 -0.0107629 1.80731e-20)
(-0.00273881 -0.0119563 1.77888e-18)
(-0.00484938 -0.0101226 4.32033e-19)
(0.0113534 -0.00814376 1.48333e-18)
(0.0114477 -0.00738743 1.29501e-18)
(0.0122384 -0.0081267 8.06038e-18)
(0.0567146 0.132935 1.29186e-19)
(0.0895813 -0.0461016 3.84445e-18)
(0.016299 0.117313 1.19676e-17)
(0.00909744 0.113836 1.049e-17)
(0.0139572 -0.0015529 -1.72505e-18)
(0.0136665 -0.000868661 -6.84325e-19)
(0.0145696 -0.00106915 1.05684e-17)
(-0.0607781 0.0872941 5.87214e-18)
(-0.0764387 0.094563 1.33393e-17)
(0.0368117 -0.0203254 1.74236e-18)
(0.035085 -0.0212235 1.94084e-18)
(0.0349925 -0.0189788 3.20774e-18)
(0.016243 -0.0302197 -6.72861e-19)
(0.0138114 -0.0251841 2.14057e-19)
(0.0757659 -0.0834397 -2.05407e-19)
(0.0666049 -0.0867191 4.81703e-19)
(0.0657341 -0.079832 1.39242e-18)
(0.0701975 0.0373407 4.12099e-18)
(0.0781642 0.0426856 -5.06663e-19)
(0.0861945 0.0358605 8.87512e-18)
(-0.0141235 0.0642293 1.20649e-18)
(-0.0104411 0.065097 1.32473e-17)
(-0.01262 0.0763214 4.43767e-17)
(-0.000122878 -0.0003098 -6.40356e-19)
(-0.000108161 -0.000327368 -9.10017e-19)
(-0.000128954 -0.000320444 -7.33869e-19)
(-0.012675 0.00308703 3.83499e-19)
(-0.0111686 0.003764 3.74395e-19)
(-0.0126177 0.00494365 5.84653e-19)
(-0.00983671 -0.126712 1.60115e-18)
(-0.0131746 -0.123287 2.40342e-18)
(0.06735 0.0437717 1.06516e-18)
(0.0697005 0.052718 4.27461e-20)
(0.0207016 -0.00242948 -2.61216e-18)
(0.0196336 -0.00177696 -1.24991e-18)
(0.0425588 -0.0234451 -6.97532e-19)
(0.0415234 -0.0211712 -8.81776e-18)
(-0.0163778 0.0300473 1.2922e-18)
(-0.0173844 0.0342533 -2.47702e-19)
(-0.0133126 0.0323852 -1.10206e-18)
(0.017541 -0.036244 -1.86255e-18)
(0.145402 0.0442201 -1.88604e-18)
(0.13558 0.0294135 -1.26517e-18)
(0.0999081 0.0351354 -2.43062e-18)
(0.000857576 -0.000642189 -4.21732e-21)
(0.000890109 -0.000711538 -2.48677e-20)
(0.000935652 -0.000651429 -7.17688e-20)
(-0.112191 0.14369 -2.02511e-18)
(-0.0907865 0.127065 1.27408e-17)
(-0.103328 0.117568 -3.45473e-18)
(-0.062828 0.0919131 -5.04451e-18)
(-0.0420368 0.0764549 1.91285e-18)
(-0.120094 0.131773 -1.74821e-18)
(-0.15301 0.197748 -6.59613e-19)
(-0.130497 0.194785 4.20856e-19)
(0.00185814 -0.0015348 5.75411e-19)
(0.00167299 -0.00159983 2.28702e-19)
(0.00183611 -0.00176605 3.3071e-20)
(0.000785277 -0.00061306 1.3002e-19)
(0.000829414 -0.000570142 2.9283e-19)
(0.234951 0.0566776 1.38767e-18)
(0.232716 0.0520658 -1.98441e-18)
(0.266488 0.051239 7.24737e-19)
(0.055324 0.0403369 -1.19817e-18)
(0.0460989 0.0508662 -5.68565e-18)
(-0.00891449 -0.0458588 -2.75525e-18)
(-0.016236 -0.0535096 -1.16202e-19)
(-0.0180565 -0.0421495 -3.36973e-18)
(-0.0266237 0.0764253 -9.64355e-18)
(-0.0267697 0.0638595 2.3239e-18)
(-0.025074 0.0724889 1.12654e-17)
(0.000346385 -1.59916e-06 3.029e-20)
(0.000283292 2.04037e-06 4.38003e-19)
(0.0255876 -0.0195536 7.34762e-19)
(0.0252688 -0.0212609 -3.45855e-18)
(0.027091 -0.0207504 -9.97109e-19)
(0.0130496 -0.0833278 -2.10925e-19)
(0.0111705 -0.0822367 2.48588e-19)
(0.16069 -0.128817 -6.0924e-18)
(0.139997 -0.147386 -6.17892e-19)
(-0.000570584 0.000233877 3.06679e-20)
(-0.000595883 0.000231295 -3.73247e-19)
(-0.000586016 0.000255276 -5.35486e-20)
(-0.00030915 -0.000170255 5.01747e-20)
(-0.00030147 -0.000180769 4.76113e-20)
(0.0607428 -0.0129074 -1.79783e-18)
(0.061775 -0.0111235 -4.89563e-18)
(0.0632247 -0.0134167 -2.01684e-18)
(0.0799258 0.0126319 -5.31588e-18)
(0.0757735 0.0144125 1.05724e-17)
(0.000352486 -0.000834946 1.87737e-18)
(0.0003394 -0.000790154 -1.17966e-18)
(-0.000568511 -0.000477367 1.43322e-19)
(-0.000548535 -0.000504452 -1.55605e-19)
(-0.000545238 -0.000477049 2.75935e-20)
(0.00509066 -0.000438228 5.25576e-19)
(0.00453004 -0.000353941 -4.02455e-19)
(0.00476976 -0.00091477 1.18914e-20)
(0.0377092 0.00651323 3.97061e-18)
(0.039055 0.00574779 7.36416e-18)
(0.000736261 -0.00110532 -5.75182e-19)
(0.000820835 -0.00116397 -1.09951e-18)
(0.310124 0.0405282 3.06074e-19)
(0.261568 0.0346723 8.35209e-19)
(0.342132 0.0542971 1.51571e-19)
(-0.000162669 -6.90903e-05 -9.5491e-19)
(-0.000156412 -6.52679e-05 -6.06333e-19)
(-0.000164112 -7.22653e-05 -9.38032e-19)
(0.03696 -0.0152555 -5.27828e-19)
(0.0380068 -0.0212448 -1.59698e-19)
(0.0162661 -0.00198325 -8.00693e-19)
(0.0158254 -0.000310363 -7.80315e-19)
(0.0179571 -0.000948086 9.63872e-20)
(-0.127716 0.250594 4.81811e-18)
(-0.124324 0.242833 2.31281e-17)
(-0.206165 0.199251 1.91998e-18)
(-0.192983 0.199203 2.24616e-19)
(-0.210733 0.250904 1.20388e-19)
(-0.0161847 0.0537292 6.63128e-18)
(-0.0173476 0.0646991 -1.01378e-17)
(-0.000167081 -7.73723e-05 9.06159e-20)
(-0.000163645 -7.08085e-05 -1.70948e-19)
(-0.0141031 -0.0366629 9.11176e-21)
(-0.0114881 -0.037989 1.64884e-20)
(-0.0147742 -0.0391232 1.43352e-19)
(-0.0212757 0.363551 -1.04978e-19)
(-0.0438401 0.407771 1.73858e-18)
(-0.0882763 0.451693 -2.50821e-18)
(-0.000741394 -0.0002339 7.16834e-20)
(-0.00074785 -0.000210228 1.1497e-20)
(-0.000762263 -0.000223329 2.1926e-19)
(0.000621135 -0.00116436 3.50619e-19)
(0.000656246 -0.00110234 -4.79711e-18)
(0.000568988 -0.00109253 -1.67967e-18)
(0.0239721 -0.0634326 3.73615e-20)
(0.0256625 -0.0670134 2.40744e-19)
(0.0212986 -0.0664838 7.71236e-19)
(-0.000135893 -0.000286621 -7.65824e-19)
(-0.000114612 -0.000293336 -2.80039e-19)
(-0.130433 0.245985 -2.5111e-17)
(-0.124241 0.248456 -8.22731e-18)
(-0.000268151 -6.37407e-05 2.0647e-19)
(-0.000297061 -8.32589e-05 2.386e-19)
(-0.000288142 -6.18133e-05 -8.29999e-20)
(-0.000607014 0.00292181 7.48147e-20)
(-0.000453788 0.00254435 -7.61768e-20)
(-0.00015173 0.00281095 1.90895e-19)
(0.0438911 -0.0247344 1.87474e-18)
(0.0449177 -0.0227988 -1.48972e-18)
(-0.0934087 0.175907 4.38659e-18)
(-0.04418 0.142682 2.59142e-18)
(-0.0414078 0.159195 1.52878e-19)
(-0.000273318 -7.57089e-05 1.37444e-19)
(-0.000276991 -6.84177e-05 3.17985e-19)
(-0.000269803 -7.03415e-05 2.10196e-19)
(-0.000252134 -0.000111903 2.25333e-19)
(-0.000260809 -0.000110859 3.94479e-21)
(-0.139156 0.159935 4.3898e-18)
(-0.124042 0.173276 3.68943e-17)
(-0.000668152 0.00137192 -6.10546e-21)
(-0.000791493 0.00130713 -9.52328e-20)
(-0.000741558 0.00147516 -2.33911e-20)
(-0.0143157 0.00278893 -1.24273e-18)
(0.0147174 0.039165 9.74266e-18)
(0.00591519 0.043609 -7.78796e-18)
(-0.000153721 -2.98063e-05 -5.06595e-20)
(-0.000131693 -2.2867e-05 -2.51983e-20)
(-0.000150861 -4.30057e-05 1.11169e-19)
(0.0212231 -0.00332123 -2.08844e-18)
(0.0217006 -0.00413702 2.0413e-18)
(0.0222427 -0.00297302 5.26187e-18)
(-0.00107695 0.00298321 6.48412e-20)
(-0.000660309 0.00341514 1.09374e-19)
(0.00186881 -0.000335146 -8.38601e-19)
(0.0015174 -0.000501715 -6.25534e-19)
(0.00149234 -0.000146634 -5.58868e-19)
(0.000595639 0.00241074 -1.33278e-19)
(0.000407147 0.00269125 -8.30051e-21)
(0.000785088 0.0027546 9.36116e-20)
(-0.00129397 -0.000122873 -2.17884e-20)
(-0.00127386 -0.000130191 -1.49904e-19)
(-0.000229313 -3.61153e-05 -1.88936e-19)
(-0.000237924 -2.82673e-05 3.04966e-20)
(-0.000228136 -2.97871e-05 2.60376e-19)
(0.0201828 -0.00359178 -6.48805e-18)
(-0.000740341 -2.11699e-05 2.10124e-20)
(-0.000729927 -2.05216e-05 2.66863e-20)
(0.00625069 -0.124489 -1.63167e-18)
(0.000341475 -0.121905 -1.18019e-18)
(0.00946523 -0.114232 5.33094e-19)
(0.0101542 0.297733 -4.21298e-19)
(0.0725249 0.224316 -4.26305e-18)
(-0.000602105 -5.40594e-05 -5.32713e-20)
(-0.000431912 -9.19464e-05 -1.34069e-19)
(-0.00047794 9.97359e-05 -1.56774e-19)
(0.0112009 -0.00896546 1.12538e-18)
(0.0105689 -0.00819987 -2.18002e-18)
(0.0457691 -0.0259455 3.60885e-18)
(0.0431345 -0.0269051 1.09035e-18)
(-0.152859 0.198751 -5.54771e-19)
(-0.133592 0.172947 -6.54262e-20)
(0.0241234 0.0959634 -6.52585e-19)
(0.0277343 0.0641889 -1.72586e-20)
(0.0271754 0.0943602 -1.61571e-18)
(-0.0290151 0.0594871 2.12899e-18)
(-0.0377217 0.063437 5.67575e-19)
(0.0292126 0.0116798 -4.34643e-20)
(0.030379 0.0113575 9.36737e-18)
(0.0300532 0.0127399 8.00865e-18)
(0.191947 0.0506 1.00128e-18)
(0.156682 0.0567586 6.08799e-19)
(-0.000548686 0.00139784 2.84082e-19)
(-0.000608527 0.00126995 -2.70956e-19)
(0.0679794 -0.0212961 -7.40045e-18)
(0.0654876 -0.0215814 -4.99845e-18)
(0.0142271 -0.00228966 -1.81024e-19)
(0.0134405 -0.00205011 -3.5072e-18)
(0.140746 -0.0917427 2.90409e-18)
(0.173348 -0.11652 -5.82123e-18)
(0.000162751 4.528e-05 5.75608e-20)
(0.00016181 5.96072e-05 1.0578e-19)
(-0.000327056 2.89058e-05 -2.86503e-21)
(-0.000322669 2.99146e-05 9.03046e-20)
(-0.000327037 3.27562e-05 3.52449e-21)
(-0.000783314 -2.94018e-06 -2.01241e-19)
(-0.000721672 -0.000249384 2.983e-20)
(-0.0637884 0.015934 2.10785e-18)
(-0.0683013 0.0106269 -1.31021e-18)
(-0.0700501 0.0185047 -4.35066e-19)
(-0.0638348 0.205805 3.90438e-18)
(-0.055043 0.194 -1.65983e-20)
(-0.067078 0.209193 5.31872e-18)
(0.0274608 -0.0706482 3.01303e-19)
(0.0298018 -0.0745568 8.48842e-19)
(0.0250562 -0.0742424 3.49281e-18)
(-0.00105681 -0.000229324 -7.69218e-19)
(-0.00110711 -0.000157683 1.106e-20)
(-0.00100047 -0.000172886 3.73332e-19)
(-0.000248096 -0.000118363 7.11099e-19)
(-0.000252822 -0.000123689 3.90185e-19)
(-0.000244236 -0.000125187 -1.93736e-19)
(-0.0578773 0.0134555 2.58471e-18)
(-0.0592869 0.0197379 4.0385e-19)
(0.0196383 -0.0537451 1.86579e-18)
(0.0177523 -0.0503508 3.9147e-19)
(0.0154053 -0.0526171 4.63743e-19)
(0.000169906 -2.09071e-05 3.65139e-20)
(0.000203204 -3.56921e-05 -1.32527e-19)
(0.000167811 -2.60347e-05 1.74993e-19)
(0.140327 -0.0358667 1.87569e-18)
(0.0871219 -0.0728754 -1.71252e-19)
(0.0499289 -0.0499152 2.75597e-19)
(0.0526487 -0.0486241 8.0523e-19)
(0.0496551 -0.0466056 -9.07782e-19)
(-0.000325414 2.0058e-05 -1.28385e-20)
(-0.000326132 2.55551e-05 6.90795e-20)
(-0.000321488 2.20722e-05 -8.91751e-20)
(0.000160519 0.000372673 -1.82314e-19)
(0.000165679 0.00039873 2.90942e-19)
(0.000187931 0.000386487 -9.56267e-20)
(0.0030593 -0.00219757 -1.34853e-19)
(0.00273566 -0.00229994 -3.53303e-19)
(0.00276434 -0.00195869 7.80817e-20)
(-0.000549816 2.66828e-06 -1.20094e-19)
(-0.000548193 -1.81376e-05 -8.95538e-20)
(-0.0308327 0.0797122 -4.85683e-18)
(-0.0255405 0.0901556 -1.23491e-17)
(0.00403233 -0.000294723 4.78592e-20)
(0.0043358 -7.82889e-05 3.63524e-20)
(0.00391053 0.000108667 8.65778e-20)
(0.0382215 -0.00799587 2.16085e-18)
(0.0389705 0.00620464 6.13022e-20)
(0.0396209 -0.0090372 -2.98841e-19)
(-0.000998243 7.34582e-05 -1.09154e-19)
(-0.000824934 0.000242216 2.99226e-19)
(-0.000552653 -5.03248e-06 -1.8895e-20)
(-0.000621608 -5.55e-06 8.62368e-21)
(-0.000537872 -3.26298e-06 -1.95535e-20)
(0.0420808 -0.0773671 2.63021e-19)
(0.0393365 -0.0742331 -1.48186e-19)
(0.0433475 -0.0726897 4.86076e-19)
(0.00186366 -0.0013426 3.67085e-19)
(0.00185937 -0.00114794 -2.71849e-19)
(0.00168265 -0.00121688 -1.35272e-19)
(0.0746909 -0.0236917 1.48787e-18)
(0.0765334 -0.0215153 -3.56504e-18)
(-0.000193667 -4.28929e-05 1.2571e-19)
(-0.000197753 -3.67201e-05 -2.01815e-19)
(-0.000199906 -4.22265e-05 6.57702e-19)
(-0.00441874 -0.362418 -1.85809e-17)
(0.00800465 -0.439381 -2.70623e-18)
(0.00561293 -0.00522483 3.17322e-19)
(0.00684542 -0.00625307 2.30299e-19)
(0.000763963 -0.000431727 1.97524e-21)
(0.000710412 -0.000405837 -3.98387e-19)
(-0.000328582 1.80284e-05 3.52314e-22)
(-0.000324133 1.54726e-05 -5.39476e-20)
(-0.0130227 -0.0341328 1.26281e-19)
(-0.0165631 -0.0348371 -3.42968e-19)
(-0.0636163 -0.028206 -9.61646e-19)
(-0.0881498 -0.0628567 2.34345e-19)
(-0.0854655 -0.0438174 -5.86538e-19)
(-0.0365285 0.00660986 -1.06038e-18)
(-0.0395312 -0.0130565 -3.56377e-18)
(0.000780086 -0.000478963 2.7281e-20)
(0.000814801 -0.000441545 -1.0571e-19)
(0.0236537 -0.0541622 1.82674e-18)
(-9.96464e-05 -0.000351085 1.3199e-18)
(-9.08397e-05 -0.000343198 2.0419e-19)
(-0.000928264 -0.000445706 2.58757e-19)
(-0.00100272 -0.000408371 3.8378e-19)
(-0.000981247 -0.000500105 1.03722e-19)
(0.155497 -0.0368558 -1.12769e-18)
(0.122999 -0.0499407 -5.0761e-18)
(0.112008 -0.0568251 -2.78995e-18)
(0.0826341 -0.0169211 -3.00363e-19)
(0.0875932 -0.0196148 -3.17032e-18)
(0.085161 -0.0215367 -5.12475e-18)
(-0.000855319 -0.00047016 -9.67955e-21)
(-0.000875299 -0.000393613 -2.61781e-19)
(-0.000219056 0.0014227 -2.01409e-19)
(-0.000314726 0.00142509 -1.02128e-19)
(-0.000224558 0.00152464 -1.87499e-19)
(-0.00114156 0.00145062 -2.40404e-19)
(-0.000823398 0.00186775 -1.51236e-19)
(-0.00138446 0.00194508 -5.69407e-20)
(0.000766554 0.00213957 -1.70634e-19)
(0.000449489 0.00214268 1.95004e-20)
(-0.00207785 -0.00563892 1.00738e-18)
(-0.00184585 -0.00529368 2.51219e-18)
(-0.00160603 -0.00567866 1.41573e-18)
(-0.000750833 -2.1506e-05 -2.85578e-20)
(-0.00076005 -2.629e-05 1.49818e-20)
(0.00221922 -8.62221e-05 2.10442e-19)
(0.00226198 -0.000558416 4.32604e-20)
(-0.00028798 -0.00159225 6.55547e-20)
(-0.000263257 -0.00174868 -5.95445e-19)
(0.000155679 0.000345576 -7.46054e-20)
(0.000133256 0.000355192 5.38876e-20)
(-0.000239335 1.80136e-05 -1.26836e-19)
(-0.000238539 2.28896e-05 -2.63491e-20)
(-0.000234799 2.01192e-05 4.58715e-21)
(-0.000214455 -0.000114751 -2.01368e-19)
(-0.00022092 -0.000114661 1.10386e-18)
(-0.000214946 -0.0001095 4.99103e-19)
(-0.060922 0.0937315 -1.6061e-17)
(-0.0470695 0.0831178 -3.51134e-18)
(-0.0581207 0.096102 -2.15187e-18)
(-0.000248384 -0.000200181 2.27964e-19)
(-0.000113979 0.00141435 -1.95737e-19)
(-0.000212197 0.00132432 -4.62015e-20)
(-0.000886114 -2.84829e-05 3.89997e-21)
(-0.00088252 -3.78068e-05 6.40943e-21)
(-0.00087162 -2.81177e-05 -1.04274e-20)
(0.0203448 -0.0484903 -2.9664e-20)
(0.0168026 -0.0475123 -7.58034e-19)
(-0.00010629 0.000240236 -1.5674e-19)
(-9.89319e-05 0.000252277 -2.92893e-20)
(-0.00011706 0.000249636 -7.34119e-20)
(-9.63008e-05 0.000229715 2.31e-19)
(0.000170019 -1.49005e-05 1.25665e-19)
(0.000125788 -1.17478e-05 -6.79643e-20)
(0.000222599 -0.000901333 3.81914e-19)
(0.000267348 -0.000941983 -1.73273e-18)
(0.0002211 -0.000953385 -2.06974e-18)
(0.00156166 -0.000324208 1.58101e-19)
(0.0016696 -0.000206683 -1.71583e-19)
(0.000114592 -5.31276e-05 -1.63151e-19)
(9.87316e-05 -4.24327e-05 -3.27561e-20)
(0.000102512 -6.00872e-05 -1.95594e-19)
(3.38357e-05 -2.60917e-05 2.11889e-19)
(2.00713e-05 -1.8285e-05 1.05581e-19)
(2.51179e-05 -3.29783e-05 -1.77532e-19)
(0.00377724 -0.00272479 2.31701e-20)
(0.00415152 -0.00301076 2.77829e-19)
(0.00420626 -0.00245924 8.74092e-20)
(0.0213962 0.12314 5.61655e-19)
(0.021715 0.0942986 1.18371e-19)
(-0.000311971 -9.57867e-06 7.95776e-20)
(-0.000302312 -4.23809e-06 -1.76898e-20)
(-0.000553387 -3.42996e-05 9.0978e-20)
(-0.000525741 -2.46811e-05 -8.23345e-20)
(0.0135266 0.140917 2.93622e-19)
(0.0084771 0.139013 5.93475e-19)
(-0.000367451 0.149311 -4.85312e-18)
(0.00132659 -0.00255999 3.00008e-18)
(0.00140654 -0.00238001 -1.56684e-18)
(0.0012075 -0.00243496 2.69093e-18)
(0.000504259 -1.2087e-05 -1.43488e-19)
(0.000510484 -1.60022e-05 3.43989e-20)
(0.000489177 -1.1264e-05 1.41542e-19)
(0.000500881 -1.02229e-05 1.14257e-20)
(0.000513513 -1.18805e-05 -1.36789e-19)
(0.00438431 7.09991e-05 2.50716e-18)
(-0.00878666 -0.0022005 5.65656e-19)
(-0.00294626 0.0100589 1.27144e-18)
(-0.02296 -0.0171609 8.56434e-20)
(-0.0195233 -0.0202806 3.60893e-19)
(-0.019917 -0.0153042 -1.99124e-19)
(-0.00058222 -0.000454638 1.46954e-20)
(-0.000582585 -0.000482516 1.75263e-19)
(0.022453 0.0204209 -5.25155e-20)
(0.0187038 0.018933 3.15317e-19)
(0.0219487 0.0163189 1.3674e-19)
(0.0229579 0.161906 2.00014e-18)
(0.0285989 0.162991 -8.53714e-18)
(0.00380476 -0.00263913 -2.16155e-19)
(0.00328651 -0.00260117 -2.62449e-19)
(-0.0364933 -0.0238152 -7.15312e-19)
(-0.037952 -0.0256212 6.51901e-19)
(-0.000207393 -0.000113622 -9.44082e-19)
(-0.000213009 -0.000121203 -8.49095e-19)
(-0.018179 0.0214569 1.49911e-19)
(-0.00918867 0.0221003 4.7578e-20)
(-0.00491514 0.0306376 1.24331e-20)
(0.0265663 -0.0603895 3.48207e-19)
(0.00900885 -0.039088 -6.29399e-20)
(0.0115192 -0.0387561 -3.00262e-19)
(0.00991621 -0.0412268 2.34974e-20)
(0.0226823 -0.0160806 -2.00624e-18)