/*--------------------------------*- C++ -*----------------------------------*\
| =========                 |                                                 |
| \\      /  F ield         | OpenFOAM: The Open Source CFD Toolbox           |
|  \\    /   O peration     | Version:  v2012                                 |
|   \\  /    A nd           | Website:  www.openfoam.com                      |
|    \\/     M anipulation  |                                                 |
\*---------------------------------------------------------------------------*/
FoamFile
{
    version     2.0;
    format      ascii;
    class       volScalarField;
    location    "200";
    object      omega_0;
}
// * * * * * * * * * * * * * * * * * * * * * * * * * * * * * * * * * * * * * //

dimensions      [0 0 -1 0 0 0 0];


internalField   nonuniform List<scalar> 
10042
(
0.0219189
0.0220478
0.0219106
0.0232288
12.3822
0.0220685
5.51256
0.584074
0.0217646
0.0220082
5.12061
0.023167
0.0215339
0.0214954
0.023475
0.0220303
0.022022
0.0222586
0.0219212
0.134153
0.0219038
0.195743
0.0215926
0.0216219
0.0220548
0.0273402
0.0221316
0.0226419
0.0217884
0.0223315
0.0220195
5.67406
0.022019
0.0222226
0.0253812
0.0216342
0.0267691
0.0304031
0.0216361
0.0289888
0.145543
0.0230977
5.384
0.0219958
12.5042
0.0503509
0.0223014
0.0790928
0.0261623
0.0420575
0.022167
0.0224321
0.0231487
0.0230112
0.0267953
0.0220613
0.0217887
0.0222728
0.0222145
0.0229695
0.0220436
0.0220027
0.0255377
0.0218872
0.0222409
0.0222272
0.022043
0.0736089
5.47431
0.0218821
0.0229733
0.158564
0.0219994
0.0320057
0.022021
0.0216191
12.3132
0.0219304
0.0298261
5.59247
0.0256343
12.2301
0.0219803
0.0227483
0.0220492
0.0222138
0.021899
0.150856
0.0219492
0.0219007
0.0221461
11.8678
0.0227108
0.0223415
0.0222895
0.0218585
0.0219377
0.0218527
0.0285191
0.0217919
0.0222908
0.10091
1.01825
0.0222023
0.0225374
0.049775
0.0219209
0.0219318
0.021912
0.0214607
0.0217164
0.0218339
0.0252259
4.94065
0.0222307
0.021849
0.0219463
0.0219265
0.0218565
7.52172
0.0219433
0.322796
0.0220221
0.0219842
0.0991101
0.021984
0.364216
0.0268104
0.0479479
0.021893
0.0307912
0.0220116
4.73187
0.164496
0.0217921
0.055492
5.26159
0.0221547
0.0824758
0.175826
0.0226508
0.0219435
0.0224366
0.136902
0.0220025
0.0218337
0.0545001
0.0215635
0.0218651
0.0249415
0.021789
0.0222555
4.57946
6.30843
0.0221854
0.0215286
0.0225947
0.0219949
0.0563361
11.4879
5.91096
0.108609
0.0219875
0.02179
0.0220395
0.0219948
0.0592249
27.7889
6.05805
7.36656
0.0226205
0.0218461
10.4858
0.17483
0.0377314
4.53264
7.18054
0.0220099
0.0853323
0.030633
0.0227344
5.96659
0.022097
0.0267558
0.0229885
8.93299
0.199288
0.0220421
4.8683
0.023532
3.08068
0.0224328
4.39418
4.09486
0.0843433
1.16923
0.0247368
0.0219314
0.0215332
0.0232087
0.0367334
0.0220761
0.0218268
0.174478
0.0220827
0.0216845
4.8277
0.0221563
0.0222604
0.022243
0.728847
0.0218816
0.0549294
0.321958
0.0225646
0.207145
0.0219714
0.0219888
0.0602464
0.0217744
0.0252974
0.0227137
0.382999
0.0312142
0.0252369
0.0279936
0.30058
0.0218412
0.138336
0.0232034
0.0217641
0.137852
0.0218543
0.0231757
0.0219407
0.0250964
0.0217108
0.0214815
0.0230479
0.0256153
0.0219943
0.0220271
0.0219983
0.0252939
0.0218497
0.0220281
0.0216245
0.0225962
0.0227922
0.0222689
0.0215346
0.0218746
0.0240748
0.525595
0.108868
6.0965
0.0383663
0.0370168
0.023651
0.0561375
4.97258
0.0228668
0.0219239
0.0215001
0.023151
0.0217103
0.213559
0.0231744
0.021895
0.0222506
0.0384655
0.0228432
0.293844
0.0376301
0.179892
0.0235962
0.0256007
0.0217144
0.024511
0.0220199
0.0317398
0.0219186
0.0273921
5.05425
0.0216859
0.0218522
5.01387
0.0516868
0.0220122
0.0220425
0.0238184
4.47125
0.0491345
0.142317
0.022182
0.0215292
0.0218418
0.021776
0.30495
0.0218919
0.0220375
0.0218444
0.0219724
0.0311313
0.023669
0.0735899
10.0837
0.0227697
4.94581
0.0218529
0.0243424
0.0221231
7.27336
0.0986292
1.22043
9.61022
0.0216042
0.0232068
0.0218869
0.023822
0.028049
0.0222418
0.0318803
0.0217102
0.0214971
0.0220137
0.0803967
0.022284
0.0232751
0.0219773
0.0235163
4.76814
0.0218532
0.0221758
0.0219879
0.0218633
0.0405867
0.0843186
0.0368918
0.620398
0.0314305
0.0260142
0.0219923
0.0214778
0.0222197
0.0222681
0.379507
0.0219184
0.0222284
0.0889601
0.0218289
0.0244674
0.0228614
0.0940395
0.0219322
0.0250477
0.0451928
0.0316596
0.0231357
0.0219371
1.25571
0.0552935
0.0222903
0.040198
0.0219494
0.0218578
0.0219474
0.0243974
0.787262
0.0241976
0.0222494
0.022739
0.0222923
0.022271
0.131707
0.021935
0.0216251
5.52892
0.0218411
3.35441
0.37133
0.0325864
4.0162
7.15448
0.0273183
0.140793
0.0221582
0.0431172
0.0222914
0.0222174
0.218803
0.0220639
0.0240501
13.1917
0.0220267
0.0219052
0.0502464
2.36361
0.0221526
0.0215588
5.72411
0.0998712
0.0218426
0.0741304
16.8788
0.0217733
0.0222641
0.0216436
0.0218767
0.0214783
0.0216791
2.37227
1.26685
0.0222531
10.072
0.0214973
0.021892
0.559481
0.0220645
2.96408
0.0525688
0.022764
0.0215995
0.0215495
0.136958
0.0227202
0.0273254
0.022332
4.71471
0.0224524
2.51063
0.0232835
0.021936
0.0218489
0.652983
0.0219513
0.0256764
0.0218761
0.0219062
8.33823
0.0247926
0.0219364
0.0217534
5.97065
0.0218847
0.0250501
0.0231371
0.021715
9.07112
4.12698
0.0218851
0.0221774
0.0242911
0.021534
0.0220078
0.0219728
5.72273
0.0219959
0.0217489
0.0281598
0.656556
0.0547419
0.0222686
0.0302073
18.2609
0.0325333
0.0219399
0.0219422
0.163385
0.0222263
0.0219419
0.0291144
0.0218059
0.0216801
0.0228603
0.0215679
0.0376941
0.0219182
0.0219554
6.597
0.0217657
0.0225652
0.0220659
0.0222718
0.0317156
0.0218892
0.0218368
1.21689
0.0224415
6.26359
0.0228379
0.022282
0.0222767
0.122876
0.0219163
0.0219413
0.0220124
0.0223677
0.0274896
5.83893
0.0218885
0.0373435
4.83639
0.0324236
0.0222612
0.0219612
0.022106
0.0222031
0.0218654
2.27413
5.16006
0.0220737
0.0268236
0.0271535
0.0267553
0.0220295
0.0216617
0.266093
0.135728
3.49664
0.0215938
0.0221442
0.0220193
0.0218461
6.32689
0.0333187
0.0223748
0.0218425
0.0218052
0.021998
0.259423
0.0247884
0.0221392
7.03833
1.46078
0.429761
0.050612
0.0220151
0.0217973
0.0477051
0.0498452
3.98254
27.746
0.0245835
0.0259825
0.0222106
0.0232293
0.0221632
0.0221998
5.37974
0.0216177
0.021857
0.0480183
0.0222104
0.212193
0.022684
0.111796
0.0286631
0.022245
0.0230503
0.0253784
0.0346865
0.0505635
0.0822001
0.0222824
0.0419355
0.0227693
0.0218574
0.0221185
0.0222438
0.0220347
0.0248374
0.0548095
0.0408547
0.0221427
0.0224926
0.0220083
0.0219248
0.128489
0.0219296
0.0231135
0.162206
0.0215695
0.0499506
0.0617712
0.0220399
8.66261
0.0366723
0.0222099
0.22331
0.0219922
0.0222687
0.0219721
0.0219814
0.0222924
0.0236074
0.0220054
1.03687
0.0226529
0.0219659
0.0221539
0.0321041
0.0304612
0.0219794
0.0239088
0.0217975
0.0297078
0.0219438
0.0288282
0.0216303
0.0229548
0.0215457
0.021934
9.45878
0.0216498
0.114147
0.0219684
0.022686
0.0217471
0.0302852
0.0220743
0.0378941
0.0220114
0.197851
0.0222623
5.29558
0.0215599
0.0233657
0.0222716
0.0219882
0.0219606
0.0235681
0.0220342
0.125757
34.3807
0.196599
0.0235506
0.0359475
0.0218187
0.0377898
0.0502921
0.0220115
0.0287722
0.0865608
4.29888
0.0620097
4.8217
0.0259753
0.022096
0.0222315
0.0242797
0.0236011
0.0325813
0.0216083
0.0231697
0.0991368
0.0222649
0.0219252
0.0241878
8.4384
0.0232186
0.0290074
0.0474736
0.0222517
5.4333
0.0216247
0.0218323
0.0223553
0.0218098
6.27966
0.0563524
7.54876
0.0220565
2.96266
12.6581
0.354204
0.0322971
0.0564683
0.136759
0.039486
0.0219778
0.0218798
0.0298999
8.07376
0.0218109
0.0288232
7.11613
0.0219132
0.0219108
0.0218629
0.022791
0.0219527
0.0219832
0.121215
2.98439
0.021953
0.0219989
4.6708
3.74489
0.0218225
0.0219434
0.022155
0.0218805
0.61273
0.0561922
0.292557
0.0225371
0.0219054
0.0217704
0.0227652
0.0220522
0.029823
0.0225736
10.1211
0.0220061
0.0220747
0.0395698
0.021807
0.0305429
0.0655509
0.0228933
32.4258
6.17085
0.022102
0.0218612
7.03915
6.20495
0.0347286
0.0219705
0.527883
0.189833
0.0256018
0.0219619
0.0219946
0.0219233
0.350167
0.0235138
0.0950992
0.0222686
4.67812
0.725404
0.0219637
0.0219897
0.11867
0.0221496
0.0217444
0.0247493
5.94689
4.02405
9.1781
0.0224318
0.0504736
0.0379136
0.0216481
0.0218686
0.0221936
0.329788
0.0222061
0.021961
0.0503375
0.0220188
0.0596817
0.0221114
0.0221061
0.0216959
0.0221509
0.149587
0.0221991
0.0218703
0.0365636
0.0551265
0.41531
0.0222101
0.0803978
3.32933
6.20283
0.0228695
5.85636
9.87521
0.0219146
0.0215455
0.0225882
0.0232354
2.79237
0.0231917
0.0221224
0.0222063
3.86549
0.0366239
0.0223806
0.0221421
0.0219402
0.0404776
0.0217584
0.0218364
0.0289884
0.0227334
0.0222043
0.0217652
1.49492
0.0218515
0.0226561
0.022029
0.0223034
0.139846
0.022203
0.0229357
0.0220714
0.0243615
0.846472
0.0222919
0.384638
0.0252564
3.20112
0.021673
0.0231969
0.0286668
0.0801542
0.0504492
0.0225657
5.80288
4.12182
0.0224803
0.0218086
0.351078
0.0220791
0.0222513
0.0217325
0.0222419
0.0458515
0.0222928
0.0222931
0.0646892
0.0277295
0.0230233
0.0309686
0.0227196
10.0404
0.0229991
0.898069
0.0218728
0.0480486
0.036141
6.01341
0.0237102
5.66105
0.0222696
0.0248646
0.0220419
0.0220516
0.0219206
0.106745
0.0399372
0.0405755
7.84758
0.0221192
11.5396
0.0251134
0.0217652
0.0311981
0.0282336
5.60516
0.0219844
0.0276901
0.0507622
0.023159
0.0414209
0.0222838
0.0215777
0.0222833
0.324468
0.0221332
0.0220032
0.0217404
0.0217309
0.0219383
0.0219889
0.0222301
0.0218565
0.0221506
0.0224518
0.024879
0.0304657
0.0219908
3.6397
0.0219566
2.36257
0.0367686
3.7834
0.033804
0.0246854
5.90472
0.030851
0.354948
6.9258
0.0400267
0.0221993
0.0218506
0.0227739
0.142456
0.0218664
6.82418
0.021869
17.7647
5.19777
0.0456368
0.0226777
7.34934
4.57567
0.0231578
0.0219803
0.0222641
0.0238988
0.0215678
0.0216747
0.0552788
0.174467
0.0220779
0.0218602
0.0223519
0.65353
0.0498128
0.0221557
0.0246985
0.0775737
0.0223895
0.0220263
6.00635
0.0222526
0.0218893
11.8743
0.0237729
0.0219571
5.88942
3.95702
11.4463
0.0219223
0.0230492
0.330648
0.021739
0.0218511
0.0222845
0.0276713
0.0220427
0.0221115
0.0234288
0.0459618
0.186299
0.0217875
0.021944
0.0220794
0.0218179
0.0224828
0.0216022
0.118953
0.0280687
0.0219607
0.0219856
0.0217711
0.0219751
0.0223419
6.47661
0.0270834
0.0215531
0.0219337
0.0407004
5.24893
0.0220425
0.021982
0.0220289
0.0215552
4.12368
0.0405857
0.0217466
0.0220667
0.0276976
0.105711
0.0221692
0.0222829
0.0246186
0.0219801
0.0249806
0.0223139
5.18944
0.0336242
0.0220689
0.0251726
10.4905
0.0278523
0.126077
0.024659
0.352703
0.022271
0.0221908
0.0243396
0.0535257
0.0219095
0.0218518
0.0222438
0.0226187
0.10668
0.120103
2.26222
0.022537
0.021992
0.0277781
0.0219694
0.0219667
5.30659
0.0234766
0.0219615
0.0219847
0.299537
0.667508
0.0219906
0.0220451
0.075753
0.021798
0.0221038
0.0219373
0.0736317
0.0228675
0.024994
11.4891
0.0222226
0.022168
3.22781
0.0219082
0.169188
0.0218949
0.0231692
0.040945
0.0219965
0.0220888
0.0222826
0.023184
5.95919
0.0219275
0.022135
0.22448
0.0254251
0.266551
7.393
0.0455506
0.0222122
0.41233
0.0218653
5.04045
0.0221674
0.0219902
0.0217201
6.49958
0.0222123
0.0223101
0.0221598
0.0302682
2.90633
0.0275691
0.0463531
0.0219128
0.022135
0.0349809
0.0278023
0.0218399
0.0246747
0.0218964
5.17316
5.22116
0.0221381
0.0228994
0.022223
2.16635
0.0221564
19.2488
0.021979
0.0218242
0.0217407
0.0223534
0.023435
0.0222715
0.0219913
0.0220061
0.588247
0.0858758
0.0218524
0.0239892
0.0236304
0.040119
0.0218483
0.025738
0.0227537
0.0219721
0.0231826
0.0284096
0.0222802
0.0219145
0.0264245
0.0217493
0.152372
0.0229322
0.143589
0.0221102
0.0220371
0.0218767
0.056637
0.0385339
0.0217734
0.0240105
0.0603293
0.0223973
0.0217768
0.0248531
0.0222247
9.42436
0.228226
0.0245645
6.84354
0.0230765
0.0307462
0.0798472
0.0368112
0.0302393
5.63083
0.0279698
0.103758
0.0219914
0.0227912
0.0218456
0.0219541
0.0254105
0.0217607
0.200279
0.0219744
0.0220023
0.0733283
0.0219465
0.0453546
0.0251811
0.0250072
0.0218717
0.0419744
0.147262
0.0214217
0.0287998
8.34712
0.0420139
0.0217715
0.0279443
0.0219932
0.0217775
3.44405
0.0218378
0.0217868
0.0438015
0.0219525
0.0256744
0.0217582
0.0220012
4.84105
0.0218471
0.0216697
0.0242352
0.021921
0.0215457
0.0222519
4.2544
0.0221428
0.022084
0.0215842
0.0681193
0.0223934
0.0241686
0.0219326
0.0339171
0.0225918
0.0219122
0.0227489
0.0220996
0.0217832
0.117618
0.0398903
0.0277426
0.0234224
0.0429896
0.0623095
0.027312
0.0279824
0.0228674
7.22407
0.021944
0.0219608
0.021924
0.0222384
0.0348728
0.0218926
8.28975
4.66452
1.50539
0.0220835
0.0242418
0.0380008
0.0215406
0.0889431
0.0460589
0.845297
0.0532682
6.15194
0.0624659
0.132234
2.43448
0.02766
0.0228258
0.0246838
0.0217777
4.74735
0.0224743
0.0289309
0.0218043
0.0247518
0.0220437
4.48212
5.88944
0.0222037
5.34538
0.631278
0.158105
0.0412146
0.0601837
0.0216735
7.29352
0.0219665
5.09561
5.049
0.0222044
0.0219129
0.0220011
0.0232729
0.0243056
0.0327124
0.150905
0.0221246
0.0220382
0.0246217
0.0223094
0.0220356
0.0256327
0.0218417
0.0220582
0.174114
0.0566043
0.0220401
6.73353
0.0228128
0.0222723
0.0234219
0.23532
0.0219433
0.0217356
0.0938379
0.180633
0.0218013
0.024727
0.58009
0.0484145
4.91942
0.0217849
0.126571
5.95517
10.8545
0.0220817
0.0219266
0.0506419
0.0259471
0.0399327
0.0222976
8.88737
0.0438546
0.154512
0.0220385
0.021976
5.45771
0.164158
0.0221491
0.0222724
7.95508
0.0219296
0.021612
0.021855
0.0231889
0.0221969
0.0293941
0.0221123
0.0234326
0.0216258
0.0297652
23.4602
0.0567766
0.0319097
6.06014
0.0677078
0.0216494
0.0217756
0.0218585
0.0222837
0.116959
0.0295543
0.0221497
0.021978
0.0219743
0.0216092
0.0319203
0.0216191
0.047827
0.023683
0.0221231
6.61681
4.6893
0.0221014
7.88399
0.0333519
0.0318908
0.0222643
0.0216299
11.2451
0.0656336
0.0219231
0.0217322
0.0219378
0.0255711
0.0222625
0.119289
0.0215247
0.0220586
0.0219951
2.78035
8.5589
0.0215341
0.0220092
0.151405
0.498072
0.0244987
5.0293
9.13606
0.0218299
0.0221418
0.0221327
0.0229582
2.70377
0.0220368
0.0222844
0.181347
0.0818715
0.0222122
0.0219463
0.0732406
0.0222837
0.0220738
0.0997989
0.0680578
6.71736
0.0219826
0.0590083
0.0406821
0.046996
0.0230851
0.0270393
0.0219415
0.0220037
0.122038
0.0254676
0.0219973
0.0244702
4.924
0.0215456
0.0218175
0.0215383
0.0746245
0.0219492
0.0220861
0.0214424
0.0219486
0.654666
10.6705
0.0222149
1.46325
5.5503
5.42723
0.0219404
0.0219534
0.0218354
0.0219024
0.0221159
0.0221493
0.0216296
0.0220821
0.0217843
0.024225
5.93322
0.0353793
0.213861
0.0278703
0.02203
0.0230853
0.0314388
0.0221736
0.0218555
0.0390617
0.0312199
0.495604
0.0365661
0.0215151
7.8154
0.0226403
0.0215003
0.0218534
0.269353
0.0382989
0.0227689
0.0252499
0.0220728
0.022093
0.0319743
0.0357374
0.0269634
5.13899
0.0220824
0.02203
0.619852
0.0364546
0.0248583
0.110286
0.0229646
0.0640116
0.21671
0.0602071
8.37363
0.0218337
0.0218009
0.0219408
0.0220479
0.022095
0.0229674
0.035527
0.0429293
18.1154
0.0220725
8.08822
3.19416
0.0242267
1.37062
0.0222132
0.0837911
9.01229
0.0219123
0.0795239
0.0215851
1.96888
0.0221976
0.162834
0.0218695
0.399783
0.03385
4.90288
0.0218531
0.13819
0.0216689
0.0229717
0.239083
0.0218441
8.20186
6.36636
0.230416
4.07311
0.0786602
6.39722
0.0375794
0.022017
0.0440168
0.0421035
4.93522
0.022076
0.0220168
0.0225859
0.0459211
0.021958
0.0222199
0.0221983
19.6232
3.03223
0.0219218
7.33287
0.0576845
0.021733
0.0371317
0.0270701
3.07094
0.0289745
0.0217735
0.71986
0.022072
0.0219385
0.0220893
0.115204
0.0544441
0.0218019
0.0263744
0.0221108
0.0222607
0.0217965
12.3701
0.0222857
0.0218163
1.69579
0.184805
0.0236926
0.0218101
2.41883
0.0280689
0.0231859
0.0219462
0.0512777
0.0229876
0.0259694
0.0244856
3.30635
0.0423893
0.0527424
0.0215064
0.0297653
0.0391635
0.0264451
0.0223696
9.42025
0.0222527
0.127648
0.0218957
0.0221935
0.0293742
0.152573
0.023238
0.0245301
0.0221131
0.0366835
0.0562044
0.072398
0.0276344
0.0222924
0.0219647
0.0280328
0.0690872
0.021941
0.0382267
0.0220139
0.0219441
4.51529
0.0219016
10.3955
0.0219464
0.0270453
0.0592961
0.0219363
0.0268244
0.0821965
0.090223
0.0219391
0.0654401
0.0225151
0.0222636
0.0219091
5.29866
4.09186
0.021914
0.0219345
0.0216512
0.0218166
0.0786284
4.82221
0.0219284
1.47717
0.0217369
0.0218014
0.0218968
0.404755
0.0227203
0.0237145
0.0219515
0.0219552
0.0219275
0.0222569
0.0222596
0.0299092
13.5442
0.0216428
0.0219209
0.0418472
0.0629832
0.0218021
3.97073
0.0489344
0.0217936
0.0215429
0.0222749
0.093527
0.0217412
0.0642261
0.0279432
0.0235308
0.0217913
0.0411534
0.0215288
0.139379
0.0274913
0.022366
2.87912
0.402437
0.0214289
0.0218687
6.37658
0.10439
0.0650663
0.0241261
0.0642221
0.0215727
7.90943
0.0526598
0.0218286
2.07034
3.83681
0.0231344
0.0425531
0.0480027
0.0217673
10.5136
0.0221763
0.0257861
0.0288011
0.022238
0.022049
0.0518448
0.0218757
0.0218898
0.0218743
6.63546
0.0218452
0.0219381
0.0217561
0.0218937
0.0218552
0.0222304
0.0451969
0.0457611
0.0233825
0.02225
1.42119
0.0222424
0.0218364
0.0219052
0.0216439
0.0220843
0.0219713
0.027072
0.0754795
0.0222241
0.0286514
0.0497882
0.0217456
0.0273536
4.37633
0.0225997
0.0215336
0.0220788
0.0845891
0.0222029
0.0222031
0.0240774
0.0246739
2.04067
13.3041
0.0218272
0.0218644
0.0219445
0.0692451
0.0232778
0.021802
0.0282546
0.073814
0.0221617
0.0267817
0.0221328
0.0992195
0.176372
0.0227803
0.12858
0.0254291
4.54485
0.0222051
0.0218979
8.35414
0.119405
0.0241267
0.131057
0.0937729
31.9998
0.0456982
0.719651
0.0250024
0.0245062
5.26861
0.0264971
0.17105
0.0281176
0.118286
4.58133
0.0222933
0.0221303
0.0219776
0.371206
0.0214506
6.46292
0.0326459
23.818
0.0229492
0.121125
0.181074
0.021947
0.0221842
0.0807254
0.0290814
0.0220884
0.0248346
0.0780486
0.0666074
0.0704236
0.0890514
12.3028
0.142686
0.022115
0.0222015
6.44215
0.0771524
0.0225776
0.0373483
4.56064
0.0222366
0.0236231
0.0219434
0.028476
0.0220386
0.0221049
0.0390874
0.0221059
0.022769
5.06943
32.5568
0.0217322
0.0256483
0.0258073
0.18829
0.0423282
0.0223273
0.0219269
0.105812
19.6078
0.0219353
0.0252212
0.022051
5.6106
0.0218363
0.0291788
0.249865
0.249973
0.0222723
0.14278
0.0831597
0.0511474
0.0255222
0.0220205
9.81929
0.0218214
0.0254071
0.0222318
0.0272391
0.0216178
0.0216414
0.0220756
0.0604976
0.0218256
0.0219774
0.021779
0.0220699
0.0218735
0.0220111
0.0796059
3.73026
3.10601
0.0248515
0.0220566
0.0321239
0.0234277
9.29884
0.0222851
0.189774
0.0216259
0.0219962
0.0223998
0.0332099
4.58078
0.0219605
4.65137
0.0222202
0.0215255
0.0229561
8.04332
0.0233113
0.0453295
9.64685
0.0222849
0.0221825
7.01658
0.0218969
6.42055
0.0220883
0.0293568
7.83407
0.0226269
0.0220956
0.0218587
10.2864
0.025637
0.0218778
0.859071
0.0219606
0.0226341
0.074146
24.2297
0.1988
5.8174
2.51722
0.0744734
0.0233979
0.192092
0.206055
0.0218464
0.0218641
0.0227855
0.0259603
0.0802266
0.0219905
0.0252945
0.021906
0.0219617
2.96534
0.0222253
10.1341
0.0215682
0.0296434
0.0514258
0.0218279
0.0215191
5.27917
8.37771
0.0606219
0.0220793
0.0246218
0.0443704
0.0217709
0.0313936
0.0884108
0.0352714
0.0234061
7.53134
26.2802
0.0215455
0.0221331
0.0216533
0.0221945
0.0227807
0.0263398
21.5819
0.0221202
0.0219634
0.0381383
21.8544
0.0215771
0.692664
0.0216114
0.115871
0.0513593
8.68172
0.0554954
0.0537195
0.0566246
0.0215264
0.0215111
0.214952
0.0251739
0.022086
0.716245
0.0218345
0.0220832
0.0216254
0.044922
0.220561
0.550526
0.151283
0.0268408
0.0289117
0.0220716
13.1778
0.176237
0.0229528
0.0219752
0.0217486
0.0750306
10.8286
0.0357637
10.9641
0.0229213
0.0217737
5.03533
0.0219431
6.73328
9.24312
0.0217053
0.0289683
0.230322
0.0240711
0.0357209
0.0218243
5.82614
0.0254947
0.16678
5.54409
4.41547
0.0265887
0.0269546
0.0221352
0.146261
13.5654
0.0229295
0.0236414
6.38186
0.049438
0.0679201
0.0222636
3.32008
5.32695
0.0992815
0.0219563
0.0256229
0.0218966
1.47443
0.0643795
0.031406
7.57047
4.47685
0.021529
0.134002
0.0220997
1.76683
0.0951817
0.0257942
0.0246559
0.784952
0.0214038
0.0518126
6.31102
5.561
0.0229311
0.0220305
0.021793
0.0895266
0.947502
0.157113
6.01919
0.0769809
0.0402303
0.0217897
4.88573
0.068008
0.0281357
0.199376
5.69705
5.8457
5.33217
10.5202
4.59155
6.27292
0.0220528
0.0288843
0.0315196
0.0220021
12.9812
0.665768
0.0220187
7.66234
0.0221287
0.0219921
0.0217748
0.029118
0.0218719
4.52189
0.0622812
0.187359
0.0217605
0.526659
0.0480232
0.370698
5.23122
0.0226976
0.0264777
0.0375156
0.0679101
0.0217605
0.0216403
0.0218924
4.49689
0.0217833
0.0217633
0.152208
0.0231633
21.7268
0.0220452
9.12532
0.0219532
0.0220597
0.0219502
0.0219778
0.0259603
0.0241707
10.8609
0.0310628
0.0329422
7.95311
0.0218183
9.57115
0.0217987
7.84468
3.37003
7.87413
0.0580994
0.0219659
0.0222726
7.48067
0.0221052
0.0254325
0.0221105
0.0278871
8.75831
0.0218848
0.0218529
0.0218847
0.0222652
6.07164
10.6076
0.0218217
0.021443
4.6726
11.1791
0.0218673
4.73801
0.0222644
10.6096
6.88597
0.056868
0.373305
1.09651
0.0874191
4.77609
0.0653073
0.0219821
0.0215468
0.0217881
9.43442
10.5639
0.0229107
0.0282934
4.87256
0.0218415
5.06339
0.0218604
0.0219987
0.0216293
1.71713
0.0607714
0.0217481
4.97896
0.0222527
4.06649
5.42785
0.021734
0.0221102
0.101859
0.021956
0.0219425
0.0218318
3.92267
0.0317928
0.0220306
0.0221296
3.26194
0.0219467
0.0405154
0.0219858
7.78986
0.0221009
0.104814
0.0236577
5.68863
7.20166
0.0304253
0.0693197
0.0497117
0.0220736
0.0751858
6.83191
0.0217474
0.071941
0.0217687
0.499883
0.0219004
7.73366
3.12435
0.109138
4.66013
5.25669
0.0413597
0.0225664
1.02022
0.0219309
13.6947
0.0253016
0.849146
0.021868
0.0325432
0.046037
0.0304059
0.0221076
0.0219464
0.0221956
5.65385
0.065576
4.60623
3.36187
0.0276247
0.0216228
0.0546355
10.0294
0.0335197
0.0217803
0.0220791
2.6391
1.42025
7.35717
5.46046
0.0348
0.0222676
0.0217806
0.0465875
0.0488264
0.606352
0.0219989
0.0220683
36.6648
0.0606168
0.0222854
0.0528448
0.663899
0.0912504
0.0216335
0.0485798
0.522291
0.942294
6.6346
0.178655
0.0218816
0.0222693
0.0220822
0.022285
0.0219646
0.0220897
0.033234
0.238912
0.0328695
0.0264148
0.028522
0.0221875
0.0260475
0.0225734
0.0346369
0.0326768
0.0218182
0.027859
0.0219037
0.0218425
0.0224641
0.0221205
0.415591
0.0216002
0.0791682
0.544331
0.591242
11.3012
4.68991
0.0224209
0.0222368
0.0219044
8.17575
0.0219728
0.0214736
0.0221739
6.67359
0.0311752
0.0318431
0.348549
0.0233364
0.022032
0.0291248
0.0218814
0.0483472
0.0222855
0.0340409
0.0217861
0.021932
0.0228642
0.0234462
0.024634
0.522332
0.0342863
0.113364
0.0556594
0.103081
0.0427174
0.0631636
0.0219312
4.85878
0.0245954
0.0265787
0.0219375
0.0226687
0.126153
0.0219839
0.0639913
7.2215
0.0294289
0.384554
0.0985764
0.053838
0.0690813
0.0601541
0.0219353
0.0278674
0.0220892
0.0767813
0.050148
7.67711
0.0217619
0.0466866
0.0264646
4.80945
0.30826
0.0429142
0.0220965
0.049989
0.0215729
0.0597469
0.0227012
5.96741
0.0216566
0.0259182
0.0220158
0.0357493
0.107126
0.0301948
3.31326
0.022039
0.0287489
0.060769
0.0220149
3.21127
9.92441
0.131172
0.0455862
0.0458471
0.0218301
0.021765
5.51208
0.0991023
0.021654
0.0224921
0.0250831
0.0219117
0.405497
0.0217782
8.69254
0.132771
0.121299
0.03695
0.0223151
0.0216663
0.0218241
0.151596
0.0830942
0.0266944
4.86115
0.0221734
0.0231181
0.0272607
9.08731
0.0215166
0.285963
0.0214039
6.70637
0.0219108
0.0219055
0.0384187
0.0219839
0.0222182
0.120485
0.0220795
0.0222862
0.0217721
0.0431193
0.0252869
2.34888
0.0219914
0.0220976
0.0218482
0.109328
0.0218084
0.028657
0.0373345
6.85719
8.40937
11.8539
0.904959
0.379038
0.0401054
0.0631417
0.0273592
0.0222513
0.0221205
9.33579
0.0579844
0.0215412
0.0219652
0.0219539
0.0264822
0.0789314
0.0222518
0.030335
0.101399
0.138462
0.119593
0.0219671
0.0222377
3.57154
0.0234787
0.0215992
4.21209
6.9727
0.0216984
0.0214362
0.0267352
0.0220539
0.0385129
0.0222485
3.08454
0.0222727
2.31854
0.0219559
5.44765
0.0291581
0.0219455
0.0509603
0.0215946
0.0220249
0.0222648
0.031039
0.449141
0.0218591
0.138239
0.0222856
0.0221997
0.117451
0.021728
0.0221279
0.0221017
0.0214692
0.0219585
0.0215149
0.0221658
1.05727
0.0218612
0.0217535
0.0572633
0.021633
0.0219405
0.022167
0.022147
9.78987
0.435765
0.0220045
0.0228471
0.0219436
0.0222856
0.156034
0.0220547
0.021983
8.04679
0.0219616
0.04211
0.047458
0.0379125
0.0218814
0.164552
0.0219125
0.279309
0.0703208
0.0218993
6.39096
2.42838
0.0283347
0.125582
0.021834
0.0218794
0.0454744
0.167498
0.0217609
0.0218577
0.0221775
0.0397447
0.0221023
0.0359152
0.0221099
0.0453541
0.35393
0.0390831
0.146525
0.0218441
0.0246267
0.0228805
0.0236586
0.0216917
0.0219058
0.0228216
0.0235269
0.0687069
0.0223414
0.0770144
0.02194
7.51152
0.0215205
0.0217789
0.067554
0.0222717
0.0984799
0.0707733
0.0368918
0.0220006
0.022831
0.0219632
0.0368045
0.0220814
0.0561816
0.0250436
0.0221473
0.0216786
0.02735
8.11054
0.0314967
0.0520439
4.89329
2.23044
0.0385057
0.0215747
7.13777
0.0219442
0.0233754
0.0224073
0.0858971
0.0219239
0.0351574
0.0278161
0.0234789
0.0221213
0.02511
0.0222
0.0529769
0.0219364
0.0221853
0.0219531
0.0278311
1.09555
0.0219876
8.56763
0.0885136
0.0214565
9.16335
0.244178
0.0218486
0.023145
0.0706022
0.0217949
0.0219118
4.58073
0.0220268
6.15998
0.0255741
0.0244135
0.0226712
0.022441
0.0219172
0.0218469
0.0621633
0.0225483
0.0219599
0.0219153
0.0223904
5.5759
0.036323
0.022036
0.0291103
0.122799
0.0675845
0.0218866
0.0220026
0.021964
0.024684
0.0228076
0.022427
0.0262125
4.96286
0.0218284
0.0229398
3.2195
0.0244127
0.0858106
0.132111
0.0218764
0.0222702
0.994067
0.0733361
0.138574
5.82771
6.6024
0.152677
2.78466
0.0217978
0.0231613
0.0216844
0.0221864
5.62185
0.0219979
0.0494928
0.0541135
0.0285316
0.0249709
0.478136
0.02191
0.0221157
0.0249956
0.0219396
0.0220495
0.0217727
0.022151
0.0599709
0.0219431
0.022147
0.0217855
0.0461938
0.0221323
8.98231
0.0219246
0.023101
0.0218167
0.0222522
0.0226972
0.0219503
0.0372847
0.0229625
0.0219355
0.0277461
0.022019
0.0222647
0.0219873
0.0311844
0.022315
0.0220334
0.0220464
0.0220595
0.0274615
0.0220204
0.0220082
0.0885717
0.0220741
0.0219199
0.0236912
3.65807
0.0465079
0.0224378
0.04502
10.9352
0.0971632
0.162285
0.0238746
0.0227374
0.0260287
0.657892
0.0220623
0.191669
0.0227374
0.0218913
0.0278074
0.0220502
0.0634948
0.0684448
0.0587603
0.0228936
0.0219467
0.027812
0.0271646
0.0229377
0.0241043
0.0235537
0.0445423
0.0765646
0.0606954
0.021931
0.0241347
2.0977
0.023133
0.0222854
6.64322
0.502017
0.0219442
0.0224073
0.0233106
0.0679333
11.7604
0.0219603
0.32273
6.37825
0.0387897
0.0543751
0.0217262
0.0234463
0.0226541
0.0699426
0.0222319
0.0296576
0.0233834
0.246481
0.0221935
0.0220615
7.58133
0.0234282
0.0230133
0.0221424
0.0222126
0.037281
4.70471
0.0275546
0.0220432
3.39547
0.0784436
0.0222994
0.0219591
0.0218337
0.0239922
0.0217575
0.158085
0.0218695
0.0241375
0.0249336
0.0504441
0.0261353
0.021831
0.0270226
0.0240717
0.0218282
0.0792866
0.0220793
0.0232657
0.0216922
0.022272
24.8043
0.0273285
0.0222848
4.93541
0.0227322
0.0219507
1.32184
0.0565423
4.56482
0.0219244
0.0230001
0.0218822
0.0225501
0.0229357
5.25683
0.0224957
0.0751372
0.021786
0.0222317
0.0238258
0.0219508
0.0368923
9.12506
0.473209
0.0219533
0.0217238
0.207537
0.022573
0.0221247
0.0262254
0.0262141
0.394577
0.0807034
0.0227328
6.239
0.0721301
0.0223922
0.0217538
0.0222152
0.028449
5.57304
0.022284
0.0542524
0.0227417
0.0220896
0.0215894
0.0225065
17.6195
0.0270043
0.0217718
0.0236839
0.0220949
0.0254111
0.0214468
0.0232976
0.0219544
0.022908
0.427625
0.0220378
0.0222129
0.0814423
0.0216156
0.0215806
7.42283
0.0218841
7.24451
5.71831
13.4352
0.0264125
0.0221372
0.0215093
0.022139
0.021483
0.0235527
0.183354
0.0444318
0.416574
0.0734347
0.0239889
0.0216142
0.0229586
0.022562
0.0222726
0.0221275
0.0215696
0.0748374
0.0224758
24.2782
0.0222552
0.0226698
0.0222636
0.0220613
8.84871
0.145288
0.0287201
0.0215077
0.0460231
0.0231074
0.0219729
0.066272
0.0214528
0.0233244
9.85472
0.0219619
0.0219067
0.0219057
6.84427
5.24079
0.0216728
0.02257
0.0246052
0.0221035
0.0217017
0.0219533
0.0220755
0.021911
0.0218497
0.0218992
0.024484
5.09894
0.0384425
0.0219407
0.0219384
0.0223052
0.0221315
0.0221773
0.0258445
0.0276206
17.2071
0.0252632
0.0221749
0.0228994
0.02195
0.0790668
0.02161
0.0222236
0.0232561
0.0279519
0.0267201
10.545
0.0221097
0.0291035
0.0226077
0.0225543
0.0221042
0.0216313
0.0229661
0.0936161
0.163116
0.0217474
0.0335148
0.065937
0.0222648
0.03534
0.0373746
4.86913
0.0222494
0.023488
0.0225198
0.021602
0.0648996
0.0219611
0.0219988
0.0445685
0.198233
0.179491
0.0217756
0.0219178
7.30272
4.8466
0.0216084
0.86617
1.94703
0.0218272
0.0216044
0.0217863
0.022073
0.02214
0.0215613
0.0278992
8.3881
0.0218066
0.0219611
0.0216995
0.0221574
0.0218
0.0218426
0.0215513
4.7014
0.0220121
0.186835
0.0221575
0.0218059
0.0229108
0.0218393
0.0221755
0.0276729
0.0221544
0.0223335
6.37832
0.0219925
0.0247512
0.0220182
0.0219869
0.0221402
0.0218185
0.0963782
0.0220568
0.0221057
0.0220037
0.168207
0.0308841
0.0221412
0.0221751
0.021943
0.0229741
4.59537
0.0233204
0.0236221
0.0219536
0.0221225
0.021956
0.048933
0.0231122
0.0228279
0.381984
0.0427172
0.021812
0.0247363
0.0220144
0.0223936
0.0218268
4.98112
0.0219621
0.0220581
0.0218106
0.0299092
0.0233427
0.0230873
0.0219247
0.0217944
0.0544143
10.2697
0.0218223
0.0567088
0.0234024
0.023319
12.8015
0.0217569
0.0219853
0.021953
0.0235881
0.0232082
0.0217959
0.0241245
0.0219097
0.0817787
0.0215351
0.0217233
0.0249122
0.022142
0.0801059
0.0254515
16.8626
0.0563592
0.022212
0.099423
4.75345
0.0227272
0.0242426
0.0220679
0.0252433
0.0217851
0.0352777
0.0423358
0.0218911
0.029053
0.0219119
4.8822
0.0222254
0.023811
5.77498
0.0382164
0.0238394
0.155156
0.0221557
0.0219947
5.03243
0.0217579
12.9292
0.0218529
0.0218737
0.0614482
2.60568
0.0219191
0.0430078
8.2564
0.0218612
0.0221744
0.0219974
0.0266913
0.025034
0.0227651
0.0220054
4.59319
0.0219653
0.0225798
0.0219438
0.0219131
0.0220353
0.02331
0.028596
10.8396
0.0222315
10.1
0.0219448
0.0227607
0.0244143
0.0226284
0.0514686
0.0531109
0.0224252
0.0219366
0.0218311
0.0751644
0.021736
0.0218387
0.446341
0.116317
0.0217419
0.0220029
0.0217903
0.0220879
0.0245043
0.0809493
0.0219666
0.0221267
0.0217506
0.0221896
0.0219654
0.0215104
0.0265183
4.98306
0.0217035
0.0223213
6.72253
0.0219138
0.0375138
0.0220686
0.0284264
0.0470055
22.2868
0.0222612
0.0220545
0.0217942
0.0221528
0.0220417
0.0214553
0.0221438
0.0221266
0.0231518
0.0473834
0.024621
0.0233842
9.81062
0.0220285
0.146755
0.0217362
0.0219182
0.0220159
6.2695
0.0218479
0.0505705
0.0229468
0.0225834
0.0219341
0.0217577
0.0218703
0.0223743
0.0218571
0.0218226
0.0466799
0.234633