/*--------------------------------*- C++ -*----------------------------------*\
| =========                 |                                                 |
| \\      /  F ield         | OpenFOAM: The Open Source CFD Toolbox           |
|  \\    /   O peration     | Version:  v2012                                 |
|   \\  /    A nd           | Website:  www.openfoam.com                      |
|    \\/     M anipulation  |                                                 |
\*---------------------------------------------------------------------------*/
FoamFile
{
    version     2.0;
    format      ascii;
    class       volScalarField;
    location    "650";
    object      ddt0(omega);
}
// * * * * * * * * * * * * * * * * * * * * * * * * * * * * * * * * * * * * * //

dimensions      [0 0 -2 0 0 0 0];


internalField   nonuniform List<scalar> 
9793
(
4.69936e-06
1.26227
-1.10184e-05
0.0212851
-1.84286e-05
0.0279538
-0.00223565
-0.0478537
2.71306e-05
1.75139
-8.93906e-06
-9.18637e-06
2.02738e-05
0.107955
-1.55923e-05
0.000341206
0.00192653
1.91309e-05
-0.108564
-5.04304e-06
9.68453e-06
-2.30353e-08
0.0253952
-0.0874265
0.138792
7.95062e-05
-9.23657e-06
9.86032e-06
-3.81872e-06
0.00316852
0.0864234
0.105626
-2.49499e-05
-7.04275e-06
-9.07856e-07
0.000658574
0.000185659
-5.97875e-06
-0.0534662
0.000655759
0.00230596
0.365691
-0.482766
-3.07353e-06
1.84529e-06
5.57085e-06
0.397092
-6.02447e-06
2.04469e-05
1.00886e-05
0.000634601
6.30231e-06
0.00128278
-5.85444e-06
-0.000114413
0.0121418
1.98686e-05
0.0146758
1.9409e-05
-1.79574e-08
1.511e-05
0.0042973
-8.06536e-06
0.00147815
3.35941e-05
2.46648e-05
0.490803
0.000171622
0.000212532
-0.518127
-7.8342e-06
-0.000314749
0.0713839
0.206254
-0.512226
5.41278e-07
-0.00233061
-0.314691
-5.84687e-06
-4.66898e-06
0.00208763
-0.119196
0.00195841
8.8021e-05
0.000224796
0.015826
-1.80732e-05
0.00408506
-0.0542889
0.000538091
0.0192169
-0.0823532
4.14028
0.000959425
-0.523399
-3.80309e-07
-0.611859
0.00121938
0.000194913
-9.71695e-06
0.0148966
0.00113784
0.0667247
9.2565e-07
-0.224053
-0.66104
0.124213
-1.99179e-06
-3.88322e-06
-7.8669e-06
-2.86894e-06
0.0228585
-0.0319858
0.121206
-4.5039e-06
-4.13261e-06
6.4862e-05
1.70333e-05
0.00228034
3.38478e-06
-0.182993
0.0058068
-0.662756
0.00163381
0.000191854
6.21206e-06
0.00214037
0.0469632
0.00858601
0.00100798
0.000151341
-8.3808e-07
2.89016e-06
0.000100861
0.000520089
-0.00838502
0.0542426
7.70664e-05
2.80833e-06
0.00250633
-0.174705
0.000552465
1.32204e-05
0.00319993
0.701083
-0.114872
3.13654e-06
-0.621002
5.22627e-06
4.53717e-06
2.05201e-06
-1.04914
0.000167315
-8.03711e-06
-6.71696e-06
5.60078
0.00215661
1.26624e-07
0.0454524
-7.3538e-06
0.00378596
0.00015576
1.29996e-05
0.132395
2.28334e-05
0.159621
0.053848
3.4447e-05
1.2862e-05
2.95683e-06
7.5515e-06
0.0350582
-0.862093
-0.0997407
2.0016e-05
0.0176944
0.00020141
-0.122605
-3.30809e-06
0.000168515
-0.227261
0.458926
0.00510606
7.38227e-06
1.06145e-05
8.12011e-06
-0.402363
0.120693
0.718091
0.0264268
1.92088e-05
-0.837751
-0.0151184
2.4934e-05
5.53708e-06
3.94016e-05
-0.00558979
2.18556e-05
1.73439e-05
4.90828e-06
-2.4637e-06
7.28118e-06
0.000785655
0.000262383
-0.0279165
4.18506e-06
0.000512555
3.20787e-05
9.44226e-06
0.136808
0.00217447
-0.227539
1.32629e-05
-0.431306
7.05062e-05
0.00196605
-9.62007e-06
0.0161517
2.42903e-06
-0.000253985
0.00167007
7.26867e-06
0.0651135
-0.103127
0.000883432
1.32846e-06
0.00235065
-0.0813916
0.000735451
0.00195693
-0.0187372
0.0142439
0.0017316
0.00159608
0.0103608
1.36669e-05
0.26912
0.121001
3.12395e-05
-9.77366e-06
0.673338
-1.32684e-06
-4.51028e-06
0.010011
0.0126483
2.42266e-05
0.000172447
0.00061295
0.000364524
0.000193731
-5.2067e-06
0.000685885
-0.0245779
9.44826e-06
-0.096024
-9.61649e-06
1.90889e-05
1.8796e-06
0.00791833
1.34703e-06
-16.3521
-0.322542
6.55518e-06
9.30058e-06
-0.0631797
2.32607e-05
-6.90645e-06
2.42717e-05
-0.280188
0.0104163
6.87063e-05
0.0604666
0.00622778
0.0505198
0.0337653
3.38752e-05
0.250239
2.4277e-05
-0.0621569
-0.146196
-0.0496775
-0.205964
0.0111859
0.000152405
0.00164035
0.000242677
-9.5022e-06
2.795e-05
-0.0256798
7.91698e-05
1.24415e-05
3.16889e-06
2.43463e-05
5.76556e-06
8.15803e-06
0.0431369
9.86872e-06
-1.43904e-05
-1.8154e-07
1.68356e-05
-0.0648398
-0.148273
1.96789e-05
5.95717e-06
0.00324496
-1.28691e-05
0.00959593
-0.730389
1.20991e-06
-0.387169
0.00129012
-3.30755e-06
1.72482
0.0395004
-2.60288e-05
0.000678734
2.5766
3.04009e-06
0.000142685
-1.33599e-05
3.80868e-06
-0.0216463
0.000374335
-5.95987e-06
3.87115e-06
3.65282e-06
0.00618826
-0.0228694
-8.19056e-06
-6.00625e-06
1.87611e-05
0.038006
0.145351
-0.439868
1.58371e-05
0.000285117
-0.000160615
-0.21396
0.00401927
1.53917e-05
1.92841e-05
1.91714e-05
0.00139067
1.306e-05
-0.543255
-1.51291e-05
5.50312e-06
-0.107405
0.0561972
-0.307231
3.31109e-06
0.00751957
0.000132448
-0.0210254
-0.404887
-0.0186983
8.04904e-05
0.000463675
0.178159
0.0265808
0.0196935
-1.31557e-05
1.44373e-05
7.15138e-05
2.12056e-05
-1.2677e-05
9.43942e-06
1.17388e-05
-8.4324e-10
-0.783005
2.42232e-06
0.00204914
0.000730609
1.44117
1.53167e-05
9.06415e-05
-0.00450035
-0.011474
0.0847661
0.00373229
1.46713e-05
8.53249e-05
-7.2741e-06
-0.114537
2.55061e-05
-0.274087
0.00787389
-0.0013083
-0.194839
-0.0300095
-1.90405e-05
-4.52596e-06
1.83123
-0.730432
1.07065e-05
-0.225091
-1.78196e-05
3.05622e-05
-0.0206009
3.20374e-05
-0.00033267
1.46011e-05
0.0252538
-3.08591e-06
2.13503e-05
-0.126848
-0.00145746
0.00260061
2.98106e-05
1.85909e-05
1.05387e-05
-0.750398
0.00134466
3.38435e-05
-1.60128e-05
0.000174832
0.000207174
0.00257263
0.938505
9.16982e-06
-1.43089e-05
-0.596978
1.14204e-05
-0.0204734
-0.0748655
1.06084e-05
-2.2463e-05
2.6772e-05
-1.72354e-05
2.21327e-05
0.0100385
0.000379536
0.713721
-2.71351e-05
3.90578e-05
0.00165947
-5.46977e-06
0.000482131
1.71746e-05
-1.77183e-05
0.000173556
0.0162671
-1.17664e-06
-4.83146e-06
-3.48322e-06
2.56214e-05
1.16266e-05
3.0489e-06
1.1985e-05
-7.65635e-06
3.8696e-05
0.000226443
0.0147683
4.77479e-05
-0.0306241
6.16855e-05
-0.00382593
0.0567839
-7.44176e-06
-0.106692
0.000606928
8.35185e-06
4.65915e-06
1.40495e-05
-0.142405
0.00804823
5.33905e-06
-2.29826e-05
2.54818e-05
-0.000379164
0.000629248
-0.482836
3.4531e-05
-1.84739e-06
2.6748e-05
0.286958
-0.0415489
3.20069e-05
6.40899e-05
-0.108423
0.118307
0.0759963
7.3512e-06
-1.07249e-06
-0.0306231
1.31469e-05
0.000793069
1.05587
2.50087e-05
-0.0612976
0.000413184
0.0195329
1.04049e-05
-0.074907
0.091037
0.000301635
3.89993
6.80485e-06
-0.0575225
-7.14638e-07
2.59388e-06
-1.69176e-05
1.07363e-05
-0.400492
1.72e-06
1.87398e-05
9.03067e-06
1.61792e-05
-5.36778e-06
0.000789572
3.39909e-05
0.00141774
-8.075e-06
-1.11491e-06
-0.00148811
0.000398071
3.02275e-05
-0.108065
0.000202829
1.08589e-05
-6.11999e-06
2.04463e-05
-0.693949
1.84999e-05
3.01863e-05
-0.116099
0.589835
0.00149364
3.93e-05
-1.0054e-05
2.60362e-05
8.10369e-06
-0.0701454
9.72407e-06
-0.00817276
0.000160389
0.011112
-5.55217e-06
-0.383641
4.96818e-05
0.00131388
1.13263e-05
0.00391959
-0.0241578
-4.03811e-06
0.00174861
-1.97174e-05
5.84972e-06
1.71609e-05
-0.253209
-0.0240092
1.28232e-05
0.000498912
2.06531e-05
-0.092657
5.63376e-05
0.000704803
-0.0796405
-9.42874e-06
4.85568e-05
0.00146782
4.06419e-06
3.06399e-05
1.77786e-05
0.0103276
3.59951e-05
-0.117864
1.37867e-05
8.95254e-06
0.00195087
0.00492855
0.637584
-1.71435e-05
-0.25547
-5.06838e-06
-0.00433364
-1.05031e-05
3.4056e-05
5.07359e-06
2.38042e-05
-8.70142e-06
-0.0299134
0.00183081
-0.0396073
0.00567928
8.70728e-05
0.000247358
0.0658509
0.000127336
-0.0577579
0.0287397
-0.00279465
0.105006
2.11377
0.00331953
2.86132e-05
-0.0295092
0.00192182
2.91925e-05
-0.0367697
-1.73294e-06
0.0593698
3.71557e-05
0.225308
-1.73619e-05
0.0690405
1.10026
0.00173363
0.0105974
-7.28816e-06
-0.125926
2.48226e-06
1.39341e-05
1.6075e-05
-6.39318e-06
0.00108393
-0.0207664
-0.0769944
0.846016
0.000101184
5.33096e-05
0.0259205
-0.0136282
3.64505e-05
0.00303363
8.70531e-06
-0.0505681
-0.124127
1.71882e-05
-5.83707e-05
0.193522
1.10481
2.50076e-05
7.40276e-05
-1.03758
0.00069739
-0.218864
0.00549818
1.58808
0.000132531
0.000133245
1.48425e-05
-1.12006e-05
0.0209162
5.13522e-06
0.0234683
0.00717545
-0.00222147
2.79048e-06
1.66073e-05
4.46164e-05
-2.18263e-05
7.5504e-06
5.05893e-06
0.00444467
-0.114194
0.153004
9.29723e-06
0.164786
3.89083e-05
0.10638
0.00249862
-0.000990133
-0.000477751
-0.218829
3.50704e-06
6.09802e-07
-0.000404254
8.43418e-06
2.85189e-05
0.00263527
0.0739829
7.38395e-06
0.0165943
-0.0682403
0.000210523
-0.0398942
-0.0825397
1.03699e-05
0.0017716
0.000421825
1.78082e-05
1.8093e-05
-7.8787e-05
-0.0626459
0.0938021
-7.14525e-07
4.18477e-06
-1.01832e-05
7.4628e-05
3.29633e-05
9.21847e-05
0.0842278
0.00245329
-1.94453e-05
1.42875
0.000780246
8.25479e-05
1.66032e-05
0.267248
0.000126098
5.73646e-05
0.0164522
-0.0125969
2.55848e-05
1.43651e-05
-6.18866e-06
0.00025676
8.06599e-07
0.00182151
-0.179948
9.38202e-06
0.00911001
2.31157e-05
2.22599e-05
0.879212
-0.129919
0.023782
-5.79103e-06
1.29815e-05
0.338166
3.25509e-06
0.115489
1.14056e-05
-7.18185e-06
0.154753
0.0262084
0.000609549
0.0152493
0.000157215
-3.42359e-06
3.6718e-06
1.52736e-05
-0.359892
3.4183e-05
-6.93742e-10
0.0284498
-3.69462e-06
-0.0522941
0.000182626
2.02304e-05
-0.0977341
3.91949e-05
-1.09841e-06
1.38401e-05
0.000284292
0.026308
1.90493e-05
1.76761e-06
5.0568e-06
5.4335e-07
3.87965e-05
9.93014e-06
-0.212636
0.000588418
1.91568e-05
1.02495e-05
-8.32104e-05
0.00223564
0.000332065
4.38692e-06
-3.08549e-06
-5.63245e-06
7.05215e-05
-0.0230957
0.0840609
2.83248e-05
0.286867
-7.61946e-06
7.99348e-05
-3.5722
-0.00733983
2.62575e-06
1.73034e-05
0.0004324
0.00233801
5.71411e-05
-5.27412e-06
-0.131713
-1.29756e-06
0.00207311
-2.09844e-05
0.00475653
1.66851e-06
5.44825e-05
-1.10885e-05
0.000405143
-1.48447e-05
5.9117e-05
-2.10428e-05
0.000711889
2.06544e-05
1.40946e-05
3.72302e-06
7.98284e-06
2.62368e-05
1.19302e-05
0.0006834
-2.30995e-05
0.00268006
0.109268
0.00108067
0.00272535
-7.10347e-06
1.7714e-05
0.0978164
0.144862
2.87903e-05
-0.033213
0.0396775
9.76842e-06
5.70608e-06
-6.13993e-06
0.00443534
0.00289626
-0.00500577
1.38893e-05
0.000185447
1.91147e-05
5.34682e-06
5.32591e-05
0.00135608
2.66011e-05
0.0163677
2.71607e-06
0.00112842
4.9629e-06
2.85788e-05
-6.4992e-06
0.00156832
-0.000575153
-0.0865186
-0.0245569
-0.0523719
0.00197696
-7.65467e-06
-0.0882776
-0.0208693
0.0035995
1.60496e-05
-4.98421e-06
0.00551077
-6.15315e-06
0.0303073
1.41188e-05
0.000806184
3.19397e-05
1.23159e-05
-1.19428e-05
0.43681
-0.471758
0.0277642
0.000100246
0.100723
-2.62055e-06
-0.169116
-0.769403
-1.68443e-06
7.03642e-06
-1.20642e-05
1.05607
3.22239e-05
-0.209784
3.48264e-05
0.0110642
2.61639e-05
0.284875
2.78324
0.00750595
9.19497e-05
0.000803915
4.6124e-05
-0.845685
1.08201e-05
0.00127817
0.161486
-0.000612677
-0.4504
-0.501877
0.000153441
8.48844e-05
3.74365e-05
0.00502117
-0.0988585
0.0050044
-1.0119e-05
-0.00436723
0.00028249
-0.00949811
-8.57886e-05
0.0713773
0.0914822
1.85615e-05
6.57792e-05
0.000913257
0.00015965
4.19206e-05
0.0848242
2.47754e-05
-0.790107
6.33227e-05
1.64998e-05
0.00276026
0.0284647
0.739476
4.05126e-05
-0.0634305
-0.105009
5.1256
-2.13912e-05
9.9558e-06
4.21711e-05
8.96059e-06
-8.21675e-06
-4.21789
0.0746454
3.02279e-05
-1.01457e-05
0.00110741
-0.0129738
0.000201869
5.18825e-06
-0.0111573
-5.24788e-08
1.6109e-06
1.08781e-05
0.00341894
3.87372e-06
0.000234759
0.0215435
0.00200836
3.71941e-05
0.0166586
6.78958e-05
6.5847e-06
2.34265e-05
0.000938343
-2.85154e-07
3.73135e-05
-3.68436e-06
-0.505547
0.0100454
1.23315e-05
0.00109709
-0.00015558
-0.111488
-5.59349e-06
-0.17856
-5.93409e-06
-1.5353e-05
-0.0584133
-0.0851179
0.00345765
1.11045e-05
-2.02847e-06
1.22433
-0.00870619
0.0154671
-0.0111608
1.65278e-05
5.71035e-06
-2.2716e-05
0.132791
5.61964e-05
0.171489
2.53187e-06
1.76499e-05
5.32008e-05
3.1561e-05
2.91019e-05
0.000636953
7.05961e-06
-0.164412
2.62694e-05
-1.10105e-07
1.78688e-05
0.000222653
0.0854759
0.0358103
0.00290989
0.0972658
2.22138e-05
-5.56069e-05
6.25831e-05
0.0489414
-1.54447e-05
1.08438e-05
-0.0456603
0.000156485
6.21536e-05
-4.61414e-06
0.0805338
0.470948
-0.208318
1.20098e-05
6.13659e-05
-0.00982658
0.00106058
-6.63232
0.00754322
0.00164585
1.59717e-05
-4.20599e-07
0.00348219
0.00859903
3.31877e-05
0.00375267
-1.77823e-05
2.7685e-05
1.67854e-05
-8.99601e-06
7.0872e-06
-6.15225e-06
0.505834
0.000226527
5.6369e-05
0.000735444
-6.61389e-06
-1.18735e-05
0.000588692
-0.259709
-0.00101795
0.00180361
0.140513
1.69361e-05
-0.901586
0.000157084
-0.0305665
0.000571105
-1.09877e-05
3.11685e-05
0.000114804
-0.74653
-0.00169304
0.000958166
0.00182416
-5.55142e-07
-9.01253e-06
-6.8716e-06
-7.64633e-06
-0.0420288
0.000304946
1.03533e-05
0.0120046
0.00115774
-0.230378
4.65686e-05
-0.0159188
-0.000123872
0.00143035
0.00120666
0.00506023
0.0211016
1.95213e-05
0.0822718
-0.0711815
9.99939e-06
-0.172813
0.00191609
3.0829e-05
-1.40371e-06
-6.56404e-06
6.76566e-05
1.51141e-05
-0.903236
0.0024744
2.08369e-07
-0.179462
1.18386e-06
-0.0512017
0.00859934
3.69481e-05
-1.0065
1.69809e-05
2.7126e-05
6.18436e-06
0.128046
-0.372662
0.00250422
8.52167e-05
2.52928e-05
-1.03498
5.84555e-06
0.000368585
1.63528e-05
3.79313e-06
1.0314e-05
-0.086402
3.3785e-05
0.000177668
0.000202897
7.75816e-06
-0.0961732
0.00284071
0.00136477
0.000126542
0.000143184
-0.0701643
-0.114282
-2.16081e-05
-9.18342e-06
-2.3286e-05
2.4127e-05
1.75554
-0.484058
-0.00364685
0.000134099
1.06996e-06
-0.520097
0.350555
1.17429e-05
-0.673068
1.80333e-05
0.00368787
-0.62171
4.65738e-06
2.0422
-0.685281
0.00433603
0.00940977
-0.0751892
-1.23699e-05
1.45353e-05
-0.032311
-0.0191111
2.18843e-05
0.0555695
0.000215404
-4.67383e-06
-9.1614e-06
6.67887e-05
0.00145034
0.000246591
0.011806
-0.0261552
-0.0514001
4.99644e-05
2.71109e-05
0.00191414
0.0171713
-6.60577e-06
-0.0301819
0.00109097
-5.99556e-06
0.000107788
7.4536e-06
1.14107e-05
4.6691e-05
-0.00714449
2.06855e-05
1.23167e-05
-0.0396692
0.0251107
0.0056007
3.34449e-06
0.0018064
-1.35721e-05
2.4496e-05
-0.0865623
0.639265
3.50822e-05
1.99212e-05
-0.160897
-0.0462141
0.00112271
1.0075e-05
-0.578279
1.9947e-05
-2.38194e-06
-2.06287e-05
3.56505e-05
8.981e-06
2.96167e-05
-0.359466
0.0177272
0.000136594
0.00283344
0.00214532
-0.00335904
-0.565632
-0.124381
0.0231742
-3.55644e-06
-1.70204e-05
3.70579e-05
2.77817e-05
-0.0031789
1.45969e-05
-0.0024086
0.000617598
1.31513
-1.54967e-05
0.0382228
0.000550444
-0.138404
7.66643e-06
0.00867415
0.00090986
0.0301774
0.0229586
0.000410664
2.96415e-05
-0.681006
0.00219363
6.08618
3.26905e-05
-0.0111518
-2.18062e-05
0.128041
0.0746348
0.00181632
-1.59114e-06
3.00306e-05
-0.0810373
1.75083
0.00109777
1.96955e-05
0.202949
0.00312603
0.00164729
0.0697731
0.0110084
-5.55346e-06
-0.0087338
-1.87711e-06
0.00127719
7.93067e-06
0.565924
8.23898e-06
-7.59484e-06
-0.0247177
-0.00176676
5.28111e-06
0.00238581
0.00018841
0.00174344
9.81431e-06
-0.0373512
-1.91229e-06
0.000463317
1.33212e-05
2.45583e-05
-0.0214015
0.000683121
0.0722616
0.151202
-0.0296195
6.5712e-06
-4.17375e-06
-1.74476e-06
0.000302354
0.00133998
0.000858425
0.166603
0.000112191
0.0288788
0.000409009
-1.17622e-05
1.47017e-05
0.00385795
0.249157
0.138981
1.76022e-06
-0.00184833
2.12486e-05
-0.274953
-0.0204401
0.00221432
-2.37816e-06
1.9315e-05
0.000966554
12.7364
0.000155554
4.9008e-06
1.02087e-05
0.00160792
1.66598e-05
-0.0597561
-0.088221
0.0128475
-3.0957e-05
0.000369525
-0.80557
2.548e-05
-5.62818e-05
-6.54605e-06
-2.82182
0.000448388
-5.23525e-06
0.000921014
-0.0971037
-1.55752e-05
-0.0700544
-1.62789e-06
0.0108292
-0.0161698
0.0178323
0.0296411
3.30775e-05
1.91275e-06
0.161304
1.73551e-05
0.000723227
0.0084411
0.000113281
1.0834e-05
-0.625301
-1.25145e-05
0.00104811
-1.27991e-05
-0.0105199
1.94311e-05
-0.0143081
6.24341e-05
0.000201149
-0.0814315
0.19514
-2.32521e-06
2.98385e-06
0.0201523
-0.139098
-0.00923778
0.21091
0.000804877
5.58386e-06
3.82219e-06
-0.0930091
-1.06848e-05
-0.157195
0.00146772
-0.0131215
3.22088e-05
1.90371e-05
5.72231e-06
0.00106975
0.00224313
-0.00325153
0.0183175
-8.5538
0.0867819
-1.15952e-06
-0.0177176
5.53774e-05
0.00365015
2.37331e-05
0.000907221
-0.000256116
-8.44947e-06
-4.93458e-06
0.00377747
1.88415e-05
0.000667195
-0.000287027
-0.072931
-0.267052
0.00166277
-0.0875036
1.44492e-05
-3.18509e-06
2.36076e-05
-0.0478666
-0.00264952
0.00105333
0.00380925
0.865711
5.02083e-05
0.0148343
-6.78346e-06
1.57053e-05
-1.02072
1.06397e-05
0.0380154
1.62645e-05
-1.25012e-05
0.139029
0.0312153
-1.54249e-05
0.00350784
-0.0310019
-0.46778
0.0307154
0.000175859
0.00384211
0.00271203
1.74077
6.4142e-06
-0.184458
-0.157804
-3.81802e-06
0.000263714
3.92725e-05
0.131942
2.31773e-05
-7.59033e-06
0.120931
1.44339e-05
3.64877e-05
0.0075496
0.00341777
-0.000709965
0.0142947
-0.00279795
0.0695332
1.57771e-05
3.3556e-06
-2.43063e-05
1.35444e-05
0.458888
1.35077e-05
0.00589136
5.32812e-05
0.171857
1.54249e-06
6.70197e-06
-4.84919e-06
1.84429e-06
4.60951e-05
1.56916e-05
1.02889e-05
0.183039
-8.07678e-06
0.00285492
1.74604e-05
0.0894855
-8.16234e-06
2.96788e-05
-1.61537e-05
0.00214041
-5.0628e-06
2.44104e-06
-1.05697e-05
-1.25952e-05
2.90187e-05
-2.53989e-05
7.70674e-05
4.15321e-05
-0.0225043
-0.153343
0.454333
-0.0424996
4.53165e-06
2.68273e-05
-2.60801e-06
-1.39418e-05
-1.30143e-05
5.85382e-06
0.00923003
-3.1694e-06
3.55717e-06
2.38248e-05
-2.34865e-05
1.90138e-05
-0.508157
1.55931e-05
2.17079e-05
-1.18064
0.00214482
-1.99476e-05
-0.575758
0.0136644
7.12278e-06
-0.107527
0.0522486
2.04102e-06
0.000199115
1.05235e-05
1.41899e-05
0.00013442
5.24169e-05
0.00186282
2.73671e-05
2.44257e-05
-7.5238e-06
-0.468551
0.000560213
0.00119101
3.08579e-05
1.02467e-05
0.232123
3.21902e-06
2.13473e-05
0.000125593
0.000156187
7.57383e-07
0.0597806
-0.497323
-0.786431
0.148712
-0.0138599
0.000329332
1.7079e-05
0.586644
0.00440821
4.44955e-05
0.00258709
-1.84974e-08
-1.67353e-05
3.11498e-05
0.018425
-0.000420066
3.3644e-05
-1.43848e-05
0.0236284
1.33137e-05
0.107252
1.94232e-05
-0.0448836
-0.0219757
1.08378
9.96407e-06
2.12798e-05
2.46783e-05
-8.00835e-05
1.81542e-05
0.000356838
-0.000592965
2.45112
2.32709e-05
-0.274593
-0.623482
3.32466e-05
-0.102472
-0.00019593
0.000880735
0.002109
-1.54345e-06
0.00022557
0.00172418
-7.52193e-06
0.000244973
2.97522e-05
0.222119
7.97456
0.000664055
1.04784e-05
0.00548024
0.00138789
0.0133147
-0.033657
6.8697e-05
0.000630659
-4.74154e-06
1.60594e-05
0.00172121
-0.00108519
-1.0021
4.68263e-06
0.00183091
5.8263e-05
-0.18026
0.00268378
-0.143051
8.50588e-06
1.15967e-05
-0.00647944
-0.0110188
-0.000327525
0.078041
1.52015e-05
0.0661541
-1.08324e-05
-1.50375e-05
0.00200339
0.0981348
9.09411e-05
-4.94225e-06
-0.00464916
-0.00666307
-0.0372381
-0.00322191
7.96424e-06
1.52388e-05
-1.32872e-05
0.0310422
1.27607
-5.25969e-06
0.00216267
0.0451651
0.00307682
-0.00584303
0.00793295
-0.0600933
-0.0916981
-1.77975e-05
3.66451e-06
-0.0301959
3.30032e-07
0.000322304
-0.0513302
-0.769584
7.38354e-06
5.61684e-05
0.0211941
0.0119627
-0.0424297
-0.456437
-0.0774965
0.0202353
1.25544e-05
3.48244e-05
-7.73796e-06
2.27326e-05
2.28703
-0.000199823
0.0486423
0.0160995
0.000587573
1.95046e-05
0.0190711
1.86132e-05
0.000921612
1.01834e-06
1.02996e-05
-0.331986
1.29572
2.34117e-05
2.86418e-05
0.0016299
0.237978
-0.0124508
-0.488338
0.000215088
3.914e-06
-0.000934564
4.31051e-05
-0.000965296
-7.21552e-05
-4.92296e-06
0.233376
-0.0552618
-0.271825
0.00144068
1.67508e-05
2.35934e-05
3.64882
4.52766e-06
2.59031e-05
-3.13586e-05
-1.45106e-05
3.0958e-05
-0.00245336
-0.0169725
-0.0398852
-0.0051489
-0.255819
2.33592e-05
-6.09975e-06
0.00543767
0.000196377
0.00309281
0.0439546
1.83886e-05
-0.396292
-0.0775597
0.001917
8.59394e-05
-0.00220588
5.21955e-05
0.0169451
0.000361293
0.0400102
-9.20826e-06
4.06586e-05
0.000251678
-0.0446433
0.00579042
-0.0132447
0.0494494
-0.0769464
0.000281529
0.0124511
-0.0210658
0.0001613
-0.0208075
-0.526562
0.000104962
0.00224149
-0.160091
0.00120087
-0.000102609
1.53692e-05
0.00137171
0.00175646
0.000840038
-1.92518e-08
0.0511296
0.00467011
0.0531209
0.105982
-0.0420889
0.000285258
-0.00492138
-0.161283
2.04572e-05
0.00464019
0.0272423
0.572765
0.00024854
-6.00847e-06
0.160392
0.196118
3.36403e-05
0.00419965
-9.97828e-06
1.69808e-05
0.019441
-2.70901e-06
0.00129544
0.057668
-0.0975222
0.391288
2.0453e-05
0.00138216
-9.06457e-07
1.16401e-05
0.000715855
0.0025193
0.000427013
0.0579029
-0.00160771
-2.92802e-06
0.000392397
0.0235172
0.000101736
0.0730864
-5.71791e-05
-0.0200955
-0.0210247
0.933198
-0.299634
0.142275
0.0133847
-0.0204434
-0.042031
0.000737081
3.83103e-05
0.00119289
0.00187361
0.0536206
0.357746
8.24369e-06
5.72843e-05
-0.145345
0.0209909
0.000211117
0.0362299
-6.69885e-06
0.00474634
-0.118675
0.206816
-9.60205e-06
0.0577989
-0.0265348
0.000249707
0.000772276
-0.306101
-0.209676
0.767616
-0.305643
-6.33432e-07
1.13186
-0.00668428
0.000373414
0.00510409
-0.000490602
6.34449e-06
0.00038358
0.00862609
-0.164536
0.000195596
2.29589e-05
0.140641
0.00105822
-0.0423946
0.00252759
-0.128683
-0.0205887
-2.81314e-07
-0.560395
-1.22063e-06
0.000909985
1.3557e-05
5.93228e-05
7.09059e-05
0.000315481
-0.0385716
3.4081e-05
10.3929
0.00377228
1.26875
-0.590536
0.0139911
-4.68639e-06
-0.177712
-0.00216199
-0.000141588
0.000500352
-1.40328e-05
-0.882316
0.803942
-0.131079
-0.000357345
-1.36947e-07
5.45831e-05
6.12792
-0.0420721
0.000229118
-7.18738
-0.000273764
1.73307e-05
0.0410663
-0.000120836
-1.12254
1.39812e-05
0.000595624
0.0133806
0.44826
-0.0216361
0.0110272
-0.0231414
-0.0067858
1.34423
-1.74643e-06
-0.273726
0.00039228
1.06777e-05
2.5375e-05
4.08036e-06
0.0397061
-0.000201517
-0.0239502
-0.0252191
0.00148868
0.103643
0.00312165
-0.0341752
0.000818966
-0.180325
0.025462
-0.0233459
8.72838e-06
2.03571e-05
0.126044
0.00429063
0.00228352
0.0289883
-0.222369
0.0210157
2.85999e-05
0.000164634
-0.0070148
1.93382e-05
1.24793e-05
0.000373136
-0.025561
0.000486978
9.63244e-05
0.0501475
0.00383809
0.616635
-10.2418
-0.0212608
-0.957596
-0.109222
0.0423209
-0.0331588
-0.00845002
0.000872917
4.05939e-06
-0.000464325
0.00224089
-0.0258865
0.000271456
0.000137862
7.85741e-06
0.000903276
0.0917193
0.000294155
4.32388e-05
3.53311e-05
2.3541
1.77659e-06
-2.65333e-05
0.00187987
-0.00878875
0.000552343
0.00321461
0.0524031
6.01281e-05
0.00315318
-2.6284e-05
1.5817e-05
0.000836728
0.142448
1.75356e-05
0.00034186
0.000200624
0.189559
5.96491e-06
-0.889784
5.12397e-05
-0.0268767
6.59031e-06
2.15787e-05
2.85174e-05
0.00899308
0.00134148
-0.0459848
-0.884211
-8.40655e-05
-9.47011e-06
2.17494e-05
-0.670967
2.17249
-7.87603e-07
-0.00658813
-0.0253699
0.00139204
0.00320917
6.70834e-06
3.67541e-05
-8.70313e-06
0.036372
0.00099898
1.83502e-05
-0.400838
1.7462e-05
-0.000975211
-0.137061
8.60248e-06
-6.1086e-05
0.00186844
-0.929454
2.28355e-06
3.12829e-06
7.2912e-07
0.00156448
1.72418e-05
2.38169e-06
0.110758
-0.086821
0.00310323
-7.68353e-06
-0.105324
2.21624e-05
2.02149e-05
5.36004e-05
-0.0628683
-0.338303
0.000136817
-0.680925
-4.33812
0.00197591
0.0138415
2.37841
-0.0476353
1.08039
0.00298382
0.00366095
0.0729532
0.00108726
4.79673e-05
9.21388e-05
0.000829568
-0.72318
-1.12761e-05
-0.312849
1.25175e-06
1.64181e-05
0.00303222
5.73738e-05
6.10159e-07
-0.0339942
-0.705706
-0.0106366
0.0203886
1.78181e-06
0.00355669
0.130233
0.000358598
0.0379151
-0.000210382
-0.000508676
-0.0648275
0.00100235
1.76251e-06
0.00502398
0.0056946
-1.32499e-05
-0.00520596
3.69216
1.42431e-06
2.02611e-05
3.22172e-05
7.61965e-06
-0.35386
-4.64022e-06
0.00103254
2.17108e-05
1.50276e-05
0.000144424
1.6947e-06
0.0491427
0.00349124
8.53287e-06
2.7708e-05
0.00671441
9.41809e-05
-9.23608e-05
-0.142526
0.0359116
0.00131576
0.00335355
0.0014643
1.23714e-05
0.00842676
-0.994138
0.000447567
-0.0115076
0.89225
0.00121245
0.000499222
0.000408924
0.00237024
0.000278903
-0.22107
-9.29064e-06
2.52702e-05
-3.08569e-06
-0.188036
0.243613
0.000300346
0.00264141
2.59468e-06
0.000325982
0.00821074
0.363438
5.64754e-06
0.00112826
-0.105048
-0.000176491
1.46799e-06
-3.98544e-06
-0.532236
0.124556
-1.661e-05
-0.666688
0.000922457
-0.00223751
0.0320453
2.59144e-05
0.0157846
0.000764133
2.63841e-05
0.0570978
0.0268404
-1.59205e-05
-2.29052e-05
-0.110241
4.49031e-06
-3.73008e-06
0.00757103
-4.4667e-05
0.000166809
0.0582856
0.000245994
0.00207962
-0.0929802
6.83285e-05
0.0112872
0.087133
0.000243475
0.00333747
0.0103338
-6.33635e-07
0.00946385
4.69853e-06
-0.0489085
0.0212903
1.52115e-05
1.63842
-0.654682
-1.69002e-06
5.97475e-06
6.52946e-06
0.00167396
0.0744054
0.0486656
8.86614e-06
0.000969327
0.0469588
9.06409e-06
0.00243489
0.00410028
-0.000269031
0.0435077
-0.00266756
8.84139e-06
-0.0137241
1.37379
0.000192085
0.0634516
-8.35597e-06
1.77268e-05
4.27695e-06
9.78922e-05
-0.0298031
3.70651e-05
0.00119746
-4.06517
-0.0894096
4.62523e-06
0.000267832
0.0118995
0.00129365
-9.68647e-06
-0.0755717
0.000890586
0.00227477
0.00115601
5.51304e-05
0.000309305
1.93985e-06
-1.78237e-05
0.12402
5.17373e-05
-0.000283431
-1.41863e-05
-0.934138
3.57374e-06
-1.53673e-05
1.35727e-05
0.000125965
4.03554e-06
0.00095822
0.00101092
0.0417264
0.000423051
0.00017656
3.67477e-05
5.1036e-05
0.00202376
-0.0676131
-0.0767204
1.51229e-05
-5.4797
-1.60032e-05
0.0134791
0.0466785
0.00418239
-1.79522e-05
-0.00183023
0.00469736
-0.26723
0.00237794
-1.28445e-05
-0.0841949
0.0125942
-0.000211322
0.0398975
3.74664e-05
4.13413e-06
0.000332391
-0.130493
-8.88739e-06
0.416892
0.000250208
-1.74152
0.00154757
5.49586e-05
-0.055382
0.000323761
7.59344e-06
-0.0964312
1.86366e-05
0.0320434
-0.309172
-0.00399965
3.48367e-05
0.0159145
-7.29634e-06
0.0031413
0.000959437
-0.0469804
2.28872e-06
8.75726e-06
0.000156913
0.00032777
0.00197756
-0.0617562
0.206604
-0.000161881
-0.0010366
-7.13128e-07
-0.0115319
1.64826
0.00196008
-7.1586e-06
3.29003e-05
-1.29303e-05
-0.00612924
-4.67433e-06
0.000391341
-0.0316414
0.00330829
2.10197e-06
0.107062
0.00335718
-2.04827e-05
0.000179287
0.00491406
-0.00262371
0.00235393
0.000865119
-0.112992
0.0432564
0.0367798
6.29636e-05
-9.15769e-06
0.000140244
-1.20893e-05
0.00566378
0.00228368
0.000523657
0.00617672
-0.935672
-4.68006e-06
5.9598e-06
0.0590495
-0.124347
0.0817677
0.0137821
0.000208902
-3.91064e-06
4.33279e-05
-4.83062e-06
-1.58177e-05
0.00195986
2.53854e-05
9.17698e-07
5.7755e-05
4.50475e-05
7.22655e-05
-1.26868e-05
-0.000638152
0.00148771
1.7053e-05
-1.4728e-05
7.32126e-06
4.35972e-06
-2.44103e-06
0.00190787
9.1473e-06
-3.78077e-07
-0.00545377
1.7137e-05
5.66543e-05
-7.11158e-06
0.000482217
0.0562946
-0.890021
-0.00614874
-0.158439
-0.0939828
-0.0214566
1.34295e-05
0.00178139
1.05014e-05
0.0403547
1.11963e-05
0.00016823
-7.76562e-06
0.00214436
1.19904e-05
0.000853714
1.7514e-05
0.0457377
0.00554606
1.52154e-05
-0.83906
-0.100225
3.22771e-05
0.00432295
5.24248e-06
2.74537e-05
0.0527552
2.30613e-05
0.00213502
0.00991456
8.86365e-06
2.75146e-05
0.00262678
-0.035924
-7.18122e-06
0.000100878
0.0628996
-6.19242e-06
0.00234232
0.00179808
0.28615
1.2641e-05
0.00180539
4.67856e-06
1.36962e-05
0.0906178
0.00253025
-0.143736
-0.0226156
0.142373
0.0427978
0.00805216
0.0029135
-2.87105e-05
0.00676399
2.02913e-05
2.30835e-06
-0.000132492
6.80376e-07
1.7369e-06
2.21757e-05
2.06043e-05
0.00314954
0.234735
0.0142048
0.0772732
-0.242269
0.000115451
5.42244e-05
1.38973e-05
3.31957e-05
0.0045958
1.03824e-06
2.18303e-05
1.41077e-05
0.000122932
-5.96861e-08
0.00590355
0.00370856
0.00119318
7.74853e-06
-0.000255056
-0.000114424
-0.117696
-0.0111976
0.000197694
0.00153723
1.01722e-05
-0.433903
0.152017
-9.65263e-06
-7.1338e-06
0.000161338
9.53775e-06
0.0326213
-0.125381
0.101782
3.31959e-06
0.0991723
4.80324e-06
-0.0121355
0.00181665
1.63004e-05
0.00033218
0.23451
3.69295e-05
0.000351327
0.000830116
0.00344335
-0.0716687
7.90598e-06
-7.53571e-06
0.000103363
0.00122667
-2.95887e-05
-0.0336275
-0.202523
-3.63508e-06
4.58331e-06
0.0555011
0.00347599
-8.57343e-06
-0.156503
3.7961
-0.0502109
-0.112809
0.000549994
0.0271936
1.78675e-05
0.230745
0.0293003
0.21354
0.00341797
0.000120408
-0.0430179
0.000120924
1.05465e-05
2.74646e-05
-0.00470477
4.33409e-05
1.71667
1.1035e-05
1.36572e-05
7.45552e-05
-0.0143334
0.000133025
5.37989e-05
3.42519e-05
-0.188983
0.0598343
-0.36917
-0.0289599
0.00211441
-7.29255e-06
-5.31974e-06
0.0224773
0.00212539
-1.19975e-05
0.00261559
0.00622367
0.12204
1.70576e-05
0.100424
0.0502313
0.00169596
6.57293e-06
0.000133583
-1.90799e-05
9.98386e-06
-1.4953e-05
-2.42106e-05
-2.44085e-05
-0.000237232
-1.35907e-05
0.00814673
1.1461e-06
3.59369e-05
0.0680887
0.00343927
-4.12413e-05
4.668e-05
-0.00791713
2.44595e-05
4.99198e-05
0.000189563
1.17207e-05
0.0973288
0.000959884
4.05285e-05
0.000182322
1.54121e-05
0.000457366
-2.5265e-05
0.0356491
6.48577e-06
5.20042e-06
0.112078
2.34044e-05
0.0133326
0.00102372
8.64907e-06
0.00482897
6.02007e-06
-1.86891e-05
3.30197e-05
-0.161018
0.000126706
-7.09692e-06
0.00315679
-2.52915e-06
4.058e-05
1.00013e-05
3.15027
9.30498e-05
0.00855995
1.74172e-05
7.87e-05
-7.5719e-05
0.000127045
0.000239772
2.26326e-05
-0.0283256
1.10494e-05
0.000188055
3.15268e-06
-0.0254257
-0.0130878
3.48288e-06
0.000516327
0.0707051
3.41397e-05
2.48452e-05
-0.586895
0.000232153
-0.00850067
0.0249908
0.00063164
-1.04116e-05
0.000406825
-3.16501e-06
1.40342e-05
5.01343e-06
6.30113e-05
0.000173934
5.50807e-05
5.11471e-05
-6.32326e-05
8.83722e-06
0.00442198
1.17584e-05
1.0086e-05
2.99956e-06
0.000593464
0.00725401
7.39331e-06
2.26201e-05
-0.000129886
1.30601e-05
1.69311e-05
0.0555972
-0.791039
0.0431407
3.59993e-06
0.000148233
0.00135585
-1.82934e-05
1.41064e-05
0.00118568
0.0510304
6.43173e-06
-0.0005285
3.66974e-06
-7.7579e-06
1.805e-05
5.02563e-05
1.63178e-05
0.000967056
0.00117633
0.000441513
-0.0446638
0.000164395
9.76445e-05
6.06554e-06
0.120407
-0.0108558
-0.0179817
9.90501e-07
0.00135954
0.000346062
1.71948e-05
6.74633e-06
0.000357142
-0.0288554
0.00605935
-4.94808e-07
0.000520352
-1.0954
1.64145e-06
0.0111328
3.43326
-0.040638
0.000767711
1.8957e-06
0.000827997
0.00214906
0.00371559
-0.456553
0.215918
-0.0345927
4.65047e-05
-1.01679e-05
-1.66411e-06
0.0060977
1.2086e-05
8.63124e-06
0.00157981
6.6053e-06
4.42016e-06
2.13306e-05
-7.30576e-05
1.82516e-05
-9.95757e-06
1.54969e-05
-0.0128234
2.27122e-05
-4.91379e-06