/*--------------------------------*- C++ -*----------------------------------*\
| =========                 |                                                 |
| \\      /  F ield         | OpenFOAM: The Open Source CFD Toolbox           |
|  \\    /   O peration     | Version:  v2012                                 |
|   \\  /    A nd           | Website:  www.openfoam.com                      |
|    \\/     M anipulation  |                                                 |
\*---------------------------------------------------------------------------*/
FoamFile
{
    version     2.0;
    format      ascii;
    class       surfaceScalarField;
    location    "650";
    object      phi;
}
// * * * * * * * * * * * * * * * * * * * * * * * * * * * * * * * * * * * * * //

dimensions      [0 3 -1 0 0 0 0];
oriented        oriented;


internalField   nonuniform List<scalar> 
14470
(
-0.120494
0.25556
-0.13507
-0.00598364
0.00560271
-0.193749
-0.211164
0.404861
-0.00121429
0.00344427
-0.00222999
-0.36533
-0.213685
0.578847
0.101111
0.0516231
-0.152735
-0.17148
0.0880198
0.0834586
0.0147499
-0.0131831
-0.00156688
-0.202055
0.356143
-0.154102
0.703733
-0.368654
-0.33517
0.321694
0.381961
0.652125
-0.414982
-0.237066
-0.00889512
0.017413
-0.0085176
-0.0247041
-0.347809
0.372387
-0.2359
-0.0536342
0.289481
0.0999247
0.120344
-0.220279
-0.233731
0.466076
-0.232279
0.0108109
-0.0133531
0.00254225
-0.529546
0.0737074
0.45569
-0.522251
0.364717
0.157519
0.321539
0.275476
-0.0035631
0.000541747
0.00302135
0.00492534
0.00982457
0.00510598
-0.0140007
0.212913
-0.0889832
-0.123931
-0.0772898
0.478327
-0.401131
-0.567929
-0.034938
0.602925
-0.472836
-0.0568256
-0.0635863
0.162383
-0.0987991
-0.0178739
0.0196469
-0.00177296
0.0693338
0.0809568
-0.150291
-0.262744
-0.180587
0.443197
-0.524586
0.350463
0.174068
0.575085
-0.588335
0.0130171
0.279023
-0.204696
-0.0743474
0.192686
-0.345007
0.1523
-0.224286
0.157855
0.0664249
-0.0161051
0.00230496
0.0138002
-0.0362227
-0.177189
0.2134
-0.176984
0.113396
0.0847081
-0.0948738
0.0101655
-0.0189708
0.0101739
0.00879687
-0.612804
0.0448319
-0.459491
0.31413
0.145365
0.541456
-0.293121
-0.248309
-0.0172246
0.0203924
-0.00316784
0.597244
-0.354875
-0.242414
-0.493288
0.195923
0.297418
-0.454691
0.220992
0.185198
0.0937964
0.162253
0.412662
-0.109788
-0.096895
0.206671
0.345684
0.251514
-0.0399915
-0.123031
0.16302
0.00517028
-0.00638457
0.398254
-0.574213
0.176013
-0.198909
0.12827
0.0706355
-0.302612
-0.190635
0.24214
-0.0892706
0.175875
-0.0866079
-0.127701
0.0894378
0.0382634
0.265793
0.164256
-0.430094
0.0974608
-0.245051
0.147571
-0.652132
0.328875
0.323351
-0.373118
0.17105
0.0154433
-0.0154433
0.312604
-0.185728
-0.126908
-0.335889
0.222503
0.113363
-0.0096871
0.00401925
0.00566775
-0.0559038
0.257574
-0.201683
-0.0643405
0.0428159
0.0215247
0.0176105
-0.00274034
-0.0148702
0.0964181
0.0993966
-0.195822
-0.0119096
-0.00860718
0.0205167
-0.512014
-0.0190793
0.531081
0.0716707
0.0587731
-0.130445
0.000538126
0.0476045
-0.0481428
-0.194668
0.418804
-0.224161
0.291589
0.287093
-0.578717
0.096851
-0.0251807
0.0136168
-0.00280589
-0.103775
0.203691
-0.133313
0.294859
-0.161562
-0.143227
0.0839108
-0.157121
0.0732096
-0.271308
0.562772
-0.0783345
-0.149379
0.227688
-0.0031562
-0.0129488
-0.0938586
-0.033843
-0.00565436
0.00359959
0.00205477
-0.149152
0.103153
0.0459981
-0.0686381
-0.0805139
-0.184649
-0.0270812
0.211722
-0.0135571
-0.0054137
-0.233239
0.48398
-0.250754
-0.0183518
0.00644216
0.100086
-0.193763
0.0936695
-0.128485
0.267723
-0.13926
-0.634182
0.268751
0.0145913
-0.0099869
-0.00460436
-0.207576
0.097772
-0.0540449
0.0247086
0.0293303
-0.234455
-0.225034
0.0162784
-0.00201508
-0.0142639
0.00178235
-0.0250205
0.0232381
-0.135362
0.231771
0.189064
0.326212
-0.515377
0.214433
-0.409123
-0.312728
-0.244384
-0.278403
0.522733
0.000367285
-0.00393039
-0.00510785
0.0105059
-0.00539804
0.0148703
-0.0153116
0.000441363
-0.272443
0.216527
-0.637785
0.22052
0.417222
-0.399067
0.175122
0.223896
0.284436
-0.502202
0.217836
0.00191348
-0.00740596
0.00549248
-0.40961
0.0208559
0.388767
-0.00740588
0.0154782
-0.00807284
0.14517
-0.223525
0.0137617
0.0132623
-0.0270243
-0.240229
0.146727
0.0934913
-0.218676
-0.126355
0.0513673
-0.460951
-0.0557913
0.188654
-0.13287
-0.0177471
-0.000126848
0.189026
-0.0465272
-0.142502
0.0440267
0.144996
-0.142217
0.280216
-0.138008
-0.075577
0.411397
-0.335868
-0.247028
0.126534
0.192158
-0.305195
0.113003
0.0882896
0.171492
-0.259803
0.160031
-0.121381
-0.0386503
-0.169581
0.11575
0.0538308
-0.12382
-0.275288
0.115056
-0.62706
-0.0643877
0.150324
-0.0859416
0.0165811
-0.00781678
-0.00876432
-0.116428
-0.0595049
0.310256
-0.250716
-0.229585
0.144246
0.0853214
0.0183045
-0.0146851
-0.00361936
0.122214
-0.0781084
-0.0441054
0.350129
-0.464086
-0.0100002
-0.00835172
-0.359944
0.284353
0.401519
0.606993
-0.31154
-0.295481
-0.00281646
0.00905996
-0.00624353
-0.293863
0.165357
-0.413971
0.336599
-0.111736
-0.221091
0.332809
0.0744205
0.0527567
-0.127177
0.176421
-0.0560849
-0.189956
0.455741
0.12967
-0.0603367
0.250477
-0.383166
0.132673
0.0813692
-0.230768
0.147874
-0.29011
-0.141951
-0.380303
-0.0569899
0.0535576
0.00343223
0.380928
-0.171154
-0.209767
0.0817748
-0.0812369
-0.0312751
0.0256257
0.00564332
0.353056
-0.193112
-0.159939
0.331834
0.184562
-0.516416
0.672184
-0.350354
-0.32184
-0.271377
0.211886
0.0125363
0.000323968
-0.0128603
0.0168376
-0.0206162
0.00377852
-0.0142074
-0.00281413
0.0170206
0.275274
0.37692
-0.0762106
0.177319
-0.0510627
0.126411
-0.0753487
0.0290449
0.0215954
-0.0506404
-0.215317
-0.229472
0.444763
0.319981
-0.185101
-0.134908
-0.0136921
0.0299699
0.00107987
0.224545
-0.0793926
0.204069
0.337419
0.510736
-0.247911
-0.262784
0.520852
-0.0444996
0.0582608
0.0163417
0.00126885
0.0600643
-0.0432267
-0.0169985
-0.0370516
0.17676
-0.385723
0.208948
-0.00327833
-0.00281957
0.0060979
-0.0293127
0.0272667
0.00204602
0.0705756
0.109888
-0.180467
0.267947
-0.428587
0.160655
0.258293
-0.133365
-0.124935
-0.00578519
0.0115772
-0.00579206
-0.121494
0.438844
-0.317353
0.33451
0.131612
0.259035
0.298329
-0.557344
-0.348317
0.238637
0.109676
-0.461294
0.388084
0.0731942
0.116752
-0.283863
0.167085
-0.1478
-0.125437
0.273211
-0.00153627
-0.00899576
0.010532
-0.141696
0.309685
-0.16798
0.139249
0.0830074
-0.22227
0.177029
0.176029
0.303831
-0.169271
-0.134567
0.0423129
-0.0791701
0.0368572
0.112026
0.00649311
0.0100879
0.186965
0.250813
-0.437827
-0.00934122
-0.000345965
-0.271066
0.137739
-0.198333
-0.0571162
0.255428
-0.304004
0.279224
0.0950864
0.0649432
-0.378415
-0.25937
0.076679
-0.110073
0.0333948
0.177359
-0.0772791
-0.368898
-0.0924169
-0.00960457
-0.0279413
0.0375459
0.0145841
0.00633214
-0.0209183
-0.156037
-0.028617
0.248024
-0.480968
0.232945
0.231309
-0.131563
-0.0997565
-0.0243515
0.0257792
-0.00142821
0.101548
0.00915196
-0.110699
0.0827673
0.0187804
0.0110091
-0.00252459
-0.00848451
-0.212912
0.172125
0.0407817
-0.293382
0.0950204
0.224451
-0.127007
-0.0331249
0.00381223
-0.45351
0.282633
0.170899
-0.00364281
0.00132473
0.0135455
-0.413199
0.291735
0.273987
0.281334
-0.555399
0.0897429
-0.00503519
-0.139661
-0.227467
0.367124
-0.505781
0.261355
0.232899
-0.115373
-0.11753
0.217648
-0.142204
-0.0754483
-0.19637
0.229792
0.0901653
-0.073893
0.213132
0.123353
-0.166389
0.0430313
-0.099666
-0.167418
0.267067
0.203461
-0.0495372
0.172387
-0.122854
-0.0110173
0.000905714
0.0101116
-0.555405
0.186497
-0.0134976
0.0224216
-0.00892585
0.528838
-0.183203
0.388321
-0.635526
0.247321
-0.014607
-0.391366
0.405791
0.00708376
-0.222239
0.40955
-0.187306
0.120431
-0.0460104
-0.00731952
0.0092385
-0.00191918
-0.339743
-0.253021
0.59274
-0.58665
0.20827
-0.0480139
0.144241
-0.0962271
-0.492324
0.477634
-0.28235
-0.274688
0.556978
0.567281
-0.56861
0.00128681
0.000214629
-0.00753422
-0.0212722
-0.0357178
0.126588
-0.21188
0.0852964
-0.0543552
-0.0415944
0.0959495
0.137432
-0.198172
0.0607368
-0.00657209
0.00253012
0.000478896
-0.00300902
-0.382184
0.189065
-0.00551342
-0.0155118
0.0210252
-0.204348
0.564105
-0.359586
0.00302436
-0.0273756
-0.00920495
-0.038649
0.0478539
0.00737299
0.0104111
-0.017784
-0.00942129
-0.056539
-0.156378
0.141476
0.138731
0.09745
-0.201234
-0.261063
0.113242
-0.454234
0.309277
0.144931
-0.296112
0.0350493
0.261061
0.0871718
-0.044859
0.156668
0.056244
-0.18497
-0.401637
0.625974
-0.347737
-0.278225
0.405115
-0.218148
-0.638347
0.377756
0.260393
-0.190705
-0.000852246
0.00191949
-0.00106724
-0.0757219
0.475807
-0.400106
0.461569
-0.275693
-0.185985
0.565115
-0.465719
-0.0995926
-0.0939163
0.492192
0.0116865
-0.0130971
0.00141059
0.069316
0.0528974
0.0247176
-0.076168
0.0514508
-0.289397
0.188837
0.100554
-0.0571429
-0.172459
-0.0337892
-0.0639464
-0.144249
0.208187
-0.00188341
-0.000933071
0.183824
-0.418276
0.0111837
-0.00194534
0.152011
-0.255751
0.103723
-0.0563658
0.370482
-0.00598364
-0.199316
0.181323
-0.444206
-0.162872
0.113331
0.00218492
-0.0540691
0.186399
0.104646
-0.291052
0.0870115
-0.131462
0.0444523
0.113645
0.317188
-0.200653
-0.116542
-0.0327227
0.0259812
0.00674182
0.183631
-0.0667909
-0.116841
-0.293802
-0.230839
0.261289
-0.472359
0.211079
-0.169797
-0.119607
0.0757841
-0.122412
0.0466272
-0.00591164
-0.00696528
0.0128769
0.195104
-0.388886
0.498739
-0.172646
-0.484734
0.278864
0.205891
-0.000615381
0.0131517
-0.0166843
0.0111709
-0.00632436
0.00242272
0.00390163
0.267786
-0.468618
0.200853
0.129286
0.0543427
-0.0387816
0.125796
0.0585034
-0.0764074
0.0179039
-0.0815036
0.176831
-0.095332
0.483874
-0.220945
-0.262885
0.442538
-0.268695
-0.173789
-0.246186
-0.238524
-0.107187
0.20463
-0.373039
0.18031
0.192727
0.00423922
-0.00402855
-0.0002107
-0.517694
0.0549058
0.462699
-0.293709
-0.154829
0.448511
0.00552349
-0.0128168
0.00729059
-0.00328031
0.00242807
-0.00702476
-0.00231651
-0.410914
-0.227671
0.00912414
0.00546724
0.178208
-0.279973
0.101757
0.0439066
-0.0256732
-0.0182335
-0.00211035
0.00530508
-0.00319476
0.000511928
0.0104972
0.288027
-0.138734
-0.14932
-0.172454
0.136223
-0.0842541
-0.0853282
-0.00416278
-0.0014916
0.00396687
-0.161601
0.131438
0.0301624
-0.581114
0.0559754
0.525252
0.200428
-0.0738382
-0.440744
0.258103
0.18269
-0.192116
-0.313796
0.505747
-0.153436
-0.219608
-0.178447
-0.327578
0.506045
0.311523
0.285492
5.82196e-05
0.00418096
0.303518
0.210561
-0.11768
-0.0928855
-0.0978544
-0.124525
0.222368
0.15645
-0.108014
-0.0484366
0.256946
0.226966
0.153487
0.141358
0.00639296
0.000814826
-0.00720778
0.00892475
-0.0285061
0.0195813
-0.0210218
0.0191218
0.00190076
-0.19019
0.10868
0.184125
-0.477817
0.137081
0.150921
-0.439526
0.228321
0.137667
-0.0855682
-0.0520988
-0.596876
0.0591909
0.537637
0.0034757
-0.0105005
0.0423693
0.0674955
-0.109865
-0.0382536
-0.133228
-0.00814194
0.00181757
-0.0219948
-0.0107277
0.351262
-0.561533
0.210085
0.284398
0.141837
-0.426267
-0.0240121
0.139761
0.0587982
0.0788684
0.184855
-0.326521
0.00699505
-0.00910541
0.558937
-0.207858
-0.190154
-0.345247
0.535574
0.0381927
-0.0473976
0.444744
-0.193905
-0.0614804
-0.185703
0.0114444
0.0141764
-0.0285718
-0.489155
0.13368
0.247253
0.0136077
-0.00131215
-0.0122974
-0.0340116
-0.0303289
0.256863
-0.0715139
-0.18536
-0.110257
0.180831
-0.0500888
-0.375336
0.425476
-0.209895
0.347889
-0.13798
0.0243886
-0.0111265
-0.101915
-0.0918554
0.270564
0.185164
-0.45564
-0.258716
-0.271768
0.530372
-0.130508
0.0905141
-0.0949307
0.136523
-0.041591
0.15432
0.102531
-0.0170978
0.00241272
-0.280764
0.539842
-0.00565915
0.356057
-0.0386508
-0.0259675
0.0646182
0.391033
-0.441115
-0.00156697
-0.00945036
-0.0275901
0.056635
0.277879
0.232897
0.277979
-0.475795
0.19769
-0.293905
-0.00220789
0.218993
0.470415
-0.191515
0.00589933
-0.0158862
0.0858313
-0.111048
0.0630339
-0.0500175
0.135318
0.174054
-0.309428
-0.143742
-0.0964976
-0.12134
-0.102952
-0.00268287
-0.00472309
-0.168179
0.0789029
0.431122
-0.644956
0.127476
0.116175
-0.0468591
0.35517
-0.158244
-0.196924
-0.0096283
0.260098
-0.0907478
-0.0771807
-0.519738
-0.253155
0.486363
-0.233186
0.23072
-0.417221
0.186468
-0.194438
0.478919
0.368914
0.207207
-0.57623
-0.296403
0.179599
0.116798
-0.13603
-0.12505
0.131513
0.101383
-0.526556
-0.0119286
0.538584
0.0102057
-0.0159909
0.218578
-0.133889
-0.0846887
-0.0599122
0.102281
0.000804576
0.00172555
-0.186311
0.0261698
-0.0206515
0.158515
-0.0704977
-0.169999
-0.25857
0.46884
0.0130949
-0.482092
-0.115583
-0.213575
0.329192
0.0307164
-0.0109402
-0.0197772
-0.127354
-0.0708215
0.527864
-0.260528
0.539686
-0.279291
0.533567
-0.235092
-0.0424645
-0.0100868
0.0525515
0.0790898
-0.130153
0.0493867
-0.441059
-0.210972
-0.293761
0.182021
0.147456
-0.0620434
-0.0854132
0.00350231
0.0168901
-0.00820217
0.0155752
-0.226541
0.17072
0.0558231
0.304204
-0.15498
-0.149276
-0.0209414
0.00744213
0.0159293
0.0658453
0.174935
-0.172386
-0.00255268
-0.189364
-0.122817
0.312186
-0.157247
0.420705
-0.263505
-0.0114154
0.00987912
0.272129
0.166204
-0.438288
0.0668614
0.0595488
0.0276677
-0.105731
0.0780623
-0.260665
0.53128
-0.0678035
0.0465312
0.149825
0.0956123
-0.245454
-0.0109279
0.00533384
0.00559407
0.16935
-0.379228
0.00127736
0.0114467
-0.0127241
0.162988
-0.038207
-0.124782
0.078264
-0.314217
0.115863
0.0283774
0.201533
-0.434757
-0.0225045
0.0810079
-0.622429
0.251397
0.371012
0.130133
0.324811
-0.454949
-0.592132
0.241638
-0.245956
-0.208703
0.00257635
0.302219
0.18176
0.48793
-0.142938
-0.344956
-0.271474
0.192015
0.0794533
-0.224825
-0.243771
0.254085
0.0557239
0.106939
-0.162667
0.0983295
-0.281958
0.183605
-0.0930539
-0.594506
0.413936
0.180468
-0.405239
-0.189347
-0.000191612
0.00658457
-0.0514888
-0.00197735
0.0534663
-0.12982
-0.0967191
0.00821304
-0.270983
0.134935
0.353878
-0.209185
-0.144703
-0.39839
0.338571
0.131871
0.00138241
0.00104028
0.185355
0.58761
-0.647745
0.0602399
0.0205892
-0.0194051
-0.0011842
-0.0487297
-0.0461443
-0.0405967
0.163946
-0.508741
0.582258
-0.306855
0.3008
-0.146269
-0.154542
-0.278201
-0.261151
0.539389
0.0154985
-0.0244259
-0.0998571
0.286255
0.0943665
-0.0334663
-0.0609069
0.337212
-0.179353
-0.157876
0.0171271
-0.0267316
0.563468
-0.276419
0.00110119
0.0143421
-0.574064
0.0659601
0.508149
-0.0463281
0.122112
-0.443018
0.27594
0.167106
-0.261308
0.189321
0.0719698
-0.00867423
0.00957994
-0.329352
-0.29312
-0.0516715
0.00350838
0.0481628
0.228327
0.167453
-0.395848
-0.395698
-0.223694
0.619384
-0.281916
0.439441
-0.0326701
-0.00938009
0.0420499
0.0028657
-0.0118615
0.194698
0.232817
-0.244777
-0.00635925
-0.441784
-0.0846355
0.148434
0.0239511
-0.0117865
0.0130638
0.15619
0.001662
-0.532523
-0.00963556
0.542369
-0.0619415
0.120714
-0.51994
0.531972
-0.0120299
0.333899
-0.0331063
0.447081
-0.272086
-0.17498
0.217835
-0.0863264
0.327981
-0.563527
0.235657
0.0151264
-0.00879547
0.0115759
-0.416802
-0.388593
0.251381
0.137196
0.273922
-0.18674
-0.0871986
0.0732409
0.0179177
-0.0911592
-0.156049
0.135765
0.0202828
0.168091
-0.443897
-0.011941
0.414503
-0.043751
0.12284
0.377395
-0.172062
-0.205364
-0.207977
0.385026
0.473671
-0.403121
0.414772
0.310887
-0.0888217
0.0450703
-0.153079
-0.140333
-0.0513868
-0.000284966
-0.0629997
0.147539
-0.0845405
-0.0984993
0.120298
-0.0218
-0.0855664
-0.0833933
0.168956
-0.0175705
0.0557632
-0.108955
0.301081
0.0234025
-0.00790509
-0.00995223
0.0156039
-0.00565166
0.0687299
-0.115058
-0.0639436
0.0808368
-0.0168933
0.134954
-0.107287
-0.0555508
0.105895
0.22799
-0.0096399
0.00372826
0.115283
0.158617
-0.37911
0.101272
-0.0325427
-0.0189132
-0.501052
0.0328165
0.154929
-0.19553
0.0831628
0.0790038
-0.162169
-0.153618
0.132138
0.0214819
-0.00410738
0.000827076
-0.0252132
0.0112303
0.0139828
-0.274982
0.0882226
-0.0889323
0.172092
0.54931
-0.275377
0.0841589
-0.0889563
0.00479729
0.103135
-0.202558
-0.240427
-0.352611
0.199186
-0.147731
0.328083
-0.180402
-0.199683
0.0977619
-0.011179
0.00865446
0.0513586
-0.0929531
-0.00389041
0.0191302
-0.0152398
-0.116233
-0.188994
0.19516
0.0631283
-0.00753515
-0.00339272
0.0271671
0.00683779
-0.0340048
-0.176382
-0.133627
0.309936
0.104458
-0.195899
0.0914335
0.22033
0.0834939
0.0335135
0.0103931
0.0130733
0.000530574
-0.224257
-0.0335895
0.0583073
-0.0811432
0.0424923
-0.0144107
-0.0108025
-0.172886
0.501782
0.111447
0.00275944
-0.0126431
0.00988349
0.273603
-0.156878
0.00878989
-0.05329
-0.0595954
-0.201729
0.0177475
0.138701
-0.215936
0.105239
0.110695
-0.294713
-0.0801375
-0.270023
0.350144
-0.395892
0.174768
0.0446387
-0.171163
0.126522
0.574867
-0.332704
-0.118736
0.163373
0.0816702
0.0901073
-0.171779
0.165793
-0.0768011
-0.0889926
-0.336736
0.598928
-0.262197
-0.643683
0.363351
0.28042
0.154532
-0.302409
0.14783
0.189948
-0.335933
0.145965
-0.352322
0.514435
0.215381
-0.355025
0.0796594
-0.142661
0.00772068
0.0229949
0.0138116
-0.0385415
-0.542525
0.0269308
-0.112499
0.617625
-0.298933
-0.318527
-0.0181648
0.00821256
0.281024
-0.143412
-0.137636
-0.0598885
-0.0609735
0.120862
-0.13371
0.0606698
0.102318
0.074501
-0.38969
0.315094
0.210956
0.396007
-0.125932
0.0639891
0.442162
0.216991
-0.363261
-0.0781008
-0.126859
0.204951
-0.0123727
0.01177
0.000602842
0.245942
0.14213
-0.127137
0.00975603
-0.0183293
0.00857344
0.14787
-0.247557
0.029006
-0.00545802
0.0152142
0.412843
-0.182136
0.121559
-0.251832
0.198156
-0.135442
-0.250293
0.188723
-0.470631
-0.024689
0.0673649
-0.0426758
-0.00791811
-0.0139942
-0.00494858
0.0189428
0.205756
0.149414
0.418914
-0.157613
0.255846
-0.448423
0.192477
0.138146
-0.33922
0.20103
-0.185551
0.283851
-0.122836
-0.148245
0.0162277
-0.0467012
0.0304736
0.183657
0.0973429
-0.192807
0.105959
-0.09003
-0.0986895
0.0560782
-0.154579
-0.20706
0.424024
0.000506203
-0.0129808
0.0124746
0.310565
-0.169103
0.563841
-0.289082
-0.274567
0.0803162
0.0854754
0.0088958
0.00268144
0.465068
-0.27985
-0.4875
-0.275307
0.300735
0.383666
-0.309268
-0.0505476
0.0648644
-0.145142
0.0802769
0.362333
-0.224585
-0.137774
0.159533
0.0582972
-0.314109
0.13765
0.160787
-0.367846
-0.025367
-0.130683
-0.0193784
0.00699394
0.0123845
0.10376
0.0891897
-0.192952
-0.499401
0.187784
-0.355167
-0.0821703
0.437341
0.154096
0.0139001
-0.167999
-0.0582952
0.134836
-0.167423
0.032585
0.452704
-0.117441
-0.335274
0.381369
-0.153067
-0.0131676
-0.00214408
0.0773628
-0.251093
-0.0581602
0.186427
-0.0829426
0.0304928
0.0524498
0.389836
0.289251
-0.403199
0.27901
0.124177
-0.00366238
0.0123639
-0.00870155
0.509695
0.0780418
0.249278
-0.00665168
0.00248889
-0.106892
-0.0467248
-0.049764
0.133674
-0.0870354
-0.044424
-0.283843
-0.290323
-0.00579995
-0.0135785
0.243378
-0.447533
0.164701
-0.40366
0.238955
-0.222611
-0.180603
0.105244
0.0885102
-0.193759
-0.00483692
0.00340954
0.00142739
0.519931
-0.131525
0.223798
0.185758
0.331785
0.110387
-0.178752
0.333944
-0.280336
0.200174
-0.0579007
-0.00604298
-0.0631451
0.168384
-0.129012
-0.167395
0.36598
0.183525
-0.549491
-0.186179
0.146224
0.0424252
0.112832
0.176603
0.0821222
0.560766
-0.162609
0.418374
0.258684
-0.0517478
-0.206971
-0.0112244
0.00965748
-0.0267654
0.0164539
0.0103119
-0.177562
0.312843
-0.0178846
0.538286
-0.257024
-0.123677
-0.0922617
0.047479
-0.12715
0.0796702
-0.00754899
-0.00793863
0.0154876
-0.141976
0.387252
-0.245322
-0.313739
-0.0206404
-0.00881671
0.0294572
0.143749
0.087551
0.30809
0.255941
0.281075
0.00859153
0.0065339
0.302349
-0.582464
0.280092
-0.0805611
-0.096425
0.459188
0.0190619
-0.0101372
-0.558772
0.284075
-0.728323
0.439592
0.288856
-0.534941
0.274341
-0.100415
-0.118896
0.219306
0.333703
-0.143758
-0.13058
-0.0812968
-0.101821
-0.0597797
-0.046047
0.0422536
0.00379346
-0.330617
0.254915
-0.469979
0.216858
0.399378
0.199551
-0.0130533
0.337878
0.298279
-0.323468
0.0251808
0.191221
0.165147
-0.35636
0.115535
0.210209
0.214889
-0.0837575
-0.131145
-0.00261294
-0.018408
-0.20368
0.0964868
0.104159
-0.182266
0.268496
0.200906
0.00137288
-0.0145979
0.013225
0.146337
-0.141382
-0.00496116
-0.267228
0.456007
0.0169167
-0.0281106
0.0111945
-0.0179315
0.000184417
-0.349823
-0.00534982
0.407642
0.48167
-0.267425
-0.214298
-0.0639424
-0.0942887
0.15823
-0.0185637
0.233436
-0.0126568
0.283692
0.184144
-0.289818
0.105641
-0.171244
-0.33851
0.509765
0.147911
-0.287209
-0.440998
0.161
-0.105896
-0.0551051
0.0672509
0.231026
-0.0723135
-0.0848086
0.271946
0.243313
-0.515281
0.141635
-0.0496566
-0.0919794
0.285183
-0.523934
0.238697
0.130443
-0.263815
-0.390111
0.237115
0.152977
-0.267757
0.114652
-0.0792974
0.0368331
0.00347627
0.017113
-0.00824434
-0.150597
-0.00927356
0.02619
0.0938689
-0.225444
0.153874
0.0405927
-0.0581632
0.000865995
0.217944
-0.164541
-0.0534198
0.283168
-0.434405
0.15122
0.299818
0.000349114
-0.0125103
0.0121612
0.299816
0.181803
-0.00139265
-0.158696
0.441355
-0.128085
0.272262
-0.144194
-0.395489
0.253234
0.142258
-0.521834
0.41551
0.106399
0.230323
0.0874054
-0.0838974
0.00725342
-0.0109158
-0.00450133
0.00227134
-0.0603383
0.00884962
-0.0116353
0.0130082
-0.435936
-0.00374423
-0.00999695
0.0137403
-0.00113403
-0.0238866
0.255045
0.324459
-0.579527
-0.208303
-0.549946
0.257363
0.29242
0.165681
-0.147935
-0.458971
0.198373
-0.0159805
0.0110319
0.0821101
0.0653445
-0.0922582
0.181285
-0.0890293
-0.10931
-0.201817
0.311109
0.144366
-0.0848411
-0.0595254
0.0122376
0.00278219
-0.0150198
0.00954358
-0.00149492
-0.00804866
0.101267
0.0971766
-0.198451
0.115046
0.105104
-0.220162
-0.454808
-0.077544
0.0272592
-0.0181993
-0.203294
0.458192
-0.254913
-0.0364585
0.0324603
0.00399817
0.130113
-0.0784905
0.0338345
-0.106289
0.0724533
0.0445579
-0.0383927
-0.00616536
-0.00435317
0.00837229
0.117116
-0.284553
-0.108046
-0.170719
0.278737
0.563676
-0.235575
-0.255867
0.0903812
0.165469
0.0117657
-0.0145061
0.009644
-0.00932003
-0.532319
0.338108
0.19407
-0.0215317
-0.0126087
0.0341404
0.303068
-0.190273
0.102271
-0.0508791
0.00483226
-0.0156538
0.00328121
-0.0120884
-0.00356524
0.228129
0.214458
0.0946474
0.148814
-0.256056
0.107219
0.118518
-0.126479
0.280963
-0.0222054
0.602966
-0.322963
-0.279856
0.0307709
-0.0339599
0.00318891
0.386563
-0.622081
0.235714
0.47673
-0.248554
-0.0945709
-0.0696445
0.164213
-0.200368
0.151306
0.0143741
-0.332666
0.174216
0.158417
0.0363565
0.0237078
0.0408104
0.0253142
-0.0661248
-0.125937
0.0447335
0.0812033
0.0245473
0.37775
-0.540293
0.162574
-0.197608
-0.135094
-0.108769
0.486534
-0.191525
-0.191663
-0.0784584
-0.0723438
0.207177
0.257874
0.0982613
0.211406
0.165962
-0.251663
0.147294
0.104351
-0.0169546
0.00901598
-0.130503
-0.138044
0.268518
0.341241
-0.119474
-0.221756
0.0246266
0.00254053
0.280195
0.175538
0.010295
-0.532118
0.249398
0.225598
-0.268281
0.323363
-0.256308
-0.0670828
0.00125455
0.000776142
-0.00203069
0.0776868
-0.57412
-0.0274268
0.00589509
-0.00486802
0.0476841
0.50121
0.138175
-0.315777
0.104839
-0.209173
0.10432
0.55737
0.587446
-0.273487
-0.313805
0.272256
-0.439574
0.167252
-0.0677146
0.0427869
0.0249276
0.065853
-0.210109
0.209454
0.152856
-0.10275
0.0376066
0.0881911
0.102867
-0.0187086
-0.100756
-0.1717
0.00640919
0.00906854
0.184819
-0.204244
-0.328225
-0.00591923
-0.0150141
0.0209334
0.0772463
-0.153679
0.0764308
-0.0857365
-0.205405
-0.147196
0.272467
0.177204
-0.449709
-0.0121432
-0.00495461
0.0100217
-0.0167149
0.0066932
-0.0897886
0.116719
0.000447486
-0.0261207
-0.155728
0.521749
-0.303842
0.156045
-0.391977
0.211297
-0.0160626
0.00289507
-0.223506
0.0929279
-0.171635
0.195341
-0.023707
-0.242366
0.0725625
0.402771
-0.197681
-0.205096
-0.128398
0.377061
0.205879
-0.582951
0.485974
-0.301345
0.126773
0.0148605
0.462275
-0.278171
-0.0146849
0.435497
0.131761
-0.300522
-0.382933
0.265509
0.196974
0.00602946
0.0130929
-0.00421971
-0.000281616
0.242562
-0.157257
-0.000998805
0.0136279
-0.0126291
-0.320077
0.546942
-0.226798
0.0287851
0.126141
0.146107
0.15805
-0.0735832
0.0823726
0.369373
-0.0601305
-0.427375
0.0515083
-0.0425748
-0.00893993
0.0774507
-0.147609
0.0815926
0.0660139
-0.55693
0.0462381
0.128693
0.0903123
-0.000569732
-0.0109256
0.00819406
0.00273146
-0.313464
0.124099
-0.147794
0.0802389
0.0675546
-0.00267327
-0.025268
-0.138209
-0.124279
0.262473
0.137877
-0.0851206
-0.085384
0.167052
-0.247738
-0.150861
0.398602
-0.0970217
-0.145352
0.160784
0.107075
-0.5317
0.211747
-0.0665608
-0.212017
0.343577
0.111603
0.242266
0.441866
-0.259785
-0.18216
-0.242786
-0.0286403
0.271441
-0.193924
-0.0259591
0.0421868
0.231175
-0.0470558
-0.165805
0.311265
-0.145499
-0.107154
0.19464
-0.457729
0.263013
0.158981
0.189209
-0.348226
0.0788687
-0.183217
0.104343
-0.00304233
0.00931676
-0.00627471
-0.0737036
0.0490147
0.0966066
-0.177169
0.0044514
-0.281054
-0.36255
-0.00176668
0.00465562
-0.00288899
-0.225142
0.173762
0.0513758
0.00777707
-0.00852657
0.00074949
-0.0271437
-0.107018
0.13416
-0.53165
0.272864
0.350435
0.166411
0.121573
-0.288008
0.00021859
-0.00396066
0.00374204
0.0168344
-0.0164852
-0.0613232
0.168258
-0.062658
0.293225
-0.4559
0.2032
0.172794
-0.376029
0.250604
0.266451
0.018901
-7.1593e-05
-0.0188294
-0.249863
0.138421
0.111422
-0.230063
0.390822
-0.168471
0.0186715
-0.0393119
-0.00463155
-0.0569439
0.0615754
0.147741
-0.313584
0.0144516
-0.0534059
-0.0295367
0.248198
-0.0588363
-0.18937
0.107823
-0.246046
-0.0153905
-0.0210679
-0.134765
0.0449757
0.296189
-0.0456621
-0.250556
0.0034661
-0.0155543
-0.0951271
0.174129
0.0310489
-0.0945768
0.0635289
-0.00504904
-0.00587661
0.240583
-0.164467
-0.217632
0.542061
-0.225431
0.310035
0.0613072
0.114566
2.60937e-06
0.00135032
-0.00135293
0.00859964
0.13514
-0.480861
-0.107687
-0.158385
0.0631763
0.0952081
0.537542
-0.280392
-0.257208
0.000386456
0.0113001
0.0143436
-0.00532183
-0.0090218
0.288658
-0.0169706
-0.00364553
-0.123689
-0.445023
0.14753
-0.395226
-0.158089
0.349311
-0.00916436
-0.00341728
0.0125818
-0.0152662
0.0560765
-0.227186
0.0844708
-0.146515
0.432804
-0.174636
-0.0841466
0.12888
0.11667
-0.512364
0.210123
-0.0857587
-0.124372
0.19421
-0.322175
0.0816952
0.240482
-0.383317
0.15323
-0.0652886
0.0711969
-0.00590901
-0.292916
0.163896
0.0833598
-0.05231
-0.174369
-0.0507776
-0.27648
-0.261286
0.537773
0.081297
-0.158566
0.0772676
0.255379
-0.0515767
0.229783
0.283507
-0.0119584
0.000171948
0.000253978
0.386298
-0.163874
-0.222468
0.170261
0.271522
0.246852
0.139413
-0.07334
0.217754
-0.144436
0.0151443
-0.0194243
0.00427993
-0.0122226
-0.0554921
-0.0756314
0.14884
0.18986
-0.241438
0.265837
0.012797
-0.00135539
-0.0114417
-0.0101406
0.164234
0.367758
-0.158338
0.0232257
0.0114959
-0.0347216
-0.557192
0.282337
0.274878
-0.0805354
0.15327
-0.0727369
-0.00449385
0.00449646
0.47167
-0.266279
-0.20543
0.0155555
-0.00331794
-0.00170851
-0.070189
0.151485
-0.0169747
-0.000956767
-0.0703527
0.00506381
0.317972
-0.413482
0.0954666
-0.174818
-0.118104
-0.0383063
0.0387537
-0.00362418
-0.00755485
-0.311795
0.136972
0.0118576
-0.0128564
0.209686
0.05802
-0.395869
-0.474732
0.484971
0.165419
-0.299088
0.104447
-0.16024
0.2646
-0.104382
0.0208113
-0.0461922
0.0253809
0.017914
0.000987056
-0.0279689
-0.0291638
0.0571327
-0.0656837
-0.201323
-0.446335
0.0797658
-0.153439
0.0736705
0.00612459
0.00341899
-0.450001
0.190146
0.0191134
0.00406823
-0.0231817
0.177071
-0.133985
-0.043089
0.259868
-0.536408
-0.126493
-0.559426
-0.301299
0.178488
-0.0643857
-0.0832249
-0.0208045
0.0201944
0.000610101
0.240643
-0.205622
-0.165434
-0.303262
0.468687
0.00487106
-0.0104485
0.00557742
-0.012018
0.0166382
-0.0046202
0.22188
-0.0811284
-0.140765
-0.262369
-0.296402
-0.194964
0.21755
-0.413254
0.195656
0.368054
-0.583541
0.215491
-0.0399466
0.0476656
-0.0917611
0.0161853
0.0755756
-0.550915
0.31046
0.240546
-0.460946
0.392197
0.0687175
-0.00687226
-0.00312515
-0.00542463
-0.0076725
0.0219308
0.155136
0.151687
0.0190249
-0.0226428
0.00361781
0.173198
0.138078
-0.311341
0.300638
0.213687
-0.514409
-0.329012
-0.222256
-0.328562
-0.179173
0.472371
0.476344
-0.071202
0.0232776
0.0212802
0.0820871
0.136845
-0.218937
0.168987
0.0208713
0.0182801
0.0192659
0.206272
-0.11493
-0.0913568
0.0159211
0.0302382
-0.027479
-0.000308686
-0.0110682
0.011377
-0.0827688
0.176452
-0.0936882
-0.259182
0.158415
-0.279515
-0.312747
-0.128951
0.327692
-0.563873
0.236254
0.0253371
0.0802369
-0.105575
-0.211638
0.496823
-0.0586832
0.0374246
0.0212588
0.0885963
-0.026939
0.162703
0.226551
0.247004
-0.473641
-0.00166129
-0.00499041
0.0663878
0.0701372
0.0121744
-0.00517933
-0.0793616
0.44732
0.00768229
0.0212576
-0.0289399
-0.252378
-0.171704
0.0774287
0.0718457
-0.149275
0.109701
0.0631719
0.00738222
0.00407329
-0.0114556
0.0921685
-0.219037
-0.089362
-0.0377878
-0.462071
0.194911
0.00684581
0.0643502
-0.231009
-0.244903
-0.0182859
0.00341566
0.0338713
0.0823034
0.0633577
-0.123247
0.409105
-0.204084
-0.205028
0.459186
-0.224702
-0.234358
-0.0139053
0.0110909
0.00341231
-0.102865
-0.179864
-0.0435033
-0.128133
0.0841982
0.231914
-0.0927235
-0.139199
-0.120726
0.112477
0.0671989
-0.0492814
-0.169262
0.372438
-0.100184
0.0808207
0.0193571
-0.397498
-0.10847
-0.497329
0.272498
-0.00710502
-0.0846562
-0.166109
-0.331227
0.145893
0.182143
-0.0065507
0.00115266
0.231583
0.287134
-0.518694
-0.0882533
0.201646
0.0410173
-0.220383
-0.0685218
-0.572779
0.054413
0.186498
-0.0799302
-0.10657
0.099628
0.220012
-0.359261
0.139276
-0.229363
0.557105
-0.00835874
0.117789
0.155787
-0.0137107
-0.00457512
0.0217388
0.124591
0.000634659
-0.00930889
-0.132852
-0.138626
0.322297
0.138718
-0.461059
0.44029
-0.146634
-0.103249
0.234823
-0.111793
-0.123045
0.233755
-0.118724
0.000784506
0.000470041
-0.302745
0.186486
0.0733571
0.150698
-0.224059
-0.00425463
-0.107248
0.111501
0.061668
-0.536461
0.392457
-0.209288
-0.183176
0.0700015
0.151863
-0.154576
0.0703211
0.0137388
-0.0132326
0.279481
0.145417
-0.424891
0.00556602
-0.00824889
0.314756
-0.0373017
-0.00359854
0.0138043
-0.166527
0.175114
0.195882
0.208316
-0.404207
0.254396
0.166331
-0.420708
0.100554
0.0997164
-0.200276
-0.0825396
-0.0446381
-0.157861
0.271444
-0.113599
0.31252
-0.123712
-0.180197
0.135407
0.317497
-0.179342
-0.0326274
-0.0551825
0.0878098
-0.00190641
0.0156237
-0.0210497
0.00542599
0.53731
-0.274486
-0.263007
0.244554
-0.106151
-0.00450025
0.035271
0.257858
-0.0840561
0.00788836
0.463839
-0.260464
-0.203451
0.0550041
-0.0957836
-0.0706097
0.34661
-0.25384
-0.092787
0.125031
-0.0344697
-0.0333339
0.362154
-0.162865
-0.199322
0.01992
-0.0119792
-0.00794167
-0.209518