/*--------------------------------*- C++ -*----------------------------------*\
| =========                 |                                                 |
| \\      /  F ield         | OpenFOAM: The Open Source CFD Toolbox           |
|  \\    /   O peration     | Version:  v2012                                 |
|   \\  /    A nd           | Website:  www.openfoam.com                      |
|    \\/     M anipulation  |                                                 |
\*---------------------------------------------------------------------------*/
FoamFile
{
    version     2.0;
    format      ascii;
    class       surfaceVectorField;
    location    "150";
    object      ddtCorrDdt0(Uf);
}
// * * * * * * * * * * * * * * * * * * * * * * * * * * * * * * * * * * * * * //

dimensions      [0 1 -2 0 0 0 0];


internalField   nonuniform List<vector> 
27882
(
(0.00206716 0.00627504 -3.85903e-20)
(0.00123532 0.00693354 8.53008e-20)
(0.00125313 0.00553514 1.32854e-19)
(0.0114285 0.0527409 -2.32338e-19)
(0.00369238 0.0620389 1.51681e-18)
(0.00237652 0.052554 4.87917e-19)
(3.68114e-05 -6.45587e-06 2.27729e-19)
(3.68535e-05 -9.31969e-06 -6.506e-19)
(2.84584e-05 -1.14904e-05 -5.73481e-19)
(0.00335591 0.00703963 -3.93548e-19)
(0.00277407 0.00559838 -8.5313e-21)
(0.00025545 -0.00692117 4.12502e-19)
(-0.0007282 -0.00724412 5.95047e-19)
(0.000299724 -0.00789367 -5.5604e-19)
(2.99071e-05 1.42452e-05 2.98598e-20)
(2.81325e-05 1.95148e-05 1.19738e-19)
(3.43357e-05 1.5397e-05 6.71825e-20)
(0.000264239 1.58314e-05 -2.98496e-20)
(0.00026741 1.47686e-05 -9.02774e-20)
(0.000265134 3.38998e-05 -2.28658e-20)
(0.00137317 -0.000721099 2.13727e-19)
(0.00152717 -0.000707592 3.90579e-19)
(0.00146572 -0.000901228 -3.35691e-19)
(0.00116651 -0.00653146 2.10387e-19)
(0.000289009 -0.00607104 -2.4908e-19)
(0.00184662 -0.00614333 -4.57913e-19)
(0.00249647 -0.00559986 -7.90888e-19)
(0.00168098 -0.00530535 4.75218e-19)
(0.0257913 0.0313317 -9.87402e-20)
(0.0201051 0.0349979 1.09056e-19)
(0.0214271 0.0266823 -1.52001e-19)
(0.0687492 -0.0284701 -1.95581e-18)
(0.0588731 -0.0133855 -3.02804e-18)
(0.073429 -0.0150635 -1.6357e-18)
(0.0275967 -0.0388487 -1.22663e-19)
(0.0217462 -0.0380095 -4.72955e-20)
(0.0236718 -0.0447412 -8.84715e-19)
(0.00138923 0.000976569 1.32467e-18)
(0.00137585 0.00107555 -1.35127e-19)
(0.00128073 0.000989002 -1.21377e-19)
(0.000259838 -1.28533e-05 9.97727e-20)
(0.000262146 1.51899e-06 -4.49098e-20)
(0.000260899 -1.86547e-05 -3.51438e-20)
(0.000215903 -3.60591e-05 -3.04143e-20)
(0.000213122 -3.4282e-05 -2.03546e-20)
(0.000213911 -3.66636e-05 1.17868e-19)
(0.076495 -0.0388637 -3.27043e-18)
(0.0668433 -0.0369759 -1.43362e-18)
(9.37875e-05 4.66975e-05 4.53829e-20)
(9.29027e-05 4.20201e-05 -4.49247e-20)
(0.000257642 -2.47327e-05 9.12845e-21)
(0.000257892 -5.15087e-06 4.70981e-20)
(-0.00292003 -0.000315884 -4.80715e-20)
(-0.0033709 -0.000333315 3.63898e-19)
(-0.00302622 -0.000715884 -4.96549e-19)
(-0.0338856 0.102456 -3.08593e-18)
(-0.0158976 0.122224 2.59751e-18)
(-0.0183245 0.102324 9.65506e-19)
(-0.0622146 0.00390063 -2.06452e-18)
(-0.0706806 0.00264073 -3.31631e-18)
(-0.0777987 0.0077438 -1.28331e-18)
(3.61719e-05 8.58761e-06 2.39002e-20)
(2.52046e-05 1.28541e-05 -6.82146e-20)
(-1.7123e-06 -2.26751e-06 1.24332e-20)
(-5.69208e-06 -2.29775e-06 -2.17298e-19)
(-7.70548e-06 -4.61064e-06 -2.76876e-19)
(-0.05605 0.00263336 -1.015e-18)
(-0.0465797 -0.0026575 3.47934e-18)
(-0.164629 0.163784 3.10509e-18)
(-0.143897 0.154741 -1.1477e-18)
(-0.18349 0.153643 -2.76755e-18)
(0.0569565 -0.239669 -1.05518e-17)
(0.0291325 -0.293169 -5.56907e-18)
(0.0346444 -0.327555 -1.43781e-18)
(0.0563795 -0.0110421 -7.93211e-20)
(0.054778 -0.00769831 -5.50593e-21)
(0.0592726 -0.00914039 -6.64992e-19)
(0.00632205 0.03656 7.25214e-19)
(0.00789468 0.0390772 2.48718e-18)
(0.00895624 0.0360813 -3.81654e-19)
(-0.00764668 0.0942599 6.681e-19)
(-0.0169929 0.0997442 2.35141e-19)
(-0.0153737 0.0867042 -9.46837e-19)
(-0.147632 -0.410356 1.52514e-18)
(-0.135624 -0.261916 -4.19645e-18)
(-0.135153 -0.340594 4.752e-18)
(0.0733863 -0.192689 -1.57189e-17)
(0.0664178 -0.14179 -6.3424e-18)
(0.00121606 -0.000722933 -3.44924e-19)
(0.00128693 -0.000580619 4.17325e-20)
(-0.108706 -0.00429359 8.10775e-20)
(-0.097956 -0.015873 -1.95904e-20)
(-0.109221 -0.0193515 1.37506e-19)
(-0.00177347 -0.00759267 4.56201e-19)
(-0.00274435 -0.00805754 -6.75191e-19)
(-0.00173502 -0.00871395 -1.14862e-19)
(0.00423681 0.0843545 -6.99361e-18)
(0.00363326 0.0978026 1.47997e-18)
(0.0300624 -0.0341418 -4.8075e-20)
(0.0330688 -0.0401999 4.42445e-19)
(-0.00158581 -0.00666166 3.9525e-19)
(-0.0273539 0.381418 1.44302e-18)
(-0.0180332 0.375491 5.43641e-18)
(-0.0142204 0.462935 4.63595e-18)
(-0.000259041 0.000556556 -7.26462e-20)
(-0.000311665 0.000486361 -7.00689e-20)
(-0.000211417 0.000484251 -6.91831e-20)
(0.0315698 0.046849 1.23694e-18)
(0.0302035 0.0647565 8.56819e-20)
(0.0224627 0.0736376 -1.67682e-18)
(0.00440997 -0.00502975 3.18786e-19)
(0.00523527 -0.00571193 -1.24571e-18)
(0.00406745 -0.00585339 1.01215e-19)
(0.0582824 -0.0257436 5.88166e-19)
(0.0588076 -0.0210211 3.05892e-18)
(0.0568512 -0.0208865 5.15827e-19)
(0.000532708 -0.00121544 -4.95121e-19)
(0.00068547 -0.00108614 -1.50098e-19)
(0.000808789 -0.00131445 1.86097e-19)
(0.000201414 8.49658e-06 -6.13218e-19)
(0.000197487 5.27248e-06 -2.07264e-19)
(0.000198486 9.9579e-06 -5.23207e-19)
(-0.172717 -0.351382 5.41714e-18)
(-0.164483 -0.250104 3.69339e-18)
(-0.148863 -0.21951 -4.27138e-18)
(0.00470745 -0.00439287 1.1857e-19)
(0.00386031 -0.00460259 -1.19792e-19)
(0.0146042 0.036448 1.21842e-18)
(0.0156275 0.0337746 8.45442e-19)
(0.0174416 0.0365104 -1.74725e-18)
(-0.0108124 -0.194149 -8.44161e-18)
(-0.00657459 -0.191397 8.5321e-18)
(-0.00588939 -0.188948 -1.32632e-17)
(0.00508169 0.00360517 2.89194e-19)
(0.00466654 0.00463424 -2.03329e-19)
(0.00415513 0.00352637 1.29429e-19)
(0.0317981 0.026697 -5.04612e-19)
(0.0305429 0.0359992 8.85912e-21)
(-0.282969 0.247014 -5.71071e-18)
(-0.284916 0.228115 -2.79447e-18)
(-0.301184 0.259244 1.59337e-18)
(0.00621155 0.0035326 -1.86724e-19)
(0.0051696 0.00259533 2.3398e-19)
(0.00200618 0.00356515 -2.52577e-19)
(0.00217734 0.00312708 7.90843e-20)
(0.00252896 0.00365547 -9.6429e-20)
(-0.051392 0.0285089 2.54616e-19)
(-0.0532657 0.025435 -2.79236e-18)
(-0.0552568 0.0288621 -3.34809e-19)
(0.016017 -0.0368302 -1.35292e-19)
(0.0196064 -0.0328789 -1.82263e-18)
(-0.000548185 -0.000179385 -2.99708e-19)
(-0.000494345 -0.000242407 -3.75688e-19)
(-0.000593273 -0.000277667 -5.50698e-19)
(-0.00251644 -0.000362255 -8.21454e-20)
(-0.00276716 -3.36721e-06 3.0553e-20)
(0.0164917 0.0312676 1.08935e-18)
(0.0190097 0.0308316 3.26923e-19)
(0.0170898 0.0286833 3.17978e-19)
(-0.00061058 -0.000106754 3.52759e-19)
(-0.000507347 -9.32663e-05 1.06658e-19)
(0.000220014 3.94021e-06 3.5532e-20)
(0.000216244 1.04671e-05 -2.4257e-19)
(0.000213714 3.97115e-06 -2.64351e-19)
(0.000333014 -0.00134456 2.47707e-19)
(0.000320971 -0.00110349 1.22278e-20)
(0.0886055 0.0623903 -4.25708e-18)
(0.104883 0.0131538 -6.78615e-19)
(0.103496 -0.0661321 2.77032e-19)
(0.103873 -0.0615072 7.4748e-20)
(0.0991205 -0.0608263 3.8661e-19)
(0.000223911 2.44186e-07 1.02753e-19)
(0.000223548 3.63017e-06 6.39436e-19)
(-0.0627971 -0.076637 2.30959e-19)
(-0.0543411 -0.0734852 -4.06885e-19)
(-0.0549381 -0.0878676 7.55165e-19)
(0.00018541 2.26267e-06 -6.3605e-19)
(0.000182161 -1.77721e-07 -6.62859e-20)
(0.000179023 5.84328e-07 -3.65623e-21)
(-4.28428e-05 6.35268e-05 -1.29877e-19)
(-4.66872e-05 6.68059e-05 8.02477e-21)
(-5.61171e-05 8.26088e-05 -1.32453e-19)
(0.0530273 -0.0127064 -9.28887e-19)
(0.0568339 -0.0147924 2.04562e-18)
(8.76098e-05 7.46202e-05 -2.95891e-21)
(9.77286e-05 5.46222e-05 6.0733e-21)
(-0.250288 0.22492 -5.13657e-18)
(-0.275894 0.260088 -7.89342e-18)
(-0.217882 0.175643 -5.9908e-19)
(-0.208217 0.177509 -4.49426e-18)
(-0.211718 0.163129 -7.32723e-19)
(0.000255292 -4.21052e-05 -5.77481e-19)
(0.000256681 -4.90015e-05 -2.23797e-20)
(0.000259041 -3.69511e-05 -5.73369e-19)
(-0.00464032 -0.00549926 -2.04832e-19)
(-0.00392049 -0.00542758 -3.79552e-20)
(-0.00417136 -0.00478495 -1.74358e-19)
(-0.0284495 -0.0431047 8.75072e-19)
(-0.0237203 -0.0437954 3.15588e-18)
(-0.0252141 -0.0381934 -4.82226e-19)
(-0.156262 -0.466501 -3.52071e-18)
(-0.154968 -0.529804 9.203e-18)
(-0.00252235 -0.0615621 1.87429e-18)
(-0.0102638 -0.0689127 -1.02752e-18)
(-0.0123197 -0.0471792 4.28523e-19)
(0.0778966 -0.0508299 2.51648e-19)
(0.0709404 -0.0549252 -1.74259e-18)
(0.0741666 -0.0672711 -8.70752e-19)
(0.00208811 -0.00696807 5.97064e-19)
(0.0558077 -0.0334024 -1.54683e-19)
(0.0552517 -0.0292437 2.78085e-18)
(-0.0198674 0.0298584 -5.82529e-18)
(-0.0210886 0.0280054 -1.14814e-18)
(-0.0223867 0.0304922 -4.12522e-18)
(-0.0389159 0.38717 -4.32368e-18)
(-0.0544607 0.284374 1.07174e-17)
(0.080848 -0.0445426 2.74892e-18)
(0.0816474 -0.0479778 1.7827e-18)
(-0.0116905 -0.0222759 7.60438e-19)
(-0.0134004 -0.0242436 -4.36754e-20)
(-0.0107942 -0.0249008 8.96279e-19)
(0.0023647 -0.0010543 1.02331e-18)
(0.00199668 -0.00122733 1.42245e-19)
(0.00238262 -0.00152105 3.80395e-19)
(-0.0408239 0.0219774 2.27797e-18)
(-0.0432939 0.023556 -1.0241e-18)
(-0.0400185 0.0250197 1.71954e-18)
(3.06891e-05 0.00292091 4.71712e-18)
(4.79566e-05 0.00269976 -1.28573e-18)
(-0.00511817 -0.00632844 -1.21308e-18)
(-0.00553158 -0.00537892 2.72576e-19)
(0.07488 0.0349892 -4.3872e-19)
(0.0634792 0.132599 -9.705e-18)
(-0.0408236 0.0188566 -6.47427e-18)
(-0.0383195 0.0207359 2.1165e-18)
(-0.0312929 0.123617 -5.6901e-18)
(-0.0115392 0.131787 2.51547e-18)
(0.0263328 0.0968601 -3.21607e-19)
(0.000208153 -1.9036e-06 -6.40121e-20)
(0.000201141 -6.90482e-07 1.37311e-19)
(0.000190044 -3.63035e-06 9.14796e-20)
(-0.013435 0.0189671 1.1534e-19)
(-0.0142544 0.0178663 -1.77283e-18)
(-0.0149065 0.0197047 -3.77076e-18)
(-0.0162892 -0.195246 -9.08684e-19)
(-0.0139741 -0.197193 3.22561e-19)
(0.000252337 -4.81463e-05 4.71194e-20)
(0.000256042 -3.31444e-05 -1.74135e-19)
(0.000181492 1.9607e-05 -9.62205e-20)
(0.000181323 1.86046e-05 3.46581e-19)
(0.000180723 1.35873e-05 -9.70492e-19)
(1.52228e-05 0.000250333 -1.08836e-19)
(3.27256e-05 0.000226249 -9.42845e-21)
(4.42235e-05 0.000231012 2.83682e-20)
(0.00584702 0.0208429 1.28339e-18)
(0.00436184 0.0208051 -1.87718e-18)
(0.00508565 0.022359 -1.98098e-19)
(0.0567993 -0.083912 3.1675e-18)
(0.0614177 -0.0590721 -3.96522e-19)
(0.0498453 -0.0645373 4.42846e-18)
(0.000297553 8.97776e-05 -1.92383e-19)
(0.000295627 0.000101671 3.06068e-20)
(0.000291586 8.96689e-05 -1.96594e-20)
(-0.164378 -0.43535 -8.43824e-18)
(-0.170825 -0.433837 5.12616e-18)
(-0.0100432 0.00181724 2.37259e-18)
(-0.0104449 0.000793404 -1.07858e-18)
(-0.0092253 0.00102344 1.63532e-18)
(-3.13664e-05 4.57103e-05 -1.88124e-19)
(-3.80716e-05 6.02433e-05 -7.78776e-20)
(0.000181924 2.48165e-05 -1.99077e-19)
(0.000179971 2.13262e-05 8.13837e-20)
(-0.0718452 -0.0823147 -5.10785e-19)
(-0.0710797 -0.0678608 -4.74425e-20)
(-0.0460413 0.0989388 3.63918e-18)
(-0.0420839 0.0825267 1.47112e-18)
(0.0118729 0.036198 -1.065e-19)
(0.0134809 0.0391777 -2.0025e-18)
(-0.0421788 0.10706 1.45523e-18)
(-0.0811687 0.143308 6.79903e-18)
(-0.0238896 -0.0574312 -1.69311e-18)
(-0.0427504 -0.023743 -2.40018e-18)
(-0.0328774 -0.0608537 -4.98585e-20)
(0.00149612 0.17677 1.67272e-18)
(-0.00778444 0.185308 8.52501e-19)
(-0.0179383 0.166015 1.94864e-18)
(0.000223257 -2.82528e-05 1.67193e-19)
(0.000219819 -3.01305e-05 1.12426e-19)
(0.00022143 -2.43709e-05 1.66664e-19)
(0.103322 -0.0714135 6.50594e-19)
(0.110886 -0.078275 8.46647e-19)
(0.00757106 0.00168752 -3.64569e-19)
(0.00687109 0.00249954 -5.40984e-19)
(0.00638249 0.00142612 5.01577e-19)
(8.50416e-05 -4.64922e-06 -2.292e-20)
(8.55103e-05 -6.51724e-06 1.04362e-20)
(8.70334e-05 -4.95799e-06 -2.50442e-19)
(-0.0106772 0.00279809 1.08829e-19)
(-0.0093897 0.00279304 -4.10213e-19)
(0.099019 -0.018388 -3.49894e-19)
(0.102802 -0.0229423 -1.05924e-18)
(0.0962884 -0.0233706 -6.8001e-20)
(0.00700832 0.0209893 -6.84712e-19)
(0.00653484 0.0198541 1.53646e-18)
(-0.000309058 0.000158563 -3.21281e-19)
(-0.000367642 0.000163783 1.63718e-19)
(-0.000307829 0.000124242 1.49411e-19)
(0.11413 -0.0213212 -1.10823e-18)
(0.115379 -0.0252745 9.24238e-19)
(0.117277 -0.0181854 -1.12534e-19)
(0.00299199 -0.000102552 1.08591e-19)
(0.00316984 -0.000565796 1.4306e-19)
(0.00361101 -0.000177733 -2.33998e-20)
(0.000108524 -2.11801e-05 3.7694e-19)
(0.000115052 -1.99991e-05 1.80778e-21)
(0.000111217 -2.70039e-05 4.16575e-19)
(0.0052638 -0.0687378 1.34054e-18)
(0.0014447 -0.0507436 2.71486e-18)
(0.00275361 -0.000865503 3.41895e-19)
(0.00226561 -0.000690339 2.68819e-19)
(2.5879e-05 -5.11378e-05 3.61219e-19)
(1.28614e-05 -5.89029e-05 -2.68566e-19)
(2.43308e-05 -6.5364e-05 7.28003e-20)
(-0.00448837 -0.137173 -5.66038e-18)
(-0.00505035 -0.146908 -6.07265e-18)
(0.00873522 -0.127627 1.3027e-17)
(0.00169063 0.00396018 -4.17917e-19)
(0.00155317 0.00339436 8.06828e-19)
(0.000602087 -0.000617545 9.28825e-19)
(0.00052116 -0.000728431 -1.71797e-19)
(0.000453163 -0.000590327 2.16895e-19)
(2.75255e-05 -3.99127e-05 2.00477e-19)
(3.54131e-05 -4.4729e-05 1.79782e-19)
(0.00699572 0.0751596 -1.70124e-18)
(0.0050816 0.0694881 -4.16944e-19)
(0.0117053 0.0716128 7.47081e-19)
(-0.029715 -0.290849 1.38261e-18)
(-0.0214799 -0.272013 -2.1629e-17)
(0.0138984 0.0313781 -1.36137e-19)
(0.000229405 -6.98979e-06 -1.82402e-19)
(0.00022668 -4.45885e-06 2.21078e-19)
(0.00022341 -1.00162e-05 -2.37507e-19)
(0.00674421 -0.00179533 -2.1496e-19)
(0.00665172 -0.00238995 1.83084e-19)
(0.0072925 -0.00220716 4.97907e-19)
(-0.133491 -0.115554 -1.28547e-20)
(-0.138649 -0.115036 -1.72133e-19)
(-0.15718 -0.098591 -2.31967e-19)
(-0.000337007 0.000647035 -1.7496e-20)
(-0.000209534 0.000621901 -3.75092e-20)
(0.000175058 -1.02884e-05 3.44104e-19)
(0.00017257 -1.31063e-05 4.46782e-19)
(0.000179304 -1.45405e-05 7.37731e-19)
(0.0489577 0.0210118 -1.65623e-19)
(0.0398125 0.0185589 2.27679e-18)
(0.0440456 0.0283068 1.92664e-18)
(0.00213682 1.84524e-05 5.3502e-20)
(0.00256415 -8.22849e-05 -1.67243e-20)
(0.00220639 -0.000324588 -3.92544e-20)
(0.0703936 0.0277948 -1.32252e-18)
(0.0760003 0.0272422 -1.70489e-18)
(0.0716986 0.022489 -1.56248e-19)
(-0.0183688 0.0321473 5.53481e-18)
(-0.0173892 0.0295966 8.37812e-20)
(0.0082713 0.00058773 2.3787e-19)
(0.00903719 0.00170219 -7.29915e-19)
(0.0517434 0.0675132 -1.18475e-18)
(0.0403945 0.0961334 7.68611e-19)
(0.0480469 0.0906452 2.50854e-18)
(0.0014796 0.0146738 5.83788e-19)
(0.000557233 0.01433 -2.97951e-18)
(0.000817447 0.0156049 3.81354e-18)
(-0.0136151 -0.0714128 -7.70629e-19)
(-0.0141983 -0.0587202 -6.38383e-19)
(-0.00176781 -0.128239 -3.66135e-17)
(-0.0192489 -0.151813 -1.95009e-17)
(-0.0073756 0.012329 -1.89744e-18)
(-0.00775229 0.0115076 -3.13535e-18)
(-0.00834964 0.0125079 -7.90294e-18)
(-0.0783656 -0.086619 -1.57495e-19)
(-0.0691836 -0.0963801 2.64869e-19)
(0.00317299 0.0649417 -4.4666e-18)
(0.00721268 0.0619327 -1.86358e-18)
(0.00203723 0.0599925 -2.57134e-18)
(0.0160954 0.0439378 1.25498e-18)
(0.0129377 0.0370196 -6.40411e-19)
(-0.0832407 0.265056 -7.66624e-18)
(-0.00899403 0.193444 -7.39747e-18)
(-0.0595457 0.241011 -6.38914e-18)
(-0.04812 -0.326867 9.93812e-18)
(-0.0596488 -0.315842 -2.88674e-17)
(-0.0648724 -0.333652 8.07542e-18)
(-0.0119394 -0.215932 5.75001e-18)
(-0.0157425 -0.219625 2.13382e-17)
(-0.01799 -0.215102 -1.74641e-17)
(0.000268916 0.000310397 -1.6075e-19)
(0.000272772 0.000316499 1.15965e-19)
(0.000287879 0.000321962 -2.48866e-19)
(-0.0036194 -0.00774412 -1.95859e-19)
(-0.00391188 -0.00659027 1.71403e-19)
(-0.00486199 -0.00742648 -3.073e-19)
(0.0294137 0.0287194 1.16919e-18)
(0.0348174 0.023915 2.52764e-18)
(-0.0593875 -0.236232 3.57786e-18)
(0.00886415 -0.132265 6.78109e-18)
(-0.0125277 0.0202137 -4.86666e-19)
(-0.0120142 0.018343 -1.42669e-18)
(0.00727185 0.0802206 -1.25167e-18)
(0.0014094 0.076824 3.40674e-18)
(-0.0190116 -0.0213869 -7.98119e-19)
(-0.0217476 -0.0235375 1.79643e-19)
(-0.0219171 -0.0198564 2.7453e-19)
(0.0194747 0.0509858 -6.29186e-19)
(-0.0983841 0.349739 -3.8751e-18)
(-0.122638 0.370829 2.68638e-18)
(-0.05294 0.329447 -7.20851e-18)
(-5.83912e-05 -5.92837e-05 -3.75985e-21)
(-7.97723e-05 -6.42238e-05 -2.10666e-19)
(-5.49087e-05 -6.13321e-05 -6.74129e-19)
(-0.0154453 -0.202283 -5.23764e-18)
(-0.0172543 -0.200345 -9.02813e-18)
(-0.0177824 -0.20197 -8.21419e-18)
(-0.0863869 -0.0906851 3.36268e-19)
(-0.0884058 -0.0763254 -7.47008e-19)
(-0.176825 -0.253636 1.76283e-19)
(-0.167562 -0.196218 1.61799e-19)
(-0.163275 -0.162564 -6.71042e-19)
(-0.000811033 0.000347417 -5.44497e-20)
(-0.00068091 0.000386013 7.03172e-20)
(-0.000800227 0.000496752 -3.76165e-19)
(-5.82807e-05 -5.97956e-05 5.84941e-19)
(-3.96877e-05 -5.6751e-05 2.49576e-19)
(-0.170372 0.364748 8.68665e-18)
(-0.18279 0.385149 2.15948e-18)
(-0.212515 0.394204 -5.49974e-18)
(-0.0372567 -0.309524 8.96666e-18)
(-0.0471863 -0.286126 1.00711e-17)
(0.0479376 0.0069028 6.47444e-18)
(0.0490568 0.0372177 1.59557e-18)
(0.0342182 0.0345215 5.08091e-18)
(-0.0106404 -0.204505 3.08717e-18)
(-0.00843661 -0.201399 -6.87122e-18)
(-0.0108297 -0.205591 -3.2113e-18)
(3.57489e-05 -4.98965e-06 1.14982e-18)
(4.10142e-05 -4.30974e-06 1.06216e-18)
(0.0091956 0.0415969 4.10949e-18)
(0.0121883 0.0417782 -6.91515e-19)
(0.0105072 0.0448668 4.00103e-18)
(-0.000402955 0.13526 5.78432e-19)
(0.00177613 0.134082 -1.82498e-18)
(-0.0648906 0.0223499 -3.48605e-18)
(-0.0573999 0.0278951 1.4569e-18)
(0.000222206 -0.000132854 7.23548e-19)
(0.000221433 -0.00012695 -5.29335e-19)
(0.000211104 -0.000143683 -8.35386e-20)
(0.000244597 -5.03313e-05 9.49097e-20)
(0.000248605 -5.79582e-05 -1.13493e-20)
(-0.0717679 0.127807 1.57668e-19)
(-0.0919997 0.123844 9.48882e-19)
(-0.109431 0.134487 -6.587e-18)
(-0.118663 0.00634414 1.00965e-18)
(-0.109386 0.00771374 5.20741e-19)
(0.000370559 0.00073503 -1.43728e-18)
(0.000339678 0.000689346 -4.41557e-19)
(-8.46271e-06 -1.15496e-05 -5.77562e-19)
(-1.15347e-05 -5.54957e-07 3.32817e-20)
(-9.57909e-06 -3.36979e-06 -1.17955e-19)
(-1.70987e-05 0.00398568 3.14934e-19)
(1.16081e-05 0.00351005 2.79323e-19)
(0.000448346 0.0037568 1.20276e-18)
(-0.0476012 0.0286062 7.05565e-19)
(-0.0493161 0.0320352 4.9953e-19)
(0.000420744 0.00111347 1.63845e-18)
(0.000438028 0.00120189 -4.5323e-19)
(-0.159712 0.337169 1.61159e-18)
(-0.118101 0.298898 4.16677e-18)
(-0.133995 0.31295 -1.24635e-18)
(0.000173332 0.000216387 5.54566e-20)
(0.000169793 0.000206535 3.58577e-20)
(0.000167271 0.000216239 -1.72242e-19)
(-0.0282895 0.0960559 8.26741e-19)
(-0.0224917 0.107034 -3.56031e-20)
(0.00102117 0.0146872 -8.58106e-19)
(-0.000619807 0.0141991 -7.99933e-19)
(-0.000162027 0.0163865 8.0074e-19)
(-0.0200779 -0.194057 3.69828e-18)
(-0.0207157 -0.197169 -1.74692e-18)
(-0.0811117 -0.184553 -5.65531e-19)
(-0.122629 -0.204602 -1.23566e-19)
(-0.12056 -0.168692 -1.15958e-18)
(-0.00521239 -0.209035 -6.74847e-18)
(-0.00998966 -0.210578 -3.35462e-17)
(0.000183907 0.000214058 2.36993e-19)
(0.000172622 0.000207984 1.48504e-19)
(0.0363994 -0.00581956 1.30107e-19)
(0.0377851 -0.00347281 -2.64718e-19)
(0.0387655 -0.00684157 9.49218e-20)
(-0.0375737 -0.0457655 -3.09365e-19)
(-0.0343628 -0.0444575 -1.21112e-18)
(-0.0409272 -0.0290068 3.32623e-20)
(-1.0262e-05 -1.60247e-05 -2.66884e-19)
(-1.14979e-05 -8.00354e-06 1.13245e-20)
(-1.05431e-05 -5.77039e-06 -7.15893e-20)
(0.000540175 0.00109863 2.06001e-19)
(0.000467979 0.00107023 -2.12551e-18)
(0.000503948 0.00101551 -2.19646e-18)
(0.0810314 0.0260992 1.09615e-18)
(0.0870855 0.0245584 -7.9244e-19)
(0.0821544 0.0202747 2.37782e-18)
(0.000264155 0.000304288 -3.43718e-19)
(0.000245016 0.000293515 2.25724e-19)
(-0.0260366 -0.193448 -3.45111e-18)
(-0.019382 -0.190255 3.94043e-18)
(-2.06318e-06 1.13699e-05 -3.19517e-19)
(-2.17525e-06 1.40933e-05 -1.38065e-19)
(1.87357e-06 1.04919e-05 -1.08701e-20)
(0.00262134 -0.000485634 -5.43102e-20)
(0.00218297 -0.000411896 -1.9575e-20)
(0.00233381 -0.000811014 1.51552e-19)
(0.0111677 0.0851528 -2.5166e-18)
(0.00625047 0.0882039 3.29321e-19)
(-0.0440859 -0.0744042 -5.94299e-19)
(-0.0549095 -0.0681794 8.78791e-19)
(-0.0542666 -0.0652883 6.2263e-19)
(0.000210807 -2.91035e-05 1.86196e-19)
(0.000207935 -2.71973e-05 2.20791e-19)
(0.000210067 -2.66538e-05 -8.83551e-20)
(0.00022492 -2.5036e-05 1.80254e-20)
(0.000224185 -3.12727e-05 -9.94925e-20)
(-0.0197134 -0.198916 -6.72543e-18)
(-0.0196497 -0.20243 -2.50766e-19)
(6.95916e-05 -0.000157437 7.62864e-20)
(7.21137e-05 -0.000174292 2.53147e-19)
(3.4052e-05 -0.00017958 5.01022e-21)
(-0.00361146 -0.00895548 -4.89828e-19)
(-0.00231912 -0.243999 3.32903e-17)
(-0.00444185 -0.234949 2.25826e-17)
(-6.9993e-06 5.12896e-06 4.86573e-19)
(-5.65721e-06 3.63163e-06 2.96029e-19)
(-1.72251e-05 6.6811e-06 1.87872e-19)
(-0.0119841 0.0218602 -1.78278e-18)
(-0.0112513 0.0234909 -1.74022e-18)
(-0.0133949 0.0226931 -5.89566e-19)
(0.00291586 -2.7387e-05 1.50195e-20)
(0.00310652 -0.000569189 -1.79259e-19)
(0.00126683 0.00143497 8.05227e-19)
(0.00133911 0.00117415 9.47071e-19)
(0.00107557 0.00121486 -1.39108e-19)
(-0.00185442 7.07401e-05 4.71017e-20)
(-0.00204499 -0.00013954 3.25341e-19)
(-0.00214677 0.000143072 4.43937e-19)
(3.24851e-07 0.00027697 -2.48716e-20)
(-1.37126e-05 0.000261782 -8.43156e-20)
(0.000213263 8.63112e-08 1.08057e-21)
(0.00021258 -2.23747e-06 2.77584e-20)
(0.000211804 1.48205e-06 -1.56537e-20)
(-0.0107584 0.0211116 -3.39574e-19)
(2.76913e-05 2.52044e-05 -1.32925e-20)
(2.18615e-05 2.32989e-05 4.42831e-20)
(0.023116 0.114394 -2.15112e-18)
(0.0334549 0.0880346 1.68477e-20)
(0.025365 0.11159 -1.2435e-18)
(-0.0466718 -0.0459605 3.63233e-19)
(-0.0401051 -0.0515158 8.33516e-19)
(0.000204095 0.000379361 -1.81165e-19)
(0.000176705 0.000274017 -6.23725e-20)
(0.000301638 0.000269051 -9.12062e-20)
(0.00244052 0.0150397 -6.84572e-19)
(0.00211439 0.0138607 1.81207e-18)
(0.0142936 0.0915146 -4.55402e-18)
(0.0172206 0.0834352 -8.60264e-19)
(-0.0351151 -0.0803443 -4.41381e-18)
(-0.0346949 -0.0808561 1.05016e-18)
(-0.016073 0.0523319 4.0523e-18)
(-0.0173939 0.0693804 6.08551e-19)
(-0.0214292 0.0515215 1.0966e-18)
(-0.0340722 -0.0414842 -2.55742e-18)
(-0.0326497 -0.0481872 6.27057e-19)
(-0.0386019 0.0104342 6.00133e-18)
(-0.0401171 0.0120358 1.06916e-17)
(-0.040892 0.00951578 -4.08661e-18)
(-0.143281 0.37276 -7.12975e-18)
(-0.0802214 0.328713 -1.72175e-18)
(7.17637e-05 -0.000151048 3.14625e-20)
(0.000100095 -0.000139331 -4.87041e-20)
(-0.185468 0.176116 3.55312e-18)
(-0.144077 0.168583 1.24814e-18)
(-0.00685332 0.0132706 -5.20062e-19)
(-0.00641213 0.0122026 -5.20505e-20)
(-0.0893377 0.0736079 -3.25494e-18)
(-0.073908 0.01317 9.19073e-19)
(0.000173012 -7.08467e-06 -4.6495e-19)
(0.000178187 -8.13363e-06 -1.69011e-19)
(0.00023927 5.3974e-05 -3.7098e-20)
(0.000241791 4.98762e-05 -3.99132e-19)
(0.000242219 5.28356e-05 2.27952e-19)
(0.000265078 0.00051415 8.88217e-20)
(9.90227e-05 0.000490016 -9.59386e-20)
(0.00365651 -0.048404 -8.74009e-19)
(0.00754004 -0.0500012 1.60806e-18)
(0.00344792 -0.0528211 -2.40929e-19)
(-0.00362022 -0.18936 1.35932e-17)
(-0.00204936 -0.186534 8.06959e-20)
(0.00107384 -0.183032 -7.8719e-18)
(0.0932211 0.0225278 -5.70947e-19)
(0.100358 0.0201021 1.45148e-18)
(0.0939825 0.0162393 -2.06401e-19)
(0.000588624 -0.000107632 -1.53864e-19)
(0.000533645 -0.000175036 6.34806e-20)
(0.000534018 -8.00488e-05 -3.87629e-20)
(0.000227417 -2.08317e-05 2.87126e-20)
(0.000228925 -2.78421e-05 4.10358e-20)
(0.000230967 -1.61362e-05 -9.43572e-21)
(0.00381737 -0.0445322 -4.46713e-19)
(-2.57763e-05 -0.0465358 1.36197e-18)
(0.0652318 0.0277904 9.47879e-19)
(0.0593328 0.0272924 1.62243e-20)
(0.0613724 0.0229749 1.63139e-19)
(2.25956e-05 -6.901e-07 2.10641e-20)
(1.76237e-05 -1.75433e-06 -2.32876e-19)
(1.99883e-05 -1.35832e-06 3.05977e-19)
(-0.10447 0.282439 2.74791e-18)
(-0.139497 0.312633 -8.04673e-18)
(0.0877916 0.0904491 7.18838e-19)
(0.0958334 0.0979147 6.39013e-19)
(0.0775637 0.0956962 6.52647e-18)
(0.000230868 5.50639e-05 -8.62598e-20)
(0.000234364 5.38931e-05 1.63216e-19)
(0.00023226 5.15016e-05 -1.29468e-19)
(0.000188945 -6.27776e-05 4.99332e-20)
(0.000188724 -7.06113e-05 -3.12899e-19)
(0.000184277 -7.87789e-05 -1.56959e-19)
(-0.0018588 0.000853249 -1.37318e-19)
(-0.00155578 0.000936461 -2.25484e-19)
(-0.00157049 0.000643493 -1.02464e-19)
(0.000295266 7.98364e-05 -1.02367e-18)
(0.00030138 8.99138e-05 9.21532e-20)
(-0.0116404 -0.202932 1.12414e-17)
(-0.0120436 -0.204717 -1.17219e-17)
(0.000910476 -0.000628631 -3.95185e-20)
(0.00107375 -0.000601103 5.10142e-19)
(0.000897616 -0.000481957 -5.05085e-19)
(-0.0239544 0.0618952 3.03718e-18)
(-0.030522 0.0564766 9.36265e-20)
(-0.0242029 0.0703959 6.1042e-19)
(0.000332652 0.000655834 1.069e-20)
(0.000444372 0.00049902 2.09731e-19)
(5.69914e-05 5.9886e-06 -5.10445e-20)
(5.22798e-05 8.4767e-06 -4.24657e-20)
(5.45051e-05 6.2076e-06 2.96387e-20)
(0.115153 0.0288664 -7.12483e-19)
(0.110107 0.0310756 1.58642e-19)
(0.113236 0.0380523 -2.94923e-18)
(-0.000795399 0.000231169 -2.46561e-19)
(-0.000772009 0.000120697 -2.38117e-19)
(-0.00066347 0.000174251 4.13283e-19)
(-0.221429 0.187687 4.48727e-18)
(-0.223511 0.169845 1.61952e-18)
(0.00021432 1.53693e-05 -3.29836e-20)
(0.000211509 1.31362e-05 -6.7949e-20)
(0.000214952 1.03929e-05 3.90898e-20)
(-0.0459849 -0.0631564 -1.37857e-18)
(-0.0277038 -0.0392087 -4.23647e-18)
(0.00594614 0.00305885 2.12575e-19)
(0.00699991 0.00361903 -3.48996e-20)
(4.49841e-07 -5.52931e-05 -7.19617e-20)
(4.40553e-06 -6.73412e-05 2.07752e-20)
(0.000229082 5.94448e-05 1.11935e-19)
(0.000227271 5.57694e-05 -8.39312e-20)
(0.033971 -0.00468977 2.00859e-20)
(0.0347765 -0.00761464 2.35683e-19)
(0.167201 -0.0306076 1.33463e-18)
(0.147815 -0.0423058 1.5017e-18)
(0.159856 -0.0271282 -2.97699e-19)
(0.178834 -0.03262 -1.11689e-19)
(0.171645 -0.0435089 1.41643e-18)
(-1.22919e-05 -5.44179e-05 4.74392e-20)
(-7.15741e-07 -4.61557e-05 2.56715e-19)
(0.068519 0.0332648 1.19897e-18)
(0.000280722 0.00032775 6.12973e-19)
(0.000265675 0.000312507 5.9954e-20)
(0.000519776 -4.97008e-05 3.22465e-19)
(0.000502005 -9.15595e-05 1.06176e-19)
(0.000555712 -8.3504e-05 -4.82253e-19)
(0.110948 -0.0366644 5.04157e-19)
(0.113491 -0.0309258 9.75254e-19)
(0.10916 -0.0330823 5.25367e-20)
(-0.253764 0.0909283 -4.67928e-18)
(-0.247531 0.103824 -3.43239e-19)
(-0.259178 0.115073 -9.1496e-19)
(0.000535203 -1.03478e-05 5.87997e-19)
(0.000494599 -2.26805e-05 7.6381e-19)
(9.2681e-05 -0.000141047 1.37545e-19)
(8.75084e-05 -0.000138742 3.48721e-19)
(7.6116e-05 -0.000150677 3.65142e-20)
(-0.00243758 0.000356549 3.78526e-19)
(-0.00299213 0.000416645 -4.0054e-20)
(-0.00280448 -0.000176185 5.69012e-19)
(-0.00165905 0.000210177 5.26242e-19)
(-0.00158996 -1.01152e-05 -4.15026e-19)
(0.00540557 0.00106895 -1.41038e-19)
(0.00505119 0.00113426 -1.12354e-18)
(0.00529567 0.00146901 3.88426e-19)
(3.33604e-05 2.71543e-05 -4.96722e-20)
(2.76232e-05 3.17199e-05 -2.09367e-20)
(0.00119226 0.00173619 2.61035e-19)
(0.00152745 0.00170741 9.82007e-20)
(0.0013823 0.000892933 3.47398e-19)
(0.00147707 0.000966832 7.88109e-19)
(0.000189638 -5.88933e-05 3.77632e-19)
(0.000190172 -4.87375e-05 6.89888e-19)
(0.000223353 -7.46678e-06 -4.61678e-20)
(0.000216347 -1.02472e-05 -6.12719e-19)
(0.0002184 -7.84096e-06 -1.98937e-19)
(0.000228185 2.15039e-05 -7.29524e-20)
(0.000228878 6.4769e-06 -2.04068e-19)
(0.000226564 1.74422e-05 -1.45047e-19)
(-0.0935163 -0.0939337 2.46145e-19)
(-0.105301 -0.0835224 -3.8703e-19)
(-0.102646 -0.0976444 -1.65845e-19)
(0.000261321 2.15508e-05 7.15747e-20)
(0.000101476 -0.000139632 -2.29264e-19)
(0.000113491 -0.000134706 -3.18086e-19)
(7.42291e-05 4.39398e-05 -1.53808e-20)
(7.01738e-05 5.52845e-05 1.90654e-20)
(7.25852e-05 4.25483e-05 -3.08456e-20)
(0.0588991 0.0318918 -8.89322e-20)
(0.0549798 0.0277936 1.17098e-19)
(0.000185718 3.11059e-05 4.89532e-20)
(0.00018769 3.55024e-05 -1.81125e-19)
(0.000184234 3.19808e-05 -2.16412e-20)
(0.000184435 3.02765e-05 -2.42624e-19)
(2.33757e-05 -3.25632e-07 8.55505e-19)
(2.4427e-05 -3.37185e-07 -3.67568e-20)
(0.000534224 0.000740327 1.64441e-18)
(0.000518898 0.000777737 -2.48251e-20)
(0.000576503 0.000790871 -9.01311e-19)
(-0.000415517 -0.000213494 -1.01707e-19)
(-0.000453735 -0.000310168 1.87633e-19)
(-5.7838e-06 -1.15755e-05 -5.99996e-19)
(-5.75471e-06 -9.92249e-06 5.84566e-20)
(-1.25222e-05 -1.4476e-05 -2.04491e-19)
(-1.03631e-05 -5.19471e-06 -1.99784e-19)
(-5.61645e-06 -3.26468e-06 -1.16616e-19)
(-1.8685e-05 -6.06235e-06 -2.12212e-19)
(-0.00260334 0.00140403 3.49366e-20)
(-0.00299491 0.00174747 1.78498e-19)
(-0.00309079 0.00111123 2.61244e-20)
(-0.0146629 0.0329045 3.8646e-19)
(-0.0114609 0.0555882 -4.55331e-19)
(0.000209129 -1.7593e-06 9.44794e-21)
(0.000217298 -2.69541e-06 1.74148e-20)
(1.87003e-06 -2.5567e-06 -2.13631e-19)
(6.70943e-06 -1.11819e-06 2.3151e-20)
(0.0565271 -0.0845645 -9.59561e-18)
(0.0412672 -0.0962356 -5.35041e-18)
(0.0527102 -0.0937049 5.17392e-18)
(0.00144628 0.00236608 -4.21586e-19)
(0.00125676 0.00230561 3.17859e-18)
(0.00139318 0.00221275 1.57187e-18)
(2.19098e-05 -2.29889e-05 3.7007e-19)
(1.41597e-05 -2.43031e-05 1.01848e-19)
(2.08149e-05 -1.77369e-05 -5.85182e-20)
(2.91863e-05 -2.09488e-05 -1.468e-20)
(2.43026e-05 -2.88223e-05 3.51682e-19)
(-0.0188716 0.518186 9.64222e-18)
(-0.000102314 0.488585 5.89725e-18)
(-0.0154438 0.529151 1.15513e-17)
(0.0281023 -0.0116977 5.90808e-19)
(0.0285269 -0.00601864 9.86562e-19)
(0.024967 -0.00892366 -1.56224e-19)
(-7.06461e-06 -1.98687e-05 9.30947e-21)
(-7.10604e-06 -1.68183e-05 -5.77264e-19)
(0.00334183 0.0134953 1.60881e-19)
(0.00273484 0.0115518 -5.88885e-20)
(0.00494364 0.0116552 -6.08255e-19)
(-0.0607858 0.0829955 1.24024e-18)
(-0.0541182 0.103979 1.3252e-18)
(0.000370212 -0.00159291 4.06795e-19)
(9.21807e-05 -0.00141694 1.39646e-19)
(0.0115001 -0.035496 1.9776e-19)
(0.0122063 -0.0411706 -1.12214e-18)
(0.000225965 3.58662e-05 2.22339e-19)
(0.000229721 2.61272e-05 2.09814e-19)
(0.180536 -0.0466135 3.30732e-19)
(0.173726 -0.081915 5.07228e-19)
(0.177661 -0.0676755 4.55436e-19)
(0.0797219 0.0320004 -4.48161e-18)
(0.0411305 0.0192389 1.85253e-18)
(0.0409973 0.0225221 -1.44418e-18)
(0.0440869 0.0196229 9.59772e-19)
(0.00493879 0.0346626 -6.968e-19)
(0.00414448 0.0373275 2.37871e-18)
(-0.089228 -0.0275946 -2.81948e-19)
(-0.0890352 -0.0135779 -1.76369e-18)