/*--------------------------------*- C++ -*----------------------------------*\
| =========                 |                                                 |
| \\      /  F ield         | OpenFOAM: The Open Source CFD Toolbox           |
|  \\    /   O peration     | Version:  v2012                                 |
|   \\  /    A nd           | Website:  www.openfoam.com                      |
|    \\/     M anipulation  |                                                 |
\*---------------------------------------------------------------------------*/
FoamFile
{
    version     2.0;
    format      ascii;
    class       volVectorField;
    location    "900";
    object      ddtCorrDdt0(U);
}
// * * * * * * * * * * * * * * * * * * * * * * * * * * * * * * * * * * * * * //

dimensions      [0 1 -2 0 0 0 0];


internalField   nonuniform List<vector> 
18355
(
(-0.00102806 0.120455 -4.86899e-18)
(1.0681e-05 1.62832e-05 7.93692e-19)
(0.0849821 0.00540755 -1.33457e-17)
(9.32353e-05 2.47758e-05 4.39566e-19)
(-0.0206841 0.00313845 2.20096e-19)
(0.00246249 -0.151429 -2.68315e-19)
(0.00122491 -0.000490735 -4.60412e-19)
(-0.0197444 0.00652836 -9.27227e-19)
(-1.86063e-05 4.86059e-06 8.80478e-20)
(0.0380832 0.0345215 2.82693e-19)
(0.00197399 -0.00618914 1.64458e-20)
(0.02892 -0.0363074 3.55977e-18)
(0.0301593 -0.0384538 -2.44825e-18)
(-0.0853553 0.0620016 -7.28507e-20)
(-1.78793e-05 1.80586e-05 -3.65408e-19)
(6.9341e-05 -6.26429e-05 -4.24773e-19)
(9.39445e-05 2.70187e-05 -4.04316e-19)
(0.00492164 -0.000960254 -2.2955e-19)
(0.0549252 0.0468227 8.93612e-19)
(-0.00248515 0.00191902 -1.16951e-18)
(-0.157457 0.0199666 1.61818e-18)
(-0.000195832 0.000309672 -1.9958e-19)
(2.61258e-06 -6.1327e-05 -6.43775e-20)
(0.0320582 -0.119396 1.30178e-18)
(-2.31948e-06 -6.42941e-05 -3.736e-19)
(0.000925505 -0.00136545 -2.49437e-19)
(0.000983091 -0.000870812 -5.71467e-19)
(9.31583e-05 5.37202e-05 -1.08792e-19)
(-1.02475e-05 2.46423e-06 -2.54396e-19)
(0.00341942 -0.0068676 3.28748e-19)
(0.0537081 -0.255373 3.36385e-18)
(-0.0245772 -0.020176 1.25848e-18)
(-2.14068e-05 -0.000139187 -4.85182e-19)
(6.55938e-05 6.30389e-05 -2.37581e-19)
(-1.30165e-05 4.9983e-06 4.73394e-20)
(-0.00186844 -8.54407e-05 5.70584e-20)
(0.00427929 0.00335663 4.25141e-18)
(-0.00199774 -0.000274637 -9.32878e-19)
(0.00389951 -0.00764787 2.30207e-19)
(0.000731147 -0.000356872 2.73082e-19)
(0.000143388 -1.04172e-05 5.90762e-19)
(0.00231971 -0.00699112 1.50545e-18)
(7.36278e-05 6.92687e-05 2.22283e-19)
(1.35038e-05 2.09516e-05 1.15721e-19)
(1.21892e-05 9.74027e-06 -5.68129e-20)
(0.0343992 -0.0764145 9.84481e-18)
(2.11398e-05 0.000179171 1.09213e-19)
(2.02423e-05 0.000172344 -3.21413e-19)
(0.0497768 -0.19635 1.52811e-19)
(-0.000741002 8.17059e-05 -7.0967e-19)
(3.03402e-05 3.98765e-07 -2.06331e-18)
(-0.0358183 -0.0331611 -6.3528e-20)
(-0.00084791 0.000114437 1.1329e-18)
(0.017323 0.0679283 2.80222e-19)
(0.000159824 0.000121132 1.53614e-19)
(-0.002966 0.00181027 7.02615e-19)
(1.63062e-07 1.86481e-06 -2.98321e-19)
(0.0138651 -0.0583125 -7.70371e-18)
(0.000782541 -0.00161171 1.96532e-19)
(-0.11486 -0.134274 -9.21203e-18)
(7.12183e-05 6.83073e-05 3.47398e-19)
(0.0324035 -0.0149382 -3.05959e-18)
(0.0134926 0.0676036 -7.83916e-19)
(0.000812302 0.00132948 1.76282e-18)
(-0.0444437 -0.0103788 -2.55335e-18)
(4.14044e-05 -8.89936e-06 6.42758e-20)
(-0.00184882 0.00175391 6.30616e-19)
(0.0042428 0.00370451 -1.99382e-18)
(5.71423e-05 -7.42726e-06 -6.073e-19)
(0.050324 0.0452689 1.67721e-19)
(-0.0001434 -4.36082e-05 -1.11989e-18)
(0.000156489 0.000127478 7.01092e-20)
(-0.0168266 -0.0146545 -1.70639e-20)
(0.00668221 0.000658043 -9.09777e-19)
(-0.0378426 -0.0367707 7.56169e-19)
(6.17397e-05 2.00354e-05 6.70267e-19)
(0.0252172 -0.130788 1.08433e-17)
(6.73272e-05 3.14474e-05 -4.73225e-19)
(-0.000107334 -2.64983e-05 5.14187e-19)
(-0.033425 -0.0439249 1.65525e-19)
(-0.00200607 0.00152804 2.19716e-19)
(-0.00888062 -0.0681571 6.52143e-19)
(6.06951e-05 3.93028e-06 6.3009e-19)
(-0.00361205 0.0014948 -1.21317e-19)
(-0.0166589 0.0231906 9.29405e-19)
(3.06193e-06 -2.0021e-06 6.49071e-19)
(7.02429e-06 7.92647e-06 -1.0762e-20)
(-0.0048016 0.017578 -2.59036e-19)
(-1.30369e-05 -5.69798e-05 1.90089e-18)
(-0.00640038 0.0175767 -6.0022e-19)
(-0.0760007 -0.0650001 2.44376e-18)
(-0.196584 -0.0442766 3.68089e-18)
(0.0028835 -0.0603108 -7.11276e-19)
(-0.00073672 -5.00032e-05 -1.17988e-19)
(0.0210117 0.13391 6.9967e-19)
(-0.00103385 0.00153796 -2.78477e-19)
(-1.46608e-05 -1.40277e-05 4.47492e-19)
(-0.000781505 0.00120005 9.01857e-19)
(0.0280531 0.0260819 1.28628e-18)
(-0.000174541 0.000196307 -4.39051e-19)
(-0.0156341 0.0214412 -2.11422e-18)
(-0.000109641 1.34129e-05 3.10974e-19)
(-0.000627888 -5.7765e-05 9.84462e-19)
(-1.68758e-05 6.15359e-05 -2.04204e-20)
(-0.00246741 0.00138714 5.15681e-19)
(6.37837e-05 -8.24244e-05 6.29548e-19)
(-0.0432315 -0.0150473 4.49385e-18)
(0.0168733 0.158267 -2.56097e-19)
(0.00145285 0.0108057 5.37654e-19)
(8.40442e-05 1.84241e-05 4.7676e-19)
(3.5257e-06 2.42131e-06 3.0893e-19)
(3.15901e-05 -2.33164e-06 -6.19453e-20)
(-0.00472185 -0.0132147 -7.04167e-19)
(-0.00338155 0.00117374 5.74118e-20)
(0.0784035 -0.0677774 -1.08274e-17)
(-0.00624505 -0.00458276 9.73638e-19)
(-8.72771e-05 2.28008e-05 -2.36296e-19)
(-0.0335175 -0.0574698 1.79152e-20)
(-0.00146749 0.000276611 -5.50683e-20)
(-0.00155221 0.00173451 3.05866e-19)
(0.0427348 0.0424154 4.53105e-19)
(0.0872103 0.00178176 1.93831e-17)
(-0.0655977 -0.0485993 2.95519e-18)
(-0.00619687 0.0226664 -2.40807e-19)
(-0.0277299 -0.0652372 -1.95599e-19)
(0.0468582 -0.0795979 1.93299e-17)
(0.00123894 -0.000718307 2.95668e-19)
(9.12422e-05 2.10644e-05 5.14176e-19)
(0.0140144 0.120717 -8.92867e-18)
(2.86922e-05 0.000209248 7.42129e-19)
(-1.52713e-05 -1.90025e-05 -6.57593e-21)
(-0.0166512 -0.0287148 -5.77762e-20)
(0.000153777 7.17121e-05 -7.32064e-21)
(0.035707 0.00917528 -1.63903e-18)
(-0.0413547 0.050635 -2.67835e-19)
(-1.39965e-05 -5.43645e-05 5.69503e-19)
(0.0578342 0.0446741 7.39301e-20)
(0.0405167 0.0606922 6.49115e-19)
(9.15612e-05 4.41713e-06 -1.58495e-20)
(-0.193121 -0.0317878 -3.19109e-18)
(0.00152516 0.00339179 -2.40839e-18)
(0.00240368 -0.0216805 -1.49103e-19)
(-3.44908e-06 0.000132093 4.89938e-19)
(-0.0707049 -0.024281 1.75462e-18)
(-0.0463492 0.0493659 4.05725e-20)
(0.000147371 -3.26344e-06 -6.40058e-20)
(-0.104589 -0.145512 9.81512e-18)
(1.62723e-05 0.00018588 -5.46962e-20)
(-0.00345909 -0.0135068 3.748e-20)
(0.039163 -0.0198171 8.00086e-20)
(8.97949e-05 5.62758e-05 1.69018e-19)
(-0.00143577 0.00162404 -5.80524e-19)
(0.00145737 -0.000560721 4.02612e-19)
(0.00435753 -0.00698709 -4.52386e-20)
(7.81888e-05 6.98073e-05 -1.0737e-20)
(8.75901e-06 -2.23197e-05 -2.96354e-19)
(8.8004e-05 2.18158e-05 -5.54981e-19)
(9.08459e-07 -1.97573e-06 -4.88466e-19)
(-7.91488e-06 0.000144394 -8.08116e-19)
(9.46281e-06 -1.96987e-05 7.24756e-19)
(0.00458379 -0.0026581 2.41311e-19)
(0.00015911 6.62103e-05 -3.19442e-20)
(8.05529e-05 1.23974e-06 -9.81573e-19)
(0.00286798 -0.0122627 -6.48626e-20)
(0.00690501 -0.00167665 -6.66578e-19)
(0.0313491 0.0177512 -1.5341e-19)
(-0.127751 -0.148515 -4.21403e-18)
(0.0757333 0.106556 -1.24666e-18)
(-0.0952609 -0.259894 -3.12539e-17)
(0.00129214 0.00354881 -8.88869e-19)
(4.42111e-05 1.01027e-06 -4.94024e-19)
(0.0335776 0.00906251 -2.4253e-18)
(3.23833e-05 -4.31533e-06 -8.16709e-19)
(0.0617772 -0.118888 6.13845e-18)
(1.52909e-06 -9.72891e-07 9.99686e-20)
(0.000145536 -2.56643e-06 -2.66309e-21)
(3.80386e-05 -3.2921e-06 1.29617e-19)
(-2.2478e-05 0.000110982 -7.69072e-21)
(0.00125786 0.000276336 3.76428e-18)
(-0.00848874 0.00270411 -4.30137e-19)
(3.0128e-06 7.23946e-07 -3.43108e-19)
(0.0253954 0.0185992 2.48752e-19)
(-8.12506e-05 0.000253299 4.28477e-19)
(8.98671e-05 5.08094e-05 -3.65021e-19)
(0.020564 0.00573103 6.61808e-20)
(-0.000575414 -0.00015669 7.88906e-20)
(1.28264e-05 -2.43007e-06 -1.37819e-19)
(-0.00874556 0.0160196 1.48041e-19)
(0.000158706 -5.3508e-05 -1.70612e-19)
(0.000995773 -0.00115475 7.58028e-19)
(0.0422913 -0.0766015 5.49508e-19)
(0.0289253 0.0240922 2.20721e-19)
(2.76722e-06 -2.6384e-05 4.85187e-19)
(5.98172e-05 -7.20932e-05 4.14831e-19)
(0.000117637 -3.41282e-05 -8.61848e-20)
(0.089342 -0.0601548 1.0466e-17)
(3.26931e-05 -4.58449e-07 -4.9887e-19)
(0.117661 0.100205 7.7398e-20)
(8.61529e-06 4.61852e-06 -9.60453e-19)
(-0.0819839 0.0375011 -1.51157e-19)
(-0.000476682 -0.00013952 -2.21853e-19)
(0.00317514 0.00155503 1.3253e-18)
(0.00513189 -0.00732417 -9.25561e-19)
(7.04196e-06 4.8164e-06 1.33437e-19)
(0.0759889 0.0912485 -3.40693e-18)
(0.000130355 0.00016536 3.72425e-19)
(-0.13045 -0.339929 3.56765e-17)
(9.19633e-05 6.00171e-05 2.24391e-19)
(4.58253e-05 -8.71458e-05 -3.19375e-19)
(0.000777135 -0.00105806 -3.91925e-20)
(0.000147837 7.0734e-05 1.22635e-19)
(0.0503119 -0.0277038 4.46074e-20)
(0.00310482 0.000382859 3.50052e-19)
(0.00253201 0.000199936 7.1197e-20)
(2.60229e-05 0.000195143 2.21722e-20)
(0.0530146 -0.0406573 -7.32013e-18)
(-0.00864631 0.00190405 6.16352e-19)
(0.00325121 0.00164065 6.6152e-19)
(9.55036e-05 0.000185669 2.04572e-19)
(2.61511e-06 0.000184396 1.67779e-19)
(0.00125272 0.0100685 8.62649e-20)
(6.88292e-05 -8.16675e-05 -1.29485e-19)
(-0.00295296 0.0155712 -1.2885e-20)
(-0.000803904 -0.006859 3.16666e-19)
(0.013377 0.0191276 -1.31601e-18)
(0.00254783 0.00315161 7.10515e-19)
(6.07377e-05 -9.56511e-05 2.80834e-19)
(0.0317599 0.0596683 -4.52668e-19)
(-0.0338782 0.108002 -1.23326e-17)
(-0.01545 -0.00728864 7.42087e-21)
(0.000716509 0.000661322 -5.97296e-19)
(-0.00231722 0.00161516 -1.46408e-18)
(0.0344152 0.0179704 1.37254e-19)
(6.25942e-05 -9.01368e-05 -2.36614e-19)
(0.00534738 -0.0120931 2.51534e-19)
(0.0127274 0.0159948 6.45211e-19)
(0.000636636 4.28658e-05 -3.046e-18)
(0.0384278 -0.0784026 -1.73677e-17)
(0.00312849 -0.000307297 -1.4122e-18)
(0.00247039 -0.000290683 4.93319e-19)
(2.59569e-06 -2.98428e-06 -1.68267e-20)
(0.00117363 0.000245429 -1.55054e-18)
(0.00198186 -0.000286662 -1.11716e-18)
(-0.0143533 -0.00446658 -8.11795e-19)
(0.000115326 0.000176285 4.04232e-20)
(0.000164876 0.000105059 2.70285e-19)
(3.8053e-05 0.000156512 1.36962e-19)
(0.0461449 -0.0236143 7.89005e-20)
(0.0624378 -0.0405873 1.32118e-19)
(-5.39138e-05 -0.000193039 2.15406e-19)
(0.000940093 0.00171739 5.64709e-19)
(0.064808 -0.0283402 -1.49496e-19)
(0.065655 -0.0166574 -3.97146e-19)
(-0.00225158 -0.00670323 1.13262e-19)
(-1.78252e-05 0.000105264 -1.27867e-20)
(0.00490861 -0.0100799 -2.98051e-19)
(0.00316394 -0.000144462 -4.27694e-19)
(0.00012392 1.21062e-05 1.62284e-19)
(0.00189847 0.00362119 4.40797e-19)
(-6.41752e-06 -5.45654e-05 2.14042e-19)
(0.0417323 -0.00563388 3.90515e-21)
(-0.0227266 0.0069232 -1.25254e-19)
(0.0258361 0.0215457 -2.09505e-18)
(0.00650546 -0.000969438 -7.3188e-18)
(0.00585457 -0.00808552 1.67551e-18)
(0.0177535 -0.00916536 -2.49107e-19)
(-0.00263266 -0.0161024 7.24584e-19)
(0.0297604 0.0307192 -4.02077e-19)
(-5.0398e-06 -5.32293e-05 -4.33365e-19)
(0.000166455 0.000112444 7.60449e-20)
(0.000654175 -0.0016171 -6.91379e-19)
(8.79676e-05 3.86024e-05 1.52542e-19)
(0.00302111 0.00201084 -5.35599e-19)
(0.00347633 0.00154917 -1.68505e-19)
(7.10238e-05 8.28604e-05 6.23905e-20)
(9.97562e-05 0.000127668 -2.087e-19)
(0.00897023 0.0111369 -1.12106e-18)
(-1.6421e-05 -5.29764e-05 -3.74449e-19)
(-0.014377 0.0479041 -2.62948e-19)
(0.0562626 0.00661296 -3.97262e-19)
(0.00904988 0.0081865 3.80993e-18)
(0.000129337 6.31997e-05 9.66784e-20)
(-0.00634813 -0.00628862 2.41255e-18)
(8.72448e-05 4.91197e-05 -2.82035e-19)
(-0.00215778 0.018067 8.00221e-21)
(0.000172137 0.000115746 -8.7601e-19)
(-0.0103679 0.00127101 6.70634e-19)
(0.000135763 -1.33237e-05 -1.30901e-19)
(-0.00940989 0.00104987 9.63711e-20)
(0.0152475 -0.0477093 -3.30999e-19)
(4.56684e-06 -0.000121016 9.47251e-20)
(0.0167698 0.00364063 1.19286e-18)
(-0.0012009 0.000603884 -9.72632e-19)
(-0.00107557 0.00379519 -7.60385e-19)
(-0.00636543 -0.0152788 -1.0766e-19)
(-1.15302e-05 1.28167e-05 4.02855e-20)
(5.84789e-05 -8.36562e-05 -7.81746e-19)
(-0.014355 0.0443232 -3.48041e-18)
(0.00011221 0.000110178 3.77997e-19)
(-0.0029279 -0.0212897 7.1747e-19)
(0.00473641 0.00282793 -8.89444e-19)
(0.0053509 0.471407 1.48562e-17)
(0.00176609 0.0185951 -1.75846e-20)
(0.0274653 0.0219168 2.59405e-18)
(0.00414196 0.000715827 9.52079e-19)
(0.00998379 0.0123987 4.96782e-19)
(-0.000589019 0.000207095 4.02782e-19)
(0.00248668 -0.000170117 1.78312e-18)
(0.00623595 -0.000865152 1.02486e-18)
(0.0169365 0.00465548 8.70993e-19)
(0.0215234 0.0144854 -3.20059e-19)
(0.106622 0.00752698 -7.28549e-18)
(-1.46241e-05 0.000223316 7.55673e-19)
(-0.00499752 -0.00228354 -2.15911e-18)
(0.00713997 0.0633381 -2.40916e-18)
(-0.00689316 -0.00690289 3.63331e-19)
(-1.94124e-06 0.000217133 -8.99761e-20)
(1.41793e-05 0.000167858 3.01386e-19)
(6.8545e-05 0.000128359 4.13527e-19)
(0.0149566 -0.00723704 1.07715e-17)
(0.106075 0.00269406 4.2589e-18)
(0.120889 0.0442078 1.89722e-18)
(0.0181351 0.0199476 -4.55611e-19)
(0.0102624 0.00921264 -1.7028e-18)
(0.0016953 0.00291959 2.73635e-18)
(0.039808 -0.0113046 -1.62504e-19)
(1.66616e-05 0.000158389 8.20044e-21)
(0.000144142 0.000147092 7.99096e-20)
(0.00148584 0.00302847 2.80624e-18)
(0.000184677 0.000135526 4.75197e-19)
(-0.0160394 -0.00555315 1.94735e-18)
(-1.65222e-05 7.18665e-06 -6.42676e-22)
(0.0795169 0.0116788 3.95733e-19)
(5.57031e-05 -9.85276e-05 1.84677e-19)
(-0.0187408 -0.0819722 -1.41283e-19)
(0.000153743 4.4851e-06 2.03255e-19)
(0.000647954 -0.000311224 3.08468e-20)
(0.00463565 0.00168651 -2.74456e-19)
(0.0417878 -0.0371673 -1.0722e-18)
(0.0576257 0.15548 -4.30371e-18)
(-0.0146108 -0.00299911 -2.80412e-18)
(0.0136098 0.0188602 6.68841e-19)
(-8.65328e-05 -0.000186794 -8.49273e-21)
(-1.12143e-05 -5.2601e-05 -1.97833e-18)
(0.000183329 0.000139938 -2.51221e-19)
(0.0018816 0.00514183 -2.6471e-19)
(0.0454112 0.0352448 -1.52411e-19)
(-2.81598e-06 -3.92176e-05 8.24306e-20)
(9.33643e-05 -6.92501e-06 1.02155e-19)
(0.0241792 -0.00185111 -1.42426e-20)
(-0.000125393 -1.44503e-05 2.73884e-19)
(-2.48346e-06 -4.9375e-05 1.88928e-19)
(0.0603132 -0.0287495 2.4852e-17)
(0.00199876 0.00425309 4.30443e-19)
(5.23441e-05 0.000141281 2.26963e-19)
(0.00073377 0.000325785 4.34704e-19)
(-0.0115347 0.000626397 -2.87149e-19)
(9.95747e-05 1.41548e-05 -4.97418e-21)
(-0.0115253 -0.000455041 7.26269e-19)
(3.84866e-05 -0.000105588 -1.35277e-19)
(9.94856e-05 -4.16336e-06 -7.99396e-20)
(-0.000130877 0.000178189 3.48772e-19)
(-0.0836996 -0.130367 3.06269e-17)
(0.0202998 -0.00710321 3.4331e-19)
(6.52643e-05 -7.46344e-05 3.02169e-19)
(-4.59094e-06 0.000127083 8.75882e-20)
(0.00638036 0.0115009 -1.15156e-18)
(6.96042e-05 0.000118596 2.17244e-19)
(4.91254e-05 -1.23054e-06 6.06172e-19)
(0.048554 -0.000645497 -1.79218e-19)
(0.0184596 -0.0114257 -1.69742e-20)
(0.00817072 0.0146121 -5.25863e-19)
(0.000179439 0.000153399 8.53818e-19)
(0.000663849 7.96239e-05 4.09137e-19)
(0.0330181 -0.0381976 1.10081e-17)
(-0.00224325 -0.00121263 -1.65837e-18)
(0.00282638 -0.0109674 1.16452e-20)
(0.00256992 -0.000266645 -2.73777e-18)
(4.48551e-05 -8.27598e-05 7.09649e-19)
(0.0063297 0.00956439 -5.23334e-19)
(-0.0146707 -0.00667932 3.10866e-19)
(-4.71514e-05 0.000177593 4.67728e-19)
(9.83109e-05 -3.47806e-06 -1.5313e-19)
(0.00469231 -0.00153747 -1.48854e-18)
(1.63224e-05 -4.51404e-06 7.67634e-19)
(0.00339908 -0.00235921 -1.13933e-18)
(0.00012322 -3.20609e-05 -2.71791e-20)
(0.00315267 -0.0503351 1.1783e-18)
(0.00183219 -0.000647099 -2.15957e-19)
(-0.00104575 0.00158677 -5.63407e-19)
(3.66413e-05 -5.17858e-06 -2.49941e-19)
(6.29469e-05 0.000134173 1.44484e-19)
(0.00259888 0.0020563 -4.57592e-19)
(0.00137897 -0.00174859 1.95827e-20)
(0.0271602 -0.00474078 4.75145e-18)
(0.00568237 -0.11143 -6.90175e-18)
(0.0253917 -0.00750894 -4.94194e-19)
(0.00256986 0.00189901 4.75845e-20)
(0.0651464 -0.0132767 6.12472e-18)
(-0.00417082 -0.00839373 -7.67062e-19)
(0.000151628 7.82684e-07 -3.08889e-19)
(-2.76139e-05 7.28815e-06 1.9195e-21)
(0.0150359 0.00321579 2.61981e-18)
(0.000163007 -5.22594e-05 3.12492e-19)
(0.00874132 0.0159972 -2.00612e-19)
(0.00100832 -0.000393838 7.81253e-19)
(0.00944234 0.000572219 -7.2832e-19)
(0.0368412 -0.0204086 -2.17691e-19)
(0.0185647 0.0241101 6.28982e-19)
(0.0402381 0.149125 5.92601e-18)
(0.0226533 0.0299785 1.89465e-19)
(-2.21264e-05 5.69529e-05 2.71934e-20)
(0.133707 0.0931315 -4.47641e-18)
(-0.000163333 0.000229978 -4.65376e-19)
(6.40663e-05 9.20403e-05 -4.52631e-20)
(-0.165457 0.00339666 -2.93524e-18)
(0.000157066 -5.50138e-06 -2.41725e-19)
(0.00469946 0.00821962 1.23052e-18)
(0.00114844 5.59115e-05 5.87909e-20)
(-0.0492374 -0.0189029 -2.72789e-18)
(0.000155655 4.20454e-06 2.07998e-19)
(0.0326389 0.00681298 -2.03524e-18)
(-0.0112012 -0.101233 6.91613e-19)
(0.0242059 0.0181698 -2.21141e-18)
(0.000190045 3.60884e-05 -1.62802e-20)
(-2.28868e-06 1.56884e-05 4.55674e-19)
(0.0260946 0.0187687 -1.83146e-18)
(-0.00143223 0.000437662 2.79075e-19)
(0.000392624 4.11135e-05 -4.35298e-19)
(0.0324585 0.0300668 -6.68136e-19)
(-0.0194011 0.00660638 -5.04215e-19)
(6.13547e-05 9.04382e-05 -1.16036e-19)
(0.0157735 0.00309902 -4.22394e-18)
(0.027735 -0.00352554 -8.0966e-18)
(5.30213e-07 1.51002e-05 -6.48375e-19)
(0.000648693 -0.000729415 6.63012e-20)
(-0.0129338 -0.00222529 -1.35502e-19)
(0.0771069 0.0827392 2.17336e-18)
(0.00718336 0.0147883 6.29513e-20)
(-9.56214e-05 -6.49255e-05 -9.59559e-20)
(-0.000626829 0.000275095 -5.47593e-19)
(0.0120688 0.00199189 -2.12922e-18)
(2.04436e-05 -1.26139e-06 6.30905e-20)
(0.000142203 6.36157e-05 5.06232e-19)
(0.000606024 0.00019576 -7.8635e-19)
(0.0184243 0.0202812 -3.59573e-19)
(0.0175615 -0.105395 9.94399e-18)
(5.80384e-05 -6.22575e-05 -8.35703e-19)
(2.23949e-05 7.67695e-07 2.72773e-19)
(0.000134681 2.16531e-05 9.10633e-20)
(0.0442103 -0.0393212 -3.03055e-18)
(-0.0130546 -0.00799074 -8.28604e-20)
(4.19317e-05 -9.64672e-05 -9.64767e-20)
(0.00353193 0.00824757 -1.88072e-19)
(-0.00195116 0.0164536 2.63491e-20)
(0.000233162 -6.72211e-05 -9.14167e-20)
(0.089392 -0.0651591 -1.62765e-17)
(0.0341527 -0.0138348 -2.3707e-18)
(-0.000108819 0.000277617 -9.79994e-20)
(2.08478e-05 -2.4917e-06 -8.97141e-19)
(0.00655034 0.0138941 -6.95053e-20)
(0.0415188 -0.044147 7.37578e-18)
(-0.0685281 0.328927 -6.6391e-18)
(7.92001e-05 -2.18852e-05 2.36606e-19)
(0.155547 0.0986175 2.37658e-19)
(8.92836e-05 2.3166e-06 2.30976e-20)
(6.93511e-05 -4.27726e-05 2.93231e-19)
(0.000613174 0.0212285 -3.54062e-19)
(-0.00152265 0.000735708 -3.58074e-19)
(0.000273932 -0.0552681 -3.98764e-19)
(-0.0181767 -0.0125226 -1.91912e-18)
(-0.0011655 0.0017244 9.41483e-19)
(0.00749907 0.000968351 2.03464e-18)
(-0.000177986 0.00034509 -3.70784e-19)
(0.0602628 -0.0250628 -1.04749e-17)
(-0.00168752 0.000236168 2.94608e-19)
(0.00564848 -0.00098444 -1.14379e-17)
(-0.000213238 4.06334e-05 1.91675e-19)
(9.53605e-05 1.5824e-05 -1.35296e-19)
(0.000314422 5.32678e-05 -1.18099e-19)
(9.02362e-05 -3.22076e-06 -6.17581e-19)
(0.0353221 -0.0102737 -5.19918e-18)
(0.0772677 -0.0680046 -2.4698e-18)
(-0.0474724 -0.0241197 4.23748e-19)
(0.00559008 -0.000974019 6.91377e-19)
(0.000562384 -3.80167e-05 2.31517e-19)
(-0.000189456 -1.3687e-05 -3.25923e-19)
(0.00100414 -0.0013032 1.73579e-19)
(0.00418472 0.000230265 -3.30278e-19)
(0.000188797 0.00160182 -2.82408e-19)
(0.000301531 0.000104787 -1.44311e-19)
(0.000167294 -0.000110026 8.25825e-19)
(-0.000919163 0.0187735 6.97835e-21)
(-6.07788e-07 -3.05334e-06 4.98853e-19)
(-0.000212781 0.0016195 1.96347e-19)
(0.220532 0.0693885 2.61329e-19)
(0.132691 0.0903739 -1.58032e-18)
(0.0119406 0.0631331 1.92254e-19)
(5.77425e-05 0.000202893 -1.17129e-18)
(2.51406e-06 6.46411e-08 3.28615e-20)
(-0.0129875 -0.00101115 -2.12659e-18)
(-0.000169826 0.000284845 2.48857e-19)
(0.0393659 -0.00948529 1.37067e-19)
(0.0923265 0.016751 -1.03895e-18)
(-0.00418298 -0.00238078 1.25552e-18)
(-0.00407523 0.000412773 -1.21589e-20)
(0.00581299 0.00507274 -4.59455e-19)
(-3.24574e-05 0.000713992 4.21957e-19)
(0.000227187 0.00226102 1.22174e-18)
(-0.165235 -0.129708 2.57953e-18)
(-0.00773215 0.0101944 1.32232e-19)
(-0.00140096 -0.000131014 9.59452e-19)
(0.041043 -0.0306423 -3.59649e-18)
(-1.60934e-06 1.10696e-05 1.62856e-19)
(0.0825116 0.130844 -6.29288e-18)
(0.129873 0.0958697 2.62176e-18)
(0.00349564 -0.000371223 -6.14409e-18)
(0.000668756 -0.000651171 -2.84446e-19)
(-0.166751 -0.132439 -1.18812e-17)
(7.46151e-05 8.14425e-05 2.78264e-20)
(0.0306644 0.00689437 2.89322e-19)
(-0.0235376 -0.0233574 -4.37901e-20)
(-0.0212921 0.0685365 -3.67077e-19)
(-0.00171094 3.79604e-05 -1.89772e-19)
(0.000316834 2.66753e-05 1.36786e-18)
(0.000228741 -3.1186e-05 2.23961e-19)
(-0.0516901 0.0488499 -3.38162e-19)
(-0.0813384 0.257104 3.63759e-18)
(-0.025917 0.05738 1.44887e-20)
(-0.0577096 -0.0665095 -6.81108e-19)
(0.00360652 0.00142105 -9.07166e-19)
(0.000221665 -2.13887e-05 -4.86986e-19)
(-0.00339195 0.00185218 -1.80713e-19)
(0.000170694 9.14522e-05 2.25115e-19)
(-0.00449546 -0.00020596 -9.62622e-19)
(-0.169193 0.00553629 2.37051e-18)
(0.0682356 0.0254172 -6.14691e-19)
(0.0546295 -0.0770434 1.60259e-17)
(0.103783 -0.00645889 3.39749e-19)
(-0.00966857 -0.00629266 -3.24804e-19)
(-0.0220825 -0.017637 3.03027e-19)
(-0.0030888 -0.0160183 -3.55699e-18)
(2.82389e-05 0.00017949 2.64052e-19)
(0.000115052 -3.19634e-05 -1.49761e-19)
(-0.011001 -0.00770737 -8.83194e-19)
(-0.001536 0.00543475 -4.96717e-19)
(0.000172269 0.000113365 -2.25709e-19)
(0.000169172 8.359e-05 -6.07007e-20)
(-0.0177366 -0.0890152 1.96415e-18)
(-1.34024e-05 -4.04292e-05 1.09284e-19)
(0.103779 6.73694e-05 8.93791e-20)
(-0.00698943 -0.00160122 -1.70739e-18)
(0.0357682 -0.0016446 -2.42812e-18)
(0.0343193 -0.0403628 -2.02851e-17)
(0.000116091 -2.97198e-05 -6.34063e-20)
(-0.0035083 0.000846131 -1.16386e-19)
(0.0683711 0.101356 7.72304e-18)
(0.00017332 -9.91329e-05 4.63109e-19)
(0.029451 -0.0822883 1.35931e-17)
(0.000107204 -2.6694e-06 -1.04762e-19)
(-0.163871 -0.0760986 1.5687e-18)
(-0.00840884 0.00953885 -3.65576e-19)
(0.00014318 -8.67747e-06 -1.0012e-19)
(-0.00148216 -0.0161633 3.37036e-19)
(0.0301972 0.0281876 6.55727e-20)
(0.0219194 0.0326638 3.8109e-20)
(9.99462e-06 2.54323e-06 3.65401e-20)
(6.17702e-05 -6.06693e-05 2.54048e-19)
(0.0108665 0.00249916 4.37346e-18)
(0.00366895 -0.000458638 -4.82144e-18)
(0.0369104 1.55737e-05 -2.94172e-18)
(0.000143344 -7.90121e-05 -6.29224e-20)
(0.032107 -0.0167729 1.48805e-17)
(-1.21653e-05 -4.86913e-05 6.65678e-19)
(0.0883809 0.0197114 1.66978e-18)
(-2.25237e-05 4.79668e-06 -1.50908e-21)
(-0.000107698 0.000231351 1.03542e-19)
(0.080806 -0.0177477 -5.69005e-18)
(0.00680187 -0.00116508 4.22585e-19)
(0.00923117 0.0150804 -4.1202e-19)
(2.69443e-06 -1.34588e-06 -3.72183e-19)
(-0.00463769 -0.000167726 4.19461e-19)
(-0.0027377 0.00255245 3.23638e-19)
(0.072938 0.0244073 3.37319e-20)
(0.125751 0.0418642 -1.78772e-17)
(0.00184711 0.00221066 7.64508e-19)
(-0.000390328 -0.00880341 -6.45932e-20)
(3.87522e-05 6.26127e-06 3.79773e-19)
(-0.00685427 -0.00520234 -1.99396e-18)
(-6.95215e-05 0.000102265 -4.15107e-19)
(0.00173375 0.00202566 -3.58584e-18)
(-0.141387 -0.208992 -1.33464e-17)
(1.56213e-05 -2.37902e-07 5.59041e-19)
(0.0272067 -0.00270557 -1.89641e-19)
(0.000224624 9.78925e-06 8.10529e-21)
(4.86856e-05 2.48297e-06 5.90701e-19)
(0.000305631 0.00289551 -1.98334e-18)
(0.0391246 0.000213648 -1.43479e-19)
(-0.00272206 -0.00158196 4.64614e-19)
(-0.0393341 0.0399283 2.0001e-18)
(-0.000229655 0.0020649 -2.9087e-19)
(0.0103264 -0.00232882 -3.86493e-18)
(0.0106673 -0.117892 4.06171e-18)
(2.29023e-05 0.000168734 -7.1745e-21)
(4.54081e-05 0.000153809 -1.87416e-19)
(0.127337 0.0802361 -9.73167e-18)
(-0.00715618 0.0161802 -9.07417e-20)
(0.236388 0.037491 6.42823e-19)
(-0.0218435 -0.00952074 -3.88997e-19)
(0.000550691 -0.000203952 -7.06879e-20)
(0.000174283 5.93584e-05 6.417e-19)
(-0.000154352 -0.000102183 1.61447e-19)
(0.00659377 -0.000187996 -8.57438e-19)
(-4.83275e-05 -0.000368406 -2.71649e-20)
(0.000927958 9.39418e-05 3.80522e-20)
(-0.0597024 0.0694326 -1.13228e-18)
(0.0190048 0.0259345 3.0532e-18)
(-8.5365e-05 0.000230808 -2.92763e-19)
(0.0714585 0.0480099 1.81702e-20)
(0.0772475 0.0588606 1.24911e-18)
(0.00133228 -0.00480172 5.8067e-20)
(0.0880929 -0.0151366 -9.35966e-19)
(0.000147099 4.91644e-05 -5.27911e-19)
(-0.0199864 0.121048 1.54645e-18)
(-0.0517899 0.0455549 1.44911e-19)
(9.36384e-05 0.000224922 3.54703e-20)
(0.0130789 -0.136512 -4.75407e-18)
(0.0136441 0.00230125 2.69476e-18)
(0.103155 -0.0687742 -1.9053e-17)
(0.069686 0.0378349 7.58294e-20)
(0.000379836 0.000289283 -3.8514e-19)
(-9.26427e-05 -0.000128298 2.0802e-19)
(3.70583e-05 -4.78903e-06 7.45189e-19)
(0.0250367 0.00837985 3.60866e-19)
(0.014988 -0.00632628 -6.69118e-18)
(0.000190454 8.80917e-05 3.16717e-19)
(0.000690556 -8.57061e-05 -1.1744e-18)
(-0.0514402 0.069773 -3.5058e-18)
(-0.000100175 0.000232547 6.1198e-19)
(0.0144861 0.00227811 -9.24531e-18)
(-0.000193956 -0.000234866 -3.96538e-19)
(0.0123904 0.00138088 -1.51304e-18)
(0.159905 0.0687026 3.05592e-18)
(-0.0518312 0.0356461 -1.70645e-19)
(-0.0144129 -0.00767696 5.28417e-19)
(-0.0400312 0.0304058 -7.1503e-19)
(-0.00967728 0.0173745 5.39852e-19)
(0.0760498 0.0186616 -1.56381e-18)
(-0.00397378 0.000812362 4.23513e-22)
(-1.41962e-05 7.37641e-05 -4.15296e-19)
(-0.00613738 -0.00238801 1.84396e-20)
(0.0593894 0.0385695 -7.0385e-20)
(0.00578673 -0.00618502 -2.17982e-19)
(0.0123925 -0.00744611 -7.09104e-18)
(0.000200708 4.25828e-05 7.8109e-20)
(-0.0256933 0.10194 1.06822e-17)
(0.000138626 8.67879e-06 -8.17515e-20)
(0.00048279 -0.000259586 -1.75473e-19)
(0.0905766 0.0875106 -8.0015e-19)
(4.34006e-05 -4.68597e-07 -5.74864e-19)
(-0.00694925 -0.00205338 -2.52454e-19)
(0.00896227 0.0124652 5.63205e-20)
(-0.0363062 0.0362286 -2.75143e-18)
(0.000184753 -0.000186529 -3.45998e-19)
(0.00016175 1.97411e-05 4.79656e-20)
(-0.000165123 0.00282898 -1.8421e-18)
(-0.00517519 -0.000343839 -9.32507e-20)
(7.42264e-05 -5.58976e-05 9.21581e-19)
(-0.000296717 -0.00202218 3.12023e-19)
(0.00126389 -0.0185998 1.1708e-18)
(0.0201347 0.0706648 4.17735e-18)
(-0.000805327 0.00165281 1.03429e-18)
(-3.79488e-05 3.17954e-06 4.758e-19)
(-0.00586002 0.0209986 5.83157e-19)
(-0.0102445 -0.119977 -3.37465e-18)
(0.00012645 7.14846e-05 -7.52363e-20)
(-0.0380623 0.0216926 4.07831e-19)
(0.0841368 -0.0676997 1.70318e-17)
(0.000235171 -5.98863e-05 1.94475e-19)
(0.0502391 0.265679 -3.06686e-19)
(6.04797e-05 -6.53213e-05 -4.96754e-19)
(0.0866049 0.0101689 -5.40293e-18)
(0.000192428 2.83258e-05 8.81176e-19)
(0.00131973 0.000263614 -4.90849e-20)
(0.0784534 -0.0216431 5.54329e-18)
(-0.00194937 -0.000290128 -3.27165e-21)
(0.0906424 0.108809 -7.85771e-19)
(-0.000688445 0.0015181 -1.35641e-18)
(0.000159616 1.03109e-05 -6.22367e-19)
(0.0522363 0.288171 1.52635e-18)
(0.000199344 3.84077e-05 -1.24551e-19)
(8.51333e-05 4.35187e-05 6.18216e-19)
(9.4834e-05 1.77224e-05 -7.84728e-20)
(-1.21366e-05 8.80325e-05 7.16019e-20)
(-0.00765352 -0.00252291 -1.12019e-20)
(-0.00427145 0.0159355 -8.82945e-19)
(0.0104203 0.168889 -5.31292e-18)
(1.28004e-06 -2.51895e-06 1.4695e-19)
(0.0183957 -0.0935011 -2.07662e-17)
(0.00321404 -0.000824291 -2.93659e-19)
(-0.044677 0.013118 2.92048e-19)
(0.0658783 0.0228202 7.73616e-18)
(0.000509559 -0.000767943 2.81389e-20)
(0.000180363 0.000150534 -1.56425e-18)
(-0.00457581 0.000314519 4.9206e-20)
(0.000413221 -3.87985e-05 2.25251e-19)
(0.0451341 -0.0159258 -6.38467e-18)
(0.000111756 2.7511e-05 -2.44656e-20)
(8.51393e-05 7.24103e-05 -3.57834e-19)
(0.000133711 4.52451e-05 -1.75535e-19)
(0.00018447 6.38013e-05 -3.04253e-19)
(0.000173217 -8.5396e-05 -9.07885e-20)
(0.0958812 -0.0107587 -4.31788e-19)
(0.00604445 -0.00163497 1.15421e-19)
(0.0182256 0.00506169 -1.44401e-19)
(-0.00234771 0.00234512 9.77482e-19)
(-0.00521786 -0.00141764 3.92579e-19)
(0.00395526 -0.00245244 6.39082e-19)
(0.00486892 0.00227525 -1.26972e-19)
(-0.0245997 0.00171069 -1.91954e-19)
(1.00669e-06 -2.31797e-05 6.32857e-20)
(0.0337026 -0.0115809 -1.50964e-18)
(-0.0081104 0.0233351 -1.25593e-18)
(5.58598e-05 -9.7926e-05 -2.06719e-19)
(0.0596139 0.059682 4.26682e-18)
(0.158415 0.0734807 1.18301e-17)
(6.66282e-05 -9.63971e-07 4.97748e-19)
(-0.037283 -0.00791123 -1.02459e-19)
(2.17294e-05 6.43542e-06 1.86177e-19)
(0.0365079 0.00942406 -6.36549e-20)
(0.0103555 -0.00186155 -8.64542e-19)
(7.47578e-05 0.00023536 -3.15428e-20)
(0.011304 0.00194796 -2.14912e-18)
(-0.00560228 -0.00192456 -8.78951e-20)
(-0.0404525 0.0059378 6.49085e-20)
(6.1107e-05 -1.71889e-06 -4.82643e-19)
(0.00282834 -0.000386419 3.6533e-19)
(-0.0783771 0.0107995 4.92232e-20)
(-0.062373 0.0229289 5.17902e-18)
(0.0336041 -0.02437 3.33757e-19)
(0.000177985 -7.4435e-05 -9.20431e-19)
(0.016719 0.0303895 -3.36042e-19)
(0.0234606 -0.0177574 -4.95281e-18)
(-0.0371545 0.118423 3.64127e-18)
(0.000147738 -8.26283e-05 4.41065e-19)
(0.00103573 0.000953494 2.82694e-18)
(0.000256917 0.00025057 9.27474e-19)
(0.000154333 0.000123589 -5.3986e-20)
(1.93012e-05 0.000194295 2.94489e-19)
(-9.56564e-06 6.20032e-06 -3.71192e-20)
(1.46487e-05 1.70713e-05 3.29965e-19)
(-0.0432107 -0.00305144 -1.15765e-19)
(0.00263933 0.0068004 -1.9747e-19)
(-3.95384e-05 -4.0686e-06 1.87992e-19)
(6.43837e-05 5.74109e-05 2.46821e-19)
(7.87899e-06 -2.01319e-06 2.87805e-19)
(4.85035e-06 -0.000102581 -1.6492e-19)
(-0.0584121 0.0203563 -4.89999e-18)
(0.0237144 -0.016389 3.68755e-18)
(2.23525e-05 -0.000112244 3.6244e-19)
(-0.00518373 -0.000913021 -4.39573e-19)
(0.000434467 -4.27494e-05 -6.85462e-20)
(0.000508549 -4.52311e-05 -2.12563e-19)
(0.000951733 0.000705179 2.16094e-19)
(-1.99222e-06 0.000139824 -1.57397e-19)
(0.0193839 -0.00628629 8.79221e-19)
(6.51275e-05 4.74425e-05 -6.70399e-20)
(-1.45853e-05 3.04084e-05 -4.04011e-19)
(1.114e-05 -2.93344e-06 2.70895e-19)
(6.51547e-05 0.000195338 1.23217e-19)
(-0.000520822 0.00369668 -3.6894e-19)
(0.00162408 -0.00143514 1.42195e-19)
(0.0749405 -0.0635111 1.33904e-17)
(-0.192957 -0.0723153 -1.3322e-18)
(0.0016592 0.00248018 2.07673e-18)
(-1.51002e-05 1.33755e-06 -5.1556e-19)
(0.0387524 -0.043168 5.52862e-18)
(8.06312e-05 7.30529e-05 2.0889e-20)
(6.9316e-05 5.7046e-05 -8.93955e-20)
(0.00201589 -0.00113132 2.88314e-20)
(0.0312898 -0.0196592 -3.27951e-20)
(0.00497899 -0.00215713 9.13928e-19)
(0.00190134 -0.00074377 2.41168e-19)
(0.000162333 6.98418e-05 -9.39242e-20)
(6.98274e-06 -1.33795e-05 -5.08232e-19)