/*--------------------------------*- C++ -*----------------------------------*\
| =========                 |                                                 |
| \\      /  F ield         | OpenFOAM: The Open Source CFD Toolbox           |
|  \\    /   O peration     | Version:  v2012                                 |
|   \\  /    A nd           | Website:  www.openfoam.com                      |
|    \\/     M anipulation  |                                                 |
\*---------------------------------------------------------------------------*/
FoamFile
{
    version     2.0;
    format      ascii;
    class       surfaceVectorField;
    location    "900";
    object      ddtCorrDdt0(Uf);
}
// * * * * * * * * * * * * * * * * * * * * * * * * * * * * * * * * * * * * * //

dimensions      [0 1 -2 0 0 0 0];


internalField   nonuniform List<vector> 
27284
(
(0.00866987 0.118999 -6.5629e-18)
(-0.00947724 0.123011 -2.28151e-18)
(0.010964 0.113876 3.53093e-19)
(1.14466e-05 1.29203e-05 3.59679e-19)
(9.56666e-06 1.04086e-05 -1.09207e-19)
(1.11477e-05 2.37027e-05 5.3373e-19)
(0.0862671 0.00337962 4.87425e-18)
(0.0859215 0.00785303 -9.26455e-18)
(0.0820042 0.00532412 -2.559e-18)
(9.28e-05 2.6385e-05 2.34529e-20)
(8.93356e-05 2.82694e-05 2.98354e-19)
(9.63926e-05 2.40667e-05 1.70556e-19)
(-0.0203451 0.00486416 -3.70985e-19)
(-0.0224871 0.00222057 7.09782e-19)
(-0.0186885 0.0014032 2.88199e-19)
(0.0172632 -0.135168 8.28698e-19)
(-0.0102048 -0.151353 5.2177e-19)
(0.00369726 -0.167154 3.75241e-19)
(0.00121995 -0.000592029 -2.80761e-20)
(0.00110848 -0.000437232 2.12958e-19)
(0.00133623 -0.000361324 -8.25799e-19)
(-0.0209278 0.00836987 -2.67719e-18)
(-0.0171198 0.0064626 -2.49649e-19)
(-1.51113e-05 4.57417e-06 -1.5572e-19)
(-2.46873e-05 5.6627e-06 3.35632e-19)
(-1.63599e-05 5.77802e-06 2.33837e-19)
(0.0420114 0.0346433 1.10662e-19)
(0.0351975 0.0321845 -2.02839e-19)
(0.0367879 0.035904 -2.16199e-19)
(0.00216349 -0.00659143 8.15444e-19)
(0.00141219 -0.00611311 4.77587e-19)
(0.00224794 -0.00585971 -8.55184e-20)
(0.0295544 -0.0374098 4.42359e-19)
(0.0276279 -0.0363081 -4.59857e-18)
(0.0296013 -0.0351199 2.59319e-18)
(0.0316581 -0.0383134 4.48885e-18)
(0.029468 -0.0396563 -4.27169e-18)
(-0.0851564 0.0505322 -1.84632e-19)
(-0.0883355 0.0725754 5.32767e-19)
(-0.0793671 0.066285 2.19584e-20)
(-1.4618e-05 1.53017e-05 -1.76505e-19)
(-1.67001e-05 2.15615e-05 -1.02545e-19)
(-2.2221e-05 1.77276e-05 -2.77142e-19)
(6.62377e-05 -7.14023e-05 7.66476e-20)
(7.02188e-05 -6.10535e-05 -3.61172e-19)
(7.18895e-05 -5.24141e-05 1.34946e-19)
(9.25596e-05 2.50845e-05 4.25451e-20)
(8.90038e-05 3.31464e-05 -1.40692e-19)
(0.00481167 -0.00124949 -8.52874e-19)
(0.00525479 -0.000988639 2.48651e-19)
(0.00473545 -0.000697528 5.39696e-19)
(0.0566013 0.0456055 5.03258e-19)
(0.0548485 0.0490179 8.15964e-19)
(0.052866 0.0457487 5.13233e-19)
(-0.00267485 0.00188921 -2.9751e-19)
(-0.00245747 0.00216544 2.28411e-20)
(-0.00224613 0.00172328 -1.11893e-18)
(-0.161086 0.0116658 6.88732e-20)
(-0.163275 0.0125066 1.96513e-18)
(-0.145746 0.0339144 1.34778e-18)
(-0.000189221 0.000330281 -3.75753e-19)
(-0.000183119 0.000297813 -2.36348e-20)
(-0.000243606 0.000315662 -2.85186e-19)
(-7.96061e-07 -6.32507e-05 -2.30037e-19)
(1.52383e-06 -6.55318e-05 3.07488e-19)
(3.80352e-06 -5.7311e-05 6.78095e-20)
(0.0472581 -0.103339 4.10968e-18)
(0.0414722 -0.0952098 2.86222e-18)
(-5.3453e-06 -6.77338e-05 1.70423e-19)
(-2.78041e-06 -5.96399e-05 -6.62605e-20)
(0.000856202 -0.00150806 3.54621e-21)
(0.000816385 -0.0012132 -3.11928e-19)
(0.00107487 -0.00130174 -3.05661e-20)
(0.00112482 -0.000788395 -1.31344e-19)
(0.000990046 -0.00102184 1.91031e-19)
(0.000842127 -0.000798291 4.84829e-21)
(9.07009e-05 5.63622e-05 5.1721e-20)
(9.29818e-05 4.72607e-05 -1.1753e-19)
(9.22441e-05 5.9324e-05 -4.71736e-20)
(6.93281e-06 2.74407e-06 1.18743e-19)
(-1.37762e-05 3.02854e-06 -3.88378e-19)
(0.00366281 -0.00727294 2.82106e-19)
(0.00289436 -0.00692512 8.51973e-19)
(0.00369718 -0.00651182 5.39142e-19)
(0.0507998 -0.229111 1.81659e-18)
(0.0488473 -0.278861 -1.00631e-20)
(0.0543595 -0.250266 1.6077e-18)
(-0.0240253 -0.0219758 5.26824e-19)
(-0.023379 -0.0189244 8.87303e-19)
(-0.0267555 -0.0197286 4.40041e-19)
(-7.3307e-06 -0.000130972 -1.88909e-19)
(-2.86156e-05 -0.000140663 -2.61065e-19)
(-3.18153e-05 -0.000147035 6.48021e-20)
(6.8244e-05 6.5941e-05 6.2737e-20)
(6.42792e-05 5.99824e-05 2.08218e-20)
(6.50647e-05 6.16983e-05 -6.2435e-20)
(-1.42852e-05 6.27669e-06 2.3542e-20)
(-1.12455e-05 5.74604e-06 1.06641e-19)
(-1.45432e-05 2.8263e-06 7.65335e-21)
(-0.00192749 -0.000176321 -4.4459e-19)
(-0.00172308 -7.96986e-05 -7.76834e-19)
(-0.0019621 2.65654e-05 2.63047e-19)
(0.00425362 0.00354559 8.54993e-19)
(0.00450539 0.00325827 2.42396e-18)
(0.00412117 0.00323295 1.16909e-19)
(-0.00191656 -0.000392909 -1.29078e-19)
(-0.00222155 -0.00029453 -7.2245e-19)
(0.00452151 -0.00748204 -3.44484e-19)
(0.00358203 -0.00816559 -4.29393e-19)
(0.000688894 -0.00033839 1.81666e-19)
(0.000741099 -0.000400907 9.92597e-20)
(0.000767696 -0.000336363 -2.59376e-20)
(0.000137772 -1.12653e-05 6.05877e-20)
(0.000142082 -1.01777e-05 2.63427e-19)
(0.000149764 -6.6063e-06 4.02909e-19)
(0.00195563 -0.00738152 5.2069e-19)
(7.27384e-05 6.88316e-05 2.83991e-19)
(7.55933e-05 6.99306e-05 1.04321e-19)
(7.25839e-05 6.76469e-05 5.53697e-19)
(1.27003e-05 1.53932e-05 2.75066e-20)
(1.39904e-05 1.84942e-05 2.27347e-19)
(1.36418e-05 2.80859e-05 1.92029e-19)
(1.19363e-05 1.46325e-06 2.73619e-19)
(0.036427 -0.0773875 -3.89498e-18)
(0.0344762 -0.0744154 3.44538e-18)
(0.0325837 -0.0776592 7.93135e-18)
(2.06715e-05 0.000175762 -1.07689e-19)
(2.49928e-05 0.000179361 1.87711e-19)
(1.8914e-05 0.000182062 4.23118e-20)
(1.70145e-05 0.000170113 -1.67377e-20)
(2.34223e-05 0.000169512 -3.0243e-19)
(0.053976 -0.157633 5.00411e-18)
(-0.00079267 9.41286e-05 2.3251e-19)
(-0.000744953 1.50253e-05 -4.04129e-19)
(-0.000675834 0.000120337 -3.37674e-19)
(3.15114e-05 -5.70409e-08 -1.28538e-18)
(2.89101e-05 1.01341e-06 9.15681e-19)
(2.96567e-05 -1.64576e-07 -1.00764e-18)
(-0.0266515 -0.0309827 -1.05096e-19)
(-0.0323422 -0.0155263 2.05426e-19)
(-0.0446547 -0.036166 1.93003e-19)
(-0.000950749 7.46261e-05 1.39694e-19)
(-0.000839403 0.000194808 4.67885e-19)
(0.0156427 0.0678096 1.65815e-19)
(0.0187505 0.0696879 2.30953e-18)
(0.018651 0.0646122 7.80421e-19)
(0.000157741 0.000123881 1.05354e-19)
(0.000163595 0.000116714 1.17203e-19)
(0.000158731 0.000120745 3.26851e-19)
(-0.0029646 0.00155875 2.88788e-19)
(-0.00328329 0.00209069 2.05719e-18)
(1.88792e-06 2.22074e-06 9.9171e-21)
(-5.85192e-08 1.88745e-06 6.67967e-20)
(-9.62979e-07 1.3674e-06 -2.92777e-20)
(0.0182187 -0.100338 -1.04778e-18)
(0.000879378 -0.00175904 7.31359e-20)
(0.000587199 -0.00159637 1.45354e-19)
(-0.0974646 -0.131948 1.36141e-17)
(-0.115895 -0.136476 -1.74289e-17)
(-0.127292 -0.133436 1.31308e-17)
(7.35759e-05 6.97318e-05 -2.43983e-19)
(0.0332339 -0.0144021 -2.67971e-18)
(0.0322614 -0.0159947 7.19835e-18)
(0.0312102 -0.0140011 1.14131e-18)
(0.0125656 0.0664723 -2.70964e-19)
(0.0128291 0.0708007 -3.21154e-19)
(0.000868199 0.00150005 1.1702e-18)
(0.000958744 0.0012456 9.86189e-19)
(0.00064915 0.00126566 2.51655e-19)
(-0.04391 -0.0126135 8.19751e-19)
(-0.0472135 -0.00917908 -1.03045e-18)
(-0.0416375 -0.00861918 3.56991e-19)
(3.89323e-05 -6.99748e-06 -1.2309e-19)
(4.17392e-05 -9.61469e-06 9.18237e-20)
(4.42919e-05 -1.02303e-05 3.33832e-19)
(-0.00192524 0.00164516 4.68356e-19)
(-0.00171222 0.00173735 4.92354e-19)
(-0.00192515 0.00193759 3.45063e-20)
(0.00406842 0.00381938 -2.00771e-19)
(0.00447164 0.00381476 -2.11656e-18)
(5.90101e-05 -1.77651e-06 2.69698e-20)
(5.68774e-05 -1.51148e-05 -4.02837e-19)
(5.59638e-05 -4.83169e-06 -4.26384e-19)
(0.0464125 0.043831 3.43144e-19)
(0.0543619 0.0443392 8.8766e-20)
(0.0515681 0.0485768 9.15128e-19)
(-0.000124084 -3.66219e-05 -3.13709e-19)
(-0.000147908 -6.84528e-05 -4.86218e-19)
(-0.000167563 -3.02347e-05 -5.67751e-19)
(0.000156964 0.000131324 1.70095e-19)
(0.000165369 0.000125134 -1.31029e-20)
(-0.0176144 -0.0135784 -9.91084e-19)
(-0.01761 -0.0159012 -2.67305e-19)
(-0.0154012 -0.0146362 -1.63411e-19)
(0.00710056 0.000792996 6.36118e-19)
(0.00666527 0.000226167 -9.09421e-19)
(0.00629701 0.000917116 -3.75411e-20)
(-0.0359669 -0.040196 3.49763e-19)
(-0.0408801 -0.0365737 2.35346e-19)
(-0.036185 -0.0314646 -2.20597e-20)
(6.43774e-05 2.57712e-05 1.01546e-19)
(6.14064e-05 1.17385e-05 6.46489e-19)
(5.98315e-05 2.1808e-05 5.84665e-19)
(0.0469268 -0.0498877 4.54598e-18)
(0.00886895 -0.223797 8.67154e-18)
(6.80106e-05 3.83472e-05 -1.94073e-19)
(6.92924e-05 2.94385e-05 -9.36136e-20)
(-0.00010811 -5.62701e-06 4.14848e-19)
(-8.66777e-05 -3.74756e-05 8.45901e-19)
(-0.0333288 -0.0504356 -1.02442e-18)
(-0.029929 -0.0430269 2.46422e-20)
(-0.0021746 0.00158496 -7.37264e-19)
(-0.00194541 0.00141 2.2597e-19)
(-0.00313421 -0.0645743 -6.01604e-19)
(-0.00791657 -0.0750424 5.91742e-19)
(-0.0139915 -0.0635423 4.58906e-19)
(6.25827e-05 1.64675e-06 4.10747e-19)
(-0.00349678 0.00133419 -8.30832e-20)
(-0.00351184 0.00167487 -1.51899e-19)
(-0.00383351 0.0015248 -8.51375e-20)
(-0.0161621 0.022239 -5.40516e-19)
(-0.0155929 0.0243217 4.75471e-19)
(-0.0178554 0.0231551 -9.80206e-19)
(8.29882e-07 -2.80318e-06 -2.48705e-19)
(3.20818e-07 -1.71239e-06 1.43571e-19)
(1.31453e-05 -6.89949e-07 2.09911e-19)
(2.35353e-06 9.48092e-06 8.48672e-20)
(1.80669e-05 4.86498e-06 -1.05314e-20)
(1.43178e-05 6.73028e-06 9.87609e-20)
(-0.00555726 0.0175858 -4.5158e-19)
(-0.00454034 0.0167624 -5.57717e-19)
(-0.00433123 0.018215 -1.26331e-19)
(-1.18176e-05 -5.50621e-05 -9.82341e-20)
(-1.23014e-05 -5.82211e-05 6.76353e-19)
(-1.29313e-05 -5.55105e-05 8.08984e-19)
(-0.00680053 0.0169219 -2.33344e-19)
(-0.0068341 0.0183972 -2.79881e-19)
(-0.0707261 -0.0573858 2.60993e-18)
(-0.0873376 -0.0537671 -6.58717e-20)
(-0.195005 -0.0389861 1.40555e-19)
(-0.195868 -0.0574166 -5.78309e-19)
(-0.18295 -0.0319076 -1.94682e-19)
(0.00959232 -0.0588919 -2.38231e-18)
(0.00649014 -0.0510661 -3.61374e-19)
(-0.000678666 -5.99404e-05 4.12386e-19)
(-0.000811475 -0.000100661 -7.89718e-19)
(0.0186149 0.145233 -4.3727e-20)
(0.0336476 0.124937 -4.81159e-20)
(0.0102123 0.126486 -6.46761e-18)
(-0.000913417 0.00136252 2.03168e-19)
(-0.00124274 0.00144018 -2.25249e-19)
(-0.000947683 0.00177868 -4.74348e-19)
(-1.48284e-05 -1.61622e-05 2.1742e-19)
(-1.55936e-05 -6.64041e-06 -2.87361e-20)
(-1.46023e-05 -1.90813e-05 2.03863e-19)
(-0.000587922 0.001256 -1.17713e-19)
(-0.000826266 0.00103807 6.59836e-19)
(0.0285133 0.0250485 7.07743e-19)
(0.0293952 0.0275562 8.33475e-19)
(0.0266074 0.0264201 3.36551e-19)
(-0.0001521 0.000186181 -5.54359e-20)
(-0.000170477 0.000212573 -4.51704e-19)
(-0.000203982 0.000190153 -1.16514e-19)
(-0.0161581 0.0204226 -2.67929e-19)
(-0.0140248 0.0215664 -9.17817e-19)
(-9.83414e-05 1.77186e-05 4.60656e-20)
(-0.000126017 2.47881e-05 1.8786e-19)
(-0.000606398 -0.000105714 5.27791e-19)
(-0.000582987 -5.42256e-06 8.32368e-19)
(-1.95561e-05 5.93439e-05 2.23833e-22)
(-1.79083e-05 6.55488e-05 -3.28385e-21)
(-1.28457e-05 5.9592e-05 1.7617e-21)
(-0.00239833 0.00150841 -5.38217e-19)
(-0.00264422 0.00142021 1.80244e-20)
(-0.00238808 0.00126457 2.05915e-19)
(6.26351e-05 -8.24577e-05 -2.42595e-20)
(6.0902e-05 -9.13457e-05 9.78041e-20)
(-0.0463255 -0.0169755 7.13258e-19)
(-0.040521 -0.0159517 9.36431e-19)
(0.00418705 0.161871 2.78318e-18)
(0.0282013 0.164683 -4.0326e-19)
(0.00135697 0.0104381 3.24238e-19)
(0.0011175 0.0111038 -5.3722e-19)
(0.00198021 0.0108718 2.52334e-21)
(8.15061e-05 8.83816e-06 -3.38084e-19)
(8.44991e-05 1.93961e-05 5.01847e-20)
(8.43961e-05 2.3286e-05 9.2242e-20)
(4.85213e-06 3.14775e-06 -4.08688e-20)
(4.12761e-06 1.62929e-06 1.26858e-19)
(3.46273e-05 -2.98878e-06 2.44436e-20)
(2.66243e-05 -8.249e-07 -1.84109e-19)
(3.24218e-05 -2.83979e-06 2.89621e-19)
(-0.00418586 -0.0133492 -3.51091e-19)
(-0.00547305 -0.0140082 1.18824e-18)
(-0.00486754 -0.0121198 -9.88637e-19)
(-0.00345318 0.00101237 -3.01451e-20)
(-0.00318072 0.00117302 9.0228e-20)
(0.0816312 -0.0675982 4.36189e-18)
(0.0765924 -0.0654196 1.55986e-18)
(0.0768685 -0.0705391 -5.39421e-18)
(-0.00655983 -0.00489514 -5.87669e-19)
(-0.00642706 -0.00414256 8.1018e-19)
(-0.0058179 -0.00466494 2.24426e-19)
(-8.697e-05 3.81971e-05 -8.88172e-20)
(-7.04783e-05 1.34463e-05 1.35058e-19)
(-0.0303865 -0.0615372 -7.94148e-19)
(-0.0372534 -0.0590641 -1.30865e-19)
(-0.00145439 0.000359369 1.18351e-19)
(-0.00157585 0.000260644 1.02112e-19)
(-0.00138868 0.000217053 -1.62247e-19)
(-0.00149251 0.00168287 -1.80639e-19)
(-0.00149669 0.00190701 -3.09769e-19)
(0.0384067 0.0430903 5.37585e-19)
(0.0431127 0.0382018 2.71202e-18)
(0.085821 -0.00033305 7.45194e-18)
(0.089899 0.00195633 5.29462e-18)
(-0.0674412 -0.0344764 -2.76608e-18)
(-0.00606151 0.0216877 2.0706e-19)
(-0.00721533 0.0230131 -7.91918e-19)
(-0.00520105 0.0235497 -4.91197e-19)
(-0.0236157 -0.0743492 9.73702e-19)
(-0.0242027 -0.0619191 1.03814e-18)
(0.0447066 -0.0782167 1.05108e-17)
(0.047279 -0.082308 5.79468e-18)
(0.0492537 -0.0790706 6.14171e-18)
(0.0014411 -0.000783008 1.17411e-19)
(8.97781e-05 2.13503e-05 -3.4958e-20)
(9.40356e-05 1.73688e-05 3.74514e-19)
(0.0407544 0.112827 -1.73381e-18)
(0.00280873 0.125967 -5.05379e-19)
(4.39873e-05 0.000206984 -2.52276e-19)
(2.07662e-05 0.000214423 6.00397e-19)
(2.40796e-05 0.000204557 -2.86773e-19)
(-1.50066e-05 -2.60353e-05 -6.23924e-20)
(-1.57691e-05 -1.31196e-05 1.09227e-20)
(-0.0114222 -0.0362983 3.62767e-19)
(-0.00473584 -0.00618145 3.53926e-19)
(0.00015664 6.92416e-05 -2.03815e-20)
(0.00015146 6.48979e-05 1.74676e-21)
(0.000153024 7.87188e-05 4.64568e-20)
(0.0347346 0.00910915 -2.00643e-18)
(0.0362665 0.00796949 1.92795e-18)
(0.0361661 0.010309 1.51611e-18)
(-0.0434031 0.0501265 -1.26989e-19)
(-0.0398458 0.0482921 1.94057e-19)
(-0.0405669 0.0535842 -2.23978e-19)
(-1.53438e-05 -5.35188e-05 9.72697e-20)
(-1.29632e-05 -5.58454e-05 3.44008e-19)
(-1.4883e-05 -5.09514e-05 -3.25777e-20)
(0.0595643 0.0453858 6.59564e-19)
(0.0576136 0.0422551 6.85593e-19)
(0.035191 0.0606632 -8.29647e-20)
(0.0430568 0.0563522 -8.14752e-19)
(0.0447073 0.066643 5.99764e-19)
(8.9673e-05 4.15089e-06 2.09245e-20)
(8.70671e-05 7.86351e-06 4.55475e-21)
(8.88053e-05 1.37381e-06 -8.1626e-21)
(-0.179946 -0.0107521 -5.29814e-20)
(-0.198405 -0.0404526 -1.69282e-18)
(0.00141678 0.00346383 -1.71251e-18)
(0.00151094 0.00323217 -3.54534e-20)
(0.00165706 0.00350134 -7.5332e-19)
(-0.000658206 -0.0215374 -3.01415e-19)
(0.00389425 -0.0197832 5.98157e-19)
(0.00188058 -0.0249852 -3.13148e-19)
(-8.34091e-06 0.000141633 -3.10676e-19)
(-2.19485e-06 0.000137824 1.68529e-19)
(-7.15869e-06 0.000122971 9.64417e-20)
(-0.0931202 0.00855353 -8.7542e-19)
(-0.0679024 -0.0282623 1.53257e-18)
(-0.0471433 0.046042 -2.73722e-18)
(-0.0483978 0.0520782 2.60174e-18)
(0.0001465 -3.55121e-06 -3.65225e-20)
(0.000150001 -5.36498e-06 2.08209e-19)
(0.000150541 -2.54674e-06 7.10141e-20)
(-0.118484 -0.146646 2.1903e-18)
(-0.115116 -0.150187 3.78152e-18)
(-0.0726934 -0.136763 -1.58623e-20)
(2.09968e-05 0.000190016 -9.05812e-21)
(2.00959e-05 0.000177116 -2.47191e-20)
(9.36399e-06 0.000185968 -3.30022e-20)
(-0.00327029 -0.0148034 -1.70403e-18)
(-0.00295433 -0.012784 3.32217e-19)
(0.0404937 -0.0129616 -9.4823e-20)
(0.0388273 -0.0205259 -3.36124e-19)
(0.0365128 -0.0292907 -3.82429e-19)
(9.2036e-05 5.04643e-05 1.34126e-19)
(8.5813e-05 6.35972e-05 2.78419e-20)
(-0.0012923 0.00167856 1.67872e-19)
(-0.0014525 0.00151173 -6.30404e-19)
(0.00164266 -0.000613729 1.50835e-19)
(0.00136882 -0.000675529 3.94158e-19)
(0.0013887 -0.000435096 -8.11591e-20)
(0.00509863 -0.00657096 -1.21164e-19)
(0.00409258 -0.00783446 5.14272e-19)
(0.00385386 -0.00631509 -3.73694e-19)
(7.96579e-05 7.24593e-05 4.05695e-21)
(7.95587e-05 6.78893e-05 -3.15821e-19)
(9.0725e-06 -2.17623e-05 1.70017e-19)
(1.08861e-05 -2.3075e-05 2.79765e-19)
(7.25114e-06 -2.49164e-05 -3.23711e-19)
(8.60212e-05 2.56791e-05 -1.8913e-19)
(8.63191e-05 1.81901e-05 -2.66061e-19)
(1.54178e-06 -2.30458e-06 3.35959e-19)
(1.07699e-06 -3.40732e-06 -3.47754e-19)
(-5.35707e-06 0.000152666 -2.08499e-19)
(-7.92105e-06 0.000144801 -3.76289e-19)
(6.09986e-06 -1.94725e-05 1.19082e-19)
(1.10103e-05 -1.73226e-05 6.18422e-20)
(0.00426203 -0.00255578 3.85345e-19)
(0.00477894 -0.00241252 6.02884e-19)
(0.0046677 -0.00300568 3.22661e-19)
(0.000160068 5.84501e-05 -2.94245e-22)
(0.000161284 7.29149e-05 1.99987e-21)
(7.98871e-05 -4.95235e-06 9.42446e-20)
(8.02346e-05 -2.85597e-06 -5.04093e-19)
(0.00411729 -0.0121765 2.66741e-19)
(0.0026072 -0.0132573 -8.1706e-19)
(0.0019967 -0.0112121 -2.05564e-19)
(0.00646668 -0.00166654 -1.82802e-19)
(0.00706715 -0.00125454 -1.45744e-18)
(0.00715496 -0.00210139 -2.38021e-19)
(0.0282588 0.0183505 2.29077e-20)
(0.0330714 0.0204626 -3.94771e-19)
(0.0331681 0.0142622 -7.73202e-20)
(-0.121799 -0.143948 1.58925e-17)
(-0.137667 -0.1514 -5.84273e-18)
(0.0791105 0.100339 -2.51857e-18)
(0.0787581 0.117178 -3.72957e-18)
(0.063548 0.106853 3.158e-19)
(-0.112897 -0.296142 -2.0139e-18)
(-0.0890676 -0.218889 -1.63839e-17)
(-0.0782456 -0.245063 -7.56093e-18)
(0.00129148 0.00375655 5.33135e-19)
(0.00115602 0.00346442 -7.90709e-19)
(4.66173e-05 1.82992e-06 1.26197e-19)
(4.80631e-05 8.74377e-07 -1.73539e-19)
(3.40048e-05 5.65363e-07 -2.70005e-19)
(0.0330589 0.00784135 -2.22187e-18)
(0.0329403 0.0099963 -5.21998e-19)
(3.44112e-05 -4.73796e-06 2.63948e-19)
(3.10771e-05 -5.44062e-06 -4.31352e-19)
(3.27075e-05 -1.47212e-06 -1.85274e-19)
(0.0582051 -0.0806457 -2.81402e-19)
(0.0682626 -0.123747 4.00812e-18)
(2.2649e-06 -1.22313e-06 -1.2285e-19)
(3.13626e-06 -1.19171e-06 -1.35576e-20)
(-1.03888e-06 -3.28662e-07 1.93285e-19)
(0.000146479 -3.222e-06 -8.04444e-21)
(0.000147005 -3.1447e-06 -9.08259e-20)
(3.63034e-05 -2.6501e-06 -5.41759e-20)
(4.32707e-05 -5.31771e-06 3.84738e-19)
(-2.01608e-05 0.000108376 -5.03247e-21)
(-2.69444e-05 0.000109217 -6.66269e-21)
(-2.01331e-05 0.000114826 1.14171e-20)
(0.0012134 0.000256616 9.76392e-19)
(0.00130846 0.000250499 1.5912e-18)
(0.00125859 0.000329308 -1.60828e-18)
(-0.00857392 0.00232214 1.06221e-19)
(-0.00800106 0.0028745 -3.28226e-19)
(-0.00888033 0.00305443 -2.30405e-19)
(2.8975e-07 1.77441e-06 1.10806e-19)
(-9.99527e-07 9.55673e-07 -9.53013e-20)
(1.3277e-05 4.72964e-07 1.09724e-19)
(0.0241286 0.0157388 2.0564e-19)
(0.0235707 0.0215366 -4.1475e-19)
(-9.45921e-05 0.000264727 1.48361e-19)
(-9.20956e-05 0.000242845 5.20808e-19)
(-5.54453e-05 0.00024903 2.0219e-19)
(8.89913e-05 5.59843e-05 -5.36942e-20)
(9.0774e-05 5.06963e-05 -2.31056e-19)
(9.28318e-05 4.45695e-05 1.93091e-19)
(0.0227166 0.00684435 8.2724e-20)
(0.0186885 0.00622689 -6.52463e-20)
(0.0209267 0.00407238 -8.80011e-20)
(-0.000526238 -0.000151381 -9.79546e-20)
(-0.000613445 -0.000210892 -1.6628e-19)
(1.22051e-05 -2.68239e-06 6.41757e-20)
(1.51372e-05 -2.81607e-07 8.91253e-20)
(1.54375e-05 -4.18977e-06 -4.82671e-19)
(-0.00790623 0.0161079 -4.51822e-20)
(-0.00923053 0.0167319 2.87067e-19)
(-0.00902185 0.0152461 6.31035e-19)
(0.000160972 -5.26958e-05 7.74066e-20)
(0.000157361 -5.8812e-05 -2.38102e-19)
(0.000159592 -4.79095e-05 1.78336e-19)
(0.00117869 -0.00126642 3.82883e-19)
(0.000853183 -0.00121278 1.59376e-19)
(0.0401888 -0.0775422 -8.86782e-18)
(0.0425885 -0.0745771 -1.73985e-17)
(0.0281927 0.0230003 1.24792e-18)
(0.0303786 0.0240363 -9.26251e-20)
(1.84238e-06 -2.46507e-05 2.61401e-19)
(4.91081e-06 -1.96443e-05 -2.71899e-20)
(1.68905e-06 -3.6684e-05 -3.2903e-19)
(5.92559e-05 -7.81017e-05 -1.9414e-19)
(6.31925e-05 -6.53687e-05 1.99508e-19)
(5.63577e-05 -7.02922e-05 2.23719e-19)
(0.000118899 -3.44708e-05 -6.17736e-20)
(0.000117247 -2.78774e-05 -2.28387e-19)
(0.000110722 -3.63678e-05 3.37293e-20)
(0.0895515 -0.0633294 -6.84172e-18)
(0.085575 -0.0583278 -1.03717e-18)
(0.0927602 -0.0581703 6.27227e-18)
(3.31232e-05 6.8273e-07 -1.32009e-19)
(3.36574e-05 -2.35401e-06 -6.45504e-20)
(0.123978 0.0960984 -8.53468e-19)
(0.104557 0.0926536 9.88537e-20)
(0.111589 0.115809 3.17242e-18)
(7.99036e-06 -4.40197e-06 -7.33453e-19)
(7.57781e-06 8.19487e-06 -4.07086e-19)
(-0.0811795 0.0306098 1.8272e-19)
(-0.0768972 0.03246 -2.57499e-22)
(-0.00043469 -0.000166624 -1.03084e-18)
(-0.000454449 -8.49392e-05 4.16327e-19)
(0.0031173 0.00178946 3.98582e-19)
(0.00338187 0.0015006 1.78444e-19)
(0.00299789 0.00138559 5.75557e-19)
(0.00549957 -0.00772644 4.03e-19)
(0.00535168 -0.0068824 -6.597e-19)
(7.93486e-06 4.30271e-06 1.13389e-19)
(8.61275e-06 4.78194e-06 4.67514e-19)
(5.70343e-06 5.9233e-06 -1.33328e-19)
(0.0493217 0.0980131 -6.41128e-19)
(0.0822679 0.0945318 -6.52852e-19)
(0.000122408 0.000170369 2.1371e-19)
(0.000136788 0.000156532 2.34506e-19)
(0.00013083 0.000164064 2.71691e-20)
(-0.133951 -0.380607 1.66438e-17)
(-0.144625 -0.342605 1.30649e-17)
(8.75449e-05 6.93722e-05 -2.44789e-19)
(8.9881e-05 6.53018e-05 2.469e-19)
(3.45275e-05 -0.000100988 3.9058e-20)
(4.87092e-05 -8.01794e-05 -1.14443e-19)
(5.72946e-05 -7.94107e-05 -2.86921e-19)
(0.000892398 -0.00117595 1.12207e-19)
(0.000634525 -0.00110595 2.78774e-19)
(0.000798314 -0.000939242 -4.53808e-21)
(0.000139222 6.6241e-05 1.09024e-19)
(0.00014717 8.44928e-05 6.19788e-20)
(0.000158366 6.03341e-05 -4.98964e-20)
(0.0478667 -0.0253574 -5.93489e-20)
(0.0576092 -0.0277246 -6.79651e-20)
(0.0465786 -0.0317221 8.99451e-20)
(0.00280545 0.000259944 1.91498e-19)
(0.00308974 0.000720584 6.40511e-19)
(0.00335111 0.000182875 -9.49759e-20)
(0.00252047 -4.54818e-05 2.77479e-19)
(0.0023047 0.000350854 -1.46378e-19)
(3.43175e-05 0.000190853 1.02405e-20)
(2.44041e-05 0.00020345 2.01378e-20)
(0.0600338 -0.0050854 -4.46199e-18)
(0.0383566 -0.0292942 -4.78481e-19)
(-0.00901895 0.00148439 4.01313e-19)
(-0.00825492 0.0015383 6.04765e-19)
(0.0033764 0.00158316 2.31569e-19)
(0.00312625 0.00149343 -3.13261e-18)
(0.00318911 0.0017612 1.74165e-18)
(0.000105032 0.000180411 1.2173e-19)
(9.00789e-05 0.000188221 4.63826e-19)
(9.40271e-05 0.000186736 -1.15041e-19)
(5.47048e-06 0.000181747 -6.45038e-20)
(5.57131e-07 0.000179961 -9.45117e-20)
(4.02473e-06 0.000188324 5.90659e-20)
(0.00168269 0.00971494 -1.70566e-19)
(0.000835394 0.00992189 4.09534e-19)
(6.59661e-05 -8.62642e-05 -1.82834e-19)
(7.04509e-05 -7.56415e-05 4.41178e-20)
(7.06559e-05 -8.09505e-05 -2.95048e-19)
(-0.00248156 0.0160609 3.47893e-20)
(-0.0035915 0.0157621 -4.54254e-19)
(-0.00276877 0.0148203 1.24751e-20)
(-0.00157486 -0.00678966 2.23478e-19)
(-0.000573073 -0.00778165 1.17712e-19)
(-0.000344381 -0.00628595 3.78784e-19)
(0.0130261 0.0175587 -9.12129e-19)
(0.0156947 0.0197585 -1.25067e-18)
(0.0114099 0.0200974 -6.43707e-19)
(0.00227728 0.00338476 5.87059e-19)
(0.00233087 0.00271022 4.47184e-20)
(0.0030028 0.00330939 2.32278e-19)
(6.12855e-05 -9.2889e-05 1.45519e-20)
(5.85729e-05 -9.70718e-05 3.68841e-20)
(6.29745e-05 -9.47027e-05 2.94024e-19)
(0.0285294 0.065166 -5.29261e-19)
(0.0290203 0.0551991 2.5494e-19)
(-0.028788 0.105106 -3.17516e-19)
(-0.035439 0.113406 -4.65034e-18)
(-0.0394785 0.10518 -1.88545e-18)
(-0.0158024 -0.00639324 1.01413e-18)
(-0.0163257 -0.00796496 3.71225e-19)
(-0.0144599 -0.00749784 3.39196e-19)
(0.00083135 0.000690694 -2.10256e-19)
(0.000665476 0.000554801 -2.72113e-19)
(0.000637685 0.000728893 -5.14434e-20)
(-0.00239008 0.00178908 -4.02492e-19)
(0.0356348 0.0135967 1.73119e-20)
(0.0314214 0.0189445 -2.53438e-19)
(0.0367546 0.0209635 8.55395e-21)
(5.92914e-05 -9.03912e-05 1.43703e-20)
(0.00537596 -0.0111077 1.14679e-19)
(0.0073207 -0.0132318 4.05378e-19)
(0.0108701 0.0156221 -1.74123e-19)
(0.0143078 0.0148672 7.68673e-19)
(0.000651838 6.3962e-05 -1.15517e-18)
(0.000651147 1.8487e-05 -2.03554e-18)
(0.000612377 4.52185e-05 -4.13146e-19)
(0.0389317 -0.0809929 -1.33879e-17)
(0.00313698 -0.00022486 -9.54377e-19)
(0.0032293 -0.000362795 1.27231e-18)
(0.00304312 -0.000352996 -8.36766e-19)
(0.00222518 -0.000301167 -4.16125e-19)
(0.00262081 -0.000503488 4.74792e-19)
(8.22699e-07 -3.84563e-06 2.46942e-19)
(8.56284e-07 -1.42918e-05 2.75814e-20)
(4.57314e-06 4.53401e-06 6.3717e-20)
(0.00113607 0.000265357 -1.87203e-19)
(0.00117956 0.000194318 7.80105e-19)
(0.00191675 -0.000467593 -6.50266e-19)
(0.00184541 -0.000144258 -6.73582e-19)
(-0.0152351 -0.00501453 6.3754e-19)
(-0.014535 -0.00369928 -1.85857e-18)
(-0.0134763 -0.00475334 -8.57807e-19)
(0.000118759 0.000173939 -1.06552e-19)
(0.000164978 0.000106892 1.77417e-19)
(0.00016791 9.80561e-05 2.4702e-19)
(0.000163239 0.000105398 5.14232e-20)
(4.05334e-05 0.000155006 -2.87055e-20)
(3.58248e-05 0.000161645 -9.65755e-20)
(3.61515e-05 0.000156052 4.19058e-20)
(0.0397516 -0.0239182 2.35311e-19)
(0.048712 -0.0200706 -4.66419e-19)
(0.0640252 -0.0353975 -9.38669e-19)
(0.0658499 -0.0465828 6.86518e-19)
(0.0538792 -0.0464828 -8.45099e-20)
(-7.40003e-05 -0.000160836 2.15688e-19)
(-7.87657e-05 -0.00022025 -2.52388e-19)
(-5.7474e-06 -0.000197697 1.96506e-19)
(0.000769504 0.00179774 3.33956e-19)
(0.001152 0.0018095 1.82667e-19)
(0.067576 -0.0229572 1.0277e-18)
(0.0655165 -0.0151589 2.47385e-18)
(0.0674681 -0.0174424 -1.27969e-19)
(0.0639877 -0.0178391 -1.65803e-19)
(-0.00301098 -0.00720384 7.75806e-19)
(-0.00214172 -0.00581988 -1.15329e-18)
(-2.0665e-05 0.00010082 2.40816e-20)
(-1.39643e-05 0.000104566 -4.83672e-21)
(0.00393021 -0.0105215 -2.26219e-19)
(0.00618286 -0.0111524 -2.64506e-20)
(0.0049386 -0.0086671 -8.46216e-20)
(0.00324708 -0.000145028 -2.20086e-18)
(0.00310247 -0.000108281 1.5143e-18)
(0.000126329 1.73896e-05 1.38526e-19)
(0.000127238 9.86285e-06 -1.02736e-19)
(0.000118076 1.3227e-05 -1.03514e-19)
(0.00150719 0.00343163 3.65034e-20)
(0.00196614 0.00416952 -2.64308e-21)
(-5.6561e-06 -5.38719e-05 -1.11989e-19)
(-7.42821e-06 -5.48751e-05 -2.63714e-19)
(-5.94665e-06 -5.31833e-05 2.57803e-20)
(0.0405086 -0.0076605 -2.07088e-19)
(0.0431055 0.000740751 4.07561e-19)
(-0.0210442 0.00687586 -4.00826e-19)
(-0.0237295 0.00435818 3.46255e-20)
(-0.0231582 0.00914374 -4.14395e-19)
(0.026657 0.0216849 2.3956e-19)
(0.0258939 0.0200153 -1.94199e-18)
(0.0249277 0.0220614 1.64761e-18)
(0.00638428 -0.000924928 -3.59012e-18)
(0.0066816 -0.000897098 -3.12963e-19)
(0.00653418 -0.00120539 -2.98674e-19)
(0.00558635 -0.00866362 4.58615e-19)
(0.00651159 -0.00780405 5.6544e-19)
(0.0186675 -0.00769849 4.20031e-19)
(0.018362 -0.010743 6.94873e-20)
(0.0159273 -0.00884539 2.04126e-19)
(-0.00471353 -0.0157339 7.20714e-19)
(-0.00265055 -0.0184244 -4.38514e-20)
(-0.00164989 -0.0149239 1.84388e-18)
(0.0300546 0.0293696 -1.00551e-19)
(0.0283681 0.0311679 -2.84473e-19)
(0.0311961 0.0320593 2.71937e-20)
(-3.72299e-06 -5.08795e-05 -5.82198e-20)
(-5.47132e-06 -5.33787e-05 -4.15576e-19)
(0.000170223 0.000108048 -4.23129e-20)
(0.000451508 -0.00168438 -1.84839e-19)
(0.000822804 -0.00178891 -2.21258e-19)
(0.000666616 -0.0014516 -5.88035e-19)
(8.75934e-05 4.39502e-05 -6.75098e-20)
(8.6654e-05 3.0804e-05 -6.67189e-20)
(8.95046e-05 4.04387e-05 -1.7252e-19)
(0.00279934 0.0020472 -5.03748e-19)
(0.00318005 0.00221846 -9.50501e-19)
(0.00356103 0.00160564 1.06758e-18)
(0.00346807 0.00143169 -1.75821e-18)
(6.77654e-05 8.77156e-05 6.59943e-21)
(7.25084e-05 8.25672e-05 4.27212e-20)
(7.36884e-05 7.76809e-05 -2.28942e-19)
(0.000104487 0.000119262 7.35158e-20)
(0.000104804 0.000136493 -1.77853e-19)
(8.92028e-05 0.000125173 -1.63668e-20)
(0.0094749 0.0117181 -2.98372e-19)
(0.00970282 0.010225 -1.40982e-18)
(0.00794507 0.0111291 -8.99976e-21)
(-1.74891e-05 -4.87508e-05 -5.72054e-19)
(-1.60364e-05 -5.49864e-05 -1.24387e-19)
(-0.0143688 0.0460357 -1.84691e-18)
(-0.0127307 0.0487716 -4.61477e-19)
(-0.0162436 0.0487414 2.53876e-18)
(0.0620532 0.0179445 4.41222e-18)
(0.0590803 0.00705569 -4.20123e-20)
(0.00966295 0.00863574 9.90712e-19)
(0.00938699 0.00727752 1.50335e-18)
(0.00809593 0.00835792 7.94553e-19)
(0.000117106 7.35851e-05 8.21564e-21)
(0.000130466 4.52944e-05 -3.21217e-20)
(-0.00665729 -0.00665967 1.28032e-18)
(-0.00663564 -0.00569361 -4.00434e-20)
(-0.00584269 -0.00633877 4.80132e-19)
(8.62415e-05 4.6458e-05 1.46944e-19)
(8.81091e-05 5.48641e-05 -9.53709e-21)
(-0.00205068 0.0171314 1.79935e-20)
(-0.00154626 0.0184696 4.951e-21)
(-0.00290485 0.0184428 6.96859e-20)
(0.000172328 0.000114399 -5.51589e-19)
(0.00016612 0.000125406 -7.58905e-19)
(0.000177931 0.000107282 2.83492e-19)
(-0.00989261 0.00117558 3.85487e-19)
(-0.010975 0.000930694 2.41292e-19)
(-0.0105831 0.00199687 -2.80955e-19)
(0.000138718 -1.37089e-05 -2.28902e-19)
(0.000133774 -1.09307e-05 -3.48218e-19)
(-0.00923823 0.000627849 1.75595e-19)
(0.0185387 -0.034978 3.30331e-21)
(0.0143998 -0.0637634 -1.3514e-18)
(1.17827e-05 -0.000116968 2.22502e-19)
(1.18648e-05 -0.000114843 -4.04568e-19)
(0.0167771 0.00414563 1.02121e-18)
(0.0162963 0.00339831 -1.35597e-18)
(0.0173385 0.00328058 1.42057e-19)
(-0.00112402 0.000621582 3.28119e-21)
(-0.0012717 0.000662498 5.64051e-20)
(-0.00121309 0.000531966 -6.98332e-19)
(-0.000909411 0.00340426 -3.91765e-19)
(-0.0014944 0.00374503 -2.36829e-19)
(-0.00082847 0.00421253 -3.39415e-19)
(-0.00840619 -0.0165746 -1.75683e-20)
(-0.00623912 -0.0131563 -5.93717e-19)
(-9.13391e-06 1.17156e-05 3.17262e-19)
(-1.28019e-05 1.11735e-05 1.57399e-19)
(5.62351e-05 -8.76608e-05 -6.29539e-19)
(6.01318e-05 -8.33298e-05 -1.05586e-19)
(-0.0125478 0.043461 8.37907e-19)
(-0.0159006 0.0432721 -9.6349e-19)
(0.000109987 9.73325e-05 1.42779e-19)
(0.000120222 0.000112325 -2.22623e-20)
(-0.00568969 -0.0237449 2.64783e-20)
(0.00466683 0.00299385 -1.04605e-20)
(0.00451363 0.00262415 5.05387e-19)
(0.0049651 0.00265785 -2.58479e-18)
(0.0119802 0.458573 7.24562e-18)
(0.00248952 0.0182449 -2.88701e-19)
(0.00182774 0.0194926 -3.6555e-20)
(0.00117116 0.0181431 -5.25067e-20)
(0.0286866 0.0207467 -2.51119e-18)
(0.00417143 0.000438086 2.11044e-19)
(0.00442359 0.000891136 1.65563e-19)
(0.00390961 0.000816556 -3.68765e-19)
(0.0091356 0.013491 2.12845e-20)
(0.011142 0.0122865 -4.33813e-19)
(-0.000607161 0.000240389 -5.87879e-20)
(-0.000531972 0.000203596 4.02293e-19)
(-0.000612803 0.000171167 1.95686e-19)
(0.0025295 -0.000219745 -5.83356e-19)
(0.00251469 -9.16265e-05 -9.26233e-20)
(0.00239902 -0.000193557 5.48545e-18)
(0.00607182 -0.000989708 1.4708e-18)
(0.00621862 -0.000690635 2.03829e-18)
(0.0174776 0.00462845 3.33177e-19)
(0.0165424 0.00496894 -7.9503e-19)
(0.0199552 0.0172941 -2.5842e-19)
(0.023799 0.0142319 5.51384e-20)
(0.0202696 0.0116028 7.72756e-21)