/*--------------------------------*- C++ -*----------------------------------*\
| =========                 |                                                 |
| \\      /  F ield         | OpenFOAM: The Open Source CFD Toolbox           |
|  \\    /   O peration     | Version:  v2012                                 |
|   \\  /    A nd           | Website:  www.openfoam.com                      |
|    \\/     M anipulation  |                                                 |
\*---------------------------------------------------------------------------*/
FoamFile
{
    version     2.0;
    format      ascii;
    class       volScalarField;
    location    "900";
    object      omega_0;
}
// * * * * * * * * * * * * * * * * * * * * * * * * * * * * * * * * * * * * * //

dimensions      [0 0 -1 0 0 0 0];


internalField   nonuniform List<scalar> 
18355
(
0.619889
0.0204297
0.192654
0.0210078
0.0397796
0.749051
0.0215944
0.0451339
0.0220156
0.102713
0.0253743
0.11379
0.120642
0.703081
0.0210826
0.0201997
0.0210041
0.0242644
0.14707
0.0226115
1.77669
0.0218714
0.0204595
0.659458
0.0204703
0.0220599
0.0216185
0.0210129
0.0222053
0.0260997
0.90125
0.0400503
0.0203456
0.0200661
0.0210628
0.0220243
0.0268122
0.022086
0.0264958
0.0218927
0.0221496
0.0258569
0.0200841
0.0204159
0.0204265
0.256292
0.020985
0.0209746
0.837555
0.0212109
0.0208287
0.701341
0.0212617
0.124885
0.0212805
0.0226256
0.0211086
0.904548
0.0221122
3.87183
0.0200759
0.0851324
0.120509
0.0214018
0.0528719
0.0206244
0.0233318
0.0268355
0.0200242
0.0453882
0.0209222
0.0212804
0.0334838
0.0253633
0.496057
0.0200428
1.03386
0.0200523
0.0208953
0.505719
0.0232884
0.486774
0.0200344
0.0240738
0.0450154
0.0217588
0.0222654
0.036354
0.0208763
0.0363291
0.304953
1.84824
0.426215
0.0212042
0.611302
0.0216548
0.0208608
0.0213735
0.0745033
0.0218102
0.0424225
0.0208652
0.0211599
0.0195571
0.0234648
0.0202112
0.0518611
0.628083
0.0310071
0.0201515
0.0207286
0.0214172
0.0292435
0.0238764
0.288616
0.0259738
0.0208442
0.512272
0.0226818
0.0231788
0.0644633
0.194075
0.254999
0.0423198
0.520358
0.29317
0.0216251
0.0210371
0.563799
0.0216441
0.0208651
0.671676
0.0212669
0.0803758
0.0929161
0.0208659
0.150459
0.346664
0.0211916
1.84251
0.0246789
0.0744845
0.0209504
0.926413
0.0940815
0.0216455
3.67504
0.0195975
0.029107
0.262471
0.0210062
0.0231263
0.0213993
0.0264119
0.0200945
0.0205826
0.0210506
0.0217498
0.0209566
0.0206819
0.024586
0.0212733
0.0201599
0.0317209
0.0257191
0.0794216
3.91127
1.94604
1.41223
0.0246536
0.021279
0.0747357
0.0216188
0.744677
0.0211502
0.0221101
0.0213377
0.0195205
0.02257
0.0267258
0.0218045
0.0595226
0.0217652
0.0210358
0.0549454
0.0211461
0.0218093
0.0350063
0.0213457
0.0216959
0.259295
0.0748987
0.0204597
0.0200615
0.021408
0.291498
0.0205388
1.99651
0.0204392
0.579481
0.0211144
0.0233612
0.0268253
0.0217186
1.85559
0.0215677
1.48717
0.0210308
0.0202958
0.0212813
0.0215517
0.0922089
0.0223226
0.0219156
0.0196075
0.628698
0.0267432
0.0249147
0.0215836
0.0209867
0.0299591
0.0199776
0.0345555
0.0249076
0.0378301
0.02342
0.0200002
0.390302
0.202452
0.030568
0.0214074
0.0234858
0.121216
0.0199903
0.0311861
0.0352602
0.0219549
0.274263
0.0245485
0.0219348
0.0204558
0.0224763
0.021644
0.029526
0.0215633
0.0212864
0.0209778
0.0756802
0.218283
0.0210017
0.0217416
0.162409
0.149189
0.0257013
0.0195261
0.0435675
0.0245193
0.0217375
0.0234164
0.0208098
0.238605
0.243779
0.068229
0.0292258
0.0272975
0.0335491
0.0401614
0.081686
0.0208021
0.0212875
0.0218387
0.0201487
0.0233563
0.0250751
0.0209739
0.021554
0.0308942
0.0208541
0.0748617
0.387533
0.029088
0.0215786
0.0265394
0.020138
0.037318
0.0215193
0.0273833
0.0218693
0.026907
0.2709
0.0203232
0.0447237
0.0225773
0.0233286
0.0454297
0.0213131
0.020046
0.0699173
0.0215518
0.0857471
0.0269291
1.17152
0.0385776
0.0695068
0.0237649
0.0322335
0.0211535
0.0237642
0.0287519
0.0445601
0.0743546
0.253136
0.0210633
0.0236991
0.108219
0.0269734
0.0210592
0.0209666
0.0209907
0.0483743
0.25306
0.341123
0.0577139
0.0304496
0.0244511
0.134068
0.0195973
0.0215467
0.0243917
0.0213601
0.0306851
0.0209383
0.280861
0.0202319
0.532782
0.0213496
0.0218421
0.0241384
0.133011
1.98164
0.0296505
0.0472466
0.0218919
0.0208856
0.0213513
0.0241918
0.11612
0.0209084
0.0214708
0.131687
0.0218251
0.02091
0.150321
0.0237806
0.0209844
0.0212943
0.0280354
0.0222496
0.0278807
0.0200539
0.0214617
0.021775
3.58162
0.111999
0.0200316
0.0209365
0.0307312
0.0209984
0.0215138
0.12861
0.132786
0.0329057
0.0213351
0.0219993
0.121818
0.0219088
0.0490897
0.0238214
0.0202664
0.0292836
0.0348456
0.0217001
0.0213423
0.0243032
0.0214647
0.0232346
0.0214029
0.0547305
0.0216535
0.022965
0.0208697
0.0209913
0.0231803
0.0220842
0.0661297
2.74544
0.150929
0.0227018
0.148954
0.0277927
0.0213681
0.0208917
0.0418482
0.0213451
0.0336224
0.0214715
0.0272571
0.170647
0.0476296
1.97631
0.0721045
0.0195652
0.550929
0.0218112
0.0209636
1.74563
0.0213144
0.0270782
0.0202277
0.0592926
0.0213093
0.0727197
0.441402
0.0631853
0.0212794
0.0204588
0.0660079
0.0226863
0.0210317
0.0708711
0.150619
0.0209581
0.0425684
0.066641
0.0204542
0.0221342
0.0285783
0.203126
0.0381836
0.0218261
0.0211957
0.0369907
0.021288
0.020193
0.0211739
0.0419241
2.46216
0.0202504
0.0221537
0.0214912
0.140317
0.0354704
0.0200437
0.0272104
0.0352141
0.0214765
0.305415
0.0850786
0.0217987
0.0214482
0.0367992
0.144358
0.925243
0.0202266
2.02832
0.0212355
0.0202417
0.0410813
0.0227913
0.0576137
0.0336447
0.023077
0.0259711
0.0218812
0.147464
0.0228188
0.0280255
0.0218652
0.0202028
0.0217163
0.0202173
0.0846924
1.839
0.0581977
0.0247478
0.0216155
0.0218643
0.0215211
0.0237888
0.0215506
0.0200227
0.0213851
0.0376742
0.0204628
0.0215459
2.09182
1.9704
0.11233
0.0216234
0.0220242
0.0287375
0.0218428
0.241383
0.210617
0.0234186
0.0241282
0.0260265
0.0221771
0.0233838
4.68705
0.0300383
0.0218357
0.352498
0.0215801
1.99662
0.530549
0.0249808
0.0220805
4.69231
0.0209801
0.0691381
0.0404371
0.364183
0.0228193
0.0216948
0.0214619
0.415789
0.826598
0.355825
0.442035
0.0235354
0.0214514
0.0240798
0.0212944
0.0232136
1.84106
0.437709
2.1366
0.110025
0.0270619
0.0372643
0.0303377
0.0209935
0.0211497
0.0281118
0.0241458
0.0215348
0.0212923
0.535119
0.0208462
0.109211
0.0245528
0.0814974
0.129205
0.0211561
0.0238703
1.41793
0.0213798
2.53695
0.0212712
1.23343
0.0300211
0.0219437
0.0301773
0.0813183
0.0732952
0.0219102
0.0200127
0.0352102
0.0252009
0.0818118
0.0213732
0.08521
0.0208381
0.204556
0.0211526
0.0211546
0.184948
0.0249529
0.0337302
0.0210426
0.0244034
0.0229047
0.192153
0.347989
0.0240386
0.0321049
0.021146
0.0264051
0.0217325
0.0238686
4.23467
0.0204192
0.134036
0.0215502
0.0212508
0.0239086
0.213141
0.0226094
0.0773512
0.0220496
0.0356597
0.443864
0.0196039
0.0209854
1.66065
0.0351141
2.10148
0.0349035
0.0217324
0.0212983
0.0209639
0.0253561
0.021998
0.0201043
0.135294
0.691154
0.0211399
0.169928
0.174086
0.0246314
0.202477
0.0202085
0.281005
0.369912
0.0196641
0.444842
0.0394452
0.473061
0.139898
0.0211027
0.0209615
0.0215993
0.0707061
0.047554
0.0213
0.0219409
0.132171
0.0217656
0.0409904
0.0210544
0.0373582
0.61257
0.404636
0.0890935
0.392029
0.0367149
0.757178
0.0241341
0.0209173
0.0254477
0.0894763
0.0262988
0.0449071
0.0212896
0.17688
0.0215083
0.0217757
0.330296
0.0217241
0.0257752
0.0326902
0.0691326
0.0214737
0.0212882
0.023802
0.0247248
0.0199684
0.0216824
0.0315246
0.133004
0.0229373
0.0212974
0.0397334
0.444208
0.0212325
0.377071
0.305555
0.0214681
1.90365
0.0200029
0.192523
0.0213453
0.0202685
0.185397
0.0229827
0.22876
0.0228326
0.0212902
1.88629
0.0213419
0.0201322
0.0215203
0.0209262
0.026159
0.0345672
1.92912
0.0220898
2.52177
0.022884
0.383301
0.278413
0.022157
0.0213442
0.024408
0.0201268
0.10756
0.0211927
0.0201098
0.0201439
0.0212885
0.0213692
0.221475
0.0251127
0.0471411
0.022648
0.0237047
0.0241651
0.0240044
0.281739
0.0204657
0.0841831
0.0422896
0.0200138
0.36336
0.595748
0.0207781
0.360489
0.0211614
0.148206
0.0355763
0.0196478
0.0355263
0.0250755
0.369172
0.0208504
0.0241509
0.427533
0.0832762
0.0540379
0.0213652
0.188401
0.0745892
0.226977
0.0213723
0.0227445
0.0210411
0.0214804
0.0210568
0.0209725
0.0204134
0.375644
0.0256451
0.0208922
0.0200581
0.0205443
0.0217895
0.0770729
0.0736879
0.0203156
0.0247229
0.0215483
0.0215808
0.0215093
0.0209451
0.0337589
0.0200551
0.0208862
0.0217875
0.0215979
0.02312
0.0215646
0.258315
1.69479
0.0241151
0.0208689
0.138475
0.0201001
0.0200626
0.0215514
0.0481249
0.0245849
0.0213738
0.0201668
0.0204492
0.025735
0.0200162
0.0268886
0.0211833
0.0217316
0.021057
0.0226723
0.368426
0.0209096
0.0218274
0.0211818
0.159855
0.354354
0.0267763
0.0219974
0.0280441
0.0248757
0.0327741
4.56033
0.0217734
0.36261
0.0218436
0.0933732
0.021999
0.0202766
0.0200554
0.610226
0.0200184
0.0270779
0.0296354
0.162115
0.0358626
0.0223031
0.0210199
0.0208383
0.0212189
0.0285412
0.104279
0.358201
0.0453849
0.021531
0.0200137
0.0225072
0.0210599
0.0208082
0.0217697
0.0471267
0.024784
0.165737
0.0215259
0.0214389
0.0317046
0.0213003
0.144125
0.0457269
0.0383406
0.134743
3.83018
0.0287085
0.0209817
0.020022
0.0216722
0.0212793
0.0577659
0.0472708
0.105218
0.0203122
0.021579
0.0230563
0.020826
4.54148
0.120481
0.0200602
0.0200513
0.0209738
0.0210649
0.0209183
0.0212905
0.222174
0.0199662
0.021879
0.0203217
0.020587
0.021065
0.0214618
0.0266005
0.0205819
0.0250128
0.020161
0.10435
0.202242
0.0241544
0.0525576
0.0227974
0.0218805
0.0688735
0.133833
0.0214243
0.0207442
0.0204738
0.0265503
0.0219832
0.0287069
0.0458282
0.0215007
0.0219067
0.021485
0.0928983
0.035822
0.0221106
0.0205939
0.0244604
0.0386517
0.0211426
0.0737272
0.0208372
0.019967
0.0242194
0.802264
0.447835
0.088027
0.225996
0.0200562
0.036611
0.0654002
0.0251022
0.0212104
0.0668717
0.023394
0.170266
0.822308
0.0207353
0.0200657
0.021482
0.0219159
0.0200702
0.0530147
0.0829974
0.0201064
0.0215257
0.0219197
0.0374507
0.0212509
0.0208864
0.0294084
0.021864
0.0209054
0.0924518
0.0957825
0.0865551
0.0212662
0.0202413
0.0201219
0.0213554
0.0239603
0.0271232
0.0208755
0.0206273
0.0226155
0.241838
0.0204617
0.0214176
0.071092
0.0209187
0.0207599
0.0213456
1.17238
0.0202197
0.0214478
0.0204648
0.0224704
0.0202327
0.0253176
0.139001
0.0214181
0.151339
0.0284693
0.197743
0.0585059
0.0209876
0.0257405
0.0208447
0.0207437
0.0210002
0.258296
0.361214
0.034168
0.0269643
0.44612
0.0718983
0.0220931
0.100775
0.0469297
0.0233942
0.0200638
0.157197
0.0222211
0.0207431
0.020396
0.242348
0.899343
1.87771
0.0207105
0.0912191
0.371333
0.0244807
0.030976
0.0238465
0.0230459
0.0343909
0.142356
0.0230512
0.0222621
0.0247476
0.973951
0.220405
0.0212388
0.0213477
0.021083
0.393422
0.0239266
0.0219531
0.421909
0.0253293
0.0332921
0.0238319
0.261966
0.0206744
0.0882144
0.0220355
0.0200581
0.020982
0.0200344
0.020068
0.0208974
0.0216983
0.210764
0.0205271
0.0891565
0.0264443
0.0216736
0.0207497
0.0930814
0.0211942
0.0215212
0.0229304
0.902202
0.0442031
0.0229754
0.0215244
0.312373
0.0206697
0.0410455
0.021508
1.81433
0.0315081
0.278544
0.0252945
0.0210316
0.0552444
0.265576
0.117716
0.0205586
0.0213383
0.0374609
4.17279
0.0195639
0.0495035
0.0205724
0.0264313
0.0208663
0.0200525
0.0219594
0.0220778
0.0200209
0.0334344
0.0319975
0.0239441
0.128749
0.167145
0.0221394
0.0868764
0.020098
0.106719
0.445341
0.157381
0.0200279
0.0220431
0.0214868
1.0217
0.0210363
0.020839
0.0900383
0.0215033
0.0215144
0.0221374
0.0219922
0.0212459
0.495255
0.344871
0.065287
0.0207542
0.0214509
0.165075
0.0200929
0.177613
0.021615
0.0214729
0.0219847
0.0234215
0.237505
0.0205071
0.021474
1.97899
0.0215779
0.0217692
0.0374268
0.447847
0.163813
0.0214284
0.0210472
3.81928
0.0796234
1.20352
0.0208838
0.0339901
0.183161
0.0203527
0.0327034
0.0230494
0.277366
0.0233548
0.0215298
0.0221329
0.0200238
0.338281
0.0214643
0.0204823
0.326254
0.0294335
0.046042
0.0199889
0.0225154
0.0200356
0.0196333
0.0202008
0.0222237
0.0216187
0.021836
0.020029
0.0217343
0.0484199
0.027243
0.0237344
0.0206127
0.0239089
0.0210659
0.275427
0.0216565
0.0220125
0.0215894
0.0200578
0.0217902
0.0212558
0.0211691
0.0212351
0.0208229
0.0202091
0.507793
0.327517
0.02124
0.340409
0.0353257
0.0217594
0.021693
0.0221232
0.512729
0.0218319
0.0200895
0.0200984
0.0200377
1.78396
0.0212852
0.0202842
0.163576
0.0200209
0.0197223
0.0240988
0.0246214
0.0774055
0.136503
1.94237
0.0200431
0.763573
0.0250033
0.0212306
0.0204217
0.0240006
0.0212788
0.0281348
0.0613475
0.0233445
0.0219559
0.321353
0.0574239
2.02966
0.0758056
0.305559
0.0827841
0.0205132
0.207139
1.21518
0.0201271
0.734386
0.0207071
0.0222866
0.131097
0.0207411
0.141212
0.0245122
0.0226777
0.0218867
0.0388438
0.0213745
0.0844713
0.0212365
0.0201845
0.470923
0.0197474
0.021743
0.0218427
0.0549082
0.0212041
0.0214437
0.0227891
0.113963
0.0211991
0.0212769
0.0202301
0.0235405
0.0211822
0.0222832
0.0617952
0.0209697
0.026081
0.0216922
0.0232166
0.0227432
0.0209391
0.0219112
0.0978557
0.021581
0.0216818
0.0239179
0.285479
0.0220511
0.0211285
0.0214255
0.0257904
0.0760359
0.0224719
0.0210215
0.020964
0.0205629
0.019619
0.0200466
0.0252618
0.0299002
0.0573533
0.0215291
0.69548
0.0206566
0.0214857
4.28238
0.0452443
0.0199792
0.0796985
0.0218128
0.0210194
0.153793
0.0218441
0.0403718
0.0197384
0.146461
0.0205442
0.0200136
0.0202585
0.0528785
0.0910933
0.0215501
0.570719
0.020237
0.0209277
0.0207381
0.132651
0.0212207
0.0206531
0.022109
0.0225631
0.0212689
0.0214439
0.0207897
0.0217928
0.0215233
0.0208447
0.0238271
0.0199936
0.805474
0.0681069
0.0202097
0.315298
0.0258405
0.0209337
0.0206695
0.0219466
0.0207645
0.0290518
0.0247841
0.0495837
0.0473111
0.0216925
0.0734086
0.14699
0.0212226
0.0217051
0.0880054
0.0233383
0.282859
0.02022
0.0211345
0.0223499
0.0217708
0.0209861
0.0258124
0.020948
0.0215212
0.0212461
0.0231857
0.0205849
0.112622
0.0213444
0.0241076
0.0280162
0.0210046
0.348779
0.433341
0.0231816
0.0263631
0.0271878
0.0198732
0.0448623
0.0214274
0.0335621
0.40065
0.511652
0.0347603
0.0217455
0.0264802
0.0210075
0.028743
0.0205285
0.313052
0.0282298
0.0214591
0.0207979
0.191534
0.0330617
0.021224
0.0212233
0.405868
0.0216143
0.020644
0.847329
0.0542324
0.0201171
0.264413
0.0203126
0.0401427
0.0574884
0.0212627
0.021435
0.0231706
1.78906
0.0207897
0.0254528
0.02144
0.0212709
0.0208281
0.4312
0.0218109
0.0213969
0.0210998
0.16237
0.0257249
0.0208026
0.019778
0.105734
0.0211528
0.0204566
1.08317
3.83948
0.0219103
0.252551
0.0231044
0.0480221
0.0222132
0.0604885
0.423833
0.0216648
0.0211239
0.0203206
0.0239011
0.0212048
0.394356
0.082763
0.0205309
0.0220404
0.0203382
0.0200269
0.311546
0.0212122
0.0225491
0.0226147
0.0483498
0.021455
0.0216731
0.0247964
0.447765
0.0214729
0.0214076
0.0204482
0.0205703
0.0237093
0.0451752
0.0215794
0.0211249
0.0212632
0.0211079
0.0203303
0.620754
0.0217351
0.0210354
0.0210965
0.0613016
0.0203748
0.0204591
0.0350718
0.0209294
0.0371448
0.0212486
0.0214335
0.0415973
4.70972
1.4986
0.0356819
0.0232632
0.0217384
0.370922
0.0206455
0.0248538
0.0199886
0.871908
0.0195425
0.0237974
0.0214639
0.212705
0.0348549
0.0308416
0.340002
0.022209
0.0473045
0.021708
0.0219693
0.352735
0.0349336
0.021177
0.0203049
0.023385
0.0268296
0.0214256
0.0212645
0.0206394
0.0199398
0.164659
0.374395
0.0217004
0.0221176
0.693313
0.805991
0.0231229
0.0220779
0.0229492
0.0243084
0.0212151
0.0222839
0.0280502
0.0209092
0.0203282
0.0215023
0.027478
0.188081
0.0250186
0.0215351
0.02154
0.0255
0.0213403
0.0248428
0.039476
0.0547617
0.0231745
0.342807
0.0201174
0.0212273
0.0218366
0.0199916
0.0215526
0.0208568
0.0422183
0.0210076
0.525169
0.0214014
0.0207205
0.0204898
0.0280906
0.0223446
0.0448503
0.0566978
0.0201642
0.27293
0.0232549
0.020506
0.0198066
0.300216
0.19304
0.0198269
0.020807
0.0207221
0.0222575
0.163872
0.0556029
0.0221556
0.0219248
0.136734
0.359861
0.0219293
0.0212146
0.226069
0.0236502
0.0944032
0.0234142
0.0211505
0.0637533
0.0243368
4.76595
0.0245207
0.50675
0.0204029
0.0209294
0.0217656
0.021579
0.0235116
0.0216669
0.0215504
0.020792
0.0217952
0.0216593
0.021257
0.0214181
0.0227186
0.0218885
0.0213362
0.0208359
0.0346223
0.0234614
0.0209176
0.0215157
0.159889
0.0213415
0.0217035
0.0218689
0.390795
0.0204606
0.0391271
0.0225811
0.0201853
0.0210625
0.302898
0.218
0.0219425
0.0217568
0.023237
0.0374985
0.0208707
0.026075
0.0354709
0.0210566
0.104367
0.020814
0.0213302
0.0209603
0.0217373
0.0290055
0.0567288
3.86023
0.0272709
0.0201956
0.0214973
0.0211127
0.0456185
0.0219269
0.284148
0.0208202
0.02137
0.0213549
0.075999
0.020975
0.0215703
0.0212555
0.135601
0.020469
2.00452
0.0204283
0.0240298
0.0212922
0.0296314
0.0209911
0.023462
0.507545
0.0686202
0.0202033
0.0360813
0.0215125
0.0213642
0.327268
0.508339
0.0203227
0.0212446
0.0234156
0.0202548
0.0211011
0.0218624
0.0216958
0.0232921
0.0531665
0.0220991
0.0261883
0.0599396
0.0216194
0.0209976
0.0211774
0.0225116
0.0282968
0.0214271
4.29313
0.0206622
0.374163
0.0375882
0.0201302
0.0207285
0.0207082
0.0603374
0.0214937
0.0236958
0.021494
0.0207108
0.508416
0.0227422
0.0264886
0.0216545
0.0214578
0.0227001
0.021233
0.0227459
0.0213661
0.0222141
0.0219457
0.0218554
0.579653
0.0244227
0.423485
0.0209966
0.0242503
0.0222334
0.327572
0.0664
0.807459
0.0225865
0.0199595
0.0419236
0.0208955
0.458315
0.0221333
0.0444265
0.0223433
0.31419
2.10072
0.0231368
0.0265041
0.0207458
0.020534
0.0218883
0.0199067
0.0217203
0.0228243
0.0207845
0.0245192
0.0419172
0.321583
0.0208952
0.0716302
0.0201026
0.0211895
0.0211381
0.0935348
0.0215972
0.157987
0.0216788
0.0210792
0.254922
0.0208784
0.0234809
0.02104
0.0232435
0.824534
0.0253471
0.630926
0.0213458
0.0645109
0.0228567
0.0211207
0.0211491
0.0270491
0.0237911
0.0212714
0.0227144
0.0213233
0.552983
0.0207322
2.83019
0.197491
0.0719534
0.0245176
0.129606
0.0243753
0.019904
0.411775
0.0211878
0.084776
0.0218145
0.0225444
0.272322
0.266357
0.0256634
0.129203
0.0213834
0.326877
0.0196031
1.58063
0.0201574
0.0221466
0.0433823
0.0214331
0.0207169
0.0219315
0.0212591
0.0345181
0.247391
0.0323512
0.280651
0.020638
0.305367
0.0214429
0.0217011
0.0210346
0.021097
0.463122
0.0216182
0.0205682
0.0370334
0.0218062
0.326897
0.0731039
0.0212635
0.0371806
0.0346734
0.0208548
0.0214336
0.0235991
0.020329
0.0565638
0.027513
0.0227045
0.0229187
0.0204449
0.0211598
0.0596704
0.0219697
0.0214444
0.0222559
0.0198829
0.0201362
2.04643
0.0259148
1.7593
0.026779
0.0534398
0.0268147
0.021115
0.0252881
0.0204285
0.0209798
0.0274105
0.0237786
0.0225558
0.0485648
0.0219206
0.272381
1.54595
0.0210722
0.0236354
0.0283454
0.585066
0.0203183
0.0203196
0.0216247
0.0257425
0.261327
0.0244203
0.0236389
0.021815
0.021171
0.0199201
0.12709
0.0237878
0.022163
0.462317
0.0216323
0.0227366
0.0240371
0.0214906
0.0212343
0.0210108
0.0540193
0.10541
0.0218549
0.0231773
0.351415
0.0209191
0.0219322
0.0231547
0.021587
0.342833
0.431647
0.140576
0.0818786
0.256027
0.0224657
0.0208442
0.0675734
0.0221358
0.0257338
0.0210317
0.0201914
0.337247
0.0766654
0.0210798
0.0207485
0.0263529
0.179713
0.0231808
0.0199608
0.432449
0.0228232
0.0370879
0.020141
0.0270114
0.0195776
0.0227738
0.0250638
0.0211709
3.33679
0.0219592
0.0363148
0.0988727
0.324552
0.087679
0.0211946
0.063207
0.0243615
0.0239843
0.022126
0.0219531
0.021438
0.02244
0.0422136
0.0228176
0.0339905
0.0207792
0.195065
0.020295
0.0218885
0.224282
0.0244729
0.19174
0.0227566
0.0220992
4.20856
0.41879
0.0208653
0.258524
0.0318685
0.02072
0.0198414
1.80644
0.249785
0.0204725
0.0202849
0.0211576
0.0202339
0.359137
0.394186
0.0195203
0.0197954
0.0208621
0.222561
0.0476955
0.271424
0.0201936
0.314384
0.021592
0.0611531
0.57591
0.0239534
0.020596
0.0205957
0.26948
0.0203461
0.0210583
0.0202078
0.0247725
0.022911
4.26444
0.0245619
0.021774
0.0211934
0.0264741
0.183596
0.0380877
0.0211204
0.0208804
0.149359
0.0506754
0.0219436
0.13585
0.0275688
0.0228081
0.312852
0.0227121
0.0250783
0.0218167
0.110492
0.0214119
0.0217922
1.83537
0.0275715
0.0210492
0.0213493
0.0195839
0.0359187
0.109399
0.0209695
0.0202775
0.0221079
0.0659417
0.0224665
0.0202045
0.0212397
0.0207284
0.0220017
0.0425515
0.0214184
0.0209502
0.369185
0.0211067
0.215681
0.0298142
0.0304842
0.0235392
0.0220903
0.02148
0.222332
0.085423
0.0695835
3.64323
0.0290948
0.0208741
0.277963
0.0202165
0.0744315
0.329111
0.0219823
0.021129
0.0235101
0.0757542
0.0211978
0.0210044
0.244711
0.0212604
0.0225916
0.0207
0.0216932
0.0203384
0.0659135
0.120244
0.0201483
0.021022
0.170183
0.0211896
0.0201142
0.0209957
0.020821
1.77935
0.0237219
0.0228839
0.0222804
0.021958
0.0202201
0.0358438
0.0987152
0.0262552
0.242987
0.0228916
0.0233139
3.83727
0.0208856
0.0203657
0.0210657
0.0208255
0.0217943
0.019753
0.0221288
0.31941
0.0212117
0.0210925
0.0227099
0.020804
0.312597
0.0216601
0.469817
0.173883
0.0238437
0.0297013
0.0618308
0.0235904
0.0211712
0.0234164
0.020948
0.0224623
0.0213137
0.0217834
0.268516
0.0202908
0.021318
0.0426524
0.180294
0.0216862
0.0208425
0.18087
0.0222389
0.0253789
0.0213085
0.0208533
0.020932
1.97834
0.0214081
0.180726
0.0538698
0.0216191
0.0208335
0.0210619
0.0241903
0.213016
0.0201563
0.0356459
0.0210977
0.491646
0.218213
0.0221263
0.165486
0.0215456
0.0228964
0.023632
0.274299
0.0241366
0.025985
0.0267757
0.337088
0.0216886
0.0353487
0.0214522
0.0334257
0.143868
0.158066
0.0209456
0.027229
0.329664
0.468916
0.0228646
0.0235582
0.368263
0.355474
0.020812
0.0551497
0.0211864
0.0237945
0.0214699
0.0223356
0.0222503
0.232323
0.0216503
0.021807
0.0592651
0.334383
0.0747012
0.124352
0.0564013
0.02078
0.366808
0.0647191
0.0210336
0.0211213
0.378754
0.0232363
0.0214896
0.0212434
0.0382355
0.0206956
0.0212526
3.62941
0.0214528
0.0217252
0.02104
0.0214023
0.0225143
0.0204783
0.344736
0.0250859
0.0231311
0.0204993
0.0276226
0.140055
0.0208952
0.0216442
0.285709
0.171263
0.0213514
0.0240904
0.0207073
0.0209316
0.0416412
0.159448
0.0209322
0.0210649
0.322131
0.505836
0.181666
0.0279551
0.0220867
0.123024
0.0207508
0.0247154
0.0238458
0.0205457
0.284483
0.163284
0.0388058
0.0270603
1.66498
0.0198497
0.0197877
0.0227925
0.033021
0.0901078
0.0203368
0.0330801
0.831867
0.876323
0.0216351
0.0224575
0.265896
0.0209856
0.0235037
0.373752
0.0209569
0.0211928
0.0205103
0.283507
0.0208232
0.0238021
0.021888
0.0486762
0.0266393
0.417523
0.0211816
0.0211329
0.0288793
0.0217357
0.0223994
0.0221195
0.104075
0.119093
0.0209899
0.0213379
3.74683
0.37268
0.246429
0.0207553
0.0213563
0.0226534
0.0215305
0.0212671
0.0214339
0.0209653
0.021868
0.0206806
0.0207595
0.0585879
0.0234688
0.0263603
0.275244
0.0677388
0.0503316
0.0242442
0.0432526
0.129509
0.0299427
0.022957
0.025261
0.0210656
0.673566
0.0200311
0.0202804
0.0206651
0.475888
0.0208914
0.474352
0.0217622
0.0201295
0.0398157
0.021168
0.0211462
0.0211599
0.0248863
0.190277
0.021624
0.0205432
0.022615
0.995538
0.0498489
0.331736
0.0210365
0.0335048
0.0214785
0.0215412
0.0201891
0.0207211
0.0213556
0.0214683
0.291008
0.0223043
0.0225752
0.12188
0.174497
0.126859
0.0208449
0.100546
0.0328635
0.606582
0.02055
0.0209658
0.0221135
0.48961
0.0197916
0.0213521
0.0207125
0.0203455
0.125679
0.0221509
0.0626957
0.0211101
0.019775
0.025265
0.0214337
0.515111
0.0211421
0.0236724
0.0217814
0.0263982
0.0220482
0.0632898
0.344262
0.0212304
0.0382187
4.17867
0.0211201
0.0215246
0.0422873
0.0197271
0.290054
0.0306196
0.0209613
0.0600277
0.0200199
0.021564
0.0214483
0.0206949
0.0202168
0.0221289
0.0207027
0.020712
0.0215263
0.021815
0.0495012
0.0200899
0.132467
0.0205259
0.0208955
0.0275786
0.0477002
0.0219929
0.019724
0.0211953
0.0223188
0.0453836
1.60982
0.033194
0.0219009
0.0219509
0.020751
0.0294816
0.0209286
0.0222698
2.33792
0.247614
0.0469044
0.021077
0.0217238
0.022126
0.0197325
0.0409417
0.0201182
0.135089
0.0219459
0.16167
0.0260335
2.40444
0.0215736
0.0678477
2.03829
0.344293
0.339938
0.0244647
0.376177
0.341152
0.0218547
0.0345321
0.668585
0.0204842
0.0207464
0.021328
0.0236584
0.0804296
0.0214578
0.0236095
0.208813
0.0195244
0.021467
0.318498
0.592273
0.0970512
0.36451
0.451886
0.0221069
0.0601929
0.0234579
0.0238096
0.0580065
0.0223736
4.01858
0.0368236
0.0236692
0.0213726
0.0226966
0.0227057
0.020549
2.02762
0.0197858
0.0212415
0.0213074
0.423375
4.19099
0.0391532
0.0212722
0.0224281
0.020484
0.393659
0.0209831
0.0219021
0.0232593
0.0611018
0.0206938
0.0787051
0.688084
0.172277
0.0218152
0.031323
0.0205861
0.878375
0.0198209
0.066759
0.0217353
0.0647777
0.0263535
0.184664
0.122077
0.0226718
0.0225718
0.0293041
0.0235199
0.021101
0.0207019
0.0246798
0.0218206
0.221314
0.019644
0.0210696
0.0214317
0.0214021
0.0731934
0.0207355
0.0201335
0.0214683
0.103677
0.0263103
0.0569766
0.0226001
0.0224941
0.0861229
0.020609
0.0213066
0.0726683
0.0446101
0.0201358
0.0331917
0.0228284
0.311574
0.0212442
0.0432603
0.0216669
0.0212149
0.0202311
0.0201778
0.0211609
0.0210722
1.66384
0.0659196
0.0215495
0.0213159
0.0211272
0.0221538
0.0266626
0.304916
0.0214633
0.0306382
0.0237413
0.317149
0.021648
0.0447076
0.0212904
0.0212515
0.0269244
0.0212167
0.0214401
0.0206914
0.0200091
0.874981
0.0213825
0.0207269
0.0380662
0.431406
0.0407743
0.0214301
0.0198702
0.0235958
0.478379
0.023079
0.0216829
0.0215288
1.67558
0.0218615
0.0210975
0.230092
0.0207612
0.0247484
0.0227036
0.0215303
0.0201716
0.0560907
0.0250669
0.0206304
0.021276
0.0213844
0.0208944
0.150809
0.0226466
0.0213953
0.0197655
0.021951
0.0201826
0.0212413
0.0783473
0.0206489
0.0237993
0.0232733
0.452902
0.0197257
0.0223804
0.0563366
0.0264177
0.161271
0.0209861
0.0214748
0.152631
0.0214023
0.0201449
0.265101
0.0214023
1.9339
0.0809421
0.0658386
1.11733
0.0214158
0.0259689
2.01511
0.0212425
0.0199916
0.882856
0.510883
0.0208924
0.0201359
0.0225969
0.020669
0.194695
0.102304
0.272542
0.0214809
0.0216368
0.0212181
0.0211275
2.0517
0.552073
4.1021
0.02447
0.0223931
0.353851
0.0213303
0.0208915
0.0226273
0.0209243
0.0218436
0.0926368
0.0197244
0.438479
0.0218118
0.0219506
0.0213935
0.0264232
0.0207005
0.470225
0.0206905
0.0211974
0.0225301
0.0201625
3.71316
0.023989
0.0256658
0.902209
0.114904
0.0300963
0.329938
0.021341
2.5802
0.026772
0.020765
0.0222734
0.0217235
0.438863
0.318427
0.0214373
0.0235585
0.251797
0.0210623
0.0205741
0.0237493
1.48297
0.522012
0.0215227
0.0220297
0.0963452
0.022781
0.068542
0.0682342
0.0702739
0.0201476
2.81803
0.0215199
0.18192
0.0602491
0.0350538
4.58717
0.277582
4.11299
0.0203637
0.184034
0.0199269
0.0197738
0.253118
0.019762
0.0221217
0.0211446
0.0658842
0.0206161
0.135366
0.020166
0.0278094
0.446998
0.0261463
0.0247468
0.40854
0.0218109
0.020244
0.0218495
0.0969729
0.0238855
0.133501
0.0214181
0.0257576
0.0217369
1.92187
0.0214175
0.021569
0.021367
0.473316
0.0318322
0.0215188
4.05943
0.0210874
0.02137
0.024539
1.66474
0.021394
4.47574
0.0214254
0.316236
0.0214166
0.04377
0.02098
0.0535304
0.0214268
0.0638548
0.0245951
0.0296341
0.0208924
0.0217248
0.270223
0.0203654
0.0236356
0.0264129
0.0200555
0.0659858
0.342513
0.13077
0.0219666
0.0197353
0.0211854
0.123273
0.0234455
5.03319
0.023977
0.30233
0.0214616
0.808895
0.0205395
0.0296016
0.113324
0.022739
1.91605
0.0233105
3.93553
0.159412
0.0207676
1.31345
0.0223127
0.021138
0.0227439
0.0867485
0.0231734
0.15896
0.0247279
0.114643
0.0441497
0.0643686
0.0485918
0.383122
0.0214513
0.0215287
3.66032
4.01349
0.0388583
0.0234756
0.813146
0.222316
0.0214337
0.0214251
0.0212079
0.107588
0.0207045
0.0209271
0.0336015
0.183472
0.01982
0.0206119
0.0221373
4.31698
0.0205063
0.0238256
0.0198207
0.124495
0.0224144
0.356921
0.0218211
0.0206459
0.0213284
0.0202713
0.318494
0.0327005
1.6697
0.0213217
0.0288795
0.0202084
0.202174
0.163058
0.05125
0.0207886
0.06289
0.0208841
0.0215776
0.287655
0.0210686
0.0236685
0.227267
0.0201499
0.113637
0.0207616
0.0198308
0.021553
1.71154
0.0207972
4.67727
0.127629
0.30593
0.326476
0.0207075
0.386157
0.0654392
4.03212
0.0319844
3.94132
0.172726
0.0215601
0.031906
0.0217056
0.0277121
0.0208592
0.0227462
0.0212039
0.0256189
0.353915
4.56144
0.0237591
0.0231767
0.810754
0.396185
0.0212055
0.0214574
0.0465463
0.0366297
0.0204464
0.246863
0.0381443
0.0221539
0.0203881
0.022369
0.743698
0.0216209
0.0612293
0.0195826
0.811835
3.01135
0.0881474
0.0223441
0.0215146
0.0211671
0.0212669
0.0214648
0.0241856
0.0224326
0.0215369
4.40493
0.0208355
0.0214774
0.0210554
0.340676
0.501774
0.0212456
0.0213217
0.77587
0.0204836
4.63281
0.0215244
0.0213691
0.0197237
0.0216214
0.0206004
0.0227141
0.0202111
0.187794
0.0217274
0.0669121
0.021351
1.85942
0.0214656
0.0244928
1.7334
0.176656
0.0212428
0.0214473
0.0315169
0.0197254
0.504773
0.387948
0.0224532
0.0207562
0.021232
0.0203296
0.124594
0.343561
0.0385055
0.200906
0.0350816
0.0213544
0.0211844
0.0205292
0.456711
0.245652
0.0215477
0.0211298
0.0208105
0.0274369
0.0213778
0.357936
3.21582
0.0295669
0.0202788
3.80146
0.128567
0.021445
0.0869871
0.021676
0.239413
0.0340534
0.0342046
0.0263901
1.06969
0.0332246
2.677
0.0208418
0.0205258
0.020695
0.0203176
0.0214933
0.0286513
0.0205223
0.0253951
0.0200105
0.23449
0.0210507
0.0274092
0.546147
0.0220552
0.0198022
0.0278346
4.76072
0.0212551
0.0206019
0.171607
4.10876
0.229743
0.0222021
0.0197338
0.346396
0.12575
0.0234981
0.0559956
0.0213913
0.0310758
0.0215164
0.121549
0.0206751
0.020894
0.371682
0.0204192
0.0227118
0.28644
0.0594967
0.0206365
0.0208922
0.0207421
2.91154
0.0237884
0.0262391
0.0214272
0.0207748
0.123024
0.0311612
0.0211466
0.0212899
0.0197327
0.0228794
0.020652
0.0226454
0.180535
0.419491
0.0231087
0.040275
0.0207985
0.0401238
0.0212181
0.0215485
0.0207591
0.234214
0.0366031
0.0200268
0.0226729
0.165612
0.03751
4.15819
0.0529974
0.0212896
0.0207685
0.0266664
0.0224257
4.52343
0.0205075
4.16876
4.61668
0.0208992
0.0389419
0.273125
0.0248444
1.86371
0.10521
0.0221651
4.39611
0.025725
0.0204711
3.8047
0.348542
0.100315
0.0217001
0.294035
0.231164
0.0213368
0.166241
0.293688
0.0213789
0.020707
0.021816
0.020022
0.0215442
0.880671
4.1336
0.0214243
0.0230678
0.41733
4.08662
0.0321742
0.280248
0.0210709
0.0249783
4.03379
0.046908
4.01065
4.30127
0.0212517
0.0214456
0.0210375
0.0216462
4.23092
0.246723
0.0209748
0.0361326
0.501344
0.320448
0.0486817
0.0211348
0.0214794
0.02194
0.240295
0.0222662
0.0365199
0.0285155
0.0220162
0.420728
0.0231684
0.343384
0.137731
0.421434
0.0212154
0.0212037
0.0224989
0.0312935
0.198702
0.221394
0.021871
0.566693
4.23295
0.0299033
0.0326124
1.10552
0.341789
0.334611
0.5298
0.0213204
0.343615
0.0627856
0.0303097
0.0261949
0.127297