/*--------------------------------*- C++ -*----------------------------------*\
| =========                 |                                                 |
| \\      /  F ield         | OpenFOAM: The Open Source CFD Toolbox           |
|  \\    /   O peration     | Version:  v2012                                 |
|   \\  /    A nd           | Website:  www.openfoam.com                      |
|    \\/     M anipulation  |                                                 |
\*---------------------------------------------------------------------------*/
FoamFile
{
    version     2.0;
    format      ascii;
    class       volScalarField;
    location    "400";
    object      ddt0(omega);
}
// * * * * * * * * * * * * * * * * * * * * * * * * * * * * * * * * * * * * * //

dimensions      [0 0 -2 0 0 0 0];


internalField   nonuniform List<scalar> 
18355
(
0.00351119
1.13432e-06
0.0156797
7.23047e-06
-0.00140761
-0.185119
3.59278e-05
-0.00077458
1.06306e-05
0.00895867
0.000367253
0.00703252
0.00638411
0.600005
5.81864e-06
-1.88909e-06
8.06227e-06
7.89929e-05
0.0246768
-0.000119293
-0.0178179
1.21994e-05
2.44879e-06
-0.151511
2.51436e-06
6.30625e-05
4.46022e-05
5.56915e-06
1.25296e-05
0.000448834
0.416363
-0.00061288
-4.43484e-06
3.28719e-06
-4.62749e-06
2.55045e-05
-0.000340643
3.4504e-05
0.000488785
6.57371e-06
6.83217e-06
0.000420668
2.94568e-06
1.54752e-06
1.48081e-06
0.0170991
6.11888e-06
6.50357e-06
0.476326
7.1834e-06
8.5673e-06
-0.0179013
4.77228e-07
0.00171846
7.11079e-06
-0.000105928
2.71143e-06
1.13877
7.52827e-05
-3.78209
3.25687e-06
0.00469603
0.00188367
-7.73628e-05
-0.00233922
6.29935e-06
5.44939e-06
-0.000363438
3.43988e-06
-0.0489642
1.42521e-05
7.04347e-06
-5.90249e-05
0.000101491
-0.0490234
3.93232e-06
1.07953
4.09582e-06
1.30468e-05
-0.131296
1.69077e-05
-0.203442
3.79283e-06
4.19011e-05
-0.0026015
-3.12864e-06
1.72154e-05
-0.00177848
4.18415e-06
-0.00180506
0.645995
-0.0121225
-0.175801
9.21657e-06
-0.0922352
0.000148035
5.74578e-06
2.74174e-05
-0.00159894
1.45065e-05
-0.00237018
1.16673e-05
9.25727e-06
2.91537e-07
2.68126e-05
-2.07224e-06
-0.00209696
-0.101166
-0.000993119
-2.53748e-08
1.60282e-06
8.10134e-06
0.000504057
6.56589e-05
-0.055627
0.000314505
1.11646e-05
-0.349474
5.37584e-05
4.63272e-06
-0.0313654
0.0172226
0.433216
-0.00251625
-0.299959
-0.0357678
4.29505e-05
7.55869e-06
-0.00777517
5.84375e-06
5.8923e-06
-0.0325298
6.59047e-06
0.00153276
-0.00547659
3.02287e-06
0.016868
-0.0618506
8.87871e-06
-0.0152712
-0.000187598
0.00275799
7.54241e-06
0.144217
-0.00565278
9.03091e-06
-4.11001
-1.31712e-06
0.000555074
0.0370635
5.96371e-06
5.9221e-06
2.13834e-05
-0.00233291
2.80403e-06
2.26806e-06
7.26806e-06
-3.44995e-06
7.77778e-06
1.92037e-06
0.000153179
5.57362e-06
-4.43293e-07
-0.00249898
0.000192501
0.00625971
-3.83636
0.0107573
-0.487364
-0.000181848
4.11571e-06
0.00105965
-3.53614e-06
0.44126
-2.62577e-06
7.17737e-06
7.38409e-06
5.59355e-07
-2.48675e-05
-5.86903e-05
-3.93015e-06
0.00249814
1.02043e-05
4.46452e-06
-0.0210882
1.2416e-05
-7.36389e-06
-0.00152396
7.91212e-06
5.7506e-05
-0.0262402
-0.00136291
5.22284e-07
1.99067e-06
9.92979e-06
-0.302598
6.01025e-06
1.15809
1.11521e-06
0.371408
1.15683e-05
-6.77373e-05
0.000511146
-5.9043e-06
0.106549
3.28163e-06
-0.403054
4.50235e-06
-2.07501e-06
-4.77514e-05
1.00511e-05
-0.375758
-0.00094612
-0.000259122
-2.27859e-06
0.353259
-4.27559e-05
-0.00018106
4.16108e-06
7.01783e-06
-0.000841357
-4.76881e-07
-0.0015684
-0.000396258
0.00667482
0.000525617
8.29218e-08
-0.0528217
0.00260963
1.70657e-06
9.73838e-06
1.83961e-05
-0.000225596
-3.89941e-07
0.000624065
-0.00389981
-2.47276e-06
-0.0103053
-9.93825e-05
-0.000236311
5.45601e-07
-2.00716e-05
1.14308e-05
-2.16714e-06
3.9455e-06
6.92534e-06
5.9209e-06
-0.395489
-0.251865
1.88435e-05
9.81642e-05
-0.239318
0.00613397
0.00105316
4.45743e-07
0.00333207
-0.000100527
8.94795e-06
0.000552616
4.25251e-06
0.0309704
0.0561805
-0.00155899
-0.000249336
0.000549905
0.00195117
-0.00732872
-0.00122045
4.08241e-06
6.73726e-06
6.66135e-05
8.34292e-07
-7.03963e-05
-0.000181737
6.48146e-06
8.91767e-06
0.000198926
2.9361e-06
-0.00519703
-0.347682
0.000223745
9.75234e-06
0.000361374
1.40601e-06
-0.00193047
2.2824e-06
-2.22122e-05
8.23033e-06
-1.67512e-05
0.00204228
-3.938e-06
-0.00068797
3.82857e-05
0.000184048
-0.00687821
7.14499e-06
1.66575e-06
-0.00500801
9.37769e-06
0.000149011
-0.00033399
-0.110445
-0.00198084
-0.00133359
-1.58538e-05
0.000635462
-8.36906e-07
-7.30886e-05
-0.00023423
-0.000714568
-0.00703709
-1.96874
4.73083e-06
6.46603e-05
-0.00158876
0.000362417
4.4659e-06
6.78965e-06
5.38685e-06
0.000682265
-2.95632
-0.0501319
0.00697697
0.000288313
-0.000160885
-0.0775101
-1.12746e-06
3.53997e-06
-0.000153813
4.46812e-06
4.20523e-06
-6.97246e-06
-0.0215631
-2.58725e-06
-0.160367
1.12434e-05
8.479e-06
-4.95861e-05
0.00609699
0.188375
-1.00064e-05
0.0228544
2.4482e-05
4.50258e-06
4.91339e-06
-5.3547e-05
-0.000224379
5.09817e-06
7.87622e-06
-0.0212186
1.92366e-05
4.33852e-06
0.00491502
-2.43874e-05
5.60055e-06
1.14538e-05
-7.95154e-05
9.06034e-06
-1.16402e-05
-2.29496e-06
7.57358e-06
1.35521e-05
-1.41118
-0.0851209
-1.6466e-06
7.40389e-06
0.00198867
5.14429e-06
-2.92011e-06
-0.0221505
-0.0862272
0.000718588
5.57841e-06
-3.58861e-06
0.00781289
2.82746e-05
0.00196225
-6.67594e-05
-3.00951e-06
0.00182238
-0.000568196
9.73628e-06
8.15192e-06
8.87167e-05
7.89649e-06
0.000153594
9.71432e-06
0.000852295
1.78051e-06
2.63517e-06
8.12454e-06
5.3543e-06
-8.56508e-05
3.35522e-06
0.00157961
0.0809365
-0.0570932
-2.27709e-05
0.00632303
0.000207573
9.8193e-06
-4.11016e-06
-0.000689087
7.30635e-06
0.000326787
3.32417e-05
0.000238878
-0.103368
0.0563361
0.0665457
-0.00266125
2.16943e-07
-0.14347
1.38658e-05
6.71449e-06
-0.0223828
1.09041e-05
0.000539681
-7.35072e-05
-0.00300998
9.72452e-06
0.00101111
-0.0442345
-0.00161163
-1.28278e-06
1.13579e-06
-0.00161119
4.95813e-05
5.50046e-06
0.0130659
0.0352219
6.72116e-06
-0.000594027
0.00154645
7.198e-07
2.76974e-05
-2.51649e-05
0.323226
-0.00168685
1.94093e-05
-4.05479e-06
-0.000586966
6.8303e-06
5.46848e-06
1.17257e-05
0.0251347
0.0683627
-2.82528e-06
-1.69864e-06
1.0455e-05
0.00527545
0.000353853
3.00659e-07
0.000471379
-0.00161007
1.60545e-06
-0.328885
0.00459631
1.0311e-05
7.80973e-06
-0.0015616
0.00519052
-0.0557809
-1.39221e-06
3.40506
8.61156e-06
-1.58442e-06
-0.00231557
4.44309e-05
0.00012062
-6.72494e-05
-1.46621e-06
0.000102483
1.14082e-05
0.00539455
6.93125e-05
-0.000204746
2.03046e-05
1.26303e-07
2.05166e-07
-7.39218e-08
0.0044648
0.0630681
-0.00289668
8.79378e-05
-4.68036e-06
2.11471e-05
7.68289e-06
-1.07255e-06
6.18128e-05
7.47472e-06
5.47643e-06
-0.00193932
3.52287e-07
6.04304e-05
-0.469225
1.90997
-0.00198734
5.13941e-06
-3.96042e-06
-1.63601e-05
1.2964e-05
0.016251
-1.04757
9.56693e-05
9.53387e-05
-6.31802e-05
4.98085e-07
-6.1961e-05
-0.247504
-0.000762686
2.97056e-05
0.00644357
1.17052e-05
0.370068
-0.114443
-0.000114813
2.19223e-05
-0.193133
6.29421e-06
0.000402321
-0.00122092
0.0360306
7.02417e-05
1.97049e-07
1.67008e-06
0.252608
0.460382
0.0535779
-0.248266
-5.10423e-05
1.80438e-06
3.44649e-05
6.56662e-06
2.04713e-05
-0.013569
0.204732
0.0738087
-0.0462709
0.000204197
-0.000365043
0.000513567
5.65163e-06
4.30717e-06
-0.000482984
-0.000219212
1.98209e-06
6.95997e-06
-0.0941206
5.2785e-06
0.0634309
7.53113e-06
0.00302467
0.0100889
4.4402e-06
6.76743e-05
0.42583
5.33542e-06
0.0896509
8.32236e-06
-0.0108154
-0.000755635
7.26647e-06
0.000587004
-0.000820515
-0.00286221
-4.83005e-06
2.67006e-06
-0.000614776
-0.000120601
0.00296639
7.71484e-06
0.00471541
4.98652e-06
-0.584185
-4.51014e-06
4.15138e-06
-0.001481
-0.000480948
-0.00133382
-2.62159e-06
0.000123401
2.91421e-05
-0.0336531
-0.0310264
-0.000125086
-0.00207352
5.05721e-06
0.000331402
1.33627e-05
-0.000111018
0.120147
1.74695e-06
-0.0419563
9.56811e-06
4.13444e-06
-0.000107819
0.0192734
-0.000123937
-0.00438674
-1.6873e-05
-0.000186123
-0.0055568
-1.65905e-06
5.66581e-06
3.4852
-0.00156967
-0.360175
-0.000262665
4.87479e-06
7.14985e-06
1.60583e-05
0.000103475
3.11288e-05
-5.4975e-06
-0.00581468
-0.044224
4.50805e-06
0.363094
0.377903
0.000281342
-0.00843675
5.365e-06
0.018939
0.127961
-6.59013e-07
0.00140928
-0.000573173
-2.79292
-0.040499
4.86603e-06
1.7659e-05
-4.31446e-06
-0.00942077
0.000618861
-4.40325e-06
-2.07921e-06
-0.0043245
1.06664e-05
-0.000574462
1.95658e-05
-0.000496331
0.0382542
0.268454
-0.00372375
0.225563
-0.00176168
1.02218
9.02856e-05
7.56374e-06
0.000232061
-0.0352355
-0.00257865
0.000659885
-3.36903e-06
0.00942751
1.00453e-05
8.28572e-06
-0.307826
-1.80534e-06
0.000179042
-0.000137919
-0.00445182
4.48031e-06
9.44044e-06
-9.3388e-05
0.00015336
-1.11842e-06
5.8179e-05
0.000511983
0.00214834
-3.04514e-06
6.32487e-06
-0.00221867
-0.0231919
-1.6392e-06
0.181373
-0.127426
1.70553e-06
2.98059
-1.75413e-06
0.0392321
4.78601e-06
-0.000302408
-0.00323615
8.95108e-05
0.381526
-5.48511e-06
9.36171e-06
1.61458
4.69115e-06
1.14834e-06
9.87405e-06
7.52964e-06
0.000242914
-0.00152918
0.0143734
-1.35837e-06
0.0761136
8.11943e-05
0.165429
-0.327401
3.0896e-05
5.28085e-06
0.000118736
-7.21912e-06
0.00690463
6.94872e-06
2.82637e-06
6.07567e-06
-3.65212e-06
5.34276e-06
-0.0603404
0.000168072
-0.000793821
-0.000104149
5.66689e-05
0.0001453
0.000467774
0.0352399
2.76883e-07
0.00470258
-0.00249721
2.45494e-07
0.082294
-0.00283363
3.29322e-06
0.0865764
5.35665e-06
-0.00535887
-0.000224162
-1.05609e-06
-0.000525083
0.000213959
0.128722
3.8246e-06
-8.36225e-05
0.252009
-0.00489954
-0.0351286
5.40094e-06
0.0334144
0.00408975
0.0127415
7.37564e-06
-3.31461e-05
-3.19871e-07
8.30702e-06
3.45836e-06
-7.04131e-06
1.98944e-06
0.115414
3.35775e-05
3.74168e-06
3.41601e-06
-8.35199e-07
1.82349e-05
-0.0049185
0.00400591
-2.46152e-06
0.000157704
1.97646e-06
-1.8127e-06
1.88457e-05
7.41502e-06
0.00386672
3.75555e-06
6.68385e-06
-6.20158e-06
5.39579e-06
-0.000154286
0.000160817
-0.0897209
-0.0137747
-0.000130214
5.97635e-06
0.00912475
3.1759e-06
3.76305e-06
0.00011752
-0.0444699
0.000141863
0.000110249
7.53391e-06
8.5793e-07
0.000191087
3.21883e-06
0.000111308
7.32054e-06
1.13629e-05
3.05978e-06
-3.02823e-05
0.199588
7.41342e-06
8.89992e-06
6.49146e-06
0.027966
0.0217244
-0.000220079
3.09105e-05
-0.000100868
-4.31038e-05
0.00194088
-0.788568
-4.75036e-06
0.0816143
1.00101e-05
-0.0860379
2.39068e-06
-2.00072e-06
-2.19952e-06
-0.118184
7.64059e-06
-0.000238479
-0.0030275
0.000961251
-0.000136259
1.52575e-05
4.36983e-06
-8.50181e-06
-1.59525e-06
-0.00021198
0.00514802
0.00406605
-0.00167005
3.56525e-06
2.9796e-06
2.34471e-05
2.68905e-06
8.536e-06
3.44575e-06
-0.000835508
-7.63763e-05
-0.0307683
3.41259e-06
3.77296e-06
0.000484618
6.67832e-06
0.00304686
-0.00134886
-0.00202979
0.0072325
-3.85687
0.00059562
6.53555e-06
3.25679e-06
3.95993e-07
1.05347e-05
-0.0589884
0.000410077
0.00669128
-4.34989e-06
4.8084e-06
0.000115873
9.64683e-06
-0.976265
-0.000639284
4.17481e-06
8.04533e-06
1.02463e-06
2.68436e-06
5.52793e-06
1.06049e-05
-0.00898322
7.52985e-06
1.99027e-05
-3.99804e-06
4.89341e-06
3.22797e-06
7.71388e-06
-2.26568e-05
4.77973e-06
-0.00148971
6.21952e-06
-0.0355046
-0.012376
-3.57142e-05
0.0754355
0.000121012
-1.52174e-06
0.00143299
0.01958
1.10948e-05
4.20661e-07
2.5392e-06
0.000175717
-6.71485e-06
0.000588348
-0.0218053
9.75896e-06
5.60002e-05
4.7157e-06
-0.0754826
0.0368582
-3.08068e-06
2.7376e-06
-0.000246444
-0.00201322
3.22678e-06
-0.00223791
5.16349e-06
-7.25722e-07
-0.000133392
-0.00581919
-0.165573
0.00152695
-0.0317918
2.73718e-06
-0.00521815
-0.00375322
-0.000278369
-1.99277e-06
-0.00395611
9.83821e-05
0.00568723
-0.0184819
-9.42913e-07
3.202e-06
4.46106e-06
-3.14946e-05
2.60784e-06
0.067589
0.00340014
1.62088e-06
9.97184e-06
2.57332e-05
-0.000381105
-3.6277e-06
-4.22045e-06
0.00297179
4.91822e-05
3.41399e-05
-0.00435143
0.00345999
0.00324835
1.11376e-05
-2.65715e-06
1.52152e-06
9.10009e-05
-0.000799468
-0.00368733
3.28019e-06
1.41145e-06
-6.16712e-05
0.0500185
1.60438e-06
5.96634e-06
-0.00323544
4.95278e-06
3.71938e-06
5.20369e-06
-0.0320075
-2.38545e-06
3.72356e-06
1.35117e-06
0.000121076
-2.02246e-06
-0.000250399
0.0068164
5.62458e-06
0.0326957
-0.000606395
-0.00257874
-0.00152816
6.08528e-06
-0.000323883
2.28802e-06
3.76444e-06
6.30511e-06
-0.0269827
0.0198183
-0.00307378
-0.000348525
0.305251
0.00215132
2.35892e-05
0.00458966
0.00351018
-0.000171162
-2.41064e-06
0.249203
-9.11888e-06
-1.07257e-08
4.89321e-06
-0.793083
-0.0495422
0.186726
3.82391e-06
0.00519169
0.104133
-0.00131028
0.000754508
0.000207166
0.0001204
-0.000264442
-0.014151
3.99969e-05
-9.92308e-06
0.000300354
0.00215253
-0.0644725
-3.69467e-06
4.46196e-06
1.05304e-05
-3.17149
-7.6907e-05
1.51208e-05
0.231232
-0.000266154
0.000548586
0.000210766
0.0371283
4.5053e-06
-0.0851239
7.48155e-08
3.6285e-06
7.20197e-06
-4.39016e-06
-7.15586e-07
4.25996e-06
1.08001e-05
-0.455837
2.0118e-06
-0.0811314
-0.000296771
1.12695e-06
2.12127e-06
0.00276163
-1.40518e-06
3.93012e-06
-0.000104878
0.373975
0.00840788
8.82959e-05
4.33096e-06
-0.110912
4.45102e-06
-0.00230686
3.38025e-06
0.0956061
0.000914168
-0.0205691
-0.00010193
4.53268e-06
0.00372737
0.572038
0.00617037
3.95891e-06
5.162e-06
-0.000123279
0.105877
2.26327e-07
-0.0017452
-0.000259396
0.000211338
3.84336e-06
9.88322e-07
2.40606e-05
1.67268e-06
-1.17771e-06
0.000447745
-1.86668e-05
0.000129484
0.00786949
-0.0156502
3.92001e-06
0.0476222
5.16991e-06
0.00688646
-3.19089
0.00529416
1.53115e-07
-2.231e-05
3.92463e-06
-0.077095
-4.20059e-06
3.78289e-06
0.00506357
9.82179e-06
2.7022e-06
8.32327e-06
2.3062e-06
7.59919e-06
-0.242568
-0.0347397
0.000350904
3.61903e-06
7.55412e-06
-0.00541279
-3.45619e-06
-0.000114493
-5.80872e-06
3.30088e-06
-2.79076e-06
-8.44353e-06
0.0115624
-0.000477884
4.74243e-07
3.04308
9.74248e-06
3.49907e-06
-0.000118525
-3.0492
-0.0228322
3.44206e-06
2.09603e-05
0.0817755
-0.0330551
-0.0223212
-1.63111e-05
-0.000261738
-0.00295862
-5.59451e-06
0.000702988
4.22069e-05
-0.0267282
0.000140154
8.50843e-06
-7.96978e-06
4.12392e-06
-0.0291463
1.6425e-06
-8.93249e-07
0.0472139
3.23834e-05
-0.00682986
2.1462e-06
3.48164e-05
-2.9507e-06
-1.89291e-06
3.42654e-06
-7.38102e-05
3.4192e-06
2.02276e-05
3.15252e-06
1.25592e-05
-0.00191452
0.00021266
0.000142368
2.30642e-06
7.90997e-05
2.52355e-06
0.0241479
-8.55127e-06
2.2032e-05
-4.47823e-06
-9.61048e-07
1.76429e-05
0.000355806
1.11119e-05
3.35884e-06
1.06866e-05
1.83457e-06
-0.0978998
0.0449671
1.40706e-05
-0.0323101
-0.000634712
-4.40222e-06
3.50667e-07
-1.47509e-06
0.442472
-5.40939e-05
7.96331e-06
2.06259e-06
9.89364e-07
0.237673
-4.78675e-06
-3.35768e-06
0.0408616
2.98108e-06
-1.00058e-05
-0.000111348
-0.000583532
-0.00665447
0.00828499
-0.05993
-3.18156e-06
-0.329735
-0.000220458
5.75029e-06
1.67426e-06
-0.000196841
7.71475e-06
-0.000523883
-0.00129492
3.40489e-05
-6.6865e-06
-0.269221
0.00127135
2.84934
0.193102
0.0398514
-0.0111174
-2.13335e-05
-0.602332
-0.117386
3.04588e-06
-0.447668
3.80015e-06
-7.79727e-06
0.00582255
2.83312e-06
0.0138912
0.000195444
4.03699e-05
5.45633e-05
0.0116563
3.9245e-06
-0.0851453
7.1893e-06
7.86562e-06
0.524452
-1.17552e-05
6.05447e-05
-2.97965e-07
-0.00137775
9.85731e-06
1.05818e-05
4.97698e-05
0.0275677
1.2735e-05
-4.99759e-06
8.74215e-06
-7.50178e-05
7.25095e-06
-7.69832e-06
-0.00479924
8.11922e-06
-0.000175397
6.47253e-06
3.90638e-05
0.000519382
6.92187e-06
-2.02115e-06
0.00599792
2.04435e-08
-2.32095e-05
0.000138328
0.0468894
7.13537e-05
7.3877e-06
6.30428e-06
-0.000284686
-0.00545471
4.80585e-05
7.14986e-06
7.86929e-06
4.11183e-06
-1.54426e-06
-2.58989e-06
0.000356117
-0.000116895
-0.00126157
8.49294e-06
0.889483
-6.45403e-07
7.18422e-05
0.195183
0.00051002
-9.18832e-07
-0.00169331
5.67065e-05
7.07462e-06
-0.0358028
1.10778e-05
-0.00227883
-2.1176e-06
0.00677669
5.73443e-06
-1.84855e-06
-2.0886e-06
-0.0108192
-0.0136407
3.4903e-06
-0.00401799
-2.24644e-06
-2.41471e-06
4.02485e-06
0.00466746
4.22669e-06
4.93413e-06
0.00037004
4.471e-05
7.77737e-06
7.30445e-06
5.89949e-06
-3.84648e-05
9.68588e-06
2.75467e-06
4.74049e-05
3.47817e-06
0.122719
0.000585507
8.81807e-06
-0.0149339
-0.000262303
7.54483e-06
-2.21925e-06
-4.99678e-06
3.07265e-06
-0.000382849
-0.000121126
0.000736532
0.00134867
5.64015e-06
0.00365051
0.00795483
5.28296e-06
5.30067e-05
0.00357571
-0.000171499
0.044107
-2.06863e-06
5.52008e-05
4.16239e-06
0.00029257
-4.88233e-05
-0.000161683
6.71479e-06
0.00104698
-2.94391e-06
-0.000140274
-2.92819e-05
0.00768936
9.58114e-06
-8.65664e-05
0.00321042
2.01371e-05
-0.023587
0.180832
-5.50527e-05
1.54379e-05
-0.000445086
-5.53948e-06
-0.00225223
7.16508e-06
-0.00113192
0.222998
-0.0454603
0.00284178
0.00156774
-0.000323363
-3.43571e-06
-0.000652127
2.51085e-06
-0.168701
0.00144721
7.10805e-06
6.66753e-06
-0.0128707
-0.000239577
7.51156e-06
3.58908e-06
-1.23419
9.58685e-06
5.05931e-06
-0.0472156
0.0010946
3.503e-06
-0.00470316
3.01687e-06
0.0155758
0.00089365
7.73037e-06
4.0821e-06
0.000308672
-0.0278247
2.99617e-06
-0.000282173
4.46821e-06
7.72053e-06
4.56377e-06
0.381746
7.97745e-06
2.11367e-05
-5.1544e-07
-0.00269232
-0.000286985
2.76891e-06
-1.37292e-06
0.00668382
5.44608e-06
2.43365e-06
-0.0141102
-2.74945
-1.97152e-06
-0.0790997
0.000295723
0.000496986
-1.42429e-05
4.92647e-05
-0.0146937
-0.000297893
-2.52293e-05
-4.91237e-06
-9.91466e-05
5.35906e-06
0.352015
0.336198
3.6257e-06
6.88364e-05
3.2847e-06
9.84198e-07
-0.150605
5.82826e-06
5.56051e-05
-9.0499e-06
0.00368831
3.85175e-06
3.84905e-06
-0.000123077
-0.0131382
7.27656e-06
2.18001e-05
2.29708e-06
1.80223e-06
-8.89519e-05
0.000641598
-1.30325e-05
3.06789e-06
1.73454e-05
5.14466e-06
-5.06656e-06
-0.0781695
7.6344e-06
1.76791e-05
2.96364e-06
0.00112126
2.72707e-06
2.636e-06
-0.00132791
-7.04809e-06
0.00140107
-4.39835e-06
3.19559e-06
0.033738
0.263517
-0.0320251
-0.0518488
-9.74394e-05
4.99945e-05
-0.128249
-3.24615e-06
-0.000108306
7.18822e-06
0.0482352
3.48259e-07
-8.31719e-05
3.80742e-06
-0.325496
-0.000250692
0.00363439
-0.0787635
8.5141e-05
-0.00302549
1.38356e-06
2.67541e-05
-0.507536
-0.000712944
8.65625e-06
2.80057e-06
-6.50392e-05
-0.000373072
6.10121e-06
1.81381e-05
-3.18442e-06
-5.97745e-06
0.0359014
0.0339943
5.4901e-06
0.00069907
-1.6993
0.0496996
-0.000157359
-2.35325e-05
-4.21153e-05
-8.96213e-05
9.99433e-06
-0.000243202
0.0231233
6.956e-06
3.10176e-06
3.93642e-06
0.0244161
0.810191
-0.000224299
8.40704e-06
3.45328e-05
-0.00014584
5.18487e-06
0.000232856
-0.00216445
-0.0004854
-6.3793e-05
0.0424256
1.32028e-06
7.31113e-06
3.34913e-07
-2.35097e-06
9.74625e-06
5.61604e-06
-0.00217926
6.13969e-06
-0.114109
1.12373e-05
5.04049e-06
2.40823e-06
0.000947172
5.82416e-05
0.000148328
-0.00418449
5.44187e-06
-0.0600946
0.000153503
1.88659e-06
-6.64062e-07
0.0335628
-0.617873
3.97184e-07
3.40808e-06
-8.48311e-06
-0.000316933
0.00340331
0.00272359
0.000203665
-2.81019e-05
0.00703689
-0.0244575
1.75204e-05
8.89115e-06
-0.844683
-9.31623e-05
-0.0258111
7.9009e-05
3.43029e-06
0.000519259
0.000194253
0.271595
0.000360999
0.0221002
2.41082e-06
-2.01176e-06
-3.1419e-06
8.28069e-06
-8.08692e-05
5.06802e-06
8.98908e-07
3.76052e-06
-3.83819e-05
5.62379e-05
0.000272748
-7.33917e-05
-8.32945e-06
2.43612e-05
4.87353e-06
1.06213e-06
0.000343972
0.00056951
6.95886e-06
3.56545e-06
0.00670847
6.83905e-05
-0.00028423
5.52998e-05
0.0710069
2.43616e-06
-0.000369729
-6.80041e-05
6.56493e-06
-3.45718e-06
-0.0446282
-0.00116536
5.65164e-06
0.000145337
0.00013602
-0.00193141
6.40529e-06
-5.80855e-05
4.71261e-05
6.78292e-06
0.00448936
6.9753e-06
7.39763e-06
-0.00017068
-3.04042e-05
-0.00037814
0.0138276
0.0572736
0.000154655
8.26721e-06
9.84252e-06
9.0247e-06
0.00489405
-1.96951e-06
0.0919467
4.40135e-06
3.95519e-06
5.87986e-06
0.00243747
9.7547e-07
1.05841e-06
-4.51404e-06
0.0088031
2.63373e-06
-0.128477
2.66439e-06
0.00023262
-4.24024e-05
-0.000248298
6.51869e-06
-7.69899e-05
0.00671311
-0.0054976
7.45663e-06
6.13295e-05
3.45661e-06
6.35198e-06
-0.734965
0.0481061
3.29675e-06
8.42797e-06
-0.000168205
-1.68014e-06
-3.14433e-06
2.47222e-07
1.9928e-07
0.000155184
0.000601119
7.70909e-06
-0.00029388
-0.0103068
4.17103e-05
7.61528e-06
8.88012e-06
0.000383926
-0.000632253
9.91055e-06
0.174604
-3.09534e-06
-0.0853243
0.000159795
-4.47407e-06
3.86114e-06
3.17955e-06
0.105888
-5.25399e-05
2.88212e-05
6.01475e-06
-0.000210999
0.107037
-0.000101851
-0.000446821
1.23475e-06
3.32764e-06
-2.62047e-05
4.54709e-06
-0.000103826
7.82905e-06
4.47087e-06
2.19585e-06
2.10783e-05
-0.0922172
-0.000425665
0.295704
5.88918e-06
-0.000101225
9.08514e-05
0.0560055
-0.0033763
-0.157095
1.69182e-05
6.94219e-06
8.3621e-05
5.85283e-06
-0.0480043
-6.50805e-06
-0.000835221
5.77261e-05
-0.0428426
-0.744181
0.000108761
-0.000398363
3.09335e-06
3.775e-06
8.49441e-08
-5.52542e-06
2.41894e-07
-8.15289e-06
3.66837e-06
0.000183638
-0.00281671
0.0775433
5.01495e-06
0.00162794
2.33695e-06
7.51172e-06
9.73192e-06
0.00597813
1.40568e-05
-0.0135433
1.13817e-05
-1.23335e-05
0.159233
6.45765e-06
4.47413e-05
9.53905e-06
0.000144125
-0.144291
0.000133953
0.0440409
0.000108711
-0.00351985
-3.49361e-05
6.86598e-06
-1.57433e-05
0.00386583
1.09689e-05
8.07617e-06
-3.13744e-05
7.66126e-06
-0.0902862
5.33885e-06
-2.36513
-0.168904
-0.00207939
0.000186524
-0.00543771
-0.00060726
-6.08429e-06
0.705777
7.59301e-06
-0.0898853
1.75873e-05
-3.74156e-06
-0.0167582
-0.00386862
-8.04834e-05
0.249104
8.12378e-06
0.10936
-1.1098e-07
-0.0854341
2.99745e-07
-0.000483996
0.000736436
0.000112925
3.64691e-06
1.7311e-05
-5.10794e-06
0.000266902
0.0564346
-0.00124249
0.0569295
-6.64256e-06
0.541923
4.21066e-06
-5.06296e-05
-9.59964e-07
5.635e-06
-0.0592596
-2.24455e-05
3.36938e-06
9.74168e-05
9.88583e-07
0.0287923
-0.00352325
7.89657e-06
0.00118993
-0.00124148
2.49818e-06
2.04923e-06
0.00016955
4.43919e-07
0.00134866
-0.000472931
2.36649e-05
-7.53157e-05
9.55466e-07
-5.83755e-06
0.00125914
2.56632e-05
1.84867e-06
-1.15135e-05
-8.88699e-06
5.03901e-06
2.1998
0.00028415
0.0630757
-0.000347222
0.00112498
9.39072e-05
3.00053e-06
0.000163257
-1.04296e-05
6.29052e-06
0.042987
1.22545e-05
-0.000263832
-0.00200669
1.99519e-05
-0.000334753
-0.385973
-1.12951e-05
0.000507806
-6.73388e-05
-0.0201876
7.96435e-07
3.61984e-05
4.34323e-05
0.000408742
0.0664946
-0.000269883
-9.41136e-05
1.70034e-05
9.00377e-06
-1.59649e-05
-0.0129787
1.89777e-05
-0.000409714
-0.0255396
3.30668e-06
0.00012582
0.000232027
9.76153e-06
7.90422e-06
-8.07545e-06
0.00158685
0.00123142
1.96562e-05
-9.87455e-05
-0.0331748
-7.68651e-06
7.4646e-06
0.000111736
2.35447e-06
-0.00771888
-0.00867714
-0.153429
-0.00523034
0.306467
0.000106815
5.71725e-06
0.0050367
0.000441623
0.000326436
-4.57275e-06
-9.11794e-07
0.014458
0.394153
6.56381e-06
3.38487e-06
-0.000100128
-0.00250014
-0.000125671
-2.7992e-06
-0.310451
-3.6533e-05
-0.000470118
6.28381e-07
7.64909e-05
-1.45636e-07
-7.81641e-05
0.00030144
8.76463e-06
0.0517931
-2.92235e-06
-0.00146151
-0.00458711
0.0974755
-0.0048755
9.51079e-06
0.00146482
-0.000126496
-0.000189799
1.2617e-05
-6.20067e-05
3.99018e-06
0.000102473
-0.000590814
-3.29857e-05
0.00281558
2.88876e-06
0.00297261
2.56045e-06
-1.44325e-06
-1.36757
-0.00014856
0.00453265
0.00036556
-6.30041e-06
0.186887
-0.386166
6.03816e-06
0.0689489
2.24123e-05
4.15125e-06
-4.79322e-06
0.0337903
0.239782
-6.41704e-06
-9.81369e-07
5.45157e-05
9.0369e-06
-0.154081
-0.0857655
6.74021e-07
-3.97536e-07
6.16944e-06
-0.00512897
0.000782425
0.00935778
1.69868e-06
-3.54064
-1.25392e-05
-0.00433545
-0.0380098
2.35302e-06
4.64575e-07
-1.43044e-05
-0.00229045
1.99086e-06
7.73594e-06
8.20637e-06
-0.000244497
-0.000132158
-0.0786778
0.000182669
1.56815e-05
8.04421e-06
-0.000200723
-0.00510646
0.000778924
7.26177e-06
-4.49146e-06
0.00681657
0.000330422
-7.08252e-06
-0.188571
0.000520005
9.55775e-05
-0.218442
-3.10843e-05
0.000202794
-1.77122e-07
-0.0130382
7.2112e-06
6.38856e-06
2.0892
-0.000278103
6.83935e-06
8.13557e-06
-7.74366e-07
0.000960892
0.00179225
6.78234e-06
-5.99634e-07
3.20192e-05
0.00320316
0.000457897
1.00518e-06
8.11585e-06
4.94101e-06
4.95981e-05
0.000131188
-7.57037e-06
-4.6897e-06
-0.616414
2.92467e-06
0.460078
-0.000847339
-0.000770215
-4.58703e-05
3.01208e-05
1.338e-06
1.92563
-0.00466763
0.00292948
-0.177406
-0.000715519
6.2052e-06
-0.0623076
3.83454e-06
0.0037605
-0.1271
7.0566e-05
7.07488e-06
-7.74585e-05
0.00265741
5.94613e-06
-7.70059e-06
0.489332
8.14051e-06
0.000203111
-0.000241994
-2.78856e-05
-5.56721e-06
-0.00377299
0.00821106
5.1914e-06
5.48857e-06
-0.818093
5.51508e-06
1.08412e-05
6.15806e-06
3.24284e-06
-0.0109274
-4.59485e-05
9.31763e-05
1.3103e-05
-2.78623e-06
-3.72863e-06
0.000406794
0.00684694
-0.000302678
-2.02767
6.07113e-05
0.000128475
-0.179966
6.70689e-06
2.94629e-06
-5.38796e-06
2.04715e-06
9.44529e-06
-1.91857e-06
-6.77188e-05
-0.121727
-7.12173e-08
3.42928e-06
9.71952e-06
5.62124e-06
0.0732746
2.17768e-06
-0.357607
0.00532639
0.000183819
-0.000483089
0.0110766
-0.000150059
-1.18667e-06
8.75285e-05
6.91393e-06
6.84166e-05
9.185e-05
5.1517e-06
-0.0444609
2.55592e-06
6.49913e-06
-0.0014812
0.535438
1.52064e-06
5.85505e-06
0.00186567
8.41181e-05
0.000421715
8.28498e-06
5.97945e-06
-7.40326e-06
2.67379
2.06871e-05
0.598966
-0.00112725
0.000167111
5.62435e-06
-1.63362e-05
-0.000160876
0.0296282
5.69047e-06
0.000242434
3.93284e-06
-0.187675
-0.024868
-7.07443e-05
-0.00347389
9.50856e-07
9.45863e-05
-0.000182698
-0.610812
-6.12377e-05
8.91104e-05
-0.000142359
-0.00480503
2.19712e-06
0.00114285
3.51631e-06
-0.000681646
0.00715881
0.0133566
-4.98469e-06
0.000419016
0.106822
0.477773
0.000106627
-6.97971e-05
0.113963
0.126147
2.11795e-06
0.00172374
-1.59188e-06
0.000183792
6.53711e-06
7.27284e-06
7.08893e-06
0.994306
-5.48261e-07
1.02962e-06
-0.000126232
-0.00952588
0.108102
0.00852349
-0.0262965
2.59213e-06
0.140744
-5.87455e-05
9.49718e-06
6.51387e-06
0.00901168
-0.000119617
2.44043e-06
1.10786e-05
-0.00202034
4.25721e-06
8.28467e-06
-2.57099
4.12062e-06
5.7255e-06
6.83881e-06
5.66055e-06
-2.13458e-05
-1.90454e-06
-0.443048
-5.26334e-06
2.93839e-05
-3.16584e-06
0.00053178
0.201595
-2.24966e-06
1.09336e-05
0.0328049
0.0092564
6.3824e-06
-0.000105825
4.58056e-06
6.79117e-06
-0.00229183
0.00405952
6.86515e-06
-1.48462e-05
0.030636
0.000801051
0.0325672
0.00278069
-0.000216079
-0.000647863
-1.54429e-06
-0.000138993
-0.000112881
-1.58141e-06
0.396965
-0.802687
-0.000798355
0.00173658
-2.51689
-1.49256e-06
-1.2031e-06
4.37558e-05
-0.00131669
-0.125915
2.94693e-06
-0.000945669
-0.18307
-3.42903
1.86998e-06
-1.9686e-05
-0.324209
-9.57399e-06
6.57885e-05
-0.0269378
7.00185e-06
6.81871e-06
-2.3837e-05
-0.0298414
-6.34737e-06
1.3969e-05
2.21605e-05
0.00130924
0.000492426
0.00710215
-6.78503e-07
3.19731e-06
0.000248059
-1.6141e-05
-0.000236949
-6.86357e-05
0.00634787
0.00755923
6.07545e-06
6.91227e-06
0.0847684
-2.21547
0.15016
4.51344e-06
7.93472e-06
1.75598e-05
9.76196e-06
7.47009e-06
6.47637e-06
1.87568e-05
9.0055e-06
4.12632e-06
3.19739e-06
-0.00345185
-0.000114752
0.000266197
0.0868158
6.27735e-05
2.37902e-05
0.000264848
0.00233587
0.00099065
-0.000433884
5.54604e-05
0.000288113
2.71545e-06
1.08631
1.31439e-06
2.38619e-06
-2.29684e-06
-0.0147144
-2.73484e-06
-0.0119701
1.50757e-05
1.91067e-06
-0.00111059
-3.56732e-07
4.04188e-06
-4.90526e-07
-0.00169347
-0.0604249
-2.23195e-05
-1.8126e-06
-2.77995e-05
-0.367226
0.000158256
0.0494462
-4.85845e-06
0.000111431
-1.5307e-05
2.90106e-06
8.72673e-06
3.48121e-06
7.74162e-06
0.000101105
-0.171105
2.14686e-05
-0.000373256
0.00776515
-1.0336
0.00688188
-2.45333e-07
0.00360771
-7.47284e-05
-0.146835
2.34952e-06
3.16999e-05
-0.00198294
-0.00220648
3.0704e-06
6.95866e-06
3.7277e-06
2.62662e-06
0.0077654
1.15873e-05
-0.00452004
-0.000433356
2.68857e-06
1.21552e-05
6.87447e-06
-0.356194
-1.93266e-06
-0.00251449
1.65733e-06
-0.00033999
-4.08738e-06
5.40872e-05
0.025132
1.08512e-05
0.000224854
-0.534751
7.51695e-06
1.03863e-05
-4.37001e-05
1.11224e-06
-0.0490889
-0.000285949
1.71839e-05
0.000623205
1.36375e-06
0.000145999
5.76353e-06
-2.40276e-06
8.77624e-06
-8.15732e-06
-1.16709e-05
4.11416e-06
9.62901e-06
4.27436e-05
-4.34758e-05
7.7843e-06
0.0146217
-8.1241e-07
6.9298e-06
-0.000271492
-0.00217942
2.30784e-05
-5.05593e-08
7.78377e-06
1.33526e-05
-0.00160528
-0.341181
-5.51095e-05
5.23531e-07
-2.4174e-06
3.00251e-06
-0.000517303
7.41537e-06
5.70559e-06
-4.34772
-0.0189174
0.000839901
7.70829e-06
4.88792e-05
-7.78739e-06
-2.29254e-07
0.00207651
2.34032e-06
-0.00584388
1.14329e-06
0.0224596
-0.000303106
-1.99229
-1.79743e-05
-0.00232251
-0.106762
-0.00482965
0.130386
-5.36075e-05
0.044111
-2.33655
-7.94582e-07
-5.22252e-06
-0.0732777
-6.9147e-05
4.28749e-06
6.2193e-06
4.32914e-05
0.188716
7.71248e-06
0.000165344
-0.0738241
6.13045e-07
4.31696e-06
-1.72574
1.1341
0.00716315
0.139478
-0.0545905
-5.67753e-06
-0.00364578
-0.000138584
-0.000161977
0.0319479
1.31256e-05
0.0338547
0.0148972
-7.44167e-05
2.00189e-05
2.72536e-05
-0.000158803
5.2303e-06
-0.34978
2.78553e-06
7.80828e-06
1.04534e-05
0.108773
-0.0793343
-0.00327279
1.63083e-05
7.6572e-06
-8.60085e-06
-0.0480562
9.08884e-06
5.36472e-05
-4.62102e-05
0.0138436
4.63755e-06
0.000849828
-0.00271472
0.0213822
-4.17703e-05
0.0385027
-2.46745e-05
0.309817
2.93501e-06
0.00228627
0.000379158
0.00315275
-0.00017901
-0.71907
0.00621019
8.00768e-05
-6.53301e-05
0.000298494
0.000152672
3.5009e-06
4.24577e-06
0.000282149
4.17609e-05
0.0533628
-3.95534e-07
9.59104e-06
4.52534e-06
6.39983e-06
0.0466262
3.24131e-06
8.76605e-07
2.68388e-05
-0.0376077
-0.000281068
0.000253002
6.04659e-05
-2.08256e-05
0.0018028
-1.48933e-05
6.92665e-06
-0.00366957
-5.32653e-05
1.02224e-06
-0.000971401
-3.69696e-05
0.0536076
8.54424e-06
0.0140217
0.000277607
3.07241e-06
1.69489e-06
5.12476e-07
5.64975e-06
6.55243e-06
-0.298945
-0.00257143
1.00231e-05
8.13291e-06
1.71556e-06
1.1052e-05
-0.00025805
-0.0628454
0.00011409
-0.000496301
1.17621e-05
0.00386522
-1.23673e-06
-0.00189176
7.37906e-06
8.56564e-06
0.000486134
8.32217e-06
6.91187e-06
-8.2666e-06
4.92039e-07
-0.026218
7.67614e-06
3.47065e-06
-0.0537857
0.0199673
-0.000629528
-3.54374e-05
6.42664e-06
-5.97853e-05
-0.333561
-4.843e-05
2.14089e-06
-1.99883e-05
-0.260792
2.66669e-07
1.99233e-05
1.35248
8.68385e-06
-0.000173858
1.91372e-05
3.68431e-06
6.43573e-06
-0.000325277
0.000302432