/*--------------------------------*- C++ -*----------------------------------*\
| =========                 |                                                 |
| \\      /  F ield         | OpenFOAM: The Open Source CFD Toolbox           |
|  \\    /   O peration     | Version:  v2012                                 |
|   \\  /    A nd           | Website:  www.openfoam.com                      |
|    \\/     M anipulation  |                                                 |
\*---------------------------------------------------------------------------*/
FoamFile
{
    version     2.0;
    format      ascii;
    class       volScalarField;
    location    "400";
    object      p;
}
// * * * * * * * * * * * * * * * * * * * * * * * * * * * * * * * * * * * * * //

dimensions      [0 2 -2 0 0 0 0];


internalField   nonuniform List<scalar> 
18355
(
-0.0730268
-0.1065
0.0167702
-5.53249e-05
-0.0223949
-0.100006
0.0116852
-0.124359
0.0795217
-0.117688
-0.00588206
-0.386861
-0.161704
0.0342871
-0.0029914
0.0353492
-0.458321
0.00133023
0.0174716
-0.100348
0.0534189
0.0471624
-0.162066
-0.0217299
-0.031004
0.0212705
0.0249526
0.0766708
-0.111809
0.0282592
-0.0161663
-0.0280021
0.00136561
0.00339232
-0.119497
-0.0770741
0.0643565
-0.202175
0.0753212
-0.00624851
0.0347983
0.0338049
0.0169811
-0.127023
-0.00214895
-0.212763
-0.122374
0.0847707
-0.109518
0.00198904
-0.00410161
0.00341145
0.0203562
-0.116928
0.0177604
0.010891
-0.0829521
-0.00260001
0.411241
-0.219756
0.0023927
-0.106316
0.000194765
-0.00605739
-0.384729
-0.0703456
-0.0893225
0.154485
0.0246474
0.0458657
-0.141018
0.0129712
-0.227416
0.00525183
-0.124757
0.011625
-0.119121
-0.0284294
-0.0408906
0.00334885
0.0120013
-0.313012
0.05137
-0.0524724
0.0214511
-0.159021
-0.0807463
-0.100777
-0.113896
-0.126931
-0.136066
-0.00217699
0.0189848
-0.00393927
-0.132306
-0.164341
-0.00592073
-0.0465204
-0.114797
-0.45267
-0.113537
-0.455547
-0.0804785
-0.130291
-0.0219014
-0.129776
-0.404314
-0.149147
-0.0744217
0.350816
0.0233287
0.0698897
0.0220459
0.0717695
-0.109039
0.00994527
0.4719
-0.117811
0.462717
-0.0770474
-0.118711
-0.358258
-0.0277776
-0.141276
-0.00532271
-0.152886
0.00293271
0.0181733
-0.400746
-0.00378976
-0.00405683
-0.18024
-0.0975694
-0.0455059
0.0921238
0.018024
-0.000497399
-0.00595977
0.0299025
-0.156294
-0.115704
-0.132241
0.0245365
0.0237421
0.449902
0.0472225
0.107339
-0.0766885
-0.037162
-0.0748127
-0.0221039
0.0477427
-0.114433
0.436208
-0.0838127
0.0139895
-0.177471
0.471013
0.0138707
-0.11184
0.0106468
-0.0254027
0.108464
-0.04662
-0.104182
0.178426
-0.455398
-0.100648
-0.202892
0.00320894
-0.144344
-0.16912
-0.00525259
-0.00574963
0.0326695
-0.0966832
-0.0639456
0.0179501
-0.393279
-0.439931
0.289939
-0.199846
-0.057099
0.00955489
-0.10988
-0.0956895
-0.13604
-0.13781
0.0808948
-0.457833
-0.0812281
0.0167127
-0.0457439
-0.126579
0.106725
0.0455174
-0.251623
-0.0560497
-0.0812496
-0.00557786
-0.0299215
0.0787586
-0.449393
-0.141338
-0.323862
0.0236952
0.47514
-0.433441
-0.383058
-0.0794914
-6.01243e-05
-0.0215573
-0.0977476
0.0240877
0.00348119
-0.304031
-0.117844
-0.0977735
0.0219897
-0.0361357
-0.321955
0.0281172
-0.0464087
-0.000691616
-0.457877
0.0375639
-0.4459
-0.0897814
0.371452
0.000829656
0.0202362
-0.0394926
-0.00840363
-0.448536
0.00812424
0.02073
0.018083
-0.188554
-0.124659
-0.321271
-0.0721274
-0.209032
-0.0162719
0.00415258
0.0405578
-0.0903546
-0.375417
0.511898
-0.0821106
0.00895774
-0.0293887
0.179994
-0.0576203
-0.389425
0.0325504
-0.456564
-0.11937
-0.113327
0.0226395
0.00688876
-0.0664561
-0.151344
-0.452979
-0.100119
0.00644063
0.00367773
0.0196972
-0.208326
-0.0942199
0.347451
0.039995
-0.083573
-0.138971
-0.129243
-0.0150504
-0.259486
0.00295077
0.0253125
-0.32392
0.00447029
0.0117693
-0.132435
0.0164706
-0.143565
-0.0567162
0.0928744
0.00472437
-0.100238
-0.403192
-0.0285862
0.000229654
0.0317166
-0.121723
-0.116175
0.0195531
0.0124198
-0.111859
-0.0911256
-0.082243
0.247305
0.0250436
-0.146453
0.0578133
0.0124214
0.257905
-0.104899
-0.11189
-0.122221
-0.00375427
0.302961
-0.0204791
0.0185325
-0.364032
0.0207156
-0.211737
0.0489352
0.0189606
-0.00206637
-0.212953
-0.0809436
-0.430779
0.00459174
0.104806
-0.127363
-0.010793
-0.126659
-0.0365816
0.0547125
-0.12664
-0.00357416
0.133851
0.0202646
0.0932641
0.0115402
-0.0820147
-0.431608
0.0213392
-0.453604
-0.0851302
0.0264258
-0.118673
-0.106599
-0.141126
-0.11239
-0.128637
0.0321398
0.00030229
-0.198588
0.272583
0.0197184
0.0109216
-0.114608
-0.109415
0.227182
-0.19402
0.0232952
-0.0350459
0.504404
0.022601
0.0083802
-0.150786
-0.0788501
-0.0375251
-0.0805669
0.0172748
0.169035
-0.331955
-0.356748
0.000238311
0.0363277
0.0281519
-0.00364108
0.147672
-0.00418242
-0.091303
0.0277598
-0.0109874
0.0233025
0.0781782
-0.0125633
0.0123914
-0.0111697
-0.0112351
0.0255188
0.359569
-0.186734
-0.00182359
-0.130654
0.0664915
-0.182738
-0.071029
-0.154659
0.0420326
-0.138982
0.0624817
0.010094
0.0209215
-0.00162205
-0.116565
-0.0343268
-0.00213151
-0.099888
-0.0871413
0.0223794
-0.0107503
-0.450416
0.0449984
0.00339429
0.282025
0.0156131
0.514759
-0.456548
-0.148298
0.10412
-0.0212593
-0.402079
0.0129588
0.0219506
0.287913
0.0155767
-0.00508393
-0.458303
0.00484187
-0.433258
-0.0676803
-0.0696711
-0.457462
0.0580974
0.0215444
-0.124221
-0.0980398
-0.144644
-0.136367
0.0275563
0.00985793
0.0484065
-0.110564
0.0560405
0.0175775
0.0143447
0.0255081
0.174254
0.500585
0.0307773
0.0474498
0.0199425
-0.069809
-0.132816
-0.115993
-0.454978
-0.15623
0.218122
0.15365
-0.125702
-0.01841
0.00728833
0.0314384
-0.00194893
0.164167
0.0248896
-0.00203429
-0.452889
0.182134
-0.113789
-0.125834
0.22701
-0.0959304
0.00883601
-0.0119924
0.0268239
0.0120078
0.0142738
0.0200586
0.0252655
-0.131033
0.00347555
-0.00335262
-0.347585
-0.221412
0.00759025
-0.0280413
0.0666013
-0.35554
0.0325167
-0.00706918
-0.133277
0.0762497
-0.0921617
-0.0363822
-0.00353744
-0.452841
-0.223509
0.00159548
-0.39656
-0.125604
-0.459614
-0.00295798
-0.0067966
-0.00577126
-0.117342
0.0574401
-0.0850474
-0.115068
-0.129808
-0.364744
-0.00187344
-0.0662115
-0.0974525
-0.165533
-0.105345
0.0442325
0.0385715
0.0152642
-0.142148
-0.455431
-0.137705
0.0362408
0.0293469
0.0233208
0.0595665
0.0250027
-0.119026
0.0169091
-0.108187
0.0363802
0.025045
0.00708873
0.148948
-0.00883958
-0.131617
0.0168188
-0.118539
-0.225421
-0.0515841
0.0216216
0.0797013
-0.0472385
0.0167031
-0.0768718
-0.0805727
-0.0513419
-0.225837
0.0103957
0.00154157
0.0307897
0.0213568
-0.0947456
-0.0367276
-0.108769
0.00896477
-0.0220923
-0.134425
-0.0033255
0.159381
0.061752
-0.208424
0.0903263
-0.112152
-0.0229951
-0.13098
0.0918011
0.0843574
-0.116279
-0.134911
-0.413026
-0.0499038
-0.0331929
-0.00285933
0.0279639
-0.094485
-0.114307
0.0445103
-0.0811997
-0.130242
-0.103309
0.00805282
-0.426338
-0.18898
-0.028196
0.0284579
0.161109
-0.123955
-0.0647156
0.0167149
0.27629
-0.217675
-0.121314
0.140838
0.029027
-0.0472534
-0.135151
-0.109904
-0.127762
-0.371427
0.158436
-0.175325
-0.0561535
0.0110345
-0.0289027
0.0276254
0.43906
0.374681
-0.0974287
0.348408
-0.385149
-0.194672
0.267598
0.035849
-0.103112
-0.43993
-0.00615133
0.369757
-0.101326
-0.276352
0.0270996
-0.00146175
-0.0462022
-0.045316
-0.0460722
-0.147798
0.0203494
-0.122397
0.0277533
0.0522233
-0.142904
0.0106993
-0.0075142
-0.102019
0.02173
-0.0189064
-0.247853
0.00388464
-0.116933
-0.0035218
-0.161517
-0.0504269
-0.0721877
0.0494023
-0.0296586
-0.117487
0.0972472
-0.0786214
-0.0858671
-0.0163705
-0.170732
-0.0723704
0.0707806
-0.456835
-0.340267
-0.133911
0.0235845
-0.00209773
-0.127078
0.0818729
-0.0790451
0.016632
-0.0575788
-0.156752
-0.139034
-0.0945379
-0.131697
0.166384
0.00801712
-0.00156879
0.016587
-0.10294
-0.0965733
-0.00867379
-0.40376
0.0230716
-0.0876453
-0.00173576
-0.392549
-0.448858
0.0290129
-0.00605275
-0.0960058
0.0164704
0.00127591
-0.212109
0.367154
0.0537854
0.0274268
-0.0952288
-0.109418
-0.0408549
0.265862
0.0118253
-0.098654
-0.0951558
0.0389912
0.417327
-0.171581
0.0124442
-0.140182
-0.000317179
0.0214058
0.0573562
0.179587
-0.454584
-0.0835391
-0.109957
0.00190456
-0.0906663
-0.373398
-0.0568607
-0.382314
0.0366798
-0.43792
-0.0287046
-0.0783834
-0.104618
0.0255387
0.362938
-0.00491683
0.0950532
-0.421301
0.303008
-0.405026
0.00614247
-0.113316
0.033122
-0.0781075
-0.0200601
0.0200043
-0.0473857
0.00562576
-0.000286941
-0.0858075
-0.130104
-0.272819
0.00995816
0.500177
-0.0554833
0.00612796
0.0234799
0.0762372
-0.12749
-0.426632
-0.0797746
0.00332011
-0.0133161
-0.105286
0.0230075
0.0214965
0.00554422
-0.0154592
-0.0688453
-0.123007
0.0107769
-0.247154
0.0990669
-0.187951
-0.456432
-0.0921975
-0.00163129
-0.0681876
0.0164033
0.00234136
-0.0566632
-0.10263
0.00647782
-0.00236209
0.000708178
-0.431214
0.0616627
-0.0168312
-0.0287331
-0.0610012
-0.13547
-0.402219
0.0139015
0.0338071
-0.136513
0.0376128
-0.369925
-0.106936
-0.443647
0.245473
0.0927465
-0.115507
-0.0488566
0.0217561
0.00460369
0.0207044
0.0514109
0.0197427
0.0528737
-0.360453
-0.135296
-0.0145189
0.285976
0.0042954
0.00640273
-0.0847257
0.0180082
0.0535609
-0.0195474
0.458883
0.508861
-0.145085
-0.403466
0.158179
-0.0891694
-0.102856
-0.0953707
-0.321283
-0.0969463
-0.185312
-0.104796
-0.458256
-0.0144485
0.0279156
0.0117058
-0.046379
-0.114966
0.00340236
0.0214154
-0.148472
0.00625805
-0.00386311
-0.000635595
0.012672
-0.111613
-0.0162383
0.0343149
-0.0965154
-0.000140995
-0.232786
0.387109
0.0221665
-0.0249541
0.00626743
0.0525706
0.00636817
-0.0233253
-0.363575
0.0327454
-0.196583
-0.0148254
-0.189786
-0.0351628
-0.088601
0.021165
-0.0748228
-0.0802171
0.0217223
0.0213973
-0.202408
0.028584
-0.449956
-0.443997
0.0410343
0.0114385
0.0176348
-0.00368944
-0.217652
0.0267978
-0.18763
-0.130015
-0.0898394
-0.456548
0.0036055
0.0171072
-0.427243
-0.326069
0.095847
0.0188434
0.0260889
0.00397205
-0.0259855
0.138374
0.390429
-0.0250545
-0.0890837
0.502889
-0.115546
0.154527
-0.0129653
-0.22184
-0.142266
-0.0309207
0.0208292
0.0445875
-0.29096
0.0251603
-0.167868
0.150755
0.0137976
0.0724594
-0.00189811
-0.0779821
-0.043849
0.00638677
-0.00294969
-0.0249662
-0.138817
0.0135288
-0.0636926
-0.118963
0.0439033
0.0163662
0.171814
-0.10101
-0.0696768
-0.240684
0.0619454
-0.00374327
0.0804477
-0.102991
0.424727
0.500735
0.00400025
0.145951
0.0190769
-0.237293
-0.00592604
-0.117718
0.143009
-0.214907
0.0133029
0.00845384
0.108585
0.0238247
-0.139723
-0.0179451
0.374351
0.0137888
0.0041041
0.0870892
-0.230247
-0.458421
-0.00701788
-0.0243917
0.0591226
-0.0166684
-0.00886963
0.0213859
-0.164229
0.0181973
-0.0930332
0.0124645
-0.372415
-0.0155989
-0.00346879
-0.349795
-0.328011
-0.141956
0.0069748
-0.0793641
-0.0160735
-0.110167
0.0586459
-0.209703
0.00303047
-0.457843
0.0150825
-0.0416449
0.0261217
0.0180653
0.0166986
-0.109051
-0.130408
-0.0878775
0.157993
-0.0447774
-0.0258687
0.0122148
0.000495832
0.00393417
0.0302081
-0.22793
-0.0194096
-0.157633
-0.188014
0.0185049
0.0632827
-0.105765
-0.0958169
0.0605159
-0.0276736
0.0700955
-0.458571
-0.087815
-0.433797
-0.0658631
-0.0879177
0.252998
0.0324292
0.0115177
-0.145837
0.0993218
-0.0149242
-0.138689
0.0833437
-0.455845
0.0170865
0.356883
0.174811
-0.144672
0.0388348
0.0255707
-0.361322
-0.0163111
-0.157728
0.041928
0.0258729
-0.385623
-0.0710262
-0.0408925
-0.419489
0.0084445
0.337117
-0.112543
0.0275609
-0.0567677
-0.11308
0.0276564
0.0114881
-0.0162164
-0.0394436
-0.0393503
-0.0860289
-0.122095
-0.0267126
0.0275815
-0.0789434
-0.000993002
-0.455607
-0.0341729
-0.0228485
-0.18482
-0.452069
0.00357294
0.0157812
-0.0376003
-0.0026113
0.000216564
-0.208311
0.017072
-0.0395891
-0.00190145
0.262503
0.00183552
0.360388
0.378501
-0.0254543
-0.121154
0.0102296
-0.0327252
0.0119219
-0.126407
0.0272919
0.007069
0.0201095
-0.00651638
0.0147107
-0.134599
-0.453335
-0.406377
-0.45625
0.0165919
0.0581551
-0.0763302
0.0455483
-0.00572867
0.168546
-0.152276
0.01134
-0.0156572
-0.219219
0.012719
0.0163958
-0.0891658
-0.0978795
-0.114805
0.078924
-0.012291
-0.432478
0.0508422
0.165856
0.0136538
-0.0526654
0.0343743
-0.154149
-0.203756
-0.0704759
0.0171858
-0.452326
0.0679473
0.00725506
0.0095501
0.0426222
0.0240258
-0.0137574
-0.117205
0.00782004
-0.140534
-0.0170092
-0.0578194
-0.333416
0.00547324
-0.168649
0.0523689
0.00537875
0.0809709
-0.0921397
0.0227306
-0.00164211
0.0158327
0.0358131
-0.0843224
0.000483128
0.048651
0.0990471
0.017333
-0.00121415
-0.447772
-0.0854236
-0.114533
-0.20494
-0.130296
-0.145351
-0.323754
-0.101918
-0.00139889
0.0506329
-0.000895527
0.362513
-0.104818
0.00137902
-0.0068883
-0.00321347
0.0126559
0.0129977
-0.0348082
-0.427053
-0.449882
-0.458188
-0.118777
0.0177348
0.0123093
0.0161405
-0.400844
-0.379108
-0.0138151
0.514922
-4.16477e-05
-0.0763986
-0.027013
-0.0403621
-0.0737052
-0.181882
0.0540149
0.359828
-0.000849902
0.0080516
-0.16422
0.0166097
0.0108014
-0.0860869
-0.119871
0.0160459
0.124175
0.0159208
0.0348169
0.00551948
0.0301958
-0.126743
0.00261576
0.025602
0.0499102
-0.122354
0.382858
0.0247759
0.160534
-0.0712141
-0.455669
-0.208751
-0.439972
-0.213666
-0.0655
-0.115155
-0.127951
-0.108592
-0.443473
-0.00196056
0.0159489
0.0217733
0.381047
0.0403846
-0.35403
-0.0107435
0.0241474
-0.380804
-0.125728
0.0554542
0.281265
0.012502
0.0720245
-0.331194
-0.0621534
0.0214149
-0.342063
-0.218689
-0.251572
-0.108751
0.0293982
-0.377363
0.0136593
-0.0645278
0.0079525
0.00694742
-0.109337
0.104191
-0.00573844
0.0165878
-0.434778
-0.00171585
-0.147981
-0.159227
0.0174586
-0.00500076
0.0967708
-0.114948
-0.137668
-0.0738875
0.0604939
-0.119904
0.0337337
-0.022329
-0.0145423
-0.0150189
0.0765503
0.246887
-0.357522
-0.123988
-0.1153
-0.45438
0.00974557
-0.21119
-0.216687
0.217721
0.01342
0.0286354
0.0165257
0.00833561
0.00913466
-0.353177
-0.214556
-0.118436
-0.124764
-0.13199
0.0260849
-0.136107
-0.454247
-0.00186261
-0.0459492
0.00664234
-0.454054
-0.0853922
-0.17577
-0.108346
0.0363161
-0.111155
-0.0193205
0.0955519
-0.0764759
-0.0541215
-0.00634266
-0.092351
-0.446687
0.0154611
-0.254821
-0.448096
-0.284811
-0.360163
-0.0709416
-0.123731
0.154934
0.251686
-0.125532
-0.00226561
0.0391782
-0.0113712
0.0126525
-0.459066
-0.0242313
-0.207244
0.000798404
-0.00163599
-0.104512
0.0215933
-0.450495
-0.0199356
0.403665
-0.0340032
0.0221617
-0.163973
-0.0346514
-0.0907343
0.00804505
-0.0101712
-0.109092
0.135009
0.0241856
0.0958717
-0.342837
-0.070212
0.508466
0.0192243
0.0210549
-0.00342044
0.0236684
-0.0458821
0.0773831
-0.000801432
-0.449162
0.0144416
0.0226036
-0.139463
-0.146144
-0.092868
-0.0561127
0.00424545
-0.0219467
-0.145284
0.503964
-0.234128
-0.422721
-0.0430849
-0.0729136
-0.104503
-0.0160736
-0.117668
-0.117545
0.00902098
-0.163042
-0.0867358
-0.120117
-0.130153
-0.376323
-0.100397
0.0436255
-0.130914
0.0348148
-0.0710751
-0.19456
0.00585208
-0.166697
0.00422323
0.0371244
-0.0999697
-0.457977
0.0712428
0.0102939
-0.079999
-0.172675
0.296816
-0.146096
0.0235004
-0.0803251
-0.00663321
-0.104435
-0.193254
0.0168454
-0.456815
-0.0137422
0.00665912
0.0438533
0.00401494
-0.24452
-0.0938095
0.0193649
-0.244981
0.0245354
-0.458679
-0.00519401
-0.102721
0.208644
-0.156363
0.097462
0.0150799
0.000206747
0.0100523
-0.185023
-0.137101
0.0116088
-0.0822337
-0.117072
-0.325617
-0.0677135
-0.0980747
-0.162164
0.0157693
-0.350894
0.00486812
-0.102722
0.00970683
0.0468747
-0.0191553
-0.150683
-0.21794
-0.110059
-0.187968
-0.453278
0.38399
-0.117796
-0.118046
0.00958821
-0.151761
-0.457175
-0.00313687
-0.0990572
-0.14986
-0.159891
0.0172948
-0.0908525
0.137812
-0.10365
-0.303394
-0.0540393
-0.1262
-0.0456009
0.00510072
-0.00171292
-0.45826
-0.201424
0.205489
-0.195711
0.00945378
-0.217088
0.0608649
-0.00196134
0.05616
-0.116626
-0.0398692
0.0216718
0.0157361
-0.332101
0.0103287
-0.0455366
-0.367876
0.00103726
0.0100885
-0.296539
0.00646838
0.142815
-0.0410065
-0.174756
0.489597
0.0211381
-0.0676424
-0.0564644
-0.0694713
-0.0557868
-0.032262
0.321931
0.421814
-0.121661
-0.246147
0.328238
-0.00550558
-0.132858
-0.104854
-0.0942766
0.00478087
0.0231662
0.369245
-0.0237045
-0.142036
0.411419
-0.0634004
-0.134136
-0.0309051
-0.192594
-0.117362
0.018837
0.0126551
0.0177877
0.00976047
-0.140354
-0.175342
-0.0466237
-0.194553
-0.108881
-0.114356
-0.0159155
-0.0382983
-0.137496
0.00826574
0.00935392
-0.121038
-0.027782
0.315449
0.00651412
0.0124221
0.0213093
-0.0510137
0.00868785
-0.0979421
-0.00430114
-0.0327483
-0.236328
-0.165061
0.494198
-0.383682
0.107577
-0.0255418
-0.209877
-0.159203
-0.190106
0.256382
0.0151836
-0.128899
0.0311731
-0.0239812
0.00504302
0.295266
-0.0878545
-0.176221
-0.152779
-0.12907
0.000973812
0.00752783
-0.0172188
-0.0993633
-0.415078
-0.109533
0.516001
0.0108723
-0.406317
-0.0284862
0.0117127
-0.0115944
0.0414383
-0.35604
0.0323787
-0.0934469
0.000793353
0.499337
0.156979
-0.0799508
-0.0252453
-0.0191164
-0.0337391
0.000826152
-0.129287
0.510821
-0.183734
-0.127982
-0.00202617
-0.181457
0.22817
0.0253947
-0.05632
-0.00697412
-0.0393741
-0.00307285
-0.351758
-0.0303435
-0.146843
-0.12253
0.00021988
-0.454005
-0.00169916
-0.0469655
0.0601831
-0.0339277
0.00359863
0.00246276
-0.0693689
0.0161617
-0.0278588
0.000485313
-0.0242169
0.511266
-0.119028
0.0588229
-0.0693173
-0.403373
0.0083238
0.0163432
-0.00554531
-0.0981014
0.00306983
-0.123268
-0.224642
0.027749
-0.120097
-0.0907314
0.0291541
-0.00376511
-0.0562948
-0.00368752
-0.119952
-0.116074
-0.129058
-0.0319643
-0.0576018
-0.00587112
0.502531
0.0792569
0.398026
0.0127083
-0.18112
-0.459437
-0.0796402
-0.0364363
-0.268611
-0.459119
-0.178649
0.060242
8.88454e-05
-0.457265
0.486579
0.00591413
0.0238151
0.420008
-0.0054443
-0.155225
0.482597
0.00247322
-0.00525508
-0.231126
-0.0927349
-0.0273616
-0.00203329
-0.0861157
0.0578381
-0.18294
0.0143595
-0.0175336
0.0177741
-0.0244679
0.0204643
-0.192831
-0.00723763
0.0282253
-0.0934685
-0.458016
-0.147184
0.00509227
-0.0434683
-0.0777741
0.044581
0.0486505
-0.0752645
0.00808442
0.0246997
-0.147146
0.0615673
0.0284951
0.0384529
-0.014019
-0.455409
-0.119143
-0.00714046
-0.0231534
0.0119332
-0.069333
-0.417589
0.0801449
-0.161023
0.0203262
0.0628478
-0.044947
-0.152783
-0.457487
0.000866862
-0.337665
-0.239606
-0.0561474
0.000865752
-0.0607063
-0.0656693
0.0431066
-0.0015455
-0.0146195
-0.0871692
0.0693721
0.493212
0.0578811
0.02771
-0.0210617
-0.104512
0.0347959
-0.0018283
-0.131371
0.165014
-0.212256
-0.102243
-0.0129989
0.402424
-0.328849
0.436707
0.0674781
0.0207931
0.0242367
-0.273122
0.206478
-0.0152641
-0.0266615
-0.108441
0.45654
-0.457358
0.0176491
0.113772
0.0490672
-0.115579
-0.343567
0.0120398
-0.141709
0.0515386
0.0652286
0.0120964
-0.442441
-0.146155
0.029206
-0.0370893
-0.149999
0.0130579
0.0128754
-0.0544568
0.296692
0.0308827
0.013127
-0.0353345
-0.38497
-0.0682259
-0.0111757
0.00778835
-0.0165205
0.37205
0.0194743
0.0168884
-0.117313
-0.216355
0.00825904
0.0178263
-0.0784146
-0.0529846
0.0269408
-0.0184303
-0.130951
0.0079917
0.0220018
-0.0670679
-0.286538
-0.32431
-0.0314359
-0.0804873
-0.446099
-0.129967
-0.399562
-0.127304
-0.013155
0.0276214
-0.00253888
0.0832483
0.0164152
0.0297491
-0.00187829
0.020324
0.011398
-0.128358
-0.0758611
-0.123577
-0.0167583
-0.134808
0.0330699
-0.0393288
0.00017175
0.00610499
0.13749
-0.319252
0.00128556
0.00836306
-0.0288195
-0.125152
0.0109589
-0.078242
0.0220348
-0.0583788
-0.138559
0.220937
0.507516
-0.000158729
-0.155174
-0.0145277
-0.129788
-0.455975
0.00752751
-0.1598
-0.136167
0.0175296
-0.00556188
-0.110634
-0.0705219
-0.106034
0.00154932
-0.397258
0.16752
-0.143831
-0.00142386
0.00950995
-0.0442987
-0.454157
-0.233741
-0.45459
-0.100981
-0.458874
0.0970257
-0.416806
-0.0172386
0.449421
0.0108889
-0.00938545
-0.321641
0.0673994
-0.221804
0.0114371
-3.32285e-05
-0.455918
-0.266718
0.00973886
-0.376729
0.0126791
-0.15774
0.00547341
-0.133256
-0.458016
-0.0146184
-0.109681
-0.0379287
-0.154456
0.0333642
-0.00303741
0.0410007
-0.146758
0.0133353
-0.310217
0.00550721
-0.438204
-0.126978
-0.123277
0.0101727
-0.000170873
-0.111487
-0.032743
0.158472
0.0154143
0.30908
-0.0158075
0.0303073
-0.153213
0.0282926
0.0166553
-0.0206443
0.0236382
-0.0938305
-0.0576558
0.0094032
-0.147807
-0.253493
0.415716
-0.0115387
-0.1833
0.48472
-0.0117969
-0.0532952
-0.0222425
0.0230309
0.0105377
0.0385032
-0.0394224
-0.055455
-0.435393
-0.0161727
-0.0489997
0.0160246
0.017572
-0.108576
-0.0556988
0.0160962
-0.0235707
-0.0871266
-0.272126
0.0325048
-0.119404
0.052548
0.45406
0.0214448
-0.447952
0.00376327
-0.0253135
0.0143766
0.0076308
0.0671308
-0.15255
0.00220038
-0.164403
-0.184344
-0.0732976
-0.145583
0.0151318
0.0392347
-0.104383
-0.00317622
0.338797
0.0290649
-0.0841345
0.00321703
-0.339018
-0.150802
-0.0836224
0.00975089
-0.400318
-0.452875
-0.113113
0.363937
0.106689
-0.199613
0.00923065
-0.141702
-0.138236
-0.0537669
-0.0988257
0.00571816
0.0265178
-0.0410034
-0.172022
-0.0025624
-0.112422
0.0107832
-0.353729
-0.0769406
0.152098
0.00561148
-0.0767389
0.393281
0.0266956
-0.0794016
-0.0990416
-0.108148
-0.00869681
0.01069
-0.131656
-0.303955
0.0188871
-0.458096
0.081774
0.0191079
-0.454879
-0.113433
0.0238255
-0.332834
0.000440024
0.00939601
-0.0889998
-0.15112
0.0119323
-0.110899
-0.006474
0.0247687
-0.454709
-0.0215912
-0.0905245
0.00713868
0.478997
0.0252331
-0.455075
-0.000432797
0.243977
-0.0158345
0.109464
0.37809
-0.284585
0.229836
-0.33537
-0.0547021
-0.112661
-0.316862
-0.0924076
0.00977605
-0.0959703
-0.434839
-0.137623
-0.121019
0.047335
0.00863802
-0.0171579
-0.354921
0.0284272
-0.0198433
-0.117315
0.0128535
-0.154052
-0.00402142
-0.120728
0.0200311
0.0126778
-0.110133
-0.00200377
-0.0838049
0.0109331
-0.0108134
-0.184017
-0.142551
0.00580526
0.0177855
-0.268143
-0.454536
0.0184204
-0.0590319
-0.0839515
-0.00368421
-0.453628
-0.254163
-0.342796
-0.193235
-0.458324
-0.115542
-0.107434
0.00790825
0.00495162
0.0257085
0.0115985
0.0751673
-0.430794
-0.452272
0.0147461
-0.0259844
-0.0281166
-0.232366
-0.232521
-0.321987
-0.361244
0.0341399
-0.363736
-0.438035
0.101698
-0.118743
-0.0910779
-0.0169371
-0.145369
-0.0806355
-0.098675
0.0217524
-0.00460722
-0.105058
-0.178047
0.00530476
0.0273244
0.0123275
0.00579401
0.0266088
-0.446986
0.0259649
0.00132118
-0.416751
0.0153575
-0.251621
-0.101506
-0.301029
-0.121782
0.0105856
-0.321189
0.365886
0.464083
0.0362921
-0.0573393
0.0160619
0.0745737
-0.459909
-0.107617
-0.165601
-0.0262727
0.0116592
0.357913
-0.0299179
0.0253135
0.116959
0.0161795
-0.148017
0.0111465
-0.108335
-0.308126
0.0730244
0.011105
-0.20243
0.00953678
-0.0112709
0.207788
0.00291937
-0.0208131
-0.177204
0.447587
-0.371638
-0.00138472
0.079007
0.00767172
-0.26131
-0.141566
-0.00203754
-0.0573454
0.014625
-0.014607
-0.0229596
-0.00722253
-0.120029
-0.0542034
0.0298909
-0.0164402
0.0235501
0.0162795
-0.0152614
0.0169551
0.390621
-0.0774476
-0.306725
-0.293853
-0.114484
0.328171
-0.0178061
-0.458399
-0.0905156
-0.114448
0.0240658
-0.0113139
0.450389
-0.379288
-0.252644
-0.267086
-0.236307
0.014678
0.0243788
-0.099263
0.00691702
-0.0993323
-0.18791
-0.0268261
-0.455128
-0.110232
0.0126334
-0.454255
-0.119506
0.273095
0.451928
0.0416363
-0.119604
-0.326336
-0.132142
0.00699129
0.285008
-0.168641
0.00783676
-0.0756835
-0.0127091
-0.117922
0.0243431
-0.43247
-0.351284
0.0389404
-0.0339363
0.0563589
-0.444561
-0.10216
0.0336346
0.04767
-0.108414
0.0225912
-0.0341505
-0.162901
0.443382
0.00968504
0.317327
0.247711
0.0173579
-0.0931676
0.00152843
0.0280261
-0.044823
0.0209151
-0.0423693
-0.162418
-0.116488
0.0289367
-0.448881
-0.171028
-0.0923575
-0.458842
-0.0741856
-0.0352127
-0.344727
-0.0433061
0.0916408
-0.103698
-0.0830867
-0.0162835
-0.000304531
0.0145191
-0.261113
-0.112388
-0.393044
-0.116683
0.00593796
0.107409
-0.169321
-0.0754606
-0.347413
0.0119283
-0.0970373
0.00694507
-0.448988
-0.00831994
-0.137393
0.0693857
-0.448988
-0.11338
-0.136719
-0.209281
0.135334
0.00669902
0.296084
-0.453759
-0.443831
-0.0548462
0.0594862
0.00981704
0.0377033
-0.0682502
0.0214406
0.0275487
0.00687204
-0.11165
0.0281533
-0.143344
0.0122642
-0.127083
-0.00280985
-0.107929
-0.455675
0.0536065
-0.124315
0.0163517
-0.0420931
-0.0108487
0.0219752
0.0215403
0.403663
-0.194123
0.00336173
0.0926117
0.0339408
-0.0960031
-0.0707685
-0.303967
-0.135615
0.0356044
-0.0965052
-0.0255686
0.0369001
0.224828
0.0239074
-0.0882252
-0.453295
0.0180289
-0.134047
0.0660001
0.0160118
0.000518825
-0.264712
0.0297771
-0.279878
-0.015153
0.0212541
-0.178009
-0.163542
-0.144013
-0.0440218
0.0319587
0.0185415
-0.143773
-0.121647
0.0205249
-0.0976758
0.0459603
-0.0803352
0.469019
-0.134035
-0.440927
-0.436454
0.000457979
-0.150737
-0.00985703
-0.130749
-0.32853
-0.0559632
-0.315948
-0.0950684
-0.00424218
0.0908217
0.0285792
-0.00117929
0.0477198
0.0298824
-0.281512
0.0660011
-0.0951353
-0.207362
0.0131644
-0.363436
0.0207141
0.0205939
-0.103663
-0.23667
-0.00740339
-0.419056
0.298945
-0.0897257
-0.454387
-0.0225382
-0.112827
-0.118924
0.0761655
-0.00450717
0.447703
0.0339102
0.0127837
0.012721
0.313782
-0.453081
-0.0401853
0.0239822
-0.102153
-0.453661
0.056778
0.0185884
-0.262384
-0.183592
0.0124017
0.333078
-0.209742
0.0148517
-0.0442745
0.00012743
-0.10724
0.0122701
-0.425981
-0.434058
-0.417069
-0.0234544
0.164467
-0.0129572
0.0054513
-0.150881
0.008894
-0.13276
-0.108143
-0.162871
0.00698258
-0.00368342
0.458031
-0.111123
0.247084
-0.317737
-0.178276
-0.140985
-0.0318682
-0.412286
0.290753
-0.0470378
0.410378
-0.363143
-0.104822
0.0331367
-0.453431
0.00174489
-0.120056
-0.147224
0.315211
-0.000121606
-0.101057
0.0184217
-0.248151
-0.0946569
-0.0250156
0.0237983
-0.421548
-0.109924
0.0151172
-0.159096
-0.132074
-0.146124
0.0174156
-0.351072
0.02032
-0.145323
0.0192482
-0.0268639
0.0121889
0.035671
-0.123982
-0.111741
-0.00190631
-0.0867573
-0.458962
-0.00153266
-0.00331263
0.0663065
0.11598
-0.0836989
-0.107831
-0.437059
-0.118294
-0.409497
-0.399971
-0.0876841
0.0648513
-0.0993679
-0.205114
-0.455761
-0.110591
-0.108832
-0.0974543
-0.0770482
-0.024202
-0.458229
0.00682359
-0.339801
0.0220554
0.0156735
-0.419795
0.0176144
-0.00591282
0.367304
-0.023161
-0.0983463
0.0290749
-0.0281744
-0.1258
0.352498
-0.00702094
0.0191611
-0.413004
-0.107421
-0.0438867
0.50782
-0.130626
-0.108718
-0.121323
-0.443278
0.0663507
-0.187005
-0.0928899
-0.127172
0.0229019
-0.00357084
-0.17576
-0.458088
-0.45053
-0.430895
-0.104473
0.0227482
-0.124291
0.0437213
-0.453811
-0.0141918
0.0132732
-0.0904665
-0.148652
-0.181788
-0.426037
0.0535267
0.40539
-0.138727
-0.021061
-0.123393
-0.00149477
0.151698
-0.22029
-0.0955293
-0.129457
-0.423516
-0.0857113
0.497442
-0.0776278
0.0336571
-0.0276153
-0.0542641
-0.283984
-0.375679
-0.421176
-0.192355
0.132775
0.005094
-0.145107
-0.0973584
-0.288912
0.0169043
-0.430756
-0.120961
-0.314883
0.0144476
-0.113251
-0.161453
-0.0837283
-0.212677
-0.00747787
-0.1133
-0.0999625
0.00675392
-0.173924
-0.189186
-0.025315
-0.149315
-0.02774
-0.032535
0.0176698
-0.103526
-0.113807
0.298169
-0.0552093
-0.450475
-0.00181021
-0.00192521
0.0147429
0.011357
0.0105889
-0.31974
0.368906
-0.157298
0.0218518
-0.000971025
-0.438257
-0.05599
-0.101028
-0.0961252
0.00264446
0.479054
0.146581
-0.0717457
-0.274325
-0.0458162
-0.444196
0.462466
0.119268
-0.00136422
0.353178
-0.00249337
0.382498
-0.370141
-0.121438
0.00372068
-0.394351
0.437299
0.0247662
-0.123458
0.0231872
-0.365991
-0.419045
0.0433628
0.0200661
0.114592
-0.0942156
0.000602061
-0.0097181
0.0353634
-0.403513
0.103654
0.488161
0.45851
-0.276956
-0.148442
-0.205754
0.0161941
-0.110469
-0.455993
0.100621
0.00992138
-0.0369985
0.021385
-0.451907
-0.167081
-0.318608
0.014553
-0.200636
0.516787
-0.458222
-0.0910978
0.0244198
0.34982
-0.165448
0.0112595
0.0214354
0.472786
-0.100095
-0.0503982
-0.110433
0.429925
-0.44429
-0.0680317
0.0728444
0.442198
-0.103537
0.00753034
0.0351073
0.0141493
0.0142779
-0.112803
0.269563
0.0714439
-0.457738
-0.104397
-0.00460438
-0.131728
0.337282
0.135491
-0.0623163
-0.00496617
0.0030559
0.511168
0.400433
-0.0693801
0.00661351
0.380188
-0.321047
-0.128168
-0.192699
-0.0370657
-0.00395494
0.0235723
0.012165
-0.0668998
-0.433335
-0.100286
0.036201
0.359203
0.0250306
-0.258135
0.0629414
-0.0989511
0.0721073
0.0969022
-0.0670867
-0.148757
0.0113822
-0.00202343
0.00558886
-0.0974981
-0.0367857
-0.179306
-0.122259
-0.0663476
0.0117973
-0.061555
-0.0311902
0.0307568
-0.429656
-0.00162256
-0.102538
-0.454695
-0.114571
-0.0508364
0.034685
0.0168874
0.0255335
0.0113431
-0.105073
-0.275047
-0.455249
-0.424035
0.47278
0.361509
0.0771252
-0.284546
-0.0944348
-0.0715916
0.0335358
-0.0101399
-0.102644
-0.0176757
-0.00689472
-0.102366
-0.130201
-0.307364
-0.168395
-0.199872
0.0132308
0.0190358
-0.026602
-0.0619477
-0.118191
0.019616
-0.0957642
0.454811
0.488198
-0.0900568
0.0461599
0.434371
-0.0598052
-0.161751
0.0473086
0.00130627
0.0197614
0.0327462
0.0221303
-0.110615
-0.140787
-0.110271
-0.11412
-0.115597
0.00240874
-0.0759651
0.0683901
0.0118227
-0.0548754
-0.425179
-0.117712
0.00402854
0.421492
0.00715307
-0.116533
0.071612
-0.0567453
0.0236397
-0.121159
-0.108917
-0.113156
-0.450707
-0.314269
-0.280003
-0.44287
-0.305316
-0.266249
-0.00301863
-0.228457
0.00089205
-0.457375
0.0317704
0.392968
0.0132728
-0.135875
0.0364964
0.00405483
0.0445344
0.0101897
0.502414
-0.0108525
0.0077346
-0.00241953
0.000810969
0.00531179
-0.0298544
0.0233635
-0.211506
-0.116317
0.0167372
-0.123392
0.0266567
0.00683974
-0.1468
-0.137496
0.0251926
-0.065758
0.00145107
-0.000996323
-0.331904
-0.0164125
0.106204
-0.211617
-0.120981
-0.454978
-0.354637
-0.166578
-0.457988
-0.448445
-0.168131
-0.304418
-0.0225385
-0.304716
0.0213004
0.0199042
-0.149747
-0.0451582
0.51209
-0.015166
-0.0886494
-0.0798898
0.438288
-0.130071
-0.0951908
-0.03311
0.00931588
-0.0839553
0.0305365
0.00277566
0.436385
-0.0195607
-0.284073
-0.366958
-0.19732
-0.0140154
-0.115636
0.0587628
-0.458176
0.440371
0.00651478
-0.329448
-0.139895
-0.101576
-0.0938398
-0.0736955
-0.113312
-0.0937126
-0.0380934
-0.444638
-0.127417
0.140636
-0.231539
0.038924
-0.09446
0.0268177
-0.00151554
-0.0145198
0.403993
-0.152041
0.383567
-0.130908
0.0289944
0.213375
0.498814
0.00336434
-0.20871
-0.00287563
0.507757
-0.112658
-0.234146
-0.212092
-0.162165
0.00745143
-0.0213162
0.0306063
-0.456092
-0.0874165
-0.025655
0.0169228
-0.00342821
0.0084655
-0.00768294
-0.0254451