/*--------------------------------*- C++ -*----------------------------------*\
| =========                 |                                                 |
| \\      /  F ield         | OpenFOAM: The Open Source CFD Toolbox           |
|  \\    /   O peration     | Version:  v2012                                 |
|   \\  /    A nd           | Website:  www.openfoam.com                      |
|    \\/     M anipulation  |                                                 |
\*---------------------------------------------------------------------------*/
FoamFile
{
    version     2.0;
    format      ascii;
    class       volVectorField;
    location    "100";
    object      ddtCorrDdt0(U);
}
// * * * * * * * * * * * * * * * * * * * * * * * * * * * * * * * * * * * * * //

dimensions      [0 1 -2 0 0 0 0];


internalField   nonuniform List<vector> 
9793
(
(0.000498729 -0.00113673 -1.53017e-17)
(0.0933958 -0.0100844 -5.22766e-17)
(0.000125177 0.000499378 -3.29224e-18)
(-0.00719095 -0.0146057 -2.85195e-17)
(6.4354e-06 -0.000215893 9.25074e-19)
(0.00491686 0.0337042 -3.15454e-17)
(0.0164883 0.00930181 4.37339e-18)
(0.0196504 -0.0019652 2.39893e-17)
(-0.000137418 0.00137422 5.51207e-19)
(0.0255033 -0.00401492 1.30497e-17)
(4.88911e-05 -0.000246418 3.708e-18)
(5.39696e-05 -0.00024216 -2.63684e-18)
(9.3736e-06 0.000472058 -6.91063e-20)
(-0.0594243 0.0285182 3.01739e-17)
(-0.000554306 0.000458552 -1.1051e-18)
(-0.0108622 -0.00190174 1.70087e-18)
(0.000464547 0.0179494 -2.84221e-17)
(0.000150791 0.000528167 -6.41507e-19)
(0.00984973 -0.0218341 1.93409e-17)
(-0.000200194 -0.000133819 -9.29831e-20)
(-0.000644376 -0.000147636 -2.016e-20)
(-1.36263e-06 -4.6472e-05 2.88243e-18)
(-0.00978835 -0.00455733 -3.41712e-17)
(0.0207674 -0.00262923 2.46539e-17)
(-0.0651816 0.0303997 3.24936e-17)
(0.00234843 -0.00269566 -2.33041e-19)
(0.000114392 -6.04241e-05 -1.91613e-18)
(4.25252e-06 -5.78118e-05 -4.11266e-18)
(-0.000210228 -0.000134613 3.47324e-19)
(0.01038 0.0172938 -1.75443e-17)
(-0.00508953 -0.00104295 -3.71968e-17)
(0.00274922 0.0369552 4.32046e-17)
(0.000100575 0.000363722 -1.99837e-18)
(0.000138256 0.000550723 -4.3347e-18)
(-0.000138893 2.01666e-05 1.40281e-18)
(-0.00659134 0.00776522 5.68128e-18)
(-0.00787152 -0.000871114 4.15904e-18)
(-0.000102375 -0.00305631 -1.33734e-17)
(-0.00819443 -0.00210138 1.40032e-17)
(0.000180794 0.00893912 4.58816e-18)
(0.00970511 0.0164653 -4.99692e-18)
(0.185942 0.00190712 8.40722e-18)
(0.0208027 -0.00122391 1.43781e-17)
(2.73889e-06 -4.16429e-05 6.00521e-18)
(1.86327e-05 0.000484145 2.4821e-18)
(2.71092e-05 0.000155254 1.2799e-18)
(-0.00235125 -0.000771261 -4.25663e-17)
(6.23464e-06 -7.25617e-05 2.46418e-18)
(-0.00121508 -0.000693652 1.72302e-19)
(0.000143803 0.000531625 -4.62937e-18)
(-0.00714042 0.00741636 -6.19738e-18)
(-0.000156546 2.3059e-05 -1.25553e-18)
(-0.00426014 0.012907 -4.70905e-19)
(6.3699e-06 -0.000138735 -2.44626e-18)
(0.00518919 -0.003404 6.39709e-18)
(-0.00844326 -0.0136386 3.22968e-17)
(1.27127e-06 0.000439835 -8.89316e-19)
(-0.0149055 0.0296303 -1.08678e-18)
(-0.00125179 -0.000597145 1.19545e-18)
(2.60753e-06 -3.95505e-05 -7.11285e-19)
(0.000623292 -0.00368871 -2.18797e-17)
(0.0134529 -0.0097496 -3.18621e-17)
(0.000127148 0.00053112 -1.67156e-18)
(-0.0155401 0.00768206 8.71479e-18)
(-2.66431e-05 6.72672e-05 2.39426e-18)
(-0.000205119 0.00122775 3.23254e-19)
(-0.0163917 -0.0023258 7.0335e-18)
(-0.0017946 0.0045298 -6.78562e-18)
(-0.00869142 -0.00172923 -7.35425e-18)
(0.0467324 -0.0049026 -1.13116e-17)
(0.00024557 -0.00028445 2.08809e-18)
(-0.000736084 -0.0138898 -9.47067e-18)
(0.0151418 0.000256576 7.11593e-17)
(0.0287289 0.124593 -7.19457e-18)
(0.0684421 0.00517981 -1.57573e-17)
(3.84102e-06 -0.000125039 -9.78575e-19)
(0.00492854 -0.00796118 5.8521e-17)
(0.164629 0.00121112 7.89249e-17)
(9.02779e-05 0.000456436 -3.84332e-18)
(3.93285e-06 -0.000153047 -2.6762e-18)
(0.00472942 -0.0083044 -1.0947e-16)
(0.0122808 -0.0199044 -5.34396e-17)
(-0.000565273 0.0174556 2.39909e-17)
(0.00262079 0.000154231 -3.54111e-18)
(-0.00863451 -0.00102799 -1.21997e-17)
(0.017326 0.0247994 -9.3864e-18)
(6.2869e-06 -0.000199364 -7.17765e-19)
(-0.0277232 0.0214958 -2.09643e-17)
(-0.00932643 -0.00014085 1.73048e-17)
(0.0124483 -0.0098997 3.0863e-17)
(-0.0133963 -0.00423395 -1.89992e-17)
(0.0140415 0.0308619 -1.10538e-17)
(0.0147943 0.0320519 1.85765e-17)
(0.00589602 0.0100342 4.74847e-18)
(0.0219087 -0.00397513 8.20462e-18)
(0.000156476 0.000514273 1.9063e-18)
(0.0762775 0.00432585 2.17117e-17)
(0.00312756 0.0158348 -1.09999e-17)
(0.000707357 0.00444686 -8.85842e-19)
(3.41619e-06 -0.00016978 -9.32625e-19)
(-0.0265333 0.00515052 -1.745e-17)
(-0.00410286 0.0121768 -6.50344e-18)
(0.0208333 0.171681 4.72224e-17)
(1.84171e-05 0.00046955 -1.01928e-17)
(0.0504197 0.0214796 1.37334e-17)
(0.124418 0.000742507 4.3968e-18)
(0.0221386 0.115167 2.35824e-18)
(-0.000111096 0.000277044 -2.28311e-18)
(0.000100977 0.000454263 3.92222e-18)
(-6.09519e-07 -9.13665e-05 2.75439e-19)
(1.81593e-05 -0.000111862 -3.69709e-18)
(-0.011628 -0.00337384 6.33909e-17)
(-0.00114128 -0.0199496 -7.48891e-17)
(-0.0119764 -0.000759198 3.26809e-17)
(0.000290377 -0.000262125 1.51803e-17)
(0.000101313 -0.000188551 -4.79856e-19)
(-0.00639282 -0.00542166 -4.87388e-18)
(5.08316e-05 0.000116267 -2.8987e-18)
(-0.00997741 -0.0134649 6.07486e-17)
(2.2092e-06 0.000255059 -5.90561e-18)
(0.0354801 0.0266476 4.64435e-18)
(-0.0271107 0.0238576 -2.99424e-17)
(0.103927 0.00670467 6.76261e-17)
(-0.00871378 0.0153352 3.01494e-17)
(-0.0077912 -0.000212157 -1.79427e-18)
(1.32496e-05 0.000170068 6.39651e-18)
(0.00292233 0.0184725 4.0322e-18)
(-0.0031753 -0.000907478 6.66382e-17)
(-0.0489359 0.0495729 4.93218e-18)
(-0.0370458 0.0446223 -1.46544e-17)
(-0.00511577 0.00255046 -1.68918e-18)
(-0.000117362 0.000266976 -3.8419e-19)
(0.000541011 -0.00104182 4.7242e-18)
(-0.00197249 0.00363703 1.69358e-18)
(-0.00570646 0.00703109 1.0568e-17)
(0.0202487 0.0153594 -6.36009e-18)
(0.0131582 0.042428 1.15688e-17)
(-0.00676265 -0.00482575 5.76777e-18)
(4.52071e-06 -9.16876e-05 6.04392e-20)
(-0.000602604 0.0204865 9.56342e-18)
(0.0179422 -0.0166074 2.66835e-18)
(-0.00594351 0.00743958 -7.76895e-18)
(0.000448293 -0.000117849 -1.59429e-18)
(-0.0238663 0.0166639 3.23407e-18)
(-0.00130691 0.000539962 2.37783e-17)
(0.0316238 -0.00155122 1.0438e-17)
(-1.97356e-05 0.000216531 7.99559e-18)
(0.0729919 0.00279505 -1.95707e-17)
(-0.000123586 0.000232407 1.84014e-18)
(-3.63967e-06 0.000191224 -1.13045e-17)
(0.000124254 4.04098e-05 2.25393e-18)
(0.0341734 -0.0123859 4.49461e-17)
(0.000557026 0.00412921 1.75177e-18)
(0.000109378 -6.38119e-05 3.26085e-18)
(6.95053e-05 0.000193398 1.31785e-17)
(0.0161152 0.0309805 1.97778e-17)
(0.000471395 0.0189438 1.70454e-17)
(0.000122791 0.000541058 -1.99572e-18)
(-0.00412118 0.0396404 -2.64539e-17)
(0.000272515 3.95581e-05 3.49509e-18)
(-0.0256172 0.0199756 -1.38861e-18)
(-0.00511599 0.00294652 -1.64751e-18)
(-0.000652347 -0.00013132 1.52692e-19)
(0.0103265 -0.0189957 -2.60733e-17)
(-0.00241173 0.000424913 2.07022e-19)
(0.17915 0.0024999 2.31424e-17)
(0.0167752 0.176818 -1.90725e-17)
(-0.00263055 0.000976161 -7.1667e-19)
(-0.000111269 0.000266262 -6.2638e-18)
(2.7885e-05 -0.000237477 -3.77478e-18)
(0.000436765 -0.000148769 1.21658e-17)
(-0.0143019 -0.00326314 -9.66425e-17)
(0.0347567 -0.0162183 5.81998e-19)
(-0.0114915 0.035176 8.95849e-18)
(4.00691e-06 0.000471334 2.00878e-18)
(0.00289576 0.0333333 1.84568e-17)
(0.0207833 -0.00241502 2.96242e-18)
(0.0111651 -0.0217636 -3.87005e-18)
(0.000106493 0.000486048 7.70282e-19)
(-0.00266806 0.00447837 -1.48656e-18)
(0.0618197 0.0239479 -2.70178e-18)
(-0.00637734 -0.00043797 2.08151e-18)
(-0.0293025 0.0254848 5.06904e-17)
(2.59166e-05 0.000202436 -7.07475e-18)
(3.94578e-05 -3.62197e-05 -9.28731e-18)
(-0.000122936 0.000263437 5.51553e-18)
(0.123886 0.008678 -1.82071e-17)
(0.011814 -0.000976939 -6.55294e-17)
(0.0432514 -0.0142136 2.86658e-17)
(0.0239727 0.167756 -3.68674e-17)
(-8.32276e-05 0.000982091 -1.47346e-19)
(-0.000281542 0.00318914 1.01981e-16)
(0.00296429 -0.0183403 -8.52292e-19)
(0.000832836 -0.00317162 1.21225e-17)
(-0.00126166 -0.00116235 -1.51608e-18)
(0.00186686 -0.000968608 -3.29831e-18)
(-0.00138991 -0.0208623 -6.01753e-17)
(-0.000176786 -0.000119913 -7.64624e-19)
(0.000164517 0.000529981 -3.7003e-18)
(3.19811e-05 -0.000364785 8.02618e-18)
(0.000319347 -0.000413717 8.81562e-18)
(-0.00073444 -0.000254879 -3.9375e-20)
(-0.00856624 0.00764881 5.31618e-18)
(-0.00725036 0.00292623 1.16953e-17)
(-0.00419542 -0.0203906 -1.13086e-16)
(6.67196e-05 -3.07053e-05 1.4428e-18)
(-0.000360689 0.00747709 1.10221e-17)
(-0.00279567 0.000843644 9.14824e-19)
(0.00091813 -0.000818887 -3.94568e-18)
(0.0192804 -0.0178265 -1.77957e-17)
(-0.000740764 0.0197676 4.91917e-18)
(0.0199638 -0.0155223 -5.19317e-18)
(-0.000173574 -0.00011056 7.00136e-19)
(0.0395918 -0.00719735 -1.27368e-17)
(0.0026798 -5.44819e-05 -8.29424e-19)
(-0.0288296 -0.0133975 -7.51377e-18)
(-0.000540377 0.000509442 1.45928e-18)
(0.0193765 0.0164089 -3.43858e-17)
(8.94091e-05 -0.000236555 5.03428e-18)
(0.00165529 -0.00947673 2.11183e-17)
(0.00338314 0.016645 2.14967e-17)
(-0.000748904 -0.000225074 3.92993e-19)
(-0.00680307 -0.0232591 1.51386e-17)
(-0.00926892 0.0622807 9.22132e-17)
(0.00574819 0.00938307 -4.34849e-18)
(0.000194098 0.000450266 9.26806e-18)
(-0.00934082 0.018657 7.65474e-18)
(-0.0150602 0.100807 6.76751e-17)
(0.00273224 -0.00929873 -1.7725e-17)
(0.0031776 -0.00945262 3.44543e-17)
(-0.00957216 -0.0137869 -4.98013e-17)
(-0.0385569 0.0394808 1.8714e-18)
(-0.0268644 -0.011415 5.59184e-18)
(-0.0163206 0.00810694 -1.20143e-17)
(0.00204753 -0.0182651 2.25087e-17)
(-0.000519082 -0.000835593 -4.50401e-19)
(0.00245397 0.0148079 -5.89466e-17)
(-0.0114478 -0.000513805 6.9069e-18)
(-0.000173678 -0.000110448 -2.49127e-19)
(1.89283e-05 -0.000346208 -5.61158e-19)
(0.18924 0.00114887 1.04063e-17)
(0.000292602 0.00016874 -3.04429e-18)
(1.48838e-05 -0.000107421 1.08583e-18)
(-0.0182271 0.0328376 -8.62324e-18)
(-0.0144598 0.0341334 -1.05627e-17)
(-7.44315e-05 0.00106836 -1.51517e-18)
(-0.00277004 0.00458164 8.49875e-19)
(-0.000369363 0.00807835 -9.97061e-18)
(0.00821788 -0.00141096 9.66423e-18)
(-0.00388934 0.00417245 2.13904e-18)
(8.84499e-05 0.000473145 2.42909e-18)
(0.00932801 0.00707164 2.20242e-18)
(-0.00223296 -0.0287513 6.54014e-17)
(-0.000696418 -0.000199158 -4.17535e-20)
(-0.0131029 0.0441803 1.39493e-18)
(1.68342e-05 -0.000166482 4.30664e-18)
(6.89755e-05 -0.00024513 -3.24031e-19)
(-0.000100446 -2.46851e-05 -1.32556e-18)
(-0.00855005 -0.0149994 4.26674e-18)
(-2.03575e-06 0.000449285 8.995e-18)
(0.0272598 0.0291803 -5.06395e-18)
(0.0397578 0.00051731 2.19374e-17)
(8.17348e-05 -4.07319e-05 -1.41299e-18)
(8.4126e-05 -0.000255959 -4.41788e-18)
(0.0535962 0.0266026 -8.5115e-17)
(-0.000136028 -1.68536e-05 1.30206e-19)
(1.60031e-05 -0.000265556 -7.43332e-19)
(-0.000112413 -1.66694e-05 2.5408e-19)
(0.0343529 -0.00176059 -2.23361e-17)
(0.00966854 -0.0180665 7.93723e-19)
(0.00212663 -0.00218334 -1.43158e-18)
(0.0218238 -0.0134604 -3.69625e-18)
(-0.0123375 0.028176 -3.75598e-18)
(0.0209269 0.170967 8.8849e-18)
(-0.00747357 0.00120534 3.09337e-17)
(-0.00267128 0.00117604 6.3657e-19)
(-0.00227219 -0.0297271 -1.371e-17)
(1.11392e-05 -0.000146696 9.17959e-19)
(-0.0232586 0.104467 -2.46128e-17)
(0.0112613 -0.0427871 3.30762e-17)
(-0.0167063 0.00943074 5.23469e-17)
(0.0387229 0.0233841 3.07471e-17)
(-0.0330292 0.0372882 2.02186e-17)
(-0.00548321 0.00225354 5.86268e-18)
(-0.000542143 0.0163623 -7.76772e-20)
(-0.00680109 0.00272726 -3.28455e-19)
(-0.00122134 -0.00144735 -8.00415e-19)
(-0.00334926 0.0001548 1.68684e-18)
(0.0195304 -0.015932 6.47196e-18)
(0.00253754 -0.00274946 2.17819e-18)
(7.38231e-05 -0.000294016 -5.09407e-18)
(3.81196e-07 -1.27454e-05 -4.28726e-18)
(-0.000175758 -0.000116227 -4.97413e-20)
(8.3495e-05 -3.59823e-05 -5.23873e-19)
(-0.000705206 -0.000164819 -1.52565e-19)
(-0.0122799 0.0054586 7.10135e-18)
(-0.000104559 0.00031517 2.35628e-18)
(-0.0004649 0.000378753 -3.09247e-19)
(0.000107049 -3.24681e-05 -7.44039e-19)
(-6.18651e-06 0.000447242 1.66748e-18)
(0.000209978 -0.034105 -2.83061e-18)
(0.0322401 2.8251e-05 9.49264e-18)
(-0.00236259 -0.0114126 2.09292e-17)
(0.000465411 -0.0017884 1.80728e-18)
(-0.0222285 0.0178032 1.53688e-18)
(0.000105809 -2.36976e-05 3.44642e-19)
(0.0224542 0.0886122 -6.3438e-18)
(0.0199352 -0.00569698 -7.17487e-17)
(1.41569e-05 0.000465157 1.01382e-17)
(0.0488652 0.00114991 -3.99827e-17)
(-0.013545 0.00777752 -5.6044e-18)
(3.10085e-05 0.00046606 -2.84685e-18)
(0.0894535 -0.00421894 8.87558e-17)
(0.0311233 0.100773 -2.65687e-18)
(0.000110929 0.000324774 -1.55051e-18)
(0.0101163 0.00691971 5.90305e-18)
(-0.0105567 -0.0383831 -2.07103e-17)
(0.000784602 -0.000606062 -8.47253e-18)
(-0.000872596 -0.00620011 -2.53986e-17)
(-0.000517985 0.000382702 1.22594e-18)
(0.000776278 -0.000813743 2.78313e-17)
(-0.0436044 0.103756 5.8649e-18)
(0.0079247 -0.00395896 8.59004e-18)
(0.000134463 0.000536499 1.89501e-18)
(4.69448e-05 0.000279312 -4.01641e-18)
(0.000454584 -0.00168152 3.43729e-18)
(0.0239725 0.000869674 -7.68765e-18)
(0.00026655 -0.0219441 -1.11498e-16)
(0.000134239 0.000490604 3.79172e-18)
(-0.000122892 0.00028912 2.84905e-18)
(-0.00117868 0.000145632 -6.45816e-19)
(-0.014376 -0.0030196 1.15312e-16)
(0.00353888 -0.0226854 -9.80389e-18)
(0.00854496 0.000420265 2.72171e-17)
(-0.000552867 -0.00068203 1.01566e-18)
(0.00858039 -0.00408829 -4.37768e-18)
(-0.00125473 -0.00631305 4.76822e-17)
(0.0241535 -0.0233948 1.33685e-18)
(-0.00979858 0.0246126 1.24061e-18)
(-0.000288401 -0.00113887 -3.44302e-19)
(-0.000681601 -0.0010656 -1.11089e-19)
(-0.0011135 0.00017265 2.56786e-19)
(-0.00138951 0.0159064 5.28069e-18)
(0.000870548 2.41541e-05 5.02746e-18)
(0.0232355 0.00368751 -4.57679e-17)
(7.28888e-05 -9.42406e-05 -9.55431e-20)
(-0.000203518 0.000156007 -1.22195e-18)
(0.0245957 0.117179 9.18731e-17)
(-0.0136185 0.00706738 1.16027e-17)
(0.0326063 -0.00764156 4.15098e-17)
(7.06173e-05 -3.75916e-05 2.7727e-19)
(-0.023663 0.0021754 3.05943e-17)
(0.00317299 0.000446044 3.19289e-19)
(0.00532371 -0.0285948 -1.23021e-17)
(0.022518 0.00111899 7.62846e-17)
(-0.00837227 -0.015559 4.63495e-17)
(0.00231089 0.000796433 3.98181e-18)
(0.000621833 0.00926434 -5.37602e-18)
(0.0170373 0.040799 5.09692e-17)
(-0.0157402 -0.00126108 3.63771e-17)
(-0.0115829 -0.00540922 1.19122e-17)
(-0.000895776 -0.00346661 -7.62262e-18)
(5.64884e-06 -6.93603e-05 -2.20705e-18)
(0.00214351 -0.00234341 3.34392e-18)
(-0.00102418 -0.000797032 -2.34101e-18)
(-0.000124932 0.000276829 -1.06885e-18)
(0.000805971 -1.83354e-05 2.14101e-18)
(0.000117753 2.1507e-05 2.05274e-18)
(7.92369e-08 -4.80228e-06 -4.4699e-19)
(0.0342974 0.00344737 1.68475e-17)
(3.89012e-05 -0.000249449 1.26356e-18)
(0.00473673 0.0177906 -8.63325e-18)
(-0.000957634 0.00897782 -1.22432e-18)
(0.187284 0.0155918 3.47935e-17)
(-0.000205388 -0.00119791 3.71125e-19)
(0.00277185 0.000317085 -6.22165e-18)
(-0.00246762 -0.0283598 5.52219e-18)
(-1.98134e-05 -0.0187701 5.55261e-17)
(-0.0619829 0.0350988 -4.29069e-17)
(-0.00940696 0.0236248 -2.10453e-17)
(-0.000199927 0.000153428 5.90082e-18)
(0.00240879 0.0010101 -9.12718e-18)
(0.000130914 0.00052553 4.0721e-20)
(0.0306957 0.0116961 2.61506e-18)
(-4.72153e-05 -5.67127e-05 1.7552e-19)
(0.0312963 -0.00692402 -1.86157e-17)
(0.0207783 -0.006676 -2.46586e-18)
(0.0167376 0.00810967 2.36576e-18)
(-0.000525713 0.000818747 -1.23707e-17)
(-0.0373332 0.112416 5.02064e-17)
(7.13248e-05 -8.6554e-05 -5.36491e-18)
(0.000207628 0.000462502 6.06013e-18)
(0.0653314 0.0319598 -9.54118e-18)
(0.0305583 0.0134271 -7.13787e-18)
(3.43789e-05 -1.56247e-06 1.85752e-18)
(0.0154547 0.000429013 -9.77713e-17)
(7.59374e-05 -8.23386e-05 5.59993e-18)
(5.4356e-05 -0.000363202 -2.73227e-18)
(0.0152792 -0.0321177 1.16309e-17)
(-0.0001691 -0.000109224 -9.77191e-21)
(-0.0131814 0.0296652 -7.46906e-19)
(-0.000590397 -0.000767944 -1.41638e-18)
(0.0100229 0.166531 7.15695e-17)
(9.13907e-05 -0.000139659 -6.68042e-19)
(-0.00250716 0.000271179 1.06964e-18)
(0.0243167 0.0976457 5.24709e-17)
(-0.000757667 -0.0135995 -9.44427e-18)
(-0.0382866 -0.00696773 -4.25242e-19)
(0.000993874 -0.00320861 -2.03529e-18)
(7.74562e-05 1.92614e-05 -9.75226e-18)
(0.000109314 0.000325517 -4.86751e-18)
(0.0936883 0.00434978 -1.11421e-16)
(0.00388494 0.0150455 4.3543e-19)
(-0.000469839 -0.000366744 -2.74973e-19)
(2.87967e-05 -0.000403038 8.82163e-18)
(0.0049911 -0.00380661 -1.51941e-17)
(-0.00201888 -0.00613242 1.70632e-17)
(-0.0381987 -0.0102985 3.41129e-18)
(-0.00513732 0.000743341 -1.03022e-17)
(3.49246e-05 -0.000381664 -6.3886e-18)
(0.000129198 0.000561967 1.05206e-18)
(0.0127463 -0.0183237 4.13239e-17)
(8.19644e-05 2.01663e-05 -2.84355e-18)
(-0.00294958 -0.0268481 -4.2432e-17)
(0.0124348 -0.0207327 -2.30566e-17)
(4.28349e-05 2.40888e-05 -5.55206e-19)
(0.000109194 0.000318039 1.79836e-18)
(-0.00319851 0.000288498 -1.08931e-18)
(7.98282e-05 -5.13718e-05 -3.41063e-18)
(-0.00119457 6.58391e-05 6.69731e-19)
(-0.0270683 0.00609721 -2.83607e-17)
(0.00227807 -0.00960036 -4.90138e-17)
(0.101936 0.0172101 -1.12683e-17)
(-0.00143989 -0.00419913 2.29405e-17)
(-0.00561473 -0.00196566 5.7282e-18)
(-0.00761046 0.0154542 1.26209e-18)
(-0.000125641 -0.00290282 2.10213e-17)
(-0.0117815 -0.0109163 -3.005e-17)
(0.000768154 -0.00351097 4.43632e-18)
(1.02916e-05 -0.000189167 -6.93412e-18)
(-0.00227174 0.00471295 1.65377e-18)
(0.0311764 0.0023116 -2.21865e-18)
(0.000357168 -0.000209288 -2.08222e-18)
(0.000258847 -5.19779e-06 4.32785e-18)
(0.000275869 -0.000362225 -7.18189e-18)
(-4.89299e-05 -5.04652e-05 -3.00872e-19)
(0.000114245 0.000424732 9.73775e-18)
(-0.000307445 0.000417165 -1.67121e-18)
(4.30158e-05 0.000145668 2.3838e-18)
(5.86213e-05 -0.000110842 1.06052e-18)
(0.00164585 -0.000575193 1.1343e-17)
(-0.00637946 0.00310957 -3.11605e-18)
(-0.0197966 0.0331461 7.76577e-18)
(1.44535e-05 -1.9274e-05 9.48534e-20)
(-0.00126323 -0.0206019 -1.38369e-17)
(0.00191599 -0.00270593 -5.98087e-18)
(0.022385 -0.00745103 -8.58532e-19)
(-0.00560791 0.00420738 -4.50005e-17)
(-0.0013429 -0.00130387 4.47005e-19)
(0.0314736 0.11994 -5.95205e-17)
(0.0154139 0.00968523 -1.20999e-18)
(-0.00134327 -0.00103466 -1.1175e-18)
(-6.81506e-05 -6.45297e-05 -1.67956e-20)
(0.000505907 -0.000125911 5.88902e-20)
(0.0508931 0.0444444 -1.39421e-18)
(-0.0108451 0.02822 -5.15329e-18)
(-6.09583e-05 -5.81406e-05 6.17419e-20)
(6.15071e-05 -0.000271706 3.08786e-18)
(4.21534e-05 -0.000367248 -6.31572e-18)
(-0.00444239 -0.0111356 1.36993e-17)
(0.021533 -0.00397653 2.52629e-18)
(0.155297 0.000650827 -1.11099e-17)
(-1.49467e-05 6.50262e-05 -3.32249e-18)
(6.30523e-05 0.000206778 5.14386e-18)
(0.00163362 -0.0052449 2.44828e-17)
(-0.00616666 -0.00157705 1.13967e-16)
(-0.0176012 0.00738499 -5.03215e-17)
(0.000992213 -0.00217414 -5.79061e-18)
(-0.0048711 0.00136024 -8.34647e-18)
(-0.00899831 0.0505493 -3.65801e-17)
(0.182593 0.000132195 1.0907e-17)
(-0.0232902 0.0447066 -3.43134e-17)
(0.000943262 -0.000514114 -6.24195e-18)
(-0.0001717 0.000204538 3.16652e-18)
(-0.00412949 -0.0181033 2.14122e-17)
(0.000172285 0.000485232 -2.68463e-18)
(0.0215304 -0.00107451 -5.47447e-18)
(0.18489 0.0125616 2.29096e-17)
(-0.000418941 -0.000363622 1.44191e-19)
(0.00977336 -0.0171617 1.50816e-17)
(-0.000726289 0.00691117 -2.84236e-18)
(-0.0223975 0.000490459 -6.58234e-17)
(8.89784e-05 0.000336076 4.13922e-18)
(0.00739309 -0.0212461 -3.61917e-18)
(0.0135335 0.0310208 -1.99039e-17)
(-0.0101706 -0.00150132 -9.43531e-19)
(0.043084 0.0304476 4.705e-17)
(0.000150644 0.000521476 1.38317e-18)
(0.0239744 -0.0210982 -2.49657e-18)
(6.79388e-05 -0.000123754 7.49435e-18)
(0.000165935 0.000487092 -1.50813e-18)
(2.28908e-05 -0.000220717 1.18688e-18)
(0.000140572 0.000534252 -3.15173e-18)
(0.056019 0.00352565 2.11719e-17)
(0.000162279 0.000515101 7.25712e-18)
(-0.00118443 -0.000451254 -1.06284e-18)
(0.000760594 -0.00169032 -6.15419e-18)
(-0.000608112 -0.000616497 2.52083e-19)
(-0.000158381 0.000227693 2.63912e-18)
(0.011006 0.00560884 -4.0933e-18)
(0.00181559 3.06285e-06 1.17182e-17)
(-0.0144664 0.00837726 -1.26883e-17)
(6.30778e-05 0.000154879 -7.2368e-19)
(6.31621e-05 0.000126165 -9.50295e-19)
(-0.00314003 -0.0275633 -5.07305e-17)
(-0.00109454 -0.0123565 -2.6073e-18)
(0.00100993 -0.00206011 -2.72252e-17)
(-0.00945517 0.0400801 -8.97911e-18)
(-0.00591849 0.00289109 -2.31558e-18)
(0.0010542 -0.00016517 -1.11484e-17)
(-9.26393e-06 0.000438552 -4.90577e-18)
(-0.00118867 2.71145e-05 1.10718e-18)
(0.0272616 0.000490615 -7.45942e-17)
(-0.00114663 -0.000512234 -3.34677e-19)
(4.25391e-05 9.40927e-06 3.96572e-19)
(-0.00613137 -0.00373206 -4.69175e-18)
(0.188514 0.00414002 3.28619e-17)
(0.0084055 -0.000804435 -1.72233e-17)
(7.64946e-06 0.000456563 -6.76955e-19)
(1.00859e-06 -8.90143e-05 -5.04592e-18)
(-0.00147601 0.00142455 8.96284e-19)
(1.88464e-05 -0.000223723 -7.63911e-19)
(-0.0203968 0.04305 3.53846e-17)
(0.000816758 -0.00066868 3.98443e-18)
(0.0272319 0.15958 6.67695e-18)
(-0.00695783 0.00047697 -2.39513e-18)
(-0.00515791 -0.0235652 -8.3235e-18)
(6.08363e-06 -0.000184403 -8.86255e-20)
(-0.0193906 -0.00232156 -9.78933e-18)
(-0.000189946 4.90038e-06 -1.95174e-18)
(0.0256746 0.001314 1.69195e-17)
(0.000178512 0.000497526 -2.98899e-18)
(-0.0472714 0.0176466 -2.65945e-18)
(-0.00137336 -0.0317422 1.09118e-18)
(6.68388e-05 -0.000190012 -7.31867e-19)
(0.161532 0.00600653 -3.42879e-17)
(0.000231257 0.00030575 -4.34765e-19)
(1.52258e-05 -1.08996e-05 -9.50817e-21)
(-0.000578024 -0.000158877 -3.11278e-20)
(0.0872507 0.0222295 -5.5059e-17)
(-0.00461616 -0.0210483 1.02582e-16)
(0.000486194 -0.000159372 6.60136e-19)
(-0.000760444 0.00727444 -1.14091e-18)
(-0.00107411 -0.000699948 -5.19853e-19)
(-0.0132825 0.0555966 3.86748e-17)
(1.65751e-05 -2.71687e-05 -2.11314e-20)
(0.00914813 0.00752565 2.50487e-18)
(0.00937765 -0.0189278 -3.53116e-18)
(-0.000276998 -0.00317824 1.62844e-17)
(2.58006e-05 3.10281e-05 -1.48936e-18)
(0.00562253 -0.00761119 1.66792e-17)
(1.36678e-05 -6.1306e-05 -9.03411e-19)
(-0.00165301 0.00148564 -6.76965e-19)
(-0.00109366 0.000279684 -1.74487e-19)
(-0.0217209 0.0314712 1.11077e-17)
(-2.37898e-05 0.000182246 6.5773e-19)
(-0.0010364 0.0647112 2.63673e-17)
(6.69674e-05 0.000102646 -3.8912e-18)
(0.00089199 0.00014463 1.0968e-17)
(-0.0202488 0.00724604 -1.30077e-17)
(0.00897238 -0.0103216 -8.97271e-18)
(0.187506 0.0116739 -6.28387e-17)
(-0.000436986 0.000313551 2.54422e-19)
(-0.0196073 -0.0020523 2.0943e-18)
(0.00017831 0.000472461 -1.23783e-18)
(0.0234782 -0.00388549 -1.42912e-18)
(0.00015932 0.000242462 -1.89922e-18)
(-0.00271968 0.000638676 -1.80072e-19)
(0.000174758 0.000490979 -3.7604e-18)
(6.6554e-05 0.000109154 1.32216e-17)
(3.13458e-06 -0.000170704 -4.38657e-18)
(0.0244803 -0.00501232 8.66784e-18)
(-0.0270073 -0.00881687 -2.2876e-17)
(0.151295 0.00495746 5.49149e-17)
(0.008337 0.0236438 5.54381e-18)
(0.00263106 -0.00581761 -4.86929e-17)
(0.00596755 -0.00299546 -2.5279e-18)
(0.0166945 -0.0297757 -4.60828e-18)
(-0.00210316 0.00399702 8.84353e-19)
(-0.0240178 0.0386603 -2.60098e-17)
(0.00964379 -0.0117008 -1.99943e-17)
(0.0269564 -1.59642e-05 1.33204e-18)
(0.123825 0.00132453 -5.66589e-18)
(0.203081 0.00986413 3.18408e-17)
(0.0233575 -0.000792826 -7.06132e-18)
(-0.00177147 0.00139994 4.19371e-19)
(-0.000177732 -0.021294 9.00054e-17)
(-0.0210704 0.00601248 -5.7096e-18)
(-0.00248724 0.000581452 3.33496e-19)
(0.0286074 0.00026068 4.63338e-18)
(8.42952e-06 -5.68844e-05 9.72593e-20)
(0.0215939 -0.0151774 -1.0901e-18)
(0.00785624 -0.000264518 -3.21883e-19)
(-0.0145962 0.0415021 -1.3904e-17)
(-0.00101063 -0.00393058 7.44714e-18)
(-0.0173258 0.00820208 2.36855e-17)
(0.00803624 -0.00212012 6.19236e-17)
(-0.018651 0.0069371 -2.43592e-19)
(-0.0107854 0.0393975 2.04706e-17)
(2.32142e-05 -0.00035848 5.03209e-18)
(0.0296789 -0.00853406 2.07813e-17)
(-0.000377531 -0.00178937 -7.99999e-18)
(0.00016421 0.000510006 9.85693e-19)
(0.000827305 -8.50957e-05 3.89243e-18)
(-0.00484733 -0.00465381 -3.75388e-18)
(0.00355269 0.014221 4.36335e-18)
(-0.00998013 -0.0126418 -7.65772e-18)
(0.020371 -0.0121749 1.06607e-18)
(0.00705455 0.00282267 -1.47477e-17)
(-0.00163105 0.00361206 -1.70095e-18)
(0.00206 -0.000943355 5.66999e-18)
(-0.0248623 0.00285431 6.8523e-17)
(-0.00302519 -0.0176183 8.86024e-18)
(-0.00427711 0.00150276 -2.95255e-18)
(-0.00836868 0.022109 6.15784e-18)
(0.000996588 -0.000833557 -6.09128e-18)
(0.00647519 -0.0313617 9.6608e-18)
(0.0288189 0.104047 -3.3583e-17)
(5.37197e-05 5.7202e-05 4.7578e-19)
(-0.00301528 -0.0115397 1.86721e-17)
(0.012607 -0.016946 -1.83266e-17)
(0.00732131 -0.0055972 -1.07335e-16)
(-3.55074e-05 5.66248e-05 -5.53363e-18)
(0.00238628 -0.00248951 -1.05959e-17)
(0.0857111 0.00545799 -1.24856e-17)
(-0.00857066 0.00688153 6.67806e-18)
(0.139971 0.00710648 7.51011e-18)
(-0.0450933 0.0207885 4.11098e-18)
(0.188299 0.0182886 -2.85377e-17)
(0.0031806 -0.00112677 -3.56271e-18)
(-0.00181261 0.00422663 4.43732e-19)
(-0.000387088 0.00087055 2.27717e-20)
(8.56706e-05 0.000236174 -1.35007e-17)
(0.0620556 0.0344483 -7.82762e-18)
(3.29094e-06 -7.73338e-05 -5.67088e-18)
(0.111497 0.0344838 -1.43107e-17)
(0.00648868 0.0273773 -1.36895e-17)
(0.0168207 0.00533281 -3.98098e-18)
(4.07228e-06 -2.7189e-05 1.91376e-18)
(2.32143e-05 -0.000105956 3.58081e-19)
(-0.00612807 -0.00286368 7.46718e-18)
(-0.00190908 -0.00245775 -1.27672e-19)
(-0.000158075 3.11376e-05 7.52219e-21)
(0.000287229 0.000160184 3.81873e-18)
(0.0079654 0.0226895 1.66372e-17)
(0.0554523 0.050688 -5.44649e-17)
(-0.069265 0.0316185 2.39709e-17)
(3.19305e-06 -4.32779e-05 -1.59524e-18)
(0.0289658 0.0100197 -3.63565e-17)
(4.03196e-05 0.000432894 -3.99959e-19)
(0.00525482 -0.0141172 8.63696e-18)
(-0.0176025 0.0148502 -3.44915e-17)
(0.00363581 -0.00818352 5.19107e-18)
(-0.00157901 -0.00612601 -4.66273e-17)
(0.0131087 0.0314688 8.85036e-18)
(-0.000202398 -2.1575e-05 8.65166e-19)
(0.00012721 9.8881e-05 -1.60285e-18)
(0.00558024 -0.00688107 -1.34171e-17)
(0.00017974 0.000487674 2.54948e-18)
(-0.00142531 0.00130147 -2.41974e-18)
(-0.00314092 0.0208151 -7.62663e-19)
(-0.0398203 0.0144496 7.98574e-18)
(-0.0007647 -0.00028459 -5.10524e-20)
(0.0238878 0.0385956 -1.1793e-17)
(-0.00986178 0.00668543 1.26107e-17)
(-0.00375346 0.00451486 2.54044e-18)
(-0.0338769 0.0993143 -2.97827e-17)
(-0.00554085 0.00720733 -5.56457e-18)
(-0.000307698 0.000476417 1.16799e-18)
(0.00249446 0.0176019 3.12533e-18)
(-0.0116297 -0.00153786 -1.41257e-17)
(-0.000107781 0.0009134 6.97847e-19)
(-0.00053488 -0.000141032 6.19947e-21)
(0.00339358 -0.013752 -1.78439e-18)
(-0.0128577 0.00942622 -3.15777e-17)
(0.0153987 0.00314114 -1.86346e-19)
(0.000376932 -0.000265672 6.8151e-18)
(3.52381e-05 0.000302845 6.18676e-18)
(-0.000525694 -3.768e-05 -9.52817e-20)
(-0.00649492 -0.00681763 3.98696e-18)
(0.00173855 0.000178784 -1.50813e-18)
(0.0025228 -0.000202909 -1.01965e-17)
(-0.0092621 -0.0206856 -1.44562e-17)
(-0.0190415 0.0140636 9.95828e-18)
(6.54035e-05 -0.000109397 -2.97074e-19)
(0.160287 0.00834468 1.8312e-17)
(-0.00787035 0.00798837 -3.16555e-18)
(0.00267644 -0.00584027 4.31124e-17)
(-0.00148584 0.00117008 2.04226e-18)
(-0.0107864 -0.00128589 -1.3732e-16)
(-0.00540194 0.00186281 -4.85806e-19)
(-7.62582e-05 0.000129541 -3.58285e-19)
(0.0169977 0.00610112 1.1222e-17)
(-0.000249951 -0.0222164 -3.57295e-17)
(-0.00051433 -0.000407383 -2.91347e-19)
(3.42418e-05 0.000113324 -6.77897e-18)
(0.000143704 0.000520076 8.67675e-18)
(-0.00936082 -0.00204367 4.67504e-18)
(-0.000199165 -2.59964e-05 -7.23954e-19)
(-0.0178109 0.00803891 4.01047e-18)
(-0.00140245 0.0437317 -3.47398e-17)
(0.000962019 0.000278229 -6.08827e-18)
(-0.0229817 0.0317548 -1.15415e-17)
(-0.00396145 0.00138878 2.85143e-18)
(-0.00134974 0.00102062 -9.35681e-19)
(0.187169 0.0128226 -1.90143e-17)
(0.0108948 -0.0188496 4.6866e-18)
(0.0702157 0.0348242 -1.24094e-18)
(0.000122982 1.89951e-05 -3.35571e-18)
(-0.000585435 -0.000497515 -7.77405e-19)
(0.118159 0.0671622 2.47838e-18)
(0.000666444 -0.00325545 -7.81667e-18)
(0.143783 0.0504167 7.32112e-18)
(-0.000397786 -0.000462841 -4.18497e-19)
(0.000248239 0.000248701 -4.89064e-19)
(-0.0105169 -0.000297426 -7.85595e-17)
(0.0225041 0.165948 -2.61942e-17)
(0.000232112 0.00830448 -4.38065e-18)
(-0.0159589 0.0312245 2.12436e-17)
(-0.000895353 -0.0111977 -4.28375e-17)
(0.000207672 0.000415651 -8.25997e-19)
(2.64457e-06 -2.37184e-05 -1.48203e-18)
(7.99936e-05 0.000811691 -2.59472e-19)
(0.0190738 -0.00906678 -7.58901e-18)
(3.74117e-05 1.71067e-05 6.52347e-20)
(-3.82215e-07 -5.87883e-06 5.67488e-18)
(-0.0176337 -0.000450647 -5.5146e-17)
(-0.000974782 -0.00381764 9.53557e-18)
(0.0184162 0.0256349 1.44811e-17)
(-0.000852858 -0.00581981 -1.0764e-17)
(1.57917e-05 0.000435627 4.29765e-19)
(0.0109191 -0.0203856 -7.12384e-18)
(9.52974e-06 -0.000123177 -1.21435e-18)
(0.000179944 0.000308314 -1.36378e-18)
(0.000113064 0.000723724 -1.08702e-19)
(0.00489262 -0.0023283 -4.01856e-18)
(-0.00483995 -0.0193401 1.26388e-17)
(8.29452e-05 -0.000229434 2.81631e-18)
(-3.01046e-06 0.000464679 -3.63721e-18)
(0.000190671 0.000477861 -9.96004e-18)
(0.000172679 0.000491844 -5.23706e-18)
(2.86977e-05 0.000445598 1.05397e-18)
(-0.000341635 0.000954872 3.28046e-19)
(0.139647 -0.00492923 -8.53168e-18)
(0.00509762 -0.00272279 3.94114e-18)
(0.00157882 -0.000641957 -2.61383e-18)
(0.000110519 -8.02397e-05 -8.71982e-18)
(0.00482028 -0.00310223 2.99706e-18)
(0.00243451 0.0190791 1.45136e-17)
(-0.0107657 -0.0028631 -4.46935e-18)
(-0.00117571 -0.00418476 -4.51842e-17)
(5.37282e-07 -1.10463e-05 -2.18244e-18)
(-0.000510095 -5.1818e-05 2.40102e-19)
(0.00182672 0.00145832 8.32907e-19)
(-0.00322278 -0.0247182 4.5768e-17)
(-0.0822067 0.0697179 -1.21015e-17)
(-0.00522118 -0.00219579 9.17541e-19)
(0.0124411 0.00310146 -2.12532e-17)
(2.1687e-05 -0.00036877 7.08486e-18)
(0.00293121 -0.00125173 8.98786e-18)
(0.0259832 0.0235311 -4.32407e-17)
(0.000487177 -0.020934 1.93277e-17)
(-0.000663273 0.000414748 1.23375e-19)
(5.3891e-05 -0.000254719 -9.77986e-18)
(-0.0036817 -0.0183305 -1.22539e-17)
(-0.0104775 0.01867 1.30847e-17)
(-8.84377e-05 0.000126745 2.11997e-18)
(1.133e-05 -0.000241437 2.57474e-18)
(0.00191871 0.0600394 8.65357e-18)
(3.00511e-06 -1.67671e-05 4.91964e-19)
(0.0102415 0.0152749 -1.20586e-17)