/*--------------------------------*- C++ -*----------------------------------*\
| =========                 |                                                 |
| \\      /  F ield         | OpenFOAM: The Open Source CFD Toolbox           |
|  \\    /   O peration     | Version:  v2012                                 |
|   \\  /    A nd           | Website:  www.openfoam.com                      |
|    \\/     M anipulation  |                                                 |
\*---------------------------------------------------------------------------*/
FoamFile
{
    version     2.0;
    format      ascii;
    class       volScalarField;
    location    "300";
    object      omega;
}
// * * * * * * * * * * * * * * * * * * * * * * * * * * * * * * * * * * * * * //

dimensions      [0 0 -1 0 0 0 0];


internalField   nonuniform List<scalar> 
18758
(
0.116431
5.89311
0.0214739
4.29622
5.73231
5.7532
7.36152
0.0217119
0.273392
0.027768
0.0236665
10.7175
0.0220464
0.178038
0.0230186
0.608701
0.0419533
0.0219434
0.021927
0.0309869
8.53914
0.0222713
5.72884
4.38984
1.36309
0.0217161
1.71818
5.59064
8.79147
4.13903
0.0721461
5.99336
0.022182
0.0226678
0.142372
0.0221715
0.0222265
0.0220082
0.0222647
0.0452739
0.0220053
0.026611
0.0216489
0.0261651
2.13892
0.0216177
5.34943
0.023975
0.0273314
0.0216173
0.134336
6.04653
0.0215449
0.0234415
5.44752
8.83091
0.0222172
0.35223
0.0219345
0.197161
0.0954411
6.29914
0.119134
0.0228253
0.0215543
0.0220148
0.0466507
0.0221775
0.0219289
5.98299
5.72732
0.0223039
0.0216237
13.9652
0.0216856
0.0219267
0.264841
5.77415
0.0865723
5.22817
6.13914
3.67
0.196782
5.52806
0.271929
0.0302365
23.1938
0.118035
5.80527
0.0219254
5.34991
0.0219361
14.9979
0.0270373
5.96495
13.6395
0.263146
0.0216848
0.0218907
6.84285
0.0324385
5.1315
0.0920017
0.046428
7.72921
2.82802
5.50663
5.89509
0.0226389
0.0222956
17.1087
10.5913
0.0217564
0.0220337
7.07639
10.0259
8.33318
0.0230196
8.01848
5.6003
0.0379058
0.0219627
11.206
1.374
0.536873
1.52282
4.73166
1.7071
12.3113
0.0220405
0.0436147
1.56583
18.7295
0.0490983
4.87999
0.0238305
0.257915
0.0473885
0.0218883
0.0776581
0.0873873
0.238065
0.0219494
13.2058
0.0220095
0.0220124
10.6296
7.26335
0.0712114
6.62034
2.63391
3.82393
0.0301663
0.0222709
5.02503
0.0280588
6.95991
0.0239814
0.0221516
0.0222889
0.0218018
0.194674
20.2633
0.0221454
0.0948506
8.59759
0.0219711
11.8651
0.21509
5.86318
4.93175
0.0219384
19.8035
5.61892
0.194385
3.55295
7.78928
0.0229226
0.0757729
0.022122
0.0217952
29.7301
3.26282
0.0216523
0.0251436
1.59016
0.0219135
8.4105
0.0216337
0.0219285
0.049372
1.12527
0.022403
0.0670109
0.0339125
0.119796
0.0316105
0.23935
0.0221482
0.0216424
0.0730622
0.0239172
0.0366048
0.08583
0.0220348
0.0334711
0.0947743
0.0222789
8.18431
0.0273704
0.0219306
0.0488391
0.022187
0.0363141
0.0769039
6.63825
0.0849893
0.541012
0.0216327
5.86219
0.0219305
0.0226576
0.232843
8.34832
0.258912
0.0934154
0.0584234
0.0463629
0.0216103
0.0868696
0.0220088
0.119077
5.24462
0.274015
0.0220626
0.0219161
0.021612
0.0216418
11.5964
0.0365518
0.0218305
0.755807
5.52597
0.0229946
6.61427
39.4988
0.271757
0.0221781
6.05
0.0297365
0.0221518
11.2637
0.0303178
0.0302382
0.0225003
0.0411712
1.04761
0.668125
0.0354587
0.0842972
0.0216688
0.0750541
0.0220318
0.0849573
0.0269133
0.231235
9.37726
0.0216375
0.0225236
0.431801
0.0224533
0.024906
0.0852836
9.01178
10.2534
0.0219428
0.116721
27.1946
2.42599
0.0225927
0.0217421
0.0291974
0.0367512
0.0219421
24.7599
0.628691
2.8237
34.2833
5.64913
0.0216312
0.0214668
0.0513992
7.57388
0.0255596
0.0845733
0.112101
0.0291733
5.726
0.0218936
0.491977
5.62314
0.0216297
5.77239
0.0375831
0.0219557
0.0330634
0.0855517
0.0227895
0.0221562
6.39917
2.04469
0.0219294
8.20532
5.68549
0.234696
0.0220192
0.0221171
1.15338
0.0229661
0.021647
0.0217729
0.023003
0.224814
0.0869567
0.0291581
0.0356029
0.0311225
0.0492261
0.0216538
0.0222786
1.6354
0.0551524
0.124515
4.2099
0.0259489
0.0223504
0.0220685
0.477536
5.84182
0.0216229
0.021918
0.0216248
0.0237187
0.0439219
1.0233
0.0219632
0.0221944
0.0216079
0.791823
0.214352
0.172831
0.152414
0.0228313
0.912383
0.109878
0.0372168
0.0314305
9.92773
7.60532
2.80224
0.0220468
0.0331345
7.13931
8.79159
0.0249591
0.0216353
0.0593253
0.0219582
0.0302524
8.20841
3.89317
0.125079
0.0304152
7.7778
0.0219768
0.0239024
0.0218854
0.0222739
0.120068
0.0240479
7.31674
0.272482
0.0224274
0.0219339
7.11648
0.122896
0.268932
0.0219761
0.0557759
0.0217319
0.026012
0.0219628
0.0216466
8.81945
7.37256
3.99336
21.8911
0.0219105
0.238699
5.15232
0.0420653
0.0217507
4.19738
0.021771
0.0220595
0.0217907
0.123955
0.0219563
0.0260498
0.141333
10.5565
0.021759
5.64632
0.0486167
0.0220248
0.025709
0.0219495
0.02192
0.0284723
0.0700617
0.0485974
27.6145
0.0395172
0.0220444
0.386285
5.85356
4.7262
5.06693
0.116428
0.0225207
0.0216471
0.0218343
0.0222067
0.125116
0.0430398
0.0323519
0.0361715
0.030213
1.41495
0.0934844
0.021945
0.0345607
5.21598
0.0228118
3.84321
0.0222037
0.0220822
5.65606
0.0280464
0.0224508
0.977223
0.145654
0.0504602
10.9297
0.0219311
0.0226219
0.732028
9.46332
0.0360081
0.0706172
0.182658
0.848751
23.3758
0.180873
0.0222788
0.133288
0.0220309
0.127226
0.0231394
13.3357
0.0550552
4.39407
0.0322062
0.0813502
0.0216306
4.03095
0.0216297
9.93418
0.0218891
0.351628
0.0220566
1.02554
0.0312198
0.0220872
0.0218969
0.0217824
5.46777
12.1939
7.14353
0.0461632
0.0245561
0.0861465
0.0222703
0.0222875
6.0747
0.0218975
0.0220619
0.114021
0.022041
0.0689223
0.0857398
0.0220576
0.021953
0.0279056
0.0227149
0.0285916
6.57272
0.0311592
0.0356867
0.0266914
0.0220484
3.72109
0.0223257
0.0226468
3.58257
9.77992
0.0773598
2.50747
0.0251656
0.0226161
7.12422
0.0219506
9.33136
0.321714
0.022081
6.54986
1.44141
0.0602507
0.0218573
0.0525875
6.0313
0.0220108
0.0218663
0.0230772
0.0227786
0.0220298
0.0216996
0.0222939
11.0117
0.0251635
8.49019
0.0219675
0.147575
8.01727
0.0220373
0.0216406
0.0251149
0.022129
0.0226642
0.0232878
0.0221099
0.116583
0.789655
0.0215438
6.04466
5.24355
0.0354686
0.132042
4.32197
0.0263824
0.030383
0.0283243
5.79442
0.0250644
0.0469561
0.0219873
11.6167
0.0422062
0.216034
0.148632
7.15343
0.0250051
0.0219191
0.0586723
1.22181
0.0225986
0.44169
0.0222142
5.6921
0.0227591
0.0217926
0.0217785
0.0220471
5.3023
5.71357
0.0219896
0.286994
0.0306052
4.84558
8.13179
0.998772
2.9872
0.0218975
5.75881
0.0662633
0.0219753
0.0476476
5.98542
7.19511
0.0226483
0.0225573
0.0220002
0.0215103
7.39297
0.11573
5.50965
5.28155
0.0220253
0.0221401
0.0593008
0.0222812
0.0218044
0.023264
0.0228954
0.118909
0.0414569
0.21175
5.93788
0.0708573
0.0220633
0.0274472
0.114396
6.04265
0.0447323
6.87415
0.0522745
0.0219939
0.281608
4.8763
0.0224625
0.0216423
0.147314
5.26799
0.23539
0.0220416
9.46628
33.2655
1.49383
0.021611
6.63719
6.64781
23.7061
0.0240463
0.0221965
7.3803
0.0222945
0.207258
7.179
0.211537
6.2421
0.0912707
5.61544
0.0712067
0.0220779
0.022541
6.056
4.51887
7.96031
3.95018
0.0219499
0.20754
0.0222772
0.0592115
0.0939202
0.126374
0.0220857
0.0251796
0.227054
6.00075
5.6286
9.19949
0.0384393
0.0324812
0.280553
0.0222317
0.0217089
0.0219591
0.0253581
0.0757121
0.0220352
0.0876544
0.0218519
0.0220697
0.0219056
5.69874
0.0223185
0.0222696
0.0557757
0.0526442
0.0215485
11.398
0.0219595
0.0217038
0.0546668
0.0367988
0.0247705
0.0228787
5.0607
0.0358416
0.0344829
4.87105
0.0345065
4.34632
0.0260572
0.117117
28.6221
9.56446
0.0216344
5.83907
2.69758
0.0216851
5.96354
0.0220634
0.0218926
0.0395339
0.0219513
0.106641
5.95922
0.0216278
26.6861
0.0218733
0.0377156
4.46455
0.0215284
5.23473
0.023526
0.0219804
0.0219196
0.0219558
0.232969
0.0726554
11.2841
0.0727335
5.52331
0.0591491
0.0220368
0.247837
8.01557
4.35816
0.0756315
0.168467
0.0652576
0.0266192
0.230541
0.0227051
6.11654
0.0220344
5.71276
0.0227337
0.0756105
0.027946
0.0223433
8.79039
0.0225599
0.0218122
2.98744
0.0235609
0.0219083
0.0451518
0.0851214
0.240053
1.79995
4.17193
5.5544
0.0221325
0.022205
7.66223
0.0219959
0.811832
0.0979041
0.0237505
0.0220609
0.0326783
0.021989
0.0219445
0.0289256
0.686209
0.211774
0.154616
0.0615882
0.0221322
0.0622084
7.75105
0.0218614
0.0947725
0.0238798
5.94975
0.0232167
5.70084
0.0220289
2.66743
0.0222766
0.0865902
0.0219784
0.0250446
0.0295613
0.0215333
0.0216873
0.0215836
5.58269
31.7175
0.0327802
5.37515
0.0219999
0.0425593
0.028078
0.285843
5.60395
0.0329136
0.021542
0.221387
0.0218541
0.0219999
0.0281057
9.16973
10.0034
1.92341
1.28855
0.0737949
0.0229324
0.0218835
4.4986
0.0218959
2.82117
0.027582
0.0221855
6.26487
6.40024
0.0220901
9.46441
0.027023
0.111547
0.0958275
2.30667
6.2161
1.10649
0.0219979
0.021503
5.96786
0.0219496
0.0219278
0.0282408
0.0219661
5.20289
0.260198
0.0595694
5.07124
0.0493383
0.137921
0.023793
0.0219905
0.021537
0.0217805
10.1558
8.68342
0.287591
0.0220569
0.0215351
0.0301225
0.021833
0.0400797
0.0256403
2.84893
6.14822
0.0871692
0.297116
0.297755
0.0218892
0.220441
0.0218862
5.63046
2.22832
6.81391
7.72188
0.0229416
0.0290045
4.9127
5.05112
7.69604
0.0451254
0.122341
5.97135
0.0220475
0.281653
1.56622
0.130209
0.0220416
0.0219732
0.0414443
5.40101
3.12
0.0958154
0.0219708
0.0247084
0.0288594
49.1045
0.0222827
0.592309
0.0218896
0.0227063
0.188187
0.0218636
0.0220236
0.0232509
0.0269778
0.021977
0.0226872
0.0216138
3.41348
0.312679
5.69782
0.0216356
0.0493696
0.022014
0.25862
0.259517
0.0368667
0.0218935
0.0228216
0.587524
0.134345
0.0289907
8.63456
0.126403
0.0219406
0.0220244
4.48645
5.92683
0.0613419
0.0216171
0.618795
0.0221253
0.0360263
0.0216669
1.00786
5.18165
0.0218607
0.0220118
3.82112
0.0219254
6.41926
7.79049
0.0616501
0.0222527
0.0221658
0.0216627
0.0220354
22.3806
8.27067
0.132133
0.0228547
5.42361
0.0219407
0.0219305
7.6911
0.0217507
5.93678
0.0215141
0.0287951
0.0232743
0.0219354
0.0218333
0.0221201
5.08548
0.0224774
0.0221941
0.154614
0.0418817
0.0219738
0.0576037
0.036627
0.0221257
0.280296
0.021978
0.0368528
5.85857
0.0999689
0.0219596
0.285202
0.0984254
0.0847181
0.0265256
0.0672166
8.64957
0.0244237
0.0595397
0.0219555
0.0215916
0.0220096
0.0444888
0.0363921
0.0473745
0.021863
0.0274376
0.0663452
5.96915
0.282706
0.0219252
0.0217782
0.0228262
0.0998281
0.0218102
7.94482
0.0219627
0.0219434
0.0217771
0.429068
5.05029
0.0221548
0.0235725
0.0218843
0.0996183
0.0218077
0.0219602
1.43359
0.0222705
0.0215958
0.0221302
0.133124
0.0217941
0.0218768
5.08502
9.41588
0.606356
0.0437156
5.10909
0.0497509
0.0219576
0.0219043
22.3625
0.0219618
0.070049
0.0898153
0.04168
0.0266656
0.0223106
0.0305311
0.0228426
0.0216238
0.196224
6.02392
0.0430409
0.0217861
6.36828
0.0466912
6.58061
7.66352
0.109441
0.0221397
0.0219204
0.0218332
0.0623441
0.0221258
0.0218311
5.52289
0.159245
0.0429673
0.0219056
0.0655741
0.284747
0.0220953
0.0263709
0.0359803
0.13819
0.0751685
0.0220106
0.0233733
0.0378083
0.0218202
0.0486241
0.022296
9.61139
0.0588442
0.122706
0.0217816
0.0369068
5.09954
4.44247
0.804339
0.0619337
8.88181
0.0221292
0.0219588
0.0226742
0.0868172
0.0221696
0.0234082
0.0306927
0.0620337
0.0220028
0.0219563
0.0220105
0.022277
0.29809
4.01403
2.38874
0.0220004
8.08091
0.0296086
0.0221551
0.0323167
0.0218738
0.0860098
0.0229822
0.0219701
4.76771
32.1288
4.92567
0.0223378
22.2292
0.0219683
5.33746
4.85919
0.0215439
0.0635221
0.278946
0.0216235
0.0219636
16.5537
0.0222492
0.0220215
0.174845
1.16972
0.0220295
0.0312607
0.0221507
0.0251456
0.133616
0.0221669
4.92635
0.0446969
0.0219618
0.995915
0.0590856
0.0829177
0.0222882
0.29143
0.0220409
5.81217
0.0219713
0.0217679
15.4415
0.0217012
5.02549
0.0219672
0.0543754
7.66246
6.03458
0.0219765
0.0223158
0.0220302
0.0232095
0.0268394
0.02664
0.0214891
9.03285
0.0218823
0.0219673
0.133742
0.200469
0.0431425
0.022029
11.2741
0.0856216
0.0223764
0.0351083
0.0219163
0.0217605
8.14403
0.0216324
0.0217719
0.0218168
5.15883
0.0218108
0.0218313
5.60547
0.0251825
6.01096
0.0326703
0.0215157
0.0218808
5.1788
0.0257698
0.0220097
7.41987
5.64128
0.0217917
5.1929
0.119051
0.0219228
0.0220111
0.308284
0.0222212
0.617343
0.0332386
0.0220338
1.72803
12.1006
0.251412
0.0218856
7.41738
0.0298842
0.395058
2.00407
0.0219025
10.1724
0.0220136
0.0318197
0.0258269
6.00913
0.021689
0.0223508
0.987892
0.0222734
0.0354623
0.0216957
0.0220768
6.19996
0.0856485
0.025186
0.035598
2.7237
0.0222946
0.0233294
0.0556876
0.1348
0.0253431
0.0219564
0.0219252
0.0221459
0.0225825
0.0218486
0.0337428
0.0274762
1.05439
0.0220094
6.24147
0.0219718
0.0283233
0.0219861
0.0359981
0.022071
0.0219381
5.68589
4.828
0.0240506
0.0220959
14.6685
0.0275189
15.3521
0.0365398
0.0705995
5.60245
9.55887
4.85595
0.0229664
0.0219877
0.021803
4.50217
0.0218235
0.0220247
0.150054
0.0218395
0.022186
0.0220654
10.2635
3.19558
0.0221812
5.06996
6.07479
0.0239492
0.021942
0.0221645
5.45506
0.0216847
0.101789
0.0222883
0.0219854
0.022061
0.021757
0.0797268
0.0219672
0.0218935
0.0217814
0.0216245
0.297215
0.0216115
0.021809
0.0220974
0.0219536
0.296398
0.67294
0.0581261
0.0225932
0.0219984
0.0221935
0.022225
5.13174
0.0219351
0.031439
0.0663252
5.26914
0.0219589
0.021921
5.242
0.0221256
0.100182
0.0800663
0.0224304
4.84171
5.4759
0.0309168
7.50872
0.0281347
0.128315
0.0214889
10.8833
0.0220506
6.50787
0.0220522
0.0218362
5.14982
2.17862
0.413217
0.145657
0.0219101
6.73936
0.0221766
5.88382
0.0554125
0.0219353
0.021491
0.0218984
0.0513372
0.0603603
5.53918
0.0410607
0.0218872
0.0219431
0.021916
10.1638
0.181826
0.0332186
0.0221451
0.0219106
0.0301066
1.0443
0.0219238
0.0325315
0.0677355
0.0219353
0.0238242
0.0231314
0.059156
0.150954
0.0243915
0.0776351
0.0215933
0.0220201
8.48306
0.0401254
0.0855619
4.66928
0.0216154
9.24425
14.4867
0.0508054
6.16937
0.0219427
4.95092
5.82536
0.113173
0.0217998
9.8587
0.141993
0.0219986
0.0388955
6.72119
0.0226526
0.0219795
0.03927
0.0222713
10.3144
0.0305827
0.0220451
0.0222822
0.0218797
0.0675697
0.0323459
8.49245
0.102461
5.57546
0.0735958
0.0222612
0.021945
0.590104
11.3155
0.0219749
0.0218861
0.14135
0.0220896
0.309491
4.88366
9.85481
0.0219559
0.0219678
6.06625
0.0217606
6.06292
0.497796
0.0217188
5.73254
0.0592641
0.0806057
0.0219798
17.1159
0.0220356
3.76335
0.021508
0.0488771
0.0228013
0.0216912
8.18977
0.0226791
0.0219621
0.0233954
5.71971
0.022082
0.0216047
4.77401
0.0219017
0.0216617
0.0221227
0.0249195
0.0220609
0.022186
0.0278755
0.0221801
0.0263651
0.0215635
0.260074
7.5025
0.129171
5.62199
0.0278611
0.0263475
0.0218806
0.0218325
0.0221242
7.91069
5.22133
0.0219014
0.0222778
0.0219207
21.2844
0.0215982
0.291987
0.705591
5.4493
4.98326
8.6057
5.41291
0.0216391
4.58988
6.1158
4.83788
0.0261579
0.0221383
0.0424344
0.0216463
3.33131
0.126832
0.0601096
0.0268739
8.8929
0.0219975
0.0214849
5.06213
0.138286
0.0219806
0.0215269
0.0443083
0.0221222
14.7826
13.5191
6.08138
4.76493
0.0828008
1.76956
0.0218271
0.275703
0.0221115
0.0219625
0.0216525
5.9258
0.0221529
0.0218252
1.65856
5.31659
0.230015
0.145029
0.0229381
0.0388741
10.8829
9.8978
5.0555
5.70917
0.117423
5.0075
0.214888
1.43602
0.0525053
0.0403976
0.021883
0.0360669
0.0316967
0.0220541
5.0737
0.02181
0.0219773
0.0220069
5.99726
0.0255875
0.0218142
0.0218318
0.0219728
0.126023
0.0867658
3.04532
0.0226777
6.78792
0.0215191
0.0219224
0.0839835
0.0683601
0.0215036
5.41845
0.041391
5.29028
0.0219916
10.8597
0.0609963
0.0219302
0.0220615
0.0219574
5.65935
5.44347
8.82027
0.0219858
0.0222272
0.0215794
5.36389
0.0282042
0.022067
1.49584
0.0219372
0.0226105
5.25158
0.0216037
0.0219586
0.0220724
0.0221074
0.0214814
0.0224134
0.0215184
0.0222238
0.0825852
0.0395734
0.0218372
8.02544
0.0237816
5.85624
9.50568
0.0501206
5.79083
5.33328
0.0218098
0.0415193
0.02203
0.0218365
4.42827
0.0261831
6.48784
0.0273241
0.130182
0.0220624
0.0232529
0.0219161
5.3841
0.0431215
5.66594
0.0220504
0.112541
0.0289427
0.0218031
0.0372536
0.0405452
0.0215503
8.02087
0.0221018
0.0407157
0.0220111
0.030472
0.0486171
0.217989
0.0265701
0.0816133
4.90386
0.0301402
0.0389822
0.0216005
6.29414
0.0582242
0.0222716
0.0710365
3.24575
17.8359
0.0219764
0.0228844
0.0221728
0.0215882
0.021923
5.19204
0.028341
0.0220835
10.4951
0.022115
0.0215921
0.0257621
5.93819
0.0221749
11.5123
4.41136
0.10007
8.49475
0.022607
5.40144
1.10523
0.0216179
0.0288689
0.0220124
0.022323
0.0385835
7.33856
0.0632329
0.911751
0.3573
0.0218884
6.52183
0.0219094
5.10401
0.022268
29.0136
4.51616
0.0221597
0.0217609
0.0222788
0.0325991
0.0846314
0.0219721
17.1856
0.0229452
0.0408593
0.0726033
0.0230977
0.0219222
3.90855
0.0217634
0.219975
0.0293144
20.2315
0.0221279
0.0218817
4.93173
0.0214631
0.0217572
0.0225568
0.059015
0.0520056
0.26746
0.0242918
0.0217608
0.0251177
0.0222646
0.022508
4.96816
0.0219408
0.0478517
5.65447
0.20519
0.021955
0.0862551
0.0218605
0.0222087
0.428887
0.234009
0.0868264
0.0222395
0.0219554
0.0246879
0.0888867
0.021888
0.0293468
0.0218864
0.022245
0.0218446
0.0220205
5.39788
0.0215578
10.4394
5.43781
0.0250966
0.021683
5.10382
6.34933
0.0217955
0.0219783
13.6227
0.0223006
0.0641592
0.213589
1.30436
0.0219192
0.0227829
0.0488246
0.0219861
6.01577
0.183996
0.0218097
0.0310683
0.0380042
0.0220895
0.285187
0.0221531
0.050108
0.0229057
0.0248393
0.0215317
0.021887
0.275307
0.0219581
5.6365
0.0694041
0.0219905
0.0219817
0.0219856
0.0218663
4.96368
0.0222717
0.166721
0.0219078
0.021851
0.0554464
5.98318
0.0217686
0.0215571
0.0219191
0.022586
0.0299979
0.0301708
5.5918
0.0280606
0.021842
0.148912
5.06012
0.0222539
0.0312783
5.30204
0.0357657
0.0224279
4.08525
0.0214814
8.62667
0.0423855
0.0220673
0.0832619
0.0218664
0.021925
0.0219136
4.86727
0.0220108
0.76021
5.06634
1.55211
0.0287713
0.0219665
4.7505
0.022278
24.7295
0.0217237
0.290989
0.0257746
0.0887937
0.022648
4.70737
0.029141
0.0222245
6.1589
7.07248
0.02156
0.775789
0.0219899
0.0309542
0.0217415
28.1105
1.18842
0.022289
0.0220138
5.70134
0.277587
0.0218566
0.0234371
0.0220331
0.0218083
0.0217121
0.0240037
5.26558
14.9245
0.0224558
0.205839
0.0234818
0.0682604
0.0220036
27.5125
5.71359
8.13649
0.0227116
5.15743
7.46907
0.0248997
0.030363
0.0218735
0.0501146
6.79803
0.0221657
0.0217125
0.0217644
0.0273537
0.021586
0.0219884
1.09668
0.023068
0.196195
0.0220142
0.0219742
0.0224499
0.0220437
0.178373
13.1132
0.02179
0.0440528
0.0215433
5.57926
0.0218159
0.0242296
6.50762
2.46997
0.0261582
8.74799
0.402028
0.022067
0.0595312
0.0220989
0.0330521
0.0222351
0.0219275
0.156465
0.115041
5.14706
0.120845
0.0348874
4.78988
0.0231189
0.0417711
0.0227045
5.01395
5.37666
5.51618
0.0219532
0.0215167
7.81034
5.33398
0.0221298
4.98552
0.0221384
0.0268046
0.0214932
0.0218773
0.0218129
0.0218351
0.251904
0.0406227
0.0382854
0.0219746
0.0220211
0.0216432
0.0218256
0.0218157
0.0222629
0.0219353
5.22992
5.39372
4.99292
0.0236407
7.52394
0.0565762
5.75017
7.6646
0.0565329
0.0221129
0.0222267
0.191615
0.0223946
3.48192
10.0296
0.0225845
0.0216989
0.0304562
5.38233
0.0219998
6.56828
0.0218458
0.0221002
6.02155
0.0219286
0.0286866
0.022165
5.10786
0.0215806
0.021939
0.223508
0.0216218
0.0220573
0.021882
0.0216993
0.0668347
0.0218941
20.647
0.0220235
0.0222172
0.0214724
7.88344
0.0339887
0.0221929
5.05356
0.0220866
0.0215569
0.227643
5.53298
0.0220906
5.78389
6.11492
0.0262953
5.38741
0.0221112
0.0219608
0.0967336
0.0216718
5.62288
5.59255
0.0214892
0.0258067
0.0218707
7.27164
1.89194
0.044847
0.0221435
1.08465
0.0362796
0.0523953
0.0267475
0.0220286
0.0225173
0.0218924
0.021808
5.86529
0.0214502
0.02181
0.0421392
7.55994
0.0816767
6.37106
0.0220146
0.0418821
0.0218896
0.0219836
0.0220841
0.0217594
0.0221522
0.0219155
0.0221004
0.0221725
0.0241906
0.0219785
0.0221393
0.0216829
7.92299
6.19659
0.0221846
0.0227272
5.81201
0.0222102
0.132314
5.53922
0.346408
5.98317
0.746258
6.08196
7.50209
7.70237
0.0217696
0.0300936
0.0218669
0.0493884
0.0245817
0.0222237
0.0217897
9.36194
0.0216317
0.0298287
12.5533
0.021587
0.0217301
0.0739001
0.0217003
0.0218836
0.0218808
0.0221621
5.31903
7.59143
0.0220375
0.0219393
0.0220572
0.0228626
0.0430685
0.0228812
12.4816
0.208817
0.022194
4.87696
0.0319532
0.021938
7.60605
0.0215938
0.0516049
0.0217721
0.0223898
0.0223965
4.89522
0.0219287
0.0219636
0.0238522
0.0223058
0.0303713
0.0218168
4.21222
0.0396434
0.0439477
8.00761
6.17893
0.118657
0.0328474
4.60922
0.0219798
0.022005
0.0251875
5.21245
0.0534067
0.0485297
9.99841
0.021977
2.64675
0.233575
3.75501
0.0220002
0.0359336
0.0218697
0.122147
0.0334286
1.17961
6.36046
0.0220159
0.0353428
0.0276701
0.0219152
0.861629
0.021966
0.0298935
0.150268
0.08613
0.0219472
0.0222949
0.0222285
0.0555698
0.0219508
0.0221717
0.021962
0.022078
0.0216618
0.0378674
0.0215457
0.692474
5.15584
0.0225278
0.0217524
0.021556
0.0421327
0.0345769
0.0221252
6.75256
0.0493856
0.0217667
0.0218171
5.26582
5.15909
0.0219386
0.209482
0.0349033
0.0220117
5.72829
0.0225878
0.0712896
0.022234
12.9073
6.17138
0.0222563
0.035382
5.65873
0.0345135
7.52473
0.0222395
0.0254185
5.18633
6.68322
0.0252161
0.0253758
0.0225555
0.0244047
0.0228122
6.74932
5.14959
4.97854
0.0233482
0.0219794
0.0598197
0.0218871
0.231847
0.0247704
10.269
0.0215751
0.0221892
0.0217565
0.0218982
0.0218443
0.083706
7.28688
0.0299328
0.0216203
0.0221033
9.38844
0.0235513
0.0237859
0.0221553
0.035888
7.42372
0.0217029
0.0218577
0.040409
0.0853203
0.0221141
0.0419973
0.0223068
0.0236952
0.133711
0.0286856
6.69289
0.903166
0.0470602
11.1006
0.0218564
0.021886
0.0230743
5.68206
0.0232432
0.571375
0.0216945
5.4746
0.0359507
0.0218599
0.0298909
0.0222891
5.94813
0.0558439
0.0302796
0.240681
0.118967
0.0221506
0.0222004
0.0222284
0.0247955
5.44734
0.0536858
0.022103
0.208688
0.0218453
5.68334
0.0219463
5.23391
0.0291738
5.8514
1.96837
0.057275
0.0219632
0.0220066
0.0218683
6.2341
0.0219748
0.0530201
7.22354
0.0215335
9.02569
0.0327863
0.0219542
0.0835073
0.0219145
0.0218279
5.48673
6.61967
6.89728
0.0218883
0.0217609
0.0227607
0.0242611
0.0229307
0.0219424
10.3015
0.0825467
0.586065
0.0225094
0.0420035
1.99806
1.28589
0.0301844
0.0217564
5.62988
0.0229216
5.30372
0.0218781
0.0220279
0.0219827
0.0217202
0.0215312
0.022213
0.0217845
0.0368569
7.06085
0.0352951
5.19472
0.0250433
0.0222085
0.0221234
0.400369
0.0220241
0.0224854
0.0220448
4.68739
4.76458
0.02178
0.0234824
0.0218596
0.0219747
0.0222784
0.0220633
0.0218936
0.877243
0.0222202
0.0217998
0.126535
0.0218201
4.96019
0.0868974
0.0961749
0.205534
0.0239565
0.0220781
5.75402
0.0220654
0.0806747
0.0286318
0.0217841
0.0492461
0.0220649
5.58312
0.0216103
0.0217943
6.0915
0.0559151
9.45646
0.021751
0.0947481
0.145803
0.0316692
4.99739
0.0218814
0.0217439
0.0216187
0.0890578
0.0227621
2.42074
0.0220079
0.0410747
6.79857
0.216879
0.0220168
0.849982
0.0253057
7.28627
0.0235189
0.0233614
0.0239313
5.24235
0.0219652
0.0223348
5.11098
0.0215623
0.0261684
0.0218203
0.046438
6.01333
7.2787
0.0218569
0.095342
0.0220057
0.27659
0.0220165
0.022426
0.0931217
21.3789
0.0391458
0.0219974
0.0253856
5.31286
0.0574794
0.0857261
5.42352
0.0220247
9.94767
0.0229668
0.157117
0.0217892
0.0250542
5.93318
0.0254422
0.0219206
0.434771
7.48305
6.3256
0.0217016
5.32482
0.436509
0.0216166
0.144225
10.7115
0.0222782
0.022792
3.72863
0.0214953
0.0224064
0.0218291
0.0220588
0.116274
0.0857734
0.0346237
5.50974
0.0222712
0.0581108
0.0296849
0.0221783
0.0232542
0.0339125
0.0219863
0.0222271
8.19171
5.22629
9.13208
0.0216789
0.0374768
0.0221357
5.25314
0.0220944
0.0412989
7.61231
5.43481
0.0667642
0.021957
0.36462
5.07681
1.93482
0.0220037
0.0221248
0.021831
5.60759
0.0375388
0.148622
5.83763
0.0220555
0.0222113
5.54397
0.0286887
0.0866381
0.0221736
0.0218762
0.0219759
1.38204
0.0220167
0.0545183
0.0217542
0.0221101
0.0217922
5.5807
5.24117
0.0237787
0.492036
0.0230011
1.85262
0.0219123
0.0218996
0.0893963
0.0220523
0.0219233
0.0254003
0.100528
0.0290017
0.124794
0.0220161
0.0691537
5.17285
0.0220841
0.0220131
0.0220101
5.08347
0.0448916
0.0467643
0.090611
0.0217735
0.0218547
0.136246
0.0256987
6.51648
9.15092
0.0356698
5.17705
6.62988
5.81954
0.0562515
0.0222806
0.0219998
0.285886
5.11994
0.0218716
0.0378065
5.46239
0.022107
0.228959
1.19135
0.140246
0.0219195
0.0942532
0.0221258
0.0221058
0.0216249
0.849463
0.0221126
0.0542485
0.0369328
0.0219844
0.0221838
4.9454
0.0217812
0.0215955
0.0476464
4.2331
0.0372521
0.0220244
0.0395946
6.88572
5.30125
0.0281352
6.31886
0.0880838
0.115219
0.0577814
0.0220915
0.151297
0.0325855
0.0216541
0.0217226
0.0223415
0.0257696
0.304449
5.36626
0.0222183
1.05656
0.0736698
2.33535
12.8326
0.291454
5.22396
0.138442
5.14535
0.0493517
5.3132
0.060877
0.0219767
0.0221116
5.84475
4.74902
0.123517
5.29595
0.021811
6.37194
5.32628
0.0220359
0.0216458
0.0372959
0.0633469
5.79872
10.2552
0.10677
0.0218728
0.0218206
0.0222177
8.7262
0.0254494
4.2115
0.0244737
25.2088
0.192187
5.56226
0.0275589
5.67855
0.021799
0.0215921
0.0257898
0.0221632
6.18652
0.12711
5.25177
0.0220592
6.55575
5.0208
0.0215472
0.0419092
5.48406
0.0432278
0.0218707
0.0260402
0.0219776
5.1034
0.0214564
0.0223322
5.96921
0.0291483
0.048477
0.0276897
0.0218135
0.0221822
0.0413727
0.0220435
0.0216502
0.0218344
0.0299795
5.64605
3.3196
0.0219775
0.127494
6.35007
0.0221157
7.44198
6.67218
0.022106
10.8932
0.0220745
0.0978021
4.81706
0.021968
0.0221662
0.0221882
0.0907425
0.0260451
0.0218593
6.15313
0.0219551
6.92749
0.0220401
6.87275
4.98774
0.0249791
0.0217391
0.16023
0.0792648
0.152228
4.70805
0.0441988
0.0221906
5.00845
0.0224609
0.0852557
0.0738576
0.0297912
0.0612365
0.0218724
0.124056
5.37504
5.90748
0.111386
0.0218763
0.208116
5.28273
0.0222719
0.196
0.112916
1.77219
0.0219548
0.0249812
0.0215021
0.214293
6.13466
0.0907558
6.21909
0.0829288
0.0382692
5.45382
4.89159
5.63508
0.510516
9.5209
0.0709601
12.2717
0.052754
5.24686
5.89
0.0232797
0.0223119
0.0269497
0.0597894
0.0219986
0.0261229
0.0222616
0.024183
0.0220078
0.0218632
6.68143
5.19906
0.0222037
0.0507287
0.0221063
0.021793
0.023553
0.0791841
0.0234106
0.0878518
0.022167
0.0431112
0.450388
0.0982873
0.0456971
0.0219766
0.0966516
0.0222203
0.0219264
0.600764
0.0228201
5.65416
0.175152
0.0219345
0.0242363
4.24375
0.0220749
0.0927292
0.0565071
0.0596047
0.0264791
0.0367939
0.0220129
0.0221679
5.41674
9.16119
0.035656
0.079356
0.0220381
5.58676
0.0255412
5.85682
0.0768951
0.0221091
0.0216794
6.33555
0.15568
6.17991
0.0280632
5.84089
0.0226239
5.54975
9.1485
0.0307512
0.143752
0.0218549
7.22898
0.0222103
10.9993
0.0287044
5.02324
4.89407
5.1452
5.56744
0.0359837
7.82702
0.175388
0.0485092
5.059
4.83326
5.34451
0.0217114
0.0258297
0.073441
8.52239
0.0218705
0.0217892
0.0297127
0.0603272
10.964
0.0577677
0.0446211
0.0219322
0.116342
0.0215462
0.189573
5.16685
0.795735
0.0217786
6.76148
0.0670646
0.0225188
5.72481
0.455659
0.0264357
5.38179
5.14673
4.52049
0.0550328
0.0218382
0.0288826
6.39885
0.0374385
0.0219833
7.30037
0.0214964
6.31151
0.0232156
0.0221482
5.86877
5.17196
0.0218347
0.051716
0.0219547
8.04395
0.021508
5.03247
0.154178
0.0425498
0.0219072
0.0220073
0.0221603
0.0380134
0.0528684
0.116206
0.0289527
5.60938
0.0331913
0.0253105
6.28207
3.53845
0.021644
0.156605
0.0219422
5.36317
0.0220801
0.0428217
5.26663
0.0274668
0.0219302
5.43868
0.0222761
0.0222549
0.0459148
0.0222782
0.0218951
6.09863
0.0653886
5.64963
0.0222787
0.115239
0.0892531
0.0216462
0.0219284
0.0235876
0.0218462
5.19116
0.458414
3.43659
5.68624
4.40497
5.29443
0.0219191
0.0220087
0.0219461
0.0221268
0.107105
7.11222
0.0303618
0.0248038
5.50913
0.0222613
0.021779
1.7708
0.131515
0.0214713
0.0219631
0.0218828
0.220055
0.0217554
0.0219306
0.144808
0.0339166
0.120006
0.023831
5.81089
5.82503
0.0214638
0.0217217
5.14103
0.0338664
0.0250894
5.5382
0.0357925
0.114809
0.829867
0.0234106
0.539948
5.1184
0.0215407
0.0257502
5.58747
0.0251759
0.0220148
4.12915
0.0551141
0.0552962
0.0221561
0.350978
0.0237324
5.26099
0.0220322
0.0219784
0.0331834
0.0614169
6.74805
0.0357284
0.0219528
25.1264
5.53996
0.0239777
0.0728543
0.0220342
0.0218958
0.0217477
5.33525
0.0218464
6.84128
0.216571
5.65202
6.12082
0.0351286
4.59557
0.0328929
6.68698
2.07247
0.110883
0.994473
0.0736006
0.091877
5.32418
0.0517958
0.0220048
0.0220603
16.2687
0.039844
0.0230029
0.0221496
6.23814
9.22439
0.0220939
4.34036
9.60653
0.0672496
0.647809
0.0402819
0.0402712
0.0419307
0.0972777
5.32808
0.0274451
0.202401
0.227432
0.021758
0.12382
0.0279793
5.80035
0.0670857
0.0219656
0.218666
0.0634221
0.0740204
0.544697
0.0225152
5.13866
0.189722
10.3774
6.20694
0.0221835
0.0220145
0.0218791
7.15007
5.19422
0.0819023
0.170293
0.021845
0.0217345
0.022583
0.0823257
4.33418
0.0523933
6.45378
0.074145
0.385693
1.50799
0.0217606
0.0553535
9.10872
7.09011
6.02194
6.18341
5.65704
0.0222149
5.32831
6.07858
5.10845
3.75388
0.021937
6.15804
0.0225609
5.21423
0.0272882
12.3549
11.7143
4.07437
0.0221563
0.0219762
0.0738903
0.0237652
0.122871
0.0222726
0.04842
0.0482855
0.0217981
0.022003
0.0342575
0.0219308
8.19056
0.021886
0.023054
6.15472
0.0682406
6.05099
0.120741
7.87265
0.0219227
0.0219801
0.0222552
5.32985
7.57161
0.022025
0.0501183
6.32391
9.26893
0.0218875
5.92333
5.1812
0.0218037
5.49852
0.0219087
0.0409705
0.0220118
0.0590038
0.022071
0.125207
5.694
0.0218572
0.0221592
6.3185
0.0353974
0.0216968
0.0220924
9.41832
0.0218735
0.0221706
5.19945
9.58688
5.93558
0.0924281
0.0219236
5.19379
6.20915
1.15288
0.0221662
0.0931617
0.0682888
0.0219511
0.248247
0.0218086
0.021815
0.0218257
0.0570115
6.20985
5.88459
0.0426592
0.164615
0.0218742
5.79351
0.0218153
0.0280277
0.0463855
0.0233529
0.0523104
0.0359586
0.0218626
0.107511
6.22636
0.0580705
19.6251
7.88075
0.0608306
0.0219546
0.0249304
0.250314
0.0295036
0.0221944
0.116116
8.13406
0.0217046
6.25734
0.028584
0.0219524
0.771242
6.36759
4.94053
0.0219755
0.026719
0.0248928
0.0545521
0.0490811
0.0218667
0.0219645
0.109986
1.03452
4.90688
0.0273551
0.0222773
0.0217415
0.182358
0.0220251
4.93886
0.022273
0.0406665
7.71449
0.188154
6.28598
0.0220518
6.38289
4.66789
6.77379
0.0220033
0.0222122
0.053629
4.57376
0.0218255
6.42992
0.0218688
0.0214967
6.49491
0.0221839
0.0559648
0.0279187
0.0228618
0.0316466
0.0292009
0.0660155
0.0464258
0.0395368
25.1383
0.167571
5.07672
0.0466871
0.0342808
0.0566093
5.13638
0.189799
0.027591
0.0220796
6.19175
0.0226673
2.52358
0.192366
0.808557
0.0216899
7.15105
0.0220564
2.00919
0.0225511
0.83386
5.54276
0.0493823
11.3316
5.60385
8.62098
5.20994
5.66578
0.0638762
0.0219437
0.0217968
0.790481
0.0218019
0.0219316
0.021984
0.0402626
0.0233631
0.0342438
9.00834
6.22686
0.129893
0.0275558
0.0273933
0.0215776
0.0254491