/*--------------------------------*- C++ -*----------------------------------*\
| =========                 |                                                 |
| \\      /  F ield         | OpenFOAM: The Open Source CFD Toolbox           |
|  \\    /   O peration     | Version:  v2012                                 |
|   \\  /    A nd           | Website:  www.openfoam.com                      |
|    \\/     M anipulation  |                                                 |
\*---------------------------------------------------------------------------*/
FoamFile
{
    version     2.0;
    format      ascii;
    class       volScalarField;
    location    "150";
    object      k;
}
// * * * * * * * * * * * * * * * * * * * * * * * * * * * * * * * * * * * * * //

dimensions      [0 2 -2 0 0 0 0];


internalField   nonuniform List<scalar> 
18355
(
0.000162084
0.0337309
0.000147528
0.000145616
0.000150583
0.000182389
0.000147546
0.000174176
0.000151227
0.036937
0.000144995
0.0338858
0.000184071
0.000147962
0.000148655
0.000151823
0.0137481
0.000146276
0.000148526
0.0543596
0.000154066
0.000149607
0.0706433
0.000150614
0.000156233
0.000148904
0.000148376
0.000150923
0.0187553
0.000148033
0.000149169
0.000152606
0.000146254
0.000146839
0.000168613
0.000162783
0.000149883
0.000182742
0.000150746
0.000145146
0.000147975
0.000168359
0.000147567
0.0294835
0.000147916
0.000183882
0.000169991
0.000151975
0.000167778
0.000146416
0.000144986
0.000147377
0.000149831
0.060689
0.000148483
0.000148374
0.000187333
0.000148768
0.000458717
0.000184891
0.000146445
0.000177662
0.000146156
0.000162665
0.0377491
0.000161476
0.00815408
0.000157684
0.000148415
0.000149453
0.000172047
0.000149683
0.000186115
0.000146619
0.000174136
0.000147518
0.0491956
0.000152414
0.000159856
0.000147144
0.000147628
0.000259447
0.000153782
0.000164302
0.00014885
0.000183699
0.0303223
0.0546362
0.0180325
0.0665409
0.000236953
0.000148325
0.000148651
0.000144415
0.00648277
0.0676156
0.000147121
0.000156328
0.0583698
0.00857239
0.00920051
0.0101495
0.000164324
0.00230336
0.000151377
0.000188592
0.0214635
0.000177441
0.000161625
0.000183344
0.000147811
0.000150444
0.000148912
0.000150646
0.0535223
0.000147859
0.000480026
0.050141
0.000471045
0.00016424
0.0397462
0.00119432
0.000152305
0.000171849
0.000147116
0.000178098
0.000147344
0.000149721
0.00372662
0.000144431
0.000145027
0.00499641
0.000171646
0.000156084
0.000161298
0.000149689
0.000148008
0.000144977
0.000147764
0.000172952
0.0113597
0.018648
0.000149577
0.000147781
0.000188325
0.000149339
0.000153817
0.0263166
0.000152782
0.0253938
0.000149871
0.000149406
0.00016756
0.000430751
0.000181535
0.00014978
0.00479643
0.000469123
0.000149762
0.000178836
0.000155474
0.000153323
0.000156799
0.000156609
0.00020921
0.000272316
0.0616573
0.000166294
0.000204788
0.000146469
0.0232045
0.063994
0.000144889
0.00014499
0.00015179
0.0243545
0.00017804
0.000148592
0.00202453
0.0477289
0.000166248
0.000204439
0.000158301
0.000147229
0.000218457
0.0256416
0.0708045
0.000211802
0.000151352
0.0107903
0.000186945
0.000147655
0.000156445
0.00445002
0.000162596
0.000149566
0.00451836
0.000158044
0.000167147
0.000144984
0.000151035
0.000152298
0.0461235
0.0687992
0.010908
0.000156567
0.000475621
0.0588545
0.0663075
0.000166966
0.000148004
0.000149625
0.0526495
0.000149438
0.000146468
0.000248808
0.0419536
0.0523696
0.000148961
0.000152609
0.000245995
0.000147717
0.000163703
0.000147896
0.0551602
0.000149099
0.049676
0.0250813
0.000171576
0.000148
0.000149807
0.000159263
0.000154995
0.0529202
0.000150385
0.000148856
0.000148655
0.000183999
0.0002705
0.0107287
0.000160954
0.000203449
0.000149425
0.000146546
0.000149265
0.0201889
0.0171628
0.000470738
0.00018129
0.000155365
0.000151044
0.000530176
0.000158641
0.0700563
0.000148848
0.0320435
0.0558076
0.000178831
0.000148073
0.000147546
0.000160791
0.000173965
0.0543325
0.000172354
0.000146674
0.000146431
0.000149734
0.000207887
0.000170364
0.000168751
0.000150457
0.021809
0.000214967
0.000187505
0.000149073
0.00559384
0.000147211
0.00014782
0.000724308
0.000146702
0.000147507
0.000187747
0.000147311
0.0140149
0.000158478
0.000152508
0.000146906
0.000166216
0.0366405
0.000152658
0.000145649
0.000147964
0.000194259
0.0478871
0.000149758
0.000149847
0.047569
0.00016538
0.000181531
0.000179366
0.000147848
0.00017276
0.000149951
0.000149773
0.000176301
0.000213196
3.51563e-05
0.00019605
0.0001445
0.000167184
0.000151073
0.000148509
0.00591735
0.000147594
0.000208964
0.000167883
0.0001486
0.00014508
0.000204712
0.00916524
0.0632141
0.000148895
0.000156472
0.0266312
0.00014689
0.000307997
0.000159467
0.000158688
0.000260057
0.000144495
0.000314916
0.000148369
0.000161843
0.000148709
0.000181291
0.0359995
0.000149787
0.0405645
0.000164346
0.00014819
0.000169308
0.000177971
0.00560213
0.0595894
0.00176849
0.000148794
0.000146115
0.0713678
0.000164168
0.00014871
0.00014997
0.00124237
0.000218103
0.000424546
0.0749727
0.000148558
0.000152156
0.000514109
0.000147787
0.000150209
0.000224438
0.000167359
0.000153959
0.0119231
0.000149821
0.000161933
0.000254039
0.00845828
0.000145604
0.000148309
0.000147723
0.000147135
0.000165283
0.000147136
0.000164852
0.000147731
0.000152832
0.000148576
0.000151027
0.000147551
0.000148476
0.00014742
0.000147409
0.000151334
0.000170785
0.0174529
0.000147884
0.0151642
0.000159268
0.0179748
0.000162682
0.000177425
0.000149414
0.00959638
0.000149723
0.000147894
0.000148813
0.000145461
0.0578284
0.000152925
0.000146742
0.000168942
0.000164595
0.000147827
0.00014689
0.0552109
0.000149457
0.00014726
0.000526797
0.000147297
0.000449524
0.00900352
0.000224418
0.000153492
0.000151363
0.0424113
0.0001496
0.000147488
0.000439312
0.000149775
0.000144886
0.0120477
0.000146582
0.0386637
0.00017125
0.000179031
0.0117292
0.000149734
0.000147486
0.0443071
0.00018216
0.0226569
0.00261796
0.000147756
0.000147294
0.000149285
0.0294211
0.000162131
0.000148632
0.000149816
0.000149374
0.000162374
0.000471094
0.000155641
0.000149178
0.000149819
0.000162178
0.000244298
0.0495138
0.033108
0.0227291
0.000162836
0.00016219
0.0350231
0.00014898
0.000146762
0.000147959
0.000147852
0.000164695
0.000147993
0.000146343
0.0068827
0.00016253
0.000168538
0.0672762
0.000163209
0.0207652
0.000147741
0.00014748
0.000147847
0.000147667
0.000149878
0.000149861
0.000147887
0.019889
0.000148889
0.000144743
0.000826943
0.000186261
0.00014682
0.000151648
0.000164401
0.00068253
0.000151456
0.000147156
0.00452327
0.000152002
0.0215774
0.000159914
0.000147204
0.00731826
0.000186279
0.000146142
0.0735021
0.0155181
0.0502617
0.000147195
0.000147056
0.000154458
0.000193219
0.000149554
0.0234318
0.0226251
0.00948388
0.000235864
0.000145399
0.00017109
0.0364064
0.0677644
0.0564552
0.000148898
0.000155145
0.000155465
0.0483662
0.00977088
0.000243195
0.000149116
0.000147725
0.000148745
0.000162354
0.000147918
0.0360125
0.000156074
0.0552146
0.000148072
0.00014926
0.000147442
0.000157327
0.000158981
0.000239211
0.000147366
0.000187499
0.000438854
0.000161974
0.000148067
0.000152114
0.000163015
0.000149795
0.000161672
0.000167584
0.000161571
0.00018517
0.000150122
0.000146103
0.000147959
0.000149844
0.000165386
0.000153967
0.000177656
0.000147681
0.000150629
0.0137755
0.000144554
0.000157579
0.000149822
0.000182917
0.000152242
0.0575843
0.000149945
0.00917577
0.000154039
0.0001521
0.055297
0.0126219
0.0632934
0.000162086
0.000152615
0.000147276
0.000147709
0.000187967
0.000168362
0.00015889
0.000169691
0.0189726
0.000211168
0.000147379
0.068809
0.0116309
0.000152008
0.00014771
0.000157614
0.0644699
0.000160743
0.000149393
0.000164
0.000183591
0.000168758
0.000156757
0.000333038
0.000155946
0.00018628
0.0237853
0.000265053
0.0079478
0.000163709
0.000180588
0.000157707
0.000148388
0.000152103
0.000147961
0.000182905
0.000183095
0.0293274
0.00017023
0.0459793
0.0111069
0.000163422
0.000152209
0.0259184
0.0865033
0.00014511
0.000172255
0.00806494
0.0350863
0.000155852
0.000145237
0.000155833
0.000156768
0.000162782
0.000182199
0.000147616
0.00891781
0.000151445
0.000153238
0.0504831
0.000147595
0.000159184
0.0573732
0.000147498
0.00015065
0.0697534
0.000146173
0.000187597
0.000144563
0.0132521
0.000162297
0.000169677
0.000158945
0.000154179
0.000192603
0.000153135
0.0261944
0.000181233
0.00014881
0.0277968
0.000170147
0.000355082
0.0178138
0.000134532
0.000235714
0.000147739
0.000145543
0.0148455
0.000152244
0.000162252
0.000149559
0.000157851
0.019872
0.063685
0.000165471
0.016036
0.00016435
0.000151599
0.000145265
0.000149484
0.000169598
0.00017038
0.000146651
0.0484551
0.000156897
0.000165253
0.00014988
0.0699175
0.0520964
0.000148058
0.000145114
0.000182284
0.000149609
0.000146137
0.0131217
0.000172496
0.000149561
0.000147688
0.000193751
0.000167764
0.000160379
0.000163951
0.000148426
0.0395389
0.000173807
0.000149025
0.000183852
0.0629499
0.000147546
0.058558
0.000145597
0.000147509
0.000149471
0.00015867
0.0512645
0.000163838
0.0262018
0.000159163
0.0455285
0.000250473
0.000157562
0.0431408
0.000148376
0.088804
0.000151897
0.0261182
0.0334609
0.000149019
0.000457716
0.000153758
0.000154411
0.0753608
0.000166033
0.0463309
0.000146648
0.0588888
0.000147909
0.0299821
0.000149337
0.000155813
0.00016239
0.000146732
0.000145321
0.000174664
0.00483859
0.0258989
0.000147337
0.000340216
0.000157172
0.000146766
0.000148698
0.000155813
0.00019441
0.084051
0.000162974
0.000149828
0.000155835
0.0508167
0.000155693
0.000147629
0.000146746
0.000156323
0.000160196
0.0180455
0.000147531
0.000230075
0.000162752
0.00642188
0.0485652
0.00765063
0.000145031
0.000177742
0.000147607
0.000149325
0.000158868
0.0102198
0.000146697
0.000147263
0.000147305
0.0879056
0.000151299
0.000148953
0.000159835
0.000160063
0.0712043
0.0256432
0.000147385
0.000147947
0.0700689
0.000149014
0.0697336
0.0380246
0.0556977
0.000174411
0.000178017
0.014256
0.000162723
0.000149025
0.000146583
0.000148481
0.00014933
0.000148656
0.000149414
0.0754721
0.00696696
0.000149109
0.000167501
0.00014625
0.000151696
0.000164139
0.000148486
0.000153457
0.000150832
0.000191596
0.000369947
0.000172738
0.0509803
0.000162685
0.010692
0.00017081
0.050293
0.0751217
0.000173951
0.00042905
0.000217675
0.0178943
0.00014792
0.000147746
0.000147683
0.00015692
0.0561429
0.000146428
0.000149827
0.000180636
0.000146682
0.000162791
0.000162048
0.000149396
0.0120341
0.000148646
0.00014796
0.000195468
0.000145902
0.000194116
0.000186103
0.000148812
0.000151769
0.000146752
0.000165443
0.000146669
0.000151906
0.000131612
0.000147976
0.073005
0.000148859
0.0749521
0.000155286
0.000187028
0.000147583
0.000181021
0.000163711
0.000149072
0.000148836
0.076369
0.000147731
0.0178967
0.0205493
0.000150413
0.000148637
0.000148433
0.000145093
0.0136341
0.000147663
0.0780348
0.00799928
0.000165398
0.0386572
0.00014714
0.000147457
0.0643258
0.0705844
0.000152707
0.000147873
0.000147845
0.000146513
0.000152692
0.000161503
0.000227168
0.000153748
0.0210198
0.000350805
0.0309804
0.000158071
0.000147917
0.0277849
0.0240235
0.000159962
0.000147604
0.00014882
0.0808958
0.000147957
0.0138977
0.000164855
0.000149656
0.000155892
0.000145994
0.000162718
0.000155914
0.0001467
0.000144583
0.000152377
0.0323467
0.000149434
0.000178548
0.0324194
0.000148711
0.000147308
0.000161489
0.0172612
0.000161649
0.0652002
0.000149678
0.000145033
0.000151399
0.0212399
0.000185242
0.000288524
0.000147788
0.000157092
0.000148353
0.0608312
0.000146065
0.0113103
0.000162198
0.0149338
0.00014921
0.000147279
0.000177819
0.00014769
0.0281087
0.000148818
0.000394717
0.000149681
0.000146474
0.000152254
0.00021167
0.0230794
0.000155239
0.000150012
0.000149759
0.000148784
0.000146628
0.000149861
0.000187583
0.00014953
0.0493552
0.00015203
0.0650538
0.000148212
0.000145221
0.000143791
0.0705464
0.051981
0.000149814
0.0326646
0.000148351
0.00463579
0.000149918
0.000199762
0.00014709
0.0518854
0.000147363
0.00015585
0.000148224
0.000147655
0.000149721
0.0576456
0.000789322
0.0359784
0.000158206
0.000157063
0.000153486
0.000147774
0.000145633
0.000146177
0.000151402
0.000192727
0.00014915
0.0148503
0.000184138
0.000147851
0.000149934
0.00471963
0.000188183
0.00015143
0.00015334
0.000158528
0.0234567
0.000175437
0.0882112
0.000178097
0.000181086
0.000173672
0.000147978
0.000147457
0.000180895
0.000161045
0.000148055
0.00430187
0.000156241
0.0179102
0.000149566
0.000182123
0.00015828
0.000173656
0.000155571
0.000148294
6.09383e-05
0.00014832
0.0143353
0.000148302
0.000148253
0.0652069
0.000162184
0.000158417
0.0773654
0.000147568
0.000167391
0.0230188
0.000147701
0.000168485
0.0271443
0.000150688
0.000147518
0.000148357
0.000153895
0.00015319
0.000181508
0.0575764
0.000152717
0.000154997
0.0310565
0.000145482
0.00798317
0.000155189
0.000151719
0.000270791
0.0107801
0.000146098
0.000147291
0.000152819
0.000146178
0.000145738
0.0632626
0.000149786
0.000158752
0.000145154
0.000163564
0.000146112
0.000170143
0.000216764
0.000151786
0.0463745
0.000147398
0.000152371
0.000147812
0.0431373
0.000156341
0.0001469
0.000147834
0.000148802
0.000147483
0.000187857
0.055728
0.024207
0.0439475
0.000149163
0.000149669
0.000181595
0.00014897
0.000146116
0.0002495
0.0454062
0.000151997
0.000148226
0.0318966
0.000149461
0.000149177
0.0393971
0.000182572
0.0381999
0.000151117
0.000147871
0.0437635
0.000148992
0.000157781
0.000149435
0.000161197
0.000148011
0.000177545
0.00019869
0.000170294
0.000148588
0.0447724
0.000150292
0.000146931
0.000149302
0.00014832
0.000147681
0.000148706
0.0449456
0.000149605
0.00874452
0.00014924
0.000159024
0.0743387
0.000146491
0.00018832
0.000151211
0.000146429
0.00015173
0.000181323
0.000148138
0.00014734
0.000148766
0.00014803
0.000175804
0.000145834
0.000149783
0.000156357
0.000148534
0.000158928
0.0128064
0.0427878
0.0145843
0.05407
0.000187513
0.000173488
0.0838517
0.0529136
0.000148627
0.00014932
0.000145435
0.00017152
0.0535675
0.000161276
0.000154241
0.000145227
0.000147847
0.000148978
0.000152173
0.0383826
0.0536933
0.00949303
0.000178215
0.00014861
0.000149534
0.00014897
0.0323274
0.00121973
0.000147755
0.000343127
0.000145688
0.000161584
0.000152388
0.000162721
0.000161016
0.000254298
0.000151219
0.000170736
0.000145954
0.000147151
0.000173871
0.000147386
0.000148298
0.000175962
0.000210733
0.000148779
0.000166727
0.000147386
0.00014799
0.000146596
0.000147801
0.0285912
0.000157651
0.000151033
0.000148877
0.0440898
0.000173017
0.000148414
0.000157603
0.000160766
0.0199346
0.000221093
0.0630906
0.000200918
0.000179317
0.000190547
0.000196173
0.000170443
0.0355986
0.000145048
0.000147322
0.000147599
0.000173107
0.000149136
0.0246745
0.000147355
0.000149005
0.0671662
0.000172859
0.000149676
0.000165881
0.000147513
0.000150831
0.000277459
0.000185261
0.000147532
0.000201064
0.000186171
0.0136435
0.0587393
0.000147944
0.0360733
0.000147343
0.000167607
0.000146936
0.000146761
0.0346667
0.000161881
0.000151902
0.000147876
0.0464314
0.000153745
0.0116335
0.0300092
0.000149733
0.000145869
0.000152839
0.0434627
0.000182326
0.000169269
0.000158731
0.000212562
0.000147992
0.00014993
0.000147928
0.000148141
0.000151085
0.000163146
0.0827979
0.000178047
0.000189771
0.0303464
0.000147879
0.0155138
0.000186016
0.000162343
0.000149221
0.000147831
0.000147342
0.000147253
0.000147438
0.0101235
0.000183533
0.060654
0.000178043
0.000185596
0.000149187
0.000186476
0.0590459
0.00016147
0.000155387
0.000146865
0.0667972
0.0376849
0.000176101
0.000189949
0.000148077
0.00921802
0.000150487
0.000152767
0.000168265
0.000169122
0.000146014
0.000180885
0.0514715
0.000149836
0.0148994
0.0560931
0.0767143
0.0100033
0.000162545
0.000264152
0.000163863
0.000162864
0.0387728
0.000147352
0.000159023
0.000147072
0.000149645
0.0490027
0.000152348
0.0769172
0.000145924
0.000148828
0.0556186
0.000147933
0.0697242
0.000150632
0.000186107
0.000151928
0.000149164
0.0739989
0.000155616
0.00017943
0.000146974
0.000147307
0.000211664
0.000176485
0.000148303
0.000155931
0.000241058
0.000178578
0.000347227
0.000149721
0.00014755
0.000144678
0.0001476
0.000157226
0.000164353
0.00014542
0.0610925
0.000147336
0.000148177
0.000171261
0.0352149
0.000177925
0.000159682
0.000146253
0.00015116
0.00018071
0.000304019
0.000252107
0.04589
0.000157736
0.000162868
0.000219009
0.00014849
0.000168545
0.0436147
0.000147415
0.000208093
0.0310905
0.000246747
0.000248754
0.073436
0.000181983
0.000148799
0.0020157
0.000154978
0.000170496
0.000181465
0.000147646
0.00018766
0.000147567
0.000148107
0.000173309
0.011588
0.000159092
0.000147441
0.000164191
0.0318594
0.000166763
0.0161284
0.000147617
0.033773
0.000146102
0.000170205
0.000184952
0.000147846
0.0275833
0.000147762
0.000146739
0.000148641
0.000148092
0.0739808
0.0001824
0.000149655
0.0655118
0.000148455
0.0168232
0.00014605
0.0158831
0.000161921
0.000184992
0.000152909
0.000147857
0.000145778
0.000148514
0.000224062
0.000175087
0.000148761
0.000169588
0.0137486
0.0790285
0.000170666
0.0503639
0.0394722
0.000147876
0.0288558
0.000146429
0.000213489
0.000147923
0.000148646
0.000149145
0.000176173
0.00980478
0.000212353
0.000182145
0.0483641
0.000186046
0.000184427
0.0402741
0.000147016
0.000172486
0.0155999
0.000144745
0.00017303
0.0199384
0.000208383
0.000147501
0.0466346
0.000165441
0.0186596
0.00515657
0.000156668
0.000182109
0.000155061
0.000147652
0.000145064
0.0272469
0.000198651
0.000180778
0.000196966
0.000147199
0.00509294
0.000159274
0.000144396
0.000149826
0.000177347
0.00015325
0.000149386
0.000149777
0.000249834
0.000147148
0.000163419
0.0231831
0.000145726
0.00014712
0.00253493
0.000146794
0.000161305
0.000158936
0.000178276
0.000319919
0.00014786
0.000178888
0.000159286
0.000169231
0.000157073
0.000153843
0.000167507
0.000213745
0.000170071
0.041613
0.000167014
0.000148811
0.000214432
0.0563784
0.000181164
0.00014634
0.000148248
0.00017182
0.000152641
0.0582321
0.000203748
0.000158591
0.0243044
0.000152049
0.000202794
0.0571789
0.000148247
0.000148751
0.000148374
0.000147777
0.00101336
0.000242408
0.000155395
0.00020278
0.00013207
0.000168517
0.000148775
0.000153627
0.000170962
0.000147471
0.000146994
0.00180831
0.000151358
0.000503561
0.000146698
0.000147835
0.000149798
0.000168021
0.000161183
0.000166422
0.000148671
0.000151626
0.0779358
0.0193281
0.000356163
0.000486774
0.000153901
0.000150246
0.0803604
0.000182903
0.0124357
0.000162703
0.000147414
0.000172259
0.000155199
0.000149883
0.000146417
0.000167741
0.000181446
0.0468152
0.000181555
0.000244915
0.000148984
0.000150805
0.000148654
0.000189726
0.0203184
0.000208515
0.000409192
0.00014742
0.0546195
0.000151602
0.000147638
0.000152652
0.000149039
0.00017033
0.000147871
0.000182831
0.000145698
0.00038068
0.000157909
0.0229572
0.000150141
0.000148867
0.000155582
0.000146043
0.000185684
0.000433001
0.0774789
0.000172206
0.000145496
0.0800764
0.000163767
0.000147771
0.000167772
0.000146961
0.000153163
0.000144627
0.000170622
0.000153814
0.000177718
0.0001722
0.000146746
0.0707055
0.000145496
0.000155723
0.000149524
0.000152639
0.000146109
0.000148042
0.000161115
0.000149866
0.000154199
0.000145868
0.000152462
0.000299026
0.0530503
0.000149859
0.000170893
0.0761631
0.000147241
0.000148973
0.000158378
0.00018946
0.000148109
0.000174948
0.00500833
0.000150997
0.0649364
0.0248941
0.000147861
0.000150023
0.000166688
0.000144285
0.0045594
0.055688
0.0402593
0.000151592
0.000159399
0.000144847
0.000307332
0.000156177
0.000190593
0.000149585
0.000179377
0.0134388
0.000181725
0.000152955
0.00368116
0.015524
0.0503257
0.000149694
0.00014667
0.0566192
0.000350281
0.000146642
0.000148578
0.000186524
0.000149918
0.000215473
0.000298004
0.000146175
0.000150014
0.00716249
0.000179712
0.000151071
0.000144326
0.000164731
0.000149332
0.000221423
0.000147293
0.000148964
0.000148203
0.000152691
0.000148354
0.000183444
0.00014703
0.000154449
0.051046
0.0321904
0.0294028
0.000147196
0.000168894
0.000181432
0.000148727
0.000153109
0.000168774
0.000147178
0.000152156
0.0186506
0.000164273
0.000147927
0.000148331
0.000147777
0.0143247
0.062792
0.000146862
0.000149735
0.000147745
0.000177453
0.0338503
0.000151858
0.000174037
0.000148881
0.000165422
0.000159244
0.000240798
0.00832871
0.000149319
0.000233442
0.0739932
0.000163211
0.000147719
0.000163446
0.00015908
0.00016219
0.000155313
0.000147914
0.000186546
0.000155393
0.000265424
0.000161665
0.00014921
0.000149565
0.0528245
0.000148944
0.000160517
0.000211357
0.000161063
0.0863936
0.0200922
0.000147628
0.000182542
0.000184376
0.000182862
0.000162304
0.000152113
0.00014834
0.0105389
0.000161473
0.000148052
0.000167694
0.000179317
0.000314069
0.048472
0.000148326
0.000155728
0.00014923
0.000212785
0.000218324
0.000149183
0.000172442
0.00015437
0.000151374
0.000149189
0.0162554
0.000177849
0.000147896
0.00015276
0.0293049
0.000149717
0.00014792
0.000156733
0.000165283
0.000148092
0.000148991
0.000152456
0.012569
0.000159777
0.000147659
0.000146872
0.000148642
0.000171566
0.000147852
0.000147482
0.000248751
0.0839318
0.000147633
0.00014974
0.00017655
0.000161633
0.000169142
0.00014905
0.0176466
0.000147161
0.000150596
0.000159632
0.0847733
0.0245351
0.000191099
0.000169478
0.0587364
0.0200993
0.0301234
0.0296244
0.000153191
0.000147916
0.000146115
0.000161322
0.000147428
0.000147838
0.000149009
0.00017642
0.000147703
0.0297637
0.000161812
0.0666859
0.000148503
0.058588
0.000148202
0.000156884
0.000145908
0.000150868
0.0001607
0.000257697
0.000149052
0.000146886
0.000153985
0.0628705
0.000147221
0.000168442
0.000149224
0.000162664
0.0128292
0.000178474
0.000476468
0.000158242
0.000212233
0.000148949
0.0452317
0.0117202
0.000147007
0.0700418
0.0237606
0.000147681
0.000144934
0.000167806
0.00016035
0.000166996
0.000145812
0.0339194
0.000158031
0.000172546
0.000145784
0.000147524
0.000157888
0.0175212
0.00321561
0.0121675
0.000168306
0.0211222
0.00016056
0.0297083
0.000148483
0.000346219
0.000147654
0.000155722
0.000502197
0.000151188
0.000204417
0.000147635
0.000153222
0.0531142
0.0102489
0.000147592
0.000190146
0.000147861
0.0727303
0.00014662
0.0706113
0.0241699
0.000147908
0.031067
0.000156596
0.0409813
0.000147925
0.000155142
0.000150677
0.000173084
0.000148008
0.000230655
0.000146524
0.0676901
0.000183903
0.0669873
0.000149027
0.000145932
0.000199892
0.000152298
0.000157495
0.000147518
0.000167111
0.000153313
0.000148099
0.0176187
0.00014857
0.000147443
0.00014955
0.000148838
0.0420665
0.000162699
0.000147508
0.0398302
0.000480265
0.000198311
0.000147418
0.000178792
0.000452968
0.000147745
0.000156316
0.000149817
0.000148202
0.0001475
0.00014821
0.000156477
0.000160042
0.0607841
0.000185868
0.000181253
0.000149835
0.000147543
0.0547506
0.000166779
0.000147367
0.000149837
0.027999
0.0733662
0.00014817
0.0649366
0.000160884
0.000198033
0.000149842
0.0574416
0.000146158
0.000152089
0.000148572
0.00014703
0.000151579
0.036278
0.000146166
0.060025
0.000199779
0.000348408
0.00616582
0.000148589
0.000148267
0.0562014
0.000166667
0.000167543
0.00014782
0.000187235
0.000149144
0.073854
0.0404494
0.040273
0.00014853
0.072565
0.0489619
0.0590624
0.000196
0.000153815
0.000179911
0.000147563
0.000249105
0.0683943
0.000160831
0.0428645
0.00014658
0.000148191
0.000167813
0.00441026
0.000161908
0.000198599
0.000147757
0.0630548
0.000168918
0.000163018
0.000146627
0.000163981
0.000182613
0.000148169
0.000168015
0.000167464
0.000217747
0.000146011
0.000147185
0.0502466
0.0460536
0.000152173
0.034387
0.00016073
0.00014783
0.0624786
0.0222703
0.000148568
0.000238521
0.000146001
0.000148642
0.00017219
0.0494485
0.00014942
0.0463593
0.000151806
0.00014778
0.0154218
0.000149382
0.000179911
0.000146839
0.000326861
0.000148073
0.0164933
0.000146919
0.000163275
0.000148342
0.000155359
0.000178124
0.0749162
0.000162175
0.0451767
0.000160445
0.0602592
0.0751988
0.0385427
0.000147012
0.0206022
0.0820713
0.0151809
0.000240994
0.000149759
0.000146903
0.000148488
0.00011421
0.00014788
0.000149006
0.000254634
0.000149569
0.0304669
0.000151003
0.042322
0.00014808
0.000149491
0.000190085
0.000145258
0.000175941
0.000147361
0.000167741
0.000181146
0.0207758
0.00014658
0.000147601
0.077716
0.0604595
0.000149595
0.000159455
0.000164345
0.000150104
0.00791531
0.0469937
0.0775515
0.000194424
0.0285862
0.0281861
0.000212104
0.00014712
0.000146443
0.000150647
0.000147432
0.00015844
0.0269866
0.0642081
0.000148497
0.000152482
0.000151327
0.00185381
0.0726311
0.000624989
0.000450633
0.000148679
0.000411121
0.0597636
0.000154687
0.0450925
0.000172989
0.000148905
0.0716219
0.0369793
0.00651935
0.000149322
0.000150931
0.000166927
0.000248229
0.00014714
0.000148577
0.00014958
0.000146675
0.000148189
0.0659776
0.000152239
0.000145787
0.0226597
0.000148611
0.041821
0.000167932
0.0423909
0.000247265
0.000147697
0.0833305
0.0001727
0.000221022
0.000150435
0.000159804
0.000147965
0.000150821
0.0175809
0.000196939
0.000174089
0.000150338
0.000147372
0.000172557
0.000151793
0.000148331
0.000155176
0.000147424
0.052777
0.000147838
0.051301
0.0284459
0.000151387
0.000147714
0.0308936
0.000146998
0.000147074
0.000226137
0.000153226
0.00015223
0.000177267
0.000287126
0.0779743
0.000159735
0.000151541
0.000149348
0.0515936
0.0201793
0.000160818
0.000166982
0.000147428
0.000147914
0.000152644
0.000146749
0.000186681
0.000161269
0.000148443
0.000149252
0.000148547
0.000147687
0.000148051
0.000147329
0.000326324
0.0338223
0.0642502
0.00020526
0.0116453
0.0001857
0.000153687
0.0254346
0.0310224
0.0185245
0.000148528
0.000147283
0.000459594
0.00652217
0.000204395
0.000199583
0.0661518
0.000148543
0.000147619
0.0484833
0.000146775
0.000194742
0.000193204
0.000150794
0.013561
0.0545697
0.000149715
0.0156139
0.0280431
0.000173634
0.000209484
0.000149146
0.0369126
0.000249018
0.0710173
0.000146814
0.000164554
0.0187224
0.000147262
0.000169372
0.000147724
0.000171689
0.000148796
0.0299551
0.00012776
0.000148396
0.000152519
0.000149636
0.0382574
0.000168921
0.000148976
0.00014918
0.0521372
0.000147623
0.00015251
0.000175898
0.000188503
0.000149909
0.000166845
0.000162033
0.000147503
0.000193291
0.000148064
0.000147716
0.000158778
0.000147646
0.000163625
0.063709
0.00021639
0.000147962
0.0594918
0.0156316
0.000185715
0.0143813
0.000169793
0.000153224
0.0438913
0.000158209
0.000152358
0.000166483
0.000169519
0.000148489
0.000146714
0.000148641
0.00020837
0.0363536
0.0780664
0.0613764
0.000146606
0.00015417
0.000175664
0.000176423
0.0473035
0.000148822
0.0556861
0.000149514
0.0203307
0.000145866
0.0405076
0.000150277
0.0639615
0.0270324
0.000184757
0.0550036
0.000164156
0.000146731
0.000166953
0.0114465
0.0651923
0.000156755
0.000149486
0.000147526
0.000148826
0.000159676
0.000149905
0.000151811
0.000146779
0.000176518
0.000148
0.0687447
0.000149445
0.0438652
0.000146011
0.000198621
0.0626402
0.000150848
0.00291071
0.000147986
0.000156609
0.000148928
0.000149271
0.00014782
0.000183518
0.000185105
0.000147022
0.000152489
0.00014794
0.0533099
0.000161701
0.000220457
0.000211053
0.000148047
0.00017344
0.000151467
0.000150705
0.000161634
0.000148624
0.000166975
0.0702602
0.000148086
0.0608301
0.000155527
0.0001475
0.000146207
0.027892
0.000147936
0.0766648
0.000176921
0.000149773
0.0156364
0.000189109
0.00948958
0.000157379
0.000153797
0.000148605
0.000174385
0.057824
0.000148839
0.000166164
0.00014858
0.00018585
0.000368161
0.0203614
0.0711725
0.0457471
0.000157514
0.0184157
0.000148899
0.0460041
0.000211396
0.000157163
0.000234687
0.000179483
0.00014516
0.000162759
0.000147976
0.000146841
0.000152757
0.000147875
0.000951353
0.000263505
0.000194931
0.00202884
0.000148393
0.00249382
0.000148312
0.000147672
0.000169081
0.0591885
0.00014694
0.038186
0.000168194
0.000187239
0.0214992
0.000149599
0.000168657
0.028673
0.00016213
0.00014815
0.00018776
0.000147926
0.00014877
0.000149574
0.000272874
0.0587155
0.000155018
0.000148592
0.0342295
0.0698609
0.000149283
0.000149534
0.00199318
0.0826282
0.00014923
0.000182929
0.000182757
0.000147294
0.000163232
0.000145988
0.0543819
0.000147733
0.0905328
0.0746152
0.0721133
0.000153802
0.00015774
0.000147655
0.000146567
0.0164793
0.000146938
0.0277893
0.0581332
0.000173914
0.000146796
0.000146199
0.000209405
0.000186869
0.000162519
0.0914111
0.000181695
0.00227027
0.000151977
0.0572709
0.000315972
0.000158575
0.00018513
0.0831915
0.0212063
0.000148578
0.00594036
0.000146257
0.00174922
0.000228065
0.00022456
0.000145503
0.000166632
0.000148631
0.000247724
0.0477118
0.000151478
0.000150684
0.0886908
0.0390352
0.000148297
0.0466416
0.0150033
0.00140679
0.000149389
0.0808035
0.000148946
0.0116366
0.000148678
0.000151424
0.000149316
0.000148193
0.0274528
0.000122721
0.000146363
0.040858
0.0194899
0.000144618
0.000146164
0.000161471
0.000165728
0.000185311
0.000167342
0.0299539
0.0474626
0.0537638
0.0807616
0.000185531
0.000150964
0.000196402
0.000181988
0.0188074
0.0309023
0.0318284
0.000187379
0.000175868
0.000153498
0.0184842
0.000169187
0.000187572
0.000149162
0.000154288
0.0612541
0.000148552
0.000157528
0.000195229
0.000152902
0.000169457
0.000148369
0.000151476
0.0681311
0.00018375
0.000146005
0.000154194
0.046184
0.000154049
0.000163845
0.000289024
0.0157617
0.000168085
0.000207531
0.0428726
0.00015002
0.0458761
0.000187072
0.016889
0.000148885
0.000144296
0.0185626
0.0280277
0.0325508
0.0795242
0.0444676
0.00016161
0.000183425
0.000152267
0.0363085
0.000148052
0.000148053
0.000171754
0.000179463
0.000177271
0.0314262
0.000150612
0.000479836
0.0404763
0.000150496
0.000186478
0.000159549
0.000176971
0.000185146
0.000168669
0.0359516
0.0409705
0.0361668
0.000297837
0.000162332
0.000147926
0.000151052
0.00015915
0.000421409
0.0319838
0.037225
0.0296754
0.000163316
0.00014681
0.000228219
0.000167737
0.0596499
0.000148562
0.0163075
0.000168855
0.0383888
0.000148524
0.0242679
0.00017475
0.000180306
0.000928195
0.000146848
0.020052
0.0301007
0.000146788
0.000180114
0.0504204
0.000150186
0.00024556
0.000153015
0.000151641
0.000149697
0.0566233
0.000169584
0.000249096
0.000160909
0.0713066
0.000146696
0.000144499
0.000147264
0.000148298
0.000147545
0.0878418
0.000184768
0.0414596
0.000149352
0.000146916
0.0763139
0.000160548
0.0418386
0.000186267
0.000148653
0.000231906
0.000157068
0.000168359
0.0409448
0.000158434
0.0207062
0.000209631
0.00015542
0.000145336
0.000181813
0.000144675