/*--------------------------------*- C++ -*----------------------------------*\
| =========                 |                                                 |
| \\      /  F ield         | OpenFOAM: The Open Source CFD Toolbox           |
|  \\    /   O peration     | Version:  v2012                                 |
|   \\  /    A nd           | Website:  www.openfoam.com                      |
|    \\/     M anipulation  |                                                 |
\*---------------------------------------------------------------------------*/
FoamFile
{
    version     2.0;
    format      ascii;
    class       volScalarField;
    location    "250";
    object      ddt0(omega);
}
// * * * * * * * * * * * * * * * * * * * * * * * * * * * * * * * * * * * * * //

dimensions      [0 0 -2 0 0 0 0];


internalField   nonuniform List<scalar> 
18355
(
-2.3698e-05
-0.128979
-4.00935e-06
2.55341e-06
3.79459e-06
0.00130259
1.10842e-06
0.000884067
-2.79196e-06
-0.0805357
-6.44074e-07
0.242718
0.00302588
-8.62443e-07
9.91332e-06
3.36985e-05
-0.132735
2.56049e-06
8.90496e-06
-0.285664
3.33304e-05
8.74686e-06
0.452384
4.13354e-06
-3.18295e-05
-1.49916e-07
1.03834e-07
4.33182e-07
0.0264951
-7.37387e-06
3.55659e-06
-1.83729e-06
2.51093e-06
2.48871e-06
-4.38122e-06
-1.65172e-05
1.89085e-06
-0.00257853
4.94218e-06
-5.79651e-07
-1.41814e-06
0.00249163
-3.96824e-06
-0.00585706
7.41823e-07
-0.00251273
-2.71679e-05
-6.21537e-07
0.000109293
2.30022e-06
5.30726e-07
5.85037e-06
5.02327e-09
0.346284
1.33256e-06
8.5274e-07
-0.00160564
9.10038e-06
0.0261057
-0.000714997
2.20357e-06
0.00103127
2.63192e-06
0.000163452
0.218874
-4.14835e-05
-0.775779
3.22874e-05
7.45927e-08
4.40491e-06
0.000300011
2.06352e-07
-0.00021112
7.01766e-07
0.000900479
1.0183e-06
0.074397
-3.87453e-06
-0.000181817
4.41578e-06
1.21257e-06
-0.108379
3.46875e-05
-0.000574937
1.68734e-08
0.00285413
-1.16912
-0.301862
0.000988468
0.57361
-0.0283592
9.14944e-07
7.47225e-07
-9.57345e-08
0.248946
0.413965
3.66235e-06
-7.06928e-05
0.262972
-0.101974
0.300468
-0.10548
-1.26206e-05
1.67287
7.97707e-06
0.00513853
0.182081
-0.00134044
-5.82319e-05
0.444459
-6.31854e-06
7.0736e-06
-3.68476e-07
6.96463e-06
0.0306031
1.35873e-06
0.00570521
0.127324
0.00123324
-9.18524e-05
-0.0581459
0.0943461
-2.16604e-06
0.000287473
3.66783e-06
-0.00959587
5.69889e-06
-1.32712e-07
0.350784
-5.83672e-08
7.02014e-07
0.0552357
0.000177971
-6.37099e-05
0.000799152
-1.37224e-08
7.15917e-06
-6.73621e-07
-4.30799e-06
-0.000818494
0.0972077
-0.157165
2.01916e-05
-6.8236e-06
0.13464
3.21363e-06
6.46956e-06
-0.869676
-1.71825e-05
-0.0729357
2.41248e-06
4.08234e-06
0.000197327
0.00601373
-0.000640313
1.00278e-07
1.09824
0.0149573
1.00187e-07
0.0012778
-1.60911e-06
-1.82155e-05
5.19195e-05
-7.77655e-05
0.00575407
0.257322
-0.262271
9.15362e-05
0.0427242
1.817e-06
0.0697337
0.360881
-3.658e-07
-4.63882e-07
2.95907e-05
-0.337997
-0.00277084
7.81896e-07
0.0490435
-0.014246
-6.85114e-05
0.0133667
-9.15604e-05
8.00077e-07
0.006915
-0.279533
0.620206
0.00807767
8.99116e-07
-0.153511
-0.00229865
-2.92903e-06
-7.31318e-05
-0.651867
-0.000449767
8.15394e-06
1.51863
-8.65261e-05
-0.000133332
-3.52584e-07
-8.23989e-06
1.9024e-05
-0.00204939
0.576206
0.548194
0.000570845
0.00285146
-0.155353
-0.150471
-0.000124414
8.99202e-06
1.45857e-06
-0.418177
2.27754e-05
1.67555e-06
-0.0476199
-0.0859167
-0.392831
-5.61247e-07
-1.58422e-05
-0.00752216
-4.85424e-06
-0.00111167
7.89288e-06
-0.219788
5.46096e-06
-0.080726
-0.378449
0.0542172
9.22972e-06
5.96847e-09
-0.000147976
-1.63934e-05
-0.127643
1.58469e-05
-1.33598e-07
7.06949e-07
-0.00282928
0.0648392
-0.170807
-5.57875e-05
-0.0108097
4.63439e-06
1.38921e-06
5.29754e-06
-0.565724
0.996882
-0.0807071
-0.00081051
-1.20753e-05
-8.39492e-06
0.0574055
-0.000106393
-0.225893
4.2333e-06
0.00438155
-0.209208
0.00124394
-2.35314e-06
2.37626e-06
-3.97641e-05
0.000345172
-0.00443881
0.000361333
3.21224e-07
1.40979e-06
8.41735e-08
0.0293645
-0.00638317
-0.0181066
2.10541e-05
3.59509
0.00505504
0.00426107
2.53333e-07
3.99014
5.13149e-06
7.03488e-07
-0.32127
1.9648e-06
9.81449e-07
0.00510091
-3.56146e-06
0.432427
-0.000101393
1.08863e-05
2.04452e-06
0.000204881
0.193106
-3.34854e-06
2.59006e-06
1.30125e-07
0.00149903
-0.00458228
-4.3743e-08
1.01682e-07
-0.0921351
-0.000119391
-0.00134844
0.18836
9.85641e-07
0.000366392
8.07029e-06
1.75516e-07
0.0747465
-0.00331277
-0.571639
0.00671485
-7.82647e-08
-0.00431616
9.09633e-06
8.64932e-06
3.62642
-6.04155e-06
0.0442084
0.00479762
9.74827e-07
1.86072e-06
-0.0549439
6.75281
-0.231555
1.47772e-05
1.36729e-05
0.124446
-2.6378e-08
-0.520597
-0.000133151
-0.000884625
-0.248184
5.86993e-09
0.28363
5.00665e-06
0.000170454
7.16138e-07
-0.00143171
0.11552
-1.41648e-08
0.162315
6.2461e-06
9.60659e-07
7.87098e-05
0.000939076
-2.09063
0.282344
0.752078
3.75715e-06
2.72178e-06
0.302122
-0.0112513
4.85345e-07
1.9967e-05
-0.601594
0.0058717
0.0214551
0.30073
1.13931e-06
-1.55215e-05
-0.055127
-6.3539e-06
2.09567e-05
-0.0230518
-0.000220884
-2.78266e-05
6.89465
2.52348e-08
0.000467349
0.0026353
-0.474936
2.62409e-06
-6.76595e-06
-1.82776e-06
4.27284e-06
0.00242323
4.18763e-06
-6.95323e-05
-1.51439e-06
1.92481e-06
9.63546e-07
-1.19401e-06
1.70344e-06
1.20457e-05
1.82011e-06
1.94235e-06
2.68352e-05
-0.00984587
-1.49
7.60241e-06
-0.552677
0.00148982
-1.56261
-0.000154601
0.00124524
8.32521e-06
-1.58087
-3.63402e-06
1.30373e-06
1.58009e-07
2.61219e-06
0.214747
-2.1888e-05
1.017e-06
0.000101792
-0.000141482
-5.56464e-06
-1.2206e-07
-0.176264
5.74005e-06
5.20121e-06
0.00515053
-2.75588e-06
-0.129164
-0.170839
0.0387257
-0.000160388
9.38478e-06
0.141818
1.92692e-07
-3.51517e-06
0.0405814
1.55686e-07
-4.0855e-07
-0.157111
9.41176e-07
0.0931402
-0.00104652
-0.00252879
-0.14019
5.18183e-06
-3.19936e-06
0.0549734
0.00114822
0.210798
0.708459
-6.90098e-07
8.77516e-07
1.25592e-06
-0.123472
-3.98256e-05
1.16267e-05
1.72583e-07
1.25027e-05
0.000583718
-0.0463382
-0.000262005
-3.97951e-08
1.41298e-08
-0.000132149
0.131782
0.0201625
0.00739627
0.148646
-0.00116195
-0.000164156
-0.0628314
1.56127e-06
-2.35305e-07
1.1684e-07
7.19639e-06
0.000146003
1.79008e-06
1.19041e-06
-0.112035
-0.00127383
0.00029983
0.608369
-0.0012116
-0.450741
5.66478e-06
1.60972e-06
-7.56686e-06
1.25797e-06
1.13455e-07
-1.28228e-07
1.23451e-06
-0.161036
1.41383e-05
4.27195e-07
-9.54383
0.000145658
-3.13038e-07
-1.5888e-06
0.00011373
-0.614213
3.07584e-05
3.20938e-06
-2.84467
2.23995e-05
1.58594
-0.000145553
4.51558e-06
-0.0708522
0.000248403
2.15477e-06
-0.31306
-0.0720062
-0.172255
4.60524e-06
3.16535e-06
-1.19086e-05
0.00787151
-2.75408e-07
2.85908
-0.191615
-0.384169
-0.963687
2.49019e-06
-0.000983703
-0.273783
0.404093
0.00814602
-2.23347e-06
4.46092e-05
-6.8523e-05
0.156961
-0.0990728
-0.0191999
5.43548e-06
-3.90782e-06
8.79712e-08
-0.00178216
1.46528e-06
-0.124353
0.000626693
0.074492
-6.11908e-06
1.89752e-05
1.71694e-06
9.60645e-06
0.000292343
-0.0349487
-2.08865e-06
0.00401218
-0.321719
-0.000302731
-1.73119e-06
1.92237e-05
-0.000383439
8.95524e-08
-1.60668e-05
-0.000195375
-0.000275893
-0.00133359
1.59158e-05
2.16049e-06
-1.41434e-07
-9.18227e-09
0.000506808
-2.54717e-05
0.00101905
5.60806e-06
3.9008e-06
1.87127
1.92277e-07
-0.00153615
5.24528e-07
-0.00169774
1.34474e-05
0.218156
-4.15151e-06
1.61112
2.58436e-05
7.59996e-06
-0.192378
1.81078
0.0249997
-0.000309382
-2.06489e-05
4.85952e-06
-3.14672e-06
0.00187078
-0.000238395
0.000454858
0.00778177
-0.14253
0.0060337
2.06435e-06
-0.334759
0.613395
-1.81692e-06
-3.47695e-06
-0.00103989
0.505986
-4.50266e-05
1.25751e-08
-0.0086047
-0.00127312
-2.57256e-05
-2.35002e-05
-0.0334385
-6.02625e-05
0.00431996
-0.217502
0.509171
-5.6683
-0.00136424
-0.00172415
-7.60081e-05
9.29303e-07
-2.38036e-06
-8.33089e-06
-0.0640521
-0.166472
-0.3207
0.0214698
0.13596
0.158126
-0.000434414
3.41584e-05
-0.216108
-0.354709
-6.18037e-07
-0.0451576
-0.835054
0.0444061
-0.000335982
2.24068e-06
-5.82934e-05
-8.34854e-05
-0.000362333
0.00271717
-5.86551e-06
0.651176
3.00035e-05
2.76119e-05
0.180885
2.24173e-06
-0.00101195
0.0450448
-2.53563e-06
-2.25249e-06
0.144055
1.22762e-06
0.00370597
3.73659e-08
0.31522
-0.000323882
-0.000586949
0.00205498
-2.13403e-05
0.00747709
6.00812e-05
0.498045
-0.000490913
2.1606e-06
0.391107
-0.000661797
0.180535
-0.0695378
0.932164
0.0653991
-6.75116e-06
2.57734e-06
-0.0102822
1.99672e-05
-7.34841e-06
2.5006e-07
-7.80943e-05
0.189958
0.0539236
0.000152641
1.97509
-0.00336059
2.36197e-05
2.3308e-06
1.58261e-07
9.18668e-05
-0.00235176
1.74204e-06
0.216671
-0.000906871
-0.000153188
1.39414e-06
-0.233086
-0.128625
-6.59004e-06
-4.16394e-07
0.000885562
8.94919e-08
2.2655e-06
-0.311472
-0.155662
2.91758e-06
-3.80534e-06
0.00311148
-5.47694e-05
-0.000199321
-0.0099103
1.23425e-05
-0.247266
-7.12687e-07
2.56356e-06
-0.0587944
0.340708
9.32011e-07
-0.0145876
2.58907e-06
-2.29361e-06
-4.77515e-08
0.000185635
-0.141375
2.53514e-06
-0.201503
-0.000296622
-0.388269
0.567247
-7.17829e-05
0.169376
-6.6666e-06
-0.460962
-2.99867e-06
-1.59728
-0.228165
1.13922e-05
-0.124246
-3.90621e-07
7.9795e-06
-0.32004
-0.00341149
0.0950669
4.05267e-08
0.268026
-4.54246e-06
-0.369895
1.21836e-06
-0.00022242
-0.000336067
1.00958e-06
2.34516e-06
-0.000482768
-0.641175
0.694644
9.77218e-07
0.00718294
-6.189e-05
6.46953e-07
3.25141e-07
0.000169565
0.000336702
-0.333963
-1.96828e-05
4.05993e-06
-1.83825e-05
-0.0240988
-0.000269458
-6.49158e-06
1.22296e-06
-2.39127e-05
-6.27594e-05
0.20656
1.89313e-06
0.0190915
-0.000395555
1.12971
-0.163226
-1.27699
1.89357e-06
-0.00232632
-2.99722e-06
1.48851e-05
-0.000119122
-0.332681
5.43059e-07
4.93483e-06
3.52502e-06
-0.400567
2.19595e-05
2.93773e-06
-0.000181446
-4.63591e-05
0.638785
0.222584
-2.80834e-07
-1.5174e-06
0.616979
2.9921e-06
-0.170503
-0.163732
-0.155273
-0.0478283
0.024886
-0.365312
-0.000360599
-6.64141e-07
1.10706e-06
6.36885e-06
-9.0632e-08
7.4958e-07
1.80868e-06
-0.243484
2.22714
7.86647e-07
-0.000432491
9.89537e-07
2.12942e-05
-0.000170347
1.24723e-06
3.07907e-05
-5.49166e-06
0.154265
-0.0425553
0.000408858
0.0346309
0.000201478
2.16112
0.00274165
-0.496684
-0.123323
4.28954e-05
-0.128823
0.000835189
-0.0489547
7.55866e-07
-1.03574e-06
1.27841e-06
-8.54788e-05
-0.404353
1.69444e-06
-5.39142e-08
0.00203579
9.17323e-07
0.00018036
-0.000621805
2.72137e-07
-0.986774
1.78055e-06
-1.62523e-06
0.00411506
2.61414e-06
0.00226072
0.447294
1.00367e-05
4.52791e-06
3.84494e-07
-0.0015399
4.41734e-07
-9.68145e-06
0.4237
1.57511e-07
0.273088
5.70629e-07
0.348234
-3.71393e-05
0.000336383
-6.03195e-07
-0.00241455
3.26314e-05
-5.88555e-07
1.13626e-05
0.262153
-4.79954e-06
-0.0575334
0.0259855
1.93712e-05
7.0779e-07
1.42235e-06
1.13004e-06
-0.534999
-3.18155e-06
0.329709
-0.000216036
1.72449e-05
-0.0901066
2.51365e-06
-4.78346e-06
-0.244326
-0.0602395
-3.24369e-05
1.75133e-06
-7.37749e-06
1.40717e-06
4.02538e-06
-3.34744e-05
0.128462
-1.46463e-05
2.25457
0.00526897
-0.0991762
0.000204694
2.07461e-06
0.417071
0.0458407
1.85878e-05
-2.94469e-07
-4.87055e-06
-0.119078
1.60944e-06
0.0514254
0.000982671
1.49283e-07
0.000202024
9.08831e-07
-2.50271e-05
-3.7927e-05
1.04853e-06
3.78394e-07
5.63541e-06
0.143157
1.77016e-07
-0.00292716
-0.0971135
-5.95126e-06
-3.10679e-06
-0.00101368
0.301709
-0.000116219
0.178429
-1.06156e-06
8.9614e-07
6.36842e-06
-0.338706
0.451185
-0.0151368
3.09533e-06
-7.36563e-06
6.3537e-06
0.188436
2.23619e-06
-1.02455
-0.000184907
-1.07743
2.78697e-07
1.53867e-06
0.0378566
-6.7013e-06
0.274634
1.75276e-06
0.134164
1.38872e-07
1.30403e-06
4.54648e-05
-0.0143826
-0.0436266
-1.89939e-05
-3.7164e-06
3.17338e-06
2.17892e-06
1.60763e-06
-5.71543e-08
0.00613032
2.04988e-05
-0.291819
2.01439e-05
-0.0967759
8.05185e-07
1.51221e-06
2.77819
-0.0725472
-0.0546032
1.9548e-05
-1.0976
1.14125e-06
3.63332
7.91005e-06
0.0176654
4.56568e-06
-0.212534
-3.94087e-06
-3.6396e-05
9.75907e-07
-3.78276e-06
5.92938e-08
0.152037
-3.83188
-0.489609
0.000203254
-9.18975e-05
-1.60578e-05
1.32296e-06
2.48936e-06
1.12406e-06
3.04744e-05
0.00170146
1.29781e-06
2.5548
0.00195421
1.688e-06
3.21627e-06
5.10845
0.0021319
1.77072e-05
-1.85528e-05
-0.000729347
-0.0399647
-0.000382795
-0.415818
-0.00259728
-0.000447721
-0.0291103
2.91442e-07
6.8209e-08
0.00228794
-0.000277823
8.36953e-07
-1.84835
0.000785083
-0.0604889
1.93515e-05
-0.0509951
0.00017729
0.000447646
-3.1137e-05
9.94576e-07
-1.49473
1.17383e-06
2.5712
-1.48268e-06
1.18869e-06
-0.125648
-0.000130841
-0.000125767
-0.243111
4.48162e-06
-0.0301971
-0.0566755
-4.21472e-06
-0.00095939
-0.126941
2.43115e-05
7.36109e-07
1.22232e-06
-2.78295e-05
-2.33515e-05
-0.000529363
-0.282851
1.28306e-06
0.000101456
-1.17206
1.63503e-06
-0.124482
-3.24454e-05
-9.83721e-06
-0.155821
-0.0163608
1.39629e-06
-3.1323e-06
-2.119e-05
2.98777e-06
2.45204e-06
-0.0570466
3.99567e-08
-0.000129902
2.01789e-06
0.0182419
1.98699e-06
0.124794
-0.312627
2.36507e-06
0.0166717
1.0478e-06
-1.9438e-05
3.62509e-06
-0.004655
0.000498742
1.22995e-06
1.56904e-06
7.36489e-06
-2.73274e-06
0.00507608
-0.20216
0.199439
-0.107765
-8.49797e-08
9.87062e-07
-0.00237101
-1.98405e-06
2.40178e-06
0.124204
0.145718
1.85351e-05
1.38441e-06
0.34536
2.71254e-07
-1.72682e-07
-0.414936
0.0012264
-0.0777848
3.14371e-06
2.38238e-06
0.0464905
-4.04522e-06
-7.92661e-05
2.16147e-07
-0.000247663
5.40641e-07
0.00128458
0.00276159
-0.000714641
9.54751e-07
-0.085557
5.08243e-06
1.24154e-06
-3.92495e-06
-1.15137e-06
-6.58923e-06
1.5203e-06
0.0385357
1.9376e-05
2.2012
-8.00171e-07
-0.000120661
-0.133086
8.74053e-07
-0.0158859
2.86957e-05
8.35288e-07
1.09959e-05
0.000400356
2.28431e-06
5.45001e-06
2.94208e-07
-5.65469e-06
-0.000420945
2.49288e-06
9.86761e-06
2.12012e-05
1.12695e-06
-0.00141845
-0.14588
-0.452482
-0.537132
0.0184622
0.00437152
0.000426824
-0.262673
-0.453448
1.64099e-06
-2.83337e-07
2.57886e-06
0.0434482
0.0051742
-0.000347047
-9.15092e-06
1.71034e-06
3.80389e-06
3.32824e-07
-1.55086e-05
-0.343187
-0.00442866
-0.211762
0.00160208
7.90837e-07
3.30293e-07
-5.96736e-08
0.222586
0.113311
1.27316e-06
0.00185769
2.50218e-06
-1.48724e-05
1.77798e-07
-1.91869e-06
-2.39656e-05
-0.0292222
2.55492e-05
0.0968219
1.7729e-06
1.54832e-06
-0.000813056
-1.63416e-06
9.27941e-07
-0.000561376
0.00829042
2.27232e-07
0.00746224
-1.22928e-06
-9.78543e-07
3.93256e-07
-4.48012e-06
-0.359665
-0.000190167
2.50203e-05
-3.09699e-06
-0.0142709
-0.208192
1.24597e-06
-0.000133578
-6.26377e-05
-0.0498554
-0.114295
-0.265949
0.00963694
-0.00291024
0.00605881
-0.0051798
-0.00219034
0.0709197
1.74567e-06
-2.47101e-06
-6.31216e-06
-0.287862
3.72504e-06
0.343594
2.16714e-06
1.22977e-05
-0.150849
0.000392183
5.15742e-06
-0.00161924
8.61429e-07
6.20793e-06
0.00370939
-0.0204726
-1.3032e-06
-0.318996
0.000987798
0.673084
0.192245
9.82492e-08
0.248689
-5.15257e-07
0.00125025
5.07461e-07
3.80173e-07
-0.191137
0.000117259
9.3695e-06
-4.57481e-07
0.0171214
7.19158e-08
-0.171987
-0.0184593
6.23634e-08
2.30205e-06
3.00463e-05
0.0189016
-0.0130622
-0.000518275
-0.000246279
0.0221831
5.30072e-07
-4.23945e-06
8.15362e-07
1.58796e-06
7.20924e-06
-0.00216155
-0.280929
0.00154499
0.00420242
0.0208034
1.45045e-06
-1.26414
0.000891496
0.000554568
2.13593e-07
-3.61265e-08
-2.42945e-06
1.58982e-06
1.45626e-06
0.214089
-0.00192307
0.358614
0.00151945
0.00338773
1.26739e-05
0.00318301
-0.261842
8.55656e-06
-5.08209e-05
1.67423e-06
-0.232127
-0.524951
-0.000778298
0.00387709
6.56951e-07
0.997681
-4.36607e-06
-6.19132e-06
-0.000303872
-0.0013852
1.7836e-06
0.000218343
-0.0963875
1.56135e-07
0.4353
-0.0581967
-0.0540124
0.148728
-3.72931e-05
0.318806
0.000117046
0.00373712
-0.0631562
5.39631e-06
0.000515403
2.16124e-07
2.49191e-07
-0.181681
8.88432e-06
0.247276
2.3781e-06
1.4138e-06
0.0191705
-3.66981e-06
-0.20787
-2.32862e-06
0.543005
-1.40769e-05
-3.79875e-07
0.468897
-3.90591e-05
-0.000116312
6.0405e-07
2.09241e-06
0.0104236
0.0312793
1.95694e-06
-2.83206e-05
-0.00768163
-0.00234965
-0.0424072
-1.64114e-08
-1.10795e-06
3.33862e-07
-5.99169e-06
-9.45868e-05
-5.39043e-05
2.67018e-06
-0.272151
-3.66073e-06
2.35152e-06
9.81083e-05
0.132656
0.0216889
-0.000159307
1.03302e-06
7.26502e-06
0.00222391
-0.00995775
0.00294869
-0.113799
-0.000110296
-3.8796e-05
0.0438183
1.34704e-06
-0.000123998
-0.0346689
1.49809e-06
0.00892917
1.1235
-0.0450813
-0.221774
-0.249812
0.00124664
-4.04068e-06
-1.68929
3.106e-05
-0.000711428
-0.00233837
6.49231e-06
0.00350145
2.58554e-06
-6.07477e-06
0.000365693
-0.14607
0.000844334
1.11288e-06
1.32827e-05
0.351412
0.00154943
0.0226093
-6.32379e-06
-1.04415
1.94069e-06
-0.00157457
0.00194851
-8.46592e-07
0.00626715
1.42832e-06
5.69953e-07
-5.78973e-06
1.00406e-05
0.112959
0.0005313
1.24157e-08
0.168275
1.19717e-06
-0.0793713
2.48214e-06
0.185298
0.000313754
-0.0005269
2.6285e-05
2.51756e-06
2.46527e-06
-5.97044e-07
0.0671035
0.00022492
6.62029e-07
-0.000260892
-0.0670081
-0.201345
-0.000852681
-0.498777
-0.0618888
1.14539e-06
0.347775
6.9277e-07
0.0228201
1.38082e-06
-4.03195e-06
1.27754e-06
0.000999062
1.57204
0.0119458
0.00142049
-0.0987283
0.331811
0.00486113
-0.0700852
-8.01781e-07
-0.000278123
-0.115882
6.09668e-07
0.000331504
0.201848
0.00903681
-4.66822e-06
-0.345715
0.000937622
0.237788
0.724389
-4.3759e-05
-0.0138822
-4.52066e-05
7.00631e-06
1.94253e-06
-0.0333888
-0.00120219
-0.0211398
-0.000600938
6.86167e-07
8.95886
0.00169435
6.19301e-07
6.48254e-06
0.00120273
-2.39743e-05
-2.20822e-07
4.94768e-08
-0.0305629
-1.92037e-07
-3.84354e-05
0.28421
2.32549e-06
-2.64385e-07
-7.74318
1.49378e-06
-7.85037e-05
-0.000142415
-0.0021914
0.0136506
-4.37409e-06
-0.00259271
-0.000140662
0.00318005
-4.40061e-05
-2.48139e-05
-0.0209967
-0.0498729
0.000340176
0.277104
-0.00147992
8.0975e-06
0.0088297
-0.184843
0.000688052
8.95285e-07
2.28778e-06
0.0533033
1.16043e-05
-0.0258906
-0.153812
-5.88658e-05
-0.158842
-1.74371e-05
0.000700956
-0.262667
4.062e-06
4.64225e-07
1.58315e-06
1.40464e-06
-4.37913
0.193896
-5.07494e-05
0.000402908
-0.149528
-0.000221755
1.94481e-07
-2.44861e-05
3.49108e-05
2.1039e-06
-7.08418e-07
-0.00722646
-1.8872e-06
-0.145259
-1.03522e-07
1.3354e-06
1.18762e-07
0.00192256
4.33794e-06
0.000191171
9.00607e-06
-1.14831e-05
0.109698
-0.728574
0.00723821
0.620262
3.79154e-06
-4.5506e-06
0.2113
0.00259269
-0.0608654
0.00512172
-3.63438e-06
0.000455172
0.000212347
-1.99865e-06
8.35922e-07
0.00153057
-0.000256182
0.211597
0.00231349
0.126358
1.23651e-05
1.9037e-05
1.49236e-06
0.00333128
0.134994
0.016852
-0.14205
4.32723e-07
-0.00953257
-3.29029e-06
1.19923e-06
-9.50452e-08
1.94211e-06
0.569156
-4.19902e-06
0.000575814
2.43046e-06
0.016786
8.3637e-07
3.25523
-3.09411e-06
7.71755e-07
-3.41845e-05
2.38064e-06
0.00341295
0.00812719
0.361181
0.000494806
2.58899e-06
0.337608
0.000605083
-7.13608e-06
-0.000532684
3.00882e-06
-2.27935e-05
4.17569e-07
0.301278
-2.30969e-05
0.00145073
0.000516006
3.75685e-06
-0.227049
2.59459e-06
-5.65861e-05
-1.27071e-08
-2.10568e-05
1.30523e-06
9.40704e-06
-9.11337e-05
-8.71384e-08
-2.14488e-05
2.46849e-06
-1.33008e-05
-0.0435828
-0.169757
2.69967e-06
-0.000839508
-0.410838
1.57496e-06
-4.76717e-08
-0.000459264
0.00343
1.03174e-05
0.000752546
1.60867
2.46344e-05
0.546272
1.85881
-7.32397e-06
8.3627e-06
-0.000655915
9.92507e-08
0.620292
-0.416648
-0.0180282
-1.16336e-05
-0.00013839
-5.8866e-07
-0.0246822
0.00026849
0.16181
1.7408e-07
-0.00262481
-0.130798
-0.00172247
-1.78556e-05
4.27978
-0.111054
0.228546
1.57604e-07
3.61048e-06
-0.247596
0.0137131
2.27217e-07
-2.20458e-08
0.722221
7.84119e-06
0.00115878
-0.00186219
1.70307e-06
8.24318e-06
0.585967
0.000209038
-1.71663e-06
6.04021e-07
0.000865328
-1.09316e-06
0.00213091
-3.72901e-06
-4.00503e-07
3.68871e-06
8.25828e-06
1.98771e-06
0.00203249
2.98818e-06
2.54432e-05
-0.272928
-0.0427952
0.205464
3.91911e-06
0.000731011
-0.00208367
-5.13983e-06
2.93892e-05
-0.000406692
1.56113e-06
3.141e-05
-0.361971
0.000430207
-7.67547e-06
-7.39905e-06
8.79679e-07
-0.0686236
0.44401
2.97604e-06
-1.53919e-06
1.28342e-06
-0.00207748
0.171838
1.16247e-05
0.000122386
-1.8459e-07
-0.00123417
-0.000167915
-0.0243385
-0.221356
1.51765e-05
-0.00427479
0.145279
-0.000239353
3.74351e-06
-0.000418756
-5.6926e-05
-0.000351879
-7.53047e-06
9.74768e-07
-0.000764414
-7.85935e-06
0.00437827
0.00359703
1.41315e-05
-2.50549e-06
-0.459239
2.15952e-06
8.27861e-06
0.00430725
-0.000441756
0.0809656
0.352138
1.46528e-06
-0.379592
-2.04698
0.0444302
-0.000488843
2.51333e-05
1.78446e-06
0.46368
-6.17208e-05
9.85004e-07
-5.28034e-05
0.00130168
0.0131567
-0.136567
1.68458e-06
1.22351e-05
-1.29099e-06
-0.0116569
0.0100346
5.18065e-07
0.000324703
3.12576e-05
2.07252e-05
4.9636e-07
-0.0164439
0.00145917
-7.4629e-06
-2.11163e-05
-0.0595348
1.54422e-07
1.36679e-06
-5.44731e-05
-0.0141461
-8.16309e-06
3.23994e-07
-1.88343e-05
4.95117
-3.68385e-05
2.74355e-06
-6.26559e-07
1.68541e-06
0.0408618
1.71058e-06
-5.1265e-07
0.0899581
0.127953
5.21005e-06
1.36073e-07
-0.00121069
-0.000274881
-0.00485692
-5.48487e-07
-0.136161
1.63917e-06
2.95615e-05
-6.09565e-05
-0.175439
0.465591
-0.0568423
-0.000247031
-0.212196
-0.137423
2.58807
-0.215329
-4.61009e-06
-6.9073e-06
3.08547e-06
0.000186793
-4.51773e-06
-6.77968e-06
1.2375e-06
0.00129086
2.83567e-06
-0.00123128
-3.83314e-05
0.591083
1.489e-06
0.33285
-7.12274e-06
-4.61068e-05
2.47384e-06
1.70171e-05
-7.05209e-05
-0.00119557
1.35318e-05
-8.24173e-07
-2.25623e-05
0.449936
-1.02375e-07
-0.000293185
-3.48767e-07
-0.000612283
0.681081
0.119625
0.0152201
-0.000373846
0.0113512
5.92635e-07
0.0550637
-0.172917
1.31168e-06
0.461959
-0.202646
-3.30544e-06
-5.33626e-07
-0.000262632
-3.30457e-05
-0.000171375
2.13451e-06
0.224486
-4.34441e-05
0.000391765
1.13787e-06
1.46828e-06
-0.000115124
-0.0324221
0.25861
-0.0795739
0.00027815
-0.0455065
-0.000514127
0.244442
9.11742e-07
0.0236525
1.29154e-06
-1.80587e-05
-10.1393
1.68995e-05
0.0515502
2.33868e-06
6.19774e-06
-0.193554
-1.02685
1.42077e-06
-0.178058
1.36732e-06
0.493952
5.32642e-07
0.638974
-0.0424884
1.10785e-06
-0.22012
-3.63181e-05
0.133772
-1.42367e-06
-1.34796e-05
2.5167e-05
0.00064376
1.39796e-06
0.00823826
4.83367e-07
-0.361985
0.0030929
0.627672
-2.68883e-06
2.67921e-06
-1.26157
-1.0639e-05
-0.000499143
-2.94392e-06
-0.00354806
-4.45069e-06
-7.93102e-06
-0.246184
6.281e-07
-8.44044e-07
-1.98862e-06
9.58962e-06
-0.301949
0.000342698
1.46696e-06
0.127364
-0.353834
-0.265812
2.03456e-08
0.000460101
0.0215488
2.51561e-06
-4.86327e-05
-3.77108e-06
2.33581e-06
1.14485e-06
-6.39386e-06
-3.51674e-05
-0.000177755
-0.198838
-0.0159665
0.0127317
6.84874e-08
-6.01315e-08
-0.430724
-0.000719984
-1.69758e-06
-2.29682e-06
1.8704
0.0427562
-7.30882e-06
0.576193
-0.000623439
0.0510003
1.79677e-08
-0.197226
1.17996e-06
3.63394e-06
6.38129e-07
1.46172e-06
2.24389e-05
0.126355
1.89689e-06
0.316428
0.0129849
-0.229232
-3.13714
6.97195e-07
-6.19761e-06
-0.0899999
2.02364e-05
-0.0423056
-3.50284e-07
-0.00140184
1.63803e-05
-0.173813
0.10838
-0.754837
-9.11787e-07
-0.322395
-0.0795538
0.248134
0.0768583
0.00058285
-0.00138221
3.64581e-06
-0.0060872
0.552722
-0.00022243
-0.222625
8.83875e-07
7.37928e-07
-0.000444788
1.21778
-2.81658e-05
-0.914277
1.3151e-06
-0.0972573
-0.000359474
-4.14766e-05
1.38274e-06
-0.000158286
-0.461705
5.91883e-07
-0.000254413
0.000142203
0.00444273
-8.73285e-07
-1.48662e-07
0.149527
0.215576
2.41188e-05
-0.0529244
-0.000425322
1.53771e-06
-0.315233
-0.157702
8.26801e-07
0.071725
2.37629e-06
-1.39559e-06
-0.000183449
0.181038
1.99029e-05
0.0788787
9.32901e-06
-7.25674e-06
-0.0536885
-8.88133e-07
-7.50132e-05
7.18085e-07
-0.00894986
1.8579e-06
-0.0543086
4.26856e-06
-0.00403026
9.59539e-07
3.25776e-05
0.148464
-0.0123915
0.00118294
0.251947
-0.000200863
0.300663
-0.193237
-0.351393
-1.03407e-06
-0.101075
-0.324934
-0.194212
0.0799634
9.74728e-06
-9.88652e-07
9.92323e-07
-0.727216
-7.39068e-06
7.02324e-07
-0.436063
2.23569e-07
0.165712
1.01883e-05
-0.0488997
-1.99417e-07
2.24355e-07
0.00423223
9.92304e-07
-0.000577716
-2.71499e-07
-0.00038509
0.00131356
-0.316558
4.12325e-07
-4.61545e-06
4.70212e-05
-0.148993
-1.80656e-08
-4.67126e-05
2.6686e-06
9.97656e-06
-0.112292
0.220951
-0.244237
0.00587276
-0.0324333
-0.158878
0.00477863
1.53613e-06
6.09584e-07
2.43081e-05
7.55599e-07
-0.0015327
0.13415
-0.36291
8.6148e-07
-1.35626e-05
-3.31066e-06
-0.0129219
-0.112312
-0.47766
0.0049321
-2.07711e-06
-0.00959377
-0.197898
2.50828e-05
-0.000883291
-9.44515e-05
-1.25896e-07
0.569319
-0.943572
-1.40342
-2.68078e-07
1.05161e-05
-0.000376484
-0.231464
3.30911e-06
1.20047e-06
2.71478e-07
1.42862e-06
2.63345e-07
-0.370171
2.97749e-05
2.24924e-06
0.156733
6.12929e-07
0.249358
0.000237815
0.248325
-0.0291519
1.29259e-06
-0.27978
-0.0432186
0.0133275
2.62448e-05
-0.000157221
1.82757e-06
5.61575e-06
-0.0762497
0.00328695
9.8581e-06
-2.94944e-06
7.30896e-07
0.0730784
-1.49455e-05
1.27745e-06
-3.4974e-05
-9.48894e-07
0.230158
1.18044e-06
0.133289
0.469414
1.56666e-05
1.29216e-06
0.356078
-9.42722e-07
4.68214e-09
-0.0123543
7.93858e-06
-9.41882e-06
0.000110575
0.00976621
-0.340104
0.000357286
1.08404e-05
1.78648e-05
0.184479
-0.285837
6.25012e-06
-0.000702489
-3.20795e-06
8.24482e-07
-1.41953e-05
2.78718e-06
0.0374904
-0.000245653
-2.69984e-06
-4.59024e-07
1.02533e-06
-2.65505e-06
1.13533e-06
-3.50288e-06
0.00496775
-1.02516
-0.0827794
-0.00150493
-0.686008
0.108073
-1.11392e-05
-0.0178598
1.40573
-0.354664
2.63117e-08
-1.80443e-07
0.0127523
4.99313
-0.00287555
-0.000495486
-0.0895879
7.30103e-07
-5.84555e-06
-0.147295
5.7781e-07
0.00281786
0.00436597
-1.69525e-06
-0.139257
-0.449994
1.69623e-07
0.138439
-0.0921224
0.00570635
-0.0466909
4.1325e-06
-0.0823021
-0.00870134
0.640909
7.63509e-07
-0.00466524
-0.757391
2.1058e-06
-0.000500257
3.12916e-07
0.00067341
8.45835e-06
0.128876
-3.06354
-7.36317e-06
-1.21421e-05
4.29126e-06
0.0443881
0.000181262
1.93215e-06
-1.45657e-06
-0.0326116
-6.58407e-06
-1.27774e-05
-0.00259758
0.01858
2.01186e-05
0.00775107
-0.00149608
-4.09952e-07
0.00289825
9.7869e-06
-2.20889e-06
-0.000139072
1.16825e-07
-0.000409222
0.36715
-0.0123945
1.93476e-07
-0.123159
-0.240204
-0.0493018
-0.108664
-0.000612514
-1.78714e-05
0.200324
-0.000123792
-1.19615e-05
0.000143853
-0.00619164
1.28829e-06
2.83478e-06
5.42169e-07
0.00982454
-0.151472
-0.416467
0.381036
8.87724e-07
6.20443e-05
9.33621e-05
0.0172298
0.166846
5.87636e-07
-0.230551
1.78209e-05
0.0197952
-8.82369e-07
0.0778096
7.04296e-07
-0.125368
-0.133374
0.00333214
0.221714
0.00141984
2.78929e-07
-0.000214659
-0.0734275
-0.210489
-5.5463e-05
-1.07173e-06
1.35356e-06
6.26804e-07
-5.10425e-05
-8.09691e-08
3.31964e-05
-9.76259e-08
0.00085404
4.8368e-07
0.52728
3.47065e-07
0.0247837
2.90247e-06
0.00102718
-0.275964
2.36945e-05
-1.9958
1.79578e-06
-3.55245e-05
3.78696e-06
-2.39186e-07
-4.6694e-06
0.113574
-0.00577416
4.06139e-06
8.71107e-06
-1.78113e-06
-0.20962
-0.000108864
-0.00970202
0.0100771
7.32087e-07
0.000128449
1.64667e-06
2.68948e-05
5.27175e-05
3.28161e-07
-0.00109162
-0.393947
2.12063e-06
0.383793
6.70821e-06
-3.80769e-06
2.66262e-06
0.551605
5.0183e-08
-0.0249722
0.0118868
-1.0469e-08
-0.406395
0.00314849
0.451373
-0.000100336
2.45219e-05
9.0941e-07
0.000656178
-0.332433
-5.78592e-09
-0.000153168
-4.76846e-06
-0.00201838
0.00805508
-0.203842
-0.44677
-0.202524
0.00055725
-0.305651
4.18035e-06
0.0650655
-0.150454
-6.23469e-05
-0.0108163
0.000426341
9.31149e-07
-0.000226884
4.03768e-07
3.90555e-06
2.80716e-05
-7.33102e-06
-3.93415
0.14326
0.00431358
-8.61935
8.854e-07
11.8554
2.13229e-06
4.64219e-07
0.000259536
0.196399
2.89372e-06
0.139458
0.00372009
0.000324906
0.0109091
-1.02058e-06
0.000470686
-0.0992914
0.000531623
6.80746e-06
0.314786
-4.02791e-06
4.40731e-07
2.0695e-07
-0.195607
-0.203746
-3.78818e-05
4.96305e-07
-0.263034
-0.289348
-1.22384e-06
3.8851e-08
-5.50384
0.277716
1.88954e-05
-0.0699702
-0.000635348
-4.20358e-06
-0.000387611
2.64379e-06
-0.0191343
1.29963e-06
-0.45198
-0.497445
-0.371064
-1.54328e-05
-0.000228478
1.66713e-06
4.13347e-07
-0.093493
-1.19726e-06
0.313102
0.153943
-9.64537e-05
6.15854e-07
3.09502e-06
-0.419968
-0.0332703
-6.87081e-06
-0.299521
0.00157723
4.51976
-9.05623e-06
-0.06736
-0.0979274
-0.000136909
0.401634
-0.433385
0.258226
-6.86045e-07
-0.0835184
2.2256e-06
-1.86188
0.0462065
0.101169
2.58409e-06
-0.000204606
7.73965e-07
0.0440812
-0.605973
2.42059e-06
2.55983e-05
-0.376856
-0.155785
8.23612e-06
0.149753
-0.098905
-3.18834
-1.08091e-07
-0.332145
-2.91479e-07
1.01011
5.47643e-07
-9.03984e-07
4.17292e-07
-7.50096e-06
-0.0780732
-0.549705
3.29744e-06
-0.44927
-0.0615489
1.25405e-06
3.10675e-06
0.00149785
0.00637082
-0.000865479
0.000205049
-0.365714
0.0374889
-0.00279119
-0.515336
-0.000504715
1.61834e-05
0.00717297
-0.0006143
-0.0497365
-0.119599
-0.199159
0.00229419
-0.00125364
-1.56673e-05
-0.0628304
-0.00341714
-0.632525
-2.81006e-07
1.72373e-05
-0.177196
1.0816e-06
4.3628e-05
0.25605
-1.32641e-05
0.000265328
-3.60763e-06
-1.22884e-05
0.646001
-0.114175
1.30492e-06
9.13016e-06
-0.285193
-0.0940437
-0.000433503
0.00193802
-0.0426373
0.000510727
0.0201055
0.00396465
3.09364e-06
0.196035
0.000904667
-0.104796
-3.18431e-07
1.63434e-07
-1.16616
-0.0416297
0.0530888
-0.587583
-0.24985
-0.00185676
0.00287387
2.90805e-05
0.00612832
1.6129e-06
1.36135e-06
-0.000203009
0.001751
-0.000493871
0.157721
1.93895e-05
-0.0402767
0.0797235
5.99458e-06
0.00396752
9.3957e-06
0.0954373
-0.000201721
0.000177871
-0.0319976
0.104635
-0.638004
-0.0406317
-2.12439e-05
-4.80783e-06
-2.62423e-06
-0.000143859
-2.9487
0.268816
0.139842
0.396573
-0.000475187
1.71675e-06
0.0371015
0.000177373
0.118069
9.17322e-07
-0.0101512
1.47612e-05
0.277859
7.73418e-07
-0.219646
-0.00102826
-0.000828563
5.12471
2.88187e-06
0.00641774
-0.298536
6.69787e-08
0.00125033
0.212293
-2.19662e-06
0.222164
-3.04591e-07
-1.19686e-05
3.57287e-08
0.0298546
2.26715e-05
0.187175
-0.000221545
-0.442036
3.80548e-06
8.16082e-07
-3.8141e-06
8.41522e-07
1.18926e-06
-0.281627
0.223371
0.0929317
-1.86465e-07
4.25247e-06
-0.545633
-0.000198501
-0.0902535
0.00150471
4.71475e-06
0.0283161
2.24504e-05
-0.000501144
0.274652
-0.000128499
-0.386999
-0.250667
1.68197e-05
2.47618e-06
-0.387401
7.69642e-07
-0.603806
0.291905
0.00416143
2.5289e-06
0.247587
0.190947
6.26133e-07
-0.0975608
-2.27844e-07
0.244958
-0.275003
2.19382e-05
1.42593e-05
-0.00096382