/*--------------------------------*- C++ -*----------------------------------*\
| =========                 |                                                 |
| \\      /  F ield         | OpenFOAM: The Open Source CFD Toolbox           |
|  \\    /   O peration     | Version:  v2012                                 |
|   \\  /    A nd           | Website:  www.openfoam.com                      |
|    \\/     M anipulation  |                                                 |
\*---------------------------------------------------------------------------*/
FoamFile
{
    version     2.0;
    format      ascii;
    class       volVectorField;
    location    "800";
    object      U_0;
}
// * * * * * * * * * * * * * * * * * * * * * * * * * * * * * * * * * * * * * //

dimensions      [0 1 -1 0 0 0 0];


internalField   nonuniform List<vector> 
18758
(
(1.01424 0.00558311 -4.74177e-22)
(0.987639 0.0881562 0)
(1.00349 -2.36844e-05 -4.94464e-22)
(1.01542 0.00578266 0)
(1.00897 -0.0145425 -1.89667e-21)
(1.00711 0.000190904 -5.70347e-24)
(1.01613 -0.00544493 2.68088e-21)
(1.02823 -0.0199461 3.58321e-21)
(1.0099 -0.0135526 1.83762e-21)
(1.01188 -0.0129133 8.85149e-22)
(1.02467 0.068238 1.91384e-22)
(1.02155 0.0796363 1.07617e-20)
(1.04094 -0.0677723 -1.10703e-21)
(1.0378 -0.0143565 7.41047e-21)
(1.01554 -0.00521179 8.39134e-22)
(1.01267 -0.00235558 -8.21044e-22)
(1.02903 0.0193504 0)
(1.01124 0.00126991 -1.06137e-23)
(1.01532 -0.00497613 1.01373e-21)
(1.01176 -0.0191416 -1.87136e-22)
(0.930484 0.111713 -1.83469e-22)
(0.9728 -0.139967 -8.06301e-21)
(1.00654 0.000133753 -4.99651e-23)
(1.00654 0.000156078 0)
(0.967844 -0.144258 2.80872e-20)
(0.904958 0.00735657 0)
(0.912925 -0.330247 1.1185e-20)
(1.10657 -0.0553466 -1.5341e-21)
(1.03894 -0.022096 7.27808e-22)
(0.948413 0.12315 0)
(0.848855 -0.275014 -6.46406e-21)
(0.917474 -0.337507 -7.31339e-21)
(1.02777 -0.019151 -1.81377e-21)
(0.896753 -0.137792 1.83792e-22)
(1.00615 -0.0148912 0)
(0.964047 0.133385 -5.37624e-22)
(1.0513 -0.0667775 0)
(1.00718 -0.0138811 1.14171e-22)
(0.886221 0.280239 -9.48843e-21)
(1.01351 0.00278021 -1.51063e-22)
(0.925503 0.168117 7.2894e-21)
(1.01518 -0.0133896 4.45845e-22)
(1.04944 -0.00884418 -9.38567e-22)
(1.01418 -0.00163213 -7.43194e-22)
(1.0103 -0.00074053 -2.44496e-21)
(0.849324 -0.248478 5.55171e-21)
(1.01487 -0.01241 0)
(1.045 -0.0179655 -2.14601e-21)
(0.0258089 -0.29762 -1.87018e-20)
(1.01785 0.00365471 -4.53337e-22)
(1.03202 0.0771445 -1.86673e-22)
(0.223615 0.00809205 2.47486e-21)
(1.01869 0.00306815 -1.19863e-21)
(1.01259 -0.00729337 1.64178e-22)
(1.00536 -0.0850867 1.38142e-21)
(1.03382 -0.0592892 -1.40187e-21)
(1.01003 0.000684576 0)
(1.01207 -0.0182725 4.15451e-22)
(1.04914 -0.0201918 3.50761e-21)
(1.01002 0.000889547 0)
(1.00963 -0.000582508 -4.14415e-22)
(1.01381 -0.00173663 -3.67658e-22)
(0.922858 0.366539 0)
(0.866614 0.0478351 -1.6546e-21)
(1.00913 -0.000529598 7.95451e-23)
(0.749205 -0.20153 0)
(1.00637 -0.000151648 -2.38105e-23)
(1.01011 0.00110944 -7.69824e-22)
(1.10498 -0.0615539 -8.95424e-22)
(1.01128 0.00134277 0)
(0.214512 0.0248488 -1.0932e-22)
(0.780389 -0.00687108 1.38405e-20)
(1.01337 -0.00564857 -2.96682e-23)
(1.01209 -0.0301569 0)
(0.977834 -0.0768642 -2.71399e-21)
(0.856722 -0.27389 3.71422e-21)
(0.686786 -0.0136337 -1.23369e-20)
(1.03773 -0.0973367 9.9013e-21)
(1.01137 -0.0139649 0)
(1.0513 -0.0426098 -3.18567e-21)
(1.03039 -0.0521047 -1.25391e-20)
(0.886184 0.279729 0)
(1.05901 -0.0632769 -1.71429e-20)
(0.998716 -0.0582848 -7.08692e-22)
(1.01672 -0.00106351 1.56651e-21)
(1.02004 -0.0784716 2.06365e-20)
(1.05389 -0.0153177 0)
(1.01059 -0.0311536 1.96459e-22)
(0.89726 0.365781 0)
(1.02401 -0.0804586 -9.49364e-21)
(0.291184 0.088383 3.94763e-20)
(1.00968 -0.000528462 0)
(1.04719 -0.0500261 -1.69842e-21)
(0.0469107 -0.294051 0)
(1.01326 -0.0054058 3.56802e-23)
(1.00804 -0.000599477 -2.82278e-22)
(1.01249 0.00205407 -1.42421e-22)
(1.048 -0.0304721 5.78978e-21)
(0.985954 -0.11814 3.40447e-21)
(1.01079 -0.00363944 3.01003e-22)
(0.85904 -0.254478 4.12159e-22)
(0.999952 -0.0207092 1.32061e-21)
(1.01015 0.00110942 -3.71839e-22)
(1.00799 -0.000567886 2.58772e-22)
(0.742379 -0.195859 0)
(0.913268 0.10198 1.55865e-22)
(1.04257 -0.0183417 3.49841e-21)
(0.2463 0.0582583 -3.05624e-20)
(0.707301 0.109447 2.67144e-21)
(0.953438 0.143656 -9.93258e-22)
(1.01316 -0.00228382 -1.30252e-23)
(0.79163 0.103518 1.67204e-20)
(1.02382 0.0064851 0)
(1.00498 -4.84083e-05 7.46391e-24)
(0.999256 -0.0191806 1.44917e-21)
(1.21516 -0.053325 7.73881e-21)
(1.04878 -0.0300703 -1.12192e-21)
(1.01019 0.00149182 -8.48868e-22)
(1.07691 0.0363311 1.12084e-20)
(1.01786 0.000506127 1.78783e-22)
(1.00584 -9.11726e-05 -9.42749e-23)
(0.706869 0.0199194 0)
(1.01684 -0.000526627 -1.74848e-22)
(1.00945 -0.000386633 -8.95391e-22)
(0.00951742 -0.254036 0)
(1.01221 -0.00749902 -1.72759e-22)
(1.01315 -0.00101879 0)
(1.00942 -0.000373461 1.28007e-21)
(1.01227 0.0010198 -1.93117e-21)
(-0.0276007 -0.195703 -3.36513e-20)
(1.047 -0.0201412 -5.15751e-21)
(1.00639 -0.000296243 0)
(1.03767 -0.0326878 2.14878e-21)
(0.304361 -0.237149 4.86497e-21)
(1.01372 0.00293672 0)
(1.00611 -0.000123113 -1.68276e-22)
(0.845066 -0.125926 0)
(1.01621 0.000291088 1.81467e-22)
(1.10998 0.0125794 -8.68026e-22)
(1.03098 -0.0489752 1.06645e-20)
(1.02657 0.00632219 0)
(0.97709 0.174641 -3.09499e-21)
(1.05154 -0.0330627 0)
(0.701046 0.105643 -9.13596e-21)
(0.0144287 -0.246462 0)
(1.05712 -0.042186 0)
(0.667197 -0.208369 -9.68634e-22)
(1.01798 -0.00899223 5.01466e-22)
(1.01151 0.0745941 -1.57861e-22)
(0.511027 0.256535 5.43324e-21)
(0.0276115 -0.176602 1.36071e-20)
(-0.0632661 -0.239077 -3.84248e-20)
(1.02691 -0.00438285 2.68944e-21)
(1.00354 -0.013395 -5.85414e-24)
(0.927272 0.137259 -8.82637e-21)
(0.769066 -0.343752 1.15519e-20)
(1.04659 -0.0486509 -2.90501e-21)
(1.0063 0.00230315 5.74543e-22)
(0.987246 -0.0536851 5.56165e-22)
(1.00298 0.088188 2.78253e-22)
(0.736741 0.413309 1.1498e-20)
(1.01029 -0.000507107 0)
(0.119562 -0.276013 2.91641e-20)
(0.653839 -0.204965 -5.53884e-21)
(0.853521 -0.20469 -4.89823e-22)
(1.01035 0.002172 0)
(1.01019 -0.000484443 -9.80007e-23)
(0.575066 0.360729 8.37349e-21)
(-0.0122514 -0.194097 3.02042e-20)
(0.975906 0.16651 -6.80798e-21)
(-0.0351671 -0.255493 1.86241e-20)
(1.00256 5.6179e-05 -2.97968e-22)
(1.03706 -0.0169069 -2.06227e-21)
(0.882955 0.171576 1.06903e-21)
(0.732635 0.168468 0)
(1.01003 -0.00272955 -2.73376e-22)
(1.01336 -0.00533054 -1.74874e-21)
(0.928716 -0.016035 6.19715e-21)
(0.912734 -0.124361 -8.44356e-22)
(1.03735 -0.00556921 -2.02004e-21)
(1.0094 0.00084999 0)
(1.01075 -0.00887243 -8.60491e-22)
(1.00707 -0.0800905 9.38316e-21)
(1.04277 -0.008136 1.04695e-20)
(0.457082 0.325346 -6.01705e-22)
(1.01806 -0.00271028 7.91484e-21)
(0.935372 0.124908 0)
(1.0044 0.00301185 -2.96694e-21)
(0.0796362 -0.29259 -5.39868e-20)
(0.87316 -0.169871 5.16354e-22)
(-0.0643627 -0.23693 1.89277e-20)
(1.01786 -0.00277373 -5.15899e-21)
(1.07452 -0.0499076 1.63995e-21)
(0.736254 -0.10549 2.06566e-22)
(1.00937 0.000783419 7.00249e-22)
(1.04106 -0.00846637 -4.82442e-21)
(1.12895 0.0215834 -8.34393e-22)
(1.02639 -0.00420647 0)
(0.0922223 -0.289886 3.44861e-20)
(1.00577 0.00014512 0)
(1.01469 -0.00102635 0)
(1.00077 0.00805589 4.34386e-21)
(0.919197 -0.100572 0)
(1.01252 -0.00187756 7.85062e-22)
(1.01329 -0.00245218 -3.59748e-21)
(0.137878 -0.277723 -5.39935e-20)
(1.01109 -0.000705721 6.83356e-22)
(1.00445 -0.0149594 -9.25293e-22)
(0.00328979 -0.180365 0)
(-0.0598815 -0.200886 2.28306e-20)
(1.00416 7.89133e-05 0)
(1.04311 -0.0456029 -5.71383e-21)
(1.01538 -0.00079639 0)
(1.01322 0.00216775 -9.79093e-22)
(1.01295 -0.0167937 0)
(1.01257 0.00211457 6.78212e-23)
(1.01305 -0.000778113 -1.59562e-21)
(1.04496 -0.0460587 8.39027e-21)
(1.00786 0.000273512 0)
(0.949715 0.200929 -1.07313e-22)
(0.745766 -0.0831336 0)
(1.01151 -0.000320761 -1.67107e-22)
(1.05148 -0.0325377 2.73458e-21)
(1.00242 0.0143686 -4.41601e-21)
(0.92156 -0.108639 0)
(0.874915 0.0389736 -2.947e-23)
(0.970905 -0.0778669 2.59848e-21)
(1.03563 -0.0900879 3.15416e-20)
(0.695955 0.404281 -1.36265e-20)
(1.01095 -0.000677412 7.10211e-22)
(0.894603 0.0139922 8.854e-21)
(1.05629 -0.0409187 0)
(0.739216 0.156498 2.17155e-21)
(1.00558 -0.00011781 1.62982e-22)
(1.00998 -0.00160912 0)
(1.01164 -0.000231519 -3.52543e-22)
(1.01031 -0.0987872 5.00364e-22)
(-0.00949774 -0.298046 0)
(1.15281 0.0316171 0)
(1.02417 -0.013868 -5.79124e-21)
(1.01361 -0.00266155 0)
(1.00919 -0.0929653 -9.68426e-22)
(1.09524 0.00294427 0)
(1.00355 4.86734e-05 0)
(0.469518 0.276931 3.59037e-21)
(1.03029 0.0927713 8.54163e-21)
(1.01013 -0.00161417 0)
(1.00796 -0.000423768 0)
(1.0097 0.00307117 -6.85326e-22)
(1.01075 -0.00365313 -3.5152e-22)
(-0.0261798 -0.262936 -5.17741e-20)
(1.01391 -0.000773102 -6.04357e-24)
(0.952695 0.0587187 0)
(1.01192 -0.000126365 7.18463e-22)
(1.00561 0.000106947 -1.55466e-22)
(1.09417 0.0822268 -2.68925e-21)
(1.01014 0.00165653 5.9785e-22)
(0.704015 -0.0191611 -9.16768e-21)
(1.01384 -0.000952484 -2.53132e-22)
(0.814684 0.225443 1.1755e-20)
(1.0228 0.00811588 -2.3017e-23)
(1.00966 -0.000414068 -1.47784e-21)
(1.01025 -0.00168329 4.4423e-22)
(1.07124 -0.0507217 0)
(1.00063 -0.287411 -4.81636e-21)
(0.982893 -0.285039 0)
(1.00976 -0.000427607 1.57249e-21)
(1.1 0.0129124 0)
(1.02731 -0.00421048 -1.41236e-21)
(1.01126 -0.00554404 0)
(1.10777 -0.00976262 0)
(0.468827 -0.10919 0)
(1.01133 -0.0055395 3.42543e-23)
(1.01068 -0.000645254 1.11458e-21)
(1.01288 0.00311732 3.93439e-22)
(1.01337 -0.0161338 0)
(1.04126 -0.0268502 -4.58497e-21)
(1.00829 0.000328284 0)
(1.01333 0.00285601 -1.05877e-21)
(1.03722 -0.0146644 4.33226e-21)
(1.00789 -0.000404399 0)
(1.00574 -0.00017486 0)
(1.01413 -0.00237709 4.75416e-22)
(0.567741 -0.215041 -1.75568e-20)
(1.01587 -0.00525043 0)
(1.01056 -0.000637329 -1.3198e-21)
(1.01019 0.000871954 2.20875e-23)
(1.08746 0.00310426 3.62696e-22)
(1.00806 -0.000528136 -2.60497e-22)
(1.008 -0.000536192 0)
(1.00275 1.73513e-05 0)
(1.03691 -0.00788833 -8.56976e-21)
(1.01006 0.000558502 4.26357e-22)
(1.00515 6.34506e-05 0)
(1.0039 1.8071e-05 0)
(1.00838 0.00406091 -5.6624e-24)
(0.872603 0.0221668 0)
(1.00868 -0.000432703 0)
(1.00586 9.95973e-05 -1.24376e-22)
(0.081357 -0.232038 0)
(1.04633 -0.0168234 6.81254e-21)
(1.00545 -3.05738e-05 0)
(1.00552 -2.72912e-05 0)
(0.89062 0.288174 5.70896e-21)
(1.06296 -0.000687956 2.53094e-22)
(1.00944 0.000843837 0)
(1.01528 0.0157379 0)
(0.895373 0.104701 8.74818e-23)
(1.01391 -0.00207474 0)
(1.02474 -0.0598461 -8.20082e-22)
(1.01432 -0.00240654 0)
(0.958435 -0.304135 0)
(1.11553 0.0232764 -1.14225e-23)
(1.07465 -0.0166848 8.7542e-22)
(1.0385 -0.0244734 -4.69709e-21)
(0.907348 -0.144274 -8.43005e-21)
(1.01004 0.00104948 0)
(0.898068 0.314264 -7.13687e-21)
(0.996153 0.0287491 -6.8705e-21)
(1.00647 -0.000175663 0)
(1.07404 -0.019731 -2.06728e-21)
(0.991871 -0.0539205 -8.48038e-22)
(0.553103 0.257013 1.78413e-21)
(1.00974 -0.0019209 0)
(1.01001 0.00105492 3.70214e-22)
(-0.0505525 -0.197215 -5.89643e-21)
(0.892397 0.141585 -1.03682e-22)
(1.0094 -0.0005359 0)
(-0.0152024 -0.269522 0)
(1.01334 -0.0844807 0)
(1.03133 -0.00165599 0)
(0.224738 -0.239869 -8.09358e-21)
(1.00967 -0.0017922 -2.18426e-22)
(1.01016 0.00196298 -6.45266e-22)
(1.01401 -0.00101695 0)
(1.00532 -3.77761e-05 -1.17478e-23)
(1.01337 -0.01042 3.37072e-22)
(1.01579 -0.00277015 -5.30458e-22)
(1.02908 -0.0199535 -4.33553e-21)
(1.01132 -0.000753877 -9.98827e-22)
(1.01359 -0.0105204 -4.28777e-22)
(1.02531 -0.0135238 -4.04934e-21)
(0.591345 0.0231426 2.15321e-20)
(0.883063 0.285741 1.08339e-20)
(1.01566 0.000507609 0)
(0.896697 0.299205 6.0725e-22)
(0.985531 -0.165726 -1.70151e-20)
(1.00927 -0.000527344 0)
(1.05422 -0.0285232 0)
(1.06712 -0.0104987 6.30396e-22)
(0.988291 -0.152633 4.48119e-22)
(1.02156 0.11677 -4.68743e-21)
(1.15432 -0.0280979 3.82099e-21)
(1.01798 -0.00246759 -6.07816e-24)
(-0.0420824 -0.278973 1.47666e-20)
(0.840325 0.282666 1.31059e-20)
(1.01539 0.00751481 -1.00712e-21)
(1.02543 -0.0131967 3.73446e-21)
(1.0299 -0.00406793 0)
(1.01205 0.00247034 -4.9593e-22)
(1.01393 -0.00132371 7.40253e-22)
(1.13762 0.0332817 0)
(0.702937 -0.100279 3.48152e-21)
(1.05584 0.056806 0)
(0.959061 -0.0851266 0)
(0.704556 -0.12533 -3.56176e-21)
(1.01009 -0.00167609 0)
(1.04946 -0.0206498 -7.33183e-21)
(1.01016 -0.00878972 7.44378e-22)
(1.04887 -0.028916 1.08907e-21)
(0.00495768 -0.298164 3.19137e-20)
(1.20847 -0.0346937 -9.65216e-21)
(0.77018 0.184583 4.67046e-22)
(1.06867 -0.132617 0)
(0.936266 0.178271 -1.25821e-20)
(1.16464 -0.0373532 -1.31727e-21)
(1.00508 9.41179e-05 1.29589e-22)
(0.854642 -0.187031 1.93666e-20)
(1.01283 -0.00763658 2.11856e-22)
(1.05479 0.0372951 0)
(1.06168 0.0263072 -6.67657e-21)
(1.00713 -0.00019858 2.18171e-22)
(1.0066 0.000157412 2.75022e-22)
(0.980265 -0.143166 0)
(1.03313 0.0851621 -9.51283e-22)
(0.902234 -0.176025 2.81094e-21)
(1.08242 -0.00764844 0)
(-0.0122204 -0.262546 -1.39335e-20)
(1.02477 -0.0139751 1.74935e-21)
(0.984682 0.111013 -7.33606e-21)
(0.971803 0.147521 -1.89297e-21)
(1.01286 -0.00239905 -8.65492e-22)
(1.03547 -0.0150294 9.66968e-21)
(1.01216 -0.0144457 0)
(1.01313 -0.00371394 -8.33932e-22)
(1.00576 -0.000100643 5.32424e-22)
(1.01155 0.00263516 0)
(1.02002 -0.00243883 -2.63956e-22)
(1.00449 -0.000118937 9.05287e-23)
(1.00371 9.79178e-06 0)
(1.01078 0.00448853 -3.75344e-22)
(1.03055 -0.0428508 -3.02694e-22)
(0.865006 0.28187 0)
(1.05599 -0.0225626 9.7296e-21)
(0.820963 -0.333914 0)
(0.820414 -0.326721 8.5408e-21)
(0.109768 -0.209503 -6.89263e-21)
(0.858328 0.274329 0)
(1.02762 0.00204801 0)
(1.00908 0.00399512 -7.11581e-22)
(1.00642 0.000159336 -2.56406e-22)
(1.0341 0.0083517 -5.64411e-21)
(1.03495 -0.0153469 0)
(1.02337 -0.0143576 0)
(0.889627 0.05245 -2.45083e-20)
(1.04969 -0.0286826 0)
(1.02826 0.0964478 9.03738e-22)
(1.01004 0.00146577 -6.33252e-22)
(0.635202 -0.040565 -1.92586e-20)
(1.01021 -0.000704699 0)
(1.04659 -0.0174185 -4.3407e-21)
(1.00938 0.000788036 0)
(0.154595 -0.282754 0)
(0.975424 -0.307052 0)
(0.992641 0.146625 -3.63095e-21)
(1.00393 2.96303e-05 0)
(0.183412 -0.244035 0)
(1.05111 -0.0516402 3.65288e-21)
(1.01405 -0.000775713 -8.1482e-22)
(1.01252 -0.00336053 -4.11058e-22)
(1.00413 6.52361e-05 3.46682e-24)
(0.778708 0.17034 4.11613e-22)
(1.00388 2.42626e-05 2.01198e-22)
(1.0052 7.91045e-05 0)
(0.864789 -0.214328 -1.89343e-22)
(1.05684 -0.0226114 -1.49021e-20)
(1.02392 -0.0144421 1.71716e-21)
(1.01321 -0.00508131 -1.49866e-21)
(1.02569 -0.0197388 0)
(1.02893 -0.0266778 5.49009e-22)
(0.613303 0.267173 -9.29143e-21)
(1.02482 0.0868123 -4.83637e-22)
(1.0031 6.98334e-05 2.12676e-23)
(0.805192 -0.19414 1.12294e-20)
(1.00941 0.000788803 3.12653e-22)
(1.01665 -0.00296738 -1.78871e-22)
(1.03918 -0.0884199 -1.70967e-20)
(1.01645 -0.000397087 -1.50608e-21)
(0.838728 -0.268883 -4.0258e-21)
(1.00304 0.000113055 -1.87658e-22)
(1.02847 -0.0275655 -1.23373e-22)
(1.00342 1.10583e-05 0)
(1.19377 -0.0445618 2.84532e-21)
(1.00741 0.00524793 7.41864e-22)
(1.0197 -0.00243742 -1.21983e-21)
(-0.0274443 -0.292469 3.86233e-20)
(1.06298 0.0111213 -2.55118e-22)
(1.0104 0.000996111 4.67627e-24)
(1.04872 -0.0206973 -4.93619e-21)
(1.00546 -0.00502215 1.68979e-21)
(1.01262 -0.00204482 -8.2212e-22)
(1.00494 2.06565e-05 1.48425e-25)
(1.01341 -0.000551682 0)
(1.01107 -0.261722 0)
(0.500872 0.185882 1.10768e-20)
(1.02798 -0.00707563 -4.95292e-21)
(1.0499 -0.0304365 0)
(0.684827 -0.142449 0)
(0.937242 -0.0143758 -4.42097e-21)
(0.901504 0.130735 -2.02628e-21)
(1.05359 0.0907112 -3.34705e-21)
(0.911433 0.15982 0)
(1.01034 0.00147601 6.14764e-22)
(1.03182 -0.00176674 -5.50918e-22)
(1.01457 -0.0891928 4.81552e-22)
(1.01842 -0.0411565 9.97865e-22)
(1.02694 -0.0190912 1.99199e-21)
(0.930989 0.215222 -2.54768e-21)
(1.04678 -0.00581555 2.60724e-22)
(1.02687 0.00400004 -4.60039e-22)
(1.00596 -4.36628e-05 0)
(1.01609 -0.0055835 -1.79534e-21)
(1.0082 -0.000528363 -4.11528e-22)
(1.01628 -0.000387149 1.44344e-21)
(1.00817 -0.000507862 1.6018e-22)
(1.01596 -0.000152705 -4.64162e-21)
(0.995096 -0.0709034 0)
(1.00351 4.47825e-06 -4.42158e-22)
(1.00921 0.000713512 2.57882e-22)
(1.05481 -0.0535787 0)
(1.0065 -0.000278166 4.71379e-22)
(1.00327 1.3851e-05 2.87514e-22)
(1.01324 0.00261855 -3.69883e-22)
(1.00604 -0.00461889 1.16057e-24)
(1.04513 -0.00949293 -5.86672e-23)
(0.935526 0.13525 0)
(1.01117 -0.000712593 7.43043e-22)
(1.04426 0.0648251 -3.87811e-22)
(1.00634 0.000113772 -5.3452e-23)
(1.05483 -0.0235041 2.6955e-20)
(0.997782 -0.044424 0)
(0.539714 0.177893 3.1629e-20)
(1.07911 -0.13358 1.62093e-22)
(1.01325 -0.00094615 1.24144e-23)
(1.01822 -0.00240861 3.01367e-21)
(0.498141 0.17487 1.58604e-20)
(0.254353 -0.243148 0)
(1.02586 -0.0107951 6.97896e-22)
(1.01001 0.00105937 -3.39244e-22)
(1.01782 0.107529 3.00752e-22)
(0.584643 -0.216291 -1.15014e-21)
(1.01031 0.000907068 -1.85733e-23)
(1.00701 0.000151634 3.50648e-23)
(0.660869 0.390223 -3.57064e-21)
(1.01344 -0.0175962 5.4563e-22)
(1.02834 -0.0466735 -1.26829e-21)
(1.02371 -0.0127881 1.10602e-21)
(1.01205 -0.00373591 0)
(1.04953 -0.030828 7.12153e-21)
(1.00806 -0.000438603 0)
(1.00988 -0.00246135 -1.11278e-22)
(1.01042 -0.000521721 0)
(1.00541 7.51026e-05 -2.28647e-22)
(1.01087 -0.000662811 0)
(1.01003 -0.00066441 2.03346e-21)
(0.928685 -0.269957 -9.62796e-21)
(1.00856 0.000637631 -2.6036e-24)
(1.0434 0.0845996 0)
(0.679418 -0.108972 0)
(1.01053 0.00103405 0)
(1.00866 0.000667581 9.47367e-22)
(1.00259 1.86681e-06 -1.6349e-23)
(1.04521 -0.0234508 0)
(1.0026 -0.00890253 1.03501e-21)
(1.00683 0.0982464 -2.19662e-21)
(1.01092 -0.00380399 -4.95847e-22)
(0.886293 -0.166246 -3.72414e-22)
(1.03247 -0.0384436 8.43522e-22)
(1.01722 -0.0399906 -9.10748e-22)
(1.01133 -0.000712501 -4.1008e-22)
(1.01105 0.00406795 -7.53181e-22)
(1.00928 0.0031111 0)
(1.02778 -0.0080875 0)
(1.02763 -0.00771873 0)
(0.191655 -0.15789 1.30532e-20)
(0.442276 0.324018 1.67485e-21)
(1.0078 -0.000388064 -1.81994e-22)
(1.01074 -0.000650999 -1.32964e-21)
(1.03612 -0.00759956 8.40377e-21)
(0.576893 0.352879 6.22426e-21)
(1.00949 0.000824721 0)
(1.01281 0.00221741 8.29903e-23)
(1.0159 -0.000168111 -2.66737e-21)
(1.00921 0.000711471 -1.65155e-22)
(1.01039 -0.000632464 -3.43337e-22)
(1.01114 -0.000663637 3.73599e-22)
(1.01332 -0.0137327 0)
(1.01255 -0.00217801 0)
(1.05056 -0.0177157 0)
(1.01096 -0.00379248 4.49165e-22)
(1.01379 0.00309311 0)
(1.05356 -0.106894 0)
(0.57201 0.183024 -2.95773e-20)
(1.02454 0.000886519 9.19862e-22)
(1.01333 -0.000921723 7.36668e-22)
(1.01038 -0.00331349 0)
(1.00251 -2.82828e-05 -6.426e-22)
(1.0135 -0.00458637 -8.16199e-22)
(1.01699 0.000699568 -1.02243e-21)
(1.02785 0.0654066 0)
(1.07349 0.021578 -2.09868e-21)
(1.03715 -0.00673593 1.2935e-20)
(0.867436 0.172545 -1.35309e-21)
(1.01029 -0.00319215 0)
(1.05446 -0.0292163 1.56668e-20)
(1.0134 -0.00122833 -1.80176e-22)
(1.00571 0.000110997 -3.79296e-22)
(1.0548 -0.0410289 0)
(1.01121 0.00136608 0)
(1.00531 6.81317e-05 2.45539e-22)
(0.897597 0.330204 1.84658e-20)
(1.00364 9.67868e-07 2.42084e-22)
(1.04134 -0.00918334 1.1163e-20)
(0.955722 -0.0783218 -1.12459e-21)
(1.00519 -2.9379e-05 0)
(1.01704 -0.00351282 -1.7065e-21)
(0.136384 -0.28593 -1.00393e-20)
(1.01031 0.00155756 9.01657e-22)
(0.977492 -0.0719343 0)
(1.04789 -0.0124331 -7.49148e-23)
(1.00483 6.62613e-05 2.93937e-22)
(1.00337 -7.54859e-07 -5.25246e-22)
(0.999797 -0.0544837 -1.48149e-22)
(1.02422 -0.0219237 0)
(1.00324 -0.00763115 -4.26761e-22)
(1.00998 -0.00265593 7.87633e-23)
(0.821912 0.26899 -1.07651e-20)
(0.874375 0.19171 3.20036e-21)
(0.94157 0.172098 0)
(1.0082 -0.000446152 1.9433e-22)
(0.118793 -0.217976 0)
(1.00909 0.000652901 -2.53093e-22)
(1.0041 6.19278e-05 7.112e-22)
(1.01135 -0.00407428 -3.75262e-22)
(1.01926 0.000216575 0)
(0.870683 -0.185358 1.3421e-22)
(1.0742 -0.111444 1.541e-21)
(1.01195 0.000206668 7.64346e-22)
(1.04166 -0.00796736 -1.05446e-20)
(1.01778 -0.000219132 1.91286e-22)
(0.577299 0.114908 -4.49072e-21)
(1.04207 0.0891025 -7.55572e-22)
(1.01095 -0.00165125 1.01998e-21)
(1.01381 0.0184465 2.79381e-22)
(1.04522 -0.0183737 3.40933e-21)
(-0.0217127 -0.295287 1.33596e-20)
(1.03823 -0.0317374 0)
(1.0375 -0.011118 -1.76517e-22)
(1.00923 -0.000524583 0)
(1.01948 -0.000886384 0)
(1.05092 -0.0276653 -3.63049e-21)
(1.00497 6.6651e-05 -3.13858e-22)
(1.00933 -0.000514249 -5.11316e-22)
(1.00944 0.000818149 0)
(1.00885 -0.000514182 0)
(1.03799 -0.0287647 -2.97359e-21)
(1.03344 0.0630753 5.85498e-22)
(0.96504 0.0591139 -8.78302e-22)
(0.918258 0.326078 -5.95818e-21)
(1.03402 -0.0137135 5.57518e-22)
(1.00525 -0.00677316 0)
(1.01131 -0.0041054 8.37675e-23)
(1.00765 -0.000397485 3.84185e-22)
(1.05523 0.0917652 0)
(0.981421 -0.150266 1.18241e-20)
(1.01341 0.0027805 3.14837e-22)
(1.05098 -0.0316704 2.69309e-21)
(-0.0628293 -0.232689 0)
(0.170666 -0.177538 -1.74765e-20)
(1.0033 1.34874e-05 4.99176e-22)
(1.00446 0.000123573 -4.96681e-23)
(0.994286 -0.0585313 9.50858e-22)
(0.858336 0.0369963 0)
(1.00913 0.000668806 0)
(1.06333 -0.0215019 3.63628e-22)
(1.01094 -0.00433872 -9.93664e-24)
(1.00473 -6.08491e-05 0)
(1.05356 -0.0257663 1.30755e-20)
(1.01402 -0.000719196 -2.33404e-21)
(1.02811 -0.00744974 5.63698e-21)
(1.01457 -0.00234394 1.40961e-21)
(1.00796 -0.000403193 0)
(1.01339 -0.00322438 1.65311e-21)
(1.02652 0.0736565 2.1063e-21)
(1.05408 -0.0397666 0)
(0.879399 -0.228377 -6.70527e-21)
(1.01368 0.00194649 -9.75094e-22)
(1.01052 -0.000642232 8.03709e-22)
(1.14971 0.00479478 -1.60766e-21)
(1.0129 0.0023032 0)
(1.05615 0.0355788 -1.7233e-20)
(0.913188 -0.283333 9.36992e-21)
(1.01087 -0.00433109 5.71622e-23)
(0.883254 -0.0544569 8.28426e-21)
(1.01536 -0.0038904 0)
(1.0138 -0.000939422 7.64068e-22)
(0.81242 -0.119554 1.73543e-20)
(0.880829 0.165368 3.55325e-22)
(0.890082 0.161102 -8.72574e-22)
(1.01166 -0.274185 0)
(1.02387 -0.0209745 0)
(0.939404 -0.334848 -1.02562e-20)
(1.00844 0.000619604 5.27556e-22)
(0.923854 -0.183574 -3.98779e-20)
(0.125462 -0.209535 3.45885e-20)
(1.01578 0.00475051 -9.17925e-22)
(1.01206 1.66168e-05 3.71474e-22)
(0.985405 0.189011 -7.71833e-21)
(1.04446 -0.0178157 2.87061e-21)
(0.960152 -0.0294906 -2.24101e-21)
(0.84409 0.141506 -1.7858e-21)
(0.776088 0.181815 6.83037e-21)
(1.02546 -0.00434826 -3.68534e-21)
(0.912217 -0.219294 6.8362e-21)
(1.00541 0.000121334 -4.43009e-22)
(1.05054 -0.031124 -5.44398e-21)
(1.03669 -0.0200638 -8.50233e-22)
(1.006 -6.40793e-05 0)
(1.04678 -0.0292037 4.87588e-21)
(0.685194 0.0151047 7.8122e-21)
(0.986153 -0.0777892 0)
(1.00874 -0.0247817 8.77658e-23)
(1.01311 -0.0141745 -1.39633e-22)
(1.00935 0.000769484 -2.67404e-22)
(1.02604 -0.0130491 -4.35339e-21)
(1.00819 0.0051025 7.31494e-22)
(1.0068 0.00318259 -3.25927e-23)
(0.983553 -0.0932358 -1.19359e-21)
(1.01083 -0.000641095 0)
(1.19247 -0.0359945 1.4809e-21)
(1.00564 -0.00614449 0)
(1.0111 -0.00533547 0)
(1.0526 -0.0195879 -2.9481e-21)
(1.00864 0.000546298 -7.16647e-22)
(1.0067 0.0157223 -2.01431e-22)
(1.01399 -0.00248145 0)
(1.00897 -0.000517196 0)
(0.47454 0.303508 -3.45844e-21)
(1.00767 -0.000374657 -5.37349e-22)
(1.01277 0.00308728 0)
(1.07834 -0.0372184 -3.42308e-21)
(1.04912 -0.0514883 0)
(1.0572 -0.0602652 2.15256e-20)
(1.0185 -0.00192619 0)
(1.01159 -0.0057603 2.90872e-23)
(1.06045 -0.0444192 0)
(1.01205 -0.00619862 1.4866e-22)
(0.864593 0.011188 -8.43702e-25)
(1.04692 -0.0153873 -1.44615e-20)
(1.01317 -0.0183594 -1.21241e-21)
(1.03337 -0.0138131 -4.03865e-22)
(1.0107 -0.00478657 0)
(1.00928 0.000742883 -1.29144e-22)
(0.63767 0.38664 -5.8122e-21)
(1.00871 0.000573122 8.58639e-22)
(0.873535 0.423582 -7.46739e-21)
(0.994485 0.0199723 7.11216e-21)
(1.03766 -0.0063532 0)
(0.206719 0.0323061 -6.37736e-21)
(1.0064 0.000151872 0)
(1.02897 0.000397029 0)
(1.00967 -0.0242362 -2.75402e-22)
(0.579641 0.307411 1.06546e-20)
(1.04752 -0.0140247 6.57239e-21)
(1.02065 0.0863737 0)
(0.9394 0.0535406 0)
(1.00412 4.75709e-05 0)
(1.07308 -0.0579973 1.15222e-22)
(1.00696 -0.000131987 -2.27904e-24)
(0.85514 0.132248 1.89063e-21)
(1.01198 -0.00620755 -2.73065e-23)
(1.0277 -0.0101862 -2.46431e-21)
(0.349996 -0.149846 5.86124e-21)
(1.07616 0.00281582 0)
(1.01349 -0.00248367 3.2422e-21)
(1.01491 -0.00975381 9.12017e-22)
(1.02655 -0.0198499 1.84225e-21)
(1.00885 -0.000410728 -3.38958e-22)
(1.01825 -0.00188624 2.04183e-21)
(0.966404 0.173496 1.18653e-20)
(0.189598 -0.0655377 4.19213e-20)
(1.01107 -0.000467705 0)
(1.0087 -0.000387581 0)
(1.00698 -0.000135918 -6.01016e-22)
(0.603121 0.259982 3.14335e-21)
(1.06662 -0.113683 -1.36438e-21)
(1.0404 -0.0276321 7.24822e-22)
(1.00799 -0.000405849 -3.89535e-22)
(1.0208 0.0205129 -4.85383e-22)
(1.02722 -0.0102551 2.70066e-21)
(1.01151 -0.00576704 2.12557e-23)
(1.05572 -0.0235308 -1.49483e-20)
(1.01132 -0.0777993 0)
(1.01104 -0.0015583 0)
(1.05095 -0.0321893 -6.26142e-21)
(0.948849 0.124774 -1.35339e-21)
(1.0132 0.0032783 3.98234e-22)
(1.04631 -0.00691686 0)
(1.01962 -0.00432981 1.32054e-23)
(1.03637 -0.0328745 -3.88322e-21)
(1.011 -0.00141287 5.34312e-22)
(1.01085 0.00196441 0)
(1.04864 -0.0216278 2.05282e-20)
(1.01102 -0.00534297 0)
(1.04997 -0.0275894 0)
(1.01607 -0.000438162 -2.79335e-21)
(0.388949 -0.231412 -4.97693e-21)
(1.00713 -0.000288148 3.4464e-23)
(1.04714 -0.0161159 1.19258e-20)
(1.04189 -0.021618 -4.00755e-22)
(1.00398 -0.074989 0)
(1.05072 -0.0307411 5.21341e-21)
(1.00598 0.000159472 0)
(1.01064 -0.00463803 9.21019e-23)
(0.900421 0.123106 3.38691e-21)
(1.02409 0.0232292 0)
(0.965689 -0.031973 -1.00652e-21)
(1.0084 -0.00102154 -3.46408e-24)
(1.01056 -0.003474 3.65474e-22)
(1.01342 -0.0308665 8.08369e-22)
(0.0935937 -0.243886 -4.32468e-20)
(1.07565 -0.0251123 5.29168e-21)
(1.01094 -0.000513011 0)
(1.01333 -0.00278875 -1.63262e-21)
(1.02148 -0.015111 -6.34906e-23)
(1.01489 -0.00945665 0)
(1.0146 -0.00280855 -1.47486e-21)
(1.01282 -0.00472505 0)
(1.00491 -1.06605e-05 -2.57771e-22)
(0.934069 0.146116 0)
(1.014 -0.00257025 -9.77337e-22)
(1.0173 -0.00367869 0)
(0.914444 0.110962 1.00281e-20)
(1.00824 -0.000470684 2.08419e-22)
(0.997105 0.101112 -8.14269e-21)
(1.07838 -0.0785393 -1.68802e-21)
(0.569942 0.091091 -6.59245e-22)
(0.611488 0.233382 7.17064e-22)
(0.939094 0.192244 -4.34198e-21)
(0.187336 -0.0740211 0)
(1.01313 -0.0047463 -7.52116e-22)
(1.01066 -0.0036102 -2.74025e-22)
(1.01238 -0.0151958 0)
(1.01109 -0.000448192 -6.80875e-22)
(1.01109 -0.00205318 1.0955e-21)
(1.00629 -6.92005e-05 0)
(1.00559 5.06121e-05 3.11644e-22)
(1.02596 -0.0126154 2.48225e-21)
(0.877955 0.0603264 -3.47822e-20)
(0.999454 -0.049008 7.71521e-21)
(0.968982 0.115817 9.34756e-23)
(1.0142 -0.00392033 -3.24207e-22)
(1.01047 -0.0032139 2.04613e-22)
(1.034 -0.0389882 1.29316e-21)
(1.02861 -0.0424584 1.23516e-21)
(1.06544 -0.0472096 0)
(1.00331 2.25837e-05 0)
(1.01484 0.00192409 -1.19708e-23)
(1.01102 0.00195477 0)
(0.0297878 -0.23526 1.53601e-20)
(0.794907 -0.0600196 0)
(0.921653 0.315561 3.33039e-21)
(1.00565 -0.000122453 2.71932e-22)
(1.04018 -0.0156998 -7.39713e-22)
(1.02227 0.000275211 0)
(1.04478 -0.0127128 -2.77938e-23)
(0.0649644 -0.243037 -1.41866e-20)
(1.00801 0.0538459 -3.86085e-20)
(1.0146 -0.0144141 8.45597e-22)
(1.01254 0.00362043 -5.66716e-22)
(1.01398 0.00330024 0)
(0.900624 -0.116891 -9.38504e-23)
(1.01908 -0.0100536 -1.09119e-21)
(1.00871 0.00078333 4.17311e-22)
(1.06784 -0.0229538 9.89926e-22)
(0.786003 0.121297 -8.72769e-22)
(1.01296 -0.00407692 8.20205e-22)
(0.945067 0.0415173 0)
(0.984133 0.104263 3.29343e-22)
(1.01448 -0.00226221 0)
(1.01193 -0.00421585 5.53699e-22)
(1.0147 -0.00196017 0)
(1.01019 -0.00186947 2.77864e-22)
(1.01561 -0.00568197 -1.17324e-21)
(1.00766 -0.00718664 -8.54989e-22)
(1.04521 -0.0299829 -1.18326e-21)
(1.01435 -0.00619419 5.97347e-22)
(1.01891 -0.0103089 -1.16622e-21)
(0.864401 0.31694 0)
(0.0253605 -0.238075 -1.40671e-20)
(1.01502 -0.00490771 2.23616e-21)
(0.918893 0.231068 0)
(0.938309 -0.0673698 0)
(1.01304 -0.0096247 5.92279e-23)
(1.01251 0.000409587 6.67886e-22)
(1.01126 -0.000386979 1.73359e-22)
(1.00789 0.000231463 5.9234e-23)
(1.01217 -0.0120141 -3.36315e-23)
(1.01304 -0.00944677 1.5117e-23)
(1.0044 6.65376e-05 -1.27642e-21)
(1.02733 -0.00844765 0)
(1.00786 -0.00663178 4.31249e-22)
(1.02074 -0.00953343 5.56256e-21)
(0.369745 -0.133657 -4.08717e-21)
(1.0409 -0.0276612 5.42666e-21)
(1.00509 3.22345e-05 6.67057e-22)
(1.01035 -0.00152683 0)
(0.911856 -0.288032 1.67451e-20)
(1.02601 -0.00448306 0)
(1.00885 0.000822421 4.91145e-22)
(0.663201 0.281285 0)
(1.01132 -0.00203584 0)
(1.04896 -0.0307371 -3.39742e-21)
(1.04789 -0.0217728 -1.70532e-20)
(1.01751 -0.00337938 0)
(1.0083 -0.000912404 0)
(1.00907 -0.000317371 -3.33372e-22)
(1.01057 -0.0191751 -1.6248e-22)
(1.06073 -0.0349149 6.41862e-21)
(1.00459 6.59949e-06 -4.16601e-24)
(0.920446 0.208996 -2.40356e-21)
(1.06831 -0.0463914 0)
(1.03667 -0.000793416 6.65525e-22)
(1.02707 -0.00298614 3.68553e-20)
(1.02123 -0.0144721 2.33851e-21)
(1.01313 -0.0526503 1.81928e-21)
(1.00853 0.000649508 0)
(0.995487 0.116854 5.90695e-22)
(1.03746 -0.00747691 -4.66172e-21)
(1.01014 -0.00197159 6.07435e-22)
(0.987904 -0.0451565 0)
(1.06856 0.087222 -3.1909e-22)
(1.0119 -0.0068492 0)
(0.816828 0.192052 0)
(0.822365 0.00601386 -9.09917e-21)
(1.00657 0.00018581 3.80478e-22)
(1.05311 -0.0249873 0)
(1.00897 0.000857573 0)
(1.01348 -0.000584262 0)
(1.03887 -0.0294287 4.10857e-21)
(1.01205 -0.00780467 0)
(1.00718 -0.000184207 0)
(1.03847 -0.0157068 0)
(1.01059 -0.00187708 0)
(1.01071 -0.000639083 0)
(0.888706 -0.0141281 -2.83291e-21)
(1.01155 -0.000809921 1.12299e-21)
(1.01106 -0.00214805 -4.2816e-22)
(1.00834 -0.000922171 0)
(0.439222 -0.126101 0)
(1.01045 -0.00134614 3.48129e-22)
(1.01312 -4.05649e-05 0)
(1.04434 -0.0302972 -6.2754e-21)
(0.912156 -0.115122 0)
(0.848682 -0.134793 2.30936e-21)
(1.1323 0.0642652 1.05464e-21)
(0.935789 -0.255581 0)
(1.00993 -0.00254035 0)
(1.00892 0.00062258 -1.57723e-22)
(1.01775 -0.00331557 0)
(0.751841 0.196067 1.1908e-22)
(1.00379 -4.63138e-05 -3.82446e-24)
(1.00963 -0.00137088 0)
(1.03895 -0.017448 1.09256e-20)
(1.01092 0.00177105 -3.07583e-22)
(0.876936 0.130237 0)
(1.02047 -0.0101995 3.04932e-21)
(1.02356 -0.00635516 -6.75001e-21)
(0.838828 -0.0422962 -4.43271e-21)
(1.01225 -0.004223 5.8821e-22)
(1.05245 -0.0539501 4.96585e-21)
(0.861666 -0.265609 1.91452e-21)
(1.00892 0.000614012 -3.0007e-22)
(1.01415 -0.00606052 4.51337e-24)
(0.732754 0.172543 1.068e-20)
(1.01308 -0.0154322 2.49877e-22)