/*--------------------------------*- C++ -*----------------------------------*\
| =========                 |                                                 |
| \\      /  F ield         | OpenFOAM: The Open Source CFD Toolbox           |
|  \\    /   O peration     | Version:  v2012                                 |
|   \\  /    A nd           | Website:  www.openfoam.com                      |
|    \\/     M anipulation  |                                                 |
\*---------------------------------------------------------------------------*/
FoamFile
{
    version     2.0;
    format      ascii;
    class       surfaceScalarField;
    location    "400";
    object      meshPhiCN_0;
}
// * * * * * * * * * * * * * * * * * * * * * * * * * * * * * * * * * * * * * //

dimensions      [0 3 -1 0 0 0 0];
oriented        oriented;


internalField   nonuniform List<scalar> 
27882
(
-0.000132682
-0.0003109
0.000439988
7.07421e-05
-0.000353643
0.000281315
3.43825e-05
-8.80335e-06
-3.98368e-05
-0.000456961
0.000320442
0.0011963
-6.70634e-05
-0.00113434
6.1086e-06
-7.57454e-06
1.0724e-07
0.00108317
-0.00100716
-9.62409e-05
0.00116455
-0.000458622
-0.000708925
7.57404e-05
0.00111527
-0.0010344
5.56465e-05
0.000977021
-0.00025931
-6.78547e-05
0.000325393
4.5705e-05
-0.0007439
0.00069751
-0.000444759
0.0012792
-0.00083822
-4.96834e-05
-0.000895352
0.000940161
0.00122398
-0.000280743
-0.000970753
-0.0001884
0.000588203
-0.00043075
0.000735999
-0.000690915
-2.94404e-06
2.94404e-06
0.000434934
0.000763145
0.00134779
-0.00115256
-0.000201168
-1.00615e-05
-0.000800038
0.000808299
-0.000482738
0.000108858
0.000373838
5.37285e-06
-8.98239e-07
1.1908e-05
-6.77298e-07
-1.38982e-05
-0.000213512
-0.000269261
-0.000103903
0.000498869
-0.000395041
0.000725495
-0.00114935
0.000424012
0.000154556
0.000493508
-0.000648448
0.000216267
-0.000649544
0.00043289
1.64415e-05
-0.000286847
0.000269321
0.000581273
0.000363371
-0.000944755
0.00117124
-0.00044609
0.00028046
0.000881312
0.000379007
8.18364e-06
-0.000387227
0.0011718
-0.000382522
-0.00079289
0.000342629
-0.000327548
0.000640031
-0.00108818
0.00109968
-0.0011754
0.000997034
0.000178329
-1.75713e-05
-7.49513e-06
2.44591e-05
-3.18962e-05
0.000298985
-0.000267031
0.00121288
-0.00104478
-0.000168811
4.15982e-05
-0.000301018
0.000258508
8.68317e-05
0.000546146
-0.000639728
1.91585e-05
0.000173092
-0.000235789
-5.92317e-05
0.000879115
-0.000820163
0.000384018
0.000826845
-0.000316666
0.000717862
-0.000401635
0.000385327
-0.000304439
-8.08903e-05
-0.000124138
-0.000303362
0.000424154
6.83585e-05
-0.000329377
-0.000589671
0.000106756
0.000482886
-0.000433592
0.000305997
-9.75896e-05
0.000962731
-0.000871023
0.000449918
-2.09354e-05
-0.000429072
0.000249764
0.00102444
0.000124135
0.00018685
-0.000316095
0.00106084
0.000281268
-0.000309023
-0.00042927
0.000737822
-0.000250321
0.000368676
0.000127569
-0.000213114
5.10337e-05
-0.000548973
0.000628935
0.00135993
-0.000581773
-0.000815071
0.000561186
0.000253752
0.000153947
-6.81713e-05
4.9167e-05
0.000261084
-0.000310266
-0.00017071
8.33954e-05
5.99149e-05
-5.15196e-06
9.18522e-05
-8.96572e-05
0.000676161
-0.000522025
-2.84441e-07
-2.8403e-06
-0.000376056
-0.000213652
-0.00058148
0.000504983
7.64205e-05
0.0012086
-0.000441681
-0.000784944
-0.00110782
0.000349085
0.000755033
-0.000685901
-0.00028016
0.000964343
0.00097914
-0.000397968
-0.00106807
0.000906722
0.00016108
0.000621916
-0.000713692
9.12127e-05
-0.000963338
-0.000255837
0.00029649
0.000338361
0.000204893
-0.000543469
-0.000903943
-0.000271503
-2.73933e-05
0.000648803
0.00100955
-0.000586541
-0.000424044
-8.76255e-05
0.000641213
-0.000559657
0.000344198
-0.000582207
0.000237891
-0.00042028
0.0009609
-0.000971343
-0.000139454
0.000845378
0.000514402
-0.000159404
0.000503484
0.000667193
-0.000281997
-0.000385212
0.000123761
-9.12349e-06
-0.000159946
0.000577167
2.20327e-05
-0.000599476
0.000313932
7.13953e-05
0.000879511
0.00030921
0.000291275
-0.000438869
0.000126926
-1.71633e-05
1.63631e-05
3.39993e-07
0.000460918
0.000233598
-0.000695138
0.000102496
0.000643998
-0.000746975
-0.00111254
0.000101252
0.000990696
-0.000671221
0.000611776
-0.000235799
-0.000631015
0.000864741
8.38882e-05
-9.20151e-05
-0.000155203
0.000425535
-0.000283611
0.000332762
-0.000636085
0.00062464
0.000335471
-0.000652531
0.000170076
0.000497114
-0.00124385
0.000473296
0.000769917
0.00023354
-0.00106358
0.00082754
-0.00068514
0.000214699
0.000436775
-0.000668653
-0.000146537
-0.000925012
-2.01776e-05
0.000939419
-4.51779e-05
-3.56667e-05
6.31166e-05
-0.000881695
0.000643986
0.000505947
-0.000817448
0.000311195
-0.000353588
0.000813789
6.14316e-05
-0.000316869
0.000249949
0.00081567
-0.000556866
-0.000259019
0.000598552
9.27469e-05
-0.000697202
9.68555e-06
8.11942e-05
-0.000112259
-0.000395719
-0.000672506
-0.000651388
0.000557663
0.000321602
-0.000462861
0.000132029
-0.000226356
0.000334669
-0.000108312
-0.000940881
0.000837445
-6.46919e-05
-0.000542432
0.00059957
-0.000116481
0.000429426
-0.000750943
0.000519843
0.000230854
-0.000313094
0.0002623
0.00040839
-2.13476e-05
8.97243e-05
-0.000103961
0.000505561
0.000421762
-0.00092936
-0.000439422
0.000129371
0.000310037
-2.03099e-05
2.39392e-06
9.7199e-05
1.55345e-07
-0.000118829
-0.000895049
0.00106869
-0.000173467
0.000480889
-0.000719387
0.000231558
0.000511555
-0.000768989
0.000257085
-0.000331108
0.000669215
0.000162571
-0.00109409
9.43777e-05
-0.000541513
0.000446186
0.000502188
0.000214708
-0.00071744
-0.000209404
-0.00103514
-0.000326649
0.000100294
0.00040055
0.000233333
-0.000634299
-1.73844e-05
-0.00026624
-0.000760351
0.000324385
0.000435713
-0.000339741
0.000270093
-0.000767875
0.000312449
0.000455329
0.000307072
-6.46805e-05
-0.00024239
0.000279369
-0.000296391
1.70208e-05
0.00112705
-0.000661591
-0.000472926
-0.000487422
0.00120823
-0.000724959
-0.000242582
0.000210702
0.000192345
0.000755378
-8.74698e-05
0.000664329
-0.000548836
-0.000202306
0.000658561
-0.00103006
0.000369529
-0.000270554
0.000446801
0.000205373
-0.00065217
0.000413076
-0.000486262
6.55672e-05
0.000217618
-0.000337496
0.000119876
-0.000325548
0.000308148
-0.000226748
0.000938699
-0.000712293
-8.20813e-05
0.00033999
-0.000262886
-4.20767e-05
0.000447666
-0.000198289
-0.000389459
0.000587733
-0.00024494
-6.81535e-05
0.000140409
0.000635548
-0.000775703
0.000194566
7.9538e-05
-0.000274105
1.95104e-06
2.1459e-05
0.000384178
0.000265632
-0.000650126
5.0788e-06
-5.0788e-06
0.00127401
-0.00080127
0.000878667
-0.000237201
-0.000654779
0.000997369
-0.00013821
0.000512151
-0.000121171
-0.000391058
-6.43186e-05
0.000443286
-0.000551287
0.00117469
-2.32359e-06
-7.98729e-05
7.90576e-05
-0.00111669
0.000956191
0.000155257
0.000529398
-7.9584e-05
0.000953442
-0.000839732
-0.000385946
0.000768286
-0.000382372
0.00037029
0.000422618
-0.000812879
0.000100569
-0.00038857
0.000427502
0.000585182
-0.00101567
0.000223735
9.01935e-05
0.000842735
-0.00100798
0.000164708
2.92627e-05
0.000250107
-0.000566589
0.000914627
0.00105536
-0.000298305
-0.000757823
0.00110097
-0.000925568
-0.000175814
-1.67567e-05
5.46809e-05
-4.0502e-05
-0.000786115
-0.000190037
0.000971649
0.000481806
-0.000759723
0.000277601
0.000308883
0.000807386
0.000343836
-0.000120107
1.27139e-05
-2.94559e-05
1.18111e-05
-0.000503387
0.000452673
4.56253e-05
-0.000303382
-0.000245589
-0.000979057
0.000985563
-7.20701e-06
-0.000513957
0.000109637
0.000370427
-0.000246361
-0.000472751
0.000325847
-0.000108232
0.000929979
-0.000307208
-0.000633942
-0.000873538
-0.000265184
0.000175116
6.36175e-07
1.36174e-05
-2.01029e-05
0.000719433
-0.000140646
-0.000579076
-6.81488e-05
-0.000440148
-0.000954672
0.000211779
0.000736618
0.00114424
-0.000305667
-0.000842728
-1.60688e-05
-1.54557e-06
-0.000299185
0.000135908
0.000115793
0.000631649
-7.94305e-06
-1.00041e-06
-0.000358105
9.15068e-05
0.000265837
0.000866695
0.000233585
-0.000540195
0.000476178
5.72363e-05
-0.000297307
0.000798859
-0.000564603
0.000261061
-0.000878556
-0.000101028
-3.63275e-05
1.14739e-06
3.47185e-05
0.000325119
-0.00101293
0.000498799
-0.000110861
-0.00038804
0.000600961
-0.00015417
0.000365596
0.000553637
-0.000447136
0.000343163
-0.000336059
0.000736138
0.000496423
0.000777156
9.78565e-05
-2.31065e-05
-0.000156062
0.0004656
-0.000336984
-0.000448706
-9.8164e-05
0.00101618
-0.000319005
-0.000698124
0.000348737
-0.000269666
-7.90723e-05
0.000477233
-0.000720174
0.000242669
-0.000667924
-0.000521871
0.00118009
0.000812805
-0.000482327
-0.000365686
0.000672718
0.000342374
-0.00075378
0.000463828
0.000289479
2.26391e-05
-3.02108e-05
-1.28613e-06
-0.000438152
-0.00032987
0.000210923
-0.000654775
0.000443678
-0.00027831
-0.000263644
0.000512778
0.000359951
-0.000487052
0.000108263
-0.000381704
9.41217e-05
0.000283081
-0.000377733
-0.000751007
0.000274547
-7.9982e-05
0.000131161
-0.000661265
0.000522526
1.57793e-05
-1.16236e-06
-1.47409e-05
-0.000536916
8.20413e-05
1.29449e-06
-3.5045e-06
1.33345e-06
-0.000473935
0.000726234
-0.000252503
-0.000241227
-8.90485e-05
0.000325158
-0.000196382
-0.000385168
-0.000210622
0.000250475
-7.92085e-05
8.18885e-05
0.00104629
0.000812308
-0.000837485
-0.000400499
-7.13739e-05
-0.000457681
0.000153852
0.00071625
0.000338261
-0.000349752
0.000783345
-0.000433913
-0.000833385
0.00048325
-0.000440286
3.14826e-05
-0.000242557
-0.000797747
0.000128796
0.000936118
4.59183e-05
-0.000991143
-0.000691423
-0.000122118
0.000813352
-0.000345586
0.000476405
-0.000130861
-6.12319e-05
0.00098836
0.000863155
-0.000375228
-0.000500347
4.62952e-05
-3.783e-05
-8.96755e-06
0.000295516
0.000843523
-0.000588752
0.00104496
-0.00045837
5.76297e-08
-9.05131e-06
-0.000260837
-0.000701638
0.000710292
-0.000763883
0.000438777
-9.81741e-05
8.1925e-05
-0.00011179
-2.21714e-06
-0.00054217
-0.000175005
0.000684639
5.76406e-05
0.000303642
-0.000361298
0.00078026
0.000272188
0.000579519
-5.09336e-06
-1.52846e-06
6.27761e-06
-0.000276327
0.000739757
0.000510171
-0.000188041
-0.000339792
0.000335483
-3.39404e-07
1.49358e-05
0.00102724
-0.000324965
-0.000708059
0.000321281
-0.000138778
-5.03533e-06
3.1483e-05
-3.44016e-05
-3.16331e-06
1.73343e-05
-2.16759e-05
0.000401564
-0.000345161
-6.07716e-05
-5.33469e-06
-3.11837e-05
-1.07466e-05
8.89906e-05
-2.73271e-06
1.16022e-05
-0.000378533
0.000141585
0.000236951
-0.00101412
7.5095e-05
0.000936377
-1.56631e-05
-5.9399e-05
6.17596e-05
5.07947e-05
-7.96835e-05
0.00121027
-0.000616014
-0.000594215
-0.000250279
-5.37768e-05
0.000302375
4.57537e-05
-5.00566e-05
-0.000794544
0.00071823
7.23093e-05
0.000294936
-0.0009322
-0.000683179
0.000127143
0.00111729
-0.000872026
0.000120931
-0.000693849
0.000507297
0.000362931
-0.000870442
-0.000287498
0.000959345
-0.000270168
-0.000689714
0.000575704
-0.000359731
-0.000329069
0.000337221
3.45948e-06
-8.51078e-05
7.90737e-05
-0.000292464
-0.000546728
0.000839255
0.000327501
0.000282437
-0.00061011
-0.000176549
7.87944e-05
6.91469e-05
0.000634539
0.000324216
-0.000495609
0.00115236
0.000730499
-0.00041816
0.000615641
-0.000194802
-0.000444807
8.48245e-05
-0.000140787
-7.47674e-07
1.90975e-05
0.000676111
-0.000480181
-0.000209799
-0.000232826
0.000334635
-0.000101808
-0.00100259
0.00033434
0.000667332
0.000169814
0.000789004
-0.000962703
-0.000484906
0.000189725
0.00029517
0.000131068
0.000460094
-0.000328065
7.68091e-05
-0.000321584
-8.37208e-05
2.56113e-05
0.00105566
-3.10993e-05
-0.00102964
-0.000599087
0.000255624
0.000339676
-0.00102786
0.000565968
0.000910324
-0.00029246
-0.00062787
-0.000120416
0.0011679
0.00123981
-0.00031618
-0.000931335
0.000697727
2.12905e-05
0.000442519
0.000767546
0.000704097
-0.000228404
-0.000908465
-0.000597999
0.000700039
0.000358104
0.000307422
-0.000791126
0.000253066
0.000537188
5.55895e-05
-0.000307464
-9.57304e-05
-0.000294886
0.000390585
2.66948e-05
-0.00047686
0.000449442
-0.000459053
-0.000211626
0.000670388
-0.000583311
0.000981372
-0.00032656
0.000251306
7.52545e-05
-0.00102904
-1.63332e-05
0.00104524
0.00109552
-0.000324757
-0.000774282
0.000198079
0.00103408
-0.000785414
0.000951098
-0.000387434
-0.000670382
0.00104962
0.000620365
-8.12526e-05
-0.000282774
-0.00106058
0.000134653
5.10086e-06
-0.000423412
0.000417495
0.00038561
0.000599602
-0.000986253
-0.00105295
-8.13145e-06
-0.000443018
0.000602275
-0.000821579
0.000217748
-0.000988892
-0.00013158
0.000352558
-0.000706768
4.4295e-05
0.000795428
-0.000289784
0.00126679
-0.000770945
-0.000476681
-0.000468461
0.000944361
0.000358375
-5.99146e-05
-0.00071016
0.000250795
1.27978e-06
-6.66868e-07
-0.000493304
0.00018409
0.000309195
-0.000240723
-0.000257091
-5.80012e-05
0.000313363
0.000404551
-0.000400247
-0.000117924
-7.91359e-05
-1.17413e-05
8.75966e-06
-0.000302849
0.000411671
-0.000397374
-0.000717093
0.000152595
0.00056325
-0.000117445
-0.000574186
0.000101844
-0.000991675
-0.000603397
0.00102367
-0.000792509
0.000425357
-0.000645432
-3.16312e-05
-0.000661144
0.000690614
-0.000348361
0.00121769
-0.00087449
7.22178e-05
0.000528482
-0.00060631
-8.55512e-05
7.61894e-05
0.000382129
-0.000775913
0.000920124
-3.72174e-05
-0.000903471
-4.33384e-06
5.70048e-05
-4.18598e-06
2.20834e-05
-2.70215e-05
0.000326997
-8.96246e-05
-0.000241181
0.000410592
0.000573342
-0.000986046
-0.00109323
0.000344042
0.000749135
-0.000575103
-0.000309152
0.000882913
0.0010821
-0.000482458
-0.000599511
0.000701422
0.000380588
-3.78744e-05
-0.000253629
0.000291506
-9.21107e-05
0.000683074
-0.000307873
-0.000375452
0.000313568
8.36657e-05
7.05813e-06
-1.36791e-05
4.40635e-06
-1.97861e-05
-0.000281965
-0.000895678
0.000861229
-0.000428936
-0.000723668
0.00114171
-0.000149847
0.00106222
-0.000377187
0.000729106
0.000158634
0.000832295
-0.000993448
0.000230345
-0.000324361
-8.92111e-05
0.000787008
0.000150895
-0.000166776
-0.000317993
-0.000698362
-1.5832e-06
-5.188e-05
5.13627e-05
-0.000251653
-9.23479e-05
0.000343995
-0.000326258
-0.000383343
-2.73736e-05
1.65936e-05
-0.00029002
-0.000194897
-0.000566166
-0.00010365
0.000669551
9.76083e-05
0.000158432
-0.000305713
-0.000536285
0.000602772
1.24594e-05
-3.57817e-06
-1.28931e-05
0.000560376
0.00070588
1.48841e-05
-4.32772e-06
-1.69363e-05
3.00643e-05
-4.33443e-05
0.000639916
-0.000866979
-0.000739174
0.000163048
-0.000959695
0.000175642
0.000802804
-0.000287763
-0.000767227
0.00105344
-0.000968536
0.00108876
-0.000123697
-0.000643885
2.62396e-05
0.000617614
-0.00111607
0.00103475
7.94698e-05
7.08328e-08
7.91288e-07
-2.32675e-06
-0.000232238
5.13669e-05
-5.52419e-05
-0.000308446
-0.000294568
0.000456446
0.000583882
-0.000412337
-0.000206861
-0.000664574
0.00102784
-2.34296e-06
1.006e-06
-2.51624e-05
-0.000946006
2.12504e-06
-4.47803e-05
2.92955e-05
0.000510145
0.000284971
0.000414652
-0.000156029
-0.000261827
7.3302e-05
0.000828274
0.000335008
-0.000261539
-7.34698e-05
-0.000307608
0.000252144
5.67608e-06
-5.0255e-06
-9.25083e-07
-0.000216637
0.00081766
0.00120229
-0.000468766
-0.00073977
-0.000399049
-0.000147959
2.69774e-05
-6.39154e-05
2.65234e-05
-1.8343e-05
0.000132199
-0.000155541
-0.00092782
0.000312983
0.000614439
-0.0001749
-0.000297346
0.00047225
-0.000935786
0.00103734
-0.000109438
-2.82854e-05
-0.000596608
0.000623864
-0.000716392
-0.000336667
0.000117698
0.000394381
-0.000285356
-0.000101504
0.000386984
0.000681681
-0.000470956
-0.00037708
9.21112e-05
-4.11138e-05
-0.000234698
0.000270698
0.000294495
0.00038832
-0.000330895
0.000758776
-0.00097639
0.000215614
-0.000752647
0.00103064
-7.67282e-05
-0.000281915
0.000546309
0.000193166
-0.000742834
0.000953103
-0.000795486
-1.36256e-05
6.8626e-05
-6.68331e-05
-0.000297455
-0.000722156
0.00024426
-0.000525891
0.000263324
0.000181099
0.000365172
0.0004012
-0.000172891
0.000378337
-0.000258747
-0.000838979
-0.000251909
0.00108586
4.09128e-05
-5.54934e-05
-1.16863e-06
-2.15399e-05
-3.50102e-05
5.39744e-05
-0.000420388
-0.000190706
0.000610843
-0.000137491
7.97679e-05
3.00964e-05
-7.50773e-06
-3.24576e-05
-2.30336e-05
2.85117e-05
-5.90098e-06
0.000571803
0.000625712
0.000728215
-0.000185128
-0.000944751
0.000142786
0.000592491
0.000324062
-0.000257408
-1.21601e-06
1.07788e-06
-2.25274e-07
-0.000422013
0.000826862
-0.000406106
7.71559e-06
0.000411118
-0.000418951
-0.000389783
3.16863e-05
0.000358104
0.000343141
-0.000820445
-0.000204392
-0.000138546
0.000219741
-0.000823651
-0.000370656
0.000195759
-0.000249706
-8.38456e-05
-0.000294122
0.000375503
8.12024e-05
-0.000336664
0.00131088
-0.000491102
-0.000820818
-0.000267921
4.11234e-07
-1.57869e-06
1.18439e-07
-0.000225379
-0.000387361
0.000612723
-0.00124154
0.000931467
0.000266465
-0.000597801
0.000377636
-0.000464634
4.46562e-05
-0.000586223
0.000591154
-0.000620461
-0.000116833
-0.000389483
-0.000913127
0.000725233
0.000174936
-3.44247e-05
0.000121238
-0.00013534
1.47281e-07
4.17961e-06
-6.11277e-06
0.000939621
-0.000585528
0.000185334
-5.75423e-05
-0.000565514
-0.000130743
0.000695949
-6.42796e-05
-1.92729e-06
6.30733e-05
-0.000903543
0.0010593
0.000334557
-0.00105116
4.03264e-07
-5.58758e-06
-6.70249e-05
-1.43131e-07
-6.75561e-07
2.72796e-05
-8.55025e-05
-0.000809353
0.000892569
-0.000105205
-0.000776812
0.000878409
-0.00108767
-3.02143e-05
0.000889421
-0.000804038
0.000723813
0.000118547
-0.000638864
-0.000392535
0.00102949
-0.000230129
0.000987541
0.000552657
-0.000535065
-2.46348e-05
7.40943e-05
0.000249016
-7.22761e-05
0.00105875
-0.000158358
-0.000909613
7.45459e-05
0.000974813
4.93407e-05
-0.000338738
0.0002894
-0.000619472
0.000233517
0.000338078
8.13309e-05
0.000551168
0.00027445
0.00074655
0.000357754
-0.000556054
1.21857e-05
-6.64803e-05
-1.64515e-05
1.72658e-07
0.000137457
0.000198159
2.46037e-05
-4.82608e-05
-0.000732437
0.000557526
0.000164206
6.88038e-05
0.000475764
-0.00110451
0.000935517
0.000162232
0.000156222
-0.000717579
0.000287868
-5.00442e-05
0.000924544
-1.81313e-05
-2.46113e-06
-0.000562368
-0.000339633
0.000901272
-0.000485063
9.5288e-05
-0.00016372
-0.000782192
0.000939246
-0.000583923
0.00051216
0.000294803
0.00061954
-0.000928664
3.14634e-06
1.76249e-05
-0.000786456
0.000927582
-0.000161229
-0.000126542
-0.000137051
-0.000871724
0.00100559
-7.73659e-05
0.000323889
-0.000248031
-0.000395372
-0.000605339
0.000995542
-0.000916417
-0.000161259
0.00107696
-0.000562042
0.00084318
-0.000543208
-0.000248726
7.06756e-05
-2.46903e-05
8.62347e-06
1.20422e-05
0.000288912
-0.000625359
-8.64748e-06
8.18548e-06
-6.02466e-06
4.47702e-06
-0.00110922
0.000917065
0.00019181
-5.22165e-05
2.93579e-05
-0.00101233
0.000222703
0.000916088
-0.000531615
1.40197e-05
-6.98278e-05
4.3733e-05
-0.000892473
0.000247933
0.000622477
9.21793e-05
0.000281392
-0.000225089
-0.000227594
-0.000862431
0.00108509
5.45031e-05
-0.000284983
0.000228709
-7.47702e-06
3.05493e-05
-3.04407e-05
-3.69524e-05
2.69657e-05
0.000612767
0.000395831
0.00102696
-0.000260024
-0.000770272
0.000686457
-0.000794985
0.000221367
0.000643845
-0.000999306
8.1392e-05
0.000281113
0.000112541
0.000477471
-0.000359749
-0.000135253
-0.000145025
-0.000233505
7.7821e-06
-4.78179e-05
3.77037e-05
-1.79334e-05
1.26791e-05
-0.000795495
-8.05699e-05
0.000859141
-9.03204e-05
-0.000291621
0.000379178
-0.000724758
-0.000283764
0.000317166
0.000536268
-0.000854096
-0.000459077
0.000534405
-8.10213e-05
0.000759139
-0.00056426
-0.000668888
0.000836062
-0.000167099
0.000240375
0.0010681
0.000389663
-0.000506227
8.41549e-05
-0.000713953
-8.444e-05
0.00104894
-0.000415987
-0.000635602
6.53405e-05
0.000898935
-0.000394993
0.000145642
0.000794645
-0.000945903
-0.000766726
0.000226383
0.000526473
0.000387052
-0.000480856
-0.000321331
-0.000418129
0.000738843
2.56826e-05
-4.02301e-05
-0.00023963
-0.000540129
-4.38765e-05
5.40368e-05
-0.000644453
0.000411871
0.000216951
-0.000931025
0.000801132
0.000127774
-0.00121884
0.0010214
0.000195311
-3.79451e-07
1.6079e-05
-0.000157603
-0.000790356
0.000931084
0.00132692
-0.000923474
-0.000409999
5.39414e-05
-0.000863296
0.000372205
-0.000104428
-0.0002869
9.16536e-05
-0.000997445
-0.00039861
-3.10628e-05
-0.000381615
-0.000427871
0.000808807
-0.000166047
-0.000130344
0.000255545
-0.000206203
3.39633e-07
7.95489e-06
-3.12292e-06
-1.1318e-06
2.71882e-06
-0.00108346
-0.000382421
-1.22929e-05
0.000394369
4.05117e-05
-3.49874e-05
0.000288629
-0.000234576
-0.000939187
-0.000100797
0.00102572
5.69864e-05
0.000815817
-0.000340951
-0.000475995
0.00016852
-0.000108141
-0.000869465
-0.0006066
-8.3179e-05
-0.000223451
-0.000238655
0.000443907
-7.00408e-05
0.000592768
-0.0001862
-0.000365457
0.000653967
-0.000637367
0.000727099
-9.01225e-05
-0.000740527
0.000945475
-0.000469844
0.000292061
0.000523358
-3.02368e-06
-1.39411e-05
-0.000679139
0.000123373
-0.000689068
-2.11031e-05
-0.000930094
0.000557466
7.08054e-05
-0.000633876
-0.000459721
0.000523454
0.000545211
4.88836e-06
1.33207e-07
-0.000144792
0.000243637
0.000781284
0.00101437
0.000156763
-6.64005e-05
7.0567e-05
-7.83693e-06
-0.000444119
0.000318626
0.000125474
0.000252564
-0.000290436
0.000272309
0.000821757
-0.000100321
-0.000442674
-0.000211392
0.000846843
0.000213512
0.000832535
0.00074102
-0.000940534
0.00019818
0.0011799
-0.000349592
-0.000830761
-0.000666643
0.000586222
8.03447e-05
-0.00111334
0.000856729
0.000245517
0.000584337
0.000140858
-0.000725336
1.68431e-05
-8.28256e-06
0.000349128
-0.000731366
-0.000265658
-1.70251e-05
7.17167e-05
-6.69064e-05
0.000917204
-0.000147178
-0.000771437
0.000696826
-0.00107148
0.00129634
-0.000695959
-0.00060312
-0.000964489
-0.000145506
-5.4087e-05
0.00110114
-0.000909879
6.6316e-05
-0.000717661
0.00114135
0.000156668
0.000674714
-0.000832197
0.000701985
-0.000173424
-0.000537479
-0.000525671
0.000852575
-0.00092229
0.000959226
0.000933753
-0.000554063
-0.000381126
-6.14103e-05
5.52089e-05
3.10215e-06
-1.27252e-05
1.70587e-05
-4.35033e-06
-0.000809563
0.000602448
-0.000359805
-0.000296397
0.000330025
9.72575e-05
0.000271605
-0.000388371
-0.000938954
-7.90679e-06
-0.000385093
0.000392234
-0.000544388
0.000177073
-0.000564279
0.000815158
-9.73962e-05
-0.000734363
-0.00106798
0.000115227
0.000943084
-0.000934176
0.000398048
0.000535179
-0.00102216
-2.93552e-05
0.00104039
-0.000383019
-1.89301e-08
-0.000927657
1.72507e-05
0.000908195
-0.000185686
-4.46943e-05
-0.000938617
0.0009776
0.000686498
0.000205566
-0.000898736
4.29381e-05
9.42634e-06
0.000211487
-8.50444e-06
-5.5597e-05
0.000460865
-0.000237249
-0.000951638
-0.000230268
0.000511471
-0.000281206
-1.4495e-05
-1.35552e-05
0.000946267
-0.000163476
0.000675499
0.000618038
0.000442812
-0.000747548
0.00030476
-0.000861181
-6.76715e-05
0.000926183
0.00101005
-0.000179726
-0.000366643
0.000162268
0.000204324
-5.69752e-06
5.86309e-06
-3.373e-06
0.000402982
-0.000411714
-3.22657e-05
-0.000111922
0.000132557
0.000572514
0.00060658
-8.34555e-05
-0.000946118
0.000476363
0.000492605
-0.000975904
0.000306549
-0.000443972
0.000137401
-4.00852e-05
0.000444058
0.000528288
0.00107264
-0.000369614
-0.000711463
-0.00104207
0.00044228
-8.42322e-05
-0.000368253
3.4102e-05
0.000761113
-0.000261262
0.000352053
-0.000165438
0.000364332
-0.000198894
0.00050362
-4.78761e-05
-0.000461815
0.000349455
8.25237e-05
-0.000147819
0.000104229
-0.000797148
0.000153231
0.000870692
-0.000554288
0.000142545
0.00078379
-0.000931198
-0.000114011
0.000382767
-0.000284971
-0.00068542
-0.000109171
0.000790627
-0.000452025
0.000921988
-0.00113925
-0.000732271
-7.0296e-05
0.000441833
-8.63503e-05
-0.000725765
0.00117971
-0.000309422
-0.000870243
2.94064e-05
1.6389e-05
5.50575e-05
0.00038911
-0.000446281
-0.00104936
0.000735996
0.000296037
0.00109104
-0.000671468
0.000317066
9.01606e-05
5.38242e-05
0.000233459
-0.000291967
0.00067485
-0.000892838
-0.000943381
1.36811e-05
-0.000699111
-0.000524131
0.000139428
0.00034521
-0.000417986
0.000103154
0.000314818
1.67346e-05
0.000115964
-0.000163612
-0.000854955
0.000767917
-0.00108979
0.000832929
-0.000422653
0.000771118
-2.54531e-06
7.56336e-06
-0.00013842
0.000815197
0.000370888
-0.000254391
-0.00011705
-0.000755643
6.64913e-05
0.000980454
-0.000240835
-0.00042609
0.000439337
-3.55375e-05
-0.000429562
-0.000550798
0.00096408
0.000879346
-0.000533637
-0.000261799
0.000184466
-0.000425741
0.000484104
1.25749e-05
-0.000198163
0.000703095
-0.000533915
0.00117515
-0.000386122
-0.000797358
0.00026534
0.000798619
-0.000667239
5.45046e-05
-0.000955151
0.000771414
0.000164066
-9.58551e-05
-0.000248353
-0.000591668
-0.000246413
-0.000666209
0.000127673
-0.000105873
0.000468842
-0.0003796
-0.00053328
-0.000121624
0.000861649
-0.000386891
-0.00047542
0.000449729
0.000280666
-0.000550169
0.000442295
0.000107175
-0.000364069
0.000198633
0.000800165
0.000100406
-0.000921327
-0.000821209
0.000819477
-0.00117312
-0.000527888
0.000473517
-0.000477159
-4.00956e-05
0.000490378
1.70618e-05
6.73577e-05
-9.65121e-05
-4.76978e-05
-1.17053e-05
5.06309e-05
0.000341855
0.000753731
-0.000190034
0.000751089
0.00047174
-0.000464156
0.000498889
0.000680398
-3.6766e-05
-0.000177775
0.000212257
-0.000872639
0.000713395
0.000143745
0.000101754
-0.000742171
-0.00061112
0.00101958
-0.000998766
0.000668385
0.000329546
-3.46544e-06
1.11157e-05
-0.000209416
0.00092546
-0.000722901
0.000281444
-0.000232305
-0.000285228
-0.000100157
0.00038538
0.000870749
-0.00104789
0.000176218
0.00108847
-5.73079e-05
-5.12364e-05
8.52172e-05
-0.000387216
0.000322788
-0.000630892
0.000391129
-0.000337987
-9.09675e-05
0.000817915
0.000253623
-0.00107233
-0.000924265
-0.000168707
0.00108536
2.68238e-06
-4.08851e-05
4.26542e-07
-1.87328e-05
-0.000413424
0.000349069
-0.000954092
0.00103382
-8.70752e-05
-0.000110431
0.000107409
-1.36968e-06
-0.00088914
0.00060241
0.000286188
0.0010454
-0.00083654
0.00065091
0.000165425
-2.60066e-05
2.47205e-05
-0.00102382
0.000202108
0.000819761
0.000617508
-0.000521898
-0.000893459
0.000750482
0.000124147
-0.000604992
-5.87463e-05
0.000627832
0.000926156
-0.000146714
-0.000790305
0.00119589
-0.000738282
-0.000475499
0.00103979
-0.00032091
-0.00072396
0.000354608
0.000664612
-0.00102105
0.000587398
0.000200672
-0.000803173
-0.000976308
1.59867e-05
-0.00112299
0.000945114
0.000177432
9.38395e-05
-0.000379072
0.000886888
-0.000471946
-0.000375701
0.00029843
-0.000460908
0.000355661
0.000105191
0.000802248
0.000299934
-0.00110766
-3.47278e-05
-0.000477621
0.000507151
-4.11987e-05
-0.000492825
-1.69529e-06
-2.70285e-07
-0.00110125
0.000177458
0.000918471
0.00105569
-0.000258745
-3.03571e-05
-8.02569e-06
3.03496e-05
-0.00110979
0.000941809
0.000243746
0.000791291
-0.00104288
0.000150026
0.0008842
0.000454972
-0.000148458
-0.00095386
0.000362844
-1.25391e-06
3.52192e-05
-4.23142e-05
-0.00087157
0.00100467
-0.000142617
-0.00107013
0.000843765
0.000225699
-0.000814772
-9.81076e-05
4.66006e-06
8.99685e-05
0.000333308
0.000409453
-0.000489014
0.000553197
-9.55246e-05
0.000901937
-0.00031182
-0.000143042
0.000816252
-0.000277374
-0.000641574
0.000899412
-0.000464602
3.46575e-05
0.00040998
0.000465226
-0.000101404
-0.000374143
-0.000256843
-0.000900105
-0.000574298
0.000739181
-0.000165453
3.87839e-05
-2.12158e-05
-0.000469603
-8.11347e-05
-0.000283266
-0.000394206
0.000688432
-0.000310118
0.00112726
0.00024788
0.000919736
-0.000236429
-0.000844687
0.00107739
-7.15358e-05
0.000589405
-0.0010816
-0.000935372
-0.000924652
0.000135243
0.000778648
0.000484908
-0.000540439
5.5404e-05
-0.000703191
0.000229062
-0.000659094
-0.000391215
0.00104323
0.000192987
-0.000962176
0.000768554
5.77803e-05
-1.84696e-05
2.51671e-05
-1.11575e-05
0.000347345
0.000467253
-0.00010574
4.03219e-06
0.000108995
-0.000197133
-0.000735976
-0.00131211
0.000404993
0.000899848
-0.000116655
-8.03597e-05
5.85881e-05
-0.000274824
0.000214368
0.000451177
-8.18963e-07
-0.000467079
0.000176286
0.000517005
0.000573606
7.72926e-05
-0.000279558
-0.000262872
-0.000549694
3.93967e-05
-0.000490126
7.01994e-06
0.000109348
1.84263e-05
-0.000898711
-0.000455538
0.000479054
-2.86839e-05
-0.000561709
0.000914622
-0.000484015
-0.000395021
0.000654579
-0.000122352
-0.000533085
0.000225051
0.000500962
-0.000718394
0.000587322
-0.000705645
4.14192e-05
1.84944e-05
-6.28166e-05
0.000564103
-0.000859184
1.9008e-06
-0.000668567
4.22813e-05
-9.92385e-06
-4.88169e-05
0.00067025
6.36207e-05
-0.000750218
-0.000289105
-0.000588314
0.00087498
4.54305e-05
0.000231252
-0.000397535
0.000968996
-0.000936123
0.00102678
-9.82266e-05
-0.000915285
0.000997662
-9.25284e-05
-0.00103085
0.000831974
0.000198032
-0.000762303
0.000897751
-0.000155824
-0.000524248
0.000307758
-1.88283e-05
5.73844e-05
-0.000217298
0.000789754
-0.000462907
0.00125953
-0.000796939
0.00110971
0.000305538
-8.24476e-05
-0.000253199
-0.000816564
0.000272848
8.00012e-05
-0.00123386
0.000376969
0.00083821
0.000846398
0.000235589
-0.00108527
0.000124433
-0.000362829
-0.000931319
0.000639602
-0.000622737
-9.50212e-05
1.91267e-05
-1.77928e-05
-4.10218e-06
-0.000785139
0.000927967
-0.000143571
-9.6847e-06
0.000595781
0.000773747
0.000144253
0.000199676
0.000996845
-0.000425462
-0.000404641
-0.000915337
-0.000814753
0.00010921
0.000705147
0.000116468
-3.66265e-05
-0.000220107
-0.000378162
0.000575225
-0.00103482
0.000863051
0.000168611
-0.000239683
8.83902e-05
-0.00066322
-0.0008986
0.00107936
-0.000185262
-0.000210904
0.000267625
-0.000210965
-7.16718e-05
0.000282635
-0.000861021
0.00037641
-3.57602e-05
5.67352e-06
2.7893e-05
6.35804e-05
8.54203e-05
-2.60816e-05
-0.000612996
0.000387602
-0.00020664
0.000429402
-8.01493e-05
0.000463407
-0.00108084
0.000136785
-0.000204278
-0.000179107
-0.000761771
0.00021512
0.00053123
0.000773513
-0.000330705
0.000220864
-0.000506821
-0.0001608
-0.000194221
-0.000388118
1.62568e-05
-7.23151e-05
-4.14175e-05
4.5868e-05
-6.1473e-06
6.27672e-05
-0.000866546
0.000752825
0.000592072
-0.000990831
-0.000934186
0.000901142
-0.000475972
0.00092355
4.03205e-05
0.000108932
-0.000178833
-0.000101203
-0.000436581
6.22497e-05
-0.000846823
-0.000865815
0.000667198
0.00017723
-0.000341218
-0.000119743
-0.000640348
-1.77394e-05
0.000641714
-0.000270999
0.000972828
-0.000704778
0.000558075
-0.000450847
-6.63822e-05
-0.000586314
-0.000617219
0.000373489
-0.000231196
-0.000544235
0.000418577
0.00044246
8.3186e-05
-0.000985973
-0.000611585
0.0010481
-0.000438304
-0.000362243
0.000882038
-0.000521124
0.00104768
-0.00024038
-0.000815228
-0.0008176
-2.80022e-05
0.000824615
0.000153233
0.000626554
-0.000781371
0.000564978