/*--------------------------------*- C++ -*----------------------------------*\
| =========                 |                                                 |
| \\      /  F ield         | OpenFOAM: The Open Source CFD Toolbox           |
|  \\    /   O peration     | Version:  v2012                                 |
|   \\  /    A nd           | Website:  www.openfoam.com                      |
|    \\/     M anipulation  |                                                 |
\*---------------------------------------------------------------------------*/
FoamFile
{
    version     2.0;
    format      ascii;
    class       volVectorField;
    location    "800";
    object      cellDisplacement;
}
// * * * * * * * * * * * * * * * * * * * * * * * * * * * * * * * * * * * * * //

dimensions      [0 1 0 0 0 0 0];


internalField   nonuniform List<vector> 
18355
(
(0 7.74923e-06 0)
(0 2.0513e-05 0)
(0 -6.42084e-06 0)
(0 1.78151e-05 0)
(0 -0.000103973 0)
(0 4.76597e-06 0)
(0 -1.71141e-06 0)
(0 9.25525e-06 0)
(0 3.8263e-06 0)
(0 2.05144e-05 0)
(0 -9.56573e-05 0)
(0 2.05169e-05 0)
(0 1.4921e-05 0)
(0 -2.62885e-05 0)
(0 -1.20197e-05 0)
(0 6.9634e-06 0)
(0 2.05154e-05 0)
(0 -2.74078e-07 0)
(0 -3.08582e-06 0)
(0 1.97407e-05 0)
(0 1.03664e-05 0)
(0 7.12046e-07 0)
(0 2.04836e-05 0)
(0 -0.000107776 0)
(0 -9.19308e-05 0)
(0 1.10054e-05 0)
(0 -9.20701e-06 0)
(0 3.62553e-06 0)
(0 2.03662e-05 0)
(0 -7.3459e-06 0)
(0 -0.00013607 0)
(0 -9.28232e-05 0)
(0 1.06059e-06 0)
(0 1.65831e-05 0)
(0 1.55953e-05 0)
(0 8.12706e-06 0)
(0 -1.6026e-06 0)
(0 1.96856e-05 0)
(0 3.36271e-06 0)
(0 -9.31346e-05 0)
(0 -2.60455e-05 0)
(0 1.9648e-05 0)
(0 -6.53926e-06 0)
(0 2.05148e-05 0)
(0 3.54667e-06 0)
(0 1.97507e-05 0)
(0 1.20528e-05 0)
(0 7.07984e-06 0)
(0 1.07124e-05 0)
(0 -2.0729e-06 0)
(0 -3.38523e-05 0)
(0 -1.05999e-05 0)
(0 2.86147e-06 0)
(0 2.04397e-05 0)
(0 1.61646e-05 0)
(0 1.24559e-05 0)
(0 -9.53949e-08 0)
(0 -1.12742e-05 0)
(0 2.05154e-05 0)
(0 1.86915e-05 0)
(0 -1.52967e-06 0)
(0 4.12249e-06 0)
(0 -3.08849e-07 0)
(0 1.713e-05 0)
(0 2.05161e-05 0)
(0 6.79998e-06 0)
(0 2.05121e-05 0)
(0 1.52068e-05 0)
(0 -7.56327e-06 0)
(0 4.81866e-07 0)
(0 1.51203e-05 0)
(0 9.26017e-06 0)
(0 1.88692e-05 0)
(0 1.17079e-06 0)
(0 9.51744e-06 0)
(0 -3.96276e-06 0)
(0 2.01585e-05 0)
(0 -8.59227e-05 0)
(0 -6.54934e-05 0)
(0 -1.06943e-05 0)
(0 1.52003e-06 0)
(0 2.02871e-05 0)
(0 9.95733e-06 0)
(0 1.6812e-05 0)
(0 8.87865e-06 0)
(0 1.46076e-05 0)
(0 2.04854e-05 0)
(0 1.96266e-05 0)
(0 2.04063e-05 0)
(0 2.04456e-05 0)
(0 1.82747e-05 0)
(0 3.79684e-06 0)
(0 2.13949e-05 0)
(0 -5.44217e-05 0)
(0 2.05151e-05 0)
(0 2.04915e-05 0)
(0 -2.8673e-05 0)
(0 -4.29583e-05 0)
(0 2.04589e-05 0)
(0 2.05153e-05 0)
(0 2.05094e-05 0)
(0 2.05156e-05 0)
(0 1.49131e-05 0)
(0 1.96166e-05 0)
(0 -0.000118168 0)
(0 1.26633e-05 0)
(0 2.05155e-05 0)
(0 1.97255e-05 0)
(0 -6.13733e-06 0)
(0 2.04136e-05 0)
(0 -6.67548e-06 0)
(0 3.10828e-06 0)
(0 7.15397e-06 0)
(0 3.61382e-06 0)
(0 2.0453e-05 0)
(0 1.69771e-05 0)
(0 2.05162e-05 0)
(0 2.01613e-05 0)
(0 2.05149e-05 0)
(0 1.51298e-05 0)
(0 2.0513e-05 0)
(0 2.01555e-05 0)
(0 -8.88884e-05 0)
(0 1.53332e-05 0)
(0 -2.74545e-05 0)
(0 1.98144e-05 0)
(0 -1.10871e-05 0)
(0 6.54075e-06 0)
(0 2.03428e-05 0)
(0 -4.76109e-05 0)
(0 -3.0464e-05 0)
(0 1.98374e-05 0)
(0 4.48767e-08 0)
(0 -4.52952e-05 0)
(0 1.78543e-05 0)
(0 6.18343e-06 0)
(0 -1.4277e-05 0)
(0 -0.000100063 0)
(0 -1.64974e-05 0)
(0 1.79975e-05 0)
(0 2.05081e-05 0)
(0 2.04666e-05 0)
(0 1.92672e-06 0)
(0 -7.00721e-06 0)
(0 2.04234e-05 0)
(0 -5.9826e-07 0)
(0 1.02417e-05 0)
(0 2.04795e-05 0)
(0 -4.6034e-05 0)
(0 2.04746e-05 0)
(0 -8.59443e-05 0)
(0 1.96836e-07 0)
(0 1.53196e-05 0)
(0 2.05148e-05 0)
(0 -1.83129e-06 0)
(0 3.62735e-06 0)
(0 1.97906e-05 0)
(0 2.05147e-05 0)
(0 4.14379e-06 0)
(0 6.11395e-06 0)
(0 1.01388e-05 0)
(0 -7.4812e-07 0)
(0 1.39348e-05 0)
(0 -4.57836e-05 0)
(0 1.32482e-05 0)
(0 2.0503e-05 0)
(0 2.0488e-05 0)
(0 1.11007e-05 0)
(0 1.82223e-05 0)
(0 -7.05565e-10 0)
(0 1.92341e-05 0)
(0 2.04987e-05 0)
(0 -7.63041e-05 0)
(0 -8.53575e-05 0)
(0 6.67148e-06 0)
(0 2.05138e-05 0)
(0 -2.00306e-05 0)
(0 1.77958e-05 0)
(0 2.03123e-05 0)
(0 2.05004e-05 0)
(0 1.97265e-05 0)
(0 1.8185e-05 0)
(0 -2.43591e-05 0)
(0 -7.79872e-06 0)
(0 1.55893e-05 0)
(0 2.05127e-05 0)
(0 2.04552e-05 0)
(0 1.7088e-05 0)
(0 4.79107e-06 0)
(0 2.05158e-05 0)
(0 -1.54832e-06 0)
(0 -6.61066e-06 0)
(0 -4.7936e-05 0)
(0 1.967e-05 0)
(0 1.84828e-05 0)
(0 1.74593e-06 0)
(0 1.99314e-05 0)
(0 -2.61327e-05 0)
(0 -8.62196e-06 0)
(0 -7.91358e-05 0)
(0 -4.25631e-05 0)
(0 7.49822e-06 0)
(0 2.04995e-05 0)
(0 2.04684e-05 0)
(0 2.0515e-05 0)
(0 1.19503e-05 0)
(0 2.0516e-05 0)
(0 2.05047e-05 0)
(0 2.05003e-05 0)
(0 -9.93329e-06 0)
(0 -1.33945e-05 0)
(0 -8.5387e-05 0)
(0 1.96176e-05 0)
(0 1.58324e-06 0)
(0 1.25965e-06 0)
(0 2.02556e-05 0)
(0 1.766e-05 0)
(0 1.97385e-05 0)
(0 7.17353e-06 0)
(0 -4.65796e-05 0)
(0 2.01396e-05 0)
(0 -1.39942e-05 0)
(0 1.66175e-05 0)
(0 -1.46448e-05 0)
(0 2.04942e-05 0)
(0 -5.01643e-07 0)
(0 2.05097e-05 0)
(0 2.05111e-05 0)
(0 2.01382e-05 0)
(0 -1.27895e-05 0)
(0 3.31087e-06 0)
(0 -6.89032e-05 0)
(0 7.58232e-06 0)
(0 2.05072e-05 0)
(0 5.66734e-09 0)
(0 1.60534e-05 0)
(0 1.90608e-05 0)
(0 1.98974e-05 0)
(0 1.88382e-05 0)
(0 2.05151e-05 0)
(0 -7.34204e-06 0)
(0 1.83521e-05 0)
(0 -0.000140324 0)
(0 9.13701e-08 0)
(0 7.15558e-08 0)
(0 2.05138e-05 0)
(0 2.0221e-05 0)
(0 2.05154e-05 0)
(0 -3.18873e-06 0)
(0 9.73128e-06 0)
(0 -4.06717e-05 0)
(0 2.05147e-05 0)
(0 -2.63741e-05 0)
(0 2.04958e-05 0)
(0 -6.60257e-07 0)
(0 2.05193e-05 0)
(0 1.76123e-05 0)
(0 6.59776e-06 0)
(0 -4.39128e-06 0)
(0 1.18221e-05 0)
(0 6.47834e-06 0)
(0 1.56004e-05 0)
(0 2.04947e-05 0)
(0 1.1662e-06 0)
(0 3.20596e-06 0)
(0 3.37332e-06 0)
(0 4.08447e-06 0)
(0 1.84614e-05 0)
(0 1.91327e-05 0)
(0 2.00122e-05 0)
(0 4.34654e-06 0)
(0 2.04476e-05 0)
(0 1.74126e-05 0)
(0 1.22564e-05 0)
(0 -2.15588e-05 0)
(0 1.99321e-05 0)
(0 -1.11495e-05 0)
(0 -1.60156e-05 0)
(0 2.04968e-05 0)
(0 9.48805e-06 0)
(0 -4.24241e-06 0)
(0 1.29828e-05 0)
(0 -5.18476e-06 0)
(0 2.05098e-05 0)
(0 -2.79382e-05 0)
(0 7.9719e-06 0)
(0 8.92535e-06 0)
(0 1.15411e-05 0)
(0 2.05155e-05 0)
(0 -8.98332e-05 0)
(0 2.0958e-05 0)
(0 -2.61289e-05 0)
(0 1.34407e-05 0)
(0 2.04979e-05 0)
(0 4.25394e-06 0)
(0 1.24436e-06 0)
(0 1.79291e-05 0)
(0 1.5107e-05 0)
(0 -3.29683e-06 0)
(0 2.0358e-05 0)
(0 -1.50779e-05 0)
(0 1.52517e-05 0)
(0 1.30528e-06 0)
(0 1.68522e-06 0)
(0 2.03279e-05 0)
(0 1.38985e-05 0)
(0 1.37591e-05 0)
(0 1.3872e-05 0)
(0 -4.39482e-05 0)
(0 1.98276e-05 0)
(0 -0.000125793 0)
(0 -2.96655e-06 0)
(0 2.01849e-05 0)
(0 -6.66829e-06 0)
(0 1.85193e-05 0)
(0 1.96396e-05 0)
(0 1.98508e-05 0)
(0 1.2924e-05 0)
(0 1.84329e-05 0)
(0 2.05145e-05 0)
(0 2.05002e-05 0)
(0 -6.71617e-06 0)
(0 1.35037e-05 0)
(0 2.05149e-05 0)
(0 -0.00010772 0)
(0 1.88556e-05 0)
(0 -7.64343e-05 0)
(0 1.53551e-05 0)
(0 1.86477e-05 0)
(0 -3.65596e-05 0)
(0 2.05076e-05 0)
(0 -3.1341e-06 0)
(0 1.81133e-05 0)
(0 1.27882e-05 0)
(0 -3.96378e-06 0)
(0 2.05169e-05 0)
(0 2.67787e-06 0)
(0 2.05053e-05 0)
(0 -1.46557e-06 0)
(0 -1.66515e-05 0)
(0 1.1763e-05 0)
(0 4.38457e-06 0)
(0 1.97421e-05 0)
(0 2.04249e-05 0)
(0 1.95629e-05 0)
(0 -1.15802e-06 0)
(0 1.08775e-06 0)
(0 2.0492e-05 0)
(0 1.93875e-05 0)
(0 2.18166e-05 0)
(0 -5.56804e-07 0)
(0 1.42006e-05 0)
(0 1.55976e-05 0)
(0 2.05146e-05 0)
(0 2.04839e-05 0)
(0 -5.47409e-06 0)
(0 -3.39688e-05 0)
(0 2.05155e-05 0)
(0 -6.54869e-06 0)
(0 -4.51814e-07 0)
(0 1.81171e-05 0)
(0 -1.12416e-05 0)
(0 -6.0176e-05 0)
(0 2.05112e-05 0)
(0 2.31895e-06 0)
(0 1.84683e-05 0)
(0 2.01852e-05 0)
(0 2.05151e-05 0)
(0 2.28493e-05 0)
(0 -9.63747e-06 0)
(0 -1.77939e-05 0)
(0 -2.33313e-05 0)
(0 1.94607e-05 0)
(0 -2.4423e-05 0)
(0 1.18633e-05 0)
(0 -1.79786e-05 0)
(0 2.71121e-06 0)
(0 -4.56891e-06 0)
(0 3.47485e-06 0)
(0 -5.91994e-05 0)
(0 -5.61602e-06 0)
(0 -5.43665e-05 0)
(0 -5.5919e-05 0)
(0 5.67222e-06 0)
(0 2.01323e-05 0)
(0 2.04126e-05 0)
(0 -1.5463e-05 0)
(0 1.99077e-05 0)
(0 1.62938e-05 0)
(0 2.03731e-05 0)
(0 -1.55004e-05 0)
(0 1.44345e-05 0)
(0 6.98256e-07 0)
(0 1.98465e-05 0)
(0 -2.42792e-06 0)
(0 1.52318e-05 0)
(0 1.32936e-05 0)
(0 9.44021e-06 0)
(0 2.04464e-05 0)
(0 -1.02305e-05 0)
(0 1.84981e-06 0)
(0 2.87748e-06 0)
(0 1.14651e-05 0)
(0 -6.05946e-06 0)
(0 -0.000111911 0)
(0 2.05046e-05 0)
(0 1.00302e-06 0)
(0 -1.06965e-05 0)
(0 2.05144e-05 0)
(0 -3.12483e-06 0)
(0 2.05153e-05 0)
(0 2.0515e-05 0)
(0 1.80434e-05 0)
(0 9.62401e-06 0)
(0 -0.000121925 0)
(0 2.05146e-05 0)
(0 1.10802e-05 0)
(0 -7.59406e-06 0)
(0 2.05166e-05 0)
(0 -1.22888e-06 0)
(0 -7.0247e-05 0)
(0 2.05154e-05 0)
(0 1.22391e-06 0)
(0 2.05161e-05 0)
(0 -2.11446e-05 0)
(0 -1.39521e-05 0)
(0 2.0515e-05 0)
(0 3.70192e-07 0)
(0 -6.80876e-06 0)
(0 2.00674e-05 0)
(0 3.87138e-06 0)
(0 1.91295e-05 0)
(0 1.9615e-05 0)
(0 -1.89801e-05 0)
(0 -7.16646e-06 0)
(0 -9.45801e-07 0)
(0 1.91223e-05 0)
(0 1.77874e-05 0)
(0 -2.77676e-06 0)
(0 2.56842e-06 0)
(0 1.63208e-06 0)
(0 1.86711e-05 0)
(0 2.05159e-05 0)
(0 1.11342e-05 0)
(0 -1.75548e-06 0)
(0 3.7582e-06 0)
(0 -1.6028e-05 0)
(0 1.8436e-05 0)
(0 2.04928e-05 0)
(0 2.0519e-05 0)
(0 2.00014e-05 0)
(0 1.8822e-05 0)
(0 1.85403e-05 0)
(0 2.05141e-05 0)
(0 -9.4144e-05 0)
(0 -3.86024e-06 0)
(0 -2.62046e-05 0)
(0 -1.576e-05 0)
(0 1.94023e-05 0)
(0 -1.35282e-05 0)
(0 1.52297e-06 0)
(0 2.05154e-05 0)
(0 1.87601e-05 0)
(0 1.09993e-05 0)
(0 2.04274e-05 0)
(0 1.89939e-05 0)
(0 2.05143e-05 0)
(0 -6.58555e-06 0)
(0 -5.85131e-05 0)
(0 -7.91403e-06 0)
(0 3.55684e-06 0)
(0 2.10925e-06 0)
(0 3.03941e-06 0)
(0 -1.52456e-05 0)
(0 2.04167e-05 0)
(0 -7.14659e-06 0)
(0 -2.08291e-05 0)
(0 2.01013e-05 0)
(0 1.85436e-05 0)
(0 -5.68863e-06 0)
(0 -8.00567e-05 0)
(0 1.89926e-05 0)
(0 2.05027e-05 0)
(0 6.31797e-06 0)
(0 -3.32171e-05 0)
(0 1.97466e-05 0)
(0 7.11581e-06 0)
(0 2.03551e-05 0)
(0 -7.62844e-05 0)
(0 -2.203e-05 0)
(0 2.05157e-05 0)
(0 1.85484e-05 0)
(0 7.713e-06 0)
(0 2.04903e-05 0)
(0 2.0502e-05 0)
(0 2.05032e-05 0)
(0 -2.09712e-05 0)
(0 -3.36027e-05 0)
(0 7.20015e-06 0)
(0 1.27564e-05 0)
(0 -1.52708e-06 0)
(0 2.04118e-05 0)
(0 1.89427e-05 0)
(0 1.98353e-05 0)
(0 2.01975e-05 0)
(0 9.1896e-06 0)
(0 -2.29246e-05 0)
(0 2.05044e-05 0)
(0 2.0492e-05 0)
(0 2.02995e-05 0)
(0 -4.02013e-06 0)
(0 1.08547e-05 0)
(0 1.02462e-05 0)
(0 2.05104e-05 0)
(0 2.05165e-05 0)
(0 1.85061e-05 0)
(0 -2.85373e-07 0)
(0 -1.61517e-05 0)
(0 3.78565e-06 0)
(0 1.79893e-05 0)
(0 -1.41852e-05 0)
(0 1.99873e-05 0)
(0 1.06728e-05 0)
(0 2.04324e-05 0)
(0 -1.57306e-05 0)
(0 1.31784e-06 0)
(0 1.37196e-05 0)
(0 1.49155e-05 0)
(0 1.32424e-05 0)
(0 1.83612e-05 0)
(0 -1.8128e-06 0)
(0 1.09122e-05 0)
(0 2.05012e-05 0)
(0 -4.40469e-05 0)
(0 -4.34034e-06 0)
(0 7.17996e-06 0)
(0 -5.11947e-05 0)
(0 9.96822e-08 0)
(0 6.84009e-08 0)
(0 -9.85319e-06 0)
(0 -4.4267e-05 0)
(0 1.90292e-05 0)
(0 -1.5107e-07 0)
(0 9.36497e-06 0)
(0 -2.60635e-05 0)
(0 1.67629e-06 0)
(0 1.12848e-05 0)
(0 -6.2822e-05 0)
(0 4.92491e-06 0)
(0 -5.98634e-06 0)
(0 -0.000110249 0)
(0 1.87677e-05 0)
(0 -2.49348e-05 0)
(0 1.57285e-05 0)
(0 4.64999e-07 0)
(0 1.94659e-05 0)
(0 7.49283e-06 0)
(0 2.04537e-05 0)
(0 -2.97283e-05 0)
(0 2.05151e-05 0)
(0 1.01534e-05 0)
(0 7.22357e-06 0)
(0 1.79122e-05 0)
(0 1.87787e-05 0)
(0 2.0348e-05 0)
(0 -4.69277e-05 0)
(0 -1.14506e-05 0)
(0 -1.96208e-05 0)
(0 -1.52017e-05 0)
(0 6.29915e-06 0)
(0 1.23069e-05 0)
(0 1.52894e-05 0)
(0 1.91722e-05 0)
(0 2.0452e-05 0)
(0 1.24243e-05 0)
(0 1.44943e-05 0)
(0 2.04934e-05 0)
(0 1.99338e-05 0)
(0 -8.38609e-05 0)
(0 -1.56516e-05 0)
(0 1.57626e-05 0)
(0 2.04618e-05 0)
(0 7.10226e-06 0)
(0 9.84367e-08 0)
(0 1.91995e-05 0)
(0 1.89184e-05 0)
(0 1.59747e-05 0)
(0 1.42843e-05 0)
(0 2.05036e-05 0)
(0 -4.1471e-05 0)
(0 1.259e-05 0)
(0 2.05149e-05 0)
(0 1.87056e-05 0)
(0 2.01948e-05 0)
(0 1.90328e-05 0)
(0 1.98447e-05 0)
(0 -2.40627e-05 0)
(0 1.42791e-05 0)
(0 -8.35615e-05 0)
(0 -7.38077e-06 0)
(0 2.03967e-05 0)
(0 2.03968e-05 0)
(0 2.05115e-05 0)
(0 2.00658e-05 0)
(0 2.05141e-05 0)
(0 2.05104e-05 0)
(0 1.90473e-05 0)
(0 7.36781e-06 0)
(0 2.0514e-05 0)
(0 2.04168e-05 0)
(0 -9.71083e-05 0)
(0 2.01559e-05 0)
(0 2.051e-05 0)
(0 2.01135e-05 0)
(0 1.12628e-05 0)
(0 2.02182e-05 0)
(0 -4.20054e-05 0)
(0 -5.06892e-05 0)
(0 -5.3855e-05 0)
(0 1.33151e-05 0)
(0 -6.65375e-06 0)
(0 2.05151e-05 0)
(0 6.0062e-06 0)
(0 9.32028e-06 0)
(0 2.05086e-05 0)
(0 -5.32669e-06 0)
(0 1.37266e-05 0)
(0 2.02358e-05 0)
(0 -7.15636e-06 0)
(0 -1.15019e-05 0)
(0 2.04979e-05 0)
(0 2.72101e-05 0)
(0 1.07964e-05 0)
(0 -3.27966e-05 0)
(0 2.05119e-05 0)
(0 -4.6233e-05 0)
(0 -1.75908e-05 0)
(0 1.55451e-05 0)
(0 1.40115e-06 0)
(0 1.24409e-05 0)
(0 8.37179e-06 0)
(0 2.0447e-05 0)
(0 -1.61996e-06 0)
(0 -0.000121149 0)
(0 2.05149e-05 0)
(0 -1.72711e-05 0)
(0 2.05077e-05 0)
(0 2.05216e-05 0)
(0 2.00556e-05 0)
(0 1.82255e-05 0)
(0 -7.21388e-06 0)
(0 7.32101e-07 0)
(0 2.05064e-05 0)
(0 7.55059e-06 0)
(0 5.38638e-07 0)
(0 -6.99262e-07 0)
(0 -2.33424e-05 0)
(0 1.99593e-05 0)
(0 2.02946e-05 0)
(0 1.17836e-05 0)
(0 2.0515e-05 0)
(0 1.93017e-05 0)
(0 3.78436e-06 0)
(0 1.74185e-05 0)
(0 2.48181e-07 0)
(0 3.79982e-06 0)
(0 1.90217e-05 0)
(0 -5.85708e-05 0)
(0 2.03244e-05 0)
(0 1.24187e-05 0)
(0 1.52326e-05 0)
(0 6.55034e-06 0)
(0 2.04957e-05 0)
(0 2.05077e-05 0)
(0 -7.55508e-06 0)
(0 -8.70665e-05 0)
(0 3.29821e-06 0)
(0 -4.24209e-07 0)
(0 5.90849e-06 0)
(0 2.0504e-05 0)
(0 2.01703e-05 0)
(0 -2.82684e-07 0)
(0 -1.42417e-05 0)
(0 8.06422e-06 0)
(0 1.11627e-05 0)
(0 -6.55174e-05 0)
(0 1.92531e-05 0)
(0 -6.19973e-06 0)
(0 2.04984e-05 0)
(0 -1.27402e-06 0)
(0 -1.68553e-06 0)
(0 2.03895e-05 0)
(0 2.05005e-05 0)
(0 -1.04412e-06 0)
(0 2.02537e-05 0)
(0 1.71883e-05 0)
(0 -6.19226e-06 0)
(0 -2.07993e-06 0)
(0 1.64166e-05 0)
(0 2.05076e-05 0)
(0 -1.68933e-06 0)
(0 2.0515e-05 0)
(0 1.42122e-05 0)
(0 2.03502e-05 0)
(0 2.02375e-05 0)
(0 -2.20207e-05 0)
(0 2.05149e-05 0)
(0 -8.82527e-06 0)
(0 2.04323e-05 0)
(0 -8.02397e-05 0)
(0 2.05001e-05 0)
(0 2.05127e-05 0)
(0 7.81372e-07 0)
(0 2.0518e-05 0)
(0 6.01946e-06 0)
(0 1.06188e-05 0)
(0 2.03779e-05 0)
(0 1.96898e-05 0)
(0 2.05134e-05 0)
(0 9.33809e-07 0)
(0 2.04467e-05 0)
(0 -1.87673e-05 0)
(0 2.0405e-05 0)
(0 -8.58282e-05 0)
(0 1.09429e-05 0)
(0 -5.05976e-05 0)
(0 -3.33895e-06 0)
(0 2.93379e-05 0)
(0 -6.00142e-06 0)
(0 1.97169e-05 0)
(0 2.00662e-05 0)
(0 -6.35037e-06 0)
(0 2.05124e-05 0)
(0 -2.23319e-05 0)
(0 -2.56965e-06 0)
(0 1.57929e-06 0)
(0 1.27288e-05 0)
(0 1.39895e-05 0)
(0 2.03992e-05 0)
(0 -2.74359e-06 0)
(0 1.23826e-05 0)
(0 8.40602e-06 0)
(0 2.04708e-05 0)
(0 1.08202e-05 0)
(0 -7.00613e-06 0)
(0 -4.36105e-06 0)
(0 8.83813e-06 0)
(0 -1.01692e-05 0)
(0 2.0515e-05 0)
(0 -4.91223e-06 0)
(0 2.03451e-05 0)
(0 1.85821e-05 0)
(0 1.98645e-05 0)
(0 2.0504e-05 0)
(0 2.05114e-05 0)
(0 2.27747e-05 0)
(0 -1.58592e-05 0)
(0 -6.45309e-06 0)
(0 -5.42776e-06 0)
(0 -2.974e-05 0)
(0 2.05041e-05 0)
(0 4.67511e-06 0)
(0 -1.86501e-05 0)
(0 2.20817e-05 0)
(0 2.04159e-05 0)
(0 5.99696e-06 0)
(0 -0.00012203 0)
(0 1.30069e-05 0)
(0 6.76718e-06 0)
(0 2.04378e-05 0)
(0 2.05162e-05 0)
(0 2.2233e-08 0)
(0 -2.52915e-05 0)
(0 2.04541e-05 0)
(0 -1.36683e-06 0)
(0 2.04966e-05 0)
(0 2.05097e-05 0)
(0 2.05051e-05 0)
(0 2.0276e-05 0)
(0 2.0276e-05 0)
(0 1.94413e-05 0)
(0 -4.78824e-05 0)
(0 6.84227e-06 0)
(0 1.22844e-07 0)
(0 -2.64124e-06 0)
(0 -1.47228e-06 0)
(0 2.05651e-05 0)
(0 -1.04551e-06 0)
(0 2.02889e-05 0)
(0 2.05102e-05 0)
(0 -2.02895e-05 0)
(0 1.98738e-05 0)
(0 2.30054e-05 0)
(0 3.25733e-06 0)
(0 1.18644e-05 0)
(0 1.62825e-05 0)
(0 9.72017e-06 0)
(0 -1.06555e-05 0)
(0 2.04434e-05 0)
(0 2.05147e-05 0)
(0 1.47947e-05 0)
(0 2.05116e-05 0)
(0 1.87281e-05 0)
(0 2.05044e-05 0)
(0 1.92578e-05 0)
(0 1.97184e-05 0)
(0 2.04899e-05 0)
(0 -3.54185e-07 0)
(0 2.04952e-05 0)
(0 1.31927e-05 0)
(0 2.05215e-05 0)
(0 -9.35634e-05 0)
(0 -1.88145e-05 0)
(0 4.39444e-06 0)
(0 -4.82871e-05 0)
(0 1.81941e-05 0)
(0 2.23275e-06 0)
(0 -1.7359e-06 0)
(0 1.34376e-05 0)
(0 1.23993e-05 0)
(0 1.74032e-05 0)
(0 1.68863e-05 0)
(0 1.40205e-05 0)
(0 1.93026e-05 0)
(0 -0.000114114 0)
(0 -2.53319e-05 0)
(0 9.08803e-06 0)
(0 6.85613e-06 0)
(0 1.86053e-05 0)
(0 2.04241e-05 0)
(0 -5.94688e-07 0)
(0 -0.000102467 0)
(0 -1.59314e-06 0)
(0 1.92118e-05 0)
(0 4.65671e-06 0)
(0 -6.19478e-06 0)
(0 2.02178e-05 0)
(0 -2.62677e-05 0)
(0 2.04901e-05 0)
(0 -2.51525e-05 0)
(0 2.04831e-05 0)
(0 -7.66219e-05 0)
(0 3.61406e-06 0)
(0 -5.15961e-06 0)
(0 -8.47105e-06 0)
(0 1.15559e-05 0)
(0 6.41015e-06 0)
(0 -5.43369e-07 0)
(0 2.04832e-05 0)
(0 -1.47709e-05 0)
(0 2.05196e-05 0)
(0 2.05157e-05 0)
(0 4.18666e-06 0)
(0 1.30649e-05 0)
(0 1.55069e-05 0)
(0 -2.06227e-05 0)
(0 2.04967e-05 0)
(0 -1.37761e-05 0)
(0 2.04731e-05 0)
(0 2.05109e-05 0)
(0 1.47627e-05 0)
(0 2.05036e-05 0)
(0 1.51805e-05 0)
(0 -6.37942e-06 0)
(0 2.04992e-05 0)
(0 2.04962e-05 0)
(0 7.90868e-06 0)
(0 4.30815e-06 0)
(0 -7.48911e-06 0)
(0 1.25381e-06 0)
(0 -0.000103334 0)
(0 1.82439e-05 0)
(0 2.04908e-05 0)
(0 1.61869e-06 0)
(0 2.04062e-05 0)
(0 2.05143e-05 0)
(0 1.75337e-05 0)
(0 1.5521e-05 0)
(0 -4.19604e-05 0)
(0 2.05152e-05 0)
(0 1.91655e-05 0)
(0 1.26591e-05 0)
(0 -3.71492e-06 0)
(0 -5.0707e-06 0)
(0 2.04801e-05 0)
(0 -1.43687e-05 0)
(0 2.05109e-05 0)
(0 1.93616e-05 0)
(0 7.01458e-06 0)
(0 1.26411e-05 0)
(0 7.04742e-06 0)
(0 -3.90811e-06 0)
(0 1.5634e-06 0)
(0 1.40017e-05 0)
(0 -9.88206e-06 0)
(0 -0.000106961 0)
(0 2.05147e-05 0)
(0 1.42894e-05 0)
(0 -2.00605e-05 0)
(0 2.05157e-05 0)
(0 -6.1523e-06 0)
(0 -4.20174e-06 0)
(0 1.83013e-05 0)
(0 2.03914e-05 0)
(0 -1.4796e-05 0)
(0 2.0503e-05 0)
(0 -2.50941e-06 0)
(0 -2.3194e-05 0)
(0 4.50965e-06 0)
(0 2.05148e-05 0)
(0 2.04182e-05 0)
(0 2.05086e-05 0)
(0 1.04852e-05 0)
(0 1.46091e-05 0)
(0 -3.41775e-06 0)
(0 2.05067e-05 0)
(0 -4.5543e-05 0)
(0 1.92696e-05 0)
(0 1.84644e-05 0)
(0 2.04788e-05 0)
(0 2.19199e-05 0)
(0 2.02123e-05 0)
(0 2.03004e-05 0)
(0 -7.71462e-06 0)
(0 2.0515e-05 0)
(0 -9.18825e-05 0)
(0 2.05161e-05 0)
(0 5.876e-06 0)
(0 3.40342e-06 0)
(0 7.40631e-06 0)
(0 2.03219e-05 0)
(0 2.05144e-05 0)
(0 8.27849e-06 0)
(0 -4.08999e-05 0)
(0 3.85313e-07 0)
(0 -0.000115782 0)
(0 -6.17299e-05 0)
(0 -1.34299e-06 0)
(0 1.54974e-05 0)
(0 3.387e-07 0)
(0 2.03029e-05 0)
(0 5.29455e-06 0)
(0 2.05018e-05 0)
(0 -9.27369e-05 0)
(0 -1.33635e-05 0)
(0 2.01367e-05 0)
(0 2.04958e-05 0)
(0 2.02039e-05 0)
(0 -2.23185e-06 0)
(0 2.04617e-05 0)
(0 -9.47703e-05 0)
(0 2.05107e-05 0)
(0 1.15813e-06 0)
(0 1.81739e-05 0)
(0 -1.09327e-05 0)
(0 2.04997e-05 0)
(0 -5.84268e-06 0)
(0 1.76831e-06 0)
(0 -1.46065e-05 0)
(0 -6.522e-06 0)
(0 -3.44469e-07 0)
(0 2.04023e-05 0)
(0 1.94463e-05 0)
(0 2.04814e-05 0)
(0 1.58265e-05 0)
(0 -5.34667e-05 0)
(0 1.65607e-07 0)
(0 7.66275e-06 0)
(0 2.60186e-05 0)
(0 2.68751e-05 0)
(0 6.02042e-06 0)
(0 1.84899e-05 0)
(0 -8.74919e-05 0)
(0 2.05149e-05 0)
(0 1.69392e-05 0)
(0 4.43634e-06 0)
(0 9.93024e-07 0)
(0 2.05109e-05 0)
(0 6.66727e-06 0)
(0 6.12161e-06 0)
(0 -1.34871e-06 0)
(0 1.57151e-05 0)
(0 2.05153e-05 0)
(0 -4.60118e-06 0)
(0 2.04312e-05 0)
(0 -1.79837e-05 0)
(0 -7.3483e-07 0)
(0 2.02321e-05 0)
(0 -2.59777e-05 0)
(0 -4.59622e-06 0)
(0 1.29371e-05 0)
(0 1.77586e-05 0)
(0 -9.55338e-05 0)
(0 1.97541e-05 0)
(0 1.33184e-05 0)
(0 2.05141e-05 0)
(0 3.09092e-07 0)
(0 2.03875e-05 0)
(0 1.61798e-05 0)
(0 1.43174e-05 0)
(0 1.14165e-05 0)
(0 -1.15209e-05 0)
(0 2.01837e-05 0)
(0 -5.69049e-05 0)
(0 2.05149e-05 0)
(0 -2.02108e-05 0)
(0 -1.34908e-05 0)
(0 2.05015e-05 0)
(0 -1.43293e-05 0)
(0 -6.51426e-05 0)
(0 2.03738e-05 0)
(0 -5.56184e-06 0)
(0 1.99278e-05 0)
(0 2.05149e-05 0)
(0 -1.36089e-05 0)
(0 1.90172e-05 0)
(0 2.05146e-05 0)
(0 5.06124e-06 0)
(0 -4.91951e-06 0)
(0 -5.47258e-05 0)
(0 -5.13273e-05 0)
(0 -2.18419e-05 0)
(0 -1.12714e-06 0)
(0 1.74073e-05 0)
(0 -9.96848e-05 0)
(0 1.0212e-05 0)
(0 2.04554e-05 0)
(0 2.16357e-05 0)
(0 2.05152e-05 0)
(0 -7.93644e-05 0)
(0 -7.41445e-06 0)
(0 1.92403e-05 0)
(0 2.0515e-05 0)
(0 3.03879e-05 0)
(0 -4.04856e-06 0)
(0 -2.20636e-05 0)
(0 -2.1103e-05 0)
(0 1.74808e-05 0)
(0 2.02143e-05 0)
(0 1.39997e-06 0)
(0 -6.87709e-05 0)
(0 1.50946e-05 0)
(0 1.90843e-05 0)
(0 1.09252e-05 0)
(0 2.00789e-05 0)
(0 2.048e-05 0)
(0 -9.85532e-05 0)
(0 2.05073e-05 0)
(0 -5.08675e-06 0)
(0 -1.41168e-05 0)
(0 -6.39391e-06 0)
(0 2.05111e-05 0)
(0 1.19005e-05 0)
(0 1.70341e-05 0)
(0 1.07703e-06 0)
(0 -1.31402e-05 0)
(0 -6.12748e-06 0)
(0 1.3152e-05 0)
(0 2.05031e-05 0)
(0 2.05156e-05 0)
(0 2.04996e-05 0)
(0 7.89048e-06 0)
(0 -3.45719e-07 0)
(0 -6.93397e-06 0)
(0 -3.22024e-06 0)
(0 -4.3484e-05 0)
(0 2.04945e-05 0)
(0 2.0513e-05 0)
(0 4.78067e-06 0)
(0 -5.2661e-05 0)
(0 2.05155e-05 0)
(0 1.26663e-05 0)
(0 8.23656e-06 0)
(0 2.04628e-05 0)
(0 4.23444e-06 0)
(0 1.78124e-05 0)
(0 4.43117e-06 0)
(0 -4.07437e-05 0)
(0 2.05144e-05 0)
(0 -7.66481e-06 0)
(0 1.56552e-05 0)
(0 1.32274e-05 0)
(0 -4.15335e-05 0)
(0 -2.56092e-05 0)
(0 1.43231e-05 0)
(0 1.79601e-05 0)
(0 -1.89931e-05 0)
(0 1.7873e-05 0)
(0 2.04987e-05 0)
(0 2.35745e-06 0)
(0 1.69051e-05 0)
(0 2.78209e-06 0)
(0 -1.96584e-05 0)
(0 -8.01554e-06 0)
(0 -2.46489e-05 0)
(0 2.01044e-05 0)
(0 -2.51619e-06 0)
(0 1.98485e-05 0)
(0 -2.36868e-05 0)
(0 -2.80638e-05 0)
(0 2.04906e-05 0)
(0 1.45492e-05 0)
(0 2.01953e-05 0)
(0 6.13587e-06 0)
(0 1.44141e-05 0)
(0 6.75923e-06 0)
(0 1.28082e-06 0)
(0 -5.13995e-06 0)
(0 -1.6758e-05 0)
(0 2.36124e-05 0)
(0 -1.67601e-05 0)
(0 -6.18309e-06 0)
(0 1.61655e-05 0)
(0 2.16e-06 0)
(0 1.33554e-05 0)
(0 1.68724e-05 0)
(0 1.37671e-05 0)
(0 2.05195e-05 0)
(0 2.03932e-05 0)
(0 1.94453e-05 0)
(0 2.01692e-05 0)
(0 1.24202e-05 0)
(0 1.45729e-05 0)
(0 2.03078e-05 0)
(0 1.93116e-05 0)
(0 8.5619e-06 0)
(0 -1.30923e-06 0)
(0 1.68117e-05 0)
(0 2.01462e-05 0)
(0 1.94634e-05 0)
(0 1.63167e-05 0)
(0 6.46904e-06 0)
(0 -8.68477e-06 0)
(0 -6.38357e-06 0)
(0 2.73924e-05 0)
(0 -3.60826e-05 0)
(0 2.04949e-05 0)
(0 2.0496e-05 0)
(0 2.0515e-05 0)
(0 7.74558e-06 0)
(0 1.81013e-05 0)
(0 3.15613e-06 0)
(0 1.82372e-05 0)
(0 2.0516e-05 0)
(0 2.02546e-05 0)
(0 -6.80614e-05 0)
(0 2.05146e-05 0)
(0 1.65254e-05 0)
(0 9.87815e-07 0)
(0 -9.57164e-05 0)
(0 1.60483e-05 0)
(0 6.19291e-07 0)
(0 1.90954e-05 0)
(0 6.24121e-06 0)
(0 2.00802e-05 0)
(0 2.03432e-05 0)
(0 2.02143e-05 0)
(0 1.81698e-05 0)
(0 -7.75634e-07 0)
(0 1.38339e-05 0)
(0 -4.93076e-06 0)
(0 1.61798e-05 0)
(0 2.29692e-05 0)
(0 1.96549e-05 0)
(0 4.38105e-07 0)
(0 -2.63287e-05 0)
(0 2.01416e-06 0)
(0 -1.71978e-05 0)
(0 2.00256e-05 0)
(0 1.23167e-05 0)
(0 5.37352e-06 0)
(0 -7.80808e-06 0)
(0 2.05099e-05 0)
(0 2.02008e-05 0)
(0 -8.40002e-06 0)
(0 1.5328e-05 0)
(0 -8.69021e-06 0)
(0 2.05133e-05 0)
(0 2.03815e-05 0)
(0 2.04983e-05 0)
(0 1.83508e-05 0)
(0 -1.77906e-05 0)
(0 1.16114e-05 0)
(0 1.43799e-05 0)
(0 1.90141e-05 0)
(0 2.05154e-05 0)
(0 1.58219e-05 0)
(0 -2.44272e-06 0)
(0 -7.17789e-06 0)
(0 2.01916e-05 0)
(0 -9.54594e-07 0)
(0 2.05149e-05 0)
(0 -5.18377e-05 0)
(0 4.21475e-07 0)
(0 2.04994e-05 0)
(0 1.0318e-05 0)
(0 8.60439e-08 0)
(0 1.9715e-05 0)
(0 -2.0127e-06 0)
(0 3.52067e-06 0)
(0 2.02498e-05 0)
(0 2.02712e-05 0)
(0 -6.5577e-06 0)
(0 2.01077e-05 0)
(0 1.83588e-05 0)
(0 2.05149e-05 0)
(0 2.037e-05 0)
(0 -2.38888e-05 0)
(0 2.0516e-05 0)
(0 -8.90959e-07 0)
(0 1.86182e-05 0)
(0 -4.493e-06 0)
(0 1.0371e-06 0)
(0 2.05128e-05 0)
(0 1.82603e-05 0)
(0 1.33965e-06 0)
(0 -5.61754e-06 0)
(0 2.0513e-05 0)
(0 6.32506e-06 0)
(0 1.98718e-05 0)
(0 2.00406e-05 0)
(0 2.81903e-06 0)
(0 -3.91253e-05 0)
(0 8.13974e-06 0)
(0 2.00918e-05 0)
(0 2.01206e-05 0)
(0 -1.59852e-05 0)
(0 1.55993e-05 0)
(0 1.65091e-05 0)
(0 -2.5681e-05 0)
(0 -2.78725e-05 0)
(0 -8.91627e-05 0)
(0 -5.24295e-05 0)
(0 4.50945e-06 0)
(0 1.89553e-05 0)
(0 2.0318e-05 0)
(0 8.96537e-06 0)
(0 1.12589e-05 0)
(0 2.05199e-05 0)
(0 1.12881e-05 0)
(0 2.04712e-05 0)
(0 1.83417e-05 0)
(0 1.86664e-05 0)
(0 2.11781e-05 0)
(0 -2.0293e-05 0)
(0 -2.68645e-06 0)
(0 2.02726e-05 0)
(0 1.44031e-05 0)
(0 2.0515e-05 0)
(0 1.95717e-05 0)
(0 2.04538e-05 0)
(0 9.12664e-06 0)
(0 1.20178e-05 0)
(0 1.19785e-06 0)
(0 1.29826e-05 0)
(0 2.04988e-05 0)
(0 1.94825e-06 0)
(0 -3.9535e-05 0)
(0 1.77932e-05 0)
(0 2.04812e-05 0)
(0 2.04597e-05 0)
(0 1.85071e-05 0)
(0 1.0409e-05 0)
(0 -2.56861e-05 0)
(0 2.05088e-05 0)
(0 -1.36777e-05 0)
(0 7.84516e-06 0)
(0 -1.3553e-05 0)
(0 1.93543e-05 0)
(0 -5.06504e-05 0)
(0 9.62539e-07 0)
(0 2.05086e-05 0)
(0 -4.90457e-07 0)
(0 2.05149e-05 0)
(0 2.049e-05 0)
(0 2.04879e-05 0)
(0 2.0515e-05 0)
(0 1.09424e-05 0)
(0 1.86334e-05 0)
(0 1.91519e-05 0)
(0 1.8926e-05 0)
(0 2.0513e-05 0)
(0 -1.76284e-05 0)
(0 1.54335e-05 0)
(0 -0.000101278 0)
(0 6.98538e-06 0)
(0 2.05016e-05 0)
(0 -0.00011083 0)
(0 2.04824e-05 0)
(0 1.42726e-05 0)
(0 7.91576e-06 0)
(0 1.96391e-05 0)
(0 -5.07471e-06 0)
(0 2.04662e-05 0)
(0 -1.27082e-05 0)
(0 2.04296e-05 0)
(0 -3.35333e-05 0)
(0 1.32447e-05 0)
(0 2.0473e-05 0)
(0 -7.98305e-05 0)
(0 -7.50337e-07 0)
(0 -3.21715e-06 0)
(0 -5.03971e-05 0)
(0 1.51699e-05 0)
(0 2.02813e-05 0)
(0 -9.78014e-06 0)
(0 1.29185e-05 0)
(0 2.02539e-05 0)
(0 -1.39084e-05 0)
(0 2.05135e-05 0)
(0 6.00658e-06 0)
(0 -5.14332e-06 0)
(0 -2.47462e-05 0)
(0 -8.51364e-06 0)
(0 -5.08747e-05 0)
(0 1.89682e-05 0)
(0 1.98426e-05 0)
(0 2.04983e-05 0)
(0 -5.45873e-06 0)
(0 -3.3519e-06 0)
(0 1.55513e-05 0)
(0 2.05155e-05 0)
(0 2.00644e-05 0)
(0 -3.32039e-05 0)
(0 2.3633e-05 0)
(0 -0.000117173 0)
(0 1.30334e-05 0)
(0 2.05119e-05 0)
(0 2.04044e-05 0)
(0 2.03685e-05 0)
(0 -5.90602e-05 0)
(0 1.16308e-05 0)
(0 1.22759e-05 0)
(0 -0.000106898 0)
(0 1.60602e-05 0)
(0 2.05089e-05 0)
(0 1.64254e-05 0)
(0 1.75577e-05 0)
(0 2.0204e-05 0)
(0 1.82039e-05 0)
(0 1.85671e-05 0)
(0 2.04914e-05 0)
(0 4.5316e-06 0)
(0 -4.86193e-06 0)
(0 1.9559e-05 0)
(0 1.04865e-05 0)
(0 -1.83733e-05 0)
(0 1.97062e-05 0)
(0 -7.52845e-06 0)
(0 1.56492e-05 0)
(0 1.0824e-05 0)
(0 -1.50787e-05 0)
(0 8.79428e-07 0)
(0 2.0515e-05 0)
(0 1.61635e-05 0)
(0 -3.98112e-06 0)
(0 1.41444e-05 0)
(0 2.05149e-05 0)
(0 1.96887e-05 0)
(0 2.05044e-05 0)
(0 -8.17174e-06 0)
(0 2.04137e-05 0)
(0 -5.10563e-05 0)
(0 1.88554e-05 0)
(0 1.72241e-05 0)
(0 -5.75446e-06 0)
(0 2.05204e-05 0)
(0 -6.56243e-05 0)
(0 4.73609e-06 0)
(0 -7.75179e-06 0)
(0 -1.01686e-05 0)
(0 2.04918e-05 0)
(0 2.63425e-06 0)
(0 6.06274e-06 0)
(0 2.05026e-05 0)
(0 -6.5995e-06 0)
(0 2.05153e-05 0)
(0 -4.02629e-05 0)
(0 2.04285e-05 0)
(0 1.84604e-05 0)
(0 2.01531e-05 0)
(0 8.44368e-06 0)
(0 -6.21459e-06 0)
(0 1.56506e-05 0)
(0 4.76381e-06 0)
(0 1.86242e-05 0)
(0 1.9647e-05 0)
(0 9.46976e-06 0)
(0 -8.97111e-06 0)
(0 2.05027e-05 0)
(0 2.04829e-05 0)
(0 -2.10076e-05 0)
(0 1.95828e-05 0)
(0 2.0103e-05 0)
(0 -5.83934e-06 0)
(0 2.05148e-05 0)
(0 1.38401e-05 0)
(0 1.13994e-05 0)
(0 9.45062e-06 0)
(0 -1.16625e-05 0)
(0 -9.20719e-05 0)
(0 1.41138e-05 0)
(0 1.99342e-05 0)
(0 1.53246e-05 0)
(0 1.69909e-05 0)
(0 2.05105e-05 0)
(0 2.04243e-05 0)
(0 2.02007e-05 0)
(0 2.05119e-05 0)
(0 -8.92218e-06 0)
(0 1.80514e-05 0)
(0 2.0521e-05 0)
(0 -1.35553e-05 0)
(0 5.20807e-07 0)
(0 1.99608e-05 0)
(0 1.74003e-05 0)
(0 -6.4198e-06 0)
(0 2.03519e-05 0)
(0 1.94639e-05 0)
(0 2.03362e-05 0)
(0 2.0028e-05 0)
(0 -4.28167e-06 0)
(0 2.01389e-05 0)
(0 -3.71451e-05 0)
(0 -8.25585e-06 0)
(0 2.01301e-05 0)
(0 2.05146e-05 0)
(0 1.79029e-05 0)
(0 2.03629e-05 0)
(0 1.76222e-05 0)
(0 -8.15946e-06 0)
(0 1.98547e-05 0)
(0 1.60528e-05 0)
(0 1.63896e-05 0)
(0 8.97739e-07 0)
(0 6.99138e-06 0)
(0 -2.30519e-05 0)
(0 3.71682e-06 0)
(0 -1.09692e-06 0)
(0 2.03218e-05 0)
(0 -1.1728e-05 0)
(0 1.6277e-05 0)
(0 2.05153e-05 0)
(0 3.03167e-05 0)
(0 -1.17448e-05 0)
(0 1.99626e-05 0)
(0 1.81976e-05 0)
(0 1.80829e-05 0)
(0 -6.52553e-05 0)
(0 1.95156e-05 0)
(0 2.05124e-05 0)
(0 -5.54471e-06 0)
(0 -1.58001e-05 0)
(0 -3.14829e-05 0)
(0 1.91492e-05 0)
(0 -3.0852e-06 0)
(0 -1.49962e-06 0)
(0 1.99156e-05 0)
(0 2.04767e-05 0)
(0 1.17588e-05 0)
(0 2.05139e-05 0)
(0 1.98381e-05 0)
(0 -1.24125e-05 0)
(0 1.71465e-05 0)
(0 1.95679e-05 0)
(0 1.99165e-06 0)
(0 1.7702e-05 0)
(0 -4.71401e-06 0)
(0 2.01687e-05 0)
(0 -0.000115021 0)
(0 2.025e-05 0)
(0 2.0463e-05 0)
(0 -1.10323e-05 0)
(0 1.97308e-05 0)
(0 -1.40727e-05 0)
(0 1.7943e-05 0)
(0 1.77523e-05 0)
(0 -3.78646e-06 0)
(0 2.98445e-05 0)
(0 1.50172e-05 0)
(0 1.66046e-05 0)
(0 1.95369e-05 0)
(0 1.88978e-05 0)
(0 -3.70813e-05 0)
(0 1.79358e-05 0)
(0 1.36618e-05 0)
(0 1.19111e-05 0)
(0 -3.09005e-05 0)
(0 -5.329e-05 0)
(0 1.56263e-05 0)
(0 1.12415e-05 0)
(0 -8.92166e-06 0)
(0 1.94462e-05 0)
(0 -7.62379e-05 0)
(0 2.05193e-05 0)
(0 -1.35569e-07 0)
(0 1.02659e-05 0)
(0 -2.23141e-06 0)
(0 1.90834e-05 0)
(0 1.63052e-05 0)
(0 6.90692e-06 0)
(0 -1.25201e-05 0)
(0 -3.87152e-05 0)
(0 2.04841e-05 0)
(0 2.04042e-05 0)
(0 2.0514e-05 0)
(0 2.0305e-05 0)
(0 1.04387e-05 0)
(0 -4.11156e-05 0)
(0 2.04732e-05 0)
(0 1.46324e-05 0)
(0 2.05102e-05 0)
(0 1.88603e-05 0)
(0 -6.16053e-06 0)
(0 1.1196e-05 0)
(0 1.06224e-05 0)
(0 -4.5612e-05 0)
(0 1.63047e-05 0)
(0 1.98803e-05 0)
(0 -3.79195e-07 0)
(0 2.0513e-05 0)
(0 1.38699e-05 0)
(0 1.85065e-05 0)
(0 -7.88711e-06 0)
(0 1.28496e-06 0)
(0 -9.43947e-05 0)
(0 8.47499e-06 0)
(0 2.05156e-05 0)
(0 1.4939e-05 0)
(0 2.05156e-05 0)
(0 -4.08995e-06 0)
(0 2.05096e-05 0)
(0 -7.6594e-05 0)
(0 2.56278e-06 0)
(0 1.99562e-06 0)
(0 -2.17779e-06 0)
(0 2.01623e-05 0)
(0 -1.86034e-05 0)
(0 2.90856e-06 0)
(0 2.70716e-05 0)
(0 2.05145e-05 0)
(0 1.54947e-05 0)
(0 2.04565e-05 0)
(0 -4.57442e-05 0)
(0 -6.38692e-05 0)
(0 -8.26752e-05 0)
(0 7.9081e-06 0)
(0 1.16511e-05 0)
(0 2.05163e-05 0)
(0 2.04725e-05 0)
(0 1.12738e-05 0)
(0 3.65545e-06 0)
(0 2.04604e-05 0)
(0 1.91376e-05 0)
(0 -7.66029e-06 0)
(0 1.88597e-05 0)
(0 -3.59683e-05 0)
(0 -2.47363e-05 0)
(0 -1.35032e-05 0)
(0 2.01735e-05 0)
(0 -9.02571e-07 0)
(0 1.31415e-05 0)
(0 9.69353e-06 0)
(0 -1.48273e-05 0)
(0 2.04734e-05 0)
(0 7.25405e-06 0)
(0 -3.93323e-05 0)
(0 -3.32851e-06 0)
(0 -1.28622e-05 0)
(0 3.02697e-05 0)
(0 -1.13674e-05 0)
(0 -1.36363e-05 0)
(0 -5.11829e-07 0)
(0 1.92194e-06 0)
(0 1.4063e-05 0)
(0 -3.859e-06 0)
(0 2.05125e-05 0)
(0 1.70852e-05 0)
(0 -2.08694e-07 0)
(0 -1.92613e-05 0)
(0 2.04854e-05 0)
(0 1.98713e-05 0)
(0 1.73296e-05 0)
(0 1.28058e-05 0)
(0 7.83891e-06 0)
(0 -1.07177e-05 0)
(0 8.81134e-06 0)
(0 1.98852e-05 0)
(0 5.38683e-06 0)
(0 2.04092e-05 0)
(0 2.02918e-05 0)
(0 -1.00006e-05 0)
(0 -4.70541e-06 0)
(0 1.84489e-05 0)
(0 -5.51612e-05 0)
(0 1.95617e-05 0)
(0 1.80034e-05 0)
(0 2.05127e-05 0)
(0 -3.74662e-05 0)
(0 -2.97355e-05 0)