/*--------------------------------*- C++ -*----------------------------------*\
| =========                 |                                                 |
| \\      /  F ield         | OpenFOAM: The Open Source CFD Toolbox           |
|  \\    /   O peration     | Version:  v2012                                 |
|   \\  /    A nd           | Website:  www.openfoam.com                      |
|    \\/     M anipulation  |                                                 |
\*---------------------------------------------------------------------------*/
FoamFile
{
    version     2.0;
    format      ascii;
    class       surfaceScalarField;
    location    "800";
    object      phi;
}
// * * * * * * * * * * * * * * * * * * * * * * * * * * * * * * * * * * * * * //

dimensions      [0 3 -1 0 0 0 0];
oriented        oriented;


internalField   nonuniform List<scalar> 
27274
(
0.13262
0.0303661
-0.162985
0.0054619
-0.00369526
-0.00176664
0.231171
-0.309418
0.0782614
-0.322187
0.517405
-0.195143
0.288151
-0.245043
-0.0430992
0.137087
-0.128021
-0.00906576
0.362377
-0.416744
0.0544118
-0.167328
0.0814358
0.0858928
-0.144949
0.152635
-0.00112287
0.00071765
0.000405223
0.434007
-0.210139
-0.223826
-0.00934716
0.0106821
-0.00133494
-0.037522
0.0950527
-0.0575307
0.219898
0.0910487
-0.310946
-0.0552101
0.282635
-0.227414
0.0328338
0.148766
-0.181598
-0.00812065
-0.00250591
0.0106266
0.0374638
0.249698
-0.287118
-0.29541
0.250899
0.0445187
0.052044
-0.0360752
-0.0159689
-0.119824
0.164946
-0.0451213
-0.0400133
-0.142648
0.182664
-0.000977555
-0.00423677
0.00521433
0.257593
0.0305653
-0.225046
-0.0224489
0.373998
0.036864
-0.410845
-0.421958
0.169582
-0.158245
0.164875
-0.00662966
-0.00705555
0.000442115
0.00661344
-0.217577
-0.0553798
0.272966
0.137034
-0.268618
0.131596
-0.27138
0.107081
0.164304
-0.293977
0.331492
0.208777
-0.529309
0.320674
-0.0519932
-0.0792136
0.131207
0.1664
-0.0337792
-0.215786
0.0806491
0.0660744
-0.109613
0.0435391
-0.199909
0.0416639
0.419697
-0.312057
-0.107606
-0.0214834
0.241382
-0.0962256
0.0716634
0.0245622
0.308776
-0.077591
0.00312967
-0.00116294
-0.00196672
-0.524869
0.363566
0.161446
0.0818395
-0.0157651
-0.128065
0.152115
-0.0240496
0.0609773
0.107872
-0.168849
0.130004
-0.15419
0.0241862
-0.479395
0.212761
0.26667
-0.415138
0.0822584
0.332928
0.185656
0.13114
-0.316778
0.286327
0.171425
-0.45775
0.00729276
-0.0156391
0.00834636
-0.0784433
0.383548
-0.305081
-0.461147
0.487197
-0.0259695
0.0761784
-0.129345
0.0531669
-0.196089
0.140886
-0.0221252
0.0141759
0.0079493
-0.0473169
0.118555
-0.0712384
-0.242979
-0.236382
0.147851
-0.156842
0.00899228
0.0591665
-0.353993
0.294868
-0.00460225
-0.118101
0.122704
-0.000197503
-0.00914966
-0.142934
0.173301
-0.00546098
0.00441489
0.00104609
-0.120197
0.123285
-0.00308745
-0.239427
0.160388
-0.200399
-0.137541
0.105174
0.0323668
0.560141
-0.320139
-0.239986
-0.105354
0.0580373
0.399782
-0.285365
-0.114379
-0.0874824
-0.0798454
0.0650551
0.297358
0.0406979
-0.0218046
-0.0188933
0.283456
-0.246742
-0.0367097
0.0237995
0.161181
-0.184978
0.184959
0.154051
-0.338989
-0.340649
-0.0760467
0.0699171
0.0150668
-0.0849838
-0.171246
0.051423
-0.126129
0.01139
0.11474
0.0573594
0.316651
-0.0926966
0.0551748
-0.00159691
0.0118539
-0.010257
0.0272942
0.0247498
-0.00803076
0.000975206
0.00840883
0.004946
-0.0133548
-0.0608939
0.112985
-0.0520907
-0.441535
-0.0831429
0.480073
-0.163764
-0.31629
-0.300509
-0.11744
0.418015
-0.00618999
0.00618999
-0.00318718
0.00220963
-0.361293
0.243862
0.117449
0.21229
-0.217556
0.00526843
0.013002
-0.00570924
-0.0071908
0.00829469
-0.00110388
-0.0064718
0.00748345
-0.00101165
0.0102375
-0.00787775
-0.00235972
-0.175108
0.121638
0.0534702
-0.0897466
0.0518779
0.0378687
0.302495
-0.224554
-0.0779318
-0.0664557
0.117554
-0.0510977
-0.0117975
0.0120986
-0.000301135
-0.0263982
-0.0626541
0.0890524
-0.0056535
-0.117038
0.122692
-0.0384758
0.0166417
-0.316412
0.110244
0.206177
0.16125
-0.207233
0.0459843
-0.434628
0.0633986
0.371233
-0.0115311
0.172781
0.00924669
0.00543875
-0.0146854
-0.411861
0.549396
-0.137441
-0.0109572
0.0127955
-0.00183824
0.0205887
0.0201092
-0.0139558
0.0134644
0.000491365
-0.146629
-0.0284785
-0.000822908
-0.000299965
0.0430632
0.0465091
-0.0895723
0.211601
0.0718605
-0.102862
-0.0346783
-0.144392
-0.216884
-0.0888105
0.0624123
-0.156445
0.342124
0.280119
0.195186
-0.475309
0.0414471
-0.0828524
0.0414053
-0.414136
0.113706
-0.308268
-0.106821
0.0800408
-0.069787
-0.0102537
-0.0220564
0.130939
-0.108882
0.193234
0.01906
0.0797586
-0.10878
0.0290219
-0.172051
0.452176
-0.191904
0.00542953
0.186485
0.273078
0.160964
-0.219496
-0.0458997
0.265402
0.0599124
-0.122355
0.0624428
-0.000378588
-0.00609321
0.00501723
0.00187278
-0.00689001
-0.21767
-0.0374069
0.255082
-0.268314
-0.0480903
-0.0247388
0.0209765
0.00376235
0.258452
-0.106174
-0.152276
-0.156783
0.0413186
0.115464
0.00751372
0.00217076
-0.00968448
-0.133311
0.210318
-0.0770034
0.00961263
-0.0020989
-0.144579
-0.118467
0.263056
0.115807
0.0411287
-0.0931217
-0.0148695
-0.00725564
0.108972
-0.135023
0.0260513
0.0348559
0.425101
-0.459949
0.0659794
0.0140614
-0.00446554
-0.00949027
0.350056
-0.315192
-0.149733
0.0395173
0.110216
0.00404969
-0.121952
0.117904
-0.0286066
0.190511
-0.161902
-0.139066
0.0194005
0.119666
0.219147
-0.025911
-0.0504511
0.103017
-0.0525654
0.0298884
0.00982467
-0.0397131
-0.0057318
0.0116543
-0.00592254
-0.175368
0.146025
0.0293433
0.114756
-0.0517359
-0.0630195
-0.347068
0.32036
0.0267424
-0.0130258
0.0087075
0.00431833
-0.000342587
-0.00087889
0.00122148
0.00289143
-0.382526
0.379696
-0.371486
-0.0164973
0.388031
-0.159396
0.192231
-0.00088682
0.00470746
-0.00382064
0.1436
-0.150011
0.00641251
-0.360495
0.021458
0.339053
0.0932856
-0.0518385
-0.0103491
-0.0138853
0.0242344
0.04243
0.0139809
-0.0564109
0.061682
0.0530736
0.198512
-0.201873
0.00336258
-0.441761
0.371171
0.0706427
0.102462
-0.0476054
-0.0548565
-0.00330623
0.00703861
-0.00373237
-0.00247435
0.0116026
-0.00912828
-0.03644
0.106228
-0.0697882
-0.0289648
-0.136775
0.16574
-0.0107511
0.00263048
-0.0354887
-0.187673
-0.137949
0.325635
0.1913
0.0278497
-0.0357335
-0.0332044
0.068938
0.11025
-0.0751961
-0.0350534
-0.284151
0.129949
0.154205
-0.102691
0.0367757
0.0659153
0.178817
0.019696
0.170422
-0.155322
-0.0150991
-0.368547
-0.273702
0.106203
0.167505
-0.18267
0.0354777
0.147193
-0.00327559
0.0068836
-0.00360801
-0.00715238
0.00467803
-0.0111769
0.00253141
0.00864548
0.170565
-0.198737
0.0281732
-7.04688e-05
-0.0108868
-0.00122975
0.00341382
-0.00218407
-0.000250237
-0.0015178
0.00176804
0.151924
0.018499
-0.385778
0.193884
0.0799693
-0.22454
-0.0460042
0.0256781
0.020326
-0.243661
0.0259974
0.0825812
-0.429604
0.0945225
-0.0246054
0.021401
-0.0777549
0.0563539
-0.01871
-0.366656
-0.0679764
0.0826766
-0.215983
-0.0418301
-0.0492625
0.0910926
-0.0250906
-0.276549
0.301649
0.0101988
-0.136328
0.233023
-0.22758
-9.67545e-05
-0.00563505
0.11855
-0.259545
0.140999
0.00231846
-0.00454412
0.00222567
-0.00418998
-0.00446138
0.00865137
-0.0430167
0.0364684
0.00654825
-0.158829
-0.226936
-0.189635
0.475965
-0.170921
0.194723
-0.153309
-0.0119593
0.16527
0.00349239
-0.00117393
-0.146735
-0.0620788
0.208818
0.341001
0.0717164
-0.412701
0.0298973
-0.390375
-0.051443
-0.0331953
0.0846383
-0.115643
0.067768
0.0478748
-0.0111769
0.154632
-0.160284
0.0718378
-0.118144
0.0463061
-0.0327002
-0.241519
-0.415543
0.153438
0.26215
0.120065
-0.240023
0.119962
-0.00609813
0.00190815
-0.0446227
0.0824287
-0.037806
-0.00293655
-0.00308988
0.00602643
0.133874
-0.0249017
-0.141245
0.145296
-0.14741
-0.126287
-0.0268327
-0.004802
0.0316347
0.204118
-0.0252991
0.000254624
-0.00050486
-0.286808
0.0640744
0.222738
-0.0104812
0.00462866
0.0058525
-0.0785293
0.04474
0.0337893
-0.080955
-0.0687773
0.126495
0.1267
-0.253187
-0.488773
0.444205
0.0446855
-0.162405
0.0194717
-0.0262431
0.107112
-0.0808682
-0.0163334
0.0130578
0.104379
-0.126435
0.12716
-0.415046
0.287947
0.282195
-0.380986
0.0988349
0.0765639
-0.352448
0.275892
-0.114527
0.0627915
0.0651713
0.0192888
-0.08446
-0.0476086
0.0437668
0.00384177
-0.234038
0.214083
0.0199573
0.00645282
-0.00229644
-0.00415638
-0.0950853
0.0586453
-0.104891
0.0384351
-0.240116
0.0112791
0.228844
-0.0578256
-0.0448654
-0.157485
0.342465
-0.437098
0.159729
0.277379
-0.0574061
-0.0130575
0.0704636
-0.57512
0.313749
0.261482
0.308226
-0.243139
-0.135592
0.0776082
0.0579844
-0.267052
-0.045193
0.312264
-0.00254093
0.00610753
-0.0035666
0.174291
0.0298282
-0.178578
0.129679
0.0488985
-0.29662
-0.278384
-0.136791
-0.0385766
-0.00419894
-0.0071829
0.0113818
-0.0597751
0.0910337
-0.413143
-0.124993
0.282914
-0.157923
0.0612308
-0.110969
0.0497382
0.0058742
-0.0070981
0.0012239
-0.345961
0.422526
0.400883
-0.462225
0.0613492
0.0605052
-0.0391041
-0.158406
0.0872692
0.0711372
-0.102942
0.132341
-0.0293988
-0.0595806
0.037594
0.0219865
-0.25144
-0.185646
0.0789316
-0.0386574
-0.163463
0.202122
-0.000841562
0.401735
-0.022275
-0.0373056
-0.100524
0.0500726
0.042378
-0.0954731
0.0530952
0.11345
-0.0522193
-0.30169
-0.112377
-0.0161401
0.0585701
-0.123679
-0.181946
-0.0868292
-0.208571
-0.0889782
0.0443556
0.338138
-0.109816
-0.228308
-0.0426895
-0.0671021
-0.0291234
0.239767
0.240322
-0.39794
0.120466
0.277536
-0.0817733
-0.0363705
0.00537479
-0.00151791
-0.00385688
-0.00115682
-7.29252e-05
0.254455
-0.0116062
-0.242842
-0.0022507
-0.136815
0.00293923
0.000190441
0.347118
-0.137132
-0.209971
-0.0627253
-0.0529174
0.176358
-0.189505
0.0131488
0.13416
-0.0396818
-0.0944773
-0.102125
0.0393994
-0.419022
0.117407
0.0429995
-0.013111
0.181961
0.0970435
-0.278997
-0.0353091
0.115068
0.533367
-0.357757
-0.175551
0.0309329
0.00796724
0.000662085
-0.00862932
-0.390805
-0.013465
0.404271
0.000694277
-0.0110434
-0.159977
0.182455
-0.0224772
-0.388567
0.238107
0.150463
0.0130277
-0.141092
0.0253211
0.12253
0.085936
-0.0495246
-0.0364114
-0.00472751
0.0180131
-0.0132856
-0.0781152
0.0423817
-0.0606257
-0.226177
0.256473
-0.197274
0.000402012
0.0017615
-0.00216351
-0.0793345
0.0473697
0.0319648
0.404276
-0.2531
-0.151162
0.172269
0.0276521
-0.199917
-0.0460178
0.0883958
0.0693537
0.0331082
-0.0352391
0.00840638
0.00436969
-0.00396768
-0.251599
-0.0380408
0.289645
0.238394
-0.209806
-0.028584
0.00371432
-0.00598901
0.00227469
0.303631
-0.193376
-0.205152
0.058421
0.0943381
-0.0273657
-0.0669723
-0.155381
0.139882
0.0154997
0.253457
-0.0308045
-0.222649
0.0019319
0.00344289
0.266595
0.211364
-0.477955
0.0836325
-0.093395
0.00976255
0.044434
-0.0862641
-0.0098027
0.0098027
-0.307046
0.398157
0.269948
-0.165556
-0.104387
-0.351657
0.289363
0.0622995
0.371157
-0.197043
-0.174096
-0.0892744
0.066717
0.0225574
0.218442
0.152731
-0.100321
0.149718
-0.0493963
-0.231638
-0.12001
0.0501215
0.136689
-0.186808
0.13813
-0.389723
0.0348644
-0.179814
-0.12443
0.26889
-0.144442
0.0145596
-0.216732
0.20218
0.306588
-0.26661
-0.0399638
0.28574
0.0208655
-0.0221755
-0.166233
0.18841
-0.0481988
0.0121239
0.0360749
0.000499476
-0.00513377
0.0046343
0.0781523
0.154881
-0.0497208
0.0589047
-0.00918391
-0.133286
0.0445894
0.088697
0.00665034
-0.00615086
-0.150654
-0.027021
0.177676
0.135364
-0.0796854
-0.055678
-0.0958137
0.215881
-0.0458021
0.0780135
-0.0322114
-0.125444
-0.437215
0.0254397
-0.0151224
0.356135
0.382172
-0.152678
-0.229443
-0.0120303
0.00730274
-0.00147658
-0.182863
0.184343
0.458414
-0.0947404
-0.0153288
-0.117115
0.132444
-0.147909
0.0475885
0.127781
0.17586
0.182409
0.164721
-0.00190025
-0.00010142
0.00200167
-0.123761
-0.313909
-0.0269961
0.284077
-0.383053
0.0989968
-0.00459149
0.00165494
0.00653131
-0.00919861
0.0026673
0.0536536
0.0406845
-0.0193671
-0.137416
0.178826
0.00447901
-0.00867795
0.270836
0.289322
-0.238348
-0.10398
0.342345
-0.0148104
-0.0204287
-0.366951
-0.0866104
0.453576
-0.328968
-0.0535232
-0.00355802
-0.00719311
0.300355
0.0994638
-0.000989313
0.00895655
0.139927
-0.130767
-0.0091588
-0.144399
0.145551
-0.00115129
-0.00307577
0.00960708
0.0181716
0.17864
-0.196811
-0.336124
0.0977936
0.0136993
-0.0362987
0.0225994
0.124648
0.0124393
-0.00462913
-0.0469391
-0.0428075
0.347206
-0.207302
-0.139898
-0.345299
-0.0964054
-0.265561
0.15939
-0.0272357
-0.0362476
0.0634834
0.0527955
0.0612298
-0.114025
0.0146673
0.236239
-0.444025
0.38848
0.0555572
-0.225018
-0.0186369
0.0184113
0.0652212
-0.00378619
0.00750051
0.204289
-0.150091
-0.0541973
-0.13988
-0.125679
-0.285475
0.398142
-0.112666
-0.176885
0.0262328
0.107595
-0.0721261
-0.0354691
-0.0015414
0.00741559
-0.00798758
-0.00249358
-0.0581849
0.0594142
-0.00122934
0.0597778
-0.0758647
0.0160869
0.0670142
0.0171622
-0.0841763
0.000288537
-0.00145148
-0.195036
-0.0630674
0.258114
-0.404228
0.277309
0.12696
-0.269975
-0.194935
0.273101
-0.0842801
0.0555373
0.0287428
0.369469
-0.217855
-0.151605
0.180934
-0.00886694
0.00167614
-0.0350879
0.0534993
0.143032
0.0180712
-0.00966239
0.069966
-0.0101882
-0.00496704
0.00166081
-0.212641
-0.0712781
0.283932
0.161329
0.125124
0.185306
-0.310422
0.107856
-0.448464
0.0115835
-0.455602
-0.475117
-0.406954
0.155524
0.00111733
0.00693663
-0.00805396
0.0536516
0.200811
0.395874
-0.283227
-0.112585
-0.0486038
0.0916671
0.123194
-0.0847194
-0.0384741
-0.320407
-0.0837842
0.1575
-0.236838
0.0793439
-0.0973902
0.0209782
0.0764121
0.00821208
-0.0656182
0.0213985
-0.180792
0.0540711
0.216874
-0.270927
0.038997
-0.196167
0.0134977
-0.00578439
0.00890334
-0.00311895
-0.0332716
-0.400961
0.203936
-0.000187613
0.00647911
-0.0062915
0.0687407
0.0544529
0.104128
0.268385
-0.372465
0.00102545
-0.00136128
0.000335834
-0.00517266
-0.00102346
0.00619612
-0.000154914
0.00180341
-0.00164849
-0.193474
-0.207468
0.266011
-0.211921
0.00238519
-0.155692
-0.102804
0.112124
-0.00932037
-0.134372
-0.0824604
0.216832
-0.00092221
0.00737503
-0.0699219
0.0426862
0.0199223
-0.0696431
-0.0295922
0.0884724
-0.0588801
0.134738
0.247486
0.0135792
0.126349
-0.00698383
-0.000786421
0.00777025
-0.00352977
0.0121793
-0.0263603
0.014181
0.213455
-0.276657
0.0632055
0.126734
0.0355058
-0.162239
0.0349067
-0.156858
-0.000807285
0.00026106
0.000546226
0.00574332
0.00449416
-0.0888566
0.0279628
-0.126628
0.245182
0.0225912
-0.242084
0.376511
-0.0851642
-0.291344
-0.0486569
0.101453
-0.226413
-0.180529
-0.0351708
0.0488701
-0.105669
0.140577
-0.00933127
0.018578
-0.294275
0.229636
0.0646428
-0.274541
0.049529
-0.426168
-0.0624934
-0.118856
-0.00134105
-0.0221945
-0.119786
0.141982
0.0662066
0.0413887
-0.271165
0.381008
-0.109823
0.124829
-0.0686666
-0.0561625
0.0121486
0.036044
-0.0481926
-0.159782
0.177355
-0.017571
0.302855
-0.17635
0.211161
-0.127916
-0.0832442
0.183014
-0.169089
-0.0139232
0.487271
-0.24966
-0.237604
0.132656
-0.165019
0.0323637
-0.00345699
-0.173655
0.0138745
-0.0430607
-0.0470309
0.0900917
-0.0328787
-0.296113
0.400294
-0.199324
-0.500361
0.109556
-0.147323
0.0105328
0.189355
0.0641071
-0.117325
0.0870662
-0.299694
0.132749
0.124852
0.011452
0.268424
0.140277
-0.408633
0.0182294
0.0800328
-0.0982623
0.187119
-0.195745
0.00862688
-0.0561123
-0.0433231
0.0994354
-0.171418
-0.00715999
-0.0151039
0.00307365
-0.262404
0.0856091
0.176801
0.00519996
-0.00519996
0.133457
0.0267095
-0.160166
-0.0920354
0.153013
-0.0589875
-0.0195418
0.00622233
-0.0361993
-0.0259013
0.0621005
0.142337
0.0350207
0.192854
-0.194327
-0.3949
0.201445
0.213815
0.108969
-0.322772
-0.136675
0.078462
0.0582131
0.152505
-0.128461
-0.024044
-0.0430245
0.132234
-0.0892095
-0.106681
0.0700332
0.0366474
0.00613456
-0.0500625
0.105997
-0.055934
-0.356342
0.505941
-0.149487
0.000310098
-0.00170054
0.00139045
-0.00814697
0.0499443
-0.0417974
0.145778
-0.22917
0.0833981
0.239227
-0.0254078
-0.0591875
0.0774169
0.00971919
-0.00477319
-0.135613
-0.0267914
-0.277272
-0.136881
0.414168
-0.0813183
0.0244758
0.0568425
-0.0966979
0.0536372
-0.143827
0.0646137
0.103305
0.0104941
-0.113799
-0.0379788
-0.00944485
0.0474237
-0.166329
-0.0512247
0.0632845
0.0356396
-0.0989239
0.00115859
-0.00139745
0.000238864
-0.0623726
-0.0397521
-0.0424691
0.0989507
-0.0579456
-0.041005
0.0315089
-0.0829519
0.149286
-0.185978
0.0366949
-0.402232
-0.0588368
-0.100959
-0.318837
0.10127
-0.00211528
-0.0226235
0.0195406
0.0153222
-0.0348628
0.00438757
-0.00527439
-0.010704
-0.0374948
-0.00651308
0.00855607
-0.00204299
0.00162808
-0.00224061
0.000612535
-0.0707482
-0.0105701
-0.0334131
0.18218
-0.00165317
-0.00251391
0.00416708
0.00700857
0.0289788
-0.0359873
0.209588
0.0237892
-0.0477996
0.0240104
0.000243378
0.00509245
-0.00533582
0.0544804
0.0147961
-0.0692765
0.081494
0.122796
-0.106487
0.401832
-0.295286
-0.194386
0.0280604
-0.212572
0.185648
0.0269263
0.15811
0.0249053
-0.0641788
-0.0596604
0.123839
0.0758399
0.262311
0.00391429
-0.00391429
-0.189726
0.167553
0.144335
0.0156622
-0.159996
-0.000756545
-5.07401e-05
-0.220041
-0.0948754
0.314931
-0.146991
0.124797
0.0306132
-0.0184339
-0.241488
-0.0946172
0.0286261
0.182415
-0.211037
-0.00080306
0.0006114
0.000191661
-0.113108
0.416127
-0.302922
0.044188
0.0806414
-0.15054
-0.00471886
0.00185349
0.00286536
0.187694
-0.0453561
0.13203
-0.143073
0.0110438
0.0911356
-0.193778
0.0462308
0.14755
0.0118211
-0.114625
-0.109292
0.00426094
0.105031
0.0110616
-0.00144899
0.115106
-0.124852
0.00974591
0.150898
-0.272092
0.121207
0.00626096
-0.00642512
0.000164165
0.148947
-0.016917
0.00502065
0.0131936
-0.00504341
-0.00815019
0.0418111
-0.090415
0.0408585
-0.082921
-0.185387
0.136143
0.232673
-0.368767
-0.00598885
0.000816192
0.103326
0.107835
-0.0265445
0.159202
0.442824
-0.305936
-0.136865
-0.0525858
-0.00169888
-0.056486
-0.0168243
-0.0130846
0.0299089
0.00239516
0.000540184
0.00465978
-0.0332499
-0.0510302
0.133675
-0.185871
0.0521993
-0.38143
0.275001
0.165577
-0.128736
0.113407
0.109332
-0.0441602
0.328355
-0.20298
-0.125353
0.0347014
-0.0709007
0.135704
0.0348616
-0.0367673
-0.454344
0.442524
0.0119699
0.00128008
0.00159214
0.182375
-0.237749
-0.328514
-0.126137
0.0130917
0.113045
0.168759
-0.47468
-0.103822
0.372251
-0.00305739
0.000844673
0.00221271
0.035913
-0.225992
0.17878
0.0472136
-0.255144
0.364125
-0.0527184
0.115051
-0.0623321
-0.0336152
-0.120574
-0.0210614
0.182245
-0.021862
-0.0574726
-0.215337
0.229905
0.00381996
-0.0108038
-0.128272
0.0179427
0.11033
0.100972
0.155757
-0.256726
0.030698
-0.0166643
-0.0140337
-0.00162554
0.000746653
0.257424
-0.402211
0.144818
-0.0345079
0.0176836
0.23812
0.27934
-0.331923
0.0904535
-0.244164
0.109793
-0.0846466
-0.0148929
0.0995395
-0.00027063
-0.0024944
0.00276503
-0.0360443
-0.123932
5.49539e-05
0.00110363
0.0308252
0.110229
-0.141053
0.00467703
-0.0196626
0.0149855
-0.0755921
0.0459999
-0.163985
-0.0219912
-0.00671058
0.108042
0.16191
0.0145391
-0.0285966
0.0140574
-0.0716647
0.00624159
-0.0078385
0.00339258
0.00206932
0.0737799
0.172592
-0.246366
-0.0141432
0.0263739
-0.0122307
0.167146
-0.193128
0.0259836
0.00311644
0.130341
-0.0238878
0.0543767
-0.0304889
0.0191895
-0.0605195
0.04133
-0.00345468
0.00793369
-0.391842
0.289098
0.102788
-0.00823857
-0.00686534
-0.146634
0.320266
-0.173627
-0.00377993
0.0148415
0.0386423
0.167208
-0.205842
-0.212186
0.106517
-0.171869
0.00278158
-0.344526
0.191588
0.15297
0.197788
-0.498858
0.301217
-0.0247904
-0.110717
0.135508
0.0718003
-0.0235666
0.078047
-0.441954
0.0967054
0.00756373
-0.00780238
0.000238653
-0.185205
0.0212218
-0.242337
-0.102159
0.108526
0.267989
0.0626926
0.0750008
-0.137693
0.0574501
0.052603
-0.110053
0.0217482
-0.045636
0.110972
-0.147015
-0.15791
0.366793
0.138102
-0.171117
0.0330169
-0.00570287
0.0111416
-0.130691
-0.328385
0.218581
0.338381
-0.146768
-0.0352944
0.173398
-0.0157424
-0.148422
0.164166
0.000243445
0.00367085
-0.317356
0.0973303
-0.0507701
0.0727334
-0.0219633
0.0482448
0.062005
0.0494217
-0.0575687
0.000176376
-0.000331289
-0.00232851
-0.00313247
-0.110942
-0.285869
0.39688
0.0291283
-0.155597
0.126469
0.121118
0.235244
-0.199679
-0.0355595
-0.194831
0.17258
0.0222533
0.00611466
-0.00587128
-0.316823
-0.0649451
0.381837
-0.163014
-0.231867
-0.498665
0.214491
0.284317
0.0362873
0.109991
0.0540876
-0.164077
0.250718
-0.0998112
0.101226
0.0410561
-0.142281
0.0268206
-0.162433
-0.00572066
0.0142201
-0.00849946
-0.0026014
-0.00919611
0.365551
-0.229481
-0.136045
0.172492
0.128608
-0.301097
0.00588198
-0.158569
0.00178837
-0.000664328
-0.00112404
0.00164446
-0.00533971
0.000918805
0.00167523
-0.00259403
-0.0606279
0.038353
-0.0416423
-0.0181337
0.059776
0.0827399
-0.0430292
-0.0397107
0.0158268
-0.418168
0.0515065
-0.115151
0.275368
-0.0933999
0.168885
0.0492645
-0.218147
0.144013
0.260277
-0.0571053
0.0239582
0.0300727
-0.0540309
-0.00191936
-0.00427063
-0.242916
0.00280632
-0.0175616
-0.0357832
0.0533449
0.0986012
0.318408
-0.416923
-0.0699985
0.203676
-0.122067
-0.0258415
0.299588
-0.378014
-0.0269095
-0.13994
0.16857
0.00674345
0.014233
-0.00833212
0.00524224
0.0922341
-0.143197
0.0509631
0.00316997
-0.00662465
0.085008
-0.0179937
0.000694742
0.00372015
-0.0607053
0.0799941
0.042504
-0.0168259
0.00128227
-0.00201326
0.000730998
-0.122393
-0.0058794
0.0543501
-0.0422015
-0.102037
0.0519748
0.00654471
0.00664889
0.222152
-0.301226
0.0790886
0.115572
0.334331
-0.448859
0.114574
-0.02127
0.0520476
-0.0327123
-0.0193353
0.364818
-0.476694
0.0930711
0.383619
0.0976375
-0.00384772
-0.0937896
-0.234921
0.398547
-0.163553
-0.0869719
0.0823699
0.0149748
-0.133076
-0.533946
0.310592
0.223375
-0.0757753
0.0584415
0.0173338
0.19261
-0.281546
0.0889501
0.263542
-0.111398
0.0586798
-0.270136
-0.0986166
0.368801
-0.0486939
0.0885581
-0.0398642
-0.0130523
0.0325928
0.283042
-0.107572
-0.175465
-0.243029
0.172111
0.070923
-0.350483
0.108178
-0.100997
0.068057
0.0329406
-0.272253
0.399477
0.0600017
0.151195
-0.211194
0.0339856
0.0548603
-0.0888459
-0.134651
-0.159196
0.293847
-0.00279376
0.000303067
0.00249069
-0.204111
-0.0615735
0.265694
0.00156968
0.00280001
0.236462
-0.0181478
-0.218311
0.084193
-0.12946
0.0452675
-0.238993
0.329206
-0.0901971
0.00250519
-0.115705
0.113201
-0.150373
0.0283064
-0.350048
-0.0681192
0.171295
0.111751
-0.0041364
0.00134264
0.23674
-0.261823
-0.00677187
-0.00503779
0.0118097
-0.00861112
0.0116203
-0.00300921
-0.169564
-0.0644724
0.296189
0.237229
0.303093
0.0804722
0.386856
-0.0601739
-0.326638
-0.000900527
-0.00215686
0.101431
-0.356563
0.00656921
-0.00499953
0.00456953
0.00162046
-0.0152733
0.102543
0.00191192
-0.00185306
-5.88599e-05
-0.398309
-0.130863
0.228859
0.0817406
-0.310586
-0.000846723
-0.000245982
0.00152825
0.0656708
-0.174962
0.130402
0.225629
-0.356014
-0.148115
0.273247
-0.276119
0.0703902
-0.241307
0.170922
0.0760323
-0.100632
0.0245999
-0.00634098
-0.017412
0.023753
0.168319
-0.165309
-0.00300726
-0.0067066
0.00978279
-0.00221906
0.0358012
-0.084306
0.0485048
0.122391
-0.0417377
-0.080653
-0.279961
0.247958
0.0320139
-0.00735573
-3.15056e-05
0.00738724
0.00715337
-0.0402468
0.141473
-0.325295
0.0863184
-0.276068
0.107483
0.168588
0.00224851
0.0014704
-0.00371891
0.143064
-0.00264468
-0.00207417
-0.033737
-0.525391
0.340996
0.184406
-0.0606673
0.123361
0.18759
0.177092
-0.364571
-0.0534411
0.164414
-0.218872
0.122198
0.0966762
-0.400687
0.165857
-0.103658
-0.282574
0.386304
0.255196
-0.184802
0.00454846
-0.00373866
-0.000809799
-0.0914238
-0.306923
0.398362
0.0126769
-0.00024767
0.00096532
-0.0947111
-0.181354
0.0573333
-0.324365
-0.0726743
-0.0207206
-0.00709977
0.00232013
0.00477965
0.148054
-0.17224
0.0241867
0.000144366
0.00129221
-0.00143658
-0.236191
0.110746
0.0786405
0.125357
-0.154322
-0.00258805
0.000934879
0.0200317
0.0106662
0.0102954
-0.00482176
-0.00547367
-0.444914
0.0467482
-0.0155515
-0.190466
0.287518
-0.00200928
0.00215364
-0.352221
0.127152
0.225098
-0.0504053
-0.0253699
0.0931946
0.00305211
-0.00395264
-0.10243
-0.292004
0.394459
0.137145
0.311768
-0.448828
-0.0591308
0.0174885
-0.326556
0.0592202
0.267344
0.00460919
-6.07297e-05
0.0669549
-0.261978
0.0103178
-0.0244611
-0.175326
-0.108941
-0.272003
-0.027458
0.13533
-0.0849551
0.0341851
-0.00907198
0.00317166
0.00590032
0.152427
-0.164384
0.167048
0.0766647
-0.243707
-0.169613
0.187787
-0.0794694
0.218482
0.109894
-0.0591142
-0.417583
-0.111893
0.0741736
0.03772
0.280631
-0.129435
-0.151192
0.00873098
0.0145078
-0.0232388
0.0069736
-0.162285
0.155313
-0.00145377
0.00324214
0.216906
0.0757388
-0.292633
-0.292341
0.394553
-0.102179
-0.0404845
0.088026
-0.0475415
-0.000899075
0.00139634
-0.000497267
0.0189951
-0.0384941
0.019499
-0.195723
-0.0171241
0.212852
0.0119085
-5.46172e-05
-0.0604279
0.277346
0.0077327
-0.0033868
-0.0043459
0.139983
0.0684318
0.0225868
-0.0910185
-0.173058
0.32713
-0.00202628
0.00220266
0.0881185
0.232654
-0.320757
-0.114448
-0.104423
-0.217294
-0.17127
0.332618
-0.237529
-0.0950776
0.278212
0.209066
0.0103645
-0.0196958
0.0469375
0.0392841
-0.0862216
-0.00547928
-0.00668843
0.0121677
0.0653496
0.0570413
-0.193926
0.171027
0.022901
0.149091
-0.177695
-0.469558
0.148468
0.32113
-0.409521
0.102545
-0.42405
0.311038
-0.168325
0.0381521
-0.086846
0.250588
-0.211934
0.00848959
-0.00519196
-0.00329763
-0.0564322
-0.0591603
0.115593
0.348162
-0.217743
0.155515
0.0316044
0.00370178
0.00403092
-0.0772797
-0.059395
-0.0581197
0.168112
0.148547
0.0419671
0.110948
-0.123822
0.0128735
-0.00186006
-0.00729512
0.00915518
0.0944134
-0.119203
0.0230846
-0.016076
-0.0191342
-0.130877
0.117033
-0.120684
0.00365226
-0.0370679
-0.02356
0.148261
0.223441
0.0991312
-0.322557
-0.110568
0.046389
-0.0854699
-0.0233101
0.297905
-0.0729271
0.027125
0.0411636
0.0879255
-0.129089
0.00620071
-0.00716376
0.000963043
0.14614
0.134494
-0.0231535
-0.1026
0.0179535
-0.120286
0.0163984
0.103888
0.167683
-0.0409478
0.388282
-0.201192
-0.187089
0.0479878
-0.249165
0.210836
0.0383348
0.00329799
0.0051916
0.22212
-0.222955
0.000835258
0.17099
-0.00258248
0.00106468
-0.0288298
0.170987
-0.194192
0.0232082
0.0284755
0.216835
-0.308196
0.091376
-0.00214019
-0.0454684
-0.000341499
-7.12757e-05
0.000412775
0.0875854
0.0591737
-0.0823005
0.0231269
-0.000678576
0.000337077
0.170597
0.0257246
-0.196319
-0.0938991
-0.211085
-0.0380715
0.0290616
0.153701
-0.18276
-0.157778
0.212163
-0.0543813
-0.0199164
-0.0692474
0.034706
0.0345414
-0.0757103
-0.165592
-0.0208467
-0.140792
0.16164
0.0140793
-0.323094
-0.136456
0.459692
0.000740005
-0.00861776
0.188041
0.0484247
-0.146667
0.206672
0.0387972
0.0494469
-0.0882441
0.00537775
-0.00556536
-0.108503
0.427068
-0.318467
0.34143
-0.217024
0.0592504
0.0825453
0.257204
-0.339718
0.476849
-0.168406
-0.308381
0.0144323
-0.0388681
0.0244358
-0.23973
0.50633
-0.186876
0.0159576
-0.286129
-0.111748
-0.0656849
0.0721974
-0.00651256
-0.392003
0.0959435
-0.000377902
-0.0426388
-0.030616
0.024275
-0.155904
-0.0871183
-0.00133478
0.00324953
-0.00191475
-0.327817
-0.114088
-0.180353
-0.0222926
0.202649
-0.0615558
-0.211754
0.273321
0.000553744
-0.000245275
-0.000308469
-0.0759397
-0.399287
0.400657
-0.00128519
0.12083
0.228354
-0.349169
-0.239396
0.193091
0.046313
-0.0825101
-0.229464
0.311989
-0.0849118
-0.0506805
9.43493e-05
-0.000364978
0.00319718
0.00890146
-0.00226947
0.00418139
0.0704791
0.279517
-0.349982
0.0445335
-0.214145
-0.110584
0.11309
0.208638
0.00481922
-0.268183
-0.0840091
-0.0385959
0.0484206
-0.000714002
-0.00191523
0.00262923
-0.134288
0.141264
-0.0768682
-0.134208
-0.00147678
-0.00587895
-0.325885
-0.208042
-0.304875
0.375365
-0.0138083
0.00832902
-0.0014889
-0.0419536
0.028101
0.00665656
-0.286602
0.00602175
-0.00701106
-0.0732315
-0.138851
0.212084
-0.12717
0.0429732
0.0841965
-0.378819
0.287411
0.158737
-0.175719
0.0169835
-0.287149
0.148342
0.138807
0.0884156
0.0469481
0.119261
-0.0508294
0.113184
0.0357642
0.349534
0.0750956
-0.424601
-0.00546732
0.00728519
-0.00181787
-0.0818571
-0.125376
-0.41171
0.0125027
-0.426744
0.426839
0.0215359
0.200584
-0.219268
-0.107278
0.0738077
-0.277909
-0.0456991
0.00940044
0.0192736
-0.214991
0.0284889
-0.260141
0.0651137
0.195034
-0.0205389
-0.000438234
-0.000460841
0.176274
-0.387447
0.211263
0.00236713
0.0542632
-0.0566303
-0.0215296
-0.136156
0.157688
0.384453
-0.208094
0.0959666
-0.188002
-0.118155
-0.00343564
0.121591
-0.402249
0.136924
0.265336
0.384874
-0.221619
-0.163238
-0.0914351
0.388422
-0.296965
-0.134351
-0.159921
-0.0965299
0.121809
-0.0252786
0.427379
-0.144317
-0.283005
0.094463
-0.239703
0.145242
-0.123517
0.121267
-0.0687972
0.418358
-0.116165
0.00327835
-0.0100502
-0.0100748
0.0147518
0.0323346
-0.0288462
0.0432785
-0.0272823
-0.0915327
-0.0287535
0.0160494
-0.0404069
0.0243574
-0.0226129
0.0480136
-0.0254007
-0.0074351
0.409106
-0.401525
-0.190062
0.239328
0.162372
-0.398542
0.236227
0.0123364
0.0285139
-0.0408503
-0.0255664
0.0536305
-0.028064
-0.137114
0.107084
0.0300312
0.169533
-0.362326
0.0700298
-0.27043
0.208885
-0.100283
-0.304985
0.405295
0.157843
0.0805548
-0.0456418
0.0317565
-0.00839804
-0.00793537
-0.00772745
-0.00147117
0.0127344
0.0830798
-0.0958139
0.373854
-0.352378
-0.387431
0.51616
-0.128703
-0.0914278
-0.288925
0.380369
-0.00978429
-0.0557201
0.0897057
-0.309925
0.203523
0.106418
-0.00593324
0.0045173
0.00141594
0.281766
-0.141931
-0.0230871
0.253896
-0.146809
0.106979
-0.130762
0.0237837
0.0201
-0.16203
0.0893073
-0.0505101
-0.149745
0.128217
0.0433889
-0.412837
0.0899077
-0.402883
0.282599
0.120369
0.0964113
-0.0364988
0.0970032
-0.368148
0.325147
0.162109
-0.123044
0.026515
0.0444624
-0.105018
0.0605553
0.28938
-0.380795
0.0183499
-0.0797211
0.0613712
0.272645
-0.373605
0.10098
0.204685
-0.226166
-0.380486
0.0883081
0.292219
-0.246082
0.200189
0.051939
-0.0288287
-0.0231103
0.119732
0.0304732
-0.150205
-0.194907
0.0286771
-0.178495
0.105264
-0.00215768
-0.0405886
0.0100333
0.0305552
-0.397947
0.192893
0.205057
-0.103721
-0.0234491
0.138891
0.00739094
-0.00119022
0.0220737
0.0480165
-0.0700902
0.000274291
-0.000529176
0.000254886
-0.0591864
-0.129671
-0.104021
0.115842
0.108135
-0.0506851
0.0389291
0.0704027
0.00708478
-0.00915372
0.00206893
-0.287436
0.407969
-0.117289
-0.265744
-0.117876
-0.210497
0.0329812
0.00348723
-0.0842626
5.07507e-05
-0.0109815
0.0109307
-0.173916
-0.0926802
-0.163852
0.237638
-0.00109964
-0.00148284
0.0194899
0.0825623
-0.102052
0.204396
-0.0256136
0.058238
-0.0442572
0.37178
-0.114327
0.138197
-0.149727
0.0378065
0.0479827
-0.0857892
-0.034648
0.0730525
-0.0384045
-0.226978
-0.104927