/*--------------------------------*- C++ -*----------------------------------*\
| =========                 |                                                 |
| \\      /  F ield         | OpenFOAM: The Open Source CFD Toolbox           |
|  \\    /   O peration     | Version:  v2012                                 |
|   \\  /    A nd           | Website:  www.openfoam.com                      |
|    \\/     M anipulation  |                                                 |
\*---------------------------------------------------------------------------*/
FoamFile
{
    version     2.0;
    format      ascii;
    class       volVectorField;
    location    "700";
    object      cellDisplacement;
}
// * * * * * * * * * * * * * * * * * * * * * * * * * * * * * * * * * * * * * //

dimensions      [0 1 0 0 0 0 0];


internalField   nonuniform List<vector> 
18758
(
(0 1.73432e-06 0)
(0 1.76096e-06 0)
(0 -1.36066e-06 0)
(0 1.66293e-06 0)
(0 1.79074e-06 0)
(0 1.79023e-06 0)
(0 1.80212e-06 0)
(0 3.72997e-06 0)
(0 1.61939e-06 0)
(0 8.25931e-07 0)
(0 -9.72222e-07 0)
(0 1.80479e-06 0)
(0 1.14304e-06 0)
(0 7.12101e-07 0)
(0 -1.24588e-05 0)
(0 1.79091e-06 0)
(0 -1.08104e-06 0)
(0 4.68174e-06 0)
(0 -8.03516e-06 0)
(0 1.09339e-06 0)
(0 1.79521e-06 0)
(0 1.19606e-06 0)
(0 1.80523e-06 0)
(0 1.71443e-06 0)
(0 1.76748e-06 0)
(0 4.03063e-06 0)
(0 1.79321e-06 0)
(0 1.79149e-06 0)
(0 1.77692e-06 0)
(0 1.79325e-06 0)
(0 -4.3399e-07 0)
(0 1.81873e-06 0)
(0 6.6013e-07 0)
(0 -4.77651e-06 0)
(0 1.01535e-06 0)
(0 1.91845e-06 0)
(0 8.56953e-07 0)
(0 -2.11567e-06 0)
(0 -2.30094e-06 0)
(0 -6.04602e-07 0)
(0 -2.44481e-06 0)
(0 1.04872e-06 0)
(0 -3.2223e-06 0)
(0 8.81449e-07 0)
(0 1.79034e-06 0)
(0 3.07215e-06 0)
(0 1.80477e-06 0)
(0 -3.31808e-07 0)
(0 7.86936e-07 0)
(0 -4.32954e-06 0)
(0 1.66116e-06 0)
(0 1.7925e-06 0)
(0 -1.87747e-06 0)
(0 -1.06672e-06 0)
(0 1.79226e-06 0)
(0 1.79174e-06 0)
(0 9.55855e-07 0)
(0 1.78638e-06 0)
(0 -1.35951e-06 0)
(0 8.76769e-07 0)
(0 1.70405e-06 0)
(0 1.80016e-06 0)
(0 1.35306e-06 0)
(0 1.28088e-07 0)
(0 -1.41064e-06 0)
(0 -1.36013e-06 0)
(0 -7.32315e-07 0)
(0 8.33425e-07 0)
(0 -2.14583e-06 0)
(0 1.79454e-06 0)
(0 1.79374e-06 0)
(0 -2.18076e-07 0)
(0 -4.13464e-06 0)
(0 1.79506e-06 0)
(0 -6.18096e-07 0)
(0 -1.27641e-06 0)
(0 1.55082e-06 0)
(0 1.79075e-06 0)
(0 1.74588e-06 0)
(0 1.8085e-06 0)
(0 1.7939e-06 0)
(0 1.79159e-06 0)
(0 9.23012e-07 0)
(0 1.79105e-06 0)
(0 1.54858e-06 0)
(0 -6.30159e-07 0)
(0 1.79528e-06 0)
(0 1.34194e-06 0)
(0 1.7952e-06 0)
(0 -1.26634e-06 0)
(0 1.79192e-06 0)
(0 -1.37494e-06 0)
(0 1.79655e-06 0)
(0 1.08689e-06 0)
(0 1.79341e-06 0)
(0 1.79619e-06 0)
(0 1.53021e-06 0)
(0 -7.79282e-07 0)
(0 3.52199e-07 0)
(0 1.79549e-06 0)
(0 1.13803e-06 0)
(0 1.79298e-06 0)
(0 7.62539e-07 0)
(0 1.33177e-06 0)
(0 1.81938e-06 0)
(0 1.79287e-06 0)
(0 1.73216e-06 0)
(0 1.78992e-06 0)
(0 -1.37248e-06 0)
(0 -2.29012e-07 0)
(0 1.79589e-06 0)
(0 1.79507e-06 0)
(0 4.65951e-06 0)
(0 -6.60278e-07 0)
(0 1.77359e-06 0)
(0 1.79505e-06 0)
(0 1.79504e-06 0)
(0 -1.28664e-05 0)
(0 1.80666e-06 0)
(0 1.79365e-06 0)
(0 5.77739e-07 0)
(0 -1.61045e-06 0)
(0 1.78954e-06 0)
(0 1.79331e-06 0)
(0 1.78124e-06 0)
(0 1.78986e-06 0)
(0 1.75843e-06 0)
(0 1.7105e-06 0)
(0 1.79691e-06 0)
(0 7.35633e-07 0)
(0 -9.85609e-07 0)
(0 1.79262e-06 0)
(0 1.79507e-06 0)
(0 1.65449e-06 0)
(0 1.79498e-06 0)
(0 5.5264e-07 0)
(0 1.53523e-06 0)
(0 -4.94399e-07 0)
(0 4.87384e-07 0)
(0 1.74165e-06 0)
(0 1.74637e-06 0)
(0 1.77877e-06 0)
(0 -7.49705e-07 0)
(0 1.79412e-06 0)
(0 -2.59566e-06 0)
(0 -9.1556e-06 0)
(0 1.79507e-06 0)
(0 1.79481e-06 0)
(0 -5.63343e-07 0)
(0 1.77196e-06 0)
(0 1.7912e-06 0)
(0 1.69372e-06 0)
(0 -4.68023e-07 0)
(0 1.31377e-06 0)
(0 1.79496e-06 0)
(0 -2.02668e-07 0)
(0 1.8071e-06 0)
(0 -2.59267e-07 0)
(0 -9.39578e-07 0)
(0 5.60104e-07 0)
(0 3.47777e-06 0)
(0 9.61088e-07 0)
(0 1.7953e-06 0)
(0 -9.74665e-07 0)
(0 1.69604e-06 0)
(0 1.77895e-06 0)
(0 -7.07398e-06 0)
(0 1.7939e-06 0)
(0 1.74732e-06 0)
(0 1.78944e-06 0)
(0 1.79479e-06 0)
(0 4.66526e-06 0)
(0 1.79542e-06 0)
(0 1.79132e-06 0)
(0 9.69051e-07 0)
(0 1.70612e-06 0)
(0 1.779e-06 0)
(0 1.8739e-07 0)
(0 1.73737e-06 0)
(0 -1.2027e-06 0)
(0 5.63644e-06 0)
(0 1.79507e-06 0)
(0 1.68543e-06 0)
(0 -6.23191e-06 0)
(0 -4.83205e-06 0)
(0 1.66752e-06 0)
(0 -8.56522e-07 0)
(0 1.79504e-06 0)
(0 -3.38468e-06 0)
(0 -1.05363e-06 0)
(0 1.6593e-06 0)
(0 1.70413e-06 0)
(0 -5.17173e-07 0)
(0 -6.79929e-07 0)
(0 1.39276e-06 0)
(0 1.37804e-06 0)
(0 1.12296e-06 0)
(0 1.75171e-06 0)
(0 3.46413e-06 0)
(0 -3.34342e-06 0)
(0 1.73097e-06 0)
(0 -2.6564e-07 0)
(0 1.20937e-06 0)
(0 1.18685e-06 0)
(0 1.48456e-06 0)
(0 1.36233e-06 0)
(0 8.98556e-07 0)
(0 1.0894e-06 0)
(0 1.7968e-06 0)
(0 8.12185e-07 0)
(0 4.83656e-06 0)
(0 1.36255e-06 0)
(0 -8.5454e-07 0)
(0 1.12858e-06 0)
(0 1.737e-06 0)
(0 1.79556e-06 0)
(0 1.74361e-06 0)
(0 1.79033e-06 0)
(0 -1.52569e-07 0)
(0 1.7898e-06 0)
(0 4.79046e-06 0)
(0 -1.26858e-06 0)
(0 1.4422e-06 0)
(0 1.79506e-06 0)
(0 1.73321e-06 0)
(0 8.37042e-07 0)
(0 1.15671e-06 0)
(0 1.60923e-06 0)
(0 -9.05164e-06 0)
(0 1.23154e-06 0)
(0 -1.52752e-06 0)
(0 1.37051e-06 0)
(0 1.80283e-06 0)
(0 1.54312e-06 0)
(0 9.80521e-07 0)
(0 -8.37545e-07 0)
(0 -8.55642e-06 0)
(0 3.52378e-06 0)
(0 1.78879e-06 0)
(0 9.77341e-07 0)
(0 3.77918e-06 0)
(0 1.78046e-06 0)
(0 1.73495e-06 0)
(0 -2.66501e-06 0)
(0 1.76865e-06 0)
(0 1.79506e-06 0)
(0 1.52648e-06 0)
(0 2.04702e-06 0)
(0 1.79364e-06 0)
(0 1.30413e-06 0)
(0 1.74868e-06 0)
(0 1.79374e-06 0)
(0 -6.31594e-07 0)
(0 1.32635e-06 0)
(0 -1.18688e-05 0)
(0 7.42428e-07 0)
(0 1.67042e-06 0)
(0 1.79085e-06 0)
(0 1.1026e-06 0)
(0 1.73916e-06 0)
(0 -1.5663e-05 0)
(0 5.95768e-07 0)
(0 2.45183e-06 0)
(0 1.15031e-06 0)
(0 7.74531e-07 0)
(0 1.43267e-06 0)
(0 1.79515e-06 0)
(0 1.02045e-07 0)
(0 -1.5404e-06 0)
(0 1.78236e-06 0)
(0 -1.58924e-06 0)
(0 -4.93047e-06 0)
(0 1.19505e-06 0)
(0 1.78368e-06 0)
(0 1.79505e-06 0)
(0 -8.14359e-07 0)
(0 1.62942e-06 0)
(0 1.79607e-06 0)
(0 1.79057e-06 0)
(0 -3.33631e-07 0)
(0 -5.18107e-06 0)
(0 4.68667e-07 0)
(0 9.61764e-07 0)
(0 -7.18716e-07 0)
(0 1.79594e-06 0)
(0 1.77661e-06 0)
(0 1.54549e-06 0)
(0 1.79507e-06 0)
(0 1.80329e-06 0)
(0 -6.01281e-06 0)
(0 -1.72091e-06 0)
(0 1.64132e-06 0)
(0 1.79514e-06 0)
(0 9.68144e-07 0)
(0 1.73887e-06 0)
(0 1.43771e-06 0)
(0 5.59307e-07 0)
(0 1.79403e-06 0)
(0 -7.88688e-06 0)
(0 1.48503e-06 0)
(0 1.7906e-06 0)
(0 3.18058e-06 0)
(0 1.79602e-06 0)
(0 1.50032e-06 0)
(0 -2.2159e-06 0)
(0 9.81629e-07 0)
(0 1.41666e-06 0)
(0 -9.07853e-06 0)
(0 1.79279e-06 0)
(0 1.81264e-06 0)
(0 1.5118e-06 0)
(0 1.70897e-06 0)
(0 1.814e-06 0)
(0 1.7938e-06 0)
(0 1.72584e-06 0)
(0 1.02958e-06 0)
(0 3.55294e-07 0)
(0 1.63919e-06 0)
(0 -2.57611e-06 0)
(0 -6.01541e-06 0)
(0 -4.49603e-06 0)
(0 4.02749e-07 0)
(0 1.75069e-06 0)
(0 1.44156e-06 0)
(0 4.86097e-07 0)
(0 9.488e-07 0)
(0 1.11844e-06 0)
(0 1.65341e-06 0)
(0 -1.53201e-05 0)
(0 1.04361e-06 0)
(0 1.70813e-06 0)
(0 1.595e-06 0)
(0 1.64289e-06 0)
(0 1.64764e-06 0)
(0 1.01484e-06 0)
(0 -5.62168e-07 0)
(0 1.09615e-06 0)
(0 1.47508e-06 0)
(0 1.79122e-06 0)
(0 -8.11179e-06 0)
(0 5.07928e-06 0)
(0 -7.65578e-06 0)
(0 5.16203e-07 0)
(0 1.59186e-06 0)
(0 1.76304e-06 0)
(0 -1.61846e-06 0)
(0 -4.46296e-07 0)
(0 -5.269e-06 0)
(0 1.79187e-06 0)
(0 1.77578e-06 0)
(0 1.59924e-06 0)
(0 1.74515e-06 0)
(0 -6.07383e-06 0)
(0 1.70387e-06 0)
(0 1.7311e-06 0)
(0 8.18501e-07 0)
(0 1.3873e-06 0)
(0 1.80537e-06 0)
(0 1.79501e-06 0)
(0 1.68341e-06 0)
(0 3.65744e-06 0)
(0 1.20747e-06 0)
(0 1.77075e-06 0)
(0 1.78492e-06 0)
(0 4.47039e-07 0)
(0 -5.55677e-06 0)
(0 9.68222e-07 0)
(0 -5.47706e-06 0)
(0 -1.06908e-06 0)
(0 1.76777e-06 0)
(0 1.64208e-06 0)
(0 5.75798e-07 0)
(0 1.08789e-06 0)
(0 1.79516e-06 0)
(0 -1.33271e-06 0)
(0 -2.01312e-07 0)
(0 -3.76973e-07 0)
(0 -2.15464e-06 0)
(0 7.94165e-07 0)
(0 -8.93256e-07 0)
(0 1.8134e-06 0)
(0 1.78061e-06 0)
(0 -1.18824e-05 0)
(0 1.87195e-06 0)
(0 1.79532e-06 0)
(0 5.46501e-07 0)
(0 1.61127e-06 0)
(0 -1.32835e-06 0)
(0 -1.10445e-06 0)
(0 -4.93197e-06 0)
(0 9.95637e-07 0)
(0 -1.57763e-06 0)
(0 5.69842e-07 0)
(0 1.79509e-06 0)
(0 1.79962e-06 0)
(0 1.79373e-06 0)
(0 1.79571e-06 0)
(0 2.04205e-06 0)
(0 1.54037e-06 0)
(0 1.80271e-06 0)
(0 7.99143e-07 0)
(0 4.44783e-06 0)
(0 1.61329e-06 0)
(0 -3.03248e-06 0)
(0 -1.00748e-05 0)
(0 5.41531e-06 0)
(0 8.48877e-07 0)
(0 -1.36007e-06 0)
(0 9.0152e-07 0)
(0 1.73844e-06 0)
(0 1.7878e-06 0)
(0 -4.59239e-06 0)
(0 1.79134e-06 0)
(0 1.89601e-07 0)
(0 1.27974e-06 0)
(0 -3.10252e-06 0)
(0 -1.37116e-06 0)
(0 4.98763e-06 0)
(0 5.09464e-07 0)
(0 5.36263e-07 0)
(0 1.64173e-06 0)
(0 1.79508e-06 0)
(0 6.31462e-07 0)
(0 1.22365e-07 0)
(0 1.78101e-06 0)
(0 1.76545e-06 0)
(0 1.65762e-06 0)
(0 1.79484e-06 0)
(0 6.65322e-07 0)
(0 -3.3958e-07 0)
(0 8.92811e-07 0)
(0 3.95634e-06 0)
(0 -7.90263e-07 0)
(0 5.04764e-07 0)
(0 -4.96941e-07 0)
(0 -2.90914e-06 0)
(0 1.4707e-06 0)
(0 -4.85059e-07 0)
(0 1.66054e-06 0)
(0 8.26518e-07 0)
(0 -1.38325e-06 0)
(0 8.95736e-07 0)
(0 1.79516e-06 0)
(0 -2.83941e-10 0)
(0 1.61197e-06 0)
(0 5.13965e-07 0)
(0 3.93822e-07 0)
(0 1.79314e-06 0)
(0 1.1378e-06 0)
(0 -1.91865e-06 0)
(0 1.66259e-06 0)
(0 1.0561e-06 0)
(0 1.62847e-06 0)
(0 1.79747e-06 0)
(0 -1.31698e-06 0)
(0 -1.5166e-07 0)
(0 1.79139e-06 0)
(0 1.80539e-06 0)
(0 1.53881e-06 0)
(0 1.5616e-06 0)
(0 7.27835e-07 0)
(0 1.64071e-06 0)
(0 1.79507e-06 0)
(0 7.81339e-07 0)
(0 -2.30767e-07 0)
(0 1.59836e-06 0)
(0 -6.83528e-07 0)
(0 5.49843e-07 0)
(0 -5.04253e-07 0)
(0 1.79781e-06 0)
(0 -1.24952e-06 0)
(0 1.76692e-06 0)
(0 -2.92003e-06 0)
(0 -2.10131e-07 0)
(0 3.32288e-06 0)
(0 1.71342e-06 0)
(0 -3.80462e-06 0)
(0 1.79504e-06 0)
(0 -4.93691e-07 0)
(0 1.77676e-06 0)
(0 2.78144e-06 0)
(0 1.6137e-06 0)
(0 -9.83364e-07 0)
(0 4.1225e-06 0)
(0 3.61198e-07 0)
(0 5.24508e-06 0)
(0 1.74663e-06 0)
(0 1.79575e-06 0)
(0 1.7727e-06 0)
(0 -9.36727e-07 0)
(0 -5.36437e-06 0)
(0 1.41392e-06 0)
(0 1.69451e-06 0)
(0 3.45663e-07 0)
(0 1.79099e-06 0)
(0 2.2585e-07 0)
(0 2.56901e-07 0)
(0 1.46272e-06 0)
(0 3.67701e-06 0)
(0 1.55577e-06 0)
(0 1.39051e-06 0)
(0 6.84813e-08 0)
(0 -1.32604e-06 0)
(0 1.14424e-06 0)
(0 -6.34635e-08 0)
(0 -1.14838e-07 0)
(0 1.76767e-06 0)
(0 -6.29616e-06 0)
(0 1.52477e-06 0)
(0 5.31346e-07 0)
(0 2.80152e-07 0)
(0 1.79478e-06 0)
(0 -2.38339e-07 0)
(0 -1.13026e-06 0)
(0 1.79407e-06 0)
(0 1.79506e-06 0)
(0 -3.24737e-07 0)
(0 1.66945e-06 0)
(0 4.88455e-07 0)
(0 -1.21693e-06 0)
(0 1.79507e-06 0)
(0 -7.33816e-06 0)
(0 1.79506e-06 0)
(0 1.77405e-06 0)
(0 3.57878e-06 0)
(0 1.77033e-06 0)
(0 1.70966e-06 0)
(0 9.7348e-07 0)
(0 2.66662e-06 0)
(0 1.57598e-06 0)
(0 1.7953e-06 0)
(0 -2.28425e-06 0)
(0 -1.86732e-06 0)
(0 -1.19956e-05 0)
(0 -8.86945e-06 0)
(0 -8.89111e-06 0)
(0 2.59454e-06 0)
(0 2.33068e-07 0)
(0 1.78635e-06 0)
(0 -1.11927e-06 0)
(0 1.7789e-06 0)
(0 -1.73674e-06 0)
(0 1.6285e-06 0)
(0 1.7657e-06 0)
(0 2.49609e-06 0)
(0 -3.23041e-06 0)
(0 -8.91643e-07 0)
(0 3.3973e-06 0)
(0 -2.9791e-07 0)
(0 4.40162e-07 0)
(0 -1.12486e-06 0)
(0 1.30182e-06 0)
(0 1.79158e-06 0)
(0 -4.0314e-06 0)
(0 1.79491e-06 0)
(0 1.79347e-06 0)
(0 1.51591e-06 0)
(0 1.59138e-06 0)
(0 1.79372e-06 0)
(0 1.03515e-06 0)
(0 -6.52508e-06 0)
(0 -8.01931e-07 0)
(0 1.79282e-06 0)
(0 -1.13194e-06 0)
(0 -1.61987e-06 0)
(0 -7.51974e-07 0)
(0 1.77962e-06 0)
(0 2.43982e-07 0)
(0 1.77325e-06 0)
(0 1.31225e-06 0)
(0 1.79667e-06 0)
(0 -1.00954e-06 0)
(0 -9.92962e-07 0)
(0 1.10979e-06 0)
(0 1.76735e-06 0)
(0 -3.06013e-07 0)
(0 1.77817e-06 0)
(0 -4.74479e-07 0)
(0 1.74522e-06 0)
(0 -2.69943e-07 0)
(0 -2.51607e-06 0)
(0 5.04376e-06 0)
(0 3.48649e-06 0)
(0 1.79327e-06 0)
(0 1.7481e-06 0)
(0 -1.29258e-06 0)
(0 1.36177e-06 0)
(0 1.27308e-06 0)
(0 1.67461e-06 0)
(0 1.79562e-06 0)
(0 1.62014e-06 0)
(0 1.75023e-06 0)
(0 -1.41415e-05 0)
(0 1.79024e-06 0)
(0 -8.21703e-07 0)
(0 -5.76992e-07 0)
(0 -5.94873e-07 0)
(0 1.793e-06 0)
(0 1.79468e-06 0)
(0 -4.53637e-06 0)
(0 1.57301e-07 0)
(0 -6.11974e-07 0)
(0 -5.60056e-07 0)
(0 1.79497e-06 0)
(0 1.26468e-06 0)
(0 1.79197e-06 0)
(0 1.80284e-06 0)
(0 -1.0342e-06 0)
(0 3.47196e-06 0)
(0 6.80674e-07 0)
(0 8.85984e-07 0)
(0 3.63672e-06 0)
(0 4.09128e-07 0)
(0 -1.13099e-05 0)
(0 1.33484e-06 0)
(0 1.60076e-07 0)
(0 1.74154e-06 0)
(0 1.78964e-06 0)
(0 1.54629e-06 0)
(0 2.87782e-06 0)
(0 1.10432e-06 0)
(0 1.64461e-06 0)
(0 1.78893e-06 0)
(0 -1.77909e-06 0)
(0 1.79345e-06 0)
(0 1.02488e-06 0)
(0 -1.25405e-06 0)
(0 1.3452e-06 0)
(0 1.72955e-06 0)
(0 -4.89194e-07 0)
(0 -7.09833e-06 0)
(0 1.7716e-06 0)
(0 1.79229e-06 0)
(0 1.74939e-06 0)
(0 3.44907e-06 0)
(0 1.79503e-06 0)
(0 1.79507e-06 0)
(0 1.77007e-06 0)
(0 -4.67072e-06 0)
(0 1.79529e-06 0)
(0 1.8137e-06 0)
(0 1.79517e-06 0)
(0 -9.88176e-07 0)
(0 2.00555e-06 0)
(0 1.7745e-06 0)
(0 2.35691e-07 0)
(0 1.27737e-06 0)
(0 1.79503e-06 0)
(0 1.64189e-06 0)
(0 1.79642e-06 0)
(0 6.82446e-07 0)
(0 1.79516e-06 0)
(0 6.21948e-07 0)
(0 -1.08993e-06 0)
(0 1.3199e-07 0)
(0 1.795e-06 0)
(0 1.56465e-06 0)
(0 1.8135e-06 0)
(0 1.65757e-06 0)
(0 -7.75391e-06 0)
(0 1.2798e-06 0)
(0 1.28539e-06 0)
(0 1.19798e-06 0)
(0 5.06822e-07 0)
(0 1.65419e-06 0)
(0 3.80398e-06 0)
(0 8.21609e-07 0)
(0 1.51365e-06 0)
(0 1.7967e-06 0)
(0 1.79497e-06 0)
(0 1.80694e-06 0)
(0 8.65754e-07 0)
(0 1.13015e-06 0)
(0 1.54053e-06 0)
(0 -3.79759e-07 0)
(0 -4.87993e-06 0)
(0 -2.39161e-07 0)
(0 -8.07397e-06 0)
(0 -3.28128e-07 0)
(0 -2.59672e-07 0)
(0 4.22923e-07 0)
(0 4.02289e-06 0)
(0 7.07917e-07 0)
(0 5.34542e-06 0)
(0 1.79093e-06 0)
(0 -2.10509e-07 0)
(0 8.69087e-07 0)
(0 6.11176e-07 0)
(0 7.84867e-07 0)
(0 -4.05137e-06 0)
(0 1.79512e-06 0)
(0 -5.72564e-06 0)
(0 -1.44727e-05 0)
(0 1.19896e-06 0)
(0 1.52758e-06 0)
(0 -5.25768e-06 0)
(0 -3.03461e-07 0)
(0 1.7928e-06 0)
(0 1.53506e-06 0)
(0 1.09943e-06 0)
(0 1.72401e-06 0)
(0 1.09089e-06 0)
(0 1.58735e-06 0)
(0 1.03904e-06 0)
(0 1.2969e-06 0)
(0 1.79469e-06 0)
(0 1.79508e-06 0)
(0 -7.16011e-06 0)
(0 1.79352e-06 0)
(0 1.71175e-06 0)
(0 3.85712e-06 0)
(0 1.79491e-06 0)
(0 1.12092e-06 0)
(0 5.57844e-06 0)
(0 2.6153e-07 0)
(0 4.61688e-06 0)
(0 1.70316e-06 0)
(0 1.79008e-06 0)
(0 -3.67019e-06 0)
(0 1.79492e-06 0)
(0 -1.41452e-05 0)
(0 5.07662e-07 0)
(0 1.52465e-06 0)
(0 -4.38204e-06 0)
(0 1.79259e-06 0)
(0 1.3626e-07 0)
(0 -4.36349e-06 0)
(0 -6.88388e-07 0)
(0 -3.90541e-07 0)
(0 1.64213e-06 0)
(0 1.73132e-06 0)
(0 1.79544e-06 0)
(0 1.55675e-06 0)
(0 1.79125e-06 0)
(0 7.49544e-07 0)
(0 -6.80036e-08 0)
(0 1.53711e-06 0)
(0 1.80776e-06 0)
(0 1.75339e-06 0)
(0 1.73739e-06 0)
(0 1.59033e-06 0)
(0 -1.00012e-06 0)
(0 9.58591e-08 0)
(0 1.64879e-06 0)
(0 -3.69699e-07 0)
(0 1.79223e-06 0)
(0 2.61286e-06 0)
(0 1.79531e-06 0)
(0 -4.77535e-06 0)
(0 1.73551e-06 0)
(0 1.16516e-06 0)
(0 -1.87708e-06 0)
(0 1.77371e-06 0)
(0 1.6831e-07 0)
(0 3.95624e-06 0)
(0 1.76469e-06 0)
(0 1.52299e-07 0)
(0 5.25533e-06 0)
(0 -3.99617e-07 0)
(0 1.44418e-06 0)
(0 1.65169e-06 0)
(0 1.7695e-06 0)
(0 1.69718e-06 0)
(0 1.795e-06 0)
(0 3.41813e-06 0)
(0 1.99575e-06 0)
(0 1.795e-06 0)
(0 -5.97631e-07 0)
(0 1.78208e-06 0)
(0 7.51907e-07 0)
(0 -9.84411e-07 0)
(0 9.84129e-08 0)
(0 9.7318e-07 0)
(0 -1.58998e-06 0)
(0 -4.29761e-06 0)
(0 -2.27291e-06 0)
(0 1.78027e-06 0)
(0 1.74039e-06 0)
(0 1.7748e-06 0)
(0 1.55413e-06 0)
(0 5.72906e-06 0)
(0 -2.20786e-07 0)
(0 1.7778e-06 0)
(0 4.27749e-06 0)
(0 5.02829e-07 0)
(0 -1.92659e-06 0)
(0 1.79091e-06 0)
(0 3.91027e-07 0)
(0 1.79478e-06 0)
(0 2.41582e-06 0)
(0 1.71679e-06 0)
(0 6.74771e-07 0)
(0 7.98814e-07 0)
(0 -6.01503e-07 0)
(0 -8.29532e-06 0)
(0 -6.60638e-06 0)
(0 -4.41112e-06 0)
(0 -1.47029e-05 0)
(0 -2.47096e-06 0)
(0 1.75247e-06 0)
(0 1.79507e-06 0)
(0 -2.04706e-06 0)
(0 1.79183e-06 0)
(0 -1.19691e-06 0)
(0 -6.29662e-07 0)
(0 -3.08036e-07 0)
(0 1.61411e-06 0)
(0 1.80753e-06 0)
(0 -2.10411e-06 0)
(0 -6.2341e-06 0)
(0 1.77445e-06 0)
(0 4.23589e-06 0)
(0 -1.19066e-06 0)
(0 -4.54568e-07 0)
(0 1.79539e-06 0)
(0 1.78627e-06 0)
(0 1.74123e-06 0)
(0 1.64176e-06 0)
(0 1.73676e-06 0)
(0 3.56594e-07 0)
(0 -1.69435e-07 0)
(0 1.792e-06 0)
(0 5.54555e-06 0)
(0 1.75857e-06 0)
(0 -1.03197e-06 0)
(0 1.98183e-06 0)
(0 1.7844e-06 0)
(0 1.78759e-06 0)
(0 5.87613e-07 0)
(0 1.79536e-06 0)
(0 5.81581e-07 0)
(0 -4.64e-07 0)
(0 1.74598e-06 0)
(0 1.66465e-06 0)
(0 1.78824e-06 0)
(0 1.78665e-06 0)
(0 1.91527e-06 0)
(0 -1.35441e-06 0)
(0 1.78937e-06 0)
(0 -8.7849e-07 0)
(0 -1.92437e-06 0)
(0 -9.34952e-07 0)
(0 -1.01099e-06 0)
(0 1.74142e-06 0)
(0 1.31327e-06 0)
(0 7.45195e-07 0)
(0 1.79305e-06 0)
(0 2.89327e-07 0)
(0 9.54914e-07 0)
(0 -2.05819e-06 0)
(0 3.85985e-06 0)
(0 -1.23036e-06 0)
(0 4.76079e-06 0)
(0 1.79507e-06 0)
(0 1.79496e-06 0)
(0 1.27859e-06 0)
(0 -7.41052e-08 0)
(0 -6.30456e-06 0)
(0 -6.379e-06 0)
(0 2.9966e-07 0)
(0 3.49507e-07 0)
(0 8.5984e-07 0)
(0 1.791e-06 0)
(0 1.7876e-06 0)
(0 4.30062e-07 0)
(0 1.54548e-06 0)
(0 1.31474e-06 0)
(0 -1.96061e-06 0)
(0 1.64114e-06 0)
(0 -2.36692e-07 0)
(0 1.8083e-06 0)
(0 1.70955e-06 0)
(0 1.807e-06 0)
(0 1.76962e-06 0)
(0 -1.09419e-05 0)
(0 -2.34905e-06 0)
(0 1.79307e-06 0)
(0 1.79311e-06 0)
(0 1.80667e-06 0)
(0 1.63954e-06 0)
(0 1.65853e-06 0)
(0 1.79502e-06 0)
(0 3.60021e-06 0)
(0 1.52242e-06 0)
(0 1.79352e-06 0)
(0 5.24963e-07 0)
(0 3.60776e-06 0)
(0 -2.06023e-06 0)
(0 8.42814e-08 0)
(0 1.79665e-06 0)
(0 1.79472e-06 0)
(0 1.73261e-06 0)
(0 -1.77792e-06 0)
(0 -8.2667e-06 0)
(0 1.28294e-06 0)
(0 1.79501e-06 0)
(0 -1.89846e-06 0)
(0 1.78026e-06 0)
(0 2.06959e-06 0)
(0 -7.84973e-08 0)
(0 1.66855e-06 0)
(0 4.44923e-06 0)
(0 1.6825e-06 0)
(0 -4.462e-07 0)
(0 7.98939e-07 0)
(0 3.94664e-06 0)
(0 -4.15513e-07 0)
(0 -4.89147e-06 0)
(0 1.68574e-06 0)
(0 1.10097e-06 0)
(0 1.79433e-06 0)
(0 -6.29144e-06 0)
(0 1.6731e-06 0)
(0 -1.39553e-06 0)
(0 1.55026e-06 0)
(0 1.61069e-06 0)
(0 1.3671e-06 0)
(0 1.90387e-06 0)
(0 -5.89122e-06 0)
(0 1.78215e-06 0)
(0 1.21203e-06 0)
(0 -7.12056e-07 0)
(0 1.79506e-06 0)
(0 4.48232e-07 0)
(0 -1.39484e-06 0)
(0 -1.03231e-06 0)
(0 1.5966e-06 0)
(0 1.79545e-06 0)
(0 1.58194e-06 0)
(0 -1.55874e-06 0)
(0 1.58596e-06 0)
(0 4.85755e-06 0)
(0 4.44157e-07 0)
(0 -2.21267e-06 0)
(0 1.76749e-06 0)
(0 1.79504e-06 0)
(0 6.09673e-06 0)
(0 -9.56489e-06 0)
(0 1.75867e-06 0)
(0 -1.04348e-06 0)
(0 1.76467e-06 0)
(0 1.79506e-06 0)
(0 -3.40767e-07 0)
(0 -2.97749e-07 0)
(0 1.79532e-06 0)
(0 -2.41512e-06 0)
(0 2.07658e-06 0)
(0 1.79507e-06 0)
(0 1.79035e-06 0)
(0 1.65639e-06 0)
(0 -5.60051e-07 0)
(0 1.79476e-06 0)
(0 1.47468e-06 0)
(0 -1.01015e-06 0)
(0 1.78127e-06 0)
(0 -2.38148e-06 0)
(0 1.7891e-06 0)
(0 -4.64053e-06 0)
(0 1.22527e-06 0)
(0 4.34034e-07 0)
(0 -8.71831e-07 0)
(0 5.23642e-07 0)
(0 4.63492e-06 0)
(0 1.79487e-06 0)
(0 -1.77735e-06 0)
(0 2.01995e-06 0)
(0 1.77336e-06 0)
(0 9.85857e-08 0)
(0 4.48472e-06 0)
(0 1.23883e-06 0)
(0 1.18026e-06 0)
(0 3.47302e-06 0)
(0 1.78095e-06 0)
(0 3.93277e-06 0)
(0 1.37955e-06 0)
(0 1.79497e-06 0)
(0 -5.69515e-07 0)
(0 -1.15729e-06 0)
(0 1.33039e-06 0)
(0 1.88895e-07 0)
(0 1.46472e-06 0)
(0 7.64538e-07 0)
(0 1.13076e-07 0)
(0 1.77194e-06 0)
(0 -2.44741e-07 0)
(0 8.10036e-07 0)
(0 -1.69008e-07 0)
(0 -1.23784e-05 0)
(0 2.77146e-06 0)
(0 -2.70941e-06 0)
(0 1.118e-06 0)
(0 -1.60525e-06 0)
(0 -7.30111e-06 0)
(0 -5.44342e-07 0)
(0 -8.46775e-07 0)
(0 1.80384e-06 0)
(0 1.5259e-06 0)
(0 -9.89332e-07 0)
(0 2.60597e-06 0)
(0 -3.10363e-07 0)
(0 1.68745e-06 0)
(0 3.76623e-06 0)
(0 1.79504e-06 0)
(0 4.51401e-07 0)
(0 -7.51925e-07 0)
(0 2.37562e-06 0)
(0 1.78891e-06 0)
(0 1.79323e-06 0)
(0 3.38043e-06 0)
(0 -1.8359e-06 0)
(0 5.77892e-06 0)
(0 8.17361e-07 0)
(0 5.38285e-06 0)
(0 -1.49543e-06 0)
(0 1.6621e-06 0)
(0 8.07176e-07 0)
(0 -1.33997e-05 0)
(0 2.05591e-06 0)
(0 1.63973e-06 0)
(0 5.15134e-06 0)
(0 -1.39534e-06 0)
(0 1.71816e-06 0)
(0 1.78962e-06 0)
(0 1.79044e-06 0)
(0 1.62511e-06 0)
(0 1.79304e-06 0)
(0 1.66327e-06 0)
(0 2.8619e-07 0)
(0 1.81857e-07 0)
(0 1.79507e-06 0)
(0 -1.51805e-06 0)
(0 5.24623e-07 0)
(0 6.09478e-07 0)
(0 4.16225e-07 0)
(0 1.02472e-06 0)
(0 -1.18327e-05 0)
(0 1.11038e-06 0)
(0 -1.897e-07 0)
(0 -8.66074e-07 0)
(0 1.67633e-06 0)
(0 1.78893e-06 0)
(0 1.49261e-06 0)
(0 4.91937e-06 0)
(0 1.75933e-06 0)
(0 -7.94231e-07 0)
(0 1.8125e-06 0)
(0 1.79702e-06 0)
(0 -4.78309e-07 0)
(0 5.3429e-06 0)
(0 1.9314e-06 0)
(0 -6.0756e-07 0)
(0 -2.21648e-07 0)
(0 5.38214e-06 0)
(0 6.30694e-07 0)
(0 1.7917e-06 0)
(0 1.77558e-06 0)
(0 -2.87221e-06 0)
(0 2.6678e-07 0)
(0 1.57407e-06 0)
(0 1.30639e-06 0)
(0 4.27337e-06 0)
(0 9.02637e-07 0)
(0 1.19255e-06 0)
(0 1.76874e-06 0)
(0 6.08397e-07 0)
(0 -6.21762e-07 0)
(0 -1.03985e-06 0)
(0 1.91321e-07 0)
(0 5.62476e-06 0)
(0 1.54425e-06 0)
(0 -5.83886e-07 0)
(0 1.79411e-06 0)
(0 1.15103e-06 0)
(0 1.451e-06 0)
(0 -2.91089e-06 0)
(0 7.63609e-07 0)
(0 1.79298e-06 0)
(0 1.65378e-06 0)
(0 1.76787e-06 0)
(0 1.5929e-06 0)
(0 1.79505e-06 0)
(0 5.4761e-06 0)
(0 1.72891e-08 0)
(0 -1.52929e-06 0)
(0 1.45405e-06 0)
(0 1.90645e-06 0)
(0 5.22992e-07 0)
(0 1.28483e-06 0)
(0 -3.25473e-07 0)
(0 3.90912e-06 0)
(0 4.50037e-06 0)
(0 -7.12842e-06 0)
(0 6.31862e-07 0)
(0 1.1011e-06 0)
(0 1.68341e-06 0)
(0 1.74091e-06 0)
(0 -6.75424e-07 0)
(0 1.79511e-06 0)
(0 1.31354e-06 0)
(0 3.31496e-06 0)
(0 -2.70844e-06 0)
(0 2.17513e-06 0)
(0 1.33804e-06 0)
(0 -6.52226e-07 0)
(0 -1.77514e-06 0)
(0 1.79439e-06 0)
(0 1.79507e-06 0)
(0 1.79355e-06 0)
(0 -8.65605e-06 0)
(0 1.79507e-06 0)
(0 -1.7458e-06 0)
(0 1.81058e-06 0)
(0 1.7942e-06 0)
(0 -9.78642e-07 0)
(0 1.49635e-08 0)
(0 1.36286e-06 0)
(0 -1.2672e-06 0)
(0 4.07933e-06 0)
(0 1.78996e-06 0)
(0 -1.17693e-05 0)
(0 2.74781e-06 0)
(0 1.66546e-06 0)
(0 1.77019e-06 0)
(0 1.84809e-06 0)
(0 -6.95512e-07 0)
(0 3.35086e-06 0)
(0 -1.56076e-06 0)
(0 1.19308e-06 0)
(0 3.20049e-06 0)
(0 1.79386e-06 0)
(0 -8.17977e-07 0)
(0 4.52682e-06 0)
(0 1.76198e-06 0)
(0 1.60385e-06 0)
(0 7.4812e-07 0)
(0 3.53552e-07 0)
(0 1.35462e-06 0)
(0 -6.48943e-07 0)
(0 1.79055e-06 0)
(0 -1.76323e-06 0)
(0 1.02208e-06 0)
(0 1.79831e-06 0)
(0 4.81965e-06 0)
(0 1.79332e-06 0)
(0 4.42257e-06 0)
(0 1.06767e-06 0)
(0 1.77328e-06 0)
(0 1.79044e-06 0)
(0 -7.62087e-07 0)
(0 -1.65229e-07 0)
(0 1.83409e-06 0)
(0 4.17484e-07 0)
(0 1.63043e-07 0)
(0 1.10547e-06 0)
(0 -2.79324e-06 0)
(0 1.81411e-06 0)
(0 2.43718e-06 0)
(0 -4.90494e-06 0)
(0 1.64476e-06 0)
(0 1.77002e-06 0)
(0 1.48701e-06 0)
(0 2.97182e-06 0)
(0 1.78751e-06 0)
(0 1.24217e-06 0)
(0 -1.96971e-06 0)
(0 1.50773e-06 0)
(0 -7.44715e-07 0)
(0 -2.86193e-06 0)
(0 1.778e-06 0)
(0 -5.78759e-07 0)
(0 9.57044e-07 0)
(0 -8.50014e-07 0)
(0 1.79276e-06 0)
(0 -8.95579e-06 0)
(0 9.8318e-07 0)
(0 1.79153e-06 0)
(0 -1.42009e-06 0)
(0 1.795e-06 0)
(0 -2.51841e-06 0)
(0 -5.00213e-07 0)
(0 5.78876e-06 0)
(0 1.76114e-06 0)
(0 -7.39348e-06 0)
(0 -1.4649e-06 0)
(0 1.77593e-06 0)
(0 1.79491e-06 0)
(0 4.99029e-06 0)
(0 1.81425e-06 0)
(0 1.43863e-06 0)
(0 -1.06157e-05 0)
(0 -1.10451e-06 0)
(0 1.77457e-06 0)
(0 3.07938e-06 0)
(0 1.55118e-06 0)
(0 1.18986e-06 0)
(0 3.09767e-06 0)
(0 1.75971e-06 0)
(0 1.79912e-06 0)
(0 1.55185e-06 0)
(0 -5.23613e-07 0)
(0 1.7952e-06 0)
(0 1.07621e-06 0)
(0 1.78797e-06 0)
(0 1.67294e-06 0)
(0 -8.40668e-07 0)
(0 1.79511e-06 0)
(0 2.69056e-06 0)
(0 1.37233e-06 0)
(0 -7.50217e-06 0)
(0 1.79736e-06 0)
(0 4.21979e-06 0)
(0 -1.13906e-05 0)
(0 1.5937e-06 0)
(0 1.14035e-06 0)
(0 1.52421e-06 0)
(0 4.89538e-06 0)
(0 -1.06695e-06 0)
(0 1.79509e-06 0)
(0 1.4693e-06 0)
(0 8.25501e-07 0)
(0 7.09437e-07 0)
(0 1.74541e-06 0)
(0 -2.7606e-07 0)
(0 -9.16047e-07 0)
(0 8.51693e-07 0)
(0 1.09101e-06 0)
(0 -3.24e-06 0)
(0 -1.40564e-06 0)
(0 2.27373e-07 0)
(0 5.33879e-06 0)
(0 -1.59284e-06 0)
(0 5.82569e-06 0)
(0 1.32524e-06 0)
(0 5.59462e-07 0)
(0 1.77e-06 0)
(0 3.85596e-06 0)
(0 1.78709e-06 0)
(0 -5.86353e-07 0)
(0 -4.08685e-06 0)
(0 4.53198e-06 0)
(0 1.35929e-06 0)
(0 -1.08608e-06 0)
(0 -9.09049e-07 0)
(0 1.79587e-06 0)
(0 1.79417e-06 0)
(0 -3.23418e-07 0)
(0 3.35119e-06 0)
(0 1.79633e-06 0)
(0 5.97617e-07 0)
(0 1.79721e-06 0)
(0 1.54058e-06 0)
(0 1.72685e-06 0)
(0 1.79485e-06 0)
(0 1.81234e-06 0)
(0 1.77743e-06 0)
(0 -8.42572e-06 0)
(0 -1.03238e-05 0)
(0 5.23307e-06 0)
(0 1.69363e-06 0)
(0 -8.53154e-07 0)
(0 2.6861e-06 0)
(0 1.76633e-06 0)
(0 2.79951e-07 0)
(0 2.1238e-06 0)
(0 1.04775e-06 0)
(0 1.79514e-06 0)
(0 1.74445e-06 0)
(0 4.40709e-06 0)
(0 1.79512e-06 0)
(0 1.78998e-06 0)
(0 -2.4012e-06 0)
(0 2.07183e-06 0)
(0 -5.5081e-07 0)
(0 1.76866e-06 0)
(0 -1.53543e-05 0)
(0 -5.31583e-07 0)
(0 5.11806e-07 0)
(0 3.85109e-06 0)
(0 -9.66007e-06 0)
(0 1.97758e-06 0)
(0 6.6325e-07 0)
(0 -5.18407e-06 0)
(0 -7.45639e-06 0)
(0 -2.62324e-06 0)
(0 2.02368e-06 0)
(0 1.34467e-06 0)
(0 -1.54513e-06 0)
(0 -2.64558e-06 0)
(0 -8.67516e-06 0)
(0 -1.43206e-06 0)
(0 1.52089e-06 0)
(0 1.5882e-06 0)
(0 1.59458e-06 0)
(0 -2.49193e-07 0)
(0 -1.17842e-06 0)
(0 2.21304e-06 0)
(0 3.0748e-06 0)
(0 1.81283e-06 0)
(0 -1.43416e-06 0)
(0 1.10185e-06 0)
(0 1.69716e-06 0)
(0 1.79466e-06 0)
(0 4.62121e-06 0)
(0 1.80407e-06 0)
(0 1.79468e-06 0)
(0 3.59117e-06 0)
(0 1.68602e-06 0)
(0 1.30409e-06 0)
(0 -1.70372e-06 0)
(0 1.794e-06 0)
(0 1.78858e-06 0)
(0 1.3668e-06 0)
(0 1.80386e-06 0)
(0 -3.31861e-07 0)
(0 3.91748e-07 0)
(0 -1.25021e-05 0)
(0 1.79663e-06 0)
(0 3.63814e-06 0)
(0 1.79334e-06 0)
(0 4.33573e-07 0)
(0 1.09633e-06 0)
(0 1.72585e-06 0)
(0 1.79382e-06 0)
(0 1.77727e-06 0)
(0 1.77201e-06 0)
(0 1.81148e-06 0)
(0 1.77177e-06 0)
(0 4.65753e-06 0)
(0 1.7893e-06 0)
(0 5.38482e-07 0)
(0 4.59245e-06 0)
(0 -1.31494e-05 0)
(0 -1.54826e-05 0)
(0 1.02709e-06 0)
(0 1.66094e-06 0)
(0 1.79185e-06 0)
(0 -1.46686e-06 0)
(0 -3.73547e-07 0)
(0 1.67272e-06 0)
(0 -1.09557e-05 0)
(0 1.79506e-06 0)
(0 1.76574e-06 0)
(0 1.29382e-06 0)
(0 6.08589e-06 0)
(0 1.65331e-06 0)
(0 -1.86489e-07 0)
(0 1.79249e-06 0)
(0 -1.51672e-05 0)
(0 1.17876e-06 0)
(0 1.7286e-06 0)
(0 -1.3967e-06 0)
(0 -2.57619e-06 0)
(0 4.51402e-07 0)
(0 8.16132e-07 0)
(0 1.76576e-06 0)
(0 -2.36573e-07 0)
(0 1.74115e-06 0)
(0 -9.71809e-06 0)
(0 2.15656e-06 0)
(0 1.79508e-06 0)
(0 9.55382e-07 0)
(0 1.27489e-06 0)
(0 1.72283e-06 0)
(0 -2.81259e-06 0)
(0 1.79505e-06 0)
(0 1.79542e-06 0)
(0 1.6809e-06 0)
(0 1.78672e-06 0)
(0 -8.09941e-07 0)
(0 1.7303e-06 0)
(0 1.76289e-06 0)
(0 5.88642e-07 0)
(0 6.62093e-06 0)
(0 1.7873e-06 0)
(0 1.20699e-06 0)
(0 4.62867e-06 0)
(0 -4.04886e-07 0)
(0 1.80434e-06 0)
(0 -3.20119e-07 0)
(0 4.42651e-06 0)
(0 1.04194e-06 0)
(0 7.48734e-07 0)
(0 1.79505e-06 0)
(0 1.26636e-06 0)
(0 -1.04054e-05 0)
(0 9.31869e-07 0)
(0 2.27044e-06 0)
(0 1.7238e-06 0)
(0 -4.5619e-06 0)
(0 1.79505e-06 0)
(0 2.97514e-07 0)
(0 1.81371e-06 0)
(0 1.52136e-06 0)
(0 1.51432e-06 0)
(0 -8.2497e-07 0)
(0 1.77487e-06 0)
(0 1.79477e-06 0)
(0 -1.76973e-06 0)
(0 -2.40664e-07 0)
(0 1.62117e-06 0)
(0 -8.96799e-06 0)
(0 1.53666e-06 0)
(0 1.72575e-06 0)
(0 1.82007e-06 0)
(0 -1.45969e-06 0)
(0 -1.34287e-06 0)
(0 1.78761e-06 0)
(0 9.93914e-07 0)
(0 1.78943e-06 0)
(0 1.77795e-06 0)
(0 -5.13501e-06 0)
(0 1.76117e-06 0)
(0 1.01636e-06 0)
(0 1.74217e-06 0)
(0 -1.3979e-06 0)
(0 1.79529e-06 0)
(0 3.68593e-06 0)
(0 1.79486e-06 0)
(0 -3.01207e-06 0)
(0 1.54186e-07 0)
(0 -8.18341e-06 0)
(0 -2.20568e-07 0)
(0 1.78206e-06 0)
(0 -6.53366e-06 0)
(0 -1.35514e-06 0)
(0 -9.30315e-07 0)
(0 1.79494e-06 0)
(0 3.88108e-06 0)
(0 -1.92878e-06 0)
(0 1.79726e-06 0)
(0 -7.49203e-07 0)
(0 -1.1629e-05 0)
(0 5.66433e-06 0)
(0 -8.06852e-06 0)
(0 5.3578e-07 0)
(0 1.97336e-06 0)
(0 9.47045e-07 0)
(0 1.94817e-06 0)
(0 1.07678e-06 0)
(0 -1.37131e-05 0)
(0 1.77157e-06 0)
(0 1.79905e-06 0)
(0 1.7623e-06 0)
(0 1.79724e-06 0)
(0 -4.19927e-06 0)
(0 1.0169e-06 0)
(0 6.77925e-07 0)
(0 5.86545e-06 0)
(0 -3.62015e-06 0)
(0 1.81987e-06 0)
(0 1.81162e-06 0)
(0 -1.8442e-06 0)
(0 5.79715e-07 0)
(0 1.31052e-07 0)
(0 1.79402e-06 0)
(0 -1.97154e-06 0)
(0 1.62132e-06 0)
(0 1.62991e-06 0)
(0 1.77432e-06 0)
(0 1.79339e-06 0)
(0 1.79511e-06 0)
(0 1.79526e-06 0)
(0 -1.56829e-05 0)
(0 1.63309e-06 0)
(0 1.79494e-06 0)
(0 1.79403e-06 0)
(0 7.52543e-07 0)
(0 -5.87254e-07 0)
(0 -1.88671e-06 0)
(0 1.84594e-06 0)
(0 1.52165e-06 0)
(0 1.04003e-06 0)
(0 8.734e-07 0)
(0 -6.02245e-08 0)
(0 1.79506e-06 0)
(0 -1.59167e-06 0)
(0 -1.18576e-06 0)
(0 1.73616e-06 0)
(0 1.19046e-06 0)
(0 -5.96833e-07 0)
(0 -1.68098e-06 0)
(0 -1.74368e-06 0)
(0 3.66597e-06 0)
(0 1.79661e-06 0)
(0 1.78559e-06 0)
(0 1.795e-06 0)
(0 1.78241e-06 0)
(0 4.46597e-07 0)
(0 1.75304e-06 0)
(0 -8.70068e-06 0)
(0 1.59611e-06 0)
(0 2.76198e-06 0)
(0 -1.58363e-06 0)
(0 -1.1402e-05 0)
(0 1.81538e-06 0)
(0 -1.23449e-06 0)
(0 -7.34398e-07 0)
(0 1.78823e-06 0)
(0 1.80807e-06 0)
(0 1.68494e-06 0)
(0 1.27502e-06 0)
(0 -5.65638e-07 0)
(0 9.14002e-07 0)
(0 1.79507e-06 0)
(0 1.79507e-06 0)
(0 1.73712e-06 0)
(0 1.80693e-06 0)
(0 1.7573e-06 0)
(0 1.79334e-06 0)
(0 1.7731e-06 0)
(0 1.69931e-06 0)
(0 7.17963e-07 0)
(0 -2.91158e-06 0)
(0 5.20986e-07 0)
(0 1.37641e-06 0)
(0 -4.75462e-06 0)
(0 4.46805e-07 0)
(0 1.73298e-06 0)
(0 2.94181e-06 0)
(0 -5.69754e-07 0)
(0 -5.91908e-07 0)
(0 1.78841e-06 0)
(0 8.69436e-07 0)
(0 5.46128e-06 0)
(0 8.53381e-07 0)
(0 -1.75731e-06 0)
(0 1.73244e-06 0)
(0 1.72553e-06 0)
(0 1.74132e-06 0)
(0 -6.82989e-06 0)
(0 1.79503e-06 0)
(0 -4.76452e-06 0)
(0 -8.54751e-07 0)
(0 1.05814e-06 0)
(0 1.70544e-06 0)
(0 -2.74701e-06 0)
(0 1.78513e-06 0)
(0 -1.24314e-06 0)
(0 1.79318e-06 0)
(0 4.50075e-06 0)
(0 1.79863e-06 0)
(0 1.66715e-06 0)
(0 -7.46567e-07 0)
(0 4.1377e-07 0)
(0 -1.47321e-06 0)
(0 1.79497e-06 0)
(0 1.7922e-06 0)
(0 1.79545e-06 0)
(0 1.93203e-06 0)
(0 -7.06251e-07 0)
(0 -2.8154e-06 0)
(0 1.79291e-06 0)
(0 1.00227e-06 0)
(0 3.08457e-06 0)
(0 1.71944e-06 0)
(0 -1.33047e-06 0)
(0 -1.06438e-06 0)
(0 1.80805e-06 0)
(0 -1.37106e-05 0)
(0 -1.21968e-06 0)
(0 3.23801e-06 0)
(0 1.12197e-06 0)
(0 -1.19973e-05 0)
(0 -1.14126e-05 0)
(0 -7.75994e-07 0)
(0 -3.9125e-07 0)
(0 4.51105e-07 0)
(0 7.74525e-07 0)
(0 5.98318e-06 0)
(0 1.79507e-06 0)
(0 -1.74085e-06 0)
(0 1.79027e-06 0)
(0 1.79508e-06 0)
(0 1.56495e-06 0)
(0 1.79431e-06 0)
(0 1.793e-06 0)
(0 -1.01053e-06 0)
(0 -1.30308e-06 0)
(0 3.76025e-06 0)
(0 9.66992e-07 0)
(0 1.76118e-06 0)
(0 7.72359e-07 0)
(0 1.76639e-06 0)
(0 1.10606e-06 0)
(0 3.36153e-07 0)
(0 -1.13795e-06 0)
(0 3.1233e-07 0)
(0 3.61577e-06 0)
(0 1.76206e-06 0)
(0 1.62034e-06 0)
(0 1.80808e-06 0)
(0 -8.25897e-06 0)
(0 1.43543e-06 0)
(0 -2.92926e-06 0)
(0 5.71368e-06 0)
(0 -4.85838e-07 0)
(0 -7.31329e-07 0)
(0 -6.48427e-06 0)
(0 1.78053e-06 0)
(0 8.91763e-07 0)
(0 -1.68701e-06 0)
(0 4.84211e-06 0)
(0 1.25386e-06 0)