/*--------------------------------*- C++ -*----------------------------------*\
| =========                 |                                                 |
| \\      /  F ield         | OpenFOAM: The Open Source CFD Toolbox           |
|  \\    /   O peration     | Version:  v2012                                 |
|   \\  /    A nd           | Website:  www.openfoam.com                      |
|    \\/     M anipulation  |                                                 |
\*---------------------------------------------------------------------------*/
FoamFile
{
    version     2.0;
    format      ascii;
    class       volVectorField;
    location    "550";
    object      ddtCorrDdt0(U);
}
// * * * * * * * * * * * * * * * * * * * * * * * * * * * * * * * * * * * * * //

dimensions      [0 1 -2 0 0 0 0];


internalField   nonuniform List<vector> 
18758
(
(0.00225975 -0.00562113 1.03641e-18)
(0.0207539 -0.0297428 -1.22437e-18)
(-3.38823e-05 8.75067e-06 -7.08778e-19)
(0.0013593 -0.00618612 -1.41432e-18)
(-0.00263287 0.00719655 1.96912e-19)
(-8.24523e-06 -1.43645e-05 -4.52218e-20)
(-7.42586e-05 -2.86416e-05 -3.42747e-19)
(-0.00141742 0.00045172 1.22503e-18)
(-0.00294679 0.00608661 -6.77161e-19)
(-0.00410104 0.00465838 7.29807e-19)
(0.00535614 -0.0291988 -1.90288e-19)
(-0.0575791 -0.0843988 -1.29337e-18)
(-0.0655051 0.032199 -9.6527e-20)
(-0.000674299 -0.000855421 7.11975e-19)
(-7.19395e-05 2.41926e-06 7.68696e-20)
(-6.5096e-05 4.36478e-05 -6.12731e-19)
(-0.0590716 -0.0511943 -2.29803e-18)
(-9.45453e-05 -8.59497e-05 -4.23457e-21)
(-7.51809e-05 7.8658e-06 1.78738e-19)
(0.00298175 0.00165809 -1.29668e-20)
(0.0629414 -0.0610156 2.3208e-19)
(0.0866944 0.0127015 -5.80806e-18)
(-5.12966e-06 -9.65753e-06 2.78968e-20)
(1.29326e-05 5.02462e-06 -5.35766e-19)
(0.0977938 0.0115774 3.21898e-17)
(0.0751979 -0.0641389 -1.68918e-19)
(0.0107863 0.013288 5.07071e-18)
(-0.0686878 -0.0380997 2.15853e-20)
(0.0138185 -0.0314214 1.22765e-19)
(0.0402867 -0.0364 -8.61301e-20)
(-0.142526 0.630061 3.00564e-18)
(-0.00211008 -0.024152 -1.16214e-17)
(-0.00124577 0.000423591 1.46557e-18)
(0.121291 -0.0185471 2.86941e-18)
(-0.000742493 0.00857599 7.69298e-19)
(0.0343087 -0.0446833 2.95678e-19)
(-0.0685673 0.020414 3.40017e-19)
(-0.00114658 0.00750546 -1.28787e-18)
(-0.00178107 -0.518074 -1.8506e-19)
(0.000366174 -0.000519164 -2.64545e-20)
(-0.02719 -0.150383 -2.85556e-18)
(-0.00672509 0.00339303 -1.42891e-18)
(-0.0598429 -0.0348178 -5.94258e-20)
(-0.00142934 0.000852364 -3.98607e-19)
(-4.55058e-05 -8.25909e-06 -9.7717e-19)
(-0.131988 0.565888 4.97161e-17)
(-0.00595506 0.00269333 1.3073e-18)
(0.008001 -0.0347858 1.33458e-18)
(-0.0561537 0.196359 1.69938e-19)
(-0.00147691 -0.00538873 1.26508e-18)
(0.00208671 -0.0376052 7.72098e-19)
(0.226712 -0.100223 8.2259e-19)
(-0.00236364 -0.00531061 2.41693e-19)
(-0.000104108 -0.003845 -9.44116e-20)
(0.0529211 -0.00365056 -3.00325e-18)
(-0.0509421 0.0331093 -5.12703e-19)
(0.000282773 0.000371923 -8.82579e-20)
(0.00279093 0.00134069 -3.28777e-20)
(0.00348715 -0.0323618 7.43133e-19)
(0.000329059 0.000290126 3.8916e-20)
(-6.15992e-05 -5.74927e-06 3.0305e-19)
(-0.00118544 0.000991591 2.37907e-19)
(0.0154122 0.06984 -5.2613e-18)
(-0.158944 -0.20885 -6.80684e-19)
(-6.53099e-05 -3.41859e-06 -2.49354e-19)
(-0.0272885 0.0804458 2.06088e-17)
(-0.000109952 -8.8536e-06 1.55711e-19)
(5.4233e-05 -0.000117545 2.06192e-20)
(-0.0722613 -0.0322597 3.78572e-18)
(-8.41649e-05 -0.000117755 -2.76742e-22)
(0.296795 -0.0674522 -1.44556e-18)
(0.0826464 -0.0722499 -5.74182e-18)
(-4.32951e-05 7.26446e-05 3.30383e-19)
(0.00249614 0.00643486 7.01769e-20)
(0.023494 0.0435849 4.66532e-19)
(-0.151796 0.604814 1.48853e-17)
(0.0644604 -0.0363544 -4.28875e-18)
(-0.0628954 0.00100344 -1.78851e-19)
(-0.0041329 0.00568338 -1.08833e-18)
(-0.0625306 -0.00937825 -9.14698e-19)
(0.0301669 -0.01306 -1.05803e-17)
(-0.00777472 -0.525282 2.96829e-17)
(-0.073268 -0.0116194 2.95577e-19)
(0.00692052 0.0263022 1.62066e-19)
(-0.00287157 4.15166e-05 -1.61134e-19)
(0.0435398 -0.002982 -2.84889e-17)
(0.00128814 -0.00156614 1.59622e-19)
(0.00315801 0.00707822 -5.49246e-20)
(0.0285292 0.0681395 -8.18595e-19)
(0.0420459 -0.000595478 4.2912e-17)
(0.219906 0.0132937 9.14666e-19)
(-5.63231e-05 3.1729e-06 1.66434e-19)
(0.0205414 -0.00759633 2.27039e-19)
(-0.0603868 0.17549 2.81161e-17)
(-4.84254e-05 6.99288e-05 -2.28323e-19)
(-0.000101146 -3.24151e-05 -1.37369e-19)
(7.13301e-06 -0.000298635 3.09257e-20)
(0.00699292 -0.0188009 3.9483e-18)
(-0.0298676 0.00815444 -1.82173e-18)
(-0.000114972 -0.000170714 3.55573e-20)
(-0.159348 0.597338 1.38448e-17)
(0.00947268 0.00245342 -1.14894e-18)
(4.49954e-05 -0.000103405 1.44816e-19)
(-9.95357e-05 -3.47386e-05 1.43286e-19)
(-0.015221 0.0696216 -5.61838e-18)
(0.0689579 -0.0484692 -2.14357e-19)
(0.0101408 -0.034744 -1.28648e-18)
(0.245715 0.00902588 3.81453e-19)
(0.0796976 -0.0326532 -7.21008e-20)
(0.038196 -0.109424 3.64738e-19)
(-7.34659e-05 2.84954e-05 -6.54615e-19)
(-0.176046 -0.216863 1.86597e-18)
(-0.00584572 -0.00517505 1.24309e-18)
(-7.08015e-05 6.21986e-06 -9.75081e-20)
(0.00985132 0.00159104 1.10076e-18)
(-0.00660899 -0.0933085 9.08731e-18)
(0.00526716 -0.0189771 1.44568e-18)
(0.000344671 -1.61966e-05 -4.33553e-19)
(0.0643849 -0.119952 2.67536e-18)
(-0.0032942 -0.00143272 1.26478e-19)
(-0.00010134 1.68491e-05 -1.40236e-19)
(0.0583072 -0.0324289 -2.16678e-18)
(-0.00286226 -0.000439243 4.96231e-19)
(-4.01224e-05 3.63788e-05 -2.51758e-19)
(-0.0256852 0.216026 5.92813e-18)
(0.000354556 -0.00381106 -3.23651e-19)
(-0.000956651 0.000397271 3.78889e-19)
(-5.23154e-05 2.55424e-05 2.44706e-19)
(0.0311376 -0.0497001 -2.71552e-18)
(-0.0057861 0.151922 8.1594e-18)
(0.00600324 -0.0322288 -1.0967e-18)
(-0.000120008 -1.94893e-06 -7.50261e-21)
(-0.00707761 -0.000271865 7.30947e-19)
(0.0106164 0.0563805 -4.27023e-19)
(0.00040083 -0.000633757 2.5943e-20)
(-0.000139826 -1.64246e-06 2.92208e-19)
(-0.0162698 -0.0757981 4.31063e-19)
(-0.0022775 -0.00105449 -1.22105e-19)
(-0.0288061 -0.0797251 -1.20044e-19)
(0.0287763 -0.0147153 -6.21812e-18)
(-0.00749131 -0.00537945 -1.51669e-19)
(-0.0289687 -0.171627 -2.15028e-18)
(0.00672417 -0.0116457 1.65853e-18)
(0.0735059 -0.0338411 -8.19221e-19)
(-0.0230745 0.213266 -3.06729e-18)
(0.0125706 -0.00513325 -5.19305e-18)
(-0.0315344 0.0815445 -1.37771e-17)
(0.0282239 -0.0436077 1.10752e-18)
(0.0103972 -0.0290121 -6.12999e-19)
(0.244585 -0.0653101 1.23432e-18)
(0.0319221 0.143965 7.84667e-18)
(-0.0228003 0.179756 -1.8568e-17)
(-8.1922e-05 -6.10107e-05 9.82635e-21)
(0.00162299 0.00852707 -1.15585e-18)
(-0.0293131 -0.130517 2.06919e-18)
(0.110517 0.0238649 -1.26709e-18)
(0.0198805 -0.00828621 1.03439e-18)
(0.0338041 -0.0509573 -4.10566e-18)
(0.0160152 0.0240765 -2.79839e-19)
(0.0161449 -0.032096 -3.90398e-19)
(-0.0798114 -0.275892 7.51419e-18)
(-4.12687e-06 9.51407e-05 -2.51839e-19)
(-0.111439 0.281979 -2.56903e-17)
(-0.0215161 0.0716825 1.73308e-18)
(-0.00209125 0.290568 -3.97709e-18)
(0.000746053 -1.82481e-05 2.7168e-19)
(2.61544e-06 8.5707e-05 3.007e-19)
(0.122491 -0.146461 3.54428e-18)
(0.000364643 0.155015 -4.62767e-18)
(-0.0417707 -0.142564 5.61467e-18)
(-0.0271234 0.198 -1.6189e-17)
(-2.87684e-05 5.27519e-06 6.96212e-19)
(0.0152429 -0.0361342 1.90832e-19)
(-0.0034259 -0.114919 1.30083e-19)
(0.0831084 -0.031342 -6.52622e-19)
(-7.86531e-05 -1.57012e-05 1.78037e-19)
(-4.62416e-05 7.68913e-05 2.29978e-19)
(0.0717568 -0.0521891 -3.21863e-18)
(0.118369 -0.0214676 -5.17102e-18)
(2.16841e-05 -0.000300978 2.36819e-18)
(1.80453e-05 -3.12011e-05 -2.45148e-19)
(0.00183849 -0.00319672 2.98295e-19)
(0.0508906 -0.00554136 4.33239e-18)
(0.000160248 -0.000601985 -9.01632e-18)
(0.181349 -0.160214 -3.26103e-19)
(-2.25419e-05 -0.000105888 -2.59451e-18)
(0.0444978 -0.03684 5.70651e-20)
(0.00686965 -0.011903 2.44388e-18)
(-0.0460177 0.159729 3.27708e-17)
(0.183386 0.0409479 -3.23055e-18)
(-0.0211297 0.175775 9.02672e-18)
(-2.5615e-05 -0.000113231 2.93112e-18)
(-0.0421443 -0.0184776 3.32888e-19)
(0.0930756 -0.0324643 7.99458e-19)
(1.50091e-05 2.64684e-05 4.39276e-20)
(5.42526e-05 -0.00058094 -1.17769e-18)
(-0.0334558 -0.0921102 -1.44874e-17)
(-7.26242e-05 -5.39668e-05 1.82741e-19)
(-0.0310168 0.14216 -2.33407e-17)
(2.73153e-05 -1.28423e-05 -1.6314e-19)
(-0.00198716 -0.000623265 -1.35762e-19)
(0.0359565 -0.0543824 -8.39721e-19)
(0.0816616 0.0464698 1.0715e-19)
(-6.46839e-05 3.36943e-05 -4.3847e-20)
(-7.57158e-05 2.76937e-05 9.96174e-20)
(-0.0964648 0.249798 2.35182e-17)
(-8.78722e-05 9.07773e-05 -5.42928e-20)
(0.000548778 0.00927051 5.71971e-19)
(0.0166925 0.144032 -3.08314e-18)
(-0.0181597 0.147905 -1.11824e-17)
(3.53372e-05 -3.2194e-06 3.61755e-19)
(0.0207933 -0.0115059 4.79088e-19)
(-0.00223501 -0.00105423 2.59238e-19)
(-0.000534053 -0.0018241 9.25596e-19)
(0.00221472 0.000856617 -3.71722e-20)
(3.95158e-05 -0.000313672 1.28706e-20)
(-7.38977e-05 1.54534e-08 -3.11345e-19)
(0.0199584 -0.0104995 -9.31127e-18)
(-3.92558e-06 -2.01933e-05 2.67338e-19)
(-0.00984635 -0.143749 1.5281e-18)
(0.0938183 -0.0324843 -1.37038e-18)
(0.000167235 -0.000281367 4.39947e-19)
(0.00576072 -0.0118624 -5.38563e-18)
(0.0353741 -0.0586808 -1.29918e-18)
(0.0844754 0.0529648 1.28128e-19)
(0.0258681 -0.013442 1.60546e-18)
(0.029879 0.0438028 5.40452e-19)
(0.0395503 0.00726907 5.44902e-18)
(-0.00142533 -0.217987 -8.03403e-18)
(-9.60305e-05 6.00174e-05 1.57822e-19)
(0.0744617 -0.0685831 1.35716e-18)
(0.0120189 -0.0059213 1.59615e-18)
(0.0847304 -0.0347705 -2.36791e-18)
(-0.000134697 -1.70208e-06 -4.29325e-19)
(-8.17537e-05 -6.90669e-05 7.47028e-20)
(0.000285315 -0.000377824 -1.2438e-18)
(-0.0132095 0.0615052 -2.56091e-18)
(-0.0582139 0.199747 7.52127e-18)
(-0.0399118 -0.108563 3.16885e-18)
(-0.000404932 0.000133476 -1.04668e-18)
(-7.66441e-05 2.1083e-05 -8.96274e-19)
(-0.00979934 0.0554347 4.80494e-19)
(-0.025359 -0.0674506 4.26243e-19)
(-2.14928e-06 -7.12527e-07 -3.25347e-19)
(0.237152 -0.0883598 5.12459e-19)
(0.0234619 -0.0979363 6.44852e-19)
(-6.67855e-05 -6.04882e-05 1.63889e-19)
(-0.00015425 -2.71573e-06 4.84522e-19)
(0.00155289 4.70971e-05 3.18623e-19)
(-0.000121573 -0.000174954 7.53906e-21)
(-0.0310638 0.210816 3.43523e-17)
(-0.00130149 9.99495e-05 6.86994e-19)
(0.0395221 -0.0267139 3.88568e-19)
(0.000215962 -0.000536062 8.38107e-19)
(-2.69957e-05 -7.15057e-06 8.09001e-20)
(-0.0253983 -0.131471 4.64335e-18)
(0.000620052 0.000133588 2.65894e-20)
(0.0854671 -0.0759252 3.92986e-18)
(-7.16377e-05 -8.60183e-06 5.78531e-19)
(0.00778226 0.059279 -5.04208e-18)
(-0.00500826 -0.00609041 7.89791e-19)
(-2.76671e-05 5.12903e-05 -2.84064e-19)
(-6.34327e-05 -6.00432e-05 -2.52034e-19)
(-0.0400974 -0.015023 1.55173e-18)
(-0.135377 0.0892349 -7.46783e-18)
(-0.144801 0.128051 1.09661e-18)
(-2.82169e-05 4.75235e-05 4.91147e-19)
(-0.0235547 -0.0751817 -1.45565e-18)
(-7.3933e-05 -6.50099e-05 7.13921e-19)
(-0.000368028 -9.95685e-05 -5.83849e-20)
(0.0241192 -0.149162 -3.96853e-19)
(0.109358 -0.0787598 3.32304e-18)
(-0.000340382 -0.000131085 -5.26122e-20)
(-7.53733e-05 4.20377e-05 1.92125e-19)
(0.00279388 0.000362087 1.26346e-19)
(0.00196492 0.000677851 -2.07725e-19)
(-0.00395615 -0.00270327 -4.80374e-18)
(-7.99268e-06 -2.61743e-05 -1.9225e-19)
(-0.000449825 -0.00221771 -6.91836e-19)
(-0.000743136 -0.000835056 -1.18157e-18)
(-0.000152235 -1.45677e-05 -2.55227e-19)
(-0.000119115 -1.30398e-06 -9.40695e-21)
(-7.18815e-05 -1.48207e-05 1.56932e-18)
(-0.0202051 0.0695394 -8.4911e-18)
(-7.34869e-05 -1.85362e-05 1.43862e-18)
(-8.32394e-05 3.37686e-05 3.10065e-19)
(-6.10823e-05 -7.55039e-05 -2.48822e-20)
(-0.0206579 -0.0642183 1.37312e-18)
(-0.000112477 -5.7359e-05 -4.08002e-19)
(-0.000106903 -4.8273e-05 8.51035e-20)
(-3.15117e-06 -4.12334e-07 3.63729e-19)
(-0.000106132 -0.000396243 5.11838e-19)
(0.000204607 0.000359644 -3.22121e-19)
(1.70586e-05 9.40172e-06 6.89668e-20)
(2.31018e-05 5.43543e-06 -4.458e-19)
(0.00261766 9.10077e-05 3.2672e-19)
(0.0197979 -0.000235053 -1.0773e-18)
(-6.49736e-05 5.49912e-06 -1.87841e-19)
(7.96672e-06 3.00097e-06 4.34159e-19)
(-0.0192759 0.217381 -8.9261e-18)
(-8.44291e-05 -0.00184439 3.74243e-18)
(-2.59755e-05 2.35346e-05 -2.14746e-19)
(-3.37265e-05 2.47252e-05 -6.59738e-20)
(0.0110597 -0.203717 -9.65625e-19)
(-0.0265406 -0.0101815 2.43884e-19)
(1.54617e-05 -1.81844e-05 -4.05711e-20)
(0.00247538 -0.0130003 6.16705e-19)
(0.0740861 -0.0468526 -8.02738e-21)
(-0.00119318 0.00129662 -1.80292e-20)
(-0.0411043 0.0402762 3.53644e-19)
(-7.35347e-05 -3.02452e-05 -1.62167e-18)
(-0.0915046 0.126196 -8.43879e-18)
(-0.0268835 -0.0868615 1.18378e-17)
(-0.0202033 -0.0450002 -1.02441e-18)
(0.0148811 -0.0292404 1.1911e-18)
(0.117846 -0.0125195 1.82813e-17)
(2.75863e-05 -6.2168e-05 1.07351e-19)
(0.0248807 -0.022214 7.34573e-18)
(0.0387911 -0.0653772 7.22674e-19)
(-9.89627e-05 -5.85232e-06 8.99132e-20)
(-0.0213654 -0.0418395 2.12956e-18)
(0.0125048 0.023954 2.06281e-19)
(0.220939 -0.0890023 2.0688e-18)
(-0.000104961 -8.90893e-05 -1.02225e-19)
(3.57409e-05 -8.00328e-05 3.72415e-19)
(-0.0154027 0.148577 9.91607e-18)
(-0.00677638 -0.0771016 3.49255e-19)
(-0.000161343 -5.8046e-05 4.21719e-19)
(-0.034497 0.219766 -1.34983e-17)
(-0.0116862 0.0455317 8.86624e-19)
(-0.0114925 -0.000803055 8.16142e-19)
(0.0280792 0.0551368 8.15328e-18)
(-0.000109279 -8.47758e-05 8.59232e-20)
(0.000760253 9.02011e-05 4.92051e-19)
(-7.15015e-05 -1.63398e-05 -8.63162e-19)
(-6.97644e-05 3.20413e-06 -3.96946e-19)
(0.000500705 -0.000552277 3.3344e-20)
(-0.0033373 0.000216343 -6.75815e-19)
(-0.00151948 0.000309584 1.15022e-19)
(-0.000147967 0.000126946 -1.81385e-19)
(0.000483597 -0.000433347 -3.70378e-20)
(-0.000488623 3.35538e-05 9.5693e-19)
(0.0806468 0.0661404 1.594e-19)
(0.0368696 -0.18717 2.19784e-17)
(-0.00187682 -0.00116462 -3.79464e-19)
(0.0107642 -0.0991962 -7.98517e-18)
(-0.0342763 0.0340532 -5.28516e-18)
(-0.000162896 -5.35373e-05 4.16268e-19)
(0.00296415 -0.00639155 -1.77736e-18)
(-0.0336296 -0.00773938 -1.62063e-19)
(0.0901074 0.0233593 2.53745e-17)
(-0.0461202 -0.137221 -6.44556e-19)
(-0.0782363 -0.0869269 -9.56763e-18)
(-1.55283e-05 -9.2552e-05 -5.65006e-19)
(-0.0427296 0.220732 1.90302e-17)
(-0.0100621 -0.166107 4.54343e-18)
(-0.000238655 -0.0161696 -1.61079e-18)
(-0.000467494 5.48977e-06 -1.57472e-18)
(-0.0109859 0.00103023 -4.23524e-19)
(0.000182407 -0.00196683 -4.24003e-20)
(-0.00131019 0.000597518 4.07088e-19)
(-0.030822 -0.0999379 5.49222e-18)
(0.0878842 -0.0377856 5.31008e-19)
(-0.0603772 -0.0989767 2.09406e-19)
(0.0419586 0.0486965 7.09517e-19)
(0.0857175 -0.0361474 -7.36703e-20)
(-7.19678e-05 -6.66543e-05 -4.81409e-20)
(0.000302361 -0.00294686 1.47278e-17)
(0.00231759 -0.00343423 -1.90311e-19)
(0.00468467 -0.0207996 1.13784e-18)
(-0.0642809 0.214932 -3.46685e-17)
(-0.0193537 -0.0902423 -4.071e-18)
(0.0924145 -0.034623 2.04044e-18)
(-0.105773 0.0621887 2.40863e-18)
(-0.0247776 -0.151959 2.94688e-19)
(-0.0849595 -0.0903629 8.66615e-18)
(-2.8051e-05 -5.04374e-06 -1.12885e-19)
(-0.00183868 0.0656451 1.63259e-17)
(0.0313698 -0.0450549 1.78493e-18)
(-0.0133696 -0.0259963 1.99972e-19)
(-0.0662058 -0.0790873 -5.44498e-20)
(-0.000112449 -1.27765e-05 3.9734e-20)
(1.4555e-05 4.69937e-06 8.20158e-21)
(0.0854237 0.0169038 1.67121e-17)
(-0.0546555 -0.118439 -2.04182e-18)
(0.0128346 0.190298 -6.14689e-18)
(0.00880962 -0.168455 8.3865e-19)
(-0.0303174 0.216824 1.38346e-17)
(-0.00046412 9.45907e-05 -7.1435e-19)
(-0.0434867 -0.10112 1.52556e-18)
(0.0190534 -0.117951 9.91161e-19)
(-6.76685e-05 4.11926e-05 7.31963e-20)
(-0.000871365 -0.000691775 -4.12198e-18)
(0.00220513 -2.082e-05 -7.56118e-20)
(-0.000168418 0.0029942 2.34158e-19)
(-9.56584e-05 1.62528e-05 -4.2756e-19)
(0.000505113 -0.00203885 1.37482e-20)
(-1.36665e-05 -4.32664e-05 -1.5846e-18)
(-0.000116397 -9.73295e-07 2.30164e-20)
(-2.30506e-07 -1.48096e-06 6.54708e-19)
(0.00151296 -0.000673987 -8.48395e-20)
(-0.00931611 0.00695275 6.44652e-20)
(-0.00637964 -0.488512 1.54835e-17)
(0.00228298 -0.00306057 3.43347e-18)
(-0.13157 0.446833 3.03992e-18)
(-0.122134 0.458082 1.15511e-17)
(0.00452744 0.198333 -4.97238e-18)
(-0.00395193 -0.473852 8.97144e-18)
(0.0212532 -0.0506343 -2.71541e-19)
(0.00222432 -7.51589e-05 -2.30707e-19)
(1.55143e-05 2.48444e-06 5.21474e-20)
(-0.0562037 -0.0470713 9.14759e-20)
(-0.000931834 -0.000656825 -7.86643e-19)
(-0.0003509 0.000237987 -1.97654e-18)
(-0.0162408 -0.025606 -6.03829e-19)
(0.00310126 -0.0207486 1.58118e-18)
(-0.0222184 -0.0626511 -9.93918e-19)
(0.000603837 0.000225567 -3.40333e-19)
(0.076603 0.0610494 -2.04206e-19)
(-4.45951e-05 -8.11177e-06 -6.89759e-20)
(-0.000147456 -0.00198615 4.46614e-19)
(8.19765e-06 2.72628e-05 1.8033e-20)
(-0.00917386 0.120442 -1.48941e-17)
(-0.0877453 0.0903458 2.70611e-18)
(-0.0396563 -0.157647 1.27223e-18)
(2.03776e-05 6.01306e-06 -1.28236e-19)
(0.033889 0.0611315 -2.17604e-18)
(0.0196318 -0.00510286 -3.57221e-18)
(-5.56061e-05 -1.92293e-05 8.14217e-19)
(0.000393248 0.00277066 -6.46655e-19)
(2.47558e-05 -4.794e-06 7.28626e-19)
(0.0922252 -0.0368827 -4.84597e-19)
(3.76976e-05 4.00683e-07 -6.27317e-19)
(1.30368e-05 8.5163e-06 -2.4712e-19)
(-0.0966373 0.440721 2.46735e-18)
(0.00254284 -0.0029321 -2.31242e-18)
(-0.000406223 0.000208919 1.86359e-18)
(-5.09323e-05 7.20774e-05 1.90943e-20)
(-0.00105185 0.000806241 -5.89937e-19)
(-0.0029208 0.00158183 8.43633e-20)
(-0.152462 -0.228818 -3.16508e-18)
(0.00392071 -0.0673736 3.14206e-18)
(-5.78962e-06 -8.6719e-07 -2.67637e-19)
(-0.024793 0.0759977 7.10723e-18)
(8.75813e-06 3.28406e-05 -1.25155e-19)
(-0.00388392 0.000125981 -2.19538e-19)
(0.0374239 0.00724074 -8.17861e-18)
(5.618e-06 1.71214e-05 1.01143e-18)
(-0.125469 0.601746 -7.40578e-18)
(-3.66625e-06 -7.25665e-07 -5.09313e-20)
(-0.00310681 0.00192717 -4.12058e-19)
(-2.11432e-05 7.66427e-06 4.12279e-19)
(-0.0642063 -0.0927025 8.64636e-18)
(0.00351778 -2.73696e-05 1.94009e-19)
(-1.05029e-05 -4.55707e-05 8.47342e-19)
(-0.0518629 0.215689 -6.21491e-18)
(-0.0237728 -0.0167725 8.4265e-19)
(-6.45069e-05 -8.6583e-05 -1.46242e-20)
(0.00011142 -0.00290479 -1.29566e-17)
(0.00254053 0.00252956 4.57751e-19)
(-6.59327e-05 3.55976e-05 1.78938e-19)
(1.15822e-05 9.73411e-06 -1.54718e-19)
(-6.77006e-05 -1.49889e-05 -9.75253e-20)
(-0.204169 0.125533 -1.67019e-18)
(0.0654179 0.0468565 7.88177e-18)
(-0.000182989 -0.000160945 7.31608e-19)
(-0.00419305 -0.0101976 3.06029e-18)
(0.0785121 -0.043744 -3.45734e-19)
(0.0678789 -0.0513904 -1.23723e-18)
(0.0252987 -0.0385102 5.23391e-18)
(0.0176555 -0.100314 -1.04001e-18)
(0.0193559 -0.0561129 -1.9658e-18)
(0.000257104 -4.5116e-05 3.85749e-19)
(0.0183912 -0.0477337 1.75426e-18)
(-0.0144805 0.0495691 -1.23521e-18)
(-0.00273279 0.0104358 4.37163e-19)
(-0.00112618 0.000515639 2.06425e-19)
(-0.00637245 -0.155014 -1.47527e-18)
(-0.0239896 -0.00136408 4.92553e-19)
(-0.00801918 -0.00389886 5.89557e-19)
(-1.12072e-05 2.82808e-05 1.12846e-19)
(-7.45226e-05 -2.43014e-05 2.73843e-19)
(-0.000118901 -7.53243e-05 2.32635e-19)
(6.49025e-06 1.50969e-05 5.96744e-20)
(-0.000119829 -7.5501e-05 -2.23958e-19)
(2.51151e-06 1.13838e-05 -3.31129e-19)
(-0.0223551 0.074313 -1.2253e-19)
(-7.14441e-05 -1.6171e-06 -1.77024e-19)
(1.30413e-05 3.29859e-05 1.61187e-19)
(0.0188829 -0.00273391 1.2926e-17)
(-0.000119975 -3.71397e-06 -1.01328e-20)
(-8.5345e-06 4.95017e-06 5.4175e-20)
(0.000388148 -0.000340465 3.16086e-20)
(0.00226281 0.00217554 -1.3071e-19)
(-0.0234899 0.001805 -6.53006e-20)
(0.0603855 -0.0796786 5.26783e-19)
(-0.000140834 8.90634e-05 -1.17405e-18)
(-0.00527769 -0.03667 7.46134e-19)
(-4.18147e-05 -6.98816e-06 2.73521e-20)
(0.00201893 -0.00358735 -4.04163e-18)
(0.0460894 -0.026468 1.13534e-18)
(0.0190075 0.0824524 -3.15192e-18)
(-0.122618 0.0512506 9.93008e-19)
(-7.46425e-05 1.59818e-07 -2.59152e-19)
(-1.39758e-05 -8.9746e-05 -8.48954e-20)
(0.0560923 0.0615173 1.98424e-18)
(0.0160199 0.0618433 9.88461e-19)
(-0.0128461 0.00255624 2.43605e-19)
(0.000437541 0.000306987 4.21471e-19)
(0.00768803 -0.0807293 -2.60592e-19)
(-0.028672 0.079311 -1.44505e-17)
(-6.67832e-05 -7.25932e-05 4.1265e-21)
(-4.66652e-05 -8.26907e-06 -2.47107e-20)
(-0.0248276 -0.289556 -1.04214e-17)
(0.00211208 0.001149 2.1482e-20)
(0.0296252 -0.017052 6.35387e-18)
(-0.0120047 0.00485807 3.97084e-19)
(0.000898638 0.00321651 1.44782e-20)
(-0.00491257 -0.0100646 -2.15423e-19)
(-0.000155202 -8.73925e-06 -4.40533e-20)
(-9.38373e-05 6.70679e-06 2.856e-19)
(-5.79357e-05 5.17492e-06 -2.50128e-19)
(7.49239e-06 -6.56253e-07 -1.13293e-19)
(-8.14507e-05 5.1892e-05 3.31179e-19)
(-4.58237e-05 -1.78535e-06 5.74468e-19)
(-0.0163405 0.162662 -1.10576e-17)
(2.71287e-05 -5.90824e-05 1.86735e-19)
(-0.0293734 -0.0517372 -8.78035e-19)
(0.0728861 -0.0411164 9.70955e-19)
(-7.02387e-05 -8.3889e-05 -2.18667e-22)
(2.61863e-05 -5.78267e-05 6.54558e-20)
(-6.33186e-05 3.37329e-08 -1.16709e-19)
(-0.00153536 -0.00334461 9.08185e-18)
(0.00769039 -0.00418564 1.03435e-18)
(0.0107701 -0.071564 -3.31383e-18)
(-0.00010845 -0.000169455 1.16676e-20)
(0.164375 0.0667383 -6.476e-18)
(-0.00825007 0.00401284 5.47883e-19)
(-0.00180637 0.0101489 -4.26976e-19)
(-0.000258784 0.000257825 5.32972e-19)
(0.00122368 -0.000614261 -2.92329e-19)
(0.00182688 0.000191345 -1.13543e-19)
(-0.000237086 -0.000191497 2.96454e-18)
(-0.00021237 -0.000181034 -8.10801e-20)
(-0.016044 0.215884 -2.09956e-18)
(0.193742 -0.14406 4.90668e-20)
(-0.000152516 -8.75212e-06 -6.59184e-21)
(-9.17514e-05 3.66255e-05 -1.09681e-18)
(-0.00012184 -0.00035553 -2.64669e-18)
(0.12549 -0.128588 -8.04495e-18)
(7.13706e-06 2.17139e-05 -7.45371e-20)
(4.94839e-05 -0.000353612 -1.50088e-20)
(2.68453e-06 8.59328e-06 -3.33046e-19)
(1.16015e-05 3.43303e-05 -1.42732e-19)
(-9.33984e-05 3.3758e-05 -4.88514e-19)
(-0.000208495 0.000225278 -5.96603e-19)
(0.00155363 -1.39336e-05 -6.52045e-20)
(-6.40382e-05 4.03858e-05 8.59071e-20)
(0.0021669 -0.0350139 -1.28215e-18)
(-0.000103886 -0.000161565 -5.22921e-21)
(0.000560968 -0.000662 -1.08983e-19)
(-0.0669664 0.0469025 2.19768e-19)
(-0.00155571 0.0934159 3.64505e-18)
(-0.00705952 -0.00159803 1.90837e-19)
(-0.00104916 0.000290359 -3.57635e-19)
(-0.000114074 -0.000125164 -3.49433e-20)
(-1.36965e-05 3.34085e-06 6.22538e-19)
(-5.92935e-05 7.96196e-05 7.58466e-19)
(-0.0026593 -0.00147495 -4.36727e-19)
(-0.0092415 -0.0431126 -4.88893e-19)
(-0.0373063 -0.0340819 2.54286e-19)
(-3.55591e-05 -0.000353886 -3.52851e-18)
(0.0978691 -0.0662054 -8.74934e-19)
(-0.000109739 -0.000111019 1.94247e-19)
(0.00346655 -0.00666707 4.9114e-18)
(-0.00105375 0.000566524 -3.9202e-19)
(1.12083e-05 -9.66779e-06 -4.07764e-19)
(0.0125455 -0.00697392 -5.89659e-19)
(-7.25491e-05 -0.000135983 -2.20164e-21)
(7.87249e-06 -1.28777e-07 -1.23966e-20)
(0.00489573 -0.103206 -2.09695e-18)
(-3.90294e-05 9.07868e-06 -1.89353e-20)
(1.33455e-05 -0.000648462 6.87667e-19)
(0.0433611 0.0421364 3.7103e-19)
(-4.6616e-05 1.92792e-05 2.81707e-19)
(-5.261e-05 -0.00013409 1.1661e-18)
(-0.0194435 0.131863 2.23479e-17)
(0.000332557 -4.05606e-05 -3.46577e-19)
(-0.000102417 0.0851795 1.29019e-19)
(-0.0192325 0.00217986 -1.54563e-19)
(4.22431e-06 -3.2786e-06 -1.87207e-19)
(-1.59148e-05 7.3679e-06 -1.94205e-19)
(0.00663426 0.0233012 -4.03182e-19)
(-0.00105812 0.00146824 4.37384e-19)
(0.0072626 -0.00498112 -5.3441e-19)
(-8.62804e-05 -1.40615e-05 9.51959e-20)
(0.00460627 -0.0714944 -1.28735e-18)
(0.099228 -0.0889286 -1.73158e-18)
(-0.00211251 -0.072965 1.18636e-18)
(-0.00015452 -3.28519e-05 -4.06093e-19)
(-0.0146038 0.2144 4.1827e-18)
(1.85117e-05 2.2489e-05 -3.13023e-20)
(3.12518e-05 -3.72064e-06 3.53337e-19)
(-8.11903e-05 -0.000120244 -1.58659e-19)
(-0.0041425 -0.00328748 6.06801e-19)
(0.0709672 0.185565 6.49935e-18)
(-0.0918393 0.0331245 1.26814e-18)
(0.000809743 -0.000775151 -5.26772e-19)
(0.000108235 -0.000561472 5.62288e-19)
(-0.00339651 -0.000822275 -1.01063e-18)
(0.0868235 0.0878679 3.178e-19)
(-0.00419236 -0.0733468 6.81967e-19)
(-4.55316e-05 -7.5627e-06 1.15551e-18)
(0.00420189 -0.0148161 -7.97592e-19)
(-0.000448003 -0.00206571 2.48038e-18)
(-0.0603166 0.215353 -3.77856e-18)
(-0.00662791 -0.000750167 -3.52472e-19)
(-0.0171003 0.00419096 -2.87934e-19)
(-0.000163298 -0.000107682 -4.03791e-19)
(-0.00473384 -0.00252173 1.86596e-19)
(0.000556857 -0.0221113 1.00386e-19)
(5.56489e-06 -4.00797e-06 -6.8541e-19)
(-0.000164424 -0.00011007 -1.433e-19)
(7.68886e-06 1.26388e-05 1.16113e-19)
(-0.000158442 -3.5285e-05 -7.10632e-20)
(-0.0050184 -0.00111457 -6.13624e-21)
(0.00234269 -0.0523476 2.46535e-18)
(0.0353443 -0.0259691 -4.03208e-19)
(-0.0219001 -0.0739501 1.6508e-18)
(-0.015339 0.00668661 -5.5096e-19)
(0.00222353 0.00363748 1.57408e-18)
(-8.8195e-05 -0.000130682 1.38372e-19)
(-0.000144791 4.82725e-05 2.48564e-19)
(-0.03879 -0.0506941 6.78043e-19)
(0.0924821 0.0193189 -1.79344e-17)
(0.000452941 -0.000440065 -4.64728e-20)
(0.00439103 -0.0134825 -4.08057e-18)
(-0.0226637 0.17472 1.35246e-17)
(-0.0171897 0.218192 -4.31811e-18)
(1.99795e-05 -2.1989e-06 -9.07433e-20)
(1.56134e-06 -1.94859e-06 1.02699e-19)
(0.0103206 0.0270289 3.97313e-20)
(0.0602081 -0.00633282 2.111e-18)
(1.97566e-05 1.46592e-05 -4.21092e-20)
(-0.0339976 0.000953752 -4.0891e-19)
(-0.000166254 -0.00014778 -1.75022e-19)
(-0.000110641 -1.18786e-07 -8.94305e-21)
(0.00184077 -0.00488453 -1.53296e-18)
(-5.53487e-05 -1.93427e-05 -2.24475e-18)
(-0.000203727 -0.000176434 -9.42692e-19)
(-0.00158814 0.00146446 -2.93675e-19)
(-0.000137273 -6.43798e-05 3.15162e-19)
(-0.000486285 0.00247811 6.55576e-19)
(0.00699786 -0.0571507 -1.07457e-18)
(0.0118583 -0.00773441 7.25804e-18)
(-0.00139926 0.232651 1.02665e-17)
(-0.00083024 -0.00169462 -1.14441e-19)
(-7.64404e-05 4.07345e-05 -2.38598e-19)
(0.0462257 -0.104075 1.06581e-17)
(8.75181e-05 -0.000370594 -4.08991e-20)
(0.0502829 -0.143755 -4.76107e-18)
(-0.00586532 0.190189 3.95498e-18)
(-0.000170378 -0.000134669 2.86025e-19)
(-0.0214833 -0.050856 2.08879e-18)
(-0.00204558 0.00276477 5.28272e-20)
(-0.00126091 0.000263269 -4.95117e-19)
(0.00393619 -0.0739329 7.71443e-18)
(0.00100053 -0.0996813 -1.25362e-19)
(-0.00738158 -0.0985388 1.61436e-20)
(-0.161394 0.0947596 2.78359e-18)
(-0.000878352 0.00131597 4.90849e-19)
(-0.0219619 -0.0265469 1.59227e-17)
(3.40256e-05 -6.88519e-05 -5.59658e-20)
(0.0200509 0.0581529 -1.82966e-17)
(-0.000493125 0.203268 -2.00953e-19)
(-0.00100453 -0.0142191 -7.24499e-19)
(0.000354701 -0.000679052 4.12729e-19)
(-0.045695 -0.167691 -9.27739e-18)
(-0.000513474 -0.00190006 9.24424e-19)
(0.0340281 0.00762542 2.67648e-19)
(0.075707 -0.061009 -6.03729e-19)
(-0.0237235 -0.283462 -4.32886e-18)
(-7.35762e-05 -6.24847e-05 -2.13613e-18)
(0.0182234 0.0583401 4.63204e-19)
(2.93432e-05 -1.05667e-05 7.99395e-20)
(0.0041749 -0.0148302 2.95923e-18)
(0.0157453 -0.0336501 -9.59426e-19)
(-7.72897e-05 1.42265e-05 -1.19094e-19)
(-0.00425291 -0.00623941 -3.49078e-18)
(0.0722228 -0.0359982 3.92562e-18)
(-0.0243028 0.093679 3.60906e-19)
(0.00447482 0.00423413 1.12218e-19)
(0.00173551 6.34573e-05 -1.1067e-20)
(1.33506e-05 3.24485e-05 -2.04371e-19)
(-0.000493739 -4.76211e-05 1.32642e-18)
(0.00306928 -0.00025113 3.89828e-19)
(0.00522711 -0.0121839 -2.19827e-18)
(0.0181981 0.0598473 -4.79184e-19)
(-3.12759e-06 5.71552e-05 1.42705e-19)
(0.0219899 -0.104171 -4.44613e-18)
(0.0021559 0.00311116 1.21453e-19)
(-0.000335439 -6.81844e-05 -3.83557e-19)
(0.00110871 -0.00256472 -1.60672e-18)
(1.09201e-05 -5.45557e-06 -3.30099e-19)
(0.0117659 -0.00857436 -1.15346e-19)
(-8.03223e-05 -3.95892e-06 3.94221e-19)
(-0.000155404 -2.68397e-05 -1.36071e-19)
(0.200543 -0.134437 -3.92394e-19)
(-0.00015 1.201e-05 -4.78016e-19)
(-9.10974e-05 -0.00233328 -7.04991e-19)
(-0.0754042 -0.0226095 -4.80943e-19)
(0.0204847 -0.0059187 5.1025e-18)
(0.0205488 0.000739818 4.01917e-18)
(-4.39642e-06 -4.32925e-05 -1.88845e-18)
(-0.000329298 -0.000178524 1.08573e-19)
(-0.0271049 -0.0121623 -5.77225e-19)
(-0.000249782 -0.000196783 1.11175e-19)
(0.0530975 0.00633021 -3.05887e-18)
(0.00014434 -0.00161119 -6.76214e-18)
(0.00229134 0.00139664 8.37491e-20)
(-0.000755532 -0.000489226 -1.78024e-18)
(-0.000232034 2.72036e-05 -2.80136e-19)
(1.69551e-05 2.2878e-05 -5.84663e-20)
(0.062943 -0.190984 -7.27688e-18)
(1.06874e-05 -1.19781e-06 3.54045e-19)
(-0.191441 -0.163276 1.41123e-17)
(0.0404399 -0.0621146 -1.55368e-18)
(9.50776e-06 -0.000347778 2.76092e-19)
(0.321121 -0.0237078 -5.70668e-18)
(1.32452e-05 -1.22529e-05 1.95374e-19)
(-0.00975634 -0.0017791 -1.63833e-18)
(0.00404848 0.00391644 -2.94203e-19)
(0.00989417 -0.0593173 3.32144e-18)
(0.000314557 -0.00139609 -1.08561e-17)
(-0.0128051 -0.057987 1.8857e-18)
(-0.0331874 -0.0756537 -3.45021e-18)
(-4.09384e-06 -4.09107e-07 -3.37832e-19)
(-0.0765829 -0.00213718 -1.74175e-19)
(-6.53477e-05 5.05384e-05 -8.23104e-19)
(0.070776 -0.061786 -1.4248e-18)
(-0.000286627 -0.000208538 -1.81594e-19)
(-0.000349709 -0.00020563 7.54067e-19)
(0.107331 -0.0706193 1.7902e-18)
(-0.0711259 -0.0596295 -5.27758e-19)
(-7.48208e-05 1.8652e-05 -1.1962e-18)
(0.000187389 3.33348e-05 -1.60555e-19)
(-0.00117347 0.000713296 2.06149e-19)
(-0.000119317 7.17514e-05 -4.97635e-19)
(-4.25537e-06 -4.68571e-05 2.41522e-18)
(-0.022478 -0.13743 -1.75527e-19)
(0.0689187 0.138857 4.48871e-18)
(0.000368969 -4.96858e-05 -1.89308e-18)
(-0.000112912 6.35318e-05 5.98649e-19)
(-7.15934e-05 4.56979e-05 7.29499e-20)
(-0.0903979 -0.121008 2.55186e-18)
(-0.0864682 0.0425692 -3.753e-18)
(-0.0236657 0.0140213 -1.40052e-19)
(-0.000145273 -5.40855e-05 -2.014e-19)
(-0.000896414 -0.0176566 -3.2769e-19)
(-0.000340807 -0.000196042 -2.8523e-18)
(-0.000361971 -0.000159311 -1.74867e-19)
(0.00230812 -0.00345752 -4.36737e-19)
(-0.0470814 -0.00685194 1.23167e-18)
(-4.44575e-05 -1.47877e-06 -6.40173e-19)
(0.00555936 -0.0131891 8.80271e-18)
(0.0377293 -0.0793621 8.38453e-19)
(0.0022991 5.52144e-05 -1.27913e-20)
(-0.0253225 -0.00918327 -2.44698e-19)
(-5.20932e-05 -0.000154635 1.3573e-18)
(-0.00684833 0.00038228 -7.55706e-19)
(-4.45957e-05 -2.49662e-06 9.40279e-20)
(0.00036709 -0.000135648 4.55926e-19)
(-8.46421e-05 -0.0031742 2.17931e-18)
(-0.000355425 -2.45572e-05 5.82341e-19)
(0.00230931 -0.0223294 -2.60662e-18)
(8.71575e-06 6.86788e-06 -1.04632e-19)
(-0.00390347 0.060559 1.17081e-18)
(-9.29274e-05 7.63938e-06 4.42198e-20)
(0.000114924 -0.00175882 2.41789e-18)
(0.0109075 -0.0312975 -6.73396e-19)
(-0.0425428 0.0750964 -2.06292e-19)
(0.00286072 -0.0151345 -3.20231e-18)
(1.28731e-05 1.41374e-06 7.63006e-20)