/*--------------------------------*- C++ -*----------------------------------*\
| =========                 |                                                 |
| \\      /  F ield         | OpenFOAM: The Open Source CFD Toolbox           |
|  \\    /   O peration     | Version:  v2012                                 |
|   \\  /    A nd           | Website:  www.openfoam.com                      |
|    \\/     M anipulation  |                                                 |
\*---------------------------------------------------------------------------*/
FoamFile
{
    version     2.0;
    format      ascii;
    class       pointVectorField;
    location    "550";
    object      pointDisplacement;
}
// * * * * * * * * * * * * * * * * * * * * * * * * * * * * * * * * * * * * * //

dimensions      [0 1 0 0 0 0 0];


internalField   nonuniform List<vector> 
19270
(
(0 0 0)
(0 0 0)
(0 0 0)
(0 0 0)
(0 0 0)
(0 0 0)
(0 0 0)
(0 0 0)
(0 0 0)
(0 0 0)
(0 0 0)
(0 0 0)
(0 0 0)
(0 0 0)
(0 0 0)
(0 0 0)
(0 0 0)
(0 0 0)
(0 0 0)
(0 0 0)
(0 0 0)
(0 0 0)
(0 0 0)
(0 0 0)
(0 0 0)
(0 0 0)
(0 0 0)
(0 0 0)
(0 0 0)
(0 0 0)
(0 0 0)
(0 0 0)
(0 0 0)
(0 0 0)
(0 0 0)
(0 0 0)
(0 0 0)
(0 0 0)
(0 0 0)
(0 0 0)
(0 0 0)
(0 0 0)
(0 0 0)
(0 0 0)
(0 0 0)
(0 0 0)
(0 0 0)
(0 0 0)
(0 0 0)
(0 0 0)
(0 0 0)
(0 0 0)
(0 0 0)
(0 0 0)
(0 0 0)
(0 0 0)
(0 0 0)
(0 0 0)
(0 0 0)
(0 0 0)
(0 0 0)
(0 0 0)
(0 0 0)
(0 0 0)
(0 0 0)
(0 0 0)
(0 0 0)
(0 0 0)
(0 0 0)
(0 0 0)
(0 0 0)
(0 0 0)
(0 0 0)
(0 0 0)
(0 0 0)
(0 0 0)
(0 0 0)
(0 0 0)
(0 0 0)
(0 0 0)
(0 0 0)
(0 0 0)
(0 0 0)
(0 0 0)
(0 0 0)
(0 0 0)
(0 0 0)
(0 0 0)
(0 0 0)
(0 0 0)
(0 0 0)
(0 0 0)
(0 0 0)
(0 0 0)
(0 0 0)
(0 0 0)
(0 0 0)
(0 0 0)
(0 0 0)
(0 0 0)
(0 0 0)
(0 0 0)
(0 0 0)
(0 0 0)
(0 0 0)
(0 0 0)
(0 0 0)
(0 0 0)
(0 0 0)
(0 0 0)
(0 0 0)
(0 0 0)
(0 0 0)
(0 0 0)
(0 0 0)
(0 0 0)
(0 0 0)
(0 0 0)
(0 0 0)
(0 0 0)
(0 0 0)
(0 0 0)
(0 0 0)
(0 0 0)
(0 0 0)
(0 0 0)
(0 0 0)
(0 0 0)
(0 0 0)
(0 0 0)
(0 0 0)
(0 0 0)
(0 0 0)
(0 0 0)
(0 0 0)
(0 0 0)
(0 0 0)
(0 0 0)
(0 0 0)
(0 0 0)
(0 0 0)
(0 0 0)
(0 0 0)
(0 0 0)
(0 0 0)
(0 0 0)
(0 0 0)
(0 0 0)
(0 0 0)
(0 0 0)
(0 0 0)
(0 0 0)
(0 0 0)
(0 0 0)
(0 0 0)
(0 0 0)
(0 0 0)
(0 0 0)
(0 0 0)
(0 0 0)
(0 0 0)
(0 0 0)
(0 0 0)
(0 0 0)
(0 0 0)
(0 0 0)
(0 0 0)
(0 0 0)
(0 0 0)
(0 0 0)
(0 0 0)
(0 0 0)
(0 0 0)
(0 0 0)
(0 0 0)
(0 0 0)
(0 0 0)
(0 0 0)
(0 0 0)
(0 0 0)
(0 0 0)
(0 0 0)
(0 0 0)
(0 0 0)
(0 0 0)
(0 0 0)
(0 0 0)
(0 0 0)
(0 0 0)
(0 0 0)
(0 0 0)
(0 0 0)
(0 0 0)
(0 0 0)
(0 0 0)
(0 0 0)
(0 0 0)
(0 0 0)
(0 0 0)
(0 0 0)
(0 0 0)
(0 0 0)
(0 0 0)
(0 0 0)
(0 0 0)
(0 0 0)
(0 0 0)
(0 0 0)
(0 0 0)
(0 0 0)
(0 0 0)
(0 0 0)
(0 0 0)
(0 0 0)
(0 0 0)
(0 0 0)
(0 0 0)
(0 0 0)
(0 0 0)
(0 0 0)
(0 0 0)
(0 0 0)
(0 0 0)
(0 0 0)
(0 0 0)
(0 0 0)
(0 0 0)
(0 0 0)
(0 0 0)
(0 0 0)
(0 0 0)
(0 0 0)
(0 0 0)
(0 0 0)
(0 0 0)
(0 0 0)
(0 0 0)
(0 0 0)
(0 0 0)
(0 0 0)
(0 0 0)
(0 0 0)
(0 0 0)
(0 0 0)
(0 0 0)
(0 0 0)
(0 0 0)
(0 0 0)
(0 0 0)
(0 0 0)
(0 0 0)
(0 0 0)
(0 0 0)
(0 0 0)
(0 0 0)
(0 0 0)
(0 0 0)
(0 0 0)
(0 0 0)
(0 0 0)
(0 0 0)
(0 0 0)
(0 0 0)
(0 0 0)
(0 0 0)
(0 0 0)
(0 0 0)
(0 0 0)
(0 0 0)
(0 0 0)
(0 0 0)
(0 0 0)
(0 0 0)
(0 0 0)
(0 0 0)
(0 0 0)
(0 0 0)
(0 0 0)
(0 0 0)
(0 0 0)
(0 0 0)
(0 0 0)
(0 0 0)
(0 0 0)
(0 0 0)
(0 0 0)
(0 0 0)
(0 0 0)
(0 0 0)
(0 0 0)
(0 0 0)
(0 0 0)
(0 0 0)
(0 0 0)
(0 0 0)
(0 0 0)
(0 0 0)
(0 0 0)
(0 0 0)
(0 0 0)
(0 0 0)
(0 0 0)
(0 0 0)
(0 0 0)
(0 0 0)
(0 0 0)
(0 0 0)
(0 0 0)
(0 0 0)
(0 0 0)
(0 0 0)
(0 0 0)
(0 0 0)
(0 0 0)
(0 0 0)
(0 0 0)
(0 0 0)
(0 0 0)
(0 0 0)
(0 0 0)
(0 0 0)
(0 0 0)
(0 0 0)
(0 0 0)
(0 0 0)
(0 0 0)
(0 -0.000520891 0)
(0 -0.000578611 0)
(0 -0.000384937 0)
(0 -0.000198792 0)
(0 -0.000287347 0)
(0 -9.15731e-05 0)
(0 -0.00066357 0)
(0 -0.000147521 0)
(0 -0.000850504 0)
(0 -8.25491e-05 0)
(0 -0.00107008 0)
(0 -0.000122265 0)
(0 -0.000943377 0)
(0 -0.000235467 0)
(0 -7.77402e-05 0)
(0 -8.9033e-05 0)
(0 -6.61275e-05 0)
(0 -6.68793e-05 0)
(0 -0.000332447 0)
(0 -5.13139e-05 0)
(0 -4.42642e-05 0)
(0 -3.26806e-05 0)
(0 -0.000958152 0)
(0 -0.000436604 0)
(0 -0.000496936 0)
(0 -0.000171016 0)
(0 -0.000121277 0)
(0 -9.15717e-05 0)
(0 -3.04724e-05 0)
(0 -2.17244e-05 0)
(0 -0.000847181 0)
(0 -0.000853463 0)
(0 -0.000843979 0)
(0 -0.000646427 0)
(0 -7.31293e-05 0)
(0 -9.90778e-05 0)
(0 -0.000208125 0)
(0 -0.000203522 0)
(0 -9.82707e-05 0)
(0 -7.2197e-05 0)
(0 -1.95648e-05 0)
(0 -1.27581e-05 0)
(0 -0.000934028 0)
(0 -0.000947899 0)
(0 -0.000724212 0)
(0 -0.000662481 0)
(0 -0.000449431 0)
(0 -0.000453395 0)
(0 -0.000469856 0)
(0 -0.000406655 0)
(0 -1.30132e-05 0)
(0 -3.75329e-05 0)
(0 -4.95825e-05 0)
(0 -0.000108456 0)
(0 -0.000113648 0)
(0 -0.0003562 0)
(0 -0.000157546 0)
(0 -0.00010937 0)
(0 -0.000345764 0)
(0 -0.000199955 0)
(0 -0.000230367 0)
(0 -0.000229964 0)
(0 -9.90009e-05 0)
(0 -9.24895e-05 0)
(0 -9.09804e-05 0)
(0 -7.70341e-05 0)
(0 -5.89605e-05 0)
(0 -4.99114e-05 0)
(0 -3.43995e-05 0)
(0 -4.9901e-06 0)
(0 -0.0146877 0)
(0 -0.013093 0)
(0 -0.0116512 0)
(0 -0.011199 0)
(0 -0.0107442 0)
(0 -0.0102881 0)
(0 -0.00983123 0)
(0 -0.00937486 0)
(0 -0.00892391 0)
(0 -0.00847972 0)
(0 -0.00804314 0)
(0 -0.0076163 0)
(0 -0.00719894 0)
(0 -0.00679236 0)
(0 -0.00639794 0)
(0 -0.00601254 0)
(0 -0.00564156 0)
(0 -0.00528339 0)
(0 -0.00493734 0)
(0 -0.0047224 0)
(0 -0.00460134 0)
(0 -0.00462975 0)
(0 -0.00451075 0)
(0 -0.00453562 0)
(0 -0.004419 0)
(0 -0.00444022 0)
(0 -0.00432609 0)
(0 -0.00434396 0)
(0 -0.00423211 0)
(0 -0.00424664 0)
(0 -0.00413706 0)
(0 -0.00412167 0)
(0 -0.00414854 0)
(0 -0.00404132 0)
(0 -0.00404979 0)
(0 -0.00394443 0)
(0 -0.00395057 0)
(0 -0.00405417 0)
(0 -0.00395181 0)
(0 -0.00405407 0)
(0 -0.00385084 0)
(0 -0.00384903 0)
(0 -0.00374961 0)
(0 -0.00374616 0)
(0 -0.00364957 0)
(0 -0.00364137 0)
(0 -0.0160727 0)
(0 -0.016153 0)
(0 -0.016094 0)
(0 -0.016171 0)
(0 -0.0161173 0)
(0 -0.0161872 0)
(0 -0.0161316 0)
(0 -0.0161989 0)
(0 -0.0161374 0)
(0 -0.0162069 0)
(0 -0.0161435 0)
(0 -0.0162126 0)
(0 -0.0161472 0)
(0 -0.0162153 0)
(0 -0.0161464 0)
(0 -0.016215 0)
(0 -0.0161441 0)
(0 -0.0162108 0)
(0 -0.0161381 0)
(0 -0.0162023 0)
(0 -0.0161288 0)
(0 -0.0161934 0)
(0 -0.0161165 0)
(0 -0.0161823 0)
(0 -0.0161026 0)
(0 -0.0161764 0)
(0 -0.0160845 0)
(0 -0.0161443 0)
(0 -0.0160605 0)
(0 -0.0161211 0)
(0 -0.0160331 0)
(0 -0.0160945 0)
(0 -0.0160028 0)
(0 -0.0160636 0)
(0 -0.0159685 0)
(0 -0.0160291 0)
(0 -0.0159308 0)
(0 -0.0159884 0)
(0 -0.0158878 0)
(0 -0.0159426 0)
(0 -0.0158404 0)
(0 -0.0158931 0)
(0 -0.0157872 0)
(0 -0.0158366 0)
(0 -0.0157773 0)
(0 -0.0157229 0)
(0 -0.0157711 0)
(0 -0.0158903 0)
(0 -0.0158134 0)
(0 -0.0159364 0)
(0 -0.0158459 0)
(0 -0.0159783 0)
(0 -0.0159153 0)
(0 -0.0160232 0)
(0 -0.0159642 0)
(0 -0.0160654 0)
(0 -0.016007 0)
(0 -0.0161042 0)
(0 -0.0160427 0)
(0 -0.0161424 0)
(0 -0.0160764 0)
(0 -0.0161742 0)
(0 -0.0161075 0)
(0 -0.016202 0)
(0 -0.016132 0)
(0 -0.0162275 0)
(0 -0.0161558 0)
(0 -0.0162503 0)
(0 -0.0161772 0)
(0 -0.0162704 0)
(0 -0.0161958 0)
(0 -0.0162878 0)
(0 -0.0162115 0)
(0 -0.0163021 0)
(0 -0.0162247 0)
(0 -0.0163139 0)
(0 -0.0162361 0)
(0 -0.0163245 0)
(0 -0.0162451 0)
(0 -0.0163329 0)
(0 -0.0162513 0)
(0 -0.0163383 0)
(0 -0.0162552 0)
(0 -0.0163417 0)
(0 -0.0162571 0)
(0 -0.016343 0)
(0 -0.0162568 0)
(0 -0.0163424 0)
(0 -0.0162517 0)
(0 -0.0163347 0)
(0 -0.0162274 0)
(0 -0.0163248 0)
(0 -0.0162346 0)
(0 -0.0163176 0)
(0 -0.0162248 0)
(0 -0.0163049 0)
(0 -0.0161955 0)
(0 -0.0162914 0)
(0 -0.0161923 0)
(0 -0.0162781 0)
(0 -0.0156504 0)
(0 -0.0159669 0)
(0 -0.0161301 0)
(0 -0.0162721 0)
(0 -0.0162679 0)
(0 -0.0161718 0)
(0 -0.0160793 0)
(0 -0.0163746 0)
(0 -0.0164077 0)
(0 -0.0164213 0)
(0 -0.00353593 0)
(0 -0.00353594 0)
(0 -0.00344003 0)
(0 -0.00343378 0)
(0 -0.00334402 0)
(0 -0.00335296 0)
(0 -0.00333174 0)
(0 -0.00342002 0)
(0 -0.00324577 0)
(0 -0.00322893 0)
(0 -0.00314509 0)
(0 -0.00312523 0)
(0 -0.00304276 0)
(0 -0.0030219 0)
(0 -0.00294113 0)
(0 -0.00291919 0)
(0 -0.00284005 0)
(0 -0.00281676 0)
(0 -0.0159961 0)
(0 -0.00273905 0)
(0 -0.00276036 0)
(0 -0.00271465 0)
(0 -0.00279022 0)
(0 -0.00268674 0)
(0 -0.00275982 0)
(0 -0.00261348 0)
(0 -0.00258411 0)
(0 -0.00251299 0)
(0 -0.00248245 0)
(0 -0.00241337 0)
(0 -0.00238172 0)
(0 -0.00231488 0)
(0 -0.00228174 0)
(0 -0.00221715 0)
(0 -0.00218263 0)
(0 -0.00224602 0)
(0 -0.00212022 0)
(0 -0.00208474 0)
(0 -0.00215574 0)
(0 -0.00202415 0)
(0 -0.00198819 0)
(0 -0.0161999 0)
(0 -0.00192942 0)
(0 -0.001893 0)
(0 -0.00183596 0)
(0 -0.00179919 0)
(0 -0.00174402 0)
(0 -0.001707 0)
(0 -0.00176022 0)
(0 -0.00166772 0)
(0 -0.00171798 0)
(0 -0.00161649 0)
(0 -0.0160684 0)
(0 -0.00157714 0)
(0 -0.00152747 0)
(0 -0.00148833 0)
(0 -0.0014397 0)
(0 -0.00140067 0)
(0 -0.00135373 0)
(0 -0.00131513 0)
(0 -0.0162758 0)
(0 -0.0173777 0)
(0 -0.0173681 0)
(0 -0.0173729 0)
(0 -0.0173627 0)
(0 -0.0173675 0)
(0 -0.017355 0)
(0 -0.0173616 0)
(0 -0.01735 0)
(0 -0.0173554 0)
(0 -0.0173432 0)
(0 -0.0173483 0)
(0 -0.0173352 0)
(0 -0.0173401 0)
(0 -0.017326 0)
(0 -0.0173309 0)
(0 -0.0173448 0)
(0 -0.0173354 0)
(0 -0.0173488 0)
(0 -0.0173394 0)
(0 -0.0173525 0)
(0 -0.0173427 0)
(0 -0.0173552 0)
(0 -0.0173454 0)
(0 -0.0173588 0)
(0 -0.0173476 0)
(0 -0.0173593 0)
(0 -0.0173489 0)
(0 -0.0173605 0)
(0 -0.0173498 0)
(0 -0.0173611 0)
(0 -0.0173499 0)
(0 -0.0173607 0)
(0 -0.0173324 0)
(0 -0.0173494 0)
(0 -0.0173601 0)
(0 -0.0173484 0)
(0 -0.0173592 0)
(0 -0.0173367 0)
(0 -0.0173386 0)
(0 -0.0173469 0)
(0 -0.0173573 0)
(0 -0.0173448 0)
(0 -0.017355 0)
(0 -0.0173419 0)
(0 -0.0173518 0)
(0 -0.0173381 0)
(0 -0.0173477 0)
(0 -0.0173333 0)
(0 -0.0173431 0)
(0 -0.0173231 0)
(0 -0.0173827 0)
(0 -0.017328 0)
(0 -0.0173378 0)
(0 -0.0173219 0)
(0 -0.0173316 0)
(0 -0.0173468 0)
(0 -0.0173404 0)
(0 -0.0173548 0)
(0 -0.0173484 0)
(0 -0.017362 0)
(0 -0.0173558 0)
(0 -0.0173701 0)
(0 -0.0173623 0)
(0 -0.0173741 0)
(0 -0.0173675 0)
(0 -0.0173787 0)
(0 -0.0173724 0)
(0 -0.017383 0)
(0 -0.0173767 0)
(0 -0.0173865 0)
(0 -0.0173803 0)
(0 -0.0173897 0)
(0 -0.0173612 0)
(0 -0.0173245 0)
(0 -0.0173846 0)
(0 -0.0173709 0)
(0 -0.0173714 0)
(0 -0.017316 0)
(0 -0.00127 0)
(0 -0.00130904 0)
(0 -0.00178071 0)
(0 -0.00136135 0)
(0 -0.0012311 0)
(0 -0.00118773 0)
(0 -0.00114877 0)
(0 -0.00110713 0)
(0 -0.0010682 0)
(0 -0.00102832 0)
(0 -0.00167846 0)
(0 -0.00176976 0)
(0 -0.00169906 0)
(0 -0.00178982 0)
(0 -0.00171761 0)
(0 -0.000989801 0)
(0 -0.00102506 0)
(0 -0.0016276 0)
(0 -0.00164465 0)
(0 -0.00173414 0)
(0 -0.00165984 0)
(0 -0.0128345 0)
(0 -0.0125975 0)
(0 -0.0129176 0)
(0 -0.0126824 0)
(0 -0.0123512 0)
(0 -0.0124381 0)
(0 -0.0127634 0)
(0 -0.0125202 0)
(0 -0.0128379 0)
(0 -0.0125957 0)
(0 -0.0129067 0)
(0 -0.0126652 0)
(0 -0.0129698 0)
(0 -0.0127291 0)
(0 -0.0124132 0)
(0 -0.0124799 0)
(0 -0.0127893 0)
(0 -0.0125422 0)
(0 -0.012844 0)
(0 -0.012597 0)
(0 -0.012892 0)
(0 -0.0126453 0)
(0 -0.0129376 0)
(0 -0.0126881 0)
(0 -0.0129736 0)
(0 -0.0127263 0)
(0 -0.0124315 0)
(0 -0.012472 0)
(0 -0.0127607 0)
(0 -0.0125077 0)
(0 -0.0127907 0)
(0 -0.0125378 0)
(0 -0.0128152 0)
(0 -0.0125622 0)
(0 -0.012834 0)
(0 -0.012581 0)
(0 -0.0123008 0)
(0 -0.01232 0)
(0 -0.0125961 0)
(0 -0.0123362 0)
(0 -0.0126073 0)
(0 -0.0123479 0)
(0 -0.0126121 0)
(0 -0.0123552 0)
(0 -0.0126118 0)
(0 -0.0123566 0)
(0 -0.0126081 0)
(0 -0.0123535 0)
(0 -0.0126005 0)
(0 -0.0123453 0)
(0 -0.0125887 0)
(0 -0.0123309 0)
(0 -0.0125689 0)
(0 -0.0123101 0)
(0 -0.0125449 0)
(0 -0.0122877 0)
(0 -0.0125189 0)
(0 -0.0122641 0)
(0 -0.0124882 0)
(0 -0.0122356 0)
(0 -0.012454 0)
(0 -0.0122014 0)
(0 -0.012415 0)
(0 -0.0121632 0)
(0 -0.0123724 0)
(0 -0.0121218 0)
(0 -0.0123265 0)
(0 -0.0120765 0)
(0 -0.0122769 0)
(0 -0.0120268 0)
(0 -0.0122222 0)
(0 -0.0119744 0)
(0 -0.0121641 0)
(0 -0.0119164 0)
(0 -0.0121049 0)
(0 -0.0118545 0)
(0 -0.0120408 0)
(0 -0.0117922 0)
(0 -0.0119739 0)
(0 -0.0117264 0)
(0 -0.0119029 0)
(0 -0.0116544 0)
(0 -0.0118261 0)
(0 -0.0115786 0)
(0 -0.0117459 0)
(0 -0.0115013 0)
(0 -0.011665 0)
(0 -0.0114223 0)
(0 -0.0112525 0)
(0 -0.011175 0)
(0 -0.0113408 0)
(0 -0.011095 0)
(0 -0.0112568 0)
(0 -0.0110128 0)
(0 -0.0108449 0)
(0 -0.0107643 0)
(0 -0.0109288 0)
(0 -0.010681 0)
(0 -0.0119874 0)
(0 -0.0105117 0)
(0 -0.0104322 0)
(0 -0.0105969 0)
(0 -0.0103509 0)
(0 -0.0105168 0)
(0 -0.010268 0)
(0 -0.0100995 0)
(0 -0.0100185 0)
(0 -0.0101824 0)
(0 -0.00993573 0)
(0 -0.0100938 0)
(0 -0.00984825 0)
(0 -0.00968997 0)
(0 -0.00960099 0)
(0 -0.0115945 0)
(0 -0.00975842 0)
(0 -0.00951246 0)
(0 -0.00934786 0)
(0 -0.00926378 0)
(0 -0.00942486 0)
(0 -0.0091793 0)
(0 -0.00933578 0)
(0 -0.0090931 0)
(0 -0.00893139 0)
(0 -0.00884821 0)
(0 -0.00900502 0)
(0 -0.00876362 0)
(0 -0.0086012 0)
(0 -0.00852023 0)
(0 -0.00867761 0)
(0 -0.00843785 0)
(0 -0.00859026 0)
(0 -0.00835391 0)
(0 -0.00819629 0)
(0 -0.00811631 0)
(0 -0.00826766 0)
(0 -0.00803292 0)
(0 -0.00817366 0)
(0 -0.00794342 0)
(0 -0.0077988 0)
(0 -0.00771735 0)
(0 -0.00785711 0)
(0 -0.00763677 0)
(0 -0.011857 0)
(0 -0.00748707 0)
(0 -0.007409 0)
(0 -0.00755468 0)
(0 -0.00732959 0)
(0 -0.0074702 0)
(0 -0.00724705 0)
(0 -0.00710373 0)
(0 -0.00702328 0)
(0 -0.00715443 0)
(0 -0.00693768 0)
(0 -0.00680209 0)
(0 -0.0067277 0)
(0 -0.00685852 0)
(0 -0.00665346 0)
(0 -0.0067814 0)
(0 -0.00657817 0)
(0 -0.00644159 0)
(0 -0.00636975 0)
(0 -0.00650288 0)
(0 -0.00629682 0)
(0 -0.00642664 0)
(0 -0.00622488 0)
(0 -0.00609106 0)
(0 -0.00602227 0)
(0 -0.00616205 0)
(0 -0.00595834 0)
(0 -0.00581894 0)
(0 -0.00575103 0)
(0 -0.00588545 0)
(0 -0.00567663 0)
(0 -0.0058043 0)
(0 -0.00560374 0)
(0 -0.00545101 0)
(0 -0.00541281 0)
(0 -0.00553433 0)
(0 -0.00534657 0)
(0 -0.00522937 0)
(0 -0.00516028 0)
(0 -0.00527623 0)
(0 -0.00509317 0)
(0 -0.0120173 0)
(0 -0.00497486 0)
(0 -0.00491148 0)
(0 -0.00520481 0)
(0 -0.00479062 0)
(0 -0.00473084 0)
(0 -0.0120925 0)
(0 -0.00460765 0)
(0 -0.00455261 0)
(0 -0.00442662 0)
(0 -0.0043757 0)
(0 -0.0123678 0)
(0 -0.0042475 0)
(0 -0.00420011 0)
(0 -0.00429404 0)
(0 -0.00432312 0)
(0 -0.00415062 0)
(0 -0.00426778 0)
(0 -0.00409902 0)
(0 -0.00398051 0)
(0 -0.00393205 0)
(0 -0.0120325 0)
(0 -0.00404643 0)
(0 -0.003883 0)
(0 -0.00376684 0)
(0 -0.0037215 0)
(0 -0.00360384 0)
(0 -0.00356198 0)
(0 -0.00399304 0)
(0 -0.0121517 0)
(0 -0.00344305 0)
(0 -0.00340447 0)
(0 -0.00328433 0)
(0 -0.00324911 0)
(0 -0.00336464 0)
(0 -0.00321251 0)
(0 -0.00309599 0)
(0 -0.0030626 0)
(0 -0.00332343 0)
(0 -0.0029452 0)
(0 -0.00291496 0)
(0 -0.0125538 0)
(0 -0.00279683 0)
(0 -0.00276969 0)
(0 -0.0128364 0)
(0 -0.002651 0)
(0 -0.00262692 0)
(0 -0.00267351 0)
(0 -0.00274091 0)
(0 -0.00260106 0)
(0 -0.0130772 0)
(0 -0.00455623 0)
(0 -0.00248676 0)
(0 -0.00246377 0)
(0 -0.0127219 0)
(0 -0.000951743 0)
(0 -0.000987035 0)
(0 -0.000914382 0)
(0 -0.00157096 0)
(0 -0.00158501 0)
(0 -0.0161271 0)
(0 -0.0132462 0)
(0 -0.00271038 0)
(0 -0.00174856 0)
(0 -0.00234924 0)
(0 -0.00232909 0)
(0 -0.00331899 0)
(0 -0.000878015 0)
(0 -0.000841573 0)
(0 -0.00149675 0)
(0 -0.00150971 0)
(0 -0.0160636 0)
(0 -0.0132021 0)
(0 -0.00221446 0)
(0 -0.00219714 0)
(0 -0.000806778 0)
(0 -0.00077157 0)
(0 -0.00142202 0)
(0 -0.00143401 0)
(0 -0.00208257 0)
(0 -0.00206802 0)
(0 -0.0021779 0)
(0 -0.00205144 0)
(0 -0.00215673 0)
(0 -0.00203289 0)
(0 -0.00192781 0)
(0 -0.00191186 0)
(0 -0.00180718 0)
(0 -0.00179371 0)
(0 -0.00189395 0)
(0 -0.00177821 0)
(0 -0.000737899 0)
(0 -0.00070412 0)
(0 -0.000733441 0)
(0 -0.00134684 0)
(0 -0.00135802 0)
(0 -0.0014441 0)
(0 -0.0013673 0)
(0 -0.00133391 0)
(0 -0.00145219 0)
(0 -0.00137463 0)
(0 -0.0014582 0)
(0 -0.00137997 0)
(0 -0.0171536 0)
(0 -0.0171226 0)
(0 -0.0171482 0)
(0 -0.0171165 0)
(0 -0.0171415 0)
(0 -0.0171094 0)
(0 -0.0171346 0)
(0 -0.0171016 0)
(0 -0.0171268 0)
(0 -0.0170929 0)
(0 -0.017116 0)
(0 -0.0170828 0)
(0 -0.0171063 0)
(0 -0.0170721 0)
(0 -0.0170966 0)
(0 -0.00129708 0)
(0 -0.00130185 0)
(0 -0.00167848 0)
(0 -0.00166534 0)
(0 -0.0170593 0)
(0 -0.0170835 0)
(0 -0.00209505 0)
(0 -0.0170452 0)
(0 -0.0170687 0)
(0 -0.0120966 0)
(0 -0.0121658 0)
(0 -0.00066689 0)
(0 -0.00068767 0)
(0 -0.00063918 0)
(0 -0.0170302 0)
(0 -0.0170526 0)
(0 -0.0170129 0)
(0 -0.0170348 0)
(0 -0.0169918 0)
(0 -0.017015 0)
(0 -0.00146218 0)
(0 -0.00156615 0)
(0 -0.00155536 0)
(0 -0.00121958 0)
(0 -0.00122391 0)
(0 -0.00187413 0)
(0 -0.00125913 0)
(0 -0.00124522 0)
(0 -0.0170892 0)
(0 -0.0170577 0)
(0 -0.0170721 0)
(0 -0.0170398 0)
(0 -0.0170537 0)
(0 -0.0170196 0)
(0 -0.0170338 0)
(0 -0.0169972 0)
(0 -0.0170122 0)
(0 -0.0169743 0)
(0 -0.0169888 0)
(0 -0.0170257 0)
(0 -0.0170017 0)
(0 -0.0170373 0)
(0 -0.0170141 0)
(0 -0.0169758 0)
(0 -0.016987 0)
(0 -0.017025 0)
(0 -0.0169968 0)
(0 -0.0170332 0)
(0 -0.0170051 0)
(0 -0.0170403 0)
(0 -0.0170118 0)
(0 -0.0170471 0)
(0 -0.017017 0)
(0 -0.0170522 0)
(0 -0.0170208 0)
(0 -0.0170549 0)
(0 -0.017023 0)
(0 -0.0170562 0)
(0 -0.0170234 0)
(0 -0.0170552 0)
(0 -0.0170219 0)
(0 -0.0169805 0)
(0 -0.0169883 0)
(0 -0.0169854 0)
(0 -0.0169502 0)
(0 -0.0169465 0)
(0 -0.0170275 0)
(0 -0.0170521 0)
(0 -0.0169479 0)
(0 -0.0169093 0)
(0 -0.0169053 0)
(0 -0.0170891 0)
(0 -0.000603097 0)
(0 -0.000576872 0)
(0 -0.0169697 0)
(0 -0.00145677 0)
(0 -0.00144831 0)
(0 -0.00114223 0)
(0 -0.00114619 0)
(0 -0.0168654 0)
(0 -0.0168605 0)
(0 -0.0174496 0)
(0 -0.0174487 0)
(0 -0.0174496 0)
(0 -0.0174487 0)
(0 -0.0174496 0)
(0 -0.0174487 0)
(0 -0.0174495 0)
(0 -0.0174486 0)
(0 -0.0174494 0)
(0 -0.0174484 0)
(0 -0.0174494 0)
(0 -0.0174482 0)
(0 -0.0174491 0)
(0 -0.0174478 0)
(0 -0.0174488 0)
(0 -0.0174475 0)
(0 -0.0174485 0)
(0 -0.0174472 0)
(0 -0.0174481 0)
(0 -0.0174467 0)
(0 -0.0174477 0)
(0 -0.0174463 0)
(0 -0.0174475 0)
(0 -0.0174456 0)
(0 -0.0174467 0)
(0 -0.0174448 0)
(0 -0.0174458 0)
(0 -0.0174437 0)
(0 -0.0174459 0)
(0 -0.0174439 0)
(0 -0.0174448 0)
(0 -0.0174474 0)
(0 -0.0174428 0)
(0 -0.0174438 0)
(0 -0.0174416 0)
(0 -0.0174427 0)
(0 -0.017445 0)
(0 -0.0174437 0)
(0 -0.0174413 0)
(0 -0.0174423 0)
(0 -0.0174444 0)
(0 -0.0174431 0)
(0 -0.0174451 0)
(0 -0.0174436 0)
(0 -0.0174456 0)
(0 -0.017444 0)
(0 -0.0174459 0)
(0 -0.0174418 0)
(0 -0.0174443 0)
(0 -0.0174462 0)
(0 -0.0174445 0)
(0 -0.0174475 0)
(0 -0.0173657 0)
(0 -0.0170574 0)
(0 -0.0118167 0)
(0 -0.0011708 0)
(0 -0.00115593 0)
(0 -0.0169938 0)
(0 -0.0169475 0)
(0 -0.0174488 0)
(0 -0.000542138 0)
(0 -0.00051726 0)
(0 -0.0173658 0)
(0 -0.00135044 0)
(0 -0.00134426 0)
(0 -0.00135461 0)
(0 -0.00143772 0)
(0 -0.0013358 0)
(0 -0.0170369 0)
(0 -0.0168182 0)
(0 -0.016825 0)
(0 -0.0168113 0)
(0 -0.00106511 0)
(0 -0.00106885 0)
(0 -0.00114827 0)
(0 -0.00107078 0)
(0 -0.00114834 0)
(0 -0.0010708 0)
(0 -0.00114647 0)
(0 -0.0010689 0)
(0 -0.00124334 0)
(0 -0.00123699 0)
(0 -0.0170873 0)
(0 -0.0174499 0)
(0 -0.0131444 0)
(0 -0.000993939 0)
(0 -0.000992096 0)
(0 -0.0011426 0)
(0 -0.0162455 0)
(0 -0.0170156 0)
(0 -0.0170568 0)
(0 -0.0174472 0)
(0 -0.000484035 0)
(0 -0.0171714 0)
(0 -0.0170727 0)
(0 -0.0174397 0)
(0 -0.00364381 0)
(0 -0.000547735 0)
(0 -0.000769404 0)
(0 -0.00306223 0)
(0 -0.000505077 0)
(0 -0.00439345 0)
(0 -0.00373765 0)
(0 -0.0013252 0)
(0 -0.00122846 0)
(0 -0.00114118 0)
(0 -0.00113467 0)
(0 -0.0167671 0)
(0 -0.00108181 0)
(0 -0.00106613 0)
(0 -0.0158015 0)
(0 -0.000459622 0)
(0 -0.0155961 0)
(0 -0.0155254 0)
(0 -0.0154639 0)
(0 -0.0153925 0)
(0 -0.0153303 0)
(0 -0.0152438 0)
(0 -0.0151901 0)
(0 -0.0151014 0)
(0 -0.0150466 0)
(0 -0.0149558 0)
(0 -0.0150107 0)
(0 -0.0148958 0)
(0 -0.0149845 0)
(0 -0.0148331 0)
(0 -0.0149186 0)
(0 -0.0147678 0)
(0 -0.0148485 0)
(0 -0.0147041 0)
(0 -0.0147939 0)
(0 -0.0146326 0)
(0 -0.0147033 0)
(0 -0.0145501 0)
(0 -0.0146246 0)
(0 -0.0144664 0)
(0 -0.0145409 0)
(0 -0.0143824 0)
(0 -0.0144547 0)
(0 -0.0142962 0)
(0 -0.014367 0)
(0 -0.0142074 0)
(0 -0.0142777 0)
(0 -0.0144309 0)
(0 -0.0143411 0)
(0 -0.0141851 0)
(0 -0.0142464 0)
(0 -0.014089 0)
(0 -0.0141483 0)
(0 -0.0139904 0)
(0 -0.0140479 0)
(0 -0.0138892 0)
(0 -0.0139445 0)
(0 -0.0137849 0)
(0 -0.0143951 0)
(0 -0.013838 0)
(0 -0.0136773 0)
(0 -0.0137287 0)
(0 -0.0135673 0)
(0 -0.013617 0)
(0 -0.0134561 0)
(0 -0.013502 0)
(0 -0.0133405 0)
(0 -0.0139942 0)
(0 -0.0133826 0)
(0 -0.0132207 0)
(0 -0.0132611 0)
(0 -0.0130987 0)
(0 -0.0135403 0)
(0 -0.0131376 0)
(0 -0.0129748 0)
(0 -0.0130116 0)
(0 -0.0128492 0)
(0 -0.0128836 0)
(0 -0.0127213 0)
(0 -0.0126826 0)
(0 -0.0125549 0)
(0 -0.0125117 0)
(0 -0.0123842 0)
(0 -0.0124255 0)
(0 -0.012255 0)
(0 -0.0122092 0)
(0 -0.0120805 0)
(0 -0.0121238 0)
(0 -0.0119499 0)
(0 -0.0119904 0)
(0 -0.0118171 0)
(0 -0.013176 0)
(0 -0.0118558 0)
(0 -0.0116835 0)
(0 -0.0116404 0)
(0 -0.0115074 0)
(0 -0.0115516 0)
(0 -0.0113759 0)
(0 -0.0113276 0)
(0 -0.011194 0)
(0 -0.0112405 0)
(0 -0.011058 0)
(0 -0.0110994 0)
(0 -0.0109215 0)
(0 -0.0108764 0)
(0 -0.0107411 0)
(0 -0.0107865 0)
(0 -0.0106051 0)
(0 -0.0105576 0)
(0 -0.0104219 0)
(0 -0.0104668 0)
(0 -0.0102851 0)
(0 -0.0103269 0)
(0 -0.0101482 0)
(0 -0.0100999 0)
(0 -0.00996745 0)
(0 -0.0100103 0)
(0 -0.00983212 0)
(0 -0.00987099 0)
(0 -0.00969492 0)
(0 -0.00965154 0)
(0 -0.00951662 0)
(0 -0.0095565 0)
(0 -0.00938086 0)
(0 -0.00941761 0)
(0 -0.00924428 0)
(0 -0.00920242 0)
(0 -0.00906838 0)
(0 -0.00910724 0)
(0 -0.00893373 0)
(0 -0.0147427 0)
(0 -0.0089697 0)
(0 -0.00879856 0)
(0 -0.00875833 0)
(0 -0.00862556 0)
(0 -0.008663 0)
(0 -0.0084925 0)
(0 -0.00845076 0)
(0 -0.00832061 0)
(0 -0.00835907 0)
(0 -0.00819006 0)
(0 -0.00822525 0)
(0 -0.00805869 0)
(0 -0.0147705 0)
(0 -0.00801856 0)
(0 -0.00788969 0)
(0 -0.00792716 0)
(0 -0.00776135 0)
(0 -0.00779568 0)
(0 -0.00763356 0)
(0 -0.00759327 0)
(0 -0.00747358 0)
(0 -0.00750543 0)
(0 -0.00734917 0)
(0 -0.013042 0)
(0 -0.00737629 0)
(0 -0.00721861 0)
(0 -0.00718557 0)
(0 -0.00705673 0)
(0 -0.00709092 0)
(0 -0.00693434 0)
(0 -0.0136193 0)
(0 -0.00689507 0)
(0 -0.006777 0)
(0 -0.00681128 0)
(0 -0.00665682 0)
(0 -0.00668844 0)
(0 -0.00653692 0)
(0 -0.00650179 0)
(0 -0.00638491 0)
(0 -0.00641711 0)
(0 -0.00626817 0)
(0 -0.0144741 0)
(0 -0.00629751 0)
(0 -0.00615163 0)
(0 -0.00611879 0)
(0 -0.00600527 0)
(0 -0.00603531 0)
(0 -0.00589196 0)
(0 -0.00585848 0)
(0 -0.00574817 0)
(0 -0.00571137 0)
(0 -0.00560405 0)
(0 -0.00563811 0)
(0 -0.00549695 0)
(0 -0.00545971 0)
(0 -0.00535557 0)
(0 -0.00538997 0)
(0 -0.0052514 0)
(0 -0.00521404 0)
(0 -0.00511279 0)
(0 -0.00507244 0)
(0 -0.00497416 0)
(0 -0.00501163 0)
(0 -0.00487604 0)
(0 -0.00483552 0)
(0 -0.00473913 0)
(0 -0.00469688 0)
(0 -0.00460451 0)
(0 -0.00455699 0)
(0 -0.00447398 0)
(0 -0.00441939 0)
(0 -0.00433856 0)
(0 -0.00428445 0)
(0 -0.00420049 0)
(0 -0.0120241 0)
(0 -0.0139258 0)
(0 -0.0141308 0)
(0 -0.0120299 0)
(0 -0.0173107 0)
(0 -0.0172999 0)
(0 -0.0116918 0)
(0 -0.0160787 0)
(0 -0.0159058 0)
(0 -0.016958 0)
(0 -0.0161638 0)
(0 -0.0169724 0)
(0 -0.00491126 0)
(0 -0.016146 0)
(0 -0.017018 0)
(0 -0.00414717 0)
(0 -0.00406608 0)
(0 -0.00104843 0)
(0 -0.00104385 0)
(0 -0.0118551 0)
(0 -0.0174504 0)
(0 -0.000988313 0)
(0 -0.0173375 0)
(0 -0.0046393 0)
(0 -0.0170353 0)
(0 -0.0170749 0)
(0 -0.0174403 0)
(0 -0.0167582 0)
(0 -0.000917821 0)
(0 -0.000916176 0)
(0 -0.00401288 0)
(0 -0.0039333 0)
(0 -0.00387862 0)
(0 -0.00380114 0)
(0 -0.00042837 0)
(0 -0.00374222 0)
(0 -0.00366969 0)
(0 -0.0171495 0)
(0 -0.000404935 0)
(0 -0.0167126 0)
(0 -0.017294 0)
(0 -0.0172825 0)
(0 -0.00411239 0)
(0 -0.00415421 0)
(0 -0.00396939 0)
(0 -0.00400361 0)
(0 -0.0038199 0)
(0 -0.00384871 0)
(0 -0.00366432 0)
(0 -0.003688 0)
(0 -0.00350095 0)
(0 -0.00351813 0)
(0 -0.00332942 0)
(0 -0.00334113 0)
(0 -0.00353399 0)
(0 -0.00335054 0)
(0 -0.00354814 0)
(0 -0.00335719 0)
(0 -0.00355783 0)
(0 -0.00336107 0)
(0 -0.0035651 0)
(0 -0.00336189 0)
(0 -0.00357 0)
(0 -0.00315086 0)
(0 -0.00335909 0)
(0 -0.00357028 0)
(0 -0.00335217 0)
(0 -0.00356799 0)
(0 -0.00334205 0)
(0 -0.00356466 0)
(0 -0.00315504 0)
(0 -0.00332887 0)
(0 -0.00355759 0)
(0 -0.00378929 0)
(0 -0.00378931 0)
(0 -0.00354627 0)
(0 -0.0037831 0)
(0 -0.00353206 0)
(0 -0.00377321 0)
(0 -0.00402294 0)
(0 -0.00401773 0)
(0 -0.00375941 0)
(0 -0.00400909 0)
(0 -0.00374205 0)
(0 -0.00399718 0)
(0 -0.00425918 0)
(0 -0.0042537 0)
(0 -0.00398162 0)
(0 -0.00424488 0)
(0 -0.00451096 0)
(0 -0.00451007 0)
(0 -0.0042301 0)
(0 -0.00449891 0)
(0 -0.00420853 0)
(0 -0.00448349 0)
(0 -0.00476 0)
(0 -0.00476141 0)
(0 -0.00447069 0)
(0 -0.00475863 0)
(0 -0.00504529 0)
(0 -0.00504478 0)
(0 -0.00474707 0)
(0 -0.00503671 0)
(0 -0.00472782 0)
(0 -0.00502495 0)
(0 -0.00532743 0)
(0 -0.00532205 0)
(0 -0.00500732 0)
(0 -0.00531356 0)
(0 -0.00498971 0)
(0 -0.00530154 0)
(0 -0.00562136 0)
(0 -0.00561141 0)
(0 -0.00528315 0)
(0 -0.00559779 0)
(0 -0.00526019 0)
(0 -0.00558294 0)
(0 -0.00590659 0)
(0 -0.00590218 0)
(0 -0.00556482 0)
(0 -0.00589296 0)
(0 -0.00621926 0)
(0 -0.0062201 0)
(0 -0.00587602 0)
(0 -0.00621095 0)
(0 -0.00585344 0)
(0 -0.00619476 0)
(0 -0.00654584 0)
(0 -0.00653531 0)
(0 -0.00617412 0)
(0 -0.00652011 0)
(0 -0.00614872 0)
(0 -0.0065006 0)
(0 -0.00686477 0)
(0 -0.00685057 0)
(0 -0.00647628 0)
(0 -0.00683297 0)
(0 -0.00719831 0)
(0 -0.00718675 0)
(0 -0.00681121 0)
(0 -0.00716965 0)
(0 -0.00678438 0)
(0 -0.00714817 0)
(0 -0.0067519 0)
(0 -0.00712201 0)
(0 -0.00754434 0)
(0 -0.00671361 0)
(0 -0.00709027 0)
(0 -0.007489 0)
(0 -0.0074629 0)
(0 -0.00705398 0)
(0 -0.00743183 0)
(0 -0.00701222 0)
(0 -0.00739506 0)
(0 -0.00696333 0)
(0 -0.00735262 0)
(0 -0.0078525 0)
(0 -0.00690859 0)
(0 -0.007305 0)
(0 -0.00773779 0)
(0 -0.0076957 0)
(0 -0.00725257 0)
(0 -0.00764797 0)
(0 -0.00719392 0)
(0 -0.00759405 0)
(0 -0.00712615 0)
(0 -0.00753322 0)
(0 -0.00811706 0)
(0 -0.00705112 0)
(0 -0.00746635 0)
(0 -0.00793536 0)
(0 -0.0078743 0)
(0 -0.0073937 0)
(0 -0.00780742 0)
(0 -0.00731433 0)
(0 -0.00773371 0)
(0 -0.00722646 0)
(0 -0.00765181 0)
(0 -0.00633131 0)
(0 -0.00310399 0)
(0 -0.00712779 0)
(0 -0.00756186 0)
(0 -0.0065086 0)
(0 -0.0080693 0)
(0 -0.0079868 0)
(0 -0.00746815 0)
(0 -0.00789906 0)
(0 -0.00738305 0)
(0 -0.00780407 0)
(0 -0.00832828 0)
(0 -0.00377042 0)
(0 -0.00727399 0)
(0 -0.00770025 0)
(0 -0.00716147 0)
(0 -0.00759235 0)
(0 -0.00705793 0)
(0 -0.00748117 0)
(0 -0.00314304 0)
(0 -0.00296482 0)
(0 -0.00295966 0)
(0 -0.0027812 0)
(0 -0.0027793 0)
(0 -0.00260063 0)
(0 -0.00260272 0)
(0 -0.0024241 0)
(0 -0.00241675 0)
(0 -0.00242915 0)
(0 -0.00225056 0)
(0 -0.00225918 0)
(0 -0.00802365 0)
(0 -0.00791226 0)
(0 -0.00735556 0)
(0 -0.00778964 0)
(0 -0.000992079 0)
(0 -0.000975754 0)
(0 -0.0174505 0)
(0 -0.00721054 0)
(0 -0.00765759 0)
(0 -0.00131253 0)
(0 -0.00208057 0)
(0 -0.00209321 0)
(0 -0.00663332 0)
(0 -0.0168021 0)
(0 -0.0167471 0)
(0 -0.000958816 0)
(0 -0.00095611 0)
(0 -0.000959224 0)
(0 -0.0117265 0)
(0 -0.00705891 0)
(0 -0.00751956 0)
(0 -0.00809804 0)
(0 -0.00796664 0)
(0 -0.00737565 0)
(0 -0.00782841 0)
(0 -0.0010372 0)
(0 -0.000951317 0)
(0 -0.0010491 0)
(0 -0.000958194 0)
(0 -0.00103079 0)
(0 -0.000939334 0)
(0 -0.00101114 0)
(0 -0.000919375 0)
(0 -0.00360759 0)
(0 -0.00353812 0)
(0 -0.000376074 0)
(0 -0.00722384 0)
(0 -0.00768327 0)
(0 -0.00848015 0)
(0 -0.000842574 0)
(0 -0.000841288 0)
(0 -0.000912676 0)
(0 -0.000838152 0)
(0 -0.000907266 0)
(0 -0.000833152 0)
(0 -0.000871543 0)
(0 -0.000868242 0)
(0 -0.017107 0)
(0 -0.0170532 0)
(0 -0.0170913 0)
(0 -0.0170122 0)
(0 -0.0118868 0)
(0 -0.00424851 0)
(0 -0.000354217 0)
(0 -0.000380386 0)
(0 -0.000764827 0)
(0 -0.00076036 0)
(0 -0.00347456 0)
(0 -0.00340721 0)
(0 -0.000899892 0)
(0 -0.00385618 0)
(0 -0.00706423 0)
(0 -0.00753173 0)
(0 -0.00812567 0)
(0 -0.0079791 0)
(0 -0.00737356 0)
(0 -0.00783017 0)
(0 -0.00720679 0)
(0 -0.00767276 0)
(0 -0.00668594 0)
(0 -0.00154118 0)
(0 -0.00154377 0)
(0 -0.00162364 0)
(0 -0.00162474 0)
(0 -0.0017056 0)
(0 -0.00170492 0)
(0 -0.00178685 0)
(0 -0.00178435 0)
(0 -0.00186746 0)
(0 -0.0171118 0)
(0 -0.0171267 0)
(0 -0.00191322 0)
(0 -0.00193033 0)
(0 -0.00189773 0)
(0 -0.0129115 0)
(0 -0.0130655 0)
(0 -0.0129328 0)
(0 -0.0130822 0)
(0 -0.0129472 0)
(0 -0.00844734 0)
(0 -0.000790104 0)
(0 -0.000788465 0)
(0 -0.00346873 0)
(0 -0.00333916 0)
(0 -0.00327691 0)
(0 -0.00321048 0)
(0 -0.00314759 0)
(0 -0.00308538 0)
(0 -0.00301941 0)
(0 -0.00296327 0)
(0 -0.00289707 0)
(0 -0.00284328 0)
(0 -0.017087 0)
(0 -0.0172759 0)
(0 -0.0172636 0)
(0 -0.00852417 0)
(0 -0.00102997 0)
(0 -0.000326774 0)
(0 -0.000344488 0)
(0 -0.0070308 0)
(0 -0.00750407 0)
(0 -0.000901664 0)
(0 -0.0172702 0)
(0 -0.0117543 0)
(0 -0.00811064 0)
(0 -0.00795669 0)
(0 -0.00732803 0)
(0 -0.0077881 0)
(0 -0.00714414 0)
(0 -0.0160483 0)
(0 -0.0160975 0)
(0 -0.00326767 0)
(0 -0.00277765 0)
(0 -0.00272433 0)
(0 -0.0172504 0)
(0 -0.0172575 0)
(0 -0.00851584 0)
(0 -0.0128596 0)
(0 -0.00373709 0)
(0 -0.00170166 0)
(0 -0.00177946 0)
(0 -0.00169601 0)
(0 -0.00244303 0)
(0 -0.00196335 0)
(0 -0.00197106 0)
(0 -0.0018394 0)
(0 -0.00184243 0)
(0 -0.00171072 0)
(0 -0.00170898 0)
(0 -0.00157739 0)
(0 -0.00157099 0)
(0 -0.00143977 0)
(0 -0.00142985 0)
(0 -0.00665806 0)
(0 -0.000982966 0)
(0 -0.000906567 0)
(0 -0.000899617 0)
(0 -0.000823522 0)
(0 -0.000814992 0)
(0 -0.0170298 0)
(0 -0.0169872 0)
(0 -0.00422752 0)
(0 -0.000306202 0)
(0 -0.00175021 0)
(0 -0.0169343 0)
(0 -0.0169169 0)
(0 -0.0168919 0)
(0 -0.0168734 0)
(0 -0.0168469 0)
(0 -0.0168278 0)
(0 -0.0167995 0)
(0 -0.01678 0)
(0 -0.0168116 0)
(0 -0.0167496 0)
(0 -0.0167695 0)
(0 -0.0167289 0)
(0 -0.000692773 0)
(0 -0.000688996 0)
(0 -0.00838708 0)
(0 -0.000280444 0)
(0 -0.000847062 0)
(0 -0.000711896 0)
(0 -0.000712112 0)
(0 -0.000784577 0)
(0 -0.000709909 0)
(0 -0.000709762 0)
(0 -0.00382575 0)
(0 -0.0119122 0)
(0 -0.0130926 0)
(0 -0.0132278 0)
(0 -0.0129552 0)
(0 -0.016718 0)
(0 -0.0167375 0)
(0 -0.00177193 0)
(0 -0.00168774 0)
(0 -0.0171462 0)
(0 -0.0171597 0)
(0 -0.01714 0)
(0 -0.0171717 0)
(0 -0.00129826 0)
(0 -0.00131362 0)
(0 -0.00128516 0)
(0 -0.0172564 0)
(0 -0.0172685 0)
(0 -0.000638736 0)
(0 -0.000637256 0)
(0 -0.00265541 0)
(0 -0.00260542 0)
(0 -0.0117756 0)
(0 -0.0116185 0)
(0 -0.00659379 0)
(0 -0.00310332 0)
(0 -0.00184695 0)
(0 -0.00419662 0)
(0 -0.000777048 0)
(0 -0.000261113 0)
(0 -0.000237338 0)
(0 -0.000739075 0)
(0 -0.000729014 0)
(0 -0.0171519 0)
(0 -0.0171822 0)
(0 -0.0132342 0)
(0 -0.0133691 0)
(0 -0.00658247 0)
(0 -0.000622205 0)
(0 -0.000619139 0)
(0 -0.00068345 0)
(0 -0.000614447 0)
(0 -0.00062346 0)
(0 -0.000676061 0)
(0 -0.000607954 0)
(0 -0.0172359 0)
(0 -0.017243 0)
(0 -0.00243388 0)
(0 -0.000568181 0)
(0 -0.00056813 0)
(0 -0.0170045 0)
(0 -0.0169602 0)
(0 -0.0120469 0)
(0 -0.0120691 0)
(0 -0.00307563 0)
(0 -0.00654087 0)
(0 -0.00186899 0)