/*--------------------------------*- C++ -*----------------------------------*\
| =========                 |                                                 |
| \\      /  F ield         | OpenFOAM: The Open Source CFD Toolbox           |
|  \\    /   O peration     | Version:  v2012                                 |
|   \\  /    A nd           | Website:  www.openfoam.com                      |
|    \\/     M anipulation  |                                                 |
\*---------------------------------------------------------------------------*/
FoamFile
{
    version     2.0;
    format      ascii;
    class       volScalarField;
    location    "700";
    object      omega;
}
// * * * * * * * * * * * * * * * * * * * * * * * * * * * * * * * * * * * * * //

dimensions      [0 0 -1 0 0 0 0];


internalField   nonuniform List<scalar> 
18758
(
0.121642
5.6511
0.0214733
4.30933
5.84683
7.38484
7.81606
0.021713
0.272594
0.0278033
0.0236941
9.19213
0.022047
0.159778
0.0231339
0.606846
0.0409499
0.0219414
0.0219241
0.0310473
7.75133
0.022271
5.36764
0.842577
2.38211
0.0217174
1.68548
6.02257
9.05689
4.34428
0.0644557
5.78212
0.0221819
0.0227064
0.124297
0.0221725
0.0222265
0.0219978
0.0222625
0.0438693
0.0219958
0.026608
0.0216412
0.0261449
2.58225
0.0216143
5.16729
0.0239808
0.0273667
0.0216092
0.147922
5.12864
0.0215404
0.0234638
5.76061
11.498
0.0222172
0.375934
0.0219535
0.179287
0.0994956
6.71853
0.120074
0.0228583
0.0215497
0.0220099
0.0448624
0.0221776
0.0219183
4.99133
4.78723
0.0223397
0.0216155
14.1325
0.0216827
0.0219483
0.246874
5.60149
0.0883023
5.05492
6.09484
4.92395
0.179949
6.96779
0.252972
0.0303613
22.341
0.119108
6.21268
0.0219486
6.60708
0.0219543
13.1699
0.027035
6.12005
11.8543
0.24499
0.0216813
0.0218973
6.43412
0.0325569
6.03223
0.0836361
0.0473897
7.66877
3.27023
5.14938
5.78543
0.0226309
0.0223164
15.2025
10.533
0.0217583
0.0220452
7.64092
10.6461
7.94098
0.0231331
6.9086
5.83328
0.0383197
0.021962
10.6399
1.37894
0.574735
1.78303
4.17623
0.651773
10.435
0.0220499
0.0423097
1.55409
16.8868
0.0494174
4.83482
0.0238401
0.241641
0.0457349
0.0218951
0.0783219
0.089108
0.245755
0.0219748
14.389
0.0220007
0.0220137
8.95898
7.09672
0.0635202
7.09745
3.1132
1.39813
0.0303175
0.0222707
5.20179
0.0282042
6.16968
0.0239863
0.0221871
0.0222888
0.0218083
0.176123
17.9949
0.0221797
0.0992951
8.94736
0.0219698
10.962
0.236515
7.48784
5.17361
0.0219364
17.5581
5.97141
0.175045
0.815752
8.40214
0.0229526
0.0765568
0.0221027
0.0217963
33.7688
0.869668
0.0216426
0.025358
0.590815
0.0219207
8.79425
0.0216263
0.0219299
0.0497307
0.567531
0.0223931
0.0606244
0.0340078
0.122161
0.0316943
0.271008
0.0221488
0.0216345
0.0735857
0.0239149
0.0369403
0.0861268
0.0220355
0.033542
0.087581
0.0222787
8.40586
0.0273845
0.0219287
0.0500123
0.0222185
0.0366633
0.0777248
6.21822
0.0863124
0.547636
0.0216288
7.51209
0.0219286
0.0226462
0.213928
7.20542
0.297411
0.0856241
0.0599886
0.0469282
0.0216015
0.0879549
0.0220036
0.121634
5.13032
0.255405
0.0220636
0.0219211
0.021603
0.0216397
11.068
0.0369732
0.0218364
0.920935
5.22708
0.0230309
7.00887
37.3749
0.251579
0.022179
6.09806
0.0297175
0.0221536
10.3291
0.0304283
0.0302109
0.0225433
0.0416639
0.477784
0.685975
0.0357693
0.085965
0.0216622
0.069854
0.0220296
0.0852013
0.0269319
0.211819
10.6496
0.021634
0.0225152
0.450676
0.0224461
0.0250959
0.0861827
9.23251
9.91364
0.0219707
0.129221
22.6283
2.91256
0.0225815
0.0217329
0.0294012
0.0371605
0.0219675
16.8418
0.758669
4.81291
31.0129
5.35438
0.0216218
0.0214666
0.0515541
6.93559
0.0255676
0.0862224
0.119349
0.029371
5.8049
0.0218891
4.06902
7.15284
0.0216268
4.39687
0.0377191
0.0219453
0.0332736
0.0911351
0.0228595
0.0221576
7.07256
4.79419
0.0219252
8.81254
5.83123
0.267972
0.0220144
0.0221345
3.30977
0.0230008
0.0216373
0.0217633
0.0230191
0.243063
0.0927913
0.0293714
0.0359297
0.0311896
0.0496628
0.0216474
0.0222784
0.621215
0.0563373
0.13791
4.31103
0.0259521
0.0223427
0.0221023
4.07118
4.56206
0.0216136
0.0219164
0.0216155
0.0237305
0.0442133
1.58488
0.0219611
0.0222132
0.0215994
0.839088
0.22174
0.190087
0.161644
0.0228893
0.533393
0.114433
0.0377115
0.0314141
8.48061
6.35391
0.699764
0.0220475
0.0332711
8.38312
9.09289
0.0249344
0.021626
0.0599426
0.021956
0.0303271
8.18144
3.51373
0.106399
0.0304565
8.80483
0.0220036
0.0238988
0.0219067
0.0222677
0.104034
0.0240915
7.95441
0.281367
0.0224627
0.0219293
6.83532
0.104328
0.266533
0.0220019
0.0521326
0.0217228
0.0260146
0.0219623
0.0216438
8.09096
7.63789
4.0464
20.2466
0.0219131
0.228894
4.48259
0.0425199
0.0217526
4.3075
0.0217619
0.0220641
0.0217921
0.107326
0.0219529
0.0260266
0.149824
10.174
0.0217497
5.64437
0.0475394
0.0220208
0.0258779
0.0219745
0.0219181
0.0286567
0.0658457
0.0489954
25.3575
0.0397962
0.0220429
0.403653
6.02541
4.36908
5.25797
0.0997543
0.0225153
0.0216445
0.0218391
0.0222389
0.1062
0.0420929
0.0324752
0.0362695
0.0303483
0.736183
0.0855808
0.0219679
0.0349474
5.79248
0.0228213
3.47637
0.0222107
0.0220826
5.41183
0.0280414
0.0224493
0.476542
0.127675
0.0509484
9.45666
0.0219533
0.0226461
0.760497
8.10906
0.0360467
0.0739071
0.165431
0.579683
25.38
0.163007
0.0223122
0.149053
0.0220448
0.108048
0.0231167
11.6125
0.0513951
5.77409
0.0323104
0.0711661
0.021628
0.890118
0.0216217
8.13957
0.0219114
0.374509
0.0220572
4.37736
0.0312684
0.0220895
0.0219015
0.0217839
5.71274
10.2076
7.66921
0.044401
0.024739
0.0915357
0.0222702
0.0222873
5.21867
0.0219024
0.0220619
0.122313
0.0220417
0.07187
0.0909318
0.0220573
0.0219515
0.0278968
0.0227335
0.0287604
6.90409
0.0323315
0.0356971
0.0267547
0.0220472
3.67554
0.0223517
0.0226292
3.44369
10.0602
0.0683447
4.1984
0.0251552
0.022602
7.05358
0.0219487
8.79034
0.341416
0.0220831
6.92284
0.61842
0.0606302
0.0218616
0.053638
4.93487
0.0220009
0.0218554
0.0231956
0.0228456
0.0220315
0.0216974
0.0222939
10.6469
0.0252559
8.85583
0.021965
0.167767
7.89137
0.0220357
0.0216333
0.0251984
0.0221297
0.0226479
0.0233158
0.0220891
0.115799
0.865602
0.0215385
4.9924
5.27339
0.0355317
0.14684
4.40856
0.0263806
0.0314416
0.0284607
4.89903
0.0251522
0.0451405
0.022009
4.12046
0.0420344
0.223783
0.140222
7.58221
0.0250893
0.0219462
0.0600448
1.82423
0.022588
0.467966
0.0222536
5.71626
0.0227372
0.0217831
0.0217803
0.0220477
5.23757
5.7865
0.0220154
0.288435
0.0306204
4.26339
7.37215
2.85621
2.31713
0.0218938
6.38337
0.0597916
0.0219768
0.0458854
5.02201
6.73678
0.0226857
0.0225702
0.0220076
0.0215081
7.22544
0.113569
5.79355
4.78094
0.0220496
0.0221407
0.058141
0.022281
0.0218104
0.0232921
0.022989
0.118824
0.0412305
0.232397
5.7543
0.0742167
0.0220643
0.0274335
0.125589
5.44853
0.0433814
9.30578
0.0531869
0.0220203
0.276018
5.31773
0.0224509
0.0216324
0.152685
6.38608
0.260289
0.0220423
7.74579
29.2724
2.494
0.0216028
6.94504
7.20054
22.5977
0.024086
0.0221964
7.94855
0.0222945
0.185727
6.64915
0.236658
6.64281
0.0822617
5.02334
0.0672735
0.022117
0.0225498
6.31723
4.21856
8.56408
3.94852
0.0219481
0.186099
0.0222771
0.0608294
0.0824777
0.138719
0.0220879
0.0251606
0.217747
4.8703
5.87007
10.1073
0.0389541
0.0326031
0.257684
0.0222492
0.0216997
0.0219512
0.025775
0.0669904
0.0220329
0.0776716
0.0218556
0.0220804
0.0219043
5.90204
0.0223385
0.0222696
0.0546965
0.0526905
0.021543
10.5807
0.0219575
0.0216964
0.0561916
0.036844
0.0249631
0.0228499
7.03344
0.0359045
0.0347321
5.3412
0.0347626
4.26867
0.0259811
0.115542
27.7642
9.32906
0.0216249
4.86598
0.703979
0.0216852
5.27755
0.022064
0.0218917
0.0395879
0.0219494
0.11298
5.27161
0.0216202
24.3948
0.0218687
0.0380793
4.23252
0.0215238
6.12408
0.0234802
0.0219779
0.0219215
0.0219483
0.254684
0.0730175
11.5024
0.0763895
7.04013
0.0583804
0.0220351
0.23511
8.92259
3.31221
0.0759455
0.184749
0.0591594
0.0267343
0.253268
0.0226761
7.57072
0.022035
5.96882
0.0227776
0.0760635
0.0279362
0.0223352
9.01554
0.0225683
0.0218178
4.20794
0.0235273
0.0219069
0.0439179
0.0909322
0.262882
3.17268
4.95607
5.37816
0.0221332
0.0222049
6.55051
0.0219887
0.9389
0.0875991
0.0237821
0.0220608
0.0328892
0.0219879
0.0219408
0.029056
0.820618
0.232072
0.159884
0.0638415
0.0221336
0.0573706
8.32219
0.0218639
0.0830977
0.0239424
5.15454
0.0232442
5.66424
0.0220296
0.795562
0.0222766
0.0802073
0.0219815
0.0254105
0.0304768
0.0215284
0.0216799
0.0215778
5.79674
32.0879
0.0327435
6.47431
0.0220259
0.0415676
0.0282275
0.281994
5.21872
0.0328668
0.0215362
0.229558
0.0218574
0.0220248
0.0282498
9.03339
9.86132
1.3385
3.00418
0.0737211
0.0229502
0.0219053
6.0977
0.0218949
3.06764
0.027733
0.0221856
6.49621
7.93097
0.0220905
9.59741
0.0271031
0.0959934
0.0981825
4.35205
7.8235
1.31439
0.0219986
0.0215018
5.70056
0.0219792
0.0219166
0.0283773
0.0219966
5.57223
0.24905
0.0585956
6.11324
0.0483104
0.119973
0.0238568
0.0219903
0.0215329
0.0217828
9.85029
8.46514
0.316382
0.0220567
0.0215298
0.0310812
0.0218358
0.040159
0.0256253
3.15277
5.55909
0.077233
0.26994
0.34121
0.0218785
0.245024
0.0219079
5.29142
0.703297
5.99248
8.06348
0.0230382
0.0291446
5.38264
6.06629
6.61778
0.0450115
0.13543
5.86524
0.0220482
0.257844
1.59261
0.110684
0.0220423
0.0219619
0.0412112
4.87056
3.09966
0.0984018
0.0219667
0.0250211
0.0288667
51.9302
0.0222725
0.681283
0.0218917
0.0227235
0.216613
0.0218655
0.0220198
0.0232263
0.0269759
0.0219766
0.0226503
0.0216053
4.62116
1.1193
5.55137
0.0216261
0.0496617
0.0220116
0.243346
0.260372
0.037068
0.0218949
0.0228793
0.648482
0.124559
0.0291202
7.84888
0.107212
0.0219622
0.02205
4.22252
6.35524
0.063253
0.021612
3.04752
0.0221265
0.036385
0.0216604
1.47361
5.28761
0.0218609
0.022013
3.77839
0.0219541
6.64526
8.55382
0.0568486
0.0222679
0.0221665
0.0216559
0.0220361
25.9665
11.577
0.147775
0.0228277
4.84571
0.0219469
0.0219306
8.40897
0.0217418
6.22575
0.0215103
0.0287874
0.0233005
0.0219328
0.0218408
0.0221214
5.28
0.0224752
0.0221942
0.156863
0.0415133
0.0219716
0.0594022
0.0369639
0.0221265
0.288599
0.0219775
0.0370628
5.73386
0.0865414
0.0219532
0.288203
0.0843528
0.090713
0.0265341
0.0616539
8.85844
0.0244513
0.0589891
0.0219479
0.0215845
0.0220057
0.0437062
0.036746
0.0455418
0.0218572
0.02759
0.0601736
6.63735
0.258586
0.021928
0.0217829
0.0227923
0.105584
0.0218162
8.69594
0.0219545
0.0219693
0.0217817
0.422967
6.0316
0.0221553
0.0236266
0.0218837
0.0898719
0.0218097
0.0219617
0.65805
0.0222704
0.0215892
0.0221326
0.147945
0.0217962
0.0218649
4.22515
12.3209
0.603156
0.0435658
6.02882
0.0500682
0.0219497
0.021907
21.1545
0.0219628
0.0657273
0.0804575
0.0418077
0.0266546
0.0223353
0.0305771
0.022817
0.0216193
0.226264
5.51296
0.0435792
0.0217881
6.44351
0.0449498
7.1407
5.55118
0.0941225
0.0221417
0.0219296
0.0218246
0.0574157
0.0221282
0.0218391
6.83233
0.161715
0.0425157
0.0219077
0.0680168
0.29581
0.0220978
0.0263444
0.0362738
0.142885
0.0701221
0.0220157
0.023388
0.0379525
0.0218219
0.0495016
0.0222916
10.2021
0.0602653
0.129699
0.0217722
0.0373672
6.17282
4.25052
1.21292
0.0639198
9.79834
0.0221313
0.021951
0.0226721
0.0928769
0.0221701
0.0234192
0.0307098
0.0570411
0.0220027
0.0219539
0.0220109
0.022277
0.62306
3.84484
1.39406
0.021993
9.07179
0.0296164
0.0221555
0.0323726
0.0218726
0.0901453
0.0229603
0.0219666
5.15563
35.6044
5.74757
0.0223601
25.1372
0.021965
4.91679
5.26876
0.0215414
0.0587684
0.271615
0.0216187
0.0219631
6.36488
0.0222688
0.0220185
0.199535
1.91759
0.0220302
0.0313538
0.0221512
0.0252522
0.123863
0.0221672
5.476
0.0433046
0.0219595
1.63717
0.0605452
0.0772011
0.0222881
0.301506
0.0220507
5.56997
0.0219667
0.0217687
15.0049
0.0217021
5.96249
0.0219648
0.0555431
8.14418
5.17734
0.0219996
0.0223527
0.0220272
0.0232383
0.0269292
0.0266609
0.0214872
9.6835
0.0218851
0.0219653
0.149733
0.209312
0.0437064
0.0220297
6.13623
0.0873244
0.0223741
0.0351507
0.0219203
0.0217512
8.61324
0.0216282
0.0217728
0.0218062
6.30759
0.0218033
0.0218426
5.67042
0.0252886
5.509
0.0327164
0.0215133
0.0218803
5.25477
0.0261997
0.0220069
8.03504
5.28499
0.021794
4.63596
0.125936
0.0219195
0.0220314
0.325813
0.0222211
4.47233
0.0333866
0.0220345
2.42715
10.4301
0.240466
0.021876
7.37637
0.0299068
0.380193
0.803775
0.0219168
9.70123
0.02201
0.0317962
0.0262851
4.83811
0.0216894
0.0223778
4.37851
0.0222731
0.0355161
0.0216964
0.0221123
5.90261
0.0918007
0.0251745
0.0360664
1.79921
0.0223169
0.0233359
0.0558887
0.120738
0.0255115
0.0219542
0.0219221
0.0221478
0.0225809
0.0218489
0.0338145
0.0275689
1.63399
0.0220095
8.83596
0.0219816
0.028628
0.021984
0.0361575
0.0221077
0.021935
5.18776
5.37263
0.0240629
0.0220985
15.4895
0.0276161
14.8331
0.0365751
0.0709358
4.97604
10.1448
4.04505
0.0230493
0.0219877
0.021805
4.19988
0.021813
0.022022
0.153828
0.0218431
0.0221867
0.0220661
11.7123
1.83335
0.022182
5.70779
5.30613
0.0240232
0.0219419
0.0222026
4.20697
0.0216777
0.0879301
0.0222883
0.0219851
0.0220658
0.0217595
0.0738347
0.0219652
0.0218892
0.0217722
0.0216203
0.319562
0.0216063
0.0217997
0.0221032
0.0219552
0.269698
2.98145
0.0595078
0.0225859
0.0220147
0.022194
0.0222249
4.38421
0.021946
0.0315213
0.0677776
4.684
0.021957
0.0219182
5.37901
0.0221264
0.105902
0.0834011
0.0224238
5.37944
4.14508
0.0309034
8.33178
0.0282768
0.108975
0.0214869
7.67109
0.0220513
6.82466
0.0220513
0.0218494
1.14824
2.25498
0.445117
0.157267
0.0219088
7.23172
0.0221777
6.57074
0.0542095
0.0219344
0.0214892
0.0218953
0.0523428
0.0616259
5.75505
0.0401197
0.0219039
0.0219426
0.0219129
10.9007
0.190459
0.0332908
0.0221466
0.0219096
0.0303003
1.06796
0.0219216
0.032652
0.0683102
0.0219441
0.0239045
0.0231361
0.0587895
0.154678
0.0244143
0.0781358
0.0215851
0.0220162
8.12703
0.0407122
0.088181
1.16414
0.021609
9.56258
15.9576
0.0507745
6.22686
0.0219379
5.40004
6.02204
0.0969328
0.0218002
9.68114
0.129518
0.0219968
0.0385155
5.96854
0.0226377
0.0219772
0.0397833
0.0222713
9.26541
0.030596
0.0220489
0.0222821
0.0218835
0.067742
0.0329886
8.94605
0.0877575
5.2921
0.0776515
0.022261
0.0219402
0.635142
13.77
0.021973
0.0219087
0.158507
0.0220955
0.281926
5.14873
9.91199
0.0219577
0.0219946
6.90378
0.0217601
5.35873
0.540655
0.0217095
5.94051
0.0601243
0.0820091
0.0219721
16.9871
0.0220362
3.73063
0.0215049
0.0477223
0.0228683
0.0216889
8.72177
0.0227267
0.0219875
0.023409
5.09569
0.0220841
0.0215992
5.20423
0.0219145
0.0216533
0.0221242
0.025261
0.022061
0.0221862
0.0278587
0.0221806
0.0263931
0.0215582
0.274524
7.43919
0.132143
5.21619
0.028176
0.0263422
0.0218898
0.0218339
0.0221265
7.87122
4.68743
0.0218899
0.0222777
0.0219192
22.9004
0.0215926
0.289096
0.515717
4.14714
5.89336
7.36922
4.81292
0.0216331
4.41565
5.59682
5.4467
0.0261449
0.0221577
0.0414437
0.021642
4.71507
0.113327
0.0599258
0.0270027
8.25036
0.0219953
0.0214839
5.12822
0.126808
0.0219795
0.021523
0.0429381
0.0221231
16.5887
4.14552
6.39795
4.1151
0.0745357
1.9206
0.0218201
0.265855
0.0221144
0.0219589
0.021644
5.73612
0.0221314
0.0218151
2.22938
5.11471
0.267268
0.135497
0.02291
0.0393898
10.0244
11.1954
5.46172
5.33541
0.120497
5.94258
0.223737
0.575194
0.0523441
0.0400434
0.0218919
0.0362261
0.0323349
0.0220536
5.50613
0.0218108
0.0219748
0.022
6.42271
0.0255796
0.0218161
0.0218431
0.0219676
0.132814
0.088964
1.59571
0.0227268
6.06205
0.021515
0.0219246
0.0825251
0.0698319
0.0215008
4.11757
0.0403968
5.41507
0.0219895
9.41294
0.0623157
0.0219287
0.0220616
0.0219584
5.86629
5.82512
9.80081
0.0219863
0.022255
0.0215736
5.40405
0.0282079
0.0220683
0.713621
0.0219418
0.0225895
4.74489
0.0215973
0.0219527
0.0220739
0.022126
0.0214797
0.022447
0.0215152
0.0222621
0.0742328
0.0400726
0.0218385
8.99569
0.0238387
5.55108
10.7655
0.0510183
5.79506
5.42625
0.0217992
0.0405662
0.0220305
0.0218496
4.77831
0.0261702
6.76979
0.027313
0.110722
0.0221001
0.0232621
0.0219138
4.18045
0.0433289
5.2979
0.0220531
0.119698
0.0291282
0.021804
0.0369914
0.0398196
0.0215439
8.57976
0.0221024
0.0398024
0.0220099
0.0304852
0.0497211
0.200013
0.0265673
0.0729257
7.72446
0.0303151
0.0389037
0.0215937
6.56006
0.0599131
0.0222715
0.0749424
5.0998
18.5356
0.021972
0.0229018
0.022173
0.0215802
0.021948
4.6062
0.0284866
0.0220858
9.79175
0.0221178
0.0215865
0.0257444
5.32369
0.0221924
9.71086
4.25323
0.10243
7.63399
0.0226437
5.38443
0.501658
0.0216144
0.0290314
0.022037
0.0223462
0.0381014
8.10931
0.0585962
1.24234
0.385275
0.0219124
6.89181
0.0219075
4.12942
0.022268
29.1198
4.19131
0.0221612
0.0217517
0.0222786
0.0326127
0.0840053
0.0219706
16.933
0.0230273
0.0406258
0.0763371
0.023077
0.0219237
3.87322
0.0217632
0.19767
0.0293192
21.5717
0.0221282
0.0219028
4.11103
0.0214631
0.0217596
0.0225491
0.0607984
0.0508756
0.258357
0.0242914
0.0217636
0.0252189
0.0222628
0.0225091
5.84827
0.0219438
0.0489755
6.17865
0.185928
0.0219512
0.088831
0.0218624
0.0222087
0.412977
0.272963
0.0886526
0.0222394
0.0219509
0.0246903
0.0791292
0.0218775
0.0301954
0.0219094
0.0222285
0.0218456
0.0220215
4.1444
0.021553
10.287
5.85327
0.0251002
0.0216793
5.4387
5.87431
0.0217937
0.0219708
12.7762
0.0223005
0.0643877
0.225371
2.14466
0.0219165
0.0228135
0.049605
0.0219796
7.17489
0.204664
0.0217988
0.0312512
0.038489
0.022092
0.296818
0.0221548
0.0504415
0.0228821
0.0249002
0.0215279
0.0219104
0.265556
0.0219697
6.5484
0.0625893
0.0220078
0.0219952
0.0219841
0.0218788
5.63243
0.0222717
0.189642
0.0219061
0.0218556
0.0567338
5.24681
0.0217711
0.0215514
0.0219422
0.0225564
0.0302657
0.0304199
5.33521
0.0287792
0.0218421
0.153348
5.85369
0.0222563
0.0313452
4.86494
0.036073
0.0224052
6.4723
0.0214798
7.38285
0.0418186
0.0220684
0.0727889
0.0218554
0.0219268
0.0219102
4.03462
0.0220259
1.19021
5.79371
0.542234
0.0295713
0.021966
5.08637
0.0222778
26.6152
0.0217186
0.346001
0.0257754
0.077222
0.0226828
3.64549
0.0292663
0.0222245
5.79413
6.42386
0.0215543
1.84565
0.0219888
0.0311286
0.0217327
31.7689
0.665747
0.0223027
0.0220314
4.32511
0.289778
0.0218568
0.0234389
0.0220312
0.0218092
0.0217112
0.0240087
5.81491
16.7619
0.0224575
0.210509
0.0236757
0.0617514
0.022002
30.7509
5.86085
9.04074
0.0227344
6.2488
7.87755
0.0248863
0.0305709
0.0218844
0.0494271
6.14944
0.0221722
0.0217118
0.021768
0.0274964
0.0215805
0.0219818
1.32389
0.0230861
0.205136
0.0220401
0.0219704
0.0224732
0.0220444
0.184156
12.1899
0.0217905
0.0427188
0.0215373
5.72833
0.0218051
0.0242297
5.72345
2.45175
0.0262115
4.94665
0.408201
0.0220672
0.0611797
0.0221351
0.0329703
0.0222351
0.0219244
0.148154
0.111392
4.31362
0.102726
0.0348569
8.32162
0.0232531
0.0417713
0.0227421
5.76723
4.10748
4.12848
0.0219504
0.0215136
6.91937
5.47248
0.0221321
5.37415
0.0221407
0.0269083
0.0214909
0.0218654
0.0218042
0.0218249
0.232192
0.0407856
0.0387593
0.0219727
0.0220192
0.0216414
0.0218272
0.0218164
0.0222627
0.0219307
4.44814
4.76984
5.19992
0.023622
7.85198
0.0564896
7.20559
7.95437
0.0565521
0.0221136
0.0222574
0.202611
0.0224029
4.70698
8.46279
0.0225642
0.0216998
0.0309907
5.10514
0.021993
6.98689
0.0218394
0.0221024
7.62572
0.0219282
0.0286773
0.0221655
4.68879
0.0215741
0.0219445
0.248015
0.0216127
0.0220571
0.0218965
0.0217001
0.0678253
0.0219072
24.6089
0.0220228
0.0222172
0.0214712
8.41828
0.0343363
0.0222205
5.87865
0.022089
0.0215517
0.227421
5.0204
0.0221283
7.23169
6.0254
0.0264089
4.73766
0.0221121
0.0219515
0.0837003
0.0216627
5.41261
5.2229
0.0214869
0.0262063
0.0218909
8.10182
0.918066
0.0435299
0.0221456
0.485661
0.0363058
0.0513206
0.0268727
0.0220297
0.0225465
0.0219071
0.0218135
6.03938
0.0214501
0.021815
0.0420169
8.74629
0.0731113
7.28907
0.0220153
0.042141
0.021879
0.0219813
0.0220901
0.0217626
0.0221541
0.0219147
0.0221029
0.0221727
0.0243078
0.0219719
0.0221415
0.0216807
9.01717
7.81045
0.0221912
0.0227639
4.63784
0.0222102
0.112659
5.30585
2.70121
7.49907
0.860376
7.47847
9.49246
7.62422
0.0217606
0.030325
0.021886
0.0505181
0.024636
0.0222237
0.02178
9.24792
0.0216225
0.0298315
11.7783
0.0215789
0.0217214
0.0779306
0.0217009
0.0219039
0.0218875
0.0221721
5.18884
8.61654
0.0220366
0.0219466
0.022057
0.0228321
0.043251
0.022848
12.6748
0.234806
0.0221945
5.32949
0.0319513
0.0219409
6.53526
0.0215855
0.0505789
0.0217747
0.0223633
0.0223823
5.15441
0.0219481
0.021962
0.0239457
0.0223077
0.0306142
0.0218265
4.16244
0.0400946
0.0442317
11.6601
7.01941
0.102074
0.0328306
5.02481
0.0220101
0.0220019
0.0253008
4.88095
0.0518538
0.0496671
7.5561
0.0219753
3.7592
0.26665
1.98038
0.0219982
0.0359839
0.021882
0.133804
0.0334328
0.520003
7.05843
0.0220148
0.0357786
0.0276354
0.0219055
1.14438
0.0219643
0.0304325
0.156517
0.0908667
0.0219513
0.0222948
0.0222284
0.0566243
0.0219506
0.0221827
0.0219585
0.0220793
0.0216522
0.0379975
0.0215415
0.855513
4.42136
0.022523
0.0217507
0.0215504
0.0426303
0.0346176
0.0221277
6.17468
0.0496465
0.0217703
0.0218169
5.78576
4.37033
0.0219377
0.187622
0.0348895
0.022006
6.36794
0.0226116
0.0752745
0.022234
14.2884
6.75149
0.0222563
0.0352111
5.17681
0.0349025
7.36136
0.0222394
0.0253997
4.59185
7.13663
0.0253057
0.0253803
0.0225269
0.0244103
0.0228812
6.5083
4.39725
4.26935
0.0235138
0.0219692
0.0558858
0.021908
0.265032
0.0247666
8.60045
0.0215692
0.0221893
0.0217471
0.0218943
0.0218451
0.0757554
7.9359
0.0299563
0.0216139
0.0221056
10.7164
0.0235076
0.0237695
0.0221559
0.0359766
6.4354
0.0217038
0.0218457
0.0397151
0.0840686
0.0221152
0.0415486
0.0223369
0.0236481
0.114087
0.0286722
7.23772
1.25297
0.0477796
10.977
0.0218568
0.0219015
0.0230476
7.25794
0.0232525
0.806988
0.0216932
5.05151
0.0361154
0.0218725
0.0301554
0.0223051
5.12468
0.0564446
0.0304534
0.278402
0.101386
0.0221519
0.0222007
0.0222284
0.0249009
4.86764
0.0506189
0.0221057
0.204744
0.0218389
7.27164
0.0219511
6.36789
0.0292913
7.48583
0.613829
0.0584434
0.0219654
0.0220044
0.0218683
6.90521
0.0219741
0.049909
5.60424
0.0215296
7.83286
0.0328405
0.0219544
0.0733936
0.0219125
0.0218209
5.61859
6.9927
5.97235
0.0219038
0.0217642
0.0227374
0.0243677
0.0229501
0.0219381
10.8548
0.0727124
4.2774
0.022526
0.0425157
2.67251
1.30378
0.0301804
0.021755
6.26355
0.0228886
4.75454
0.0218983
0.0220275
0.0219775
0.0217147
0.0215275
0.0222309
0.0217862
0.0368525
7.55141
0.0351476
4.55581
0.0250224
0.0222087
0.0221262
0.424827
0.0220225
0.0225042
0.0220445
5.07335
4.9658
0.021782
0.0236637
0.0218733
0.0219698
0.0222784
0.022064
0.021905
1.04469
0.0222597
0.02179
0.1384
0.0218303
4.7624
0.0766463
0.0832107
0.20045
0.0240733
0.0220791
4.59117
0.0220468
0.0715108
0.0293656
0.0217866
0.0504048
0.022066
6.88691
0.0216016
0.0217858
6.10004
0.0562502
10.3384
0.0217528
0.0877102
0.164333
0.0316919
4.13077
0.0218808
0.0217413
0.0216099
0.0923759
0.0227949
0.892061
0.0220018
0.0401837
5.99051
0.20895
0.0220125
0.90483
0.0253199
7.18122
0.0235203
0.0234718
0.0240232
5.47142
0.021961
0.0223395
5.58844
0.0215566
0.0261634
0.0218267
0.046685
5.12648
7.67772
0.0218462
0.097709
0.0219992
0.308527
0.0220145
0.0224017
0.0813803
25.4754
0.0394834
0.0219929
0.0253672
5.65582
0.059376
0.0787004
6.6292
0.0220213
12.287
0.0229636
0.178285
0.0217808
0.0251365
6.40037
0.0254488
0.0219179
0.479164
7.62983
6.67634
0.0216999
4.08529
0.455641
0.0216097
0.160294
9.45939
0.022278
0.0228635
4.95846
0.0214924
0.0223903
0.0218295
0.0220635
0.113469
0.0853051
0.0352229
4.9266
0.0222709
0.0583727
0.0297004
0.0222116
0.0232825
0.0346294
0.0219807
0.0222271
8.69897
5.13344
7.62482
0.0216697
0.0375384
0.0221374
4.31701
0.022095
0.0417976
8.14313
5.93064
0.0672614
0.021952
2.79084
4.66615
0.824012
0.0219971
0.0221273
0.0218374
6.99884
0.0376805
0.153547
6.73104
0.0220362
0.0222113
5.45685
0.0286783
0.0916729
0.0221748
0.0218938
0.0219743
1.90496
0.0220316
0.0510892
0.0217474
0.022113
0.0217938
5.35025
5.36331
0.0237566
0.535534
0.0229708
0.565258
0.021913
0.0219
0.0795781
0.0220741
0.0219246
0.0254119
0.105803
0.0291219
0.139062
0.0220346
0.0644813
6.04761
0.0221212
0.0220244
0.0220307
5.81132
0.0457517
0.0470414
0.0810799
0.0217676
0.0218487
0.140475
0.0259022
8.58052
9.27479
0.0359739
5.06468
4.1582
5.53535
0.0530376
0.0223185
0.0220005
0.261689
5.66216
0.0218753
0.0381272
5.25694
0.022108
0.206948
1.45078
0.123243
0.0219242
0.082304
0.0221429
0.0221062
0.0216182
0.895172
0.0220953
0.052571
0.0377267
0.0219846
0.0221844
5.31164
0.0217715
0.0215885
0.0458619
0.811017
0.0368643
0.0220213
0.0400233
5.67886
4.15624
0.0282857
5.86203
0.0766051
0.123207
0.0593976
0.022094
0.153531
0.0330005
0.0216466
0.0217135
0.0223518
0.0259498
0.279465
5.27387
0.0222182
2.14082
0.0774657
3.00095
11.0125
0.265032
4.35928
0.124638
4.44869
0.04919
5.23487
0.0558419
0.0219735
0.0221082
7.45415
4.2278
0.109808
5.53793
0.021817
6.32374
4.78449
0.0220359
0.0216441
0.0377849
0.0608798
5.16274
9.89124
0.11592
0.0218719
0.0218095
0.0222177
9.06727
0.0254596
4.33623
0.02464
23.5556
0.197951
4.90592
0.0277255
4.44322
0.0218052
0.021588
0.025773
0.0221647
6.0557
0.140876
4.26449
0.0220627
5.94112
5.46528
0.0215431
0.0423928
5.39134
0.0433517
0.0218697
0.0263734
0.0219739
5.06976
0.021456
0.0223476
6.23697
0.0292593
0.0489397
0.0276511
0.0218136
0.0222114
0.0419498
0.0220427
0.0216405
0.0218347
0.0300602
5.93381
3.42876
0.021969
0.131783
6.07087
0.0221186
7.21839
6.30898
0.0220915
9.31335
0.0220759
0.0912747
5.00325
0.0219613
0.0221674
0.0221697
0.0788149
0.0261306
0.0218588
5.66332
0.021979
7.36206
0.0220407
6.19775
5.45806
0.0249767
0.0217303
0.162892
0.082721
0.154303
4.60138
0.0442789
0.0221732
4.474
0.0224374
0.0750395
0.0683974
0.0300204
0.0634113
0.0218901
0.138111
5.37484
5.45765
0.121002
0.021887
0.193222
4.45682
0.0222719
0.21439
0.0987421
1.41797
0.0219852
0.0249932
0.0214988
0.197426
7.59587
0.0801266
7.53936
0.086932
0.0377677
5.18301
5.34652
5.31614
0.524685
9.74159
0.0671588
12.0304
0.0495197
6.39142
6.57515
0.0232792
0.0223441
0.027063
0.0604493
0.0219977
0.0261229
0.0222616
0.0242921
0.0220024
0.0218819
7.63475
5.57293
0.0222037
0.0519379
0.022107
0.021795
0.0237199
0.0815555
0.02337
0.0929448
0.0221899
0.0438475
0.774303
0.106151
0.0460039
0.0219752
0.10406
0.0222203
0.0219237
0.617787
0.0228797
5.58601
0.178396
0.0219296
0.0243965
4.61182
0.0220765
0.0987578
0.0583559
0.0597264
0.0264844
0.0372609
0.0220071
0.0221682
5.321
7.86934
0.0357087
0.0803728
0.0220407
4.92765
0.0255314
6.96038
0.0800058
0.0221117
0.0216777
7.18939
0.169419
6.39923
0.0280558
7.40749
0.022657
5.67395
9.33772
0.0307461
0.151367
0.0218546
7.25773
0.0222202
10.6709
0.0286978
4.63595
5.3922
5.11689
5.29524
0.0360585
8.25027
0.152695
0.0491886
5.52485
4.21026
4.81558
0.0217126
0.0258304
0.0740434
7.39873
0.0218908
0.0217809
0.0297104
0.0626557
10.9166
0.0597671
0.0454868
0.0219277
0.129295
0.0215414
0.186514
5.5281
0.914338
0.0217792
6.82912
0.0674896
0.0225409
5.2877
1.44757
0.0267811
4.91378
4.85003
4.77742
0.0566397
0.0218423
0.0288896
7.04352
0.0378235
0.0219747
7.39061
0.021494
7.81682
0.0232081
0.0221547
4.67715
5.0571
0.0218282
0.0523236
0.0219471
7.07996
0.0215043
4.49069
0.155946
0.0424903
0.0219076
0.0220017
0.0221614
0.037498
0.0501902
0.128765
0.029112
5.42871
0.0338127
0.0253216
6.78156
4.63207
0.0216423
0.158116
0.0219554
5.81788
0.0220661
0.0429247
6.53251
0.0276049
0.021926
5.15874
0.0222968
0.0222547
0.0468797
0.0222781
0.0218948
7.10419
0.0595863
6.37267
0.0222785
0.12668
0.0775104
0.021639
0.0219267
0.0235713
0.0218348
5.50547
2.10456
4.63465
4.7701
4.27316
5.69089
0.0219168
0.022024
0.0219395
0.022155
0.113206
6.76413
0.0305614
0.0247857
4.16773
0.0222843
0.0217732
3.23732
0.123722
0.02147
0.0219647
0.0219003
0.203721
0.0217571
0.0219207
0.162739
0.0343395
0.104928
0.0239003
5.45765
6.57657
0.0214631
0.021713
5.57888
0.0340996
0.0250921
6.02667
0.0359777
0.123212
0.506948
0.023526
0.455999
5.37051
0.021536
0.0257297
5.26894
0.0251822
0.0220094
1.75357
0.0558808
0.0518368
0.0221915
0.347179
0.0239303
4.70746
0.0220505
0.0219738
0.0335675
0.062901
6.78101
0.0360894
0.0219559
24.7673
5.01151
0.0239508
0.076722
0.0220318
0.0219055
0.0217495
5.13889
0.021862
7.11612
0.253325
5.22259
6.34509
0.0355644
5.25179
0.0332456
6.84351
0.583749
0.115627
0.685481
0.0770384
0.0952265
5.76695
0.0511932
0.0220033
0.0220603
16.0294
0.0404179
0.0229715
0.0221624
6.63538
9.39795
0.0220945
4.55067
9.86398
0.061244
0.424206
0.0408428
0.0404503
0.0409671
0.101232
5.36569
0.0275847
0.187428
0.224292
0.0217611
0.105673
0.0279617
5.65577
0.0642962
0.0219575
0.251476
0.0648381
0.0767948
0.561483
0.0225334
5.18119
0.212239
10.5684
7.37594
0.0221837
0.0220122
0.021898
6.02089
5.22731
0.0849428
0.149123
0.02186
0.0217256
0.0226029
0.072823
4.26371
0.052924
7.12687
0.0758766
0.380752
0.890177
0.021763
0.0544634
7.88002
7.40888
6.93578
5.68096
4.306
0.0222312
4.76816
5.71965
5.16964
4.44994
0.0219384
5.8177
0.0225768
5.09807
0.0274309
12.224
11.4962
4.19489
0.0221579
0.0219895
0.0744333
0.0237778
0.11527
0.0222723
0.0493403
0.0492572
0.0217997
0.0220001
0.0345283
0.021928
7.88118
0.0218852
0.0230433
5.897
0.061924
5.33224
0.110588
8.33761
0.0219166
0.0219749
0.0222614
5.01084
7.96045
0.0220248
0.048829
7.4683
9.44872
0.021889
4.76374
4.79847
0.0217976
5.14178
0.0219069
0.0405894
0.0220112
0.0601197
0.0220717
0.139996
6.27874
0.0218468
0.0221593
7.64836
0.0358581
0.0216945
0.022095
9.47434
0.021873
0.022187
4.52954
10.5984
5.24674
0.0839173
0.0219351
4.7394
6.08504
1.03284
0.0221665
0.0817291
0.0614031
0.021944
0.228625
0.0218033
0.0218069
0.0218316
0.0542573
7.68273
4.96032
0.0424879
0.143058
0.0218689
5.57246
0.0218208
0.028012
0.0466642
0.0233582
0.0515001
0.0363655
0.0218571
0.117535
7.78416
0.0583726
17.6277
8.12669
0.0625545
0.0219612
0.0250708
0.231035
0.0294913
0.0221944
0.103188
7.39285
0.0217055
7.84342
0.0288025
0.0219716
1.0742
6.91464
5.24109
0.0219704
0.0268598
0.024879
0.0558544
0.0495211
0.0218611
0.0219634
0.114396
1.16911
5.57452
0.0275038
0.0222839
0.0217397
0.160987
0.0220257
5.06419
0.0222728
0.0411146
7.90828
0.19944
7.30298
0.0220512
7.72012
5.02465
7.07895
0.0220025
0.0222304
0.0515099
3.1832
0.0218248
7.61846
0.0218737
0.0214939
6.24363
0.022184
0.0545508
0.0279027
0.0228959
0.0318664
0.0293788
0.0689304
0.0466479
0.0388082
22.9217
0.173837
4.8177
0.0472235
0.0344379
0.0568056
5.49388
0.168303
0.0277097
0.0220812
5.99333
0.0226896
1.18029
0.212114
0.542883
0.0216902
9.74413
0.0220565
2.06031
0.022583
0.856344
5.12915
0.0496776
11.6244
4.32325
7.20261
4.72018
7.19984
0.0639344
0.0219375
0.0218032
0.925588
0.0218097
0.0219174
0.0219835
0.0406328
0.023341
0.0345682
11.5882
5.61569
0.118721
0.0276977
0.027375
0.0215703
0.0254564