/*--------------------------------*- C++ -*----------------------------------*\
| =========                 |                                                 |
| \\      /  F ield         | OpenFOAM: The Open Source CFD Toolbox           |
|  \\    /   O peration     | Version:  v2012                                 |
|   \\  /    A nd           | Website:  www.openfoam.com                      |
|    \\/     M anipulation  |                                                 |
\*---------------------------------------------------------------------------*/
FoamFile
{
    version     2.0;
    format      ascii;
    class       surfaceVectorField;
    location    "650";
    object      ddtCorrDdt0(Uf);
}
// * * * * * * * * * * * * * * * * * * * * * * * * * * * * * * * * * * * * * //

dimensions      [0 1 -2 0 0 0 0];


internalField   nonuniform List<vector> 
27274
(
(-0.00108532 2.73042e-05 5.34236e-18)
(-0.001012 7.34431e-05 -8.49736e-18)
(-0.00101175 -7.85933e-06 -8.80767e-18)
(-0.0192732 0.0132941 -1.59432e-17)
(-0.0171551 0.0146292 5.5875e-18)
(-0.0157451 0.0105885 -1.55773e-17)
(6.16603e-06 -0.000133715 5.88339e-19)
(7.44647e-06 -0.000159462 -3.18204e-19)
(8.30995e-06 -0.000137592 5.68825e-19)
(7.95542e-05 6.0706e-06 -2.94132e-19)
(8.10206e-05 -9.91586e-06 -3.28534e-20)
(8.15173e-05 7.56534e-06 -1.1163e-19)
(0.000805761 -0.00100267 -2.50285e-20)
(0.000787149 -0.000928415 7.72993e-19)
(0.00089132 -0.000964545 2.63339e-18)
(0.00614358 0.0169351 -2.23922e-18)
(0.00528098 0.016762 1.57053e-18)
(0.00556959 0.0177926 -1.35626e-17)
(6.1766e-05 3.64682e-06 -4.94012e-19)
(6.00271e-05 2.86907e-05 1.4905e-18)
(5.98523e-05 1.0262e-05 -2.7803e-19)
(-0.00433255 0.00295671 -8.61015e-18)
(-0.00457051 0.00326404 -2.83585e-19)
(-0.00417016 0.0032792 -8.84345e-19)
(1.96084e-05 0.000388336 2.67058e-18)
(2.36271e-05 0.000409249 -2.04206e-18)
(0.0359735 0.00648757 -3.75406e-18)
(0.0354614 0.00687646 2.41207e-18)
(0.0358054 0.00911492 -3.99097e-17)
(-9.46615e-05 -0.000308852 2.067e-18)
(-7.8897e-05 -0.000322867 2.12729e-18)
(-8.78925e-05 -0.000306665 -8.40615e-20)
(-0.00880827 -0.0022371 -1.08417e-17)
(-0.00926189 -0.00198826 -5.04553e-17)
(-0.00846273 -0.00166611 -6.10804e-18)
(-0.00876826 0.00238047 8.14902e-18)
(-0.00920516 0.00252127 1.07938e-17)
(-0.00909054 0.00195973 -8.83364e-18)
(1.8784e-05 -0.000182703 -1.33183e-18)
(1.28429e-05 -0.000187795 1.46924e-18)
(7.87971e-06 -0.000150016 2.59937e-18)
(0.000126711 0.000450153 -1.86111e-18)
(0.000138617 0.000432764 8.80501e-19)
(0.000125349 0.000443596 -9.40994e-19)
(2.79402e-05 0.000469467 4.84822e-20)
(2.89158e-05 0.000468722 -4.87395e-19)
(2.96119e-05 0.00046781 8.59992e-19)
(-0.0070274 0.000681761 -2.93822e-17)
(-0.00647529 0.000896759 -3.79927e-17)
(-0.00665065 0.000757642 -9.24974e-17)
(9.0887e-05 0.000162277 -6.4992e-19)
(9.63403e-05 0.000164442 2.50791e-19)
(8.74122e-05 0.000169179 -2.95894e-19)
(5.25265e-06 0.000269792 3.69577e-19)
(8.958e-06 0.000296001 2.96029e-19)
(-4.15019e-07 0.000286439 1.50229e-18)
(-0.151783 0.0796375 1.51605e-17)
(-0.150067 0.079298 -2.75115e-18)
(-0.149134 0.075629 1.92419e-17)
(7.33577e-05 0.000438689 -6.14209e-19)
(7.44333e-05 0.000431548 -1.78138e-19)
(7.31938e-05 0.000440148 1.21236e-18)
(3.12691e-05 0.000129791 -4.4008e-18)
(3.18358e-05 0.000132779 -7.13291e-18)
(4.51303e-05 0.000147191 -5.25531e-19)
(0.0344644 -0.00563861 5.68088e-18)
(0.0308863 -0.00615041 2.10057e-17)
(0.0332525 -0.00509314 4.02786e-17)
(0.000792418 -0.00104055 1.71089e-18)
(0.000747637 -0.000994505 3.84032e-18)
(0.00265196 -0.00201446 -1.25353e-18)
(0.0028779 -0.00217002 2.86533e-18)
(-2.61875e-05 6.05318e-05 -4.43566e-20)
(-2.36452e-05 4.29418e-05 -3.73916e-18)
(-2.99227e-05 1.54179e-05 -2.28364e-18)
(-5.67916e-07 0.000375026 6.55558e-19)
(-1.7791e-06 0.000390588 -3.02638e-18)
(2.2173e-05 0.000345964 -1.80478e-19)
(2.15781e-05 0.000366511 -3.30945e-18)
(2.7724e-05 0.000347049 1.12247e-18)
(-0.0405651 -0.0171196 -4.01957e-18)
(-0.0453276 -0.0124567 -5.22587e-18)
(-0.0442785 -0.0112998 6.11781e-18)
(2.90128e-06 -0.000209626 7.11764e-19)
(6.9458e-06 -0.000207414 5.49032e-18)
(1.1011e-06 -0.000187533 2.68102e-18)
(0.000222668 -0.000905468 -1.61793e-18)
(0.000277493 -0.000905051 -1.17833e-18)
(0.000254756 -0.000944258 4.04227e-18)
(0.00149369 -0.00106145 -3.14823e-18)
(0.00142318 -0.00112255 5.04899e-18)
(0.00154787 -0.0011639 4.78304e-18)
(8.45481e-05 0.000159277 -3.14159e-19)
(9.41113e-05 0.000152961 -1.20171e-19)
(2.46598e-05 4.42483e-06 1.87831e-20)
(1.5322e-05 6.22453e-06 7.08496e-20)
(1.45441e-05 8.38348e-06 -2.42439e-20)
(-0.00126595 -0.00134451 -1.22511e-17)
(-0.00123645 -0.0014873 1.19596e-17)
(-0.00139323 -0.00144519 -2.40761e-18)
(-0.00116481 4.95877e-05 7.23114e-18)
(-0.00115537 -4.63063e-05 7.41784e-18)
(2.24866e-05 0.000145634 -8.79065e-18)
(2.36279e-05 0.00017403 -2.99064e-18)
(0.00138983 -0.00235106 -1.26313e-17)
(0.00135763 -0.00214694 1.22795e-17)
(0.00121033 -0.00230304 3.51543e-17)
(2.43188e-05 0.000307814 -1.02967e-17)
(4.12615e-05 0.000339872 -5.17514e-18)
(-6.57432e-05 -0.000337987 7.72845e-19)
(-5.44558e-05 -0.000340386 3.75839e-19)
(-4.91338e-05 -0.000356053 -9.09713e-20)
(1.48701e-05 -0.000187163 -2.46822e-18)
(1.71035e-05 -0.000209201 -4.87786e-18)
(0.000773071 3.68288e-05 3.13227e-18)
(0.00080229 7.84121e-06 3.43917e-18)
(0.000772363 -3.37808e-06 2.97264e-18)
(4.84845e-06 -0.00010743 1.83738e-18)
(4.60474e-06 -0.000133666 2.27027e-20)
(0.0508359 0.0030988 -7.81555e-18)
(0.0496412 0.00405762 -2.48782e-17)
(0.0495701 0.00286939 3.43567e-18)
(-0.00014518 -2.23145e-05 -2.49123e-20)
(-0.00015235 -2.2937e-05 -4.27081e-20)
(-0.000144577 -1.71526e-05 -4.87605e-19)
(0.001376 -0.00246216 -1.81618e-17)
(0.00153865 -0.00236089 -2.86042e-17)
(-0.00272693 -0.000181211 -2.02256e-18)
(-0.00283278 -4.23761e-05 -1.05576e-17)
(-0.00296711 -0.00024514 -1.59938e-18)
(4.36733e-05 0.000451033 -2.54987e-18)
(6.27019e-05 0.000464469 3.22757e-20)
(4.47776e-05 0.000445935 9.64134e-20)
(-0.00235147 -7.4937e-05 8.28592e-18)
(-0.00220421 -0.000150245 2.05708e-17)
(-0.00218779 2.32429e-05 3.96625e-17)
(7.63176e-05 0.000177985 3.37618e-20)
(7.80414e-05 0.000187294 7.31559e-20)
(8.36634e-05 0.000179395 -5.27042e-19)
(-3.01999e-07 -0.000292296 -3.09533e-19)
(-8.54847e-06 -0.000283305 -7.63947e-19)
(-1.03499e-05 -0.000296668 -1.53869e-19)
(9.10392e-05 0.000328578 1.50565e-20)
(9.02693e-05 0.000340489 1.27728e-20)
(8.0743e-05 0.000319996 -5.23768e-20)
(-3.75289e-06 -8.3278e-05 -1.35328e-18)
(-4.218e-07 -8.37909e-05 7.02514e-19)
(-1.25333e-06 -5.45832e-05 2.27899e-18)
(-0.00641424 0.029919 4.23672e-17)
(-0.00879846 0.0308765 1.22076e-17)
(-0.0139074 0.0334008 6.11072e-18)
(-1.30948e-05 0.000236578 -2.64055e-19)
(-9.14212e-06 0.000245448 7.29907e-20)
(-1.46752e-05 0.000224137 -1.16093e-18)
(8.48347e-06 9.16928e-06 3.38479e-19)
(1.32575e-05 9.34557e-06 -3.8384e-19)
(-6.94846e-07 3.88647e-06 1.59897e-18)
(0.0344885 0.0112978 4.74761e-18)
(0.0340066 0.0126193 -1.89082e-18)
(0.0356485 0.0122868 -4.44376e-18)
(0.000110533 0.000461038 -7.67368e-19)
(0.000120288 0.000453962 6.3293e-19)
(7.80231e-05 0.00102445 -7.0099e-17)
(5.68164e-05 0.00108774 2.57339e-17)
(0.000100984 0.0010338 2.05099e-17)
(-0.00173213 -0.00466117 1.3923e-17)
(-0.00204099 -0.00457795 1.7899e-17)
(-0.00180899 -0.00434435 -1.60682e-17)
(7.0836e-05 0.000171161 2.67135e-22)
(7.38772e-05 0.000177962 1.30813e-19)
(-0.000696324 0.010599 1.10121e-17)
(-0.00114543 0.0101534 -5.15517e-18)
(-0.000501016 0.00991155 -6.71976e-18)
(0.000111154 0.000123934 4.17046e-19)
(0.000108827 0.000138158 4.849e-19)
(0.000117081 0.000125178 -6.18996e-20)
(0.000286733 -0.00032748 -3.77543e-19)
(0.000240086 -0.000308651 2.92161e-19)
(0.000245191 -0.000369116 9.75457e-19)
(-0.00916177 -0.00260868 5.60494e-17)
(-0.00846794 -0.00236743 2.0504e-17)
(-0.000938946 0.000114457 1.06023e-18)
(-0.00100613 0.000150306 -4.90407e-18)
(-0.0123818 -0.011454 1.19999e-17)
(-0.0151153 -0.00236504 3.97851e-18)
(-0.00567312 -0.0050697 5.05589e-18)
(9.94005e-05 0.000565886 -1.75891e-17)
(0.000103412 0.000562786 2.05025e-18)
(9.57748e-05 0.000569037 -8.95867e-18)
(7.90618e-07 0.00035664 4.77941e-19)
(4.21262e-06 0.000134605 3.65904e-18)
(1.53407e-06 0.0001085 -1.90739e-18)
(-0.00254398 -0.00156689 7.84482e-18)
(-0.0027159 -0.00151574 -4.95024e-18)
(-0.00254704 -0.00139893 2.48573e-18)
(-5.55991e-06 -2.88694e-05 7.11768e-19)
(-3.99532e-06 -2.62487e-05 3.01217e-19)
(-4.37088e-06 -2.44912e-05 5.53832e-19)
(-0.0015022 -0.00466754 1.02259e-17)
(-0.00168858 -0.0049183 -4.52691e-18)
(3.23972e-05 7.1804e-05 -4.98492e-20)
(2.85227e-05 5.02252e-05 -1.75933e-19)
(3.0187e-05 5.97601e-05 5.23432e-20)
(-0.00408729 0.00266733 6.63881e-19)
(-0.00446537 0.00260773 1.81703e-18)
(6.0177e-05 -5.01888e-06 -5.43796e-20)
(5.94584e-05 -1.83936e-05 1.21919e-18)
(-0.0479407 0.0467883 -1.85824e-19)
(-0.0475654 0.0471875 1.45389e-17)
(-0.044342 0.0439816 1.02985e-17)
(0.00141803 -0.000923006 2.34735e-18)
(0.00138941 -0.000848801 5.96019e-18)
(0.00150972 -0.000884388 3.06797e-18)
(0.00451164 -0.00140609 1.26517e-17)
(0.00478257 -0.0014157 -1.69257e-18)
(0.00467575 -0.00117006 2.74323e-18)
(8.52483e-05 0.000296678 -2.42191e-20)
(8.37218e-05 0.000286199 1.27484e-20)
(7.73114e-05 0.000279009 -4.31705e-20)
(5.73832e-05 5.47929e-05 6.58462e-19)
(5.9143e-05 4.92434e-05 6.01116e-19)
(0.00325303 -0.0015473 -1.58255e-17)
(0.00311584 -0.00168091 -1.81529e-17)
(0.0032814 -0.0012917 -3.66381e-17)
(6.34491e-05 0.000449801 3.77907e-18)
(5.83613e-05 0.000434089 -8.05609e-18)
(4.96522e-06 -0.000701241 -3.18223e-18)
(4.90663e-05 -0.000756167 2.74341e-18)
(-3.92707e-05 -0.000763241 -7.59416e-18)
(-2.04213e-05 7.31085e-05 2.65638e-19)
(-2.43552e-05 9.58576e-05 3.63458e-18)
(-0.00840809 0.00211061 -5.63156e-18)
(-0.00842286 0.0025996 -4.33482e-18)
(-0.133221 0.0316341 8.46378e-19)
(-0.131221 0.0366057 -1.44794e-18)
(-0.125865 0.0340227 3.06753e-18)
(-0.153684 0.079776 3.73265e-18)
(-0.15336 0.0824023 3.14477e-18)
(-0.0371555 -0.0223438 -5.67467e-18)
(-0.0356465 -0.0204866 -5.85738e-18)
(0.00929367 0.0196829 -5.20183e-18)
(0.0163499 0.0175516 2.79859e-18)
(0.0127654 0.0182209 -1.95791e-17)
(-0.0263016 0.035799 -2.37018e-18)
(-0.0236623 0.0362684 -2.35997e-18)
(-0.0229766 0.0339854 -3.46153e-18)
(-0.000135656 -2.07878e-05 -1.68146e-19)
(-0.000139156 -3.02353e-05 2.63075e-19)
(-1.99667e-05 0.000197771 -1.52551e-18)
(-2.30361e-05 0.00017688 1.32308e-18)
(-2.38181e-05 0.00016698 -7.54905e-19)
(-0.000115757 -0.000202332 -2.81252e-19)
(-0.000111026 -0.000213158 -1.77791e-18)
(-0.000123282 -0.000199655 5.64722e-19)
(-0.00595341 -0.0857344 -2.31233e-18)
(-0.00499936 -0.0811758 -2.38638e-18)
(0.0354147 -0.00631549 -5.67063e-18)
(0.0380913 -0.00487478 -6.88149e-18)
(0.000227163 7.77076e-05 -1.02794e-18)
(0.000230241 4.47084e-05 -3.33134e-19)
(0.000235823 5.91963e-05 2.61529e-19)
(0.00204074 0.000616246 -6.21047e-19)
(0.00191611 0.000676135 -4.7881e-18)
(0.00206013 0.000760925 3.95835e-18)
(-0.00452307 0.0289451 1.13786e-17)
(-0.000455819 0.0274088 1.68149e-18)
(-0.0028638 0.000580636 -4.13998e-18)
(-0.00253907 0.000662807 -4.2342e-17)
(-0.00232124 0.000798557 1.30717e-17)
(-0.00953293 -0.0536153 -1.52054e-18)
(-0.00862243 -0.050915 -7.77373e-18)
(-0.00519594 -0.056564 5.04212e-18)
(-0.00377577 0.000630649 -4.25785e-17)
(-0.00413092 0.000528138 -4.85309e-18)
(-0.00364303 0.000808376 -4.50338e-17)
(-0.000605338 -0.000849409 2.94262e-18)
(-0.000688815 -0.000936716 -8.40887e-18)
(-0.000682463 -0.000815631 4.67161e-18)
(-0.0152628 0.0409006 -1.32246e-17)
(-0.0163682 0.0437873 -2.11386e-18)
(-0.0171408 0.0469567 -1.9859e-17)
(0.000795121 -0.00135907 1.82759e-18)
(0.000806267 -0.00128615 -5.02145e-18)
(0.000896652 -0.00135712 8.29835e-19)
(-0.00742166 0.0148372 -7.71213e-18)
(-0.00729214 0.0157818 -5.48475e-18)
(-0.00831247 0.0153274 5.33562e-18)
(-0.0110602 -0.000955854 -2.13666e-17)
(-0.0114622 -0.000833374 -8.70353e-19)
(-0.0122233 -0.000495132 3.65162e-17)
(0.00137586 -0.00124099 6.58586e-18)
(0.00126441 -0.00124347 8.79619e-18)
(0.00131447 -0.00137006 1.39288e-17)
(-0.000274219 0.00185866 -4.02872e-19)
(-0.000421078 0.00186574 5.76315e-18)
(-0.000317947 0.00199758 4.47486e-18)
(-0.000294961 0.00073878 -8.58994e-18)
(-0.00032272 0.000762147 3.78705e-18)
(2.95269e-06 -0.00019901 -3.76769e-18)
(3.19629e-06 -0.000189673 -3.61458e-18)
(4.6067e-06 -0.000182949 -2.3243e-18)
(1.33647e-05 0.000290584 -3.60006e-18)
(1.12085e-05 0.000259303 -1.05042e-17)
(1.81386e-05 0.000279555 3.32765e-18)
(-2.17263e-05 1.25202e-05 -1.15815e-20)
(-2.29566e-05 3.18152e-05 -7.11544e-19)
(-2.38235e-05 5.5331e-05 -1.67452e-18)
(3.06639e-05 0.000301716 -1.14188e-18)
(1.93145e-05 0.000313127 -6.07371e-19)
(-0.040339 0.0374188 -8.67791e-18)
(-0.034986 0.0332493 2.7471e-17)
(-0.0349995 0.0354285 -3.39669e-19)
(4.55965e-05 1.89178e-05 -2.45972e-19)
(4.82658e-05 1.84802e-05 -1.44558e-19)
(4.3746e-05 2.26089e-05 -1.38351e-19)
(-4.60413e-05 0.000956048 2.38748e-17)
(-3.59539e-05 0.000990551 -2.31834e-17)
(-1.81827e-05 0.000971541 4.18988e-17)
(-0.0512702 0.0492705 -3.79103e-18)
(-0.0476674 0.0464718 -1.91545e-17)
(1.65643e-05 0.000969434 -2.114e-18)
(1.01973e-05 0.000984769 -1.0811e-17)
(8.44492e-06 0.00105287 -2.57685e-17)
(-0.000532747 -0.000793323 -9.56486e-18)
(-0.000540884 -0.000912252 5.15572e-19)
(0.0338474 0.0100524 1.81441e-17)
(0.0395832 0.00859826 3.36507e-17)
(-0.00534519 -0.0118488 5.90678e-17)
(0.00107294 -0.0105339 -1.49009e-18)
(-0.00270145 -0.012136 5.82092e-18)
(0.00146146 -0.000991298 -7.71592e-18)
(0.00135089 -0.000963671 -7.72308e-18)
(-0.0023953 -0.00152222 -5.55069e-18)
(-0.00246341 -0.00170922 1.93548e-17)
(0.000219261 9.5477e-05 -1.51564e-18)
(0.000226749 0.000106569 9.57995e-19)
(0.00144462 -0.00113518 9.66158e-18)
(0.00149607 -0.00126705 -4.43033e-18)
(9.06806e-05 0.000319262 -3.65368e-21)
(9.89754e-05 0.000333049 6.1809e-19)
(-5.23927e-06 -9.36276e-05 4.60228e-19)
(-5.28604e-06 -9.87943e-05 -4.01226e-19)
(-2.76871e-06 -7.79844e-05 1.8701e-18)
(0.00742636 -0.00679268 -2.59293e-17)
(0.00954918 -0.00114576 4.12778e-17)
(0.015185 -0.00664588 -1.70631e-17)
(-9.90121e-05 -0.000208242 1.43102e-18)
(-0.000115776 -0.000184451 4.22582e-19)
(8.54519e-06 -0.000285286 1.60143e-19)
(9.51795e-06 -0.00029912 4.10079e-19)
(0.0190936 0.00725697 3.76452e-17)
(0.0191596 0.00552343 -4.34143e-17)
(0.0255469 0.00490258 4.34408e-18)
(-0.000816174 0.00606454 5.94817e-18)
(-0.000432937 0.00604943 1.5513e-17)
(-0.000653599 0.00575714 1.61277e-18)
(0.00217166 0.000587419 7.86224e-18)
(0.00204167 0.000493649 1.34021e-18)
(0.000360933 0.000210255 -1.06637e-17)
(0.000340709 0.000232667 -6.88149e-18)
(0.000345777 0.000200855 -9.67731e-18)
(-5.85612e-06 -9.1618e-05 -1.63127e-18)
(-6.25593e-06 -0.000106414 -1.53238e-18)
(0.000133416 0.000416175 7.23345e-19)
(0.000145901 0.000404904 1.50735e-18)
(0.000149231 0.000408966 1.17202e-21)
(-0.000103318 -0.00029428 5.13323e-19)
(-9.91809e-05 -0.000307787 5.48337e-20)
(2.2576e-05 -0.000207193 1.54447e-18)
(2.46665e-05 -0.000228026 -2.15482e-18)
(9.63521e-06 -0.000245362 -3.1897e-18)
(-0.000567337 -0.00248457 -3.64053e-17)
(-0.000507297 -0.00232756 -2.18138e-18)
(-0.000658576 -0.00235881 1.95384e-17)
(-0.0129892 -0.051617 -2.00423e-18)
(-0.00943639 -0.0583633 4.3326e-18)
(-0.0247402 -0.0495925 -1.7718e-18)
(-0.0221217 -0.0553492 7.98365e-18)
(-0.0238117 -0.0529922 -2.85908e-18)
(2.01639e-05 0.000411192 -2.64617e-19)
(1.75271e-05 0.000410143 3.22108e-18)
(1.70733e-05 0.000434142 2.69044e-18)
(3.88521e-06 -0.000223085 2.06377e-18)
(-1.28174e-05 -0.000210072 -2.76885e-18)
(5.34292e-06 0.000734984 1.79227e-17)
(2.23461e-05 0.000762136 1.2794e-16)
(1.93285e-05 0.000731797 5.19542e-18)
(1.92293e-05 0.000109392 -8.88392e-18)
(7.76021e-06 7.59283e-05 -6.93081e-18)
(1.25953e-05 6.51618e-05 -2.71768e-18)
(-2.3984e-06 0.000559918 3.83884e-18)
(6.56273e-06 0.000545413 -1.82789e-18)
(1.95855e-05 0.000567146 7.9193e-18)
(-0.146495 0.0335363 -4.97543e-18)
(-0.142433 0.0371595 -1.07468e-18)
(-0.141908 0.0328641 -4.10859e-18)
(0.00106251 0.000104334 2.94368e-18)
(0.00112755 0.000123613 3.70239e-18)
(0.00107337 0.00016597 3.13274e-18)
(-0.146738 0.0324478 -5.9919e-18)
(-0.125829 0.0296134 3.92635e-18)
(0.000704554 -0.000689614 -3.8561e-18)
(0.000754767 -0.000683509 1.36429e-18)
(0.000728263 -0.000721224 -1.0681e-21)
(1.25638e-05 0.000139077 -1.24482e-18)
(-0.00128004 -0.00127982 -1.33484e-17)
(-0.00118844 -0.0013041 -9.88032e-18)
(8.56059e-05 0.000972175 1.04967e-18)
(4.25683e-05 0.000996639 -4.47433e-17)
(0.0176201 0.0137808 5.61271e-19)
(0.0167207 0.0144725 8.3972e-18)
(0.0179119 0.0147811 6.56805e-18)
(-3.09287e-06 -3.16841e-05 1.78015e-18)
(-3.25125e-06 -3.82226e-05 -1.7745e-18)
(-1.13507e-06 -2.71706e-05 1.73074e-18)
(0.0207483 0.00796034 3.97846e-18)
(0.00748374 0.00897323 -2.01338e-17)
(5.01208e-05 0.000944565 -4.08546e-17)
(3.15086e-05 0.000931966 -5.4139e-18)
(-3.57528e-06 -3.58946e-05 -6.46528e-19)
(-2.72839e-06 -2.71065e-05 4.82067e-19)
(-0.00247627 0.0102719 -7.00437e-18)
(-0.00180975 0.0103235 -2.12465e-17)
(-0.00221886 0.0108981 9.24255e-18)
(-4.33541e-05 0.000220736 7.41519e-19)
(-3.06131e-05 0.000222674 6.59989e-19)
(-4.77053e-05 0.000194996 4.04218e-20)
(-0.000149472 0.000321055 -2.70522e-18)
(-0.00014337 0.000332048 5.89746e-19)
(-0.000124429 0.000337166 -1.07766e-18)
(0.000138721 0.000483111 3.03701e-18)
(0.00015234 0.000482898 7.4878e-18)
(0.000139127 0.000475325 5.99411e-18)
(0.00229429 0.000541224 -8.58477e-19)
(0.00232143 0.000672023 7.70711e-18)
(0.0352522 0.0366606 -1.63322e-18)
(0.0363822 0.0349351 -7.66531e-18)
(0.0342877 0.0351618 -1.02582e-17)
(0.000477916 0.00107312 1.26589e-17)
(0.00048656 0.00104833 1.39971e-18)
(0.000450575 0.00105034 3.9028e-18)
(0.00487349 0.0038159 4.04592e-17)
(0.00718038 0.00387196 -8.43005e-17)
(0.0087701 0.00376422 1.01768e-17)
(-0.00172275 -0.000377679 -4.74303e-18)
(-0.00187034 -0.00032931 -6.18506e-19)
(-0.001707 -0.000224335 -1.50833e-18)
(-0.0158773 -0.00169328 -1.31538e-17)
(-0.0158146 -0.00254496 -1.21516e-17)
(-0.0150377 -0.00184838 -4.1809e-18)
(5.66736e-05 0.000149818 1.34041e-19)
(6.23478e-05 0.000162744 9.76105e-20)
(5.88525e-05 0.000158402 7.71364e-20)
(0.000971104 0.0579581 7.00557e-18)
(-0.00364378 0.0576637 -2.38073e-18)
(-0.00279924 0.0470994 -1.75598e-18)
(0.0369715 -0.00713388 -4.10012e-18)
(0.0387081 -0.0074712 -8.29651e-18)
(0.0409498 -0.00593281 3.48895e-18)
(-4.72328e-05 -0.000312325 -1.07678e-18)
(-6.154e-05 -0.000292804 2.36099e-19)
(-7.89663e-05 -0.000299263 -2.02549e-19)
(-5.70898e-05 -0.000307967 1.16591e-19)
(-5.44458e-05 -0.000328159 6.66118e-19)
(-7.66076e-05 -0.00030373 -1.16764e-18)
(1.40449e-05 0.000473869 -4.26393e-19)
(1.64484e-05 0.000458813 1.16946e-18)
(-0.0618236 0.0136275 -1.53614e-17)
(-0.0641579 0.0104656 7.5977e-18)
(-0.0590514 0.0096355 -2.59638e-17)
(0.0195519 0.00270859 -2.64297e-18)
(0.0189922 0.00353174 -5.102e-18)
(0.0185223 0.00258418 -2.25316e-18)
(-2.02845e-05 0.000182405 -1.56756e-19)
(-2.02028e-05 0.000189066 1.52541e-18)
(-1.91882e-05 0.000207188 2.83415e-18)
(0.00339285 -0.00543568 -5.93361e-18)
(0.00278897 -0.00669342 -2.0696e-17)
(0.00159015 0.00171413 -3.90976e-17)
(0.00248384 0.0016876 1.30783e-18)
(0.00220226 0.00219532 1.29527e-17)
(-0.000133981 0.000596588 2.35566e-17)
(-0.00014531 0.000583649 4.8833e-18)
(-0.000128788 0.000575592 -9.05865e-18)
(-0.0159377 -0.00097718 -8.1478e-18)
(-0.016611 -0.00164493 -8.05303e-18)
(0.00137382 0.00149878 1.65062e-18)
(0.0012241 0.00149577 -4.20134e-19)
(0.00129783 0.00166234 -2.85616e-19)
(5.4789e-05 -7.94485e-05 1.69007e-19)
(5.26571e-05 -9.38106e-05 6.51744e-19)
(5.24018e-05 -8.49072e-05 3.2771e-19)
(0.0225181 0.0456307 -5.52656e-18)
(0.0210994 0.0448977 -1.07272e-17)
(0.0205654 0.0471928 -5.71362e-18)
(-0.0725165 0.00997977 -6.29e-18)
(-0.0770326 0.013233 3.75294e-18)
(-0.0713097 0.0148657 1.40632e-17)
(0.0266089 0.00602359 -1.65174e-17)
(0.0229984 0.00736441 -1.27497e-17)
(0.0210687 0.00657484 5.67905e-18)
(-0.0190014 0.0266107 5.447e-18)
(-0.0174948 0.0273763 -2.23932e-17)
(-0.0177336 0.0256398 -1.6298e-17)
(2.66279e-05 0.00039447 -1.35659e-17)
(2.38907e-05 0.000386692 -2.24946e-18)
(2.79731e-05 0.000409967 5.99062e-18)
(-0.00734443 0.000569673 2.90856e-17)
(-0.00727858 0.000444987 3.24906e-17)
(0.033563 0.0105818 -1.93485e-18)
(7.90414e-06 -7.80616e-05 7.18447e-19)
(5.32306e-06 -8.07622e-05 -2.47304e-18)
(8.69113e-06 -4.85857e-05 -9.29379e-19)
(0.00241109 0.000515775 -9.85658e-19)
(0.00229314 0.000423058 2.56627e-18)
(-0.0252212 0.0491212 -7.75355e-18)
(-0.0248649 0.0450819 3.74078e-19)
(-0.0283194 0.0490363 1.70531e-17)
(0.000421187 0.000228137 -5.89311e-18)
(0.000397483 0.000239511 4.96161e-18)
(0.000402118 0.000261618 6.4383e-18)
(-9.07069e-06 0.000171406 -4.7172e-19)
(-3.80572e-06 0.000213276 -2.27727e-18)
(-1.71368e-06 0.000208237 2.65326e-18)
(0.00434537 -0.0108224 3.43338e-17)
(0.0180952 -0.0122011 3.25586e-17)
(-0.0023196 -0.0136193 -3.89686e-17)
(0.00151888 0.00155367 -1.87889e-18)
(0.00145258 0.00137361 -1.61526e-18)
(0.0015787 0.00466312 -5.9782e-18)
(0.00130648 0.00454522 -7.68602e-19)
(0.00134436 0.00493031 -7.06227e-18)
(-5.75943e-05 -0.00033429 -7.79069e-19)
(0.000685556 -1.28278e-05 -5.12242e-18)
(0.000706484 -5.10971e-05 -3.61504e-18)
(0.000724433 -5.82403e-06 1.26843e-18)
(4.80301e-05 0.000469678 -2.35202e-18)
(5.82486e-05 0.000482231 -1.15544e-17)
(5.39449e-05 0.000483629 -9.87615e-18)
(0.00280789 0.0027118 1.62622e-17)
(0.00202231 0.00274598 3.77217e-17)
(0.000906864 0.00243055 8.76988e-17)
(0.0299659 0.00478496 -3.12375e-17)
(0.0313273 0.00507347 -9.33887e-18)
(0.00351909 -0.000837151 -1.11613e-18)
(0.00479083 -0.00185082 2.00684e-17)
(0.00176161 -0.000762261 -2.25e-19)
(3.9013e-05 0.000187256 -1.12696e-18)
(3.65822e-05 0.000226906 1.84133e-18)
(1.22074e-05 0.000205425 -1.23819e-18)
(-5.62906e-05 0.00093351 -1.47475e-17)
(-5.36662e-05 0.000937381 -6.83125e-17)
(-0.00726943 -0.000481662 -4.36521e-17)
(-0.00865146 -0.000204593 3.86842e-17)
(-0.00937204 -0.000493662 1.50081e-17)
(-0.00630748 -0.00408497 -5.9784e-17)
(-0.00703433 -0.00441129 -2.32232e-17)
(-0.0076206 -0.00403912 -4.05286e-17)
(0.00187903 0.00484456 -1.0731e-19)
(0.00184846 0.00445231 -1.79465e-17)
(0.000116594 0.000422828 -3.92696e-19)
(0.000111916 0.000427311 -1.39123e-19)
(0.000665948 -0.000696689 -5.00731e-18)
(0.00068802 -0.000666473 1.12252e-18)
(-0.154384 0.0797585 -1.08881e-17)
(-0.155576 0.0800161 -3.84743e-18)
(-0.156687 0.0831332 -1.65086e-17)
(1.10366e-05 0.000392957 -3.61311e-18)
(1.39248e-05 0.000401302 -8.01122e-19)
(5.14745e-05 0.00013804 -7.55596e-20)
(4.98442e-05 0.000133009 -3.89865e-20)
(0.00327005 -0.00185649 -1.04826e-17)
(0.00292282 -0.00169549 3.17706e-18)
(-0.0581968 0.0704663 1.36839e-17)
(-0.0382773 0.0640837 2.36447e-17)
(-0.0244244 0.0603828 1.12297e-17)
(-0.151078 0.0757277 3.2795e-18)
(-1.82617e-05 -2.40229e-05 1.59337e-18)
(-1.79188e-05 -7.09419e-06 5.10068e-18)
(0.001051 4.90397e-05 -5.12071e-18)
(0.00100197 0.00010113 -1.51463e-18)
(0.00314325 -0.00412889 -1.15196e-17)
(0.00278305 -0.00421795 -1.53679e-17)
(0.00306782 -0.00443856 -6.15065e-17)
(1.79459e-05 -0.000231563 7.58544e-19)
(1.98477e-05 -0.000228894 9.16067e-19)
(2.19114e-05 -0.00024933 -3.12724e-18)
(-3.33018e-05 -0.000665287 -4.02039e-18)
(9.81462e-06 -0.000630761 4.247e-18)
(0.000148139 0.000390831 1.926e-19)
(0.00013537 0.000401627 4.4263e-19)
(0.00104419 0.00368104 -2.75607e-17)
(0.00308947 0.00362972 2.51108e-17)
(4.68384e-06 0.00012715 -1.35622e-18)
(-1.48809e-05 9.7851e-05 -3.09548e-18)
(1.53907e-06 0.00015798 3.0198e-18)
(-0.00859323 0.00184114 2.12118e-17)
(-0.00946211 0.00155194 1.86455e-17)
(-0.00980766 0.00158318 -2.45296e-17)
(-0.0989116 0.011919 6.22897e-18)
(-0.0973108 0.0179809 -4.29326e-19)
(-0.104304 0.0162258 -7.84002e-18)
(2.50484e-05 0.000668561 -4.95637e-18)
(5.02231e-05 0.000683192 -7.95257e-18)
(2.64081e-05 0.000653592 3.49885e-17)
(0.00010705 0.000430605 -7.14182e-19)
(0.000112487 0.000421038 3.15185e-19)
(-5.00885e-06 -8.10106e-05 -2.27093e-18)
(-3.26718e-06 -0.000103451 -1.49619e-18)
(0.0042263 -0.00139101 1.11177e-17)
(0.0043212 -0.00162744 2.95142e-18)
(-0.000134068 0.000227864 1.17018e-18)
(-0.000137756 0.000199718 1.87211e-18)
(-0.000158305 0.000204976 -1.00472e-19)
(-0.0075662 0.00199482 -2.97847e-17)
(-0.00683478 0.00197426 5.50895e-18)
(2.08843e-05 0.00050038 4.12713e-20)
(1.68594e-05 0.000496102 -1.03513e-19)
(1.58282e-05 0.000501596 5.75665e-20)
(-2.43985e-05 8.61329e-05 3.56302e-19)
(-2.65135e-05 7.49507e-05 -1.12486e-18)
(-2.57675e-05 4.85241e-05 5.98946e-19)
(-2.37672e-05 0.000178819 6.2386e-19)
(-1.97137e-05 0.000158003 -5.24083e-18)
(0.00160152 -0.00147891 -4.12637e-18)
(0.0017241 -0.00146848 -1.44665e-17)
(0.00167176 -0.00161199 -1.01408e-18)
(-0.0195969 0.0555848 -2.64258e-17)
(-0.0162633 0.0562866 -1.29148e-17)
(-0.0213173 0.0584004 9.02986e-18)
(0.00425533 -0.000609211 -4.97187e-17)
(-0.000104814 0.00187154 -4.14464e-18)
(-0.000195724 0.00172542 -2.69576e-18)
(-0.0149792 -0.00360255 -9.07013e-19)
(-0.0139966 -0.00375064 -3.29109e-18)
(-0.0141612 -0.00294441 -1.01501e-17)
(0.000259402 -0.00103738 -2.25511e-18)
(0.00023867 -0.000980385 3.33318e-18)
(4.08792e-05 0.00011323 1.02531e-20)
(4.57649e-05 0.000125916 1.94908e-20)
(4.79043e-05 0.000137301 1.36501e-21)
(1.20647e-06 0.000128283 -9.42858e-19)
(4.14739e-05 0.000118218 -1.27401e-18)
(-3.48569e-06 0.00016589 4.84804e-18)
(-0.0939072 0.010154 1.42728e-17)
(-0.100171 0.00680362 7.91644e-18)
(0.011579 -0.0126491 2.70323e-17)
(0.0202696 -0.0152393 3.07637e-18)
(0.0250085 -0.00840265 -6.61659e-18)
(9.95402e-05 0.000828664 3.34057e-19)
(2.79047e-05 0.000921143 -7.33169e-17)
(9.20167e-05 0.000921897 -1.20651e-17)
(0.0185721 0.0129266 -1.78004e-17)
(0.0173947 0.0127566 -1.72389e-17)
(-4.82742e-05 0.000247331 -1.04038e-19)
(-6.7866e-05 0.000215623 5.59659e-19)
(0.000660795 2.46328e-05 4.10479e-19)
(0.000649176 -1.70403e-05 -8.94877e-19)
(0.000234626 0.00133832 -3.44939e-18)
(0.000184492 0.00142768 1.14568e-17)
(0.000316112 0.00140585 2.26925e-18)
(0.00165799 0.00158961 -1.6012e-18)
(0.00158136 0.00173339 -1.63035e-18)
(-0.0043397 -0.00488411 -4.70542e-19)
(-0.00277908 -0.00403238 -1.33418e-17)
(-1.6701e-06 0.000101984 2.17676e-18)
(-7.63858e-07 0.000127196 -1.61367e-18)
(3.49055e-06 0.000142185 5.08032e-18)
(-0.00995674 0.00171307 5.09922e-17)
(-0.0100255 0.00153293 1.03568e-16)
(-0.00940693 0.00189691 -7.15254e-17)
(-0.10573 0.0804576 -1.26462e-17)
(-0.113216 0.0834101 8.80856e-18)
(-0.0865183 0.0741293 -2.21288e-17)
(-0.00261322 0.00962029 3.80129e-18)
(-0.00303887 0.0101796 2.17236e-18)
(5.40276e-07 -3.60015e-05 2.33681e-18)
(2.90723e-06 -2.73575e-05 3.19917e-18)
(-2.41096e-06 -6.2978e-05 1.84351e-18)
(3.83225e-05 -5.22639e-06 1.86404e-19)
(3.47369e-05 -5.29946e-06 -3.73241e-19)
(3.44002e-05 -1.38424e-06 -7.35291e-20)
(-0.000876165 8.43679e-05 6.86227e-20)
(-0.000864828 0.00015606 -6.56076e-18)
(-0.00286622 -0.00162864 -2.84692e-18)
(-0.00305601 -0.00172385 -1.66296e-18)
(-0.00286441 -0.00182115 1.68723e-17)
(0.00355921 0.00251785 -4.47943e-17)
(0.00486993 0.00285896 -2.54888e-17)
(-0.00097455 0.00637821 -3.49367e-18)
(-0.00119039 0.00604253 8.23718e-18)
(1.67476e-05 -6.45175e-05 -3.83564e-19)
(1.82208e-05 -7.40719e-05 -2.32017e-19)
(1.58503e-05 -6.07045e-05 4.71352e-20)
(4.75225e-05 0.000129835 -2.9027e-20)
(4.15946e-05 0.00011355 4.20429e-20)
(4.36253e-05 0.00012111 3.59931e-20)
(-2.3356e-06 -8.87481e-05 8.39963e-19)
(-2.05934e-06 -7.56868e-05 3.61263e-18)
(-3.51061e-06 -0.000102747 -2.29649e-18)
(-0.0157351 -0.00339922 -5.85331e-18)
(-0.016534 -0.00318018 8.45297e-18)
(0.000754541 -0.0011235 -2.87247e-18)
(0.000830821 -0.00110881 -3.32244e-19)
(0.000769282 -0.00102908 -4.79531e-18)
(-8.46487e-05 0.000634773 4.22915e-17)
(-9.22717e-05 0.000645255 -9.89473e-18)
(-9.54003e-05 0.000634037 5.57214e-17)
(2.04209e-05 0.000409684 -7.42143e-19)
(2.01948e-05 0.000426351 6.17493e-19)
(1.66895e-05 0.000418153 -3.47979e-18)
(-0.0799664 0.0358863 2.58984e-18)
(-0.0949313 0.0371848 6.8316e-18)
(-0.0509278 0.0320631 -1.16882e-17)
(-0.0203926 0.0260257 3.93402e-17)
(-0.02 0.028012 8.55771e-18)
(-0.00755997 0.0139735 5.65305e-18)
(-0.00671547 0.014483 1.6636e-17)
(0.000261286 0.000213491 8.23677e-19)
(0.000276609 0.000190986 -6.81116e-19)
(0.000277706 0.000187531 3.95054e-18)
(0.0133764 -0.00903841 2.86055e-17)
(-0.00915437 -0.0100448 -3.41884e-18)
(8.80502e-05 0.000308186 -2.8851e-20)
(9.52282e-05 0.000310186 -1.23848e-19)
(2.66361e-05 0.00015791 -3.08135e-18)
(2.74051e-05 0.000128989 -1.63176e-18)
(2.52551e-05 0.000120231 1.62671e-18)
(0.00141341 0.00062397 2.32648e-17)
(0.00106864 0.00046862 -6.05584e-18)
(0.00252165 -0.00223371 -1.76556e-17)
(5.22083e-06 -1.00486e-06 -1.68172e-19)
(1.50092e-07 1.30484e-06 5.9457e-20)
(1.16962e-05 1.21687e-06 4.84546e-20)
(6.21988e-05 -2.47834e-05 8.03064e-20)
(5.97681e-05 -1.61987e-07 -6.82607e-20)
(-0.00888543 0.0127907 1.40676e-17)
(-0.00819157 0.0132872 -2.38052e-18)
(-0.00904106 0.0139693 -1.71712e-17)
(3.18982e-05 -0.000215193 7.91055e-19)
(3.23032e-05 -0.000220028 1.1962e-18)
(2.78325e-05 -0.00022021 7.76124e-19)
(-0.0122554 -0.0859274 -8.15424e-18)
(-0.0105441 -0.0894757 1.22656e-17)
(-0.00956041 -0.093953 9.2212e-18)
(0.00180569 0.00162556 -4.70059e-18)
(0.00172104 0.00145038 -9.73271e-19)
(3.3399e-05 0.000486849 -5.14801e-18)
(4.44935e-05 0.000502516 -4.2592e-18)
(4.14798e-05 0.000505107 -1.38569e-17)
(1.20122e-05 -7.49719e-08 -3.13369e-19)
(1.47874e-06 -3.31762e-06 -1.29857e-20)
(-0.00162409 -0.000403732 -7.84146e-18)
(-0.00174517 -0.000477322 6.87915e-18)
(-0.0115408 -0.00194565 -5.12091e-17)
(-0.0111969 -0.00156084 -1.11309e-18)
(-0.0116715 -0.00159561 1.59938e-17)
(0.001584 -0.00102776 -3.16934e-18)
(7.57348e-05 6.57524e-06 4.5367e-19)
(7.68021e-05 2.30027e-05 3.82473e-19)
(5.29346e-06 1.58805e-05 -7.68218e-18)
(4.99427e-06 -2.03716e-05 -1.26375e-17)
(4.54852e-06 2.3703e-05 -8.27419e-18)
(-0.00507226 0.0249556 1.055e-17)
(-0.00556258 0.0238008 -3.03889e-17)
(-0.00414674 0.0241002 -2.84774e-17)
(0.00258238 0.0212724 -3.91234e-20)
(0.00545095 0.0208825 6.11483e-18)
(0.0057247 0.0182041 3.24974e-17)
(-3.65049e-06 -8.09792e-05 9.12009e-19)
(-4.63753e-06 -0.0001081 2.46018e-18)