/*--------------------------------*- C++ -*----------------------------------*\
| =========                 |                                                 |
| \\      /  F ield         | OpenFOAM: The Open Source CFD Toolbox           |
|  \\    /   O peration     | Version:  v2012                                 |
|   \\  /    A nd           | Website:  www.openfoam.com                      |
|    \\/     M anipulation  |                                                 |
\*---------------------------------------------------------------------------*/
FoamFile
{
    version     2.0;
    format      ascii;
    class       volScalarField;
    location    "650";
    object      k_0;
}
// * * * * * * * * * * * * * * * * * * * * * * * * * * * * * * * * * * * * * //

dimensions      [0 2 -2 0 0 0 0];


internalField   nonuniform List<scalar> 
18355
(
0.000162372
0.044985
0.000147526
0.000145565
0.000150302
0.000187782
0.000147547
0.000174731
0.000151251
0.0442073
0.000145026
0.0313163
0.000183519
0.000148013
0.000148508
0.000151589
0.0138946
0.000146187
0.000148224
0.0528049
0.000153902
0.000149393
0.0733622
0.000150321
0.000155738
0.00014889
0.000148375
0.000150881
0.0177964
0.000148056
0.000148899
0.000152281
0.000146168
0.000146816
0.000168755
0.000163075
0.000149884
0.000182383
0.000150699
0.00014517
0.000148023
0.000168441
0.000147552
0.0324006
0.000148038
0.00018342
0.000170233
0.000151872
0.000168048
0.000146321
0.000145017
0.000147145
0.000149834
0.0771362
0.000148443
0.000148373
0.000205682
0.000148625
0.000462054
0.000184075
0.000146356
0.000179985
0.00014607
0.000162769
0.0348619
0.000161786
0.00489188
0.000157655
0.000148415
0.000149265
0.000172164
0.000149684
0.000185225
0.000146577
0.000174616
0.000147523
0.0770223
0.000152146
0.000159847
0.000146941
0.000147625
0.000258156
0.000153605
0.000164419
0.000148833
0.00018313
0.0393695
0.0520201
0.0173234
0.0807798
0.000225153
0.000148444
0.000148616
0.000144483
0.00601002
0.0698384
0.000147018
0.000156516
0.0741968
0.00861191
0.00878228
0.0102626
0.000164485
0.0267264
0.000150958
0.000190097
0.0203994
0.000177121
0.000162241
0.000184132
0.00014785
0.000150338
0.000148901
0.000150551
0.0692676
0.000147847
0.000478641
0.0768819
0.000475303
0.000164391
0.0476102
0.000279872
0.000152025
0.00017196
0.000147009
0.00017769
0.000147122
0.000149726
0.00114872
0.0001445
0.000145053
0.022076
0.000173196
0.000156236
0.000161322
0.000149696
0.000147825
0.00014501
0.000147916
0.000172917
0.0109651
0.0176794
0.000149242
0.000147839
0.000190116
0.000149169
0.000153844
0.0263391
0.000152864
0.0223451
0.000149723
0.000149226
0.000167726
0.000433975
0.000190789
0.000149782
0.0205029
0.000473022
0.000149763
0.00018102
0.000155451
0.000153501
0.000156748
0.000156776
0.000225641
0.000277029
0.0654975
0.000166531
0.000199565
0.000146392
0.0267032
0.0654867
0.000144934
0.000145026
0.000151563
0.0341527
0.000185216
0.000148558
0.000658833
0.0490319
0.000166164
0.000199364
0.000158745
0.000147242
0.000227274
0.0359892
0.0808247
0.000210777
0.000151313
0.0110243
0.000204961
0.000147586
0.000156582
0.0346787
0.000162648
0.000149343
0.00375243
0.000158455
0.000168503
0.000145023
0.000151182
0.00015214
0.0497806
0.0779056
0.00973622
0.000156528
0.000475522
0.0561492
0.061165
0.000168311
0.000147784
0.000149509
0.0532877
0.000149094
0.000146398
0.000248631
0.00791612
0.0538475
0.000148955
0.000152701
0.00024012
0.000147875
0.000163806
0.000147694
0.0581697
0.000148886
0.048183
0.0349578
0.00017119
0.000147771
0.000149811
0.000159146
0.000155062
0.0515856
0.000150195
0.00014884
0.000148624
0.000183721
0.000990545
0.00902243
0.000161548
0.000198433
0.000149116
0.000146478
0.000149047
0.0286256
0.00651052
0.000471454
0.000190657
0.000155352
0.000151186
0.000535619
0.000159099
0.0646078
0.000148633
0.0313065
0.0188896
0.000180837
0.000147958
0.000147479
0.000161113
0.000173982
0.0577334
0.000173895
0.000146688
0.000146376
0.000149738
0.000201727
0.000170384
0.000169739
0.000150167
0.0085494
0.000215546
0.000189036
0.000149137
0.00460152
0.000147002
0.000147852
0.000742752
0.000146691
0.000147515
0.000188712
0.000147426
0.0138454
0.000158911
0.000152452
0.000146883
0.000166444
0.0342235
0.000152349
0.0001456
0.000147951
0.000197068
0.0614425
0.000149763
0.000149847
0.0128128
0.000165546
0.000191757
0.000179532
0.000147869
0.000172788
0.000149793
0.000149773
0.000176883
0.000227385
0.000253503
0.000198775
0.000144568
0.000167022
0.000150638
0.000148216
0.00158145
0.000147678
0.000202437
0.000167928
0.000148561
0.000145083
0.000199261
0.00754094
0.0605927
0.000148637
0.00015641
0.0285071
0.00014678
0.0012929
0.000159226
0.000158749
0.000387553
0.000144563
0.000314032
0.000148115
0.000161875
0.000148711
0.000191211
0.0342232
0.000149786
0.0435598
0.000165044
0.000148172
0.000169559
0.000180644
0.0362363
0.0763645
0.02506
0.000148585
0.000146026
0.0696735
0.000164061
0.000148678
0.000149693
0.000275077
0.000227384
0.000427524
0.0732919
0.000148515
0.000152348
0.00051621
0.000147814
0.000149977
0.000219404
0.000168851
0.000153904
0.00696149
0.000149824
0.000161979
0.000257148
0.00729854
0.000145559
0.000148325
0.000147838
0.000146998
0.000165303
0.000147004
0.000165075
0.00014784
0.000152869
0.00014854
0.000151041
0.000147569
0.000148145
0.000147423
0.000147409
0.000151098
0.000170784
0.021396
0.000147698
0.0541468
0.000159225
0.0222935
0.000163528
0.000177275
0.000149183
0.0446597
0.000149726
0.000147883
0.000148789
0.000145419
0.074109
0.000153194
0.000146862
0.000169758
0.00016481
0.00014782
0.000146773
0.0546475
0.00014925
0.000147043
0.000524382
0.0001474
0.00045667
0.00918134
0.000219918
0.000153486
0.000150929
0.0394313
0.000149601
0.000147639
0.000442604
0.000149778
0.00014493
0.0122211
0.000146531
0.0367828
0.000174348
0.000187109
0.0118566
0.0001496
0.000147626
0.0706551
0.000187669
0.0273868
0.0264218
0.000147838
0.000147305
0.000149139
0.0231806
0.000162099
0.000148315
0.000149817
0.000149045
0.000162278
0.000472435
0.000155563
0.000149045
0.000149822
0.000162968
0.000242178
0.0636423
0.0323233
0.0543827
0.0001628
0.000162159
0.0395946
0.000148859
0.000146778
0.000147941
0.000147678
0.000164922
0.000147978
0.000146455
0.00696162
0.000162487
0.000168797
0.0826411
0.000163217
0.0298058
0.000147485
0.000147488
0.000147939
0.000147659
0.000149879
0.000149864
0.000147898
0.0189164
0.000148635
0.000144794
0.000266014
0.000185276
0.000146839
0.000151454
0.00016444
0.000687292
0.000151204
0.000147082
0.0380994
0.000151827
0.0124437
0.000159639
0.000147056
0.00729475
0.000185293
0.000146075
0.06826
0.0144666
0.051198
0.000147046
0.000146969
0.000154492
0.000197419
0.000149461
0.0092027
0.0174787
0.0481653
0.000207623
0.000145365
0.000174093
0.0488775
0.0696263
0.0679755
0.000148805
0.000155043
0.000155423
0.0529734
0.00989922
0.00022676
0.000148895
0.000147871
0.000148727
0.000162374
0.00014792
0.0639599
0.000156043
0.0709842
0.000148172
0.000148921
0.0001474
0.000157291
0.000159047
0.000232974
0.000147471
0.000190517
0.000427994
0.000162524
0.000147945
0.000151965
0.000163569
0.000149798
0.000162168
0.000169079
0.000162123
0.000184456
0.000149889
0.000146038
0.000147942
0.000149843
0.000165616
0.00015389
0.000179976
0.000147435
0.000150329
0.0417368
0.000144619
0.00015761
0.000149719
0.000182451
0.000152177
0.0736084
0.000150098
0.0101895
0.000153915
0.000151992
0.0207059
0.0401576
0.0443115
0.000162604
0.000152875
0.000147114
0.000147858
0.00019937
0.000168597
0.00015888
0.00016961
0.0179532
0.000227809
0.000147354
0.0661037
0.0342067
0.000151773
0.000147858
0.000157638
0.0778534
0.000161037
0.000149401
0.000163782
0.000182964
0.000168898
0.00015672
0.000336392
0.000156129
0.000187055
0.0313742
0.00063756
0.00234059
0.000163832
0.000180246
0.000158122
0.000148386
0.000151866
0.000148017
0.000181783
0.00018134
0.0403433
0.000170412
0.0424934
0.012814
0.000163307
0.000151987
0.0359578
0.0796466
0.000145137
0.000171744
0.00709111
0.0314511
0.000155787
0.000145221
0.000156011
0.000156884
0.000163247
0.000182101
0.000147676
0.0101767
0.000151199
0.000153042
0.0557657
0.000147399
0.000159261
0.066765
0.000147632
0.000150759
0.0650129
0.000146171
0.000190746
0.000144628
0.0144568
0.000162862
0.000172063
0.000158897
0.000154399
0.000196387
0.000153154
0.0185832
0.000189721
0.000148615
0.0255774
0.000172726
0.000358093
0.0180055
0.000202646
0.000221086
0.000147811
0.000145496
0.0137998
0.000152094
0.000162783
0.000149565
0.00015827
0.0502191
0.0879971
0.000165697
0.0138621
0.000164444
0.000151454
0.000145245
0.000149492
0.000170415
0.000170377
0.000146552
0.0258694
0.000156867
0.000165409
0.00014994
0.0647303
0.0512239
0.000148083
0.000145143
0.000188462
0.000149615
0.000146063
0.0154131
0.000171521
0.000149421
0.000147842
0.000212035
0.000168014
0.000160394
0.00016374
0.000148108
0.052659
0.0001761
0.000148843
0.000181557
0.0641058
0.000147553
0.0862389
0.000145547
0.000147633
0.00014939
0.000158757
0.0508714
0.000164506
0.0348355
0.000159209
0.0577529
0.000160523
0.000157977
0.0398232
0.000148372
0.0847694
0.000151697
0.0321195
0.0445716
0.000148709
0.000461896
0.000153769
0.000154291
0.0600782
0.000166078
0.0430802
0.000146642
0.0751782
0.000148032
0.026842
0.000149226
0.000155765
0.000162891
0.000146663
0.000145337
0.000178356
0.0351358
0.0245276
0.000147343
0.000340197
0.000157563
0.000146711
0.000148675
0.000155719
0.000195869
0.0742281
0.000163608
0.00014973
0.000155946
0.0660951
0.000155639
0.00014771
0.000146663
0.000156423
0.000160769
0.0148592
0.000147355
0.000225898
0.000162793
0.0238873
0.0493905
0.00526537
0.000145038
0.000184727
0.000147554
0.000149116
0.000159319
0.0101893
0.000146711
0.000147102
0.00014735
0.0810997
0.000151071
0.000148732
0.000159945
0.000160372
0.0832435
0.0242141
0.000147439
0.00014801
0.0808833
0.000148825
0.0637853
0.0500227
0.0542447
0.000174552
0.000178079
0.0309472
0.000163305
0.000149023
0.000146525
0.000148211
0.000149211
0.000148618
0.000149292
0.0613135
0.007606
0.000149164
0.000167501
0.000146251
0.000151575
0.000164344
0.000148444
0.000153273
0.00015095
0.000193658
0.000371367
0.0001728
0.0473378
0.000162673
0.0057501
0.00017079
0.0535113
0.0680423
0.000176201
0.000436581
0.000229715
0.0181114
0.000147862
0.000147839
0.000147673
0.00015707
0.0397407
0.000146363
0.000149828
0.00018055
0.000146697
0.000162873
0.000162145
0.000149398
0.0243417
0.000148479
0.000148017
0.000212897
0.000145829
0.00019169
0.000188686
0.000148505
0.000151402
0.000146708
0.00016548
0.000146682
0.000152064
0.000188211
0.000147968
0.0706771
0.000148921
0.0735995
0.00015503
0.000202511
0.000147666
0.000191478
0.000163912
0.000149073
0.000148523
0.0736447
0.00014788
0.0180665
0.020514
0.000150122
0.000148638
0.000148391
0.000145107
0.0162512
0.000147812
0.0769298
0.00576615
0.000165572
0.0398998
0.000147106
0.000147503
0.0614823
0.0641179
0.000152716
0.000147861
0.000147928
0.000146448
0.000152254
0.000161517
0.000228693
0.000153918
0.0107615
0.000351094
0.00424674
0.000158048
0.000147947
0.0247454
0.026312
0.000160082
0.000147678
0.000148758
0.0732775
0.000147951
0.0146732
0.000165021
0.000149658
0.000155792
0.000146064
0.000163353
0.000156208
0.000146712
0.000144645
0.000151942
0.0337663
0.000149437
0.000185934
0.0383988
0.000148669
0.000147422
0.000161547
0.0154789
0.000162377
0.0611954
0.000149669
0.000145056
0.000151379
0.0301988
0.000185916
0.000290445
0.000147719
0.000157059
0.000148094
0.0572647
0.000145992
0.0242254
0.00016218
0.0180222
0.000149212
0.000147272
0.000177959
0.000147799
0.0285521
0.000148706
0.000397978
0.000149682
0.000146424
0.000152166
0.00021139
0.022884
0.000155309
0.000150146
0.000149624
0.000148603
0.000146523
0.000149862
0.000186549
0.000149206
0.0608561
0.00015189
0.059595
0.000148139
0.00014522
0.000210625
0.0641797
0.0829295
0.000149583
0.0421694
0.000148264
0.00488022
0.000149762
0.000195798
0.000146894
0.0536019
0.000147396
0.000156135
0.000148204
0.000147629
0.000149725
0.0734954
0.014597
0.0483952
0.000158183
0.000157147
0.000153667
0.00014776
0.000145588
0.000146175
0.00015115
0.000190501
0.000149047
0.0138248
0.000183131
0.000147843
0.000149828
0.00449428
0.00019933
0.000151203
0.000153538
0.000158529
0.0232516
0.000179221
0.0837938
0.000185286
0.000188774
0.000173266
0.000147965
0.000147326
0.000180929
0.000161061
0.000147987
0.0353611
0.00015614
0.0179871
0.000149248
0.000180862
0.000158309
0.000173719
0.000155486
0.000148268
0.000175141
0.000148372
0.0130753
0.000148313
0.000148231
0.0599406
0.000162966
0.000158365
0.0624144
0.000147337
0.00016801
0.0288936
0.000147863
0.000168509
0.0339956
0.00015041
0.000147365
0.000148411
0.000153947
0.000153469
0.000190298
0.0228358
0.000152318
0.000154915
0.0370795
0.000145522
0.00812673
0.000154904
0.000151876
0.000231805
0.0107578
0.000146091
0.000147399
0.000153084
0.000146077
0.000145681
0.0760217
0.000149789
0.000158643
0.000145148
0.000163513
0.000146054
0.00017064
0.000215303
0.000151451
0.0565171
0.000147401
0.000152629
0.000147572
0.0501682
0.000156289
0.000146909
0.000147834
0.000148705
0.000147441
0.000188665
0.0558201
0.0230476
0.0460259
0.000149169
0.000149557
0.000192931
0.000148868
0.000146036
0.000248376
0.0473282
0.000151868
0.000148279
0.0288604
0.000149462
0.000149183
0.0523674
0.000188625
0.00814266
0.000151073
0.000147894
0.0415515
0.000148955
0.0001578
0.000149438
0.000161746
0.000148003
0.0001774
0.000194945
0.000172954
0.000148556
0.0475978
0.0001502
0.000146937
0.000149339
0.000148332
0.000147802
0.000148749
0.0722508
0.000149336
0.0473042
0.000149333
0.000159498
0.067404
0.000146503
0.000188058
0.000150943
0.000146441
0.000151607
0.000188093
0.000148095
0.000147163
0.000148754
0.000148139
0.000180022
0.000145774
0.000149555
0.000156287
0.000148496
0.000158964
0.0131907
0.055245
0.0311693
0.0689261
0.00018866
0.000173548
0.0752588
0.0501064
0.000148655
0.000149194
0.000145396
0.000171219
0.0397521
0.000161325
0.000154292
0.000145222
0.000147617
0.000148979
0.000152366
0.0376963
0.0555484
0.00964162
0.000179679
0.000148577
0.000149534
0.000148968
0.030229
0.00056307
0.000147767
0.000338676
0.000145633
0.000162066
0.000152016
0.000162817
0.000161493
0.000227824
0.00015096
0.000170592
0.000145996
0.000147148
0.000173859
0.000147481
0.000148295
0.000180197
0.000215684
0.000148767
0.000166481
0.000147468
0.000148031
0.000146574
0.00014794
0.0676356
0.000157662
0.000150784
0.000148846
0.0533475
0.000171512
0.000148381
0.000157614
0.000161358
0.0200928
0.000219996
0.0615912
0.000196703
0.000187688
0.000194969
0.00019778
0.000170451
0.0342165
0.000145056
0.000147426
0.000147711
0.000171283
0.000148937
0.0225309
0.00014735
0.000148699
0.0616833
0.000173218
0.000149533
0.000165999
0.000147526
0.000150752
0.00026936
0.000184572
0.000147645
0.000236081
0.000185128
0.0115196
0.0741116
0.000147959
0.0334102
0.000147402
0.000167648
0.000146953
0.000146778
0.0456008
0.0001619
0.00015188
0.000147719
0.0441933
0.000153754
0.0453018
0.0633917
0.000149737
0.000145809
0.000152849
0.0717711
0.000182029
0.000171462
0.000158734
0.000218457
0.000147982
0.000150076
0.000147883
0.000148189
0.000151001
0.000163155
0.0707197
0.000179064
0.000193943
0.0296452
0.000147863
0.0187249
0.000185011
0.000162325
0.000149223
0.000147882
0.000147449
0.000147247
0.000147429
0.00934122
0.000182992
0.0763254
0.000179016
0.000186516
0.000148876
0.00018741
0.0598959
0.000161601
0.000155582
0.000146869
0.070363
0.0501445
0.000175983
0.0001961
0.00014806
0.00938066
0.000150614
0.000152788
0.000170082
0.000169138
0.000145953
0.000187218
0.0498716
0.000149838
0.0124679
0.0567163
0.0698852
0.00931141
0.000162777
0.000859405
0.000163944
0.000162846
0.044827
0.000147178
0.000159005
0.000146971
0.000149645
0.0502952
0.000151875
0.0738876
0.000145862
0.000148868
0.0459798
0.000147865
0.0697217
0.000150743
0.000190389
0.000152121
0.000149166
0.0768822
0.000155311
0.000185116
0.00014699
0.000147293
0.000222901
0.000176822
0.000148256
0.000155843
0.000263817
0.000186411
0.000349487
0.000149727
0.000147648
0.000144734
0.000147751
0.000157357
0.000164382
0.000145383
0.0608029
0.000147359
0.000148129
0.00017141
0.0359929
0.000177929
0.000160174
0.000146254
0.000150769
0.000180594
0.000304676
0.000257864
0.0258879
0.000157755
0.000163067
0.00023192
0.000148357
0.000168668
0.054091
0.000147406
0.000203306
0.0208594
0.000305471
0.000277489
0.067243
0.000186931
0.000148731
0.0240156
0.000154878
0.000173219
0.000181166
0.000147384
0.000186585
0.000147499
0.000148202
0.000175123
0.0117633
0.00015909
0.000147441
0.000164367
0.0298269
0.000166733
0.0159236
0.00014776
0.0409055
0.000146033
0.000170216
0.000183849
0.0001477
0.0270923
0.000147774
0.000146754
0.000148623
0.000147821
0.0687996
0.000189327
0.000149662
0.0613807
0.000148422
0.016905
0.000145973
0.0151377
0.000161924
0.000184957
0.000152916
0.000147663
0.000145721
0.000148528
0.00021808
0.000174981
0.000148763
0.000171549
0.0130407
0.0714244
0.00017348
0.0526929
0.0709521
0.000147694
0.0263839
0.000146426
0.000229843
0.000147905
0.000148649
0.000149023
0.00017613
0.0171077
0.000222999
0.000181388
0.047584
0.000187324
0.000183543
0.0496796
0.000147054
0.000172439
0.0158538
0.000144794
0.000174813
0.0547236
0.0002036
0.000147534
0.0589657
0.000165363
0.0167201
0.00208273
0.00015706
0.000181592
0.00015527
0.000147383
0.000145067
0.0269241
0.000194912
0.000180557
0.000193669
0.000147215
0.00954099
0.000159203
0.00014447
0.000149668
0.000178776
0.000153525
0.000149393
0.000149779
0.00026632
0.000147184
0.000163511
0.0213562
0.000145682
0.000147157
0.00115714
0.000146802
0.00016134
0.000158885
0.000177979
0.000320309
0.000147812
0.000187006
0.000159759
0.000169235
0.000157471
0.000154079
0.000167334
0.000213073
0.000170322
0.0384245
0.000166464
0.000148712
0.000216446
0.0480893
0.000187258
0.000146348
0.000148197
0.000171198
0.000152117
0.0859195
0.000199819
0.000159083
0.0233021
0.000152287
0.000198158
0.0239859
0.000148005
0.00014875
0.00014833
0.000147765
0.012757
0.000224403
0.00015561
0.000198154
0.000242942
0.000168768
0.000148854
0.000153657
0.000171086
0.000147435
0.00014703
0.0240067
0.000151209
0.000504733
0.000146696
0.00014782
0.000149801
0.000168088
0.000161233
0.000166841
0.000148529
0.000151783
0.0726317
0.0210715
0.000357142
0.00117868
0.000153898
0.000150375
0.0768602
0.000182347
0.0139619
0.000162776
0.000147423
0.000172559
0.000155112
0.000149989
0.000146426
0.000167704
0.000189581
0.0461372
0.000181331
0.000208687
0.000148786
0.000150622
0.000148547
0.000200016
0.0195225
0.000219951
0.000412851
0.000147284
0.0507627
0.000151445
0.000147632
0.000152704
0.000148873
0.000222017
0.000148002
0.000190344
0.000145652
0.000381519
0.000157883
0.00937259
0.000150256
0.000148882
0.000155242
0.000145971
0.000186646
0.000438378
0.077097
0.000172486
0.000145451
0.0801507
0.00016375
0.000147868
0.000167849
0.000146871
0.000153428
0.000144685
0.000211094
0.000154034
0.000177778
0.000172609
0.00014659
0.0726771
0.000145452
0.000155919
0.000149517
0.000152901
0.000146104
0.000147788
0.000161787
0.000149868
0.000154402
0.000145807
0.000152631
0.000298861
0.0122222
0.000149748
0.000173803
0.0713476
0.000147236
0.000148973
0.000158426
0.000199939
0.000147845
0.000175606
0.0070105
0.000150728
0.081964
0.0132552
0.000147985
0.000149933
0.000166763
0.000144355
0.0320037
0.0396411
0.0457706
0.000151757
0.000159893
0.000144872
0.000309329
0.000156079
0.000192253
0.000149585
0.000179037
0.0136973
0.000192424
0.000153007
0.00214821
0.0157529
0.0498146
0.000149598
0.000146523
0.0584885
0.000351064
0.000146626
0.000148575
0.000190243
0.000149836
0.000211357
0.000298288
0.000146125
0.000149926
0.00948006
0.000185301
0.000150967
0.000144404
0.000164905
0.000149318
0.000212676
0.000147332
0.00014906
0.000147955
0.000152201
0.000148299
0.000182532
0.000146952
0.000154354
0.060771
0.0318277
0.0291926
0.000146999
0.000168908
0.000192276
0.000148692
0.000152912
0.000170775
0.000147173
0.000151968
0.0556466
0.000164313
0.000148015
0.000148366
0.000147741
0.0144262
0.0791326
0.000146764
0.00014983
0.000147733
0.000184251
0.031867
0.000151731
0.000174057
0.000148867
0.000165435
0.000159378
0.000221682
0.00855606
0.00014911
0.00025846
0.0690325
0.000163339
0.000147759
0.000163579
0.000159591
0.000162185
0.000155355
0.000147895
0.000202299
0.00015528
0.000265433
0.000161689
0.000148891
0.000149697
0.0497934
0.000148731
0.000160579
0.000212228
0.000161061
0.082433
0.0168577
0.000147642
0.000181666
0.000217566
0.000182177
0.000162325
0.000151938
0.000148296
0.00808091
0.000161448
0.000148038
0.000167744
0.000181956
0.000314884
0.0486945
0.000148282
0.000155659
0.00014911
0.000219387
0.000246003
0.000149185
0.000172553
0.000154216
0.000151173
0.000149189
0.0164679
0.000177907
0.000148006
0.000153027
0.0638299
0.000149718
0.000147902
0.000157121
0.000165375
0.000148136
0.000148992
0.000152713
0.00415296
0.000160229
0.000147662
0.000146852
0.000148488
0.000171009
0.000147846
0.000147552
0.000423705
0.079585
0.000147388
0.000149745
0.000181973
0.000162201
0.000169122
0.00014915
0.0166468
0.000147157
0.000150318
0.000160179
0.0767236
0.0225237
0.00019108
0.000171423
0.0576817
0.0190191
0.0145242
0.0683696
0.000153267
0.000147988
0.000146017
0.000161346
0.000147468
0.000147975
0.000149091
0.000176665
0.000147487
0.0323969
0.000162429
0.0822017
0.000148409
0.0659797
0.000148216
0.000157122
0.00014584
0.000150698
0.000160712
0.000247329
0.000148836
0.000146906
0.000154189
0.0760299
0.000147257
0.000170257
0.000149226
0.000162804
0.0129482
0.00017862
0.000479504
0.000158288
0.00020736
0.000149008
0.0517379
0.012099
0.000147011
0.0734193
0.0232058
0.000147637
0.000144975
0.000168044
0.000160796
0.000167234
0.000145772
0.0315931
0.00015809
0.000172637
0.000145835
0.000147514
0.00015797
0.0176936
0.00376179
0.0122632
0.000168918
0.0210201
0.00016055
0.0166585
0.000148531
0.00034687
0.000147644
0.000155791
0.00027423
0.000150994
0.000199152
0.000147444
0.000153192
0.0540634
0.00792426
0.000147581
0.000356171
0.000147844
0.0766993
0.000146587
0.0830979
0.0239525
0.000147909
0.0410707
0.000156815
0.0418244
0.000148002
0.000155173
0.000150389
0.000173
0.000147986
0.000218872
0.00014653
0.0665568
0.000185231
0.0838997
0.000149081
0.000145856
0.000421287
0.000152255
0.00015752
0.00014748
0.000166764
0.000153395
0.000148136
0.0178104
0.000148372
0.000147519
0.00014968
0.000148538
0.0555104
0.000162832
0.000147498
0.0412706
0.000486179
0.000196508
0.000147253
0.000178401
0.000455764
0.000147758
0.000156692
0.00014996
0.000148154
0.000147497
0.000148284
0.000156726
0.000160547
0.0586436
0.000185475
0.000180295
0.000149837
0.000147602
0.0453413
0.000168305
0.00014746
0.000149956
0.0144919
0.0674035
0.000148193
0.0829031
0.000160886
0.000197992
0.000149843
0.05647
0.000146151
0.000151704
0.000148556
0.000147032
0.000151384
0.0366303
0.000146109
0.0617569
0.000195999
0.000347601
0.0355509
0.000148569
0.00014833
0.0437172
0.000166705
0.000167916
0.000147881
0.000205497
0.000148898
0.0670749
0.0417516
0.0502552
0.000148539
0.0675967
0.0524014
0.0757311
0.000194932
0.000153959
0.000179623
0.000147345
0.000230709
0.0769794
0.000161372
0.0566688
0.000146595
0.000148178
0.000167887
0.024715
0.00016197
0.000315723
0.000147744
0.0470548
0.000170917
0.000163038
0.000146638
0.000164149
0.000181197
0.000148157
0.000169664
0.000168035
0.00022766
0.000145946
0.00014722
0.0573371
0.0422367
0.000152009
0.0341771
0.000160726
0.000147829
0.0653552
0.029213
0.000148535
0.000244033
0.000145928
0.000148644
0.000174525
0.0521493
0.000149121
0.0437955
0.000151791
0.000147868
0.0155272
0.000149464
0.000186114
0.000146853
0.000328668
0.000148047
0.0166301
0.000146747
0.000163265
0.000148241
0.000155288
0.000178725
0.0684831
0.00016222
0.0301745
0.000160968
0.0769469
0.0661241
0.0515038
0.000147053
0.0293592
0.0712592
0.014409
0.00022615
0.000149528
0.000146924
0.000148532
8.65749e-06
0.000147982
0.000149033
0.000602281
0.00014957
0.029997
0.000150934
0.0731287
0.000147914
0.000149492
0.000195947
0.000145331
0.000180536
0.000147249
0.000167772
0.000180539
0.0206011
0.000146588
0.000147598
0.0711553
0.064311
0.000149603
0.000159783
0.000165079
0.000150011
0.00798289
0.0436481
0.0703249
0.000191667
0.028225
0.0174018
0.000224153
0.00014712
0.000146441
0.000150363
0.000147446
0.000158429
0.0259106
0.065968
0.000148475
0.000152662
0.000151209
0.00202775
0.0785044
0.000657848
0.000390306
0.000148534
0.000360597
0.0578355
0.000154585
0.0551563
0.000175374
0.00014899
0.0791871
0.0433634
0.0058907
0.000149329
0.000150871
0.000167187
0.000222661
0.000146959
0.000148372
0.00014958
0.000146686
0.000148179
0.0663522
0.000152055
0.000145744
0.0217321
0.000148591
0.0385393
0.000168489
0.0387354
0.000241393
0.000147685
0.0751969
0.000171435
0.00022002
0.000150132
0.000160321
0.00014794
0.000150747
0.0176733
0.000205168
0.000174102
0.000150422
0.00014739
0.000171433
0.000152021
0.000148303
0.000155114
0.000147502
0.0565731
0.000147824
0.0493213
0.0258677
0.000151221
0.000147702
0.0280797
0.000147036
0.000146963
0.00022485
0.000153194
0.000152356
0.000177062
0.000286971
0.0713853
0.000159785
0.000151421
0.000149074
0.0479956
0.0198074
0.000161002
0.000168685
0.000147412
0.000147888
0.00015281
0.000146645
0.000185887
0.000161838
0.00014831
0.000149338
0.000148508
0.000147597
0.000148042
0.000147448
0.000324689
0.0384431
0.0560062
0.000203967
0.0114253
0.00018553
0.000153807
0.0251124
0.0190009
0.0172334
0.000148525
0.00014712
0.000457822
0.00205829
0.000203452
0.000197041
0.0724238
0.000148524
0.000147775
0.062897
0.000146791
0.000208393
0.000190779
0.000150731
0.0138609
0.0453612
0.000149715
0.0158149
0.0333939
0.000173437
0.000208551
0.000148962
0.00527633
0.000245185
0.085101
0.000146828
0.000164538
0.0205
0.000147243
0.000171561
0.000147596
0.000172214
0.000148511
0.0287353
0.000210323
0.00014841
0.000152515
0.000149499
0.0367993
0.000169664
0.000148756
0.00014906
0.0326466
0.000147741
0.000152512
0.000175681
0.000192076
0.000149647
0.000166351
0.000162102
0.000147571
0.000213799
0.000147819
0.000147838
0.000158881
0.000147705
0.000163989
0.0658415
0.000220949
0.000147971
0.0625856
0.0166876
0.000184946
0.0146203
0.000172188
0.000153159
0.0401319
0.000158257
0.000152342
0.000166662
0.000169468
0.000148371
0.000146749
0.000148627
0.000207982
0.0466201
0.0726154
0.0778142
0.000146619
0.000154099
0.000175612
0.00017697
0.0433153
0.000148823
0.0514252
0.000149264
0.0203209
0.000145814
0.0439061
0.000150217
0.0659475
0.0353602
0.000185309
0.0527395
0.000164166
0.000146746
0.000166904
0.0115334
0.059501
0.000157149
0.00014947
0.000147516
0.000148681
0.0001602
0.000149905
0.000151594
0.000146754
0.000178153
0.000148001
0.0758526
0.000149445
0.0507542
0.000145924
0.000207729
0.066324
0.000150597
0.0264678
0.000147959
0.00015686
0.000148909
0.000149273
0.000147802
0.000184043
0.00018517
0.000146834
0.000152513
0.00014801
0.0609646
0.000162422
0.000215254
0.000210425
0.000148029
0.000175443
0.000151181
0.000150417
0.000161639
0.000148608
0.000167045
0.0734406
0.000148047
0.0684109
0.000155424
0.00014749
0.000146116
0.0250634
0.000147952
0.0699856
0.000177142
0.000149775
0.0169709
0.000187899
0.0464077
0.00015743
0.000153673
0.000148569
0.000174466
0.028102
0.00014882
0.000166354
0.000148587
0.000202385
0.00037129
0.0195566
0.0707367
0.043974
0.000157543
0.018448
0.000148871
0.0523094
0.000237566
0.000157563
0.000226717
0.000184483
0.000145172
0.000162796
0.000147982
0.000146678
0.000152559
0.000147999
0.000408724
0.000263684
0.000214878
0.00393653
0.000148377
0.000799687
0.000148258
0.000147719
0.000169739
0.055839
0.000146857
0.0358491
0.000168112
0.000202392
0.0218601
0.000149667
0.00016894
0.0343874
0.000162159
0.000148019
0.000189402
0.000148044
0.000148768
0.000149575
0.00027253
0.0626702
0.00015531
0.000148571
0.0459247
0.07312
0.000149274
0.000149542
0.00123313
0.0828905
0.000148915
0.000181991
0.000182083
0.000147355
0.000163659
0.000145913
0.0390866
0.000147723
0.0849828
0.0733689
0.0685021
0.000153959
0.000157776
0.00014767
0.000146554
0.0165118
0.000146943
0.02902
0.0732657
0.000173903
0.000146812
0.000146099
0.000207411
0.000186101
0.000162683
0.0843842
0.000181032
0.0227975
0.000151955
0.0534122
0.000316781
0.000158772
0.00018621
0.0759681
0.0178944
0.000148446
0.00594856
0.000146182
0.016997
0.000219346
0.000223446
0.000145514
0.000166903
0.000148597
0.000248946
0.0517743
0.000151165
0.00015041
0.0796872
0.0508938
0.000148001
0.0477404
0.013828
0.0148767
0.000149398
0.0733596
0.000148937
0.0121172
0.000148645
0.000151202
0.000149316
0.00014825
0.029967
0.000255969
0.000146244
0.0535894
0.0194298
0.000144669
0.000146066
0.000161539
0.000165737
0.000200649
0.000167526
0.0287558
0.0588121
0.0500442
0.0758429
0.000199079
0.000150766
0.000211203
0.000181365
0.0189527
0.0163812
0.0415182
0.000196594
0.000181078
0.000153668
0.0184552
0.000169112
0.000226688
0.000149163
0.000154233
0.0429561
0.000148516
0.000157568
0.000196434
0.000153059
0.000170461
0.000148257
0.000151684
0.0848804
0.000182774
0.000145952
0.000154114
0.0246689
0.00024057
0.00016432
0.000286299
0.0147768
0.000168407
0.000211458
0.0412272
0.000149972
0.0443019
0.000199148
0.0158464
0.000148882
0.000144368
0.0218349
0.0277573
0.0315843
0.0784853
0.0448807
0.000161637
0.000184928
0.00015205
0.0353325
0.000148091
0.000148031
0.000173824
0.000179418
0.00017713
0.0298304
0.000150356
0.000484808
0.0437699
0.000150168
0.000188277
0.000159508
0.000177133
0.0001843
0.000169658
0.0401546
0.038528
0.0481251
0.000299175
0.000162922
0.000148049
0.000150969
0.000159586
0.000280024
0.0295635
0.0350118
0.0269813
0.000163366
0.000146704
0.000219751
0.000168409
0.0549599
0.000148529
0.0161185
0.000168992
0.0350207
0.000148505
0.0103965
0.000174553
0.000188412
0.00152662
0.000146748
0.0187385
0.0410627
0.000146755
0.000179625
0.0490733
0.000150244
0.000217389
0.000152621
0.000151815
0.000149702
0.0686839
0.000169966
0.000247522
0.00016147
0.0735257
0.000146543
0.000144564
0.000147335
0.000148292
0.000147539
0.0804817
0.000186812
0.0420972
0.000149354
0.000146748
0.0763011
0.000161098
0.0423032
0.000195477
0.000148627
0.000232879
0.000157066
0.000170383
0.0373806
0.000158565
0.0213375
0.000208242
0.000155367
0.000145308
0.000180656