/*--------------------------------*- C++ -*----------------------------------*\
| =========                 |                                                 |
| \\      /  F ield         | OpenFOAM: The Open Source CFD Toolbox           |
|  \\    /   O peration     | Version:  v2012                                 |
|   \\  /    A nd           | Website:  www.openfoam.com                      |
|    \\/     M anipulation  |                                                 |
\*---------------------------------------------------------------------------*/
FoamFile
{
    version     2.0;
    format      ascii;
    class       surfaceVectorField;
    location    "850";
    object      Uf_0;
}
// * * * * * * * * * * * * * * * * * * * * * * * * * * * * * * * * * * * * * //

dimensions      [0 1 -1 0 0 0 0];


internalField   nonuniform List<vector> 
27882
(
(1.0146 0.00992993 8.61278e-22)
(1.01337 0.0106254 1.43943e-21)
(1.01348 0.00867191 3.10105e-22)
(1.00053 0.0772057 1.07854e-22)
(0.988479 0.0836163 -1.5229e-22)
(0.991329 0.0705519 -1.87015e-22)
(1.00272 1.96096e-05 9.92253e-23)
(1.00323 2.45946e-07 3.43238e-22)
(1.0037 -2.4354e-05 -1.2852e-22)
(1.01645 0.0112826 -6.20807e-22)
(1.01571 0.00918998 -2.37177e-23)
(1.01404 -0.0152057 0)
(1.01275 -0.015566 4.32814e-22)
(1.01416 -0.0165129 -9.95099e-22)
(1.00718 0.000159521 1.95276e-23)
(1.00788 0.000279289 -1.18135e-22)
(1.00742 0.000208053 0)
(1.01654 -0.00475048 1.72125e-22)
(1.01666 -0.00492879 9.43652e-22)
(1.01679 -0.00480464 1.08198e-21)
(1.02789 -0.0177165 -7.04008e-22)
(1.02856 -0.0181483 1.72825e-21)
(1.02791 -0.0186129 6.04982e-22)
(1.01527 -0.0147518 -2.64934e-22)
(1.01402 -0.0140317 -7.64074e-22)
(1.01615 -0.0142923 -5.92733e-22)
(1.017 -0.0136137 -3.6246e-22)
(1.01584 -0.0131519 1.23796e-22)
(1.02959 0.0611969 2.26408e-22)
(1.02076 0.06065 1.09054e-21)
(1.028 0.0506313 3.03751e-23)
(1.00627 0.0165482 -6.06074e-22)
(0.982149 0.0645977 4.54137e-21)
(1.01954 0.062853 7.05339e-22)
(1.05316 -0.0689168 -6.84777e-22)
(1.04385 -0.0646302 1.70282e-22)
(1.0447 -0.0762672 -3.88392e-22)
(1.03699 -0.0132574 2.37268e-21)
(1.03779 -0.0132631 4.77287e-22)
(1.03713 -0.0126143 -9.88338e-22)
(1.01599 -0.00452236 -1.09104e-22)
(1.01627 -0.00465674 -8.68319e-22)
(1.01606 -0.00474112 8.54029e-22)
(1.0133 -0.00217763 8.21838e-22)
(1.01315 -0.00208301 3.96133e-22)
(1.01318 -0.00222684 -1.63821e-21)
(1.0287 -0.0350374 4.2974e-21)
(0.996832 -0.0348043 -4.29076e-21)
(1.01195 0.00146122 -1.43332e-22)
(1.01179 0.00140209 -5.03187e-23)
(1.01573 -0.00441828 8.60401e-22)
(1.01592 -0.00433143 -1.07414e-22)
(1.01297 -0.0158656 7.36961e-23)
(1.01216 -0.0161791 -1.10139e-22)
(1.0131 -0.016861 -2.99139e-22)
(0.924267 0.112039 1.71206e-22)
(0.937753 0.128859 -2.49059e-21)
(0.945852 0.109707 -7.78222e-23)
(0.962863 -0.131516 -2.49834e-21)
(0.969754 -0.131595 -1.67005e-21)
(0.965426 -0.125933 -4.16774e-21)
(1.00614 0.000108368 2.7584e-23)
(1.00695 0.000164482 1.80394e-23)
(1.00642 0.000146003 -7.04457e-23)
(1.00678 0.000188022 -9.97977e-24)
(1.00718 0.000239064 -4.99365e-23)
(0.957514 -0.131783 4.90232e-21)
(0.962287 -0.138477 3.87392e-21)
(0.887122 0.0214737 4.52764e-21)
(0.913831 0.0189593 0)
(0.873999 0.0101394 2.80825e-21)
(0.910134 -0.341849 1.9931e-20)
(0.898417 -0.335679 -1.71967e-20)
(0.911034 -0.326077 2.50617e-23)
(1.10512 -0.0607401 6.19808e-22)
(1.10201 -0.0545196 1.00545e-21)
(1.11048 -0.057068 5.04188e-21)
(1.03957 -0.0192792 0)
(1.03874 -0.0166618 1.51257e-21)
(1.04136 -0.0178262 1.94947e-22)
(0.963612 0.11713 0)
(0.951983 0.116185 0)
(0.95819 0.101115 2.37937e-22)
(0.843779 -0.270861 -1.92853e-21)
(0.835252 -0.271222 -2.24251e-21)
(0.839478 -0.280408 8.9742e-21)
(0.923263 -0.343101 1.78664e-20)
(0.906982 -0.344718 2.18139e-20)
(1.02724 -0.0173449 -1.55679e-21)
(1.02782 -0.0170281 -3.207e-21)
(0.892038 -0.117247 -8.99442e-22)
(0.887556 -0.128796 -3.508e-21)
(0.846307 -0.133087 0)
(1.01134 -0.0159867 -2.79138e-22)
(1.01006 -0.0165796 -6.53553e-22)
(1.01146 -0.0175236 -1.24124e-21)
(0.980454 0.114478 1.14743e-22)
(0.975043 0.131149 -2.1852e-22)
(1.05967 -0.0620777 -1.39041e-22)
(1.06282 -0.0740858 3.19786e-22)
(1.01154 -0.014703 4.56188e-22)
(0.891012 0.286927 -1.61632e-20)
(0.895068 0.288776 5.74339e-21)
(0.8941 0.282149 4.07133e-21)
(1.01436 0.00345602 -6.17151e-23)
(1.01417 0.00334231 -1.47476e-22)
(1.0142 0.00327715 -8.86994e-23)
(0.944501 0.131862 -1.254e-21)
(0.947636 0.153787 -1.03129e-21)
(0.930119 0.162135 3.87974e-21)
(1.01956 -0.0129918 0)
(1.02076 -0.0138794 -9.44166e-22)
(1.01918 -0.0140193 0)
(1.05553 -0.0376418 -6.77382e-21)
(1.04915 -0.0142652 -8.22807e-21)
(1.05955 -0.0120489 -5.94675e-23)
(1.01193 -0.00182357 -8.17952e-24)
(1.01206 -0.00168064 1.052e-22)
(1.01243 -0.00196299 -8.3503e-22)
(1.01082 -0.000711512 -3.70312e-22)
(1.01077 -0.000704132 -2.09047e-22)
(1.01115 -0.000787876 7.54171e-22)
(0.845766 -0.2478 2.21757e-21)
(0.838845 -0.236904 -1.6265e-21)
(0.83305 -0.24971 0)
(1.0199 -0.0122001 0)
(1.01875 -0.0124301 -6.02014e-22)
(1.04504 -0.0144814 -4.89108e-23)
(1.04723 -0.0156761 -6.32335e-23)
(1.04704 -0.0125811 7.39264e-22)
(0.0299785 -0.300163 2.97574e-21)
(0.00682168 -0.303307 -3.00978e-20)
(0.0180537 -0.300979 -1.79538e-20)
(1.01924 0.00684643 3.57933e-22)
(1.01856 0.00818854 1.11654e-21)
(1.01787 0.00653043 3.34946e-22)
(1.03937 0.0588674 4.82231e-22)
(1.03061 0.0727398 3.71836e-21)
(0.211966 0.0397624 0)
(0.210718 0.0134159 0)
(0.228441 0.035089 -2.3678e-21)
(1.021 0.00699365 9.30331e-23)
(1.01948 0.00551919 0)
(1.01559 -0.00519706 -6.61869e-22)
(1.01591 -0.00546445 -2.80276e-22)
(1.01616 -0.00477358 2.49868e-22)
(1.00244 -0.0746822 -2.23136e-21)
(1.00331 -0.0794108 0)
(0.998499 -0.0775337 0)
(1.0349 -0.0609269 3.63469e-22)
(1.04173 -0.0559696 1.38967e-21)
(1.01027 0.000848442 2.42579e-22)
(1.01032 0.000741632 -1.63437e-22)
(1.01037 0.000726828 -1.54618e-25)
(1.01372 -0.0156177 6.92917e-23)
(1.0129 -0.0149964 -1.63278e-22)
(1.04919 -0.0169612 -5.94071e-22)
(1.05109 -0.0158539 0)
(1.05071 -0.0182794 -1.44397e-21)
(1.01025 0.000971852 4.28527e-22)
(1.01019 0.000965533 1.67569e-22)
(1.01002 -0.000555945 0)
(1.01055 -0.000699717 4.65377e-22)
(1.01008 -0.000518581 0)
(1.01173 -0.0019706 -4.79805e-24)
(1.01153 -0.00166159 4.44733e-22)
(0.920348 0.35378 -1.96942e-20)
(0.939157 0.364541 1.67995e-20)
(0.82566 0.0554473 -1.29366e-20)
(0.873059 0.032514 1.34023e-20)
(0.898559 -0.0127817 -1.43589e-20)
(1.00904 -0.000433237 4.71182e-22)
(1.00993 -0.000581761 2.68173e-22)
(0.727698 -0.191042 -6.5892e-21)
(0.759703 -0.189771 -4.13647e-21)
(0.69637 -0.202989 -7.21495e-21)
(1.00667 -0.000277822 0)
(1.00598 -0.000198147 0)
(1.00605 -0.000212114 -2.94642e-25)
(1.01037 0.00154687 1.73591e-22)
(1.01024 0.00150202 -3.07313e-23)
(1.0104 0.00159334 1.27329e-22)
(1.09854 -0.0639626 -1.23676e-21)
(1.10592 -0.0681633 1.96039e-22)
(1.01193 0.00154274 -2.4025e-23)
(1.01212 0.00155899 -9.06442e-24)
(0.201274 0.0397255 2.53251e-21)
(0.215668 0.0632229 0)
(0.719795 -0.00261669 -5.60509e-21)
(0.782005 0.0103103 2.35137e-21)
(0.772494 -0.0035673 -1.08999e-22)
(1.01425 -0.00505323 -5.87655e-22)
(1.01447 -0.00521613 1.00586e-21)
(1.01429 -0.00521365 -4.1444e-22)
(1.01149 -0.0273235 -2.07614e-22)
(1.01282 -0.0272914 1.62677e-22)
(1.01229 -0.0259161 -5.29713e-23)
(0.971094 -0.0717514 -3.14972e-22)
(0.976053 -0.0743736 6.36826e-22)
(0.976083 -0.0674202 4.72783e-23)
(0.850632 -0.264758 -3.70583e-21)
(0.851867 -0.275609 6.81771e-22)
(0.714817 0.08495 1.16325e-21)
(0.704987 0.0805353 1.63037e-21)
(0.691222 0.0156436 -6.96683e-21)
(1.0303 -0.107556 0)
(1.00632 -0.119537 0)
(1.01728 -0.146165 -5.9637e-21)
(1.01655 -0.0153875 -1.13572e-23)
(1.0481 -0.0660959 1.87405e-21)
(1.05743 -0.0568333 2.06957e-21)
(1.02912 -0.0450822 1.18372e-21)
(1.03021 -0.0478607 9.99391e-21)
(1.02676 -0.0472595 -5.04571e-21)
(0.890064 0.281967 -6.60621e-21)
(0.88707 0.290672 -5.07841e-21)
(1.04146 -0.072963 3.80474e-21)
(1.04955 -0.0969349 2.58887e-21)
(0.997558 -0.0518466 4.81716e-22)
(0.994775 -0.0539112 -3.47069e-22)
(0.998047 -0.0556446 1.48854e-22)
(1.01488 -0.00158285 3.18479e-22)
(1.01433 -0.00183672 0)
(1.01506 -0.00215984 9.68142e-23)
(1.01855 -0.0730467 1.31483e-21)
(1.01415 -0.0733651 -1.46619e-20)
(1.01653 -0.0691067 -8.02563e-21)
(1.05284 -0.0149007 4.4432e-21)
(1.05233 -0.0137946 -6.09914e-22)
(1.01055 -0.028813 -1.01866e-22)
(1.00987 -0.0269783 1.04867e-22)
(0.899024 0.36041 -8.00727e-21)
(0.904923 0.339976 -8.8956e-21)
(1.02122 -0.076107 7.37105e-22)
(1.02203 -0.0715229 3.00102e-21)
(0.274354 0.096554 6.19758e-21)
(0.32162 0.133604 1.71164e-20)
(0.309605 0.109539 -1.04429e-20)
(1.00976 -0.000513435 3.29829e-22)
(1.01011 -0.000494551 -1.40945e-21)
(1.01098 -0.000553398 -2.5238e-22)
(1.04488 -0.0452544 0)
(1.04599 -0.0468228 6.05197e-21)
(1.04355 -0.046555 4.82943e-21)
(0.0546054 -0.297322 2.18443e-20)
(0.0393035 -0.298581 -9.44851e-23)
(1.01423 -0.00492356 -2.00229e-22)
(1.01407 -0.00489064 -2.00349e-22)
(1.00802 -0.000990811 -1.37862e-23)
(1.0081 -0.00105704 2.35359e-22)
(1.00806 -0.00101231 5.8888e-23)
(1.01329 0.00246196 -4.5396e-23)
(1.01312 0.00235682 5.3671e-23)
(1.01335 0.002416 3.81609e-23)
(1.04817 -0.0272224 -3.61495e-21)
(1.04796 -0.0280581 9.49899e-21)
(1.04719 -0.0271762 6.43523e-22)
(0.970198 -0.168033 -3.06141e-21)
(0.9806 -0.126825 1.6244e-21)
(0.951801 -0.136353 -9.70263e-21)
(1.01196 -0.00388943 2.71352e-22)
(1.01203 -0.00389544 1.60141e-22)
(1.01187 -0.00378809 1.11112e-22)
(0.850715 -0.256277 2.49825e-21)
(0.854384 -0.2459 2.80302e-21)
(1.00084 -0.0155875 -2.39924e-22)
(1.00057 -0.0173334 1.73719e-21)
(1.00228 -0.0165123 -2.613e-22)
(1.01034 0.00149997 2.82848e-24)
(1.01051 0.00158844 1.62495e-22)
(1.00798 -0.000959954 -1.30723e-22)
(1.00794 -0.00091688 -1.20782e-22)
(0.681502 -0.195853 -3.51147e-21)
(0.752756 -0.180076 2.06597e-21)
(0.909192 0.111167 -1.31982e-20)
(0.921689 0.0947578 2.91724e-23)
(1.04331 -0.0161024 -3.73257e-22)
(1.04275 -0.0130365 -8.69028e-22)
(0.232315 0.0604575 -3.86194e-21)
(0.245888 0.081781 1.40599e-21)
(0.728945 0.168498 -1.72597e-21)
(0.746303 0.188829 8.15246e-22)
(0.722279 0.12758 -1.46244e-21)
(0.972875 0.125783 -1.44761e-21)
(0.959739 0.131814 -7.4777e-22)
(0.962023 0.115483 3.29917e-22)
(1.01372 -0.00215987 7.41545e-22)
(1.01354 -0.0020696 -1.76294e-21)
(1.01368 -0.00200132 7.51732e-22)
(0.782833 0.077641 0)
(0.75992 0.118114 -4.56942e-21)
(1.02273 0.000674185 -8.71934e-22)
(1.02153 0.00150517 1.56228e-22)
(1.02102 4.49505e-05 -8.70855e-22)
(1.00468 -5.41517e-05 -1.2737e-22)
(1.0047 -5.53182e-05 -2.78824e-23)
(1.00382 -3.83636e-05 1.8765e-22)
(0.999618 -0.014356 -3.45771e-23)
(1.00142 -0.0137683 4.75027e-22)
(1.21088 -0.0546835 1.86751e-21)
(1.20426 -0.0588679 1.87937e-21)
(1.21476 -0.075819 8.25645e-21)
(1.04862 -0.0265026 -1.08604e-21)
(1.04894 -0.0273483 1.31201e-23)
(1.0102 0.00139805 0)
(1.0102 0.00140065 -4.47529e-22)
(1.01008 0.00130982 0)
(1.11638 0.0063873 -8.82485e-21)
(1.07002 0.0209405 3.23377e-21)
(1.04932 0.0444779 -9.32741e-21)
(1.01571 -0.000321996 -1.74172e-22)
(1.01608 -0.000870333 5.97148e-23)
(1.0167 -0.000315675 2.05176e-22)
(1.00528 -0.000130996 -2.00811e-22)
(1.00508 -0.000130495 -8.11978e-23)
(1.0058 -0.000141232 0)
(0.738258 0.139837 1.01163e-20)
(0.724056 0.0742934 2.2093e-20)
(1.01547 -0.00129751 3.92292e-22)
(1.01462 -0.00114801 -9.0924e-23)
(1.00857 -9.26783e-06 -1.3106e-22)
(1.00868 1.18353e-05 -5.48632e-23)
(1.00857 4.5071e-06 -3.27162e-22)
(0.0187878 -0.254667 -5.83648e-21)
(0.0034398 -0.263289 -2.13303e-21)
(0.0258431 -0.255327 9.7726e-21)
(1.01514 -0.00498173 1.01792e-22)
(1.01519 -0.00566361 1.86298e-23)
(1.01151 -0.00113744 -3.02453e-22)
(1.01148 -0.00124616 -6.94005e-23)
(1.0112 -0.00108105 -3.89005e-22)
(1.00858 -2.05528e-05 3.48624e-22)
(1.00846 -2.10784e-05 0)
(1.01206 0.00859969 -2.65582e-21)
(1.01536 0.00307166 9.95426e-22)
(1.01787 0.00930278 2.2926e-21)
(-0.01548 -0.208024 4.79854e-21)
(-0.0297612 -0.214474 -1.10776e-21)
(1.04749 -0.0180989 -2.22506e-21)
(1.00682 -0.000344598 5.07454e-22)
(1.00592 -0.000188706 5.62468e-23)
(1.00736 -0.000447527 -1.17488e-22)
(1.03736 -0.0301956 2.11095e-21)
(1.0365 -0.0307415 -4.34481e-22)
(1.03755 -0.0313793 -1.8368e-22)
(0.260653 -0.232274 -5.54607e-21)
(0.300956 -0.231229 -5.35117e-21)
(0.301966 -0.223116 -1.02938e-21)
(1.01448 0.00368092 -9.01772e-23)
(1.01457 0.00358697 2.65839e-24)
(1.00555 -0.000197723 6.28071e-23)
(1.00574 -0.000187211 4.43698e-23)
(1.00619 -0.00018295 -7.65768e-23)
(0.886363 -0.0019606 -6.92687e-21)
(0.849286 -0.0318399 -1.47177e-20)
(0.864859 -0.086674 -4.00494e-22)
(1.01426 -0.000327283 6.0766e-22)
(1.01499 -0.000381263 2.28554e-22)
(1.01443 -0.000725447 1.10363e-22)
(1.10968 0.0113026 2.68569e-21)
(1.11873 0.0155721 1.3212e-22)
(1.11657 0.00487301 -5.48852e-22)
(1.02808 -0.0422349 -1.15816e-20)
(1.03085 -0.0430141 -5.45686e-21)
(1.02398 -0.000645169 -6.67221e-22)
(1.0248 0.00100085 6.24243e-22)
(0.98036 0.16866 9.98393e-21)
(0.959118 0.197885 -3.58246e-21)
(0.978033 0.186181 4.07264e-21)
(1.05068 -0.0300851 2.21283e-21)
(1.05104 -0.0305854 4.90259e-21)
(1.05019 -0.0305528 4.3227e-21)
(0.710794 0.122043 -8.42796e-21)
(0.739317 0.204069 0)
(0.0370323 -0.246233 -2.80687e-20)
(0.0105905 -0.252744 -1.77032e-20)
(1.05487 -0.0386883 -1.70179e-21)
(1.0562 -0.0394041 9.91053e-21)
(1.0546 -0.040272 4.86709e-21)
(0.641868 -0.200612 2.58895e-22)
(0.615829 -0.210414 -2.76199e-21)
(1.01749 -0.00155414 9.00073e-23)
(1.0225 -0.00146741 -5.85621e-23)
(1.02021 -0.0062553 1.77025e-22)
(1.01084 0.0704366 -2.97657e-23)
(1.01188 0.0584713 2.2052e-22)
(0.486934 0.270921 3.174e-22)
(0.531117 0.260049 2.66402e-22)
(0.514068 0.248887 2.31368e-21)
(0.0207014 -0.191301 6.5333e-21)
(0.0400761 -0.19323 -9.21468e-21)
(0.0452541 -0.182122 5.5451e-21)
(-0.0651732 -0.251733 -2.4821e-21)
(-0.0634166 -0.249042 0)
(-0.0606901 -0.258194 0)
(1.02647 -0.0036012 1.68856e-21)
(1.02689 -0.0036053 -7.13164e-22)
(1.02676 -0.00393352 -3.45646e-21)
(1.00889 -0.0161152 -5.51798e-22)
(1.00844 -0.0145208 -4.68345e-22)
(1.00724 -0.0156181 3.82197e-22)
(0.937151 0.103833 1.07103e-21)
(0.950846 0.0978791 4.99372e-21)
(0.781377 -0.351024 -2.84574e-21)
(0.769321 -0.338707 -1.26615e-21)
(1.04365 -0.0432978 -7.82555e-21)
(1.04575 -0.0437942 -8.31368e-21)
(1.00711 0.0129186 3.62312e-22)
(1.00662 0.00599014 -2.48355e-21)
(0.988001 -0.048773 6.64809e-22)
(0.984136 -0.0508941 1.45257e-21)
(0.984635 -0.0462271 6.29116e-23)
(1.01042 0.0829996 -3.04194e-22)
(0.714475 0.407846 1.2317e-21)
(0.725964 0.405182 -7.4848e-22)
(0.753841 0.413588 -2.50729e-21)
(1.00917 -2.02625e-05 4.55815e-23)
(1.00926 -3.65067e-05 5.05702e-22)
(1.00919 -5.52284e-05 1.11572e-21)
(0.121102 -0.28545 8.0273e-21)
(0.0967978 -0.28552 3.51517e-21)
(0.123777 -0.281928 -2.88095e-21)
(0.594849 -0.205484 -4.81668e-21)
(0.659617 -0.190149 -3.00092e-21)
(0.848646 -0.203451 2.12026e-22)
(0.84349 -0.19134 1.00911e-21)
(0.833812 -0.202032 9.78319e-22)
(1.01038 0.00173138 5.50622e-22)
(1.01046 0.00179819 6.7977e-22)
(1.01049 0.00197187 -1.16459e-22)
(1.00915 1.46383e-05 -1.47953e-22)
(1.00907 -6.33366e-06 -8.72148e-22)
(0.577065 0.366098 -2.70718e-21)
(0.60374 0.379412 -3.91122e-21)
(0.542941 0.357409 -6.66499e-21)
(0.00192487 -0.199316 0)
(-0.00247491 -0.211206 8.18505e-21)
(0.960586 0.108787 -4.75058e-21)
(0.961411 0.156564 -2.18798e-21)
(0.933172 0.154921 -8.41261e-21)
(-0.0350224 -0.271941 -8.33058e-21)
(-0.0353773 -0.265626 3.4129e-20)
(-0.0460831 -0.266749 2.54351e-20)
(1.00233 4.12323e-05 1.35431e-22)
(1.00171 6.42224e-05 1.5428e-24)
(1.03823 -0.0142417 6.15687e-22)
(1.04019 -0.0120534 -1.4765e-21)
(1.03688 -0.0110441 -1.12814e-21)
(0.897791 0.17832 2.96164e-22)
(0.902479 0.175429 -2.64901e-22)
(0.762033 0.201206 -4.65017e-22)
(0.771076 0.235766 -7.86794e-21)
(1.01103 -0.00356471 -2.42337e-23)
(1.01113 -0.00365727 -2.9906e-23)
(1.01108 -0.00362639 0)
(1.01416 -0.00476378 -2.63667e-23)
(1.01437 -0.00492512 3.45762e-22)
(0.935882 -0.00131228 -3.35178e-21)
(0.930926 -0.00775895 -1.4653e-22)
(0.92836 0.00299775 1.90387e-21)
(0.89238 -0.107095 -6.72855e-22)
(0.91452 -0.109359 -7.01222e-22)
(1.03693 -0.00523182 1.94705e-21)
(1.03642 -0.00460092 -3.94071e-21)
(1.00967 0.00113749 2.52054e-22)
(1.00969 0.00117795 2.10472e-22)
(1.00955 0.00111448 1.87476e-22)
(1.01323 -0.006173 1.71933e-23)
(1.01348 -0.00671993 -1.35575e-22)
(1.01384 -0.00608812 1.7901e-23)
(1.00585 -0.0719791 -2.32017e-21)
(1.00177 -0.0698738 -4.32436e-22)
(1.04146 -0.00722518 1.26696e-21)
(1.04235 -0.00765724 0)
(0.442269 0.328105 -2.70212e-23)
(0.461125 0.316749 -1.21108e-21)
(0.46079 0.338782 0)
(1.01809 -0.00230471 5.5835e-22)
(1.01814 -0.002188 2.165e-21)
(1.01832 -0.00235084 3.02121e-21)
(0.939284 0.105044 4.47042e-22)
(0.941591 0.122977 -3.21395e-22)
(1.00976 0.0074128 -2.13988e-21)
(1.008 0.00603111 7.67818e-22)
(1.00749 0.00896967 -1.90528e-21)
(0.075954 -0.294696 5.85216e-21)
(0.0835532 -0.295805 5.13186e-21)
(0.871943 -0.160991 4.65842e-23)
(0.86126 -0.170588 7.50505e-22)
(0.856792 -0.155965 -1.05414e-21)
(-0.0677358 -0.245441 -1.03406e-20)
(-0.0631762 -0.255994 -1.7473e-21)
(1.01804 -0.00245652 -1.63943e-21)
(1.01786 -0.00227301 1.23431e-22)
(1.07219 -0.0503288 2.99651e-23)
(1.07456 -0.0470902 -5.64275e-22)
(1.0756 -0.0521166 -1.61484e-21)
(0.727367 -0.0732192 -1.23068e-21)
(0.708637 -0.0789755 -4.32381e-21)
(0.731819 -0.099499 -3.38362e-22)
(1.00971 0.00100106 1.33655e-22)
(1.00967 0.000976559 -2.27764e-22)
(1.00981 0.00104521 7.15712e-23)
(1.04053 -0.00798323 -1.08474e-21)
(1.04069 -0.00734567 2.23071e-22)
(1.03985 -0.00744342 -1.08481e-21)
(1.12803 0.0194894 1.98966e-21)
(1.14013 0.0230097 -3.16274e-22)
(1.13634 0.0112908 -6.27622e-22)
(1.02598 -0.00367417 3.95505e-21)
(1.02608 -0.00335675 2.92035e-22)
(0.107472 -0.290219 6.0282e-21)
(0.0722137 -0.292955 -2.56842e-22)
(1.0056 0.000164333 1.36959e-22)
(1.00625 0.00021105 -2.1151e-22)
(1.00555 0.000140321 2.11308e-23)
(1.01584 0.000812676 2.7411e-22)
(1.01506 0.000815491 -2.82313e-22)
(1.01544 0.00032722 -2.84516e-22)
(1.00615 0.0188406 4.38158e-22)
(1.00114 0.015375 2.79449e-21)
(0.914104 -0.0968401 -2.00898e-23)
(0.919527 -0.0903739 -1.93589e-23)
(0.908599 -0.0867016 -3.96535e-23)
(1.01309 -0.00180043 4.01146e-22)
(1.01295 -0.00170958 1.59517e-21)
(1.01307 -0.00166366 -7.68472e-22)
(1.01387 -0.002234 0)
(1.01374 -0.00229278 4.23067e-22)
(0.152869 -0.282035 -1.36585e-20)
(0.123955 -0.286888 -7.20354e-21)
(1.01003 -0.00173586 2.3767e-22)
(1.01012 -0.00180486 -2.20553e-22)
(1.01008 -0.00175823 -1.16502e-22)
(1.00895 -0.0177592 9.97201e-22)
(-0.0523482 -0.213205 7.88358e-21)
(-0.058499 -0.221367 -4.19401e-21)
(1.00412 8.25452e-05 3.23942e-22)
(1.00373 5.62038e-05 0)
(1.00475 0.000132946 0)
(1.0423 -0.0418559 -1.84878e-21)
(1.04095 -0.0404303 5.3592e-21)
(1.04031 -0.0429285 9.06316e-21)
(1.01625 0.00147699 1.97752e-22)
(1.01671 0.000823548 2.19853e-22)
(1.0134 -0.00117344 8.64795e-22)
(1.01346 -0.0014463 -2.39107e-22)
(1.01308 -0.00149794 -6.69146e-22)
(1.01436 -0.0139238 0)
(1.01427 -0.0146288 0)
(1.01376 -0.0141028 0)
(1.01347 0.00257494 -1.46738e-23)
(1.01325 0.00249829 -9.60982e-23)
(1.01356 -0.00078878 -7.91104e-22)
(1.01317 -0.000650093 -7.00949e-22)
(1.01336 -0.000649047 -8.9285e-22)
(1.04394 -0.040903 -1.1048e-20)
(1.00846 0.000333421 1.07429e-22)
(1.00827 0.000303818 -3.15909e-23)
(0.955898 0.191711 0)
(0.974038 0.16947 0)
(0.966767 0.184991 0)
(0.75101 -0.0652018 -3.81851e-21)
(0.725517 -0.0459233 -6.21168e-21)
(1.01097 0.00116424 -2.47934e-22)
(1.01079 0.000985475 1.59774e-22)
(1.01105 0.0010394 -2.83973e-23)
(1.05031 -0.0296842 1.36275e-21)
(1.05086 -0.0296401 -6.63904e-21)
(1.00295 0.0256643 -1.99191e-21)
(1.01183 0.0230929 3.56516e-22)
(0.909816 -0.103171 -2.67795e-21)
(0.92022 -0.105119 2.50763e-21)
(0.885239 0.0448212 -7.98921e-21)
(0.886637 0.0721053 1.40543e-21)
(0.885441 0.0423946 1.06384e-21)
(0.965834 -0.0684045 -1.91517e-21)
(0.965112 -0.0757871 0)
(1.03261 -0.0833882 -1.67096e-20)
(1.02896 -0.0830404 -2.64315e-21)
(1.0307 -0.0869891 3.28426e-21)
(0.664037 0.397358 1.89048e-21)
(0.696196 0.405929 -2.56147e-21)
(1.00993 -0.00167459 4.94153e-22)
(1.00998 -0.00171151 2.9661e-22)
(0.842636 0.0178684 4.27957e-21)
(0.898767 0.0316312 -1.4811e-21)
(1.05357 -0.038098 -8.58522e-22)
(1.05476 -0.0373246 -5.41906e-21)
(0.78185 0.20418 -1.0663e-21)
(0.753913 0.167203 -9.25608e-22)
(1.00466 -0.000125446 2.09573e-22)
(1.0055 -0.00016641 1.37895e-22)
(1.01071 -0.00169752 2.4455e-22)
(1.0106 -0.00158959 2.10029e-22)
(1.01062 -0.00170495 -4.04512e-22)
(1.01119 0.00138655 -2.03432e-22)
(1.01088 0.0012822 -3.01947e-22)
(1.0057 -0.0922703 -2.71037e-22)
(1.00937 -0.096712 -2.03883e-22)
(1.00289 -0.0974529 8.01175e-22)
(-0.00727183 -0.302834 -2.68869e-21)
(-0.0199519 -0.301619 1.81002e-20)
(-0.0136192 -0.300948 1.18394e-20)
(1.15197 0.027509 4.65949e-23)
(1.16094 0.0326542 0)
(1.16193 0.0177971 -1.35251e-21)
(1.0247 -0.0124133 3.63062e-22)
(1.0242 -0.0126768 2.65814e-22)
(1.02423 -0.0120139 -1.76747e-21)
(1.01403 -0.00231363 7.77705e-22)
(1.01406 -0.00248799 2.62375e-22)
(1.01423 -0.00240713 6.79196e-22)
(1.00827 -0.0877319 6.41875e-23)
(1.00224 -0.0881121 0)
(1.1024 0.00688954 1.06725e-21)
(1.09488 0.00259556 -2.69197e-22)
(1.10064 -0.00220575 -2.34048e-23)
(1.00302 3.53908e-05 -7.63094e-24)
(1.00398 7.83674e-05 2.21122e-22)
(1.00338 5.75701e-05 3.41867e-22)
(0.467803 0.294255 5.78679e-22)
(0.449741 0.279189 -7.29649e-22)
(1.04406 0.0942006 0)
(1.01341 0.102741 0)
(1.04412 0.0877788 0)
(1.01087 -0.00166624 1.63645e-22)
(1.01077 -0.00168686 3.93406e-22)
(1.01076 -0.00156467 -1.29185e-22)
(1.00751 -0.000772672 7.92979e-23)
(1.00758 -0.000809506 7.90294e-23)
(1.0075 -0.000780216 1.69475e-22)
(1.00987 0.00241832 -1.84692e-22)
(1.01014 0.00257257 2.92858e-22)
(1.01006 0.00214203 4.28174e-22)
(1.0119 -0.00388884 -7.81337e-23)
(1.01204 -0.00401021 -5.05634e-23)
(-0.0175356 -0.276383 -2.36957e-20)
(-0.0345208 -0.278704 -1.64982e-20)
(1.01211 -0.00117577 2.85349e-22)
(1.0124 -0.00115448 1.4606e-22)
(1.01199 -0.00102923 2.44406e-22)
(0.955713 0.0687986 4.66521e-22)
(0.944815 0.0583589 -8.72353e-23)
(0.948369 0.079345 3.57666e-23)
(1.01143 0.00162043 1.59622e-22)
(1.01152 0.00143506 3.6135e-22)
(1.00561 0.000110246 -1.56575e-24)
(1.00651 0.000136146 0)
(1.00539 8.72368e-05 -5.18288e-23)
(1.0857 0.0790109 7.15555e-22)
(1.11801 0.0687358 -4.21004e-22)
(1.07679 0.0852977 -1.54771e-21)
(1.01032 0.00154402 9.31866e-23)
(1.01027 0.00136462 3.12657e-23)
(1.01028 0.00144042 -2.46425e-22)
(0.662448 -0.00604359 -3.57687e-21)
(0.655207 -0.0207863 -8.22498e-21)
(1.01428 -0.00088149 1.54543e-22)
(1.01412 -0.000759684 0)
(1.01415 -0.000879946 0)
(0.818895 0.240831 -7.62013e-21)
(0.827958 0.198733 -1.00675e-20)
(1.02016 0.00200977 -6.86893e-23)
(1.02152 0.00300257 1.26251e-22)
(1.0088 6.10847e-06 6.71146e-23)
(1.00877 2.39144e-05 3.3067e-22)
(1.01096 -0.00177199 2.69954e-22)
(1.01096 -0.00166446 -6.14634e-22)
(1.069 -0.048108 9.09981e-22)
(1.06927 -0.0524095 1.0386e-21)
(0.98158 -0.281782 0)
(0.993858 -0.275476 -1.14716e-21)
(0.993773 -0.295512 -9.36426e-22)
(0.96735 -0.291143 0)
(0.968363 -0.273416 0)
(1.00889 4.28638e-07 2.58625e-22)
(1.00881 -1.19958e-05 0)
(1.10323 0.016594 7.41947e-22)
(1.02727 -0.00378511 1.22352e-22)
(1.02712 -0.00341641 1.3446e-21)
(1.01326 -0.00568464 0)
(1.01317 -0.00566219 0)
(1.01334 -0.00580915 0)
(1.09525 -0.0239314 -1.48889e-20)
(1.0833 -0.0010306 2.05223e-20)
(1.14461 -0.0436509 8.06659e-21)
(0.432527 -0.104532 0)
(0.481455 -0.091538 2.14089e-21)
(0.432986 -0.089557 1.96722e-21)
(1.01335 -0.00571251 -3.66813e-23)
(1.01319 -0.00557087 0)
(1.00968 -0.00151564 -2.9611e-22)
(1.00975 -0.00156174 -4.00097e-22)
(1.00974 -0.00151259 7.36787e-22)
(1.01307 0.00379514 -6.10601e-23)
(1.01257 0.00391707 -6.50183e-23)
(1.01271 0.00314318 1.79922e-22)
(1.01448 -0.0133563 0)
(1.0149 -0.0138041 0)
(1.04046 -0.0254412 -9.55711e-22)
(1.04041 -0.024757 -3.78241e-21)
(1.04118 -0.025064 1.76371e-21)
(1.00866 0.000355472 1.47555e-22)
(1.00894 0.000397745 5.13123e-23)
(1.01333 -0.000856658 1.06959e-21)
(1.01381 -0.00076742 4.56686e-22)
(1.03632 -0.0132135 -1.95353e-21)
(1.03687 -0.0138679 2.04564e-21)
(1.00745 -0.000736639 0)
(1.00752 -0.000765341 -1.65997e-22)
(1.00548 -0.000200636 4.45374e-22)
(1.00697 -0.000275572 -1.69174e-22)
(1.00595 -0.000213004 -1.80801e-22)
(1.01464 -0.00212089 2.35284e-22)
(1.01448 -0.00217999 1.20852e-21)
(1.01449 -0.00199222 1.21878e-21)
(0.557265 -0.210366 -4.30318e-21)
(0.568088 -0.201936 0)
(0.51307 -0.214105 3.7604e-21)
(1.01641 -0.00452101 -9.99332e-22)
(1.0096 -0.00147166 -6.5884e-23)
(1.00962 -0.0015001 -7.1688e-23)
(1.01082 0.000998797 -6.20979e-24)
(1.01074 0.00101233 -3.83486e-24)
(1.01071 0.00094244 -8.35079e-24)
(1.0902 0.00724972 -7.70573e-22)
(1.08933 -0.00091631 3.34122e-22)
(1.00798 -0.00096462 1.14782e-22)
(1.00799 -0.000959223 6.87582e-23)
(1.00806 -0.00101289 1.01997e-24)
(1.00791 -0.000915497 -9.55759e-23)
(1.00273 5.26557e-05 1.29857e-22)
(1.00201 -2.86386e-05 -6.71451e-24)
(1.03597 -0.00685827 -4.22936e-21)
(1.03663 -0.00680762 -1.05449e-20)
(1.03649 -0.00736771 -1.21306e-21)
(1.01028 0.000742958 -1.89192e-22)
(1.01038 0.000642523 -4.00952e-22)
(1.00504 8.61925e-05 4.66577e-22)
(1.00466 7.95521e-05 2.04058e-22)
(1.00539 8.1531e-05 -1.24744e-23)
(1.00383 3.25767e-05 0)
(1.00333 4.32696e-05 -4.38424e-24)
(1.00427 3.79375e-05 6.00915e-23)
(1.00923 0.00309896 6.25941e-22)
(1.00885 0.00349609 2.86839e-23)
(1.00873 0.00263649 3.03622e-22)
(0.883756 0.0141183 -1.01167e-21)
(0.885628 0.0515018 -7.08022e-21)
(1.00955 -0.000409669 7.67869e-22)
(1.00773 -0.000328808 6.88912e-22)
(1.00614 0.000138969 2.38586e-22)
(1.00558 9.51174e-05 7.07376e-23)
(0.11114 -0.222889 -1.38868e-20)
(0.0789993 -0.235677 -1.36403e-20)
(0.0859947 -0.232142 8.94112e-21)
(1.04564 -0.0159328 -4.94874e-21)
(1.04582 -0.0151947 -2.10591e-21)
(1.04494 -0.0154535 2.84552e-21)
(1.00507 5.65798e-06 1.18362e-24)
(1.00539 -1.62717e-05 7.16126e-22)
(1.00461 1.56669e-05 -3.84484e-22)
(1.00482 3.91748e-06 0)
(1.00552 1.75172e-05 -3.93168e-22)
(0.894918 0.283513 -1.82039e-21)
(0.899616 0.285889 2.24784e-21)
(0.899158 0.280352 5.80915e-21)
(1.05715 -0.00901189 0)
(1.05649 0.000365039 0)
(1.05253 -0.00612511 0)
(1.00965 0.00111102 -1.43213e-22)
(1.00975 0.00117089 2.2337e-22)
(1.01523 0.0164468 0)
(1.0146 0.0139291 0)
(1.01737 0.0144568 -2.04547e-22)
(0.893464 0.099479 -4.87404e-22)
(0.893586 0.118099 6.21443e-22)
(1.01197 -0.0022834 -8.98864e-22)
(1.01146 -0.00203792 2.48013e-22)
(1.02856 -0.0574006 8.02033e-22)
(1.02845 -0.0659363 -6.86012e-22)
(1.01477 -0.00206413 0)
(1.01478 -0.00224448 7.09588e-22)
(0.955735 -0.299477 2.23735e-21)
(0.943253 -0.290039 -5.25849e-23)
(0.94262 -0.307599 4.71857e-21)
(1.11977 0.0267962 1.50105e-21)
(1.07617 -0.0176732 -1.16847e-22)
(1.07469 -0.013906 -1.81761e-22)
(1.07931 -0.0160541 5.75952e-22)
(1.03984 -0.0212401 2.87067e-21)
(1.03781 -0.0205053 1.54591e-21)
(0.876492 -0.139713 -2.15729e-21)
(0.912309 -0.12915 -1.3013e-21)
(1.01029 0.00145206 -1.5499e-24)
(1.01043 0.00149003 0)
(1.01026 0.00140916 1.28473e-22)
(0.904179 0.294531 -9.45219e-21)
(0.908423 0.305484 -3.93232e-21)
(0.897706 0.302853 -1.11497e-21)
(1.00058 0.032606 0)
(1.00734 0.0386611 -6.78341e-22)
(0.99686 0.0422646 5.66452e-21)
(1.00685 -0.000285362 9.02546e-23)
(1.00624 -0.000255722 -1.17289e-23)
(1.00612 -0.00023336 -2.98093e-25)
(1.0727 -0.0190009 -3.92829e-22)
(1.07689 -0.0212417 -4.64388e-22)
(0.99124 -0.0516245 -1.3934e-21)
(0.991619 -0.0473068 -8.79372e-22)
(0.581214 0.245673 -9.03574e-22)
(0.548915 0.268601 -7.81386e-22)
(1.01039 -0.00204417 1.27493e-22)
(1.0105 -0.00213695 -2.69869e-22)
(1.01042 -0.00214585 -6.55822e-24)
(1.01015 0.00142049 -1.05045e-22)
(-0.042639 -0.214248 -4.29512e-21)
(0.908655 0.163125 0)
(0.90663 0.149957 -5.46315e-22)
(1.00874 -0.00123984 3.20708e-22)
(1.00883 -0.00126419 0)
(1.00884 -0.00127625 -1.3783e-22)
(-0.00925029 -0.270312 1.16458e-21)
(-0.0192581 -0.277826 2.7098e-20)
(-0.00409893 -0.271169 1.35173e-20)
(1.01048 -0.0836394 3.05893e-22)
(1.00732 -0.0798839 1.13999e-22)
(1.01248 -0.0796838 2.5468e-22)
(1.02591 -0.00752767 -4.777e-22)
(1.02573 -0.00561356 6.69143e-22)
(1.02811 -0.00659221 -4.68613e-22)
(0.186029 -0.233014 0)
(0.224974 -0.233708 -3.58713e-21)
(0.218098 -0.225146 -2.26664e-21)
(1.01028 -0.00195644 2.51998e-22)
(1.01037 -0.00194109 -1.23692e-23)
(1.0103 0.00167082 2.64159e-22)
(1.01438 -0.000856039 1.50061e-22)
(1.01436 -0.000972544 -8.89874e-24)
(1.00517 -2.60408e-05 -4.66977e-22)
(1.00454 -4.55797e-05 -1.98157e-22)
(1.01528 -0.00890988 5.40892e-23)
(1.01521 -0.0086831 -1.01405e-22)
(1.01519 -0.00895288 -1.82858e-22)
(1.01765 -0.00130842 2.55306e-23)
(1.0166 -0.00147068 4.47912e-24)
(1.01708 -0.00076618 -1.08616e-22)
(1.02916 -0.0186854 0)
(1.02915 -0.0178072 -4.53226e-22)
(1.01022 -0.00187548 -1.03089e-22)
(1.01033 -0.00195541 -2.8844e-22)
(1.01028 -0.00192447 2.76951e-22)
(1.01539 -0.00915373 -7.86489e-23)
(1.01536 -0.0088699 5.74876e-22)
(1.02546 -0.0119909 -1.23073e-21)
(1.02509 -0.0122773 2.9486e-21)
(1.02572 -0.0123748 1.88498e-21)
(0.610522 -0.0248291 -2.23566e-21)
(0.575787 0.0409458 4.0299e-21)
(0.891411 0.279822 -4.52069e-21)
(0.889934 0.28416 4.33283e-21)
(1.0138 -0.000354652 2.07226e-22)
(1.01419 1.93074e-05 4.22852e-22)
(0.906816 0.286097 -2.65886e-21)
(0.959524 -0.20322 4.04891e-21)
(0.980144 -0.192841 -5.37228e-21)
(1.00866 -0.00121717 4.25051e-22)
(1.00864 -0.00121228 -2.86653e-22)
(1.05315 -0.0268863 -7.65349e-21)
(1.05269 -0.0264667 4.34854e-21)
(1.05327 -0.0263448 2.88116e-23)
(1.05722 -0.0184175 -3.6338e-22)
(1.06196 -0.0127558 4.51005e-22)
(0.977194 -0.14167 -5.72199e-21)
(0.981005 -0.14654 -8.16774e-22)
(0.983198 -0.140554 3.35496e-21)
(1.02316 0.104275 -2.35389e-22)
(1.00145 0.139021 1.06094e-20)
(1.02246 0.125355 -4.65198e-21)
(1.1604 -0.0391128 -6.77084e-23)
(1.15864 -0.0280695 -6.59182e-23)
(1.14951 -0.0370313 1.83818e-21)
(1.01822 -0.00201049 0)
(1.01796 -0.00196903 0)
(-0.039499 -0.284563 0)
(-0.0405182 -0.289588 0)
(-0.0447298 -0.285195 -3.39277e-20)
(0.831916 0.273839 2.36748e-21)
(0.845419 0.292646 -1.31639e-20)
(0.852971 0.281109 0)
(1.02085 0.00951272 1.34391e-21)
(1.01946 0.0118242 2.1122e-22)
(1.02247 0.0122892 1.45953e-21)
(1.02577 -0.0117261 -2.56501e-21)