/*--------------------------------*- C++ -*----------------------------------*\
| =========                 |                                                 |
| \\      /  F ield         | OpenFOAM: The Open Source CFD Toolbox           |
|  \\    /   O peration     | Version:  v2012                                 |
|   \\  /    A nd           | Website:  www.openfoam.com                      |
|    \\/     M anipulation  |                                                 |
\*---------------------------------------------------------------------------*/
FoamFile
{
    version     2.0;
    format      ascii;
    class       volScalarField;
    location    "350";
    object      ddt0(omega);
}
// * * * * * * * * * * * * * * * * * * * * * * * * * * * * * * * * * * * * * //

dimensions      [0 0 -2 0 0 0 0];


internalField   nonuniform List<scalar> 
10042
(
2.25267e-06
1.51453e-06
2.36309e-05
3.83379e-05
0.247439
1.47565e-06
-0.443734
-0.193402
1.20686e-05
9.04048e-06
-0.359112
3.91495e-05
2.43293e-05
2.79529e-05
-3.23782e-05
2.56267e-06
2.81128e-06
2.99014e-06
2.31623e-06
-0.000846961
1.14905e-05
0.336532
2.88707e-05
1.87239e-05
9.8069e-07
4.17685e-05
1.10231e-06
-2.74924e-05
-6.88123e-07
-1.74436e-05
5.03753e-07
-0.153423
9.1525e-06
-9.31596e-06
-2.6628e-05
1.93602e-05
1.56075e-05
0.000147901
1.70929e-05
-0.000154071
-0.000495905
-3.33345e-05
-0.422238
-8.06268e-06
0.279493
-0.000649603
-1.66203e-05
0.00107578
-9.11249e-06
0.00097037
9.2564e-06
0.000109397
-2.34938e-05
0.000162894
2.16747e-05
1.08462e-06
-3.27397e-08
-1.08039e-05
-1.22629e-05
-2.38528e-05
3.07984e-06
1.68177e-06
-3.78132e-05
2.03659e-05
-5.50982e-06
-4.84431e-06
-3.86538e-06
-0.000388536
-0.404592
-3.52612e-06
0.000161735
-0.0108411
-8.87988e-06
-6.66521e-05
-1.9916e-06
2.02529e-05
0.204505
3.48221e-06
-7.67332e-05
-0.38053
3.06787e-05
0.335487
-9.0056e-06
-2.58278e-05
-2.97394e-06
1.34016e-06
3.66456e-06
-0.00864737
-2.81144e-06
3.28442e-06
9.7827e-06
0.324069
-2.69813e-05
9.72002e-05
-1.73046e-05
-3.33734e-06
4.13383e-06
-3.93603e-06
-0.000160266
3.72905e-06
4.08418e-10
-0.00525098
-0.335042
2.14646e-06
-2.33657e-05
-0.00155793
3.1974e-06
4.78382e-06
1.16841e-05
1.33097e-05
3.01539e-05
-6.10754e-07
-9.31448e-05
-0.606418
-4.9919e-06
1.15459e-06
4.36164e-07
3.52075e-06
-3.12666e-06
0.0902861
-2.70464e-06
-0.319545
-1.04402e-05
-1.32722e-07
-0.00537149
-8.41287e-06
-0.165638
-0.000110026
-0.00152249
3.32845e-06
-9.54571e-05
-4.12064e-06
-0.261599
-0.00862201
3.16324e-06
-0.00126984
-0.17615
1.09676e-05
-0.0014877
-0.0114717
-1.80822e-05
1.81727e-07
-1.79306e-05
-0.0101305
5.44722e-05
-3.37622e-07
-0.00129774
1.43372e-05
-5.2959e-06
-9.19901e-05
1.39967e-05
3.22964e-06
-0.112072
-0.111184
1.10673e-06
2.40243e-05
-3.98215e-06
1.58286e-06
-0.00136272
0.113277
-0.605156
-0.00682207
1.00899e-06
1.44871e-05
-1.23774e-05
-3.54868e-06
-0.000826457
0.615335
-0.275567
-0.0200007
0.000115355
6.26526e-06
0.0991855
-0.012095
-0.000208387
-0.423337
-2.77305
-7.98342e-06
-0.0014171
-0.000223605
-4.43669e-06
0.118398
-7.35192e-06
-0.000118797
-2.90975e-05
0.311093
-0.0104082
-4.89156e-07
-0.953648
2.24791e-05
-0.0179433
-1.9312e-05
-0.12196
-0.105871
-0.00403627
-0.23141
7.72115e-05
2.57935e-06
2.5719e-05
-2.23281e-05
-0.000151977
-2.15275e-06
-8.31097e-07
-0.064858
-3.53669e-06
4.68345e-06
0.320443
1.05477e-06
3.01565e-06
5.40748e-06
-1.17917
2.56737e-05
-0.00064938
-0.0204294
-5.78168e-06
-0.0158284
-1.65884e-06
6.57062e-06
-0.00222435
4.75134e-06
-9.15749e-05
-8.06637e-06
-0.0379532
0.000147647
-4.81238e-05
4.84768e-05
0.49082
2.49047e-07
-0.0102109
0.000192016
1.22086e-05
0.0290456
6.31017e-06
0.000189699
2.55203e-05
-8.98417e-05
4.31515e-06
2.63969e-05
6.60414e-05
0.000428293
1.39837e-07
-1.00927e-05
-1.02792e-05
-9.59984e-05
1.40714e-06
2.12369e-06
2.86344e-05
-2.70409e-05
0.000136084
1.83199e-06
2.6687e-05
-2.91023e-06
-6.65387e-05
0.389388
-0.00701118
-1.14855
-0.000220123
-0.000206056
-4.11231e-05
-0.000975552
-0.527769
6.21829e-05
3.15513e-06
2.58324e-05
-2.3226e-05
5.76745e-06
0.683124
0.000138704
3.3709e-06
5.3027e-06
-0.000161271
0.000141645
-0.00297151
-0.000247566
-0.0111098
1.40731e-05
0.000420714
5.77347e-06
0.000159278
5.43643e-05
-0.000282765
1.482e-06
3.14637e-05
-0.245724
6.80367e-06
1.49336e-05
-0.529894
-0.000903903
-4.04923e-06
2.68016e-06
-6.74551e-05
-0.430156
-0.00144019
-0.0108268
8.28687e-06
2.58367e-05
9.90241e-08
1.16014e-05
0.300488
1.65147e-06
1.8867e-06
5.03051e-06
-1.67781e-06
0.000296134
-5.07796e-05
-0.00228811
-0.364589
-2.00023e-05
-0.363917
1.76501e-06
0.000152461
1.14252e-06
-0.41558
-0.00558574
0.889062
-3.67498
1.60392e-05
0.00014722
-4.11588e-06
-6.19875e-05
3.44581e-05
2.00959e-06
-0.000171747
2.92428e-05
2.68941e-05
-1.05695e-05
-0.0025054
8.88818e-08
1.98267e-05
-2.44466e-06
-3.7304e-05
-1.31382
1.83049e-06
1.07924e-06
1.52266e-05
2.10511e-05
-0.000495284
-0.00382484
-0.000214857
-0.248883
0.000275638
-5.2948e-05
-3.25829e-06
2.75999e-05
1.73133e-05
1.56391e-06
0.945413
-7.53834e-07
-8.18918e-06
0.00778618
-4.89193e-07
-7.32135e-05
-2.71757e-05
0.0137356
3.62596e-05
-5.72087e-05
-0.000489422
-0.000127645
-1.5903e-05
1.66193e-06
-0.290475
-0.00137885
5.25968e-05
-0.000445842
7.07588e-06
6.68097e-06
6.24594e-06
-5.36387e-05
-0.632211
0.000268073
1.39944e-06
-2.41788e-05
-1.6274e-09
9.84211e-08
0.00226337
3.53283e-06
1.05436e-05
-0.128882
1.09915e-05
-0.495459
0.537678
-8.64613e-05
-0.374723
-1.44814
-0.000126533
-0.0159455
7.59112e-07
0.000791227
-1.08905e-08
-1.06482e-05
1.72748
3.97114e-06
-7.5537e-05
-0.161506
2.96419e-05
9.88316e-06
-0.000596235
0.211872
-3.87999e-06
1.44982e-05
-0.20028
-0.00556901
6.35681e-06
-0.00031004
0.469969
4.56976e-06
1.51918e-06
8.05905e-06
2.32701e-06
2.71302e-05
6.53831e-06
-0.331947
-0.375548
-1.19744e-05
-0.279864
2.99826e-05
1.89256e-06
-0.105053
3.94108e-05
-0.449513
-0.00169697
-2.37355e-05
1.36184e-05
1.52586e-05
-0.00826973
0.000125614
-0.000107499
-1.75421e-05
-0.371627
-4.92524e-06
-0.313062
-3.64626e-05
8.25216e-06
8.72589e-07
-0.47909
7.90354e-06
-2.06964e-05
2.79985e-07
3.15055e-05
0.416817
5.78165e-05
2.53488e-07
3.21088e-05
-0.311076
2.80281e-06
3.4247e-05
-2.33829e-05
5.71063e-06
-0.204676
-0.372029
1.04929e-05
-5.56842e-06
0.000262767
2.441e-05
3.1532e-06
-9.77292e-07
-0.314827
-9.31609e-07
2.64293e-05
-9.15932e-05
-0.160789
-0.00171991
1.7025e-06
-0.000173264
-0.5675
0.000374894
-1.18255e-06
1.70461e-06
-0.0088567
4.92095e-05
8.53748e-06
-3.44821e-05
1.58539e-05
7.34011e-06
-1.48883e-05
1.47696e-05
0.000231766
2.98634e-06
7.7706e-06
-0.407069
1.66004e-05
0.000114368
5.25364e-06
-1.85468e-05
-0.000262257
9.91014e-06
1.78477e-05
-2.0901
-1.95255e-05
-0.300593
5.89005e-05
1.923e-06
1.25422e-06
-0.0079399
-1.47426e-06
8.94041e-07
1.25244e-05
6.06788e-05
-8.78152e-05
-0.437455
3.12048e-06
0.000137803
-0.0741908
0.000378749
2.20049e-06
4.82997e-07
5.5449e-05
3.89802e-06
2.39054e-06
-0.00172986
-0.246144
3.89027e-06
-0.000103118
0.000359494
0.000300786
-2.13351e-06
2.76379e-05
0.991958
-0.00732989
0.0266862
1.17928e-05
5.65782e-05
3.31631e-05
1.11568e-05
-0.413168
-0.000203782
6.24132e-05
7.72033e-09
2.91585e-05
-1.64018e-06
0.3518
6.27293e-05
2.03554e-06
-0.343488
0.074416
0.152164
-0.00095737
3.13121e-06
2.30699e-06
0.00155637
-0.000973691
0.0381673
0.480045
-5.09416e-05
-2.77389e-05
3.43098e-06
2.92097e-05
-6.04577e-06
4.11044e-06
-0.527362
2.75663e-05
2.01387e-06
-0.00035802
2.73728e-06
1.01001
5.16115e-05
-0.00436274
-0.000134886
-3.8488e-07
0.000116762
-2.60152e-05
0.00111422
-0.000565603
-0.00144599
1.60592e-06
0.000936242
-1.75401e-05
-3.08209e-06
7.66838e-06
1.52575e-05
-4.71123e-07
-5.07946e-05
-0.00167664
-0.000137516
1.75113e-06
-1.99784e-05
1.40544e-05
1.80637e-06
-0.0466082
1.18524e-05
-2.84933e-05
-0.00758689
1.14931e-05
-0.00105372
0.00270467
1.90852e-06
0.363944
-0.000344172
1.56057e-06
-0.0315339
2.40335e-05
1.25836e-06
-2.12645e-06
1.04485e-07
-4.74184e-09
1.84921e-06
-1.87936e-06
-0.00995935
-2.75456e-05
5.05703e-07
-6.09868e-06
-0.000242139
-0.000186031
-7.62295e-07
0.000166699
2.21312e-06
0.000223227
-1.52798e-06
-0.000154372
9.78814e-06
-5.20403e-06
1.21743e-05
6.73056e-06
-0.407531
7.76006e-06
-0.0083792
-8.71967e-07
8.88638e-05
1.66209e-05
-1.25239e-05
5.07908e-06
-0.000492968
-1.80533e-06
-0.0151217
3.58456e-07
-0.484841
1.45214e-05
-4.15715e-05
1.05004e-06
-1.72777e-06
5.92198e-06
5.91849e-07
-4.12025e-07
-0.00026663
0.0463528
1.93515
8.76087e-05
-0.000195629
-8.9363e-07
-0.000394108
-0.00068325
9.4479e-06
-8.43151e-05
-0.00151341
0.04745
0.00267032
-1.24965
-4.79846e-05
-1.17503e-05
2.06027e-06
0.000173854
1.58628e-05
0.0010129
1.95337e-05
-1.77789e-05
-0.0066868
3.09454e-06
1.17346e-06
0.000174755
-0.210655
-3.9038e-05
-0.000282592
0.001522
-1.21802e-06
-0.370621
1.44063e-05
5.29855e-06
-1.86564e-05
1.24876e-05
-0.3793
-0.000300593
-0.157962
1.51189e-05
11.0202
0.921269
-0.109548
0.000905594
-0.000871083
-0.0105086
-0.000535391
-1.57884e-06
-1.63568e-07
-6.05031e-05
-0.477928
-5.583e-07
-0.000151477
-0.210764
2.68747e-06
6.04199e-06
-4.32058e-06
-2.11189e-05
6.54673e-06
4.30775e-05
-0.00699028
-0.144648
3.82932e-05
5.59822e-06
-0.270087
-0.0970261
-8.54486e-07
-1.27824e-06
9.03613e-06
2.52933e-06
-0.0675938
-0.000236717
-0.0035479
-2.19201e-05
6.15946e-06
1.65303e-05
-2.8756e-06
2.86114e-06
9.4134e-05
-1.7739e-05
-0.369215
2.2264e-06
7.88798e-06
-0.0002099
-2.36259e-07
0.000600717
-0.000928079
0.00010008
-0.909593
-0.0553806
-1.47586e-05
1.90371e-06
-0.390095
-0.389618
-0.000335702
2.69975e-05
-0.265157
0.00177005
-2.04972e-05
-1.10921e-06
1.58442e-05
1.16078e-05
-0.0119267
7.9365e-05
0.00851886
1.56751e-06
-1.08851
-0.343673
1.28591e-07
3.17481e-06
-0.00101688
7.60795e-07
1.70907e-05
-6.5013e-05
-0.326292
0.0444697
-0.387176
9.49285e-05
-0.00110393
-0.000392241
1.68175e-05
2.98164e-05
2.00238e-06
-0.0290418
3.83913e-06
9.00672e-07
-0.00114949
-2.0378e-06
-0.0020714
1.07916e-05
9.19056e-08
2.82638e-05
1.90664e-06
-0.00728039
4.08657e-06
-2.33734e-06
-0.00047481
-0.000668392
-0.132452
1.45382e-06
-0.0044578
-0.063656
-0.330037
-2.34255e-05
-0.340344
0.666319
2.75254e-06
2.37721e-05
-2.99262e-05
-1.20653e-05
0.0587822
-1.74333e-05
6.84234e-06
2.90985e-06
-0.0929698
-0.000332035
9.39814e-05
5.49845e-06
-7.42314e-07
-0.000541886
1.6615e-05
2.82648e-05
0.000172056
-3.73473e-05
2.06999e-06
7.64827e-06
0.0805218
1.42647e-05
-3.1022e-05
-8.42266e-07
-1.58126e-05
-0.0099869
2.37054e-06
-3.34596e-05
-3.41243e-07
7.0803e-05
0.0885137
-1.98981e-09
-0.0457066
-8.72965e-05
0.0640258
2.94955e-05
-1.49623e-05
0.00024894
-0.00442173
-0.00042929
-1.72807e-05
-0.852654
-0.537148
-1.12511e-05
3.36934e-05
0.0303911
-5.73036e-07
1.70008e-06
6.01596e-06
1.85851e-06
-0.00119049
-1.49242e-09
-8.16968e-10
-0.000846861
-0.000103873
3.96964e-05
-0.000117449
-7.33224e-06
-0.316494
8.26678e-05
-0.00371925
2.2674e-06
-0.000368551
6.50949e-06
-0.112258
5.92861e-05
-0.431379
2.22044e-07
0.000328826
1.02249e-05
-1.37015e-05
-1.75613e-06
-0.00188982
-0.00016579
0.00114086
-0.632142
6.9065e-06
0.67926
0.000352486
1.90521e-06
-6.52326e-05
-0.000120647
-0.0299639
2.50759e-06
-8.59057e-05
-0.000520189
-1.60603e-05
-0.000159612
1.74118e-06
2.38994e-05
1.60707e-06
0.0217295
3.14687e-06
8.88643e-06
6.42085e-06
2.8767e-05
6.90255e-06
3.78086e-06
-1.9903e-06
3.78872e-06
4.10612e-07
-3.97118e-06
-6.13496e-05
-0.000114224
-1.07697e-06
0.0556087
-9.39916e-06
12.7984
-0.000131246
-0.0260578
-0.000330084
0.000313171
-0.288138
-0.000250701
0.0116551
-0.388454
-0.000484941
3.77419e-06
5.75975e-06
-2.35368e-05
-0.0105206
-4.24961e-06
-0.156897
-3.85348e-06
8.02515
-0.466732
0.00161822
5.07402e-05
0.135402
-0.759664
-9.06336e-06
-1.13605e-07
1.31831e-06
0.00016008
2.32695e-05
2.81576e-05
-0.00189405
1.90212
-5.78768e-07
-3.96678e-06
-3.30558e-06
0.0530949
0.00143939
1.61825e-06
-5.94626e-05
-0.00411808
-1.72614e-05
4.87771e-06
-0.189555
-1.61562e-05
1.70158e-06
-0.200909
-5.23675e-05
-1.52748e-06
-0.0635141
-0.315025
0.550677
2.48555e-06
-2.62537e-05
-0.252582
6.05758e-06
-6.58774e-07
3.36933e-07
0.000559319
1.73284e-06
1.19699e-05
0.000221654
-0.000220681
-0.00813274
4.32324e-06
-1.30214e-06
-7.8482e-07
-3.43661e-07
-2.42305e-05
1.98884e-05
-0.00832566
-0.000132876
-6.71435e-06
-9.33737e-08
6.26706e-06
9.89706e-06
6.83302e-06
-0.293279
7.11748e-05
1.4174e-05
3.77203e-06
-0.000157791
-0.0547581
-4.89102e-07
9.84101e-06
-8.52599e-07
1.49727e-05
-0.851419
0.00114426
3.23545e-05
1.5093e-05
-4.1287e-05
-0.00262918
1.14469e-06
2.40074e-07
-7.8884e-05
1.31805e-05
0.000180482
-1.86986e-05
-0.533882
-0.000148296
1.67152e-06
-5.83227e-05
0.0352234
-7.40907e-05
0.0112065
-7.57603e-05
-0.361893
9.7149e-07
6.48565e-05
4.31987e-05
-5.39241e-05
1.26897e-06
3.8747e-05
9.46196e-07
8.96834e-05
0.0107595
-0.00225343
-0.124887
4.41855e-05
1.38344e-05
-0.000178452
-8.42855e-06
-6.61844e-06
-0.522378
-3.49089e-05
-5.0609e-06
2.05086e-07
0.0359771
-1.76569
1.90825e-05
-1.05424e-05
-0.00337495
1.88976e-05
-8.96165e-07
-1.50372e-06
-0.00296513
7.48675e-06
0.000171682
0.248713
-1.80424e-05
7.75569e-07
-0.0670608
1.08622e-05
-0.00554344
2.5537e-05
-1.40931e-05
-0.000913491
-4.52862e-06
7.66399e-06
7.78491e-05
3.76756e-05
-0.454525
2.68639e-06
7.11668e-06
-0.00990777
-5.38873e-05
1.17013
-0.393432
-0.000634493
3.19442e-06
-0.0549407
2.6272e-05
-0.128598
1.39936e-06
-7.48025e-06
2.79684e-05
-0.346284
2.78323e-06
-1.86017e-05
9.97195e-07
2.62667e-05
-0.0414197
-0.000145281
-0.000996087
-3.5526e-06
7.06071e-06
-0.000284498
-0.000213963
7.069e-06
-4.39227e-05
2.12778e-06
-0.166251
-0.231878
4.2419e-06
-1.34472e-05
1.6049e-06
-0.11659
2.86082e-06
1.13625
-1.0479e-06
1.10587e-05
3.25181e-05
1.06461e-06
4.80945e-05
2.60206e-06
-7.17921e-07
-1.58548e-06
-0.090631
-0.00252042
-2.53269e-06
5.94977e-05
0.000142976
-0.00021575
1.45135e-05
-3.38734e-05
-7.02863e-06
-1.96959e-06
-1.03401e-05
0.000460954
1.35417e-06
1.0654e-05
-7.42368e-05
6.2175e-06
-0.00893191
9.58469e-08
-0.00329459
-8.14253e-06
1.36131e-06
4.00263e-05
0.00200202
5.63612e-05
6.25436e-06
7.11909e-05
-0.00194297
-1.94947e-05
5.73161e-06
-5.07468e-05
5.54169e-06
-0.429067
-0.0144516
-7.26813e-05
-0.428039
-7.31056e-06
4.43034e-05
-0.00436472
-0.000864935
0.000662467
-0.234747
0.000523016
-0.00109918
1.2515e-05
1.20456e-05
-4.13581e-06
-1.54427e-06
9.17945e-06
1.74944e-06
0.0533321
-8.55489e-06
-4.58746e-06
-0.00187049
2.06956e-06
-0.000385137
0.000357903
-9.28528e-05
-4.74152e-06
-0.000263754
1.06276
2.17705e-05
4.46279e-05
-0.0662021
-0.000225967
1.6359e-05
0.000516859
9.55049e-06
3.36997e-08
-0.429289
5.1746e-06
1.516e-05
-0.000948466
-8.69601e-06
0.000234933
3.69609e-06
3.98468e-06
-0.344251
-1.40891e-06
8.82007e-06
-3.51278e-05
1.65675e-06
1.42023e-05
3.84866e-06
-0.429419
-7.68831e-06
7.87777e-06
9.86236e-06
-0.00132874
-8.8522e-06
-4.43592e-05
-2.46561e-07
-0.000483336
-2.67951e-05
5.51647e-07
-2.26691e-05
-1.04557e-07
1.50377e-05
-0.00526529
-0.000536819
-0.000195607
-1.02566e-05
-0.000628531
-0.00225271
-3.22817e-05
-5.94465e-05
-2.54659e-05
-0.276865
-1.46933e-06
-3.92311e-06
1.18788e-05
4.74539e-06
-0.000267214
2.63114e-05
-0.154624
-0.285469
-0.325144
7.08139e-06
-2.78988e-05
-0.0011786
1.23323e-05
-0.000715036
-0.000323335
-1.74717
-0.00011241
-0.26532
-0.00227307
-0.0250796
0.0558243
-0.00015979
7.2556e-05
-7.41105e-05
-2.74371e-07
0.00462567
4.0916e-06
-7.55693e-05
3.98238e-06
-8.10104e-05
-1.96708e-06
-0.629724
-0.0517741
3.75909e-06
-0.228603
-0.0687011
0.210717
-0.000733703
-0.00223104
8.3806e-06
-0.225309
-6.81435e-06
-0.381636
-0.30913
3.49407e-06
-3.03338e-06
9.51789e-06
-3.6219e-05
0.000184835
-0.000412181
-0.00645793
6.12654e-06
-4.76864e-07
-4.94004e-05
2.57363e-05
1.07669e-05
-0.000140902
5.14332e-06
4.75834e-06
1.242
-0.00187708
1.90315e-06
-0.416522
0.000102501
-4.72163e-07
-6.16733e-06
-0.0257393
7.03972e-07
6.94411e-06
-0.00606623
-0.0110509
8.60753e-06
-5.88974e-05
-0.48867
-0.00141973
-0.327944
4.15581e-06
0.00875237
-0.246077
-0.221161
1.95274e-06
-9.71101e-07
-0.000269212
-8.96296e-05
-0.00028204
-1.54318e-05
-0.307648
-0.000963224
-0.00770058
-1.14006e-05
1.03875e-05
-0.279964
0.292899
2.2371e-06
4.91522e-07
-0.000243416
9.05196e-07
1.43541e-05
4.04637e-05
4.31466e-05
4.28842e-06
-8.36032e-05
-6.31809e-06
0.000114571
1.21395e-05
1.6534e-05
-0.115765
-0.00217484
-0.000382649
-3.46184
-0.00299284
8.47927e-06
-1.6172e-08
-3.44353e-06
1.64647e-06
-0.00812089
-9.26584e-05
6.44835e-05
-7.44859e-06
3.30694e-07
1.97089e-05
-0.000150176
1.42493e-05
-0.000378797
0.000128994
5.59867e-06
-0.0831355
-0.775329
5.54982e-06
-0.324865
-0.000239454
-0.00021214
1.74636e-07
7.84352e-06
0.857766
-0.00285855
9.77916e-06
5.53517e-06
-5.57593e-07
-5.09235e-05
1.87107e-06
0.0151467
1.50725e-05
1.7799e-06
-7.10082e-06
0.00120729
0.0130063
1.2709e-05
-1.82924e-06
-0.0067134
0.100997
-4.58549e-05
-0.356587
-0.339667
3.82168e-05
7.28275e-06
-9.47297e-06
-3.04555e-05
0.0539434
8.91236e-07
1.72628e-06
-0.0110752
-0.00452629
2.78293e-06
-1.32134e-06
-0.000737397
1.22981e-06
3.48148e-06
-0.0056739
-0.00273923
-0.0922768
1.01592e-05
0.00224095
-0.000278485
-0.000601851
-9.52997e-06
-0.000121464
4.59923e-06
2.59345e-05
-0.0036415
-0.000145281
3.10676e-06
-7.51306e-05
-0.300206
1.26751e-05
7.11748e-07
1.28579e-05
-0.0020337
3.63742e-06
8.74686e-06
2.61486e-05
4.43865e-06
-0.100324
-0.289571
-1.05568e-05
-0.331865
-0.477528
-0.23716
4.011e-06
-1.52861e-06
6.22981e-06
3.42885e-06
9.23531e-08
-1.02273e-07
1.73244e-05
8.22063e-06
1.27972e-05
-4.10338e-05
-3.33703
-0.000172336
1.21644
0.000227206
5.21243e-06
-3.64865e-05
-0.000195568
-8.41221e-06
3.10207e-06
-0.000409107
-0.000217641
-0.107827
-0.000310831
1.37922e-05
0.0256724
-2.59418e-05
1.49778e-05
-2.14237e-06
-0.330367
-0.000529617
-2.88143e-06
-9.96988e-05
-7.62079e-07
2.27677e-06
-0.000120235
-0.000216428
0.0004922
-0.391085
2.31459e-06
1.76496e-05
-0.0535144
-0.000170739
-7.61712e-05
-0.00636472
3.28072e-05
-0.00139163
0.00911995
-0.00215437
-0.377665
-3.49286e-06
3.68411e-05
8.09195e-06
-3.85064e-07
-8.95511e-07
-1.76051e-05
-0.000379132
0.0013606
1.24529
5.94866e-06
-0.385593
-0.190856
0.000275603
-1.15125
-1.43084e-05
-0.00499986
0.515218
9.73611e-06
-0.00369071
1.48587e-05
0.0893515
4.11971e-06
0.0111544
2.41111e-06
0.341635
0.000463249
-0.617939
6.87759e-06
-0.0064054
2.00293e-05
3.76009e-05
0.931435
6.93273e-06
-0.392972
-0.404006
1.28391
-0.171652
-0.00280176
-0.194495
-0.000359458
5.54426e-07
-0.000977829
-0.000786528
-0.533179
3.43644e-06
1.76021e-05
1.06595e-05
-0.00122512
-1.92106e-06
-1.33932e-05
-1.41176e-05
1.52804
-0.0299449
-3.97003e-08
-0.214205
-0.000910195
1.34723e-05
-0.000135394
-8.00007e-05
-0.0700109
-0.00021373
5.89264e-08
0.0740588
-7.46859e-07
9.02844e-06
7.58482e-06
-0.0083633
-0.00175097
8.64302e-06
-7.61491e-05
-1.59953e-06
2.1987e-06
1.51796e-05
0.553633
1.87347e-06
2.25258e-05
-0.332985
-0.0595524
5.18411e-05
3.27504e-07
0.0562703
-7.26359e-05
-3.54226e-05
-9.358e-06
-0.000519587
2.95901e-05
0.000256756
-8.65439e-05
-0.379545
-0.00107528
-0.00162471
1.26532e-05
0.000742149
0.000836007
0.000294176
-1.88024e-05
-0.388361
3.89343e-06
-0.00280484
3.41796e-06
7.1942e-07
0.000766536
-0.000893309
3.0589e-05
3.55332e-05
5.42086e-06
-0.000264126
-0.00163272
0.00143884
-0.000121706
-3.32865e-09
1.34353e-05
-6.15127e-05
0.0018088
5.7822e-06
-0.000509627
5.09459e-06
3.67848e-06
-0.540437
3.32782e-06
0.222855
-1.73293e-06
-4.95514e-05
-0.00062325
-4.79575e-06
0.000123831
0.00218083
-0.00557677
-7.17583e-06
0.0016039
4.73763e-05
-3.024e-07
4.03761e-06
-0.177125
-0.132795
3.0924e-06
4.12328e-07
1.8575e-05
-1.06289e-06
-0.00365353
-0.1871
-6.96994e-06
0.0751033
7.30685e-06
1.5462e-05
6.31934e-06
0.189055
-1.84558e-05
-5.90562e-05
1.98946e-06
-6.79062e-06
-2.5603e-06
3.18638e-06
2.89422e-06
-0.000285702
-1.59548
1.37119e-05
-4.66681e-06
-0.000274061
-0.0026213
5.55389e-06
-0.379396
-0.0013283
4.94864e-07
1.50476e-05
7.71581e-05
-0.00205101
2.98574e-06
8.89051e-05
-0.000156348
0.000204503
1.23184e-06
-0.000741983
1.39853e-05
-0.00273457
-7.34157e-05
-1.97671e-05
-0.574176
-0.129077
2.34974e-05
2.20768e-06
-0.383135
-0.00705282
-0.00213975
0.000281447
0.000455706
1.55318e-05
-0.37742
0.00133852
3.88845e-05
0.0129566
-0.30886
-3.70226e-05
-0.000608641
-0.0013247
1.13481e-06
-0.279958
-1.22505e-05
7.50729e-05
-0.000219041
-1.64775e-05
1.18443e-05
-0.000621928
4.82113e-06
1.27254e-05
5.7883e-06
-5.82492
-3.47803e-06
2.1026e-05
2.10303e-06
5.43892e-06
-4.36172e-06
9.56608e-07
-0.00035856
-0.000244057
0.000119576
-2.21328e-07
-0.580669
-1.70506e-05
2.82326e-05
3.53634e-06
1.85452e-05
3.39805e-06
1.29694e-05
6.63143e-05
-0.00228259
2.84585e-06
-0.000165118
-0.000382413
3.28998e-06
-0.000107539
0.0470476
-1.08193e-05
2.83428e-05
2.47802e-06
-0.00130853
2.54434e-06
4.2096e-06
-6.05292e-05
-8.63903e-05
-0.339242
0.0638876
1.0985e-05
1.64178e-05
5.99496e-06
-0.00098989
3.94856e-05
5.37059e-07
-6.35115e-05
-0.00172852
-1.3456e-05
-7.87854e-05
2.62294e-06
-0.00588935
0.353962
7.13273e-05
-0.0018179
-0.000108989
-0.626347
7.76045e-07
4.83743e-06
-0.382458
-0.00167449
-5.29024e-05
-0.0319602
-0.00857621
0.236004
-0.000464396
0.0409422
2.47218e-05
0.000213521
-0.160104
-0.000135398
0.788448
0.000490169
-0.0077993
-1.01042
-1.78935e-09
-1.15526e-05
4.37785e-06
-0.0549156
2.77806e-05
0.355767
-2.06785e-05
1.22314
-2.39674e-05
0.000683105
-0.0177244
2.09397e-05
-1.71524e-05
-0.000659553
-0.000115972
-8.4371e-07
0.000382762
-0.00118548
-0.00290276
-0.0034973
-0.00145446
0.912952
-0.0072161
7.95963e-06
4.29747e-06
-0.130082
-0.000831253
-1.3183e-05
-7.19183e-05
-0.204311
1.91651e-06
0.00013595
3.88468e-06
-0.000108984
9.2173e-06
7.57228e-06
-0.000256014
-5.75579e-06
5.07332e-05
-0.321584
0.28099
2.39013e-05
-7.89008e-05
6.35679e-05
-0.0120081
-0.00129728
2.28848e-05
9.14847e-06
-0.0036173
-2.29016
4.10588e-06
-7.6487e-06
-3.77479e-06
-0.493561
1.94997e-07
-0.00020463
0.76167
0.860826
1.93623e-06
-0.0025858
-0.00364647
-0.0015766
-8.32326e-05
1.22141e-05
-0.324004
8.25619e-07
0.000207711
-1.33755e-05
0.000172319
1.06428e-05
1.33253e-05
3.85052e-06
-0.00250561
-3.63618e-07
1.05529e-05
2.09759e-06
5.42668e-05
4.09167e-06
-9.1561e-06
-0.00441441
-0.151334
-0.0237454
3.33257e-05
-4.40906e-07
-0.000100718
3.95122e-05
0.224078
-4.11686e-07
0.0160716
2.85468e-05
1.3868e-07
4.18843e-05
-0.000271738
-0.179218
4.13845e-08
-0.469346
2.34616e-05
1.20076e-05
-2.11838e-05
-0.391874
-3.93003e-05
-7.08428e-05
0.00488333
1.50314e-06
-8.55683e-06
-0.399784
2.54152e-06
0.0254388
-5.46745e-07
-5.72221e-06
-3.86016
9.01702e-05
2.10034e-06
1.65421e-05
0.711412
0.000106228
2.8841e-06
0.0926479
3.75037e-06
6.14343e-05
-0.00367901
0.988157
-0.00715474
-0.390484
-0.116266
-0.00116664
-3.20794e-05
-0.00799712
-0.0199982
2.66206e-05
-1.51389e-06
-2.65748e-05
0.000332254
0.000411777
3.89501e-06
-6.17652e-05
6.39974e-06
3.98758e-06
-0.0008905
1.36564e-06
0.616326
1.1789e-05
0.000728863
0.00122591
2.26406e-05
1.19672e-05
-0.488442
-0.20219
-0.00198262
1.70637e-06
-5.61908e-05
0.00123061
7.49664e-06
2.74131e-05
-0.00548317
-0.000337533
3.88241e-05
0.310625
0.370331
2.28243e-05
8.18999e-06
1.79059e-05
5.10798e-06
0.000107842
0.000412667
-0.141206
6.85196e-06
-3.42134e-07
0.000988027
1.53839
1.01734e-05
-1.33909
1.47004e-05
-0.00852435
-0.00148171
-0.277871
0.0016974
-0.000575541
-0.000482701
1.2799e-05
1.61128e-05
-0.0252254
-0.000100296
2.12004e-06
-0.513727
1.46606e-06
4.38373e-06
1.11254e-05
-0.00108443
-0.0155751
-0.107014
-0.00854797
0.000116418
-0.000146718
5.46783e-05
0.80296
0.624021
-3.0509e-05
5.08301e-07
6.57256e-06
0.00121894
-0.238499
-0.000259035
-0.156011
-3.63639e-06
8.38388e-07
-0.233183
-7.57239e-06
-0.402478
-0.0946229
3.32318e-05
-0.000196882
2.32044
-5.96203e-05
-0.000569374
-1.81584e-06
-0.24713
0.000131792
-0.00551208
-0.251305
-0.115066
0.000152501
0.000486032
1.19866e-06
-0.0082237
0.681984
0.000125587
5.50116e-05
-0.154452
-0.000393344
-0.000917503
2.65911e-06
-0.442015
-0.166662
-0.00368184
-2.39223e-06
0.000116648
6.99097e-06
3.78796
-0.00263673
-0.000362953
-0.298749
-0.550476
1.54002e-05
-0.0113353
1.99248e-06
-0.249144
-0.00166481
0.000357996
0.000218879
-0.100031
2.55639e-05
0.000848229
-0.35523
-0.19765
-3.44466e-05
9.2119e-06
9.97481e-06
-0.00173833
4.13437
-0.0126026
-0.43246
0.00350051
-0.000531141
3.43316e-05
-0.507044
-0.00263832
-9.07377e-05
-0.00571037
-0.0854743
-0.111455
-0.151114
0.592977
-1.27625
0.0457326
-1.4264e-05
-7.76087e-05
-0.000287348
5.46738e-05
0.838524
-0.201962
9.27179e-06
-0.397239
1.58388e-06
6.60809e-08
1.27667e-05
-0.000197971
4.94011e-06
-0.743723
-0.0003875
1.25185
3.34027e-05
-0.0899023
-0.000412017
0.159752
-0.212417
0.000105082
4.68707e-05
0.000352269
-0.000798433
5.35103e-06
1.38351e-05
6.71505e-06
-0.48467
7.16667e-06
-2.5464e-07
0.436239
0.000106698
1.16598
1.12253e-05
0.0129416
7.54664e-07
9.1611e-06
-8.72696e-06
-6.90355e-06
0.000314821
-4.63758e-05
0.359287
-0.000135206
0.000554146
-0.169632
-2.24622e-06
-0.295088
3.72699e-06
-0.386254
-0.252994
-0.179425
-0.00201579
-1.09817e-05
-7.04176e-07
-0.242751
5.50176e-05
0.00021391
1.98606e-06
0.000211763
-0.234517
2.32329e-05
5.47761e-06
2.26174e-06
-1.75292e-06
-0.0627761
-0.0770776
-3.10223e-06
2.21422e-05
-0.705939
-0.158893
3.99404e-06
-0.489974
2.23104e-06
-0.25629
-0.394453
0.000307748
-0.0186823
-0.111003
-0.000497439
-0.263598
0.00173509
-3.14366e-06
1.24906e-05
9.54674e-06
-0.359285
-0.22011
-3.00924e-05
-6.30631e-05
-0.249935
6.72486e-07
-0.305693
2.58145e-05
4.61563e-05
9.91456e-06
-0.189172
0.000649124
3.10784e-06
-0.287167
3.71558e-06
-0.399527
-0.280628
3.16887e-06
-5.85865e-07
-0.0061164
1.01427e-06
2.59284e-05
1.16262e-05
-0.131321
-0.000159166
9.1965e-06
6.01481e-06
-0.181645
-1.50579e-06
-0.0004967
4.1107e-06
-0.0635948
7.6151e-06
-0.00446839
4.23729e-05
-0.192121
-0.405187
-0.000219019
0.00142501
-0.0013225
4.44668e-06
-0.00217216
-0.206228
4.90025e-06
-0.00322067
6.75539e-06
-0.110222
3.49153e-06
-0.253678
-0.227664
-0.00235933
-0.305612
-0.255581
-0.000155752
9.07936e-05
-9.72276
1.22066e-05
0.642625
-5.07709e-05
-0.579775
-2.87692e-06
-0.000208472
-0.000633847
-0.000119315
-9.662e-06
-1.66328e-06
4.90517e-06
0.0258628
-0.00281439
-0.311616
0.0511596
-5.9355e-05
7.95638e-06
-0.000758482
0.17533
-0.00014495
1.45747e-06
6.13398e-06
-0.287744
-0.273441
0.0775355
-0.351079
-0.000296711
-1.60477e-05
6.28908e-06
-0.00115993
-0.000775224
-0.272469
3.58166e-06
4.57098e-06
-0.143451
-0.00251641
1.08652e-06
-0.000553244
-0.603083
-0.00567293
1.66316e-05
-0.00053443
-0.102895
-0.371449
-0.412581
-0.0318783
5.6576e-07
3.339e-07
2.68199e-05
2.73369e-07
-2.13392e-06
2.87766e-06
-6.50889e-05
0.00167217
-0.00027685
0.000272055
-0.000128607
-1.80297e-07
-7.76367e-05
9.19661e-05
0.000296077
-0.000144975
-2.10536e-06
-0.000119702
4.49042e-06
1.46166e-05
-2.11771e-05
-1.58096e-06
-0.046484
1.1778e-05
-0.00111897
-0.206838
-0.900365
0.348623
-1.2988
4.33958e-05
4.72054e-06
6.30575e-06
-0.202951
5.39384e-05
1.51052e-05
2.4236e-06
-0.335011
-0.000128879
-0.00036661
-0.154514
-4.57823e-05
-4.30593e-07
-0.000103813
5.82361e-06
-0.00056115
5.18149e-07
-0.000146008
-7.30603e-07
-5.6147e-06
-2.72079e-05
-4.65298e-05
0.000212618
-0.409913
-0.000241103
-0.00183745
-0.0019711
-0.00144028
-0.00060197
-0.00253415
4.6386e-05
-0.334514
-1.57266e-05
-7.07443e-05
-5.6587e-06
8.64173e-05
-0.00239461
-9.81932e-07
-0.00133852
-0.315961
-6.927e-05
-0.0706045
-0.00555845
-0.00076844
-0.00187811
-0.00112834
1.66055e-06
-0.000220437
2.97773e-06
-0.00286991
-0.000869647
-0.15845
5.48844e-06
-0.00075977
-4.23796e-05
-0.068154
-0.0472195
-0.000882969
7.20523e-07
-0.000839531
1.75806e-05
-0.00233944
-1.98582e-05
-0.0492291
8.10571e-06
-2.96448e-05
2.10669e-06
0.000460845
0.0203742
-0.000178092
-0.219708
-5.68734e-07
0.000599969
-0.00106246
4.08838e-06
-0.427223
-0.347534
-0.00792195
0.000894918
-0.000771685
2.20559e-05
7.989e-06
-0.291102
-0.00472919
1.96764e-05
7.53094e-05
-2.10956e-05
-9.56182e-07
-0.035748
-3.23303e-07
-0.368628
-0.0103323
-0.00625892
-0.000542787
-1.50889e-05
9.61702e-06
1.12129e-05
-0.00881745
-0.00102053
-4.26495e-05
-0.282345
2.19542e-06
-2.33387e-05
-6.67505e-05
-0.374417
1.47207e-05
0.703481
2.45528e-05
-0.332911
6.69057e-06
3.64084e-06
-9.77609e-05
1.06406e-05
-1.36513e-05
-0.00909011
-9.20671e-06
-1.20259e-05
6.94555e-06
-0.000462726
-9.58133e-05
0.0484575
-2.03032e-07
-1.03373e-05
1.40117e-05
-0.00617153
5.60536e-06
-7.54457e-05
-0.000470205
-0.254291
-0.263372
-0.206809
0.0358625
-0.0516983
-0.000571344
-0.000891491
-3.69372e-05
2.94005e-07
-5.65738e-07
-0.258759
-0.000725234
1.81544e-05
4.61909e-06
8.4106e-06
5.54417e-05
-0.0028773
-1.74467e-06
-7.49765e-05
-0.00617356
-0.00275453
-0.00524739
3.36727e-06
4.59592e-06
-0.0476754
9.649e-05
1.22286e-05
-0.17365
-0.403916
4.40254e-06
1.36175e-05
-0.000104491
2.44874e-06
-0.000108474
4.74029e-06
-0.333973
1.17596e-08
0.0450847
-3.3241e-06
-0.0797093
-0.00013861
-5.54278e-06
0.00066799
1.30721e-05
4.6591e-05
8.66603e-07
-0.000345288
-0.0759848
-1.61762e-06
-0.00916471
8.14802e-07
4.47103e-06
0.00222033
2.12374e-05
6.02446e-06
8.03038e-06
3.01308e-05
-9.45567e-06
1.26758e-05
1.05331e-06
-0.317996
5.81656e-06
8.67749e-06
-0.000918639
8.3908e-06
1.50893e-06
1.4724e-06
1.14486e-06
-0.389283
0.00617712
-1.20883e-06
0.000103109
3.05203e-05
-7.04303e-07
-0.00704017
9.13512e-06
9.66874e-06
-0.0255603
4.35264e-06
-0.000800249
0.000922916
-0.000316139
2.58234e-05
-0.0203001
-3.81655e-06
1.0699
-0.000308839
2.56149e-05
-0.384007
0.0100093
-6.20802e-05
-0.0031179
-4.05031e-06
1.94906e-06
-0.000432008
0.00818154
5.52005e-06
1.35009e-05
4.86185e-06
-0.000532077
1.58301e-06
-0.000283943
1.37305e-06
-0.000790515
-0.210831
-0.000345588
-0.0100568
-3.19891e-06
0.000322242
5.10384e-05
3.82535e-05
7.35539e-06
-3.43476e-06
-2.18039e-05
4.1513e-05
-0.00115158
-1.95396e-05
0.00268702
3.87182e-05
-0.277036
2.65866e-05
7.56557e-06
-0.00264766
-7.46436e-08
-0.00610688
0.0021792
-0.000600183
4.61287e-05
-2.35945e-05
2.995e-05
-0.000114415
-5.13327e-06
-0.000503947
0.000107248
-8.30368e-06
6.43047e-06
-0.000107228
-0.342047
-0.000228176
-0.000682531
-0.247553
0.12513
-0.000618626
1.71181e-05
-0.354717
-7.92038e-06
4.86734e-05
-1.07587e-05
-0.00302292
1.10953e-05
-0.000938793
-7.87723e-05
-4.0769e-05
8.12896e-06
-0.000111152