/*--------------------------------*- C++ -*----------------------------------*\
| =========                 |                                                 |
| \\      /  F ield         | OpenFOAM: The Open Source CFD Toolbox           |
|  \\    /   O peration     | Version:  v2012                                 |
|   \\  /    A nd           | Website:  www.openfoam.com                      |
|    \\/     M anipulation  |                                                 |
\*---------------------------------------------------------------------------*/
FoamFile
{
    version     2.0;
    format      ascii;
    class       surfaceVectorField;
    location    "350";
    object      Uf_0;
}
// * * * * * * * * * * * * * * * * * * * * * * * * * * * * * * * * * * * * * //

dimensions      [0 1 -1 0 0 0 0];


internalField   nonuniform List<vector> 
14907
(
(0.995693 0.0129869 2.17913e-21)
(0.995768 0.0134463 0)
(0.995347 0.0132169 -5.09826e-22)
(0.998171 0.00483942 2.4736e-21)
(0.997999 0.00511823 0)
(0.998182 0.00521776 -3.28548e-21)
(1.04068 0.0194029 2.47076e-21)
(1.04169 0.0199206 6.79881e-21)
(1.04157 0.0185979 3.67326e-21)
(1.01277 7.82234e-05 -4.88043e-23)
(1.01267 0.000111852 -9.21638e-21)
(0.428895 0.0583778 -2.59389e-20)
(0.370244 0.0479518 -1.0288e-20)
(0.482488 0.0702413 3.95755e-20)
(0.998844 0.00471638 1.0464e-22)
(0.998897 0.00433538 -2.05456e-22)
(0.998729 0.00457726 -3.19636e-21)
(0.266353 0.0410332 0)
(0.228567 0.0417095 3.32377e-20)
(0.329272 0.0391264 -1.56485e-20)
(0.972662 0.0532529 -1.17541e-20)
(0.987241 0.0562963 -4.6656e-20)
(0.845909 0.0397272 -1.0876e-19)
(1.03396 0.0173878 9.89882e-22)
(1.03364 0.0182634 -4.49847e-21)
(1.03284 0.0174587 -1.03896e-20)
(1.00157 0.00543433 0)
(1.00154 0.00564495 7.39801e-21)
(1.00173 0.00577393 -2.82812e-21)
(-0.199407 -0.0320236 -4.90741e-20)
(-0.20685 -0.0283743 -3.49115e-20)
(-0.203606 -0.0286625 5.12851e-20)
(1.01643 0.000222921 5.15773e-21)
(1.01252 3.19821e-05 5.42771e-21)
(1.01757 0.00244808 -7.09117e-21)
(1.01741 0.00267599 1.27861e-21)
(1.01782 0.00275022 6.90962e-21)
(1.01797 0.00104221 9.05802e-21)
(1.01774 0.000992447 5.8479e-21)
(1.01784 0.00123797 -2.46116e-21)
(0.953908 0.0546095 3.71913e-21)
(0.955961 0.0528191 5.90734e-22)
(0.95312 0.0514845 9.67174e-21)
(0.999207 0.00655961 -2.55832e-21)
(0.999184 0.00617074 -1.91076e-22)
(0.999332 0.00629783 -4.80796e-21)
(0.999288 0.00694877 7.16663e-22)
(0.999104 0.00686611 6.73345e-23)
(1.00002 0.000290673 -3.31687e-21)
(1.00002 0.000299525 4.02292e-22)
(1.00004 0.000398422 -3.4225e-21)
(0.995608 0.0124657 -2.90667e-21)
(0.996047 0.0127277 4.82557e-21)
(0.650482 0.25995 9.50321e-21)
(0.67284 0.273105 1.14377e-20)
(0.675907 0.252383 -3.86876e-22)
(1.00441 0.00635384 1.81852e-21)
(1.00439 0.0066473 -2.84016e-22)
(1.0047 0.0066116 6.91383e-21)
(1.29363 0.0251049 5.90065e-20)
(1.27733 0.0245636 -1.3111e-20)
(1.28682 0.0314992 -5.57638e-20)
(1.01642 0.000536502 0)
(1.01635 0.0005633 4.29839e-21)
(1.01674 0.000760419 -1.03731e-21)
(1.01571 0.00517431 3.59654e-21)
(1.01611 0.00527317 -7.52669e-21)
(1.01597 0.00489337 8.38412e-22)
(0.998328 0.004603 -1.43161e-21)
(0.998164 0.00450649 2.17709e-21)
(1.10378 0.0429943 1.61608e-20)
(1.10661 0.0412445 1.51609e-20)
(1.10318 0.0396643 -1.85887e-21)
(0.998604 0.000773845 3.37065e-21)
(0.998742 0.000531754 -1.52937e-21)
(0.998775 0.000729335 5.01059e-21)
(0.990879 0.0589452 -3.19158e-22)
(0.989102 0.0577454 6.09278e-22)
(0.991218 0.0567702 6.7976e-22)
(1.02295 0.0257465 -4.30198e-21)
(1.02218 0.0262631 -5.61547e-21)
(1.02219 0.0251602 -7.09645e-21)
(0.99862 0.0513792 -1.46765e-21)
(1.00019 0.0523645 3.16439e-21)
(0.998529 0.0535827 -2.62681e-21)
(0.996345 0.00385464 1.18353e-21)
(0.996056 0.00392293 -1.00294e-21)
(0.9963 0.00351913 1.09525e-21)
(-0.1282 -0.00382298 5.57498e-20)
(-0.139843 -0.00404422 -2.84843e-20)
(-0.140044 -0.00335706 -1.94598e-20)
(1.00162 0.00521333 -5.38263e-21)
(1.00144 0.00508503 0)
(1.0188 0.0487879 8.98139e-22)
(1.01879 0.0506332 -1.44913e-21)
(1.01705 0.0490629 3.68787e-21)
(1.06856 0.0740931 -7.27576e-21)
(1.07001 0.0714333 1.41019e-20)
(1.06695 0.071443 6.4292e-22)
(1.01532 0.00509413 7.36693e-21)
(1.01545 0.00547975 1.64262e-21)
(1.09828 0.0455075 -1.66278e-20)
(1.1013 0.0442739 0)
(1.09784 0.0423956 0)
(1.12527 0.0180141 1.40854e-20)
(1.12196 0.0170889 0)
(1.12286 0.0204002 -2.28482e-20)
(1.01488 0.004936 0)
(1.01519 0.0046536 0)
(0.993154 0.124816 1.66386e-22)
(0.995176 0.1279 -8.14464e-22)
(0.990011 0.126558 -1.2284e-21)
(0.630408 0.262202 0)
(0.637172 0.241739 -3.34107e-20)
(0.963288 0.0518167 -2.49294e-21)
(0.961784 0.0538859 -3.70164e-21)
(0.964493 0.0541748 6.11238e-21)
(0.295559 0.0396914 2.76264e-20)
(0.20199 0.0483111 3.40997e-20)
(0.989838 0.0333255 8.34281e-22)
(0.990574 0.0344985 2.67033e-21)
(0.99111 0.032934 -8.37893e-22)
(0.503649 0.073178 1.96981e-20)
(0.361983 0.0491162 -5.85637e-20)
(1.17819 0.0286401 -5.10881e-21)
(1.17702 0.0240133 -3.44988e-20)
(1.17287 0.0278394 -1.49663e-20)
(0.973493 0.0360331 1.89504e-21)
(0.973636 0.0374813 0)
(0.972161 0.0365448 0)
(1.21817 -0.0170945 2.26586e-20)
(1.21253 -0.0169764 -8.51793e-22)
(1.21546 -0.0228071 2.37434e-20)
(1.0866 0.0541427 1.55351e-20)
(1.08808 0.0568352 -1.025e-20)
(1.08955 0.0538338 6.14767e-21)
(1.15077 -0.0360637 -1.01136e-20)
(1.14749 -0.0397483 3.96377e-20)
(1.14526 -0.0344138 -7.25218e-21)
(1.00035 0.000427499 -1.07877e-22)
(1.0004 0.000513694 -3.11539e-22)
(1.00044 0.000465008 1.69226e-21)
(1.04897 -0.00789721 1.20421e-20)
(1.05032 -0.00814301 9.79057e-21)
(0.955774 0.0409218 0)
(0.953351 0.0413583 -6.75547e-23)
(0.954346 0.0388721 -3.44712e-21)
(1.06039 -0.00750965 0)
(1.06041 -0.00576865 0)
(1.06219 -0.00723132 1.05988e-20)
(1.09927 0.0486383 -2.57566e-20)
(1.09581 0.0469388 2.01875e-20)
(0.998747 0.00509449 6.13313e-23)
(0.998903 0.00485852 5.86753e-21)
(1.02365 0.0254497 1.97936e-21)
(1.02376 0.0265666 8.83617e-21)
(0.973288 0.0342622 1.94278e-21)
(0.974992 0.0353365 1.37274e-21)
(1.02042 0.0484947 -9.41732e-21)
(1.01882 0.0470981 4.7117e-21)
(0.95788 0.0401008 7.94177e-21)
(0.957212 0.0422882 0)
(0.997226 0.00428114 -1.96855e-21)
(0.99736 0.00388717 -2.07814e-21)
(0.997085 0.00406604 2.49934e-21)
(0.996424 0.00658923 -3.21512e-21)
(0.996647 0.00672944 3.80428e-21)
(0.996683 0.00627372 1.06726e-21)
(1.06697 0.0765416 3.37283e-21)
(1.07028 0.0768772 -2.03903e-20)
(1.03974 0.0187554 -9.45271e-21)
(1.03966 0.0200044 1.17681e-21)
(0.963969 0.0147281 2.87309e-21)
(0.962555 0.0152509 4.11487e-21)
(0.963752 0.0163988 4.07306e-21)
(1.02185 0.0481631 -1.29828e-21)
(1.02231 0.0466956 -2.26826e-21)
(1.02385 0.0479792 1.46128e-20)
(0.971929 0.010978 -3.03531e-21)
(0.971278 0.0120374 -1.23459e-21)
(0.972734 0.0117866 2.19252e-24)
(0.710894 0.191442 4.78182e-20)
(0.715946 0.17261 1.1453e-20)
(0.729857 0.185604 9.86129e-22)
(-0.135256 -0.00664489 0)
(-0.121126 -0.00722619 0)
(-0.127366 -0.0165599 0)
(0.999706 0.0284703 9.70626e-22)
(0.999584 0.0294242 3.05601e-22)
(0.998772 0.0287816 -9.52716e-22)
(1.06071 -0.00949518 7.30744e-21)
(1.05875 -0.00815842 0)
(0.621281 0.278367 3.56355e-20)
(0.988539 0.0339162 3.06278e-22)
(0.989004 0.0323466 -5.80038e-22)
(0.855981 0.0649231 -2.25512e-20)
(0.85975 0.0587347 4.63822e-20)
(0.851167 0.057758 2.37884e-20)
(0.97264 0.00765607 0)
(0.973234 0.00865768 1.58077e-21)
(0.973856 0.00767042 0)
(1.01656 0.00534244 4.49724e-21)
(1.01625 0.00567513 -3.72894e-21)
(0.266329 0.0219 3.55481e-20)
(0.33108 0.0353495 3.3413e-20)
(0.995567 0.0120434 -7.38247e-21)
(0.995516 0.0115752 4.69085e-22)
(0.995896 0.0117529 -5.26726e-21)
(0.891538 0.0878603 -8.96254e-21)
(0.890816 0.0815154 -3.81144e-21)
(0.896414 0.0853641 5.22838e-21)
(0.250914 0.0419131 -3.2695e-20)
(0.196057 0.0443001 -5.4696e-21)
(0.164143 0.0458853 -3.24563e-20)
(1.0835 0.0544686 6.91089e-21)
(1.08508 0.0516341 7.71848e-21)
(0.602427 0.0971483 3.22601e-20)
(0.66514 0.106987 7.31975e-20)
(1.00516 0.0391974 3.82687e-21)
(1.0058 0.0383627 1.07921e-21)
(1.00626 0.0396775 2.76027e-21)
(0.966362 0.0479612 3.02804e-22)
(0.965632 0.0458111 -2.50556e-21)
(0.967968 0.0461426 8.50851e-22)
(0.972548 0.00980832 8.12888e-22)
(0.971111 0.0100337 -8.52783e-22)
(1.00002 0.00124767 0)
(1.00001 0.00127117 2.56405e-22)
(1 0.00106288 0)
(0.996376 0.015 -1.13267e-21)
(0.996103 0.0146694 5.96831e-22)
(0.995911 0.0152405 1.56836e-21)
(1.12225 0.288423 0)
(1.11328 0.284502 0)
(1.12186 0.279672 1.44325e-20)
(0.984478 0.0210518 -1.08436e-22)
(0.984793 0.021913 -4.18754e-22)
(0.983821 0.0216475 -2.27921e-22)
(0.99667 0.0155353 -1.1882e-21)
(0.996863 0.0149063 8.20213e-22)
(1.03462 0.0397963 6.45175e-21)
(1.03572 0.0388648 -5.83265e-21)
(1.03397 0.0384844 -6.00612e-21)
(0.691887 0.120991 3.87689e-20)
(0.536539 0.0817385 -1.11766e-20)
(0.992375 0.0602266 9.96474e-22)
(0.990243 0.0613345 -3.99502e-22)
(1.04861 -0.00644331 -1.77634e-22)
(0.996995 0.0505387 1.24213e-22)
(0.998658 0.0494928 0)
(1.01583 0.0323081 0)
(1.01491 0.0325085 0)
(1.01583 0.0332675 5.26419e-21)
(0.999017 0.0115891 -2.13159e-22)
(0.998807 0.0113137 5.32408e-21)
(0.999131 0.0111504 2.54925e-21)
(1.00927 0.0315006 5.4065e-22)
(1.00986 0.0307386 -4.77672e-22)
(1.00887 0.0306067 -2.80212e-23)
(0.991172 0.12 -5.15089e-22)
(0.996728 0.121671 1.87683e-22)
(1.02823 0.0240473 -5.71394e-21)
(1.02912 0.0246383 -2.78112e-21)
(1.02879 0.0235168 1.31552e-20)
(0.999999 8.87532e-05 3.47115e-21)
(1 8.93416e-05 -6.59979e-22)
(1.13763 0.225793 1.66129e-21)
(1.13253 0.230751 4.66122e-20)
(1.14081 0.231779 4.23398e-20)
(0.839032 0.0419849 -5.72503e-20)
(0.756888 0.0386328 0)
(0.892445 0.0395861 -3.09213e-20)
(1.00001 0.00145144 -2.43978e-21)
(1.00003 0.00126644 -4.29131e-21)
(0.984551 0.053734 -4.44442e-23)
(0.98323 0.0522012 5.69378e-22)
(0.985273 0.0516516 -2.71209e-22)
(1.01737 0.212841 1.11924e-20)
(1.02444 0.214671 6.93587e-21)
(1.0188 0.221087 9.21448e-21)
(0.993153 0.0119192 -1.43724e-21)
(0.99285 0.0122758 1.56338e-21)
(0.993288 0.0124546 -1.19628e-21)
(0.999257 0.0118748 -6.9281e-21)
(0.998921 0.0120495 -8.09379e-22)
(1.00412 0.00606298 2.15205e-21)
(1.00443 0.00602286 -1.3594e-21)
(1.02506 0.000878832 -4.36686e-22)
(1.02454 0.000943487 -7.34763e-21)
(1.01134 0.00143294 5.99997e-21)
(1.01104 0.00126277 2.28314e-21)
(1.01102 0.00163901 6.1616e-21)
(1.00376 0.0230735 -1.3625e-22)
(1.00434 0.0236314 -2.54517e-22)
(1.00362 0.0239879 1.68977e-21)
(1.03412 0.0918506 1.12445e-20)
(1.03145 0.0927081 -4.12878e-22)
(1.03159 0.0897525 6.92986e-21)
(-0.140528 0.00242276 -2.43469e-22)
(-0.147341 -0.0100569 0)
(0.96545 0.0144689 -5.26699e-21)
(0.964328 0.0132333 -4.8301e-21)
(1.00135 0.021198 0)
(1.0013 0.0218851 -2.11942e-21)
(1.00067 0.0215144 2.82036e-22)
(0.990518 0.00521336 6.91485e-22)
(0.991016 0.00508848 -3.22896e-21)
(0.990783 0.00561609 -1.77207e-21)
(0.995227 0.0122941 -2.74538e-21)
(1.01705 0.0321539 4.71591e-21)
(1.016 0.0312691 0)
(-0.0334987 0.0229578 -5.13305e-20)
(-0.0678463 0.0178269 -1.50909e-20)
(-0.030954 0.0244753 -5.9028e-20)
(0.984178 0.020162 6.32542e-23)
(0.985246 0.0203943 -7.97015e-23)
(0.900064 0.0482541 -1.97587e-21)
(1.0485 0.0528731 8.02985e-20)
(0.993127 0.0371786 2.14463e-21)
(0.994098 0.038076 -5.82997e-23)
(0.994327 0.0366447 -9.79972e-22)
(0.99347 0.0027805 2.25443e-21)
(0.993556 0.00315244 -2.49783e-21)
(0.993859 0.00281753 -2.60505e-21)
(1.14286 0.219798 -2.86798e-20)
(1.13472 0.218917 -2.39071e-21)
(1.00384 0.0389219 1.81565e-21)
(1.00453 0.0406982 0)
(0.971643 0.0541734 1.56378e-20)
(1.11231 0.0708681 1.01054e-19)
(1.08281 0.07283 8.55392e-21)
(1.08445 0.0708117 -5.02485e-21)
(1.08572 0.0740919 -2.4513e-20)
(1.01455 0.206704 -1.42372e-21)
(1.00908 0.21227 -4.86778e-21)
(0.996947 0.0159504 -1.46987e-21)
(0.997218 0.0164121 -1.53506e-21)
(0.997432 0.015814 -9.25926e-22)
(0.885427 0.0898004 2.32763e-20)
(0.891881 0.0939246 -1.16951e-22)
(0.97811 0.0194267 1.55379e-21)
(0.97801 0.0206675 -1.4847e-21)
(0.976855 0.0196004 1.52344e-21)
(-0.155469 -0.00495515 -1.17735e-20)
(-0.175666 -0.00884717 -3.76555e-20)
(-0.177025 -0.0066099 1.90954e-20)
(1.24685 0.104282 -2.23176e-20)
(1.24604 0.099563 2.57143e-20)
(1.25057 0.100212 -7.17925e-20)
(1.02755 0.0248242 -2.27017e-21)
(1.0272 0.0236157 -2.67419e-21)
(1.08214 0.200901 3.51629e-20)
(1.08059 0.193969 -3.83623e-20)
(1.08765 0.196462 -4.94273e-22)
(-0.108343 0.0142501 2.9808e-20)
(-0.134585 0.0116207 -5.13772e-20)
(-0.106561 0.0148262 -6.60295e-20)
(1.03543 0.0413336 4.27299e-21)
(1.03356 0.0407361 7.36711e-21)
(1.22412 -0.0168927 5.08046e-20)
(1.22046 -0.0113868 3.00738e-20)
(1.13025 0.292263 6.12093e-21)
(1.12163 0.297998 0)
(0.979044 0.0531025 -5.42594e-22)
(0.977762 0.051478 -1.9315e-21)
(0.976727 0.0536471 1.20992e-21)
(0.990185 0.00490642 5.99945e-21)
(0.990041 0.00542456 7.54632e-22)
(0.978561 0.0460318 -1.02455e-21)
(0.97957 0.0477157 3.74276e-22)
(0.980572 0.0457934 -5.0587e-22)
(1.18464 0.203535 0)
(1.18059 0.209337 -2.25951e-20)
(1.1784 0.20209 0)
(1.04424 -0.00169112 -2.49702e-21)
(1.04349 -0.00261882 -1.52462e-20)
(1.04301 -0.00146215 -7.92274e-21)
(1.00318 0.0228391 -2.06508e-21)
(1.00389 0.0224857 7.73232e-22)
(1.11233 0.171472 1.27115e-20)
(1.10751 0.169014 -2.33284e-21)
(1.10778 0.175265 -4.08907e-20)
(1.03008 0.00115413 -5.7821e-21)
(1.02975 0.00159498 -4.25112e-21)
(1.03051 0.00167886 0)
(1.00969 0.0324268 -4.10934e-23)
(1.00863 0.0322696 9.44731e-22)
(1.00581 0.0945293 -3.49451e-21)
(1.00239 0.0941624 -1.75767e-21)
(1.00481 0.0912856 -2.5566e-21)
(1.03598 0.0169912 -1.3005e-20)
(1.03601 0.0160148 -6.43184e-21)
(1.03695 0.0166794 7.95064e-22)
(1.00003 0.0001191 -7.56592e-21)
(1.00004 0.000163314 3.61984e-21)
(1.00002 0.000115189 -1.58745e-21)
(-0.0176782 0.0566229 4.26633e-21)
(0.00744439 0.0555727 -7.48332e-20)
(-0.0377812 0.0547567 1.7782e-20)
(-0.061589 0.0174467 -1.72271e-20)
(-0.0958426 0.0150286 1.93014e-19)
(-0.0691811 0.017368 6.13203e-20)
(0.999411 0.000486086 0)
(0.999488 0.000333031 -3.86917e-21)
(0.999503 0.000444699 -9.68493e-25)
(1.01734 0.00223523 -1.42362e-20)
(1.0177 0.00224489 -1.31454e-20)
(0.94959 0.00821522 4.2331e-21)
(0.951718 0.00898725 -3.08003e-21)
(0.951209 0.0066873 2.39651e-22)
(0.996215 0.00646067 -5.92417e-21)
(0.996201 0.00691698 -5.45107e-22)
(1.07633 0.204574 3.40645e-20)
(1.08331 0.206837 1.47114e-20)
(0.0441369 0.0438929 1.54109e-19)
(-0.109898 -0.0043452 -1.71864e-20)
(-0.104977 0.0126534 5.05713e-20)
(-0.182627 -0.035119 0)
(-0.169912 -0.0298848 0)
(-0.179 -0.0381175 0)
(1.21801 0.111382 -2.00837e-20)
(1.21736 0.106232 -2.08778e-20)
(1.22257 0.108125 1.13153e-20)
(0.995102 0.00499016 -1.29116e-21)
(0.995309 0.0051462 1.43129e-21)
(0.994972 0.005334 -2.11333e-21)
(1.03506 0.0172619 -1.5315e-21)
(1.03592 0.0179117 -1.32775e-20)
(1.00949 0.0417283 -1.00937e-21)
(1.00879 0.0428293 0)
(1.01012 0.0430134 0)
(0.978295 0.0181468 4.71795e-22)
(0.97927 0.0192491 6.84054e-22)
(0.92396 0.245047 -3.53937e-21)
(0.920005 0.255905 0)
(0.93299 0.25222 0)
(0.246188 0.134524 4.00728e-20)
(0.306197 0.194708 3.65064e-20)
(-0.141564 0.00145422 1.20998e-19)
(-0.144753 0.00542793 -8.7456e-21)
(-0.0548459 0.0174062 -1.36617e-19)
(-0.0198115 0.0224464 -6.10043e-20)
(1.05842 -0.00132752 5.61199e-21)
(1.05662 -0.00135509 1.25645e-21)
(1.05767 0.00026047 2.34774e-20)
(1.00513 0.0133893 3.16215e-21)
(1.00538 0.0138631 -5.49089e-22)
(1.00563 0.0134936 3.23711e-21)
(0.847674 0.158938 5.88922e-20)
(0.746078 0.136715 9.17692e-21)
(0.679584 0.330267 1.02044e-20)
(0.674787 0.299513 3.75079e-20)
(0.649233 0.316158 -7.5621e-20)
(0.890165 0.155793 3.81914e-21)
(0.898025 0.156968 -1.00278e-20)
(0.894961 0.148744 -1.5835e-20)
(0.216756 0.0575252 -4.68651e-20)
(0.269845 0.050477 -4.36159e-20)
(0.174038 0.0607036 5.06824e-21)
(-0.141604 0.0754583 2.83512e-20)
(-0.148132 0.0585009 2.20228e-20)
(-0.135953 0.0621324 0)
(0.992209 0.0363248 -8.63261e-22)
(0.991427 0.0353723 -9.79368e-22)
(0.992609 0.0349363 -2.7283e-21)
(0.711966 0.212457 1.42912e-20)
(0.692363 0.198656 -3.3176e-20)
(1.05427 0.123496 8.02364e-21)
(1.05426 0.119036 0)
(1.05014 0.121677 -7.28091e-21)
(0.947361 0.00733374 4.02429e-21)
(0.94784 0.00982164 4.29098e-21)
(-0.112423 -0.00936233 5.35817e-20)
(-0.108752 -0.00382418 0)
(0.97055 0.0132477 1.02746e-21)
(0.971602 0.0141739 0)
(0.969804 0.0144683 -9.28322e-22)
(1.07963 0.0723188 1.71042e-20)
(1.08104 0.0755366 -2.50175e-20)
(0.964752 0.0498145 -3.32118e-21)
(0.962307 0.0495389 -2.87679e-21)
(-0.0396266 0.0216394 6.19649e-21)
(0.0159448 0.0308679 7.01221e-20)
(1.24357 0.135141 -1.34109e-20)
(1.24459 0.130198 -3.7676e-20)
(1.2392 0.132104 -1.88371e-20)
(1.02097 0.0425931 4.3121e-21)
(1.02032 0.0417652 -9.08861e-21)
(1.01962 0.0427685 -8.35444e-21)
(-0.159377 -0.0370058 -1.68059e-20)
(-0.169262 -0.0413317 -5.05185e-20)
(-0.167828 -0.0390724 1.23627e-20)
(1.05885 0.0553352 0)
(1.05734 0.0533701 -1.65107e-21)
(1.05995 0.0532159 -1.12708e-20)
(0.733275 0.730605 0)
(0.734947 0.670784 6.38616e-21)
(0.682376 0.703912 7.41162e-22)
(0.977514 0.0446107 2.45163e-21)
(0.97633 0.0466105 6.6876e-22)
(-0.0470885 0.0598847 -1.44521e-20)
(0.000599128 0.0560261 -5.56998e-20)
(1.01502 0.196003 2.66103e-21)
(0.976072 0.178584 3.89013e-20)
(1.21523 0.0697666 -5.21534e-20)
(1.2103 0.0697357 1.79416e-20)
(1.21384 0.0744576 -2.5402e-20)
(1.12003 0.180358 0)
(0.986968 0.151162 0)
(1.01652 0.159245 0)
(1.08187 0.0438275 2.24195e-20)
(1.07981 0.042142 1.66612e-20)
(1.0826 0.041041 1.4886e-20)
(0.993963 0.010841 -2.70949e-21)
(0.993916 0.0113351 1.11861e-21)
(0.994341 0.0110552 2.45969e-21)
(1.01717 0.00195717 1.47126e-20)
(1.01696 0.00216989 3.85011e-21)
(1.02521 0.068953 -9.28683e-21)
(1.0274 0.0689619 -4.86787e-21)
(1.02612 0.071646 -4.11464e-21)
(0.868985 0.134707 -3.95769e-20)
(0.877363 0.137844 -7.9867e-21)
(0.876558 0.129267 1.19264e-20)
(1.02203 0.0428824 3.4115e-21)
(1.02111 0.0440318 2.34275e-21)
(1.00513 0.0236734 -1.32047e-23)
(1.00596 0.02394 4.77321e-21)
(1.00553 0.0230073 -4.72718e-22)
(0.702718 0.332446 -1.52751e-21)
(0.684996 0.353418 -1.73603e-20)
(0.969497 0.0124654 1.03834e-21)
(1.01963 0.0142138 2.79102e-21)
(1.02029 0.0142376 -1.95154e-20)
(1.02009 0.0149202 -7.10147e-21)
(0.787033 0.82246 0)
(0.812264 0.721528 0)
(0.999132 0.00106366 1.64124e-21)
(0.999118 0.000896874 -5.04615e-21)
(0.999233 0.000861045 1.59644e-22)
(1.00002 0.000331183 -1.08122e-22)
(1.00002 0.000340227 -7.29696e-21)
(1.00003 0.000453293 6.25161e-22)
(0.999907 0.000346431 1.11515e-22)
(0.999888 0.000321195 -1.29598e-23)
(0.99987 0.000447057 2.44599e-21)
(1.24754 0.209441 1.73281e-20)
(1.22829 0.199148 0)
(1.01761 0.000414599 0)
(1.01782 0.00033131 1.50648e-21)
(1.01634 0.000191605 -6.85254e-21)
(0.91553 0.237461 1.04042e-20)
(0.926862 0.234917 -6.69215e-21)
(0.999124 0.41893 -1.46345e-22)
(0.98152 0.423409 1.24924e-20)
(0.996728 0.439328 2.69483e-21)
(0.953843 0.00967931 -4.44798e-22)
(0.952386 0.0112216 -5.36642e-23)
(1.24565 0.136556 -2.2112e-20)
(1.24282 0.138821 -8.23693e-23)
(0.976881 0.00675949 -4.55936e-22)
(0.976289 0.00765882 4.94623e-22)
(0.9774 0.00773346 -5.74503e-22)
(1.00006 0.00788234 -2.91644e-21)
(0.999886 0.0079835 1.30115e-21)
(1.00007 0.00830344 -2.35188e-21)
(1.13343 0.162528 -1.47303e-20)
(1.13681 0.158225 1.88136e-20)
(1.1395 0.164549 -1.91783e-20)
(1.01084 0.0159146 -4.3469e-23)
(1.01049 0.0154783 4.26674e-21)
(1.01027 0.0160364 -5.7836e-21)
(1.03694 0.0911936 4.24241e-21)
(1.03659 0.0945287 4.98422e-22)
(0.94824 0.0171705 5.13562e-22)
(0.949514 0.0151419 -4.39941e-21)
(0.950641 0.0171878 8.19899e-21)
(1.08742 0.40136 0)
(1.07352 0.394205 1.70346e-20)
(1.08545 0.386128 0)
(1.12846 0.0190024 1.40379e-20)
(1.12754 0.0157104 -5.37612e-21)
(0.937688 0.0659958 4.79009e-21)
(0.937654 0.0691952 -1.66071e-20)
(0.934562 0.0669259 -1.29796e-20)
(1.10891 0.0395079 1.99411e-20)
(1.11147 0.0375074 -3.95652e-21)
(1.10841 0.0362323 3.93649e-20)
(1.28354 0.0991958 0)
(1.27625 0.0991613 0)
(1.28465 0.104698 0)
(1.00252 0.0225474 3.48657e-21)
(1.0019 0.0222035 1.40733e-21)
(1.00262 0.0218782 -9.33337e-22)
(1.22343 0.132388 0)
(1.22653 0.136307 2.64472e-20)
(1.22076 0.136815 -1.71828e-20)
(1.06098 -0.0111638 3.15907e-20)
(1.06276 -0.0107146 6.58094e-21)
(1.03408 0.0164784 1.17865e-22)
(0.782398 0.351415 -4.15976e-21)
(0.801652 0.346833 1.46127e-20)
(0.797969 0.367102 2.52896e-20)
(1.00492 0.0129643 -3.20971e-21)
(1.00471 0.0133029 3.58298e-21)
(1.06126 -0.0130145 1.73839e-20)
(1.05936 -0.011818 -3.51956e-21)
(1.04273 0.0198423 -1.45946e-21)
(1.04193 0.0207154 6.08547e-21)
(1.00857 0.0954957 1.517e-21)
(1.00616 0.098501 -6.00739e-21)
(1.01783 0.0159509 2.09132e-21)
(1.01787 0.0165986 -5.49519e-21)
(1.01846 0.0163147 -3.83217e-21)
(1.01822 0.000677499 5.71667e-21)
(1.01836 0.000569668 4.2137e-21)
(1.01841 0.000808082 -9.79916e-21)
(1.06309 0.031234 -3.28492e-21)
(1.06501 0.0308361 -2.55937e-20)
(1.06431 0.0329173 -7.6252e-21)
(1.08187 -0.0216143 3.07413e-22)
(1.08159 -0.0191456 2.01976e-20)
(1.08407 -0.0206324 -1.30662e-20)
(0.994889 0.0047756 -1.3488e-21)
(0.995268 0.00459135 5.18942e-22)
(0.991893 0.0377344 1.14568e-21)
(1.0101 0.0406034 -1.05988e-21)
(1.00884 0.0404252 3.28373e-21)
(1.02837 0.0937703 -6.06946e-21)
(1.03121 0.096928 -6.96233e-21)
(1.00133 0.0205655 -3.93502e-21)
(1.00196 0.0208982 0)
(0.996604 0.00375549 0)
(0.996401 0.00413478 2.35633e-21)
(1.01476 0.0012136 0)
(1.01449 0.000908275 0)
(1.0144 0.00126252 4.23628e-21)
(0.983825 0.0558454 0)
(0.986002 0.055126 0)
(1.05956 -0.00448164 0)
(1.05888 -0.00282348 -7.15454e-21)
(1.0578 -0.00458703 0)
(1.00001 0.00018603 0)
(1.00003 0.000279342 -1.83092e-21)
(1.01697 0.00147188 -3.87396e-21)
(1.0169 0.00123378 1.3159e-22)
(1.01716 0.00130925 1.09284e-20)
(0.999785 0.0274675 1.93352e-21)
(1.00062 0.0280412 8.22199e-23)
(0.985788 0.0797273 3.63851e-22)
(0.983405 0.0812168 0)
(0.986367 0.0826519 0)
(1.09099 0.413991 0)
(1.10228 0.402578 0)
(1.21415 0.113828 -3.98537e-20)
(1.21893 0.115729 4.79708e-20)
(-0.144789 -0.032191 5.98051e-20)
(-0.146863 -0.0334262 1.91158e-20)
(0.886139 0.163314 -8.68617e-22)
(0.882641 0.154645 3.91288e-21)
(0.905895 0.158053 1.34882e-20)
(0.914059 0.159676 1.04094e-20)
(0.909842 0.15102 3.65159e-20)
(0.951486 0.056231 1.1298e-22)
(0.954569 0.0572882 0)
(1.18292 0.0303551 -7.87868e-21)
(1.18826 0.02845 -1.6294e-20)
(1.18765 0.0341935 4.41173e-20)
(0.379447 0.0370675 -5.05192e-20)
(0.392105 0.0371187 -3.42119e-20)
(0.299137 0.0423512 -4.68585e-20)
(1.061 0.0317288 -2.52175e-21)
(1.0616 0.0297463 5.12526e-21)
(0.993547 0.0116085 0)
(0.993103 0.011456 0)
(1.01811 0.000868193 -3.81411e-21)
(1.018 0.00060812 1.14741e-21)
(1.02283 0.0696133 1.89685e-21)
(1.02408 0.0671679 8.83793e-21)
(1.01729 0.0156294 -6.95269e-21)
(1.01782 0.0153583 -6.72738e-21)
(1.29931 0.030377 -5.27115e-20)
(1.29994 0.0214692 4.16652e-20)
(1.06888 0.00711029 0)
(1.06733 0.00763677 0)
(1.06898 0.00887672 0)
(0.996428 0.0160908 -2.3196e-23)
(0.999938 0.000261165 2.17234e-21)
(0.999934 0.000367297 3.31636e-21)
(0.862115 0.129404 -8.07716e-21)
(0.8616 0.138276 1.34478e-21)
(1.06144 -0.00403718 9.12839e-21)
(1.01511 0.415144 3.72911e-20)
(1.00397 0.404207 -3.68213e-21)
(0.902694 0.166038 -9.51241e-21)
(1.14918 0.261431 3.56175e-20)
(1.15212 0.268875 0)
(1.15877 0.26186 -6.42214e-20)
(1.05792 0.0568876 7.67486e-21)
(1.06041 0.0569224 0)
(1.07979 -0.0229206 0)
(1.08232 -0.0245878 -1.34771e-20)
(1.01674 0.0153614 -5.37647e-21)
(1.01667 0.0147904 5.5746e-21)
(1.01617 0.0150557 6.20686e-21)
(1.08426 0.0172586 -1.21233e-20)
(1.08591 0.0169055 -1.34375e-20)
(1.08546 0.0188647 6.722e-22)
(1.0454 -0.00186784 7.69864e-21)
(1.04473 -0.000754616 1.93013e-20)
(1.05874 0.124728 1.77307e-20)
(1.05455 0.127605 -5.00112e-21)
(0.989006 0.0227693 0)
(0.988347 0.0224052 -4.09754e-22)
(0.989144 0.0219782 0)
(1.10431 0.0460999 0)
(-0.131963 -0.00107203 7.50567e-20)
(-0.129145 -0.00368228 -3.91654e-20)
(1.01935 0.0136116 1.31198e-20)
(1.01909 0.0142337 1.69467e-20)
(1.03622 0.0222439 -5.86516e-21)
(1.03671 0.0213009 -1.00992e-20)
(1.03759 0.0223165 1.94969e-21)
(0.349001 0.036114 -8.04183e-21)
(0.469205 0.0321512 -1.13073e-21)
(1.17769 0.0337836 -7.87771e-21)
(1.02105 0.0404926 -2.58291e-22)
(1.01952 0.0404885 5.00257e-22)
(0.996856 0.00363112 -2.06935e-21)
(0.996969 0.00386076 2.31081e-21)
(0.997139 0.00348491 5.39492e-22)
(0.988211 0.0778925 -8.96463e-22)
(0.985462 0.0767241 4.16671e-22)
(0.174141 0.0659858 1.0283e-20)
(0.275086 0.0507784 5.29417e-21)
(1.15509 0.100924 -1.95493e-20)
(1.14989 0.102449 -1.9087e-20)
(1.15181 0.0973687 1.079e-21)
(1.18779 0.199886 1.92553e-20)
(1.19013 0.206504 5.83638e-20)
(1.00033 0.000337949 -1.79486e-21)
(1.00028 0.000372311 3.38846e-21)
(1.01705 0.00170792 5.48423e-21)
(1.01738 0.00178294 1.38008e-20)
(1.00242 0.0233387 0)
(1.03439 0.0189673 1.1218e-20)
(1.0332 0.0189808 -6.87672e-23)
(1.29209 0.0996353 0)
(1.25573 0.0879701 0)
(0.993635 0.0189124 0)
(0.993809 0.0195871 0)
(0.993095 0.0194455 -9.20316e-23)
(0.997334 0.00447427 -4.35483e-21)
(0.997059 0.00465355 0)
(1.00497 0.0146418 -1.46268e-22)
(1.00528 0.0151062 3.62186e-21)
(1.0048 0.0150565 -8.17504e-21)
(0.977511 0.0058512 0)
(0.976314 0.00563488 7.00228e-22)
(1.12715 0.00608346 -4.23762e-20)
(1.12887 0.00258204 -6.40453e-21)
(1.12486 0.00356085 -1.68225e-20)
(0.962457 0.0630754 2.84897e-21)
(0.961572 0.065507 4.46307e-21)
(0.959735 0.0628446 -6.38014e-21)
(1.0643 0.255234 -6.94066e-21)
(1.0568 0.250414 -7.09495e-21)
(1.06572 0.246829 -6.82395e-21)
(0.154943 -0.00878648 0)
(0.242419 0.00453031 0)
(0.182501 -0.000153566 0)
(0.959904 0.0388864 4.86142e-21)
(0.958251 0.0373167 -8.87787e-22)
(0.662541 0.0551123 -5.12323e-20)
(0.551388 0.0466443 7.84676e-22)
(0.594603 0.0468142 4.88389e-20)
(1.00131 0.0199003 -2.95806e-22)
(1.00131 0.0192599 -1.8506e-21)
(1.00186 0.0195826 3.51919e-21)
(1.08285 0.0167403 -9.28872e-21)
(1.08252 0.0185741 -2.16593e-20)
(0.998496 0.00105688 3.25273e-21)
(0.998438 0.000859234 3.97548e-22)
(-0.219998 -0.000359864 0)
(-0.222933 -0.000790654 4.05969e-20)
(1.14662 0.21473 1.82788e-20)
(1.15086 0.209452 5.17145e-20)
(1.14378 0.208272 -2.33697e-20)
(1.13662 0.236812 0)
(1.23879 0.266347 0)
(1.23567 0.256588 -3.83715e-20)
(-0.120723 0.0789763 2.775e-20)
(1.01699 0.0054688 1.27123e-20)
(1.01713 0.00586088 -1.06239e-21)
(1.01742 0.00557246 -4.26729e-21)
(1.0687 0.00536713 1.12222e-20)
(1.07039 0.00646784 -1.74533e-21)
(0.99933 0.0304275 3.56001e-21)
(1.00031 0.0300568 1.20675e-21)
(0.969808 0.0732722 9.88311e-22)
(0.972912 0.0729288 2.26496e-21)
(0.970819 0.0703247 2.17281e-21)
(1.10957 0.0427138 0)
(1.00001 0.000773176 -3.99033e-21)
(1 0.000632324 -2.24538e-22)
(1 0.000630648 -3.95192e-21)
(1.03878 0.133484 3.46754e-21)
(1.04282 0.132085 2.22251e-21)
(1.04106 0.137736 7.50462e-21)
(1.01164 0.00132038 0)
(1.01157 0.00170511 0)
(1.0186 0.000464639 3.16231e-21)
(1.01872 0.000382893 9.19675e-21)
(1.01847 0.000305396 8.5425e-21)
(0.990125 0.0359382 2.24591e-21)
(1.06288 0.262121 0)
(1.07173 0.25887 1.18997e-20)
(0.999988 0.000203435 3.69423e-21)
(0.999992 0.000100662 3.35013e-21)
(0.999992 9.80855e-05 1.02871e-22)
(1.05593 0.051129 -1.10922e-20)
(1.05477 0.0530234 -2.14084e-20)
(0.978603 0.0171317 -4.0159e-22)
(0.978882 0.016147 -8.62285e-22)
(0.979669 0.0169746 -3.87242e-25)
(0.963597 0.0608651 0)
(0.965213 0.0632558 0)
(-0.141685 0.0241227 6.80704e-20)
(-0.136756 0.0378922 -6.86135e-20)
(-0.147448 0.0326695 -7.65554e-20)
(1.00075 0.0202153 -4.04369e-21)
(0.999311 0.000518068 -3.9611e-21)
(0.999321 0.000653797 -1.83905e-21)
(1.00259 0.00181539 -3.84713e-21)
(1.0026 0.00206324 2.59067e-21)
(1.00286 0.00200128 5.40933e-21)
(1.03882 0.0181284 0)
(1.03979 0.0175564 8.94856e-21)
(1.05693 0.165986 8.18054e-21)
(1.05814 0.172074 1.12062e-20)
(1.05154 0.168669 4.95068e-21)
(1.21594 0.0651933 -4.28941e-20)
(1.21965 0.0695589 3.85929e-20)
(0.920584 0.159003 -2.10352e-20)
(0.918396 0.166634 -1.00733e-20)
(0.889493 0.0801821 1.68273e-20)
(1.00667 0.0921916 -3.78316e-20)
(1.02687 0.100401 -4.63012e-20)
(1.12625 0.00908526 1.26327e-20)
(1.12976 0.00805883 -1.57078e-20)
(1.07613 0.072047 -1.45347e-20)
(1.07778 0.069535 0)
(0.977384 0.017254 4.34841e-22)
(1.01818 0.00111731 6.01897e-22)
(1.03991 0.0388761 4.91265e-22)
(1.04076 0.0378357 -1.12963e-20)
(1.03928 0.0375417 -1.14552e-20)
(1.00001 0.000200552 3.95816e-23)
(1.00002 0.000310083 3.41368e-21)
(1.24011 0.1269 2.41674e-20)
(1.26276 0.131127 4.53443e-20)
(1.23721 0.128521 -4.96251e-20)
(0.989678 0.0231187 8.65323e-22)
(0.988894 0.0237273 0)
(1.02178 0.0498559 -5.91676e-21)
(1.22116 -0.05474 -5.33897e-20)
(1.21417 -0.0527244 -1.36609e-20)
(1.21584 -0.0606425 -5.5922e-20)
(1.00481 0.0244347 -1.87446e-21)
(0.973005 0.0798349 -3.46083e-21)
(0.975329 0.0779744 9.35366e-22)
(0.975947 0.0812362 -8.41738e-22)
(0.967361 0.0500874 2.85199e-21)
(1.22632 -0.0593246 -1.10989e-21)
(1.22608 -0.0504788 -2.06265e-21)
(1.0441 0.0102059 -1.07645e-20)
(1.0448 0.00949542 -1.37822e-20)
(1.045 0.0107443 -2.77481e-20)
(0.937499 0.0623048 -5.34546e-21)
(0.940939 0.0645377 1.31153e-20)
(1.0192 0.200987 -4.59648e-21)
(1.01116 0.199762 -3.31701e-21)
(1.03406 0.135159 4.82096e-21)
(1.03605 0.129849 -7.23844e-21)
(1.02941 0.0678659 0)
(1.0318 0.0668481 -6.93066e-21)
(1.02929 0.0655728 0)
(0.993306 0.00981698 -1.81605e-24)
(0.993204 0.0103064 1.33671e-21)
(0.992833 0.0100075 1.40955e-22)
(0.780578 0.0640843 -1.17728e-20)
(0.802118 0.0729768 5.07561e-20)
(1.11663 0.169001 1.44583e-20)
(1.11605 0.175601 5.13092e-20)
(1.0532 0.0166523 -2.07622e-20)
(1.05478 0.0163231 1.13177e-20)
(1.05412 0.0175328 -8.23302e-21)
(1.06206 0.16302 3.52902e-21)
(1.05591 0.160504 -5.49623e-21)
(1.00112 0.00980102 -3.50621e-21)
(1.00092 0.0096062 -6.37157e-21)
(1.00099 0.0100302 3.98584e-21)
(1.0051 0.0126268 8.71575e-22)
(1.0047 0.0125407 -7.03589e-21)
(1.00136 0.010026 0)
(1.00125 0.00952674 -4.68393e-22)
(0.970024 0.0784512 -5.79288e-22)
(0.970592 0.0819453 -1.1783e-21)
(1.25305 0.275506 0)
(1.24407 0.268461 -3.19718e-20)
(1.2408 0.27666 3.65998e-20)
(1.07648 -0.00716621 -2.05603e-21)
(1.07522 -0.00892061 -3.02337e-20)
(1.07439 -0.00684598 -1.16097e-20)
(1.00001 0.000501462 0)
(1.00001 0.00064001 0)
(1.00002 0.000640868 0)
(0.961864 0.038124 -4.44775e-21)
(0.961496 0.0403579 -3.30074e-21)
(1 0.000104684 -8.46947e-23)
(1 0.000101333 1.3371e-22)
(0.999973 0.000296971 3.84906e-21)