/*--------------------------------*- C++ -*----------------------------------*\
| =========                 |                                                 |
| \\      /  F ield         | OpenFOAM: The Open Source CFD Toolbox           |
|  \\    /   O peration     | Version:  v2012                                 |
|   \\  /    A nd           | Website:  www.openfoam.com                      |
|    \\/     M anipulation  |                                                 |
\*---------------------------------------------------------------------------*/
FoamFile
{
    version     2.0;
    format      ascii;
    class       volScalarField;
    location    "400";
    object      k_0;
}
// * * * * * * * * * * * * * * * * * * * * * * * * * * * * * * * * * * * * * //

dimensions      [0 2 -2 0 0 0 0];


internalField   nonuniform List<scalar> 
18355
(
0.000223146
0.00013709
0.000231999
0.000140901
0.00021649
0.00515402
0.000146135
0.00021633
0.000152195
0.00394896
0.000159344
0.00019751
0.000199295
0.00145798
0.000142898
0.000135432
0.000140885
0.000155144
0.000212425
0.000152196
0.00030683
0.000149156
0.00013694
0.00530514
0.000137011
0.000149511
0.00014643
0.000141006
0.000152948
0.000160799
0.00627608
0.00018485
0.000137672
0.00013426
0.000145775
0.00015045
0.00015929
0.000150794
0.000161695
0.000148433
0.00015118
0.000160481
0.000134429
0.000136903
0.000137002
0.000235384
0.000141155
0.000141032
0.00532632
0.000144943
0.000141661
0.000443789
0.000145312
0.000205427
0.000143096
0.000152523
0.000144856
0.00647732
0.000150124
0.000815477
0.000134363
0.000185435
0.000205175
0.000144395
0.000194357
0.000139809
0.000154831
0.000159418
0.000133934
0.00396667
0.000142431
0.000143126
0.000176905
0.000156988
0.000333252
0.000134111
0.00659243
0.000134214
0.000142128
0.000276222
0.000154758
0.00102334
0.000134038
0.000157182
0.000180544
0.000148866
0.000153517
0.000171968
0.000140457
0.000172349
0.00209545
0.000275229
0.00124529
0.000144903
0.00745502
0.000146744
0.000140023
0.000144439
0.000180925
0.000148784
0.00017859
0.000141802
0.000144563
0.000130599
0.000155339
0.000135541
0.000194197
0.00772848
0.000165485
0.000135051
0.000141788
0.000146323
0.00016932
0.000156662
0.00025425
0.000162375
0.00014153
0.000443467
0.00015274
0.000154343
0.00512724
0.000239644
0.0014997
0.000176265
0.000446684
0.000242808
0.000146399
0.000141238
0.000194361
0.000147637
0.000140095
0.000469444
0.000143393
0.000180449
0.000204875
0.000140511
0.000212204
0.00559539
0.00014236
0.000293032
0.000156908
0.000265603
0.00014091
0.000605631
0.00020593
0.000146535
0.00187456
0.000131513
0.000169053
0.00627413
0.000140932
0.00015418
0.000144954
0.000178328
0.000134542
0.000138274
0.000141411
0.000148754
0.000140987
0.0001393
0.000156192
0.0001435
0.000135112
0.000208584
0.000158141
0.00225903
0.00295869
0.000237597
0.00916733
0.000156902
0.000145672
0.000179149
0.000147712
0.00416254
0.000145685
0.000150559
0.000145637
0.000130287
0.000151389
0.000163621
0.000149254
0.00190998
0.000148501
0.000141266
0.000726409
0.000144461
0.000150062
0.000172027
0.000143296
0.000147088
0.000237681
0.000180444
0.000137351
0.000134667
0.000143799
0.000263824
0.000139032
0.000780274
0.000137187
0.000944281
0.000144183
0.000151984
0.000162112
0.000149076
0.000229684
0.000146834
0.0116883
0.000141235
0.000137131
0.0001446
0.00014675
0.000898143
0.00015093
0.000147513
0.000131696
0.00307745
0.000163745
0.000156413
0.000147042
0.000141288
0.00016453
0.0001339
0.000170031
0.000175649
0.000230668
0.000159365
0.000134084
0.00609445
0.00023642
0.000171638
0.000144862
0.000155366
0.00515772
0.000134052
0.000218727
0.000138952
0.000149117
0.000238393
0.000155321
0.000147733
0.000137426
0.000151137
0.000146049
0.000169679
0.000146842
0.000143099
0.000140955
0.000677271
0.00349419
0.000143052
0.000146378
0.00375405
0.000205916
0.000178144
0.000130314
0.000260289
0.000155349
0.000147414
0.000158684
0.000139635
0.00618042
0.000433811
0.000178708
0.00016089
0.000163187
0.000231448
0.000212924
0.000183127
0.000139589
0.00014314
0.000148209
0.000135117
0.000151948
0.000156652
0.000140667
0.000146807
0.000166488
0.000140365
0.000193309
0.00224103
0.000162964
0.000146998
0.000163675
0.000134999
0.000171884
0.000146165
0.0001652
0.000148619
0.000164076
0.00398121
0.000137396
0.000170224
0.000152325
0.00015857
0.000210204
0.000145299
0.00013448
0.000191254
0.000146786
0.000256435
0.000159233
0.0178582
0.000171781
0.000179204
0.000153317
0.000169193
0.000144483
0.000153956
0.000160428
0.000170217
0.00249313
0.00153508
0.000142194
0.000158953
0.000200237
0.000164775
0.000142124
0.000140968
0.000140965
0.00017287
0.0014884
0.0592562
0.00246472
0.000165901
0.000156317
0.00172793
0.000131382
0.000146597
0.000156269
0.000144133
0.000171758
0.000145134
0.00318529
0.000135833
0.00179352
0.000143522
0.000148234
0.000154013
0.000202495
0.000274764
0.000169818
0.00175683
0.00014908
0.000140575
0.000144023
0.000159659
0.00456272
0.000140799
0.00014534
0.00310641
0.000148761
0.00014091
0.000206979
0.000157374
0.000140962
0.00014427
0.000166452
0.000151812
0.000166352
0.000135374
0.000145289
0.000148559
0.00031852
0.000775742
0.000135085
0.000140719
0.000198844
0.00014103
0.000147139
0.00246172
0.000815636
0.000170332
0.000143868
0.00014934
0.000199704
0.000149586
0.000256439
0.000154081
0.00013658
0.00020115
0.000206489
0.000148066
0.000144159
0.000155305
0.000146386
0.000156427
0.000143749
0.000213217
0.000146173
0.00015359
0.000142078
0.000141018
0.000151515
0.000149463
0.00017839
0.0453639
0.00206402
0.000153121
0.000205477
0.000179168
0.000143735
0.000144751
0.000169013
0.000143309
0.000172772
0.000145419
0.000160638
0.00140147
0.0011507
0.000271823
0.000181544
0.000130746
0.0404191
0.000148788
0.0001406
0.00031823
0.000143092
0.000180269
0.000137558
0.000200176
0.000143059
0.00017876
0.00377824
0.000176923
0.000144019
0.000137611
0.000177512
0.000152748
0.0001428
0.00314241
0.000319581
0.00014054
0.000169466
0.000178327
0.00013753
0.000149722
0.000167843
0.0014198
0.000169765
0.000148756
0.000144796
0.000166464
0.000144638
0.000136018
0.000143615
0.000396621
0.0405685
0.000136366
0.000151024
0.000145134
0.000204389
0.000205793
0.000134634
0.000180451
0.000170245
0.000145179
0.000260999
0.000185343
0.00014872
0.000146111
0.000168895
0.000206329
0.0183537
0.00013615
0.00736813
0.000142866
0.000136357
0.00017377
0.000153133
0.000216082
0.000176832
0.000153943
0.000158037
0.000149184
0.000205453
0.000153228
0.000159643
0.000149043
0.000135915
0.000147902
0.000136111
0.000184665
0.0461047
0.000199823
0.000156051
0.000146935
0.00014904
0.000145926
0.000153488
0.000145285
0.000135387
0.00014369
0.000171903
0.000137545
0.000145179
0.0406814
0.00126908
0.000201314
0.000147456
0.000150499
0.000168003
0.000148972
0.00632742
5.09795e-05
0.00015791
0.000157448
0.00015745
0.00015054
0.00015441
0.0206705
0.000167317
0.000149322
0.0041907
0.000147047
0.000343196
0.0377316
0.000155933
0.0001494
0.0237751
0.000140731
0.00017775
0.000185873
0.00343262
0.000153232
0.000147752
0.000145066
0.00326418
0.0154783
0.00267252
0.000706252
0.000152482
0.000144931
0.000157168
0.000143156
0.000156317
0.00029222
0.00217328
0.0506911
0.015097
0.000170647
0.000181547
0.000171346
0.000141218
0.00014217
0.00017345
0.000155702
0.000146366
0.000143104
0.00274707
0.000139931
0.0147923
0.000161728
0.000182198
0.000201773
0.000142222
0.000156661
0.0002659
0.000143651
0.0586336
0.000143505
0.00025966
0.000167456
0.000149189
0.000170916
0.000182376
0.000182633
0.000149956
0.00013392
0.000165448
0.000156244
0.000182176
0.000143474
0.000185965
0.000139877
7.79813e-05
0.000147182
0.000143568
0.000222391
0.000173017
0.000170477
0.000144567
0.000158251
0.000155474
0.00297005
0.0598732
0.000155352
0.000205993
0.000144863
0.00016337
0.000148253
0.000155033
0.0466965
0.000136812
0.002094
0.000146669
0.000145247
0.00015567
0.00623427
0.00015221
0.000199054
0.000148902
0.000165726
0.00531073
0.000131517
0.000141017
0.00350839
0.000171773
0.0430943
0.000177865
0.000147686
0.000143115
0.000142828
0.000157047
0.000149531
0.000136748
0.000221154
0.000508563
0.000143353
0.0011278
0.00127184
0.000157464
0.000235209
0.000136231
0.000258206
0.0025237
0.000132561
0.0059149
0.000167905
0.000664119
0.00314201
0.000143244
0.000142764
0.00014755
0.00124868
0.000172264
0.000144434
0.000148955
0.000218872
0.00014852
0.000168472
0.00014357
0.000166864
0.0567354
0.00243379
0.000230935
0.00188964
0.000173568
0.00521033
0.00015744
0.000140579
0.000161036
0.00306899
0.000177868
0.00017125
0.000144212
0.000235286
0.000145314
0.000147985
0.0582795
0.000148387
0.000161926
0.000195322
0.000195442
0.000144559
0.000142876
0.000155558
0.000159122
0.000133992
0.000146815
0.000173384
0.000208835
0.000153442
0.000145462
0.000174564
0.00474961
0.000143641
0.00135719
0.000255074
0.000145074
0.0105499
0.000134573
0.000244946
0.000143645
0.000138598
0.000221795
0.000153791
0.00191076
0.000153092
0.000142891
0.0158335
0.000143619
0.000134882
0.000145653
0.000140678
0.000162832
0.000170357
0.000274404
0.000151783
0.0570227
0.000153509
0.00109939
0.00213741
0.000149895
0.000143976
0.000158236
0.000136415
0.000192174
0.000142451
0.000134751
0.000135531
0.000144246
0.000143576
0.000248682
0.000157052
0.000171124
0.000152364
0.000158683
0.000155366
0.000166764
0.000394167
0.000137459
0.000184566
0.000176804
0.000134244
0.00152995
0.055972
0.000141315
0.000571456
0.000145041
0.00487002
0.000165572
0.00013239
0.000165769
0.000160092
0.000830784
0.000142042
0.000154651
0.00210027
0.000207392
0.000210197
0.000143545
0.00337481
0.000183277
0.000254878
0.000143483
0.000152209
0.000142935
0.000146053
0.000141999
0.000145203
0.000136827
0.000719661
0.000168863
0.000141203
0.000134189
0.00014027
0.000148477
0.000202855
0.00018262
0.000137385
0.000159142
0.000146537
0.000146735
0.00014533
0.000140823
0.000233804
0.0001342
0.000140237
0.000149673
0.000147212
0.000152509
0.000146612
0.000244975
0.00027535
0.000155623
0.000140081
0.000204918
0.000134641
0.000134271
0.000146436
0.000232082
0.000156106
0.00014533
0.000135802
0.000137242
0.000158092
0.000133863
0.000159525
0.000142349
0.00014829
0.000141902
0.000152018
0.000662212
0.000140516
0.000148868
0.000143573
0.000223451
0.00376714
0.000158627
0.000149531
0.000179064
0.0001628
0.000231277
0.0133529
0.000149235
0.00235954
0.000148977
0.0131472
0.000150138
0.000136854
0.000135784
0.00582381
0.000135371
0.000158853
0.000211202
0.000211346
0.000180147
0.000154263
0.000142502
0.000143765
0.000143468
0.000160043
0.00018742
0.0031806
0.000171395
0.00014538
0.000133879
0.000155381
0.000141835
0.000141
0.000148446
0.000171148
0.000162854
0.0023257
0.000145302
0.000144337
0.00017383
0.000143164
0.000206532
0.000171646
0.000174406
0.000200126
0.000678624
0.000164828
0.000141189
0.000133954
0.000147516
0.000142944
0.00303221
0.000171956
0.00019104
0.000136836
0.000147044
0.000154947
0.000141262
0.0105703
0.000246837
0.000134288
0.000135691
0.000142774
0.00014202
0.000140866
0.000144259
0.000232735
0.000134809
0.000149598
0.00013686
0.000137924
0.000142122
0.000145829
0.000158643
0.000137878
0.000172476
0.000135754
0.00170365
0.000232084
0.000154098
0.00324325
0.000153174
0.000148718
0.000179096
0.00216966
0.000144516
0.000140287
0.000137039
0.000173527
0.000150943
0.000164759
0.000583672
0.000146264
0.000149619
0.000144611
0.014075
0.00166779
0.000151869
0.000139378
0.000156337
0.00017138
0.000142245
0.000181723
0.000140331
0.000133854
0.000155858
0.000272444
0.00150867
0.00439601
0.000234709
0.000134532
0.000229374
0.000207789
0.000158548
0.000143449
0.000207894
0.000157947
0.000238217
0.000272006
0.000141819
0.000134604
0.000144648
0.000149349
0.000134721
0.00299637
0.00307194
0.000134573
0.000146483
0.000149185
0.000166895
0.000143965
0.000141972
0.000212752
0.00014843
0.000142391
0.0031919
0.000184592
0.000182822
0.000142767
0.000135882
0.00013478
0.00014644
0.000166514
0.000180027
0.000140556
0.000139112
0.000152409
0.00309788
0.000137082
0.000143901
0.000182417
0.000140947
0.000139202
0.000143577
0.000501772
0.000135698
0.000144425
0.000137151
0.000154
0.000135705
0.000158392
0.000203004
0.000143933
0.000213717
0.000162191
0.000222359
0.000175442
0.000140841
0.000160001
0.000140457
0.000139078
0.000140847
0.0039943
0.00422107
0.000215563
0.000159406
0.00225692
0.000180033
0.000149591
0.000186147
0.000209923
0.000154249
0.000135382
0.00097728
0.000150025
0.000140509
0.000137712
0.000272639
0.000480386
0.00035978
0.000138925
0.000187346
0.00269338
0.000169753
0.000168216
0.000156188
0.000154854
0.000164805
0.0038947
0.000152245
0.000150163
0.000157955
0.0336146
0.000248157
0.00014389
0.000146263
0.000143118
0.00285883
0.000153362
0.000148761
0.00174364
0.000158284
0.000176764
0.000156125
0.00594455
0.000138634
0.0132841
0.00014983
0.000135681
0.000141258
0.000135673
0.000135724
0.000140751
0.000148046
0.000123445
0.00013813
0.0140547
0.000158721
0.000147422
0.000140837
0.000183795
0.000143252
0.000146346
0.000154721
0.00726209
0.000203433
0.000153777
0.000146384
0.0352402
0.000138604
0.000173213
0.000146162
0.000332356
0.0001697
0.00476207
0.000159875
0.000142795
0.000259044
0.00285299
0.000249873
0.000137711
0.000143514
0.000166753
0.0474984
0.000131043
0.000173316
0.000143405
0.000159277
0.0001404
0.000134654
0.000148543
0.000150045
0.000135057
0.000177101
0.000174108
0.000160469
0.000199729
0.000588632
0.000150377
0.00251153
0.000136076
0.000192071
0.000496116
0.000210382
0.000134441
0.000148796
0.000145938
0.0188726
0.000144589
0.000140604
0.000186106
0.000146287
0.000146169
0.000151066
0.000149627
0.000142915
0.0404946
0.00467057
0.000176691
0.000139169
0.000145272
0.000231382
0.000136115
0.000269138
0.000146926
0.000145733
0.000149167
0.000157152
0.000230855
0.000140827
0.000145046
0.00855717
0.000146918
0.000148453
0.000166911
0.00429345
0.00358148
0.000144341
0.000143445
0.0552862
0.00316831
0.000237084
0.000140813
0.000164549
0.000218157
0.000137675
0.000227667
0.00015231
0.00368183
0.00015497
0.000146052
0.000150424
0.000135591
0.0497604
0.000144924
0.000138814
0.0034164
0.000190503
0.00109258
0.000135117
0.000152081
0.000135368
0.000132126
0.000136048
0.000149532
0.000146541
0.000148705
0.0001356
0.000148278
0.000172872
0.000160575
0.000161488
0.000140295
0.000154488
0.000141938
0.00444402
0.000147146
0.000149794
0.000147458
0.000135794
0.000148505
0.000154863
0.00014378
0.000143226
0.000141252
0.000136101
0.0102684
0.000497775
0.000144354
0.0453647
0.000165738
0.00014919
0.000147683
0.000150251
0.00744942
0.000147707
0.000136037
0.000134516
0.000134449
0.000220004
0.000144398
0.000136855
0.000226221
0.000133987
0.000133385
0.000182324
0.000190157
0.000216776
0.00020134
0.0364826
0.000136073
0.00663635
0.000157678
0.000143031
0.000136877
0.000162631
0.000143126
0.000164181
0.000176035
0.000152924
0.00015135
0.0587431
0.000169919
0.00474652
0.00725811
0.00208851
0.000227252
0.000138945
9.53834e-05
0.000487308
0.000134992
0.00553666
0.000138912
0.00015086
0.000201815
0.000140457
0.000274386
0.000158551
0.000152716
0.000148602
0.000240725
0.000143831
0.0138879
0.000142806
0.000136033
0.00648979
0.000133665
0.000151597
0.000148506
0.00017418
0.000142236
0.000144022
0.000153143
0.0016986
0.000144057
0.000144342
0.000136597
0.000154818
0.00014232
0.000150854
0.00136316
0.000141373
0.000157534
0.000148014
0.000156623
0.000170603
0.000140423
0.000148857
0.000189029
0.000146736
0.000148045
0.000160545
0.00643948
0.000150459
0.000141734
0.000143929
0.000160962
0.000217131
0.000151094
0.000140975
0.000141284
0.000137747
0.000131963
0.000135405
0.000159207
0.000210431
0.00017476
0.000146584
0.00244293
0.000139726
0.000145632
0.0406353
0.000171549
0.000134036
0.000182887
0.000147588
0.00014096
0.0037988
0.000148299
0.000173537
0.000132457
0.000204413
0.000139268
0.00013461
0.00013596
0.00110316
0.000230094
0.000146542
0.000245102
0.000135783
0.00014221
0.000139042
0.000203261
0.00014498
0.000138512
0.000149672
0.000152288
0.000142947
0.000145613
0.000140564
0.000147978
0.00014646
0.000140325
0.000154161
0.000135141
0.000472694
0.000177522
0.000136344
0.000257997
0.000157942
0.000140745
0.000139952
0.000151278
0.000140716
0.00016111
0.000155768
0.000198095
0.000198976
0.000147452
0.000182085
0.00020475
0.000142942
0.000147179
0.000183926
0.00015288
0.00618506
0.000135581
0.000144222
0.000152078
0.000147784
0.000146602
0.00015724
0.000140489
0.000167069
0.000143875
0.000153825
0.000139371
0.000197032
0.000144777
0.00015457
0.000210443
0.000142856
0.00373368
0.00224984
0.000154176
0.00015821
0.000162559
0.00013428
0.000193798
0.000145401
0.000166267
0.00141929
0.000520071
0.000238387
0.000172913
0.000162319
0.000142894
0.000164964
0.000138741
0.0286102
0.000205518
0.00014671
0.000140776
0.000253441
0.000175501
0.000142749
0.000143084
0.000315388
0.000147741
0.000138423
0.00687072
0.000175072
0.000134874
0.000239853
0.000136097
0.000241029
0.000175793
0.000142972
0.000144261
0.000155763
0.000328114
0.000140217
0.000158863
0.000144242
0.000143
0.000139783
0.000989588
0.000148252
0.0001448
0.000144073
0.000229634
0.000159244
0.000140393
0.000132856
0.000191124
0.000142148
0.000136918
0.000255895
0.00547985
0.000148814
0.000245516
0.000156074
0.00017252
0.000149753
0.000175555
0.00427474
0.000148255
0.000142136
0.000137087
0.000155726
0.000142714
0.00229475
0.000485321
0.000137448
0.000150413
0.000136421
0.000135481
0.0539732
0.000142802
0.000151428
0.000152228
0.000229159
0.000144466
0.000147859
0.000155801
0.00431812
0.000146562
0.000144877
0.00013736
0.000138401
0.000155181
0.000171634
0.000146768
0.000142098
0.000144667
0.000143265
0.000137113
0.0381248
0.000147747
0.000143459
0.000141859
0.000176891
0.000136547
0.000136934
0.000167539
0.000142392
0.000183948
0.000144125
0.000144434
0.00268192
0.0361387
0.000428591
0.00020552
0.000157158
0.000147898
0.0616462
0.000139835
0.000155736
0.000135077
0.00670512
0.000130438
0.000155621
0.000144557
0.00103565
0.000178261
0.000221128
0.0610974
0.00015135
0.000196828
0.000148006
0.000149274
0.0556004
0.000165402
0.000142093
0.000136032
0.000154332
0.000163618
0.000143954
0.000144705
0.000139825
0.000134884
0.000223504
0.00510779
0.000148049
0.000158063
0.00736147
0.000357084
0.00015278
0.000148745
0.000152968
0.00015498
0.00014232
0.000150547
0.000367492
0.000140269
0.000136302
0.000146149
0.000405381
1.32165e-05
0.000157619
0.000146625
0.000146931
0.000160251
0.000143671
0.000159403
0.000175431
0.000227391
0.000154085
0.000440423
0.000134684
0.000142781
0.00014835
0.000135324
0.000147043
0.000140035
0.000233333
0.000140916
0.00189332
0.000144975
0.00013907
0.000137621
0.000195356
0.000151171
0.000170975
0.000184239
0.000135906
0.0506516
0.000157046
0.000138023
0.000133372
0.00376196
0.000244338
0.000133615
0.000140586
0.000140949
0.000150405
0.000212229
0.000233224
0.000150164
0.000149453
0.000202009
0.0617684
0.000149476
0.000142586
0.00311324
0.000154483
0.00170887
0.000153586
0.000142291
0.000176492
0.000176262
0.0362728
0.000183298
0.000433491
0.0001369
0.000142205
0.000148893
0.000146526
0.000154517
0.000147832
0.000146106
0.000139497
0.000147932
0.000146686
0.000155036
0.000144511
0.000152642
0.000149078
0.000143607
0.000141699
0.000173953
0.000161136
0.000140358
0.000145187
0.000218673
0.000145013
0.000148865
0.000148607
0.0004472
0.000136953
0.000167624
0.000152236
0.000135958
0.000143667
0.0505442
0.000223768
0.000149666
0.000151379
0.000154531
0.000171264
0.000140017
0.000162099
0.000181077
0.000141213
0.000187301
0.000141019
0.000143202
0.00014697
0.000148321
0.000160847
0.000160298
0.0536029
0.000173208
0.000136141
0.000144929
0.00014323
0.000216834
0.000149097
0.00117087
0.000139731
0.00014381
0.000143476
0.000180807
0.000142471
0.000146536
0.000144143
0.000200665
0.000137027
0.0386963
0.000137038
0.00016563
0.000144662
0.000161204
0.000140789
0.000153984
0.000377697
0.000218713
0.000136214
0.00018059
0.000145183
0.000145885
0.0466436
0.000561893
0.000136211
0.000142727
0.000153919
0.000135872
0.000144024
0.000148444
0.000147609
0.000158242
0.000174156
0.000150219
0.000158379
0.000216984
0.000147391
0.000140812
0.000142077
0.000154412
0.000161992
0.00014411
0.0447743
0.000140633
0.0623092
0.000167074
0.000136437
0.000140242
0.000139975
0.000156212
0.000146301
0.000153649
0.000146131
0.000142303
0.000869095
0.000152555
0.000171068
0.00014724
0.000145535
0.000151618
0.000143141
0.000152363
0.000143418
0.000152455
0.000149392
0.000148651
0.00904964
0.000169964
0.00387734
0.000140903
0.00018096
0.00015144
0.0031872
0.000181151
0.00711582
0.000150676
0.000134757
0.000169298
0.000142242
0.00517652
0.000149746
0.000188364
0.000151173
0.0532782
0.0396792
0.000154314
0.00017104
0.000139432
0.000137474
0.000148572
0.00013458
0.000147973
0.000153011
0.000139455
0.000163576
0.00020417
0.00244552
0.000140627
0.000275292
0.0001346
0.000142369
0.0001435
0.00018855
0.000147735
0.000259622
0.000148179
0.000143873
0.0385162
0.000140181
0.000153397
0.000142205
0.000156482
0.00698839
0.000167058
0.0321005
0.000146194
0.000180855
0.000152738
0.000141706
0.000144239
0.000205483
0.000165135
0.00014307
0.000151802
0.000143157
0.00960278
0.000139094
0.000835467
0.000151097
0.000180489
0.000158546
0.000227754
0.000191832
0.000134573
0.00355244
0.000142328
0.0129172
0.000148775
0.000151991
0.00439443
0.00458446
0.000161033
0.0136721
0.000143529
0.00215707
0.000131166
0.000407895
0.000135176
0.000157696
0.000189024
0.000145648
0.000139177
0.000149469
0.00014438
0.000173901
0.00326719
0.000168305
0.00164496
0.000141454
0.00157883
0.000144308
0.000146953
0.000142921
0.000144642
0.00564844
0.000147121
0.000138021
0.000166657
0.00014816
0.00411877
0.000199974
0.000142946
0.000206321
0.000166861
0.000140491
0.000144775
0.000155679
0.000136525
0.000175872
0.000162995
0.000151181
0.000150931
0.000137303
0.000146514
0.000176483
0.000149238
0.000144911
0.000150305
0.000134886
0.000135465
0.0132205
0.00016221
0.0530762
0.000159433
0.000174836
0.000159367
0.000142003
0.000167316
0.000139342
0.000140764
0.00110484
0.000165077
0.000180253
0.000173692
0.000147711
0.000244942
0.0143752
0.000143896
0.00016329
0.00018977
0.0499202
0.000136375
0.000138351
0.000147366
0.00018622
0.00207454
0.000165332
0.00015434
0.000148336
0.000142007
0.000135556
0.00332246
0.000153779
0.000157884
0.0047513
0.000146712
0.000154128
0.000156596
0.000145006
0.000142761
0.000143509
0.000175581
0.000194265
0.000148608
0.000151519
0.000250131
0.000142385
0.000149302
0.000154351
0.000146739
0.00412641
0.00594877
0.000759463
0.00019999
0.00110065
0.00015266
0.000139778
0.00026789
0.00015852
0.000161622
0.000143264
0.000135322
0.00430686
0.000737284
0.000141386
0.000139619
0.000162678
0.00026101
0.000154509
0.000135301
0.0462217
0.000152522
0.000166508
0.000134938
0.000159586
0.000131201
0.000150596
0.000159799
0.000142011
0.0379376
0.000149207
0.00016819
0.000197418
0.00215769
0.000192277
0.00014218
0.000177615
0.000155337
0.000162272
0.00015083
0.000154858
0.000145324
0.000152533
0.00165763
0.000151931
0.00164796
0.000140041
0.000220727
0.000135927
0.000148876
0.001126
0.000155743
0.000219643
0.00017062
0.000149614
0.0417127
0.0492349
0.000140011
0.0412017
0.000174072
0.000138865
0.000133929
0.000318425
0.0343597
0.000138944
0.000136113
0.000144434
0.000136637
0.0621479
0.00025486
0.000130262
0.000133095
0.00013993
0.000235026
0.000172543
0.00433309
0.000135866
0.000750549
0.000146822
0.000185539
0.0338716
0.000164451
0.000139214
0.000139604
0.00409235
0.000136641
0.00014123
0.000136321
0.000163472
0.000152652
0.0451785
0.00016363
0.000148501
0.000142343
0.00015805
0.000218391
0.000185897
0.000141663
0.000141969
0.000205831
0.000173331
0.00014979
0.00233288
0.000162954
0.000153069
0.0569379
0.000151841
0.000160084
0.000148379
0.0030122
0.000145194
0.000148658
0.00170786
0.000159443
0.00014116
0.000143306
0.000131234
0.00017912
0.000194798
0.000141042
0.000135993
0.000149755
0.000180895
0.000164627
0.000135075
0.000142766
0.000139173
0.000154512
0.000169786
0.000146313
0.000143101
0.0506115
0.000141953
0.00212918
0.000164009
0.000168374
0.000152563
0.000150801
0.000144963
0.0112262
0.000192023
0.000180862
0.043483
0.000163399
0.000140079
0.0404266
0.000136288
0.000182742
0.0613837
0.000155199
0.000141759
0.000154609
0.000180862
0.000142609
0.000143508
0.0305289
0.000142866
0.000152351
0.00014203
0.000146676
0.000137355
0.000196894
0.000198597
0.000135659
0.000141065
2.2938e-05
0.00014252
0.000136726
0.00014086
0.000140809
0.000330439
0.000161398
0.000153409
0.000153956
0.00014924
0.000137542
0.000175623
0.00019288
0.000158654
0.000190777
0.000153227
0.000154875
0.0444682
0.000140097
0.000136299
0.000143599
0.000140587
0.000148678
0.000132634
0.000149826
0.0604422
0.000144781
0.000141777
0.000156001
0.000140792
0.00151984
0.000147663
0.040637
0.000221286
0.000175122
0.000161673
0.00218905
0.000159367
0.000143056
0.000153654
0.000140473
0.000151566
0.000147484
0.00014791
0.0356137
0.000135853
0.000143763
0.000170498
4.87107e-05
0.000147845
0.000139739
0.00021749
0.000150774
0.000184627
0.000143045
0.000139867
0.000144431
0.0121118
0.000146183
0.000129418
0.000173549
0.000150207
0.000139652
0.0001435
0.000160956
0.0036168
0.000135721
0.000181246
0.00014176
0.0379947
0.000233043
0.000149296
0.000212413
0.000146105
0.000153432
0.000154309
0.00026511
0.000160583
0.00015793
0.000159225
0.00537454
0.0001474
0.000178278
0.000144512
0.000208683
0.000203298
0.000218692
0.000143097
0.000165232
0.00234834
0.00438262
0.000154342
0.000154958
0.00323201
0.00321956
0.000140408
0.000176231
0.000143237
0.000156286
0.000145893
0.000152619
0.00015186
0.0168122
0.000147171
0.000148135
0.000174951
0.0055887
0.00693362
0.000196846
0.00531495
0.000139917
0.00264392
0.000176307
0.000142149
0.000141732
0.00543796
0.000156608
0.000145073
0.00014257
0.000173881
0.000138662
0.000142803
0.00401621
0.00014552
0.000148237
0.000141101
0.000143816
0.00015138
0.000138786
0.0568289
0.000170142
0.000152334
0.000139345
0.000165716
0.0135328
0.000142669
0.000148099
0.00374064
0.000219569
0.000143448
0.000154899
0.000138732
0.000140399
0.000194076
0.000210711
0.000140437
0.000143471
0.00357158
0.000321484
0.00058692
0.000184116
0.000149016
0.00452941
0.00014074
0.000155904
0.000154846
0.000139765
0.0358228
0.000226902
0.000167497
0.000182626
0.000557652
0.000133938
0.000133093
0.000151709
0.000168642
0.00248851
0.000136457
0.000172522
0.00800747
0.00288683
0.00014704
0.000151202
0.000268886
0.000142914
0.000155541
0.00629564
0.000140859
0.000142471
0.0001389
0.000243256
0.000141593
0.000164657
0.000148887
0.000219301
0.000163348
0.00489953
0.000143056
0.000142145
0.000162927
0.00014752
0.000179669
0.000149384
0.000190149
0.000196819
0.000140797
0.000144301
0.056186
0.00640383
0.00070699
0.000139064
0.000143355
0.00015585
0.000145271
0.000143097
0.000143984
0.000149821
0.000148473
0.000139536
0.000139746
0.000179417
0.000152224
0.000172064
0.000591324
0.000177131
0.000172979
0.00015725
0.000200506
0.000209283
0.000161968
0.000155759
0.00016047
0.000141707
0.0108559
0.000136254
0.000135747
0.000140624
0.00487578
0.000142658
0.00473372
0.000148083
0.000134941
0.00018498
0.000142896
0.000142206
0.000142873
0.000201606
0.0002425
0.000147108
0.000139791
0.000151752
0.0143136
0.000172746
0.00393122
0.000143204
0.000172712
0.000146631
0.000145581
0.000136073
0.000138907
0.000143363
0.000159223
0.000269695
0.000152011
0.00015199
0.000195399
5.14845e-05
0.000198999
0.000142233
0.000186221
0.000163651
0.00484396
0.000137924
0.000142726
0.000155071
0.000304301
0.000132385
0.000144489
0.000138868
0.000136583
0.000198103
0.000153423
0.000187441
0.000149438
0.000132171
0.000170901
0.000143961
0.00210631
0.000143934
0.000165345
0.000147964
0.000159188
0.000149396
0.00017602
0.00408513
0.000142461
0.000186259
0.0166301
0.000141648
0.000146514
0.000169507
0.000131844
0.0494743
0.000182109
0.000142561
0.000175871
0.000134152
0.000148694
0.000147526
0.000141657
0.000136421
0.000149985
0.000140374
0.000138789
0.000145197
0.000147982
0.000172404
0.000136214
0.000201206
0.000138563
0.000140338
0.000159336
0.000173282
0.000149795
0.000131949
0.000142386
0.000154369
0.000172053
0.0156461
0.000164013
0.000149122
0.000149057
0.000139539
0.000161644
0.000140657
0.00015239
0.000536173
0.000237378
0.000172425
0.000141373
0.000147899
0.000149949
0.000132069
0.000188017
0.000134812
0.000229451
0.000149358
0.000222065
0.000158547
0.000297127
0.000146838
0.000179553
0.044615
0.00420987
0.000942511
0.000157871
0.00521144
0.00391868
0.000148723
0.000164934
0.0371521
0.000138753
0.000139019
0.000143881
0.000155983
0.000329815
0.000145799
0.000159382
0.00499813
0.000130284
0.000144517
0.000403033
0.00889648
0.000191865
0.00121451
0.00609799
0.000150029
0.000191696
0.000152281
0.000153249
0.00477965
0.000154741
0.0518251
0.000166122
0.00015386
0.000145835
0.000151252
0.000158978
0.000139309
0.0394912
0.000132287
0.000142813
0.000143252
0.000979002
0.0442804
0.000228118
0.000144622
0.000150238
0.000138836
0.0619006
0.000142824
0.00014961
0.00015413
0.000189337
0.000138643
0.00017988
0.0336009
0.00468386
0.000147308
0.00119808
0.00013941
0.00425532
0.000132689
0.000286446
0.00014947
0.000180307
0.000158528
0.000302077
0.000200525
0.000152593
0.00015233
0.000191817
0.000155501
0.00014183
0.000138723
0.000157517
0.000147939
0.00235015
0.000131666
0.000142729
0.000144164
0.00014375
0.00182114
0.000139327
0.000134587
0.00014654
0.00172068
0.000163732
0.000175009
0.0001524
0.000151251
0.000181758
0.000139687
0.000143177
0.000183627
0.00017068
0.000134602
0.00017235
0.0001525
0.00268492
0.000142692
0.00025388
0.00014927
0.000143042
0.000135263
0.000134893
0.000142219
0.000141333
0.0143991
0.00017923
0.000146719
0.000143093
0.000142259
0.00015329
0.000158504
0.0547913
0.000145747
0.000198946
0.000165068
0.00466855
0.00014714
0.000171691
0.000143047
0.000142724
0.000164298
0.000142545
0.00014558
0.000140329
0.000136216
0.0389011
0.000143531
0.000139277
0.000230646
0.00509487
0.000193131
0.000147696
0.000135004
0.000155221
0.0385965
0.00015341
0.000147858
0.000146713
0.0160497
0.000148475
0.000143925
0.011354
0.000141272
0.000156292
0.000156399
0.000146387
0.000135945