/*--------------------------------*- C++ -*----------------------------------*\
| =========                 |                                                 |
| \\      /  F ield         | OpenFOAM: The Open Source CFD Toolbox           |
|  \\    /   O peration     | Version:  v2012                                 |
|   \\  /    A nd           | Website:  www.openfoam.com                      |
|    \\/     M anipulation  |                                                 |
\*---------------------------------------------------------------------------*/
FoamFile
{
    version     2.0;
    format      ascii;
    class       pointVectorField;
    location    "400";
    object      pointDisplacement;
}
// * * * * * * * * * * * * * * * * * * * * * * * * * * * * * * * * * * * * * //

dimensions      [0 1 0 0 0 0 0];


internalField   nonuniform List<vector> 
18854
(
(0 0 0)
(0 0 0)
(0 0 0)
(0 0 0)
(0 0 0)
(0 0 0)
(0 0 0)
(0 0 0)
(0 0 0)
(0 0 0)
(0 0 0)
(0 0 0)
(0 0 0)
(0 0 0)
(0 0 0)
(0 0 0)
(0 0 0)
(0 0 0)
(0 0 0)
(0 0 0)
(0 0 0)
(0 0 0)
(0 0 0)
(0 0 0)
(0 0 0)
(0 0 0)
(0 0 0)
(0 0 0)
(0 0 0)
(0 0 0)
(0 0 0)
(0 0 0)
(0 0 0)
(0 0 0)
(0 0 0)
(0 0 0)
(0 0 0)
(0 0 0)
(0 0 0)
(0 0 0)
(0 0 0)
(0 0 0)
(0 0 0)
(0 0 0)
(0 0 0)
(0 0 0)
(0 0 0)
(0 0 0)
(0 0 0)
(0 0 0)
(0 0 0)
(0 0 0)
(0 0 0)
(0 0 0)
(0 0 0)
(0 0 0)
(0 0 0)
(0 0 0)
(0 0 0)
(0 0 0)
(0 0 0)
(0 0 0)
(0 0 0)
(0 0 0)
(0 0 0)
(0 0 0)
(0 0 0)
(0 0 0)
(0 0 0)
(0 0 0)
(0 0 0)
(0 0 0)
(0 0 0)
(0 0 0)
(0 0 0)
(0 0 0)
(0 0 0)
(0 0 0)
(0 0 0)
(0 0 0)
(0 0 0)
(0 0 0)
(0 0 0)
(0 0 0)
(0 0 0)
(0 0 0)
(0 0 0)
(0 0 0)
(0 0 0)
(0 0 0)
(0 0 0)
(0 0 0)
(0 0 0)
(0 0 0)
(0 0 0)
(0 0 0)
(0 0 0)
(0 0 0)
(0 0 0)
(0 0 0)
(0 0 0)
(0 0 0)
(0 0 0)
(0 0 0)
(0 0 0)
(0 0 0)
(0 0 0)
(0 0 0)
(0 0 0)
(0 0 0)
(0 0 0)
(0 0 0)
(0 0 0)
(0 0 0)
(0 0 0)
(0 0 0)
(0 0 0)
(0 0 0)
(0 0 0)
(0 0 0)
(0 0 0)
(0 0 0)
(0 0 0)
(0 0 0)
(0 0 0)
(0 0 0)
(0 0 0)
(0 0 0)
(0 0 0)
(0 0 0)
(0 0 0)
(0 0 0)
(0 0 0)
(0 0 0)
(0 0 0)
(0 0 0)
(0 0 0)
(0 0 0)
(0 0 0)
(0 0 0)
(0 0 0)
(0 0 0)
(0 0 0)
(0 0 0)
(0 0 0)
(0 0 0)
(0 0 0)
(0 0 0)
(0 0 0)
(0 0 0)
(0 0 0)
(0 0 0)
(0 0 0)
(0 0 0)
(0 0 0)
(0 0 0)
(0 0 0)
(0 0 0)
(0 0 0)
(0 0 0)
(0 0 0)
(0 0 0)
(0 0 0)
(0 0 0)
(0 0 0)
(0 0 0)
(0 0 0)
(0 0 0)
(0 0 0)
(0 0 0)
(0 0 0)
(0 0 0)
(0 0 0)
(0 0 0)
(0 0 0)
(0 0 0)
(0 0 0)
(0 0 0)
(0 0 0)
(0 0 0)
(0 0 0)
(0 0 0)
(0 0 0)
(0 0 0)
(0 0 0)
(0 0 0)
(0 0 0)
(0 0 0)
(0 0 0)
(0 0 0)
(0 0 0)
(0 0 0)
(0 0 0)
(0 0 0)
(0 0 0)
(0 0 0)
(0 0 0)
(0 0 0)
(0 0 0)
(0 0 0)
(0 0 0)
(0 0 0)
(0 0 0)
(0 0 0)
(0 0 0)
(0 0 0)
(0 0 0)
(0 0 0)
(0 0 0)
(0 0 0)
(0 0 0)
(0 0 0)
(0 0 0)
(0 0 0)
(0 0 0)
(0 0 0)
(0 0 0)
(0 0 0)
(0 0 0)
(0 0 0)
(0 0 0)
(0 0 0)
(0 0 0)
(0 0 0)
(0 0 0)
(0 0 0)
(0 0 0)
(0 0 0)
(0 0 0)
(0 0 0)
(0 0 0)
(0 0 0)
(0 0 0)
(0 0 0)
(0 0 0)
(0 0 0)
(0 0 0)
(0 0 0)
(0 0 0)
(0 0 0)
(0 0 0)
(0 0 0)
(0 0 0)
(0 0 0)
(0 0 0)
(0 0 0)
(0 0 0)
(0 0 0)
(0 0 0)
(0 0 0)
(0 0 0)
(0 0 0)
(0 0 0)
(0 0 0)
(0 0 0)
(0 0 0)
(0 0 0)
(0 0 0)
(0 0 0)
(0 0 0)
(0 0 0)
(0 0 0)
(0 0 0)
(0 0 0)
(0 0 0)
(0 0 0)
(0 0 0)
(0 0 0)
(0 0 0)
(0 0 0)
(0 0 0)
(0 0 0)
(0 0 0)
(0 0 0)
(0 0 0)
(0 0 0)
(0 0 0)
(0 0 0)
(0 0 0)
(0 0 0)
(0 0 0)
(0 0 0)
(0 0 0)
(0 0 0)
(0 0 0)
(0 0 0)
(0 0 0)
(0 0 0)
(0 0 0)
(0 0 0)
(0 0 0)
(0 0 0)
(0 0 0)
(0 0 0)
(0 0 0)
(0 0 0)
(0 0 0)
(0 0 0)
(0 0 0)
(0 0 0)
(0 0 0)
(0 0 0)
(0 0 0)
(0 0 0)
(0 0 0)
(0 0 0)
(0 0 0)
(0 0 0)
(0 0 0)
(0 0 0)
(0 0 0)
(0 0 0)
(0 0 0)
(0 0 0)
(0 0 0)
(0 0 0)
(0 0 0)
(0 0 0)
(0 0 0)
(0 0 0)
(0 0 0)
(0 0 0)
(0 -1.22746e-05 0)
(0 -1.12322e-05 0)
(0 -1.0796e-05 0)
(0 -1.22121e-05 0)
(0 -9.63205e-06 0)
(0 -9.60598e-06 0)
(0 -6.21643e-06 0)
(0 -5.96915e-06 0)
(0 -8.24242e-06 0)
(0 -4.15844e-06 0)
(0 -3.26221e-06 0)
(0 -1.17568e-05 0)
(0 -1.08408e-05 0)
(0 -6.80471e-06 0)
(0 -5.8684e-06 0)
(0 -4.78374e-06 0)
(0 -5.16585e-06 0)
(0 -4.20558e-06 0)
(0 -3.10801e-06 0)
(0 -2.53015e-06 0)
(0 -2.6372e-06 0)
(0 -1.65682e-06 0)
(0 -9.39775e-06 0)
(0 -1.1391e-05 0)
(0 -1.21036e-05 0)
(0 -7.8104e-06 0)
(0 -6.79203e-06 0)
(0 -1.57382e-06 0)
(0 -2.07649e-06 0)
(0 -8.08498e-06 0)
(0 -4.81578e-06 0)
(0 -4.29515e-06 0)
(0 -1.20705e-05 0)
(0 -1.16221e-05 0)
(0 -6.12481e-06 0)
(0 -5.46813e-06 0)
(0 -9.51884e-06 0)
(0 -1.04317e-05 0)
(0 -6.69508e-06 0)
(0 -4.87392e-06 0)
(0 -4.6755e-06 0)
(0 -8.6844e-07 0)
(0 -7.32028e-07 0)
(0 -5.36687e-06 0)
(0 -2.03893e-06 0)
(0 -8.69243e-06 0)
(0 -8.14736e-06 0)
(0 -1.00908e-05 0)
(0 -1.09392e-05 0)
(0 -1.1703e-05 0)
(0 -1.20981e-05 0)
(0 -2.94797e-06 0)
(0 -1.99444e-06 0)
(0 -4.33061e-06 0)
(0 -6.88413e-06 0)
(0 -7.37849e-06 0)
(0 -1.21551e-05 0)
(0 -1.24412e-05 0)
(0 -1.08095e-05 0)
(0 -1.05858e-05 0)
(0 -9.36094e-06 0)
(0 -7.67555e-06 0)
(0 -7.27996e-06 0)
(0 -8.18118e-06 0)
(0 -5.99812e-06 0)
(0 -3.37717e-06 0)
(0 -2.16838e-06 0)
(0 -3.97774e-07 0)
(0 -3.67332e-05 0)
(0 -3.79375e-05 0)
(0 -3.88951e-05 0)
(0 -3.76671e-05 0)
(0 -3.97933e-05 0)
(0 -3.85364e-05 0)
(0 -4.06179e-05 0)
(0 -3.9325e-05 0)
(0 -4.14019e-05 0)
(0 -4.00799e-05 0)
(0 -4.21932e-05 0)
(0 -4.0833e-05 0)
(0 -4.29783e-05 0)
(0 -4.43525e-05 0)
(0 -4.51514e-05 0)
(0 -4.37281e-05 0)
(0 -4.59103e-05 0)
(0 -4.44179e-05 0)
(0 -4.66407e-05 0)
(0 -4.50884e-05 0)
(0 -4.737e-05 0)
(0 -4.57753e-05 0)
(0 -4.81296e-05 0)
(0 -4.64861e-05 0)
(0 -4.88582e-05 0)
(0 -4.72215e-05 0)
(0 -4.96765e-05 0)
(0 -4.79991e-05 0)
(0 -5.05979e-05 0)
(0 -4.88377e-05 0)
(0 -5.14939e-05 0)
(0 -4.97033e-05 0)
(0 -5.24004e-05 0)
(0 -5.03714e-05 0)
(0 -5.33546e-05 0)
(0 -5.16917e-05 0)
(0 -5.43956e-05 0)
(0 -5.26612e-05 0)
(0 -5.5505e-05 0)
(0 -5.37115e-05 0)
(0 -5.66957e-05 0)
(0 -5.48132e-05 0)
(0 -5.79432e-05 0)
(0 -5.60615e-05 0)
(0 -5.92537e-05 0)
(0 -5.73838e-05 0)
(0 -6.06222e-05 0)
(0 -5.8704e-05 0)
(0 -6.19797e-05 0)
(0 -6.00452e-05 0)
(0 -6.351e-05 0)
(0 -6.14907e-05 0)
(0 -6.51279e-05 0)
(0 -6.31565e-05 0)
(0 -6.68376e-05 0)
(0 -6.50191e-05 0)
(0 -6.87947e-05 0)
(0 -6.69192e-05 0)
(0 -7.07835e-05 0)
(0 -6.89207e-05 0)
(0 -7.28177e-05 0)
(0 -7.1013e-05 0)
(0 -7.4953e-05 0)
(0 -7.32039e-05 0)
(0 -7.72443e-05 0)
(0 -7.55385e-05 0)
(0 -7.96781e-05 0)
(0 -7.79634e-05 0)
(0 -8.22407e-05 0)
(0 -8.04085e-05 0)
(0 -8.49512e-05 0)
(0 -8.30919e-05 0)
(0 -8.78007e-05 0)
(0 -8.60295e-05 0)
(0 -9.07646e-05 0)
(0 -8.90013e-05 0)
(0 -9.37987e-05 0)
(0 -9.19923e-05 0)
(0 -9.69003e-05 0)
(0 -9.50486e-05 0)
(0 -0.000100125 0)
(0 -9.83247e-05 0)
(0 -0.000103509 0)
(0 -0.000101934 0)
(0 -0.000107033 0)
(0 -0.000105591 0)
(0 -0.000110616 0)
(0 -0.000109074 0)
(0 -0.000114225 0)
(0 -0.000112518 0)
(0 -0.00011785 0)
(0 -0.000115942 0)
(0 -0.000121597 0)
(0 -0.000120279 0)
(0 -0.000125448 0)
(0 -0.000123929 0)
(0 -0.0001293 0)
(0 -0.000127701 0)
(0 -0.000133211 0)
(0 -0.000131586 0)
(0 -0.000137238 0)
(0 -0.000138735 0)
(0 -0.000142878 0)
(0 -0.000108512 0)
(0 -8.37253e-05 0)
(0 -6.72585e-05 0)
(0 -5.61792e-05 0)
(0 -4.90281e-05 0)
(0 -0.000135722 0)
(0 -0.000144292 0)
(0 -0.000148497 0)
(0 -0.000149852 0)
(0 -0.000154023 0)
(0 -0.000155462 0)
(0 -0.000159544 0)
(0 -0.00016109 0)
(0 -0.000165194 0)
(0 -0.000166735 0)
(0 -0.000170886 0)
(0 -0.000172456 0)
(0 -0.000176661 0)
(0 -0.000178205 0)
(0 -0.000182444 0)
(0 -0.000180876 0)
(0 -0.000186732 0)
(0 -0.00018509 0)
(0 -0.000190995 0)
(0 -0.000189328 0)
(0 -0.000195229 0)
(0 -0.000193711 0)
(0 -0.000199607 0)
(0 -0.00020097 0)
(0 -0.000205414 0)
(0 -0.00020417 0)
(0 -0.000209967 0)
(0 -0.000211231 0)
(0 -0.000215697 0)
(0 -0.000129965 0)
(0 -0.000216953 0)
(0 -0.000221221 0)
(0 -0.000215071 0)
(0 -0.00022263 0)
(0 -0.000226899 0)
(0 -0.000228244 0)
(0 -0.000232547 0)
(0 -0.000233672 0)
(0 -0.000237911 0)
(0 -0.000239012 0)
(0 -0.000243068 0)
(0 -0.000244161 0)
(0 -0.000248095 0)
(0 -0.00024904 0)
(0 -0.000252935 0)
(0 -0.000252029 0)
(0 -0.000256854 0)
(0 -0.000255908 0)
(0 -0.000260777 0)
(0 -0.000259663 0)
(0 -0.000264557 0)
(0 -0.000265825 0)
(0 -0.000269299 0)
(0 -0.000268209 0)
(0 -0.000272906 0)
(0 -0.00027377 0)
(0 -0.000277271 0)
(0 -0.000278108 0)
(0 -0.000281864 0)
(0 -0.000276532 0)
(0 -0.00028221 0)
(0 -0.000285774 0)
(0 -0.000286077 0)
(0 -0.000289565 0)
(0 -0.000289919 0)
(0 -0.000293331 0)
(0 -0.000293508 0)
(0 -0.000296894 0)
(0 -0.00029693 0)
(0 -0.000300225 0)
(0 -0.000107238 0)
(0 -0.000300126 0)
(0 -0.000303401 0)
(0 -0.000303352 0)
(0 -0.000306483 0)
(0 -0.000306285 0)
(0 -0.000309333 0)
(0 -0.000309032 0)
(0 -0.000311912 0)
(0 -0.000311583 0)
(0 -0.000314333 0)
(0 -0.000314487 0)
(0 -0.000316828 0)
(0 -0.00031685 0)
(0 -0.000319135 0)
(0 -0.000319062 0)
(0 -0.000321323 0)
(0 -0.000321256 0)
(0 -0.00032337 0)
(0 -0.000323127 0)
(0 -0.000325237 0)
(0 -0.000325456 0)
(0 -0.000327282 0)
(0 -0.000326922 0)
(0 -0.000328902 0)
(0 -0.000328414 0)
(0 -0.000330318 0)
(0 -0.000330751 0)
(0 -0.000332052 0)
(0 -0.000331498 0)
(0 -0.000333091 0)
(0 -0.000332414 0)
(0 -0.000333928 0)
(0 -0.000334537 0)
(0 -0.000335303 0)
(0 -0.000334584 0)
(0 -0.000335879 0)
(0 -0.00033504 0)
(0 -0.000336272 0)
(0 -0.000337052 0)
(0 -0.000337351 0)
(0 -0.000336462 0)
(0 -0.00033741 0)
(0 -0.000336417 0)
(0 -0.000337235 0)
(0 -0.000338133 0)
(0 -0.000337853 0)
(0 -0.000336845 0)
(0 -0.000337387 0)
(0 -0.000336271 0)
(0 -0.00033673 0)
(0 -0.000337738 0)
(0 -0.000336991 0)
(0 -0.000335881 0)
(0 -0.000336063 0)
(0 -0.000334845 0)
(0 -0.000334915 0)
(0 -0.000335991 0)
(0 -0.00033471 0)
(0 -0.000333577 0)
(0 -0.000333278 0)
(0 -0.000332074 0)
(0 -0.000331689 0)
(0 -0.000332727 0)
(0 -0.000331038 0)
(0 -0.000329916 0)
(0 -0.000329184 0)
(0 -0.00032796 0)
(0 -0.000327167 0)
(0 -0.000328215 0)
(0 -0.000326125 0)
(0 -0.00032499 0)
(0 -0.000323914 0)
(0 -0.000322688 0)
(0 -0.000321593 0)
(0 -0.000322603 0)
(0 -0.000320246 0)
(0 -0.000319142 0)
(0 -0.000317765 0)
(0 -0.000316554 0)
(0 -0.000315148 0)
(0 -0.000316185 0)
(0 -0.00031353 0)
(0 -0.000312388 0)
(0 -0.000310727 0)
(0 -0.000309482 0)
(0 -0.000307779 0)
(0 -0.000308867 0)
(0 -0.000305882 0)
(0 -0.000304683 0)
(0 -0.000302732 0)
(0 -0.000301409 0)
(0 -0.000299387 0)
(0 -0.000300558 0)
(0 -0.000297103 0)
(0 -0.000295847 0)
(0 -0.000293471 0)
(0 -0.000292096 0)
(0 -0.000289633 0)
(0 -0.00029084 0)
(0 -0.000286929 0)
(0 -0.000285612 0)
(0 -0.000282895 0)
(0 -0.000281452 0)
(0 -0.000278727 0)
(0 -0.000279999 0)
(0 -0.000275839 0)
(0 -0.000274455 0)
(0 -0.000271553 0)
(0 -0.000270081 0)
(0 -0.000272745 0)
(0 -0.000268473 0)
(0 -8.71397e-05 0)
(0 -0.000265226 0)
(0 -4.48035e-05 0)
(0 -7.14647e-05 0)
(0 -5.00791e-05 0)
(0 -6.11195e-05 0)
(0 -0.000134237 0)
(0 -0.000128324 0)
(0 -0.000296776 0)
(0 -0.000245166 0)
(0 -4.01321e-05 0)
(0 -3.8721e-05 0)
(0 -0.000174007 0)
(0 -5.42961e-05 0)
(0 -6.13778e-06 0)
(0 -5.93178e-06 0)
(0 -5.10217e-06 0)
(0 -5.71489e-06 0)
(0 -4.89937e-06 0)
(0 -5.50669e-06 0)
(0 -6.37132e-06 0)
(0 -6.16841e-06 0)
(0 -5.3097e-06 0)
(0 -5.9814e-06 0)
(0 -5.13003e-06 0)
(0 -5.81609e-06 0)
(0 -4.97485e-06 0)
(0 -5.67691e-06 0)
(0 -4.82742e-06 0)
(0 -5.5711e-06 0)
(0 -4.74184e-06 0)
(0 -5.49922e-06 0)
(0 -4.70195e-06 0)
(0 -5.46308e-06 0)
(0 -4.67072e-06 0)
(0 -5.46419e-06 0)
(0 -4.66517e-06 0)
(0 -5.47732e-06 0)
(0 -4.6826e-06 0)
(0 -5.51038e-06 0)
(0 -4.73602e-06 0)
(0 -5.59469e-06 0)
(0 -4.83237e-06 0)
(0 -5.72387e-06 0)
(0 -4.96746e-06 0)
(0 -5.89784e-06 0)
(0 -5.14135e-06 0)
(0 -6.10563e-06 0)
(0 -5.35678e-06 0)
(0 -6.34733e-06 0)
(0 -5.61199e-06 0)
(0 -6.6341e-06 0)
(0 -5.89222e-06 0)
(0 -6.97501e-06 0)
(0 -6.24021e-06 0)
(0 -7.36845e-06 0)
(0 -6.66141e-06 0)
(0 -7.82776e-06 0)
(0 -7.11265e-06 0)
(0 -8.32286e-06 0)
(0 -7.596e-06 0)
(0 -8.83471e-06 0)
(0 -8.15967e-06 0)
(0 -9.44698e-06 0)
(0 -8.78617e-06 0)
(0 -1.01126e-05 0)
(0 -9.4377e-06 0)
(0 -1.08161e-05 0)
(0 -1.16297e-05 0)
(0 -8.12635e-06 0)
(0 -1.09169e-05 0)
(0 -6.72946e-06 0)
(0 -6.34721e-06 0)
(0 -6.68695e-06 0)
(0 -4.15198e-06 0)
(0 -6.47411e-06 0)
(0 -3.95364e-06 0)
(0 -4.89124e-06 0)
(0 -4.12055e-06 0)
(0 -9.54911e-05 0)
(0 -0.000299804 0)
(0 -0.00029641 0)
(0 -0.000299381 0)
(0 -0.000295899 0)
(0 -0.000298596 0)
(0 -0.000295237 0)
(0 -0.000297689 0)
(0 -0.000294358 0)
(0 -0.000296799 0)
(0 -0.000293264 0)
(0 -0.000295536 0)
(0 -0.000291954 0)
(0 -0.000293994 0)
(0 -0.000290433 0)
(0 -0.000292291 0)
(0 -0.000288672 0)
(0 -0.000290354 0)
(0 -0.000286634 0)
(0 -0.000288202 0)
(0 -0.000284316 0)
(0 -0.000285741 0)
(0 -0.000281721 0)
(0 -0.000282909 0)
(0 -0.000278693 0)
(0 -0.000279824 0)
(0 -0.00027517 0)
(0 -0.000276281 0)
(0 -0.000274199 0)
(0 -0.000270409 0)
(0 -0.0002695 0)
(0 -0.000265494 0)
(0 -0.000264586 0)
(0 -0.000260436 0)
(0 -0.000259527 0)
(0 -0.000255275 0)
(0 -0.000254326 0)
(0 -0.000250023 0)
(0 -0.000249025 0)
(0 -0.000250804 0)
(0 -0.000244658 0)
(0 -0.000243596 0)
(0 -0.000239231 0)
(0 -0.000238054 0)
(0 -0.000233678 0)
(0 -0.000232413 0)
(0 -0.000227917 0)
(0 -0.000226587 0)
(0 -0.000222015 0)
(0 -0.000220631 0)
(0 -0.000222822 0)
(0 -0.000216072 0)
(0 -0.000214627 0)
(0 -0.000210114 0)
(0 -0.00020866 0)
(0 -0.000212842 0)
(0 -0.000206921 0)
(0 -0.000210826 0)
(0 -0.000204939 0)
(0 -0.000208603 0)
(0 -0.000202706 0)
(0 -0.000199045 0)
(0 -0.000196884 0)
(0 -0.000200282 0)
(0 -0.000194576 0)
(0 -0.000197752 0)
(0 -0.000192167 0)
(0 -0.000188992 0)
(0 -0.000186672 0)
(0 -0.000189638 0)
(0 -0.000184247 0)
(0 -0.00018695 0)
(0 -0.00018172 0)
(0 -0.000184202 0)
(0 -0.000179252 0)
(0 -0.000176652 0)
(0 -0.000174314 0)
(0 -0.0001768 0)
(0 -0.000171881 0)
(0 -0.000169322 0)
(0 -0.000166819 0)
(0 -0.000164277 0)
(0 -0.000161619 0)
(0 -0.000163995 0)
(0 -0.000158728 0)
(0 -0.000156413 0)
(0 -0.000153489 0)
(0 -0.000155477 0)
(0 -0.000150327 0)
(0 -0.000148348 0)
(0 -0.000145176 0)
(0 -0.000143241 0)
(0 -0.000140046 0)
(0 -0.000151817 0)
(0 -0.000138126 0)
(0 -0.000134947 0)
(0 -0.00013305 0)
(0 -0.000129885 0)
(0 -0.00012797 0)
(0 -0.000124828 0)
(0 -0.00012663 0)
(0 -0.000121717 0)
(0 -0.000131025 0)
(0 -0.000123367 0)
(0 -0.000118707 0)
(0 -0.000116907 0)
(0 -0.000114089 0)
(0 -0.000112252 0)
(0 -0.000109554 0)
(0 -0.000281694 0)
(0 -0.000277357 0)
(0 -0.000281991 0)
(0 -0.000278153 0)
(0 -0.000282589 0)
(0 -0.000278858 0)
(0 -0.00028376 0)
(0 -0.00027923 0)
(0 -0.000283648 0)
(0 -0.000279269 0)
(0 -0.000283762 0)
(0 -0.000279172 0)
(0 -0.00028354 0)
(0 -0.000278796 0)
(0 -0.000283182 0)
(0 -0.000278083 0)
(0 -0.000282545 0)
(0 -0.000277154 0)
(0 -0.000281724 0)
(0 -0.000276036 0)
(0 -0.000280693 0)
(0 -0.000275078 0)
(0 -0.0002795 0)
(0 -0.000273723 0)
(0 -0.000277831 0)
(0 -0.000271589 0)
(0 -0.00027579 0)
(0 -0.000269301 0)
(0 -0.00027359 0)
(0 -0.000266953 0)
(0 -0.000271213 0)
(0 -0.000264443 0)
(0 -0.000268822 0)
(0 -0.000272534 0)
(0 -0.000261894 0)
(0 -0.000266448 0)
(0 -0.00025914 0)
(0 -0.00026359 0)
(0 -0.000255985 0)
(0 -0.000260216 0)
(0 -0.00025266 0)
(0 -0.000256828 0)
(0 -0.000249316 0)
(0 -0.000253244 0)
(0 -0.000265037 0)
(0 -0.000245673 0)
(0 -0.000249398 0)
(0 -0.000120155 0)
(0 -0.000107739 0)
(0 -0.000105129 0)
(0 -0.000241746 0)
(0 -0.000245409 0)
(0 -0.00010333 0)
(0 -0.000100795 0)
(0 -0.000237676 0)
(0 -0.000241099 0)
(0 -0.000231881 0)
(0 -0.000236604 0)
(0 -9.90059e-05 0)
(0 -9.6591e-05 0)
(0 -9.83018e-05 0)
(0 -9.41904e-05 0)
(0 -0.000251753 0)
(0 -9.58235e-05 0)
(0 -9.17257e-05 0)
(0 -9.02122e-05 0)
(0 -8.7751e-05 0)
(0 -0.000228302 0)
(0 -0.000232176 0)
(0 -8.63699e-05 0)
(0 -8.39592e-05 0)
(0 -0.000223936 0)
(0 -0.000227587 0)
(0 -8.5258e-05 0)
(0 -8.15836e-05 0)
(0 -8.02661e-05 0)
(0 -7.79887e-05 0)
(0 -0.00023584 0)
(0 -0.000231288 0)
(0 -0.000222935 0)
(0 -0.000226718 0)
(0 -0.000218253 0)
(0 -0.0002221 0)
(0 -0.000230394 0)
(0 -0.000225871 0)
(0 -0.000217497 0)
(0 -0.000221337 0)
(0 -0.000212878 0)
(0 -0.000216687 0)
(0 -7.6544e-05 0)
(0 -7.43571e-05 0)
(0 -0.000224953 0)
(0 -0.000220245 0)
(0 -0.000211913 0)
(0 -0.000215406 0)
(0 -0.000206979 0)
(0 -0.000210439 0)
(0 -0.000201895 0)
(0 -0.00020532 0)
(0 -0.00021362 0)
(0 -0.000208502 0)
(0 -0.000200131 0)
(0 -0.000203321 0)
(0 -0.000194891 0)
(0 -0.000198019 0)
(0 -0.00020618 0)
(0 -0.000200846 0)
(0 -0.000192665 0)
(0 -0.000195468 0)
(0 -0.000187304 0)
(0 -0.000190025 0)
(0 -0.000197957 0)
(0 -0.000192434 0)
(0 -0.000184539 0)
(0 -0.000186899 0)
(0 -0.000194529 0)
(0 -0.000188837 0)
(0 -0.000181132 0)
(0 -0.000183044 0)
(0 -0.000190508 0)
(0 -0.000184765 0)
(0 -0.000177317 0)
(0 -0.000179002 0)
(0 -0.000186254 0)
(0 -0.000180503 0)
(0 -0.000173253 0)
(0 -0.000174771 0)
(0 -0.000181812 0)
(0 -0.000176057 0)
(0 -0.00018284 0)
(0 -0.000177052 0)
(0 -0.000183581 0)
(0 -0.000177767 0)
(0 -0.000171278 0)
(0 -0.000171963 0)
(0 -0.0001782 0)
(0 -0.000172382 0)
(0 -0.000166184 0)
(0 -0.000166598 0)
(0 -0.000172578 0)
(0 -0.000166767 0)
(0 -0.000172506 0)
(0 -0.000166657 0)
(0 -0.000172148 0)
(0 -0.000166246 0)
(0 -0.000171508 0)
(0 -0.0001656 0)
(0 -0.000160362 0)
(0 -0.000159714 0)
(0 -0.000164807 0)
(0 -0.000158906 0)
(0 -0.000153864 0)
(0 -0.000153001 0)
(0 -0.000157835 0)
(0 -0.0001519 0)
(0 -0.000156487 0)
(0 -0.000147154 0)
(0 -0.00015061 0)
(0 -0.000155009 0)
(0 -0.000149151 0)
(0 -0.000153371 0)
(0 -0.000147486 0)
(0 -0.00015152 0)
(0 -0.000145618 0)
(0 -0.00014945 0)
(0 -0.000143533 0)
(0 -0.000139772 0)
(0 -0.000147142 0)
(0 -0.000141232 0)
(0 -0.000144629 0)
(0 -0.000138736 0)
(0 -0.00014197 0)
(0 -0.000136073 0)
(0 -0.000139163 0)
(0 -0.000145077 0)
(0 -0.000142138 0)
(0 -0.000136217 0)
(0 -0.000139061 0)
(0 -0.000133131 0)
(0 -0.000135841 0)
(0 -7.28147e-05 0)
(0 -7.06884e-05 0)
(0 -0.000148064 0)
(0 -8.27724e-05 0)
(0 -0.00023433 0)
(0 -0.000256904 0)
(0 -0.000129887 0)
(0 -0.000132451 0)
(0 -6.91235e-05 0)
(0 -6.69517e-05 0)
(0 -6.86217e-05 0)
(0 -6.47538e-05 0)
(0 -6.32319e-05 0)
(0 -6.09785e-05 0)
(0 -0.000247392 0)
(0 -6.23558e-05 0)
(0 -5.85406e-05 0)
(0 -5.73531e-05 0)
(0 -5.4868e-05 0)
(0 -5.6005e-05 0)
(0 -5.23529e-05 0)
(0 -5.11692e-05 0)
(0 -4.87445e-05 0)
(0 -4.98822e-05 0)
(0 -4.6352e-05 0)
(0 -4.50653e-05 0)
(0 -4.30084e-05 0)
(0 -0.000126476 0)
(0 -0.000128895 0)
(0 -4.40999e-05 0)
(0 -4.10193e-05 0)
(0 -3.96942e-05 0)
(0 -3.7859e-05 0)
(0 -0.000177426 0)
(0 -0.000134866 0)
(0 -0.000131167 0)
(0 -0.00013713 0)
(0 -0.000133291 0)
(0 -0.000127325 0)
(0 -0.000129324 0)
(0 -0.000157444 0)
(0 -0.0002733 0)
(0 -0.000123932 0)
(0 -0.000160442 0)
(0 -3.90113e-05 0)
(0 -0.000139227 0)
(0 -7.13621e-05 0)
(0 -7.44302e-05 0)
(0 -6.11321e-05 0)
(0 -5.22097e-05 0)
(0 -0.000123349 0)
(0 -0.000125238 0)
(0 -0.000282054 0)
(0 -0.000179744 0)
(0 -0.000175604 0)
(0 -0.000181326 0)
(0 -0.000177266 0)
(0 -0.000182899 0)
(0 -0.00017892 0)
(0 -0.000184501 0)
(0 -0.000180486 0)
(0 -0.000186055 0)
(0 -0.00018202 0)
(0 -0.000187476 0)
(0 -0.00018355 0)
(0 -0.000188697 0)
(0 -0.000184948 0)
(0 -0.000189996 0)
(0 -0.000186057 0)
(0 -0.000191267 0)
(0 -0.000186932 0)
(0 -0.000181145 0)
(0 -0.000192646 0)
(0 -0.000182399 0)
(0 -0.000177043 0)
(0 -0.000119247 0)
(0 -0.000121032 0)
(0 -1.50703e-05 0)
(0 -1.4841e-05 0)
(0 -0.00017777 0)
(0 -0.000172667 0)
(0 -0.000288361 0)
(0 -0.000286628 0)
(0 -1.6049e-05 0)
(0 -1.58505e-05 0)
(0 -0.000115025 0)
(0 -0.000116705 0)
(0 -0.000122669 0)
(0 -0.00011823 0)
(0 -0.000124125 0)
(0 -0.000173331 0)
(0 -0.000168383 0)
(0 -1.70846e-05 0)
(0 -1.69046e-05 0)
(0 -0.000169263 0)
(0 -0.000163999 0)
(0 -0.000288505 0)
(0 -0.00010147 0)
(0 -0.00016499 0)
(0 -0.000159648 0)
(0 -1.81692e-05 0)
(0 -1.80521e-05 0)
(0 -0.000274889 0)
(0 -0.000160696 0)
(0 -0.00015532 0)
(0 -0.000175009 0)
(0 -0.000156482 0)
(0 -0.000151112 0)
(0 -0.000295769 0)
(0 -1.95621e-05 0)
(0 -1.92875e-05 0)
(0 -0.000152408 0)
(0 -0.000147191 0)
(0 -0.000148381 0)
(0 -0.000143286 0)
(0 -0.000144252 0)
(0 -0.000139384 0)
(0 -0.000140285 0)
(0 -0.000135545 0)
(0 -0.000249897 0)
(0 -0.000246015 0)
(0 -0.000141928 0)
(0 -0.0001364 0)
(0 -0.000131795 0)
(0 -2.08228e-05 0)
(0 -2.05898e-05 0)
(0 -0.000157854 0)
(0 -0.000250566 0)
(0 -0.000246667 0)
(0 -0.000132527 0)
(0 -0.000128115 0)
(0 -0.000127122 0)
(0 -0.000123635 0)
(0 -0.000124598 0)
(0 -0.000120237 0)
(0 -0.000121189 0)
(0 -0.000116881 0)
(0 -0.000115871 0)
(0 -0.00011261 0)
(0 -0.000113633 0)
(0 -0.000109468 0)
(0 -0.00011043 0)
(0 -0.000106367 0)
(0 -0.000107297 0)
(0 -0.000103337 0)
(0 -0.000104289 0)
(0 -0.000100464 0)
(0 -0.000101429 0)
(0 -9.77253e-05 0)
(0 -9.86851e-05 0)
(0 -9.50829e-05 0)
(0 -0.000159074 0)
(0 -0.000251053 0)
(0 -0.000247221 0)
(0 -0.000105228 0)
(0 -2.21693e-05 0)
(0 -2.19915e-05 0)
(0 -2.23959e-05 0)
(0 -9.40413e-05 0)
(0 -9.15259e-05 0)
(0 -9.25303e-05 0)
(0 -8.91591e-05 0)
(0 -0.000252249 0)
(0 -0.000247626 0)
(0 -9.00894e-05 0)
(0 -8.68339e-05 0)
(0 -2.04027e-05 0)
(0 -2.18272e-05 0)
(0 -0.000251792 0)
(0 -0.000247736 0)
(0 -0.000251877 0)
(0 -0.000247818 0)
(0 -0.000252599 0)
(0 -0.000247763 0)
(0 -0.000251705 0)
(0 -0.000247437 0)
(0 -2.02426e-05 0)
(0 -2.1664e-05 0)
(0 -0.000174945 0)
(0 -2.01125e-05 0)
(0 -2.15679e-05 0)
(0 -2.00112e-05 0)
(0 -2.15742e-05 0)
(0 -1.99375e-05 0)
(0 -2.15564e-05 0)
(0 -2.35286e-05 0)
(0 -2.32748e-05 0)
(0 -2.15215e-05 0)
(0 -2.32616e-05 0)
(0 -2.15394e-05 0)
(0 -2.33285e-05 0)
(0 -2.16039e-05 0)
(0 -2.34387e-05 0)
(0 -2.1702e-05 0)
(0 -2.35972e-05 0)
(0 -2.19036e-05 0)
(0 -2.37744e-05 0)
(0 -2.21356e-05 0)
(0 -2.40491e-05 0)
(0 -2.24115e-05 0)
(0 -2.44282e-05 0)
(0 -2.27873e-05 0)
(0 -2.48353e-05 0)
(0 -2.31991e-05 0)
(0 -2.53161e-05 0)
(0 -2.36816e-05 0)
(0 -2.58683e-05 0)
(0 -2.75552e-05 0)
(0 -2.81712e-05 0)
(0 -2.64809e-05 0)
(0 -2.88511e-05 0)
(0 -2.71588e-05 0)
(0 -2.9626e-05 0)
(0 -2.79285e-05 0)
(0 -3.04702e-05 0)
(0 -2.87889e-05 0)
(0 -3.14142e-05 0)
(0 -2.55813e-05 0)
(0 -3.06265e-05 0)
(0 -2.9744e-05 0)
(0 -3.24646e-05 0)
(0 -3.0797e-05 0)
(0 -3.36195e-05 0)
(0 -3.19595e-05 0)
(0 -3.48875e-05 0)
(0 -3.32252e-05 0)
(0 -3.62498e-05 0)
(0 -3.79602e-05 0)
(0 -3.93965e-05 0)
(0 -3.76882e-05 0)
(0 -4.08955e-05 0)
(0 -3.91832e-05 0)
(0 -4.24451e-05 0)
(0 -4.08299e-05 0)
(0 -4.39365e-05 0)
(0 -4.23102e-05 0)
(0 -4.55236e-05 0)
(0 -4.37447e-05 0)
(0 -4.71573e-05 0)
(0 -4.54578e-05 0)
(0 -4.88913e-05 0)
(0 -4.72831e-05 0)
(0 -5.07623e-05 0)
(0 -4.11936e-05 0)
(0 -5.21132e-05 0)
(0 -8.77503e-05 0)
(0 -8.45804e-05 0)
(0 -8.81627e-05 0)
(0 -2.38028e-05 0)
(0 -2.39916e-05 0)
(0 -2.50418e-05 0)
(0 -8.54391e-05 0)
(0 -8.23691e-05 0)
(0 -0.000113216 0)
(0 1.63454e-06 0)
(0 1.38887e-06 0)
(0 1.48295e-06 0)
(0 1.71278e-06 0)
(0 1.56227e-06 0)
(0 1.77623e-06 0)
(0 1.62354e-06 0)
(0 1.82495e-06 0)
(0 1.66639e-06 0)
(0 1.85454e-06 0)
(0 1.69507e-06 0)
(0 1.87215e-06 0)
(0 1.71164e-06 0)
(0 1.88409e-06 0)
(0 1.71768e-06 0)
(0 1.88873e-06 0)
(0 1.71443e-06 0)
(0 1.51943e-06 0)
(0 1.44508e-06 0)
(0 -8.32395e-05 0)
(0 -8.02067e-05 0)
(0 -7.93984e-05 0)
(0 -7.71985e-05 0)
(0 -7.80471e-05 0)
(0 -7.49341e-05 0)
(0 -7.57547e-05 0)
(0 -7.25555e-05 0)
(0 -7.32034e-05 0)
(0 -7.0136e-05 0)
(0 -7.06226e-05 0)
(0 -6.78172e-05 0)
(0 -0.000140691 0)
(0 -0.000308544 0)
(0 -0.000251305 0)
(0 -0.000247057 0)
(0 -6.71598e-05 0)
(0 -6.49481e-05 0)
(0 -6.56491e-05 0)
(0 -6.26779e-05 0)
(0 -2.54866e-05 0)
(0 -2.5662e-05 0)
(0 -0.000108107 0)
(0 -0.000157927 0)
(0 -8.85016e-05 0)
(0 -0.000204151 0)
(0 -0.000183516 0)
(0 -6.30221e-05 0)
(0 -6.03195e-05 0)
(0 -7.78862e-05 0)
(0 -0.000123039 0)
(0 -7.40939e-05 0)
(0 1.20497e-06 0)
(0 -4.65843e-05 0)
(0 -9.63069e-05 0)
(0 -0.000189379 0)
(0 -0.000167552 0)
(0 -0.000189293 0)
(0 -0.000198255 0)
(0 -0.000260962 0)
(0 -0.000132872 0)
(0 -0.000191372 0)
(0 -0.000220436 0)
(0 -0.000231152 0)
(0 -0.00022827 0)
(0 -0.000263437 0)
(0 -0.00019525 0)
(0 -0.000310928 0)
(0 -0.000205323 0)
(0 -0.000199346 0)
(0 -0.000200192 0)
(0 -0.000194161 0)
(0 -0.000194698 0)
(0 -0.000188583 0)
(0 -0.000188824 0)
(0 -0.000182637 0)
(0 -0.000182566 0)
(0 -0.000176216 0)
(0 -0.000175935 0)
(0 -0.000169319 0)
(0 -0.000169037 0)
(0 -0.000175464 0)
(0 -0.000167463 0)
(0 -0.000174988 0)
(0 -0.00016777 0)
(0 -0.000174292 0)
(0 -0.000167152 0)
(0 -0.000173573 0)
(0 -0.000166368 0)
(0 -0.000173033 0)
(0 -0.000162361 0)
(0 -0.000162502 0)
(0 -0.000165586 0)
(0 -0.000172839 0)
(0 -0.000164784 0)
(0 -0.000172159 0)
(0 -0.000155075 0)
(0 -0.000155458 0)
(0 -0.000163693 0)
(0 -0.000170922 0)
(0 -0.000147739 0)
(0 -0.000148254 0)
(0 -0.000162229 0)
(0 -0.000169351 0)
(0 -0.000160365 0)
(0 -0.000167458 0)
(0 -0.000140607 0)
(0 -0.000141064 0)
(0 -0.000158365 0)
(0 -0.000158277 0)
(0 -0.000165382 0)
(0 -0.000133711 0)
(0 -0.00013384 0)
(0 -0.000155999 0)
(0 -0.000163001 0)
(0 -0.000153352 0)
(0 -0.000160324 0)
(0 -0.000126734 0)
(0 -0.000126602 0)
(0 -0.000125922 0)
(0 -0.000176469 0)
(0 -0.000150399 0)
(0 -0.000157467 0)
(0 -0.000167399 0)
(0 -0.000164596 0)
(0 -0.000154486 0)
(0 -0.000161672 0)
(0 -0.000151663 0)
(0 -0.000158514 0)
(0 -0.000153073 0)
(0 -0.000120064 0)
(0 -0.000119478 0)
(0 -0.000148463 0)
(0 -0.000155051 0)
(0 -0.000126376 0)
(0 -0.000119156 0)
(0 -0.000111239 0)
(0 -0.000112094 0)
(0 -0.000119158 0)
(0 -0.000112345 0)
(0 -0.000145103 0)
(0 -0.000151629 0)
(0 -0.000174449 0)
(0 -0.000105589 0)
(0 -0.000105677 0)
(0 -0.000179676 0)
(0 -0.000142093 0)
(0 -0.000148367 0)
(0 -0.000158516 0)
(0 -0.000154998 0)
(0 -0.000144563 0)
(0 -0.00015124 0)
(0 -0.000140437 0)
(0 -0.000147399 0)
(0 -0.000119007 0)
(0 -9.91334e-05 0)
(0 -9.91253e-05 0)
(0 -0.000143369 0)
(0 -0.000136497 0)
(0 -0.000143392 0)
(0 -0.000165537 0)
(0 -0.000131207 0)
(0 -0.000139522 0)
(0 -9.25933e-05 0)
(0 -9.27907e-05 0)
(0 -0.000150804 0)
(0 -0.000146726 0)
(0 -0.000133853 0)
(0 -0.000142678 0)
(0 -0.000131108 0)
(0 -0.00013881 0)
(0 -9.94226e-05 0)
(0 -9.33979e-05 0)
(0 -0.000100015 0)
(0 -9.40647e-05 0)
(0 -8.74848e-05 0)
(0 -8.79718e-05 0)
(0 -9.44885e-05 0)
(0 -8.82157e-05 0)
(0 -8.16778e-05 0)
(0 -8.18473e-05 0)
(0 -9.26592e-05 0)
(0 -4.5869e-05 0)
(0 -0.000137615 0)
(0 -0.000300098 0)
(0 -9.43812e-05 0)
(0 -6.06776e-05 0)
(0 -5.79181e-05 0)
(0 -6.35382e-05 0)
(0 -0.000127599 0)
(0 -0.000134745 0)
(0 -3.30159e-05 0)
(0 -0.000242984 0)
(0 -0.000242545 0)
(0 -0.00025124 0)
(0 -2.62707e-05 0)
(0 -2.72325e-05 0)
(0 -2.73942e-05 0)
(0 -6.43391e-05 0)
(0 -2.08215e-05 0)
(0 -7.51265e-05 0)
(0 -7.52027e-05 0)
(0 -0.0001237 0)
(0 -0.000130297 0)
(0 -0.000158089 0)
(0 -1.9832e-05 0)
(0 -1.85835e-05 0)
(0 -0.000238544 0)
(0 -0.000238027 0)
(0 -0.000255549 0)
(0 -5.82528e-05 0)
(0 -5.54373e-05 0)
(0 -5.51728e-05 0)
(0 -5.26249e-05 0)
(0 -8.60269e-05 0)
(0 -8.61224e-05 0)
(0 -3.03298e-05 0)
(0 -0.000148317 0)
(0 -5.28361e-05 0)
(0 -5.00417e-05 0)
(0 -4.98073e-05 0)
(0 -4.7307e-05 0)
(0 -4.70559e-05 0)
(0 -4.46917e-05 0)
(0 -4.49008e-05 0)
(0 -4.24383e-05 0)
(0 2.05055e-06 0)
(0 -4.25649e-05 0)
(0 -0.00013031 0)
(0 -0.000118565 0)
(0 -0.000125443 0)
(0 -0.000243221 0)
(0 -7.65486e-05 0)
(0 -0.000141605 0)
(0 -7.33351e-05 0)
(0 -6.68832e-05 0)
(0 -7.18222e-05 0)
(0 -6.5329e-05 0)
(0 -7.02005e-05 0)
(0 -6.36872e-05 0)
(0 -6.84856e-05 0)
(0 -6.19461e-05 0)
(0 -6.66818e-05 0)
(0 -0.000234094 0)
(0 -0.00023355 0)
(0 -0.000237426 0)
(0 -0.000232787 0)
(0 -0.00022897 0)
(0 -0.000228062 0)
(0 -0.000224208 0)
(0 -0.000231854 0)
(0 -6.8346e-05 0)
(0 -6.84942e-05 0)
(0 -7.50887e-05 0)
(0 -6.87453e-05 0)
(0 -7.49745e-05 0)
(0 -6.90786e-05 0)
(0 -7.49724e-05 0)
(0 -6.93453e-05 0)
(0 -6.33694e-05 0)
(0 -6.37993e-05 0)
(0 -6.93945e-05 0)
(0 -6.4025e-05 0)
(0 -5.85772e-05 0)
(0 -5.892e-05 0)
(0 -6.01446e-05 0)
(0 -6.48303e-05 0)
(0 -5.82939e-05 0)
(0 -6.29064e-05 0)
(0 -0.000111071 0)
(0 -0.000120671 0)
(0 -2.9021e-05 0)
(0 -2.8906e-05 0)
(0 -2.91467e-05 0)
(0 -0.00022343 0)
(0 -5.35995e-05 0)
(0 -5.39581e-05 0)
(0 -0.000226972 0)
(0 -0.000230623 0)
(0 -6.92032e-05 0)
(0 -0.000255061 0)
(0 -0.000187639 0)
(0 -6.15581e-05 0)
(0 -6.13124e-05 0)
(0 -0.000119222 0)
(0 -5.63897e-05 0)
(0 -6.0904e-05 0)
(0 -6.73519e-05 0)
(0 -6.52555e-05 0)
(0 -5.88849e-05 0)
(0 -6.3165e-05 0)
(0 -6.94605e-05 0)
(0 -6.7291e-05 0)
(0 -6.10588e-05 0)
(0 -6.51069e-05 0)
(0 -5.89335e-05 0)
(0 -6.28975e-05 0)
(0 -6.89883e-05 0)
(0 -6.66835e-05 0)
(0 -7.27321e-05 0)
(0 -7.03003e-05 0)
(0 -6.43459e-05 0)
(0 -6.78427e-05 0)
(0 -6.19701e-05 0)
(0 -6.53544e-05 0)
(0 -7.1163e-05 0)
(0 -6.85517e-05 0)
(0 -6.28224e-05 0)
(0 -6.58961e-05 0)
(0 -7.15574e-05 0)
(0 -6.87618e-05 0)
(0 -7.43624e-05 0)
(0 -7.14188e-05 0)
(0 -6.59282e-05 0)
(0 -6.84285e-05 0)
(0 -7.38584e-05 0)
(0 -7.07027e-05 0)
(0 -7.60429e-05 0)
(0 -7.27393e-05 0)
(0 -6.75118e-05 0)
(0 -6.94205e-05 0)
(0 -7.46452e-05 0)
(0 -7.11163e-05 0)
(0 -6.60319e-05 0)
(0 -6.7542e-05 0)
(0 -7.25679e-05 0)
(0 -6.88185e-05 0)
(0 -7.3795e-05 0)
(0 -6.98738e-05 0)
(0 -6.5048e-05 0)
(0 -7.48249e-05 0)
(0 -7.07151e-05 0)
(0 -7.56263e-05 0)
(0 -7.13282e-05 0)
(0 -7.61685e-05 0)
(0 -7.1682e-05 0)
(0 -7.64191e-05 0)
(0 -7.17462e-05 0)
(0 -7.63977e-05 0)
(0 -6.71295e-05 0)
(0 -7.15279e-05 0)
(0 -7.61071e-05 0)
(0 -7.10266e-05 0)
(0 -7.55328e-05 0)
(0 -7.02384e-05 0)
(0 -7.46828e-05 0)
(0 -8.00738e-05 0)
(0 -7.91624e-05 0)
(0 -7.35574e-05 0)
(0 -7.79696e-05 0)
(0 -8.36726e-05 0)
(0 -8.24322e-05 0)
(0 -7.6497e-05 0)
(0 -8.09333e-05 0)
(0 -8.05757e-05 0)
(0 -8.82919e-05 0)
(0 -7.4761e-05 0)
(0 -7.91564e-05 0)
(0 -7.27554e-05 0)
(0 -7.7094e-05 0)
(0 -8.36239e-05 0)
(0 -8.15002e-05 0)
(0 -8.81454e-05 0)
(0 -8.59775e-05 0)
(0 -7.90951e-05 0)
(0 -8.35236e-05 0)
(0 -9.05541e-05 0)
(0 -8.8007e-05 0)
(0 -8.0809e-05 0)
(0 -8.52483e-05 0)
(0 -9.27339e-05 0)
(0 -8.99657e-05 0)
(0 -6.58726e-05 0)
(0 -6.84936e-05 0)
(0 -8.22552e-05 0)
(0 -8.68044e-05 0)
(0 -9.47954e-05 0)
(0 -9.14055e-05 0)
(0 -8.34009e-05 0)
(0 -8.80043e-05 0)
(0 -6.62659e-05 0)
(0 -6.21553e-05 0)
(0 -9.6299e-05 0)
(0 -9.29861e-05 0)
(0 -8.44154e-05 0)
(0 -8.92196e-05 0)
(0 -9.81611e-05 0)
(0 -9.41998e-05 0)
(0 -0.00010324 0)
(0 -9.93486e-05 0)
(0 -9.0121e-05 0)
(0 -9.51225e-05 0)
(0 -0.000104432 0)
(0 -0.000100112 0)
(0 -9.05865e-05 0)
(0 -9.55135e-05 0)
(0 -0.000105047 0)
(0 -0.000100466 0)
(0 -0.000110032 0)
(0 -0.000105468 0)
(0 -9.55134e-05 0)
(0 -0.000100462 0)
(0 -0.000110529 0)
(0 -0.000105456 0)
(0 -0.000115647 0)
(0 -0.000110489 0)
(0 -0.000100114 0)
(0 -0.000105088 0)
(0 -0.000115529 0)
(0 -0.000110106 0)
(0 -9.95168e-05 0)
(0 -0.000104599 0)
(0 -0.000115222 0)
(0 -0.000109794 0)
(0 -5.9739e-05 0)
(0 -5.579e-05 0)
(0 -0.000108608 0)
(0 -0.000116748 0)
(0 -0.000128219 0)
(0 -0.000124115 0)
(0 -0.000112565 0)
(0 -0.000119723 0)
(0 -0.000131446 0)
(0 -0.000126842 0)
(0 -0.000115109 0)
(0 -0.000122041 0)
(0 -0.000133591 0)
(0 -0.000128618 0)