/*--------------------------------*- C++ -*----------------------------------*\
| =========                 |                                                 |
| \\      /  F ield         | OpenFOAM: The Open Source CFD Toolbox           |
|  \\    /   O peration     | Version:  v2012                                 |
|   \\  /    A nd           | Website:  www.openfoam.com                      |
|    \\/     M anipulation  |                                                 |
\*---------------------------------------------------------------------------*/
FoamFile
{
    version     2.0;
    format      ascii;
    class       volScalarField;
    location    "500";
    object      k;
}
// * * * * * * * * * * * * * * * * * * * * * * * * * * * * * * * * * * * * * //

dimensions      [0 2 -2 0 0 0 0];


internalField   nonuniform List<scalar> 
18355
(
0.000270081
0.000137006
0.000196992
0.000140902
0.000218051
0.00519067
0.000146017
0.000219167
0.000151268
0.00421075
0.000158078
0.000191111
0.00019275
0.000332069
0.000142687
0.000135536
0.000140884
0.000154173
0.000209855
0.000153093
0.000354469
0.000148988
0.000136923
0.00511403
0.000136997
0.000148589
0.000146378
0.000141042
0.000151957
0.000159362
0.00116071
0.000185546
0.00013787
0.000134302
0.000145583
0.000150531
0.000159829
0.000150795
0.000160216
0.000148244
0.000151337
0.000159144
0.000134476
0.000136824
0.000136924
0.000230321
0.000141221
0.000141087
0.000897613
0.000145162
0.000142149
0.000518893
0.000145585
0.000212875
0.000143123
0.000153426
0.000144966
0.000756803
0.000149092
0.0173644
0.000134409
0.000180766
0.000212464
0.000147389
0.000197327
0.000140198
0.000154574
0.000159956
0.000133987
0.00743664
0.000142268
0.000143155
0.000176636
0.000156309
0.000781431
0.000134161
0.000853672
0.000134268
0.000141949
0.00106912
0.000154469
0.00260738
0.000134093
0.000156818
0.000182849
0.000148835
0.000153485
0.000173685
0.000140533
0.000173985
0.000395055
0.000315578
0.00267637
0.00014508
0.00822441
0.000150117
0.000140057
0.000147093
0.000186583
0.00014855
0.000180528
0.000141611
0.000144707
0.000130574
0.000155026
0.00013565
0.000196844
0.00843597
0.00016662
0.000135142
0.000141851
0.000147037
0.000168222
0.000156243
0.000480844
0.000161507
0.000141331
0.00230872
0.000152361
0.000154095
0.0063744
0.000193076
0.00126575
0.000178622
0.00249799
0.000241646
0.000146316
0.000141239
0.000273102
0.000147495
0.000140136
0.000825133
0.00014346
0.000183015
0.000210988
0.000140594
0.000208795
0.00619278
0.000142396
0.00032879
0.000157095
0.000233704
0.00014096
0.000567576
0.000212411
0.000146626
0.026374
0.000131474
0.000167839
0.00555044
0.000140962
0.000153936
0.000146569
0.000189864
0.000134596
0.000138243
0.000141411
0.000148769
0.000141042
0.000139247
0.000154977
0.000143576
0.000135207
0.000226385
0.000156933
0.00294482
0.0269349
0.000299915
0.0129649
0.000157064
0.000146249
0.00018204
0.00014803
0.00101595
0.000145694
0.000150708
0.000146316
0.000130256
0.000151446
0.000163358
0.000148992
0.00248331
0.000148321
0.00014133
0.00129434
0.000144552
0.0001494
0.000173378
0.000143338
0.00014716
0.000231795
0.000185875
0.00013727
0.000134818
0.000143845
0.00152857
0.000139356
0.000308149
0.0001371
0.000348349
0.000144217
0.000152488
0.000160516
0.0001487
0.000292785
0.000146777
0.0113331
0.000141296
0.000137319
0.000145737
0.00014665
0.00197114
0.000163308
0.000153306
0.000131657
0.00178643
0.000163446
0.000156697
0.000146959
0.000141362
0.000165516
0.000134039
0.000171588
0.000182126
0.000204982
0.000157556
0.000134228
0.00466713
0.000249954
0.000171314
0.00014462
0.000155067
0.00334701
0.000134202
0.000224362
0.000190168
0.000149131
0.000235292
0.000155551
0.000153519
0.000137323
0.000151179
0.000148687
0.000169338
0.000146779
0.000143128
0.000141004
0.00200142
0.00473502
0.00014291
0.000151442
0.00477633
0.000196355
0.000182695
0.000130286
0.000226048
0.000155573
0.00014754
0.000156842
0.000139671
0.00556707
0.000317475
0.00018379
0.000161374
0.00016156
0.000218544
0.00024632
0.00018911
0.000139624
0.000143169
0.000148399
0.000135216
0.000152681
0.000156951
0.000140679
0.000146692
0.000168323
0.00014044
0.000198585
0.00644415
0.000164281
0.000146869
0.000162735
0.000135088
0.000173831
0.000146172
0.000164926
0.000148732
0.000163795
0.00571361
0.000137587
0.000172213
0.000152008
0.000157064
0.000242192
0.00014496
0.00013462
0.000196062
0.000146676
0.000252815
0.000159774
0.00560906
0.000173992
0.000184347
0.000153086
0.000170721
0.000144723
0.000154135
0.000160884
0.000172304
0.00132373
0.0103302
0.000142353
0.000158788
0.00020769
0.000163862
0.000142277
0.00014102
0.00014101
0.000172561
0.00934742
0.0514319
0.00125674
0.000167146
0.000156487
0.00250643
0.000131345
0.000146568
0.000156425
0.000144177
0.000171447
0.000144909
0.00392811
0.000135964
0.00287358
0.000143558
0.000148071
0.000154186
0.000194796
0.000325959
0.000169492
0.000901028
0.000148705
0.000140656
0.000144065
0.000157521
0.00480743
0.000140888
0.000145437
0.00443314
0.000148443
0.000141013
0.000197665
0.000155223
0.000141009
0.000144081
0.000166207
0.000152033
0.000166055
0.000135575
0.000145378
0.000148329
0.00882322
0.00072768
0.000135271
0.000140759
0.000189298
0.00014108
0.00014774
0.00287576
0.000797242
0.00017232
0.000143906
0.000149354
0.000192884
0.000150158
0.000234716
0.000154263
0.000136768
0.000184382
0.000207933
0.000147861
0.000144222
0.000154206
0.000146203
0.000153226
0.000143794
0.000221409
0.000148982
0.000153382
0.000142618
0.00014107
0.000152391
0.000149871
0.000177647
0.0554353
0.00159276
0.000152188
0.000196139
0.000180385
0.000143775
0.000144509
0.000170713
0.000143352
0.000174547
0.000145268
0.000159849
0.00233328
0.000322618
0.000318585
0.00018728
0.000130717
0.047093
0.000148569
0.000140609
0.000402099
0.00014312
0.000169566
0.000139294
0.000204911
0.000143086
0.000180927
0.00556996
0.000181557
0.000144276
0.000137472
0.000182332
0.000152376
0.000142693
0.00363319
0.000270474
0.000140544
0.000171129
0.00017779
0.000137398
0.000149238
0.000167518
0.000361395
0.000172023
0.00014843
0.0001451
0.000167648
0.000144481
0.000136144
0.000143502
0.00021883
0.0544204
0.000136547
0.000150821
0.000145208
0.000196603
0.000205162
0.000134815
0.000169955
0.000171885
0.000145239
0.0017104
0.00018091
0.000148543
0.000145932
0.000170969
0.000198668
0.00162211
0.000136321
0.000327728
0.000142914
0.000136536
0.000176202
0.000152785
0.000226001
0.000176734
0.000153736
0.000157484
0.000149025
0.000196262
0.000152803
0.000160046
0.000148734
0.000136069
0.000147896
0.000136276
0.000180867
0.055526
0.000204479
0.000155015
0.000147045
0.000148714
0.000147828
0.000153056
0.000148963
0.000135445
0.000143744
0.000173914
0.000137433
0.000148803
0.0115975
0.00030896
0.000208769
0.000147334
0.000150314
0.000167694
0.000148783
0.00590069
4.75043e-05
0.000157415
0.000156959
0.000158966
0.000150412
0.000154368
0.0414647
0.000167924
0.000149317
0.00511111
0.000146981
0.000316188
0.0456886
0.000156187
0.000149013
0.0435504
0.000140749
0.000180414
0.000187031
0.00182987
0.000152798
0.000147741
0.000145128
0.00108477
0.00121193
0.00145432
0.00468125
0.000152787
0.000144994
0.000156822
0.000143188
0.000156557
0.000338617
0.00266979
0.0561672
0.0160196
0.000169912
0.000182081
0.000170266
0.000141289
0.000142257
0.000174427
0.000157932
0.000146365
0.000143136
0.00330569
0.000139971
0.0134875
0.000161809
0.000181037
0.000194851
0.000142304
0.000156235
0.00028926
0.000143706
0.0566696
0.000143551
0.000287447
0.000168037
0.000149312
0.000169733
0.00018817
0.000188595
0.000149555
0.000133999
0.000166599
0.000156507
0.000181566
0.00014352
0.000181168
0.000139917
0.000171069
0.000146932
0.000143803
0.000210633
0.000183091
0.000193941
0.000144596
0.000157707
0.000155074
0.00365151
0.0537562
0.000155501
0.000212289
0.000145314
0.000162507
0.000148001
0.000155154
0.0511554
0.000136758
0.0015136
0.000146607
0.000145789
0.000155709
0.005891
0.000154304
0.000204005
0.000148487
0.00016626
0.00552412
0.000131481
0.00014107
0.000292295
0.00017324
0.0102716
0.000178039
0.000147609
0.000143149
0.000142687
0.000156166
0.000149081
0.000137999
0.000231236
0.00905455
0.000143588
0.00358798
0.00174126
0.000156336
0.000212143
0.000136363
0.000260977
0.00132534
0.00013253
0.00532639
0.000169327
0.012276
0.00379954
0.00014315
0.000142616
0.000148014
0.00185277
0.000172058
0.000144727
0.00014899
0.000227262
0.000148325
0.000169934
0.00014347
0.000168009
0.0546015
0.000665486
0.000276337
0.000704266
0.000175107
0.000864565
0.000156966
0.00014062
0.000160308
0.00365179
0.000194992
0.00017093
0.000144478
0.000242986
0.00014539
0.000147824
0.0318178
0.000148824
0.000161273
0.000195184
0.000199786
0.000144602
0.000142898
0.000155546
0.000158527
0.000134143
0.000145666
0.000172271
0.00021742
0.000153255
0.000145043
0.00017662
0.00573253
0.000143908
0.000512375
0.0008034
0.000145136
0.000424404
0.000134748
0.000196063
0.000143699
0.00014123
0.000210146
0.000153295
0.000215394
0.000152909
0.000142914
0.000542491
0.000143671
0.00013496
0.000145766
0.000140722
0.000162147
0.000171815
0.000329509
0.000150904
0.0566607
0.000150993
0.000385923
0.00597971
0.000149367
0.000144014
0.000157708
0.000136557
0.000185507
0.0001425
0.000134817
0.000135649
0.000144532
0.000143629
0.000245974
0.000155851
0.00017354
0.000153201
0.000158646
0.00015421
0.000167055
0.000324686
0.00013737
0.000180421
0.000179055
0.000134398
0.00340813
0.054458
0.000141751
0.000206599
0.000145306
0.00338386
0.000166118
0.000132354
0.000166888
0.000159383
0.000310849
0.000142525
0.000154857
0.000887688
0.000213645
0.000302601
0.000143597
0.00169454
0.000179511
0.000257502
0.00014353
0.000152209
0.000142842
0.000146019
0.000142147
0.000145011
0.000136759
0.000240169
0.000163451
0.00014107
0.000134229
0.000140293
0.00014817
0.000208662
0.000178979
0.000137575
0.000158537
0.000146629
0.000146849
0.000145028
0.000140869
0.000220619
0.000134246
0.000140271
0.000149032
0.000147101
0.000154393
0.000144505
0.000310178
0.000310605
0.000155759
0.000140115
0.000197693
0.000134701
0.000134316
0.000144308
0.000321476
0.000154929
0.000143519
0.000135912
0.000137165
0.000156928
0.000133919
0.000159605
0.000142398
0.000148072
0.000142045
0.000152013
0.000380777
0.000140558
0.000148717
0.000143446
0.000210705
0.00194318
0.000159038
0.000149071
0.000181042
0.000163134
0.000214232
0.0370958
0.000148962
0.00141354
0.000148824
0.0181618
0.000150453
0.000137044
0.000135796
0.00957236
0.000135406
0.000159275
0.000216456
0.000201641
0.000180307
0.000153987
0.000142312
0.000143633
0.000143732
0.000160451
0.000189272
0.00371346
0.000174424
0.000145411
0.000133944
0.000155392
0.000141972
0.000140829
0.000148373
0.000173688
0.000159717
0.00276186
0.000145332
0.000144397
0.000172771
0.000143198
0.000198756
0.000174623
0.000176168
0.000191869
0.017841
0.00016299
0.000141257
0.000134016
0.000147518
0.000142966
0.00753122
0.000172012
0.000184776
0.000137008
0.000146952
0.000152023
0.000141081
0.0344439
0.000283809
0.000134339
0.000135768
0.000143257
0.000142176
0.000140956
0.000144076
0.00022366
0.000134783
0.000149701
0.000137017
0.00013788
0.000142283
0.00014581
0.000159858
0.000137836
0.000178714
0.000135875
0.0033022
0.000218021
0.000153975
0.000863068
0.000152214
0.00014874
0.000178778
0.00232053
0.000144578
0.000140202
0.000137023
0.000171378
0.000150258
0.000162881
0.000980998
0.000146223
0.000149257
0.000144645
0.0186776
0.000833925
0.000151018
0.000139684
0.000158646
0.000173658
0.000142367
0.00018756
0.000140257
0.000133994
0.000156011
0.000307058
0.00548805
0.00260678
0.000225264
0.000134655
0.000207649
0.000214229
0.000160736
0.000143719
0.000214125
0.00015738
0.000232361
0.000338165
0.000141853
0.000134719
0.000144689
0.000149945
0.000134858
0.000728832
0.00365055
0.000134626
0.000146421
0.000148798
0.000167839
0.000144263
0.000141856
0.000183503
0.00014873
0.000142775
0.00178419
0.000187716
0.000182878
0.000142784
0.000136003
0.000134849
0.00014411
0.000167399
0.000200336
0.000140641
0.00013906
0.000151578
0.00146187
0.000137043
0.00014395
0.00018819
0.000141049
0.000139223
0.000143631
0.0159214
0.000135821
0.000144483
0.000137106
0.000151252
0.000135805
0.000158627
0.000193984
0.000143984
0.000211019
0.000162994
0.000215571
0.000179649
0.00014087
0.00016228
0.000140529
0.000139093
0.000140864
0.00472651
0.00473144
0.000234663
0.000159942
0.000412837
0.000179094
0.00014995
0.000188591
0.000203705
0.000156179
0.00013559
0.00529408
0.000150095
0.000140687
0.000137963
0.00228705
0.00455913
0.000347091
0.000138919
0.000182279
0.00157919
0.000173904
0.000166687
0.000155369
0.000151881
0.000165406
0.00249941
0.000151376
0.000150239
0.000156829
0.0414681
0.000317492
0.000144192
0.000146634
0.000143016
0.0259566
0.000153751
0.0001485
0.000390754
0.000158557
0.000175538
0.000155292
0.0053357
0.000138609
0.0183219
0.00014974
0.000135835
0.000141329
0.000135491
0.000135897
0.000140845
0.000147827
0.000241716
0.000138098
0.0188802
0.000159184
0.000147438
0.000141227
0.000187096
0.000143506
0.000146413
0.000153835
0.00146135
0.000192791
0.000153299
0.000146359
0.0428916
0.000138574
0.000175727
0.000146151
0.000363442
0.000167671
0.00614456
0.00015975
0.000142694
0.000234058
0.000341627
0.000270646
0.00013767
0.000143565
0.000167203
0.0518862
0.000130994
0.000176936
0.000149707
0.000158277
0.000140476
0.000134824
0.000148684
0.000149947
0.00013523
0.000175945
0.000173875
0.000159687
0.000191275
0.00666743
0.00015025
0.00119862
0.000136227
0.000185274
0.0126723
0.000199926
0.000134611
0.000148419
0.000145933
0.00256823
0.0001446
0.000140493
0.000181654
0.00014623
0.00014617
0.000151271
0.000149535
0.000142941
0.0474912
0.00646198
0.000178947
0.000139188
0.000145355
0.000243
0.000136194
0.000260071
0.000147077
0.000145742
0.000149202
0.000157623
0.00022524
0.000146855
0.000145108
0.000320958
0.000146825
0.00014837
0.000167339
0.0290496
0.00254306
0.000144407
0.000143331
0.0516614
0.00397718
0.000276711
0.000141968
0.000165153
0.000210574
0.000137873
0.000214332
0.000151443
0.00482751
0.000154346
0.000146118
0.000151088
0.000135455
0.0505072
0.000144987
0.000138904
0.001554
0.0001953
0.00140823
0.000135061
0.000151781
0.000135538
0.00013208
0.000136195
0.000150457
0.00014655
0.000148362
0.000135486
0.00014804
0.000176332
0.000159899
0.000160271
0.000140467
0.000153412
0.000142087
0.00516499
0.000147301
0.000150333
0.000147856
0.000135813
0.000148197
0.00014875
0.000144025
0.000143366
0.000141052
0.000136254
0.00356735
0.000362035
0.000144594
0.0488814
0.000167015
0.00014898
0.000147685
0.000150151
0.00109285
0.000148437
0.000136159
0.000134567
0.000134603
0.000299448
0.000144716
0.000137046
0.000231178
0.000134064
0.000133524
0.000171686
0.000178002
0.000224622
0.000192717
0.00353848
0.000135958
0.00572251
0.000157888
0.000143122
0.000136814
0.000163594
0.000143153
0.000164618
0.000180371
0.000152016
0.000150525
0.0324032
0.000210764
0.000326108
0.00237154
0.00192772
0.000240124
0.000139198
0.000456559
0.0129472
0.000135077
0.00614144
0.0001389
0.000150784
0.000194574
0.000140291
0.000274108
0.00015787
0.000152389
0.000147942
0.000132769
0.000143894
0.0184991
0.000142831
0.000136144
0.000843634
0.000133885
0.000147189
0.000148533
0.000178011
0.000142247
0.000144063
0.000152781
0.00182724
0.000144307
0.000144659
0.000136699
0.000154802
0.000142364
0.000150774
0.00186629
0.000141469
0.000157871
0.000147876
0.000156733
0.000157979
0.000140431
0.000148882
0.000183231
0.00014682
0.000148509
0.000159661
0.00535826
0.000149889
0.000141765
0.000143975
0.000163037
0.000225306
0.000150352
0.000140987
0.000141373
0.000137704
0.000131914
0.00013559
0.000157997
0.000217404
0.000178747
0.000146498
0.00034565
0.000139539
0.000147235
0.0524657
0.000171331
0.00013419
0.000188912
0.000148593
0.00014097
0.00433192
0.000148096
0.000175877
0.000132451
0.00019547
0.000139246
0.000134794
0.000136059
0.00145247
0.000241779
0.00014661
0.000257167
0.000135892
0.000142121
0.000139055
0.000196334
0.000145544
0.000138466
0.000147039
0.000151952
0.000142971
0.000145605
0.000140458
0.000148526
0.000146414
0.000140395
0.00015314
0.0001351
0.000312042
0.000179707
0.000136448
0.000277188
0.000158338
0.000140789
0.000139766
0.000150439
0.000140561
0.000161791
0.000156017
0.000199835
0.000202655
0.000147414
0.000178596
0.000195835
0.000143033
0.000147291
0.000183274
0.000154929
0.00532649
0.000135674
0.000142885
0.000152234
0.000145403
0.000144443
0.000157559
0.000140499
0.000176865
0.000144165
0.000155555
0.000139566
0.000190975
0.000144718
0.000154772
0.000203194
0.00014273
0.00530876
0.00189605
0.000153048
0.00015905
0.000162909
0.000134227
0.000196477
0.000145403
0.000167857
0.00105703
0.00610648
0.000227137
0.000183856
0.00016471
0.000143115
0.000165517
0.000139009
0.0396355
0.000206085
0.000147445
0.000140635
0.000270526
0.000175523
0.000142786
0.000143219
0.00594327
0.00014756
0.000138376
0.00337698
0.00017445
0.000134949
0.000251375
0.000136032
0.000125641
0.000175502
0.000142994
0.00014432
0.000154154
0.000361763
0.000140204
0.000159095
0.000144296
0.000143024
0.000139822
0.000397471
0.000148385
0.000144578
0.000144277
0.00023842
0.00015951
0.000140386
0.000132836
0.000185193
0.000142221
0.000136903
0.0002774
0.0324742
0.000148847
0.000331815
0.000154476
0.000172484
0.00014922
0.000177591
0.00572236
0.000146151
0.000142854
0.000137281
0.00015573
0.000142797
0.000854588
0.00023565
0.000137426
0.000149966
0.000136334
0.000135463
0.016671
0.000142886
0.000150659
0.000152093
0.000214393
0.000144521
0.000147727
0.000156052
0.00612584
0.000146348
0.000144651
0.000137341
0.000138358
0.000155183
0.000171274
0.000147065
0.00014222
0.000144861
0.000143161
0.000137298
0.045218
0.000147625
0.000143366
0.000141971
0.000176529
0.000136519
0.00013692
0.000169361
0.000142261
0.000186431
0.000144446
0.000144499
0.00134381
0.0485823
0.0136563
0.000284152
0.000156473
0.000147492
0.0546114
0.000139619
0.000155982
0.000135062
0.00289329
0.000130413
0.000155577
0.00014461
0.00503985
0.000178422
0.000178214
0.0525917
0.000150632
0.000199427
0.000147947
0.00014885
0.0347538
0.000166694
0.000142112
0.000135978
0.000154321
0.000165827
0.000144001
0.000144872
0.000139605
0.000134797
0.000212191
0.00472068
0.00014793
0.000150518
0.0368413
0.000312646
0.000154654
0.000157987
0.000152952
0.000155188
0.000142331
0.000153
0.000262778
0.000140284
0.000136224
0.000146132
0.000272138
0.000231437
0.000157864
0.000146532
0.00014682
0.000160177
0.000143723
0.000158629
0.000177311
0.000229641
0.000153108
0.000297742
0.000134745
0.000142818
0.000148398
0.000135177
0.000146897
0.000140077
0.000212187
0.000140939
0.00287309
0.000146665
0.000139041
0.000137586
0.00018386
0.0001507
0.000171209
0.000188138
0.000136106
0.0170674
0.000153889
0.000138022
0.000133344
0.00179578
0.000123083
0.000133573
0.000140554
0.000141381
0.000153019
0.000201889
0.00022623
0.000147708
0.000150017
0.000193267
0.0556601
0.000149267
0.000142626
0.00322212
0.000154592
0.00107615
0.000152537
0.000142406
0.000178236
0.000166885
0.0479771
0.000171693
0.000327748
0.00013688
0.000142098
0.00014884
0.000146602
0.000154549
0.000147682
0.000146144
0.00013953
0.000148467
0.000145449
0.000149131
0.000147593
0.000152483
0.000148718
0.000143657
0.000142116
0.000176589
0.00015827
0.000140375
0.000145225
0.00021034
0.000143265
0.000146575
0.000148003
0.000348617
0.000136939
0.000168517
0.000153324
0.000136073
0.000143884
0.0418389
0.00022533
0.000150234
0.000146905
0.000153904
0.000173327
0.000140039
0.000161858
0.000179838
0.000141235
0.000191281
0.000140879
0.00014324
0.000144733
0.000148844
0.000161485
0.000204936
0.0533932
0.000171967
0.000136246
0.000144991
0.000143461
0.000208548
0.000149083
0.00101512
0.000139769
0.000143872
0.000143527
0.000180092
0.000142383
0.000146549
0.000144459
0.000192516
0.000137015
0.00488992
0.000137006
0.000163069
0.000145759
0.000161689
0.000140803
0.00015408
0.000330657
0.000248665
0.000136322
0.000182976
0.000145222
0.000146558
0.0311258
0.000334953
0.000136138
0.000142744
0.000155941
0.000135946
0.000144259
0.000148498
0.000147628
0.000157002
0.000174185
0.000150078
0.000158828
0.000259785
0.000147199
0.000140814
0.000142094
0.000151564
0.000162783
0.00014416
0.0516796
0.000140893
0.054729
0.000167136
0.000136574
0.000140065
0.000139807
0.00021477
0.000147342
0.000152822
0.000146188
0.000141326
0.000345242
0.000153859
0.000170639
0.000147258
0.000145552
0.000151709
0.000143259
0.000153756
0.000143463
0.000150095
0.000149309
0.000148318
0.00678065
0.000175386
0.00104828
0.000140935
0.000170855
0.00015055
0.00158558
0.000186478
0.00457741
0.000150218
0.00013472
0.000169646
0.000142755
0.00505179
0.000149802
0.000190917
0.000150733
0.0465788
0.0180053
0.000153781
0.000170309
0.000139432
0.00013745
0.000148627
0.00013451
0.000147953
0.000152849
0.000139484
0.000162177
0.00020716
0.00130565
0.000140707
0.00025933
0.000134656
0.000142408
0.000143736
0.00018282
0.000147859
0.000254536
0.000148049
0.000143561
0.00289462
0.000140215
0.000152404
0.000142334
0.000153444
0.0042456
0.00016541
0.0414439
0.000143929
0.000185958
0.000152711
0.000141744
0.000143981
0.000195164
0.000165734
0.000143096
0.000151875
0.000143194
0.00454114
0.000139075
0.0171088
7.14832e-05
0.000186063
0.00015787
0.000238307
0.000179113
0.000134507
0.000656219
0.000142364
0.0174418
0.00014849
0.000151845
0.00620705
0.00585424
0.000160827
0.00625777
0.000143574
0.00111985
0.000131133
0.00914638
0.00013528
0.000152231
0.000191694
0.000147791
0.000139154
0.000149271
0.000144714
0.000176665
0.00126626
0.000169556
0.00150131
0.000141392
0.00035308
0.000144364
0.000147727
0.000142834
0.000144918
0.00509208
0.000147535
0.000137944
0.0001668
0.000148209
0.00379372
0.000204078
0.000142968
0.000205746
0.000168625
0.000140572
0.000144838
0.000154981
0.000136512
0.000174965
0.000163404
0.000150577
0.000151648
0.000137206
0.000146362
0.000175918
0.000148817
0.000144973
0.000150351
0.000135318
0.000135595
0.000393485
0.000161403
0.0564899
0.000159969
0.000174079
0.000159481
0.000142117
0.000165401
0.000138747
0.000140788
0.000569781
0.000165662
0.000167628
0.000177236
0.000146902
0.000230006
0.00916522
0.000143556
0.000162389
0.000185059
0.05173
0.000136363
0.000137999
0.000147129
0.000177722
0.000933829
0.00016705
0.000154461
0.000148062
0.000142023
0.000136218
0.00440116
0.000152979
0.000152586
0.00574351
0.000146716
0.000152471
0.000155707
0.000145069
0.000142786
0.000143127
0.000174375
0.000201452
0.000148288
0.000152608
0.000249718
0.000142251
0.000149453
0.000153792
0.000146748
0.00600856
0.00550728
0.00195667
0.000205363
0.00106703
0.000151372
0.000139803
0.000233814
0.00015091
0.000160706
0.000143487
0.000135416
0.00356228
0.00024916
0.000141418
0.000139599
0.000162477
0.000289585
0.000154634
0.000135189
0.0498822
0.000152514
0.000167471
0.000135019
0.000160043
0.000131153
0.000151422
0.000158874
0.000142028
0.0414823
0.000149206
0.000170211
0.000204557
0.00117114
0.000199383
0.000142191
0.000176924
0.000155562
0.000162955
0.000151188
0.000149392
0.000145342
0.000151439
0.00196482
0.000152033
0.00189445
0.000140026
0.00021365
0.00013588
0.000148869
0.00331816
0.000155972
0.00021235
0.000158513
0.000149664
0.0530481
0.0497709
0.000140039
0.0065907
0.00017379
0.000138871
0.000133893
0.000357237
0.00370094
0.000139184
0.000136159
0.000143018
0.000136731
0.0525638
0.000326743
0.000130232
0.000133067
0.000139954
0.000225623
0.000172101
0.00556209
0.000136011
0.015153
0.000147109
0.000189839
0.0431338
0.00016471
0.00013938
0.000139822
0.00590769
0.000136577
0.000141247
0.000136433
0.000163945
0.000154255
0.0453202
0.000162211
0.000148228
0.000142372
0.000158422
0.000210332
0.000185975
0.000141694
0.000141858
0.000196264
0.000173596
0.000150152
0.00562479
0.000161181
0.000152548
0.0241081
0.000151901
0.000159403
0.000148403
0.00181393
0.000145209
0.000148529
0.000294194
0.000159924
0.00014118
0.000143347
0.000131193
0.000177259
0.00020189
0.000141097
0.000136025
0.000149253
0.000178284
0.000154484
0.000135077
0.000142788
0.00013914
0.000150016
0.000170004
0.000146738
0.000142689
0.0287386
0.000142073
8.10567e-05
0.000165016
0.00016882
0.000152619
0.000151182
0.000145021
0.000173522
0.00019872
0.000177986
0.0422866
0.000164268
0.000140107
0.0337228
0.000136433
0.00017904
0.0497589
0.000150443
0.000141794
0.000154613
0.000179721
0.000142684
0.000143113
0.00155864
0.000142886
0.000149908
0.000141096
0.000147195
0.000137554
0.000201032
0.000191817
0.000135826
0.000141103
0.00973149
0.000142593
0.000136525
0.000140886
0.000140781
0.000607785
0.000155906
0.000152909
0.000153043
0.000149228
0.000137597
0.000178127
0.000187538
0.0001591
0.00218015
0.000151154
0.000154284
0.0425841
0.000140115
0.000136254
0.000143838
0.000140617
0.000148522
0.000132623
0.000150769
0.0454646
0.000144485
0.000141879
0.000156348
0.000140687
0.0013005
0.000147591
0.0469614
0.000208236
0.000165666
0.000162455
0.00243662
0.000159031
0.000143302
0.000152643
0.000140478
0.000151046
0.000145155
0.000147815
0.026752
0.000135807
0.000143792
0.000173253
0.000231569
0.000147784
0.000139759
0.000208891
0.000149569
0.000172883
0.000143076
0.000139891
0.000144315
0.000412073
0.000146246
0.000219459
0.000177157
0.00015208
0.000139672
0.000143315
0.000161503
0.00154664
0.000135865
0.000180291
0.00014185
0.0462123
0.000225879
0.000150193
0.000203661
0.000146143
0.000152916
0.000156484
0.00229951
0.000155655
0.000157688
0.000161386
0.00507081
0.000147407
0.000175936
0.00014457
0.000208876
0.000195187
0.000208704
0.000142678
0.000164232
0.00119189
0.000577921
0.000151991
0.000154903
0.00180659
0.00195632
0.000140428
0.000174863
0.000143499
0.000155553
0.000145971
0.000152894
0.000152116
0.000159757
0.000147211
0.000148187
0.000177358
0.00554748
0.00163523
0.000189457
0.00473089
0.000139924
0.00134766
0.0001795
0.000142276
0.000141774
0.0043504
0.000155824
0.000145128
0.000142584
0.000175724
0.000138661
0.000142823
0.0325331
0.000145532
0.000148114
0.000141118
0.00014387
0.000151397
0.000138894
0.0359344
0.000163065
0.000151566
0.000139584
0.00016448
0.00578564
0.000142254
0.000148259
0.00151388
0.00020732
0.000143498
0.000155099
0.000138734
0.00014041
0.000196405
0.000200546
0.000140452
0.000143291
0.00168725
0.000261218
0.00725836
0.000188452
0.000158204
0.00494774
0.000140578
0.000156159
0.000154984
0.000140007
0.00161196
0.00821878
0.000169186
0.000192153
0.0189231
0.000133898
0.000133066
0.000150901
0.000169956
0.0077515
0.000136382
0.000173212
0.00819577
0.0300315
0.000147055
0.000151212
0.0014074
0.000142758
0.000155122
0.00578466
0.000140903
0.000142522
0.000139186
0.000237887
0.000142108
0.000165182
0.00014852
0.000221516
0.000162122
0.00476973
0.00014329
0.00014226
0.000163638
0.000147778
0.000166868
0.000150283
0.000184713
0.000188916
0.000140818
0.000144362
0.0525809
0.0320381
0.00172486
0.000139079
0.000143398
0.00015504
0.000145337
0.000143121
0.000144028
0.000163126
0.000148567
0.000139362
0.000139729
0.000184043
0.000153516
0.00016973
0.00403294
0.000180326
0.000173682
0.000156287
0.000195423
0.000216997
0.000162742
0.000155154
0.00015961
0.000141827
0.000750243
0.00013727
0.000135708
0.000140913
0.00667242
0.00014224
0.00657006
0.000147849
0.000135024
0.000185916
0.000143118
0.00014231
0.000143102
0.000188161
0.000244918
0.000147518
0.000140004
0.000151768
0.0180578
0.000173201
0.00329079
0.000143446
0.000175631
0.000147017
0.000145614
0.000136177
0.000138914
0.000143408
0.000152912
0.00106484
0.000152205
0.000154419
0.00018877
0.0100598
0.000190918
0.000141826
0.000190977
0.000163936
0.0106818
0.000137898
0.000143408
0.000179018
0.000309284
0.000132374
0.000144549
0.000138867
0.000136503
0.00018998
0.000152589
0.000191835
0.000147318
0.000132164
0.000163467
0.000144003
0.00599994
0.000144115
0.000209262
0.000148018
0.000159664
0.000149445
0.000178738
0.00301769
0.000142474
0.000186157
0.0430278
0.000141674
0.000146438
0.000169964
0.000131842
0.00909238
0.000179025
0.000142424
0.000176639
0.000134272
0.000145291
0.000147875
0.000141673
0.000136519
0.000149974
0.000140817
0.000138793
0.00014526
0.00014749
0.000173308
0.000135935
0.000204662
0.000138358
0.000140373
0.000159812
0.000176724
0.000149555
0.000131946
0.000142418
0.0001535
0.00017507
0.00740237
0.000164283
0.00014906
0.000149081
0.000139539
0.000162462
0.000140697
0.000152578
0.016747
0.000228165
0.000171916
0.000141393
0.000147543
0.000149949
0.000132062
0.00018581
0.000134885
0.000239749
0.000149285
0.000216479
0.000158969
0.0102096
0.000147209
0.000184835
0.00587174
0.00565384
0.000806585
0.000157696
0.00449707
0.0274852
0.000148712
0.000165183
0.0512846
0.000139261
0.000139033
0.000143913
0.00015562
0.000228014
0.000145793
0.000157956
0.00655229
0.000130256
0.000144565
0.00838763
0.000667901
0.000186588
0.00101127
0.00418551
0.000149981
0.000195201
0.000153815
0.000155233
0.00285202
0.000154069
0.0453843
0.000148405
0.00015403
0.000145912
0.000150568
0.000157592
0.000139257
0.00880962
0.000132281
0.000142836
0.000143283
0.00229971
0.0448728
0.000240695
0.000144857
0.000149877
0.000139091
0.0558842
0.000143373
0.000149338
0.000154073
0.000212937
0.000138639
0.000183751
0.042312
0.00248239
0.000147758
0.000629069
0.000139557
0.00149576
0.000132688
0.000252145
0.000147805
0.000177805
0.000160889
0.00853325
0.000207607
0.000152125
0.000153342
0.000181228
0.000154843
0.00014193
0.000138723
0.000156395
0.000147436
0.00110528
0.000131623
0.000142907
0.00014422
0.0001438
0.000884581
0.000139322
0.000134603
0.00014653
0.00113292
0.000165417
0.000176016
0.000152002
0.000151281
0.000185847
0.000139868
0.000143213
0.000189632
0.000171201
0.000134616
0.000173143
0.00015251
0.00117365
0.000142709
0.000245629
0.000147578
0.00014319
0.000135251
0.000134906
0.000142291
0.000141365
0.00740841
0.000184336
0.00014663
0.000143126
0.000142409
0.000152607
0.000158948
0.0439708
0.000148076
0.000206305
0.000165695
0.00227834
0.00014722
0.000174726
0.000143077
0.000142741
0.000163131
0.000142567
0.000145586
0.000140558
0.000137132
0.0530084
0.000143577
0.000139258
0.000320872
0.00223019
0.000192318
0.000146518
0.000135482
0.000155139
0.0456839
0.000153386
0.000147781
0.000147128
0.00550067
0.000148523
0.00014386
0.000164516
0.000141543