/*--------------------------------*- C++ -*----------------------------------*\
| =========                 |                                                 |
| \\      /  F ield         | OpenFOAM: The Open Source CFD Toolbox           |
|  \\    /   O peration     | Version:  v2012                                 |
|   \\  /    A nd           | Website:  www.openfoam.com                      |
|    \\/     M anipulation  |                                                 |
\*---------------------------------------------------------------------------*/
FoamFile
{
    version     2.0;
    format      ascii;
    class       volScalarField;
    location    "900";
    object      ddt0(omega);
}
// * * * * * * * * * * * * * * * * * * * * * * * * * * * * * * * * * * * * * //

dimensions      [0 0 -2 0 0 0 0];


internalField   nonuniform List<scalar> 
18355
(
-1.36769
1.62473e-06
-0.00672814
1.93517e-06
-0.0143937
0.238775
-3.43389e-05
-0.0163248
-1.15785e-06
-0.0854618
-0.000419539
-0.0104382
-0.0105069
0.408032
5.93963e-07
2.74885e-06
2.01292e-06
-0.000128126
-0.00594952
4.67051e-05
-0.158824
-5.82516e-06
1.6032e-06
0.389057
1.53893e-06
-6.96777e-05
-4.35908e-05
2.58533e-06
-1.96151e-06
-0.00053685
-0.0610382
0.00190326
4.22773e-06
-9.80637e-07
-1.27553e-06
7.0711e-06
0.000379331
4.12469e-06
-0.000597463
-1.83171e-05
3.85768e-06
-0.000511156
-5.90249e-07
1.37316e-06
1.67762e-06
0.00470741
6.90633e-07
4.49856e-07
0.105425
4.55949e-06
-2.63542e-06
0.543558
1.0856e-05
-0.00460273
1.00804e-06
3.84025e-05
-4.22851e-06
1.9292
-8.01145e-05
0.691799
-8.21843e-07
-0.0048568
-0.003601
-2.82601e-05
0.00460355
-1.18862e-06
2.40178e-05
0.000398642
-1.37455e-06
0.0677757
-6.49497e-06
9.94699e-07
0.000300958
-0.000114833
-0.0229648
-1.66918e-06
1.61431
-1.73725e-06
-5.78582e-06
-0.0234437
5.3021e-06
0.0781528
-1.56439e-06
6.21141e-07
0.0028947
-3.00427e-06
6.89991e-07
0.00185291
1.56431e-06
0.00186998
0.592553
-0.144775
0.150516
2.99772e-06
-0.0473955
9.42971e-05
3.54109e-07
3.93993e-05
0.000753372
-1.00811e-05
0.00267512
-4.17616e-06
1.19247e-06
-4.91251e-07
3.68391e-06
2.92817e-06
0.00460843
-0.0029849
0.00108198
1.47182e-06
-3.18828e-06
-1.37614e-06
-0.000688154
-2.75487e-05
0.112535
-0.000292228
-4.10897e-06
-0.0402964
-4.2342e-05
2.03415e-05
0.00311791
-0.00562173
0.477781
0.00245886
-0.0364129
0.184491
-3.99409e-05
1.9068e-06
-0.808765
-2.15582e-06
3.24214e-07
0.264495
-1.51782e-06
-0.00100753
-0.000591899
3.20869e-06
-0.00724515
-0.523673
2.54858e-06
-0.145324
0.000231972
0.0292083
-9.00225e-07
0.928578
3.90111e-06
3.29867e-06
0.91039
-4.68133e-07
-0.00069775
0.0495661
2.34318e-06
1.9189e-05
-4.52674e-05
0.000178993
-3.6562e-07
1.34667e-06
1.75043e-06
-2.39515e-06
-7.69749e-07
1.50725e-06
-0.00020923
-1.93874e-06
1.66269e-06
0.00137049
-0.0002338
0.102883
0.612188
-0.935252
-0.6206
0.0002285
9.63583e-07
-0.000576596
1.18729e-06
0.468641
-1.45498e-06
3.68178e-06
-8.81971e-07
-8.93173e-07
3.64926e-05
0.000224128
-2.87696e-06
0.0798746
-6.07253e-06
2.74212e-06
0.0304411
-1.43553e-06
4.8158e-06
0.00176876
3.36928e-06
-4.42223e-05
0.0613117
0.00084747
2.48845e-06
1.80084e-07
3.74236e-06
0.149158
-1.47715e-06
-0.787941
1.92434e-06
0.369687
-2.68061e-06
6.23743e-05
-0.000614584
-6.62196e-07
-1.78988
1.9462e-06
-0.688098
2.69642e-06
2.76542e-06
-2.1925e-05
-7.53601e-06
0.154964
1.48207e-05
7.12368e-05
-5.4051e-07
0.675047
0.000207134
0.000206331
3.48972e-07
-3.18772e-07
0.000922235
2.99706e-06
0.00165237
-0.000677445
-0.000435806
-0.000307307
2.63138e-06
-0.580141
-0.0438053
0.000300762
9.37598e-06
1.4003e-05
0.137388
3.10216e-06
0.00100563
0.0031483
9.21701e-06
0.075387
0.000113501
5.5403e-05
2.19569e-06
3.00036e-05
5.44698e-06
0.000320948
9.87863e-07
1.44728e-06
1.08695e-06
0.115224
0.441074
-1.07996e-05
-0.00012047
0.362582
-0.00950674
-0.000831609
-7.09922e-07
0.0113114
0.000114781
2.16189e-06
-0.000444715
2.02076e-06
0.0767014
-0.0857046
0.00105299
0.000216484
-0.000679806
0.000407198
0.00252895
0.000826569
2.22798e-06
1.38358e-06
-4.6714e-05
9.9325e-07
6.72294e-05
0.000204123
1.72699e-06
-5.89334e-06
-0.000174276
3.40483e-06
0.00138523
-0.568357
-9.17388e-05
-8.72516e-06
-0.00035079
6.48616e-07
0.00188627
2.90835e-06
0.000237335
4.29514e-06
0.000170417
0.00745888
3.83688e-06
0.000505805
-2.37795e-05
0.000212671
0.00355773
6.234e-07
5.96575e-07
0.00222519
-6.53726e-06
0.0306267
0.000364506
-0.109538
0.0018062
0.00094749
-1.89567e-05
-0.000715988
8.02713e-06
8.78926e-05
0.000228494
0.000545044
0.0779531
3.8058e-05
1.23811e-06
8.4064e-05
-0.00355756
-0.000318576
1.3331e-06
2.61053e-07
1.79077e-06
-0.000824746
0.000967473
0.0282521
0.0732687
2.86405e-05
0.000201255
0.160658
5.10877e-08
2.32712e-06
0.000198139
1.52639e-06
0.000317207
-1.77078e-06
0.385963
3.34129e-06
-0.0388281
2.84755e-06
-1.54966e-05
9.84979e-06
-0.0118445
-0.197402
0.000328025
0.059331
-2.48828e-05
1.49243e-06
1.36678e-06
0.000188705
0.0260042
6.18821e-07
3.24516e-06
0.0589032
-1.87992e-05
1.74196e-06
-0.0108709
3.5167e-05
1.49583e-06
6.52404e-06
0.000320132
-3.51436e-07
0.000225267
5.89811e-06
3.23407e-06
-1.07398e-05
0.999635
0.0640934
4.99185e-06
-5.85006e-07
-0.000947242
1.96834e-06
2.49887e-06
0.176568
0.064157
-0.00019444
8.23348e-07
1.0973e-05
-0.0109889
-1.44673e-05
0.0133467
8.20262e-05
3.27898e-06
-0.00131096
-0.0033123
-8.31823e-06
3.17222e-06
-0.000136711
2.96775e-06
-0.00014876
3.74073e-06
0.00164046
6.05906e-07
1.93485e-05
-1.78587e-06
1.65743e-06
8.70747e-05
-5.13953e-05
-0.00175322
1.93979
0.0805738
2.63769e-05
-0.00866233
0.00160257
2.69745e-06
-3.24865e-06
0.000521249
3.28267e-06
0.000224181
-2.58851e-05
-0.000233657
0.198605
-0.0109151
-0.186851
0.00146028
-6.31915e-07
0.58263
-9.89392e-06
1.52486e-06
-0.198544
2.89495e-06
-0.000846267
3.96866e-05
0.00609892
2.55399e-06
-0.000622372
0.00389643
0.00103868
3.94684e-06
1.37444e-06
0.000953506
-3.93282e-05
7.64117e-07
0.065519
-0.122719
1.415e-06
0.000451937
-0.00170387
1.74428e-06
-3.89036e-05
0.000286263
0.469006
0.00149879
-1.97584e-05
1.53106e-05
0.000458967
2.70171e-06
-1.34811e-06
-6.17116e-07
-0.00696982
2.5472
3.03833e-06
-2.8224e-06
2.69683e-06
-0.0112384
-0.0034416
3.1096e-06
-0.000964033
0.00171254
4.24456e-06
0.227695
-0.00471699
-5.33962e-06
3.09028e-06
0.00145118
-0.0110323
0.454006
2.00006e-06
-0.65306
2.70401e-06
2.12442e-06
0.00204642
-3.03903e-05
0.00125806
0.00036912
2.70363e-05
-0.000118687
-5.43445e-06
-0.0102785
-4.99551e-05
0.000200824
-1.94189e-05
1.05277e-06
4.73425e-06
1.22211e-06
-0.00412987
3.70565
0.00590745
-0.000122973
-7.85346e-07
-2.00043e-05
-3.42546e-05
-3.86142e-05
-2.62165e-05
1.26678e-06
3.39101e-06
0.00183714
2.2172e-06
-1.18757e-05
-0.333109
-1.26199
-0.00437007
-1.33316e-06
-3.9222e-06
0.000334041
-8.30615e-06
0.0696795
-0.00578578
2.64091e-05
-4.80467e-05
7.41859e-05
8.74532e-06
9.31159e-05
0.0497778
0.00098668
-6.23454e-06
0.0431756
1.45187e-06
-0.313145
0.386574
0.000126605
-3.30339e-05
0.0326755
1.77862e-06
-0.000520848
0.0016283
-0.0276807
-5.66113e-05
4.70365e-06
4.22191e-06
0.00149451
0.573398
-0.0280184
-0.00698734
3.26372e-05
4.15725e-06
1.12918e-05
1.67806e-06
6.55484e-05
-0.166167
0.754265
2.25775
0.0630835
0.000509997
0.00115422
-0.00084784
9.2155e-07
1.58169e-06
0.000572292
0.000215878
2.94065e-06
1.77638e-06
-0.0495032
9.56822e-07
0.0485788
0.000170588
-0.00263156
-0.0110478
1.38998e-06
-2.88582e-05
-3.89261
3.36367e-06
2.04598
2.99878e-06
0.416325
0.000984805
3.97711e-06
-0.000883583
0.000772207
0.00137879
-1.84939e-06
-6.38252e-07
0.000538339
0.00013263
-0.00243734
3.4909e-06
-0.00524977
1.23589e-06
-0.00197112
-2.82269e-06
3.86586e-07
-0.00938148
0.000209132
0.00145588
-1.34757e-06
-7.28826e-05
0.000145836
0.325659
0.0652634
0.000158079
0.00165671
-8.72271e-07
-0.000286442
-1.12727e-05
0.000146137
0.0182264
1.65266e-06
0.0720047
-8.16272e-06
1.24058e-06
0.000143606
0.0868408
-0.00021579
0.00173212
-5.21024e-05
7.57244e-05
-0.000438345
4.3717e-07
1.29263e-06
-3.85297
0.00176761
-0.671442
0.000845443
-1.02361e-05
2.06205e-06
-7.13165e-06
-0.000140589
-3.42111e-05
2.97122e-05
-0.0125723
-0.45327
5.14763e-07
0.0892655
0.177045
-0.000310337
-0.00642903
-1.1623e-06
-0.187927
0.00174832
1.82619e-06
-0.00373393
0.000487438
1.2592
0.285242
7.44806e-06
-8.65899e-06
1.83717e-06
0.0435533
-0.000798375
6.31661e-06
7.49497e-06
-0.0164314
-6.63308e-06
0.000381643
-1.03199e-05
0.000439885
1.48778
0.000159102
0.000625076
-0.00804773
0.00192815
2.02109
-4.70846e-05
-8.33754e-07
-0.000170333
0.201484
0.000102836
-0.0008045
4.39813e-06
-0.0214897
2.71125e-06
-1.55928e-05
-0.0997979
1.7797e-06
-0.000137972
-0.000399297
0.00316177
2.03772e-06
2.32966e-06
0.000125354
-0.000106016
3.72529e-06
0.000126532
-0.00100892
-0.00555756
2.72252e-05
-7.25687e-07
0.00210144
0.00357025
6.01383e-06
-0.0114849
0.223148
4.2088e-06
0.0593257
3.10541e-06
-0.00503596
2.95743e-06
5.08438e-05
-0.00753399
-7.40858e-05
0.760445
2.52996e-05
2.36355e-06
0.0569445
2.7938e-06
8.50298e-07
2.70013e-06
-9.4886e-07
-0.000132441
0.0016891
-0.0389298
1.22247e-06
2.03764
-7.50628e-05
-0.00524069
-0.106651
-4.24314e-05
1.0226e-06
-7.20864e-05
-7.63313e-07
-0.00704186
-9.98055e-09
-3.98385e-07
-3.45829e-06
5.0546e-06
3.32698e-06
-0.00221613
-0.000197028
0.000576696
5.78942e-05
8.97272e-05
-0.000189446
-0.000278279
-0.0591967
2.55494e-06
-0.00433152
0.00249977
2.64267e-06
0.719618
1.29143
1.76138e-06
-0.00888832
-2.88771e-06
0.140053
0.000126999
-1.01995e-07
0.000461033
-0.000160827
-0.00796614
1.73109e-06
9.60042e-05
-0.013521
0.00369724
0.0340425
3.33634e-06
-0.212253
-0.00460438
-0.0627194
3.49713e-06
5.05118e-05
9.75026e-06
-4.71015e-06
1.96661e-06
-8.64402e-07
1.47265e-06
-0.00579442
-0.000116337
6.40601e-07
-1.079e-06
-1.76342e-06
-1.87336e-05
0.00394545
-0.00428301
3.2828e-06
-0.000104637
-4.49626e-06
-2.65257e-06
5.80528e-07
-4.95512e-07
-0.00110478
-1.46394e-06
-2.47539e-07
3.88473e-06
-1.39999e-06
0.000148105
0.000136394
0.0222874
0.115939
0.000165919
1.18475e-07
-0.012052
-7.2559e-07
-1.42176e-06
0.000139922
0.0206334
-0.000205379
8.37978e-05
-3.87261e-06
2.23851e-06
-0.000212441
-1.19576e-06
-0.000112203
2.15281e-07
-7.59517e-06
2.5841e-06
4.69517e-05
0.261962
-7.35847e-07
-4.0787e-06
2.44404e-06
-0.00637246
-0.0448903
0.000240422
-3.44252e-05
0.00116428
0.000215405
-0.000479688
0.192512
-2.46435e-06
-0.015168
-4.16055e-06
0.00855816
1.97026e-05
2.36695e-06
-6.87973e-06
-0.1416
1.06831e-07
0.000247334
0.00138842
-0.00987667
0.000607984
3.96395e-06
3.53e-07
1.01324e-06
5.7267e-06
0.000200625
-0.00144727
0.3937
0.00125959
1.50438e-06
-9.88518e-07
-3.45917e-06
3.07181e-06
-1.76426e-06
2.37488e-06
0.000563024
0.000363204
0.217521
1.33382e-06
3.34738e-06
-0.000958432
1.97298e-06
-0.0122378
0.00115981
0.00206206
-0.00834843
0.760064
-0.00067254
7.03686e-08
-1.22563e-06
4.56438e-06
1.67432e-06
0.0200739
-0.000609555
-0.00565686
4.73265e-06
-4.18553e-07
-0.000113345
-2.10381e-06
0.227511
-0.0173751
-1.75425e-06
3.28725e-06
1.42295e-06
2.57182e-06
1.73532e-07
7.24056e-06
-0.00832534
-2.61954e-06
5.48851e-06
4.43842e-06
-3.34297e-08
1.96565e-06
-4.34718e-06
3.18029e-05
-2.61866e-08
0.000132883
-3.71209e-06
0.05792
-0.00434187
4.25482e-06
-0.013117
6.07963e-05
6.89667e-06
-0.00141349
-0.267482
2.63365e-06
1.25064e-06
1.49086e-06
-0.00261565
2.98274e-06
-0.000667601
0.0159306
-5.80503e-06
-3.38151e-05
1.31272e-06
0.0070474
0.04701
2.07762e-06
4.19195e-07
0.000237102
0.00181822
2.85674e-06
0.00100593
8.90082e-07
3.18683e-06
0.000174057
-0.0475221
-0.00769832
0.119947
-0.00895017
-7.54025e-07
0.00937406
0.00813407
0.00029848
6.01861e-06
0.00898644
2.34492e-05
-0.0118858
-0.0398016
-1.96543e-06
-1.53424e-06
1.7235e-06
3.72103e-05
-6.95281e-07
-0.0119569
0.122921
3.88595e-07
-6.94626e-06
-2.80224e-05
0.000305473
6.88933e-06
7.8723e-06
-0.000119101
-3.7108e-05
3.43993e-05
0.0899563
-0.00171502
-0.00253554
1.60368e-06
3.44142e-06
4.85484e-07
8.13435e-05
0.000198218
0.000305735
2.85457e-06
5.0982e-07
3.68211e-06
-0.155544
2.09291e-06
3.00988e-06
0.00176625
7.86029e-07
2.35175e-06
3.19061e-06
-0.657922
3.21126e-06
3.14957e-06
2.2719e-06
0.000217484
3.04242e-06
0.000311557
-0.00984973
3.07028e-06
-0.00632678
0.000676931
-0.00512158
0.00114867
1.94959e-06
0.00033319
4.26178e-06
2.31356e-06
2.1526e-06
-0.421288
0.0193222
0.00161415
0.000377059
0.0971902
-0.00210287
-4.99479e-05
-0.00287918
-0.000616616
0.000175005
6.26425e-06
0.024365
1.57801e-05
5.04145e-07
-7.50996e-07
0.000700995
-1.17858
0.0676081
1.9584e-06
-0.00500654
-0.00411947
0.000123615
-0.0005382
-0.000207885
-0.000110134
0.000192375
0.110653
-6.11619e-05
1.68952e-05
-0.000324281
1.38629
-0.00372615
6.69002e-06
-8.6535e-07
-3.19811e-06
0.752247
5.16085e-05
-2.30812e-05
0.05832
0.000314163
-0.00105831
-0.000214846
0.0417008
1.10725e-06
0.00214975
8.48664e-06
-5.19229e-07
-5.17719e-07
-1.13454e-05
-5.18825e-08
1.82206e-06
-8.64488e-06
-0.00429036
1.60789e-07
-0.00394955
0.000340661
3.82771e-06
9.91287e-07
-0.00121888
5.90297e-06
-5.08538e-06
0.000154308
-0.0600233
-6.8746e-06
-6.52414e-05
1.51823e-06
-0.00375394
1.0364e-06
0.00198376
1.32868e-06
0.105852
-0.000852493
-0.0197103
0.000218524
1.63168e-06
0.0188769
1.15035
-0.0549196
1.30487e-07
2.95464e-06
-7.00558e-06
0.0486293
-1.08388e-06
0.00125761
5.81658e-05
-0.000218202
2.12867e-06
1.8768e-06
-4.62146e-05
6.59548e-06
4.54735e-06
-0.00100341
0.000324847
1.55726e-05
-0.00952299
-0.0197597
4.18485e-06
-0.247725
5.64431e-06
-0.00662973
1.04744
-0.00913856
3.04276e-06
-7.29457e-05
5.47619e-07
0.333167
-3.33823e-07
6.46884e-07
-0.00472097
-5.39905e-06
2.30241e-06
1.99531e-06
6.14235e-06
-4.11877e-07
0.091983
-0.00285307
-0.000637474
2.35766e-06
3.2451e-06
-0.00848527
-3.78397e-06
0.0368753
-2.44702e-07
6.22425e-07
9.41761e-06
9.80259e-05
-0.0258039
5.44574e-05
3.76018e-06
-1.50181
-9.19382e-06
1.907e-06
-9.94836e-06
1.17195
0.102318
3.84409e-06
-1.20899e-05
0.088997
0.0911357
-3.05846
-2.17813e-05
0.000201699
-0.00720686
4.71916e-06
-0.00111817
-6.50072e-05
-0.425376
-0.000121218
3.5718e-06
1.81431e-05
-4.33953e-06
0.0805679
4.0156e-06
-7.89412e-06
-0.0715545
0.000284263
0.031723
-6.87462e-06
-2.1683e-05
7.24685e-07
-1.07511e-06
-3.2612e-07
6.87628e-05
9.51758e-07
-2.18052e-05
-5.3738e-06
-1.03074e-05
0.00141993
-0.000212558
-0.00035245
-5.30285e-07
-0.000121061
3.12344e-06
0.0134317
8.37124e-07
6.65204e-06
1.33567e-06
-5.57468e-06
-1.8566e-05
1.93063e-05
-6.21476e-06
7.0315e-07
-3.41289e-06
2.9933e-07
0.18451
-0.0278393
-6.35182e-06
0.127332
0.000585842
-2.79343e-06
4.81704e-06
1.11386e-05
0.156229
4.32662e-05
6.9841e-06
8.13878e-08
1.68011e-06
-2.55507
7.6476e-06
3.28578e-06
-0.00781468
-9.3012e-07
-3.36133e-06
-0.00144164
-0.00200288
0.0146432
-0.00837372
0.123855
-7.07063e-07
-0.267682
0.000275931
-4.2057e-07
1.72518e-06
-2.62366e-05
7.51266e-07
0.000707865
0.000877576
-6.63455e-05
4.08037e-06
-0.0515587
-0.00762922
-0.355937
-0.00222655
-0.0977348
0.000395619
-1.09656e-05
-0.00822268
-0.465225
-4.34747e-07
-0.271633
1.92288e-06
1.86114e-05
-0.010647
1.09356e-06
-0.087745
-0.000147905
-2.30287e-05
-6.07604e-05
0.00054914
3.62103e-06
0.000156955
-5.04176e-07
-4.16091e-06
0.149049
-7.23793e-06
-7.22564e-05
5.41651e-06
0.00104969
1.34475e-06
3.59752e-06
-3.31376e-05
-0.233908
-7.56684e-06
7.64797e-06
-4.97915e-06
0.000106606
3.17707e-07
1.88901e-05
0.0475258
-2.08402e-06
0.000187483
-1.083e-06
6.29908e-05
-1.84454e-05
1.02064e-06
7.27825e-06
-0.00589375
-3.75562e-06
2.3832e-05
5.96756e-06
-0.00115968
-4.84067e-05
1.88322e-06
2.81498e-06
0.000356462
0.023706
-6.79048e-05
2.44229e-06
-2.0283e-06
8.69077e-08
-1.52194e-06
2.64188e-06
-0.000410373
0.00086078
0.000839765
-4.60853e-06
0.421536
5.70883e-06
0.000280007
0.093845
-0.000708251
3.79612e-06
0.00143008
0.000359278
2.4334e-06
-0.193742
-1.70232e-05
0.00202765
2.02147e-06
-0.00846371
-7.57461e-06
3.39333e-06
3.0294e-06
0.0299867
-0.0210484
-5.86794e-06
-0.975226
3.1209e-06
8.52276e-06
2.35199e-06
-0.0110625
1.55214e-06
4.74552e-07
0.000433837
-2.80129e-05
1.03165e-06
-3.79465e-06
5.59023e-07
3.57937e-05
-7.0704e-06
3.62041e-06
-0.000108606
-6.08548e-06
0.0911463
-0.000679619
-4.16176e-06
0.260099
0.000294258
-9.51561e-07
6.51779e-06
3.58621e-06
1.22786e-06
0.000398126
0.000137197
0.0081507
0.0110547
-7.26883e-06
-0.0039079
-0.00776395
-1.80386e-07
-4.41662e-05
-0.00254763
0.000165793
0.00173081
2.99146e-06
0.00017206
3.81386e-05
0.000226823
-6.11179e-05
0.000182187
1.20522e-06
0.000105053
6.24365e-06
0.000149488
-2.11794e-05
-0.0110363
1.56054e-06
0.00010214
0.000420652
-1.19839e-05
-0.308891
-0.0185181
1.99308e-05
-1.12222e-05
0.000528755
-1.93951e-06
0.00214442
-3.56041e-06
0.00114031
-0.0325281
0.211646
0.000668659
0.000128523
0.0003216
1.0175e-05
0.00079959
4.31518e-07
0.0252726
0.000496289
-4.23163e-07
-6.91242e-07
0.15342
0.000677459
-6.01575e-07
8.80745e-07
0.809521
2.94138e-06
3.67362e-07
-0.189755
-0.00118964
-7.59524e-07
-0.222509
-1.08192e-06
0.00283887
-0.00117757
4.15476e-07
3.19158e-06
-0.000201711
-0.212378
2.8692e-06
0.000331844
2.87325e-06
8.44029e-07
1.48764e-06
0.35418
3.61029e-06
5.16615e-07
1.20482e-05
-0.0320569
0.000373237
3.35759e-06
5.63227e-08
-0.00620678
1.33354e-06
1.57403e-06
-0.0277832
0.71499
7.11201e-06
0.00825672
-0.000308353
-0.000616817
-0.000102413
-0.000324955
-0.189942
2.16514e-05
-5.34513e-05
5.23181e-06
0.000142347
-3.12029e-08
-0.0116895
-0.0398847
7.02025e-07
-3.71234e-05
-1.52435e-06
-6.51639e-06
-0.0116594
-1.64908e-07
-7.53807e-05
2.34795e-05
0.000342424
2.9619e-06
-1.48096e-06
0.000139197
-0.113655
3.09656e-06
-5.98492e-06
7.33987e-08
1.05531e-06
0.000129113
-0.000809033
1.16437e-05
3.28655e-06
-1.19419e-05
5.98031e-06
5.26905e-06
0.912015
-1.11857e-05
-8.47502e-06
3.62606e-06
-0.00129415
2.0442e-07
1.47385e-06
0.00127909
1.2064e-05
0.00165356
7.46048e-06
4.03734e-06
-0.00911201
-0.13416
-0.463935
0.00268891
1.06965e-05
-4.74883e-05
0.0460728
6.8606e-06
0.00012002
-2.5419e-06
-0.185119
-5.50474e-07
0.000120375
2.7194e-06
0.200248
0.000802118
0.000645514
0.0177548
-5.53687e-05
0.00313359
3.33767e-06
-3.27259e-05
0.0145893
0.000633819
9.83338e-07
-9.48298e-07
9.40775e-05
0.000367699
2.8425e-06
-1.18525e-05
6.50317e-06
-8.29689e-06
-0.0099057
-0.00159821
-1.02246e-07
0.000260264
3.03003
0.0672935
0.00015168
-0.000134661
6.2945e-05
0.000104785
1.23377e-06
-8.80651e-05
-0.000258278
3.09429e-07
-1.43276e-06
6.0082e-07
0.00790368
-0.0154055
0.000277756
-4.106e-06
-2.77249e-05
0.000240687
2.63574e-06
-0.000192275
0.00219854
-0.0451527
4.00274e-05
-0.019705
6.53109e-07
-5.97596e-07
4.1143e-06
-6.39536e-06
2.56312e-06
6.14566e-07
0.0138202
2.35437e-06
-0.00936467
-3.75986e-05
9.65322e-07
6.12873e-07
-2.138e-05
-5.93788e-05
-0.000362056
0.00280148
-1.01321e-06
0.00549732
0.000838187
-7.13763e-08
3.88382e-06
-0.100042
-0.00595938
4.79754e-06
2.64598e-06
-3.14658e-06
-9.45537e-05
-0.00862795
-0.036039
0.000456964
3.58524e-05
-0.0101753
0.0807946
-1.10724e-05
2.49383e-06
-0.00287556
0.000120843
0.0531908
-0.000121542
2.56442e-06
-0.000629215
0.000180169
-0.187719
-3.58937e-05
-0.018514
1.6591e-07
6.9915e-06
-2.97051e-06
3.84502e-06
0.000110971
-2.86785e-06
4.00489e-06
2.35358e-06
3.55317e-05
0.000127663
1.78227e-05
-1.76952e-05
2.60683e-05
-2.36583e-05
2.51908e-06
1.2359e-05
-0.000814164
0.000519865
3.40284e-07
1.78334e-06
-0.00643698
9.25869e-05
4.19925e-05
-5.78835e-05
0.205375
1.40858e-06
0.000243674
8.96137e-05
-1.89295e-06
1.26092e-05
0.00295315
-0.234387
-6.51443e-06
-5.23142e-05
-0.000121621
0.00183975
2.60754e-07
0.000203565
-0.00113806
2.71714e-06
-0.00246254
-9.26473e-07
3.00801e-06
-2.08059e-05
3.04747e-05
0.000374787
-0.0110119
0.133665
-0.00160057
-2.73995e-06
3.85887e-06
-4.70565e-06
-0.00313699
8.8396e-06
-0.0659358
1.75761e-06
3.53706e-06
3.30388e-06
-0.00229258
4.24468e-06
4.33416e-06
7.64351e-06
-0.00685031
1.46392e-06
0.10672
3.2677e-07
-0.000558815
-2.07923e-05
0.000237328
2.04384e-06
0.000103248
-0.0188384
0.00778448
-2.27389e-06
0.00117089
2.07893e-06
-1.90681e-07
0.725076
-0.0126363
-1.22135e-06
5.98676e-07
0.000176239
2.75414e-06
1.49549e-05
4.14787e-06
4.06312e-06
0.000266979
-0.00078108
-8.96085e-08
0.00033349
0.00704827
-3.37048e-05
2.00847e-06
1.1022e-06
0.000218042
0.000673847
3.77282e-06
0.0181066
-1.3798e-06
0.0813459
-0.00023754
3.95052e-06
-3.23446e-07
4.29211e-08
0.00327379
-1.86796e-05
-7.0764e-05
-5.18407e-06
1.90948e-05
0.0101638
0.000112996
-0.000304241
3.7434e-06
5.91076e-07
3.73056e-05
-5.77971e-09
0.000111804
3.5031e-06
0.000153439
5.65874e-06
-2.39417e-05
0.171779
0.00017034
0.00625323
2.11972e-06
-0.00173523
-7.05989e-05
-0.018383
0.00207005
-0.23871
-2.81217e-05
-4.62785e-06
-0.000228359
-1.32681e-06
0.0133397
1.30209e-05
-0.0076015
-5.76422e-05
-0.00969417
-0.311782
-8.48413e-05
-0.000469222
2.76637e-06
6.58563e-07
4.24249e-06
-4.55175e-06
4.96929e-06
2.96097e-05
2.49145e-06
7.71811e-07
0.007923
-0.0173201
8.90387e-07
0.0222169
-8.43887e-08
6.87974e-08
-5.82444e-06
-0.00557712
-2.12892e-06
0.148669
1.91765e-06
1.36715e-05
-0.00910649
-7.78053e-08
-8.56214e-05
-3.09265e-06
-0.000145667
-0.22687
3.95412e-05
0.386153
0.000114362
0.00191362
5.49495e-05
2.03292e-06
2.06732e-05
0.000213104
-1.10965e-05
5.61443e-07
4.39854e-05
2.93614e-06
0.173964
1.30828e-06
1.946
-0.0113055
0.00113818
-0.000141877
0.00610997
-0.000992429
-5.61902e-06
1.612
2.56358e-07
-0.00590353
-1.47324e-05
1.84347e-05
-0.00574988
0.00567374
0.000188532
0.221974
3.49765e-06
0.00358304
-4.95622e-07
-0.421993
1.34481e-06
-7.18961e-05
-0.00509565
8.10008e-05
1.86545e-06
-1.07764e-05
8.03334e-06
-0.000503782
-0.113487
0.00136421
-0.0922462
1.65476e-06
0.461259
2.99066e-06
4.34466e-05
1.1233e-05
-3.56524e-06
0.0430381
2.29418e-05
2.05814e-07
-0.000234338
3.17542e-06
0.0428714
0.00401697
5.73149e-07
0.00175622
0.0011969
4.1795e-06
3.85421e-06
-0.000156086
-2.93e-07
-0.00155476
0.000606524
-4.49648e-05
6.57313e-05
1.92254e-06
1.07901e-07
-0.00153037
-3.24808e-05
3.99781e-06
2.031e-05
-7.23588e-06
-3.02928e-06
-0.288356
-0.000226042
3.46613
0.000400969
-0.00132189
-0.000104296
3.41904e-06
3.53504e-05
3.11537e-05
1.77185e-06
-0.000230801
-1.18384e-05
0.000121811
0.00148226
0.000164438
0.0354716
-0.680296
1.24953e-05
-0.00024179
-0.00536447
1.16741
-2.98052e-07
2.40132e-05
-3.61562e-05
0.00082337
-0.10771
4.98024e-05
0.000119582
-2.02783e-05
1.36678e-06
1.10156e-05
0.0406359
-7.80792e-05
-3.62455e-05
-0.00271932
8.43795e-07
-0.000108666
-0.000240306
3.59975e-06
-1.84724e-07
7.83656e-06
-0.00173493
-0.00127623
-2.3915e-05
9.18331e-05
0.397583
1.45182e-05
3.50036e-06
-9.45901e-05
4.67222e-06
0.0169391
-0.0581878
0.15737
0.00141468
0.326073
-9.26775e-05
8.00895e-07
0.026761
0.000159957
-0.00031364
1.08893e-05
2.53826e-06
0.0523308
-0.0337675
2.69614e-06
2.34057e-06
0.000250351
-0.0021738
8.24824e-05
-7.52986e-07
0.0283097
5.60171e-05
0.00034546
1.14882e-06
-7.38473e-05
-8.06421e-07
7.73092e-05
-0.000278078
1.24547e-06
-1.16471
9.93359e-06
0.0013586
-0.00173394
-0.00806509
0.000111986
1.18939e-06
-0.00144043
0.000148607
-6.63248e-05
2.06442e-05
-0.000118564
-7.54791e-08
-8.3093e-05
0.0404208
4.47631e-05
0.0266696
2.96594e-06
-0.000479935
-7.69304e-07
8.06104e-06
-0.00340315
0.000177355
-0.00346467
6.79786e-06
1.27521e-05
0.116152
-0.00702793
2.64795e-07
-0.0516696
0.000296031
2.06541e-06
2.09223e-06
0.105207
-0.0428926
1.05463e-05
1.90002e-06
0.000102692
-5.05455e-06
0.00950732
0.560109
-9.10002e-07
6.58234e-07
4.11047e-07
-0.00227985
-0.000966191
0.0124613
3.82957e-07
0.190989
1.11558e-05
0.00291715
0.206827
1.54103e-06
7.02009e-07
4.3833e-05
0.00225626
-1.72875e-06
2.81406e-06
-4.60877e-06
0.000214771
0.00013193
-1.06609
2.07965e-05
-1.46823e-05
3.10378e-07
0.000205752
-0.0078049
-0.00114087
2.05133e-06
1.04079e-05
-0.00809009
-0.000562533
2.69361e-05
-0.0957156
-0.000618493
-8.44267e-05
-0.0622348
4.41696e-05
-0.000151058
5.51361e-06
0.0903139
-3.02824e-06
-2.13037e-06
-2.5951
0.000289258
2.72353e-06
3.37075e-06
-2.73013e-07
-0.00130452
-0.00205307
-1.22515e-07
1.39384e-06
-4.02381e-05
-0.00366057
7.61448e-05
1.14133e-06
6.75396e-08
9.21143e-07
-0.00157842
-0.000309198
1.60778e-05
3.22426e-06
0.0518866
3.57332e-06
0.746807
0.000893009
0.00105095
2.74033e-05
2.65511e-05
3.34487e-06
-0.0260402
-0.000138672
-0.00318317
-1.58891
0.000805964
4.80298e-08
-0.00350643
-4.76067e-07
-0.0041241
-0.00417363
-0.000696199
1.8388e-06
0.00011105
-0.00227158
-1.10559e-08
6.32135e-06
-0.00251534
8.47241e-07
0.000759218
8.92383e-06
3.068e-05
5.31483e-06
0.00463439
-0.0106268
-2.0034e-06
2.73066e-06
-0.0478338
2.09383e-07
2.05043e-05
2.14202e-06
2.55466e-06
-0.266648
-0.00135205
-7.61421e-05
1.59272e-06
9.78041e-06
-2.59497e-05
-0.00192668
-0.00811626
0.000349815
-0.00262834
0.000958149
-0.000107432
-1.5974
1.94789e-07
5.48298e-07
1.27925e-05
4.20031e-06
-4.20819e-06
1.50626e-06
6.3724e-05
-0.00559189
1.60503e-06
3.41528e-06
-1.60629e-06
3.5005e-07
-0.0680679
2.56321e-06
-0.00913345
-0.00669891
-0.000346713
0.000480077
-0.181608
-2.33972e-05
5.65292e-06
-0.000128026
1.24743e-06
-7.13267e-05
4.64613e-05
-9.57454e-06
0.00552558
-6.63226e-07
-2.3579e-07
0.00129031
-0.0188455
3.28597e-06
8.64248e-07
-0.00882027
-8.63256e-05
0.00105181
2.68303e-06
6.08742e-07
1.09536e-06
0.0189994
-1.38159e-05
-0.00187528
0.000933653
0.000224328
1.04131e-06
2.07806e-05
0.000340332
-0.1553
-2.94621e-06
-0.00108153
3.14394e-06
0.0339432
-0.000707415
6.25951e-05
-0.0107673
4.14103e-06
-8.34467e-05
0.000196351
0.0388199
-0.000853898
-0.000110207
0.000151262
-0.179758
-6.38024e-06
-0.00109862
3.39443e-06
0.00217622
-0.00546932
-0.00645277
2.01711e-06
-0.000395375
-0.0012457
0.141621
-0.000121146
0.000105436
0.0296028
0.034965
3.84297e-06
-0.00189768
5.84489e-06
-0.000169662
-4.44805e-06
2.19067e-06
1.98056e-06
-0.0446411
-4.25784e-06
3.20208e-06
-9.68386e-05
-0.188141
0.00541217
-0.00628638
0.0147479
3.37864e-06
0.025395
-0.00016988
-3.21391e-06
2.00842e-06
0.0712828
3.82405e-05
3.29024e-06
1.64223e-06
0.00201716
1.61652e-06
6.97444e-07
0.9517
-1.1477e-07
-5.15021e-07
2.6255e-06
3.33841e-06
3.47218e-05
-1.26336e-05
0.00715106
0.00214517
-4.83975e-05
1.25297e-05
-0.000599255
0.367641
-3.52429e-07
2.82739e-06
-0.0734382
-0.00772484
3.4273e-06
0.000128625
1.7266e-06
8.09751e-07
0.0062574
-0.00900576
6.70819e-07
1.95709e-05
-0.0316181
-0.0203628
-0.0383132
-0.00203753
-3.14509e-05
0.133853
5.70089e-06
0.000160164
0.000136832
1.67864e-06
0.0888922
-0.0634062
0.000683429
-0.00183761
-0.458186
3.24033e-06
2.51901e-06
-6.08466e-05
0.00143744
-0.0169177
-1.62496e-06
0.00143458
-0.243317
2.81769
3.59293e-06
3.21508e-05
0.0177689
1.42145e-05
-3.49093e-05
0.00402827
1.02121e-07
-1.07534e-07
-1.19851e-05
0.164684
-1.80287e-06
-1.27791e-05
-2.66439e-05
-0.0150733
-0.000504211
-0.0395793
5.27327e-06
3.05474e-06
-0.000162411
1.29116e-05
0.000166827
6.54726e-05
-0.00514325
-0.0095827
1.97708e-06
-2.67963e-06
0.151837
0.595779
0.159903
2.06967e-06
3.43799e-06
8.1463e-07
3.90924e-06
-3.04568e-08
2.56759e-06
7.35493e-05
3.43034e-06
-1.32648e-06
2.70682e-06
0.00228303
0.000114857
-0.000105803
-0.0478094
-0.000232881
-0.000339102
-0.000271371
-0.00212376
-0.00839728
0.000447152
0.00014477
-0.000264713
3.56036e-06
0.557049
1.89503e-05
-4.81169e-07
-6.64123e-07
-0.0139167
-1.20356e-06
-0.0475466
-1.79325e-05
2.87509e-07
0.00146463
5.255e-06
2.22531e-06
5.11708e-06
0.000383801
-0.018666
2.17457e-05
-1.38576e-07
4.30854e-05
-0.442996
-0.000434181
0.0399878
1.20056e-05
-2.9504e-05
1.73606e-05
2.03797e-06
-3.87303e-06
1.99199e-06
3.46989e-06
-0.000245332
0.0350202
6.12898e-05
-0.000243291
-0.00661275
-0.0136721
-0.00952277
-3.43724e-06
-0.000692396
2.12824e-05
-0.247798
1.37849e-06
4.97654e-05
-5.58826e-06
-0.0223144
-2.11891e-06
-2.88776e-06
1.90785e-06
-1.9094e-06
-0.00891842
2.85494e-06
0.00333031
3.4837e-05
-1.74508e-06
0.000720742
2.61592e-06
-0.090922
-3.18044e-07
-0.000125568
2.66343e-06
0.000393309
1.00921e-05
-0.00018675
0.0476536
1.64588e-06
-0.00108251
0.355482
2.11959e-06
-6.00881e-06
-0.000165691
-9.47193e-07
-0.0720695
-0.00194477
-1.07955e-05
-0.000832613
1.17074e-06
3.90682e-05
-2.85388e-06
-1.17361e-06
-3.58344e-06
1.69908e-05
1.92789e-06
1.89063e-06
3.84329e-06
-4.79951e-05
-0.000196603
9.36666e-06
-0.00381267
2.77315e-06
-4.06628e-07
0.000280665
0.00160476
-1.70173e-05
1.34693e-07
8.29238e-08
2.9269e-06
0.00137985
-0.625614
1.04195e-05
5.56867e-06
8.92298e-06
2.76943e-06
0.000524929
-6.28893e-07
4.14613e-06
2.9764
-0.00715835
-0.000912127
2.7907e-06
-4.37446e-05
1.64144e-05
3.23903e-07
-0.00224325
-5.3411e-08
0.00107577
6.04657e-06
-0.00331393
0.000352187
2.81663
1.78485e-05
0.0016074
-1.96468
0.03205
-0.0199082
0.000127193
-0.00754003
0.344053
7.14399e-06
-6.57023e-05
2.58179
-0.000166357
2.13165e-06
-5.29831e-08
-9.66581e-06
-0.0348023
-4.71134e-06
-5.41424e-05
-0.489198
-7.98155e-07
2.27317e-06
0.236289
0.606131
-0.00855483
-0.0202836
0.0474326
1.4963e-05
0.00398642
0.000120659
0.000146787
-0.00249158
4.75206e-06
0.0230818
0.00114722
9.04e-05
-1.47054e-05
-5.0603e-05
1.7011e-05
-2.38609e-06
-0.00664084
-1.72207e-06
-1.42919e-07
1.92617e-06
-0.0844079
-1.28152
0.00292781
-9.52743e-06
-2.53636e-05
5.28314e-06
0.222269
-3.13181e-06
-2.46419e-05
7.56519e-05
-0.0193498
1.45414e-06
-0.000282551
0.508672
-0.191248
4.07549e-05
0.0321703
-1.68101e-05
-0.0501617
-1.4965e-06
0.023257
0.000359834
-0.00350979
0.000193202
-0.0231153
-0.00436541
-7.16301e-05
8.9853e-05
-0.00573262
-0.000135964
3.31044e-06
1.79419e-06
-0.000308083
-4.89972e-05
-0.143239
-7.09703e-07
-4.10778e-06
3.10775e-06
3.28586e-06
-0.200992
2.46619e-06
1.08292e-06
-2.01764e-05
0.0552144
0.000416133
-0.000558302
-4.9792e-05
3.34385e-05
-0.000911508
2.45861e-05
2.30228e-06
0.00163554
-0.000212165
1.01963e-06
0.00144182
5.60619e-05
-0.0695857
7.99756e-07
-0.0357927
0.000424806
1.4808e-06
7.10536e-07
1.43783e-06
1.12625e-06
2.74386e-06
-0.475335
0.00142353
-7.87074e-06
2.81487e-06
4.09132e-06
4.95109e-06
0.000275649
-0.00971904
7.57005e-05
-0.00123639
-8.60814e-06
-0.0523865
-4.22708e-06
0.00148836
1.83532e-06
1.02806e-06
-0.000496786
6.75841e-08
-4.51245e-06
-3.44456e-06
2.73513e-05
3.97053
3.48697e-06
2.18485e-06
0.00607707
0.0143369
0.00376154
0.000342145
7.19827e-06
0.000101549
-0.0349922
7.27083e-05
2.38202e-06
2.00029e-05
-0.359159
4.07308e-06
-1.10847e-05
-0.0137479
5.62956e-06
0.000206384
1.04768e-06
2.31659e-06