/*--------------------------------*- C++ -*----------------------------------*\
| =========                 |                                                 |
| \\      /  F ield         | OpenFOAM: The Open Source CFD Toolbox           |
|  \\    /   O peration     | Version:  v2012                                 |
|   \\  /    A nd           | Website:  www.openfoam.com                      |
|    \\/     M anipulation  |                                                 |
\*---------------------------------------------------------------------------*/
FoamFile
{
    version     2.0;
    format      ascii;
    class       volScalarField;
    location    "900";
    object      p;
}
// * * * * * * * * * * * * * * * * * * * * * * * * * * * * * * * * * * * * * //

dimensions      [0 2 -2 0 0 0 0];


internalField   nonuniform List<scalar> 
18355
(
0.0377769
0.00373292
-0.0507475
0.00222667
0.00527245
-0.00764875
0.00434542
0.00540581
0.00384443
0.00249278
0.00714585
-0.0737131
-0.074779
0.00202874
0.00373109
0.00326389
0.00228852
0.00703417
-0.00559098
0.00535447
0.017304
-0.00323384
0.00376529
-0.00570587
0.00376742
0.00582198
0.00435946
0.00241975
0.00375792
0.00759998
-0.0767383
0.0157301
0.00333308
0.00298204
0.000209593
0.00627339
-0.0179814
0.00634423
0.00789668
0.00304022
-0.00113307
0.00751534
0.0030259
0.00371563
0.0037308
-0.099555
0.00341607
0.00339351
-0.0751022
0.00470244
0.00267762
0.00050896
0.00474301
0.0169397
-0.00100892
0.00532102
0.00139872
-0.0811815
0.00589933
-0.122469
0.0030042
-0.052481
0.0195453
0.0037182
0.0203653
0.00259951
-0.002784
-0.0173439
0.0028414
0.00453749
0.00438031
-0.00104591
0.0132472
0.00777384
-0.00254974
0.00289937
-0.0862159
0.00291691
0.00434891
-0.00245632
-0.00225458
-0.00233843
0.0028677
0.000324361
0.0137367
0.00339488
0.00297981
0.00404111
0.00411548
0.00534026
-0.0373721
0.0194087
-0.0017189
0.00466932
0.00295923
0.00374581
0.00375442
0.00372196
-0.00883345
-0.00215779
0.0125868
0.00433259
0.0046294
0.000185879
-0.00131557
0.00327961
0.0199312
-0.00304153
-0.00560788
0.00316716
0.00142525
0.0025076
0.00984706
0.000290924
-0.105074
0.00704753
0.00430726
-0.00344863
-0.000788495
-0.00356944
0.00599013
-0.055875
-0.0339836
0.00742112
-0.00573472
-0.102397
0.00432656
0.00222276
0.0362797
-0.00303314
0.00380221
-0.00284224
0.00081155
-0.0283219
0.0286982
0.00420274
-0.00897944
0.00667962
0.00079051
0.018385
-0.0118335
0.00239922
0.00370416
-0.00844943
0.0296093
-0.00095224
-0.130761
0.00022801
0.0098074
-0.00384489
0.00242224
-0.00372171
0.00358754
0.00392323
0.00305158
0.00372172
0.00226096
0.00329912
0.00371352
0.00371919
0.00694943
0.000882908
0.00318658
0.00350312
0.00773627
0.00285646
-0.128687
0.0372046
-0.0531805
-0.0111558
0.00215875
-0.0276208
0.00324091
-0.0591569
0.0010389
-0.000922598
0.00244982
0.000151658
-0.0159589
0.0048474
0.00352755
0.00366796
-0.00314466
0.00248914
0.00304439
0.00458038
0.00374106
0.00656151
-0.00165548
0.00433672
-0.100211
-0.0108793
0.00377726
0.00280838
-0.00132288
-0.101782
0.00272242
0.0336973
0.00374533
0.00376843
0.00455624
0.00678354
0.00798246
0.00363854
0.0392843
-0.0036894
-0.0596324
0.00255725
0.00327529
0.00361439
6.82979e-06
0.00279565
0.00363073
0.00359241
0.000210035
-0.0518527
0.00521832
-0.0195474
-0.00333538
0.00365009
-0.00599998
0.0026041
0.00163965
0.00267845
0.00705751
0.00461085
0.00266557
0.0075764
0.0376618
0.0116983
0.00429943
-0.00179059
0.00176654
0.0026385
0.0031473
0.00719328
-0.0117239
-0.100962
-0.0261208
0.00360566
0.00377049
-0.0156832
0.00357285
0.0105986
-0.00337586
-0.00115567
0.00317881
0.00380674
0.00228113
0.00438301
0.00374844
0.00280961
-0.0602343
0.00298047
0.000176404
0.00203791
-0.0253079
-0.000401278
0.0046741
0.00383671
-0.000941537
0.00477181
-0.0130944
-0.0329004
0.00825315
0.00588297
0.00305093
-0.00687912
0.00386141
-0.00117229
0.00439536
0.00315151
0.00694132
-0.0202527
0.0026143
-0.000784603
0.00966659
0.00416555
0.0203266
-0.0314076
0.00935845
-6.84793e-05
0.00794697
0.00313384
0.00198701
-0.00381711
0.00700614
-0.00108307
0.00640099
-0.00793627
0.00331256
-0.0273685
-0.00203547
0.00459174
0.00324005
0.00372918
0.00278068
0.0190042
-0.000537407
0.00274291
-0.0198934
-0.0687475
-0.00044452
-0.0137267
0.0069678
0.00992435
0.00471599
-0.0236821
-0.0320061
-0.0260105
0.00325607
-0.0643246
0.00375858
0.00718824
0.0190742
0.00851422
0.00369927
0.00345305
0.00291239
-0.0461776
-0.0672128
-0.0505
0.00362986
0.00962685
-0.0127829
0.00215397
0.000339046
-0.0037353
-0.0120214
-0.00191985
0.0115698
0.000117848
-0.00651242
0.00330424
-0.00358616
-0.000954124
0.00282286
0.00730709
-0.0740685
0.0311669
0.0103369
0.00365214
0.000402102
0.00414777
-0.00177783
0.00607347
0.00198026
0.0041708
0.00126177
0.000294546
-0.000455303
0.00424667
-0.0695874
0.00608052
0.00304236
0.00428169
0.00759881
2.36191e-05
0.00791479
0.00262086
0.00128766
-0.00200543
-0.117
0.00171209
0.00257948
0.00360638
0.0069016
0.00286015
0.00320207
0.00059382
0.000770406
0.0102246
-0.00146274
-0.0119586
-0.0745714
0.00390416
0.00258669
-0.0244588
0.00329028
0.00679474
0.00417262
-0.00202674
0.00144509
0.00693364
0.00352833
0.00604133
-0.00134478
0.0117428
0.00360855
-0.00465439
0.00259648
0.00299058
0.0068084
0.00430489
-0.0405701
-0.136817
0.0016728
0.00446821
-0.0569702
0.00376415
-0.00095767
-4.08761e-05
-0.0280052
-0.00170869
0.0102544
0.00429553
0.00850844
0.00220297
0.00695453
0.032296
-0.00432154
0.00013593
-0.037216
-0.00253905
0.00269967
0.0139018
-0.0010007
0.00634382
0.000328636
0.0211238
-0.00098973
-0.0294679
-0.0158015
-0.0153508
0.00278972
0.00375629
-0.0154251
-0.00123764
0.00424459
0.00366246
0.00533078
0.0027128
-0.0288094
-0.0389865
0.00375777
0.00307574
0.00939217
-0.0321843
-0.00772762
-0.000129578
0.00479151
-0.0284963
0.00358032
0.00312507
0.00427983
0.00746352
-0.1385
0.00326881
0.00347558
-0.000558796
-0.0755639
0.00382822
0.00274087
0.00637831
0.000977894
-0.00465275
-0.104968
-0.0520003
-0.00334331
0.0035121
-0.0080545
-0.0791945
-0.0478475
0.00322713
0.0242642
0.000826391
0.00324695
0.00196412
-0.00181122
0.0117822
0.0133065
-0.00447288
0.00802164
-0.00361714
-0.0663609
-0.000427007
-0.0320903
-0.000902209
0.00319263
-0.00776267
0.00320517
-0.0484369
-0.129726
0.0206927
0.00727816
0.00292946
-0.000560107
0.00361571
0.00692022
0.00372962
0.00239784
-0.00251943
0.00127227
0.00377339
0.00375949
-0.0013568
0.0306854
0.017603
-0.00315673
0.00347619
0.00904344
-0.00313743
-0.00182957
-0.0483149
0.00698449
0.0019548
0.0085626
-0.00679523
-0.00897999
-0.120112
0.00393084
0.00595823
-0.023207
0.00301507
0.0335272
-0.0311272
-0.0272558
0.00299254
-0.123674
0.00260333
-0.0287982
0.0156606
0.00369239
4.97886e-05
-0.0075847
-0.00424056
0.00485934
-0.0505692
0.00334549
-0.00825983
0.00687543
-0.00400807
-0.000271085
-0.00129784
0.00717817
0.0200819
-0.0426037
-0.131082
-0.00883537
0.00768981
0.0150362
0.0104811
0.00335547
0.00171271
0.00761688
0.00808704
-0.00406809
-0.00127937
-0.00601539
0.00381492
-0.0110715
0.00756051
-0.0391097
-0.0762839
0.00161866
0.000842573
0.0366404
-0.00244308
-0.126397
0.00158165
0.0227044
0.00457611
-0.00113699
0.010153
-0.00855163
-0.00213529
0.00359149
0.00277611
-0.0269447
-0.027836
-0.0378855
-0.00179281
-0.0547027
0.0038456
-0.0431826
-3.79991e-06
0.0042873
-0.0675859
0.00413872
0.00685108
0.00118065
0.00302917
0.00451125
-0.00264104
-0.0593415
-0.0143118
0.00269132
0.0020267
0.00762508
-0.00118274
-0.0142973
-0.160338
0.00372346
0.00142043
0.000787109
0.00209518
-0.00903354
-0.000822382
0.00387585
0.0259657
0.00439161
-0.0368794
-0.0232697
0.000316068
0.00311727
0.0304958
0.00535366
0.00310598
0.0141509
0.00254066
-0.00138245
0.00439594
0.00770338
0.0011572
0.000356082
0.0349902
-0.00950404
0.0041854
-0.0246901
-0.0287365
0.00645513
-0.0697098
0.00313607
0.0367447
0.0023894
0.000240313
-0.0272819
-0.0289585
-0.115628
-0.00167534
0.00424815
0.00436636
0.00314851
0.00332354
-0.0443943
0.00316394
-0.0127785
0.0335889
-0.0027373
-0.0293829
0.00443921
-0.0299242
-0.0684312
0.00404406
0.00358093
0.00578561
0.00760142
-0.0718652
0.00139927
0.00374378
0.00572309
0.000451715
0.00374621
-0.0470047
0.00290487
0.0361779
-0.000588697
0.0022852
0.000682649
0.00313023
0.00601026
0.00697401
0.0247495
-0.00458747
-0.00103811
-0.00776511
0.00361101
0.00255777
0.00333976
0.0103015
0.0172965
-0.00536026
0.00374036
0.00622335
-0.0210939
0.00308599
0.00456352
-0.107746
-0.00438793
0.000411793
0.00258605
-0.0491585
-0.00216913
0.000262785
-0.0698529
0.000906832
-0.0380988
-0.00559215
-0.00109207
-0.00791993
-0.00202949
0.00313237
0.000124388
0.0037684
0.00663608
0.0030411
0.0310275
0.00371715
-0.132538
0.00594383
0.00471448
-0.0251782
0.00288417
-0.00158282
0.00251817
0.00250496
-0.0550682
0.000856197
0.00307178
0.00296983
0.00305034
-0.0022852
-0.070406
0.00739867
-0.0264478
0.00539191
0.00722907
0.00661627
0.00445923
0.00463657
0.00378277
-0.0497591
0.00877048
0.00269788
-0.0382876
-0.0617305
0.00221911
0.00254231
0.00175376
0.00133261
-0.0358633
0.000169511
-0.0283158
0.00512022
0.00360392
0.00224341
-0.0256343
0.00119043
0.0292219
0.00373131
-0.00224411
0.00503919
-0.0570057
0.0372614
-0.00185805
-0.0132087
0.00421842
-0.000237792
0.00352601
0.000320817
0.00371421
0.0034666
0.00631207
0.0037736
0.00295439
0.00126234
0.000277624
0.0272263
-0.0555894
0.0032919
0.00409511
0.00235109
0.00274711
0.00434545
0.00362833
0.00564121
0.0029342
0.00369245
0.00368352
-0.00291757
0.00734701
0.00315897
-0.100272
0.0162002
-0.0134572
0.00371818
-0.0779365
0.00304957
0.00295249
0.003095
0.00498013
0.00703095
0.00317499
0.00301255
0.0037602
0.00781423
0.00281713
0.0085692
0.000924534
-0.00218994
0.00335574
-0.0129862
-0.00246588
0.00378692
-0.0040934
0.00365287
-0.0103821
0.0031276
-0.0270209
0.00143276
0.00390305
0.00783146
0.00586142
-0.121145
0.00356482
0.00384913
-0.00407399
-0.000286821
0.00627581
0.00327278
0.00235985
0.00441482
0.00236314
-0.0276744
0.0023948
-0.0716769
0.01388
0.00340336
0.00377503
0.000494877
0.00309216
-0.0327223
-0.0260539
-0.00755903
-0.0148829
-0.00649645
0.00279601
0.00299369
0.00317875
0.00428302
-0.00580479
-0.0251257
0.00646945
0.001129
-0.00626454
-0.00401128
0.0106356
-0.00139774
-0.0775058
-0.0167198
0.00788861
-0.0521893
-0.121792
0.00865096
0.00356612
0.00281722
-0.00773474
-0.000430587
0.0036671
-0.0416686
-0.0524549
0.00338036
-0.00298347
0.00602481
0.00430345
-0.119162
0.00380202
0.00293268
0.00244357
0.00304091
0.00343295
0.00416312
0.00428483
-0.090449
0.00223916
0.00608989
0.00339332
0.00388362
0.00360192
-0.000116558
0.00863741
0.003879
0.00420611
0.00299366
0.000153173
-0.0711455
0.00723163
0.00728772
0.00454189
-0.0113321
-0.0397892
0.00551351
-0.000411537
0.00362532
0.00378655
0.00466275
0.00366455
0.00854612
0.00346412
0.000184536
0.00599271
-0.00467011
-0.00186387
0.00405213
0.00370657
0.0030137
0.00831647
-0.00168389
0.00214573
-0.00653505
0.003767
0.00257612
-0.0136245
0.00432918
-0.0123809
0.00222941
-0.0938462
0.00282081
0.00272914
0.0204378
0.00858379
0.00322401
0.021272
0.00690944
-0.000811269
0.00348736
0.00122962
0.00284044
-0.0048338
0.00611981
0.0028261
0.00707926
0.00376971
0.00309256
0.000351341
0.000583911
-0.0324182
0.00337073
0.00414102
0.00400206
0.00440687
0.00346189
0.00245589
-0.0235493
-0.0346809
-0.000432658
0.00331925
0.00311312
0.00329214
0.0044425
0.00365839
0.0041882
0.00357936
0.00450907
0.00506463
0.00378042
-0.00283126
-0.000883378
0.00423042
0.00380871
-0.00219532
-0.0141269
0.00328574
-0.00424638
0.00378645
0.00299777
0.00333187
-0.00879587
-0.0642315
-0.0029501
-0.00339417
-0.0108599
-0.0889936
-0.0172823
0.0026693
0.00883855
0.00423255
0.00381998
0.00236473
0.00151088
-0.0275529
0.00310458
-0.0190516
0.00321667
-0.0409705
0.00437061
-0.0265383
0.0114702
0.00773745
0.00264831
-0.0207986
-0.0166182
0.00333981
0.00265093
-0.0739566
-0.00687404
0.0254967
0.0039
-0.0518518
0.00189402
0.00433876
0.00910174
0.00461665
0.00595691
-0.0351704
0.00144309
0.0056355
-0.0172151
0.00657554
-0.046478
-0.0725932
0.0034008
0.00195534
0.00425712
-0.108828
0.00717598
0.00309515
0.00382946
-0.00961993
0.010284
0.00473559
-0.00497746
0.00389455
0.000270182
-0.0073674
0.00251622
0.00370943
0.00178659
0.00255078
0.00420614
-0.00169279
-0.0509765
0.00354337
0.000929444
-0.0197796
-0.00852481
0.00307437
-0.0240548
0.00317836
0.00198086
0.00441591
-0.0800898
0.0113391
0.0004388
-0.00315904
-0.0735692
0.00390469
0.000643346
-0.002945
0.0245584
0.0090165
-0.0021608
1.16477e-05
0.00422905
0.00309507
-0.0406747
0.00405361
0.00387001
-0.00205111
-0.0375937
-0.161644
0.000159558
-0.0140786
0.000147492
0.0081768
0.00413398
0.00276394
0.00434906
-0.00726233
0.00254994
0.0106299
0.012471
0.00698365
-0.0634946
-0.0186319
-0.00652432
0.00498684
0.00253987
-0.0564295
-0.112499
-0.0639279
0.00270557
0.00442161
-0.00247985
-0.0582402
0.00097252
0.0037586
-0.0493202
-8.53654e-05
-0.00353656
-0.000366472
-0.00700539
-9.39545e-05
-0.0254325
-0.0211813
-0.0300386
0.00382743
0.00140561
0.0374296
0.00247117
0.00237995
0.00314839
-0.00255634
-0.0130144
0.00741302
-0.097042
0.000269395
-0.00478143
0.0290551
0.000720949
-0.00557531
-0.0389212
-0.114283
0.00121973
-0.00389235
0.00440615
-0.164326
0.00156042
0.0379579
0.00158047
-0.035227
-0.085601
0.00335113
0.00601469
0.00560572
0.00335728
0.00260287
0.002071
0.0047089
0.002193
-0.0726978
-0.00453923
0.00308995
0.00477101
0.00384494
0.00430109
0.00219682
-0.00242688
0.00253049
0.000196593
0.00315248
0.00614874
-0.00868439
0.000486652
0.00222564
-0.00151626
-0.0131229
0.00866714
0.00448189
0.00340243
0.00656518
0.00325787
-0.00949097
0.00332626
0.00468441
0.00332386
0.00239147
-2.47509e-05
0.00276701
0.00486524
0.00187034
0.00429273
0.0031757
-0.000753549
0.00378906
0.00500034
-0.075906
-0.0258868
0.00345202
-0.00788128
-0.007434
0.0047275
0.00532525
0.0025054
0.00307081
0.00275605
0.0352857
0.00345918
0.00329227
-0.0034015
0.00280108
0.000101311
0.00312262
0.00328932
0.0208377
-0.0555701
-0.013647
0.000186752
-0.0338736
-0.00996256
0.00131194
0.00372688
0.00420394
-0.00091541
0.000274983
-0.0174248
0.00599123
0.00365356
-0.00183154
0.01192
0.027664
0.0100662
0.0058728
0.0171539
0.00305439
-0.0403516
-0.011548
0.00309008
-0.0314699
0.003913
-0.00908174
-0.0736622
0.00410531
0.00453002
0.00433463
-0.00218031
0.00571719
0.00532993
-0.00275315
0.00362759
1.48556e-05
0.00303689
0.00466428
0.000116477
0.00329809
-0.0111585
-0.0190791
-4.22405e-05
-0.00129155
-0.00131794
0.00548831
0.00492257
0.00349941
0.0030645
-0.00879613
0.000843112
-0.00867919
0.00352886
0.0041389
-0.0281938
-0.00384634
0.00716437
0.00329815
0.00291352
-0.0118893
-0.0529568
0.00251553
0.00559632
0.00686422
-0.00790299
0.00605707
0.00103893
-0.00274212
0.00888889
0.0198467
0.00365576
0.00199415
0.00410145
0.00387621
0.000148723
0.0025665
0.00693824
0.00365661
-0.0190703
-0.000943089
0.00193766
0.00399746
0.00174829
-0.157389
-0.0464747
0.00258622
-0.00590122
0.00190207
0.00207561
0.000603641
0.00256661
0.00242636
0.00124619
-0.0525784
0.00313438
0.00261284
0.00336354
0.0038903
0.0179767
0.0021353
0.0393765
0.00333414
0.00417162
0.00383521
-0.0784923
0.00225584
0.00392193
0.00306929
-0.00160746
-0.000858242
-0.000257585
0.00426212
0.00521373
0.000617527
0.00417869
0.00642065
0.0022281
0.00703784
-0.0304625
0.00306923
0.00440872
-0.0187466
0.00373005
0.00400193
0.00368219
0.00411279
-0.0253967
-0.0254705
0.0103601
0.0103873
0.00252082
-0.0531864
-0.0504556
0.00137429
0.00438138
-0.0368933
0.00755042
-0.00639818
0.00330039
0.00329126
0.0042003
0.00309854
0.00267677
-0.0275256
0.00284511
0.000460067
0.003227
0.00749467
0.00311691
-0.0738034
0.0032756
-0.0247223
0.00367625
0.00431616
0.00326839
-0.00224013
0.00586807
0.00808531
-0.00119944
0.0014298
0.0148669
-0.000150018
-0.0114921
-0.00293067
-0.00951294
0.00530511
0.000528182
0.00912097
0.00464835
0.00109123
0.00298046
-0.0766108
0.00377512
0.00244621
0.00427581
0.00435595
0.0133375
0.000505
0.00187771
-0.113058
0.0034077
0.00390697
-0.0432751
-0.0450303
0.00307294
0.039035
0.00352387
0.00471676
-0.0415027
-0.000660217
-0.00389243
0.00457822
0.00109461
0.00422059
-0.00707311
-0.00385251
-0.000827665
0.00382816
-0.000541723
-0.000671631
0.0042898
0.00470616
0.0363887
-0.00747093
0.00425265
0.00144345
-0.0511235
0.00152276
0.00374681
0.0239477
-0.13462
-0.01221
-0.0984625
0.00450235
-0.0433015
0.00447827
-0.031175
0.00154134
0.00316293
0.00173865
0.00335981
-0.00829061
0.00131845
-0.00288276
0.0130316
0.003837
0.00608366
0.00355597
0.00231753
0.00808382
0.00125461
0.00383515
-0.007251
0.00994015
-0.00434889
-0.00365923
-0.0247636
0.00134461
0.00359916
0.00431308
0.00349875
0.00365107
-0.00931062
-0.0487039
0.00393201
0.00227657
0.00503021
0.00424936
0.00338008
-0.0443577
0.00230012
0.00444488
0.00241727
-0.0407128
0.00352079
0.00374562
-0.00983885
0.00414001
0.0105856
0.00364568
-0.00399343
0.00418525
-0.127777
-0.0117105
0.000421573
0.00436291
0.00566151
-0.0448502
0.00396151
-0.0271987
0.00228954
-0.0452237
0.000178908
-0.00715284
-0.00458811
-0.0351022
0.0142591
0.00361586
-0.0480804
0.00614823
0.0155735
-0.0060654
0.00148858
0.00254158
-0.0245672
0.00038653
0.00350918
-0.009683
0.00906007
-0.00286441
0.00502171
0.00394464
0.00167235
-0.0215835
-0.0200137
-0.00423194
0.00343703
-0.12136
0.00583809
0.00743774
0.00372284
-0.0115008
-0.0263793
-0.000129927
0.00376258
0.00405702
0.0032699
0.00354031
-0.00265904
0.00375669
0.0029036
-0.0107861
-0.00118386
0.00549711
-0.000113659
-0.00204705
0.00489554
0.0088275
0.00630706
0.00584091
0.00360583
0.00311289
0.000404836
-0.0123037
0.00168309
0.0033749
0.00383474
0.00273714
0.00235758
-0.00623799
0.00362382
0.00376177
0.00360866
0.00341826
0.00149254
-0.0411853
0.0127196
0.00293726
0.00165832
0.00310079
0.00346632
0.00139639
0.00434524
-0.022829
0.00147688
0.00428036
0.00350356
0.00368864
-0.0639472
0.00630092
0.00311342
0.0062037
-0.0651638
-0.0651213
-0.00269636
0.000686592
-0.0385238
-0.0150801
0.00215035
0.00573836
0.00202758
-0.0315333
0.00331251
-0.12282
0.00359878
0.00325813
0.00349126
0.00417931
0.00347993
0.00203872
-0.0109284
-0.00324739
-0.00598609
0.00384695
0.00510487
0.00312761
0.00274883
0.00370251
-0.00646734
8.63985e-05
-0.00202368
0.00346999
0.0106024
0.00300828
0.00327439
-0.00599088
-0.0198496
0.00313111
0.00318076
0.00574432
-0.00158028
0.00373745
-0.0327841
0.00693646
0.00309795
0.00470049
-0.0442008
0.0102816
0.00393233
0.00333549
0.00258403
-0.000171584
0.00357274
0.00351668
0.0100461
0.0017088
-0.0191443
0.00429442
-0.00153477
0.00268276
0.00570566
-0.0262808
0.0116571
-0.163259
0.00469467
0.00308212
-0.00125452
0.00473383
0.00981944
-0.00998295
0.00509585
0.00385385
-0.00265196
-0.00210388
-0.0378981
0.00420508
-0.00572619
0.00356873
-0.0510065
0.00373435
-0.00712498
0.00356494
0.0046847
0.00366503
-0.0324425
0.00244957
-0.0157219
0.00286259
0.00387112
0.00310417
0.0105992
-0.00593284
0.00240847
0.00669948
0.00531509
0.0035401
-0.000490784
0.00763091
0.00336376
0.00472306
-0.0131049
-0.00868221
0.00463437
-0.0404654
-0.00573772
-0.0187421
0.0031158
0.00558751
0.00222649
0.000335466
0.00308225
-0.0101121
-0.001272
-0.155508
0.00343666
-0.0493549
-0.0451134
0.00252999
0.00410672
0.00408368
0.0124168
0.00371871
0.00653871
0.00159723
0.00263675
0.00472531
0.00715661
0.0051575
-0.0081175
-0.00236328
-0.0189811
0.00162675
0.00707961
-0.00169125
0.00311823
-0.00707206
0.00141508
-0.00382441
0.00431409
0.00237791
0.00258595
0.00324491
0.00610628
0.00454531
-0.00175717
-0.0321779
0.00501574
0.00220042
-0.0399497
0.00294932
-2.53403e-05
-0.0153602
0.0100593
0.00116309
-0.0498794
-0.00508305
0.00130202
0.00537707
0.00404563
0.00384517
-0.0136496
0.0015805
-0.00751842
-0.00626743
0.00386792
0.00672323
0.00952905
0.00369161
0.00412344
0.00234145
0.00307086
0.000697539
0.00478939
-0.0550671
0.00560518
0.00384323
0.00322371
0.00405441
0.00595352
0.00373331
0.00618996
0.00423369
0.00611313
-0.0315583
0.00677907
-0.0260873
0.00334589
-0.000456994
-0.0110117
0.00120697
0.00411098
0.0039122
0.00106853
-0.00075806
-0.017011
-0.001495
-0.000875961
0.00373336
-0.126154
-0.0203571
-0.00824537
0.00390497
0.0307764
0.00318286
0.00151923
-0.0514958
0.000633947
0.00326862
-0.00111479
-0.0068705
-0.00280419
-0.00236219
0.00218224
-0.0102741
-0.00174891
0.00264534
0.000165943
-0.00872996
0.00316743
0.0032278
0.0102993
0.00368201
0.00400996
-0.0030476
0.00385674
0.0107733
0.00530884
0.000863734
0.00538033
0.000707934
-0.025516
-0.00398535
0.00530111
0.00421249
0.00176209
-0.00489714
0.00461252
0.00392493
-0.0438717
-0.012039
-0.0163641
0.0263981
-0.00067864
0.00884568
-0.0112652
0.00422383
-0.00358032
0.00346872
0.00348141
-0.0456114
-0.0014636
0.00514342
0.00654417
0.00374627
0.000361993
-0.0422025
0.00172042
-0.00380767
-0.0150271
0.000546322
0.00295081
0.0182968
0.00668245
-0.12519
-0.0165185
-0.0461645
0.00867216
0.00229149
0.00659503
0.00255951
0.00267657
0.00455282
0.0011788
0.00299753
-0.0115186
0.00336789
-0.102645
-0.0675924
0.00403906
0.00451349
0.0031827
-0.0659104
0.0034792
0.00251006
0.00558646
0.00480858
0.00536049
0.0040036
-0.0157626
0.0017271
0.000364787
5.02836e-05
0.000109702
0.00667318
0.00321628
-0.000112891
-0.00907865
0.00621032
0.00518924
-0.00111433
-4.245e-05
0.00399209
-0.0515461
0.0077897
0.00169401
0.0069383
-0.104549
0.00413243
-0.000799783
0.00176109
-0.00603499
-0.0216775
-0.0077744
0.00114886
0.0264051
-0.0248102
0.00612238
0.0035994
0.00196443
0.003382
0.00673995
0.00467678
0.00325512
-0.0137832
0.0126257
0.00157199
0.00410856
0.0041109
0.0026797
0.00564677
0.000139113
-0.0249755
-0.0121074
-0.0310158
0.00315582
0.0081421
0.000196267
0.00642109
0.00591015
0.000406495
-0.103305
-0.0108639
-0.00952552
0.0177931
0.00410737
0.0142276
4.96966e-05
-0.0418223
-0.0209226
0.00413398
0.00406357
0.00325306
-0.00193043
0.00618272
0.00421036
-0.019306
0.0047529
0.00419125
-0.0925069
0.00349474
-0.00990772
-0.0416787
-0.0188152
-0.0914288
0.00326798
-0.014777
-0.158401
-0.0196609
0.00366527
0.000376501
0.0125945
0.00379968
0.00142133
0.0255465
0.00325333
0.00343791
0.00341535
0.00325216
0.00307717
-0.0381975
-0.105791
0.000134001
0.00144802
0.00356543
-0.0906396
-0.047047
-0.00739908
0.00317185
-0.103749
0.00386792
0.0140357
-0.0210931
-0.00102727
0.00330608
0.00306452
-0.00552721
0.00352719
0.00167303
0.00304531
0.00555082
0.00729799
-0.139494
0.00691472
-0.000994924
0.000442403
-0.0268808
-0.0841788
0.00972837
0.00110303
0.00413231
-0.05625
-0.0400421
0.00618503
-0.00489846
0.00850097
0.00140761
0.00252314
-0.0166358
0.00468162
-0.0106558
0.00208801
-0.000274948
-0.00447151
0.0343496
-0.0264578
0.00179671
-0.00155132
0.000280537
0.00942685
0.00592732
0.00354171
0.00341269
0.00262957
-0.0608559
0.00331119
0.00333653
-0.000241605
0.00376636
0.0034909
-0.0416099
0.00482116
0.0039324
0.0082599
0.00240454
-0.0350615
-0.00718265
0.00582682
0.00676266
0.00404403
-0.00505739
0.0115004
0.0153577
-0.0524518
-0.128061
-0.007577
0.00362563
-0.0426335
0.00315438
-0.0549649
-0.0370708
0.00340389
0.00108966
-0.0102184
-0.0397952
0.00122363
0.00396877
0.00915811
-0.00073317
0.00311248
0.00261204
0.00536588
0.00335969
0.0248157
-0.0725688
0.00294272
0.00234562
-0.0147101
0.00126854
0.00170597
0.00250446
0.00430634
0.00112125
0.00346408
0.000942323
0.00373355
-0.0104488
0.00172041
0.0106514
-0.0715341
-0.017833
-0.0725387
0.00326994
0.00216146
-0.133117
0.00342725
0.00364362
0.00471146
0.00428486
-0.00373876
0.00130764
0.00632822
-0.0311597
0.00376444
0.00232842
0.000804075
0.00428441
0.00594222
-0.00513473
-0.0154947
-0.0495725
0.00333256
-0.0236371
0.00493552
0.00423912
0.00326713
0.00559735
0.00278689
0.00214246
0.00329767
0.00279054
-0.0371161
0.00349532
-0.000905145
-0.0153366
0.00551523
-0.00575778
0.00355381
-0.0812159
0.00594886
0.00349714
-0.00131417
0.00360697
0.000508151
0.015658
0.00528068
-0.000320037
-0.0207169
0.00149145
0.00354809
0.00412405
0.00563897
0.00520189
0.00295863
0.0104765
0.00213432
-0.0206832
-0.0868263
0.00601298
-0.0786553
-0.00578302
0.00138331
0.00786124
-0.0985906
0.00354922
0.00809766
0.00902259
0.000654916
0.0027379
0.00955251
-0.00436967
0.00939303
-0.0467993
-0.0152144
0.00390479
0.00875064
0.00263449
0.00434163
0.00602848
-0.00799824
-0.00021683
-0.00283923
0.00425201
-0.0531592
0.00329306
0.0038735
0.0016518
0.00109198
0.000852444
0.0089711
0.00271728
-0.0122639
-0.029204
-0.000902246
0.0105248
-0.0507759
0.00645129
0.00415785
-6.2288e-06
-0.0263191
0.00426441
0.00126082
-0.029485
0.00434424
-0.00528359
-0.000317379
0.00639245
0.00380088
-0.000597892
-0.133872
-0.00210465
-0.00436734
0.00185007
-0.00274442
-0.0139689
0.00309438
-0.000104902
0.00358989
0.00573416
0.00342516
0.00887972
-0.0136107
0.00387631
0.0057262
0.00467583
-0.0453469
-0.00208766
-0.0208379
0.00373997
0.00303848
0.00903544
-0.067842
0.0030962
0.0041318
0.00397061
0.00190545
-0.022081
0.00309819
0.00370661
0.00248686
0.00407079
-0.0221781
-0.015114
0.00342338
0.0209175
-0.0154339
-0.0249876
0.00287132
-0.0328713
0.00148652
0.00138745
0.00501462
0.000607175
0.00186537
0.00354123
0.0103024
-0.0610617
-0.123016
-0.00796726
-0.0134033
-0.0937075
0.00413038
-0.000239739
-0.0156181
0.0034293
0.000906874
0.00305778
-0.102194
0.00349367
0.00080132
0.00131383
0.00426252
0.0080895
-0.000834423
0.00304635
0.00215817
0.00963129
0.00416949
0.00305891
0.00611207
-0.0484675
-0.0628636
0.0025138
0.000680974
-0.16005
-0.109666
-0.0201276
0.0036882
-0.00165631
0.00369657
-0.00126837
-0.000508381
-0.00274722
0.000353487
-0.00124213
0.00407481
0.00413437
6.92107e-05
0.00718517
0.00635662
-0.0227204
-0.0264624
-0.0370655
0.00553478
0.0102727
0.0220039
-0.0247513
0.00445642
0.00619187
0.00282008
-0.0407736
0.000295415
0.00347932
0.00345308
-0.00227112
0.00384669
-0.00187203
0.00149142
0.00310913
0.0154632
0.00303657
0.0019258
0.00314694
0.00315551
0.0250765
0.00453593
0.00340672
-0.0130881
-0.0134981
-0.0382136
-0.0114678
0.00468611
0.0105403
0.00487807
-0.00660692
0.0030552
0.00382433
-0.00171001
0.00278323
-0.000558477
0.00419212
0.00379897
-0.0477327
-0.0178086
-0.0643895
0.00382867
-0.0167842
-0.0405372
-0.0015505
0.00371666
0.00351304
0.00131759
0.0022851
0.00190233
0.000615054
0.00384271
0.00354333
-0.0606921
0.00372698
0.015815
0.0027127
0.00185551
0.00349595
-0.00261733
-0.019425
0.00331714
0.00135884
-0.0119701
-0.0149566
-0.0145299
-0.0279488
-0.00818219
-0.000334401
0.0101565
-0.139977
0.00104924
-0.000173275
-0.0390501
0.0015213
0.00848744
0.00599711
0.00430551
-0.0358535
0.002738
0.00332375
0.00185097
0.00114464
0.00308782
-0.0118702
0.00360227
0.00379278
-0.00126952
0.00565196
-0.0353214
0.00180709
-0.00394313
0.00381858
0.00370914
-0.0273955
-0.0100754
-0.0020752
0.00141485
0.000497702
0.00370576
-0.0133564
-0.0723342
-0.0418961
-0.00751954
-0.0121084
0.00407537
-0.0216433
0.00365707
-0.00101307
-0.125169
-0.0991354
-0.0501795
0.00153191
0.00567301
-0.0120089
0.00141806
0.0100854
0.00308873
0.0322013
-0.00750686
-0.0129154
-0.0159829
-0.124394
0.00433486
-0.00850289
0.0152812
-0.0207186
0.0034929
-0.00173686
-0.0249307
-0.102639
-0.00941759
-0.0417853
-0.11218
0.00157315
0.00373991
-0.00102878
-0.000241358
0.0127807
0.000136925
0.00660568
0.00648856
0.000162289
-0.00451801
-0.102803
-0.0393473
-0.069844
0.00457858
-0.00468135
-0.00964697
0.0224792
0.00730837
0.00768029
0.00678747
0.00367453
-0.167636
0.00553416
-0.0223368
0.00519848
0.00497054
0.00276106
0.00312802
-0.00663277
0.00190049
-0.000193233
-0.000527264
-0.00394188
-0.134311
0.00248226
0.00505597
0.00473812
0.00348732
-0.054769
0.00271197
0.00600153
-0.00849192
0.0126541
0.00374939
-0.0231032
-0.0326195
0.00498616
0.0054117
0.00398813
0.00310634
-0.0386825
0.00203561
0.00209694
0.00279545
-0.0590424
0.00883536
-0.0208407
0.00916824
0.00104552
0.00698356
0.00323835
0.0030191
0.00221846
0.00380941
0.00662653
0.00562321
0.00494328
0.000115125
0.00456991
-0.00363458
-0.00241613
0.00478816
0.00402308
0.00316958
0.00539709
0.00201415
0.00899753
-0.0354515
-0.000246549
-0.0145095
-0.0201875
0.0030617
-0.00149443
0.00114791
-0.038462
0.00317233
0.00962437
-0.0127535
0.00436346
-0.000518478
0.00534499
0.00271363
0.00203432
0.00339195
0.00328063
0.00143851
0.00166227
-0.0688584
-0.00730939
0.000268477
-0.00137578
0.00259297
0.0036743
-0.024259
-0.0405419
0.00365641
0.00329154
0.00133791
0.0040515
0.00293861
-0.0121427
-0.00124766
-0.000661426
0.00840464
8.5979e-05
0.00022935
0.00361658
0.000143476
-0.119446
-0.00181613
0.00403058
0.000582992
0.00226099
0.00837767
0.00275385
0.00010626
-0.00646337
-0.0114246
-0.0106929
-0.00540299
0.00457621
-0.0754522
-0.012834
0.00446888
0.0139512
0.00342759
-0.0180245
0.00366208
-0.00347281
0.00295199
-0.0289656
0.00619273
0.00398062
-0.000586814
0.00368441
0.00343319
0.000595194
0.00369109
-0.00269479
0.00185604
-0.0019192
0.00329592
0.00150699
-0.0497649
0.00400442
0.000946224
0.0030007
-0.111364
0.00124472
-0.00225743
-0.0366871
-0.0159378
0.00213055
0.00418202
0.00496494
0.00482782
-0.0023233
0.00231674
0.0054597
-0.000611442
0.0174871
0.0102365
-0.0580989
-0.118753
-0.00335871
0.00272884
0.0171101
0.00174372
0.00232137
-0.0309871
-0.0157118
0.00332273
0.00310937
-0.00070858
0.00306697
-0.0648403
0.00432778
0.0101482
-0.00479309
-0.00516646
0.0022982
0.00370842
-0.12046
-0.012032
-0.164887
-0.0180491
0.00212362
0.0188069
-0.00151784
0.0032716
0.00516251
0.00315663
-0.0114664
0.000287647
0.00130623
0.00286816
0.00589243
0.00594954
-0.00238159
-0.0277311
0.00306509
-0.072552
0.00407429
0.00243829
-0.000146744
0.00324483
-0.160439
-0.00414613
0.00745392
-0.0548383
0.000495689
0.00726051
-0.0420181
0.0036936
-0.11999
-0.0253401
0.0037196
-0.00302922
0.00356574
-0.00858941
-0.0267698
0.00487669
0.00750911
-0.0022329
0.0029996
0.00393418
0.00540245
0.00389422
-0.0180945
0.00176932
0.00598225
0.0188938
0.00716074
-0.0535059
-0.0502172
0.00256499
0.00320756
-0.123211
0.00496378
0.00588528
-0.00125399
-0.0234369
-0.136317
-0.0464948
-0.143561
0.00363137
-0.0175768
0.000302409
0.00189883
-0.0974114
0.00137246
-0.00438736
0.00144341
0.0016451
0.00397424
-0.00655266
0.00326013
0.00328643
0.00298467
-0.0245554
-0.0172227
-0.00398704
-0.0112597
0.00340981
-0.0101572
-0.0208725
0.00553485
-0.0200106
-0.00258639
-0.0152535
-0.00023266
0.0362983
-0.00363043
0.00463695
-0.00163515
-0.0102896
-0.0398663