/*--------------------------------*- C++ -*----------------------------------*\
| =========                 |                                                 |
| \\      /  F ield         | OpenFOAM: The Open Source CFD Toolbox           |
|  \\    /   O peration     | Version:  v2012                                 |
|   \\  /    A nd           | Website:  www.openfoam.com                      |
|    \\/     M anipulation  |                                                 |
\*---------------------------------------------------------------------------*/
FoamFile
{
    version     2.0;
    format      ascii;
    class       volVectorField;
    location    "200";
    object      ddtCorrDdt0(U);
}
// * * * * * * * * * * * * * * * * * * * * * * * * * * * * * * * * * * * * * //

dimensions      [0 1 -2 0 0 0 0];


internalField   nonuniform List<vector> 
9793
(
(-0.000647247 0.00206282 -1.36214e-17)
(-0.0547076 -0.00607782 -3.35e-17)
(-0.000352371 0.00055382 -4.38295e-18)
(0.00342613 0.0625516 1.988e-17)
(-1.01591e-06 0.000155472 -3.72482e-18)
(-0.0259683 -0.0196103 -3.81874e-18)
(-0.0162742 0.00541335 7.55016e-18)
(0.0445823 -0.00479035 5.79239e-17)
(-0.00194433 -0.000870215 1.83688e-20)
(-0.0136149 -0.0104037 8.11447e-17)
(-4.22152e-05 0.000318605 1.33756e-18)
(-5.00986e-05 0.000353374 -1.0499e-18)
(-0.000442047 -2.57512e-05 -3.41834e-18)
(0.0503 0.0530973 1.54505e-17)
(-0.000737199 -0.000759752 -4.52054e-18)
(0.00567253 -0.00816845 -1.60033e-17)
(-0.0134617 -0.00989374 -1.30765e-17)
(-0.000449126 0.000394306 7.12199e-18)
(0.00765805 0.0606432 -1.7437e-18)
(0.000211993 -0.000196587 -3.24481e-19)
(0.000301985 -0.000601207 2.47764e-20)
(7.92336e-07 2.73059e-05 -2.48287e-18)
(0.00205188 0.0567739 1.74831e-17)
(0.0424337 -0.00320919 -8.86722e-17)
(0.0548228 0.0505796 5.17358e-18)
(-0.00210187 0.00452065 2.9252e-17)
(-0.000172817 0.000567572 -2.98693e-18)
(-2.76198e-06 4.66354e-05 1.93156e-18)
(0.000198732 -0.000202905 -1.75211e-21)
(-0.0188447 -0.00260064 1.22392e-17)
(0.0381538 0.000399202 6.5518e-18)
(-0.0321033 -0.0183563 4.34446e-18)
(-0.000228933 0.000790984 -1.7675e-19)
(-0.00047432 0.00032846 -1.12308e-18)
(-0.000123836 -1.56604e-05 -6.07762e-19)
(-0.00286894 -0.00898388 -6.35803e-18)
(0.00374947 -0.00634961 -2.36074e-18)
(0.000212267 0.00435213 -1.86759e-17)
(-0.000437012 0.0612714 5.96566e-18)
(-0.00745515 -0.00492195 2.25405e-18)
(-0.0177801 -0.00269826 9.30484e-18)
(-0.0529343 -0.00145773 -2.11674e-18)
(0.0476616 0.0279124 -3.82655e-17)
(-1.72608e-06 3.1401e-05 -2.02936e-18)
(-1.73337e-05 0.000672205 -1.30038e-17)
(-3.43747e-05 0.000955537 2.8885e-18)
(0.0400845 -0.0137948 -9.89764e-19)
(-3.23062e-06 4.35436e-05 4.0486e-18)
(0.00110106 -0.00108917 8.95781e-19)
(-0.000431264 0.00042497 -8.56214e-19)
(-0.00235751 -0.00923724 5.14443e-18)
(-0.000102707 -2.21756e-05 8.7494e-19)
(-0.0075775 -0.010089 -2.55213e-18)
(-3.51663e-06 9.90328e-05 -3.89231e-18)
(-0.00396796 0.00620612 -5.02455e-18)
(0.00433124 0.062204 -3.73392e-17)
(-0.000406706 -2.79705e-05 -4.93241e-18)
(-0.0106973 -0.0254535 4.0741e-18)
(0.00102556 -0.00113895 4.58867e-19)
(-1.53136e-06 2.45937e-05 -3.86044e-18)
(-0.00041859 0.0050133 1.76523e-17)
(-0.00606719 0.0121788 -4.49559e-17)
(-0.000340184 0.000529036 -6.28653e-18)
(0.00140444 -0.0148018 -5.34024e-18)
(-0.000177121 7.19934e-06 1.0593e-18)
(-0.00181448 -0.000838888 -1.3097e-19)
(0.0170801 -0.00545141 4.60572e-17)
(-0.00322809 -0.00395052 -2.83695e-19)
(0.00460272 -0.00661853 3.67336e-18)
(-0.00545475 0.0404859 -4.15818e-17)
(-0.000436498 0.00100074 -1.00083e-17)
(0.00194808 0.0122794 -4.29836e-17)
(0.0518009 -0.00880188 -2.01004e-17)
(-0.264429 -0.11874 -1.88653e-17)
(-0.0295694 0.0352953 -5.55232e-19)
(-1.68308e-06 9.3194e-05 -2.23277e-18)
(-0.00262071 0.00890338 4.30159e-17)
(-0.0207401 0.00225248 -2.82499e-18)
(-0.000201774 0.00070546 4.32711e-18)
(-1.97488e-06 0.000104446 -4.47984e-18)
(-0.00250533 0.00913351 -4.15934e-17)
(0.00748216 0.0588524 -2.37604e-17)
(-0.012525 -0.0102631 -1.07958e-17)
(-0.00349131 0.00209601 -5.07986e-18)
(0.00415144 -0.00680628 9.4007e-18)
(-0.0285958 -0.00080419 7.44278e-17)
(-4.13237e-06 0.000143991 1.80241e-19)
(-0.000429828 -0.0274223 2.21535e-17)
(-0.00023383 0.0614781 2.29015e-17)
(-0.00567564 0.0118256 2.26008e-17)
(0.00585061 0.0564314 5.01752e-18)
(-0.0319142 0.00354501 5.38177e-18)
(-0.0311821 0.00538036 -4.19295e-17)
(-0.0114791 -0.00181888 -5.37902e-18)
(0.0405365 0.0315519 -3.60334e-17)
(-0.000591156 0.000184862 4.98539e-18)
(-0.0281643 0.0314587 -1.93491e-17)
(-0.0136495 -0.00694339 1.25998e-17)
(-0.0047987 -0.00197012 -4.43834e-19)
(-9.56099e-07 0.000113793 4.61322e-18)
(0.0172598 0.0592962 2.56355e-17)
(-0.0071928 -0.00964401 1.35282e-18)
(-0.115637 -0.0735337 -2.51649e-17)
(-1.93217e-05 0.000699917 4.35392e-18)
(-0.0428327 0.0386326 -1.02996e-17)
(0.00237427 0.00196675 2.816e-17)
(-0.256851 -0.126026 1.90375e-17)
(-0.00029693 -0.000178986 -2.11139e-18)
(-0.000172023 0.000731193 3.78376e-18)
(-3.80072e-07 5.21721e-05 1.30991e-18)
(-1.38053e-05 0.000110601 -6.58767e-18)
(0.00332223 0.0556162 -2.26712e-17)
(0.000426874 0.012795 1.36154e-16)
(0.0263633 0.000635057 -1.7779e-17)
(-0.000491475 0.000961202 4.40003e-18)
(-0.000119529 0.000786353 -5.66776e-18)
(0.00651774 -0.00397936 4.69236e-18)
(-7.4228e-05 0.000947272 -6.29002e-18)
(0.00509606 0.0624168 1.24121e-17)
(-7.10228e-06 0.000913105 4.97405e-18)
(-0.0413426 0.0432547 -2.27134e-17)
(-0.00189637 -0.0283504 1.48997e-17)
(-0.0341216 0.0218795 1.68854e-17)
(-0.00662361 -0.0142354 -1.28872e-17)
(0.00324812 -0.00647509 3.69545e-18)
(9.43662e-06 0.000928241 -4.13027e-18)
(-0.0153035 -0.0085641 -8.35922e-18)
(0.0381189 0.00106398 -3.20101e-17)
(0.00408247 -0.0437039 -1.7892e-17)
(0.00616884 -0.0440535 8.61826e-18)
(4.59506e-05 -0.0054773 4.77642e-18)
(-0.000518013 -0.000334119 -4.63582e-19)
(-0.000699671 0.00198715 -2.61281e-18)
(-0.00253184 -0.00353009 -1.57375e-18)
(-0.00286612 -0.00802465 6.91782e-19)
(-0.0216827 0.0057051 -5.13106e-18)
(-0.053578 -0.0252175 2.65946e-17)
(0.00624233 -0.00437404 -3.12779e-18)
(-2.13531e-06 6.55075e-05 2.32219e-18)
(-0.0144919 -0.0121904 -1.13081e-17)
(0.00887205 0.0532386 -4.51233e-17)
(-0.00301252 -0.00839228 4.71542e-18)
(-0.000883134 0.000773409 -3.69127e-18)
(5.26476e-05 -0.0234317 -4.03081e-18)
(0.03826 -0.0177856 8.73316e-19)
(-0.0152667 0.0163355 -4.17472e-17)
(2.55226e-05 0.000927612 -1.23574e-17)
(-0.0247151 0.0330943 3.40632e-17)
(-0.000550039 -0.000343044 -1.58874e-18)
(1.02138e-05 0.000913972 1.14302e-17)
(-0.000214126 0.000725096 3.01268e-18)
(0.0207109 -0.000202997 5.6952e-17)
(-0.00449198 -0.00190023 -8.39702e-20)
(-0.000167301 0.000585813 -4.42846e-18)
(-0.000118724 0.000652188 -7.42963e-18)
(-0.0314843 0.00851018 -4.43549e-17)
(-0.0141059 -0.0105055 2.13225e-17)
(-0.00035812 0.000504577 -2.53306e-18)
(-0.0338935 -0.0195096 2.55556e-17)
(-0.000529169 0.000674975 -7.78126e-18)
(-0.000742348 -0.0257608 -3.35048e-17)
(-0.000242447 -0.00564674 -4.51992e-18)
(0.000257314 -0.000612863 1.73741e-21)
(-0.00252011 0.0143481 -4.224e-17)
(0.00052299 -0.0024005 1.7943e-18)
(-0.0297103 0.000141735 -2.82197e-17)
(-0.0645316 -0.0633287 1.07762e-17)
(0.000109329 -0.00280056 6.36154e-19)
(-0.000273165 -0.000167458 -2.68837e-18)
(-2.1669e-05 0.000254365 -4.10739e-18)
(-0.000836461 0.000797888 -4.46907e-18)
(0.0130302 0.000342659 -7.93118e-17)
(0.0463903 -0.0153129 7.821e-17)
(-0.0090964 0.057646 -4.75118e-17)
(-0.000451788 -6.85305e-05 4.3717e-18)
(-0.0245594 -0.0197863 -8.72899e-19)
(-0.0117653 0.0121549 -5.67193e-19)
(-0.00173524 0.0152482 3.14049e-17)
(-0.00024279 0.000651302 -3.37305e-19)
(-0.0027511 -0.00430653 5.84267e-18)
(-0.050892 0.0341012 5.35018e-17)
(0.032739 -0.0143099 -7.21794e-18)
(-0.00163913 -0.0298732 -1.6516e-17)
(-4.14576e-05 0.000933648 8.87626e-20)
(-4.7347e-05 0.000969873 -8.81557e-19)
(-0.00028233 -0.000187807 1.96731e-18)
(-0.0489106 0.0164604 1.77189e-17)
(0.0507083 -0.00923736 3.5767e-17)
(0.0300406 -0.00542358 -1.28403e-17)
(-0.129049 -0.0722431 7.35993e-18)
(-0.00170904 -0.000701027 -1.86241e-18)
(-0.0173424 0.0828152 -1.199e-16)
(-0.000237736 0.0129793 2.91851e-17)
(-0.00063978 0.0045032 -1.08903e-18)
(0.00154264 -0.00106935 -1.81067e-18)
(-0.00224488 0.00263833 4.69065e-18)
(-5.11269e-05 0.0134954 1.94403e-16)
(0.000112758 -0.000154024 5.75688e-19)
(-0.000470571 0.000363593 -5.88092e-18)
(-2.61467e-05 0.000430846 1.48759e-18)
(-0.000480297 0.00114571 -7.39833e-18)
(0.000502035 -0.000695381 -4.81148e-19)
(-0.00191752 -0.0102894 -7.94887e-18)
(0.000768379 -0.00726449 -1.60519e-17)
(0.00277437 0.0669367 9.60227e-17)
(-6.76008e-05 0.00078936 7.31801e-18)
(-0.00630783 -0.00447955 -2.16138e-18)
(0.000309524 -0.00289685 -2.43991e-18)
(-0.00127323 0.00181763 1.61211e-17)
(-0.00548612 0.0169961 -1.12496e-18)
(-0.0138139 -0.0117604 1.98207e-17)
(0.0117664 0.0510215 -1.86132e-17)
(7.20521e-05 -0.000127559 9.82564e-19)
(-0.00340698 0.043434 1.23246e-18)
(-0.00342557 0.00231252 1.27907e-17)
(0.0179119 -0.0154454 2.36154e-17)
(-0.00081297 -0.000771218 5.10895e-19)
(-0.0222006 0.00471014 -2.58668e-17)
(-0.00010556 0.00076574 -1.38505e-17)
(-0.000703853 0.00946994 9.39442e-19)
(-0.0143519 -0.00722634 -1.54846e-17)
(0.000456239 -0.00072332 2.03354e-19)
(0.00185317 0.0151159 4.90457e-17)
(-0.014585 0.0479031 -7.15375e-17)
(-0.0109492 -0.0015561 3.34888e-18)
(-0.000668481 0.000169207 4.42058e-18)
(-0.00812067 -0.0164546 1.60368e-17)
(-0.00832534 0.0252193 5.04231e-17)
(-0.00130894 0.00925619 -2.19651e-17)
(-0.00158046 0.00943079 5.27941e-18)
(0.00503726 0.0658358 -1.42063e-19)
(-0.00584353 -0.0384791 4.681e-17)
(0.016346 -0.0148494 -9.43017e-18)
(0.00151975 -0.0155076 -1.99712e-18)
(-0.000152228 0.0128376 -3.14475e-17)
(0.00102662 -0.000542897 6.81441e-19)
(-0.0385312 0.0529901 1.81865e-17)
(0.0248335 0.00115596 5.02784e-18)
(0.000106145 -0.000141967 -2.21917e-19)
(-1.41926e-05 0.000346831 -6.3527e-19)
(-0.0644466 -0.00357908 1.13516e-17)
(-0.000653131 0.00050992 1.32031e-17)
(-1.10894e-05 0.000102591 3.00008e-18)
(-0.0102874 -0.0287896 3.04331e-17)
(-0.0131044 -0.0281984 8.75605e-17)
(-0.0018321 -0.000722921 3.51166e-18)
(-0.00266876 -0.00456861 1.16121e-18)
(-0.00665786 -0.00476414 2.11054e-18)
(-0.00661361 0.00616721 -3.35412e-17)
(-0.00182141 -0.00523036 -6.49851e-19)
(-0.000217478 0.000670741 -1.16764e-17)
(-0.0115435 0.00210599 1.74028e-18)
(0.00283481 0.0703565 -8.75144e-18)
(0.000400643 -0.000659577 -4.68305e-19)
(-0.00836526 0.0558604 -1.16307e-16)
(-1.07748e-05 0.000120901 5.5486e-18)
(-6.66082e-05 0.000433373 -8.06308e-18)
(8.9957e-05 -3.6812e-05 7.55122e-19)
(0.00419018 0.0632331 -7.77046e-18)
(4.85721e-05 0.000741174 -6.88233e-18)
(-0.0227877 0.00462313 2.65023e-17)
(-0.017944 0.0436122 4.18534e-17)
(-0.000132876 0.000327567 9.28393e-19)
(-0.000101196 0.000723928 5.81658e-18)
(-0.0282935 -0.00323991 4.43152e-18)
(9.32623e-05 -2.96297e-05 5.51399e-19)
(-9.98578e-06 0.000228775 4.92927e-18)
(0.000122116 -2.37328e-05 1.71155e-18)
(-0.0146255 0.0461514 -3.31404e-17)
(-0.00250712 0.0139935 2.13627e-17)
(-0.00207055 0.00394467 5.33923e-18)
(-0.00786152 0.0164641 -8.49324e-19)
(-0.0115004 -0.0234823 1.84671e-18)
(-0.0844732 -0.0613036 -6.93577e-18)
(-0.00580577 0.0586247 -1.34604e-17)
(-4.9995e-05 -0.00292234 -1.54162e-18)
(0.0176046 0.108311 2.22771e-17)
(-6.64887e-06 0.000104893 4.81006e-18)
(0.00199428 0.0219603 -5.51334e-17)
(0.000906589 0.0200112 -1.41667e-17)
(0.00386485 0.0620977 2.15788e-17)
(-0.0399631 0.042338 -6.53093e-18)
(-0.00632221 -0.0368255 -3.13846e-17)
(0.000432058 -0.0056609 3.01644e-18)
(-0.0118684 -0.00957581 7.60795e-18)
(0.000683413 -0.00684884 1.69364e-17)
(0.00175791 -0.00101174 -8.15792e-19)
(0.00112959 -0.00315211 -1.56626e-18)
(-0.00624625 0.0164514 2.52542e-17)
(-0.0022138 0.00467837 2.60205e-18)
(-8.66663e-05 0.00069557 3.97392e-18)
(-1.94716e-07 8.4887e-06 7.23386e-18)
(7.80726e-05 -0.000134435 -2.8491e-19)
(0.000225386 -1.41986e-05 -1.38963e-19)
(0.000355646 -0.000672583 2.17799e-19)
(-0.00363503 0.050427 -5.74432e-17)
(-0.000325026 -0.00020939 3.42133e-20)
(-0.000748432 -0.00064421 -2.75686e-19)
(0.000235065 -1.3531e-05 3.15016e-19)
(-0.000418884 -4.23636e-05 6.87027e-18)
(0.00263498 0.0757911 -2.77351e-17)
(-0.0160629 0.0160895 2.81031e-17)
(0.00132093 0.0102786 -5.32492e-18)
(-0.000520239 0.00288579 1.91911e-17)
(-0.00122077 -0.0230272 -2.79935e-17)
(0.000250068 -1.23793e-05 -3.02231e-19)
(-0.138282 -0.10209 8.93414e-18)
(0.0131569 0.00188239 -2.66859e-17)
(3.60444e-06 0.00071391 2.75361e-18)
(-0.0193593 0.0401606 8.40734e-17)
(0.000251555 -0.0135188 -3.03086e-17)
(-4.47035e-05 0.000654866 1.43908e-17)
(-0.0317601 -0.00541248 -1.04971e-17)
(-0.229451 -0.117759 -1.16845e-17)
(-0.000223576 0.000815155 1.03023e-18)
(-0.0117925 0.00257606 7.15302e-19)
(-0.00512873 0.0134262 7.61258e-17)
(-0.00118182 0.0014779 6.2765e-18)
(0.000787726 0.007173 1.63899e-17)
(-0.00071324 -0.000692968 4.77807e-18)
(-0.00108398 0.00173434 -1.03111e-17)
(0.0346997 0.0212117 -2.05398e-17)
(-0.00535371 0.00751701 1.66124e-17)
(-0.000449271 0.000374899 1.52507e-18)
(-6.38626e-05 0.000893386 -4.27708e-18)
(-0.000504423 0.00273213 -1.26343e-17)
(-0.0143709 0.0124609 1.34189e-17)
(0.00150189 0.0147751 -3.47172e-17)
(-0.000302691 0.000558632 -1.00947e-18)
(-0.000307234 -0.000196824 4.35449e-18)
(0.000189253 -0.0011583 -3.94785e-19)
(0.0124858 -9.2712e-05 2.73678e-17)
(0.0333089 0.0827783 -1.58611e-17)
(0.0137673 0.00590034 -3.27888e-17)
(0.000898618 -0.000573176 1.57888e-19)
(-0.00569325 0.00776575 -1.46619e-17)
(0.00102746 0.007299 -2.67315e-17)
(-0.00515105 0.0211936 4.82212e-19)
(-0.0110887 -0.0201461 2.26551e-18)
(0.00120514 -0.000349383 6.17283e-20)
(0.00127167 -0.000651923 -9.89823e-19)
(0.000114823 -0.00112121 2.64565e-19)
(-0.0110687 -0.00986006 -7.98118e-18)
(-0.00172979 0.000837897 2.57001e-18)
(0.0203843 0.00845317 -6.28723e-18)
(-0.00011237 0.000891155 5.34337e-19)
(-0.000453516 -0.000360176 -2.43847e-18)
(-0.0784086 -0.00140484 5.94777e-17)
(-0.0049925 0.0494149 1.17523e-16)
(-0.00474865 0.0463972 -2.41805e-17)
(0.000221878 -1.68965e-05 -8.78563e-20)
(0.015037 0.0600439 -4.80213e-17)
(-0.00407624 0.00226307 8.81387e-19)
(0.000248473 0.0138109 -5.91004e-17)
(0.02603 0.0066786 -2.27596e-17)
(0.0043507 0.066684 -1.10186e-17)
(-0.00360656 0.00143313 2.34137e-18)
(-0.0079523 -0.0048667 -2.25011e-18)
(-0.0522849 -0.0234812 -1.27632e-17)
(0.00683163 0.0546843 -5.27877e-17)
(0.00454276 0.0570069 8.96491e-18)
(0.000844461 0.00489736 -1.76435e-17)
(-4.05545e-06 5.4629e-05 -2.03776e-19)
(-0.00202283 0.00410885 1.79338e-18)
(0.00114359 -0.00093025 7.31266e-19)
(-0.000302495 -0.000236931 1.03563e-18)
(-0.00162544 0.000812459 -1.1893e-18)
(-0.000205319 0.000554845 -1.54807e-18)
(-5.30461e-08 3.23913e-06 4.84932e-19)
(0.0178276 0.00917704 -1.24107e-18)
(-3.35966e-05 0.000304052 4.88565e-18)
(-0.0159366 -0.00689218 -2.48272e-19)
(-0.0068453 -0.00569353 -9.43117e-18)
(-0.128951 -0.00664082 1.89038e-17)
(0.0012216 -0.000279108 -2.61626e-18)
(-0.00369933 0.00207787 2.30932e-18)
(0.000441999 0.0689358 1.05403e-16)
(0.000543881 0.0128889 -2.11899e-17)
(0.0535419 0.0578568 4.88748e-17)
(-0.0106794 -0.0194197 1.23621e-17)
(-0.000426369 -0.000357599 -5.9842e-20)
(-0.00379011 0.00135444 -4.33653e-18)
(-0.000357124 0.000493742 6.03011e-18)
(-0.0217417 0.0125936 -1.2281e-17)
(0.000120219 -4.43315e-05 -2.78514e-19)
(-0.00690603 0.0474611 9.27964e-18)
(-0.00983787 0.0135924 4.74466e-18)
(-0.0156448 0.0060116 -6.56382e-19)
(0.015054 0.00554775 2.57914e-17)
(0.0311523 0.0134969 3.72683e-17)
(-9.47883e-05 0.000282744 -4.09143e-19)
(-0.000664832 0.000110625 -1.97538e-18)
(-0.0773366 -0.0193788 -4.19818e-17)
(-0.0220746 0.0117984 4.20152e-17)
(-2.27938e-05 0.000771111 -1.8656e-18)
(0.0300169 0.00545156 -3.98029e-17)
(-0.000104137 0.000302072 -1.10549e-18)
(-5.01631e-05 0.00054576 3.15919e-19)
(0.00582737 0.0191158 -1.37961e-17)
(7.97129e-05 -0.000118801 -2.04199e-18)
(-0.0116905 -0.0246595 6.47325e-18)
(0.000984967 -0.000603266 -6.98189e-19)
(-0.0344204 -0.0518967 3.47854e-17)
(-0.000108858 0.000886262 -3.37734e-18)
(0.000692727 -0.00242479 -1.91009e-18)
(-0.068865 0.0170455 2.40324e-17)
(0.00141249 0.0105203 2.4817e-18)
(0.0175112 -0.0222734 1.94121e-17)
(-0.000889426 0.00457441 4.03641e-18)
(-0.000161231 0.000317298 -5.65578e-18)
(-0.000862097 -0.000122063 3.45942e-18)
(-0.0310522 0.0251735 -3.00527e-17)
(-0.0136265 -0.00596899 2.09935e-17)
(0.000559847 -0.000494915 -1.16314e-19)
(-2.15132e-05 0.000507963 -3.84449e-18)
(-0.00371064 0.00638588 7.14972e-18)
(0.00150091 0.00717473 5.76577e-18)
(0.0189921 -0.021265 -5.83936e-18)
(0.0269262 -0.0183319 -8.161e-18)
(-2.81246e-05 0.000481143 3.26034e-18)
(-0.000477383 0.000310516 1.66226e-18)
(-0.00333217 0.0148817 1.07276e-16)
(-0.000162206 0.000306985 3.79939e-18)
(0.00290783 0.069547 1.04875e-18)
(-0.00237133 0.0153124 8.24294e-17)
(-5.3129e-05 0.000967274 2.03364e-18)
(-0.000263466 0.000746338 -3.40205e-18)
(0.000989054 -0.00303513 2.71019e-20)
(-0.000122755 0.000310442 -2.66281e-18)
(0.000259386 -0.0011033 -1.52045e-19)
(0.0174982 0.0600076 -8.48739e-17)
(-0.001017 0.00960318 2.35688e-18)
(-0.0183658 -0.0013108 9.09216e-18)
(0.00129801 0.00561281 -2.93967e-19)
(0.00369454 -0.00426113 2.34758e-18)
(-0.00721595 -0.0136428 -5.80768e-18)
(0.000233176 0.00417514 1.52628e-17)
(0.00655328 0.0611015 -4.65745e-17)
(-0.000563489 0.00490324 -2.11399e-17)
(-5.16399e-06 0.000129548 -4.97999e-19)
(-0.00311257 -0.004247 -7.3911e-18)
(-0.0164384 0.014739 -1.42885e-17)
(-0.000644508 0.000930204 1.25364e-17)
(-0.000522027 0.000724191 1.57245e-18)
(-0.000434187 0.00108006 7.25606e-18)
(0.000115072 -4.27526e-05 1.97481e-19)
(-0.000371294 0.000468903 -7.16054e-18)
(-0.000936688 -0.000548196 1.00912e-18)
(-6.21315e-05 0.0009447 -1.06251e-18)
(-6.96009e-05 0.000248501 6.59483e-20)
(-0.00230342 0.00213431 8.84466e-18)
(0.000220555 -0.00666475 3.63642e-18)
(-0.00950866 -0.0296669 -1.35669e-17)
(0.000213126 -1.77158e-05 1.2361e-19)
(0.000107795 0.013684 -2.0627e-16)
(-0.0017087 0.00435948 -1.36039e-17)
(-0.0101309 0.0143942 -7.3749e-18)
(-0.00692889 0.0616323 -1.21623e-17)
(0.00170056 -0.00113056 2.15682e-18)
(-0.0989485 -0.0106093 -3.36138e-17)
(-0.0160832 0.00461086 2.83741e-18)
(0.00145793 -0.00115817 4.36929e-19)
(0.000123224 -5.84574e-05 5.38226e-20)
(-0.000995701 0.000774578 1.2317e-18)
(-0.0627519 0.0326006 3.92483e-17)
(-0.0124328 -0.0227387 -1.55906e-17)
(0.000127892 -5.50626e-05 -3.59829e-19)
(-6.11469e-05 0.00086342 -1.95315e-18)
(-3.3892e-05 0.000456842 -1.33527e-18)
(0.00242394 0.0104217 1.71488e-17)
(-0.0114292 0.0130374 1.50588e-18)
(-0.0148799 0.00243629 -9.11311e-18)
(-0.000176136 1.62204e-05 -2.2183e-18)
(-7.90091e-05 0.000648498 -2.12525e-18)
(-0.000996149 0.00647141 1.493e-19)
(0.037554 -0.0111423 -5.56943e-17)
(0.00556658 0.0621311 1.67382e-17)
(-0.00100164 0.00347574 -4.17691e-18)
(0.000840753 -0.00481042 -1.31054e-18)
(-0.0139431 0.0527603 9.31669e-17)
(-0.036829 -0.00184767 9.10744e-18)
(-0.00939822 -0.0350819 -2.53443e-17)
(-0.0014403 0.00144883 -3.94699e-18)
(-0.000482003 -0.000351078 2.97065e-18)
(0.00211471 0.0658361 2.17161e-17)
(-0.000560218 0.000274513 1.14385e-18)
(-0.0127035 0.0119909 -1.8003e-18)
(-0.109822 -0.00289351 -4.89012e-18)
(0.000556749 -0.000452983 1.43704e-19)
(-0.00280785 0.013851 7.10103e-19)
(-0.00557417 -0.00438467 2.25766e-18)
(0.0139192 0.0584744 -1.27954e-17)
(-0.000829896 -0.000140398 -6.62638e-18)
(0.00363478 0.0620695 5.36039e-18)
(-0.0318054 -0.00954591 1.17363e-17)
(0.00503293 -0.00773785 1.38102e-17)
(-0.0322885 -0.00510628 -9.22713e-17)
(-0.000571288 0.000218029 -8.32821e-18)
(-0.00648193 0.0200621 1.02373e-18)
(-9.46681e-05 0.000911627 1.83238e-18)
(-0.000667459 5.6086e-05 4.75446e-18)
(-1.63577e-05 0.000225956 1.5604e-18)
(-0.000406534 0.0004647 -1.06359e-18)
(-0.0236061 0.0399816 -8.83687e-17)
(-0.000619999 0.000162435 4.49675e-18)
(0.000839252 -0.0010889 8.07753e-19)
(-0.000794549 0.00279412 -2.13496e-17)
(0.000852341 -0.00061162 9.40069e-19)
(-0.000513973 -0.000352146 1.37758e-18)
(-0.0114825 0.00371019 -9.16575e-19)
(-0.00267857 0.00155993 3.73632e-18)
(0.000340235 -0.0142939 4.9425e-17)
(-0.000220989 0.000201804 -1.60553e-18)
(-0.000208728 0.000217438 -7.79752e-19)
(0.00117756 0.067941 -1.37338e-16)
(0.000780838 0.0106578 -4.38349e-17)
(-0.000972148 0.00334813 6.46267e-18)
(-0.0122649 0.0559553 9.92261e-17)
(0.000181568 -0.00625409 -3.02427e-18)
(-0.00180001 0.00116163 5.60189e-18)
(6.89502e-05 0.000752168 2.81965e-18)
(0.000323732 -0.00113928 -4.00189e-19)
(0.0142741 0.00570349 9.08786e-18)
(0.000912612 -0.00105021 -7.36454e-19)
(-0.000125053 3.68994e-05 3.01906e-18)
(0.0445817 -0.00355294 2.50149e-19)
(-0.0552233 -0.00280945 9.09512e-17)
(-0.00699657 0.00591196 3.297e-17)
(-0.000424497 -8.97926e-06 3.66876e-18)
(9.63639e-08 5.16177e-05 -9.67478e-19)
(-0.000977619 -0.0020021 -3.10718e-19)
(-1.34199e-05 0.000195972 1.75197e-18)
(0.00167442 0.0576101 4.07448e-17)
(-0.00118784 0.00158005 -4.75204e-18)
(-0.163349 -0.0809114 -1.04899e-17)
(0.00247743 -0.0061082 1.18595e-19)
(0.00161717 0.0145656 -8.17739e-17)
(-3.27716e-06 0.000131211 8.62498e-18)
(0.0322723 -0.00581304 -7.82405e-17)
(-2.17151e-05 -1.71713e-05 1.07082e-18)
(-0.0150329 0.0131252 -5.24649e-18)
(-0.000534183 0.000321317 3.81302e-18)
(0.00972532 -0.0353836 5.04793e-17)
(0.00205747 0.0715077 -9.1756e-18)
(-8.51947e-05 0.000893937 -6.02244e-18)
(-0.0408725 0.0036927 1.74402e-17)
(-0.000604039 0.000403491 -2.26164e-18)
(-1.37896e-05 1.17456e-05 8.94296e-19)
(0.000310857 -0.000551823 -1.09073e-19)
(-0.0620509 0.0244259 -9.064e-18)
(0.00350152 0.0678377 -6.21035e-17)
(-0.000960837 0.000826884 -7.70282e-18)
(-0.00588136 -0.0046726 -1.74413e-18)
(0.00107389 -0.000980527 -9.40337e-19)
(-0.00899493 0.0516898 8.45574e-17)
(0.000199833 -2.0779e-05 -1.90954e-19)
(-0.0118025 0.00165506 -2.96514e-18)
(0.00237972 0.0600853 -3.87841e-17)
(0.0003514 0.00447379 -1.77012e-17)
(-0.000151518 4.40432e-05 2.3839e-18)
(-0.00310832 0.00885666 -4.5103e-17)
(-9.9811e-06 5.67888e-05 3.64816e-18)
(-0.000928971 -0.00216833 6.21771e-19)
(-4.18619e-05 -0.00115588 -5.09668e-19)
(-0.00782735 -0.0294538 4.31503e-18)
(-0.00022173 5.95059e-06 -7.63591e-19)
(-0.0260815 0.044643 -7.21599e-18)
(-0.0001981 0.000244325 8.67197e-19)
(-0.00186659 0.000743553 -5.64308e-18)
(0.00359675 -0.0173612 2.93596e-17)
(-0.0044576 0.0110997 3.02819e-17)
(-0.145491 -0.0201051 1.4313e-18)
(-0.00069632 -0.000598947 1.93492e-19)
(0.0255518 -0.00783251 8.32775e-18)
(-0.000683317 8.42208e-05 -1.38619e-18)
(-0.0120258 0.0137537 2.88607e-19)
(-0.000334117 0.000577019 5.75102e-18)
(0.000471027 -0.00276435 6.68749e-20)
(-0.000586479 0.000238842 3.79699e-19)
(-0.000197415 0.000253605 1.06252e-17)
(-1.08409e-06 0.000119737 -2.98598e-18)
(-0.0117257 0.0144396 2.91094e-18)
(0.0150541 -0.0157619 -1.81834e-17)
(-0.0291761 0.00395545 2.04806e-17)
(-0.0224592 -0.00793341 -2.01641e-18)
(-0.00139468 0.00731335 -3.95842e-17)
(-0.00462023 0.00615041 -1.57888e-17)
(0.00346471 0.0202049 4.41603e-18)
(-0.00265896 -0.00369518 1.4873e-20)
(0.0063787 0.0594477 -9.03589e-17)
(0.0400158 0.0637445 4.19696e-18)
(-0.0147268 0.014012 5.42745e-18)
(0.0108415 0.00265772 1.04781e-17)
(-0.128372 -0.00713844 1.50822e-17)
(-0.013368 0.0127729 -6.27237e-18)
(-0.000808582 -0.00219638 -1.07487e-18)
(0.000455382 0.0143207 6.78633e-17)
(0.00461082 -0.0173932 6.50819e-19)
(0.00040196 -0.00253892 -8.2687e-19)
(-0.0153493 0.0147659 -2.60929e-18)
(-6.60935e-06 4.93873e-05 -4.05046e-18)
(-0.00709268 0.0170228 4.07345e-18)
(-0.00686508 0.00531329 -1.10315e-17)
(-0.0138083 -0.0291675 3.37676e-18)
(0.00095715 0.0053499 -1.07795e-17)
(-0.00399165 0.0468587 7.90522e-19)
(0.08103 0.0437497 4.34564e-17)
(0.00317734 -0.0162094 -4.29418e-18)
(-0.0159656 -0.0286887 6.4485e-18)
(-1.78169e-05 0.000378297 -1.50552e-18)
(-0.0116432 0.017666 2.35384e-18)
(0.000515474 0.00281574 9.2902e-18)
(-0.000501401 0.000328414 -5.71218e-18)
(-0.00159184 0.000887575 3.941e-18)
(0.00549167 -0.00301924 -3.75351e-18)
(-0.0128713 -0.0056954 -6.32982e-18)
(0.0049408 0.0648552 5.34865e-17)
(-0.00772627 0.0154393 6.12289e-18)
(0.0677396 -0.012594 1.39331e-17)
(-0.00271991 -0.00320943 -5.57926e-19)
(-0.0023863 0.00272435 -7.01704e-18)
(0.0156564 0.0568839 1.27481e-17)
(0.00119224 0.0124821 1.11546e-17)
(0.000456512 -0.0043831 1.45015e-18)
(-0.0108449 -0.0175561 8.51839e-18)
(-0.00134078 0.00190243 1.63289e-17)
(0.000960814 0.0146143 3.53129e-17)
(-0.078027 0.00888914 -1.21558e-18)
(-7.00799e-05 0.000958846 -2.50173e-18)
(0.00166267 0.0103764 -5.03131e-17)
(-0.00360532 0.0145503 -5.2394e-17)
(0.0717712 0.0642738 -3.85513e-17)
(-0.000174895 4.62874e-06 1.29297e-18)
(-0.00220133 0.00432964 -1.92645e-18)
(0.00301615 0.0159332 -1.75077e-17)
(-0.00135677 -0.00989944 3.03866e-18)
(-0.0538674 0.011046 -2.31795e-17)
(0.00758948 -0.0356902 -3.70186e-17)
(-0.140199 -0.0109794 -2.32075e-17)
(-0.00329318 0.00360449 1.1412e-17)
(-0.00301614 -0.00367722 3.48899e-19)
(-0.00131213 -0.000834853 4.18025e-18)
(-0.000149673 0.000631489 7.72753e-18)
(0.0045185 -0.0522217 4.63628e-17)
(-1.58328e-06 4.62757e-05 -4.54413e-19)
(-0.0378097 -0.0534622 9.45514e-18)
(-0.023941 -0.0119263 2.07679e-17)
(-0.0141332 0.0072495 5.79163e-18)
(-2.90549e-06 2.18836e-05 1.57917e-18)
(-2.00249e-05 0.0001188 7.33789e-19)
(0.00443073 -0.00429933 -4.56828e-18)
(0.00282446 -0.00132644 -1.93955e-18)
(-9.56028e-05 -3.52009e-05 -1.23703e-18)
(-0.000601758 0.000514989 3.03354e-18)
(-0.0214187 -0.00756442 -7.39094e-18)
(-0.0713475 0.0282074 -7.60282e-17)
(0.0572037 0.0491539 -3.16494e-18)
(-1.75041e-06 3.05088e-05 4.99921e-19)
(-0.0198903 0.0124589 -3.05513e-17)
(-0.000396298 8.91774e-05 -1.69072e-18)
(0.044211 0.072225 3.32109e-18)
(-0.00174143 -0.0191078 -2.40518e-17)
(-0.00186597 0.00879999 -3.14157e-17)
(0.00125338 0.00710555 7.61354e-18)
(-0.0314492 -0.0112401 2.09981e-17)
(-5.7968e-05 -0.000178449 -1.44991e-18)
(-0.000232832 0.000714393 -8.62882e-18)
(-0.00325467 0.00847435 2.62118e-17)
(-0.00056174 0.000292422 6.91065e-18)
(-0.000918723 -0.00188837 5.46813e-20)
(-0.0129962 -0.0138319 4.8451e-18)
(0.0294256 0.0521655 -5.74826e-18)
(0.000534513 -0.000716318 1.31859e-18)
(0.00479792 -0.0467508 3.14575e-17)
(-0.00246927 0.060916 6.64256e-17)
(-0.00216612 -0.00533077 4.63265e-19)
(0.0209174 0.0262474 4.97963e-17)
(-0.00678085 0.059668 -6.30013e-17)
(-0.00100238 -0.000578695 -3.93701e-19)
(-0.0143749 -0.00834607 6.53063e-18)
(0.00586551 -0.00864435 -9.92451e-18)
(-0.00164042 -0.0005864 1.76638e-18)
(0.000267204 -0.000507597 1.6073e-20)
(-0.00112431 0.0113961 3.02983e-17)
(-0.00052161 0.0614595 -1.88411e-17)
(0.0643962 -0.00622901 -2.69813e-17)
(-0.000669687 0.00101379 -1.26321e-17)
(-4.45021e-05 0.00088147 5.64555e-18)
(-9.39085e-06 -0.000499994 2.17406e-19)
(0.0074843 -0.00362094 -6.65452e-18)
(-0.00273065 0.00142745 -1.78027e-19)
(-0.00321696 0.00230634 -1.89966e-18)
(0.00304201 0.0143988 -2.83187e-17)
(-0.000692795 -0.0195449 -4.05096e-17)
(-7.85458e-05 0.000269274 -1.76216e-18)
(-0.0460872 -0.00565846 9.94037e-17)
(-0.00242598 -0.00997928 1.13131e-17)
(-0.00153382 0.00704323 3.40519e-17)
(-0.000752429 -0.00185499 5.14608e-19)
(0.0338491 -0.000674163 -7.50587e-17)
(0.000709031 -0.00543314 -1.20413e-18)
(-0.000187743 -4.57707e-05 2.78822e-18)
(-0.0147152 0.00699924 -9.74865e-19)
(-0.00101829 0.0147504 -1.57896e-17)
(0.000614771 -0.000533599 -1.39213e-19)
(-4.50718e-05 0.00095648 2.9987e-18)
(-0.000332388 0.000538009 1.12433e-17)
(0.00508889 -0.00700898 -4.99613e-18)
(-4.92272e-05 -0.000167623 3.7592e-19)
(0.00223329 -0.0163224 -2.63003e-18)
(-0.0427398 -0.0253886 -6.26919e-18)
(-0.00206542 0.000710198 -9.79507e-18)
(-0.00728896 -0.0302963 -2.36969e-18)
(0.000400191 -0.00408893 -1.87222e-18)
(-0.00070235 -0.00169699 -6.62551e-19)
(-0.13923 -0.0169247 4.54351e-19)
(0.0220228 0.0645652 -5.35969e-17)
(-0.0418719 -0.0407098 1.68356e-17)
(-0.000209796 0.000708888 4.48792e-18)
(0.000735896 -0.000591555 -8.58934e-20)
(-0.183141 -0.0256686 1.34938e-17)
(-0.000499577 0.00464107 1.40417e-17)
(-0.205004 -0.0551905 1.92698e-17)
(0.000652505 -0.000454534 8.34955e-19)
(-0.00060381 0.00044656 -1.62444e-18)
(0.0274532 0.00128193 6.04839e-18)
(-0.153371 -0.0849984 3.55236e-17)
(-0.00712747 -0.00450716 1.27167e-18)
(-0.0108028 -0.0267075 -3.51262e-18)
(0.000664906 0.0100605 2.86164e-17)
(-0.000688707 0.000135987 -7.11925e-18)
(-1.88679e-06 1.81112e-05 8.33165e-20)
(-0.00164553 -0.000408948 3.67666e-19)
(0.0281353 0.0435259 4.53099e-18)
(-0.000132654 4.01553e-05 -5.7163e-18)
(2.46315e-07 3.95814e-06 8.20028e-19)
(0.00859465 0.0546429 -1.42557e-17)
(0.000950383 0.00521123 1.44461e-17)
(-0.0303055 -0.000869681 -3.59809e-17)
(0.000787763 0.00688155 4.72506e-17)
(-0.00040056 1.77459e-05 -1.714e-19)
(0.014899 0.0644627 4.56353e-17)
(-6.40582e-06 8.61399e-05 -8.79196e-18)
(-0.000428139 0.00050728 4.0072e-18)
(-0.00159988 -0.000353275 3.04796e-19)
(-0.00409573 0.00531244 1.46894e-17)
(0.00134221 0.0649224 -3.17042e-17)
(-8.077e-05 0.000444845 9.29716e-18)
(5.14076e-05 0.000714133 -3.7848e-18)
(-0.000576906 0.000281936 -8.24726e-19)
(-0.000634368 0.000178513 3.05535e-18)
(-0.000405543 4.73607e-05 -6.58244e-19)
(-0.00141296 -0.000834278 -1.80748e-18)
(0.0158162 0.00169389 -2.59641e-17)
(-0.00415921 0.00559023 -4.40197e-18)
(-0.00213617 0.00208232 -1.07056e-17)
(-0.000147918 0.000515089 -7.46433e-18)
(-0.0038869 0.00585198 -1.29218e-19)
(-0.0154483 -0.00932651 2.55064e-18)
(0.00627535 -0.00776972 7.57921e-18)
(0.00109377 0.00558231 -1.14781e-17)
(-2.74359e-07 7.35003e-06 -1.00584e-18)
(2.56079e-05 -0.000483073 -2.74575e-19)
(-0.00365844 0.000655383 5.61349e-18)
(0.0031643 0.0687625 4.16755e-17)
(0.082717 0.0445008 9.43819e-17)
(0.00372845 -0.00388721 7.96348e-20)
(0.0706283 -0.00507096 -8.8691e-18)
(-1.35475e-05 0.000384529 1.22909e-17)
(-0.00309337 0.00351822 -2.6533e-18)
(-0.0322299 0.0153133 -9.73801e-18)
(0.000651667 0.0139623 4.41688e-17)
(-0.000603132 -0.000816962 1.13826e-19)
(-5.32545e-05 0.000391766 -9.25664e-19)
(0.00178478 0.0131322 -1.46239e-17)
(-0.00761395 -0.0171093 -9.14757e-18)
(-0.000181958 -5.7231e-05 -9.09845e-19)
(-7.03432e-06 0.000196877 1.37611e-18)
(-0.029339 0.0457787 -3.81564e-18)