/*--------------------------------*- C++ -*----------------------------------*\
| =========                 |                                                 |
| \\      /  F ield         | OpenFOAM: The Open Source CFD Toolbox           |
|  \\    /   O peration     | Version:  v2012                                 |
|   \\  /    A nd           | Website:  www.openfoam.com                      |
|    \\/     M anipulation  |                                                 |
\*---------------------------------------------------------------------------*/
FoamFile
{
    version     2.0;
    format      ascii;
    class       volScalarField;
    location    "600";
    object      omega_0;
}
// * * * * * * * * * * * * * * * * * * * * * * * * * * * * * * * * * * * * * //

dimensions      [0 0 -1 0 0 0 0];


internalField   nonuniform List<scalar> 
18355
(
0.168647
0.020456
0.380859
0.021015
0.0460423
0.660327
0.0218587
0.0507276
0.0222068
0.0505942
0.0255165
0.0988195
0.106465
0.244861
0.0211533
0.0202041
0.0210115
0.0238204
0.140492
0.023686
0.16435
0.0218852
0.0204776
0.667394
0.0204883
0.0221694
0.0219369
0.0210209
0.0224375
0.0263113
0.59197
0.049475
0.020373
0.0200621
0.0217271
0.0222713
0.0272131
0.0223554
0.0268429
0.0218061
0.02223
0.0261665
0.0200813
0.02044
0.0204512
0.319379
0.0209995
0.0209884
0.532161
0.0215398
0.0207206
0.263572
0.0216117
0.111213
0.0212896
0.0237236
0.0212548
0.535636
0.0222522
4.20477
0.0200725
0.0688771
0.110564
0.021752
0.0620757
0.0205515
0.0238
0.0273341
0.0200172
0.577568
0.0210807
0.0212894
0.0403348
0.0248612
0.0492712
0.020036
0.578465
0.0200458
0.0210403
0.0458099
0.023735
0.0442858
0.0200274
0.0248888
0.0507475
0.0215363
0.0225898
0.040344
0.0209035
0.040432
0.259796
0.139618
0.0431034
0.021533
0.619465
0.0220151
0.0208761
0.0216976
0.0670169
0.0218059
0.0479415
0.0209955
0.0214605
0.0196025
0.0239921
0.0202161
0.0616408
0.628761
0.0329582
0.0201531
0.020889
0.0212455
0.0326507
0.0245815
2.43105
0.0276487
0.0209636
0.0488472
0.0228473
0.0235782
0.613017
0.413509
0.213274
0.0465719
0.048016
0.668714
0.0219241
0.0210488
0.176213
0.0216424
0.0208815
0.279977
0.0212699
0.0667656
0.0876078
0.0209027
0.142166
0.604508
0.0212038
0.150186
0.025277
0.0334141
0.0209655
0.290035
0.0880002
0.0216877
4.11586
0.0196928
0.0322894
0.277629
0.0210136
0.0235073
0.0215376
0.0266799
0.0200923
0.0206048
0.0210653
0.0215175
0.0209718
0.020708
0.0241744
0.0212755
0.0201621
0.0295807
0.0252772
0.0424907
4.13372
0.186132
1.51056
0.0252475
0.0212153
0.0632022
0.0213803
0.450238
0.0214856
0.0221953
0.021177
0.0195692
0.022642
0.0292333
0.0216193
0.0388552
0.0217645
0.0210446
0.033571
0.0214417
0.0217899
0.0394267
0.0213527
0.0221016
0.38911
0.0670627
0.020487
0.0200533
0.0214153
3.05813
0.0204814
0.206986
0.0204661
0.177915
0.0213889
0.0231252
0.027056
0.021582
0.185182
0.0215681
1.54493
0.0210398
0.0203128
0.0213968
0.021536
0.484257
0.022502
0.0220978
0.0197087
0.361877
0.02929
0.0251615
0.0215834
0.0210021
0.0317999
0.0199788
0.0380059
0.024069
0.399194
0.0232922
0.0199982
0.621613
0.13883
0.0356718
0.0214803
0.0240225
0.280692
0.0199911
0.0295584
0.271435
0.0219721
0.453331
0.0245626
0.0221057
0.020485
0.0225401
0.0218037
0.0339975
0.0215633
0.0212955
0.0209902
0.506404
0.597015
0.0211938
0.0220773
0.610882
0.139223
0.0256526
0.0195736
0.079996
0.0245533
0.0218007
0.0232409
0.020829
0.276642
0.0823481
0.0614064
0.0287187
0.027764
0.0447847
0.0316125
0.072742
0.0208225
0.0212967
0.0223625
0.0201499
0.0231298
0.0252981
0.0209815
0.0215439
0.0315261
0.0208897
0.0760066
0.403677
0.0289542
0.0215608
0.0284626
0.0201385
0.0408461
0.0215199
0.03038
0.0219207
0.0294986
0.291631
0.0203461
0.0415189
0.0227326
0.0230653
0.0318535
0.0214163
0.0200382
0.071715
0.0215395
0.0335083
0.0272209
1.17639
0.0411662
0.0624698
0.0233744
0.0333028
0.0214223
0.0238217
0.0282961
0.0414779
0.247846
3.49751
0.0210808
0.0246909
0.0991275
0.0292796
0.0210763
0.0209807
0.0210013
0.0428252
3.40248
3.45375
0.244791
0.0311418
0.0249266
0.041111
0.0196815
0.021547
0.0248662
0.0213667
0.0358329
0.0216615
0.137284
0.0202386
0.0497525
0.0213631
0.0217655
0.0237441
0.118775
0.202499
0.034162
0.201427
0.0218561
0.0209134
0.0213582
0.0264426
0.0587784
0.0209342
0.0215296
0.294302
0.0218001
0.0209408
0.142569
0.0249387
0.0209959
0.021392
0.0314779
0.0223756
0.0312941
0.0200872
0.021522
0.0217685
4.18608
0.25366
0.0200611
0.0209507
0.0348735
0.0210089
0.0212851
0.0485555
0.249284
0.0341905
0.0213425
0.0220213
0.107436
0.021909
0.0844393
0.0238627
0.0202788
0.0284353
0.032981
0.0216929
0.0213861
0.0238651
0.0215933
0.0238294
0.0214101
0.0752809
0.0218028
0.0232719
0.0207598
0.0210027
0.0230233
0.0226188
0.055262
3.71627
0.26061
0.0228092
0.138289
0.0279469
0.0213832
0.0216463
0.039251
0.0213522
0.0354421
0.0216963
0.0269006
0.0410392
0.589652
0.19312
0.0669404
0.0196157
2.52219
0.021809
0.0209716
0.172182
0.0213242
0.0317456
0.0215435
0.0679416
0.0213195
0.0609865
0.422262
0.0572807
0.0212822
0.0204913
0.0592192
0.0228585
0.0211211
0.0459979
0.0330048
0.0209655
0.0397621
0.0553066
0.0204855
0.0220219
0.0324785
0.323525
0.039392
0.0217987
0.021475
0.035229
0.0213842
0.0201933
0.0212767
0.564639
3.77061
0.0202607
0.0219499
0.0215247
0.129237
0.0323967
0.0200417
0.0317502
0.0383279
0.0214761
3.26085
0.0688268
0.021802
0.0215863
0.0380447
0.136645
1.16242
0.0202339
0.2566
0.0212547
0.0202505
0.0439836
0.0230153
0.0791971
0.0405226
0.0234287
0.0255052
0.0218965
0.136399
0.0230099
0.0276274
0.0218489
0.0202072
0.0217185
0.020223
0.0683113
3.71167
0.0675827
0.0242758
0.021578
0.0218452
0.0216279
0.0234005
0.0218803
0.0201044
0.0213896
0.0408236
0.0204936
0.0218765
2.48085
0.213969
0.101119
0.021622
0.0217691
0.0326648
0.021848
0.285444
1.87974
0.02429
0.0249348
0.0257565
0.0222514
0.023762
4.02765
0.0335796
0.0220099
0.298717
0.0217212
0.200398
2.4771
0.0249442
0.0219713
3.9652
0.0209881
0.0589391
0.0502339
0.157176
0.0230025
0.0216958
0.0214624
0.434591
1.06514
0.114238
0.423133
0.0232273
0.0214526
0.024904
0.0213035
0.0239258
0.153987
0.301502
3.63646
1.16991
0.0290652
0.0457744
0.0343086
0.0210075
0.021154
0.0309119
0.0244966
0.021535
0.0213014
0.0515172
0.0208634
1.07136
0.025831
0.0660197
0.116803
0.0211604
0.024568
0.189136
0.0213846
3.38563
0.0213041
0.124487
0.0336654
0.0220063
0.0338042
0.0721606
0.0683341
0.0217368
0.0200053
0.0339157
0.0251445
0.0664218
0.0213786
0.0693
0.0208563
1.34639
0.0220103
0.0211777
0.202006
0.0251594
0.140144
0.0213
0.0253403
0.0227443
0.0892576
3.44856
0.0244009
0.0347792
0.0211438
0.0283448
0.0217173
0.0242036
3.68422
0.0204408
0.263485
0.0215285
0.0211779
0.0244475
0.285021
0.0222555
0.0775005
0.0219728
0.0336496
0.428118
0.0196948
0.0209976
0.218911
0.0395038
2.50971
0.0422287
0.0216749
0.0213073
0.0211452
0.0248797
0.0219432
0.0209271
0.107944
0.361661
0.0211612
0.2503
0.289189
0.0246069
0.467398
0.02021
0.155558
0.153413
0.0197994
0.427888
0.0373562
3.90151
0.197233
0.0211721
0.0211359
0.0213732
0.0367376
0.0420428
0.0213061
0.0219536
0.106757
0.021764
0.0383237
0.0212846
0.0355867
2.87451
0.428533
0.0300834
0.405703
0.0416052
0.506034
0.0249521
0.0209324
0.0269224
0.154595
0.0266208
0.0400735
0.0212929
0.135504
0.021543
0.0217134
3.14002
0.0214707
0.0275746
0.043756
0.072294
0.0214725
0.0212973
0.0243549
0.0258287
0.0199766
0.021987
0.0359278
0.118829
0.0232304
0.0213901
0.0438122
0.419889
0.0212413
0.37126
2.86836
0.021468
0.307699
0.0200187
0.374272
0.0213527
0.0216197
0.217514
0.0231901
0.357814
0.0230913
0.0212993
0.393785
0.0213495
0.0201326
0.021566
0.0209415
0.0281659
0.0380667
0.196501
0.0221004
3.46781
0.0233114
0.393972
0.405398
0.0220481
0.0213512
0.0253558
0.0202688
0.088106
0.0211975
0.020108
0.0201341
0.0212928
0.0213747
1.77594
0.0246424
0.0435566
0.0237268
0.024675
0.0237885
0.0240772
0.0784857
0.0204946
0.0677431
0.0468305
0.0200111
0.263951
2.87585
0.0207201
0.313125
0.0212097
0.271141
0.0335353
0.0197786
0.0341422
0.0262926
0.350985
0.0207862
0.0241753
0.432392
0.0823763
0.263055
0.021371
0.223345
0.0613031
0.149536
0.0213778
0.0228804
0.0210998
0.0214717
0.021073
0.0216405
0.0204361
0.374832
0.0296869
0.0209325
0.0200537
0.0207207
0.0217562
0.0776725
0.0602807
0.0203361
0.0258195
0.0215184
0.0215472
0.0216026
0.0209598
0.0384703
0.0200497
0.0209005
0.0217677
0.0215964
0.023329
0.0223102
1.58233
0.134263
0.024517
0.0208836
0.129331
0.0200976
0.0200576
0.0223215
0.253281
0.0241511
0.0218558
0.0201586
0.0204761
0.0252627
0.0200093
0.0265017
0.021188
0.021724
0.0210721
0.022803
0.13684
0.020925
0.0218353
0.0212605
0.159427
0.185794
0.0267671
0.0219408
0.0279867
0.0262772
0.0316059
4.11421
0.0215934
0.100553
0.0218539
1.16548
0.0222299
0.0202903
0.0201696
0.6071
0.0201038
0.0269836
0.03145
0.163504
0.0438583
0.0226591
0.0210705
0.0213516
0.021228
0.0280102
0.0876273
0.053484
0.0439107
0.0215281
0.0200065
0.0230013
0.0210737
0.0209081
0.0217782
0.0436038
0.0285779
0.0472554
0.0215225
0.0214393
0.0364612
0.0213094
0.137245
0.0439695
0.0429165
0.118702
4.18417
0.0291112
0.0209969
0.0200144
0.0216714
0.021291
0.55634
0.0419563
0.0862135
0.0203298
0.0215779
0.0235561
0.0209363
4.16872
0.0305145
0.0200541
0.0201416
0.0208546
0.0210804
0.0209417
0.0213652
0.410987
0.0200366
0.0220736
0.0203403
0.0206083
0.0210818
0.0214544
0.0262395
0.0206031
0.0252171
0.0201514
0.288014
0.465718
0.0237595
0.640081
0.0225921
0.0218918
0.0578685
0.0411745
0.0214518
0.020763
0.0204918
0.0244615
0.0219249
0.0290642
0.0321583
0.0214876
0.0220769
0.021484
1.1531
0.183384
0.0221017
0.020539
0.0247239
0.0410955
0.0211481
0.0676245
0.0208749
0.0199706
0.0246355
0.0711432
0.414147
0.279203
0.54315
0.0200469
0.0871091
0.0744784
0.0255281
0.0212213
0.0749872
0.0242489
0.159697
0.0747029
0.0209256
0.0200559
0.0214806
0.0220867
0.0200608
0.644878
0.0485192
0.0201057
0.0215096
0.0218779
0.0354664
0.0212619
0.020924
0.0285229
0.0224161
0.0211479
0.270243
0.0800099
0.0700299
0.0212764
0.0202487
0.0201218
0.0214581
0.0241104
0.0274262
0.0209088
0.0206404
0.0227292
0.19576
0.020483
0.02142
0.0672711
0.0209455
0.0207793
0.0213529
0.954746
0.0202257
0.0214477
0.0204872
0.0239955
0.0202387
0.0262139
0.125193
0.0214203
0.141279
0.0296383
0.217176
0.0535488
0.0209964
0.026332
0.0208924
0.0207637
0.0210072
0.388096
0.287723
0.0305203
0.0273485
0.653491
0.0593469
0.0226361
0.0839142
0.0562676
0.0237561
0.02009
0.259595
0.0222447
0.0206928
0.020356
2.92566
0.31542
0.210191
0.0207366
0.0743576
0.12338
0.0246337
0.0319853
0.0240792
0.0235234
0.0327118
0.268206
0.022757
0.022287
0.0248012
2.23864
1.36355
0.0212516
0.021339
0.0211886
3.86572
0.0236149
0.0218556
0.602479
0.0262174
0.038939
0.0240454
0.27405
0.0206996
1.14895
0.022081
0.0201158
0.0209978
0.0201312
0.0201247
0.0209275
0.0216874
1.5811
0.0205371
1.13942
0.0267795
0.0216716
0.0206751
0.0775822
0.0212058
0.0214955
0.023119
0.647195
0.0517178
0.0231976
0.0215245
3.65815
0.0206949
0.0436897
0.0215082
0.21489
0.0329464
0.269216
0.0267877
0.0211074
0.0321935
0.44401
0.0311258
0.0205793
0.021346
0.0349058
3.67693
0.0196423
0.0474118
0.0222438
0.0259413
0.020896
0.0200473
0.0223801
0.0221326
0.0200564
0.0393501
0.0379678
0.0251621
0.111348
0.388771
0.0222071
0.195892
0.0201889
0.0878171
3.90033
0.159879
0.020026
0.0219456
0.021487
1.16497
0.0213282
0.020876
0.0724691
0.0214923
0.0215148
0.0222449
0.0220308
0.0212532
2.64561
0.333458
0.0555854
0.0207741
0.0215094
0.118127
0.0202163
0.0348914
0.0215784
0.0214736
0.022001
0.0241935
0.274966
0.0222157
0.021473
0.26347
0.0215534
0.0217773
0.0350065
3.90572
0.264386
0.0214298
0.0212621
3.25346
0.247141
0.169655
0.0207844
0.0324202
0.19591
0.0203827
0.0399778
0.0227602
0.371265
0.0236201
0.0216307
0.0229872
0.0201099
3.59342
0.0214641
0.0205143
0.183331
0.0290533
0.0336098
0.0200787
0.0226553
0.02008
0.0197483
0.0202031
0.0222638
0.0216162
0.0217958
0.0201223
0.0217228
0.0467084
0.026871
0.023172
0.020714
0.0235124
0.0210802
0.28563
0.0216162
0.0227891
0.0213658
0.0201704
0.0217598
0.021798
0.0211801
0.0212373
0.0209311
0.0202131
0.654377
0.206188
0.0212497
3.62864
0.0342135
0.0215616
0.0216934
0.0221863
0.67009
0.0222926
0.0201851
0.0200971
0.0200319
0.191926
0.0212954
0.0202999
0.152367
0.020013
0.019932
0.0289807
0.0333156
0.0829097
0.120659
1.61787
0.0202863
0.776248
0.0257449
0.0212336
0.0204445
0.0244435
0.0212877
0.0306133
0.0551433
0.023008
0.0219475
3.16284
0.113175
0.240917
1.10194
0.0359469
0.0906498
0.0205673
1.57381
0.741553
0.0201258
0.735443
0.0207334
0.0223722
0.118161
0.0207848
0.0311948
0.0254061
0.0228622
0.0219569
0.0388381
0.0213799
1.1363
0.0212435
0.0201768
0.675782
0.0199726
0.021929
0.0218501
0.0505015
0.0212111
0.0214486
0.0230035
0.0402503
0.0212053
0.0212893
0.0202217
0.0239794
0.0211871
0.0223719
0.0360731
0.0209881
0.0260035
0.0216928
0.0239402
0.0230711
0.0209474
0.0219236
0.0797469
0.0215465
0.021789
0.0251534
0.280999
0.0222572
0.0211331
0.0214276
0.0264952
0.0837084
0.0223185
0.0210278
0.0209827
0.0205836
0.0197317
0.0200888
0.0254995
0.028798
0.0519042
0.0215215
0.369079
0.0206881
0.0214041
3.81829
0.0406169
0.0199845
0.0721843
0.021492
0.0210258
0.352932
0.0217698
0.0435974
0.0198041
0.134461
0.0205759
0.0200256
0.0202666
0.0342678
0.0927057
0.0215196
0.12957
0.0202435
0.0209671
0.0207581
0.121404
0.0211323
0.02068
0.0235161
0.0227074
0.0212779
0.0214382
0.0208744
0.0218118
0.021505
0.0208835
0.0234312
0.0200821
0.115817
0.0577178
0.0202051
0.0627803
0.0261928
0.0209488
0.0207008
0.0219586
0.0208099
0.0289416
0.024818
0.0438546
0.0435975
0.0216413
0.0599326
0.134682
0.0212255
0.0221221
0.0716052
0.0234814
0.277327
0.0202253
0.0212577
0.0222479
0.0229104
0.0217187
0.0257851
0.0209559
0.024711
0.0212559
0.0235968
0.020636
0.0980798
0.0214394
0.0241511
0.0276583
0.0211667
0.398985
0.419503
0.0242228
0.0260178
0.0292931
0.0199798
0.0582017
0.0214229
0.034567
0.480403
0.32795
0.0452532
0.0249493
0.0272378
0.0211215
0.0315179
0.0204825
3.68524
0.0277806
0.0212928
0.0208904
0.0621864
0.0396845
0.0212298
0.021226
3.8593
0.0217746
0.0206697
0.765107
0.0468392
0.020115
0.126953
0.0203263
0.0379329
0.0492579
0.0212713
0.0214357
0.0229247
0.166011
0.0208547
0.0265439
0.0214404
0.0212798
0.0208464
0.171685
0.0218737
0.0215065
0.0213246
0.116869
0.0267925
0.020872
0.0198418
0.086535
0.0211571
0.0204746
0.120455
4.07318
0.0219219
1.86828
0.0229307
0.0426615
0.0221625
0.052383
0.42865
0.0222454
0.0208216
0.0203416
0.0244447
0.0212083
0.570849
0.424119
0.0205492
0.0222576
0.0203557
0.0201279
2.90529
0.0212157
0.0223949
0.0227937
0.0660729
0.0214545
0.0216734
0.0248311
0.4366
0.021596
0.0215432
0.0204552
0.0205902
0.0241729
0.0405149
0.021564
0.0211312
0.0212683
0.0211898
0.0203527
2.39573
0.0216784
0.021254
0.0211043
0.0519448
0.0203858
0.0204768
0.0361624
0.0209604
0.0377038
0.0212643
0.0214347
0.224182
3.79402
0.90305
0.168045
0.0235054
0.021788
3.20604
0.0206772
0.0248197
0.0200704
0.761673
0.0195866
0.0243543
0.0214629
0.242493
0.0423655
0.0296561
3.39128
0.0224684
0.0606199
0.0217118
0.0219045
3.08596
0.0339401
0.0211827
0.0203173
0.0237552
0.0276806
0.0214275
0.0212727
0.0206722
0.0200338
0.164533
0.27244
0.0217028
0.0223519
3.91056
0.0954769
0.0233491
0.0224072
0.0231539
0.024354
0.0212226
0.0220913
0.0817466
0.0209192
0.0203441
0.0215021
0.0861212
0.161837
0.0257603
0.0215285
0.0215845
0.0270539
0.0213481
0.0258401
0.0444297
0.0774276
0.0242357
0.210556
0.0201173
0.0212333
0.0218421
0.0200963
0.0216988
0.020874
0.108719
0.0210147
0.046397
0.0215335
0.0207442
0.0205067
0.0366125
0.022312
0.0404487
0.0600694
0.0201529
3.03262
0.0248095
0.0205061
0.0198854
0.215621
0.614577
0.0199067
0.0208862
0.0208718
0.0220863
0.165026
0.105812
0.0232098
0.022106
0.122321
3.39026
0.0219445
0.021229
2.90319
0.0239247
0.255079
0.0231012
0.0211554
0.0543454
0.027013
3.7736
0.0280675
0.263805
0.0204109
0.0209781
0.021546
0.0216868
0.0238813
0.0216652
0.0215481
0.0208123
0.0218121
0.0219391
0.0219374
0.021733
0.0229356
0.021856
0.0213441
0.0209926
0.0360188
0.0252137
0.0209282
0.0215128
0.157428
0.0218221
0.022335
0.0219497
0.111837
0.0204784
0.0364984
0.0229339
0.0201837
0.0212428
3.49933
0.0554747
0.0219159
0.0218848
0.0234403
0.0404261
0.0208829
0.0281338
0.04312
0.0210621
0.0880836
0.0209148
0.0213381
0.0218217
0.0218493
0.0287875
0.153338
3.45633
0.0243808
0.0201931
0.0215153
0.0211243
0.0539425
0.0219474
0.0271041
0.0208394
0.0213757
0.0213614
0.0621408
0.0210306
0.0215692
0.0212697
0.11893
0.0204868
1.87768
0.0204417
0.0234916
0.0214002
0.029009
0.0209984
0.0236821
0.2076
0.0339683
0.0202027
0.0364518
0.0215093
0.0212159
2.95789
0.368505
0.0203378
0.0212531
0.0237604
0.0202621
0.0213178
0.021869
0.0216949
0.0230615
0.0460781
0.0221575
0.0265506
0.0334955
0.0216679
0.0210045
0.0211832
0.0240234
0.0295461
0.0214386
3.77416
0.0207851
3.27612
0.0348798
0.0202636
0.020776
0.0207512
0.237134
0.0215599
0.023313
0.0214734
0.0215486
0.470756
0.0230812
0.0284998
0.0216522
0.0214592
0.0227522
0.0212354
0.0230728
0.0213721
0.0235496
0.0219757
0.0217969
0.638474
0.0245683
0.437561
0.0210051
0.0279623
0.0224781
0.205728
0.0630994
0.790135
0.0223757
0.0200335
0.038212
0.020784
0.446472
0.0221551
0.0402039
0.0223174
3.50619
2.6518
0.023392
0.0286667
0.0207847
0.0205525
0.0218961
0.0200068
0.0217235
0.0230762
0.0208059
0.0260758
0.0466169
0.185871
0.0209205
0.0911471
0.0201011
0.0211946
0.0211469
0.0763221
0.0217001
0.0633759
0.0218497
0.0210957
2.50661
0.0208933
0.0231282
0.0210561
0.0238722
0.776991
0.0276229
2.28227
0.0214283
0.062202
0.0230589
0.0211254
0.0211604
0.0268555
0.0245525
0.0212802
0.0227951
0.0213314
0.64685
0.0207531
4.10727
0.57667
0.0656436
0.0254173
0.100466
0.0348867
0.0200044
0.46481
0.0211933
1.1389
0.0218008
0.0227079
0.274901
0.269748
0.0274352
0.909806
0.0213883
0.295529
0.0196622
0.589821
0.0201593
0.0225543
0.0404574
0.0219189
0.0207542
0.0219471
0.0212787
0.0357069
0.227161
0.035707
0.0310365
0.0209757
0.209881
0.021443
0.0220511
0.0210832
0.0211443
0.452801
0.0216258
0.0205944
0.0344242
0.0218094
0.280821
0.0743243
0.0212722
0.0443573
0.0355369
0.020898
0.0214361
0.023903
0.0203443
0.0482009
0.0296239
0.0224714
0.0227647
0.0204736
0.0217914
0.0504498
0.0219002
0.0214461
0.0222935
0.0201842
0.0201259
0.323758
0.0276288
3.59643
0.0272708
0.0460426
0.0264101
0.0211217
0.027632
0.020856
0.0209883
0.126574
0.0245217
0.0265498
0.047411
0.0221204
0.894135
1.57694
0.0210916
0.023687
0.0306076
2.66595
0.0203318
0.0205275
0.021665
0.0252598
0.129473
0.0249656
0.0238876
0.0217536
0.0211766
0.0204146
0.291992
0.0233832
0.0226445
0.446033
0.0216302
0.0231425
0.0242231
0.0215125
0.0212416
0.0210373
0.0464483
0.0956986
0.0217944
0.0230378
1.10703
0.0209455
0.0220073
0.023385
0.0215859
0.32302
0.0799144
0.0383402
0.080373
0.176582
0.0227645
0.0208563
0.142352
0.0223932
0.0271295
0.0211747
0.0201948
0.274463
0.52729
0.0210848
0.0207975
0.0285897
0.0366894
0.0244946
0.0201656
2.83152
0.0229864
0.0350865
0.0201421
0.0266359
0.0196602
0.0226792
0.0259566
0.0211764
3.7955
0.021981
0.0373164
0.0918357
0.220198
0.0830185
0.0212011
0.0530318
0.0245193
0.0244216
0.0220658
0.0222094
0.0214397
0.0227509
0.0366965
0.0228787
0.0373639
0.0208383
0.207188
0.0203061
0.0219036
2.60789
0.0247172
0.201523
0.0231821
0.0221211
3.8059
2.94994
0.0208788
2.83502
0.0378265
0.0207382
0.0199417
0.204542
2.3513
0.0205386
0.0202948
0.0212805
0.0202287
3.26602
1.89142
0.0195665
0.0198604
0.0208739
0.60133
0.0420656
0.279045
0.0201964
3.80181
0.021574
0.0634776
2.42186
0.0242332
0.0205646
0.0206913
0.279177
0.0203643
0.0210645
0.0201993
0.0266288
0.0232056
3.46305
0.0261439
0.0217571
0.0211993
0.0263721
0.194073
0.0483977
0.0211249
0.0209106
0.138768
0.0446552
0.0221508
0.513505
0.0276784
0.0229041
3.068
0.0227969
0.0263365
0.0218231
0.260974
0.0214088
0.0217999
0.209163
0.0274646
0.0210548
0.0213563
0.0196649
0.0412792
0.0985292
0.020984
0.0202862
0.0220117
0.0554495
0.0227854
0.0202084
0.0212476
0.0207531
0.0225866
0.0386658
0.021875
0.0209874
2.97124
0.021114
0.399905
0.0314934
0.0343026
0.0232305
0.0220625
0.0214783
0.477299
0.0822196
0.0574024
3.33996
0.0306665
0.0208871
3.50358
0.02022
0.0609242
3.36246
0.0225843
0.0211336
0.023892
0.0617152
0.0212017
0.0210334
1.70902
0.0212693
0.0234932
0.0215415
0.021909
0.0203645
0.070248
0.104833
0.0201372
0.0210295
0.641699
0.0211934
0.0203653
0.0210038
0.0209072
0.18801
0.0232546
0.0230411
0.0226025
0.02198
0.0205584
0.0378698
0.0843801
0.0266943
3.25791
0.0237556
0.0236114
3.28732
0.0208963
0.0203829
0.021233
0.0208946
0.0217994
0.01982
0.0222859
3.37302
0.0212608
0.0210997
0.0229985
0.0208965
0.0323166
0.021662
2.766
0.177785
0.0277401
0.0295946
0.0410381
0.0239206
0.0211847
0.0231155
0.0209558
0.0224158
0.0216674
0.0217164
3.44057
0.0203014
0.0213249
0.041814
0.163836
0.0216891
0.0208538
0.190754
0.0224061
0.0272876
0.0213172
0.0208657
0.021444
0.313671
0.0214485
0.168349
0.0491773
0.0249548
0.0208443
0.0210722
0.0262368
0.243204
0.0201451
0.043475
0.021104
2.61306
0.45097
0.0221958
0.166324
0.0215437
0.0230368
0.0239017
3.39921
0.0231311
0.0254923
0.026655
0.0655988
0.0216373
0.0396633
0.0214519
0.0467815
0.131235
0.158197
0.0209849
0.0295262
0.26776
0.679472
0.0232735
0.0240163
0.198612
0.239326
0.0208772
0.047438
0.0211994
0.0241738
0.021452
0.0225361
0.0224137
0.751202
0.0216057
0.0218103
0.0514469
0.0776444
1.12285
0.104869
0.627178
0.0208311
0.207571
0.0558563
0.0210496
0.021126
0.314529
0.0234696
0.0214873
0.0212524
0.0427022
0.0207129
0.0212613
4.05816
0.0214536
0.0217286
0.0210459
0.0214055
0.0226011
0.0205106
3.11454
0.0242735
0.0228265
0.0205874
0.0296712
0.914305
0.0209426
0.0217642
0.227951
0.173868
0.0213581
0.0242447
0.0207228
0.0209404
0.041435
0.160662
0.0209418
0.0210761
0.211774
0.0727352
0.380045
0.0274376
0.0223671
0.0662622
0.0207852
0.0248529
0.0241419
0.0206479
1.2884
0.523203
0.0370635
0.0253136
1.30233
0.0199417
0.0198583
0.022552
0.0361076
0.545761
0.0203539
0.0384939
0.860092
3.94921
0.0216324
0.0225416
3.14339
0.0210017
0.0240229
0.232923
0.0209705
0.0211976
0.0205586
0.730005
0.0209866
0.0244486
0.0218338
0.0353622
0.0280212
0.0547072
0.0211921
0.0211387
0.0288346
0.021695
0.0258094
0.0221969
0.085126
0.100328
0.0209975
0.0213371
3.26006
3.85795
0.140267
0.0207687
0.0213628
0.0231932
0.0215506
0.0212753
0.0214356
0.0227945
0.021908
0.0207241
0.0208102
0.0577229
0.0233456
0.0292655
0.131438
0.0581537
0.0446294
0.0245348
0.0551132
0.113552
0.0297698
0.0227507
0.0264058
0.0210763
0.867542
0.0207038
0.0202899
0.0207909
0.448574
0.0209405
0.44781
0.0217123
0.0201293
0.0494302
0.0211791
0.0211509
0.021172
0.0449597
0.160209
0.0216284
0.0206395
0.0227262
1.09143
0.0439856
0.273256
0.021168
0.0344671
0.0215303
0.0215375
0.0201835
0.020741
0.0213621
0.0221626
0.277533
0.022242
0.0222425
0.102912
0.662296
0.109959
0.0209008
0.086018
0.0312389
0.596784
0.0205709
0.0212375
0.0251129
0.055073
0.019815
0.0213502
0.0207343
0.0203639
0.1079
0.0224465
0.0654906
0.022233
0.0197972
0.0243742
0.0214355
0.184165
0.0210191
0.0261591
0.0217834
0.0270329
0.022065
0.0545647
0.25498
0.021239
0.0482999
3.98685
0.0211246
0.021512
0.0385907
0.0197585
2.82752
0.0307028
0.0211103
0.0511412
0.020013
0.0216418
0.021466
0.0209151
0.0202147
0.0221698
0.020819
0.020729
0.0215438
0.0218664
0.044006
0.0202172
0.119577
0.0205631
0.0209102
0.0274168
0.0468415
0.0220075
0.0197643
0.0212011
0.0226671
0.0442594
1.56114
0.0315783
0.0219231
0.0219666
0.0207945
0.0295606
0.0209432
0.0223666
4.08177
0.562872
0.0416645
0.0210837
0.0217822
0.0221656
0.019775
0.0562727
0.0201172
0.10402
0.0219758
0.157597
0.0265802
4.10665
0.0215767
0.0621984
2.20149
0.312143
0.203757
0.0254737
0.260864
3.82134
0.0218678
0.0325109
3.7493
0.0207919
0.0207613
0.0213347
0.024276
0.261579
0.0214489
0.0246222
0.601719
0.0195695
0.021466
3.75349
0.773816
0.0820052
0.203413
0.442179
0.0221569
0.0654258
0.0233571
0.0237333
0.645663
0.0227653
3.03509
0.0972537
0.0237515
0.0214023
0.0224675
0.0258959
0.0205788
2.38627
0.019808
0.0212491
0.0213218
0.385514
3.5032
0.0417297
0.0212759
0.0222462
0.0205496
3.20559
0.0208481
0.0220787
0.0236235
0.083402
0.0207099
0.0664871
2.31012
0.279807
0.0221235
0.147115
0.0206396
0.593319
0.0198435
0.117793
0.0234062
0.0544074
0.0263415
0.561455
0.109545
0.0227499
0.0229292
0.0306646
0.023856
0.0211076
0.0207202
0.0246016
0.0218657
0.152702
0.0197192
0.0210837
0.0214326
0.0214055
0.153187
0.0207734
0.0201347
0.0215079
0.24818
0.0273713
0.049408
0.022715
0.0225706
0.0724258
0.0207051
0.0213155
0.0689656
0.0404031
0.0201369
0.0385603
0.0229913
0.139522
0.0212526
0.0290558
0.0236838
0.0212181
0.0202367
0.0201806
0.0211651
0.0210774
1.48969
0.0612851
0.0215313
0.0213244
0.0211355
0.0224804
0.026709
3.45891
0.0219258
0.0303422
0.0245318
0.262886
0.0216039
0.0439568
0.0212996
0.0212603
0.0286893
0.0212236
0.0214326
0.0207911
0.0206991
3.75488
0.0213874
0.0207652
0.164929
0.441353
0.0395936
0.0230449
0.0201829
0.0241233
2.76374
0.0233285
0.0216855
0.0215559
1.45595
0.0218682
0.0213505
0.382397
0.0209016
0.0250483
0.0233185
0.0215306
0.0201594
0.0496127
0.0259244
0.0206612
0.0212843
0.021474
0.0209055
0.0534275
0.0231655
0.021399
0.0197842
0.0219557
0.0201856
0.0212434
0.0632706
0.0206809
0.0244958
0.0234486
2.72531
0.0197887
0.0224745
0.0485107
0.0269788
0.153523
0.0210286
0.02153
0.154784
0.0214058
0.0202731
0.0396079
0.0214017
2.35788
1.14577
0.0550806
3.86458
0.0214178
0.0279352
0.333389
0.0212442
0.0200675
0.692705
0.511617
0.0209021
0.0201356
0.022719
0.0209488
0.365355
0.0621257
1.14974
0.0214804
0.0216379
0.0212219
0.0211713
3.17298
0.0552516
3.50347
0.0247473
0.0223239
1.9173
0.0213381
0.0209004
0.0237307
0.0209341
0.021851
0.269505
0.0197779
0.43073
0.0219552
0.0220711
0.0213974
0.0263506
0.0209307
3.19099
0.0207324
0.0212027
0.0226117
0.0201648
3.03197
0.0247188
0.0254634
2.34209
0.283457
0.0340865
3.4108
0.0213649
2.7909
0.0268323
0.0207912
0.0223535
0.0215977
0.0816241
3.33201
0.0214893
0.0235735
0.0499046
0.0210744
0.0206014
0.023639
2.90772
0.129053
0.0214972
0.0221248
0.0905081
0.023246
0.0565759
0.0563001
0.0677647
0.0201494
4.11588
0.0215711
0.0402165
0.0588193
0.0342519
3.8223
3.51339
3.20374
0.0203803
0.756663
0.0203042
0.0197925
1.15821
0.0198237
0.0221802
0.021149
0.063706
0.0206471
0.12085
0.0201684
0.038455
0.437468
0.0261792
0.025082
0.0766356
0.0218152
0.0202504
0.0218599
0.0810154
0.0238367
0.119379
0.0214205
0.0263139
0.021712
0.155339
0.02142
0.0215902
0.0213729
0.276374
0.0305364
0.0214926
2.9084
0.0211005
0.0214677
0.0243479
1.34574
0.0213978
3.85434
0.0218793
3.04873
0.0214147
0.0398233
0.020993
0.0469187
0.0214289
0.0626256
0.0248292
0.0515014
0.0209
0.0216758
3.43653
0.0203818
0.024675
0.029071
0.0201417
0.0692725
3.82548
0.117362
0.022188
0.0197922
0.0211911
0.11166
0.0235369
3.66069
0.0241414
0.207728
0.0215216
0.466492
0.0205633
0.0336136
0.0972187
0.0230737
0.148834
0.0233403
2.57238
0.156601
0.0208237
0.95639
0.0226232
0.0211459
0.0229089
0.079411
0.0232844
0.154489
0.0242383
0.0946066
0.0398854
0.0538626
0.0429086
2.8125
0.0214534
0.021526
2.73959
2.64295
0.0360834
0.0235497
2.92651
0.86475
0.0215927
0.0214275
0.0212134
0.792613
0.0207455
0.0209468
0.0330036
0.0552159
0.0198457
0.0206307
0.0222046
3.89333
0.0205279
0.0245044
0.01985
0.107955
0.0242346
0.857516
0.0218301
0.0206816
0.0213357
0.0203202
0.657691
0.0373038
1.42455
0.0213301
0.0289125
0.0202125
0.250383
0.141802
0.0447615
0.020845
0.114425
0.0208942
0.0215774
3.56252
0.0210814
0.0242881
0.0565645
0.0201517
0.0942452
0.0207921
0.0198629
0.0215492
0.142382
0.0208237
3.82398
0.103583
0.251044
0.334929
0.0207234
0.656465
0.0544461
3.80771
0.0366948
2.43232
0.177997
0.0215599
0.0372474
0.0216797
0.0326769
0.0213446
0.0232341
0.0212108
0.0260541
0.238814
3.87631
0.0245649
0.0244704
0.444154
0.287001
0.0212098
0.0215847
0.561896
0.0357453
0.0204925
2.03433
0.0375642
0.0222122
0.0204458
0.0224344
3.65075
0.0216179
0.0521329
0.0196721
0.0717015
3.68681
0.0915164
0.0221807
0.0216255
0.0211787
0.0212841
0.0214462
0.0256063
0.0222713
0.021586
3.63969
0.0208438
0.0215545
0.0210663
0.321005
3.82532
0.0212519
0.0214984
2.49235
0.0205012
3.91479
0.0215221
0.0213678
0.0197696
0.0216516
0.0206304
0.0229779
0.0206451
0.165613
0.0218737
1.04293
0.021358
0.183621
0.0214783
0.0246194
0.209909
0.182968
0.0211185
0.0214474
0.0353103
0.0197608
0.104641
0.047213
0.0226074
0.0207702
0.0212395
0.0203541
0.0517841
0.219494
0.0439954
0.0820357
0.042006
0.0217811
0.0211904
0.0205468
0.201339
3.27422
0.022434
0.0211367
0.0208581
0.0274608
0.0213833
3.21957
2.34031
0.031557
0.0202874
2.37915
0.110478
0.0214454
0.0390026
0.0220391
0.476622
0.0321838
0.0322395
0.0321063
1.21873
0.032691
3.52809
0.0208992
0.0205432
0.0207118
0.0203596
0.0214938
0.0287337
0.020637
0.025847
0.0200055
0.324239
0.0212376
0.0304086
2.58481
0.0220957
0.0198257
0.0325187
3.83081
0.0212576
0.0206212
0.168686
3.93625
1.40609
0.0219387
0.0197822
3.26258
0.106685
0.0240125
0.0485895
0.0213887
0.0346839
0.0214936
0.105814
0.02071
0.021329
0.0626234
0.0204375
0.0233474
3.57583
0.0591688
0.0206703
0.0227498
0.0207863
2.22853
0.0244113
0.0263204
0.0214295
0.0208599
0.104029
0.0318444
0.0211592
0.021299
0.0197703
0.0232903
0.0206719
0.0231072
0.190156
3.05059
0.0240264
0.0395766
0.0208608
0.0484738
0.0212259
0.0215213
0.0208376
0.295152
0.045154
0.0201294
0.0232394
0.800229
0.0370728
3.75238
0.0461791
0.0212985
0.0208178
0.0280123
0.0233228
3.82946
0.0205924
3.16249
3.83466
0.0209074
0.0375283
3.61023
0.0268608
0.295405
0.0894564
0.0218725
3.85805
0.0258175
0.0207924
2.97845
3.22466
0.0817839
0.0216842
3.40955
2.20972
0.0213444
0.168726
3.44421
0.0213843
0.0207226
0.0218223
0.020041
0.021607
0.665853
4.03897
0.0214256
0.0294584
2.92845
2.87311
0.0359057
0.0450919
0.0210769
0.0429457
3.89439
0.0625005
2.618
3.84049
0.0212605
0.0214309
0.0210538
0.0226782
3.862
3.34041
0.0212373
0.0353722
3.93028
0.0921435
0.0587136
0.0211394
0.0214681
0.0219519
2.09654
0.022413
0.03538
0.0315378
0.0220326
0.0651931
0.0235912
0.0612932
0.122716
3.81383
0.0212225
0.0212073
0.0227916
0.0355023
0.258606
1.4711
0.0218795
2.41128
3.89303
0.0345143
0.0315239
3.63833
0.26046
0.334601
3.04797
0.0213284
0.271462
1.13423
0.0308877
0.0281464
0.108985
0.0227813
0.0961767
0.0233416
0.0219715
0.0199911
0.0215523
0.0208919
0.354113
0.0540358