/*--------------------------------*- C++ -*----------------------------------*\
| =========                 |                                                 |
| \\      /  F ield         | OpenFOAM: The Open Source CFD Toolbox           |
|  \\    /   O peration     | Version:  v2012                                 |
|   \\  /    A nd           | Website:  www.openfoam.com                      |
|    \\/     M anipulation  |                                                 |
\*---------------------------------------------------------------------------*/
FoamFile
{
    version     2.0;
    format      ascii;
    class       pointVectorField;
    location    "600";
    object      pointDisplacement;
}
// * * * * * * * * * * * * * * * * * * * * * * * * * * * * * * * * * * * * * //

dimensions      [0 1 0 0 0 0 0];


internalField   nonuniform List<vector> 
19220
(
(0 0 0)
(0 1.53863e-06 0)
(0 1.53863e-06 0)
(0 0 0)
(0 1.53863e-06 0)
(0 1.53863e-06 0)
(0 0 0)
(0 0 0)
(0 0 0)
(0 0 0)
(0 0 0)
(0 0 0)
(0 0 0)
(0 0 0)
(0 0 0)
(0 0 0)
(0 0 0)
(0 0 0)
(0 0 0)
(0 0 0)
(0 0 0)
(0 0 0)
(0 0 0)
(0 0 0)
(0 0 0)
(0 0 0)
(0 0 0)
(0 0 0)
(0 0 0)
(0 0 0)
(0 0 0)
(0 0 0)
(0 0 0)
(0 0 0)
(0 0 0)
(0 0 0)
(0 0 0)
(0 0 0)
(0 0 0)
(0 0 0)
(0 0 0)
(0 0 0)
(0 0 0)
(0 0 0)
(0 0 0)
(0 0 0)
(0 0 0)
(0 0 0)
(0 0 0)
(0 0 0)
(0 0 0)
(0 0 0)
(0 0 0)
(0 0 0)
(0 0 0)
(0 0 0)
(0 0 0)
(0 0 0)
(0 0 0)
(0 0 0)
(0 0 0)
(0 0 0)
(0 0 0)
(0 0 0)
(0 0 0)
(0 0 0)
(0 0 0)
(0 0 0)
(0 0 0)
(0 0 0)
(0 0 0)
(0 0 0)
(0 0 0)
(0 0 0)
(0 0 0)
(0 0 0)
(0 0 0)
(0 0 0)
(0 0 0)
(0 0 0)
(0 0 0)
(0 0 0)
(0 0 0)
(0 0 0)
(0 0 0)
(0 0 0)
(0 0 0)
(0 0 0)
(0 0 0)
(0 0 0)
(0 0 0)
(0 0 0)
(0 0 0)
(0 0 0)
(0 0 0)
(0 1.53863e-06 0)
(0 1.53863e-06 0)
(0 1.53863e-06 0)
(0 1.53863e-06 0)
(0 1.53863e-06 0)
(0 1.53863e-06 0)
(0 1.53863e-06 0)
(0 1.53863e-06 0)
(0 1.53863e-06 0)
(0 1.53863e-06 0)
(0 1.53863e-06 0)
(0 1.53863e-06 0)
(0 1.53863e-06 0)
(0 1.53863e-06 0)
(0 1.53863e-06 0)
(0 1.53863e-06 0)
(0 1.53863e-06 0)
(0 1.53863e-06 0)
(0 1.53863e-06 0)
(0 1.53863e-06 0)
(0 1.53863e-06 0)
(0 1.53863e-06 0)
(0 1.53863e-06 0)
(0 1.53863e-06 0)
(0 1.53863e-06 0)
(0 1.53863e-06 0)
(0 1.53863e-06 0)
(0 1.53863e-06 0)
(0 1.53863e-06 0)
(0 1.53863e-06 0)
(0 1.53863e-06 0)
(0 1.53863e-06 0)
(0 1.53863e-06 0)
(0 1.53863e-06 0)
(0 1.53863e-06 0)
(0 1.53863e-06 0)
(0 1.53863e-06 0)
(0 1.53863e-06 0)
(0 1.53863e-06 0)
(0 1.53863e-06 0)
(0 1.53863e-06 0)
(0 1.53863e-06 0)
(0 1.53863e-06 0)
(0 1.53863e-06 0)
(0 1.53863e-06 0)
(0 1.53863e-06 0)
(0 1.53863e-06 0)
(0 1.53863e-06 0)
(0 1.53863e-06 0)
(0 1.53863e-06 0)
(0 1.53863e-06 0)
(0 1.53863e-06 0)
(0 1.53863e-06 0)
(0 1.53863e-06 0)
(0 1.53863e-06 0)
(0 1.53863e-06 0)
(0 1.53863e-06 0)
(0 1.53863e-06 0)
(0 1.53863e-06 0)
(0 1.53863e-06 0)
(0 1.53863e-06 0)
(0 1.53863e-06 0)
(0 1.53863e-06 0)
(0 1.53863e-06 0)
(0 1.53863e-06 0)
(0 1.53863e-06 0)
(0 1.53863e-06 0)
(0 1.53863e-06 0)
(0 1.53863e-06 0)
(0 1.53863e-06 0)
(0 1.53863e-06 0)
(0 1.53863e-06 0)
(0 1.53863e-06 0)
(0 1.53863e-06 0)
(0 1.53863e-06 0)
(0 1.53863e-06 0)
(0 1.53863e-06 0)
(0 1.53863e-06 0)
(0 1.53863e-06 0)
(0 1.53863e-06 0)
(0 1.53863e-06 0)
(0 1.53863e-06 0)
(0 1.53863e-06 0)
(0 1.53863e-06 0)
(0 1.53863e-06 0)
(0 1.53863e-06 0)
(0 1.53863e-06 0)
(0 1.53863e-06 0)
(0 1.53863e-06 0)
(0 1.53863e-06 0)
(0 1.53863e-06 0)
(0 1.53863e-06 0)
(0 1.53863e-06 0)
(0 1.53863e-06 0)
(0 1.53863e-06 0)
(0 1.53863e-06 0)
(0 1.53863e-06 0)
(0 1.53863e-06 0)
(0 1.53863e-06 0)
(0 1.53863e-06 0)
(0 1.53863e-06 0)
(0 1.53863e-06 0)
(0 1.53863e-06 0)
(0 1.53863e-06 0)
(0 1.53863e-06 0)
(0 1.53863e-06 0)
(0 1.53863e-06 0)
(0 1.53863e-06 0)
(0 1.53863e-06 0)
(0 1.53863e-06 0)
(0 1.53863e-06 0)
(0 1.53863e-06 0)
(0 1.53863e-06 0)
(0 1.53863e-06 0)
(0 1.53863e-06 0)
(0 1.53863e-06 0)
(0 1.53863e-06 0)
(0 1.53863e-06 0)
(0 1.53863e-06 0)
(0 1.53863e-06 0)
(0 1.53863e-06 0)
(0 1.53863e-06 0)
(0 1.53863e-06 0)
(0 1.53863e-06 0)
(0 1.53863e-06 0)
(0 1.53863e-06 0)
(0 1.53863e-06 0)
(0 1.53863e-06 0)
(0 0 0)
(0 0 0)
(0 0 0)
(0 0 0)
(0 0 0)
(0 0 0)
(0 0 0)
(0 0 0)
(0 0 0)
(0 0 0)
(0 0 0)
(0 0 0)
(0 0 0)
(0 0 0)
(0 0 0)
(0 0 0)
(0 0 0)
(0 0 0)
(0 0 0)
(0 0 0)
(0 0 0)
(0 0 0)
(0 0 0)
(0 0 0)
(0 0 0)
(0 0 0)
(0 0 0)
(0 0 0)
(0 0 0)
(0 0 0)
(0 0 0)
(0 0 0)
(0 0 0)
(0 0 0)
(0 0 0)
(0 0 0)
(0 0 0)
(0 0 0)
(0 0 0)
(0 0 0)
(0 0 0)
(0 0 0)
(0 0 0)
(0 0 0)
(0 0 0)
(0 0 0)
(0 0 0)
(0 0 0)
(0 0 0)
(0 0 0)
(0 0 0)
(0 0 0)
(0 0 0)
(0 0 0)
(0 0 0)
(0 0 0)
(0 0 0)
(0 0 0)
(0 0 0)
(0 0 0)
(0 0 0)
(0 0 0)
(0 0 0)
(0 0 0)
(0 0 0)
(0 0 0)
(0 0 0)
(0 0 0)
(0 0 0)
(0 0 0)
(0 0 0)
(0 0 0)
(0 0 0)
(0 0 0)
(0 0 0)
(0 0 0)
(0 0 0)
(0 0 0)
(0 0 0)
(0 0 0)
(0 0 0)
(0 0 0)
(0 0 0)
(0 0 0)
(0 0 0)
(0 0 0)
(0 0 0)
(0 0 0)
(0 0 0)
(0 1.53863e-06 0)
(0 1.53863e-06 0)
(0 1.53863e-06 0)
(0 1.53863e-06 0)
(0 1.53863e-06 0)
(0 1.53863e-06 0)
(0 1.53863e-06 0)
(0 1.53863e-06 0)
(0 1.53863e-06 0)
(0 1.53863e-06 0)
(0 1.53863e-06 0)
(0 1.53863e-06 0)
(0 1.53863e-06 0)
(0 1.53863e-06 0)
(0 1.53863e-06 0)
(0 1.53863e-06 0)
(0 1.53863e-06 0)
(0 1.53863e-06 0)
(0 1.53863e-06 0)
(0 1.53863e-06 0)
(0 1.53863e-06 0)
(0 1.53863e-06 0)
(0 1.53863e-06 0)
(0 1.53863e-06 0)
(0 1.53863e-06 0)
(0 1.53863e-06 0)
(0 1.53863e-06 0)
(0 1.53863e-06 0)
(0 1.53863e-06 0)
(0 1.53863e-06 0)
(0 1.53863e-06 0)
(0 1.53863e-06 0)
(0 1.53863e-06 0)
(0 1.53863e-06 0)
(0 1.53863e-06 0)
(0 1.53863e-06 0)
(0 1.53863e-06 0)
(0 1.53863e-06 0)
(0 1.53863e-06 0)
(0 1.53863e-06 0)
(0 1.53863e-06 0)
(0 1.53863e-06 0)
(0 1.53863e-06 0)
(0 1.53863e-06 0)
(0 1.53863e-06 0)
(0 1.53863e-06 0)
(0 1.53863e-06 0)
(0 1.53863e-06 0)
(0 1.53863e-06 0)
(0 1.53863e-06 0)
(0 1.53863e-06 0)
(0 1.53863e-06 0)
(0 1.53863e-06 0)
(0 1.53863e-06 0)
(0 1.53863e-06 0)
(0 1.53863e-06 0)
(0 1.53863e-06 0)
(0 1.53863e-06 0)
(0 1.53863e-06 0)
(0 1.53863e-06 0)
(0 1.53863e-06 0)
(0 1.53863e-06 0)
(0 1.53863e-06 0)
(0 1.53863e-06 0)
(0 1.53863e-06 0)
(0 1.53863e-06 0)
(0 1.53863e-06 0)
(0 1.53863e-06 0)
(0 1.53863e-06 0)
(0 1.53863e-06 0)
(0 1.53863e-06 0)
(0 1.53863e-06 0)
(0 1.53863e-06 0)
(0 1.53863e-06 0)
(0 1.53863e-06 0)
(0 1.53863e-06 0)
(0 1.53863e-06 0)
(0 1.53863e-06 0)
(0 1.53863e-06 0)
(0 1.53863e-06 0)
(0 1.53863e-06 0)
(0 1.53863e-06 0)
(0 1.53863e-06 0)
(0 1.53863e-06 0)
(0 1.53863e-06 0)
(0 1.53863e-06 0)
(0 1.53863e-06 0)
(0 1.53863e-06 0)
(0 1.53863e-06 0)
(0 1.53863e-06 0)
(0 1.53863e-06 0)
(0 1.53863e-06 0)
(0 1.53863e-06 0)
(0 1.53863e-06 0)
(0 1.53863e-06 0)
(0 1.53863e-06 0)
(0 1.53863e-06 0)
(0 1.53863e-06 0)
(0 1.53863e-06 0)
(0 1.53863e-06 0)
(0 1.53863e-06 0)
(0 1.53863e-06 0)
(0 1.53863e-06 0)
(0 1.53863e-06 0)
(0 1.53863e-06 0)
(0 1.53863e-06 0)
(0 1.53863e-06 0)
(0 1.53863e-06 0)
(0 1.53863e-06 0)
(0 1.53863e-06 0)
(0 1.53863e-06 0)
(0 1.53863e-06 0)
(0 1.53863e-06 0)
(0 1.53863e-06 0)
(0 1.53863e-06 0)
(0 1.53863e-06 0)
(0 1.53863e-06 0)
(0 1.53863e-06 0)
(0 1.53863e-06 0)
(0 1.53863e-06 0)
(0 1.53863e-06 0)
(0 1.53863e-06 0)
(0 1.53863e-06 0)
(0 1.53863e-06 0)
(0 1.53863e-06 0)
(0 1.53863e-06 0)
(0 1.53863e-06 0)
(0 1.53863e-06 0)
(0 1.54192e-06 0)
(0 1.53862e-06 0)
(0 1.53862e-06 0)
(0 1.53868e-06 0)
(0 1.53904e-06 0)
(0 1.53867e-06 0)
(0 1.54907e-06 0)
(0 1.5388e-06 0)
(0 1.53862e-06 0)
(0 1.53862e-06 0)
(0 1.53865e-06 0)
(0 1.55847e-06 0)
(0 1.54577e-06 0)
(0 1.53874e-06 0)
(0 7.30363e-07 0)
(0 1.41207e-06 0)
(0 1.90221e-06 0)
(0 9.91808e-07 0)
(0 -1.30206e-08 0)
(0 8.57102e-07 0)
(0 6.16156e-07 0)
(0 8.39987e-07 0)
(0 1.08908e-06 0)
(0 1.53866e-06 0)
(0 1.55617e-06 0)
(0 1.5386e-06 0)
(0 1.53865e-06 0)
(0 1.55429e-06 0)
(0 1.54211e-06 0)
(0 1.53911e-06 0)
(0 1.53891e-06 0)
(0 1.53882e-06 0)
(0 1.53862e-06 0)
(0 7.29988e-07 0)
(0 6.09735e-07 0)
(0 4.82132e-07 0)
(0 1.53894e-06 0)
(0 1.53927e-06 0)
(0 1.5386e-06 0)
(0 7.08703e-07 0)
(0 4.47771e-07 0)
(0 6.74829e-07 0)
(0 7.45493e-07 0)
(0 4.76666e-07 0)
(0 1.19588e-06 0)
(0 1.5764e-06 0)
(0 1.62734e-06 0)
(0 4.43933e-07 0)
(0 8.20207e-07 0)
(0 1.5386e-06 0)
(0 3.58395e-07 0)
(0 3.4359e-07 0)
(0 2.39028e-07 0)
(0 8.80567e-07 0)
(0 -3.34606e-07 0)
(0 7.16546e-07 0)
(0 1.01606e-06 0)
(0 3.03793e-07 0)
(0 8.3225e-07 0)
(0 5.25084e-07 0)
(0 2.67864e-07 0)
(0 1.65788e-07 0)
(0 5.25648e-07 0)
(0 1.08587e-06 0)
(0 1.25191e-06 0)
(0 1.53632e-06 0)
(0 1.69356e-06 0)
(0 1.88788e-06 0)
(0 2.00328e-06 0)
(0 2.09758e-06 0)
(0 2.13345e-06 0)
(0 2.14284e-06 0)
(0 2.06479e-06 0)
(0 2.03075e-06 0)
(0 2.04734e-06 0)
(0 1.82756e-06 0)
(0 1.8144e-06 0)
(0 1.62707e-06 0)
(0 1.59915e-06 0)
(0 1.47799e-06 0)
(0 1.46342e-06 0)
(0 1.38465e-06 0)
(0 1.35415e-06 0)
(0 1.27784e-06 0)
(0 1.21716e-06 0)
(0 1.12023e-06 0)
(0 1.05683e-06 0)
(0 9.37763e-07 0)
(0 1.03148e-06 0)
(0 8.49616e-07 0)
(0 9.40377e-07 0)
(0 7.30214e-07 0)
(0 7.92297e-07 0)
(0 5.34798e-07 0)
(0 5.54312e-07 0)
(0 2.43532e-07 0)
(0 1.98421e-07 0)
(0 -1.30674e-07 0)
(0 -2.22866e-07 0)
(0 -5.56353e-07 0)
(0 -6.73588e-07 0)
(0 -4.57226e-07 0)
(0 -8.82043e-07 0)
(0 -8.00218e-07 0)
(0 -1.1662e-06 0)
(0 -1.01946e-06 0)
(0 -1.35782e-06 0)
(0 -1.14297e-06 0)
(0 -1.42615e-06 0)
(0 -1.18725e-06 0)
(0 -1.41395e-06 0)
(0 -1.16529e-06 0)
(0 -1.36157e-06 0)
(0 -1.56547e-06 0)
(0 -1.14926e-06 0)
(0 -1.32019e-06 0)
(0 -1.16023e-06 0)
(0 -1.31156e-06 0)
(0 -1.16601e-06 0)
(0 -1.29493e-06 0)
(0 -1.14705e-06 0)
(0 -1.27062e-06 0)
(0 -1.13477e-06 0)
(0 -1.25928e-06 0)
(0 -1.14747e-06 0)
(0 -1.27033e-06 0)
(0 -1.35177e-06 0)
(0 -1.19387e-06 0)
(0 -1.31599e-06 0)
(0 -1.25517e-06 0)
(0 -1.37284e-06 0)
(0 -1.28453e-06 0)
(0 -1.40321e-06 0)
(0 -1.27934e-06 0)
(0 -1.40369e-06 0)
(0 -1.27205e-06 0)
(0 -1.39827e-06 0)
(0 -1.27156e-06 0)
(0 -1.37983e-06 0)
(0 -1.26311e-06 0)
(0 -1.36009e-06 0)
(0 -1.23741e-06 0)
(0 -1.32761e-06 0)
(0 -1.19673e-06 0)
(0 -1.2771e-06 0)
(0 -1.13399e-06 0)
(0 -1.21018e-06 0)
(0 -1.0525e-06 0)
(0 -1.12822e-06 0)
(0 -9.69699e-07 0)
(0 -1.0354e-06 0)
(0 -1.49858e-06 0)
(0 -8.87543e-07 0)
(0 -9.44884e-07 0)
(0 -1.10915e-06 0)
(0 -8.04954e-07 0)
(0 -8.58084e-07 0)
(0 -7.19129e-07 0)
(0 -7.95495e-07 0)
(0 -6.51989e-07 0)
(0 -7.55005e-07 0)
(0 -6.13816e-07 0)
(0 -7.25535e-07 0)
(0 -5.87793e-07 0)
(0 -7.01928e-07 0)
(0 -5.27154e-07 0)
(0 -5.7824e-07 0)
(0 -6.87906e-07 0)
(0 -5.76507e-07 0)
(0 -6.7648e-07 0)
(0 -5.65042e-07 0)
(0 -6.7231e-07 0)
(0 -5.57002e-07 0)
(0 -6.75487e-07 0)
(0 -1.15362e-06 0)
(0 -5.60145e-07 0)
(0 -6.83986e-07 0)
(0 -4.18379e-07 0)
(0 -1.27755e-06 0)
(0 -5.71557e-07 0)
(0 -6.94827e-07 0)
(0 -5.94857e-07 0)
(0 -7.2805e-07 0)
(0 -6.41791e-07 0)
(0 -7.9174e-07 0)
(0 -8.67812e-07 0)
(0 -9.41128e-07 0)
(0 -1.0033e-06 0)
(0 -1.06724e-06 0)
(0 -1.01617e-06 0)
(0 -1.14062e-06 0)
(0 -1.17299e-06 0)
(0 -1.25584e-06 0)
(0 -1.23086e-06 0)
(0 -1.36527e-06 0)
(0 -1.37769e-06 0)
(0 -1.50863e-06 0)
(0 -1.50293e-06 0)
(0 -1.66381e-06 0)
(0 -1.67175e-06 0)
(0 -1.85075e-06 0)
(0 -1.82073e-06 0)
(0 -2.02534e-06 0)
(0 -1.97574e-06 0)
(0 -2.19465e-06 0)
(0 -2.27187e-06 0)
(0 -2.46052e-06 0)
(0 -2.5527e-06 0)
(0 -2.75373e-06 0)
(0 -2.64036e-06 0)
(0 -2.926e-06 0)
(0 -3.04175e-06 0)
(0 -3.21866e-06 0)
(0 -3.0458e-06 0)
(0 -3.38941e-06 0)
(0 -3.52642e-06 0)
(0 -3.72764e-06 0)
(0 -3.56132e-06 0)
(0 -3.92221e-06 0)
(0 -4.09615e-06 0)
(0 -4.32263e-06 0)
(0 -4.12111e-06 0)
(0 -4.55618e-06 0)
(0 -4.76739e-06 0)
(0 -5.01921e-06 0)
(0 -5.23802e-06 0)
(0 -5.49642e-06 0)
(0 -5.26532e-06 0)
(0 -5.75904e-06 0)
(0 -5.9907e-06 0)
(0 -6.27652e-06 0)
(0 -6.01932e-06 0)
(0 -6.56703e-06 0)
(0 -6.83755e-06 0)
(0 -7.16836e-06 0)
(0 -7.45444e-06 0)
(0 -7.81883e-06 0)
(0 -7.52748e-06 0)
(0 -8.18056e-06 0)
(0 -8.49453e-06 0)
(0 -8.86429e-06 0)
(0 -8.50725e-06 0)
(0 -9.21106e-06 0)
(0 -9.56397e-06 0)
(0 -9.93707e-06 0)
(0 -9.5025e-06 0)
(0 -1.03225e-05 0)
(0 -1.07139e-05 0)
(0 -1.11235e-05 0)
(0 -1.06565e-05 0)
(0 -1.15224e-05 0)
(0 -1.19837e-05 0)
(0 -1.2354e-05 0)
(0 -1.18933e-05 0)
(0 -1.2713e-05 0)
(0 -1.31714e-05 0)
(0 -1.35577e-05 0)
(0 -1.30725e-05 0)
(0 -1.3951e-05 0)
(0 -1.44219e-05 0)
(0 -1.43367e-05 0)
(0 -8.94356e-07 0)
(0 -1.00669e-06 0)
(0 -3.24804e-07 0)
(0 -7.96727e-07 0)
(0 -4.41837e-07 0)
(0 -8.98454e-07 0)
(0 -5.52109e-07 0)
(0 -9.46747e-07 0)
(0 -6.33727e-07 0)
(0 -9.33363e-07 0)
(0 -6.66895e-07 0)
(0 -9.14629e-07 0)
(0 -6.88162e-07 0)
(0 -7.71699e-07 0)
(0 4.87609e-07 0)
(0 4.10489e-07 0)
(0 4.9005e-07 0)
(0 4.14023e-07 0)
(0 4.98995e-07 0)
(0 4.18845e-07 0)
(0 5.10209e-07 0)
(0 5.8665e-07 0)
(0 5.96805e-07 0)
(0 5.18381e-07 0)
(0 5.99846e-07 0)
(0 5.20537e-07 0)
(0 5.97583e-07 0)
(0 5.162e-07 0)
(0 5.92106e-07 0)
(0 6.67041e-07 0)
(0 5.05991e-07 0)
(0 5.8381e-07 0)
(0 6.64383e-07 0)
(0 6.56447e-07 0)
(0 5.71542e-07 0)
(0 6.42548e-07 0)
(0 7.30676e-07 0)
(0 5.53295e-07 0)
(0 6.18973e-07 0)
(0 5.25003e-07 0)
(0 5.87491e-07 0)
(0 4.90447e-07 0)
(0 5.55237e-07 0)
(0 6.47419e-07 0)
(0 6.16733e-07 0)
(0 7.03601e-07 0)
(0 6.70606e-07 0)
(0 7.51491e-07 0)
(0 7.15145e-07 0)
(0 7.91806e-07 0)
(0 7.49645e-07 0)
(0 8.25351e-07 0)
(0 7.80188e-07 0)
(0 8.54962e-07 0)
(0 8.10761e-07 0)
(0 8.84924e-07 0)
(0 8.35952e-07 0)
(0 9.12569e-07 0)
(0 8.61345e-07 0)
(0 9.40325e-07 0)
(0 8.90586e-07 0)
(0 9.67487e-07 0)
(0 9.18163e-07 0)
(0 9.90472e-07 0)
(0 9.40869e-07 0)
(0 1.00795e-06 0)
(0 9.5698e-07 0)
(0 1.02314e-06 0)
(0 9.68205e-07 0)
(0 1.03498e-06 0)
(0 9.76326e-07 0)
(0 1.04416e-06 0)
(0 9.85755e-07 0)
(0 1.05311e-06 0)
(0 9.95422e-07 0)
(0 1.05782e-06 0)
(0 9.99344e-07 0)
(0 1.05827e-06 0)
(0 9.9797e-07 0)
(0 1.05521e-06 0)
(0 9.89041e-07 0)
(0 1.04904e-06 0)
(0 9.79614e-07 0)
(0 1.04133e-06 0)
(0 9.73257e-07 0)
(0 1.03002e-06 0)
(0 9.5215e-07 0)
(0 1.0159e-06 0)
(0 9.47582e-07 0)
(0 1.00037e-06 0)
(0 9.30536e-07 0)
(0 9.79946e-07 0)
(0 9.09777e-07 0)
(0 9.56958e-07 0)
(0 8.87988e-07 0)
(0 9.31388e-07 0)
(0 8.61114e-07 0)
(0 9.03601e-07 0)
(0 8.2893e-07 0)
(0 8.75188e-07 0)
(0 7.94549e-07 0)
(0 8.44351e-07 0)
(0 7.59554e-07 0)
(0 8.10223e-07 0)
(0 7.22656e-07 0)
(0 7.73019e-07 0)
(0 6.83154e-07 0)
(0 7.293e-07 0)
(0 6.33114e-07 0)
(0 6.77804e-07 0)
(0 5.73453e-07 0)
(0 6.20849e-07 0)
(0 5.10767e-07 0)
(0 5.58788e-07 0)
(0 4.42401e-07 0)
(0 4.91413e-07 0)
(0 3.68013e-07 0)
(0 4.18658e-07 0)
(0 2.87969e-07 0)
(0 3.40275e-07 0)
(0 2.04957e-07 0)
(0 2.56474e-07 0)
(0 1.12739e-07 0)
(0 1.66681e-07 0)
(0 1.38657e-08 0)
(0 7.1004e-08 0)
(0 -9.26686e-08 0)
(0 -3.48396e-08 0)
(0 -2.10725e-07 0)
(0 -1.58773e-07 0)
(0 -3.36113e-07 0)
(0 -2.85002e-07 0)
(0 -4.70626e-07 0)
(0 -4.10567e-07 0)
(0 -2.15461e-07 0)
(0 -3.52105e-07 0)
(0 -5.48903e-07 0)
(0 -4.80317e-07 0)
(0 -2.92542e-07 0)
(0 -4.10172e-07 0)
(0 -6.18139e-07 0)
(0 -5.38296e-07 0)
(0 -3.41107e-07 0)
(0 -4.72334e-07 0)
(0 -6.78753e-07 0)
(0 -6.11782e-07 0)
(0 -8.32722e-07 0)
(0 -7.58322e-07 0)
(0 -5.3789e-07 0)
(0 -6.7856e-07 0)
(0 -9.11535e-07 0)
(0 -8.23868e-07 0)
(0 -1.0728e-06 0)
(0 -9.79364e-07 0)
(0 -7.05744e-07 0)
(0 -8.89426e-07 0)
(0 -1.13848e-06 0)
(0 -1.04634e-06 0)
(0 3.11687e-07 0)
(0 -8.0781e-07 0)
(0 -9.60709e-07 0)
(0 -1.2047e-06 0)
(0 -1.12297e-06 0)
(0 -8.73681e-07 0)
(0 -1.03601e-06 0)
(0 -1.29973e-06 0)
(0 -1.20947e-06 0)
(0 -1.49035e-06 0)
(0 -1.39664e-06 0)
(0 -7.84684e-07 0)
(0 6.68486e-07 0)
(0 9.03767e-07 0)
(0 9.24408e-07 0)
(0 8.58575e-07 0)
(0 7.37253e-07 0)
(0 8.37972e-07 0)
(0 6.70757e-07 0)
(0 3.94547e-07 0)
(0 -5.26596e-08 0)
(0 -1.69488e-06 0)
(0 -1.59861e-06 0)
(0 -1.9147e-06 0)
(0 -1.81492e-06 0)
(0 8.91377e-07 0)
(0 -2.14933e-06 0)
(0 -2.04951e-06 0)
(0 -1.71559e-06 0)
(0 -1.95059e-06 0)
(0 -1.62305e-06 0)
(0 -1.85612e-06 0)
(0 -1.5337e-06 0)
(0 -1.76446e-06 0)
(0 -1.4474e-06 0)
(0 -1.6763e-06 0)
(0 -1.36286e-06 0)
(0 -1.59252e-06 0)
(0 -1.91948e-06 0)
(0 -1.83932e-06 0)
(0 -1.50947e-06 0)
(0 -1.43025e-06 0)
(0 -2.40711e-06 0)
(0 -2.50131e-06 0)
(0 1.02307e-06 0)
(0 9.25588e-07 0)
(0 -2.78424e-06 0)
(0 -2.8742e-06 0)
(0 1.08971e-06 0)
(0 -3.17881e-06 0)
(0 -3.27151e-06 0)
(0 -3.59725e-06 0)
(0 -3.69305e-06 0)
(0 1.11175e-06 0)
(0 1.03373e-06 0)
(0 5.22539e-07 0)
(0 -4.0436e-06 0)
(0 -4.13294e-06 0)
(0 -4.50278e-06 0)
(0 -4.59103e-06 0)
(0 -1.43032e-05 0)
(0 -1.47516e-05 0)
(0 -1.35033e-05 0)
(0 -1.30843e-05 0)
(0 -1.22712e-05 0)
(0 -1.13359e-06 0)
(0 -9.39659e-07 0)
(0 -1.19141e-05 0)
(0 -1.10899e-05 0)
(0 -1.14002e-05 0)
(0 -1.02604e-05 0)
(0 -1.05631e-05 0)
(0 -9.48282e-06 0)
(0 -9.1955e-06 0)
(0 -8.46462e-06 0)
(0 -4.96831e-06 0)
(0 -5.07213e-06 0)
(0 -8.77772e-06 0)
(0 -7.80644e-06 0)
(0 -7.5247e-06 0)
(0 -6.93507e-06 0)
(0 -7.18342e-06 0)
(0 -6.38111e-06 0)
(0 -6.16029e-06 0)
(0 -5.66158e-06 0)
(0 -4.99339e-07 0)
(0 -5.44163e-06 0)
(0 -4.99916e-06 0)
(0 -5.17103e-06 0)
(0 -4.57131e-06 0)
(0 -5.26443e-07 0)
(0 4.20438e-07 0)
(0 -4.39322e-06 0)
(0 -4.01389e-06 0)
(0 -4.11457e-06 0)
(0 -3.62929e-06 0)
(0 -3.49338e-06 0)
(0 -3.14669e-06 0)
(0 -3.23545e-06 0)
(0 -2.79032e-06 0)
(0 -2.64424e-06 0)
(0 -2.32051e-06 0)
(0 -2.41555e-06 0)
(0 -2.00882e-06 0)
(0 -1.84191e-06 0)
(0 -1.55826e-06 0)
(0 4.22784e-07 0)
(0 3.34272e-07 0)
(0 -1.29262e-06 0)
(0 -9.40487e-07 0)
(0 -1.15888e-06 0)
(0 -4.9098e-07 0)
(0 -2.27496e-07 0)
(0 2.10959e-07 0)
(0 1.67611e-08 0)
(0 7.06273e-07 0)
(0 9.61927e-07 0)
(0 1.44014e-06 0)
(0 1.21977e-06 0)
(0 1.91697e-06 0)
(0 2.14739e-06 0)
(0 2.55892e-06 0)
(0 2.32064e-06 0)
(0 2.86987e-06 0)
(0 2.59375e-06 0)
(0 3.04779e-06 0)
(0 2.74836e-06 0)
(0 3.16189e-06 0)
(0 3.40698e-06 0)
(0 3.56236e-06 0)
(0 3.31739e-06 0)
(0 3.77725e-06 0)
(0 3.52245e-06 0)
(0 4.00427e-06 0)
(0 3.74868e-06 0)
(0 4.23991e-06 0)
(0 4.4796e-06 0)
(0 4.74525e-06 0)
(0 4.48502e-06 0)
(0 5.00078e-06 0)
(0 4.68129e-06 0)
(0 5.16396e-06 0)
(0 4.76246e-06 0)
(0 5.20311e-06 0)
(0 5.5821e-06 0)
(0 5.53542e-06 0)
(0 5.09467e-06 0)
(0 5.32669e-06 0)
(0 4.86012e-06 0)
(0 5.01129e-06 0)
(0 5.43604e-06 0)
(0 5.06733e-06 0)
(0 4.67041e-06 0)
(0 4.71002e-06 0)
(0 4.3537e-06 0)
(0 4.40081e-06 0)
(0 4.69678e-06 0)
(0 4.44495e-06 0)
(0 4.16204e-06 0)
(0 4.25755e-06 0)
(0 3.98762e-06 0)
(0 4.11079e-06 0)
(0 4.33299e-06 0)
(0 3.86324e-06 0)
(0 4.024e-06 0)
(0 3.78399e-06 0)
(0 4.00833e-06 0)
(0 3.77363e-06 0)
(0 4.06423e-06 0)
(0 3.83663e-06 0)
(0 4.18967e-06 0)
(0 3.94536e-06 0)
(0 4.35333e-06 0)
(0 4.36986e-06 0)
(0 4.12217e-06 0)
(0 -5.45097e-06 0)
(0 -5.36403e-06 0)
(0 -5.62634e-06 0)
(0 -5.18475e-06 0)
(0 -5.65323e-06 0)
(0 -5.27405e-06 0)
(0 -5.75115e-06 0)
(0 -5.37287e-06 0)
(0 -5.85004e-06 0)
(0 -5.45358e-06 0)
(0 -5.92941e-06 0)
(0 -5.51702e-06 0)
(0 4.60029e-06 0)
(0 4.37245e-06 0)
(0 3.61911e-06 0)
(0 -6.00103e-06 0)
(0 -5.59493e-06 0)
(0 4.83798e-06 0)
(0 4.5959e-06 0)
(0 8.98222e-07 0)
(0 3.63284e-06 0)
(0 -6.37086e-06 0)
(0 -6.0664e-06 0)
(0 -5.65426e-06 0)
(0 5.02203e-06 0)
(0 5.21984e-06 0)
(0 4.73576e-06 0)
(0 1.08565e-06 0)
(0 -6.11956e-06 0)
(0 -5.69715e-06 0)
(0 9.94613e-07 0)
(0 1.26017e-06 0)
(0 -1.7199e-06 0)
(0 1.39793e-06 0)
(0 1.42353e-06 0)
(0 1.41081e-06 0)
(0 1.43343e-06 0)
(0 1.4219e-06 0)
(0 1.44261e-06 0)
(0 1.43106e-06 0)
(0 1.45038e-06 0)
(0 1.43821e-06 0)
(0 1.45636e-06 0)
(0 1.41824e-06 0)
(0 1.44368e-06 0)
(0 1.46086e-06 0)
(0 5.34533e-06 0)
(0 5.48014e-06 0)
(0 1.36981e-06 0)
(0 -6.16535e-06 0)
(0 -5.72349e-06 0)
(0 -1.61782e-06 0)
(0 1.44781e-06 0)
(0 1.46318e-06 0)
(0 1.93405e-06 0)
(0 1.24148e-06 0)
(0 1.54502e-06 0)
(0 -5.3018e-06 0)
(0 -5.31516e-06 0)
(0 -5.75235e-06 0)
(0 -5.33255e-06 0)
(0 5.56714e-06 0)
(0 5.61494e-06 0)
(0 1.44394e-06 0)
(0 -1.14413e-06 0)
(0 1.44933e-06 0)
(0 1.46316e-06 0)
(0 -1.4965e-06 0)
(0 -1.49869e-06 0)
(0 -1.62917e-06 0)
(0 -1.50256e-06 0)
(0 -4.92818e-06 0)
(0 -4.93382e-06 0)
(0 -1.36353e-06 0)
(0 -1.35585e-06 0)
(0 -5.36046e-06 0)
(0 -4.94071e-06 0)
(0 -6.64242e-06 0)
(0 1.44799e-06 0)
(0 1.46146e-06 0)
(0 1.43305e-06 0)
(0 -4.53481e-06 0)
(0 -4.53014e-06 0)
(0 -1.64915e-06 0)
(0 -1.21208e-06 0)
(0 -1.21208e-06 0)
(0 -4.95133e-06 0)
(0 -4.53853e-06 0)
(0 -4.13437e-06 0)
(0 -4.1446e-06 0)
(0 -3.76115e-06 0)
(0 -3.76905e-06 0)
(0 1.56626e-06 0)
(0 1.89192e-06 0)
(0 5.72511e-06 0)
(0 5.69466e-06 0)
(0 -3.41243e-06 0)
(0 -3.42902e-06 0)
(0 -3.08811e-06 0)
(0 -3.11791e-06 0)
(0 -2.78162e-06 0)
(0 -2.81383e-06 0)
(0 -2.48926e-06 0)
(0 -2.52457e-06 0)
(0 -2.21897e-06 0)
(0 -2.25813e-06 0)
(0 -1.97102e-06 0)
(0 -2.01496e-06 0)
(0 -2.30088e-06 0)
(0 -2.05972e-06 0)
(0 -1.79583e-06 0)
(0 -1.84174e-06 0)
(0 -1.59709e-06 0)
(0 -1.6452e-06 0)
(0 -1.41354e-06 0)
(0 -1.46489e-06 0)
(0 -1.24105e-06 0)
(0 -1.29183e-06 0)
(0 -1.07669e-06 0)
(0 -1.13076e-06 0)
(0 -9.21537e-07 0)
(0 -9.7775e-07 0)
(0 -7.77796e-07 0)
(0 -8.38812e-07 0)
(0 -6.50616e-07 0)
(0 -7.20531e-07 0)
(0 -5.45225e-07 0)
(0 -6.18899e-07 0)
(0 -4.56026e-07 0)
(0 -5.29479e-07 0)
(0 -3.73748e-07 0)
(0 -4.4021e-07 0)
(0 -2.90653e-07 0)
(0 -3.52807e-07 0)
(0 -2.14696e-07 0)
(0 -2.85963e-07 0)
(0 -1.55987e-07 0)
(0 -2.37731e-07 0)
(0 -3.92139e-07 0)
(0 -3.29966e-07 0)
(0 -1.96949e-07 0)
(0 -2.85273e-07 0)
(0 -1.64739e-07 0)
(0 -2.467e-07 0)
(0 -1.34701e-07 0)
(0 -2.13173e-07 0)
(0 -1.10601e-07 0)
(0 -1.88237e-07 0)
(0 -9.47932e-08 0)
(0 -1.72379e-07 0)
(0 -8.46053e-08 0)
(0 -1.61448e-07 0)
(0 -6.80208e-07 0)
(0 -2.49402e-07 0)
(0 -2.38547e-07 0)
(0 -1.55682e-07 0)
(0 -2.3823e-07 0)
(0 -1.62155e-07 0)
(0 -2.55233e-07 0)
(0 -1.85541e-07 0)
(0 -2.87599e-07 0)
(0 -2.20498e-07 0)
(0 -3.28287e-07 0)
(0 -4.23175e-07 0)
(0 -2.58967e-07 0)
(0 -3.70254e-07 0)
(0 -2.93378e-07 0)
(0 -3.97647e-07 0)
(0 -3.17527e-07 0)
(0 -4.13423e-07 0)
(0 -3.38134e-07 0)
(0 -1.20848e-06 0)
(0 -4.36667e-07 0)
(0 -3.67762e-07 0)
(0 -4.7323e-07 0)
(0 -4.09525e-07 0)
(0 -3.5266e-07 0)
(0 -5.25463e-07 0)
(0 -4.67009e-07 0)
(0 -3.48802e-06 0)
(0 1.44525e-06 0)
(0 1.45828e-06 0)
(0 -1.88851e-06 0)
(0 1.47303e-06 0)
(0 1.46974e-06 0)
(0 1.4536e-06 0)
(0 1.46513e-06 0)
(0 1.48222e-06 0)
(0 1.4753e-06 0)
(0 1.45899e-06 0)
(0 1.46838e-06 0)
(0 1.48308e-06 0)
(0 1.47645e-06 0)
(0 1.48942e-06 0)
(0 1.48351e-06 0)
(0 1.49524e-06 0)
(0 1.48986e-06 0)
(0 1.50062e-06 0)
(0 1.49537e-06 0)
(0 1.50509e-06 0)
(0 1.49979e-06 0)
(0 1.50876e-06 0)
(0 1.50336e-06 0)
(0 1.49315e-06 0)
(0 1.49669e-06 0)
(0 1.50631e-06 0)
(0 1.50011e-06 0)
(0 1.50893e-06 0)
(0 1.5028e-06 0)
(0 1.51128e-06 0)
(0 1.50529e-06 0)
(0 1.51352e-06 0)
(0 1.50803e-06 0)
(0 1.51573e-06 0)
(0 1.51041e-06 0)
(0 1.51759e-06 0)
(0 1.51222e-06 0)
(0 1.50403e-06 0)
(0 1.50571e-06 0)
(0 1.51361e-06 0)
(0 1.50681e-06 0)
(0 1.51476e-06 0)
(0 1.5078e-06 0)
(0 1.51554e-06 0)
(0 1.50868e-06 0)
(0 1.51609e-06 0)
(0 1.50938e-06 0)
(0 1.50106e-06 0)
(0 1.50206e-06 0)
(0 1.51e-06 0)
(0 1.50263e-06 0)
(0 1.51028e-06 0)
(0 1.50251e-06 0)
(0 1.51015e-06 0)
(0 1.50213e-06 0)
(0 1.49388e-06 0)
(0 1.49341e-06 0)
(0 1.50174e-06 0)
(0 1.49307e-06 0)
(0 1.50148e-06 0)
(0 1.49316e-06 0)
(0 1.50149e-06 0)
(0 1.49344e-06 0)
(0 1.50165e-06 0)
(0 1.49372e-06 0)
(0 1.502e-06 0)
(0 1.4942e-06 0)
(0 1.48477e-06 0)
(0 1.48548e-06 0)
(0 1.48399e-06 0)
(0 1.49507e-06 0)
(0 1.48656e-06 0)
(0 1.49609e-06 0)
(0 1.48756e-06 0)
(0 1.49698e-06 0)
(0 1.48844e-06 0)
(0 1.47765e-06 0)
(0 1.47857e-06 0)
(0 1.48918e-06 0)
(0 1.47942e-06 0)
(0 1.48983e-06 0)
(0 1.48012e-06 0)
(0 1.49039e-06 0)
(0 1.48063e-06 0)
(0 1.46889e-06 0)
(0 1.46936e-06 0)
(0 1.48089e-06 0)
(0 1.46951e-06 0)
(0 1.48088e-06 0)
(0 1.46933e-06 0)
(0 1.4807e-06 0)
(0 1.46902e-06 0)
(0 1.4558e-06 0)
(0 1.45543e-06 0)
(0 1.4688e-06 0)
(0 1.45516e-06 0)
(0 1.46896e-06 0)
(0 1.45503e-06 0)
(0 1.43935e-06 0)
(0 1.43918e-06 0)
(0 1.45516e-06 0)
(0 1.4394e-06 0)
(0 1.4555e-06 0)
(0 1.4398e-06 0)
(0 1.45602e-06 0)
(0 1.44021e-06 0)
(0 1.45669e-06 0)
(0 1.44063e-06 0)
(0 1.42187e-06 0)
(0 1.422e-06 0)
(0 1.44108e-06 0)
(0 1.4224e-06 0)
(0 1.40073e-06 0)
(0 1.40102e-06 0)
(0 1.42266e-06 0)
(0 1.40076e-06 0)
(0 1.42246e-06 0)
(0 1.40017e-06 0)
(0 1.42202e-06 0)
(0 1.39975e-06 0)
(0 1.4207e-06 0)
(0 1.39945e-06 0)
(0 1.4206e-06 0)
(0 1.39937e-06 0)
(0 1.37464e-06 0)
(0 1.42158e-06 0)
(0 1.39928e-06 0)
(0 1.42154e-06 0)
(0 1.39888e-06 0)
(0 1.42124e-06 0)
(0 1.42216e-06 0)
(0 1.39847e-06 0)
(0 1.37277e-06 0)
(0 1.37178e-06 0)
(0 1.39781e-06 0)
(0 1.37078e-06 0)
(0 1.3971e-06 0)
(0 1.36976e-06 0)
(0 1.34096e-06 0)
(0 1.3392e-06 0)
(0 1.36885e-06 0)
(0 1.33714e-06 0)
(0 1.36763e-06 0)
(0 1.33581e-06 0)
(0 1.36645e-06 0)
(0 1.33555e-06 0)
(0 1.36559e-06 0)
(0 1.3345e-06 0)
(0 1.36495e-06 0)
(0 1.33218e-06 0)
(0 1.30313e-06 0)
(0 1.36469e-06 0)
(0 1.33089e-06 0)
(0 1.29809e-06 0)
(0 1.36482e-06 0)
(0 1.32961e-06 0)
(0 1.36438e-06 0)
(0 1.32826e-06 0)
(0 1.36333e-06 0)
(0 1.32682e-06 0)
(0 1.2876e-06 0)
(0 1.28528e-06 0)
(0 1.32525e-06 0)
(0 1.28263e-06 0)
(0 1.32331e-06 0)
(0 1.2791e-06 0)
(0 1.32069e-06 0)
(0 1.27476e-06 0)
(0 1.22783e-06 0)
(0 1.2218e-06 0)
(0 1.26964e-06 0)
(0 1.21486e-06 0)
(0 1.26328e-06 0)
(0 1.20619e-06 0)
(0 1.25556e-06 0)
(0 1.19588e-06 0)
(0 1.24755e-06 0)
(0 1.16963e-06 0)
(0 1.18576e-06 0)
(0 1.2369e-06 0)
(0 1.17237e-06 0)
(0 1.2235e-06 0)
(0 1.4424e-06 0)
(0 1.15503e-06 0)
(0 1.20997e-06 0)
(0 1.39163e-06 0)
(0 1.44174e-06 0)
(0 1.47036e-06 0)
(0 1.49622e-06 0)
(0 1.13701e-06 0)
(0 1.19411e-06 0)
(0 1.12674e-06 0)
(0 1.39976e-06 0)
(0 1.11755e-06 0)
(0 1.18371e-06 0)
(0 1.05414e-06 0)
(0 1.49031e-06 0)
(0 1.30039e-06 0)
(0 1.50968e-06 0)
(0 1.09272e-06 0)
(0 1.1479e-06 0)
(0 1.26526e-06 0)
(0 1.06053e-06 0)
(0 1.11754e-06 0)
(0 1.4701e-06 0)
(0 1.20086e-06 0)
(0 1.16672e-06 0)
(0 1.08149e-06 0)
(0 1.13393e-06 0)
(0 1.5222e-06 0)
(0 1.03806e-06 0)
(0 1.09123e-06 0)
(0 1.18331e-06 0)
(0 1.13961e-06 0)
(0 1.03864e-06 0)
(0 1.08746e-06 0)
(0 1.18267e-06 0)
(0 1.13086e-06 0)
(0 1.22019e-06 0)
(0 1.16808e-06 0)
(0 1.06989e-06 0)
(0 1.19914e-06 0)
(0 1.22431e-06 0)
(0 1.24361e-06 0)
(0 1.46737e-06 0)
(0 -1.07109e-06 0)
(0 -1.09625e-06 0)
(0 1.52203e-06 0)
(0 -5.99887e-07 0)
(0 -5.50996e-07 0)
(0 -4.96153e-06 0)
(0 1.51737e-06 0)
(0 -5.14951e-06 0)
(0 -3.39016e-06 0)
(0 5.83542e-06 0)
(0 5.74656e-06 0)
(0 5.77846e-06 0)
(0 5.51455e-06 0)
(0 5.51727e-06 0)
(0 5.23997e-06 0)
(0 5.19651e-06 0)
(0 4.90846e-06 0)
(0 4.82925e-06 0)
(0 4.54938e-06 0)
(0 4.44372e-06 0)
(0 4.15479e-06 0)
(0 4.0476e-06 0)
(0 3.77955e-06 0)
(0 3.71901e-06 0)
(0 3.52102e-06 0)
(0 3.50184e-06 0)
(0 3.40955e-06 0)
(0 3.39767e-06 0)
(0 3.40585e-06 0)
(0 3.38868e-06 0)
(0 3.38432e-06 0)
(0 3.43613e-06 0)
(0 3.40396e-06 0)
(0 3.46939e-06 0)
(0 3.46912e-06 0)
(0 3.53727e-06 0)
(0 3.5793e-06 0)
(0 -1.42512e-06 0)
(0 -1.48301e-06 0)
(0 1.50035e-06 0)
(0 1.98563e-06 0)
(0 2.337e-06 0)
(0 -9.574e-07 0)
(0 -1.01097e-06 0)
(0 -1.14334e-06 0)
(0 -1.06464e-06 0)
(0 -9.2644e-07 0)
(0 -1.18985e-06 0)
(0 -1.09595e-06 0)
(0 -9.69107e-07 0)
(0 -9.87355e-07 0)
(0 -8.58659e-07 0)
(0 -8.80087e-07 0)
(0 -1.01307e-06 0)
(0 -9.19865e-07 0)
(0 -7.74353e-07 0)
(0 -8.31418e-07 0)
(0 1.36021e-06 0)
(0 -5.00263e-07 0)
(0 1.51712e-06 0)
(0 1.50435e-06 0)
(0 1.49078e-06 0)
(0 1.49326e-06 0)
(0 1.46633e-06 0)
(0 -6.99199e-07 0)
(0 -6.56225e-07 0)
(0 1.45584e-06 0)
(0 1.37673e-06 0)
(0 -6.78498e-07 0)
(0 4.31955e-06 0)
(0 4.25807e-06 0)
(0 3.27076e-06 0)
(0 -5.69022e-07 0)
(0 -4.14082e-07 0)
(0 -4.97505e-07 0)
(0 -3.11247e-07 0)
(0 -4.00053e-07 0)
(0 -1.81131e-07 0)
(0 -2.74652e-07 0)
(0 -3.86405e-08 0)
(0 -1.28873e-07 0)
(0 4.90667e-08 0)
(0 2.29656e-06 0)
(0 1.84716e-07 0)
(0 2.49545e-07 0)
(0 3.62935e-06 0)
(0 3.68236e-06 0)
(0 2.75974e-06 0)
(0 3.77581e-06 0)
(0 4.95685e-06 0)
(0 3.54517e-06 0)
(0 -1.97778e-08 0)
(0 -3.28517e-07 0)
(0 -9.90794e-07 0)
(0 -9.19017e-07 0)
(0 2.23767e-06 0)
(0 2.7124e-06 0)
(0 -5.88859e-07 0)
(0 -1.13228e-06 0)
(0 1.08861e-06 0)
(0 -7.98396e-07 0)
(0 -4.36825e-07 0)
(0 -8.15008e-07 0)
(0 5.90987e-06 0)
(0 5.80395e-06 0)
(0 5.4665e-06 0)
(0 3.73422e-06 0)
(0 3.75892e-06 0)
(0 -1.1405e-07 0)
(0 1.51308e-06 0)
(0 3.77523e-07 0)
(0 4.46158e-07 0)
(0 -3.36287e-06 0)
(0 2.47307e-06 0)
(0 2.12753e-06 0)
(0 -1.18755e-06 0)
(0 -2.99054e-07 0)
(0 -5.89503e-07 0)
(0 1.30012e-06 0)
(0 -8.00278e-08 0)
(0 -2.42044e-07 0)
(0 4.29619e-06 0)
(0 8.18815e-07 0)
(0 3.83007e-06 0)
(0 3.84106e-06 0)
(0 -1.61207e-05 0)
(0 -3.5133e-06 0)
(0 3.78455e-06 0)
(0 3.88985e-06 0)
(0 3.94948e-06 0)
(0 4.07168e-06 0)
(0 -1.61658e-05 0)
(0 -1.52296e-05 0)
(0 -1.51749e-05 0)
(0 -1.43241e-05 0)
(0 5.90667e-06 0)
(0 5.75379e-06 0)
(0 -7.65207e-07 0)
(0 -9.27409e-07 0)
(0 -1.08889e-06 0)
(0 6.00333e-07 0)
(0 7.08158e-07 0)
(0 5.12848e-07 0)
(0 -1.43244e-05 0)
(0 -1.34735e-05 0)
(0 -1.34254e-05 0)
(0 -1.26189e-05 0)
(0 3.46861e-06 0)
(0 -6.08453e-07 0)
(0 2.61615e-06 0)
(0 3.11607e-06 0)
(0 4.03691e-06 0)
(0 4.30433e-06 0)
(0 4.36353e-06 0)
(0 4.66826e-06 0)
(0 3.78025e-06 0)
(0 -3.74634e-07 0)
(0 -2.21949e-07 0)
(0 -5.01044e-07 0)
(0 -3.30476e-07 0)
(0 -6.30686e-07 0)
(0 -4.553e-07 0)
(0 -7.53448e-07 0)
(0 -5.79011e-07 0)
(0 -8.92044e-07 0)
(0 -7.18701e-07 0)
(0 -1.07692e-06 0)
(0 -9.09063e-07 0)
(0 -1.3159e-06 0)
(0 -5.55294e-07 0)
(0 -1.17682e-06 0)
(0 -1.62134e-06 0)
(0 -1.52481e-06 0)
(0 -1.98927e-06 0)
(0 1.53135e-06 0)
(0 -1.26554e-05 0)
(0 -1.18201e-05 0)
(0 -1.17619e-05 0)
(0 -1.0978e-05 0)
(0 3.53279e-06 0)
(0 2.56102e-06 0)
(0 2.20722e-06 0)
(0 4.60293e-06 0)
(0 5.01205e-06 0)
(0 5.10385e-06 0)
(0 5.45834e-06 0)
(0 5.5536e-06 0)
(0 5.85126e-06 0)
(0 5.68996e-06 0)
(0 5.96605e-06 0)
(0 6.13691e-06 0)
(0 6.12867e-06 0)
(0 -1.10129e-05 0)
(0 -1.01826e-05 0)
(0 -1.01645e-05 0)
(0 -9.40276e-06 0)
(0 -9.38077e-06 0)
(0 -8.66244e-06 0)
(0 -8.67498e-06 0)
(0 -7.98909e-06 0)
(0 -7.9801e-06 0)
(0 -7.35047e-06 0)
(0 -7.36275e-06 0)
(0 -7.31375e-06 0)
(0 -2.07184e-06 0)
(0 -2.45327e-06 0)
(0 6.34133e-06 0)
(0 6.24224e-06 0)
(0 -1.91752e-06 0)
(0 -7.01907e-07 0)
(0 -1.03387e-06 0)
(0 -3.48574e-07 0)
(0 5.79729e-06 0)
(0 5.61093e-06 0)
(0 9.17247e-07 0)
(0 1.06793e-06 0)
(0 -1.45079e-06 0)
(0 -6.77409e-06 0)
(0 -6.78202e-06 0)
(0 -5.45326e-07 0)
(0 -8.61914e-07 0)
(0 1.80235e-06 0)
(0 -1.20095e-06 0)
(0 -1.2567e-06 0)
(0 5.4541e-06 0)
(0 2.54681e-06 0)
(0 2.18583e-06 0)
(0 1.49874e-06 0)
(0 -8.16643e-07 0)
(0 -7.75029e-07 0)
(0 -6.72816e-07 0)
(0 -6.19789e-07 0)
(0 4.52345e-07 0)
(0 3.01512e-06 0)
(0 3.4827e-06 0)
(0 5.75352e-06 0)
(0 -1.16485e-06 0)
(0 -1.5584e-06 0)
(0 -7.72114e-06 0)
(0 4.2726e-06 0)
(0 6.46753e-06 0)
(0 6.33747e-06 0)
(0 6.03878e-06 0)
(0 6.14586e-06 0)
(0 -6.31095e-06 0)
(0 -7.27711e-06 0)
(0 -6.02385e-06 0)
(0 -6.89275e-06 0)
(0 -5.74898e-06 0)
(0 -5.02465e-06 0)
(0 -4.867e-06 0)
(0 -5.54566e-06 0)
(0 -4.74423e-06 0)
(0 -4.11882e-06 0)