/*--------------------------------*- C++ -*----------------------------------*\
| =========                 |                                                 |
| \\      /  F ield         | OpenFOAM: The Open Source CFD Toolbox           |
|  \\    /   O peration     | Version:  v2012                                 |
|   \\  /    A nd           | Website:  www.openfoam.com                      |
|    \\/     M anipulation  |                                                 |
\*---------------------------------------------------------------------------*/
FoamFile
{
    version     2.0;
    format      ascii;
    class       surfaceVectorField;
    location    "600";
    object      Uf;
}
// * * * * * * * * * * * * * * * * * * * * * * * * * * * * * * * * * * * * * //

dimensions      [0 1 -1 0 0 0 0];


internalField   nonuniform List<vector> 
27907
(
(1.07244 -0.305179 9.23174e-21)
(1.08202 -0.299735 4.78661e-21)
(1.08015 -0.311143 1.02759e-20)
(1.27512 -0.0121066 1.45932e-20)
(1.20312 -0.00815709 -3.60938e-23)
(1.2623 -0.00576343 2.81453e-20)
(1.01545 -0.000167409 -3.21911e-22)
(1.01538 -0.000223305 7.37568e-22)
(1.01533 -0.000137395 2.85055e-22)
(0.316279 0.118738 -1.99056e-21)
(0.343909 0.11379 -9.48894e-21)
(0.318415 0.120554 -5.46664e-22)
(0.189755 0.0943074 1.26843e-21)
(0.234295 0.0997711 -2.68379e-20)
(0.177895 0.093053 8.64771e-21)
(0.16127 0.0394364 1.59438e-20)
(0.115727 0.0387346 -1.57449e-20)
(0.178356 0.0430477 -6.54227e-21)
(-0.200695 -0.0107941 7.06955e-21)
(-0.215639 -0.00528666 -6.15745e-21)
(-0.205678 -0.0106724 -5.22421e-20)
(1.01175 -0.00521135 -1.80726e-22)
(1.0121 -0.00524763 0)
(1.01194 -0.00552515 -3.08905e-22)
(1.20468 0.0796867 1.62513e-20)
(1.20826 0.076139 1.28427e-20)
(1.20989 0.0816349 -1.52413e-20)
(1.01089 -0.104386 1.03852e-21)
(1.01089 -0.108042 -5.2045e-22)
(1.01408 -0.105562 2.63625e-22)
(1.05325 -0.0415959 0)
(1.05485 -0.0419951 8.63538e-22)
(1.05364 -0.0433556 1.38753e-21)
(0.127004 -0.0453826 -6.26331e-21)
(0.120485 -0.0436287 -6.88e-20)
(0.207173 -0.0550628 -4.67181e-20)
(1.00184 -0.000415039 -3.69529e-21)
(1.00172 -0.000296748 -1.21586e-21)
(1.0019 -0.000278297 2.33301e-21)
(1.07199 0.0437076 5.02325e-21)
(1.07255 0.0452267 0)
(1.07352 0.0438259 -1.08244e-20)
(1.04946 0.00890746 7.5081e-21)
(1.05011 0.00841292 -2.27418e-21)
(1.04909 0.00803468 5.34427e-21)
(0.5884 -0.507264 -4.4553e-20)
(0.55585 -0.480207 -6.19614e-20)
(0.592239 -0.465775 2.82745e-20)
(1.1039 0.0116008 -1.59815e-20)
(1.10233 0.0111446 -7.07476e-21)
(1.10366 0.00989364 -7.04501e-21)
(1.00374 -0.00748454 -7.29672e-22)
(1.00394 -0.00749406 -1.63449e-21)
(1.00371 -0.00723903 -8.44202e-22)
(1.03759 -0.00600411 -3.9641e-21)
(1.03834 -0.0061336 6.47123e-23)
(1.03808 -0.00546641 8.57726e-23)
(1.02203 -0.126531 -3.40652e-22)
(1.01847 -0.1261 -3.49043e-22)
(1.02099 -0.122869 -1.03048e-22)
(0.0839418 0.0195649 2.91321e-23)
(0.0602037 0.0128573 -8.84969e-21)
(0.0761689 0.0193239 8.71684e-22)
(1 -0.000412892 -1.28132e-21)
(0.999987 -0.000578538 2.03086e-22)
(1.00002 -0.000490829 1.6139e-21)
(-0.0489215 -0.0227784 -4.66082e-20)
(-0.0151965 -0.0257815 -2.19304e-20)
(-0.0515932 -0.0226224 -1.78479e-20)
(1.17404 0.144954 -1.87695e-20)
(1.17946 0.145941 -2.31413e-20)
(1.17703 0.151563 -1.94354e-20)
(1.3274 -0.165523 7.68135e-22)
(1.32879 -0.16899 1.6072e-20)
(1.32943 -0.161455 1.26077e-20)
(1.01142 -0.00516573 -1.65645e-22)
(1.01159 -0.00491567 7.57041e-23)
(0.784049 -0.655968 -1.07725e-21)
(0.774118 -0.676286 0)
(0.753209 -0.656731 -2.92743e-21)
(0.111615 0.0834678 1.24602e-21)
(0.161906 0.0889788 -4.51493e-20)
(0.125671 0.08517 7.43736e-21)
(0.768833 0.000961896 -1.38956e-20)
(0.866869 -0.00207714 -4.32378e-20)
(0.800057 -0.00203106 4.23524e-21)
(1.05835 -0.670265 0)
(1.01928 -0.669039 2.06839e-20)
(1.08843 -0.730367 0)
(1.09558 0.0377319 -9.23386e-22)
(1.0961 0.0386948 -1.9468e-20)
(1.09682 0.0377389 -7.47851e-21)
(0.208287 0.0167384 -6.25092e-21)
(0.218911 0.0215067 -2.8353e-21)
(0.225783 0.021629 -7.30182e-21)
(1.00035 -0.000135016 1.20281e-21)
(1.0003 -0.000124146 -2.19288e-21)
(1.00033 -7.75602e-05 -3.68792e-21)
(1.05141 -0.0141359 -1.80077e-23)
(1.05219 -0.0134346 -1.85709e-22)
(1.05111 -0.0130609 -1.15831e-21)
(1.10383 0.0637905 -4.46473e-21)
(1.10281 0.0618184 0)
(1.10147 0.0636933 4.86693e-21)
(0.999238 -0.00089274 5.31686e-21)
(0.999128 -0.000955438 2.36593e-21)
(0.999172 -0.00107785 4.39669e-21)
(1.00015 -0.000171361 -2.45455e-21)
(1.00012 -0.000137271 -1.34037e-21)
(1.00012 -0.000178377 1.71735e-21)
(1.03421 -0.0232273 0)
(1.03332 -0.0231546 0)
(1.03381 -0.0240488 0)
(1.03998 -0.0271015 -1.58987e-21)
(1.0405 -0.0261696 3.44272e-21)
(1.03934 -0.0263002 5.59692e-21)
(1.1105 0.00999185 8.37563e-21)
(1.10992 0.00818936 8.40565e-21)
(1.10846 0.0097536 -7.61319e-21)
(1.03511 -0.0216404 -1.1969e-21)
(1.0346 -0.0224659 -1.15163e-21)
(1.03419 -0.0214604 -3.44854e-21)
(0.934316 -0.0785022 -5.41719e-22)
(0.934318 -0.0741949 1.9776e-20)
(0.93812 -0.0774923 2.39178e-20)
(1.0217 -0.00731985 -8.44155e-22)
(1.02167 -0.00768784 -3.82612e-22)
(1.02214 -0.00752561 -1.72753e-22)
(0.970645 -0.0906854 -3.24179e-22)
(0.972846 -0.0927491 4.1621e-21)
(0.973706 -0.0894228 -3.05349e-22)
(1.1691 -0.487963 -8.74653e-21)
(1.14809 -0.492772 3.1377e-20)
(1.1942 -0.515878 1.57193e-21)
(1.01312 -0.00152286 0)
(1.01327 -0.00137269 -8.43477e-23)
(1.01331 -0.00160274 0)
(-0.0484195 -0.0234252 -3.4386e-21)
(-0.0778188 -0.020389 -4.54327e-20)
(1.04706 -0.0566574 -3.48364e-21)
(1.04855 -0.0555739 1.31749e-22)
(1.04681 -0.0547458 3.04082e-21)
(1.00795 -0.103424 1.00029e-21)
(1.01092 -0.101333 1.08701e-21)
(1.02167 -0.0057755 4.82021e-22)
(1.02161 -0.00541202 4.3813e-23)
(1.02121 -0.005566 -4.52261e-22)
(1.21188 -0.152474 4.75422e-21)
(1.21524 -0.148465 4.15216e-21)
(1.21799 -0.154414 -2.76319e-20)
(0.399433 0.0875211 -7.41915e-21)
(0.390168 0.0883341 9.75788e-23)
(0.442183 0.0928181 1.38688e-20)
(1.01566 -0.00183865 1.11741e-22)
(1.01591 -0.00188767 3.2321e-22)
(1.01572 -0.00170478 2.01763e-22)
(1.05155 -0.0412443 -7.32283e-21)
(1.05272 -0.040086 2.33583e-21)
(0.0640898 0.0738261 3.66619e-20)
(0.0900725 0.0799305 -2.15446e-20)
(1.08999 -0.219148 -3.43272e-20)
(1.18153 -0.23252 -6.79169e-21)
(1.22358 -0.246441 2.96074e-20)
(1.00019 -0.000168609 2.52727e-21)
(1.00019 -0.000216485 -2.70378e-21)
(0.513267 -0.339599 -4.38994e-21)
(0.531282 -0.31084 1.82952e-20)
(0.992474 -0.0218632 6.30053e-22)
(0.993111 -0.0220241 -4.51695e-21)
(0.992529 -0.0227062 -5.27881e-21)
(1.07109 0.048309 2.74234e-22)
(1.07172 0.0465357 -1.0243e-20)
(1.07008 0.0467735 3.0109e-22)
(1.0987 -0.262245 6.50475e-21)
(1.0935 -0.266776 3.24107e-21)
(1.10177 -0.267799 9.04535e-21)
(-0.197677 -0.0104872 6.68222e-20)
(-0.180018 -0.015413 6.0643e-20)
(1.18151 0.0283913 -6.23227e-21)
(1.17857 0.031902 1.31562e-20)
(1.18342 0.0321585 1.64246e-20)
(0.967638 -0.0451677 -3.97299e-21)
(0.969365 -0.0444396 -4.24873e-21)
(0.96769 -0.0430852 -3.97081e-22)
(1.01558 -0.0019789 -4.30725e-22)
(1.01544 -0.00176117 -1.84729e-22)
(0.993758 -0.00511589 -6.0398e-21)
(0.993946 -0.00477777 -2.32167e-21)
(0.994079 -0.00512514 1.30261e-23)
(1.10854 0.0134341 5.2301e-21)
(1.10659 0.014662 1.81893e-20)
(1.10672 0.0124908 -1.67948e-22)
(1.00041 -0.000131218 3.4046e-21)
(1.00038 -0.000187764 8.64238e-22)
(1.03236 -0.0215637 1.01137e-22)
(1.03152 -0.0216499 -2.61677e-21)
(1.03189 -0.0208372 -2.17205e-21)
(0.365257 0.0838962 -8.74433e-21)
(0.404765 0.085857 -2.66416e-21)
(0.303907 0.0823488 8.7016e-21)
(0.310507 0.0801085 0)
(0.27245 0.0741522 0)
(0.970136 -0.0246766 1.18461e-20)
(0.969917 -0.0260526 9.84186e-21)
(0.971297 -0.0254652 5.45647e-21)
(1.02171 -0.0061392 1.00952e-21)
(1.02214 -0.0059897 9.12492e-22)
(0.153147 -0.315825 2.16212e-20)
(0.174163 -0.2692 4.14237e-20)
(0.109806 0.0336012 -1.54326e-19)
(1.01725 -0.00895813 -5.91655e-23)
(1.01678 -0.00888152 7.49807e-23)
(1.01699 -0.00859358 6.23243e-23)
(0.994531 -0.0231794 3.50595e-22)
(0.993955 -0.0230175 -1.11913e-21)
(0.994465 -0.0224066 2.78751e-22)
(1.13848 0.100129 1.05539e-22)
(1.14255 0.0983535 1.24965e-20)
(1.1425 0.102718 1.96118e-20)
(0.228939 0.0965179 5.60173e-21)
(0.187371 0.085819 3.12493e-20)
(0.216364 0.0948456 2.18316e-20)
(0.884508 -0.316491 0)
(0.898981 -0.314031 0)
(0.89374 -0.329356 7.02761e-21)
(-0.0666523 -0.027227 -6.62769e-20)
(-0.0648331 -0.0269895 2.34358e-20)
(-0.0914513 -0.0252098 -3.17106e-21)
(0.0124389 -0.0236514 3.7076e-20)
(0.0124192 -0.0237554 4.12124e-20)
(0.0562481 -0.0264624 9.31696e-20)
(1.23377 -0.463189 2.75138e-20)
(1.2217 -0.46985 2.88964e-20)
(1.23374 -0.478228 -4.26489e-21)
(1.07216 0.0492033 4.10369e-21)
(1.07082 0.0497441 2.77914e-21)
(0.0744932 0.0478567 -4.04361e-20)
(0.116713 0.049374 4.10967e-20)
(0.122348 0.0540482 -3.80607e-20)
(1.13459 0.0996869 -6.60794e-21)
(1.13587 0.104171 -3.56883e-21)
(1.09386 -0.0283879 1.59435e-21)
(1.09374 -0.0307125 1.82137e-21)
(1.09172 -0.0288214 -1.00739e-20)
(0.439049 -0.162705 -4.89011e-20)
(0.495572 -0.186212 5.2454e-21)
(0.677483 -0.244694 -8.16107e-20)
(1.18408 0.0258565 7.14099e-21)
(1.17925 0.0258445 -2.51995e-20)
(-0.0543144 -0.0316644 -7.4813e-20)
(-0.0644496 -0.0333451 -3.26485e-20)
(-0.0357172 -0.0201211 -3.45356e-20)
(0.995309 -0.0233787 -2.23539e-21)
(0.994764 -0.0240623 -2.93987e-21)
(0.0380304 0.0464707 -4.50626e-21)
(0.0326287 0.0426814 -5.61412e-20)
(0.991916 -0.0217343 4.83727e-21)
(0.99244 -0.0211927 5.34253e-21)
(0.0961736 -0.0598929 6.95807e-20)
(0.0846072 -0.0611615 1.37603e-20)
(0.210855 -0.0840481 0)
(0.934246 -0.0828949 -1.41979e-20)
(0.930444 -0.0794501 -1.4538e-20)
(0.0107408 -0.0249635 0)
(0.0136971 -0.0244677 4.76114e-20)
(0.0556085 -0.0257907 0)
(0.104435 -0.061366 3.2324e-20)
(0.02887 -0.0461077 5.72798e-20)
(1.13039 0.100332 4.40535e-20)
(1.1328 0.096004 2.99222e-20)
(1.01767 -0.00904801 -6.93514e-23)
(1.01745 -0.00935094 -7.91179e-23)
(1.00158 -0.0173431 2.89402e-21)
(1.00128 -0.0171146 2.87229e-21)
(1.00134 -0.0176408 -4.43549e-22)
(0.104836 0.0261101 -1.4072e-20)
(0.0911271 0.0197056 7.6592e-21)
(1.03383 -0.128827 5.47059e-21)
(1.03091 -0.132353 1.14441e-21)
(1.02983 -0.127444 -2.65397e-21)
(0.000642942 0.0435595 3.57031e-20)
(-0.0387053 0.0393037 -4.32935e-20)
(-0.0396265 0.0400137 -3.13238e-21)
(1.1291 0.0423174 7.05767e-21)
(1.1276 0.0402524 -1.762e-20)
(1.1266 0.0426965 -1.72415e-20)
(1.11409 -0.131854 -6.76945e-21)
(1.10966 -0.131188 0)
(1.11264 -0.127944 0)
(0.190446 0.0123364 4.08097e-22)
(0.197142 0.0123754 8.46305e-21)
(1.09823 -0.660709 0)
(1.05222 -0.631993 1.5291e-20)
(1.02632 0.135584 -6.62411e-21)
(1.01579 0.138603 -7.39983e-22)
(1.06052 0.136149 0)
(0.238393 0.0968929 -2.6058e-20)
(0.28162 0.103082 -1.06991e-20)
(1.04146 -0.0375014 -9.26721e-22)
(1.04113 -0.0362883 4.79421e-21)
(1.04267 -0.0365467 5.50791e-21)
(0.963982 -0.0119172 0)
(0.964847 -0.0106329 -6.54177e-23)
(0.963208 -0.0103988 -7.89611e-21)
(0.25326 -0.0966455 -5.34365e-20)
(0.117711 -0.0667932 -4.01218e-20)
(0.562077 -0.904366 4.88322e-21)
(1.0103 -0.00571328 -5.89538e-22)
(1.01022 -0.00543186 -6.25478e-22)
(1.00997 -0.00555272 -1.26483e-21)
(1.00742 -0.0364412 0)
(1.00842 -0.0366273 0)
(1.00798 -0.0354658 0)
(0.789251 0.103035 -2.92887e-21)
(0.797982 0.107826 -3.39581e-21)
(0.720923 0.102312 1.23368e-21)
(-0.359446 0.00127762 -1.92762e-20)
(-0.38392 0.00266805 -1.15944e-20)
(-0.361077 0.000676736 -8.23984e-20)
(-0.329017 0.00638962 -2.43267e-20)
(-0.331449 0.00744544 3.6943e-20)
(-0.302727 0.0087645 -2.66014e-20)
(1.04963 0.0097425 8.89376e-22)
(1.04866 0.00937344 1.39481e-21)
(0.0108003 -0.0325794 -3.38667e-21)
(0.0653406 -0.037127 2.36324e-20)
(0.0105331 -0.0314988 -5.09445e-21)
(0.00375779 -0.0228121 0)
(-0.0260755 -0.0199655 0)
(1.11528 -0.0557563 5.77244e-21)
(1.11293 -0.0538754 -1.17859e-20)
(1.11223 -0.057239 2.30302e-20)
(0.987457 -0.0100998 1.22215e-21)
(0.987185 -0.0104437 -8.42486e-22)
(0.986846 -0.00990519 5.96879e-22)
(0.538282 -0.0665797 -7.71322e-21)
(0.498872 -0.0561743 0)
(0.438182 -0.0466106 2.74492e-20)
(0.599037 -0.624709 0)
(0.638323 -0.604467 0)
(0.641037 -0.65171 0)
(1.15627 -0.384858 2.93959e-20)
(1.15519 -0.396342 2.07193e-20)
(1.16512 -0.390498 -3.74564e-20)
(1.19123 -0.482312 6.00655e-21)
(1.15958 -0.467004 -8.82111e-21)
(1.28534 -0.0200861 0)
(1.3124 -0.0184429 0)
(1.23328 0.111665 -6.54267e-21)
(1.2292 0.116011 -6.76111e-20)
(1.23917 0.116782 -7.27344e-21)
(0.0664359 -0.0539289 -8.17955e-20)
(0.01868 -0.0390033 1.07164e-20)
(1.00258 -0.000150678 -2.90306e-22)
(1.0028 -0.000157198 -2.28366e-22)
(1.00352 -0.000246873 1.95419e-22)
(1.10526 0.0119186 -9.6165e-21)
(1.10396 0.0130228 -8.95511e-21)
(0.826785 -0.646165 -1.26659e-21)
(0.797569 -0.616824 -1.43766e-22)
(0.0305899 0.00794035 -1.88144e-20)
(0.0370956 0.0080275 1.47483e-22)
(0.925979 -0.21734 -8.85505e-21)
(0.91643 -0.218164 0)
(0.924085 -0.209838 -1.27516e-21)
(0.241056 -0.655262 -1.75516e-20)
(0.222121 -0.730569 -2.33678e-20)
(0.966835 -0.0626586 1.31532e-22)
(0.965843 -0.0648755 -2.14984e-21)
(0.968407 -0.0645822 3.40162e-21)
(1.14606 0.0973255 -3.07592e-20)
(1.14219 0.0949767 -2.98303e-20)
(1.11118 0.0113892 2.3335e-21)
(1.11254 0.0100333 -2.61613e-21)
(1.00201 -0.0176834 0)
(1.00188 -0.0170767 -2.13695e-21)
(0.78335 -0.252701 1.16255e-20)
(0.770971 -0.248127 2.1158e-20)
(0.774848 -0.26393 1.72947e-20)
(0.876398 -0.307709 0)
(0.870581 -0.324218 9.76195e-21)
(0.934139 -0.442282 -1.18974e-21)
(0.922296 -0.45337 -1.5535e-21)
(0.942341 -0.454615 -8.22403e-22)
(1.00297 -0.0309338 2.01895e-21)
(1.00355 -0.0316618 -1.60849e-22)
(1.00269 -0.0317361 1.25162e-21)
(1.00795 -0.197509 -5.88002e-21)
(0.94329 -0.181326 -4.60825e-20)
(1.03551 -0.021051 2.19611e-21)
(1.03589 -0.0220075 -3.70893e-23)
(1.04036 -0.0038878 -6.91362e-22)
(1.04014 -0.00326822 -7.59222e-23)
(1.03953 -0.00380867 -4.09336e-21)
(-0.0895778 0.0205069 1.81896e-20)
(-0.0984038 0.0206469 3.27212e-20)
(-0.11464 0.0141946 2.97552e-20)
(0.322848 0.0317024 -4.54637e-21)
(0.335729 0.0438446 -1.52036e-20)
(0.333562 0.0429296 0)
(1.09514 0.036736 1.70101e-20)
(1.09444 0.0375964 6.73726e-21)
(0.77593 0.142398 1.04572e-20)
(0.748654 0.13764 -1.50434e-20)
(0.707607 0.133649 -3.26112e-20)
(1.2433 -0.45135 -2.44396e-20)
(1.22815 -0.448564 -2.12349e-20)
(1.09157 0.123974 -2.53944e-21)
(1.09207 0.126165 1.56399e-21)
(1.08909 0.122149 -5.61637e-21)
(1.09379 -0.0327741 -1.43435e-20)
(1.09168 -0.0332885 -5.26319e-21)
(1.09377 -0.0351188 -5.19399e-21)
(0.999975 -0.000432667 -8.33388e-22)
(1 -0.000582301 -3.19378e-21)
(0.999979 -0.000465307 -4.63577e-21)
(-0.0621334 -0.0211647 1.81177e-20)
(-0.0593403 -0.0217076 -1.21448e-20)
(-0.0937424 -0.0202525 6.18879e-20)
(1.0848 -0.0482562 1.54917e-20)
(1.08348 -0.0465791 6.77535e-21)
(1.08232 -0.0485532 -5.94717e-21)
(-0.0309263 -0.0311859 4.18931e-20)
(0.0046634 -0.0332022 1.57181e-20)
(1.04569 -0.0575295 6.33589e-22)
(1.04738 -0.0585188 2.04624e-22)
(0.990332 -0.0367356 -3.93549e-21)
(0.98954 -0.0374258 -3.34486e-21)
(0.989371 -0.0360877 -3.71089e-21)
(0.999993 -0.000273379 4.38296e-21)
(1 -0.000135853 0)
(1 -0.000146326 0)
(1.01031 -0.0130241 7.19765e-22)
(1.01063 -0.0133261 1.29606e-21)
(1.01025 -0.0134129 1.36265e-21)
(1.07319 0.0519683 -7.85233e-21)
(1.07298 0.0503041 3.76129e-21)
(1.07171 0.0517354 4.38679e-21)
(0.175909 -0.0954483 1.4106e-20)
(0.241697 -0.122233 -4.48777e-20)
(0.082929 -0.0738031 3.67025e-20)
(0.991214 -0.0356516 -2.61063e-21)
(0.991507 -0.0371551 2.01852e-22)
(1.10467 -0.256928 -1.08177e-20)
(1.09636 -0.256737 -1.08967e-20)
(0.732519 0.00670209 4.19006e-20)
(0.67776 0.00660077 0)
(1.03886 -0.00748472 7.2751e-22)
(1.03969 -0.0076504 -5.0489e-21)
(1.03899 -0.00823842 -2.96057e-21)
(0.405976 -0.0617212 9.17517e-21)
(0.496717 -0.0767368 -5.25275e-20)
(0.388983 -0.0606633 -1.29393e-20)
(1.20034 -0.259638 -4.55791e-21)
(1.19454 -0.263611 2.81406e-20)
(1.19382 -0.25584 7.16325e-21)
(0.160743 0.0514639 3.98714e-20)
(0.217838 0.0573731 3.73096e-20)
(0.209498 0.0531122 0)
(-0.243235 -0.0058927 2.9927e-20)
(-0.24511 -0.00603418 5.6063e-21)
(-0.213544 -0.00713011 -1.86604e-21)
(1.00356 -0.00750943 1.30486e-21)
(1.00379 -0.00772748 0)
(0.32422 -0.132984 4.44034e-20)
(0.125015 -0.0766307 0)
(0.131686 0.0862055 6.86001e-21)
(0.139835 0.0867021 -4.51412e-20)
(0.182382 0.0925229 -3.32363e-20)
(1.07452 0.0521913 -8.23725e-21)
(1.07339 0.0536858 -2.91551e-21)
(1.16782 0.139964 2.97532e-20)
(1.16797 0.145207 2.79722e-20)
(0.691402 0.0428802 -3.14102e-21)
(0.626764 0.0358118 7.8104e-20)
(0.713911 0.0395226 9.25577e-21)
(0.967669 -0.0466957 1.95789e-21)
(0.965952 -0.0455401 -4.51002e-22)
(0.795425 -0.244734 -1.62084e-20)
(0.797598 -0.26063 -3.31228e-21)
(1.02963 -0.0325924 4.16365e-25)
(1.03065 -0.032842 1.0818e-22)
(1.03028 -0.0317644 6.50746e-24)
(1.00869 -0.00531894 -1.79262e-22)
(1.00841 -0.00514016 1.00909e-22)
(1.00865 -0.00501476 -1.72278e-22)
(-0.345958 0.00116271 3.58661e-20)
(-0.346625 -0.000658486 -1.74064e-20)
(1.09008 0.121004 0)
(1.09382 0.125385 0)
(1.0263 -0.00545027 -6.85262e-22)
(1.02671 -0.00527106 3.32181e-23)
(1.02682 -0.00577869 -1.8129e-21)
(1.06879 -0.00199139 0)
(1.06927 -0.000965061 -2.54188e-21)
(1.07007 -0.00217251 0)
(1.09562 0.124458 2.49899e-20)
(1.09686 0.122217 -2.7904e-21)
(1.09275 0.120034 7.34493e-21)
(0.99657 -0.0179345 -7.80868e-22)
(0.996453 -0.0184807 7.77457e-22)
(0.996983 -0.0183539 -4.5408e-21)
(-0.361949 0.00153829 5.05531e-20)
(-0.334179 0.000204815 5.77096e-20)
(1.0208 -0.00678419 4.77165e-23)
(1.02083 -0.00641438 -7.81419e-22)
(1.02038 -0.0065337 4.23725e-23)
(0.994761 -0.0159012 -3.60241e-21)
(0.994925 -0.0164099 -3.54199e-21)
(0.994374 -0.0163643 -3.69378e-21)
(0.932895 -0.21925 7.36101e-21)
(0.925468 -0.226591 -7.50748e-21)
(1.23767 0.10687 2.68803e-20)
(1.22853 0.106807 3.13103e-20)
(1.01004 -0.0480052 -1.20304e-21)
(1.01011 -0.0493911 1.59464e-21)
(1.00891 -0.0487642 -1.26473e-21)
(1.09481 0.0358073 2.23015e-21)
(1.09586 0.035827 1.01857e-20)
(0.969413 -0.148146 6.44913e-21)
(0.965649 -0.149978 -5.17639e-21)
(0.970412 -0.1525 1.19764e-20)
(1.18698 0.0234349 6.34684e-21)
(1.18843 0.0267674 2.864e-20)
(1.02579 -0.126869 -1.89592e-21)
(1.02325 -0.130674 -8.95619e-22)
(1.20705 -0.256433 -6.56266e-21)
(1.20842 -0.26413 -5.00412e-20)
(1.00053 -0.00198556 2.12804e-21)
(1.00047 -0.00183176 0)
(1.00046 -0.00189093 -1.17096e-22)
(1.02124 -0.00708399 0)
(1.0217 -0.00689525 0)
(0.737618 -0.198644 3.1656e-20)
(0.744909 -0.211583 -2.07662e-20)
(0.75356 -0.199768 -2.3683e-20)
(1.04407 -0.0582815 6.77567e-23)
(1.04396 -0.0565164 3.32771e-21)
(1.06759 -0.129968 3.15567e-21)
(1.06374 -0.131453 -4.75434e-21)
(1.06718 -0.134991 -2.35157e-21)
(1.16985 0.00297856 -4.83648e-21)
(1.17178 0.000656947 0)
(1.17276 0.00459765 -7.53873e-21)
(1.00177 -0.000521133 -2.87456e-21)
(1.00195 -0.000526842 -1.43464e-21)
(0.969274 -0.143792 0)
(0.973681 -0.146372 0)
(1.13375 0.0413105 -2.65668e-21)
(1.13633 0.0408588 3.58746e-20)
(1.13513 0.0435171 4.60388e-20)
(0.999994 -0.000279885 2.97268e-21)
(0.999985 -0.000452433 2.49211e-21)
(0.108533 0.0172512 7.00413e-21)
(0.0852602 0.0114148 1.1064e-20)
(0.104731 0.0195427 -1.0182e-20)
(1.00485 -0.102326 -2.2272e-21)
(1.00475 -0.105949 -5.02952e-22)
(1.00412 -0.00747836 -1.70151e-21)
(1.00436 -0.00749708 -3.47823e-21)
(1.00412 -0.00719611 1.22143e-21)
(1.11531 -0.135908 -2.03244e-20)
(1.11851 -0.132388 4.71265e-22)
(0.991619 -0.0394959 -2.0879e-21)
(0.992731 -0.0395606 -4.02663e-21)
(0.992028 -0.0384351 -6.92487e-21)
(1.07298 -0.120856 1.33636e-21)
(1.07614 -0.120434 0)
(1.07546 -0.124603 1.36634e-20)
(0.852581 -0.291649 9.95581e-21)
(0.847428 -0.279328 -1.7329e-21)
(0.861606 -0.283168 -8.07296e-21)
(0.063896 -0.0285481 8.89091e-20)
(0.0278715 -0.0272819 -3.05835e-20)
(0.025581 -0.0263238 1.53116e-20)
(0.841502 -0.299718 1.71037e-20)
(0.856778 -0.302693 -9.68385e-21)
(0.506881 -0.423031 -9.22372e-22)
(0.530685 -0.452306 -2.60223e-20)
(0.540195 -0.414493 0)
(1.01547 -0.00491677 4.8466e-24)
(1.01581 -0.00498122 7.23813e-23)
(1.01558 -0.00519466 4.92542e-23)
(0.217774 0.0418303 -1.14059e-21)
(0.151834 0.0359686 -3.8127e-21)
(1.00417 -0.00770792 1.42775e-21)
(1.04063 -0.0382786 -5.38048e-21)
(1.04203 -0.0384903 -2.8719e-21)
(1.11494 0.0883679 1.72967e-20)
(1.11685 0.0912495 0)
(1.1179 0.0876847 0)
(-0.0810786 0.0200481 -2.94626e-20)
(-0.0699968 0.0268254 -1.48157e-20)
(1.24939 -0.181187 0)
(1.25485 -0.181844 0)
(1.25124 -0.187068 0)
(1.13111 0.0419537 -2.03727e-21)
(1.13221 0.0391421 -1.06064e-20)
(1.15693 -0.06173 7.74679e-21)
(1.15632 -0.0570656 -3.17217e-20)
(1.15278 -0.0605884 2.78977e-21)
(0.974527 -0.2057 -4.09406e-22)
(0.979453 -0.210521 -2.16291e-21)
(0.972023 -0.213061 -2.98836e-21)
(1.02591 -0.00295051 -1.86513e-22)
(1.02587 -0.00259861 -9.61785e-22)
(1.02631 -0.00286677 -5.11121e-22)
(1.17425 -0.00287876 0)
(1.1769 -0.00511475 0)
(1.17773 -0.00063006 -1.83691e-20)
(0.993597 -0.00538892 1.06353e-21)
(0.99342 -0.00505115 0)
(1.18493 0.0201222 -1.00528e-20)
(1.18997 0.0204447 -1.81455e-20)
(-0.0509873 -0.02473 1.39972e-20)
(-0.0583563 -0.0226253 -1.26024e-22)
(-0.0812959 -0.0195 -3.64488e-20)
(1.12721 0.100551 2.00608e-22)
(1.12834 0.103956 7.11041e-21)
(1.00159 -0.000167666 2.21344e-21)
(1.00159 -0.000277753 2.9792e-22)
(0.996734 -0.0173621 3.90918e-21)
(0.9962 -0.0175184 9.71663e-22)
(1.02599 -0.00334724 8.54598e-22)
(1.02545 -0.00307164 9.00207e-22)
(1.0128 -0.00178175 3.3184e-22)
(1.01265 -0.00191541 1.71559e-22)
(1.01258 -0.00168664 1.61333e-22)
(0.648321 -0.0797558 -8.28462e-21)
(0.574649 -0.0710093 1.54441e-20)
(1.09341 -0.0988635 5.943e-21)
(1.09054 -0.0990679 -4.16048e-21)
(1.09252 -0.102245 -4.91869e-23)
(1.00825 -0.0126529 1.42385e-21)
(1.00823 -0.0129415 1.28727e-21)
(1.00856 -0.0129067 5.68032e-22)
(1.25485 -0.279141 5.43323e-20)
(1.26046 -0.287758 1.80615e-20)
(1.26929 -0.281852 -4.26256e-20)
(0.980053 0.134727 -2.07744e-20)
(1.0313 0.132275 4.62536e-22)
(1.05347 -0.0248526 0)
(1.05458 -0.0249353 -3.03358e-21)
(1.05375 -0.0238611 0)
(0.806746 0.147329 -3.36734e-20)
(0.849713 0.152119 8.95659e-22)
(0.0697681 0.0298457 2.29283e-20)
(0.0848119 -0.124075 4.54328e-20)
(-0.068495 -0.0252576 4.9152e-20)
(1.12355 0.100574 -1.61737e-20)
(1.1261 0.0965823 -7.73158e-21)
(0.999335 -0.000844608 1.01322e-21)
(0.999304 -0.000751514 -7.01687e-21)
(0.0108118 -0.0234821 -8.88764e-20)
(0.0121354 -0.0238467 1.27057e-20)
(0.0575265 -0.0254677 -8.68103e-20)
(0.89359 -0.0778998 6.11052e-21)
(0.890809 -0.0730664 -5.61029e-21)
(0.896169 -0.0736219 4.64072e-21)
(0.999007 -0.00138137 -1.08682e-21)
(0.998978 -0.00153623 6.17088e-22)
(0.998887 -0.0015546 -4.17029e-21)
(0.402737 -0.0577565 3.01004e-20)
(0.308816 -0.0476362 -3.67624e-21)
(1.09548 -0.0283436 3.2454e-21)
(1.09382 -0.0266098 -1.00974e-20)
(0.889933 -0.0823383 2.05382e-20)
(0.895634 -0.0824989 1.93317e-20)
(1.04574 0.00355081 3.2889e-21)
(1.04599 0.00419315 1.69791e-21)
(1.04656 0.0035648 2.28988e-22)
(1.12165 -0.0608814 0)
(1.11875 -0.0603104 3.35962e-23)
(1.12107 -0.0576899 2.32409e-20)
(1.13526 0.12987 0)
(1.13889 0.133949 0)
(1.13982 0.128918 1.27026e-20)
(0.47567 -0.433938 -6.08093e-20)
(0.487401 -0.400249 1.23055e-20)
(1.06992 -0.122211 2.05199e-21)
(1.07013 -0.11835 2.41111e-21)
(0.913038 -0.311787 -1.36449e-22)
(0.921252 -0.321758 -1.22429e-22)
(0.925261 -0.308611 -9.05443e-22)
(1.02949 0.00185494 -4.47268e-23)
(1.03 0.00199913 -8.91739e-22)
(1.13095 0.0285428 -2.51132e-20)
(1.13055 0.0311956 -3.65597e-21)
(1.12829 0.0294927 7.60378e-21)
(0.998997 -0.00755706 0)
(0.998982 -0.0079535 0)
(0.999162 -0.00766978 4.09832e-21)
(1.1674 0.00609649 2.67851e-20)
(1.16648 0.00189367 -5.18568e-21)
(1.00207 -0.101115 -2.3593e-21)
(1.00505 -0.09922 -7.16082e-23)
(1.11302 0.0861529 1.51209e-20)
(1.11277 0.0896551 -4.82838e-21)
(-0.319979 -0.00709541 -3.70156e-20)
(-0.331786 -0.00247957 -6.00883e-20)
(-0.324174 -0.00892319 7.4977e-20)
(1.01514 -0.00489443 6.07874e-24)
(1.01534 -0.0046879 -2.77647e-23)
(1.04059 -0.0339846 -1.89313e-22)
(1.04188 -0.0342393 -8.50473e-22)
(1.04086 -0.0351324 -1.08142e-21)
(1.00759 -0.465927 0)
(1.02669 -0.463454 9.39383e-21)
(1.01989 -0.486853 -1.04054e-20)
(1.04028 -0.0329057 2.2904e-21)
(1.03931 -0.0337246 1.98947e-21)
(1.06759 -0.00168531 0)
(1.06818 -0.00289567 0)
(1.17035 -0.00416615 1.06556e-20)
(0.559632 -0.0193006 1.17906e-20)
(0.653388 -0.0232467 -6.52361e-20)
(0.585012 -0.0221874 -5.48851e-21)
(-0.33015 0.00497272 0)
(-0.35154 0.0054857 4.03719e-20)
(1.00108 -0.0304897 -9.08688e-22)
(1.00175 -0.0301192 6.45526e-22)
(1.00095 -0.0295721 -1.52639e-21)
(1.21092 -0.138561 2.22492e-21)
(1.20639 -0.133399 -9.42835e-21)
(1.20476 -0.140512 2.84239e-20)
(0.310923 0.112465 3.70754e-20)
(0.14501 0.0502021 1.42863e-20)
(0.364645 0.0834942 -8.07054e-21)
(1.20635 -0.477249 1.2701e-20)
(1.19721 -0.458928 2.1802e-20)
(1.0076 -0.0540268 -2.44273e-21)
(1.00636 -0.0533241 -1.12671e-21)
(1.00768 -0.0524851 -2.00039e-21)
(1.02979 -0.00903278 1.3538e-21)
(1.03042 -0.00930518 -3.54994e-22)
(1.03028 -0.00863355 -1.18547e-21)
(1.07378 -0.076761 -7.01516e-21)
(1.07591 -0.0767701 -5.04295e-21)
(1.07471 -0.0741294 -1.03979e-20)
(1.09672 -0.0979661 -9.11414e-21)
(1.09442 -0.0950206 6.73346e-21)
(1.00246 -0.0303281 2.20174e-21)
(1.00322 -0.0302864 0)
(0.30013 0.161743 4.98238e-21)
(0.320528 0.14046 2.02644e-20)
(1.25114 -0.271246 4.27404e-20)
(1.24477 -0.277237 4.34171e-20)
(0.81557 0.0673563 1.31301e-21)
(0.768513 0.068156 0)
(0.799505 0.0672784 0)
(0.0237038 0.00767457 2.22091e-21)
(-0.0150316 -0.0261302 1.09185e-20)
(1.02489 -0.00538254 -7.69396e-22)
(1.02525 -0.0051059 0)
(1.02472 -0.00494086 0)
(1.01552 -0.00020367 -7.17965e-22)
(1.01549 -0.000127478 -3.20357e-22)
(0.981821 -0.223058 1.55954e-21)
(0.975319 -0.225601 8.85909e-23)
(0.981628 -0.231142 3.21983e-21)
(0.107218 -0.0287838 3.35047e-20)
(0.109081 -0.031689 -1.7556e-20)
(0.918418 -0.0429267 -9.24982e-21)
(0.920436 -0.0397952 -5.73531e-21)
(0.92209 -0.0430188 1.61494e-21)
(0.904943 -0.302305 1.17504e-21)
(1.20451 -0.0142424 1.57522e-20)
(1.20259 -0.0104864 1.42513e-20)
(1.20016 -0.0144351 -1.45765e-21)
(1.06828 -0.0810323 -3.23379e-21)
(1.07087 -0.0814601 7.05861e-21)
(1.06871 -0.0839443 -7.65662e-21)
(-0.026322 -0.0223856 1.09005e-20)
(1.03708 -0.00651592 -2.80579e-21)
(1.03683 -0.00584898 6.56425e-22)
(1.04215 0.0505071 -3.92846e-21)
(1.04973 0.0511096 7.34101e-21)
(1.03781 0.0522774 -3.45866e-21)
(0.10838 0.0457843 8.61594e-20)
(1.01296 -0.00166539 0)
(1.01293 -0.00143463 4.11272e-23)
(0.459336 0.068434 -7.08459e-21)
(0.426846 0.0647627 -2.05228e-21)
(0.436616 0.064673 -3.09956e-21)
(0.956003 -0.164516 -1.1251e-21)
(0.958687 -0.169475 8.06671e-21)
(0.952127 -0.169486 -5.03808e-21)
(1.03287 -0.0223977 1.91018e-21)
(1.03325 -0.0214271 -1.87177e-22)
(1.06075 -0.113008 1.0049e-21)
(1.06447 -0.11529 -4.2771e-21)
(1.06416 -0.110314 5.78611e-21)
(1.19245 -0.0610865 4.97754e-21)
(1.19165 -0.0560491 9.03369e-21)
(1.18771 -0.0606192 -1.26506e-20)
(1.05124 0.000147081 -1.68257e-21)
(1.05098 0.000879824 3.23518e-21)
(1.052 0.000649265 -7.81888e-23)
(0.999102 -0.00125491 4.36792e-22)
(0.999011 -0.00125225 1.73144e-21)
(-0.250141 -0.00705081 3.03228e-20)
(-0.248907 -0.00858574 7.53932e-21)
(-0.225701 -0.00913266 7.00257e-20)
(0.840963 0.0647224 8.95448e-21)
(0.873361 0.0641553 -5.04614e-21)
(1.00124 -0.0129143 2.03426e-21)
(1.00149 -0.0131523 -1.28003e-21)
(1.00119 -0.0132601 1.87304e-21)
(-0.242089 -0.00664142 -1.0678e-20)
(-0.248085 -0.00475679 7.32752e-21)
(-0.252562 -0.00270692 -1.25329e-19)
(-0.0248183 -0.0215394 7.0073e-20)
(1.24379 -0.180257 2.03468e-21)
(1.2476 -0.175346 7.96288e-21)
(0.997786 -0.00805387 1.01688e-21)
(0.997683 -0.00840098 4.45253e-21)
(0.997591 -0.00800818 7.22916e-21)
(1.00273 -8.23146e-05 5.07738e-22)
(1.05744 0.0739182 -1.49998e-21)
(1.05693 0.0761778 2.972e-21)
(1.04883 0.0756247 6.27227e-21)
(1.05226 -0.0248873 -2.06451e-21)
(1.05304 -0.0261311 -2.69919e-21)
(1.02576 -0.00524044 2.12278e-21)
(1.02589 -0.00577673 1.4558e-21)
(1.03049 -0.010523 3.28204e-22)
(1.03058 -0.0109826 8.59256e-22)
(1.0311 -0.0105364 -1.16297e-21)
(0.947118 -0.0140123 -5.94401e-21)
(0.944978 -0.0136146 0)
(0.946296 -0.0115306 0)
(1.18845 -0.267845 -1.57733e-21)
(1.1956 -0.271841 0)
(1.19352 -0.0649502 2.63948e-20)
(1.19712 -0.0606127 2.28347e-20)
(1.07278 -0.0791472 2.98073e-21)
(1.07138 -0.0766028 -8.89339e-21)
(1.08751 -0.0978788 -6.11998e-21)
(1.08757 -0.101026 -3.19201e-21)
(1.01471 -0.125483 -2.04955e-22)
(1.01571 -0.129344 9.72968e-24)
(0.940642 -0.219308 2.95991e-20)
(0.939895 -0.226011 4.53118e-21)
(1.02898 0.00173892 -1.41768e-21)
(1.02935 0.00141625 0)
(0.999989 -0.000400117 -7.35161e-22)
(0.99999 -0.000395008 4.12796e-21)
(1.22745 0.122335 -1.95491e-20)
(1.22187 0.11685 6.05277e-21)
(1.0622 -0.204337 -5.61941e-21)
(1.05911 -0.209803 -1.03382e-20)
(1.06594 -0.20923 1.62752e-20)
(1.21528 -0.142679 -1.95402e-20)
(1.21619 -0.136131 1.25764e-20)
(0.309084 0.11698 2.48418e-21)
(0.286395 0.124637 -2.0503e-21)
(0.915187 -0.0432352 -1.15835e-20)
(0.91732 -0.0463794 6.94242e-21)
(1.00995 -0.04663 -9.56231e-23)
(1.01115 -0.0471458 -1.47348e-21)
(1.00423 -0.000213124 -3.41126e-22)
(1.00469 -0.000206116 -3.30847e-22)
(1.00592 -0.000213613 7.01187e-22)
(1.04734 0.0487206 -4.66363e-21)
(1.02518 0.0527995 3.61784e-21)
(0.495309 0.0712886 -5.05033e-21)
(0.486989 0.0719797 -5.83663e-21)
(1.02609 -0.00376142 4.39953e-22)
(1.02653 -0.00362427 0)
(1.00455 -0.00747367 -1.18228e-21)
(1.00478 -0.00746914 -1.03727e-22)
(1.00452 -0.00717993 1.49991e-21)
(1.0261 -0.00413787 5.63191e-24)
(1.02563 -0.00380817 8.6488e-22)
(0.967519 -0.0606561 3.12676e-21)
(0.965379 -0.061182 2.35e-21)
(0.968789 -0.200916 3.81715e-21)
(0.975816 -0.199085 6.28519e-21)
(1.32048 -0.158929 4.31847e-20)
(1.31396 -0.16484 1.60851e-20)
(0.988086 -0.0101284 4.96838e-21)
(0.987757 -0.00960181 5.53338e-21)
(0.967543 -0.0110877 -1.15443e-20)
(0.968835 -0.0112435 1.05987e-21)
(0.968216 -0.00986075 -5.10751e-21)
(1.02236 -0.00509224 -1.10758e-21)
(1.0227 -0.0048898 2.359e-23)
(1.02224 -0.00471259 -5.68858e-22)
(0.611819 -0.533098 1.20829e-21)
(0.575916 -0.550108 -6.98786e-21)
(0.947589 -0.43027 1.65052e-21)
(0.927464 -0.428697 4.82665e-22)
(1.23653 -0.00826253 8.84562e-22)
(1.2408 -0.0106173 -2.47487e-20)
(1.23636 -0.0135849 -3.70308e-22)
(1.11747 -0.303704 0)
(1.11401 -0.312625 5.37289e-21)