/*--------------------------------*- C++ -*----------------------------------*\
| =========                 |                                                 |
| \\      /  F ield         | OpenFOAM: The Open Source CFD Toolbox           |
|  \\    /   O peration     | Version:  v2012                                 |
|   \\  /    A nd           | Website:  www.openfoam.com                      |
|    \\/     M anipulation  |                                                 |
\*---------------------------------------------------------------------------*/
FoamFile
{
    version     2.0;
    format      ascii;
    class       volScalarField;
    location    "250";
    object      p;
}
// * * * * * * * * * * * * * * * * * * * * * * * * * * * * * * * * * * * * * //

dimensions      [0 2 -2 0 0 0 0];


internalField   nonuniform List<scalar> 
18355
(
-0.0648734
-0.0472719
0.0198087
0.003589
-0.0170403
-0.0778088
0.0144608
-0.115152
0.0790778
-0.0584357
-0.00205901
-0.397962
-0.155342
0.034878
0.00180335
0.0397286
-0.421501
0.00504462
0.0211592
-0.0444487
0.0579118
0.0494591
-0.14802
-0.0164411
-0.0248077
0.0225245
0.0250066
0.076889
-0.0981145
0.0307193
-0.0114726
-0.0220722
0.00506957
0.00674183
-0.109816
-0.0688459
0.0640764
-0.184917
0.075623
-0.00236722
0.0353679
0.044811
0.020045
-0.0739702
0.00124455
-0.194974
-0.114028
0.0859891
-0.101067
0.00568772
-0.00032095
0.00738365
0.0215389
-0.0541692
0.0197857
0.0136342
-0.0519442
0.00221266
0.417871
-0.210241
0.00605828
-0.0912522
0.00397173
0.00306208
-0.396847
-0.0622732
-0.0834613
0.156148
0.0246947
0.0482256
-0.132412
0.0154826
-0.217563
0.00870832
-0.115742
0.01442
-0.0564206
-0.0224237
-0.0332172
0.0072304
0.0147437
-0.286706
0.0558278
-0.0425059
0.0226873
-0.152329
-0.0597376
-0.0445421
-0.102471
-0.0719729
-0.106971
0.00123115
0.0207894
-0.000311009
-0.1391
-0.151565
-0.00149612
-0.0387176
-0.0525863
-0.416462
-0.106582
-0.418838
-0.0711237
-0.094657
-0.0166844
-0.112628
-0.406486
-0.132577
-0.0656634
0.34538
0.0260386
0.070838
0.0230495
0.0726574
-0.048919
0.0127863
0.467545
-0.0540712
0.467205
-0.067651
-0.0602385
-0.355457
-0.0218516
-0.132581
-0.000942389
-0.13588
0.00691627
0.0199102
-0.374906
-0.000162646
-0.000264163
-0.184344
-0.085777
-0.0377756
0.0987714
0.0197922
0.00394809
-0.00214836
0.0315419
-0.144632
-0.109918
-0.13497
0.0284052
0.0263833
0.450103
0.0493481
0.107381
-0.0616323
-0.030334
-0.0628575
-0.0166744
0.0499348
-0.104835
0.441825
-0.0599934
0.0163764
-0.179441
0.474979
0.0162717
-0.0967771
0.0168577
-0.018914
0.112051
-0.0387391
-0.0548621
0.19123
-0.417784
-0.092114
-0.205198
0.0068227
-0.171647
-0.159269
-0.00145744
-0.00190791
0.0370898
-0.0477305
-0.047842
0.0199084
-0.369257
-0.403815
0.287402
-0.201768
-0.0486627
0.0125193
-0.0605032
-0.0502778
-0.0950189
-0.114322
0.0811027
-0.421112
-0.051522
0.0198656
-0.0379342
-0.0820038
0.11361
0.0481103
-0.279056
-0.0476498
-0.0700816
-0.00173696
-0.0236678
0.0809455
-0.412221
-0.101825
-0.355447
0.0299628
0.470921
-0.419636
-0.394478
-0.0682853
0.00437008
-0.0161745
-0.0423904
0.0279175
0.00706098
-0.278699
-0.0461298
-0.0437617
0.0229644
-0.0293979
-0.300209
0.0299917
-0.0367331
0.00374112
-0.420271
0.0403038
-0.419373
-0.0546458
0.371486
0.00520668
0.0214631
-0.032045
-0.00193216
-0.421371
0.0130412
0.0221323
0.0200055
-0.170114
-0.0792863
-0.35289
-0.0634387
-0.2119
-0.0115894
0.00770326
0.043203
-0.053544
-0.376022
0.510388
-0.0589412
0.0151481
-0.0231697
0.194721
-0.0489943
-0.400004
0.0355087
-0.423438
-0.0418186
-0.0988725
0.0256512
0.00999761
-0.0584706
-0.142939
-0.415613
-0.0882632
0.00966451
0.0072178
0.021084
-0.212137
-0.0807293
0.346557
0.043539
-0.0666556
-0.11563
-0.112799
-0.00966993
-0.288558
0.00688334
0.0268668
-0.293104
0.00775335
0.014559
-0.117185
0.019221
-0.152095
-0.0481139
0.0935207
0.00798685
-0.0916492
-0.405446
-0.0225891
0.00385102
0.0317971
-0.0968079
-0.0540073
0.0209792
0.0149943
-0.0418557
-0.0816274
-0.0574775
0.255214
0.0265788
-0.138009
0.0595608
0.0149958
0.265183
-0.0545592
-0.0470356
-0.0962841
-0.000116982
0.300462
-0.0154247
0.0221258
-0.364826
0.0234436
-0.215927
0.0594714
0.0207856
0.0016125
-0.216064
-0.0794268
-0.417326
0.00913412
0.108315
-0.0751965
-0.00644243
-0.0819981
-0.0295954
0.0609022
-0.0854609
5.44366e-05
0.148263
0.0236798
0.100123
0.0142148
-0.0579745
-0.416083
0.0214829
-0.417427
-0.0759946
0.026967
-0.110263
-0.0910817
-0.108195
-0.04907
-0.0839798
0.0350349
0.00406443
-0.209079
0.270709
0.0213882
0.0155878
-0.0467723
-0.0593247
0.240148
-0.204284
0.0242709
-0.0284094
0.502149
0.0253546
0.0132343
-0.133855
-0.0672388
-0.0305697
-0.0696013
0.0191736
0.173731
-0.309462
-0.379319
0.00383907
0.0382767
0.0297221
0.000672101
0.15487
0.000158788
-0.0826553
0.0293188
-0.00489244
0.0242344
0.0778302
-0.00777971
0.0163561
-0.00647212
-0.00655112
0.0301163
0.361292
-0.201551
0.00266362
-0.0911366
0.0728035
-0.200755
-0.0611616
-0.147648
0.0446688
-0.112156
0.0622044
0.0129227
0.0223056
0.00210921
-0.0535888
-0.0276575
0.00125856
-0.090278
-0.0785638
0.0251947
-0.00642706
-0.421024
0.047496
0.00732389
0.270384
0.0183731
0.513656
-0.419701
-0.129873
0.1041
-0.0161191
-0.40498
0.0154711
0.0242765
0.298786
0.0177472
-0.00128818
-0.421733
0.0083282
-0.416695
-0.0539409
-0.0510631
-0.420534
0.0596127
0.0239125
-0.0585853
-0.0758541
-0.17704
-0.101324
0.029026
0.0127949
0.0504164
-0.0448355
0.0638635
0.0213138
0.016684
0.0292271
0.179051
0.497995
0.0364162
0.0493933
0.0212582
-0.0601308
-0.10036
-0.0539684
-0.422388
-0.1517
0.221359
0.158988
-0.0727103
-0.0133308
0.0105141
0.0314657
0.00252367
0.170609
0.0262566
0.00133994
-0.416617
0.186779
-0.105369
-0.0698761
0.230286
-0.0493162
0.0126202
-0.00726305
0.0292134
0.0147385
0.0166218
0.0213391
0.0267295
-0.133169
0.00807074
0.000329852
-0.347279
-0.213568
0.0107897
-0.0220539
0.0754436
-0.323205
0.0368556
-0.00259249
-0.0993547
0.0784558
-0.0702504
-0.0294267
0.000788451
-0.417363
-0.216275
0.00523293
-0.403262
-0.124857
-0.423348
0.00133665
-0.00235533
0.00056149
-0.0905696
0.0584862
-0.0663849
-0.0483753
-0.0927403
-0.348969
0.00186295
-0.0526749
-0.0474607
-0.155265
-0.050329
0.04613
0.0439127
0.0213277
-0.105001
-0.418773
-0.109309
0.0390652
0.0309946
0.0239118
0.0674392
0.0264477
-0.0544494
0.0230202
-0.0482837
0.0377689
0.0287126
0.0101815
0.15067
-0.00133253
-0.0973621
0.0194382
-0.0977202
-0.198696
-0.0422719
0.0246946
0.0816049
-0.0383514
0.0186991
-0.0685486
-0.0689814
-0.0421516
-0.214139
0.0151416
0.00516981
0.0308134
0.0215361
-0.0861803
-0.0298458
-0.0939317
0.012707
-0.0167821
-0.198736
0.000308266
0.158398
0.0628283
-0.192738
0.0910388
-0.0499441
-0.0171615
-0.0829636
0.0943446
0.0857178
-0.0393525
-0.198593
-0.40089
-0.0407748
-0.0265886
0.00144536
0.0296753
-0.0628717
-0.105768
0.0509956
-0.0679823
-0.131485
-0.0526513
0.0110638
-0.415567
-0.201096
-0.0222072
0.0301478
0.160327
-0.0690707
-0.0567331
0.0187266
0.27689
-0.205996
-0.111453
0.142462
0.0472369
-0.0394237
-0.121516
-0.0480358
-0.0880657
-0.371417
0.164441
-0.157517
-0.0478317
0.0137633
-0.0228438
0.0300689
0.439101
0.370273
-0.0482574
0.350138
-0.395359
-0.190747
0.267941
0.0403238
-0.0471423
-0.417605
-0.00229175
0.370965
-0.0919705
-0.312518
0.032914
0.00220312
-0.0384936
-0.0374428
-0.0373776
-0.139505
0.0231436
-0.0648226
0.0322946
0.0564326
-0.104684
0.0142703
6.43569e-05
-0.0469864
0.0239686
-0.0130377
-0.278747
0.00722659
-0.0954586
0.000121385
-0.171
-0.0411442
-0.0589817
0.0558949
-0.0229117
-0.0915659
0.0971332
-0.0641624
-0.0623673
-0.0115871
-0.162635
-0.0588159
0.0873865
-0.423937
-0.336998
-0.10278
0.0261879
0.00169328
-0.127527
0.0838327
-0.070652
0.0186464
-0.0491524
-0.154183
-0.105347
-0.0859107
-0.0848732
0.172533
0.0133083
0.00211361
0.0186187
-0.0933143
-0.0833306
-0.00429761
-0.393176
0.0293806
-0.0781034
0.00172207
-0.401013
-0.420546
0.0314142
-0.00217248
-0.0729265
0.0185094
0.00494552
-0.196494
0.368569
0.0554941
0.0292465
-0.0552647
-0.100939
-0.033159
0.264184
0.0157895
-0.0478289
-0.0812305
0.0415501
0.41954
-0.163923
0.015183
-0.107229
0.00333148
0.0236417
0.0583365
0.179396
-0.422539
-0.0745448
-0.0481618
0.00937666
-0.0524609
-0.355702
-0.0486212
-0.393953
0.0386883
-0.419433
-0.0226562
-0.0619813
-0.0459853
0.0290308
0.371263
0.00124376
0.0975802
-0.405359
0.304738
-0.406536
0.0094825
-0.050862
0.0345077
-0.0598765
-0.014795
0.0260885
-0.038514
0.00913135
0.00321259
-0.0696862
-0.0937531
-0.30757
0.0128773
0.502066
-0.0473698
0.00959371
0.0240969
0.0805747
-0.105668
-0.408395
-0.0709366
0.00667111
-0.00656156
-0.0463147
0.0289026
0.0241779
0.00907149
-0.00857069
-0.0601899
-0.0665513
0.014307
-0.222588
0.106345
-0.198098
-0.420354
-0.0850258
0.00199906
-0.0508697
0.0195384
0.00712781
-0.0479192
-0.0925473
0.00967972
0.00192337
0.00418178
-0.414184
0.0643447
-0.0120153
-0.0207993
-0.0531123
-0.0913596
-0.405804
0.0166285
0.0345477
-0.0935822
0.0402609
-0.388863
-0.0476999
-0.41915
0.252659
0.104646
-0.0490563
-0.0397551
0.0227652
0.00812158
0.0241531
0.0530518
0.0214305
0.0544843
-0.382869
-0.143275
-0.00915051
0.289881
0.00762232
0.0117116
-0.076103
0.0199979
0.0578438
-0.0136184
0.458885
0.507306
-0.136979
-0.405667
0.163653
-0.0795137
-0.0888594
-0.0422805
-0.354397
-0.0831993
-0.160484
-0.05222
-0.424681
-0.00971665
0.0294037
0.0144547
-0.0383774
-0.0377114
0.00697283
0.0220006
-0.140655
0.0094355
0.00539419
0.00816705
0.0152192
-0.0456271
-0.0114395
0.0350252
-0.05532
0.00358648
-0.230905
0.382729
0.0257157
-0.019363
0.00970704
0.0621586
0.00958929
-0.0171064
-0.343896
0.0328827
-0.210618
-0.00951438
-0.19732
-0.0284105
-0.0563583
0.0233192
-0.0528362
-0.0716732
0.0226961
0.0250304
-0.218146
0.0303972
-0.422397
-0.42107
0.0444597
0.0141252
0.0196886
9.95934e-05
-0.198133
0.0286352
-0.194294
-0.13384
-0.0804611
-0.419044
0.00693768
0.0200513
-0.415745
-0.35827
0.0956234
0.0209845
0.0285405
0.00751803
-0.0203253
0.143848
0.396228
-0.0184709
-0.0696561
0.504814
-0.0444194
0.15666
-0.00800916
-0.24306
-0.166346
-0.0230123
0.0229927
0.0462972
-0.327961
0.0265422
-0.177684
0.157571
0.0162077
0.0769106
0.00154173
-0.0691376
-0.036622
0.00955154
0.000668916
-0.0194155
-0.0997288
0.0159761
-0.0473325
-0.0589095
0.0455449
0.0190964
0.176174
-0.0835179
-0.0602564
-0.269482
0.0617875
3.4679e-05
0.0805171
-0.0463417
0.427164
0.501956
0.00731383
0.147494
0.0225436
-0.264363
-0.00177498
-0.0503512
0.148611
-0.202267
0.0157798
0.0114394
0.120167
0.0263403
-0.101891
-0.0128998
0.382089
0.0161996
0.00761454
0.0882536
-0.206653
-0.421621
-0.000504839
-0.0185307
0.0605232
-0.0118385
-0.00449548
0.0219946
-0.158037
0.0223639
-0.0505412
0.017722
-0.390114
-0.010764
0.000340608
-0.335819
-0.358032
-0.113344
0.0117334
-0.0564749
-0.0112054
-0.100734
0.0602748
-0.211365
0.00691484
-0.421064
0.0181415
-0.0344835
0.0266504
0.0211011
0.0186961
-0.0481951
-0.0909048
-0.0549436
0.160241
-0.0369147
-0.0193198
0.014914
0.00407646
0.00727815
0.0345683
-0.225334
-0.0142167
-0.138087
-0.183344
0.0206889
0.0643172
-0.0992458
-0.064266
0.0633362
-0.0211198
0.0759967
-0.422126
-0.0712329
-0.411803
-0.0489967
-0.0648074
0.259646
0.0325096
0.0149464
-0.137526
0.105617
-0.0101582
-0.113261
0.0876597
-0.418933
0.0213086
0.35203
0.174791
-0.136803
0.0443122
0.0261407
-0.345177
-0.0111873
-0.138452
0.04213
0.0264523
-0.398514
-0.061425
-0.0333028
-0.405949
0.0121646
0.33644
-0.050009
0.0294263
-0.0443833
-0.0505795
0.0319082
0.0149531
-0.0110833
-0.032364
-0.0324486
-0.0617809
-0.0407667
-0.0209554
0.0331846
-0.0593468
0.00250787
-0.418873
-0.0275262
-0.016681
-0.187439
-0.416601
0.00692992
0.0185558
-0.0308038
0.00138426
0.00385501
-0.234692
0.0190083
-0.0321514
0.00177939
0.261452
0.00543629
0.360031
0.384375
-0.0197864
-0.0623296
0.0131225
-0.0261717
0.0155327
-0.0731036
0.0335208
0.0101778
0.0221527
-0.00152157
0.0178939
-0.11997
-0.421674
-0.406931
-0.418506
0.0186449
0.0594602
-0.0532349
0.047426
-0.00157747
0.181329
-0.127278
0.0165734
-0.0105487
-0.239413
0.0152606
0.0184768
-0.0535965
-0.074832
-0.0440855
0.0792164
-0.00738557
-0.416152
0.0516144
0.166038
0.0160856
-0.0434343
0.0344487
-0.147154
-0.204401
-0.0570388
0.0192584
-0.414892
0.0688253
0.0103491
0.0124305
0.0427844
0.0264774
-0.00852559
-0.0522705
0.0124867
-0.107538
-0.0115207
-0.0490304
-0.363865
0.00871325
-0.148596
0.0556309
0.00862907
0.0824034
-0.0692378
0.0242744
0.00263449
0.0180375
0.037155
-0.0674203
0.00412937
0.0510917
0.102734
0.0193968
0.00620441
-0.42078
-0.051312
-0.0472304
-0.229427
-0.114959
-0.137381
-0.358335
-0.0408691
0.00208144
0.0523931
0.0027695
0.360846
-0.042831
0.00977124
-0.000596509
0.000579357
0.0162457
0.0155146
-0.0281819
-0.39135
-0.412701
-0.421258
-0.10633
0.0197304
0.0148968
0.0182785
-0.404538
-0.359659
-0.0089924
0.514895
0.00360987
-0.0681279
-0.0211902
-0.0309875
-0.0655274
-0.182644
0.0572227
0.359118
0.00264924
0.011074
-0.152356
0.0192202
0.0135557
-0.0689695
-0.0828867
0.0182227
0.132517
0.0185595
0.035331
0.00891769
0.0318001
-0.0780623
0.00958118
0.0300793
0.0507521
-0.0632628
0.383437
0.0254452
0.160796
-0.062465
-0.41875
-0.185249
-0.419221
-0.216476
-0.0481665
-0.0898311
-0.105307
-0.0950505
-0.420041
0.00170018
0.0186587
0.024385
0.380649
0.0429348
-0.376895
-0.00606526
0.0276948
-0.395218
-0.117288
0.0571332
0.278356
0.015247
0.072788
-0.305695
-0.0452737
0.0236346
-0.326003
-0.212043
-0.27901
-0.0476354
0.0300844
-0.390961
0.0164216
-0.0525373
0.0110501
0.0101257
-0.0484046
0.110863
2.3447e-05
0.0199344
-0.417374
0.00434166
-0.129173
-0.148246
0.0193264
-0.00094207
0.0963829
-0.0513734
-0.11939
-0.0609196
0.066657
-0.0814477
0.0338094
-0.016525
-0.00978109
-0.0099696
0.0773098
0.249055
-0.380408
-0.112412
-0.0908127
-0.422445
0.0126038
-0.202039
-0.209616
0.220766
0.0158835
0.0298052
0.0191933
0.0113305
0.0120671
-0.376789
-0.198307
-0.0569209
-0.113524
-0.1178
0.0296309
-0.122274
-0.421556
0.00156576
-0.0383293
0.00977082
-0.415861
-0.054624
-0.163354
-0.0804271
0.0362541
-0.103579
-0.0134817
0.0950385
-0.0641716
-0.0411396
-0.00219
-0.0702382
-0.422633
0.0176468
-0.286328
-0.410955
-0.320581
-0.381471
-0.0625752
-0.0787127
0.161231
0.250514
-0.0711757
0.00203906
0.0458999
-0.00695447
0.0152009
-0.422066
-0.0187785
-0.225533
0.00444085
0.00183108
-0.0455202
0.0245641
-0.412757
-0.0140392
0.399488
-0.027442
0.022385
-0.151708
-0.0279439
-0.0702084
0.0111291
-0.00554204
-0.0617124
0.1456
0.0252698
0.0994497
-0.31746
-0.0517913
0.507095
0.0207339
0.0233135
0.000250263
0.0260448
-0.0379292
0.0858174
0.00284881
-0.421085
0.0175334
0.0241227
-0.130457
-0.115646
-0.0762698
-0.0470946
0.00756973
-0.0167178
-0.137037
0.505353
-0.209251
-0.398064
-0.0352997
-0.0644352
-0.0508408
-0.011258
-0.107703
-0.0568211
0.011962
-0.154196
-0.0572639
-0.0729417
-0.0942791
-0.393484
-0.0788131
0.0454479
-0.0895421
0.0402078
-0.0572684
-0.177276
0.00978773
-0.160934
0.00752072
0.0384915
-0.0871599
-0.421065
0.0773369
0.0131728
-0.0709117
-0.166448
0.299055
-0.155308
0.0259397
-0.0555744
-0.0024435
-0.0913166
-0.188984
0.0201368
-0.423617
-0.00890889
0.00984135
0.0453347
0.00826464
-0.275343
-0.0699581
0.0208471
-0.274635
0.0251895
-0.422017
-0.00107782
-0.0876451
0.21173
-0.137097
0.0974377
0.0185002
0.00386196
0.0128861
-0.185529
-0.121114
0.0142757
-0.0696933
-0.111476
-0.358557
-0.0542601
-0.0425106
-0.151745
0.0191626
-0.374812
0.00820674
-0.0512155
0.0125727
0.0476332
-0.0140042
-0.143433
-0.242145
-0.0632072
-0.182317
-0.422168
0.388326
-0.099486
-0.057285
0.0126626
-0.139955
-0.422989
0.000534987
-0.0866205
-0.135237
-0.149735
0.0202635
-0.051012
0.145275
-0.0840488
-0.327256
-0.0464889
-0.108203
-0.0380674
0.00908452
0.00193307
-0.421777
-0.202192
0.21459
-0.195235
0.0124359
-0.238191
0.0671581
0.001549
0.057932
-0.10428
-0.0329321
0.0223711
0.0178838
-0.304359
0.0133024
-0.0359797
-0.386316
0.00459025
0.013092
-0.319845
0.00961239
0.147937
-0.0333691
-0.15872
0.48688
0.024096
-0.0497711
-0.047577
-0.0565798
-0.0481731
-0.025533
0.32002
0.417827
-0.11335
-0.274957
0.328228
-0.000550276
-0.104981
-0.0469579
-0.0721309
0.00807021
0.0245364
0.367818
-0.0183487
-0.112421
0.407465
-0.0551514
-0.136383
-0.0244507
-0.192887
-0.0395612
0.0222572
0.0152149
0.0198361
0.01262
-0.115528
-0.172522
-0.0389855
-0.195105
-0.0481423
-0.105857
-0.0106005
-0.0313223
-0.12834
0.0112623
0.0124493
-0.0653659
-0.0218064
0.325578
0.00982557
0.0150943
0.0220252
-0.0386556
0.016855
-0.0894778
0.000554751
-0.0262871
-0.26575
-0.180666
0.496827
-0.357825
0.107742
-0.0196021
-0.229778
-0.152616
-0.189345
0.256946
0.0182705
-0.120707
0.0367313
-0.0181742
0.00831418
0.2982
-0.0640459
-0.173505
-0.145429
-0.0911523
0.00570081
0.012567
-0.0122499
-0.0674087
-0.411694
-0.0644563
0.515194
0.0143236
-0.407246
-0.022447
0.0144729
-0.00552678
0.0437996
-0.339095
0.0338049
-0.0688525
0.00436376
0.50162
0.158851
-0.0653181
-0.0193532
-0.0138138
-0.027157
0.00450386
-0.114313
0.512407
-0.187949
-0.119784
0.00174685
-0.184587
0.231815
0.0278574
-0.0442709
-0.00255085
-0.0324522
0.000565958
-0.334012
-0.0236715
-0.139285
-0.113974
0.00418735
-0.415875
0.00204907
-0.0392356
0.0600361
-0.0273
0.00695795
0.00677448
-0.0601965
0.0182431
-0.0211572
0.004141
-0.0178907
0.511068
-0.0394124
0.0600208
-0.0556277
-0.407263
0.011323
0.0184538
0.00176549
-0.0663508
0.00737941
-0.11362
-0.249012
0.0320612
-0.0588536
-0.0653747
0.0312697
0.00147428
-0.0447308
-0.000128211
-0.0639803
-0.0356122
-0.0787369
-0.0255608
-0.0486715
-0.0021382
0.501015
0.0836791
0.402209
0.0152506
-0.164444
-0.42355
-0.0558167
-0.0296482
-0.295922
-0.423379
-0.177541
0.0613094
0.00404258
-0.421397
0.483408
0.0092829
0.0238597
0.422867
-0.000191994
-0.141872
0.479797
0.0060269
2.60277e-05
-0.257084
-0.0721884
-0.0214105
0.0014673
-0.0768899
0.0578076
-0.182442
0.0174249
-0.0121276
0.0212335
-0.0190035
0.0221788
-0.187547
-0.00277875
0.0336819
-0.0487207
-0.421656
-0.116776
0.008871
-0.030752
-0.0547363
0.0461202
0.0529485
-0.0626059
0.0111008
0.0295677
-0.128206
0.0703588
0.0308004
0.0401444
-0.00929473
-0.41863
-0.0574844
-0.00274071
-0.0174237
0.0146595
-0.0519414
-0.412602
0.0816758
-0.15051
0.0218017
0.0721016
-0.0367993
-0.136654
-0.421073
0.00572463
-0.312217
-0.269005
-0.0468301
0.00433133
-0.051367
-0.0573412
0.0512183
0.00489055
-0.00979376
-0.0558173
0.0737718
0.494709
0.0654669
0.031184
-0.0153779
-0.0404495
0.0376259
0.00161233
-0.103405
0.169299
-0.235638
-0.0789068
-0.00821907
0.40487
-0.326421
0.436285
0.0751707
0.0257528
0.0252611
-0.304055
0.2093
-0.0103698
-0.0147857
-0.0927115
0.452199
-0.422278
0.0197307
0.116278
0.0508204
-0.0736897
-0.316948
0.0146587
-0.133572
0.0561976
0.067712
0.0147085
-0.420272
-0.138482
0.031383
-0.0303235
-0.135429
0.0155589
0.0154976
-0.0464975
0.298193
0.0331113
0.01563
-0.0286705
-0.375773
-0.0602133
-0.00637595
0.0111312
-0.0116737
0.372381
0.0215619
0.0194011
-0.06405
-0.240186
0.0120231
0.019629
-0.0603926
-0.0436203
0.0383588
-0.0129553
-0.133073
0.0110147
0.0264615
-0.0585531
-0.324426
-0.355341
-0.0149262
-0.067884
-0.420356
-0.129821
-0.388946
-0.076229
-0.00693114
0.0300165
0.00143409
0.0900465
0.0193989
0.0317323
0.00155457
0.0339908
0.0149906
-0.0774326
-0.0671458
-0.0667202
-0.0118204
-0.0944681
0.0353038
-0.0320004
0.00386901
0.0111721
0.142517
-0.294831
0.00603699
0.0115781
-0.022145
-0.0699393
0.0138839
-0.065956
0.0222508
-0.0494727
-0.146024
0.229345
0.509411
0.00699661
-0.141937
-0.0092012
-0.0807167
-0.422134
0.0105984
-0.14323
-0.142112
0.0206319
-0.00175988
-0.102062
-0.0624591
-0.0974906
0.00507205
-0.402703
0.167535
-0.135585
0.00205968
0.012411
-0.0363771
-0.417528
-0.25916
-0.418003
-0.0919946
-0.422631
0.103159
-0.392684
-0.0120696
0.444545
0.013693
-0.00273149
-0.332159
0.0695951
-0.225468
0.0149789
0.00589708
-0.420935
-0.29839
0.012619
-0.354521
0.0153273
-0.139828
0.00890109
-0.0875354
-0.421292
-0.00975699
-0.0482486
-0.030683
-0.132453
0.0342264
0.00336042
0.0446061
-0.133399
0.0159061
-0.289192
0.00880124
-0.418238
-0.112307
-0.0651298
0.012991
0.003571
-0.0476742
-0.0262818
0.157873
0.0185641
0.307004
-0.00949936
0.0326127
-0.164652
0.0312708
0.0192121
-0.0149971
0.0271443
-0.0516225
-0.0486573
0.0123122
-0.119006
-0.226071
0.411925
-0.00724532
-0.175161
0.488059
-0.00694466
-0.0454812
-0.0164729
0.0244567
0.0133921
0.0398216
-0.0322007
-0.0463451
-0.417227
-0.000341553
-0.0328781
0.0181276
0.020001
-0.0397452
-0.0448588
0.0187454
-0.0177814
-0.0615158
-0.30719
0.034691
-0.0572629
0.0599013
0.452669
0.0219498
-0.421129
0.00712738
-0.0196982
0.0167715
0.0106909
0.0695372
-0.128854
0.00578076
-0.150867
-0.182509
-0.0520568
-0.121846
0.017443
0.0404977
-0.0451789
0.0079871
0.338531
0.0302492
-0.0527131
0.00791579
-0.36808
-0.124087
-0.0512719
0.0126147
-0.405045
-0.415431
-0.0502403
0.35851
0.105918
-0.184326
0.0128877
-0.116432
-0.101054
-0.0445412
-0.0483873
0.00893566
0.0269444
-0.0289558
-0.174172
0.00610188
-0.049224
0.0135769
-0.376746
-0.0642939
0.157993
0.00881723
-0.0675974
0.396257
0.0270787
-0.0674813
-0.0902416
-0.0587745
-0.00465155
0.0136415
-0.0847823
-0.336406
0.0239952
-0.421431
0.0883814
0.0212479
-0.419157
-0.0505194
0.0245732
-0.317132
0.00413669
0.0122908
-0.0755723
-0.125304
0.016326
-0.0459907
-0.00073566
0.0272876
-0.418054
-0.0160042
-0.0693219
0.0102774
0.482292
0.0264257
-0.418319
0.00362989
0.24643
-0.011008
0.112002
0.381224
-0.320223
0.231914
-0.359344
-0.0455181
-0.049559
-0.352607
-0.0521876
0.0128769
-0.0482663
-0.414592
-0.144214
-0.0754061
0.0498751
0.0118421
-0.0119832
-0.322865
0.0306734
-0.0144747
-0.0638317
0.0153788
-0.130351
0.00147488
-0.0579433
0.0232371
0.0152241
-0.0826608
0.00143124
-0.0662266
0.0143473
0.000830866
-0.177907
-0.152001
0.00907722
0.0208007
-0.303567
-0.416595
0.0201179
-0.0512245
-0.0747482
0.00159589
-0.417242
-0.284632
-0.371512
-0.192046
-0.422004
-0.0480906
-0.0589953
0.0109447
0.00829297
0.0299691
0.014413
0.0808368
-0.416248
-0.419896
0.0171108
-0.0195998
-0.0221
-0.255194
-0.268072
-0.291565
-0.332017
0.0367646
-0.33401
-0.418258
0.104107
-0.0593026
-0.0772973
-0.0115536
-0.113948
-0.0525958
-0.0901827
0.0224646
0.000867643
-0.0965655
-0.176911
0.00904414
0.0303659
0.0149126
0.0089869
0.0269343
-0.419746
0.0308622
0.0048635
-0.411887
0.0176407
-0.281789
-0.0926324
-0.333634
-0.0764618
0.0134005
-0.355495
0.363919
0.466318
0.0400004
-0.0482652
0.0184169
0.075277
-0.423647
-0.0717273
-0.154809
-0.0203324
0.0144783
0.355569
-0.0235299
0.0259349
0.118576
0.0187742
-0.119127
0.013903
-0.0448187
-0.34066
0.0748772
0.0138847
-0.215204
0.0126544
-0.00687002
0.219163
0.00874324
-0.0145969
-0.168869
0.443136
-0.390515
0.00632273
0.0803529
0.0122479
-0.293064
-0.149957
0.0013787
-0.0462434
0.0177773
-0.00980241
-0.0166324
-0.00285446
-0.101467
-0.0448287
0.0326492
-0.0109699
0.0244444
0.0194911
-0.0103527
0.0196774
0.383488
-0.0551107
-0.343216
-0.272995
-0.0473506
0.334429
-0.0113837
-0.42286
-0.056611
-0.0471861
0.0241038
-0.00702812
0.445268
-0.372921
-0.22982
-0.260229
-0.271222
0.0170436
0.0266938
-0.0478617
0.0100907
-0.0606954
-0.18573
-0.0209104
-0.423744
-0.0384991
0.0151837
-0.418968
-0.058879
0.279165
0.449771
0.0440885
-0.0441461
-0.305397
-0.0848455
0.0101362
0.286754
-0.183384
0.0108705
-0.0626845
-0.00827654
-0.109093
0.0277596
-0.416831
-0.338079
0.0406929
-0.0273666
0.0579007
-0.420185
-0.0928575
0.0365471
0.0494977
-0.0443743
0.0251466
-0.027561
-0.147342
0.4419
0.0143576
0.317109
0.248099
0.0198304
-0.053278
0.00590073
0.0296475
-0.0367408
0.0230305
-0.0342584
-0.147765
-0.0737685
0.0296086
-0.411321
-0.1805
-0.0746494
-0.422316
-0.0609427
-0.0285078
-0.37012
-0.0354487
0.0917226
-0.0943328
-0.069996
-0.0114272
0.00319292
0.01689
-0.23749
-0.0501016
-0.401916
-0.0541434
0.00913956
0.108629
-0.160501
-0.0594732
-0.371981
0.0145615
-0.0431337
0.0116061
-0.422707
-0.00431376
-0.0977251
0.0697878
-0.411453
-0.0508291
-0.124669
-0.225947
0.142169
0.00990248
0.298436
-0.417293
-0.406666
-0.0469164
0.059451
0.0126941
0.040156
-0.0599059
0.021844
0.0321929
0.0102482
-0.0989471
0.0288628
-0.110785
0.0148568
-0.0748674
0.00115302
-0.0706545
-0.418557
0.0565208
-0.0613175
0.0186726
-0.0348028
-0.00562459
0.0222377
0.024411
0.400374
-0.175116
0.00720114
0.0921168
0.0347456
-0.0484456
-0.0614202
-0.280591
-0.110775
0.0355417
-0.0832682
-0.0198712
0.0406765
0.226678
0.0243026
-0.0770606
-0.418052
0.0201597
-0.0947828
0.0705081
0.0190907
0.00426846
-0.296052
0.0304149
-0.316002
-0.000462703
0.0220167
-0.185425
-0.15705
-0.120997
-0.0361758
0.0371198
0.0204418
-0.136113
-0.0394425
0.0219795
-0.0883754
0.0467884
-0.0517208
0.472979
-0.138273
-0.419613
-0.399958
0.00737799
-0.161608
-0.0047051
-0.0831444
-0.318842
-0.0478846
-0.296073
-0.0751328
-0.000407922
0.0982786
0.0293004
0.00290423
0.0519283
0.0319233
-0.303294
0.0825476
-0.0532793
-0.223547
0.0156983
-0.36045
0.0224133
0.0227154
-0.0944959
-0.263251
-0.00296686
-0.412837
0.302104
-0.0573892
-0.417642
-0.0168804
-0.104436
-0.0579968
0.0835257
0.000189558
0.44841
0.0351628
0.0153313
0.0152621
0.322795
-0.415192
-0.0331269
0.0244277
-0.0471981
-0.416255
0.0566535
0.0202553
-0.288077
-0.188794
0.0167195
0.338868
-0.199449
0.0178576
-0.0358375
0.00385698
-0.0447255
0.0149709
-0.41366
-0.418434
-0.412129
-0.016904
0.164313
-0.00816289
0.00881985
-0.161443
0.0121534
-0.0867196
-0.0478654
-0.151749
0.0101393
0.000386163
0.460058
-0.0926608
0.245552
-0.355407
-0.172713
-0.113951
-0.0254863
-0.410083
0.300906
-0.0387786
0.41365
-0.385766
-0.0790377
0.0357571
-0.41802
0.00541223
-0.061536
-0.127802
0.323437
0.00337608
-0.0925926
0.020323
-0.222962
-0.0427128
-0.0193881
0.0281956
-0.411089
-0.0489445
0.018825
-0.141146
-0.134734
-0.121712
0.0193165
-0.377855
0.0217678
-0.154547
0.0210057
-0.0209994
0.0147892
0.0374946
-0.0680704
-0.0479693
0.0020951
-0.0531911
-0.422165
0.0019975
0.000721228
0.0735732
0.124009
-0.0543145
-0.0983677
-0.401223
-0.0579004
-0.408522
-0.405579
-0.0578841
0.0670676
-0.0591215
-0.195635
-0.418877
-0.0436278
-0.0473383
-0.0676853
-0.0596755
-0.0176863
-0.421376
0.0187429
-0.327667
0.0221702
0.0214458
-0.400605
0.0196391
0.00108531
0.372669
-0.0167833
-0.088216
0.031821
-0.0218833
-0.0702245
0.357746
-0.00284321
0.0247954
-0.3958
-0.0488633
-0.0354742
0.507858
-0.132932
-0.100296
-0.0871743
-0.418903
0.0666296
-0.19105
-0.0620989
-0.127102
0.0231475
-7.66134e-06
-0.194304
-0.42128
-0.422403
-0.41625
-0.0399039
0.031016
-0.109198
0.0479144
-0.422556
-0.00919138
0.0158418
-0.0775956
-0.141129
-0.169056
-0.415852
0.0563712
0.412356
-0.100506
-0.0158674
-0.105819
0.0019778
0.161955
-0.211467
-0.0854463
-0.0795257
-0.414266
-0.0566039
0.495508
-0.0689597
0.0350651
-0.0216318
-0.045466
-0.302051
-0.39034
-0.413206
-0.199796
0.139389
0.00870465
-0.12421
-0.0881569
-0.323256
0.0190132
-0.417178
-0.110329
-0.346196
0.0168398
-0.0453152
-0.147833
-0.061403
-0.229648
-0.00307252
-0.0990977
-0.0483642
0.0101535
-0.167681
-0.194577
-0.0194555
-0.130402
-0.0218722
-0.026083
0.0195057
-0.048001
-0.105349
0.307305
-0.0458688
-0.419172
0.00228469
0.00160692
0.0177251
0.0140602
0.0134322
-0.356826
0.373867
-0.137576
0.0220982
0.00312102
-0.417887
-0.046726
-0.0420597
-0.0675472
0.00603614
0.480581
0.147511
-0.0592197
-0.306701
-0.0376802
-0.409298
0.464018
0.120996
0.00231605
0.357794
0.00112041
0.387811
-0.387062
-0.0857402
0.00742786
-0.400884
0.438235
0.0264302
-0.117286
0.0234381
-0.384369
-0.413117
0.0489332
0.0255671
0.123023
-0.0850295
0.00407642
-0.00544732
0.0353667
-0.369162
0.103456
0.491001
0.456759
-0.309928
-0.128864
-0.193602
0.0198646
-0.0660918
-0.420766
0.100701
0.0135594
-0.0300842
0.02221
-0.416063
-0.155609
-0.349455
0.0170606
-0.221948
0.516614
-0.422393
-0.0510146
0.0261009
0.358276
-0.184291
0.0151736
0.0217936
0.469518
-0.0475573
-0.0429936
-0.0487415
0.423932
-0.418911
-0.05931
0.0731321
0.443851
-0.0944842
0.012699
0.0407782
0.0165546
0.0256879
-0.0494654
0.268294
0.0718515
-0.419944
-0.066608
-0.000578191
-0.105127
0.342068
0.143346
-0.0470143
-0.000882093
0.00689547
0.511817
0.407197
-0.0601372
0.00981111
0.37215
-0.304477
-0.0888019
-0.214758
-0.0302412
3.65212e-05
0.0244124
0.0147686
-0.0578656
-0.415252
-0.0732452
0.0394445
0.360515
0.025644
-0.289101
0.065294
-0.0495955
0.0726419
0.111105
-0.0509079
-0.120797
0.0152376
0.00139274
0.0089592
-0.0422078
-0.0297603
-0.178545
-0.0442523
-0.049627
0.016049
-0.0534276
-0.0236089
0.0340952
-0.417086
0.00204097
-0.0453414
-0.423375
-0.0482674
-0.0418798
0.0346906
0.0188519
0.0267399
0.0156716
-0.0802613
-0.313296
-0.423492
-0.38851
0.474035
0.353348
0.0787756
-0.264805
-0.0731311
-0.0550481
0.034116
-0.00582874
-0.0508812
-0.0117761
-0.00271287
-0.048242
-0.0917092
-0.285879
-0.160798
-0.174773
0.0157451
0.0207892
-0.0208021
-0.0486605
-0.0411996
0.0214762
-0.0837049
0.456205
0.489475
-0.077494
0.0478254
0.435783
-0.0518393
-0.14801
0.0477388
0.00498257
0.0218507
0.0335876
0.026453
-0.0466279
-0.114741
-0.0878435
-0.0834659
-0.0958436
0.00580861
-0.0595059
0.0686726
0.0144732
-0.0463136
-0.415675
-0.0549687
0.00786014
0.423174
0.0102803
-0.10576
0.0733682
-0.0475654
0.0243668
-0.104037
-0.0979733
-0.0513259
-0.414875
-0.351387
-0.312919
-0.4064
-0.338022
-0.240282
0.001067
-0.256308
0.00458552
-0.421159
0.0370597
0.385357
0.0157861
-0.124195
0.0388744
0.00740154
0.0488147
0.014182
0.503166
-0.00661394
0.0117752
0.00139597
0.00446408
0.00888769
-0.0223417
0.0236362
-0.229435
-0.107283
0.0191939
-0.0412894
0.0271469
0.00996658
-0.139366
-0.0982303
0.0331935
-0.0571347
0.00528877
0.00260788
-0.3608
-0.0109819
0.105883
-0.194933
-0.059991
-0.423091
-0.377271
-0.157023
-0.420991
-0.411143
-0.167011
-0.340201
-0.0105319
-0.324806
0.0221765
0.0234454
-0.142463
-0.0371983
0.511238
-0.0098115
-0.0755601
-0.0640375
0.437097
-0.116791
-0.0867056
-0.0265669
0.0122122
-0.0688679
0.0334198
0.00617609
0.434443
-0.0145459
-0.318349
-0.387883
-0.187675
-0.00927294
-0.0490722
0.0616238
-0.421617
0.438061
0.00970203
-0.353171
-0.104167
-0.084151
-0.0811621
-0.0653516
-0.0443822
-0.0516244
-0.0312571
-0.409064
-0.118741
0.145349
-0.259522
0.0413827
-0.0829022
0.0271171
0.00195774
-0.00964606
0.397595
-0.13685
0.387436
-0.0832242
0.0341855
0.215875
0.496267
0.00711265
-0.22964
0.0011091
0.508243
-0.0487232
-0.25962
-0.202366
-0.147261
0.0115495
-0.0157345