/*--------------------------------*- C++ -*----------------------------------*\
| =========                 |                                                 |
| \\      /  F ield         | OpenFOAM: The Open Source CFD Toolbox           |
|  \\    /   O peration     | Version:  v2012                                 |
|   \\  /    A nd           | Website:  www.openfoam.com                      |
|    \\/     M anipulation  |                                                 |
\*---------------------------------------------------------------------------*/
FoamFile
{
    version     2.0;
    format      ascii;
    class       volVectorField;
    location    "550";
    object      ddt0(U);
}
// * * * * * * * * * * * * * * * * * * * * * * * * * * * * * * * * * * * * * //

dimensions      [0 1 -2 0 0 0 0];


internalField   nonuniform List<vector> 
18355
(
(0.101537 0.0047998 2.51087e-18)
(-9.49486e-06 -8.7224e-05 8.88254e-19)
(-0.0978187 -0.0657689 9.93185e-19)
(-5.70201e-05 -2.24195e-05 -1.74125e-19)
(0.014079 0.0105722 4.86869e-20)
(-0.0507209 0.0403813 -8.9225e-20)
(-0.00126567 -0.000366968 -5.70352e-19)
(0.0159882 0.00828869 -2.5135e-19)
(-1.21683e-05 -1.329e-07 -9.93629e-19)
(-0.00716646 -0.0653504 5.89864e-19)
(-0.00526015 0.00444163 3.58805e-19)
(-0.0409443 0.0156572 -6.28177e-18)
(-0.0427355 0.0172446 1.05075e-18)
(0.0810282 0.031218 -1.60918e-19)
(-2.01987e-06 -9.39757e-06 1.55617e-19)
(-1.20963e-05 -3.46229e-05 3.0518e-19)
(-6.75665e-05 -2.25173e-05 1.30965e-19)
(-0.00448356 -0.00170427 2.80732e-19)
(0.00777861 -0.099601 -1.74132e-18)
(0.00289868 1.86085e-05 -8.61346e-19)
(0.0677677 0.072731 1.12361e-19)
(0.000546897 1.04654e-05 1.21785e-19)
(-3.73075e-05 1.85577e-05 7.60348e-19)
(-0.0505301 0.032904 -5.31388e-20)
(-3.45702e-05 2.83282e-05 2.58384e-19)
(-0.00170317 0.000687321 7.78795e-19)
(-0.00139098 3.26683e-05 3.34511e-19)
(-5.47464e-05 -4.91217e-05 4.49415e-20)
(-9.05114e-06 1.78446e-06 1.17928e-18)
(-0.00684303 0.00420233 -5.33701e-19)
(-0.0910935 -0.010807 -1.69046e-18)
(0.00737042 0.0256113 9.60474e-20)
(3.64302e-05 5.73098e-05 5.91211e-20)
(2.04825e-05 -3.18581e-05 -5.66553e-19)
(3.76967e-05 -3.18054e-06 2.77218e-20)
(0.00107952 0.00122047 -9.25222e-20)
(0.000174803 -0.00495387 -6.70196e-19)
(0.00104723 0.00144997 -2.45543e-19)
(-0.00764606 0.00462158 -8.78984e-19)
(-0.000718021 0.0002816 6.16015e-20)
(-0.000144475 -5.32636e-07 -4.05416e-19)
(-0.00598684 0.0049304 8.62534e-19)
(1.24359e-05 -5.61205e-05 -1.54882e-19)
(-8.49756e-06 -8.30166e-05 -5.69022e-19)
(-1.05842e-05 -8.04171e-05 2.11466e-19)
(-0.0537888 0.0505829 7.65232e-19)
(3.48031e-06 -7.14692e-05 4.23819e-19)
(3.33266e-06 -6.18218e-05 -2.40709e-19)
(-0.0768487 -0.00103984 -1.30294e-18)
(0.000406193 0.000249496 7.39954e-19)
(1.6235e-05 6.14814e-06 -3.02962e-19)
(0.0954825 0.0570311 9.32643e-19)
(0.000512928 0.000282834 4.45127e-19)
(0.0570227 -0.0486877 1.39434e-18)
(-1.86882e-05 -0.00011153 5.77789e-19)
(0.00308721 0.000421607 1.21988e-19)
(2.65778e-05 1.51777e-06 -7.86695e-19)
(-0.0341645 -0.0500154 1.93471e-18)
(-0.00176597 0.000925934 -1.20777e-19)
(0.0866799 0.0572089 -1.69134e-19)
(1.53402e-05 -4.35144e-05 1.42998e-18)
(-0.0347266 -0.00655249 -6.4534e-18)
(0.0584979 -0.0434721 -8.292e-19)
(0.0005983 -0.00148191 -6.24401e-20)
(0.0211539 0.0268234 -1.38196e-19)
(2.17303e-06 1.30753e-05 -2.19794e-19)
(0.00281246 5.32846e-05 -4.10049e-19)
(0.00041016 -0.00519826 2.6515e-18)
(2.3883e-05 5.91603e-05 3.76433e-19)
(-0.048133 -0.10618 -2.006e-18)
(-0.000100123 7.41971e-05 3.01999e-19)
(-1.17866e-05 -0.000115551 -3.41411e-19)
(0.0045864 0.019374 2.94593e-19)
(-0.0048788 -0.00423633 -1.4297e-18)
(-0.00123077 0.0394818 1.59001e-18)
(2.47642e-05 3.55163e-05 6.49073e-19)
(-0.0443967 -0.0550397 8.35065e-19)
(2.29413e-05 2.42264e-05 -3.88899e-19)
(-0.000102882 5.46205e-05 -2.67202e-19)
(-0.00699619 0.0373088 -3.03633e-18)
(0.00276483 0.000284957 4.0468e-20)
(-0.0265815 0.029832 5.14395e-19)
(2.44082e-05 5.11545e-05 -7.95786e-19)
(0.00385413 0.00135431 2.76851e-19)
(0.0253076 -0.00220871 -1.03496e-19)
(5.02913e-07 3.40244e-06 -1.11936e-19)
(-1.56638e-05 -8.08731e-07 1.2321e-19)
(0.0155518 -0.00760875 -3.23408e-19)
(-2.57804e-05 0.000107551 1.03656e-18)
(0.0164713 -0.00654218 -1.59132e-18)
(0.057692 -0.0140522 -1.44435e-18)
(0.0497247 0.0714683 8.16347e-20)
(-0.0289041 0.0228405 -6.9159e-19)
(0.000311781 0.000335509 -1.26464e-18)
(0.0514255 -0.147073 -2.40574e-18)
(0.00222095 -0.000436346 4.78933e-19)
(-1.7753e-05 0.000103534 7.20682e-19)
(0.00176697 -0.000348825 8.46722e-19)
(0.00222162 -0.0417841 -2.21982e-18)
(0.000388366 0.000118269 9.6635e-19)
(0.0235121 -0.00191694 -1.37064e-19)
(-7.38916e-05 2.34098e-05 6.81383e-20)
(0.000225164 0.000292785 7.41757e-19)
(5.63631e-05 -3.68199e-05 -1.72863e-21)
(0.00300109 0.000698864 -5.60545e-19)
(-1.16264e-05 -1.80246e-05 2.40751e-19)
(0.0190401 0.0288007 -1.60309e-18)
(0.0629164 -0.157465 -1.71008e-18)
(0.00713058 -0.00799579 6.66993e-19)
(-1.00688e-05 -8.38408e-05 -2.51967e-19)
(2.91638e-05 4.66299e-06 2.91457e-19)
(-7.20974e-06 3.08243e-06 -2.70423e-21)
(-0.00337806 0.0136027 8.48132e-19)
(0.00347354 0.00143744 1.02404e-19)
(-0.089101 0.0421618 1.82828e-19)
(0.00210031 0.00754834 7.20203e-19)
(-7.38467e-05 1.40534e-05 -3.0841e-19)
(-0.0126211 0.0456626 -2.27525e-19)
(0.00147783 0.000968824 -4.31995e-19)
(0.00263005 -0.00012106 1.18486e-18)
(-0.0482387 -0.094735 9.31789e-19)
(-0.104543 -0.0607141 -1.68165e-18)
(0.0664556 -0.0223476 5.66486e-18)
(0.020091 -0.0092874 -2.53073e-19)
(-0.0183155 0.0425363 -9.66511e-19)
(-0.0664875 0.0531129 1.80808e-18)
(-0.00143822 -0.000224153 2.97726e-19)
(-5.99591e-05 -1.68097e-05 -4.37837e-20)
(0.108706 0.0012536 -2.81707e-18)
(0.000270502 -8.52335e-05 -4.94664e-19)
(-1.91046e-05 0.000109553 -4.44802e-19)
(0.117002 0.031601 -8.54989e-19)
(-1.56269e-05 7.74244e-05 -6.75429e-20)
(-0.0217086 -0.0336992 -3.68787e-18)
(0.0499242 0.0054359 3.99769e-21)
(-2.49652e-05 7.11286e-05 -4.87871e-19)
(0.000655842 -0.103693 -1.43634e-18)
(-0.00558083 -0.130154 8.47359e-19)
(-6.51009e-05 1.80052e-05 2.88842e-21)
(0.0555611 0.0747845 -2.30975e-19)
(0.00195241 -0.00319908 -2.88482e-18)
(-0.0123057 0.0142227 -5.2021e-19)
(1.15996e-06 1.98276e-05 2.23085e-19)
(0.087844 0.0475942 -1.56848e-18)
(0.0497487 0.00840423 -3.67566e-20)
(-0.000126249 -1.16723e-05 -1.21634e-19)
(0.0695573 0.0635701 -1.15845e-19)
(3.39934e-05 -0.00013854 1.76013e-20)
(-0.00450122 0.0132067 2.57651e-19)
(-0.0440179 -0.0214343 -1.13715e-19)
(-4.63505e-05 -5.07515e-05 -3.76352e-19)
(0.00246075 -0.000120547 7.24557e-19)
(-0.00144899 -0.000568863 -5.37646e-19)
(-0.00765763 0.00219564 1.81454e-19)
(7.41178e-06 -6.58301e-05 -4.33431e-19)
(-3.95389e-05 5.68772e-06 1.2005e-20)
(-5.22107e-05 -1.83816e-05 9.66653e-20)
(1.28119e-06 3.42581e-06 1.02225e-19)
(3.09079e-06 9.77713e-06 -2.26435e-19)
(-4.38295e-05 5.931e-06 -4.92225e-19)
(-0.00523355 -4.36537e-05 6.7826e-20)
(-9.75037e-06 8.6019e-05 -9.09135e-20)
(-1.0494e-05 -7.72392e-05 5.53954e-20)
(-0.00915242 0.00727642 -5.57141e-19)
(-0.00660642 -0.00230337 -1.02087e-18)
(-0.0180276 -0.037317 5.41803e-20)
(0.077101 0.0661566 1.6412e-19)
(0.105166 0.0228253 1.42617e-18)
(-0.0564963 0.487404 -1.07284e-18)
(0.00218625 -0.00314585 -1.27705e-20)
(-6.24649e-06 -2.15931e-06 1.03082e-19)
(-0.0194848 -0.031942 -2.67462e-18)
(-1.89521e-05 2.41975e-06 -6.00228e-19)
(-0.0787836 0.024493 3.70714e-18)
(1.34717e-05 2.04518e-06 1.56899e-19)
(-0.000133208 -8.31739e-06 -6.84265e-19)
(-6.78227e-06 3.1185e-06 -6.26704e-20)
(6.19748e-05 -6.10591e-05 -6.82631e-21)
(-6.76838e-06 -0.000931127 1.36868e-18)
(0.00769497 0.00361855 -1.09793e-19)
(4.65283e-06 1.15211e-06 1.64709e-19)
(-0.0115729 -0.0350443 5.81943e-21)
(0.000403062 -3.08774e-05 2.81303e-19)
(-3.10221e-05 -4.7081e-05 -1.31721e-19)
(-0.0138344 -0.0194413 1.29243e-19)
(0.000111539 0.000336396 3.42695e-19)
(-3.2285e-05 -2.39922e-06 -4.83328e-19)
(0.0165235 -0.00396149 1.06738e-18)
(-0.000113135 -2.54441e-05 -1.95962e-19)
(-0.00159407 0.000225719 -4.9053e-19)
(-0.0612836 0.0501167 -1.55143e-18)
(-0.000694327 -0.0411405 -3.20757e-18)
(-1.53318e-05 -6.44996e-05 1.19114e-19)
(5.64981e-05 0.000107186 1.158e-19)
(-0.000144876 8.76346e-06 1.25504e-19)
(-0.0840911 0.0320755 5.80818e-20)
(1.82033e-05 9.85459e-06 7.31589e-19)
(0.116932 0.0181049 7.77561e-19)
(-1.20962e-05 -8.32188e-05 -4.86329e-19)
(0.0804104 0.03696 1.14292e-20)
(5.14652e-05 0.00028182 -5.21349e-19)
(-0.00140076 -0.00284493 7.75211e-20)
(-0.008576 0.00365273 -1.89672e-18)
(3.05551e-06 -3.97087e-06 4.38557e-20)
(0.106679 0.0164735 -4.17839e-19)
(0.00018932 -0.000164479 -2.68093e-19)
(-0.0920197 0.490815 -3.58962e-18)
(-3.65196e-05 -5.39711e-05 1.84143e-19)
(-2.5276e-05 -1.112e-05 1.9081e-18)
(-0.00133928 0.000206405 3.21016e-19)
(-3.31083e-05 0.000131269 1.73684e-20)
(-0.0384921 0.0141059 -2.06132e-18)
(-0.00192247 -0.00233551 -6.85868e-21)
(-0.00164374 -0.00181527 2.47083e-19)
(2.68841e-05 -0.000148725 -2.78093e-20)
(-0.071394 0.0367248 4.62552e-18)
(0.00739564 0.00415435 6.3593e-20)
(-0.000308062 -0.00305631 -4.93995e-18)
(0.000209744 -0.000137801 1.28455e-18)
(8.06219e-06 -4.49987e-05 -1.5068e-19)
(0.00667804 -0.00739033 6.88353e-19)
(7.03728e-06 4.29773e-05 2.21363e-19)
(0.0130983 -0.00781003 1.62247e-18)
(-0.00366854 0.0062947 -6.68198e-19)
(0.00612549 -0.024454 -9.53112e-20)
(0.000338975 -0.00401578 2.55618e-19)
(2.18195e-05 7.47801e-05 -4.50385e-19)
(0.010099 -0.11115 -7.20954e-19)
(0.0833828 0.0017478 3.68684e-19)
(0.00701013 0.0138952 4.69382e-19)
(-1.83948e-06 -0.000925624 4.79218e-19)
(0.0030511 0.00044876 -2.07272e-19)
(-0.02812 -0.0524309 -7.4108e-19)
(1.59697e-05 6.00158e-05 -3.63751e-19)
(-0.0109209 0.00564019 -1.59407e-19)
(0.00209113 -0.0211396 -3.31659e-19)
(0.000117615 -0.000400526 1.66179e-18)
(-0.057682 0.052174 -2.40179e-18)
(-0.00147454 -0.00170202 2.98803e-18)
(-0.00196795 -0.00140915 1.24291e-18)
(-1.02946e-05 -8.60098e-05 3.51448e-19)
(1.73502e-05 -0.000870863 2.1416e-18)
(-0.00161327 -0.00110698 -8.02658e-19)
(0.00766086 0.0114448 -1.52116e-18)
(0.000187534 -0.000149485 1.23695e-18)
(-2.98763e-05 -0.000118934 -1.09572e-19)
(-5.76596e-06 -7.48386e-05 2.64305e-19)
(-0.0390894 0.00916128 1.84128e-18)
(-0.0412226 0.0207044 1.17761e-19)
(-0.00025306 0.000154787 -1.3028e-18)
(0.000783084 -0.0018786 2.66347e-19)
(-0.0421857 0.0156978 2.90223e-19)
(-0.0760524 -0.0208684 -8.08768e-19)
(-0.00230347 0.00693065 4.75277e-19)
(5.73181e-05 -6.27442e-05 -1.15458e-20)
(-0.0107507 0.00600294 -1.12736e-19)
(-0.0014095 -0.00181795 3.83562e-18)
(-7.57491e-05 -1.38706e-05 -7.34912e-19)
(0.00115617 -0.0039493 4.52692e-19)
(-3.69933e-05 7.29521e-05 -6.54242e-19)
(-0.0420581 -0.0327614 7.8694e-21)
(0.0205936 0.0108154 -8.0647e-19)
(-0.000945146 -0.0359449 -1.5075e-18)
(-0.00411134 -0.00328138 -6.05972e-19)
(-0.00956565 0.00394722 5.03845e-19)
(-0.0197617 -0.0016216 2.04785e-19)
(-0.00678908 0.013298 1.75117e-18)
(0.00560013 -0.0476008 3.62042e-19)
(-3.9363e-05 6.12319e-05 1.11162e-18)
(-2.5255e-05 -0.000122259 5.27027e-20)
(-0.00166504 0.000721307 -3.82796e-19)
(-1.15775e-05 -9.15808e-05 -2.19316e-19)
(-0.000974225 -0.00312261 1.34805e-19)
(-0.00050408 -0.00314218 -1.86772e-18)
(-3.23587e-05 -6.02031e-05 2.20412e-20)
(5.58149e-05 6.1792e-05 1.26935e-19)
(0.000898163 -0.0148747 -1.57496e-18)
(-2.49783e-05 6.09602e-05 1.85607e-19)
(0.0425089 -0.0124087 3.75702e-19)
(-0.0411759 -0.162793 -3.74524e-18)
(-0.00159988 -0.0124448 -3.0964e-18)
(-1.05507e-05 0.000146742 1.93774e-19)
(0.00128638 0.00894127 -1.65506e-19)
(-8.02398e-06 -9.09198e-05 1.04476e-19)
(0.0144593 -0.00982276 2.03686e-19)
(0.00013341 -0.000172865 -2.45187e-18)
(0.00817722 0.00551055 -5.85899e-20)
(-0.000151541 2.89999e-07 1.20037e-19)
(0.00743205 0.00529465 2.74413e-20)
(-0.0112394 -0.0421536 4.67088e-19)
(1.50535e-05 2.94439e-05 -5.27335e-19)
(-0.00876878 -0.0136966 1.90941e-20)
(0.00152906 0.0005009 9.12664e-20)
(0.00351743 -0.00216861 -1.1317e-19)
(-0.00424101 0.0141426 1.20802e-18)
(-1.41218e-05 -6.8577e-06 6.9463e-19)
(4.72461e-05 0.000107019 -1.84299e-20)
(0.0395642 -0.0115514 -1.31412e-18)
(3.01754e-05 8.56119e-05 -5.53212e-19)
(-0.00928317 0.0156404 -1.26015e-18)
(-0.000480257 -0.00481714 -3.31992e-18)
(0.0210468 -0.038171 -9.03659e-19)
(0.0126608 -0.0129788 -8.75413e-19)
(-0.00215456 -0.0377759 1.78192e-18)
(-0.00274082 -0.00271461 9.02286e-19)
(0.00136851 -0.0168602 -1.27177e-18)
(0.000404134 7.18584e-05 -1.94645e-19)
(-0.000998577 -0.00137653 -1.4209e-18)
(-0.00383041 -0.00320012 4.17969e-18)
(-0.0081805 -0.0144668 1.09418e-18)
(-0.00964528 -0.0330245 1.47414e-20)
(-0.160513 -0.0616439 1.84615e-19)
(3.2027e-05 -0.000104899 1.56018e-19)
(0.00188598 0.00472615 1.58392e-18)
(0.0530844 -0.0350837 4.92543e-19)
(0.00127632 0.0096463 3.0687e-19)
(2.7126e-05 -0.000105184 -2.99627e-19)
(3.75612e-06 -4.69963e-05 -2.06716e-19)
(-2.47726e-05 -8.22791e-05 -1.3365e-19)
(-0.0143361 -0.00355062 -1.02067e-18)
(-0.14781 -0.0544312 5.06204e-19)
(-0.269975 -0.0890337 -1.30943e-18)
(-0.002362 -0.034168 -1.16111e-19)
(-0.00169463 -0.0141991 2.7296e-18)
(0.00152919 -0.0030182 3.9899e-18)
(-0.0318336 -0.00286775 -3.33251e-19)
(2.65907e-05 -0.000130975 -8.2789e-20)
(0.000162999 -0.000165657 2.45353e-19)
(0.00174505 -0.00293321 9.22475e-19)
(1.4818e-05 -0.000156634 1.23769e-18)
(0.00820563 0.0129669 5.94257e-19)
(4.50452e-05 -5.33809e-06 -1.77274e-20)
(-0.0804857 -0.0307222 -8.87255e-19)
(-2.58862e-06 -4.78542e-06 9.9013e-19)
(-0.0282185 0.0440738 -1.21272e-18)
(-0.00012395 -2.68782e-05 1.66364e-19)
(-0.000633901 0.000285867 8.82755e-20)
(-0.00254542 -0.00386287 1.63198e-19)
(-0.0540189 0.0122804 7.23276e-18)
(0.106213 0.0332814 -1.21424e-20)
(0.00858682 0.0105685 1.69666e-19)
(0.00238342 -0.0282386 -8.16662e-20)
(-8.98513e-06 0.000510076 -5.37132e-20)
(-2.82764e-05 0.000113637 -1.05043e-18)
(8.98575e-06 -0.000153369 -1.27756e-18)
(0.00179021 -0.00496815 2.76487e-19)
(-0.0184592 -0.0743405 -5.83894e-19)
(-3.70242e-05 0.000126062 -1.76348e-19)
(-8.50474e-05 1.60429e-05 4.20557e-20)
(-0.0268588 -0.00923608 1.00373e-19)
(0.000160198 0.000351959 1.45603e-19)
(-3.33346e-05 0.000114045 -9.5866e-19)
(-0.0722663 -0.00250316 3.01852e-18)
(0.00115655 -0.00435681 7.79256e-19)
(-1.70185e-05 -8.12796e-05 -1.30257e-19)
(-0.000245546 -0.000667801 6.81294e-19)
(0.00850482 0.00654234 -1.24292e-19)
(-5.44654e-05 -6.62834e-06 3.25629e-19)
(0.00791933 0.00724472 2.16398e-19)
(-3.56653e-05 7.07214e-05 2.68171e-19)
(-8.68587e-05 1.20125e-05 -4.78392e-20)
(0.00033098 0.000112012 8.14724e-20)
(0.0700804 0.0558333 -3.73622e-19)
(-0.0251129 -0.00639214 1.96549e-19)
(-4.98526e-05 2.9045e-05 1.80237e-19)
(3.27666e-06 1.54535e-05 -2.00467e-20)
(0.00245416 -0.0131307 4.1508e-19)
(-2.50681e-05 -8.54786e-05 -2.56358e-19)
(-1.85917e-05 -2.26693e-06 3.42597e-19)
(-0.0373976 -0.0114263 -5.65145e-19)
(-0.0255223 -0.000575974 -7.85507e-20)
(0.00474038 -0.0173077 1.7193e-18)
(7.27965e-06 -0.000140718 4.01584e-19)
(0.000136426 -0.000443032 1.46799e-19)
(-0.0454186 0.0160331 -6.18051e-18)
(0.000836175 0.00207881 1.14246e-18)
(-0.00919406 0.00792201 2.39201e-19)
(-0.00111667 -0.00136468 3.35031e-18)
(2.60327e-07 -1.96925e-05 -2.82135e-19)
(0.00139718 -0.0113366 -2.36581e-19)
(0.00514233 0.0128748 4.99904e-19)
(0.000271564 5.23544e-05 -7.06536e-19)
(-8.97127e-05 9.77042e-06 -3.63744e-20)
(-0.00462613 -0.00105106 -9.42673e-19)
(-6.1831e-05 6.9073e-06 -4.51253e-19)
(-0.00412291 -4.33815e-06 -8.8582e-19)
(-0.000142401 1.99844e-06 -2.32488e-19)
(-0.0182173 0.0406959 1.22218e-18)
(-0.00176936 -0.000750771 -5.71837e-19)
(0.00220114 -0.000348999 2.70768e-18)
(2.27188e-06 8.86511e-06 4.14138e-19)
(-1.52985e-05 -8.57135e-05 8.9289e-19)
(-0.000609876 -0.00289677 -3.28231e-19)
(-0.0022537 0.000358551 -1.05555e-19)
(-0.0234997 -0.0131385 7.32847e-19)
(-0.08265 0.104909 1.0355e-18)
(-0.0327353 -0.00971781 -1.76706e-19)
(-0.000560997 -0.00303855 5.36137e-19)
(-0.0733054 -0.0254497 2.81277e-19)
(-0.00241421 0.00825769 2.36422e-19)
(-0.000114383 -2.05079e-05 1.98482e-19)
(5.22952e-05 -4.72863e-06 3.66616e-21)
(-0.00762431 -0.0121944 1.91528e-18)
(-0.000106575 -3.2016e-05 4.39135e-19)
(0.00564893 -0.0190391 -1.87767e-18)
(-0.00102813 -0.000311873 3.09618e-19)
(-0.00731874 -0.00594649 1.48673e-18)
(-0.0314979 0.0027777 -3.1428e-19)
(0.00674803 -0.0353938 -2.34677e-19)
(0.100335 0.0336194 -5.97979e-19)
(0.0101945 -0.0391644 -2.63503e-18)
(5.95279e-05 -3.04757e-05 1.84973e-20)
(-0.248721 -0.151119 -7.47732e-19)
(0.000420685 6.64233e-05 1.46186e-19)
(-2.85236e-05 -6.07899e-05 -4.53386e-20)
(0.0681847 0.0795501 5.51893e-18)
(-0.000127109 -2.51837e-05 -9.00429e-20)
(0.00176537 -0.0093894 -8.28559e-19)
(-0.00103205 -0.000709696 1.54608e-19)
(0.0207644 0.0324036 3.09131e-18)
(-0.000109204 -3.63094e-05 -1.78189e-19)
(-0.0204863 -0.0286421 4.95106e-19)
(-0.0340799 0.0890182 1.41612e-20)
(-0.00322934 -0.0319514 1.20936e-18)
(-1.79476e-05 3.95986e-05 8.86098e-20)
(-1.09649e-05 -9.71219e-05 -7.36627e-19)
(-0.00401049 -0.0337865 -2.40759e-18)
(0.0015662 0.000808079 1.49938e-19)
(-0.000218453 -0.000237951 -5.65648e-19)
(-0.0106589 -0.0529359 -1.38817e-19)
(0.0172686 0.00834345 2.71234e-19)
(-2.6217e-05 -5.70652e-05 -1.10519e-19)
(-0.00836229 -0.012567 2.5124e-18)
(-0.0232575 -0.0147035 -3.75306e-18)
(-7.9807e-06 -9.58179e-05 1.95362e-20)
(-0.000911407 0.0006391 -9.69513e-21)
(0.00795946 0.00923177 5.00308e-19)
(-0.0316636 0.0582923 8.4389e-19)
(0.00651552 -0.0147726 7.29542e-19)
(9.67615e-05 0.000392774 4.60571e-19)
(0.000496039 5.24672e-05 -7.22287e-21)
(-0.00622549 -0.00909721 5.44787e-18)
(-6.14024e-05 -7.73659e-07 4.50909e-20)
(-5.44367e-05 -8.86424e-05 -2.95479e-19)
(-0.000261421 -0.000488784 -3.12244e-19)
(0.00410872 -0.0302781 4.16229e-19)
(-0.072971 0.0994472 2.34936e-18)
(-8.64036e-06 -3.9149e-05 7.79278e-19)
(-1.83257e-05 -2.82798e-07 6.01697e-19)
(-9.63854e-05 -2.91892e-05 -4.21524e-19)
(-0.0569399 0.0138837 1.35876e-18)
(0.00340857 0.0125922 -5.78568e-19)
(5.6141e-05 0.000103544 -7.31794e-19)
(0.00287291 -0.00849252 2.46444e-19)
(0.0131237 -0.00898496 -1.18109e-18)
(2.55385e-05 -0.000106366 -3.74596e-18)
(-0.0688594 0.0370589 1.21954e-19)
(-0.0359671 -0.00866386 6.39504e-19)
(0.000449855 -3.65591e-05 -1.533e-19)
(-6.48521e-05 3.54294e-06 8.46186e-19)
(0.00616391 -0.0136958 -2.91664e-18)
(-0.0554669 0.0195328 4.05329e-18)
(0.0537893 0.117216 8.24883e-18)
(-2.36876e-05 -6.87255e-05 -5.36188e-19)
(0.14668 0.028724 -3.50552e-18)
(-6.56571e-05 1.6319e-05 6.12828e-21)
(-2.04087e-05 -5.37271e-05 1.44433e-19)
(0.0153408 -0.0135457 1.06863e-18)
(0.0018668 0.000603954 -4.92006e-19)
(-0.0164027 0.0447499 -7.44457e-19)
(0.00636599 0.0184884 8.31792e-19)
(0.00237394 -0.000359609 -1.96975e-18)
(-0.00538051 -0.00503489 1.14716e-18)
(0.000580118 -4.48617e-05 2.05718e-19)
(-0.0712784 -0.00740041 -4.33276e-18)
(0.00160167 0.00115001 -4.31639e-19)
(-0.00352093 -0.00274676 -4.09369e-18)
(0.000273183 0.000336884 -9.15845e-20)
(-2.97114e-05 -8.78474e-05 -5.11572e-19)
(0.000219649 -0.000236476 -3.27781e-18)
(-3.19495e-05 -7.85254e-05 3.69114e-21)
(-0.0351803 -0.0129647 4.00697e-18)
(-0.100205 0.0931676 1.88363e-19)
(0.0184227 0.0344809 -1.98443e-18)
(-0.00503007 -0.00212203 1.63463e-18)
(-0.000349193 5.69002e-05 -7.06519e-20)
(0.000210141 0.000384948 -2.65838e-19)
(-0.00167041 0.000241637 -5.43258e-19)
(-0.00309021 -0.00232622 -7.77266e-19)
(0.00130095 -0.00127529 3.11188e-19)
(-0.000232379 -0.000175336 -2.53074e-19)
(-8.88643e-05 -5.30123e-06 1.80387e-19)
(0.0142366 -0.0110773 6.02065e-19)
(-1.19185e-05 -8.6179e-05 1.39816e-19)
(0.00163794 -0.00101946 -9.42007e-19)
(-0.11288 -0.322046 1.78106e-17)
(0.122734 0.0138897 -1.95674e-18)
(0.0529123 -0.0398851 -1.77221e-18)
(0.00025021 -0.000108494 1.48053e-18)
(3.36139e-06 9.74172e-07 -8.88467e-19)
(0.00862722 0.00843448 -1.41939e-19)
(0.000499584 4.5752e-06 -2.52324e-19)
(-0.0437259 -0.0208187 2.10558e-19)
(-0.115392 -0.0967299 -8.18361e-19)
(0.0012546 0.00431562 -9.72704e-19)
(0.00344297 0.00249309 2.0326e-19)
(-0.00108422 -0.00740854 9.75087e-19)
(0.000931722 -0.000437688 -1.49532e-18)
(0.00195332 -0.00162364 1.75934e-18)
(0.105664 0.0784051 -8.80373e-19)
(0.0119686 -0.0014432 -9.12683e-20)
(0.000694218 0.00100848 8.20501e-19)
(-0.0270731 -0.0568908 -2.10106e-18)
(-1.90877e-05 4.71267e-06 4.90803e-19)
(0.108815 0.0280079 2.23442e-18)
(-0.248181 -0.182311 1.06752e-17)
(-0.0017366 -0.00186575 4.74934e-18)
(-0.000867011 0.000571191 -3.37466e-20)
(0.098953 0.0830307 2.01499e-18)
(-3.26335e-05 -6.13864e-05 8.59139e-20)
(-0.0183675 -0.0272998 1.32049e-18)
(0.0057486 0.0273005 1.07666e-18)
(0.0480229 -0.00614014 -1.34777e-19)
(0.00147583 0.00133627 -3.4762e-19)
(0.000188224 -0.000214158 6.96729e-19)
(2.4038e-05 -0.000129423 5.17798e-20)
(0.0598853 0.0249185 1.43325e-19)
(0.0471436 0.0982185 -1.00909e-17)
(0.0439576 0.0012338 -1.50499e-21)
(0.0177298 0.0739238 7.8083e-19)
(-0.00183497 -0.00299131 3.05423e-19)
(1.97805e-05 -0.000133167 -1.24882e-18)
(0.00393284 0.000991531 -3.69501e-19)
(-3.48026e-05 -0.000123313 -4.4978e-19)
(0.00282542 0.0029488 -1.63031e-18)
(0.0617873 0.0704594 -1.43545e-18)
(-0.0796496 0.0404342 -1.02005e-17)
(-0.109165 0.100038 2.73263e-19)
(-0.0792902 0.0473454 -9.44853e-19)
(0.00283119 0.00986898 3.9918e-19)
(0.00687355 0.0232447 -2.66131e-18)
(-0.00565376 0.0150164 -8.58797e-19)
(3.07871e-06 -8.40834e-05 -7.03788e-19)
(-2.75699e-05 9.18753e-05 1.43911e-19)
(0.00283153 0.0114046 1.68722e-18)
(0.00459944 -0.00286073 -9.45311e-20)
(0.00015228 -0.000176809 8.65313e-19)
(-4.12094e-05 -0.000119142 8.06713e-19)
(-0.0317405 0.0505565 4.81248e-19)
(-2.60356e-05 0.000105388 -2.618e-19)
(-0.0767114 0.0452461 4.76845e-19)
(0.00363204 0.00534305 3.78582e-19)
(-0.0301176 -0.0222549 -4.36409e-18)
(-0.0473725 0.017653 -1.53953e-18)
(-2.76069e-05 9.82192e-05 2.7631e-20)
(0.00334378 0.00178724 1.00766e-19)
(0.113482 0.00459806 6.73821e-19)
(-8.76214e-05 -1.85027e-05 1.45146e-19)
(-0.131873 0.108253 -1.4997e-18)
(-9.77046e-05 8.746e-06 1.3313e-19)
(0.0384698 0.0672838 -7.08701e-19)
(0.0120202 -0.00064191 3.5418e-19)
(-0.00014077 -4.87965e-06 5.04172e-19)
(-0.00703288 0.0144184 5.49623e-19)
(0.00243973 -0.0462827 4.63732e-19)
(0.0134772 -0.0400435 1.0751e-18)
(5.93585e-07 -1.9091e-06 -1.9578e-19)
(2.21723e-05 9.43302e-05 7.16314e-19)
(-0.00494742 -0.00863136 -3.35285e-18)
(-0.00192273 -0.00188226 5.08778e-18)
(-0.0301657 -0.0249668 3.13091e-18)
(-0.000117223 5.20431e-06 4.59313e-19)
(-0.0353592 -0.0047017 9.76441e-18)
(-2.93531e-05 0.000100918 1.34072e-20)
(-0.098026 -0.101169 -2.25027e-18)
(4.56434e-05 -3.03521e-06 -5.90252e-21)
(8.53007e-05 -4.54463e-05 3.31496e-19)
(-0.0987064 -0.0223666 -6.78487e-19)
(-0.00565367 -0.00330517 -2.30807e-19)
(0.00280493 -0.0183197 -5.15809e-19)
(1.69004e-05 2.84473e-06 1.61701e-20)
(0.0034569 0.00329042 9.8172e-21)
(0.0038227 -0.000250498 -1.81354e-20)
(-0.0689099 -0.0364309 9.662e-19)
(-0.259104 -0.0630646 2.51888e-18)
(0.000961577 -0.0025983 2.3017e-18)
(-0.0050092 0.00760564 3.16056e-19)
(1.14582e-05 -4.94353e-06 -1.6204e-19)
(0.00219306 0.00834982 1.03959e-18)
(0.000207507 0.000179648 -8.34216e-19)
(0.000897053 -0.00242304 3.20499e-19)
(0.0419293 0.152431 -1.14349e-19)
(-2.15158e-05 -6.55007e-05 -2.09623e-19)
(-0.0310098 -0.0175709 -6.21801e-20)
(-0.000131813 0.000178405 1.15751e-19)
(-2.20565e-06 -4.14399e-06 -9.24829e-20)
(0.00234758 -0.00210214 -2.77733e-18)
(-0.0407732 -0.0278638 -3.63652e-19)
(0.000914551 0.00264668 2.36274e-19)
(0.0434899 0.00632346 1.13848e-19)
(0.00165363 -0.0014407 -4.93315e-19)
(-0.00770602 -0.00461403 4.50022e-18)
(-0.05715 0.0924712 2.07426e-19)
(2.22833e-05 -0.000140615 5.1638e-20)
(-9.47539e-06 -8.4437e-05 5.41731e-19)
(0.136439 0.00204814 -2.25441e-19)
(0.0158641 -0.00518352 1.28188e-18)
(-0.0858394 -0.286751 -9.7573e-18)
(0.00991995 0.0180004 -1.66841e-18)
(-0.000486073 0.000234603 -9.20788e-20)
(-5.40163e-05 -0.000112411 -1.19291e-19)
(-0.000137825 0.000120258 6.13849e-20)
(-0.00535023 -0.00342509 1.79148e-18)
(-0.000182965 0.00067644 8.29376e-20)
(-0.000822132 -0.00062814 3.77023e-20)
(0.0616045 0.0124267 -1.46549e-19)
(0.166175 -0.0226666 -3.22064e-18)
(7.86453e-05 -6.09579e-05 -1.02268e-18)
(-0.033525 0.0724724 -2.98693e-18)
(-0.0356411 0.0719088 6.45475e-19)
(-0.00399954 0.00364761 1.20077e-18)
(-0.111673 -0.0291015 3.28463e-19)
(-6.81378e-05 -9.0669e-05 1.77953e-19)
(0.0943435 0.000569771 -7.71753e-19)
(0.0477242 0.0227021 -7.2551e-20)
(-2.9689e-05 -0.000209808 4.44848e-20)
(-0.0621865 0.100881 -4.0813e-19)
(-0.00721995 -0.0104826 8.28936e-19)
(-0.0139988 0.0393506 1.27755e-18)
(-0.0607899 -0.056128 -5.69111e-20)
(-5.20782e-06 -0.000439 1.35521e-18)
(-0.000194279 0.000117939 -3.15096e-19)
(-2.00353e-05 1.47303e-06 5.4409e-19)
(-0.0154939 -0.0245588 -1.49517e-19)
(-0.0137879 -0.00428583 -1.42589e-18)
(4.45874e-06 -5.20213e-06 -6.40031e-20)
(-1.2826e-05 -0.0003391 -3.34373e-18)
(0.0612731 0.00846983 -1.6263e-19)
(0.000382203 1.4808e-05 6.1376e-19)
(-0.00798714 -0.0109192 3.40044e-19)
(-0.000204038 0.000235756 7.22408e-19)
(-0.00682131 -0.00899885 -3.72423e-18)
(-0.239865 -0.0112644 -4.35256e-19)
(0.0512975 0.0289847 2.44624e-19)
(0.00485161 0.0132478 3.46589e-19)
(0.0470115 0.0202933 -5.21868e-19)
(0.0179844 -0.00399636 -2.06331e-19)
(-0.0453355 -0.0368534 -1.28871e-18)
(0.00363549 0.00211173 -5.14091e-20)
(-4.37059e-06 6.82604e-05 -5.55186e-20)
(0.00313988 0.00593667 1.84924e-19)
(-0.0485413 -0.05804 -9.41181e-20)
(-0.00816306 0.000758955 -5.5519e-19)
(-0.0123462 -0.00176654 -9.1178e-18)
(-8.21449e-06 3.29538e-05 -1.42843e-19)
(0.0820519 -0.00397985 -5.19833e-19)
(-9.83205e-05 -1.73901e-05 2.28875e-19)
(-0.000479477 0.00032108 -6.66498e-20)
(-0.260925 -0.339605 -1.99009e-18)
(-1.56518e-05 -1.08906e-06 -2.39262e-19)
(0.00398746 0.00611181 -1.03056e-19)
(0.000648491 -0.0158914 5.50145e-19)
(0.0402725 0.00538527 -8.70179e-20)
(-6.41358e-05 4.23561e-05 5.01013e-19)
(-9.48975e-05 -6.17026e-05 3.80042e-20)
(0.00258556 -0.00175584 2.18136e-18)
(0.003723 0.00376886 1.68421e-20)
(-5.46826e-06 7.09256e-06 4.41778e-19)
(-0.00109311 0.00175467 1.19194e-19)
(-0.0102128 0.0152245 -4.38416e-19)
(0.0606906 -0.0518124 -1.36915e-18)
(0.00210437 -0.000549156 -4.73041e-18)
(-2.37691e-06 4.64035e-06 1.5741e-19)
(0.0184431 -0.00853015 8.70357e-20)
(-0.0414562 0.101998 -1.91083e-19)
(2.03903e-05 -4.0419e-06 -4.78439e-19)
(0.0387578 0.0208108 3.89441e-19)
(-0.0771902 0.0392979 1.73707e-18)
(1.59453e-05 -0.000110985 3.81922e-18)
(0.138457 0.0709928 2.29947e-18)
(-1.00056e-05 2.21808e-05 -2.02025e-19)
(-0.0983718 -0.0774403 -4.8536e-19)
(-4.04809e-05 -0.000127694 -9.36954e-20)
(-0.00106632 -0.000964558 -4.075e-20)
(-0.0958084 -0.0163362 -4.1292e-20)
(0.00142387 0.00175862 2.63283e-19)
(-0.0380368 0.036118 5.17523e-18)
(0.00193007 -0.000529715 1.39259e-18)
(-9.67246e-05 -5.63308e-05 -4.92577e-20)
(0.152253 0.0859755 1.60116e-18)
(-3.95603e-05 -0.000128218 -3.55903e-19)
(-6.21457e-06 -8.77842e-05 -1.06611e-18)
(-6.27828e-05 -8.20622e-06 5.9114e-20)
(-2.2029e-06 6.04426e-05 7.78437e-20)
(0.00417104 0.00678526 6.4134e-19)
(0.0141287 -0.00702782 -1.75343e-18)
(0.0983672 0.037714 1.7825e-19)
(-2.61205e-05 1.81075e-06 6.62307e-19)
(-0.122445 0.109475 2.52188e-18)
(-0.0030379 -0.00107491 -1.48865e-19)
(0.0344279 0.0276471 -2.54319e-21)
(-0.0646091 -0.135223 1.78053e-17)
(-0.000841836 0.000747531 2.55479e-19)
(9.94101e-06 -0.000144608 -3.20076e-19)
(0.00372475 0.00288252 2.45676e-19)
(-0.000422669 -0.000138386 5.23661e-19)
(-0.0489821 -0.0121706 4.76526e-18)
(-1.35871e-05 8.12601e-05 -2.2965e-20)
(2.00516e-06 -7.45766e-05 -4.18453e-19)
(2.1999e-05 1.22545e-05 6.79666e-19)
(6.38746e-06 2.43863e-06 -1.22063e-19)
(-8.73179e-05 -2.75734e-05 3.54429e-19)
(-0.124866 -0.0365028 6.78561e-19)
(-0.00581574 -0.00181585 1.02866e-18)
(-0.00875315 -0.015848 -4.31113e-19)
(0.00305969 -0.000331624 2.80744e-19)
(0.00256184 0.004251 -7.81732e-19)
(-0.00457672 0.000145279 -5.77625e-19)
(-0.00206235 -0.00478168 2.4451e-19)
(0.0182445 0.0153028 1.33301e-19)
(-9.80107e-06 -7.18307e-05 9.22639e-19)
(-0.0342819 -0.0107259 -2.23549e-18)
(0.0213759 -0.0082433 -9.56708e-19)
(3.2123e-05 8.83077e-05 1.99191e-20)
(-0.0756111 0.0311985 2.64045e-18)
(-0.252828 -0.0366125 1.72181e-18)
(-1.19469e-05 -4.70851e-06 1.85698e-18)
(0.0181627 0.0307198 1.56767e-18)
(2.38738e-05 -3.8358e-06 -4.32786e-20)
(-0.0365078 -0.0439528 9.8719e-20)
(-0.00743722 -0.00496152 -2.51131e-18)
(-4.50039e-06 -0.000197614 -2.60134e-20)
(-0.0056637 -0.00851502 -8.29728e-19)
(0.00302694 0.00516998 9.78618e-20)
(0.026806 0.0270852 -2.86067e-19)
(-1.2307e-05 -1.61182e-06 -1.63914e-18)
(-0.00133626 -0.00144605 -3.36238e-18)
(0.0549098 0.0405019 2.79613e-19)
(0.04118 0.021923 1.93365e-18)
(-0.0369298 0.00868711 -3.67055e-19)
(-8.69563e-05 -3.97103e-05 -6.9636e-19)
(0.0238494 -0.0331071 -1.92598e-19)
(-0.0277902 0.000869207 -7.98459e-18)
(0.088758 0.00425233 -7.22642e-19)
(-0.000113763 2.63493e-06 -2.10769e-20)
(0.000584659 -0.00126306 -2.64682e-18)
(6.87726e-05 -0.000348444 -9.63444e-19)
(-9.03482e-06 5.40656e-05 5.65185e-20)
(2.26343e-05 -0.000112052 -2.16576e-19)
(3.87571e-05 -4.31938e-06 -1.96927e-20)
(-1.25363e-05 -7.8213e-05 -6.21851e-20)
(0.0243919 0.0309765 1.62552e-19)
(0.00258531 -0.00679748 1.77357e-19)
(-7.15549e-06 1.5112e-05 -1.89681e-19)
(2.0886e-05 -1.84809e-05 7.00517e-21)
(1.83367e-05 6.97463e-06 -1.16612e-19)
(-1.73669e-05 0.000387234 4.87998e-20)
(0.038561 0.0211607 1.12024e-18)
(-0.0272167 -0.000459229 7.29313e-18)
(-1.10467e-05 1.68059e-05 -2.1551e-18)
(0.00336612 0.00418521 -3.71171e-20)
(-0.000278727 0.000117082 1.22447e-19)
(-0.000315287 9.05027e-05 7.6425e-20)
(-0.000169911 -0.00110386 1.56822e-19)
(8.88444e-07 6.00274e-06 -1.87644e-19)
(-0.0200688 -0.00513187 3.32542e-19)
(2.24124e-05 5.62248e-07 -2.15664e-19)
(-9.9888e-06 8.64371e-05 1.77489e-19)
(-3.15627e-05 -1.49126e-06 2.65629e-19)
(0.000221158 -0.000100885 -3.73317e-19)
(0.00273464 -0.00227174 2.85833e-19)
(-0.00230518 0.000109104 3.01266e-19)
(-0.0941246 0.0383078 8.39224e-21)
(0.042599 0.073037 1.10781e-18)
(0.00125394 -0.00268161 -1.0103e-18)
(-1.2735e-05 9.93873e-05 -1.81232e-19)
(-0.0523912 0.0192674 -3.56445e-18)
(7.45587e-06 -6.47886e-05 3.54725e-19)
(1.95172e-05 -1.41923e-05 -2.73553e-20)