/*--------------------------------*- C++ -*----------------------------------*\
| =========                 |                                                 |
| \\      /  F ield         | OpenFOAM: The Open Source CFD Toolbox           |
|  \\    /   O peration     | Version:  v2012                                 |
|   \\  /    A nd           | Website:  www.openfoam.com                      |
|    \\/     M anipulation  |                                                 |
\*---------------------------------------------------------------------------*/
FoamFile
{
    version     2.0;
    format      ascii;
    class       volScalarField;
    location    "550";
    object      p;
}
// * * * * * * * * * * * * * * * * * * * * * * * * * * * * * * * * * * * * * //

dimensions      [0 2 -2 0 0 0 0];


internalField   nonuniform List<scalar> 
18355
(
-0.0099901
0.00372109
-0.00360395
0.00110571
0.00645907
0.00353275
0.0043573
0.00620549
0.00353525
-0.00509784
0.00663393
-0.0383543
-0.037555
0.000528137
0.00338223
0.003442
0.00118429
0.00643176
-0.022297
0.00509901
0.013925
-0.00599055
0.0036549
0.00263912
0.00364857
0.00542233
0.00443206
0.00129585
0.00345064
0.00750679
-0.0286439
0.0117717
0.00355081
0.00320981
0.000243126
0.00567413
-0.0219526
0.00576682
0.00798733
0.00139216
-0.00296322
0.00711919
0.00324743
0.00370027
0.00371197
-0.0317744
0.00250843
0.00249463
-0.0300133
0.00455675
0.00289662
-0.00376026
0.00461305
-0.0148686
-0.00285115
0.00507404
0.00160103
-0.022661
0.00557631
-0.0140455
0.00323056
-0.0311697
-0.0133908
0.00361009
0.0113789
0.002832
-0.00685389
-0.0214232
0.00309569
-0.00704987
0.00425843
-0.00289555
0.00971456
0.00739786
0.00746941
0.00314791
-0.0209745
0.00316674
0.00421863
0.00756657
-0.00628918
0.00506524
0.00312127
-0.00432266
-0.00220366
0.00346074
0.00215915
-0.00748984
0.0035587
-0.00670105
-0.0276133
0.0167329
0.00413541
0.00455236
-0.0248478
0.00365344
0.00309191
0.00362314
-0.0168104
-0.00476081
-0.00241958
0.0041866
0.00450936
0.000220201
-0.00556393
0.00345635
0.0118163
-0.0265244
-0.0130608
0.0033687
0.00162786
0.00274649
0.00900117
-0.00411016
0.00330121
0.00359228
0.00415263
0.00606885
-0.00410531
-0.00773457
-0.00623439
-0.000205509
-0.0299312
-0.00658523
0.00658163
-0.022113
0.00439424
0.0011122
-0.0137121
-0.0055327
0.00314856
-0.00683005
-0.000843985
-0.0207506
0.00168195
0.00369707
-0.0210495
-0.0103578
-0.000670843
0.0168953
-0.0162338
0.00622983
0.00291536
-0.00776187
0.00222539
-0.0027472
0.00145354
0.000290394
0.00917965
0.00190735
0.00130822
-0.00778212
0.00389188
0.00479287
0.00327125
0.00360019
0.00116698
0.00336409
0.0029139
0.00359649
0.00639842
-0.000771909
0.00338222
0.00534681
0.00757538
-0.000846024
0.00254628
-0.00850862
-0.038584
-0.01568
0.00240435
-0.0212255
0.00336351
-0.0259426
0.00120197
-0.00271848
0.00268971
0.000179489
-0.0192358
-0.00104863
0.00355681
-0.00053983
-0.005788
0.00134205
0.00206244
0.0045043
0.00365378
-0.00524909
-0.00355289
0.00451184
-0.0251017
-0.0173634
0.00374902
0.0031107
-0.00320038
0.00780022
0.00294315
-0.0158019
0.00373228
-0.000725101
0.00445884
0.00581133
0.00836157
0.00363594
-0.00980552
-0.00614
-0.0321676
0.00142994
0.00350594
0.0040087
-0.00205062
0.00507959
0.00372019
0.00374512
0.000271812
-0.0293781
-0.000432443
-0.0231193
-0.00578424
0.00279482
-0.0131293
0.00292581
-0.0086312
0.00440265
0.00338453
0.00392547
0.00298256
-0.00739398
-0.00566005
0.00643634
0.00412799
-0.00606789
-0.00274636
0.00296128
0.00537911
0.00324227
-0.0147167
-0.0286386
-0.0293114
0.00379676
0.00375958
-0.0189322
0.00383827
0.00505946
-0.00580596
-0.00300886
0.00223107
0.00529236
0.00328685
0.00431313
0.00362028
0.0028152
-0.00932048
0.00419882
0.000208575
0.00442215
-0.0285349
-0.00207925
0.00383973
0.0032658
-0.000447834
0.00454492
-0.0178775
-0.0347204
0.00883532
0.00620207
0.00614056
-0.0166667
0.00330822
-0.00303309
0.00456711
0.00336324
0.00591595
-0.0237873
0.00157193
-0.00295486
0.0084299
0.00366598
-0.00469142
-0.0572044
0.00831069
-0.00216005
0.00477132
0.00334548
-0.00897327
-0.00620783
0.000177836
-0.00292267
-8.84759e-05
-0.00267953
0.00353113
-0.0272134
-0.00541188
0.00399592
0.00605635
0.00337436
0.00308492
-0.00465727
-0.00267244
0.00602903
-0.0235633
-0.0606229
-0.0109057
-0.017754
0.00606395
0.00856423
0.00452352
-0.0269225
-0.0340745
-0.0262299
0.000611744
0.00826232
0.00283048
0.00700204
-0.0118512
0.00534699
0.00275916
0.00257615
0.00190189
-0.0407505
0.00808738
-0.0119529
-0.000372298
0.00856296
-0.0170022
0.00236672
0.000430835
-0.00616189
-0.0163173
-0.00395818
0.00578563
0.000143298
-0.00633455
0.00348261
0.00637422
-0.00274581
0.00114931
0.00656371
-0.0265291
-0.00796944
0.00437552
0.000895906
-0.0018675
0.0035868
-0.00378978
0.00507057
-0.00719897
0.00358178
-8.96888e-05
0.00201247
-0.00283394
0.00369592
-0.0123316
0.00496464
0.00206188
0.00418852
0.00160147
-0.00156399
0.00230295
0.00302807
-4.70625e-05
-0.00455033
-0.0149522
0.0031654
0.00297848
0.00280824
0.00449987
0.00182819
0.00335414
0.00181126
0.00390827
0.00829969
-0.00343098
-0.0149881
-0.0347592
0.00429233
0.00412019
-0.0276848
0.0034983
0.00448276
0.00588666
-0.00449387
0.000146176
0.00627516
0.00295061
0.00588807
-0.00321945
0.0189141
0.00387169
-0.00861353
0.00282827
0.00199321
0.00575984
0.00459108
-0.0300949
0.0353851
0.00220656
0.00407668
-0.0102147
0.00589709
-0.00275162
-3.43294e-05
-0.0278646
-0.00361397
0.00846074
0.00437268
0.00841375
0.00264891
0.00189238
-0.0052241
-0.0156977
0.000161431
-0.0364762
-0.00517253
0.00168127
0.0138315
-0.00280523
0.00541389
0.000600038
0.0125752
-0.00278632
-0.0222726
0.00348469
-0.0187609
0.00143854
0.00376979
-0.0187241
-0.00459385
0.00415505
-0.00517048
0.00436178
0.00170672
-0.0280381
-0.0289481
0.00376378
0.00129311
0.00344537
-0.0233455
-0.0155096
-0.00245831
0.00455793
-0.0293082
0.00304152
0.00338069
0.00415044
0.00185061
0.0345578
0.00347889
0.00352921
-0.00227375
-0.0249758
0.00600657
0.00306245
0.00534634
-0.00942589
-0.00697752
0.00707918
-0.0292614
-0.00604778
0.00294742
-0.0155816
-0.0271044
-0.0337103
0.00344755
-0.0262781
-0.000618884
0.00346784
-0.0100943
-0.00537425
0.0195998
0.00890203
-0.00851967
0.00777279
-0.00640589
-0.0124426
-0.00380928
-0.0343525
-0.00339151
0.00341915
-0.0105202
0.00343529
-0.0273814
0.0356634
0.0135762
0.00684702
0.00137423
-0.0029994
0.00399002
0.00599014
0.00362339
0.00285351
-0.00452381
-0.00976726
0.00376783
0.00359094
-0.0887453
-0.0196746
-0.0129872
-0.00564131
0.00353122
0.0028088
-0.00586133
0.00197977
-0.00360108
0.00678661
-0.00238771
0.00746897
-0.0100626
-0.013116
-0.0252769
-0.00467039
0.00535838
-0.0231709
0.00219746
-0.0100146
-0.0386337
-0.0302856
0.00123031
-0.0240863
0.00154854
-0.0226516
0.0126046
-0.00145471
-0.00325272
-0.0103054
-0.0065429
0.00054388
-0.0302816
0.000254416
0.00457942
0.00600065
-0.006276
-0.00495477
-0.00316912
0.00667273
0.0148074
-0.0261338
0.0367603
0.00955458
0.00793518
0.0107499
0.0100179
0.00242513
0.000319599
0.00816305
0.00679432
-0.00649514
-0.00314364
0.00529106
0.00318972
0.0083478
0.00728736
-0.0241232
-0.0334491
0.000202026
-0.00348244
-0.0154919
-0.00444126
0.0344463
0.000307704
0.0181434
-0.00398406
-0.00295365
0.0104693
-0.0170395
-0.0154287
0.00358708
0.00305132
-0.0284303
-0.0308564
-0.0230445
-0.0037124
-0.0319317
0.00323968
-0.00705181
7.93264e-06
0.00341268
3.69045e-05
0.00421561
0.0043519
0.00134827
-0.00125318
0.00407505
-0.0060939
-0.0121117
-0.0182624
0.00428453
0.00226728
0.0041418
-0.00358513
-0.0181912
0.00376872
0.00368742
0.0019162
-0.00114425
0.00234171
-0.0134405
0.00146962
0.00430465
0.001874
0.00406258
-0.0366879
0.00105241
0.000400531
0.00215102
-0.0264848
-0.00611039
-0.0864816
0.00822344
0.000852221
-0.00325379
0.00429055
0.00731157
-0.00100489
0.000607385
0.00224133
-0.0141494
0.00329581
-0.0264853
-0.0222187
0.00541011
0.00470193
0.00339739
-0.00827388
0.00148099
0.000323606
-0.00279819
-0.0289245
0.0186433
-0.00799735
0.00411709
0.00429353
0.00327533
0.00127037
-0.0396123
0.00187104
-0.0157388
0.00121799
-0.00534832
-0.0290176
0.00437021
-0.0301733
-0.00567659
0.00228032
0.00503404
0.00229842
-0.00479254
-0.0173037
-0.0030293
0.00300552
0.0016891
-0.00675949
0.00477757
-0.0434024
0.00157031
-0.00532003
-0.00231305
0.000509956
-0.0837787
0.0032822
0.00160256
0.00414081
0.00171566
-0.00679214
-0.00284361
-0.0122011
-0.000754057
0.00289954
0.00375812
0.0116852
-0.0176068
-0.00930916
0.00347988
-0.00692025
0.0011371
0.00183104
0.00329151
0.00755169
-0.00669042
-0.0272035
0.00295553
-0.00348682
-0.00417284
0.00043931
-0.000861491
-0.00236237
-0.0196828
-0.00944145
-0.00290531
-0.0302549
-0.004019
0.00333902
-0.00146082
0.00302235
0.00222542
-0.00787499
-0.00381752
0.00358132
0.034159
0.00556038
0.00400988
-0.051467
0.00106251
-0.00357502
-0.00190692
0.00301731
-0.0221935
-0.000700687
0.00329641
0.00325356
0.00174264
-0.00426514
0.00801973
0.0071852
-0.0259162
0.00508256
0.00691055
0.00598971
0.00391691
0.00485539
0.0037589
-0.0289399
-0.0056201
0.00301448
-0.0314174
-0.0105574
0.00246709
0.00547321
0.00198848
-0.00152698
-0.0357743
0.000220335
-0.0293164
0.00112228
0.00439481
0.00249059
-0.0288172
0.00323475
0.00696349
0.00649723
-0.00422108
-0.00118771
-0.039779
-0.00639636
-0.00378543
-0.0166867
0.00411125
-0.00226233
0.00254641
0.000362958
0.00369269
0.00530583
0.00483691
0.0035404
0.0031859
0.001444
-0.00193567
0.00715867
-0.0390138
0.00352417
-8.81591e-05
0.000720383
0.00117737
0.00411363
0.00282257
0.00603999
0.00317558
0.00298013
0.00358628
-0.00535568
0.00618714
0.00367693
0.000311372
0.0182575
-0.0174983
0.00303609
-0.0298468
0.00327498
0.00319141
0.00367375
0.0058292
0.00659802
0.0035936
0.00329236
0.00373535
0.00766436
0.00307404
0.00799531
-0.000612619
-0.00471165
0.00233777
-0.0164432
-0.003636
0.00306854
-0.00687432
0.00313131
-0.022118
-0.00210767
-0.029762
-0.000689295
0.0056052
0.00743781
0.00563793
-0.0214145
0.00358883
0.000852073
-0.00689716
0.00817879
0.0055434
0.00349815
0.00283984
-0.0227565
0.00283022
-0.0302847
0.00442237
-0.010184
0.0106217
0.00276569
0.00351429
0.000565933
0.00185147
-0.0348303
-0.0170065
-0.00456901
-0.0197384
-0.00887609
0.00306298
0.00215715
0.00212256
0.00408578
-0.00860671
-0.0251849
0.00471727
0.0019278
-0.00861975
-0.00618565
0.0113485
-0.00327751
-0.0253237
-0.0204973
-0.00532495
-0.0128503
-0.00603687
0.00960373
0.00269696
0.00308196
-0.0104256
-0.00212918
-0.00955023
-0.0371861
-0.0222371
0.00355219
-0.00540472
0.00574902
0.00411846
-0.0238184
0.00515026
0.00317942
0.00292253
0.00321114
0.00242356
0.00355863
0.00413083
-0.00143312
0.00267705
0.0054244
0.00355939
0.00363823
0.00263266
-0.00210588
0.00772197
0.00364123
0.00431887
0.00327488
0.00254699
0.00353608
0.0064539
0.00071069
0.00397094
-0.0142545
-0.0275799
-0.00184621
-0.00210469
0.0035861
0.00365859
0.00407189
0.00357792
0.00976854
0.0021872
-0.00179859
0.00553624
-0.00687038
0.00836747
0.000331403
0.00358846
0.00319359
0.00686181
-0.0117808
0.000821204
-0.0160948
0.00341244
0.00290388
-0.0177097
0.00950221
0.00250175
-0.0014258
-0.00138392
0.00311375
0.00371625
0.0155049
0.00707345
0.00201009
0.0145553
0.00682971
-0.0276249
0.00874563
0.00140785
0.00313019
-0.00705784
0.0051837
0.00312506
0.00135189
-0.00320614
0.00329718
-0.00162985
-0.0016921
-0.0321639
0.00214983
0.00406007
0.00404266
0.00459986
0.00370858
-6.95501e-05
-0.0178279
-0.0211373
-0.00213149
0.00349234
0.00332055
0.00339472
0.00402809
0.00516955
0.00366495
0.00356615
0.00393457
-0.00129394
0.00370092
-0.00486363
-0.0147327
0.00366084
0.00329172
-0.00418658
-0.0104285
0.00346531
-0.006443
0.0037115
0.0038691
0.00349535
-0.0138822
-0.0145702
-0.00499789
-0.0240935
-0.0164795
-0.0134225
-0.0198216
0.00161679
0.00727315
0.0037817
0.00332664
0.0012513
-0.015285
-0.0230657
0.00587298
-0.0228446
0.00306921
-0.0272318
0.00458778
-0.017323
0.00757536
0.00649537
0.0030412
-0.0269894
-0.0197038
0.0034436
0.00288402
0.0112307
-0.00899185
-0.00506948
0.00348168
-0.0266063
0.00050241
0.0041493
0.0100078
0.00217982
0.00568768
-0.0353134
-4.37442e-05
0.00441769
-0.0203191
0.00550277
-0.0332976
0.00766948
0.00220438
0.00219457
0.00418012
0.0267822
0.00633839
0.00140783
0.00381397
-0.0145951
0.0129532
0.00244756
0.0032239
0.00351921
0.00817988
-0.0104849
0.00298051
0.00287577
0.00227837
0.00299644
0.00366184
-0.00412211
-0.00234124
0.00355497
0.00546099
-0.0234188
-0.0112133
0.00324528
-0.0184942
0.00198016
0.000293561
0.00405857
-0.0291001
0.00766659
-0.00291612
-0.0055229
0.0133936
0.00354263
-0.0107923
-0.00526796
-0.00362046
0.0105549
-0.000244685
-0.00567891
0.00413641
0.00567615
-0.0123282
0.00480234
0.00367
-0.00402587
-0.0369958
0.00806595
0.000200625
-0.0189152
0.000421888
0.00810098
0.00359601
0.0030805
0.00450593
-0.0104105
0.00296249
0.01264
0.00731174
0.0069793
-0.018658
-0.0325651
-0.00973504
-0.000776209
0.00300984
-0.0239368
0.0183649
-0.00653877
0.0030299
0.00402511
-0.00474275
-0.0445648
0.00113003
0.00353258
-0.0263407
-0.00211112
-0.00590702
-0.00205209
-0.0100668
-0.00181949
-0.0479152
-0.0298109
-0.0241064
0.00332235
9.61681e-05
0.00334996
0.00295479
0.00562228
0.00163618
-0.00480711
-0.0160063
0.00681587
-0.0324961
0.000439031
-0.00709421
-0.028965
-0.00124154
-0.00838619
-0.0381013
0.0263166
0.000721356
-0.00607297
0.0043529
0.0208111
-0.0089921
-0.00887289
0.00241726
-0.0356114
-0.0150861
0.00355784
0.0058807
0.00435964
-0.011275
-0.000476546
0.000950992
0.00490379
0.00264437
0.0122794
-0.00682925
0.00335713
-0.00165811
0.00574129
0.000534264
0.00264261
-0.00580168
0.0029699
0.000262328
0.00340058
0.00500962
-0.0112392
-0.00173387
0.00268681
-0.00396298
-0.0185433
0.00835329
0.0041021
0.00364686
0.00589702
0.00221051
-0.000853974
0.00183265
0.00487156
0.00344199
0.00286384
-0.0022976
0.00317029
0.0043016
0.000400189
0.00412384
0.00341536
-0.0149596
0.00506197
0.00445557
0.0149047
-0.0274683
0.00348229
-0.0106021
-0.0106002
-0.00169615
0.00489734
0.00299465
0.00328066
0.00306473
-0.01383
0.00222415
0.00350664
-0.0253305
0.0030735
0.000175639
0.00333194
0.00315578
0.01651
-0.0120223
-0.0602122
0.000218535
-0.00742479
-0.0147992
-0.000236889
0.00369559
0.00451193
-0.00275325
-0.00737103
-0.0196826
0.00515162
0.00354182
-0.0767361
0.00639365
-0.0205124
0.00167674
-0.000702025
0.0190132
0.00335784
-0.00856757
-0.00503011
0.00331928
-0.000387686
0.00350983
-0.0124132
-0.0294748
0.00401169
0.00480374
0.000623996
-0.00572193
0.0053688
0.00639499
-0.00481061
0.00339053
-0.00168785
0.00331857
-0.000986607
0.000171585
0.00339028
-0.0140473
-0.0209034
-0.00167641
-0.00318003
-0.00482706
-0.000109282
0.00436899
0.00228183
0.00334927
-0.0130304
-0.000700196
-0.0119908
0.00056277
0.00345304
-0.0310282
-0.00646624
0.00671881
0.00328153
0.00196261
-0.0148375
-0.0253164
0.000902913
0.0046502
0.00704886
0.00334653
0.00571135
-0.000407392
-0.00476789
0.00727382
0.0173027
0.00198371
0.000801371
0.00341468
0.00366842
0.000195628
0.00298749
0.0060144
0.00498173
-0.0207195
-0.00310362
-0.00294118
0.00394073
0.00271358
0.00657734
-0.0421993
0.00292132
-0.0161582
0.00294046
0.00090107
-0.0128278
0.000807785
-0.0095405
0.00155006
-0.00950551
0.00335409
0.00297337
0.00352047
0.00121308
0.0192171
0.000456693
0.0042708
0.00349932
0.00407039
0.00335398
-0.0345471
0.00250238
0.00360027
0.00386766
-0.00491133
-0.00266683
-0.00224704
0.00400392
0.00404757
-0.0013174
0.00369686
0.0056633
0.00267767
0.00278357
-0.0237011
0.00334987
0.010279
-0.0224856
0.00296441
0.00395081
0.0035552
0.00402405
-0.0280552
-0.0285795
0.00864706
0.00871515
0.000837338
-0.0364896
-0.008822
-0.000151651
0.00452782
-0.0210211
0.00629488
0.00241067
0.00346901
0.0033745
0.00421098
0.00379091
0.00316436
-0.0304688
0.00187241
0.000407331
0.00198134
0.00639258
0.00335454
-0.040639
0.0025306
-0.0279687
0.00452337
0.00425866
-0.0133239
0.00257253
0.00522319
0.00800361
-0.00814547
0.00185645
0.0152261
-0.00210659
-0.017499
0.00308016
-0.0147317
0.00687416
0.000884013
0.00741155
0.00428614
-0.00696413
0.00316319
0.0156039
0.0046236
0.00268719
0.00404746
0.00978701
0.00741795
-0.00113119
0.000426133
0.0160952
0.00277059
0.00359057
0.000191697
-0.0373684
0.00330112
0.00322881
0.00360249
0.00688477
-0.0332196
-0.00245321
-0.00604988
0.00389266
0.0198305
0.00388446
-0.0124334
-0.0059966
-0.00264402
0.00323057
-0.00413894
-0.00242992
0.00421833
0.00446683
0.00235656
-0.0129346
0.00391097
0.00178504
-0.0206457
9.1701e-05
0.00364249
0.0171359
0.00405592
-0.0151473
0.00517675
0.00401231
-0.0382147
0.00397668
-0.0256649
-0.0167944
0.00349
0.00262021
0.00354545
-0.0127574
-0.000194524
4.87367e-05
0.00345439
0.00365167
0.00568093
0.00363469
0.00277971
-0.0843468
-0.000278396
0.00215343
-0.0108999
0.0102169
-0.00654875
-0.00623668
-0.0279707
-0.0179903
0.00305187
0.00420576
0.00353427
0.00360719
-0.0136058
-0.0448736
0.00257828
0.00099261
0.00445096
0.00414442
0.00355928
-0.0317785
0.000545783
0.0043667
0.00118981
-0.03141
0.0035522
0.00363557
-0.0165505
0.00405791
0.00769618
0.00248362
-0.00619174
7.12845e-05
-0.024154
0.00680363
0.00120671
0.004212
0.0052502
-0.0219134
0.00394569
-0.0302632
0.00274427
-0.00108552
0.000211652
-0.0116812
-0.00680977
-0.0448814
0.00907704
0.00414244
-0.0116999
0.00583456
0.0154989
-0.00879996
-0.000596875
-0.0941849
-0.0266195
-0.00118892
0.00359441
-0.0137382
0.00749711
-0.00490166
0.00441798
0.00393641
0.00213082
-0.0170348
-0.013751
-0.00688383
0.00327058
0.0305205
0.0047878
0.00622081
0.0035685
-0.0152207
-0.0295067
-0.00178094
0.00428054
0.00344848
0.00242862
0.00362146
-0.00495906
0.00353461
-0.0333662
-0.0154715
-0.00338177
0.0049674
-0.00607625
-0.00404502
0.0011155
-0.00508519
0.00566522
0.00518748
0.0054829
0.00331604
-0.00125133
-0.0151583
0.00217519
0.00270428
0.00320079
0.00379151
0.00122826
0.00705841
0.00390957
0.00338366
0.00359102
0.00333265
-0.000922116
-0.0373608
-0.00635523
0.00323342
-0.0758851
0.00414136
0.00351311
0.00176542
-0.00167974
-0.0206565
0.00186239
0.00396986
0.00365632
0.00432479
-0.00511573
0.00544849
0.00386844
0.00527245
-0.016789
-0.000248471
-0.00548957
-0.000796483
-0.0125639
-0.0188367
0.00172274
0.00470002
0.000676942
-0.0252204
0.00382666
-0.0297269
0.00379453
0.00768509
0.00353418
0.00408863
0.00354133
0.000905212
-0.0149715
-0.00579528
-0.0084648
0.00330222
0.00393206
0.00388247
0.00322541
0.00365738
-0.0102099
-0.00225638
-0.00401038
0.00370217
0.00809852
0.00410662
0.00242238
-0.00833753
-0.017861
0.00356153
0.00354555
0.00534173
-0.000337519
0.00362934
-0.0321786
0.00600414
0.00336132
0.00440975
-0.016786
0.0088161
0.00426306
0.00330371
-0.000329223
-0.0106437
0.00284885
-0.00245597
0.0141694
0.000435701
-0.0172125
0.00408025
-0.00341851
0.00321866
0.00472078
-0.0288687
0.00688472
0.0233984
0.00411779
0.00335465
-0.00311239
0.00415768
0.0105157
-0.0129679
0.00232403
0.00327446
-0.00470197
-0.00406198
-0.0251537
0.00409657
-0.00824575
0.00239414
-0.0113664
0.00362112
-0.0696312
0.00357223
0.00397859
0.00400816
-0.0342999
0.00135873
-0.01936
0.00812543
0.00623247
0.00337178
0.00761389
-0.00828436
0.00265096
-0.107001
0.00388373
0.0036161
-0.00223667
0.00647124
0.003515
0.0044615
-0.0159686
-0.0113998
0.00397334
-0.0340661
-0.00888663
-0.022532
0.00667138
0.00508162
0.0011043
-0.00124494
0.00383715
-0.0158233
-0.00312905
0.00645636
0.00366124
-0.0135795
-0.0440921
0.00302744
0.00400273
0.00398245
0.00513466
0.00413372
0.00564749
-0.00014409
0.00320616
0.00278371
0.00610744
0.0055893
-0.0107764
-0.00457718
-0.0222183
0.00011428
0.00605111
-0.00359842
0.00374708
-0.0100909
-0.000622137
-0.0256714
0.00403354
-0.000198358
0.00151057
0.00321147
0.00585905
0.00267396
-0.0146731
-0.0132384
0.00377611
0.00263867
-0.0374906
0.00314495
-0.0138024
-0.0184285
0.00885843
-0.0013394
-0.0112904
-0.0973065
-0.00200317
0.00549452
0.00365098
0.00365206
-0.0165373
0.00202895
-0.0102843
-0.0100945
0.00334034
0.00724008
0.00908346
0.00370222
0.00354002
0.00453073
0.0032848
-0.000870722
0.00421521
-0.0282968
0.00487076
0.0100195
0.00248659
0.00407602
-0.0599767
0.00304095
0.0052447
0.00349482
0.00592002
-0.00612868
0.00732486
-0.0470151
0.00333436
-0.013984
-0.0146905
-0.000210927
0.00407943
0.00422488
-0.000321316
-0.00256821
-0.0203094
-0.00337003
-0.0156718
0.00330735
0.00298908
-0.023084
-0.0166697
-1.25443e-05
0.0120737
0.00329805
0.00196588
-0.0138842
-0.000938538
0.00521877
-0.00358841
-0.0104468
-0.00193631
-0.0012898
-0.00372932
0.00272169
-0.00366674
0.0053202
0.000194578
0.0103764
0.00337433
0.00338893
0.00860622
0.00369687
0.0036424
-0.00586222
0.00273451
0.00775873
0.00163897
-0.00855704
0.00113788
0.000820031
-0.020286
-0.00614636
0.00483353
0.00409003
0.00199188
-0.0162736
0.00339801
0.00377742
-0.0430868
-0.0148632
-0.0147026
0.00618396
-0.00247543
0.00922556
-0.0174629
0.0037557
-0.00580785
0.000523114
0.00360223
-0.0370146
-0.00863741
0.00393107
0.00546843
0.00374031
0.000430003
-0.0329102
-0.000324983
-0.00606534
-0.018167
0.000804831
0.00323491
-0.0308523
0.00297784
0.0288231
-0.0206017
-0.038849
0.0080075
0.00102266
0.00734138
0.0030981
0.00163525
0.000916151
-0.00018759
0.00329582
-0.017817
0.00379809
-0.0108999
-0.0321462
0.0040773
0.00396813
0.00418805
-0.00947522
0.00359663
0.00305853
0.00511459
0.00361876
0.000526742
0.00470521
-0.0194557
-0.00020944
-0.00120274
0.000117123
0.00156153
0.00591429
0.00347107
-0.0149458
-0.0116584
0.0060676
0.00303779
-0.00295608
-0.00174789
0.0040632
-0.0439438
-0.0164173
-0.000266941
0.00584489
-0.0230538
0.00404907
-0.00256289
-0.00143539
-0.00859053
-0.027374
-0.0295409
0.00454761
0.0018375
-0.0219868
0.00598688
0.00291529
0.00476585
0.00331784
0.00359582
0.0043496
0.00343115
-0.0135702
0.00450067
0.000250049
0.00375504
-0.00214365
0.0054692
0.00522958
0.000160531
-0.0485758
-0.0157018
-0.0312321
0.0033553
0.00837158
0.000249192
0.00533159
0.00296597
-0.00115635
-0.0736589
-0.0138682
-0.0164121
-0.0110979
0.00444636
-0.0111227
-0.00157498
-0.0312049
-0.0243462
0.00445429
0.00425455
0.0033703
-0.00408454
0.00596616
7.15291e-05
-0.0225634
-0.000631149
0.00384148
-0.0312733
0.00358211
-0.0128598
-0.0105043
-0.0224116
-0.032174
0.00336245
-0.0178269
0.0147544
-0.0583354
0.00297258
-0.060756
0.00805874
0.00332731
0.00182503
-0.00125184
-0.0596292
0.00361418
0.00355328
0.00340242
0.00335888
-0.029597
-0.0157739
0.000160925
0.00180718
0.00285133
0.0017063
-0.0421654
-0.00112983
0.00340687
0.0226189
0.00249353
-0.00637296
-0.0533263
-0.00282758
0.00341401
0.00338882
-0.00156948
0.00363145
0.000407692
0.00332982
0.00529072
0.00616361
-0.0320229
0.00716807
-0.00341175
-0.00115614
-0.0298554
-0.0103136
0.0150803
-0.000325344
0.0040409
-0.00828241
-0.034402
0.00543204
-0.0229657
0.00901024
-0.00148497
-0.0840747
-0.0199564
0.000416862
-0.0135162
0.000803444
-0.0022306
-0.00724959
-0.0216036
-0.0292554
0.000544943
-0.00343951
0.000355551
0.01081
-0.0173218
0.00268082
0.00354623
0.000789179
-0.0481534
0.00335929
0.00345654
-0.00196858
0.00339812
0.00339086
-0.0386271
0.0047207
0.00404567
-0.103156
0.0011619
-0.0159931
-0.0139911
-0.00373611
0.00586937
0.00427805
-0.00736637
-0.0437778
-0.00991137
-0.0372077
-0.051221
-0.0140733
0.00291367
-0.0162645
0.00340832
-0.0372566
-0.0287269
0.00341645
-0.000351877
-0.0143342
-0.0262771
-0.000295626
0.0040679
-0.0581512
-0.00251838
0.00389674
0.00316676
0.00485598
0.00355138
0.00586302
-0.0335038
0.00323308
0.00119868
-0.0394046
-0.000229917
0.00229587
0.00141638
0.00401059
0.0183541
0.00347285
-0.00218261
0.00334928
-0.0134702
0.00237282
0.00835098
-0.0447545
-0.0217209
0.0129835
0.00390518
-0.00104934
-0.045332
0.00264978
0.00363469
0.00440248
0.00391987
-0.00645085
0.001629
0.00527796
-0.037162
0.00361277
0.00109096
-0.000646031
0.00403942
0.00123937
-0.00777003
-0.064954
-0.00447623
0.00395521
-0.0265272
-0.00115282
0.00427454
0.00211083
0.00444435
0.00180277
-0.000160395
0.00342378
0.00112445
-0.0220027
0.00357815
-0.00280783
-0.0198855
-0.0310206
-0.00844232
0.00285863
-0.0102222
0.0057087
0.0037123
-0.00316327
0.00291332
0.000591689
-0.0214954
0.00463191
-0.0304297
-0.0218219
0.00276066
0.00286222
0.00406198
0.00530802
0.0015508
0.00324921
0.0138583
0.000861561
-0.0562196
0.00152548
0.00490429
-0.0155008
-0.00825786
-0.00163472
0.00655726
0.0159024
0.00348819
0.00780077
0.00759497
-0.0161339
0.00110858
0.0105402
-0.0065842
0.00946462
-0.0103071
-0.0210193
0.00405061
0.00594806
0.00441231
0.00145866
0.00587877
-0.0122707
-0.00130879
-0.00156624
0.00389261
-0.0450231
0.00212246
0.000949951
-6.67703e-05
-0.000294067
-0.000577804
-0.0483217
0.00109482
-0.0150776
-0.025088
-0.0207845
0.000756464
-0.0146642
-0.00436839
0.00377675
0.000671861
-0.022626
0.00354402
-0.00015206
-0.0244111
0.00412417
-0.00761612
-0.00200013
-0.00615836
0.00336128
-0.00236417
0.00969771
-0.00429463
-0.00704858
0.000615743
-0.00477227
-0.0172972
0.00334226
-0.089156
0.00360545
0.00486541
0.00362241
0.00737594
0.0031728
0.00402158
0.00495579
0.00168711
-0.00679569
-0.00404459
-0.0242281
0.00326553
0.00212112
0.00911629
-0.00820412
0.00219014
0.00406857
0.00197319
0.0063293
-0.0377578
0.0043068
0.00363553
-0.00799246
0.00400318
-0.0255348
-0.0189166
0.00363335
-0.06071
-0.0334725
-0.0263166
0.0045077
0.00823458
0.00189401
0.00174044
0.00373731
-0.00906511
-0.0131736
0.0036308
-0.000173075
-0.0596988
0.0238702
-0.0105974
-0.0167157
0.015006
0.00405121
-0.00434236
0.000402892
0.00256182
-0.000648535
0.0033501
-0.0187933
0.0036828
-0.000651963
-0.000784014
0.00657856
0.00647126
-0.014278
0.00183191
0.000848398
0.00806588
0.00282027
0.00318118
0.00499208
-0.0208212
-0.0223615
0.00143561
-0.00107062
0.0248735
0.0278077
-0.0186782
0.00313468
-0.00355619
0.00327112
-0.0031315
-0.00229942
-0.00477299
0.000598342
-0.00311203
0.00395248
0.00377586
-0.0132828
0.00613165
0.00743835
-0.021948
-0.0222134
-0.0321828
0.00333059
0.0100251
-0.0143946
-0.0273812
0.00410979
0.00299905
0.00169625
-0.0290834
0.000390382
0.00356478
0.00365615
-0.0213621
0.00402551
-0.0217103
-0.00045398
0.00332737
0.01232
0.0018376
0.000564416
0.00197485
0.0032854
-0.0234824
0.0033026
0.00363536
-0.0165093
-0.0619783
-0.0334191
-0.0101312
0.00434078
0.00795089
0.00383641
-0.00902592
0.00333357
0.00336166
-0.00361659
0.00322719
0.00522515
0.00423463
0.00436407
-0.0153337
-0.0474666
-0.0207505
0.00399202
-0.0174132
-0.0412159
-0.0244135
0.00360372
0.00371056
0.00277514
0.00657939
0.00221712
-0.00116077
0.00339726
0.00363804
-0.018695
0.00333024
-0.00555623
0.00330234
0.00215573
0.00356585
-0.00462949
-0.00538264
0.0034063
0.00283925
-0.0147538
-0.019384
-0.0175507
-0.0236504
-0.00865787
-0.00201746
0.0148611
0.00658176
-0.000384618
-0.00223094
-0.0363713
0.0018025
-0.074703
0.00547444
0.00424335
-0.02858
0.00303733
0.00334095
0.00208758
0.00131756
0.00336511
-0.0150496
0.00368714
0.0033285
-0.00314258
0.00523776
-0.0313144
0.0023423
-0.0202287
0.00384251
0.00298778
-0.0301185
-0.0171918
-0.00486311
0.00170036
-0.00109822
0.00329354
-0.0189002
-0.0229413
-0.0424177
-0.0104994
-0.0150905
0.00369238
-0.0249038
0.00287886
-0.0028177
0.00700041
-0.0123948
-0.0455412
0.000236905
0.00521866
-0.0151725
0.00171301
0.00993657
0.00330755
0.0115146
-0.0105224
-0.0225232
-0.0202031
-0.00188985
0.0030797
-0.0169363
-0.076983
-0.0256684
0.00350598
-0.00686329
-0.0144609
0.0257827
-0.012335
-0.0417646
0.0307021
0.00234092
0.00321357
-0.0029578
-0.00451385
0.00492933
-0.00181352
0.00681726
-0.00747116
0.000193616
-0.00672351
0.0197512
-0.0272874
-0.0433107
0.00305942
-0.0143584
-0.0128078
0.002047
0.00618159
0.00647354
-0.00108797
0.00320643
-0.00176507
0.00556593
-0.0256254
0.00454339
0.00363783
0.0039869
0.00337665
-0.0811788
0.00220781
-0.00192042
-0.00224531
0.00274196
-0.0380574
0.00467441
0.00452506
0.00345507
0.00362951
-0.00560238
0.00293057
0.00550183
-0.012547
0.00639127
0.00330789
-0.0192749
-0.0370647
4.15666e-05
0.00491246
0.00151431
0.00337205
-0.00292128
0.00236543
0.0047258
0.00365662
-0.0467865
0.00747706
-0.0442944
-0.0184702
-0.00182913
0.00605178
0.00403449
-8.22422e-05
0.000954786
0.00336213
0.00587211
0.00525233
0.000577138
0.000136857
0.00394974
-0.00575982
-0.00440715
0.000833109
0.00363393
0.00333393
0.00480979
0.00233725
0.00756165
-0.0289851
-0.0033809
-0.0178092
-0.0186843
0.00338784
-0.00338025
-0.014239
-0.0350748
0.00333327
-0.000884254
-0.0163205
0.000367588
-0.00226462
0.00397808
0.00372104
0.000610584
0.0034892
0.00341942
-1.32496e-05
0.000361299
-0.00767365
-0.016289
-0.00174555
-0.00323408
0.00135866
0.00322176
-0.0273471
-0.0199503
0.00370485
0.00609009
1.99927e-05
-0.000595552
0.0013688
-0.0181772
-0.00309836
-0.00242427
0.00671331
-0.00157721
-0.00168979
0.00373175
0.000142045
0.0303899
-0.00374142
0.00365819
0.00172847
-0.00363823
0.00908782
0.00357673
0.000149126
-0.0108486
-0.0701659
-0.0145351
-0.00807886
0.0034077
-0.00629904
-0.01571
0.00442885
-0.0458303
0.00367932
-0.0217457
0.00319454
-0.00585605
0.00324929
-0.0254266
0.00356292
0.00391469
-0.00239595
0.00407238
0.0026454
0.000321514
0.00327945
-0.00471712
0.002139
-0.00463571
0.00343297
-3.13853e-05
-0.0314393
0.00393314
-0.000464718
0.000225681
-0.00880146
0.00154027
-0.0054098
-0.0302183
-0.0201521
-0.0265744
0.00408685
0.00394314
0.00349029
-0.00430346
0.00279988
-0.000586613
-0.00259627
-0.0826424
-0.00869637
-0.0450266
-0.00516812
-0.00546012
-0.00329595
-0.0260887
0.000245127
0.00276954
-0.00417597
-0.0019788
0.00251268
0.00333272
-0.00391015
0.00344528
0.00203682
0.00934117
-0.0143489
-0.00713945
-0.00777433
0.000913385
0.00357349
0.0243532
0.00354656
0.00721745
-0.0217359
-0.000120552
-0.0682502
-0.00348159
0.0024499
0.00511137
0.00227257
-0.0143447
0.00321866
0.00159795
-0.0123634
0.00497955
0.0049071
-0.00436886
-0.0306584
0.00343506
0.0043481
0.0039663
0.00109912
-0.00315336
0.00339236
0.0213302
-0.00889234
0.00722415
-0.0210904
0.00287949
-0.00176724
-0.0204501
0.00356578
0.017789
-0.0283508
0.00330248
-0.00619169
0.00355262
-0.0288726
-0.0420154
0.0038788
0.00633949
-0.00176847
0.0019123
0.00379395
0.00388993
-0.107505
-0.00252598
3.70834e-05
0.00489948
-0.00974896
0.00630105
-0.038853
-0.036144
-0.0134964
0.0033637
-0.00975097
0.00389829
-0.000421518
-0.0140185
-0.0256856
-0.0128652
-0.0104562
-0.0339935
0.00362124
-0.0551565
0.000464275
0.00218796
0.00158773
0.0016985
-0.00750039
2.03083e-05
-0.0134455
0.00390084
-0.0203672