/*--------------------------------*- C++ -*----------------------------------*\
| =========                 |                                                 |
| \\      /  F ield         | OpenFOAM: The Open Source CFD Toolbox           |
|  \\    /   O peration     | Version:  v2012                                 |
|   \\  /    A nd           | Website:  www.openfoam.com                      |
|    \\/     M anipulation  |                                                 |
\*---------------------------------------------------------------------------*/
FoamFile
{
    version     2.0;
    format      ascii;
    class       volVectorField;
    location    "100";
    object      cellDisplacement;
}
// * * * * * * * * * * * * * * * * * * * * * * * * * * * * * * * * * * * * * //

dimensions      [0 1 0 0 0 0 0];


internalField   nonuniform List<vector> 
18355
(
(0 2.52751e-06 0)
(0 -6.41702e-07 0)
(0 5.94213e-06 0)
(0 1.23809e-06 0)
(0 3.29862e-05 0)
(0 3.36743e-06 0)
(0 4.01467e-06 0)
(0 2.15783e-06 0)
(0 3.04499e-06 0)
(0 -6.42289e-07 0)
(0 3.21584e-05 0)
(0 -6.43066e-07 0)
(0 7.34759e-07 0)
(0 9.86572e-06 0)
(0 7.89362e-06 0)
(0 2.59534e-06 0)
(0 -6.41414e-07 0)
(0 5.98031e-06 0)
(0 5.16657e-06 0)
(0 -4.41311e-07 0)
(0 1.77358e-06 0)
(0 3.88409e-06 0)
(0 -6.33855e-07 0)
(0 3.40131e-05 0)
(0 2.90644e-05 0)
(0 -8.46575e-07 0)
(0 4.53813e-06 0)
(0 3.10941e-06 0)
(0 -6.02907e-07 0)
(0 5.8528e-06 0)
(0 4.17876e-05 0)
(0 2.96698e-05 0)
(0 5.65209e-06 0)
(0 -3.27681e-06 0)
(0 5.52321e-07 0)
(0 2.43127e-06 0)
(0 4.22484e-06 0)
(0 -4.46451e-07 0)
(0 3.16706e-06 0)
(0 3.14691e-05 0)
(0 9.81385e-06 0)
(0 -4.35921e-07 0)
(0 5.97562e-06 0)
(0 -6.41116e-07 0)
(0 4.48666e-07 0)
(0 -4.62017e-07 0)
(0 1.43989e-06 0)
(0 2.39667e-06 0)
(0 1.77699e-06 0)
(0 6.28901e-06 0)
(0 1.57035e-05 0)
(0 7.79292e-06 0)
(0 -3.93502e-07 0)
(0 -6.22649e-07 0)
(0 -1.4584e-06 0)
(0 -2.8228e-06 0)
(0 4.68808e-06 0)
(0 7.67021e-06 0)
(0 -6.41263e-07 0)
(0 -2.06633e-07 0)
(0 6.08715e-06 0)
(0 3.49865e-06 0)
(0 6.18308e-06 0)
(0 1.70095e-07 0)
(0 -6.42701e-07 0)
(0 2.77067e-06 0)
(0 -6.42205e-07 0)
(0 6.05477e-07 0)
(0 4.07011e-06 0)
(0 3.94603e-06 0)
(0 6.71639e-07 0)
(0 -1.9662e-06 0)
(0 -2.49799e-07 0)
(0 4.96798e-06 0)
(0 2.09002e-06 0)
(0 4.66312e-06 0)
(0 -5.51459e-07 0)
(0 2.78502e-05 0)
(0 2.19083e-05 0)
(0 7.95141e-06 0)
(0 3.12107e-06 0)
(0 -5.88432e-07 0)
(0 1.87068e-06 0)
(0 2.49338e-07 0)
(0 -2.45878e-07 0)
(0 8.12886e-07 0)
(0 -6.33633e-07 0)
(0 -4.11775e-07 0)
(0 -6.13206e-07 0)
(0 -6.24101e-07 0)
(0 -8.08324e-08 0)
(0 5.4118e-07 0)
(0 -3.018e-06 0)
(0 2.09112e-05 0)
(0 -6.41096e-07 0)
(0 -6.35793e-07 0)
(0 1.32867e-05 0)
(0 1.59754e-05 0)
(0 -6.2749e-07 0)
(0 -6.41225e-07 0)
(0 -6.3968e-07 0)
(0 -6.41342e-07 0)
(0 7.17944e-07 0)
(0 -4.17235e-07 0)
(0 3.65733e-05 0)
(0 1.32588e-06 0)
(0 -6.41572e-07 0)
(0 -4.55272e-07 0)
(0 6.13218e-06 0)
(0 -6.18487e-07 0)
(0 5.77469e-06 0)
(0 3.24158e-06 0)
(0 5.45599e-08 0)
(0 3.12743e-06 0)
(0 -6.25913e-07 0)
(0 -3.42661e-06 0)
(0 -6.41475e-07 0)
(0 -5.52137e-07 0)
(0 -6.41074e-07 0)
(0 6.63625e-07 0)
(0 -6.41744e-07 0)
(0 -5.59191e-07 0)
(0 2.86478e-05 0)
(0 6.18607e-07 0)
(0 1.29443e-05 0)
(0 -4.7631e-07 0)
(0 7.97065e-06 0)
(0 -1.08931e-06 0)
(0 -6.05156e-07 0)
(0 1.90241e-05 0)
(0 1.48186e-05 0)
(0 -4.75288e-07 0)
(0 4.53223e-06 0)
(0 1.6603e-05 0)
(0 -9.1371e-09 0)
(0 -9.31013e-07 0)
(0 8.64027e-06 0)
(0 3.33325e-05 0)
(0 7.76939e-06 0)
(0 -3.81591e-08 0)
(0 -6.39326e-07 0)
(0 -6.2864e-07 0)
(0 3.83501e-06 0)
(0 5.82928e-06 0)
(0 -6.1938e-07 0)
(0 4.17433e-06 0)
(0 1.64954e-06 0)
(0 -6.32335e-07 0)
(0 1.70553e-05 0)
(0 -6.31333e-07 0)
(0 2.8399e-05 0)
(0 3.9947e-06 0)
(0 6.20452e-07 0)
(0 -6.41089e-07 0)
(0 5.1037e-06 0)
(0 -5.77277e-07 0)
(0 -4.63584e-07 0)
(0 -6.4103e-07 0)
(0 -7.07146e-07 0)
(0 2.98626e-06 0)
(0 1.88016e-06 0)
(0 4.74239e-06 0)
(0 9.20017e-07 0)
(0 1.6723e-05 0)
(0 1.22743e-06 0)
(0 -6.38285e-07 0)
(0 -6.39186e-07 0)
(0 1.67826e-06 0)
(0 -8.30092e-08 0)
(0 5.60915e-06 0)
(0 -3.10299e-07 0)
(0 -6.3758e-07 0)
(0 2.70015e-05 0)
(0 2.94201e-05 0)
(0 2.67118e-06 0)
(0 -6.40888e-07 0)
(0 9.85506e-06 0)
(0 -2.04085e-06 0)
(0 -5.97812e-07 0)
(0 -6.37795e-07 0)
(0 -4.61681e-07 0)
(0 -7.3421e-08 0)
(0 1.09677e-05 0)
(0 5.75311e-06 0)
(0 6.18929e-07 0)
(0 -6.40515e-07 0)
(0 -6.26467e-07 0)
(0 2.15479e-07 0)
(0 2.85807e-06 0)
(0 -6.41531e-07 0)
(0 5.06554e-06 0)
(0 6.02484e-06 0)
(0 1.72967e-05 0)
(0 -4.29367e-07 0)
(0 -1.57309e-07 0)
(0 3.66511e-06 0)
(0 -5.00866e-07 0)
(0 1.14412e-05 0)
(0 6.78978e-06 0)
(0 2.77679e-05 0)
(0 1.63016e-05 0)
(0 2.36935e-06 0)
(0 -6.37845e-07 0)
(0 -6.29733e-07 0)
(0 -6.41097e-07 0)
(0 1.42463e-06 0)
(0 -6.41432e-07 0)
(0 -6.41862e-07 0)
(0 -6.38711e-07 0)
(0 7.13447e-06 0)
(0 8.35973e-06 0)
(0 2.82972e-05 0)
(0 -4.09363e-07 0)
(0 3.91904e-06 0)
(0 5.22492e-06 0)
(0 -5.80965e-07 0)
(0 9.63079e-08 0)
(0 -4.40667e-07 0)
(0 -2.48244e-08 0)
(0 1.72363e-05 0)
(0 -5.56089e-07 0)
(0 7.21444e-06 0)
(0 2.96338e-07 0)
(0 8.76819e-06 0)
(0 -6.40445e-07 0)
(0 4.23518e-06 0)
(0 -6.45197e-07 0)
(0 -6.40088e-07 0)
(0 -5.52616e-07 0)
(0 8.1736e-06 0)
(0 -4.30596e-07 0)
(0 2.28279e-05 0)
(0 2.53779e-06 0)
(0 -6.44885e-07 0)
(0 4.45502e-06 0)
(0 -2.01794e-06 0)
(0 -2.42196e-06 0)
(0 -4.96056e-07 0)
(0 -2.1863e-07 0)
(0 -6.41096e-07 0)
(0 6.45114e-06 0)
(0 -1.15941e-07 0)
(0 4.28312e-05 0)
(0 5.41427e-06 0)
(0 4.0802e-06 0)
(0 -6.40784e-07 0)
(0 -5.74267e-07 0)
(0 -6.41235e-07 0)
(0 5.45621e-06 0)
(0 1.9818e-06 0)
(0 1.5787e-05 0)
(0 -6.41048e-07 0)
(0 1.15026e-05 0)
(0 -6.37683e-07 0)
(0 4.30595e-06 0)
(0 -6.52922e-07 0)
(0 1.09571e-07 0)
(0 2.85988e-06 0)
(0 5.31176e-06 0)
(0 -2.4194e-06 0)
(0 2.85314e-06 0)
(0 5.52754e-07 0)
(0 -6.36742e-07 0)
(0 4.24277e-06 0)
(0 3.50313e-06 0)
(0 4.6281e-06 0)
(0 -5.84114e-07 0)
(0 -1.42019e-07 0)
(0 -3.134e-07 0)
(0 -5.24721e-07 0)
(0 3.17153e-06 0)
(0 -6.24749e-07 0)
(0 1.33637e-07 0)
(0 1.42774e-06 0)
(0 1.0623e-05 0)
(0 -5.01125e-07 0)
(0 8.05468e-06 0)
(0 7.3085e-06 0)
(0 -6.36768e-07 0)
(0 -1.46258e-06 0)
(0 4.76603e-06 0)
(0 1.24122e-06 0)
(0 5.46115e-06 0)
(0 -6.39774e-07 0)
(0 1.19197e-05 0)
(0 2.17761e-06 0)
(0 -1.32546e-06 0)
(0 1.56702e-06 0)
(0 -6.42224e-07 0)
(0 2.88752e-05 0)
(0 2.69351e-07 0)
(0 9.49288e-06 0)
(0 1.14156e-06 0)
(0 -6.37249e-07 0)
(0 -5.99518e-07 0)
(0 -2.62037e-07 0)
(0 2.67467e-08 0)
(0 6.70986e-07 0)
(0 5.49056e-06 0)
(0 -6.03928e-07 0)
(0 7.01858e-06 0)
(0 6.39325e-07 0)
(0 3.71679e-06 0)
(0 -3.4707e-07 0)
(0 -5.96794e-07 0)
(0 1.05978e-06 0)
(0 1.10471e-06 0)
(0 1.03236e-06 0)
(0 1.8071e-05 0)
(0 -4.84135e-07 0)
(0 3.86511e-05 0)
(0 5.11082e-06 0)
(0 -5.65812e-07 0)
(0 5.80582e-06 0)
(0 -1.56658e-07 0)
(0 -4.33745e-07 0)
(0 -2.54339e-06 0)
(0 2.76956e-06 0)
(0 -1.36209e-07 0)
(0 -6.40989e-07 0)
(0 -6.40752e-07 0)
(0 6.31535e-06 0)
(0 1.02011e-06 0)
(0 -6.41143e-07 0)
(0 3.48959e-05 0)
(0 -2.23474e-07 0)
(0 2.48269e-05 0)
(0 5.90121e-07 0)
(0 -1.71255e-07 0)
(0 1.60272e-05 0)
(0 -6.39366e-07 0)
(0 5.10499e-06 0)
(0 -7.00507e-08 0)
(0 -2.89351e-06 0)
(0 5.66111e-06 0)
(0 -6.45366e-07 0)
(0 -2.98252e-07 0)
(0 -6.38942e-07 0)
(0 4.91208e-06 0)
(0 6.78313e-06 0)
(0 1.51258e-06 0)
(0 3.43459e-06 0)
(0 -4.49038e-07 0)
(0 -6.18788e-07 0)
(0 -4.0247e-07 0)
(0 4.41924e-06 0)
(0 5.83112e-06 0)
(0 -6.37184e-07 0)
(0 -3.84091e-07 0)
(0 -3.20404e-06 0)
(0 4.589e-06 0)
(0 9.9078e-07 0)
(0 6.17331e-07 0)
(0 -6.41086e-07 0)
(0 -6.35067e-07 0)
(0 3.68156e-06 0)
(0 1.38307e-05 0)
(0 -6.41239e-07 0)
(0 5.77033e-06 0)
(0 4.57499e-06 0)
(0 -4.61056e-08 0)
(0 7.4809e-06 0)
(0 2.07313e-05 0)
(0 -6.40342e-07 0)
(0 -2.34676e-07 0)
(0 -1.54604e-07 0)
(0 -5.66908e-07 0)
(0 -6.41096e-07 0)
(0 -3.41391e-07 0)
(0 6.30815e-06 0)
(0 7.96519e-06 0)
(0 1.16967e-05 0)
(0 -3.89272e-07 0)
(0 1.20157e-05 0)
(0 1.48457e-06 0)
(0 7.98842e-06 0)
(0 3.80083e-06 0)
(0 3.40574e-06 0)
(0 3.12236e-06 0)
(0 2.16139e-05 0)
(0 5.92518e-06 0)
(0 2.03193e-05 0)
(0 2.07746e-05 0)
(0 2.9311e-06 0)
(0 -5.50619e-07 0)
(0 -6.15835e-07 0)
(0 9.01818e-06 0)
(0 -4.89868e-07 0)
(0 3.63283e-07 0)
(0 -6.05557e-07 0)
(0 8.59738e-06 0)
(0 8.47343e-07 0)
(0 3.92675e-06 0)
(0 -4.75327e-07 0)
(0 4.40067e-06 0)
(0 -3.12e-06 0)
(0 -1.26328e-06 0)
(0 3.92419e-06 0)
(0 -6.24273e-07 0)
(0 7.3106e-06 0)
(0 1.28944e-06 0)
(0 3.78711e-06 0)
(0 1.58476e-06 0)
(0 5.67792e-06 0)
(0 3.60171e-05 0)
(0 -6.45176e-07 0)
(0 3.83491e-06 0)
(0 7.88217e-06 0)
(0 -6.40951e-07 0)
(0 4.93675e-06 0)
(0 -6.41188e-07 0)
(0 -6.41103e-07 0)
(0 -2.71452e-08 0)
(0 1.78464e-06 0)
(0 3.7573e-05 0)
(0 -6.42168e-07 0)
(0 -2.33508e-06 0)
(0 5.75178e-06 0)
(0 -6.41693e-07 0)
(0 7.09716e-07 0)
(0 2.53838e-05 0)
(0 -6.41439e-07 0)
(0 4.99432e-06 0)
(0 -6.45034e-07 0)
(0 1.01088e-05 0)
(0 8.26314e-06 0)
(0 -6.41122e-07 0)
(0 3.91002e-06 0)
(0 5.546e-06 0)
(0 -5.28071e-07 0)
(0 3.59985e-06 0)
(0 -2.83308e-07 0)
(0 -4.16948e-07 0)
(0 8.15437e-06 0)
(0 5.53481e-06 0)
(0 4.24191e-06 0)
(0 -2.83577e-07 0)
(0 9.63534e-09 0)
(0 5.08976e-06 0)
(0 -3.34157e-07 0)
(0 3.88467e-06 0)
(0 -2.02324e-07 0)
(0 -6.41378e-07 0)
(0 1.6199e-06 0)
(0 4.42377e-06 0)
(0 -5.70582e-07 0)
(0 8.73888e-06 0)
(0 -1.2029e-07 0)
(0 -6.35977e-07 0)
(0 -6.52871e-07 0)
(0 -5.15019e-07 0)
(0 -2.37809e-07 0)
(0 -1.722e-07 0)
(0 -6.40949e-07 0)
(0 3.07937e-05 0)
(0 5.67757e-06 0)
(0 9.47917e-06 0)
(0 9.13638e-06 0)
(0 -3.75523e-07 0)
(0 6.47304e-06 0)
(0 1.27226e-06 0)
(0 -6.41258e-07 0)
(0 -2.23417e-07 0)
(0 1.70501e-06 0)
(0 -6.19558e-07 0)
(0 -2.78456e-07 0)
(0 -6.40923e-07 0)
(0 6.37822e-06 0)
(0 2.14705e-05 0)
(0 5.95061e-06 0)
(0 2.52889e-06 0)
(0 -3.05168e-07 0)
(0 -4.5707e-07 0)
(0 7.03349e-06 0)
(0 -6.15762e-07 0)
(0 6.44962e-06 0)
(0 1.19333e-05 0)
(0 -5.46142e-07 0)
(0 -1.70105e-07 0)
(0 6.07548e-06 0)
(0 2.64456e-05 0)
(0 -2.7825e-07 0)
(0 -6.38165e-07 0)
(0 2.752e-06 0)
(0 1.45983e-05 0)
(0 -4.49985e-07 0)
(0 2.45028e-06 0)
(0 -6.00617e-07 0)
(0 2.47706e-05 0)
(0 1.1288e-05 0)
(0 -6.41339e-07 0)
(0 -1.71315e-07 0)
(0 3.86892e-06 0)
(0 -6.36724e-07 0)
(0 -6.37752e-07 0)
(0 -6.45142e-07 0)
(0 1.09631e-05 0)
(0 1.47501e-05 0)
(0 2.63201e-06 0)
(0 1.32066e-06 0)
(0 4.29193e-06 0)
(0 -6.154e-07 0)
(0 -2.37504e-07 0)
(0 -4.71913e-07 0)
(0 -5.70362e-07 0)
(0 4.02275e-06 0)
(0 1.05785e-05 0)
(0 -6.38508e-07 0)
(0 -6.35969e-07 0)
(0 -5.85902e-07 0)
(0 4.95478e-06 0)
(0 1.68106e-06 0)
(0 1.8498e-06 0)
(0 -6.40087e-07 0)
(0 -6.41655e-07 0)
(0 -1.39253e-07 0)
(0 4.1971e-06 0)
(0 7.6736e-06 0)
(0 1.00836e-06 0)
(0 -3.87236e-08 0)
(0 6.71432e-06 0)
(0 -5.07704e-07 0)
(0 1.74456e-06 0)
(0 -6.20596e-07 0)
(0 7.61214e-06 0)
(0 3.9609e-06 0)
(0 -2.78785e-06 0)
(0 6.71906e-07 0)
(0 1.12e-06 0)
(0 -1.00892e-07 0)
(0 4.46908e-06 0)
(0 1.77903e-06 0)
(0 -6.37813e-07 0)
(0 1.61795e-05 0)
(0 5.32624e-06 0)
(0 2.41195e-06 0)
(0 1.80696e-05 0)
(0 3.61945e-07 0)
(0 4.51236e-06 0)
(0 7.11644e-06 0)
(0 1.62428e-05 0)
(0 -2.89127e-07 0)
(0 4.4855e-06 0)
(0 3.43012e-06 0)
(0 9.39824e-06 0)
(0 -1.37545e-07 0)
(0 1.63086e-06 0)
(0 2.14442e-05 0)
(0 3.29037e-06 0)
(0 6.23086e-06 0)
(0 3.46401e-05 0)
(0 -1.91474e-07 0)
(0 1.28712e-05 0)
(0 4.28436e-07 0)
(0 3.84154e-06 0)
(0 -3.94553e-07 0)
(0 2.28332e-06 0)
(0 -6.26131e-07 0)
(0 1.28772e-05 0)
(0 -6.41096e-07 0)
(0 1.78178e-06 0)
(0 2.37278e-06 0)
(0 3.18151e-08 0)
(0 -1.94254e-07 0)
(0 -6.05503e-07 0)
(0 1.69446e-05 0)
(0 7.65015e-06 0)
(0 1.06054e-05 0)
(0 7.42057e-06 0)
(0 3.00689e-06 0)
(0 1.37482e-06 0)
(0 6.06729e-07 0)
(0 -3.22559e-07 0)
(0 -6.24861e-07 0)
(0 1.4438e-06 0)
(0 -2.97077e-06 0)
(0 -6.38886e-07 0)
(0 -4.99328e-07 0)
(0 2.73965e-05 0)
(0 7.54224e-06 0)
(0 4.2225e-07 0)
(0 -6.28168e-07 0)
(0 2.69282e-06 0)
(0 1.00714e-06 0)
(0 -3.31652e-07 0)
(0 -2.62219e-07 0)
(0 4.58477e-07 0)
(0 8.12889e-07 0)
(0 -6.38403e-07 0)
(0 1.55895e-05 0)
(0 1.33645e-06 0)
(0 -6.41292e-07 0)
(0 -1.86414e-07 0)
(0 -5.68432e-07 0)
(0 -2.87946e-07 0)
(0 -4.83578e-07 0)
(0 1.09041e-05 0)
(0 -3.2226e-06 0)
(0 2.72583e-05 0)
(0 5.85245e-06 0)
(0 -6.13077e-07 0)
(0 -6.14445e-07 0)
(0 -6.40313e-07 0)
(0 -5.34906e-07 0)
(0 -6.42131e-07 0)
(0 -6.40403e-07 0)
(0 -2.96542e-07 0)
(0 2.50025e-06 0)
(0 -6.41001e-07 0)
(0 -6.22475e-07 0)
(0 3.25319e-05 0)
(0 -5.56201e-07 0)
(0 -6.40015e-07 0)
(0 -5.45102e-07 0)
(0 1.59245e-06 0)
(0 7.18856e-07 0)
(0 1.57505e-05 0)
(0 1.80267e-05 0)
(0 1.87763e-05 0)
(0 1.13881e-06 0)
(0 5.83849e-06 0)
(0 -6.41096e-07 0)
(0 2.84395e-06 0)
(0 2.01384e-06 0)
(0 -6.39637e-07 0)
(0 5.99244e-06 0)
(0 1.0002e-06 0)
(0 -5.69508e-07 0)
(0 5.57929e-06 0)
(0 7.68407e-06 0)
(0 -6.37414e-07 0)
(0 -3.7233e-06 0)
(0 1.81047e-06 0)
(0 1.50453e-05 0)
(0 -6.40319e-07 0)
(0 1.67541e-05 0)
(0 9.16382e-06 0)
(0 5.44763e-07 0)
(0 4.16818e-06 0)
(0 1.39933e-06 0)
(0 2.05947e-06 0)
(0 -6.24294e-07 0)
(0 5.04246e-06 0)
(0 3.79617e-05 0)
(0 -6.41157e-07 0)
(0 9.0822e-06 0)
(0 -6.39398e-07 0)
(0 -6.54835e-07 0)
(0 -5.35365e-07 0)
(0 -6.77758e-08 0)
(0 5.86988e-06 0)
(0 6.36221e-06 0)
(0 -6.38872e-07 0)
(0 2.33871e-06 0)
(0 4.3897e-06 0)
(0 9.84762e-07 0)
(0 1.07042e-05 0)
(0 -5.04709e-07 0)
(0 -5.86743e-07 0)
(0 1.50506e-06 0)
(0 -6.41089e-07 0)
(0 -3.51779e-07 0)
(0 3.47423e-06 0)
(0 1.56961e-06 0)
(0 8.92033e-07 0)
(0 3.55002e-06 0)
(0 -2.86761e-07 0)
(0 2.18204e-05 0)
(0 -6.00025e-07 0)
(0 1.31277e-06 0)
(0 6.39405e-07 0)
(0 -6.33798e-07 0)
(0 -6.37929e-07 0)
(0 -6.45738e-07 0)
(0 5.88595e-06 0)
(0 2.98666e-05 0)
(0 3.75327e-06 0)
(0 8.39709e-07 0)
(0 4.40216e-06 0)
(0 -6.39718e-07 0)
(0 -5.596e-07 0)
(0 4.0641e-06 0)
(0 7.21797e-06 0)
(0 2.5671e-06 0)
(0 1.66314e-06 0)
(0 2.19042e-05 0)
(0 -3.5305e-07 0)
(0 6.09468e-06 0)
(0 -6.36955e-07 0)
(0 4.88871e-06 0)
(0 4.49583e-06 0)
(0 -6.11191e-07 0)
(0 -6.38103e-07 0)
(0 3.96807e-06 0)
(0 -5.76645e-07 0)
(0 1.45833e-06 0)
(0 5.32793e-06 0)
(0 4.40902e-06 0)
(0 2.9706e-07 0)
(0 -6.47482e-07 0)
(0 4.9706e-06 0)
(0 -6.4164e-07 0)
(0 8.79025e-07 0)
(0 -5.98768e-07 0)
(0 -5.79945e-07 0)
(0 1.03649e-05 0)
(0 -6.423e-07 0)
(0 6.13072e-06 0)
(0 -6.25674e-07 0)
(0 2.64361e-05 0)
(0 -6.37407e-07 0)
(0 -6.41452e-07 0)
(0 4.07257e-06 0)
(0 -6.42064e-07 0)
(0 2.93126e-06 0)
(0 1.67305e-06 0)
(0 -6.12901e-07 0)
(0 -4.46266e-07 0)
(0 -6.41966e-07 0)
(0 4.75247e-06 0)
(0 -6.24355e-07 0)
(0 8.29036e-06 0)
(0 -6.13333e-07 0)
(0 2.8502e-05 0)
(0 1.67468e-06 0)
(0 1.79136e-05 0)
(0 6.072e-06 0)
(0 -5.76871e-06 0)
(0 6.13735e-06 0)
(0 -4.42263e-07 0)
(0 -5.3359e-07 0)
(0 5.21708e-06 0)
(0 -6.40582e-07 0)
(0 1.04608e-05 0)
(0 5.80929e-06 0)
(0 1.63111e-06 0)
(0 1.2072e-06 0)
(0 9.97635e-07 0)
(0 -6.18018e-07 0)
(0 5.24539e-06 0)
(0 -2.50303e-06 0)
(0 2.33232e-06 0)
(0 -6.30474e-07 0)
(0 1.70192e-06 0)
(0 5.86082e-06 0)
(0 6.3385e-06 0)
(0 2.22452e-06 0)
(0 7.19995e-06 0)
(0 -6.41096e-07 0)
(0 5.88934e-06 0)
(0 -6.0119e-07 0)
(0 -1.80461e-07 0)
(0 -4.82325e-07 0)
(0 -6.4483e-07 0)
(0 -6.41208e-07 0)
(0 -2.67711e-07 0)
(0 8.75618e-06 0)
(0 5.9899e-06 0)
(0 5.98101e-06 0)
(0 1.23982e-05 0)
(0 -6.38552e-07 0)
(0 2.83557e-06 0)
(0 1.03166e-05 0)
(0 -4.55031e-06 0)
(0 -6.21742e-07 0)
(0 2.71813e-06 0)
(0 3.81469e-05 0)
(0 1.18437e-06 0)
(0 2.77847e-06 0)
(0 -6.22123e-07 0)
(0 -6.42198e-07 0)
(0 4.01363e-06 0)
(0 9.64551e-06 0)
(0 -6.26159e-07 0)
(0 4.43133e-06 0)
(0 -6.37466e-07 0)
(0 -6.40765e-07 0)
(0 -6.43231e-07 0)
(0 -5.84479e-07 0)
(0 -5.84102e-07 0)
(0 -3.67501e-07 0)
(0 1.71911e-05 0)
(0 -2.51768e-08 0)
(0 5.32597e-06 0)
(0 4.9787e-06 0)
(0 4.32213e-06 0)
(0 -2.8e-06 0)
(0 4.22597e-06 0)
(0 -5.8852e-07 0)
(0 -6.39875e-07 0)
(0 1.02589e-05 0)
(0 -4.88089e-07 0)
(0 -2.27369e-06 0)
(0 3.61606e-06 0)
(0 1.48355e-06 0)
(0 -1.49753e-06 0)
(0 1.92128e-06 0)
(0 7.4428e-06 0)
(0 -6.24163e-07 0)
(0 -6.41088e-07 0)
(0 7.53407e-07 0)
(0 -6.41637e-07 0)
(0 -2.16093e-07 0)
(0 -6.401e-07 0)
(0 -3.43444e-07 0)
(0 -4.35431e-07 0)
(0 -6.35357e-07 0)
(0 4.64887e-06 0)
(0 -6.36362e-07 0)
(0 1.2453e-06 0)
(0 -6.54324e-07 0)
(0 3.08939e-05 0)
(0 8.14393e-06 0)
(0 2.2215e-06 0)
(0 1.73883e-05 0)
(0 -4.06868e-08 0)
(0 4.97995e-06 0)
(0 7.79721e-07 0)
(0 1.10525e-06 0)
(0 -2.76422e-07 0)
(0 1.03913e-07 0)
(0 2.28579e-07 0)
(0 -2.95012e-06 0)
(0 -3.31403e-07 0)
(0 3.61564e-05 0)
(0 9.66075e-06 0)
(0 2.30229e-06 0)
(0 4.4367e-06 0)
(0 -1.83619e-07 0)
(0 -6.20594e-07 0)
(0 4.45514e-06 0)
(0 3.2362e-05 0)
(0 5.53735e-06 0)
(0 -3.31208e-07 0)
(0 3.05675e-06 0)
(0 6.21587e-06 0)
(0 -5.753e-07 0)
(0 9.60632e-06 0)
(0 -6.36697e-07 0)
(0 1.16809e-05 0)
(0 -6.34792e-07 0)
(0 2.5026e-05 0)
(0 3.71358e-06 0)
(0 4.9426e-06 0)
(0 6.84361e-06 0)
(0 1.56095e-06 0)
(0 3.63228e-09 0)
(0 4.46022e-06 0)
(0 -6.34908e-07 0)
(0 7.38523e-06 0)
(0 -6.50695e-07 0)
(0 -6.42506e-07 0)
(0 3.19627e-06 0)
(0 -2.95434e-06 0)
(0 -1.21133e-06 0)
(0 1.21784e-05 0)
(0 -6.38542e-07 0)
(0 7.09074e-06 0)
(0 -6.3221e-07 0)
(0 -6.40028e-07 0)
(0 7.56616e-07 0)
(0 -6.39317e-07 0)
(0 -2.85585e-06 0)
(0 5.88582e-06 0)
(0 -6.40291e-07 0)
(0 -6.36829e-07 0)
(0 2.15984e-06 0)
(0 2.28541e-06 0)
(0 5.87084e-06 0)
(0 5.14522e-06 0)
(0 3.24588e-05 0)
(0 -1.02917e-07 0)
(0 -6.35431e-07 0)
(0 4.10671e-06 0)
(0 -6.13951e-07 0)
(0 -6.4103e-07 0)
(0 1.28654e-07 0)
(0 5.36117e-07 0)
(0 1.67511e-05 0)
(0 -6.41443e-07 0)
(0 -2.92418e-07 0)
(0 1.27187e-06 0)
(0 4.56264e-06 0)
(0 5.17092e-06 0)
(0 -6.33007e-07 0)
(0 6.73648e-06 0)
(0 -6.40092e-07 0)
(0 -3.65829e-07 0)
(0 -1.24452e-06 0)
(0 1.22879e-06 0)
(0 -1.02609e-07 0)
(0 5.5495e-06 0)
(0 4.13274e-06 0)
(0 -8.55327e-07 0)
(0 8.66421e-06 0)
(0 3.34614e-05 0)
(0 -6.41069e-07 0)
(0 -2.79494e-06 0)
(0 9.86624e-06 0)
(0 -6.42723e-07 0)
(0 5.41434e-06 0)
(0 5.19177e-06 0)
(0 -1.15012e-07 0)
(0 -6.09753e-07 0)
(0 8.41593e-06 0)
(0 -6.38739e-07 0)
(0 4.42115e-06 0)
(0 1.28413e-05 0)
(0 2.91247e-06 0)
(0 -6.41205e-07 0)
(0 -6.18026e-07 0)
(0 -6.39707e-07 0)
(0 -1.92158e-06 0)
(0 7.38542e-07 0)
(0 5.20277e-06 0)
(0 -6.39582e-07 0)
(0 1.8491e-05 0)
(0 -3.23139e-07 0)
(0 -1.5434e-07 0)
(0 -6.3404e-07 0)
(0 -4.43678e-06 0)
(0 -3.2886e-06 0)
(0 -5.8993e-07 0)
(0 5.94984e-06 0)
(0 -6.41168e-07 0)
(0 3.02345e-05 0)
(0 -6.41551e-07 0)
(0 -1.05048e-06 0)
(0 4.54982e-06 0)
(0 2.32287e-06 0)
(0 -5.95689e-07 0)
(0 -6.41655e-07 0)
(0 2.35998e-06 0)
(0 1.59709e-05 0)
(0 3.88941e-06 0)
(0 3.65506e-05 0)
(0 2.26715e-05 0)
(0 5.88103e-07 0)
(0 5.93091e-07 0)
(0 4.297e-06 0)
(0 -5.86544e-07 0)
(0 3.07793e-06 0)
(0 -6.38687e-07 0)
(0 3.06105e-05 0)
(0 1.02627e-05 0)
(0 -5.55741e-07 0)
(0 -6.36761e-07 0)
(0 -5.6439e-07 0)
(0 5.06209e-06 0)
(0 -6.27601e-07 0)
(0 3.11177e-05 0)
(0 -6.40035e-07 0)
(0 3.74073e-06 0)
(0 -7.31928e-08 0)
(0 8.06576e-06 0)
(0 -6.43131e-07 0)
(0 5.84643e-06 0)
(0 4.07866e-06 0)
(0 6.21856e-06 0)
(0 5.93659e-06 0)
(0 6.16587e-07 0)
(0 -6.12868e-07 0)
(0 -3.73345e-07 0)
(0 -6.32535e-07 0)
(0 4.65963e-07 0)
(0 1.87629e-05 0)
(0 4.49695e-06 0)
(0 1.34214e-06 0)
(0 -1.31671e-06 0)
(0 -3.45252e-06 0)
(0 2.82999e-06 0)
(0 -1.55587e-07 0)
(0 2.89827e-05 0)
(0 -6.41095e-07 0)
(0 2.25524e-07 0)
(0 2.28251e-06 0)
(0 3.72048e-06 0)
(0 -6.40069e-07 0)
(0 2.90997e-06 0)
(0 2.69639e-06 0)
(0 4.90622e-06 0)
(0 5.01925e-07 0)
(0 -6.42662e-07 0)
(0 5.77346e-06 0)
(0 -6.25846e-07 0)
(0 9.31654e-06 0)
(0 4.80712e-06 0)
(0 -5.74085e-07 0)
(0 9.49678e-06 0)
(0 5.77293e-06 0)
(0 1.23305e-06 0)
(0 1.24094e-08 0)
(0 3.13867e-05 0)
(0 -4.52414e-07 0)
(0 1.06803e-06 0)
(0 -6.40945e-07 0)
(0 4.31679e-06 0)
(0 -6.12459e-07 0)
(0 3.52815e-07 0)
(0 8.73187e-07 0)
(0 1.54456e-06 0)
(0 5.37971e-06 0)
(0 -5.66994e-07 0)
(0 2.07604e-05 0)
(0 -6.41091e-07 0)
(0 8.49833e-06 0)
(0 5.92929e-06 0)
(0 -6.38915e-07 0)
(0 8.29021e-06 0)
(0 2.18533e-05 0)
(0 -6.11702e-07 0)
(0 6.17075e-06 0)
(0 -5.0497e-07 0)
(0 -6.41124e-07 0)
(0 7.10488e-06 0)
(0 -2.85169e-07 0)
(0 -6.41113e-07 0)
(0 3.06284e-06 0)
(0 5.85469e-06 0)
(0 2.01528e-05 0)
(0 1.8375e-05 0)
(0 1.04519e-05 0)
(0 4.91813e-06 0)
(0 1.6296e-07 0)
(0 3.14875e-05 0)
(0 1.84604e-06 0)
(0 -6.26046e-07 0)
(0 -3.70803e-06 0)
(0 -6.41163e-07 0)
(0 2.57694e-05 0)
(0 6.54717e-06 0)
(0 -3.28889e-07 0)
(0 -6.4118e-07 0)
(0 -4.78111e-06 0)
(0 5.18721e-06 0)
(0 1.05319e-05 0)
(0 1.17957e-05 0)
(0 1.38914e-06 0)
(0 -5.68701e-07 0)
(0 6.93753e-08 0)
(0 2.28055e-05 0)
(0 2.20336e-06 0)
(0 -3.12772e-07 0)
(0 2.94144e-06 0)
(0 -5.38973e-07 0)
(0 -6.32872e-07 0)
(0 3.13253e-05 0)
(0 -6.40214e-07 0)
(0 4.83666e-06 0)
(0 8.38945e-06 0)
(0 6.1939e-06 0)
(0 -6.40294e-07 0)
(0 1.4384e-06 0)
(0 -1.96371e-06 0)
(0 3.10497e-06 0)
(0 8.23318e-06 0)
(0 5.97449e-06 0)
(0 1.197e-06 0)
(0 -6.45907e-07 0)
(0 -6.41786e-07 0)
(0 -6.38517e-07 0)
(0 -5.1756e-07 0)
(0 4.0412e-06 0)
(0 6.44526e-06 0)
(0 4.76313e-06 0)
(0 1.79062e-05 0)
(0 -6.36263e-07 0)
(0 -6.40925e-07 0)
(0 3.21161e-06 0)
(0 1.96063e-05 0)
(0 -6.42132e-07 0)
(0 -2.67111e-06 0)
(0 -5.89944e-07 0)
(0 -6.27747e-07 0)
(0 3.51002e-06 0)
(0 5.67261e-08 0)
(0 2.93683e-06 0)
(0 1.64317e-05 0)
(0 -6.44543e-07 0)
(0 5.67913e-06 0)
(0 4.74001e-07 0)
(0 -2.52577e-06 0)
(0 1.55284e-05 0)
(0 9.51475e-06 0)
(0 8.75926e-07 0)
(0 -2.03383e-08 0)
(0 9.53626e-06 0)
(0 -2.0349e-06 0)
(0 -6.38009e-07 0)
(0 3.40282e-06 0)
(0 -1.86993e-06 0)
(0 -5.96019e-07 0)
(0 8.37316e-06 0)
(0 5.99087e-06 0)
(0 1.15598e-05 0)
(0 -5.3757e-07 0)
(0 5.1346e-06 0)
(0 -4.75716e-07 0)
(0 1.12067e-05 0)
(0 1.19507e-05 0)
(0 -6.35556e-07 0)
(0 -6.36373e-07 0)
(0 -5.6585e-07 0)
(0 2.71328e-06 0)
(0 -4.28232e-07 0)
(0 2.47654e-06 0)
(0 4.27774e-06 0)
(0 4.24778e-06 0)
(0 9.70319e-06 0)
(0 -3.80019e-06 0)
(0 7.83875e-06 0)
(0 6.19031e-06 0)
(0 1.75362e-06 0)
(0 3.55547e-06 0)
(0 1.05598e-06 0)
(0 -1.71301e-06 0)
(0 9.89431e-07 0)
(0 -6.50125e-07 0)
(0 -6.09853e-07 0)
(0 -3.68365e-07 0)
(0 -5.57626e-07 0)
(0 1.38413e-06 0)
(0 8.09241e-07 0)
(0 -5.92415e-07 0)
(0 -3.30138e-07 0)
(0 -9.96063e-07 0)
(0 4.29794e-06 0)
(0 1.64815e-06 0)
(0 -5.5585e-07 0)
(0 -3.70127e-07 0)
(0 3.65773e-07 0)
(0 2.81963e-06 0)
(0 8.98289e-06 0)
(0 6.15959e-06 0)
(0 -5.57573e-06 0)
(0 1.44089e-05 0)
(0 -6.36487e-07 0)
(0 -6.36941e-07 0)
(0 -6.41102e-07 0)
(0 2.55803e-06 0)
(0 -2.1209e-06 0)
(0 -6.80339e-07 0)
(0 -2.77651e-06 0)
(0 -6.4236e-07 0)
(0 -5.84121e-07 0)
(0 2.40313e-05 0)
(0 -6.41126e-07 0)
(0 1.68016e-06 0)
(0 4.27421e-06 0)
(0 3.04831e-05 0)
(0 4.34407e-07 0)
(0 4.37125e-06 0)
(0 -2.92966e-07 0)
(0 2.68444e-06 0)
(0 -5.40274e-07 0)
(0 -3.67071e-06 0)
(0 -3.11896e-06 0)
(0 -8.00453e-08 0)
(0 4.18757e-06 0)
(0 -3.10326e-06 0)
(0 5.86427e-06 0)
(0 4.55887e-07 0)
(0 -3.65246e-06 0)
(0 -4.36104e-07 0)
(0 3.88896e-06 0)
(0 9.86196e-06 0)
(0 4.62035e-06 0)
(0 7.92673e-06 0)
(0 -5.18798e-07 0)
(0 1.3469e-06 0)
(0 3.00122e-06 0)
(0 5.71773e-06 0)
(0 -6.40851e-07 0)
(0 -5.66901e-07 0)
(0 4.5039e-06 0)
(0 5.47976e-07 0)
(0 6.80712e-06 0)
(0 -6.40794e-07 0)
(0 -6.09582e-07 0)
(0 -6.411e-07 0)
(0 -1.16478e-07 0)
(0 9.2772e-06 0)
(0 1.61104e-06 0)
(0 8.99766e-07 0)
(0 -2.85165e-07 0)
(0 -6.44337e-07 0)
(0 1.86628e-06 0)
(0 4.71249e-06 0)
(0 5.866e-06 0)
(0 -5.65368e-07 0)
(0 4.31741e-06 0)
(0 -6.41104e-07 0)
(0 1.96253e-05 0)
(0 4.18129e-06 0)
(0 -6.38341e-07 0)
(0 1.88281e-06 0)
(0 3.9821e-06 0)
(0 -4.59699e-07 0)
(0 4.26959e-06 0)
(0 3.1394e-06 0)
(0 -5.8084e-07 0)
(0 -5.83306e-07 0)
(0 5.36254e-06 0)
(0 -5.48915e-07 0)
(0 -1.24762e-07 0)
(0 -6.41074e-07 0)
(0 -6.04542e-07 0)
(0 8.99796e-06 0)
(0 -6.42472e-07 0)
(0 4.30361e-06 0)
(0 -1.89294e-07 0)
(0 5.09421e-06 0)
(0 3.87053e-06 0)
(0 -6.41499e-07 0)
(0 -1.05222e-07 0)
(0 4.15348e-06 0)
(0 5.81125e-06 0)
(0 -6.44187e-07 0)
(0 2.84886e-06 0)
(0 -4.82245e-07 0)
(0 -5.24499e-07 0)
(0 -2.86413e-07 0)
(0 1.68814e-05 0)
(0 2.10748e-06 0)
(0 -5.34451e-07 0)
(0 -5.48115e-07 0)
(0 8.73884e-06 0)
(0 5.30895e-07 0)
(0 3.72804e-07 0)
(0 9.49691e-06 0)
(0 1.2358e-05 0)
(0 2.97202e-05 0)
(0 1.95714e-05 0)
(0 2.93162e-06 0)
(0 -2.70778e-07 0)
(0 -5.95364e-07 0)
(0 2.24416e-06 0)
(0 1.6992e-06 0)
(0 -6.53488e-07 0)
(0 -2.33999e-06 0)
(0 -6.31698e-07 0)
(0 -1.20741e-07 0)
(0 -2.01409e-07 0)
(0 -4.24402e-06 0)
(0 8.33636e-06 0)
(0 4.74081e-06 0)
(0 -3.46656e-06 0)
(0 -1.34581e-06 0)
(0 -6.41096e-07 0)
(0 -4.19826e-07 0)
(0 -6.26321e-07 0)
(0 2.20185e-06 0)
(0 1.48147e-06 0)
(0 3.96973e-06 0)
(0 1.23822e-06 0)
(0 -6.44784e-07 0)
(0 -2.28546e-07 0)
(0 1.51116e-05 0)
(0 -3.4679e-06 0)
(0 -6.36628e-07 0)
(0 -6.26964e-07 0)
(0 -1.6239e-07 0)
(0 1.92683e-06 0)
(0 9.59881e-06 0)
(0 -6.39534e-07 0)
(0 8.29692e-06 0)
(0 2.17014e-06 0)
(0 8.0931e-06 0)
(0 -3.65904e-07 0)
(0 1.99049e-05 0)
(0 4.35582e-06 0)
(0 -6.44015e-07 0)
(0 4.26674e-07 0)
(0 -6.41075e-07 0)
(0 -6.35576e-07 0)
(0 -6.34845e-07 0)
(0 -6.41098e-07 0)
(0 1.71486e-06 0)
(0 -1.66541e-07 0)
(0 -3.16056e-07 0)
(0 -2.7769e-07 0)
(0 -6.40748e-07 0)
(0 9.95736e-06 0)
(0 5.7281e-07 0)
(0 3.31355e-05 0)
(0 -1.45836e-06 0)
(0 -6.43134e-07 0)
(0 3.44904e-05 0)
(0 -6.34669e-07 0)
(0 2.22401e-06 0)
(0 -7.65765e-07 0)
(0 -4.15466e-07 0)
(0 5.48545e-06 0)
(0 -6.32205e-07 0)
(0 8.01827e-06 0)
(0 -6.21745e-07 0)
(0 1.37341e-05 0)
(0 -1.99443e-06 0)
(0 -6.31352e-07 0)
(0 2.5882e-05 0)
(0 4.79217e-06 0)
(0 4.70281e-06 0)
(0 1.92608e-05 0)
(0 7.26e-07 0)
(0 -5.85472e-07 0)
(0 5.09492e-06 0)
(0 1.15709e-06 0)
(0 -5.82813e-07 0)
(0 8.24977e-06 0)
(0 -6.40816e-07 0)
(0 -9.31276e-07 0)
(0 4.99554e-06 0)
(0 1.29502e-05 0)
(0 6.06739e-06 0)
(0 1.80699e-05 0)
(0 -2.72162e-07 0)
(0 7.68075e-07 0)
(0 -6.42813e-07 0)
(0 5.78347e-06 0)
(0 3.75047e-06 0)
(0 5.64176e-07 0)
(0 -6.41656e-07 0)
(0 -5.34761e-07 0)
(0 1.33258e-05 0)
(0 -2.62962e-06 0)
(0 3.63546e-05 0)
(0 1.20743e-06 0)
(0 -6.40505e-07 0)
(0 -6.15006e-07 0)
(0 -6.11615e-07 0)
(0 2.02447e-05 0)
(0 1.54089e-06 0)
(0 1.48538e-06 0)
(0 3.42942e-05 0)
(0 4.37067e-07 0)
(0 -6.40575e-07 0)
(0 -1.96803e-06 0)
(0 8.95421e-08 0)
(0 -5.61344e-07 0)
(0 -5.61754e-08 0)
(0 -1.52336e-07 0)
(0 -6.36322e-07 0)
(0 3.42452e-06 0)
(0 5.13912e-06 0)
(0 -4.01606e-07 0)
(0 1.77321e-06 0)
(0 9.37615e-06 0)
(0 -4.51182e-07 0)
(0 6.77533e-06 0)
(0 5.54432e-07 0)
(0 -1.89649e-06 0)
(0 7.45897e-06 0)
(0 4.32173e-06 0)
(0 -6.41111e-07 0)
(0 3.9379e-07 0)
(0 4.45015e-06 0)
(0 9.09515e-07 0)
(0 -6.41311e-07 0)
(0 -4.44248e-07 0)
(0 -6.38371e-07 0)
(0 6.01966e-06 0)
(0 -6.15293e-07 0)
(0 1.9977e-05 0)
(0 -2.46975e-07 0)
(0 1.55322e-07 0)
(0 5.83096e-06 0)
(0 -6.53651e-07 0)
(0 2.3338e-05 0)
(0 2.68113e-06 0)
(0 5.7699e-06 0)
(0 7.39232e-06 0)
(0 -6.36056e-07 0)
(0 3.93045e-06 0)
(0 -8.54367e-07 0)
(0 -6.38548e-07 0)
(0 3.99191e-06 0)
(0 -6.41594e-07 0)
(0 1.70496e-05 0)
(0 -6.193e-07 0)
(0 -1.52751e-07 0)
(0 -5.55878e-07 0)
(0 2.04628e-06 0)
(0 6.02018e-06 0)
(0 1.95167e-06 0)
(0 -9.87121e-07 0)
(0 -1.77445e-07 0)
(0 -4.36554e-07 0)
(0 -2.15519e-06 0)
(0 6.89155e-06 0)
(0 -6.37938e-07 0)
(0 -6.33712e-07 0)
(0 1.00714e-05 0)
(0 -4.00309e-07 0)
(0 -5.40023e-07 0)
(0 5.90333e-06 0)
(0 -6.41093e-07 0)
(0 1.09288e-06 0)
(0 1.71215e-06 0)
(0 -1.99192e-06 0)
(0 6.60655e-06 0)
(0 3.01975e-05 0)
(0 9.26981e-07 0)
(0 -5.00528e-07 0)
(0 6.85219e-07 0)
(0 2.11667e-07 0)
(0 -6.48228e-07 0)
(0 -6.19601e-07 0)
(0 -5.66905e-07 0)
(0 -6.41499e-07 0)
(0 6.75854e-06 0)
(0 -5.15252e-08 0)
(0 -6.52675e-07 0)
(0 9.91667e-06 0)
(0 4.41276e-06 0)
(0 -5.04536e-07 0)
(0 1.29354e-07 0)
(0 5.90336e-06 0)
(0 -5.99176e-07 0)
(0 -3.90108e-07 0)
(0 -5.95401e-07 0)
(0 -5.25631e-07 0)
(0 5.6699e-06 0)
(0 -5.52408e-07 0)
(0 1.4498e-05 0)
(0 7.001e-06 0)
(0 5.87542e-07 0)
(0 -6.43033e-07 0)
(0 -5.62082e-09 0)
(0 -6.05024e-07 0)
(0 6.38364e-08 0)
(0 5.93313e-06 0)
(0 -4.81044e-07 0)
(0 4.21431e-07 0)
(0 -3.30525e-07 0)
(0 3.80536e-06 0)
(0 2.75e-06 0)
(0 1.07765e-05 0)
(0 1.24708e-07 0)
(0 6.49494e-07 0)
(0 -5.96744e-07 0)
(0 7.1819e-06 0)
(0 3.79254e-07 0)
(0 -6.41366e-07 0)
(0 -2.61322e-06 0)
(0 7.24269e-06 0)
(0 -5.09877e-07 0)
(0 -3.45438e-06 0)
(0 -6.4746e-08 0)
(0 2.18695e-05 0)
(0 -4.05758e-07 0)
(0 -6.40585e-07 0)
(0 5.60538e-06 0)
(0 8.74692e-06 0)
(0 1.28664e-05 0)
(0 -3.16947e-07 0)
(0 5.35211e-06 0)
(0 4.95093e-06 0)
(0 -5.03506e-07 0)
(0 -6.32435e-07 0)
(0 1.51429e-06 0)
(0 -6.40918e-07 0)
(0 -4.83513e-07 0)
(0 8.01792e-06 0)
(0 2.03439e-07 0)
(0 -3.96758e-07 0)
(0 4.08823e-06 0)
(0 -1.13298e-06 0)
(0 3.98334e-06 0)
(0 -5.60845e-07 0)
(0 3.5573e-05 0)
(0 -5.75773e-07 0)
(0 -6.29369e-07 0)
(0 7.43802e-06 0)
(0 -4.38384e-07 0)
(0 8.38825e-06 0)
(0 -1.29785e-08 0)
(0 7.3466e-08 0)
(0 5.29828e-06 0)
(0 -5.96845e-06 0)
(0 -1.01241e-06 0)
(0 -3.34378e-06 0)
(0 -3.98264e-07 0)
(0 -2.43554e-07 0)
(0 1.44517e-05 0)
(0 -1.1711e-08 0)
(0 1.12885e-06 0)
(0 1.47478e-06 0)
(0 1.3346e-05 0)
(0 1.89312e-05 0)
(0 5.4544e-07 0)
(0 -2.33258e-06 0)
(0 6.77127e-06 0)
(0 -3.71218e-07 0)
(0 2.54858e-05 0)
(0 -6.42472e-07 0)
(0 4.95822e-06 0)
(0 6.11927e-07 0)
(0 9.30995e-07 0)
(0 -3.01097e-07 0)
(0 3.67908e-07 0)
(0 2.74479e-06 0)
(0 8.05383e-06 0)
(0 1.51821e-05 0)
(0 -6.34405e-07 0)
(0 -6.12891e-07 0)
(0 -6.40902e-07 0)
(0 -5.96174e-07 0)
(0 1.60885e-06 0)
(0 1.59962e-05 0)
(0 -6.32315e-07 0)
(0 8.04963e-07 0)
(0 -6.40196e-07 0)
(0 -2.52739e-07 0)
(0 5.93513e-06 0)
(0 1.6592e-06 0)
(0 1.74356e-06 0)
(0 1.72974e-05 0)
(0 -7.57439e-07 0)
(0 -4.89748e-07 0)
(0 4.71871e-06 0)
(0 -6.41487e-07 0)
(0 9.97001e-07 0)
(0 -1.365e-07 0)
(0 6.68822e-06 0)
(0 4.12194e-06 0)
(0 3.09415e-05 0)
(0 2.4407e-06 0)
(0 -6.41801e-07 0)
(0 7.83436e-07 0)
(0 -6.41328e-07 0)
(0 5.68243e-06 0)
(0 -6.41268e-07 0)
(0 2.55224e-05 0)
(0 2.76604e-06 0)
(0 3.992e-06 0)
(0 4.5892e-06 0)
(0 -5.61966e-07 0)
(0 8.25047e-06 0)
(0 3.86329e-06 0)
(0 -1.61378e-06 0)
(0 -6.41025e-07 0)
(0 5.41253e-07 0)
(0 -6.26959e-07 0)
(0 1.72946e-05 0)
(0 2.2623e-05 0)
(0 2.6644e-05 0)
(0 3.96238e-06 0)
(0 1.576e-06 0)
(0 -6.41565e-07 0)
(0 -6.31985e-07 0)
(0 1.63907e-06 0)
(0 5.57779e-06 0)
(0 -6.28901e-07 0)
(0 -3.12506e-07 0)
(0 5.91225e-06 0)
(0 -2.47408e-07 0)
(0 1.54733e-05 0)
(0 1.12413e-05 0)
(0 9.75886e-06 0)
(0 -5.64684e-07 0)
(0 4.78885e-06 0)
(0 1.17475e-06 0)
(0 2.04094e-06 0)
(0 9.50374e-06 0)
(0 -6.3452e-07 0)
(0 4.56468e-06 0)
(0 1.50361e-05 0)
(0 4.59678e-06 0)
(0 8.03553e-06 0)
(0 -4.51315e-06 0)
(0 7.74748e-06 0)
(0 8.11219e-06 0)
(0 3.96418e-07 0)
(0 4.02847e-06 0)
(0 2.363e-06 0)
(0 5.58321e-06 0)
(0 -6.40619e-07 0)
(0 2.46019e-07 0)
(0 4.00627e-06 0)
(0 9.61213e-06 0)
(0 -6.35773e-07 0)
(0 -3.04499e-06 0)
(0 -2.56047e-06 0)
(0 1.22741e-06 0)
(0 2.60543e-06 0)
(0 7.56316e-06 0)
(0 2.27351e-06 0)
(0 -4.88785e-07 0)
(0 2.98667e-06 0)
(0 -6.15031e-07 0)