/*--------------------------------*- C++ -*----------------------------------*\
| =========                 |                                                 |
| \\      /  F ield         | OpenFOAM: The Open Source CFD Toolbox           |
|  \\    /   O peration     | Version:  v2012                                 |
|   \\  /    A nd           | Website:  www.openfoam.com                      |
|    \\/     M anipulation  |                                                 |
\*---------------------------------------------------------------------------*/
FoamFile
{
    version     2.0;
    format      ascii;
    class       volScalarField;
    location    "550";
    object      ddt0(omega);
}
// * * * * * * * * * * * * * * * * * * * * * * * * * * * * * * * * * * * * * //

dimensions      [0 0 -2 0 0 0 0];


internalField   nonuniform List<scalar> 
18355
(
-0.0018008
3.77702e-07
0.0467856
-7.09094e-07
0.000988382
0.0420615
5.94076e-06
0.000773822
4.03096e-06
0.0142886
0.000279955
0.00529592
0.00595349
-0.0128986
9.19884e-07
-1.05668e-06
-7.52107e-07
-9.53025e-05
0.00712605
-3.08306e-05
-0.0441681
1.65748e-05
-1.06627e-06
0.0301166
-1.1272e-06
2.68469e-05
1.30704e-05
-1.06145e-06
5.44781e-06
0.000313781
0.0607729
0.000346423
1.6228e-08
1.53147e-06
-1.73486e-06
5.43373e-05
-0.000308795
6.00346e-05
0.000355627
-9.16414e-06
-3.47429e-06
0.000329396
1.74092e-06
3.88178e-07
5.49546e-08
-0.00581717
1.33932e-06
1.31984e-06
-0.275417
1.2319e-05
5.78574e-07
-1.74363
1.3949e-05
-0.00645084
7.14288e-07
-2.06694e-05
-2.51805e-06
0.303398
4.17797e-05
-0.324839
1.68847e-06
-0.000372542
-0.00605414
-4.4065e-05
-0.00140442
-1.22434e-06
0.000104518
-0.000319816
1.8033e-07
-0.0510937
9.61247e-06
7.42722e-07
0.000939384
-0.000190932
-0.269946
8.19113e-07
0.36851
1.12335e-06
8.63302e-06
-0.218187
0.000112853
-0.0409748
4.92212e-07
0.000196198
-0.00125751
1.9132e-06
-4.48926e-07
-0.000898722
-2.92923e-06
-0.000914058
-1.00762
-0.0270227
-0.0244135
1.57138e-05
0.290393
5.11911e-05
-1.30743e-06
1.27e-05
-0.00591677
1.53821e-05
-0.00111893
7.52401e-06
1.42251e-05
7.90788e-07
0.000137911
-1.479e-06
-0.00131409
0.39136
-0.000663497
5.96948e-07
-2.43583e-06
-3.64544e-06
0.000908538
0.000184182
-1.62437
0.000541561
6.87744e-06
-0.104387
8.67741e-05
9.05619e-05
-0.0471661
0.0394788
-0.851661
-0.00152324
-0.0861857
-0.22976
9.41691e-06
-7.34751e-07
-0.00261824
6.6791e-06
-1.44061e-06
-2.48646
-3.80065e-07
-0.0043891
-0.00491532
-3.66565e-06
0.00970174
0.189466
-2.14974e-06
-0.0373159
-7.80195e-05
-0.0103017
1.28998e-06
0.00267357
-0.0042908
-1.91363e-06
-0.106843
2.72664e-06
0.000905569
0.0103005
-9.41497e-07
8.8122e-05
4.43145e-05
-0.000458039
1.79264e-06
-5.60259e-07
-6.33019e-07
8.66647e-07
1.41245e-06
-7.08141e-07
-4.05095e-05
-4.69292e-07
4.59052e-07
0.00637478
-9.24967e-05
0.000718328
-0.135589
-0.00727415
0.0146721
-7.61793e-05
-3.27553e-06
-0.00437273
-1.71779e-06
-0.400283
-6.07484e-06
-2.87889e-06
-4.02341e-06
1.36083e-06
-1.546e-05
0.000398572
4.47686e-06
0.023313
1.22231e-05
-1.37224e-06
0.0418527
1.62273e-05
-1.44019e-06
-0.000623172
-1.80048e-06
1.87383e-05
-0.0281603
-0.0059518
-7.36993e-07
-2.29393e-06
-2.61203e-06
-2.01917
1.30283e-07
-0.00476305
3.78045e-08
0.00198853
1.74601e-05
-0.000158366
0.000325931
4.51304e-06
-0.0033829
2.13828e-06
0.322262
-1.28281e-06
1.64938e-06
3.80422e-05
4.91742e-06
-0.131147
0.000378474
-0.000163917
2.79184e-06
-0.36961
0.000421136
-0.000155508
3.86623e-06
1.99215e-06
-0.000491875
-2.75943e-06
-0.000798055
0.000470117
0.015923
0.000196763
-2.94152e-06
0.324318
-0.00710289
0.000737747
-3.02225e-05
0.000126894
0.0202132
-2.97778e-06
0.00675061
0.00161888
-2.56989e-06
-0.0294573
-0.000125001
-0.00012487
1.75541e-08
-1.16827e-05
-2.64053e-05
0.000700072
3.00103e-06
3.81822e-07
7.20604e-07
-0.0970263
-0.0433341
1.35118e-05
5.2379e-05
-0.0379112
0.00658818
-0.00141864
1.26667e-06
-0.0216654
-0.000121364
-1.62885e-06
0.000172906
-2.25368e-06
0.00870009
0.000905275
-0.00516394
-0.000468776
0.000395837
0.00220131
0.00323192
-0.00669066
-2.28584e-06
5.45587e-07
3.52295e-05
1.45434e-06
-0.000168033
-0.000161643
-3.74438e-07
6.27024e-06
-0.000685477
-3.49971e-06
-0.00386461
-0.154353
-0.000497686
5.46207e-06
0.000619302
1.68319e-06
-0.00120799
3.40153e-07
0.000468466
-3.7886e-06
0.000425003
-0.0267043
-9.15083e-09
-0.00207202
7.03265e-05
2.58973e-05
0.00182078
1.64704e-06
-2.33218e-06
-0.00423208
5.72968e-06
0.00215288
-0.000331451
1.25304
-0.0014738
-0.00528841
-0.000146639
-0.000447267
7.17492e-06
-8.00366e-05
-0.000437802
-0.00206975
0.044415
0.301917
2.08981e-06
0.000124011
-0.00616451
0.000684723
1.91718e-06
1.31374e-06
-2.00517e-08
-0.00115281
0.381615
-0.0572156
0.053479
-0.000430995
-7.85905e-05
-0.0243216
2.41915e-06
1.60726e-06
-7.23396e-05
1.11802e-06
0.000721831
-2.50207e-06
-0.0392361
-1.88959e-06
-0.00127561
-1.23568e-06
-8.49675e-06
-0.000201132
0.00729294
-0.00681293
0.00066821
0.0547806
1.64094e-05
-3.01125e-06
1.27505e-06
-0.000144673
0.00932562
-2.53587e-06
-2.59992e-06
0.00124809
1.53333e-05
-3.3515e-06
0.00546376
-9.72983e-05
3.56387e-07
-2.11275e-05
0.000510079
2.47886e-07
0.000559041
-3.18361e-06
-2.36371e-06
1.38051e-05
-0.669757
-0.011276
-1.78106e-06
9.45122e-07
0.000719674
-1.38132e-07
-1.07297e-06
-0.0223217
-0.0232495
-0.000529031
1.58281e-06
-2.56381e-06
0.00493186
-0.000119489
-0.0225647
-7.98321e-05
-4.83227e-07
0.00124041
-0.00509997
1.05222e-05
-2.06024e-06
-8.81231e-05
-1.45339e-06
5.72641e-05
-2.55942e-06
-0.00243645
-2.01051e-05
6.53174e-05
-1.63773e-06
2.54762e-07
-0.000157451
2.7044e-05
-0.00210347
-0.036349
-0.00321341
4.02711e-06
0.00700562
-0.0022815
-1.10214e-06
-1.19188e-06
-0.00176774
-1.72575e-06
-0.000438235
5.09115e-06
-0.000177636
-0.0286716
0.105887
-0.0121834
-0.00620639
6.78854e-07
-0.757467
1.53902e-05
-1.99841e-07
-0.0995428
-1.09911e-06
0.000251492
-0.000206642
-0.00229915
-7.96135e-07
-0.00386149
0.00385752
-0.00458327
-5.868e-06
1.55517e-06
-0.00486967
8.45504e-05
-1.04081e-05
0.013086
-0.000988374
-2.32617e-07
-0.00178821
-0.00220001
9.82552e-07
-2.70681e-07
0.000639527
-0.838356
-0.0016684
1.49103e-05
3.52364e-06
-0.00130179
-9.12001e-07
4.50965e-06
-1.27459e-05
0.0494773
-0.0381025
-1.36515e-07
3.65579e-06
-1.56628e-06
0.00671167
-0.00759354
-3.40257e-06
0.000195006
-0.000984136
-2.70692e-06
-1.9318
-0.000521929
1.28088e-05
-1.60012e-06
-0.00147592
0.00617734
0.368877
1.40071e-06
0.0268973
-2.17281e-06
1.17269e-06
-0.00171411
8.73381e-05
0.00122738
0.00088539
7.09612e-05
-0.000211725
1.64405e-05
0.00577329
0.000102955
-0.0003767
1.89711e-05
2.35307e-06
-9.65606e-07
2.29493e-06
-0.00121953
-0.0395974
-0.00277636
-0.000132545
-1.31007e-05
1.90299e-05
5.63303e-05
-0.000139653
1.69075e-05
3.40355e-06
-2.41657e-06
-0.00126021
2.59679e-07
1.6429e-05
2.3125
-0.0069996
-0.00771334
5.67016e-06
3.61406e-06
0.000599311
1.61918e-05
0.0125237
0.752454
0.000130519
0.000234816
-0.000355614
1.71871e-05
1.26618e-05
0.131094
-3.08986e-05
4.6735e-05
-0.0411524
-5.66393e-07
-0.00532551
-0.82893
-0.000157619
-4.95232e-06
0.128312
-3.76826e-07
-0.0039433
0.000289767
0.144182
0.00010316
-1.11972e-06
-2.34664e-06
0.194493
0.224568
0.148667
-0.0428476
-0.000161601
-2.26616e-06
0.000180936
2.79037e-07
9.03812e-05
-0.0395247
-0.314028
-0.0357031
-0.0598683
0.000252985
0.000552853
0.00103308
1.25068e-06
-2.66334e-06
0.000466492
-0.000178745
3.86112e-07
8.49221e-08
0.0530667
-1.84468e-06
-0.0802152
8.00867e-05
-0.00246821
0.00270066
-2.5911e-06
0.000200212
0.00121744
-2.28899e-06
-0.0695138
-1.76708e-06
-0.0135849
-9.89232e-06
-3.39392e-06
0.00104346
-0.00659328
-0.00577998
5.06393e-06
-1.06726e-06
-0.00117236
-0.00017173
-0.00276209
-2.34466e-06
0.000311185
-2.01326e-06
0.639348
-1.68431e-06
4.96366e-06
0.0130867
0.00142559
0.00106285
-5.80989e-06
0.000279168
0.000101195
-0.0393646
-0.0950381
-6.49028e-05
0.00320017
-1.24496e-06
0.000590205
1.17369e-05
-5.23088e-05
-0.0370256
-2.38176e-07
0.00240847
2.40876e-06
-2.60426e-06
5.02392e-06
0.0104805
-2.54319e-05
-0.00357741
-5.79063e-05
-0.000888636
0.00969664
2.28604e-06
6.09411e-07
-0.00877252
-0.000630712
2.62597
0.000723985
-7.60884e-06
-2.08105e-07
1.16983e-05
-0.000156751
1.68594e-05
-3.79704e-05
-0.00583808
-0.818374
4.00508e-06
-0.496173
-0.615945
0.000169583
0.00613611
4.79626e-06
-0.00870986
0.0350365
5.13545e-06
0.0264635
-0.00148699
-0.71426
-0.0405451
-1.83082e-05
1.1825e-05
-2.19107e-06
0.0133808
-0.00121039
-6.99347e-06
-3.21519e-06
-0.00642384
1.23856e-05
-0.0016729
1.76585e-05
-0.00123794
-0.468101
0.104006
-0.00117386
0.133168
-0.00064359
0.344619
0.000233111
1.53922e-07
0.000455036
-0.0388924
0.000488118
-0.000888302
-6.41853e-06
-0.00679595
-1.58081e-06
-5.2746e-06
0.317818
-6.18112e-07
0.000484417
0.000326143
-0.00320166
-2.91823e-06
-7.12934e-07
2.9854e-05
0.000334162
-2.31812e-06
6.33401e-05
0.00115986
-0.00618654
5.6292e-05
1.41744e-06
-0.00122377
0.0146437
-5.48884e-06
0.09597
-1.7462
-2.68023e-06
0.0497354
-1.64149e-06
0.0485274
-8.44034e-07
-9.97298e-05
0.00961092
0.000122391
-1.10858
5.03865e-05
-7.44164e-07
0.227897
-6.94713e-07
1.20924e-06
-2.40958e-06
4.84637e-07
0.000535091
-0.000801026
-0.0157015
-7.30513e-07
-0.048643
-5.07861e-06
0.0485175
-0.168245
3.61272e-06
1.47527e-06
0.000275972
-6.43421e-06
0.00143675
-1.28066e-06
2.0666e-06
8.78859e-07
-6.50554e-06
-2.07741e-06
-0.156114
-8.3681e-05
-0.00240693
-4.60874e-05
0.00011429
-2.5851e-05
0.000735258
0.00190962
-5.15897e-07
-0.00111459
-0.00143016
-3.03055e-06
-0.266232
-0.478712
-3.00826e-06
-0.189626
2.00553e-07
0.0188011
-0.00093595
4.25428e-06
-0.00115138
0.000389855
0.0266908
-3.20006e-06
-9.42947e-05
-0.30651
-0.00357982
-0.148673
-1.99206e-06
0.0628965
0.000234896
-0.00681135
-2.31907e-06
-8.45184e-06
-1.83106e-05
3.87122e-06
1.0178e-06
-2.73745e-06
1.33788e-07
-0.111428
-0.000118618
-1.76071e-07
1.39938e-06
-3.74927e-06
1.19376e-05
-0.0032549
-0.000172939
1.6213e-06
0.000343598
-7.09245e-06
-1.10689e-05
-2.52425e-05
1.1335e-06
0.000134855
1.33895e-06
-6.25313e-07
-9.29399e-07
5.36363e-06
-0.000112248
-0.000356474
-0.798735
-0.0540402
-5.90556e-05
-1.08648e-06
0.00148878
2.09821e-06
1.52857e-06
-0.000461798
-0.135526
-5.05071e-05
-0.000252251
1.86945e-06
-3.87922e-07
-0.000106117
-8.10328e-08
-0.000278372
-1.43583e-06
1.16357e-05
1.76633e-07
-6.88682e-06
-0.108029
-1.46134e-07
1.28449e-05
-7.7874e-07
0.0476296
0.132448
-0.000279337
1.6927e-05
0.000265687
5.43912e-05
-0.000930676
0.039804
4.41893e-06
0.135854
1.3696e-05
-0.105615
3.89274e-05
1.16841e-06
-1.17555e-07
-0.00626714
6.31952e-07
-0.000326694
0.0059101
0.00780732
0.000794976
-5.24688e-06
2.60718e-07
-4.11774e-06
-5.17394e-06
-0.000425349
-0.00369862
-0.0496074
-0.00258588
-2.73504e-06
-5.33224e-07
3.47981e-06
-6.93288e-07
5.6803e-06
5.24454e-06
-0.00236008
-0.000211003
-0.0176163
-2.76831e-06
-3.08438e-06
0.0011225
-3.06467e-08
0.00939152
-0.00251316
-0.000921909
0.00454244
-0.307436
0.000277195
1.72419e-06
-2.69463e-07
-1.95715e-06
-8.4309e-07
-0.0733245
-0.00137213
0.000690565
-3.33585e-06
4.36394e-06
2.7057e-05
6.59394e-06
-0.0230492
-0.000412444
1.40012e-06
4.17165e-07
5.71945e-07
4.38916e-07
-2.28845e-06
-2.25844e-05
-0.134282
2.66246e-06
4.47252e-05
-3.72001e-06
3.32626e-09
1.37757e-06
3.64607e-06
-0.000380226
-7.49495e-08
0.000857454
1.306e-06
-0.00960026
-0.025174
-0.000189951
0.260235
-8.57551e-05
-2.06933e-06
-0.00255127
0.0861191
-1.52687e-06
4.98617e-07
-1.17775e-06
-0.000441559
9.10036e-07
0.000265519
0.0520178
3.37479e-06
5.17396e-05
-2.5531e-06
-0.104326
0.0676804
-5.03162e-07
7.74568e-07
-0.000225971
-0.00162405
-3.36252e-06
-0.00587501
-8.00333e-09
-2.52705e-06
-6.43006e-05
-0.0914583
-0.0165404
0.0274753
-0.183938
-1.63448e-06
-0.0135185
-0.00382272
-0.00026435
-4.84527e-06
-0.00401114
0.000133157
0.0241767
-0.0252856
-4.22828e-06
-1.30269e-06
-2.8211e-06
1.0263e-05
-1.78197e-06
0.253901
0.00393864
1.24744e-06
3.56504e-06
1.65509e-05
-0.00115786
-5.75003e-06
-1.26238e-05
-0.00262848
3.9637e-05
6.78606e-06
0.0353475
-0.00464779
-0.00332867
-8.23447e-07
-2.29243e-06
1.46986e-06
0.000128402
0.000739315
0.000900731
-3.51465e-06
7.20681e-07
-1.31444e-05
0.0694641
-1.34177e-06
-2.76966e-06
-0.00588074
-3.01462e-06
-1.68593e-06
-1.16673e-06
-0.388762
-1.42078e-06
-3.09329e-06
-1.44055e-06
-0.000631247
-2.17374e-06
-7.83054e-05
0.00559641
-2.80785e-06
0.00678065
-0.000424275
0.00408043
-0.00408743
-4.34927e-07
-0.00032642
-3.56747e-06
-1.37605e-06
-8.1781e-07
-0.0279213
-0.0435695
0.0115235
-0.000331232
0.0628583
-0.00224132
2.57771e-05
-0.00403362
0.00240807
-0.000104701
-2.91319e-06
-0.458964
-9.37013e-06
-8.73328e-07
-6.35981e-07
-0.263467
-1.38362
-0.0148346
-4.82626e-07
-9.97184e-06
0.0946111
0.00169649
0.00015658
0.000204204
1.97329e-05
-0.000872986
0.0124905
-4.39542e-05
-1.05936e-05
0.000211827
-0.746322
-0.440523
-5.19627e-06
-2.87118e-07
-8.98965e-06
-0.15321
-0.00019839
-8.37477e-06
0.0530921
-8.40975e-05
0.00129771
0.000200835
0.00623782
2.88373e-07
-0.0784962
9.60403e-06
8.3513e-06
1.91483e-06
7.56604e-06
5.51645e-06
-3.29836e-06
1.06272e-05
0.35879
5.47608e-07
-0.111386
-0.000272146
-2.65814e-06
5.21651e-07
-0.00484537
-4.5286e-06
-4.08237e-06
2.09512e-05
0.155656
0.000774235
0.000122247
2.32166e-06
-0.0160732
3.99007e-07
-0.00179596
2.13368e-06
-0.0204153
0.000373255
-0.00591641
0.000183963
-1.2485e-05
-0.0140593
-0.622414
-0.00431295
-5.99142e-07
-9.49538e-07
-0.00100852
-0.0345746
2.7069e-06
-0.00302059
6.97067e-05
-0.000175731
-3.16692e-06
-2.97325e-06
2.66621e-05
1.36584e-05
-1.81412e-06
0.0012619
0.000878844
0.000152066
0.0047593
-0.474603
1.9762e-05
0.0808099
1.5678e-06
0.00173168
-0.587721
0.00887779
-3.27806e-06
-7.36553e-05
2.71681e-06
0.669302
-6.3685e-06
-2.68363e-07
-0.00082807
4.19741e-06
1.11002e-06
-2.0007e-06
1.05096e-05
7.24607e-07
-0.689509
-0.0235186
-0.00352065
-1.6347e-06
-2.16478e-06
-0.00744409
-1.84138e-06
0.0145328
-1.42587e-05
2.50467e-06
-3.53688e-06
7.79552e-05
0.0220026
1.34925e-05
-2.98316e-06
0.0688726
2.70208e-06
5.61565e-06
-0.000904395
-0.143622
0.00534229
-2.95069e-06
1.5494e-05
0.121685
-0.0349157
-0.00796978
8.16742e-05
-0.000842327
-0.00282919
-1.63335e-06
-0.00021829
-3.78333e-05
-0.0341425
0.000168762
-1.69575e-06
6.22013e-05
1.27338e-05
-0.0475683
-2.98032e-06
-1.7871e-05
0.107582
-0.00362056
0.0717156
9.89506e-07
6.37724e-05
2.04131e-06
4.67918e-06
3.9896e-06
-6.63343e-05
-2.26071e-06
1.14022e-05
8.43541e-06
1.21504e-05
-0.00304828
-0.000197345
6.2014e-05
7.75024e-06
-6.9249e-05
-4.25099e-07
-0.0241259
-1.74258e-05
4.60307e-05
-2.15653e-06
3.69868e-07
1.28202e-05
0.000334602
-2.2869e-06
-3.23085e-06
6.12482e-06
3.53553e-06
0.567054
0.0395159
-6.51304e-06
-0.0334812
-0.0011952
3.91614e-06
-1.77234e-06
1.14847e-05
0.252879
-4.80314e-05
-1.09695e-07
1.45026e-06
-2.74602e-06
-0.0055905
-6.62894e-06
-2.71758e-07
0.0164669
-8.03605e-07
1.47103e-06
0.000436423
0.000551599
-0.00595162
0.00495129
2.44
-1.39653e-08
0.323378
-8.03184e-05
-1.81845e-06
-1.53012e-07
-0.000449107
8.91604e-07
-4.79941e-05
-0.00439175
-6.16168e-05
-1.83756e-06
0.356521
0.0026881
0.0206034
0.544062
0.141548
-0.0102668
5.10297e-06
0.930483
-0.588831
2.4323e-06
0.299211
-3.66532e-07
1.02556e-05
0.00567004
-5.34208e-06
-0.00473795
0.000324095
7.65526e-05
2.26224e-05
-0.00792695
-1.93164e-06
-0.0430191
6.22027e-07
2.34258e-06
0.183021
2.74914e-06
0.000425702
-2.20769e-06
-0.00363839
-1.18585e-06
-2.97895e-06
9.32073e-05
0.0894923
-1.96942e-06
-6.07903e-06
4.73147e-06
1.68387e-05
-1.40082e-06
1.10601e-05
0.0483664
8.67589e-08
-0.0002465
7.18532e-06
0.000100876
0.000387538
9.0022e-09
-2.63163e-06
8.09564e-05
-8.49809e-06
3.93192e-06
0.000156697
0.0142934
6.13222e-05
-2.10806e-06
-2.76821e-06
-0.000260772
-0.00530977
7.68724e-06
-1.21335e-06
6.99625e-08
-4.98717e-07
3.59961e-06
-2.20691e-07
0.000284051
0.00383323
-0.00380194
5.46886e-06
-0.0268611
-5.4572e-06
0.000117082
-0.122013
-0.000918541
-2.75331e-06
-0.00688541
0.000127197
-1.14819e-06
-0.0258539
-5.35102e-06
-0.00160281
-3.51837e-06
0.0071118
-2.76458e-05
-2.54966e-06
-2.69956e-06
0.0558956
-0.0140545
-5.15636e-06
-0.00913421
-2.26341e-06
-1.40045e-05
-1.3598e-06
0.00834976
-3.28376e-06
7.44518e-07
-0.00030671
7.37204e-05
4.79013e-07
3.51297e-06
3.82877e-06
-3.31519e-05
2.43602e-06
-3.51096e-06
-7.23667e-05
1.18462e-06
-0.0128605
-0.00355943
3.31044e-06
0.0285392
-0.000226809
7.53654e-07
-5.95211e-06
-2.04112e-06
-6.26763e-06
-0.000526781
-0.000143427
0.000221479
0.00172727
-8.18706e-06
-0.000724841
0.00721673
-2.11348e-06
2.25275e-05
-0.00271011
-0.000150732
0.0104541
-1.84478e-06
8.28099e-05
1.65525e-05
-0.000529775
0.000206087
-0.000214422
-9.02162e-08
0.000339764
-5.63827e-06
-5.53494e-05
2.9666e-06
0.00467233
-8.44113e-07
-0.0001032
0.00167236
5.78251e-06
-0.049779
-0.269453
-0.000114243
-0.000324676
1.71604e-05
-5.8451e-06
-0.000188811
3.2754e-06
-0.00108831
-0.454856
-1.1832
0.00357953
0.000456608
-0.000300946
-6.15317e-06
-4.71907e-05
9.22422e-07
-0.00420013
0.00247652
-4.40315e-06
4.74401e-06
0.0270143
0.000871869
-1.36496e-07
-3.21102e-06
-1.0969
-1.99831e-06
7.14398e-07
0.322949
-0.00143641
2.4628e-06
-0.006864
3.97102e-07
-0.0216452
-0.00181341
8.68409e-07
-3.03305e-06
3.45345e-06
-2.1086
-3.60035e-08
-3.74894e-05
-2.98212e-06
7.26641e-07
-2.09451e-06
0.0546523
-2.57255e-06
-1.68869e-05
2.76744e-06
-0.00691085
-8.71335e-05
-1.274e-07
-3.13727e-06
0.000398114
-2.43684e-06
-9.27867e-07
-0.0254313
-0.0560658
-2.8309e-06
-0.956853
3.73084e-05
-0.00131619
-5.17601e-05
-0.00313427
-0.056397
0.000203042
0.00010169
-2.79754e-06
9.34968e-06
-2.06515e-06
-0.529238
0.00713435
-9.35148e-07
6.06866e-05
9.94624e-07
1.40588e-06
1.66414
-1.81787e-06
1.31303e-05
2.99442e-05
0.00646243
-3.11923e-06
6.5569e-06
-0.000144888
-0.0641541
-9.25684e-07
-1.33617e-05
2.85228e-07
9.74551e-08
4.87535e-07
-0.000774691
-1.81624e-05
-3.32517e-06
4.84045e-06
-1.69035e-05
-3.53326e-06
-0.797471
-5.44071e-06
1.49372e-05
-2.94095e-06
-0.00207771
9.93597e-08
-8.61285e-07
-0.00127413
-1.34107e-05
0.000583398
-4.80521e-06
-2.95025e-06
0.0633126
-0.0733259
-0.510523
-0.00572038
9.34046e-06
2.22077e-05
-0.212303
-4.429e-06
-0.000148035
6.76295e-07
0.317113
8.28515e-07
3.64268e-05
-3.07723e-06
-0.213121
0.000740846
-0.00506769
-0.0648668
6.91285e-05
-0.00277208
2.31961e-06
1.14724e-05
0.239463
-0.00118728
-1.23118e-06
1.2689e-07
8.88102e-06
-0.00037193
-2.8087e-06
7.22995e-06
-3.66822e-06
-4.98342e-06
0.0108418
-0.0139055
6.29587e-06
0.000160885
-0.0578391
-0.00636956
-0.000109696
0.000254503
-4.30709e-06
-0.000105667
-9.58371e-07
7.8628e-05
0.0248574
7.36461e-08
6.77192e-07
2.73633e-06
0.0196791
-0.0292693
-8.24769e-05
5.77065e-06
2.23538e-05
0.000159723
-2.87577e-07
0.000358495
-0.000942815
0.00257893
-0.000118232
0.0299416
1.1482e-06
-4.69577e-08
-2.56567e-06
2.81882e-06
-1.73162e-06
-1.66761e-06
-0.0269594
-9.82182e-07
-0.0019904
3.90968e-05
-2.46434e-07
2.40424e-07
0.00152772
4.36167e-05
-0.00124253
-0.00298649
-2.51568e-06
1.56349
-0.000547444
3.61059e-07
-4.31902e-06
0.0693649
0.385875
-4.81123e-06
1.17767e-06
-3.52973e-07
0.00011793
0.00990476
0.000586026
-0.000257029
1.3451e-05
0.004522
-0.130853
2.23409e-05
-2.11492e-06
2.054
-4.75879e-05
0.0204284
-1.05173e-05
-3.3103e-06
-0.00322332
-0.000267341
-0.0817808
0.00021366
0.0103034
1.04612e-07
-1.27243e-05
2.13342e-06
-1.91648e-06
-9.33289e-06
7.43024e-06
-2.82164e-06
-2.22796e-06
-3.32862e-05
6.52744e-05
0.00029223
-3.2547e-05
3.80924e-05
1.66879e-05
-3.21855e-07
2.31085e-05
-0.00068812
-0.00181639
2.20297e-07
-2.91523e-06
0.0122052
-0.000261504
-7.44674e-05
2.36672e-05
-0.323881
-8.57509e-07
-0.00133587
3.03292e-06
4.26306e-06
-2.34304e-06
0.0614527
-0.00288466
-7.7495e-05
0.000397521
0.000148355
-0.00131432
-8.08947e-07
0.000309445
0.00156248
-1.81216e-06
-0.00513745
5.08517e-06
-1.33566e-06
0.000169923
-2.93323e-08
-0.000536405
0.00256044
0.0516939
-0.000694768
3.25708e-06
-2.55177e-06
-2.04662e-06
0.0118256
5.06681e-07
0.102044
-2.20103e-06
-1.75542e-06
-1.79967e-06
-0.0025559
-1.45052e-05
-2.0894e-06
-5.44221e-06
0.00460975
-8.41846e-07
2.64642
2.3268e-07
0.000113687
3.07462e-05
-0.000500017
-6.80137e-07
-4.1501e-05
-0.044872
-0.00220816
4.0624e-06
-0.00071073
-3.03922e-06
-4.29261e-06
0.372504
-0.00372794
6.99773e-07
3.27614e-07
-0.000109067
-2.57163e-06
1.52646e-06
-2.69031e-06
-2.32329e-06
5.46557e-05
-0.00171448
2.16887e-05
-0.000266509
0.0010961
2.37046e-05
-7.75027e-07
-1.24238e-06
-0.000991035
-0.000400688
-2.41461e-06
-0.134332
5.56775e-06
-0.169976
-0.000698971
-5.15463e-06
-3.25057e-06
-3.34732e-06
0.000430417
1.43194e-05
-8.14782e-05
-2.47131e-06
-3.72238e-05
0.00639174
-2.99987e-05
0.000155297
-2.58835e-06
2.55098e-06
-2.30087e-05
-2.47997e-06
-3.15659e-05
-2.1885e-06
-0.000669033
7.70934e-06
5.64051e-06
0.573697
0.00160864
0.104425
-5.93239e-07
0.000352582
7.0339e-05
0.115383
-0.00507006
0.334385
-4.5592e-05
6.41912e-07
-0.00120456
2.06959e-06
0.299193
-6.82504e-06
-0.00307346
4.52684e-05
-0.00724865
0.695116
0.000142252
5.5417e-06
-8.66195e-07
-9.13382e-07
-2.81888e-06
-4.94439e-06
-1.90474e-07
4.43159e-05
-2.1807e-06
0.000239429
-0.00718135
0.110662
-2.68154e-06
-0.014544
1.70455e-06
-1.08177e-06
-1.56654e-06
0.000678458
2.88522e-05
0.0089389
-1.32643e-06
-2.11801e-06
4.06766
-8.70617e-07
-5.53241e-05
2.96872e-06
6.50337e-05
0.359736
0.000149193
-0.906292
0.00013337
-0.00503337
3.93651e-06
-2.24461e-06
-9.31402e-06
0.000416874
1.49455e-05
8.62133e-07
-2.20675e-05
-1.21482e-06
0.609472
-4.13446e-07
-0.421146
0.305753
-0.0059809
0.000310866
-0.00769234
0.000647878
-3.48378e-06
-0.0738381
-1.05179e-06
0.00572015
1.59761e-05
3.24753e-05
-0.0136759
-0.0112682
0.000256903
-0.02098
-2.52343e-06
-0.0995234
5.38705e-07
-0.857131
1.15486e-06
0.000877435
-0.00172005
3.28187e-05
1.79711e-07
2.21439e-05
-4.1537e-06
-0.000621132
0.0681791
-0.000497805
0.129526
-4.77239e-06
-1.06688
-3.05652e-06
-4.73223e-05
-1.91847e-05
1.40576e-07
0.33821
-2.13466e-05
-1.33931e-06
-0.0007371
-2.6737e-06
-0.0385975
-0.00327915
7.15229e-07
-0.000372758
-0.00123376
-3.78797e-06
-1.75615e-06
0.000202199
-1.70184e-06
-0.00143891
-5.86562e-05
-4.32575e-05
-0.000130917
4.35696e-07
-3.63787e-06
-0.00174941
9.72316e-06
-1.87197e-06
-8.66332e-06
9.38156e-06
3.16078e-07
0.148428
0.000519135
-0.0470973
-0.000298354
-0.00125578
-0.00028162
-3.21296e-06
2.25187e-05
-5.24604e-05
-3.21878e-07
0.0683732
1.37067e-05
-9.40191e-06
-0.00287281
0.000135427
-0.286806
0.977207
-3.34153e-06
0.000406042
-0.00276751
-0.625341
-1.3876e-06
-6.67869e-06
2.3199e-05
0.000251184
0.0845173
-0.00102152
-5.45561e-05
6.97881e-07
-1.45165e-06
-1.62375e-05
0.00435327
-0.000102136
0.000659799
0.0959026
-2.15686e-06
8.03454e-05
0.000216559
-2.0237e-06
4.54349e-07
3.30181e-06
-0.000806384
-0.00770438
4.62146e-06
-0.000165898
-0.439039
-1.30691e-05
-2.56225e-06
0.000143084
-2.1016e-06
-0.033294
-0.014445
-0.0425002
-0.00372411
-0.891724
7.88591e-05
-1.35363e-06
-0.0503513
0.000180838
0.000502052
-4.82341e-06
-9.50246e-07
-0.00211042
0.0204696
-2.19665e-06
2.52591e-07
0.000323591
0.01642
-0.000139455
4.95349e-07
-0.511781
-7.61293e-06
-0.00122356
9.74515e-07
-0.000321038
2.69689e-06
-0.000126792
0.000392294
-1.39554e-06
-0.423664
-7.56862e-07
-0.00143834
-0.00770162
0.0781215
-0.00689962
-1.04002e-06
-0.0019541
-0.000118916
-0.000589329
-4.32956e-05
0.0006202
2.9775e-06
7.8143e-05
0.0558247
-2.90111e-05
0.0780668
-2.63632e-07
0.0152871
-1.45563e-07
-9.01518e-07
1.04114
-0.000119686
0.0197701
0.000500934
-6.10855e-06
-0.105932
-0.336432
-1.03617e-06
3.54558
0.000907377
-1.00706e-06
-8.18803e-06
-0.0218347
3.54736
-4.92136e-06
-2.54748e-06
7.88554e-05
4.91635e-06
-0.125759
-1.09252
1.26163e-06
-3.11687e-06
-1.00979e-06
-0.08976
-0.00100013
-0.0196529
3.22754e-06
-0.343218
-1.85882e-05
-0.00343446
-0.858941
2.13297e-06
-8.31597e-07
2.09809e-05
-0.0203229
-2.9505e-07
-1.6874e-06
3.54073e-06
-1.82999e-05
-6.33414e-05
0.477245
0.000187619
1.37221e-05
-8.09094e-07
-0.000280912
0.00261609
0.00117951
-2.14142e-06
-1.29941e-05
0.00766974
-0.00165027
2.98694e-05
-0.17737
0.000259994
0.000100076
0.66662
-2.06032e-05
0.000378972
-1.98957e-06
0.0203205
3.05742e-06
1.01221e-05
-0.00906538
-0.000381161
-1.70986e-06
-1.8373e-06
2.50425e-06
0.0012838
-0.0071366
1.60896e-06
-2.31017e-06
6.87514e-06
0.000307159
0.000439598
-1.07678e-06
5.29631e-07
-2.33551e-07
-3.47802e-05
-0.00113217
1.2565e-05
8.1139e-06
0.398389
-3.14196e-06
-0.973658
-0.000538008
2.8883e-05
-0.000145591
-7.4378e-05
-3.29924e-06
0.415354
-0.0054671
-0.000751922
0.780945
-0.000434507
-8.10294e-07
0.158618
4.55401e-06
-0.000206736
-0.0588846
4.2034e-06
-2.15862e-06
-3.50119e-06
-0.00233079
-1.80751e-06
2.3298e-06
2.57919
4.58625e-07
-0.000222985
-2.25956e-05
-5.06421e-05
-2.92938e-06
-0.0033142
0.00432893
-1.60682e-07
-1.26619e-06
-0.49495
-1.98075e-06
-2.38694e-05
-7.04975e-07
1.4194e-06
-1.66677
0.000102702
0.000111783
3.9034e-06
-4.8282e-07
-2.78471e-05
-0.00069502
0.00367802
-0.000251392
0.00373136
-0.000214195
0.000163582
0.83574
-3.88997e-07
4.49901e-07
-4.28181e-06
-1.45071e-06
1.21752e-05
-3.41237e-06
-2.38731e-05
0.0365832
-1.18364e-06
-2.85292e-06
-2.79796e-06
4.61934e-06
0.125462
2.26983e-06
-0.532468
0.0138055
-0.00112082
-0.000624383
0.0601038
-0.000200592
-3.78229e-06
-3.79005e-06
-1.246e-07
4.85467e-05
4.21033e-05
-1.15266e-05
0.404851
-7.43894e-08
2.0256e-06
-0.00223899
-0.0160276
1.9282e-06
-1.28799e-06
0.011516
4.47739e-05
0.000508614
-9.37463e-07
-1.19301e-06
-4.48774e-06
0.111059
1.96339e-05
-0.0174256
-0.00335268
-0.00134696
-1.38288e-06
-9.18208e-06
-0.00013499
0.0611229
6.47146e-07
0.00143967
-2.84998e-06
-0.731387
-0.0488606
-5.02105e-05
0.00486424
-2.61543e-06
0.000112064
-0.000159131
-1.26967
9.79999e-05
-0.000241502
-0.000477775
-0.000157273
-1.00307e-05
0.00104028
-3.19105e-06
-0.00282283
0.00657834
0.0394885
8.35684e-06
0.00071006
0.032193
0.107491
6.55448e-05
2.24987e-05
0.00790211
-0.0842927
-1.23367e-06
-0.00072397
-4.05106e-06
0.000224609
-2.34225e-06
-5.05558e-06
-4.78752e-06
0.839882
-1.20637e-05
-2.65403e-06
-0.00322662
0.00230921
0.47687
0.00270559
0.171355
-1.08686e-06
-0.098006
-0.00384331
2.38277e-06
-2.27825e-06
0.00397246
1.39295e-05
-3.25507e-06
-1.00316e-06
-0.00099163
-5.28468e-07
4.06995e-07
-0.0925921
2.90625e-06
7.33042e-06
-1.52837e-06
-2.67257e-06
-8.31245e-06
-2.06257e-05
0.268243
0.000356229
-6.32736e-05
-4.79992e-06
0.000730989
0.00412234
1.16519e-05
2.84937e-05
0.0820472
0.0184429
-1.82559e-06
-9.13667e-05
-7.15435e-07
1.07244e-07
-0.00612329
0.00883619
2.56336e-07
-1.11892e-05
0.113872
-0.349477
-0.481344
-0.00219968
0.000241321
0.0101208
-8.33571e-06
-0.000127273
-6.11217e-05
2.64528e-07
1.95479
-0.49918
-0.0016131
0.000322543
-0.104622
-6.5776e-06
-3.53416e-06
-2.59756e-05
-0.000679586
-0.0999889
5.34528e-07
7.11713e-05
0.274845
-0.100019
-2.78339e-06
-6.23294e-06
-1.46768
-1.38602e-05
0.000161291
0.027066
1.21228e-06
-1.33981e-06
8.69804e-06
-0.229867
1.67089e-05
1.60093e-05
1.00251e-05
-0.0070107
0.000598718
-0.016126
-4.32578e-06
-3.31841e-06
-0.000455806
-2.64571e-05
-3.80882e-06
-4.82801e-05
-0.000236995
0.00378536
-6.01482e-07
7.08132e-07
0.0528108
-0.100001
-0.76168
-1.45688e-06
-2.02473e-06
5.4805e-06
-2.69801e-06
1.22815e-06
-2.72896e-06
0.000442729
-3.54372e-06
-2.02681e-06
-1.35986e-07
-0.00433035
-0.000187651
0.000408921
-0.558663
-0.00409019
-0.00187695
0.000258456
0.00540079
-0.00707659
-0.000614359
5.20703e-05
0.000424744
-1.91111e-06
0.0804385
-1.78977e-05
-2.74873e-07
4.69031e-06
-0.041336
1.2857e-05
-0.0666494
3.21311e-06
1.86844e-06
0.000406476
-4.08811e-06
-3.04563e-06
-3.67783e-06
0.000772978
0.00182275
-2.17074e-05
1.64549e-06
-1.00787e-05
1.21035
-0.00172486
-0.0532886
-6.43361e-06
-0.000702593
-2.69604e-06
-3.02331e-06
2.76498e-06
-9.34232e-07
-2.01535e-06
8.66707e-05
-0.0778172
2.11205e-06
5.03917e-05
0.00183256
-0.510312
0.00463992
1.19162e-05
-0.00568853
-0.000609935
-0.0765497
-6.12618e-07
1.82099e-05
-0.00078116
-0.177215
1.71172e-06
8.11713e-07
-6.94385e-07
4.37541e-07
0.00363706
3.03249e-06
-0.00358403
0.000207131
1.31945e-06
0.00036727
-2.72778e-06
0.0516029
-8.07493e-07
0.000958067
-2.5846e-06
-0.000248287
-4.88749e-06
-0.00363657
-0.00139407
-1.10161e-06
0.00126029
0.0259473
-2.15549e-06
4.60127e-06
-0.00127763
-1.06535e-06
3.39875
-0.000321056
5.7888e-06
-0.00256857
-2.33278e-06
0.000206144
4.62679e-08
-4.84362e-06
3.77538e-06
-2.50103e-06
-9.39476e-06
-8.48364e-07
-2.79653e-06
1.13024e-05
-0.00195607
7.3086e-06
-0.00238619
7.35099e-07
-3.73749e-07
-0.000384504
-0.00294522
2.76494e-05
-2.11601e-06
-7.88058e-07
2.70287e-06
-0.00253816
1.01744
-0.000593686
4.93434e-06
-2.8827e-06
-6.15175e-07
-0.000609596
6.85717e-07
-3.6386e-06
-0.349264
-0.144682
-0.000891598
-1.80225e-06
2.39022e-05
-2.39421e-06
-2.2303e-06
0.00075524
1.97795e-06
-0.00820628
7.16717e-06
0.0211268
-0.000226033
-0.749429
-1.97121e-05
-0.00522785
3.18262
-0.0325797
0.0618179
0.00014613
-0.0134883
-0.095147
-8.64011e-08
-0.000671628
-0.044007
5.2652e-05
-1.40401e-06
2.03341e-06
0.000167465
0.00282273
2.99089e-06
0.000149878
0.0916324
1.19754e-06
-2.95221e-06
-0.529688
0.0545095
0.00308691
0.0955433
0.345077
3.60437e-06
-0.00202018
-0.000188645
-0.000208223
0.308467
1.73073e-07
0.574871
-0.00394311
-7.49854e-05
1.68343e-05
-3.13497e-05
-0.00174025
-2.22254e-05
2.7964
1.58636e-06
6.59699e-07
-9.10726e-07
-0.318132
0.406223
0.00631892
-3.51101e-06
-3.65467e-05
-7.3893e-06
-0.255129
8.88702e-07
5.19704e-05
2.75231e-05
0.000256507
-4.09138e-07
-0.00485307
-0.871047
0.0564301
-5.72536e-05
0.0609378
-6.54409e-07
0.0885405
2.26402e-06
-0.0273549
-0.000723047
6.14651e-05
-0.000447216
-0.5045
-0.00742605
8.76121e-05
5.56406e-06
-0.00267137
0.000190434
-2.97871e-06
-6.50113e-07
0.000167205
1.09825e-05
0.0759355
5.28584e-07
-7.42376e-07
-2.97314e-06
-2.68286e-06
0.0786891
-5.05532e-07
-1.46246e-07
2.16911e-05
0.00633752
-0.000219962
-0.0024317
8.08337e-05
-1.09053e-05
-0.00532367
1.64319e-05
-3.58877e-07
-0.00585856
-0.00141719
-1.26922e-07
6.47011e-05
-7.41607e-06
0.114607
1.71803e-07
0.0059893
-0.00112726
-3.66264e-06
-8.49837e-07
-9.85191e-07
-2.37093e-06
-2.12275e-06
0.950099
-0.00529451
3.96192e-06
-1.06873e-06
-3.47598e-06
5.63293e-07
-0.00030725
0.0277903
3.50478e-05
-0.00390862
1.27728e-05
0.0833703
-1.26429e-05
-0.002587