/*--------------------------------*- C++ -*----------------------------------*\
| =========                 |                                                 |
| \\      /  F ield         | OpenFOAM: The Open Source CFD Toolbox           |
|  \\    /   O peration     | Version:  v2012                                 |
|   \\  /    A nd           | Website:  www.openfoam.com                      |
|    \\/     M anipulation  |                                                 |
\*---------------------------------------------------------------------------*/
FoamFile
{
    version     2.0;
    format      ascii;
    class       surfaceVectorField;
    location    "550";
    object      Uf_0;
}
// * * * * * * * * * * * * * * * * * * * * * * * * * * * * * * * * * * * * * //

dimensions      [0 1 -1 0 0 0 0];


internalField   nonuniform List<vector> 
27284
(
(1.00838 0.211501 -8.78218e-22)
(1.00533 0.200372 6.10015e-22)
(0.997734 0.207614 -6.17259e-22)
(1.00857 0.000163306 -5.75997e-22)
(1.00868 0.000166887 4.72862e-22)
(1.00864 0.000173192 -1.00436e-21)
(1.12625 -0.0119436 -9.00999e-23)
(1.13238 -0.00818198 0)
(1.12523 -0.00365947 0)
(1.01096 0.00106598 -4.55995e-24)
(1.01101 0.00115676 3.82711e-22)
(1.01106 0.00106011 3.64015e-22)
(0.999846 0.020568 7.92648e-22)
(0.996335 0.0196247 -3.1533e-21)
(0.999423 0.0163816 4.10082e-21)
(0.936701 -0.0911009 4.25951e-21)
(0.927034 -0.0823777 -4.49247e-22)
(0.926595 -0.100108 9.8391e-23)
(1.01342 -0.000644581 1.33869e-22)
(1.01335 -0.000378947 -7.30399e-22)
(1.01374 -0.000515358 9.41586e-22)
(1.0015 0.0246679 -1.70368e-21)
(1.00367 0.020645 3.105e-22)
(1.00466 2.46342e-05 3.5e-22)
(1.00582 0.00014831 3.30228e-22)
(1.00505 9.57538e-05 -4.4734e-22)
(1.08377 -0.0100781 0)
(1.07732 -0.00629909 4.85813e-22)
(1.08284 0.0093804 0)
(1.00936 0.00815965 1.43486e-21)
(1.00968 0.00933397 7.73146e-22)
(1.01053 0.00820477 -5.43539e-22)
(1.06843 0.0309506 -6.78949e-21)
(1.06927 0.0319238 -5.75416e-21)
(1.06983 0.0305932 -5.54973e-21)
(1.06763 0.0296201 7.45192e-21)
(1.06693 0.0311266 -1.65354e-24)
(0.952333 0.149234 0)
(0.962959 0.157394 2.98212e-22)
(0.963824 0.141468 0)
(1.00704 0.000185665 7.33221e-22)
(1.00753 0.000205746 -8.91129e-24)
(1.00731 0.00018584 6.33538e-22)
(1.009 -0.000339027 -4.21356e-23)
(1.00888 -0.000333404 3.94681e-22)
(1.009 -0.000342585 1.57429e-21)
(1.01093 0.000966342 -6.1491e-22)
(1.01086 0.00105099 -3.8207e-22)
(1.01686 0.00625188 -4.09384e-23)
(1.01739 0.00584604 8.73161e-22)
(1.01735 0.00644178 -1.17502e-21)
(1.14289 0.0809135 8.6479e-23)
(1.14168 0.0891688 9.6422e-23)
(1.13584 0.0841055 -3.63945e-23)
(1.01265 0.00521819 -5.47222e-22)
(1.01312 0.00524518 7.73964e-22)
(1.01282 0.00465369 -3.21648e-22)
(0.84407 0.106308 3.57944e-21)
(0.85546 0.10589 6.58002e-21)
(0.850963 0.117204 3.66811e-21)
(1.02416 0.012431 5.94947e-22)
(1.02369 0.0122139 3.94301e-22)
(1.02375 0.0128204 0)
(1.00781 0.000159976 -3.6769e-22)
(1.00787 0.000156311 -6.89323e-22)
(1.0078 0.00014776 -9.09912e-23)
(0.944514 -0.0954588 1.10779e-21)
(0.947602 -0.0824544 1.69589e-22)
(1.00782 0.000173974 2.85313e-22)
(1.00775 0.000161623 4.24156e-22)
(1.01186 0.0012398 -7.11207e-23)
(1.01202 0.00155219 5.37189e-22)
(1.01223 0.00113253 -1.09546e-21)
(1.01313 -0.0007137 3.8152e-22)
(1.01283 -0.000813924 5.37056e-22)
(1.01271 -0.000472538 1.02601e-21)
(1.01133 0.00195981 8.87965e-24)
(1.01147 0.00203096 3.22138e-22)
(1.01139 0.00207509 -1.57258e-22)
(1.00303 -4.69197e-06 -3.09539e-22)
(1.00438 5.13219e-06 5.66714e-23)
(1.00938 0.00571555 8.03818e-22)
(1.0093 0.00687461 6.62751e-22)
(1.01049 0.00602437 -3.16699e-21)
(0.895762 -0.258622 2.50889e-21)
(0.882372 -0.260112 -7.78084e-21)
(0.892315 -0.242975 3.09562e-22)
(0.972336 0.0288978 1.45597e-21)
(0.97586 0.0305083 1.42951e-21)
(0.972638 0.0332061 -3.94718e-22)
(1.0104 -0.000447537 4.19278e-22)
(1.01043 -0.000419459 -1.30324e-23)
(1.01051 -0.000444515 4.16652e-22)
(1.00866 -0.000244289 3.3529e-22)
(1.00863 -0.000245671 -7.67967e-22)
(1.00854 -0.000231726 0)
(1.00643 -8.4108e-05 -7.17517e-24)
(1.00638 -9.87918e-05 -5.38764e-23)
(1.00489 -8.08748e-05 4.01616e-23)
(1.01059 0.0061155 -3.76816e-22)
(1.01088 0.00603784 0)
(1.01076 0.00640565 0)
(1.05002 0.0291974 8.27516e-22)
(1.05086 0.0286983 -1.56687e-21)
(1.04978 0.0283236 1.82663e-21)
(1.01041 0.00582735 -3.98957e-22)
(1.01024 0.00624188 -8.90253e-23)
(1.00953 0.00440404 6.80463e-22)
(1.0082 0.00536847 1.47899e-21)
(1.01676 0.00948877 1.06746e-22)
(1.0167 0.00961244 1.56944e-22)
(1.01664 0.00936363 3.31286e-22)
(1.01409 0.000176892 1.62983e-22)
(1.01398 0.000196544 -4.27912e-22)
(1.01239 0.00012497 -4.85223e-22)
(1.00817 0.00802426 8.65355e-22)
(1.00868 -0.000244978 -1.85819e-22)
(1.0087 -0.000247552 -4.98604e-22)
(1.00859 -0.000233115 -1.71301e-22)
(1.00846 0.000161721 -5.7054e-22)
(1.00837 0.000159262 3.09933e-22)
(1.00843 0.000168289 -7.77183e-22)
(1.0085 0.000156327 -2.1374e-22)
(1.03823 0.0322171 1.36232e-21)
(1.04102 0.0327718 1.1955e-21)
(1.03863 0.035337 -4.2411e-21)
(1.011 0.00264051 3.75232e-22)
(1.0111 0.00271879 -3.66533e-22)
(1.01107 0.00273558 6.71945e-23)
(1.01089 0.00256153 1.10713e-21)
(1.01092 0.00254654 3.15769e-22)
(0.910236 -0.259128 2.67011e-21)
(1.01143 0.00185055 5.48349e-22)
(1.01133 0.00170153 2.60007e-22)
(1.0114 0.00178741 -2.87812e-23)
(1.0062 -7.75568e-05 1.23978e-21)
(1.00555 -4.36256e-05 -3.04601e-22)
(1.00559 -3.21727e-05 5.4458e-22)
(0.797209 0.221686 -3.46087e-22)
(0.808612 0.211779 -3.81867e-22)
(0.808732 0.225477 4.76367e-22)
(1.01141 0.00194244 8.62145e-23)
(1.01154 0.0020036 -3.23886e-22)
(1.075 0.133499 8.28076e-22)
(1.07997 0.136204 -1.0802e-21)
(1.0794 0.128332 -2.68104e-21)
(1.01666 0.00334929 5.23385e-22)
(1.01666 0.00317126 0)
(1.01644 0.00321922 0)
(1.01205 0.00514584 1.35685e-22)
(1.01233 0.0058636 3.19842e-23)
(1.00587 -0.000115845 -4.88533e-22)
(1.0049 -5.46033e-05 -5.83361e-24)
(1.00495 -5.71215e-05 -2.95778e-22)
(0.867118 -0.280044 9.85149e-22)
(1.01168 0.00100645 2.757e-23)
(1.0115 0.0014801 2.11052e-22)
(0.893564 0.0459145 -2.01948e-21)
(0.848117 0.0485197 -6.40126e-22)
(0.842442 0.0562692 -5.67928e-23)
(1.00877 -0.000257158 1.44362e-22)
(1.07992 0.0302498 3.32851e-21)
(1.07924 0.0301957 -4.39086e-21)
(1.07945 0.0310178 1.0093e-20)
(1.06902 0.129735 2.63216e-21)
(1.06892 0.138076 1.31626e-21)
(1.01554 0.00102485 -4.61253e-22)
(1.01522 0.000720998 4.7838e-22)
(1.01487 0.000977727 0)
(0.965872 0.0524877 1.0237e-22)
(0.965663 0.057766 -1.21269e-21)
(0.970149 0.0539763 8.70952e-22)
(1.00607 -9.03597e-05 1.97226e-22)
(1.00673 -0.000115996 2.32589e-22)
(1.00654 -0.00012579 -2.3054e-22)
(1.02562 0.0233701 -4.00295e-23)
(1.02636 0.0231003 7.7059e-22)
(1.02622 0.0242219 -3.34785e-22)
(1.04926 0.0297169 0)
(1.05028 0.03018 1.44742e-21)
(1.00889 -0.000378539 4.03539e-23)
(1.00886 -0.000401169 6.0223e-22)
(1.00877 -0.000367944 5.43552e-22)
(1.08854 -0.0234628 6.5762e-22)
(1.08487 -0.0394817 5.72066e-21)
(1.09364 -0.0141059 -9.75555e-22)
(1.01098 0.00106179 1.32222e-23)
(1.01106 0.0010584 -1.10519e-23)
(1.01099 0.00111188 -8.07113e-22)
(1.01667 0.00346173 -3.73623e-22)
(1.01687 0.0034297 4.09034e-22)
(0.985686 0.0287661 0)
(0.982981 0.0270275 0)
(0.986287 0.0254807 3.02361e-22)
(1.02029 0.00483799 -1.61722e-21)
(1.0194 0.00501205 1.08735e-21)
(1.01981 0.00558646 5.35841e-22)
(0.956822 -0.0136614 -1.04965e-21)
(0.949347 -0.00845018 -1.26194e-21)
(0.961837 -0.00582021 -5.66873e-21)
(1.00893 -0.000337632 3.18188e-22)
(1.00891 -0.00035773 -7.56046e-23)
(1.00881 -0.000325986 6.05022e-22)
(0.865485 -0.272528 -1.59539e-21)
(0.85984 -0.28207 -2.19723e-21)
(1.00896 -0.000325208 -2.83012e-22)
(1.00906 -0.000353236 -4.69947e-22)
(1.01089 0.00107129 1.75843e-22)
(1.01098 0.00101883 1.06116e-21)
(0.953371 -0.022212 -2.73812e-21)
(0.96472 -0.0189796 -2.80968e-22)
(1.02482 0.023846 -5.78645e-22)
(1.02497 0.0227409 -8.69484e-23)
(0.972718 -0.0483783 -1.09097e-22)
(0.962368 -0.0528608 1.34127e-21)
(0.966692 -0.0416808 1.25047e-21)
(1.00901 -0.000392536 1.62926e-23)
(1.0215 0.0260507 -5.18417e-22)
(1.0222 0.0267876 -4.33482e-22)
(1.02123 0.027087 -4.33939e-22)
(1.01883 0.0714998 -2.57601e-23)
(1.02048 0.0740305 -1.04558e-22)
(1.0169 0.0734651 -3.11591e-23)
(1.00381 6.37161e-05 -7.72356e-23)
(1.00372 5.56764e-06 -7.92406e-23)
(1.00258 1.43708e-05 4.4193e-22)
(1.00784 0.000312352 -2.77201e-22)
(1.00677 0.000251405 -1.33311e-22)
(1.00654 0.000235409 3.03675e-22)
(1.03251 0.0598394 -3.3492e-22)
(1.03373 0.0579432 1.31542e-21)
(1.03474 0.060182 6.10195e-22)
(1.01024 0.00169461 1.48309e-22)
(1.01018 0.00161441 -7.91211e-22)
(1.01014 0.00164527 -2.50658e-22)
(1.03012 0.0592884 -2.51111e-22)
(1.0309 0.0616162 -5.95273e-22)
(0.880936 0.276083 4.00866e-21)
(0.888663 0.26667 3.01641e-21)
(0.865968 0.0816954 1.14363e-22)
(0.873611 0.0724101 1.52645e-21)
(0.878686 0.0846072 4.14152e-21)
(0.979908 -0.0534149 -7.39345e-21)
(0.983543 -0.0434243 -4.47619e-22)
(1.01127 0.00157446 2.82576e-22)
(1.01125 0.00161421 7.51878e-22)
(1.07911 0.145273 1.66904e-21)
(1.09281 0.117594 0)
(1.07799 0.140138 0)
(1.01355 0.00235365 -6.59432e-22)
(1.01341 0.00275609 -4.24848e-22)
(1.01409 0.00287747 1.5399e-23)
(1.00983 0.00164725 -4.19175e-22)
(1.00982 0.00165228 0)
(1.00974 0.0015687 3.92874e-22)
(1.01365 0.00199472 -1.50456e-22)
(1.0131 0.00193301 -1.28998e-22)
(1.08604 0.0645666 -2.1274e-21)
(1.08794 0.0674708 -2.10693e-21)
(1.084 0.0669204 2.09468e-21)
(1.02208 0.0116613 -3.32174e-22)
(1.02245 0.0118314 -3.35213e-22)
(1.02216 0.0120856 2.05972e-22)
(1.01776 0.0689719 -2.59431e-26)
(1.02135 0.0695603 -4.59624e-22)
(1.0108 0.00107644 -1.28506e-22)
(1.01081 0.00111509 -5.03119e-22)
(1.01123 0.0014545 -5.08398e-22)
(1.01126 0.00155579 9.50839e-22)
(1.01088 -0.000668772 5.6061e-24)
(1.01093 -0.000727212 9.75279e-24)
(1.01083 -0.00068206 0)
(1.0242 0.0241466 -7.70965e-22)
(1.0234 0.0244566 -6.39523e-23)
(1.02358 0.0234977 0)
(1.00914 -0.000351083 -1.70538e-21)
(1.00901 -0.000333412 -5.26927e-22)
(0.960863 0.0511493 2.1285e-21)
(0.965874 0.0473888 -6.13911e-22)
(1.0647 0.173824 5.74459e-21)
(1.07556 0.149106 5.91345e-21)
(1.04223 0.0445814 0)
(1.04188 0.0459049 0)
(1.04357 0.0453927 1.51036e-21)
(1.00887 -0.000313378 5.27034e-22)
(1.00897 -0.000319488 5.09677e-22)
(1.00883 -0.000298492 -1.6398e-22)
(1.00663 -0.000130683 -2.52631e-22)
(1.00663 -0.000141864 2.26961e-22)
(1.00421 -4.75017e-05 7.55434e-23)
(1.003 -2.93393e-05 0)
(1.00417 -5.31677e-05 0)
(0.996189 0.012992 -8.58713e-22)
(0.99451 0.0143268 6.03356e-22)
(0.997171 0.014964 -7.22331e-22)
(1.02083 0.0252648 -3.22152e-22)
(1.02172 0.0250373 9.00213e-22)
(1.03209 -0.00810272 4.90715e-22)
(1.04143 -0.00640395 6.65019e-22)
(1.03378 -0.00277474 1.08262e-21)
(1.00603 0.0231789 1.33112e-21)
(1.00733 0.0236997 -8.66856e-22)
(1.00713 0.0222491 -4.77402e-22)
(1.0107 0.00107697 4.98413e-22)
(1.01078 0.00103716 2.31162e-22)
(0.94876 -0.032231 9.64851e-22)
(0.937674 -0.0272101 6.35407e-21)
(1.02209 0.0186079 -8.46323e-22)
(1.0215 0.0188187 -6.40666e-22)
(1.02159 0.0180893 1.50193e-24)
(1.02694 0.0225615 1.5577e-21)
(1.02744 0.0232957 -5.62355e-22)
(1.09 -0.00691917 0)
(1.08276 -0.0257291 -2.75851e-22)
(1.11904 -0.0130578 -2.51054e-22)
(1.12801 -0.0190084 5.84461e-22)
(0.867847 0.272889 0)
(1.03347 0.0665619 4.00834e-22)
(1.03213 0.0689529 -4.43496e-22)
(1.03539 0.0690883 -6.62041e-23)
(0.947377 -0.0439162 1.32254e-21)
(0.957494 -0.0361267 2.02032e-21)
(1.03664 0.0257905 -4.26079e-22)
(1.03429 0.0260931 -3.50672e-22)
(1.03571 0.0229067 -8.02533e-22)
(1.01362 -0.00101252 -2.47778e-23)
(1.01089 0.000867809 -1.84725e-23)
(1.01098 0.000881803 -2.94085e-22)
(1.01144 0.222449 1.16203e-21)
(1.02011 0.214429 9.45224e-22)
(1.02268 0.00954223 0)
(1.02284 0.00985853 5.43759e-23)
(1.02242 0.0097664 -7.47584e-22)
(1.00984 0.00163453 -4.1226e-22)
(1.00992 0.00172149 4.6703e-23)
(0.781614 0.233276 1.48613e-21)
(0.781419 0.218599 -1.57683e-22)
(1.01572 0.00540022 1.04443e-22)
(1.01558 0.00521658 4.04608e-23)
(1.01578 0.00531955 4.44062e-23)
(1.0885 0.0440254 -2.58014e-21)
(1.08945 0.0423335 -2.16525e-21)
(1.09036 0.0445129 -3.50657e-22)
(0.994663 0.11343 0)
(0.998056 0.110799 0)
(0.998404 0.116575 0)
(1.01019 0.00149162 -1.22376e-22)
(1.01026 0.00155913 0)
(1.01031 0.00153287 0)
(1.1486 0.0777772 -2.72346e-21)
(1.14146 0.0737421 2.62873e-21)
(1.0987 0.0534908 -5.0302e-21)
(1.10052 0.033158 8.92973e-22)
(1.10239 0.0488154 2.14598e-21)
(1.01276 0.000877698 0)
(1.0129 0.000933952 0)
(1.01283 0.00103256 4.24647e-23)
(0.86022 0.0947279 2.26289e-21)
(0.853967 0.0815437 -1.6316e-21)
(1.04055 0.02702 4.68034e-22)
(1.04084 0.0262846 -7.34287e-22)
(1.0414 0.027193 3.68269e-21)
(0.995091 -0.0156001 2.44146e-21)
(0.998949 -0.0174862 -7.69974e-22)
(0.994921 -0.0203034 -3.36409e-22)
(1.01071 0.00252679 -3.91497e-23)
(1.01064 0.00244179 -1.07163e-22)
(1.01063 0.00244666 3.66042e-23)
(0.830875 0.263997 1.05102e-21)
(0.823604 0.254414 2.1137e-22)
(0.989994 0.109904 7.00707e-22)
(0.98999 0.116332 0)
(1.01427 0.000290622 4.08075e-22)
(1.01475 0.000317658 1.73964e-22)
(1.01463 0.000346441 5.41758e-22)
(0.786326 0.0431642 0)
(0.766649 0.0404747 0)
(0.825628 0.036279 0)
(1.0131 -0.00212748 3.04161e-23)
(1.01289 -0.00207623 -4.97773e-23)
(1.01296 -0.00202323 -1.9342e-23)
(0.995201 0.0109142 -7.89554e-22)
(0.997685 0.011549 -7.64347e-22)
(1.00273 -0.120774 1.56493e-23)
(0.991289 -0.131614 2.55072e-22)
(0.990607 -0.125473 2.84094e-22)
(1.01127 0.00185843 1.70872e-22)
(1.01121 0.00189985 1.49647e-22)
(1.02754 0.0220618 -7.29593e-22)
(1.02653 0.0219412 1.05049e-21)
(1.01394 -0.00184255 -4.86227e-22)
(1.01344 -0.00167311 4.93256e-22)
(1.01368 -0.00144895 -2.44221e-22)
(1.01337 -0.00973409 -6.28476e-22)
(1.01164 -0.0100977 -6.62034e-22)
(1.01228 -0.00819203 -3.04059e-22)
(1.00881 -0.000259354 7.81353e-23)
(1.00872 -0.000251122 0)
(1.00725 9.0201e-05 4.60506e-22)
(1.00737 9.44188e-05 -1.47406e-22)
(1.00739 0.000100666 3.86735e-22)
(1.01078 0.000847832 2.57524e-22)
(1.01079 0.000745673 2.17193e-22)
(1.00389 3.25325e-05 1.24599e-21)
(1.0046 -7.45248e-05 -2.12451e-22)
(1.01077 0.00257582 4.23633e-23)
(1.01078 0.00258652 2.89567e-22)
(1.00702 7.86418e-05 -5.25436e-22)
(1.00699 6.62561e-05 -3.63265e-22)
(1.01536 0.00659938 -4.65108e-22)
(1.01573 0.0060284 -9.31661e-23)
(1.01509 0.00599429 -1.02676e-21)
(1.01565 0.00546762 -2.65861e-23)
(1.01587 0.0055725 -1.36594e-23)
(1.00892 -0.000330226 0)
(1.00879 -0.000308395 0)
(1.00677 -0.013571 -6.85643e-24)
(1.0043 -0.0128478 -3.61886e-22)
(1.00629 -0.0108662 -8.90554e-22)
(1.01748 0.00441312 -5.12069e-22)
(1.01823 0.00396133 -9.30979e-24)
(1.01742 0.00346147 -4.75656e-22)
(1.05839 -0.0149212 -2.01234e-22)
(1.06324 -0.0213729 -9.66675e-22)
(1.05535 -0.0247239 -2.85027e-22)
(0.800655 0.0484898 2.45078e-22)
(0.742238 0.0527288 0)
(0.979495 0.223562 6.38262e-22)
(0.969532 0.23094 -5.57596e-22)
(0.969318 0.217725 -5.53175e-22)
(0.677237 -0.0598811 -7.14154e-21)
(0.662765 0.00396177 -7.91265e-21)
(0.682081 -0.0511091 -1.07499e-20)
(1.04017 0.0279545 3.36945e-22)
(1.03963 0.0269483 -1.2382e-21)
(1.00458 -6.80279e-05 1.10753e-22)
(1.00462 -7.17625e-05 -1.39798e-22)
(1.00326 -4.23763e-05 -3.02353e-22)
(1.08642 0.043267 -2.13806e-21)
(1.08697 0.0453969 -1.43261e-22)
(1.00394 -1.75923e-05 -3.19877e-22)
(1.00397 -3.05087e-05 0)
(1.00265 -2.19604e-05 0)
(0.926141 -0.260657 4.49643e-21)
(0.923377 -0.243428 0)
(1.00551 -0.000102605 0)
(1.00556 -0.000101545 0)
(1.00415 -5.11593e-05 0)
(1.01364 0.000220325 0)
(1.01347 0.000224198 -3.00261e-22)
(1.00414 -3.72064e-05 4.77487e-23)
(1.00508 -0.000102904 3.25695e-22)
(1.01152 -0.00117125 2.21957e-25)
(1.01162 -0.00118195 -7.69446e-25)
(1.01164 -0.00124191 7.3053e-23)
(1.04008 0.0113388 -2.46332e-21)
(1.0409 0.0114877 -2.63627e-21)
(1.04034 0.0119306 3.94975e-21)
(1.0145 0.0356605 1.47834e-22)
(1.01599 0.035667 9.60884e-23)
(1.01499 0.0373233 2.73142e-23)
(1.00381 4.17942e-06 -4.40089e-23)
(1.00383 1.46082e-05 -5.37122e-23)
(1.00257 -1.2501e-05 -3.514e-22)
(1.05417 -0.0100253 -5.722e-22)
(1.05927 -0.00444404 8.08491e-23)
(1.02348 0.0114085 -8.25218e-22)
(1.02303 0.0112679 3.81348e-22)
(1.02332 0.0109472 8.80762e-22)
(1.01168 0.00245433 2.19921e-22)
(1.0118 0.00253448 3.33616e-22)
(1.01173 0.00241316 -1.47463e-22)
(1.04367 -0.0167502 -1.41869e-23)
(1.04082 -0.0128927 1.56018e-22)
(1.03881 -0.0182242 1.41617e-22)
(1.0112 0.00133893 -3.71356e-22)
(1.0112 0.00134005 5.94692e-22)
(1.00463 3.97019e-05 -1.13222e-21)
(1.00419 -1.49496e-05 -9.02225e-23)
(1.00533 7.01728e-05 -5.90986e-22)
(1.02785 0.058455 8.41805e-22)
(1.026 0.0601159 3.7086e-22)
(1.02549 0.0575922 5.2932e-22)
(1.01642 0.000882736 0)
(1.01637 0.000779225 0)
(1.01624 0.000843091 0)
(1.01296 -0.00120733 2.23209e-23)
(1.01254 -0.000858239 -7.23816e-22)
(1.03729 0.029115 0)
(1.03912 0.026472 -5.16107e-21)
(1.08511 0.0617891 -9.57365e-22)
(1.08839 0.0625599 1.6217e-21)
(1.00886 0.000161995 5.69015e-22)
(1.00874 0.000157745 4.57834e-23)
(1.00878 0.000158552 -3.65157e-22)
(1.01009 -0.000781031 4.35379e-22)
(1.01014 -0.000743358 -6.56368e-22)
(1.01025 -0.000784166 -5.62912e-22)
(1.01558 0.000162056 -1.2767e-23)
(1.01548 0.000143555 6.56042e-22)
(1.01559 0.000114747 5.84981e-23)
(1.02182 -0.0142478 0)
(1.042 -0.0143787 0)
(1.02501 -0.0200664 -6.98129e-22)
(1.00669 -6.39683e-05 3.14793e-22)
(1.00667 -9.16159e-05 -2.85157e-22)
(0.99399 0.253587 -4.53201e-22)
(0.992018 0.241041 -1.00973e-21)
(0.981636 0.249908 -3.00306e-22)
(1.00871 0.000161062 1.42599e-21)
(1.00879 0.000168529 7.96261e-22)
(0.936042 0.155027 -1.43868e-22)
(0.940578 0.139251 1.74902e-22)
(1.01119 0.00123798 1.07656e-21)
(1.01119 0.00134534 6.74685e-22)
(1.01826 0.00818852 -3.96001e-22)
(1.01827 0.00792889 3.96644e-22)
(1.01792 0.00806858 7.26591e-22)
(1.00987 0.00305167 8.18811e-22)
(1.01091 0.00363419 0)
(1.00394 -2.10112e-05 -6.06262e-22)
(1.0043 3.55406e-06 6.70953e-26)
(1.00503 4.34597e-05 8.46694e-22)
(0.988757 0.215221 7.50416e-22)
(0.990452 0.228711 -2.90811e-22)
(1.02281 0.00820903 8.56669e-22)
(1.02293 0.0079577 1.04744e-21)
(1.0232 0.00822344 -1.12953e-22)
(0.692002 -0.122902 7.66943e-21)
(0.672173 -0.0607484 6.84393e-21)
(1.01161 0.00246701 -5.00374e-23)
(1.01158 0.00235124 1.13304e-22)
(1.01035 -0.00048722 1.32578e-22)
(1.01023 -0.000474172 7.46162e-22)
(1.01033 -0.00050039 7.16148e-22)
(1.01245 -0.00174716 8.3097e-22)
(1.01212 -0.00146671 1.23523e-21)
(1.01242 -0.00143493 6.4438e-22)
(1.01888 0.00918717 2.11848e-23)
(1.01883 0.00892787 1.84183e-23)
(1.01865 0.00902736 4.02581e-22)
(1.00002 -0.0609384 2.42179e-21)
(0.989835 -0.0676229 -8.71882e-22)
(0.99318 -0.0592212 -8.30128e-22)
(1.01657 -0.00200817 -1.37267e-22)
(1.01744 -0.00178503 -1.41239e-22)
(1.01721 -0.00264638 6.35867e-22)
(1.01576 -0.00204359 -8.98052e-22)
(1.01593 -0.00147502 -4.20369e-22)
(1.01323 -0.00226034 5.33302e-24)
(1.01331 -0.00219211 9.21118e-23)
(0.942486 -0.26373 -4.60601e-21)
(0.927837 -0.276805 4.49402e-21)
(1.01295 0.0352757 -4.58129e-22)
(1.01415 0.0338865 5.40758e-22)
(1.0492 0.0222945 0)
(1.04851 0.0217585 3.95935e-21)
(1.04843 0.022606 0)
(1.02264 0.00848552 0)
(1.02245 0.00872075 -7.15166e-22)
(1.0229 0.00877061 1.04874e-21)
(1.01102 0.0027719 3.50099e-22)
(1.01101 0.0027882 2.21516e-22)
(1.01111 0.0028663 7.92673e-22)
(1.0427 0.0430121 0)
(1.04094 0.0435682 0)
(1.00994 -0.0010006 3.33493e-22)
(1.00992 -0.00102358 -3.17386e-22)
(1.00981 -0.000979458 -4.80924e-22)
(1.03698 0.05599 1.45185e-21)
(1.03497 0.0559865 2.27965e-21)
(1.03596 0.0540094 -2.57147e-22)
(1.00473 -0.00545587 4.72421e-22)
(1.00462 -0.00725254 7.24471e-22)
(1.00644 -0.00636437 -1.49193e-21)
(1.04476 0.00607899 2.91919e-22)
(1.05185 0.00695197 3.60607e-22)
(1.04559 0.0107635 0)
(1.01956 0.00197679 4.31654e-22)
(1.01884 0.00125945 -2.59668e-22)
(1.02022 0.00119907 2.91207e-22)
(1.00996 -0.00097359 7.93141e-22)
(1.00997 -0.000939657 4.65864e-22)
(1.00984 -0.000925279 1.43419e-22)
(1.09505 0.0710029 -1.02692e-21)
(1.09505 0.0546082 -1.37276e-21)
(1.00756 0.172664 -2.81989e-21)
(1.00028 0.179159 6.27117e-22)
(0.997716 0.170265 -4.47448e-23)
(0.99542 0.0338 -1.7365e-23)
(0.993035 0.0327722 -6.24821e-22)
(0.995365 0.0311531 -1.81925e-22)
(1.01425 0.000725616 -3.33541e-22)
(1.01385 0.000728207 7.17901e-22)
(1.01408 0.000905209 5.68742e-22)
(1.02479 0.0247902 1.06459e-21)
(1.06033 -0.0405354 4.81496e-22)
(1.06475 -0.0261938 -2.35633e-22)
(1.06732 -0.0346546 -1.54499e-22)
(1.01006 -0.00102054 1.48539e-22)
(1.00947 -0.0141372 7.13628e-22)
(1.00795 -0.0166006 -6.8086e-22)
(1.03965 0.00622385 1.56985e-21)
(1.04327 0.0019905 9.44867e-22)
(1.0341 0.00826328 -3.84426e-21)
(1.03403 0.00769496 -2.32851e-21)
(1.03347 0.00799066 -1.32204e-22)
(1.03554 0.0323171 1.55719e-21)
(1.05328 0.015522 4.97363e-23)
(1.05411 0.0155461 1.30468e-21)
(1.05349 0.0147924 1.34689e-21)
(1.0151 -0.0020371 8.39783e-22)
(1.01547 -0.00264347 -4.41739e-22)
(1.00902 0.000173488 6.97776e-23)
(1.00894 0.000166131 4.40194e-22)
(1.0089 0.000169017 -7.50767e-22)
(1.03931 0.011281 -3.55314e-21)
(1.03981 0.0107829 1.50204e-21)
(1.01445 -0.00194582 7.9697e-22)
(1.01469 -0.00156676 1.09707e-21)
(0.997454 0.034666 -1.78659e-22)
(0.999767 0.0352793 -6.85127e-23)
(0.999583 0.0328147 -4.62517e-22)
(1.02237 0.00821364 0)
(1.01668 0.0030182 -3.65917e-22)
(1.0167 0.00286419 -3.63561e-22)
(1.01647 0.00289789 6.83517e-23)
(1.01102 0.00246688 0)
(1.01099 0.00249582 3.53848e-22)
(1.01092 0.00239277 -3.30106e-22)
(1.00687 -0.0541562 7.11175e-22)
(1.00674 -0.0610267 8.0604e-22)
(0.978415 -0.0744873 -2.42552e-22)
(0.969237 -0.0801645 -2.54896e-21)
(0.972314 -0.07023 8.37306e-22)
(1.01123 0.00091642 6.88452e-25)
(1.01131 0.000870963 -5.90376e-22)
(1.01134 0.000821193 -4.24668e-22)
(1.01587 0.00146022 -1.95319e-22)
(1.01631 0.0011003 -7.01359e-22)
(0.986078 -0.0770177 0)
(1.09126 0.00664802 6.68852e-22)
(1.08909 0.00361894 -8.4306e-22)
(1.08796 0.00714378 -2.79856e-22)
(1.00339 -0.0042495 1.06136e-21)
(1.00527 -0.00373058 -8.66477e-23)
(1.01142 -0.00108998 -2.19721e-23)
(1.01141 -0.00114733 -3.2489e-23)
(1.00549 -0.0149106 -7.33948e-22)
(1.00728 -0.0182918 -4.18275e-22)
(1.00837 -0.0148214 -4.99308e-22)
(1.05318 0.0164371 -2.71057e-21)
(1.05251 0.0156691 -3.71873e-21)
(1.01403 0.000494891 1.80941e-22)
(1.01336 0.000396211 4.12469e-23)
(1.0137 0.000496119 -7.44644e-23)
(1.01871 0.00269093 2.92433e-22)
(1.02008 0.00291788 1.5049e-22)
(1.00942 0.00119477 -4.42142e-22)
(1.00948 0.00125639 -2.71408e-22)
(1.0094 0.00119797 -2.41562e-22)
(1.0113 -0.108296 3.37393e-22)
(1.0138 -0.108815 1.58011e-23)
(0.998776 0.025583 3.12275e-22)
(0.993589 0.025911 3.14866e-22)
(0.99751 0.030728 2.86067e-22)
(1.08279 0.0604528 4.4167e-21)
(1.08127 0.0584054 3.52924e-21)
(1.0805 0.0613333 3.1021e-21)
(1.06276 0.0236232 -3.47349e-21)
(1.06319 0.024139 -1.4184e-21)
(1.06363 0.023464 -6.47744e-21)
(1.00871 0.00241856 1.2035e-21)
(1.01023 0.00164823 -1.426e-21)
(1.02041 -0.0224179 -5.54825e-22)
(1.01695 -0.0245673 -1.51774e-21)
(1.01737 -0.0202114 -1.03469e-21)
(0.99645 -0.00804296 1.80405e-22)
(0.995802 -0.0114461 3.90144e-21)
(0.999235 -0.00994538 -8.88954e-22)
(1.08966 0.0700686 -1.4962e-21)
(1.08786 0.0731377 9.01251e-22)
(1.09226 0.0733729 2.25266e-21)
(1.00936 0.00113859 -1.95783e-22)
(1.00945 0.00119265 9.52737e-22)
(1.0169 0.00313848 0)
(1.01188 -0.000964704 7.54919e-23)
(1.01227 -0.0013832 3.87152e-22)
(1.01222 -0.000928062 -3.56829e-22)
(1.00903 -0.000311103 0)
(1.00906 -0.000324063 0)
(1.00915 -0.00032784 3.89758e-22)
(1.01816 0.00842188 -3.80439e-22)
(1.01862 0.00833527 8.98204e-23)
(1.04985 0.0228011 0)
(1.04992 0.0219739 0)
(1.01077 0.00168013 -4.71914e-24)
(1.01089 0.00173148 -1.83704e-22)
(1.01083 0.00162653 1.32927e-22)
(1.01953 0.00909802 -9.96118e-23)
(1.01971 0.00896249 -7.05714e-22)
(1.01977 0.00925245 5.0156e-23)
(1.03293 0.0113819 -1.58912e-23)
(1.03152 0.009809 1.16847e-21)
(1.03055 0.0120412 -7.43743e-22)
(1.01012 0.00142789 -1.08276e-24)
(1.01008 0.00144817 -7.47141e-22)
(1.02868 0.103029 -3.95374e-22)
(1.03131 0.106553 4.14882e-22)
(1.02654 0.106897 6.19773e-23)
(0.992618 -0.234134 2.3312e-21)
(0.97905 -0.204258 1.29662e-20)
(1.0301 0.00830923 1.00681e-21)
(1.02832 0.00729912 1.3134e-21)
(1.02805 0.00924862 -5.29151e-22)
(1.01913 0.00935591 -2.27226e-22)
(1.01893 0.00946545 1.11543e-23)
(1.00343 0.0217379 4.86989e-22)
(1.00483 0.0225514 2.32951e-21)
(1.00462 0.0208541 7.74122e-22)
(1.00891 -0.000296092 8.1061e-23)
(1.009 -0.000299939 -3.82029e-22)
(1.03819 0.0576769 -7.09093e-22)
(1.03946 0.0597926 8.38071e-22)
(1.03717 0.0601529 0)
(1.02291 0.00708958 9.70834e-22)
(1.02255 0.00710076 5.59107e-22)
(1.02265 0.00681709 -7.78518e-22)
(1.01131 0.0357486 6.28326e-23)
(1.00947 0.036385 0)
(1.01145 0.0375958 7.51963e-23)
(1.01471 0.000244075 9.2443e-22)
(1.01394 0.000167195 1.56749e-22)
(1.01138 0.0343441 1.9293e-22)
(0.912045 -0.170531 2.45072e-21)
(0.906741 -0.183407 5.70308e-22)
(1.01037 -0.00046908 -5.62132e-22)
(1.01028 -0.000444613 -4.21019e-22)
(1.07025 0.0396881 3.846e-23)
(1.07005 0.0387498 -3.4789e-21)
(1.07111 0.0391357 -9.41449e-24)
(1.02385 0.0180245 -1.07526e-21)
(1.02374 0.0187491 1.6067e-21)
(1.02324 0.0181723 9.15037e-22)
(1.01629 0.00462259 -2.56254e-22)
(1.01615 0.00548133 2.12967e-22)
(1.01727 0.00538547 -7.86824e-22)
(0.993768 -0.00567333 3.51305e-22)
(0.997428 -0.00478014 5.43105e-22)
(1.00666 0.000155076 -8.51806e-23)
(1.00631 0.000129684 9.74209e-24)
(1.01005 -0.000822451 1.00095e-21)
(1.00994 -0.000776935 1.24079e-22)
(1.03071 0.099273 7.30168e-22)
(1.02626 0.0996514 -3.59882e-22)
(1.01933 0.00924059 2.45058e-22)
(1.01928 0.00894882 2.40566e-23)
(0.991564 -0.013454 3.96942e-21)
(1.05167 0.0282384 6.17073e-22)
(1.05157 0.0273315 -1.66606e-22)
(1.05258 0.027754 2.95243e-21)
(0.956658 0.348073 -5.70316e-21)
(1.04609 0.0585179 -2.23078e-22)
(1.04525 0.0607358 2.32196e-22)
(1.04387 0.0585731 -5.29058e-22)
(1.08511 0.0588608 9.1174e-22)
(1.01802 0.00714544 6.63798e-22)
(1.01854 0.00708798 6.7121e-22)
(1.01814 0.0074285 7.59875e-22)
(1.03419 0.0134385 0)
(1.03522 0.0104471 -6.76623e-22)
(1.01157 0.00190639 1.57299e-22)
(1.01147 0.00179459 0)
(1.01145 0.00180405 -3.05569e-22)
(1.05062 0.013219 0)
(1.05003 0.0137249 -2.42016e-21)
(1.04989 0.0128442 -4.93831e-21)
(1.06234 0.0227344 -2.50899e-21)
(1.06176 0.0235306 -1.46566e-21)
(1.07075 0.0406881 1.61626e-21)
(1.06949 0.040354 1.69634e-21)
(1.05684 -0.00414055 -9.88688e-23)
(1.05615 -0.0137527 3.51397e-21)
(1.05129 -0.00954018 -2.09835e-22)
(1.06692 -0.0429611 -1.24535e-23)
(1.08744 -0.0392299 -1.29586e-23)
(1.0362 -0.0456869 5.76128e-22)
(1.01176 0.00347877 1.88994e-22)
(1.01184 0.00356133 0)
(1.01174 0.00349048 -3.58863e-22)
(1.00639 0.00635289 6.67265e-22)
(1.00631 0.00733654 -5.58697e-23)
(1.00542 0.00679886 1.66972e-23)
(1.0642 0.126389 1.85663e-21)
(1.05959 0.122823 0)
(1.0586 0.129191 -9.69569e-22)
(1.00208 0.0211909 -2.79166e-22)
(1.00229 0.0229373 -9.37084e-22)
(1.01179 0.00344294 1.71145e-22)
(1.01167 0.0033811 2.16756e-22)
(1.01086 0.00257129 2.15014e-22)
(1.01079 0.00247973 3.56188e-22)
(1.01118 0.00233858 -4.35294e-22)
(1.01112 0.002373 -2.83587e-22)
(1.01106 0.00225893 4.22685e-23)
(1.07523 0.0319374 1.69199e-21)
(1.07554 0.031586 8.12515e-21)
(1.07573 0.032061 1.66969e-21)
(1.09283 -0.0379674 0)
(1.04749 -0.0455855 0)
(0.775234 -0.104261 -1.7122e-21)
(0.794153 -0.102129 1.72377e-21)
(0.840734 -0.0875813 3.83906e-22)
(1.05459 0.00366385 2.68509e-21)
(1.06123 0.00217784 3.08082e-21)
(1.03192 0.00726798 1.08241e-21)
(1.04123 0.0253468 -4.79904e-21)
(1.04171 0.0246042 1.02998e-22)
(1.04213 0.0257451 -2.19567e-21)
(1.01349 -0.0480262 7.23439e-22)
(1.01811 -0.0519869 1.76496e-23)
(1.02125 -0.0435682 -2.69645e-22)
(1.01271 -0.00203073 -5.78412e-23)
(1.01257 -0.00193839 -2.18937e-23)
(1.01252 -0.00198889 -6.11974e-23)
(1.02267 0.0076813 -4.94318e-22)
(1.02306 0.00765962 -9.34936e-22)
(1.0403 0.025156 -3.36009e-21)
(1.01881 0.00482112 -3.3086e-23)
(1.01907 0.0048163 -1.10973e-21)
(1.019 0.00502653 -7.04772e-22)
(0.995491 0.0363677 3.46399e-24)
(1.00622 -6.26674e-05 -2.10935e-23)
(1.00744 -0.000127738 1.8032e-23)
(1.05057 -0.107375 -1.01856e-21)
(1.03499 -0.120319 -6.48969e-22)
(1.04872 -0.125822 -1.65787e-21)
(1.00929 -0.000344337 6.13477e-22)
(1.00926 -0.000354772 -1.00056e-22)
(1.00939 -0.000363908 1.2964e-21)
(0.936757 -0.0526446 -1.41323e-21)
(0.950982 -0.0531375 1.3466e-21)
(1.01507 0.000508739 -2.88762e-22)
(1.01517 0.000568289 3.49567e-23)
(1.01503 0.000556748 -1.37244e-22)
(1.0169 0.00958648 -1.77827e-22)
(1.01678 0.00931416 -1.70229e-22)
(1.01907 0.00710804 0)
(1.01915 0.00748459 -3.83465e-22)
(1.01972 0.00714272 2.52776e-22)
(1.0672 0.0218741 1.05496e-21)
(1.06763 0.0237358 3.84295e-21)
(1.06924 0.0222951 -2.65623e-21)
(0.949235 0.231115 -1.14939e-22)
(0.959499 0.238099 -4.34633e-22)
(0.948318 0.2451 -6.57121e-22)
(1.00178 0.0356544 -2.18874e-22)
(0.999977 0.0375397 3.31567e-22)
(1.05176 0.0102539 -1.30269e-21)
(1.04858 0.00410255 2.29581e-23)
(1.01912 0.0119144 2.11893e-22)
(1.01913 0.0115602 -2.9544e-22)
(1.0194 0.0118859 1.86597e-22)
(1.01036 0.00173714 1.41071e-21)
(1.01031 0.00177503 8.97053e-22)
(1.01855 0.00481674 1.36901e-21)
(1.01862 0.00461179 7.07463e-22)
(1.01968 0.00415341 0)
(1.021 0.00459403 0)
(1.01975 0.00515285 0)
(1.08223 -0.0294562 1.38476e-21)
(1.08869 -0.0124142 0)
(1.01048 0.00195951 -5.88831e-22)
(1.0105 0.00190678 3.11419e-23)
(1.01039 0.00186502 -1.72534e-22)
(1.01167 0.000650349 0)
(1.011 0.000509439 -3.10488e-23)
(1.01178 0.000627239 0)
(1.02508 -0.0411222 -5.79276e-23)
(1.02971 -0.0445262 4.34916e-22)
(1.02207 -0.04936 -1.29835e-21)
(1.01994 0.0116292 -6.50394e-23)
(1.02024 0.0118792 -1.61705e-22)
(1.02021 0.0114897 -5.22075e-22)
(1.01054 0.00186924 -1.90354e-22)
(1.01047 0.00178396 1.47533e-22)
(1.01059 0.00183058 -6.17375e-22)
(1.07817 0.00878584 2.87128e-21)
(1.07589 0.00693763 3.28152e-21)
(1.07531 0.00969903 8.67544e-23)
(1.01872 0.00388335 0)
(1.01971 0.00335704 0)
(1.01109 0.00240649 -6.75176e-24)
(1.01106 0.00243601 7.87957e-23)
(1.01099 0.00232936 7.9966e-23)
(1.01334 0.000488124 6.77338e-22)
(1.01362 0.000607664 4.08679e-22)
(1.01375 0.000423824 -2.43952e-22)
(1.00774 0.0360861 0)
(1.00817 0.0383107 -3.05027e-23)
(1.01284 0.000536268 3.01424e-22)
(1.01184 0.000480908 1.21295e-22)
(1.01185 0.000484079 1.76431e-22)
(1.0058 0.0360903 3.96102e-22)