/*--------------------------------*- C++ -*----------------------------------*\
| =========                 |                                                 |
| \\      /  F ield         | OpenFOAM: The Open Source CFD Toolbox           |
|  \\    /   O peration     | Version:  v2012                                 |
|   \\  /    A nd           | Website:  www.openfoam.com                      |
|    \\/     M anipulation  |                                                 |
\*---------------------------------------------------------------------------*/
FoamFile
{
    version     2.0;
    format      ascii;
    class       surfaceVectorField;
    location    "500";
    object      Uf;
}
// * * * * * * * * * * * * * * * * * * * * * * * * * * * * * * * * * * * * * //

dimensions      [0 1 -1 0 0 0 0];


internalField   nonuniform List<vector> 
27882
(
(0.994637 0.00897711 -4.02099e-22)
(0.993208 0.00813432 2.06262e-22)
(0.994731 0.00694797 -1.08154e-21)
(0.928334 -0.00461416 1.69002e-21)
(0.925872 -0.0152655 4.36924e-21)
(0.937663 -0.012379 8.10189e-22)
(0.999997 -2.37454e-05 -3.81443e-22)
(1.00032 -2.76998e-05 2.15223e-22)
(1.00062 -4.3064e-05 1.18098e-21)
(0.995182 0.0113997 0)
(0.996339 0.00976577 0)
(1.03107 0.0163745 7.45023e-22)
(1.03403 0.0161725 -2.86445e-23)
(1.03213 0.0189404 -1.46164e-21)
(1.01187 0.000392267 0)
(1.01289 0.00064647 0)
(1.0123 0.000471556 -2.78486e-22)
(1.01816 -0.00317505 4.44504e-22)
(1.01829 -0.00329017 4.65678e-22)
(1.01835 -0.00322843 2.19918e-23)
(1.02605 -0.00994813 -2.41307e-21)
(1.02619 -0.0101563 -9.21931e-22)
(1.026 -0.0101193 6.5173e-24)
(1.02834 0.0163378 1.15499e-21)
(1.02996 0.0140947 2.33558e-21)
(1.02613 0.0160812 8.3291e-22)
(1.0239 0.0153495 1.56905e-21)
(1.02553 0.0136326 1.60387e-21)
(0.936687 0.0240641 -1.83685e-22)
(0.939262 0.0136121 8.97933e-22)
(0.947496 0.0208583 -3.26494e-21)
(1.02322 -0.0934704 4.31549e-22)
(1.00688 -0.0657864 -8.13563e-22)
(1.02359 -0.0748326 1.70613e-21)
(0.955407 0.104002 -1.27943e-21)
(0.974636 0.102652 1.44692e-21)
(0.958201 0.114193 1.11242e-21)
(1.03138 -0.0112622 -1.92672e-21)
(1.03198 -0.011626 -1.11871e-22)
(1.03179 -0.0109192 -4.33441e-22)
(1.01772 -0.00299089 0)
(1.01795 -0.00309953 6.01429e-22)
(1.01782 -0.0031308 0)
(1.01536 -0.00144953 6.95678e-24)
(1.01524 -0.00139204 -3.10471e-22)
(1.0153 -0.00148486 -1.63269e-22)
(1.03264 -0.11571 6.01272e-22)
(1.02254 -0.112443 -8.86323e-22)
(1.01984 0.00296559 1.08199e-23)
(1.01953 0.00282197 -1.89276e-22)
(1.01752 -0.00291324 -4.99449e-22)
(1.01763 -0.00286886 0)
(1.02326 -0.0139271 -2.9575e-22)
(1.02363 -0.014588 2.72264e-22)
(1.02406 -0.0139125 -4.73686e-22)
(0.978515 0.055693 -2.84721e-22)
(0.983159 0.0527818 -2.48575e-21)
(1.00349 0.0388573 1.49416e-21)
(1.05325 -0.266663 -6.36794e-21)
(1.05864 -0.261381 -1.56549e-20)
(1.05123 -0.260518 1.42716e-20)
(1.01022 0.000264108 0)
(1.01146 0.00040363 0)
(1.00945 0.000565631 0)
(1.01003 0.00067761 2.79909e-22)
(1.01043 0.000848333 0)
(1.04874 -0.271185 -2.92228e-21)
(1.05581 -0.272345 -1.09582e-23)
(0.889625 -0.233697 -2.42835e-22)
(0.89968 -0.231945 1.33158e-21)
(0.895018 -0.243624 3.73193e-21)
(0.847518 0.279045 -1.58557e-21)
(0.848833 0.280243 -6.33396e-22)
(0.847318 0.282616 -3.17321e-21)
(0.926751 0.062516 2.00169e-21)
(0.927461 0.0520959 -3.94548e-21)
(0.917138 0.0609358 1.42029e-20)
(0.974917 -0.0928966 0)
(0.968708 -0.0943242 -2.49706e-21)
(0.971212 -0.0881707 2.33693e-22)
(0.90409 -0.0370507 -3.42992e-22)
(0.908081 -0.0515892 0)
(0.916169 -0.043351 0)
(0.819531 0.216223 -2.5892e-21)
(0.830504 0.138239 -1.51311e-20)
(0.791876 0.201709 -1.27793e-20)
(0.845712 0.276826 -1.03968e-21)
(0.844059 0.280815 3.875e-21)
(1.02594 -0.00982339 5.81622e-23)
(1.02604 -0.00985153 -1.46536e-22)
(1.00179 -0.304402 0)
(1.01115 -0.30855 0)
(1.00361 -0.31631 1.71846e-20)
(1.03708 0.0160479 -1.68422e-21)
(1.04001 0.0164356 -2.05733e-21)
(1.0382 0.019079 -2.86934e-22)
(0.904743 -0.0197705 -3.76326e-22)
(0.896552 -0.0234354 8.20469e-21)
(0.954811 0.096023 -5.45053e-22)
(0.938466 0.105818 -6.12645e-22)
(1.03556 0.0137687 7.03762e-22)
(0.789958 -0.306142 -2.18048e-20)
(0.763775 -0.292501 1.07886e-20)
(0.785976 -0.325433 8.96586e-21)
(1.02439 0.00784131 3.03586e-23)
(1.02405 0.00782507 2.9267e-23)
(1.02407 0.00758789 1.5156e-22)
(0.936821 0.19009 -2.45582e-21)
(0.926931 0.165172 9.0389e-22)
(0.938628 0.170237 3.82558e-21)
(1.01868 0.0162304 1.54631e-21)
(1.01751 0.0186525 1.90815e-21)
(1.02054 0.0178122 2.72959e-23)
(0.976709 0.16854 1.71677e-21)
(0.962659 0.178063 -4.03065e-21)
(0.963928 0.160993 -2.47514e-21)
(1.00727 -0.0118931 2.55356e-22)
(1.00794 -0.0117984 -5.68427e-23)
(1.00801 -0.0125792 -6.70123e-22)
(1.01344 -0.000596838 9.75622e-24)
(1.01338 -0.000587567 -3.18691e-23)
(1.01372 -0.000643362 1.69983e-22)
(0.903484 0.139233 1.87029e-20)
(0.939051 0.0589774 -7.35164e-21)
(0.903563 0.069755 1.21598e-20)
(1.01704 0.0148308 -1.74434e-21)
(1.01916 0.0144239 -2.73637e-21)
(0.96225 -0.0817251 5.21373e-22)
(0.964033 -0.0758951 -3.52117e-21)
(0.957562 -0.077816 -4.39071e-22)
(0.384501 -0.212496 -1.27295e-20)
(0.298216 -0.181507 -2.02191e-20)
(0.371047 -0.226473 7.65488e-20)
(1.00086 0.0114472 7.69488e-22)
(0.999364 0.0115112 3.74139e-22)
(1.00028 0.00974044 7.20073e-22)
(0.934703 0.035375 -1.50356e-21)
(0.924959 0.0288732 -3.17531e-21)
(0.753732 -0.322468 2.33017e-22)
(0.76902 -0.32565 -2.01188e-21)
(0.761959 -0.310004 -3.84625e-21)
(1.00223 0.0132507 0)
(1.0023 0.0112381 -4.59009e-22)
(1.01009 -0.007722 -1.43724e-22)
(1.01045 -0.00652462 -4.14637e-22)
(1.00924 -0.00688555 1.89835e-22)
(1.0323 -0.190185 -7.39459e-21)
(1.03817 -0.193703 0)
(1.03225 -0.196987 1.01448e-20)
(0.994464 0.0997216 -5.27449e-22)
(0.991391 0.0929623 -1.45958e-21)
(1.00486 0.0018799 -1.69064e-22)
(1.00493 0.00176139 -1.0665e-21)
(1.00504 0.00172243 -5.84734e-22)
(1.02299 -0.0131927 1.49601e-22)
(1.02246 -0.0137274 -7.32161e-22)
(0.965835 -0.0707069 -2.51338e-21)
(0.962015 -0.0665413 -4.59662e-22)
(0.967844 -0.065301 -5.68028e-23)
(1.00479 0.00200039 2.57032e-22)
(1.00472 0.00205269 8.95851e-22)
(1.01272 -0.000487748 -1.32716e-24)
(1.01321 -0.000610214 -5.49314e-23)
(1.01277 -0.000441304 -6.34353e-23)
(1.00657 -0.0119325 3.45121e-23)
(1.00666 -0.0111845 4.71616e-22)
(0.86406 -0.313347 2.57046e-22)
(0.864299 -0.309546 2.0391e-21)
(0.69754 0.336403 8.53653e-22)
(0.666405 0.290107 -4.61953e-21)
(0.706 0.329492 3.2002e-21)
(1.01178 -0.000393716 -2.80545e-24)
(1.01265 -0.000530868 -1.02049e-25)
(1.05347 -0.34255 1.21979e-20)
(1.06031 -0.336547 1.05835e-20)
(1.04922 -0.341855 2.2758e-20)
(1.00818 -0.000647925 -3.24324e-22)
(1.00745 -0.000496166 2.11412e-22)
(1.00762 -0.000509573 -1.46288e-24)
(1.01221 0.00692052 -3.45154e-22)
(1.0119 0.00667085 0)
(1.01204 0.00707116 -1.04244e-22)
(0.937447 0.0631857 -5.25575e-21)
(0.929269 0.07392 -5.63998e-22)
(1.01977 0.00326714 -2.54882e-23)
(1.02018 0.00319744 1.90064e-24)
(0.739208 -0.337522 3.58206e-22)
(0.734728 -0.323937 -2.01815e-21)
(0.869483 -0.254248 1.24636e-21)
(0.874208 -0.24543 1.65557e-21)
(0.881302 -0.25472 -6.58368e-22)
(1.01683 -0.00321308 1.34427e-22)
(1.01699 -0.00331202 -2.81742e-22)
(1.0169 -0.00330602 1.19234e-22)
(1.03206 -0.0136737 -2.18362e-22)
(1.03165 -0.0130476 -9.61705e-22)
(1.03082 -0.0137843 -2.99717e-22)
(1.10521 -0.024237 0)
(1.10455 -0.0143262 -1.1352e-21)
(1.09578 -0.0205685 4.30447e-22)
(0.840961 0.233678 -1.79713e-20)
(0.805749 0.280009 -1.5918e-21)
(0.918448 -0.337608 -5.2802e-21)
(0.931788 -0.329272 2.59491e-21)
(0.932981 -0.350547 1.11645e-20)
(1.03144 -0.128612 -1.33338e-22)
(1.02635 -0.134266 2.48802e-22)
(1.02554 -0.132465 7.36975e-22)
(1.02657 0.0184624 2.03707e-21)
(0.988683 0.169593 -9.2964e-21)
(0.990742 0.154664 -3.66585e-21)
(1.01823 -0.131311 -2.3355e-21)
(1.02311 -0.132725 -1.45722e-20)
(1.01898 -0.137038 2.81341e-21)
(0.817792 -0.315632 -2.22277e-20)
(0.8046 -0.27257 -7.44215e-21)
(1.03668 -0.123324 4.26675e-22)
(1.03553 -0.123476 -2.91655e-22)
(1.06052 -0.00981585 -1.31287e-22)
(1.06457 -0.0111177 5.9193e-22)
(1.06361 -0.00636917 1.12321e-21)
(1.01228 -0.0147618 9.8091e-22)
(1.01128 -0.0143933 -7.69967e-22)
(1.01169 -0.0155845 4.92103e-22)
(1.04373 -0.171593 2.22469e-21)
(1.03994 -0.175854 -2.19973e-20)
(1.03773 -0.170322 -1.37551e-20)
(1.04606 -0.021712 6.11975e-21)
(1.04598 -0.0200561 8.42966e-23)
(1.03348 -0.0137229 9.79417e-22)
(1.03256 -0.0146959 -1.67403e-22)
(0.862643 -0.312215 3.13838e-22)
(0.863042 -0.315408 -2.50166e-21)
(1.04923 -0.170909 1.89374e-21)
(1.04557 -0.165695 1.40812e-20)
(0.547168 -0.397058 -2.27765e-21)
(0.504523 -0.40589 1.6382e-21)
(0.489232 -0.403914 1.49304e-21)
(1.01219 -0.000439554 -4.35654e-23)
(1.01261 -0.000396869 -1.91122e-22)
(1.01342 -0.000408477 -1.89418e-22)
(1.03657 -0.106581 0)
(1.04071 -0.107631 -1.18993e-20)
(1.03713 -0.110939 5.93037e-21)
(0.454608 -0.233824 -5.09816e-20)
(0.384646 -0.193561 -8.21122e-20)
(1.01677 -0.00314485 -8.9396e-23)
(1.0167 -0.00311815 0)
(1.01011 -0.00223996 2.52941e-23)
(1.01025 -0.00237177 1.57412e-22)
(1.01021 -0.00221598 -1.03459e-22)
(1.02228 0.00577316 -8.10286e-23)
(1.02196 0.00551389 5.89108e-23)
(1.02245 0.0055581 1.61724e-22)
(1.00005 -0.0672418 -3.14784e-21)
(1.00331 -0.06965 -1.06577e-21)
(0.998788 -0.0710382 -8.14783e-21)
(1.01753 -0.143382 1.3209e-21)
(1.02089 -0.137367 1.02429e-21)
(1.01258 -0.139704 4.33099e-21)
(1.01612 -0.00286599 1.45534e-22)
(1.01607 -0.00282764 -2.58433e-22)
(1.01596 -0.00283901 2.06224e-22)
(0.876027 0.202398 -4.65809e-21)
(0.905633 0.182855 2.44138e-20)
(1.0262 -0.0255449 1.80003e-21)
(1.02773 -0.0253627 0)
(1.02658 -0.0237202 -1.36995e-21)
(1.01234 0.00675518 8.56242e-24)
(1.01254 0.00715344 -2.43165e-22)
(1.00999 -0.00225443 -1.51761e-22)
(1.00996 -0.00210161 1.14086e-22)
(1.04515 -0.35022 -9.78767e-21)
(1.04978 -0.339736 -1.00483e-20)
(0.962819 0.067375 7.63614e-21)
(0.982355 0.0538353 -3.34728e-22)
(0.966708 -0.0846424 2.53718e-21)
(0.960698 -0.0868912 -7.25411e-22)
(0.581018 -0.392735 2.91532e-21)
(0.595573 -0.389323 8.21998e-22)
(0.92566 -0.29476 -2.02706e-21)
(0.921878 -0.281691 -3.78202e-21)
(0.937926 -0.287656 -2.17478e-22)
(0.9649 -0.131514 1.80794e-21)
(0.966316 -0.142784 -3.66853e-22)
(0.977848 -0.135061 1.15804e-21)
(1.01562 -0.00143202 -6.595e-22)
(1.01549 -0.00137536 -6.38226e-22)
(1.01556 -0.00133042 -6.38592e-22)
(0.721518 0.367734 -1.25402e-21)
(0.686365 0.332909 -1.63701e-21)
(1.00931 -0.0222264 1.51466e-22)
(1.01122 -0.0226532 7.20325e-22)
(1.01077 -0.0205428 0)
(1.00303 -0.000366359 -4.84604e-23)
(1.00315 -0.000374723 3.76504e-22)
(1.00231 -0.00025229 1.32761e-22)
(1.02536 -0.0275229 9.19333e-22)
(1.02446 -0.0255453 -1.24528e-21)
(0.724521 0.0533499 -2.42117e-21)
(0.681517 0.0474143 -8.44576e-23)
(0.709372 0.0633225 1.58691e-21)
(0.996572 -0.0647798 3.95371e-21)
(1.00053 -0.0631617 2.33808e-21)
(1.0044 0.00340834 6.01221e-22)
(1.0044 0.00320849 7.13818e-22)
(1.00442 0.00317071 -3.17145e-22)
(0.63059 0.0109903 -8.36716e-23)
(0.593286 0.00686215 3.11409e-21)
(0.609505 -0.0101873 -8.50189e-22)
(1.01508 -0.0146334 -1.2044e-22)
(1.01451 -0.0154683 -1.08469e-22)
(1.01586 -0.0157205 5.83272e-22)
(1.00462 -0.000521474 4.50289e-22)
(1.00451 -0.000481498 1.86457e-22)
(1.00521 -0.000615637 0)
(0.907015 -0.331408 -2.66145e-21)
(0.908222 -0.347809 2.22616e-22)
(1.01338 -0.0151963 -2.03764e-22)
(1.0128 -0.0140729 1.09122e-21)
(1.00409 -0.00288166 0)
(1.00401 -0.00292593 0)
(1.00399 -0.00268187 0)
(-0.0400258 0.0778249 -1.37306e-21)
(-0.0277382 0.0605332 7.10103e-21)
(-0.029329 0.0523597 -3.59914e-22)
(1.01008 -0.00888668 1.51675e-21)
(1.01108 -0.00833585 -1.85756e-21)
(1.0083 -0.0102024 0)
(1.00782 -0.0103796 0)
(1.00772 -0.00972855 0)
(1.0042 -0.003084 -1.29979e-21)
(1.00414 -0.00281649 -7.46868e-22)
(0.928574 -0.138855 -7.28196e-22)
(0.93629 -0.134558 -2.1115e-21)
(0.926436 -0.130966 -1.33263e-21)
(-0.0838036 0.218485 0)
(-0.0815181 0.215883 -1.29523e-20)
(0.970103 -0.0741084 5.0055e-22)
(1.00952 -0.000470838 -2.88734e-22)
(1.00851 -0.000270101 7.41774e-23)
(1.01009 -0.000594989 1.75685e-23)
(1.02108 -0.0104025 3.64426e-22)
(1.02139 -0.00946096 7.26249e-22)
(1.02032 -0.00958039 -1.015e-22)
(0.882008 -0.398421 1.22474e-20)
(0.906929 -0.396574 -2.412e-20)
(0.914468 -0.400177 8.89229e-21)
(1.02463 0.00817594 0)
(1.02473 0.00794957 9.50758e-23)
(1.00603 -0.000538326 2.00655e-22)
(1.00613 -0.000564151 -1.04825e-22)
(1.00666 -0.000621363 3.69884e-23)
(0.814592 -0.365441 -5.32163e-21)
(0.825094 -0.381241 -2.30926e-21)
(0.800429 -0.379072 -1.43262e-20)
(1.01407 -0.0128967 -9.3325e-22)
(1.01457 -0.0138223 -9.72611e-22)
(1.01346 -0.0134366 -3.86352e-23)
(0.868878 -0.0200169 3.23414e-21)
(0.857607 -0.0173459 1.19713e-20)
(0.867734 -0.00879389 5.05945e-21)
(1.01252 -0.130563 9.71738e-21)
(1.01613 -0.126273 8.06953e-21)
(1.00723 -0.0211687 5.6543e-22)
(1.00749 -0.0235371 4.73312e-22)
(0.971045 0.162688 0)
(0.964501 0.169297 5.53451e-22)
(0.960515 0.157119 0)
(1.02009 -0.0618395 8.30913e-22)
(1.02298 -0.0630039 7.49034e-22)
(1.01975 -0.065121 4.30488e-21)
(0.930244 -0.313342 4.49268e-21)
(0.913922 -0.303914 0)
(-0.0491298 0.094204 -8.41626e-21)
(-0.0499678 0.102527 2.05639e-21)
(1.04566 -0.0793378 0)
(1.04903 -0.0793545 -5.97882e-21)
(1.04695 -0.0828886 -8.96242e-21)
(1.03631 -0.3564 -1.06753e-20)
(1.03013 -0.352806 8.85319e-21)
(0.943162 -0.131571 2.02206e-21)
(0.942058 -0.124566 -5.9519e-22)
(0.950015 -0.128024 -1.1972e-21)
(0.933126 0.00551553 -3.24068e-21)
(0.945545 0.00552081 3.80924e-21)
(0.545926 -0.213314 1.20252e-23)
(0.553866 -0.192264 9.20921e-22)
(0.588488 -0.192387 0)
(-0.0800827 0.225965 1.76187e-21)
(-0.0768775 0.217248 -9.23461e-21)
(-0.0719632 0.227238 2.82437e-21)
(-0.0236902 0.179855 -9.6266e-21)
(-0.0358112 0.180477 1.68174e-21)
(-0.0258648 0.162372 -1.0243e-21)
(1.02591 -0.0024077 -1.78403e-21)
(1.02626 -0.00242662 -1.47775e-21)
(1.02613 -0.00269809 -8.77255e-22)
(1.04208 0.0147205 6.03325e-22)
(1.0417 0.0114558 1.82534e-21)
(1.04509 0.0126879 8.49792e-22)
(0.943268 0.21225 -2.13116e-21)
(0.939758 0.207445 1.89877e-22)
(0.815778 0.295696 -3.7722e-21)
(0.82311 0.302371 -3.93484e-21)
(1.03196 -0.105125 0)
(1.03549 -0.102089 -4.59061e-21)
(0.922552 -0.142718 2.7822e-21)
(0.932229 -0.145025 3.64849e-21)
(1.06455 -0.0211591 -1.11733e-21)
(1.06973 -0.0238451 4.02619e-22)
(1.0644 -0.0262824 2.34601e-22)
(0.922107 0.00615147 5.17378e-22)
(0.3922 -0.381656 5.50429e-21)
(0.405745 -0.357798 1.04735e-20)
(0.406735 -0.363147 -2.57282e-21)
(1.00409 -0.00389208 -6.22772e-24)
(1.00409 -0.00409686 -1.26878e-21)
(1.00427 -0.00416288 -1.14518e-21)
(0.461954 -0.0668235 2.25862e-21)
(0.392564 -0.0238823 -1.42782e-21)
(0.429349 -0.0212595 -8.31351e-21)
(1.02568 -0.363631 3.50908e-21)
(1.03472 -0.355401 -1.73831e-20)
(1.03197 -0.0116338 3.33757e-20)
(1.06457 -0.076053 9.84665e-21)
(1.03675 -0.0773269 2.07869e-21)
(1.00421 0.00279399 5.68826e-22)
(1.00416 0.00314177 -2.17963e-22)
(1.00402 0.0030467 -2.59096e-22)
(1.00391 -0.00360703 5.88659e-22)
(1.00408 -0.00368462 1.59013e-21)
(0.405127 -0.408954 -3.50359e-21)
(0.399664 -0.398556 3.61308e-21)
(0.41602 -0.399 -6.23892e-21)
(-0.0830168 0.222911 -5.04023e-21)
(-0.0819389 0.209264 0)
(0.991078 -0.0353306 -6.57108e-22)
(0.983411 -0.00808408 1.18492e-22)
(0.972817 -0.000117768 7.04047e-22)
(0.0610768 0.142473 -1.65853e-20)
(0.0598508 0.161509 7.14528e-21)
(0.0365947 0.155841 -1.064e-20)
(0.999807 1.30241e-05 -8.29215e-22)
(0.999591 2.36406e-05 -1.09871e-21)
(0.96372 -0.0963924 -1.06619e-21)
(0.959248 -0.0925939 -5.59499e-22)
(0.957505 -0.0992032 1.87372e-21)
(0.804613 0.0483707 4.99135e-22)
(0.813273 0.0474678 1.47271e-22)
(0.918523 -0.269094 3.8411e-21)
(0.905901 -0.276373 8.47443e-21)
(1.01637 -0.00388299 -4.24825e-22)
(1.0166 -0.00383812 0)
(1.01662 -0.00398743 0)
(1.01668 -0.00304947 -1.05503e-23)
(1.01684 -0.00315111 1.67398e-22)
(0.923733 -0.22402 2.43534e-21)
(0.928787 -0.231132 -2.52292e-21)
(0.917863 -0.231935 2.26783e-21)
(0.992918 -0.300779 -6.62591e-21)
(1.00088 -0.294646 1.96397e-20)
(1.03444 -0.00520608 -1.43241e-21)
(1.03411 -0.00452666 -3.46069e-21)
(1.01203 0.00516529 3.57121e-22)
(1.01188 0.0053188 1.01996e-22)
(1.01171 0.00502383 -3.44078e-22)
(1.01235 -0.0120242 -4.30869e-22)
(1.01303 -0.0114253 -4.03796e-22)
(1.01205 -0.0108963 1.00731e-21)
(1.03141 -0.184451 1.60824e-20)
(1.02622 -0.187467 1.13399e-21)
(1.03784 -0.00819925 -1.05237e-21)
(1.03847 -0.00884807 0)
(0.464972 -0.258363 2.67143e-21)
(0.474492 -0.237953 -1.35735e-21)
(0.447809 -0.237637 -2.76498e-22)
(1.01898 -0.00152827 -4.71811e-22)
(1.019 -0.00142729 5.20112e-22)
(1.01917 -0.00154872 -1.32384e-21)
(0.917658 -0.0615191 0)
(0.907016 -0.0605873 1.10377e-22)
(0.998074 -0.0247845 5.33578e-22)
(1.00064 -0.0262228 -7.07393e-22)
(0.997738 -0.0282062 -1.23649e-21)
(0.523872 -0.263004 -5.36792e-22)
(0.517614 -0.242063 0)
(1.13915 -0.0836596 -7.41092e-21)
(1.11907 -0.0789882 -1.89294e-21)
(1.14755 -0.142376 -8.16919e-21)
(-0.0197669 0.192219 -4.41899e-20)
(-0.0084734 0.175949 4.27064e-20)
(1.01895 -0.00165266 -5.09792e-22)
(1.01879 -0.00151479 -5.10789e-22)
(0.968461 0.0270431 0)
(0.962471 0.0233911 1.0026e-21)
(0.963996 0.0320445 3.19782e-21)
(1.0309 -0.287344 -3.93865e-21)
(1.01833 -0.305464 -6.47962e-22)
(1.04903 -0.311296 -5.98488e-22)
(1.01376 0.00408046 4.39364e-22)
(1.01384 0.0038844 -2.55899e-22)
(1.01407 0.00414001 -7.71236e-23)
(1.03666 -0.0085724 1.99597e-21)
(1.03705 -0.00806196 -3.90227e-21)
(1.03626 -0.00786742 -7.35314e-21)
(0.847324 -0.0142819 -3.85124e-21)
(0.835629 -0.0104115 -5.97763e-21)
(0.84563 -0.00173164 -7.19025e-21)
(1.0255 -0.00245803 -2.1497e-21)
(1.0256 -0.00219272 1.19601e-21)
(0.58915 -0.282278 -1.41211e-20)
(0.533951 -0.284029 -3.44134e-20)
(1.00605 0.000589514 2.89953e-22)
(1.00683 0.000765335 2.86587e-22)
(1.00614 0.000554964 -2.64912e-23)
(1.00578 0.00513043 9.74262e-22)
(1.00544 0.00444851 -2.10994e-22)
(1.00629 0.00454936 6.47434e-24)
(0.915184 -0.145267 -8.41794e-22)
(0.918164 -0.152749 0)
(1.18241 -0.110074 0)
(1.16314 -0.0961548 0)
(1.16094 -0.11525 0)
(1.01514 -0.00120887 0)
(1.01503 -0.00115375 0)
(1.0151 -0.00111977 3.23253e-22)
(1.01574 -0.00147874 8.78607e-24)
(1.01568 -0.00151468 5.91056e-22)
(0.537934 -0.113278 2.98766e-20)
(0.505157 -0.121784 0)
(1.01197 -0.00549746 8.43814e-22)
(1.0121 -0.00555889 1.75689e-22)
(1.01207 -0.00552346 5.19642e-22)
(1.04325 0.0178507 2.99635e-22)
(-0.0756178 0.221878 -4.78642e-20)
(-0.0681416 0.215025 -2.03502e-20)
(1.00397 0.000295077 3.65756e-22)
(1.00349 0.000228878 3.84076e-22)
(1.00449 0.000432083 4.84642e-22)
(1.02771 -0.105958 -3.61075e-21)
(1.02311 -0.106882 1.13928e-21)
(1.02699 -0.110228 -2.99009e-21)
(1.00524 0.00577042 6.14487e-22)
(1.0064 0.00606201 1.84126e-22)
(1.01907 -0.0141999 9.61252e-22)
(1.01827 -0.0135241 1.29843e-22)
(1.01903 -0.0132683 3.1922e-22)
(1.0216 -0.0121168 1.5803e-22)
(1.02215 -0.012406 0)
(1.02166 -0.0127418 -1.91297e-22)
(1.02263 0.00603583 -7.0803e-23)
(1.02215 0.00599208 -1.11085e-22)
(1.01535 -0.000551454 0)
(1.01501 -0.000450719 -2.40649e-22)
(1.01515 -0.00045025 0)
(1.02861 -0.102172 8.03788e-21)
(1.0137 0.000783667 -1.08119e-22)
(1.01337 0.000745184 1.46897e-22)
(0.899751 0.078863 1.72076e-21)
(0.899294 0.100747 1.12024e-21)
(0.892483 0.0649115 -2.89548e-21)
(1.04152 -0.266337 1.15486e-21)
(1.01521 -0.268704 5.59926e-21)
(1.00203 -0.000147665 -6.08209e-22)
(1.00226 -0.00038831 -1.70169e-22)
(1.00238 4.93407e-05 0)
(1.01689 -0.0608206 0)
(1.01984 -0.0585724 0)
(0.907161 -0.149231 -2.15179e-22)
(0.91045 -0.138087 -2.19712e-21)
(1.20218 -0.123854 -3.34109e-21)
(1.20101 -0.10024 0)
(0.814561 -0.0959965 -6.50037e-21)
(0.812054 -0.075162 1.95134e-23)
(0.82149 -0.0923045 -3.97024e-21)
(1.10421 -0.0336517 -1.11791e-21)
(1.11519 -0.0289438 0)
(1.06874 -0.166258 -1.95936e-20)
(1.06451 -0.169639 -3.49142e-21)
(1.07036 -0.171913 4.55975e-21)
(0.39074 -0.395102 -3.41129e-21)
(0.384332 -0.401949 -1.16007e-20)
(1.01183 -0.00543783 -1.87775e-22)
(1.01189 -0.0054481 2.80372e-22)
(0.87927 -0.236828 -1.518e-21)
(0.884603 -0.224983 -1.51461e-21)
(1.042 -0.0796646 0)
(1.04381 -0.0762062 5.83669e-21)
(0.915142 -0.256143 2.37584e-21)
(0.93223 -0.261606 -1.5924e-21)
(1.00515 -0.000373856 -3.48708e-24)
(1.00609 -0.000490514 0)
(1.01357 -0.00149473 -1.05866e-23)
(1.01345 -0.00142536 4.17457e-23)
(1.01351 -0.00152829 -5.09576e-23)
(1.00183 0.000158246 1.96203e-23)
(1.00169 -0.000415896 -5.72349e-22)
(1.09388 0.0406187 0)
(1.09381 0.051235 0)
(1.10359 0.0445652 -8.9855e-22)
(0.236996 -0.152921 -3.5644e-20)
(0.17728 -0.118436 2.32763e-20)
(0.225573 -0.163137 -1.73179e-20)
(0.823772 -0.00681502 1.29356e-21)
(0.81107 -0.00237941 -3.01752e-21)
(0.82158 0.00715504 -1.08722e-20)
(1.02468 -0.00802928 0)
(1.02445 -0.00815271 4.97834e-22)
(1.0244 -0.00782953 4.93219e-22)
(1.01587 -0.00153143 -3.41321e-22)
(1.01593 -0.00164619 4.92354e-22)
(1.01603 -0.00159335 -4.40099e-22)
(1.08518 0.0376183 -1.1012e-21)
(1.09374 0.0318875 -6.50518e-22)
(0.879143 -0.0221777 -4.96437e-21)
(0.890527 -0.0245557 -8.91158e-22)
(0.889134 -0.0146295 -4.32263e-21)
(1.00074 0.00013791 -5.18075e-23)
(1.00134 0.000222729 1.09154e-22)
(1.00101 0.000178455 3.57597e-23)
(0.509245 -0.228224 -6.36881e-22)
(0.53926 -0.235036 1.10891e-23)
(0.824573 -0.109703 -9.01393e-22)
(0.822192 -0.121155 0)
(0.834798 -0.11731 -1.13509e-21)
(1.01368 -0.0014162 -1.08427e-22)
(1.01361 -0.00146302 1.42731e-23)
(1.01356 -0.00135339 -1.25554e-23)
(1.00824 -0.00249765 7.80376e-22)
(1.0083 -0.00264063 -2.74258e-24)
(1.00812 -0.00256005 4.34591e-22)
(1.00368 0.00148527 -7.96392e-22)
(1.00345 0.00207404 -1.99265e-21)
(1.00391 0.00178552 8.28179e-23)
(1.01619 -0.00288098 1.90165e-24)
(1.01628 -0.00286987 1.15941e-22)
(0.0951823 0.130735 0)
(0.062158 0.119114 -5.62088e-20)
(1.00947 -0.0110139 -9.25545e-22)
(1.01015 -0.0113656 -4.08617e-22)
(1.00986 -0.0106373 -3.66423e-22)
(0.921079 0.00239171 1.4709e-22)
(0.916956 -0.012825 -1.39232e-21)
(0.906463 0.000815852 1.70892e-21)
(1.0016 0.000516352 6.01736e-22)
(1.00204 0.000673657 5.97834e-22)
(1.00952 0.000212991 -2.28526e-22)
(1.01098 0.000276128 1.04425e-23)
(1.00913 0.000176407 2.99666e-22)
(0.775853 -0.025721 3.89967e-21)
(0.791557 -0.0259949 7.85504e-21)
(0.783051 -0.0384444 -4.5068e-21)
(1.00437 0.00257969 5.52407e-23)
(1.00451 0.00240684 -6.25922e-22)
(1.00442 0.00268596 -1.84245e-21)
(0.857293 -0.256764 1.21209e-21)
(0.865335 -0.266433 3.20184e-21)
(1.01586 -0.000617364 2.56536e-22)
(1.01573 -0.000532773 5.01473e-22)
(1.01577 -0.000614323 -5.44836e-23)
(0.846439 0.165708 1.12929e-21)
(0.82436 0.237803 3.57043e-20)
(1.01305 -0.022706 -1.87745e-22)
(1.0121 -0.024691 5.4097e-22)
(1.00406 -0.00311223 8.89176e-23)
(1.00389 -0.0028645 6.67129e-22)
(1.01378 -0.00148988 2.7746e-23)
(1.01373 -0.00138981 9.96895e-24)
(0.972359 0.0217401 -1.26534e-21)
(0.974723 0.0287489 0)
(0.813075 0.345078 1.43356e-21)
(0.808542 0.336168 5.90954e-22)
(0.811255 0.334861 1.12797e-21)
(0.813811 0.354267 0)
(0.816998 0.354248 -9.29002e-23)
(1.00406 -0.00325319 -4.06245e-22)
(1.00419 -0.00332461 3.74395e-22)
(0.870321 -0.0308644 -5.41119e-21)
(1.02655 -0.00260363 1.07419e-22)
(1.02646 -0.00227918 2.54607e-21)
(1.01821 -0.00217073 3.04472e-22)
(1.0184 -0.00210336 -2.47895e-23)
(1.01832 -0.00201062 -4.49126e-23)
(0.572033 0.0482433 0)
(0.581108 0.0239599 0)
(0.601702 0.0451925 0)
(0.870022 -0.327433 7.77442e-21)
(0.871194 -0.315798 3.33616e-21)
(0.860274 -0.31917 -8.45475e-21)
(1.01802 -0.00226427 0)
(1.01807 -0.00231042 0)
(1.01135 -0.00530307 -8.50567e-22)
(1.01151 -0.00534144 1.94048e-22)
(1.01146 -0.00536377 -6.34481e-22)
(1.02475 0.00775376 3.16157e-22)
(1.02441 0.00728552 -5.09167e-22)
(1.02505 0.00712078 -1.23146e-22)
(1.02108 -0.01177 -3.50342e-22)
(1.02151 -0.011602 1.5091e-22)
(1.0232 -0.0161673 -7.33168e-23)
(1.02401 -0.0163278 1.45941e-22)
(1.02348 -0.0171526 -3.27619e-22)
(1.01404 0.000815264 -1.01382e-22)
(1.01433 0.000949347 5.16033e-24)
(1.01986 -0.0149177 6.34562e-22)
(1.01897 -0.0152547 -4.88656e-22)
(1.03094 -0.0109197 1.02929e-21)
(1.03105 -0.0115814 -2.8683e-21)
(1.00818 -0.00235787 3.59803e-22)
(1.00835 -0.00243559 3.11873e-22)
(1.00795 -0.000321541 6.52174e-22)
(1.00961 -0.000403769 7.5712e-22)
(1.00848 -0.000340766 4.29048e-22)
(1.01625 -0.00142921 -5.21549e-23)
(1.01615 -0.00146755 5.93276e-22)
(1.01612 -0.00133867 8.32844e-22)
(1.0153 -0.369131 1.4443e-20)
(1.01485 -0.369972 0)
(1.00199 -0.375802 -6.90655e-21)
(1.01802 -0.0030237 1.56368e-22)
(1.01118 -0.0052671 -1.24657e-22)
(1.01126 -0.00521745 2.02296e-22)
(1.01757 0.00203725 8.41459e-23)
(1.0174 0.00212447 1.19452e-22)
(1.01735 0.0019204 5.71752e-23)
(0.890246 -0.0340235 -2.52999e-21)
(0.899115 -0.0267112 2.45548e-21)
(1.00995 -0.0023425 -4.47869e-22)
(1.0099 -0.0024002 -3.9831e-22)
(1.01008 -0.00245442 3.03168e-23)
(1.00982 -0.00222686 0)
(1.00053 0.000111553 -1.15271e-21)
(1.00026 4.43771e-05 0)
(1.03311 -0.00631725 -3.37345e-21)
(1.03369 -0.00643382 -3.24449e-21)
(1.0334 -0.00687078 2.83485e-22)
(1.00486 0.00176596 -4.00029e-22)
(1.005 0.00167525 -6.32269e-23)
(1.00272 0.00041554 -1.3136e-21)
(1.00249 0.000352762 -3.94955e-22)
(1.00312 0.000476194 1.19409e-22)
(1.00223 0.00023983 4.42188e-24)
(1.00193 0.000179872 1.77822e-22)
(1.00268 0.000305054 7.05573e-22)
(1.00301 0.000611997 1.17893e-21)
(1.00256 2.14143e-05 -1.46196e-21)
(1.00344 -0.000197723 5.67878e-22)
(0.816041 -0.115978 -2.82643e-22)
(0.80923 -0.0974541 -3.65318e-21)
(1.01192 -0.000335106 -8.18561e-23)
(1.01 -0.000285515 1.1874e-22)
(1.00895 0.000527393 0)
(1.00828 0.000386231 -4.23337e-22)
(-0.0241998 0.0311658 0)
(-0.0281897 0.0390577 -1.4662e-20)
(-0.0138464 0.010923 -6.61397e-21)
(1.03662 -0.0180652 -3.07661e-21)
(1.03735 -0.0175726 -7.34397e-22)
(1.03637 -0.0172589 -1.24678e-21)
(1.00176 -9.29532e-05 -8.30627e-22)
(1.00202 -0.000109453 -7.93652e-22)
(1.00134 -5.50074e-05 5.02572e-22)
(1.00157 -9.12245e-05 6.22066e-22)
(1.00219 -0.000113591 -1.02502e-21)
(0.833854 -0.348158 3.89933e-22)
(0.846683 -0.348603 9.25884e-21)
(0.839981 -0.356401 -1.40733e-20)
(0.991435 0.0624528 -4.17014e-22)
(0.984317 0.0569123 5.47981e-22)
(0.992874 0.0532355 -1.47209e-24)
(1.01212 0.0050534 1.15569e-22)
(1.01222 0.0053299 6.64982e-23)
(1.03445 -0.0102065 4.1002e-22)
(1.03213 -0.0098629 -6.57744e-23)
(1.03291 -0.0121043 -1.28467e-22)
(0.949618 0.0721062 2.2016e-21)
(0.944135 0.0776744 5.89003e-22)
(1.00648 -0.0126333 -5.58375e-22)
(1.00579 -0.0118268 -8.06883e-22)
(1.01132 0.0961646 3.45052e-22)
(0.997443 0.10703 0)
(1.01634 -0.00139192 -5.67178e-22)
(1.01637 -0.0015134 3.42834e-22)
(0.813813 0.360112 5.54404e-22)
(0.815664 0.370717 5.69273e-22)
(0.811558 0.366079 -4.50185e-22)
(0.849158 -0.0264814 3.34575e-21)
(0.933058 -0.0213526 -1.90449e-21)
(0.930164 -0.027922 -1.43394e-21)
(0.92638 -0.0193925 -1.91933e-21)
(0.9793 -0.0919095 -9.86145e-22)
(0.977131 -0.0976706 0)
(1.02016 -0.314533 1.51044e-20)
(1.01733 -0.302533 -5.91946e-21)
(1.01247 0.00658188 6.76483e-22)
(1.01279 0.00680206 3.09686e-22)
(1.0126 0.00643355 -4.39093e-22)
(0.855343 -0.339449 3.82784e-21)
(0.860245 -0.330817 9.00166e-21)
(0.85379 -0.329777 4.62068e-21)
(0.899874 -0.152972 1.21326e-21)
(0.893982 -0.146051 -1.06977e-22)
(0.890449 -0.156743 -7.0034e-23)
(1.00855 -0.000650543 4.48602e-22)
(1.008 -0.000547391 0)
(1.00779 -0.000528131 -1.48001e-24)
(0.939856 -0.0237328 1.16868e-21)
(0.936642 -0.0160873 1.95937e-21)
(1.06517 -0.0159144 -9.97056e-22)
(1.06081 -0.018658 0)
(0.563183 -0.170806 -2.59149e-21)
(0.527002 -0.184794 9.13777e-22)
(1.01355 -0.00196491 -4.48559e-23)
(1.01369 -0.00201465 1.31487e-22)
(1.01364 -0.00206435 -6.70542e-23)
(1.01214 0.00637739 -2.32395e-22)
(-0.0789492 0.218374 -2.7356e-20)
(0.817939 0.0105603 1.27208e-21)
(0.811618 -0.018256 7.82773e-22)
(1.01008 -0.00418246 6.62721e-22)
(1.01018 -0.00429827 0)
(1.0103 -0.00427871 0)
(-0.0130996 0.0414295 -8.52895e-21)
(0.00569143 0.0202675 -3.02934e-20)
(0.00342873 0.011761 1.66128e-20)
(1.07813 0.0344027 -1.09464e-21)
(1.07819 0.0271144 0)
(1.07153 0.0315933 0)
(1.00135 -0.0152473 7.95118e-22)
(1.00267 -0.0170089 1.87565e-22)
(1.00042 -0.0173736 -1.03612e-21)
(0.828162 -0.396585 4.31526e-21)
(0.857863 -0.398082 3.99736e-21)
(0.863085 -0.402489 -3.10299e-21)
(1.01341 -0.00191666 -2.60915e-22)
(1.01347 -0.00186516 -2.00443e-23)
(1.00431 0.00245537 -1.14267e-22)
(1.01592 -0.000600599 3.68601e-22)
(1.01591 -0.000676629 9.09162e-22)
(1.00344 -0.000420382 2.71405e-22)
(1.00282 -0.000341766 -5.31946e-23)
(1.01741 -0.00695823 -3.44384e-22)
(1.01711 -0.0067501 5.91161e-22)
(1.01727 -0.00721571 -2.0039e-23)
(1.00934 0.00624667 -1.30363e-23)
(1.00925 0.00533 1.75142e-22)
(1.00839 0.0059388 3.60764e-22)
(1.02623 -0.0103313 1.29076e-21)
(1.02633 -0.0102265 1.83986e-22)
(1.01221 -0.00563258 -3.26992e-22)
(1.01232 -0.00572296 -7.00033e-22)
(1.0123 -0.00565323 0)
(1.01773 -0.00715422 -2.08944e-22)
(1.01756 -0.00674342 -3.50818e-23)
(1.02505 -0.00786491 -5.28718e-22)
(1.02486 -0.00797468 0)
(1.02517 -0.00807735 -1.07172e-21)
(0.857956 0.340387 -9.5979e-22)
(0.864542 0.347274 -4.61309e-21)
(0.819827 -0.345902 8.94732e-21)
(0.831778 -0.336468 2.96667e-21)
(1.01385 -0.0122749 1.25362e-23)
(1.01475 -0.0124572 -7.74076e-22)
(0.861652 -0.349921 2.8738e-21)
(1.01212 -0.145922 -6.6578e-22)
(1.01555 -0.140424 -7.86722e-22)
(1.01002 -0.00408387 -3.37159e-22)
(1.0099 -0.00410545 9.29168e-22)
(1.03333 -0.0446038 1.83657e-22)
(1.03236 -0.0427015 -1.74899e-21)
(1.03448 -0.042995 -1.69174e-21)
(0.9998 0.0656402 -1.45381e-21)
(0.989909 0.0727098 0)
(1.07066 -0.263403 1.89376e-20)
(1.07614 -0.264303 -8.70068e-21)
(1.07478 -0.258491 2.3469e-20)
(0.986696 0.14669 -1.00257e-21)
(0.978242 0.154962 -3.54403e-22)
(0.977209 0.141365 1.05063e-21)
(0.848594 0.0624735 1.34293e-21)
(0.846947 0.050645 1.74919e-20)
(0.86063 0.0565916 6.74387e-21)
(1.01905 -0.00126876 -2.28757e-22)
(1.01883 -0.00125167 4.82598e-22)
(0.0129346 0.0452323 1.72574e-21)
(0.0372188 0.0250968 1.26104e-20)
(0.0180469 0.0611924 2.52895e-20)
(0.838061 0.0999458 2.96605e-21)
(0.827305 0.0245588 6.79325e-21)
(0.801065 0.0998957 1.50797e-21)
(0.988214 -0.0138686 0)
(0.987037 -0.0172655 -8.66251e-22)
(0.984456 -0.0144326 0)
(1.02517 -0.00776808 -5.2357e-22)
(1.02486 -0.00769939 2.97018e-22)
(1.00045 -0.0131885 -1.12772e-21)
(1.00242 -0.0132164 8.06274e-22)