/*--------------------------------*- C++ -*----------------------------------*\
| =========                 |                                                 |
| \\      /  F ield         | OpenFOAM: The Open Source CFD Toolbox           |
|  \\    /   O peration     | Version:  v2012                                 |
|   \\  /    A nd           | Website:  www.openfoam.com                      |
|    \\/     M anipulation  |                                                 |
\*---------------------------------------------------------------------------*/
FoamFile
{
    version     2.0;
    format      ascii;
    class       surfaceVectorField;
    location    "750";
    object      Uf_0;
}
// * * * * * * * * * * * * * * * * * * * * * * * * * * * * * * * * * * * * * //

dimensions      [0 1 -1 0 0 0 0];


internalField   nonuniform List<vector> 
27907
(
(1.08176 -0.309264 2.26245e-20)
(1.09168 -0.303506 1.02007e-20)
(1.08982 -0.315395 1.64999e-20)
(1.31094 0.025121 1.43702e-21)
(1.2695 0.0283121 7.94427e-20)
(1.30316 0.0309662 1.40278e-20)
(1.01533 -0.000126614 -4.47894e-23)
(1.01527 -0.000183365 -2.93458e-22)
(1.01522 -0.00010308 -1.71132e-22)
(0.274444 -0.0164788 1.59148e-21)
(0.302699 -0.0141953 -2.71397e-22)
(0.268036 -0.0117099 9.06491e-22)
(0.22821 0.0752867 0)
(0.265304 0.0799076 0)
(0.218831 0.0756122 -1.57762e-20)
(0.206427 0.0704406 2.55941e-20)
(0.157869 0.0688074 -2.67221e-20)
(0.225278 0.0734193 5.10433e-21)
(-0.21348 -0.0119255 1.69363e-20)
(-0.227936 -0.00573358 5.31835e-20)
(-0.219089 -0.0118239 6.18271e-20)
(1.01203 -0.00512407 -9.22325e-23)
(1.01238 -0.00513269 9.52288e-22)
(1.01222 -0.00543317 6.21381e-22)
(1.18092 0.063076 4.68418e-21)
(1.18417 0.0613423 -8.36538e-21)
(1.18409 0.0655907 -3.308e-20)
(1.01409 -0.104955 1.38096e-21)
(1.01416 -0.108644 -2.09933e-21)
(1.01733 -0.106053 -2.91279e-23)
(1.05522 -0.0401928 -1.63911e-21)
(1.05685 -0.0405759 -7.16579e-22)
(1.05566 -0.0419679 -3.30619e-21)
(0.117122 -0.0525809 -4.43821e-20)
(0.110928 -0.0510207 -1.30952e-20)
(0.198246 -0.0620915 -4.84934e-20)
(1.00202 -0.000443 3.84873e-21)
(1.00189 -0.000318433 1.15615e-21)
(1.00207 -0.000297573 5.11986e-22)
(1.13206 0.0407136 5.32751e-21)
(1.13091 0.0403027 -4.60563e-21)
(1.1309 0.0416868 -1.09958e-20)
(1.04867 0.0117015 2.47006e-21)
(1.04944 0.0112334 0)
(1.04839 0.0107017 -2.89205e-21)
(0.590038 -0.515958 -3.57699e-20)
(0.557421 -0.488568 -6.57476e-21)
(0.594018 -0.474082 -7.4011e-21)
(1.11001 0.0115116 1.37151e-20)
(1.1084 0.0113588 9.30039e-21)
(1.10943 0.0099125 -1.08624e-21)
(1.00404 -0.007417 4.69506e-22)
(1.00424 -0.00742041 -9.30228e-22)
(1.00401 -0.00717235 -2.73304e-21)
(1.03778 -0.00485523 2.51817e-22)
(1.03856 -0.00494424 0)
(1.03825 -0.00429627 1.19173e-21)
(1.02596 -0.126999 -1.03751e-21)
(1.02234 -0.126672 -7.5352e-23)
(1.0248 -0.123323 2.90236e-22)
(0.096432 0.0117599 3.24144e-23)
(0.0718694 0.00804374 1.73613e-20)
(0.0914649 0.0116914 -8.55284e-21)
(1 -0.000376062 -2.60862e-21)
(0.999985 -0.000548211 -2.2052e-22)
(1.00002 -0.000457025 -3.80772e-21)
(-0.0651048 -0.0297331 0)
(-0.0296626 -0.0333172 0)
(-0.0673246 -0.0295458 6.01864e-20)
(1.14458 0.0945308 7.35482e-21)
(1.14808 0.0965906 2.35354e-20)
(1.14791 0.0988918 1.58486e-20)
(1.34812 -0.143679 6.96807e-20)
(1.35335 -0.148129 2.47034e-20)
(1.35539 -0.139265 -4.89575e-21)
(1.0117 -0.0051057 1.67944e-23)
(1.01186 -0.00483416 -4.05772e-23)
(0.786735 -0.666488 -1.71999e-21)
(0.776452 -0.686811 0)
(0.755618 -0.667112 1.01871e-20)
(0.163239 0.077328 7.53627e-21)
(0.20696 0.0818344 -2.11601e-20)
(0.175498 0.0774485 -3.35864e-20)
(0.85601 0.0364904 -1.01817e-21)
(0.959348 0.0339272 5.08666e-21)
(0.888144 0.0330933 -2.57605e-20)
(1.06644 -0.685568 1.43917e-20)
(1.02693 -0.684077 -4.48236e-22)
(1.09425 -0.745535 4.47103e-21)
(1.11531 0.0373431 9.83128e-22)
(1.11626 0.0374135 1.00231e-20)
(1.11588 0.0364654 -9.65753e-22)
(0.161793 0.00769776 -9.32293e-21)
(0.176482 0.0100234 2.83801e-21)
(0.180399 0.00983532 1.30638e-23)
(1.00037 -0.00014935 -2.3179e-22)
(1.00031 -0.000135211 7.92671e-22)
(1.00035 -8.41085e-05 -1.3585e-21)
(1.05251 -0.0124346 -2.86357e-21)
(1.0533 -0.0116919 -2.53365e-21)
(1.05216 -0.0113511 3.16983e-22)
(1.12468 0.0416811 0)
(1.12445 0.0411138 -1.36711e-20)
(1.12402 0.0416007 -4.03535e-21)
(0.999262 -0.0015582 6.31464e-21)
(0.999152 -0.00170323 -1.67189e-21)
(0.999204 -0.00180119 2.39141e-21)
(1.00015 -0.000180122 -3.74202e-23)
(1.00012 -0.000141356 2.17192e-21)
(1.00012 -0.000184448 1.35494e-21)
(1.03525 -0.022046 1.71078e-21)
(1.03435 -0.0220037 -8.45822e-22)
(1.03488 -0.0228923 6.50336e-22)
(1.04127 -0.0257895 7.98137e-22)
(1.04176 -0.024832 -1.19272e-21)
(1.04058 -0.025001 -1.18349e-21)
(1.11582 0.00880784 7.38096e-21)
(1.11499 0.00723172 0)
(1.11392 0.00888789 1.26789e-20)
(1.0361 -0.0204204 9.28887e-22)
(1.03562 -0.0212704 -5.87802e-22)
(1.03516 -0.0202692 -1.73817e-21)
(0.936164 -0.0810677 0)
(0.936075 -0.0767649 5.02693e-21)
(0.939961 -0.079982 1.74178e-20)
(1.02188 -0.00667855 -1.20554e-22)
(1.02188 -0.00703001 -3.52815e-23)
(1.02234 -0.00686434 -3.4209e-22)
(0.973062 -0.0923972 4.04782e-21)
(0.975341 -0.0944013 -8.04064e-21)
(0.976129 -0.0910478 0)
(1.18303 -0.500638 -2.82099e-21)
(1.16106 -0.505287 3.14069e-20)
(1.20833 -0.52974 3.9938e-21)
(1.01322 -0.00140032 4.45042e-22)
(1.01335 -0.00125666 4.89509e-22)
(1.01339 -0.00146924 -4.85688e-22)
(-0.0649956 -0.0303347 1.35721e-21)
(-0.0955398 -0.0267685 -1.83468e-23)
(1.04933 -0.0555646 -2.12513e-21)
(1.05082 -0.0544317 1.18052e-21)
(1.04903 -0.0536395 3.56264e-21)
(1.01108 -0.104084 1.11629e-22)
(1.01403 -0.101863 1.44543e-21)
(1.02176 -0.00522176 -3.49833e-23)
(1.02168 -0.00488454 -2.33908e-22)
(1.0213 -0.0050346 -1.15296e-22)
(1.22167 -0.14358 -1.36819e-20)
(1.22476 -0.138996 -1.19106e-20)
(1.22824 -0.145002 -4.34965e-20)
(0.374783 0.0498853 3.73037e-21)
(0.368727 0.0511427 -1.70497e-21)
(0.40923 0.0530682 -3.6349e-21)
(1.01563 -0.00166349 -4.99682e-22)
(1.01587 -0.0017084 -3.01182e-22)
(1.01568 -0.00154089 -1.74649e-22)
(1.05348 -0.039864 4.40357e-21)
(1.05464 -0.0386687 2.04024e-21)
(0.122304 0.0692286 2.35559e-20)
(0.144837 0.0755658 2.4341e-20)
(1.10335 -0.218211 2.6711e-20)
(1.20015 -0.230785 3.44885e-21)
(1.24241 -0.245125 2.78073e-20)
(1.00019 -0.000179967 -1.28642e-21)
(1.00019 -0.000231008 2.00635e-22)
(0.514535 -0.347259 -1.00763e-20)
(0.532605 -0.318286 1.74587e-20)
(0.993186 -0.0228556 1.57778e-22)
(0.993825 -0.0230112 5.28779e-21)
(0.993255 -0.0237396 1.96418e-21)
(1.12989 0.037941 1.35754e-20)
(1.13052 0.0390598 -4.53995e-21)
(1.13129 0.0378274 -1.26551e-21)
(1.10837 -0.264233 -1.58012e-20)
(1.10302 -0.269091 8.11664e-21)
(1.1117 -0.26997 2.47323e-22)
(-0.209904 -0.0114368 -7.67809e-21)
(-0.191954 -0.0171093 -2.326e-20)
(1.17261 0.0220691 -1.10007e-20)
(1.16998 0.0244407 -2.19845e-20)
(1.17359 0.0253374 1.50884e-20)
(0.968919 -0.0472055 7.00642e-21)
(0.970632 -0.0464374 8.04913e-21)
(0.968916 -0.0451346 -2.00606e-21)
(1.01556 -0.00179236 1.59258e-22)
(1.01541 -0.00159289 -5.32329e-22)
(0.993943 -0.00561639 3.96746e-21)
(0.994122 -0.00531842 0)
(0.994268 -0.00565745 0)
(1.11473 0.012267 1.26768e-20)
(1.1132 0.0137268 -6.62862e-21)
(1.11287 0.0117129 -1.81772e-20)
(1.00044 -0.000146679 8.74267e-22)
(1.0004 -0.000209118 -6.10832e-22)
(1.03331 -0.0204307 3.91117e-22)
(1.03247 -0.0205536 -1.69172e-21)
(1.03281 -0.0197153 -1.20015e-21)
(0.346236 0.0479039 -3.40375e-21)
(0.378226 0.0479671 -2.21147e-22)
(0.302926 0.0496833 -3.34579e-21)
(0.307232 0.0472382 8.89625e-21)
(0.275552 0.0440202 7.13177e-21)
(0.970881 -0.0266953 0)
(0.970702 -0.0280824 0)
(0.972065 -0.0274458 -6.44686e-21)
(1.02182 -0.00556199 1.27149e-22)
(1.02224 -0.00541435 2.96778e-22)
(0.148948 -0.315574 -2.43753e-20)
(0.166124 -0.263181 2.03727e-20)
(0.108911 0.0391962 -1.10333e-19)
(1.0176 -0.00847761 -6.09705e-23)
(1.01713 -0.00843474 5.59316e-22)
(1.01733 -0.00812494 2.43918e-22)
(0.995287 -0.0241778 2.14252e-21)
(0.9947 -0.0240118 -7.95649e-21)
(0.995209 -0.0233583 -1.31135e-20)
(1.13583 0.062492 2.49631e-20)
(1.13832 0.0622476 1.51818e-21)
(1.13743 0.0648197 0)
(0.258064 0.0722988 4.53544e-24)
(0.224188 0.0646727 1.595e-20)
(0.248915 0.0725697 -2.83555e-21)
(0.889176 -0.322539 -3.81431e-21)
(0.903881 -0.319942 3.21456e-20)
(0.89865 -0.335549 1.12272e-20)
(-0.0785855 -0.0328366 1.77538e-20)
(-0.0772154 -0.0326159 1.47832e-20)
(-0.104294 -0.030353 6.96754e-20)
(-0.00335617 -0.023382 1.67146e-20)
(-0.00363765 -0.0244483 -4.03246e-20)
(0.0464776 -0.026845 -2.43036e-21)
(1.24852 -0.474693 0)
(1.23711 -0.481839 -3.0211e-21)
(1.2442 -0.488933 -3.28861e-20)
(1.12891 0.0380821 5.06273e-21)
(1.12935 0.0369305 6.12375e-21)
(0.118451 0.0719665 4.77728e-20)
(0.161438 0.0748307 8.90681e-21)
(0.168026 0.0781392 1.85749e-20)
(1.13385 0.061581 9.47645e-21)
(1.13369 0.0639855 3.80136e-20)
(1.0964 -0.0269475 2.57963e-21)
(1.09625 -0.0292455 -4.25871e-21)
(1.09425 -0.0273429 0)
(0.41446 -0.159422 3.49324e-20)
(0.470933 -0.182352 -3.47611e-21)
(0.653987 -0.241146 4.07699e-20)
(1.1748 0.0204904 -5.1444e-21)
(1.17118 0.0199618 1.11667e-21)
(-0.0591411 -0.0334218 -2.21247e-20)
(-0.0696601 -0.0344861 5.85031e-20)
(-0.0400346 -0.0211944 -1.8874e-21)
(0.996071 -0.024358 4.27333e-21)
(0.995549 -0.0250871 2.27386e-21)
(0.082273 0.0690198 -2.51488e-20)
(0.075377 0.0666696 4.42982e-22)
(0.992623 -0.0227394 -3.86603e-21)
(0.993128 -0.0221475 -1.20398e-20)
(0.0837694 -0.0622434 8.1993e-20)
(0.0730925 -0.0633916 2.55957e-20)
(0.19392 -0.0849864 -5.55198e-22)
(0.93618 -0.0854683 2.95597e-21)
(0.932293 -0.0820926 0)
(-0.00426521 -0.0216118 -1.07819e-20)
(-0.00136595 -0.0217202 -5.01871e-20)
(0.0476349 -0.0223113 0)
(0.0915617 -0.0628085 3.28953e-20)
(0.0193415 -0.0486545 -5.60518e-20)
(1.1314 0.0611579 -2.25655e-20)
(1.13349 0.05929 -2.87562e-20)
(1.01802 -0.00853975 -2.22581e-22)
(1.01782 -0.00886322 -2.53926e-22)
(1.00217 -0.0177553 4.93354e-21)
(1.00185 -0.017502 4.43767e-21)
(1.00193 -0.0180793 2.9206e-21)
(0.117222 0.0155269 -4.92751e-21)
(0.100608 0.0117912 3.68141e-22)
(1.03798 -0.129011 -4.54828e-22)
(1.03511 -0.132646 1.40343e-21)
(1.03392 -0.127707 1.07483e-21)
(0.0462708 0.0646409 -2.70782e-20)
(0.00654112 0.0603183 0)
(0.00761686 0.0592627 0)
(1.13505 0.0301678 -4.3416e-21)
(1.13392 0.0289808 0)
(1.13351 0.0305755 0)
(1.11959 -0.129311 -1.62531e-20)
(1.11501 -0.128817 -7.98631e-21)
(1.11789 -0.125378 -7.50277e-22)
(0.142797 0.00592115 2.78927e-22)
(0.146473 0.00578951 -5.51565e-21)
(1.10666 -0.675386 1.75435e-20)
(1.06093 -0.646998 -3.24324e-20)
(0.982628 0.0691425 -1.34647e-21)
(0.971602 0.0724963 -4.60735e-22)
(1.02792 0.0671346 9.09222e-21)
(0.26529 0.0714939 -1.12336e-20)
(0.300293 0.0770797 1.03944e-20)
(1.04313 -0.0362927 -6.49858e-22)
(1.04275 -0.035074 -7.66094e-22)
(1.04432 -0.0352978 4.18634e-21)
(0.964367 -0.0140692 -5.30032e-21)
(0.965203 -0.0127483 2.25069e-22)
(0.963558 -0.0125714 9.74676e-21)
(0.234396 -0.0957706 -5.46256e-20)
(0.103559 -0.0674138 -4.1262e-20)
(0.559083 -0.910271 2.48793e-20)
(1.01059 -0.00575958 8.93593e-22)
(1.0105 -0.00547329 -2.35632e-23)
(1.01026 -0.00561287 2.08974e-21)
(1.00871 -0.0371272 -2.13681e-22)
(1.00973 -0.0372502 1.26235e-21)
(1.00925 -0.0361329 -2.75059e-22)
(0.855696 0.113796 -2.46624e-20)
(0.862692 0.115434 2.55632e-21)
(0.785245 0.113188 -8.91729e-22)
(-0.347235 0.00728562 -1.71064e-20)
(-0.374821 0.00624521 -5.6091e-20)
(-0.34679 0.00634881 -4.50103e-20)
(-0.263158 0.0129373 1.25812e-20)
(-0.267923 0.0135368 -3.98434e-20)
(-0.240732 0.0171509 -4.18416e-20)
(1.04873 0.0126559 2.13803e-22)
(1.04775 0.0121251 2.98316e-21)
(-0.000755441 -0.0395778 2.74752e-21)
(0.0545405 -0.0443226 -6.99925e-20)
(-0.00116389 -0.0385211 -5.40381e-20)
(-0.0116491 -0.0183737 -4.9865e-21)
(-0.0451431 -0.0164468 8.52168e-22)
(1.11761 -0.0536457 2.29141e-20)
(1.11528 -0.0518511 3.18851e-21)
(1.11466 -0.0551428 1.46322e-20)
(0.987787 -0.0106963 -1.22386e-20)
(0.987525 -0.0110814 7.7845e-21)
(0.987172 -0.0105449 -1.85317e-20)
(0.571164 -0.0651423 3.52427e-20)
(0.532266 -0.0545615 -1.45915e-20)
(0.467267 -0.0464605 -1.93539e-20)
(0.600309 -0.633628 0)
(0.640413 -0.613507 0)
(0.642692 -0.66142 7.90834e-21)
(1.1693 -0.392261 4.86729e-20)
(1.16798 -0.404275 2.98202e-20)
(1.17846 -0.398312 3.22475e-20)
(1.20608 -0.494907 0)
(1.17322 -0.478842 0)
(1.31694 0.0178515 -8.32856e-21)
(1.32218 0.0192078 -4.03851e-21)
(1.19106 0.0908223 -1.31568e-20)
(1.1869 0.0926506 -2.58243e-20)
(1.19335 0.0954872 5.66154e-21)
(0.0555246 -0.0567864 6.43313e-22)
(0.0094892 -0.0420267 1.10184e-20)
(1.00274 -0.000152383 -2.76957e-22)
(1.00298 -0.000157043 2.76235e-21)
(1.00372 -0.000239516 -2.4549e-22)
(1.11138 0.0115205 2.08722e-21)
(1.1104 0.0128426 -7.76226e-22)
(0.829857 -0.656833 -7.30283e-21)
(0.800581 -0.627069 -2.76257e-21)
(0.040554 0.00546635 -1.31513e-21)
(0.0449166 0.00535614 6.58709e-21)
(0.930304 -0.221334 -6.53394e-21)
(0.920548 -0.222264 -6.8458e-21)
(0.92829 -0.213674 -7.35573e-21)
(0.241368 -0.664004 -2.49424e-21)
(0.222266 -0.739324 4.50709e-20)
(0.96855 -0.0645808 -5.16042e-21)
(0.967603 -0.0668052 -6.24429e-21)
(0.970185 -0.0664379 6.11276e-22)
(1.14032 0.0624068 -8.1882e-21)
(1.13876 0.0604312 -4.74465e-21)
(1.11671 0.00997846 2.02455e-21)
(1.11769 0.0085182 -6.89623e-21)
(1.0026 -0.0181261 -2.01229e-22)
(1.00245 -0.0174702 -5.51457e-22)
(0.786227 -0.258633 -1.17012e-20)
(0.77366 -0.254025 -2.16327e-20)
(0.777633 -0.270024 -1.7455e-20)
(0.880903 -0.313683 -2.89937e-21)
(0.875075 -0.33045 -1.60492e-20)
(0.940137 -0.450632 0)
(0.927989 -0.461936 0)
(0.94848 -0.463239 -8.00959e-22)
(1.00405 -0.0318626 -1.05821e-21)
(1.00465 -0.0325701 0)
(1.00379 -0.0326855 5.40585e-21)
(1.01664 -0.197335 7.19201e-20)
(0.952491 -0.18155 -3.77029e-20)
(1.03648 -0.0198118 -8.56759e-22)
(1.03689 -0.0207613 3.66445e-21)
(1.04046 -0.00257878 0)
(1.04019 -0.00197673 1.49253e-21)
(1.0396 -0.00255539 0)
(-0.0203823 0.0159061 3.3476e-21)
(-0.0275582 0.0162973 -1.8818e-20)
(-0.0435212 0.011038 6.81663e-21)
(0.189981 0.0101429 -3.12397e-21)
(0.208193 0.0133888 -4.34736e-21)
(0.191404 0.013973 -6.38492e-21)
(1.11436 0.0372392 2.03264e-22)
(1.11475 0.0382016 9.75898e-21)
(0.804025 0.115985 1.26927e-20)
(0.780825 0.115059 2.0279e-21)
(0.736781 0.110405 1.33668e-20)
(1.25742 -0.461863 0)
(1.24467 -0.460357 0)
(1.11056 0.0597123 8.30057e-22)
(1.09977 0.0587295 -1.39863e-20)
(1.10885 0.0574087 -1.14392e-20)
(1.09627 -0.0312763 -1.04952e-20)
(1.09416 -0.0317585 1.84657e-21)
(1.09623 -0.0335912 -5.83138e-21)
(0.999972 -0.000401144 -3.19832e-23)
(0.999999 -0.000557018 -2.75652e-23)
(0.99998 -0.000433161 -2.37455e-21)
(-0.0854089 -0.0227735 -1.16706e-20)
(-0.0824553 -0.0227687 -1.26217e-20)
(-0.119326 -0.0213837 -2.67798e-20)
(1.08732 -0.0465815 -1.32766e-20)
(1.08596 -0.0449176 4.06804e-21)
(1.08483 -0.0469049 -1.66215e-20)
(-0.0431177 -0.0372684 -7.58398e-20)
(-0.00632997 -0.0395533 6.03938e-20)
(1.04797 -0.0564861 -3.47317e-21)
(1.0497 -0.0574453 -3.32268e-21)
(0.991504 -0.0381575 4.15331e-21)
(0.990735 -0.0388765 -4.89427e-21)
(0.990517 -0.0375414 8.64482e-21)
(0.999993 -0.000237772 4.63938e-21)
(1 -0.000113157 2.25886e-21)
(1 -0.000123414 2.27709e-21)
(1.01082 -0.0132982 1.49201e-21)
(1.01115 -0.0135968 1.65108e-21)
(1.01077 -0.0137009 2.41936e-21)
(1.12704 0.0375896 6.57458e-21)
(1.12777 0.0379449 -6.29267e-21)
(1.1276 0.036901 -1.25514e-21)
(0.158882 -0.0938615 5.76731e-20)
(0.221526 -0.11989 5.78353e-20)
(0.0703272 -0.0735289 1.91683e-20)
(0.992356 -0.0370558 2.98696e-21)
(0.992692 -0.0385397 -4.34164e-21)
(1.11448 -0.258612 -8.79298e-21)
(1.10582 -0.258556 -1.09179e-20)
(0.817812 0.0423679 2.54199e-20)
(0.759551 0.0421104 9.06597e-21)
(1.03918 -0.00625499 -1.8942e-23)
(1.04004 -0.00638254 1.64695e-21)
(1.03936 -0.00699574 -6.08315e-23)
(0.42277 -0.0661563 9.63174e-21)
(0.515098 -0.0801436 -4.13208e-20)
(0.403078 -0.0657525 -1.35652e-20)
(1.21582 -0.25916 1.21866e-20)
(1.20969 -0.263561 2.72515e-20)
(1.2087 -0.255233 -2.22557e-20)
(0.207614 0.0780453 -6.05524e-20)
(0.268113 0.0835434 3.4183e-20)
(0.259295 0.0805261 -2.56224e-20)
(-0.255511 0.00546667 -9.5873e-20)
(-0.25891 0.00472218 -2.28269e-22)
(-0.22715 0.00558083 -3.89442e-20)
(1.00387 -0.00744694 2.65117e-21)
(1.0041 -0.00765697 6.47183e-22)
(0.303316 -0.130079 -4.63216e-20)
(0.110039 -0.07622 0)
(0.180728 0.0770771 -1.33659e-20)
(0.187585 0.0762065 -1.58592e-21)
(0.224178 0.0818837 2.14914e-20)
(1.12647 0.0381757 6.34713e-21)
(1.12638 0.0372553 1.21869e-21)
(1.14219 0.0909884 -1.2272e-20)
(1.1411 0.0930353 -2.01421e-20)
(0.773118 0.0781332 -2.26136e-21)
(0.70724 0.0716727 4.52175e-20)
(0.796766 0.0751221 -2.56172e-20)
(0.968988 -0.0487342 0)
(0.967231 -0.047619 -6.01317e-21)
(0.798328 -0.250489 1.63633e-20)
(0.800623 -0.266558 1.36445e-20)
(1.03098 -0.0317656 3.4484e-22)
(1.03201 -0.0319631 0)
(1.03161 -0.030888 0)
(1.00896 -0.00541676 -1.13712e-21)
(1.00867 -0.00523591 6.76227e-24)
(1.00891 -0.00510627 1.313e-21)
(-0.327367 0.00388128 3.18274e-20)
(-0.325962 0.00143906 4.14169e-20)
(1.11167 0.0584378 1.60878e-20)
(1.11207 0.0610942 1.28478e-20)
(1.02635 -0.00481235 1.76731e-22)
(1.02675 -0.00463053 -4.34275e-22)
(1.02689 -0.00510782 -7.89384e-23)
(1.07073 0.000780733 -1.29964e-21)
(1.07126 0.00189176 -3.86761e-21)
(1.07212 0.000581334 -3.26836e-21)
(1.11143 0.0632054 1.00955e-20)
(1.11054 0.0631357 1.51174e-21)
(1.10973 0.0606681 2.12569e-20)
(0.997146 -0.0184741 5.76711e-21)
(0.997046 -0.0190756 5.57097e-22)
(0.997572 -0.0189174 2.30471e-21)
(-0.352298 0.00698254 4.64222e-20)
(-0.324036 0.00816053 5.29967e-20)
(1.02096 -0.00618699 -1.39407e-23)
(1.02097 -0.00583696 9.59005e-23)
(1.02054 -0.00595915 -2.27974e-23)
(0.995266 -0.0163475 3.83805e-21)
(0.995445 -0.0168845 3.80802e-21)
(0.994893 -0.0168606 -1.2166e-21)
(0.937383 -0.223118 8.37784e-21)
(0.92988 -0.230693 6.46949e-21)
(1.19526 0.0889973 -4.26619e-22)
(1.18988 0.0869473 -2.22451e-20)
(1.01169 -0.0484631 -2.08903e-21)
(1.01181 -0.0498366 -2.0131e-21)
(1.01057 -0.0492788 1.83424e-21)
(1.11339 0.0370651 -5.46972e-21)
(1.11395 0.0362106 -1.83875e-21)
(0.973123 -0.150282 -4.34366e-21)
(0.969356 -0.15223 -1.53428e-20)
(0.974243 -0.154665 -5.63597e-21)
(1.17738 0.0189975 -1.09484e-20)
(1.17805 0.0218884 -3.07157e-20)
(1.02978 -0.127236 -1.76991e-21)
(1.02729 -0.13116 -4.55901e-22)
(1.22298 -0.255513 1.24161e-20)
(1.22467 -0.263808 2.95606e-20)
(1.00059 -0.00227945 -2.43984e-21)
(1.00053 -0.00209987 0)
(1.00051 -0.0021701 -1.33677e-22)
(1.02142 -0.00646258 9.49564e-23)
(1.02186 -0.00627501 8.74407e-23)
(0.739677 -0.204453 0)
(0.747106 -0.217437 9.09293e-21)
(0.755719 -0.205448 4.33536e-21)
(1.04635 -0.0573008 9.25944e-22)
(1.04619 -0.0555164 1.27604e-21)
(1.07225 -0.129097 -2.87638e-21)
(1.0684 -0.130729 4.44589e-22)
(1.07201 -0.134202 -2.80515e-21)
(1.16564 0.00111536 4.18095e-21)
(1.16722 -0.000733754 1.75832e-20)
(1.16794 0.00245855 -6.50566e-21)
(1.00195 -0.000556626 1.66601e-21)
(1.00213 -0.000556336 -1.26908e-21)
(0.972876 -0.145867 1.77828e-20)
(0.977411 -0.148367 6.05839e-21)
(1.13793 0.029253 6.90073e-21)
(1.13953 0.0288765 -1.36206e-20)
(1.13884 0.0306069 -1.343e-20)
(0.999993 -0.000252885 -1.99322e-21)
(0.999984 -0.000422399 0)
(0.107951 0.0100179 0)
(0.0843857 0.0071164 0)
(0.107564 0.0118215 0)
(1.00792 -0.103064 -1.6594e-21)
(1.0079 -0.106722 1.51135e-21)
(1.00442 -0.00740547 -3.60838e-23)
(1.00465 -0.00742301 1.53402e-23)
(1.00441 -0.00712481 2.00653e-21)
(1.12095 -0.133401 -6.76048e-21)
(1.12411 -0.129765 -1.3511e-20)
(0.992886 -0.0408815 1.12844e-20)
(0.994 -0.0408948 -3.36686e-21)
(0.993251 -0.0398045 -5.98365e-22)
(1.07742 -0.119713 6.13924e-21)
(1.08058 -0.119187 -1.89428e-21)
(1.08003 -0.123409 -8.96636e-21)
(0.856579 -0.297514 0)
(0.851247 -0.285039 1.29699e-20)
(0.865677 -0.288832 0)
(0.0535998 -0.0338659 0)
(0.0133284 -0.0327885 0)
(0.0107683 -0.0310592 0)
(0.845374 -0.305771 1.72815e-20)
(0.860897 -0.308723 0)
(0.508186 -0.431065 -1.06819e-20)
(0.532119 -0.460565 -2.11654e-20)
(0.541721 -0.422479 -1.66336e-20)
(1.01564 -0.00455046 6.58737e-22)
(1.01597 -0.00460166 -5.48185e-22)
(1.01576 -0.00481902 3.85445e-22)
(0.268026 0.0737221 8.79807e-20)
(0.1958 0.0674352 2.5252e-20)
(1.00447 -0.00763648 -2.65946e-21)
(1.04229 -0.0371046 -1.60881e-21)
(1.04372 -0.0372853 -1.45502e-21)
(1.12617 0.0522683 -2.33581e-20)
(1.12658 0.0539842 -1.51165e-20)
(1.12769 0.052453 3.28687e-21)
(-0.0136861 0.0154867 1.46572e-21)
(-0.00189004 0.0208899 9.13487e-21)
(1.265 -0.170709 0)
(1.27112 -0.170888 0)
(1.26765 -0.177027 0)
(1.13625 0.0298114 1.5447e-20)
(1.13679 0.0279196 3.60496e-20)
(1.15802 -0.0577143 1.61069e-20)
(1.15714 -0.0532848 -2.89982e-20)
(1.15393 -0.0568411 -2.70172e-20)
(0.979496 -0.208608 -3.14441e-21)
(0.9846 -0.213451 0)
(0.977066 -0.216169 0)
(1.02581 -0.00245754 0)
(1.02575 -0.00211938 6.36843e-22)
(1.0262 -0.0023588 -2.11871e-22)
(1.16965 -0.00349565 -2.57052e-20)
(1.17209 -0.00523755 -2.98447e-20)
(1.17244 -0.00135212 -4.69266e-21)
(0.993785 -0.00584726 -6.46599e-21)
(0.993606 -0.00551881 3.49602e-21)
(1.17616 0.0161487 2.14464e-21)
(1.1801 0.017061 7.38538e-21)
(-0.06838 -0.0315397 -7.15199e-21)
(-0.0766285 -0.0289928 -2.05132e-20)
(-0.100346 -0.0255166 4.16722e-20)
(1.12992 0.0606032 -3.35702e-21)
(1.12965 0.0622556 -1.32607e-20)
(1.00174 -0.000179867 1.26136e-21)
(1.00175 -0.000301281 -5.19368e-21)
(0.997298 -0.0178537 0)
(0.99677 -0.0180296 0)
(1.02591 -0.00283326 0)
(1.02537 -0.00259193 0)
(1.01292 -0.00165311 0)
(1.01278 -0.00178536 0)
(1.01271 -0.00157174 -5.80836e-22)
(0.684699 -0.0764889 -2.77821e-20)
(0.606037 -0.0696613 3.93253e-20)
(1.09724 -0.0968621 1.09664e-21)
(1.09438 -0.097177 9.24223e-21)
(1.09648 -0.100264 1.65861e-21)
(1.00871 -0.0129357 -2.08986e-22)
(1.00871 -0.0132347 -2.68956e-21)
(1.00904 -0.0132021 7.14751e-22)
(1.27615 -0.279754 -5.5391e-20)
(1.28236 -0.289242 1.80025e-20)
(1.29201 -0.282603 4.04555e-20)
(0.930088 0.0702699 6.34398e-22)
(0.986676 0.0661442 -1.37841e-21)
(1.05501 -0.023249 0)
(1.05615 -0.023314 -7.60063e-21)
(1.05526 -0.0222313 0)
(0.829898 0.116492 1.16439e-20)
(0.875234 0.122038 -3.51941e-21)
(0.0504054 0.0382611 -3.11988e-20)
(0.0660183 -0.110278 9.32228e-20)
(-0.0865866 -0.0207374 1.38383e-19)
(1.12796 0.0598654 2.89871e-21)
(1.13003 0.0583223 -6.83447e-22)
(0.999357 -0.00142547 3.5281e-21)
(0.999324 -0.00135237 -3.09297e-21)
(-0.00512902 -0.0226206 9.89084e-20)
(-0.00334617 -0.0221011 -7.96144e-21)
(0.0488341 -0.0240564 9.15995e-20)
(0.89518 -0.0811732 0)
(0.892287 -0.0763772 1.09288e-20)
(0.897696 -0.0768418 0)
(0.999059 -0.00223564 2.00988e-21)
(0.999031 -0.00240922 1.00798e-21)
(0.998935 -0.00246905 2.29664e-21)
(0.421229 -0.0616779 9.42888e-21)
(0.321148 -0.0530197 -3.95469e-21)
(1.09801 -0.0269361 2.12411e-21)
(1.09639 -0.0252023 -1.87865e-20)
(0.891573 -0.085672 0)
(0.897318 -0.0857472 0)
(1.04538 0.00552285 2.35728e-21)
(1.04556 0.00623459 2.33432e-21)
(1.04624 0.00561349 -3.36099e-22)
(1.12397 -0.0584594 1.22443e-20)
(1.12108 -0.0579519 7.61134e-21)
(1.12331 -0.0553477 5.62913e-21)
(1.12725 0.0777988 3.40414e-21)
(1.12832 0.080661 6.52394e-21)
(1.12992 0.0784566 -1.132e-20)
(0.476857 -0.442011 3.11765e-20)
(0.488598 -0.408228 3.63856e-20)
(1.07436 -0.121169 -5.84691e-22)
(1.07447 -0.117231 1.89104e-21)
(0.918186 -0.317536 4.22352e-21)
(0.926635 -0.327641 -4.8541e-21)
(0.930616 -0.314203 -1.68947e-21)
(1.02901 0.00252076 8.56414e-22)
(1.02951 0.00269617 0)
(1.13503 0.0207873 0)
(1.13496 0.0227088 -7.88156e-21)
(1.1332 0.0217083 -6.53585e-21)
(0.999293 -0.00811239 -1.21374e-21)
(0.999296 -0.00844296 0)
(0.999466 -0.00819576 0)
(1.16333 0.00348667 -1.30607e-21)
(1.16283 -4.58099e-05 -1.48617e-20)
(1.00507 -0.101934 2.71724e-21)
(1.00803 -0.0999197 0)
(1.12568 0.0509265 -1.41678e-20)
(1.12504 0.052381 1.03615e-21)
(-0.35353 -0.00673055 1.89508e-20)
(-0.366134 -0.0019247 -7.81208e-21)
(-0.357889 -0.00865795 4.30314e-20)
(1.01531 -0.00454543 5.03284e-22)
(1.0155 -0.00433313 -7.09588e-22)
(1.04212 -0.0327518 3.46385e-21)
(1.04344 -0.0329737 -6.16217e-22)
(1.04244 -0.0339087 8.37229e-22)
(1.01499 -0.475078 -7.48978e-21)
(1.03473 -0.472681 -1.78429e-20)
(1.02774 -0.496822 1.10521e-20)
(1.04177 -0.031665 -9.54999e-22)
(1.04081 -0.032523 -9.79062e-22)
(1.06942 0.00107937 3.10817e-21)
(1.07009 -0.000223645 6.65089e-21)
(1.16644 -0.00489637 2.91966e-22)
(0.630138 0.0082903 5.31382e-20)
(0.727725 0.00559287 -1.91278e-20)
(0.654938 0.00496848 -4.31909e-20)
(-0.261986 0.0112719 4.07671e-20)
(-0.287354 0.00921962 1.27787e-20)
(1.00213 -0.0314893 0)
(1.00279 -0.0310886 2.53704e-21)
(1.00196 -0.0305678 0)
(1.21916 -0.129081 -1.25483e-20)
(1.21391 -0.124137 -1.24368e-20)
(1.21295 -0.131683 2.97107e-21)
(0.108064 0.0606698 8.60519e-21)
(0.055454 0.0644208 7.12732e-21)
(0.15408 0.0447769 6.03786e-21)
(1.22156 -0.489687 -3.04003e-21)
(1.21308 -0.471047 -1.39766e-22)
(1.0094 -0.0545755 3.0976e-21)
(1.00813 -0.053939 0)
(1.00944 -0.0530371 -2.27848e-21)
(1.03007 -0.0081172 2.3848e-22)
(1.03072 -0.00836131 -2.12205e-22)
(1.03054 -0.00771834 -8.09512e-22)
(1.07684 -0.0752342 9.9306e-21)
(1.07896 -0.0751797 8.46637e-21)
(1.0777 -0.0725887 2.9059e-21)
(1.10052 -0.0958192 2.1555e-21)
(1.09813 -0.0930009 3.59673e-21)
(1.00351 -0.03127 1.57682e-21)
(1.00428 -0.0311916 2.10248e-21)
(0.0814893 0.0586668 -8.77447e-21)
(0.131127 0.0452667 -6.76979e-21)
(1.27189 -0.270979 -5.05902e-20)
(1.2648 -0.277661 -3.47427e-20)
(0.774266 0.0204019 3.03906e-21)
(0.725005 0.0161125 5.916e-21)
(0.751862 0.0180416 1.09408e-20)
(0.0364444 0.00552027 -4.55745e-21)
(-0.0302675 -0.0336022 -2.70933e-22)
(1.02494 -0.00478856 -7.04369e-22)
(1.02529 -0.00451785 0)
(1.02474 -0.00437902 4.05843e-22)
(1.0154 -0.000157214 5.23263e-23)
(1.01536 -8.47078e-05 -9.4761e-24)
(0.987257 -0.226167 3.33544e-21)
(0.98066 -0.228884 3.52744e-22)
(0.9872 -0.23443 3.65487e-21)
(0.102704 -0.033629 -6.7546e-21)
(0.104296 -0.0372316 -2.24233e-20)
(0.919429 -0.0458497 0)
(0.921386 -0.0426974 -4.71937e-21)
(0.923112 -0.0458834 -5.62715e-21)
(0.909843 -0.307933 5.21696e-21)
(1.19692 -0.00967008 6.98783e-21)
(1.19464 -0.00676151 6.10926e-21)
(1.19307 -0.0105332 -6.26418e-22)
(1.0714 -0.0796707 -7.51132e-21)
(1.07402 -0.0800348 -1.73924e-20)
(1.07191 -0.0825797 -8.21813e-21)
(-0.0464253 -0.0217671 1.97787e-20)
(1.0373 -0.00538665 -7.74097e-25)
(1.037 -0.00474037 3.80335e-22)
(1.03468 0.0227045 2.69501e-22)
(1.06377 0.0221964 6.88828e-22)
(1.01618 0.0235683 -5.57114e-21)
(0.152116 0.0724276 -2.57542e-21)
(1.01306 -0.00153812 4.41219e-22)
(1.01303 -0.0013244 -1.19786e-22)
(0.404274 0.0306624 -4.23068e-21)
(0.37539 0.0289789 -1.899e-21)
(0.382423 0.028222 0)
(0.959875 -0.167132 -4.05093e-21)
(0.962693 -0.172121 -1.21734e-20)
(0.95603 -0.172255 -3.26408e-22)
(1.03386 -0.0212558 -4.01035e-22)
(1.0342 -0.0202655 1.27512e-21)
(1.06477 -0.112135 -8.38864e-21)
(1.0686 -0.114327 4.37222e-21)
(1.06814 -0.109308 -1.42151e-21)
(1.19179 -0.0539489 -9.9599e-21)
(1.19047 -0.0492254 1.83425e-20)
(1.18714 -0.05397 -1.05923e-20)
(1.05152 0.00234651 1.75889e-21)
(1.05119 0.00312398 -2.24925e-21)
(1.05231 0.0029435 -3.83274e-21)
(0.999153 -0.00203936 1.24403e-22)
(0.999059 -0.00209086 -6.77264e-22)
(-0.272401 -0.00876306 4.70643e-21)
(-0.271705 -0.0104961 3.72853e-20)
(-0.246909 -0.0115772 -7.38326e-20)
(0.808222 0.0210606 -3.21718e-21)
(0.837225 0.0239347 6.42936e-21)
(1.00168 -0.0129633 2.13873e-21)
(1.00193 -0.0132143 5.55675e-23)
(1.00163 -0.0133275 -5.23181e-21)
(-0.261622 -0.00803887 1.15076e-20)
(-0.268198 -0.00587525 -3.64036e-20)
(-0.271404 -0.00338374 -1.38756e-19)
(-0.0443267 -0.0194424 1.52679e-20)
(1.25871 -0.170369 0)
(1.26231 -0.164486 2.48791e-20)
(0.998096 -0.0085413 9.99993e-23)
(0.997997 -0.00883347 -4.7103e-21)
(0.997901 -0.00849283 -3.12268e-21)
(1.00289 -7.85464e-05 0)
(1.06731 0.0282268 -9.8102e-22)
(1.06175 0.0299671 -1.28912e-20)
(1.02691 0.0300381 2.71838e-21)
(1.05377 -0.0233045 3.37355e-21)
(1.0546 -0.0245469 0)
(1.0258 -0.00462891 6.66209e-22)
(1.02597 -0.00513076 3.46542e-22)
(1.03086 -0.00953493 0)
(1.03099 -0.00997699 -3.99187e-22)
(1.03149 -0.00952988 -8.97813e-22)
(0.94753 -0.0165941 5.66899e-21)
(0.94538 -0.0162381 -6.96211e-21)
(0.946652 -0.0141274 1.11979e-20)
(1.20322 -0.268231 8.25719e-22)
(1.21101 -0.272389 2.70249e-20)
(1.19332 -0.0574992 -4.20774e-22)
(1.19628 -0.0529659 0)
(1.07587 -0.0776577 3.09305e-21)
(1.07442 -0.0751275 2.88202e-21)
(1.0913 -0.0960558 9.37403e-21)
(1.09146 -0.0992243 -1.0226e-20)
(1.0185 -0.126155 -1.26966e-21)
(1.01962 -0.130048 -1.37222e-22)
(0.945249 -0.223052 2.14658e-20)
(0.944623 -0.229861 8.50501e-21)
(1.02852 0.00237464 -9.94353e-22)
(1.02891 0.00206092 8.29794e-22)
(0.999988 -0.00035819 2.24013e-21)
(0.999989 -0.000351966 -4.09356e-22)
(1.18421 0.0959651 4.71036e-21)
(1.18195 0.0915507 -1.21823e-20)
(1.06915 -0.205234 0)
(1.06612 -0.210937 0)
(1.07313 -0.210179 2.97023e-21)
(1.22411 -0.133133 -3.98467e-22)
(1.22443 -0.126098 2.8218e-20)
(0.272997 -0.0230147 7.47247e-21)
(0.241443 -0.0186421 4.92399e-21)
(0.916204 -0.0462129 -1.31621e-21)
(0.918395 -0.0493127 7.04907e-21)
(1.01156 -0.0471001 -1.00232e-21)
(1.01279 -0.0475481 1.30425e-21)
(1.00439 -0.000220804 -4.718e-22)
(1.00486 -0.000211264 1.33404e-22)
(1.00611 -0.000214835 7.73922e-22)
(1.04782 0.0219349 -4.23685e-21)
(1.00551 0.0239515 8.70543e-21)
(0.436058 0.0317885 -4.29853e-21)
(0.429979 0.032793 3.71362e-21)
(1.02604 -0.00322395 0)
(1.02646 -0.00307633 0)
(1.00484 -0.00740564 -9.13417e-22)
(1.00506 -0.00741025 -1.87353e-21)
(1.00481 -0.00710928 -1.45263e-21)
(1.02606 -0.0035813 0)
(1.02559 -0.00328751 0)
(0.969198 -0.062568 3.87651e-21)
(0.967041 -0.0631557 4.73984e-21)
(0.973552 -0.203838 1.08387e-21)
(0.980669 -0.201831 -4.2232e-21)
(1.33862 -0.137016 6.6267e-21)
(1.33288 -0.144654 6.9998e-20)
(0.988419 -0.0106674 -5.91795e-21)
(0.988069 -0.010142 5.96335e-22)
(0.967906 -0.0130887 -9.94801e-22)
(0.969204 -0.0131837 -1.12473e-21)
(0.968547 -0.0118179 -1.1026e-21)
(1.02241 -0.0045735 0)
(1.02273 -0.00437788 0)
(1.02227 -0.00422292 -1.14611e-23)
(0.613687 -0.542169 0)
(0.577101 -0.559073 0)
(0.953845 -0.43836 0)
(0.933296 -0.436727 2.12343e-21)
(1.22373 0.000936821 2.19618e-20)
(1.22799 -0.000243725 2.20664e-20)
(1.22471 -0.00372971 -1.07003e-20)
(1.12864 -0.30727 0)
(1.12515 -0.31665 -2.0584e-22)