/*--------------------------------*- C++ -*----------------------------------*\
| =========                 |                                                 |
| \\      /  F ield         | OpenFOAM: The Open Source CFD Toolbox           |
|  \\    /   O peration     | Version:  v2012                                 |
|   \\  /    A nd           | Website:  www.openfoam.com                      |
|    \\/     M anipulation  |                                                 |
\*---------------------------------------------------------------------------*/
FoamFile
{
    version     2.0;
    format      ascii;
    class       volScalarField;
    location    "600";
    object      nut;
}
// * * * * * * * * * * * * * * * * * * * * * * * * * * * * * * * * * * * * * //

dimensions      [0 2 -1 0 0 0 0];


internalField   nonuniform List<scalar> 
18758
(
0.000103714
0.0022675
0.00671624
0.0115986
0.0107872
0.0116321
0.00110225
0.0067195
0.000312164
0.000518565
0.00134362
0.00456986
0.00672119
0.0010672
0.00281894
2.49188e-05
0.00100577
0.00671941
0.00416691
0.000440265
0.00353936
0.00672571
0.00785171
0.00049594
0.000475735
0.00671912
3.58398e-05
0.0102615
0.00784321
0.000129679
0.00145356
0.00531605
0.00672348
0.0023414
0.000707329
0.00672339
0.0067245
0.00318282
0.00261934
0.000850042
0.00306037
0.000483013
0.00673689
0.000616816
0.000193023
0.00671623
0.00793899
0.00116882
0.000615443
0.00673405
0.000218678
0.010377
0.00671577
0.00146368
0.0113771
0.00193162
0.00672425
3.18658e-05
0.00408238
0.000976509
0.000157075
0.00150946
0.000318091
0.00118441
0.0067158
0.00672389
0.000899432
0.00672339
0.00363051
0.010637
0.0111085
0.0018829
0.00673506
1.28258e-05
0.00672796
0.00393838
0.00035278
0.0105259
7.73415e-05
0.00589495
0.0100114
0.000293656
0.001052
0.0121404
0.000364999
0.000872669
0.00230981
0.000386858
0.00015806
0.00409929
0.011412
0.00422977
0.00221965
0.000481204
0.010605
0.00230707
0.000401651
0.00672927
0.0067283
0.00482645
0.000379936
0.0117493
0.000577667
0.000314637
0.00323934
4.14505e-05
0.00164688
0.00976238
0.0017947
0.00171478
0.00198892
7.19058e-06
0.00671895
0.00271059
0.00868249
0.00215718
0.00387726
0.00287447
0.00556418
0.0111795
0.000555841
0.00523112
0.00651763
2.09504e-05
0.000126985
0.000112267
0.00134908
0.000563087
0.00259453
0.00673455
0.00105257
3.18907e-05
0.000964475
0.000153688
2.1982e-05
0.000851292
0.000442021
0.000957291
0.00672819
7.32061e-05
6.98239e-05
5.42885e-05
0.00327628
0.0028886
0.00322998
0.00418552
0.00289084
0.00355312
0.00152835
0.00694622
0.000180841
0.000424698
0.00086691
0.00672574
0.0100774
0.000899152
0.00585492
0.00119395
0.00230767
0.00672618
0.00672654
0.000936044
0.00199696
0.00207604
0.000159376
0.00890743
0.00366489
0.00616659
0.00014644
0.0110448
0.00883706
0.00671945
0.00207489
0.0107544
0.000841532
0.000502935
0.00894314
0.00126252
7.54783e-05
0.00271079
0.00671827
0.00018119
0.000467487
0.00675585
0.00174709
0.000585376
0.00620888
0.00304143
0.00673288
0.00617266
0.000148567
0.000547067
0.00182553
0.00154375
0.000315125
0.000343171
0.000418398
0.000155408
0.00672274
0.0067358
8.00822e-05
0.00123382
0.00038178
0.000394992
0.00672052
0.000338151
0.000549729
0.00672591
0.00302445
0.000547427
0.00671926
0.000315648
0.00217751
0.00036792
8.5427e-05
0.00885749
8.03109e-05
2.57306e-05
0.00672178
0.011434
0.00671927
0.00189893
0.000439934
0.00420877
0.00021106
0.000539169
0.000389963
0.000177991
0.0067526
0.000325243
0.00672393
0.000356082
0.00824927
0.000443236
0.00672134
0.00637443
0.00675245
0.0067167
0.00672533
0.00047709
0.00672417
0.000298719
0.0019078
0.00204482
0.00609488
0.000439773
0.000404015
0.00672346
0.010484
0.000339987
0.00672315
0.00739126
0.000934215
0.00031378
0.00322826
0.00057117
0.000511569
2.66527e-05
0.000397672
8.80343e-05
0.00679132
0.000602089
0.0067221
0.000392666
0.000610493
0.000481685
0.00152941
0.0067207
0.00205067
5.23609e-05
0.00210427
0.00176762
0.000358956
0.00879502
0.00256526
0.00344201
0.000204081
0.000366996
0.000224961
0.00160153
0.0057119
0.000689788
0.000467622
0.00388655
0.00057308
0.000337845
0.00663608
0.000265864
0.00823788
0.00674713
0.00671599
0.000165315
0.00907775
0.000560982
8.92182e-05
0.000319487
0.000633052
0.0107501
0.00428147
0.000958551
0.0112431
0.0067165
0.0112793
0.000242276
0.00335521
0.000476285
0.000305312
0.00271557
0.00672319
0.0021777
0.00641822
0.00672154
0.00114487
0.0109737
0.000198057
0.0067221
0.00674813
0.000580918
0.00187763
0.0067526
0.00491857
0.00101162
0.000139957
0.000263758
0.000677286
0.000456069
0.000427073
0.000162518
0.00678819
0.00672592
0.000559622
0.000199483
0.000202005
0.01142
0.000527316
0.00189225
0.00678648
0.000930011
0.0109739
0.00675332
0.00671913
0.00675284
0.000977145
0.000195514
0.000455263
0.00519981
0.00198552
0.00673633
2.47649e-05
5.84881e-05
0.000257768
0.000108759
0.00230163
0.000557997
0.000109619
0.000517243
0.000287747
0.00549145
0.00485679
0.000523867
0.00672053
0.000388538
0.00248685
0.00826245
0.00080207
0.00674699
0.000429726
0.00361904
0.000974037
0.0048395
0.0078835
0.00101861
0.000440226
0.00224368
0.00337295
0.00115666
0.00496222
0.00246228
0.000778501
0.00130026
0.00153767
4.37627e-05
0.00319119
0.00672125
0.00491882
0.00108016
0.000309523
0.00320965
0.00145385
0.00579072
0.000533454
0.00489112
0.00672053
0.00367303
0.00352431
5.99876e-05
0.00240431
0.00672623
0.000358742
0.00940176
0.000476129
0.00671937
0.0110975
0.00510086
0.00369723
0.00671854
0.00070526
0.00586332
0.000573085
0.000123156
0.00687907
0.00562814
0.0112644
0.000703004
0.00672219
0.0014709
0.00367289
0.0067192
0.000726882
0.000615781
0.000152723
0.000480633
0.000520934
0.00672295
4.7773e-05
0.00561243
0.0112913
0.00828753
0.000958802
0.00163435
0.00672026
0.00672351
0.00198302
0.00136332
0.000853993
0.00145031
0.000263589
0.000894794
0.000551485
0.000594384
0.0039361
0.000547226
0.000145535
0.00129542
0.00817553
0.00665474
0.00672254
0.00607702
0.000467675
0.00219268
0.000526737
0.00062676
0.000170013
0.00284075
0.00402435
0.0014287
2.39815e-05
0.0059807
0.000197168
0.000218933
0.00112509
0.000599576
0.000441507
0.00101513
0.00176697
0.000260413
0.00283143
0.00102394
0.00150152
0.0024989
0.00151129
0.00159519
0.00153394
0.00145574
0.0067163
0.000515967
0.00673503
0.00312761
0.0047162
7.87178e-05
0.00672263
0.00108278
0.000989105
0.00672264
0.00672701
0.00671862
0.00434403
0.00238606
0.00839582
0.00101888
0.00182493
0.000299958
0.00672578
0.00672612
0.00942517
0.00672733
0.00672284
0.00027418
0.00672041
0.000221694
0.00030415
0.00672282
0.00563556
0.000432451
0.00136723
0.000778164
0.00662367
0.00201461
0.000201379
0.000773672
0.00672294
1.59646e-05
0.00174048
0.00200309
3.26029e-05
0.00255249
0.00142859
0.000884387
0.000876165
0.00198462
0.00437328
0.00409864
0.00326669
8.48548e-05
0.0067226
0.00648684
0.000563081
0.000443518
0.00674503
0.000210588
0.0096095
0.00311983
0.00406263
0.0026202
0.00270722
0.00398199
0.00672928
0.00672631
0.00725262
0.00123036
0.00933953
0.0053982
0.00023028
0.00371883
0.00672222
0.00673355
0.00117297
0.00672232
0.00152137
0.00095625
0.00268884
0.000355148
2.48946e-05
0.00671924
0.00970004
0.011634
0.000232007
0.000244636
9.7869e-05
0.000527237
0.00162956
0.000992141
0.0110022
0.00106752
0.00152324
0.00308866
0.00442842
0.00058316
4.9884e-05
0.000415359
0.00106525
0.00125808
0.00392058
0.00039087
0.000463772
0.00154465
0.000113915
0.00191285
0.00335209
0.00137164
0.0049616
0.00671891
0.00672047
0.011561
0.00376208
0.00282275
0.000803355
0.000356509
0.0116952
0.00417846
0.00064988
0.000899442
0.00472791
0.0112427
0.00159984
0.00318697
0.000850526
0.0106973
0.00429935
0.00245792
0.00133946
0.00291088
0.00671734
0.00339591
0.000362678
0.0115679
0.00811065
0.00283255
0.00672259
0.000533943
0.00672597
0.00672593
0.00102697
0.00277633
0.000306239
0.000669674
0.000153201
0.00940889
0.000228164
0.00672253
0.000460846
0.000201351
0.00964725
0.00126944
0.000628061
0.000409336
0.00314212
0.000804043
0.0061899
0.00177509
0.00675668
5.10744e-05
0.012444
0.000152024
0.00672032
0.00341253
0.000273993
0.000505424
0.00673406
0.000678254
0.00194102
0.00214466
0.00122407
0.00672394
0.00900514
0.00672632
0.000652954
0.00529902
0.000264525
0.00137775
0.00066543
0.00755758
0.000575032
0.00236397
0.00145261
0.00520683
0.0126504
0.00143074
0.00828204
0.0041203
0.000543103
0.00672589
0.000348924
0.00082668
0.000195351
0.00672269
0.000662271
0.00034104
0.0106456
0.00608517
0.00107918
0.00048881
0.000414303
0.000454599
0.00182752
0.00653256
0.00672335
0.00213937
0.00142375
0.0067229
0.000825678
0.00672242
0.00673767
0.00671904
0.0103686
0.00163994
0.00672565
0.000552754
0.000469207
0.00672031
0.00224749
0.00387141
0.00661934
0.000369853
0.000211515
0.00183604
0.00144467
0.000496329
0.000198877
0.000381603
0.00588965
0.000415694
0.0122125
0.000538314
0.000385732
0.0016879
0.00214243
0.00675428
0.0108474
0.000570603
0.00671856
0.00741182
0.00672273
0.00671899
0.000636949
0.00671948
0.000148452
0.0106792
0.00673291
0.00164482
0.00469258
0.00062817
0.0127818
0.0067187
0.0122516
0.00108311
0.00354322
0.00672913
0.00672365
0.000270722
6.97334e-05
0.0017875
0.00022691
0.0104635
0.000505383
0.00672278
0.00038993
0.00152596
0.00120165
7.51382e-05
0.000259912
0.00185293
0.000886668
0.000269772
0.00174538
0.000437345
0.00672004
0.000886208
0.00226389
8.45696e-05
0.000409756
0.00236624
0.00720644
0.00131664
0.00672454
0.00108338
0.00110168
0.00671914
0.000809658
0.000279204
0.0002899
0.000611037
0.00112575
0.00840409
0.00672241
0.00672404
0.00472376
0.00672302
0.000295893
0.000645357
0.00142459
0.00672282
0.000396956
0.00672836
0.00367125
0.00123133
0.000286197
0.00016112
4.13702e-05
0.000225373
0.00672271
0.000994173
0.00976337
0.0067215
0.000834957
0.00149889
0.0107179
0.000925031
0.010269
0.00672005
0.000591768
0.00672586
0.000590441
0.00318481
0.0019006
0.00177079
0.00671953
0.00679174
0.00672041
0.00486384
0.000316891
0.00121059
0.0122901
0.00307636
0.000889272
0.000927475
0.00031489
0.00573627
0.00120404
0.00672544
5.69824e-05
0.00672189
0.00317075
0.000908378
0.00294735
0.00723341
0.000672063
0.00065212
7.38465e-05
0.00117019
0.00504862
0.00036777
0.00671909
0.000962281
0.00102778
0.00672355
0.00853096
0.0102674
0.00672252
0.00259121
0.000702527
0.00192373
8.05856e-05
0.000803845
0.0107073
0.000227094
0.00671975
0.00672986
0.00943311
0.00332243
0.00359446
0.00100941
0.00313768
0.00471002
0.000792156
0.000504418
0.0126386
0.000608008
0.000716301
0.00162603
0.00671975
0.00671474
0.00671989
0.00258662
0.00260257
0.000769056
0.00672279
0.00672474
0.00175162
0.00519027
0.000631515
0.000618422
0.000209491
0.0094146
0.000799846
0.000432047
0.000744372
0.003894
0.000265857
0.00410279
0.00614492
0.000573702
0.00685322
0.00738339
0.00264296
0.00122333
0.000160794
0.0126245
0.00630245
0.000133221
0.000200642
0.00647064
0.00672052
0.000423025
2.29024e-05
0.00120561
0.00672037
0.00323168
0.000712888
0.00793097
1.9565e-05
9.82921e-05
0.00589976
0.00203845
0.000348141
0.000335948
0.00235011
0.000229191
0.00672323
0.0014063
0.000224439
0.00672114
0.00672205
0.0013809
0.000575016
0.00671949
0.0017686
0.00673621
0.00128051
0.000590546
0.00547739
0.0067509
0.000130138
0.00672446
0.000364256
0.000323815
0.000296455
0.00672333
0.00247301
0.000127033
0.000404384
0.000953498
0.0039397
0.00131294
0.003834
0.00279497
0.0124592
0.000223287
0.00020223
0.00672242
0.000505248
0.00672247
0.00062675
0.0067348
0.000367508
0.010114
0.00671923
0.003884
0.00118281
0.00366655
0.00586772
0.0028352
0.00115517
0.00188638
0.0067232
0.00673502
0.00672004
0.0004111
0.00145217
0.000204887
0.00156011
0.00897698
0.0067314
0.0067298
0.00771614
0.00575261
0.00990867
0.00671795
0.000380906
0.000939146
0.00672767
0.0049926
0.00672238
0.00799169
0.00213455
0.00672375
4.32302e-05
0.000690875
0.00671994
0.000362545
0.000409935
0.00672228
4.39085e-05
0.00671954
0.000319103
0.0101445
0.00212568
0.00672784
0.000802585
0.00130417
0.000279671
0.000617686
0.000817293
0.00673842
0.00110193
0.000488511
0.00672342
0.00675893
0.00672137
0.00186546
0.000422535
0.00146074
0.00440219
0.000952165
0.00178245
0.00300438
0.000511672
0.00625556
0.00672939
0.00135193
0.000154319
0.00672515
0.00287868
0.00672233
0.00336106
0.00672981
3.08144e-05
0.0125525
0.00672286
0.00158866
0.00671905
0.00060485
0.00671966
0.00461884
0.000567
0.00672568
0.00676348
0.00672303
0.000225317
0.00671983
0.00396832
0.0116239
0.00184942
2.5525e-05
0.000140585
0.012462
0.000135316
0.00672254
0.00672614
0.00061828
0.0047519
0.000630401
0.000688923
0.000613488
0.000574047
0.00341126
0.000434921
0.00136361
0.00672193
0.000240394
0.00964527
0.000248464
0.00671948
0.00495186
0.00102729
0.00174179
0.000633521
0.00196093
0.00672308
0.00676316
0.00678464
0.000975128
0.00672293
0.00544504
0.0124712
4.26403e-05
0.00172265
0.00672578
0.000216946
0.000792494
0.0067227
0.00059822
0.000383085
4.73305e-05
0.00062236
0.00294309
0.00150732
0.000665207
0.00671971
0.000220748
0.0019549
0.000217636
0.000397677
0.000306197
0.00513857
0.000530227
0.0124522
0.0113775
0.000353994
0.000207773
0.00218242
0.00672298
0.00672295
0.00188469
0.000278706
0.0067233
0.000963358
0.000339225
0.000967184
0.00672012
0.00671969
0.0038173
0.00672586
0.000632145
0.00785269
0.000732788
0.00672326
0.00235705
0.000324951
0.00672286
0.00125352
0.00677127
0.000319769
0.00152046
0.00559144
0.0106544
0.00016541
0.0124262
0.00308389
0.000466883
0.00551849
0.00752833
0.011055
0.00673956
0.000825443
0.000789476
0.00672228
0.00671924
0.00254607
0.00353552
0.00672163
0.000226152
0.000417683
0.00672015
0.000866315
0.0067228
0.00123194
0.000439014
0.00672314
0.011716
0.00100441
0.00671973
0.000442381
0.000181568
0.000620224
0.00672613
0.00078438
0.00263391
0.0108302
0.00609881
0.00673764
0.00425333
0.00671804
0.0125527
0.00671988
0.00040583
0.00840593
0.00960089
0.00294511
0.00162299
0.00672217
0.00102616
0.000846771
0.000437653
0.00671425
0.0011526
0.00672336
0.00367764
0.00022619
7.18779e-05
0.000256343
0.00672004
0.00445484
0.000366236
0.00222648
0.00022284
0.00669828
0.00550391
0.00929193
0.00672172
0.00673857
0.00479505
0.0123062
0.00508965
0.00627772
0.0113361
0.00125769
0.00742923
0.00119182
0.00671658
0.00671895
0.00188139
0.00191148
0.0067248
0.009208
0.00845628
0.00672
0.00837051
0.000299808
0.00455799
0.0029789
7.67919e-05
0.0067245
0.00108417
0.000384745
0.00672016
0.000723283
0.00275746
0.000367242
0.00398236
0.0032839
0.000445915
3.11568e-05
0.000531995
0.00545302
0.00206909
0.00672146
0.000284476
0.00186077
0.0107123
0.00671825
0.00323881
0.000851445
0.00672578
0.000202673
0.00671787
0.0023198
0.00669323
0.000278301
0.000633381
0.000553445
0.000767206
0.00178921
0.00151002
0.000468623
0.000521058
0.00146109
0.00576308
0.00672391
0.00672316
0.00195535
0.00671896
0.000338393
0.000736281
0.000418255
0.00672021
0.00134841
0.00299635
0.00148637
0.00672019
0.000305852
0.00228185
0.0067278
0.00704876
0.0118103
0.00113508
0.00672288
0.0028594
0.000752099
0.00434124
0.000209224
8.62603e-05
0.0080542
0.000922927
0.0107841
0.00252407
0.00406962
0.00671995
0.0117692
0.00465376
0.00672172
6.34044e-05
0.00474558
0.00672365
0.0067227
0.00138807
0.000821457
0.00672368
8.15986e-05
0.00846627
0.00156862
0.00671875
0.00195774
0.0115063
0.00679359
0.00209296
0.00672617
0.00671979
0.00395083
0.00672968
0.000585249
0.00369065
0.00423624
0.00535301
0.00672609
0.000761519
0.00672161
0.00459027
0.00320119
0.00547881
0.000477454
0.000560611
0.000205703
0.00150581
0.00320669
0.00672378
0.00672458
0.00958792
0.00465954
0.000439289
0.000133279
0.00943851
0.00671957
0.00672181
0.0103851
0.00672234
0.000161157
0.00032832
0.00212535
0.0115862
0.0114881
0.000296301
0.00181582
0.000881079
0.00127886
0.00673147
0.000621514
0.00672102
0.000256438
0.00672294
0.00588291
0.000531428
2.56031e-05
0.000110161
4.28917e-05
0.00672218
0.00709437
0.0067236
0.0100721
0.000571514
0.00671881
0.00673383
0.00496859
0.000416692
0.000144011
0.0115009
0.00111762
0.00558415
0.00671818
0.00454932
0.00199095
7.02971e-05
0.000342439
0.00672302
0.00672248
0.000785546
2.55281e-05
0.004573
0.000394014
8.68696e-05
0.00508518
0.00159666
0.00104424
0.000477643
6.59597e-05
0.0011154
6.96029e-05
0.00674984
0.00672189
0.00366321
0.000442832
0.000353481
0.000575707
0.00672575
0.0027178
0.00017804
0.000125407
0.0087263
0.00672664
0.00564474
0.00563544
0.000946216
0.00671711
0.00851294
0.000443858
0.00672048
0.000790903
0.00776319
0.00156008
0.00672012
0.000421392
0.00672571
0.00300553
0.000336256
0.00385005
0.00672601
0.00672398
7.34875e-05
0.00164133
0.00286251
0.00125601
0.00619803
0.000243167
0.00672542
0.00672696
0.000298363
0.00218561
0.00535579
0.00431487
0.000225655
0.0037812
0.00049676
0.00754796
0.0020504
0.00478817
0.00341017
0.00980677
0.00673747
0.00906203
0.000190343
0.00625599
0.0053221
0.000416683
9.19551e-05
0.00672589
0.000421352
0.00672069
2.20284e-05
0.0067152
0.000714213
0.00267607
0.00672752
0.00899146
0.00278092
0.00343775
0.00144724
0.0073961
0.00672261
0.0067217
0.00578577
0.00577968
0.0067797
0.00672255
0.00197415
0.00672289
0.00672351
0.000510124
0.0067234
0.000456277
0.00675469
7.95527e-05
0.00329832
6.62146e-05
0.00692899
0.00151118
0.000511249
0.00672961
0.00671961
0.00297741
0.00311305
0.00826737
0.00372842
0.00672588
0.00672471
0.00107993
0.00672098
0.000331441
0.000616711
0.0115801
0.0125317
0.00403152
0.00819017
0.00678475
0.0111153
0.00741363
0.0120138
0.000635574
0.00215664
0.00133735
0.0067319
0.0082756
0.000545979
0.000454573
0.000863285
0.00362612
0.00672664
0.00671621
0.00790362
0.000490237
0.00319067
0.00671515
0.00130613
0.00672226
0.001996
0.00301367
0.0050773
0.0101605
0.000760376
0.000700745
0.00491861
0.000356205
0.00672298
0.00585716
0.00677538
0.00536601
0.00254304
0.00488596
0.00028713
0.00714372
0.000253614
0.000398707
0.00149692
0.000462514
0.00260628
0.00174429
0.00556248
0.00742775
6.94525e-05
0.0125572
6.21638e-05
0.000564856
0.000536532
0.00167232
0.00672972
0.000295003
0.00161406
0.00672276
0.0041314
0.00674046
0.00303874
0.00672327
0.00959733
0.000618853
0.00671985
0.00519206
0.00649552
0.000122397
0.000108647
0.000762397
0.0025561
0.00533921
0.00671881
0.00658233
0.000425909
0.000122732
0.00671477
0.0115016
0.00102801
0.0116719
0.00672038
0.00317873
0.000163893
0.00672759
0.00672286
0.00484311
0.00613363
0.0116589
0.0014656
0.00671946
0.00199142
0.00672031
0.0115892
0.000488246
0.00672277
0.000560915
0.00533313
0.0018478
0.00816967
0.00676696
0.00672881
0.00672266
0.00677959
0.00672842
0.00321515
0.0067138
0.00197095
0.000742915
0.000510916
0.00671968
0.00234695
0.00146037
0.010911
0.00164888
0.000210942
0.0105122
0.0116422
0.00465133
0.00110497
0.00672059
0.00559123
0.00153808
0.000627698
0.00582493
0.000446097
0.00133211
0.00254589
0.000998007
0.00672016
0.0115622
0.000172937
0.00700486
0.00365033
0.000301704
0.00137667
0.00671824
0.000842269
0.000904491
0.0067277
0.00931152
0.00672254
0.00119074
0.00672078
0.000411986
0.000300799
0.000504252
0.000599622
0.000809909
0.000784839
0.000863921
0.00159354
0.00676274
0.00787101
0.000362425
0.00672571
0.000289808
0.000671642
0.000692603
0.00638559
0.0018372
0.00672327
0.00674663
0.0038727
0.0100008
0.00121874
0.00672264
0.00266517
0.00672299
0.00672106
0.000647703
0.0107293
0.00204736
0.00255937
0.0127063
7.44938e-05
0.00417481
0.00240938
0.0115313
0.00059938
0.00671658
0.00138795
0.00285252
0.00309376
0.00091386
0.00167947
0.000803199
0.000431839
0.000106596
0.00426009
0.00678578
0.00672032
0.011804
0.00672581
0.00137372
0.0120368
0.00672334
0.00540895
0.00672593
0.00129384
0.000403262
0.00671971
0.000914356
0.00253978
0.00164208
0.000254528
0.00143529
0.0067218
0.00788229
0.00673819
0.000677394
0.000456671
0.000642234
0.0067226
0.00496691
0.012023
0.00671885
0.00672043
0.00197314
0.000373993
0.000632117
0.000311356
0.000798629
0.00673
0.00124133
0.00241011
0.00160438
0.0125019
0.00672385
0.000307091
0.0118544
0.000535456
0.00622026
0.000349047
0.00676282
0.0067241
2.92379e-05
0.000244745
0.000353908
0.00672489
0.00671975
0.000651738
0.000745956
0.0038316
0.00176181
0.00492848
0.002495
0.00671951
0.00380857
0.0115861
0.00671621
0.00783211
7.37857e-05
0.000935893
0.00672937
0.00595676
0.00900412
0.00675234
0.0067264
0.00593311
0.00196651
8.81909e-05
7.82848e-05
0.000503444
0.00672185
0.00121742
0.000438537
0.00672602
0.00929161
0.000252956
0.00488659
0.000484654
0.00049937
0.00672285
6.02256e-05
0.00672324
0.000131821
0.00160359
0.00109674
0.00671458
0.00468709
0.000338552
0.00320125
0.0123834
0.00226605
0.00328023
0.00346582
0.00672008
0.00673203
0.0120806
0.00672581
0.000224135
0.00671984
0.00673518
0.000402191
0.00916178
0.00672044
0.0067203
0.00436225
0.00163752
0.000734019
0.000882857
0.00676694
0.00179387
0.00671834
0.000320997
0.0123848
0.00202252
0.000911677
0.00760287
0.000638534
0.0021538
0.000591837
0.0067304
0.00402218
0.00176262
0.00672274
0.00137722
0.00411354
0.00672991
0.00379662
0.011066
0.00308172
0.000550594
0.0123218
0.000579239
0.00173901
0.00671933
0.00759146
0.00672588
0.000571921
0.00674007
0.000743336
0.000549663
0.00235975
0.00130408
0.00712191
0.000866073
0.00672451
0.00696974
0.00556647
0.00672037
0.000430825
0.00672011
0.000450955
0.00607452
0.000131805
0.000544632
0.00190664
0.00270276
0.0113748
5.53182e-05
0.00671889
0.000992557
0.00672191
0.00671832
0.00672794
0.000789059
0.00437414
0.00176323
0.00168132
4.98045e-05
0.00282461
0.00241905
0.00672065
0.000139456
0.00626356
0.00245227
0.00126478
0.0126718
0.00337251
0.000729062
0.000816059
0.00673076
0.00250067
0.0061786
0.00296388
0.006727
0.00672712
0.000975135
0.00671966
0.00672573
0.000549431
0.00109769
6.61924e-05
0.00277473
0.00672023
0.00684034
0.00672089
0.000270827
0.00577089
0.00671706
0.000997769
0.00672692
0.0114121
0.00459665
0.000760938
0.00625726
5.56198e-05
0.000532121
0.00546639
3.04805e-05
0.00672263
0.000211187
0.00231567
0.00112544
0.0067247
0.00672007
0.000406189
0.000387761
0.0100758
0.00101131
0.000218539
0.000925832
0.00267918
0.000645296
0.00221343
0.0122519
0.0113998
0.00712185
0.00618672
0.00671411
0.00447971
0.00744861
0.00672302
0.0061136
0.00672309
0.000884868
0.00671456
0.00396406
0.00449036
0.00475833
0.000395011
0.000185768
0.000413739
0.00525574
0.00672398
0.0067165
0.00671977
0.00671826
0.00672539
0.00672092
0.0108035
0.00852492
0.00890194
0.00119882
0.00705771
0.000443941
0.0106436
0.00690424
0.00047469
0.00672213
0.00192019
8.26688e-05
0.00174864
0.00920482
0.00302973
0.00177202
0.00671763
0.00163775
0.00953749
0.00672183
0.0111892
0.00467024
0.00672257
0.0105318
0.00672855
0.000389555
0.00672313
0.00774794
0.0067563
0.00504283
0.000271382
0.00674202
0.00672285
0.00421382
0.00671877
8.99184e-05
0.00595416
0.000374761
0.00672108
0.00672423
0.00672735
0.00305301
0.000509412
0.00212034
0.0123903
0.00672275
0.00675105
0.000886452
7.65276e-05
0.00231613
0.0107458
0.00947867
0.000895491
0.00858582
0.00672205
0.00338597
0.00219185
0.00675141
0.00904717
0.00876938
0.00671814
0.00187449
0.00510806
0.00215127
0.000520602
0.000854706
0.00672313
0.000535054
0.000220432
0.000598168
0.000845589
0.00672055
0.00248041
0.00586703
0.00672442
0.00506063
0.00671439
0.00672381
0.000621795
0.00335694
0.000831159
0.0114723
0.00672029
0.000202343
0.00387578
0.00352221
0.00251011
0.00672675
0.00672322
0.00672479
0.00672273
0.00672323
0.00172825
0.00302213
0.00287644
0.00672552
0.00198771
0.0109823
0.002865
0.0021433
0.0107542
0.00672413
0.001345
0.00609318
0.000656122
0.0105231
0.000276724
0.0101051
0.00064834
0.00315276
0.0054356
0.000758971
0.00542762
0.000346684
0.00117566
0.00672454
0.00517449
0.00223778
0.00674424
0.00032078
0.00548183
0.00674315
0.00616726
0.000245308
0.0067199
0.00436162
0.00674032
0.00317207
0.00937874
0.00222543
0.00672191
0.00488095
0.00672286
0.00135181
0.000175072
0.00156419
0.000278074
0.000188729
0.00672378
0.0112827
0.00115121
0.00554085
0.00657296
0.00674637
0.00279701
0.00672068
0.00204792
0.00178416
0.00934441
0.00396246
0.00671961
0.0016744
0.00233474
0.000753484
0.00673157
0.00804393
0.000501869
0.000185287
0.00102392
0.00890815
0.00080992
0.00123291
0.00773757
0.00298749
0.00672107
0.00127365
0.0100205
0.00327711
0.000354747
0.00352364
0.0067199
0.000326694
0.00022414
0.000860532
0.00672627
0.000246459
0.00673212
0.000255986
0.000232189
0.000549885
0.00819658
0.00672094
0.000569128
0.000502974
0.00372682
0.000309601
0.00532087
0.00163586
7.47308e-05
0.000312901
0.00553342
0.00672632
0.00672467
0.000403139
0.0067188
0.00356036
0.00562667
0.00672179
0.00675419
0.000217677
0.00671461
0.000358824
0.00992192
0.00163413
0.0067378
0.00674716
0.000273177
0.000258126
0.006723
0.00595637
0.000123242
0.00672945
0.00671712
0.0118007
0.00999739
0.00671889
0.000677705
0.000230262
0.00672243
0.00358389
0.00373774
0.000280039
0.00672475
0.00288571
0.00905912
0.00672531
0.000882085
0.00822024
0.000511312
0.0054302
0.00672492
0.000670713
0.0107309
0.00678438
0.00120503
0.000592858
0.00149828
0.000686145
0.00266912
0.00467268
0.00992754
0.0115462
0.00236082
0.00311597
0.00081046
0.00421992
0.000258346
0.000963294
0.00305516
0.0067569
0.00672364
0.00544602
0.00429508
0.0067192
0.000695505
0.00851082
0.000441131
0.00672654
0.00672265
0.00140502
0.00111393
0.00118317
0.00672294
0.000713724
0.0071873
0.00671884
0.00413131
0.000881877
0.000416597
0.00672266
0.000624887
0.00174565
0.00105702
0.00134217
0.000419228
0.00752905
0.000483753
0.000163947
0.00685288
0.00671915
0.00409606
0.0014193
0.011863
0.00102395
0.000570781
0.00672424
0.00883611
0.000690656
0.00673215
0.00080296
0.00190418
0.0107256
0.000425385
0.000851004
0.000180427
0.000933823
0.00672309
0.00672394
0.0067249
0.00131186
0.00899726
0.00182663
0.00672294
0.000328563
0.0046342
0.0117195
0.00493989
0.0126703
0.000909209
0.0109746
0.000573381
0.000142512
0.00421895
0.00672529
0.00671912
0.00863205
0.00421159
0.00131848
0.00318564
0.00671417
0.00346042
0.000320878
0.00513621
0.00247566
0.00671986
0.00489159
0.00678266
0.00109776
0.00538065
0.00575847
0.00672588
0.00144147
0.00162626
0.00182386
0.0036559
0.00528013
0.00250857
0.0010728
0.00232015
0.000274929
0.000296046
3.58475e-05
0.000398922
0.00673852
0.00381762
0.00150338
0.00964155
0.0053024
0.00672123
0.00672816
0.00674074
0.00671423
0.00363168
0.006719
0.000212798
0.00758559
0.000879103
0.00970833
0.000700593
0.00672411
0.00672302
0.000101719
0.00672393
0.00234938
0.00672202
0.00647503
0.00180365
0.00671937
0.00247246
0.00673358
0.00626189
0.00672587
0.0067227
0.00629066
0.00028409
0.00189543
0.00492626
0.000279512
0.00673186
0.00121512
0.000911499
0.00220237
0.000347708
0.00175989
0.00672276
0.0108082
0.00275714
0.0025565
0.00174827
0.00673976
0.000339812
0.00672138
0.0125742
0.00673825
0.00572597
0.00962045
0.000447388
0.00210196
0.00671886
0.000496203
0.000225254
0.000360864
0.0119451
0.00671875
0.00673792
0.00674012
0.000132318
0.00121427
0.000579921
0.0067227
0.00118159
0.00731331
0.000397609
0.00672375
0.000139167
0.000560747
0.00363805
0.000937721
0.00218402
0.0016406
0.00223247
0.00598037
0.00235547
0.0116133
0.00675052
0.000539113
0.00566823
0.000138872
0.0106233
0.00741376
0.00438231
8.09617e-05
0.00672368
0.000786688
0.00672437
0.00195185
0.00226309
0.000335077
0.00029349
0.00672116
0.000674769
0.00185591
0.00031483
0.000600594
0.0117604
0.00672208
0.00248198
0.00686005
0.000230076
0.00523836
0.00113339
0.0114049
0.000585178
0.0067202
0.000181572
0.00331693
0.00726873
0.00672773
0.0114006
0.000649445
0.00677023
0.00023869
0.00263595
0.0067259
0.00274515
0.00107932
0.00671891
0.00181777
0.0067183
0.00265907
0.000390964
0.000393863
0.00177715
0.0080987
0.0067257
9.50008e-05
0.000326896
0.00212445
0.000922551
0.00167868
0.00314434
0.00672463
0.00896339
0.00846015
0.00350353
0.00675454
0.000696307
0.00672288
0.0107131
0.00672198
0.000486898
0.00723047
0.00309781
8.68472e-05
0.003522
0.000813113
0.00777462
0.000569004
0.00672191
0.00672299
0.00672462
0.0117726
0.000672052
0.000307954
0.0118784
0.00281818
0.00672404
0.00770503
0.000369102
0.000302812
0.00672354
0.00573041
0.00543454
0.000627655
0.00296914
0.00162573
0.00675967
0.00672297
0.00671894
0.00870948
0.00801151
0.000935484
0.000278577
0.00143977
0.000582156
0.00672543
0.00672269
0.000773809
0.0026598
0.00672891
0.000575097
0.000154379
0.00118338
0.0002259
0.00279005
0.000660421
0.0120165
0.00240484
0.00678262
0.00293694
0.0123062
0.000316958
0.000145434
0.000710915
0.00604536
0.00472391
6.88714e-05
0.00160122
0.000460555
0.00743464
0.000417021
0.0102243
0.0061268
0.00773849
0.000827244
0.00182612
0.00671989
0.000517737
0.0118014
0.0067234
0.000305127
0.00607772
0.00672264
0.000552658
0.000198771
0.000648594
0.00625131
0.0022309
0.00223451
0.00672255
0.00677408
2.46737e-05
0.00273191
0.00310464
0.0018265
0.00671943
0.00672358
0.00295961
0.00512116
0.00672622
0.000891781
0.000498629
0.00116035
0.00672197
0.000321941
0.00338953
0.0116204
0.00124367
0.00319161
0.00137092
0.000176699
0.000226495
0.00316943
4.74301e-05
0.000239653
0.00673673
0.00613553
0.00184533
0.00146261
0.000509494
0.00897781
0.00672433
0.000463786
0.000239625
0.000278525
0.00403307
0.000462927
0.0106694
0.000530703
0.00945585
0.000534118
0.009301
0.00110569
0.00611242
0.00244493
0.0110372
0.0120014
0.00060251
0.00298546
0.00612835
0.00454259
0.00958714
0.00672136
0.00671722
0.000428149
0.000581414
0.00762023
0.00257718
0.000193753
0.00671755
0.00471349
0.00672433
0.00804804
0.000562972
0.0120487
0.00181007
0.00202889
0.000316969
0.00792327
0.00123809
0.011112
0.00672727
0.00672382
0.00063605
0.00672338
0.0094641
0.000260642
0.0107586
0.00271302
0.0065582
0.00477103
0.00671437
0.000257142
0.00807353
0.000147424
0.00671745
0.00172128
0.00672033
0.0108748
0.00671496
0.001808
0.0103945
0.00109742
0.000155173
0.00046895
0.0067172
0.00199153
0.000322682
0.00333104
0.00675634
0.00671837
0.00107501
0.0059076
5.08368e-05
0.00672334
7.56598e-05
0.00626324
0.00672301
0.00479813
0.00586119
0.00682193
0.0049479
0.00672277
0.000501876
0.00855843
0.00672886
0.00672328
0.00237665
0.00231819
0.000914779
0.00671812
0.00854393
0.00316276
0.0100589
0.00672043
0.00837697
0.00439695
0.000606433
0.00594654
0.000323236
0.000328751
4.50278e-05
0.00878048
0.000156065
0.00229583
0.00845236
0.00182958
0.000956241
0.000645231
0.000661127
0.000232428
0.00578529