/*--------------------------------*- C++ -*----------------------------------*\
| =========                 |                                                 |
| \\      /  F ield         | OpenFOAM: The Open Source CFD Toolbox           |
|  \\    /   O peration     | Version:  v2012                                 |
|   \\  /    A nd           | Website:  www.openfoam.com                      |
|    \\/     M anipulation  |                                                 |
\*---------------------------------------------------------------------------*/
FoamFile
{
    version     2.0;
    format      ascii;
    class       volScalarField;
    location    "300";
    object      k;
}
// * * * * * * * * * * * * * * * * * * * * * * * * * * * * * * * * * * * * * //

dimensions      [0 2 -2 0 0 0 0];


internalField   nonuniform List<scalar> 
18355
(
0.000300131
0.000137018
0.000403194
0.000140993
0.00020608
0.000291891
0.000150066
0.000204142
0.000150469
0.00095131
0.000158138
0.00018789
0.000189098
0.000323945
0.000142774
0.000135516
0.000140978
0.000154888
0.000230693
0.00014989
0.000406355
0.000149084
0.000136979
0.000294255
0.00013706
0.000151396
0.000150022
0.000141181
0.000150784
0.000159536
0.00992775
0.000189226
0.000137939
0.00013442
0.000153595
0.000153101
0.00016089
0.00015344
0.000160505
0.000148313
0.000151835
0.000159316
0.000134559
0.000136827
0.000136936
0.00107058
0.000141495
0.000141349
0.0103466
0.00014535
0.000143763
0.00911366
0.000145482
0.000230965
0.000143248
0.000150182
0.000154587
0.000783052
0.000152108
0.0565004
0.000134514
0.000185249
0.000230119
0.00014829
0.000203741
0.000141907
0.000154936
0.000161035
0.00013423
0.00127826
0.00014333
0.000143294
0.000178681
0.000157703
0.000288901
0.00013437
0.000737028
0.000134475
0.000143031
0.000266231
0.000154808
0.000276289
0.000134332
0.000157255
0.000187216
0.000147413
0.000154091
0.000176756
0.000140928
0.000177013
0.000644259
0.00035752
0.000271576
0.000145373
0.0090486
0.00015365
0.000140353
0.00014955
0.000195672
0.000148596
0.000184396
0.000142533
0.000145225
0.000131042
0.000155381
0.000135629
0.000203447
0.00757295
0.000168686
0.000135136
0.000149339
0.00015078
0.000169262
0.000156616
0.0260606
0.000162002
0.000142251
0.000342393
0.000152509
0.000154435
0.000483225
0.00047468
0.00061802
0.00018261
0.00032506
0.00679965
0.000150256
0.000141334
0.000307111
0.000147605
0.00014045
0.0157645
0.000143842
0.000191547
0.000222871
0.000141
0.000229841
0.00431474
0.000142465
0.00040224
0.000157816
0.000206664
0.000141281
0.00100921
0.0002237
0.000146833
0.060382
0.000133074
0.000168817
0.00354147
0.000141096
0.000154267
0.000145748
0.000173573
0.000134669
0.000138272
0.000141513
0.000147363
0.000141372
0.000139273
0.000155353
0.000143981
0.000135193
0.000185935
0.00015792
0.00076672
0.0604394
0.000336453
0.00887623
0.000157776
0.000152076
0.000189769
0.000147181
0.0101843
0.000155344
0.000151196
0.000150273
0.000130905
0.000151716
0.000164332
0.000147473
0.000612462
0.000148404
0.000141507
0.000422431
0.000145221
0.000148159
0.000176163
0.000143389
0.000150525
0.00243976
0.00019478
0.000137316
0.000135362
0.000143915
0.0321132
0.000140546
0.000349553
0.000137119
0.000320504
0.000144993
0.000154079
0.000160857
0.000147283
0.00032507
0.000146929
0.00745881
0.000141477
0.000137379
0.000144885
0.000146849
0.000233381
0.000154963
0.000150621
0.000133495
0.0103136
0.000164404
0.000157356
0.000147099
0.000141684
0.000167389
0.000134615
0.000174356
0.00019574
0.00020218
0.000164949
0.000134811
0.00360698
0.000272288
0.000172904
0.000148757
0.000155438
0.00199841
0.000134808
0.00018689
0.000191654
0.000149331
0.00328163
0.000156012
0.000150662
0.000137353
0.000151435
0.000147736
0.000170739
0.00014693
0.000143237
0.000141224
0.000231595
0.000250829
0.000144397
0.000151342
0.000249514
0.000204741
0.000202518
0.000130837
0.000346883
0.000156044
0.000147791
0.000164648
0.000139946
0.00354785
0.000903586
0.00019159
0.000162354
0.00016203
0.000185422
0.000193903
0.000199445
0.000139896
0.000143285
0.000150982
0.000135213
0.00015438
0.000157623
0.000140811
0.000146862
0.000171118
0.00014083
0.000208017
0.008348
0.000166861
0.000147037
0.000163296
0.000135094
0.000177108
0.000146349
0.00016601
0.000149093
0.00016481
0.00354545
0.000137647
0.000175752
0.000152177
0.000167229
0.000192895
0.000144991
0.000135173
0.00020449
0.000146856
0.000205342
0.000160816
0.00531187
0.000177441
0.000192462
0.000154334
0.000174036
0.000144773
0.000154518
0.000161787
0.000175863
0.000934208
0.028295
0.000142779
0.000161185
0.000223119
0.000164523
0.000142688
0.00014129
0.000141194
0.000174312
0.0268485
0.0471327
0.000868639
0.000169986
0.000157144
0.000255365
0.000132633
0.000146732
0.000157069
0.00014434
0.000173048
0.000153425
0.00039041
0.000135932
0.000359464
0.000143618
0.000148149
0.000155723
0.000193164
0.000368402
0.000170914
0.00071789
0.00014865
0.000141064
0.000144224
0.000155733
0.00137949
0.000141315
0.000145583
0.00363458
0.00014844
0.000141453
0.000201161
0.000154101
0.000141211
0.000147701
0.000167416
0.000152613
0.000167207
0.000136873
0.000145522
0.000148381
0.0523379
0.00106969
0.000136507
0.000141053
0.00017442
0.000141264
0.000147356
0.00027359
0.00122855
0.000175437
0.000144074
0.00014956
0.000189859
0.000151849
0.000377612
0.00015464
0.00013673
0.000170676
0.000187486
0.000147935
0.000144334
0.000154856
0.00014646
0.000156756
0.00014386
0.000228016
0.000147824
0.000153699
0.000144989
0.00014127
0.000154115
0.000153106
0.000182582
0.0537795
0.00161516
0.000160739
0.000204892
0.000169229
0.000143843
0.0001518
0.00017374
0.000143408
0.000177927
0.000149172
0.000161651
0.000255161
0.000232702
0.000359479
0.000195935
0.000131281
0.0419642
0.000148634
0.000140745
0.000839997
0.00014316
0.000164878
0.000160537
0.00021222
0.000143127
0.000188198
0.00144142
0.000188537
0.000144968
0.000137499
0.000189594
0.000152537
0.000145002
0.000864788
0.000323125
0.00014068
0.000174213
0.000182763
0.00013742
0.000149097
0.000168776
0.00816221
0.000175384
0.000148414
0.000144944
0.000169932
0.000144701
0.000136278
0.00014657
0.000220641
0.0554381
0.000136513
0.000148978
0.000145333
0.000195511
0.000187023
0.000135469
0.000164858
0.000174747
0.000145442
0.036611
0.000186026
0.000148632
0.000146155
0.000174076
0.000196143
0.00216635
0.00013629
0.000379072
0.000142987
0.00013651
0.000180049
0.000152989
0.0002329
0.000178876
0.000154075
0.000159167
0.000149134
0.000200466
0.000152941
0.00016083
0.000148734
0.000136058
0.000148093
0.000136265
0.000186857
0.0546563
0.000212048
0.000155962
0.000147401
0.000148693
0.000146607
0.000154204
0.000150269
0.000137451
0.000143835
0.000177201
0.000137469
0.000150311
0.00115304
0.000355639
0.00022505
0.000147456
0.000148539
0.000168972
0.000148856
0.00378902
0.00299829
0.000160128
0.000157335
0.000161082
0.000150612
0.000154814
0.0604558
0.000169735
0.00015174
0.00714846
0.000147291
0.000354338
0.0408189
0.00015668
0.000148939
0.0594016
0.000140884
0.000187244
0.000190856
0.00663798
0.00015293
0.000147943
0.000145314
0.00278764
0.00172658
0.00651285
0.00122988
0.000154301
0.000145172
0.000157269
0.000143289
0.000159088
0.000412293
0.0101633
0.0527413
0.0269031
0.000170104
0.000185112
0.00017153
0.000141555
0.000142554
0.000172492
0.000159848
0.000146543
0.000143231
0.000566893
0.000140274
0.024977
0.000163631
0.000188091
0.000191383
0.000142602
0.000156603
0.000319196
0.000143794
0.0497496
0.000143643
0.000314794
0.000169848
0.000149711
0.000170917
0.000198199
0.00019766
0.000147934
0.000134347
0.000168697
0.000157019
0.00018902
0.000143578
0.000185229
0.00014022
0.00167885
0.000155192
0.000144517
0.000220212
0.000172504
0.000185497
0.00015441
0.000158099
0.000163553
0.000380144
0.0494677
0.000156068
0.000240116
0.000152511
0.00016307
0.000148046
0.000155684
0.0370984
0.000136772
0.00144509
0.000146846
0.000151967
0.000156277
0.00378044
0.000155838
0.000213512
0.000154511
0.000167739
0.00191978
0.000132981
0.000141287
0.000346434
0.000176076
0.0010029
0.000180499
0.000147768
0.000143234
0.000143867
0.000157501
0.000148962
0.000150715
0.000246278
0.0254709
0.000144249
0.0128874
0.0110353
0.000156323
0.00128544
0.000136506
0.000287152
0.00932548
0.000135092
0.00220801
0.000172002
0.0511468
0.000386199
0.000145787
0.000143908
0.000147257
0.00055002
0.000174026
0.000145463
0.000149193
0.000242587
0.000148394
0.000172776
0.000144795
0.000170298
0.047778
0.00271989
0.000278627
0.00267717
0.000178145
0.000551748
0.000157352
0.000140941
0.000160783
0.000379123
0.000173699
0.000172128
0.000145182
0.000264153
0.000145521
0.000147907
0.0107752
0.000148125
0.000161872
0.000179738
0.000208144
0.000144791
0.000142947
0.000156093
0.000158954
0.000134831
0.000155511
0.000173746
0.000236168
0.000153578
0.000145001
0.000180178
0.00153849
0.00014458
0.00258248
0.0309061
0.000145326
0.000468813
0.000135658
0.000160753
0.000143805
0.000166167
0.000324721
0.000153415
0.00559233
0.000153211
0.000142963
0.000491273
0.000143781
0.000134975
0.000145875
0.000141055
0.000162795
0.000174545
0.000376442
0.000149447
0.0501658
0.000154021
0.00255621
0.00941132
0.000149198
0.000144185
0.000158109
0.000139566
0.000191717
0.00014276
0.00013488
0.000136109
0.00014526
0.000143712
0.00824128
0.000156557
0.000177514
0.000150088
0.00016101
0.000154381
0.000169459
0.001333
0.000137422
0.000185866
0.000183031
0.000134983
0.0101992
0.0472013
0.000145334
0.00238315
0.000153066
0.00219914
0.000167607
0.000135096
0.00016897
0.000159809
0.00247073
0.000146532
0.000155266
0.0016604
0.000223474
0.000217845
0.000143677
0.000785715
0.000181054
0.000281745
0.000143592
0.000152521
0.000145063
0.00014628
0.00014252
0.000153547
0.000136765
0.00244962
0.000160187
0.000141155
0.000134366
0.000146733
0.00014817
0.000218133
0.000181007
0.000137633
0.000158947
0.000146999
0.000147229
0.000149755
0.000141173
0.000185138
0.000134413
0.000140567
0.000147872
0.00014723
0.000156372
0.000153519
0.0167844
0.000347836
0.000156343
0.000140409
0.000193848
0.000134772
0.000134462
0.000153159
0.000215242
0.00015533
0.000149668
0.000136352
0.000137201
0.000158012
0.000134183
0.000161626
0.000142648
0.000148137
0.000142389
0.000152313
0.000353974
0.00014089
0.000148827
0.000143664
0.000235892
0.00510645
0.000159838
0.000148945
0.000169074
0.000164694
0.00018239
0.0610993
0.000147451
0.00762973
0.000148937
0.0286954
0.000152779
0.000137044
0.000138137
0.00900044
0.000137433
0.000160097
0.000225783
0.000206603
0.00018308
0.000154305
0.000142398
0.000152748
0.00014438
0.000161272
0.000201116
0.000377087
0.000178754
0.00014568
0.000134247
0.000155811
0.000142292
0.000141486
0.000148525
0.000177698
0.000158225
0.00027039
0.000145589
0.000144557
0.000174363
0.000143288
0.000196611
0.000178895
0.000179465
0.000201794
0.0573427
0.000164214
0.000141561
0.000134295
0.00014774
0.00014303
0.00193183
0.000174361
0.000191532
0.000136994
0.00014709
0.000155426
0.000141812
0.0609063
0.000312222
0.000134517
0.000138017
0.000143627
0.00014254
0.000141383
0.000147694
0.00284921
0.000136458
0.000152096
0.000137016
0.000138044
0.000142683
0.000146091
0.000161978
0.000137997
0.000171101
0.000136353
0.00316416
0.00164177
0.000155493
0.000248205
0.000160802
0.000148938
0.000184469
0.000403406
0.000144677
0.00014008
0.000137093
0.000183848
0.000148747
0.000164108
0.000353491
0.000146487
0.000151965
0.00014484
0.0290143
0.000713617
0.000149483
0.00014012
0.000160484
0.000177171
0.00014272
0.000196636
0.000140404
0.000134598
0.000156616
0.000243474
0.00120925
0.00156149
0.00439359
0.000135132
0.0003142
0.000222323
0.000162575
0.000144368
0.000222669
0.000160172
0.000249274
0.000249533
0.000149387
0.000135164
0.000144888
0.000151871
0.000135379
0.000246971
0.00101474
0.000134665
0.00014667
0.000148733
0.000169955
0.000144984
0.000143196
0.000189652
0.000151009
0.000145827
0.00118612
0.000198704
0.000191186
0.000142848
0.00013598
0.000134869
0.00014529
0.000169196
0.000174861
0.00014105
0.000138981
0.000160442
0.000648723
0.000137109
0.000144062
0.000196808
0.00014149
0.000139436
0.000143729
0.026738
0.000135792
0.000144654
0.000137177
0.000170729
0.000135792
0.000159498
0.000199258
0.000144099
0.0002325
0.00016452
0.000287458
0.000185878
0.00014102
0.00016419
0.000140925
0.000139291
0.00014098
0.000301371
0.00773284
0.000189663
0.000160999
0.00672238
0.000184709
0.000153
0.000200026
0.000204755
0.000158102
0.000136867
0.0147184
0.000150317
0.000140565
0.000138991
0.0208366
0.0234424
0.000394787
0.000139114
0.000188154
0.00899287
0.00017066
0.000169176
0.000155406
0.000155261
0.000166853
0.00179828
0.000151601
0.000150465
0.000156828
0.0405936
0.00820659
0.000144911
0.000154321
0.000145593
0.0546102
0.000155471
0.000148507
0.00691339
0.000159448
0.000177613
0.000155306
0.00339755
0.000138784
0.0282689
0.00014993
0.000137687
0.00014166
0.000136238
0.00013775
0.00014127
0.000147894
0.00355842
0.000138044
0.029004
0.000160128
0.000147683
0.000141703
0.000197791
0.000144117
0.000146783
0.000162644
0.00990985
0.000196097
0.000153426
0.000146523
0.0500767
0.000138751
0.000179611
0.000146321
0.000414428
0.000170042
0.00341999
0.000160535
0.000145003
0.000200093
0.00461921
0.000333974
0.000137828
0.00014366
0.000168753
0.0378289
0.00013238
0.00018195
0.000182071
0.000159804
0.000140869
0.000135472
0.000152588
0.000150142
0.000136486
0.000178138
0.000175701
0.000162036
0.000195526
0.015522
0.000150447
0.000838213
0.000138672
0.000190694
0.0512818
0.000210199
0.000135275
0.000154364
0.000146111
0.0029678
0.000154583
0.000140585
0.000187937
0.000146478
0.000146343
0.000151727
0.000149719
0.000143151
0.0398934
0.00602747
0.000185048
0.000139399
0.000145491
0.000260538
0.000138875
0.000681392
0.000147476
0.000145926
0.000149408
0.00015996
0.000475148
0.000179692
0.00014531
0.000360216
0.000147024
0.000148519
0.000168847
0.0568682
0.00204439
0.000144563
0.000144822
0.0386629
0.000370344
0.000309419
0.000145256
0.000166564
0.000229253
0.000137947
0.000182633
0.000151619
0.000232992
0.000154444
0.000146338
0.000150428
0.000137253
0.0517487
0.000145179
0.000139945
0.00302347
0.000176976
0.000384458
0.000136842
0.000151951
0.000137008
0.000134323
0.000136257
0.000152027
0.000146881
0.000148336
0.000137452
0.00014809
0.000181208
0.000161786
0.000170097
0.000141643
0.000153872
0.000142425
0.00336869
0.000147686
0.000150137
0.000146952
0.000138176
0.000148202
0.00016566
0.000144711
0.000143867
0.000141849
0.000136285
0.00807536
0.00208097
0.00014539
0.05197
0.000169214
0.000147499
0.000147897
0.000150355
0.00854169
0.000147173
0.000138641
0.000134622
0.00013517
0.00033123
0.000145487
0.000137037
0.00024431
0.000134388
0.000137864
0.000192352
0.000203664
0.000235198
0.000202246
0.000640303
0.000139367
0.000345233
0.00015868
0.000143529
0.000136827
0.000164426
0.000143295
0.000166082
0.000186942
0.000152445
0.000149093
0.0141801
0.000208285
0.000376105
0.00330858
0.0005967
0.000249189
0.000140984
0.00130388
0.0263005
0.000135131
0.000392188
0.000139096
0.000151017
0.000192403
0.000141138
0.000351873
0.000158189
0.000152576
0.000150482
0.0001962
0.000144006
0.02721
0.000143039
0.000136574
0.00870623
0.000138461
0.000147539
0.000148728
0.000183574
0.000142327
0.000144156
0.000152961
0.000358407
0.000145051
0.000145424
0.000137199
0.000155281
0.000142596
0.000151006
0.000483204
0.00014192
0.000158526
0.000147989
0.000159329
0.000157086
0.000140588
0.000149082
0.000189184
0.000147161
0.000150065
0.0001621
0.00344071
0.000152848
0.000141897
0.000144086
0.000164818
0.000236492
0.00015011
0.000141075
0.000141813
0.000137867
0.000134262
0.000137063
0.00015811
0.00018417
0.000184596
0.000146683
0.000341941
0.000140007
0.000150583
0.045387
0.000172786
0.000134847
0.000198894
0.000153232
0.000141058
0.000315222
0.00014814
0.000179633
0.000133424
0.000206757
0.000140182
0.000135666
0.000136053
0.000403429
0.000254801
0.000146948
0.000279181
0.000135875
0.000143709
0.000139251
0.000192013
0.000151186
0.000138651
0.000165317
0.000152103
0.000143088
0.000145899
0.000140948
0.000149556
0.000146675
0.000140781
0.000153683
0.000136959
0.000291594
0.00018618
0.000136838
0.000219904
0.000159199
0.000141111
0.000140239
0.000149097
0.000141511
0.000163036
0.000156521
0.000194592
0.000194356
0.000147621
0.000181622
0.000208215
0.000143429
0.000150393
0.000191699
0.000156851
0.00340647
0.000135666
0.000145572
0.000157086
0.000158225
0.000159751
0.00015819
0.000140652
0.000202169
0.000144874
0.000157569
0.000141143
0.000187065
0.000144986
0.000155185
0.000184504
0.000144616
0.000652465
0.00148915
0.000152068
0.00016114
0.000164191
0.00013513
0.000202435
0.000145713
0.000170322
0.00842492
0.0240892
0.00018864
0.000201586
0.000166349
0.000143351
0.000167134
0.000139347
0.0494661
0.000182894
0.000151743
0.000141192
0.000213978
0.000177583
0.000143043
0.000143698
0.0469077
0.000147846
0.000138558
0.000316956
0.000177052
0.000135012
0.000270607
0.000136059
0.000199914
0.000179103
0.000143142
0.000144475
0.000163047
0.00600406
0.000140583
0.000160015
0.000144449
0.000143152
0.000140113
0.000345761
0.000148632
0.000148694
0.000144401
0.000255229
0.000160473
0.000140785
0.000133825
0.000192669
0.000142497
0.00013695
0.000310246
0.061382
0.000149049
0.0185547
0.000162961
0.000174646
0.000156129
0.000183009
0.00158554
0.000151539
0.000145868
0.000137269
0.000156286
0.000143153
0.0087694
0.000242645
0.000137546
0.00015283
0.000136359
0.000137564
0.00238677
0.000143255
0.000150377
0.000152372
0.000208611
0.000144697
0.000147843
0.000156565
0.00231293
0.000146599
0.000148745
0.000137316
0.000138334
0.000155697
0.000172371
0.000147684
0.00014255
0.000145918
0.000145822
0.000137296
0.0421737
0.000147753
0.000144558
0.000142256
0.000180811
0.000136521
0.000136968
0.000172124
0.000143675
0.000184319
0.000145202
0.00014466
0.000962284
0.0488039
0.0261114
0.00086994
0.000162354
0.000149864
0.0457228
0.000139972
0.000156458
0.000136907
0.00032631
0.000130853
0.000156111
0.000144797
0.0101121
0.000180846
0.000194883
0.0464492
0.000153732
0.000206034
0.000148112
0.000148744
0.0125849
0.00016889
0.00014224
0.000136008
0.000154771
0.000167377
0.000144117
0.000146006
0.000139921
0.000135524
0.000242142
0.00685814
0.000148053
0.000152446
0.0592451
0.000282836
0.000156639
0.00015341
0.000153307
0.000155624
0.000142409
0.000152927
0.000358823
0.000140493
0.000136252
0.000146303
0.000341896
0.000257453
0.000158682
0.000146705
0.000148818
0.000161014
0.000143839
0.000158975
0.000180832
0.000212492
0.000151902
0.00223293
0.000134774
0.000143066
0.000148603
0.000135982
0.000147182
0.000140392
0.000367966
0.000141059
0.000307238
0.0001458
0.00013918
0.000137565
0.000205956
0.000150539
0.000173322
0.00019439
0.000136746
0.00340589
0.000185763
0.00013797
0.000134301
0.00141063
0.000217096
0.00013452
0.000140984
0.000142763
0.00015252
0.000207758
0.00021287
0.000165476
0.00015198
0.000197853
0.0497689
0.000149346
0.000142697
0.00595631
0.00015507
0.00103274
0.000152549
0.000142757
0.000183974
0.000240244
0.0484839
0.000256537
0.000606319
0.000136873
0.000143749
0.000147395
0.000146835
0.000155025
0.000147787
0.000146392
0.000139788
0.000149441
0.000154927
0.000167048
0.000148252
0.000152777
0.000148677
0.000143771
0.000144413
0.000179076
0.00018972
0.000140587
0.000145472
0.00023588
0.000149025
0.000153184
0.000150579
0.00034194
0.000136983
0.000170752
0.000155586
0.00013626
0.00014402
0.0392298
0.000213967
0.000152148
0.00014723
0.000153952
0.000176652
0.000140295
0.000162724
0.000183334
0.000141321
0.000203935
0.000141483
0.000143292
0.00016092
0.000150412
0.000162677
0.000202528
0.040499
0.000189305
0.000136535
0.000145136
0.000144078
0.000213251
0.000149278
0.0011334
0.000140057
0.000143983
0.000143606
0.000186585
0.000144334
0.000146769
0.000145213
0.000203648
0.000137061
0.000696916
0.000136994
0.000173942
0.000144974
0.000162688
0.000140921
0.000154513
0.000462684
0.000200045
0.000136566
0.000181951
0.000145467
0.000150924
0.00792843
0.000824272
0.000136161
0.000142872
0.000157891
0.000135955
0.000144291
0.000148707
0.000147856
0.000167408
0.00017737
0.000150258
0.000159751
0.000201877
0.000149378
0.000140911
0.000142209
0.000171729
0.0001643
0.000144249
0.0387799
0.000142192
0.0466506
0.000168054
0.000139569
0.000140869
0.000140535
0.000214207
0.000146868
0.000153511
0.000146561
0.000154825
0.0018028
0.000156094
0.000161209
0.000147509
0.000145736
0.000151977
0.000143716
0.000155892
0.000143514
0.000164586
0.000149491
0.000148287
0.00729901
0.000171612
0.00247722
0.000141082
0.000190124
0.000153779
0.00220801
0.000194371
0.000344874
0.000150401
0.000136376
0.000171542
0.000143752
0.00345385
0.000150017
0.000187983
0.000150621
0.0446856
0.00193052
0.000153903
0.000161023
0.000139701
0.000137574
0.000148837
0.000135316
0.000148141
0.000153156
0.000139739
0.000164109
0.000198807
0.00198826
0.000141115
0.000511755
0.000134706
0.000142634
0.000144399
0.000187526
0.000149768
0.000214814
0.000148366
0.000144727
0.000447321
0.000140518
0.00015276
0.000142856
0.000156875
0.000345371
0.000166299
0.0388823
0.000145466
0.000193518
0.000153053
0.000141887
0.000145554
0.000183043
0.00016807
0.00014325
0.000152162
0.000143245
0.00803438
0.000139217
0.0568423
0.000182562
0.000194537
0.000158197
0.000250819
0.000206431
0.000135298
0.00151863
0.000142571
0.0260128
0.000148502
0.000152104
0.00347685
0.00334561
0.000161637
0.0194312
0.000143635
0.00444101
0.00013181
0.0237121
0.000135264
0.000152881
0.000188636
0.00015245
0.000139396
0.000149366
0.000145513
0.000178953
0.00110743
0.000171937
0.000651941
0.000148367
0.000540756
0.000144522
0.000146703
0.000145004
0.000153321
0.00366185
0.000148393
0.000138186
0.000167792
0.000148413
0.00844482
0.000213049
0.000143104
0.000194926
0.000171307
0.000140972
0.000145004
0.000155075
0.000136564
0.000177709
0.000164755
0.000150707
0.000153208
0.000137228
0.000155094
0.000179775
0.000148713
0.000145146
0.000150577
0.000140588
0.000136093
0.000395283
0.000161922
0.0526916
0.00016105
0.000176374
0.000161492
0.000142425
0.000166297
0.000146324
0.000140934
0.00060695
0.000167922
0.000192952
0.000182181
0.000158582
0.0109351
0.00562056
0.000144589
0.000167053
0.000226638
0.0459121
0.000136409
0.000143206
0.000149329
0.000186291
0.000813339
0.000165995
0.000154931
0.000148073
0.000142122
0.000148194
0.00360168
0.000153788
0.000155004
0.00337533
0.000147052
0.000155919
0.000155723
0.000145205
0.000142981
0.000143879
0.000175629
0.000216781
0.000148262
0.000154426
0.0139044
0.000143521
0.000149773
0.0001539
0.000146973
0.00644474
0.0019633
0.000242805
0.000215428
0.000517907
0.000154794
0.000140047
0.000565549
0.000151556
0.000161116
0.000143664
0.000135401
0.00948906
0.000262984
0.00014153
0.000139901
0.000163424
0.000728104
0.000151681
0.000138132
0.0401429
0.000152841
0.000169581
0.000135021
0.000162153
0.000132514
0.000152948
0.000159142
0.000142137
0.0309734
0.000149405
0.000173221
0.000218483
0.00274229
0.000211174
0.000142284
0.000181385
0.00015609
0.000164852
0.00015442
0.000149229
0.000145541
0.000154766
0.000465791
0.000152319
0.000433188
0.000140386
0.000208601
0.000135914
0.00014906
0.00665829
0.00015656
0.000207947
0.000157702
0.000149879
0.0454522
0.0379008
0.000140312
0.000945192
0.00017559
0.000139042
0.000134777
0.000404703
0.000613815
0.00013949
0.000136187
0.000145105
0.000137212
0.0432738
0.0214112
0.000130767
0.000134058
0.000140203
0.00449034
0.00017364
0.00337396
0.000136027
0.0486901
0.000147699
0.000196732
0.0381098
0.00016656
0.000139406
0.000142776
0.00345916
0.000136625
0.000141321
0.000136951
0.000156995
0.000156349
0.0327444
0.00016407
0.000148255
0.000142556
0.000159143
0.000228247
0.000189996
0.000141817
0.000143077
0.000206754
0.000176478
0.00015239
0.00867612
0.000161877
0.000152576
0.00609547
0.000152188
0.000159845
0.000148598
0.00134644
0.000145524
0.000148648
0.000338027
0.000160843
0.000141265
0.000143392
0.000132516
0.000180823
0.000217538
0.000141387
0.000136057
0.000149092
0.000178073
0.000154141
0.000135131
0.000142958
0.000139279
0.000154995
0.000171772
0.000146336
0.000143155
0.00592993
0.000142379
0.00693108
0.000166864
0.000170635
0.000154007
0.00015412
0.000145229
0.000273853
0.000210059
0.000180884
0.0316713
0.000165953
0.000140378
0.033244
0.000136531
0.000181665
0.0421622
0.00015535
0.000141937
0.000155086
0.000185932
0.000143018
0.000143758
0.000357974
0.000143005
0.000171876
0.000154067
0.000146783
0.000137567
0.00020931
0.000189549
0.000136393
0.000141241
0.0171388
0.00014291
0.000137896
0.000141021
0.000141226
0.00655738
0.000159479
0.000152985
0.000152106
0.000149426
0.000139732
0.000180785
0.000184398
0.000160053
0.0230584
0.00017628
0.000154402
0.0319494
0.000140346
0.00013625
0.000143924
0.000141022
0.000148622
0.000133613
0.000152649
0.0367145
0.000144356
0.000142143
0.000157242
0.000141197
0.00114832
0.000147747
0.0366547
0.000207496
0.000238631
0.000163858
0.000461783
0.000164018
0.000143875
0.000152574
0.000140617
0.000150842
0.000150335
0.000147947
0.0249374
0.000135837
0.000143999
0.000177159
0.000257156
0.000147944
0.000139988
0.00022754
0.000152723
0.000256173
0.000143126
0.000140142
0.000152761
0.000428588
0.000147879
0.000248379
0.000182411
0.000197458
0.000139893
0.000144794
0.000155519
0.00117712
0.000136413
0.000183613
0.000142095
0.0385597
0.00327443
0.000151703
0.000204558
0.000146385
0.000152982
0.000158334
0.0358688
0.000163824
0.000159441
0.000163574
0.00115778
0.000147641
0.000180249
0.000144747
0.000198795
0.000208249
0.000234826
0.000143063
0.000164892
0.00389708
0.0078031
0.000155562
0.00015538
0.00993848
0.0099944
0.000140817
0.000175912
0.00014411
0.000155664
0.000146377
0.000153517
0.000152668
0.000270299
0.00014749
0.000148398
0.000182714
0.0016719
0.00218679
0.000198687
0.000368098
0.000140261
0.00969593
0.000185896
0.000142801
0.00014193
0.00724911
0.000163399
0.000145347
0.000142647
0.000179069
0.000138811
0.000142949
0.0614021
0.000145728
0.000148236
0.000141204
0.000143973
0.000151666
0.000140013
0.0159195
0.000217884
0.000152012
0.000140047
0.000165117
0.0182678
0.00014254
0.000150213
0.00112588
0.000211656
0.000143573
0.000155585
0.00013888
0.000140586
0.000189379
0.000207851
0.000140638
0.000144922
0.00152463
0.000257838
0.0156336
0.000214411
0.000153386
0.00162811
0.000141379
0.000156726
0.0001555
0.000140701
0.000377672
0.0168451
0.000171993
0.000205999
0.0256655
0.000134784
0.000134063
0.000150877
0.00017241
0.00561433
0.000136415
0.000175515
0.00416756
0.0589741
0.000147323
0.000151474
0.0294536
0.000144115
0.000155427
0.00627765
0.000141163
0.000142787
0.000141046
0.00864379
0.000144075
0.000167351
0.000148462
0.000199533
0.000162545
0.00235291
0.00014386
0.00014259
0.000166175
0.00014832
0.000190714
0.00015189
0.000192503
0.00019269
0.000140949
0.000144785
0.0402928
0.0560794
0.000483806
0.000139247
0.000143449
0.000153517
0.000145506
0.000143302
0.000144144
0.000192742
0.000148981
0.000139971
0.000140049
0.000190569
0.000155414
0.000169111
0.000479923
0.00018714
0.000176927
0.000156332
0.000201747
0.000234779
0.000164141
0.0001638
0.000159975
0.000142104
0.00109211
0.000150208
0.000135742
0.000142195
0.00335756
0.000142458
0.0030417
0.000147894
0.00013505
0.000189692
0.000143653
0.000142635
0.000143636
0.000224964
0.000269529
0.000148331
0.000140685
0.000152059
0.0171856
0.000176202
0.0089226
0.000143607
0.000177605
0.000148173
0.000145897
0.000136578
0.000139096
0.000143461
0.000164276
0.00294296
0.000156703
0.000155213
0.00019864
0.0169994
0.000194304
0.000141995
0.000203317
0.000164788
0.00908429
0.00013793
0.000146584
0.000226567
0.000251732
0.000132998
0.000144979
0.000139049
0.000136543
0.000195261
0.00015195
0.000199147
0.000168264
0.000132714
0.000203746
0.000144114
0.00928534
0.000143591
0.000236583
0.00014823
0.000160704
0.000149656
0.000184782
0.00990557
0.000142536
0.000190057
0.0607798
0.000141777
0.00014666
0.000172007
0.00013248
0.000991945
0.000166774
0.000144097
0.000181383
0.000134756
0.00014585
0.000156401
0.000149377
0.000136876
0.000150189
0.00014138
0.000138954
0.000145435
0.000149796
0.000176655
0.000136898
0.000224439
0.000138448
0.000140679
0.000160717
0.000181586
0.000149607
0.000132708
0.00014262
0.000152618
0.000179405
0.00474139
0.000165112
0.000149241
0.000149283
0.000139823
0.000163908
0.000141002
0.000153112
0.0567885
0.00529463
0.000172989
0.000141463
0.000149921
0.000150165
0.00013287
0.000189391
0.000134919
0.000254779
0.000149469
0.000237032
0.000159918
0.0532237
0.000147982
0.000192801
0.000636736
0.00657245
0.0026547
0.000158301
0.00734786
0.0529354
0.0001489
0.000166132
0.0566943
0.000143725
0.000139207
0.000144122
0.000155991
0.000229431
0.0001461
0.000160829
0.00270721
0.000130758
0.00014475
0.0452081
0.000926907
0.000184171
0.00300711
0.00352102
0.000150191
0.000201926
0.000155711
0.0001571
0.000212611
0.000153328
0.0337396
0.000196477
0.000154419
0.000147442
0.000150594
0.000214883
0.000140164
0.000941889
0.000132858
0.000143019
0.000143347
0.00863083
0.0324751
0.00028026
0.000145727
0.000150004
0.000139325
0.0480792
0.000145131
0.000151981
0.000154494
0.00021291
0.00013878
0.000192452
0.0397577
0.00143204
0.000147208
0.000611439
0.000141031
0.000339547
0.00013335
0.000504016
0.000186829
0.000178011
0.000163087
0.0162041
0.000225673
0.000152163
0.000155707
0.000240737
0.00015496
0.000142195
0.000138881
0.000156322
0.000149618
0.000446977
0.000132549
0.000143529
0.000144363
0.000143891
0.000683894
0.000139577
0.000134662
0.000148337
0.0011016
0.00016692
0.00018041
0.000152106
0.000151546
0.000195671
0.000142593
0.000143293
0.000198636
0.000173611
0.000134677
0.000175481
0.000152841
0.0028849
0.000142827
0.000233585
0.000188857
0.000143685
0.000135302
0.000134959
0.00014257
0.000141476
0.00674115
0.000192003
0.000146845
0.000143176
0.000142789
0.000152279
0.000159807
0.0395141
0.00015256
0.000181377
0.000167971
0.00151675
0.000147536
0.000179049
0.000143161
0.000142845
0.000163641
0.000142742
0.000145913
0.000141035
0.000150139
0.0567478
0.000143639
0.000139512
0.000904743
0.00305037
0.000186598
0.00018102
0.000143663
0.000155621
0.0350895
0.000153767
0.000147934
0.000148058
0.00472852
0.000148729
0.000145165
0.000280109
0.000143535
0.000157206
0.000154291
0.000146537