/*--------------------------------*- C++ -*----------------------------------*\
| =========                 |                                                 |
| \\      /  F ield         | OpenFOAM: The Open Source CFD Toolbox           |
|  \\    /   O peration     | Version:  v2012                                 |
|   \\  /    A nd           | Website:  www.openfoam.com                      |
|    \\/     M anipulation  |                                                 |
\*---------------------------------------------------------------------------*/
FoamFile
{
    version     2.0;
    format      ascii;
    class       pointVectorField;
    location    "300";
    object      pointDisplacement;
}
// * * * * * * * * * * * * * * * * * * * * * * * * * * * * * * * * * * * * * //

dimensions      [0 1 0 0 0 0 0];


internalField   nonuniform List<vector> 
18854
(
(0 0 0)
(0 0 0)
(0 0 0)
(0 0 0)
(0 0 0)
(0 0 0)
(0 0 0)
(0 0 0)
(0 0 0)
(0 0 0)
(0 0 0)
(0 0 0)
(0 0 0)
(0 0 0)
(0 0 0)
(0 0 0)
(0 0 0)
(0 0 0)
(0 0 0)
(0 0 0)
(0 0 0)
(0 0 0)
(0 0 0)
(0 0 0)
(0 0 0)
(0 0 0)
(0 0 0)
(0 0 0)
(0 0 0)
(0 0 0)
(0 0 0)
(0 0 0)
(0 0 0)
(0 0 0)
(0 0 0)
(0 0 0)
(0 0 0)
(0 0 0)
(0 0 0)
(0 0 0)
(0 0 0)
(0 0 0)
(0 0 0)
(0 0 0)
(0 0 0)
(0 0 0)
(0 0 0)
(0 0 0)
(0 0 0)
(0 0 0)
(0 0 0)
(0 0 0)
(0 0 0)
(0 0 0)
(0 0 0)
(0 0 0)
(0 0 0)
(0 0 0)
(0 0 0)
(0 0 0)
(0 0 0)
(0 0 0)
(0 0 0)
(0 0 0)
(0 0 0)
(0 0 0)
(0 0 0)
(0 0 0)
(0 0 0)
(0 0 0)
(0 0 0)
(0 0 0)
(0 0 0)
(0 0 0)
(0 0 0)
(0 0 0)
(0 0 0)
(0 0 0)
(0 0 0)
(0 0 0)
(0 0 0)
(0 0 0)
(0 0 0)
(0 0 0)
(0 0 0)
(0 0 0)
(0 0 0)
(0 0 0)
(0 0 0)
(0 0 0)
(0 0 0)
(0 0 0)
(0 0 0)
(0 0 0)
(0 0 0)
(0 0 0)
(0 0 0)
(0 0 0)
(0 0 0)
(0 0 0)
(0 0 0)
(0 0 0)
(0 0 0)
(0 0 0)
(0 0 0)
(0 0 0)
(0 0 0)
(0 0 0)
(0 0 0)
(0 0 0)
(0 0 0)
(0 0 0)
(0 0 0)
(0 0 0)
(0 0 0)
(0 0 0)
(0 0 0)
(0 0 0)
(0 0 0)
(0 0 0)
(0 0 0)
(0 0 0)
(0 0 0)
(0 0 0)
(0 0 0)
(0 0 0)
(0 0 0)
(0 0 0)
(0 0 0)
(0 0 0)
(0 0 0)
(0 0 0)
(0 0 0)
(0 0 0)
(0 0 0)
(0 0 0)
(0 0 0)
(0 0 0)
(0 0 0)
(0 0 0)
(0 0 0)
(0 0 0)
(0 0 0)
(0 0 0)
(0 0 0)
(0 0 0)
(0 0 0)
(0 0 0)
(0 0 0)
(0 0 0)
(0 0 0)
(0 0 0)
(0 0 0)
(0 0 0)
(0 0 0)
(0 0 0)
(0 0 0)
(0 0 0)
(0 0 0)
(0 0 0)
(0 0 0)
(0 0 0)
(0 0 0)
(0 0 0)
(0 0 0)
(0 0 0)
(0 0 0)
(0 0 0)
(0 0 0)
(0 0 0)
(0 0 0)
(0 0 0)
(0 0 0)
(0 0 0)
(0 0 0)
(0 0 0)
(0 0 0)
(0 0 0)
(0 0 0)
(0 0 0)
(0 0 0)
(0 0 0)
(0 0 0)
(0 0 0)
(0 0 0)
(0 0 0)
(0 0 0)
(0 0 0)
(0 0 0)
(0 0 0)
(0 0 0)
(0 0 0)
(0 0 0)
(0 0 0)
(0 0 0)
(0 0 0)
(0 0 0)
(0 0 0)
(0 0 0)
(0 0 0)
(0 0 0)
(0 0 0)
(0 0 0)
(0 0 0)
(0 0 0)
(0 0 0)
(0 0 0)
(0 0 0)
(0 0 0)
(0 0 0)
(0 0 0)
(0 0 0)
(0 0 0)
(0 0 0)
(0 0 0)
(0 0 0)
(0 0 0)
(0 0 0)
(0 0 0)
(0 0 0)
(0 0 0)
(0 0 0)
(0 0 0)
(0 0 0)
(0 0 0)
(0 0 0)
(0 0 0)
(0 0 0)
(0 0 0)
(0 0 0)
(0 0 0)
(0 0 0)
(0 0 0)
(0 0 0)
(0 0 0)
(0 0 0)
(0 0 0)
(0 0 0)
(0 0 0)
(0 0 0)
(0 0 0)
(0 0 0)
(0 0 0)
(0 0 0)
(0 0 0)
(0 0 0)
(0 0 0)
(0 0 0)
(0 0 0)
(0 0 0)
(0 0 0)
(0 0 0)
(0 0 0)
(0 0 0)
(0 0 0)
(0 0 0)
(0 0 0)
(0 0 0)
(0 0 0)
(0 0 0)
(0 0 0)
(0 0 0)
(0 0 0)
(0 0 0)
(0 0 0)
(0 0 0)
(0 0 0)
(0 0 0)
(0 0 0)
(0 0 0)
(0 0 0)
(0 0 0)
(0 0 0)
(0 0 0)
(0 0 0)
(0 0 0)
(0 0 0)
(0 0 0)
(0 0 0)
(0 0 0)
(0 0 0)
(0 0 0)
(0 0 0)
(0 0 0)
(0 0 0)
(0 0 0)
(0 0 0)
(0 0 0)
(0 0 0)
(0 0 0)
(0 0 0)
(0 0 0)
(0 0 0)
(0 0 0)
(0 0 0)
(0 0 0)
(0 0 0)
(0 0 0)
(0 0 0)
(0 0 0)
(0 0 0)
(0 0 0)
(0 0 0)
(0 0 0)
(0 0 0)
(0 0 0)
(0 0 0)
(0 0 0)
(0 0 0)
(0 0 0)
(0 0 0)
(0 0 0)
(0 0 0)
(0 0 0)
(0 0 0)
(0 0 0)
(0 0 0)
(0 0 0)
(0 0 0)
(0 0 0)
(0 0 0)
(0 0 0)
(0 -4.82601e-05 0)
(0 -4.43194e-05 0)
(0 -4.24325e-05 0)
(0 -4.80197e-05 0)
(0 -3.78056e-05 0)
(0 -3.83919e-05 0)
(0 -2.54234e-05 0)
(0 -2.32793e-05 0)
(0 -3.23122e-05 0)
(0 -1.76994e-05 0)
(0 -1.46269e-05 0)
(0 -4.61806e-05 0)
(0 -4.25817e-05 0)
(0 -2.65463e-05 0)
(0 -2.29805e-05 0)
(0 -1.86643e-05 0)
(0 -2.02133e-05 0)
(0 -1.64108e-05 0)
(0 -1.21529e-05 0)
(0 -9.88874e-06 0)
(0 -1.0293e-05 0)
(0 -8.39513e-06 0)
(0 -3.72499e-05 0)
(0 -4.48373e-05 0)
(0 -4.75918e-05 0)
(0 -3.06365e-05 0)
(0 -2.6463e-05 0)
(0 -6.14965e-06 0)
(0 -8.10587e-06 0)
(0 -3.26753e-05 0)
(0 -2.01255e-05 0)
(0 -1.8557e-05 0)
(0 -4.74058e-05 0)
(0 -4.56711e-05 0)
(0 -2.39956e-05 0)
(0 -2.14044e-05 0)
(0 -3.73726e-05 0)
(0 -4.09864e-05 0)
(0 -2.61156e-05 0)
(0 -1.9017e-05 0)
(0 -1.82423e-05 0)
(0 -3.39263e-06 0)
(0 -2.85892e-06 0)
(0 -2.21768e-05 0)
(0 -9.78797e-06 0)
(0 -3.49257e-05 0)
(0 -3.24022e-05 0)
(0 -3.9887e-05 0)
(0 -4.3095e-05 0)
(0 -4.60435e-05 0)
(0 -4.75125e-05 0)
(0 -1.15231e-05 0)
(0 -7.79404e-06 0)
(0 -1.69385e-05 0)
(0 -2.69788e-05 0)
(0 -2.89334e-05 0)
(0 -4.77791e-05 0)
(0 -4.89251e-05 0)
(0 -4.24991e-05 0)
(0 -4.15993e-05 0)
(0 -3.67615e-05 0)
(0 -3.01175e-05 0)
(0 -2.83249e-05 0)
(0 -3.18934e-05 0)
(0 -2.33981e-05 0)
(0 -1.31791e-05 0)
(0 -8.46439e-06 0)
(0 -1.55389e-06 0)
(0 -0.000154891 0)
(0 -0.000160043 0)
(0 -0.000163434 0)
(0 -0.000158191 0)
(0 -0.000166595 0)
(0 -0.000161253 0)
(0 -0.000169482 0)
(0 -0.000164022 0)
(0 -0.000172235 0)
(0 -0.000166695 0)
(0 -0.000175036 0)
(0 -0.000169354 0)
(0 -0.000177819 0)
(0 -0.000183555 0)
(0 -0.000186396 0)
(0 -0.000180474 0)
(0 -0.000189091 0)
(0 -0.000182911 0)
(0 -0.000191692 0)
(0 -0.000185292 0)
(0 -0.000194305 0)
(0 -0.000187757 0)
(0 -0.000197053 0)
(0 -0.000190329 0)
(0 -0.000199691 0)
(0 -0.000193011 0)
(0 -0.000202703 0)
(0 -0.000195867 0)
(0 -0.00020613 0)
(0 -0.000198969 0)
(0 -0.000209438 0)
(0 -0.000202192 0)
(0 -0.000212805 0)
(0 -0.000204624 0)
(0 -0.000216386 0)
(0 -0.000209666 0)
(0 -0.000220327 0)
(0 -0.000213343 0)
(0 -0.000224544 0)
(0 -0.000217328 0)
(0 -0.00022908 0)
(0 -0.000221514 0)
(0 -0.000233853 0)
(0 -0.000226299 0)
(0 -0.000238898 0)
(0 -0.000231405 0)
(0 -0.000244183 0)
(0 -0.000236514 0)
(0 -0.000249434 0)
(0 -0.000241722 0)
(0 -0.000255369 0)
(0 -0.000247293 0)
(0 -0.000261628 0)
(0 -0.000253758 0)
(0 -0.000268295 0)
(0 -0.000261037 0)
(0 -0.000275924 0)
(0 -0.000268445 0)
(0 -0.000283683 0)
(0 -0.000276276 0)
(0 -0.000291634 0)
(0 -0.000284456 0)
(0 -0.000299987 0)
(0 -0.000293032 0)
(0 -0.000308956 0)
(0 -0.000302176 0)
(0 -0.000318479 0)
(0 -0.000311666 0)
(0 -0.000328515 0)
(0 -0.000321253 0)
(0 -0.000339152 0)
(0 -0.000331787 0)
(0 -0.000350344 0)
(0 -0.000343331 0)
(0 -0.000361992 0)
(0 -0.000355012 0)
(0 -0.000373914 0)
(0 -0.000366758 0)
(0 -0.000386098 0)
(0 -0.000378767 0)
(0 -0.000398771 0)
(0 -0.000391648 0)
(0 -0.000412072 0)
(0 -0.000405843 0)
(0 -0.000425924 0)
(0 -0.000420218 0)
(0 -0.000440012 0)
(0 -0.000433912 0)
(0 -0.000454201 0)
(0 -0.000447452 0)
(0 -0.000468453 0)
(0 -0.000460911 0)
(0 -0.000483184 0)
(0 -0.000477967 0)
(0 -0.000498326 0)
(0 -0.000492316 0)
(0 -0.000513474 0)
(0 -0.000507151 0)
(0 -0.000528858 0)
(0 -0.000522436 0)
(0 -0.000544699 0)
(0 -0.000550613 0)
(0 -0.000566913 0)
(0 -0.000431773 0)
(0 -0.000334404 0)
(0 -0.000270127 0)
(0 -0.000227526 0)
(0 -0.000201105 0)
(0 -0.000538713 0)
(0 -0.000572494 0)
(0 -0.000589029 0)
(0 -0.00059437 0)
(0 -0.000610766 0)
(0 -0.000616432 0)
(0 -0.000632455 0)
(0 -0.000638554 0)
(0 -0.000654686 0)
(0 -0.000660754 0)
(0 -0.000677083 0)
(0 -0.000683243 0)
(0 -0.000699776 0)
(0 -0.000705844 0)
(0 -0.000722499 0)
(0 -0.000716335 0)
(0 -0.000739347 0)
(0 -0.000732885 0)
(0 -0.000756091 0)
(0 -0.000749529 0)
(0 -0.000772723 0)
(0 -0.000766744 0)
(0 -0.000789917 0)
(0 -0.000795272 0)
(0 -0.000812738 0)
(0 -0.000807849 0)
(0 -0.000830633 0)
(0 -0.000835592 0)
(0 -0.00085315 0)
(0 -0.000516031 0)
(0 -0.000858071 0)
(0 -0.000874849 0)
(0 -0.000850698 0)
(0 -0.000880356 0)
(0 -0.000897136 0)
(0 -0.000902391 0)
(0 -0.000919294 0)
(0 -0.000923677 0)
(0 -0.000940317 0)
(0 -0.000944596 0)
(0 -0.000960507 0)
(0 -0.000964738 0)
(0 -0.000980167 0)
(0 -0.000983805 0)
(0 -0.000999082 0)
(0 -0.000995599 0)
(0 -0.00101446 0)
(0 -0.00101083 0)
(0 -0.00102986 0)
(0 -0.00102556 0)
(0 -0.0010447 0)
(0 -0.00104957 0)
(0 -0.00106323 0)
(0 -0.00105904 0)
(0 -0.00107741 0)
(0 -0.0010807 0)
(0 -0.00109447 0)
(0 -0.00109764 0)
(0 -0.00111243 0)
(0 -0.00109166 0)
(0 -0.00111366 0)
(0 -0.00112768 0)
(0 -0.00112874 0)
(0 -0.00114247 0)
(0 -0.00114373 0)
(0 -0.00115716 0)
(0 -0.00115772 0)
(0 -0.00117103 0)
(0 -0.00117104 0)
(0 -0.001184 0)
(0 -0.000426647 0)
(0 -0.00118347 0)
(0 -0.00119635 0)
(0 -0.00119628 0)
(0 -0.00120845 0)
(0 -0.00120779 0)
(0 -0.00121963 0)
(0 -0.00121857 0)
(0 -0.00122974 0)
(0 -0.00122856 0)
(0 -0.00123922 0)
(0 -0.0012397 0)
(0 -0.00124887 0)
(0 -0.00124883 0)
(0 -0.00125778 0)
(0 -0.00125762 0)
(0 -0.00126636 0)
(0 -0.00126597 0)
(0 -0.00127426 0)
(0 -0.00127318 0)
(0 -0.00128145 0)
(0 -0.00128245 0)
(0 -0.0012895 0)
(0 -0.00128794 0)
(0 -0.00129573 0)
(0 -0.00129368 0)
(0 -0.00130117 0)
(0 -0.00130301 0)
(0 -0.00130799 0)
(0 -0.00130567 0)
(0 -0.00131192 0)
(0 -0.00130912 0)
(0 -0.00131506 0)
(0 -0.0013176 0)
(0 -0.00132045 0)
(0 -0.0013175 0)
(0 -0.00132257 0)
(0 -0.00131916 0)
(0 -0.00132399 0)
(0 -0.00132719 0)
(0 -0.00132822 0)
(0 -0.0013246 0)
(0 -0.00132831 0)
(0 -0.00132429 0)
(0 -0.00132748 0)
(0 -0.00133113 0)
(0 -0.00132988 0)
(0 -0.0013258 0)
(0 -0.00132789 0)
(0 -0.0013234 0)
(0 -0.00132516 0)
(0 -0.00132924 0)
(0 -0.00132615 0)
(0 -0.00132167 0)
(0 -0.00132234 0)
(0 -0.00131745 0)
(0 -0.00131767 0)
(0 -0.00132201 0)
(0 -0.00131679 0)
(0 -0.00131225 0)
(0 -0.00131099 0)
(0 -0.00130617 0)
(0 -0.00130457 0)
(0 -0.00130875 0)
(0 -0.00130193 0)
(0 -0.00129743 0)
(0 -0.00129446 0)
(0 -0.00128958 0)
(0 -0.00128637 0)
(0 -0.00129056 0)
(0 -0.00128217 0)
(0 -0.00127765 0)
(0 -0.00127332 0)
(0 -0.00126846 0)
(0 -0.00126404 0)
(0 -0.00126806 0)
(0 -0.00125865 0)
(0 -0.00125427 0)
(0 -0.00124876 0)
(0 -0.00124397 0)
(0 -0.00123833 0)
(0 -0.00124245 0)
(0 -0.00123187 0)
(0 -0.00122736 0)
(0 -0.00122071 0)
(0 -0.0012158 0)
(0 -0.00120899 0)
(0 -0.00121329 0)
(0 -0.00120143 0)
(0 -0.0011967 0)
(0 -0.00118892 0)
(0 -0.0011837 0)
(0 -0.00117563 0)
(0 -0.00118026 0)
(0 -0.00116653 0)
(0 -0.00116159 0)
(0 -0.00115211 0)
(0 -0.00114671 0)
(0 -0.00113688 0)
(0 -0.00114163 0)
(0 -0.00112612 0)
(0 -0.00112094 0)
(0 -0.00111011 0)
(0 -0.00110445 0)
(0 -0.00109358 0)
(0 -0.00109859 0)
(0 -0.0010821 0)
(0 -0.00107666 0)
(0 -0.00106512 0)
(0 -0.00105934 0)
(0 -0.0010698 0)
(0 -0.00105288 0)
(0 -0.00034763 0)
(0 -0.00103999 0)
(0 -0.00018346 0)
(0 -0.000286116 0)
(0 -0.000203183 0)
(0 -0.000245634 0)
(0 -0.000532841 0)
(0 -0.000509545 0)
(0 -0.0011703 0)
(0 -0.000968619 0)
(0 -0.000168709 0)
(0 -0.000161023 0)
(0 -0.000689346 0)
(0 -0.000219217 0)
(0 -2.74943e-05 0)
(0 -2.66248e-05 0)
(0 -2.32761e-05 0)
(0 -2.57162e-05 0)
(0 -2.24284e-05 0)
(0 -2.48472e-05 0)
(0 -2.83301e-05 0)
(0 -2.74827e-05 0)
(0 -2.4026e-05 0)
(0 -2.67019e-05 0)
(0 -2.32765e-05 0)
(0 -2.6011e-05 0)
(0 -2.26284e-05 0)
(0 -2.54279e-05 0)
(0 -2.20132e-05 0)
(0 -2.498e-05 0)
(0 -2.16456e-05 0)
(0 -2.46691e-05 0)
(0 -2.14653e-05 0)
(0 -2.45023e-05 0)
(0 -2.13212e-05 0)
(0 -2.44849e-05 0)
(0 -2.12796e-05 0)
(0 -2.45167e-05 0)
(0 -2.13311e-05 0)
(0 -2.46305e-05 0)
(0 -2.1528e-05 0)
(0 -2.49496e-05 0)
(0 -2.18968e-05 0)
(0 -2.54478e-05 0)
(0 -2.242e-05 0)
(0 -2.61247e-05 0)
(0 -2.3098e-05 0)
(0 -2.69367e-05 0)
(0 -2.39417e-05 0)
(0 -2.78841e-05 0)
(0 -2.49444e-05 0)
(0 -2.90119e-05 0)
(0 -2.60469e-05 0)
(0 -3.03556e-05 0)
(0 -2.74192e-05 0)
(0 -3.19074e-05 0)
(0 -2.9083e-05 0)
(0 -3.37195e-05 0)
(0 -3.08663e-05 0)
(0 -3.56759e-05 0)
(0 -3.27767e-05 0)
(0 -3.76995e-05 0)
(0 -3.50075e-05 0)
(0 -4.01229e-05 0)
(0 -3.74893e-05 0)
(0 -4.27606e-05 0)
(0 -4.00665e-05 0)
(0 -4.55415e-05 0)
(0 -4.87598e-05 0)
(0 -3.49371e-05 0)
(0 -4.5961e-05 0)
(0 -2.94517e-05 0)
(0 -2.80261e-05 0)
(0 -2.95125e-05 0)
(0 -1.93212e-05 0)
(0 -2.83186e-05 0)
(0 -1.84424e-05 0)
(0 -2.20638e-05 0)
(0 -1.90459e-05 0)
(0 -0.000380613 0)
(0 -0.00118206 0)
(0 -0.00116872 0)
(0 -0.00118026 0)
(0 -0.00116659 0)
(0 -0.00117706 0)
(0 -0.00116389 0)
(0 -0.00117339 0)
(0 -0.00116033 0)
(0 -0.00116978 0)
(0 -0.00115593 0)
(0 -0.00116468 0)
(0 -0.00115069 0)
(0 -0.00115854 0)
(0 -0.00114464 0)
(0 -0.00115177 0)
(0 -0.00113763 0)
(0 -0.00114408 0)
(0 -0.00112952 0)
(0 -0.00113553 0)
(0 -0.00112031 0)
(0 -0.00112575 0)
(0 -0.00111002 0)
(0 -0.00111453 0)
(0 -0.00109802 0)
(0 -0.0011023 0)
(0 -0.00108405 0)
(0 -0.00108826 0)
(0 -0.00108043 0)
(0 -0.0010654 0)
(0 -0.00106203 0)
(0 -0.00104614 0)
(0 -0.00104278 0)
(0 -0.00102633 0)
(0 -0.00102298 0)
(0 -0.00100613 0)
(0 -0.00100264 0)
(0 -0.000985591 0)
(0 -0.000981922 0)
(0 -0.00098842 0)
(0 -0.000964623 0)
(0 -0.000960706 0)
(0 -0.000943429 0)
(0 -0.000939048 0)
(0 -0.000921745 0)
(0 -0.000917009 0)
(0 -0.000899242 0)
(0 -0.000894244 0)
(0 -0.000876197 0)
(0 -0.000870992 0)
(0 -0.000879125 0)
(0 -0.00085302 0)
(0 -0.000847579 0)
(0 -0.000829808 0)
(0 -0.000824338 0)
(0 -0.000840784 0)
(0 -0.000817732 0)
(0 -0.000833077 0)
(0 -0.000810162 0)
(0 -0.00082455 0)
(0 -0.000801599 0)
(0 -0.000787255 0)
(0 -0.000778983 0)
(0 -0.000792281 0)
(0 -0.00077012 0)
(0 -0.00078253 0)
(0 -0.00076085 0)
(0 -0.000748475 0)
(0 -0.000739565 0)
(0 -0.000751102 0)
(0 -0.000730224 0)
(0 -0.000740714 0)
(0 -0.000720474 0)
(0 -0.000730083 0)
(0 -0.000710964 0)
(0 -0.000700905 0)
(0 -0.000691903 0)
(0 -0.000701507 0)
(0 -0.000682503 0)
(0 -0.000672629 0)
(0 -0.000662925 0)
(0 -0.00065314 0)
(0 -0.000642785 0)
(0 -0.000651912 0)
(0 -0.000631463 0)
(0 -0.000622614 0)
(0 -0.000611124 0)
(0 -0.000618674 0)
(0 -0.000598647 0)
(0 -0.000591178 0)
(0 -0.000578632 0)
(0 -0.000571381 0)
(0 -0.000558736 0)
(0 -0.000604215 0)
(0 -0.000551587 0)
(0 -0.000538996 0)
(0 -0.000531965 0)
(0 -0.000519428 0)
(0 -0.000512342 0)
(0 -0.000499892 0)
(0 -0.00050653 0)
(0 -0.000487568 0)
(0 -0.000524436 0)
(0 -0.000493624 0)
(0 -0.000475661 0)
(0 -0.000469035 0)
(0 -0.000457896 0)
(0 -0.000451157 0)
(0 -0.000440531 0)
(0 -0.00110952 0)
(0 -0.00109236 0)
(0 -0.00111056 0)
(0 -0.00109538 0)
(0 -0.0011128 0)
(0 -0.00109805 0)
(0 -0.0011173 0)
(0 -0.00109942 0)
(0 -0.00111676 0)
(0 -0.0010995 0)
(0 -0.00111713 0)
(0 -0.00109906 0)
(0 -0.00111621 0)
(0 -0.00109753 0)
(0 -0.00111475 0)
(0 -0.00109467 0)
(0 -0.0011122 0)
(0 -0.00109096 0)
(0 -0.00110893 0)
(0 -0.00108652 0)
(0 -0.00110483 0)
(0 -0.0010827 0)
(0 -0.00110009 0)
(0 -0.00107733 0)
(0 -0.00109348 0)
(0 -0.00106889 0)
(0 -0.0010854 0)
(0 -0.00105984 0)
(0 -0.0010767 0)
(0 -0.00105056 0)
(0 -0.0010673 0)
(0 -0.00104065 0)
(0 -0.00105786 0)
(0 -0.00107282 0)
(0 -0.00103059 0)
(0 -0.00104847 0)
(0 -0.0010197 0)
(0 -0.00103717 0)
(0 -0.00100725 0)
(0 -0.00102386 0)
(0 -0.000994151 0)
(0 -0.00101049 0)
(0 -0.000980955 0)
(0 -0.000996342 0)
(0 -0.00104308 0)
(0 -0.000966587 0)
(0 -0.00098115 0)
(0 -0.000480922 0)
(0 -0.000433899 0)
(0 -0.000423659 0)
(0 -0.000951057 0)
(0 -0.000965391 0)
(0 -0.000417093 0)
(0 -0.000407203 0)
(0 -0.000935001 0)
(0 -0.000948369 0)
(0 -0.000912129 0)
(0 -0.00093061 0)
(0 -0.000400668 0)
(0 -0.000391303 0)
(0 -0.000397535 0)
(0 -0.000382045 0)
(0 -0.000990615 0)
(0 -0.000387989 0)
(0 -0.000372575 0)
(0 -0.000367093 0)
(0 -0.000357653 0)
(0 -0.000897962 0)
(0 -0.000913115 0)
(0 -0.000352679 0)
(0 -0.000343449 0)
(0 -0.000880691 0)
(0 -0.000894993 0)
(0 -0.000348118 0)
(0 -0.000334389 0)
(0 -0.000329622 0)
(0 -0.000320956 0)
(0 -0.000927455 0)
(0 -0.000909487 0)
(0 -0.000876645 0)
(0 -0.000891464 0)
(0 -0.000858188 0)
(0 -0.000873255 0)
(0 -0.000905863 0)
(0 -0.000888028 0)
(0 -0.000855113 0)
(0 -0.000870156 0)
(0 -0.000836916 0)
(0 -0.000851833 0)
(0 -0.000315654 0)
(0 -0.000307345 0)
(0 -0.000884312 0)
(0 -0.000865753 0)
(0 -0.000833018 0)
(0 -0.000846678 0)
(0 -0.000813573 0)
(0 -0.000827098 0)
(0 -0.000793533 0)
(0 -0.000806914 0)
(0 -0.000839513 0)
(0 -0.00081933 0)
(0 -0.000786455 0)
(0 -0.000798896 0)
(0 -0.000765789 0)
(0 -0.000777979 0)
(0 -0.000810024 0)
(0 -0.000788978 0)
(0 -0.000756854 0)
(0 -0.000767756 0)
(0 -0.0007357 0)
(0 -0.000746279 0)
(0 -0.000777417 0)
(0 -0.000755623 0)
(0 -0.000724627 0)
(0 -0.000733784 0)
(0 -0.000763731 0)
(0 -0.000741275 0)
(0 -0.000711039 0)
(0 -0.000718433 0)
(0 -0.000747714 0)
(0 -0.000725067 0)
(0 -0.000695848 0)
(0 -0.000702344 0)
(0 -0.000730786 0)
(0 -0.000708118 0)
(0 -0.00067968 0)
(0 -0.000685526 0)
(0 -0.000713134 0)
(0 -0.000690456 0)
(0 -0.000717046 0)
(0 -0.00069424 0)
(0 -0.000719835 0)
(0 -0.000696928 0)
(0 -0.000671495 0)
(0 -0.000674067 0)
(0 -0.000698507 0)
(0 -0.000675594 0)
(0 -0.000651314 0)
(0 -0.000652821 0)
(0 -0.000676245 0)
(0 -0.00065337 0)
(0 -0.000675846 0)
(0 -0.000652828 0)
(0 -0.000674332 0)
(0 -0.000651108 0)
(0 -0.000671715 0)
(0 -0.000648475 0)
(0 -0.000627964 0)
(0 -0.000625325 0)
(0 -0.000645265 0)
(0 -0.000622057 0)
(0 -0.000602317 0)
(0 -0.000598842 0)
(0 -0.000617767 0)
(0 -0.000594442 0)
(0 -0.000612391 0)
(0 -0.000575865 0)
(0 -0.000589298 0)
(0 -0.000606511 0)
(0 -0.000583495 0)
(0 -0.000600006 0)
(0 -0.000576893 0)
(0 -0.000592673 0)
(0 -0.000569498 0)
(0 -0.000584484 0)
(0 -0.000561261 0)
(0 -0.000546558 0)
(0 -0.000575374 0)
(0 -0.000552186 0)
(0 -0.00056546 0)
(0 -0.000542348 0)
(0 -0.000554983 0)
(0 -0.000531865 0)
(0 -0.000543934 0)
(0 -0.000567124 0)
(0 -0.000555554 0)
(0 -0.000532344 0)
(0 -0.000543449 0)
(0 -0.000520211 0)
(0 -0.000530788 0)
(0 -0.000301624 0)
(0 -0.000293563 0)
(0 -0.00057879 0)
(0 -0.000338633 0)
(0 -0.0009219 0)
(0 -0.00101067 0)
(0 -0.000507466 0)
(0 -0.000517471 0)
(0 -0.000287693 0)
(0 -0.000279459 0)
(0 -0.000285741 0)
(0 -0.000271132 0)
(0 -0.000265356 0)
(0 -0.000256804 0)
(0 -0.000975759 0)
(0 -0.00026201 0)
(0 -0.000247514 0)
(0 -0.000242993 0)
(0 -0.000233467 0)
(0 -0.000237767 0)
(0 -0.0002238 0)
(0 -0.000219253 0)
(0 -0.000209938 0)
(0 -0.000214297 0)
(0 -0.000200751 0)
(0 -0.000195762 0)
(0 -0.000187915 0)
(0 -0.000494074 0)
(0 -0.000503512 0)
(0 -0.000192131 0)
(0 -0.000180314 0)
(0 -0.000175158 0)
(0 -0.000168158 0)
(0 -0.000695003 0)
(0 -0.000526896 0)
(0 -0.000512377 0)
(0 -0.000535731 0)
(0 -0.000520664 0)
(0 -0.000497303 0)
(0 -0.000505105 0)
(0 -0.000615938 0)
(0 -0.00107544 0)
(0 -0.000484143 0)
(0 -0.000628708 0)
(0 -0.000172621 0)
(0 -0.000543916 0)
(0 -0.000296209 0)
(0 -0.000298056 0)
(0 -0.000246428 0)
(0 -0.000212734 0)
(0 -0.000481715 0)
(0 -0.000489082 0)
(0 -0.00111008 0)
(0 -0.000711893 0)
(0 -0.000695632 0)
(0 -0.000718117 0)
(0 -0.000702182 0)
(0 -0.000724316 0)
(0 -0.000708711 0)
(0 -0.000730631 0)
(0 -0.00071489 0)
(0 -0.00073675 0)
(0 -0.00072094 0)
(0 -0.000742348 0)
(0 -0.000726966 0)
(0 -0.000747163 0)
(0 -0.000732474 0)
(0 -0.000752278 0)
(0 -0.000736847 0)
(0 -0.000757272 0)
(0 -0.000740287 0)
(0 -0.000717595 0)
(0 -0.000762683 0)
(0 -0.000722524 0)
(0 -0.000701514 0)
(0 -0.000465635 0)
(0 -0.000472601 0)
(0 -6.39929e-05 0)
(0 -6.29671e-05 0)
(0 -0.000704375 0)
(0 -0.000684343 0)
(0 -0.00113666 0)
(0 -0.00112824 0)
(0 -6.78749e-05 0)
(0 -6.6975e-05 0)
(0 -0.000449096 0)
(0 -0.000455649 0)
(0 -0.000478989 0)
(0 -0.000461604 0)
(0 -0.000484672 0)
(0 -0.000686966 0)
(0 -0.000667534 0)
(0 -7.19886e-05 0)
(0 -7.11609e-05 0)
(0 -0.000671013 0)
(0 -0.000650342 0)
(0 -0.00113582 0)
(0 -0.000410264 0)
(0 -0.000654271 0)
(0 -0.000633292 0)
(0 -7.62999e-05 0)
(0 -7.5722e-05 0)
(0 -0.0010823 0)
(0 -0.000637451 0)
(0 -0.000616336 0)
(0 -0.000693578 0)
(0 -0.000620952 0)
(0 -0.00059986 0)
(0 -0.00116538 0)
(0 -8.18585e-05 0)
(0 -8.06295e-05 0)
(0 -0.000605014 0)
(0 -0.000584517 0)
(0 -0.000589255 0)
(0 -0.000569235 0)
(0 -0.000573085 0)
(0 -0.000553953 0)
(0 -0.000557547 0)
(0 -0.000538916 0)
(0 -0.000987094 0)
(0 -0.00097188 0)
(0 -0.000563829 0)
(0 -0.00054232 0)
(0 -0.000524227 0)
(0 -8.68438e-05 0)
(0 -8.57973e-05 0)
(0 -0.000626401 0)
(0 -0.000989637 0)
(0 -0.000974357 0)
(0 -0.00052714 0)
(0 -0.000509822 0)
(0 -0.000505871 0)
(0 -0.000492239 0)
(0 -0.000496066 0)
(0 -0.000478969 0)
(0 -0.000482755 0)
(0 -0.000465886 0)
(0 -0.000461855 0)
(0 -0.000449164 0)
(0 -0.000453247 0)
(0 -0.000436956 0)
(0 -0.000440819 0)
(0 -0.00042494 0)
(0 -0.000428701 0)
(0 -0.000413245 0)
(0 -0.00041711 0)
(0 -0.0004022 0)
(0 -0.000406138 0)
(0 -0.000391713 0)
(0 -0.00039565 0)
(0 -0.000381636 0)
(0 -0.000631 0)
(0 -0.000991459 0)
(0 -0.000976444 0)
(0 -0.000420368 0)
(0 -9.21793e-05 0)
(0 -9.13566e-05 0)
(0 -9.32028e-05 0)
(0 -0.000377361 0)
(0 -0.000367798 0)
(0 -0.000371941 0)
(0 -0.000358843 0)
(0 -0.000996043 0)
(0 -0.000977943 0)
(0 -0.000362714 0)
(0 -0.000350079 0)
(0 -8.49435e-05 0)
(0 -9.05941e-05 0)
(0 -0.000994171 0)
(0 -0.000978297 0)
(0 -0.000994432 0)
(0 -0.000978546 0)
(0 -0.000997176 0)
(0 -0.000978256 0)
(0 -0.000993615 0)
(0 -0.000976913 0)
(0 -8.4201e-05 0)
(0 -8.98404e-05 0)
(0 -0.000693122 0)
(0 -8.35832e-05 0)
(0 -8.9358e-05 0)
(0 -8.30849e-05 0)
(0 -8.9289e-05 0)
(0 -8.27014e-05 0)
(0 -8.91271e-05 0)
(0 -9.70533e-05 0)
(0 -9.59396e-05 0)
(0 -8.89022e-05 0)
(0 -9.58009e-05 0)
(0 -8.88942e-05 0)
(0 -9.59886e-05 0)
(0 -8.90778e-05 0)
(0 -9.63545e-05 0)
(0 -8.93993e-05 0)
(0 -9.69185e-05 0)
(0 -9.01375e-05 0)
(0 -9.75611e-05 0)
(0 -9.10006e-05 0)
(0 -9.85911e-05 0)
(0 -9.20406e-05 0)
(0 -0.000100032 0)
(0 -9.34802e-05 0)
(0 -0.000101596 0)
(0 -9.50656e-05 0)
(0 -0.000103456 0)
(0 -9.69341e-05 0)
(0 -0.000105602 0)
(0 -0.000112332 0)
(0 -0.00011473 0)
(0 -0.000107988 0)
(0 -0.000117382 0)
(0 -0.000110636 0)
(0 -0.000120413 0)
(0 -0.000113651 0)
(0 -0.00012372 0)
(0 -0.000117028 0)
(0 -0.000127429 0)
(0 -0.000104786 0)
(0 -0.000124459 0)
(0 -0.000120783 0)
(0 -0.000131563 0)
(0 -0.000124927 0)
(0 -0.00013611 0)
(0 -0.000129504 0)
(0 -0.000141101 0)
(0 -0.000134488 0)
(0 -0.000146465 0)
(0 -0.000153267 0)
(0 -0.00015892 0)
(0 -0.000152128 0)
(0 -0.000164821 0)
(0 -0.000158021 0)
(0 -0.000170928 0)
(0 -0.000164518 0)
(0 -0.000176805 0)
(0 -0.000170346 0)
(0 -0.000183044 0)
(0 -0.000175979 0)
(0 -0.000189456 0)
(0 -0.000182716 0)
(0 -0.000196287 0)
(0 -0.000189899 0)
(0 -0.000203654 0)
(0 -0.000166063 0)
(0 -0.000209025 0)
(0 -0.000353918 0)
(0 -0.000341624 0)
(0 -0.000354739 0)
(0 -9.87753e-05 0)
(0 -9.96546e-05 0)
(0 -0.000102932 0)
(0 -0.000345257 0)
(0 -0.000333367 0)
(0 -0.000442041 0)
(0 3.95292e-06 0)
(0 2.96929e-06 0)
(0 3.34831e-06 0)
(0 4.26828e-06 0)
(0 3.66791e-06 0)
(0 4.52407e-06 0)
(0 3.91501e-06 0)
(0 4.72071e-06 0)
(0 4.08833e-06 0)
(0 4.8407e-06 0)
(0 4.20494e-06 0)
(0 4.91285e-06 0)
(0 4.27322e-06 0)
(0 4.96235e-06 0)
(0 4.29942e-06 0)
(0 4.98285e-06 0)
(0 4.28861e-06 0)
(0 3.50976e-06 0)
(0 3.20344e-06 0)
(0 -0.000337062 0)
(0 -0.000325331 0)
(0 -0.000321858 0)
(0 -0.000313682 0)
(0 -0.000317326 0)
(0 -0.000305276 0)
(0 -0.000308825 0)
(0 -0.000296434 0)
(0 -0.000299322 0)
(0 -0.000287437 0)
(0 -0.000289696 0)
(0 -0.000278834 0)
(0 -0.000559175 0)
(0 -0.00121677 0)
(0 -0.000991993 0)
(0 -0.00097536 0)
(0 -0.000275892 0)
(0 -0.000267717 0)
(0 -0.000270887 0)
(0 -0.000259323 0)
(0 -0.000105575 0)
(0 -0.000106411 0)
(0 -0.000432 0)
(0 -0.000626107 0)
(0 -0.000357159 0)
(0 -0.00080661 0)
(0 -0.000727287 0)
(0 -0.000261085 0)
(0 -0.00025058 0)
(0 -0.000311265 0)
(0 -0.000488887 0)
(0 -0.00030165 0)
(0 2.23574e-06 0)
(0 -0.000192362 0)
(0 -0.000383672 0)
(0 -0.000742681 0)
(0 -0.000657213 0)
(0 -0.000749802 0)
(0 -0.000779302 0)
(0 -0.00102312 0)
(0 -0.000519357 0)
(0 -0.000757614 0)
(0 -0.000867024 0)
(0 -0.000913844 0)
(0 -0.000897284 0)
(0 -0.00103848 0)
(0 -0.000772877 0)
(0 -0.00122611 0)
(0 -0.00081094 0)
(0 -0.000787707 0)
(0 -0.000790722 0)
(0 -0.0007673 0)
(0 -0.000769068 0)
(0 -0.000745336 0)
(0 -0.000745912 0)
(0 -0.000721904 0)
(0 -0.000721225 0)
(0 -0.000696563 0)
(0 -0.000695039 0)
(0 -0.00066932 0)
(0 -0.000667804 0)
(0 -0.000692803 0)
(0 -0.000661231 0)
(0 -0.000690587 0)
(0 -0.000662081 0)
(0 -0.000687583 0)
(0 -0.000659392 0)
(0 -0.000684576 0)
(0 -0.000656148 0)
(0 -0.000682357 0)
(0 -0.000641821 0)
(0 -0.000642827 0)
(0 -0.000652986 0)
(0 -0.000681492 0)
(0 -0.000649685 0)
(0 -0.000678585 0)
(0 -0.000613458 0)
(0 -0.000615446 0)
(0 -0.000645154 0)
(0 -0.000673465 0)
(0 -0.000584936 0)
(0 -0.000587438 0)
(0 -0.00063917 0)
(0 -0.00066708 0)
(0 -0.000631662 0)
(0 -0.00065947 0)
(0 -0.000557209 0)
(0 -0.000559467 0)
(0 -0.000624458 0)
(0 -0.000623306 0)
(0 -0.000651173 0)
(0 -0.000530385 0)
(0 -0.000531349 0)
(0 -0.00061423 0)
(0 -0.000641695 0)
(0 -0.00060371 0)
(0 -0.000631066 0)
(0 -0.000503226 0)
(0 -0.000503175 0)
(0 -0.000499595 0)
(0 -0.000694971 0)
(0 -0.000592005 0)
(0 -0.00061975 0)
(0 -0.00065884 0)
(0 -0.000647741 0)
(0 -0.000607956 0)
(0 -0.000636177 0)
(0 -0.000596793 0)
(0 -0.000623705 0)
(0 -0.000603052 0)
(0 -0.000477276 0)
(0 -0.000475449 0)
(0 -0.000584162 0)
(0 -0.000610039 0)
(0 -0.00050279 0)
(0 -0.00047471 0)
(0 -0.000443317 0)
(0 -0.00044725 0)
(0 -0.000475272 0)
(0 -0.000448808 0)
(0 -0.00057091 0)
(0 -0.000596547 0)
(0 -0.000686524 0)
(0 -0.000421984 0)
(0 -0.000422898 0)
(0 -0.000708385 0)
(0 -0.000559033 0)
(0 -0.000583692 0)
(0 -0.000623617 0)
(0 -0.000609768 0)
(0 -0.000568708 0)
(0 -0.000594974 0)
(0 -0.000552466 0)
(0 -0.000579861 0)
(0 -0.000475249 0)
(0 -0.000396876 0)
(0 -0.00039743 0)
(0 -0.000564417 0)
(0 -0.000536962 0)
(0 -0.00056409 0)
(0 -0.000651234 0)
(0 -0.000516138 0)
(0 -0.000548864 0)
(0 -0.000371397 0)
(0 -0.000372789 0)
(0 -0.000593261 0)
(0 -0.000577218 0)
(0 -0.000526563 0)
(0 -0.000561301 0)
(0 -0.000515777 0)
(0 -0.000546096 0)
(0 -0.000399245 0)
(0 -0.000375863 0)
(0 -0.00040227 0)
(0 -0.000379196 0)
(0 -0.000352861 0)
(0 -0.000355472 0)
(0 -0.000381543 0)
(0 -0.000357091 0)
(0 -0.000330855 0)
(0 -0.000332166 0)
(0 -0.000371097 0)
(0 -0.000184472 0)
(0 -0.000541483 0)
(0 -0.00118271 0)
(0 -0.000381743 0)
(0 -0.000252394 0)
(0 -0.000241678 0)
(0 -0.000263494 0)
(0 -0.000501986 0)
(0 -0.000530115 0)
(0 -0.000133801 0)
(0 -0.000959485 0)
(0 -0.000957703 0)
(0 -0.000991679 0)
(0 -0.000107049 0)
(0 -0.000112626 0)
(0 -0.000113414 0)
(0 -0.00026494 0)
(0 -8.56846e-05 0)
(0 -0.000305113 0)
(0 -0.000306033 0)
(0 -0.000486657 0)
(0 -0.000512619 0)
(0 -0.000621934 0)
(0 -8.19811e-05 0)
(0 -7.74164e-05 0)
(0 -0.000942119 0)
(0 -0.000940041 0)
(0 -0.00100881 0)
(0 -0.000243402 0)
(0 -0.000232463 0)
(0 -0.000230998 0)
(0 -0.000221512 0)
(0 -0.000345194 0)
(0 -0.000345039 0)
(0 -0.00012302 0)
(0 -0.000588163 0)
(0 -0.000222775 0)
(0 -0.000211878 0)
(0 -0.000210515 0)
(0 -0.000201192 0)
(0 -0.00019976 0)
(0 -0.000190965 0)
(0 -0.000192229 0)
(0 -0.000182595 0)
(0 5.62929e-06 0)
(0 -0.000183535 0)
(0 -0.000512615 0)
(0 -0.000466458 0)
(0 -0.000493519 0)
(0 -0.000960778 0)
(0 -0.000312288 0)
(0 -0.000557109 0)
(0 -0.000286086 0)
(0 -0.000260893 0)
(0 -0.000280186 0)
(0 -0.000254833 0)
(0 -0.000273864 0)
(0 -0.000248434 0)
(0 -0.000267182 0)
(0 -0.00024165 0)
(0 -0.000260154 0)
(0 -0.000924731 0)
(0 -0.000922551 0)
(0 -0.000937637 0)
(0 -0.000919512 0)
(0 -0.000904656 0)
(0 -0.000901054 0)
(0 -0.00088604 0)
(0 -0.000915805 0)
(0 -0.000278351 0)
(0 -0.00027955 0)
(0 -0.000306164 0)
(0 -0.000281159 0)
(0 -0.000306287 0)
(0 -0.000283103 0)
(0 -0.000306868 0)
(0 -0.000284787 0)
(0 -0.000260604 0)
(0 -0.000262952 0)
(0 -0.000285576 0)
(0 -0.000264486 0)
(0 -0.000242356 0)
(0 -0.000244395 0)
(0 -0.000234631 0)
(0 -0.00025294 0)
(0 -0.000227421 0)
(0 -0.000245443 0)
(0 -0.000436969 0)
(0 -0.00047473 0)
(0 -0.000119848 0)
(0 -0.000119245 0)
(0 -0.000120499 0)
(0 -0.000883463 0)
(0 -0.000222685 0)
(0 -0.000224791 0)
(0 -0.000896726 0)
(0 -0.000910903 0)
(0 -0.000285394 0)
(0 -0.0010067 0)
(0 -0.000742878 0)
(0 -0.000251472 0)
(0 -0.000249886 0)
(0 -0.000469015 0)
(0 -0.000220001 0)
(0 -0.00023764 0)
(0 -0.000262818 0)
(0 -0.000254647 0)
(0 -0.000229771 0)
(0 -0.000246497 0)
(0 -0.000271084 0)
(0 -0.000262625 0)
(0 -0.000238285 0)
(0 -0.000254106 0)
(0 -0.000229996 0)
(0 -0.000245488 0)
(0 -0.00026928 0)
(0 -0.000260288 0)
(0 -0.000283921 0)
(0 -0.00027443 0)
(0 -0.000251167 0)
(0 -0.000264839 0)
(0 -0.000241896 0)
(0 -0.000255128 0)
(0 -0.000277824 0)
(0 -0.000267633 0)
(0 -0.000245247 0)
(0 -0.000257269 0)
(0 -0.000279394 0)
(0 -0.000268482 0)
(0 -0.000290376 0)
(0 -0.000278883 0)
(0 -0.000257419 0)
(0 -0.000267206 0)
(0 -0.000288438 0)
(0 -0.000276112 0)
(0 -0.000296997 0)
(0 -0.000284092 0)
(0 -0.00026365 0)
(0 -0.000271128 0)
(0 -0.000291563 0)
(0 -0.000277777 0)
(0 -0.000257892 0)
(0 -0.000263815 0)
(0 -0.000283475 0)
(0 -0.000268827 0)
(0 -0.000288296 0)
(0 -0.000272977 0)
(0 -0.000254098 0)
(0 -0.000292348 0)
(0 -0.000276291 0)
(0 -0.000295509 0)
(0 -0.000278715 0)
(0 -0.000297659 0)
(0 -0.000280127 0)
(0 -0.000298674 0)
(0 -0.000280412 0)
(0 -0.000298628 0)
(0 -0.000262338 0)
(0 -0.000279594 0)
(0 -0.000297531 0)
(0 -0.000277672 0)
(0 -0.000295326 0)
(0 -0.000274629 0)
(0 -0.000292044 0)
(0 -0.000313125 0)
(0 -0.000309607 0)
(0 -0.000287686 0)
(0 -0.000304989 0)
(0 -0.000327299 0)
(0 -0.000322497 0)
(0 -0.000299275 0)
(0 -0.000316683 0)
(0 -0.000314883 0)
(0 -0.000345428 0)
(0 -0.00029253 0)
(0 -0.000309781 0)
(0 -0.000284729 0)
(0 -0.000301759 0)
(0 -0.000327321 0)
(0 -0.000319063 0)
(0 -0.000345082 0)
(0 -0.000336652 0)
(0 -0.000309702 0)
(0 -0.0003271 0)
(0 -0.000354638 0)
(0 -0.000344722 0)
(0 -0.000316523 0)
(0 -0.000333971 0)
(0 -0.000363304 0)
(0 -0.000352516 0)
(0 -0.000257526 0)
(0 -0.000268008 0)
(0 -0.000322296 0)
(0 -0.000340179 0)
(0 -0.000371503 0)
(0 -0.000358272 0)
(0 -0.000326891 0)
(0 -0.000344993 0)
(0 -0.000259334 0)
(0 -0.00024321 0)
(0 -0.000377517 0)
(0 -0.000364584 0)
(0 -0.000330972 0)
(0 -0.000349865 0)
(0 -0.000384934 0)
(0 -0.000369452 0)
(0 -0.000404914 0)
(0 -0.000389712 0)
(0 -0.000353509 0)
(0 -0.000373191 0)
(0 -0.000409722 0)
(0 -0.000392831 0)
(0 -0.000355447 0)
(0 -0.000374841 0)
(0 -0.000412261 0)
(0 -0.000394342 0)
(0 -0.000431899 0)
(0 -0.000414046 0)
(0 -0.000374952 0)
(0 -0.000394446 0)
(0 -0.000433996 0)
(0 -0.000414124 0)
(0 -0.000454171 0)
(0 -0.00043397 0)
(0 -0.000393184 0)
(0 -0.000412803 0)
(0 -0.000453856 0)
(0 -0.000432604 0)
(0 -0.000390973 0)
(0 -0.000411024 0)
(0 -0.000452784 0)
(0 -0.000431494 0)
(0 -0.000233794 0)
(0 -0.000218308 0)
(0 -0.000427266 0)
(0 -0.000459286 0)
(0 -0.000504418 0)
(0 -0.00048826 0)
(0 -0.000442815 0)
(0 -0.000470971 0)
(0 -0.000517094 0)
(0 -0.000498971 0)
(0 -0.000452802 0)
(0 -0.000480064 0)
(0 -0.00052551 0)
(0 -0.000505922 0)
(0 -0.000460732 0)
(0 -0.000550221 0)
(0 -0.000530163 0)
(0 -0.000473365 0)
(0 -0.000389147 0)
(0 -0.000598916 0)
(0 -0.000114209 0)
(0 -0.000121204 0)
(0 -0.000114755 0)
(0 -0.000121655 0)
(0 -0.000114149 0)