/*--------------------------------*- C++ -*----------------------------------*\
| =========                 |                                                 |
| \\      /  F ield         | OpenFOAM: The Open Source CFD Toolbox           |
|  \\    /   O peration     | Version:  v2012                                 |
|   \\  /    A nd           | Website:  www.openfoam.com                      |
|    \\/     M anipulation  |                                                 |
\*---------------------------------------------------------------------------*/
FoamFile
{
    version     2.0;
    format      ascii;
    class       volScalarField;
    location    "950";
    object      omega_0;
}
// * * * * * * * * * * * * * * * * * * * * * * * * * * * * * * * * * * * * * //

dimensions      [0 0 -1 0 0 0 0];


internalField   nonuniform List<scalar> 
18355
(
1.5908
0.020429
0.190393
0.0210083
0.0404573
0.492198
0.0216023
0.0467424
0.0220127
0.195071
0.02543
0.114598
0.121417
0.625319
0.0210845
0.0201967
0.0210047
0.024226
0.145728
0.0225535
1.8471
0.0218616
0.0204593
0.402915
0.0204702
0.0220824
0.0216285
0.0210132
0.022209
0.0261736
0.751852
0.0395071
0.0203408
0.0200655
0.0210824
0.022022
0.0264862
0.0220855
0.0265832
0.0218852
0.0221523
0.0259336
0.0200833
0.0204154
0.0204259
0.248307
0.0209867
0.0209763
0.628657
0.0212112
0.0208245
0.997671
0.0212595
0.124924
0.0212809
0.0225601
0.0211307
0.441171
0.0221389
3.21798
0.0200753
0.0845127
0.12028
0.0214085
0.0509748
0.0206235
0.0232789
0.0265038
0.0200238
0.152597
0.0209275
0.0212808
0.0333571
0.02528
0.489711
0.0200424
0.516912
0.0200519
0.0209005
0.494579
0.0232426
0.407344
0.020034
0.0240158
0.0434258
0.0217293
0.0222867
0.0352936
0.0208783
0.0352676
0.210951
1.8451
0.333151
0.0212049
0.589138
0.0216384
0.0208623
0.0213566
0.0725586
0.0218034
0.040976
0.0208698
0.0211616
0.0195595
0.0234154
0.0202081
0.0500251
0.56797
0.0303349
0.0201495
0.020749
0.0214159
0.0294123
0.0238321
0.275928
0.0260089
0.0208486
0.511872
0.0226666
0.0231312
0.0793069
0.192793
0.211135
0.0408655
0.516702
0.27177
0.0216331
0.0210382
1.48257
0.0216386
0.0208668
1.06533
0.0212676
0.0787606
0.0912393
0.0208676
0.149782
0.460645
0.0211926
1.88126
0.0244963
0.0557386
0.0209527
0.662897
0.092084
0.021648
2.86449
0.0196027
0.0292816
0.23817
0.0210065
0.0230778
0.0213891
0.0261844
0.0200936
0.0205823
0.021052
0.0217191
0.0209589
0.020681
0.0245654
0.021274
0.0201578
0.0304489
0.0256712
0.0516009
3.38895
2.05511
1.62418
0.0244727
0.0212881
0.0731304
0.0215907
0.485742
0.0211733
0.0221131
0.0213364
0.0195228
0.0225213
0.0265739
0.0217788
0.0400006
0.021758
0.0210361
0.0487282
0.0211494
0.0217862
0.0340362
0.0213456
0.0217047
0.253156
0.0729358
0.0204588
0.0200598
0.0214083
0.277866
0.0205376
2.08469
0.0204384
0.535933
0.0211182
0.0232846
0.0269084
0.0216922
2.05708
0.0215628
1.67553
0.0210312
0.0202918
0.021272
0.0215496
0.0621651
0.0222923
0.021866
0.019613
0.381367
0.0265981
0.0247195
0.0215788
0.0209889
0.029366
0.0199763
0.0336112
0.0252716
0.0414521
0.0234767
0.0199986
0.477096
0.273838
0.030407
0.0214051
0.0234332
0.0860626
0.0199888
0.0301707
0.0349753
0.0219362
0.258954
0.0243952
0.0218878
0.0204548
0.022433
0.0216084
0.0293597
0.0215588
0.0212867
0.0209791
0.0559328
0.113955
0.0210081
0.021757
0.0892623
0.148571
0.0261539
0.0195283
0.0425931
0.024367
0.0217415
0.0234782
0.0208108
0.212203
0.257295
0.066324
0.0288399
0.0273982
0.0335794
0.0360388
0.0796459
0.0208031
0.0212878
0.0218442
0.0201468
0.0232782
0.0248721
0.0209745
0.0215515
0.0306924
0.0208557
0.0730207
0.578773
0.0288578
0.0215763
0.0265861
0.0201364
0.0361951
0.0215153
0.027233
0.0218705
0.026775
0.27231
0.0203186
0.0436191
0.0225573
0.0232505
0.0393846
0.0213152
0.0200443
0.0677935
0.0215495
0.0642005
0.0266017
1.06859
0.0373934
0.0676098
0.0237001
0.0318999
0.0211541
0.0236519
0.0283801
0.0434513
0.051288
0.249615
0.0210653
0.0236496
0.107283
0.0270117
0.0210611
0.0209684
0.0209915
0.0475549
0.249644
0.338039
0.0388026
0.030254
0.0242836
0.0844128
0.0196019
0.0215423
0.0242285
0.0213594
0.0305208
0.020962
0.156174
0.0202283
0.543278
0.0213506
0.0218352
0.0240534
0.133629
1.97508
0.0294787
0.0329279
0.021888
0.0208877
0.0213508
0.024099
0.17509
0.0209109
0.0214754
0.116726
0.0218206
0.0209123
0.150144
0.0236583
0.0209854
0.0212937
0.0278512
0.0222575
0.0277313
0.020053
0.0214664
0.0217692
2.48058
0.0970569
0.0200311
0.0209385
0.0303909
0.0209991
0.0214878
0.080679
0.115431
0.0325409
0.0213349
0.0219786
0.122396
0.0218899
0.0478425
0.0237084
0.0202624
0.0292259
0.0339897
0.0216952
0.0213459
0.0242646
0.0214709
0.023265
0.0214031
0.0538745
0.0216209
0.0229191
0.0208676
0.0209923
0.0231028
0.0220877
0.0650701
1.40772
0.130886
0.0227095
0.148055
0.027123
0.0213692
0.0209116
0.040837
0.021345
0.0336048
0.0214789
0.0271604
0.106093
0.0493174
1.97659
0.0700289
0.019568
0.536972
0.0218043
0.0209643
1.83268
0.021315
0.0271279
0.0202475
0.0568486
0.0213099
0.0711287
0.439596
0.0614195
0.0212783
0.0204578
0.0641826
0.0226699
0.0210335
0.0852345
0.172559
0.0209587
0.0415572
0.0655456
0.0204532
0.0221278
0.028433
0.179949
0.0370701
0.0218218
0.0211948
0.0361823
0.0212924
0.0201912
0.021176
0.0453907
1.44005
0.0202467
0.0221302
0.0214937
0.140669
0.0343273
0.0200415
0.0272454
0.0342089
0.0214733
0.285456
0.0844162
0.0217906
0.0214546
0.0357502
0.144809
0.709836
0.0202235
2.08228
0.0212371
0.0202383
0.0397331
0.022769
0.05678
0.03349
0.0230258
0.0258746
0.021871
0.147053
0.0228036
0.0276951
0.0218601
0.0202002
0.0217066
0.0202145
0.0838806
0.845367
0.0558265
0.0246896
0.0216097
0.0218594
0.0215084
0.0237288
0.0215489
0.0200274
0.0213846
0.0365394
0.0204618
0.021539
2.03568
2.08991
0.111582
0.0216181
0.0219945
0.0285545
0.0218346
0.212001
0.208954
0.0233972
0.0240896
0.0258582
0.0221537
0.0232949
4.5921
0.0294929
0.0218407
0.338997
0.0215897
2.03892
0.525424
0.0248042
0.0220734
4.61544
0.0209806
0.0676189
0.0399333
0.371756
0.0228063
0.0216857
0.0214589
0.412502
0.588067
0.36406
0.440248
0.0234619
0.0214486
0.0240199
0.0212946
0.0231708
1.89453
0.239988
1.10168
0.105999
0.0267646
0.0368282
0.0305473
0.020995
0.02115
0.0278038
0.0239969
0.0215304
0.0212926
0.548469
0.0208476
0.106623
0.0244385
0.0803062
0.12979
0.0211565
0.0238272
2.00022
0.0213793
1.39136
0.0212741
0.749656
0.0294927
0.0219455
0.0303884
0.0792038
0.0711955
0.0218831
0.0200119
0.0344608
0.025014
0.0805553
0.0213731
0.0847012
0.0208394
0.203147
0.0211734
0.0211573
0.184065
0.0248037
0.0333298
0.0210659
0.0243725
0.0228504
0.0977689
0.34288
0.0239003
0.0325371
0.0211609
0.026435
0.0217277
0.0237396
4.17524
0.0204187
0.115692
0.0215483
0.0212577
0.023787
0.181576
0.0225627
0.0752244
0.0220512
0.0350342
0.445013
0.0196087
0.0209865
2.08275
0.0341464
2.10444
0.0345666
0.0217264
0.0212985
0.0209695
0.0252814
0.0219943
0.0201194
0.136323
1.13349
0.0211425
0.179345
0.168776
0.0246651
0.200712
0.0202066
0.520578
0.367459
0.0196708
0.449281
0.0385477
0.352238
0.0884184
0.0211025
0.0209674
0.0215723
0.0561877
0.0467557
0.0212982
0.0219234
0.134287
0.0217586
0.0400508
0.0210608
0.0365541
0.480348
0.402195
0.0787981
0.391134
0.0356633
0.341423
0.0240938
0.0209195
0.0254445
0.0693479
0.026082
0.0442187
0.0212883
0.17583
0.0215109
0.0217701
0.330922
0.0216992
0.0257609
0.0320033
0.066658
0.0214723
0.0212886
0.023692
0.0246974
0.0199673
0.0216777
0.0317671
0.133031
0.0228884
0.0212973
0.0384667
0.442913
0.0212317
0.376902
0.283164
0.021465
1.88752
0.0200028
0.191521
0.0213447
0.0202898
0.184236
0.0229729
0.179928
0.0227876
0.0212906
1.89558
0.0213414
0.0201306
0.0215237
0.0209285
0.0261457
0.0336106
1.90436
0.0220742
1.59217
0.0228908
0.382938
0.484486
0.0221517
0.0213438
0.0243743
0.020135
0.107016
0.0211934
0.0201087
0.0201426
0.021287
0.0213688
0.219148
0.0250692
0.0459356
0.0225874
0.0236522
0.0241526
0.0241329
0.290086
0.0204646
0.0834421
0.0408374
0.020012
0.200064
0.480507
0.0207818
0.361784
0.0211774
0.106111
0.0349433
0.0196551
0.0347874
0.025066
0.369599
0.0208545
0.02402
0.432361
0.0802507
0.0470005
0.0213648
0.252502
0.0741845
0.51588
0.0213722
0.0226864
0.0210401
0.021479
0.0210584
0.0209954
0.0204128
0.377195
0.0256327
0.0208921
0.0200576
0.0205639
0.0217857
0.0742211
0.0732814
0.0203114
0.0246992
0.0215448
0.0215759
0.0215093
0.0209472
0.0337127
0.0200547
0.020888
0.0217668
0.0215932
0.0230334
0.0215368
0.252388
1.55309
0.0239706
0.0208706
0.138983
0.0200992
0.0200622
0.0215208
0.0444268
0.0245613
0.0213519
0.0201656
0.0204484
0.0256808
0.0200158
0.026754
0.021184
0.0217257
0.0210582
0.0226183
0.350556
0.0209118
0.0218181
0.0211856
0.159153
0.367315
0.0264927
0.0219938
0.0273089
0.024738
0.0322932
4.43136
0.021744
0.366794
0.0218338
0.0927276
0.0219905
0.0202728
0.0200634
0.612715
0.0200238
0.0267775
0.0299693
0.161703
0.0356643
0.0223212
0.0210198
0.0208632
0.0212183
0.0281863
0.102705
0.215766
0.0440318
0.0215284
0.0200132
0.0225421
0.0210608
0.0208117
0.0217594
0.0459193
0.024704
0.100527
0.0215233
0.0214373
0.0319454
0.0213005
0.144695
0.0444113
0.0371664
0.133816
3.16306
0.0287473
0.0209837
0.0200215
0.0216638
0.0212805
0.105415
0.046415
0.104428
0.0203071
0.0215745
0.0230751
0.0208297
4.40614
0.107995
0.0200598
0.0200562
0.0209604
0.0210661
0.020921
0.02129
0.219357
0.0199717
0.0218789
0.0203166
0.0205877
0.0210666
0.0214607
0.0264244
0.0205826
0.0248681
0.0201597
0.0922582
0.200567
0.0240707
0.0543206
0.0227243
0.0218651
0.067628
0.214859
0.0214266
0.0207402
0.0204736
0.026891
0.0219605
0.0287471
0.0431316
0.0214992
0.0219219
0.0214839
0.0932271
0.0321678
0.0220931
0.0205884
0.0242875
0.0374632
0.0211428
0.0716891
0.020839
0.0199657
0.0240684
0.799442
0.447658
0.0630559
0.222794
0.0200549
0.0353372
0.0626373
0.0248879
0.0212098
0.0637364
0.0233754
0.170599
0.831003
0.0207561
0.0200646
0.0214807
0.0219004
0.0200688
0.0532497
0.0578094
0.0201052
0.0215239
0.0219158
0.0366826
0.0212497
0.0208852
0.0293232
0.0218656
0.0208987
0.0659205
0.0939725
0.0851452
0.0212672
0.0202376
0.0201205
0.0213164
0.0239666
0.0268684
0.0208773
0.0206245
0.0226357
0.289208
0.0204611
0.0214171
0.0689906
0.0209212
0.0207605
0.0213451
1.32781
0.0202163
0.0214462
0.0204642
0.0224279
0.0202294
0.0250916
0.139014
0.0214175
0.151636
0.0279963
0.19656
0.0568335
0.0209882
0.0254954
0.0208463
0.0207443
0.0210005
0.363157
0.348824
0.0322105
0.0266314
0.44058
0.070801
0.0220958
0.0989622
0.0478252
0.0232947
0.0200623
0.174
0.0221914
0.0207347
0.0203959
0.238954
1.18437
1.83508
0.0207114
0.090489
0.371456
0.0243896
0.0308713
0.0238662
0.0230635
0.0337858
0.10848
0.0230259
0.0222307
0.0247858
0.848324
0.217663
0.0212379
0.0213597
0.0210861
0.336727
0.0238343
0.0219456
0.434583
0.0251027
0.033561
0.0238554
0.240769
0.0206753
0.0888011
0.0220159
0.0200617
0.0209843
0.02004
0.0200714
0.0208996
0.0216934
0.209108
0.0205252
0.0884219
0.0261476
0.0216655
0.0207416
0.0912953
0.0211938
0.0215185
0.0228963
0.86271
0.043542
0.0229629
0.0215207
0.307057
0.0206707
0.039721
0.0215047
1.75641
0.0314166
0.295012
0.025137
0.021033
0.0443817
0.176173
0.112774
0.0205591
0.0213379
0.0367873
4.1072
0.0195682
0.0480422
0.0205903
0.0263562
0.0208681
0.0200504
0.0219657
0.0220579
0.0200209
0.0336951
0.0318441
0.0239213
0.128782
0.176176
0.0221187
0.17509
0.0201022
0.106155
0.346553
0.156802
0.0200259
0.0220465
0.0214841
0.810472
0.0210598
0.0208391
0.0892602
0.0215017
0.0215107
0.0221434
0.0219745
0.0212466
0.511952
0.360953
0.0638847
0.0207549
0.0214556
0.169811
0.0201009
0.14715
0.0216088
0.0214704
0.021965
0.0233643
0.232776
0.0205415
0.0214709
2.12164
0.0215758
0.0217591
0.0367599
0.353285
0.130471
0.0214267
0.0210541
3.73877
0.156184
1.84846
0.0208639
0.0333988
0.182343
0.0203476
0.0324386
0.0230252
0.366564
0.0233549
0.0215375
0.022095
0.0200291
0.334501
0.0214615
0.0204806
0.348007
0.0288513
0.036218
0.0199954
0.022496
0.0200382
0.0196396
0.0201987
0.0221841
0.0216142
0.0218322
0.0200353
0.0217293
0.0469359
0.0271364
0.0238195
0.0206128
0.0238795
0.0210669
0.271457
0.021649
0.0219903
0.0215616
0.0200655
0.0217863
0.0212477
0.0211748
0.0212353
0.020827
0.0202066
0.446648
0.330107
0.0212458
0.331987
0.0345634
0.0217272
0.0216839
0.0221001
0.468947
0.0218096
0.0200943
0.0200974
0.0200359
2.05928
0.0212835
0.0202801
0.163561
0.0200202
0.0197334
0.0246616
0.0255011
0.0718686
0.1359
1.94266
0.0200559
0.83705
0.0247987
0.0212313
0.0204211
0.0239367
0.0212792
0.0277197
0.059644
0.0233108
0.0219331
0.325303
0.0562949
2.07066
0.0745328
0.334476
0.0813842
0.020512
0.205523
1.38846
0.0201258
0.812853
0.0207079
0.0222557
0.131635
0.0207418
0.149628
0.0245087
0.022655
0.0219077
0.0383352
0.0213735
0.0854646
0.0212373
0.0201832
0.435374
0.0197602
0.0217464
0.0218291
0.0533251
0.0212048
0.0214439
0.0227679
0.188824
0.0212053
0.0212753
0.0202285
0.0234431
0.0211829
0.0222522
0.0457229
0.020973
0.0258412
0.0216852
0.0231781
0.022716
0.0209399
0.0218947
0.0971735
0.0215768
0.0216732
0.023899
0.275708
0.0220719
0.0211287
0.0214251
0.0255458
0.070091
0.0224662
0.0210217
0.0209673
0.0205634
0.0196254
0.0200479
0.0253235
0.0291285
0.055739
0.0215268
0.595619
0.020655
0.0213838
4.19744
0.0444991
0.0199779
0.0775447
0.0216551
0.0210197
0.290323
0.0218375
0.0390693
0.0197427
0.145344
0.0205416
0.0200128
0.0202549
0.0435879
0.0875593
0.021547
0.950594
0.0202335
0.0209264
0.0207387
0.133399
0.0212262
0.0206542
0.0220375
0.0225451
0.0212694
0.0214429
0.0207925
0.0217735
0.0215216
0.0208462
0.0237953
0.0200001
0.804881
0.0666675
0.0202084
0.200505
0.0255794
0.020936
0.0206677
0.0219256
0.0207653
0.0286189
0.024613
0.0455391
0.0437504
0.021687
0.0728473
0.146169
0.0212232
0.0217135
0.0866308
0.0232375
0.266787
0.0202168
0.0210819
0.0223105
0.0217287
0.0210205
0.0255871
0.0209487
0.021518
0.0212452
0.0231034
0.0205835
0.11318
0.0213511
0.0239766
0.0276537
0.021011
0.40688
0.440593
0.0231175
0.0262114
0.0268493
0.0198799
0.0443009
0.0214267
0.0327349
0.43127
1.02589
0.0347756
0.0217401
0.0261967
0.0210085
0.0282879
0.0205237
0.306977
0.0277903
0.0214593
0.020801
0.124857
0.0327769
0.0212248
0.0212236
0.331541
0.0216226
0.0206451
0.895371
0.0533625
0.020116
0.460034
0.0203119
0.0397324
0.0564901
0.0212633
0.0214337
0.0231372
1.80254
0.0207916
0.0252249
0.0214389
0.0212714
0.0208293
0.373628
0.0218144
0.0213971
0.0211009
0.168141
0.0254688
0.0208045
0.0197829
0.105033
0.0211532
0.0204565
0.794195
3.25926
0.0218938
0.248027
0.0231262
0.0471525
0.0222346
0.0591458
0.450609
0.0216799
0.0210956
0.0203154
0.0237804
0.0212055
0.424485
0.082066
0.0205312
0.0220569
0.0203374
0.0200341
0.35556
0.0212129
0.0225447
0.0225735
0.0486011
0.0214534
0.0216666
0.0246239
0.458194
0.0214782
0.0214088
0.0204468
0.0205691
0.0235979
0.0444762
0.0215709
0.021125
0.0212709
0.0211081
0.0203249
0.563745
0.0217296
0.0210412
0.0210967
0.0602513
0.0203743
0.0204591
0.0341384
0.0209269
0.0364219
0.0212477
0.0214316
0.111346
4.68871
1.6658
0.0336488
0.0232217
0.0217565
0.373506
0.0206434
0.024684
0.0199948
0.912808
0.0195447
0.0236898
0.0214622
0.333671
0.0345421
0.0305292
0.33823
0.0222312
0.0465577
0.021699
0.0219654
0.402093
0.034162
0.0211776
0.0203041
0.0232954
0.0265099
0.0214251
0.0212721
0.0206372
0.0199481
0.164101
0.337757
0.0216929
0.0219564
0.42716
0.812262
0.023036
0.0221268
0.0228812
0.0241693
0.0212158
0.0222276
0.0384373
0.0209103
0.0203274
0.0214993
0.0317298
0.190343
0.024813
0.0215325
0.0215534
0.0253287
0.0213398
0.0248514
0.0382218
0.0621867
0.0231082
0.344562
0.020116
0.0212282
0.0218239
0.0199967
0.0215607
0.0208584
0.0402692
0.0210079
0.487427
0.0213903
0.0207218
0.020489
0.0273481
0.0223418
0.0440148
0.0547361
0.0201617
0.294062
0.0230045
0.0205036
0.0198107
0.330959
0.19218
0.0198308
0.0208092
0.020723
0.0222015
0.163093
0.0658609
0.0220856
0.02191
0.136423
0.35728
0.0219201
0.0212158
0.225408
0.0235367
0.079396
0.0233982
0.0211507
0.0624131
0.0246211
4.75686
0.0249158
0.512226
0.0204019
0.0209287
0.0217363
0.021587
0.0234104
0.021661
0.0215456
0.0207928
0.021776
0.0216543
0.0212562
0.0214194
0.0226745
0.0218842
0.0213358
0.0208324
0.0341848
0.0233288
0.0209188
0.0215132
0.158666
0.0213149
0.0217055
0.0218898
0.446439
0.0204606
0.0383101
0.0225354
0.0201837
0.0210624
0.30176
0.233308
0.0219197
0.0217549
0.0232396
0.0363626
0.0208721
0.0259403
0.0357416
0.0210567
0.102803
0.0208173
0.0213303
0.0210039
0.0217253
0.0285762
0.056941
3.75155
0.0272692
0.0201942
0.0214982
0.0211176
0.0451032
0.0219095
0.306656
0.0208213
0.0213691
0.0213546
0.0748303
0.0209757
0.0215648
0.0212543
0.13476
0.020469
1.95827
0.0204277
0.0243758
0.0212815
0.0292181
0.0209915
0.0233594
0.512862
0.0546289
0.0202017
0.0352201
0.0215099
0.0213647
1.91922
0.513668
0.0203221
0.0212453
0.0233132
0.0202514
0.0211015
0.021849
0.0216869
0.0232102
0.0521733
0.022081
0.0259039
0.0483676
0.0216342
0.0209981
0.0211779
0.0224706
0.0278375
0.0214276
4.23294
0.0206629
0.373134
0.0370063
0.0201379
0.0207298
0.0207093
0.0653762
0.0214771
0.0236553
0.021492
0.0207408
0.513777
0.0226829
0.0264283
0.021647
0.0214556
0.0226459
0.0212335
0.0226869
0.0213661
0.0221862
0.0219295
0.0218515
0.512018
0.024373
0.42309
0.020997
0.0247895
0.0222603
0.329101
0.0642888
0.870609
0.0225623
0.0199655
0.0411486
0.0208865
0.446445
0.0221076
0.0452177
0.0223402
0.31247
2.04088
0.023128
0.0263918
0.020747
0.0205343
0.0218742
0.0199137
0.0217103
0.0227767
0.0207853
0.0244988
0.039553
0.323139
0.0208975
0.0692326
0.0201015
0.0211902
0.0211433
0.0930652
0.0216006
0.0994784
0.0216892
0.0210731
0.270283
0.0208802
0.0234495
0.0210439
0.0232744
0.883468
0.0253013
0.617274
0.0212853
0.0625443
0.0227951
0.021121
0.0211423
0.0269943
0.0238575
0.0212719
0.0226577
0.0213234
0.484826
0.0207335
1.67654
0.197831
0.0699627
0.0245115
0.122032
0.0252018
0.0199119
0.209691
0.0211886
0.0837105
0.0218091
0.0225074
0.284467
0.274799
0.0255275
0.11763
0.0213833
0.322261
0.0196067
1.72973
0.0201553
0.0221797
0.0440469
0.0214246
0.0207182
0.0219221
0.0212581
0.0340072
0.270724
0.0315758
0.308999
0.0206595
0.238093
0.0214416
0.0216833
0.0210333
0.021115
0.446282
0.0216063
0.0205687
0.0364601
0.021795
0.321277
0.0705676
0.021264
0.0374354
0.033774
0.0208564
0.0214312
0.0236072
0.0203264
0.055724
0.0271519
0.0226825
0.0228566
0.020444
0.0211805
0.0587221
0.0219655
0.0214418
0.0222234
0.0198994
0.0201348
2.04717
0.0259353
0.78912
0.0264518
0.0526105
0.0266788
0.0211151
0.0252516
0.0204404
0.0209803
0.0602526
0.0238449
0.0226265
0.0470633
0.0219118
0.262744
1.69626
0.0210665
0.0237287
0.0309382
0.486498
0.0203159
0.0203236
0.0216403
0.0254165
0.296488
0.0243233
0.0235246
0.0218106
0.0211715
0.0199373
0.11148
0.0237423
0.0221907
0.45213
0.0216274
0.0227714
0.024062
0.021492
0.0212351
0.0210054
0.0533461
0.10414
0.0218509
0.0230987
0.30347
0.020916
0.0219361
0.023149
0.021581
0.347547
0.442409
0.0889561
0.0796284
0.255164
0.0224971
0.0208453
0.0628603
0.0220612
0.0257795
0.0210324
0.0201887
0.326672
0.083288
0.0210798
0.02075
0.0261922
0.153918
0.0230998
0.0199733
0.44381
0.0227611
0.0363163
0.0201393
0.0268575
0.0195822
0.0227136
0.0251065
0.0211714
3.97733
0.0219403
0.035314
0.0975892
0.324186
0.0858262
0.0211952
0.0621217
0.0242064
0.0239243
0.0220954
0.0219819
0.0214363
0.0224685
0.0344657
0.0227563
0.0525004
0.0207809
0.193877
0.020294
0.0218723
0.223501
0.0243061
0.190626
0.0227401
0.0220747
4.11113
0.436131
0.0208667
0.261779
0.031731
0.0207206
0.0198468
1.75436
0.254205
0.0204646
0.0202816
0.0211174
0.0202325
0.361797
0.323237
0.0195225
0.0198
0.0208633
0.2198
0.0469644
0.270059
0.0201913
0.295693
0.0215834
0.058956
0.508476
0.0239607
0.0205902
0.0205749
0.271718
0.0203444
0.0210585
0.0202063
0.0245989
0.022839
4.48831
0.0245323
0.0217694
0.0211941
0.02621
0.182755
0.0383603
0.0211206
0.0208782
0.148619
0.0496945
0.021933
0.344011
0.0276178
0.0228051
0.339729
0.0226556
0.0250624
0.0218038
0.0833909
0.0214113
0.0217829
2.09418
0.027234
0.0210492
0.0213493
0.0195882
0.0358894
0.108435
0.0209714
0.0202746
0.022103
0.0655903
0.0224094
0.0202034
0.0212405
0.0207298
0.022635
0.0417796
0.0214113
0.0209455
1.25229
0.0211068
0.166817
0.029235
0.0299194
0.0234675
0.0220637
0.0214772
0.229127
0.083683
0.0689053
4.20165
0.02857
0.0208756
0.276457
0.0202144
0.0738968
0.328485
0.022317
0.0211292
0.0234093
0.0745858
0.0211985
0.0209995
0.260627
0.021261
0.0224577
0.0207359
0.0216806
0.0203331
0.063354
0.120784
0.0201463
0.0210222
0.168447
0.0211902
0.0201128
0.0209962
0.0208234
1.83762
0.0241968
0.0228768
0.0222886
0.0219393
0.0202424
0.0354378
0.0991513
0.0259651
0.239701
0.0226849
0.0233105
4.31635
0.0208869
0.0203656
0.0210653
0.0208273
0.0217858
0.0197576
0.0220976
0.318415
0.0212059
0.0210926
0.0227309
0.0208069
0.333628
0.0216526
0.506395
0.172678
0.0242203
0.0292114
0.151629
0.0235316
0.0211711
0.0234041
0.0209487
0.0224612
0.021339
0.0217765
0.268051
0.0202901
0.0213182
0.0414152
0.181335
0.0216777
0.0208434
0.180059
0.0222662
0.0255528
0.0213087
0.0208545
0.0209547
1.93835
0.0214165
0.183649
0.0523876
0.0215853
0.0208343
0.0210557
0.0239664
0.245218
0.0201545
0.03591
0.0210978
0.511629
0.215697
0.0220913
0.165352
0.0215409
0.0228914
0.0235121
0.268005
0.0244129
0.0258811
0.0265516
0.383121
0.0216823
0.0353498
0.0214503
0.0341016
0.142737
0.157596
0.0209412
0.0272966
0.327258
0.442137
0.0228954
0.0234606
0.358958
0.346848
0.0208137
0.054508
0.0211862
0.0238045
0.0214682
0.0223491
0.0222602
0.237989
0.0216447
0.0217957
0.0578975
0.384543
0.0794838
0.123615
0.0697662
0.0207814
0.359064
0.0632153
0.0210376
0.0211215
0.364536
0.0231842
0.0214868
0.0212443
0.037064
0.0206963
0.0212532
2.78879
0.0214509
0.0217171
0.0210401
0.0214016
0.022469
0.0204786
0.401011
0.0244044
0.0230988
0.020492
0.0277601
0.118726
0.0208912
0.0216454
0.300382
0.169901
0.021351
0.023953
0.0207079
0.0209325
0.0412844
0.158962
0.0209333
0.0210591
0.326651
0.51189
0.17437
0.028973
0.0220934
0.115707
0.0207497
0.0245408
0.0237173
0.0205434
1.40368
0.161108
0.0378735
0.0279339
1.7631
0.0198544
0.0197921
0.0227753
0.0321852
0.2903
0.0203358
0.0323763
0.887403
0.499415
0.0216283
0.0224146
0.260555
0.0209818
0.0234695
0.373649
0.0209586
0.0211935
0.0205096
0.268757
0.0208243
0.0238608
0.0218843
0.044542
0.0267437
0.424669
0.0211814
0.021133
0.0286817
0.0217228
0.0224627
0.0220844
0.103069
0.119081
0.0209903
0.0213382
3.61818
0.331767
0.338717
0.0207558
0.0213562
0.0226757
0.0215315
0.0212677
0.0214336
0.0209786
0.0218684
0.0206821
0.020761
0.0566393
0.0233726
0.0263302
0.443399
0.0661787
0.0492819
0.0242771
0.0429846
0.13073
0.0294562
0.022903
0.0252922
0.021066
0.469328
0.0200453
0.0202796
0.0206653
0.466259
0.0208875
0.47305
0.0217585
0.0201281
0.039366
0.0211679
0.0211465
0.0211599
0.025498
0.201001
0.0216122
0.0205415
0.0225632
1.05262
0.0488587
0.325227
0.021037
0.0330518
0.021473
0.0215378
0.0201879
0.0207218
0.0213555
0.02177
0.279209
0.0222599
0.0225313
0.120674
0.18817
0.126655
0.0208414
0.0985942
0.0323822
0.621995
0.0205498
0.0209525
0.0221331
0.490093
0.0197941
0.0213523
0.0207132
0.0203443
0.125233
0.0221556
0.0604305
0.0211534
0.0197772
0.0249395
0.0214334
0.539852
0.021124
0.02365
0.0217713
0.0260953
0.0220264
0.061841
0.333448
0.0212312
0.0384792
3.9796
0.0211203
0.0215228
0.0414741
0.01973
0.303057
0.0304605
0.0209675
0.0588488
0.0200184
0.0215189
0.0214647
0.0207163
0.0202155
0.0221021
0.0206947
0.0207126
0.0215271
0.0218317
0.0484478
0.0200881
0.131263
0.0205244
0.0208975
0.0272434
0.0461928
0.0219841
0.0197274
0.0211961
0.0223287
0.0440155
1.7204
0.0327107
0.0218856
0.0219324
0.0207523
0.0289889
0.0209307
0.0222734
1.25171
0.241954
0.0461893
0.0210773
0.0217417
0.0220994
0.019736
0.0409879
0.0201169
0.128772
0.0219293
0.161313
0.0257547
1.36741
0.0215639
0.0657712
2.18468
0.340497
0.347123
0.0243522
0.364934
0.317377
0.0218401
0.0340027
0.428875
0.0205287
0.0207469
0.0213281
0.0236111
0.0783524
0.0214568
0.0236206
0.372543
0.0195265
0.0214656
0.296467
0.390069
0.0973619
0.371757
0.437466
0.0220822
0.057854
0.0233603
0.0236908
0.053
0.022387
3.96336
0.0365203
0.0235601
0.0213813
0.0226789
0.0228026
0.0205443
1.97476
0.019788
0.0212422
0.0213088
0.454256
4.50447
0.0398306
0.021279
0.0224086
0.0204776
0.384705
0.0209771
0.0219142
0.0231816
0.0673984
0.0206945
0.0769466
0.683288
0.220783
0.0217969
0.0297409
0.0205846
0.710816
0.019823
0.0643626
0.0217023
0.0643833
0.0261291
0.187835
0.121107
0.0226669
0.0225263
0.0321275
0.0235234
0.0211011
0.0207025
0.024712
0.0218371
0.267664
0.0196489
0.0210742
0.0214305
0.0214017
0.149465
0.0207367
0.0201325
0.0214789
0.0905639
0.0260184
0.0557945
0.0225894
0.0224493
0.0843196
0.0205969
0.0213067
0.0705213
0.0437235
0.0201348
0.0324825
0.0227658
0.334179
0.0212448
0.0573905
0.0216667
0.0212151
0.0202304
0.0201766
0.0211614
0.0210722
1.73498
0.0639874
0.0215475
0.0213161
0.0211273
0.0221623
0.0263691
0.30426
0.0214561
0.0302948
0.0238147
0.326695
0.0216418
0.0433464
0.0212907
0.0212521
0.0270277
0.0212175
0.0214394
0.0206856
0.0200244
0.484069
0.0213823
0.0207281
0.0360874
0.42679
0.0402533
0.0214441
0.0198816
0.0235067
0.410574
0.0230042
0.0216749
0.0215203
1.7394
0.0218481
0.0211038
0.24484
0.02076
0.0245616
0.0227309
0.0215262
0.0201693
0.0547549
0.0251106
0.0206291
0.0212765
0.0213708
0.0208957
0.0956599
0.0226675
0.0213947
0.019767
0.0219432
0.0201813
0.0212418
0.0775997
0.0206479
0.023864
0.0232782
0.347931
0.0197296
0.0223653
0.0552032
0.026113
0.161225
0.0209847
0.0214699
0.184565
0.021402
0.0201508
0.304465
0.0214017
2.19854
0.0685102
0.0653916
0.609586
0.0214147
0.0258094
1.97912
0.0212428
0.0199966
0.90014
0.266732
0.0208935
0.0201345
0.0225843
0.020677
0.193061
0.0702061
0.596922
0.0214775
0.0216298
0.0212181
0.0211218
1.17603
0.567965
4.04177
0.0243035
0.0223914
1.04504
0.0213301
0.0208925
0.0225617
0.0209254
0.0218299
0.0777403
0.019728
0.443972
0.0217997
0.0219268
0.0213931
0.0261656
0.0207038
0.419253
0.0206916
0.0211974
0.0225213
0.0201613
3.61722
0.0238895
0.0256912
0.690937
0.0974397
0.0295896
0.329178
0.0213304
1.85142
0.0264812
0.0207666
0.0222573
0.0216999
0.443119
0.324786
0.0214336
0.0234478
0.152828
0.0210629
0.0205744
0.0237655
2.24544
0.542668
0.0215204
0.0220002
0.0948959
0.0227332
0.0679597
0.0675327
0.068137
0.0201465
1.72569
0.0215129
0.241414
0.0583277
0.0342688
4.54133
0.274612
4.37975
0.0203637
0.421227
0.0199398
0.0197752
0.248069
0.0197664
0.0221051
0.021145
0.0637492
0.0206151
0.134317
0.0201647
0.02766
0.444539
0.0258896
0.02456
0.428878
0.0217988
0.0202433
0.0218351
0.0951016
0.0239053
0.131699
0.0214177
0.0254954
0.021733
1.97769
0.0214158
0.0215591
0.0213669
0.501567
0.0313898
0.0215157
4.26163
0.021092
0.0213572
0.0245596
1.75212
0.0213935
4.38905
0.0214178
0.363094
0.0214159
0.0428801
0.0209814
0.05242
0.0214265
0.0618381
0.0244219
0.0280977
0.0208932
0.0217208
0.270094
0.0203654
0.0236423
0.0263635
0.02006
0.0636527
0.305818
0.131213
0.021959
0.0197392
0.021186
0.123899
0.0234587
5.10914
0.0238449
0.312077
0.0216413
0.545903
0.0205394
0.0291876
0.113811
0.0227628
1.97143
0.0233237
3.87453
0.158239
0.0207693
1.49712
0.0223196
0.0211381
0.0226874
0.0848166
0.02318
0.157889
0.0246666
0.114006
0.0433077
0.0638677
0.047835
0.316695
0.0214486
0.0215265
4.14281
4.12192
0.0374507
0.023379
2.17188
0.226872
0.0216097
0.0214235
0.0212076
0.109294
0.0207059
0.0209233
0.0329046
0.21834
0.0198227
0.0206127
0.0221173
4.18656
0.020506
0.0238866
0.0198238
0.122785
0.0223289
0.765215
0.0218077
0.0206474
0.0213283
0.0202748
0.404149
0.032955
1.74083
0.0213216
0.0284427
0.0202073
0.200381
0.165328
0.0504045
0.0207903
0.0696574
0.0208852
0.0215718
0.284871
0.0210693
0.0236205
0.139738
0.0201486
0.112749
0.0207611
0.0198342
0.0215495
1.91109
0.0207945
4.63869
0.129127
0.310286
0.308655
0.0207081
0.394239
0.0647907
4.63536
0.0313141
3.95764
0.171381
0.0215548
0.0313965
0.0217021
0.0275926
0.0209543
0.0227806
0.0212045
0.0253694
0.356297
4.47856
0.0238331
0.0230965
0.856379
0.375057
0.0212054
0.0214654
0.0672095
0.0357505
0.0204458
0.242508
0.037136
0.0221539
0.0203883
0.0223307
0.46093
0.0216149
0.0600784
0.0195876
0.844754
3.48535
0.0874876
0.0223222
0.0215067
0.0211723
0.0212655
0.0214624
0.0241939
0.0224247
0.0215488
4.49876
0.0208362
0.0214617
0.0210559
0.323059
0.380356
0.0212464
0.0213431
0.581574
0.0204836
4.55334
0.0215225
0.0213664
0.0197272
0.0216094
0.0205992
0.0227332
0.0202355
0.190414
0.0217306
0.0669617
0.0213511
1.84383
0.0214662
0.0243316
1.66696
0.175786
0.021245
0.0214462
0.0310125
0.0197285
0.529353
0.40463
0.0224622
0.0207567
0.0212327
0.0203247
0.0806093
0.34357
0.0373368
0.28506
0.0344671
0.0213509
0.021185
0.0205295
0.577165
0.244239
0.0215236
0.0211299
0.0208119
0.0271
0.0213777
0.361229
2.90654
0.0290052
0.0202765
3.74131
0.127072
0.0214441
0.0598039
0.0221249
0.12367
0.0335286
0.0337
0.026463
1.24559
0.0325316
2.95478
0.0208386
0.020526
0.0206957
0.0203218
0.0214902
0.0282184
0.0205117
0.0251594
0.0200091
0.231465
0.0210426
0.0273195
0.42262
0.0220328
0.0198047
0.0276834
4.73009
0.0212545
0.0206027
0.170384
3.90038
0.237728
0.0221868
0.0197374
0.349919
0.125215
0.023466
0.0547752
0.0213881
0.0313107
0.0215119
0.121997
0.0206749
0.0209804
0.402643
0.0204191
0.0227406
0.282497
0.0575674
0.020638
0.0209125
0.0207435
2.49568
0.0236944
0.0259723
0.021427
0.020778
0.122098
0.0308095
0.0211467
0.0212902
0.0197361
0.0228847
0.0206493
0.022682
0.179331
0.407549
0.0231733
0.0391495
0.0207956
0.0392434
0.0212188
0.0215435
0.0207622
0.230942
0.0366199
0.0200338
0.0226968
0.583271
0.0365224
4.07642
0.05193
0.0212899
0.0207699
0.0267812
0.0223756
4.46349
0.0204992
4.34617
4.56023
0.0209002
0.0379822
0.26991
0.0248606
1.58506
0.105589
0.0221842
4.29805
0.0254917
0.0205112
4.23986
0.354459
0.099804
0.0216961
0.296678
0.238366
0.0213366
0.166048
0.293579
0.0213789
0.0207077
0.021803
0.0200215
0.0215489
0.853719
3.87498
0.0214231
0.0231323
0.463005
4.19075
0.0323939
0.160379
0.0210711
0.0261449
3.81521
0.0466182
4.02922
4.20398
0.0212523
0.0214443
0.0210393
0.0220407
4.10062
0.246901
0.0209656
0.0352662
0.366932
0.326291
0.0472149
0.0211351
0.0214782
0.0219226
0.236609
0.0222872
0.0356662
0.0281151
0.0219954
0.4299
0.0230885
0.20855
0.137397
0.355354
0.0212162
0.0212039
0.0225195
0.0306743
0.197114
0.229034
0.0218566
0.468763
4.07975
0.0298472
0.0320278
0.580498
0.333658
0.314275
0.439937
0.0213203
0.336042
0.381999
0.0299264