/*--------------------------------*- C++ -*----------------------------------*\
| =========                 |                                                 |
| \\      /  F ield         | OpenFOAM: The Open Source CFD Toolbox           |
|  \\    /   O peration     | Version:  v2012                                 |
|   \\  /    A nd           | Website:  www.openfoam.com                      |
|    \\/     M anipulation  |                                                 |
\*---------------------------------------------------------------------------*/
FoamFile
{
    version     2.0;
    format      ascii;
    class       volVectorField;
    location    "950";
    object      U;
}
// * * * * * * * * * * * * * * * * * * * * * * * * * * * * * * * * * * * * * //

dimensions      [0 1 -1 0 0 0 0];


internalField   nonuniform List<vector> 
18355
(
(0.815951 -0.0576636 7.84498e-21)
(1.00924 0.000110258 -2.05313e-21)
(0.997007 0.214618 0)
(1.01035 0.00104047 0)
(1.01886 -0.0247975 0)
(1.1055 0.0981823 0)
(1.01368 0.00149622 1.14207e-21)
(1.0145 -0.025402 1.30582e-21)
(1.00538 5.91843e-05 0)
(0.954084 0.0417887 -4.69171e-22)
(1.02089 0.0181362 1.61593e-21)
(1.106 0.13406 -1.93046e-20)
(1.10823 0.138002 3.1208e-20)
(0.904515 -0.144673 -2.17603e-23)
(1.00741 0.000100144 3.42212e-22)
(1.00974 -3.34731e-05 -1.2105e-21)
(1.01026 0.000975209 0)
(1.01245 0.0166528 2.47888e-21)
(0.921044 0.135043 2.90971e-23)
(1.01186 -0.00279232 -1.67401e-21)
(0.925936 -0.195626 2.33729e-21)
(1.02192 0.0114154 1.86257e-21)
(1.00833 0.00014601 0)
(1.09407 0.101749 4.42413e-22)
(1.0083 0.000140448 6.0768e-22)
(1.01404 0.00333931 0)
(1.01428 0.001387 -1.42586e-21)
(1.01069 0.00191234 -9.9965e-24)
(1.00416 -2.35248e-05 0)
(1.02081 0.0197413 -1.10355e-21)
(0.978779 0.289932 0)
(1.04103 -0.00203449 0)
(1.01172 -0.000141355 7.8597e-22)
(1.00922 -0.000287242 -5.77009e-22)
(1.00586 -8.33306e-05 0)
(1.01308 0.00161191 0)
(1.03226 0.0333017 1.85697e-21)
(1.01338 0.00138925 3.77712e-22)
(1.02135 0.0205602 -1.23291e-21)
(1.01563 0.0100428 0)
(1.013 0.000212047 -5.23166e-22)
(1.02156 0.0188024 0)
(1.00927 -0.000245129 6.18555e-22)
(1.009 0.000102014 0)
(1.0091 0.00011968 3.89314e-22)
(1.15816 0.172022 4.83072e-21)
(1.01048 0.00206664 -7.68088e-22)
(1.01038 0.00195253 7.7656e-22)
(0.958075 0.310065 0)
(1.01262 -9.78677e-05 0)
(1.00634 -3.89219e-05 -1.67883e-21)
(0.814118 -0.302685 5.20743e-22)
(1.0127 -0.000212214 -5.40316e-22)
(0.902651 0.0487984 -1.01791e-22)
(1.01547 0.0032382 -3.37457e-22)
(1.01241 -0.00346882 2.33503e-21)
(1.00538 -5.36988e-05 -2.32519e-22)
(0.949854 0.351533 5.20515e-22)
(1.01443 0.00335576 0)
(1.14998 0.200382 -4.00783e-20)
(1.00931 -0.000279735 0)
(1.06382 0.120619 -2.50254e-20)
(0.903561 0.0409179 3.54005e-21)
(1.01177 3.9087e-05 9.99682e-22)
(1.03442 -0.0235945 -8.45699e-21)
(1.00695 -8.14651e-05 0)
(1.02216 0.0166836 1.88778e-21)
(1.03119 0.0335693 -5.15717e-22)
(1.00945 -0.000403845 1.17842e-21)
(0.93159 0.0568381 9.99731e-22)
(1.01198 0.000273994 1.54671e-21)
(1.01558 0.00336803 -4.20287e-22)
(1.03425 0.00488238 -1.17442e-21)
(1.00904 0.0179253 1.84169e-21)
(1.0626 -0.0273347 4.54148e-22)
(1.00949 -0.000396361 -2.84187e-22)
(0.975848 0.35173 1.78942e-20)
(1.00959 -0.000402538 0)
(1.01183 0.000267767 -1.02463e-21)
(1.06728 -0.0150673 0)
(1.02191 0.0163756 0)
(1.07402 0.0297534 9.24703e-23)
(1.00954 -0.000411817 -8.98275e-22)
(1.02059 0.0158413 0)
(0.990278 0.00550027 -2.49256e-21)
(1.00391 2.73592e-05 8.34365e-22)
(1.00686 0.0002278 -1.12714e-22)
(0.999083 0.0237846 0)
(1.01007 0.00118214 0)
(0.998748 0.0211514 7.71492e-22)
(0.897016 -0.272628 7.7928e-21)
(1.06888 -0.127475 4.81718e-21)
(1.0687 0.0379333 4.2641e-22)
(1.01286 -0.000118277 5.51406e-22)
(0.840639 -0.0219847 -1.29584e-21)
(1.01228 -0.00224747 -3.46565e-24)
(1.00962 0.00109365 -4.07464e-22)
(1.01242 -0.00181654 -8.61498e-22)
(0.977043 0.0879242 1.938e-21)
(1.02081 0.0108191 -5.45838e-22)
(0.993101 0.00671219 0)
(1.0116 0.000291363 -2.43036e-22)
(1.01274 -1.86175e-05 -5.44301e-22)
(1.01053 -0.000608216 0)
(1.02147 0.0160984 -5.42875e-22)
(1.00985 -2.91102e-05 1.05196e-21)
(1.03916 -0.0215157 0)
(0.819182 -0.031088 0)
(1.01269 0.0327259 -3.11075e-21)
(1.00959 -8.87223e-05 5.52825e-22)
(1.00649 -0.000112196 -3.61631e-23)
(1.00417 -2.86919e-05 -2.67228e-22)
(1.03027 0.0151294 3.14809e-21)
(1.02081 0.0155933 0)
(1.12602 0.22655 7.91501e-21)
(1.0233 0.0127152 -6.02032e-22)
(1.01146 0.000275061 -9.39788e-22)
(1.07406 -0.0128658 1.24112e-21)
(1.02143 0.014129 6.17915e-22)
(1.02264 0.0167296 1.26537e-22)
(0.942684 0.0478907 -1.35342e-21)
(1.00392 0.220803 7.88349e-21)
(0.903566 -0.272796 0)
(0.990458 0.0217543 3.8051e-21)
(1.07702 0.0013336 2.36652e-21)
(1.15537 0.187782 4.73815e-21)
(1.01404 0.00161585 -1.06449e-21)
(1.01029 0.000853813 -6.39889e-22)
(0.796778 -0.0410187 0)
(1.02092 0.009371 1.37306e-21)
(1.00969 0.0011241 8.49467e-22)
(0.815439 -0.306388 -2.86632e-21)
(1.01453 0.00479143 -7.92671e-23)
(1.01086 0.111877 8.99122e-21)
(0.959544 -0.0370369 6.58345e-21)
(1.01016 0.00114619 2.47705e-22)
(0.92426 0.143321 4.6752e-22)
(0.905792 0.0225747 2.66759e-21)
(1.01212 0.00086626 7.26128e-23)
(1.02339 -0.146503 7.67655e-22)
(1.02751 0.025356 2.33073e-21)
(1.04305 0.00770458 3.62355e-22)
(1.01025 0.00165887 0)
(0.804457 -0.328664 0)
(0.963326 -0.0434773 0)
(1.0138 0.000373098 -7.39065e-22)
(1.15317 0.229553 -4.34088e-22)
(1.01245 -0.00166859 -8.719e-23)
(1.03011 0.0164514 1.44548e-21)
(0.997219 0.0949029 0)
(1.01058 0.00179535 -7.50344e-24)
(1.02286 0.0165278 -1.07564e-21)
(1.0142 0.00164195 0)
(1.02245 0.00752119 -5.0475e-22)
(1.00937 -0.000231046 0)
(1.00781 8.81303e-05 0)
(1.01018 0.000780295 4.37163e-22)
(1.00443 4.63818e-06 0)
(1.01033 0.0017316 0)
(1.00762 7.24893e-05 -6.85175e-22)
(1.01502 0.0176954 -1.73102e-21)
(1.01457 0.00495931 2.54331e-23)
(1.00958 -6.76e-05 -6.98192e-22)
(1.02967 0.00671454 4.61963e-22)
(1.01223 0.0198156 0)
(0.985289 0.037353 -1.70794e-21)
(1.13403 0.216994 -3.61453e-20)
(0.709189 -0.0625102 3.92339e-22)
(0.905796 -0.172991 -3.33503e-20)
(1.02677 0.0250722 0)
(1.00445 -4.15036e-05 0)
(1.01195 0.107572 -8.07451e-21)
(1.00405 -2.22082e-05 -1.07324e-21)
(0.962949 0.301477 0)
(1.00519 -6.65326e-05 -1.97102e-22)
(1.01317 0.000290691 0)
(1.00486 -4.54884e-05 1.33039e-22)
(1.01117 -0.001059 -6.72095e-23)
(1.03488 0.0142165 -3.88925e-21)
(1.01793 0.0127967 8.95571e-22)
(1.00385 -5.59116e-06 7.50592e-22)
(0.984542 0.0289958 1.67631e-21)
(1.02148 0.0105023 -6.69807e-22)
(1.01099 0.00235918 4.57445e-22)
(1.00243 0.0243389 0)
(1.01292 1.23804e-06 5.31185e-22)
(1.00515 4.92168e-05 7.29773e-22)
(1.00106 0.0170069 1.07095e-21)
(1.01557 0.00119578 4.2201e-22)
(1.01479 0.00150522 5.35112e-22)
(1.15378 0.18178 -1.66138e-20)
(0.981232 0.0907204 -2.99468e-21)
(1.00942 0.000158064 7.46161e-22)
(1.01077 -0.000558565 4.34872e-22)
(1.01502 0.000262183 -3.52219e-23)
(1.10946 0.239285 2.81532e-21)
(1.00707 -8.31129e-05 -1.13014e-21)
(0.666319 -0.0215166 -2.05215e-22)
(1.00934 0.000124485 1.55538e-21)
(0.916315 -0.153408 2.21085e-22)
(1.01277 8.27766e-05 0)
(1.00941 0.011976 -3.89002e-22)
(1.02033 0.0216172 -2.37472e-21)
(1.0048 -6.18334e-06 0)
(0.735923 -0.0515383 6.25848e-21)
(1.02116 0.00822275 -7.19907e-22)
(0.945108 -0.110571 3.74761e-20)
(1.0109 0.00231073 0)
(1.01147 -0.000106043 -1.384e-21)
(1.015 0.00108645 -8.91538e-22)
(1.01764 0.0084404 3.42471e-22)
(1.04618 0.0578972 0)
(1.01306 0.00325787 8.23605e-22)
(1.01328 0.00260795 -8.47486e-22)
(1.01264 -0.0017469 8.21681e-23)
(0.947216 0.298397 -1.66328e-20)
(1.0184 0.012566 -8.32552e-22)
(1.03642 0.0271068 1.08196e-21)
(1.0209 0.0085837 -3.41937e-23)
(1.01054 0.00202171 -8.10888e-22)
(1.01416 0.0318983 0)
(1.01051 -0.000459472 -2.72557e-22)
(1.00269 0.0265092 -4.77515e-22)
(1.02483 0.000789764 -4.93243e-22)
(0.985483 0.0111159 0)
(1.00964 0.00191999 0)
(1.01057 -0.000479647 2.7348e-22)
(0.912704 0.0102944 -3.7386e-21)
(0.877079 -0.0605383 3.54898e-21)
(1.02652 0.0053554 -5.61966e-22)
(1.01205 0.000516899 1.15649e-21)
(1.02161 0.0164242 0)
(0.983701 0.0483043 7.33704e-22)
(1.01063 -0.000480014 -2.86364e-22)
(1.02862 0.0097775 -4.6412e-22)
(0.989763 0.0115728 5.95787e-22)
(1.03034 0.00957365 4.77935e-21)
(1.15901 0.177029 0)
(1.04575 0.0229176 2.91925e-21)
(1.01395 0.00271727 -8.89894e-22)
(1.00961 0.000131612 -7.18262e-22)
(1.03449 0.01375 -5.21515e-21)
(1.0139 0.00214267 1.7354e-21)
(1.02374 0.0063646 0)
(1.02084 0.00828964 -6.17254e-22)
(1.01552 0.00299994 0)
(1.01037 0.00196229 -1.74422e-22)
(1.03882 0.0555087 1.0484e-22)
(1.05985 0.0766776 0)
(1.01251 0.000269378 0)
(1.01143 7.6328e-05 0)
(1.04903 0.07398 5.90911e-22)
(1.04631 0.186067 -3.4192e-21)
(1.02496 -0.00102714 4.74623e-22)
(1.01105 -0.000991856 6.15803e-23)
(1.02822 0.00903863 4.19093e-22)
(1.04472 0.0231811 -2.70991e-21)
(1.01289 0.000480805 0)
(1.00931 0.0009854 -1.03006e-21)
(1.00936 0.000942451 4.61855e-22)
(0.992424 0.0867945 1.49581e-23)
(1.01456 -0.0333549 -6.03173e-23)
(0.988624 0.0855911 -6.43487e-22)
(1.05099 0.0394086 -4.89626e-21)
(1.0208 0.0226882 0)
(1.02088 0.0245724 -1.48353e-21)
(1.0366 0.000322898 -8.05101e-22)
(0.96767 0.0901481 -1.24086e-21)
(1.00935 0.000931643 -1.88527e-21)
(1.01563 0.00315411 -8.12042e-22)
(1.01563 0.00132994 0)
(1.00979 -0.000131921 0)
(1.00872 0.0114066 2.84698e-21)
(1.03715 0.0278401 0)
(1.01019 0.00149055 7.05942e-22)
(1.01842 0.00851915 0)
(0.992995 0.0158888 1.18916e-21)
(1.01006 0.00111143 0)
(0.952751 0.00309451 0)
(0.871956 0.270036 0)
(0.997245 0.0174573 0)
(1.01787 0.00870249 -2.88968e-22)
(1.02454 0.0126935 -2.52997e-21)
(1.00967 -0.000147509 0)
(0.998756 0.0285306 -4.43872e-22)
(1.02095 0.00733086 -1.45575e-21)
(1.01858 0.010733 1.38021e-21)
(1.01374 0.000267237 6.08086e-22)
(1.01901 0.0112779 1.12791e-21)
(0.910998 0.176646 -9.28915e-22)
(1.01156 -0.000119231 -1.01377e-21)
(1.0324 0.0704658 -7.47953e-21)
(1.02202 0.0143009 7.2964e-22)
(1.01004 -0.00264242 0)
(1.03651 -0.00358179 6.93708e-22)
(1.00689 9.87848e-05 0)
(1.01066 -0.000531944 5.9271e-22)
(0.958413 0.004701 -2.21982e-22)
(1.01817 0.0084943 0)
(1.04364 0.00245471 3.18497e-22)
(1.03458 0.0340426 -2.02491e-21)
(0.780157 -0.158853 8.42352e-21)
(0.998062 0.0355447 0)
(0.987131 0.0884781 1.35602e-21)
(1.01025 0.0141743 1.52455e-21)
(0.990499 0.0167161 1.31487e-21)
(1.01212 0.00016115 -1.16549e-21)
(1.04331 0.0192293 8.69003e-21)
(1.05023 0.0383467 0)
(1.02982 0.07013 0)
(0.989271 0.0255109 -3.0723e-22)
(0.990418 0.256225 6.92376e-21)
(1.01115 0.00275156 0)
(1.01708 -0.00228575 1.3092e-21)
(0.916425 0.0313929 -5.4602e-21)
(1.02518 0.0123422 0)
(1.01111 0.00273342 4.52027e-22)
(1.01032 0.00186503 1.52863e-23)
(1.01045 0.00200334 5.84703e-22)
(1.06412 0.0738192 0)
(0.999884 0.255569 0)
(0.909993 0.295011 -8.259e-22)
(0.984084 0.0198877 5.02329e-22)
(0.99504 0.0184914 0)
(1.02894 0.0248827 -5.70437e-21)
(1.026 0.0481949 -9.28459e-22)
(1.01215 -0.00153004 -7.83578e-23)
(1.02108 0.00794168 -1.656e-21)
(1.02813 0.0245717 -2.89688e-21)
(1.01761 0.00500834 0)
(1.02488 0.00476064 6.02301e-22)
(1.00662 -6.24558e-05 0)
(0.987379 0.124298 1.91593e-22)
(1.01016 -3.59216e-05 4.21144e-23)
(1.08279 0.0176344 -2.83206e-21)
(1.01429 0.000640209 0)
(1.01576 0.00984336 0)
(1.00856 0.0142363 1.25814e-21)
(1.09724 0.155641 0)
(0.645531 -0.0759813 0)
(1.02239 0.00615987 -4.06819e-21)
(0.986163 0.013436 -1.43829e-21)
(1.01885 0.0108481 0)
(1.01017 0.0012186 -1.1193e-22)
(1.01734 0.00484323 7.78998e-23)
(1.00664 0.00150376 0)
(0.952821 0.0558224 0)
(1.01028 0.0012936 -9.61336e-22)
(1.0109 0.000572918 0)
(1.01702 0.0252362 0)
(1.01937 0.0106162 -2.58954e-22)
(1.01037 0.00127337 0)
(1.07114 0.181478 -1.60656e-21)
(1.00753 0.00194575 0)
(1.01041 0.00198943 0)
(1.01225 0.000634742 0)
(1.01912 0.00955189 -1.38249e-21)
(1.01156 0.00050644 2.09542e-22)
(1.02006 0.00946491 1.61911e-21)
(1.01197 -0.00064184 2.93683e-22)
(1.01107 0.000627019 6.67918e-23)
(1.02054 0.0105248 1.04736e-21)
(1.17784 0.203863 1.63483e-20)
(1.02126 0.029584 -5.67161e-22)
(1.0118 -0.000621786 0)
(1.01011 0.0015558 9.76908e-23)
(0.997582 0.00494789 3.01435e-21)
(1.01054 0.0020755 -1.0072e-21)
(1.00473 2.08207e-06 1.33871e-21)
(1.01356 0.0579541 8.43733e-22)
(1.02749 0.0288161 2.68368e-22)
(0.988212 0.0135395 -4.24305e-21)
(1.01689 0.00471571 5.81404e-22)
(1.03059 0.010038 2.97474e-21)
(1.10555 0.142374 -1.09321e-20)
(1.01665 -0.00225089 9.27821e-22)
(1.02975 0.00653565 0)
(1.04423 0.019475 -7.10875e-21)
(1.01097 -7.99968e-05 1.71389e-21)
(1.00009 0.00531466 -2.30173e-21)
(1.02825 -0.0152569 1.57431e-21)
(1.02026 0.00992633 0)
(1.01096 0.000672484 0)
(1.01342 0.0168267 8.19276e-22)
(1.00716 0.00020183 0)
(1.01506 0.00620004 0)
(1.01503 0.000313563 -1.77157e-22)
(1.06648 0.0303652 -2.11394e-21)
(1.0144 0.00211904 0)
(1.02352 0.0165423 -1.35748e-22)
(1.00619 -4.95198e-05 0)
(1.01048 0.00205876 0)
(1.00884 0.0106218 -8.25886e-22)
(1.0158 0.00221336 0)
(1.0463 0.101165 6.87488e-21)
(1.07837 0.349274 -4.62433e-21)
(1.01956 0.0380222 0)
(1.01104 0.00232332 5.19402e-22)
(1.04019 0.182923 0)
(1.02689 -0.00241998 0)
(1.01426 0.000563892 2.92968e-22)
(1.00677 -0.000166572 -8.4109e-24)
(1.03448 0.0661511 0)
(1.01569 0.00130256 -1.35057e-21)
(0.985771 0.0138236 2.22428e-21)
(1.01339 0.00122744 0)
(1.00769 0.0217409 0)
(1.03474 0.0481036 1.19958e-21)
(0.976425 0.0165067 0)
(0.670708 -0.0937271 -5.41508e-21)
(0.971514 0.0759255 0)
(1.01051 -0.000578564 1.46896e-23)
(0.796791 0.331283 6.9028e-21)
(1.02112 0.0108325 0)
(1.0101 0.00145163 -5.74215e-22)
(0.933919 -0.200053 0)
(1.01445 0.000739232 7.5382e-23)
(1.00254 0.00429777 0)
(1.01529 -0.00163942 0)
(1.04443 -0.0274076 4.5799e-21)
(1.01441 0.000801397 -1.68031e-22)
(1.01738 0.106295 9.37761e-21)
(1.09636 0.0172568 5.86026e-21)
(0.996738 0.0832267 -3.93534e-22)
(1.01305 0.00525028 1.11224e-23)
(1.00996 9.25826e-05 0)
(0.994661 0.086262 -6.68163e-21)
(1.02164 0.0142897 2.92162e-22)
(1.01215 0.00038082 5.30409e-22)
(0.967874 0.0370173 -2.23046e-21)
(1.01468 -0.0276146 1.05535e-21)
(1.01001 0.00134718 9.88213e-22)
(1.0347 0.0680834 3.59407e-21)
(1.04309 0.101308 -1.83715e-20)
(1.00982 0.000102607 -1.57947e-21)
(1.01672 0.0113239 1.11039e-21)
(1.02154 0.00783264 3.44839e-21)
(0.934588 0.260803 4.16429e-21)
(1.00617 0.0460496 0)
(1.01911 0.0105967 -2.08226e-22)
(1.01211 0.000118551 5.97576e-22)
(1.03879 0.0580435 -1.02916e-21)
(1.00761 0.000234779 -1.25888e-21)
(1.01093 -0.000260828 -6.72003e-22)
(1.01229 0.000548611 0)
(0.981845 0.0171061 -5.99072e-22)
(1.08751 0.339013 0)
(1.01083 -7.71043e-05 -1.35645e-21)
(1.00179 1.46893e-05 0)
(1.01344 0.000585864 -1.9151e-22)
(1.09876 0.161033 2.0618e-20)
(1.02943 -0.0125582 -6.70338e-22)
(1.01097 -0.000555559 0)
(1.00258 0.00260211 -9.32048e-22)
(1.00163 0.0283496 3.55605e-22)
(1.02125 0.00508077 0)
(1.11769 0.24101 -9.13764e-21)
(1.06045 0.12338 -1.4279e-23)
(1.02179 0.0108119 1.42939e-21)
(1.0075 0.000210777 4.17259e-22)
(1.00799 0.0445566 -1.78297e-21)
(1.10846 0.159859 -9.87526e-21)
(0.794655 -0.266931 1.45016e-20)
(1.01073 -9.87529e-05 -8.21625e-23)
(0.606179 0.0320285 1.00058e-20)
(1.01196 0.000761784 -1.05725e-22)
(1.01089 -9.18523e-05 0)
(0.993271 0.0334581 0)
(1.02196 0.014839 -9.33315e-22)
(1.07211 0.0282221 0)
(1.03226 0.00323748 -3.50963e-21)
(1.02328 0.0168351 0)
(1.00819 0.018879 0)
(1.02227 0.0114348 8.95885e-22)
(1.0648 0.179298 6.62426e-22)
(1.02133 0.0142614 0)
(1.05094 0.0356293 0)
(1.01992 0.0109674 0)
(1.01061 -0.000132537 0)
(1.0257 0.0084189 3.73286e-21)
(1.01077 -0.00011983 7.96499e-22)
(1.05253 0.123243 9.32236e-21)
(1.0661 0.347445 -7.27287e-21)
(1.04944 -0.024165 -1.03485e-22)
(1.01202 0.0176042 -1.76359e-21)
(1.01454 0.00820785 4.85244e-22)
(1.01964 0.0109301 2.71252e-22)
(1.01547 0.00144008 0)
(1.01097 0.0146305 -1.00903e-21)
(1.01167 -0.00080995 -9.29982e-22)
(1.0122 -0.00078537 0)
(1.01714 0.00157318 1.93548e-21)
(0.997811 0.0306987 -5.99573e-24)
(1.00975 0.000128666 7.58749e-22)
(1.0118 -0.00130851 -9.50124e-22)
(0.507068 0.18972 1.37506e-21)
(0.656816 -0.00307877 7.34685e-21)
(0.913359 0.0388819 1.38058e-21)
(1.02095 0.00910509 -1.44046e-21)
(1.00327 -9.46918e-06 0)
(1.02047 0.00782354 -3.63211e-21)
(1.02171 0.0110723 -1.31868e-21)
(1.00585 0.0737356 -7.31964e-23)
(0.973249 0.226831 -6.826e-21)
(1.01694 -0.001328 -2.52422e-21)
(1.02066 0.0147242 2.05026e-23)
(1.00278 0.0139525 5.77114e-22)
(1.02535 0.0136835 3.18782e-21)
(1.02646 0.0198069 -2.54547e-21)
(0.89736 0.12767 0)
(1.00983 0.0170439 5.57088e-22)
(1.01302 0.00202006 -1.82226e-21)
(0.932996 0.217446 -1.11655e-20)
(1.00804 0.000283574 1.32027e-22)
(0.660235 -0.055817 6.26774e-21)
(0.779506 0.324397 0)
(1.0466 0.024786 -5.12946e-21)
(1.01651 0.0110857 -5.90732e-22)
(0.869918 0.121792 0)
(1.01028 0.00160277 4.98964e-24)
(1.01817 0.102254 -1.02973e-21)
(1.04404 -0.000598897 4.74236e-22)
(0.938387 -0.0605426 -3.79347e-22)
(1.02115 0.0141133 1.99948e-22)
(1.02548 0.00814007 0)
(1.02073 0.00521911 0)
(0.955593 -0.0864982 1.67749e-22)
(0.817547 -0.29134 -1.41495e-21)
(0.95292 -0.0622546 0)
(1.08219 -0.0560313 -1.34983e-21)
(1.00941 0.012785 3.93221e-22)
(1.02038 0.00510301 -1.25821e-21)
(1.02063 0.0162603 0)
(1.01569 0.00294436 0)
(1.0141 -0.00169704 -1.38461e-21)
(0.96773 -0.172685 -2.42867e-21)
(0.945213 0.274183 6.546e-21)
(1.05463 0.356629 0)
(1.02411 0.158907 1.70896e-21)
(1.02311 -0.00704048 -3.075e-21)
(1.03788 -2.15542e-06 -4.97364e-21)
(1.03217 0.0173815 -8.29951e-22)
(1.01055 0.00215654 0)
(1.01257 0.00342379 6.95178e-24)
(1.02528 -0.00816447 -1.54033e-21)
(1.00528 0.00240817 -1.87616e-21)
(1.02131 0.00751636 1.81978e-21)
(1.01557 0.00277487 0)
(1.08776 0.0138605 -2.62369e-21)
(1.00957 0.00105359 4.34384e-22)
(1.01481 0.165436 -1.71763e-21)
(1.01667 -0.00466052 -7.71413e-22)
(1.03402 0.118309 7.18837e-21)
(1.10786 0.146295 0)
(1.01269 0.00343693 -8.22105e-24)
(1.02079 0.015244 6.80248e-23)
(0.755024 -0.0302553 -7.47358e-21)
(1.01705 0.00171258 1.34594e-21)
(1.02495 0.378925 1.40634e-20)
(1.01091 0.000673622 1.46388e-22)
(1.12699 -0.0840059 -2.04052e-21)
(1.01021 0.0160307 -5.3797e-22)
(1.01358 0.00028433 -2.56999e-22)
(1.03184 0.0189465 7.99957e-22)
(0.972201 0.0922859 -1.9203e-21)
(0.966439 0.0732679 0)
(1.00376 -4.07487e-05 3.58137e-22)
(1.00984 -0.000448438 -2.8832e-22)
(1.03763 0.0542527 3.7546e-21)
(1.04742 0.0255212 7.01077e-21)
(1.02994 0.119875 -3.52574e-21)
(1.01578 0.000847385 7.31028e-22)
(1.06773 0.122191 3.63421e-20)
(1.00956 0.00103826 9.14692e-22)
(0.967739 0.21817 6.89295e-21)
(1.00572 -7.39237e-05 7.45039e-24)
(1.01156 0.00303968 0)
(1.04341 0.212487 1.86312e-20)
(1.01449 0.0083281 -5.58926e-22)
(0.99229 0.00761312 5.98838e-22)
(1.00574 -7.1554e-05 0)
(1.02072 0.014194 -5.23558e-22)
(1.01219 -0.00420273 2.07622e-21)
(0.981694 0.104176 0)
(0.918867 0.305157 0)
(1.03105 0.0235251 0)
(1.02746 0.00194203 2.99924e-22)
(1.00528 -3.11638e-05 0)
(1.02385 0.0123221 0)
(1.01966 0.0101391 -9.02098e-22)
(1.03129 0.0228739 0)
(0.780549 0.163348 -4.80095e-20)
(1.00875 0.000129867 -8.40162e-22)
(1.01232 0.0384037 0)
(1.01683 0.00832166 -1.24332e-22)
(1.00506 -5.88957e-05 0)
(1.02585 0.0215823 0)
(1.00217 0.0646493 8.95935e-23)
(1.01754 -0.00273128 1.43544e-21)
(0.972864 -0.030216 -4.12078e-21)
(1.01133 -0.00102275 1.14916e-21)
(1.05373 0.0546953 -6.16738e-21)
(1.09042 0.0560552 -7.73003e-21)
(1.01233 -0.00160068 5.20814e-23)
(1.01044 0.00203477 1.82263e-22)
(0.689162 0.0201513 2.08542e-20)
(1.0009 0.0195793 -1.69438e-21)
(0.532225 0.183582 2.03988e-22)
(1.02962 -0.000596467 0)
(1.01566 0.00926579 0)
(1.0156 0.00255245 0)
(1.01224 0.00025635 0)
(1.01029 0.0183435 -6.59658e-23)
(1.01852 0.0111784 -3.20821e-23)
(1.01508 -0.0017944 0)
(0.944102 -0.0693705 -5.95567e-21)
(0.812833 -0.320876 0)
(1.01151 0.0030451 6.50178e-22)
(0.920579 0.242489 0)
(0.933334 0.245879 0)
(1.02001 0.0167266 1.50189e-21)
(1.03573 0.225742 2.12627e-20)
(1.01109 -0.000232678 -6.6725e-22)
(0.844849 -0.0561207 6.73624e-21)
(0.974364 -0.105704 6.05688e-23)
(1.01328 -0.00198042 1.23996e-22)
(1.08463 0.0694908 6.06886e-21)
(1.03773 0.0627866 3.8622e-21)
(1.12179 0.257921 -3.70944e-20)
(0.964761 0.0966586 -1.63084e-22)
(1.01208 0.000275529 2.59458e-22)
(1.01228 0.000265468 0)
(1.00467 -1.50624e-05 6.08702e-24)
(0.99734 0.0290701 0)
(1.06144 0.0727831 7.33128e-21)
(1.01283 0.00535981 -2.46842e-22)
(1.03157 0.00820654 -2.87892e-21)
(0.939248 -0.0591323 6.06722e-21)
(1.02115 0.010516 0)
(1.03763 0.0647436 0)
(1.01275 0.000222575 2.95073e-22)
(1.04063 0.0593404 -1.09108e-21)
(0.890189 0.356237 1.11314e-20)
(0.97258 -0.0811374 -4.89138e-22)
(1.03097 -0.01425 0)
(0.978257 -0.0656114 4.49546e-22)
(0.99893 0.0155772 -4.99652e-22)
(0.979866 0.325587 -2.68151e-20)
(1.02059 0.0150472 2.10678e-23)
(1.01002 0.0014002 0)
(1.02183 0.01284 0)
(0.962599 0.0789031 0)
(1.02111 0.00894848 1.08245e-21)
(1.06757 0.0667866 -2.02498e-21)
(1.01302 0.00535187 -4.49844e-22)
(0.878322 -0.0450494 1.94351e-21)
(1.01337 0.000547009 -1.17106e-22)
(1.01622 0.00964226 -2.9964e-22)
(0.791203 0.196433 1.51595e-21)
(1.00371 -4.29907e-05 -1.36835e-21)
(1.02166 0.0124579 0)
(0.995519 0.00802119 0)
(0.976959 -0.0246446 7.56902e-21)
(1.0205 0.00143653 0)
(1.01456 0.00128516 2.56441e-22)
(1.02492 0.0205708 0)
(1.02072 0.0138674 1.67007e-22)
(1.01078 -0.000494224 5.42825e-24)
(1.01717 8.72353e-05 -1.61521e-21)
(1.03345 0.0223316 0)
(0.895929 0.0511058 -6.52365e-21)
(1.02399 0.016807 1.51787e-21)
(1.00665 5.23665e-05 0)
(0.993733 0.0221561 2.91985e-21)
(1.09799 0.0245102 -2.46359e-21)
(1.01253 0.00474205 6.8511e-22)
(0.991287 -0.0600661 0)
(1.12473 0.232831 2.32684e-20)
(1.0209 0.00502534 0)
(0.540038 -0.0301993 -1.3352e-21)
(1.01133 -0.000566025 5.88662e-22)
(0.987648 0.216347 6.73079e-21)
(1.01718 0.00340143 0)
(1.0152 -0.00158882 0)
(1.05082 0.209427 -1.40737e-20)
(1.02096 0.0140672 0)
(0.947105 0.265605 0)
(1.02424 0.0165337 -1.42033e-21)
(1.01463 0.0012308 0)
(0.532288 -0.0300763 -1.96907e-21)
(1.017 0.00342635 0)
(1.00951 -0.000130723 0)
(1.01241 0.000553038 -2.10181e-22)
(1.01011 0.00147419 0)
(1.02199 0.0118956 0)
(1.00173 0.0241848 -9.7734e-22)
(0.66063 -0.117262 1.80756e-20)
(1.00396 -8.14445e-06 0)
(1.03373 0.373181 -1.66765e-20)
(1.01309 0.00541381 -1.96036e-21)
(1.00241 -0.064382 -2.41125e-22)
(0.876558 0.25197 0)
(1.01711 0.0114644 0)
(1.01713 0.00488656 -8.21874e-23)
(1.02055 0.0144646 8.1394e-23)
(1.0128 -0.000578159 0)
(1.05682 0.146413 0)
(1.01347 0.00341227 -1.61593e-23)
(1.00962 -0.000236736 0)
(1.01098 -0.000526458 6.65093e-22)
(1.01287 0.00526767 2.38207e-22)
(1.01679 0.0017075 -6.74201e-22)
(1.02627 0.238306 -1.57813e-20)
(1.01266 0.0187187 0)
(1.02831 0.0736846 1.9404e-21)
(1.01137 -0.00281427 0)
(1.01597 -0.00260687 -1.37658e-21)
(1.01523 0.0168417 1.80536e-21)
(1.01036 0.00497013 -1.74424e-21)
(1.02129 -0.0338062 -8.68222e-22)
(1.00956 0.00015719 -8.43153e-22)
(1.05647 0.12093 0)
(0.989669 0.0186455 -4.47891e-21)
(1.01068 -0.000504689 2.79286e-22)
(0.931884 0.267631 1.64575e-22)
(0.876957 0.348588 -1.60351e-20)
(1.00646 -5.78526e-05 1.21781e-21)
(1.03038 -0.0468257 0)
(1.00511 -2.27601e-05 0)
(0.993128 0.0533426 -4.99483e-22)
(1.05207 0.0543719 0)
(1.01322 -0.00198383 -7.47507e-23)
(1.03928 0.0556666 -2.5933e-21)
(1.02151 0.0132185 7.80213e-22)
(1.0127 -0.0565867 1.1144e-22)
(1.006 -1.95516e-05 -1.09568e-21)
(1.04545 0.0210384 1.27115e-21)
(1.00598 -0.110949 -5.72837e-22)
(1.00112 -0.0528895 4.68635e-21)
(1.03715 0.0453551 -5.4466e-22)
(1.01673 0.0018135 -7.55998e-22)
(0.956609 0.00116613 6.29002e-22)
(1.07835 0.105596 1.62847e-21)
(0.864438 -0.0676705 -3.36316e-21)
(1.01592 0.000957196 -1.23061e-21)
(1.0314 0.0169219 -4.37013e-21)
(1.012 0.000173873 1.28064e-21)
(1.01745 0.00770999 0)
(1.01112 0.00279969 -8.32339e-22)
(1.00639 -7.64255e-05 0)
(1.00888 0.00010678 0)
(1.02364 -0.0560456 -1.28438e-22)
(1.00426 0.00203161 0)
(1.00742 6.83193e-05 0)
(1.00924 -0.000309795 0)
(1.00723 -0.000120752 2.87099e-22)
(1.01855 0.0102618 1.5734e-23)
(1.00455 -0.047864 -7.41746e-21)
(1.07518 0.104449 -2.87483e-21)
(1.01162 -0.000116093 1.27504e-21)
(1.02099 0.0136674 -3.10438e-22)
(1.01501 0.00792557 -4.89298e-22)
(1.01464 0.00802296 1.98865e-22)
(1.01211 0.000778564 -1.21216e-21)
(1.0102 0.00163905 0)
(1.01701 0.0260095 -1.59349e-21)
(1.0094 -0.000356664 -5.93618e-22)
(1.00975 0.00120357 1.28053e-21)
(1.00498 3.93951e-05 1.25473e-24)
(1.0206 0.00886378 0)
(1.00736 0.00447814 8.1754e-22)
(1.01585 0.00215618 0)
(1.11954 0.221664 -3.05944e-20)
(1.10926 -0.100854 -2.18948e-21)
(1.03 0.0237025 0)
(1.00964 0.0011169 1.97586e-21)
(1.10884 0.154856 3.3118e-20)
(1.00952 -0.000253684 0)
(1.00939 -0.00033736 6.0766e-22)
(1.01537 0.00249742 7.33124e-22)
(1.03081 0.0428671 -4.53519e-22)
(1.01404 0.0177707 0)
(1.01468 0.00215334 2.20179e-24)
(1.01107 -0.000474091 3.34465e-22)
(1.00931 0.000146725 0)
(1.01089 0.0196367 -6.37904e-23)
(1.00948 -0.000408429 0)
(1.00545 0.019361 -2.06087e-21)
(1.01331 0.00329181 4.5552e-24)
(1.02054 0.0102163 -1.3096e-22)
(1.01114 0.00286516 3.79794e-22)
(1.03123 0.0165839 0)
(0.926422 -0.174424 3.73595e-21)
(1.01 0.00135766 4.65781e-22)
(1.0225 0.0110034 -8.46524e-22)
(1.00771 0.000237153 7.04153e-22)
(0.920139 0.148208 0)
(0.931377 -0.0409763 -5.33733e-22)
(1.04448 0.0333393 -6.5498e-21)
(1.01829 0.0111835 3.271e-23)
(1.02593 -0.00447738 0)
(1.0162 -0.00582554 -8.10247e-22)
(1.01077 0.0235278 -1.1497e-21)
(0.965687 0.147211 1.60404e-20)
(1.00443 -5.81282e-06 0)
(0.963901 -0.076408 6.02109e-22)
(1.02253 0.011218 -1.05356e-21)
(1.01276 0.135623 0)
(1.0122 0.00196088 3.15163e-21)
(1.01126 -9.533e-05 0)
(1.01232 -0.000886702 0)
(0.844174 0.00853285 1.84362e-21)
(1.01219 -0.000848205 0)
(1.04521 0.0340613 -3.37012e-23)
(1.02665 0.00393058 -3.00338e-22)
(1.0727 0.187891 2.11565e-20)
(1.03757 0.0033035 5.52878e-21)
(1.0059 0.000127729 6.98665e-22)
(1.00729 6.21606e-05 1.97594e-21)
(1.00667 -5.58142e-05 -1.02556e-22)
(1.01242 0.00458545 -4.9875e-22)
(1.05149 0.0368387 0)
(0.989751 0.134214 3.96231e-21)
(1.00626 0.129771 -1.68571e-21)
(1.01043 0.0632218 7.80367e-22)
(1.02341 0.00235319 2.85366e-22)
(1.00966 -0.000431801 1.43875e-22)
(1.00592 0.00018485 0)
(1.01119 0.00292434 -1.43338e-23)
(1.01104 0.000355849 5.29315e-22)
(1.02392 0.010155 -2.72762e-21)
(1.02612 0.0731506 -6.18078e-21)
(1.00545 0.00262923 -4.8387e-22)
(1.02349 0.0592278 0)
(1.02302 0.00231201 1.91022e-21)
(1.01972 0.00247792 0)
(1.03411 0.0204116 1.73366e-21)
(1.01572 0.0027099 0)
(1.10417 0.162878 -3.66347e-20)
(1.01213 0.0660392 0)
(0.99619 0.0170555 2.64773e-21)
(1.03513 0.170647 -2.34841e-21)
(1.15144 0.205914 -2.07947e-20)
(1.01547 0.0264334 -1.62374e-21)
(1.01048 0.0019999 6.93329e-22)
(1.00963 -0.000430106 4.44913e-22)
(1.02557 0.0074454 4.79587e-21)
(1.01361 0.000752284 -2.46316e-22)
(0.931993 0.0722693 -1.93702e-21)
(1.05655 0.0734716 0)
(1.05222 0.143553 1.07022e-20)
(1.01092 -0.000104783 0)
(1.02056 0.0086015 0)
(1.01436 0.00574239 0)
(1.01121 0.000333441 -5.63176e-22)
(0.986093 0.150425 -3.51428e-20)
(1.03072 -0.0180671 0)
(1.00956 -0.000382256 1.2816e-21)
(1.01238 -0.000714845 0)
(1.00604 -2.477e-05 -3.30237e-22)
(1.01118 0.0029163 -4.14093e-22)
(1.01031 0.00132739 0)
(1.01211 0.000469608 0)
(1.1002 0.213683 -1.2126e-20)
(1.01191 -0.00107953 0)
(1.01294 0.00188893 2.763e-21)
(1.01087 -0.000114918 -8.4595e-22)
(1.0086 0.000140737 0)
(1.01116 0.00284673 -9.03241e-22)
(1.01719 0.00748116 0)
(1.0024 0.0152186 -1.40144e-21)
(1.00859 0.000130546 0)
(1.01611 0.00798389 1.63548e-21)
(1.0111 -0.000508442 4.05491e-24)
(1.01844 0.0194421 0)
(1.04358 0.222624 -2.35413e-20)
(1.00945 0.0147523 -4.30433e-22)
(0.970982 0.0292874 0)
(1.01064 -0.0020048 0)
(1.02988 0.00844888 -7.42366e-21)
(1.04027 0.106057 6.62957e-21)
(0.963532 0.000164812 0)
(1.01336 0.000582151 2.59687e-22)
(1.00734 4.15859e-05 0)
(1.00834 0.000138071 2.66938e-24)
(1.01069 -0.00723539 -1.19291e-21)
(1.00386 -5.88588e-05 -1.06477e-21)
(1.0139 0.0266768 0)
(1.00141 0.0195864 0)
(1.01717 0.00790912 -2.25711e-22)
(1.01408 0.00205641 0)
(1.02062 0.000891148 0)
(1.0018 0.137112 0)
(0.983113 0.00737416 -5.82928e-22)
(1.0039 2.08659e-05 0)
(1.00701 -2.50587e-05 0)
(1.00422 0.00292111 1.8705e-21)
(0.9994 0.0377985 -4.18505e-22)
(1.01234 0.00362021 -2.16932e-22)
(0.972255 0.0805713 4.74485e-23)
(1.0078 0.000143613 8.76732e-22)
(1.01056 -0.000464291 8.32336e-22)
(1.02987 0.024344 4.81491e-21)
(1.05402 -0.0739748 -5.89978e-22)
(1.08728 -0.0619428 0)
(0.982979 0.0379336 -7.62117e-22)
(1.10754 0.214591 0)
(1.01056 -0.000536436 0)
(1.01845 0.0130967 -1.76477e-22)
(1.06198 -0.0248448 0)
(1.00369 0.000263462 9.25927e-22)
(1.01229 0.00449917 5.66988e-22)
(1.05634 -0.0294322 3.98976e-21)
(1.01772 -0.000809677 1.22905e-21)
(0.894357 0.132484 0)
(1.03939 -0.0847891 3.40611e-22)
(1.00659 -0.000153594 0)
(1.01053 -0.000536982 0)
(1.02087 0.00139836 -4.31763e-23)
(1.01116 0.00334955 -6.28642e-22)
(1.01073 -0.000558634 1.55377e-22)
(0.970744 0.0219798 -1.4412e-21)
(0.978482 0.0440666 1.74659e-21)
(1.00915 -0.000145374 -3.30288e-22)
(1.01714 0.00814361 4.38626e-22)
(1.01879 0.0109652 6.43745e-23)
(1.04485 0.0595033 -1.18628e-21)
(1.01241 0.0048146 -5.47464e-22)
(1.01182 1.4902e-05 0)
(1.01465 0.0145715 1.20987e-21)
(1.01589 0.00102289 0)
(1.01427 -0.00127239 -2.08783e-22)
(0.98985 0.0329862 1.63787e-21)
(0.990346 0.124429 7.29153e-21)
(1.02082 0.122708 1.9865e-20)
(1.01363 0.000856878 -7.08349e-22)
(1.01014 -3.83279e-05 -5.93523e-23)
(1.0094 -0.000146219 3.06843e-22)
(1.01121 -0.000980044 0)
(1.01154 0.00550051 0)
(1.02454 0.00765889 0)
(1.01017 0.00116998 -2.49821e-22)
(1.00753 1.79973e-05 -7.83041e-22)
(1.01056 0.00164439 0)
(0.953915 -0.00945841 -6.00489e-22)
(1.00876 0.000172923 0)
(1.01763 0.00103699 0)
(0.966883 0.067939 0)
(1.01037 0.00130136 1.07176e-21)
(1.00899 0.00076801 9.23388e-22)
(1.01703 0.00303264 -1.11006e-21)
(0.833309 -0.325164 -9.30926e-21)
(1.01004 -3.46541e-05 0)
(1.02008 0.00246595 0)
(1.00887 0.000177295 8.6077e-22)
(1.01822 0.00332035 3.43328e-22)
(1.00989 -3.96282e-05 -1.47979e-21)
(1.02355 0.025532 -1.59799e-21)
(1.0638 0.173272 -1.44636e-20)
(1.01785 0.00117933 -1.60334e-21)
(0.911937 0.131599 0)
(1.02107 0.0341925 -4.59986e-21)
(1.11419 0.191576 -6.84927e-21)
(1.00357 0.0806606 8.62798e-21)
(1.01039 0.00178172 -1.00795e-21)
(1.00271 -0.000948979 0)