/*--------------------------------*- C++ -*----------------------------------*\
| =========                 |                                                 |
| \\      /  F ield         | OpenFOAM: The Open Source CFD Toolbox           |
|  \\    /   O peration     | Version:  v2012                                 |
|   \\  /    A nd           | Website:  www.openfoam.com                      |
|    \\/     M anipulation  |                                                 |
\*---------------------------------------------------------------------------*/
FoamFile
{
    version     2.0;
    format      ascii;
    class       surfaceScalarField;
    location    "800";
    object      phi;
}
// * * * * * * * * * * * * * * * * * * * * * * * * * * * * * * * * * * * * * //

dimensions      [0 3 -1 0 0 0 0];
oriented        oriented;


internalField   nonuniform List<scalar> 
27274
(
0.130952
0.0323827
-0.163334
0.00727046
-0.00513841
-0.00213205
0.228449
-0.31011
0.0816603
-0.319956
0.517874
-0.197923
0.290207
-0.243896
-0.0463115
0.134445
-0.125731
-0.00871455
0.360509
-0.417912
0.0574004
-0.167141
0.0804469
0.086694
-0.143444
0.153212
-0.000115494
0.00122833
-0.00111284
0.434411
-0.212774
-0.22164
-0.00906181
0.0104894
-0.00142759
-0.0366995
0.0948569
-0.0581574
0.217026
0.0943705
-0.311397
-0.0587943
0.283969
-0.225176
0.0349541
0.147317
-0.182271
-0.0081135
-0.00254695
0.0106605
0.0416225
0.247732
-0.289357
-0.296011
0.249042
0.0469677
0.0590937
-0.0441937
-0.0149
-0.118091
0.164759
-0.0466677
-0.0370982
-0.144358
0.181456
0.000659433
-0.00262873
0.0019693
0.256866
0.0333405
-0.22416
-0.0260667
0.372402
0.0392771
-0.411681
-0.422323
0.171811
-0.156612
0.16505
-0.00843774
0.000483398
-0.000516621
3.32234e-05
-0.214578
-0.0591468
0.273724
0.140411
-0.269275
0.128864
-0.273248
0.110872
0.162376
-0.291826
0.333445
0.209561
-0.530401
0.32083
-0.0504664
-0.0803669
0.130833
0.166345
-0.0353935
-0.215772
0.0825435
0.0652485
-0.109638
0.0443898
-0.200067
0.0434549
0.420666
-0.310155
-0.110514
-0.0247582
0.241784
-0.0968298
0.0713026
0.0255272
0.308981
-0.0805333
0.00566525
-0.00217918
-0.00348607
-0.526247
0.36397
0.162268
0.0817048
-0.0164564
-0.126817
0.152164
-0.0253473
0.0630001
0.106172
-0.169172
0.128895
-0.154612
0.0257176
-0.47954
0.210507
0.269031
-0.417171
0.0850402
0.332127
0.189154
0.12821
-0.317365
0.287722
0.17001
-0.457732
0.00918083
-0.0161471
0.00696624
-0.08109
0.384659
-0.30357
-0.461704
0.487507
-0.0258081
0.0742114
-0.122142
0.0479308
-0.197392
0.138597
-0.0227372
0.0144466
0.00829053
-0.0485056
0.118698
-0.0701925
-0.240906
-0.238637
0.146317
-0.15579
0.00947281
0.0625614
-0.355526
0.292962
-0.00606188
-0.117274
0.123336
-2.38371e-05
-0.00903798
-0.14142
0.173803
-0.008034
0.00647232
0.00156168
-0.119176
0.123719
-0.00454383
-0.237241
0.162033
-0.199131
-0.138146
0.104526
0.0336199
0.560224
-0.32069
-0.239535
-0.105529
0.0570234
0.400805
-0.283552
-0.117255
-0.086337
-0.0808039
0.0620554
0.298451
0.0434016
-0.0259528
-0.0174488
0.285737
-0.245916
-0.0398215
0.0273622
0.158278
-0.185641
0.182454
0.157146
-0.339601
-0.33853
-0.0793858
0.0703249
0.014636
-0.0849609
-0.171415
0.0533236
-0.125261
0.0100909
0.11517
0.0549523
0.317449
-0.0926104
0.0559109
0.000305519
0.0170529
-0.0173584
0.0356008
0.0234929
-0.00168576
0.00216915
0.00592862
0.00601818
-0.0119468
-0.0583497
0.113063
-0.0547134
-0.442151
-0.0841085
0.480598
-0.166064
-0.314535
-0.298147
-0.120006
0.418148
-0.00559841
0.00559841
2.93341e-06
0.0006565
-0.360792
0.246008
0.114782
0.214169
-0.216745
0.00257659
0.0133094
-0.00412852
-0.00725448
0.00838835
-0.00113386
-0.00770305
0.00842492
-0.000721871
0.010326
-0.00793134
-0.00239467
-0.175949
0.120555
0.0553943
-0.0901657
0.0552835
0.0348822
0.30423
-0.223099
-0.0811313
-0.0666377
0.117081
-0.0504436
-0.0114301
0.0117421
-0.000312091
-0.0272794
-0.0619684
0.0892477
-0.00338446
-0.118101
0.121485
-0.0379738
0.0170883
-0.317616
0.113522
0.204093
0.159718
-0.207697
0.0479792
-0.436026
0.0656554
0.37037
-0.0137433
0.173461
0.00874692
0.00791893
-0.0166659
-0.411781
0.549988
-0.138213
-0.0106403
0.0123142
-0.00167391
0.0193424
0.0240592
-0.0143862
0.0139428
0.000443423
-0.145926
-0.0300235
-0.00162898
0.00151348
0.0440221
0.0448477
-0.0888699
0.210702
0.0750346
-0.102326
-0.0358202
-0.141732
-0.219061
-0.0892047
0.0619254
-0.153495
0.342648
0.281558
0.193898
-0.475456
0.0416213
-0.0822172
0.040596
-0.414526
0.116374
-0.307374
-0.109801
0.0765164
-0.067014
-0.00950246
-0.023026
0.130495
-0.107469
0.192209
0.0219593
0.0789561
-0.109256
0.0303
-0.170797
0.452354
-0.193903
0.00944959
0.184453
0.275308
0.1591
-0.216599
-0.0500099
0.266608
0.05882
-0.122316
0.0634962
-0.00183849
-0.00586456
0.000181782
0.00329737
-0.00347915
-0.215335
-0.0399046
0.255239
-0.266995
-0.0506211
-0.0251358
0.020602
0.00453374
0.25845
-0.108445
-0.150005
-0.157551
0.043102
0.114449
0.019183
-0.00110647
-0.0180766
-0.129983
0.209387
-0.0794042
0.0198962
-0.000713192
-0.141267
-0.121545
0.262811
0.114092
0.0421472
-0.0926136
-0.015129
-0.00760818
0.10679
-0.130872
0.0240815
0.0357546
0.424601
-0.460356
0.0634818
0.0130346
-0.00447353
-0.0099127
0.350536
-0.314782
-0.148834
0.03963
0.109204
0.00630163
-0.123119
0.116817
-0.0312375
0.191377
-0.16014
-0.138179
0.0178437
0.120336
0.220688
-0.0284787
-0.0452695
0.0962435
-0.050974
0.0298878
0.0104154
-0.0403033
-0.0051897
0.0107525
-0.00556283
-0.176188
0.145177
0.0310113
0.115635
-0.0530064
-0.0626282
-0.345202
0.321361
0.0238381
0.00740307
-0.00978778
0.00238471
-0.00143099
0.00240003
-0.000969034
-0.000139531
-0.381347
0.381482
-0.369457
-0.0195144
0.388968
-0.157872
0.192826
-0.00161266
0.00803283
-0.00642017
0.137367
-0.147784
0.0104164
-0.36234
0.0239917
0.338347
0.0929242
-0.0513029
-0.01
-0.0132467
0.0232468
0.0430967
0.0127848
-0.0558816
0.0627483
0.0528862
0.199887
-0.200971
0.00108412
-0.443269
0.369958
0.0733078
0.0986414
-0.048367
-0.0502744
-0.00543092
0.0114112
-0.00598028
-0.000308123
0.0088743
-0.00856617
-0.0344805
0.106082
-0.0716017
-0.0312169
-0.134995
0.166212
-0.0107583
0.00264482
-0.0309249
-0.184561
-0.140683
0.325243
0.19013
0.0305574
-0.0405921
-0.0303721
0.0709642
0.110519
-0.0742389
-0.0362798
-0.283885
0.127833
0.156052
-0.0991802
0.0337064
0.0654738
0.177706
0.0221809
0.170336
-0.153868
-0.0164683
-0.3696
-0.273978
0.108658
0.16532
-0.181457
0.0334125
0.148044
-0.00286919
0.00624224
-0.00337306
-0.00438376
0.00407564
-0.0116897
0.00281439
0.00887532
0.1695
-0.199428
0.0299286
-0.000262952
-0.0103774
-0.00122869
0.00322454
-0.00199585
9.85275e-05
-0.0015112
0.00141267
0.150118
0.0202186
-0.385608
0.191704
0.0828771
-0.224145
-0.0540438
0.0352588
0.018785
-0.243764
0.0284285
0.0857096
-0.430914
0.0944709
-0.0241461
0.0250821
-0.0758142
0.0507322
-0.018443
-0.365615
-0.0704105
0.0854263
-0.215409
-0.0423282
-0.0485313
0.0908595
-0.0290318
-0.273477
0.302508
0.0116083
-0.136869
0.234587
-0.225139
-7.61514e-05
-0.00511355
0.121247
-0.26012
0.138872
0.00204874
-0.00431971
0.00227097
-0.00692653
-0.00752648
0.014453
-0.0434433
0.0359833
0.00746007
-0.161328
-0.224281
-0.18849
0.476211
-0.168189
0.195552
-0.151722
-0.0142448
0.165967
0.00339636
-0.00134762
-0.144232
-0.064427
0.208658
0.339336
0.0740888
-0.413425
0.0279508
-0.390292
-0.0508383
-0.0339326
0.0847709
-0.115249
0.0637282
0.0515207
-0.0116897
0.155223
-0.158608
0.0714523
-0.119267
0.0478143
-0.0356108
-0.241158
-0.416554
0.15687
0.259681
0.117683
-0.240373
0.12269
-0.0107019
0.00377539
-0.0421278
0.0794252
-0.0372974
-0.00244173
-0.00325063
0.00569236
0.129388
-0.0225975
-0.13981
0.146111
-0.149857
-0.124122
-0.0271037
-0.00497675
0.0320804
0.205133
-0.0274265
0.000243545
-0.000145018
-0.285596
0.0617076
0.223888
-0.0103479
0.00466119
0.00568671
-0.0785016
0.0494916
0.02901
-0.0801449
-0.0686892
0.129521
0.124122
-0.253644
-0.489667
0.444683
0.044977
-0.162883
0.0214628
-0.0247339
0.10633
-0.0815964
-0.0154292
0.01256
0.103066
-0.126092
0.13006
-0.416688
0.286624
0.280205
-0.381963
0.101756
0.0782611
-0.353266
0.275004
-0.115519
0.062513
0.0661392
0.0183068
-0.0844461
-0.0471132
0.0443395
0.00277371
-0.235123
0.213003
0.0221204
0.0194729
-0.0138909
-0.00558197
-0.0948558
0.0603753
-0.104529
0.0378909
-0.242241
0.014732
0.227508
-0.0567493
-0.0424309
-0.160879
0.343331
-0.436348
0.156713
0.279635
-0.0580442
-0.0126546
0.0706988
-0.576091
0.313788
0.262295
0.307973
-0.245919
-0.135274
0.0770744
0.0581993
-0.264302
-0.0489423
0.313243
-0.00236495
0.00412298
-0.00175803
0.17303
0.0321029
-0.177572
0.130517
0.0470543
-0.296825
-0.279274
-0.136141
-0.0400476
-0.00392753
-0.00702202
0.0109496
-0.0625459
0.0940516
-0.414013
-0.128544
0.283544
-0.154999
0.0621593
-0.110081
0.047922
0.00453819
-0.00684403
0.00230584
-0.344747
0.423008
0.400829
-0.462281
0.0614512
0.0619402
-0.0368582
-0.158652
0.0884672
0.0701847
-0.0976239
0.127448
-0.0298245
-0.0599551
0.0383622
0.0215928
-0.253785
-0.182564
0.0797923
-0.0412867
-0.161314
0.2026
-0.00101547
0.401844
-0.021761
-0.038194
-0.093561
0.0482915
0.0403696
-0.087259
0.0468893
0.112666
-0.0505063
-0.299596
-0.114934
-0.0151534
0.0582502
-0.127232
-0.179584
-0.089629
-0.206382
-0.0872762
0.0451484
0.339485
-0.113477
-0.226009
-0.0440672
-0.0666439
-0.0301859
0.24193
0.238667
-0.39943
0.123333
0.276093
-0.081656
-0.0376106
0.0141375
-0.00328431
-0.0108532
-0.00108073
-0.000147965
0.255911
-0.0141238
-0.241787
-0.000520457
-0.137659
0.00534589
0.000319358
0.347816
-0.140023
-0.207794
-0.0664585
-0.0487904
0.173077
-0.190334
0.0172564
0.134802
-0.0413544
-0.0934472
-0.101581
0.0351227
-0.419714
0.120113
0.0434447
-0.0135568
0.179734
0.0997738
-0.279509
-0.0367302
0.115686
0.533766
-0.357833
-0.175937
0.0317638
0.007583
0.000653853
-0.00823685
-0.389665
-0.0150812
0.404746
0.000351907
-0.0103519
-0.158314
0.182316
-0.0240021
-0.388583
0.235767
0.152816
0.0146176
-0.141434
0.0247225
0.121595
0.0857173
-0.0470896
-0.0386276
-0.00262102
0.0191123
-0.0164913
-0.0793653
0.0387732
-0.0582171
-0.227379
0.258262
-0.195703
-0.000370479
-0.000120408
0.000490886
-0.0788859
0.047961
0.0309248
0.404948
-0.251447
-0.153502
0.170093
0.0304854
-0.200579
-0.0399175
0.0802871
0.064799
0.0338424
-0.035836
0.00873234
0.00159341
-0.00196389
-0.253953
-0.0356286
0.289581
0.239159
-0.207866
-0.0312932
0.00333579
-0.00553321
0.00219742
0.304148
-0.190627
-0.205128
0.0608958
0.0947969
-0.0264484
-0.0683484
-0.154994
0.137905
0.0170894
0.254957
-0.0335677
-0.221389
0.00985083
0.00428666
0.26784
0.210135
-0.477976
0.0830456
-0.0940741
0.0110284
0.0438664
-0.0861945
-0.00975099
0.00975099
-0.305422
0.399468
0.270515
-0.163396
-0.107119
-0.350778
0.290898
0.0598791
0.371101
-0.199692
-0.17141
-0.0895591
0.0676186
0.0219405
0.220694
0.150406
-0.0985203
0.149295
-0.0507751
-0.23408
-0.116698
0.0525654
0.135017
-0.187582
0.135959
-0.389912
0.0366844
-0.180129
-0.120192
0.267685
-0.147494
0.0177847
-0.218415
0.20063
0.309138
-0.266048
-0.043091
0.284772
0.024365
-0.024386
-0.164741
0.189127
-0.0479754
0.0113984
0.036577
-0.00318655
0.00148482
0.00170174
0.0816645
0.152922
-0.0524695
0.0588896
-0.00642008
-0.134115
0.0462759
0.087839
-0.000854485
-0.00233207
-0.148086
-0.0287064
0.176793
0.135271
-0.078593
-0.0566775
-0.0978295
0.215512
-0.047389
0.0771855
-0.0297965
-0.123525
-0.437761
0.0259735
-0.0175648
0.356899
0.383402
-0.155778
-0.227628
-0.011765
0.00914396
0.00150425
-0.184356
0.182851
0.459519
-0.095556
-0.0166372
-0.116035
0.132672
-0.147807
0.0492871
0.130796
0.173351
0.18064
0.167175
-0.00169943
-0.000340084
0.00203951
-0.121853
-0.314375
-0.0264927
0.2815
-0.3838
0.102299
-0.00407862
0.00163689
0.0065497
-0.00923159
0.00268189
0.0552685
0.0395283
-0.0211058
-0.136445
0.176997
0.00437553
-0.00830306
0.271465
0.288758
-0.234738
-0.107579
0.342315
-0.0152223
-0.0206137
-0.366094
-0.0877718
0.453865
-0.330066
-0.0512832
-0.00358621
-0.00717212
0.298518
0.102285
-0.000976047
0.00855905
0.139445
-0.127982
-0.0114629
-0.138579
0.142825
-0.00424606
-0.00311274
0.00966243
0.0154016
0.179758
-0.19516
-0.335741
0.101002
0.0107017
-0.0368779
0.0261762
0.12211
0.0123354
0.00833095
-0.0444123
-0.0457533
0.346951
-0.209948
-0.137003
-0.343739
-0.0995338
-0.265625
0.15718
-0.0324994
-0.0344054
0.0669048
0.0514115
0.0620937
-0.113505
0.0119822
0.23706
-0.443582
0.388797
0.0547842
-0.222716
-0.0210483
0.0172548
0.0657909
-0.00378108
0.00711687
0.20472
-0.148697
-0.0560234
-0.141693
-0.123933
-0.286707
0.398291
-0.111584
-0.176342
0.0282551
0.107297
-0.0747693
-0.0325278
-0.00298126
0.00751945
-0.00776631
-0.00258159
-0.0562908
0.0568714
-0.000580626
0.059145
-0.076389
0.017244
0.0662716
0.0184378
-0.0847094
0.00143748
-0.00361667
-0.192717
-0.0664809
0.259198
-0.405801
0.275754
0.130044
-0.270931
-0.192369
0.274032
-0.0845856
0.0564571
0.0281285
0.369263
-0.220316
-0.148947
0.181684
-0.00895081
0.00169633
-0.0359967
0.0532514
0.143512
0.0169372
-0.0110086
0.0703895
-0.0112445
-0.00855512
0.00312419
-0.210227
-0.0741961
0.284423
0.164578
0.12837
0.182655
-0.311025
0.11052
-0.449053
0.0121758
-0.455758
-0.475196
-0.406513
0.152728
0.00298286
-0.000313084
-0.00266978
0.05677
0.19914
0.39703
-0.281778
-0.115256
-0.047356
0.0913782
0.122646
-0.0851513
-0.0374947
-0.31913
-0.0866738
0.154235
-0.236721
0.0824862
-0.0983235
0.0223334
0.0759901
0.00785687
-0.065901
0.0238564
-0.181728
0.0578318
0.21434
-0.272173
0.041305
-0.196782
0.0153258
-0.0187853
0.00985841
0.00892684
-0.0366454
-0.401271
0.201579
-0.000156859
0.00650526
-0.0063484
0.0692645
0.0533815
0.107161
0.266376
-0.373539
0.00070755
-0.00128581
0.000578262
-0.00291487
-0.00255192
0.00546679
0.000189862
0.00142766
-0.00161753
-0.196186
-0.205086
0.267734
-0.209904
0.00464058
-0.156363
-0.102688
0.110329
-0.00764146
-0.136359
-0.0804599
0.216819
0.011046
0.00842691
-0.0713237
0.0388243
0.0168868
-0.0693564
-0.0303149
0.0883551
-0.0580401
0.137755
0.245643
0.0162595
0.123185
-0.0100235
-0.000742829
0.0107663
-0.00142806
0.0120589
-0.0306118
0.0185529
0.211775
-0.277544
0.0657687
0.125433
0.0374405
-0.162874
0.0325047
-0.155624
-0.00442055
0.00377172
0.000648831
0.00578889
0.00453711
-0.090218
0.0318683
-0.124511
0.245758
0.0249848
-0.241584
0.377164
-0.0873945
-0.289769
-0.0496503
0.101062
-0.228836
-0.177678
-0.0403099
0.0510116
-0.107253
0.139758
-0.0124537
0.0212006
-0.295165
0.227506
0.0676583
-0.275057
0.0523411
-0.426596
-0.0630786
-0.119251
7.48975e-05
-0.0240047
-0.118568
0.142573
0.0690067
0.0382903
-0.268601
0.381744
-0.113144
0.123701
-0.0685393
-0.0551621
0.0128105
0.0360179
-0.0488284
-0.156174
0.176565
-0.0203913
0.303423
-0.173902
0.211216
-0.126327
-0.0848891
0.184508
-0.167261
-0.0172468
0.487429
-0.250692
-0.236737
0.130541
-0.164778
0.0342367
-0.00487646
-0.173434
0.0172596
-0.041884
-0.0477421
0.0896261
-0.035035
-0.294068
0.401225
-0.196609
-0.500613
0.110948
-0.148384
0.012243
0.187629
0.0673271
-0.11616
0.0898131
-0.300041
0.134891
0.121975
-0.00763228
0.266881
0.142905
-0.409791
0.0197956
0.0793067
-0.0991022
0.185918
-0.196374
0.0104558
-0.0568388
-0.0424715
0.0993103
-0.172075
-0.00549683
-0.0164945
0.00472951
-0.263274
0.0886724
0.174601
0.00768551
-0.00768551
0.132156
0.0285934
-0.160749
-0.0906009
0.153601
-0.0618877
-0.0166138
-0.00577519
-0.0340161
-0.0248082
0.0588242
0.13824
0.0383245
0.194005
-0.192501
-0.395469
0.199282
0.210143
0.112583
-0.322727
-0.131532
0.075379
0.0561532
0.152827
-0.127405
-0.0254217
-0.0446436
0.13281
-0.0881663
-0.106865
0.0709964
0.0358683
0.00316464
-0.0452908
0.0983899
-0.0530991
-0.356499
0.506689
-0.150198
0.000327301
-0.00160749
0.00128019
-0.0077385
0.0471407
-0.0394022
0.142221
-0.228762
0.0865405
0.238318
-0.0281754
-0.0582103
0.0780059
0.00883089
-0.00281271
-0.134194
-0.0286896
-0.275678
-0.13848
0.414157
-0.0818457
0.0255979
0.0562477
-0.096433
0.0545491
-0.143804
0.0634374
0.102418
0.011886
-0.114304
-0.0386954
-0.00904146
0.0477368
-0.16318
-0.0535661
0.0630673
0.0357278
-0.0987951
0.00147548
-0.00188435
0.000408873
-0.0652622
-0.036319
-0.0424284
0.0990323
-0.0570368
-0.0419955
0.0322513
-0.0830895
0.146419
-0.185428
0.039009
-0.402439
-0.0592698
-0.103696
-0.319153
0.104575
-0.00301138
-0.0221244
0.0198604
0.0145349
-0.0343953
0.00636078
-0.00797344
-0.00987957
-0.0380958
-0.00648144
0.00823663
-0.00175519
-0.000404791
5.93641e-05
0.000345427
-0.0700613
-0.0117844
-0.035428
0.182745
-0.00262959
-0.00393467
0.00656426
0.00652496
0.0274037
-0.0339287
0.20789
0.0247735
-0.0481712
0.0233977
-0.000901999
0.00800598
-0.00710398
0.0517587
0.0121801
-0.0639388
0.083024
0.121696
-0.109261
0.403309
-0.294052
-0.194275
0.0310952
-0.214031
0.184032
0.0299982
0.155664
0.028844
-0.0633465
-0.0604281
0.123775
0.0789286
0.260556
0.00556373
-0.00556373
-0.190548
0.166162
0.142892
0.0176817
-0.160574
-0.00163212
-0.00278843
-0.217576
-0.0978174
0.315392
-0.14767
0.123665
0.0359755
-0.0239166
-0.237774
-0.0979689
0.025512
0.183949
-0.209461
-0.000854343
-0.00110133
0.00195567
-0.115102
0.417401
-0.302305
0.0443201
0.0793812
-0.152836
-0.00175226
-8.01753e-05
0.00183243
0.186297
-0.0480562
0.128768
-0.142041
0.0132725
0.090158
-0.194773
0.0486993
0.146073
0.0105096
-0.113197
-0.110612
0.00613291
0.104479
0.0159939
0.00390234
0.110768
-0.121482
0.0107144
0.148144
-0.272469
0.124324
0.00976077
-0.00990438
0.00014361
0.147311
-0.0185423
0.00474929
0.0129826
-0.00500123
-0.0079814
0.0428793
-0.0902353
0.0382938
-0.0801988
-0.186797
0.139315
0.230408
-0.369726
-0.00452264
0.00160777
0.104712
0.106504
-0.0282195
0.158761
0.442878
-0.304679
-0.1382
-0.0545524
-0.00245926
-0.0538315
-0.0176489
-0.0116401
0.029289
0.000911494
0.000869703
0.00681581
-0.0326447
-0.051941
0.136001
-0.186115
0.0501139
-0.3829
0.273635
0.167198
-0.129009
0.112372
0.109627
-0.0434879
0.329356
-0.200837
-0.128521
0.0338857
-0.0679018
0.136427
0.0330731
-0.038097
-0.455702
0.443417
0.0122755
0.000951096
0.00169694
0.180589
-0.239736
-0.329672
-0.123447
0.013018
0.110429
0.170145
-0.474826
-0.106824
0.373197
0.000248464
0.000563181
-0.000811645
0.0361719
-0.226375
0.176745
0.0496299
-0.251715
0.364297
-0.0493418
0.108158
-0.0588161
-0.0349631
-0.119649
-0.0248181
0.183096
-0.0207623
-0.0581235
-0.213543
0.231327
0.00429143
-0.0143149
-0.127715
0.0188818
0.108833
0.103502
0.153644
-0.257146
0.0308404
-0.0160239
-0.0148164
0.00129988
0.00110015
0.255125
-0.402763
0.147636
-0.0338342
0.0161852
0.23637
0.2815
-0.331667
0.0938923
-0.244331
0.107973
-0.0834617
-0.0163036
0.0997653
-0.000524812
-0.00231753
0.00284234
-0.0341101
-0.124204
-0.000222359
0.00169783
0.0328096
0.108791
-0.1416
0.00941086
-0.0264604
0.0170496
-0.0755657
0.0452507
-0.161297
-0.0241312
-0.00650528
0.110683
0.159832
0.0134826
-0.0263711
0.0128885
-0.0745274
0.0137899
-0.0134844
0.00497045
0.0023
0.0764374
0.170593
-0.247031
-0.014301
0.0268992
-0.0125982
0.165669
-0.193807
0.0281382
0.00167343
0.130483
-0.0227449
0.0513755
-0.0286305
0.0203759
-0.0610987
0.0407228
-0.00315257
0.0075281
-0.39319
0.287343
0.105845
-0.00703703
-0.00945746
-0.143346
0.319652
-0.176306
-0.0134035
0.0293973
0.0421206
0.165497
-0.207618
-0.212497
0.105243
-0.173808
0.00654664
-0.34469
0.188685
0.156003
0.198981
-0.500154
0.301163
-0.0257531
-0.108476
0.134229
0.0721703
-0.0206513
0.07241
-0.443061
0.0993184
0.00764656
-0.00833304
0.000686479
-0.185118
0.0238205
-0.239665
-0.105027
0.110688
0.266475
0.0646033
0.0737735
-0.138377
0.0582343
0.0513146
-0.109549
0.0203011
-0.0430461
0.112615
-0.146725
-0.157979
0.367533
0.136186
-0.171365
0.0351786
-0.005374
0.0132929
-0.129473
-0.329396
0.215918
0.33756
-0.148877
-0.0370711
0.173257
-0.0179681
-0.146575
0.164543
0.000329358
0.00523437
-0.317997
0.100421
-0.0504861
0.0729866
-0.0225005
0.0492029
0.0613157
0.0470994
-0.0548379
0.000308862
-0.000119
-0.00334273
-0.00469127
-0.113593
-0.284552
0.39814
0.0253039
-0.150669
0.125365
0.124419
0.236192
-0.198019
-0.0381731
-0.19574
0.170958
0.0247821
0.00623949
-0.00714149
-0.315362
-0.0676729
0.38303
-0.165589
-0.229881
-0.499826
0.21537
0.284446
0.0337837
0.111874
0.0522119
-0.164086
0.250226
-0.102083
0.102842
0.0394885
-0.142331
0.0287197
-0.162914
-0.00328888
0.0119165
-0.00862762
-0.00245718
-0.00897287
0.366422
-0.227345
-0.139078
0.16942
0.131626
-0.301046
0.00558541
-0.156618
0.0011956
-0.000168445
-0.00102715
0.00139467
-0.00653308
0.00107005
0.00145785
-0.00252791
-0.0609409
0.0391798
-0.0425453
-0.0174877
0.0600329
0.0863534
-0.0482842
-0.0380692
0.0124882
-0.419694
0.0540788
-0.118039
0.275839
-0.0961051
0.166937
0.0516838
-0.218621
0.146311
0.258637
-0.0594383
0.0210008
0.0285742
-0.0495751
-0.00190609
-0.00369232
-0.242325
8.31317e-05
-0.0186827
-0.0350206
0.0537033
0.100634
0.317582
-0.418222
-0.0680229
0.204024
-0.120442
-0.0273658
0.298383
-0.379474
-0.0285232
-0.141971
0.167482
0.00607582
0.0145262
-0.00792512
0.00467449
0.0930718
-0.142971
0.0498997
0.00309378
-0.00624635
0.0853729
-0.0191013
0.00256425
0.00390807
-0.0614127
0.0797195
0.0506887
-0.0154299
0.000532895
-0.000822297
0.000289402
-0.121042
-0.00667354
0.0551048
-0.0422943
-0.0949215
0.0496307
0.00640234
0.00658028
0.219814
-0.30214
0.0823243
0.11287
0.332417
-0.449561
0.117141
-0.0239006
0.0581193
-0.030004
-0.0281153
0.365911
-0.475959
0.0917379
0.384221
0.0983923
-0.00479847
-0.0935938
-0.233569
0.398679
-0.165115
-0.0879196
0.0818577
0.0164392
-0.133713
-0.534265
0.310221
0.224043
-0.0794111
0.0580025
0.0214085
0.190079
-0.281985
0.0919056
0.26379
-0.104784
0.0554418
-0.268152
-0.101716
0.369865
-0.0473625
0.088235
-0.0408725
-0.0123361
0.0321965
0.283839
-0.110071
-0.173768
-0.244078
0.169979
0.0740994
-0.350846
0.111179
-0.101579
0.0675715
0.0340075
-0.270909
0.400965
0.0624087
0.149582
-0.211991
0.0331911
0.0554457
-0.0886368
-0.137822
-0.156296
0.294118
-0.000923251
0.000608528
0.000314723
-0.201482
-0.0651245
0.266606
0.000684048
0.000909363
0.238383
-0.0212923
-0.217091
0.0809133
-0.123297
0.0423841
-0.235901
0.329188
-0.0932882
-0.000356881
-0.110413
0.11077
-0.150562
0.0301205
-0.349453
-0.0702405
0.169716
0.114122
-0.00173413
0.000810882
0.23427
-0.263302
-0.00655058
-0.00493982
0.0114904
-0.00829952
0.0112415
-0.00294198
-0.168533
-0.0665907
0.296584
0.237179
0.301898
0.0827591
0.389162
-0.0628013
-0.326364
-0.000925445
0.00117391
0.104947
-0.356662
0.00379412
-0.00311007
0.00481878
0.000779621
-0.0136964
0.102164
0.00179813
-0.00200731
0.00020918
-0.398733
-0.131677
0.2263
0.0850504
-0.311351
-0.000753424
-0.00114213
0.00167503
0.0645791
-0.175191
0.133438
0.223362
-0.356802
-0.145318
0.273687
-0.274047
0.0737062
-0.242555
0.168848
0.0752595
-0.101154
0.0258942
-0.00593147
-0.0180661
0.0239975
0.167244
-0.166749
-0.000494933
-0.00773926
0.0102842
-0.00263762
0.037203
-0.0798534
0.0426504
0.122509
-0.0428967
-0.0796128
-0.278024
0.248704
0.0293197
-0.00968395
-0.000160359
0.0098443
-0.00128813
-0.0388134
0.141656
-0.32582
0.089918
-0.276624
0.110316
0.166308
0.000704223
0.00198465
-0.00268887
0.140426
-0.00166263
-8.9629e-05
-0.0331019
-0.525236
0.341527
0.183709
-0.0593759
0.123979
0.188563
0.176873
-0.365443
-0.051766
0.164381
-0.218153
0.123343
0.0948101
-0.401376
0.167801
-0.106203
-0.281214
0.387412
0.256471
-0.182766
0.0079051
-0.00656697
-0.00133813
-0.0924974
-0.306379
0.398875
0.00792624
-0.00100172
0.00223005
-0.0972676
-0.179357
0.0607379
-0.325041
-0.0719382
-0.0221359
-0.0041421
0.00543439
-0.00129229
0.1458
-0.171902
0.0261025
-0.00133643
0.00333924
-0.00200281
-0.236174
0.112649
0.0817848
0.12412
-0.155337
-0.00441828
0.00178868
0.0206786
0.0101617
0.0104914
-0.00441677
-0.00607459
-0.445902
0.04716
-0.0168328
-0.188209
0.287982
-0.00420436
0.00286794
-0.353826
0.130711
0.223112
-0.0493142
-0.0300969
0.0936973
-0.00164048
0.000715038
-0.1037
-0.291328
0.395026
0.138508
0.311038
-0.449552
-0.0595493
0.017004
-0.327915
0.0620491
0.265865
0.00802945
-0.000124356
0.0701801
-0.262898
0.0107156
-0.0250166
-0.1747
-0.11193
-0.270036
-0.0289145
0.135086
-0.0852133
0.0347272
-0.00914999
0.00323839
0.0059116
0.150807
-0.165052
0.164354
0.0798764
-0.244231
-0.170847
0.186249
-0.0823905
0.216478
0.112877
-0.0580087
-0.41795
-0.11233
0.0739178
0.0384119
0.280206
-0.131096
-0.149111
0.0139323
0.0156901
-0.0296224
0.00961564
-0.163371
0.153755
-0.00176278
0.00295838
0.214526
0.0789642
-0.293491
-0.290432
0.395172
-0.104743
-0.0411584
0.0877962
-0.0466379
0.000108417
0.00106276
-0.00117118
0.0196072
-0.0374966
0.0178894
-0.19408
-0.0198196
0.2139
0.0201934
-0.00314054
-0.0637159
0.278241
0.0112923
-0.00485623
-0.0064361
0.138472
0.0697832
0.0214669
-0.0912501
-0.170542
0.327686
-0.00158813
0.00189699
0.0914307
0.230117
-0.321548
-0.115627
-0.102527
-0.215193
-0.17339
0.333159
-0.235064
-0.0980956
0.277229
0.2102
0.00976117
-0.0222149
0.051083
0.0358903
-0.0869734
-0.00911931
-0.00921112
0.0183304
0.0663652
0.0561443
-0.194875
0.169005
0.0258699
0.147524
-0.178761
-0.470128
0.150951
0.319175
-0.410565
0.105139
-0.425262
0.310154
-0.166692
0.0394504
-0.0868129
0.251804
-0.209684
0.0123072
-0.00731096
-0.00499629
-0.0579117
-0.0580666
0.115978
0.348961
-0.215525
0.156177
0.0297413
0.00614698
0.00514535
-0.0746902
-0.056842
-0.0563657
0.16824
0.146886
0.0444909
0.110399
-0.124988
0.0145891
-0.00194067
-0.00725734
0.00919801
0.0921358
-0.117889
0.0213904
-0.0148654
-0.022166
-0.125618
0.113287
-0.117749
0.00446202
-0.0379624
-0.0229784
0.145722
0.221059
0.102179
-0.32324
-0.11044
0.0470932
-0.0846027
-0.0246535
0.298778
-0.0716877
0.0242987
0.0429293
0.0868633
-0.129793
0.00628017
-0.00727035
0.000990177
0.147686
0.13252
-0.0234389
-0.102698
0.0192359
-0.120903
0.0175875
0.103316
0.168264
-0.0428309
0.388533
-0.199045
-0.189488
0.0471967
-0.251303
0.209437
0.0418659
0.00503217
0.00727507
0.220135
-0.223665
0.00352986
0.17334
-0.00223813
0.000726925
-0.0305422
0.168359
-0.194967
0.026608
0.0265673
0.21434
-0.308716
0.0943748
-0.00114675
-0.0459665
-0.000305941
-0.00025487
0.00056081
0.0908193
0.0585343
-0.0829932
0.024459
-0.0011049
0.000798962
0.169008
0.0281285
-0.197137
-0.0969393
-0.210416
-0.0408877
0.0321972
0.151747
-0.183944
-0.155209
0.21205
-0.0568407
-0.0201037
-0.0700005
0.0405174
0.0294831
-0.0790835
-0.163472
-0.0229026
-0.139502
0.162404
0.0190869
-0.323039
-0.137622
0.460653
0.000749829
-0.00868116
0.186641
0.0517421
-0.144944
0.207352
0.0400554
0.0510093
-0.0910647
0.00549547
-0.00565233
-0.110245
0.428204
-0.317965
0.342236
-0.217474
0.062264
0.0857228
0.254834
-0.340559
0.478008
-0.171257
-0.306756
0.0139742
-0.0355342
0.0215601
-0.238774
0.506614
-0.187846
0.0196559
-0.284722
-0.114712
-0.0663362
0.0716675
-0.0053313
-0.392935
0.098863
-0.0012745
-0.0421688
-0.0309116
0.0249801
-0.153657
-0.0904216
0.000898163
0.00144667
-0.00234483
-0.32635
-0.116714
-0.178338
-0.0252593
0.203597
-0.0645021
-0.209613
0.274115
2.22053e-05
0.00237116
-0.00239336
-0.0777325
-0.40106
0.400929
0.000125768
0.123964
0.225937
-0.349902
-0.240643
0.191277
0.0493661
-0.0857779
-0.227016
0.312793
-0.0848588
-0.0504149
1.17426e-05
-0.000536555
0.00313799
0.00860415
-0.00194572
0.00374385
0.0723414
0.278386
-0.350729
0.042116
-0.212963
-0.107751
0.107394
0.209322
0.00245273
-0.266454
-0.0873739
-0.0387697
0.0491851
-0.00209959
-0.00411078
0.00621037
-0.132843
0.142459
-0.0732564
-0.13716
-0.0017382
-0.00794575
-0.325581
-0.208686
-0.303827
0.376167
-0.0194827
0.0103634
-0.0013368
-0.0386113
0.0300549
0.00972085
-0.287746
0.00566987
-0.00664591
-0.0703962
-0.140852
0.211248
-0.126668
0.0417536
0.0849143
-0.379261
0.286763
0.155622
-0.175537
0.0199144
-0.287427
0.145779
0.141648
0.0891904
0.0460801
0.119829
-0.0500457
0.109594
0.0377167
0.347728
0.0775551
-0.425285
-0.00490519
0.00670457
-0.00179938
-0.0840074
-0.12369
-0.412048
0.0109819
-0.427303
0.427297
0.0188122
0.201323
-0.21686
-0.111055
0.0770306
-0.278514
-0.0496123
0.0127344
0.0219277
-0.216008
0.0300958
-0.261648
0.0685325
0.193115
-0.0227106
-8.78068e-05
0.000196224
0.17446
-0.38755
0.213084
0.00307406
0.054149
-0.0572231
-0.0238546
-0.134648
0.158502
0.384394
-0.209939
0.097945
-0.188546
-0.115177
-0.00368201
0.118859
-0.401585
0.134509
0.267075
0.385542
-0.219485
-0.166059
-0.0935295
0.389185
-0.295657
-0.137522
-0.157643
-0.0961448
0.119697
-0.0235518
0.42855
-0.147212
-0.281342
0.096915
-0.240544
0.143628
-0.122503
0.121983
-0.0715019
0.419228
-0.11486
0.00320082
-0.0097514
-0.0122333
0.0216441
0.0370392
-0.0259081
0.0398823
-0.0274542
-0.0909689
-0.0299346
0.0154488
-0.0362835
0.0208347
-0.0208856
0.0554024
-0.0345169
-0.0081219
0.410311
-0.402199
-0.188494
0.240178
0.165445
-0.400269
0.23482
0.0132785
0.0278639
-0.0411424
-0.025057
0.0580862
-0.0330292
-0.13768
0.106157
0.0315236
0.170309
-0.363149
0.0727139
-0.271256
0.206753
-0.101599
-0.304328
0.405925
0.155993
0.0831653
-0.0444999
0.0312531
-0.00787216
-0.00755707
-0.00776338
-0.00146821
0.0132812
0.082415
-0.0956963
0.375074
-0.351083
-0.387443
0.516349
-0.128908
-0.0934289
-0.287738
0.381166
-0.0094792
-0.0558746
0.0890657
-0.311314
0.201458
0.109855
-0.00609334
0.00411849
0.00197486
0.280081
-0.140008
-0.02477
0.255164
-0.144293
0.106013
-0.13122
0.025207
0.0221759
-0.162184
0.0918106
-0.0517552
-0.151111
0.127257
0.043065
-0.413901
0.0908528
-0.403597
0.281751
0.121841
0.0960742
-0.0372542
0.100368
-0.36897
0.325539
0.161963
-0.121185
0.0250398
0.0468401
-0.103563
0.056723
0.288053
-0.381584
0.019352
-0.0803971
0.061045
0.27015
-0.374451
0.104299
0.20366
-0.228418
-0.381658
0.0911782
0.290477
-0.248315
0.198305
0.0527442
-0.0316284
-0.0211158
0.118476
0.032339
-0.150815
-0.195731
0.0309897
-0.17783
0.107434
-0.000730816
-0.0409386
0.0109208
0.0300178
-0.398214
0.190803
0.207411
-0.104604
-0.0220636
0.137255
0.00752532
-0.00124515
0.0217018
0.0485909
-0.0702927
8.60139e-05
-0.0003913
0.000305286
-0.0601891
-0.127514
-0.1034
0.113909
0.107516
-0.0492815
0.0399856
0.0696415
0.00675043
-0.00880261
0.00205218
-0.286022
0.40935
-0.120547
-0.263254
-0.121362
-0.208034
0.0333195
0.0026637
-0.0867295
-2.02466e-05
-0.011164
0.0111842
-0.170556
-0.0954925
-0.161889
0.238326
-0.000646128
-0.001592
0.0207894
0.081671
-0.10246
0.204517
-0.0277718
0.0576357
-0.0448509
0.372156
-0.117033
0.137162
-0.150906
0.0373797
0.0482717
-0.0856514
-0.034126
0.0731705
-0.0390445
-0.223422
-0.108247
-0.0424617
-0.0470429
0.0895046
-0.109372