/*--------------------------------*- C++ -*----------------------------------*\
| =========                 |                                                 |
| \\      /  F ield         | OpenFOAM: The Open Source CFD Toolbox           |
|  \\    /   O peration     | Version:  v2012                                 |
|   \\  /    A nd           | Website:  www.openfoam.com                      |
|    \\/     M anipulation  |                                                 |
\*---------------------------------------------------------------------------*/
FoamFile
{
    version     2.0;
    format      ascii;
    class       volVectorField;
    location    "50";
    object      ddtCorrDdt0(U);
}
// * * * * * * * * * * * * * * * * * * * * * * * * * * * * * * * * * * * * * //

dimensions      [0 1 -2 0 0 0 0];


internalField   nonuniform List<vector> 
18355
(
(-0.00803133 0.0881204 -3.58079e-18)
(-0.000207654 -0.000257571 -7.44901e-21)
(0.0711864 0.0282019 -2.244e-18)
(6.7694e-05 2.265e-05 -1.98441e-19)
(-0.0203553 -0.00570835 9.98589e-19)
(0.0753127 -0.0374757 6.96722e-20)
(0.00340337 0.000283704 1.75459e-20)
(-0.0212181 -0.00188765 2.93532e-19)
(2.64807e-05 4.61097e-06 -5.04608e-20)
(0.006335 -0.00839237 4.03257e-19)
(0.00383572 -0.00511981 3.94205e-20)
(0.0341857 -0.0220633 1.14705e-17)
(0.0358297 -0.0235503 -4.33255e-19)
(-0.0710566 0.0394136 2.74027e-20)
(3.36119e-05 8.99094e-06 -1.18066e-20)
(0.000586579 -0.000332672 -4.56763e-20)
(6.75232e-05 2.46113e-05 1.41118e-19)
(0.00457743 0.000267739 3.30049e-19)
(0.0340496 0.0597917 -2.79506e-19)
(-0.00265832 -7.79128e-05 -1.98466e-19)
(-0.234872 -0.116321 -2.74067e-19)
(-0.000455801 -2.60706e-05 4.81059e-19)
(-3.98558e-05 0.000163685 -2.97485e-20)
(0.081533 -0.0186585 1.5395e-19)
(-4.16163e-05 0.000163117 1.88566e-20)
(0.00102892 -0.00108169 -5.06977e-19)
(0.00320445 -0.000594918 -4.1428e-20)
(6.77739e-05 5.3755e-05 -3.31816e-19)
(2.17415e-05 9.99533e-07 6.50512e-20)
(0.00522396 -0.00519579 3.84188e-19)
(0.0598999 -0.0455477 1.0351e-18)
(-0.0119145 -0.026071 -5.77911e-19)
(0.000859555 -0.00065357 1.6075e-19)
(0.000540908 -0.000149161 -1.00137e-19)
(4.74734e-05 2.49119e-05 -2.64189e-22)
(-0.00142124 -0.000534997 4.23984e-19)
(0.00163897 0.00419883 -4.17255e-18)
(-0.00148379 -0.000748794 -2.42514e-19)
(0.00586394 -0.00566463 -3.47731e-19)
(0.00075723 -0.000408664 1.5538e-19)
(4.99593e-05 -4.83302e-06 -1.28847e-18)
(0.00437999 -0.00566436 5.33719e-20)
(0.000566059 -0.000243615 -4.86891e-20)
(-0.000210212 -0.000120421 -4.95938e-21)
(-0.000265755 -8.30324e-05 -1.08405e-20)
(0.0510506 -0.0543269 -6.27282e-18)
(1.85379e-05 6.58274e-06 -3.32431e-20)
(2.15898e-05 -7.68088e-06 -6.37265e-21)
(0.0516336 0.0192426 -2.6751e-20)
(-9.40538e-05 -0.000724889 -1.83275e-19)
(0.000343939 -5.24149e-05 -1.40662e-19)
(0.063065 0.0556607 -2.16778e-19)
(-0.000223183 -0.000764829 6.52751e-20)
(-0.00985945 0.0686533 -1.19121e-18)
(4.16134e-05 5.15383e-05 1.81858e-19)
(-0.00296383 -0.000423164 -5.69004e-19)
(0.000236115 -2.29816e-05 4.11802e-20)
(0.0665116 0.141721 2.18532e-18)
(0.000981472 -0.00133189 2.20788e-19)
(-0.0385589 -0.102067 1.74196e-17)
(0.000531375 -0.000172304 6.82487e-20)
(0.0308824 -0.00284267 2.7856e-18)
(-0.0142815 0.067613 3.01356e-19)
(0.00185604 -0.00180757 5.4067e-19)
(-0.0315502 -0.0268701 -2.08756e-18)
(0.000457095 -7.87209e-06 9.93696e-20)
(-0.00249948 0.000506725 -1.91969e-19)
(0.00150011 0.00448516 -2.72914e-19)
(0.00055709 0.00015017 -3.62345e-20)
(0.0290986 0.0459783 -4.05802e-19)
(0.000652457 -0.000352342 -8.51954e-22)
(3.75934e-05 5.42731e-05 3.27449e-20)
(-0.00810091 -0.0186947 3.39387e-20)
(0.00558967 0.00214721 3.23649e-19)
(-0.0347123 -0.0694427 2.09285e-20)
(0.000512086 0.000121702 3.40666e-20)
(0.0907411 0.139014 -4.19874e-18)
(0.000505475 7.4223e-05 -8.7427e-20)
(0.000661135 -0.000274565 8.84366e-21)
(-0.0202112 -0.0677092 2.18209e-19)
(-0.00252294 0.000287651 2.29394e-19)
(0.0258757 -0.0532282 4.48194e-19)
(0.000556238 0.000124057 2.55282e-21)
(-0.00383811 -0.000380507 1.28806e-18)
(-0.0237447 0.0125659 -4.80978e-19)
(-1.71814e-05 -3.78417e-05 6.90586e-20)
(4.8223e-05 -1.99543e-06 -4.71975e-20)
(-0.0113795 0.012736 1.22889e-19)
(8.0021e-05 -3.9054e-05 2.17794e-19)
(-0.012757 0.0122052 -4.17022e-20)
(-0.038207 -0.0158556 2.01417e-18)
(-0.182268 -0.154669 -7.55695e-19)
(0.0369924 -0.0359827 -6.57958e-20)
(4.66445e-05 -0.000867832 -2.57146e-19)
(-0.0165529 0.0837296 7.39329e-19)
(0.00241331 -0.000974257 -3.26168e-19)
(6.57003e-05 -2.42605e-06 2.16056e-20)
(0.00209449 -0.00090591 4.02679e-19)
(0.0145723 0.032112 -4.39324e-19)
(-0.000342222 -0.000149939 1.56186e-18)
(-0.0221413 0.0114177 -2.18868e-19)
(0.000575302 -0.000227788 -3.64357e-20)
(0.000161056 -0.000805322 3.01716e-19)
(0.00026103 1.17682e-05 -2.06698e-22)
(-0.00284488 -1.25309e-05 1.04406e-18)
(0.000557731 -0.000405911 -6.55107e-20)
(-0.0283883 -0.0298653 1.92417e-19)
(-0.0246634 0.0952582 -2.02077e-20)
(-0.00339352 0.00935987 1.66512e-18)
(0.000664384 -0.00026047 -4.47945e-20)
(0.000297881 -3.81522e-05 2.24631e-20)
(0.000232513 7.06046e-06 2.1498e-22)
(0.000881978 -0.0134714 4.8794e-19)
(-0.00349561 -0.000560318 -8.76357e-19)
(0.0834388 -0.0337735 -4.0546e-18)
(-0.00367455 -0.00667378 -7.63549e-20)
(0.000574251 -0.000162937 -4.01904e-20)
(-0.0224738 -0.0885043 -1.56245e-18)
(-0.00151334 -0.000649179 1.99843e-20)
(-0.00228275 0.000599911 -1.00354e-18)
(0.0216148 0.0420222 2.60956e-20)
(0.0738565 0.0257107 -1.85416e-19)
(-0.0329106 0.00993562 -3.40646e-18)
(-0.0145954 0.0165836 -2.30462e-19)
(-0.0084909 -0.0843561 1.16166e-18)
(0.0616254 -0.0532663 4.63283e-17)
(0.00352821 -0.000158025 1.09612e-19)
(6.5598e-05 1.88852e-05 2.53707e-19)
(0.0106353 0.0902984 5.57914e-18)
(-0.000188794 3.44608e-07 3.51062e-19)
(6.58984e-05 -4.07845e-06 -2.17528e-20)
(0.0722783 0.0604253 6.89535e-19)
(7.61793e-05 -5.18903e-05 4.4582e-20)
(0.0268399 0.0191787 8.68147e-19)
(-0.0584268 0.0254556 -2.33452e-18)
(9.26695e-05 -6.73414e-05 1.92948e-19)
(0.0375247 0.0586359 8.59234e-20)
(0.0158937 0.0505933 -1.27671e-18)
(4.68023e-05 -1.41355e-05 1.8454e-19)
(-0.229308 -0.159786 -7.88652e-19)
(-0.000558895 0.00323114 -5.06556e-18)
(0.0109158 -0.0224634 -3.21339e-20)
(3.61343e-05 -7.27528e-05 6.96882e-21)
(0.0175059 -0.0358823 2.0061e-19)
(-0.0623215 0.0216302 -2.07479e-18)
(5.15398e-05 1.49603e-06 -1.94438e-19)
(-0.0114558 -0.096005 1.28034e-17)
(0.000157423 2.51756e-05 -3.24708e-22)
(0.00199999 -0.0131882 2.43025e-19)
(-0.000215258 0.000129918 1.20165e-21)
(6.41446e-05 5.5143e-05 1.50506e-19)
(-0.00211692 0.000561617 1.15014e-18)
(0.000385852 -0.00392113 -4.56985e-20)
(0.00959963 -0.00744931 3.58986e-20)
(0.000572834 -0.000251869 1.06454e-19)
(-0.000166615 0.000248977 3.21514e-20)
(6.25625e-05 1.81713e-05 -1.78385e-19)
(9.43946e-06 -6.73295e-05 -1.00834e-19)
(2.91813e-05 -7.45333e-05 -3.85543e-20)
(-0.000147168 0.000227463 4.38171e-20)
(0.00480338 -0.00127697 2.11763e-19)
(8.22676e-05 -5.9621e-05 -4.23288e-19)
(0.000659296 -0.000248937 -6.60404e-20)
(0.00815161 -0.014159 1.81743e-19)
(0.00645894 0.000230212 -1.52339e-19)
(0.00706935 -0.000462667 7.43725e-19)
(-0.0461214 -0.108343 -5.43885e-18)
(0.0151203 0.11058 -3.40675e-19)
(-0.177732 -0.483873 -2.76383e-17)
(-0.000798568 0.00326352 -2.73751e-18)
(0.000287485 5.77787e-06 4.75597e-20)
(0.0248545 0.0185532 -4.12206e-19)
(0.000247398 2.05505e-05 1.40585e-21)
(0.0600066 0.0630844 2.13207e-18)
(0.000249298 5.34523e-06 -3.08533e-22)
(4.83581e-05 1.27458e-06 -7.4579e-20)
(0.000277409 2.40762e-06 -1.75321e-21)
(9.37486e-05 0.000236662 7.43488e-22)
(0.00042881 0.000667079 2.46526e-18)
(-0.00827375 -0.00140849 3.84319e-20)
(-7.65189e-05 -6.2696e-06 -2.42867e-20)
(0.00782732 -0.00145216 3.90901e-19)
(-0.000317322 -2.36121e-05 9.70795e-19)
(6.23593e-05 5.38644e-05 -1.64542e-19)
(0.00935561 -0.00198658 -3.02862e-20)
(0.000336992 -0.000886446 6.3714e-20)
(-0.000258068 6.9183e-05 -4.4678e-22)
(-0.0139729 0.00973225 3.38244e-19)
(5.73366e-05 -1.83749e-05 -1.24418e-18)
(0.00338164 -0.00108729 -1.12734e-19)
(0.0576376 -0.0519357 -4.24996e-17)
(0.0159597 0.0305281 -6.75097e-19)
(-0.000394595 7.33421e-05 -1.04841e-20)
(0.000739902 0.000112702 4.23456e-20)
(4.43116e-05 -1.7169e-05 4.63528e-19)
(0.0907032 -0.0249179 -2.51719e-17)
(0.000405394 -7.72074e-05 -3.40143e-20)
(0.0556554 0.125505 -4.59531e-18)
(-0.000273571 -0.000225713 1.1321e-20)
(-0.0647855 0.027393 -1.05944e-19)
(0.000429692 -0.000800602 1.74721e-19)
(0.00234079 0.00197176 9.64688e-19)
(0.00678663 -0.00501485 1.07202e-18)
(-0.000131946 -4.73513e-05 1.30544e-21)
(0.0272371 0.0960178 -6.76763e-18)
(-0.00010866 5.36522e-05 -1.15271e-18)
(-0.182427 -0.5077 2.21219e-17)
(6.5518e-05 6.19003e-05 1.45797e-19)
(0.000858065 -0.000571905 3.1027e-19)
(-0.00103314 -0.00372734 -3.78435e-19)
(7.43221e-05 -0.000166876 -1.1705e-18)
(0.0382553 -0.0115408 -6.81489e-19)
(0.00220779 -0.00413964 2.78319e-19)
(0.00177742 -0.00405869 -1.40784e-19)
(0.00014923 1.23574e-06 1.06371e-22)
(0.0547096 0.0749968 1.1165e-18)
(-0.00810593 -0.00202178 -8.8708e-20)
(0.00145078 0.00243791 3.64418e-18)
(-0.000130731 3.49664e-05 -4.92264e-19)
(1.28073e-05 -4.02692e-05 8.36929e-20)
(-0.00326389 0.00866853 2.51435e-19)
(0.000602962 6.87275e-05 8.49879e-21)
(-0.00886748 0.0118071 -2.08726e-19)
(0.000905251 0.000871211 2.55664e-19)
(0.00480194 0.0180983 -4.96947e-20)
(0.00582704 0.00767086 2.73485e-19)
(0.000632234 5.89723e-05 5.90197e-21)
(0.0104353 0.046944 9.46327e-19)
(-0.0796674 0.0833495 -7.71856e-18)
(-0.010089 -0.01221 9.55611e-19)
(0.00201693 0.00310161 -2.54193e-19)
(-0.00282292 0.000223793 2.11618e-19)
(-0.00185848 -0.00694302 1.05953e-20)
(0.000614621 7.0316e-05 -3.44116e-21)
(0.010829 -0.0133018 -7.80044e-20)
(0.00507143 0.0156119 1.64645e-19)
(0.000113724 0.000256652 2.66752e-18)
(0.0548099 -0.0549739 1.51194e-17)
(0.00201573 0.000863974 6.06891e-18)
(0.00148195 -0.00443294 4.32554e-19)
(-0.000338231 -0.000264332 -3.26065e-21)
(0.000383181 0.000619447 8.64574e-19)
(0.00110748 -0.00415462 -3.80293e-19)
(-0.0103018 -0.00952093 -3.75116e-20)
(-0.000110582 4.2124e-05 4.69133e-19)
(4.58917e-05 5.25627e-05 8.2583e-19)
(2.70425e-05 3.07598e-05 1.99822e-20)
(0.0359797 -0.00764783 6.72821e-19)
(0.0532485 -0.0116657 -2.26517e-20)
(0.000995311 -0.000444982 1.89224e-19)
(0.00203497 -0.00178115 2.94713e-19)
(0.0487135 -0.00825968 -2.31925e-19)
(0.0596884 0.00492922 -9.92899e-18)
(0.00109333 0.0010378 3.50611e-19)
(0.000111931 0.00021661 -1.82012e-21)
(4.55919e-05 0.00075894 -1.21826e-19)
(0.00199562 0.000997396 -4.4852e-18)
(3.52196e-05 6.49462e-06 -1.15068e-19)
(0.00482607 0.00898395 4.69438e-19)
(7.54128e-05 -2.66245e-05 6.73686e-21)
(-0.00021153 0.00012541 -1.06613e-21)
(-0.0696066 0.0577317 3.00377e-20)
(0.0141752 0.027239 -3.34536e-18)
(0.00488869 0.00138484 1.21858e-17)
(0.00759255 -0.00540016 -2.32129e-19)
(0.0152708 -0.00211911 1.38084e-19)
(0.00317817 -0.0193569 -4.51281e-20)
(0.0148283 0.0369678 -4.56524e-20)
(7.95506e-05 -3.07884e-05 -9.13584e-20)
(4.34682e-05 5.52074e-05 2.0762e-19)
(0.00313522 -0.00199631 5.61822e-19)
(0.000652476 -0.000262623 4.03217e-20)
(0.00208134 0.00232576 -6.09396e-19)
(0.00166121 0.00244225 -3.18498e-18)
(4.84191e-05 5.22837e-05 -8.31345e-20)
(-7.13672e-06 -0.000116141 7.42242e-19)
(0.00473259 0.0116384 -5.41529e-20)
(9.30585e-05 -6.64216e-05 4.2804e-20)
(-0.032136 0.0354803 -4.92036e-18)
(0.0860221 0.0324836 4.4623e-18)
(0.00557538 0.00918116 -6.69505e-19)
(5.85095e-05 -0.000185008 6.14953e-19)
(-0.00317934 -0.0080953 -9.92577e-20)
(0.000645349 -0.000271776 -3.71454e-20)
(-0.00915321 0.0141751 3.55388e-20)
(-5.9298e-05 5.40651e-05 -4.92739e-19)
(-0.00933419 -0.00317271 -3.42856e-19)
(4.78359e-05 -6.18337e-06 1.01402e-18)
(-0.00840992 -0.00311281 2.47362e-19)
(-0.000267935 3.68479e-05 -2.08056e-21)
(0.000832475 -0.000653782 -3.03878e-20)
(0.0120285 0.00855386 -8.8602e-19)
(-0.00143987 -0.000222603 6.75609e-19)
(-0.000552087 0.0114154 -2.62934e-19)
(0.000396906 -0.0190057 2.93835e-20)
(3.68458e-05 1.78604e-06 2.05459e-20)
(0.000732109 0.000103887 -1.82286e-20)
(-0.0305704 0.0322522 -3.34977e-18)
(1.6273e-05 -0.00013362 -1.07956e-18)
(0.00734241 -0.0228717 -6.19476e-22)
(0.0022176 0.00390397 3.05021e-18)
(-0.0610812 0.371927 -2.85762e-18)
(-0.00603594 0.016143 -4.009e-19)
(0.0155244 0.0280979 7.32232e-19)
(0.00339856 0.00149398 5.8426e-19)
(0.00518197 0.0130012 2.299e-19)
(-0.000137379 -0.000463288 1.11766e-19)
(0.00149913 0.000746266 -6.85425e-19)
(0.00462153 0.0014033 -1.77432e-18)
(0.0118642 0.00937443 1.07549e-18)
(0.000314631 -0.00349899 -1.6945e-19)
(0.08863 0.0342806 5.28586e-18)
(-2.99771e-05 8.81777e-05 1.52725e-20)
(-0.00335757 -0.00322766 1.58197e-19)
(-0.0183835 0.0596812 7.92097e-19)
(-0.0033583 -0.00879112 -3.13626e-20)
(-1.92366e-05 8.79503e-05 3.67723e-20)
(2.39296e-05 -2.70086e-05 5.30475e-21)
(4.87792e-05 7.29155e-05 5.43011e-20)
(0.0137714 -0.00130948 7.91868e-19)
(0.089869 0.0307341 -1.90424e-18)
(0.0984304 0.0672584 1.01011e-18)
(0.0013027 -0.00367611 2.89256e-19)
(0.00626822 0.0103215 8.80127e-20)
(-0.000253062 0.00292937 4.86201e-18)
(0.0356152 -0.0105886 4.94859e-20)
(0.000120113 9.79038e-05 -1.38481e-21)
(-9.11214e-05 5.12319e-05 5.18359e-19)
(-0.000464192 0.00292608 4.29974e-18)
(3.02375e-05 5.63702e-05 -1.69929e-18)
(-0.0112339 -0.0110502 2.74662e-19)
(4.10064e-05 2.88811e-05 -1.62038e-22)
(0.0473289 0.0128953 1.34182e-20)
(0.000519813 -0.000455104 -6.11084e-20)
(0.000760411 -0.0912266 -1.01473e-18)
(5.56521e-05 8.42624e-06 -7.84709e-19)
(0.000668201 -0.000389634 -2.63237e-19)
(0.00355839 0.00246821 -6.10299e-19)
(0.045391 -0.01898 1.44935e-17)
(-0.00521586 0.145727 9.27022e-18)
(-0.0110659 -0.00839671 -5.72092e-19)
(0.00156168 -0.00300567 -1.87126e-19)
(-4.78402e-05 -0.000539845 -2.5652e-19)
(7.98447e-05 -3.46461e-05 -1.60213e-19)
(3.40933e-05 5.86402e-05 1.45954e-18)
(-0.000431961 0.00425354 7.87675e-19)
(0.00264404 -0.0103688 -1.29228e-19)
(8.21829e-05 -2.28113e-05 -1.41216e-19)
(6.18157e-05 -1.63374e-05 2.14973e-19)
(-0.000146348 0.000150416 -6.27994e-22)
(-0.000160874 -0.000375246 5.32724e-19)
(8.45416e-05 -3.69486e-05 -2.14128e-20)
(0.0584897 -0.00669924 -1.38826e-19)
(-7.147e-05 0.00360682 -5.03073e-19)
(3.45682e-05 5.01533e-05 4.96672e-20)
(0.00209676 0.00218554 2.97088e-19)
(-0.0099681 -0.0041411 1.52745e-19)
(1.77411e-05 5.29986e-06 9.75393e-19)
(-0.00951343 -0.00499554 5.64302e-19)
(0.000684347 0.000297131 6.24855e-21)
(6.97636e-05 -1.41216e-05 2.19233e-19)
(-0.000287691 -0.0001524 -1.48698e-18)
(0.00904793 -0.0919474 7.40613e-18)
(-0.00197945 -0.000396166 -4.68201e-20)
(0.000675251 0.00032466 -9.65887e-21)
(4.0285e-05 -6.17587e-05 5.15777e-20)
(0.00124697 0.0105826 2.23719e-19)
(4.92287e-05 7.79121e-05 -7.09326e-21)
(0.000206532 -1.2875e-05 -6.43147e-20)
(0.0398162 -0.00567502 4.45991e-19)
(-0.00205533 0.000215844 -1.01033e-20)
(0.00309889 0.0145048 -9.83687e-19)
(3.83277e-05 5.79741e-05 -9.22131e-20)
(0.000111461 0.000294577 -2.13556e-18)
(0.0382139 -0.0224563 9.72706e-18)
(-0.0067608 -0.00116476 -5.05594e-20)
(0.000244724 0.000986665 6.95846e-20)
(0.00159836 0.000699955 -6.72891e-19)
(0.000688772 -0.000535449 -4.94086e-20)
(0.00169397 0.0090515 -3.88297e-19)
(-0.0100207 -0.013336 -3.44165e-19)
(-0.000208161 -0.000110809 1.10513e-18)
(7.20523e-05 -1.30395e-05 -7.42052e-20)
(0.00454951 -0.000292559 1.73417e-19)
(6.07245e-05 6.59347e-07 -2.24726e-21)
(0.00311186 -0.00102507 1.00875e-18)
(4.72099e-05 -1.47056e-05 -5.23835e-19)
(0.0195738 -0.0382084 5.73803e-19)
(0.000698846 -0.00433267 -2.71207e-20)
(-0.00180082 0.000689155 1.65753e-20)
(0.000388087 -5.12582e-06 1.02793e-20)
(4.51028e-05 6.2985e-05 -3.38405e-20)
(0.00171347 0.00225735 -9.16281e-19)
(0.0042451 -0.00176612 -1.95991e-20)
(0.0234133 0.00446325 -1.43725e-18)
(0.0970935 -0.0119865 -9.95207e-19)
(-0.00307187 -0.000816484 5.18893e-20)
(0.00559044 0.00521057 -1.29586e-19)
(0.0584807 0.00762071 -2.01054e-18)
(0.000273003 -0.0118328 3.03304e-19)
(5.34087e-05 6.14497e-06 3.46356e-19)
(1.04733e-05 2.38385e-05 6.22914e-21)
(0.0105723 0.007656 -8.53362e-18)
(5.88449e-05 -1.57426e-05 2.13792e-18)
(0.00320171 0.0158677 1.37066e-18)
(0.00297593 0.000371707 -1.4059e-19)
(0.00791487 0.00282301 1.08255e-19)
(0.0368255 -0.0131889 -5.54345e-20)
(0.00741906 0.0230944 -1.29611e-18)
(-0.022785 0.134202 -3.13965e-18)
(0.00843479 0.0338753 -3.07842e-19)
(0.000255536 6.68362e-06 -5.5985e-22)
(0.100632 0.115241 -4.20602e-19)
(-0.000359224 -0.000101437 -1.92299e-18)
(4.50676e-05 4.56942e-05 7.3692e-20)
(-0.245567 -0.148591 -1.98243e-19)
(5.83107e-05 1.59947e-06 1.90618e-19)
(0.000887446 0.00765988 1.20318e-18)
(-3.84665e-05 0.000234525 1.59923e-21)
(-0.0311492 -0.0358279 1.25507e-18)
(5.47074e-05 9.88709e-06 1.44254e-19)
(0.0246206 0.0162119 2.63402e-19)
(-0.00775457 -0.092063 3.02466e-18)
(0.0139227 0.0235942 -1.27778e-18)
(0.000123459 -4.84297e-05 8.68341e-20)
(-0.00042368 -0.000506455 -9.49071e-21)
(0.0152798 0.0246248 3.72043e-18)
(-0.00155447 -0.00048305 -4.42068e-19)
(0.00139506 0.00132068 -2.39699e-19)
(0.00585048 -0.0046261 -1.56655e-19)
(-0.0524282 0.048865 -1.83486e-19)
(4.36311e-05 3.78334e-05 -1.50093e-19)
(0.0113342 0.0077998 2.89713e-18)
(0.0235932 0.005659 -7.86868e-18)
(-0.000372153 -0.000488559 2.18277e-20)
(0.000813575 -0.000799616 1.07929e-19)
(-0.0100335 -0.00709684 5.0698e-19)
(0.0631446 0.0452646 1.14217e-18)
(1.29576e-05 0.0148813 -1.8084e-19)
(-0.000107724 -0.000418074 -3.69203e-19)
(-0.0002334 -0.000438289 6.75828e-20)
(0.00837581 0.00559839 -1.17538e-18)
(5.90641e-05 5.15881e-06 -2.19595e-20)
(0.000835901 -2.17714e-05 3.02089e-19)
(0.00185525 0.00183148 5.87486e-21)
(0.00824031 0.0201308 9.24246e-19)
(0.100935 -0.0135304 5.42472e-18)
(0.000692742 -0.000490509 1.05125e-19)
(-1.01687e-05 -4.2309e-06 2.65489e-21)
(4.29411e-05 1.63771e-05 2.49047e-20)
(0.0479774 -0.0200974 1.38873e-17)
(-0.00810239 -0.0139411 6.86227e-20)
(0.000675148 0.000127802 -2.3429e-20)
(-0.000110898 0.00726085 -6.23342e-19)
(-0.00838072 0.0128659 1.32545e-19)
(2.19373e-05 -2.47177e-06 -3.89669e-18)
(0.0907842 -0.0289632 2.32279e-17)
(0.0321082 -0.00136466 -5.25769e-18)
(-0.000361657 -8.9192e-06 -7.36157e-19)
(6.32767e-05 3.92798e-06 -1.42299e-20)
(-0.000204599 0.0138768 -3.41822e-18)
(0.0471883 -0.025085 8.55607e-18)
(-0.11246 0.106432 -2.23015e-18)
(0.000753931 -0.000403155 -7.4658e-20)
(0.0845925 0.15136 -1.12253e-18)
(4.65333e-05 -1.35189e-05 -1.39839e-19)
(0.000759129 -0.000461589 1.29731e-19)
(-0.00805722 0.017961 9.11177e-20)
(-0.00177359 -0.000231643 1.13073e-18)
(0.0189904 -0.0428429 -4.9097e-19)
(-0.0101174 -0.0174594 4.67398e-19)
(-0.00196241 0.000740526 -1.25367e-18)
(0.00618824 0.00263832 8.66255e-19)
(-0.000465825 2.86213e-05 -6.48075e-19)
(0.0574285 -0.00366428 8.87889e-18)
(-0.00167798 -0.000779121 1.23054e-18)
(0.00419728 0.00111501 5.10692e-19)
(-0.000274909 -0.00035083 1.37208e-18)
(0.000773155 -0.00029445 8.38549e-20)
(-6.42643e-05 0.000127933 -3.16053e-18)
(0.000791994 -0.000346684 -1.47929e-19)
(0.0321026 0.00208484 -2.53098e-18)
(0.130216 0.0119531 -4.49122e-18)
(-0.0275104 -0.0388915 -5.67054e-19)
(0.00514189 0.000456952 -3.69996e-19)
(0.000503789 -0.000147049 1.78233e-19)
(-0.000223809 -0.000400113 3.09486e-19)
(-0.000939046 -0.00427401 1.40718e-19)
(0.0035722 0.00109225 -1.59675e-19)
(0.00199769 -0.00122853 -1.45525e-19)
(0.000533761 0.000383585 8.6644e-21)
(5.48794e-05 -4.75495e-05 -1.75322e-18)
(-0.0083642 0.0152634 -5.74166e-20)
(-0.000360907 -0.00032635 -1.77585e-20)
(0.0021255 -0.00106918 3.98152e-19)
(0.11742 0.202497 -3.23038e-19)
(0.0740023 0.124693 1.14326e-17)
(-0.0144051 0.061871 2.17337e-18)
(-0.000165887 1.63033e-05 -5.81745e-19)
(-5.507e-05 -6.75397e-06 -3.24032e-20)
(-0.0105363 -0.00611691 -1.18972e-20)
(-0.000412347 -3.57712e-05 -5.53311e-19)
(-0.000222919 0.000141436 -1.1597e-22)
(0.0754199 0.0394763 -1.88287e-18)
(-0.00268084 -0.00311611 2.04506e-19)
(-0.00378251 -0.00154472 -4.1164e-19)
(0.00359964 0.00564776 5.9578e-19)
(-0.000629128 0.000448959 1.9948e-19)
(-0.00113725 0.00180597 -2.94414e-18)
(-0.12397 -0.125525 -9.25511e-18)
(-0.0107205 0.00523469 -5.13265e-20)
(-0.00104351 -0.000478305 -3.44754e-20)
(-0.0264608 0.00602878 2.02098e-19)
(4.91942e-05 -5.63383e-06 3.09961e-20)
(0.0155383 0.136672 2.04285e-19)
(0.108663 0.122795 -9.5883e-19)
(0.00231567 0.000921901 4.11236e-18)
(0.000798118 -0.000720794 3.6335e-20)
(-0.12432 -0.128966 3.25002e-18)
(5.14938e-05 5.71316e-05 8.44374e-22)
(0.0229182 0.0157612 9.35786e-19)
(-0.0098076 -0.0282908 -7.08046e-19)
(0.00974036 0.00223392 -4.13622e-20)
(-0.0016077 -0.000974638 3.62132e-19)
(-4.55013e-05 0.000106349 2.71891e-19)
(2.1797e-05 1.31324e-05 -1.7127e-18)
(-0.0683678 0.196421 9.39068e-19)
(-0.0979628 0.0247682 -2.47606e-18)
(0.00727216 0.00191375 -8.76538e-22)
(0.00626782 -0.167402 3.60711e-18)
(0.00274279 0.00196468 -7.48188e-19)
(2.25592e-05 1.75016e-05 2.16415e-18)
(-0.00382336 -3.15803e-05 -3.5522e-19)
(4.8992e-05 5.05895e-05 2.33907e-19)
(-0.00353957 -0.00130265 -1.50343e-19)
(-0.240829 -0.125815 2.79028e-19)
(0.0647056 0.0691898 -2.86293e-18)
(0.113382 0.00956371 1.39345e-17)
(0.0801599 0.0140596 -3.22546e-19)
(-0.00572652 -0.00766004 -5.68391e-19)
(-0.0111025 -0.0230994 -1.06296e-18)
(0.00304303 -0.0150395 -5.22495e-19)
(1.87983e-05 3.1174e-05 -1.74611e-21)
(6.97961e-05 -9.69999e-05 3.44521e-19)
(-0.00621287 -0.00917878 -4.37018e-19)
(-0.00265618 0.00419891 -2.97332e-19)
(-6.99659e-05 5.72508e-05 -1.86444e-18)
(4.85515e-05 4.80916e-05 -2.6174e-19)
(-0.0103697 -0.108136 1.52058e-18)
(6.80336e-05 -8.1538e-06 -6.03083e-20)
(0.0794462 0.0184594 2.43666e-19)
(-0.00506522 -0.0030985 -1.08676e-18)
(0.0300152 0.00969016 -4.41541e-18)
(0.0399421 -0.0238452 -2.14237e-17)
(7.047e-05 -9.80526e-05 4.55236e-20)
(-0.00348944 -0.000916081 1.14243e-18)
(0.0545371 0.0820204 1.23774e-18)
(5.79959e-05 -3.94701e-05 1.27212e-18)
(0.0951384 0.0126325 2.99631e-18)
(8.17207e-05 -1.20502e-05 -6.80887e-20)
(-0.0506892 -0.124315 5.34858e-19)
(-0.0110691 0.00444686 1.03053e-20)
(5.03542e-05 -2.75035e-06 -9.55495e-21)
(0.00436344 -0.0145212 -8.19638e-19)
(0.0160954 0.0348431 3.06391e-19)
(0.00686673 0.0360832 -1.25009e-20)
(-0.00010434 -2.718e-05 2.88222e-21)
(0.000775903 -4.06663e-05 -1.32687e-19)
(0.00735543 0.00560905 8.97464e-19)
(0.00249115 0.000897718 5.4802e-18)
(0.0305012 0.0114495 -6.51539e-19)
(5.21207e-05 -3.66595e-05 4.53164e-19)
(0.031131 -0.0044212 -1.19978e-17)
(7.07328e-05 -1.47942e-05 1.14509e-19)
(0.0713779 0.0413686 4.06375e-18)
(9.86501e-06 1.65145e-05 -7.26978e-21)
(-0.000108535 7.20187e-05 -5.6179e-20)
(0.072573 0.00706343 7.35947e-18)
(0.0115544 -0.000109249 1.66669e-19)
(0.00267989 0.0141035 -8.07902e-19)
(0.000283268 4.11843e-06 2.42282e-20)
(-0.00400412 -0.00228703 -1.44519e-19)
(-0.00455679 0.00980096 -2.9564e-19)
(0.0440709 0.00681668 -1.08937e-18)
(0.102105 0.0648694 7.58013e-18)
(0.000126265 0.00239578 5.84765e-19)
(0.00074352 0.00101507 3.37523e-21)
(0.000230148 3.92077e-05 9.44574e-21)
(-0.00395221 -0.00740276 4.49017e-19)
(-0.000173193 -0.000221251 1.42959e-18)
(0.000105385 0.00221233 1.13323e-19)
(-0.068864 -0.145888 8.7541e-18)
(-0.000444538 0.000268566 -7.61521e-21)
(-0.00275787 -0.00171073 -3.4612e-20)
(0.00017402 -0.000200754 7.11528e-19)
(0.0003075 2.20596e-05 1.20741e-20)
(-0.00133538 0.00235785 -1.06643e-18)
(-0.00022097 0.000138526 2.81689e-22)
(-0.00806165 -0.0016292 -8.43448e-20)
(-0.0515738 0.0168545 2.05828e-18)
(0.000125762 0.00743205 -2.60115e-19)
(0.00841451 0.00144902 -4.93256e-19)
(-0.0453563 -0.0316331 1.68174e-18)
(0.000131044 6.23356e-05 2.62203e-21)
(2.99138e-05 4.92454e-05 2.28569e-22)
(0.109826 0.0965323 -1.04478e-17)
(-0.0127276 0.0106099 7.33077e-20)
(0.150069 0.165601 5.33263e-19)
(-0.0142406 -0.0164895 -1.08012e-18)
(0.000538389 -0.000305156 1.51291e-19)
(5.25455e-05 3.93107e-05 1.21022e-19)
(0.000736516 -0.000445151 2.34126e-19)
(0.00575264 0.0013986 -1.03516e-19)
(7.2226e-05 -0.000705471 -4.11625e-19)
(7.32914e-07 0.000203848 1.4477e-21)
(-0.0847441 0.0334128 4.1923e-18)
(0.0642464 0.0452273 1.34754e-18)
(-9.12029e-05 8.39408e-05 2.39901e-19)
(0.0665283 0.038165 9.44737e-20)
(0.0669606 0.0417746 7.28543e-19)
(0.00285518 -0.0041963 1.86162e-19)
(0.0781447 0.0116178 -8.08638e-19)
(0.000866889 -4.18524e-05 -2.79854e-19)
(-0.0587227 0.0974894 3.03838e-19)
(0.00649725 0.0044744 -2.41798e-22)
(9.52659e-05 -6.05973e-06 -3.89563e-21)
(-0.0613461 -0.0126026 3.45579e-18)
(0.00985502 0.00638724 -1.84402e-18)
(0.106078 -0.0258394 8.6631e-18)
(0.0408845 0.00398039 -7.54929e-19)
(0.0012981 0.00223367 1.51128e-19)
(0.000852737 -0.000383077 -3.69177e-19)
(0.000243232 3.6937e-05 -3.44222e-20)
(0.00914869 -0.000921642 -1.53162e-19)
(0.0135226 -0.000532028 3.64356e-18)
(0.000124925 -5.4573e-06 -6.37503e-20)
(0.000212735 0.000183643 1.40539e-18)
(-0.077284 0.0382058 -1.02338e-17)
(-0.000309876 -6.5039e-05 2.10315e-18)
(0.0105282 0.00657805 8.71217e-18)
(0.000870372 -0.000680721 1.08282e-19)
(0.00893607 0.00529868 3.12682e-18)
(0.123674 0.0831552 -4.55316e-18)
(-0.0839798 0.160078 -1.0877e-19)
(-0.044399 -0.0159983 3.35869e-20)
(-0.0784062 0.15538 -9.59089e-19)
(-0.0153636 0.010535 6.85953e-19)
(0.093128 0.120059 2.12833e-18)
(-0.00386064 -0.00113923 -3.47421e-19)
(5.32559e-05 -4.58752e-05 2.59124e-20)
(-0.00441066 -0.00481724 1.41543e-20)
(0.0403316 0.00189683 -1.16579e-19)
(0.0110432 -0.00629516 -2.46889e-19)
(0.0116665 -0.00229032 2.37524e-18)
(0.000134651 -4.14425e-05 7.7255e-20)
(-0.0706519 0.0832929 8.44571e-18)
(4.42914e-05 7.01567e-06 -1.99223e-19)
(0.00050499 -0.000393605 1.8053e-19)
(0.0687597 0.108418 1.22742e-18)
(0.000185653 -1.41777e-05 6.85658e-20)
(-0.00524627 -0.0048333 -2.51474e-20)
(0.00301262 0.0120419 2.70796e-19)
(-0.0469405 0.0151535 5.25013e-19)
(5.16984e-05 -8.6598e-05 -7.06712e-19)
(5.70902e-05 1.92744e-05 2.67989e-19)
(-0.00167648 0.00211347 -1.69258e-18)
(-0.00438813 -0.0026652 -1.248e-19)
(0.000601434 0.000162953 -1.27398e-19)
(0.00120274 0.000266376 3.13495e-19)
(0.0073274 -0.0153756 1.5261e-19)
(-0.00861517 0.0721114 2.01422e-18)
(-0.00165594 0.000830767 2.48344e-18)
(1.60171e-05 2.80667e-06 3.08375e-21)
(-0.0134678 0.0150666 5.98716e-19)
(-0.0229002 -0.0688607 -4.96374e-18)
(6.98577e-05 6.32492e-06 6.12828e-20)
(-0.0890249 0.126197 7.00291e-19)
(0.0877575 -0.0322798 2.08849e-17)
(2.84139e-05 1.78649e-07 4.11067e-18)
(-0.0249107 0.263384 3.2096e-18)
(0.000661914 0.000213232 -4.52375e-21)
(0.071741 0.0326995 2.45019e-18)
(5.09996e-05 3.1059e-05 -3.6953e-19)
(-6.70871e-05 0.000250003 -3.47254e-21)
(0.071498 0.00350401 -5.42576e-18)
(-0.0016688 -0.0013641 3.40079e-19)
(0.0658689 0.0503424 5.59385e-18)
(-0.00150217 0.000777974 -1.15344e-18)
(5.58548e-05 1.43962e-05 -4.76903e-19)
(-0.0400637 0.281585 1.35387e-19)
(5.87592e-05 3.2038e-05 7.02596e-19)
(0.000652443 -0.000284723 7.7284e-20)
(2.55968e-05 5.79025e-06 2.3e-19)
(5.03961e-05 -5.69555e-05 -6.35206e-20)
(-0.00562845 -0.00549862 -1.14312e-19)
(-0.0102955 0.0115443 1.0923e-19)
(-0.0415952 0.136862 8.63417e-19)
(-1.88332e-06 4.00052e-05 3.63149e-20)
(0.0870678 0.00377683 -4.56367e-18)
(0.00251107 0.000178319 -3.26123e-19)
(-0.0969258 0.0756153 -4.85212e-19)
(0.0876399 0.0327399 7.92062e-19)
(0.000709181 -0.000888218 -3.87932e-20)
(3.57341e-05 5.67232e-05 7.9165e-20)
(-0.00415331 -0.00183478 5.73113e-19)
(0.000562153 0.000490932 1.00707e-20)
(0.0421209 -2.4743e-05 -6.59583e-18)
(4.84468e-05 -5.89857e-05 -7.11003e-20)
(0.000570781 -0.000202193 -2.60474e-20)
(0.00076042 -0.000170272 -9.45243e-20)
(0.000115665 -6.13025e-06 1.78204e-20)
(5.86345e-05 -3.12815e-05 -7.97926e-19)
(0.0833723 0.0166345 -3.34211e-18)
(0.00572077 2.33911e-05 5.76262e-19)
(0.0126655 0.0101249 -2.06225e-18)
(-0.00273118 0.000333581 -3.02266e-19)
(-0.00376723 -0.00253658 -4.71166e-19)
(0.00422038 -0.00128868 2.50866e-19)
(0.00939838 0.00528592 1.80303e-19)
(-0.0805599 0.0318052 -5.41807e-21)
(-0.000373954 -2.36377e-05 -4.3282e-20)
(0.0310844 0.000495361 -6.26298e-18)
(-0.0164004 0.0164202 -1.49323e-18)
(0.000650774 8.26932e-05 -5.64235e-20)
(0.0659897 0.0532811 1.94528e-18)
(0.121001 0.0858933 -4.29418e-18)
(0.000410917 -9.23784e-06 -1.85914e-19)
(-0.0888992 -0.0321446 -9.72253e-19)
(0.000179272 1.04703e-05 -1.28486e-20)
(-0.00385806 -0.0058871 8.17189e-20)
(0.008299 0.00183092 -1.33014e-18)
(9.89088e-05 -1.23236e-05 3.15274e-21)
(0.00783789 0.00528892 -4.6508e-19)
(-0.00412321 -0.00419909 -2.98403e-20)
(-0.100295 0.0433624 2.50675e-19)
(0.000393828 -2.11832e-05 1.60825e-19)
(0.00181816 0.000692069 3.01978e-18)
(-0.050718 -0.00639854 3.95698e-18)
(-0.062905 -0.00943911 -9.52317e-19)
(0.0299307 -0.00859304 2.82433e-19)
(6.07821e-05 -2.32453e-05 9.73121e-19)
(0.00569984 -0.00329802 7.46682e-20)
(0.0240902 -0.00780194 -2.39598e-17)
(-0.0777204 0.0906526 1.23925e-18)
(5.33901e-05 -3.75837e-05 3.60032e-20)
(-5.53035e-06 0.00110054 -4.13943e-18)
(0.000996419 0.00219689 -4.0582e-20)
(5.95652e-05 -9.22226e-05 9.16253e-19)
(-3.65853e-06 0.000110536 6.54054e-20)
(6.93655e-05 3.56977e-05 -5.84637e-21)
(-0.000298418 2.60372e-05 8.46363e-21)
(-0.093862 -0.0106362 6.31982e-20)
(-0.000438297 0.0058512 -6.74406e-19)
(2.18716e-05 -1.56648e-05 -5.12452e-20)
(0.000522995 -7.73008e-05 -3.80934e-20)
(0.000354441 -1.45884e-05 3.47597e-20)
(5.99343e-06 -0.000418673 -3.13971e-19)
(-0.0575319 -0.0099821 -1.84156e-18)
(0.0238833 -0.0065906 2.03146e-17)
(0.000859889 -0.000626849 -3.10768e-19)
(-0.00415908 -0.00315825 6.58163e-20)
(0.000380181 -0.00015359 -1.78781e-20)
(0.000441835 -0.000127391 -7.47243e-20)
(0.00251146 0.00312955 1.85182e-19)
(3.58039e-05 -6.41823e-05 -3.04229e-20)
(0.0156769 0.000486707 -5.68712e-19)
(0.000480579 3.21448e-05 5.41115e-20)
(6.00669e-05 -1.63245e-05 2.0502e-19)
(-0.000217405 8.52821e-05 -1.50617e-20)
(-0.000143958 7.52647e-06 -1.06861e-18)
(-0.00133051 0.00298729 4.29709e-19)
(0.000962926 6.2079e-06 -6.67955e-21)
(0.0797644 -0.0314032 -1.62643e-17)
(-0.116129 -0.152121 -2.74248e-19)
(-0.000116548 0.00255404 -1.04819e-18)
(6.32206e-05 -4.03765e-06 4.22105e-20)
(0.0445176 -0.0250695 -7.6953e-18)
(0.000547119 -0.000197516 2.45236e-20)
(0.000483762 -2.85846e-05 2.1106e-20)
(0.000928627 -1.80968e-05 3.18968e-20)
(0.0278246 -0.00514596 -2.81829e-19)
(0.00497609 -0.000731137 -9.02835e-19)