/*--------------------------------*- C++ -*----------------------------------*\
| =========                 |                                                 |
| \\      /  F ield         | OpenFOAM: The Open Source CFD Toolbox           |
|  \\    /   O peration     | Version:  v2012                                 |
|   \\  /    A nd           | Website:  www.openfoam.com                      |
|    \\/     M anipulation  |                                                 |
\*---------------------------------------------------------------------------*/
FoamFile
{
    version     2.0;
    format      ascii;
    class       volScalarField;
    location    "50";
    object      k;
}
// * * * * * * * * * * * * * * * * * * * * * * * * * * * * * * * * * * * * * //

dimensions      [0 2 -2 0 0 0 0];


internalField   nonuniform List<scalar> 
18355
(
0.00432196
0.000141245
0.000236249
0.000140847
0.000171264
0.00158377
0.000149133
0.000170709
0.000151347
0.00119345
0.00015913
0.000202363
0.000203791
0.00554271
0.000142582
0.000138383
0.000140832
0.000157102
0.000230203
0.000150735
0.0358878
0.000148899
0.000139106
0.0011881
0.000138958
0.000149024
0.000148828
0.000140953
0.00015233
0.00016061
0.0045885
0.000174018
0.000140936
0.000138687
0.000142727
0.000148641
0.000159149
0.000148797
0.000161315
0.000149241
0.000151318
0.000159985
0.000138514
0.000140931
0.000141248
0.000230024
0.0001411
0.000140986
0.00340257
0.000144332
0.000145674
0.0118342
0.000144581
0.000228824
0.000143072
0.000150745
0.00014364
0.00106846
0.000149229
0.00752155
0.000138641
0.000194524
0.000225996
0.000150902
0.000181729
0.000143211
0.000153485
0.000159208
0.000138889
0.000106215
0.000142373
0.000143106
0.000168395
0.000159689
0.00355992
0.000138871
0.00122219
0.000138841
0.000142112
0.00265469
0.000153421
0.00159858
0.000138878
0.000154966
0.000176847
0.000154874
0.000153245
0.000169913
0.000140465
0.000169941
0.00052027
0.00579954
0.00117682
0.00014431
0.00474685
0.000150801
0.000140015
0.000149646
0.000193967
0.000148627
0.000174883
0.000141678
0.000144103
0.000137991
0.000153783
0.000138586
0.000181224
0.0041546
0.000164594
0.000138071
0.000142289
0.000148166
0.000164784
0.000154569
0.000244285
0.000158633
0.000141427
0.00386513
0.00015193
0.000153171
0.000316606
0.000236145
0.000413068
0.000174884
0.0034905
0.000238817
0.000149296
0.000141176
0.00737368
0.000147521
0.000140093
0.01256
0.000143523
0.000194933
0.000210207
0.0001405
0.000232386
0.00204116
0.000142362
0.0189498
0.000155999
0.000217112
0.000140899
0.00132149
0.000210203
0.000146582
0.00547038
0.000138255
0.000164676
0.000137843
0.000140877
0.000153
0.000151914
0.000184675
0.000138447
0.000139812
0.000141343
0.000154735
0.000140977
0.000140882
0.000157724
0.000143647
0.000138051
0.000198775
0.000160265
0.000209813
0.00857449
0.0343918
0.0300752
0.000155969
0.000146457
0.000192504
0.000152722
0.00221413
0.000143268
0.000150688
0.000147743
0.000137737
0.000151082
0.000159069
0.000154207
0.000199653
0.000148321
0.000141216
0.000243424
0.000144082
0.000152407
0.000168683
0.000143292
0.000149239
0.000232327
0.000193737
0.000141846
0.000138882
0.000143821
0.000249359
0.000143078
0.0381681
0.000141466
0.00388261
0.000143858
0.000154774
0.000162074
0.000153171
0.0288354
0.000146759
0.0306223
0.000141181
0.000140253
0.000151392
0.00014698
0.000245621
0.000158354
0.000156115
0.000138018
0.00160475
0.000159063
0.000156134
0.00014697
0.000141254
0.000163435
0.000138857
0.000168201
0.000147909
0.000212954
0.000181379
0.000138859
0.00221454
0.000325126
0.000164374
0.000150642
0.000153816
0.000176856
0.000138857
0.000201391
0.000209001
0.000148935
0.000234574
0.00015529
0.000156442
0.000141488
0.000150837
0.000153951
0.00016287
0.00014677
0.000143073
0.000140898
0.000239378
0.000334519
0.000143279
0.00015215
0.000297091
0.000217263
0.000148666
0.000137709
0.000150995
0.000155278
0.000147496
0.0001834
0.000139618
0.000137819
0.00613384
0.00019029
0.000161786
0.000162893
0.000187814
0.000204066
0.000197601
0.000139566
0.000143113
0.000149667
0.000138234
0.000154824
0.000156411
0.000140616
0.000146927
0.000171044
0.000140351
0.000196549
0.00557062
0.000167517
0.000147213
0.00015978
0.000138223
0.000170782
0.00014613
0.000159899
0.000148703
0.000159352
0.000138039
0.00014063
0.000175581
0.000151565
0.000193342
0.000204198
0.000144821
0.000138873
0.000193375
0.000146937
0.000221761
0.000159241
0.00748043
0.00017191
0.00019104
0.000155881
0.000173248
0.000143974
0.000153819
0.000161213
0.000175586
0.00015411
0.000260653
0.000142104
0.000154113
0.000217552
0.000160535
0.000142036
0.000140929
0.000140901
0.000177247
0.00025806
0.000330821
0.000153756
0.000169995
0.000155544
0.000308697
0.00013842
0.000146539
0.000155472
0.000144105
0.000164374
0.000141916
0.000665571
0.000138913
0.00349546
0.000143514
0.000148981
0.000156933
0.000208786
0.0411315
0.000162936
0.000152553
0.00014915
0.000140582
0.000143994
0.000158363
0.00179849
0.000140813
0.00014528
0.000137974
0.000148771
0.00014093
0.000215735
0.000156393
0.0001409
0.000148022
0.000160704
0.000151975
0.000160508
0.000139174
0.000145207
0.000148442
0.00270912
0.000146339
0.000139092
0.000140705
0.000184786
0.000140964
0.000152053
0.000314509
0.000145892
0.000174805
0.000143843
0.000149137
0.000204733
0.00016789
0.000151164
0.000153964
0.000139738
0.000177363
0.000197097
0.000147995
0.000144074
0.000157158
0.000145995
0.000153643
0.000143769
0.000192607
0.000154145
0.000152594
0.000145287
0.000140953
0.000154231
0.000152554
0.000187194
0.00131973
0.000151171
0.000168078
0.000217452
0.000187051
0.000143731
0.000141889
0.000173459
0.000143304
0.0001762
0.000148215
0.000163551
0.000345895
0.000252311
0.0410996
0.000192744
0.00013806
0.000620098
0.000148611
0.000140552
0.0369711
0.000143073
0.000169278
0.000137739
0.000186549
0.00014304
0.000191201
0.00523433
0.000187512
0.000144256
0.000140925
0.00018888
0.000151895
0.00014431
0.000384088
0.00348676
0.000140495
0.000174006
0.00018751
0.000141066
0.000150374
0.000161537
0.000467736
0.000171331
0.000148806
0.000144244
0.00016941
0.000144311
0.000139159
0.000146309
0.00022117
0.00157428
0.000139465
0.000155545
0.000145166
0.000210447
0.000197493
0.000138933
0.000169981
0.000168887
0.000145223
0.000249543
0.00019469
0.000148513
0.000145731
0.000170146
0.000210981
0.00327139
0.000139115
0.0407724
0.000142854
0.000139359
0.000173946
0.000152159
0.000194371
0.000168227
0.000152874
0.000160971
0.000148917
0.000215241
0.00015226
0.000160308
0.000148956
0.000138797
0.000147764
0.000138989
0.000194866
0.000718578
0.000186027
0.000158242
0.00014758
0.000148983
0.000153978
0.000155909
0.000150758
0.000139008
0.000143718
0.000171139
0.000141335
0.000150677
0.0384856
0.0372138
0.00022003
0.000147352
0.000155524
0.000161651
0.000148745
0.000137828
0.000247209
0.000153114
0.000155059
0.000161331
0.000150122
0.000153491
0.040136
0.000163518
0.000147915
0.00195623
0.000146764
0.0403905
0.000592047
0.000155995
0.000150137
0.0419752
0.000140678
0.000189782
0.000174911
0.000218198
0.000152322
0.000147623
0.000145092
0.010401
0.00241159
0.000195612
0.00911108
0.000155299
0.000144953
0.000154976
0.000143127
0.000152725
0.0284178
0.000942034
0.00109659
0.000283006
0.00016343
0.000171573
0.000166659
0.000141155
0.000142259
0.000166574
0.000157095
0.000146328
0.000143077
0.00552631
0.000139929
0.000288596
0.000156924
0.000194303
0.000206555
0.000142317
0.000154581
0.0193103
0.000143675
0.00160979
0.000143415
9.1807e-05
0.000163435
0.000149285
0.000166545
0.000196851
0.000193883
0.000153986
0.000138846
0.000167906
0.000156344
0.000194592
0.000143492
0.000194455
0.000139871
0.000246655
0.00014265
0.000143453
0.000228729
0.000185795
0.000201096
0.00014291
0.000155559
0.00019068
0.000483021
0.000330453
0.000154709
0.000149272
0.000145435
0.000159333
0.000148241
0.00015438
0.0360704
0.000140792
0.000150713
0.000147016
0.000146343
0.000154609
0.000137827
0.000182756
0.000198621
0.000169246
0.000168061
0.00571843
0.000138251
0.000140955
0.0293807
0.000168741
0.0407274
0.000168684
0.000148365
0.000143089
0.000142825
0.000159584
0.000149684
0.000137704
0.000245236
0.0149647
0.000143233
0.000509133
0.000464826
0.000157445
0.000234744
0.000139333
0.00081324
0.000202897
0.000137427
0.0083831
0.000171584
0.000283747
0.000451359
0.00014648
0.000142861
0.000152754
0.000233605
0.000176568
0.000144634
0.000148821
0.000244197
0.000148351
0.000172579
0.000143627
0.000169866
0.000468582
0.0103881
0.00120762
0.010147
0.000170143
0.000745499
0.000155027
0.000140572
0.000157358
0.000401826
0.000188818
0.000174642
0.000144434
0.000292907
0.000145348
0.00014862
0.000440944
0.000152562
0.000157817
0.00019385
0.00019259
0.000144663
0.000142853
0.000154422
0.000156043
0.000138801
0.000144678
0.0001687
0.000235012
0.000152504
0.000144776
0.000172878
0.00549327
0.00014376
0.0101333
0.000248488
0.000145111
0.0287946
0.000138884
0.000237975
0.000143624
0.000137743
0.000227769
0.000152772
0.000463755
0.000152227
0.00014287
0.0259997
0.000143596
0.00013811
0.000145678
0.000140672
0.000158402
0.000168272
0.0408242
0.000152582
0.00213585
0.000152576
0.0102444
0.00400931
0.000150446
0.000143951
0.000155499
0.000139306
0.000203268
0.000142532
0.000138406
0.00013913
0.000144446
0.00014359
0.000242284
0.000159045
0.00017729
0.000151004
0.000154184
0.000156755
0.000182624
0.00717438
0.000141759
0.000194367
0.000174883
0.000138864
0.000779231
0.000471815
0.000144402
0.00980186
0.000145024
0.000182342
0.00016791
0.000137523
0.000168308
0.000156826
0.0101434
0.000144763
0.000154572
0.0104956
0.000202359
0.000221478
0.000143555
0.00016871
0.000189646
0.000309003
0.000143499
0.000151723
0.000146259
0.000146214
0.000141904
0.000142233
0.000140856
0.0101439
0.000164346
0.000140959
0.000138771
0.000141497
0.000148635
0.000197964
0.000189348
0.000140592
0.00015614
0.000147081
0.000147335
0.000150827
0.000140808
0.000189963
0.000138831
0.000140229
0.000151745
0.000147153
0.000153956
0.000143485
0.000238858
0.00321486
0.000154895
0.000140074
0.000209322
0.000138486
0.000138786
0.00014338
0.000220174
0.000157806
0.000143006
0.000139298
0.00014167
0.000160386
0.000138888
0.000162972
0.000142429
0.000148179
0.000141812
0.000151535
0.000831362
0.00014051
0.000148634
0.000143299
0.000236832
0.000230433
0.000158888
0.0001497
0.000184511
0.000158213
0.000189866
0.0332181
0.000153866
0.000188784
0.000148729
0.000265098
0.000148655
0.000139984
0.000138857
0.00502642
0.000138917
0.000159209
0.00014866
0.000219227
0.000170916
0.00015379
0.00014217
0.000142104
0.000143577
0.000160827
0.000205592
0.000845744
0.000176431
0.000145499
0.000138867
0.000155444
0.000141754
0.000140766
0.000148229
0.000177378
0.000161109
0.000347522
0.000145425
0.000144409
0.000168795
0.000143136
0.000211327
0.00017689
0.000171691
0.000213074
0.00712775
0.000165684
0.000141152
0.000138866
0.000147428
0.000142946
0.00020388
0.00017653
0.000202234
0.000139951
0.000146976
0.000153118
0.000141046
0.0312914
0.00178383
0.000138814
0.000139132
0.000147872
0.000141922
0.000140888
0.000148799
0.000232574
0.000138721
0.000148108
0.000139938
0.000137794
0.000142029
0.000145993
0.000162556
0.00013776
0.00018243
0.000139281
0.000138015
0.000233766
0.000156934
0.000271134
0.000181461
0.000148575
0.000189077
0.000228383
0.000144539
0.000142819
0.000138914
0.000246227
0.000153284
0.00016588
0.000217601
0.000146498
0.000148193
0.000144719
0.000267821
0.000152425
0.00015306
0.000144068
0.00015809
0.000171877
0.000142326
0.000193817
0.000140187
0.000138841
0.000155125
0.00402344
0.00861933
0.000169069
0.00023269
0.000138842
0.000148398
0.000192054
0.000159654
0.000143518
0.000192616
0.000152993
0.000249687
0.00760665
0.000142066
0.000138842
0.000144756
0.000148593
0.000138885
0.000282619
0.000405897
0.000137954
0.000146755
0.000149305
0.000169843
0.00014406
0.000145034
0.000207198
0.000149681
0.000145227
0.000155886
0.00020207
0.000196835
0.000142769
0.000139026
0.000138117
0.000142585
0.000178044
0.000190151
0.000140558
0.000141534
0.000168702
0.000166702
0.000141345
0.00014396
0.000192508
0.000140973
0.000139153
0.000143561
0.0256727
0.000138723
0.000144505
0.000141568
0.000144914
0.000138964
0.000157158
0.000212985
0.000143993
0.000236087
0.000161571
0.000224447
0.0001849
0.000140782
0.000161148
0.000140397
0.000139018
0.000140795
0.000494065
0.00207758
0.00020299
0.000159347
0.0046764
0.000190109
0.000152144
0.00020413
0.000202616
0.000154966
0.000139151
0.000508692
0.00014988
0.000146236
0.00014164
0.000250018
0.0170416
0.038058
0.000138824
0.000197459
0.000214061
0.000180092
0.000169988
0.000155163
0.000153145
0.000166916
0.000160476
0.000153732
0.000150023
0.000157718
0.00191424
0.000240975
0.000143953
0.000146189
0.000144812
0.00028029
0.000156364
0.000149577
0.00491628
0.000157158
0.000171292
0.000155171
0.000137838
0.000138525
0.000265163
0.000149505
0.000139317
0.000141236
0.000138373
0.000139325
0.000140765
0.000148003
0.000245296
0.000140919
0.000270617
0.000158597
0.000147379
0.000145702
0.000200925
0.000143308
0.000146834
0.000168247
0.00639019
0.000196726
0.000152689
0.000146344
0.000288198
0.000138491
0.000173801
0.00014613
0.033858
0.00017072
0.000137949
0.000157142
0.000144653
0.000216012
0.000423384
0.00188393
0.00013771
0.000143494
0.00016944
0.0342763
0.000138458
0.000179613
0.000137773
0.000161912
0.0001404
0.000138933
0.000152039
0.000149687
0.000139096
0.000171302
0.000166085
0.00015488
0.000209554
0.000508591
0.000149968
0.000157317
0.00013944
0.000202228
0.000280224
0.000220183
0.000138907
0.000169554
0.000145922
0.0041966
0.00014285
0.00014022
0.000196816
0.000146484
0.000146135
0.000151225
0.000149312
0.000142939
0.000589229
0.00155183
0.000187447
0.000139112
0.000145172
0.000274821
0.000139168
0.00234932
0.000147582
0.000145711
0.000149011
0.000153685
0.000226774
0.000137774
0.000145104
0.0375065
0.00014726
0.000148235
0.000169497
0.000286493
0.000162424
0.000144394
0.000143656
0.0248904
0.000408722
0.0137411
0.000138235
0.000166578
0.000221628
0.000140943
0.000186927
0.000153724
0.000435556
0.000153759
0.000145911
0.000149042
0.000138623
0.000308975
0.000144977
0.000140912
0.000189368
0.00019436
0.000188009
0.000138652
0.000151377
0.000139211
0.000137684
0.000139023
0.000150511
0.000146636
0.000148872
0.000138662
0.000148229
0.000178596
0.000163607
0.000209777
0.000143488
0.000156141
0.00014185
0.000138027
0.000147851
0.000148681
0.000152782
0.000138938
0.000148609
0.000139684
0.000144093
0.000143416
0.000141074
0.000139054
0.00242413
0.0089141
0.000144756
0.000307307
0.000168224
0.000154349
0.000147578
0.000149883
0.00407165
0.0001476
0.000139376
0.000138157
0.000138872
0.0291596
0.000144507
0.000140034
0.000243682
0.000138845
0.000137376
0.000139635
0.000139842
0.000200072
0.000213711
0.0289989
0.000139964
0.0137786
0.000156605
0.000143181
0.000140899
0.000169853
0.000143107
0.000161276
0.000186161
0.000154607
0.000152885
0.000389678
0.000225551
0.0413961
0.000266686
0.000314596
0.000205034
0.000140843
0.00025
0.0293879
0.000138368
0.0124754
0.000138802
0.000150425
0.000207514
0.00014089
0.00266772
0.000155928
0.000151874
0.000148353
0.000202331
0.000143837
0.000264833
0.000142836
0.000139483
0.00367254
0.000137382
0.000143151
0.00014839
0.0001827
0.00014225
0.000144066
0.00015219
0.000209722
0.000144402
0.000144437
0.000139993
0.000153829
0.00014239
0.000150409
0.000205203
0.000141409
0.00015775
0.00014784
0.000152688
0.000144106
0.000140385
0.000148712
0.000199538
0.000147328
0.000147517
0.000154769
0.000137925
0.00014877
0.000141764
0.000143993
0.000161461
0.00019985
0.000151697
0.000140928
0.000141314
0.000137734
0.000137787
0.000139215
0.00015871
0.000198946
0.000183869
0.000146675
0.00457854
0.000141282
0.000138163
0.0343823
0.000175125
0.00013885
0.000196408
0.000138193
0.000140911
0.000436612
0.000148984
0.000173309
0.000138218
0.000217659
0.000141172
0.00013891
0.000139357
0.000196118
0.000206277
0.000147075
0.000512532
0.000139008
0.000145115
0.000138975
0.000207131
0.000146354
0.000138393
0.000144786
0.000151565
0.000142928
0.000145747
0.00014031
0.000148424
0.000146768
0.000140291
0.000155932
0.000138688
0.00936514
0.000188922
0.000139719
0.000267195
0.000157681
0.000140737
0.000141662
0.000152437
0.000141457
0.00016183
0.000155743
0.000225257
0.000226884
0.00014811
0.000189529
0.000218482
0.000143088
0.000149088
0.000197392
0.000154814
0.0001379
0.000138716
0.000142199
0.000180238
0.000143988
0.000139732
0.000157385
0.000140447
0.000137861
0.000143988
0.000154017
0.000141095
0.00020118
0.000144541
0.000154491
0.000200512
0.000143509
0.000710805
0.0113626
0.000153787
0.000161966
0.00015999
0.000138147
0.0001806
0.000145528
0.000167078
0.00285908
0.0117348
0.000191456
0.000137878
0.000162905
0.00014271
0.000161982
0.000143639
0.000287351
0.000198348
0.000148213
0.000140519
0.00022511
0.000166805
0.00014281
0.000143261
0.000268556
0.000147331
0.000138307
0.0139499
0.000180857
0.000138427
0.000374782
0.000140883
0.000204463
0.00018287
0.000142962
0.000144335
0.00018374
0.0149269
0.000140024
0.000157395
0.000144322
0.000142982
0.000139775
0.00138742
0.000148326
0.000148841
0.000143636
0.000277408
0.000157824
0.000140196
0.000138135
0.000203239
0.000142234
0.000138809
0.000122084
0.00780657
0.000148682
0.00023977
0.000181091
0.000177144
0.000170381
0.000185113
0.00103869
0.000143278
0.000138248
0.000140276
0.000154616
0.000142843
0.00173288
0.000284166
0.000137564
0.000148632
0.000140827
0.000138783
0.000417644
0.000142935
0.000151998
0.000151562
0.000200287
0.000144553
0.000147703
0.000155764
0.00244292
0.000146131
0.000148563
0.00014102
0.000140655
0.000154188
0.000174933
0.000147266
0.000142152
0.000144976
0.00014599
0.000140263
0.000643598
0.000148374
0.000143417
0.000141869
0.000184928
0.000139888
0.000138558
0.000168568
0.000147073
0.000185613
0.000144141
0.000144485
0.000158107
0.0459018
0.0365323
0.000138015
0.00016886
0.000147685
0.000372988
0.000141838
0.000155785
0.000138768
0.0130883
0.000137801
0.000154425
0.000144651
0.00234497
0.000168957
0.000210682
0.000336604
0.000149269
0.000182478
0.000147818
0.000149563
0.000436612
0.00016775
0.000142122
0.000140926
0.000153457
0.000163789
0.000144019
0.000144966
0.000141869
0.000138263
0.000235218
0.00261214
0.000147864
0.000143491
0.000334355
0.00963342
0.000153967
0.000155121
0.000152342
0.000154896
0.00014233
0.000173317
0.000139354
0.000140247
0.000140867
0.000146124
0.000139556
0.000264995
0.000156615
0.000146693
0.000146691
0.000157524
0.000143644
0.000156462
0.000172566
0.000136983
0.000153729
0.00931349
0.000137939
0.00014284
0.000148285
0.000138316
0.000146683
0.000140032
0.000148888
0.000140864
0.00225828
0.000152026
0.000138982
0.000139714
0.000139305
0.000151052
0.000175067
0.000185159
0.000139359
0.000349001
0.000146792
0.000142385
0.000138142
0.000194247
0.000249784
0.000138149
0.000140354
0.000144897
0.000172694
0.00022198
0.000156753
0.000144961
0.000148585
0.000211455
0.000339773
0.000149206
0.000142589
0.000261875
0.000153906
0.000150142
0.000154744
0.000142387
0.000186561
0.000144554
0.04687
0.000145133
0.00543345
0.000140772
0.000144582
0.000154643
0.000146377
0.000153697
0.000147697
0.000146149
0.000139469
0.000148468
0.000144433
0.000139841
0.000151081
0.000151887
0.000149122
0.00014358
0.000144986
0.000178374
0.000147203
0.000140332
0.000145304
0.000233635
0.000142943
0.000143323
0.000148196
0.00212061
0.000138515
0.000170994
0.000151401
0.000139144
0.00014333
0.000308257
1.86798e-05
0.000168742
0.00014315
0.000153487
0.000170907
0.000140003
0.000158234
0.000174292
0.000141184
0.00020692
0.000140767
0.000143188
0.000139904
0.000147846
0.000161616
0.000220533
0.0239113
0.000246188
0.000139437
0.000144956
0.000143461
0.000195873
0.00014888
0.000226225
0.000139717
0.000143811
0.000143478
0.000192027
0.000144744
0.000146516
0.000144185
0.000214291
0.000138427
0.0343954
0.000139505
0.000226827
0.000151767
0.000162181
0.000140736
0.000153466
0.00582139
0.000201963
0.000139458
0.000182875
0.000145301
0.000147629
0.0213928
0.00555826
0.000140876
0.000142722
0.000154991
0.000139432
0.000143618
0.000148389
0.000147545
0.000194713
0.000180268
0.000149824
0.000158204
0.000201638
0.000147048
0.000140761
0.000142101
0.000145134
0.00016132
0.000144126
0.0369065
0.000144021
0.000364932
0.000169333
0.000139424
0.000140343
0.000140156
0.000233468
0.00015609
0.000155621
0.000146557
0.000139955
0.00573181
0.00015213
0.000168628
0.000147215
0.000145513
0.000151395
0.000143311
0.000152237
0.000143428
0.000144376
0.000149109
0.000149012
0.00307699
0.000183399
0.0104167
0.000140844
0.000139463
0.000149468
0.000140003
0.000190105
0.014553
0.00015217
0.000138684
0.000172867
0.000147167
0.00788029
0.00014959
0.000192027
0.000150993
0.000309404
0.03781
0.000153119
0.00016822
0.000139302
0.000137585
0.000148516
0.000138223
0.000147817
0.000152182
0.000139418
0.000156974
0.000209854
0.000139685
0.00014064
0.00015394
0.000138302
0.000142435
0.000143764
0.000197897
0.000146892
0.000214738
0.000147825
0.000154407
0.000338784
0.000140172
0.000154997
0.000142249
0.000153654
0.0148993
0.000159735
0.000595779
0.000142551
0.000188912
0.000152108
0.000141737
0.000156037
0.0001972
0.000165764
0.000143057
0.000151495
0.000143141
0.00306475
0.000139013
0.00160408
0.000255693
0.000192421
0.00015581
0.000234717
0.000140038
0.000138177
0.000470177
0.000142385
0.000265031
0.000148704
0.000151346
0.000138001
0.000137953
0.000157665
0.000305481
0.000143553
0.000139252
0.000138379
0.0371883
0.000138208
0.000143662
0.000194718
0.000149019
0.000139032
0.000149188
0.000144339
0.000178262
0.000140542
0.000166059
0.000263722
0.000141858
0.000478303
0.000144388
0.000147006
0.000146803
0.000144631
0.00860361
0.000147433
0.000138324
0.000168874
0.000148117
0.000539279
0.00019529
0.000142932
0.000212139
0.000168024
0.000140458
0.000144782
0.000154382
0.000139868
0.000181876
0.000160494
0.000152625
0.000153428
0.000141335
0.000143044
0.000183761
0.000149584
0.000144921
0.000150076
0.000137501
0.000139093
0.041558
0.000158312
0.000634024
0.00015916
0.00018009
0.000162837
0.000142043
0.000159833
0.000139544
0.000140708
0.000151768
0.00016572
0.000140159
0.00017914
0.000145158
0.000237631
0.028417
0.000154363
0.000178867
0.000145304
0.000482415
0.000140021
0.000139379
0.000147139
0.000206144
0.00016107
0.00017259
0.000153814
0.000148813
0.000142029
0.000137685
0.000137977
0.000155875
0.000143681
0.00628237
0.0001468
0.000151302
0.000155782
0.000145022
0.000142786
0.000152788
0.000180094
0.000212263
0.000149033
0.000154282
0.00024906
0.000147502
0.0001494
0.000153236
0.000146712
0.00173591
0.00469988
0.000300359
0.000201297
0.000384639
0.000150343
0.000139768
0.000150717
0.000143505
0.000158339
0.000143009
0.000138256
0.000528244
0.000263792
0.000141381
0.000139452
0.000158627
0.00255167
0.000153719
0.000139845
0.000478425
0.000151978
0.000169396
0.000138018
0.000163279
0.000138446
0.00015288
0.000157257
0.000142036
0.0176243
0.000148994
0.000169589
0.000210997
0.000139461
0.0002034
0.000142194
0.000185825
0.000155095
0.000172854
0.000174454
0.000143413
0.00014531
0.000150144
0.000182003
0.0001517
0.000175664
0.000139859
0.000220217
0.000140921
0.000148691
0.000256371
0.000155384
0.000219542
0.000144127
0.000149454
0.0317203
0.00049623
0.00014
0.000328319
0.00016621
0.000138798
0.000138126
0.0360232
0.00032006
0.000142309
0.000139905
0.000142251
0.000139998
0.000368841
0.000259493
0.000137605
0.000138144
0.000139918
0.00023356
0.000176499
0.000138014
0.000138751
0.000260347
0.000147356
0.000187525
3.73735e-05
0.000164917
0.000144526
0.000141077
0.000138009
0.000140002
0.000141192
0.000139755
0.000161499
0.000153027
0.0282119
0.000157054
0.000148482
0.000142387
0.000158324
0.000222532
0.00017797
0.000141688
0.000145421
0.000218115
0.000179004
0.000148521
0.00135433
0.000163758
0.000152358
0.000429266
0.000151509
0.000156669
0.000148264
0.000156245
0.000145299
0.000148432
0.0310017
0.000159899
0.000141125
0.000143302
0.000138441
0.000177893
0.000214469
0.00014101
0.000140043
0.000150232
0.000185509
0.000143825
0.000138938
0.000142778
0.000139083
0.000143206
0.000173352
0.00014536
0.000150816
0.0113199
0.000141978
0.000424506
0.000163198
0.000164037
0.000155257
0.000173762
0.000145045
0.000311314
0.000202214
0.000188068
0.0203795
0.000162397
0.000140069
0.000291667
0.00013935
0.000189892
0.000340356
0.000143244
0.000141794
0.00015374
0.000191679
0.000142726
0.000152472
0.000329635
0.000142851
0.000145765
0.000139781
0.000147174
0.000140584
0.000190167
0.000204203
0.000139193
0.000141015
0.000408296
0.000142631
0.000138406
0.000140805
0.000140563
0.0241055
0.000143706
0.000152503
0.000153228
0.000149018
0.000138416
0.000179853
0.000197395
0.000158366
0.000250644
0.000146153
0.000153582
0.0218893
0.000140081
0.000138919
0.000143305
0.000140417
0.000148458
0.000138146
0.000149788
0.000339666
0.000145755
0.000141788
0.000156285
0.000140525
0.000255131
0.000147504
0.000277262
0.000230064
0.000144523
0.00016252
0.000243769
0.000171894
0.000143063
0.000154705
0.000140432
0.000151499
0.000142517
0.000148648
0.000289617
0.000140837
0.000143757
0.000174634
0.000259779
0.000147671
0.000139725
0.000222349
0.000149696
0.000145147
0.000143024
0.000139854
0.000142438
0.0375976
0.000145945
0.000258667
0.000181863
0.000137987
0.000139639
0.000153318
0.000159022
0.000140878
0.000139258
0.000174345
0.000141783
0.000435439
0.000233304
0.000150042
0.000218009
0.000146141
0.000152609
0.000155874
0.000249113
0.000143674
0.000161071
0.000163123
0.0039166
0.000148091
0.000177034
0.00014459
0.000215076
0.000217775
0.000233792
0.000150136
0.000161019
0.000139456
0.00416876
0.000152154
0.000153901
0.000251864
0.000282873
0.000140239
0.000180849
0.000143254
0.000154793
0.000146301
0.00015276
0.000151993
0.000314709
0.00014783
0.000148103
0.000184324
0.00496714
0.000265527
0.000210135
0.000301966
0.000139768
0.00022215
0.000187439
0.000142209
0.000141768
0.00657594
0.000169346
0.000145163
0.000142572
0.000171574
0.000138587
0.000142794
0.00520133
0.000145506
0.00014804
0.000141061
0.000143861
0.000151002
0.000140854
0.000483073
0.000144294
0.000154035
0.00014283
0.00016235
0.000301717
0.000148771
0.000147168
0.000140593
0.000229046
0.000143446
0.000154617
0.000138671
0.000140363
0.000211325
0.000219752
0.000140403
0.000152816
0.000140296
0.0050304
0.000466169
0.000150179
0.000155574
0.00192095
0.00014251
0.000155739
0.000154271
0.000143331
0.00638499
0.000479467
0.00017106
0.000149344
0.0251257
0.000138168
0.000138135
0.000152902
0.000166771
0.000295589
0.000140612
0.000166565
0.0116327
0.000383535
0.000147041
0.000150824
0.000248363
0.000150321
0.000153836
0.0011557
0.000140827
0.000142554
0.000140825
0.000237619
0.000145341
0.000165256
0.000149186
0.00019278
0.000160715
0.00267397
0.000143113
0.000142215
0.000166905
0.000148293
0.000139961
0.000149953
0.000202344
0.000206272
0.000140743
0.000144461
0.0209494
0.000277626
0.000499821
0.000139029
0.000143358
0.000155547
0.000145305
0.000143096
0.000144054
0.000137817
0.000148585
0.000139299
0.000139576
0.000185553
0.000155144
0.000163476
0.00157576
0.000189005
0.000178932
0.000156199
0.000191987
0.000234601
0.000162883
0.000190569
0.000157553
0.000141658
0.00173566
0.000137669
0.000140764
0.000144335
0.00493558
0.0001484
0.00323508
0.000148522
0.000138278
0.000174517
0.000142939
0.000142294
0.000142881
0.00014055
0.000292828
0.000147482
0.000143165
0.000151319
0.0110305
0.000178385
0.000450309
0.000142998
0.000176726
0.000146392
0.000145702
0.000139489
0.000138833
0.000143366
0.000139139
0.000132892
0.000179732
0.00018212
0.000209027
0.000235324
0.000208125
0.000147291
0.000204965
0.000165208
0.00513809
0.000139589
0.000145783
0.000137936
0.00346514
0.000138116
0.000144659
0.000138786
0.000140317
0.000208369
0.00015249
0.000188814
0.000140398
0.000137999
0.000144323
0.00014403
0.00486961
0.000150257
0.000137931
0.000147951
0.000158686
0.000149257
0.000186551
0.000418113
0.000142463
0.000178004
0.019219
0.000141665
0.000146707
0.00017326
0.00013805
0.000394256
0.000181184
0.000143024
0.000184327
0.000138843
0.000142873
0.000146111
0.000141915
0.00013974
0.000149699
0.000144815
0.000138721
0.000145239
0.000148025
0.000178327
0.00013843
0.000223611
0.000141129
0.00014033
0.000159828
0.000178274
0.000149517
0.000138282
0.000142438
0.000153641
0.000176791
0.0244752
0.000165609
0.000148871
0.00014889
0.000139398
0.000162341
0.000140646
0.000152547
0.00105309
0.000233298
0.00017601
0.000141343
0.000147549
0.000149676
0.000138232
0.000186831
0.000138322
0.000241895
0.000149079
0.000236665
0.000158103
0.00125231
0.000147182
0.000190415
0.0402988
0.00168041
0.000200451
0.000155758
0.00283641
0.000274563
0.000148541
0.000166811
0.000349514
0.000138296
0.000138975
0.000143876
0.000154177
0.000281389
0.000145998
0.000153925
0.000706727
0.000137613
0.000144617
0.000260103
0.00142201
0.00019669
0.000234109
0.00959503
0.000149703
0.000186752
0.0001552
0.000156196
0.000316635
0.000154133
0.0324347
0.000202569
0.000153664
0.000145688
0.000152536
0.000142918
0.000141241
0.0345184
0.000138107
0.000142829
0.000143255
0.00358417
0.0265219
0.000150717
0.000145038
0.000151631
0.00014197
0.000373581
0.000146872
0.000148107
0.000153211
0.000224862
0.000138572
0.000194411
0.00106024
0.000141809
0.000147742
0.000151822
0.000141103
0.00345756
0.000138416
0.000153286
0.000141797
0.000185118
0.000162279
0.000400445
0.000222563
0.000152009
0.000151226
0.000145347
0.000154111
0.000141854
0.00013865
0.000157713
0.000148104
0.000162072
0.000138531
0.000142884
0.000144236
0.000143794
0.000155585
0.000139191
0.000137441
0.000146301
0.000150242
0.000162666
0.000182955
0.000151725
0.000150909
0.000197926
0.00014109
0.00014315
0.000193812
0.000175005
0.00013756
0.000166634
0.000151971
0.000175659
0.000142685
0.000726141
0.000141775
0.000143213
0.000139812
0.000138138
0.000142311
0.000141322
0.0179992
0.000189241
0.000146985
0.000143073
0.000142292
0.000152428
0.000158698
0.000312932
0.000149577
0.000201105
0.000165698
0.000141081
0.000147822
0.000176081
0.00014302
0.00014271
0.000161094
0.000142573
0.000145768
0.000144586
0.000137681
0.000378564
0.000143555
0.000139129
0.000137974
0.0102234
0.000199084