/*--------------------------------*- C++ -*----------------------------------*\
| =========                 |                                                 |
| \\      /  F ield         | OpenFOAM: The Open Source CFD Toolbox           |
|  \\    /   O peration     | Version:  v2012                                 |
|   \\  /    A nd           | Website:  www.openfoam.com                      |
|    \\/     M anipulation  |                                                 |
\*---------------------------------------------------------------------------*/
FoamFile
{
    version     2.0;
    format      ascii;
    class       volScalarField;
    location    "200";
    object      ddt0(k);
}
// * * * * * * * * * * * * * * * * * * * * * * * * * * * * * * * * * * * * * //

dimensions      [0 2 -3 0 0 0 0];


internalField   nonuniform List<scalar> 
18758
(
-1.17579e-07
-0.00341675
1.58671e-09
0.00910594
-0.00314873
-0.001952
0.000214339
-1.28985e-08
-5.51435e-06
-5.19245e-08
8.87214e-08
0.00117659
-4.30214e-09
-1.3245e-06
-1.12352e-09
9.1507e-06
7.59374e-08
-9.92964e-09
4.30776e-08
-4.49748e-08
-0.0012306
-4.3741e-10
0.00135995
-0.00321207
2.0577e-05
-1.0968e-08
-1.30603e-05
-0.0037206
-0.0100168
0.0094312
-3.9761e-08
0.000526185
-3.05947e-09
1.16992e-07
-2.78585e-06
5.05778e-09
-2.43421e-09
5.59535e-09
4.91314e-08
-4.67039e-08
1.70612e-08
-6.7018e-08
-2.68762e-08
-7.48893e-08
0.00354352
-2.718e-08
0.00131825
3.15336e-08
-5.27988e-08
-2.00316e-08
-1.84903e-07
0.00337279
-9.68221e-09
8.64101e-08
-0.00355673
0.00327377
-2.26833e-09
2.23593e-05
7.93982e-08
-1.94528e-06
1.65933e-07
0.000242938
-1.78013e-06
-5.9005e-08
-1.29509e-08
-2.70498e-08
-2.82155e-08
-3.18797e-09
-3.77088e-09
0.00324149
0.000489027
-1.59286e-09
-2.02766e-08
0.00518628
-3.55701e-08
7.70721e-08
-2.26482e-05
-0.00258899
4.65489e-07
0.00075026
0.00303225
0.0136108
-2.00786e-06
-0.00271265
2.81411e-06
1.47429e-07
0.00151044
-1.82284e-06
6.99178e-05
7.17707e-08
-0.00261831
8.04002e-08
-0.000526527
-7.38785e-08
0.0030702
-0.000549141
-7.52318e-06
-3.57204e-08
7.61274e-08
-0.0010972
-1.70306e-08
-0.00258187
-1.45665e-06
4.2961e-08
0.000398185
0.00918213
0.00867813
-0.00249863
2.79426e-08
7.95213e-09
-0.000768237
6.88617e-06
-1.47558e-09
-9.54966e-08
-0.00872733
0.000663592
-0.000610195
-8.99615e-09
0.000886557
0.00271566
6.57176e-08
5.22244e-08
0.00102991
-8.53101e-06
1.45608e-05
0.00460257
-0.00126193
-0.000443554
-0.000428032
3.66098e-08
5.16095e-08
-5.01227e-06
-0.00116869
-6.22597e-08
-1.23582e-05
-9.96942e-08
-1.146e-05
-5.59929e-08
7.71767e-08
-1.50195e-07
8.02891e-08
-1.20064e-06
-2.73647e-08
-0.000725816
2.538e-08
3.64825e-08
-0.00150594
0.000905686
9.66582e-09
-0.00411229
0.00595248
0.00817193
1.44079e-07
-1.59485e-09
0.00195815
1.51e-07
0.000810098
2.59544e-08
-3.94482e-08
-6.51799e-10
9.34867e-09
-2.25219e-06
-0.000239972
-3.50413e-08
6.72443e-07
-0.00869114
5.29298e-08
0.00216818
-2.78479e-06
-0.00270241
0.000540185
-8.49746e-09
-0.00024225
-0.00364483
-1.82166e-06
-0.00199357
-0.00802106
-6.42604e-08
-3.40749e-07
-6.18226e-08
1.94237e-09
0.000151089
0.00582576
-1.40653e-08
1.82268e-07
0.00146765
9.31377e-08
0.000658056
-2.56952e-08
8.23504e-08
-4.27419e-09
-0.000124106
-1.30638e-07
1.40042e-07
-9.89204e-08
-1.68751e-06
-4.58905e-08
-1.31468e-06
-4.39115e-10
-2.60649e-08
-1.93339e-08
9.40104e-09
2.14976e-08
-8.35988e-07
-5.811e-09
-1.18868e-07
-1.58555e-06
-1.13421e-09
-0.0010857
-6.73042e-08
-6.32975e-09
6.14076e-08
-5.2577e-08
3.18911e-08
1.30082e-06
0.00280338
-2.11012e-06
2.41322e-06
-2.77427e-08
-0.00178915
-6.12076e-09
1.84294e-08
-6.00884e-06
-0.00176273
1.03679e-06
-1.67862e-06
-6.67445e-08
-4.79657e-07
-2.16188e-09
-7.97965e-07
-2.49822e-08
-1.45796e-06
0.00141377
4.48259e-06
-3.4139e-09
9.30345e-08
-4.63288e-09
-2.73347e-08
0.000613338
6.7719e-08
2.39991e-08
0.000791005
0.00925126
1.27504e-07
-0.00418511
0.000112597
3.3324e-06
5.2438e-09
0.0030634
-6.23093e-08
3.18095e-09
0.00227652
1.46466e-07
-8.42483e-08
-1.53127e-09
4.04163e-08
-9.78998e-05
3.79504e-06
3.25742e-08
-6.19962e-07
8.86255e-09
-9.07293e-07
-3.15697e-08
-8.52666e-07
-5.98825e-08
-6.66e-06
0.000810831
-2.92977e-08
3.01621e-08
2.13619e-06
2.21012e-08
1.73011e-07
-8.01215e-07
-0.00382029
-0.000334736
-1.0071e-08
1.82682e-07
-0.00277562
-0.00359837
-1.34884e-07
1.27892e-08
9.60236e-08
6.21822e-08
-2.35465e-08
-0.00279991
-0.000161944
0.0113882
-0.000825204
0.00150905
-1.40083e-08
5.23266e-10
8.50895e-07
0.00323575
-2.51599e-08
-4.6221e-07
-8.8572e-07
7.85236e-08
0.00272207
4.10381e-08
0.00021012
-0.0025885
-2.79831e-08
0.00734919
-1.07263e-08
1.53803e-09
2.14199e-08
-1.98576e-07
5.21489e-08
3.32407e-09
0.000480276
0.00678078
2.5192e-08
0.000326001
0.0027414
-6.57278e-06
-3.85528e-08
6.69928e-08
0.00567153
1.24743e-07
-1.67892e-08
1.89681e-08
-6.65056e-09
7.7519e-06
-1.69701e-07
9.53143e-08
5.89287e-08
-4.81935e-08
9.38104e-08
1.14627e-08
-5.40045e-10
-0.000577705
-1.12115e-08
3.83267e-08
0.00844429
-1.002e-07
-1.29943e-07
6.19874e-08
0.000151118
0.00874414
-7.97265e-09
-2.98896e-09
-6.79645e-09
-9.54245e-08
-4.03603e-07
-3.7472e-05
4.73512e-08
1.11326e-08
-1.3658e-08
-1.19837e-05
-1.1627e-06
-2.38434e-06
5.85944e-08
1.00641e-07
-0.000152627
4.90542e-07
7.94745e-08
-6.15963e-08
0.000960316
-0.00172582
0.00330226
-5.36015e-09
-1.64506e-08
-0.0010658
-0.00314705
-7.44739e-08
-1.53818e-08
-2.33054e-07
6.06059e-08
1.61591e-07
-0.0125327
-0.00107827
-1.28784e-06
-5.33563e-08
0.000881738
6.5822e-08
7.70717e-09
5.63606e-08
3.85551e-08
-2.17953e-06
1.08926e-07
0.000339803
-1.39087e-06
6.22092e-10
1.8021e-08
-0.000324236
-1.37252e-06
-6.60821e-06
6.76434e-08
2.64071e-07
7.09615e-09
-9.31625e-08
5.28226e-08
-2.98271e-08
-0.0010189
-0.00098427
0.00252465
0.000912276
-1.25199e-08
-7.89464e-06
-3.82082e-05
3.80756e-08
-2.27322e-09
0.00899674
7.70806e-10
2.68528e-08
2.16189e-09
-2.44703e-06
5.54843e-08
-9.91418e-08
1.80729e-07
0.000288026
1.45506e-08
-0.00300331
-1.71236e-07
-3.69166e-08
1.89819e-07
7.50722e-08
-3.14051e-09
8.28044e-08
-7.96637e-07
1.56841e-07
0.00024298
4.74184e-08
-2.14199e-08
1.8311e-06
0.0104495
0.0156578
0.000502874
-1.70041e-06
-1.30213e-07
-2.82975e-08
2.33674e-08
-5.75819e-08
-1.15097e-06
-3.39365e-08
2.97212e-07
-9.45038e-08
1.45859e-07
0.00348254
-1.49559e-06
7.84011e-08
7.27204e-08
5.36457e-05
-1.10554e-07
-0.000184332
7.02675e-08
1.93999e-09
0.00182462
-8.24238e-08
5.02711e-08
-0.000109633
-3.42684e-06
5.70223e-07
-0.000100468
7.40937e-08
-9.26425e-08
1.19946e-05
0.00123806
-2.02219e-08
1.19505e-07
-7.22403e-07
0.000933008
0.000265034
-1.27284e-06
4.26768e-09
2.00882e-08
-9.1631e-08
-1.22062e-06
-3.03846e-08
-8.39777e-05
2.76697e-07
-0.00119169
2.97634e-07
-1.33958e-07
-2.728e-08
-0.00314295
-2.2985e-08
-0.00151441
5.59084e-08
2.66664e-06
-1.94216e-08
0.00515538
1.47712e-07
-7.26177e-09
7.38817e-08
1.70546e-09
0.0132634
-0.00156175
-0.00933718
3.45623e-08
1.59954e-07
-2.46858e-07
-1.06113e-09
-5.72477e-11
0.0022618
7.7256e-08
-5.34576e-09
-8.01131e-07
-6.52251e-09
1.00019e-07
-2.52624e-07
-4.76165e-09
5.68509e-08
-9.1625e-08
-1.04816e-07
1.42749e-07
-0.00364837
6.52036e-07
-4.01766e-08
6.40566e-09
-2.0049e-08
9.36004e-06
5.81598e-09
-2.69689e-10
-0.000485312
0.000337648
-1.12883e-07
0.0149315
-8.56444e-08
6.14573e-09
0.000281765
4.95032e-08
-0.000843601
-2.40656e-06
-1.0539e-08
-0.00323246
-0.000241668
-2.68259e-07
-2.32061e-08
1.90023e-08
0.00631153
1.15142e-08
-2.12575e-08
6.97625e-09
6.02561e-08
3.83487e-08
-2.43317e-08
-1.25927e-10
-0.00116513
1.49905e-07
-0.00849408
3.93617e-08
-4.14899e-07
-0.00808014
-2.92242e-08
-2.59846e-08
1.39109e-07
-1.00618e-09
-1.36598e-07
-4.64571e-08
-7.00827e-08
-1.79778e-06
1.54894e-05
-6.76654e-09
0.00538244
-0.00315886
-9.75453e-08
1.41868e-07
0.00153801
-8.73724e-08
5.72185e-07
1.64138e-07
0.000523354
1.48441e-07
3.43771e-07
-5.76543e-08
0.000921068
-3.33728e-08
2.20468e-07
-3.47794e-06
0.000193698
1.4038e-07
4.54962e-08
-1.05455e-07
-0.000411449
-1.30621e-07
3.89624e-05
1.32955e-09
0.00898176
-1.35283e-07
-6.4345e-09
1.63594e-09
-5.42538e-09
-0.0030793
0.00934889
6.39699e-08
-5.82414e-06
7.9497e-08
0.0145455
-0.00184917
0.00422745
-0.000665057
-1.76818e-08
-0.00391325
2.15853e-07
-1.07898e-07
-1.3801e-08
0.00152439
0.000372982
1.18532e-07
-1.71482e-09
-1.00774e-07
7.96419e-10
0.000926355
-2.10631e-06
-0.00356485
-0.000263397
5.0624e-08
-6.04222e-10
-3.96147e-07
-5.65054e-10
1.09339e-08
-4.57171e-08
1.88387e-08
-1.98835e-06
-2.42969e-08
6.18039e-07
-0.002136
-2.55994e-08
-1.69467e-08
-7.40096e-08
9.32181e-07
0.000395412
3.03103e-07
-0.0179978
-4.55039e-08
6.16555e-08
-9.70911e-06
0.0188146
-1.31326e-07
-1.09675e-08
1.01084e-06
-0.00271663
2.71316e-06
-5.16217e-09
-0.00158548
-0.000781376
-0.000482182
-1.74469e-08
0.000130027
0.000430431
0.00140158
1.14314e-07
1.25505e-09
-0.00963224
-1.96033e-10
-7.58583e-06
-0.001236
-1.384e-06
0.000222931
-1.40043e-06
-0.00112844
-7.7945e-07
-2.28614e-09
-5.16217e-09
0.000783513
0.0119229
0.000388641
0.00136371
4.67214e-08
-5.71073e-06
-1.18314e-10
-6.86032e-08
-1.31477e-06
2.62492e-07
-8.01538e-09
-8.21159e-08
-9.52964e-06
0.0041935
0.000754201
0.000428851
7.97072e-08
-1.04589e-08
-9.97345e-06
1.05553e-08
-8.68798e-09
1.01769e-08
1.95939e-07
-1.71818e-07
-2.51256e-08
-1.03182e-06
2.82826e-08
4.96906e-08
-5.13082e-10
-0.00335756
3.68325e-09
-1.15231e-09
-3.04543e-07
-1.484e-07
-8.6008e-09
-0.000564975
5.96472e-08
8.04396e-09
-6.14097e-09
-1.10796e-07
1.647e-07
-9.85014e-08
-0.0240217
-8.38256e-08
1.77795e-08
0.0183699
2.6127e-08
0.0104032
8.90964e-08
-1.83788e-06
0.00196471
0.000635697
-1.01901e-08
0.000922957
-0.00101917
-1.97713e-08
-0.00178574
-1.74317e-08
1.66284e-09
1.42371e-08
-1.18315e-08
2.97679e-06
0.000325712
-2.3414e-08
-8.32711e-05
-1.46266e-08
6.76531e-08
0.0116252
-1.05802e-09
-0.00312434
-1.20716e-07
6.05448e-08
8.22342e-08
1.92432e-08
2.202e-06
5.86116e-07
0.000455102
-1.05151e-07
-0.00192052
-3.72333e-07
-2.09245e-08
-7.73491e-06
0.00045623
-0.00172173
-5.28792e-07
3.36212e-07
3.71765e-07
9.91955e-08
6.3865e-06
-1.15809e-07
-0.0193856
-5.62561e-09
0.00015414
1.17882e-07
-4.32063e-07
-8.01979e-08
3.11172e-08
-0.0127908
-3.90798e-09
1.4599e-08
-0.000110406
-1.19335e-07
-3.77628e-10
-5.93783e-08
-1.00464e-07
5.28586e-06
0.000563193
0.0176458
-0.00107341
-1.17701e-09
1.69893e-09
-0.00173666
-2.76651e-08
0.000313205
-1.5565e-06
1.01859e-07
-2.28248e-09
1.26634e-08
-4.24233e-09
5.43855e-08
2.00104e-07
-0.000616479
-2.59238e-07
4.36648e-06
2.68076e-08
7.75816e-10
-2.98719e-07
-0.00861573
2.63977e-08
-1.26843e-06
1.47953e-07
0.000850901
-5.26636e-08
0.00250358
-6.32542e-09
-0.0011067
-4.78529e-10
-1.35875e-06
-1.06363e-07
1.76012e-07
4.9688e-07
-2.75833e-09
1.08088e-08
-1.89443e-08
0.012416
-0.00104417
1.95095e-07
-0.00325114
6.01228e-08
-1.28055e-08
1.52696e-07
-1.61272e-05
0.000699035
2.17107e-07
-3.0403e-10
-2.22338e-06
2.62399e-08
5.94997e-08
1.52833e-07
2.19958e-05
-0.0011151
-0.000383876
0.00651937
-7.97289e-07
-1.00462e-08
1.98838e-09
-0.00377801
1.68822e-09
-0.000563224
1.70816e-07
8.36012e-10
-0.00116828
-0.00209391
6.22393e-10
0.000436928
1.04313e-08
9.11894e-07
4.38726e-07
0.013685
-0.00196136
0.000673958
-9.09984e-09
-3.70951e-09
-0.00171429
-9.61517e-09
-1.32261e-08
1.64471e-07
-1.25799e-08
0.0160399
1.05476e-06
-3.78717e-07
-0.00082428
-1.87432e-07
-2.63125e-06
1.47846e-07
-1.27115e-08
-8.7613e-09
3.22649e-09
-0.000203501
0.000556226
-3.40949e-06
-1.87313e-09
1.96298e-09
5.41805e-07
-7.11236e-08
1.48593e-08
-1.36572e-07
-0.00910102
0.00282961
-1.1476e-06
-3.48861e-05
-2.34126e-06
-1.46444e-08
6.63501e-06
-1.60875e-09
0.000798431
-0.000894231
0.00112311
-0.013289
2.61265e-08
2.03859e-07
-0.011567
-0.000569806
0.00109216
1.04127e-06
2.68827e-07
-4.81251e-05
-5.22634e-09
-1.70451e-05
-1.93019e-05
-1.12612e-06
-6.02286e-09
-2.50186e-09
-2.41838e-08
-0.00068728
-7.25337e-08
-1.18443e-06
2.42464e-08
1.51921e-07
-2.46975e-07
-0.00139719
2.19364e-08
-9.08761e-05
5.07898e-08
-1.00021e-07
2.78586e-06
2.45215e-08
-3.60673e-08
-2.09326e-08
-1.02418e-07
-1.26377e-08
-1.13136e-07
-1.6606e-08
0.0156326
1.36915e-06
0.00164613
-1.32556e-08
-1.63154e-07
-1.39494e-08
-1.27368e-05
3.38058e-06
-9.24103e-09
5.00461e-08
1.07642e-07
-6.48192e-05
-3.27466e-06
1.5348e-07
-0.00135924
-9.17811e-07
8.07507e-08
4.97766e-08
0.0110394
8.83002e-05
7.56519e-08
-2.64189e-08
0.00106968
2.8323e-10
7.95916e-08
-3.28503e-08
1.97919e-05
0.00207729
7.17033e-09
3.08213e-08
-0.000828375
3.64356e-08
-0.00143368
0.000975893
-1.74969e-07
4.87826e-09
1.76436e-09
-3.23193e-08
-6.79911e-09
0.000440648
0.00965991
-1.95788e-07
-5.63202e-08
-0.00189284
-1.41382e-10
7.62377e-08
-0.00642246
-2.01575e-08
-0.00317785
2.91988e-09
-7.48961e-08
-4.98725e-08
6.37281e-08
-4.85653e-08
-5.7234e-10
0.000602145
4.27202e-08
1.64623e-09
6.13036e-07
-3.37308e-08
-1.72135e-08
-8.48383e-09
2.76857e-08
-1.62156e-09
-1.20142e-06
-1.27373e-08
-4.41372e-08
0.00253437
1.01316e-06
3.28521e-08
-3.55446e-06
-7.2165e-07
-8.67523e-08
-9.52201e-08
-5.7695e-07
-0.0135485
5.12033e-08
-3.43355e-07
1.45165e-08
1.8167e-08
-3.33882e-08
6.929e-07
3.03871e-08
3.252e-07
4.13106e-08
1.59781e-07
3.11091e-07
0.000694213
-1.75645e-05
8.33043e-08
-7.93159e-09
-1.10763e-07
-8.5555e-07
1.58359e-08
0.000942803
8.75889e-10
-1.14118e-08
-1.06397e-08
-6.34568e-07
-0.0013838
-1.76323e-10
1.38275e-07
3.23401e-09
-1.68491e-06
6.80097e-09
6.37689e-08
0.00280855
-9.98864e-10
2.11569e-08
9.38978e-10
8.04605e-07
5.31572e-09
-4.28381e-08
0.0138422
-0.00394886
-3.03619e-06
-1.22866e-07
-0.00234197
-6.41577e-08
7.98683e-09
7.21791e-08
-0.000219047
5.83665e-08
-7.40433e-07
-1.30664e-06
-7.49003e-09
-6.86152e-08
2.85134e-09
-4.79143e-08
-1.3313e-07
-2.7489e-08
-3.98381e-06
-0.000299968
6.87211e-09
3.14986e-09
-0.00182948
2.35031e-08
0.000355772
-0.000707958
9.94273e-07
3.05201e-09
-2.42505e-08
9.93473e-10
-2.96104e-07
1.69588e-09
-4.44293e-08
0.000433583
2.73483e-06
6.53638e-07
6.90583e-08
-7.57268e-08
-2.29007e-06
-5.21882e-09
-7.26049e-08
2.14608e-08
-1.23224e-06
-9.75651e-07
-1.06094e-07
7.51741e-08
3.92596e-08
7.3761e-09
1.5709e-08
-1.2633e-07
-0.0282596
-9.48622e-08
-1.78147e-06
1.17708e-09
8.75999e-08
-0.00109168
0.0100445
-7.90202e-05
9.39126e-08
0.00097237
1.57847e-09
7.64011e-09
4.94678e-08
-1.14322e-07
1.60769e-09
-5.68062e-09
1.12518e-07
-2.05433e-07
-1.24122e-08
-1.26067e-08
5.61782e-08
-5.62035e-10
3.22043e-07
-0.0014597
-0.000363173
-3.33096e-08
0.000987288
2.08783e-07
-5.4863e-10
2.6607e-07
-4.41086e-08
-4.17192e-07
-3.18325e-08
3.21732e-08
0.00160106
-0.000246278
-0.000299099
4.7548e-08
0.000483733
3.62715e-08
2.57391e-05
0.00176532
-4.09789e-09
-4.46274e-07
-1.69454e-06
-2.73504e-08
-1.24348e-08
4.95848e-05
4.23669e-09
-3.17788e-08
8.37557e-07
0.000528394
-6.56121e-09
1.38512e-07
-4.32693e-10
1.66687e-07
-3.02742e-06
-5.86877e-10
0.00156933
1.91304e-09
-1.40238e-08
-0.00017575
-8.78072e-08
-1.1815e-06
-1.06144e-09
-1.28948e-06
-9.77861e-08
-0.0023056
2.39074e-08
-4.09906e-08
0.0026724
-1.37528e-08
-0.00123323
-1.5827e-08
-4.38283e-08
-0.0106601
0.00742758
-4.89189e-08
-3.64902e-09
-3.53364e-08
-3.52594e-08
9.3128e-08
-9.06403e-08
4.8245e-09
0.000351712
4.88836e-08
6.12529e-08
1.0998e-06
-1.09863e-06
-8.7971e-09
-6.86347e-09
-0.00461413
-6.69999e-07
4.26772e-08
-3.38537e-08
8.97646e-08
-7.25147e-09
-0.00901713
-2.85347e-08
-4.30508e-08
-6.77124e-08
-0.0014547
2.90314e-08
-1.932e-08
-0.00319098
1.65398e-07
-0.0021443
2.64607e-07
-3.88822e-10
3.04958e-09
-0.00231105
2.29337e-07
-1.58507e-08
-0.00912409
-0.00186897
4.92987e-09
0.000495637
-1.68012e-06
1.7075e-08
5.39656e-08
1.50035e-06
2.72659e-09
0.00107435
-1.77781e-08
-5.99953e-09
1.77513e-05
7.7578e-05
6.50808e-07
-9.81515e-08
0.000949233
-4.69629e-08
-1.70581e-05
0.00500673
9.02834e-08
0.000579335
-3.14775e-08
-1.30081e-08
2.2631e-07
0.00519602
-1.75254e-08
8.52182e-09
0.00446793
-4.447e-10
-1.57674e-07
-1.58621e-08
-2.49358e-08
-0.000839048
-9.84954e-08
-9.4743e-08
9.30026e-08
-0.000442575
8.40968e-09
5.67823e-08
-1.98566e-07
-2.9092e-06
1.84449e-07
5.90406e-08
5.18023e-08
3.57049e-09
4.39745e-08
4.84684e-09
-2.58704e-08
2.62068e-08
-0.000180095
-1.17595e-08
0.00314495
-9.2986e-08
2.58673e-07
-1.92246e-08
-5.71132e-08
-1.77231e-08
6.12761e-08
-0.000861341
-0.000460163
3.67574e-08
-5.42544e-09
0.000253826
2.67583e-08
0.00265346
-6.78926e-08
1.29687e-06
-0.00179222
0.000268894
0.00642473
6.63649e-08
2.13294e-08
6.7091e-09
0.00990845
-6.88045e-08
-3.09927e-08
-1.55095e-06
-6.92147e-08
6.53271e-09
-1.52432e-08
0.000946124
-0.000892437
5.67787e-09
7.94437e-07
0.00180602
1.56171e-07
-1.38808e-08
1.17258e-08
0.0107662
6.1196e-09
9.31652e-07
-4.39716e-10
-1.23198e-08
3.22152e-08
-2.25179e-08
-1.11536e-06
6.12334e-08
4.47684e-08
-4.67205e-09
-1.6857e-08
-1.44623e-06
-2.56209e-08
2.29854e-09
4.27723e-08
6.99983e-08
-7.09898e-06
0.00161465
-6.37847e-08
-1.22544e-07
5.77737e-08
6.15571e-09
3.53666e-09
0.000814561
8.98445e-08
-3.28102e-08
-7.19848e-08
-0.00178021
-1.36016e-08
3.17678e-08
0.00222438
-4.74907e-10
-1.20276e-06
-3.80612e-07
3.23513e-08
0.00134725
0.0070183
-6.2645e-08
0.000571107
1.54664e-07
-5.45624e-07
2.18863e-08
-0.000960071
-7.42115e-09
-0.0299478
-1.85304e-08
-3.69996e-09
-0.00605504
8.81604e-05
-2.62003e-05
2.49124e-06
4.05761e-08
-0.00575153
5.95435e-09
-0.0039233
-3.1443e-07
-1.09632e-08
2.30707e-08
-2.57271e-08
-3.42446e-08
-3.45794e-08
-0.00347266
1.2691e-07
7.59071e-08
-1.79566e-08
1.63865e-08
0.0007721
3.18128e-07
-3.00437e-08
2.70997e-09
3.98399e-08
1.41444e-07
1.42641e-05
-2.67896e-08
-3.24916e-08
-7.83009e-07
8.78643e-08
1.56194e-07
-8.11153e-09
-3.08215e-07
5.76888e-07
4.87035e-08
-4.05987e-07
5.21997e-09
-3.65319e-08
-0.000379547
7.56716e-08
-5.28413e-07
-0.00417109
-2.49361e-08
0.000437383
-0.000284313
2.87527e-07
-0.00158636
5.09868e-08
0.0182198
0.010427
-1.61619e-06
-1.70881e-09
-0.00018648
-3.29679e-06
-2.04695e-08
1.53609e-08
0.00157436
-1.38301e-07
-1.8553e-08
6.85537e-08
-8.90774e-10
-0.00131445
-1.13823e-07
2.28732e-08
-4.31188e-10
5.30171e-08
5.01466e-07
5.25597e-07
0.000727066
-8.3825e-07
0.000979971
1.22294e-07
5.47152e-10
4.58039e-08
-8.79739e-05
0.000360809
2.04009e-08
7.49494e-09
5.10618e-07
4.14952e-08
5.21479e-06
0.0185933
0.000382263
6.96893e-08
6.64694e-08
-0.00395107
-4.81394e-08
0.00101483
-3.77144e-05
-1.37642e-09
0.0116729
-1.96094e-07
-2.53839e-06
-6.12341e-09
-0.000252652
-8.9128e-09
-4.00325e-05
-2.24203e-10
-1.75073e-07
7.11869e-08
-3.44618e-08
-0.00596806
9.05019e-08
6.90007e-08
6.63859e-08
-0.00164401
-9.84828e-09
-2.38268e-08
0.000955412
9.44306e-08
1.0349e-08
9.67657e-11
1.66428e-07
-8.92355e-09
2.31205e-09
-6.58361e-08
2.30336e-09
2.10371e-08
2.3509e-08
1.01187e-06
0.000768264
-8.26564e-07
-0.000700153
2.57092e-07
-7.0991e-08
7.68838e-08
8.22077e-09
7.1437e-08
0.000330819
0.000265325
-1.95641e-08
-4.90081e-10
5.79497e-08
0.013201
-2.25701e-08
-3.09023e-05
0.000554299
0.00935117
-0.000729463
-0.00163853
-0.00100171
1.40014e-08
0.0149677
-0.00205572
-0.000356649
-7.8547e-08
1.75358e-08
2.96881e-07
-1.60895e-08
0.0111185
-2.73454e-06
-3.15624e-07
1.26392e-07
-0.000969823
-1.09775e-08
1.96561e-09
0.0180855
-3.29069e-06
-1.12465e-07
-4.73018e-09
2.83434e-07
-3.63257e-10
-0.0524278
0.00146259
0.000823202
0.00529593
-9.73391e-07
-0.000270432
3.02081e-08
-4.11297e-06
-2.14492e-09
3.93534e-08
8.32229e-09
0.000746444
-5.57568e-08
-7.68739e-08
-0.00131185
0.00107349
1.06335e-05
-4.30674e-06
-5.08694e-08
7.17336e-08
-0.0010087
0.000950227
0.0177762
0.00120301
2.9801e-07
-0.000972479
-2.90854e-06
-0.000353432
-1.70688e-07
5.51337e-07
7.80114e-08
-6.48687e-08
5.04005e-07
-1.98759e-08
0.0165177
-2.96549e-08
-1.14414e-07
-3.72357e-08
-0.00330356
-1.11186e-07
7.1564e-09
-2.32053e-08
2.04904e-08
6.30692e-08
-1.70005e-06
-0.000831184
9.06466e-08
-0.00177338
1.40783e-09
8.61646e-08
-1.03031e-06
-1.90574e-07
2.22747e-09
0.00755758
8.79745e-08
-0.00327954
-2.05014e-08
7.28499e-05
-1.58297e-07
6.73868e-08
-7.26945e-09
6.51568e-08
0.000705863
-0.00356539
0.000596582
-9.92339e-09
-7.04302e-08
-1.76321e-08
-0.00323878
-7.81628e-08
-1.46483e-08
-0.000193456
8.6387e-08
-1.47115e-08
1.43278e-05
2.0905e-08
3.78228e-08
-1.33652e-08
6.03994e-08
1.89183e-08
6.72381e-09
-2.42301e-09
3.43987e-09
-1.09469e-06
6.21646e-08
8.8928e-09
0.000973802
1.41388e-07
-0.00196192
0.000952153
1.77047e-08
0.00268004
-0.00329668
-5.75289e-08
1.10976e-07
-9.84183e-09
-1.10369e-08
-0.00124866
-9.75113e-08
-0.00242714
-9.01886e-08
-4.66325e-07
-8.80371e-10
-9.47104e-08
1.30605e-08
0.0112009
-1.12272e-07
0.00103656
4.77438e-08
-6.99894e-07
2.26281e-07
2.14984e-09
5.20004e-08
3.25073e-08
-1.14029e-09
-0.00708129
-8.80249e-10
1.76458e-07
-2.07582e-08
-8.32885e-08
3.25075e-08
-7.01672e-06
-7.08575e-08
-9.49291e-07
0.00848641
1.42782e-07
5.54942e-07
1.83332e-08
-0.000161934
-4.23027e-08
-1.20103e-10
3.11474e-08
-0.000708581
-0.00142402
1.53075e-08
9.49269e-08
-5.61591e-10
4.18649e-09
6.35137e-08
-0.0017659
1.92453e-07
-9.7735e-09
-0.000803976
-8.0537e-10
-2.08932e-08
-9.41809e-08
-0.000260182
1.94718e-08
-0.00151851
0.0119831
2.02868e-06
-0.00164142
1.12186e-07
-0.00316451
0.000270502
-2.84265e-08
2.26779e-07
5.47781e-08
4.52857e-08
5.09906e-08
0.000430929
-4.59696e-07
6.42577e-05
-2.65389e-06
3.35035e-08
-0.00273334
1.64346e-08
0.012306
-7.06885e-10
-0.0010953
0.0107432
5.08682e-09
-1.40724e-08
5.64367e-10
2.2055e-07
-9.45027e-07
-1.53789e-08
-0.0013419
7.35655e-08
6.06731e-07
1.90119e-08
-2.2158e-08
-1.36355e-08
0.00297388
-4.69528e-08
-3.50013e-06
-6.94595e-08
-0.000441214
-2.48462e-09
5.23578e-08
0.0120729
-1.79282e-09
-2.22905e-09
1.99004e-08
-5.15142e-08
-2.43892e-07
-7.07072e-06
-9.93481e-08
-2.08138e-08
1.58834e-07
5.3612e-08
-1.27698e-07
-0.000120729
-7.34374e-09
4.48211e-08
0.00267222
-6.57689e-06
5.17044e-08
-6.15203e-07
-4.01957e-08
2.51144e-09
1.61637e-06
2.52042e-06
-7.09992e-07
-1.08749e-09
4.80762e-08
2.41087e-08
-1.2558e-06
-9.45973e-08
4.7126e-07
3.38576e-08
-1.13832e-08
8.90854e-09
4.25481e-08
0.010482
-1.38782e-08
-0.00339176
2.14906e-05
2.05781e-09
-3.63982e-08
0.0177649
0.00222535
-3.57217e-08
2.25004e-09
0.00172476
-1.23919e-07
8.55253e-07
2.18621e-07
2.32734e-05
3.48162e-08
-6.08611e-08
-4.24251e-09
-1.15494e-08
-0.00420845
-3.2108e-06
-4.9995e-08
2.24679e-08
6.82589e-08
-7.43746e-09
1.56685e-06
4.65915e-09
-9.29466e-07
-3.93803e-08
1.03639e-07
-6.04119e-09
1.63786e-08
2.7711e-06
-8.71724e-08
0.00203989
4.36995e-07
6.22962e-08
6.55041e-08
-1.74147e-08
6.35571e-08
0.00128815
-3.50794e-10
3.28789e-06
1.03602e-08
-1.13107e-08
-4.76069e-08
0.00900255
4.58466e-10
-1.17098e-08
6.906e-08
-1.16595e-07
1.27695e-07
1.32139e-07
0.00128717
3.81998e-07
1.5247e-09
-2.50031e-06
-0.00239555
-1.17101e-07
1.41809e-07
0.000263617
8.5984e-08
-5.15441e-08
0.0104442
2.13589e-08
-0.00130016
5.99039e-07
-1.59719e-08
-1.95613e-07
-2.98093e-08
8.06463e-08
5.51908e-08
0.00748682
5.23635e-08
0.00199115
-0.00258744
-0.000164271
4.33164e-07
-1.21828e-08
0.0186833
-3.14374e-10
-0.000646418
-4.69599e-08
-1.69553e-06
-9.35313e-08
4.97457e-07
-5.04492e-08
-0.00573595
1.56838e-07
-1.13212e-09
-0.00132036
-0.00195223
-1.20082e-08
0.00223017
-1.64678e-08
1.81456e-08
-2.21066e-08
0.000432948
-0.000220134
-1.05178e-07
-7.95061e-08
0.00605576
-1.20825e-07
4.5011e-09
-1.02452e-07
-2.90183e-08
2.16817e-09
-3.18679e-08
-9.95713e-08
0.000851702
0.0166494
-1.19785e-07
6.80895e-07
5.89102e-09
5.40146e-07
-2.13786e-08
0.000479214
0.000580451
0.000995774
-1.36178e-08
3.22265e-05
0.000862575
-9.82372e-08
1.36864e-07
6.91092e-08
1.25494e-06
-0.00183708
8.37431e-08
-2.97333e-08
-1.09354e-08
1.63207e-07
-2.13708e-08
-1.43671e-08
-9.65481e-05
-8.7758e-08
-8.83842e-07
5.48738e-08
-1.98874e-08
-4.27571e-08
-8.10983e-09
4.9138e-08
0.00181683
-1.77632e-09
6.93629e-08
1.70678e-09
-0.00334907
-6.07468e-08
-1.05827e-07
-0.00166017
-0.00447042
-5.86153e-08
-0.00363561
5.88659e-07
2.90835e-09
1.24308e-07
-2.08711e-08
1.69053e-07
-1.89458e-09
6.78826e-09
-3.35102e-06
-1.95205e-06
0.00114052
-1.52143e-06
-6.50169e-09
-0.000591842
-6.51903e-09
-1.88372e-08
1.2187e-07
0.00117829
0.00674162
-0.00595989
5.6756e-08
-1.22064e-09
-0.00169986
0.000460113
7.64216e-10
0.0183341
2.03918e-09
1.06386e-07
3.0236e-09
-3.42036e-08
2.50228e-08
-7.58437e-08
-3.94119e-06
3.31172e-08
6.57924e-08
2.12649e-08
-1.23739e-08
-2.60316e-08
7.97116e-09
1.99235e-09
-4.75072e-10
1.2463e-08
-0.000874343
-0.00143826
0.000383085
-3.38227e-08
-0.012721
-2.31466e-07
-0.00348325
-0.0134893
-2.18911e-07
-1.65771e-09
1.19376e-08
1.46696e-07
-1.13061e-07
0.0126787
-0.00150333
-1.69608e-08
-1.4179e-08
4.21837e-07
-0.00227979
-3.62071e-08
0.00345169
3.9214e-08
-3.43257e-09
-0.00296978
7.34697e-08
-7.05154e-08
5.11829e-10
0.00187869
1.90566e-08
8.52893e-08
7.74193e-06
-1.49758e-08
-9.41624e-09
-4.70517e-08
-1.61516e-08
1.09476e-06
9.24975e-08
0.000607157
-1.9505e-08
2.45085e-09
1.79193e-08
0.000869365
5.68717e-08
-7.29469e-08
0.00102071
-8.36632e-09
2.28743e-08
-1.27983e-06
-5.93773e-05
1.74863e-08
0.000448022
-0.00147215
1.23386e-07
-0.00128857
-1.68257e-09
1.27957e-08
6.78914e-07
-2.18905e-08
0.00190996
-0.00208433
9.22432e-09
2.28804e-07
3.57392e-08
0.00067604
0.00559996
-3.92266e-08
3.22766e-09
-6.98441e-05
-5.80991e-08
-2.41472e-07
1.14937e-07
-6.07949e-09
1.0674e-07
8.52251e-08
1.24245e-08
0.00894715
7.33371e-09
1.31356e-08
-2.5475e-08
-0.00310336
-8.85583e-07
0.00265008
-7.16545e-09
2.51607e-07
-5.96791e-09
6.18789e-08
7.28367e-09
-1.26484e-08
4.20331e-09
5.99705e-08
-3.32426e-09
-9.15634e-10
1.60677e-07
-1.17533e-07
7.04453e-08
-2.47669e-08
0.000808985
-0.00153851
8.35914e-08
1.24477e-07
0.0102117
-1.59395e-09
-9.09628e-07
0.00135469
6.12107e-06
-0.00363865
-0.000165915
-0.00403641
0.0192829
0.000872982
2.74739e-08
1.35526e-07
3.85194e-08
4.23841e-08
9.93138e-08
1.18483e-09
-3.72824e-08
0.000680528
-1.66202e-08
-3.5426e-08
0.00183643
9.65032e-10
-1.89613e-08
1.12633e-07
-1.74435e-08
-1.64626e-08
-6.77477e-09
4.6376e-08
-0.00159495
0.000865818
-2.51552e-08
8.80004e-08
-8.22769e-09
-1.38502e-07
-7.86103e-08
-6.74238e-08
0.0170946
1.84937e-06
5.28287e-09
0.00171797
1.906e-07
8.23037e-08
0.00132083
-6.94003e-11
1.3084e-06
1.81352e-09
-7.78105e-08
-1.35184e-07
0.000433513
8.16794e-08
-1.41172e-08
1.598e-07
6.964e-08
1.3476e-07
1.07233e-08
-0.00243828
5.44897e-08
3.8203e-07
-0.00529646
-0.00382309
-1.96694e-06
2.47947e-07
0.0185605
-2.03164e-08
-2.91001e-08
1.73565e-07
-0.00239271
1.22555e-06
4.5365e-08
-0.00161683
-1.63555e-08
0.00397376
-7.39527e-06
-0.0013716
-1.27302e-08
-1.02699e-07
6.59359e-08
-5.50318e-07
4.16666e-08
-0.000176686
-0.00277144
-2.07065e-08
9.83616e-08
5.11813e-09
1.88089e-09
0.000159481
4.26773e-08
3.87373e-07
3.31363e-07
-3.21725e-07
7.73484e-08
-1.68883e-10
6.97563e-10
-8.89525e-08
-1.24315e-08
4.49868e-08
4.71401e-08
-5.58086e-09
-1.9406e-08
1.47951e-07
-1.023e-08
0.000375477
-6.09396e-05
-1.27592e-07
-4.86792e-08
1.9556e-08
1.89609e-09
2.16181e-08
4.73933e-11
-0.00151756
7.20357e-07
-1.72518e-08
-3.77963e-09
0.00226087
0.000542995
-1.103e-08
-4.14927e-06
-8.52667e-08
-3.58949e-08
0.000816725
-4.01994e-08
-1.07716e-08
-1.00136e-09
0.00176905
-0.00317488
-1.3835e-09
9.52757e-08
-0.00211833
7.89948e-08
-0.0154424
-6.53774e-10
-9.84391e-08
-0.00180371
-0.00508375
1.56031e-07
-5.75555e-08
-1.18968e-07
-4.76123e-08
6.36363e-08
-0.000978966
0.00022831
0.0145936
-5.21951e-09
-1.162e-07
-3.50667e-07
-1.44378e-08
8.71262e-06
-8.01189e-09
-0.00153329
2.21293e-08
-6.28797e-10
1.82833e-08
5.34529e-08
6.71128e-09
-1.1249e-06
-0.00877359
-5.04517e-08
-2.58452e-08
-2.36056e-09
0.000752224
-1.15247e-07
-2.68286e-08
4.60395e-10
6.88115e-08
0.00156651
-1.56428e-08
-4.79159e-08
1.46375e-08
-1.01836e-06
-1.92831e-09
-3.77716e-08
6.34298e-09
-1.07715e-07
-5.48241e-07
-3.62379e-09
-0.00512817
-6.50823e-05
-1.30307e-06
-0.00329359
6.90095e-09
-4.20396e-08
-3.91517e-08
-0.000837379
-9.64311e-08
0.000680386
-2.33534e-08
-0.00220522
7.40126e-08
5.35211e-08
1.28004e-07
-1.03209e-07
0.000971703
-1.54084e-07
1.41506e-07
1.14291e-05
-1.57902e-06
3.08489e-09
6.7908e-09
-5.52942e-10
1.70513e-07
-0.00199196
5.46343e-07
-4.06267e-09
-4.65579e-06
3.56643e-08
-0.00119705
8.03256e-08
0.000219671
1.61279e-07
-0.00101525
-0.000595096
-3.94973e-07
5.82688e-08
-1.39347e-08
6.4243e-09
-0.00318444
1.86821e-08
1.8333e-07
-0.0137172
-6.65706e-09
-0.00124755
-2.79762e-08
6.66609e-08
6.04686e-07
8.33275e-09
3.39607e-08
0.000584217
0.000178802
-0.00145687
7.90832e-08
-9.06017e-09
-1.40232e-07
1.66059e-07
1.02413e-07
5.20119e-08
-0.00252999
6.99365e-07
0.000694461
1.01014e-07
6.30725e-09
-0.00500226
-1.55759e-05
-6.10424e-08
-4.923e-08
0.000850339
-7.74977e-08
-0.00200207
5.28636e-08
-1.91325e-08
-4.07522e-09
-4.77643e-08
-5.49351e-09
2.39428e-10
2.59155e-09
-4.39371e-08
-0.00918702
8.43694e-08
-0.00142294
-1.03737e-07
5.9874e-09
7.04287e-10
-3.29515e-06
-9.31844e-09
1.06847e-07
-2.28561e-08
0.00102277
0.000237117
1.88997e-09
4.10439e-08
5.8992e-08
1.81238e-08
-8.962e-11
-1.85164e-08
8.98307e-08
0.000194469
-2.54292e-08
-3.92691e-08
-4.79989e-07
1.32268e-08
0.0134237
-9.19611e-07
6.15796e-07
-4.64147e-06
1.58742e-07
-6.0025e-09
0.0109796
-7.33275e-08
9.10727e-07
4.1362e-07
-4.05992e-08
4.50121e-08
-6.46082e-09
0.000602627
-1.43005e-08
2.43748e-08
-0.00201605
-1.85774e-07
0.000924912
-2.6072e-09
-1.59217e-06
-7.56906e-08
-6.17336e-08
0.0124294
5.04879e-10
-4.86732e-08
-1.4986e-08
1.3005e-07
-1.54953e-08
-0.000748287
-3.56415e-08
1.53603e-07
0.00134229
-1.14919e-05
-2.49148e-08
-6.62423e-05
-6.5598e-09
7.53998e-05
-1.01315e-07
1.11281e-07
1.6058e-07
0.0129913
3.8098e-08
7.46464e-08
0.00208743
1.97071e-08
1.69421e-08
-4.73676e-08
-3.51272e-07
0.00160634
-0.0109325
-8.64057e-08
7.20459e-07
-2.90926e-08
-1.2135e-06
-1.06831e-08
-6.00857e-08
1.0016e-06
0.000563826
-1.99494e-09
-3.11081e-08
-9.62112e-08
0.000271416
4.5781e-08
-1.25536e-06
-0.00318116
-3.52697e-08
-0.00546606
-7.83041e-09
-1.77548e-06
2.76216e-08
1.31812e-07
0.00300492
-5.19344e-08
1.0578e-08
-3.56319e-05
3.03006e-06
0.000541459
-3.34996e-08
0.00718104
2.03894e-05
1.89182e-08
8.27249e-08
-0.00123173
-4.04128e-10
5.00724e-08
0.0172193
8.056e-09
-1.36828e-07
1.86933e-09
1.05094e-08
-2.25271e-06
-9.20353e-07
6.18376e-07
-0.00171625
-5.41243e-11
-5.32263e-07
-7.3237e-08
-5.37151e-08
-3.88544e-08
6.20005e-07
-1.17046e-07
-9.37092e-11
-0.00686195
0.00150556
-0.00144006