/*--------------------------------*- C++ -*----------------------------------*\
| =========                 |                                                 |
| \\      /  F ield         | OpenFOAM: The Open Source CFD Toolbox           |
|  \\    /   O peration     | Version:  v2012                                 |
|   \\  /    A nd           | Website:  www.openfoam.com                      |
|    \\/     M anipulation  |                                                 |
\*---------------------------------------------------------------------------*/
FoamFile
{
    version     2.0;
    format      ascii;
    class       volVectorField;
    location    "250";
    object      cellDisplacement;
}
// * * * * * * * * * * * * * * * * * * * * * * * * * * * * * * * * * * * * * //

dimensions      [0 1 0 0 0 0 0];


internalField   nonuniform List<vector> 
9793
(
(0 0.0144204 0)
(0 0.014996 0)
(0 0.0120635 0)
(0 0.014996 0)
(0 0.00181462 0)
(0 0.0149833 0)
(0 0.0149799 0)
(0 0.0149959 0)
(0 0.0140848 0)
(0 0.014996 0)
(0 0.00357858 0)
(0 0.00393926 0)
(0 0.00971148 0)
(0 0.0149932 0)
(0 0.0131125 0)
(0 0.0145186 0)
(0 0.0149369 0)
(0 0.0117912 0)
(0 0.0149959 0)
(0 0.00858174 0)
(0 0.0115723 0)
(0 0.00039178 0)
(0 0.014996 0)
(0 0.0149959 0)
(0 0.0149931 0)
(0 0.0148488 0)
(0 0.0065064 0)
(0 0.000866557 0)
(0 0.00871551 0)
(0 0.0149704 0)
(0 0.014996 0)
(0 0.0149895 0)
(0 0.0101194 0)
(0 0.0110974 0)
(0 0.001075 0)
(0 0.0147458 0)
(0 0.0144068 0)
(0 0.0148196 0)
(0 0.0149951 0)
(0 0.014835 0)
(0 0.0149667 0)
(0 0.0149937 0)
(0 0.0149958 0)
(0 0.000642496 0)
(0 0.0117192 0)
(0 0.00952291 0)
(0 0.014996 0)
(0 0.000677552 0)
(0 0.0126803 0)
(0 0.0117775 0)
(0 0.0147384 0)
(0 0.00130502 0)
(0 0.0148681 0)
(0 0.00133265 0)
(0 0.0149361 0)
(0 0.014996 0)
(0 0.00917532 0)
(0 0.0149498 0)
(0 0.0127069 0)
(0 0.00036375 0)
(0 0.0148648 0)
(0 0.0149904 0)
(0 0.0116202 0)
(0 0.0147877 0)
(0 0.00222679 0)
(0 0.0140162 0)
(0 0.014996 0)
(0 0.014585 0)
(0 0.0144266 0)
(0 0.014995 0)
(0 0.0138088 0)
(0 0.0149919 0)
(0 0.0149959 0)
(0 0.0149339 0)
(0 0.0149931 0)
(0 0.0013735 0)
(0 0.014975 0)
(0 0.0149948 0)
(0 0.0110159 0)
(0 0.00135653 0)
(0 0.0149777 0)
(0 0.0149959 0)
(0 0.0149296 0)
(0 0.0147138 0)
(0 0.0144418 0)
(0 0.0149886 0)
(0 0.00173246 0)
(0 0.0149069 0)
(0 0.0149949 0)
(0 0.01499 0)
(0 0.014996 0)
(0 0.0149935 0)
(0 0.0149935 0)
(0 0.0149249 0)
(0 0.0149958 0)
(0 0.0120544 0)
(0 0.0149932 0)
(0 0.0149373 0)
(0 0.0146869 0)
(0 0.00145175 0)
(0 0.0149953 0)
(0 0.0148583 0)
(0 0.0149424 0)
(0 0.0115338 0)
(0 0.0149906 0)
(0 0.0149952 0)
(0 0.0149284 0)
(0 0.00807804 0)
(0 0.0109685 0)
(0 0.000734979 0)
(0 0.00171811 0)
(0 0.014996 0)
(0 0.014996 0)
(0 0.014996 0)
(0 0.013778 0)
(0 0.00707711 0)
(0 0.014236 0)
(0 0.0093227 0)
(0 0.014996 0)
(0 0.009955 0)
(0 0.0149902 0)
(0 0.0149166 0)
(0 0.014993 0)
(0 0.0148831 0)
(0 0.0144209 0)
(0 0.00980258 0)
(0 0.0149488 0)
(0 0.014996 0)
(0 0.0149468 0)
(0 0.0149455 0)
(0 0.0144276 0)
(0 0.0114054 0)
(0 0.0143951 0)
(0 0.0144833 0)
(0 0.0147174 0)
(0 0.0149869 0)
(0 0.014988 0)
(0 0.0142582 0)
(0 0.0010472 0)
(0 0.014946 0)
(0 0.0149958 0)
(0 0.0147373 0)
(0 0.0137518 0)
(0 0.0148859 0)
(0 0.014996 0)
(0 0.0149941 0)
(0 0.00979425 0)
(0 0.0149937 0)
(0 0.0115282 0)
(0 0.00992525 0)
(0 0.00791701 0)
(0 0.0149958 0)
(0 0.0146571 0)
(0 0.00654631 0)
(0 0.0131213 0)
(0 0.0149938 0)
(0 0.0149421 0)
(0 0.0116829 0)
(0 0.0149904 0)
(0 0.0134419 0)
(0 0.0149023 0)
(0 0.0144641 0)
(0 0.0116196 0)
(0 0.0149951 0)
(0 0.0137161 0)
(0 0.0149945 0)
(0 0.0149444 0)
(0 0.0139389 0)
(0 0.00763763 0)
(0 0.00298941 0)
(0 0.0137729 0)
(0 0.014996 0)
(0 0.0149959 0)
(0 0.0149901 0)
(0 0.00986667 0)
(0 0.0149814 0)
(0 0.01499 0)
(0 0.0149955 0)
(0 0.0112826 0)
(0 0.014558 0)
(0 0.0149899 0)
(0 0.014996 0)
(0 0.0149208 0)
(0 0.00978349 0)
(0 0.00864435 0)
(0 0.00791499 0)
(0 0.0149924 0)
(0 0.014996 0)
(0 0.0149958 0)
(0 0.0149445 0)
(0 0.0139085 0)
(0 0.014996 0)
(0 0.0149953 0)
(0 0.0148308 0)
(0 0.0128437 0)
(0 0.0146697 0)
(0 0.0149959 0)
(0 0.00790886 0)
(0 0.0119187 0)
(0 0.00404356 0)
(0 0.0139476 0)
(0 0.0118108 0)
(0 0.0147503 0)
(0 0.0145444 0)
(0 0.0149959 0)
(0 0.0134651 0)
(0 0.0147903 0)
(0 0.0139373 0)
(0 0.0143942 0)
(0 0.0149951 0)
(0 0.0149414 0)
(0 0.0149958 0)
(0 0.00715173 0)
(0 0.0149952 0)
(0 0.0147268 0)
(0 0.0147194 0)
(0 0.0132127 0)
(0 0.0149864 0)
(0 0.00676273 0)
(0 0.0149801 0)
(0 0.0149427 0)
(0 0.0118773 0)
(0 0.0149958 0)
(0 0.014985 0)
(0 0.0149196 0)
(0 0.0124578 0)
(0 0.0149104 0)
(0 0.0149759 0)
(0 0.0149789 0)
(0 0.01498 0)
(0 0.0149959 0)
(0 0.0149417 0)
(0 0.0147112 0)
(0 0.0148018 0)
(0 0.0149952 0)
(0 0.0118457 0)
(0 0.014996 0)
(0 0.014996 0)
(0 0.00761732 0)
(0 0.00336267 0)
(0 0.0149932 0)
(0 0.0132638 0)
(0 0.00163834 0)
(0 0.0149533 0)
(0 0.0149608 0)
(0 0.0139873 0)
(0 0.0145671 0)
(0 0.014805 0)
(0 0.0149522 0)
(0 0.0145402 0)
(0 0.0112412 0)
(0 0.0149476 0)
(0 0.014996 0)
(0 0.0117175 0)
(0 0.0149885 0)
(0 0.00156018 0)
(0 0.00456163 0)
(0 0.00202119 0)
(0 0.014996 0)
(0 0.0112372 0)
(0 0.0149941 0)
(0 0.0149942 0)
(0 0.00474874 0)
(0 0.00645797 0)
(0 0.0149937 0)
(0 0.0015071 0)
(0 0.00253703 0)
(0 0.00135359 0)
(0 0.0149945 0)
(0 0.0149948 0)
(0 0.0148039 0)
(0 0.0149945 0)
(0 0.0149494 0)
(0 0.0149461 0)
(0 0.014996 0)
(0 0.0140027 0)
(0 0.0149959 0)
(0 0.00143266 0)
(0 0.0149745 0)
(0 0.0149958 0)
(0 0.0149941 0)
(0 0.0149907 0)
(0 0.0149424 0)
(0 0.0144256 0)
(0 0.0149229 0)
(0 0.0145179 0)
(0 0.0129148 0)
(0 0.0139448 0)
(0 0.0149948 0)
(0 0.0148626 0)
(0 0.00614848 0)
(0 0.000215179 0)
(0 0.00743179 0)
(0 0.00178969 0)
(0 0.0117546 0)
(0 0.014996 0)
(0 0.00877055 0)
(0 0.0129849 0)
(0 0.00164078 0)
(0 0.00940086 0)
(0 0.014996 0)
(0 0.014994 0)
(0 0.0149869 0)
(0 0.0146242 0)
(0 0.014892 0)
(0 0.00134153 0)
(0 0.0149222 0)
(0 0.0149959 0)
(0 0.0114306 0)
(0 0.014994 0)
(0 0.0147798 0)
(0 0.0118329 0)
(0 0.014996 0)
(0 0.0149279 0)
(0 0.00995265 0)
(0 0.0149531 0)
(0 0.0149958 0)
(0 0.0142557 0)
(0 0.0149491 0)
(0 0.0130021 0)
(0 0.0143448 0)
(0 0.0149741 0)
(0 0.0149641 0)
(0 0.0109201 0)
(0 0.010119 0)
(0 0.0145931 0)
(0 0.0149909 0)
(0 0.014996 0)
(0 0.0120182 0)
(0 0.00833858 0)
(0 0.0128798 0)
(0 0.014996 0)
(0 0.0149959 0)
(0 0.0149959 0)
(0 0.0117338 0)
(0 0.0149677 0)
(0 0.0149526 0)
(0 0.0149957 0)
(0 0.0149417 0)
(0 0.0118823 0)
(0 0.0122674 0)
(0 0.0128633 0)
(0 0.014915 0)
(0 0.0141556 0)
(0 0.0149959 0)
(0 0.00804305 0)
(0 0.0113055 0)
(0 0.0149693 0)
(0 0.014996 0)
(0 0.0149952 0)
(0 0.00182013 0)
(0 0.0149954 0)
(0 0.0147695 0)
(0 0.0149958 0)
(0 0.0149959 0)
(0 0.0149959 0)
(0 0.0146681 0)
(0 0.0148485 0)
(0 0.0149885 0)
(0 0.014996 0)
(0 0.014996 0)
(0 0.0148652 0)
(0 0.000956179 0)
(0 0.0148189 0)
(0 0.0125095 0)
(0 0.00870667 0)
(0 0.0141069 0)
(0 0.00681161 0)
(0 8.7931e-05 0)
(0 0.0149958 0)
(0 0.00342026 0)
(0 0.0149534 0)
(0 0.0148197 0)
(0 0.0149856 0)
(0 0.0118618 0)
(0 0.0147291 0)
(0 0.014996 0)
(0 0.0149955 0)
(0 0.0149914 0)
(0 0.0149368 0)
(0 0.0111101 0)
(0 0.0146843 0)
(0 0.0119428 0)
(0 0.0149929 0)
(0 0.00356693 0)
(0 0.0149951 0)
(0 0.0149921 0)
(0 0.0149803 0)
(0 0.0149959 0)
(0 0.0149713 0)
(0 0.00397964 0)
(0 0.0123029 0)
(0 0.0149887 0)
(0 0.0149927 0)
(0 0.0134315 0)
(0 0.0149959 0)
(0 0.00420824 0)
(0 0.00489169 0)
(0 0.0149958 0)
(0 0.00689191 0)
(0 0.0149525 0)
(0 0.0118825 0)
(0 0.014948 0)
(0 0.00780461 0)
(0 0.0137058 0)
(0 0.0149758 0)
(0 0.014991 0)
(0 0.0147953 0)
(0 0.0148357 0)
(0 0.00512988 0)
(0 0.0127052 0)
(0 0.0149931 0)
(0 0.014937 0)
(0 0.0111297 0)
(0 0.00448124 0)
(0 0.0149393 0)
(0 0.0149526 0)
(0 0.014784 0)
(0 0.014996 0)
(0 0.00436127 0)
(0 0.0112698 0)
(0 0.0149949 0)
(0 0.00499684 0)
(0 0.014996 0)
(0 0.0149953 0)
(0 0.00892822 0)
(0 0.00988706 0)
(0 0.0139134 0)
(0 0.00450518 0)
(0 0.0127581 0)
(0 0.0149951 0)
(0 0.014981 0)
(0 0.0149942 0)
(0 0.0149029 0)
(0 0.0141742 0)
(0 0.0148863 0)
(0 0.0148034 0)
(0 0.014996 0)
(0 0.0148572 0)
(0 0.00157771 0)
(0 0.0145881 0)
(0 0.0149935 0)
(0 0.0137665 0)
(0 0.01352 0)
(0 0.0138878 0)
(0 0.00331561 0)
(0 0.00965594 0)
(0 0.0131432 0)
(0 0.00947185 0)
(0 0.00346641 0)
(0 0.0145975 0)
(0 0.0145213 0)
(0 0.0149517 0)
(0 0.00135093 0)
(0 0.0149959 0)
(0 0.0148315 0)
(0 0.0149929 0)
(0 0.014996 0)
(0 0.0129493 0)
(0 0.0149674 0)
(0 0.0149775 0)
(0 0.0128727 0)
(0 0.00440687 0)
(0 0.0138084 0)
(0 0.0149866 0)
(0 0.0149518 0)
(0 0.00413162 0)
(0 0.00708504 0)
(0 0.00424199 0)
(0 0.0149868 0)
(0 0.0149912 0)
(0 0.014995 0)
(0 0.0021955 0)
(0 0.0130967 0)
(0 0.0149311 0)
(0 0.014996 0)
(0 0.0149944 0)
(0 0.0147314 0)
(0 0.0143002 0)
(0 0.0149872 0)
(0 0.0149942 0)
(0 0.0149732 0)
(0 0.0142955 0)
(0 0.0113567 0)
(0 0.0149959 0)
(0 0.0121963 0)
(0 0.01499 0)
(0 0.014988 0)
(0 0.0109303 0)
(0 0.0149944 0)
(0 0.0147557 0)
(0 0.0149957 0)
(0 0.0125867 0)
(0 0.0149959 0)
(0 0.0149886 0)
(0 0.0144981 0)
(0 0.0149935 0)
(0 0.0120531 0)
(0 0.0149955 0)
(0 0.00792439 0)
(0 0.012151 0)
(0 0.00271975 0)
(0 0.0115879 0)
(0 0.0149935 0)
(0 0.0121836 0)
(0 0.0126113 0)
(0 0.0146116 0)
(0 0.0117553 0)
(0 0.0114746 0)
(0 0.0149582 0)
(0 0.0145677 0)
(0 0.0147932 0)
(0 0.00556531 0)
(0 0.00535966 0)
(0 0.014996 0)
(0 0.014989 0)
(0 0.0147106 0)
(0 0.0149891 0)
(0 0.0144926 0)
(0 0.0142974 0)
(0 0.01114 0)
(0 0.0127922 0)
(0 0.0149959 0)
(0 0.0125759 0)
(0 0.00105792 0)
(0 0.014996 0)
(0 0.0149937 0)
(0 0.0149504 0)
(0 0.00948268 0)
(0 0.000744007 0)
(0 0.0139467 0)
(0 0.00235616 0)
(0 0.0149888 0)
(0 0.0143021 0)
(0 0.0149428 0)
(0 0.0143963 0)
(0 0.0149959 0)
(0 0.00164429 0)
(0 0.014996 0)
(0 0.00064699 0)
(0 0.0149917 0)
(0 0.0122625 0)
(0 0.0148943 0)
(0 0.014996 0)
(0 0.00759688 0)
(0 0.0149936 0)
(0 0.0129525 0)
(0 0.000284783 0)
(0 0.0113685 0)
(0 0.0149895 0)
(0 0.014996 0)
(0 0.0138229 0)
(0 0.0147733 0)
(0 0.0125305 0)
(0 0.0149864 0)
(0 0.00162766 0)
(0 0.0149463 0)
(0 0.0149958 0)
(0 0.0148295 0)
(0 0.00165983 0)
(0 0.0149748 0)
(0 0.0010383 0)
(0 0.0139791 0)
(0 0.012975 0)
(0 0.0149456 0)
(0 0.00508158 0)
(0 0.0149843 0)
(0 0.00528455 0)
(0 0.0141747 0)
(0 0.014805 0)
(0 0.014988 0)
(0 0.0149838 0)
(0 0.0128528 0)
(0 0.014996 0)
(0 0.0123054 0)
(0 0.0149921 0)
(0 0.01304 0)
(0 0.0138682 0)
(0 0.0122104 0)
(0 0.00543384 0)
(0 0.00145275 0)
(0 0.0149928 0)
(0 0.0147253 0)
(0 0.014994 0)
(0 0.0149765 0)
(0 0.0149518 0)
(0 0.0149401 0)
(0 0.0149958 0)
(0 0.0145182 0)
(0 0.0149898 0)
(0 0.0149959 0)
(0 0.0149925 0)
(0 0.0149949 0)
(0 0.0149868 0)
(0 0.014991 0)
(0 0.0139623 0)
(0 0.014996 0)
(0 0.0147969 0)
(0 0.0137953 0)
(0 0.014993 0)
(0 0.000912253 0)
(0 0.0149948 0)
(0 0.0149425 0)
(0 0.0149797 0)
(0 0.0148921 0)
(0 0.014996 0)
(0 0.014996 0)
(0 0.0147944 0)
(0 0.0149772 0)
(0 0.00360954 0)
(0 0.0149947 0)
(0 0.0146223 0)
(0 0.0121394 0)
(0 0.0141274 0)
(0 0.0140886 0)
(0 0.0149307 0)
(0 0.0149958 0)
(0 0.014994 0)
(0 0.014996 0)
(0 0.0144812 0)
(0 0.0146946 0)
(0 0.0149956 0)
(0 0.0149951 0)
(0 0.0142607 0)
(0 0.0149332 0)
(0 0.0144355 0)
(0 0.0149958 0)
(0 0.0149733 0)
(0 0.00905089 0)
(0 0.014987 0)
(0 0.0149945 0)
(0 0.0149959 0)
(0 0.00195936 0)
(0 0.0148362 0)
(0 0.0149947 0)
(0 0.0147268 0)
(0 0.0149923 0)
(0 0.0149012 0)
(0 0.014984 0)
(0 0.0148203 0)
(0 0.014553 0)
(0 0.0136945 0)
(0 0.0130474 0)
(0 0.0149462 0)
(0 0.000696906 0)
(0 0.0149486 0)
(0 0.0149793 0)
(0 0.014981 0)
(0 0.000485195 0)
(0 0.00188142 0)
(0 0.0141979 0)
(0 0.0134411 0)
(0 0.00175634 0)
(0 0.0132653 0)
(0 0.0149742 0)
(0 0.0149851 0)
(0 0.0149933 0)
(0 0.000639178 0)
(0 0.0149924 0)
(0 0.00893561 0)
(0 0.0149959 0)
(0 0.0148706 0)
(0 0.0149742 0)
(0 0.0149498 0)
(0 0.0149881 0)
(0 0.00666695 0)
(0 0.00820484 0)
(0 0.0149711 0)
(0 0.0123085 0)
(0 0.0138769 0)
(0 0.0149395 0)
(0 0.0149951 0)
(0 0.01189 0)
(0 0.0149489 0)
(0 0.0149942 0)
(0 0.0145704 0)
(0 0.0149758 0)
(0 0.014994 0)
(0 0.0132592 0)
(0 0.0149432 0)
(0 0.0145548 0)
(0 0.0138731 0)
(0 0.0111953 0)
(0 0.0149912 0)
(0 0.0149939 0)
(0 0.0149959 0)
(0 0.0138411 0)
(0 0.0102499 0)
(0 0.0114618 0)
(0 0.0142491 0)
(0 0.0145485 0)
(0 0.0147087 0)
(0 0.0149954 0)
(0 0.0148656 0)
(0 0.00370469 0)
(0 0.0149937 0)
(0 0.0147559 0)
(0 0.0149465 0)
(0 0.0138097 0)
(0 0.014996 0)
(0 0.0143856 0)
(0 0.00398784 0)
(0 0.0149811 0)
(0 0.014996 0)
(0 0.0113239 0)
(0 0.00935318 0)
(0 0.0117495 0)
(0 0.0144535 0)
(0 0.0064207 0)
(0 0.0148044 0)
(0 0.0149893 0)
(0 0.014243 0)
(0 0.0149447 0)
(0 0.0142159 0)
(0 0.0137227 0)
(0 0.0149853 0)
(0 0.0149959 0)
(0 0.0149693 0)
(0 0.0077254 0)
(0 0.0115781 0)
(0 0.0149695 0)
(0 0.014841 0)
(0 0.0149589 0)
(0 0.0110786 0)
(0 0.0130487 0)
(0 0.014996 0)
(0 0.0149405 0)
(0 0.0148219 0)
(0 0.0149527 0)
(0 0.0149856 0)
(0 0.0124516 0)
(0 0.000412828 0)
(0 0.0138434 0)
(0 0.0149958 0)
(0 0.00126392 0)
(0 0.000103908 0)
(0 0.0149959 0)
(0 0.0148837 0)
(0 0.0149896 0)
(0 0.0149427 0)
(0 0.00902036 0)
(0 0.0149959 0)
(0 0.00121253 0)
(0 0.0129181 0)
(0 0.0138003 0)
(0 0.014915 0)
(0 0.014996 0)
(0 0.00469548 0)
(0 0.0114317 0)
(0 0.0124358 0)
(0 0.0123329 0)
(0 0.00910535 0)
(0 0.0137619 0)
(0 0.0149951 0)
(0 0.0149246 0)
(0 0.0145694 0)
(0 0.00597744 0)
(0 0.014927 0)
(0 0.0149501 0)
(0 0.0144992 0)
(0 0.0149012 0)
(0 0.000189671 0)
(0 0.0113176 0)
(0 0.0146132 0)
(0 0.014996 0)
(0 0.0149836 0)
(0 0.0141182 0)
(0 0.014996 0)
(0 0.00366583 0)
(0 0.0148063 0)
(0 0.014994 0)
(0 0.014996 0)
(0 0.0130141 0)
(0 0.00417692 0)
(0 0.0149952 0)
(0 0.0149091 0)
(0 0.00405637 0)
(0 0.00226077 0)
(0 0.0149852 0)
(0 0.000305397 0)
(0 0.0149662 0)
(0 0.0100547 0)
(0 0.0149955 0)
(0 0.00225064 0)
(0 0.00072825 0)
(0 0.00688751 0)
(0 0.0148547 0)
(0 0.0133607 0)
(0 0.0147846 0)
(0 0.0148553 0)
(0 0.0149935 0)
(0 0.00892671 0)
(0 0.00947904 0)
(0 0.000663355 0)
(0 0.0121719 0)
(0 0.0139148 0)
(0 0.0134195 0)
(0 0.0148332 0)
(0 0.00743119 0)
(0 0.0148921 0)
(0 0.0149907 0)
(0 0.0149073 0)
(0 0.0149456 0)
(0 0.00415203 0)
(0 0.0129823 0)
(0 0.014996 0)
(0 0.0149615 0)
(0 0.0109999 0)
(0 0.0149799 0)
(0 0.014996 0)
(0 0.0116874 0)
(0 0.0115248 0)
(0 0.0112637 0)
(0 0.0149801 0)
(0 0.0148938 0)
(0 0.014996 0)
(0 0.00886012 0)
(0 0.0147478 0)
(0 0.00735048 0)
(0 0.0143868 0)
(0 0.000710849 0)
(0 0.0149833 0)
(0 0.013887 0)
(0 0.0149887 0)
(0 0.00716253 0)
(0 0.0149803 0)
(0 0.00854494 0)
(0 0.0146401 0)
(0 0.0131232 0)
(0 0.0147127 0)
(0 0.0149856 0)
(0 0.014996 0)
(0 0.0149166 0)
(0 0.01498 0)
(0 0.0149029 0)
(0 0.0131662 0)
(0 0.0149958 0)
(0 0.014996 0)
(0 0.0149089 0)
(0 0.0137392 0)
(0 0.00681697 0)
(0 0.014996 0)
(0 0.0113795 0)
(0 0.014996 0)
(0 0.011979 0)
(0 0.0146929 0)
(0 0.0139426 0)
(0 0.00154048 0)
(0 0.0131085 0)
(0 0.0149931 0)
(0 0.0149958 0)
(0 0.014996 0)
(0 0.0149881 0)
(0 0.014996 0)
(0 0.0115392 0)
(0 0.0149869 0)
(0 0.0149954 0)
(0 0.000222876 0)
(0 0.0141322 0)
(0 0.00804616 0)
(0 0.0149821 0)
(0 0.010725 0)
(0 0.0149959 0)
(0 0.0149386 0)
(0 0.0149769 0)
(0 0.0142525 0)
(0 0.0149939 0)
(0 0.014996 0)
(0 0.014996 0)
(0 0.0149007 0)
(0 0.0148336 0)
(0 0.00174231 0)
(0 0.0149958 0)
(0 0.0108306 0)
(0 0.0149956 0)
(0 0.0149848 0)
(0 0.014986 0)
(0 0.0149949 0)
(0 0.0149947 0)
(0 0.01451 0)
(0 0.014603 0)
(0 0.00538347 0)
(0 0.0148898 0)
(0 0.0149959 0)
(0 0.014996 0)
(0 0.00771614 0)
(0 0.014996 0)
(0 0.0144599 0)
(0 0.0149588 0)
(0 0.0149929 0)
(0 0.0149949 0)
(0 0.0149946 0)
(0 0.0122427 0)
(0 0.0148458 0)
(0 0.0147614 0)
(0 0.0143862 0)
(0 0.0142346 0)
(0 0.0149823 0)
(0 0.00412404 0)
(0 0.0149952 0)
(0 0.00173575 0)
(0 0.0120845 0)
(0 0.0149749 0)
(0 0.0149581 0)
(0 0.0149802 0)
(0 0.014268 0)
(0 0.0149957 0)
(0 0.0149952 0)
(0 0.0149933 0)
(0 0.0148742 0)
(0 0.000974651 0)
(0 0.0142637 0)
(0 0.00100478 0)
(0 0.0133445 0)
(0 0.0149935 0)
(0 0.0149553 0)
(0 0.0141102 0)
(0 0.0131589 0)
(0 0.0147712 0)
(0 0.0149959 0)
(0 0.0147819 0)
(0 0.0128775 0)
(0 0.0149953 0)
(0 0.0118842 0)
(0 0.00113771 0)
(0 0.0110315 0)
(0 0.0148914 0)
(0 0.00987544 0)
(0 0.0144839 0)
(0 0.014996 0)
(0 0.0149536 0)
(0 0.000343435 0)
(0 0.014996 0)
(0 0.0149924 0)
(0 0.0119315 0)
(0 0.0140761 0)
(0 0.0148466 0)
(0 0.000329096 0)
(0 0.00882459 0)
(0 0.0126065 0)
(0 0.0149951 0)
(0 0.0149218 0)
(0 0.0142774 0)
(0 0.0148571 0)
(0 0.0149581 0)
(0 0.0149944 0)
(0 0.0136803 0)
(0 0.0149891 0)
(0 0.00844423 0)
(0 0.0077169 0)
(0 0.0149956 0)
(0 0.0149827 0)
(0 0.0149382 0)
(0 0.014077 0)
(0 0.0110096 0)
(0 0.014996 0)
(0 0.0149948 0)
(0 0.0149915 0)
(0 0.0149958 0)
(0 0.00622818 0)
(0 0.0141444 0)
(0 0.0100425 0)
(0 0.014996 0)
(0 0.0147661 0)
(0 0.0149696 0)
(0 0.0145782 0)
(0 0.0137423 0)
(0 0.0142129 0)
(0 0.00174261 0)
(0 0.00745495 0)
(0 0.0149822 0)
(0 0.0109804 0)
(0 0.0149874 0)
(0 0.00162425 0)
(0 0.0143027 0)
(0 0.0112726 0)
(0 0.0144673 0)
(0 0.014992 0)
(0 0.014996 0)
(0 0.0148735 0)
(0 0.014996 0)
(0 0.00868581 0)
(0 0.0149414 0)
(0 0.0142975 0)
(0 0.0149916 0)
(0 0.0129989 0)
(0 0.012145 0)
(0 0.0149517 0)
(0 0.0149421 0)
(0 0.0149415 0)
(0 0.00619561 0)
(0 0.0149707 0)
(0 0.0149934 0)
(0 0.0149943 0)
(0 0.0142371 0)
(0 0.0149491 0)
(0 0.0149957 0)
(0 0.0147335 0)
(0 0.0149932 0)
(0 0.0149767 0)
(0 0.0149774 0)
(0 0.0129282 0)
(0 0.0145442 0)
(0 0.0149031 0)
(0 0.0149878 0)
(0 0.0084401 0)
(0 0.0148969 0)
(0 0.00801977 0)
(0 0.00475378 0)
(0 0.0143419 0)
(0 0.012657 0)
(0 0.0130938 0)
(0 0.0109325 0)
(0 0.0149956 0)
(0 0.0147701 0)
(0 0.0143949 0)
(0 0.0149535 0)
(0 0.0112114 0)
(0 0.0126209 0)
(0 0.0149238 0)
(0 0.0149936 0)
(0 0.0149903 0)
(0 0.0149622 0)
(0 0.0149891 0)
(0 0.00161936 0)
(0 0.0149958 0)
(0 0.0148821 0)
(0 0.014996 0)
(0 0.0149792 0)
(0 0.00425976 0)
(0 0.0138119 0)
(0 0.0144397 0)
(0 0.0149958 0)
(0 0.0149959 0)
(0 0.0149627 0)
(0 0.0149912 0)
(0 0.0111198 0)
(0 0.0136506 0)
(0 0.00213357 0)
(0 0.00420729 0)
(0 0.014996 0)
(0 0.0146944 0)
(0 0.0136448 0)
(0 0.0149794 0)
(0 0.014995 0)
(0 0.014989 0)
(0 0.0143491 0)
(0 0.01495 0)
(0 0.0149833 0)
(0 0.0148806 0)
(0 0.0147539 0)
(0 0.0149954 0)
(0 0.0149909 0)
(0 0.0142612 0)
(0 0.0149943 0)
(0 0.0149812 0)
(0 0.0149657 0)
(0 0.0149943 0)
(0 0.0148918 0)
(0 0.0139495 0)
(0 0.000229478 0)
(0 0.013004 0)
(0 0.0146341 0)
(0 0.0148767 0)
(0 0.0149959 0)
(0 0.014902 0)
(0 0.00127269 0)
(0 0.014988 0)
(0 0.00697504 0)
(0 0.014996 0)
(0 0.014996 0)
(0 0.00900904 0)
(0 0.0149959 0)
(0 0.00161162 0)
(0 0.01281 0)
(0 0.013496 0)
(0 0.0149949 0)
(0 0.0149953 0)
(0 0.014883 0)
(0 0.0149294 0)
(0 0.0126273 0)
(0 0.0149927 0)
(0 0.000188907 0)
(0 0.0148638 0)
(0 0.0065433 0)
(0 0.0142535 0)
(0 0.0135576 0)
(0 0.0149856 0)
(0 0.0145766 0)
(0 0.0149666 0)
(0 0.0148803 0)
(0 0.00242838 0)
(0 0.0149951 0)
(0 0.0149844 0)
(0 0.0147687 0)
(0 0.014792 0)
(0 0.0144743 0)
(0 0.0149958 0)
(0 0.0149719 0)
(0 0.0131648 0)
(0 0.0126904 0)
(0 0.0131686 0)
(0 0.0145063 0)
(0 0.014996 0)
(0 0.0149952 0)
(0 0.0149872 0)
(0 0.0148044 0)
(0 0.0114285 0)
(0 0.0149952 0)
(0 0.0149666 0)
(0 0.0142573 0)
(0 0.0149958 0)
(0 0.0105338 0)
(0 0.0149693 0)
(0 0.014996 0)
(0 0.0107114 0)
(0 0.014996 0)
(0 0.0149958 0)
(0 0.0149825 0)
(0 0.014996 0)
(0 0.014986 0)
(0 0.0130885 0)
(0 0.0145467 0)
(0 0.0149958 0)
(0 0.0149958 0)
(0 0.0145068 0)
(0 0.014996 0)
(0 0.0146969 0)
(0 0.0130208 0)
(0 0.00127946 0)
(0 0.0143078 0)
(0 0.0148766 0)
(0 0.0146899 0)
(0 0.014995 0)
(0 0.014996 0)
(0 0.0149945 0)
(0 0.0149438 0)
(0 0.00111101 0)
(0 0.0149704 0)
(0 0.014996 0)
(0 0.0125117 0)
(0 0.014996 0)
(0 0.0149465 0)
(0 0.00219588 0)
(0 0.0147574 0)
(0 0.00152579 0)
(0 0.0143037 0)
(0 0.0149345 0)
(0 0.0149959 0)
(0 0.0140057 0)
(0 0.00961343 0)
(0 0.014996 0)
(0 0.0149945 0)
(0 0.0149222 0)
(0 0.00165105 0)
(0 0.0149486 0)
(0 0.0125909 0)
(0 0.00174339 0)
(0 0.0149841 0)
(0 0.0149942 0)
(0 0.00536766 0)
(0 0.0070546 0)
(0 0.0149876 0)
(0 0.014996 0)
(0 0.0149445 0)
(0 0.0143546 0)
(0 0.0149952 0)
(0 0.0141725 0)
(0 0.00811678 0)
(0 0.0140816 0)
(0 0.00527697 0)
(0 0.0109606 0)
(0 0.00757323 0)
(0 0.0149948 0)
(0 0.0149373 0)
(0 0.0148215 0)
(0 0.0149958 0)
(0 0.0148796 0)
(0 0.0149951 0)
(0 0.0149944 0)
(0 0.0149941 0)
(0 0.0149724 0)
(0 0.0136391 0)
(0 0.00225769 0)
(0 0.0140072 0)
(0 0.00473765 0)
(0 0.0149872 0)
(0 0.00879559 0)
(0 0.0149925 0)
(0 0.0148056 0)
(0 0.0149839 0)
(0 0.00908302 0)
(0 0.0149959 0)
(0 0.0149576 0)
(0 0.0149959 0)
(0 0.00150391 0)
(0 0.0149959 0)
(0 0.0147167 0)
(0 0.0149754 0)
(0 0.0149872 0)
(0 0.0148658 0)
(0 0.00745096 0)
(0 0.0149951 0)
(0 0.0149341 0)
(0 0.0149942 0)
(0 0.01081 0)
(0 0.0149839 0)
(0 0.00962474 0)
(0 0.014996 0)
(0 0.0149935 0)
(0 0.014971 0)
(0 0.0126034 0)
(0 0.0082174 0)
(0 0.0149905 0)
(0 0.014996 0)
(0 0.0147766 0)
(0 0.0116935 0)
(0 0.0149701 0)
(0 0.0149833 0)
(0 0.0149002 0)
(0 0.0149223 0)
(0 0.0149892 0)
(0 0.0137341 0)
(0 0.0149599 0)
(0 0.0129602 0)
(0 0.0147858 0)
(0 0.011934 0)
(0 0.0149945 0)
(0 0.0119656 0)
(0 0.0140671 0)
(0 0.0149883 0)
(0 0.014996 0)
(0 0.00352313 0)
(0 0.0149628 0)
(0 0.014432 0)
(0 0.0149887 0)
(0 0.00851064 0)
(0 0.014993 0)
(0 0.0147172 0)
(0 0.0149817 0)
(0 0.0137842 0)
(0 0.00503133 0)
(0 0.014996 0)
(0 0.0147218 0)
(0 0.0149959 0)
(0 0.0149575 0)
(0 0.014996 0)
(0 0.0145805 0)
(0 0.012095 0)
(0 0.0127438 0)
(0 0.0146938 0)
(0 0.0148551 0)
(0 0.0148202 0)
(0 0.014996 0)
(0 0.0145176 0)
(0 0.0149438 0)
(0 0.0149639 0)
(0 0.0009371 0)
(0 0.0138069 0)
(0 0.0149177 0)
(0 0.0149875 0)
(0 0.014996 0)
(0 0.0130715 0)
(0 0.0149959 0)
(0 0.00755192 0)
(0 0.0149898 0)
(0 0.0149959 0)
(0 0.0148933 0)
(0 0.0108232 0)
(0 0.0125687 0)
(0 0.0149232 0)
(0 0.0149939 0)
(0 0.0146796 0)
(0 0.00136279 0)
(0 0.0141639 0)
(0 0.0148977 0)
(0 0.0140163 0)
(0 0.0149954 0)
(0 0.0149959 0)
(0 0.014996 0)
(0 0.00591655 0)
(0 0.0147162 0)
(0 0.0149953 0)
(0 0.00457601 0)
(0 0.0149857 0)
(0 0.0132111 0)
(0 0.0149938 0)
(0 0.0149471 0)
(0 0.0119565 0)
(0 0.0149675 0)
(0 0.014994 0)
(0 0.0132871 0)
(0 0.0149667 0)
(0 0.0127864 0)
(0 0.0149762 0)
(0 0.0149934 0)
(0 0.014988 0)
(0 0.0149949 0)
(0 0.00526149 0)
(0 0.0143163 0)
(0 0.0149957 0)
(0 0.0142398 0)
(0 0.0149576 0)
(0 0.0149436 0)
(0 0.0145154 0)
(0 0.0108004 0)
(0 0.014995 0)
(0 0.0148041 0)
(0 0.0149951 0)
(0 0.0140046 0)
(0 0.0149864 0)
(0 0.0144714 0)
(0 0.0149953 0)
(0 0.0148177 0)
(0 0.0146647 0)
(0 0.0149658 0)
(0 0.0149955 0)
(0 0.00738472 0)
(0 0.000924321 0)
(0 0.0149927 0)
(0 0.0149936 0)
(0 0.0149959 0)
(0 0.0149952 0)
(0 0.0146854 0)
(0 0.0129891 0)
(0 0.0124049 0)
(0 0.0149935 0)
(0 0.00650648 0)
(0 0.0149874 0)
(0 0.0149821 0)
(0 0.0149695 0)
(0 0.000674565 0)
(0 0.0104841 0)
(0 0.00977602 0)
(0 0.0149079 0)
(0 0.014739 0)
(0 0.014996 0)
(0 0.0149942 0)
(0 0.0149935 0)
(0 0.0149806 0)
(0 0.0055546 0)
(0 0.014996 0)
(0 0.014559 0)
(0 0.0148837 0)
(0 0.01422 0)
(0 0.0148994 0)
(0 0.014984 0)
(0 0.0126775 0)
(0 0.00858499 0)
(0 0.0149078 0)
(0 0.0101716 0)
(0 0.0149307 0)
(0 0.0149869 0)
(0 0.0149959 0)
(0 0.0149902 0)
(0 0.014744 0)
(0 0.0149942 0)
(0 0.0126982 0)
(0 0.0119853 0)
(0 0.00510622 0)
(0 0.0149942 0)
(0 0.0149843 0)
(0 0.0149304 0)
(0 0.0149827 0)
(0 0.0149938 0)
(0 0.0149563 0)
(0 0.0149919 0)
(0 0.0132534 0)
(0 0.00134999 0)
(0 0.0149959 0)
(0 0.013552 0)
(0 0.0149941 0)
(0 0.00807192 0)
(0 0.0129528 0)
(0 0.0149908 0)
(0 0.0149949 0)
(0 0.0133577 0)
(0 0.0149712 0)
(0 0.0149955 0)
(0 0.0149942 0)
(0 0.0149461 0)
(0 0.0147575 0)
(0 0.0148877 0)
(0 0.0148736 0)
(0 0.0149938 0)
(0 0.0140624 0)
(0 0.0149883 0)
(0 0.0149959 0)
(0 0.0147394 0)
(0 0.0144433 0)
(0 0.0106078 0)
(0 0.0149951 0)
(0 0.0127058 0)
(0 0.0111359 0)
(0 0.0149946 0)
(0 0.0142962 0)
(0 0.0105535 0)
(0 0.0149875 0)
(0 0.0148724 0)
(0 0.0149946 0)
(0 0.0149947 0)
(0 0.014996 0)
(0 0.014996 0)
(0 0.0120602 0)
(0 0.0131055 0)
(0 0.0133444 0)
(0 0.00392944 0)
(0 0.0149925 0)
(0 0.0140887 0)
(0 0.014996 0)
(0 0.0145799 0)
(0 0.014996 0)
(0 0.0147926 0)
(0 0.0142327 0)
(0 0.00674295 0)
(0 0.0143469 0)
(0 0.0149122 0)
(0 0.0137401 0)
(0 0.0105876 0)
(0 0.014986 0)
(0 0.0119767 0)
(0 0.014867 0)
(0 0.0144736 0)
(0 0.014996 0)
(0 0.0147945 0)
(0 0.00853142 0)
(0 0.0132713 0)
(0 0.0149264 0)
(0 0.00799559 0)
(0 0.00671048 0)
(0 0.00747871 0)
(0 0.00373421 0)
(0 0.0141953 0)
(0 0.0131884 0)
(0 0.0146252 0)
(0 0.0149336 0)
(0 0.0149634 0)
(0 0.0149959 0)
(0 0.014996 0)
(0 0.014996 0)
(0 0.0109043 0)
(0 0.00461086 0)
(0 0.0130125 0)
(0 0.0074828 0)
(0 0.0124449 0)
(0 0.0107674 0)
(0 0.0149308 0)
(0 0.0128311 0)
(0 0.00143751 0)
(0 0.00534343 0)
(0 0.00925402 0)
(0 0.0137806 0)
(0 0.0149959 0)
(0 0.0141799 0)
(0 0.00888183 0)
(0 0.0149958 0)
(0 0.0148649 0)
(0 0.00667064 0)
(0 0.0149959 0)
(0 0.014996 0)
(0 0.00717009 0)
(0 0.0149937 0)
(0 0.0149949 0)
(0 0.0140583 0)
(0 0.0149771 0)
(0 0.0147573 0)
(0 0.00727948 0)
(0 0.0148538 0)
(0 0.00133069 0)
(0 0.0147558 0)
(0 0.00432196 0)
(0 0.00205574 0)
(0 0.0110667 0)
(0 0.014996 0)
(0 0.0145786 0)
(0 0.0149738 0)
(0 0.00391098 0)
(0 0.00122313 0)
(0 0.0149959 0)
(0 0.0148447 0)
(0 0.00700257 0)
(0 0.014649 0)
(0 0.0146488 0)
(0 0.00103031 0)
(0 0.0149942 0)
(0 0.0149959 0)
(0 0.0149937 0)
(0 0.0149952 0)
(0 0.0149946 0)
(0 0.0149534 0)
(0 0.000870807 0)
(0 0.014995 0)
(0 0.0149859 0)
(0 0.0145143 0)
(0 0.0149378 0)
(0 0.000342239 0)
(0 0.0129705 0)
(0 0.00208166 0)
(0 0.0149689 0)
(0 0.0149707 0)
(0 0.00823949 0)
(0 0.00918213 0)
(0 0.0149808 0)
(0 0.0106042 0)
(0 0.0149945 0)
(0 0.0138609 0)
(0 0.0149958 0)
(0 0.0149857 0)
(0 0.01498 0)
(0 0.00850815 0)
(0 0.0146769 0)
(0 0.0149354 0)
(0 0.0149443 0)
(0 0.0142848 0)
(0 0.0149606 0)
(0 0.0149906 0)
(0 0.0149855 0)
(0 0.00130739 0)
(0 0.0149953 0)
(0 0.0149953 0)
(0 0.0107451 0)
(0 0.014994 0)
(0 0.01497 0)
(0 0.0149951 0)
(0 0.0149804 0)
(0 0.0127423 0)
(0 0.0148484 0)
(0 0.0148673 0)
(0 0.00661179 0)
(0 0.0146696 0)
(0 0.00755295 0)
(0 0.0149608 0)
(0 0.0149942 0)
(0 0.0149316 0)
(0 0.00706941 0)
(0 0.0149844 0)
(0 0.014989 0)
(0 0.014996 0)
(0 0.0149945 0)
(0 0.0146371 0)
(0 0.0146975 0)
(0 0.0120813 0)
(0 0.0137123 0)
(0 0.0148705 0)
(0 0.0149798 0)
(0 0.0149958 0)
(0 0.0119153 0)
(0 0.0149953 0)
(0 0.000756052 0)
(0 0.0149945 0)
(0 0.0149859 0)
(0 0.0149846 0)
(0 0.00566473 0)
(0 0.014634 0)
(0 0.014996 0)
(0 0.0149959 0)
(0 0.0149713 0)
(0 0.014996 0)
(0 0.0140001 0)
(0 0.0149942 0)
(0 0.00772259 0)
(0 0.0130117 0)
(0 0.014996 0)
(0 0.0149649 0)
(0 0.0142716 0)
(0 0.00774752 0)
(0 0.0149867 0)
(0 0.0149959 0)
(0 0.0149942 0)
(0 0.0149857 0)
(0 0.0110436 0)
(0 0.00806661 0)
(0 0.00654268 0)
(0 0.014996 0)
(0 0.014996 0)
(0 0.0125797 0)
(0 0.0148765 0)
(0 0.0149906 0)
(0 0.0149663 0)
(0 0.0149922 0)
(0 0.014996 0)
(0 0.0149959 0)
(0 0.0149716 0)
(0 0.0128266 0)
(0 0.0139358 0)
(0 0.0149959 0)
(0 0.0111806 0)
(0 0.0149768 0)
(0 0.0149958 0)
(0 0.0149958 0)
(0 0.0147074 0)
(0 0.0149255 0)
(0 0.014996 0)
(0 0.0149955 0)
(0 0.0149958 0)
(0 0.0149958 0)
(0 0.0149946 0)
(0 0.0149949 0)
(0 0.00575797 0)
(0 0.00235895 0)
(0 0.0109288 0)
(0 0.0140222 0)
(0 0.0149958 0)
(0 0.0149819 0)
(0 0.0149951 0)
(0 0.014995 0)
(0 0.014982 0)
(0 0.0136847 0)
(0 0.0149383 0)
(0 0.0125049 0)
(0 0.014767 0)
(0 0.00837594 0)
(0 0.0149663 0)
(0 0.0149959 0)
(0 0.014994 0)
(0 0.00350858 0)
(0 0.0103979 0)
(0 0.0147242 0)
(0 0.0149579 0)
(0 0.0149877 0)
(0 0.0149959 0)
(0 0.0149733 0)
(0 0.0140971 0)
(0 0.0149898 0)
(0 0.00833106 0)
(0 0.0149913 0)
(0 0.0149386 0)
(0 0.013153 0)
(0 0.0149539 0)
(0 0.014994 0)
(0 0.0149931 0)
(0 0.0149672 0)
(0 0.0142978 0)
(0 0.0113696 0)
(0 0.0149948 0)
(0 0.0148241 0)
(0 0.00995357 0)
(0 0.00632539 0)
(0 0.00203234 0)
(0 0.00451296 0)
(0 0.014996 0)
(0 0.0149942 0)
(0 0.0149959 0)
(0 0.0149959 0)
(0 0.0149959 0)
(0 0.014206 0)
(0 0.0121978 0)
(0 0.0149657 0)
(0 0.0144963 0)
(0 0.0148714 0)
(0 0.0149868 0)
(0 0.00705604 0)
(0 0.0149958 0)
(0 0.014996 0)
(0 0.0149582 0)
(0 0.0149473 0)
(0 0.0149956 0)
(0 0.0146296 0)
(0 0.0149959 0)
(0 0.0149274 0)
(0 0.014996 0)
(0 0.012219 0)
(0 0.0145543 0)
(0 0.0149595 0)
(0 0.014996 0)
(0 0.0149768 0)
(0 0.0149865 0)
(0 0.014996 0)
(0 0.0149699 0)
(0 0.0149879 0)
(0 0.0149782 0)
(0 0.0149959 0)
(0 0.0146309 0)
(0 0.0149952 0)
(0 0.014996 0)
(0 0.014935 0)
(0 0.0149846 0)
(0 0.0149854 0)
(0 0.0147592 0)
(0 0.0149494 0)
(0 0.00602949 0)
(0 0.0148527 0)
(0 0.0148541 0)
(0 0.0149642 0)
(0 0.00725072 0)
(0 0.0149933 0)
(0 0.0149938 0)
(0 0.014996 0)
(0 0.014996 0)
(0 0.014996 0)
(0 0.0149583 0)
(0 0.0149959 0)
(0 0.0149937 0)
(0 0.00743598 0)
(0 0.0149154 0)
(0 0.0149401 0)
(0 0.0149929 0)
(0 0.0148575 0)
(0 0.0147771 0)
(0 0.014995 0)
(0 0.0149943 0)
(0 0.0108083 0)
(0 0.0149947 0)
(0 0.0069748 0)
(0 0.00954064 0)
(0 0.014996 0)
(0 0.0148355 0)
(0 0.014996 0)
(0 0.0149943 0)
(0 0.0149958 0)
(0 0.0149927 0)
(0 0.00685202 0)
(0 0.0148386 0)
(0 0.0139311 0)
(0 0.00722146 0)
(0 0.014992 0)
(0 0.0149309 0)
(0 0.0146945 0)
(0 0.014996 0)
(0 0.014996 0)
(0 0.00115112 0)
(0 0.0146688 0)
(0 0.0149958 0)
(0 0.0143493 0)
(0 0.0149941 0)
(0 0.0149775 0)
(0 0.0149956 0)
(0 0.0149954 0)
(0 0.0149896 0)
(0 0.0149946 0)
(0 0.014996 0)
(0 0.014996 0)
(0 0.0149951 0)
(0 0.0149959 0)
(0 0.0145501 0)
(0 0.0148222 0)
(0 0.01499 0)
(0 0.0149908 0)
(0 0.0149913 0)
(0 0.0149921 0)
(0 0.00443952 0)
(0 0.000737505 0)
(0 0.0149959 0)
(0 0.014996 0)
(0 0.0144662 0)
(0 0.014996 0)
(0 0.0135391 0)
(0 0.0149957 0)
(0 0.0149866 0)
(0 0.0149629 0)
(0 0.00799485 0)
(0 0.0149959 0)
(0 0.0149959 0)
(0 0.0148306 0)
(0 0.0149393 0)
(0 0.0149959 0)
(0 0.0149959 0)
(0 0.014996 0)
(0 0.0149959 0)
(0 0.0139821 0)
(0 0.0149943 0)
(0 0.0149959 0)
(0 0.0149675 0)
(0 0.0149915 0)
(0 0.0149921 0)
(0 0.00615115 0)
(0 0.014736 0)
(0 0.014996 0)
(0 0.0149934 0)
(0 0.0146387 0)
(0 0.000341589 0)
(0 0.0149953 0)
(0 0.0149902 0)
(0 0.0149959 0)
(0 0.0149721 0)
(0 0.0149956 0)
(0 0.0149948 0)
(0 0.0109258 0)
(0 0.014995 0)
(0 0.000154938 0)
(0 0.0146935 0)
(0 0.0141274 0)
(0 0.00175235 0)
(0 0.00370764 0)
(0 0.0149221 0)
(0 0.0149938 0)
(0 0.0072021 0)
(0 0.0149956 0)
(0 0.0148801 0)
(0 0.0149934 0)
(0 0.0149959 0)
(0 0.014996 0)
(0 0.00757249 0)
(0 0.0149879 0)
(0 0.0149959 0)
(0 0.014996 0)
(0 0.0149364 0)
(0 0.0127019 0)
(0 0.0149945 0)
(0 0.0149922 0)
(0 0.0149934 0)
(0 0.0149828 0)
(0 0.0147186 0)
(0 0.00411739 0)
(0 0.0149944 0)
(0 0.014996 0)
(0 0.0149333 0)
(0 0.0149957 0)
(0 0.0149325 0)
(0 0.0142591 0)
(0 0.0149952 0)
(0 0.0149827 0)
(0 0.0149956 0)
(0 0.0135979 0)
(0 0.0145312 0)
(0 0.014996 0)
(0 0.014996 0)