/*--------------------------------*- C++ -*----------------------------------*\
| =========                 |                                                 |
| \\      /  F ield         | OpenFOAM: The Open Source CFD Toolbox           |
|  \\    /   O peration     | Version:  v2012                                 |
|   \\  /    A nd           | Website:  www.openfoam.com                      |
|    \\/     M anipulation  |                                                 |
\*---------------------------------------------------------------------------*/
FoamFile
{
    version     2.0;
    format      ascii;
    class       volScalarField;
    location    "250";
    object      ddt0(k);
}
// * * * * * * * * * * * * * * * * * * * * * * * * * * * * * * * * * * * * * //

dimensions      [0 2 -3 0 0 0 0];


internalField   nonuniform List<scalar> 
9793
(
-2.8946e-08
0.000789673
-3.54278e-08
0.000409946
-4.79727e-08
6.55758e-06
7.26284e-08
-0.00314916
5.15016e-08
0.000243588
-1.03595e-08
-1.0362e-08
3.17805e-08
0.00151482
-8.37637e-08
4.53706e-07
4.00888e-07
4.34364e-08
0.000228
-1.11555e-07
-2.72693e-08
-2.27814e-10
-1.0012e-06
-0.00309875
0.00167381
3.39977e-08
-1.05343e-08
8.62953e-09
-1.10439e-07
6.89718e-07
-0.000281272
0.000199337
-4.69573e-08
-2.33075e-08
-8.07366e-08
4.78386e-07
3.82013e-07
-2.98865e-08
0.000648786
3.15247e-07
5.38037e-07
0.0203505
-0.00664285
-1.33665e-08
6.3527e-09
2.50167e-08
-0.00260166
-1.23046e-08
4.44168e-08
2.06949e-08
4.61045e-07
-7.78131e-08
3.47909e-07
-1.28823e-08
3.8191e-08
0.000429387
2.0351e-08
8.95175e-07
4.13772e-08
-3.36059e-10
4.64306e-09
-5.79555e-07
-1.82076e-08
7.43671e-07
5.38922e-09
3.98665e-08
-0.000622358
2.19571e-07
4.21567e-07
-0.00464978
-4.21925e-08
-6.5391e-08
-0.00384464
0.00885658
-0.0076698
-1.07366e-09
2.55909e-08
0.00450044
2.16513e-09
-1.04932e-08
6.21586e-07
-7.26672e-05
4.01564e-07
-5.38108e-09
4.18567e-07
5.8593e-06
-3.86305e-08
7.43826e-07
0.000623475
-4.24056e-07
0.000193648
-0.00684101
-0.00384514
2.37245e-07
-0.00598999
-2.54437e-08
-0.00935836
3.61317e-07
1.87428e-07
-2.88949e-08
0.00059033
4.09351e-07
0.00608081
4.05835e-09
-0.00389813
-0.00090567
0.00486646
-5.69648e-08
2.63367e-09
-2.5213e-08
-2.6215e-08
7.07575e-05
-1.11368e-05
-0.000173332
-4.29962e-08
-5.82991e-10
3.40525e-07
5.02748e-08
0.000540795
1.16845e-08
-0.00209243
7.98777e-07
-0.00917059
3.21325e-07
3.82728e-07
1.91887e-08
4.59291e-07
-0.000431831
3.64629e-06
7.5631e-06
3.02369e-07
-7.1215e-08
-2.94519e-08
1.79209e-07
4.03051e-07
7.77852e-07
0.0011559
3.47719e-07
2.16532e-09
4.63621e-07
-0.000834028
4.38045e-07
-1.35614e-08
4.93714e-07
-0.00413607
3.61889e-06
1.57608e-08
-0.00900955
-5.43752e-08
2.23443e-08
7.75813e-09
-0.00237875
1.97754e-07
-2.45599e-08
-1.27028e-08
-0.0143565
4.59642e-07
6.43908e-10
0.000328079
-4.48596e-08
5.66216e-07
2.86819e-07
-1.85089e-08
-8.61808e-07
1.2644e-07
0.0123025
0.00299898
1.64359e-07
-2.47056e-08
8.30517e-09
-3.25669e-08
-0.00028351
-0.00212035
0.000435338
2.99995e-08
4.2423e-06
5.54756e-07
-6.62602e-06
-7.02753e-09
2.32858e-07
-0.00538711
-0.00271338
1.02048e-06
2.81185e-08
3.55323e-08
-3.86391e-08
-0.00145489
-0.0031996
0.00390705
0.00715186
1.10256e-08
-0.00198702
-5.68502e-07
-1.29085e-09
3.02325e-08
4.23608e-09
-2.68917e-06
-6.59303e-08
3.46142e-08
5.30161e-09
-1.88692e-08
-3.39149e-08
5.51562e-07
3.84385e-07
0.000933207
1.89047e-08
3.67785e-07
1.63449e-07
-3.93872e-08
-1.15087e-05
4.65401e-07
-0.00138782
-9.81324e-08
-0.00347636
2.92265e-08
1.0111e-06
-6.84773e-08
1.34904e-06
1.35832e-08
-3.73653e-08
3.37629e-07
-3.05643e-08
5.94016e-06
0.000528553
2.32126e-07
-2.92945e-08
3.50841e-07
0.00116188
2.63876e-07
-6.05175e-07
0.000875285
3.73566e-06
1.01496e-06
7.31527e-07
-4.73868e-09
-2.77839e-08
0.000485438
-0.000283465
-6.26762e-08
-3.47077e-08
0.0252379
-5.32899e-08
-2.37402e-08
1.57342e-06
1.90552e-06
2.49465e-08
2.395e-07
2.9735e-07
2.72913e-08
2.86538e-07
2.16378e-09
2.14382e-07
0.000888783
-2.65908e-08
0.000585786
-1.21843e-08
3.91291e-08
-1.49094e-07
0.000477747
1.35062e-08
0.0120242
-0.00296284
-1.22013e-08
2.17382e-08
0.00433769
-6.60519e-08
-1.49136e-08
-1.2478e-07
-0.00226265
-7.75565e-06
4.92193e-08
-1.55041e-05
7.46276e-07
0.0037964
-0.00028726
1.49683e-07
0.00013739
4.33689e-08
0.00164914
-9.1461e-05
0.000636474
-0.00247571
3.35232e-06
3.14538e-07
3.2352e-07
3.56942e-07
-8.31337e-09
1.64538e-07
-1.72327e-06
3.50966e-08
2.39485e-08
2.1232e-09
-7.66363e-08
-1.31036e-07
-3.16463e-08
-8.15299e-05
-2.96521e-08
-9.67562e-08
-1.31668e-07
1.79577e-09
0.000820083
-4.58738e-05
1.0779e-08
-3.12002e-08
4.82868e-07
-1.40907e-07
0.000365524
-0.0016506
8.7478e-09
-0.00419188
7.29302e-07
-5.71345e-09
0.000716631
0.000887113
-4.68884e-08
2.18585e-07
8.30831e-05
-5.92486e-08
5.49854e-08
-9.95272e-08
-4.98003e-08
0.00274626
1.69413e-07
-1.79127e-08
2.4166e-08
-2.94805e-08
3.18143e-07
-5.67163e-06
-2.16135e-08
-7.18045e-08
3.54666e-08
-0.000243619
0.000244014
-0.0014458
-2.38157e-08
3.19264e-07
4.74141e-08
4.38004e-05
5.75172e-07
-3.38449e-08
2.78886e-08
3.63409e-08
3.57906e-07
-5.13533e-08
-0.00260269
-2.34032e-08
-6.67312e-08
0.00101514
1.44606e-05
-0.00233004
-1.48634e-07
0.000581126
8.12475e-08
-2.1824e-05
-0.00296299
0.000867055
1.32142e-08
2.8174e-07
0.00085013
0.000183948
0.000122553
-4.34464e-09
2.20527e-08
3.96183e-08
3.27052e-08
-8.78118e-08
-5.99256e-08
1.45351e-08
-1.39066e-11
-0.00327768
7.77882e-09
4.36882e-07
3.08021e-07
0.0361577
-3.45183e-08
3.29134e-08
0.000475167
-2.13112e-06
0.00185555
4.83649e-07
-4.09734e-08
3.53806e-08
-2.49012e-08
4.58041e-05
-8.772e-08
-0.00202504
-1.55181e-07
4.29154e-07
-0.00112612
0.00268489
-6.82609e-08
-4.93124e-08
0.00173211
8.05852e-05
5.24555e-08
-0.00248113
-6.44686e-08
5.6276e-08
-0.000122006
-7.52374e-08
9.36741e-07
-1.3858e-08
0.00205269
1.83258e-09
1.32822e-07
-0.000257602
-9.37143e-08
7.69812e-07
4.34485e-09
2.01725e-08
-4.62956e-08
-0.0106251
3.07913e-07
1.15656e-08
-4.30742e-08
7.25574e-08
-8.9258e-08
7.66084e-07
-0.00423567
1.1596e-08
-4.12911e-08
5.94543e-06
-4.8497e-09
0.000889604
-2.50162e-06
3.52974e-08
-3.86835e-08
1.65015e-07
-6.28207e-08
4.10136e-08
0.000621807
4.15584e-08
0.0104527
4.14167e-09
2.33507e-07
3.73666e-07
-2.80869e-08
0.000532923
-5.18038e-09
-3.54932e-08
2.26878e-07
-4.69232e-05
-3.03667e-08
-3.98679e-08
-2.40313e-08
-8.88105e-08
2.15446e-08
-5.94766e-08
4.24886e-08
-4.60561e-08
-2.39863e-08
3.5212e-07
1.55399e-06
-1.29948e-07
1.38245e-06
3.67664e-08
-3.69975e-06
-0.000286931
1.45935e-09
0.00191705
1.86072e-07
3.17542e-08
-1.42965e-07
-7.32014e-09
-0.00342496
8.24753e-07
-1.4027e-07
-3.95787e-08
4.81462e-08
-6.92604e-08
1.60651e-08
0.00334765
7.29999e-09
5.10749e-09
2.89195e-08
-0.00180031
0.000656674
1.53567e-08
1.83857e-07
0.000430816
0.0155217
9.39307e-06
-3.57336e-08
-7.31318e-08
0.000921608
1.31674e-08
7.19951e-07
0.0363065
-1.28287e-08
3.67375e-06
3.14111e-07
0.000519223
-4.22475e-08
0.000371339
-3.57064e-05
4.1533e-07
0.00273868
5.00129e-09
1.67903e-05
8.86032e-09
-2.87193e-08
-3.13161e-08
2.67413e-08
-0.00537771
-1.90302e-08
2.36601e-08
-2.52996e-08
-1.43551e-08
-8.47329e-08
2.54702e-07
-2.08881e-08
7.04418e-07
-5.4861e-08
-3.75509e-08
0.000547397
2.81034e-08
1.273e-08
0.000356631
3.17252e-07
-4.39645e-08
-8.71717e-10
2.61752e-08
-0.00200097
2.53223e-08
2.12374e-08
-0.00018466
0.0220332
8.32309e-08
7.12625e-08
-2.42141e-08
1.01726e-07
1.1815e-08
0.000896923
-3.75409e-08
0.0103223
3.40659e-07
5.21823e-06
-9.85209e-09
3.44749e-05
1.3154e-07
1.73596e-06
6.96827e-09
1.37451e-06
0.000838787
2.05066e-09
0.0132134
-9.32269e-08
-3.08756e-09
-5.1892e-08
-0.00604711
0.000919918
-1.91256e-08
3.00733e-07
2.78012e-08
0.000704835
-1.02897e-07
1.88258e-07
0.000187486
-2.45683e-08
4.96568e-08
2.36537e-07
-2.8716e-09
1.24326e-07
3.50633e-08
1.62743e-06
2.7768e-08
0.000173651
-3.25478e-09
-5.17422e-08
7.72834e-07
1.33186e-06
0.00403993
-1.13372e-07
-0.000206421
-4.83229e-08
-7.75291e-07
-3.00083e-08
1.59551e-07
-1.32717e-08
1.75729e-08
-2.2303e-08
-6.22347e-06
9.76723e-07
0.00810655
-1.15714e-07
2.33307e-08
1.08809e-07
3.83972e-05
1.96586e-07
0.000994721
-0.00163206
4.0104e-06
0.0083241
0.0339871
4.89312e-07
1.18368e-07
1.47093e-06
8.04548e-07
1.493e-07
6.50562e-06
-1.12293e-08
-1.19081e-05
1.35352e-07
1.01624e-05
1.24232e-08
0.00013036
-0.004614
7.92545e-07
2.41527e-06
-2.38861e-08
8.53102e-06
1.8132e-08
1.53827e-08
-4.38474e-08
2.62558e-07
3.15536e-07
0.0008718
2.39075e-06
-0.00762366
1.5849e-07
6.40208e-09
0.000500145
-8.93145e-07
1.32156e-07
4.19968e-07
-4.44118e-08
-2.30038e-05
0.000147678
5.05881e-08
5.20228e-09
1.068e-05
-0.002853
-1.48517e-08
4.67662e-08
-0.011021
4.96244e-07
0.00286115
1.4679e-06
0.0398334
5.49767e-08
2.11554e-07
7.36887e-09
-1.49881e-08
1.55318e-05
7.42396e-09
-5.33352e-06
1.2302e-06
-6.8982e-07
-1.82415e-09
1.84792e-08
2.82115e-07
7.79334e-08
-7.19305e-08
-2.4014e-08
1.01507e-06
-0.00325964
0.00166673
1.34066e-08
-2.50532e-05
7.15664e-08
-0.00123888
4.84766e-07
-7.08932e-07
5.61459e-08
-5.87588e-05
-9.57749e-08
3.56302e-09
5.13456e-08
-5.38753e-09
1.04373e-07
4.41689e-07
0.000723581
-3.63819e-08
1.63824e-05
0.000516138
2.70543e-07
0.00223185
0.000386276
-3.14258e-08
4.02648e-07
5.05901e-07
1.11892e-09
-2.95736e-08
3.28247e-07
0.000559169
-0.0066626
-3.74091e-08
2.41512e-08
-9.14778e-08
3.7963e-07
-2.35918e-08
1.46974e-08
-4.45289e-06
4.53013e-07
-6.94995e-08
0.0170235
5.40439e-07
2.22252e-08
8.54951e-08
3.67855e-05
2.96334e-07
5.574e-08
-6.38104e-07
-9.44191e-07
-1.0904e-08
4.70223e-08
-1.96298e-08
4.28377e-07
-9.85603e-08
7.07748e-07
0.000306261
-6.20056e-08
1.66887e-06
1.09552e-07
9.43105e-08
0.00730114
-0.000417211
3.70542e-05
-1.80804e-08
-2.90689e-08
0.0308776
-6.73619e-09
0.00153075
-4.54961e-08
-6.69144e-08
-0.000234589
0.00970676
3.59235e-07
1.21451e-06
-2.03845e-08
-5.43575e-08
2.99294e-09
-1.74514e-08
-0.00398244
2.56471e-08
-2.28012e-11
0.000244164
4.38299e-09
-4.97744e-05
-6.30576e-08
2.119e-08
-5.04339e-05
6.99678e-08
-2.47679e-08
-2.55386e-08
4.00693e-08
0.000434779
3.32704e-08
1.51015e-08
-1.66452e-08
-2.72986e-08
7.09167e-08
-5.62352e-09
0.00164638
3.6907e-08
-1.88223e-08
1.39343e-08
6.92436e-08
4.59241e-07
4.45883e-07
5.5841e-09
-9.73173e-09
-8.35868e-08
3.73594e-08
0.000931514
0.00298409
2.30899e-07
-0.00746587
-3.21597e-08
4.70411e-08
-0.00408043
-4.56695e-06
-3.28911e-08
3.43305e-08
4.23695e-07
3.56896e-07
5.51994e-08
-9.95719e-09
-4.67207e-05
-6.77165e-09
4.45602e-07
-3.3714e-08
-3.08026e-06
7.82118e-10
4.86076e-08
-1.92662e-08
2.30327e-07
8.84609e-08
4.04406e-08
-5.94347e-09
2.03639e-07
-1.34417e-08
2.07866e-08
-3.6916e-10
-2.49188e-08
1.198e-07
1.06092e-07
3.39874e-07
-3.89683e-08
5.37875e-07
0.00208513
2.9252e-07
4.29669e-07
-2.29465e-08
3.73501e-08
-0.000258809
0.0160262
-6.55277e-09
0.00209098
-0.000248862
-3.63155e-08
2.32785e-08
-5.01455e-08
7.36111e-07
5.05647e-07
-4.95962e-06
-2.42347e-08
1.18134e-07
-1.93415e-08
-4.59425e-08
4.55026e-08
-7.63133e-08
1.30681e-07
3.70632e-06
6.20149e-10
-1.77686e-07
-3.51104e-08
-2.10157e-08
-4.50257e-08
9.61938e-07
9.34321e-09
-0.000261308
0.0246752
0.00164555
3.07949e-07
-7.10098e-08
2.0404e-05
-6.85872e-06
5.10827e-07
1.0094e-07
-1.81413e-09
-9.12131e-07
-5.34551e-08
0.000413981
-7.63971e-09
6.18974e-07
1.54968e-07
2.71921e-08
-7.32086e-08
0.0217558
-0.00458269
0.000315898
6.8096e-08
-0.000458558
-5.66667e-09
-0.00186991
-0.00270454
-6.70624e-09
-6.63415e-08
-1.23744e-07
0.0149225
6.56376e-10
-0.00650097
2.45771e-08
1.21238e-06
5.31572e-09
0.000947658
-0.00299451
3.65387e-06
5.39005e-08
4.40187e-07
4.8944e-08
-0.00313715
-5.50738e-08
1.04266e-06
2.33467e-05
-5.54103e-07
0.00376463
-0.00509651
2.60256e-07
5.74581e-08
2.96542e-08
1.52199e-06
-0.0039793
-0.000458533
-1.15528e-07
-1.34767e-06
4.55817e-07
1.79121e-06
5.45363e-08
0.00079017
0.00093476
2.25774e-08
3.69791e-08
6.43529e-07
3.44362e-07
2.75526e-07
0.00301741
4.36193e-08
-0.00130833
-7.26239e-08
7.3075e-09
3.90394e-07
1.33286e-06
0.00921885
1.25972e-07
-0.00256592
-0.00188859
0.000104148
5.93903e-09
9.04141e-09
1.2143e-07
3.67666e-09
-4.79132e-08
0.000898646
0.00101473
5.99496e-08
-3.41041e-08
6.85075e-07
6.70866e-06
1.33783e-07
3.20188e-08
-1.51118e-06
-3.46925e-09
1.71795e-09
-5.38136e-08
5.35362e-07
2.36852e-08
3.91478e-07
-0.000227885
4.5451e-07
9.88156e-08
-3.67277e-06
8.03041e-08
1.16954e-08
1.9759e-07
4.12654e-07
-8.44533e-09
7.49206e-08
-7.84944e-08
0.000281232
7.3683e-05
-5.14412e-08
3.89034e-07
1.26942e-09
8.68829e-06
-4.06867e-08
-0.00275529
-7.22489e-08
-1.24595e-07
-1.28103e-07
-5.16266e-05
5.48619e-07
-4.74804e-08
-3.44593e-08
-0.00601323
0.000669907
-6.75196e-06
-1.50646e-07
1.98795e-08
2.41464e-07
-3.60866e-08
-0.000104254
2.55998e-08
0.0031482
-2.71496e-08
7.22418e-09
2.75438e-07
-1.2816e-07
8.31541e-09
3.73077e-07
-6.09815e-08
-0.0022591
-1.16031e-07
-5.90584e-08
-3.00449e-08
3.80703e-07
0.0017199
0.000271975
5.04126e-07
-0.000515717
4.14904e-08
1.22795e-07
1.85244e-07
0.0144723
3.7141e-09
-8.46051e-09
0.006199
6.15405e-08
2.40786e-08
-1.12018e-08
8.83022e-07
0.0218312
-0.00152045
-4.92865e-08
2.85567e-08
7.55815e-07
7.25412e-07
0.00204614
7.42221e-07
3.00962e-07
1.28747e-08
-3.51755e-08
4.52355e-07
5.06474e-07
6.49212e-08
1.53866e-06
-1.34938e-07
5.31604e-08
-4.18602e-08
-9.93625e-08
-1.84454e-08
-9.15668e-10
1.98032e-05
1.29689e-07
1.15898e-07
2.60454e-07
-1.03008e-07
-2.63688e-08
1.76867e-07
-0.00289013
-9.57102e-08
3.05016e-07
0.00236447
1.91782e-08
-0.00363114
1.10283e-07
-0.000432206
3.08988e-08
-2.8512e-08
1.46585e-07
2.26424e-07
-0.0023762
-1.65211e-06
2.01937e-07
-1.20374e-07
-6.97752e-08
-1.19139e-07
-8.39978e-09
-3.1965e-08
-0.000186952
2.82682e-07
6.26436e-08
1.56143e-06
3.76967e-07
-0.000457816
1.21116e-07
0.00511879
-1.17649e-08
4.0578e-07
7.35003e-07
5.2172e-07
1.7139e-06
-2.32884e-08
0.00101204
-2.83448e-05
-1.80121e-08
-0.00105008
3.60659e-07
1.45889e-07
-1.02426e-08
-4.57446e-08
1.40359e-08
3.18675e-09
-0.000436784
3.75853e-07
-7.8879e-08
-0.000105871
-2.79467e-08
0.000863074
-5.64194e-06
7.38259e-08
-0.00204297
-1.17529e-07
2.91438e-08
1.02165e-07
0.000992815
0.00157267
4.93691e-07
4.20093e-08
5.53498e-08
-0.000185173
2.06503e-10
1.96612e-07
2.12454e-08
-1.10872e-08
4.03493e-08
0.000929821
-2.75102e-08
-1.66027e-08
1.18093e-07
-1.3285e-08
-7.33672e-08
5.49269e-07
8.09985e-07
9.29234e-08
2.60501e-07
0.000298236
0.000548859
-4.4509e-09
-9.80185e-08
-7.42825e-09
-4.32272e-08
-0.00530892
0.00025063
-1.31045e-06
8.65668e-08
-7.03553e-08
-0.00363791
0.0259917
-5.57318e-08
-0.00239794
-3.65071e-08
3.72172e-07
-0.000202653
-7.68147e-08
-0.00430273
-0.00288211
5.27252e-07
-0.00039503
0.00330923
-1.18153e-07
-2.69555e-08
-9.11304e-06
0.000816108
-3.46517e-08
-0.000773554
1.91496e-07
-4.83341e-08
-2.22478e-08
1.91045e-07
3.45764e-07
2.19315e-07
3.68046e-06
-0.000347544
3.63114e-06
2.89805e-08
1.65294e-08
-2.84169e-08
-1.81855e-06
-9.63686e-08
-6.33778e-06
2.89968e-07
-3.1483e-08
5.99604e-08
5.00091e-09
-2.51706e-08
3.78168e-08
-1.02772e-05
1.5941e-07
-4.80647e-08
-0.000803345
0.000781806
7.62146e-07
4.55162e-09
3.67384e-07
-3.45403e-08
-2.21353e-08
-0.00270236
0.0153537
1.82842e-08
-7.68639e-08
-0.00122842
0.000879144
2.87828e-07
-3.72422e-08
-0.000266405
9.93771e-08
-4.40927e-08
3.10488e-07
1.937e-08
-5.72975e-08
-6.59764e-08
0.0041276
8.80598e-06
8.85598e-08
1.88021e-06
4.15913e-07
0.000640313
-0.00575183
-0.00033739
1.91264e-06
-3.93253e-08
-3.10215e-08
1.59743e-07
1.48956e-08
-1.45255e-08
-1.89084e-08
1.41942e-07
3.97516e-07
0.0111241
-2.25875e-08
0.000250463
-5.63335e-08
-0.00203918
-5.4265e-08
4.46003e-06
6.37689e-07
1.96835e-06
3.51518e-05
2.28703e-07
-6.55991e-08
-0.00715437
4.52995e-07
-0.00356647
-6.78098e-09
0.00353742
-3.6534e-08
-0.00437378
-3.58701e-06
1.60288e-08
-1.51004e-08
7.3484e-08
0.000627692
-0.0050201
6.08226e-07
-4.14423e-08
0.00123052
-1.85049e-07
4.33801e-07
0.0234808
1.07516e-06
-1.08127e-07
0.00748884
-1.7392e-08
6.68839e-07
-2.43741e-08
0.0110007
-2.08269e-08
2.64948e-07
-5.43693e-05
-1.68709e-06
6.06451e-09
5.58937e-07
3.54094e-07
5.69274e-07
-2.91695e-08
-1.97611e-06
-1.63777e-08
2.69577e-07
-3.44447e-08
7.6224e-09
0.00091754
4.91093e-07
-0.00511579
0.0189066
0.000761208
-2.83794e-08
-3.96395e-08
-6.80165e-08
2.7142e-07
3.58231e-07
2.731e-07
-9.39338e-05
1.86915e-07
4.45878e-05
9.84307e-08
-2.28252e-08
-3.76825e-08
6.61502e-07
-0.000137293
-9.04743e-05
-1.23115e-08
0.000589448
-1.05155e-08
-0.00568273
9.52725e-08
3.27636e-07
-3.02209e-09
2.11823e-09
3.55772e-07
0.00207008
1.57229e-07
6.6319e-09
2.47395e-07
3.63197e-07
2.10725e-07
2.07259e-05
0.00034679
-3.5952e-06
-6.5116e-08
3.51827e-07
-0.00263446
4.55122e-08
1.17335e-08
-6.97826e-08
0.000442252
4.53804e-08
-7.29692e-09
1.04735e-07
-1.39437e-06
2.87987e-08
0.00106452
-2.35418e-08
9.33473e-07
4.88014e-06
0.000115011
-1.28613e-05
6.28225e-08
-4.36298e-08
-0.00446496
-3.43648e-08
1.05684e-07
8.38623e-07
1.83381e-07
-5.92677e-08
0.00137808
-1.55283e-08
4.74025e-07
2.52742e-07
-6.02623e-07
-3.45629e-08
2.09381e-06
3.77177e-08
2.11451e-07
0.00145081
9.81283e-06
-1.20224e-08
3.37236e-09
-3.5795e-07
-0.000580078
1.87866e-06
4.51601e-06
6.17643e-07
3.60509e-08
-7.44514e-08
0.000271509
-1.90905e-08
0.000440748
7.88778e-07
0.00320734
3.20099e-08
-3.40496e-08
-6.33654e-08
2.92685e-07
8.98222e-07
-6.36529e-06
0.000841396
0.00587534
3.13565e-06
-1.40088e-07
-1.95458e-07
2.13135e-08
6.72695e-07
1.00518e-07
3.12835e-07
-3.03753e-08
-1.56169e-08
-1.15425e-07
6.26181e-07
-4.87278e-08
2.08172e-07
-1.11389e-07
0.000590879
-0.00652173
9.61366e-07
0.00032447
-3.03125e-09
-4.97493e-08
2.12441e-08
-2.55827e-06
-6.07115e-08
3.48652e-07
3.3259e-07
0.0088981
8.20677e-08
-9.29448e-07
-6.39418e-08
-1.23362e-07
-0.00218466
4.33107e-08
3.22427e-06
-7.56129e-08
-1.12448e-07
0.00214375
-3.40946e-06
-1.31728e-07
6.8359e-07
2.86613e-06
-0.00505133
0.00194418
9.24364e-08
7.58932e-07
4.72306e-07
0.0117811
-6.71187e-08
-0.00443652
-0.00110129
-1.57208e-08
4.50928e-07
-4.02686e-08
-1.41675e-05
5.5418e-08
-1.17199e-08
0.00103892
-4.99612e-08
6.74969e-09
-1.22084e-06
6.54945e-07
0.000703563
0.000709767
-6.96474e-06
0.000136333
-2.23512e-08
-1.69174e-08
-1.56894e-07
2.23958e-08
0.0252737
-2.38943e-08
0.000451272
1.82754e-08
-0.00587359
-1.51252e-08
-1.65711e-08
-1.29472e-07
-2.93927e-08
6.57148e-08
8.8296e-08
-6.53469e-08
0.000188629
-8.8939e-08
4.86736e-07
-3.84425e-08
-0.000309631
-1.13703e-08
7.25504e-08
2.47209e-08
4.55365e-07
-5.95554e-08
-9.54297e-08
-1.98229e-08
-3.16863e-08
3.7593e-07
-1.64545e-07
4.22054e-08
6.02641e-08
0.00649219
-0.00198046
-0.00601086
0.000880931
-7.31001e-08
1.2293e-08
4.91355e-09
-1.32053e-07
-3.1873e-08
-7.44266e-08
6.10721e-06
-7.97242e-08
-6.21258e-09
2.15647e-08
-4.02326e-08
1.17105e-08
-0.00260499
3.13574e-07
4.05221e-08
-0.00272896
4.08238e-07
-1.50128e-07
-0.00188427
-0.000933695
-4.12673e-09
-2.20697e-05
6.267e-06
-7.28381e-08
2.8669e-07
-1.29423e-08
-9.63942e-08
1.29494e-07
-1.36863e-07
9.02683e-07
1.29315e-08
4.325e-08
-1.08194e-07
-0.00215009
6.20521e-07
-3.34303e-09
2.19594e-08
1.76675e-08
-0.0079149
-7.81113e-09
2.91558e-08
1.46802e-07
1.82823e-07
-7.5595e-09
-1.36102e-05
-0.000578854
-0.00451761
0.000946153
4.45752e-06
8.41087e-08
2.52453e-08
0.00539086
1.91044e-07
8.2341e-09
4.36522e-07
-2.35603e-10
-8.14945e-08
5.84983e-08
0.0037334
-1.59206e-07
6.54042e-08
-2.124e-08
1.22005e-06
-5.59184e-08
-1.26281e-05
-4.55339e-09
-7.25164e-06
2.24715e-06
0.0171336
3.17804e-08
-6.65223e-10
5.63597e-08
9.53612e-08
-1.3589e-08
1.13499e-07
4.57376e-08
0.0270353
-1.82946e-07
-3.02754e-06
-0.00255749
3.70971e-09
9.63615e-05
1.79172e-07
-2.50135e-07
4.87629e-07
-1.74128e-08
1.53622e-07
4.11273e-07
-1.30904e-07
2.48822e-07
-5.85748e-08
0.00990745
-0.00156953
8.59293e-08
-4.94718e-08
4.20934e-07
3.20368e-08
-2.35012e-06
6.59073e-06
1.60755e-08
4.94408e-07
-7.7924e-09
-2.2305e-08
4.73596e-07
1.68648e-07
-0.00233642
-5.56307e-08
4.53623e-07
-1.31315e-07
0.00957038
9.44568e-07
-0.000303527
-1.21708e-07
-1.76721e-08
-8.75849e-06
2.36497e-06
-2.91177e-07
0.000329059
2.05071e-07
2.02657e-05
-6.94412e-08
-1.24302e-07
0.000558185
0.000196837
3.75866e-07
-5.28961e-09
-5.60259e-10
-1.02617e-05
1.85407e-08
3.15368e-07
-5.99278e-08
2.44968e-08
-1.37628e-07
-1.31865e-06
-0.00742773
-8.49774e-08
4.17608e-07
0.00182808
6.43209e-07
-3.88268e-07
0.000413744
-0.000451434
0.000532247
-1.1408e-07
2.01762e-07
0.000916571
-2.8341e-08
2.87658e-08
3.01418e-06
-0.00235908
2.04449e-09
3.02751e-08
0.000464975
1.04217e-06
2.36072e-06
-0.00784106
0.000432783
0.000662042
1.50106e-08
-9.18129e-08
-1.17183e-08
1.54175e-07
0.00967744
3.64598e-09
-6.2908e-06
-3.8029e-05
2.03445e-07
4.9071e-08
2.532e-05
1.25835e-08
6.03851e-07
-3.75671e-08
5.972e-08
-0.000381102
0.0116139
1.15664e-08
-3.6629e-08
9.41345e-07
0.016453
1.33152e-07
-0.00186765
-1.66596e-07
-6.76386e-08
4.79048e-07
-1.76113e-08
-1.52283e-07
-5.373e-09
-3.69633e-08
0.0124593
-4.92953e-06
-0.000331981
2.03078e-07
-3.85359e-08
-1.33833e-08
-0.000614451
-5.46036e-10
-4.14374e-08
-6.51004e-08
-2.94446e-08
-6.23748e-08
-0.000217811
0.0144954
0.000860683
1.68728e-05
-0.00135947
2.78939e-07
2.59327e-09
0.00377437
3.14128e-07
1.02158e-06
0.0153691
-2.21852e-08
-0.00714309
0.0007113
3.91145e-07
2.00816e-08
4.41276e-07
2.28437e-08
3.04996e-07
2.06245e-07
1.56868e-05
-1.01183e-07
-1.06507e-08
1.39678e-07
-9.4247e-06
1.25786e-06
3.53292e-07
-0.000760877
0.00100048
4.06095e-07
8.57955e-07
-2.31624e-06
1.89638e-07
-6.78939e-06
-0.00132332
1.19502e-07
-4.57394e-08
-0.00203787
7.25585e-07
8.13061e-08
2.38466e-08
4.13472e-07
4.30892e-07
3.79513e-07
4.11697e-09
0.00880855
-5.02897e-07
9.70774e-05
-0.0005163
0.000835603
7.25474e-08
4.05408e-06
0.00775609
-1.82428e-08
3.6797e-05
0.0132393
0.0255975
1.44627e-07
-1.2266e-08
0.00113769
0.0142853
-3.47803e-09
7.93486e-06
-1.21052e-07
1.01618e-09
-4.04714e-06
-5.73626e-09
0.00053812
0.00093636
-0.000140949
0.0204908
-9.20702e-08
4.21616e-07
6.4494e-09
-4.21057e-08
1.35552e-07
4.06455e-07
3.8195e-07
4.75287e-07
0.000621059
2.04995e-09
3.62128e-07
5.02953e-06
2.55508e-07
-2.41752e-05
2.56301e-08
0.000752395
0.000691032
0.000408463
0.000784102
-0.000219461
0.000291749
0.000661284
0.000814489
7.81574e-07
-8.33862e-09
1.73201e-07
6.24286e-07
0.00173606
0.0244611
-7.24535e-09
-1.41837e-07
-0.00135483
0.000262661
3.75476e-07
-0.000886644
-4.20868e-08
1.6404e-06
-0.00343817
0.019714
-6.40149e-08
0.00015689
2.2427e-06
1.48574e-07
5.27017e-08
-0.0059522
-0.00758068
-0.00692253
-0.00454364
-8.45343e-08
0.0129341
0.000665274
1.26641e-07
1.61182e-06
2.33025e-07
-8.67992e-08
2.97222e-07
0.000463434
-0.00112613
2.24647e-07
2.6014e-08
0.000925904
-1.3195e-07
0.000794355
2.86185e-07
-2.41411e-05
0.000674443
3.16262e-09
0.00237628
-6.64182e-09
6.65022e-07
-2.25269e-08
-9.36363e-08
2.41721e-08
2.04459e-07
2.94408e-06
-6.14297e-08
0.00208493
7.94554e-07
0.0195639
-0.00226739
0.000330045
-5.8253e-08
-0.00479729
3.34146e-06
0.000596445
1.05874e-07
-2.88496e-08
-0.00507482
-4.43779e-05
-0.000392424
5.03345e-08
-8.37985e-10
-1.63477e-08
0.00251461
-0.000500888
4.50466e-08
-0.0230057
7.09423e-08
-4.11956e-08
0.000614916
-1.06665e-08
1.29807e-05
3.03752e-08
6.9758e-07
0.000329372
-0.00502632
0.000803863
-3.35179e-06
0.000733935
0.000694251
0.019154
5.4227e-09
-0.000655323
4.2683e-08
-4.86091e-08
-2.02553e-08
-4.16835e-08
-0.000511583
3.3068e-08
0.000679461
0.000893542
9.37216e-07
3.57105e-06
6.9682e-07
0.00094526
1.7072e-07
-0.00380095
-0.000886701
-1.75152e-06
-4.82671e-08
-4.502e-09
0.00047982
3.86676e-07
1.61319e-06
0.000570663
-0.00232472
-1.62837e-06
6.96497e-08
2.07593e-07
1.60179e-07
2.01349e-08
2.14722e-08
2.68592e-07
0.00066435
6.82439e-07
4.07056e-07
0.000482075
8.09772e-07
0.000292616
-0.0123303
0.000719312
-0.000117167
5.10237e-05
-0.0008653
0.000942909
-2.07957e-07
4.87286e-07
-2.51827e-08
-7.25435e-07
2.87195e-07
-6.68491e-06
-3.0648e-07
-2.58095e-07
-9.201e-08
1.28611e-06
0.0157946
5.07313e-07
-5.32172e-08
1.2969e-07
0.00880101
-2.7829e-08
-4.33306e-08
2.1763e-07
0.000703206
6.22223e-07
-1.37127e-07
1.2516e-06
1.20286e-08
5.10724e-07
-1.64702e-07
3.44403e-08
1.99997e-07
1.65711e-05
-3.09126e-08
1.6796e-07
-1.34681e-07
0.0223761
-1.44539e-08
-0.00295854
6.56271e-09
0.000682696
-1.51681e-09
4.55177e-09
-6.20887e-08
1.74942e-07
8.59573e-07
-0.000385156
-0.00262996
1.84836e-07
-2.67298e-08
1.19683e-07
-0.00995307
0.00591668
1.69e-08
8.46004e-07
0.00091356
3.27582e-07
-1.37469e-07
-8.75609e-08
-2.1399e-08
-3.33504e-08
0.000666898
2.90233e-07
2.23553e-08
-0.00324595
-5.00582e-08
3.75992e-08
-8.31029e-05
-9.06298e-08
-5.74352e-07
3.37011e-07
-0.00296265
-3.46989e-08
-1.85944e-09
3.85342e-10
2.90768e-07
-6.24002e-08
-2.25648e-08
0.0151295
3.41438e-05
6.00966e-07
-1.97819e-07
-6.02665e-06
-2.38799e-08
-4.59066e-08
5.97001e-08
0.000155105
-0.00330392
1.8482e-07
-0.0022304
0.00546202
2.50762e-07
0.000469017
0.0140281
-0.00117525
0.0197969
4.99177e-07
6.62169e-07
-7.38225e-06
3.30791e-07
4.53077e-08
1.10596e-09
5.93706e-07
-0.00329513
-1.94401e-08
-0.00427958
9.04122e-09
5.03135e-07
3.99749e-07
6.29796e-08
-2.13536e-07
0.00548268
-0.000463562
-0.000443279
0.000300547
-6.39849e-08
7.15934e-07
-0.00240036
3.70924e-07
0.0119434
2.13364e-07
-2.32899e-08
0.00054587
8.82391e-07
-2.64055e-08
5.74924e-07
3.95431e-07
-5.46027e-08
0.00066131
0.00232957
-1.01896e-07
4.1494e-08
3.22745e-08
-2.38351e-09
-0.0018207
6.59519e-08
3.58012e-07
3.05806e-08
1.48359e-07
-3.08748e-08
2.56659e-08
0.000751545
4.28624e-07
-4.99145e-08
-4.1177e-08
7.40938e-07
1.8619e-07
1.25724e-08
-0.00027379
-0.000901793
1.61969e-07
1.16299e-05
-3.10873e-08
-6.53761e-08
4.98168e-07
-0.00384364
1.61671e-07
0.000734177
0.0352609
1.96107e-08
1.83515e-07
6.31926e-07
5.84334e-07
8.53322e-08
-0.00469991
-2.17726e-08
1.15588e-08
1.11001e-08
-0.00142313
0.01165
9.18901e-08
9.40649e-07
1.25915e-08
5.08749e-07
1.94072e-06
0.00012236
-5.67139e-08
-2.91833e-07
-7.00406e-05
-1.86747e-08
1.19857e-08
-4.34413e-08
-0.00270378
-0.000455559
-4.39773e-08
-0.00116776
6.78016e-07
3.51915e-06
1.5724e-05
1.95139e-08
-0.00011397
5.67612e-07
1.02488e-08
0.00338084
7.8267e-06
-5.53232e-08
-5.23051e-08
-1.87701e-05
-7.07333e-08
-4.16789e-10
5.31814e-06
2.1734e-07
1.69358e-07
-0.000978048
2.26207e-07
8.60215e-07
0.000132909
3.96276e-08
0.0139784
-0.0029478
2.25432e-07
6.54189e-07
3.45229e-06
9.99768e-09
1.33411e-06
-8.93029e-08
0.00206986
4.40647e-06
2.51766e-08
0.0286086
-0.00640723
-4.21208e-08
1.92739e-08
-1.38598e-06
8.91371e-07
0.000245098
0.000216242
2.78144e-08
3.71381e-07
-0.000760387
1.10896e-07
5.19194e-07
6.75987e-07
1.19557e-07
0.00340131
-6.73367e-06
2.49101e-07
-5.38535e-06
0.0150324
3.60342e-09
0.0240873
-6.16217e-08
-1.07404e-07
2.53416e-09
4.09015e-08
0.00146234
3.8047e-08
8.40914e-07
0.0218921
0.00048082
5.01014e-09
1.83944e-07
-1.42739e-06
0.000806876
-2.99381e-08
0.00872316
3.56761e-07
4.09182e-07
3.24837e-07
2.29425e-08
2.80231e-07
-1.88623e-08
-3.8062e-08
0.0232139
4.92197e-08
3.55773e-07
-2.98815e-08
-0.00826546
2.49454e-07
3.0946e-07
-6.47734e-08
1.95982e-07
1.00277e-09
3.20954e-07
-0.000539241
0.000605709
2.09121e-07
-1.71264e-08
2.90446e-08
2.72876e-08
4.28561e-07
0.00127472
-0.00116118
-3.61912e-08
0.00301358
-1.99766e-08
2.50447e-06
0.000522378
-0.000679984
-1.04863e-07
1.45073e-07
6.30253e-07
-0.00301739
6.11889e-07
-1.16914e-07
0.00244702
1.99348e-06
3.25893e-08
0.0012496
1.70484e-07
2.97921e-08
1.02079e-07
-0.00279845
-2.80274e-08
0.0321562
-2.1114e-08
0.0127235
2.32598e-08
-1.93983e-08
0.00156088
1.3625e-07
-3.45025e-08
-4.37831e-05
-9.33413e-11
3.6499e-07
0.00521547
2.47434e-06
8.67897e-09
-1.37144e-06
-2.35761e-08
7.77579e-07
3.47778e-07
0.0128675
-1.60769e-09
-4.16289e-08
8.57774e-08
2.09049e-07
3.44999e-07
0.0011655
0.00761258
8.59059e-08
-2.16618e-08
-8.91762e-08
0.0110703
0.0279861
2.06201e-07
-1.81894e-08
6.1768e-08
2.45214e-07
0.00357501
-2.42719e-08
3.71066e-07
0.0025765
8.18112e-07
-7.39256e-10
7.6606e-06
6.98239e-07
-4.21327e-08
1.11403e-07
7.12436e-07
-1.83245e-06
1.86126e-07
2.93946e-07
-6.01611e-05
0.000814577
9.14688e-05
1.12381e-07
-3.57853e-08
1.20537e-07
5.12767e-09
3.32678e-07
5.0219e-07
4.39441e-07
6.81671e-07
-0.00836826
-1.75789e-08
1.98125e-08
-0.00078
4.06016e-06
0.000277494
4.53538e-06
1.04959e-07
-1.25029e-08
2.91032e-08
-9.36717e-08
-1.25683e-07
4.20536e-07
-1.73367e-08
2.58092e-09
1.78551e-07
-1.89053e-08
1.09471e-08
-2.11409e-08
7.84231e-08
9.47261e-07
9.04605e-08
-3.39226e-08
-8.09063e-09
1.519e-08
-1.63013e-08
4.99502e-07
2.90999e-08
-1.03181e-09
-1.56374e-06
-8.36005e-10
-8.49226e-09
-3.25843e-08
4.42609e-07
-0.000784489
-0.00333583
0.000606311
-0.00172707
0.00412332
7.94627e-07
-8.35749e-09
4.12895e-07
-3.55038e-08
0.000489541
2.30033e-07
7.47388e-08
-3.10084e-08
3.6545e-07
2.94995e-08
3.40566e-07
-3.40012e-08
0.00329057
1.20594e-06
1.10026e-08
-0.00801156
0.00272695
1.48461e-07
1.0209e-06
1.42157e-08
-4.64566e-08
-0.000233388
1.02394e-07
5.47514e-07
2.28306e-06
2.69498e-08
-1.78711e-08
5.78258e-07
0.000889873
3.1714e-10
2.21931e-07
0.000255103
-2.33337e-08
0.000694246
4.60823e-07
0.0083309
-7.50607e-08
0.00055
-3.62634e-08
-5.61276e-08
4.02589e-05
3.86969e-07
-0.000386508
0.000903019
-0.000215657
0.00348926
4.33088e-06
5.72646e-07
-1.00297e-07
3.99e-06
1.25582e-07
-6.12434e-08
4.09035e-08
-2.63788e-08
1.29917e-08
-5.45725e-08
-7.99669e-08
5.84781e-07
0.0182641
0.000441599
-1.85637e-05
-0.00242652
2.26095e-07
8.47096e-09
8.52418e-08
-1.90947e-08
6.26877e-07
-8.30082e-08
5.32683e-08
-3.0838e-08
2.27155e-07
8.13071e-09
-7.05229e-07
9.47801e-07
2.67264e-07
2.24419e-08
2.60711e-07
-2.78901e-08
-0.000285145
-0.00085028
2.01916e-07
4.21363e-07
3.2166e-08
0.00307554
0.00115945
-4.06086e-08
-5.96508e-08
1.58471e-07
1.55629e-08
8.77566e-06
-6.43681e-05
-0.00183762
-1.41352e-08
0.0161513
-7.51429e-08
0.000847982
4.66216e-07
-4.35301e-08
1.80832e-07
0.00490188
-7.48268e-10
2.25522e-07
5.96968e-07
5.70804e-07
-0.00239444
3.39335e-08
-6.26838e-08
5.58246e-08
2.51587e-06
-1.68965e-07
0.000919008
0.00446914
-2.27962e-08
-8.99212e-08
-0.000309992
6.80752e-07
-2.26381e-08
-0.0885661
0.0251376
0.00204175
0.00150477
4.33332e-07
2.2161e-06
1.59756e-08
-0.00232158
0.00351725
5.99414e-06
6.75955e-07
1.3231e-07
-0.000819718
3.04225e-09
-1.20388e-08
-4.76178e-08
3.15627e-06
-1.33719e-08
0.0291851
1.97804e-07
-4.7783e-08
3.2333e-08
0.000786903