/*--------------------------------*- C++ -*----------------------------------*\
| =========                 |                                                 |
| \\      /  F ield         | OpenFOAM: The Open Source CFD Toolbox           |
|  \\    /   O peration     | Version:  v2012                                 |
|   \\  /    A nd           | Website:  www.openfoam.com                      |
|    \\/     M anipulation  |                                                 |
\*---------------------------------------------------------------------------*/
FoamFile
{
    version     2.0;
    format      ascii;
    class       surfaceVectorField;
    location    "250";
    object      Uf;
}
// * * * * * * * * * * * * * * * * * * * * * * * * * * * * * * * * * * * * * //

dimensions      [0 1 -1 0 0 0 0];


internalField   nonuniform List<vector> 
14470
(
(0.961547 -0.0196969 7.69924e-21)
(0.959618 -0.0196389 6.2615e-21)
(0.960852 -0.0176261 6.59124e-21)
(-0.146985 -0.0106687 -5.66439e-20)
(-0.151013 -0.0121539 1.3567e-19)
(0.992245 -0.00847645 -5.33481e-21)
(0.992647 -0.00890157 -5.87011e-21)
(0.992002 -0.00908527 -1.98354e-20)
(-0.0456062 -0.0763096 5.83852e-20)
(-0.0390417 -0.0767248 -1.55759e-20)
(-0.0413459 -0.068291 -2.89223e-20)
(0.999955 -0.000445817 3.88212e-21)
(0.999949 -0.000417492 -4.47692e-21)
(0.999913 -0.000635897 3.83254e-21)
(1.29063 -0.0727269 1.66747e-20)
(1.29835 -0.0728525 5.13412e-20)
(1.29337 -0.0809612 9.51152e-20)
(1.11125 -0.272941 0)
(1.11889 -0.262985 1.78272e-20)
(1.12725 -0.27485 0)
(-0.211285 0.0267272 -6.47352e-20)
(-0.208111 0.0299662 -7.11384e-20)
(-0.250957 0.0350722 -8.95779e-20)
(1.02609 -0.0410257 -9.77806e-23)
(1.02773 -0.0419974 -8.32474e-22)
(1.02583 -0.0430018 -1.14545e-22)
(1.00005 -0.00248117 -3.4687e-21)
(1.00003 -0.00224539 -4.39787e-21)
(1.00005 -0.00223831 5.6223e-21)
(1.00003 -0.00271524 -9.00071e-24)
(1.00007 -0.0027437 3.66723e-21)
(1.00343 -0.0106363 -6.29575e-21)
(1.00329 -0.010239 -2.46846e-21)
(1.00306 -0.0105793 1.9491e-21)
(-0.141437 -0.113173 -1.14616e-21)
(-0.151234 -0.112695 5.98135e-21)
(-0.155662 -0.118057 1.49358e-20)
(1.02359 -0.0248546 2.55307e-22)
(1.02292 -0.0238469 1.36207e-21)
(1.0243 -0.0239249 2.52259e-22)
(1.07595 0.0178238 -6.11348e-21)
(1.0785 0.0198684 1.79837e-20)
(1.07488 0.0209584 -1.55779e-20)
(1.17102 -0.0885921 -1.09978e-22)
(1.17822 -0.0928103 -1.02338e-22)
(1.17142 -0.097697 3.28697e-23)
(0.994768 -0.0108476 -5.80053e-21)
(0.994765 -0.0112514 -8.6601e-21)
(0.995245 -0.0110404 -4.76688e-21)
(-0.0902953 -0.228251 -5.22731e-21)
(-0.0849742 -0.228472 3.00835e-20)
(-0.0915059 -0.241156 1.16523e-20)
(1.01919 -0.00527714 -2.46892e-22)
(1.01909 -0.00487052 4.25665e-22)
(1.01952 -0.00506018 3.57036e-22)
(1.02547 -0.00984071 -1.45281e-21)
(1.02616 -0.0095106 -5.4124e-22)
(1.02529 -0.00920001 2.4761e-21)
(0.999989 -0.000148919 1.97972e-23)
(0.999991 -0.000158924 4.18039e-22)
(-0.0501213 -0.0197924 2.09552e-21)
(-0.0438234 -0.00844173 5.72904e-20)
(-0.0410543 -0.0204364 1.28272e-20)
(-0.177918 0.0151714 -2.55961e-20)
(-0.226797 0.0233373 1.20501e-19)
(-0.125407 -0.109327 2.65533e-20)
(-0.129496 -0.11513 -6.04988e-21)
(0.916672 -0.0670472 -8.74671e-21)
(0.921886 -0.0656863 7.04686e-21)
(0.917557 -0.0609694 -4.71292e-20)
(1.00015 -0.0053036 -2.58567e-21)
(1.00026 -0.00555896 -4.09334e-21)
(1.00022 -0.00513743 -1.17861e-21)
(1.00002 -0.000429225 1.22455e-21)
(1.00003 -0.000494564 -1.90048e-21)
(1.00005 -0.000626723 3.10681e-21)
(1.01892 -0.00541864 -6.58892e-22)
(1.01932 -0.00563247 -4.46552e-22)
(1.17937 -0.179411 1.77638e-20)
(1.18888 -0.17897 -1.44041e-20)
(1.1843 -0.189028 -4.84314e-21)
(-0.342156 -0.0146547 -2.41621e-21)
(-0.341084 -0.0142541 -6.0932e-20)
(-0.368714 -0.0111143 4.0733e-21)
(1.3473 -0.109563 3.621e-20)
(1.32722 -0.105615 3.68969e-20)
(1.33465 -0.117887 -6.99749e-21)
(0.996739 -0.00662467 4.29084e-23)
(0.996552 -0.00636383 -6.91031e-21)
(0.996397 -0.00677084 -3.99151e-21)
(0.99794 -0.0110649 3.82671e-21)
(0.997726 -0.0114279 1.69644e-21)
(0.998149 -0.0114543 -3.23607e-21)
(1.0066 -0.000666163 -1.56525e-21)
(1.00631 -0.000664146 -5.27934e-22)
(1.00616 -0.000385584 -5.33043e-21)
(1.10557 -0.0282591 1.83343e-20)
(1.10374 -0.0314985 1.36208e-20)
(1.10776 -0.0307258 0)
(1.07087 0.00880909 1.21151e-20)
(1.07049 0.00614689 0)
(1.0682 0.00746252 -1.04635e-20)
(0.913497 -0.00160887 4.99818e-20)
(0.909975 -2.84762e-07 -9.0076e-21)
(0.910435 -0.00498731 -1.89944e-20)
(-0.125126 -0.151856 2.98359e-20)
(-0.123151 -0.151258 6.6691e-20)
(-0.11818 -0.155996 2.79777e-20)
(1.09948 -0.0884627 -1.42272e-20)
(1.09502 -0.0855704 -2.04253e-21)
(1.10001 -0.0829294 2.36112e-20)
(1.16858 -0.180698 -1.2755e-21)
(1.17277 -0.171436 1.99651e-20)
(0.861849 -0.0194026 -3.55572e-20)
(0.849069 -0.0247322 2.40485e-20)
(0.683703 -0.0153067 -2.94082e-20)
(-0.22582 -0.103848 1.30429e-20)
(-0.2214 -0.0758497 3.79192e-20)
(-0.265595 -0.103783 3.96774e-20)
(1.00001 -0.000271286 0)
(1.00002 -0.000404845 0)
(0.992089 -0.00275329 -1.20218e-20)
(0.991636 -0.00292269 -6.05211e-21)
(0.991632 -0.00233026 -5.74687e-21)
(0.996238 -0.00299707 -5.84427e-22)
(0.996548 -0.00309867 1.80933e-21)
(0.996479 -0.00274475 1.86776e-21)
(-0.299841 0.0472993 0)
(-0.307654 0.0431417 -1.60402e-20)
(-0.313879 0.0531052 1.10304e-19)
(0.999995 -0.000434729 3.1286e-22)
(1.00001 -0.000212319 4.64585e-21)
(1.00001 -0.000204928 3.75133e-21)
(1.03367 -0.00608492 1.25376e-21)
(1.03306 -0.00544411 3.3393e-21)
(1.03417 -0.00532994 -1.25928e-21)
(0.994802 -0.0103042 5.33693e-21)
(0.994259 -0.0105645 4.20539e-21)
(1.10833 -0.0243039 -1.011e-20)
(1.10348 -0.0248391 1.81332e-20)
(1.00684 -0.000915204 1.83406e-21)
(1.00692 -0.000616243 1.43708e-21)
(1.13356 -0.0557856 4.30482e-21)
(1.13758 -0.059998 1.77955e-20)
(1.138 -0.0530374 2.59203e-21)
(0.999996 -0.000660676 -1.99619e-21)
(0.999981 -0.000676126 -2.82744e-21)
(0.89339 -0.127638 4.78564e-20)
(0.903088 -0.126117 -1.89138e-20)
(0.900134 -0.13664 3.71248e-20)
(-0.0527824 -0.0855075 -2.64714e-20)
(-0.0562376 -0.075919 4.33654e-20)
(1.00357 -0.00973943 1.24427e-21)
(1.0034 -0.00938594 -3.59515e-21)
(1.00374 -0.00946944 6.93607e-22)
(1.22729 0.00792725 5.86194e-20)
(1.22866 0.0151642 2.68612e-20)
(1.22171 0.0132115 2.03784e-21)
(1.0332 -0.00664702 -1.98275e-21)
(1.03424 -0.00659229 -2.63534e-23)
(1 -0.000217114 -3.25506e-21)
(0.898505 -0.0240609 -6.13232e-21)
(0.89308 -0.022794 -1.71774e-20)
(0.897675 -0.018268 1.00177e-20)
(0.812992 -0.333396 -1.16697e-20)
(0.830684 -0.343553 -1.59777e-21)
(0.804792 -0.363415 2.24421e-21)
(0.994153 -0.00912973 -7.23669e-24)
(0.993808 -0.00878292 -5.18823e-21)
(0.99436 -0.00868983 -6.06642e-21)
(1.12539 0.0169655 1.25872e-20)
(1.12364 0.0115388 1.90099e-21)
(1.12021 0.0166674 6.45221e-21)
(1.00351 -0.00151117 -3.45961e-21)
(1.00372 -0.00139687 2.40142e-21)
(1.00376 -0.00168335 -2.09765e-21)
(1.02451 -0.0400335 3.13239e-22)
(1.02609 -0.0392964 -1.07658e-23)
(-0.253761 0.0151744 -7.01492e-20)
(-0.231571 0.0178398 2.23752e-20)
(1.06772 -0.0491799 0)
(1.06488 -0.0495658 0)
(1.06695 -0.0522966 1.10807e-20)
(1.07124 0.0113342 1.17164e-21)
(1.071 0.0141614 7.01058e-21)
(1.06847 0.0125528 -2.22347e-20)
(-0.0364437 -0.151275 -3.29789e-20)
(-0.0163179 -0.140627 4.26889e-20)
(-0.020043 -0.138469 2.11885e-20)
(0.978465 -0.0126804 -9.12067e-21)
(0.977163 -0.0123927 1.18584e-20)
(0.978276 -0.0115098 6.05068e-21)
(0.594545 0.024444 3.77986e-20)
(0.575295 0.03806 6.19217e-20)
(0.573251 0.0102826 -3.64449e-20)
(-0.283676 0.0470202 6.50681e-22)
(-0.255084 0.0443483 1.34141e-22)
(-0.2882 0.0500675 -4.56098e-20)
(1.21233 0.243008 3.8816e-20)
(1.16475 0.237261 1.75631e-20)
(1.19486 0.229203 2.42223e-20)
(0.120288 -0.101642 2.90717e-20)
(0.0753662 -0.113645 -3.34864e-20)
(0.128764 -0.098465 -1.7155e-20)
(0.999992 -0.000666502 1.83105e-22)
(0.999988 -0.000725414 7.54076e-22)
(1.00001 -0.000944117 -4.86268e-22)
(0.78575 -0.140821 4.81491e-20)
(0.800352 -0.148146 -6.99229e-20)
(0.798218 -0.131885 -6.75782e-20)
(0.695179 -0.0462847 -1.50223e-19)
(0.527642 -0.0327372 -6.69875e-20)
(0.535513 -0.0398543 2.12164e-20)
(0.994625 -0.00610834 -1.34996e-22)
(0.994421 -0.00645061 -5.87206e-21)
(0.994871 -0.00640462 3.47177e-22)
(0.999966 -0.000534819 -1.30074e-22)
(0.999969 -0.000543838 -1.80129e-22)
(0.999983 -0.000349582 -4.82706e-21)
(0.775008 -0.147042 4.22757e-20)
(0.773718 -0.129867 4.44533e-20)
(-0.102241 -0.225878 -2.99466e-20)
(-0.0910739 -0.21791 -1.5355e-19)
(1.1647 -0.0859048 0)
(1.17068 -0.0812388 0)
(0.979945 -0.0787243 -4.23152e-21)
(0.983399 -0.0804018 -1.01089e-20)
(0.983734 -0.0764269 5.16318e-21)
(1.07376 0.0101557 6.83495e-22)
(1.28281 -0.2213 -3.77335e-20)
(1.27387 -0.228182 3.62782e-20)
(1.27395 -0.214938 3.83467e-20)
(0.999961 -0.000536664 9.15986e-21)
(0.99994 -0.000750113 4.62583e-21)
(1.18656 0.0565274 3.28408e-20)
(1.17989 0.0523473 0)
(1.17961 0.0602137 -1.59331e-20)
(-0.126495 -0.151595 1.84408e-20)
(-0.132197 -0.147869 -4.93212e-20)
(0.809647 -0.312425 -3.1815e-21)
(0.785753 -0.331446 -1.91822e-20)
(-0.0693376 -0.0420938 7.39658e-22)
(-0.06134 -0.0403527 -2.42029e-20)
(-0.0674956 -0.0506185 7.04882e-20)
(1.36774 -0.281305 8.78659e-20)
(1.37841 -0.268415 -1.97583e-20)
(1.35257 -0.267667 7.79915e-20)
(1.3641 -0.297089 -2.86981e-20)
(1.35843 -0.287732 -4.20412e-21)
(1.09948 -0.14391 7.61148e-21)
(1.1058 -0.151393 -6.27153e-21)
(1.10757 -0.141899 -7.38096e-22)
(-0.217696 -0.136047 1.07692e-21)
(-0.191507 -0.108619 -3.02747e-20)
(0.996563 -0.0139973 -2.20626e-21)
(0.99679 -0.0145118 6.03396e-21)
(0.997143 -0.0139883 -2.19673e-21)
(0.11406 -0.0980894 -1.0764e-19)
(0.182334 -0.0867477 -2.24012e-21)
(1.16264 -0.116742 -1.79005e-20)
(1.15585 -0.119615 -4.98468e-20)
(1.15694 -0.111705 1.73207e-20)
(1.05117 -0.0737648 9.69944e-22)
(1.05448 -0.0751333 2.30782e-22)
(1.05137 -0.0775651 6.60378e-22)
(0.999981 -0.000291487 4.31234e-21)
(0.999955 -0.000493841 -4.92486e-21)
(-0.14023 -0.109165 -4.20416e-20)
(-0.146098 -0.110758 -2.36854e-20)
(-0.14153 -0.10326 -2.35301e-20)
(1.12956 -0.0592216 1.44522e-20)
(1.12917 -0.0528194 -3.7415e-20)
(0.300235 0.0252713 1.75107e-21)
(0.207449 0.000126846 -6.1007e-20)
(0.294469 0.0369789 -1.03408e-19)
(0.992511 -0.00249454 9.38013e-21)
(0.992579 -0.00304943 -5.68482e-21)
(0.106242 -0.100065 -2.81121e-20)
(0.0566852 -0.114367 2.59683e-20)
(0.0697052 -0.111182 1.63344e-20)
(0.38053 -0.0198247 1.17252e-19)
(0.25928 -0.0118901 -1.26179e-20)
(0.240301 -0.00599048 -1.08461e-20)
(1.23245 0.243709 -4.38675e-20)
(1.22111 0.259346 -4.9687e-20)
(1.00596 -0.00756017 1.79808e-22)
(1.00594 -0.00788224 -2.06661e-22)
(1.00566 -0.00761124 0)
(0.994358 -0.00580402 -1.73023e-21)
(0.994829 -0.00577641 4.94263e-21)
(0.999988 -0.000122997 -6.21451e-21)
(1.00008 -0.00103466 -4.0889e-21)
(1.0001 -0.00101055 2.57963e-23)
(1.00012 -0.00123644 -7.54287e-21)
(-0.0558319 -0.0310883 -1.31505e-20)
(-0.0578179 -0.0214998 1.78445e-20)
(0.113967 -0.117137 -1.1746e-21)
(0.0800143 -0.124071 -1.17529e-20)
(0.0842756 -0.0860106 -2.86087e-19)
(-0.298799 -0.0196871 -2.44411e-20)
(-0.304403 -0.0194905 -1.47897e-19)
(-0.322203 -0.0153831 -1.71355e-19)
(0.979687 -0.012709 -1.74907e-20)
(0.978814 -0.0135754 2.58463e-21)
(0.999177 -0.00436982 -4.48741e-21)
(0.999171 -0.00469156 8.25713e-21)
(0.999027 -0.00463996 -1.70413e-21)
(1.0553 0.0189631 7.00732e-21)
(1.05293 0.0188397 1.30193e-20)
(1.05435 0.0217749 1.16524e-20)
(0.996707 -0.00369447 4.3297e-21)
(0.996973 -0.00371304 8.96311e-21)
(0.996782 -0.00399534 -5.70541e-21)
(-0.0600677 -0.0940476 -1.26515e-19)
(-0.0694348 -0.093607 1.98062e-20)
(-0.0660494 -0.102718 -5.73244e-20)
(0.995866 -0.00238384 -7.26448e-22)
(0.995784 -0.00268451 1.56824e-22)
(0.995555 -0.00242357 -8.59026e-21)
(0.0330993 -0.118441 2.09239e-20)
(0.0452752 -0.113272 -4.19908e-20)
(0.00293367 -0.127367 -3.57242e-20)
(1.1936 0.0597685 -1.00741e-20)
(1.19387 0.0512664 8.30094e-21)
(0.350861 -0.0505578 4.71044e-20)
(0.260803 -0.0707029 0)
(0.271325 -0.0603354 0)
(1.15515 -0.0324168 2.45094e-20)
(1.15793 -0.0271399 2.56986e-21)
(1.1521 -0.0270657 -6.10259e-21)
(1.07009 0.003183 4.3606e-21)
(1.07322 0.00430838 -1.20548e-20)
(0.995861 -0.00204008 1.15288e-20)
(0.996161 -0.00231578 0)
(1.17623 -0.110534 2.62025e-20)
(1.18443 -0.108767 -3.34477e-20)
(1.18191 -0.11803 1.92911e-20)
(-0.347095 -0.0138458 -7.13959e-20)
(-0.314075 -0.0171069 -4.78608e-20)
(1.23567 0.118096 4.50236e-20)
(1.23328 0.112796 -9.31893e-20)
(1.24082 0.111991 -9.87986e-20)
(1.23815 0.124695 9.66253e-20)
(1.23062 0.127258 5.49975e-20)
(1.07136 -0.0190757 0)
(1.0707 -0.0164382 0)
(1.06894 -0.0184871 0)
(1.00856 -0.0157252 0)
(1.0091 -0.0156804 -2.16493e-23)
(1.00857 -0.0151469 -7.75866e-22)
(0.963636 -0.0193121 1.81732e-20)
(0.962526 -0.0212592 1.00938e-20)
(1.06099 -0.0448557 3.24149e-21)
(1.05839 -0.0455199 2.00753e-22)
(1.05902 -0.0427554 1.4728e-21)
(1.10068 -0.0330998 8.63987e-21)
(1.09703 -0.0315274 -8.59451e-21)
(1.09726 -0.0357891 4.85159e-21)
(1.19854 -0.280514 1.21062e-20)
(1.18684 -0.285564 0)
(1.19948 -0.295849 2.15652e-21)
(1.34665 -0.0279744 -3.60915e-20)
(1.34819 -0.0189981 -3.44386e-20)
(1.33615 -0.0219474 5.11663e-20)
(1.05753 0.0198196 5.10144e-21)
(1.05617 0.0169512 -2.75148e-21)
(1 -0.000641658 2.63033e-21)
(0.999993 -0.000414639 1.05843e-22)
(1.18991 -0.0819039 0)
(1.19525 -0.0794329 0)
(1.19488 -0.0868866 -2.85813e-21)
(-0.106668 -0.205794 3.01707e-20)
(-0.106566 -0.216639 7.68831e-20)
(-0.0954662 -0.205238 1.42996e-20)
(1.10352 -0.0356357 1.17881e-20)
(0.984112 -0.0213762 -1.40459e-22)
(0.984569 -0.0227944 7.78992e-21)
(0.985432 -0.0214713 0)
(1.16803 0.0386225 4.8081e-20)
(1.16798 0.0453487 0)
(1.16222 0.0419588 0)
(-0.290561 0.0516339 0)
(-0.282555 0.0545582 2.31662e-21)
(-0.307887 0.0600875 0)
(1.11347 -0.482298 4.40016e-21)
(1.09808 -0.483589 1.78647e-20)
(1.10155 -0.501596 7.99909e-20)
(0.99586 -0.00174095 4.73663e-21)
(0.996151 -0.00166444 -1.18487e-20)
(0.118983 -0.0936315 -5.98674e-20)
(0.0844285 -0.10988 -1.47565e-20)
(1.0081 -0.0158254 -9.34803e-25)
(1.00864 -0.0163246 1.60888e-21)
(0.995556 -0.0017997 1.69673e-20)
(0.999367 -0.00648274 6.70832e-21)
(0.999475 -0.00623606 -7.12533e-22)
(0.999338 -0.00609752 7.22207e-21)
(0.0217963 -0.0672613 4.34081e-21)
(0.205576 -0.107181 4.02625e-20)
(0.0833098 -0.0747393 1.09949e-20)
(1.04754 -0.0722869 5.74442e-22)
(1.05042 -0.0701375 1.08597e-21)
(1.00007 -0.0051469 1.78214e-21)
(1.00009 -0.00549195 6.30002e-22)
(0.984646 -0.00399087 -8.30491e-21)
(0.984977 -0.00473043 4.29024e-21)
(0.984113 -0.0046266 6.56962e-21)
(1.35676 -0.315173 4.79036e-20)
(1.35319 -0.31786 -5.69873e-20)
(1.35414 -0.329446 9.24953e-20)
(1.18395 -0.08674 0)
(1.18508 -0.0967188 1.78888e-20)
(0.994511 -0.0095062 -1.46459e-22)
(0.993952 -0.00964669 5.18609e-21)
(1.3584 -0.101802 -3.80189e-21)
(1.37105 -0.113174 -6.68616e-20)
(0.983684 -0.0130601 -9.72451e-21)
(0.984592 -0.012686 6.49348e-21)
(0.984537 -0.0137456 1.71477e-20)
(1.17397 0.0485335 0)
(1.18043 0.0447318 0)
(1.07396 -0.0196167 0)
(1.072 -0.0216492 5.99367e-21)
(1.02572 -0.0103565 -1.04506e-22)
(1.02497 -0.0101081 -2.92448e-21)
(0.570741 -0.410689 -7.16405e-20)
(0.580625 -0.440764 -5.90847e-20)
(0.542976 -0.431179 7.17313e-20)
(1.04444 -0.0140776 -1.42276e-21)
(1.04488 -0.0153411 1.59502e-21)
(1.0433 -0.0151292 -3.84345e-22)
(0.853442 -0.0600577 0)
(0.873374 -0.0717615 -9.05704e-21)
(0.116982 -0.0255392 2.44811e-20)
(0.0361271 -0.0503361 1.48209e-20)
(0.103331 -0.020195 4.51416e-21)
(1.04852 -0.018038 -2.77188e-21)
(1.04855 -0.0197034 -8.0824e-21)
(1.04682 -0.0190041 -4.28882e-21)
(1.00597 -0.00722549 8.91494e-22)
(1.00594 -0.00690539 6.45272e-22)
(1.00565 -0.00697638 3.15677e-21)
(0.999999 -0.00198911 -3.74587e-21)
(0.999995 -0.00172223 -3.76321e-21)
(0.999987 -0.00171189 9.52216e-22)
(0.983645 -0.0204943 -5.3601e-21)
(0.982805 -0.0215489 9.28664e-21)
(-0.221466 -0.0248353 0)
(-0.197322 -0.0297398 5.78524e-20)
(-0.231039 -0.0232031 0)
(0.46393 -0.274795 0)
(0.269363 -0.191183 -1.89899e-20)
(0.152001 -0.14038 0)
(-0.14833 -0.151678 -4.68903e-20)
(-0.159815 -0.152154 1.74287e-22)
(-0.142264 -0.15052 -5.00332e-20)
(1.00347 -0.0111356 -6.86076e-21)
(1.00379 -0.0107715 7.63352e-21)
(1.28138 -0.072658 -6.80282e-20)
(1.28676 -0.0649615 -5.57368e-20)
(0.997781 -0.399379 5.6169e-21)
(1.01589 -0.387806 7.8187e-21)
(0.996898 -0.378715 0)
(0.555011 -0.518269 2.19594e-20)
(0.51623 -0.551991 4.84181e-20)
(0.517133 -0.489981 -9.15759e-20)
(0.994192 -0.0068267 -4.74052e-21)
(0.994508 -0.00715261 -4.83826e-21)
(0.993975 -0.00720267 4.11229e-21)
(1.06955 -0.0434229 8.62613e-21)
(1.06855 -0.0462839 -4.3026e-21)
(1.06667 -0.0433651 -4.83824e-21)
(0.167457 -0.0831509 3.00709e-20)
(0.155098 -0.0832092 0)
(-0.252413 0.0376397 -7.85849e-20)
(1.1935 0.0662624 -3.36248e-20)
(1.20075 0.0617999 -6.78417e-20)
(0.996054 -0.00329389 -2.24964e-21)
(0.995951 -0.00293478 -1.06884e-21)
(0.997317 -0.00322966 -4.64756e-21)
(0.997485 -0.00298367 4.61259e-21)
(0.99754 -0.00324023 -8.61039e-21)
(1.00628 -0.00747429 3.51144e-24)
(0.476968 -0.0321669 1.88834e-21)
(0.457168 -0.0334181 4.56931e-20)
(-0.281734 0.0430584 2.4025e-20)
(-0.302935 0.0488774 -1.11052e-19)
(0.740931 -0.389956 7.68794e-20)
(0.89054 -0.479115 -5.10862e-20)
(0.403459 0.0561549 1.0796e-20)
(0.303305 0.015821 7.31852e-20)
(1.02319 -0.0389799 -5.33485e-22)
(1.02185 -0.0377882 -5.00478e-22)
(1.02344 -0.0371727 -5.7154e-22)
(-0.0773497 0.0777178 -6.18746e-20)
(-0.0437424 0.103072 8.08991e-20)
(-0.111415 0.0867407 2.96034e-20)
(0.394618 -0.139961 6.64649e-20)
(0.372208 -0.153836 -1.05098e-19)
(0.401616 -0.165828 -3.32313e-20)
(0.909762 -0.0282363 5.93235e-22)
(0.907748 -0.0244097 6.04533e-21)
(0.912493 -0.0242864 -1.95468e-20)
(1.0353 -0.00233774 -2.71168e-21)
(1.03508 -0.00312107 6.68526e-21)
(1.03438 -0.00259329 8.28251e-21)
(0.96067 -0.0587484 0)
(0.96286 -0.0564875 -1.21952e-20)
(0.959669 -0.0553062 -9.98296e-21)
(0.19542 0.107528 0)
(0.161927 0.100967 8.70701e-20)
(0.187234 0.0693651 0)
(1.0166 -0.00536954 1.49972e-22)
(1.01704 -0.00546887 1.04756e-22)
(1.0168 -0.00568882 1.34979e-22)
(0.994473 -0.0115958 6.86273e-22)
(0.994944 -0.0116822 2.31678e-21)
(0.999707 -0.00192336 -8.13242e-22)
(0.999744 -0.00195708 8.41832e-21)
(0.999779 -0.00167435 5.02852e-21)
(0.975962 -0.0126828 2.98118e-22)
(0.974617 -0.0130863 -5.98718e-21)
(0.975744 -0.0140412 -1.57967e-20)
(1.02763 -0.00846585 -2.61628e-21)
(1.02798 -0.00807356 -1.0626e-21)
(1.0273 -0.00787912 -1.66359e-21)
(1.10789 -0.0175965 1.2799e-20)
(1.1103 -0.0211319 -1.56842e-20)
(1.11272 -0.0173718 -1.37614e-22)
(1.08026 -0.0102836 -2.8005e-21)
(1.0832 -0.0111006 -1.29314e-20)
(1.08173 -0.00811514 -8.50249e-22)
(-0.0768368 -0.173525 -4.89848e-20)
(-0.0714669 -0.170275 7.3502e-21)
(-0.0693997 -0.179586 -4.14671e-20)
(0.981181 -0.00289129 2.82334e-21)
(0.980395 -0.00349266 3.03915e-21)
(0.981444 -0.00376478 1.23798e-22)
(1.08908 -0.0782473 -5.26193e-21)
(1.08634 -0.0749749 -8.69248e-21)
(1.08472 -0.0793029 9.80595e-21)
(1.04833 -0.016528 5.37626e-21)
(1.04991 -0.0171063 -6.00941e-21)
(0.968317 -0.0334906 7.32109e-21)
(0.968517 -0.031028 3.38996e-21)
(0.970361 -0.0327408 -1.09045e-20)
(0.788599 -0.551221 9.01363e-21)
(0.750425 -0.554084 0)
(0.778071 -0.595089 0)
(1.18362 -0.0794766 0)
(-0.107333 -0.192295 3.50937e-20)
(-0.124028 -0.199023 -1.1428e-20)
(1.01513 -0.00526019 -5.53993e-23)
(1.01494 -0.00500607 -9.53034e-23)
(1.01472 -0.00518963 -3.37467e-22)
(-0.0497058 -0.160035 0)
(-0.0521493 -0.1596 -4.50649e-20)
(0.976753 -0.0766064 -6.8302e-21)
(0.976056 -0.0806714 -2.66718e-22)
(1.08313 0.0818337 -2.84184e-21)
(1.08508 0.0877965 9.03242e-21)
(1.07821 0.0861039 -1.12105e-20)
(1.02308 -0.0256413 -2.37043e-23)
(1.02444 -0.0256135 1.52248e-22)
(1.21119 -0.2763 -3.34535e-20)
(1.20036 -0.267872 2.12378e-21)
(0.999277 -0.00412511 -6.89154e-21)
(0.999201 -0.0041097 -7.53448e-21)
(0.73387 -0.0667055 0)
(0.744199 -0.0559969 2.77543e-20)
(0.725381 -0.0515039 0)
(1.16862 -0.11352 -1.35675e-20)
(1.16768 -0.122105 -6.70059e-21)
(1.02726 -0.00885361 3.91204e-21)
(1.02806 -0.00898208 -4.6032e-24)
(0.334114 0.448845 2.5174e-20)
(0.382933 0.429399 -3.61308e-20)
(0.378377 0.483235 3.7889e-21)
(-0.151014 -0.1552 -4.40739e-21)
(-0.126965 -0.151209 -2.6689e-21)
(-0.150746 -0.155924 1.32884e-20)
(1.09443 -0.147285 -4.16207e-21)
(1.09485 -0.139708 0)
(0.996433 -0.0161944 -2.26169e-21)
(0.996144 -0.0155577 3.02166e-22)
(0.995669 -0.0162611 -4.89323e-22)
(1.17493 -0.022415 0)
(1.17153 -0.027054 0)
(1.17835 -0.0287049 0)
(-0.151655 -0.156516 -1.36817e-20)
(-0.153543 -0.156908 0)
(-0.12087 -0.148252 5.6916e-20)
(0.748872 -0.0932926 -4.18913e-21)
(0.740356 -0.0796023 0)
(0.758211 -0.0836611 0)
(0.736385 -0.102323 -2.68523e-21)
(0.75363 -0.105105 8.79257e-20)
(-0.0836051 -0.141206 6.79859e-22)
(-0.091551 -0.139931 9.68612e-21)
(-0.0876936 -0.132555 -9.25063e-21)
(1.22533 0.0915259 3.3286e-20)
(1.22109 0.0988617 -5.98873e-20)
(1.22996 0.0974355 -2.48269e-20)
(1.08687 0.076676 -3.25736e-22)
(1.08083 0.0760102 -3.36361e-21)
(1.12711 0.0210049 7.61988e-21)
(1.13055 0.01609 1.4714e-20)
(0.413495 -0.121345 -7.92024e-20)
(0.382375 -0.112641 -1.82607e-20)
(1.02917 -0.00299136 -3.76933e-21)
(1.02938 -0.00246165 -1.21019e-21)
(1.02872 -0.00254383 2.55018e-21)
(-0.0666946 0.041318 -2.84115e-20)
(-0.268592 -0.0234818 6.60396e-20)
(-0.294008 -0.0193096 6.25207e-20)
(1.01622 -0.00528362 -1.23669e-22)
(1.01647 -0.00510185 -1.41353e-22)
(0.999791 -0.00133301 8.11741e-22)
(0.99977 -0.00128062 1.49889e-22)
(0.999837 -0.00107582 5.21192e-21)
(0.862042 -0.0150904 6.51e-20)
(1.02831 -0.0212289 0)
(0.987893 -0.0155052 6.63174e-21)
(0.98883 -0.0159738 1.3602e-21)
(0.987845 -0.0167172 -6.15517e-21)
(1.00006 -0.000913663 -4.79899e-22)
(1.00008 -0.00111139 5.11298e-21)
(1.23431 0.0350132 6.14913e-20)
(1.24011 0.030094 -9.06136e-21)
(1.23139 0.0289164 2.80935e-20)
(1.24554 0.025267 2.30044e-20)
(1.24372 0.018278 -2.18902e-21)
(1.25258 0.0197 1.0057e-19)
(1.02288 -0.0406014 3.16065e-22)
(1.07045 -0.0408291 -3.18156e-21)
(1.07231 -0.0438026 9.95151e-21)
(1.09192 -0.081515 8.79727e-21)
(1.0933 -0.0766566 -1.77842e-20)
(0.950871 -0.188983 9.02646e-21)
(0.942101 -0.180807 1.56078e-20)
(0.940295 -0.192914 4.58007e-21)
(1.07439 -0.0350411 4.75769e-22)
(1.07185 -0.0338795 -1.05959e-20)
(1.07404 -0.0322026 1.82061e-20)
(0.993851 -0.00650977 -2.45909e-22)
(1.07193 -0.194571 1.19978e-20)
(1.0767 -0.18892 3.86416e-21)
(1.06803 -0.18718 -1.85495e-21)
(-0.0399922 -0.181063 -1.69769e-20)
(-0.0312829 -0.187262 0)
(-0.0394974 -0.191309 4.29201e-20)
(1.02669 -0.00923565 1.53358e-21)
(1.02641 -0.00857567 1.21361e-21)
(-0.149977 -0.153841 8.21731e-20)
(-0.149456 -0.152937 -5.59044e-20)
(-0.16728 -0.155256 -6.70111e-20)
(0.99997 -0.000887016 7.45397e-21)
(0.999999 -0.000635934 4.97483e-21)
(1.00006 -0.00326782 -1.50257e-21)
(1.00002 -0.00297679 -2.13046e-21)
(1 -0.00331702 1.08247e-21)
(1.01299 -0.000828597 0)
(1.0128 -0.00103876 1.82364e-22)
(1.01317 -0.00104696 -1.50851e-22)
(-0.0499009 -0.0949792 -7.05231e-21)
(0.993248 -0.00123731 -9.88758e-23)
(0.992852 -0.00137791 -6.94595e-22)
(0.993269 -0.00169037 6.08998e-21)
(1.34993 -0.306398 2.10937e-20)
(1.31605 -0.314886 6.65695e-20)
(-0.0232709 -0.14512 0)
(-0.000367858 -0.139158 9.35307e-20)
(-0.0140233 -0.141009 -8.24776e-20)
(1.00084 -0.00371499 1.69997e-21)
(1.00079 -0.00380121 5.37179e-21)
(1.00094 -0.00397814 6.42563e-21)
(0.999393 -0.00386723 5.5897e-21)
(0.999362 -0.00415636 6.06933e-21)
(1.26152 -0.194929 -4.58484e-20)
(1.33775 -0.19172 -5.45141e-20)
(1.3682 -0.205328 -4.9981e-20)
(1.01251 -0.000489488 0)
(1.01298 -0.000497523 0)
(0.999926 -0.00100991 -4.50419e-21)
(0.999933 -0.00104422 5.077e-21)
(0.999896 -0.00128294 4.22165e-23)
(1.01395 -0.000607646 -2.40318e-23)
(1.0137 -0.000627591 -1.44387e-22)
(1.01268 -0.00037217 -3.39986e-22)
(-0.0334599 -0.15236 -8.29756e-20)
(-0.0383982 -0.153008 -4.92035e-20)
(0.587285 -0.385209 -1.18167e-20)
(0.552674 -0.374202 -5.27915e-20)
(0.929775 -0.0601233 -1.36153e-20)
(0.933512 -0.0573277 7.1658e-21)
(0.934099 -0.0623109 1.46956e-20)
(0.85932 -0.542325 0)
(0.870847 -0.509902 0)
(0.894782 -0.534246 3.9693e-21)
(1.2257 0.00128461 -1.96917e-20)
(1.22413 -0.00553792 -3.93765e-20)
(1.21857 -0.000334925 -8.88541e-20)
(0.122333 -0.0349178 -1.04297e-21)
(-0.0423679 0.0286006 -5.60791e-21)
(-0.0349203 0.0199823 -5.92442e-20)
(-0.0468795 0.0177895 -3.42787e-20)
(1.04878 -0.0214602 2.29095e-21)
(1.05056 -0.0203173 -8.95613e-22)
(-0.165069 -0.384585 7.61058e-20)
(-0.0630284 -0.394256 -1.12807e-19)
(-0.205066 -0.432954 -3.87942e-20)
(1.00001 -0.000617672 2.84464e-21)
(0.999989 -0.00087655 8.96089e-23)
(0.999994 -0.000582892 -4.41032e-22)
(-0.172889 -0.164 9.52815e-21)
(-0.149342 -0.155744 -1.90165e-20)
(0.432653 -1.00829 5.4096e-20)
(0.197948 -0.967449 3.9652e-20)
(0.422802 -1.10099 5.11739e-20)
(-0.153811 -0.142883 3.15918e-20)
(-0.150238 -0.146416 -7.1e-20)
(-0.158876 -0.143771 -1.12288e-19)
(0.0159317 -0.122452 4.37651e-20)
(1.22208 0.0864954 5.75673e-20)
(1.22975 0.0856756 5.50516e-20)
(1.06976 -0.0140242 0)
(1.07222 -0.0143544 3.83394e-22)
(1.1588 -0.0827813 -1.93379e-21)
(1.15893 -0.0898462 0)
(1.07889 -0.0129322 2.14538e-20)
(1.07748 -0.00979427 1.21709e-20)
(1.03554 -0.00156296 -4.56876e-21)
(1.03559 -0.000688802 -9.3303e-22)
(1.03468 -0.00107328 -6.57537e-22)
(1.0503 -0.0111941 1.22176e-21)
(1.05183 -0.01091 -7.01466e-21)
(1.05054 -0.00937193 -1.32684e-21)
(0.827873 -0.546285 9.42875e-21)
(0.801094 -0.518511 2.22669e-20)
(0.915425 -0.0724285 1.12794e-20)
(0.911957 -0.0671647 1.02103e-20)
(0.999401 -0.00363527 -4.13796e-21)
(0.999458 -0.00362007 0)
(1.00001 -0.00017382 -2.82433e-21)
(1 -8.2371e-05 -2.94782e-21)
(1 -8.91354e-05 -6.18133e-21)
(1.01552 -0.00536918 1.38894e-22)
(1.01528 -0.00556201 1.54373e-22)
(1.01793 -0.000110743 8.9564e-22)
(1.01771 -0.00019916 5.04737e-22)
(1.01823 -0.000214403 6.17645e-22)
(1.02697 -0.00976874 -3.59844e-21)
(-0.0565719 0.012402 9.02465e-20)
(-0.0505889 0.012869 1.95872e-20)
(-0.0545912 0.00649963 2.98518e-20)
(1.00596 -0.00895902 2.86048e-22)
(1.00628 -0.00888812 4.9088e-22)
(1.00594 -0.00859633 -5.56521e-22)
(1.02186 -0.0236051 -2.37305e-22)
(1.02086 -0.0232027 5.91362e-23)
(1.02104 -0.0243462 -5.86378e-24)
(1.01762 -0.000199702 0)
(1.01755 -0.000221459 -8.11795e-22)
(1.01814 -0.000171891 1.24966e-22)
(1.00341 -0.00999621 4.02316e-21)
(1.00378 -0.0100968 4.46354e-21)
(-0.0313194 -0.240239 -1.82345e-20)
(-0.0278369 -0.22982 -1.37531e-20)
(-0.0181941 -0.2447 2.60042e-20)
(1.12481 -0.46448 -3.2368e-20)
(1.13383 -0.488818 -7.70621e-20)
(0.683889 0.0724026 -4.21832e-20)
(0.687483 0.0571544 2.3232e-20)
(0.668108 0.0605679 -2.23523e-20)
(0.946308 -0.0175547 7.5479e-21)
(0.944772 -0.0195781 -8.42372e-21)
(0.943725 -0.0164298 -8.03444e-21)
(1.17401 0.0351971 2.76439e-20)
(1.16795 0.0325366 3.52552e-20)
(1.01552 -5.32382e-05 0)
(1.22982 0.234551 0)
(1.21462 0.223786 0)
(1.21351 0.238641 0)
(-0.0568198 -0.0418404 -2.09412e-20)
(-0.00982669 -0.0539499 -7.51196e-20)
(0.992482 -0.00199698 6.58327e-21)
(0.992916 -0.00229846 1.36874e-20)
(0.0325663 -0.126789 6.95061e-20)
(0.019467 -0.130214 4.4037e-20)
(1.12304 0.00671058 -2.95933e-20)
(1.12154 0.00192112 -5.575e-20)
(1.11798 0.00645735 -2.23917e-20)
(0.991564 -0.00339132 -4.89853e-21)
(0.991128 -0.00304667 -4.89858e-21)
(-0.143476 -0.00909816 0)
(1.24072 0.228427 0)
(0.996906 -0.00685462 4.67633e-21)
(0.997024 -0.00648604 8.97681e-21)
(1.06533 -0.20111 -4.81237e-21)
(1.07603 -0.203163 1.6405e-20)
(0.298266 0.436079 0)
(0.353674 1.10524 0)
(0.973556 -0.0299655 4.15008e-21)
(0.975354 -0.0305841 -2.36803e-23)
(0.974985 -0.0285742 4.18911e-21)
(0.825563 0.0181863 -8.00843e-21)
(0.832867 0.0139583 2.84782e-20)
(0.825701 0.00946814 7.44173e-21)
(1.02256 -0.0226802 -4.11404e-22)
(0.968669 -0.0288959 2.24165e-20)
(0.970277 -0.0279637 2.14905e-21)
(0.968541 -0.0267453 9.50481e-21)
(-0.184963 -0.168872 3.99021e-20)
(-0.186838 -0.169454 2.12502e-20)
(-0.189537 -0.172645 0)
(0.892261 -0.193823 1.8481e-20)
(0.898711 -0.183837 3.88683e-21)
(0.88453 -0.183814 9.58407e-24)
(0.998189 -0.0107104 1.69546e-21)
(0.997799 -0.0106818 5.71929e-21)
(0.995529 -0.00347366 -1.78942e-21)
(0.99584 -0.0035616 -5.22995e-21)
(0.995613 -0.00382134 -4.92424e-21)
(0.947985 -0.0152282 1.8311e-21)
(0.948935 -0.0183623 2.34305e-20)
(1.07484 -0.407065 -1.446e-20)
(1.05556 -0.403023 -1.05996e-20)
(1.06844 -0.388298 -1.46159e-20)
(0.07729 -0.180672 -9.84809e-20)
(0.10952 -0.197098 1.71342e-19)
(0.0816413 -0.225524 1.59662e-19)
(0.991847 -0.00809261 8.40399e-21)
(0.992494 -0.00801481 -2.81677e-21)
(1.00625 -0.00813845 1.44082e-21)
(1.00594 -0.0082036 -3.09803e-21)
(1.03171 -0.0148551 1.4407e-21)
(1.03175 -0.0139473 8.9906e-22)
(1.03264 -0.0147842 -3.30644e-21)
(-0.239309 -0.0187477 1.01358e-19)
(-0.215793 -0.0261643 5.6083e-20)
(-0.124645 -0.299026 0)
(-0.180706 -0.296699 0)
(-0.0917044 -0.0477347 -4.03766e-20)
(-0.0353211 -0.0522305 -4.57653e-20)
(-0.0655029 -0.0492153 2.10494e-20)
(1.02887 -0.00347202 -2.32487e-22)
(1.02858 -0.00391721 -1.87452e-21)
(1.0282 -0.00348016 2.42009e-21)
(0.90121 -0.203567 5.57189e-21)
(0.885009 -0.20548 -3.31723e-22)
(0.826813 0.0274948 2.64902e-20)
(0.818115 0.0240827 -1.51499e-20)
(0.823696 -0.710262 2.73792e-21)
(0.77732 -0.73022 -3.6906e-21)
(0.830855 -0.764646 -2.36852e-22)
(1.20581 -0.0192322 0)
(1.2094 -0.0156512 2.17568e-20)
(1.21229 -0.0220328 0)
(1.02895 -0.000351751 -2.40179e-21)
(1.02947 -0.000609801 -5.66251e-21)
(1.02879 -0.000786521 2.52013e-21)
(1.03096 -0.00167095 -1.53943e-21)
(1.03078 -0.00224525 -1.82962e-21)
(1.03152 -0.00208919 4.42595e-22)
(1.03166 -0.0157361 2.26774e-21)
(1.03079 -0.0149087 5.9337e-22)
(1.1531 -0.079852 -1.96097e-21)
(1.15848 -0.0759602 -6.23325e-23)
(0.991082 -0.0385094 1.67268e-22)
(0.992545 -0.039776 9.74611e-22)
(0.990695 -0.0406039 1.74274e-21)
(-0.0352431 -0.0538186 0)
(-0.0556422 -0.048194 -6.59768e-20)
(-0.0915403 -0.0445399 -7.27937e-20)
(0.998419 -0.0044994 0)
(0.998277 -0.00441862 0)
(0.998294 -0.00476134 0)
(1.01054 -0.0147584 -3.28808e-21)
(1.01058 -0.015384 5.19294e-21)
(1.01118 -0.0152507 -1.74976e-21)
(0.150785 -0.064089 3.07617e-21)
(0.0998538 -0.082708 -2.66217e-21)
(0.0766555 -0.0870001 2.44321e-20)
(-0.0623321 0.0104813 4.11889e-20)
(-0.0606271 0.0198194 3.69299e-20)