/*--------------------------------*- C++ -*----------------------------------*\
| =========                 |                                                 |
| \\      /  F ield         | OpenFOAM: The Open Source CFD Toolbox           |
|  \\    /   O peration     | Version:  v2012                                 |
|   \\  /    A nd           | Website:  www.openfoam.com                      |
|    \\/     M anipulation  |                                                 |
\*---------------------------------------------------------------------------*/
FoamFile
{
    version     2.0;
    format      ascii;
    class       volScalarField;
    location    "1000";
    object      ddt0(omega);
}
// * * * * * * * * * * * * * * * * * * * * * * * * * * * * * * * * * * * * * //

dimensions      [0 0 -2 0 0 0 0];


internalField   nonuniform List<scalar> 
9793
(
0.00245333
-0.047083
0.00268179
3.48077e-06
1.85559
-2.78966e-05
1.83363e-05
3.57086e-06
2.06835e-05
1.30165
-0.00121339
-0.00565522
-2.37176e-06
4.13759e-05
2.25341e-05
3.58926e-05
3.24381e-05
9.18912e-05
-0.0174519
6.26289e-05
-0.847484
0.000275295
0.0108933
3.95679e-06
-8.97254e-06
-9.37039e-06
1.61563e-05
-2.66514e-06
0.000905175
2.2972e-05
0.00132594
0.00271058
-0.0683322
4.84013e-06
0.00112774
-0.376471
1.53466e-05
0.000278873
2.27681e-05
-4.1839e-06
0.00107168
1.96064e-05
-7.40435e-06
1.23712e-05
-1.01265e-05
-7.71622e-06
0.000907133
-0.0125927
0.224014
8.23925e-06
0.00113508
-0.00040917
2.61361e-05
4.42395e-05
0.0415373
0.367928
1.39739e-05
-9.93569e-05
-0.159729
8.66743e-06
5.72645e-06
9.46472e-05
-0.126755
1.98702e-05
0.323217
-0.0549577
-0.095738
-0.0348064
-0.0286002
-0.000765003
0.0297072
2.34402e-06
-1.45875e-05
0.051071
0.0015527
-0.136312
6.53881e-06
-0.000171116
-7.74689e-06
-1.88007e-05
-0.0633516
-6.32252e-05
-0.0340313
-0.00607606
-0.000591286
-0.0111458
-4.85994e-06
5.23108e-06
5.07065e-05
-6.7675e-05
-0.0478625
2.46141
-1.46054e-06
-0.003829
6.4801e-05
-0.00505938
0.00248831
-0.0396463
6.50279e-06
-7.3899e-06
-7.83814e-06
1.23031e-05
2.02494e-05
1.80514e-05
-0.000179098
-0.00038182
3.52516e-05
-2.62408e-06
2.83048e-05
-0.0169245
8.80169e-07
-0.11169
3.87396e-05
0.033243
-0.000378499
7.77958e-06
-0.0386077
0.00151023
9.60571e-05
-0.00410524
-0.0189714
-8.47689e-06
2.00851e-05
-5.13645e-05
8.3206e-05
-0.593741
-0.00125832
-0.0115738
0.00036955
5.81149e-06
-2.56466e-06
5.23784e-06
-1.25682e-06
-7.02328e-06
2.41658e-05
6.86616e-06
1.92094e-05
1.22263e-05
2.72589e-05
2.75362e-06
1.47242e-05
1.69298e-05
9.26763e-06
-2.00976e-05
5.05115e-05
8.86264e-05
-0.10472
-2.02302e-05
1.33776e-05
1.0083
0.0708115
-3.59969e-06
0.0906449
0.747155
1.17609e-05
-3.98363e-06
2.42973e-06
3.1983e-05
-1.48136e-05
9.261e-06
2.89588e-06
3.9535e-07
4.9316e-05
-0.00989514
-0.0711819
-0.727368
-0.0124605
0.000460104
6.54195e-06
-2.60397e-06
-2.17816e-05
0.181279
-0.0991027
0.163871
6.67046e-05
-0.027619
6.85717e-06
5.97345e-06
4.3929e-06
0.000158567
-0.282896
5.47694e-05
-1.36528e-05
1.16814e-05
-0.0481272
-1.00133e-05
-0.00852067
4.50775e-06
1.98546e-05
4.89272e-05
6.36813e-05
5.65127e-06
0.474744
-0.176044
-0.0726016
0.000150367
0.00322691
-1.85465e-05
0.568879
3.42681e-06
2.2839e-05
0.0373289
0.377713
9.97843e-06
9.81668e-06
-8.60461e-05
-0.39016
-1.31377e-05
4.31807e-05
0.000130849
0.000452039
0.471989
0.0667656
4.09134e-05
0.00399933
1.9378e-06
8.60692e-06
-0.0617714
-3.96673e-05
-0.196757
0.00256239
8.08738e-06
8.01185e-05
1.56471e-07
-0.00960818
-0.00262154
-2.52504e-05
1.13889e-05
0.00247964
-0.000386538
7.29583e-07
4.13278e-06
3.91272e-05
5.10687e-06
-0.00137239
-0.186198
3.69935e-06
-1.21318e-05
0.0222808
7.80134e-06
-2.48843e-05
7.82873e-06
-5.39586e-06
-0.0721007
-1.2761e-05
1.04533e-05
2.45901e-06
3.87491e-05
9.1326e-06
3.65396e-06
6.89381e-05
0.000213748
4.39154e-05
-0.00126299
6.71069e-06
0.000336819
-2.17615e-05
0.000226564
-0.000126616
-1.77863e-05
-0.0108789
-1.79598e-05
5.06079e-05
-5.10969e-07
0.000479437
1.65101e-05
3.18469e-05
0.000465567
0.0272978
2.44235e-05
-2.02763e-05
1.54887e-05
0.000602836
4.7386e-06
-0.0401686
-0.0688789
9.80771e-07
-0.164923
2.8109e-06
-0.00134861
3.63639e-05
-4.37743e-06
-2.62933e-08
-2.97093e-06
-0.00124698
7.73096e-06
6.49385e-05
0.000401627
1.61788e-05
9.47655e-06
2.60406e-05
-0.0445184
2.23715e-05
1.16709e-05
-5.2862e-06
-2.61614e-05
0.000113164
0.00040966
1.35363e-06
-0.759206
1.41258e-05
-0.15476
-0.0151203
-2.16933e-06
5.88117e-06
-2.36335e-05
0.000646084
0.000379634
5.08981e-05
-0.140358
-1.50589e-06
-2.2092e-05
0.000397677
7.5508e-05
3.05856e-05
-2.47783e-05
-0.00962378
-1.50736e-06
0.000539833
0.000131823
-1.06899e-06
0.0247659
0.00346109
0.0321894
1.95934e-05
-0.300927
0.000132207
-0.189055
0.00189312
3.05011e-05
6.54967e-06
0.00194139
-1.77673e-05
-0.000119583
-0.000814866
-1.31559e-06
-9.82211e-06
3.09154e-05
2.62781e-06
-1.53455e-05
0.00321938
-4.25783e-06
1.83686e-06
-0.565953
2.07754e-06
7.37401e-05
8.77766e-06
0.000170331
2.11193e-06
0.00376603
9.90987e-05
1.41187e-05
4.53243e-05
2.24932e-05
0.18193
3.84616e-05
0.000469061
3.872e-06
0.000262126
0.0765817
-0.00382531
0.000158857
0.000156676
2.1031e-05
0.00299287
5.18555e-06
-0.0112572
-2.71571e-05
4.85651e-06
-0.0182561
-0.000134638
0.00172135
1.33561e-05
-0.0014612
-0.562047
-0.000138483
-6.73547e-06
-0.0559132
6.35888e-05
-0.103879
0.000345919
2.67536e-05
0.51933
-5.35503e-06
0.000151307
4.49025e-06
-3.05244e-06
2.66881e-05
3.44216e-05
0.000305482
0.195347
4.40644e-05
-0.358751
-0.0274558
0.00263149
-0.000447056
0.0312785
5.21175e-06
2.88601e-05
0.0193045
-0.0253626
8.33891e-06
4.13538e-05
-0.31111
1.67454e-05
-0.109238
-9.67904e-06
0.000308806
1.63739e-05
0.000563194
-5.94937e-06
7.85081e-05
-0.265392
-1.82852e-05
0.0169033
1.68403e-05
0.000108596
5.08007e-05
-6.23524e-06
3.33628e-05
6.79841e-05
-0.0061856
1.82563e-06
3.32753e-05
-0.00095288
2.09342e-05
-0.000130693
0.000126042
4.57042e-05
0.000191247
1.36111e-05
3.36198e-05
8.94069e-06
0.0446807
6.68422e-05
0.0409161
6.1871e-06
0.44014
4.71926e-06
-8.92575e-06
1.26913e-05
4.71788e-05
-0.0955012
-1.99766e-05
0.0442592
6.4975e-05
-3.25722e-05
0.000144961
-0.2216
0.00115482
0.173316
0.385549
1.01584e-05
1.18526e-05
-0.000397907
0.000196556
0.000626065
-0.0381069
-0.189986
-1.35427e-06
9.4614e-05
-0.00132891
1.95798e-05
-5.69278e-05
2.02144e-05
2.06496e-05
1.24257e-05
0.503142
9.43013e-05
0.22108
2.45259e-05
0.000682624
4.35309e-06
3.46742e-06
-7.53263e-06
-4.77417e-05
-0.00137642
5.5425e-06
0.000121443
1.84742e-05
1.35647e-05
-0.00016999
-0.0168631
1.59129e-05
2.63314e-05
-0.0230822
-0.000118735
9.50072e-05
-0.15254
0.545837
3.72295e-06
3.61569e-06
0.000169035
-0.000163158
3.9971e-05
4.06683e-06
2.61576e-06
-1.3158e-05
-2.14524e-05
1.38391e-06
-0.0893445
0.000507787
3.26764e-06
-0.0691908
0.000902327
-2.16002e-06
2.51943e-05
7.22386e-06
-0.118303
5.17514e-05
0.268375
3.95915e-05
-7.82721e-06
-0.000295496
1.57201e-05
-0.000113354
0.0605891
0.000589734
-1.90587e-06
-0.328279
-0.000145342
-4.82428e-06
-2.49083e-05
-0.00288389
1.84692e-05
-2.40439e-06
1.0397e-05
2.2912e-05
-0.0536453
-0.00145382
0.000883446
3.37393e-06
-2.28869e-05
6.05887e-07
1.6608e-05
-3.82791e-06
3.37727e-06
-0.304964
0.0027435
1.68252e-05
-3.28745e-05
0.0322934
-6.35565e-06
0.0797399
0.000226524
-2.2427e-06
-0.00103417
0.375324
3.50487e-06
0.0993408
4.11817e-08
0.0400281
0.000319673
0.579462
-9.10939e-06
7.92203e-07
2.67547e-05
0.00686151
-3.51807e-05
-0.154081
-0.0759928
-0.153901
-0.000145098
0.0190383
0.000633146
1.93022e-05
-0.000220483
-4.28886e-05
-0.0162442
4.42645e-05
0.451464
3.4111e-06
0.110077
-1.15389e-06
3.20807e-05
4.64619e-06
0.53013
8.47738e-06
1.21124e-06
7.94329e-05
0.000156031
0.000111018
-1.36775e-05
-1.20622e-07
-9.34628e-06
-1.16408e-05
0.00831626
8.40193e-06
-0.232556
-0.147116
7.86716e-06
-3.15861e-06
0.000687602
4.27832e-05
1.45681e-05
7.12566e-05
-0.000133435
0.00031857
3.13332e-05
0.00015863
6.71305e-06
3.63346e-05
0.00013602
0.000259512
6.20416e-05
0.000180766
-0.489542
8.74833e-06
0.000227874
3.27832e-05
2.01381e-05
2.00025e-06
-1.1795e-06
-2.59378e-05
4.59297e-05
-1.10592e-05
7.55766e-05
2.84655e-06
-2.55483e-06
6.9371e-05
6.38532e-06
0.000293445
1.64142e-06
3.19033e-05
1.50996e-05
2.59763e-05
0.000267777
3.36448e-05
-0.000230747
4.23034e-06
-8.51806e-06
2.18661e-06
1.57163e-06
-1.64393e-05
1.49788e-06
-3.33544e-05
-1.76423e-06
9.37092e-06
7.33775e-06
0.000491903
4.758e-06
2.87688e-06
1.44784e-05
0.271364
1.6146e-05
1.63185e-05
-0.00121426
-1.27959e-06
-7.57138e-05
0.797311
-1.14378e-05
8.81976e-06
-8.48508e-06
-0.00190484
-4.84193e-07
-0.00142016
0.0266259
0.223466
-0.0401746
-6.77869e-05
1.42215e-05
-0.227403
-4.47369e-05
1.33893e-05
-0.0583614
0.561302
0.0961517
6.3144e-06
-0.0027919
1.29562e-05
1.99697e-05
0.431006
6.5243e-06
-0.301364
-0.000706332
0.000541514
-4.94429e-06
0.000287771
0.000127159
0.449045
-0.476204
-9.15561e-06
-0.000232694
-0.00014124
-1.21154e-06
-0.000107992
-0.00128903
-0.272988
-6.95689e-06
0.0637203
2.11014e-05
0.271163
0.043423
-0.0371384
-0.00520479
-3.18722e-05
-0.000185169
-0.185661
2.77664e-05
3.32627e-08
3.38202e-06
8.47893e-05
6.73935e-06
0.512109
7.46081e-06
-0.124871
2.18149e-05
-0.0149889
-0.000792963
2.09179e-05
0.0444801
0.0392406
7.45204e-05
0.597364
-0.000187219
-0.00373154
8.34616e-06
9.63769e-08
-0.00833865
-1.11477e-05
-0.527071
4.57926e-06
-0.128749
6.83074e-06
-0.0120554
-0.00793656
-3.26962e-05
-0.223144
1.38088e-05
6.83906e-05
-2.89345e-05
-0.131642
-0.245043
-6.45328e-05
8.98087e-06
1.88472e-05
0.136006
-0.348694
1.36733e-05
2.48999e-05
0.100362
1.51581e-05
2.01781e-05
-4.56173e-06
-0.329908
-2.79233e-05
-1.41315e-05
7.62968e-07
2.6713e-06
-0.0449661
0.0466577
0.000750623
-1.39082e-06
-1.78116e-06
0.184687
-2.99104e-06
0.571045
0.0006445
-0.094174
-0.0128029
-0.0200862
7.65453e-06
1.98119e-05
0.000118707
7.03266e-05
0.000259788
-8.63421e-07
-0.00260888
-0.0673582
1.67254e-05
0.0561254
-1.12974e-06
0.0195843
2.19002e-05
0.0154405
0.000377807
-3.91617e-05
-9.73041e-06
-0.000192387
0.00998771
0.140727
-0.161534
-2.20981e-07
0.000758291
9.32249e-05
0.0002091
0.000316982
-0.307689
1.81979e-05
-0.00358132
2.07653e-06
-0.000201716
-1.02896e-05
1.77059e-06
1.29567e-05
-2.05756e-06
1.4243
3.14336e-06
0.000213795
9.01891e-06
-6.99916e-06
4.38856e-06
0.00183399
-2.8074e-06
3.51419e-05
1.59088e-05
9.68912e-06
-0.0975883
1.47977e-05
-0.648103
1.76636e-05
0.0330968
1.93222e-06
-0.0577568
2.86396e-06
0.0121057
4.13054e-05
-8.75229e-06
-2.19754e-06
-0.0195839
-0.0945209
0.0221193
2.09874
0.158587
-1.52431e-05
0.00013278
0.0243021
3.34561e-06
-0.0139866
-0.017217
0.001883
0.00580823
0.000200883
-0.0493019
-0.000175633
0.0274292
-0.0250004
0.000191344
4.56597e-05
-0.0696929
-0.975347
4.73899e-05
0.000303467
2.21267e-06
7.34024e-05
-0.000697068
4.8336e-07
-2.80482e-05
6.74982e-05
0.0386211
-2.11631e-05
8.44911e-05
0.231873
-2.43383e-06
-1.2272e-05
0.127469
-0.466813
-0.000897321
-4.78232e-06
0.00268988
1.87083e-06
4.07102e-06
-0.0295246
-2.58101e-06
0.000180616
-0.03586
-0.0272257
-3.91438e-05
0.107336
0.110946
-0.28184
0.0635924
-0.337941
-5.72633e-06
0.0118281
5.50154e-05
-1.35602e-06
2.78727e-06
5.29108e-07
0.000102123
-0.347919
5.6857e-05
-0.0247654
4.92196e-05
0.00108311
8.12945e-05
-0.000874335
0.000110218
2.03336e-05
0.000658882
-9.56763e-06
2.0775e-05
0.0024208
0.000652518
0.000345996
-1.19808e-05
1.30672e-05
-0.0933262
-0.13878
0.000111583
5.3529e-06
2.4557e-06
-4.20175e-05
0.000238405
-0.000553137
0.00245329
0.0824272
0.000566103
-0.0138856
-8.1275e-05
0.000444656
0.000100644
0.000156549
0.00422867
-9.12321e-06
3.78426e-06
-0.833262
0.000398482
-0.325265
-1.26136e-05
0.282086
0.0544223
5.50599e-05
-0.000976453
1.19178e-05
-0.00648251
2.23288e-05
7.65273e-05
0.138445
-0.00110062
-9.25158e-06
0.00831919
4.09378e-05
5.92833e-06
-7.23878e-06
1.22876
3.99989e-05
-0.000120967
-0.0146867
-0.000720034
0.00042791
0.000764637
-0.00567247
-0.083064
-0.00743155
1.87245e-05
3.25934e-05
5.73105e-05
9.90481e-05
1.12501e-05
0.242908
0.0600668
1.14162e-05
0.0669984
0.0485857
-0.0342482
3.69986e-05
-0.113066
-1.45961e-07
-0.0235084
-0.00292668
4.35657e-07
-0.115606
-0.2467
-4.97457e-06
1.85598e-05
1.70842e-05
-0.102084
0.107006
0.000563685
0.000244311
0.015811
0.0131506
-0.351292
0.125048
-8.38166e-06
2.51143e-05
-0.381259
-0.475754
-3.14654e-06
-2.06532e-05
-6.16528e-05
7.60668e-05
3.10152e-05
2.76385e-05
-0.392958
-7.33724e-06
-0.000164781
-0.436739
3.77477e-05
-4.13525e-06
0.000379676
0.0675244
2.63948e-05
0.000444053
-0.0134295
7.87942e-05
1.52092e-05
9.48406e-05
2.69133e-06
0.000181206
-0.00756956
-0.0545359
-3.13579e-05
-0.0149872
-1.59082e-05
0.00182106
-9.90133e-07
-2.11245e-05
0.000159806
4.60647e-05
-0.12553
-2.22458e-05
1.10114e-05
0.000574477
-0.000121962
-0.000261928
-7.49813e-05
1.97717e-06
-0.00109442
2.65114e-05
1.85604e-05
0.468105
-8.93712e-06
-0.453606
-0.000220455
4.11838e-06
-0.219618
2.88367e-05
-0.000170643
0.191067
-5.0401e-06
-0.0174488
-1.18096e-06
4.05666e-06
-0.418676
-0.183161
-5.7026e-06
1.73665e-05
-7.2342e-07
2.78238e-05
-0.00504925
0.000146478
-8.36617e-05
7.2161e-06
7.78367e-05
6.02896e-05
-1.42206e-05
4.91034e-06
7.68429e-06
6.48141e-06
-0.020928
0.000328963
3.50516e-06
-0.000996226
9.4125e-05
-0.0657143
0.0248427
-0.00066584
1.58169e-05
4.76901e-06
-0.00264414
0.000255535
1.34328e-05
3.17421e-05
-0.00439915
0.159394
4.56319e-06
-7.96472e-07
-0.00325463
0.0016051
4.84376e-06
0.00614366
0.000609066
-5.06908e-07
8.04901e-05
-0.0050746
3.2559e-05
0.000604724
-0.0398538
8.61714e-05
-0.0926133
-0.00524481
0.0378147
-4.4753e-06
1.3011e-05
1.39834e-06
-1.22255e-07
0.264618
-5.02318e-06
-0.00830495
0.000459747
1.01745e-06
8.96699e-05
0.000626906
-9.11722e-06
3.0395e-05
-3.56176e-05
5.14736e-05
0.109009
3.93162e-07
1.93209e-05
-0.0110396
-0.000135521
2.04103e-05
3.54173e-05
-1.00165e-05
2.01123e-05
3.79197e-06
2.42984e-05
4.91313e-05
-7.28849e-06
0.0048364
0.42018
-2.71179e-06
1.119e-05
-3.30297e-07
0.0034642
1.96133e-05
0.000388411
-1.16247e-05
-1.40312e-05
0.000623464
1.23941e-05
-0.000215175
5.89716e-06
1.42022e-05
-0.0060696
0.241914
1.4751e-05
1.56064e-05
1.72518e-05
0.0401431
0.00204932
-1.93974e-05
0.0186439
-0.105081
-7.13016e-07
0.00749679
0.0729313
0.000338205
-0.0102104
0.000292098
-0.0343655
5.14997e-06
0.000350857
-0.000439082
1.36766e-05
0.0377545
-0.344647
2.49138e-05
-0.277327
-0.209098
4.68698e-05
-0.00333937
-3.68343e-06
0.000210858
0.00125011
1.41793e-05
-0.105355
-3.92041e-06
-0.000684774
0.00235666
-6.87597e-06
0.362664
4.3615e-05
2.32904e-05
-2.74681e-05
2.40292e-05
-0.178487
-0.358244
9.16957e-06
0.000188952
-0.383308
-8.1913e-07
-3.06451e-05
-1.21169e-06
-0.00604727
0.269052
0.000660332
5.65846e-05
-7.21743e-05
-0.332497
-0.414061
-0.000155399
-6.39798e-06
6.08259e-06
-0.424117
0.0490275
0.041135
0.000234962
0.000229054
5.68892e-05
1.46208e-05
1.64905e-05
2.06976e-05
0.000228417
2.89578e-05
1.58582e-05
-0.0264672
0.0892834
1.44982e-05
1.01307
0.000342177
0.0451399
-0.273889
0.000545676
-0.208869
0.127686
-3.7108e-06
-0.0177238
-0.0260573
-0.119906
-0.172879
-1.27992e-05
-0.0170597
0.025208
0.0012246
0.000479839
-0.152192
0.126884
3.68373e-06
3.0461e-05
1.20163e-05
-5.66466e-06
-0.00376935
2.10251e-05
-1.00798e-05
-2.47675e-06
-1.15565e-05
3.97638e-05
1.21579e-05
0.000201868
-7.48852e-05
-0.0295615
5.61765e-05
-0.0292237
-1.60484e-06
-0.000139608
2.21517e-05
1.70029
0.34511
7.52235e-06
0.00133814
-1.53595e-05
-2.30225e-06
-3.02136e-06
-6.24722e-06
-5.61038e-06
0.00430766
2.28006e-05
-0.00900769
7.71093e-07
1.16995e-05
-0.0326529
1.28683e-05
2.93571e-05
1.55307e-05
-1.76894e-05
-0.00956979
-0.0037624
0.179724
0.419557
0.0385477
1.91968e-05
3.04196e-05
6.03072e-05
4.26935e-05
0.00309369
-0.00554091
-0.436601
3.50754e-06
0.00123821
7.37553e-05
-0.0102135
-0.365717
-3.397e-05
-0.300818
0.0231622
2.22974e-05
0.00112144
2.07414e-05
-0.000954477
-0.000158762
-0.00117811
-0.00060254
-2.50828e-06
-0.227491
-0.0972565
3.04425e-05
1.753e-05
5.46093e-05
0.778678
0.000183037
4.66684e-05
0.0890398
3.30891e-06
0.285853
-2.99993e-05
8.77575e-06
5.20124e-05
5.76096e-05
0.0752644
1.49872e-05
-0.0258288
9.56091e-06
9.2145e-06
-2.86004e-07
0.00571033
0.000181622
-0.37856
-0.000135495
4.36149e-05
0.000447283
0.001196
2.08455e-05
2.49369e-06
-0.110718
2.82049e-05
1.56527e-05
-0.0673061
-0.0790118
8.99594e-06
-4.76365e-07
-0.000137756
0.00288345
0.00207521
3.02425e-06
0.0563116
-2.31962e-05
0.00628125
0.00614964
4.58531e-05
7.89925e-06
0.000475849
6.05099e-06
-2.47602e-06
-4.74274e-06
-0.00282038
-0.272702
-0.00321478
5.75628e-05
3.57053e-05
3.85946e-05
0.114172
0.000526952
3.83316e-06
3.17864e-05
-1.76316e-05
-0.416885
0.024242
0.0180722
4.54298e-06
0.148797
-3.882e-06
-5.96235e-06
8.07162e-05
4.32661e-05
0.000879489
-5.01742e-06
0.0110915
-0.0113452
-0.235231
4.17146e-05
1.71486e-05
1.96671e-05
0.000893451
2.96117e-06
-1.0946e-05
0.000831831
2.27386e-05
1.56177e-05
0.000146027
4.74255e-05
1.58879e-05
-0.293581
-0.00105609
2.28833e-05
4.40258e-05
0.00545712
2.7932e-05
0.0217337
4.76091e-06
-1.1948e-05
2.00052e-05
-1.26864e-05
2.28487e-05
2.942e-05
0.0189108
0.00362859
2.49609e-05
2.85903e-05
-1.77407e-05
5.20627e-05
0.000234049
0.000722758
7.60768e-05
-0.382984
-1.5565e-05
8.41563e-05
9.42895e-05
-0.000203946
2.26973e-05
-0.406627
1.52584e-05
2.74364e-05
2.21582e-06
-0.42835
0.00013203
-0.0742143
-0.453057
0.000111787
2.31906e-05
6.56973e-06
7.65027e-06
-0.00230166
6.9648e-06
8.27253e-05
-0.122585
1.91328e-05
0.00101536
0.0118874
0.000173843
0.00828945
3.06831e-05
4.40914e-05
-2.31501e-06
1.18282e-05
-2.98504e-06
6.22968e-06
-0.0158612
0.000473262
5.07033e-06
-0.222008
-0.01557
7.29995e-06
-0.00417705
9.5972e-06
0.000901121
2.21619e-06
1.96133e-05
0.00175785
2.661e-05
1.25497e-05
0.000373124
0.00101944
-0.00231943
0.000108383
6.34989e-06
0.000178112
-0.289913
-0.0222863
-0.00098682
-0.000205202
1.62312e-05
6.1993e-06
-0.019464
3.59184e-05
0.000333558
0.00117729
0.0550685
2.07422e-05
-0.000729746
2.66602e-05
7.71721e-05
0.000772233
-3.13424e-05
0.000820989
5.21142e-05
5.33352e-05
0.000151528
0.171838
-0.03281
1.39242e-05
-2.31469e-05
-0.00307271
0.000173722
0.000863636
2.62203e-05
5.79988e-05
-1.50673e-06
-0.00315461
0.0516913
0.000347467
3.02106e-05
0.0025565
3.07822e-05
0.000210272
2.34931e-05
-4.15167e-06
-1.01755e-06
1.92615e-05
0.000787123
-0.000460841
0.000133749
7.60705e-05
1.24841e-05
1.70627e-05
1.61492
3.30749e-05
5.21885e-06
6.237e-05
0.00517518
0.0112094
2.24227e-05
-2.22607e-05
1.64288e-05
-0.0477239
0.000126082
0.0244938
1.98829e-05
0.000960765
1.68653e-05
2.54538e-05
-0.0237599
4.73994e-05
1.4187e-05
4.69009e-05
-4.86726e-06
1.15705e-05
0.000201475
1.09038
4.95615e-05
5.99745e-05
-0.0838237
2.74351e-05
0.000159357
5.66766e-05
4.37855e-05
-3.69063e-05
0.000104817
-0.0263027
-1.25455e-09
3.84208e-06
2.12007e-05
-0.16673
0.000286195
-0.0449605
3.15357e-05
6.05435e-05
0.160028
0.0715484
-0.0126553
-8.10629e-05
-0.000332463
-0.0288707
2.9514e-05
-0.0258983
2.3471e-05
-0.0192604
-2.3373e-06
-0.0861365
-0.0101386
2.52507e-06
0.000346874
8.33081e-05
0.000165067
-1.06138e-05
-0.0310402
6.45645e-06
-0.0240728
3.3768e-05
1.3706e-05
6.99096e-05
-8.48948e-06
7.48298e-05
0.0853649
1.20464e-05
1.02821e-05
1.48504e-05
2.45866e-05
9.22929e-06
-0.0555472
0.00309819
-0.104748
2.88416e-05
-1.21321e-05
7.18146e-05
2.5219e-05
1.89253e-05
-0.00420944
-0.000663703
-2.61835e-06
2.81978e-05
-0.0311637
0.000188897
-0.150361
0.00224957
0.000232293
5.03369e-06
1.77149e-05
0.000301635
-0.128751
-3.04043e-05
7.15783e-06
0.160982
-0.0329026
-0.00100463
0.214548
2.48668e-05
3.10529e-05
5.87671e-05
7.50693e-07
5.23377e-05
-0.154872
0.252781
-0.901042
-1.20003e-05
0.0215335
5.46828e-05
2.77827e-05
1.31502e-05
4.64788e-05
2.27125e-05
-0.00360883
7.70091e-06
1.12387e-06
3.06915e-07
5.49881e-06
1.43852e-05
-1.79676e-05
0.000409651
-0.0720528
0.0114042
2.13634e-06
1.32649e-05
1.77677e-05
5.8172e-05
2.09277e-05
-0.0337364
4.37967e-05
3.84508e-05
6.54468e-05
-0.0187341
-5.52845e-06
0.000286697
-0.0550653
-8.3111e-06
2.1051e-05
-0.00756156
-2.96124e-05
-4.89825e-06
7.38728e-07
1.72283
0.0111583
0.00111785
6.61587e-05
-0.71132
-7.44267e-06
-1.55946e-06
1.31883e-05
1.54006e-05
-0.00560044
-9.47025e-06
2.5673e-05
-0.00058855
5.40752e-06
-0.0063252
0.000496268
0.000506409
5.47664e-05
-0.0637514
-0.000603583
3.0464e-05
1.28211e-05
1.35016e-05
2.00779e-05
2.04459e-05
-0.0716178
1.07691e-05
-0.0135861
9.56504e-06
-3.13449e-05
0.382704
-4.88805e-06
-0.199954
-0.00313466
2.40579e-05
-0.0411815
1.38795e-05
-9.20683e-07
-1.42574e-06
5.82011e-05
-2.62499e-06
5.71428e-06
2.85751e-07
-6.6774e-06
0.00779295
2.1619e-05
6.82584e-06
5.05202e-05
1.62178e-06
1.96646e-06
5.65108e-06
1.52164e-05
5.05426e-06
1.07648e-05
2.63106e-06
2.51075e-05
1.43008e-05
9.85974e-05
-0.182345
4.89767e-05
1.59325e-05
0.00348483
-0.000555268
3.79366e-05
-0.00122008
2.01413e-05
-4.12438e-05
2.24948e-05
-9.90321e-06
0.341201
-0.00939062
1.02525e-05
0.000197776
-0.029675
3.70733e-05
0.0249655
-0.102448
-6.31403e-06
0.331236
1.78523e-05
-0.0400671
0.00038749
0.0299511
-0.00548875
0.144458
2.80109e-05
7.5511e-06
1.64386e-05
0.000452527
0.00202438
0.000173803
-0.073774
-0.0257208
-5.65827e-06
-0.40556
0.195804
-0.000400881
1.18309e-05
0.00085624
0.000800919
-1.33731e-06
-1.70838e-05
0.00018049
5.98984e-05
2.70586e-05
4.11348e-05
4.82189e-05
6.25546e-05
0.00396765
-4.11771e-06
-1.31821e-05
7.71233e-06
-0.139072
1.0692e-05
2.64025e-05
1.73614
0.0115544
0.020611
-9.32574e-06
1.19885e-05
2.60383e-06
-0.000689127
8.30178e-06
0.00012182
0.139319
2.37552e-05
0.00147073
-1.04523e-05
-0.00967412
-0.0029115
-0.000427156
-0.116894
0.0847275
-3.46035e-06
-1.21784e-06
-6.24081e-06
-0.0326279
1.08803e-05
3.22916e-06
-2.15085e-06
0.000683772
-0.110555
-0.0688075
3.33346e-05
0.00340415
0.0193497
0.000866553
-0.00551492
0.0501719
0.123145
-0.000715074
0.046013
-0.0147795
1.82903e-05
1.73233e-05
3.3129e-08
0.0532928
0.00618626
0.134255
-5.97349e-06
1.03214e-05
-3.18706e-05
0.0208197
6.56094e-06
-3.09877e-05
-5.16912e-06
0.000872623
8.06364e-06
1.45656e-05
8.83774e-06
0.000225983
0.00131682
0.000468254
-4.67063e-06
2.82043e-05
0.068624
0.000139627
2.07296e-05
9.23883e-06
0.0137308
0.11201
3.45899e-05
3.01883e-05
1.86949
-2.46951e-05
-1.00639e-05
1.44215e-06
-2.30767e-05
0.0239813
3.38833e-05
3.77844e-05
1.54542e-05
5.58551e-05
-1.44859e-05
6.35439e-06
1.58556e-05
4.80532e-06
-3.58246e-06
-0.0113105
2.00721e-05
7.33318e-06
0.0127844
0.00069499
0.000425307
-0.00316828
4.78233e-06
-0.039085
5.9999e-06
0.000437492
1.24871e-05
0.288584
-2.01805e-05
-4.93921e-07
-9.71343e-07
0.166543
5.08943e-05
4.58511e-06
-0.000108226
-1.99969e-05
-4.51379e-06
-2.01079e-05
7.35426e-07
0.000283439
-3.75257e-07
0.101572
2.18765e-05
-0.0413641
0.0133395
-2.63705e-05
-0.000667082
2.45751e-05
-9.98577e-06
-9.22343e-07
0.653488
-0.000895924
0.00549523
-0.000665657
0.00172129
-0.000139305
0.0495114
1.31066e-05
-4.58327e-07
-3.04844e-06
1.10939
0.110788
2.66256e-05
-0.002643
2.23185e-05
-1.37269e-05
0.216875
3.31058e-06
-6.49458e-07
-0.0472019
0.0709353
0.641642
-7.90965e-06
-7.79893e-06
0.0306373
3.98765e-06
6.94874e-05
-0.00572435
-2.85499e-05
0.0167909
0.000239095
-0.190743
7.46062e-06
0.00014176
1.58003e-05
-3.85317e-06
-0.0077543
1.75349e-05
2.52899e-05
0.00102994
8.62955e-07
0.00694703
-1.13695e-06
0.000152703
2.77882e-05
0.372511
6.31277e-05
2.96131e-05
1.33547
-0.0235044
-2.97522e-05
0.049744
3.64296e-05
-2.15055e-06
-2.65062e-05
5.04812e-06
2.05535e-05
0.010868
0.0292497
-2.24786e-05
3.76267e-05
1.23755e-05
-3.93008e-06
-6.96856e-06
-3.48432e-05
-2.2015e-05
-4.70785e-06
-7.19526e-06
5.29103e-06
-2.27136e-05
-0.0819084
3.12764e-05
-3.85348e-06
0.0015915
-2.73859e-05
-2.07198e-06
-0.0231159
-0.112899
-0.116403
0.00151709
-0.0030079
-5.00694e-06
0.000130875
0.0120715
0.0799299
0.105641
-0.0153025
0.014938
2.21884e-05
0.0464753
0.525217
2.71691e-05
0.012294
0.000101983
0.458779
0.00540483
0.196185
0.000116619
8.8129e-06
0.000802908
-2.36844e-05
-3.56093e-05
-0.00674109
0.0631213
1.89787e-05
7.7326e-06
-7.07728e-06
-0.137706
-1.70621e-05
-7.92783e-06
-5.50851e-06
2.81109e-05
-1.03776e-05
0.00722324
4.94729e-05
1.01798e-05
-3.58616e-05
2.14618e-05
0.00266302
0.176656
-5.19931e-06
-1.96582e-05
0.000205447
4.1765e-06
4.6922e-06
1.66278e-05
0.0105772
-1.8316e-05
0.000673705
9.6053e-06
-3.25224e-05
7.58371e-06
7.32382e-10
-0.0875553
0.00238013
5.50676e-07
-4.89113e-05
-0.0150847
-0.153301
0.00127816
0.610089
-3.59985e-06
-2.54026e-05
-1.44551e-06
-3.92263e-06
-1.24848e-05
-6.46598e-06
3.7971e-06
7.7252e-06
4.41767e-05
0.0120987
-3.12253e-06
0.204356
0.348959
-5.73026e-06
-0.00143258
0.000985415
9.89052e-05
1.49564e-05
2.24626e-06
3.87125e-05
3.43546e-06
-0.0391825
-3.5352e-06
-5.93463e-06
0.00200487
-3.01294e-06
2.20942e-05
2.41336e-05
0.0278144
6.0471e-06
7.12124e-06
0.104116
-3.21998e-06
3.45624e-06
-1.24375e-05
0.0370681
7.88407e-06
1.17524e-06
-2.19363e-06
1.12317e-05
0.00574229
-0.132251
-1.41919e-05
-0.0288723
-3.87982e-06
5.77781e-06
6.89593e-05
-0.0158329
-0.343411
7.17577e-06
-0.000101122
2.51563e-05
6.0073e-07
-1.7389e-05
1.3353e-05
0.00438654
-0.0505127
-1.17756e-05
9.32671e-05
-0.00759602
2.15067e-05
-3.87708e-06
5.01384e-05
0.000626737
0.0395514
-9.3181e-06
0.000293012
-0.0102233
-7.41231e-06
4.49072e-05
-0.0454789
-0.0203426
3.22726e-06
-5.21745e-07
-2.77163e-05
-1.86365e-05
9.10981e-06
-0.00367079
-7.21775e-06
0.0351725
0.200405
3.31051e-05
1.98145e-05
-0.0121192
4.4317e-05
0.00135393
-0.109867
0.0164906
0.000237057
9.95337e-06
1.00493e-05
-0.0081277
-1.34876e-06
0.0105319
2.20039e-06
1.00446e-05
8.31736e-07
-6.69484e-07
-3.07133e-06
-0.166277
2.59772e-05
0.131045
-0.0140416
-0.00263187
-0.0544282
-4.20158e-06
-1.08211e-06
3.25325e-05
0.13862
8.17181e-06
-0.059477
-0.00294433
9.38484e-06
-9.28185e-08
-0.00100123
4.13665e-06
-0.00284224
0.011603
-7.66533e-06
-0.0338004
8.02809e-05
0.029106
-0.000244179
9.76325e-06
3.9087e-06
-0.00028837
0.00140128
-3.1531e-05
0.00018515
2.78222e-06
0.000567296
3.88624e-06
-0.0309922
3.05565e-06
2.26008e-05
0.00601598
-2.18691e-06
-0.0299804
1.33988e-05
-4.09071e-07
-9.68443e-06
0.0222225
-1.80612e-06
7.11954e-06
0.291273
0.00122796
-0.022674
-9.50238e-06
-4.78777e-06
-0.00263982
-0.0932379
0.0507707
1.06739
7.51185e-05
4.28314e-05
2.09854e-05
1.51301e-05
1.78798e-05
6.54267e-05
-8.69451e-06
6.18497e-06
-0.00114941
1.96486e-05
3.29425e-06
-4.625e-07
2.05306e-05
1.55491e-06
5.41037e-05
0.000156991
-0.000410022
-0.0555482
-0.00138409
0.00744783
-0.0083751
1.98178e-06
-9.51377e-07
0.00011749
0.000881707
5.24058e-06
-2.49566e-05
2.16396e-06
3.24899e-06
4.2094e-06
-0.000328234
-8.01592e-06
0.00530241
-1.43744e-06
2.56596e-05
-0.0046453
0.000620307
1.23854e-05
2.12654e-05
4.68915e-06
0.0130133
-0.00567586
2.10237e-05
-1.91674e-06
-1.85739e-05
3.67752e-06
7.17432e-06
-6.03936e-06
0.00509432
2.76271e-05
3.33933e-06
0.09272
4.75932e-06
0.000967617
4.2031e-05
-1.19996e-05
1.00573e-05
-0.010297
-0.000585471
0.0284635
-0.174768
2.83549e-05
1.23918e-05
3.10723e-05
-6.94108e-06
-0.00363811
9.84127e-06
0.234964
0.455599
0.000171231
0.0229001
0.0390035
1.59046e-05
0.120963
0.000196849
-0.472994
-0.000209958
1.21255e-06
2.45903e-06
6.17221e-05
6.43426e-06
-0.00171573
0.0535051
0.00015002
-2.0977e-05
2.11904e-05
3.59039e-06
-0.00120309
7.33013e-05
0.0014145
6.38872e-06
3.7172e-05
0.00260747
4.19518e-06
0.116479
0.00349383
3.01891e-06
-1.54795e-06
-2.93593e-06
-2.17284e-05
-0.0322358
-0.0068321
2.67788e-06
-9.96983e-06
3.69183e-07
-0.0085746
9.24665e-06
2.29004e-05
0.542614
0.00369787
0.0259856
0.00152825
0.00158818
-1.09097e-07
0.000289738
2.3265e-05
-1.31538e-05
3.97157e-05
-0.0677381
7.32089e-06
-1.87055e-05
-0.00043382
-3.30611e-05
-2.05344e-05
-0.0171294
2.91978e-06
-2.20112e-06
-0.0109214
-0.00876017
1.22897e-05
-2.24894e-06
0.00137192
-0.108929
0.00644606
-0.0936935
0.00329775
0.00606056
2.19713e-05
0.0124241
0.00105962
0.0027807
-0.0900457
-0.000376267
0.0244445
-0.069448
-0.144742
4.19713e-06
7.15551e-06
-1.29555e-05
-2.0177e-05
-0.0689358
-7.01415e-06
0.00154643
3.61908e-05
9.56091e-05
-4.04042e-05
-0.20656
1.10219e-05
0.0146275
-2.53577e-05
0.00228133
0.0140236
0.00480406
0.0247845
-1.70111e-06
0.000816646
-3.37638e-06
0.0115854
-4.36838e-05
0.00195117
-0.0308101
0.00255745
-0.292632
8.43487e-07
0.0663977
3.76081e-05
0.00121247
2.22246e-05
-0.0868339
-4.02149e-05
1.03301e-05
-2.2461e-07
-0.013212
2.12e-05
-0.0143742
-0.194071
0.000103402
-0.11842
-1.22211e-05
1.21884e-05
-0.156133
0.00638834
-0.0142089
0.11245
2.51348e-05
-0.00322412
-0.174912
0.00150515
-9.25944e-07
0.0330146
-0.0141928
-3.32747e-08
0.000267292
-1.52689e-06
0.0493319
0.0581816
0.0301942
0.00317014
-1.07811e-06
-3.61801e-06
5.36216e-05
-1.97408e-06
-0.00103748
3.17661e-05
7.72792e-05
1.47424e-05
0.106341
3.12407e-05
4.6692e-05
0.00387468
0.0232775
-0.0422167
-4.45907e-06
-0.00159209
-4.85377e-05
0.545203
2.88548e-06
-0.0186281
5.87217e-06
0.000295713
-0.041326
7.40026e-05
-0.19076
1.38566e-05
-7.4621e-06
6.24863e-06
2.2766e-06
2.65844e-06
1.48752e-05
-3.05736e-06
0.00126682
4.57302e-05
-6.17602e-06
0.0624349
6.73908e-06
5.59427e-05
-2.10928e-06
0.16144
-3.26582e-05
0.000203552
-0.0467059
-0.210103
-5.52855e-06
-1.63007e-06
0.234291
-2.12423e-05
0.0738884
0.0343681
6.17607e-05
4.76065e-05
-0.00070205
-0.0256994
-0.124343
-1.46623e-05
-3.33097e-06
2.41213e-05
0.000574829
4.98008e-05
-0.223907
-0.101009
-0.00132113
3.37897e-05
2.89248e-05
0.000121748
0.0157808
0.0991172
4.34316e-07
0.233466
0.0226437
2.95634e-05
2.73541e-06
2.11006e-05
1.59664e-05
-4.71718e-06
-7.8222e-06
-9.90042e-06
7.59189e-05
-0.0905815
-7.62257e-05
-3.53684e-05
2.7663e-05
2.46269e-05
-2.36189e-06
-2.52867e-07
0.00423551
-5.48508e-05
0.000332493
1.17483e-06
7.03961e-05
1.70142e-06
1.15186e-05
-0.0348088
-4.91692e-06
2.48198e-05
0.0198155
0.112203
-0.00762109
2.73296e-06
0.667712
2.44221e-05
0.320084
0.105239
-0.000118562
0.121881
-2.3845e-06
4.6563e-06
0.105485
-9.67708e-06
0.0015613
-0.210829
0.0109959
2.49398e-05
0.189263
5.93064e-05
9.51732e-06
1.79406e-06
-2.62347e-06
-0.000846343
-0.00704857
2.95676e-06
0.00859996
-0.0176294
-2.57776e-06
-4.02963e-06
-0.130178
-0.016755
0.295988
0.000322516
0.0367158
-0.0109696
-2.45763e-05
-0.255173
-0.0384954
-0.0369895
0.0995398
-3.10541e-06
0.0170067
-2.64459e-06
0.113414