/*--------------------------------*- C++ -*----------------------------------*\
| =========                 |                                                 |
| \\      /  F ield         | OpenFOAM: The Open Source CFD Toolbox           |
|  \\    /   O peration     | Version:  v2012                                 |
|   \\  /    A nd           | Website:  www.openfoam.com                      |
|    \\/     M anipulation  |                                                 |
\*---------------------------------------------------------------------------*/
FoamFile
{
    version     2.0;
    format      ascii;
    class       pointVectorField;
    location    "1000";
    object      pointDisplacement;
}
// * * * * * * * * * * * * * * * * * * * * * * * * * * * * * * * * * * * * * //

dimensions      [0 1 0 0 0 0 0];


internalField   nonuniform List<vector> 
10142
(
(0 0 0)
(0 0 0)
(0 0 0)
(0 0 0)
(0 0 0)
(0 0 0)
(0 0 0)
(0 0 0)
(0 0 0)
(0 0 0)
(0 0 0)
(0 0 0)
(0 0 0)
(0 0 0)
(0 0 0)
(0 0 0)
(0 0 0)
(0 0 0)
(0 0 0)
(0 0 0)
(0 0 0)
(0 0 0)
(0 0 0)
(0 0 0)
(0 0 0)
(0 0 0)
(0 0 0)
(0 0 0)
(0 0 0)
(0 0 0)
(0 0 0)
(0 0 0)
(0 0 0)
(0 0 0)
(0 0 0)
(0 0 0)
(0 0 0)
(0 0 0)
(0 0 0)
(0 0 0)
(0 0 0)
(0 0 0)
(0 0 0)
(0 0 0)
(0 0 0)
(0 0 0)
(0 0 0)
(0 0 0)
(0 0 0)
(0 0 0)
(0 0 0)
(0 0 0)
(0 0 0)
(0 0 0)
(0 0 0)
(0 0 0)
(0 0 0)
(0 0 0)
(0 0 0)
(0 0 0)
(0 0 0)
(0 0 0)
(0 0 0)
(0 0 0)
(0 0 0)
(0 0 0)
(0 0 0)
(0 0 0)
(0 0 0)
(0 0 0)
(0 0 0)
(0 0 0)
(0 0 0)
(0 0 0)
(0 0 0)
(0 0 0)
(0 0 0)
(0 0 0)
(0 0 0)
(0 0 0)
(0 0 0)
(0 0 0)
(0 0 0)
(0 0 0)
(0 0 0)
(0 0 0)
(0 0 0)
(0 0 0)
(0 0 0)
(0 0 0)
(0 0 0)
(0 0 0)
(0 0 0)
(0 0 0)
(0 0 0)
(0 0 0)
(0 0 0)
(0 0 0)
(0 0 0)
(0 0 0)
(0 0 0)
(0 0 0)
(0 0 0)
(0 0 0)
(0 0 0)
(0 0 0)
(0 0 0)
(0 0 0)
(0 0 0)
(0 0 0)
(0 0 0)
(0 0 0)
(0 0 0)
(0 0 0)
(0 0 0)
(0 0 0)
(0 0 0)
(0 0 0)
(0 0 0)
(0 0 0)
(0 0 0)
(0 0 0)
(0 0 0)
(0 0 0)
(0 0 0)
(0 0 0)
(0 0 0)
(0 0 0)
(0 0 0)
(0 0 0)
(0 0 0)
(0 0 0)
(0 0 0)
(0 0 0)
(0 0 0)
(0 0 0)
(0 0 0)
(0 0 0)
(0 0 0)
(0 0 0)
(0 0 0)
(0 0 0)
(0 0 0)
(0 0 0)
(0 0 0)
(0 0 0)
(0 0 0)
(0 0 0)
(0 0 0)
(0 0 0)
(0 0 0)
(0 0 0)
(0 0 0)
(0 0 0)
(0 0 0)
(0 0 0)
(0 0 0)
(0 0 0)
(0 0 0)
(0 0 0)
(0 0 0)
(0 0 0)
(0 0 0)
(0 0 0)
(0 0 0)
(0 0 0)
(0 0 0)
(0 0 0)
(0 0 0)
(0 0 0)
(0 0 0)
(0 0 0)
(0 0 0)
(0 0 0)
(0 0 0)
(0 0 0)
(0 0 0)
(0 0 0)
(0 0 0)
(0 0 0)
(0 0 0)
(0 0 0)
(0 0 0)
(0 0 0)
(0 0 0)
(0 0 0)
(0 0 0)
(0 0 0)
(0 0 0)
(0 0 0)
(0 0 0)
(0 0 0)
(0 0 0)
(0 0 0)
(0 0 0)
(0 0 0)
(0 0 0)
(0 0 0)
(0 0 0)
(0 0 0)
(0 0 0)
(0 0 0)
(0 0 0)
(0 0 0)
(0 0 0)
(0 0 0)
(0 0 0)
(0 0 0)
(0 0 0)
(0 0 0)
(0 0 0)
(0 0 0)
(0 0 0)
(0 0 0)
(0 0 0)
(0 0 0)
(0 0 0)
(0 0 0)
(0 0 0)
(0 0 0)
(0 0 0)
(0 0 0)
(0 0 0)
(0 0 0)
(0 0 0)
(0 0 0)
(0 0 0)
(0 0 0)
(0 0 0)
(0 0 0)
(0 0 0)
(0 0 0)
(0 0 0)
(0 0 0)
(0 0 0)
(0 0 0)
(0 0 0)
(0 0 0)
(0 0 0)
(0 0 0)
(0 0 0)
(0 0 0)
(0 0 0)
(0 0 0)
(0 0 0)
(0 0 0)
(0 0 0)
(0 0 0)
(0 0 0)
(0 0 0)
(0 0 0)
(0 0 0)
(0 0 0)
(0 0 0)
(0 0 0)
(0 0 0)
(0 -0.000861207 0)
(0 -0.00113444 0)
(0 -0.000538336 0)
(0 -0.000518636 0)
(0 -0.00030127 0)
(0 -0.00119225 0)
(0 -0.00022786 0)
(0 -0.00155214 0)
(0 -0.000140866 0)
(0 -0.00145993 0)
(0 -0.000185708 0)
(0 -0.000105608 0)
(0 -0.000120279 0)
(0 -0.000609117 0)
(0 -9.81724e-05 0)
(0 -8.5711e-05 0)
(0 -7.41884e-05 0)
(0 -0.000830801 0)
(0 -0.000361545 0)
(0 -0.00026564 0)
(0 -6.45312e-05 0)
(0 -4.08971e-05 0)
(0 -0.0015953 0)
(0 -0.00130898 0)
(0 -0.00140342 0)
(0 -0.000955424 0)
(0 -0.000492049 0)
(0 -0.000134558 0)
(0 -0.000181113 0)
(0 -0.000135125 0)
(0 -0.000119696 0)
(0 -4.16387e-05 0)
(0 -2.54815e-05 0)
(0 -2.16212e-05 0)
(0 -0.00110247 0)
(0 -0.00103568 0)
(0 -0.000785006 0)
(0 -0.000596391 0)
(0 -0.000695426 0)
(0 -0.000385979 0)
(0 -0.000207087 0)
(0 -0.000258827 0)
(0 -0.00041107 0)
(0 -7.52414e-05 0)
(0 -0.000261949 0)
(0 -0.000129332 0)
(0 -9.66193e-05 0)
(0 -7.9231e-05 0)
(0 -5.51525e-05 0)
(0 -0.000107848 0)
(0 -1.08971e-05 0)
(0 -0.0245187 0)
(0 -0.0246256 0)
(0 -0.024522 0)
(0 -0.024628 0)
(0 -0.0245224 0)
(0 -0.0246267 0)
(0 -0.0245189 0)
(0 -0.0246209 0)
(0 -0.0245113 0)
(0 -0.0246108 0)
(0 -0.0244997 0)
(0 -0.024596 0)
(0 -0.0244844 0)
(0 -0.0245775 0)
(0 -0.0244628 0)
(0 -0.0245567 0)
(0 -0.024438 0)
(0 -0.0245299 0)
(0 -0.0244073 0)
(0 -0.0244945 0)
(0 -0.0243634 0)
(0 -0.0244552 0)
(0 -0.024319 0)
(0 -0.0244097 0)
(0 -0.0242742 0)
(0 -0.0243583 0)
(0 -0.0242192 0)
(0 -0.0243011 0)
(0 -0.0241544 0)
(0 -0.0242365 0)
(0 -0.0240855 0)
(0 -0.0241651 0)
(0 -0.0240108 0)
(0 -0.0240876 0)
(0 -0.0239292 0)
(0 -0.0240018 0)
(0 -0.023838 0)
(0 -0.0239076 0)
(0 -0.0237414 0)
(0 -0.0238091 0)
(0 -0.023643 0)
(0 -0.0237053 0)
(0 -0.0235328 0)
(0 -0.0235931 0)
(0 -0.0234152 0)
(0 -0.0234739 0)
(0 -0.023291 0)
(0 -0.0233418 0)
(0 -0.023153 0)
(0 -0.023199 0)
(0 -0.0230072 0)
(0 -0.0230482 0)
(0 -0.0228501 0)
(0 -0.0232419 0)
(0 -0.0230801 0)
(0 -0.0228085 0)
(0 -0.0226507 0)
(0 -0.0236492 0)
(0 -0.0241727 0)
(0 -0.0243968 0)
(0 -0.0225983 0)
(0 -0.0224428 0)
(0 -0.0223773 0)
(0 -0.0222217 0)
(0 -0.0221533 0)
(0 -0.0219957 0)
(0 -0.0219179 0)
(0 -0.0217532 0)
(0 -0.021667 0)
(0 -0.021502 0)
(0 -0.0214171 0)
(0 -0.0212476 0)
(0 -0.021155 0)
(0 -0.0209756 0)
(0 -0.0208781 0)
(0 -0.0206929 0)
(0 -0.0205981 0)
(0 -0.0204134 0)
(0 -0.0203164 0)
(0 -0.0201405 0)
(0 -0.0200394 0)
(0 -0.0198748 0)
(0 -0.0199615 0)
(0 -0.0196944 0)
(0 -0.0197757 0)
(0 -0.0195009 0)
(0 -0.0195847 0)
(0 -0.0193055 0)
(0 -0.0193876 0)
(0 -0.0191094 0)
(0 -0.0191803 0)
(0 -0.0188981 0)
(0 -0.0189591 0)
(0 -0.0186714 0)
(0 -0.0187316 0)
(0 -0.0184465 0)
(0 -0.0185002 0)
(0 -0.0182174 0)
(0 -0.0182601 0)
(0 -0.0179744 0)
(0 -0.0177225 0)
(0 -0.0176851 0)
(0 -0.0174342 0)
(0 -0.0171771 0)
(0 -0.0190408 0)
(0 -0.0171403 0)
(0 -0.0168825 0)
(0 -0.0165804 0)
(0 -0.0163234 0)
(0 -0.0160212 0)
(0 -0.0157633 0)
(0 -0.0157166 0)
(0 -0.0154611 0)
(0 -0.0152019 0)
(0 -0.0151564 0)
(0 -0.0149003 0)
(0 -0.0145966 0)
(0 -0.0143406 0)
(0 -0.0140399 0)
(0 -0.0137837 0)
(0 -0.013739 0)
(0 -0.0134887 0)
(0 -0.0132334 0)
(0 -0.0132027 0)
(0 -0.0129439 0)
(0 -0.0126355 0)
(0 -0.0123939 0)
(0 -0.0121088 0)
(0 -0.0118724 0)
(0 -0.0202019 0)
(0 -0.0118309 0)
(0 -0.0115915 0)
(0 -0.0113516 0)
(0 -0.0112894 0)
(0 -0.0110693 0)
(0 -0.0107947 0)
(0 -0.0105752 0)
(0 -0.0103096 0)
(0 -0.0100818 0)
(0 -0.010045 0)
(0 -0.00982292 0)
(0 -0.00959381 0)
(0 -0.00957154 0)
(0 -0.00935018 0)
(0 -0.00912341 0)
(0 -0.00910247 0)
(0 -0.00889147 0)
(0 -0.0241563 0)
(0 -0.00864932 0)
(0 -0.00844692 0)
(0 -0.00821243 0)
(0 -0.00801351 0)
(0 -0.00797959 0)
(0 -0.00778568 0)
(0 -0.00759184 0)
(0 -0.00755448 0)
(0 -0.0073697 0)
(0 -0.00714844 0)
(0 -0.0069717 0)
(0 -0.00676367 0)
(0 -0.00658675 0)
(0 -0.00655708 0)
(0 -0.00638491 0)
(0 -0.00621239 0)
(0 -0.00618506 0)
(0 -0.00601775 0)
(0 -0.00582456 0)
(0 -0.0244905 0)
(0 -0.0246686 0)
(0 -0.019916 0)
(0 -0.0200639 0)
(0 -0.0197684 0)
(0 -0.0199061 0)
(0 -0.0196043 0)
(0 -0.019729 0)
(0 -0.019375 0)
(0 -0.0195326 0)
(0 -0.0192058 0)
(0 -0.0193186 0)
(0 -0.0189944 0)
(0 -0.019096 0)
(0 -0.0187591 0)
(0 -0.018857 0)
(0 -0.0185027 0)
(0 -0.0185892 0)
(0 -0.0182308 0)
(0 -0.0183234 0)
(0 -0.0179412 0)
(0 -0.0180334 0)
(0 -0.0176275 0)
(0 -0.0175593 0)
(0 -0.0172294 0)
(0 -0.0171652 0)
(0 -0.0168231 0)
(0 -0.0167563 0)
(0 -0.0176929 0)
(0 -0.0181081 0)
(0 -0.0164097 0)
(0 -0.0163459 0)
(0 -0.0177445 0)
(0 -0.0181546 0)
(0 -0.0159974 0)
(0 -0.0159288 0)
(0 -0.0177841 0)
(0 -0.0181917 0)
(0 -0.0155349 0)
(0 -0.0155062 0)
(0 -0.0178105 0)
(0 -0.0182022 0)
(0 -0.0178222 0)
(0 -0.0182033 0)
(0 -0.015125 0)
(0 -0.0150858 0)
(0 -0.0178248 0)
(0 -0.0182145 0)
(0 -0.0147073 0)
(0 -0.0146577 0)
(0 -0.0178192 0)
(0 -0.0182158 0)
(0 -0.0147545 0)
(0 -0.0177997 0)
(0 -0.0181969 0)
(0 -0.0142767 0)
(0 -0.0142306 0)
(0 -0.0174001 0)
(0 -0.0177682 0)
(0 -0.0181642 0)
(0 -0.0138399 0)
(0 -0.0137951 0)
(0 -0.0177267 0)
(0 -0.0181175 0)
(0 -0.0133981 0)
(0 -0.0133576 0)
(0 -0.0176629 0)
(0 -0.0180537 0)
(0 -0.0187844 0)
(0 -0.0129514 0)
(0 -0.0129221 0)
(0 -0.0175739 0)
(0 -0.0179752 0)
(0 -0.0184464 0)
(0 -0.0183662 0)
(0 -0.0178862 0)
(0 -0.0182744 0)
(0 -0.0185989 0)
(0 -0.0125022 0)
(0 -0.012485 0)
(0 -0.0177936 0)
(0 -0.0181844 0)
(0 -0.0186575 0)
(0 -0.0185665 0)
(0 -0.0180798 0)
(0 -0.0184584 0)
(0 -0.0179554 0)
(0 -0.0183364 0)
(0 -0.0120562 0)
(0 -0.0120489 0)
(0 -0.0124561 0)
(0 -0.0120293 0)
(0 -0.0116139 0)
(0 -0.0116013 0)
(0 -0.0129992 0)
(0 -0.0189328 0)
(0 -0.0247265 0)
(0 -0.0178049 0)
(0 -0.018198 0)
(0 -0.0119985 0)
(0 -0.0115782 0)
(0 -0.0111733 0)
(0 -0.0111571 0)
(0 -0.0107479 0)
(0 -0.010739 0)
(0 -0.0111304 0)
(0 -0.0107193 0)
(0 -0.0103236 0)
(0 -0.0103102 0)
(0 -0.0171695 0)
(0 -0.0106897 0)
(0 -0.0102904 0)
(0 -0.00990476 0)
(0 -0.00989468 0)
(0 -0.00950362 0)
(0 -0.00950031 0)
(0 -0.00989429 0)
(0 -0.00949777 0)
(0 -0.00910944 0)
(0 -0.00910018 0)
(0 -0.00946901 0)
(0 -0.0090801 0)
(0 -0.00871866 0)
(0 -0.00870703 0)
(0 -0.0176458 0)
(0 -0.018043 0)
(0 -0.0171674 0)
(0 -0.00834525 0)
(0 -0.00833651 0)
(0 -0.00867967 0)
(0 -0.00831601 0)
(0 -0.00797485 0)
(0 -0.00796155 0)
(0 -0.0196452 0)
(0 -0.0142092 0)
(0 -0.00828628 0)
(0 -0.0079389 0)
(0 -0.00761466 0)
(0 -0.00759869 0)
(0 -0.00727462 0)
(0 -0.0072647 0)
(0 -0.00756949 0)
(0 -0.007244 0)
(0 -0.00693757 0)
(0 -0.00692745 0)
(0 -0.00723081 0)
(0 -0.00691665 0)
(0 -0.0066149 0)
(0 -0.00660588 0)
(0 -0.00630712 0)
(0 -0.00629753 0)
(0 -0.00656863 0)
(0 -0.00627603 0)
(0 -0.00600246 0)
(0 -0.00598816 0)
(0 -0.0062489 0)
(0 -0.00596611 0)
(0 -0.00570583 0)
(0 -0.0056884 0)
(0 -0.00543061 0)
(0 -0.00541886 0)
(0 -0.00566136 0)
(0 -0.00540077 0)
(0 -0.00515752 0)
(0 -0.00514306 0)
(0 -0.0174779 0)
(0 -0.0178692 0)
(0 -0.0184206 0)
(0 -0.0182489 0)
(0 -0.0187805 0)
(0 -0.0186139 0)
(0 -0.0180623 0)
(0 -0.0184411 0)
(0 -0.0178623 0)
(0 -0.0182449 0)
(0 -0.00537164 0)
(0 -0.00512106 0)
(0 -0.00489289 0)
(0 -0.00487598 0)
(0 -0.00464924 0)
(0 -0.00463698 0)
(0 -0.0048503 0)
(0 -0.00461854 0)
(0 -0.00440621 0)
(0 -0.00439333 0)
(0 -0.00461597 0)
(0 -0.00437102 0)
(0 -0.00417598 0)
(0 -0.00415335 0)
(0 -0.00432973 0)
(0 -0.00412654 0)
(0 -0.00394214 0)
(0 -0.00392173 0)
(0 -0.00409856 0)
(0 -0.00389654 0)
(0 -0.00406497 0)
(0 -0.00386494 0)
(0 -0.00402501 0)
(0 -0.00382761 0)
(0 -0.00366949 0)
(0 -0.00363546 0)
(0 -0.00378502 0)
(0 -0.00359625 0)
(0 -0.00344861 0)
(0 -0.00341304 0)
(0 -0.0035521 0)
(0 -0.00337231 0)
(0 -0.00350308 0)
(0 -0.00332628 0)
(0 -0.00344943 0)
(0 -0.00327575 0)
(0 -0.00339139 0)
(0 -0.00322072 0)
(0 -0.00310632 0)
(0 -0.00305426 0)
(0 -0.00316145 0)
(0 -0.00299778 0)
(0 -0.00309807 0)
(0 -0.00293699 0)
(0 -0.00303099 0)
(0 -0.00287206 0)
(0 -0.00295994 0)
(0 -0.00278 0)
(0 -0.00280314 0)
(0 -0.00288464 0)
(0 -0.00273044 0)
(0 -0.00280617 0)
(0 -0.00265423 0)
(0 -0.00272486 0)
(0 -0.00257497 0)
(0 -0.00264054 0)
(0 -0.00326826 0)
(0 -0.00250517 0)
(0 -0.00249277 0)
(0 -0.00255333 0)
(0 -0.00240756 0)
(0 -0.00246337 0)
(0 -0.021573 0)
(0 -0.0176456 0)
(0 -0.018033 0)
(0 -0.00231947 0)
(0 -0.00237081 0)
(0 -0.0191252 0)
(0 -0.00279115 0)
(0 -0.0174063 0)
(0 -0.0177937 0)
(0 -0.0218296 0)
(0 -0.00222862 0)
(0 -0.00227579 0)
(0 -0.00217765 0)
(0 -0.00241812 0)
(0 -0.00231903 0)
(0 -0.00246116 0)
(0 -0.00235815 0)
(0 -0.0031207 0)
(0 -0.0158771 0)
(0 -0.0171376 0)
(0 -0.0184675 0)
(0 -0.0167097 0)
(0 -0.00221787 0)
(0 -0.0022533 0)
(0 -0.00249987 0)
(0 -0.00356665 0)
(0 -0.00211461 0)
(0 -0.00214653 0)
(0 -0.00200933 0)
(0 -0.00203795 0)
(0 -0.0019022 0)
(0 -0.00192796 0)
(0 -0.00206284 0)
(0 -0.00195011 0)
(0 -0.00208393 0)
(0 -0.0188808 0)
(0 -0.00179348 0)
(0 -0.00176701 0)
(0 -0.0174167 0)
(0 -0.0186291 0)
(0 -0.00165922 0)
(0 -0.00163219 0)
(0 -0.0238638 0)
(0 -0.0183908 0)
(0 -0.00422698 0)
(0 -0.00373609 0)
(0 -0.00294129 0)
(0 -0.0194552 0)
(0 -0.0233354 0)
(0 -0.0240031 0)
(0 -0.0243306 0)
(0 -0.0244116 0)
(0 -0.00152504 0)
(0 -0.00149774 0)
(0 -0.022275 0)
(0 -0.00139104 0)
(0 -0.0013639 0)
(0 -0.0160683 0)
(0 -0.0127094 0)
(0 -0.0249758 0)
(0 -0.0250537 0)
(0 -0.0202082 0)
(0 -0.00340345 0)
(0 -0.00352907 0)
(0 -0.00368146 0)
(0 -0.00365383 0)
(0 -0.00381005 0)
(0 -0.00377848 0)
(0 -0.00393881 0)
(0 -0.00390297 0)
(0 -0.00406609 0)
(0 -0.00402689 0)
(0 -0.00419138 0)
(0 -0.00414823 0)
(0 -0.00431626 0)
(0 -0.00427154 0)
(0 -0.00443977 0)
(0 -0.0043845 0)
(0 -0.00455824 0)
(0 -0.00448675 0)
(0 -0.00466958 0)
(0 -0.00457503 0)
(0 -0.00478394 0)
(0 -0.00470876 0)
(0 -0.00490128 0)
(0 -0.00481832 0)
(0 -0.00501327 0)
(0 -0.00146784 0)
(0 -0.00133424 0)
(0 -0.00143525 0)
(0 -0.00130208 0)
(0 -0.0014002 0)
(0 -0.00126774 0)
(0 -0.00136291 0)
(0 -0.0012314 0)
(0 -0.00132332 0)
(0 -0.00119303 0)
(0 -0.00128156 0)
(0 -0.00115275 0)
(0 -0.0012378 0)
(0 -0.00111071 0)
(0 -0.00119204 0)
(0 -0.00106707 0)
(0 -0.00114459 0)
(0 -0.00126968 0)
(0 -0.00121828 0)
(0 -0.00109554 0)
(0 -0.00116464 0)
(0 -0.00128785 0)
(0 -0.0012296 0)
(0 -0.00110981 0)
(0 -0.00117013 0)
(0 -0.00129064 0)
(0 -0.00122584 0)
(0 -0.00110914 0)
(0 -0.00115927 0)
(0 -0.00127622 0)
(0 -0.00120509 0)
(0 -0.00109158 0)
(0 -0.00113143 0)
(0 -0.00124543 0)
(0 -0.00116569 0)
(0 -0.00127892 0)
(0 -0.00105656 0)
(0 -0.00119404 0)
(0 -0.00130687 0)
(0 -0.00121665 0)
(0 -0.00132961 0)
(0 -0.00123373 0)
(0 -0.00134841 0)
(0 -0.00124516 0)
(0 -0.00136025 0)
(0 -0.00113562 0)
(0 -0.00124992 0)
(0 -0.00136359 0)
(0 -0.00139622 0)
(0 -0.00124791 0)
(0 -0.0013614 0)
(0 -0.00147997 0)
(0 -0.00123982 0)
(0 -0.00135327 0)
(0 -0.0011312 0)
(0 -0.00122515 0)
(0 -0.00133874 0)
(0 -0.00147192 0)
(0 -0.00145761 0)
(0 -0.00159554 0)
(0 -0.00158183 0)
(0 -0.00143709 0)
(0 -0.001562 0)
(0 -0.00171156 0)
(0 -0.00169266 0)
(0 -0.00153582 0)
(0 -0.00166737 0)
(0 -0.00150272 0)
(0 -0.00163493 0)
(0 -0.00180483 0)
(0 -0.00177314 0)
(0 -0.0116607 0)
(0 -0.0121664 0)
(0 -0.00159489 0)
(0 -0.00173406 0)
(0 -0.0019176 0)
(0 -0.00187976 0)
(0 -0.00206845 0)
(0 -0.00203202 0)
(0 -0.00183403 0)
(0 -0.00198764 0)
(0 -0.00125763 0)
(0 -0.00128219 0)
(0 -0.024958 0)
(0 -0.0250343 0)
(0 -0.0251256 0)
(0 -0.0251043 0)
(0 -0.0251912 0)
(0 -0.025169 0)
(0 -0.025014 0)
(0 -0.0252511 0)
(0 -0.0252277 0)
(0 -0.00386891 0)
(0 -0.00178001 0)
(0 -0.00193495 0)
(0 -0.0110987 0)
(0 -0.0116141 0)
(0 -0.0011009 0)
(0 -0.00492544 0)
(0 -0.00512416 0)
(0 -0.00429361 0)
(0 -0.00214826 0)
(0 -0.00209709 0)
(0 -0.00187353 0)
(0 -0.00203715 0)
(0 -0.00226645 0)
(0 -0.0022081 0)
(0 -0.00349985 0)
(0 -0.00244305 0)
(0 -0.00238648 0)
(0 -0.00214078 0)
(0 -0.00232075 0)
(0 -0.00257275 0)
(0 -0.00250893 0)
(0 -0.00224512 0)
(0 -0.00243519 0)
(0 -0.00270547 0)
(0 -0.00263391 0)
(0 -0.00235103 0)
(0 -0.00255197 0)
(0 -0.00284111 0)
(0 -0.0027616 0)
(0 -0.00305672 0)
(0 -0.00297989 0)
(0 -0.00267119 0)
(0 -0.00289202 0)
(0 -0.00320714 0)
(0 -0.00312216 0)
(0 -0.00279272 0)
(0 -0.00302573 0)
(0 -0.0033615 0)
(0 -0.00326809 0)
(0 -0.00360998 0)
(0 -0.00351986 0)
(0 -0.00316277 0)
(0 -0.00341787 0)
(0 -0.0037815 0)
(0 -0.00368324 0)
(0 -0.00330284 0)
(0 -0.00357187 0)
(0 -0.00395843 0)
(0 -0.00385081 0)
(0 -0.00424308 0)
(0 -0.00413916 0)
(0 -0.00372995 0)
(0 -0.00402121 0)
(0 -0.00443398 0)
(0 -0.0043201 0)
(0 -0.00388817 0)
(0 -0.00419507 0)
(0 -0.00463153 0)
(0 -0.00451371 0)
(0 -0.00405242 0)
(0 -0.0043762 0)
(0 -0.00484448 0)
(0 -0.00471142 0)
(0 -0.00518507 0)
(0 -0.00505684 0)
(0 -0.00456178 0)
(0 -0.00491223 0)
(0 -0.0054124 0)
(0 -0.00527364 0)
(0 -0.00475005 0)
(0 -0.00511773 0)
(0 -0.00564589 0)
(0 -0.00549625 0)
(0 -0.00602693 0)
(0 -0.00588296 0)
(0 -0.00533028 0)
(0 -0.00572189 0)
(0 -0.00626759 0)
(0 -0.00611211 0)
(0 -0.00554132 0)
(0 -0.00594852 0)
(0 -0.00651463 0)
(0 -0.00637076 0)
(0 -0.00576157 0)
(0 -0.00619201 0)
(0 -0.00680766 0)
(0 -0.00663383 0)
(0 -0.00725108 0)
(0 -0.00708392 0)
(0 -0.00643861 0)
(0 -0.00689613 0)
(0 -0.00754287 0)
(0 -0.00736275 0)
(0 -0.00668753 0)
(0 -0.00716327 0)
(0 -0.00783801 0)
(0 -0.00764766 0)
(0 -0.00831925 0)
(0 -0.00813892 0)
(0 -0.007438 0)
(0 -0.00793896 0)
(0 -0.00863712 0)
(0 -0.00844597 0)
(0 -0.00914176 0)
(0 -0.008958 0)
(0 -0.00964976 0)
(0 -0.00947354 0)
(0 -0.00875325 0)
(0 -0.00927804 0)
(0 -0.00999082 0)
(0 -0.00980579 0)
(0 -0.0105094 0)
(0 -0.0103331 0)
(0 -0.0110263 0)
(0 -0.0108579 0)
(0 -0.0101379 0)
(0 -0.0106717 0)
(0 -0.0113822 0)
(0 -0.0112015 0)
(0 -0.0104642 0)
(0 -0.0109997 0)
(0 -0.0102331 0)
(0 -0.0107767 0)
(0 -0.0119084 0)
(0 -0.00997746 0)
(0 -0.0105325 0)
(0 -0.0113218 0)
(0 -0.0110872 0)
(0 -0.0102659 0)
(0 -0.0108283 0)
(0 -0.00942692 0)
(0 -0.0118727 0)
(0 -0.00852703 0)
(0 -0.00997307 0)
(0 -0.0105456 0)
(0 -0.00965395 0)
(0 -0.0102406 0)
(0 -0.0111163 0)
(0 -0.0108237 0)
(0 -0.0116847 0)
(0 -0.0113998 0)
(0 -0.0105086 0)
(0 -0.0110919 0)
(0 -0.0119694 0)
(0 -0.0116707 0)
(0 -0.0107539 0)
(0 -0.0113447 0)
(0 -0.0090666 0)
(0 -0.0103865 0)
(0 -0.0109895 0)
(0 -0.0125313 0)
(0 -0.00721273 0)
(0 -0.0207676 0)
(0 -0.000985348 0)
(0 -0.0105248 0)
(0 -0.0110554 0)
(0 -0.0111753 0)
(0 -0.0170975 0)
(0 -0.00503133 0)
(0 -0.00523154 0)
(0 -0.00998933 0)
(0 -0.00513225 0)
(0 -0.00534024 0)
(0 -0.00543034 0)
(0 -0.00555439 0)
(0 -0.00544274 0)
(0 -0.00566364 0)
(0 -0.0057762 0)
(0 -0.00589018 0)
(0 -0.00576677 0)
(0 -0.00599801 0)
(0 -0.00612062 0)
(0 -0.00623373 0)
(0 -0.00635513 0)
(0 -0.00647374 0)
(0 -0.00634337 0)
(0 -0.00658882 0)
(0 -0.00671786 0)
(0 -0.00683866 0)
(0 -0.00669992 0)
(0 -0.00695553 0)
(0 -0.00709301 0)
(0 -0.00721581 0)
(0 -0.00735146 0)
(0 -0.00748032 0)
(0 -0.00733504 0)
(0 -0.00760555 0)
(0 -0.00774927 0)
(0 -0.00788001 0)
(0 -0.0077263 0)
(0 -0.00800681 0)
(0 -0.0081593 0)
(0 -0.00829195 0)
(0 -0.00812926 0)
(0 -0.00842052 0)
(0 -0.00858102 0)
(0 -0.00871573 0)
(0 -0.00887352 0)
(0 -0.00901474 0)
(0 -0.00884636 0)
(0 -0.00915181 0)
(0 -0.0093176 0)
(0 -0.009461 0)
(0 -0.00962475 0)
(0 -0.00977387 0)
(0 -0.00960051 0)
(0 -0.00991926 0)
(0 -0.0100907 0)
(0 -0.0102414 0)
(0 -0.0100603 0)
(0 -0.0103882 0)
(0 -0.0105673 0)
(0 -0.0107196 0)
(0 -0.01053 0)
(0 -0.0108676 0)
(0 -0.0110533 0)
(0 -0.0112079 0)
(0 -0.0113886 0)
(0 -0.0115498 0)
(0 -0.0113575 0)
(0 -0.0117057 0)
(0 -0.0118934 0)
(0 -0.0120555 0)
(0 -0.0118555 0)
(0 -0.0122114 0)
(0 -0.0124059 0)
(0 -0.0125673 0)
(0 -0.0127492 0)
(0 -0.0129188 0)
(0 -0.0127235 0)
(0 -0.0130883 0)
(0 -0.0132982 0)
(0 -0.0134565 0)
(0 -0.0132442 0)
(0 -0.0136141 0)
(0 -0.0138218 0)
(0 -0.0139832 0)
(0 -0.0141868 0)
(0 -0.0143524 0)
(0 -0.0141414 0)
(0 -0.0145163 0)
(0 -0.01472 0)
(0 -0.0148895 0)
(0 -0.0150855 0)
(0 -0.0152599 0)
(0 -0.014296 0)
(0 -0.0154477 0)
(0 -0.0156261 0)
(0 -0.0154299 0)
(0 -0.0157983 0)
(0 -0.0159882 0)
(0 -0.0161626 0)
(0 -0.0159623 0)
(0 -0.0163299 0)
(0 -0.0165233 0)
(0 -0.0166937 0)
(0 -0.0253053 0)
(0 -0.0252797 0)
(0 -0.0253276 0)
(0 -0.0252008 0)
(0 -0.0252516 0)
(0 -0.0251695 0)
(0 -0.0252195 0)
(0 -0.0252982 0)
(0 -0.0252657 0)
(0 -0.0253461 0)
(0 -0.0253051 0)
(0 -0.0252265 0)
(0 -0.0252659 0)
(0 -0.0253393 0)
(0 -0.0253033 0)
(0 -0.025371 0)
(0 -0.0253381 0)
(0 -0.0254009 0)
(0 -0.0253658 0)
(0 -0.0253201 0)
(0 -0.00114865 0)
(0 -0.00117115 0)
(0 -0.019486 0)
(0 -0.015264 0)
(0 -0.0120983 0)
(0 -0.00396921 0)
(0 -0.00870637 0)
(0 -0.004829 0)
(0 -0.0161183 0)
(0 -0.0251794 0)
(0 -0.00936805 0)
(0 -0.00980452 0)
(0 -0.0115415 0)
(0 -0.0125476 0)
(0 -0.0105422 0)
(0 -0.0168798 0)
(0 -0.017053 0)
(0 -0.019274 0)
(0 -0.0196029 0)
(0 -0.0197382 0)
(0 -0.0200469 0)
(0 -0.0201706 0)
(0 -0.0204602 0)
(0 -0.0205748 0)
(0 -0.0208488 0)
(0 -0.0209518 0)
(0 -0.021208 0)
(0 -0.0212907 0)
(0 -0.0211154 0)
(0 -0.0215408 0)
(0 -0.0216063 0)
(0 -0.0218495 0)
(0 -0.021905 0)
(0 -0.0216613 0)
(0 -0.0219459 0)
(0 -0.0217074 0)
(0 -0.0219783 0)
(0 -0.0217432 0)
(0 -0.0220111 0)
(0 -0.0217681 0)
(0 -0.0220246 0)
(0 -0.0217837 0)
(0 -0.0220326 0)
(0 -0.0217916 0)
(0 -0.022034 0)
(0 -0.0217913 0)
(0 -0.0220308 0)
(0 -0.021785 0)
(0 -0.0220306 0)
(0 -0.0217739 0)
(0 -0.0220092 0)
(0 -0.021749 0)
(0 -0.0219756 0)
(0 -0.0217129 0)
(0 -0.0219329 0)
(0 -0.0216685 0)
(0 -0.0218823 0)
(0 -0.0216156 0)
(0 -0.0218273 0)
(0 -0.0221751 0)
(0 -0.0222772 0)
(0 -0.0222776 0)
(0 -0.0215537 0)
(0 -0.0217625 0)
(0 -0.0221894 0)
(0 -0.0220645 0)
(0 -0.0219568 0)
(0 -0.0215142 0)
(0 -0.0214844 0)
(0 -0.0215158 0)
(0 -0.0222154 0)
(0 -0.0221279 0)
(0 -0.0212723 0)
(0 -0.021199 0)
(0 -0.0223746 0)
(0 -0.0222884 0)
(0 -0.0220364 0)
(0 -0.0209776 0)
(0 -0.0209028 0)
(0 -0.0221931 0)
(0 -0.0219392 0)
(0 -0.0214773 0)
(0 -0.00472613 0)
(0 -0.00810455 0)
(0 -0.0199019 0)
(0 -0.0189675 0)
(0 -0.0224383 0)
(0 -0.0223377 0)
(0 -0.0254348 0)
(0 -0.00103724 0)
(0 -0.00105807 0)
(0 -0.00101509 0)
(0 -0.00260495 0)
(0 -0.0253778 0)
(0 -0.0253973 0)
(0 -0.00995564 0)
(0 -0.0225275 0)
(0 -0.00892889 0)
(0 -0.0207039 0)
(0 -0.00141219 0)
(0 -0.0172319 0)
(0 -0.0170495 0)
(0 -0.0174065 0)
(0 -0.0172192 0)
(0 -0.00508087 0)
(0 -0.0206719 0)
(0 -0.0207383 0)
(0 -0.0205975 0)
(0 -0.0208218 0)
(0 -0.0119974 0)
(0 -0.012964 0)
(0 -0.007698 0)
(0 -0.0175746 0)
(0 -0.0173787 0)
(0 -0.00828466 0)
(0 -0.000923812 0)
(0 -0.000943217 0)
(0 -0.00436063 0)
(0 -0.0224482 0)
(0 -0.0225763 0)
(0 -0.00955058 0)
(0 -0.00845496 0)
(0 -0.00708263 0)
(0 -0.0254437 0)
(0 -0.0254573 0)
(0 -0.00208832 0)
(0 -0.00203786 0)
(0 -0.0224699 0)
(0 -0.0205147 0)
(0 -0.0207331 0)
(0 -0.020423 0)
(0 -0.0204794 0)
(0 -0.0210461 0)
(0 -0.0124204 0)
(0 -0.0133519 0)
(0 -0.0230769 0)
(0 -0.0232784 0)
(0 -0.0231226 0)
(0 -0.023319 0)
(0 -0.0231537 0)
(0 -0.0233516 0)
(0 -0.023182 0)
(0 -0.0233777 0)
(0 -0.0232055 0)
(0 -0.0233971 0)
(0 -0.0235624 0)
(0 -0.0235766 0)
(0 -0.0234111 0)
(0 -0.0235851 0)
(0 -0.0234204 0)
(0 -0.0235873 0)
(0 -0.0234216 0)
(0 -0.0235847 0)
(0 -0.023416 0)
(0 -0.0235777 0)
(0 -0.0234089 0)
(0 -0.0235615 0)
(0 -0.0233889 0)
(0 -0.0235367 0)
(0 -0.023364 0)
(0 -0.0235089 0)
(0 -0.0233347 0)
(0 -0.0234772 0)
(0 -0.0232909 0)
(0 -0.023436 0)
(0 -0.0175793 0)
(0 -0.00264297 0)
(0 -0.00275026 0)
(0 -0.000808417 0)
(0 -0.000826758 0)
(0 -0.0232415 0)
(0 -0.0233848 0)
(0 -0.0254131 0)
(0 -0.0254701 0)
(0 -0.0138723 0)
(0 -0.0142214 0)
(0 -0.0137094 0)
(0 -0.00904329 0)
(0 -0.00794682 0)
(0 -0.0232405 0)
(0 -0.0237474 0)
(0 -0.0254969 0)
(0 -0.025487 0)
(0 -0.0177365 0)
(0 -0.017531 0)
(0 -0.0171653 0)
(0 -0.0131937 0)
(0 -0.0234837 0)
(0 -0.0217803 0)
(0 -0.0185487 0)
(0 -0.00662781 0)
(0 -0.023446 0)
(0 -0.0247281 0)
(0 -0.020154 0)
(0 -0.0202011 0)
(0 -0.0226749 0)
(0 -0.0228047 0)
(0 -0.0228933 0)
(0 -0.0179247 0)
(0 -0.0127963 0)
(0 -0.0133377 0)
(0 -0.0135709 0)
(0 -0.0140919 0)
(0 -0.0138695 0)
(0 -0.014289 0)
(0 -0.0146037 0)
(0 -0.0143837 0)
(0 -0.0151004 0)
(0 -0.0148743 0)
(0 -0.0027873 0)
(0 -0.00289706 0)
(0 -0.00267615 0)
(0 -0.0156182 0)
(0 -0.015424 0)
(0 -0.0157713 0)
(0 -0.0155669 0)
(0 -0.0152233 0)
(0 -0.0159084 0)
(0 -0.0116839 0)
(0 -0.0118068 0)
(0 -0.0123062 0)
(0 -0.0124025 0)
(0 -0.0128936 0)
(0 -0.0129664 0)
(0 -0.0134468 0)
(0 -0.0124796 0)
(0 -0.0133842 0)
(0 -0.0139262 0)
(0 -0.0138722 0)
(0 -0.0144027 0)
(0 -0.0143534 0)
(0 -0.0148715 0)
(0 -0.014827 0)
(0 -0.0142912 0)
(0 -0.0147686 0)
(0 -0.0142113 0)
(0 -0.014694 0)
(0 -0.0152393 0)
(0 -0.0151703 0)
(0 -0.0145962 0)
(0 -0.0150866 0)
(0 -0.0144946 0)
(0 -0.0149867 0)
(0 -0.0143846 0)
(0 -0.0119988 0)
(0 -0.024705 0)
(0 -0.0106663 0)
(0 -0.0246217 0)
(0 -0.00555046 0)
(0 -0.00848683 0)
(0 -0.00897297 0)
(0 -0.0152834 0)
(0 -0.00740067 0)
(0 -0.00784209 0)
(0 -0.00797276 0)
(0 -0.00840903 0)
(0 -0.00851723 0)
(0 -0.00895377 0)
(0 -0.00615479 0)
(0 -0.00457066 0)
(0 -0.0133915 0)
(0 -0.0188757 0)
(0 -0.00529652 0)
(0 -0.00680694 0)
(0 -0.00653539 0)
(0 -0.0066367 0)
(0 -0.00701297 0)
(0 -0.00389283 0)
(0 -0.0140228 0)
(0 -0.00586553 0)
(0 -0.0251331 0)
(0 -0.0250807 0)
(0 -0.0250403 0)
(0 -0.0249857 0)
(0 -0.00564075 0)
(0 -0.00572681 0)
(0 -0.00607237 0)
(0 -0.0112231 0)
(0 -0.011553 0)
(0 -0.0113766 0)
(0 -0.0117011 0)
(0 -0.0115141 0)
(0 -0.0118334 0)
(0 -0.0120268 0)
(0 -0.0121534 0)
(0 -0.0123533 0)
(0 -0.00433387 0)
(0 -0.00462355 0)
(0 -0.0046975 0)
(0 -0.0049898 0)
(0 -0.00317424 0)
(0 -0.00872856 0)
(0 -0.00901806 0)
(0 -0.00886237 0)
(0 -0.0091478 0)
(0 -0.00898118 0)
(0 -0.00925937 0)
(0 -0.00721938 0)
(0 -0.00747559 0)
(0 -0.00733436 0)
(0 -0.00758791 0)
(0 -0.00743762 0)
(0 -0.00623297 0)
(0 -0.006466 0)
(0 -0.0063319 0)
(0 -0.0065684 0)
(0 -0.00368853 0)
(0 -0.00394175 0)
(0 -0.00400321 0)
(0 -0.00425902 0)
(0 -0.0031232 0)
(0 -0.0243806 0)
(0 -0.00249079 0)
(0 -0.0014489 0)
(0 -0.0026818 0)
(0 -0.00334421 0)
(0 -0.00339733 0)
(0 -0.00362325 0)
(0 -0.00267274 0)
(0 -0.00270986 0)
(0 -0.00289724 0)
(0 -0.00292438 0)
(0 -0.00824706 0)
(0 -0.0012037 0)
(0 -0.00209734 0)
(0 -0.00225302 0)
(0 -0.0022731 0)
(0 -0.00243329 0)
(0 -0.00244459 0)
(0 -0.00261029 0)
(0 -0.00261396 0)
(0 -0.00244963 0)
(0 -0.00260929 0)
(0 -0.00244856 0)
(0 -0.00259977 0)
(0 -0.00244141 0)
(0 -0.0022561 0)
(0 -0.0141209 0)
(0 -0.00180314 0)
(0 -0.00296124 0)
(0 -0.0036851 0)
(0 -0.00326265 0)
(0 -0.00645742 0)
(0 -0.00156948 0)
(0 -0.00154711 0)
(0 -0.0236546 0)
(0 -0.00814915 0)
(0 -0.00417781 0)
(0 -0.00438075 0)
(0 -0.00432194 0)
(0 -0.000943931 0)
(0 -0.000861417 0)
(0 -0.000822514 0)
(0 -0.000738964 0)
(0 -0.000702852 0)
(0 -0.000774393 0)
(0 -0.000650716 0)
(0 -0.000682854 0)
(0 -0.0150289 0)
(0 -0.0172776 0)
(0 -0.0133143 0)
(0 -0.00110794 0)
(0 -0.00409935 0)
(0 -0.00164565 0)
(0 -0.00156463 0)
(0 -0.00141362 0)
(0 -0.00132196 0)
(0 -0.000782788 0)
(0 -0.000666228 0)
(0 -0.000742318 0)
(0 -0.000629084 0)
(0 -0.00070118 0)
(0 -0.000591492 0)
(0 -0.000659472 0)
(0 -0.00055355 0)
(0 -0.000617321 0)
(0 -0.000515482 0)
(0 -0.00057487 0)
(0 -0.000477374 0)
(0 -0.000532244 0)
(0 -0.000439353 0)
(0 -0.000489578 0)
(0 -0.000581148 0)
(0 -0.000533639 0)
(0 -0.000447008 0)
(0 -0.000486123 0)
(0 -0.000404672 0)
(0 -0.00043878 0)
(0 -0.000518936 0)
(0 -0.000466461 0)
(0 -0.000545394 0)
(0 -0.000487656 0)
(0 -0.000414206 0)
(0 -0.000430069 0)
(0 -0.00050234 0)
(0 -0.000362254 0)
(0 -0.000439304 0)
(0 -0.000510434 0)
(0 -0.000441836 0)
(0 -0.000511863 0)
(0 -0.000437594 0)
(0 -0.000506558 0)
(0 -0.000373397 0)
(0 -0.00058661 0)
(0 -0.000580389 0)
(0 -0.000494438 0)
(0 -0.000567386 0)
(0 -0.000475385 0)
(0 -0.000547462 0)
(0 -0.000645336 0)
(0 -0.00062463 0)
(0 -0.000520357 0)
(0 -0.000597045 0)
(0 -0.000579078 0)
(0 -0.000603131 0)
(0 -0.000666073 0)
(0 -0.000362728 0)
(0 -0.00329491 0)
(0 -0.00137634 0)
(0 -0.000788789 0)
(0 -0.00133511 0)
(0 -0.00121409 0)
(0 -0.00116465 0)
(0 -0.00104923 0)
(0 -0.00099166 0)
(0 -0.000882229 0)
(0 -0.00563371 0)
(0 -0.00572308 0)
(0 -0.00549087 0)
(0 -0.00557079 0)
(0 -0.00533861 0)
(0 -0.0058082 0)
(0 -0.00564597 0)
(0 -0.00588838 0)
(0 -0.00116964 0)
(0 -0.00234769 0)
(0 -0.00374751 0)
(0 -0.00206206 0)
(0 -0.00195413 0)
(0 -0.00176748 0)
(0 -0.00164616 0)
(0 -0.00265028 0)
(0 -0.000675497 0)
(0 -0.00672794 0)
(0 -0.00109516 0)
(0 -0.00245568 0)
(0 -0.00233015 0)
(0 -0.00462411 0)
(0 -0.00291214 0)
(0 -0.00276553 0)
(0 -0.00251135 0)
(0 -0.00234652 0)
(0 -0.00795342 0)
(0 -0.00806029 0)
(0 -0.0077645 0)
(0 -0.00785983 0)
(0 -0.00756254 0)
(0 -0.00834211 0)
(0 -0.00260427 0)
(0 -0.00817174 0)
(0 -0.00621051 0)
(0 -0.0103247 0)
(0 -0.0104486 0)
(0 -0.0101031 0)
(0 -0.0102139 0)
(0 -0.009865 0)
(0 -0.00996047 0)
(0 -0.0103186 0)
(0 -0.00870373 0)
(0 -0.00881281 0)
(0 -0.00357594 0)
(0 -0.00339402 0)
(0 -0.00308471 0)
(0 -0.0028802 0)
(0 -0.0145135 0)
(0 -0.0102663 0)
(0 -0.00420859 0)
(0 -0.00400409 0)
(0 -0.0130176 0)
(0 -0.0131514 0)
(0 -0.0127723 0)
(0 -0.012893 0)
(0 -0.0125107 0)
(0 -0.0126214 0)
(0 -0.0130065 0)
(0 -0.00950221 0)
(0 -0.00651726 0)
(0 -0.00106672 0)
(0 -0.00210094 0)
(0 -0.00154969 0)
(0 -0.013986 0)
(0 -0.0051245 0)
(0 -0.00488228 0)
(0 -0.00446126 0)
(0 -0.00418745 0)
(0 -0.00377292 0)
(0 -0.00526374 0)
(0 -0.0111968 0)
(0 -0.0236528 0)
(0 -0.0252732 0)
(0 -0.00598306 0)
(0 -0.00571966 0)
(0 -0.0082506 0)
(0 -0.00149569 0)
(0 -0.00119187 0)
(0 -0.0136821 0)
(0 -0.0139168 0)
(0 -0.0113231 0)
(0 -0.0110125 0)
(0 -0.0222294 0)
(0 -0.0223562 0)
(0 -0.0221131 0)
(0 -0.0157435 0)
(0 -0.015888 0)
(0 -0.0155051 0)
(0 -0.0156379 0)
(0 -0.0152466 0)
(0 -0.0237464 0)
(0 -0.0173073 0)
(0 -0.00211111 0)
(0 -0.00197002 0)
(0 -0.00147388 0)
(0 -0.0106597 0)
(0 -0.00747366 0)
(0 -0.0120558 0)
(0 -0.0249414 0)
(0 -0.0248842 0)
(0 -0.0116023 0)
(0 -0.0115836 0)
(0 -0.0111242 0)
(0 -0.013901 0)
(0 -0.0198506 0)
(0 -0.0184067 0)
(0 -0.000363436 0)
(0 -0.000305202 0)
(0 -0.00934229 0)
(0 -0.0087149 0)
(0 -0.00804493 0)
(0 -0.00976136 0)
(0 -0.00364893 0)
(0 -0.00341797 0)
(0 -0.00307072 0)
(0 -0.00465475 0)
(0 -0.00405351 0)
(0 -0.000963376 0)
(0 -0.000928166 0)
(0 -0.0136147 0)
(0 -0.0138321 0)
(0 -0.014149 0)
(0 -0.0244059 0)
(0 -0.0226708 0)
(0 -0.00524775 0)
(0 -0.00494918 0)
(0 -0.00448307 0)
(0 -0.0169012 0)
(0 -0.0202817 0)
(0 -0.00737417 0)
(0 -0.0232389 0)
(0 -0.022873 0)
(0 -0.0194296 0)
(0 -0.0169337 0)
(0 -0.00600138 0)
(0 -0.00647146 0)
(0 -0.0238545 0)
(0 -0.0174332 0)
(0 -0.0054351 0)
(0 -0.00909852 0)
(0 -0.0173275 0)
(0 -0.00796964 0)
(0 -0.000830723 0)
(0 -0.000788185 0)
(0 -0.000697216 0)
(0 -0.0214366 0)
(0 -0.00117791 0)
(0 -0.0012703 0)
(0 -0.0147259 0)
(0 -0.00630659 0)
(0 -0.00727468 0)
(0 -0.00693529 0)
(0 -0.0244114 0)
(0 -0.0153559 0)
(0 -0.0229599 0)
(0 -0.0017589 0)
(0 -0.00257982 0)
(0 -0.0204231 0)
(0 -0.0206336 0)
(0 -0.0237347 0)
(0 -0.000647136 0)
(0 -0.00764777 0)
(0 -0.00795001 0)
(0 -0.0110857 0)
(0 -0.0115876 0)
(0 -0.022592 0)
(0 -0.00146733 0)
(0 -0.00725309 0)
(0 -0.00613759 0)
(0 -0.0144417 0)
(0 -0.00504382 0)
(0 -0.00337155 0)
(0 -0.0206969 0)
(0 -0.0148694 0)
(0 -0.0142463 0)
(0 -0.00430336 0)
(0 -0.00854052 0)
(0 -0.00739896 0)
(0 -0.0107471 0)
(0 -0.0198653 0)
(0 -0.0153339 0)
(0 -0.0127273 0)
(0 -0.0131161 0)
(0 -0.00366206 0)
(0 -0.00344103 0)
(0 -0.0231526 0)
(0 -0.0150162 0)
(0 -0.000585066 0)
(0 -0.00511176 0)
(0 -0.00451591 0)
(0 -0.0180892 0)
(0 -0.0175892 0)
(0 -0.0182689 0)
(0 -0.00738169 0)
(0 -0.00806213 0)
(0 -0.00298562 0)
(0 -0.00282279 0)
(0 -0.0231866 0)
(0 -0.0233264 0)
(0 -0.0106277 0)
(0 -0.00571631 0)
(0 -0.00596353 0)
(0 -0.0242841 0)
(0 -0.0248769 0)
(0 -0.0248578 0)
(0 -0.0231889 0)
(0 -0.014045 0)
(0 -0.0137322 0)
(0 -0.000484338 0)
(0 -0.00122076 0)