/*--------------------------------*- C++ -*----------------------------------*\
| =========                 |                                                 |
| \\      /  F ield         | OpenFOAM: The Open Source CFD Toolbox           |
|  \\    /   O peration     | Version:  v2012                                 |
|   \\  /    A nd           | Website:  www.openfoam.com                      |
|    \\/     M anipulation  |                                                 |
\*---------------------------------------------------------------------------*/
FoamFile
{
    version     2.0;
    format      ascii;
    class       volVectorField;
    location    "850";
    object      U_0;
}
// * * * * * * * * * * * * * * * * * * * * * * * * * * * * * * * * * * * * * //

dimensions      [0 1 -1 0 0 0 0];


internalField   nonuniform List<vector> 
18355
(
(1.0856 0.164775 1.27728e-21)
(1.0141 0.0027095 -4.83223e-22)
(1.06191 0.015727 0)
(1.01175 0.000564811 3.22771e-23)
(1.05159 0.010078 2.42315e-22)
(0.888338 0.042597 0)
(1.01986 -0.00503504 0)
(1.05548 0.00537488 8.3592e-23)
(1.00953 6.59308e-05 0)
(0.959332 0.0616889 1.05169e-22)
(0.998811 0.0158763 -1.17245e-21)
(1.06919 0.0501028 3.01983e-21)
(1.06837 0.0510327 -3.18026e-21)
(1.14149 0.101274 0)
(1.01171 -7.74799e-06 0)
(1.0077 0.00371616 0)
(1.01171 0.000515261 0)
(1.0044 0.00346374 -2.89379e-21)
(1.10256 0.0361762 -1.62503e-21)
(1.02431 -0.00598496 -5.02117e-22)
(0.942914 0.158581 1.00248e-21)
(1.02253 0.0137116 -1.14059e-21)
(1.01291 0.000864833 7.25003e-23)
(0.886792 0.0291099 9.26253e-22)
(1.01289 0.000768769 -2.46048e-22)
(1.0101 -0.00293527 8.06377e-22)
(1.01925 -0.00419061 -6.49152e-25)
(1.01196 0.000975672 0)
(1.00791 -4.63397e-05 -4.25419e-23)
(0.996343 0.0138162 -7.50206e-23)
(0.727222 0.0612596 -1.15055e-20)
(0.984531 0.0586285 0)
(1.00772 0.00524228 0)
(1.00582 0.00229447 0)
(1.00534 -0.00026523 3.75014e-23)
(1.01267 0.00258727 0)
(1.05018 0.0290693 0)
(1.01252 0.00273117 3.65171e-22)
(0.994635 0.0137553 2.97258e-21)
(1.01262 0.00864294 -4.8945e-23)
(1.01329 0.000192608 1.57616e-25)
(0.997031 0.015985 -7.86312e-22)
(1.00606 0.00246919 -1.57232e-22)
(1.01356 0.00248898 2.8099e-22)
(1.01387 0.00247871 0)
(1.05972 0.0679941 1.8787e-20)
(1.0121 0.000358651 6.47126e-22)
(1.01207 0.000296661 -1.97791e-23)
(0.732457 0.00466619 9.58643e-21)
(1.01897 -0.00319105 3.37052e-22)
(1.00307 0.000232988 -8.99955e-22)
(0.930207 0.238413 1.81152e-22)
(1.01926 -0.0033163 -3.56974e-22)
(1.09519 0.0835611 0)
(1.01592 0.00285979 0)
(1.02496 -0.00537891 4.76519e-22)
(1.00252 -0.000167846 -4.03092e-22)
(0.769553 -0.125036 2.21585e-20)
(1.00976 -0.00248391 -9.95634e-22)
(0.87731 0.0904799 1.04754e-20)
(1.00594 0.00243869 -9.57477e-25)
(1.06926 0.0413606 -5.78974e-21)
(1.09213 0.0868499 -1.701e-21)
(1.00784 0.0172531 -2.59189e-22)
(0.992163 0.0783243 0)
(1.00316 0.000195279 0)
(1.02654 0.0261342 0)
(1.04986 0.0297541 2.51053e-21)
(1.00517 0.00195548 -6.53949e-22)
(0.964471 -0.117712 0)
(1.01803 -0.00235847 -5.86723e-22)
(1.01602 0.00298825 0)
(0.990564 0.0495538 1.0042e-21)
(1.00445 -0.00129501 0)
(1.0129 0.0669892 -1.09496e-21)
(1.00539 0.00217357 0)
(0.739133 -0.0637319 0)
(1.00551 0.00232719 7.54257e-23)
(1.01795 -0.00225811 8.69427e-22)
(1.00361 0.0605877 -1.20184e-21)
(1.02552 0.0260521 3.53409e-21)
(0.972397 0.043375 3.08527e-21)
(1.00528 0.00210484 6.66795e-22)
(1.02287 0.0304351 -1.84905e-21)
(1.03661 0.0698334 -2.39316e-22)
(1.00486 0.000226674 -3.51613e-22)
(1.00922 0.000104455 -2.04378e-22)
(1.04272 0.0554829 0)
(1.01332 -0.0012837 2.40616e-22)
(1.04112 0.0567795 0)
(0.974666 0.281961 2.03485e-20)
(0.945976 0.133862 6.98854e-22)
(0.969592 0.0327835 -2.77589e-21)
(1.01909 -0.00299668 -3.52187e-24)
(1.06244 -0.197535 -7.28239e-23)
(1.00324 0.0120744 -3.19706e-22)
(1.0124 -0.000586116 0)
(1.00438 0.0118622 3.06553e-22)
(1.07484 0.048354 0)
(1.02059 0.0127947 1.06819e-21)
(1.03579 0.0677415 -7.87423e-22)
(1.01766 -0.00215628 -5.39285e-22)
(1.01883 -0.00290342 0)
(1.00984 -0.00254988 -2.29225e-24)
(1.02431 0.0271549 1.96024e-21)
(1.0079 0.00393697 3.50222e-22)
(0.98832 0.0767321 -1.05998e-21)
(1.06018 -0.220284 0)
(1.04586 0.0431496 -5.15601e-21)
(1.00699 0.00319819 2.62839e-22)
(1.00318 -0.000272536 2.06475e-22)
(1.00129 2.92212e-05 0)
(0.990326 0.0325093 -1.57733e-21)
(1.02221 0.0292526 0)
(1.04243 0.0553824 0)
(1.00622 0.0331314 -3.73276e-23)
(1.0176 -0.00204014 2.67651e-22)
(0.991454 0.0711623 1.16228e-21)
(1.02069 0.0211867 6.38014e-22)
(1.02732 0.0253041 1.14561e-21)
(0.9714 -0.104508 2.24852e-22)
(1.05877 0.0157015 0)
(0.965287 0.327799 0)
(1.04529 0.0616378 -1.31909e-21)
(0.982895 0.0640677 9.98371e-22)
(1.05533 0.0673931 1.99435e-21)
(1.01946 -0.00482712 -3.21424e-22)
(1.01174 0.000471458 0)
(1.0962 0.166062 0)
(1.02128 0.0104014 2.34815e-21)
(1.01249 -0.000662292 4.33943e-22)
(0.920234 0.237582 -5.91926e-22)
(1.0147 0.00432926 5.60439e-22)
(1.07165 0.0397932 -1.12474e-20)
(1.03817 0.105541 -6.94333e-22)
(1.01375 -0.00152138 -5.76056e-22)
(1.10122 0.0319863 6.81094e-22)
(1.00954 -0.133383 0)
(1.01292 0.000738878 -3.35554e-23)
(0.940921 0.141072 -7.09855e-22)
(1.04164 0.0278229 0)
(1.0042 0.0193739 1.1755e-21)
(1.01225 -0.000224187 -2.08638e-22)
(0.947943 0.276833 3.18721e-21)
(1.03446 0.107677 0)
(1.01416 0.000323621 0)
(0.822968 0.0872919 0)
(1.01101 -0.00765295 0)
(0.989412 0.0304694 1.5789e-21)
(0.93088 -0.0883934 2.21443e-23)
(1.0119 0.000893985 0)
(1.02731 0.0246589 3.49658e-21)
(1.01891 0.0206194 0)
(1.01034 -0.000821929 0)
(1.0062 0.00261504 0)
(1.01191 0.000441462 0)
(1.01168 0.000429755 -7.69312e-25)
(1.00534 0.000266345 -1.74548e-22)
(1.01227 -0.000194043 3.0764e-25)
(1.01172 0.000383981 0)
(1.00232 0.00659078 -2.19772e-21)
(1.0147 0.00448201 0)
(1.00712 0.00325632 6.53085e-22)
(1.00848 0.00786337 0)
(1.00093 0.00160321 -1.76828e-21)
(0.978384 0.062743 -2.49138e-22)
(0.80258 0.0904689 0)
(1.07095 0.192861 -1.98468e-22)
(0.821785 0.210141 2.31082e-22)
(1.04098 0.0283353 5.37912e-21)
(1.00132 -3.58251e-05 -3.10844e-23)
(1.07132 0.0401634 4.91289e-21)
(1.00377 0.000166366 1.54142e-23)
(0.723536 -0.0517292 0)
(1.00301 -0.00018189 -1.50236e-22)
(1.01351 0.000257931 0)
(1.00158 2.7547e-05 -3.88087e-22)
(1.0105 -0.00452873 7.52132e-23)
(1.04025 0.0132101 6.51904e-22)
(1.01992 0.0419205 2.04073e-21)
(1.00552 0.000187636 3.01593e-22)
(0.978983 0.0564768 2.58926e-22)
(1.02189 0.0121797 -3.45131e-21)
(1.01214 0.00126002 7.06781e-23)
(0.995074 0.0552437 -3.10485e-22)
(1.01889 -0.00278981 0)
(1.00869 0.000241192 5.99247e-22)
(1.03716 0.0569953 1.24693e-21)
(1.01591 0.00101041 0)
(1.01894 -0.00399635 8.56397e-23)
(1.05619 0.066631 1.99288e-21)
(1.07441 0.046758 -3.16934e-21)
(1.01485 0.00243247 1.39106e-22)
(1.00497 0.00221692 2.70216e-22)
(1.01527 0.000239443 0)
(1.03422 0.0491374 0)
(1.00364 0.000302638 3.03203e-22)
(1.10016 0.203706 4.02262e-21)
(1.01443 0.00270987 5.03802e-22)
(1.13556 0.142422 0)
(1.01868 -0.00272646 6.07077e-22)
(1.01004 0.00135093 -1.32244e-21)
(0.993996 0.0113481 0)
(1.00725 0.000263103 0)
(1.08008 0.185098 -8.79336e-21)
(1.02183 0.00875758 -2.44811e-21)
(0.812239 0.202599 3.60329e-22)
(1.01209 0.00118706 0)
(1.0075 0.00463736 6.38362e-22)
(1.02345 0.0187226 0)
(1.01672 0.00874339 -1.22422e-21)
(0.938632 -0.00694152 0)
(1.01337 0.0259543 -3.42978e-23)
(1.01431 0.0241197 0)
(1.01117 -0.00806007 0)
(0.733142 -0.112383 0)
(1.01853 0.0414301 -1.70957e-21)
(1.04857 0.0232881 0)
(1.02143 0.00925399 0)
(1.01221 0.000111754 0)
(1.04509 0.0420442 0)
(1.00426 0.000849404 0)
(1.04326 0.0519606 0)
(1.00706 -0.00585502 4.47633e-22)
(1.01937 -0.0507632 0)
(1.02563 -0.0157767 1.79517e-22)
(1.00441 0.00123304 -3.52872e-22)
(1.01991 -0.123189 6.48348e-22)
(1.06853 0.143466 0)
(1.00097 0.0485198 -4.30725e-22)
(1.02417 -0.00586346 -1.0959e-22)
(1.02526 0.0272221 -2.38459e-21)
(1.04675 0.00121628 -7.37329e-23)
(1.00431 0.00104555 1.85629e-22)
(1.00546 0.00546523 6.53658e-22)
(1.01789 -0.045327 -4.15802e-22)
(1.03353 0.00956676 -6.07446e-21)
(1.0582 0.0684026 -2.04931e-20)
(1.05313 0.0165956 6.37663e-21)
(1.01642 0.0243065 -2.39371e-23)
(1.01508 0.00290208 5.17483e-22)
(1.03959 0.012848 -6.48845e-21)
(1.01689 0.0224925 0)
(1.00529 0.0475861 -2.46886e-22)
(1.0214 0.00884968 2.08445e-21)
(1.01598 0.00261768 0)
(1.01198 0.000485399 2.2476e-22)
(0.943408 -0.0136928 0)
(0.917528 0.00162282 0)
(1.01864 -0.00256648 -6.5597e-22)
(1.0068 0.0182076 0)
(0.920728 -0.00791983 0)
(1.05923 0.034272 0)
(1.00519 -0.00560835 0)
(1.01025 -0.00426886 -5.38279e-23)
(1.01566 -0.0105642 7.54937e-22)
(1.05248 0.0170816 0)
(1.01343 0.000414818 0)
(1.02798 -0.016342 -4.70283e-22)
(1.01267 -0.000720296 -4.65163e-22)
(0.938872 -0.100869 0)
(1.09642 -0.0260932 -1.4642e-21)
(1.07194 0.0466024 -2.08103e-21)
(1.06182 0.024885 0)
(0.992189 0.0109505 1.26255e-21)
(0.983426 -0.0151858 7.33335e-22)
(1.01314 0.0173135 -5.3392e-22)
(1.07807 0.0497231 1.12607e-21)
(1.01276 -0.000755669 2.42331e-22)
(1.01608 0.00276989 1.63657e-21)
(1.01873 -0.00313052 7.24887e-22)
(1.00686 0.00327552 0)
(1.0107 0.000794984 0)
(1.04943 0.0234095 0)
(1.01173 0.000606944 -3.80516e-24)
(1.01783 0.00902555 2.10213e-23)
(1.01539 -0.0163133 -2.26742e-21)
(1.01371 -0.00143918 4.33323e-22)
(1.05565 0.0876416 1.257e-21)
(0.824836 -0.315781 9.03255e-21)
(1.01142 -0.0133663 0)
(1.01688 0.00912797 1.2039e-21)
(1.00298 0.0334553 0)
(1.00673 0.00311287 0)
(1.04602 0.054216 0)
(1.02165 0.0075882 0)
(1.01638 0.0435969 0)
(1.01402 0.000243541 -6.25034e-22)
(1.01663 0.0425356 6.85684e-22)
(0.925107 -0.121959 2.01702e-22)
(1.00768 0.00502136 0)
(1.06514 0.0380239 0)
(1.0228 0.020648 1.16709e-21)
(1.03711 -0.0135128 0)
(1.01737 0.018513 5.13047e-22)
(1.01115 1.31902e-05 3.12191e-22)
(1.00484 0.00199254 1.8363e-22)
(1.05342 0.0847077 -1.31919e-21)
(1.01748 0.00893974 5.71646e-22)
(1.00912 0.0216393 0)
(1.05165 0.0282001 -2.42055e-21)
(0.978558 -0.284728 1.61425e-20)
(1.05054 0.0527163 0)
(1.07282 0.0463979 -1.8508e-21)
(1.00785 0.00177902 -8.61496e-23)
(1.01629 -0.0189988 2.49974e-21)
(1.01837 -0.00338999 3.89805e-22)
(1.04985 0.0146615 -8.61887e-21)
(1.06101 0.0244981 8.67146e-21)
(1.06475 0.0385337 0)
(1.04488 0.0144418 0)
(1.02514 0.00205864 -2.5497e-21)
(1.01236 0.000688038 0)
(1.01201 0.00710109 -2.1321e-21)
(1.08309 0.0871617 1.69195e-21)
(1.00158 0.0344356 0)
(1.01234 0.00071196 -2.20504e-22)
(1.01208 0.000186395 -1.91768e-23)
(1.01193 0.000720249 -1.09072e-22)
(1.07164 0.0351472 -3.61644e-21)
(1.02959 0.00593609 0)
(0.672894 -0.0338403 0)
(1.04466 0.0209457 1.70361e-22)
(1.01166 -0.015852 -2.35304e-21)
(1.04215 0.0262956 1.07108e-20)
(0.966399 -0.00583847 1.81106e-21)
(1.01037 -0.0070472 -3.36949e-23)
(1.02177 0.00837681 5.50573e-22)
(1.04133 0.0266855 -1.38737e-21)
(1.01798 0.00472022 -2.42416e-21)
(1.00337 0.0496558 1.833e-22)
(1.00619 -0.000316324 -7.66786e-24)
(0.881434 -0.0307162 0)
(1.00806 0.00431441 0)
(0.967082 0.0648439 -3.04277e-21)
(1.01469 0.00053922 -3.04865e-22)
(1.01298 0.00866384 3.74769e-23)
(1.00833 -0.000265505 -3.67523e-22)
(1.0632 0.04842 -3.95465e-21)
(1.06097 0.213512 -4.70602e-21)
(1.00746 0.0484007 0)
(1.03923 0.0220398 -2.69411e-22)
(1.01655 0.0124498 1.05315e-21)
(1.01333 -0.00133784 -6.547e-23)
(1.01771 0.00453591 2.45219e-21)
(1.02078 -0.0160832 5.17032e-22)
(0.957387 0.0686235 -8.17536e-23)
(1.01324 -0.00131947 0)
(1.01182 0.000472261 5.17291e-23)
(0.973084 -0.0457317 0)
(1.01788 0.0123228 -6.92304e-22)
(1.01352 -0.00154298 0)
(1.05753 0.0407897 6.2931e-21)
(1.01945 -0.0147584 8.68636e-22)
(1.01195 0.000606386 2.34588e-22)
(1.02273 -0.00504374 -4.1075e-22)
(1.01449 0.0451524 4.99824e-22)
(1.01221 0.000468321 -6.73204e-22)
(1.01258 0.0444646 3.09715e-22)
(1.00349 0.000355676 0)
(1.01202 0.000499547 -3.11525e-22)
(1.02023 0.0122868 -1.02198e-21)
(0.936261 0.0839623 -1.1778e-20)
(1.03333 -0.0114585 0)
(1.00354 9.08931e-05 0)
(1.01216 -0.000172552 0)
(1.02125 -0.0311038 -5.83859e-22)
(1.01196 0.000804729 5.52245e-23)
(1.00372 0.000218939 -5.87003e-22)
(0.95372 -0.0164813 -1.49277e-21)
(1.0286 -0.0158565 5.69761e-23)
(1.02102 -0.019162 -2.361e-21)
(1.01724 0.00439247 2.28731e-21)
(1.03398 0.0100389 -3.87778e-21)
(1.06713 0.0504756 0)
(1.03929 0.0103248 5.33733e-23)
(1.013 -0.0113225 -3.44479e-22)
(1.05066 0.0145527 1.07775e-20)
(1.00772 0.00466337 1.55249e-22)
(1.01917 -0.0279893 0)
(1.03319 0.015601 0)
(1.02003 0.0112813 -2.80797e-21)
(1.01198 0.000521808 9.19979e-22)
(1.00391 0.00470197 1.29836e-21)
(1.01051 1.90837e-05 -3.57421e-23)
(1.0068 -0.00649121 -2.09848e-21)
(1.01528 0.000280231 0)
(0.947244 0.0419728 2.75103e-21)
(1.01876 0.0223919 0)
(1.02836 0.0234765 2.27266e-21)
(1.00261 0.000154282 -2.75344e-22)
(1.01197 0.000694853 -4.48043e-23)
(1.01123 0.00104742 0)
(1.0182 -0.00406815 3.74903e-22)
(1.06965 0.039202 5.05407e-21)
(0.534524 0.0553287 2.19739e-21)
(1.03237 -0.0153788 7.78124e-23)
(1.02346 -0.0126075 -4.48258e-22)
(1.06054 0.0333987 2.26128e-21)
(1.01961 0.00877757 9.40181e-22)
(1.01464 0.000480211 6.29411e-22)
(1.00677 -0.000431093 -9.2701e-24)
(1.06445 0.0371171 0)
(1.01604 0.00110097 8.22633e-22)
(1.02237 -0.0214121 0)
(1.02008 -0.00476017 -7.46141e-22)
(1.00118 -0.00478224 3.06593e-21)
(0.967243 0.00203897 -3.65744e-21)
(1.0112 -0.06208 -1.53247e-21)
(1.0501 0.206492 5.94501e-21)
(1.07389 0.052882 -2.73608e-21)
(1.01 -0.00238846 1.04734e-23)
(0.321037 -0.15765 -2.44152e-21)
(1.02116 0.0127967 0)
(1.01171 0.000540547 2.55011e-24)
(0.934149 0.157953 -2.65558e-21)
(1.01483 0.00061733 6.18749e-22)
(1.02007 -0.0246394 0)
(1.01052 -0.015437 2.26531e-22)
(0.984726 0.0813133 3.45501e-22)
(1.01481 0.000661103 -3.58232e-22)
(1.07053 0.0400605 -5.58592e-21)
(1.02094 0.170587 3.32924e-21)
(1.0698 0.0454999 -4.91898e-22)
(1.01329 0.00385832 -3.44785e-23)
(1.0156 0.00361476 -1.53574e-22)
(1.07078 0.0453973 9.40956e-21)
(1.02154 0.0213304 -6.78132e-22)
(1.02128 -0.00329841 -2.53536e-22)
(0.966508 0.0606506 0)
(1.09028 -0.023528 1.02562e-21)
(1.01167 0.000482862 4.15978e-23)
(1.065 0.0374486 0)
(1.06929 0.0392646 3.06577e-22)
(1.01531 0.00344049 1.4149e-22)
(1.01218 0.0106107 -5.59512e-23)
(1.00932 0.0461649 -9.63882e-24)
(0.835336 -0.276168 -4.10809e-21)
(1.05508 0.0465791 4.10115e-21)
(1.01736 0.0121973 1.34797e-21)
(1.0185 -0.00361202 -5.89546e-22)
(1.06294 0.0346151 1.07527e-21)
(1.01117 7.52241e-06 3.5215e-22)
(1.00681 0.00369552 -3.45368e-22)
(1.02218 -0.00436893 0)
(1.01148 -0.0571149 1.01132e-21)
(0.573571 0.0581887 0)
(1.00761 0.00444927 -1.53486e-22)
(1.00257 8.87725e-05 2.82199e-22)
(1.01395 0.000499252 6.81529e-23)
(1.06195 0.0489716 4.98026e-21)
(1.03012 0.0154082 0)
(1.00456 0.00173115 -1.89902e-22)
(1.0222 -0.0231266 0)
(1.04509 0.052272 0)
(1.02206 0.00503184 4.89402e-21)
(1.02731 0.052185 -8.26203e-22)
(1.06889 0.0409281 5.80988e-21)
(1.02234 0.0126703 3.71934e-21)
(1.01094 -6.19369e-06 1.73271e-22)
(1.05408 0.045749 3.8797e-21)
(1.06214 0.0515519 0)
(1.03456 -0.132371 -2.89324e-20)
(1.00736 0.00414366 -3.88927e-23)
(1.1456 0.231803 -7.52554e-21)
(1.01278 0.000646674 2.51364e-22)
(1.00747 0.00432746 0)
(1.05092 0.0560833 0)
(1.02302 0.022368 1.53743e-21)
(0.944863 0.0468143 -4.44151e-21)
(0.99348 0.0513509 0)
(1.02845 0.0242577 -2.49019e-21)
(1.00389 -0.00279661 1.06607e-21)
(1.02313 0.0136983 -8.79345e-23)
(1.05854 0.0393409 -6.29794e-21)
(1.02028 0.0220508 1.21157e-21)
(1.0606 0.0229148 -1.15867e-20)
(1.0187 0.013059 -1.63068e-21)
(1.00714 0.00388491 8.41707e-23)
(1.02767 0.00888412 0)
(1.00725 0.00404889 4.19694e-23)
(1.06894 0.0399803 -6.28031e-21)
(0.560074 0.0455604 2.96172e-21)
(0.980733 0.0793348 1.1836e-21)
(1.00356 0.00246611 7.37494e-22)
(1.01321 0.00659093 0)
(1.01814 0.0129292 0)
(1.02394 0.0205197 0)
(1.00719 0.00248329 1.62346e-21)
(1.0057 0.015492 0)
(1.00334 -0.00239983 2.15319e-22)
(1.01753 0.00141135 -1.06111e-21)
(1.04782 0.0542821 -1.96082e-21)
(1.0154 0.00308328 -5.34315e-22)
(1.0048 0.0143665 0)
(0.756086 -0.0387965 3.1022e-20)
(1.11706 0.208015 1.37152e-21)
(1.0869 0.0847343 -1.8399e-21)
(1.02139 0.0100026 -2.95877e-23)
(1.00439 0.00013107 -3.22503e-22)
(1.01124 0.046847 1.07117e-23)
(1.02216 0.0131559 -1.16368e-21)
(0.940866 -0.0817074 -1.29121e-22)
(1.07123 0.00366496 -1.29477e-21)
(1.0114 0.00609312 0)
(1.01906 0.0301091 -3.04508e-22)
(1.01123 -0.0058654 1.0428e-21)
(1.02879 0.016423 6.54115e-21)
(1.03549 0.0241613 -3.78901e-21)
(0.611141 0.107063 -7.95954e-21)
(1.03194 0.0493864 0)
(1.01239 0.00205911 0)
(1.00363 -0.102382 0)
(1.01046 8.90075e-05 -1.65583e-23)
(1.07305 0.207217 2.69193e-21)
(0.315771 -0.177538 -2.47424e-21)
(1.05437 0.0176307 5.73697e-21)
(1.01236 0.0102719 0)
(0.572825 0.108942 0)
(1.01178 0.000677994 1.36578e-23)
(1.07016 0.0403055 6.01728e-21)
(0.981179 0.0579209 0)
(1.01955 0.0715877 -5.48077e-23)
(1.01933 0.0219028 -2.06575e-21)
(1.02734 0.00856239 0)
(1.02147 0.00513512 3.48438e-23)
(1.08634 -0.107508 -4.49459e-21)
(1.02458 -0.0639525 4.71697e-20)
(1.01318 0.065309 0)
(1.06551 0.120911 -1.88636e-23)
(1.00936 0.00119699 1.35235e-21)
(1.02107 0.00498504 2.09324e-21)
(1.0241 0.030488 2.24224e-22)
(1.01614 0.0025593 1.70722e-21)
(1.0141 0.00572582 -1.34393e-21)
(0.946873 0.150346 3.42244e-22)
(0.734975 -0.151304 7.505e-21)
(0.512737 0.0444933 -3.20647e-21)
(0.807775 -0.0343214 6.23491e-21)
(1.01064 0.0144673 -8.71387e-22)
(0.987535 0.0560897 -2.11583e-21)
(0.986142 0.0310435 -5.20522e-22)
(1.0121 0.000476154 -2.83086e-22)
(1.01317 0.00266357 0)
(1.00982 0.0165853 1.83206e-21)
(1.0183 0.000493301 1.64446e-21)
(1.02209 0.00783257 -5.87368e-22)
(1.01603 0.00239522 0)
(0.959814 0.0734043 -1.57924e-21)
(1.01255 -0.000696469 -6.6712e-22)
(0.795216 -0.0417292 -5.66722e-21)
(1.01408 0.00907967 -7.87736e-22)
(1.06956 0.0390049 4.71041e-21)
(1.06606 0.051086 1.40015e-20)
(1.01326 0.00273036 2.82187e-22)
(1.02099 0.0291559 -2.12595e-23)
(1.10066 0.176455 0)
(1.01744 0.00152286 0)
(0.414402 0.0267605 1.20813e-22)
(1.01198 0.000511083 -8.08659e-23)
(0.948426 0.118909 1.06227e-21)
(1.03046 0.0495091 2.21366e-21)
(1.01389 0.00025344 1.05458e-21)
(0.98505 0.0287265 6.0583e-22)
(1.07709 0.0481241 3.0315e-21)
(1.07479 0.054995 2.78869e-21)
(1.00585 0.000114205 0)
(1.0049 0.00181722 0)
(1.06149 0.0340282 0)
(1.05519 0.017875 -1.5388e-20)
(1.06984 0.0387815 -2.39504e-21)
(1.01609 0.000739526 1.78547e-21)
(1.06945 0.0418958 0)
(1.01264 -0.000747852 -7.02174e-24)
(1.07505 0.00548814 -8.34623e-22)
(1.00556 -0.000233465 7.71495e-24)
(1.01247 0.00077903 4.86905e-25)
(1.05213 0.0295378 1.50021e-21)
(1.01245 -0.0113691 4.53577e-22)
(1.0214 -0.0403023 0)
(1.00326 -0.000228236 0)
(1.01696 0.0310064 0)
(1.04192 -0.00760983 0)
(0.899663 -0.0381485 -1.42637e-21)
(0.640765 -0.0305035 6.36247e-21)
(1.04261 0.0238237 0)
(1.00802 -0.00831541 2.08268e-22)
(1.00178 -8.50521e-05 -2.72325e-22)
(1.00492 0.0343274 3.06634e-22)
(1.01886 0.0115843 1.18699e-21)
(1.04221 0.0231738 0)
(0.285074 0.113162 5.58434e-21)
(1.01326 0.00198192 0)
(1.03754 -0.00970378 -7.76774e-23)
(1.01566 0.00830019 -8.01646e-22)
(1.00159 -5.88335e-05 0)
(1.03691 0.0264762 -1.08496e-20)
(0.949424 -0.0876333 0)
(1.04175 0.0116097 5.82813e-23)
(1.0331 0.097542 0)
(1.03152 -0.00859336 2.19965e-23)
(1.06643 0.0304567 0)
(0.988874 0.179385 7.4848e-21)
(1.01055 -0.00742382 6.43511e-23)
(1.01199 0.000579136 -1.96313e-22)
(1.14855 0.197516 0)
(1.03903 0.0558823 -1.30305e-21)
(0.812746 -0.013642 -8.25041e-21)
(0.997054 0.0562566 0)
(1.01344 0.00821245 0)
(1.01605 0.00218331 0)
(1.01829 -0.00245036 -1.18935e-21)
(1.00344 7.12918e-07 0)
(1.01535 0.0127518 -5.41579e-22)
(1.01064 -0.0147733 -9.99715e-23)
(1.03657 0.125836 5.10464e-22)
(0.899419 0.234195 -1.6001e-22)
(1.01246 0.00080756 0)
(0.86452 -0.268235 3.8423e-21)
(0.84684 -0.265721 0)
(1.00194 0.0158295 1.21815e-21)
(1.04985 0.0246763 3.96362e-22)
(1.00693 0.00381792 2.95977e-22)
(1.08212 0.153983 2.75839e-21)
(0.995178 0.0747222 2.09132e-22)
(1.01137 -0.00963762 1.35653e-22)
(0.970444 0.18476 3.23833e-21)
(1.06401 0.0358947 0)
(0.95707 0.0580284 -1.83965e-21)
(0.901959 -0.0555168 -1.04063e-21)
(1.0231 -0.00378058 4.05356e-22)
(1.01844 -0.00246595 1.09698e-21)
(1.00422 0.00022146 -2.54784e-22)
(0.989778 0.0580332 2.16606e-22)
(1.07088 0.0349859 0)
(1.01313 0.00373424 2.71867e-22)
(1.03454 0.00783264 -3.58475e-21)
(1.04166 0.12263 0)
(1.02132 0.0122353 0)
(1.06454 0.0362197 4.79568e-21)
(1.01865 -0.00259502 1.72705e-22)
(1.06374 0.0344278 4.52515e-21)
(0.374223 -0.060458 4.97491e-21)
(1.0999 -0.0844004 0)
(1.0863 0.0266144 -1.93312e-21)
(1.10022 -0.0809179 5.12305e-21)
(1.0374 0.0593113 0)
(0.739447 -0.0980416 -6.54355e-21)
(1.02037 0.0303131 -2.35439e-21)
(1.01232 -0.000444924 0)
(1.01084 0.0334086 -3.23571e-23)
(0.918601 -0.0604995 6.91973e-23)
(1.0092 -0.0031601 5.81177e-22)
(1.07218 0.0332052 -1.54112e-20)
(1.01325 0.00388832 1.05688e-22)
(1.07349 0.136351 0)
(1.01386 0.000473919 2.71993e-22)
(1.0137 0.00899403 -1.92215e-22)
(0.815772 -0.0697806 3.16563e-22)
(1.0028 9.4405e-05 6.39745e-22)
(1.01141 0.0352175 -1.02059e-22)
(1.01853 -0.0355675 0)
(1.03274 0.0932411 -6.97061e-22)
(1.02112 0.00143042 0)
(1.01499 0.00105326 5.38562e-22)
(1.03509 0.0265975 -3.89582e-21)
(1.01612 0.0322396 -8.44779e-22)
(1.00407 0.000457344 5.07509e-24)
(1.00726 0.00149108 -4.71775e-22)
(0.980291 0.0259819 0)
(1.09991 0.0841206 0)
(1.02941 0.0230995 0)
(1.01102 8.47165e-05 3.45387e-22)
(1.04421 0.0596921 3.96883e-21)
(1.00175 0.180629 0)
(1.01302 0.00316975 -2.59619e-23)
(1.1056 -0.0632904 -5.08953e-21)
(1.0355 0.0550177 4.30778e-21)
(1.02167 0.00494495 -3.3375e-21)
(1.10141 0.284084 0)
(1.00387 0.000419968 4.1703e-22)
(1.06451 0.0121141 7.47343e-22)
(1.01763 0.0030452 1.28478e-21)
(1.01103 -0.0162386 -1.21901e-22)
(1.05184 0.0321836 -1.63399e-21)
(1.01782 0.0225249 9.17373e-22)
(0.811444 -0.25323 0)
(1.02937 0.0223646 0)
(1.01504 0.00100986 5.13064e-24)
(1.07346 0.275651 1.05041e-20)
(1.01745 0.00305935 1.15769e-21)
(1.00673 0.00298678 0)
(1.01307 0.000492469 -9.44173e-22)
(1.01233 -0.000430544 0)
(1.01018 0.0365419 0)
(1.04198 0.0533974 0)
(1.03918 0.21207 -2.05432e-21)
(1.00738 6.59984e-05 2.96493e-22)
(0.430921 0.03561 -5.92841e-21)
(1.00943 -0.0081474 -9.32459e-22)
(1.11254 -0.0401477 0)
(0.811801 -0.291649 1.97866e-20)
(1.0124 0.011278 0)
(1.01748 0.00458044 -1.1982e-21)
(1.01834 0.0312937 -1.07401e-21)
(1.00265 -0.00236856 -4.34109e-22)
(1.06603 0.039947 -6.04293e-21)
(1.01396 0.00297287 -4.37834e-22)
(1.00634 0.0028716 0)
(1.00599 0.00324301 7.55064e-22)
(1.01317 0.00371369 -6.70394e-23)
(1.01717 0.00149966 -1.10266e-21)
(1.04901 0.0187902 -1.02382e-21)
(1.00204 0.0027906 1.79469e-21)
(1.06553 0.0392542 0)
(1.02445 -0.00682964 -6.32986e-22)
(1.01316 0.00703041 -6.46444e-22)
(1.00342 0.00732129 2.85738e-21)
(1.01938 -0.0162367 9.30856e-22)
(1.10309 -0.010103 -1.41426e-21)
(1.01516 0.00259849 0)
(1.06916 0.0403748 4.56355e-21)
(1.04387 0.0635102 1.24791e-21)
(1.00449 0.00144364 0)
(0.749993 -0.199148 -1.80922e-20)
(0.379531 -0.0741717 0)
(1.00238 -3.38131e-05 -7.52137e-22)
(1.1149 0.0166819 -3.14148e-21)
(1.00189 -9.91792e-05 -2.4084e-22)
(1.04169 -0.00880802 0)
(1.06577 0.030707 -5.92041e-21)
(1.01165 -0.00945553 -8.87912e-23)
(1.06236 0.0339225 -9.95555e-22)
(1.01206 0.0324125 2.3232e-22)
(1.11411 -0.0227804 -2.13116e-21)
(1.0021 -1.463e-06 7.64748e-22)
(1.05214 0.0153395 -1.66943e-20)
(1.09433 -0.018995 -1.09348e-20)
(1.01072 0.103089 4.32767e-22)
(0.954674 -0.0105398 -2.93445e-21)
(1.01712 0.00158335 1.35224e-21)
(1.03912 0.0440637 9.87255e-23)
(1.07221 0.041815 -1.89044e-20)
(1.07205 0.152089 0)
(1.01623 0.000834914 -1.80539e-21)
(1.03817 0.0174735 5.55178e-21)
(1.0231 -0.00319182 -4.04364e-22)
(1.01689 0.00782725 2.68316e-22)
(1.01232 0.000891236 -1.9529e-22)
(1.00572 -0.000317028 -4.80529e-23)
(1.01336 0.00230616 -3.03543e-22)
(1.11616 0.00175635 5.43607e-21)
(1.02206 -0.019819 9.08116e-23)
(1.01183 0.000124982 0)
(1.00571 0.00224021 -6.87406e-22)
(1.00399 -0.000393845 -3.72234e-22)
(1.01665 0.0114461 -9.98416e-22)
(1.01032 0.0995152 1.59037e-22)
(1.07205 0.0413616 1.53597e-20)
(1.00757 0.00483634 -8.41051e-22)
(1.01466 0.0318606 0)
(1.01381 0.0068143 -1.18001e-22)
(1.01342 0.0065762 5.47979e-23)
(1.02382 -0.00662611 1.3027e-22)
(1.01219 -0.000148305 1.09569e-22)
(0.984164 -0.0203649 7.41109e-22)
(1.00561 0.00228889 0)
(1.01227 -0.000462862 6.27236e-22)
(1.00851 0.000214697 0)
(1.02094 0.00965475 -1.12838e-21)
(1.01576 0.00105141 -5.63327e-23)
(1.01048 0.00188639 0)
(1.04465 0.0536222 0)
(0.942326 0.125314 0)
(1.04194 0.0247081 0)
(1.01232 -0.000526456 0)
(1.06365 0.0517224 -2.88991e-21)
(1.0062 0.00272772 0)
(1.00571 0.00234916 3.18006e-22)
(1.01119 0.00225664 0)
(0.959807 -0.0152121 1.67015e-21)
(1.00262 0.00520276 7.42912e-22)
(1.01096 0.0028734 0)
(1.00628 0.00344446 0)
(1.01451 0.00246257 2.22044e-22)
(1.00179 8.19652e-05 0)
(1.00507 0.00186895 -3.59939e-22)
(1.00474 -0.00584311 0)
(1.01382 0.00284506 0)
(1.02039 0.0117537 2.81114e-21)
(1.01231 0.00106919 1.40202e-22)
(1.03765 0.0171567 0)
(1.11005 0.203848 -2.01548e-21)
(1.01239 -0.000532047 0)
(1.02349 0.012894 0)
(1.01135 2.92371e-06 0)
(1.10344 0.0292933 1.93259e-22)
(1.02753 0.0690052 5.46661e-23)
(1.05627 0.0236356 -1.53455e-22)
(1.0149 0.0125895 4.59719e-22)
(1.02204 0.00864808 5.41733e-22)
(1.01527 0.00984488 8.30196e-22)
(0.990542 -0.0260277 -4.12564e-21)
(0.675344 0.103457 6.87386e-21)
(1.00633 0.00024319 -3.91601e-22)
(1.00547 0.066397 0)
(1.02355 0.0132606 1.55506e-21)
(0.850849 -0.0508782 0)
(1.01334 0.00274463 -4.12211e-22)
(1.00755 0.00459602 -3.22868e-22)
(1.00348 -0.00345092 0)
(1.03727 -0.199384 -1.00759e-21)
(1.00345 -0.00276979 2.19716e-22)
(1.05705 0.0238484 1.5136e-20)
(1.01022 -0.00810386 2.02328e-22)
(1.0557 0.04078 0)
(0.987135 0.0520356 9.99949e-22)
(1.00886 1.96133e-05 0)
(1.0117 8.63718e-05 -4.25955e-22)
(1.00544 -0.000333394 -9.78026e-23)
(1.01296 0.00301623 0)
(1.06125 0.0234099 -7.69874e-21)
(1.07621 0.0358137 2.31201e-21)
(0.882267 -0.0131487 0)
(1.06227 0.0438431 3.24121e-21)
(1.02435 0.0023485 3.9469e-22)
(1.00498 0.00184992 7.41777e-22)
(1.00808 9.89032e-05 2.90999e-22)
(1.01231 0.00124398 2.36619e-22)
(1.0169 -0.00186472 -2.93106e-22)
(1.02561 0.0113319 1.39408e-21)
(1.06519 0.0397453 8.23002e-21)
(1.02018 -0.0183956 -6.59035e-22)
(0.954786 -0.00776863 -5.72017e-22)
(1.02392 0.00231119 2.6579e-21)
(1.0203 0.0023761 -4.01445e-23)
(0.981302 0.0287839 0)
(1.01616 0.0023314 0)
(1.06134 0.0504594 5.58217e-21)
(1.06323 0.0432306 -6.1863e-21)
(1.03979 0.0604115 0)
(1.06383 0.0338419 -6.06871e-21)
(0.864975 0.0902699 0)
(0.991492 0.00127307 -1.64524e-21)
(1.01217 0.000171591 0)
(1.00508 0.00194637 5.83504e-22)
(1.02736 0.00773768 2.09781e-21)
(1.01415 0.000638333 0)
(0.949098 -0.123262 -6.8202e-23)
(1.06975 0.0353726 6.18374e-21)
(1.06662 0.0394243 8.55344e-21)
(1.00856 0.0055398 0)
(1.02094 0.0092824 -2.21375e-21)
(1.00789 -0.00679122 2.11718e-21)
(1.01714 -0.00195337 6.3501e-22)
(0.708693 0.102188 2.33194e-22)
(1.09354 0.0226281 1.74469e-21)
(1.00562 0.00238719 -8.61695e-23)
(1.00312 -0.002255 0)
(1.00436 0.00033511 6.30148e-22)
(1.01232 0.00107291 -3.52104e-22)
(1.01314 -0.00126585 0)
(1.02363 -0.00505838 0)
(1.0462 0.0473573 -6.81071e-21)
(1.00401 -0.00327912 4.07986e-22)
(1.01259 0.00233754 3.11815e-22)
(1.00878 0.0057008 0)
(1.01351 -9.13965e-05 0)
(1.01233 0.000893295 8.43649e-22)
(1.01667 0.00751459 0)
(1.01026 -0.00688012 -1.34017e-21)
(1.0135 -4.00842e-05 0)
(1.01219 -0.00882569 -1.38941e-21)
(1.00616 0.00340354 -3.88747e-22)
(0.979508 -0.03994 -9.31036e-22)
(1.04923 0.0279951 -1.19604e-21)
(1.00753 0.00057386 1.83034e-21)
(0.991677 -0.0725587 -1.09796e-22)
(1.03516 -0.0114123 0)
(1.03269 0.00839711 -4.76219e-21)
(1.06977 0.0394325 0)
(0.963988 0.0374564 1.91917e-22)
(1.0139 0.000499941 0)
(1.01068 0.00059501 7.78188e-23)
(1.01299 0.00073184 0)
(1.04937 -0.0144786 -2.69103e-22)
(1.0069 1.78223e-05 -7.18291e-22)
(0.992171 -0.000892354 0)
(0.99487 0.0500595 1.41066e-22)
(1.01638 0.00797958 -8.63304e-22)
(1.01115 0.00101747 9.86139e-22)
(1.02123 0.000898977 3.39535e-21)
(0.845301 -0.0625464 0)
(1.03677 0.0267207 -8.65565e-23)
(1.00722 0.000113288 3.30009e-22)
(1.00497 0.000498412 -2.88997e-22)
(1.01862 -0.000353509 0)
(1.05154 0.0513882 0)
(1.01297 0.00260981 2.32007e-22)
(1.075 0.0514469 0)
(1.01207 -5.15164e-06 1.91313e-22)
(1.00418 0.000655956 3.72878e-22)
(1.04239 0.0253141 -6.4155e-21)
(1.0042 0.0865419 0)
(1.04403 0.135972 5.14276e-21)
(1.04904 0.0103509 6.25209e-23)
(1.04576 0.0497755 7.16402e-21)
(1.00508 0.00226511 3.54571e-22)
(1.02274 -0.00387985 0)
(0.971793 0.081408 -1.68429e-21)
(1.02068 0.000542042 1.6398e-21)
(1.01288 0.00285556 3.48599e-22)
(0.976306 0.0836318 -1.46909e-21)
(1.01034 0.00582439 0)
(1.11674 0.0390933 1.02279e-21)
(1.00778 0.0940165 -1.49957e-21)
(1.00364 -0.000346143 5.76543e-22)
(1.0052 0.00239306 3.59335e-22)
(1.02152 0.00139846 0)
(1.01369 0.00254952 0)
(1.0051 0.00235748 4.7459e-22)
(1.0007 -0.0701533 4.64954e-22)
(0.972184 0.0659114 0)
(1.00645 0.00256121 3.22422e-22)
(1.0162 0.00823402 8.57193e-22)
(1.01621 0.0126706 -3.43995e-22)
(1.06482 0.0335505 0)
(1.01294 0.0030945 0)
(1.02278 -0.00146784 3.48329e-22)
(1.00441 -0.0136586 -1.56319e-21)
(1.01884 -0.00260766 0)
(1.00566 0.00583968 -9.58616e-23)
(1.04712 0.00986569 1.34046e-23)
(1.07576 0.0380806 -2.26567e-21)
(1.07058 0.0383563 -1.05477e-21)
(1.01419 0.000724502 1.74043e-21)
(1.00823 0.00442406 0)
(1.00659 0.00283562 -1.08433e-24)
(1.00938 0.00810939 4.3321e-22)
(1.01782 -0.0142515 0)
(1.00953 0.00143365 -1.16149e-21)
(1.01362 -0.00147674 -1.93008e-23)
(1.01047 0.000743454 -7.92771e-23)
(1.0253 -0.0131782 2.32651e-22)
(1.03361 0.0482191 -8.26108e-23)
(1.0137 0.00135914 6.78959e-22)
(1.01803 0.000977503 -2.45117e-21)
(1.07319 0.0565291 -6.84169e-22)
(1.01339 -0.00146742 0)
(1.01262 -0.000584019 -8.87117e-22)
(1.01747 0.00268409 -2.65311e-21)
(0.885842 0.206052 3.65667e-22)
(1.00789 0.00409228 -2.79733e-22)
(1.02069 0.00238516 3.61579e-21)
(1.01393 0.00145507 3.3775e-22)
(1.01133 -0.00051398 0)
(1.0083 0.00422094 -3.92706e-23)
(1.03992 0.0317336 -5.1928e-21)
(1.06022 0.0395639 -4.42404e-21)
(1.01826 0.00111172 0)
(1.10721 0.0384708 -2.91199e-22)
(1.04724 0.0368357 7.28994e-21)
(1.0528 0.0529461 -5.1468e-21)
(1.06817 0.0443438 0)
(1.01185 0.000739795 -3.69344e-23)
(1.02219 0.000556038 0)