/*--------------------------------*- C++ -*----------------------------------*\
| =========                 |                                                 |
| \\      /  F ield         | OpenFOAM: The Open Source CFD Toolbox           |
|  \\    /   O peration     | Version:  v2012                                 |
|   \\  /    A nd           | Website:  www.openfoam.com                      |
|    \\/     M anipulation  |                                                 |
\*---------------------------------------------------------------------------*/
FoamFile
{
    version     2.0;
    format      ascii;
    class       volScalarField;
    location    "850";
    object      k;
}
// * * * * * * * * * * * * * * * * * * * * * * * * * * * * * * * * * * * * * //

dimensions      [0 2 -2 0 0 0 0];


internalField   nonuniform List<scalar> 
18355
(
0.000162172
0.0396242
0.000147312
0.000145602
0.000150256
0.000186958
0.00014757
0.00017461
0.000151225
0.0422137
0.000144951
0.0312557
0.000184392
0.000147983
0.000148796
0.00015191
0.0137178
0.000146221
0.000148305
0.0357803
0.000154207
0.000149412
0.0761842
0.000150284
0.000155512
0.000148877
0.00014837
0.000150891
0.0155515
0.000147816
0.00014895
0.000152149
0.0001462
0.000146828
0.000168687
0.000162862
0.000149891
0.000182487
0.000150706
0.000145111
0.000147992
0.000168418
0.000147342
0.0328436
0.000147857
0.000183526
0.000170054
0.000151945
0.000167818
0.000146344
0.000145004
0.000147279
0.000149835
0.0661147
0.000148456
0.000148366
0.000200118
0.000148916
0.000460404
0.000184159
0.000146368
0.000179569
0.000146118
0.000162837
0.0350442
0.000161561
0.00828083
0.000157752
0.00014841
0.000149251
0.000172022
0.000149684
0.000185305
0.000146534
0.000174528
0.000147544
0.0522442
0.00015197
0.000159001
0.000147024
0.000147653
0.000258923
0.000153903
0.000164436
0.000148822
0.000183978
0.0331087
0.0354712
0.0162064
0.0750675
0.000250857
0.00014826
0.000148616
0.000144384
0.0062075
0.0725261
0.000147166
0.00015589
0.0644092
0.00862062
0.0140123
0.0102046
0.00016448
0.013415
0.000151026
0.000191846
0.0196786
0.000177259
0.000161605
0.00018644
0.000147603
0.000150362
0.000148891
0.000150577
0.0572012
0.000147852
0.000475362
0.0514437
0.000475048
0.000164404
0.0452969
0.000578139
0.000151869
0.000171833
0.00014716
0.000177811
0.000147258
0.000149725
0.00156257
0.000144404
0.000145046
0.0304152
0.000172505
0.000155647
0.00016144
0.000149694
0.000148073
0.00014493
0.000147792
0.000172973
0.0158931
0.0201445
0.000149477
0.000147588
0.0001895
0.000149121
0.000153837
0.0254331
0.000152452
0.0232255
0.000149586
0.000149189
0.000167645
0.000432708
0.000187667
0.000149782
0.0277668
0.000472596
0.000149763
0.000180837
0.000155728
0.000153536
0.000156914
0.00015614
0.000225593
0.000276231
0.0627959
0.000166344
0.000203266
0.000146387
0.0259763
0.0680043
0.000144869
0.000144963
0.000151889
0.0293711
0.00018028
0.00014856
0.000926608
0.0486274
0.000165661
0.000202939
0.00015803
0.000147245
0.00023257
0.0306494
0.0799543
0.000218735
0.000151325
0.0108525
0.00019929
0.000147399
0.000155973
0.0161291
0.000162692
0.000149355
0.0131848
0.000157766
0.000167547
0.000144966
0.000150872
0.000152283
0.0479585
0.0772546
0.00937801
0.0001568
0.000472029
0.0555144
0.0619917
0.000167366
0.00014805
0.000149362
0.037122
0.000149296
0.000146387
0.000247934
0.00153418
0.0375166
0.000148944
0.000152301
0.000241882
0.000147728
0.000163853
0.000147954
0.0559393
0.000148851
0.0474801
0.0296972
0.000171801
0.000148036
0.000149811
0.000158398
0.000155247
0.050643
0.000150556
0.000148828
0.000148622
0.000183828
0.000471553
0.00911279
0.000160924
0.000201307
0.000149197
0.000146458
0.000149029
0.0246361
0.0125831
0.000466758
0.000187488
0.000155616
0.000150878
0.000532136
0.000158354
0.0652326
0.000148577
0.0309149
0.010241
0.000180787
0.000147785
0.000147515
0.000160882
0.00017392
0.0561604
0.000173264
0.000146658
0.000146357
0.000149738
0.000206191
0.000170421
0.000168736
0.000150381
0.0121157
0.00022239
0.000190576
0.000149227
0.0136998
0.000147113
0.00014792
0.000780233
0.000146699
0.000147537
0.000190334
0.000147289
0.0156729
0.000158183
0.000152495
0.000146897
0.000166288
0.0341652
0.000152198
0.000145631
0.000147958
0.000199855
0.054686
0.000149762
0.000149847
0.00332518
0.000165507
0.000188096
0.000180005
0.000147945
0.000172731
0.000149796
0.000149773
0.00017772
0.000228259
0.00025203
0.000202159
0.000144483
0.000166926
0.000150754
0.000148275
0.00357128
0.000147434
0.000206828
0.000168001
0.000148566
0.000145102
0.000202373
0.0100652
0.0596031
0.000148961
0.000156575
0.0292665
0.000146806
0.000521685
0.000158501
0.000158882
0.00032506
0.000144481
0.000317509
0.000148092
0.000161984
0.000148708
0.000187572
0.0339736
0.000149786
0.0420563
0.000164442
0.000148204
0.000169361
0.000180239
0.0253539
0.0627314
0.00951731
0.000148519
0.000146073
0.0733889
0.000164093
0.000148674
0.000150047
0.000262149
0.000232387
0.000425539
0.0773885
0.000148528
0.000151976
0.000511984
0.000147566
0.000150337
0.000228697
0.000167814
0.000153493
0.00973707
0.000149824
0.000162065
0.000254395
0.00713972
0.000145591
0.000148128
0.000147804
0.00014717
0.000165251
0.000147175
0.000164918
0.000147824
0.000153109
0.000148548
0.000151022
0.000147522
0.000148316
0.000147418
0.000147397
0.00015144
0.00017062
0.0189662
0.000147953
0.0383198
0.000159444
0.0199208
0.000162651
0.000177429
0.000149194
0.035571
0.000149732
0.000147887
0.00014878
0.000145469
0.0624092
0.000153026
0.000146695
0.000169276
0.000164674
0.000147588
0.000146802
0.053225
0.000149239
0.000147151
0.000524638
0.000147295
0.000452999
0.0090826
0.000228646
0.000153504
0.000151027
0.0396844
0.000149601
0.000147512
0.000441245
0.000149777
0.000144868
0.0120361
0.000146496
0.036564
0.00017201
0.000182435
0.011742
0.000149586
0.000147523
0.0415846
0.000186872
0.0257805
0.0151713
0.000147853
0.000147311
0.000149078
0.0032097
0.000162269
0.000148431
0.000149817
0.000149223
0.00016243
0.000469306
0.000155859
0.00014897
0.000149823
0.00016213
0.000262605
0.0561302
0.0319163
0.0554862
0.00016289
0.000162267
0.0392729
0.000148749
0.000146732
0.000147948
0.000147925
0.000164793
0.000148063
0.000146299
0.00695901
0.000162615
0.000168584
0.0756137
0.00016327
0.0255584
0.000147551
0.00014746
0.000147691
0.000147687
0.000149879
0.000149865
0.000147977
0.0208277
0.000148966
0.000144755
0.000431641
0.00018538
0.000146793
0.000151249
0.000164503
0.000722038
0.000151527
0.000147199
0.0247846
0.000151964
0.0104017
0.000158879
0.000147241
0.0073421
0.000185395
0.000146091
0.068284
0.0182087
0.0497248
0.000147225
0.00014709
0.000154729
0.000199608
0.00014944
0.0121169
0.00191106
0.0329795
0.000197536
0.00014541
0.000171752
0.0415303
0.0723964
0.0496413
0.000148689
0.000155346
0.000155716
0.0527661
0.00985156
0.000260016
0.000148874
0.000147767
0.000148726
0.000162486
0.000148003
0.0335457
0.000156318
0.0574235
0.000148014
0.000149069
0.000147416
0.000157389
0.000159196
0.000256347
0.000147401
0.000191739
0.000418988
0.000161348
0.00014778
0.000152081
0.000162161
0.000149798
0.000161696
0.000168042
0.000161009
0.000184483
0.000150245
0.000146055
0.000147948
0.000149843
0.000165451
0.000153495
0.000179659
0.000147469
0.000150304
0.022388
0.000144551
0.000157551
0.000149713
0.00018247
0.000152215
0.0625877
0.000149958
0.0112913
0.000154082
0.000152068
0.0109954
0.0229128
0.0542457
0.000161402
0.000152702
0.00014731
0.000147765
0.000197678
0.000168396
0.000159089
0.000169703
0.0202244
0.000226379
0.000147376
0.0646985
0.0445634
0.000151587
0.000147753
0.000157593
0.0727409
0.000160847
0.000149394
0.000163811
0.000183015
0.000168824
0.000156819
0.000333861
0.000155533
0.000188416
0.0291885
0.000394389
0.00498287
0.000163821
0.000180303
0.000157453
0.000148383
0.000151678
0.000147767
0.000182563
0.000185142
0.0345861
0.000170007
0.043093
0.0104558
0.000163084
0.000152314
0.0313086
0.0813855
0.00014507
0.000171783
0.011085
0.0523194
0.000156076
0.000145255
0.000155421
0.000156259
0.000161931
0.000182836
0.000147433
0.0106861
0.000151544
0.000153334
0.0553679
0.000147357
0.000159398
0.0458292
0.000147555
0.000150841
0.0687329
0.000146142
0.000191925
0.000144556
0.0144249
0.000161632
0.000170378
0.000159135
0.000154421
0.000198501
0.000153141
0.0230605
0.000186948
0.000148594
0.0271141
0.000170878
0.000355592
0.0175613
0.000154873
0.000246459
0.000147561
0.00014555
0.0175212
0.000152216
0.000162274
0.000149562
0.000157595
0.0522266
0.0820909
0.000165546
0.014619
0.000164455
0.000151817
0.00014528
0.000149487
0.000169947
0.000170417
0.000146639
0.03794
0.00015713
0.000165384
0.000149774
0.065105
0.0501054
0.000147852
0.000145087
0.000187366
0.000149612
0.000146087
0.012235
0.00017176
0.000149396
0.000147736
0.000209228
0.00016779
0.000159458
0.00016362
0.000148285
0.0445049
0.000175229
0.000148778
0.000182257
0.0666133
0.000147577
0.0792679
0.000145586
0.000147572
0.000149368
0.00015869
0.0496378
0.000163909
0.0318807
0.000159397
0.0441099
0.000153529
0.000157326
0.0403313
0.000148183
0.0844165
0.000151486
0.0287706
0.039311
0.000148796
0.000459347
0.00015402
0.000154475
0.0672014
0.000166025
0.0434436
0.000146592
0.0639444
0.000147906
0.027169
0.000149081
0.000156049
0.00016166
0.000146619
0.000145331
0.000176715
0.0209178
0.0424672
0.000147354
0.000338907
0.000156933
0.000146658
0.000148677
0.000155957
0.000199005
0.0778873
0.000163014
0.000149804
0.00015609
0.0553296
0.000155928
0.000147467
0.000146631
0.000156585
0.000160128
0.0159972
0.000147287
0.000226959
0.000162873
0.0344016
0.0480536
0.00849693
0.000145056
0.000180529
0.000147361
0.00014947
0.000158554
0.0123871
0.000146688
0.000147289
0.000147288
0.0827177
0.000151232
0.000148727
0.000160053
0.000160169
0.0809053
0.0236003
0.000147426
0.000147975
0.079176
0.000148756
0.0650867
0.0440035
0.0531916
0.000174051
0.000178086
0.00614283
0.000161969
0.00014901
0.000146494
0.000148215
0.000149159
0.00014862
0.000149248
0.0742536
0.0101591
0.000149262
0.000167577
0.000146222
0.00015192
0.000164235
0.000148458
0.000153572
0.000151042
0.000192095
0.000370576
0.000172728
0.0478343
0.000162759
0.00861299
0.00017081
0.0377814
0.0708179
0.000175362
0.000426662
0.000229777
0.0176574
0.000147768
0.000147837
0.000147699
0.000156423
0.0294989
0.000146353
0.000149828
0.000181077
0.000146684
0.000162967
0.000162226
0.000149397
0.00367854
0.000148436
0.000147984
0.000211082
0.000145875
0.000192371
0.000189333
0.000148586
0.000151372
0.000146651
0.000165562
0.000146653
0.000152116
0.000183667
0.000147973
0.0745124
0.000148961
0.0776781
0.000154687
0.000199021
0.000147674
0.000186803
0.000163816
0.000149061
0.000148626
0.0779403
0.000147743
0.0175013
0.0198567
0.000150319
0.000148635
0.000148409
0.000145115
0.0129762
0.000147723
0.0813202
0.00932304
0.000165522
0.0389083
0.000147125
0.000147278
0.0605172
0.066729
0.000152703
0.000147934
0.000147674
0.000146428
0.000152242
0.000161616
0.000229503
0.000154014
0.0105355
0.000350181
0.00073983
0.000158148
0.000147933
0.0257482
0.0265304
0.000160173
0.000147695
0.000148632
0.0770168
0.000148035
0.0143912
0.000164953
0.000149657
0.000156044
0.000145941
0.000162747
0.000156069
0.000146701
0.000144587
0.00015195
0.0346783
0.000149435
0.000180832
0.0372045
0.000148534
0.000147298
0.000161609
0.00734751
0.000161586
0.0645496
0.00014968
0.000145056
0.000151391
0.0262354
0.000190309
0.00029084
0.000147767
0.000157157
0.000148089
0.0602491
0.000146071
0.00377204
0.000162275
0.014803
0.000149209
0.000147286
0.000178029
0.000147556
0.0296819
0.0001486
0.00039389
0.000149682
0.000146399
0.000152243
0.000212389
0.0226344
0.000155507
0.000149924
0.000149616
0.000148563
0.000146615
0.000149862
0.000187939
0.000149482
0.0457958
0.000152237
0.060918
0.000148039
0.000145245
0.0001781
0.0665534
0.0760216
0.000149944
0.0346821
0.000148167
0.00838533
0.00014977
0.000197747
0.000146981
0.0518357
0.000147192
0.000156012
0.000148235
0.000147415
0.000149724
0.057902
0.00569228
0.0397173
0.000158282
0.000156515
0.000153715
0.000147788
0.000145614
0.000146146
0.000151477
0.000191052
0.000148914
0.0155907
0.000183648
0.000147915
0.00014983
0.0077715
0.000197789
0.000151375
0.000153557
0.000158708
0.0229659
0.000177595
0.0839868
0.000180631
0.000186468
0.000173059
0.000147971
0.000147214
0.000181506
0.000161196
0.000147891
0.0268139
0.000156388
0.0178177
0.000149534
0.000183902
0.000158326
0.000173634
0.000155778
0.000148294
0.000109422
0.000148254
0.0143755
0.000148299
0.00014826
0.0609737
0.000162141
0.000157682
0.0698411
0.000147358
0.000168436
0.0284253
0.00014773
0.00016855
0.0328046
0.00015072
0.000147273
0.000148298
0.000153486
0.000153088
0.00018755
0.0157861
0.000152257
0.000155223
0.0318955
0.000145478
0.00807664
0.000154587
0.000151922
0.00025899
0.0107853
0.000146065
0.000147275
0.000152745
0.000146168
0.000145714
0.0846336
0.000149789
0.000157946
0.000145176
0.000163211
0.000146062
0.00016987
0.000212262
0.000151383
0.052871
0.000147415
0.000152421
0.00014757
0.0486624
0.000156569
0.00014691
0.00014791
0.000148975
0.000147256
0.000190326
0.0541573
0.0223559
0.044604
0.000149158
0.000149535
0.000188233
0.000148763
0.000146121
0.000251513
0.0482579
0.000152217
0.00014818
0.0300372
0.000149461
0.000149172
0.0423958
0.000187577
0.00160836
0.000151078
0.000147903
0.0413825
0.000148907
0.0001578
0.000149436
0.000160692
0.000148007
0.000177576
0.00019703
0.000171017
0.000148559
0.0459229
0.000150212
0.00014694
0.000149214
0.00014832
0.000147564
0.00014882
0.0439395
0.000149697
0.0361528
0.00014937
0.000158721
0.069809
0.000146479
0.000187848
0.00015115
0.000146415
0.000151688
0.000186362
0.000148169
0.000147358
0.000148746
0.00014799
0.000178227
0.000145805
0.000149592
0.000156475
0.000148505
0.000159161
0.0126485
0.0428596
0.00569511
0.0783607
0.00019024
0.00017347
0.0859245
0.0350655
0.000148521
0.000149137
0.000145438
0.0001712
0.0171913
0.000161464
0.000154501
0.00014525
0.000147599
0.000148975
0.000151987
0.0383956
0.0545058
0.00953249
0.000179618
0.000148579
0.000149534
0.000148956
0.0299687
0.000702455
0.000147681
0.000338931
0.00014567
0.000161606
0.000151948
0.000162906
0.000161043
0.00025971
0.000151167
0.000169586
0.000145933
0.000147159
0.000173888
0.000147426
0.000148291
0.000178358
0.000222206
0.000148758
0.000166707
0.000147428
0.000148003
0.000146529
0.000147824
0.0481614
0.000157891
0.000151117
0.000148783
0.0502749
0.000172465
0.000148401
0.000157641
0.000160717
0.0198804
0.000221222
0.0600449
0.000198841
0.000182405
0.000196374
0.000201363
0.000170491
0.0338831
0.000145073
0.000147333
0.000147468
0.000172576
0.000148895
0.0221172
0.000147364
0.000148798
0.0627544
0.00017307
0.000149512
0.000165718
0.000147547
0.000150777
0.000272357
0.000185247
0.000147612
0.000235162
0.000185284
0.0120897
0.0564079
0.000148
0.0334771
0.000147379
0.000167717
0.000146939
0.000146755
0.0407276
0.000162023
0.000152175
0.000147603
0.0439639
0.000154001
0.0402607
0.06169
0.000149736
0.000145879
0.000152831
0.0436829
0.000182174
0.00016995
0.000158913
0.000224214
0.000147987
0.000149948
0.000147784
0.000148104
0.000151032
0.000163155
0.0811418
0.000179166
0.000195319
0.0292428
0.000147867
0.0157382
0.000185144
0.000162363
0.00014922
0.000147919
0.000147359
0.000147261
0.000147444
0.00881899
0.00018307
0.0673091
0.00017912
0.00018778
0.000148995
0.0001887
0.0577694
0.000161325
0.000155009
0.000146874
0.0680786
0.0403321
0.000175982
0.000196765
0.000148074
0.0143804
0.00015065
0.000152748
0.000168837
0.00016918
0.000146022
0.000185558
0.0491187
0.000149838
0.0132669
0.0562926
0.0734146
0.00875655
0.000162682
0.000431249
0.00016393
0.000163078
0.0438027
0.000147385
0.000159224
0.000146983
0.000149645
0.0488213
0.000151937
0.0782477
0.00014589
0.000148725
0.0221787
0.000147661
0.068812
0.000150816
0.000190053
0.000151769
0.000149165
0.0799783
0.000154984
0.000183356
0.00014698
0.00014732
0.000226876
0.000176924
0.000148303
0.000156048
0.000262993
0.000182058
0.000349186
0.000149726
0.000147631
0.000144683
0.000147536
0.000156694
0.000164448
0.000145425
0.058882
0.000147163
0.0001482
0.000171257
0.0369032
0.00017798
0.000159321
0.000146225
0.000150821
0.000181136
0.000305068
0.000261083
0.0341253
0.000157098
0.000162998
0.000230838
0.000148286
0.000168608
0.050125
0.00014742
0.000210599
0.0271768
0.000273652
0.00029485
0.0682967
0.000186339
0.000148602
0.0109999
0.000155186
0.000171261
0.000181313
0.000147511
0.000187983
0.000147535
0.000148042
0.000174455
0.0116271
0.000159264
0.000147457
0.000164347
0.0313264
0.000166768
0.0176009
0.000147532
0.0337194
0.00014611
0.00017028
0.000184376
0.000147571
0.0266971
0.000147695
0.000146735
0.000148488
0.00014807
0.0729072
0.00018788
0.000149659
0.0647481
0.000148438
0.0166629
0.000146056
0.00799416
0.000161984
0.000184914
0.000152914
0.000147582
0.000145755
0.00014848
0.000222966
0.000175011
0.00014876
0.00017033
0.0171019
0.0741222
0.000171378
0.0373022
0.0696333
0.000147603
0.0261707
0.000146393
0.000227493
0.000147906
0.00014858
0.000148903
0.000176221
0.0340206
0.000227154
0.00018169
0.0466368
0.0001909
0.000184075
0.0464412
0.000147001
0.000172514
0.0154889
0.000144758
0.000174131
0.0515517
0.000210914
0.000147309
0.0452826
0.000165437
0.00884595
0.00673802
0.00015668
0.000181886
0.000154713
0.000147526
0.000145087
0.0266091
0.000196913
0.000180557
0.000195852
0.000147213
0.0205658
0.00015946
0.0001444
0.00014967
0.000178696
0.000153137
0.000149386
0.00014978
0.000258186
0.000147158
0.000163593
0.0208387
0.000145699
0.000147127
0.00318148
0.000146803
0.00016141
0.000158145
0.000178139
0.000319494
0.0001476
0.00018222
0.00015895
0.000169273
0.000157109
0.000154034
0.000168308
0.000215756
0.000170141
0.0399957
0.000167313
0.000148981
0.000223431
0.0297763
0.000185845
0.00014632
0.000148258
0.00017229
0.000152219
0.0797986
0.000201001
0.000158487
0.0275224
0.000152122
0.000201643
0.0155318
0.000147964
0.000148746
0.000148355
0.000147772
0.00925022
0.000240826
0.00015504
0.000201523
0.000244575
0.00016855
0.000148839
0.000153222
0.000170992
0.00014746
0.000146976
0.00490998
0.000150981
0.000502522
0.000146644
0.000147847
0.0001498
0.000168083
0.000161372
0.000166518
0.000148824
0.000151443
0.0771542
0.0207085
0.000355698
0.000102735
0.000153906
0.000150129
0.0816422
0.000183083
0.0120624
0.000162896
0.000147219
0.000172388
0.000155416
0.000149768
0.000146399
0.000167789
0.000187126
0.0481373
0.00018194
0.000260164
0.000149117
0.000150995
0.000148445
0.000199135
0.0187902
0.000223153
0.000410385
0.000147184
0.0512197
0.000151214
0.000147657
0.000152932
0.000148796
0.000223538
0.00014788
0.000188696
0.000145676
0.000380236
0.000157979
0.0140323
0.000150004
0.000148713
0.000154939
0.000146002
0.000187968
0.00044211
0.0814248
0.000172318
0.000145504
0.084711
0.000163838
0.000147621
0.000167849
0.000146984
0.000153029
0.000144633
0.000207925
0.000154002
0.000177969
0.000172447
0.00014669
0.0708638
0.000145502
0.000155333
0.000149526
0.000152693
0.000146077
0.000148048
0.000161039
0.000149868
0.000154437
0.000145839
0.000152677
0.000299077
0.00605259
0.000149741
0.000171683
0.0707203
0.00014725
0.000148961
0.000158628
0.000199025
0.000148106
0.000175531
0.0197962
0.000151053
0.0705767
0.0177546
0.000147756
0.000150238
0.000166783
0.000144242
0.00955128
0.0299857
0.0450862
0.000151423
0.000159079
0.000144766
0.000308835
0.000156325
0.000193038
0.000149585
0.000179237
0.0134141
0.000188401
0.000152594
0.00816353
0.0154487
0.0519092
0.000149588
0.00014662
0.0563031
0.000350748
0.000146576
0.000148574
0.000191542
0.000150147
0.000218887
0.000299006
0.000146121
0.00015023
0.0222843
0.000183753
0.000150722
0.000144326
0.000164875
0.000149327
0.000221008
0.000147143
0.000149002
0.00014793
0.000152252
0.000148337
0.000182939
0.00014706
0.00015467
0.0446064
0.0314181
0.0303607
0.000147042
0.00016897
0.000188088
0.000148563
0.000153222
0.000169402
0.000147186
0.000152318
0.05096
0.000164391
0.000147771
0.000148183
0.000147648
0.0143229
0.0689637
0.000146869
0.000149613
0.000147759
0.000180167
0.031631
0.000151813
0.000174003
0.000148854
0.000165517
0.000158551
0.000241571
0.0084029
0.00014947
0.000251835
0.0731596
0.00016338
0.000147698
0.000163613
0.000158996
0.000162348
0.000155564
0.000147793
0.000198336
0.000155533
0.00026607
0.000161811
0.000149
0.000149585
0.0350824
0.000148682
0.00016035
0.00021991
0.000161143
0.0879878
0.0105787
0.000147576
0.000179736
0.000185399
0.000183254
0.000162433
0.000152287
0.000148336
0.0202141
0.000161551
0.000147927
0.000167757
0.000181758
0.00031573
0.04747
0.000148311
0.000155799
0.000149042
0.000225712
0.000242672
0.000149184
0.000172452
0.000154517
0.000151313
0.000149189
0.0157682
0.000178122
0.00014777
0.000152701
0.0608287
0.000149717
0.000147929
0.000156527
0.000165258
0.000147904
0.000148988
0.000152422
0.00742507
0.000159798
0.000147692
0.00014677
0.000148429
0.000171451
0.000147921
0.000147547
0.00029043
0.084849
0.00014744
0.000149744
0.00017925
0.000161097
0.000169062
0.00014908
0.0196075
0.000147171
0.00015065
0.000159546
0.0806627
0.0220188
0.000191515
0.000170214
0.0562535
0.0209552
0.0222342
0.047872
0.00015346
0.000147739
0.000146105
0.000161469
0.000147248
0.000147766
0.000148923
0.000176556
0.000147463
0.0328956
0.000161811
0.0746741
0.000148309
0.0649199
0.000147999
0.00015707
0.000145878
0.000151065
0.000160804
0.000251367
0.000149181
0.000146834
0.000154202
0.0708472
0.000147238
0.000169018
0.000149226
0.000162836
0.0151043
0.000179086
0.000481772
0.000158487
0.000216397
0.000149067
0.0505649
0.0117562
0.000147018
0.075813
0.0263859
0.000147432
0.000144904
0.00016785
0.000160386
0.000167041
0.000145779
0.031445
0.000157967
0.000172537
0.00014575
0.000147527
0.000157279
0.0175639
0.0134718
0.0122066
0.000168528
0.0207277
0.000160695
0.0212233
0.00014839
0.000348142
0.000147664
0.000155982
0.000415395
0.000151107
0.000201923
0.000147387
0.00015348
0.0523569
0.0230217
0.000147595
0.000135738
0.000147873
0.0792311
0.000146541
0.0800991
0.0236825
0.000147806
0.0369988
0.000156776
0.0429899
0.000147961
0.000155412
0.000150621
0.000173039
0.000148013
0.000223932
0.000146496
0.064483
0.000186188
0.0744469
0.000148985
0.000145906
0.000270567
0.000151921
0.000157491
0.000147288
0.000166837
0.000153584
0.000147903
0.0188045
0.000148281
0.000147499
0.000149554
0.000148601
0.0452329
0.000162883
0.000147512
0.0420563
0.000486134
0.000193035
0.000147263
0.000178453
0.000455032
0.000147771
0.000156134
0.000149806
0.000148222
0.000147515
0.000148129
0.000156654
0.00015965
0.0575655
0.000185707
0.000181274
0.000149838
0.000147618
0.0321549
0.000166358
0.000147401
0.000149742
0.0230228
0.0710647
0.000147974
0.069346
0.000161063
0.000197207
0.000149843
0.0551014
0.000146124
0.000151671
0.000148555
0.00014704
0.000151528
0.0378101
0.000146113
0.0638476
0.000199057
0.000351044
0.0291905
0.000148568
0.000148181
0.0234013
0.000166751
0.00016811
0.000147906
0.000200294
0.000149249
0.0692299
0.0427222
0.038341
0.000148481
0.0674606
0.0505077
0.0618452
0.000192974
0.000153849
0.000179647
0.000147343
0.000265855
0.076489
0.000160372
0.047234
0.000146576
0.000148206
0.000167879
0.0316186
0.000162091
0.000262958
0.00014776
0.0633152
0.000169557
0.000163114
0.000146628
0.000164136
0.000178748
0.000148185
0.000168534
0.000167633
0.000232521
0.000145908
0.000147196
0.0559926
0.0437143
0.000152356
0.0336757
0.000160885
0.000147902
0.0625211
0.0281693
0.000148544
0.00024542
0.000145964
0.000148568
0.000173404
0.0529411
0.00014945
0.015085
0.000152065
0.000147617
0.0154284
0.000149265
0.000184262
0.000146841
0.000328485
0.000148124
0.0164995
0.000146881
0.00016331
0.000148153
0.000155436
0.000178469
0.0719997
0.000162233
0.0481479
0.000160021
0.060986
0.0794268
0.0424493
0.000146988
0.0252338
0.075455
0.0169877
0.000257192
0.000149559
0.00014685
0.000148394
6.55958e-05
0.000147742
0.000148857
0.000323584
0.00014957
0.0314637
0.000151244
0.0467457
0.000147788
0.000149492
0.000196844
0.000145217
0.000178463
0.000147133
0.000167815
0.000180736
0.0218658
0.000146555
0.000147377
0.0751535
0.0621467
0.0001496
0.000159555
0.000164454
0.000150336
0.00797024
0.0456099
0.0723802
0.000193513
0.0278872
0.00233612
0.000227384
0.000147131
0.000146406
0.000150675
0.000147459
0.000158615
0.0254029
0.0631165
0.000148478
0.000152685
0.000150963
0.00764165
0.0883662
0.000616905
0.000390224
0.000148409
0.000391713
0.0567297
0.000154741
0.0515124
0.000174296
0.000148964
0.0798446
0.0346556
0.00977665
0.000149321
0.000151171
0.000166963
0.000253561
0.000146977
0.000148287
0.00014958
0.000146679
0.000148199
0.0637624
0.000152401
0.000145757
0.0210316
0.000148589
0.0401903
0.000168109
0.0400141
0.000267235
0.000147701
0.0779511
0.000172026
0.000223166
0.000150372
0.000159464
0.000147994
0.000150769
0.0173906
0.000207218
0.000174065
0.000150143
0.000147397
0.000171923
0.000151849
0.000148327
0.000155224
0.000147475
0.0570389
0.000147839
0.0204103
0.0257823
0.00015132
0.000147722
0.0295748
0.000146972
0.000146983
0.00022386
0.000153479
0.000152472
0.000177069
0.000286485
0.0722702
0.000159964
0.000151492
0.000149421
0.0502082
0.0212782
0.000160684
0.000166729
0.000147216
0.000147785
0.000152865
0.000146748
0.000186294
0.000160794
0.000148156
0.00014938
0.00014852
0.000147421
0.000147931
0.000147313
0.000324307
0.0328013
0.0718269
0.000203638
0.00104685
0.000188859
0.000153946
0.0247827
0.027936
0.0020498
0.000148523
0.00014713
0.00045633
0.00379017
0.000203855
0.000197321
0.0837223
0.000148524
0.000147562
0.051024
0.000146769
0.00020765
0.000192609
0.000150474
0.0134067
0.0324696
0.000149715
0.0157529
0.0327153
0.000173416
0.00020666
0.000148906
0.00111192
0.000245114
0.0810379
0.000146816
0.000164615
0.0199247
0.000147267
0.000170065
0.000147561
0.000171989
0.000148551
0.0282978
0.000179507
0.000148231
0.000152148
0.000149483
0.0364643
0.00016922
0.000148716
0.000148984
0.0127865
0.000147496
0.000152148
0.0001758
0.000190728
0.000150003
0.00016627
0.000162095
0.000147571
0.000209984
0.000148083
0.000147792
0.000158122
0.000147744
0.000162484
0.0681667
0.000228638
0.000148016
0.0608232
0.0160818
0.000185621
0.0143567
0.000170528
0.000152795
0.0411102
0.000157554
0.000152345
0.000166594
0.000169573
0.000148289
0.000146689
0.000148624
0.000207737
0.0426303
0.072358
0.066992
0.000146602
0.000154195
0.000175514
0.000176644
0.0444769
0.00014882
0.0337181
0.000149611
0.0196746
0.000145768
0.044
0.000150228
0.0645477
0.0331081
0.000186458
0.0550769
0.000164252
0.000146718
0.000166992
0.0114905
0.0609488
0.000156564
0.00014948
0.00014753
0.000148575
0.000159632
0.000149905
0.000151938
0.000146688
0.000177909
0.000148053
0.0763329
0.000149445
0.0493586
0.000146006
0.000209719
0.0635797
0.000150751
0.00451853
0.000148013
0.000156788
0.000149106
0.000149271
0.000147572
0.000187841
0.000185068
0.000146897
0.000152474
0.00014797
0.0436278
0.000161648
0.000216616
0.000218865
0.00014804
0.000174698
0.000151081
0.000150671
0.000161682
0.000148611
0.000167114
0.070273
0.000148106
0.0674719
0.000155673
0.000147284
0.000146162
0.0255214
0.000147985
0.0736849
0.000177086
0.000149774
0.0159054
0.000189558
0.0395775
0.000156788
0.000153994
0.000148572
0.000174424
0.0209232
0.000148809
0.000166276
0.000148505
0.000196838
0.000371081
0.0213551
0.0680373
0.0447705
0.000157761
0.0197018
0.000149077
0.0512491
0.00023016
0.000156945
0.00022993
0.000183213
0.000145181
0.000162894
0.000148034
0.00014681
0.000152861
0.00014778
0.00149614
0.000266294
0.000212048
0.0112188
0.00014838
0.00153179
0.000148304
0.000147765
0.000169354
0.0586857
0.00014696
0.0357852
0.000168274
0.000199078
0.0216295
0.000149454
0.000168726
0.0335874
0.00016226
0.000148269
0.000189254
0.000147932
0.000148764
0.000149574
0.000270825
0.0602417
0.000155177
0.000148574
0.0397971
0.0706666
0.000149291
0.000149538
0.00492665
0.0877239
0.000149216
0.0001821
0.000182199
0.000147163
0.000162241
0.000145955
0.0172259
0.000147751
0.0855736
0.0707003
0.0673783
0.000154063
0.000157779
0.000147611
0.000146511
0.0176998
0.000146849
0.0298588
0.0559571
0.000173891
0.000146795
0.000146194
0.000205549
0.000186725
0.000162685
0.0921451
0.000181374
0.0170781
0.000151621
0.0536671
0.000316366
0.000157991
0.000188742
0.0768816
0.0155906
0.000148307
0.00597905
0.000146199
0.00261537
0.000232516
0.000227605
0.000145509
0.000166682
0.000148598
0.000248194
0.0370788
0.000151089
0.000150738
0.0830757
0.045227
0.00014807
0.0491609
0.0170367
0.0103558
0.000149389
0.075028
0.000148922
0.013634
0.000148643
0.000151036
0.000149316
0.000148052
0.0303215
0.00025245
0.000146339
0.0424445
0.0191977
0.000144639
0.000146158
0.000161624
0.000165788
0.000196244
0.000167447
0.0297792
0.0542503
0.0504254
0.0748314
0.000195748
0.00015087
0.000210405
0.000181484
0.0187692
0.00195401
0.0377339
0.000195597
0.000178384
0.000153731
0.0182406
0.000169163
0.000213631
0.000149166
0.000154527
0.0513284
0.000148523
0.000157773
0.000196397
0.000153142
0.0001699
0.000148087
0.000151573
0.0764356
0.000182544
0.000146012
0.000154423
0.0346397
0.000241137
0.000162728
0.00028622
0.0180556
0.000168178
0.000217829
0.0408559
0.000149978
0.0464268
0.000196907
0.0191219
0.000148884
0.000144263
0.0202695
0.0274342
0.0311835
0.0753617
0.035221
0.000161784
0.000185693
0.000152352
0.0348995
0.000148027
0.000148054
0.000172839
0.000179796
0.000177148
0.0294763
0.000150494
0.000483371
0.043895
0.000150182
0.000189641
0.000159339
0.000177936
0.000184388
0.000169082
0.0400508
0.0385075
0.0387807
0.000299689
0.000162351
0.000147915
0.000150715
0.000158768
0.000330942
0.0294137
0.0349015
0.0285712
0.000163412
0.000146684
0.000232639
0.000167965
0.0576704
0.000148534
0.0154078
0.000168914
0.0357531
0.000148506
0.00134276
0.00017468
0.000185523
0.00463323
0.000146855
0.0184463
0.0354423
0.000146688
0.000179808
0.0513284
0.000149981
0.000295466
0.000152532
0.000151484
0.000149701
0.0501377
0.0001697
0.000252952
0.00016048
0.0701265
0.000146667
0.00014451
0.000147157
0.000148291
0.000147559
0.0897955
0.000189246
0.0435218
0.000149352
0.000146887
0.0730008
0.000160156
0.0347723
0.000194061
0.000148658
0.00023334
0.000157092
0.000168855
0.0388063
0.000157832
0.02159
0.000206876
0.000155477
0.000145349
0.000178743
0.000144692
0.000200314
0.0234318
0.00022087