/*--------------------------------*- C++ -*----------------------------------*\
| =========                 |                                                 |
| \\      /  F ield         | OpenFOAM: The Open Source CFD Toolbox           |
|  \\    /   O peration     | Version:  v2012                                 |
|   \\  /    A nd           | Website:  www.openfoam.com                      |
|    \\/     M anipulation  |                                                 |
\*---------------------------------------------------------------------------*/
FoamFile
{
    version     2.0;
    format      ascii;
    class       volScalarField;
    location    "850";
    object      p;
}
// * * * * * * * * * * * * * * * * * * * * * * * * * * * * * * * * * * * * * //

dimensions      [0 2 -2 0 0 0 0];


internalField   nonuniform List<scalar> 
18355
(
-0.097431
-0.17481
0.00875069
-0.0100225
-0.0370368
-0.141969
0.00423873
-0.167231
0.0804148
-0.229647
-0.0164798
-0.410297
-0.218432
0.0328665
-0.0160546
0.0251149
-0.46666
-0.00885668
0.00792406
-0.165033
0.0436445
0.0416494
-0.345993
-0.0362051
-0.0463659
0.0181303
0.0251283
0.0760864
-0.220657
0.0219405
-0.0292197
-0.0436992
-0.00877534
-0.00571613
-0.144438
-0.102025
0.0649843
-0.218835
0.0746101
-0.0170035
0.0335126
0.0196944
0.00890127
-0.26328
-0.0114362
-0.229139
-0.154666
0.0821537
-0.139712
-0.00810305
-0.0145297
-0.00738138
0.0174074
-0.21222
0.0124625
0.00352701
-0.07985
-0.0157109
0.404234
-0.245747
-0.00760948
-0.151075
-0.0101505
-0.0218248
-0.409726
-0.0946381
-0.223207
0.151186
0.0248391
0.0401591
-0.171532
0.00626179
-0.252339
-0.00414097
-0.166774
0.00413615
-0.235897
-0.0445502
-0.0576812
-0.0072028
0.00465644
-0.324911
0.0415952
-0.0707744
0.0183543
-0.21409
-0.184997
-0.163466
-0.218249
-0.265263
-0.249578
-0.0115092
0.0143077
-0.0139371
-0.150642
-0.34749
-0.0181001
-0.0675595
-0.208761
-0.469624
-0.204623
-0.470652
-0.102193
-0.281951
-0.0361467
-0.196106
-0.415384
-0.16587
-0.102692
0.357158
0.0163364
0.0676989
0.0195979
0.0697245
-0.179371
0.00230303
0.476279
-0.22979
0.457248
-0.0982725
-0.233844
-0.367435
-0.04366
-0.171119
-0.0173878
-0.169431
-0.00789116
0.0136831
-0.398615
-0.0137723
-0.014516
-0.350975
-0.135602
-0.066179
0.0809458
0.0134397
-0.0126215
-0.0165275
0.0256508
-0.178725
-0.200553
-0.171308
0.0148516
0.0169384
0.449102
0.042124
0.107052
-0.19863
-0.0561497
-0.201154
-0.0370183
0.0425109
-0.139123
0.429819
-0.106618
0.00764869
-0.347681
0.465934
0.00748336
-0.159918
-0.00355187
-0.0433165
0.101464
-0.0674069
-0.127583
0.166916
-0.456581
-0.128382
-0.279291
-0.00663215
-0.122749
-0.350816
-0.0157224
-0.0163587
0.0222536
-0.158555
-0.0733199
0.012825
-0.392756
-0.457166
0.293451
-0.278511
-0.0812637
0.00157296
-0.156418
-0.161751
-0.302719
-0.235875
0.0802782
-0.465715
-0.07756
0.00840131
-0.0662159
-0.267838
0.0957144
0.0393644
-0.355506
-0.079859
-0.112844
-0.016155
-0.0475022
0.0739154
-0.463156
-0.309646
-0.398979
0.0103514
0.479223
-0.426897
-0.403281
-0.110515
-0.0121095
-0.0363337
-0.163324
0.0144732
-0.00626446
-0.315971
-0.131009
-0.165839
0.0196349
-0.0548571
-0.331395
0.0233653
-0.0644884
-0.0127681
-0.46086
0.0308998
-0.437891
-0.166999
0.371102
-0.0110448
0.01716
-0.0561057
-0.0243321
-0.439676
-0.00449254
0.0171573
0.0130526
-0.204612
-0.232512
-0.398803
-0.0998211
-0.281032
-0.0293305
-0.00551013
0.0340984
-0.162706
-0.38146
0.513597
-0.103245
-0.00534059
-0.0469284
0.168865
-0.0817351
-0.407154
0.0252359
-0.453965
-0.126443
-0.16174
0.0148433
-0.00151958
-0.0901689
-0.182791
-0.466664
-0.139251
-0.00229823
-0.00596011
0.0161877
-0.285919
-0.111637
0.348393
0.0315667
-0.226708
-0.240521
-0.193884
-0.0300789
-0.361983
-0.00775044
0.0213685
-0.339199
-0.00442329
0.00429595
-0.198279
0.00918173
-0.143131
-0.080515
0.0913312
-0.00411925
-0.127551
-0.414199
-0.044483
-0.00966658
0.0317396
-0.189872
-0.203349
0.0159287
0.00552111
-0.1337
-0.113678
-0.099371
0.237561
0.0211507
-0.177691
0.0537323
0.00552363
0.248643
-0.130046
-0.104628
-0.192073
-0.0137695
0.30634
-0.0343257
0.00923218
-0.373397
0.0135797
-0.287255
0.0352135
0.0142225
-0.0121716
-0.282636
-0.200568
-0.423893
-0.00747923
0.097898
-0.265928
-0.0228652
-0.238015
-0.052074
0.0428053
-0.236467
-0.0135721
0.12173
0.0114456
0.0819478
0.00436543
-0.0999664
-0.42749
0.0212964
-0.470846
-0.116117
0.0252304
-0.149947
-0.152068
-0.30543
-0.193896
-0.266587
0.0249281
-0.00999567
-0.373983
0.275116
0.0154343
-0.00106356
-0.105583
-0.153437
0.21674
-0.370958
0.0209178
-0.0539663
0.507028
0.0154459
-0.00409486
-0.26488
-0.109533
-0.0560708
-0.198716
0.0123169
0.161153
-0.340303
-0.403449
-0.00963393
0.0314715
0.0241898
-0.0154964
0.137156
-0.0161338
-0.116745
0.0238214
-0.0269029
0.0210387
0.0788612
-0.0258046
0.00196306
-0.0242086
-0.02423
0.0144788
0.356343
-0.109124
-0.0140925
-0.291778
0.054848
-0.111758
-0.0989847
-0.196447
0.0356162
-0.310289
0.0631191
0.00248353
0.017408
-0.0118658
-0.200062
-0.0536039
-0.0113989
-0.135513
-0.112188
0.0150443
-0.0227711
-0.442127
0.038994
-0.00727804
0.290754
0.00828921
0.516139
-0.46764
-0.261221
0.104033
-0.0353182
-0.413546
0.00624133
0.0159137
0.278391
0.00985169
-0.0155185
-0.465274
-0.00463542
-0.428432
-0.0898433
-0.0810369
-0.468821
0.05456
0.0154847
-0.223486
-0.138143
-0.119359
-0.291421
0.0238457
0.00195773
0.0436081
-0.158146
0.0430424
0.00787924
0.00813152
0.0162058
0.166301
0.503407
0.0183784
0.0428199
0.0166237
-0.097382
-0.247622
-0.20277
-0.4518
-0.340356
0.212537
0.144788
-0.262199
-0.0324319
-0.00144947
0.0316071
-0.0141773
0.154337
0.0214539
-0.0112647
-0.469604
0.174429
-0.14492
-0.262488
0.22139
-0.158628
-0.00129429
-0.0250829
0.0206996
0.00469419
0.00803396
0.0168359
0.0215678
-0.174338
-0.00879634
-0.0134878
-0.361758
-0.250297
-0.00106879
-0.0441858
0.0536505
-0.371072
0.022213
-0.0194346
-0.294891
0.0713788
-0.236818
-0.0516648
-0.0154192
-0.471616
-0.253349
-0.00835353
-0.407793
-0.179981
-0.458785
-0.0147454
-0.0190612
-0.021369
-0.180824
0.0548658
-0.226943
-0.157107
-0.290794
-0.367981
-0.0121355
-0.0873773
-0.162641
-0.348397
-0.169876
0.0396265
0.0269844
0.00149715
-0.308195
-0.471022
-0.258049
0.0293069
0.0250737
0.0220363
0.0466571
0.0213533
-0.21865
0.00319271
-0.177669
0.0329303
0.01585
-0.00127188
0.145502
-0.0250624
-0.243595
0.00988547
-0.177797
-0.241207
-0.0713842
0.0136625
0.0756016
-0.0647993
0.0114707
-0.10439
-0.112001
-0.0713223
-0.248
-0.00176313
-0.00838042
0.0309771
0.0212061
-0.121336
-0.055029
-0.154725
-0.00105121
-0.0365144
-0.0840164
-0.0133221
0.160975
0.0592603
-0.226428
0.0886925
-0.199108
-0.0394391
-0.280675
0.0864072
0.0813901
-0.13008
-0.0862652
-0.403756
-0.068975
-0.0522019
-0.0146694
0.0235779
-0.122205
-0.143803
0.03183
-0.0982367
-0.17697
-0.115801
-6.58448e-05
-0.420549
-0.357248
-0.0442525
0.0241242
0.162345
-0.259863
-0.0880013
0.0114381
0.274975
-0.24019
-0.145848
0.137551
0.0160185
-0.0683984
-0.19876
-0.184785
-0.241015
-0.37953
0.149042
-0.191633
-0.0799504
0.00370545
-0.0450862
0.0212905
0.438552
0.37989
-0.160868
0.34514
-0.407076
-0.103939
0.266672
0.0254665
-0.165015
-0.425763
-0.0168558
0.367568
-0.227353
-0.379446
0.0143098
-0.0115193
-0.0671338
-0.0653754
-0.0630655
-0.202866
0.0130325
-0.246155
0.0168964
0.0428919
-0.308119
0.00116364
-0.0236026
-0.165099
0.0158155
-0.0352743
-0.385455
-0.00521171
-0.1752
-0.013546
-0.123915
-0.0693818
-0.0984403
0.0370183
-0.0482207
-0.180166
0.0973579
-0.2072
-0.111257
-0.0296162
-0.350348
-0.0982858
0.0579519
-0.454416
-0.354388
-0.246057
0.0168357
-0.0125145
-0.174926
0.0776325
-0.107113
0.0113342
-0.0817521
-0.339181
-0.319957
-0.120715
-0.283152
0.156868
-0.00529421
-0.0116763
0.0112469
-0.139455
-0.114159
-0.0207866
-0.397342
0.00955507
-0.10973
-0.0112105
-0.406923
-0.440771
0.0228792
-0.0167629
-0.13361
0.0111094
-0.00876266
-0.0975674
0.364424
0.0497555
0.0227882
-0.107139
-0.139155
-0.0573923
0.268137
0.00138141
-0.165359
-0.133395
0.0327345
0.413896
-0.352752
0.00512161
-0.321833
-0.0103176
0.0154121
0.0551383
0.179669
-0.447996
-0.113918
-0.18378
-0.0134883
-0.177086
-0.374244
-0.0808319
-0.406641
0.0316696
-0.424376
-0.0449633
-0.185446
-0.172117
0.0167134
0.354711
-0.020293
0.0897277
-0.409389
0.299977
-0.414394
-0.00291825
-0.20219
0.029682
-0.205421
-0.0345828
0.00661001
-0.0653578
-0.0038924
-0.0098648
-0.118337
-0.284176
-0.376822
0.00210496
0.497527
-0.0791242
-0.00326872
0.0221428
0.0673694
-0.199806
-0.412974
-0.109213
-0.00579822
-0.0298544
-0.174858
0.00995678
0.0145079
-0.00403463
-0.0322449
-0.0958594
-0.248874
0.00134471
-0.261929
0.0876357
-0.351378
-0.455349
-0.225148
-0.0115944
-0.0814954
0.00812415
-0.010398
-0.0803229
-0.231442
-0.00220004
-0.014105
-0.00878372
-0.418425
0.0555721
-0.0301594
-0.0466975
-0.0837766
-0.299103
-0.414831
0.00663149
0.0320886
-0.300351
0.0310973
-0.402263
-0.177149
-0.434642
0.236107
0.0798378
-0.18793
-0.0674064
0.019338
-0.00496307
0.0118147
0.0475054
0.0153936
0.0490636
-0.389918
-0.145754
-0.0295061
0.280595
-0.00475295
-0.00704976
-0.109134
0.0128066
0.0441588
-0.0361095
0.458349
0.510555
-0.178004
-0.413289
0.149241
-0.22422
-0.120207
-0.16621
-0.395134
-0.136045
-0.200687
-0.119417
-0.456383
-0.0275731
0.0241586
0.0043436
-0.0666864
-0.135072
-0.00632865
0.020138
-0.199828
-0.00235338
-0.0195266
-0.0161272
0.00585784
-0.177359
-0.0295348
0.032748
-0.109964
-0.0103551
-0.273811
0.392189
0.0130913
-0.039982
-0.00305626
0.0390188
-0.0023694
-0.0406927
-0.366567
0.0326036
-0.36565
-0.0296292
-0.368255
-0.052274
-0.101956
0.0155431
-0.0851001
-0.104177
0.019393
0.0121113
-0.372431
0.0240278
-0.444322
-0.437766
0.0328782
0.00423114
0.0122524
-0.0141308
-0.0957175
0.0221159
-0.367759
-0.155458
-0.112643
-0.466449
-0.00546019
0.00933533
-0.421694
-0.397909
0.0961899
0.0132283
0.0197702
-0.0056854
-0.0410095
0.129182
0.383645
-0.0429604
-0.237953
0.500138
-0.131217
0.150418
-0.0267077
-0.378182
-0.125184
-0.0491221
0.0151845
0.0404394
-0.391951
0.0216846
-0.120054
0.140538
0.00737679
0.0633188
-0.0113208
-0.107019
-0.0645136
-0.00219065
-0.0128995
-0.0397962
-0.301872
0.00701322
-0.0712862
-0.229505
0.0399152
0.00912285
0.164288
-0.250454
-0.0972146
-0.384422
0.0623138
-0.014151
0.080301
-0.163389
0.421045
0.498862
-0.00501939
0.142834
0.0100947
-0.381686
-0.0173931
-0.181673
0.133746
-0.0970647
0.00669552
0.000399699
0.0959813
0.0173075
-0.304337
-0.0318889
0.366401
0.00736565
-0.00545243
0.0846815
-0.245197
-0.465747
-0.0228366
-0.0408499
0.0558438
-0.0300378
-0.020977
0.0200358
-0.227058
0.00761818
-0.172624
-0.000485347
-0.403758
-0.0289965
-0.013962
-0.35602
-0.392617
-0.32672
-0.0054278
-0.188052
-0.0295564
-0.212722
0.054813
-0.274243
-0.00753409
-0.458368
0.00696808
-0.0619658
0.0249677
0.0100904
0.0114581
-0.178706
-0.270486
-0.174918
0.153715
-0.0644868
-0.0438701
0.00500233
-0.00930816
-0.00516439
0.019771
-0.268147
-0.0337443
-0.33827
-0.232159
0.0127778
0.0608763
-0.212203
-0.125721
0.054103
-0.0459069
0.0590907
-0.463835
-0.121491
-0.419909
-0.076682
-0.116413
0.244068
0.0324463
0.00236628
-0.199106
0.0886155
-0.0281374
-0.306578
0.0746865
-0.469264
0.00632874
0.362691
0.174577
-0.17944
0.0270972
0.0243017
-0.364822
-0.0305108
-0.332238
0.041513
0.0245786
-0.408046
-0.0989837
-0.0584113
-0.408615
-0.0015414
0.337747
-0.197694
0.0228131
-0.073572
-0.200554
0.0172701
0.00224047
-0.0305218
-0.0587211
-0.0593956
-0.110531
-0.12429
-0.041962
0.0151089
-0.194641
-0.0105809
-0.470405
-0.0509991
-0.040091
-0.315736
-0.471114
-0.00556628
0.00842483
-0.0572814
-0.0135972
-0.00974198
-0.375286
0.0120147
-0.0564408
-0.01201
0.263846
-0.00800214
0.360398
0.371537
-0.0406811
-0.235648
0.00245384
-0.0516077
0.00232901
-0.261449
0.0142363
-0.00133092
0.0147718
-0.0202067
0.00627445
-0.200569
-0.44592
-0.415708
-0.465895
0.0112029
0.0551804
-0.0859895
0.0409876
-0.0171918
0.156948
-0.32829
-0.0016755
-0.0298469
-0.377355
0.00592308
0.0109307
-0.174057
-0.137602
-0.134241
0.0781557
-0.0258919
-0.427469
0.0490102
0.165204
0.00717882
-0.0734945
0.0343865
-0.196941
-0.268902
-0.0952715
0.0117483
-0.462859
0.0658813
-0.00110374
0.0018004
0.0423167
0.0176809
-0.0283124
-0.223018
-0.00434565
-0.311232
-0.0323671
-0.0818612
-0.395375
-0.00332491
-0.184267
0.0449678
-0.00344947
0.0778441
-0.125715
0.0188007
-0.0133415
0.0100132
0.0324895
-0.1157
-0.0094861
0.0428333
0.0917894
0.0119148
-0.0168219
-0.44236
-0.177022
-0.182697
-0.373007
-0.194462
-0.179556
-0.384368
-0.157854
-0.0109361
0.0464497
-0.0109539
0.364548
-0.154819
-0.0140594
-0.0225737
-0.0136515
0.00314387
0.00627775
-0.0536493
-0.443297
-0.464312
-0.468615
-0.167663
0.0125167
0.00537432
0.0105086
-0.413663
-0.379305
-0.0271902
0.514685
-0.0100467
-0.103664
-0.0424874
-0.0582184
-0.100377
-0.308416
0.0467986
0.360468
-0.0104312
-0.000109286
-0.186575
0.00969811
0.0034017
-0.118749
-0.196405
0.0103091
0.112588
0.00892284
0.033709
-0.00370817
0.0261215
-0.279806
-0.0125936
0.0147895
0.0478965
-0.237663
0.381732
0.0232556
0.159769
-0.0988201
-0.469551
-0.223997
-0.430107
-0.280052
-0.0724182
-0.174308
-0.202283
-0.126361
-0.436888
-0.0120135
0.00876357
0.0149649
0.381168
0.034173
-0.402182
-0.0236996
0.0151398
-0.405526
-0.164706
0.0515088
0.285334
0.00516146
0.0702835
-0.340497
-0.0771701
0.0156781
-0.349328
-0.250466
-0.379753
-0.177103
0.0278167
-0.405673
0.0062865
-0.0818655
-0.000420608
-0.0016526
-0.181998
0.0932526
-0.0207747
0.00782474
-0.428866
-0.0167259
-0.325258
-0.346589
0.0125913
-0.0161946
0.0974198
-0.223912
-0.153378
-0.101433
0.0487919
-0.198172
0.0337471
-0.0386884
-0.0277461
-0.0290391
0.0747982
0.243041
-0.386953
-0.173801
-0.174184
-0.450762
0.00205639
-0.0998243
-0.247678
0.212398
0.00685337
0.025751
0.0094536
0.000257183
0.00123331
-0.402653
-0.231972
-0.223086
-0.174079
-0.192983
0.0171793
-0.201729
-0.446916
-0.011251
-0.0669459
-0.00182485
-0.45697
-0.178271
-0.197527
-0.159694
0.036668
-0.209636
-0.0356755
0.0964754
-0.105868
-0.0703897
-0.0178173
-0.126679
-0.437982
0.00968765
-0.389684
-0.462101
-0.387349
-0.403918
-0.0939583
-0.227659
0.145232
0.253256
-0.257759
-0.0140532
0.0261596
-0.0236534
0.00583434
-0.459914
-0.0388438
-0.374799
-0.00917444
-0.0111365
-0.157566
0.0138842
-0.455215
-0.036453
0.407993
-0.0526915
0.0219138
-0.348937
-0.051274
-0.124576
-0.000293352
-0.0229936
-0.15561
0.122917
0.0215327
0.0886403
-0.350466
-0.0829363
0.509803
0.0153511
0.0152767
-0.0135216
0.0175021
-0.0660066
0.0648713
-0.0108143
-0.438966
0.00622675
0.0187189
-0.167981
-0.317859
-0.108563
-0.0791874
-0.00479705
-0.0362075
-0.196769
0.501901
-0.249235
-0.413665
-0.0617832
-0.0958901
-0.107871
-0.0294136
-0.141582
-0.220688
0.00109644
-0.260278
-0.202729
-0.208996
-0.244857
-0.404497
-0.142602
0.0391995
-0.274305
0.0229707
-0.0958271
-0.211221
-0.00475003
-0.228542
-0.00474785
0.0337301
-0.139923
-0.46807
0.0598441
0.00255564
-0.102258
-0.351683
0.293213
-0.14304
0.0171686
-0.195147
-0.0182105
-0.122505
-0.236892
0.00822409
-0.454403
-0.0271519
-0.00196107
0.040256
-0.00742182
-0.384676
-0.128488
0.0155725
-0.384511
0.0230363
-0.465485
-0.0165517
-0.248036
0.203229
-0.172144
0.0974102
0.00607016
-0.0098161
0.00243816
-0.292943
-0.153896
0.00444758
-0.114263
-0.200838
-0.395208
-0.090687
-0.165961
-0.351164
0.00682638
-0.401794
-0.00420807
-0.104018
0.00199428
0.0450834
-0.0333632
-0.191296
-0.358972
-0.159549
-0.227673
-0.4469
0.378025
-0.133379
-0.222165
0.00128553
-0.173757
-0.456965
-0.0132387
-0.138357
-0.333479
-0.256192
0.00946501
-0.173842
0.126883
-0.242625
-0.360458
-0.0769468
-0.141834
-0.0666189
-0.00565014
-0.011722
-0.463335
-0.26946
0.194867
-0.262732
0.00141964
-0.355514
0.0490418
-0.0115865
0.0520155
-0.164056
-0.060033
0.0200779
0.010081
-0.343349
0.00233889
-0.0636778
-0.405231
-0.00868458
0.00202196
-0.359155
-0.00204299
0.134088
-0.0583175
-0.192228
0.492559
0.0134627
-0.0778583
-0.0798705
-0.0862965
-0.0790263
-0.0512179
0.32446
0.426615
-0.154819
-0.383893
0.327927
-0.0190247
-0.229866
-0.161649
-0.130654
-0.00415486
0.0197018
0.370817
-0.0380782
-0.326636
0.416328
-0.0889045
-0.154848
-0.0494197
-0.272642
-0.128857
0.00995301
0.0058114
0.0124122
0.00206924
-0.29819
-0.299439
-0.0678595
-0.272396
-0.108158
-0.144218
-0.0307429
-0.0572785
-0.165319
0.00018777
0.00100678
-0.230874
-0.043994
0.306365
-0.00246332
0.00528358
0.0196805
-0.0674526
-0.00634175
-0.128721
-0.0175657
-0.0510115
-0.383472
-0.127859
0.490589
-0.383544
0.107027
-0.0422394
-0.376833
-0.212876
-0.107005
0.255088
0.00700153
-0.166647
0.0189146
-0.0402441
-0.00384255
0.29013
-0.115405
-0.354825
-0.205529
-0.239887
-0.0117227
-0.00545559
-0.0309692
-0.135804
-0.41995
-0.159004
0.516951
0.00164028
-0.414004
-0.0448207
0.00432946
-0.0275435
0.03568
-0.360959
0.0288082
-0.12723
-0.00898312
0.496138
0.153352
-0.215749
-0.0417619
-0.0338081
-0.050145
-0.00924259
-0.18987
0.50844
-0.364973
-0.164903
-0.0123916
-0.364583
0.222065
0.0190554
-0.0732042
-0.0191848
-0.0594261
-0.0130812
-0.356961
-0.0490023
-0.192722
-0.160925
-0.0106306
-0.457443
-0.0119927
-0.0681706
0.0605404
-0.0530592
-0.00554645
-0.00918435
-0.0967812
0.0106912
-0.0461604
-0.009532
-0.0418283
0.511171
-0.121453
0.0560869
-0.0933215
-0.409776
0.000231477
0.0107897
-0.0214754
-0.132029
-0.00855226
-0.167297
-0.36068
0.0172888
-0.23309
-0.22205
0.0237683
-0.0177951
-0.0734862
-0.0135032
-0.232435
-0.129779
-0.272204
-0.0500941
-0.0814216
-0.0162266
0.504044
0.0703233
0.392426
0.00591044
-0.198164
-0.462815
-0.0953569
-0.0552656
-0.356803
-0.462017
-0.356606
0.0578553
-0.0107391
-0.454075
0.48999
-0.00323089
0.0240026
0.415752
-0.0196619
-0.262525
0.485736
-0.00722566
-0.0195033
-0.36192
-0.128429
-0.0436023
-0.0116303
-0.108816
0.0579378
-0.28815
0.00621061
-0.0326398
0.008772
-0.0390597
0.0160252
-0.233147
-0.0195498
0.0159657
-0.171223
-0.461986
-0.31913
-0.00514788
-0.0594927
-0.0917598
0.0408478
0.0390484
-0.103813
-5.65735e-05
0.0130722
-0.329347
0.0484662
0.0226037
0.0342715
-0.0271151
-0.470449
-0.226017
-0.0192863
-0.0391835
0.00465085
-0.083911
-0.420688
0.0767512
-0.185955
0.0165596
0.0496544
-0.0636147
-0.280892
-0.464073
-0.0121018
-0.346039
-0.383998
-0.0754633
-0.00860458
-0.0804179
-0.0916869
0.029673
-0.0168256
-0.0279989
-0.0991893
0.0602519
0.490977
0.0451671
0.0189987
-0.0370336
-0.155642
0.0278338
-0.0112482
-0.22385
0.157538
-0.378544
-0.232211
-0.0262692
0.398641
-0.346453
0.43686
0.0549777
0.00885541
0.0217276
-0.364435
0.201465
-0.0288191
-0.0423931
-0.155499
0.461188
-0.454786
0.012187
0.108736
0.0448546
-0.182609
-0.351971
0.00501755
-0.174855
0.0414728
0.0596209
0.00509186
-0.436455
-0.192981
0.0236694
-0.0566921
-0.336828
0.00638034
0.0058766
-0.0778802
0.293978
0.0252249
0.00644685
-0.0545866
-0.38374
-0.0937273
-0.0244747
-0.00124441
-0.0299378
0.371289
0.0139972
0.0102482
-0.193365
-0.379328
-0.00183904
0.0131408
-0.10319
-0.0736724
0.0125999
-0.033737
-0.172677
-0.00016665
0.0110198
-0.0935672
-0.391093
-0.39851
-0.046136
-0.111656
-0.43637
-0.179041
-0.394691
-0.276676
-0.0294048
0.0215225
-0.0134621
0.0717438
0.00852437
0.0247177
-0.0112829
0.00613666
0.00184668
-0.270115
-0.104276
-0.255525
-0.0304265
-0.297325
0.0274253
-0.0591574
-0.00995869
-0.00702764
0.128797
-0.329365
-0.0114313
-0.000324747
-0.0472464
-0.259047
0.00312114
-0.108476
0.0217917
-0.0785042
-0.147899
0.210735
0.504681
-0.0156463
-0.258974
-0.0293599
-0.275579
-0.455467
-0.000768762
-0.343268
-0.153666
0.00937944
-0.0160975
-0.139441
-0.0963503
-0.134584
-0.00807186
-0.412483
0.167295
-0.17584
-0.0109709
0.00169787
-0.0634335
-0.4703
-0.355148
-0.470451
-0.135052
-0.463334
0.0864209
-0.408642
-0.0316329
0.454478
0.00336255
-0.0254931
-0.353577
0.0624659
-0.285508
0.00199077
-0.0147669
-0.452565
-0.368813
0.00199004
-0.37799
0.00560651
-0.341983
-0.0038349
-0.293356
-0.464709
-0.028099
-0.181861
-0.0575728
-0.331602
0.0313083
-0.018432
0.0324509
-0.166295
0.00648238
-0.320676
-0.00343689
-0.427978
-0.185285
-0.253456
0.00260476
-0.0104264
-0.138311
-0.0503887
0.159338
0.00708321
0.311861
-0.0324075
0.0244565
-0.137063
0.0207368
0.00989039
-0.0364945
0.0147168
-0.169568
-0.0775081
0.00156905
-0.320855
-0.26889
0.420026
-0.0235277
-0.214407
0.4804
-0.0252428
-0.0764461
-0.0384812
0.0194164
0.00287239
0.0352269
-0.0592548
-0.0780993
-0.427104
-0.030676
-0.0639995
0.010494
0.0111701
-0.148264
-0.0741861
0.00907468
-0.0398059
-0.214002
-0.390232
0.0269012
-0.230362
0.0397003
0.455541
0.0204165
-0.438551
-0.00539406
-0.0403604
0.0080184
-0.000637059
0.0617055
-0.328577
-0.00757829
-0.345845
-0.262524
-0.0872553
-0.316042
0.00901216
0.0361107
-0.156918
-0.0183365
0.338853
0.0261346
-0.0837094
-0.00929098
-0.395779
-0.325577
-0.186158
0.00204681
-0.409022
-0.463972
-0.191837
0.370172
0.108104
-0.21795
-0.00057163
-0.269484
-0.30886
-0.0752861
-0.166047
-0.00300446
0.0256572
-0.0572202
-0.340531
-0.0182337
-0.134539
0.00328231
-0.386946
-0.106392
0.142666
-0.00307845
-0.0985051
0.388825
0.0259537
-0.110275
-0.132159
-0.150172
-0.0199589
0.00276656
-0.282487
-0.393437
0.0066368
-0.462628
0.0703802
0.0135076
-0.450841
-0.195636
0.0220858
-0.341743
-0.00968154
0.00160061
-0.124144
-0.32693
0.000523913
-0.162539
-0.0215447
0.0182558
-0.470482
-0.0371713
-0.12376
-0.00135656
0.474635
0.0222767
-0.470449
-0.0115573
0.239652
-0.0292057
0.104359
0.373346
-0.391337
0.226043
-0.375768
-0.0768261
-0.191006
-0.38201
-0.169322
0.00144022
-0.158405
-0.420628
-0.155144
-0.210746
0.0412868
-1.79597e-05
-0.0315508
-0.370638
0.0226874
-0.0347177
-0.19767
0.00610319
-0.330501
-0.0185263
-0.2374
0.0116927
0.00586866
-0.163402
-0.0114187
-0.113679
0.00179771
-0.0261007
-0.222633
-0.153692
-0.00307363
0.00985474
-0.388543
-0.463419
0.0140275
-0.0816971
-0.114936
-0.0178156
-0.469913
-0.386365
-0.397065
-0.257641
-0.462549
-0.153775
-0.14712
-0.000291531
-0.00412807
0.0151362
0.00404896
0.0645678
-0.427428
-0.443888
0.00847413
-0.0438611
-0.0444921
-0.350505
-0.377805
-0.337478
-0.369626
0.0275958
-0.372497
-0.429222
0.0966485
-0.229422
-0.127262
-0.0319765
-0.322578
-0.192313
-0.227279
0.0201214
-0.0191224
-0.133983
-0.306744
-0.0048231
0.0195812
0.00539731
-0.00285715
0.026024
-0.436017
0.0143593
-0.00835954
-0.420262
0.00931996
-0.386383
-0.135349
-0.393201
-0.215513
0.00302377
-0.393758
0.368389
0.460749
0.0273699
-0.0808782
0.0098385
0.072994
-0.464198
-0.156746
-0.190014
-0.0428561
0.0041036
0.360871
-0.0482072
0.0239078
0.113608
0.0093068
-0.321997
0.00375003
-0.163602
-0.39624
0.0688756
0.00364725
-0.371444
0.00116548
-0.0234886
0.196911
-0.0114614
-0.0379039
-0.207958
0.452391
-0.401661
-0.0170107
0.0760226
-0.0043162
-0.387183
-0.156258
-0.011391
-0.0766023
0.00626023
-0.0279318
-0.040416
-0.0192871
-0.135591
-0.0756578
0.0229158
-0.0317367
0.0214058
0.00781817
-0.0288757
0.00975491
0.397392
-0.198758
-0.381779
-0.305775
-0.159383
0.320296
-0.034709
-0.460458
-0.198544
-0.160285
0.0242609
-0.0232727
0.4556
-0.382291
-0.266834
-0.292217
-0.379976
0.00840284
0.0183741
-0.166558
-0.00168023
-0.127598
-0.251739
-0.0430563
-0.451309
-0.144089
0.00580775
-0.473893
-0.227535
0.264777
0.454456
0.0356902
-0.125264
-0.335058
-0.291857
-0.00152132
0.281976
-0.124183
-0.000335133
-0.104223
-0.0250625
-0.156263
0.01566
-0.428424
-0.357821
0.0346113
-0.0518787
0.052759
-0.437725
-0.137665
0.0264421
0.043283
-0.152613
0.0159316
-0.0522347
-0.18058
0.445029
-0.00239479
0.317303
0.24669
0.0108315
-0.0949134
-0.0103015
0.0239294
-0.0636673
0.0154039
-0.0572782
-0.344684
-0.186703
0.0273924
-0.458637
-0.119538
-0.107687
-0.464662
-0.101618
-0.0532757
-0.399826
-0.0618682
0.0914453
-0.127974
-0.100331
-0.0297341
-0.00987373
0.00822544
-0.2751
-0.195196
-0.406027
-0.215023
-0.00273939
0.104774
-0.198796
-0.0910124
-0.399992
0.00486771
-0.161352
-0.00526223
-0.442664
-0.0194676
-0.299249
0.0684428
-0.45874
-0.195582
-0.197673
-0.373416
0.124816
-0.00197642
0.291094
-0.470017
-0.447671
-0.0783691
0.0595872
0.0020754
0.0316034
-0.0947575
0.0206781
0.0164838
-0.00227069
-0.157227
0.0265084
-0.317947
0.00531339
-0.265496
-0.0137137
-0.157065
-0.455788
0.0466382
-0.216868
0.0102182
-0.0623012
-0.0251908
0.0215986
0.0140506
0.407717
-0.209932
-0.00707811
0.0935324
0.0320157
-0.169546
-0.0986073
-0.315135
-0.232113
0.035964
-0.135251
-0.0409277
0.0278504
0.221389
0.0231428
-0.107658
-0.446954
0.0124511
-0.297984
0.0565979
0.00787272
-0.00977801
-0.386624
0.0283263
-0.391274
-0.0298671
0.019485
-0.115776
-0.229661
-0.320557
-0.0632343
0.0203382
0.0136034
-0.181717
-0.125701
0.0168141
-0.121461
0.0439889
-0.0775594
0.463986
-0.168858
-0.429225
-0.450446
-0.0149086
-0.142014
-0.0239975
-0.27967
-0.34108
-0.0797493
-0.326026
-0.132979
-0.014817
0.0789998
0.0269013
-0.0123685
0.038245
0.0246953
-0.351161
0.053309
-0.0983575
-0.351003
0.00640505
-0.371903
0.0163104
0.0150657
-0.139164
-0.38257
-0.019654
-0.420931
0.294978
-0.105238
-0.470491
-0.0383187
-0.144636
-0.224456
0.0640706
-0.0173879
0.446271
0.0308162
0.00597833
0.00592781
0.304761
-0.458336
-0.0604226
0.0230791
-0.166361
-0.452909
0.0571068
0.0142888
-0.35555
-0.367065
0.00119443
0.325592
-0.234761
0.00686809
-0.0601363
-0.0100843
-0.154683
0.00504387
-0.414172
-0.423871
-0.415373
-0.0411367
0.164575
-0.0262747
-0.00370037
-0.138132
0.000103869
-0.28494
-0.175144
-0.186543
-0.00156462
-0.0148865
0.454912
-0.126514
0.249234
-0.388213
-0.221181
-0.302157
-0.0493496
-0.416046
0.281301
-0.0669506
0.405687
-0.398837
-0.217771
0.0265769
-0.472275
-0.00829277
-0.212088
-0.263922
0.306362
-0.00969537
-0.1297
0.0134861
-0.262998
-0.168211
-0.0401958
0.012961
-0.410924
-0.18494
0.00541186
-0.338402
-0.163228
-0.306949
0.0124521
-0.397937
0.016629
-0.137254
0.0147087
-0.0427489
0.00520971
0.0311251
-0.251439
-0.108787
-0.0128948
-0.177123
-0.466312
-0.0112116
-0.0144168
0.0540155
0.104384
-0.0917047
-0.132312
-0.454394
-0.223921
-0.415261
-0.407443
-0.104542
0.0598186
-0.1252
-0.231884
-0.470147
-0.14929
-0.183005
-0.132414
-0.101451
-0.0419361
-0.46639
-0.00789954
-0.34888
0.0220931
0.00228155
-0.40824
0.0123095
-0.0218253
0.360351
-0.0406904
-0.134581
0.0221082
-0.0461199
-0.264715
0.345664
-0.018574
0.00615272
-0.403852
-0.10335
-0.0592341
0.507382
-0.167854
-0.140054
-0.198836
-0.436264
0.0656962
-0.36241
-0.119073
-0.179909
0.0225619
-0.013387
-0.116753
-0.464602
-0.444547
-0.420143
-0.154787
0.008395
-0.181568
0.0341381
-0.449205
-0.0281067
0.00642592
-0.126257
-0.197733
-0.203208
-0.424967
0.0469549
0.39814
-0.302376
-0.0352698
-0.183423
-0.0110054
0.13992
-0.247387
-0.13084
-0.273336
-0.422778
-0.183385
0.499519
-0.106603
0.0301695
-0.0439935
-0.0768408
-0.344938
-0.405794
-0.421757
-0.365095
0.122385
-0.00467441
-0.260218
-0.131141
-0.395687
0.0113586
-0.427824
-0.14355
-0.395501
0.00809496
-0.147854
-0.181116
-0.108214
-0.347336
-0.019648
-0.212715
-0.163949
-0.00245447
-0.213899
-0.364195
-0.0416549
-0.281608
-0.0431849
-0.0508701
0.0129005
-0.168446
-0.147749
0.288902
-0.0773118
-0.439916
-0.0130347
-0.0116138
0.00681838
0.00410475
0.00295734
-0.387832
0.362314
-0.336239
0.0215187
-0.0121891
-0.425836
-0.0786554
-0.162189
-0.130203
-0.0065993
0.476677
0.144602
-0.0984687
-0.388478
-0.0652692
-0.463402
0.459948
0.115702
-0.011462
0.346734
-0.0124226
0.375794
-0.404846
-0.200577
-0.00636657
-0.411321
0.435528
0.0205287
-0.187458
0.0228359
-0.403496
-0.417165
0.0316658
0.00728194
0.102789
-0.127334
-0.00889087
-0.021582
0.0355507
-0.418733
0.103838
0.484332
0.460392
-0.390446
-0.284319
-0.227871
0.00662708
-0.162838
-0.450953
0.100418
0.000198552
-0.0551228
0.019452
-0.470112
-0.190292
-0.395801
0.00789027
-0.0800828
0.516915
-0.460944
-0.161401
0.0201402
0.341455
-0.125241
0.000919055
0.0207944
0.476502
-0.168194
-0.0725709
-0.0985432
0.435854
-0.43187
-0.0949133
0.0721812
0.439533
-0.138503
-0.00549674
0.0229889
0.00775771
-0.000311436
-0.197625
0.271222
0.0704846
-0.467921
-0.145584
-0.0157086
-0.22197
0.330596
0.124343
-0.0723018
-0.0162292
-0.00739737
0.510095
0.393134
-0.0900928
-0.0020531
0.38722
-0.331261
-0.24781
-0.101254
-0.056126
-0.0149524
0.0215615
0.00518067
-0.0936405
-0.426643
-0.140895
0.0283034
0.357301
0.023645
-0.386403
0.0575776
-0.167084
0.0708444
0.0842549
-0.0824368
-0.323029
0.00117171
-0.0113844
-0.00356099
-0.164888
-0.0528461
-0.358167
-0.124688
-0.0787198
0.00071653
-0.0865818
-0.0496279
0.0224699
-0.42162
-0.0116803
-0.159999
-0.450316
-0.162491
-0.0712219
0.0348712
0.0117444
0.0225407
7.05389e-05
-0.152104
-0.377297
-0.451589
-0.440027
0.470626
0.368902
0.0734425
-0.297357
-0.131332
-0.0918683
0.0321826
-0.0221326
-0.0999194
-0.0340125
-0.018456
-0.165904
-0.253259
-0.31809
-0.354649
-0.21513
0.00652794
0.0144978
-0.0421848
-0.0793572
-0.134834
0.0147903
-0.133281
0.452522
0.486184
-0.125523
0.0421413
0.431972
-0.084364
-0.347861
0.046339
-0.00875189
0.0143004
0.0307412
0.0113359
-0.177128
-0.271769
-0.162432
-0.174853
-0.171208
-0.00685723
-0.100844
0.0677268
0.0047201
-0.0780102
-0.418065
-0.217912
-0.00637843
0.418726
-0.00130901
-0.160814
0.0676645
-0.0798922
0.0219243
-0.1789
-0.130075
-0.201532
-0.468891
-0.384849
-0.390118
-0.459061
-0.393409
-0.28081
-0.0142513
-0.381883
-0.00921075
-0.455565
0.0199236
0.39968
0.00657176
-0.195256
0.0306098
-0.00505238
0.0348237
-0.00037548
0.501113
-0.0226816
-0.00305201
-0.0129098
-0.00918547
-0.00436906
-0.0480847
0.0229535
-0.373754
-0.143188
0.0102442
-0.114805
0.025591
-0.00163019
-0.189051
-0.308074
0.0110119
-0.0920525
-0.0090312
-0.0108787
-0.396679
-0.0315926
0.106717
-0.228686
-0.246241
-0.451749
-0.400988
-0.351793
-0.465022
-0.46142
-0.334412
-0.37866
-0.0381098
-0.356387
0.0192281
0.0107674
-0.194584
-0.0647906
0.512924
-0.030098
-0.123571
-0.1087
0.439486
-0.188321
-0.125545
-0.0519511
0.00151348
-0.116038
0.0232197
-0.00649309
0.438612
-0.0333488
-0.393374
-0.400596
-0.22404
-0.0271725
-0.203197
0.0521756
-0.464212
0.44303
-0.00212075
-0.371405
-0.312677
-0.144645
-0.11187
-0.100946
-0.141432
-0.170453
-0.0578031
-0.463013
-0.156981
0.132388
-0.382365
0.0328692
-0.238971
0.0263195
-0.0110316
-0.0280392
0.410323
-0.260098
0.378082
-0.280644
0.0171814
0.20888
0.501618
-0.00683919
-0.377856
-0.0138389
0.506833
-0.158099
-0.381853
-0.237951
-0.341458
-0.0034846
-0.0369037
0.0196027
-0.452825
-0.121752
-0.042232
0.00769638
-0.0131921
0.000255586
-0.0230225
-0.0403196