/*--------------------------------*- C++ -*----------------------------------*\
| =========                 |                                                 |
| \\      /  F ield         | OpenFOAM: The Open Source CFD Toolbox           |
|  \\    /   O peration     | Version:  v2012                                 |
|   \\  /    A nd           | Website:  www.openfoam.com                      |
|    \\/     M anipulation  |                                                 |
\*---------------------------------------------------------------------------*/
FoamFile
{
    version     2.0;
    format      ascii;
    class       surfaceScalarField;
    location    "650";
    object      phi;
}
// * * * * * * * * * * * * * * * * * * * * * * * * * * * * * * * * * * * * * //

dimensions      [0 3 -1 0 0 0 0];
oriented        oriented;


internalField   nonuniform List<scalar> 
14516
(
0.360041
-0.232909
-0.127177
-0.71662
0.465348
0.251266
0.204337
0.155655
0.431517
0.0121982
-0.443718
-0.0311834
0.275197
-0.244048
0.269058
-0.524451
0.255407
0.388175
-0.644525
0.256259
0.150736
0.4098
-0.560456
0.38325
-0.381149
-0.00205093
0.234556
-0.265789
0.259473
0.0106352
-0.270127
0.250571
-0.35964
0.109067
-0.166222
0.597853
0.618271
-0.375804
-0.242427
0.613076
-0.613342
-0.404574
0.65887
-0.254271
0.156946
-0.53632
0.379488
0.563261
-0.406299
0.128546
-0.316599
0.188016
0.213737
0.367692
-0.229708
-0.137986
0.402359
-0.18695
-0.215347
0.294394
-0.4937
0.199307
-0.305169
-0.301768
0.324278
-0.554118
0.229856
0.457922
-0.623979
0.407534
-0.664212
0.256693
0.678262
-0.439728
-0.238437
0.102567
-0.248843
0.146248
-0.0395668
0.42288
0.385721
-0.0283654
-0.357374
0.561318
-0.266925
-0.352885
0.698605
-0.345744
-0.592354
0.599552
-0.00717524
-0.284466
0.114004
0.17045
0.182518
-0.335065
0.152539
0.567664
-0.179476
0.24714
0.155282
0.211695
0.333687
-0.545425
0.684535
-0.359191
-0.325214
-0.0390188
0.424721
0.0803746
0.532426
-0.561517
0.0376339
0.523985
0.674527
-0.366841
-0.307694
0.0337367
-0.595094
0.495703
-0.181906
-0.691974
0.327926
0.364064
0.508424
-0.335747
-0.172638
-0.405607
0.417757
0.292298
-0.178303
0.307193
-0.166214
-0.14099
-0.205199
0.455768
-0.250526
-0.198401
-0.196814
0.395239
0.417246
-0.157513
-0.259748
-0.071479
-0.252213
0.323655
0.313535
0.195016
0.114543
-0.252136
0.137581
0.300353
-0.438503
0.138092
-0.280157
0.491936
-0.667227
0.442393
0.224898
-0.257467
0.461166
-0.203652
0.462955
-0.0573241
-0.405615
-0.574164
0.0947514
0.479391
-0.283208
0.237081
-0.674455
0.339539
0.334925
-0.0670119
0.52997
-0.350881
-0.131118
0.482029
0.372791
-0.122227
0.322737
-0.0632751
0.265737
0.151491
-0.495233
0.60484
-0.109604
0.288159
-0.534914
0.246946
0.275772
0.311553
-0.587316
0.389135
-0.0968711
0.501665
-0.201365
-0.582941
0.301228
0.281786
-0.510789
0.605187
-0.0944071
0.237998
-0.600855
0.362948
0.232799
-0.580365
0.347657
-0.359137
-0.315315
0.253576
-0.607602
0.354055
-0.486519
0.495606
-0.00908902
-0.756752
0.349912
0.406846
0.396709
-0.435727
-0.699934
0.343778
0.356144
-0.359363
0.592279
-0.533408
0.2977
0.235794
-0.170335
-0.329117
0.499458
-0.283281
0.618741
-0.33547
-0.240387
-0.476238
-0.354315
0.267015
0.08729
-0.19078
-0.344484
0.535288
0.377261
0.184057
-0.427757
-0.370388
-0.386358
0.222809
-0.294291
0.0732327
-0.55976
-0.530582
0.339806
0.72393
-0.289196
-0.434719
0.401922
0.322021
-0.286178
0.610865
-0.324676
-0.199116
0.534402
-0.335289
0.338594
-0.537708
0.138472
-0.649278
-0.0598195
0.456553
0.024083
-0.353161
0.434242
-0.640913
0.206691
0.268652
-0.473848
-0.709295
0.494476
0.214848
-0.539414
0.0441863
-0.367243
0.264745
0.102524
0.23736
0.220831
-0.288145
0.179609
0.108479
0.141296
0.165888
-0.269347
-0.644529
0.364844
0.279663
0.251399
0.137697
0.584712
-0.331107
-0.194734
0.571978
-0.521217
-0.188052
0.042573
0.440982
-0.483548
0.283164
0.231778
-0.514975
0.436903
-0.167826
-0.454941
0.244044
0.21091
0.129224
0.238467
0.0946638
-0.247431
0.152748
-0.322495
-0.37745
0.585142
-0.347068
0.097767
-0.427784
0.330143
-0.702373
0.484306
0.21807
-0.232099
0.390361
-0.292472
0.592108
-0.417472
-0.174565
0.349918
-0.389453
-0.524818
0.243411
0.281467
-0.00142463
-0.572679
0.440672
0.233851
0.522818
-0.285649
0.389799
0.228384
-0.618166
0.485185
-0.201999
0.291653
-0.511719
0.220107
0.681648
-0.301861
-0.379814
-0.701187
0.29122
0.410015
0.280158
-0.655918
-0.611227
0.361252
0.249999
-0.624463
0.298349
0.326102
-0.38534
-0.315795
-0.172395
0.516884
-0.344488
-0.302073
-0.0522512
-0.320574
0.258007
0.0625411
-0.353022
-0.349348
-0.0876961
-0.232914
0.417666
-0.183163
-0.504622
0.332228
-0.374438
0.417016
0.679052
-0.322816
-0.356231
0.504413
-0.21271
-0.753802
0.36849
0.287526
0.394102
-0.350259
0.501074
0.308465
0.369883
-0.614641
0.404599
0.210074
-0.291946
0.0985026
0.193427
0.240405
-0.584661
0.344239
0.180078
-0.409828
-0.348181
-0.16158
-0.164244
0.325825
-0.22613
0.633684
-0.604679
0.286972
0.317749
0.0989505
-0.472358
0.373355
-0.392336
0.00598642
0.386345
-0.353704
0.594083
-0.405131
0.0127722
-0.488823
0.263381
0.225464
-0.163414
-0.227059
0.214026
0.363122
-0.577154
0.582767
-0.257379
-0.32533
-0.0757135
0.254162
-0.178441
0.0450384
0.0466076
-0.0916539
-0.163662
-0.151629
0.315314
-0.351853
-0.187398
0.261651
-0.498556
0.236851
-0.249767
0.538093
0.272497
-0.157973
0.348066
0.234757
-0.500775
0.27884
0.221896
-0.388337
-0.226274
-0.21608
-0.272725
-0.423136
0.483284
-0.0599604
0.32198
0.186486
-0.242715
-0.124503
-0.417846
-0.266261
0.190567
0.138964
-0.307088
0.168092
0.556643
-0.32759
-0.229025
0.243305
0.174303
0.537184
-0.147374
-0.00517805
0.355142
-0.280424
0.363106
-0.0827056
-0.280352
0.0280848
0.20393
0.268781
-0.472623
0.466513
-0.223083
-0.473823
0.61229
0.362605
-0.643583
0.332815
0.310813
0.380405
-0.440153
-0.240858
0.36806
-0.127135
0.343866
-0.152893
-0.190988
0.565126
-0.243081
-0.499863
0.164135
0.20834
-0.406686
0.302221
-0.163266
0.435356
0.243702
0.577818
-0.351562
-0.226176
0.501013
-0.239403
0.0708044
-0.544629
0.312565
0.0778757
-0.390461
-0.346002
0.166374
0.179548
0.513157
-0.326126
-0.18697
-0.19155
-0.58813
0.16523
0.683573
-0.333664
-0.181937
-0.311531
-0.212906
0.219995
0.320499
-0.540473
-0.212098
-0.133975
-0.277794
0.131053
0.146733
-0.677153
0.371989
-0.619587
0.317814
-0.317661
0.154034
0.609097
-0.160223
-0.448877
0.114492
-0.252314
0.137812
-0.080758
0.393319
-0.280615
-0.228506
0.509109
-0.209839
-0.328843
0.538644
0.321184
-0.0983783
-0.645718
0.408077
0.23763
-0.0702325
0.450733
-0.62577
0.314959
0.310846
-0.554882
0.324349
0.230507
0.265482
-0.618357
-0.310024
0.543
-0.232968
0.189689
0.327189
0.641319
-0.23143
0.279308
0.225145
-0.340884
-0.148058
-0.444276
0.415568
-0.233738
-0.181823
0.128056
-0.293128
0.165078
0.321764
-0.180478
-0.260112
0.121963
0.13814
-0.302233
-0.211419
0.513521
-0.423968
0.21518
0.208848
0.218209
0.280818
-0.499049
0.289195
-0.161132
0.530317
-0.336775
-0.193552
-0.66899
0.326095
0.342955
-0.568409
0.580007
-0.0115922
-0.519832
0.159533
0.162222
0.426053
0.176992
-0.603008
-0.338494
0.176909
-0.479264
-0.0364588
0.515726
-0.697162
0.217908
0.174346
0.169506
0.251959
0.111129
-0.379354
0.484287
-0.104985
-0.254951
-0.413992
0.599682
-0.380955
-0.218741
0.1425
-0.327396
0.184888
0.508039
-0.295383
-0.212579
0.551634
-0.539523
-0.0121012
0.546335
0.00530631
-0.223725
-0.370125
0.127434
0.622749
-0.354488
-0.26803
-0.165458
0.496296
-0.216963
-0.594945
0.195071
0.399881
0.554174
0.0116148
-0.565829
0.24588
0.438773
0.34586
0.167345
0.22183
0.193743
0.00735025
-0.248093
0.240743
-0.674175
0.435061
0.239067
0.250246
0.216289
0.242056
-0.3673
-0.277248
-0.465108
0.208305
0.256727
0.200837
0.274555
0.343908
-0.618465
0.363581
0.228592
-0.38944
0.19556
0.193903
0.234657
-0.227297
0.333599
0.244869
-0.578253
0.367702
-0.236838
-0.130937
-0.284622
0.448872
-0.370971
-0.0778542
0.194813
-0.528808
0.334057
-0.103121
0.537383
0.381415
-0.626549
0.245145
0.611293
-0.489797
-0.121443
0.306289
-0.163794
0.368232
-0.306249
-0.0619691
-0.274051
-0.22218
0.496241
0.431678
0.0172265
0.63827
-0.362743
-0.275274
0.48306
0.128285
0.343883
0.0243655
0.229539
-0.405651
0.176124
0.165729
0.210488
-0.376171
0.265025
-0.548316
0.361074
-0.280474
-0.245179
0.525699
0.162639
0.168833
-0.331465
0.064089
-0.304904
-0.281461
-0.254982
0.536503
-0.308904
0.0762631
-0.279118
0.202852
0.606356
-0.294798
0.646587
-0.575777
0.109508
-0.0644787
-0.386958
0.191535
0.195454
-0.31438
-0.12418
0.370566
-0.119225
-0.383345
-0.191835
0.57519
0.172429
0.178491
0.158397
0.274406
-0.560529
0.376092
-0.446231
0.317867
-0.196705
-0.121175
-0.313857
-0.267741
0.581701
0.271762
0.252341
-0.388314
0.383095
0.596183
-0.569918
-0.0262509
0.102335
-0.541977
0.143378
0.173903
-0.317328
0.533288
-0.185114
0.241299
-0.522739
0.200162
-0.382683
-0.263046
0.29198
0.366914
0.610132
0.273044
0.0944029
-0.36738
0.327556
-0.163737
0.219178
-0.4213
0.202129
-0.394803
0.0484447
0.346355
-0.175774
-0.239575
0.415355
0.228185
-0.238455
0.395327
-0.156805
-0.412794
0.216028
-0.247635
-0.147158
0.394804
-0.405567
0.0149117
-0.214001
0.199063
0.37738
-0.111661
0.137291
0.13519
0.208775
-0.193897
-0.170087
0.443185
-0.465706
-0.0890375
0.55476
0.360995
-0.0587768
-0.370372
-0.296802
-0.579811
0.0114032
-0.280173
0.545221
0.0746441
0.534451
0.559297
-0.364418
-0.0881623
0.46434
0.264985
-0.188735
-0.017442
-0.377354
0.243402
-0.128924
-0.251148
-0.0839241
-0.515976
0.269476
0.246536
-0.305301
0.532736
-0.227282
0.33128
0.123951
-0.279799
0.155847
-0.280235
-0.243939
-0.179974
0.165277
-0.399192
0.234007
-0.517226
0.210623
0.528154
-0.194231
-0.377771
0.185629
0.192193
0.572384
-0.596693
0.0243369
0.162315
-0.521393
-0.372218
-0.247459
-0.44277
0.198896
-0.391933
0.153477
0.399411
-0.0586193
-0.340737
-0.0858639
0.0986815
0.587301
-0.168525
-0.418789
0.0818698
-0.118818
-0.158983
0.257861
0.318875
-0.576721
-0.685306
0.455838
0.229494
-0.0421999
-0.346141
-0.12107
-0.182809
0.303876
0.195135
0.392153
-0.285085
-0.340652
0.356701
-0.146696
-0.210001
0.316329
-0.183383
-0.132979
0.383281
0.216387
-0.0849245
-0.203269
0.156002
-0.484916
-0.195559
0.61533
-0.232066
0.168699
-0.344425
0.175697
0.39081
0.142582
0.270138
-0.146178
-0.240877
-0.317445
-0.045223
-0.448478
-0.527568
0.244574
0.283015
-0.170242
-0.25889
-0.268659
-0.60535
0.325179
-0.355276
-0.353865
-0.257339
-0.160726
-0.147617
0.30832
0.375776
0.247186
0.33931
-0.173539
0.151637
0.180967
0.224066
-0.404931
0.235351
0.294957
-0.191365
-0.199351
0.603968
0.359352
-0.105192
0.548966
-0.0383383
-0.510668
0.0567915
0.282569
-0.394563
0.633965
-0.239388
-0.494744
0.157705
0.337032
0.641443
-0.356789
-0.137944
-0.362552
-0.242085
-0.595629
0.306307
0.289361
0.472582
-0.20078
0.561402
0.553644
0.0201682
-0.573845
0.352709
0.0467589
0.20914
0.292473
0.327601
0.229068
0.145993
0.231367
-0.614441
-0.276013
0.375012
-0.186185
0.187282
0.129012
0.259648
-0.288008
-0.228469
0.344184
-0.115734
0.271987
0.293203
0.144295
0.0289843
-0.37181
0.342784
0.407782
-0.0991439
-0.308637
0.193046
0.166304
0.334007
-0.165341
0.538579
-0.200848
-0.274887
0.47573
0.399304
0.239192
-0.2564
-0.258287
0.514642
0.0980901
0.145299
-0.280612
0.512349
0.392047
0.226693
-0.215775
-0.285041
0.171968
0.362428
-0.109905
0.552316
-0.325873
0.275734
0.0500549
0.10839
0.16176
0.298696
0.202277
-0.343271
0.51522
0.068715
0.237567
0.623294
-0.260175
0.0869739
0.512604
0.6415
-0.316264
-0.325216
-0.215526
0.112621
0.295181
0.215348
-0.499686
0.243238
-0.62677
0.388581
0.238177
-0.408077
0.502843
-0.494209
0.222714
0.271505
-0.108694
-0.4125
-0.316272
-0.357948
-0.337192
0.36607
-0.217109
-0.311637
0.36268
-0.450826
-0.17725
0.297198
-0.35455
-0.323601
0.495329
0.0770965
0.522071
-0.0959828
-0.186721
0.372418
-0.258851
0.303187
-0.246374
-0.00231516
-0.53479
0.537001
-0.292634
-0.287256
0.580172
0.197275
-0.524858
-0.254185
0.209556
-0.511863
-0.268436
0.301612
-0.142099
0.322318
-0.594411
0.272098
-0.289469
-0.0120135
0.250073
-0.238069
0.608826
-0.318958
-0.289848
-0.263543
-0.201643
-0.338846
-0.261916
-0.0941081
0.358879
0.222266
0.340744
-0.0788189
-0.261932
-0.582673
-0.253494
-0.301413
-0.181737
0.312782
-0.219897
0.498727
0.0667758
0.182405
-0.249195
0.346663
0.212698
-0.164765
0.341143
0.267703
0.00136682
-0.102407
0.465095
0.355422
-0.559751
0.204364
0.24886
-0.483404
0.234614
0.124941
0.138632
-0.0999111
0.398191
-0.298266
-0.210076
0.565523
-0.0698617
0.426331
-0.356361
-0.425044
0.325114
0.605022
-0.130361
0.227775
-0.239806
0.476905
-0.235461
0.484401
-0.278115
-0.221382
0.49953
-0.229474
-0.19123
0.420796
0.621271
-0.346719
-0.457162
0.38747
-0.260681
0.366123
-0.105442
-0.118931
0.256202
-0.596072
0.215097
0.270791
0.183429
-0.454152
-0.298571
0.177493
-0.193611
-0.268348
0.46205
0.600878
-0.368794
-0.232104
-0.34569
0.098038
0.268247
-0.186081
-0.218549
0.181988
0.101984
0.115088
-0.413571
-0.181368
-0.100804
-0.353518
0.105432
-0.20277
0.502966
-0.300171
-0.554877
0.533832
-0.525706
-0.0105364
-0.366364
0.595307
-0.228954
-0.0648543
-0.400813
0.5108
-0.213649
-0.643
0.283886
0.329574
-0.236031
-0.0935523
0.221953
-0.155189
0.260205
0.0805321
0.168465
0.165506
-0.182755
-0.430767
0.106901
0.148213
-0.255122
-0.146857
0.417735
0.291039
-0.626792
0.335777
0.178481
0.21796
-0.396426
0.259773
-0.566293
0.306548
-0.627571
0.274455
0.353139
-0.331424
-0.238035
0.569462
0.470424
0.0837302
0.330416
-0.533111
0.0829352
-0.211626
0.128678
0.624544
-0.280378
-0.344159
0.375944
0.241571
-0.617481
-0.152531
-0.15254
0.305089
-0.365762
0.254084
0.111731
-0.157852
-0.189207
-0.345566
-0.276688
0.498575
-0.221784
0.262336
-0.455817
-0.206951
0.469425
-0.206858
-0.109774
0.0416977
0.274891
-0.316598
0.29779
-0.498634
0.00829332
0.172516
-0.180832
-0.363951
-0.382235
-0.258661
0.270614
-0.2019
0.200656
0.156046
0.269432
0.191593
-0.425165
0.233576
-0.230077
-0.285865
-0.255281
-0.0982375
0.0313007
0.245036
-0.102072
-0.263646
-0.364099
-0.20192
0.566007
0.245896
0.215669
-0.385733
0.0722745
0.216925
-0.189443
0.418999
0.331365
-0.236912
-0.31226
0.470004
-0.157756
-0.497555
0.282552
0.215071
0.149843
-0.31059
0.153094
0.130355
-0.283448
-0.37498
-0.269618
-0.485305
0.208708
-0.594789
0.220988
0.373904
-0.317942
0.557805
-0.239902
-0.555007
0.236987
0.289514
0.562882
-0.405368
-0.157492
-0.334187
-0.272696
-0.501817
0.223028
0.339855
-0.603895
0.329866
0.274006
0.225941
-0.408486
0.182614
-0.27626
0.612187
-0.335905
0.111606
0.218838
0.507902
0.00750368
-0.515454
-0.218148
0.405738
-0.179741
0.217357
-0.18602
0.256384
-0.149497
-0.152801
0.534176
0.300403
-0.522085
0.221736
-0.271754
-0.213462
0.219739
0.334394
-0.554144
-0.377533
0.626924
-0.249384
0.49268
-0.170343
-0.625012
0.24748
-0.299186
0.540585
-0.26019
-0.237306
0.368481
0.25607
-0.214556
-0.122477
0.33701
-0.330982
-0.3543
-0.454133
0.534415
0.0238119
0.393105
-0.416918
0.539923
-0.280137
0.211662
-0.522324
0.310712
0.24676
0.368556
-0.115493
-0.154648
0.0376028
-0.451171
-0.187868
-0.209792
0.397666
0.205764
-0.122842
-0.300134
-0.253972
0.00591511
0.549802
-0.555813
0.211469
0.430049
-0.206139
-0.046004
-0.26797
-0.326721
0.236612
-0.138537
0.0463572
-0.545079
0.202244
-0.451661
0.622137
-0.170475
0.229189
-0.417044
-0.451149
0.393424
0.0577392
-0.246111
-0.264009
0.510122
-0.546262
0.279163
0.267089
0.21586
-0.610436
-0.326125
0.583988
-0.259958
0.113854
0.186408
-0.300272
-0.491583
0.25411
-0.129177
-0.427307
-0.121898
-0.217475
-0.316849
-0.287079
-0.517009
0.291109
0.225916
-0.401672
0.584158
-0.182462
0.162116
0.139476
-0.228064
0.528497
-0.0352242
-0.216357
0.251595
-0.176179
0.391854
-0.275609
0.393712
0.529268
0.0767028
-0.478349
-0.139326
-0.125068
0.26439
-0.52698
0.227874
-0.43922
0.121103
0.109158
0.0778329
-0.187
0.235733
0.297156
0.362059
0.238803
-0.34292
-0.203353
-0.220148
0.556203
-0.336028
0.618702
-0.256659
0.235608
0.342745
-0.578366
-0.580503
0.293779
0.286728
0.624558
-0.388275
-0.236226
-0.334536
-0.0412085
0.375766
-0.393149
0.022188
-0.296947
0.50857
-0.61463
0.311048
0.303615
-0.54598
0.0154165
0.530634
-0.593187
0.255762
0.337506
-0.64718
0.366816
0.303742
0.275411
0.358568
0.297513
-0.475678
0.178174
-0.138333
0.310795
-0.259293
0.63678
-0.377486
-0.410272
0.180884
-0.289359
0.0608873
0.427129
-0.248634
-0.178504
0.408691
-0.197763
-0.278492
0.489117
-0.441396
0.106885
0.242183
-0.132606
-0.109588
-0.371754
0.419677
-0.382071
0.61631
-0.294576
-0.321717
-0.261448
0.472012
-0.210551
-0.317458
0.0418397
-0.572823
0.510314
0.0625321
-0.320502
0.563449
-0.242936
0.202555
0.325573
-0.528103
-0.237115
0.565074
0.315488
0.300839
0.405885
0.218725
0.0618048
0.0196126
-0.486771
0.132436
0.150931
-0.303433
-0.303077
0.0890544
-0.26848
0.119515
0.148899
-0.113486
-0.155059
-0.618683
0.272095
0.346591
0.532996
-0.330418
-0.380023
-0.0636142
0.263716
-0.474054
0.181566
-0.0138516
-0.369619
0.383578
-0.611313
0.24248
0.60443
-0.294729
0.550667
-0.255955
-0.506458
-0.280538
-0.236455
-0.496157
0.247596
0.248597
-0.193888
-0.259667
0.453539
0.150664
0.445532
0.477233
-0.531634
0.0544831
-0.054803
-0.39688
-0.184725
-0.589027
0.262784
0.326227
0.548459
-0.328703
-0.624835
0.330467
0.294463
0.272003
0.267934
-0.284707
-0.481272
-0.252344
0.00347971
-0.173477
0.470985
-0.0666386
0.561142
0.27011
-0.590605
-0.254615
-0.307981
0.562675
-0.18612
0.169802
-0.309756
0.139967
-0.167114
-0.151053
0.318181
-0.183008
0.111414
0.367566
-0.478769
0.126123
0.127978
0.269037
-0.515142
0.238026
-0.551597
0.313574
0.172678
0.254442
-0.00696168
0.484285
-0.28311
0.444563
-0.161418
-0.0161519
0.27503
-0.258848
0.589161
-0.56606
-0.0230826
-0.199358
-0.188446
0.387872
-0.587338
0.329977
0.257376
-0.530153
0.296301
0.233951
-0.612094
0.257014
0.355087
-0.365593
0.618733
-0.253152
-0.534623
0.209902
0.324707
-0.419152
0.0260136
-0.465256
0.21342
0.251896
0.328727
-0.160287
-0.0490263
0.398887
-0.349837
0.432151
-0.100722
-0.246789
0.211576
0.140457
-0.0309578
-0.0258426
0.486706
-0.460849
0.134343
0.107831
0.311981
-0.566485
0.122298
-0.261633
-0.204171
-0.566033
0.289797
0.436057
0.0718239
-0.325426
-0.299307
0.342527
-0.0755219
-0.593433
0.342195
0.251284
-0.188055
-0.183743
0.371854
-0.10954
0.55024
0.518499
-0.174588
-0.259068
0.321093
-0.162055
-0.159105
-0.618154
0.413774
0.204428
0.303786
0.22442
-0.532396
-0.540992
0.246347
-0.570196
0.350259
0.21996
0.24588
0.295948
-0.541755
0.378531
-0.140059
-0.305128
0.543167
0.269768
0.348921
-0.434204
-0.135706
-0.4767
0.196188
0.505218
-0.12925
-0.246599
-0.113041
0.254706
-0.430487
-0.455351
-0.634835
0.327226
0.307673
-0.541427
0.23265
-0.22519
-0.344983
0.154454
-0.437571
-0.298646
0.149258
0.149374
-0.537871
0.250858
0.287008
0.271377
0.200648
0.31094
-0.141112
-0.557984
0.191617
0.649625
-0.294438
-0.355171
-0.32348
0.614533
-0.302234
-0.324533
0.163367
0.157661
0.322458
-0.129739
-0.192726
-0.175569
-0.199899
0.375525
-0.572135
0.34317
0.228981
-0.479698
0.223972
0.255756
-0.240109
0.439653
-0.199566
0.354908
-0.374703
-0.206732
0.385238
-0.221857
-0.202771
-0.0136722
-0.520616
0.534402
-0.193242
0.419723
-0.308234
0.251003
0.198538
-0.449584
-0.141904
-0.114175
0.25606
0.169882
0.262262
0.364668
-0.319645
-0.615878
0.356044
0.259816
-0.0811436
0.223286
0.237927
0.326192
-0.546293
-0.304305
-0.271192
-0.35382
-0.564445
0.233039
0.0657841
0.210492
-0.276288
0.256721
-0.512933
0.499628
-0.620441
0.278006
0.342415
-0.2112
-0.321938
0.533151
0.287933
0.361707
0.60044
-0.318896
0.593373
0.196921
0.550505
-0.207326
0.331338
0.219177
0.646647
-0.295728
-0.35084
0.266288
0.150518
-0.416836
0.186651
-0.354778
-0.274253
-0.259725
0.533988
0.041622
0.0988206
0.494687
-0.520491
0.354008
-0.485096
-0.429017
0.558518
-0.246393
-0.420755
0.114301
0.306548
-0.37583
-0.24228
0.325846
-0.374866
0.0967511
-0.0192957
-0.0774634
-0.201164
-0.332544
0.533769
0.574169
-0.231392
-0.615654
0.262678
0.352979
0.189261
0.17387
-0.363163
-0.214047
0.114795
-0.575344
0.271809
0.303563
0.218087
-0.569553
-0.0850244
-0.167344
-0.361089
-0.254563
-0.638245
0.367062
-0.307135
0.161691
0.1454
-0.547907
0.293475
0.254428
-0.32253
0.16963
-0.560468
0.231446
0.356638
-0.58807
-0.309377
-0.227409
0.536801
0.18916
-0.18089
-0.609356
0.26076
0.348603
0.289104
-0.599766
0.327071
-0.607663
0.359159
0.248513
0.326321
0.258897
-0.321402
0.114525
-0.153377
-0.153799
0.26213
-0.536382
-0.170103
0.277783
-0.461243
0.417953
0.0433466
-0.205084
0.370929
-0.165818
0.36243
-0.376194
0.132348
0.172529
-0.304866
0.146156
0.176291
-0.244324
-0.285733
0.311633
-0.523135
-0.141338
-0.268528
0.0589896
-0.273563
0.12241
-0.0808007
-0.293625
0.53302
-0.23923
0.528449
-0.599716
0.357418
0.242284
0.520506
-0.521988
0.143762
-0.260206
0.116434
-0.320743
0.163353
0.157424
-0.0564316
-0.0896903
0.524633
0.286893
-0.133793
-0.472895
0.574428
-0.101514
-0.551885
0.314873
0.236964
-0.529789
0.236304
-0.281994
-0.338465
0.170658
0.244702
-0.593363
0.229231
0.303617
-0.531603
-0.167397
-0.131262
-0.424783
0.24262
0.182185
0.155462
0.123433
-0.308983
0.475326
-0.166258
-0.117299
0.261057
0.18506
-0.384366
0.174358
0.154343
0.603643
-0.367288
-0.236336
-0.287706
-0.355277
0.233273
-0.350304
0.181351
0.226263
-0.407579
0.185398
-0.336429
-0.316755
-0.258563
-0.100017
0.555819
-0.265869
-0.286882
-0.293618
-0.14222
0.305103
0.139496
-0.346127
-0.353162
-0.242592
0.5958
0.399337
0.563886
0.266339
0.232339
0.261751
-0.127418
-0.323428
-0.231448
0.554888
0.305553
0.218047
-0.492939
0.334412
-0.614538
0.2802
0.226924
-0.418084
0.591048
-0.0421622
-0.11771
0.226863
0.420721
0.341554
-0.289982
-0.0515922
-0.351943
0.17156
0.180359
0.228459
-0.594077
-0.589463
0.321896
0.26757
0.035214
0.0871844
-0.141974
0.50831
-0.366291
0.288422
-0.517
0.00724073
0.0895025
-0.316647
-0.126958
0.443646
0.291732
-0.518874
-0.217594
0.489037
-0.356417
-0.203335
0.441147
-0.186425
0.132897
-0.282985
0.150085
0.235148
-0.169375
0.267646
-0.474479
-0.256952
-0.300378
0.46173
-0.161319
0.220517
0.178613
-0.399135
-0.0647127
0.549026
-0.395128
0.208836
0.186339
0.51368
-0.262835
0.414958
0.346694
-0.603368
0.256584
-0.592952
0.203312
0.205397
0.402858
-0.594693
0.199643
-0.405453
0.205825
0.284916
-0.531523
0.246699
-0.224365
0.40118
-0.176752
0.603712
-0.288212
-0.370129
-0.4939
0.193805
0.259328
-0.247792
-0.248329
-0.311036
-0.26601
-0.230949
0.496959
0.236017
0.32175
0.218877
-0.254103
0.254086
-0.310705
0.45582
0.0978062
0.142612
0.19892
0.259115
-0.474379
0.215316
-0.349409
-0.118947
0.274401
-0.238215
-0.270411
0.508721
0.311511
-0.216905
-0.0946378
0.417754
-0.191445
-0.276412
0.189958
0.313033
-0.293916
-0.310253
-0.138354
0.44862
-0.470082
0.241599
0.228536
-0.443315
0.405011
0.464815
-0.227442
-0.237261
-0.208406
0.10277
0.153598
0.341197
-0.0953864
-0.245819
-0.326662
-0.237124
0.563824
0.15138
-0.460241
-0.232387
0.536061
0.277293
0.231803
-0.247042
0.461116
-0.182679
-0.278488
-0.583512
0.256893
0.232048
0.188836
-0.242726
-0.311337
0.554128
-0.159223
0.379783
0.110327
-0.242944
0.396858
-0.177973
-0.0956792
-0.365511
-0.391593
-0.234952
-0.19238
0.443367
-0.159246
0.344672
0.2652
0.204362
0.611544
-0.258519
-0.353022
-0.247375
-0.301532
0.54897
-0.563341
0.246508
0.582937
-0.366021
-0.216905
-0.391505
0.203111
0.376971
-0.122077
-0.266776
-0.464258
0.147619
0.584479
-0.25565
0.141466
0.427037
-0.194916
0.506886
-0.240481
0.127805
0.133937
0.214622
0.19117
-0.00314493
-0.507583
0.439172
-0.196526
-0.329372
-0.270361
-0.271709
0.109215
0.162482
0.225573
-0.491545
0.281384
-0.638373
0.357
-0.132695
0.25881
0.329278
-0.165954
-0.482079
-0.418892
0.17876
0.313609
-0.254641
0.286729
-0.473388
0.186707
0.386769
-0.187079
-0.311394
0.559289
-0.247883
-0.388223
0.14083
0.159534
-0.364608
0.268975
-0.175482
0.473066
-0.297586
0.382127
-0.132453
-0.24969
-0.548216
0.236826
-0.364689
-0.244036
0.608728
-0.637095
0.277003
0.3601
0.112838
0.634329
-0.35488
-0.279423
-0.640013
0.283712
0.356319
-0.115631
-0.15609
0.532677
0.28432
0.158051
-0.442393
-0.162706
0.285452
0.348902
-0.507951
0.265749
0.242225
0.328233
0.241888
-0.570083
0.223662
-0.239801
-0.249426
-0.278509
0.528378
0.23592
-0.310903
-0.0907289
0.401691
-0.354543
0.41802
-0.197418
-0.220572
-0.61804
-0.287181
0.492511
-0.205316
-0.222531
0.38519
-0.162587
-0.315518
-0.381687
-0.500044
0.273162
0.227005
-0.201091
0.473769
-0.272719
-0.255359
-0.353991
0.0294045
0.555522
-0.584929
0.32032
-0.174197
0.327108
-0.49973
-0.355703
-0.244164
0.525993
-0.35465
-0.155651
0.317302
-0.550886
0.296714
0.254176
-0.186236
0.284926
0.274683
-0.559446
-0.236061
0.594976
-0.358869
-0.258097
0.506262
-0.248124
-0.322083
-0.236416
0.558515
0.144316
0.114466
-0.258776
-0.520784
0.225462
-0.578773
0.25669
-0.572038
0.268578
0.303466
-0.349419
-0.185216
0.497455
-0.0295055
-0.186694
-0.252218
0.438961
0.305542
-0.552919
0.281036
-0.540774
0.354213
-0.149918
0.288317
-0.464787
0.419557
-0.439078
0.128838
0.0287103
0.536481
-0.565139
0.336725
0.217938
-0.564553
0.383971
-0.146387
-0.237546
0.617059
-0.316225
0.36383
-0.216323
-0.147522
-0.360658
-0.11602
0.272022
-0.505788
0.233854
-0.421855
0.380632
0.186094
0.125381
0.328934
0.209195
-0.538122
-0.305781
-0.266252
0.106797
-0.0715906
0.518346
-0.230056
0.0691629
-0.0558897
-0.0132815
0.0423947
-0.00289418
-0.0395073
0.00428861
-0.516478
0.512029
0.287685
-0.63154
0.270672
0.360862
-0.119156
0.309727
0.327858
-0.157411
-0.292981
-0.228759
0.521741
-0.547796
0.32042
-0.624237
0.256925
0.367306
0.263448
-0.11667
-0.14678
0.324643
-0.158366
-0.632525
0.274827
0.357698
0.544773
-0.217628
0.23922
-0.406871
0.167667
-0.544615
0.357976
-0.107678
0.290074
0.144874
0.158746
-0.303589
0.209576
-0.113317
-0.0962607
0.0917941
-0.0845638
-0.348413
0.579878
-0.160774
-0.0874926
-0.061459
0.14894
-0.608811
0.34093
-0.283615
0.15006
0.133568
-0.31825
-0.243041
0.561419
0.333364
-0.260704
0.550098
-0.587263
0.333409
0.253876
-0.318147
-0.214869
0.533021
0.149904
0.165007
-0.0510818
0.140574
0.255568
-0.111236
-0.35552
-0.242096
0.52707
-0.0931505
-0.0421404
0.13528
0.456522
-0.253678
0.53469
-0.255481
0.410845
-0.394108
0.214443
-0.149447
-0.23945
0.514172
-0.517392
0.507854
-0.510261
-0.185763
0.400423
0.523821
-0.150505
-0.373368
0.546818
-0.513099
-0.287657
-0.166802
0.45447
0.359073
-0.148075
-0.211036
0.24431
-0.545824
-0.135099
0.268714
-0.133609
0.217691
-0.0474951
0.0940932
0.352584
-0.181051
-0.4506
0.262369
-0.356717
-0.117504
0.224623
-0.107115
0.0863453
0.187093
0.244637
0.577337
-0.308759
0.481948
-0.214149
-0.116984
0.245691
-0.128702
0.571969
-0.350696
-0.221277
-0.152267
0.31626
-0.163995
0.190384
0.165391
-0.355764
0.260117
0.31722
0.412585
-0.554525
0.524179
-0.232352
-0.150551
-0.290289
0.156221
0.134078
-0.510995
0.272944
-0.24229
0.245797
-0.473376
0.227553
-0.495647
0.179408
0.328068
-0.575391
0.247414
-0.609235
0.359248
0.249989
0.434726
-0.195512
0.468722
-0.213222
-0.255474
0.209944
0.181265
-0.391135
0.148673
0.125718
0.253095
-0.517091
0.520429
0.346773
0.240414
0.1472
-0.272281
0.215962
0.182595
-0.398469
-0.22834
-0.0737377
-0.306715
0.496722
0.508955
-0.236848
0.175589
0.581752
0.238308
-0.585547
0.347296
0.00573137
-0.462672
0.350372
-0.586436
0.242745
0.290007
-0.285419
0.208964
0.176299
-0.619703
0.22575
0.393967
0.438357
0.154014
-0.24689
0.55246
-0.288282
0.479996
-0.19171
-0.0345556
-0.49937
0.533826
0.193757
0.157014
-0.278867
-0.25817
0.537041
-0.216987
0.482352
0.316509
0.158902
-0.113242
-0.129057
-0.333549
0.126127
-0.261222
0.264912
0.248754
0.222379
0.188878
-0.41118
0.168727
0.192369
-0.493627
-0.301111
0.157502
0.143625
0.126815
0.236997
0.0141197
0.170093
-0.0349772
0.133638
-0.285263
0.151287
0.164971
0.187138
0.131057
-0.402822
-0.216868
-0.133697
-0.00243639
0.354146
-0.180134
-0.174058
0.518349
0.320885
-0.169586
0.552668
-0.15447
0.151553
-0.252737
0.101173
-0.223094
0.494588
-0.126678
0.264241
-0.12038
0.271929
-0.353569
-0.0135031
-0.449904
0.162248
0.206353
0.173468
0.16707
-0.357279
0.190399
0.16691
-0.138996
-0.129806
0.268804
0.0304006
-0.406468
0.376099
-0.372798
0.200512
0.172286
0.446825
-0.118426
-0.328387
-0.562722
0.319756
0.237733
-0.245305
-0.224723
0.508634
-0.582344
0.074128
-0.327403
0.179738
0.147685
0.195723
0.170934
-0.366655
-0.282747
0.518905
-0.236112
0.27505
0.236206
-0.51125
0.340353
-0.140218
-0.444258
0.215449
0.228869
-0.312166
-0.296565
0.457881
-0.173542
-0.186809
0.396796
-0.510279
0.477728
-0.512426
-0.173617
0.364039
0.296375
-0.134287
0.162489
0.148338
-0.445219
0.185145
0.55014
-0.290025
0.166538
0.201457
0.239728
0.341345
-0.581107
-0.579427
0.356225
0.223193
0.302419
0.24772
0.557769
-0.486757
-0.0709509
0.338398
0.27824
0.214285
-0.161893
0.329936
0.32083
-0.163254
-0.28234
-0.596788
-0.246845
-0.360808
0.177397
0.142888
-0.598328
0.251045
0.347277
0.189659
-0.348864
-0.282871
0.517222
-0.234288
0.00801355
-0.224938
-0.304562
0.543863
-0.239262
-0.335649
0.582531
-0.246774
0.26652
-0.513074
0.246607
0.26202
-0.1542
0.602694
-0.343486
-0.259201
0.522028
-0.528411
0.00636667
0.362485
0.140966
0.181567
-0.3225
0.575335
-0.264968
-0.242961
-0.196448
-0.400214
0.35891
-0.294085
0.530881
-0.236607
0.254037
0.313309
-0.23776
-0.075585
0.202495
0.110783
0.236539
-0.127396
0.246558
-0.119162
-0.585338
0.348264
-0.238029
0.588408
0.346359
0.156671
0.183799
-0.340434
0.308567
-0.162329
-0.506282
0.275312
-0.261675
-0.336659
0.601943
-0.344692
-0.257269
-0.0503923
-0.191151
0.413603
-0.151144
0.312817
-0.161685
0.568302
-0.240201
0.271656
-0.489232
0.352245
-0.17652
-0.175766
0.226282
0.190974
-0.417187
0.472681
-0.226865
0.184896
0.211972
-0.520434
0.368249
-0.587022
0.254237
0.581227
-0.514421
-0.0669742
-0.303833
0.143546
0.160324
-0.601838
0.340167
0.145049
0.160802
-0.305806
-0.179716
0.292873
-0.113171
-0.49604
0.309189
-0.491564
0.269984
0.226898
0.239101
0.190456
0.23406
-0.424491
0.166506
0.357274
0.327762
-0.158982
-0.126464
0.391629
-0.0471783
-0.218406
0.490143
-0.516696
-0.212765
-0.161816
0.345488
-0.183693
-0.344571
0.178048
0.166549
0.103536
-0.216386
-0.281411
0.498016
0.205743
0.181073
-0.374949
-0.221751
-0.0886857
0.310417
0.422682
-0.246196
-0.176499
0.0978455
0.430021
-0.239647
-0.19037
0.228279
0.186745
-0.347617
-0.252148
0.0984231
0.132219
0.178747
0.241227
-0.590406
0.349168
0.100291
0.213312
-0.389475
0.225251