/*--------------------------------*- C++ -*----------------------------------*\
| =========                 |                                                 |
| \\      /  F ield         | OpenFOAM: The Open Source CFD Toolbox           |
|  \\    /   O peration     | Version:  v2012                                 |
|   \\  /    A nd           | Website:  www.openfoam.com                      |
|    \\/     M anipulation  |                                                 |
\*---------------------------------------------------------------------------*/
FoamFile
{
    version     2.0;
    format      ascii;
    class       volScalarField::Internal;
    location    "650";
    object      V0;
}
// * * * * * * * * * * * * * * * * * * * * * * * * * * * * * * * * * * * * * //

dimensions      [0 3 0 0 0 0 0];


value           nonuniform List<scalar> 
9793
(
0.0430408
0.212594
0.0466989
0.133002
0.0460482
0.104295
0.168134
0.160292
0.0694159
0.0457517
0.032663
0.0675185
0.166008
0.157173
0.182329
0.167588
0.171331
0.180448
0.0595755
0.161513
0.0738044
0.0567102
0.129761
0.210928
0.121335
0.170279
0.167531
0.17047
0.0323981
0.0751589
0.075678
0.159581
0.153482
0.171416
0.0425719
0.0749662
0.153478
0.0588031
0.147147
0.18172
0.0933809
0.185169
0.154157
0.174252
0.190338
0.140759
0.0371619
0.15606
0.0922404
0.123083
0.0412126
0.0301446
0.0849471
0.080154
0.0352391
0.078915
0.0869969
0.0238968
0.0897187
0.126193
0.166223
0.081885
0.0828392
0.170003
0.0384882
0.15957
0.108668
0.0915739
0.0642157
0.0336466
0.041379
0.177519
0.122012
0.177805
0.0416232
0.0969406
0.106338
0.172175
0.131159
0.178233
0.124757
0.142473
0.157924
0.174597
0.0980913
0.153618
0.182005
0.0960535
0.0896825
0.148292
0.191555
0.0386255
0.132828
0.161749
0.0787713
0.17408
0.0753478
0.166606
0.127602
0.140915
0.156212
0.143175
0.136686
0.137512
0.17891
0.100849
0.0749797
0.162745
0.0919774
0.154952
0.157936
0.0777431
0.103953
0.0818751
0.0292125
0.102236
0.134439
0.0396535
0.139457
0.163942
0.134689
0.138896
0.104829
0.09063
0.0665354
0.073734
0.0235576
0.152217
0.131461
0.110738
0.182506
0.0908341
0.0939323
0.134989
0.0683017
0.0945175
0.166791
0.170362
0.12579
0.165372
0.0967425
0.121008
0.154671
0.138944
0.16367
0.154575
0.175497
0.159913
0.152037
0.0349253
0.0437493
0.193148
0.0426769
0.0465778
0.149204
0.11765
0.174274
0.116506
0.173033
0.1318
0.134453
0.152715
0.164072
0.0643544
0.195114
0.0871222
0.148545
0.0495985
0.166568
0.145433
0.135125
0.112981
0.192427
0.105633
0.0664473
0.0529225
0.0923483
0.172247
0.105049
0.0357204
0.02138
0.0457157
0.163318
0.114044
0.0986898
0.135935
0.0262808
0.101156
0.101758
0.159415
0.068996
0.113354
0.0947312
0.0757304
0.0867691
0.0404455
0.0554266
0.131692
0.0489077
0.13723
0.059711
0.065181
0.0748996
0.101605
0.0825288
0.16626
0.0869998
0.150404
0.0977083
0.0539045
0.0384246
0.100004
0.091361
0.0704533
0.0498263
0.178482
0.13086
0.0972606
0.150856
0.0809441
0.0416831
0.104413
0.0599955
0.139458
0.152628
0.0586976
0.107353
0.146057
0.0370085
0.0266808
0.205884
0.193977
0.041294
0.143076
0.0252706
0.0771456
0.108927
0.126396
0.0771775
0.15566
0.0972262
0.149571
0.124529
0.145351
0.123627
0.134455
0.170862
0.122473
0.141671
0.139983
0.0593676
0.0426589
0.0323738
0.0245661
0.118623
0.0663249
0.130071
0.0389359
0.105074
0.16247
0.119406
0.121155
0.0312644
0.147411
0.0476386
0.136184
0.16603
0.0362733
0.0603035
0.10136
0.129491
0.158128
0.0554267
0.0948228
0.156005
0.156111
0.0876974
0.0788737
0.136006
0.0255734
0.124581
0.159159
0.161612
0.17255
0.0177051
0.0779518
0.0632858
0.0457056
0.172484
0.0825268
0.105066
0.11598
0.0918601
0.15679
0.16031
0.131907
0.0593939
0.0430411
0.142285
0.0621276
0.132737
0.108321
0.125405
0.155823
0.160179
0.121732
0.0503152
0.0437785
0.109071
0.0939315
0.148089
0.124448
0.0453068
0.0700364
0.0689269
0.136059
0.152348
0.123383
0.0532953
0.0475341
0.121365
0.166147
0.054764
0.177364
0.167021
0.0162753
0.0598862
0.0874218
0.0358126
0.152347
0.0395869
0.0430308
0.136533
0.0968475
0.0218408
0.15211
0.131257
0.0649184
0.152751
0.14563
0.0467018
0.100943
0.119124
0.0635511
0.149438
0.15805
0.166148
0.0603627
0.181888
0.0483437
0.0627795
0.0675924
0.0767562
0.13815
0.108286
0.0762815
0.0727235
0.178117
0.0289074
0.0373489
0.0237057
0.0279299
0.0733057
0.125295
0.05346
0.136165
0.124813
0.134812
0.136587
0.130901
0.0988384
0.0522335
0.0691353
0.0234522
0.0569534
0.0997951
0.119645
0.131853
0.0338081
0.179876
0.0597295
0.0743143
0.103872
0.138926
0.0595828
0.173152
0.146872
0.160573
0.0756034
0.0648891
0.0948706
0.0539241
0.0259779
0.129406
0.0540955
0.0258689
0.154324
0.178413
0.0538908
0.0379208
0.127086
0.146004
0.0461313
0.0539019
0.158879
0.0743564
0.111639
0.0646757
0.160465
0.039912
0.086236
0.0303968
0.080105
0.140795
0.109451
0.110948
0.0568461
0.114668
0.149101
0.0768124
0.148504
0.05453
0.120215
0.05712
0.0285213
0.0752501
0.103891
0.0580315
0.163174
0.0350932
0.158496
0.071111
0.163271
0.119905
0.159783
0.111678
0.137154
0.104466
0.130772
0.137523
0.167042
0.0518627
0.0964898
0.133541
0.0397088
0.160349
0.101351
0.058039
0.0670194
0.0583685
0.0347545
0.0992771
0.102017
0.10367
0.0663502
0.0405575
0.0388095
0.16172
0.127347
0.134076
0.108181
0.0239559
0.108464
0.137123
0.101746
0.152008
0.162762
0.0801273
0.0337034
0.0972578
0.142575
0.0547896
0.174425
0.17622
0.172287
0.134126
0.0667307
0.128251
0.104945
0.161178
0.152893
0.0928186
0.108521
0.159817
0.101754
0.123211
0.0959879
0.0587193
0.0703752
0.104815
0.172054
0.152317
0.058067
0.0946666
0.0606813
0.15388
0.139756
0.12571
0.113115
0.116181
0.157893
0.0292239
0.139696
0.0959708
0.0464044
0.12867
0.097352
0.142942
0.0742046
0.104198
0.0658664
0.154409
0.120814
0.030145
0.101654
0.0298752
0.13138
0.0484588
0.133191
0.0247551
0.097102
0.140722
0.105086
0.0213917
0.100693
0.141985
0.115382
0.113827
0.13532
0.0230824
0.0442622
0.0927113
0.103866
0.116909
0.0753786
0.151327
0.118102
0.0728285
0.0230158
0.153265
0.097951
0.0364987
0.0966222
0.144931
0.0687895
0.165883
0.0231355
0.102391
0.0864423
0.0186659
0.122568
0.0847245
0.0439071
0.0967662
0.131099
0.122577
0.137455
0.162408
0.10097
0.0910279
0.136656
0.040074
0.0242153
0.0653419
0.0408693
0.143842
0.0260193
0.0935763
0.138636
0.0662493
0.0994599
0.159338
0.141347
0.139674
0.0440379
0.122531
0.0174119
0.150575
0.165426
0.0384035
0.047575
0.0325211
0.091933
0.10471
0.0939463
0.0960833
0.0509042
0.0840501
0.129078
0.0534271
0.111361
0.137485
0.0449068
0.0463067
0.0978122
0.0745164
0.0974449
0.04118
0.0435351
0.0444745
0.14725
0.135489
0.0651433
0.0443054
0.0734409
0.0467974
0.106969
0.0818129
0.0538267
0.033754
0.129405
0.103163
0.13588
0.12284
0.124793
0.118495
0.114909
0.163372
0.118071
0.121726
0.124721
0.0697138
0.154447
0.0407208
0.14191
0.070339
0.0704714
0.0328015
0.025359
0.146521
0.119666
0.0999875
0.142448
0.158689
0.130351
0.157579
0.123702
0.0643638
0.152592
0.0364821
0.159997
0.164976
0.0768171
0.098021
0.115282
0.156424
0.0266289
0.135887
0.0829492
0.0159546
0.0917431
0.156836
0.16871
0.0166544
0.130416
0.0233435
0.0374416
0.131161
0.134118
0.0888198
0.0704847
0.133555
0.110157
0.15941
0.162711
0.0983419
0.0348868
0.0999694
0.0206237
0.0802076
0.0939695
0.0770994
0.13384
0.105104
0.124287
0.0302618
0.120718
0.042877
0.0657736
0.0170118
0.0674299
0.119551
0.112931
0.0253236
0.119758
0.091229
0.0229799
0.0197177
0.119023
0.147806
0.0894744
0.133053
0.150949
0.122271
0.142919
0.136491
0.0621215
0.106897
0.117697
0.130697
0.153414
0.121531
0.157611
0.0744588
0.156659
0.125517
0.0376571
0.148328
0.0303475
0.0720201
0.0313543
0.101453
0.0620371
0.0979633
0.0737839
0.0194838
0.16046
0.127462
0.139322
0.0961052
0.0559374
0.129026
0.140724
0.126669
0.116987
0.147059
0.11963
0.0258937
0.110966
0.0380057
0.029993
0.0653294
0.0650795
0.155666
0.132036
0.160051
0.130965
0.0634251
0.124593
0.0843771
0.144781
0.157414
0.123838
0.117049
0.0883052
0.0973978
0.0897565
0.160344
0.103128
0.100506
0.036905
0.146614
0.140773
0.135608
0.100471
0.122008
0.0928737
0.024829
0.123537
0.143923
0.140757
0.123981
0.0730067
0.0386463
0.0439482
0.0367783
0.140515
0.0208944
0.134239
0.136524
0.101528
0.0920015
0.114752
0.0494891
0.140719
0.0639088
0.132257
0.113776
0.152669
0.155074
0.127994
0.0853765
0.0883139
0.0397552
0.11451
0.057518
0.0422636
0.0155468
0.13601
0.0196824
0.128851
0.0250866
0.113868
0.145982
0.125875
0.143427
0.0356032
0.128193
0.0581113
0.164919
0.141687
0.156066
0.041445
0.150858
0.0422289
0.122745
0.122355
0.149678
0.140016
0.0733156
0.13077
0.15029
0.123538
0.100053
0.140921
0.0679948
0.078667
0.0919702
0.145159
0.147298
0.147398
0.111252
0.0260412
0.101426
0.0968366
0.0391973
0.147176
0.164201
0.132319
0.144976
0.0414527
0.0336956
0.0575814
0.152891
0.0893406
0.120274
0.16541
0.0585074
0.0633705
0.1522
0.0529828
0.168439
0.0658902
0.112716
0.0934225
0.0242004
0.13319
0.156861
0.0408702
0.150853
0.0284062
0.0851647
0.131248
0.13923
0.15549
0.133893
0.0612609
0.0250291
0.161335
0.151603
0.129515
0.159968
0.129035
0.151258
0.0617129
0.148538
0.148624
0.14016
0.10768
0.0320558
0.0703645
0.133605
0.0190436
0.144956
0.0931893
0.076254
0.134663
0.074193
0.133166
0.107343
0.0229629
0.131493
0.124806
0.153288
0.0535799
0.0684776
0.0233934
0.127468
0.128512
0.0266449
0.15388
0.160264
0.0327416
0.128878
0.0360001
0.143921
0.151386
0.147162
0.0544834
0.151681
0.170328
0.158502
0.151549
0.128756
0.0552815
0.0314583
0.132923
0.0341845
0.11686
0.0871508
0.0635373
0.0838654
0.0414727
0.0353302
0.115353
0.122254
0.0811581
0.0300195
0.02249
0.117904
0.128858
0.147227
0.152533
0.0247864
0.0348334
0.0458046
0.144519
0.0333979
0.118413
0.125499
0.116736
0.147849
0.0750948
0.150121
0.1225
0.024745
0.0753813
0.0268256
0.119293
0.0244495
0.0630905
0.0413762
0.140142
0.0978054
0.147621
0.156591
0.0721857
0.0469195
0.128453
0.174632
0.100916
0.136436
0.0335808
0.11811
0.149867
0.132684
0.0683858
0.136776
0.10508
0.146569
0.021754
0.135895
0.069017
0.126791
0.146323
0.0742915
0.155757
0.0191646
0.106409
0.0393725
0.0541829
0.151669
0.14414
0.0210351
0.128692
0.142004
0.110825
0.0234734
0.10305
0.115828
0.100023
0.153352
0.0653413
0.0827324
0.0313113
0.0479332
0.0966199
0.0902597
0.105234
0.0631288
0.177491
0.0647404
0.100139
0.0710262
0.144953
0.139815
0.0628203
0.158706
0.0636888
0.124208
0.0762769
0.146537
0.0854779
0.0968862
0.144394
0.0958998
0.144218
0.100992
0.126185
0.0797497
0.0761876
0.149541
0.134399
0.136463
0.0433449
0.0905452
0.151215
0.028025
0.108364
0.0238071
0.0739511
0.129714
0.096714
0.119965
0.104271
0.0882219
0.129176
0.0961643
0.144822
0.0272205
0.070912
0.140937
0.117788
0.123343
0.103424
0.0598341
0.0860954
0.144109
0.0744769
0.129656
0.0652223
0.0197154
0.068365
0.0746521
0.134432
0.0948647
0.0477772
0.0956682
0.137159
0.126848
0.133215
0.126048
0.0645966
0.143601
0.0240759
0.133395
0.10592
0.148246
0.0238726
0.0761428
0.108878
0.0220729
0.0685034
0.141632
0.0801008
0.144385
0.0230717
0.0993358
0.158538
0.0211128
0.043073
0.178346
0.115023
0.0331789
0.0887682
0.0610501
0.135836
0.0669697
0.0624302
0.149296
0.107591
0.0636404
0.132718
0.14799
0.158455
0.0732704
0.156564
0.158002
0.0228328
0.115687
0.0771652
0.0527207
0.155874
0.0613033
0.0976512
0.149615
0.0429933
0.115033
0.0990644
0.0998034
0.157608
0.0730158
0.135801
0.097276
0.0591605
0.129732
0.119578
0.0625555
0.103062
0.0817992
0.150689
0.16814
0.0354955
0.0924019
0.157628
0.101174
0.157401
0.0340849
0.123674
0.0605356
0.138847
0.150951
0.109443
0.138545
0.026131
0.0933788
0.140131
0.145225
0.123177
0.144018
0.112131
0.128575
0.131128
0.0454861
0.118389
0.102421
0.0972575
0.163293
0.148488
0.14223
0.0596834
0.147475
0.0623262
0.0809741
0.106133
0.06715
0.0273608
0.141342
0.145327
0.0217096
0.112859
0.0201412
0.0162673
0.148506
0.14637
0.157652
0.0401108
0.0407093
0.130181
0.14481
0.157644
0.0245848
0.0408122
0.157366
0.0972994
0.073736
0.115445
0.0321788
0.0344579
0.015452
0.024347
0.147083
0.0406236
0.0228509
0.136109
0.0302741
0.135222
0.144618
0.100012
0.146343
0.121806
0.0278981
0.0203368
0.0242064
0.0256106
0.156966
0.122916
0.025777
0.117533
0.131487
0.0618847
0.0678081
0.0336544
0.149903
0.143773
0.147034
0.068571
0.105805
0.173391
0.125312
0.0668347
0.125844
0.021383
0.0658803
0.0693285
0.0201236
0.0542424
0.102567
0.0696781
0.156816
0.0165025
0.0152449
0.0999893
0.14967
0.0981857
0.0182433
0.145706
0.038199
0.0509837
0.149906
0.150241
0.116161
0.0303047
0.0323482
0.109376
0.0194592
0.0934017
0.138671
0.14131
0.153667
0.0802362
0.0949916
0.0657179
0.0286161
0.128948
0.153704
0.146011
0.134677
0.0268627
0.0656315
0.0241206
0.0984207
0.107995
0.0395678
0.131391
0.148428
0.109136
0.148277
0.11476
0.0300095
0.0609265
0.153414
0.144333
0.130361
0.129659
0.148993
0.047905
0.118951
0.0986138
0.118474
0.0191101
0.129585
0.0195748
0.100728
0.0707094
0.0518767
0.112549
0.0343176
0.0670213
0.0187643
0.0274382
0.130644
0.0389671
0.0445741
0.153397
0.0225059
0.0298031
0.0208902
0.0530433
0.148239
0.0400503
0.103591
0.0246085
0.093373
0.0219866
0.0252833
0.155147
0.0189791
0.0887175
0.0583157
0.0361986
0.0504832
0.021586
0.127897
0.0533553
0.113966
0.135603
0.0701627
0.0883263
0.16891
0.0429188
0.0506744
0.0971614
0.113803
0.128382
0.0313472
0.0851416
0.121934
0.0773084
0.0664714
0.0251192
0.0984331
0.142814
0.0509533
0.0294395
0.035776
0.0771468
0.146044
0.0542883
0.146869
0.149922
0.146561
0.163426
0.140712
0.0947144
0.0538275
0.0420223
0.118687
0.144849
0.156117
0.0358647
0.150405
0.0484789
0.115375
0.0183864
0.125528
0.149143
0.103017
0.0207609
0.0246828
0.150864
0.172434
0.0505425
0.0421991
0.145312
0.0962658
0.138696
0.0525036
0.117536
0.0736431
0.0570145
0.0508919
0.106431
0.0190794
0.148212
0.148557
0.137016
0.0460795
0.0344223
0.104334
0.14961
0.117415
0.0159278
0.0335028
0.0708166
0.0684242
0.0355726
0.140005
0.100364
0.0551298
0.0729378
0.0939383
0.0664455
0.153483
0.153548
0.0227131
0.0241896
0.16963
0.0351818
0.150465
0.0353787
0.0383202
0.11134
0.103506
0.0716118
0.116594
0.0746193
0.0784772
0.0366025
0.0283285
0.0632924
0.153894
0.100978
0.153388
0.0673878
0.0530832
0.0476084
0.0226624
0.101421
0.0615466
0.12708
0.0236159
0.0784543
0.0235621
0.0817627
0.0734533
0.156476
0.0250919
0.0412552
0.150976
0.0265171
0.0652783
0.0735294
0.131309
0.0956948
0.148376
0.170218
0.0345344
0.106934
0.058568
0.0519176
0.0368436
0.040283
0.0246577
0.0879346
0.0351351
0.126272
0.142911
0.148137
0.0985995
0.169578
0.0265294
0.13634
0.104211
0.0745176
0.123884
0.0542703
0.148185
0.0489486
0.122285
0.119287
0.0470323
0.0736822
0.159006
0.055093
0.0507148
0.0219741
0.0632362
0.124097
0.066933
0.0219054
0.114925
0.0233612
0.0264396
0.0760361
0.0958913
0.136264
0.0798955
0.0322218
0.149583
0.111209
0.0746528
0.0241655
0.0796347
0.0631242
0.0475738
0.0284234
0.0386305
0.0431476
0.0497354
0.0351662
0.128188
0.0729516
0.145503
0.0297091
0.0179138
0.0411974
0.0367242
0.0598513
0.0609611
0.10287
0.1376
0.100264
0.0527399
0.0777789
0.0493822
0.144604
0.0365597
0.0693805
0.100169
0.106048
0.154163
0.0537796
0.124099
0.0536693
0.0480084
0.0900944
0.07535
0.0211133
0.128775
0.0939318
0.0595362
0.101962
0.036526
0.0771296
0.111192
0.0761864
0.147422
0.0668186
0.0381201
0.0742102
0.0550666
0.0760387
0.0815699
0.0743728
0.0552788
0.0313189
0.0549216
0.12286
0.14438
0.0732843
0.0212573
0.0713147
0.0485144
0.147193
0.0816798
0.0670867
0.0455892
0.079508
0.100681
0.0617421
0.077751
0.148945
0.134939
0.130676
0.135288
0.0456713
0.134892
0.0709317
0.0784304
0.0988659
0.150836
0.151266
0.0284051
0.0668518
0.150235
0.0699174
0.117337
0.0992554
0.0170712
0.126593
0.148212
0.118467
0.164618
0.0562223
0.128395
0.0670951
0.151755
0.11928
0.130277
0.150567
0.0556426
0.0918373
0.06191
0.15149
0.062691
0.0245611
0.0934127
0.116543
0.112561
0.081084
0.0957065
0.117473
0.100126
0.0684601
0.074066
0.165492
0.034562
0.0856259
0.0955362
0.0161233
0.0247088
0.0952354
0.0904879
0.116342
0.0528327
0.0970414
0.127541
0.0631677
0.147186
0.125636
0.103142
0.105307
0.0921364
0.105569
0.0816603
0.0190812
0.0232876
0.0976082
0.0978229
0.145435
0.143376
0.15461
0.0517765
0.13576
0.126033
0.0569065
0.101168
0.0995872
0.0572745
0.0778929
0.165696
0.0466958
0.149234
0.0880432
0.101573
0.0866205
0.0932462
0.130382
0.155329
0.109826
0.0479891
0.146617
0.131517
0.151101
0.154744
0.125779
0.0505681
0.0907845
0.149193
0.0456941
0.040469
0.0499444
0.151057
0.109776
0.0523292
0.0816362
0.102251
0.0965801
0.0507669
0.102102
0.103427
0.15362
0.0256137
0.140237
0.0409621
0.0612584
0.0723991
0.158471
0.148532
0.143861
0.0950004
0.0625616
0.100439
0.0539509
0.0254033
0.0734866
0.141732
0.123486
0.0397995
0.0530903
0.117948
0.0228056
0.0757104
0.123131
0.151862
0.0632246
0.0918448
0.132611
0.122338
0.0705202
0.112308
0.0815253
0.0349384
0.117961
0.0479838
0.021797
0.0926182
0.0705149
0.105942
0.163886
0.108517
0.059768
0.14195
0.097311
0.0880116
0.0827312
0.0356843
0.0734804
0.134056
0.0502136
0.136258
0.109557
0.108038
0.0949225
0.146651
0.118772
0.0908374
0.107478
0.0993408
0.0604927
0.0697919
0.122213
0.133276
0.0958967
0.147254
0.153289
0.109949
0.127363
0.129621
0.0937996
0.0826415
0.0955466
0.146985
0.122485
0.0683661
0.143794
0.0871428
0.150083
0.108026
0.154209
0.066392
0.0737491
0.0618015
0.0522248
0.144917
0.0513838
0.0860328
0.126969
0.112895
0.147994
0.0555489
0.0405773
0.0679482
0.062227
0.117768
0.106658
0.024116
0.0841381
0.152258
0.146353
0.0535736
0.0450865
0.0963473
0.117439
0.155938
0.157609
0.149973
0.141204
0.135652
0.154112
0.102518
0.112495
0.0981773
0.112133
0.0179642
0.164991
0.150349
0.0277082
0.0986683
0.146849
0.11557
0.161994
0.103378
0.0236877
0.107186
0.0614036
0.0834499
0.0595476
0.0493823
0.152653
0.151722
0.0739926
0.021194
0.149637
0.100129
0.110196
0.106085
0.104617
0.0796112
0.0987939
0.136415
0.094925
0.0597198
0.0694872
0.123449
0.146035
0.142963
0.0979787
0.0377978
0.151952
0.0769211
0.0852964
0.0243689
0.097657
0.154079
0.123682
0.121468
0.104267
0.0811554
0.14246
0.0864754
0.149978
0.0968897
0.101501
0.0203836
0.111449
0.103473
0.116968
0.0417874
0.125883
0.10939
0.146812
0.0694353
0.0560634
0.06631
0.171456
0.0604223
0.0363895
0.099693
0.153143
0.0971786
0.149437
0.143418
0.0788847
0.0823774
0.0280826
0.10654
0.119722
0.124849
0.0918417
0.0931035
0.116624
0.0721881
0.114388
0.0684739
0.098243
0.117884
0.126919
0.0969182
0.0906598
0.120393
0.125205
0.142977
0.0939274
0.0558049
0.0969863
0.0193226
0.123784
0.118289
0.118909
0.102527
0.114556
0.0972877
0.109578
0.110597
0.148772
0.0963897
0.151415
0.102298
0.0525473
0.100065
0.14856
0.100743
0.140448
0.0395649
0.121714
0.0913468
0.0761083
0.149922
0.0759732
0.0996427
0.0226583
0.111147
0.132122
0.110163
0.0711435
0.110603
0.148864
0.0620038
0.0488974
0.0260792
0.0889797
0.143979
0.0954984
0.153486
0.0245872
0.0956875
0.121979
0.0848004
0.0962064
0.117648
0.129038
0.130953
0.0918067
0.119367
0.0879247
0.0930923
0.0988554
0.116958
0.139131
0.126015
0.148846
0.0562356
0.102594
0.153287
0.0587584
0.0666033
0.0960265
0.0680326
0.112242
0.153461
0.148716
0.0622573
0.112947
0.0717291
0.132595
0.147557
0.0905451
0.0688023
0.166555
0.0972508
0.155934
0.0792577
0.017309
0.146393
0.100577
0.0946701
0.0792681
0.09523
0.0980674
0.119502
0.165236
0.136565
0.0958178
0.105034
0.150993
0.0862422
0.153484
0.115134
0.0991835
0.100898
0.138723
0.112561
0.090144
0.0903187
0.0905764
0.109245
0.090306
0.0441747
0.0916361
0.148429
0.146995
0.107266
0.0900581
0.0497887
0.0215956
0.13178
0.0673705
0.100213
0.0739357
0.144407
0.147214
0.147982
0.0737023
0.14967
0.0920326
0.0795629
0.0968367
0.06103
0.0952944
0.0994467
0.0738209
0.0661621
0.118702
0.051734
0.0997055
0.0975532
0.149887
0.0696698
0.0930477
0.0932159
0.113349
0.0640108
0.115177
0.112912
0.110638
0.12701
0.11858
0.0976403
0.0439912
0.126294
0.0968347
0.0677019
0.10289
0.0994582
0.0962761
0.107842
0.0644322
0.0899789
0.121088
0.124353
0.057452
0.0990983
0.0357761
0.114051
0.092907
0.147304
0.0842691
0.115054
0.100525
0.141667
0.0786044
0.153709
0.0893749
0.105682
0.0940918
0.0964928
0.0686369
0.111594
0.153083
0.109225
0.148812
0.11566
0.102876
0.0826827
0.0358309
0.154531
0.127362
0.0967933
0.153345
0.107609
0.0561453
0.0653442
0.112002
0.144471
0.122744
0.123052
0.147913
0.154696
0.115428
0.103444
0.114465
0.0971005
0.128634
0.0829807
0.0968356
0.0971328
0.100554
0.1355
0.14155
0.110385
0.142236
0.100838
0.154056
0.113522
0.157227
0.101984
0.135505
0.116041
0.149327
0.153637
0.0960045
0.107044
0.156562
0.0854651
0.14993
0.100944
0.0965089
0.100183
0.110948
0.114115
0.151821
0.146277
0.0963647
0.063507
0.148431
0.130398
0.113295
0.1549
0.0659014
0.100527
0.0981531
0.0658092
0.117474
0.101505
0.155318
0.0824046
0.0557194
0.139985
0.124058
0.123925
0.116039
0.125204
0.151696
0.113996
0.116513
0.126421
0.0475017
0.172379
0.14976
0.151944
0.104673
0.134529
0.142268
0.0693052
0.106645
0.126018
0.150618
0.137215
0.149678
0.126419
0.148661
0.150615
0.148706
0.130229
0.104233
0.0821525
0.129825
0.11772
0.0212961
0.0977451
0.153323
0.106748
0.0349279
0.126276
0.111481
0.0809133
0.137437
0.149242
0.127838
0.151905
0.121818
0.122814
0.147545
0.116445
0.150222
0.0631848
0.0771672
0.0541532
0.0936392
0.139988
0.0811452
0.04472
0.103175
0.0464873
0.150235
0.145992
0.128484
0.12779
0.126002
0.152949
0.0948959
0.148425
0.150469
0.0917326
0.115534
0.111932
0.0995775
0.120528
0.125194
0.0684906
0.0554061
0.121464
0.110902
0.148091
0.087566
0.0799881
0.129839
0.0214268
0.149539
0.152202
0.0822526
0.098174
0.15104
0.0640944
0.114048
0.147256
0.10885
0.151982
0.128026
0.154346
0.0794542
0.142394
0.119194
0.131908
0.105968
0.0684281
0.123343
0.0374144
0.134418
0.134004
0.127294
0.0606291
0.040895
0.145025
0.123068
0.12986
0.121929
0.12839
0.0310554
0.10002
0.118098
0.105478
0.148867
0.131547
0.0552437
0.109225
0.124485
0.135235
0.10108
0.148815
0.0782078
0.147543
0.142509
0.12705
0.104366
0.118702
0.0238627
0.119598
0.133265
0.0914562
0.141322
0.0305234
0.153994
0.11658
0.0886501
0.150381
0.109536
0.132754
0.0685039
0.168933
0.159475
0.0536473
0.134742
0.120486
0.131684
0.101043
0.0954768
0.0693811
0.0891917
0.151599
0.12591
0.123198
0.113306
0.0280977
0.142239
0.143189
0.138774
0.0622028
0.115159
0.107656
0.123848
0.110503
0.105188
0.111749
0.132878
0.107107
0.112632
0.130918
0.13105
0.119954
0.110624
0.124492
0.139012
0.108172
0.146335
0.0903903
0.153168
0.109505
0.146025
0.0539195
0.132002
0.114006
0.133541
0.151187
0.113241
0.0324971
0.0211893
0.0981628
0.0420692
0.10075
0.101944
0.110213
0.035795
0.063978
0.116466
0.036216
0.148966
0.141593
0.117321
0.110769
0.100558
0.148986
0.145706
0.154073
0.113924
0.112918
0.121115
0.149326
0.147795
0.0421558
0.134803
0.0705824
0.0906008
0.148579
0.101424
0.125999
0.147209
0.105295
0.0578635
0.117668
0.136204
0.10095
0.148442
0.0223244
0.141765
0.120443
0.157886
0.0974375
0.13608
0.13722
0.0380795
0.152865
0.110295
0.0982761
0.127635
0.105191
0.152464
0.103223
0.122657
0.144153
0.146296
0.14694
0.15319
0.0517424
0.0972129
0.145124
0.0968678
0.097131
0.119207
0.130564
0.0991247
0.135385
0.127451
0.141394
0.131246
0.0689544
0.0794337
0.0897953
0.131237
0.110661
0.148732
0.0805665
0.121998
0.111566
0.100349
0.0701229
0.135875
0.149988
0.0670436
0.0775963
0.14623
0.115968
0.133932
0.149222
0.128581
0.0395274
0.134189
0.124732
0.146183
0.140473
0.142916
0.152823
0.129751
0.124979
0.148332
0.127993
0.135945
0.139721
0.0615078
0.148506
0.131555
0.15263
0.0475717
0.140575
0.115762
0.103688
0.114202
0.148382
0.132731
0.149115
0.151827
0.126138
0.136541
0.0918577
0.140404
0.132368
0.116575
0.0323352
0.05062
0.123338
0.102308
0.146283
0.153343
0.135138
0.134241
0.13597
0.147203
0.1527
0.103846
0.152054
0.121111
0.115775
0.103534
0.113561
0.140509
0.0963599
0.128944
0.0691223
0.110803
0.116889
0.135899
0.152555
0.096904
0.101844
0.128051
0.0564338
0.112157
0.0581568
0.0890672
0.12012
0.106841
0.149947
0.140863
0.161306
0.0978681
0.035642
0.1101
0.116131
0.137618
0.0487186
0.113507
0.0637372
0.116669
0.116647
0.14094
0.127467
0.115763
0.108469
0.128775
0.128832
0.121395
0.141365
0.120815
0.139961
0.125544
0.118761
0.101703
0.135915
0.0342977
0.0308546
0.138766
0.132486
0.0368135
0.0935745
0.124961
0.142476
0.124179
0.143006
0.150704
0.115767
0.0994
0.127574
0.118368
0.105793
0.119079
0.126683
0.0722978
0.0770093
0.07055
0.115927
0.0942447
0.109217
0.139375
0.147855
0.0911119
0.140244
0.0387031
0.058201
0.117984
0.152037
0.127378
0.123186
0.131297
0.12588
0.140712
0.118051
0.11829
0.132406
0.117175
0.101587
0.153188
0.140085
0.118168
0.121307
0.0877239
0.109455
0.152069
0.131442
0.0986038
0.103144
0.125108
0.119752
0.0996617
0.153128
0.116588
0.152816
0.125394
0.122663
0.152679
0.0745565
0.11722
0.0837883
0.154039
0.119063
0.146336
0.135029
0.0396035
0.101464
0.139875
0.146031
0.14799
0.153136
0.133266
0.135581
0.108122
0.128091
0.045968
0.0760159
0.167459
0.107026
0.100009
0.123458
0.13181
0.148604
0.131642
0.143066
0.0906334
0.149647
0.116855
0.115434
0.120794
0.148832
0.0413778
0.110937
0.135921
0.14789
0.0821613
0.13599
0.0975217
0.0286534
0.100186
0.142477
0.0453008
0.129873
0.147187
0.143732
0.129908
0.148757
0.0218712
0.123336
0.10691
0.143185
0.10105
0.127201
0.124759
0.126465
0.0981713
0.142209
0.0981813
0.132732
0.152333
0.132268
0.0495528
0.139416
0.145576
0.130624
0.106303
0.0488802
0.152645
0.0555438
0.100646
0.125641
0.136459
0.127899
0.0990782
0.154015
0.147882
0.1214
0.134484
0.128863
0.105767
0.0554208
0.139531
0.131513
0.109437
0.105398
0.126925
0.147564
0.12402
0.0681845
0.139614
0.0347949
0.119206
0.108633
0.153915
0.153861
0.12678
0.135442
0.124962
0.15231
0.10285
0.0927103
0.120019
0.117954
0.122336
0.149297
0.129299
0.0357682
0.131676
0.0935056
0.144732
0.148698
0.0629609
0.117751
0.154002
0.130706
0.129817
0.028576
0.14253
0.131862
0.119684
0.143685
0.130346
0.131073
0.099162
0.145951
0.0532711
0.15408
0.114699
0.13312
0.124053
0.0771949
0.13678
0.124279
0.151859
0.141942
0.126221
0.130416
0.16945
0.0903888
0.125348
0.142932
0.116331
0.14256
0.10523
0.133817
0.120628
0.13022
0.0759375
0.112742
0.0577545
0.142862
0.139573
0.132491
0.131263
0.146217
0.111883
0.134537
0.108736
0.107166
0.123332
0.123036
0.130405
0.137056
0.135726
0.14101
0.125122
0.133316
0.14083
0.101492
0.128551
0.127835
0.139025
0.12774
0.0838151
0.131798
0.130815
0.156461
0.136832
0.0560215
0.0392169
0.0697526
0.142288
0.126449
0.123916
0.157227
0.111706
0.147189
0.13818
0.147238
0.155102
0.141169
0.066248
0.133937
0.142076
0.140523
0.149022
0.149051
0.128669
0.12862
0.143347
0.0829167
0.147171
0.0348023
0.131117
0.145378
0.0978231
0.141271
0.148139
0.13316
0.152255
0.103194
0.143705
0.125374
0.142629
0.15993
0.11235
0.144228
0.106385
0.151045
0.135291
0.128768
0.148388
0.134913
0.138532
0.132936
0.153219
0.12401
0.11975
0.136601
0.130047
0.130036
0.0797288
0.0260619
0.133135
0.144316
0.0770951
0.138882
0.145935
0.134
0.0364595
0.145764
0.0971465
0.0274808
0.14843
0.117751
0.14745
0.112808
0.140969
0.113871
0.14866
0.115845
0.134547
0.107833
0.132128
0.143076
0.156117
0.13212
0.0840114
0.0828598
0.113565
0.147378
0.136089
0.137862
0.129746
0.133367
0.137711
0.118593
0.129234
0.0987019
0.153097
0.151866
0.0256851
0.135273
0.145769
0.12559
0.148858
0.153151
0.130281
0.141533
0.136125
0.146081
0.147094
0.117648
0.152443
0.136999
0.103032
0.152834
0.14861
0.164994
0.042786
0.080112
0.0336353
0.127684
0.133781
0.179818
0.132438
0.147596
0.0980652
0.11733
0.141854
0.152539
0.099023
0.130249
0.02523
0.132231
0.146028
0.121381
0.152022
0.152776
0.14732
0.145055
0.147376
0.14048
0.111902
0.145998
0.148469
0.134441
0.131486
0.0903433
0.146393
0.135925
0.146955
0.161762
0.0922154
0.140717
0.151572
0.161575
0.152348
0.10459
0.141717
0.13324
0.126961
0.101999
0.0934084
0.129509
0.142663
0.143318
0.0417531
0.0664341
0.145366
0.143709
0.105149
0.126217
0.155454
0.0884274
0.115261
0.148562
0.129023
0.130743
0.132674
0.148803
0.132954
0.117388
0.129552
0.147724
0.0908294
0.0615409
0.135885
0.0911083
0.110724
0.128904
0.027844
0.147302
0.152237
0.146367
0.146014
0.134619
0.148671
0.154764
0.0263878
0.147307
0.145989
0.144645
0.148547
0.146467
0.0977858
0.135179
0.0495971
0.15295
0.14905
0.0988184
0.131675
0.132667
0.128457
0.0717207
0.113852
0.147419
0.14833
0.143635
0.125008
0.135278
0.134436
0.159933
0.11918
0.132175
0.0867835
0.136461
0.136054
0.126496
0.133092
0.131929
0.185763
0.14603
0.142502
0.138155
0.137576
0.144874
0.147057
0.134316
0.129616
0.12997
0.154649
0.0902347
0.147286
0.145823
0.144365
0.135805
0.139925
0.147835
0.131448
0.114895
0.146467
0.110993
0.143448
0.125373
0.0555405
0.143056
0.10183
0.152363
0.146806
0.145806
0.133805
0.0989436
0.115146
0.135046
0.13042
0.15376
0.147891
0.144915
0.137227
0.132398
0.131781
0.115399
0.132077
0.137764
0.147457
0.128354
0.147474
0.146422
0.144844
0.14814
0.141033
0.132168
0.151253
0.138755
0.150886
0.136738
0.146962
0.101189
0.0683847
0.0640059
0.148619
0.104376
0.122709
0.134413
0.148241
0.0876153
0.131487
0.14675
0.100362
0.129006
0.102171
0.14852
0.127314
0.146842
0.132594
0.134923
0.146373
0.135604
0.135653
0.137177
0.146858
0.148173
0.126945
0.152899
0.132135
0.144393
0.147211
0.151622
0.145667
0.149308
0.148659
0.0542558
0.0763061
0.0401876
0.13155
0.153109
0.1246
0.13239
0.144322
0.129284
0.147609
0.112001
0.133162
0.152164
0.118247
0.151077
0.121806
0.148494
0.14863
0.127868
0.0723365
0.14615
0.12426
0.14146
0.146028
0.167188
0.145282
0.143113
0.13785
0.133853
0.143013
0.146119
0.130625
0.0942481
0.142718
0.16149
0.150767
0.171101
0.155787
0.143069
0.103771
0.122479
0.146066
0.131017
0.143085
0.117278
0.123873
0.160141
0.146973
0.146168
0.138613
0.135308
0.0970291
0.148115
0.132266
0.116784
0.142968
0.131701
0.149335
0.148818
0.166037
0.136719
0.143237
0.131225
0.153327
0.134185
0.101845
0.149695
0.147839
0.137325
0.0719342
0.148421
0.144461
0.134478
0.141498
0.132266
0.148787
0.14725
0.102902
0.152464
0.12347
0.150454
0.142548
0.148463
0.146499
0.138491
0.143602
0.15175
0.143543
0.147369
0.14855
0.148231
0.148862
0.147697
0.142349
0.148587
0.1437
0.133163
0.144388
0.132743
0.136599
0.134114
0.147684
0.14197
0.147433
0.115364
0.130943
0.0947393
0.141953
0.146064
0.148854
0.0529977
0.147306
0.14908
0.14565
0.148317
0.115492
0.148446
0.148507
0.14873
0.134381
0.144173
0.135133
0.0791222
0.145258
0.136664
0.148985
0.143001
0.115726