/*--------------------------------*- C++ -*----------------------------------*\
| =========                 |                                                 |
| \\      /  F ield         | OpenFOAM: The Open Source CFD Toolbox           |
|  \\    /   O peration     | Version:  v2012                                 |
|   \\  /    A nd           | Website:  www.openfoam.com                      |
|    \\/     M anipulation  |                                                 |
\*---------------------------------------------------------------------------*/
FoamFile
{
    version     2.0;
    format      ascii;
    class       volVectorField;
    location    "400";
    object      ddtCorrDdt0(U);
}
// * * * * * * * * * * * * * * * * * * * * * * * * * * * * * * * * * * * * * //

dimensions      [0 1 -2 0 0 0 0];


internalField   nonuniform List<vector> 
18355
(
(-0.0023939 0.00133475 -1.71022e-17)
(0.0439745 0.000446718 -9.17457e-18)
(-0.000508644 -0.000464407 1.28533e-18)
(-4.94474e-05 0.000204061 -1.31604e-20)
(0.00090624 0.000846508 4.19462e-20)
(-0.0114534 0.0127579 2.65012e-17)
(-0.000156166 3.69148e-05 3.19418e-19)
(-0.00367009 0.00053075 5.1656e-18)
(0.000206832 -0.00157304 -1.85754e-18)
(0.0310815 -0.00375256 -3.73108e-19)
(0.00012945 0.000152964 -1.01696e-18)
(-0.0350857 0.00510952 1.73602e-17)
(-0.00307234 -0.00284635 -3.82838e-18)
(-9.7499e-05 -0.000678355 -4.99075e-18)
(-0.000813831 0.000682953 -6.37143e-19)
(-0.00156612 -0.000358619 -4.60922e-18)
(0.00675399 -0.000234556 -4.48178e-18)
(-0.000202753 0.000319413 -1.71102e-19)
(-0.000852657 -0.000161501 4.72658e-18)
(-0.0450027 0.016957 -3.23736e-18)
(-0.00187177 -0.000798183 -4.96614e-18)
(-0.000715324 -0.00103935 5.79113e-18)
(-0.0201756 -0.0203305 -1.30381e-17)
(0.000932445 0.000797598 5.7244e-19)
(0.00292264 0.00177136 -2.24927e-18)
(-0.000105664 -0.000607751 6.05751e-18)
(8.7925e-06 -0.00022727 -6.35163e-18)
(-7.16945e-05 -0.00155052 -1.24734e-18)
(-0.0474268 -0.128295 1.18542e-17)
(-0.000560942 -0.000813731 -5.05193e-18)
(0.000711289 0.000484217 8.89149e-19)
(0.00134782 0.00132158 -1.16052e-20)
(-0.000200594 0.000314622 -1.67845e-19)
(-9.88243e-05 1.52661e-05 6.4126e-19)
(-0.00309129 0.00219875 -2.00383e-18)
(-0.00240935 0.0013728 1.68081e-17)
(0.000121721 -0.00146843 -9.13591e-18)
(-0.00845819 0.00388346 1.16515e-17)
(-0.000112334 -0.00153656 -4.2317e-18)
(0.000139185 0.000146954 2.75832e-19)
(-0.00011099 -0.000667694 1.87882e-18)
(-0.00647051 -0.00347096 3.92816e-19)
(-0.000530606 -0.00046349 1.56479e-18)
(0.0239066 -0.00429807 -1.55089e-17)
(7.48767e-05 1.56145e-05 -1.44872e-21)
(-0.00859186 0.00428548 -3.66297e-17)
(-0.00219446 0.00140136 -2.96456e-17)
(-0.000482313 -0.00160876 7.08566e-18)
(-0.00232616 0.00144303 8.70922e-19)
(-0.000248808 0.000291503 -6.09683e-20)
(7.23093e-05 5.90039e-05 -6.04077e-19)
(-0.000511632 0.000362275 8.1286e-19)
(-2.97309e-06 -0.000138197 -2.61062e-18)
(0.0188701 -0.00711206 6.09213e-18)
(-0.000182901 -0.000175974 -2.4047e-18)
(-0.000125721 -7.62014e-06 1.35546e-18)
(0.00867418 0.0426889 1.8151e-18)
(-0.000846963 0.000688503 2.66567e-19)
(-0.000745914 -0.0114153 8.79749e-18)
(-0.00118913 0.00547225 6.33369e-18)
(-0.00024958 0.000265154 6.31233e-20)
(-0.0077191 0.00471842 1.99098e-17)
(-0.000163776 0.000352536 -1.00835e-19)
(-0.00453966 -0.000550956 7.82041e-19)
(-0.0353499 0.00595813 -6.68751e-18)
(-0.00233278 0.00131802 -9.8842e-18)
(-0.0167337 -0.110339 -8.33447e-18)
(-0.000918692 -0.00295134 -1.67345e-17)
(1.37923e-05 -0.000282887 7.48047e-18)
(-0.000739751 -0.00103961 -1.60047e-17)
(-0.00203631 0.00203244 2.07529e-17)
(-9.27559e-06 -5.83443e-05 -1.24417e-18)
(-0.00127214 0.00590227 -3.20768e-17)
(-0.00027883 4.294e-05 -1.78141e-18)
(-0.00343118 0.000522536 -5.00177e-18)
(-0.000159696 2.38138e-05 -4.30948e-19)
(0.02596 -0.00736121 3.37348e-18)
(0.00111187 0.00137097 -2.2735e-18)
(0.00343329 0.00363107 8.8882e-19)
(-0.000448641 0.00032549 -1.67234e-19)
(-0.000161167 5.62406e-05 -1.755e-18)
(-0.0153084 0.00413588 -4.76697e-17)
(-0.00183086 -0.000767088 3.49268e-18)
(-0.00451212 0.000616221 -3.54522e-18)
(-9.99182e-05 -0.00059043 -5.04446e-18)
(-0.00309057 -0.00259049 -6.3284e-18)
(0.0281302 -0.0283285 -6.77651e-18)
(-0.0507342 0.0188972 -9.8937e-20)
(-0.0412499 -0.134755 6.85828e-19)
(0.0108243 -0.0169577 1.82266e-18)
(-0.0346364 -0.00991308 -4.75729e-18)
(7.08413e-05 1.40272e-05 -1.17152e-19)
(-0.000160908 -0.000342435 -2.84838e-18)
(8.67748e-05 0.000100058 -7.85927e-19)
(-0.00706365 -0.147684 5.07952e-18)
(-0.0233795 -0.0188269 9.58687e-18)
(-0.000255956 0.000548621 6.41163e-19)
(0.000122738 0.00269857 9.45029e-18)
(0.021648 -0.00643512 5.81157e-18)
(0.00490615 -0.000719881 -4.91635e-17)
(-0.009412 -0.160238 3.47306e-18)
(0.00578354 -0.000464269 -1.04708e-18)
(-0.00345544 0.00145646 1.72343e-17)
(-0.00368351 -0.0157223 1.98554e-17)
(0.00128309 0.000773862 2.29808e-18)
(-0.0139554 0.00036437 2.44961e-17)
(-0.0284769 0.00301615 -3.0246e-17)
(-0.00894096 0.00116878 1.27887e-17)
(-0.00210236 0.0021296 6.29547e-18)
(0.00251526 -0.00911543 3.8099e-17)
(-0.000546936 -0.000677857 1.40026e-18)
(-0.000355462 -0.00144972 2.29711e-19)
(-8.75944e-05 -0.00065517 -5.97338e-18)
(-0.000328502 -0.00147203 -2.0062e-19)
(0.0253521 0.00104602 1.27823e-18)
(-0.00010394 1.48776e-05 7.84815e-19)
(0.000138824 -0.0113818 9.98749e-17)
(0.0233035 -0.00633224 -4.74261e-18)
(-0.000540587 -0.0111127 -3.71634e-17)
(-0.00357427 0.00137583 -1.42057e-17)
(0.028943 -0.00504391 6.66241e-18)
(0.00998231 0.0161502 -3.10473e-17)
(0.00117355 0.00131514 2.26355e-18)
(-0.00210639 0.00213731 -1.39445e-17)
(-0.000253258 0.000556395 -5.87363e-19)
(-0.00935768 0.000989983 1.4566e-17)
(-0.000493119 0.000381937 -1.7099e-19)
(-9.89694e-06 -0.000188437 -1.46162e-18)
(-0.0276459 0.0117468 -6.91837e-17)
(8.1587e-05 9.1495e-05 8.44314e-19)
(6.71006e-05 6.20138e-05 5.87902e-19)
(-0.00271908 -0.0403437 -9.35956e-17)
(-0.00455418 0.00348897 3.96491e-18)
(0.000265888 0.00266311 -8.92082e-18)
(-0.00373314 -0.00260078 3.49396e-18)
(-1.1596e-05 -0.000213492 5.45524e-18)
(-0.000624561 0.000610409 3.51332e-20)
(0.000142881 0.000160718 -9.94825e-19)
(-0.000296246 -0.000649185 7.81747e-19)
(-0.00415351 0.00344273 2.07378e-19)
(-0.0119803 -0.162196 7.1001e-18)
(-0.011837 -0.16335 -2.26752e-18)
(-0.00111431 -0.00015199 -4.22408e-18)
(-0.000520042 -0.000681725 -4.66526e-18)
(-0.000276216 -0.00907579 4.03134e-17)
(-0.00066022 -0.00109724 5.96387e-19)
(-3.66663e-05 -0.00199858 -5.79055e-18)
(0.0213638 -0.0555079 -2.35319e-17)
(-0.000148671 0.00159898 3.8511e-19)
(0.0106974 -0.0655015 3.56275e-17)
(0.000498031 0.000792572 -1.20217e-18)
(-0.000696386 -0.0010673 -5.23221e-18)
(-0.0031026 0.00208571 2.62068e-18)
(-0.00059514 -0.0113091 -6.52041e-17)
(-0.00361461 0.0234481 -2.65649e-17)
(-5.45005e-06 -6.37374e-05 1.91423e-18)
(-0.00816898 -0.0413762 2.42421e-17)
(-0.000465064 -0.0105851 3.34772e-17)
(-6.48952e-06 -6.47599e-05 -4.08028e-18)
(-0.00848867 0.00373468 2.26865e-17)
(-0.00238744 1.08366e-05 -7.62392e-19)
(-0.0016613 0.000928482 -2.66274e-18)
(-0.00181947 -0.00213376 -2.26786e-17)
(0.000348471 0.00285368 -1.36787e-18)
(-0.0241769 0.0520511 1.52298e-17)
(-0.00443812 -0.0120948 -1.89625e-17)
(-0.0159109 2.64572e-05 -7.29341e-17)
(-0.00243962 0.00152711 1.36065e-17)
(0.00136108 -0.00907533 7.61931e-18)
(-0.00026029 0.000216897 9.30577e-19)
(0.0596542 -0.0683803 -6.3593e-18)
(-0.0275291 -0.0171577 -1.6974e-17)
(0.000102761 0.000108799 -5.67065e-20)
(0.000116834 0.000119206 1.4984e-19)
(-0.00155434 -0.000312452 -2.38249e-18)
(0.0430916 0.000622254 -1.45156e-17)
(0.00888844 0.0185832 4.74259e-18)
(-0.000169072 -0.000271296 -4.17557e-18)
(-0.0156793 0.0147147 2.50736e-17)
(-0.00734739 -0.00302098 -2.12051e-17)
(0.00145369 -0.00623269 6.1512e-18)
(0.00069268 -0.00963044 -7.39539e-19)
(-0.000950129 0.00274864 4.27918e-19)
(-0.000146029 -5.65671e-05 -2.08345e-18)
(-0.0371491 0.0371877 -1.49007e-17)
(0.0411911 0.000785397 -3.19332e-18)
(0.0020191 -0.0221371 -3.0116e-18)
(-0.0267064 -0.00658129 2.70502e-17)
(-8.05894e-05 -0.00159337 -2.80937e-18)
(0.00727271 -0.000204241 -1.33003e-17)
(0.0103535 0.0413339 1.6147e-18)
(-0.000565169 -0.000424518 -2.49595e-19)
(0.000477362 0.00282228 -3.60319e-18)
(0.0164719 -0.00696996 -6.98861e-18)
(-0.00397789 -0.00318089 -3.08503e-17)
(-0.000837894 -0.000940832 1.43757e-19)
(0.0146001 -0.022102 -2.55312e-17)
(-0.000814806 0.00277002 1.43334e-19)
(-0.00285911 0.00440434 -2.0668e-17)
(0.00010338 0.000120019 -4.52514e-19)
(-0.000309513 0.00114264 -4.47844e-18)
(-0.000949767 -0.00146277 -1.78094e-17)
(-0.00495691 -0.0018066 1.93434e-17)
(-0.00113952 -0.0210998 -1.33171e-17)
(-0.056445 0.00136424 -1.1342e-16)
(-0.00262696 -0.000311364 4.2351e-19)
(0.000217077 -0.0104813 -9.18681e-17)
(-0.010441 0.0124982 7.27978e-17)
(-0.0264164 0.014584 -3.65597e-17)
(-0.00267386 0.00461149 1.73493e-17)
(-0.000677728 0.000566954 -4.0486e-21)
(0.000456048 0.000750439 3.69121e-18)
(-0.0524871 0.0113966 2.23176e-17)
(-0.00106281 -0.000154815 5.11836e-18)
(-0.000257979 0.000183586 -9.48042e-19)
(-0.0141501 0.00454538 1.11862e-17)
(-0.0982822 0.0710063 -2.38768e-17)
(-0.0461246 0.00892329 4.31664e-18)
(-7.39558e-05 -0.000681122 5.87414e-18)
(-0.0001413 0.00153481 2.19115e-18)
(-0.00980047 0.0100346 1.70368e-17)
(-0.00032984 -0.000612469 -3.01222e-18)
(-0.00440556 0.0004758 3.16839e-18)
(-0.000613751 0.000602492 1.21335e-19)
(-0.00829893 0.000102396 4.26318e-17)
(-0.000775187 -0.000792758 -2.81038e-19)
(-0.001601 0.0074879 8.22092e-18)
(0.040024 -0.00235631 -6.12737e-18)
(-8.35139e-05 -0.0071912 -1.31465e-17)
(-0.000673871 0.000547992 -5.2439e-19)
(-8.58479e-06 -0.000172766 7.39795e-18)
(0.00335104 0.00333498 2.30053e-18)
(-0.00221175 0.000460247 -9.97051e-19)
(-0.00192636 0.00772427 -2.00896e-17)
(-0.00132947 0.000374008 1.10571e-18)
(-0.000111486 -0.000543414 2.86215e-18)
(-0.000159921 -0.000306116 4.76527e-18)
(-0.0099677 0.00206398 -1.03375e-17)
(-0.0602319 -0.000768703 -1.93721e-17)
(-0.0380017 0.000506555 3.01134e-17)
(-0.00200552 0.00213145 1.34912e-18)
(0.00281934 -0.00785712 2.54588e-17)
(0.000791265 0.000472222 7.18189e-20)
(-0.000276473 0.000144359 7.83447e-19)
(-0.000789031 -0.000892164 -4.53752e-18)
(0.0417417 -0.00171728 8.68499e-18)
(-0.0227564 0.0157402 -5.2441e-17)
(6.36613e-05 -0.00954803 5.27707e-17)
(-0.00232128 0.0231883 2.72891e-17)
(-0.00235013 7.96977e-05 1.96458e-18)
(-0.000347981 0.00113058 -9.308e-19)
(-0.00196029 -0.014729 -1.80009e-17)
(-0.000819086 0.00297652 9.92015e-18)
(-0.02439 0.0155069 -1.52974e-17)
(-0.000818104 -0.00069467 -8.52191e-18)
(0.00385965 0.00254369 -2.05079e-17)
(-0.11872 0.0679617 1.53783e-17)
(-0.00826754 0.00309648 -1.93546e-17)
(-0.00065174 -0.0005824 -5.95777e-18)
(-0.000104232 -4.53388e-06 1.28233e-18)
(-0.00231619 0.00128387 1.43991e-17)
(-0.00176176 0.00207062 7.20438e-18)
(-0.00857898 -0.00236691 1.67927e-17)
(-0.0047868 0.00331246 -9.0794e-18)
(-0.000176446 -7.37072e-05 -5.88071e-19)
(-0.000242101 0.000159875 -5.34721e-19)
(-3.98292e-06 -0.000178927 2.98438e-18)
(0.0024542 -0.00956012 -1.97671e-17)
(-0.00704247 0.000701313 -3.19122e-18)
(0.000376787 -0.00703583 7.38002e-17)
(-0.00119516 -0.00057902 -4.90645e-18)
(-0.0354974 -0.0908299 4.07359e-18)
(-0.0275275 -0.00810409 -2.26732e-17)
(-0.0130981 0.000470912 -4.29053e-17)
(-0.000649104 0.000838725 2.47055e-18)
(0.0153311 -0.0219861 -1.84968e-17)
(-0.000460397 0.000359412 -1.76854e-19)
(-0.000212009 -8.4444e-05 7.04967e-18)
(-0.0133285 -0.0109069 -3.94595e-17)
(-0.000118338 3.25562e-06 5.11376e-19)
(-0.000164876 1.19742e-05 1.84515e-18)
(-0.0121922 -0.001236 2.0783e-17)
(-0.00034754 -0.000371816 -2.2732e-19)
(0.000871094 -0.179232 -1.1037e-17)
(-0.000691959 0.00300792 -7.95022e-18)
(-0.000287965 -0.00171366 2.00781e-17)
(-0.000117029 2.9571e-06 -3.6189e-19)
(-0.00248057 0.00155508 -9.11403e-18)
(-0.0262395 0.00622174 2.87307e-17)
(0.00127936 0.00137324 -5.00858e-18)
(-5.34808e-05 0.000194934 -5.59534e-21)
(7.63352e-06 -0.000368837 2.07908e-18)
(-0.0210007 0.00526399 1.68086e-17)
(0.0320113 -0.00333321 -1.10752e-17)
(-5.53055e-06 -0.000188393 -1.90761e-18)
(-1.73477e-06 -5.42004e-06 9.33261e-19)
(-0.101245 0.0665873 4.72481e-18)
(-0.00341994 0.00164999 2.37334e-17)
(-0.000938566 0.0252799 5.45649e-18)
(-0.00433541 -0.00847922 -2.08837e-18)
(-0.000204764 -5.3317e-05 -1.57049e-18)
(-0.00187531 0.00197112 -6.02145e-17)
(-0.000599955 -0.00125798 8.9462e-18)
(-3.17829e-06 -9.83088e-06 -2.96147e-19)
(-0.00399755 -0.00828556 7.01704e-18)
(-0.0265226 0.052784 -3.36521e-18)
(-0.0115676 0.088933 4.1417e-18)
(-0.0226531 0.00519257 -3.83556e-17)
(8.1875e-05 7.82153e-05 8.75592e-19)
(0.00143845 -0.00641737 -1.01053e-17)
(0.00123715 0.000651338 5.09809e-19)
(-0.000830193 -0.000225989 -6.37154e-19)
(-0.00409381 0.0156521 3.42418e-17)
(-0.000480402 -0.000592569 -2.14215e-18)
(0.00319379 -0.00906321 6.10199e-18)
(-0.00627077 -0.00361239 -4.9873e-18)
(-0.000171011 -0.000293027 -2.18474e-18)
(3.6136e-05 7.26316e-05 1.07509e-19)
(0.00357087 -0.00721297 -6.60386e-19)
(0.0486275 -0.0631861 1.5093e-17)
(-0.0119944 0.0133086 -1.42238e-16)
(-0.000972547 0.000453903 -4.18079e-19)
(-0.00177383 -0.00205971 2.43737e-17)
(0.0235279 -0.00329529 8.81144e-18)
(0.00024042 0.000261115 6.13782e-18)
(-0.0584083 -0.00318638 1.05251e-17)
(0.00402429 0.00286103 1.3842e-18)
(-0.00305513 -0.00129674 -1.85142e-18)
(-0.0539139 -0.00222966 2.66997e-18)
(8.06409e-05 6.76415e-05 -8.38756e-19)
(-0.00495603 -0.0123703 9.30859e-18)
(-0.000785843 -0.000342575 7.59274e-18)
(-0.00388743 -0.00277528 -2.86262e-18)
(-0.00010567 -1.76072e-05 2.00928e-18)
(-0.00116891 0.0242396 -1.26112e-17)
(-0.0103717 0.0061325 -3.40839e-18)
(3.008e-06 -0.000211375 1.97125e-20)
(-0.00229542 -0.00194135 1.02802e-16)
(-0.00253117 0.0020671 -6.03848e-18)
(-6.20884e-05 -6.43995e-05 -7.0818e-19)
(-0.00224317 0.00144327 3.36356e-17)
(-0.00823666 0.00520874 -1.39688e-17)
(0.0122667 -0.0190589 2.96237e-18)
(0.0192977 -0.00342243 2.04281e-18)
(-0.00424275 -0.00915246 1.98854e-17)
(-0.000780645 -0.000732329 4.0999e-18)
(-0.000149357 0.000346708 1.09021e-19)
(-0.0362577 -0.0139695 -3.06078e-18)
(0.00107794 -0.00565005 -6.76105e-18)
(-0.000150869 -0.000400114 -2.38015e-18)
(-0.00123685 0.000285844 -3.12593e-18)
(-0.026695 0.0931269 -6.6991e-18)
(-0.0367158 0.0391657 1.19274e-17)
(-0.00228455 -0.0135545 5.41132e-18)
(-0.0316039 -0.0155366 -2.35526e-18)
(-0.00010775 -0.000350966 -4.7165e-18)
(-0.000554943 0.00133798 3.85165e-18)
(-2.95761e-05 -0.0105523 -7.02956e-18)
(-0.000541927 -0.000653921 1.71692e-18)
(-0.00129915 0.000366249 -3.78064e-19)
(-0.0230967 -0.0149072 -9.39287e-18)
(-0.00259713 0.00517623 -8.87796e-18)
(0.000591456 0.0020072 7.26252e-18)
(0.0266702 -0.0741732 -4.39092e-18)
(-2.61831e-06 -0.000103838 -4.93404e-19)
(-0.00272396 -0.0038394 4.12441e-17)
(-0.0100161 0.0105579 -2.89671e-17)
(-0.0302999 0.000401287 -1.61997e-17)
(-4.16975e-05 0.000185712 -3.99863e-20)
(-0.000483579 -0.00103351 -3.72227e-18)
(-0.000247345 -0.00039257 -7.26866e-18)
(-0.000317956 0.000570286 -6.4494e-20)
(-0.00438689 -0.00468619 1.68608e-17)
(-0.000308161 0.000568871 -7.22426e-19)
(-0.002629 0.00154551 2.64611e-17)
(-0.000235016 -0.000349829 -4.86099e-19)
(-0.00178293 0.00064302 -7.48921e-19)
(-0.000102491 -0.000386034 -8.72489e-20)
(0.000155538 -0.00155677 -4.71679e-18)
(-6.19699e-06 0.000418617 1.61565e-18)
(-0.000867919 9.02953e-05 -1.07475e-18)
(-4.68258e-05 0.000428628 -1.02603e-18)
(-2.0102e-05 0.000398342 -7.52583e-20)
(-0.001565 -9.55394e-05 1.88743e-18)
(-0.00107175 -0.00722272 -1.9316e-17)
(0.0115892 -0.161599 -1.16583e-17)
(-0.000598927 0.000626756 -2.71634e-19)
(0.0411922 -0.0149513 -3.44622e-18)
(-0.00323441 -0.0016989 -6.00543e-18)
(0.00966605 -0.143524 -7.78033e-18)
(-0.00175474 0.00366248 1.19945e-17)
(-0.00155019 0.000217294 1.09897e-18)
(-0.000795765 -0.000903608 3.64746e-18)
(0.0276351 -0.0265965 -1.73473e-17)
(0.00011761 -0.00145951 -7.24076e-18)
(-0.000102516 1.10118e-05 -1.61638e-18)
(-0.000114489 -0.000522846 -1.30522e-19)
(-3.23192e-06 0.000165821 -3.54571e-20)
(0.0219128 -0.00375831 7.90145e-18)
(-0.00130848 0.00115084 -2.32254e-19)
(7.55499e-05 2.20491e-05 5.79378e-20)
(-0.00324643 0.00184433 -1.11577e-17)
(-0.0026229 0.00149746 -3.08245e-17)
(-0.000557498 -0.000631679 1.83961e-18)
(0.000254173 0.00026667 7.59836e-19)
(-0.00277511 0.00737969 1.19132e-17)
(-0.000783366 -0.000969736 -1.2145e-18)
(-0.000477474 0.000350966 6.67899e-20)
(0.00112377 -0.0132089 1.82085e-17)
(-0.000321764 -0.000312175 6.21197e-18)
(0.000158567 -0.0107895 -3.06839e-17)
(0.00714784 -0.000253917 8.12482e-17)
(-0.0244187 -0.0140426 -2.3122e-17)
(-6.57621e-07 -0.0019454 -1.1608e-17)
(0.00131101 0.00071116 1.16914e-18)
(-0.025532 0.00787025 -2.86874e-17)
(-1.38857e-05 -7.3372e-05 -1.19432e-19)
(-0.000338341 -0.000432638 4.27665e-18)
(-0.00166322 -0.0130058 -8.55972e-17)
(-5.40554e-06 -9.85405e-05 -2.49963e-18)
(9.3824e-05 9.56064e-05 -2.7431e-20)
(0.00700277 -0.000142306 -1.22052e-17)
(-0.000275424 7.69891e-05 8.81312e-19)
(-0.00911085 0.0067667 -9.80036e-18)
(0.00116696 0.0107642 -9.46605e-19)
(0.0062109 0.0210268 2.09148e-18)
(0.00660806 -0.000369154 -1.24356e-17)
(-0.000510544 -0.00129309 -2.18433e-18)
(-0.000345478 -0.000388047 -2.28668e-18)
(0.0200611 -0.000561191 1.21243e-17)
(-0.0107222 0.0134959 -5.1846e-18)
(0.0706095 -0.0606894 2.72466e-17)
(-0.00554993 -0.0222521 -7.92176e-18)
(-0.000219399 -0.000269178 1.84055e-18)
(-0.000143374 -3.88876e-05 -1.48946e-18)
(-0.000637828 -0.0011434 5.7746e-18)
(-0.0420296 0.0427268 2.25934e-17)
(-0.00426551 -0.0019943 1.32055e-18)
(-0.000874068 -0.000128148 -3.08879e-18)
(-8.22585e-07 -6.01857e-05 -4.54745e-20)
(-0.00104687 -0.000267385 3.4422e-18)
(-0.00274479 -0.00403641 -1.78445e-17)
(-0.000355312 -0.0104938 -3.44496e-17)
(-0.00232211 -0.00046078 -6.28242e-18)
(-0.000600319 -0.00116483 1.02313e-18)
(-1.051e-05 -0.000145795 2.59772e-19)
(-0.00168101 0.00349301 -6.57229e-18)
(-0.0391524 -0.00822735 -5.33685e-18)
(0.0311127 -0.0033808 1.21556e-17)
(0.00347735 0.00283858 5.13073e-18)
(0.036601 -0.0358575 1.39035e-17)
(-0.00196194 -0.00480721 -3.67833e-17)
(-0.00317431 -0.0038461 2.84921e-18)
(0.0214348 -0.00542659 -7.36983e-18)
(0.000442281 0.000582169 2.86431e-18)
(-0.000218235 -0.000117178 -2.46082e-18)
(1.87669e-05 -0.000349328 3.86638e-18)
(-0.00057742 0.000631992 -1.18834e-19)
(-0.00393938 -0.00481641 1.15862e-17)
(-0.00017837 3.13016e-07 8.73554e-19)
(8.10007e-05 2.13703e-05 1.62018e-19)
(0.00542052 -0.000528461 1.74763e-17)
(-0.00260195 -0.00433938 3.08993e-17)
(-0.00229731 0.00139974 -4.08721e-18)
(0.0119701 -0.017111 -2.56388e-18)
(-0.00200129 -0.00500072 2.48143e-17)
(0.0423143 0.000574962 4.6178e-18)
(-0.000642576 9.10179e-05 1.42905e-19)
(-4.03154e-07 0.000406255 2.34377e-18)
(-0.00049147 -0.000756563 9.47982e-18)
(-0.000160737 6.98517e-05 2.69147e-18)
(-8.98586e-07 -4.0117e-05 -5.91157e-19)
(-9.30044e-06 -0.00012001 -6.01375e-19)
(-0.000196 -4.14416e-05 1.81497e-18)
(-0.0170458 -0.155237 -2.34891e-18)
(-0.000963858 0.000497382 1.11654e-19)
(6.62841e-05 4.30946e-05 1.41338e-19)
(0.014281 0.0152476 1.00712e-16)
(-0.000109187 0.00495329 7.83911e-20)
(-0.000216397 -0.000130713 3.01233e-18)
(0.00076689 0.0012344 9.20618e-18)
(-0.00512948 -0.00303291 -1.29907e-18)
(-0.00926896 -0.0114271 3.45716e-17)
(-0.00148793 -0.000306285 8.3264e-18)
(-0.000193696 0.000514058 -3.38e-19)
(0.0183028 -0.0216119 3.70161e-18)
(-0.000871982 -0.00137932 1.67711e-17)
(-0.0530449 -0.0917069 -7.11826e-18)
(0.00434154 0.00291725 -6.04258e-18)
(-0.00034389 0.000572842 -3.58389e-19)
(0.00393931 -0.000573061 2.70161e-17)
(0.000288652 0.0048222 1.4421e-18)
(-0.000167375 0.00027474 8.46303e-20)
(-0.022894 0.0163603 9.56058e-17)
(-0.0105703 -0.167589 -4.79861e-18)
(-0.00137237 0.00202857 3.79344e-17)
(-0.000350342 0.000570371 -1.57192e-19)
(-0.000175891 0.000496499 -8.19102e-19)
(-0.00214905 0.000436149 6.94201e-19)
(-0.0216224 0.00818406 -6.5318e-18)
(-0.000330593 -0.00135996 6.26694e-18)
(-0.0422425 -0.0867889 1.00382e-18)
(-0.0403054 0.0461881 -6.63714e-18)
(0.0365432 -0.0166838 5.89589e-18)
(0.00190653 0.0182977 -4.45555e-17)
(5.45771e-06 0.000148027 -5.04297e-21)
(0.00174022 0.0107057 4.74248e-18)
(0.0384548 0.00219421 -1.48629e-17)
(-0.0251967 -0.0184933 1.14298e-18)
(0.00558489 0.00979177 -1.10056e-17)
(-0.000557999 -0.00114932 -2.43996e-19)
(-0.002195 -0.000575213 -3.38459e-19)
(-0.00237258 -6.9901e-05 -1.25549e-18)
(-0.00316023 -0.0109988 1.19586e-17)
(0.00567197 -0.000434498 -2.29601e-17)
(-0.0348939 -0.0119053 5.91926e-18)
(-0.000861437 -0.000803334 -2.88421e-18)
(-0.000313891 -0.000613598 -3.25073e-18)
(-6.03558e-05 -0.000589616 -1.42757e-18)
(-0.00434417 -0.00209556 -5.42496e-18)
(-0.000188651 -1.77866e-05 -1.58819e-18)
(0.0213309 0.0024483 -7.05065e-18)
(-0.00246235 -0.000118577 -1.62415e-19)
(0.0219807 0.00193922 -6.67116e-18)
(-0.000309813 -0.00097814 4.47952e-18)
(-0.00100108 -0.000281296 -2.4984e-18)
(-9.6455e-05 -6.48213e-06 -1.77944e-18)
(-0.000965856 -0.00280457 9.96869e-18)
(-0.00310243 0.000169824 9.71935e-19)
(-0.0395274 -0.00604803 -7.64889e-18)
(-0.000298285 -0.000262592 1.1312e-18)
(-0.0154314 0.00496145 -7.74032e-18)
(-0.0161373 -0.0159191 1.23641e-17)
(0.00216111 0.00521076 -4.34041e-18)
(-0.000661198 -0.000550651 -4.99589e-18)
(-0.000767113 -0.0014634 -6.4737e-18)
(0.00384249 0.00542662 -2.92807e-18)
(-5.07371e-06 -0.000106135 -4.87483e-19)
(-0.00216892 0.00162714 -4.04445e-18)
(-0.00283628 0.0049466 -5.87454e-18)
(0.00194324 0.00499227 3.46859e-18)
(-0.00286924 0.00618937 3.1591e-17)
(-0.00128406 0.000299267 3.91625e-18)
(-0.00015517 0.000268653 -9.90818e-20)
(1.86153e-05 -0.000279586 -7.24011e-20)
(3.74811e-07 -0.000149607 -1.74357e-18)
(-0.00252197 0.00152705 3.13169e-18)
(0.000695745 0.00198146 -2.73045e-18)
(-0.00789036 0.00411603 -2.78274e-18)
(-0.000626563 6.27945e-05 5.63147e-19)
(0.000960143 0.000798573 -1.06313e-18)
(0.120315 -0.00338996 -3.37123e-17)
(7.08772e-05 5.21325e-05 9.67633e-19)
(0.000506529 -0.00308575 -1.3633e-17)
(-0.000375303 -0.00138985 2.82549e-18)
(-0.0067519 0.00509937 3.19429e-17)
(-0.000309088 -0.00166943 -2.02015e-17)
(0.0225647 -0.0042783 9.53374e-18)
(-0.000547962 0.000936535 -2.70376e-18)
(0.015589 -0.00204497 8.43107e-18)
(-0.00115884 -0.00165088 -1.22051e-17)
(-0.000560187 -0.00160596 6.45153e-18)
(-0.112372 0.0623106 -3.3726e-18)
(0.117435 -0.00584655 -6.23038e-18)
(-0.0613933 0.0129752 -4.3988e-18)
(0.0025385 0.00515104 -2.4325e-18)
(-0.00125316 0.00113327 4.37713e-18)
(-0.000367673 0.000582503 5.15751e-20)
(-0.000277158 -0.000505023 -3.89164e-18)
(-0.0119591 0.0290226 4.81464e-18)
(-0.00233962 0.00158922 -2.80147e-17)
(-0.00315844 -0.00111748 -1.38795e-18)
(-0.00709795 9.80197e-05 8.14741e-18)
(-0.0158993 -0.159698 -2.628e-18)
(-0.0181269 0.0594711 2.05179e-17)
(-8.37245e-05 9.31064e-08 1.60953e-18)
(-0.0153882 0.0151745 -3.01287e-17)
(0.0107438 -0.0369288 -2.87089e-17)
(0.000932931 0.00128236 2.67224e-19)
(-0.00027075 -0.000524045 7.41021e-18)
(0.000388565 -0.0031569 -2.22492e-17)
(0.0110365 -0.0159219 5.57828e-18)
(-0.00235591 0.0012624 6.3185e-18)
(-3.45944e-05 -0.000318804 -1.62388e-20)
(-0.00043636 -0.00547496 -7.39809e-17)
(-0.00303747 0.00578369 -1.61238e-17)
(-0.00323635 0.0022732 -9.5567e-18)
(-0.000876403 -0.00264608 -2.48891e-17)
(-0.00636542 -0.0131444 -1.80045e-19)
(-2.65929e-05 0.00255876 -8.96054e-18)
(-0.0106145 -0.00147115 -5.83348e-18)
(0.0463159 -0.000474581 -4.35619e-18)
(-0.0524146 -0.00465863 7.20913e-18)
(-0.00555346 0.012435 -2.8678e-18)
(-0.00361652 -0.0042984 9.99237e-18)
(-0.00961242 0.00175751 2.8779e-17)
(-0.000980137 0.00250259 4.572e-19)
(-0.000120659 -8.69402e-06 -2.15461e-18)
(0.000976136 0.0013353 -1.60214e-18)
(-0.000538464 -0.000793924 3.25172e-18)
(-0.000205722 -0.00877421 -7.41604e-17)
(0.00200062 -0.00886449 1.19795e-17)
(0.0414401 0.00122618 9.39645e-18)
(-0.00102603 -0.0070695 4.05828e-17)
(-0.0316269 0.00874527 7.6473e-18)
(0.0170318 -0.147022 2.49544e-17)
(-0.000267439 -0.00526355 3.25516e-17)
(-0.00163558 -0.000368061 6.00292e-19)
(0.045601 0.0004968 1.80958e-17)
(-0.051694 0.0114853 -2.75782e-17)
(0.000135928 0.000157816 1.54742e-19)
(-0.000642384 -0.00778776 1.57399e-17)
(-0.0163003 -0.137844 -3.16761e-18)
(-0.00186691 -0.0178302 2.56864e-17)
(-0.00248147 -0.000382058 4.13531e-18)
(1.9523e-05 0.000106014 7.01129e-20)
(-3.84045e-05 0.00246006 6.99106e-18)
(0.000746216 0.00297712 3.80043e-18)
(0.00411137 0.00518429 -6.99325e-20)
(-0.00446242 -0.00191569 1.46652e-17)
(-0.000502401 -0.000586876 -3.43487e-20)
(0.0364194 0.00111598 5.69322e-19)
(-0.00153974 -0.000214837 6.30003e-18)
(-0.00169317 -0.000778392 -1.54813e-18)
(-0.00232931 -0.0121494 -2.17693e-17)
(-0.000592807 -8.81994e-05 1.57321e-19)
(-0.00319304 8.40977e-05 1.87836e-18)
(-0.000847487 0.0120704 3.51264e-18)
(-0.000326619 -0.000342739 -5.72973e-18)
(-0.00111351 0.000923817 -1.74082e-18)
(-0.0475349 -0.00405549 -5.10073e-17)
(-0.000127375 4.85973e-05 3.14797e-19)
(-0.0158069 0.00562332 -9.59495e-18)
(7.79403e-05 5.9086e-05 -9.23448e-19)
(0.0110083 -0.170381 9.2144e-18)
(0.00272 0.00535599 6.56636e-19)
(-0.000965541 0.00850314 1.14744e-17)
(-0.00321187 -0.00123912 -1.09537e-17)
(-0.00184145 0.000934149 6.30706e-18)
(-0.020654 0.00780044 7.43332e-18)
(6.75543e-05 -0.00174116 -1.58167e-17)
(-0.00914352 -0.075213 1.42649e-18)
(-0.00499602 0.0211487 -3.4041e-18)
(0.000570918 0.000501573 -2.69951e-18)
(-0.0294062 -0.00412125 -2.47786e-17)
(-0.000886496 0.00895335 -7.70766e-18)
(-0.00580285 -0.0133477 -9.36609e-18)
(0.00326812 0.00109538 3.49863e-17)
(0.0141552 0.0145447 -8.4128e-17)
(-0.0358502 -0.00812092 4.19857e-18)
(-0.000495996 -0.000669074 6.58036e-19)
(-5.1462e-06 0.000189266 -6.58289e-20)
(-0.0079041 -0.171176 8.05167e-18)
(-0.000824895 -0.00145815 6.24327e-19)
(-0.00220134 0.00164713 2.52691e-18)
(-1.98754e-05 -0.00024252 -4.8723e-18)
(-0.00102602 0.00259072 1.57885e-18)
(0.0325214 -0.0357813 -1.26649e-17)
(0.0428881 -0.0246178 -2.79334e-17)
(-0.00257445 0.00155976 -2.14169e-18)
(0.0199293 -0.00223623 -1.62294e-17)
(-0.00373094 -0.00467385 -3.52488e-17)
(-0.00164311 0.000297147 -1.08259e-18)
(1.70342e-05 0.00011579 -1.42377e-19)
(-3.43642e-05 -0.000288049 5.04979e-19)
(-0.00334363 0.00173595 1.11555e-17)
(-0.00680546 0.000834699 1.01036e-17)
(4.0033e-05 0.000252478 1.58735e-18)
(-0.0597673 0.012163 -3.05741e-17)
(-0.00265434 -0.000338352 1.9733e-18)
(-0.00350309 0.0016017 -2.1257e-17)
(5.86689e-05 8.10923e-06 -1.75873e-19)
(-0.023513 0.0155642 -8.32789e-17)
(-0.00144752 0.00712471 8.14705e-17)
(-0.000541128 -0.000827779 -6.35034e-18)
(0.000132673 0.000135856 -3.43503e-19)
(-0.0102869 0.0153461 -8.83769e-18)
(-1.54106e-05 -0.000215261 4.16065e-18)
(-0.000166658 0.0002868 -1.95992e-19)
(0.0495151 -0.154575 4.12811e-17)
(-0.000890454 -0.00759808 3.46628e-17)
(-0.000559457 -0.00125135 -9.18894e-19)
(-0.000302534 -0.000519824 5.77395e-18)
(-0.00856494 0.0466104 -8.36069e-18)
(-0.00233832 0.00148127 -5.59758e-18)
(0.00374762 0.00374096 1.44017e-18)
(0.000955736 -0.00548078 6.23592e-19)
(-0.000841368 0.000105309 3.929e-18)
(0.0364947 0.00271538 1.17321e-17)
(-0.00554062 0.00580621 1.18253e-17)
(-0.000743822 -0.000895238 -6.41399e-19)
(-0.00115394 -0.00868692 5.32257e-17)
(-0.0293434 -0.0170272 -5.51476e-18)
(-0.000175449 2.41754e-05 2.38745e-18)
(0.0487992 -0.0247073 3.46482e-19)
(-3.86849e-05 0.000190973 1.1756e-19)
(-0.000306412 -0.000315713 2.69569e-18)
(-0.000309923 -0.00135724 3.37564e-18)
(0.000101497 -0.0035026 1.51979e-17)
(-0.00037102 0.00527305 1.08917e-17)
(-0.00242896 0.00202558 5.84175e-18)
(0.0461541 -0.000467393 -1.23147e-17)
(-0.00328131 -0.000110826 -1.3514e-19)
(0.00470619 -0.00322625 1.9854e-17)
(-0.00151122 0.0182954 5.13153e-18)
(-0.00109897 0.00237984 -3.10545e-18)
(-0.0335278 0.00732221 1.06621e-17)
(-0.000510008 -0.00103219 6.91411e-19)
(-0.0485795 0.0133064 -4.89769e-17)
(0.000832925 0.00129519 -8.56242e-18)
(0.0402499 -0.0331302 -4.71606e-18)
(0.0442425 0.000588885 -1.645e-17)
(-0.000929996 -0.000370155 2.28771e-18)
(-0.000863966 -0.0125056 -1.0124e-17)
(-0.00201883 0.000458802 -7.57912e-19)
(-0.0011317 -0.00169939 -4.46346e-18)
(-0.0591025 0.0117551 -4.25809e-17)
(-0.00114597 -0.00638693 -1.7041e-17)
(-0.0234307 0.00908071 -2.31111e-18)
(-0.000244797 -4.78404e-05 6.24283e-19)
(0.0210567 -0.00517174 -1.51216e-17)
(-0.000267489 -0.000763357 2.13891e-18)
(-0.0149357 -0.0638 -8.0981e-19)
(0.000411239 0.000670121 -8.97032e-19)
(-0.00251216 -0.000263575 6.86653e-19)
(0.0034342 0.00523086 6.70683e-18)
(-0.000323601 5.24643e-05 -1.67414e-18)
(2.95989e-05 1.97189e-05 9.09346e-20)
(-0.00452116 0.00984334 1.99582e-17)
(0.0144117 -0.0121223 -9.694e-18)
(0.00589542 -0.0246404 -1.82492e-18)
(-0.000139366 -1.9497e-05 -4.95283e-19)
(-0.000644672 -0.0100668 1.67091e-17)
(-0.00106918 0.00228782 3.1231e-18)
(-0.000327208 6.80176e-06 -1.39642e-18)
(-5.3729e-05 -0.000529305 9.47096e-19)
(-0.00203419 -0.00143514 -9.04702e-18)
(-0.0193198 0.00178706 1.74276e-19)
(-0.0533649 0.0122701 3.4282e-17)
(-0.0023026 0.00202719 -1.5589e-18)
(-0.000100774 9.22165e-06 -8.54547e-20)
(-0.00234469 0.000515345 4.40887e-18)
(0.0290574 0.0010864 -4.63132e-18)
(-0.00242469 -0.000297878 -2.63032e-18)
(-0.000477537 -0.000612377 3.43189e-18)
(-0.000330635 7.20367e-05 1.67926e-18)
(-0.00241209 0.000538536 -4.77182e-18)
(-0.00183442 0.0022571 9.69576e-18)
(0.0339603 -0.0012116 -1.6478e-18)
(-0.000565657 -0.000111655 -8.76282e-19)
(-0.0144013 -0.00201586 3.94501e-17)
(-0.0042139 -0.00314854 2.52575e-17)
(0.00165359 -0.0353614 2.23171e-17)
(-0.000754823 0.00188051 7.1836e-17)
(-0.0157729 -0.117201 -3.40543e-18)
(3.61905e-05 6.17619e-05 4.13179e-20)
(0.00528386 0.0187274 -3.79969e-18)
(-0.000547283 -0.000428263 -3.34165e-18)
(-0.00106128 0.000536535 -1.88338e-19)
(-0.000527118 0.00326545 4.48518e-18)
(-0.0218693 -0.134899 2.62381e-17)
(-0.000159087 -6.80613e-05 -1.39074e-18)
(-0.000388399 0.000578534 1.23967e-19)
(4.78187e-06 2.02962e-05 1.17185e-19)
(-0.0506171 0.0129256 6.1618e-17)
(-0.000989068 -0.00109337 -4.72392e-18)
(0.000605031 0.000515915 6.26198e-18)
(-0.00312608 0.000590425 1.64057e-18)
(-0.00233413 0.00122424 -2.83347e-18)
(0.00611864 -0.0223477 1.0505e-17)
(-0.0296022 0.00381477 5.09252e-17)