/*--------------------------------*- C++ -*----------------------------------*\
| =========                 |                                                 |
| \\      /  F ield         | OpenFOAM: The Open Source CFD Toolbox           |
|  \\    /   O peration     | Version:  v2012                                 |
|   \\  /    A nd           | Website:  www.openfoam.com                      |
|    \\/     M anipulation  |                                                 |
\*---------------------------------------------------------------------------*/
FoamFile
{
    version     2.0;
    format      ascii;
    class       volScalarField;
    location    "400";
    object      k;
}
// * * * * * * * * * * * * * * * * * * * * * * * * * * * * * * * * * * * * * //

dimensions      [0 2 -2 0 0 0 0];


internalField   nonuniform List<scalar> 
18355
(
0.000162234
0.0373257
0.000147561
0.000145558
0.000150364
0.000182687
0.000147538
0.000173931
0.000151243
0.0370801
0.000144997
0.0346619
0.000182899
0.000147993
0.000148492
0.000151603
0.0142631
0.000146194
0.0001483
0.0648452
0.000153907
0.000149452
0.0674776
0.000150386
0.000155894
0.000148907
0.000148374
0.000150892
0.0180845
0.000148094
0.000148951
0.00015236
0.000146174
0.000146783
0.000168657
0.000162926
0.000149882
0.000182934
0.000150707
0.000145144
0.000148006
0.000168403
0.000147594
0.0277723
0.000147873
0.000184063
0.000170026
0.000151892
0.000167888
0.000146331
0.000144982
0.000147181
0.000149833
0.0656456
0.000148455
0.000148378
0.000196632
0.00014861
0.00045759
0.000184872
0.000146367
0.00017747
0.000146074
0.000162702
0.0383746
0.000161633
0.00545072
0.000157657
0.000148414
0.000149329
0.000172029
0.000149683
0.000186108
0.000146586
0.000173892
0.000147511
0.067705
0.000152207
0.000159804
0.000146976
0.000147616
0.000269913
0.000153613
0.000164356
0.000148849
0.000182568
0.0322702
0.0648649
0.0176671
0.0686425
0.000221084
0.000148274
0.000148632
0.000144435
0.00557805
0.0644478
0.000147008
0.000156374
0.0627994
0.00870382
0.0099208
0.0103871
0.00016438
0.00485435
0.000151062
0.00018619
0.0227269
0.000177434
0.000161796
0.000185181
0.000147879
0.000150368
0.000148916
0.000150575
0.059982
0.000147852
0.000484741
0.068295
0.000472067
0.000164329
0.039911
0.000676981
0.000152087
0.00017185
0.000147
0.00017807
0.000147154
0.000149723
0.00304218
0.000144452
0.00014502
0.00242469
0.000171763
0.000156107
0.000161292
0.000149693
0.000147827
0.000144981
0.000147873
0.000172928
0.0120449
0.0190448
0.0001493
0.000147862
0.000190342
0.000149235
0.000153829
0.0191838
0.000152818
0.0127627
0.000149755
0.000149292
0.000167629
0.000430245
0.000184962
0.000149781
0.00245013
0.000469227
0.000149763
0.000178409
0.000155425
0.000153403
0.00015674
0.000156637
0.000206922
0.000274833
0.0651776
0.000166384
0.000200946
0.000146402
0.0298633
0.0607732
0.000144898
0.000144994
0.000151575
0.0277642
0.000182069
0.000148573
0.00165995
0.0503638
0.000165777
0.000200634
0.000158451
0.000147231
0.000208012
0.0294265
0.0703133
0.000202661
0.000151325
0.0112418
0.000196265
0.000147638
0.000156455
0.0139376
0.000162575
0.000149412
0.000892533
0.000158175
0.000167404
0.000144991
0.000151137
0.000152167
0.0474006
0.0678447
0.0114185
0.000156496
0.000479797
0.0611105
0.0673916
0.000167219
0.000147794
0.000149532
0.0614726
0.000149162
0.000146408
0.000259553
0.046781
0.0616738
0.000148969
0.000152662
0.000248891
0.000147831
0.000163744
0.000147701
0.0580414
0.00014896
0.0515857
0.0285144
0.000170736
0.000147785
0.000149809
0.000159157
0.000155002
0.0551523
0.000150189
0.000148857
0.00014864
0.000184323
0.000220457
0.0108226
0.000161137
0.000200128
0.000149182
0.000146489
0.000149117
0.0226851
0.00808945
0.000486739
0.000184857
0.00015532
0.000151142
0.000529925
0.000158787
0.0714938
0.000148711
0.0333195
0.0601797
0.000178369
0.000148025
0.000147506
0.000160954
0.000173899
0.0562417
0.000172421
0.00014668
0.000146384
0.000149736
0.00020376
0.000170484
0.000169488
0.000150222
0.00875975
0.000204742
0.000185361
0.000149081
0.0015429
0.000147032
0.000147814
0.000820717
0.000146676
0.000147502
0.000185569
0.000147399
0.0157226
0.000158609
0.000152463
0.000146872
0.000166317
0.0375286
0.000152422
0.000145593
0.000147959
0.000190474
0.0512044
0.00014976
0.000149847
0.0526164
0.000165449
0.000185795
0.000180022
0.000147835
0.000172718
0.000149841
0.000149773
0.000177865
0.000208619
0.000378504
0.000191683
0.000144522
0.000166815
0.000150742
0.000148289
0.00208453
0.000147688
0.000204358
0.000168073
0.000148577
0.000145055
0.000201152
0.00520236
0.0659766
0.00014865
0.000156398
0.0248503
0.000146808
0.000312199
0.000159301
0.000158685
0.000210447
0.000144516
0.00031931
0.000148197
0.000161832
0.000148712
0.000185439
0.0371642
0.000149786
0.0407603
0.000164462
0.000148169
0.000169387
0.000177854
0.0104756
0.0658127
0.0055278
0.000148663
0.000146031
0.0675709
0.000164044
0.000148695
0.000149713
0.00165517
0.000208351
0.000422942
0.0709088
0.000148526
0.000152279
0.000533993
0.00014785
0.000149982
0.000214337
0.000167672
0.000153887
0.00575448
0.000149822
0.000161983
0.000257349
0.00878254
0.00014555
0.000148361
0.000147785
0.000146996
0.000165292
0.000147001
0.000164988
0.000147787
0.000152797
0.00014855
0.000151034
0.000147543
0.00014821
0.000147397
0.000147387
0.000151118
0.000170447
0.0191354
0.0001477
0.0281147
0.000159194
0.0204632
0.000162902
0.000177047
0.000149251
0.0154605
0.000149725
0.000147888
0.000148807
0.000145404
0.0633574
0.000153079
0.000146717
0.000168973
0.000164702
0.000147864
0.000146806
0.057923
0.00014932
0.000147078
0.000522902
0.00014737
0.000477747
0.00929079
0.000212826
0.000153493
0.000151039
0.0431465
0.000149601
0.000147591
0.000439052
0.000149776
0.000144894
0.0125561
0.00014654
0.0398551
0.000172594
0.000183362
0.0120891
0.000149645
0.000147576
0.0649351
0.000182554
0.0309831
0.00618405
0.000147788
0.000147294
0.000149201
0.0467994
0.000162091
0.000148384
0.000149816
0.000149112
0.000162331
0.00048558
0.000155543
0.000149106
0.000149821
0.000162385
0.000223862
0.0532178
0.034407
0.0207824
0.000162835
0.000162181
0.0336911
0.00014888
0.000146773
0.000147951
0.000147678
0.000164826
0.000147958
0.00014632
0.00700948
0.00016252
0.000168636
0.0703539
0.000163221
0.0237914
0.000147542
0.000147463
0.000147952
0.000147653
0.000149878
0.000149862
0.000147867
0.0200596
0.000148645
0.000144754
0.000419621
0.000186158
0.000146833
0.000151499
0.000164417
0.000832524
0.000151227
0.000147068
0.00993797
0.000151864
0.0132013
0.000159748
0.000147056
0.00723658
0.000186167
0.000146079
0.0756775
0.0159511
0.0527084
0.000147048
0.00014696
0.000154442
0.000189909
0.000149498
0.0101288
0.0404779
0.0208317
0.00024747
0.000145347
0.000172405
0.0414154
0.0644347
0.0661375
0.000148862
0.000155019
0.000155401
0.0464082
0.00999515
0.000224896
0.000148969
0.000147823
0.000148736
0.000162359
0.000147892
0.0587809
0.000156028
0.0622641
0.000148167
0.000148997
0.000147424
0.000157296
0.000158974
0.000221638
0.00014743
0.00018561
0.000419757
0.000162189
0.000148013
0.00015199
0.000163299
0.000149797
0.000161838
0.000167892
0.000161769
0.000185241
0.000149895
0.000146041
0.000147955
0.000149843
0.000165517
0.000153878
0.000177457
0.000147496
0.000150395
0.0354996
0.000144574
0.000157558
0.000149754
0.000183038
0.000152183
0.0627777
0.000150041
0.00785744
0.000153925
0.000152018
0.0604563
0.0358312
0.0530842
0.000162296
0.000152765
0.000147118
0.000147802
0.000190204
0.000168417
0.000158836
0.000169659
0.0192108
0.00020871
0.000147359
0.0721336
0.00532721
0.000151824
0.000147805
0.000157613
0.0660604
0.000160907
0.0001494
0.000163551
0.000183562
0.000168801
0.000156715
0.00034377
0.000155994
0.000184429
0.0256869
0.000215715
0.00357206
0.000163767
0.000180706
0.000157856
0.000148388
0.000151918
0.000148042
0.000182168
0.000184274
0.0333842
0.000170083
0.0464282
0.0140091
0.000163293
0.000151998
0.0292835
0.0869109
0.000145111
0.00017097
0.00810417
0.0128835
0.000155762
0.000145199
0.00015588
0.000156762
0.000163003
0.000181151
0.000147695
0.00767346
0.000151219
0.000153054
0.0486446
0.000147459
0.000159217
0.0677217
0.000147577
0.000150684
0.0667423
0.000146165
0.000185663
0.000144583
0.01584
0.00016253
0.000170488
0.000158829
0.000154286
0.000189399
0.000153148
0.0106294
0.000184098
0.000148649
0.0257698
0.000171096
0.000351234
0.0187893
0.000217741
0.00021995
0.00014783
0.000145481
0.015419
0.000152119
0.000162402
0.000149563
0.000157999
0.0174259
0.0716845
0.000165604
0.0153266
0.000164356
0.000151428
0.000145223
0.000149491
0.00016961
0.000170444
0.000146554
0.0350856
0.000156833
0.00016531
0.000149787
0.0716133
0.0544456
0.000148123
0.000145115
0.000183054
0.000149613
0.000146068
0.0146502
0.000170736
0.000149472
0.000147786
0.000198923
0.000167854
0.00016037
0.000163683
0.000148167
0.0449999
0.000174064
0.000148914
0.000182858
0.0597884
0.000147539
0.0675697
0.000145538
0.000147581
0.000149426
0.000158733
0.0536907
0.00016396
0.0283951
0.00015917
0.0547752
0.000267484
0.00015772
0.0435809
0.000148413
0.0909536
0.00015174
0.0248303
0.0370354
0.000148785
0.000457775
0.000153716
0.000154304
0.069216
0.000165972
0.0470954
0.000146643
0.0640828
0.000148003
0.0160772
0.000149248
0.000155747
0.000162598
0.00014668
0.000145297
0.000175659
0.0115952
0.00931071
0.000147334
0.000340353
0.000157326
0.000146725
0.000148685
0.000155705
0.000190546
0.0819228
0.000163119
0.000149689
0.000155884
0.0568173
0.000155622
0.000147723
0.00014668
0.000156366
0.000160385
0.0162436
0.000147414
0.000236643
0.000162808
0.0026016
0.0508192
0.00602747
0.00014501
0.000181415
0.000147605
0.000149115
0.000158999
0.0105884
0.000146703
0.000147106
0.000147243
0.0881116
0.000151112
0.000148773
0.000159869
0.000160237
0.0719457
0.026866
0.00014741
0.000147983
0.0699619
0.000148898
0.0703715
0.0418402
0.0581447
0.000174385
0.000178168
0.0363825
0.000162998
0.000149035
0.000146535
0.00014829
0.000149262
0.000148636
0.000149341
0.0581393
0.0103841
0.00014911
0.000167426
0.000146245
0.000151541
0.000164225
0.000148457
0.000153286
0.000150874
0.000193205
0.000381456
0.000172682
0.0517788
0.000162666
0.00689288
0.000170838
0.0572965
0.0739513
0.000174174
0.000440527
0.000208942
0.0188894
0.000147863
0.000147787
0.000147668
0.000156933
0.0614881
0.000146371
0.000149827
0.000179793
0.000146688
0.00016281
0.000162086
0.000149398
0.0334711
0.000148506
0.000147995
0.000199225
0.000145827
0.000193298
0.000189202
0.000148583
0.000151491
0.000146721
0.000165505
0.000146675
0.000151971
0.000194222
0.000147972
0.0692373
0.000148871
0.0709308
0.00015508
0.00019299
0.000147616
0.000186367
0.000163801
0.000149084
0.000148598
0.072307
0.000147838
0.0189747
0.0217973
0.000150177
0.00014864
0.000148401
0.000145076
0.0142194
0.000147754
0.0738681
0.00807908
0.000165479
0.0400397
0.00014708
0.000147522
0.0670585
0.0694989
0.000152714
0.000147841
0.000147946
0.000146458
0.000152369
0.000161527
0.000229116
0.000153813
0.0116945
0.000350325
0.0372601
0.000158032
0.000147915
0.0264602
0.0291748
0.000160002
0.00014763
0.000148807
0.0784725
0.000147927
0.0162156
0.000164978
0.000149657
0.000155787
0.000145975
0.000162868
0.000156073
0.000146703
0.000144601
0.000152054
0.0301141
0.000149437
0.0001829
0.0321971
0.000148716
0.000147391
0.000161485
0.0153474
0.000161847
0.0623461
0.000149671
0.000145022
0.000151376
0.0240946
0.000190663
0.000292714
0.000147693
0.000157065
0.000148169
0.0582454
0.000145981
0.0321978
0.000162198
0.0144247
0.000149213
0.00014727
0.000178102
0.000147805
0.0260087
0.000148724
0.000392887
0.000149682
0.00014643
0.000152185
0.000214074
0.0239741
0.00015524
0.000150104
0.00014967
0.000148636
0.000146527
0.000149861
0.000185939
0.000149256
0.0593992
0.00015187
0.0655146
0.000148146
0.000145192
0.000189647
0.0697392
0.0606506
0.000149584
0.0349504
0.000148274
0.00546905
0.000149805
0.000197522
0.000146924
0.0544743
0.000147416
0.000156004
0.000148203
0.000147671
0.000149723
0.0652406
0.00206409
0.0420932
0.000158169
0.000157038
0.000153565
0.000147758
0.000145581
0.000146169
0.00015117
0.000191962
0.000149065
0.0128777
0.000183429
0.000147822
0.000149861
0.00494818
0.000190106
0.000151243
0.000153431
0.000158505
0.0244151
0.000176391
0.0901458
0.000182118
0.000183266
0.000173156
0.000147972
0.00014738
0.000180005
0.000161039
0.000147991
0.00662265
0.000156135
0.0184608
0.000149295
0.000182584
0.00015829
0.000173574
0.000155473
0.000148268
0.000145786
0.000148347
0.0136058
0.000148318
0.000148227
0.0660232
0.000162389
0.000158324
0.0709674
0.000147394
0.000167961
0.0242266
0.000147813
0.000168505
0.0282685
0.000150441
0.000147422
0.000148384
0.000153896
0.00015336
0.000184479
0.0621752
0.00015242
0.0001549
0.0291207
0.00014547
0.00817239
0.000154962
0.000151786
0.000243651
0.010713
0.000146086
0.000147371
0.000152982
0.000146075
0.000145677
0.0514489
0.000149787
0.000158637
0.000145123
0.000163336
0.000146056
0.000170641
0.000213641
0.000151529
0.0472627
0.000147393
0.000152526
0.000147639
0.0423921
0.000156266
0.0001469
0.000147808
0.000148676
0.000147482
0.000185663
0.0586366
0.0254974
0.0456361
0.000149173
0.0001496
0.000187134
0.000148926
0.000146027
0.000250416
0.0427496
0.000151844
0.00014825
0.0304225
0.000149462
0.000149187
0.0464815
0.000183222
0.0442602
0.000151083
0.000147861
0.0450358
0.000148985
0.000157814
0.000149437
0.000161379
0.000148007
0.000177141
0.000196247
0.00017131
0.00014857
0.0463345
0.000150227
0.00014693
0.00014941
0.000148337
0.0001478
0.000148702
0.0653953
0.00014935
0.0164539
0.000149275
0.000159169
0.0735947
0.000146495
0.000188447
0.000150992
0.000146432
0.00015163
0.000182809
0.000148087
0.00014717
0.000148765
0.000148128
0.000176989
0.000145771
0.000149617
0.000156274
0.00014851
0.000158888
0.0137318
0.0511471
0.03784
0.0409913
0.000185356
0.000173406
0.0687896
0.060139
0.000148548
0.00014925
0.000145381
0.000170763
0.0652455
0.000161281
0.00015423
0.000145195
0.000147686
0.000148981
0.000152297
0.0429218
0.0562148
0.00983008
0.00017768
0.000148592
0.000149534
0.000148977
0.0333056
0.0011156
0.00014775
0.000341471
0.000145628
0.000161746
0.000152107
0.000162759
0.00016119
0.000235391
0.000151008
0.00017045
0.000145933
0.000147144
0.000173869
0.000147441
0.0001483
0.000177129
0.000200649
0.000148778
0.000166594
0.00014743
0.000148016
0.000146578
0.0001479
0.0466351
0.000157622
0.000150804
0.000148878
0.0446101
0.000171262
0.000148383
0.000157634
0.000160951
0.0205165
0.000224826
0.0662682
0.000198555
0.000184101
0.000188072
0.000191767
0.000170528
0.0368494
0.000145028
0.000147391
0.000147714
0.000171051
0.000149008
0.0255202
0.000147325
0.000148771
0.0680191
0.00017274
0.000149582
0.000165603
0.00014751
0.000150768
0.00027924
0.000185704
0.000147592
0.000229847
0.000185942
0.013011
0.067017
0.000147944
0.0367478
0.000147372
0.000167697
0.000146943
0.00014677
0.037779
0.000161876
0.000151821
0.000147786
0.047839
0.000153701
0.0142307
0.0309119
0.000149735
0.000145795
0.000152861
0.0642402
0.000182889
0.000169944
0.00015868
0.000201664
0.000147986
0.00015002
0.000147882
0.000148161
0.00015102
0.00016309
0.068578
0.00017749
0.000187459
0.0315893
0.000147872
0.0158931
0.000185826
0.000162304
0.000149224
0.000147845
0.000147412
0.000147245
0.000147429
0.0107916
0.000183641
0.0645454
0.000177474
0.000183879
0.000148948
0.000184588
0.0624261
0.000161232
0.000155454
0.000146861
0.0704535
0.0443765
0.000176148
0.000188253
0.000148065
0.0101851
0.00015054
0.000152788
0.000168738
0.000169144
0.000145941
0.000182121
0.0535156
0.000149837
0.0140509
0.0595679
0.0744354
0.0107074
0.000162668
0.000230348
0.000163918
0.000163137
0.0378028
0.000147185
0.000158969
0.000146993
0.000149645
0.0513101
0.000152
0.0728413
0.000145861
0.000148748
0.0673874
0.000147924
0.07347
0.000150667
0.000191602
0.000152054
0.000149169
0.0707646
0.000155381
0.000180753
0.00014698
0.00014727
0.000203372
0.000177033
0.000148257
0.000155872
0.000246811
0.000182603
0.000359572
0.000149724
0.000147596
0.000144692
0.000147728
0.000157225
0.000164378
0.000145369
0.0644358
0.00014738
0.000148124
0.000171293
0.0328108
0.000178035
0.000159822
0.000146248
0.000150865
0.000179858
0.000305647
0.000262281
0.0390785
0.000157677
0.000162992
0.000210762
0.000148378
0.000168598
0.0449742
0.000147405
0.000201639
0.0138315
0.000216984
0.000224767
0.0744601
0.000182104
0.000148785
0.00626855
0.000154871
0.000171533
0.000181629
0.000147433
0.000186005
0.00014749
0.000148201
0.000173418
0.0119762
0.000159056
0.000147434
0.000164286
0.029703
0.000166635
0.0175907
0.000147744
0.033063
0.000146023
0.000170268
0.000184222
0.000147767
0.028773
0.000147755
0.000146746
0.000148662
0.000147851
0.0706256
0.000183625
0.000149659
0.0627027
0.000148425
0.0175476
0.000145963
0.0149665
0.000161937
0.000185673
0.000152904
0.000147731
0.000145716
0.000148556
0.000215744
0.000175168
0.000148764
0.000170026
0.0140461
0.0780182
0.000171797
0.0565403
0.040453
0.000147765
0.0295821
0.000146422
0.000209938
0.000147917
0.00014867
0.000149045
0.000175866
0.00245681
0.000203559
0.000181663
0.0504705
0.000190748
0.000184476
0.0412057
0.000147042
0.000172441
0.0164056
0.000144754
0.000173146
0.0221631
0.000201516
0.000147561
0.0560857
0.000165426
0.0166191
0.00127976
0.000156871
0.000182402
0.000155144
0.00014743
0.00014504
0.0283092
0.000196282
0.000180244
0.000194474
0.000147203
0.00150689
0.000159179
0.000144423
0.000149717
0.000176919
0.000153417
0.000149394
0.000149778
0.000224036
0.000147168
0.000163456
0.0241589
0.000145677
0.000147141
0.000830401
0.000146792
0.000161308
0.000158855
0.000178374
0.000319981
0.000147865
0.000183281
0.00015942
0.000169213
0.000157282
0.000153962
0.000167928
0.000214461
0.000170095
0.0401414
0.000166319
0.000148683
0.000203886
0.0673118
0.000182238
0.000146341
0.000148195
0.000170761
0.000152262
0.0666018
0.000199134
0.000158789
0.0245802
0.000152192
0.000199078
0.0623335
0.000148083
0.000148753
0.000148338
0.000147769
0.000942016
0.000228714
0.000155479
0.000199083
0.000168462
0.000168589
0.000148807
0.000153616
0.000170999
0.000147445
0.000147019
0.0113071
0.000151245
0.00049912
0.000146696
0.000147818
0.000149799
0.000168069
0.00016118
0.000166521
0.000148511
0.000151731
0.0741196
0.0207749
0.000356378
0.000261608
0.000153899
0.000150334
0.0760216
0.000181883
0.0152572
0.000162965
0.000147451
0.000172171
0.000155095
0.000149958
0.000146419
0.00016769
0.000183931
0.0441094
0.000180632
0.00022303
0.000148778
0.000150604
0.000148562
0.000190363
0.0216349
0.000201062
0.000428913
0.000147336
0.0556032
0.000151477
0.000147626
0.000152625
0.000148943
0.000213306
0.000147966
0.000184362
0.000145646
0.000379544
0.000157885
0.00822196
0.000150223
0.000148873
0.000155324
0.000145973
0.000183928
0.000431722
0.073473
0.000172117
0.000145436
0.0760224
0.000163761
0.000147877
0.000167832
0.000146864
0.000153329
0.000144643
0.000221598
0.000153925
0.000177257
0.000172109
0.000146607
0.0744616
0.000145437
0.000155789
0.00014952
0.000152794
0.000146098
0.000147811
0.000161307
0.000149867
0.000154294
0.000145805
0.000152535
0.000308334
0.0545115
0.000149784
0.00017207
0.0790043
0.000147233
0.000148981
0.000158367
0.000190293
0.000147871
0.000174669
0.00117797
0.000150759
0.0700135
0.0134448
0.00014798
0.000149894
0.000166728
0.000144304
0.0195812
0.0599115
0.0389845
0.000151702
0.000159545
0.000144845
0.000312082
0.00015608
0.000193202
0.000149585
0.000179459
0.0141347
0.000186492
0.000152966
0.000887841
0.0162617
0.0475932
0.000149633
0.000146537
0.0597906
0.000350579
0.000146629
0.000148575
0.000191706
0.000149799
0.00020732
0.000296267
0.000146127
0.000149886
0.00175151
0.000180846
0.00015099
0.000144354
0.000164819
0.000149325
0.000212586
0.000147346
0.000149014
0.000148034
0.000152334
0.000148306
0.000182815
0.000146942
0.000154353
0.0615755
0.0334238
0.0270152
0.000147038
0.00016893
0.00018634
0.000148735
0.000152924
0.000169341
0.00014717
0.000151966
0.0227729
0.000164276
0.00014803
0.000148395
0.000147736
0.0147277
0.0672539
0.00014676
0.000149801
0.00014773
0.000180878
0.0349102
0.000151755
0.000174035
0.000148883
0.000165465
0.000159258
0.000226971
0.00870664
0.000149109
0.000239819
0.0704985
0.000163272
0.000147649
0.000163517
0.000159277
0.000162187
0.000155301
0.000147887
0.000193138
0.000155279
0.00026486
0.000161629
0.000148968
0.000149645
0.0590277
0.000148808
0.000160257
0.000201798
0.000161031
0.0815591
0.0168608
0.000147621
0.00017924
0.00023005
0.000183153
0.000162301
0.000151934
0.000148297
0.00259982
0.000161463
0.000148031
0.000167732
0.000179004
0.000312051
0.0507376
0.000148289
0.000155642
0.000149165
0.000202201
0.000210891
0.000149185
0.000172396
0.000154223
0.00015121
0.000149189
0.017454
0.000177339
0.000148009
0.000152926
0.0319903
0.000149717
0.000147901
0.000156904
0.000165378
0.000148167
0.000148995
0.000152616
0.00637785
0.000159967
0.000147632
0.000146862
0.000148513
0.000170635
0.000147822
0.000147512
0.000209998
0.0793533
0.000147447
0.000149743
0.000178633
0.000161837
0.000169144
0.000149103
0.0181145
0.000147153
0.000150343
0.000159824
0.0820283
0.0254016
0.000192286
0.000169927
0.0616122
0.0201142
0.0200471
0.0485924
0.000153188
0.000148006
0.000146015
0.000161329
0.000147487
0.00014796
0.000148935
0.00017678
0.00014755
0.0280595
0.000161979
0.0699279
0.00014842
0.0573784
0.000148254
0.000157018
0.000145839
0.000150676
0.000160675
0.000264132
0.000148833
0.000146903
0.000154082
0.0644294
0.000147239
0.000168898
0.000149228
0.000162703
0.0147839
0.000178816
0.000471068
0.000158247
0.000204294
0.000148958
0.044185
0.0124082
0.000147004
0.0670184
0.0243765
0.000147686
0.000144942
0.000167855
0.000160531
0.000167068
0.000145768
0.0348098
0.000158077
0.000172529
0.00014577
0.000147514
0.000157857
0.0179469
0.000761128
0.0124642
0.000168358
0.0220317
0.000160514
0.0245273
0.00014851
0.000344003
0.000147642
0.000155723
0.00031937
0.000151035
0.000201245
0.000147506
0.000153145
0.0558468
0.00232358
0.000147582
0.00018253
0.000147843
0.0698139
0.000146594
0.0715496
0.0251073
0.000147896
0.0337627
0.000156714
0.0382208
0.000147974
0.000155122
0.000150436
0.000173064
0.000147987
0.000236469
0.000146524
0.0715906
0.000182536
0.0715744
0.000149119
0.000145855
0.00203158
0.000152254
0.000157526
0.000147522
0.000166554
0.000153315
0.000148172
0.0191011
0.000148451
0.00014748
0.000149628
0.000148616
0.0491792
0.000162738
0.000147498
0.0373322
0.00049113
0.000194353
0.000147307
0.0001786
0.000451743
0.000147727
0.000156494
0.000149909
0.00014815
0.000147491
0.000148292
0.000156609
0.000160187
0.0634807
0.000186159
0.000181186
0.000149836
0.000147563
0.0614007
0.000167537
0.000147422
0.000149919
0.0124696
0.0707135
0.000148228
0.0712966
0.000160897
0.000197847
0.000149842
0.0601866
0.000146147
0.000151798
0.000148565
0.000147026
0.000151424
0.0335808
0.000146113
0.0569938
0.000196364
0.000352672
0.00860111
0.00014858
0.000148341
0.0673063
0.000166708
0.000167909
0.00014784
0.000196151
0.000148907
0.07365
0.0378016
0.0449995
0.000148578
0.0748268
0.0507055
0.0654949
0.000193059
0.000153898
0.000179988
0.000147404
0.000227977
0.0672839
0.000160999
0.0490748
0.000146586
0.000148177
0.000167871
0.00214426
0.000161928
0.00109938
0.000147745
0.0421447
0.000169472
0.000163009
0.000146626
0.000164086
0.000178516
0.000148158
0.000168389
0.000167533
0.000208655
0.000145963
0.000147204
0.0492447
0.0453046
0.000152006
0.0357072
0.000160727
0.000147804
0.0664159
0.0238601
0.000148544
0.000249166
0.000145929
0.000148706
0.000172616
0.0468809
0.000149151
0.0622721
0.000151734
0.00014788
0.0158317
0.000149439
0.000181425
0.000146844
0.000327188
0.000148034
0.0169355
0.000146763
0.000163226
0.000148254
0.000155294
0.000178458
0.0725253
0.000162177
0.0243801
0.0001606
0.0674697
0.0561494
0.0448745
0.000147042
0.023561
0.0797069
0.0162484
0.000212205
0.000149595
0.000146921
0.000148512
0.000125427
0.000147988
0.000149021
0.000182217
0.00014957
0.0276682
0.000150889
0.0633134
0.000147986
0.000149492
0.000188213
0.000145255
0.000177398
0.000147297
0.00016779
0.00018075
0.021436
0.000146582
0.000147636
0.0747405
0.0631531
0.000149601
0.000159626
0.000164466
0.000149972
0.00807016
0.0453405
0.0775131
0.000192314
0.0296973
0.0437147
0.000205319
0.000147115
0.000146437
0.000150393
0.000147431
0.000158417
0.0282372
0.0683921
0.000148484
0.000152562
0.000151235
0.000532035
0.0584987
0.000664721
0.000509795
0.000148607
0.000479816
0.0624126
0.000154592
0.0460833
0.000173351
0.000148943
0.0699905
0.0342048
0.00664221
0.000149331
0.000150826
0.000167017
0.000233829
0.000146997
0.000148452
0.00014958
0.000146675
0.00014818
0.070126
0.000152052
0.00014574
0.0239995
0.000148603
0.0403161
0.000167995
0.0417323
0.000213585
0.000147686
0.0822159
0.000171371
0.000223456
0.000150185
0.000159955
0.000147933
0.00015076
0.0183812
0.00019373
0.000174086
0.000150401
0.000147374
0.000171426
0.00015193
0.000148301
0.000155117
0.000147463
0.050391
0.000147826
0.0657497
0.0288251
0.000151259
0.000147701
0.0290901
0.000147026
0.000146993
0.000223237
0.000153149
0.000152273
0.000177133
0.000285403
0.0792286
0.000159737
0.000151446
0.00014909
0.0498641
0.0208264
0.000160598
0.000167796
0.000147447
0.000147883
0.000152717
0.000146646
0.000187088
0.00016146
0.000148382
0.000149281
0.000148518
0.000147652
0.000148033
0.000147419
0.000322887
0.0282167
0.0419132
0.00020687
0.0304098
0.000188416
0.000153721
0.026502
0.0144354
0.0376717
0.000148524
0.000147175
0.000459308
0.00315959
0.000205858
0.000199517
0.0503302
0.000148533
0.000147747
0.0558814
0.000146782
0.000195637
0.00019109
0.000150743
0.0144481
0.0600586
0.000149715
0.0154654
0.0277817
0.000173249
0.000206401
0.000149033
0.0400666
0.000251486
0.0731313
0.000146819
0.000164574
0.0201038
0.000147241
0.000170036
0.000147619
0.000171617
0.000148589
0.0311834
0.000182413
0.000148445
0.000152501
0.000149545
0.0395586
0.000168943
0.000148832
0.000149116
0.0628503
0.000147738
0.000152496
0.000175966
0.000191254
0.000149658
0.000166222
0.000162183
0.000147529
0.000201077
0.000147839
0.000147785
0.000158751
0.000147659
0.000163864
0.0606536
0.000204401
0.000147959
0.0620245
0.0176815
0.00018616
0.0150589
0.000170596
0.000153152
0.0438103
0.000158162
0.000152341
0.000166584
0.000169559
0.000148388
0.000146674
0.000148636
0.000209973
0.0385162
0.0806168
0.0661937
0.000146611
0.000154098
0.000175588
0.000176879
0.0471809
0.000148824
0.0665842
0.000149273
0.0216096
0.000145825
0.0385482
0.000150232
0.0671602
0.0287818
0.000183183
0.0524881
0.000164174
0.000146739
0.000166861
0.0117277
0.0685965
0.000156926
0.000149477
0.000147516
0.000148749
0.000159873
0.000149905
0.000151601
0.000146763
0.000176254
0.00014799
0.066958
0.000149445
0.0430299
0.000145918
0.000194993
0.0663074
0.000150642
0.0192624
0.000147952
0.000156735
0.000148864
0.000149275
0.000147849
0.000187874
0.000185566
0.000146867
0.000152508
0.000147982
0.0642026
0.000161895
0.000226481
0.00020183
0.000148033
0.000173598
0.000151244
0.000150461
0.000161601
0.000148613
0.00016699
0.074925
0.000148043
0.059575
0.00015542
0.000147524
0.000146121
0.0274271
0.000147938
0.0740887
0.000177305
0.000149773
0.0176764
0.000187181
0.0136698
0.000157336
0.000153676
0.000148584
0.000174232
0.0627722
0.000148837
0.00016627
0.000148606
0.000194675
0.00036957
0.0206906
0.0757528
0.0502039
0.000157508
0.0196511
0.000148828
0.0448583
0.000236238
0.000157325
0.000237199
0.000180284
0.000145142
0.000162802
0.000147968
0.000146692
0.000152567
0.000147991
0.000367617
0.000266085
0.000201407
0.000690153
0.000148384
0.00110436
0.000148261
0.000147677
0.000169098
0.0566514
0.000146849
0.0391856
0.000168127
0.000192718
0.0219847
0.000149646
0.000168743
0.0285198
0.000162122
0.000148003
0.000190096
0.000148015
0.000148772
0.000149575
0.000270888
0.0617225
0.000155176
0.000148576
0.038453
0.0739406
0.000149279
0.000149539
0.00051639
0.0785405
0.000148955
0.000181583
0.000182654
0.000147362
0.000163469
0.000145914
0.0656464
0.000147718
0.0912767
0.0793036
0.0753234
0.000153862
0.000157776
0.000147648
0.000146555
0.0180731
0.00014695
0.0259676
0.0664719
0.000173906
0.000146803
0.000146095
0.000205312
0.000187471
0.000162621
0.0795193
0.000181131
0.00351764
0.00015195
0.0585621
0.000316086
0.0001586
0.000188465
0.0844219
0.0180328
0.000148516
0.00588537
0.000146187
0.0114097
0.000216237
0.000226246
0.000145473
0.0001667
0.000148613
0.000257281
0.05041
0.000151237
0.000150438
0.0862088
0.04246
0.000148075
0.0437888
0.0156446
0.00134667
0.000149399
0.0811951
0.000148952
0.0140767
0.000148662
0.00015125
0.000149316
0.000148272
0.0258464
0.000501504
0.00014625
0.0485983
0.0202777
0.00014463
0.000146062
0.000161501
0.000165691
0.000192483
0.000167416
0.0347951
0.0490801
0.0547908
0.0840573
0.000190732
0.000150806
0.000197399
0.000181846
0.0193471
0.0453513
0.0343392
0.000188356
0.000177954
0.000153569
0.0192226
0.00016918
0.000219657
0.000149166
0.000154203
0.0534453
0.000148529
0.000157537
0.000196633
0.000152965
0.000169525
0.000148326
0.000151595
0.072468
0.000182497
0.00014594
0.000154087
0.0357157
0.000188393
0.000164153
0.000287399
0.016471
0.000168168
0.000198506
0.0443092
0.000149984
0.0431873
0.000190215
0.0172436
0.000148887
0.000144317
0.0205727
0.0290888
0.0338165
0.0846389
0.034045
0.000161624
0.000182116
0.000152072
0.0376917
0.000148064
0.000148033
0.000172075
0.000178772
0.000177249
0.0325916
0.000150411
0.000481866
0.0384939
0.000150243
0.000184618
0.000159277
0.000178368
0.000185097
0.000168757
0.0344161
0.0420111
0.0421191
0.000301536
0.000162487
0.000148023
0.000150988
0.000159273
0.000301118
0.0327658
0.0382534
0.0277244
0.000163332
0.000146727
0.000215559
0.000167805
0.057823
0.000148543
0.0175525
0.000168899
0.0382123
0.000148514
0.038092
0.000174692
0.000183289
0.000377196
0.000146747
0.0191799
0.0340556
0.000146765
0.000179688
0.0476545
0.000150229
0.000227282
0.000152723
0.000151757
0.0001497
0.0661177
0.000169584
0.000252545
0.000161087
0.0763044
0.000146555
0.00014452
0.000147336
0.000148297
0.000147535
0.0740769
0.000189027
0.0385575
0.000149354
0.000146761
0.0815355
0.000160715
0.0279944
0.000187648
0.000148538
0.00023308
0.000157033
0.000169004
0.0398785
0.000158421
0.0231363
0.000206561
0.000155365
0.000145289