/*--------------------------------*- C++ -*----------------------------------*\
| =========                 |                                                 |
| \\      /  F ield         | OpenFOAM: The Open Source CFD Toolbox           |
|  \\    /   O peration     | Version:  v2012                                 |
|   \\  /    A nd           | Website:  www.openfoam.com                      |
|    \\/     M anipulation  |                                                 |
\*---------------------------------------------------------------------------*/
FoamFile
{
    version     2.0;
    format      ascii;
    class       volScalarField;
    location    "500";
    object      omega_0;
}
// * * * * * * * * * * * * * * * * * * * * * * * * * * * * * * * * * * * * * //

dimensions      [0 0 -1 0 0 0 0];


internalField   nonuniform List<scalar> 
18355
(
0.0341263
5.68069
0.0218929
0.0216581
0.0223392
0.0773883
0.0219574
0.0556947
0.0233135
5.86428
0.0215238
6.03021
0.0889191
0.0219776
0.0220594
0.0235441
7.2871
0.0217298
0.021998
5.20521
0.0254841
0.0223479
4.74657
0.0223439
0.0247122
0.0221467
0.0220717
0.0230936
2.17366
0.0219579
0.0219616
0.0230419
0.0217316
0.0217953
0.0534097
0.0351181
0.0225423
0.17179
0.0229752
0.0215402
0.0219777
0.0852194
0.0218929
8.52932
0.0217679
0.18099
0.0501198
0.0237855
0.0448432
0.021751
0.0215554
0.0218182
0.0222772
4.86408
0.0220844
0.0220741
0.119641
0.0220855
3.63677
0.134691
0.0217569
0.061174
0.0217126
0.043293
5.46964
0.0330885
8.50542
0.032224
0.0220779
0.0222927
0.0607822
0.0222568
0.14447
0.0217973
0.0557856
0.0219538
5.69083
0.0230107
0.0275367
0.0218009
0.0219691
0.868681
0.0252488
0.0460064
0.0221385
0.0874279
7.52266
5.20216
2.17932
4.89071
0.301267
0.0218287
0.0221085
0.0214818
21.5362
4.67548
0.021767
0.0255232
4.78619
6.35907
7.55352
6.72408
0.0424958
5.21673
0.0225367
0.0961653
9.43471
0.141148
0.0314382
0.332326
0.0219303
0.0227698
0.0221484
0.0228931
4.80794
0.0220033
4.7021
5.66118
4.48732
0.0426327
5.48492
1.69959
0.022946
0.0603715
0.0217672
0.152968
0.0218146
0.022262
6.70938
0.0214887
0.021562
4.83133
0.0466654
0.0252931
0.0420867
0.022258
0.0219035
0.0215217
0.0219634
0.0791279
4.57443
2.1356
0.0223102
0.0219303
0.420377
0.0222466
0.0256208
10.0184
0.0234386
9.73245
0.0221886
0.0222688
0.0501376
3.6817
0.0795332
0.02227
4.67542
3.63134
0.0222675
0.0648984
0.0269013
0.0244801
0.0299076
0.0256672
0.205423
2.1483
10.3012
0.0424149
0.185245
0.0217659
2.11847
4.64234
0.0215273
0.021532
0.0235346
7.88373
0.0624329
0.0221005
4.13658
24.0025
0.0777438
0.183209
0.0274378
0.0219131
0.227114
7.38036
4.9017
0.194499
0.0233741
8.44178
0.11733
0.0218914
0.0254822
5.48197
0.048493
0.0223207
2.44763
0.0271028
0.0382104
0.0215347
0.0227572
0.0240341
12.8879
4.79568
22.5677
0.0284876
3.45159
5.28608
5.25336
0.0377626
0.0219047
0.0221354
5.18194
0.0222463
0.0217681
0.795096
4.30097
5.18871
0.0221559
0.0233736
0.594607
0.0219561
0.0445378
0.0218848
8.90657
0.0221604
5.01179
7.69685
0.128215
0.0219038
0.0222741
0.0269987
0.0261738
5.27645
0.0226996
0.0221395
0.0221095
0.205399
1.20665
30.2452
0.030739
0.18491
0.0220113
0.0217792
0.0222166
10.1025
5.85855
3.3518
0.0788449
0.0267941
0.0227652
6.93908
0.0276606
5.56185
0.0220871
4.87864
4.62061
0.0649872
0.0219396
0.0219121
0.0321279
0.0664248
15.8898
0.0482026
0.0218295
0.021769
0.0222635
0.203622
0.0833449
0.10782
0.0227019
5.83309
0.211134
0.0925725
0.0221883
2.5701
0.0218041
0.0219891
10.6389
0.0218096
0.0219522
0.0935596
0.0219126
4.01115
0.0274192
0.0242611
0.0218285
0.042416
5.37951
0.0230829
0.0216653
0.0219845
0.118395
4.78189
0.0222674
0.0222792
4.4554
0.0450598
0.0810584
0.267772
0.0219934
0.0619359
0.0225049
0.0222689
0.225455
0.212969
0.368338
0.125986
0.0214981
0.0857877
0.0224265
0.0219966
3.46546
0.0219163
0.207186
0.083844
0.0221008
0.021586
0.192512
13.6332
5.67174
0.0221139
0.0290886
9.75685
0.0216629
1.40437
0.0269846
0.0329513
0.603766
0.0215009
3.18116
0.0219686
0.0448911
0.022123
0.0798059
5.14672
0.0222708
18.4838
0.03502
0.0220408
0.0486202
0.0624681
5.66032
4.92002
5.1606
0.0220737
0.0217063
4.75516
0.0612752
0.022117
0.0224823
0.557733
0.226089
4.21948
4.88508
0.022094
0.0232862
3.48433
0.0219252
0.0225998
0.246264
0.0382902
0.0238948
11.6153
0.0222758
0.0468476
0.710848
32.8171
0.0216604
0.0220029
0.0219686
0.0217748
0.0664497
0.021774
0.0401385
0.0219714
0.0242245
0.0220974
0.0231831
0.0217829
0.0219847
0.0217739
0.0217695
0.0232211
0.127121
2.99285
0.0218838
6.00203
0.0347961
2.76981
0.0320626
0.0709871
0.0222594
5.95267
0.0224617
0.0220082
0.0221326
0.0216303
4.83924
0.0240254
0.0216632
0.0424634
0.0396152
0.0219234
0.0216585
5.65598
0.0222798
0.0218087
4.93151
0.021915
3.63214
8.72668
0.244146
0.0252516
0.022519
4.90574
0.0222455
0.0219396
4.4237
0.0222694
0.0215292
8.87321
0.0217899
4.95954
0.0445222
0.067711
7.3828
0.0224137
0.0219407
5.63099
0.0763703
2.16722
5.05809
0.0219764
0.0219224
0.0222351
4.79805
0.0444198
0.0220221
0.0222749
0.0222319
0.0493739
3.82053
0.0273518
0.0221988
0.0222755
0.0315137
0.336071
4.74835
4.87905
6.51826
0.0528212
0.0473298
6.72243
0.0219772
0.0218379
0.0219843
0.0218806
0.0639378
0.0220127
0.0216128
6.99885
0.0504626
0.0461182
4.98761
0.0550573
9.56071
0.0218664
0.0217751
0.0219448
0.0219741
0.0222835
0.0222814
0.0219983
1.99411
0.022112
0.0215352
1.32626
0.136247
0.0218468
0.0227456
0.0571623
12.3614
0.0232941
0.0217639
5.78381
0.0237413
3.45671
0.0272531
0.0217839
6.67406
0.135612
0.0217251
5.98625
3.00969
6.41387
0.0217842
0.0217515
0.025686
0.115633
0.0223551
5.10532
4.696
5.92823
1.27001
0.0216222
0.0438234
5.28399
4.6805
5.09285
0.0221231
0.0266354
0.0268664
5.05082
6.27092
0.329735
0.0221648
0.0219629
0.0221239
0.0448735
0.0220027
5.60671
0.0271213
4.86336
0.0219817
0.0221862
0.0219118
0.0313929
0.0318581
0.321947
0.0219293
0.0925584
4.8621
0.0299834
0.0219381
0.02387
0.030811
0.0222721
0.0322226
0.0387745
0.0296882
0.146318
0.022574
0.0217213
0.0219892
0.0222787
0.0408092
0.0238578
0.0616024
0.0218613
0.0223448
3.87311
0.0215117
0.0322461
0.0224673
0.155706
0.024025
4.80963
0.0224295
30.2109
0.0258031
0.0238647
4.66435
3.83733
11.0079
0.0300127
0.0238257
0.0217937
0.0219623
0.107173
0.0472294
0.0330729
0.081779
2.08056
0.209549
0.021926
6.23706
6.14511
0.0228612
0.0219596
0.0321605
4.80252
0.0322337
0.0222169
0.0594315
0.135829
0.0549659
0.0301268
3.68467
0.025273
0.0890583
9.09139
0.690182
3.9831
0.0564942
0.17336
0.0269435
0.0220783
0.0228961
0.0219531
0.309893
0.309497
6.38558
0.124495
4.83715
5.02537
0.0570012
0.0238149
7.27832
11.5898
0.0215361
0.129941
7.43792
7.05563
0.027456
0.0216081
0.025199
0.0256519
0.0304208
0.0795201
0.0219128
30.7507
0.0232928
0.0247256
4.91579
0.0218613
0.0323848
5.17589
0.0219458
0.0228194
4.77414
0.0217572
0.0927051
0.0215101
3.77858
0.0302521
0.0417645
0.0334246
0.0251977
0.112564
0.0248775
8.68428
0.0774417
0.0219096
9.58031
0.0425208
3.73696
7.77697
0.706845
0.287629
0.021929
0.0216347
3.43384
0.023979
0.0327804
0.0222397
0.027054
6.49436
6.09862
0.0413474
19.419
0.0616003
0.023391
0.0216097
0.0222299
0.0437406
0.0814557
0.0216848
10.696
0.0290814
0.0450008
0.0219884
5.59839
5.29499
0.0219595
0.0215414
0.0775687
0.0222468
0.0217215
4.89046
0.128326
0.0223379
0.0219597
0.147597
0.0448416
0.0279556
0.0598117
0.0219782
4.99674
0.0508246
0.0221426
0.321474
4.63598
0.0219573
6.2542
0.0216552
0.0219474
0.0223324
0.034823
5.50758
0.0344613
7.91434
0.0325531
5.01844
1.72032
0.0268606
4.99073
0.0220125
10.7245
0.0228399
9.91345
5.69686
0.0221185
4.47164
0.025021
0.026137
11.5297
0.0789488
4.77075
0.021814
4.83832
0.0219701
8.38541
0.0220642
0.0273256
0.0301553
0.0218024
0.0216108
0.0530268
5.54299
5.85946
0.0219286
2.39676
0.0265912
0.0218098
0.0221167
0.0278668
0.11843
11.5108
0.0333209
0.0220428
0.0270687
4.77268
0.0272403
0.0219198
0.021799
0.0276356
0.0297908
19.0287
0.0218578
0.867034
0.0490874
5.21009
6.33205
8.49596
0.0215845
0.0623254
0.0218908
0.0222612
0.0277005
4.38279
0.0218346
0.0217941
0.0217781
11.0773
0.0232332
0.0219321
0.032995
0.0313371
5.01672
7.64173
0.0219345
0.021978
4.89205
0.0221391
5.32722
5.21228
5.39746
0.183649
0.231377
5.07849
0.030654
0.0221653
0.0217872
0.021989
0.0222582
0.0221087
0.0222839
9.4545
14.0146
0.0222007
0.0899818
0.0217685
0.0234616
0.0390138
0.0220846
0.0249247
0.02292
0.481034
3.12128
0.0610324
4.73827
0.0503583
7.15161
0.0878959
5.19978
5.32494
0.0513493
4.44785
0.218875
7.1445
0.0217892
0.0219736
0.0219765
0.0258314
5.02665
0.0217641
0.0222765
0.0756413
0.0218358
0.0441493
0.0412253
0.0222175
4.89736
0.0218872
0.0219778
0.152709
0.0216871
0.163855
0.388325
0.0220667
0.022699
0.0218119
0.0631598
0.021829
0.0235037
1.1004
0.0219818
4.82806
0.0221101
4.87533
0.0244011
0.113267
0.0219613
0.0786872
0.037979
0.0221723
0.0220725
4.95446
0.0219575
8.85085
7.77045
0.0226873
0.0221127
0.0220772
0.0215727
5.35926
0.0219595
5.0364
17.2386
0.044742
7.65705
0.0218264
0.0218967
5.72978
5.06125
0.0244811
0.0219999
0.0219415
0.0217764
0.0230128
0.0442077
1.11485
0.0248889
3.90575
2.59576
4.02716
0.033103
0.0218655
9.83827
2.08402
0.0331125
0.0219636
0.0221096
5.54944
0.0220078
3.84364
0.0641509
0.022253
0.0280548
0.0216198
0.0329647
0.0266069
0.0218387
0.0215201
0.0228928
7.81133
0.0222227
0.0638922
6.88618
0.0220809
0.021915
0.0455091
2.58786
0.0309956
4.66985
0.0224485
0.0215652
0.0234302
9.2755
0.423069
1.83933
0.0218759
0.0308617
0.0219673
4.6561
0.0216559
4.90873
0.0475173
5.07807
0.0221918
0.0219215
0.229768
0.0219316
9.56219
0.0219439
3.28943
0.0222563
0.0217757
0.024072
0.653849
5.04929
0.0264592
0.0224039
0.0224367
0.0219091
0.0216786
0.022281
0.101083
0.0223006
5.01551
0.0236905
5.05013
0.0218362
0.0215896
0.865614
5.11138
6.40962
0.0224387
6.83965
0.0218585
15.8974
0.022482
0.169544
0.0217963
7.35212
0.0218851
0.026572
0.0220463
0.0218994
0.022262
4.95187
4.57209
5.36223
0.0334695
0.025798
0.0246011
0.021989
0.0216661
0.0217576
0.0232627
0.155758
0.0220241
23.9202
0.101886
0.0219973
0.0225219
13.8873
0.107473
0.0233386
0.0244794
0.032994
5.26394
0.0548713
11.2104
0.0629876
0.0760307
0.160056
0.0219822
0.0218597
0.0755497
0.0415441
0.0218101
5.74609
0.0286619
5.1692
0.0223166
0.293448
0.0337172
0.0624756
0.0273165
0.0220566
0.980847
0.0219168
18.2723
0.0220085
0.0220503
5.13383
0.0315934
0.0264964
11.3689
0.0218498
0.0923009
10.0568
0.0219574
0.0723784
8.18434
0.0228334
0.0218615
0.0219306
0.0239563
0.0239648
0.0788218
4.70893
0.0230508
0.0264842
8.08537
0.0216066
7.70163
0.024314
0.0233903
0.42302
6.74201
0.021746
0.0219122
0.0237805
0.0216931
0.0216737
7.46824
0.0222709
0.0266521
0.0215955
0.0570123
0.021725
0.127014
0.901778
0.0227245
4.90897
0.0219371
0.0236429
0.0218815
5.318
0.0282759
0.0218679
0.0219944
0.0221033
0.0218798
0.0941963
6.05993
8.20908
9.1786
0.0221848
0.0224056
0.0824543
0.0221411
0.0216618
1.74396
5.31933
0.0236756
0.021905
7.99795
0.0222263
0.0221871
5.07319
0.0787937
4.23365
0.0231991
0.0218619
4.7699
0.0221694
0.032518
0.0222226
0.0294195
0.0219769
0.0709204
0.160342
0.0427538
0.0221003
10.3976
0.0226967
0.0218723
0.0221497
0.0220118
0.0219342
0.0220698
5.63351
0.0223467
6.02594
0.0222345
0.0279281
5.36183
0.021807
0.313736
0.0231533
0.0217973
0.0235751
0.0752259
0.0220329
0.0218044
0.0221278
0.0219786
0.0559815
0.021686
0.0224058
0.0290917
0.022092
0.0322621
11.4972
5.06256
5.06802
7.36813
0.0925276
0.0622383
8.87148
5.16883
0.0218642
0.0222529
0.0216322
0.129244
5.07781
0.0385345
0.0254322
0.0215922
0.0218877
0.0221597
0.0232802
26.9082
16.8634
10.1514
0.0639612
0.0221031
0.0222361
0.0221574
5.95837
2.34871
0.0217998
2.52973
0.021667
0.0321486
0.022937
0.0409431
0.0315119
0.368247
0.0231524
0.122327
0.0216447
0.0219035
0.0841828
0.0219326
0.0220646
0.0564633
0.195947
0.0221295
0.0761222
0.0219332
0.0219788
0.0218019
0.0219644
6.01091
0.0300449
0.023028
0.0221347
5.07575
0.138079
0.0220738
0.0321358
0.0304084
5.16622
0.883349
6.02513
0.176588
0.067853
0.104906
0.1255
0.0811701
4.9039
0.0215836
0.0219207
0.0219236
0.133368
0.0221712
9.0869
0.0217682
0.0221191
5.23489
0.054098
0.0223879
0.077133
0.0219529
0.0230118
0.813716
0.321531
0.0219533
0.682403
0.13069
20.4033
5.03149
0.0219983
5.80002
0.0219281
0.0661362
0.0218702
0.0218438
5.69074
0.0449453
0.0235702
0.0219043
4.77167
0.025018
6.07979
6.58898
0.0222633
0.0216434
0.0245789
5.67685
0.237948
0.0411395
0.0331271
0.206545
0.0219778
0.0224312
0.0217977
0.0218924
0.0231707
0.0547603
9.44493
0.0640465
0.101816
5.08376
0.0220018
4.33372
0.130986
0.0501281
0.0221932
0.0219851
0.0219237
0.0219181
0.0219437
23.8552
0.164406
4.80778
0.0641408
0.0862742
0.0221762
0.0896441
6.73782
0.0235727
0.0249726
0.0218591
12.3228
5.29669
0.0953388
0.104453
0.0219777
5.69705
0.0227293
0.0245464
0.0395886
0.0818512
0.0216456
0.0736249
5.08105
0.0222777
25.5203
20.358
5.2574
24.0797
0.0358132
1.09316
0.0570107
0.0521563
5.89511
0.0218045
0.0333265
0.0216822
0.0222514
6.98099
0.0228571
4.98249
0.0216977
0.0218877
5.17401
0.0219263
15.7055
0.022802
0.41791
0.0231922
0.0221856
4.86782
0.0245333
0.0681822
0.021876
0.0217633
0.208579
0.213957
0.0220564
0.028228
0.84229
0.0660398
2.49895
0.0222623
0.0219551
0.0215263
0.021935
0.025987
0.0572633
0.0216321
6.2932
0.0218816
0.0220385
0.0597975
7.0072
0.183147
0.0283021
0.0217691
0.0224718
0.0756388
2.05071
1.35065
12.1119
0.0261448
0.0365828
0.221703
0.0218671
0.0547067
5.04929
0.0219405
0.181042
5.8917
0.517649
0.455142
5.6604
0.0752628
0.0220996
5.03362
0.0265536
0.0431042
0.165832
0.0218506
0.102333
0.0218682
0.0219858
0.0500461
7.88343
0.0344756
0.0219432
0.0412412
8.06205
0.082594
2.8666
0.0219328
7.22793
0.0216524
0.0785457
0.10784
0.0219024
5.35416
0.0218068
0.0218418
0.0220698
0.0219188
4.92009
0.0789841
0.0222533
4.67779
0.0220799
6.27375
0.021661
2.59584
0.0477162
0.259336
0.0246744
0.0218958
0.021678
0.0220775
0.253524
0.123574
0.0221297
0.0420787
3.3419
5.65738
0.0431307
5.19131
6.71018
0.0218998
7.57326
0.0217896
0.213617
0.0220052
0.0220823
0.0220135
0.0672553
4.86855
0.209421
0.0972741
5.15998
0.448295
0.273505
5.36358
0.0218764
0.0777675
8.3857
0.0215378
0.0494221
6.38221
0.181589
0.0218971
4.98568
0.0670583
2.44083
2.36851
0.0268997
0.234751
0.0248069
0.0218497
0.0215875
4.90964
0.15924
0.278885
0.148358
0.0219086
3.26859
0.0347632
0.0215074
0.0224452
0.0613917
0.0239956
0.0222169
0.0222692
1.01185
0.0218994
0.0428392
9.85101
0.0216806
0.0218951
1.65219
0.0218514
0.0436288
0.0268603
0.135215
2.24346
0.0219204
0.0668759
0.0280112
0.0791807
0.0273078
0.0248283
0.0887641
0.851153
0.0500052
5.69971
0.0818789
0.0221059
0.208626
5.21432
0.0739554
0.0217831
0.0220482
0.128114
0.0229416
6.30113
0.647231
0.0282177
2.02811
0.0234758
0.171852
4.74344
0.0219482
0.0221282
0.0220684
0.0219917
4.0624
0.32376
0.0250024
0.17194
0.287723
0.0472154
0.022074
0.0237977
0.0593459
0.0219367
0.0218729
5.13177
0.0226657
4.42876
0.0218219
0.0219976
0.0222727
0.0722969
0.0385754
0.0397971
0.0220626
0.0230194
5.09287
2.24006
2.79516
3.20688
0.025687
0.0224746
5.17932
0.0852798
4.34543
0.0533118
0.0218844
0.0537961
0.0266459
0.0223422
0.0217945
0.0936938
0.077423
5.27781
0.0791192
0.336937
0.0221512
0.0229169
0.0219122
0.111552
9.67379
0.196885
3.59393
0.0218555
4.80604
0.0227513
0.0219704
0.0241099
0.0221474
0.830657
0.0219693
0.0816957
0.021675
2.89938
0.032767
7.08378
0.0224217
0.0220111
0.0244831
0.0217092
0.0863654
3.73766
5.0052
0.0538595
0.0216311
5.19406
0.0587419
0.0219368
0.0683081
0.0217386
0.0239021
0.0215241
0.899142
0.024812
0.0686456
0.052072
0.0217586
13.8924
0.0216331
0.0251587
0.0223723
0.0238059
0.0217476
0.0219106
0.0304823
0.0222818
0.025219
0.0216894
0.0238533
2.15557
4.35376
0.0224839
0.0439384
6.47277
0.0219162
0.0221578
0.0310648
0.111089
0.0219195
0.0570015
3.05874
0.0230101
5.0219
3.62708
0.0219548
0.0225497
0.06091
0.0214675
5.28626
4.98725
5.67642
0.0230185
0.0281929
0.0214948
2.11909
0.0285911
0.488901
0.0222428
0.146888
8.75688
0.0824805
0.0234836
1.91221
7.7014
4.99494
0.0224114
0.0217528
7.48332
2.66403
0.0218095
0.0221019
0.442298
0.0225116
0.212394
1.95334
0.0217373
0.0225431
3.34563
0.0691825
0.0225861
0.0214982
0.0424372
0.0222952
0.242114
0.0218827
0.0221188
0.0219413
0.0229863
0.0220639
0.102503
0.0217448
0.0258202
5.0795
4.85275
8.87571
0.021813
0.0815914
0.0814494
0.0220886
0.0246914
0.0403636
0.0219074
0.0238016
6.38118
0.0561556
0.0219549
0.0220115
0.021775
5.43394
4.89678
0.0217254
0.0222886
0.0219853
0.0613603
5.51832
0.0236541
0.0782712
0.0221433
0.0633683
0.0273335
0.310499
11.4192
0.0222574
0.864624
4.90222
0.0410319
0.0218235
0.0415122
0.0287148
0.0442636
0.0266005
0.0218094
0.112141
0.0271641
1.54407
0.042707
0.0221779
0.022301
5.14894
0.0221131
0.0233922
0.193263
0.0429067
5.75658
2.50016
0.0217862
0.263252
0.631417
0.322349
0.0453321
0.0237605
0.0220617
3.57856
0.0455499
0.021833
0.0729866
0.0663055
2.1802
5.73742
0.0220618
0.0280554
0.0222308
0.205132
1.02397
0.0221877
0.0600508
0.0258388
0.02328
0.022189
9.32405
0.0687514
0.0219552
0.0237642
6.56426
0.0222614
0.0220092
0.026307
0.072875
0.0219724
0.0221615
0.0236034
6.25152
0.0301387
0.0218248
0.0218328
0.0218915
0.125754
0.0219968
0.0219482
0.847722
5.47074
0.0218555
0.0222648
0.0583539
0.0297784
0.0928347
0.022141
2.3185
0.021905
0.0227951
0.0291971
5.88214
10.5239
0.465532
0.0417054
5.77933
1.9864
8.38447
5.9864
0.0244878
0.0219506
0.0216878
0.0418334
0.0218924
0.0219567
0.0219102
0.191338
0.0218705
8.30084
0.0318206
4.96517
0.0218844
4.6607
0.0219846
0.0278257
0.0216904
0.0229601
0.0409159
0.695335
0.022168
0.0218499
0.0249988
4.75651
0.0219106
0.0399619
0.0221939
0.0386859
4.29884
0.24659
3.75768
0.0308673
0.198774
0.0221397
5.14829
10.3532
0.0218831
4.72951
1.99374
0.0218995
0.0215243
0.045956
0.0308472
0.0436933
0.0216945
5.88941
0.0328671
0.0610145
0.0216152
0.0219557
0.0263384
5.56738
2.30701
5.67047
0.0420384
5.66487
0.0392655
10.2116
0.0219442
2.63712
0.0219731
0.0270165
0.900776
0.023161
0.19609
0.0218663
0.0245699
6.5009
3.83896
0.0219652
2.13674
0.0220009
4.83143
0.0218006
4.99154
5.0539
0.0218168
6.39371
0.0274501
5.86679
0.0219774
0.0264541
0.0228208
0.0884886
0.0220211
0.480556
0.0218054
6.65
0.0809926
5.0941
0.0221382
0.0216899
1.22764
0.023115
0.0317169
0.021884
0.0854669
0.0245749
0.0219716
2.4309
0.0220189
0.0219421
0.0222908
0.0220711
4.92
0.0390838
0.0219534
6.0389
4.20903
0.536345
0.0216862
0.0908377
3.39429
0.0218378
0.0260371
0.0223737
0.0220421
0.0219514
0.0219978
0.0273027
0.0285579
5.57529
0.354718
0.25283
0.0222777
0.0219568
5.11681
0.0360016
0.0219299
0.0223402
4.93131
4.98496
0.0219809
5.13017
0.039368
0.532675
0.0222786
5.71491
0.0217533
0.0228102
0.0221007
0.0218865
0.0234228
6.79024
0.0217336
4.65086
0.15409
3.90977
5.70106
0.0221024
0.0220087
5.15752
0.0681221
0.0923438
0.0219819
0.11995
0.0221909
5.38141
5.9406
5.6383
0.0220724
5.99817
11.9321
4.92066
0.510847
0.0256946
0.134603
0.0218535
0.358639
4.76694
0.0291528
4.86957
0.0218203
0.0220414
0.0711451
5.26556
0.040478
0.879367
0.0219878
9.04201
0.0406632
0.0521279
0.0218221
0.0410755
0.251406
0.0220379
0.0393596
0.0406938
0.223946
0.0215828
0.0219047
4.85112
5.0411
0.0238065
4.97471
0.0394735
0.0219945
8.71693
10.1093
0.0220966
0.546708
0.0217025
0.0220753
0.0472304
4.98306
0.0222696
5.16049
0.0235143
0.0219348
5.33417
0.0221729
0.0704267
0.0218573
2.50293
0.0220236
5.32056
0.0217672
0.0553341
0.0218495
0.02756
0.238882
5.11869
0.0491941
7.91111
0.0288622
5.00659
8.77954
5.10105
0.021874
9.79466
11.6593
3.41403
0.326928
0.0223952
0.021852
0.0219476
10.4911
0.021952
0.0220455
1.24083
0.0222412
8.6577
0.0230312
5.74066
0.0219332
0.0222302
0.10487
0.0215548
0.0566069
0.0218547
0.0759763
0.0937055
1.97416
0.0218141
0.0218996
5.21488
13.3468
0.0222451
0.0305147
0.035041
0.0225884
7.26727
5.07983
5.69647
0.137992
4.89336
4.62985
0.208517
0.0218991
0.0217911
0.0228234
0.0219419
0.0328711
6.593
7.75563
0.0220895
0.023843
0.0226741
1.71963
7.78437
8.90844
2.99401
0.0220545
2.9677
5.58774
0.0264606
4.96535
0.0487798
0.0221091
4.85353
6.6509
8.46446
0.022208
0.0229915
0.0433053
0.346604
0.0218113
0.0220201
0.0222428
0.0218303
0.0220411
7.10613
0.0238452
0.0216891
8.53087
0.0221055
5.58616
0.0416014
5.33659
0.408858
0.0219794
6.05158
0.137951
0.970151
0.022697
0.0284893
0.0220132
0.0229974
6.69685
0.137509
0.0802843
0.0224565
0.0219328
0.137589
0.0233206
0.0220616
0.0273019
0.0219395
4.80461
0.0219991
5.22383
7.82823
0.0233252
0.0219813
8.1235
0.0218718
0.0216767
1.26963
0.0245852
0.0237281
0.0843373
1.8294
6.09098
0.0339294
0.0234541
0.0222493
4.80753
2.00516
0.0234217
0.0365699
0.0218797
0.0218032
0.0239847
0.0217118
0.305973
0.0295329
0.0220027
0.0222384
0.022093
0.0218917
0.0218385
0.0219155
2.54471
7.45293
8.44516
0.388981
4.5415
0.43659
0.024852
5.18091
5.28377
4.67162
0.0220944
0.0216726
3.68814
3.84845
0.458101
0.23147
7.78841
0.0220962
0.0219378
4.82199
0.021846
0.140067
0.130421
0.0225137
10.4296
5.0919
0.0222611
10.7673
8.12269
0.164411
0.706034
0.0221796
3.93282
0.587535
5.13292
0.0218537
0.0668985
2.35049
0.0219145
0.0413406
0.0217271
0.0500514
0.0220636
6.03368
0.761675
0.02202
0.023237
0.0223679
4.80156
0.0427162
0.0221218
0.0222099
4.95959
0.0219262
0.0232416
0.119896
0.450207
0.0224695
0.0818838
0.0489389
0.0219508
0.151562
0.021913
0.0219667
0.0269486
0.0219705
0.0309499
4.63626
0.215623
0.0220022
13.6651
2.96143
0.305124
7.42256
0.0419901
0.0235104
5.10877
0.0264984
0.024159
0.0468659
0.0791375
0.0218737
0.0217235
0.0221106
0.529489
5.67124
6.5158
4.87695
0.0218243
0.025913
0.0783055
0.172315
4.90091
0.0221385
5.2303
0.0223237
7.58759
0.0215725
5.89393
0.0227038
15.778
7.75699
0.0843575
4.7476
0.0595494
0.0218384
0.0845774
5.57002
16.1887
0.0263537
0.0223627
0.0219556
0.0220935
0.0294609
0.0222868
0.0235466
0.0218215
0.0587541
0.0220099
4.74174
0.0222243
5.26293
0.0216755
0.146194
10.0244
0.0229432
5.15149
0.0220159
0.0274665
0.0221501
0.0222005
0.0219202
0.340435
0.226946
0.0217937
0.024281
0.021977
5.14236
0.0311441
0.547038
0.192293
0.0219764
0.0500717
0.022634
0.0228507
0.0462684
0.0221071
0.0562218
10.049
0.0220283
4.65465
0.0274049
0.0218885
0.0217208
9.44125
0.0219955
5.1971
0.192883
0.0222692
2.99503
0.106177
6.13214
0.0259541
0.0251771
0.0221018
0.0621997
4.82209
0.0221369
0.0462647
0.0220627
0.10916
3.01958
1.97179
7.34913
22.7571
0.0295257
2.2734
0.0221417
5.10572
0.538325
0.0266078
0.49539
0.0679754
0.0215754
0.0489366
0.0220056
0.0217564
0.0242614
0.0219572
0.889379
2.08059
0.157764
1.9752
0.0220762
2.31013
0.0220581
0.0219731
0.0434335
4.6594
0.0217318
5.08774
0.0972286
0.113375
6.54107
0.0222276
0.0461329
7.90196
0.0449684
0.0219391
0.416551
0.0219725
0.0221306
0.0222417
2.04443
11.0162
0.0257277
0.0221017
5.5072
11.572
0.022286
0.0222361
1.39945
5.43862
0.0221992
0.310935
0.124077
0.0218881
0.0307142
0.0216982
5.07754
0.0219835
10.5113
7.47477
6.35891
0.024943
0.0323551
0.0217974
0.0218019
2.78242
0.0218471
9.86639
5.01651
0.0806904
0.0218503
0.021687
0.699701
0.329143
0.0518084
8.64158
0.0906666
4.78936
0.0229891
4.93904
2.60423
0.026966
0.397533
6.60496
2.44007
0.0220333
7.25232
0.0217369
4.62604
0.25921
1.17435
0.0216301
0.0420292
0.0221058
1.1898
5.31291
0.0226201
0.0228306
10.7867
5.18923
0.0219509
5.2281
3.57489
3.93139
0.0222168
6.10989
0.0221531
5.19162
0.0221124
0.0226555
0.0222061
0.02199
9.72639
0.386978
0.0217157
5.07471
5.60587
0.0215384
0.0216866
0.0420536
0.0674949
0.105823
0.0495606
27.614
4.82615
4.79204
7.10589
0.102837
0.0230248
0.149981
0.116047
5.20141
4.63146
6.36952
0.10037
0.0565351
0.0246336
5.65943
0.0909671
0.647201
0.0221853
0.0256272
11.5784
0.0220947
0.0293076
0.564663
0.0241908
0.0428565
0.0219907
0.0231677
5.1381
0.336269
0.0216378
0.025613
11.2257
0.263937
0.0313707
1.84568
2.9998
0.0442672
0.180266
4.74715
0.0225802
5.33841
0.105643
2.4889
0.0221459
0.0214739
2.52881
4.87607
4.98368
8.31137
5.59472
0.0409239
0.0788114
0.0238771
4.76992
0.0218787
0.0220274
0.0464004
0.0731291
0.105971
5.72958
0.0227935
4.88908
5.87868
0.022291
0.0886859
0.0232459
0.230548
0.133945
0.0415404
6.46893
4.86797
5.56915
2.01554
0.0326217
0.0219711
0.022595
0.0278087
0.710492
6.53251
5.1091
8.95329
0.0530638
0.021799
0.26006
0.0406014
4.68332
0.0220966
11.1927
0.058659
5.65656
0.0220937
4.39091
0.0970937
0.0738669
1.2687
0.021719
2.12352
6.21205
0.0218195
0.0855506
4.97694
0.0223926
0.346814
0.0231762
0.0230495
0.0222588
5.08453
0.0466011
1.6911
0.0292801
8.9459
0.021743
0.0215204
0.0218897
0.022065
0.0219578
8.73304
0.418479
5.79972
0.0222116
0.0217645
8.26869
0.0290249
5.89517
0.0964066
0.0219057
1.08266
0.0305588
0.0396163
5.80772
0.0267615
40.2761
0.708561
0.0276244
0.0216191
0.260615
0.0215365
0.6661
8.60604
0.193247
0.0217859
6.71231
0.362648
0.0219839
1.99055
0.0221308
5.53889
5.83803
0.0281634
0.025083
0.0752549
0.0392133
0.0222251
0.0216374
0.0219766
22.7155
0.0253007
2.41995
0.677858
9.94472
0.446969
0.122532
0.0219624
0.197407
8.70901
0.0250022
0.0218583
0.0239732
0.0222272
8.55752
0.0853838
5.15073
0.0220004
5.89452
3.01359
4.97613
8.41307
0.0219863
3.06555
2.25214
0.0219478
0.022281
1.87076
4.84868
0.0265311
0.318304
3.50379
8.12886
0.0295563
0.0228784
0.476649
0.0425641
0.0231143
0.0274652
0.0221217
0.0801183
5.0086
0.0614373
0.0227949
10.8763
0.140531
0.021644
0.178072
0.236776
0.0749179
0.059214
0.0216561
0.0217895
2.24566
3.20888
0.0407249
0.021836
4.409
0.480622
1.00484
3.5843
0.0235342
0.02165
0.0220971
0.0222041
0.0298006
5.01058
0.0936265
0.0223443
0.123139
0.022068
5.06068
0.0230524
4.88045
0.0228359
1.16674
0.0573571
5.01825
0.0219252
0.0219425
0.0218033
5.56704
0.0264177
4.6716
4.20232
0.0608995
0.0221304
0.0277315
0.0310151
0.0222086
6.80253
0.0215991
5.19516
4.97848
4.25523
0.0288488
0.0219765
0.0222775
0.0220176
0.0221877
0.0907244
7.86496
5.72815
24.5316
0.822721
2.50373
0.0234881
0.351084
0.0721127
0.0551177
0.021978
0.0216512
0.213609
0.0230198
0.0216435
5.17493
1.27185
0.490789
5.06927
4.28957
0.0220998
0.0221278
0.0227366
0.0452294
4.98823
0.0220569
0.0461838
0.527078
1.21288
0.0449698
0.0221364
0.350254
0.0273712
5.01448
0.0220689
0.0217253
0.0219921
0.0219781
0.0226449
5.34094
0.491933
0.0882994
0.12895
0.0857261
0.0218449
0.0533441
0.0226804
0.022103
0.0272538
7.58085
4.97537
0.0218041
0.286783
0.0218597
0.0556445
0.0232129
0.0287589
0.0221033
0.0831109
0.0572297
5.85216
9.69054
8.71626
8.67812
24.1081
4.70917
1.18284
0.0217109
5.29856
0.0217141
7.4627
0.0258036
4.39381
0.0220928
0.081681
0.0220537
0.0217638
0.0242507
0.0219476
1.6664
0.0216592
0.0219129
0.0216333
0.0217009
0.0218004
0.0298874
0.0221269
4.66609
0.0499275
0.0219628
4.33807
0.0220368
0.021856
0.0652385
5.04433
0.0395526
0.0289967
0.0217587
0.0216024
4.68688
0.022196
0.0255846
0.166137
5.76969
9.36447
4.7744
4.89493
4.93375
18.258
4.41994
8.27285
0.0759623
1.4308
0.0222277
0.0219956
0.0710575
0.0261611
2.6514
0.0221344
0.0457311
0.0514558
0.361984
0.0795692
0.0390647
0.0234428
0.0219857
0.0497509
0.0220519
0.0217181
0.427696
0.0222288
4.68816
6.1004
0.105941
0.0217826
5.52356
0.0231489
5.36168
0.487005
0.0218383
6.96926
4.81309
0.0644427
0.0715501
0.0311112
4.31471
4.89756
0.0237203
18.324
0.0537258
0.0404282
5.06749
0.0221147
4.1506
0.0220375
0.0220579
0.0218228
2.02629
0.219259
0.327434
4.72939
0.0250294
0.0462505
3.27668
0.0217842
5.70316
0.0216813
1.88715
5.02285
9.78881
0.123615
10.6827
0.0219346
0.0221768
0.0238338
6.3691
0.0480203
0.022429
0.0219426
0.0214667
0.0218904
0.0655379
0.182714
0.076841
0.179769
0.0610089
0.0219736
4.67275
0.0302377
2.24198
0.0226526
0.0217458
0.0225599
0.0222322
0.0389382
0.293027
4.88003
0.5548
4.98084
0.464063
0.0218149
2.00917
0.0215164
0.0220066
0.0228808
0.0217531
0.0314885
0.0219882
0.0696758
0.0218261
5.14084
0.0222782
0.0224426
0.0217465
5.07943
0.605184
0.0947147
0.0215537
4.8073
0.144908
0.0805855
4.917
0.0574483
0.957848
0.0220718
2.13467
0.185001
0.030436
0.917948
0.033168
0.0415547
0.780132
0.0281555
17.2133
0.105336
6.47204
1.88215
0.0432667
0.0293528
0.0219734
4.67327
0.0220069
3.05574
0.0219262
0.0218944
0.0215247
0.0318973
5.68871
0.0239805
0.0219214
0.022114
0.0447705
2.28663
0.10803
2.59163
0.197296
0.0652498
0.0219939
0.0606775
0.0221852
0.02288
6.58464
0.0331499
0.0386617
0.124404
3.7647
0.158326
0.043091
0.0753588
0.0616635
0.0245798
3.22395
0.0221731
6.54048
0.0253603
4.55586
0.0892682
2.91854
5.11024
0.0941596
4.79346
4.92283
0.134022
0.267596
0.087842
0.598365
0.0220258
0.0807483
0.0564772
10.4799
0.0230307
5.15331
7.66995
0.0215072
0.0217544
5.07888
0.0223014
0.0219111
0.0216185
14.8948
1.95051
2.72936
0.0269529
4.08494
0.545321
2.87953
1.77378
0.0810425
0.022035
27.0479
3.05084
0.715391
0.471195
0.021961
0.0218378
0.0220124
0.0221128
0.745379
0.138168
3.71389
0.0854886
0.0221443
0.0219737
0.0222878
0.0316297
10.9124
0.0237384
4.57767
5.04414
0.0515222
0.0221208
5.2647
0.174528
2.54326
0.021939
20.8575
0.0912097
0.0221563
6.53158
4.47991
0.0230737
0.0217646
0.0221036
0.0222561
0.0219868
0.157484
0.0581243
0.289303
0.0426493
0.0225808
0.0303535
0.0220852
0.0256807
0.0219395
8.20324
18.7201
0.0351357
0.0220249
5.49329
0.0216808
0.190431
0.568431
9.96123
4.93695
5.62442
0.022055
0.0222519
0.0221245
0.254233
0.0225524
3.71651
0.0254553
0.0218933
0.0219921
0.142912
0.187027
0.0220723
5.22161
0.076417
1.77828
11.2114
0.0221157
0.731865
5.07313
0.166827
0.0222878
0.0219821
0.144882
1.39495
21.3906
0.0231438
8.33274
0.0217361
0.0822687
2.32336
0.192304
0.0217216
8.08011
2.85389
6.28896
9.02932
0.0222767
0.0221552
0.084449
0.163134
0.0422466
0.0230011
4.58912
0.0234574
8.35049
4.88975
0.0218873
8.24033
0.0218497
0.081329
7.78064
0.0851637
0.0577914
2.28378
0.0239871
3.2858
0.0219831
0.75437
6.34713
2.99406
11.8943
0.0243445
0.0575605
0.0217028
6.59238
0.0229481
0.0217312
0.0476549
0.0539784
0.048394
23.1275
5.02114
4.94111
0.205328
0.0308287
0.0389564
0.0262669
0.0356539
29.4156
0.023201
0.421222
0.0227372
5.26057
0.67252
0.022225
0.0221655
0.0426406
29.5705
0.0433629
0.0216153
0.0218857
0.0302497
0.0266178
0.0282987
0.0253548
4.71158
0.0238818
4.76497
0.0751837
0.0219426
0.0717756
0.0748791
0.0407502
0.0218402
0.0220682
2.16824
4.89761
4.99378
0.0418404
0.0462419
0.0539105
0.0478985
0.0219214
0.0236236
5.80552
0.0489756
0.0239087
4.9681
7.15307
0.230957
3.21258
0.080196
0.0226388
7.14703
0.0661508
4.99956
0.0219142
4.65033
0.0494557