/*--------------------------------*- C++ -*----------------------------------*\
| =========                 |                                                 |
| \\      /  F ield         | OpenFOAM: The Open Source CFD Toolbox           |
|  \\    /   O peration     | Version:  v2012                                 |
|   \\  /    A nd           | Website:  www.openfoam.com                      |
|    \\/     M anipulation  |                                                 |
\*---------------------------------------------------------------------------*/
FoamFile
{
    version     2.0;
    format      ascii;
    class       surfaceVectorField;
    location    "1000";
    object      ddtCorrDdt0(Uf);
}
// * * * * * * * * * * * * * * * * * * * * * * * * * * * * * * * * * * * * * //

dimensions      [0 1 -2 0 0 0 0];


internalField   nonuniform List<vector> 
27907
(
(-0.00256851 -0.00210007 -2.24213e-18)
(-0.00242541 -0.00228609 5.79432e-18)
(-0.00264085 -0.0022799 -6.4662e-18)
(0.010715 0.0247173 1.27086e-17)
(0.0167057 0.0253812 1.54384e-17)
(0.0111645 0.0258447 1.75951e-17)
(4.37742e-06 -1.03887e-05 -2.67742e-19)
(2.73025e-06 -7.78974e-06 -1.52773e-19)
(6.11074e-06 -7.9342e-06 1.90508e-19)
(-0.134989 -0.100647 -4.46498e-18)
(-0.131604 -0.0993728 -1.14314e-17)
(-0.131904 -0.0922857 7.34418e-19)
(0.0240581 0.012207 -1.65467e-18)
(0.0217569 0.0134077 1.71967e-17)
(0.0232678 0.0132315 -5.87966e-18)
(0.00445789 0.0183997 2.04999e-18)
(-0.00247651 0.0183678 7.38439e-18)
(0.00712199 0.0191901 6.08711e-18)
(-0.00134946 -0.000585866 4.42471e-18)
(0.000172627 -0.000297434 -8.07919e-18)
(-0.00161613 -0.000607627 -1.34171e-17)
(4.16386e-05 -0.000109241 -1.02208e-19)
(4.62058e-05 -0.000106057 -1.75167e-19)
(3.97641e-05 -0.000114123 1.01434e-19)
(-0.0245777 0.00915086 -1.87786e-17)
(-0.0234428 0.00983997 -3.60054e-18)
(-0.0247417 0.01069 1.08867e-17)
(-0.000578535 -0.000336346 -3.15993e-19)
(-0.000602968 -0.000317526 -4.98822e-19)
(-0.00059273 -0.000340471 -2.73559e-19)
(-7.6668e-05 -0.000278573 -3.13593e-18)
(-8.97701e-05 -0.000292881 -5.96168e-19)
(-0.000102617 -0.00027828 2.60603e-19)
(-0.0174664 -0.00416262 6.84616e-17)
(-0.0175383 -0.00480293 2.93055e-17)
(-0.022507 -0.00423675 4.80769e-18)
(-8.74671e-06 -1.47037e-05 -8.6601e-19)
(-1.74075e-05 -9.19453e-06 -4.0581e-19)
(-1.14596e-05 -1.0582e-05 4.26995e-19)
(0.027337 -0.046216 -6.84045e-18)
(0.0251717 -0.046321 1.59251e-17)
(0.0260086 -0.0439962 1.46137e-17)
(0.00114781 0.000418411 -1.07e-18)
(0.00118488 0.000355334 -1.71909e-19)
(0.00109302 0.000353418 2.2157e-18)
(-0.00354936 0.0046044 -3.2049e-17)
(-0.00315127 0.00464264 9.39665e-18)
(-0.0033011 0.00428663 -1.56815e-17)
(-7.38928e-05 -0.00595878 -2.09813e-17)
(0.000137728 -0.00576526 -1.09297e-17)
(-0.000183399 -0.00563994 -4.26539e-18)
(2.378e-06 6.01117e-05 -1.53257e-19)
(7.33684e-06 6.27237e-05 1.5603e-18)
(1.64168e-05 5.2687e-05 5.2047e-19)
(0.000322556 7.08823e-05 -1.7028e-19)
(0.000340859 6.53713e-05 -1.46415e-18)
(0.000337762 6.4238e-05 -8.20014e-18)
(-0.000696438 -0.000332181 -3.29234e-18)
(-0.000710725 -0.000332529 5.26764e-19)
(-0.000691116 -0.000321807 -3.15624e-19)
(0.050382 -0.00303912 3.21409e-18)
(0.0532399 -0.00238231 -2.96772e-18)
(0.0512532 -0.00321955 9.69436e-18)
(-4.23415e-06 0.000115321 4.09612e-19)
(-4.68306e-06 0.000157659 -4.28305e-19)
(-1.06341e-05 0.000131404 2.59216e-18)
(-0.00852791 -0.00721179 -6.70598e-18)
(-0.00942592 -0.00758492 -6.03603e-18)
(-0.0076605 -0.00685314 2.63771e-17)
(-0.0369591 0.00248603 -3.78675e-18)
(-0.0329557 0.00419349 -7.85647e-18)
(-0.00732415 0.00191707 1.40691e-17)
(0.0154637 -0.00184086 -3.27269e-17)
(0.0152534 -0.00327801 -5.99741e-18)
(0.0160176 -0.00124571 6.31491e-18)
(2.73826e-05 -0.000115869 -8.93953e-20)
(3.44326e-05 -9.70337e-05 1.44058e-19)
(-0.00647958 0.00416732 -2.25779e-18)
(-0.00709064 0.00482055 -1.21491e-18)
(-0.0061603 0.00462786 1.02166e-18)
(0.0155303 0.0186142 1.79591e-18)
(0.0154136 0.0194196 -1.33759e-18)
(0.016695 0.018048 4.13154e-18)
(0.0280049 0.016799 5.2201e-18)
(0.0292606 0.0187782 4.62722e-18)
(0.0261054 0.0166103 3.02218e-17)
(-0.008442 0.000165778 -1.31292e-17)
(-0.00690393 -0.00101459 -2.21898e-19)
(-0.0156479 0.00461342 2.62559e-17)
(0.0057064 -0.0171081 2.46363e-18)
(0.00515468 -0.0178622 4.37561e-18)
(0.00467351 -0.0169981 -1.54997e-17)
(0.0184845 -0.00714411 5.57057e-18)
(0.0195165 -0.00866474 -6.69906e-18)
(0.0172161 -0.00932513 3.51399e-19)
(-4.15941e-05 1.00347e-05 -8.71535e-20)
(-3.78208e-05 1.14602e-05 -2.99459e-20)
(-4.20827e-05 7.04717e-06 6.43305e-19)
(0.000469758 -0.000219894 -1.40125e-19)
(0.000495355 -0.000240166 -3.63566e-19)
(0.00048957 -0.000211534 7.28222e-19)
(-0.0112631 -0.0286901 -3.41989e-18)
(-0.00975683 -0.0284969 1.16951e-19)
(-0.0103768 -0.0301856 -1.60205e-17)
(-4.04378e-05 0.000253817 6.19208e-18)
(-4.15801e-05 0.000204392 4.04578e-18)
(-3.77112e-05 0.000216574 -2.75524e-18)
(-2.3031e-05 2.17922e-05 -1.18799e-18)
(-1.87934e-05 1.92569e-05 -5.95622e-19)
(-1.95291e-05 2.45598e-05 7.36204e-21)
(0.000137802 -6.13744e-05 -3.30566e-18)
(0.000146416 -5.10805e-05 -1.13948e-18)
(0.000113852 -5.92689e-05 -1.45416e-18)
(0.000125738 -0.00011011 -4.7936e-19)
(0.000146011 -8.63585e-05 -2.09718e-18)
(0.000137319 -9.40557e-05 1.32811e-18)
(-0.00161335 -0.00564867 3.98019e-18)
(-0.00123242 -0.00536704 -2.42245e-19)
(-0.00119528 -0.00588275 7.12688e-18)
(0.000152424 -1.68984e-05 2.01061e-19)
(0.000146754 -4.83157e-05 -2.0882e-18)
(0.000144626 -2.85783e-05 -5.84851e-20)
(-0.000551681 -2.54806e-05 -9.85356e-18)
(-0.000536028 -3.58478e-05 -5.3507e-18)
(-0.000548882 -4.35401e-05 -1.56014e-17)
(9.34537e-05 0.000141423 -1.21739e-18)
(9.59004e-05 0.000135113 -2.12311e-19)
(9.77235e-05 0.000143891 -5.89189e-19)
(-0.000558942 -0.000231661 2.7651e-18)
(-0.000577512 -0.00023421 2.73927e-19)
(-0.000559365 -0.000252294 1.30202e-18)
(-0.0062091 -0.00433507 4.15396e-18)
(-0.00646883 -0.0036604 2.26399e-17)
(-0.00621309 -0.00461681 -1.88982e-17)
(5.45391e-05 1.5371e-05 -3.396e-19)
(5.13006e-05 1.8059e-05 9.80229e-20)
(5.25956e-05 2.10208e-05 -1.93288e-19)
(-0.00893011 -0.00754057 3.48187e-17)
(-0.0082807 -0.00689707 -2.8161e-18)
(-0.000222036 -0.000270436 -2.68516e-18)
(-0.000221145 -0.0002701 6.18885e-18)
(-0.00020757 -0.000273327 2.26801e-18)
(-0.000590762 -0.000327807 2.97644e-19)
(-0.000558654 -0.000325934 3.25636e-19)
(8.09174e-05 0.000146065 -8.49851e-19)
(7.65944e-05 0.000142302 -1.38778e-18)
(7.7349e-05 0.000142761 -1.6649e-20)
(0.0035359 -8.50528e-05 7.75447e-18)
(0.00371849 0.000206168 -1.99369e-17)
(0.00390866 -0.000165421 1.89151e-17)
(0.0133528 -0.0176935 2.47477e-18)
(0.015358 -0.0159529 -9.79774e-18)
(0.00842427 -0.0186514 -2.85601e-17)
(2.13792e-05 5.72672e-05 -2.167e-19)
(1.98225e-05 5.85181e-05 -1.48015e-19)
(1.87188e-05 5.41297e-05 6.95708e-19)
(-6.94389e-05 -0.000263367 1.28577e-18)
(-5.22535e-05 -0.00026864 1.0261e-18)
(0.0165834 0.0172003 3.86681e-18)
(0.0146616 0.0185652 9.1404e-18)
(-0.03151 -0.00476677 -3.07178e-17)
(-0.021377 -0.00663126 7.29019e-18)
(-0.0166537 -0.00751494 6.41393e-18)
(-2.71008e-05 1.94225e-05 -8.50053e-19)
(-2.71146e-05 2.49752e-05 4.15785e-19)
(-0.00204568 0.00419071 3.60884e-18)
(-0.00196948 0.00396468 1.06695e-18)
(-0.000124146 0.000214405 -6.48701e-19)
(-0.000145234 0.000190372 -2.08563e-18)
(-0.000145731 0.000185471 -1.92303e-18)
(0.022319 -0.0508126 1.41407e-18)
(0.0241746 -0.0486507 9.50884e-18)
(0.0250903 -0.0513793 -4.01693e-18)
(-0.00142346 -0.00225447 1.02455e-17)
(-0.00161208 -0.00223606 1.73397e-17)
(-0.00152701 -0.00239875 9.71693e-18)
(-0.00103831 -0.000487049 -2.03723e-17)
(-0.00141482 -0.00085215 -2.02175e-17)
(-0.0124046 0.00220325 2.85119e-18)
(-0.0130133 0.00160433 1.5487e-17)
(-0.0131637 0.00281197 5.06376e-18)
(-0.000286149 -0.000261214 -1.68228e-18)
(-0.000280671 -0.000259764 -2.27325e-18)
(-0.000278263 -0.00024552 1.76874e-18)
(2.5281e-05 6.03088e-05 -1.70261e-19)
(2.17277e-05 5.42198e-05 2.1453e-19)
(-1.55584e-05 -0.000149986 2.86494e-18)
(6.84067e-06 -0.000207784 2.402e-19)
(-3.31831e-05 -0.000205941 6.38863e-20)
(-0.000947559 -0.00639293 1.26028e-17)
(-0.000590594 -0.00670981 -9.92095e-18)
(-0.000575292 -0.00624019 -4.15874e-18)
(-4.43555e-05 7.9589e-06 2.49026e-20)
(-4.33888e-05 1.2063e-05 4.29474e-20)
(0.000139242 -2.84707e-05 6.83761e-19)
(0.000140991 -4.14165e-05 -1.22547e-18)
(0.000147605 -2.42259e-05 1.19758e-18)
(0.0176985 -0.0170156 2.76402e-17)
(0.0123512 -0.018803 7.89606e-18)
(0.0270058 -0.00927672 4.79932e-19)
(0.02614 -0.0102624 -1.19708e-18)
(0.0308241 -0.00900574 1.51813e-17)
(-0.000168041 -1.256e-05 -3.10279e-18)
(-0.000181447 -4.50022e-05 -5.17636e-18)
(-0.000174928 -2.09733e-05 -4.51852e-18)
(8.47168e-05 0.000147559 -4.53005e-19)
(8.42754e-05 0.000148891 -4.48604e-19)
(0.00025995 0.010919 2.92314e-17)
(-0.00611327 0.0114521 3.75799e-17)
(0.000389981 0.00839659 -1.67263e-17)
(8.92574e-05 -4.25838e-05 -5.29428e-19)
(8.60901e-05 -5.79344e-05 -7.90485e-19)
(8.91759e-05 -3.72363e-05 -2.7243e-19)
(-0.00013418 0.000134138 -3.43067e-19)
(-0.000130746 0.000149787 1.62529e-18)
(-0.000124739 0.000163978 4.01692e-18)
(-0.0346104 -0.0141514 8.11664e-18)
(-0.0340588 -0.01248 7.72364e-18)
(-0.0359579 -0.0120855 -5.45375e-18)
(0.0254332 0.00944363 -5.46481e-18)
(0.0280704 0.00922888 -1.69403e-17)
(0.0254446 0.0103779 -2.57331e-17)
(-0.00306614 0.000774925 -7.27958e-18)
(-0.00305294 0.000609722 7.85549e-18)
(-0.00323437 0.000702264 5.61874e-18)
(-0.00372501 -0.0030084 9.07705e-18)
(-0.00406165 -0.00326726 -2.54443e-17)
(-0.00337432 -0.00296537 -2.37278e-17)
(-0.0186657 -0.0114216 4.02245e-17)
(-0.0181997 -0.0115624 1.07087e-17)
(-0.0181393 -0.0119411 7.61072e-17)
(-0.00707409 -0.00697763 -7.9039e-18)
(-0.00781127 -0.00498445 1.00729e-18)
(-0.0121816 -0.00657151 5.26948e-18)
(0.0203159 -0.0498394 1.08108e-17)
(0.0206272 -0.0526997 -9.51782e-18)
(-0.00656573 0.0207191 8.11857e-18)
(-0.00225037 0.0209425 -7.68922e-18)
(-0.0013413 0.0217138 1.65543e-17)
(-0.0346686 -0.0160906 -7.05345e-18)
(-0.0365903 -0.0156772 -4.98714e-17)
(-0.000609982 -0.00124815 5.60929e-18)
(-0.000640536 -0.00114002 -4.03938e-18)
(-0.000519496 -0.00119709 -5.40395e-18)
(-0.0253847 0.00452545 1.08856e-17)
(-0.0254016 0.00505152 -1.04537e-17)
(-0.0286752 0.00504326 -2.22973e-17)
(-0.0118041 0.00316526 -1.00353e-18)
(-0.0114744 0.00176487 -1.25674e-17)
(0.00166561 -0.000668197 -6.03496e-18)
(0.00137138 -0.000847883 -8.06517e-18)
(0.00262757 -0.000354165 5.11469e-17)
(-0.000132356 0.000103988 -3.45573e-19)
(-0.000152317 9.24735e-05 -1.58712e-18)
(-0.00950368 0.0201112 2.61926e-18)
(-0.0108879 0.0197162 1.09411e-17)
(-0.000102415 0.000209267 1.56986e-18)
(-0.000129955 0.000217075 -1.60886e-18)
(-0.0102988 6.25687e-05 2.95663e-17)
(-0.0098552 7.97176e-05 -1.84458e-17)
(-0.0169198 0.00120584 1.93088e-19)
(-0.000602021 -1.29275e-05 -6.98685e-19)
(-0.000559682 2.44937e-05 7.00885e-18)
(-0.0201433 -0.0109999 -6.28738e-18)
(-0.019615 -0.0111817 2.5728e-17)
(-0.0186934 -0.0114565 1.9874e-17)
(-0.0105445 0.000682011 6.64865e-18)
(-0.00601796 -0.000160693 4.30074e-17)
(-0.0344982 -0.017734 6.25214e-18)
(-0.0332507 -0.0162446 4.66338e-18)
(9.03599e-05 -2.8139e-05 4.58435e-19)
(8.8699e-05 -5.04776e-05 -1.41579e-19)
(-7.37611e-05 0.000218668 9.1726e-19)
(-7.29168e-05 0.000237544 -9.8643e-19)
(-8.22881e-05 0.000216252 -1.00239e-18)
(0.0487772 -0.00391183 -3.38849e-18)
(0.0493877 -0.00297968 -3.39095e-18)
(-0.0006612 -0.000372216 -7.40006e-19)
(-0.000691588 -0.000385101 1.04761e-18)
(-0.000675982 -0.000365383 2.2369e-19)
(-0.0116255 0.0194197 -5.48761e-18)
(-0.0148153 0.0183673 -8.67381e-18)
(-0.0135289 0.0182859 -3.43685e-18)
(-0.010022 -0.0113719 -4.60749e-18)
(-0.00917292 -0.011261 4.31611e-18)
(-0.00956803 -0.0121284 6.8082e-18)
(-7.55216e-05 -0.000215814 -4.83134e-18)
(-0.000111859 -0.000167539 -2.03934e-18)
(-5.1141e-05 -0.000165365 1.32194e-18)
(0.0192552 -0.00549226 -1.3049e-17)
(0.0172049 -0.00552541 1.16928e-17)
(-0.00939413 0.000776241 -3.80615e-17)
(-0.00825859 -0.000625054 2.56404e-18)
(-0.00184467 -0.0274857 -2.38952e-18)
(0.00126508 -0.0246682 8.12914e-18)
(-0.00094183 -0.0288313 3.25592e-18)
(0.0258165 0.00833658 2.31506e-17)
(0.0230138 0.00961231 3.85203e-17)
(-3.87092e-06 -0.00020649 -2.9022e-20)
(1.62078e-05 -0.00020112 5.60553e-18)
(6.57323e-06 -0.000204308 -2.90641e-18)
(-7.9111e-05 2.50559e-05 -1.86743e-18)
(-6.52144e-05 0.000125481 5.20643e-18)
(-0.000166382 8.72926e-05 6.24822e-18)
(-0.0177901 0.00248633 -2.4011e-17)
(-0.0111024 0.0012715 -1.93333e-17)
(-0.00946852 0.00671189 -1.45685e-17)
(5.47092e-06 -0.00011994 -4.00452e-20)
(5.46701e-06 -0.000113963 3.32295e-20)
(-1.03817e-06 -0.000109551 -7.70103e-20)
(-0.000127049 -0.000460166 -1.14347e-20)
(-0.000131549 -0.00045756 -2.35479e-19)
(-0.000131755 -0.000463716 -1.84638e-19)
(0.0584045 0.0251341 1.83566e-17)
(0.0586056 0.0246847 -2.60662e-17)
(0.05728 0.0247524 -2.45718e-17)
(-0.042151 0.00152609 -1.90886e-17)
(-0.0429739 0.000927978 -3.29215e-17)
(-0.0416153 0.00172483 -3.95638e-17)
(-0.0141503 0.00466475 2.28333e-18)
(-0.0159764 0.00441734 7.87919e-18)
(-0.0163051 0.006142 2.66275e-17)
(0.00117016 0.000497862 -9.55284e-19)
(0.00108675 0.000479238 1.39874e-18)
(-0.00812099 -0.00411975 -7.90289e-18)
(-0.0124723 -0.00414765 5.88536e-17)
(-0.00841137 -0.00454872 2.56621e-18)
(-0.0207845 -0.0107863 4.42425e-17)
(-0.0220034 -0.0104016 2.24997e-17)
(-0.00111056 -0.000159974 9.38292e-18)
(-0.00108823 -0.000234883 -1.07718e-17)
(-0.0010185 -0.000175369 -1.58565e-17)
(-4.20469e-05 0.000432796 -3.23698e-19)
(-4.63122e-05 0.000413466 -3.6869e-18)
(-8.06836e-05 0.000430394 -3.02677e-19)
(-0.026028 -0.00753053 -1.55057e-17)
(-0.0245683 -0.00801894 -7.56381e-17)
(-0.0253668 -0.00885627 -1.15627e-16)
(-0.00435528 0.00534303 -1.3138e-19)
(-0.00456511 0.00488002 1.67259e-18)
(-0.004899 0.00534679 6.72932e-18)
(-0.00452925 -0.00441368 -1.00897e-17)
(-0.0050436 -0.00459664 2.01302e-17)
(-0.00485249 -0.00449022 1.53302e-17)
(-0.00667057 -0.00657055 -2.04077e-18)
(-0.00663407 -0.0052886 1.22146e-17)
(0.0107654 0.0239117 -1.018e-17)
(0.00770265 0.0240284 8.4061e-18)
(-0.0334104 0.0189698 7.94131e-19)
(-0.0357472 0.018281 2.44529e-17)
(-0.0352341 0.0210482 9.2315e-18)
(-0.00901622 -0.00052258 2.76268e-17)
(-0.00591125 -0.000991887 -9.87475e-17)
(-9.98316e-06 -5.50452e-07 9.44731e-20)
(-5.76708e-06 -5.08191e-06 -3.94943e-19)
(7.61715e-06 -1.62762e-06 -3.05797e-19)
(-0.000299912 -0.0060178 -5.52104e-18)
(-4.4566e-05 -0.0062733 6.00947e-18)
(-0.00681132 0.00361002 -2.21687e-18)
(-0.00613876 0.00364333 -2.25804e-18)
(0.0464432 -0.00178624 3.06288e-18)
(0.0461655 -0.00160265 -4.73556e-18)
(-0.00185125 0.0002481 -6.25055e-18)
(-0.00184458 0.000340193 5.90514e-18)
(-0.00176526 0.000243193 3.62087e-18)
(-0.00184631 0.00708411 -2.605e-18)
(-0.00188315 0.00774111 -2.48222e-18)
(-0.000389457 -0.000309708 -1.7816e-18)
(-0.000416005 -0.000289688 -2.59867e-18)
(-0.000398906 -0.000322167 2.12588e-18)
(-0.0336809 -0.01067 6.9069e-18)
(-0.0322219 -0.0124991 -9.74117e-18)
(-0.00167473 -0.00587695 -2.03481e-18)
(-0.00190476 -0.00568327 1.02963e-17)
(-8.31652e-05 0.000193922 1.31847e-18)
(-7.67876e-05 0.00021441 1.38361e-18)
(-0.00225943 0.00175231 -1.77763e-19)
(-0.00218933 0.00170807 -1.34518e-17)
(-0.00220556 0.00186134 -3.2643e-17)
(-0.00294041 0.000838894 -1.03132e-17)
(-0.00309886 0.000961011 -1.02111e-17)
(-0.00494472 0.000530261 1.27732e-18)
(-0.00510952 0.00081031 3.77693e-18)
(-0.00523398 0.000523632 6.96374e-20)
(-0.000143932 -0.000313797 6.64462e-19)
(-0.000142439 -0.000350148 -1.662e-20)
(-0.000153422 -0.000327072 -1.05186e-19)
(-0.038004 -0.00355875 -3.35694e-17)
(-0.0410933 -0.00365914 1.60628e-17)
(0.000159626 -9.31019e-06 8.83819e-19)
(0.000149172 -2.04856e-05 4.05303e-18)
(0.000418972 3.94742e-05 3.67857e-19)
(0.000412068 3.98839e-05 -2.45345e-18)
(0.000395365 4.05952e-05 -2.6568e-18)
(0.0507546 0.00194911 -1.83583e-17)
(0.0495947 0.00219697 3.42164e-17)
(0.0526105 0.000811294 1.68262e-18)
(-0.0488701 -0.00974877 6.32184e-19)
(-0.0503777 -0.013051 1.26806e-17)
(-0.0548938 -0.00795729 9.31058e-18)
(0.0060968 -0.0162913 1.205e-17)
(0.00668758 -0.0171053 2.61435e-17)
(0.0510638 0.0168516 1.80168e-18)
(0.051976 0.0184275 -5.62035e-18)
(0.0479262 0.0183302 2.02812e-17)
(-0.00648551 -0.00614386 -1.21357e-17)
(-0.00456885 -0.00621256 -1.55119e-17)
(-0.0101784 -0.0398903 -2.47736e-18)
(-0.00805862 -0.0385062 -1.7354e-17)
(-0.011446 -0.0418104 -1.30166e-17)
(-0.000656415 -0.00104457 3.99556e-18)
(-0.000583406 -0.00100197 1.16647e-18)
(-0.000680788 -0.000951932 -1.10173e-17)
(1.49018e-06 0.000104116 2.56578e-19)
(-7.53928e-06 0.000135974 1.79666e-18)
(1.07057e-06 0.000114201 1.1654e-18)
(-0.0185296 -0.0099452 1.12028e-18)
(-0.0189046 -0.0104978 1.04981e-18)
(-0.0195296 -0.00977842 -3.10589e-17)
(-0.000508076 -0.000526623 -1.03801e-17)
(-0.000463402 -0.000527928 -1.03841e-17)
(-0.000477374 -0.000493904 4.37622e-18)
(-0.00570825 -0.00342457 -2.6477e-17)
(-0.0072459 -0.00325978 -7.14109e-19)
(-0.000233059 -0.000273258 -8.38818e-18)
(-0.000247451 -0.000275678 -2.18283e-18)
(-0.000181711 -0.000281568 -1.10854e-18)
(-0.000197517 -0.000304265 -7.94453e-19)
(-0.00019651 -0.000252029 4.64803e-19)
(-1.38553e-06 9.28087e-05 -1.47161e-18)
(-2.09852e-06 4.69732e-05 -6.61343e-19)
(-1.75019e-06 4.78913e-05 -1.30281e-18)
(-3.48263e-05 -0.000162006 1.45459e-19)
(-3.35103e-05 -0.000181063 8.01928e-20)
(-3.76277e-05 -0.0001597 8.83713e-21)
(0.0159749 -0.0504433 -9.36636e-19)
(0.0177835 -0.0497315 1.53728e-17)
(0.0173127 -0.0522315 -2.47503e-18)
(-0.0130761 0.00272647 -6.70298e-17)
(-0.0159393 0.0033025 -4.05846e-17)
(-0.00809534 0.00165763 -7.61745e-17)
(-0.000206763 -0.00027032 3.46175e-18)
(-0.0001945 -0.000274316 -2.37147e-18)
(-0.00122577 -0.00226016 -1.90219e-17)
(-0.00132786 -0.00211639 -1.82883e-17)
(0.0285521 0.0165217 4.31261e-17)
(0.0253738 0.0146958 1.76758e-17)
(0.000339499 6.05255e-05 -1.25577e-18)
(0.00035283 5.07469e-05 -2.35904e-18)
(0.000334316 6.33907e-05 -1.80243e-18)
(-0.0290645 -0.00888685 -8.58494e-18)
(-0.0309479 -0.00776198 -1.78308e-17)
(-0.0296692 -0.00868635 1.43536e-17)
(0.000740488 -0.00494139 -8.85259e-18)
(0.000419127 -0.00487376 -2.61242e-17)
(0.000638982 -0.00460195 -2.66937e-17)
(0.00401297 0.0212464 3.7447e-18)
(0.0126029 0.0219829 1.00087e-17)
(0.0115896 0.021263 1.92446e-17)
(-0.0422084 -0.00056816 1.63377e-17)
(-0.0421138 -0.000941462 -1.33273e-18)
(-0.0407997 -0.00103889 1.73442e-17)
(6.6668e-06 4.37081e-05 -2.09925e-18)
(6.44664e-06 7.57668e-05 -5.95457e-19)
(-0.0189767 0.0039288 -5.98264e-18)
(-0.0113221 0.00192763 2.02099e-17)
(0.0177376 0.017439 7.50229e-19)
(0.0187614 0.0168456 -2.84254e-17)
(0.0173494 0.0182032 -2.58822e-17)
(0.0145621 -0.0487595 -4.47571e-18)
(0.01401 -0.0513185 -3.47173e-18)
(-0.0470782 0.000847348 -3.50558e-17)
(-0.0372619 3.35678e-05 -2.08291e-17)
(0.0427041 0.0218537 2.51474e-17)
(0.040327 0.0202481 1.36631e-17)
(0.0417905 0.0214936 -2.34328e-17)
(-0.000303897 -0.00027581 7.16142e-18)
(-0.000289919 -0.000246982 -5.00412e-18)
(-0.00215936 0.00162642 2.59786e-17)
(-0.00228747 0.00165529 -2.16154e-18)
(2.2204e-05 -0.000258834 4.71425e-19)
(2.01573e-05 -0.000243315 -3.84121e-20)
(2.87013e-05 -0.000241223 1.519e-19)
(-1.91282e-05 -5.65879e-05 5.76592e-20)
(-2.15154e-05 -4.27615e-05 -5.09147e-20)
(-1.88758e-05 -5.54865e-05 9.71607e-21)
(-0.0329152 0.0010044 -1.42902e-17)
(-0.0319766 0.000874107 -4.80225e-18)
(-0.0197272 -0.042827 8.93115e-18)
(-0.0103248 -0.0388416 7.32335e-18)
(0.000110996 0.000131834 -8.22777e-20)
(0.000112995 0.000129271 -1.59268e-18)
(0.000119676 0.000136009 -5.10649e-19)
(0.00137882 -0.00112274 -3.81626e-18)
(0.00147594 -0.00118065 -4.09757e-18)
(0.00136929 -0.00120954 -3.16262e-19)
(-0.0245426 -0.0378708 6.1319e-18)
(-0.0419514 -0.0366838 -9.65905e-18)
(-0.037149 -0.0403713 2.60405e-18)
(-9.91162e-05 0.000300081 -2.69239e-19)
(-0.000101074 0.000284848 -1.59564e-18)
(-0.000103887 0.000284642 4.29574e-18)
(-0.0427538 0.00121965 7.94211e-17)
(-0.0422498 0.00188472 2.61551e-17)
(9.09123e-05 0.000135301 5.25992e-19)
(8.67509e-05 0.000139455 -1.39395e-18)
(8.6811e-05 0.000132221 -1.34275e-19)
(-7.69746e-05 0.000353974 -1.02431e-18)
(-7.46052e-05 0.000349397 -1.27208e-18)
(-7.62248e-05 0.000346652 -1.69423e-18)
(-0.00186704 0.000137731 -8.99417e-18)
(-0.00194859 0.000245151 -4.14076e-18)
(-0.0313236 0.0198161 -5.25017e-17)
(-0.0311075 0.0176925 -8.39598e-18)
(-0.000196265 -0.000495496 -1.02725e-18)
(-0.000203997 -0.000494518 -1.12813e-18)
(-0.000206201 -0.000496627 -4.95504e-19)
(0.0064221 -0.0154896 7.46282e-19)
(0.00551294 -0.0155043 -6.9475e-19)
(-0.00103561 -0.000126435 4.0078e-19)
(-0.00106756 -0.00011561 -1.65934e-18)
(-0.00105613 -0.000144798 2.67658e-18)
(-0.0114949 0.0037653 8.5828e-18)
(-0.0120285 0.00400966 2.7495e-17)
(-0.000677116 -0.000345196 -7.17462e-19)
(-0.00071683 -0.000353602 -5.07252e-18)
(0.00113958 -0.00507922 -4.83084e-18)
(0.000818202 -0.00543936 3.63072e-17)
(-5.99033e-05 1.96148e-05 2.0836e-18)
(-5.80392e-05 3.8376e-05 -2.69513e-19)
(-5.87037e-05 4.39177e-05 5.62489e-20)
(9.38418e-05 0.000138893 -6.37351e-20)
(9.14679e-05 0.000143502 -4.85034e-19)
(-0.00157702 0.00206524 2.56668e-17)
(-0.00173031 0.00202844 -9.2482e-18)
(-0.00164503 0.00192147 2.47971e-18)
(-0.000240333 -0.000285182 -1.17684e-18)
(-0.000225714 -0.000278452 1.06267e-18)
(-0.000494586 -0.000377184 1.6973e-18)
(-0.000520267 -0.000393006 -4.17836e-18)
(-0.000513941 -0.000408364 -6.76792e-18)
(-0.00745001 0.0013392 4.5787e-19)
(-0.00735178 0.0016196 -8.54125e-18)
(-0.00769056 0.00146982 9.31428e-18)
(-9.86241e-06 -2.00155e-05 -4.09323e-19)
(-2.72674e-06 -1.77434e-05 8.38599e-19)
(-0.00101075 -0.00011656 -2.67404e-18)
(-0.00101629 -0.000149966 -9.09683e-19)
(-0.0106937 -0.00990578 -1.13764e-17)
(-0.0110448 -0.00910556 -1.96175e-17)
(-0.0116097 -0.0099945 1.40679e-17)
(5.88415e-07 6.70549e-05 -6.81717e-19)
(-8.07456e-07 0.000104538 6.99753e-19)
(0.04566 -0.00295452 2.55223e-18)
(0.047325 -0.00171369 -1.67004e-17)
(0.0466816 -0.00294901 3.40756e-18)
(-0.000580516 -0.000323057 -1.43667e-19)
(-0.000605839 -0.000308846 -1.6473e-19)
(1.24272e-06 8.27409e-05 1.76949e-18)
(5.7371e-06 8.55438e-05 1.6726e-18)
(8.89715e-06 8.16657e-05 8.22613e-19)
(-3.57796e-05 -0.000278351 -5.51366e-18)
(-3.81676e-07 -0.000195996 -1.09468e-17)
(-0.000217217 -0.000336023 -3.61538e-18)
(-0.00021533 -0.000351932 2.38539e-18)
(-0.000211478 -0.000314137 -5.50984e-19)
(-0.000415589 -0.000311386 2.78066e-19)
(-0.00040048 -0.000307948 -1.05854e-17)
(-0.000423923 -0.000329817 -7.34822e-18)
(-0.00270008 0.00108899 -6.86293e-19)
(-0.00254992 0.00112379 1.89964e-17)
(-0.00260738 0.00097571 5.62892e-18)
(-0.0170759 -0.0114708 -3.50541e-17)
(-0.0160253 -0.0111677 -2.25626e-17)
(-0.016353 -0.011401 1.91038e-17)
(-0.00277196 0.00123884 1.89836e-17)
(-0.00283439 0.00105857 -7.25161e-18)
(-0.00244681 0.00441275 2.15054e-17)
(-0.0027281 0.00443593 2.43607e-17)
(-0.00261192 0.00425793 -1.44381e-17)
(6.58848e-05 3.79094e-05 2.31486e-20)
(6.62989e-05 4.81792e-05 4e-19)
(6.85994e-05 3.12893e-05 1.31603e-19)
(0.0136744 0.0186298 3.64615e-18)
(0.00296836 0.0175915 -1.60933e-17)
(8.15563e-06 9.35206e-05 -1.047e-18)
(-1.94775e-05 -0.000212124 9.7375e-19)
(-2.75838e-05 -0.00021728 4.39714e-19)
(-0.0284672 -0.0261195 2.37696e-18)
(-0.0302128 -0.0250903 -7.29926e-18)
(-0.0281231 -0.0244704 5.77197e-18)
(0.051829 0.0015516 -2.28518e-17)
(0.048907 0.00260083 -1.40998e-17)
(0.00610464 -0.00240771 -9.75343e-19)
(0.00656982 -0.00258495 1.11458e-17)
(0.00613918 -0.00296701 2.78114e-18)
(-0.0103677 -0.0107079 -7.40432e-18)
(-0.00989902 -0.00982314 -1.11074e-17)
(-0.00134842 0.00145496 -5.38496e-18)
(-0.00163492 0.00141565 1.72345e-17)
(-0.00145058 0.00123969 4.97181e-18)
(-0.00159217 -0.000241275 -1.15338e-19)
(-0.00162772 -0.000298377 5.4052e-19)
(-0.00167582 -0.000227951 -4.27939e-18)
(8.30816e-05 5.517e-05 1.22092e-18)
(8.32046e-05 4.37643e-05 1.98374e-18)
(8.98119e-05 4.91641e-05 5.23257e-19)
(-0.00687222 0.00207007 1.34098e-18)
(-0.00656914 0.00239472 2.39734e-17)
(-0.00715272 0.00242201 8.64643e-18)
(-2.4755e-05 -0.000150217 -5.1866e-18)
(-3.67957e-05 -0.000132286 1.78106e-18)
(-0.0111186 0.00336548 -1.22708e-17)
(-0.0109728 0.00410778 -2.86238e-17)
(-0.00963011 -0.00775545 6.71119e-18)
(-0.0100387 -0.00805932 -2.88625e-17)
(-0.00930664 -0.00730368 2.69999e-17)
(-0.0351445 -0.0201034 -8.29632e-19)
(-0.0377854 -0.0191555 1.95532e-17)
(-3.64512e-05 -2.61391e-06 -4.95001e-19)
(-2.41905e-05 -8.92849e-06 3.00515e-19)
(-8.83479e-05 0.000303174 -1.50004e-18)
(-8.84597e-05 0.000314722 3.82098e-19)
(9.11152e-05 6.78443e-05 -1.4077e-18)
(8.29979e-05 5.49445e-05 3.2e-19)
(5.75186e-05 6.24268e-06 2.08207e-19)
(5.78699e-05 8.0733e-07 -1.89198e-19)
(5.70546e-05 9.7194e-07 -8.31063e-22)
(-0.0277032 -0.00605934 2.80194e-17)
(-0.0280472 -0.00716328 2.16103e-17)
(-0.000440983 -0.000109175 -8.94055e-18)
(-0.000443491 -0.000145557 -2.07349e-18)
(-0.000412877 -0.000125463 4.29629e-18)
(-5.07976e-05 -1.80164e-05 -4.91576e-19)
(-4.75207e-05 -2.02742e-05 -9.50413e-19)
(-4.65737e-05 -4.35591e-05 -7.48093e-19)
(0.00176456 -0.0089327 -9.34936e-18)
(0.00198775 -0.00907302 2.64633e-17)
(0.00264575 -0.00986729 -3.79466e-18)
(-0.0025029 -0.0256034 6.48402e-18)
(-0.00458942 -0.0299482 6.44836e-18)
(0.000210272 -0.000270909 4.98197e-18)
(0.000208267 -0.000299582 2.55384e-18)
(0.000240527 -0.000273839 1.43054e-18)
(0.0494571 0.0153465 1.46037e-18)
(0.0509114 0.0154917 2.33592e-18)
(-0.00656939 0.00106657 -2.14451e-17)
(-0.0152606 0.00690757 -4.92855e-17)
(-0.00783175 0.00927873 4.06404e-17)
(-0.0349498 -0.0219606 -1.17685e-17)
(-0.0334087 -0.0202778 -1.78246e-17)
(-3.48947e-05 0.000292454 1.67412e-18)
(-3.38031e-05 0.000292234 -1.38609e-18)
(-0.0189878 -0.0113106 -4.09073e-17)
(-0.0193463 -0.0111946 7.02376e-18)
(-0.0184408 -0.011643 -5.35889e-17)
(-0.000599442 0.000346983 -1.56125e-17)
(-0.000530854 0.000355099 -4.7505e-18)
(-0.000570451 0.000304183 5.38565e-18)
(-3.99989e-05 0.000133813 -7.19623e-19)
(-4.85659e-05 0.000106638 1.0232e-18)
(-5.50424e-05 8.36283e-05 1.44546e-18)
(-0.0292756 -0.00909937 -1.29004e-17)
(-0.0269734 -0.00899274 -2.28536e-17)
(-0.000682012 -0.00126879 1.94791e-17)
(-0.000593391 -0.00134928 9.9863e-18)
(-0.000655353 0.000394354 4.53202e-18)
(-0.000643724 0.000320598 -3.23769e-17)
(0.000752994 0.000135046 4.05499e-18)
(0.000782227 0.000162387 -7.86797e-18)
(0.000800016 0.000122263 -3.08631e-18)
(-0.0011003 9.77228e-05 -4.80194e-18)
(-0.00110385 3.90357e-05 1.04101e-18)
(-0.00118 5.63239e-05 9.98154e-18)
(-0.0526602 -0.0125428 1.02231e-17)
(-0.0520223 -0.0103989 1.32438e-17)
(-0.0517066 -0.0109015 2.30764e-18)
(-0.00258847 0.00472614 -4.25401e-18)
(-0.00225446 0.00459054 2.67697e-17)
(-0.000443917 -0.000312969 7.82947e-18)
(-0.000440915 -0.000283173 7.11447e-18)
(-0.00301221 0.000423377 2.0795e-18)
(-0.0031513 0.000321624 9.81266e-19)
(-0.00297399 0.000250678 1.04075e-20)
(0.000102482 -2.0827e-05 -9.15863e-19)
(0.000107494 -1.27902e-05 4.75041e-20)
(-0.00748133 -0.00787376 1.38076e-17)
(-0.00787571 -0.00847217 -9.7509e-18)
(-0.00705085 -0.00855239 3.50824e-18)
(-2.00737e-05 -0.000308595 7.43506e-20)
(-2.05345e-05 -0.000279317 7.64188e-19)
(-2.26348e-05 -0.000302499 3.43494e-18)
(-0.0080916 0.000692521 -1.80395e-17)
(-0.00712474 0.000652525 -1.15383e-17)
(-0.000585813 -0.000318928 6.32467e-19)
(-0.000560286 -0.000321886 3.63697e-21)
(-0.0272544 -0.0274079 -9.39883e-18)
(-0.0287178 -0.0279904 1.43299e-18)
(-0.0317172 -0.00270507 4.62601e-19)
(-0.0300038 -0.0015803 8.2852e-19)
(-0.0328655 -0.00277908 -9.9496e-19)
(6.8823e-05 2.87174e-05 -4.98472e-19)
(6.85695e-05 4.03344e-05 -3.78651e-19)
(3.54505e-05 -0.000182662 -3.96966e-18)
(3.62625e-05 -0.000184726 -3.47925e-18)
(2.4552e-05 -0.000192506 3.98044e-18)
(-0.00594852 -0.000492554 7.05552e-19)
(-0.00594251 -0.000892976 -6.12972e-18)
(-0.00625829 -0.000657385 -9.12094e-18)
(4.87663e-05 -0.000172376 4.62685e-19)
(3.61261e-05 -0.00018126 -1.27657e-18)
(0.00138087 -0.00104906 -3.8282e-18)
(0.00131091 -0.00108329 2.20748e-18)
(-0.00663133 0.00160708 -1.13909e-17)
(0.00868193 0.00510126 -2.11499e-18)
(0.00971262 0.00695691 6.47183e-18)
(0.00679963 0.0047527 -5.78099e-18)
(-0.0124378 0.00454403 -2.25162e-17)
(-0.0137605 0.00272315 -7.34488e-17)
(-0.000146383 -0.00026355 4.7052e-19)
(-0.000142527 -0.000259513 8.81671e-19)
(-0.000148613 -0.00023154 1.86214e-18)
(0.00333569 0.000775396 -2.78831e-17)
(0.00296438 0.00100053 4.64076e-18)
(0.00299889 0.000576109 1.0028e-18)
(-0.0389142 -0.00255941 -1.87574e-17)
(-0.0138492 0.00587208 8.40076e-18)
(-0.0466106 -0.000447978 -1.21138e-17)
(-0.00707216 -0.00467078 -3.80151e-18)
(-0.00530842 -0.00561493 -1.26797e-17)
(-0.000245609 -0.000483449 -7.88012e-19)
(-0.000245736 -0.000485252 -2.15271e-19)
(-0.000234568 -0.00048682 -1.03661e-18)
(0.000173166 0.000156924 -7.9566e-19)
(0.00018081 0.000151097 -5.36661e-19)
(0.00018184 0.000152078 2.66165e-18)
(-0.000433082 -0.000217906 -7.74264e-18)
(-0.000452911 -0.00019868 -4.22609e-19)
(-0.000452943 -0.00023056 -1.80798e-18)
(-0.000446314 -6.58175e-05 -4.07772e-18)
(-0.000479459 -9.85304e-05 -1.56887e-17)
(-0.000145465 -0.000276176 -7.56363e-19)
(-0.000139829 -0.000299347 3.87461e-19)
(-0.02772 -0.00729553 4.50765e-18)
(-0.0576238 -0.00327428 -3.35413e-18)
(0.00210362 -0.00853523 -2.45722e-17)
(0.00122478 -0.00799568 1.3677e-17)
(-0.113249 -0.107683 2.15951e-17)
(-0.120809 -0.108304 -2.62777e-17)
(-0.116265 -0.106715 9.60607e-18)
(0.0478115 -0.000603264 3.49522e-18)
(-0.0106937 -0.00830972 1.542e-17)
(9.5925e-05 0.000136911 2.44362e-19)
(9.87591e-05 0.000126409 -5.0154e-19)
(9.37473e-05 0.000126211 1.05087e-18)
(6.22198e-06 -1.33432e-05 -7.1883e-19)
(7.38401e-06 -1.09756e-05 4.22443e-19)
(-0.00174481 -0.000370322 3.68145e-19)
(-0.00180159 -0.000295894 8.03439e-19)
(-0.0018555 -0.000380451 2.70196e-18)
(-0.018418 -0.0111858 -1.80206e-18)
(-0.0187638 -0.0112637 -1.84072e-18)
(-0.000306293 0.000169994 -8.68126e-18)
(-0.00024684 1.58191e-05 -8.50492e-19)
(-0.000388934 2.64296e-05 6.3404e-18)
(-0.00287119 0.000525758 -1.55548e-18)
(-0.00520214 0.00613723 -6.64356e-18)
(-0.00570564 0.00600903 1.59468e-17)
(-0.00540816 0.00563263 5.47414e-18)
(-0.000417829 -0.000227741 1.78879e-18)