/*--------------------------------*- C++ -*----------------------------------*\
| =========                 |                                                 |
| \\      /  F ield         | OpenFOAM: The Open Source CFD Toolbox           |
|  \\    /   O peration     | Version:  v2012                                 |
|   \\  /    A nd           | Website:  www.openfoam.com                      |
|    \\/     M anipulation  |                                                 |
\*---------------------------------------------------------------------------*/
FoamFile
{
    version     2.0;
    format      ascii;
    class       surfaceScalarField;
    location    "1000";
    object      meshPhiCN_0;
}
// * * * * * * * * * * * * * * * * * * * * * * * * * * * * * * * * * * * * * //

dimensions      [0 3 -1 0 0 0 0];
oriented        oriented;


internalField   nonuniform List<scalar> 
27907
(
-2.42387e-05
-5.69193e-05
8.1163e-05
-4.99883e-05
6.65703e-05
-1.6581e-05
7.39476e-05
3.48102e-05
-9.34692e-05
3.90885e-05
-7.40389e-05
3.49511e-05
4.08345e-05
-6.27463e-05
2.1912e-05
-3.08222e-05
6.12133e-05
-3.03908e-05
-4.05774e-05
4.53039e-05
-4.72647e-06
-0.000211161
-5.6369e-06
0.000223882
-2.17009e-05
-5.14501e-05
7.31544e-05
-8.6764e-05
0.000150935
-6.40714e-05
-0.000224309
0.000114464
0.000110157
3.211e-05
2.47791e-05
-5.68889e-05
3.38972e-05
-1.50954e-05
-1.05452e-05
6.56393e-05
2.53225e-05
-9.09523e-05
2.7883e-05
0.000162096
-0.000189557
-3.4588e-05
7.1761e-05
-3.71726e-05
0.000147466
-0.000109204
-3.82041e-05
0.00027642
-7.90389e-05
-0.000193041
-0.000243146
0.000232093
1.23851e-05
4.29878e-05
9.46095e-05
-0.00013754
-2.69161e-05
4.50708e-05
-1.81547e-05
2.16654e-05
1.88399e-05
-3.98868e-05
3.68531e-05
-5.98089e-05
2.29559e-05
-4.21159e-05
-1.5984e-05
5.81012e-05
-8.11791e-05
4.63733e-05
3.48073e-05
9.52207e-06
-0.000212868
-6.56134e-05
3.69223e-05
2.86915e-05
4.75145e-05
-6.18809e-05
1.43664e-05
5.2449e-05
-6.78727e-05
1.54242e-05
-5.27437e-05
5.62392e-06
4.71201e-05
-7.82756e-05
0.000126024
-4.77216e-05
4.7439e-05
-1.94879e-05
-2.79511e-05
7.65095e-06
4.35129e-06
-7.87177e-06
-7.19279e-06
0.00019417
-0.000186414
3.90417e-05
-9.90273e-05
5.99942e-05
3.15916e-05
0.000107134
-0.000138282
-6.44458e-07
-1.00954e-05
1.37003e-05
4.87188e-05
-0.000240899
0.000193143
0.000229397
-9.37284e-06
-0.000219342
0.000152852
-5.82999e-05
-9.44961e-05
0.000109447
0.000150986
-0.000259411
0.000106892
7.81775e-05
-0.000184994
-0.000270741
6.65847e-05
0.000207226
0.000154719
3.35293e-06
-0.000157973
-5.52485e-05
-3.19959e-06
5.84488e-05
-1.28284e-05
-8.227e-05
0.000105494
-1.03411e-05
4.71943e-05
0.000144186
3.9243e-05
-0.000183185
8.4035e-05
-0.000170683
0.000234268
-1.08529e-05
-0.000219725
-6.32848e-05
-2.38485e-05
8.71409e-05
4.56207e-05
1.61127e-05
-6.17332e-05
-6.73573e-05
0.000168352
-9.30259e-05
-7.74296e-05
-0.000146509
4.82819e-05
-7.67276e-07
7.02947e-05
-3.5064e-05
-3.52299e-05
-1.27692e-05
1.50384e-05
-5.37847e-05
-3.14176e-05
0.000195474
-0.000239243
4.43281e-05
1.11958e-05
-9.26005e-05
8.14134e-05
-0.000105017
3.30369e-05
7.19884e-05
8.31239e-06
-4.88898e-05
-7.59896e-05
-1.54338e-05
9.14319e-05
9.80754e-05
-0.000216556
0.000118662
7.47585e-05
-0.000135012
2.7935e-05
0.000197832
-0.00022542
0.000141846
8.63789e-06
-0.000150431
-3.53079e-06
1.46742e-05
0.000269795
-3.45632e-05
-0.000233877
5.0836e-05
-5.21512e-06
-1.65863e-05
-2.94248e-05
4.60112e-05
0.000217564
-2.46102e-05
-0.000192751
1.34239e-05
0.000224324
3.5724e-05
-4.95794e-05
1.38554e-05
0.000260821
-2.50789e-05
-0.000231602
-0.000184982
0.000258272
-7.26128e-05
1.78426e-05
-8.78608e-05
7.00215e-05
-5.27546e-05
4.99559e-05
2.79881e-06
6.63105e-05
-9.92424e-05
3.29371e-05
-1.5426e-05
-3.39444e-05
4.93705e-05
2.64197e-05
2.88477e-05
-5.52672e-05
-3.53084e-05
-2.30721e-05
5.83812e-05
-5.87637e-05
6.99657e-05
6.88657e-05
-3.30395e-05
-3.58261e-05
-5.72952e-05
7.51411e-05
0.000116047
6.14673e-05
-0.000177388
2.81096e-05
2.95495e-05
-5.76589e-05
2.52854e-05
-0.000101265
-2.75367e-05
-1.70834e-05
4.46202e-05
-0.000264669
8.04367e-05
3.48509e-05
3.4015e-05
0.000248224
-5.21453e-05
1.75832e-05
4.33243e-05
-6.09073e-05
-7.55278e-05
0.00018249
4.25493e-05
1.67434e-05
-5.92925e-05
-2.91793e-05
4.67626e-05
2.81512e-05
-8.54427e-05
7.64549e-05
0.000187879
-0.000297235
9.29174e-05
0.000205373
-4.81646e-05
2.12485e-05
-6.48708e-05
0.000137671
-7.27422e-05
-6.75503e-05
2.37134e-05
4.3837e-05
8.07732e-05
-0.000102554
2.17955e-05
0.000120772
-2.79667e-05
-9.27802e-05
2.90097e-05
1.84294e-05
9.60986e-06
-6.23532e-05
3.08867e-05
3.38695e-05
-6.47553e-05
1.12994e-05
-6.40539e-05
0.000197173
-0.000249386
5.27362e-05
-0.000206119
9.90268e-06
0.000196303
-5.68671e-05
2.76879e-05
-8.14096e-06
0.000225609
-0.00020389
-1.45763e-05
0.000258045
-4.88776e-05
-0.000208469
-2.32474e-05
-3.31491e-05
5.6397e-05
-3.71685e-05
4.13741e-05
-4.20562e-06
3.12245e-05
1.88923e-05
-5.01168e-05
0.000192484
-0.00016419
3.99496e-05
-6.05731e-05
2.06237e-05
-2.69854e-06
4.52479e-05
0.000167671
-0.000120698
-4.68993e-05
-4.2007e-05
-0.000134747
0.000177034
-6.05626e-05
5.51267e-06
5.50503e-05
5.71896e-05
-4.63026e-05
-1.08868e-05
-7.05123e-05
3.872e-05
3.17937e-05
1.68431e-05
-7.20908e-05
1.86283e-05
-6.86156e-05
-7.76998e-05
1.17769e-05
6.59247e-05
-7.34304e-06
5.06675e-05
-8.81121e-06
1.38527e-06
1.76364e-05
0.000100747
4.6776e-05
-3.75135e-05
-2.80995e-05
2.73291e-05
1.77417e-05
-3.20301e-05
9.87789e-05
-6.67363e-05
-4.66279e-06
-3.83484e-05
2.83572e-05
0.000127096
-0.00015532
-5.54359e-06
-8.23133e-05
8.101e-05
7.189e-05
-2.8765e-05
-0.000267009
-0.000105961
8.18787e-05
2.40853e-05
-1.38595e-07
6.64531e-05
-7.73602e-05
5.74906e-05
1.98713e-05
-0.000147285
-8.27691e-05
0.000230751
2.65816e-05
4.37137e-05
-8.86526e-05
0.000198926
0.000212773
3.19151e-06
-0.000214871
-3.40213e-05
-1.10445e-05
4.50657e-05
3.45604e-05
-5.81337e-05
2.35734e-05
-0.000120799
4.25508e-05
-6.8316e-05
1.06311e-05
5.76853e-05
2.70333e-05
-6.23411e-05
-5.5639e-05
6.41272e-05
-8.48708e-06
8.75631e-05
-0.000174838
8.73966e-05
-3.14015e-05
-1.76115e-06
3.50769e-05
-1.81259e-05
-3.0094e-05
4.822e-05
0.000186148
-0.00012421
-6.17973e-05
5.10879e-05
-1.11382e-05
-2.80806e-05
0.000172512
-0.000281311
0.000154194
0.000127518
1.03361e-07
1.08599e-05
-1.05197e-05
-0.000262225
6.24921e-05
0.000202346
-3.66463e-05
-3.76888e-05
7.4341e-05
-2.60115e-05
-2.87008e-05
5.47124e-05
-0.000110592
-0.000170267
-2.54016e-05
-7.96084e-05
7.43573e-06
4.50138e-05
-0.000247981
0.000247197
1.80822e-06
2.39052e-05
-6.10453e-05
3.71405e-05
4.35958e-05
3.18625e-05
-7.54552e-05
5.99281e-05
-3.001e-05
-2.99179e-05
1.943e-05
2.98668e-05
-4.92968e-05
0.000127747
0.000152101
-5.61066e-05
3.00952e-05
3.42844e-05
2.06352e-05
-5.49194e-05
-7.76652e-05
4.10246e-05
-7.44721e-05
3.23576e-05
-2.37774e-05
6.35171e-05
-3.97391e-05
-6.8037e-05
0.000166259
-3.85102e-05
-6.74466e-05
-7.99117e-07
0.000210566
-0.000209015
0.000207419
-2.60436e-05
-0.000174285
-2.59808e-05
-1.78842e-05
-5.83502e-05
2.71227e-06
-0.000299238
9.63096e-05
0.000205921
-0.000202009
5.31222e-05
0.000149108
8.73597e-05
-6.15221e-05
-2.58358e-05
4.72171e-05
0.000185173
-0.000231504
1.68853e-05
-5.40538e-05
0.000249519
-1.1454e-05
-0.000234142
2.17666e-05
-0.000235136
0.000214115
-8.82044e-05
5.61843e-05
1.90085e-06
-7.95988e-05
-0.000217118
8.27675e-05
0.000134758
-8.45604e-05
-3.62088e-05
-0.000131217
0.000117774
1.34715e-05
-6.34286e-05
8.87228e-05
-8.69802e-05
0.000130025
-3.38045e-05
7.74035e-05
1.7429e-05
-0.000108373
9.48162e-05
-0.000251502
-1.55166e-05
9.58075e-05
-4.22198e-05
-5.35847e-05
0.000172705
-0.000200493
-9.44952e-05
-3.41969e-05
0.000128748
-9.85599e-05
6.56661e-06
9.20056e-05
2.89377e-05
1.27665e-05
-2.67732e-05
-0.000104409
-9.70834e-05
-5.40208e-06
0.0001025
1.59559e-07
-3.01594e-05
-1.71451e-05
4.43743e-05
-2.72292e-05
-6.86792e-05
0.000152821
0.000268811
-7.77043e-05
-0.000186956
9.11829e-05
2.96147e-05
0.000250422
-0.000170985
-7.90243e-05
-6.56733e-05
-3.87431e-05
0.000104463
6.05986e-05
4.06786e-05
-0.000101272
-6.83335e-05
3.32571e-05
3.50765e-05
7.76721e-05
-1.7069e-05
7.12753e-05
-4.02977e-05
-3.09773e-05
-0.00027751
0.000127976
0.000154817
-5.95119e-05
2.86899e-05
0.000193794
9.99397e-06
0.000187586
9.5343e-06
6.22746e-05
-7.18048e-05
1.69795e-05
-5.10007e-05
-7.92808e-05
5.14335e-05
2.78499e-05
7.15001e-06
-0.000104217
0.000126936
5.5502e-06
-0.000132458
-6.71155e-05
-3.67225e-05
0.000103856
-0.000144062
-8.81253e-05
0.0002346
-0.000116533
2.61897e-05
9.03553e-05
-0.000173027
0.000201248
-0.000100529
3.71106e-05
-4.83498e-05
-8.99175e-07
4.92491e-05
-4.40225e-05
7.21769e-05
-1.36359e-05
5.84204e-06
-0.000209035
0.0002572
0.000131862
-0.000273301
3.12788e-06
0.000103711
-9.67656e-05
-6.73258e-05
6.76364e-06
-3.07562e-05
-8.17355e-05
0.000112548
-0.000244934
0.000238767
8.58001e-06
-7.97437e-05
4.66165e-05
3.31286e-05
5.90813e-05
-2.81938e-05
-0.000102713
0.000188716
-8.5607e-05
-4.01585e-06
-6.42996e-05
4.67026e-05
-2.0963e-05
-2.57396e-05
2.90724e-05
-7.30916e-05
-0.000121405
0.000153331
2.02228e-05
3.50099e-05
-5.52326e-05
-7.83796e-05
0.000144184
-6.57781e-05
0.000123404
-0.000166473
4.35552e-05
-3.44767e-05
5.83822e-05
0.000140796
-2.46329e-05
7.88096e-05
-0.000157161
-0.000240515
7.59812e-05
0.000165076
0.000155621
-0.000138787
-1.67881e-05
-1.89981e-05
6.94857e-05
-5.04858e-05
2.19238e-05
4.93517e-05
5.78363e-05
-0.000123462
5.16926e-05
4.30141e-05
-9.4701e-05
-0.000263871
0.000259549
-4.05807e-05
0.00011766
-7.70569e-05
0.000192303
5.35111e-05
-0.000244207
1.62692e-05
-0.000114815
9.34734e-05
-0.000162042
-4.97238e-05
5.92617e-05
-3.84204e-05
4.43019e-05
-5.88149e-06
-7.28495e-05
-0.000197906
-0.000242558
6.48669e-05
0.00017817
-1.5731e-05
-4.62241e-05
6.19566e-05
-0.000180472
-6.15612e-05
-0.000137203
-6.45823e-05
-0.000109952
5.79344e-05
-6.7098e-05
9.16411e-06
-9.66052e-06
4.0885e-05
0.00025238
-0.000256856
5.2166e-06
0.000113663
-7.78862e-05
-3.57677e-05
-1.49647e-05
3.79881e-05
-2.30234e-05
3.83953e-05
-6.14667e-05
7.56657e-05
0.000125029
-0.000200372
-0.000273104
0.000270922
4.12888e-06
4.61808e-06
0.000108795
-0.000113322
9.60263e-05
-0.00012672
8.54762e-05
-0.000232081
3.20885e-05
-4.70532e-05
-3.6607e-05
-4.31349e-05
-7.58514e-05
5.82395e-05
1.76136e-05
-1.6536e-05
-5.86909e-05
-1.71569e-05
0.000250053
-0.00023006
9.97424e-05
-1.48947e-05
-0.000115342
6.1511e-05
5.38458e-05
-3.35139e-05
-3.48194e-05
3.07367e-05
0.000140237
-0.000170934
-4.75434e-05
7.33964e-05
2.04647e-05
-9.38537e-05
-0.000164065
4.27973e-05
0.000121366
4.66426e-05
-1.95742e-05
-0.000222275
1.48663e-05
-5.86405e-05
4.37762e-05
2.68887e-05
9.57268e-05
-9.74595e-05
-5.92204e-05
4.07741e-05
1.84465e-05
-7.96998e-05
-3.86338e-05
0.000118363
0.000215689
5.53894e-05
-8.22573e-06
0.000135939
-0.00012763
0.000111859
-2.64261e-06
-0.000109202
-0.000111098
-7.40756e-05
0.0001858
-3.64277e-05
0.000160378
3.67008e-05
1.13573e-05
-4.80581e-05
-1.41612e-05
-6.1688e-05
-4.4611e-05
-0.00018313
0.000229269
-4.48901e-05
8.87219e-07
4.40029e-05
5.17534e-05
-4.95063e-05
-2.97715e-05
-0.000233416
-2.80524e-05
0.000262736
1.6431e-06
-4.30239e-05
-1.38558e-05
5.68811e-05
-0.000218295
0.00011606
-0.00026808
-2.79907e-05
-0.000283814
0.000107412
0.000177746
-0.000188331
1.78948e-05
0.000170494
-4.32662e-05
7.51318e-05
2.32851e-05
8.85866e-05
0.000122989
-0.000118272
-0.00015626
7.4586e-05
-4.49168e-05
0.000139593
-0.000145763
5.7573e-05
-0.00022759
-3.43464e-05
-3.08875e-05
3.14262e-05
7.0219e-05
-5.84405e-05
-0.000116265
6.75271e-05
4.87541e-05
7.80742e-05
3.55961e-05
-2.13661e-05
6.04552e-05
0.000149883
-0.000119113
-8.00551e-05
-0.000136616
-1.08769e-05
2.22091e-06
2.10471e-05
-3.97978e-05
5.46661e-05
-3.36739e-05
-2.55461e-05
-0.000109604
0.000243734
0.000262862
-7.14498e-05
-0.000187229
0.000132341
-0.000239728
-0.00012434
0.000152827
6.03002e-05
-0.000127394
-3.57262e-05
-4.54514e-05
-0.000244825
0.000203208
-8.43512e-07
-0.000198876
0.000199836
-4.9469e-06
0.000232243
-0.000223915
-7.45825e-05
3.99948e-05
-5.60652e-05
-2.1293e-05
-3.21859e-05
8.86266e-05
-5.64355e-05
-0.000110854
6.42506e-05
4.66081e-05
-7.35487e-05
-0.000123666
0.000197788
5.81517e-05
-7.05719e-05
1.24218e-05
-9.05501e-05
6.63173e-05
0.000150876
-0.000101217
-4.95975e-05
-0.000134591
6.91625e-05
6.5448e-05
-2.84629e-05
3.16077e-05
1.72988e-05
-4.89065e-05
3.1585e-05
5.57763e-05
-0.000116523
0.000118031
3.79096e-06
-9.43909e-05
-3.93018e-05
0.000133744
-7.59084e-05
4.23312e-05
3.35781e-05
3.18661e-06
5.47481e-05
0.000200025
-0.000130056
-6.98015e-05
-0.000243935
0.000229571
4.49298e-05
-0.000112041
6.71343e-05
0.000105533
0.000149469
-0.000254002
0.000154783
-0.000118475
-3.61881e-05
-4.76848e-05
7.14243e-05
-2.37386e-05
-2.37208e-05
-3.73566e-05
6.10779e-05
-9.33684e-05
7.82533e-06
8.55537e-05
9.98028e-05
-0.000144648
1.54582e-05
-5.38786e-05
0.000182571
-0.000239758
5.76106e-05
0.00017464
-1.64884e-06
0.000235937
-0.000204911
-3.01376e-05
-1.91967e-05
0.000249311
0.000114399
-5.54763e-05
-5.89083e-05
-0.000120676
0.000181521
-6.05918e-05
4.00358e-06
-4.88936e-05
-2.07511e-05
-4.55986e-05
6.63514e-05
-7.43691e-05
-0.000165651
-0.000243052
0.000200082
5.39502e-05
-2.8875e-05
-2.50753e-05
1.26199e-05
-0.000105976
-6.37323e-05
4.20339e-05
0.000236723
-5.37411e-05
-9.19774e-05
0.000113093
-2.10822e-05
-0.000245779
-2.52797e-05
7.73345e-05
-0.000176232
9.89622e-05
6.04334e-05
-0.000195031
-0.000232661
0.000165225
3.90029e-05
1.09536e-05
-4.99564e-05
-3.94655e-05
2.23204e-05
2.00287e-05
2.56562e-05
-4.56846e-05
-2.87573e-05
-2.93031e-05
3.54718e-05
5.26882e-06
-8.66858e-05
6.37385e-05
2.29509e-05
5.89004e-05
-2.83299e-05
-3.05705e-05
0.000112409
4.32456e-05
5.95335e-05
0.000172232
-8.39604e-05
6.25951e-05
0.000253218
-0.00024959
-2.0344e-06
-6.5491e-06
-0.000201834
0.000209325
2.25011e-05
0.000191778
5.09123e-05
6.3495e-05
-0.000215978
0.000226434
-1.008e-05
-2.4056e-05
0.000178878
-5.76285e-05
-5.32202e-05
-6.65865e-05
3.3166e-05
3.34208e-05
-4.01761e-05
-0.000241822
4.98141e-05
-8.97953e-06
0.000101152
2.23571e-05
-0.000123463
-0.000241525
9.57469e-06
-0.000195067
9.6045e-05
9.92323e-05
5.4462e-05
0.000203847
-0.000257725
0.00018906
-3.29635e-05
-0.00013101
6.67546e-05
3.62106e-05
-0.000102944
-7.24603e-05
-7.32846e-05
2.23069e-05
2.43957e-05
9.52046e-05
7.24995e-05
6.70298e-05
0.000141473
-0.000207954
-5.45059e-05
3.87762e-05
-2.40321e-05
-3.38467e-05
5.78792e-05
7.18982e-05
-4.96112e-05
-2.22859e-05
-3.17158e-05
5.11459e-05
-0.000103797
3.72617e-05
6.65473e-05
7.56056e-05
0.000137683
-0.000212927
-0.000186426
-4.01481e-05
-1.2121e-05
-0.000230052
0.000216451
3.43276e-05
0.000110202
-0.000102364
0.000136056
-8.30593e-05
-5.29443e-05
-0.000135964
-1.03558e-05
0.000146434
5.81747e-05
-0.000137841
0.000149135
-7.54401e-05
3.42924e-05
4.11492e-05
8.79371e-05
-0.000147004
0.000201907
-4.70539e-05
-0.000109134
2.76252e-05
-5.51619e-05
-0.000120412
0.000187535
-6.68857e-05
-6.92588e-05
4.55386e-05
1.50007e-06
-2.06885e-06
-0.000234927
5.12639e-05
-3.47867e-05
-1.64771e-05
-0.000102106
0.000138847
-3.66831e-05
0.000164647
-0.000231556
6.74512e-05
5.43824e-05
-7.33784e-05
-5.05278e-05
8.95781e-05
-6.12204e-05
-5.41089e-05
-5.4016e-05
4.66731e-05
9.2885e-05
0.000165786
7.43854e-05
-0.000199298
0.000125152
3.14636e-05
5.62241e-05
-3.14448e-05
-0.000164188
0.000121257
4.29481e-05
-5.59507e-05
-3.6052e-05
9.20116e-05
-2.90388e-05
9.46865e-05
-2.60226e-05
-4.94156e-05
-4.45255e-05
2.5042e-05
1.94835e-05
-6.72688e-05
0.000226128
-8.36641e-06
-2.77646e-05
8.12295e-05
-5.34578e-05
1.01244e-05
0.000248598
2.7355e-05
8.2858e-05
0.000197591
-0.000152717
-4.45239e-05
4.89907e-06
-5.89149e-05
3.00907e-05
-0.000122029
-4.42932e-05
-3.1614e-05
2.52724e-05
-0.000161126
-0.000129602
8.02498e-05
4.93752e-05
0.000108852
-5.51809e-05
3.91979e-05
-0.000232034
0.000249118
-1.90409e-06
3.35118e-05
3.25244e-05
0.000204213
-5.87077e-05
1.93654e-06
5.67728e-05
9.97749e-05
-0.000221368
0.00012305
-3.94791e-05
-2.46464e-05
6.41271e-05
0.000120271
3.46171e-05
6.06563e-06
0.000189783
-0.000193771
0.000320722
-0.000226582
0.000193697
-0.000165082
3.85831e-05
-7.14612e-05
3.28788e-05
-4.90799e-05
4.27061e-05
6.37385e-06
-5.24733e-05
2.92263e-05
0.000109821
-0.000149533
3.97672e-05
0.000188797
-5.76908e-05
-0.000130848
-9.41265e-05
9.1496e-05
-2.3383e-05
2.36772e-06
2.20384e-05
1.56618e-05
-1.99702e-05
4.07044e-06
3.06442e-05
2.74224e-05
-5.80664e-05
0.000141259
0.000180642
0.000214796
-0.000213057
-1.43826e-06
0.000106238
-3.28324e-05
-0.000103475
-6.60097e-06
-0.000113563
5.76236e-05
1.87774e-05
-0.000112891
0.000217511
-2.46722e-06
-0.000249808
3.43687e-05
0.00016206
-8.91284e-05
-7.28871e-05
0.000103691
-0.000223816
8.21023e-05
0.000104141
6.10967e-05
-6.5112e-05
-0.000196839
8.85423e-05
0.000108421
-9.18571e-05
-7.2309e-05
0.000190164
-6.44697e-05
-0.000125559
-0.000120712
0.000188345
5.1118e-05
-1.91735e-06
-4.92007e-05
0.000172532
-0.000238468
6.60784e-05
-0.000224504
4.02303e-05
0.000184702
7.44395e-06
-5.21287e-05
4.4685e-05
-4.11516e-05
4.79133e-05
-6.76177e-06
-6.2564e-05
-6.70119e-05
-7.82354e-06
5.26211e-05
-4.47965e-05
0.00010104
9.91292e-05
-0.000214042
-5.21534e-05
1.10018e-05
-1.15983e-05
-0.000235107
-4.63835e-05
2.58558e-05
2.05277e-05
1.83708e-05
-7.70763e-05
-0.000182706
0.000207166
-2.27112e-05
2.76859e-06
5.83286e-05
6.0054e-05
0.000104503
-5.95511e-05
-3.2914e-05
3.90854e-05
6.24317e-06
-4.46044e-05
-7.16432e-05
-6.23805e-05
4.32391e-05
1.91416e-05
0.000200505
0.000242602
-2.42752e-05
-0.000217093
-4.16795e-05
0.000204267
7.99551e-05
-0.000190449
0.000195886
1.75894e-05
3.04217e-05
3.6044e-05
-5.28821e-05
1.56618e-05
-3.45528e-05
-3.20333e-05
-0.00015571
-1.99606e-05
0.000175875
-3.57597e-05
4.31958e-05
-3.08757e-06
-0.00021209
0.000215487
-5.56792e-05
-2.8563e-05
8.42479e-05
1.88864e-05
0.000237105
-4.34331e-05
2.12149e-06
-0.000212037
4.72137e-05
0.000165034
-2.84273e-05
9.4625e-05
-6.34584e-05
-0.000113101
0.000189066
8.03425e-05
-0.000159937
7.96729e-05
-0.00021167
0.000211631
0.000100279
-3.80175e-06
-9.64673e-05
-5.69834e-05
-1.75988e-05
0.000233046
-1.14297e-05
-0.000214976
4.912e-05
8.49697e-06
-5.76168e-05
-2.05515e-05
-2.87023e-05
4.92539e-05
-4.60872e-05
0.000121381
-7.52808e-05
-7.58606e-05
4.81017e-05
-2.97464e-05
4.97753e-05
0.00015557
-9.14941e-05
-0.000105199
-0.000124435
0.00017316
-4.85964e-05
-3.46638e-05
1.80776e-05
3.54975e-05
-0.000190988
-0.000140748
9.35998e-05
4.71801e-05
2.88688e-05
-0.000226861
0.00019868
3.34208e-05
-6.22211e-05
2.88004e-05
-0.000159912
4.02465e-05
0.000119712
2.67523e-06
-5.87382e-05
-6.57782e-05
9.79939e-05
-3.22083e-05
-3.24595e-05
4.07719e-05
-0.000176315
0.000234162
-8.16013e-06
-0.000225252
0.00010027
-0.000133568
3.33265e-05
5.83693e-05
1.50865e-05
-7.34546e-05
0.000200975
-4.35724e-05
-2.69382e-05
-9.44049e-05
0.000239521
-0.000144856
3.24302e-05
2.66517e-05
-0.000115819
0.000197041
-8.09011e-05
-0.000275364
0.000282106
-5.04382e-06
0.000183118
1.65049e-05
-8.1401e-05
9.5619e-05
-7.57215e-06
-2.12422e-05
-2.82993e-05
4.95416e-05
-2.34457e-05
5.58765e-05
0.000190037
4.7174e-05
-7.04916e-05
-2.36851e-07
7.07318e-05
-5.1601e-05
-8.06288e-05
0.000132278
4.07981e-05
3.1101e-05
-3.75278e-06
-4.53271e-05
-7.4808e-05
3.17857e-05
5.07637e-05
-6.46745e-05
1.39118e-05
-0.000297851
0.00014833
0.000150547
-3.5797e-05
-2.60838e-05
3.43985e-05
-0.000118929
0.000262132
-5.27742e-05
-0.000208558
3.3196e-05
0.000108689
4.6757e-05
2.85633e-05
2.27005e-05
0.000198303
-0.000204897
0.000176066
-0.000212538
3.65109e-05
1.73947e-05
-0.000212654
0.000195881
5.11341e-05
-7.67773e-05
3.79879e-05
4.31315e-05
8.82515e-06
-5.19567e-05
9.37753e-05
8.69942e-06
-0.000102464
4.86509e-05
2.69558e-05
3.19446e-05
-0.000202744
-9.18415e-07
0.000203944
-7.16771e-05
9.20523e-05
-0.000116962
8.85399e-05
2.84479e-05
2.71399e-05
-5.22331e-06
-3.83716e-05
-0.000221207
0.00017746
-9.7014e-05
0.000180406
2.03177e-05
-0.000200189
8.48539e-05
-3.29703e-05
-0.000126888
7.40036e-05
-1.86183e-05
-5.53814e-05
3.99518e-05
1.52236e-05
-5.51753e-05
8.2144e-05
-0.000118185
-0.000111683
0.000213031
-0.00017496
7.29184e-05
9.2337e-05
-3.96406e-05
-5.26882e-05
4.04079e-05
1.41608e-05
-5.45685e-05
-5.96343e-05
-8.10585e-05
-5.83767e-05
4.18189e-06
5.41954e-05
0.000138202
-4.81626e-05
-9.00047e-05
0.000238177
-4.76888e-05
1.72773e-05
-8.7765e-05
-5.21133e-05
-1.62021e-06
5.37342e-05
0.000213267
-0.000130098
-0.000334134
0.000132803
0.00020386
-3.24803e-05
7.45333e-05
-4.20521e-05
-3.26993e-05
4.0202e-05
3.62563e-06
-7.98025e-05
-2.67904e-05
4.40892e-05
-2.24418e-05
-2.14232e-05
-5.53908e-06
6.39096e-05
0.000220045
-0.000227265
-2.92967e-05
-1.31213e-05
4.2418e-05
1.0994e-05
4.14117e-05
-5.24057e-05
-2.65569e-05
7.24146e-05
-0.00019283
8.46236e-06
-0.000123972
1.95261e-05
4.3112e-05
-6.26375e-05
-1.4332e-05
1.4332e-05
-2.99959e-05
-4.42204e-05
7.42214e-05
-2.26592e-05
-2.37243e-05
6.98113e-05
-9.16968e-05
2.18897e-05
-5.41058e-05
2.16463e-05
9.86974e-05
-7.2525e-05
-2.61578e-05
-2.02173e-05
-2.40681e-05
4.42854e-05
-3.54046e-05
0.000102179
-7.48113e-05
-0.000140451
0.000215672
0.000200847
-2.47373e-05
-2.16866e-05
-2.39246e-05
4.56112e-05
-1.78359e-05
7.09435e-05
-5.31065e-05
4.76948e-05
2.91913e-05
-6.65474e-05
0.000221695
-7.18962e-05
4.19049e-05
-2.49583e-05
1.73267e-06
2.82278e-05
9.87259e-05
-9.92342e-05
3.67559e-05
6.24928e-05
4.49111e-05
-0.000108188
-0.000210367
2.96327e-05
0.000163529
1.44919e-05
-0.000177925
-6.91805e-05
-1.75012e-05
5.11013e-05
-1.98112e-06
2.69296e-05
-4.86162e-05
-4.71268e-05
3.28791e-06
4.38389e-05
0.000108774
4.21547e-05
-0.000124913
6.00865e-05
-4.32225e-05
7.22981e-05
0.000186644
-0.000187379
0.000242073
-0.000235312
-5.08427e-06
0.000205182
-0.000239702
3.54289e-05
-0.00021793
9.68534e-05
0.000121325
6.34836e-05
9.65356e-05
-0.000188131
9.19294e-05
-3.59115e-05
-6.33075e-05
-0.000278969
0.00023487
4.68967e-05
-6.66359e-06
1.78745e-05
0.000252075
-4.51877e-05
-0.000202468
2.6692e-05
2.81766e-05
-5.48685e-05
-0.000216891
1.08599e-05
-1.69353e-05
1.99784e-05
-1.64408e-06
-8.32323e-05
-3.37006e-05
0.000139441
-9.46787e-05
-4.47248e-05
7.35644e-05
0.000164335
4.00135e-07
3.86027e-05
-9.07659e-05
0.00019714
-0.000227355
0.000216239
1.22898e-05
0.000114667
-4.61118e-05
-6.85281e-05
0.000144826
-6.30715e-05
-8.17361e-05
5.18105e-05
-2.56605e-06
-0.000176661
0.000179547
-6.0422e-05
2.04584e-06
7.51826e-05
-3.76135e-05
-7.36257e-05
0.000111292
1.61839e-05
-6.82964e-05
7.73067e-05
-0.000114867
-6.57314e-05
-1.82279e-05
-0.00017492
8.9983e-05
5.74186e-05
-3.179e-05
-2.56285e-05
2.70188e-06
4.04297e-05
-0.000199436
-5.67682e-05
2.73435e-05
-3.01317e-05
7.02772e-05
-4.0144e-05
-0.000184401
0.000188449
3.30472e-06
-5.16005e-05
3.1545e-05
2.00555e-05
0.000239961
-0.000231078
-8.0073e-06
0.000235939
-4.38e-05
-0.000187738
9.07579e-05
-0.000144452
5.37479e-05
3.93515e-05
-0.000227802
-5.56246e-05
-2.95246e-05
8.51558e-05
-1.13246e-05
5.17326e-05
-0.00023967
3.1479e-05
2.59397e-05
-0.000133463
-0.000163375
-0.00014736
2.67312e-05
-7.15118e-05
5.36771e-05
0.000221312
-2.4211e-05
-0.000190428
-5.33738e-05
3.33405e-05
2.00333e-05
0.000155502
4.64875e-05
-0.000201779
-0.000230108
3.49932e-05
0.000195891
-2.30517e-05
0.000250691
-0.000226656
0.000254769
-4.88562e-05
-3.20297e-06
8.25752e-05
-7.93688e-05
6.94016e-05
2.64091e-05
-4.69453e-05
3.96663e-06
4.29786e-05
-1.36145e-05
9.57698e-05
2.11722e-05
4.00412e-05
2.50329e-05
9.85522e-05
-0.000123558
0.000238289
7.62996e-05
7.94612e-06
-8.4242e-05
-4.74674e-07
-4.66521e-05
6.43692e-05
-1.36045e-05
-9.64926e-05
5.42764e-05
-8.61504e-05
5.39696e-05
7.74172e-05
3.51852e-05
-0.000112573
0.000156417
1.32522e-05
-0.000169529
-7.58989e-05
7.26991e-05
-0.000236168
0.000133599
0.000102877
-3.3046e-05
6.00799e-05
-5.46443e-05
5.83223e-05
2.53665e-06
2.162e-05
-5.09167e-05
0.000195566
-1.01058e-06
-3.13244e-05
-6.51644e-05
7.06011e-05
9.15026e-05
-0.000217478
5.08996e-05
0.000167085
-2.42882e-05
-4.35837e-05
0.000257736
-0.000235222
-1.97151e-05
-7.29834e-05
2.86915e-05
-2.50463e-05
0.000180741
0.000184546
4.8899e-05
8.72053e-05
7.0004e-05
4.02165e-05
-0.000110208
6.44249e-05
1.81529e-05
6.14608e-05
-5.34e-05
-3.77813e-06
5.71791e-05
4.7869e-05
-1.91494e-05
-2.87196e-05
-9.68811e-05
-8.30387e-05
1.88319e-05
-4.56222e-05
0.000284539
-0.000167451
-0.000116468
-5.48787e-05
-1.49481e-06
5.63747e-05
7.0083e-05
2.8627e-05
0.000180985
-6.62621e-05
0.000200828
1.68618e-05
-9.8611e-05
9.04453e-05
-0.000191691
-0.000117238
-3.3771e-05
-0.000195403
6.74417e-05
-0.000164703
9.73688e-05
1.65309e-05
-7.14083e-05
-6.5224e-05
4.66087e-05
-7.00377e-05
3.75582e-05
0.00010495
-6.84244e-05
-3.65087e-05
-4.43022e-06
0.000128841
-0.000121943
5.177e-05
-0.000104603
5.28576e-05
-6.28577e-05
3.90807e-05
5.88697e-05
-0.000254133
0.00019781
-6.21877e-05
9.89583e-05
-0.000225991
0.000170516
5.57596e-05
-4.245e-05
3.6085e-06
3.88416e-05
0.000191296
-2.94973e-05
-0.000161701
4.52724e-05
-9.79909e-06
-3.54732e-05
-4.63419e-05
-1.5946e-06
1.66787e-05
5.35415e-05
-1.68691e-05
4.3686e-07
-0.000122053
9.79595e-05
2.41123e-05
0.000115918
0.000146842
-9.31031e-05
-0.000124543
0.000185855
-8.95376e-05
-9.61813e-05
0.000216322
-2.17394e-05
-0.000204312
8.02329e-05
0.00016544
-0.000239
6.05715e-05
-2.19877e-05
-3.03909e-05
-1.34741e-05
7.08208e-05
8.72452e-05
-0.000157972
-2.01548e-05
-3.32189e-05
0.000203909
3.45866e-05
-0.000139865
5.68587e-05
4.49461e-05
-0.000168998
2.59422e-05
-7.30751e-05
4.71355e-05
3.04415e-05
-4.58675e-05
-6.53792e-05
0.000136277
-0.000200019
0.000220438
-1.60554e-05
-5.15946e-05
5.42719e-05
-0.0002174
0.000220418
-1.61413e-05
-0.000174417
0.000129621
4.49333e-05
3.66533e-05
1.7297e-05
4.04146e-05
-6.28619e-05
2.24477e-05
4.77214e-05
2.47994e-05
-7.25195e-05
4.85047e-05
-6.23591e-05
6.39595e-05
5.4436e-06
8.51813e-06
-0.000196795
0.00015078
0.00011161
-0.000261404
2.93599e-05
-6.24054e-05
0.000194932
-7.0646e-05
5.18799e-05
1.87673e-05
0.000175437
-0.00011789
-5.74087e-05
2.99021e-06
-0.000136953
0.000134016
6.10605e-05
-3.33907e-05
-2.76696e-05
3.08219e-05
2.77038e-05
-5.85255e-05
-0.000193569
-7.47569e-07
-4.61977e-05
9.65164e-05
9.37627e-05
-7.06283e-05
-1.72721e-05
8.79171e-05
8.84483e-05
-4.54295e-05
4.06822e-05
-2.86898e-05
4.14582e-05
-6.75775e-05
2.61203e-05
1.2417e-07
-3.49424e-05
4.36422e-05
-3.54695e-05
9.02383e-05
-4.00408e-05
3.57779e-05
-5.85096e-05
2.27318e-05
0.000203922
4.92044e-05
-0.000246055
0.00021274
5.1127e-05
4.66194e-05
-0.000237316
0.000191295
-3.88252e-05
-1.89991e-05
5.78249e-05
8.03837e-05
-5.94319e-05
-2.09474e-05
0.000113599
2.13503e-05
3.23176e-05
-5.36677e-05
0.000139665
-3.8466e-05
-1.84572e-05
-8.05638e-05
-4.16521e-05
-0.000184044
-5.37832e-05
0.000190072
-0.000131616
0.000182041
-0.000146308
-2.49303e-05
-0.000204971
0.000243869
-3.31951e-05
-2.37844e-05
-2.07411e-05
4.33855e-05
3.90965e-05
4.60145e-05
-8.51069e-05
-7.61966e-06
0.00020863
1.99038e-05
-0.000215418
9.44912e-05
0.000238563
-0.000206242
-3.11108e-05
0.000137615
-4.6809e-05
0.00014772
-0.000171676
5.5239e-05
6.04007e-05
-2.72439e-05
-3.31566e-05
-0.000104043
6.81473e-05
-8.738e-05
2.00648e-05
6.73181e-05
-3.20966e-05
7.11966e-05
0.000219645
2.41336e-05
3.18526e-06
-7.90811e-05
-9.17872e-05
0.000243483
1.71435e-05
-8.07818e-05
5.06518e-05
-2.39207e-05
5.32495e-05
-2.93286e-05
6.60836e-05
-2.25074e-05
-4.35755e-05
0.000184861
-4.00823e-06
-8.74215e-05
0.000154972
3.93416e-05
-5.6406e-05
1.70647e-05
2.57319e-05
2.59286e-05
-5.16604e-05
3.23036e-05
5.05442e-05
5.78132e-05
-0.000108353
4.23194e-05
5.0023e-05
-3.07333e-05
-2.14201e-05
-0.000101603
3.87213e-06
2.45568e-05
-6.77763e-05
2.02545e-05
3.69353e-05
-5.97012e-05
8.70667e-05
2.81056e-07
-2.41723e-05
0.000102214
-0.000135134
2.75604e-05
2.12074e-05
-4.87677e-05
3.81757e-05
1.29423e-05
-5.72622e-05
-2.62871e-05
8.35553e-05
2.73848e-06
-0.000222348
0.000219915
0.000195879
-0.000115002
-8.062e-05
4.2973e-05
9.5198e-05
-0.000138152
2.03104e-05
-4.12733e-05
-0.000175861
-4.10431e-05
-4.81811e-05
7.21536e-05
-2.39709e-05
0.000248813
-1.17347e-05
-0.000235331
0.000178292
6.99121e-05
1.22493e-05
-8.21572e-05
-0.000224676
-2.69317e-05
1.56527e-05
0.000215484
-0.000229711
0.000187627
1.01849e-05
-6.1545e-05
0.000155116
0.000189056
-4.44687e-05
-0.000139692
-0.000132574
-0.00010324
0.000218349
9.03322e-06
-6.24323e-05
-5.27648e-05
-2.04011e-05
7.31704e-05
-2.31794e-05
-3.49543e-05
-1.53538e-05
0.000117526
-6.50753e-05
-5.24395e-05
-2.07017e-05
0.000219742
-0.000198848
7.07593e-05
-8.23586e-05
3.09118e-05
0.000111135
-0.000134073
2.29766e-05
2.9531e-05
0.000220866
0.000119257
-0.000192278
6.60852e-05
-2.73639e-05
-1.12035e-05
6.84687e-05
-5.72582e-05
0.000117984
5.53044e-05
3.14156e-05
-5.10426e-05
1.9627e-05
5.00493e-05
-0.000109738
0.000101552
-0.000210305
7.84939e-06
5.2132e-06
-4.09586e-05
2.38752e-05
8.78867e-05
-0.000114911
2.70396e-05
9.34922e-06
-0.000188689
0.00018446
-2.00215e-05
5.84961e-05
-3.84729e-05
-0.000120008
0.000113093
9.30653e-06
-0.000108817
-3.84692e-05
-0.000119986
-8.53652e-05
0.000207764
6.69239e-05
7.8069e-06
-7.47294e-05
2.71465e-05
-0.000207026
1.79388e-05
0.000193195
0.000193861
-0.00018969
5.59484e-05
1.28421e-05
-6.87893e-05
-1.07206e-05
0.000245533
-6.25697e-05
3.77409e-05
2.48293e-05
3.07827e-05
-4.93634e-05
1.85807e-05
4.30542e-05
8.02219e-05
-0.000123248
0.000196627
0.000115169
-0.000168187
5.33044e-05
-0.00023606
0.000118687
-3.83066e-05
-2.30198e-06
2.19325e-05
3.23572e-05
-6.74205e-05
5.42317e-05
6.83207e-05
0.000143087
-0.000211025
-2.40444e-05
-2.75561e-05
-1.63432e-06
-1.83133e-05
-0.000192922
0.000215365
4.59177e-05
1.75997e-05
0.000255267
-0.000244293
-9.18146e-06
-2.96811e-05
-3.30651e-05
0.000198935
-4.65281e-06
-0.000187477
-0.00015396
9.10261e-05
6.29704e-05
3.14507e-05
0.000265462
-4.59553e-05
-0.000218738
-0.000106916
-0.000109112
0.000217192
-0.000116513
-5.7686e-07
5.14396e-05
-2.15728e-05
-6.46978e-05
0.000229876
-0.000130689
0.000133735
9.29941e-05
-5.76459e-05
-3.53469e-05
-2.6158e-05
0.000128419
2.38529e-05
0.000179009
-0.000199374
4.79662e-05
6.67226e-05
-0.000135188
4.07443e-05
9.21394e-05
4.93484e-06
3.67408e-05
0.000139789
3.67888e-06
0.000107484
-4.18032e-05
3.20042e-05
8.86682e-05
-0.000103043
1.43899e-05
0.000239868
-0.000211353
-2.78855e-05
8.27129e-05