/*--------------------------------*- C++ -*----------------------------------*\
| =========                 |                                                 |
| \\      /  F ield         | OpenFOAM: The Open Source CFD Toolbox           |
|  \\    /   O peration     | Version:  v2012                                 |
|   \\  /    A nd           | Website:  www.openfoam.com                      |
|    \\/     M anipulation  |                                                 |
\*---------------------------------------------------------------------------*/
FoamFile
{
    version     2.0;
    format      ascii;
    class       pointVectorField;
    location    "1000";
    object      pointDisplacement;
}
// * * * * * * * * * * * * * * * * * * * * * * * * * * * * * * * * * * * * * //

dimensions      [0 1 0 0 0 0 0];


internalField   nonuniform List<vector> 
19220
(
(0 0 0)
(0 2.56438e-06 0)
(0 2.56438e-06 0)
(0 0 0)
(0 2.56438e-06 0)
(0 2.56438e-06 0)
(0 0 0)
(0 0 0)
(0 0 0)
(0 0 0)
(0 0 0)
(0 0 0)
(0 0 0)
(0 0 0)
(0 0 0)
(0 0 0)
(0 0 0)
(0 0 0)
(0 0 0)
(0 0 0)
(0 0 0)
(0 0 0)
(0 0 0)
(0 0 0)
(0 0 0)
(0 0 0)
(0 0 0)
(0 0 0)
(0 0 0)
(0 0 0)
(0 0 0)
(0 0 0)
(0 0 0)
(0 0 0)
(0 0 0)
(0 0 0)
(0 0 0)
(0 0 0)
(0 0 0)
(0 0 0)
(0 0 0)
(0 0 0)
(0 0 0)
(0 0 0)
(0 0 0)
(0 0 0)
(0 0 0)
(0 0 0)
(0 0 0)
(0 0 0)
(0 0 0)
(0 0 0)
(0 0 0)
(0 0 0)
(0 0 0)
(0 0 0)
(0 0 0)
(0 0 0)
(0 0 0)
(0 0 0)
(0 0 0)
(0 0 0)
(0 0 0)
(0 0 0)
(0 0 0)
(0 0 0)
(0 0 0)
(0 0 0)
(0 0 0)
(0 0 0)
(0 0 0)
(0 0 0)
(0 0 0)
(0 0 0)
(0 0 0)
(0 0 0)
(0 0 0)
(0 0 0)
(0 0 0)
(0 0 0)
(0 0 0)
(0 0 0)
(0 0 0)
(0 0 0)
(0 0 0)
(0 0 0)
(0 0 0)
(0 0 0)
(0 0 0)
(0 0 0)
(0 0 0)
(0 0 0)
(0 0 0)
(0 0 0)
(0 0 0)
(0 2.56438e-06 0)
(0 2.56438e-06 0)
(0 2.56438e-06 0)
(0 2.56438e-06 0)
(0 2.56438e-06 0)
(0 2.56438e-06 0)
(0 2.56438e-06 0)
(0 2.56438e-06 0)
(0 2.56438e-06 0)
(0 2.56438e-06 0)
(0 2.56438e-06 0)
(0 2.56438e-06 0)
(0 2.56438e-06 0)
(0 2.56438e-06 0)
(0 2.56438e-06 0)
(0 2.56438e-06 0)
(0 2.56438e-06 0)
(0 2.56438e-06 0)
(0 2.56438e-06 0)
(0 2.56438e-06 0)
(0 2.56438e-06 0)
(0 2.56438e-06 0)
(0 2.56438e-06 0)
(0 2.56438e-06 0)
(0 2.56438e-06 0)
(0 2.56438e-06 0)
(0 2.56438e-06 0)
(0 2.56438e-06 0)
(0 2.56438e-06 0)
(0 2.56438e-06 0)
(0 2.56438e-06 0)
(0 2.56438e-06 0)
(0 2.56438e-06 0)
(0 2.56438e-06 0)
(0 2.56438e-06 0)
(0 2.56438e-06 0)
(0 2.56438e-06 0)
(0 2.56438e-06 0)
(0 2.56438e-06 0)
(0 2.56438e-06 0)
(0 2.56438e-06 0)
(0 2.56438e-06 0)
(0 2.56438e-06 0)
(0 2.56438e-06 0)
(0 2.56438e-06 0)
(0 2.56438e-06 0)
(0 2.56438e-06 0)
(0 2.56438e-06 0)
(0 2.56438e-06 0)
(0 2.56438e-06 0)
(0 2.56438e-06 0)
(0 2.56438e-06 0)
(0 2.56438e-06 0)
(0 2.56438e-06 0)
(0 2.56438e-06 0)
(0 2.56438e-06 0)
(0 2.56438e-06 0)
(0 2.56438e-06 0)
(0 2.56438e-06 0)
(0 2.56438e-06 0)
(0 2.56438e-06 0)
(0 2.56438e-06 0)
(0 2.56438e-06 0)
(0 2.56438e-06 0)
(0 2.56438e-06 0)
(0 2.56438e-06 0)
(0 2.56438e-06 0)
(0 2.56438e-06 0)
(0 2.56438e-06 0)
(0 2.56438e-06 0)
(0 2.56438e-06 0)
(0 2.56438e-06 0)
(0 2.56438e-06 0)
(0 2.56438e-06 0)
(0 2.56438e-06 0)
(0 2.56438e-06 0)
(0 2.56438e-06 0)
(0 2.56438e-06 0)
(0 2.56438e-06 0)
(0 2.56438e-06 0)
(0 2.56438e-06 0)
(0 2.56438e-06 0)
(0 2.56438e-06 0)
(0 2.56438e-06 0)
(0 2.56438e-06 0)
(0 2.56438e-06 0)
(0 2.56438e-06 0)
(0 2.56438e-06 0)
(0 2.56438e-06 0)
(0 2.56438e-06 0)
(0 2.56438e-06 0)
(0 2.56438e-06 0)
(0 2.56438e-06 0)
(0 2.56438e-06 0)
(0 2.56438e-06 0)
(0 2.56438e-06 0)
(0 2.56438e-06 0)
(0 2.56438e-06 0)
(0 2.56438e-06 0)
(0 2.56438e-06 0)
(0 2.56438e-06 0)
(0 2.56438e-06 0)
(0 2.56438e-06 0)
(0 2.56438e-06 0)
(0 2.56438e-06 0)
(0 2.56438e-06 0)
(0 2.56438e-06 0)
(0 2.56438e-06 0)
(0 2.56438e-06 0)
(0 2.56438e-06 0)
(0 2.56438e-06 0)
(0 2.56438e-06 0)
(0 2.56438e-06 0)
(0 2.56438e-06 0)
(0 2.56438e-06 0)
(0 2.56438e-06 0)
(0 2.56438e-06 0)
(0 2.56438e-06 0)
(0 2.56438e-06 0)
(0 2.56438e-06 0)
(0 2.56438e-06 0)
(0 2.56438e-06 0)
(0 2.56438e-06 0)
(0 2.56438e-06 0)
(0 2.56438e-06 0)
(0 2.56438e-06 0)
(0 2.56438e-06 0)
(0 2.56438e-06 0)
(0 0 0)
(0 0 0)
(0 0 0)
(0 0 0)
(0 0 0)
(0 0 0)
(0 0 0)
(0 0 0)
(0 0 0)
(0 0 0)
(0 0 0)
(0 0 0)
(0 0 0)
(0 0 0)
(0 0 0)
(0 0 0)
(0 0 0)
(0 0 0)
(0 0 0)
(0 0 0)
(0 0 0)
(0 0 0)
(0 0 0)
(0 0 0)
(0 0 0)
(0 0 0)
(0 0 0)
(0 0 0)
(0 0 0)
(0 0 0)
(0 0 0)
(0 0 0)
(0 0 0)
(0 0 0)
(0 0 0)
(0 0 0)
(0 0 0)
(0 0 0)
(0 0 0)
(0 0 0)
(0 0 0)
(0 0 0)
(0 0 0)
(0 0 0)
(0 0 0)
(0 0 0)
(0 0 0)
(0 0 0)
(0 0 0)
(0 0 0)
(0 0 0)
(0 0 0)
(0 0 0)
(0 0 0)
(0 0 0)
(0 0 0)
(0 0 0)
(0 0 0)
(0 0 0)
(0 0 0)
(0 0 0)
(0 0 0)
(0 0 0)
(0 0 0)
(0 0 0)
(0 0 0)
(0 0 0)
(0 0 0)
(0 0 0)
(0 0 0)
(0 0 0)
(0 0 0)
(0 0 0)
(0 0 0)
(0 0 0)
(0 0 0)
(0 0 0)
(0 0 0)
(0 0 0)
(0 0 0)
(0 0 0)
(0 0 0)
(0 0 0)
(0 0 0)
(0 0 0)
(0 0 0)
(0 0 0)
(0 0 0)
(0 0 0)
(0 2.56438e-06 0)
(0 2.56438e-06 0)
(0 2.56438e-06 0)
(0 2.56438e-06 0)
(0 2.56438e-06 0)
(0 2.56438e-06 0)
(0 2.56438e-06 0)
(0 2.56438e-06 0)
(0 2.56438e-06 0)
(0 2.56438e-06 0)
(0 2.56438e-06 0)
(0 2.56438e-06 0)
(0 2.56438e-06 0)
(0 2.56438e-06 0)
(0 2.56438e-06 0)
(0 2.56438e-06 0)
(0 2.56438e-06 0)
(0 2.56438e-06 0)
(0 2.56438e-06 0)
(0 2.56438e-06 0)
(0 2.56438e-06 0)
(0 2.56438e-06 0)
(0 2.56438e-06 0)
(0 2.56438e-06 0)
(0 2.56438e-06 0)
(0 2.56438e-06 0)
(0 2.56438e-06 0)
(0 2.56438e-06 0)
(0 2.56438e-06 0)
(0 2.56438e-06 0)
(0 2.56438e-06 0)
(0 2.56438e-06 0)
(0 2.56438e-06 0)
(0 2.56438e-06 0)
(0 2.56438e-06 0)
(0 2.56438e-06 0)
(0 2.56438e-06 0)
(0 2.56438e-06 0)
(0 2.56438e-06 0)
(0 2.56438e-06 0)
(0 2.56438e-06 0)
(0 2.56438e-06 0)
(0 2.56438e-06 0)
(0 2.56438e-06 0)
(0 2.56438e-06 0)
(0 2.56438e-06 0)
(0 2.56438e-06 0)
(0 2.56438e-06 0)
(0 2.56438e-06 0)
(0 2.56438e-06 0)
(0 2.56438e-06 0)
(0 2.56438e-06 0)
(0 2.56438e-06 0)
(0 2.56438e-06 0)
(0 2.56438e-06 0)
(0 2.56438e-06 0)
(0 2.56438e-06 0)
(0 2.56438e-06 0)
(0 2.56438e-06 0)
(0 2.56438e-06 0)
(0 2.56438e-06 0)
(0 2.56438e-06 0)
(0 2.56438e-06 0)
(0 2.56438e-06 0)
(0 2.56438e-06 0)
(0 2.56438e-06 0)
(0 2.56438e-06 0)
(0 2.56438e-06 0)
(0 2.56438e-06 0)
(0 2.56438e-06 0)
(0 2.56438e-06 0)
(0 2.56438e-06 0)
(0 2.56438e-06 0)
(0 2.56438e-06 0)
(0 2.56438e-06 0)
(0 2.56438e-06 0)
(0 2.56438e-06 0)
(0 2.56438e-06 0)
(0 2.56438e-06 0)
(0 2.56438e-06 0)
(0 2.56438e-06 0)
(0 2.56438e-06 0)
(0 2.56438e-06 0)
(0 2.56438e-06 0)
(0 2.56438e-06 0)
(0 2.56438e-06 0)
(0 2.56438e-06 0)
(0 2.56438e-06 0)
(0 2.56438e-06 0)
(0 2.56438e-06 0)
(0 2.56438e-06 0)
(0 2.56438e-06 0)
(0 2.56438e-06 0)
(0 2.56438e-06 0)
(0 2.56438e-06 0)
(0 2.56438e-06 0)
(0 2.56438e-06 0)
(0 2.56438e-06 0)
(0 2.56438e-06 0)
(0 2.56438e-06 0)
(0 2.56438e-06 0)
(0 2.56438e-06 0)
(0 2.56438e-06 0)
(0 2.56438e-06 0)
(0 2.56438e-06 0)
(0 2.56438e-06 0)
(0 2.56438e-06 0)
(0 2.56438e-06 0)
(0 2.56438e-06 0)
(0 2.56438e-06 0)
(0 2.56438e-06 0)
(0 2.56438e-06 0)
(0 2.56438e-06 0)
(0 2.56438e-06 0)
(0 2.56438e-06 0)
(0 2.56438e-06 0)
(0 2.56438e-06 0)
(0 2.56438e-06 0)
(0 2.56438e-06 0)
(0 2.56438e-06 0)
(0 2.56438e-06 0)
(0 2.56438e-06 0)
(0 2.56438e-06 0)
(0 2.56438e-06 0)
(0 2.56438e-06 0)
(0 2.56438e-06 0)
(0 2.56438e-06 0)
(0 2.56438e-06 0)
(0 2.56773e-06 0)
(0 2.56438e-06 0)
(0 2.56437e-06 0)
(0 2.56443e-06 0)
(0 2.5648e-06 0)
(0 2.56443e-06 0)
(0 2.57486e-06 0)
(0 2.56456e-06 0)
(0 2.56437e-06 0)
(0 2.56437e-06 0)
(0 2.5644e-06 0)
(0 2.58428e-06 0)
(0 2.57154e-06 0)
(0 2.56449e-06 0)
(0 7.94326e-07 0)
(0 1.49686e-06 0)
(0 2.00816e-06 0)
(0 1.07249e-06 0)
(0 3.67453e-08 0)
(0 9.26944e-07 0)
(0 6.87009e-07 0)
(0 8.9759e-07 0)
(0 1.15007e-06 0)
(0 2.56442e-06 0)
(0 2.58198e-06 0)
(0 2.56435e-06 0)
(0 2.56441e-06 0)
(0 2.58009e-06 0)
(0 2.56787e-06 0)
(0 2.56487e-06 0)
(0 2.56467e-06 0)
(0 2.56458e-06 0)
(0 2.56438e-06 0)
(0 7.71804e-07 0)
(0 6.47568e-07 0)
(0 5.56798e-07 0)
(0 2.5647e-06 0)
(0 2.56503e-06 0)
(0 2.56436e-06 0)
(0 7.43111e-07 0)
(0 4.72881e-07 0)
(0 7.47278e-07 0)
(0 8.06496e-07 0)
(0 5.4128e-07 0)
(0 1.26704e-06 0)
(0 1.6664e-06 0)
(0 1.72553e-06 0)
(0 4.6387e-07 0)
(0 8.78187e-07 0)
(0 2.56435e-06 0)
(0 3.72667e-07 0)
(0 4.03624e-07 0)
(0 2.75315e-07 0)
(0 9.6862e-07 0)
(0 -2.90858e-07 0)
(0 7.63955e-07 0)
(0 1.07224e-06 0)
(0 3.15454e-07 0)
(0 8.7398e-07 0)
(0 5.58041e-07 0)
(0 2.76631e-07 0)
(0 1.71367e-07 0)
(0 5.92748e-07 0)
(0 1.2263e-06 0)
(0 1.39089e-06 0)
(0 1.73164e-06 0)
(0 1.89032e-06 0)
(0 2.13436e-06 0)
(0 2.25086e-06 0)
(0 2.38866e-06 0)
(0 2.42359e-06 0)
(0 2.47164e-06 0)
(0 2.39383e-06 0)
(0 2.39284e-06 0)
(0 2.40816e-06 0)
(0 2.22108e-06 0)
(0 2.20143e-06 0)
(0 2.04218e-06 0)
(0 2.01e-06 0)
(0 1.91553e-06 0)
(0 1.89707e-06 0)
(0 1.84536e-06 0)
(0 1.80954e-06 0)
(0 1.75973e-06 0)
(0 1.69295e-06 0)
(0 1.62042e-06 0)
(0 1.55064e-06 0)
(0 1.45391e-06 0)
(0 1.55532e-06 0)
(0 1.38792e-06 0)
(0 1.48663e-06 0)
(0 1.28929e-06 0)
(0 1.35821e-06 0)
(0 1.11127e-06 0)
(0 1.13603e-06 0)
(0 8.32892e-07 0)
(0 7.91434e-07 0)
(0 4.68671e-07 0)
(0 3.7855e-07 0)
(0 5.09689e-08 0)
(0 -6.5672e-08 0)
(0 1.47652e-07 0)
(0 -2.6901e-07 0)
(0 -1.87697e-07 0)
(0 -5.46551e-07 0)
(0 -3.98829e-07 0)
(0 -7.29688e-07 0)
(0 -5.12111e-07 0)
(0 -7.8696e-07 0)
(0 -5.45335e-07 0)
(0 -7.62194e-07 0)
(0 -5.1101e-07 0)
(0 -6.9641e-07 0)
(0 -9.02665e-07 0)
(0 -4.82564e-07 0)
(0 -6.42094e-07 0)
(0 -4.81648e-07 0)
(0 -6.21898e-07 0)
(0 -4.767e-07 0)
(0 -5.94785e-07 0)
(0 -4.47293e-07 0)
(0 -5.60373e-07 0)
(0 -4.2507e-07 0)
(0 -5.39407e-07 0)
(0 -4.29236e-07 0)
(0 -5.41799e-07 0)
(0 -6.20777e-07 0)
(0 -4.68653e-07 0)
(0 -5.80514e-07 0)
(0 -5.23706e-07 0)
(0 -6.31344e-07 0)
(0 -5.46792e-07 0)
(0 -6.55434e-07 0)
(0 -5.34307e-07 0)
(0 -6.4901e-07 0)
(0 -5.19309e-07 0)
(0 -6.36667e-07 0)
(0 -5.11441e-07 0)
(0 -6.11321e-07 0)
(0 -4.964e-07 0)
(0 -5.85082e-07 0)
(0 -4.64761e-07 0)
(0 -5.46703e-07 0)
(0 -4.17758e-07 0)
(0 -4.90249e-07 0)
(0 -3.48186e-07 0)
(0 -4.16156e-07 0)
(0 -2.59553e-07 0)
(0 -3.26809e-07 0)
(0 -1.69776e-07 0)
(0 -2.27224e-07 0)
(0 -7.28006e-07 0)
(0 -8.10639e-08 0)
(0 -1.30271e-07 0)
(0 -3.38678e-07 0)
(0 7.83963e-09 0)
(0 -3.76007e-08 0)
(0 9.94401e-08 0)
(0 3.01457e-08 0)
(0 1.71601e-07 0)
(0 7.50148e-08 0)
(0 2.13754e-07 0)
(0 1.07763e-07 0)
(0 2.42704e-07 0)
(0 1.34155e-07 0)
(0 2.89547e-07 0)
(0 2.54473e-07 0)
(0 1.50406e-07 0)
(0 2.57934e-07 0)
(0 1.6386e-07 0)
(0 2.71106e-07 0)
(0 1.69395e-07 0)
(0 2.80476e-07 0)
(0 1.66909e-07 0)
(0 -4.26192e-07 0)
(0 2.78076e-07 0)
(0 1.58788e-07 0)
(0 4.14524e-07 0)
(0 -4.74299e-07 0)
(0 2.66859e-07 0)
(0 1.47994e-07 0)
(0 2.431e-07 0)
(0 1.13877e-07 0)
(0 1.94753e-07 0)
(0 4.82166e-08 0)
(0 -2.25181e-08 0)
(0 -9.82272e-08 0)
(0 -1.54929e-07 0)
(0 -2.21242e-07 0)
(0 -1.75811e-07 0)
(0 -2.97209e-07 0)
(0 -3.23656e-07 0)
(0 -4.09402e-07 0)
(0 -3.90817e-07 0)
(0 -5.23086e-07 0)
(0 -5.28627e-07 0)
(0 -6.64619e-07 0)
(0 -6.65559e-07 0)
(0 -8.25382e-07 0)
(0 -8.40424e-07 0)
(0 -1.01899e-06 0)
(0 -9.81402e-07 0)
(0 -1.19333e-06 0)
(0 -1.13607e-06 0)
(0 -1.36271e-06 0)
(0 -1.44858e-06 0)
(0 -1.63779e-06 0)
(0 -1.73921e-06 0)
(0 -1.94111e-06 0)
(0 -1.8183e-06 0)
(0 -2.11385e-06 0)
(0 -2.23905e-06 0)
(0 -2.41642e-06 0)
(0 -2.23203e-06 0)
(0 -2.58779e-06 0)
(0 -2.7349e-06 0)
(0 -2.93774e-06 0)
(0 -2.76067e-06 0)
(0 -3.13393e-06 0)
(0 -3.31897e-06 0)
(0 -3.548e-06 0)
(0 -3.33478e-06 0)
(0 -3.78456e-06 0)
(0 -4.00785e-06 0)
(0 -4.26323e-06 0)
(0 -4.49446e-06 0)
(0 -4.75666e-06 0)
(0 -4.51299e-06 0)
(0 -5.02352e-06 0)
(0 -5.26778e-06 0)
(0 -5.55855e-06 0)
(0 -5.28835e-06 0)
(0 -5.85429e-06 0)
(0 -6.1384e-06 0)
(0 -6.47551e-06 0)
(0 -6.77586e-06 0)
(0 -7.14759e-06 0)
(0 -6.84207e-06 0)
(0 -7.51688e-06 0)
(0 -7.84564e-06 0)
(0 -8.22318e-06 0)
(0 -7.85038e-06 0)
(0 -8.57731e-06 0)
(0 -8.94585e-06 0)
(0 -9.32724e-06 0)
(0 -8.87393e-06 0)
(0 -9.7216e-06 0)
(0 -1.01297e-05 0)
(0 -1.0549e-05 0)
(0 -1.00627e-05 0)
(0 -1.09576e-05 0)
(0 -1.14375e-05 0)
(0 -1.1816e-05 0)
(0 -1.13362e-05 0)
(0 -1.21827e-05 0)
(0 -1.26599e-05 0)
(0 -1.30554e-05 0)
(0 -1.25499e-05 0)
(0 -1.34577e-05 0)
(0 -1.3948e-05 0)
(0 -1.38524e-05 0)
(0 -6.13216e-08 0)
(0 -3.16908e-07 0)
(0 2.7748e-07 0)
(0 -1.88737e-07 0)
(0 1.60563e-07 0)
(0 -2.89959e-07 0)
(0 5.02033e-08 0)
(0 -3.36427e-07 0)
(0 -3.08604e-08 0)
(0 -3.19705e-07 0)
(0 -6.24876e-08 0)
(0 -2.97911e-07 0)
(0 -8.24513e-08 0)
(0 7.56349e-08 0)
(0 1.45626e-06 0)
(0 1.37429e-06 0)
(0 1.45917e-06 0)
(0 1.37832e-06 0)
(0 1.46873e-06 0)
(0 1.38358e-06 0)
(0 1.48054e-06 0)
(0 1.56167e-06 0)
(0 1.57233e-06 0)
(0 1.48914e-06 0)
(0 1.57557e-06 0)
(0 1.49145e-06 0)
(0 1.57326e-06 0)
(0 1.48696e-06 0)
(0 1.56753e-06 0)
(0 1.64687e-06 0)
(0 1.47631e-06 0)
(0 1.55881e-06 0)
(0 1.64416e-06 0)
(0 1.63577e-06 0)
(0 1.54591e-06 0)
(0 1.62116e-06 0)
(0 1.71443e-06 0)
(0 1.52677e-06 0)
(0 1.59653e-06 0)
(0 1.49718e-06 0)
(0 1.56362e-06 0)
(0 1.461e-06 0)
(0 1.52979e-06 0)
(0 1.62727e-06 0)
(0 1.595e-06 0)
(0 1.68685e-06 0)
(0 1.6522e-06 0)
(0 1.73768e-06 0)
(0 1.69956e-06 0)
(0 1.78056e-06 0)
(0 1.7364e-06 0)
(0 1.81629e-06 0)
(0 1.7691e-06 0)
(0 1.84786e-06 0)
(0 1.80172e-06 0)
(0 1.8797e-06 0)
(0 1.82858e-06 0)
(0 1.909e-06 0)
(0 1.85551e-06 0)
(0 1.9383e-06 0)
(0 1.88633e-06 0)
(0 1.9669e-06 0)
(0 1.91536e-06 0)
(0 1.9911e-06 0)
(0 1.9393e-06 0)
(0 2.00957e-06 0)
(0 1.95637e-06 0)
(0 2.02566e-06 0)
(0 1.96834e-06 0)
(0 2.03822e-06 0)
(0 1.97704e-06 0)
(0 2.04798e-06 0)
(0 1.98709e-06 0)
(0 2.0575e-06 0)
(0 1.99738e-06 0)
(0 2.06259e-06 0)
(0 2.00168e-06 0)
(0 2.06324e-06 0)
(0 2.00045e-06 0)
(0 2.06025e-06 0)
(0 1.99136e-06 0)
(0 2.05403e-06 0)
(0 1.98178e-06 0)
(0 2.04621e-06 0)
(0 1.9754e-06 0)
(0 2.03464e-06 0)
(0 1.95367e-06 0)
(0 2.02016e-06 0)
(0 1.94912e-06 0)
(0 2.00422e-06 0)
(0 1.93161e-06 0)
(0 1.98321e-06 0)
(0 1.91027e-06 0)
(0 1.95958e-06 0)
(0 1.88791e-06 0)
(0 1.93329e-06 0)
(0 1.86031e-06 0)
(0 1.90471e-06 0)
(0 1.82723e-06 0)
(0 1.87547e-06 0)
(0 1.79181e-06 0)
(0 1.84368e-06 0)
(0 1.75564e-06 0)
(0 1.8085e-06 0)
(0 1.71761e-06 0)
(0 1.77018e-06 0)
(0 1.67697e-06 0)
(0 1.72514e-06 0)
(0 1.62542e-06 0)
(0 1.672e-06 0)
(0 1.56385e-06 0)
(0 1.61327e-06 0)
(0 1.49921e-06 0)
(0 1.54928e-06 0)
(0 1.42871e-06 0)
(0 1.4798e-06 0)
(0 1.35199e-06 0)
(0 1.40477e-06 0)
(0 1.26946e-06 0)
(0 1.32394e-06 0)
(0 1.18388e-06 0)
(0 1.23752e-06 0)
(0 1.08876e-06 0)
(0 1.1449e-06 0)
(0 9.86769e-07 0)
(0 1.04622e-06 0)
(0 8.76881e-07 0)
(0 9.37048e-07 0)
(0 7.55105e-07 0)
(0 8.09182e-07 0)
(0 6.25767e-07 0)
(0 6.78971e-07 0)
(0 4.87028e-07 0)
(0 5.49501e-07 0)
(0 7.51194e-07 0)
(0 6.10287e-07 0)
(0 4.06838e-07 0)
(0 4.78056e-07 0)
(0 6.72158e-07 0)
(0 5.50859e-07 0)
(0 3.35964e-07 0)
(0 4.18771e-07 0)
(0 6.22503e-07 0)
(0 4.87179e-07 0)
(0 2.73917e-07 0)
(0 3.43366e-07 0)
(0 1.15102e-07 0)
(0 1.92232e-07 0)
(0 4.19936e-07 0)
(0 2.74858e-07 0)
(0 3.42161e-08 0)
(0 1.25003e-07 0)
(0 -1.32097e-07 0)
(0 -3.53588e-08 0)
(0 2.47205e-07 0)
(0 5.77228e-08 0)
(0 -1.99466e-07 0)
(0 -1.04137e-07 0)
(0 1.29495e-06 0)
(0 1.42162e-07 0)
(0 -1.55534e-08 0)
(0 -2.67501e-07 0)
(0 -1.82905e-07 0)
(0 7.4467e-08 0)
(0 -9.29364e-08 0)
(0 -3.65193e-07 0)
(0 -2.71814e-07 0)
(0 -5.61775e-07 0)
(0 -4.64839e-07 0)
(0 1.66506e-07 0)
(0 1.66292e-06 0)
(0 1.9029e-06 0)
(0 1.92317e-06 0)
(0 1.85313e-06 0)
(0 1.72442e-06 0)
(0 1.83565e-06 0)
(0 1.66349e-06 0)
(0 1.37878e-06 0)
(0 9.17533e-07 0)
(0 -7.72709e-07 0)
(0 -6.73136e-07 0)
(0 -9.99416e-07 0)
(0 -8.96218e-07 0)
(0 1.8927e-06 0)
(0 -1.24139e-06 0)
(0 -1.13814e-06 0)
(0 -7.93502e-07 0)
(0 -1.03585e-06 0)
(0 -6.97813e-07 0)
(0 -9.38177e-07 0)
(0 -6.05443e-07 0)
(0 -8.43418e-07 0)
(0 -5.16232e-07 0)
(0 -7.52278e-07 0)
(0 -4.28859e-07 0)
(0 -6.65694e-07 0)
(0 -1.00305e-06 0)
(0 -9.20206e-07 0)
(0 -5.79872e-07 0)
(0 -4.98027e-07 0)
(0 -1.50724e-06 0)
(0 -1.60473e-06 0)
(0 2.02827e-06 0)
(0 1.92216e-06 0)
(0 -1.89653e-06 0)
(0 -1.98967e-06 0)
(0 2.09673e-06 0)
(0 -2.30383e-06 0)
(0 -2.39982e-06 0)
(0 -2.73579e-06 0)
(0 -2.83503e-06 0)
(0 2.11893e-06 0)
(0 2.03627e-06 0)
(0 1.49541e-06 0)
(0 -3.19659e-06 0)
(0 -3.28922e-06 0)
(0 -3.67066e-06 0)
(0 -3.76223e-06 0)
(0 -1.40525e-05 0)
(0 -1.44938e-05 0)
(0 -1.32171e-05 0)
(0 -1.28065e-05 0)
(0 -1.19572e-05 0)
(0 -5.0405e-07 0)
(0 -2.96811e-07 0)
(0 -1.16106e-05 0)
(0 -1.0751e-05 0)
(0 -1.10515e-05 0)
(0 -9.88764e-06 0)
(0 -1.01801e-05 0)
(0 -9.07757e-06 0)
(0 -8.80114e-06 0)
(0 -8.03912e-06 0)
(0 -4.15137e-06 0)
(0 -4.25904e-06 0)
(0 -8.34222e-06 0)
(0 -7.35499e-06 0)
(0 -7.08254e-06 0)
(0 -6.46986e-06 0)
(0 -6.70437e-06 0)
(0 -5.8896e-06 0)
(0 -5.68354e-06 0)
(0 -5.16064e-06 0)
(0 3.33218e-07 0)
(0 -4.95609e-06 0)
(0 -4.49123e-06 0)
(0 -4.6427e-06 0)
(0 -4.03793e-06 0)
(0 4.28887e-07 0)
(0 1.38669e-06 0)
(0 -3.87981e-06 0)
(0 -3.47995e-06 0)
(0 -3.55891e-06 0)
(0 -3.07563e-06 0)
(0 -2.95802e-06 0)
(0 -2.59262e-06 0)
(0 -2.66179e-06 0)
(0 -2.21753e-06 0)
(0 -2.08892e-06 0)
(0 -1.7477e-06 0)
(0 -1.82433e-06 0)
(0 -1.41902e-06 0)
(0 -1.26913e-06 0)
(0 -9.68985e-07 0)
(0 1.38805e-06 0)
(0 1.29338e-06 0)
(0 -7.18306e-07 0)
(0 -3.48075e-07 0)
(0 -5.46505e-07 0)
(0 1.24009e-07 0)
(0 3.71284e-07 0)
(0 8.30277e-07 0)
(0 6.52035e-07 0)
(0 1.3458e-06 0)
(0 1.58756e-06 0)
(0 2.08644e-06 0)
(0 1.88144e-06 0)
(0 2.58413e-06 0)
(0 2.79925e-06 0)
(0 3.22951e-06 0)
(0 3.00571e-06 0)
(0 3.55545e-06 0)
(0 3.29194e-06 0)
(0 3.74353e-06 0)
(0 3.45548e-06 0)
(0 3.86526e-06 0)
(0 4.09688e-06 0)
(0 4.26105e-06 0)
(0 4.02906e-06 0)
(0 4.48593e-06 0)
(0 4.24328e-06 0)
(0 4.72263e-06 0)
(0 4.47872e-06 0)
(0 4.96759e-06 0)
(0 5.19476e-06 0)
(0 5.4706e-06 0)
(0 5.22173e-06 0)
(0 5.73537e-06 0)
(0 5.42492e-06 0)
(0 5.90424e-06 0)
(0 5.50887e-06 0)
(0 5.94466e-06 0)
(0 6.31659e-06 0)
(0 6.26837e-06 0)
(0 5.83233e-06 0)
(0 6.05242e-06 0)
(0 5.58875e-06 0)
(0 5.72634e-06 0)
(0 6.14604e-06 0)
(0 5.76474e-06 0)
(0 5.3733e-06 0)
(0 5.39382e-06 0)
(0 5.04332e-06 0)
(0 5.07206e-06 0)
(0 5.35977e-06 0)
(0 5.09713e-06 0)
(0 4.82231e-06 0)
(0 4.90004e-06 0)
(0 4.63814e-06 0)
(0 4.74391e-06 0)
(0 4.95696e-06 0)
(0 4.50469e-06 0)
(0 4.6488e-06 0)
(0 4.41697e-06 0)
(0 4.62628e-06 0)
(0 4.39941e-06 0)
(0 4.67673e-06 0)
(0 4.4564e-06 0)
(0 4.79796e-06 0)
(0 4.56013e-06 0)
(0 4.95205e-06 0)
(0 4.97459e-06 0)
(0 4.7333e-06 0)
(0 -4.64977e-06 0)
(0 -4.55952e-06 0)
(0 -4.83136e-06 0)
(0 -4.37584e-06 0)
(0 -4.85974e-06 0)
(0 -4.46862e-06 0)
(0 -4.96143e-06 0)
(0 -4.57131e-06 0)
(0 -5.06427e-06 0)
(0 -4.65538e-06 0)
(0 -5.14705e-06 0)
(0 -4.72172e-06 0)
(0 5.20233e-06 0)
(0 4.98124e-06 0)
(0 4.26861e-06 0)
(0 -5.22192e-06 0)
(0 -4.80311e-06 0)
(0 5.43701e-06 0)
(0 5.20085e-06 0)
(0 1.40828e-06 0)
(0 4.25373e-06 0)
(0 -5.60234e-06 0)
(0 -5.29043e-06 0)
(0 -4.86539e-06 0)
(0 5.61549e-06 0)
(0 5.80597e-06 0)
(0 5.33355e-06 0)
(0 1.57573e-06 0)
(0 -5.34645e-06 0)
(0 -4.91081e-06 0)
(0 1.50286e-06 0)
(0 1.74986e-06 0)
(0 -9.3012e-07 0)
(0 2.41737e-06 0)
(0 2.44417e-06 0)
(0 2.43079e-06 0)
(0 2.45449e-06 0)
(0 2.44234e-06 0)
(0 2.46403e-06 0)
(0 2.45189e-06 0)
(0 2.47213e-06 0)
(0 2.45933e-06 0)
(0 2.47836e-06 0)
(0 2.43841e-06 0)
(0 2.46504e-06 0)
(0 2.48304e-06 0)
(0 5.92363e-06 0)
(0 6.04917e-06 0)
(0 2.38788e-06 0)
(0 -5.39495e-06 0)
(0 -4.93923e-06 0)
(0 -8.16255e-07 0)
(0 2.46934e-06 0)
(0 2.48545e-06 0)
(0 2.3002e-06 0)
(0 1.75132e-06 0)
(0 2.03637e-06 0)
(0 -4.50312e-06 0)
(0 -4.51813e-06 0)
(0 -4.97036e-06 0)
(0 -4.5374e-06 0)
(0 6.12659e-06 0)
(0 6.16268e-06 0)
(0 2.46554e-06 0)
(0 -2.03306e-07 0)
(0 2.47091e-06 0)
(0 2.48542e-06 0)
(0 -6.81651e-07 0)
(0 -6.85274e-07 0)
(0 -8.29339e-07 0)
(0 -6.90701e-07 0)
(0 -4.11906e-06 0)
(0 -4.1262e-06 0)
(0 -5.38148e-07 0)
(0 -5.31773e-07 0)
(0 -4.56766e-06 0)
(0 -4.13476e-06 0)
(0 -5.88699e-06 0)
(0 2.46951e-06 0)
(0 2.48364e-06 0)
(0 2.45384e-06 0)
(0 -3.71472e-06 0)
(0 -3.71132e-06 0)
(0 -8.51561e-07 0)
(0 -3.7473e-07 0)
(0 -3.76342e-07 0)
(0 -4.14732e-06 0)
(0 -3.72157e-06 0)
(0 -3.30313e-06 0)
(0 -3.31528e-06 0)
(0 -2.91818e-06 0)
(0 -2.92789e-06 0)
(0 2.07925e-06 0)
(0 2.38738e-06 0)
(0 6.2634e-06 0)
(0 6.21914e-06 0)
(0 -2.55854e-06 0)
(0 -2.57719e-06 0)
(0 -2.22409e-06 0)
(0 -2.25644e-06 0)
(0 -1.90804e-06 0)
(0 -1.94291e-06 0)
(0 -1.60656e-06 0)
(0 -1.64464e-06 0)
(0 -1.32787e-06 0)
(0 -1.36992e-06 0)
(0 -1.07221e-06 0)
(0 -1.1192e-06 0)
(0 -1.4158e-06 0)
(0 -1.16717e-06 0)
(0 -8.9327e-07 0)
(0 -9.42433e-07 0)
(0 -6.88366e-07 0)
(0 -7.39815e-07 0)
(0 -4.99156e-07 0)
(0 -5.53958e-07 0)
(0 -3.21374e-07 0)
(0 -3.75549e-07 0)
(0 -1.5201e-07 0)
(0 -2.09588e-07 0)
(0 7.83073e-09 0)
(0 -5.20044e-08 0)
(0 1.55881e-07 0)
(0 9.10482e-08 0)
(0 2.8683e-07 0)
(0 2.12733e-07 0)
(0 3.95316e-07 0)
(0 3.17377e-07 0)
(0 4.8711e-07 0)
(0 4.09355e-07 0)
(0 5.71724e-07 0)
(0 5.01139e-07 0)
(0 6.57178e-07 0)
(0 5.91066e-07 0)
(0 7.3515e-07 0)
(0 6.59315e-07 0)
(0 7.95139e-07 0)
(0 7.08571e-07 0)
(0 5.47004e-07 0)
(0 6.11157e-07 0)
(0 7.50408e-07 0)
(0 6.56965e-07 0)
(0 7.83157e-07 0)
(0 6.96094e-07 0)
(0 8.13515e-07 0)
(0 7.29858e-07 0)
(0 8.37638e-07 0)
(0 7.54765e-07 0)
(0 8.5314e-07 0)
(0 7.70247e-07 0)
(0 8.62816e-07 0)
(0 7.80566e-07 0)
(0 2.52178e-07 0)
(0 6.87667e-07 0)
(0 6.978e-07 0)
(0 7.85472e-07 0)
(0 6.96992e-07 0)
(0 7.77634e-07 0)
(0 6.78166e-07 0)
(0 7.52222e-07 0)
(0 6.43337e-07 0)
(0 7.14698e-07 0)
(0 5.99766e-07 0)
(0 5.12429e-07 0)
(0 6.73436e-07 0)
(0 5.54594e-07 0)
(0 6.36177e-07 0)
(0 5.24339e-07 0)
(0 6.09266e-07 0)
(0 5.0599e-07 0)
(0 5.85879e-07 0)
(0 -2.91978e-07 0)
(0 4.79621e-07 0)
(0 5.52959e-07 0)
(0 4.39319e-07 0)
(0 5.07276e-07 0)
(0 5.74104e-07 0)
(0 3.8267e-07 0)
(0 4.45156e-07 0)
(0 -2.63973e-06 0)
(0 2.46665e-06 0)
(0 2.48033e-06 0)
(0 -9.92623e-07 0)
(0 2.49578e-06 0)
(0 2.49235e-06 0)
(0 2.47545e-06 0)
(0 2.48753e-06 0)
(0 2.50542e-06 0)
(0 2.49819e-06 0)
(0 2.48112e-06 0)
(0 2.49097e-06 0)
(0 2.50634e-06 0)
(0 2.49942e-06 0)
(0 2.51298e-06 0)
(0 2.5068e-06 0)
(0 2.51907e-06 0)
(0 2.51343e-06 0)
(0 2.52468e-06 0)
(0 2.51919e-06 0)
(0 2.52935e-06 0)
(0 2.5238e-06 0)
(0 2.53317e-06 0)
(0 2.52753e-06 0)
(0 2.51687e-06 0)
(0 2.52057e-06 0)
(0 2.5306e-06 0)
(0 2.52415e-06 0)
(0 2.53334e-06 0)
(0 2.52694e-06 0)
(0 2.53578e-06 0)
(0 2.52954e-06 0)
(0 2.5381e-06 0)
(0 2.53238e-06 0)
(0 2.54039e-06 0)
(0 2.53484e-06 0)
(0 2.54231e-06 0)
(0 2.53672e-06 0)
(0 2.5282e-06 0)
(0 2.52995e-06 0)
(0 2.53817e-06 0)
(0 2.5311e-06 0)
(0 2.53936e-06 0)
(0 2.53213e-06 0)
(0 2.54017e-06 0)
(0 2.53305e-06 0)
(0 2.54074e-06 0)
(0 2.53379e-06 0)
(0 2.52515e-06 0)
(0 2.5262e-06 0)
(0 2.53444e-06 0)
(0 2.52681e-06 0)
(0 2.53475e-06 0)
(0 2.52671e-06 0)
(0 2.53463e-06 0)
(0 2.52634e-06 0)
(0 2.51777e-06 0)
(0 2.51731e-06 0)
(0 2.52596e-06 0)
(0 2.51698e-06 0)
(0 2.52571e-06 0)
(0 2.5171e-06 0)
(0 2.52575e-06 0)
(0 2.51742e-06 0)
(0 2.52594e-06 0)
(0 2.51773e-06 0)
(0 2.52633e-06 0)
(0 2.51825e-06 0)
(0 2.50847e-06 0)
(0 2.50922e-06 0)
(0 2.50756e-06 0)
(0 2.51917e-06 0)
(0 2.51036e-06 0)
(0 2.52025e-06 0)
(0 2.51141e-06 0)
(0 2.52118e-06 0)
(0 2.51234e-06 0)
(0 2.50115e-06 0)
(0 2.50212e-06 0)
(0 2.51311e-06 0)
(0 2.50302e-06 0)
(0 2.51381e-06 0)
(0 2.50376e-06 0)
(0 2.5144e-06 0)
(0 2.5043e-06 0)
(0 2.49213e-06 0)
(0 2.49264e-06 0)
(0 2.50458e-06 0)
(0 2.49281e-06 0)
(0 2.50459e-06 0)
(0 2.49264e-06 0)
(0 2.50442e-06 0)
(0 2.49234e-06 0)
(0 2.47865e-06 0)
(0 2.47828e-06 0)
(0 2.49212e-06 0)
(0 2.47802e-06 0)
(0 2.4923e-06 0)
(0 2.47791e-06 0)
(0 2.46168e-06 0)
(0 2.46153e-06 0)
(0 2.47806e-06 0)
(0 2.46177e-06 0)
(0 2.47842e-06 0)
(0 2.46219e-06 0)
(0 2.47897e-06 0)
(0 2.46263e-06 0)
(0 2.47967e-06 0)
(0 2.46307e-06 0)
(0 2.44367e-06 0)
(0 2.44382e-06 0)
(0 2.46355e-06 0)
(0 2.44425e-06 0)
(0 2.42185e-06 0)
(0 2.42217e-06 0)
(0 2.44454e-06 0)
(0 2.42191e-06 0)
(0 2.44434e-06 0)
(0 2.42132e-06 0)
(0 2.4439e-06 0)
(0 2.4209e-06 0)
(0 2.44255e-06 0)
(0 2.4206e-06 0)
(0 2.44245e-06 0)
(0 2.42053e-06 0)
(0 2.39495e-06 0)
(0 2.44347e-06 0)
(0 2.42045e-06 0)
(0 2.44344e-06 0)
(0 2.42004e-06 0)
(0 2.44296e-06 0)
(0 2.44408e-06 0)
(0 2.41963e-06 0)
(0 2.39309e-06 0)
(0 2.39208e-06 0)
(0 2.41896e-06 0)
(0 2.39105e-06 0)
(0 2.41823e-06 0)
(0 2.39001e-06 0)
(0 2.36027e-06 0)
(0 2.35846e-06 0)
(0 2.38907e-06 0)
(0 2.35634e-06 0)
(0 2.38781e-06 0)
(0 2.35497e-06 0)
(0 2.3866e-06 0)
(0 2.35471e-06 0)
(0 2.38571e-06 0)
(0 2.35363e-06 0)
(0 2.38505e-06 0)
(0 2.35124e-06 0)
(0 2.32122e-06 0)
(0 2.38478e-06 0)
(0 2.3499e-06 0)
(0 2.31606e-06 0)
(0 2.38491e-06 0)
(0 2.34857e-06 0)
(0 2.38444e-06 0)
(0 2.34718e-06 0)
(0 2.38335e-06 0)
(0 2.34569e-06 0)
(0 2.30523e-06 0)
(0 2.30284e-06 0)
(0 2.34406e-06 0)
(0 2.3001e-06 0)
(0 2.34206e-06 0)
(0 2.29646e-06 0)
(0 2.33936e-06 0)
(0 2.29199e-06 0)
(0 2.24359e-06 0)
(0 2.23738e-06 0)
(0 2.28672e-06 0)
(0 2.23023e-06 0)
(0 2.28017e-06 0)
(0 2.2213e-06 0)
(0 2.27223e-06 0)
(0 2.21069e-06 0)
(0 2.26398e-06 0)
(0 2.18356e-06 0)
(0 2.20027e-06 0)
(0 2.25302e-06 0)
(0 2.18648e-06 0)
(0 2.23922e-06 0)
(0 2.46496e-06 0)
(0 2.16863e-06 0)
(0 2.2253e-06 0)
(0 2.41259e-06 0)
(0 2.46431e-06 0)
(0 2.4938e-06 0)
(0 2.52008e-06 0)
(0 2.15006e-06 0)
(0 2.20896e-06 0)
(0 2.1394e-06 0)
(0 2.42095e-06 0)
(0 2.13002e-06 0)
(0 2.19826e-06 0)
(0 2.06461e-06 0)
(0 2.51393e-06 0)
(0 2.31847e-06 0)
(0 2.53425e-06 0)
(0 2.10443e-06 0)
(0 2.16135e-06 0)
(0 2.28233e-06 0)
(0 2.07126e-06 0)
(0 2.13007e-06 0)
(0 2.49278e-06 0)
(0 2.21598e-06 0)
(0 2.1808e-06 0)
(0 2.09291e-06 0)
(0 2.147e-06 0)
(0 2.54708e-06 0)
(0 2.04815e-06 0)
(0 2.10299e-06 0)
(0 2.19793e-06 0)
(0 2.15288e-06 0)
(0 2.04878e-06 0)
(0 2.09913e-06 0)
(0 2.1973e-06 0)
(0 2.14389e-06 0)
(0 2.23599e-06 0)
(0 2.18228e-06 0)
(0 2.08104e-06 0)
(0 2.21432e-06 0)
(0 2.24028e-06 0)
(0 2.26019e-06 0)
(0 2.48992e-06 0)
(0 -2.22559e-07 0)
(0 -2.50128e-07 0)
(0 2.54695e-06 0)
(0 3.02817e-07 0)
(0 3.55421e-07 0)
(0 -4.15957e-06 0)
(0 2.54214e-06 0)
(0 -4.34281e-06 0)
(0 -2.53408e-06 0)
(0 6.35098e-06 0)
(0 6.24694e-06 0)
(0 6.30461e-06 0)
(0 6.02044e-06 0)
(0 5.9979e-06 0)
(0 5.72407e-06 0)
(0 5.65389e-06 0)
(0 5.36849e-06 0)
(0 5.26367e-06 0)
(0 4.98561e-06 0)
(0 4.85514e-06 0)
(0 4.56834e-06 0)
(0 4.43358e-06 0)
(0 4.16711e-06 0)
(0 4.08117e-06 0)
(0 3.88487e-06 0)
(0 3.84299e-06 0)
(0 3.75428e-06 0)
(0 3.72069e-06 0)
(0 3.73489e-06 0)
(0 3.73937e-06 0)
(0 3.69043e-06 0)
(0 3.77297e-06 0)
(0 3.76095e-06 0)
(0 3.81181e-06 0)
(0 3.83264e-06 0)
(0 3.88416e-06 0)
(0 3.94904e-06 0)
(0 -7.23989e-07 0)
(0 -7.32034e-07 0)
(0 2.52441e-06 0)
(0 2.50489e-06 0)
(0 2.83973e-06 0)
(0 -9.89422e-08 0)
(0 -1.5587e-07 0)
(0 -3.00487e-07 0)
(0 -2.13073e-07 0)
(0 -6.54785e-08 0)
(0 -3.5046e-07 0)
(0 -2.47436e-07 0)
(0 -1.08675e-07 0)
(0 -1.29657e-07 0)
(0 1.06696e-08 0)
(0 -1.37115e-08 0)
(0 -1.58624e-07 0)
(0 -5.7264e-08 0)
(0 1.00324e-07 0)
(0 3.8908e-08 0)
(0 2.38011e-06 0)
(0 4.1383e-07 0)
(0 2.54185e-06 0)
(0 2.52881e-06 0)
(0 2.51484e-06 0)
(0 2.51707e-06 0)
(0 2.48943e-06 0)
(0 1.97069e-07 0)
(0 2.43569e-07 0)
(0 2.47863e-06 0)
(0 2.39705e-06 0)
(0 2.03905e-07 0)
(0 5.07011e-06 0)
(0 4.86576e-06 0)
(0 4.00306e-06 0)
(0 2.61313e-07 0)
(0 4.12284e-07 0)
(0 3.26112e-07 0)
(0 5.08952e-07 0)
(0 4.17128e-07 0)
(0 6.33182e-07 0)
(0 5.36323e-07 0)
(0 7.6964e-07 0)
(0 6.76039e-07 0)
(0 8.60391e-07 0)
(0 3.00572e-06 0)
(0 9.89474e-07 0)
(0 1.05646e-06 0)
(0 3.97792e-06 0)
(0 4.05717e-06 0)
(0 3.41372e-06 0)
(0 4.45967e-06 0)
(0 5.6684e-06 0)
(0 3.87111e-06 0)
(0 9.34086e-07 0)
(0 6.02671e-07 0)
(0 -1.33123e-07 0)
(0 -5.42558e-08 0)
(0 2.71553e-06 0)
(0 3.19844e-06 0)
(0 3.14795e-07 0)
(0 -3.81178e-07 0)
(0 2.0942e-06 0)
(0 8.72863e-10 0)
(0 3.90864e-07 0)
(0 7.41001e-08 0)
(0 6.41335e-06 0)
(0 6.31588e-06 0)
(0 5.92051e-06 0)
(0 4.09033e-06 0)
(0 4.13755e-06 0)
(0 8.28033e-07 0)
(0 2.53769e-06 0)
(0 1.17722e-06 0)
(0 1.24803e-06 0)
(0 -2.49446e-06 0)
(0 3.00067e-06 0)
(0 2.67083e-06 0)
(0 -2.64452e-07 0)
(0 6.50712e-07 0)
(0 3.51717e-07 0)
(0 2.31844e-06 0)
(0 8.75692e-07 0)
(0 6.89026e-07 0)
(0 4.67878e-06 0)
(0 1.80884e-06 0)
(0 4.18928e-06 0)
(0 4.22231e-06 0)
(0 -1.57731e-05 0)
(0 -2.64882e-06 0)
(0 4.18592e-06 0)
(0 4.29445e-06 0)
(0 4.33297e-06 0)
(0 4.4803e-06 0)
(0 -1.58301e-05 0)
(0 -1.48606e-05 0)
(0 -1.47941e-05 0)
(0 -1.3923e-05 0)
(0 6.39443e-06 0)
(0 6.24834e-06 0)
(0 1.27668e-07 0)
(0 -4.54387e-08 0)
(0 -2.3718e-07 0)
(0 1.39526e-06 0)
(0 1.50634e-06 0)
(0 1.30495e-06 0)
(0 -1.39336e-05 0)
(0 -1.30522e-05 0)
(0 -1.29925e-05 0)
(0 -1.21673e-05 0)
(0 3.78914e-06 0)
(0 2.94818e-07 0)
(0 3.0765e-06 0)
(0 3.58526e-06 0)
(0 4.46809e-06 0)
(0 4.74137e-06 0)
(0 4.77818e-06 0)
(0 5.11346e-06 0)
(0 4.11698e-06 0)
(0 4.32507e-07 0)
(0 5.79143e-07 0)
(0 3.01142e-07 0)
(0 4.66087e-07 0)
(0 1.66185e-07 0)
(0 3.36146e-07 0)
(0 3.79652e-08 0)
(0 2.06968e-07 0)
(0 -1.06786e-07 0)
(0 6.07784e-08 0)
(0 -2.99557e-07 0)
(0 -1.37704e-07 0)
(0 -5.47752e-07 0)
(0 2.17679e-07 0)
(0 -4.16525e-07 0)
(0 -8.65597e-07 0)
(0 -7.79001e-07 0)
(0 -1.24807e-06 0)
(0 1.97493e-06 0)
(0 -1.22154e-05 0)
(0 -1.13503e-05 0)
(0 -1.12799e-05 0)
(0 -1.04783e-05 0)
(0 3.92083e-06 0)
(0 3.11074e-06 0)
(0 2.77151e-06 0)
(0 5.07077e-06 0)
(0 5.48935e-06 0)
(0 5.55851e-06 0)
(0 5.94538e-06 0)
(0 6.01715e-06 0)
(0 6.34547e-06 0)
(0 6.2058e-06 0)
(0 6.48548e-06 0)
(0 6.63396e-06 0)
(0 6.64718e-06 0)
(0 -1.05251e-05 0)
(0 -9.6652e-06 0)
(0 -9.63585e-06 0)
(0 -8.85742e-06 0)
(0 -8.82425e-06 0)
(0 -8.09053e-06 0)
(0 -8.11434e-06 0)
(0 -7.4034e-06 0)
(0 -7.40554e-06 0)
(0 -6.75248e-06 0)
(0 -6.75393e-06 0)
(0 -6.72655e-06 0)
(0 -1.32146e-06 0)
(0 -1.56794e-06 0)
(0 6.83758e-06 0)
(0 6.75726e-06 0)
(0 -1.18656e-06 0)
(0 1.94788e-07 0)
(0 -1.75706e-07 0)
(0 5.72208e-07 0)
(0 6.26485e-06 0)
(0 6.08375e-06 0)
(0 1.70972e-06 0)
(0 1.86469e-06 0)
(0 -7.15429e-07 0)
(0 -6.15442e-06 0)
(0 -6.1516e-06 0)
(0 3.61656e-07 0)
(0 2.32451e-08 0)
(0 2.18887e-06 0)
(0 -3.55759e-07 0)
(0 -4.18633e-07 0)
(0 5.95289e-06 0)
(0 3.11396e-06 0)
(0 2.76661e-06 0)
(0 2.52305e-06 0)
(0 5.37666e-08 0)
(0 9.80874e-08 0)
(0 2.09196e-07 0)
(0 2.65078e-07 0)
(0 1.02251e-06 0)
(0 3.45755e-06 0)
(0 3.93301e-06 0)
(0 6.2931e-06 0)
(0 -3.13986e-07 0)
(0 -9.30761e-07 0)
(0 -7.51842e-06 0)
(0 4.71027e-06 0)
(0 6.95953e-06 0)
(0 6.84747e-06 0)
(0 6.56944e-06 0)
(0 6.67192e-06 0)
(0 -6.08595e-06 0)
(0 -7.04575e-06 0)
(0 -5.77442e-06 0)
(0 -6.63486e-06 0)
(0 -5.476e-06 0)
(0 -4.7654e-06 0)
(0 -4.58744e-06 0)
(0 -5.25164e-06 0)
(0 -4.44575e-06 0)
(0 -3.83745e-06 0)
(0 -3.71084e-06 0)
(0 2.49802e-06 0)
(0 3.69848e-07 0)
(0 4.35265e-07 0)
(0 3.15317e-07 0)
(0 4.90869e-07 0)
(0 2.12905e-06 0)
(0 2.28712e-06 0)
(0 2.0075e-06 0)
(0 2.42232e-06 0)