/*--------------------------------*- C++ -*----------------------------------*\
| =========                 |                                                 |
| \\      /  F ield         | OpenFOAM: The Open Source CFD Toolbox           |
|  \\    /   O peration     | Version:  v2012                                 |
|   \\  /    A nd           | Website:  www.openfoam.com                      |
|    \\/     M anipulation  |                                                 |
\*---------------------------------------------------------------------------*/
FoamFile
{
    version     2.0;
    format      ascii;
    class       volScalarField;
    location    "50";
    object      ddt0(k);
}
// * * * * * * * * * * * * * * * * * * * * * * * * * * * * * * * * * * * * * //

dimensions      [0 2 -3 0 0 0 0];


internalField   nonuniform List<scalar> 
18355
(
-0.0324588
4.40235e-07
2.22366e-06
-4.86368e-09
-5.16913e-05
0.0017985
-1.2363e-06
-4.8145e-05
-1.12078e-08
0.000154405
-9.6874e-07
-2.91848e-06
-3.28048e-06
0.000865829
1.38755e-08
1.8253e-07
-5.28651e-09
5.76807e-09
6.56384e-07
3.06855e-07
0.0297109
-1.41045e-07
-7.8846e-07
0.00121616
-9.56428e-07
-6.22981e-07
-1.40173e-06
1.83493e-09
6.22224e-09
-1.05163e-06
0.00555837
-2.8402e-06
5.54699e-08
-6.33591e-07
6.36581e-08
1.08037e-07
5.66422e-07
4.2028e-08
-1.184e-06
4.66147e-09
3.53615e-08
-1.15429e-06
-7.52943e-07
3.08671e-07
4.541e-07
-1.21187e-05
-2.8194e-08
-2.02757e-08
0.00397246
-2.57592e-07
8.49123e-07
-0.0215987
-1.37079e-07
2.4598e-06
-6.26428e-09
2.20828e-07
4.3445e-07
0.000667853
-6.87457e-07
0.0140411
-6.48846e-07
-4.65883e-07
2.25146e-06
1.91388e-06
4.12868e-07
5.29757e-07
-1.79497e-07
5.7763e-07
-2.64041e-07
-0.00573884
-2.02954e-07
-6.83765e-09
-2.79958e-06
1.37427e-07
0.0039456
-3.21479e-07
0.000816354
-3.66595e-07
-1.79992e-07
0.00358786
-2.23693e-07
0.00216353
-2.88753e-07
-3.95158e-07
4.39449e-06
-4.10699e-07
8.08658e-08
2.69446e-06
-6.00494e-09
2.71659e-06
0.000302279
0.00773513
0.00155139
-2.91267e-07
0.00323956
1.19077e-06
-5.54794e-10
9.07595e-07
2.82452e-06
-1.4535e-07
3.91545e-06
-9.72122e-08
-3.53167e-07
1.54163e-07
-3.26074e-07
3.24285e-07
-2.08427e-07
0.00317972
1.50417e-06
-3.59636e-07
3.27258e-07
6.30902e-07
-2.49102e-06
-4.78768e-07
-1.64453e-06
-2.13089e-06
-7.42328e-08
0.0045358
-4.09156e-07
-1.69906e-07
-0.000749855
-6.18839e-06
-0.00264433
3.59256e-06
0.00428009
5.16701e-07
-1.40549e-06
-3.62598e-09
-0.0328046
-8.71076e-08
-2.69933e-09
-0.0207964
-2.08875e-09
1.48997e-06
1.1233e-05
7.46484e-09
-1.48488e-06
-0.00287333
1.75601e-08
0.0269771
2.98705e-07
1.37722e-05
1.93179e-08
-0.02891
1.1972e-05
1.28691e-08
0.0104894
-2.69232e-07
-2.43914e-06
-1.22076e-07
-2.12109e-09
-1.7111e-07
1.66198e-06
-4.93502e-06
-7.24368e-07
-9.05706e-07
-3.96121e-09
-2.85675e-07
1.87402e-08
-9.25565e-07
-2.5263e-07
7.65791e-10
-2.69714e-07
1.22379e-06
-1.33987e-07
0.000102314
0.0162211
-0.0156871
0.026763
2.7937e-07
3.56247e-07
1.55326e-06
5.0858e-07
0.0025389
2.20838e-08
2.68795e-08
4.93913e-07
-1.12366e-08
6.80477e-08
-8.09352e-08
-9.27307e-07
6.28424e-05
-1.22568e-07
1.08297e-08
0.000145663
-3.65584e-07
-1.11338e-06
2.53848e-06
1.06769e-08
-1.40724e-06
-5.79085e-06
2.61335e-06
3.07087e-07
-2.69148e-07
1.33824e-08
-2.76523e-06
5.06453e-07
-0.0138287
5.76709e-07
-0.00249178
-3.5043e-07
4.36251e-07
-1.09567e-06
-7.01456e-07
-0.0217572
-4.06171e-08
0.0422492
8.38814e-09
2.4602e-07
2.4077e-06
-5.57571e-08
8.43806e-06
5.20634e-06
4.03234e-06
-2.97394e-07
0.00112519
-1.7987e-07
3.14324e-07
-6.23031e-08
-2.08944e-08
1.28925e-06
-2.53034e-07
2.28882e-06
1.89845e-06
-6.92805e-05
-1.49135e-05
-2.49182e-07
-0.00303217
-2.09711e-05
-2.47714e-06
-4.28918e-06
-2.43307e-07
-1.16119e-05
-2.43956e-07
-4.93451e-06
-8.39055e-06
1.36568e-08
-7.17186e-06
2.37847e-07
4.2203e-06
6.04744e-07
5.24715e-08
2.53447e-06
-2.10954e-06
-4.81069e-08
-3.7511e-09
-1.9543e-08
-7.63261e-06
0.000101101
-2.68093e-07
2.47503e-06
3.4531e-05
-1.95974e-06
2.1355e-06
5.91315e-08
1.54329e-06
2.34974e-07
2.45788e-08
-1.12783e-05
1.99862e-09
-1.51884e-07
-0.00213759
2.63222e-06
4.80676e-07
-1.2202e-06
-9.5812e-06
-5.25949e-06
3.24827e-06
4.46887e-09
-4.73029e-09
-1.84212e-06
-3.64118e-07
5.14214e-07
3.199e-07
-9.04137e-09
-6.92994e-08
1.92926e-07
9.40317e-09
6.71997e-06
-0.00173425
3.83065e-07
-6.7985e-08
-2.10375e-06
-4.44871e-07
2.63064e-06
-1.10826e-08
-4.79159e-07
2.54272e-08
-6.13532e-07
-1.66386e-07
1.1961e-07
1.17852e-06
-3.1005e-07
-8.40664e-06
-4.10028e-06
8.87531e-09
-2.63677e-07
6.75068e-06
-6.66843e-08
1.55435e-05
5.50572e-07
0.00901975
2.49286e-06
2.64336e-06
2.6922e-07
4.82411e-07
-5.70871e-08
1.90671e-07
4.62204e-07
1.21041e-06
-4.35484e-06
-1.46286e-06
-4.37018e-08
8.07831e-07
4.84334e-06
-2.19341e-06
-4.1488e-08
-1.34144e-08
-1.51359e-08
3.30221e-07
6.35728e-06
-1.617e-05
-4.25022e-06
3.42795e-07
2.65051e-07
0.000116001
-2.26253e-07
-3.08884e-08
2.44881e-07
-4.02768e-09
-2.25424e-06
6.26625e-08
0.000449336
2.24625e-07
0.00462114
1.79612e-09
-1.62789e-08
4.10561e-07
-3.17964e-06
-0.00602952
-1.96887e-06
-3.65892e-06
-1.81048e-07
-5.21903e-09
-4.22689e-09
-5.22232e-07
8.8908e-05
5.23302e-10
4.20643e-08
-3.17674e-07
-1.66727e-07
-5.90346e-09
-2.81788e-06
-1.09663e-07
-1.8965e-08
-2.47356e-06
-9.81265e-07
3.96027e-08
-1.12144e-06
-2.70977e-07
3.94117e-08
-1.44573e-07
0.00577881
-4.17668e-06
-2.29996e-07
1.98548e-08
-5.85891e-07
-1.40086e-08
1.03621e-07
8.0583e-05
-4.96628e-06
8.43886e-07
-7.20761e-09
1.72277e-08
-3.02193e-06
2.34634e-06
1.73422e-06
1.91822e-07
5.01308e-08
-6.33915e-06
-1.59595e-05
-1.20655e-07
2.92491e-08
-2.29816e-08
-2.12891e-08
-1.54595e-06
1.32291e-08
-2.80005e-06
2.7816e-06
-1.42368e-07
6.99368e-07
-1.87777e-08
5.29097e-07
-2.94374e-06
6.008e-07
0.00210795
-4.92344e-06
-7.4014e-06
-3.63572e-07
6.59807e-06
2.83041e-09
3.89765e-08
1.12314e-06
1.11946e-08
-1.91063e-08
-1.13902e-06
-2.09516e-08
0.000188253
-1.09068e-05
-0.00663326
3.41885e-06
1.02514e-07
-0.000771581
-1.44627e-07
-8.74327e-09
0.0340195
6.29389e-10
-4.85619e-06
-2.35894e-07
4.44004e-07
5.3641e-11
1.44021e-06
0.0036095
2.32661e-06
1.04627e-07
3.47999e-07
2.41038e-06
-3.8066e-07
-1.05193e-06
-0.000205774
-0.00163933
-7.99339e-09
1.02657e-06
6.70804e-07
4.30825e-07
-1.31613e-07
-1.77432e-06
-0.000231404
1.98301e-06
-1.61065e-07
-6.05807e-09
9.12396e-07
-2.50489e-08
-2.09919e-07
-1.57396e-06
-6.91324e-05
0.00256177
1.40062e-07
-5.28433e-07
1.21509e-08
-3.41691e-06
-1.17837e-05
-2.67227e-07
-4.76918e-06
2.24708e-06
3.21898e-08
-1.9242e-06
-3.31107e-07
-1.22449e-07
-1.45154e-08
1.92558e-06
-3.73445e-06
0.00382459
2.82615e-07
-0.00561056
2.27746e-08
3.53376e-07
2.86582e-06
-3.38424e-07
-3.60225e-06
-2.82581e-06
-1.24434e-07
1.86728e-07
-1.36984e-07
-2.2027e-06
-4.67735e-07
4.18114e-07
-1.82341e-07
6.60147e-08
-1.34805e-09
1.91252e-07
-1.12063e-08
0.000840052
3.76052e-07
1.91696e-08
1.13942e-07
-1.81315e-07
3.69826e-06
2.18892e-07
1.72848e-06
1.86886e-07
2.13745e-08
2.54779e-06
5.46912e-07
1.47358e-06
0.0174801
-0.0149343
5.65694e-06
-7.84449e-08
-6.47787e-07
-1.569e-06
-1.38098e-07
-1.58344e-07
6.38266e-06
1.28365e-07
-7.74961e-07
6.44246e-07
-8.54347e-08
4.27656e-08
0.02225
1.53244e-06
-7.65323e-08
0.000786248
2.92097e-08
-0.00830828
0.000340148
2.66002e-07
-1.02112e-07
0.0213466
-8.29166e-09
1.46354e-06
-2.84667e-06
5.45628e-05
-5.00297e-07
-2.08224e-09
2.74918e-08
-0.0009799
0.0028
3.09076e-05
0.0050436
3.99152e-07
2.65793e-08
-2.81799e-07
-2.48098e-09
8.61851e-07
0.0392474
2.02806e-05
0.00154345
-2.95948e-05
1.51047e-06
-2.85479e-06
-2.53236e-06
-2.99489e-08
3.32663e-08
1.36408e-06
1.20918e-06
-1.52582e-08
-1.93909e-09
0.00585838
-2.74943e-09
-3.37447e-05
1.82489e-06
6.86429e-07
-3.42473e-06
3.06093e-08
-5.86273e-07
-0.0323208
2.03574e-08
0.00260299
2.22095e-08
-0.000541444
1.61711e-06
2.45984e-08
-2.48276e-06
2.63653e-06
3.60888e-06
-7.72697e-07
-2.48045e-07
9.09882e-07
2.76394e-07
8.06741e-07
1.53723e-08
-5.29788e-07
8.70645e-11
1.27313e-05
4.90375e-08
-6.64876e-08
-8.6072e-07
1.2071e-06
-1.28506e-06
6.74584e-08
-1.00531e-06
-4.57847e-06
0.000163927
-1.97323e-05
2.15903e-07
1.06306e-06
4.73217e-07
-2.15149e-06
-1.30798e-07
1.83498e-07
0.0115434
5.5466e-07
-4.50115e-06
-3.07827e-08
3.57428e-07
1.55833e-07
-1.82477e-07
9.66506e-06
9.35922e-06
-5.22275e-06
5.75799e-07
0.000174768
-2.70605e-07
-2.19238e-08
-0.0274515
2.56334e-06
0.0117006
-2.34213e-06
2.18705e-08
-2.46354e-10
-2.67925e-07
7.53369e-08
-2.18651e-07
-2.65774e-07
1.54304e-05
-0.018845
-6.18764e-08
3.39124e-05
-0.000145288
-8.7356e-07
-3.28026e-06
-1.81266e-07
-0.00594135
4.45156e-05
-2.72199e-07
-0.00086842
1.0054e-06
4.43468e-05
7.96838e-05
-2.49528e-06
-2.51501e-07
4.25369e-07
0.000168309
3.68913e-07
1.41102e-07
2.77782e-08
1.30063e-05
-1.24969e-07
9.77637e-07
-3.77477e-07
8.90526e-07
5.0729e-05
-0.000583133
0.000407169
-0.0014797
2.85408e-06
0.000204946
-6.61578e-07
2.26338e-08
-1.89151e-06
4.21526e-05
-6.76234e-06
2.39927e-07
1.22596e-07
9.63198e-05
1.27802e-08
-1.81955e-08
-0.000162329
1.52948e-07
-1.84757e-06
2.38663e-06
8.13101e-06
2.63637e-08
-1.51757e-09
1.09848e-07
-1.16635e-06
-8.95752e-08
9.24855e-07
-2.47959e-06
1.80422e-06
-1.13688e-07
-7.32584e-11
3.1625e-06
0.00179647
1.22982e-07
-0.00121052
1.50139e-06
3.15065e-08
0.0124893
-1.52484e-07
-4.07698e-07
1.02049e-08
-2.54825e-07
-1.97103e-06
-6.0471e-07
-0.000194219
-1.19172e-07
-8.38443e-10
0.0145441
7.14044e-09
-5.46226e-07
3.77532e-08
2.55411e-08
-2.02417e-06
2.41214e-06
-0.00553396
-9.26016e-07
0.00344529
-8.97871e-07
-0.000496164
-0.00432176
-1.77504e-07
-7.34542e-09
-8.93229e-07
2.90891e-07
-7.86956e-07
2.67265e-09
-5.83334e-07
-1.40463e-07
1.28033e-07
1.83823e-08
7.84097e-07
-1.32989e-07
1.25435e-06
2.46845e-07
8.7812e-07
-2.31526e-07
-1.10616e-05
-0.000390527
5.90246e-07
-1.66802e-07
3.65685e-06
-2.5249e-07
-0.00315466
8.19789e-05
-1.42979e-07
0.000937066
5.61371e-07
-9.87579e-06
5.8769e-07
-3.71187e-07
8.94315e-07
-1.59059e-06
-0.000157419
6.39232e-08
2.16247e-07
-0.00167845
1.13059e-05
3.45024e-06
1.73271e-08
1.41109e-07
-6.16474e-07
-0.00344748
1.5967e-08
3.59896e-08
-2.72313e-06
-3.78669e-08
-3.22547e-08
7.02098e-08
3.83494e-07
0.00023293
-2.15773e-06
-9.03344e-08
-5.50928e-07
9.70723e-09
-1.40459e-07
1.21352e-05
-5.42154e-07
2.42567e-07
-1.29737e-06
6.52874e-08
9.6822e-08
-3.72021e-06
1.62291e-08
-3.70026e-06
-4.41742e-07
1.0514e-08
-1.1456e-06
-7.56706e-08
1.08629e-06
4.83632e-07
-4.16785e-06
0.00424731
2.14602e-07
1.88861e-09
-3.42981e-06
-6.1453e-07
-4.9718e-07
2.90891e-07
6.51773e-06
-1.88109e-07
1.14471e-08
-9.00553e-08
6.56161e-07
-8.54893e-08
-2.5033e-07
2.74719e-07
4.16083e-09
-1.24317e-07
-1.66113e-08
2.72952e-08
-0.00364755
2.0218e-08
-1.13829e-07
-2.08967e-08
-3.82231e-06
5.91638e-05
4.12708e-07
-2.17792e-07
6.55329e-06
2.21882e-06
1.4204e-06
0.0237682
-8.78245e-07
2.71105e-05
-1.13264e-07
-3.25445e-05
3.4295e-07
2.79326e-07
8.41481e-08
0.00375395
1.32992e-07
4.3152e-07
1.16796e-06
-2.87207e-06
-3.10345e-06
6.93178e-08
2.00791e-08
7.03016e-08
1.15333e-07
4.22585e-07
1.44572e-06
0.000781991
1.88925e-06
2.63715e-08
-2.54666e-07
5.34503e-08
-2.79416e-09
-4.51059e-08
-5.72475e-08
1.36343e-06
-5.97668e-07
0.00016459
2.42338e-08
3.26601e-08
-2.58409e-06
-6.26251e-10
-3.6161e-06
1.78917e-06
3.1334e-06
-1.89258e-07
0.0134744
-9.11312e-07
-1.89275e-08
-2.59239e-07
9.42254e-09
-4.04699e-10
-0.00445847
4.89291e-07
-6.69944e-07
-2.26949e-07
-6.40841e-08
-1.30238e-06
-5.05231e-08
0.0234421
0.000461788
-4.13743e-07
2.29814e-07
1.29492e-07
-1.60451e-08
3.67705e-09
-3.09907e-06
-4.47436e-06
-6.3217e-08
5.70964e-08
-2.47822e-07
-5.99019e-08
-3.65945e-08
-3.27744e-08
5.94797e-07
-7.98076e-08
-2.79536e-06
-7.82309e-08
-3.10559e-07
-5.61607e-06
3.78377e-07
-9.16764e-06
-4.29615e-06
1.75622e-08
8.29847e-07
-3.90185e-05
1.04568e-08
1.06313e-07
-1.18116e-06
1.48505e-06
-1.03891e-06
-7.72612e-07
8.22955e-05
-3.51874e-08
-3.88943e-07
1.94282e-08
-1.54938e-05
-3.50079e-06
-1.15679e-06
-1.05176e-07
1.18774e-06
2.44871e-06
5.57752e-08
3.27016e-06
1.45315e-08
-1.94911e-07
2.14907e-07
0.00413905
0.00566857
-7.79167e-06
-4.3495e-06
-2.78001e-07
1.56901e-06
-9.73073e-08
1.41507e-06
1.09438e-07
8.17512e-07
-4.75791e-08
-2.17184e-06
0.00711547
2.79574e-08
-2.8081e-07
2.523e-08
4.51264e-07
-2.6735e-07
2.27837e-05
-0.000210229
-9.01609e-07
-4.00286e-08
-1.9714e-07
7.92301e-07
1.30356e-07
-2.41807e-06
-1.45317e-05
-1.86131e-06
1.77319e-06
-4.8259e-06
1.6518e-06
1.04749e-06
-2.55409e-09
2.90442e-07
-6.74862e-07
-7.87018e-08
-6.90072e-06
-1.52935e-06
-1.17489e-09
-3.92959e-07
-1.09469e-05
-7.56559e-07
-7.95439e-07
2.22995e-08
3.52856e-06
-4.48343e-09
1.10031e-08
1.13254e-08
-0.0164209
2.05726e-07
3.27158e-08
-6.63917e-07
9.24313e-07
5.32912e-07
4.04081e-07
-2.17526e-06
2.39913e-08
-2.74454e-06
9.3289e-07
-4.76951e-06
2.20163e-06
-8.85265e-09
1.70068e-06
2.37033e-08
4.62048e-09
-3.0872e-09
-0.000235279
0.000891478
-9.22463e-07
5.61591e-07
-0.00193231
5.20402e-07
-2.59248e-06
1.38308e-06
-7.06689e-06
1.37442e-06
-2.65118e-07
0.000229566
6.22815e-08
1.51011e-06
3.51047e-07
-5.06701e-06
-0.0214357
-0.00202094
4.1918e-09
-2.91806e-07
5.48634e-05
-1.06806e-06
-4.58513e-07
-1.10096e-06
-1.10258e-06
5.98267e-07
-5.59451e-06
-9.71463e-09
6.87628e-08
-9.42756e-07
-0.0130571
-3.05269e-06
1.21341e-07
4.4021e-07
-8.35256e-07
1.56263e-05
4.35361e-07
-4.59446e-08
-0.00246918
4.41532e-07
-2.59194e-06
-1.0407e-06
-1.10589e-07
-6.70172e-09
4.25707e-06
-6.27308e-08
-1.91708e-07
-8.23362e-09
-1.20154e-07
-1.74486e-07
-6.12794e-09
-1.18999e-07
-7.43751e-07
-1.00502e-06
-2.83506e-06
4.89789e-07
2.28498e-08
1.86793e-08
1.73618e-06
1.02644e-07
4.87684e-08
-6.67347e-06
0.00749067
2.97639e-06
-5.69492e-07
-3.32478e-08
-1.73796e-05
-7.84888e-09
2.78675e-06
-3.20751e-08
-0.00370088
-7.10222e-07
-1.60352e-07
3.96221e-07
-1.6017e-06
1.1011e-05
-2.50588e-05
0.000308296
-2.19951e-07
8.76916e-09
5.53804e-07
0.0132292
-2.30011e-07
2.05513e-06
-2.36177e-07
-8.93285e-09
-1.42322e-09
-2.69093e-07
-2.44115e-06
-6.87501e-08
-2.10412e-07
-2.72318e-06
-2.58066e-06
-2.58066e-07
-1.79543e-06
0.000508856
-8.87257e-08
-3.80404e-06
-1.42754e-07
-8.68994e-07
3.85329e-05
-2.28729e-06
-2.44571e-07
-3.31069e-06
-2.96306e-08
0.0050611
-1.53874e-09
-1.97655e-07
-1.82025e-07
-4.15721e-08
-1.74299e-08
3.96803e-08
-6.49889e-08
-9.02299e-09
-0.00884494
0.000599605
1.27322e-06
9.27165e-09
3.77244e-08
2.0588e-05
2.67978e-07
0.00147274
1.18785e-07
-2.12115e-08
2.96154e-08
1.57202e-06
-8.1823e-06
-2.26753e-07
3.58679e-08
-0.0156047
-4.36499e-08
-6.62826e-08
5.30486e-07
3.09117e-05
-5.73302e-06
3.21521e-08
-3.77382e-07
0.0162409
-8.24904e-05
-0.0284133
1.42663e-08
5.93472e-07
-4.43849e-06
-2.88948e-09
-2.73127e-06
-2.82268e-08
-6.66889e-05
-8.65311e-07
2.28884e-08
-1.2454e-06
-8.03689e-08
7.33213e-06
3.46534e-08
1.17614e-07
1.43129e-05
2.63477e-06
2.93591e-05
-8.54593e-08
-2.70322e-07
-1.88075e-07
-3.72829e-07
-1.55849e-07
6.19985e-07
2.43374e-08
-1.57894e-07
-7.05976e-08
-1.34972e-07
2.10789e-06
6.35635e-08
-1.31321e-05
1.35251e-06
-4.62511e-08
-3.52618e-10
-1.42439e-07
1.31791e-07
-1.26252e-06
6.30618e-07
1.5315e-07
-1.50569e-07
4.67953e-07
4.6394e-08
3.92113e-08
-5.95478e-08
-1.72152e-07
0.00141453
-0.000157677
3.78962e-08
4.88146e-06
9.86019e-07
-9.5496e-07
7.42912e-09
-7.13566e-08
2.78894e-05
4.34441e-07
1.90588e-07
-9.15009e-07
-2.62559e-07
-0.0231579
1.40191e-07
2.05256e-07
-4.82818e-06
-2.61095e-07
-3.95961e-07
5.60714e-07
6.65152e-07
2.95801e-06
-1.56195e-06
0.0192946
6.36728e-08
-0.00308641
3.42318e-07
1.12679e-08
5.00963e-07
-6.61934e-06
-7.54006e-09
1.02957e-06
2.11847e-06
2.91183e-08
-1.21312e-06
-0.000168102
5.48467e-06
-0.00547963
3.2744e-06
9.51045e-06
2.90987e-06
-6.27779e-08
-1.23182e-05
-0.011676
-3.83489e-07
-0.00497262
1.06299e-08
-4.62807e-08
-3.11149e-06
-1.00956e-06
-0.00010201
-1.39301e-06
-3.11848e-07
-4.93154e-07
1.6803e-06
2.00002e-08
-4.41147e-05
-8.95025e-09
-7.45699e-08
-0.000914607
-4.41029e-07
-3.20371e-07
1.72762e-08
2.01932e-06
6.41401e-10
1.52664e-08
-3.79753e-07
-1.73542e-05
3.36019e-08
1.40343e-07
-2.58637e-08
7.60351e-08
4.56617e-09
-4.75924e-08
9.77647e-05
4.2594e-08
3.51926e-07
-8.78511e-08
8.3825e-07
-4.10166e-07
-5.53371e-09
1.9833e-08
-5.61205e-07
8.87349e-08
2.67542e-07
-4.63866e-07
-6.53127e-08
-5.33955e-07
1.31347e-08
2.06781e-08
1.7569e-06
1.91832e-06
-2.27326e-07
1.44596e-09
4.13713e-08
-2.22345e-07
-3.43279e-07
-1.98787e-07
-1.10644e-06
-6.42039e-06
2.0009e-06
-6.18154e-08
0.00189903
-7.71833e-07
2.30045e-08
0.0185272
2.9465e-07
-1.38161e-07
2.79251e-06
6.1922e-08
-1.15863e-10
-8.52705e-05
-2.38298e-08
2.85606e-06
-3.66486e-07
6.06308e-07
1.2815e-07
-1.01318e-07
4.53513e-07
5.38706e-05
-4.88331e-07
6.05429e-08
0.000122866
4.1114e-07
-2.50415e-06
4.14536e-09
-3.87166e-06
3.71333e-07
1.55854e-08
8.43404e-07
-3.31892e-07
-5.91024e-09
-2.6726e-08
-3.57249e-08
3.89064e-07
-2.85376e-08
1.80735e-08
-1.49431e-08
-7.17169e-08
-0.00224867
1.36109e-06
-9.14732e-08
6.33609e-05
4.33512e-07
2.48348e-08
-7.24964e-07
-1.0625e-06
-1.19845e-06
6.25664e-07
2.62016e-07
1.04966e-05
1.41647e-05
3.56101e-08
-2.85151e-07
-1.74942e-06
1.28099e-08
-1.49829e-06
8.42221e-07
1.01328e-06
-7.28522e-08
4.29896e-07
-4.49478e-08
-4.1867e-07
6.91732e-07
5.25303e-07
3.29043e-07
-7.53886e-09
-2.52728e-07
1.24809e-07
1.36477e-06
-1.02136e-07
-3.11262e-06
1.26456e-08
2.14699e-07
1.7335e-06
-2.97143e-07
-0.000865059
-0.00303329
-9.55835e-08
4.84532e-07
8.44993e-07
-3.01845e-08
-3.25755e-06
-2.06668e-08
1.47058e-06
-0.00456434
-0.0191249
-9.30776e-06
-2.44466e-07
1.97987e-06
2.49091e-08
1.22208e-06
-1.90863e-07
4.61994e-06
-3.18159e-06
5.99615e-07
-4.78582e-08
8.60632e-06
-2.46571e-06
-6.22571e-09
3.85715e-08
2.24764e-05
-4.99765e-09
3.22419e-08
0.0159513
4.23371e-07
-4.78856e-07
-5.78577e-05
-4.09541e-07
-6.50633e-06
6.12643e-07
-8.33574e-09
3.12784e-08
-8.22153e-06
0.0222422
-2.94022e-09
4.51616e-07
2.90531e-08
-6.89118e-09
-5.42739e-10
-0.00197045
2.583e-08
-1.96075e-06
-5.18012e-08
1.71765e-05
4.93351e-07
-4.00523e-09
-2.54758e-07
-4.57156e-07
2.3556e-08
-5.20281e-07
-0.000350047
0.0148076
2.55795e-08
-5.29602e-06
-1.1237e-05
4.5661e-07
-7.95696e-06
1.28539e-06
-0.00313296
-1.65184e-07
3.31953e-08
-2.30819e-07
1.21654e-07
1.32825e-08
-0.0032859
-1.56327e-05
-3.31025e-07
-4.52005e-07
-3.76837e-07
2.11582e-09
-0.000783979
1.22446e-08
-2.54616e-07
-8.23859e-08
-7.96009e-06
3.2456e-08
-9.01831e-08
2.65674e-07
-0.0046286
-3.27273e-08
-1.19445e-06
-1.23551e-06
1.18134e-07
9.99501e-08
1.96803e-07
2.28102e-07
5.6546e-08
-3.7316e-08
-2.09056e-06
-2.88333e-07
-0.000974039
4.72526e-09
-3.50658e-07
4.76978e-08
6.62461e-07
-1.13575e-06
-6.80224e-07
1.69475e-06
-2.83303e-06
8.06716e-06
1.15578e-07
3.27952e-08
-3.88069e-06
0.0125717
0.0217628
-4.27707e-07
3.65899e-08
-3.9615e-07
-8.13599e-05
-4.29869e-07
2.57589e-07
-7.9198e-09
0.0158366
1.45189e-07
8.66904e-08
3.16361e-08
-0.00710298
-2.59609e-06
-8.90974e-06
-4.76263e-05
-6.14681e-07
-2.66695e-06
-4.05186e-08
-1.92557e-07
-0.0115653
9.6619e-07
1.34299e-09
-3.49911e-07
6.73582e-08
2.27643e-06
2.20336e-08
-4.58713e-08
-4.1347e-07
-9.6916e-08
4.92735e-06
0.00111967
-8.03989e-08
-2.74017e-07
0.000112881
-0.00211039
1.15051e-06
4.23122e-06
3.66653e-08
2.20195e-07
-1.25478e-09
9.42984e-06
6.54931e-07
7.6335e-09
-3.68252e-07
-3.30783e-08
7.34002e-07
-1.33453e-05
3.59055e-07
-6.257e-08
-2.55991e-07
4.67302e-07
6.05832e-09
-1.63172e-06
3.36969e-06
-7.94627e-05
-3.48337e-08
0.000509633
-7.43798e-07
-6.79596e-09
3.22087e-08
-6.51816e-08
5.33012e-09
-3.27562e-09
1.90694e-06
-9.53007e-10
0.00303171
1.79795e-06
4.45906e-09
-1.15492e-07
5.26935e-07
-3.7372e-07
5.43092e-07
5.01713e-06
-1.52557e-07
-0.000136734
1.14242e-06
-1.16147e-06
-2.02332e-07
1.80626e-05
3.0528e-06
-1.58624e-07
-1.78625e-08
8.09215e-07
9.82642e-06
-1.64373e-06
-7.23579e-05
8.46294e-07
4.48953e-07
-2.02762e-06
-1.66578e-05
-1.69755e-07
1.85421e-08
1.18322e-05
1.55997e-07
-3.86573e-06
-1.89928e-07
5.31433e-08
1.18073e-06
2.49775e-07
0.0100623
1.43591e-07
-0.0013981
-1.08208e-06
-2.32598e-06
-6.38693e-07
2.73179e-08
1.08126e-07
-9.32966e-08
3.11333e-08
6.31119e-09
3.815e-07
8.66611e-07
5.56037e-07
1.80597e-06
-1.00322e-07
-1.8584e-07
5.97176e-09
1.66533e-06
9.59923e-07
1.36538e-06
5.76379e-09
2.79212e-08
2.93e-07
-1.87309e-08
-1.27282e-07
-4.94392e-07
-0.00578048
-7.0463e-07
7.83621e-07
1.16231e-06
-2.15399e-07
-1.17401e-09
-3.40585e-05
-0.000120863
3.29926e-06
-2.59149e-07
-8.29866e-07
2.51718e-06
6.69277e-09
4.96182e-08
-2.95894e-06
1.21187e-08
1.76157e-06
-4.7115e-08
7.48447e-09
6.02815e-07
3.20249e-07
5.96837e-07
-6.67711e-06
0.0175882
5.14875e-06
-1.51761e-07
1.5291e-08
5.93412e-08
4.43798e-06
-7.78128e-09
1.54839e-05
2.85832e-09
1.8627e-08
1.50216e-08
6.92787e-07
-2.2238e-06
1.08522e-08
1.25678e-07
-1.12007e-06
-7.6805e-07
0.0200743
-9.13212e-07
-1.31739e-05
2.38037e-06
4.85095e-07
-6.00154e-09
1.36558e-07
-0.00145999
-6.19128e-06
-1.63536e-07
6.10986e-06
2.93657e-08
4.12108e-07
-0.0444261
-0.00170657
-3.92947e-07
-6.41502e-09
1.28798e-06
5.69422e-07
-4.22621e-09
3.76917e-08
2.10509e-08
-1.02249e-05
6.10426e-07
-1.03902e-07
4.76198e-07
-1.14672e-05
-3.10983e-07
-4.77297e-09
1.40474e-09
9.55906e-07
9.44357e-07
1.24409e-08
0.0130715
1.58412e-06
-7.96579e-05
3.33976e-07
2.99021e-07
-5.98129e-07
-8.93147e-07
-3.62105e-05
3.20655e-06
6.42406e-08
2.65451e-08
5.82981e-07
-0.00184213
1.32066e-06
-2.75525e-06
2.35585e-08
-1.75837e-08
9.37172e-08
2.63448e-08
1.20417e-06
1.38523e-08
7.52508e-07
-6.01005e-08
-1.3749e-07
0.00226437
-3.50994e-06
-0.000611074
-6.92315e-09
5.37899e-07
-6.85965e-07
1.13782e-06
3.6623e-06
0.00384664
5.71556e-08
-9.03369e-08
5.47035e-07
2.57875e-07
-0.0060708
4.91886e-08
-1.21959e-06
-3.78745e-07
-3.08491e-05
0.017887
-6.94736e-07
-3.21452e-06
2.11566e-09
-2.4833e-07
3.94412e-08
-9.42737e-08
-1.17045e-08
-9.31187e-08
1.06918e-08
-9.88864e-07
1.28085e-05
9.38459e-07
-3.79003e-09
1.95587e-06
-7.9535e-07
9.49437e-10
5.70309e-08
-6.77624e-07
-3.6085e-09
-5.14589e-06
2.71328e-08
1.15186e-06
-5.63991e-05
6.46935e-09
-1.99343e-08
9.6997e-09
-1.47697e-06
0.0143222
-1.27759e-06
-0.0659771
-6.1532e-08
3.61694e-06
2.47291e-08
1.68012e-08
6.6115e-07
1.36639e-06
5.34387e-08
-7.69362e-09
8.38033e-08
6.3391e-09
0.00193374
-5.53915e-09
0.00295825
-3.8673e-06
3.01505e-06
-1.33463e-06
2.90875e-05
7.35245e-07
-5.60266e-08
-7.30761e-05
6.32007e-10
-1.80805e-05
-1.59779e-07
-9.58435e-08
-2.01603e-07
-1.48143e-07
1.64711e-07
-1.48369e-05
1.626e-08
6.50385e-07
1.61325e-07
0.0372062
-3.04053e-07
-3.55435e-07
-4.1764e-06
2.94798e-06
1.75207e-09
-1.62228e-07
1.06835e-07
1.5718e-06
1.40003e-06
1.99194e-06
1.84834e-05
-1.3049e-07
-0.000449113
3.09528e-08
3.91269e-07
-3.08193e-06
5.46161e-07
-0.00529485
2.88787e-07
-1.27765e-06
3.57543e-07
3.13715e-08
0.000252337
9.53977e-06
-7.40896e-09
1.255e-05
1.55303e-06
1.92073e-08
2.07866e-08
-1.01258e-06
-2.44845e-07
3.39632e-07
9.25995e-07
1.22716e-08
4.53197e-07
6.07477e-07
5.327e-08
5.14389e-07
-1.79305e-07
2.19474e-08
4.64165e-08
-1.72954e-07
-1.11768e-07
0.000970834
-2.16297e-06
0.000607465
5.83781e-07
2.74625e-07
3.00077e-07
5.48399e-08
-1.21511e-06
3.96489e-07
-1.0602e-08
-2.61609e-06
5.50235e-08
7.11485e-07
2.23978e-06
9.68656e-07
-2.30361e-06
0.0423451
1.48391e-06
-1.49311e-05
5.44334e-07
-1.69657e-05
-2.37378e-07
3.00395e-07
-3.22729e-07
-2.87897e-05
-1.17687e-06
-6.03763e-06
1.6528e-07
-1.0594e-07
3.50395e-09
-3.9116e-07
-4.22825e-07
9.25803e-08
-3.16967e-07
-0.00663677
2.34304e-08
-1.02315e-06
-9.88924e-07
1.06987e-08
-7.50876e-09
1.4087e-06
-9.24472e-09
3.89414e-06
-1.23035e-07
5.18329e-07
1.13425e-05
-2.80931e-06
2.83533e-08
-7.28419e-07
1.03109e-08
0.000706684
0.00204849
0.000119013
9.58866e-06
-0.00604226
-8.99866e-07
-2.75429e-10
2.7922e-06
-3.00663e-07
-2.01334e-06
8.35645e-09
1.93736e-07
0.000190275
-8.79848e-05
1.8978e-08
1.42404e-09
2.61234e-07
0.00143122
2.1331e-07
4.85637e-08
0.000866449
3.58964e-08
8.01777e-07
-5.10121e-07
3.85989e-07
-2.33642e-07
5.29622e-07
-1.79559e-06
3.1699e-09
-0.00569989
2.96071e-09
1.81378e-06
6.00661e-06
7.90333e-07
5.90412e-06
1.43421e-10
6.51572e-07
2.49123e-07
-7.60556e-06
2.25416e-06
-3.95422e-07
-1.88273e-08
-8.86761e-07
-5.60384e-06
1.06277e-07
-1.05855e-05
6.73932e-10
-6.56883e-06
-3.44713e-07
-5.39839e-09
4.83664e-06
2.6888e-07
-6.31088e-06
-3.94224e-07
4.45883e-08
0.0194048
0.0024731
2.89664e-09
-2.97134e-05
-2.72429e-06
3.89207e-09
-1.01629e-07
-0.00541431
-4.11281e-05
-1.77838e-07
1.48554e-07
-4.59833e-08
-5.15265e-08
-9.35893e-05
3.20376e-05
2.92108e-08
-2.36332e-07
3.61221e-09
-4.65411e-06
2.41059e-07
-1.76186e-07
-1.37379e-07
1.15333e-07
2.31645e-07
5.6364e-06
-0.0690343
3.75351e-08
1.27104e-06
-3.90854e-08
-1.79915e-07
-9.60098e-08
8.71671e-09
-7.24639e-09
-1.36398e-08
1.29851e-06
-0.00506813
-7.61513e-07
-1.48235e-07
-1.66702e-09
3.84779e-07
-4.23203e-06
-2.72869e-06
1.46771e-08
-2.42247e-06
-2.23948e-06
6.60052e-07
3.64183e-07
-0.00602714
-7.85487e-07
-5.97099e-07
0.00159027
7.40986e-08
-1.48535e-06
1.62236e-08
-4.8912e-06
-2.3052e-08
-1.00868e-07
-0.0248046
4.7942e-07
9.94438e-09
1.05417e-08
-2.25495e-07
-1.53442e-06
3.20625e-06
-7.02357e-09
2.81894e-07
-1.73378e-07
-7.04397e-07
-4.09558e-07
9.1022e-07
-7.87667e-09
3.13415e-09
-1.35697e-07
4.79346e-07
-1.2101e-07
3.84478e-06
-0.0582992
5.24355e-08
-5.32701e-05
1.2279e-06
1.70094e-06
3.55929e-07
2.41584e-06
3.8081e-08
1.01837e-05
5.73945e-06
-1.32905e-07
-0.0083541
1.10333e-06
6.57828e-09
-8.77412e-06
-1.79548e-07
-3.41628e-07
-3.75826e-05
-1.45182e-07
1.43329e-08
8.46689e-08
6.30692e-07
1.17796e-08
3.10767e-06
-6.14037e-05
-6.48779e-09
9.01633e-07
5.37268e-07
3.47744e-07
-2.09377e-07
9.04487e-06
-2.83991e-06
-1.18659e-07
5.25486e-09
-0.00123103
1.3021e-08
1.62144e-09
-4.95938e-09
-2.74969e-08
0.0367158
-1.32298e-07
-5.94505e-07
-4.4893e-08
-4.98009e-09
9.25168e-09
-1.08784e-06
-2.47407e-06
4.94385e-07
-8.8347e-06
9.71352e-07
-8.286e-07
-0.00837366
1.03498e-08
-1.45013e-07
1.30944e-08
8.47715e-09
-1.16253e-07
-2.9342e-07
6.84356e-07
-6.03873e-05
-9.96469e-07
4.44496e-08
8.94757e-08
-4.41462e-08
-1.66792e-06
-4.74824e-08
-0.0380879
-2.32921e-06
2.84292e-07
7.1728e-07
-3.67402e-05
-3.43078e-06
8.57424e-08
-2.68084e-07
-6.94243e-09
-4.11112e-07
-7.14796e-08
2.70714e-08
-7.75644e-06
-4.02973e-07
-1.16076e-08
1.77763e-06
-1.99243e-05
-3.95306e-08
1.34121e-09
-4.08793e-06
-7.24542e-07
1.12139e-07
2.77136e-09
1.18426e-09
5.19916e-08
0.0106856
-1.536e-07
-7.81741e-06
1.79411e-06
-1.16891e-07
-6.55128e-10
-1.41655e-06
8.17957e-07
1.56363e-06
-2.0627e-08
-2.94163e-06
4.28423e-08
-0.0188968
-3.8654e-06
5.84058e-07
-3.73022e-06
2.85993e-08
-6.19043e-07
1.27557e-06
-3.68851e-06
-1.23445e-07
2.15454e-07
8.85543e-07
0.00172254
6.89251e-08
-1.19973e-06
3.4392e-08
1.53351e-05
-1.12661e-06
-2.68142e-06
3.3807e-06
-2.27471e-06
7.9132e-07
-0.00160678
-1.16832e-06
3.78938e-08
7.99032e-05
9.13635e-05
6.16233e-09
-4.00539e-08
9.4184e-08
-1.12483e-06
2.97737e-08
9.06049e-08
7.82549e-08
-2.87154e-05
6.79845e-08
3.51047e-08
1.372e-06
0.0020166
-4.98846e-05
-9.70885e-07
-0.000938934
5.24587e-09
5.29806e-05
1.55883e-06
3.179e-08
1.85098e-08
0.000604441
-6.36684e-07
3.72105e-08
-1.30744e-09
2.99831e-06
1.44671e-08
-6.54479e-09
0.00982626
-2.10626e-08
-8.47621e-08
7.3959e-09
2.34578e-08
3.71757e-08
3.65845e-08
-0.000836543
-7.1646e-08
4.80314e-08
4.83526e-08
-2.18057e-06
-2.46814e-05
2.77275e-06
6.15274e-08
1.4785e-06
-5.71691e-06
1.41469e-08
2.23383e-07
1.02372e-08
-3.98385e-09
1.3279e-05
-2.52316e-06
-3.22927e-09
-2.39435e-06
1.31957e-06
0.00324727
0.00113429
3.01575e-06
4.05086e-06
-0.000145993
-1.40419e-06
2.73136e-07
1.90656e-07
2.32423e-07
-0.0576334
0.000886239
1.13681e-06
2.63776e-06
0.0389887
-1.37684e-07
-2.28961e-07
-7.55324e-08
2.03556e-06
-0.00636828
-5.47086e-08
2.24721e-06
-0.00399358
0.000225356
2.53498e-08
3.10179e-08
-2.58705e-06
-2.95205e-06
-4.83171e-07
-0.000363536
-4.48491e-09
2.56492e-09
-6.28514e-08
-2.11456e-06
1.63102e-06
4.23685e-08
-1.59558e-07
-2.36497e-05
-1.86938e-06
0.00216196
9.68362e-08
5.61557e-08
3.44325e-07
2.51955e-07
6.372e-07
6.18059e-07
-2.18296e-07
-1.7841e-06
-7.07008e-09
-6.74499e-09
0.0166042
8.85847e-06
-0.00599198
4.05094e-09
1.23797e-08
-4.31969e-08
1.74093e-08
-1.0197e-08
1.98428e-08
-2.11852e-07
3.34603e-08
-1.07726e-07
1.60788e-09
3.40503e-06
6.01791e-07
-2.6577e-06
-0.00529069
1.63435e-06
8.15733e-07
-1.10179e-06
6.01403e-08
5.78498e-07
6.9908e-07
-4.49771e-06
-1.87635e-06
2.31301e-08
0.00189317
-3.03602e-07
-4.21457e-07
8.84684e-07
-0.00625039
2.09029e-06
-0.00565
-8.68455e-08
-4.64023e-07
-3.55201e-06
8.89561e-08
4.51661e-08
8.01031e-08
9.94401e-07
-6.74205e-05
2.90374e-07
1.15362e-06
4.03484e-08
0.0106551
6.91473e-07
0.000157834
2.73837e-08
1.70664e-06
1.54112e-07
3.12979e-08
-8.83443e-08
4.00237e-09
1.27218e-08
2.76951e-07
-1.26506e-05
-6.73765e-07
1.06466e-05
7.75027e-08
-0.0135966
-1.62571e-06
1.57574e-06
2.06957e-06
3.94497e-07
0.00226421
-7.37227e-07
1.90812e-06
-1.79517e-07
0.00389731
1.27528e-07
-7.44349e-09
4.9329e-09
-1.94196e-08
-1.1818e-06
-4.80621e-09
5.74706e-06
7.5561e-07
1.51187e-07
-8.17342e-08
1.85605e-08
-0.0046902
9.32615e-07
-1.85604e-07
3.4203e-08
5.57163e-07
4.12254e-08
1.43835e-06
0.000148427
-2.12658e-10
-2.69144e-06
0.0243159
1.28681e-08
-4.94825e-08
5.86227e-07
-8.46734e-07
-0.000380769
-6.61661e-06
-2.66634e-07
8.88413e-07
-2.67632e-07
-1.49344e-07
5.09184e-07
-7.18413e-08
-1.03593e-07
1.75706e-09
4.68912e-07
9.13267e-09
1.94633e-08
-3.99771e-07
8.41457e-07
-8.64306e-08
1.84203e-06
2.10572e-07
1.34098e-08
4.70605e-07
2.30852e-06
-2.00044e-07
-7.51233e-07
-1.51063e-09
-1.97619e-08
1.95631e-06
0.038391
3.96972e-07
-4.40713e-08
2.14518e-08
5.82321e-09
7.59529e-07
2.1266e-08
3.97012e-08
0.00172479
-4.29428e-06
1.63351e-07
1.22064e-08
-3.96473e-07
1.09485e-08
-6.97734e-07
-2.80099e-06
-5.97476e-07
3.13228e-05
-5.01696e-08
7.56693e-08
4.91401e-07
0.00224204
2.57397e-07
3.0748e-06
-0.00711241
0.000618268
0.000142204
1.26264e-07
0.00137275
7.1034e-06
-6.23713e-09
3.88136e-07
5.84944e-05
3.53569e-08
5.14501e-09
-1.18117e-08
-4.26995e-07
2.65779e-06
-2.12194e-08
-9.24141e-07
-0.00440738
7.61022e-08
2.82232e-08
2.51948e-06
0.00194435
-2.12605e-06
0.000219189
-0.00369972
-2.84693e-08
6.74041e-06
6.0671e-07
6.97274e-07
0.000326554
-1.43505e-08
0.00560366
-1.1998e-05