/*--------------------------------*- C++ -*----------------------------------*\
| =========                 |                                                 |
| \\      /  F ield         | OpenFOAM: The Open Source CFD Toolbox           |
|  \\    /   O peration     | Version:  v2012                                 |
|   \\  /    A nd           | Website:  www.openfoam.com                      |
|    \\/     M anipulation  |                                                 |
\*---------------------------------------------------------------------------*/
FoamFile
{
    version     2.0;
    format      ascii;
    class       surfaceVectorField;
    location    "50";
    object      Uf;
}
// * * * * * * * * * * * * * * * * * * * * * * * * * * * * * * * * * * * * * //

dimensions      [0 1 -1 0 0 0 0];


internalField   nonuniform List<vector> 
27284
(
(0.835562 -0.084382 2.26958e-21)
(0.870115 -0.0921415 -9.83159e-21)
(0.839388 -0.0947906 -1.87926e-21)
(1.0105 -0.00235494 2.06208e-23)
(1.01055 -0.00247044 1.29951e-23)
(1.01065 -0.00237557 2.4655e-23)
(0.978899 0.203713 0)
(0.971382 0.199951 0)
(0.97839 0.194062 -4.54495e-21)
(1.0102 0.00110725 -1.73907e-22)
(1.01026 0.00121156 -3.70404e-22)
(1.01031 0.00111782 -9.20434e-22)
(1.03196 -0.0281757 9.80618e-23)
(1.03774 -0.0288796 -1.07858e-22)
(1.03367 -0.0228584 2.76841e-23)
(1.04962 0.0980232 0)
(1.06477 0.0929268 0)
(1.05769 0.112688 1.21708e-21)
(1.01011 0.00578145 -2.2878e-22)
(1.00964 0.00504832 -3.74868e-23)
(1.00925 0.00562563 1.20243e-22)
(1.02836 -0.0334093 3.71072e-22)
(1.02632 -0.0265542 -2.73226e-23)
(1.00496 -4.80865e-05 4.78036e-22)
(1.00613 4.13601e-05 9.86667e-23)
(1.00532 1.95378e-05 -1.32872e-23)
(1.04799 0.0347539 2.78186e-21)
(1.0464 0.0327146 -2.00165e-21)
(1.04482 0.0359112 -2.95765e-21)
(1.01871 0.023713 -2.52316e-22)
(1.01908 0.0229018 -3.12549e-22)
(1.01795 0.0230189 -2.09781e-22)
(1.09772 0.14355 2.84814e-20)
(1.09866 0.139662 1.03845e-20)
(1.0944 0.140933 -2.00004e-21)
(1.09664 0.14791 -1.80226e-21)
(1.10134 0.146281 -3.21898e-21)
(0.913973 -0.145566 2.29509e-22)
(0.902861 -0.143423 6.68133e-23)
(0.909559 -0.132504 8.31281e-22)
(1.00719 3.75041e-05 4.38344e-24)
(1.00767 1.84592e-05 1.37529e-22)
(1.00749 1.03317e-05 8.52734e-23)
(1.01136 0.00205509 -2.08414e-22)
(1.01119 0.00196208 -1.75773e-22)
(1.01121 0.00216203 -1.19403e-22)
(1.01017 0.000996775 9.53692e-22)
(1.0101 0.00106766 4.61684e-22)
(1.01033 0.0191595 3.56179e-22)
(1.00947 0.0194119 1.80998e-22)
(1.00965 0.0184043 1.60934e-22)
(0.917936 0.114147 0)
(0.913417 0.107077 0)
(0.921564 0.106155 -1.12953e-22)
(1.01497 -0.00442711 4.07036e-22)
(1.01433 -0.00444013 3.9668e-22)
(1.01437 -0.00365812 2.63996e-22)
(1.04871 -0.103778 5.2859e-21)
(1.07071 -0.0954331 -2.59774e-21)
(1.01921 -0.125226 -1.84103e-21)
(1.02351 0.0127659 9.7223e-22)
(1.02311 0.0125892 0)
(1.02323 0.0130629 -1.18496e-21)
(1.00869 -0.000720275 8.15589e-25)
(1.0087 -0.000797597 -5.58716e-24)
(1.00874 -0.000769555 9.09395e-24)
(1.03616 0.0973276 2.77977e-23)
(1.04077 0.0830919 0)
(1.00865 -0.000677729 6.99043e-25)
(1.00869 -0.000651363 -4.57611e-24)
(1.01156 0.00322407 4.1575e-23)
(1.01137 0.0030156 0)
(1.01133 0.00313658 0)
(1.01095 0.00581803 -2.82602e-22)
(1.01187 0.00589775 9.29663e-23)
(1.01141 0.00512804 1.85955e-22)
(1.01046 0.00205809 -2.26242e-22)
(1.01059 0.00216913 -1.74909e-22)
(1.01049 0.0021757 4.47465e-22)
(1.00326 -4.58381e-05 1.20791e-23)
(1.00471 -6.07088e-05 1.05562e-23)
(1.01778 0.0252929 -5.03224e-22)
(1.01828 0.0245019 2.36984e-22)
(1.01703 0.0245227 -1.8006e-23)
(0.942219 0.262429 0)
(0.948155 0.270861 -4.75947e-21)
(0.959097 0.25611 0)
(1.04469 0.0174418 1.46487e-22)
(1.04224 0.0163815 -1.25202e-21)
(1.04439 0.0144477 5.27367e-22)
(1.01275 0.00378885 2.00328e-22)
(1.01297 0.00365908 4.0945e-22)
(1.01292 0.00396258 1.12462e-22)
(1.00907 0.00266699 1.21193e-22)
(1.00892 0.00265954 1.04209e-22)
(1.00897 0.00251104 1.27124e-22)
(1.00048 4.11675e-05 0)
(1.00051 4.31372e-05 -4.64786e-24)
(1.00026 1.35866e-05 0)
(1.01138 0.00248434 9.20484e-23)
(1.01123 0.00266954 -5.30338e-22)
(1.01121 0.00257167 1.95623e-23)
(1.03476 0.0328395 -4.39373e-22)
(1.03574 0.0332603 4.0577e-21)
(1.03538 0.0321403 9.66734e-23)
(1.01158 0.00240463 6.44197e-22)
(1.01158 0.00224438 3.18703e-22)
(1.01715 0.0261315 -7.5799e-22)
(1.01853 0.0260947 -4.80834e-22)
(1.0153 0.0119938 -7.13797e-23)
(1.0153 0.0123455 2.04074e-22)
(1.01498 0.0120315 2.41364e-22)
(1.01403 0.000246052 -4.79498e-22)
(1.0139 0.000265508 -4.43261e-23)
(1.0123 0.000164946 8.67486e-22)
(1.01948 0.0243409 -2.4738e-22)
(1.00923 0.00263604 -1.40838e-22)
(1.00938 0.00259862 -3.5124e-23)
(1.00928 0.00246633 -3.56293e-23)
(1.01043 -0.00224644 1.0579e-23)
(1.01034 -0.00214027 1.05637e-23)
(1.01051 -0.00218106 0)
(1.01034 -0.00227763 4.30736e-23)
(1.14074 0.194338 5.29243e-21)
(1.13864 0.190163 -1.46694e-20)
(1.14458 0.190468 0)
(1.00999 0.00219172 0)
(1.01007 0.0022964 9.57579e-23)
(1.01004 0.00226812 4.92247e-23)
(1.00992 0.00209551 0)
(1.00995 0.00211731 8.70955e-23)
(0.934296 0.24826 0)
(1.01306 0.000197331 -1.04941e-22)
(1.01305 0.000411185 -2.57438e-22)
(1.01271 0.000252111 1.75259e-22)
(1.00692 0.000294457 7.97696e-23)
(1.00635 0.000237227 8.26587e-23)
(1.00626 0.000269919 1.13204e-22)
(0.736991 -0.316151 1.61897e-21)
(0.73468 -0.309281 -2.4692e-22)
(0.731045 -0.313381 -2.3198e-21)
(1.01351 9.822e-05 -2.94043e-23)
(1.01306 -2.63944e-05 -4.13247e-23)
(0.919782 0.0205023 1.3855e-21)
(0.915206 0.0232647 -3.06928e-21)
(0.922058 0.0275413 2.87962e-21)
(1.01605 0.00374371 -2.76783e-21)
(1.01607 0.00358018 -6.10445e-22)
(1.01583 0.00358534 -8.18995e-22)
(1.01578 -0.00435718 -2.7055e-22)
(1.01572 -0.00532461 4.69039e-22)
(1.0022 0.000147176 -4.18113e-23)
(1.00181 0.000102781 1.81273e-22)
(1.00172 0.000102875 1.58191e-23)
(0.935028 0.278843 0)
(1.01175 0.00337974 -3.54749e-23)
(1.01175 0.00320965 -1.18553e-22)
(1.14824 0.233926 1.74317e-20)
(1.13449 0.23506 5.44937e-21)
(1.12079 0.225394 -1.95457e-20)
(1.00919 0.00279772 -2.16249e-22)
(1.05515 0.121695 -1.15905e-20)
(1.05903 0.121729 1.35823e-20)
(1.05695 0.117249 -8.5547e-21)
(0.92673 0.0165283 -2.55505e-21)
(0.919752 0.0113973 -4.83994e-22)
(1.02193 0.00361566 3.05052e-22)
(1.0217 0.0029767 1.60429e-22)
(1.0211 0.0034409 -7.33482e-23)
(1.04786 -0.000652002 2.7181e-21)
(1.04709 -0.00502374 -6.52086e-23)
(1.0441 -0.000929395 -5.26808e-22)
(1.00623 0.000335891 -1.66832e-22)
(1.00683 0.000442247 3.30562e-22)
(1.00651 0.000396016 -1.53365e-22)
(1.02492 0.0186734 -1.40041e-22)
(1.02521 0.0186882 -2.11777e-21)
(1.02507 0.0190546 1.1793e-21)
(1.03386 0.0326087 7.04968e-21)
(1.03412 0.0338506 -1.19987e-21)
(1.00832 0.00293926 -3.63473e-23)
(1.00815 0.00286422 1.25061e-22)
(1.00819 0.00277707 1.42913e-22)
(0.932507 0.0197327 1.88319e-22)
(0.924184 0.0284444 1.84981e-23)
(0.919373 0.0170578 -7.43951e-23)
(1.0109 0.00108822 7.42009e-23)
(1.01115 0.00118371 -1.00685e-23)
(1.01108 0.00104927 -1.99663e-22)
(1.01604 0.00384449 -1.9945e-22)
(1.01625 0.00385376 -1.3088e-21)
(1.03582 0.0177769 6.00031e-22)
(1.03754 0.018724 1.31092e-21)
(1.0354 0.0196419 -4.64292e-22)
(1.00538 0.0198389 -1.15976e-22)
(1.00656 0.0198052 5.79075e-22)
(1.00593 0.0187092 1.3646e-22)
(1.09565 0.0085681 -2.26634e-21)
(1.09324 -0.00692394 -5.26697e-21)
(1.09212 -0.00414754 -3.42901e-21)
(1.00865 0.00303538 -5.34227e-24)
(1.00849 0.00299122 -3.57657e-22)
(1.00852 0.00289115 -9.36064e-23)
(0.944239 0.267996 2.26337e-21)
(0.949778 0.285044 0)
(1.00881 0.00307799 3.6282e-23)
(1.00877 0.00319229 1.54815e-22)
(1.01069 0.000975079 1.03952e-22)
(1.01072 0.00110327 3.14011e-22)
(1.09801 0.0225976 5.12793e-23)
(1.09283 0.0208712 -3.99484e-22)
(1.02461 0.0187146 -8.03042e-22)
(1.02472 0.0183523 1.34675e-21)
(1.07734 0.0670097 5.05826e-21)
(1.08611 0.0733681 -8.23435e-22)
(1.08617 0.0578585 9.0295e-23)
(1.00844 0.00309667 -5.64528e-24)
(1.02385 0.0187899 -2.58804e-22)
(1.02392 0.0190324 -1.57472e-21)
(1.02378 0.018931 -1.58704e-21)
(1.00631 0.00757302 8.21123e-22)
(1.0037 0.00756937 -4.16459e-22)
(1.00583 0.00538818 6.73005e-22)
(1.00632 7.24595e-05 -1.15181e-21)
(1.00615 -2.51631e-05 -2.76057e-22)
(1.00442 1.16706e-05 -4.11841e-23)
(1.00736 0.000267259 1.20507e-22)
(1.00628 0.000223774 -5.91303e-23)
(1.00608 0.000205314 1.07126e-22)
(1.00869 0.0216613 2.42668e-23)
(1.00969 0.0231599 5.11927e-22)
(1.00792 0.0233081 -1.21334e-22)
(1.00957 0.00108242 9.32801e-23)
(1.00954 0.0010219 -7.97195e-24)
(1.00949 0.00106224 -1.07718e-22)
(1.00981 0.0201256 -2.13749e-22)
(1.00792 0.0200707 1.56194e-22)
(0.903132 -0.238484 0)
(0.898669 -0.232599 -5.74679e-22)
(1.15469 -0.0381478 8.50791e-22)
(1.16535 -0.023656 2.47568e-22)
(1.15357 -0.0448978 -6.70049e-21)
(1.06736 0.072607 2.35204e-22)
(1.06607 0.0598875 9.32224e-22)
(1.01296 0.000627199 -2.88259e-22)
(1.01342 0.000603842 -2.25977e-22)
(0.861886 -0.0610417 -4.54159e-22)
(0.867804 -0.0456009 -8.46653e-22)
(0.881995 -0.0601913 8.68654e-21)
(1.01938 0.0060849 -6.48159e-22)
(1.01929 0.00670731 -8.27235e-22)
(1.02002 0.00650651 -5.94237e-23)
(1.0092 0.0011689 0)
(1.00918 0.00118607 0)
(1.00913 0.00111479 0)
(1.01942 0.00548589 1.44802e-23)
(1.01877 0.00570969 5.26421e-22)
(0.981097 0.0773292 3.25654e-22)
(0.976097 0.0772724 4.125e-22)
(0.97985 0.0725999 3.48266e-22)
(1.02171 0.0121674 -4.74613e-22)
(1.02206 0.0122969 6.30808e-22)
(1.02187 0.0125183 2.38793e-22)
(1.00855 0.00809912 4.98681e-22)
(1.00655 0.0100159 -9.13934e-22)
(1.0105 0.000878057 -3.01668e-23)
(1.01066 0.00086468 -5.97381e-24)
(1.01285 0.000805031 6.69251e-23)
(1.0126 0.000602095 -8.52758e-23)
(1.00145 0.000500447 -4.8809e-25)
(1.00145 0.000573384 3.59807e-24)
(1.00152 0.000514311 0)
(1.02444 0.0187229 -1.10762e-21)
(1.02423 0.0186869 1.81611e-21)
(1.0243 0.0184414 9.67536e-23)
(1.01153 0.00213796 1.91212e-22)
(1.01152 0.00191996 1.6623e-22)
(1.05232 -0.000393617 1.15153e-21)
(1.04842 0.00342805 0)
(0.856265 -0.078822 9.61652e-23)
(0.840377 -0.0634004 5.47412e-22)
(1.01906 0.0312623 8.43248e-22)
(1.01782 0.030973 -2.81902e-21)
(1.01844 0.0324754 1.11213e-21)
(1.01058 0.00229273 2.03707e-23)
(1.01055 0.00250592 1.12653e-22)
(1.0104 0.00230649 6.08557e-23)
(1.00259 0.000219015 -6.75677e-23)
(1.00247 0.000219815 -1.01513e-23)
(1.00397 0.000126729 -9.27416e-24)
(1.00268 4.77265e-05 3.96073e-23)
(1.00403 0.000108385 9.66629e-23)
(1.02822 0.0255098 -7.09118e-23)
(1.02941 0.0251069 5.61157e-22)
(1.02793 0.0242661 -2.99109e-22)
(1.02376 0.0186197 7.0334e-22)
(1.02389 0.0186429 -5.48141e-24)
(1.09465 0.239708 2.1507e-20)
(1.09377 0.233496 1.97179e-20)
(1.10114 0.235575 -1.62486e-20)
(1.02529 0.019561 6.31114e-24)
(1.02494 0.0192933 0)
(1.02477 0.0196561 2.88695e-23)
(1.01033 0.000777575 0)
(1.01035 0.000870485 0)
(1.10076 0.0375636 3.46698e-23)
(1.09934 0.0216359 2.67034e-22)
(1.02338 0.0166515 -1.07045e-23)
(1.0232 0.0167779 -1.35486e-23)
(1.02308 0.0164518 1.04713e-21)
(1.02552 0.0185865 -9.75527e-22)
(1.02559 0.0189603 1.00075e-21)
(0.941171 0.0112628 -2.80966e-22)
(0.944326 0.0204856 5.58244e-22)
(0.9863 0.204997 -6.09708e-21)
(0.980264 0.211467 0)
(0.907882 -0.239573 0)
(1.0034 0.0200803 -3.23461e-22)
(1.00213 0.0182089 -1.8964e-22)
(1.00077 0.0207151 -2.16953e-22)
(1.09876 0.0572086 -2.36819e-21)
(1.09507 0.0478827 2.64592e-22)
(1.13421 0.203925 5.5491e-21)
(1.138 0.208554 -3.76073e-21)
(1.13148 0.208883 7.89043e-21)
(1.01047 0.0066661 -1.95731e-22)
(1.01015 0.000892848 1.37329e-22)
(1.01024 0.000921968 4.65238e-22)
(0.795411 -0.0746051 5.06425e-21)
(0.836777 -0.0748813 6.95314e-21)
(1.02195 0.0103248 0)
(1.02212 0.0106108 0)
(1.02173 0.0105131 0)
(1.00921 0.00114578 -1.86137e-23)
(1.00927 0.00121873 -7.26118e-24)
(0.741162 -0.321587 4.11879e-22)
(0.745262 -0.314187 -5.98503e-21)
(1.01467 0.00577805 -4.35759e-22)
(1.01455 0.00557469 -4.57302e-22)
(1.01477 0.00567634 4.10794e-23)
(1.0076 0.10182 0)
(1.00861 0.105699 2.50289e-21)
(1.00421 0.103516 0)
(0.994581 -0.0384831 5.11309e-21)
(0.99345 -0.0333311 3.08502e-21)
(0.988944 -0.0379934 -2.27345e-21)
(1.00959 0.000902285 4.10848e-23)
(1.00963 0.000948475 -8.68406e-23)
(1.00969 0.000911065 -2.72702e-23)
(0.915898 0.120565 3.85929e-22)
(0.924084 0.11945 -5.16713e-22)
(0.917211 -0.014516 -7.42593e-22)
(0.916095 -0.00450285 1.43503e-21)
(0.902374 -0.0101557 1.58471e-22)
(1.01226 0.00091739 -2.69125e-23)
(1.01241 0.00097229 -5.88854e-22)
(1.01232 0.00108556 -2.4329e-23)
(1.1181 -0.0678536 -4.79146e-21)
(1.14459 -0.040895 4.81946e-22)
(1.03051 0.0254669 -3.05232e-21)
(1.03104 0.0252482 7.80114e-22)
(1.0309 0.0260193 -5.96786e-22)
(1.05004 0.0203393 1.32042e-21)
(1.04479 0.024111 -2.16064e-22)
(1.05231 0.0268793 2.33885e-22)
(1.00979 0.00193764 2.08063e-25)
(1.00974 0.00187514 0)
(1.00973 0.00185923 0)
(0.760525 -0.304011 -4.07859e-21)
(0.752311 -0.305294 -9.79986e-23)
(1.00122 -0.038991 1.963e-21)
(0.996458 -0.0445066 -2.94092e-21)
(1.0141 0.000370679 1.87216e-21)
(1.01458 0.000418184 1.27815e-22)
(1.01443 0.000441817 1.05341e-21)
(1.12339 0.25198 -2.87072e-20)
(1.12089 0.259775 9.54043e-21)
(1.13436 0.257535 8.09672e-21)
(1.00093 0.00138012 6.8578e-25)
(1.00101 0.00135978 0)
(1.00097 0.00133038 0)
(1.02841 0.0269073 3.06978e-22)
(1.02704 0.025932 -3.81844e-23)
(0.998632 0.00088024 1.74963e-24)
(0.998572 0.00082986 1.16536e-24)
(0.998559 0.000909302 8.56484e-24)
(1.01042 0.00195514 -1.04997e-22)
(1.01034 0.00195702 2.44145e-22)
(1.02576 0.0184574 5.47447e-22)
(1.02537 0.018294 5.53676e-22)
(1.02323 -0.00461718 0)
(1.02247 -0.00523342 1.94094e-22)
(1.02228 -0.00415027 2.09824e-22)
(1.02114 0.0203809 8.23146e-23)
(1.02386 0.0197436 -1.26557e-21)
(1.02154 0.0174441 -4.81041e-23)
(1.0095 0.00272258 0)
(1.00955 0.00255021 -1.58942e-22)
(1.0084 -0.000276664 1.26114e-23)
(1.0086 -0.00034885 4.20091e-23)
(1.00852 -0.00028972 4.97982e-24)
(1.01003 0.00085428 -5.29569e-22)
(1.01006 0.000764281 -3.42496e-22)
(1.00646 4.87014e-05 1.2348e-22)
(1.00734 -0.000139479 3.55137e-22)
(1.00983 0.00198579 1.97848e-25)
(1.00984 0.00197732 -6.27049e-24)
(1.00808 -0.000195635 0)
(1.00814 -0.000260963 0)
(1.01255 0.0202739 -4.47692e-23)
(1.01181 0.0206388 -2.90418e-22)
(1.01258 0.0212723 -3.16099e-22)
(1.01457 0.00586975 -4.68027e-22)
(1.0148 0.00597189 -5.13866e-22)
(1.01074 0.00231877 -6.71208e-23)
(1.01062 0.0021266 -7.44195e-23)
(1.03259 0.0221814 6.57357e-22)
(1.03554 0.0198966 4.5986e-24)
(1.03211 0.0181247 9.82183e-23)
(1.00911 0.0216038 2.65838e-22)
(1.00809 0.0218645 -5.02187e-23)
(1.00902 0.0228877 2.46934e-22)
(1.04491 0.0250931 -6.12959e-22)
(1.0476 0.0274312 -1.53897e-22)
(1.04819 0.0251458 -6.03467e-22)
(1.12357 0.246395 2.62892e-20)
(1.0919 0.244076 -4.14308e-20)
(0.743636 -0.0972845 3.68798e-21)
(0.702829 -0.102444 8.73912e-21)
(0.752808 -0.109702 6.91735e-21)
(0.969371 0.0745379 -1.27836e-20)
(0.947657 0.0163656 -2.05965e-20)
(0.926742 0.0305532 -2.65703e-20)
(1.02979 0.0256975 -1.65668e-22)
(1.03005 0.0249091 5.59554e-23)
(1.00314 0.000147018 0)
(1.00328 0.000155227 -1.96582e-23)
(1.00209 5.82842e-05 5.20347e-23)
(1.01147 0.0994846 0)
(1.00696 0.097631 3.25944e-21)
(1.00611 0.000105243 0)
(1.00622 9.68699e-05 0)
(1.00421 3.89959e-05 0)
(0.92732 0.233536 0)
(0.942157 0.229987 0)
(1.0014 0.000119111 -3.69039e-23)
(1.00133 0.000123296 -7.16474e-23)
(1.00087 5.16272e-05 -1.5577e-23)
(1.0135 0.00027874 2.0979e-22)
(1.01331 0.00028064 8.04404e-22)
(1.0038 0.000125619 7.66933e-23)
(1.00476 0.000165608 -3.04997e-23)
(1.00119 0.000891027 -2.15457e-23)
(1.00115 0.000850797 2.02936e-24)
(1.00116 0.000921599 5.78508e-24)
(1.03677 0.0141809 5.47593e-21)
(1.03745 0.0144978 1.90304e-21)
(1.0368 0.0147514 -5.60332e-22)
(1.0233 0.0176264 1.17964e-22)
(1.02304 0.0179091 -3.06097e-22)
(1.02297 0.0173839 1.87102e-22)
(1.00602 -7.26467e-05 0)
(1.0061 -5.59092e-05 0)
(1.00425 -4.48986e-05 0)
(1.04222 0.0224775 0)
(1.0415 0.025067 0)
(1.02283 0.0119437 2.57991e-22)
(1.02244 0.0118222 6.65313e-22)
(1.02264 0.0115577 -9.82248e-23)
(1.01071 0.00262201 -4.34353e-22)
(1.01082 0.00273366 -2.77591e-22)
(1.01078 0.00261328 6.70507e-22)
(1.04406 0.0168857 7.18295e-23)
(1.04195 0.0144745 -8.54494e-22)
(1.04508 0.0139474 -4.48696e-22)
(1.01269 0.00100789 5.66683e-23)
(1.01311 0.00105042 8.34001e-23)
(1.00585 -0.000127012 -9.77761e-24)
(1.00542 -0.000180881 -3.92532e-22)
(1.00671 -0.000180671 -1.86627e-23)
(1.01092 0.0187718 -7.85323e-23)
(1.01058 0.017077 -3.61012e-22)
(1.01226 0.0174965 5.14789e-22)
(1.01626 0.00135789 3.06923e-22)
(1.01625 0.00123794 3.0259e-21)
(1.01609 0.00128739 7.0789e-22)
(1.01236 0.00675951 8.99313e-23)
(1.01274 0.00589509 2.30579e-22)
(1.13755 0.198647 -3.16515e-21)
(1.13127 0.198918 -2.62935e-20)
(0.985091 0.0779421 3.17278e-22)
(0.981549 0.0823231 -4.37547e-22)
(1.01031 -0.00270301 7.8453e-24)
(1.01032 -0.00257415 -4.45143e-24)
(1.01017 -0.00256088 -1.08304e-23)
(1.00706 0.00472942 7.34604e-23)
(1.00725 0.00482077 -1.30639e-23)
(1.0071 0.00496287 -5.46324e-23)
(1.01565 0.000321722 6.62668e-22)
(1.01556 0.000271408 -5.12221e-22)
(1.01569 0.000266022 -1.79518e-21)
(1.08298 0.246737 -1.12766e-21)
(1.07714 0.239231 2.83077e-22)
(1.07386 0.248604 6.21245e-21)
(1.00743 0.000395561 -5.49823e-23)
(1.00728 0.000385906 1.35778e-22)
(0.658338 -0.0615891 -5.33808e-21)
(0.698159 -0.0731013 3.35909e-21)
(0.653243 -0.0798534 7.81929e-21)
(1.01045 -0.00252989 -2.99384e-23)
(1.01059 -0.00258892 5.9024e-25)
(0.920287 -0.157069 -1.29369e-21)
(0.925965 -0.146936 -1.15287e-21)
(1.01248 0.00114841 -1.31392e-22)
(1.01235 0.000918207 -3.42152e-23)
(1.00723 0.0130953 0)
(1.0075 0.0138769 -2.14197e-22)
(1.00799 0.0133272 -3.4921e-22)
(1.01644 0.0270693 0)
(1.01574 0.0261454 -3.02316e-22)
(1.006 -0.000136979 3.65591e-22)
(1.00639 -0.000128265 4.09373e-24)
(1.00733 -0.00011734 -6.78608e-23)
(0.792973 -0.0948159 -3.6372e-21)
(0.74287 -0.0830205 -5.74199e-21)
(1.02201 0.00914448 -2.68203e-21)
(1.02212 0.0089344 -1.51724e-21)
(1.02238 0.00919605 1.00217e-21)
(0.996239 0.143506 8.27954e-21)
(1.01553 0.121187 1.83906e-20)
(1.01063 0.00258972 -1.60416e-22)
(1.01062 0.00247919 -2.3572e-22)
(1.01231 0.00407092 6.83439e-23)
(1.01215 0.00391818 -2.23706e-22)
(1.01206 0.00421739 -2.14708e-22)
(1.02153 -0.00811358 2.33884e-22)
(1.02051 -0.00839117 1.00798e-22)
(1.02076 -0.00733406 -1.24409e-22)
(1.01816 0.0100362 7.55911e-22)
(1.01806 0.00973849 7.78698e-23)
(1.01787 0.00988846 7.72268e-22)
(1.0163 0.05035 1.82406e-21)
(1.0178 0.0575563 7.46625e-22)
(1.02343 0.0498853 1.59129e-22)
(1.02593 -0.000931645 -3.6638e-22)
(1.02652 0.000280897 -2.604e-22)
(1.02733 -0.000966549 -4.62153e-22)
(1.02536 -0.00198802 2.84322e-22)
(1.02467 -0.000750274 -1.30001e-22)
(1.00088 0.00142793 -1.94234e-24)
(1.00085 0.00141118 -2.73608e-23)
(0.917956 0.219721 7.9063e-22)
(0.916255 0.237406 -2.55518e-21)
(1.02364 0.0173243 1.51614e-22)
(1.02349 0.0178154 1.45382e-22)
(1.03945 0.0272867 -3.41865e-21)
(1.0392 0.0264574 -1.81963e-21)
(1.03862 0.0270709 -2.98912e-21)
(1.02185 0.00938009 -2.56588e-21)
(1.02169 0.00957645 -1.28401e-21)
(1.0221 0.00965672 -1.26159e-21)
(1.01 0.00221782 -3.34116e-24)
(1.00999 0.00220112 3.28956e-23)
(1.01006 0.00229493 3.8872e-23)
(1.02036 0.0315176 -5.44736e-22)
(1.01974 0.0302718 2.32224e-22)
(1.00597 0.00433141 -3.19779e-23)
(1.00582 0.00425513 -5.00376e-23)
(1.00596 0.00414078 -2.24134e-23)
(1.01053 0.0260945 -4.16076e-22)
(1.01086 0.0244195 4.6984e-22)
(1.01209 0.0256223 -8.8521e-22)
(1.01318 0.010231 -3.18381e-24)
(1.01296 0.0102171 3.0142e-23)
(1.0131 0.00999721 2.40627e-22)
(0.986696 -0.00226634 1.09704e-21)
(0.982616 -0.0015167 1.11058e-21)
(0.985204 -0.0058894 1.00965e-21)
(0.996306 0.00680295 -9.31848e-23)
(0.998242 0.00707495 1.68544e-22)
(0.996924 0.00928334 3.52948e-22)
(1.00613 0.00439227 2.81946e-25)
(1.00631 0.00445381 -2.56241e-23)
(1.00628 0.0042596 -1.33106e-22)
(0.918131 -0.0239854 7.46929e-22)
(0.928903 -0.0169011 0)
(0.925493 -0.0768947 -1.0415e-21)
(0.923218 -0.0896107 6.63434e-21)
(0.937035 -0.0860793 0)
(1.03016 0.0156779 4.63151e-22)
(1.03146 0.0159386 5.89666e-22)
(1.03027 0.0168444 1.9766e-22)
(1.00505 0.00218327 1.5177e-22)
(1.00542 0.00157065 1.56321e-22)
(1.00477 0.00121325 -1.57472e-22)
(1.02458 0.018958 1.8901e-22)
(1.02332 0.0128237 7.042e-22)
(1.02164 0.0150605 -1.55966e-21)
(1.02637 0.0148877 7.18891e-23)
(1.00599 0.00451777 3.40406e-23)
(1.02921 0.0242081 -1.03165e-23)
(1.03251 0.0266496 7.24619e-22)
(0.990462 -0.00314999 -1.01541e-21)
(0.988454 0.000806151 -8.25233e-22)
(1.03224 0.0102594 -2.28782e-21)
(1.03229 0.00972148 0)
(1.03173 0.00993398 0)
(1.14375 0.199044 5.0464e-21)
(1.04754 0.0229441 3.55342e-21)
(1.0485 0.0233872 -8.69796e-22)
(1.04816 0.0222021 -2.268e-22)
(1.02468 -0.00294588 -2.43077e-22)
(1.02593 -0.00329964 0)
(1.01055 -0.00286548 -4.54577e-23)
(1.01043 -0.00279239 -2.6271e-23)
(1.01059 -0.00272576 -1.15868e-22)
(1.03613 0.0139856 0)
(1.03673 0.0136386 0)
(1.02397 -0.00381268 -2.40145e-22)
(1.02354 -0.00260224 -1.26889e-22)
(1.02908 0.0154572 -3.80481e-22)
(1.02799 0.0154936 -3.28585e-22)
(1.02821 0.0164017 3.48003e-23)
(1.02159 0.00911254 1.65182e-22)
(1.01612 0.00344433 -1.52613e-21)
(1.01616 0.0033093 -2.0801e-21)
(1.01592 0.0032953 1.28369e-22)
(1.01004 0.0021666 0)
(1.01001 0.00215063 -1.0441e-22)
(1.00996 0.00206207 0)
(1.01491 0.0441105 -6.03144e-22)
(1.01018 0.0491008 -9.59123e-22)
(1.02068 0.0660441 -1.03049e-22)
(1.02405 0.0731351 2.0518e-21)
(1.02946 0.0636453 -2.8565e-22)
(1.01117 0.00153919 4.17129e-23)
(1.01143 0.0017293 6.24989e-23)
(1.01108 0.00174009 2.15987e-22)
(1.02217 0.00429394 0)
(1.02284 0.0038632 -1.7756e-22)
(1.01242 0.0655446 -3.30859e-24)
(1.02596 0.179403 -3.30526e-21)
(1.02909 0.184754 1.79316e-21)
(1.03162 0.179083 -4.56082e-21)
(1.01331 0.0105017 3.61548e-22)
(1.01347 0.0102167 -3.64426e-22)
(1.00122 0.000847594 -6.10308e-25)
(1.00123 0.000924735 -5.35992e-24)
(1.01249 0.0100236 -1.54743e-22)
(1.01253 0.00988786 -1.47087e-23)
(1.0126 0.00999486 -1.47677e-23)
(1.04697 0.0239235 3.56119e-21)
(1.04662 0.0227233 -1.44839e-21)
(1.01367 0.000553548 1.00014e-21)
(1.01302 0.000445287 0)
(1.01334 0.000546183 0)
(0.996035 0.00426999 -8.36616e-22)
(0.994004 0.00623521 3.94025e-22)
(1.00894 0.000795748 -4.3129e-23)
(1.00898 0.00084333 2.85658e-23)
(1.00892 0.000806431 -7.65644e-24)
(0.998688 0.000942591 3.67129e-24)
(0.998702 0.000869376 -6.17519e-26)
(0.949942 -0.0746109 -1.35468e-22)
(0.958766 -0.0955106 0)
(0.943485 -0.084415 6.02163e-23)
(0.98917 0.0767254 -2.18113e-21)
(0.992955 0.0760497 -5.11537e-22)
(0.989159 0.0731736 -2.14919e-21)
(1.05261 0.0385889 -3.42154e-21)
(1.05254 0.0395482 -2.84707e-21)
(1.05385 0.0390788 -7.63595e-22)
(1.01717 0.0280061 0)
(1.01567 0.0279962 -4.82118e-22)
(1.00769 0.0198368 -5.82586e-22)
(1.01034 0.021419 1.94998e-22)
(1.00996 0.0181223 4.21368e-22)
(1.04466 0.0102148 1.60979e-23)
(1.04717 0.0146284 4.30285e-23)
(1.04122 0.0138268 1.35107e-21)
(0.972063 0.0773872 -4.34979e-22)
(0.970491 0.0727995 7.00968e-22)
(0.966412 0.0772926 5.59077e-22)
(1.0089 0.00075181 -2.8562e-23)
(1.00897 0.000785566 3.21172e-23)
(1.01632 0.00359612 5.68861e-22)
(1.01466 0.0058639 -3.82017e-22)
(1.01435 0.0067909 -1.07541e-22)
(1.01369 0.00590793 -3.56246e-23)
(1.01033 0.00270452 -8.75066e-23)
(1.01051 0.00267092 0)
(1.01048 0.00284957 -2.29797e-23)
(1.00707 0.0123483 -1.78248e-23)
(1.00648 0.0128431 0)
(1.03962 0.0281181 -1.38319e-21)
(1.0403 0.0274611 6.09323e-21)
(1.00994 0.00159142 -3.83447e-22)
(1.01004 0.00167867 2.13174e-22)
(1.01001 0.00157666 -2.99952e-22)
(1.01884 0.00986004 -1.3279e-21)
(1.01901 0.00970328 2.73475e-22)
(1.01911 0.0100083 -8.91368e-22)
(0.98955 0.0142934 -1.0503e-22)
(0.991492 0.0155423 1.33833e-21)
(0.991554 0.0129018 -8.14797e-23)
(1.00956 0.000858874 4.1274e-23)
(1.00951 0.000888564 1.67394e-23)
(0.977246 -0.00329095 -4.11383e-22)
(0.972699 -0.00333632 -2.15058e-21)
(0.975545 -0.00781062 -2.37535e-21)
(0.836984 0.20411 -9.66997e-22)
(0.824128 0.202391 1.67299e-21)
(0.993325 0.0167464 8.88776e-22)
(0.995464 0.0175349 1.0141e-22)
(0.995058 0.0151792 -8.99444e-22)
(1.01846 0.0101896 4.22206e-22)
(1.01825 0.0103507 -9.08204e-23)
(1.02605 0.0203205 -2.36625e-22)
(1.02563 0.019877 -1.34758e-23)
(1.02544 0.020438 -4.91647e-23)
(1.01019 0.00255763 -1.58014e-22)
(1.01015 0.0027396 -8.57217e-23)
(1.00896 0.0266505 -4.34195e-22)
(1.00713 0.0273238 0)
(1.00721 0.0251604 0)
(1.02212 0.00815389 -1.33662e-21)
(1.02177 0.00812421 -1.35241e-21)
(1.02187 0.00788232 -3.96885e-23)
(1.02396 0.0169414 -3.62489e-23)
(1.02432 0.0164345 2.63155e-22)
(1.02354 0.0165231 -1.79572e-22)
(1.01467 0.000335322 2.79148e-23)
(1.01392 0.000230455 -3.20821e-22)
(1.02415 0.0171858 0)
(0.998448 0.000315443 -2.17705e-23)
(0.998375 0.000274559 4.84445e-24)
(1.01254 0.0039138 3.52059e-22)
(1.01259 0.00362253 -1.4618e-22)
(1.03184 0.0670327 4.31044e-21)
(1.03395 0.0660904 -2.40662e-21)
(1.03341 0.069305 1.87334e-21)
(1.02408 0.0163127 -5.70049e-22)
(1.02409 0.0166736 2.08981e-21)
(1.0238 0.0163968 2.50667e-21)
(0.994582 -0.00453009 1.99939e-22)
(0.993058 -0.00648794 1.91952e-22)
(0.992284 -0.00354902 4.17221e-22)
(1.04801 0.00618338 3.22008e-21)
(1.04217 0.00591202 2.84859e-23)
(1.00679 3.25782e-05 -4.28084e-24)
(1.00648 1.50423e-05 -4.97309e-24)
(1.00686 0.00465192 5.68252e-23)
(1.00702 0.00450975 0)
(0.979224 0.00075802 1.84935e-21)
(0.981736 -0.00307598 -1.78338e-22)
(1.01865 0.0100325 3.2371e-23)
(1.01855 0.00971695 3.59249e-22)
(1.05521 0.0165601 1.55005e-22)
(1.03679 0.033593 1.65529e-21)
(1.03753 0.0328539 -7.96906e-21)
(1.03791 0.0340039 -4.4394e-21)
(0.791565 -0.203508 -1.08175e-21)
(1.00668 0.0333492 6.05971e-22)
(1.00465 0.0319876 6.02171e-22)
(1.00689 0.0312517 -3.8062e-22)
(0.989452 0.0809043 -9.31895e-22)
(1.00848 0.0162485 3.44424e-22)
(1.00756 0.0161092 -1.28838e-22)
(1.00813 0.0154132 1.13116e-22)
(0.987587 0.0127058 -4.90165e-22)
(0.987726 0.0160964 -4.37749e-22)
(1.01237 6.4179e-05 4.96955e-23)
(1.01216 0.000205881 2.01993e-22)
(1.01243 0.000208655 3.21609e-22)
(1.04603 0.019339 0)
(1.04519 0.0196037 2.9676e-21)
(1.04545 0.0186684 6.31176e-21)
(1.05288 0.0371467 0)
(1.05138 0.0377374 4.26253e-21)
(1.02965 0.0686329 5.24764e-21)
(1.03017 0.0653137 1.30696e-21)
(1.01583 0.0157027 -1.28849e-22)
(1.01668 0.0146465 6.74557e-23)
(1.01539 0.014308 0)
(0.967233 0.238617 -2.72047e-21)
(0.960562 0.233266 7.41222e-21)
(0.959899 0.242938 5.94752e-21)
(1.0105 0.00300882 -6.07453e-24)
(1.01054 0.00310311 0)
(1.01048 0.00296501 0)
(1.01439 0.000384602 -1.99054e-22)
(1.01416 -0.000143478 0)
(1.01505 -0.000205377 9.00707e-22)
(0.933114 0.0141644 0)
(0.939515 0.0118322 0)
(0.934312 0.00642786 2.71016e-21)
(1.02649 0.0206398 -1.0065e-22)
(1.02664 0.0200202 5.70953e-23)
(1.01051 0.00303627 9.50396e-24)
(1.01044 0.00291105 7.35811e-23)
(1.00989 0.00206938 0)
(1.00985 0.00199915 -9.21801e-23)
(1.01021 0.00222223 3.48658e-23)
(1.01015 0.00220408 6.98982e-24)
(1.01011 0.00210372 9.71315e-23)
(1.06209 0.0732828 0)
(1.06464 0.0729633 0)
(1.06353 0.0753843 1.1329e-20)
(0.973868 0.234562 1.01758e-20)
(0.973618 0.243805 0)
(0.88357 0.269643 5.19347e-21)
(0.873296 0.262213 0)
(0.884929 0.256094 0)
(1.01464 0.0165611 6.80175e-22)
(1.01613 0.0172099 2.7262e-23)
(0.991842 0.0183939 -1.83515e-23)
(1.03176 0.0249424 6.01322e-21)
(1.03242 0.0247574 -1.18374e-21)
(1.03218 0.0256778 2.75958e-21)
(1.02993 0.067561 -1.43685e-22)
(1.02417 0.0734425 -1.56895e-23)
(1.02274 0.064718 2.15593e-22)
(1.00107 0.00134707 -1.51884e-24)
(1.00111 0.00130658 1.46512e-24)
(1.00114 0.00135212 6.50283e-24)
(1.02187 0.00866366 0)
(1.02225 0.00868375 -1.56857e-21)
(1.03127 0.0243345 1.33489e-21)
(1.01811 0.00550142 -9.79552e-23)
(1.01838 0.00554409 3.67614e-23)
(1.01829 0.00572242 -3.12201e-22)
(1.02992 0.014442 2.02286e-22)
(1.00042 3.56507e-05 8.3608e-25)
(1.00065 4.91184e-05 -2.24227e-24)
(1.00256 0.115283 0)
(1.00826 0.121387 0)
(1.00123 0.123099 0)
(1.01182 0.00208912 -1.50534e-22)
(1.01168 0.00220686 8.05031e-23)
(1.01184 0.00231725 1.64591e-22)
(1.09803 0.0679339 1.9189e-21)
(1.09335 0.0734287 -1.00782e-21)
(1.01483 0.000645471 -3.80006e-22)
(1.01492 0.000735966 5.32713e-23)
(1.01477 0.000694986 -1.21469e-21)
(1.01562 0.0119086 -2.47323e-22)
(1.01527 0.0116051 -2.21347e-22)
(1.00669 0.0159706 -4.43914e-22)
(1.00636 0.0150975 3.16401e-22)
(1.00567 0.0158309 5.62471e-22)
(1.08403 0.164325 -2.22037e-20)
(1.08601 0.159632 -7.03991e-21)
(1.08068 0.160317 8.25787e-21)
(0.677947 -0.127869 -7.33781e-21)
(0.666637 -0.11196 -6.95626e-21)
(0.637195 -0.125277 -2.89953e-21)
(1.02706 0.0155543 -3.42161e-22)
(1.02769 0.0145256 -9.30965e-23)
(1.01358 0.0171253 -2.43157e-22)
(1.01367 0.0158238 6.56269e-23)
(1.01935 0.0130171 0)
(1.01919 0.0126577 8.13932e-22)
(1.01958 0.0128653 -4.35554e-22)
(1.00966 0.00109622 1.3535e-22)
(1.0096 0.00114625 1.89661e-22)
(1.01784 0.00545278 -1.5928e-21)
(1.01794 0.00527518 -2.40796e-23)
(1.00752 -0.00299507 2.99076e-22)
(1.00646 -0.00348172 5.19675e-22)
(1.00759 -0.0041199 -2.17767e-22)
(1.04975 0.0340463 3.69078e-22)
(1.04608 0.037748 1.9306e-21)
(1.00971 0.00129424 -8.70441e-23)
(1.00974 0.00123293 3.16652e-23)
(1.00965 0.00121887 -7.18423e-23)
(1.01115 0.000694358 2.70975e-22)
(1.01053 0.000535598 -8.86046e-22)
(1.01128 0.000666623 0)
(0.998988 0.00138247 0)
(0.998992 0.00132265 0)
(0.998929 0.0013476 7.65237e-25)
(1.01992 0.0124361 -4.28401e-22)
(1.02026 0.0125941 -3.48947e-24)
(1.02009 0.0122349 4.31973e-22)
(1.00977 0.00118409 1.05659e-22)
(1.00974 0.00111459 -4.47543e-23)
(1.00983 0.00112953 0)
(1.05015 0.180009 9.83245e-21)
(1.05315 0.184783 1.9515e-20)
(1.05604 0.180015 3.67206e-22)
(1.00821 -0.00266251 0)
(1.00734 -0.00210444 0)
(1.01012 0.00219571 1.36874e-23)
(1.01008 0.00217938 -3.88589e-23)
(1.01003 0.00208327 -3.94361e-23)
(1.0068 0.00203247 0)
(1.00605 0.00175645 1.37288e-22)
(1.00644 0.00265514 0)
(1.02485 0.0162742 -1.2078e-22)
(1.02449 0.0156754 7.40604e-23)
(1.01243 0.000555088 0)
(1.01143 0.000494541 9.69428e-24)
(1.01145 0.000499621 -2.15741e-22)
(1.02548 0.0159505 1.94535e-22)
(1.02514 0.0167155 -2.01687e-22)
(1.00462 0.00548129 0)
(1.00477 0.00562078 6.71491e-26)
(1.00454 0.00570169 0)
(1.01104 0.000691137 1.84845e-22)
(1.01132 0.000782892 2.31012e-22)
(1.02153 0.0118188 0)
(1.02136 0.0120171 0)
(1.15739 0.228667 3.2215e-21)
(1.15706 0.233506 9.69582e-21)
(1.01388 0.00918195 -2.3254e-22)