/*--------------------------------*- C++ -*----------------------------------*\
| =========                 |                                                 |
| \\      /  F ield         | OpenFOAM: The Open Source CFD Toolbox           |
|  \\    /   O peration     | Version:  v2012                                 |
|   \\  /    A nd           | Website:  www.openfoam.com                      |
|    \\/     M anipulation  |                                                 |
\*---------------------------------------------------------------------------*/
FoamFile
{
    version     2.0;
    format      ascii;
    class       volScalarField;
    location    "650";
    object      k;
}
// * * * * * * * * * * * * * * * * * * * * * * * * * * * * * * * * * * * * * //

dimensions      [0 2 -2 0 0 0 0];


internalField   nonuniform List<scalar> 
10042
(
0.0001474
0.000148219
0.000148401
0.000158427
0.0673489
0.000148351
0.0874464
0.022163
0.000147419
0.000147914
0.0251723
0.000158279
0.000144638
0.000144392
0.000151388
0.000148096
0.000148043
0.000149697
0.000147423
0.000171202
0.000147186
0.000160701
0.000145441
0.000145242
0.000148264
0.00016004
0.000148778
0.00015001
0.000147191
0.000149289
0.000148038
0.00662322
0.000147987
0.000149184
0.000155997
0.000145327
0.000159065
0.000164711
0.000145324
0.000157854
0.000172381
0.000150776
0.0881025
0.000148002
0.0669057
0.000176674
0.000149069
0.000188409
0.000157779
0.000176336
0.000149027
0.000150904
0.000150809
0.000152816
0.00015909
0.000148304
0.000147233
0.000148971
0.000149138
0.000150466
0.000148189
0.000147935
0.000156189
0.000148291
0.000148931
0.000149201
0.000148316
0.000165882
0.0467362
0.000147413
0.000152705
0.000173732
0.000148032
0.00015754
0.000148232
0.000145241
0.0717666
0.000147481
0.00015677
0.0839316
0.000157096
0.0547147
0.000148047
0.000150113
0.000148334
0.000149369
0.000147282
0.000182299
0.000147778
0.000147277
0.000149164
0.0506881
0.000150194
0.000150577
0.000149152
0.000147548
0.000147488
0.000147357
0.00015719
0.000147397
0.000149933
0.00017797
0.0454045
0.000149286
0.000149702
0.000165371
0.000147451
0.000147449
0.000147241
0.000144581
0.0001459
0.000146988
0.000154803
0.0420185
0.000148902
0.000147032
0.000147638
0.000147453
0.000147508
0.033607
0.000147746
0.0177645
0.000148131
0.000147821
0.000177984
0.000148047
0.0124429
0.000158147
0.000165074
0.000147227
0.000157244
0.000148111
0.031768
0.000200174
0.000147377
0.000168944
0.0224177
0.000149202
0.00018901
0.000184228
0.000149962
0.000147621
0.000149408
0.000185902
0.000149107
0.00014698
0.000170036
0.000145907
0.000147446
0.000153939
0.000147672
0.000149676
0.0644851
0.0350561
0.000149163
0.000144599
0.000149792
0.000147885
0.000168828
0.0141025
0.0212594
0.000187658
0.00014784
0.000147637
0.000148358
0.000148049
0.000165555
0.0160343
0.00614033
0.0394311
0.000151587
0.000146828
0.0319963
0.000173566
0.000160236
0.0970477
0.0297104
0.00014807
0.000167266
0.000160129
0.000150071
0.00970219
0.000148496
0.000157949
0.00015056
0.0364579
0.000204067
0.000148563
0.0264341
0.000153043
0.000305687
0.000149418
0.0653304
0.00743327
0.000184583
0.000624271
0.000155824
0.000147503
0.000144614
0.000151678
0.000159668
0.000148663
0.000146958
0.000174615
0.000148442
0.000146064
0.000361301
0.000148954
0.00014971
0.00014958
0.000359203
0.000148397
0.000164725
0.000187591
0.000149724
0.000205206
0.000148012
0.000147817
0.000172762
0.000146419
0.000154987
0.000150018
0.00019632
0.000165622
0.000153565
0.00016106
0.000132577
0.000147005
0.000192107
0.000153384
0.000147456
0.000172423
0.00014688
0.000153315
0.000148586
0.000154226
0.000146233
0.000144382
0.000152433
0.000158951
0.000147886
0.000148155
0.000148181
0.000154864
0.000147004
0.000148091
0.000145317
0.000149886
0.000152143
0.000149772
0.000144635
0.000147342
0.00015251
0.0002049
0.000187757
0.0211482
0.0001604
0.000160213
0.000151615
0.000178444
0.0926083
0.000151937
0.000147462
0.000144539
0.000151551
0.000146182
0.000232764
0.000153205
0.000147252
0.000149636
0.000160237
0.000152306
0.000185853
0.000160308
0.000186861
0.000153137
0.00015893
0.000146143
0.000156109
0.000149209
0.000160789
0.000147582
0.00016005
0.0358124
0.000146033
0.000147994
0.0916405
0.000176863
0.0001484
0.000148182
0.000152194
0.0987404
0.000172171
0.000186715
0.000149136
0.000144597
0.00014702
0.000147498
3.02109e-05
0.000147335
0.000148153
0.000146832
0.000148016
0.000166058
0.000151709
0.000170605
0.0812117
0.000150141
0.0620336
0.000146982
0.000155756
0.000148718
0.0143991
0.000178481
0.000238763
0.0281822
0.000145173
0.000153299
0.000147448
0.00015203
0.000161054
0.000149574
0.000160478
0.000145846
0.00014469
0.000148097
0.000171707
0.000149882
0.000152502
0.000147972
0.000151486
0.0342094
0.000147005
0.000149094
0.000147745
0.000148133
0.000164429
0.000184862
0.000160182
0.00826415
0.000166229
0.000157048
0.00014804
0.000144267
0.000149554
0.000149766
0.000330879
0.000147586
0.000149213
0.000195421
0.000146994
0.000152921
0.000150335
0.000197411
0.000148679
0.000153335
0.00016442
0.000160168
0.000151658
0.00014755
0.028479
0.000170301
0.000150241
0.000164164
0.000147545
0.000146903
0.000147528
0.000152925
0.000285132
0.000155856
0.000149629
0.000150043
0.000149943
0.000149787
0.000171413
0.000147529
0.000145937
0.0254588
0.000146764
0.0701461
0.000171092
0.000157857
0.0979484
0.0188369
0.000156169
0.0001728
0.000148968
0.000176735
0.000149936
0.000148818
0.00973324
0.00014831
0.000152398
0.000753192
0.00014923
0.000147197
0.000162469
0.000276598
0.000149022
0.000145763
0.00718077
0.000178561
0.000146808
0.000165898
0.00962137
0.000146418
0.000149737
0.00014578
0.000147122
0.000144448
0.000145947
0.049509
0.0397131
0.000148921
0.0773868
0.000144408
0.000147326
0.000228133
0.000149255
0.0637042
0.000173445
0.000150121
0.000145813
0.000145609
0.000175838
0.000151903
0.00015629
0.000149225
0.0280356
0.000149477
0.000840531
0.000151035
0.000147428
0.000147039
0.000222894
0.000147535
0.000153717
0.000147273
0.000148538
0.0112887
0.000155871
0.000147589
0.000146584
0.0103673
0.000147172
0.000156203
0.000151441
0.000146185
0.0684907
0.0963646
0.000147066
0.000148723
0.000156076
0.000144623
0.000147948
0.000147753
0.013725
0.00014788
0.000147012
0.000156368
0.0263695
0.000171492
0.00014977
0.000159813
0.0156448
0.00016768
0.000147629
0.000147576
0.000200484
0.000149974
0.000147468
0.000156318
0.0001477
0.00014593
0.000150289
0.000144989
0.000160698
0.000147441
0.000147566
0.0203468
0.000146224
0.000151366
0.000148322
0.000149054
0.000160588
0.000147091
0.000147981
0.000185993
0.00014957
0.0756823
0.000151815
0.000149868
0.000149831
0.000180652
0.000147553
0.000147624
0.000147921
0.000150576
0.000155622
0.0857162
0.000147205
0.000160627
0.000372358
0.000167634
0.000149716
0.000147701
0.000149548
0.000149291
0.000147038
0.0332744
0.019007
0.000148377
0.000158194
0.000161071
0.000160442
0.000148272
0.000145519
0.00431124
0.000175612
0.000316011
0.000145681
0.000149729
0.000149059
0.0001468
0.0498915
0.000161939
0.000150569
0.000147548
0.000147072
0.000148147
0.00647521
0.000155935
0.000148831
0.0103217
0.000231677
0.000192422
0.000165902
0.000147996
0.000147399
0.000180494
0.00016889
0.0431883
0.0223009
0.000152812
0.000153979
0.000149346
0.000152407
0.000148721
0.000149268
0.0228667
0.00014525
0.000146992
0.000176287
0.000149344
0.00395211
0.000151399
0.000192978
0.000157489
0.000149595
0.000152794
0.000156084
0.000171708
0.000165979
0.000168743
0.000149871
0.000176511
0.000150834
0.000147489
0.000148681
0.00014962
0.000148118
0.000153089
0.000171584
0.000160662
0.000148856
0.000149769
0.00014789
0.000147547
0.000171728
0.00014736
0.000151324
0.000183317
0.000144985
0.000168912
0.000187024
0.000148166
0.0327801
0.000168685
0.000149341
0.000205971
0.000148854
0.000149771
0.000147966
0.000147809
0.000149944
0.000153033
0.000148182
0.000215962
0.000149954
0.000147728
0.000149048
0.000160798
0.000163101
0.000147791
0.000154935
0.000147381
0.000164072
0.000147843
0.00015759
0.000146071
0.000150468
0.000145477
0.000147434
0.0828584
0.000145803
0.000170613
0.000147733
0.000151663
0.000146096
0.000163615
0.000148379
0.00016952
0.000148398
0.000200641
0.000149723
0.0897156
0.000145885
0.000151238
0.000149791
0.000148082
0.000147621
0.000152934
0.000148118
0.000170928
0.0102579
0.0021006
0.000153699
0.000159978
0.000146935
0.000161055
0.000176737
0.000147932
0.000156099
0.000169048
0.0455161
0.000187292
0.00161886
0.000156901
0.000148447
0.000149498
0.000155611
0.000153106
0.000169299
0.000145173
0.000151735
0.000185377
0.000149742
0.000147544
0.000155518
0.0662816
0.000151011
0.000159062
0.000180642
0.000149645
0.0845825
0.000145301
0.000146753
0.000149341
0.000147726
0.0164364
0.000179876
0.0607029
0.00014823
0.00051027
0.0298238
0.000481527
0.000168974
0.000178914
0.000191993
0.000162161
0.000147977
0.000147303
0.000156745
0.0152753
0.000146914
0.000156853
0.0716597
0.00014743
0.000147271
0.00014756
0.000150339
0.000147569
0.000148964
0.000180021
0.0124465
0.000148806
0.000147881
0.0302545
0.0627804
0.000146972
0.000147632
0.000148943
0.00014715
0.000231087
0.000179892
0.000184246
0.000149724
0.000147235
0.000147588
0.000150132
0.000148244
0.000163625
0.000149717
0.0794204
0.00014794
0.000148372
0.000163181
0.000146851
0.000166288
0.000165581
0.000152292
0.00429861
0.0545068
0.000148469
0.000147025
0.0742694
0.0205338
0.000160263
0.00014876
0.0250335
0.000175575
0.000153625
0.000147908
0.000147793
0.000147319
0.000190114
0.00015361
0.00016871
0.000149771
0.0363344
0.000275575
0.000147713
0.000147852
0.000170286
0.000148906
0.000146077
0.000153479
0.0453863
0.0457726
0.0792616
0.00015092
0.000175526
0.000161757
0.000145405
0.000148062
0.000149222
0.00018924
0.000149314
0.000147702
0.000175533
0.000148217
0.000172266
0.000148628
0.000148601
0.000145804
0.000148915
0.000198325
0.000149262
0.0001473
0.000167841
0.000164618
0.000187748
0.000149342
0.000178626
0.0597069
0.0773643
0.000150327
0.0152069
0.0141338
0.000147436
0.000144713
0.000149789
0.000150922
0.0427292
0.000151572
0.000148709
0.000149315
0.061669
0.000160778
0.000150701
0.00014885
0.000147626
0.000164774
0.000146175
0.000146951
0.000163104
0.000150146
0.0001493
0.00014728
0.000233984
0.000147964
0.000150047
0.000148077
0.00014918
0.00018534
0.00014929
0.000150506
0.000148361
0.000155186
0.000206164
0.000149941
0.000186449
0.000155005
0.0432783
0.000146148
0.000151729
0.000162851
0.000178414
0.000162535
0.000149693
0.00242269
0.0825507
0.000149513
0.000147362
0.000390452
0.000148409
0.000149643
0.000146199
0.000149575
0.000170596
0.000149948
0.000149949
0.000165521
0.000156958
0.000157128
0.000157586
0.000150023
0.0789751
0.000152385
0.000211116
0.000147108
0.0001761
0.000160742
0.0640041
0.000153744
0.0459314
0.000149777
0.00015738
0.000148132
0.000148287
0.000147602
0.000192135
0.000160517
0.000176039
0.016347
0.000148687
0.00024488
0.000157922
0.000147067
0.000157228
0.000160196
0.0528805
0.000147821
0.000155828
0.000163786
0.00015145
0.000160778
0.000149882
0.000144914
0.000149878
0.000185711
0.000148791
0.000147882
0.000146207
0.00014607
0.000147465
0.000147821
0.000149275
0.00014693
0.000148913
0.000149482
0.000153791
0.000157358
0.000147852
0.045825
0.00014789
0.000450698
0.000159777
0.0393907
0.000163672
0.000156995
0.00779464
0.000163531
0.000187757
0.082015
0.000164514
0.000149264
0.000146866
0.000150444
0.00018593
0.000147514
0.0448723
0.000147354
0.00522158
0.0906719
0.000179862
0.000151303
0.03061
0.0354224
0.000150789
0.000147799
0.000149735
0.000154812
0.000144848
0.000145721
0.000168094
0.00868172
0.000148404
0.000147477
0.000149252
0.000223197
0.000181155
0.00014895
0.000154251
0.000179996
0.000149397
0.000148064
0.0408645
0.000148911
0.00014732
0.000507094
0.000152088
0.000147936
0.00475021
0.0901082
0.0409521
0.000147535
0.000150741
0.000238829
0.000146224
0.000147604
0.000149886
0.000162446
0.000148184
0.000148625
0.000154008
0.000161631
0.000176491
0.000146496
0.000147818
0.000148409
0.000147411
0.000149578
0.000145073
0.000188664
0.000156843
0.000147822
0.000147833
0.00014638
0.000147679
0.000149784
0.0475059
0.000159798
0.000145737
0.000147523
0.000160665
0.0590365
0.000148169
0.000147725
0.000148081
0.00014563
0.000815856
0.000175734
0.000146829
0.000148303
0.00015947
0.000171882
0.000149047
0.000149874
0.000153232
0.000148561
0.000157053
0.000149149
0.0875853
0.000162069
0.00014835
0.000155449
0.0291982
0.000156005
0.000196436
0.000153959
0.000236083
0.000149788
0.000149954
0.000155006
0.000179373
0.000147489
0.000148314
0.000149587
0.00015143
0.000169607
0.000173854
0.0801491
0.000150908
0.000147776
0.000156356
0.000147882
0.000147884
0.0826284
0.000151736
0.000148192
0.000147826
0.000183514
0.000227374
0.000147764
0.000148376
0.000182468
0.000147761
0.000148578
0.000147625
0.000182277
0.000151389
0.000156995
0.00544642
0.000148894
0.000149037
0.0606427
0.000147228
0.000175495
0.00014723
0.000151768
0.000162768
0.000148016
0.000148473
0.00015034
0.00015241
0.00566407
0.000147483
0.000148799
0.000178098
0.000153784
0.00135694
0.0550662
0.000164533
0.000149359
0.00021008
0.000148281
0.0428379
0.000149033
0.000148163
0.000146827
0.0100018
0.000149359
0.000149082
0.00014898
0.000163895
0.0580456
0.000156654
0.000168115
0.000147548
0.000148799
0.000164184
0.000158002
0.000146777
0.000154605
0.00014735
0.0688121
0.03663
0.000148826
0.00015036
0.000149435
0.0772874
0.000148955
0.00923264
0.000147784
0.000147784
0.000146818
0.00014983
0.000153118
0.000149792
0.000147867
0.000148194
0.0168308
0.00018628
0.000147533
0.000154262
0.000154243
0.000162224
0.000147962
0.000153832
0.000150711
0.000147969
0.000150827
0.000163226
0.000149855
0.000147269
0.000154829
0.000147152
0.00018422
0.000151172
0.000177201
0.000148466
0.000148145
0.000148463
0.000184404
0.000162662
0.000146381
0.000154418
0.000178118
0.000149313
0.000146418
0.000154945
0.000149448
0.0107921
0.000180251
0.000153624
0.0175809
0.00015066
0.000164568
0.000180225
0.000161226
0.000165921
0.0082308
0.000162841
0.000192246
0.00014863
0.000151181
0.000147328
0.000147906
0.000156667
0.000146808
0.000176091
0.000147989
0.000148056
0.00016954
0.000147605
0.000174535
0.000158033
0.000154037
0.00014737
0.000161363
0.00349807
0.000143936
0.000162104
0.0499033
0.000160744
0.000147551
0.000162739
0.000147805
0.000146963
0.00675837
0.000146791
0.000146376
0.000170651
0.000147814
0.000158417
0.000147015
0.000147908
0.0863797
0.00014754
0.000145833
0.000153705
0.000147542
0.000145743
0.000149648
0.00344255
0.000148567
0.000148437
0.000145568
0.000182946
0.000149321
0.000153226
0.000147622
0.000159778
0.000149863
0.000147521
0.000150581
0.000148554
0.000146353
0.000173002
0.000164849
0.00015775
0.000151212
0.000166704
0.000178377
0.000155135
0.000155607
0.000150299
0.0756091
0.000147849
0.000148091
0.000147319
0.000149549
0.000159724
0.000147161
0.0619538
0.0290254
0.0314136
0.000148435
0.000153792
0.000162163
0.000145065
0.000167961
0.000164184
0.000240011
0.00017934
0.0451673
0.000178228
0.000213238
0.0406522
0.000156745
0.000151917
0.000154145
0.000146839
0.0493916
0.00015024
0.000156363
0.000146619
0.000153562
0.000148191
0.0322195
0.0550145
0.000149296
0.0134861
0.000227759
0.00015171
0.00016896
0.00017287
0.000145837
0.0499649
0.000147867
0.0663369
0.0254825
0.000149301
0.000147548
0.000147861
0.000151046
0.000155784
0.000163276
0.000198003
0.000148726
0.000148157
0.000154469
0.000149951
0.000148086
0.000154688
0.000146817
0.000148283
0.00503201
0.000172742
0.00014817
0.0822929
0.000152054
0.000149796
0.000151173
0.00020605
0.00014763
0.000146167
0.000184065
0.000185968
0.000147582
0.000154296
0.00026356
0.000171518
0.0379429
0.000146493
0.000203127
0.0501722
0.0781255
0.000148435
0.000147637
0.000177721
0.000154437
0.000163364
0.000149053
0.0593515
0.000170342
0.000195522
0.000148217
0.000147682
0.0137873
0.000221029
0.000148904
0.000149797
0.0439085
0.00014755
0.000145973
0.000148357
0.000152502
0.000149247
0.000156581
0.000148461
0.000153654
0.000145378
0.000163326
0.0137576
0.000168252
0.00016255
0.0290988
0.000176573
0.00014575
0.00014693
0.000147584
0.000149877
0.0001828
0.000156611
0.000149766
0.000147927
0.000147769
0.000145115
0.000158341
0.000145272
0.000162935
0.000154191
0.000148718
0.059242
0.027731
0.000148565
0.0793678
0.000159303
0.000161231
0.000149737
0.000145592
0.0210724
0.000176191
0.000147333
0.000146228
0.000147622
0.000156152
0.000149725
0.000200866
0.000144653
0.000148284
0.000148261
0.0509243
0.0476874
0.000145328
0.000148207
0.00017884
0.000196397
0.000152661
0.0859125
0.061808
0.000148208
0.000148848
0.000148556
0.000150544
0.0430888
0.000148148
0.000149886
0.000186749
0.000179604
0.000149357
0.000147641
0.000165749
0.000149881
0.000148384
0.000179185
0.000180339
0.0391974
0.000147726
0.000185175
0.000161032
0.000175024
0.000150667
0.000155885
0.000147526
0.000149457
0.000171339
0.00015434
0.000147903
0.000153658
0.0256605
0.000144982
0.000146828
0.000144992
0.000169807
0.000147563
0.00014845
0.000144041
0.000147572
0.000235408
0.0771628
0.000148804
0.0433845
0.0462394
0.0393896
0.000147544
0.000147865
0.000146765
0.000147352
0.000148668
0.000148903
0.000145323
0.000148421
0.000146367
0.000152358
0.0268663
0.000160725
0.00751217
0.000161694
0.000148087
0.000150782
0.000159794
0.000148682
0.000146928
0.000162735
0.000159421
0.000226366
0.000169004
0.000145149
0.0467113
0.000150136
0.000144622
0.00014759
0.000209467
0.000168883
0.000150112
0.000154747
0.000148364
0.000148513
0.000158094
0.000168393
0.000161266
0.0695209
0.000148441
0.000148042
0.000226618
0.000161629
0.000153722
0.000189424
0.000151835
0.000167704
0.000213774
0.000173944
0.00953294
0.000147246
0.000148046
0.000147464
0.000148206
0.000148517
0.000151266
0.000167258
0.000177753
0.0427704
0.000148364
0.0814648
0.0281052
0.000155973
0.0003141
0.000148787
0.000180079
0.0207496
0.000147259
0.000182763
0.000146134
0.000250786
0.000149252
0.000205456
0.000147068
0.000175633
0.000169254
0.0254954
0.000146867
0.000196455
0.000147089
0.0001519
0.000301853
0.00014681
0.00983649
0.0513071
0.0138655
0.0414091
0.00018416
0.0440121
0.000163963
0.000148021
0.000163687
0.000169218
0.0943555
0.000148395
0.000147951
0.000150529
0.000167419
0.000147908
0.000148823
0.000148795
0.0355276
0.0561175
0.000147606
0.0609882
0.000165845
0.000146027
0.0001624
0.000155589
0.0625655
0.000158285
0.000146848
0.000200366
0.000148362
0.000147441
0.000148474
0.000182886
0.000175122
0.000147546
0.000154825
0.000148628
0.000149712
0.000146442
0.0515684
0.000149895
0.000146556
0.0544924
0.000207198
0.000153617
0.000147382
0.0400471
0.000156152
0.000150991
0.000147787
0.000163788
0.000151862
0.000159031
0.000153394
0.0589097
0.000163887
0.000174742
0.000145015
0.000165708
0.000174384
0.000159842
0.000149223
0.082842
0.000149651
0.00020143
0.000147231
0.000149221
0.000165213
0.000202388
0.000152522
0.00015518
0.000148648
0.000160531
0.000176555
0.000186306
0.000156336
0.000149944
0.000147591
0.000155596
0.000185922
0.000147517
0.00016935
0.000147983
0.000147565
0.0299881
0.000147367
0.0538109
0.000147878
0.000154938
0.000180468
0.000147701
0.000159578
0.000190989
0.000182813
0.000147803
0.000185159
0.000150813
0.000149732
0.000147509
0.0248411
0.0673643
0.000147378
0.000147622
0.000146925
0.000146955
0.000182719
0.0710095
0.000147704
0.000231429
0.000146155
0.000146474
0.000147195
0.0187854
0.000150455
0.000151921
0.000147633
0.000147999
0.000147647
0.000149684
0.000149704
0.000161517
0.00312498
0.000146544
0.000147623
0.000160677
0.000174972
0.000146568
0.0626573
0.000170048
0.000146797
0.00014572
0.000150281
0.00018904
0.000146776
0.000183678
0.000157682
0.000154219
0.000146745
0.000169252
0.000144684
0.000173048
0.000155993
0.000149224
0.0718958
0.00525747
0.000143995
0.000147079
0.0151531
0.000185976
0.000179957
0.000155723
0.000183489
0.000145929
0.0563783
0.000182167
0.000148225
0.033794
0.0909898
0.000150925
0.000166533
0.000171853
0.000146795
0.0790444
0.000148675
0.000157777
0.000158822
0.000148883
0.000148179
0.000164189
0.000147051
0.000147085
0.000147034
0.00130141
0.000147235
0.000147403
0.00014673
0.000147174
0.000147307
0.00014949
0.000174759
0.000161571
0.000153519
0.000149633
0.000317141
0.000148944
0.000146859
0.000147312
0.000146807
0.000148452
0.000147638
0.000159873
0.000183787
0.000149444
0.000160736
0.000163195
0.000146898
0.000155955
0.0470608
0.000150363
0.000144916
0.000148419
0.000167154
0.000149289
0.000149292
0.000152913
0.00015336
0.0495822
0.0124147
0.000146667
0.000146902
0.000147522
0.00016648
0.000159021
0.00014682
0.00015589
0.000168499
0.000148641
0.000155136
0.000148784
0.000180333
0.000184203
0.000151766
0.000174384
0.000154807
0.035629
0.000149306
0.000147209
0.0594843
0.000171197
0.00015319
0.000204316
0.00016828
0.0171381
0.000162574
0.000201628
0.000156049
0.00015627
0.0165411
0.000155137
0.000495455
0.000162862
0.000182227
0.0298235
0.000149951
0.000148527
0.000147773
0.000193702
0.000144091
0.0120034
0.000166318
0.0208839
0.000150477
0.000170673
0.000195258
0.000147464
0.000148731
0.000166706
0.000158222
0.000148469
0.000157371
0.000167778
0.000178669
0.000176342
0.000188267
0.0204491
0.000180512
0.000148654
0.00014928
0.0658307
0.000166572
0.00015014
0.000161273
0.0419043
0.000149343
0.000154135
0.000147525
0.000156797
0.000148119
0.000148584
0.000159961
0.000148457
0.000156266
0.0249044
0.014617
0.000145959
0.000154066
0.000157708
0.000186378
0.000162613
0.000150023
0.000147362
0.000169674
0.00625077
0.000147512
0.000153348
0.000148551
0.0857463
0.000146936
0.00015893
0.0035175
0.00211051
0.000149796
0.000173256
0.000174803
0.000173304
0.000154025
0.000147979
0.0664439
0.000146826
0.000157801
0.000148832
0.000160627
0.000145975
0.000146562
0.000148843
0.000174792
0.000146911
0.000147688
0.000147208
0.000149436
0.000147038
0.000148341
0.000179746
0.028908
0.0551465
0.000155791
0.000148261
0.000157813
0.000152998
0.0453329
0.00014989
0.000175625
0.000145533
0.00014789
0.000150458
0.000162698
0.0711766
0.000147701
0.0278626
0.000149642
0.000144728
0.000151311
0.0809043
0.000151213
0.000161496
0.0548957
0.000149889
0.000148692
0.0123299
0.000147345
0.0365993
0.000148471
0.00016271
0.026072
0.000151501
0.000148533
0.000146863
0.0168904
0.000157574
0.000147117
0.000206358
0.000147655
0.000151354
0.000178082
0.0431105
0.000178838
0.0485399
0.0108427
0.000167516
0.00015154
0.000176677
0.00020071
0.000148155
0.000147245
0.000150472
0.000159293
0.000167095
0.000147857
0.000153679
0.000147235
0.000147645
0.0515276
0.000149453
0.0264722
0.000145436
0.000165481
0.000180984
0.000146641
0.000144688
0.0438261
0.054235
0.000172465
0.000148423
0.000154057
0.000178419
0.000146345
0.000165287
0.00018207
0.000167702
0.00015997
0.0242374
0.0318709
0.000144739
0.000148784
0.000145442
0.000149229
0.000152015
0.00016012
0.00958665
0.000148691
0.000147711
0.000173798
0.0270714
0.000145543
0.000381487
0.000146295
0.000188254
0.000173797
0.0752881
0.000183298
0.000164064
0.000164355
0.00014529
0.000144592
0.000200145
0.00015454
0.000148469
0.000285802
0.000146893
0.000148447
0.0001454
0.000170318
0.000181197
0.000227286
0.000173013
0.000159743
0.000158028
0.000149413
0.0406632
0.000375276
0.000151065
0.000147775
0.000147098
0.000188258
0.0752422
0.000160258
0.0766814
0.000150399
0.000146774
0.0336996
0.00014775
0.0527016
0.0633478
0.000146426
0.000158481
0.0148126
0.00015256
0.000159987
0.000147133
0.0426253
0.000157456
0.000175709
0.0105686
0.0303799
0.000159407
0.000161192
0.000148805
0.000183492
0.0501347
0.000152468
0.00015364
0.0415864
0.00016319
0.000166346
0.000149739
0.078115
0.0133774
0.000168749
0.000147843
0.0001577
0.000147167
0.000344899
0.000178213
0.000162459
0.0666549
0.0333728
0.000145406
0.000190525
0.000148559
0.00651362
0.000168947
0.000159002
0.000156607
0.000276612
0.0001438
0.000180564
0.0129604
0.0483252
0.000150955
0.000148063
0.000146446
0.000169939
0.000937449
0.000190044
0.0486993
0.000190367
0.000165071
0.000147255
0.0401964
0.00018024
0.00015678
0.00017784
0.00620941
0.0286644
0.019774
0.0310008
0.0320447
0.0198683
0.000148283
0.00015635
0.000161469
0.000149131
0.0356093
0.000276833
0.000147983
0.0808654
0.00014876
0.000147867
0.000146304
0.000161331
0.00014702
0.0344477
0.000164491
0.000542229
0.000147807
0.000227283
0.000162975
0.000243714
0.0165454
0.00015175
0.000158898
0.00016172
0.000165364
0.000147142
0.000146576
0.000147138
0.0311566
0.000146423
0.000147058
0.00191043
0.000152976
0.0481952
0.000148154
0.0512823
0.000147664
0.000148258
0.000147832
0.000147939
0.000159188
0.00015346
0.0518229
0.000157805
0.000168588
0.0645142
0.00014709
0.063234
0.000146594
0.0580025
0.0968811
0.0512051
0.000176467
0.000147921
0.000149799
0.0739606
0.000149577
0.000157915
0.000148633
0.000161613
0.0571593
0.000147054
0.000146884
0.00014727
0.000149745
0.0441372
0.0704021
0.000147247
0.000144068
0.0378751
0.0774656
0.000147001
0.0973622
0.000149738
0.0717324
0.0518658
0.000181114
0.000193968
0.000215323
0.000167897
0.0293473
0.000185344
0.000147969
0.000145046
0.000146417
0.0648901
0.0769608
0.000150927
0.000155901
0.0302571
0.000146974
0.0237244
0.000148213
0.000149083
0.000145941
0.00808253
0.000183013
0.000146871
0.0375698
0.000149657
0.0669519
0.0757506
0.000146716
0.000148625
0.000186772
0.000147676
0.000149059
0.000146697
0.0680731
0.000158301
0.000148061
0.000148764
0.0788051
0.000147794
0.000162691
0.000147823
0.046379
0.000148556
0.000172851
0.000161434
0.0376953
0.0804142
0.00015971
0.000185751
0.000173645
0.000148384
0.000170436
0.0470558
0.00014703
0.00018047
0.000146341
0.000226967
0.000147262
0.0527594
0.083777
0.00017048
0.0291355
0.038732
0.00016061
0.000151288
0.00103675
0.000147365
0.0541471
0.000153691
0.000291156
0.000147312
0.000158819
0.000167025
0.000157348
0.000148446
0.000147877
0.000149237
0.0124018
0.000176553
0.0322383
0.0452324
0.000155405
0.000145555
0.000165008
0.0480759
0.000159073
0.000147205
0.00014841
0.0045685
0.00560117
0.0326483
0.0235656
0.000163673
0.000148938
0.000146414
0.000171733
0.00016914
0.000280618
0.000147908
0.000148348
0.00904627
0.000174484
0.000149893
0.000178192
0.000282657
0.00018411
0.000146635
0.000163352
0.000226928
0.00029205
0.0827536
0.000211608
0.000147272
0.000149774
0.000150512
0.00014989
0.000147901
0.00014849
0.000159301
0.000178479
0.000162421
0.000159739
0.000157234
0.00014918
0.000154436
0.000151366
0.000160243
0.000158835
0.000147127
0.000157233
0.000147471
0.000146758
0.000149616
0.000148695
0.000202081
0.000145709
0.000167734
0.000268758
0.000645331
0.0560043
0.0285035
0.000154244
0.000149533
0.000147244
0.0686731
0.00014897
0.000144424
0.00014908
0.0786127
0.000157849
0.000162979
0.000241798
0.000151249
0.000148111
0.000158495
0.00014708
0.000163482
0.000149893
0.000159786
0.000146859
0.000147672
0.000150709
0.000151459
0.000156433
0.000254922
0.000167018
0.000174402
0.00017297
0.000192197
0.000166107
0.000174723
0.000148766
0.0267073
0.000152625
0.000154905
0.000147709
0.000151558
0.000175894
0.000147815
0.000167868
0.00549996
0.000156385
0.000187487
0.000179046
0.000165014
0.000169495
0.000166678
0.000147563
0.000157915
0.000148488
0.000172393
0.000167549
0.0657189
0.000146352
0.000167184
0.00015446
0.0449579
0.0192674
0.000169126
0.000148539
0.000169447
0.000144974
0.000176688
0.000150357
0.0569309
0.000145789
0.000153977
0.000148005
0.000161125
0.000193881
0.000159111
0.0394346
0.000148156
0.000164078
0.000166701
0.000148001
0.0647028
0.0692883
0.000193772
0.000178204
0.000168376
0.000148042
0.000147331
0.0572048
0.000177354
0.000146931
0.000151027
0.000153124
0.000147525
0.000206764
0.000146867
0.0623076
0.000186175
0.000192636
0.000162175
0.000149099
0.000145738
0.000147746
0.000182246
0.000167569
0.000154657
0.0261991
0.000149077
0.00015074
0.000155206
0.0826806
0.000145247
0.0111809
0.000143788
0.0537481
0.000147267
0.0001473
0.000159873
0.000147731
0.000148799
0.000188242
0.000148341
0.000149031
0.000147331
0.000166306
0.000154522
0.0416301
0.000147859
0.000148411
0.000146796
0.000189399
0.000146604
0.000156075
0.000168806
0.0736136
0.0683635
0.000477889
0.000209545
0.000209549
0.000165357
0.000165982
0.000155104
0.000149643
0.000148696
0.0607401
0.000164975
0.000144734
0.000147683
0.000147548
0.000158774
0.000173409
0.000149648
0.000156906
0.000186767
0.000196063
0.000174467
0.00014768
0.000149549
0.0566325
0.00015359
0.000146095
0.0726383
0.0788266
0.000146193
0.000144239
0.000155213
0.000148254
0.000159781
0.000149627
0.0927741
0.000149799
0.0422329
0.000148159
0.011383
0.000158744
0.000147765
0.00017975
0.000145591
0.000149194
0.000149742
0.0001616
0.000225647
0.000147234
0.00019446
0.000149895
0.000149267
0.00017044
0.000147452
0.00014875
0.000148562
0.000144432
0.000147864
0.000145067
0.000149023
0.0372626
0.000146938
0.000147238
0.000165886
0.000145767
0.000147552
0.000149029
0.000149075
0.082171
0.00018805
0.000148421
0.000152188
0.000148653
0.000149894
0.000181565
0.000148223
0.000147735
0.00865773
0.00014765
0.000168883
0.000178677
0.00016108
0.000148308
0.000204005
0.000147565
0.00014453
0.000165504
0.000148419
0.0706842
0.0343674
0.000155748
0.000172184
0.000147207
0.000147246
0.000162661
0.000208039
0.000147194
0.000146864
0.000149223
0.000165215
0.000148578
0.000161182
0.000148628
0.000168176
0.00505601
0.000161714
0.000191655
0.000147199
0.000156896
0.000156937
0.000161895
0.000145939
0.00014749
0.000150584
0.000160482
0.000167005
0.000149187
0.000190336
0.000148763
0.0577268
0.000144816
0.000146388
0.000175467
0.000149792
0.000179578
0.000187502
0.000162066
0.000149066
0.000150595
0.00014876
0.000162385
0.000148355
0.000163953
0.000156722
0.000148599
0.000146208
0.000155624
0.0803957
0.000159805
0.000164404
0.0760849
0.0789014
0.000162239
0.000144968
0.055348
0.000147854
0.000152998
0.000149323
0.000186367
0.000148287
0.000160686
0.000155652
0.000151577
0.0001487
0.000154338
0.000149269
0.000175081
0.000147487
0.000149162
0.000147917
0.000157405
0.0254872
0.000148111
0.0164845
0.00016755
0.000144346
0.0829111
0.001334
0.000148212
0.000152408
0.00018771
0.000146734
0.000147482
0.0580523
0.000148021
0.0519023
0.000153676
0.0001535
0.000149928
0.000150844
0.000147629
0.000148112