/*--------------------------------*- C++ -*----------------------------------*\
| =========                 |                                                 |
| \\      /  F ield         | OpenFOAM: The Open Source CFD Toolbox           |
|  \\    /   O peration     | Version:  v2012                                 |
|   \\  /    A nd           | Website:  www.openfoam.com                      |
|    \\/     M anipulation  |                                                 |
\*---------------------------------------------------------------------------*/
FoamFile
{
    version     2.0;
    format      ascii;
    class       volVectorField;
    location    "650";
    object      U;
}
// * * * * * * * * * * * * * * * * * * * * * * * * * * * * * * * * * * * * * //

dimensions      [0 1 -1 0 0 0 0];


internalField   nonuniform List<vector> 
10042
(
(0.99508 0.0123584 0)
(0.997957 0.00388301 0)
(1.03964 0.0208543 -1.16161e-21)
(1.01018 7.18588e-05 7.99023e-22)
(0.658865 0.0718738 5.15572e-20)
(0.998702 0.00357265 3.34642e-21)
(0.315284 -0.0498277 -4.88033e-20)
(1.08805 0.030438 1.29005e-19)
(1.03236 0.0186406 -1.30392e-21)
(1.00135 0.00505071 2.59303e-21)
(-0.169717 -0.00658752 5.23143e-20)
(1.0156 9.40929e-05 -6.0634e-22)
(1.01762 0.00267543 -1.73954e-21)
(1.01788 0.00111202 1.06966e-21)
(0.954147 0.051134 -4.54128e-20)
(0.999026 0.00532194 -3.84093e-21)
(0.998938 0.00574552 1.07357e-20)
(1.00003 0.000356112 0)
(0.995252 0.0119002 0)
(0.675681 0.271077 -5.80625e-20)
(1.00408 0.00635472 3.28076e-21)
(1.19434 0.0336507 3.2945e-20)
(1.01666 0.000593176 5.962e-22)
(1.01583 0.00521347 0)
(0.998073 0.00352355 1.67821e-20)
(1.09215 0.0464338 2.07305e-20)
(0.998691 3.25148e-05 4.49693e-21)
(0.989113 0.0557505 6.0891e-22)
(1.02101 0.0257724 6.49883e-22)
(0.997578 0.0506277 6.60609e-21)
(0.996091 0.00235404 1.06151e-20)
(-0.147277 0.0131959 -1.19137e-19)
(1.00131 0.00470182 -4.41594e-21)
(1.01598 0.0482536 2.47605e-21)
(1.06059 0.0700295 0)
(1.01538 0.00536744 0)
(1.08766 0.0480975 -1.80554e-20)
(1.1087 0.0310441 3.02633e-20)
(1.01505 0.00500917 -1.32054e-21)
(0.992158 0.119742 -4.03869e-21)
(0.647493 0.263935 1.26255e-19)
(0.962772 0.0514107 0)
(0.280543 -0.0511304 -9.50639e-20)
(0.989608 0.0329334 -1.28368e-20)
(0.66565 0.0721593 -1.01747e-19)
(1.1435 0.0402214 0)
(0.972602 0.0354652 0)
(1.16675 0.0182466 7.75613e-21)
(1.07799 0.0560105 0)
(1.13456 -0.00123842 -2.4445e-20)
(1.00039 0.000444371 1.02388e-20)
(1.05264 -0.003386 -8.11859e-21)
(0.954301 0.0395863 0)
(1.06268 0.000664945 -5.459e-21)
(1.08661 0.050204 -1.89623e-20)
(0.998709 0.00384147 1.98763e-21)
(1.02195 0.0259381 -8.89197e-23)
(0.973338 0.0342942 -4.05865e-22)
(1.01689 0.0469201 0)
(0.956714 0.0399438 0)
(0.997092 0.00275578 -9.89351e-21)
(0.996336 0.00514874 -1.02302e-20)
(1.06071 0.0730686 0)
(1.03848 0.020911 0)
(0.963091 0.0144328 4.97942e-20)
(1.01993 0.0465868 0)
(0.971701 0.010932 0)
(0.725539 0.185255 1.1005e-19)
(-0.0513326 -0.0182411 1.697e-19)
(0.998335 0.0285793 -4.41428e-21)
(1.06212 -0.000833737 1.00823e-20)
(0.63109 0.274675 -1.52316e-19)
(0.98832 0.0325903 2.03485e-20)
(0.85728 0.0597735 0)
(0.973019 0.00747654 1.10116e-20)
(1.01618 0.00552547 0)
(0.548071 0.0481912 -1.76232e-20)
(0.995172 0.0108515 -1.33763e-20)
(0.894529 0.0829056 -3.48366e-20)
(0.253274 -0.0502384 5.67763e-20)
(1.0757 0.0546279 -1.85693e-20)
(0.850284 0.109143 1.60309e-19)
(1.00424 0.0382912 8.17496e-21)
(0.966119 0.0450073 -4.35075e-21)
(0.971561 0.00978352 -5.23797e-21)
(1.00004 0.00118018 0)
(0.995575 0.0144204 -7.64202e-23)
(1.12393 0.254646 -2.7099e-20)
(0.983754 0.0209745 0)
(0.996021 0.0145423 1.26627e-20)
(1.03181 0.0388356 0)
(0.876226 0.116452 0)
(0.9899 0.0578404 9.66466e-21)
(1.05129 -0.00263143 0)
(0.996622 0.0489475 1.27838e-20)
(1.0139 0.0324124 0)
(0.998472 0.0105094 1.84192e-20)
(1.008 0.0306837 0)
(0.992674 0.11616 -4.42706e-21)
(1.02714 0.0243469 0)
(0.999993 7.48525e-05 -6.53091e-21)
(1.13195 0.201611 0)
(0.956794 0.010649 -6.11805e-20)
(1.00005 0.00128461 0)
(0.983333 0.0507581 1.10048e-20)
(1.02318 0.201156 0)
(0.9926 0.0112446 1.94115e-20)
(0.99852 0.0110119 -1.43012e-20)
(1.00393 0.00596908 3.45612e-21)
(1.02531 0.00131433 -1.17706e-21)
(1.01105 0.00146261 -3.26422e-21)
(1.00295 0.0233269 0)
(1.02815 0.0867572 -1.61328e-21)
(-0.0735889 -0.0157582 0)
(0.964242 0.013564 -4.54506e-20)
(1.00025 0.0214251 0)
(0.990541 0.0040055 0)
(0.994969 0.0113408 7.68454e-21)
(1.01466 0.0316635 2.84062e-21)
(-0.0106766 0.0240841 1.26039e-19)
(0.984017 0.0200825 0)
(1.11157 0.0340907 -6.19333e-20)
(0.992762 0.0364927 -1.41738e-20)
(0.993503 0.00139067 0)
(1.13166 0.194459 -4.37832e-20)
(1.00327 0.0388359 1.00729e-20)
(1.15418 0.0455743 -6.14436e-20)
(1.07405 0.0706566 -1.77988e-20)
(1.0163 0.197501 2.45894e-21)
(0.99657 0.0155674 -6.64657e-21)
(0.891632 0.0884816 4.05209e-20)
(0.977187 0.0193637 1.72311e-20)
(-0.128256 0.00219042 -8.21202e-20)
(1.1961 0.0779774 8.90414e-20)
(1.02615 0.0244409 -1.64378e-22)
(1.07946 0.179632 3.22139e-20)
(-0.109577 0.0186342 1.86392e-19)
(1.03162 0.0403526 1.13234e-21)
(1.169 0.0201972 0)
(1.13087 0.261728 -3.14714e-20)
(0.977053 0.0509674 2.00278e-20)
(0.990055 0.00400059 0)
(0.978815 0.0450721 1.22177e-20)
(1.16697 0.172693 -5.86215e-20)
(1.04532 0.00138386 4.81398e-21)
(1.0027 0.0227788 0)
(1.10025 0.153803 -4.38115e-20)
(1.0309 0.00248628 0)
(1.00782 0.0317337 -6.8424e-21)
(1.00234 0.0887303 -1.52985e-20)
(1.0352 0.0177776 6.95283e-23)
(1.00003 0.000143143 2.21413e-22)
(0.0281258 -0.044721 7.49667e-20)
(-0.0442339 0.0158943 -1.217e-19)
(0.999471 0.000271203 0)
(1.01755 0.00235075 1.8054e-21)
(0.950644 0.00714507 0)
(0.99603 0.00528263 9.77486e-21)
(1.07758 0.185608 -3.45626e-20)
(-0.0964962 0.0242596 1.20896e-19)
(-0.16451 -0.00498913 0)
(1.17936 0.089549 -1.88607e-20)
(0.994924 0.00368094 7.27198e-21)
(1.03449 0.0185255 9.4232e-23)
(1.00771 0.041586 0)
(0.978059 0.0184179 -1.53874e-20)
(0.934519 0.242144 -1.35801e-20)
(0.278895 0.179055 -1.73592e-19)
(-0.159257 0.0164377 0)
(-0.00779441 0.0153172 6.52719e-20)
(1.05833 0.00510019 -2.29505e-21)
(1.0047 0.0136031 0)
(1.05556 0.163133 -6.64554e-21)
(0.678282 0.323205 8.95041e-20)
(0.898127 0.150252 0)
(0.170371 -0.043425 -7.14253e-20)
(-0.103876 0.0229597 -1.33046e-19)
(0.991076 0.0348035 -1.4174e-20)
(0.711178 0.203959 8.71784e-20)
(1.04718 0.113592 1.45854e-20)
(0.948082 0.00755419 -1.31555e-22)
(-0.133212 0.00984365 -8.93178e-21)
(0.970324 0.0133675 -2.09651e-20)
(1.07148 0.0712035 1.37581e-20)
(0.962999 0.0485976 0)
(0.018601 0.0278142 -7.5105e-20)
(1.20078 0.100856 -3.28962e-20)
(1.0181 0.0414263 -2.24293e-21)
(-0.137461 -0.0121602 -2.25276e-22)
(1.05264 0.0535884 1.86988e-21)
(0.741577 0.728031 0)
(0.976836 0.0443115 2.90755e-22)
(0.0186963 -0.0460446 0)
(1.22083 0.196781 5.30512e-21)
(1.16926 0.0653906 -6.55548e-20)
(1.28362 0.168531 0)
(1.07312 0.0452626 0)
(0.993625 0.0100561 1.54949e-20)
(1.01717 0.00217467 6.47927e-22)
(1.02279 0.0666666 -7.44384e-22)
(0.877756 0.132206 2.45175e-20)
(1.0191 0.0420614 1.30356e-21)
(1.00453 0.0235595 4.91199e-21)
(0.701381 0.345538 -1.16022e-19)
(0.970155 0.0120365 2.27049e-20)
(1.01934 0.0146769 3.10721e-21)
(0.819554 0.763939 0)
(0.999158 0.000549834 0)
(1.00003 0.000408612 -7.6455e-21)
(0.99988 0.000463709 -1.72454e-22)
(1.25576 0.169128 0)
(1.01751 0.000369736 0)
(0.930098 0.231488 7.04743e-21)
(1.0179 0.412676 2.12484e-20)
(0.95244 0.00917366 0)
(1.20379 0.103634 4.91413e-21)
(0.976596 0.00676944 -1.79027e-20)
(0.999661 0.0071284 0)
(1.12232 0.142526 -2.29496e-20)
(1.00983 0.0160635 -5.00669e-21)
(1.03121 0.0875997 0)
(0.949233 0.0154357 2.65203e-20)
(1.10419 0.369081 0)
(1.11151 0.0306467 1.76483e-20)
(0.937181 0.0648015 0)
(1.09641 0.0440334 2.5583e-20)
(1.21215 0.0695873 -8.29683e-20)
(1.00146 0.0221395 1.61306e-20)
(1.18801 0.107231 0)
(1.06414 -0.00237154 -1.4725e-20)
(1.03328 0.0180656 1.87473e-21)
(0.809239 0.355415 3.23647e-21)
(1.00426 0.0131744 6.49677e-21)
(1.06369 -0.0038588 -2.49797e-20)
(1.04025 0.0218676 7.0617e-22)
(1.00469 0.0910016 0)
(1.01729 0.0165564 -2.46022e-21)
(1.01839 0.000703349 4.93859e-22)
(1.05926 0.0343305 7.69368e-21)
(1.08449 -0.00547404 4.94295e-22)
(0.99489 0.00331844 -1.36809e-20)
(0.99137 0.0362692 -5.18801e-22)
(1.00776 0.0400848 0)
(1.02677 0.0895701 -4.54054e-22)
(1.00069 0.0208398 5.83031e-21)
(0.996305 0.00251898 -1.52497e-20)
(1.01458 0.00119883 0)
(0.983727 0.0530372 1.18274e-20)
(1.06022 0.00246434 9.47334e-21)
(1.00002 0.000269499 -7.63641e-22)
(1.01703 0.0013828 6.36548e-22)
(0.999027 0.0277912 7.57273e-21)
(0.984054 0.077722 1.54955e-20)
(1.11694 0.378809 0)
(1.17885 0.0929871 -2.16587e-20)
(-0.145801 -0.00757399 -5.34844e-20)
(0.890502 0.153997 0)
(0.913262 0.152143 -5.39543e-20)
(0.953307 0.0539479 2.62463e-20)
(1.14977 0.0426101 -3.5165e-20)
(0.354641 -0.045026 -1.0196e-20)
(1.05734 0.0335565 -2.82573e-21)
(0.992791 0.0107336 -8.11988e-21)
(1.01817 0.000725523 0)
(1.0208 0.065782 9.26848e-22)
(1.01694 0.015912 1.75983e-21)
(1.20924 0.0340735 -7.38747e-21)
(1.0664 0.0145573 -9.66981e-21)
(0.996063 0.0153533 0)
(0.999929 0.000434644 -3.49081e-22)
(0.867815 0.132723 0)
(1.06176 0.00216833 0)
(1.02853 0.39795 -4.24049e-20)
(0.906171 0.156094 3.62119e-20)
(1.15199 0.230587 0)
(1.05284 0.0556088 0)
(1.08423 -0.0077949 0)
(1.01587 0.0153551 0)
(1.07912 0.0251262 7.32202e-22)
(1.04633 0.0019962 -7.56902e-21)
(1.04975 0.116701 -1.55485e-20)
(0.988218 0.0220558 -9.23159e-22)
(1.09084 0.0487293 2.17249e-20)
(-0.0969481 0.00340536 7.02182e-20)
(1.01878 0.0142893 -4.22743e-21)
(1.0351 0.0229526 -6.69088e-21)
(0.402091 -0.0442871 0)
(1.14575 0.0425354 7.48382e-21)
(1.01816 0.0402168 2.84975e-21)
(0.996861 0.00233495 -8.97741e-21)
(0.985256 0.0748533 -2.52505e-20)
(0.159126 -0.0393649 -5.38534e-20)
(1.12926 0.0911499 3.33295e-20)
(1.17185 0.170464 0)
(1.00033 0.000362938 -1.07687e-20)
(1.01721 0.00186292 -2.72233e-21)
(1.00178 0.022783 7.2457e-23)
(1.03248 0.0195615 9.15872e-23)
(1.21148 0.0664354 -8.93576e-20)
(0.992851 0.0188899 -2.35634e-21)
(0.997069 0.00313314 1.02241e-20)
(1.00428 0.0149312 -1.85452e-21)
(0.97666 0.00553374 0)
(1.11288 0.0212626 1.37688e-20)
(0.960978 0.0615007 -1.58651e-20)
(1.06607 0.231262 2.43935e-20)
(0.417824 -0.00190604 5.78008e-21)
(0.958423 0.0375271 -2.35188e-20)
(0.847267 0.0384189 0)
(1.00067 0.0194823 -1.15954e-20)
(1.07737 0.0248401 -5.98433e-22)
(0.99849 0.000130643 1.60988e-21)
(-0.211052 0.00823983 7.84934e-21)
(1.13793 0.183819 2.0856e-20)
(1.25681 0.215951 1.42409e-19)
(-0.103552 0.0325846 9.88924e-20)
(1.01707 0.00571866 -1.37542e-21)
(1.0674 0.0136504 1.0118e-20)
(0.998695 0.0295343 -4.80667e-21)
(0.970581 0.0695496 -1.9981e-20)
(1.09525 0.0464879 -1.40365e-20)
(1.00001 0.000736268 0)
(1.03684 0.125424 -9.50718e-21)
(1.01144 0.0015145 -3.52125e-21)
(1.01869 0.000443591 0)
(0.989782 0.0345441 7.75509e-21)
(1.07017 0.238368 -2.60104e-20)
(0.999989 0.000183846 0)
(1.05037 0.0523304 -1.34416e-21)
(0.978588 0.016241 1.85631e-20)
(0.963419 0.060101 -1.13466e-20)
(-0.0943812 0.000905151 -1.40755e-19)
(1.00029 0.0201137 1.22101e-20)
(0.999352 0.000310064 1.34108e-20)
(1.00247 0.001807 -5.99225e-21)
(1.03803 0.0196142 0)
(1.0524 0.156141 1.53807e-20)
(1.17104 0.0637053 7.21814e-20)
(0.9214 0.156586 1.79766e-20)
(1.19321 0.0863353 0)
(1.11296 0.0239239 -4.89874e-20)
(1.06871 0.0693076 0)
(0.977639 0.0169578 1.02237e-20)
(1.01812 0.00105467 -2.07167e-22)
(1.03677 0.0382783 -2.60786e-21)
(1.00002 0.000296736 0)
(1.23107 0.0955667 -4.27302e-20)
(0.988516 0.022716 0)
(1.01874 0.0475759 0)
(1.1727 0.00379686 0)
(1.00379 0.0239084 -5.19208e-21)
(0.97391 0.0771015 -1.52726e-20)
(0.965629 0.0475967 -1.32289e-20)
(1.17484 0.00539652 -2.44692e-20)
(1.04407 0.0127831 3.09166e-21)
(0.93897 0.0622843 0)
(1.01682 0.190424 0)
(1.03261 0.124295 -1.30188e-21)
(1.0263 0.0642395 -5.08242e-24)
(0.992719 0.00898319 8.01996e-21)
(1.07397 0.0703186 6.61813e-20)
(1.10515 0.153288 6.63666e-20)
(1.05189 0.0199631 5.56811e-21)
(1.05391 0.150719 -6.13526e-21)
(1.00054 0.00911402 2.41739e-24)
(1.00427 0.0126715 -6.39495e-21)
(1.00077 0.00908647 0)
(0.970837 0.0771068 1.67836e-20)
(1.2255 0.219476 6.3977e-20)
(1.07549 0.00311834 0)
(1.00002 0.000646016 8.44356e-21)
(0.960652 0.0379409 0)
(1 7.90127e-05 0)
(0.999983 0.000347401 0)
(0.692706 0.289371 0)
(0.993438 0.00957337 -1.54558e-20)
(1.02596 0.0108521 1.62575e-21)
(-0.0880031 0.0184364 -1.79115e-19)
(1.00622 0.00897384 -2.66344e-21)
(0.766025 -0.0148405 5.72258e-20)
(1.23387 0.0918902 1.73165e-19)
(0.857115 0.0673055 0)
(0.0679074 -0.0281733 -5.45297e-20)
(-0.142769 -0.00527435 0)
(0.994504 0.106776 -5.74851e-21)
(0.787473 0.352001 -3.99243e-20)
(0.999126 0.000252214 1.95426e-20)
(1.13723 0.000752992 3.0432e-20)
(0.999998 0.000100036 -4.85426e-23)
(0.972967 0.0309993 0)
(1.1563 0.00715761 8.71731e-22)
(0.999945 0.00421066 2.59189e-21)
(0.967977 0.0712539 9.93657e-21)
(0.589354 0.926169 0)
(1.0163 0.000521571 0)
(1.00392 0.00659383 -4.32947e-21)
(0.770773 0.109268 0)
(0.776884 0.664011 4.33095e-21)
(1.01955 0.0448959 1.44747e-21)
(1.03011 0.00337881 0)
(-0.144266 0.0129063 1.47685e-19)
(1.13857 0.190689 1.08969e-20)
(1.00471 0.0141452 -8.14781e-22)
(0.720838 0.169971 -1.01151e-19)
(-0.123019 0.00249219 1.0851e-19)
(1.01032 0.0163074 6.06951e-21)
(1.00001 0.000461231 0)
(1.02156 0.0117028 4.81802e-22)
(0.99774 0.0175096 0)
(1.01865 0.000553279 -2.64578e-23)
(1.01876 0.0134606 0)
(0.961727 0.0482841 -5.42626e-20)
(0.980144 0.0156641 0)
(0.972163 0.0323022 1.36819e-20)
(0.583614 0.0240995 0)
(1.01765 0.000951483 -9.1841e-22)
(0.993039 0.0180493 1.03107e-20)
(1.20453 0.247494 -2.92624e-20)
(1.04613 0.0183957 1.52802e-21)
(0.807411 -0.00742568 6.2279e-20)
(1.13343 0.0920796 0)
(0.964243 0.0435619 1.49425e-20)
(1.02727 0.00860106 0)
(1.02938 0.00350888 0)
(1.03227 0.325034 4.46138e-20)
(1.05999 0.00464622 0)
(0.990142 0.107798 1.30713e-20)
(0.990396 0.0484933 0)
(-0.156185 -0.00893898 -5.06297e-20)
(0.954737 0.00855424 -1.81903e-20)
(1.28889 0.222551 0)
(0.957372 0.0507737 4.18208e-20)
(1.00232 0.00796444 5.77971e-21)
(1.00059 0.0221075 0)
(1.16828 0.334813 -5.18883e-20)
(1.00184 0.00758526 -1.59223e-21)
(0.907481 0.0199357 0)
(0.995565 0.0226683 -2.45537e-22)
(1.04297 0.012786 -5.1479e-21)
(-0.118947 0.0261437 -1.31691e-19)
(1.07188 0.0495137 -6.97131e-21)
(0.990039 0.00563661 7.76555e-23)
(1.01172 0.000949152 2.81535e-21)
(-0.173867 0.0189807 -1.12699e-19)
(0.997109 0.0165501 3.28206e-21)
(1.07287 0.0513059 1.80167e-20)
(1.01641 0.0664271 2.72868e-21)
(1.01622 0.0159194 0)
(0.748694 0.0460783 0)
(0.0716036 -0.0358382 0)
(1.00463 0.00782831 -5.86364e-21)
(0.966191 0.0140154 2.79654e-20)
(1.0771 0.00438401 0)
(1.01693 0.00161943 1.67703e-21)
(0.999049 0.00647221 0)
(0.992565 0.000477174 -2.28894e-22)
(-0.167258 0.0163725 0)
(0.994085 -5.61541e-05 3.87038e-22)
(1.01782 0.000476323 0)
(0.960855 0.108462 0)
(1.06225 0.0221531 0)
(1.11817 0.133527 -4.50737e-20)
(1.00002 0.000320796 1.52358e-20)
(1.04945 0.109379 0)
(-0.116032 0.00728506 9.41706e-20)
(1.1161 0.0200715 -7.71833e-21)
(0.988972 0.00149442 0)
(0.9931 0.00843654 0)
(1.19657 0.0814614 0)
(1.05054 0.0195848 0)
(1.00228 0.00754478 -5.72054e-21)
(0.893618 0.0711985 3.32893e-20)
(1.03376 0.0202808 3.41728e-21)
(1.01831 0.0132192 0)
(0.947088 0.0168529 -6.34703e-21)
(1.01968 0.0056495 8.0452e-22)
(0.943148 0.165684 0)
(0.992121 0.0115839 -1.60098e-20)
(1.00164 0.00761004 0)
(-0.185059 -0.00431243 -5.66411e-20)
(1.00951 0.00641717 3.32143e-21)
(1.05686 0.00405622 -8.94765e-21)
(1.00014 0.00413327 1.80809e-20)
(0.99172 0.0469868 0)
(1.04018 0.121167 1.27521e-20)
(1.0044 0.00759566 0)
(1.03687 0.0193722 0)
(1.24524 0.221926 -2.16542e-19)
(0.994084 0.052988 6.50224e-21)
(0.23201 -0.0403 1.24612e-19)
(1.05569 0.0348581 -3.27963e-21)
(1 0.000141 7.37419e-22)
(1.00001 0.000123298 7.18334e-21)
(1.13921 0.213199 -2.46761e-20)
(0.987622 0.018504 3.18223e-21)
(0.990024 0.00524178 9.85957e-21)
(1.00202 0.00201272 -3.26965e-21)
(1.05398 0.0185996 0)
(0.940043 0.0921124 -5.74894e-21)
(0.358899 -0.0458056 0)
(0.996592 0.0163395 -1.41294e-20)
(0.936535 0.162173 0)
(0.643972 0.743495 0)
(1.11651 0.0173837 3.62843e-20)
(1.00001 0.000458318 0)
(0.992104 0.00350242 1.62922e-20)
(1.04872 0.00966658 6.59858e-21)
(1.00002 0.00128417 9.72227e-21)
(0.999498 0.018028 -1.80468e-20)
(-0.0688817 0.0113704 0)
(-0.143613 0.0162326 -1.2339e-19)
(0.999941 0.00387615 -7.83373e-21)
(1.07497 0.0681686 2.45859e-20)
(1.09711 0.0153266 2.65484e-21)
(1.09474 0.0151627 1.7067e-20)
(0.971838 0.00672585 -1.23805e-20)
(1.01327 0.0014009 7.07122e-22)
(1.20841 0.0445921 0)
(1.04045 0.316602 -2.54315e-20)
(0.680675 0.722232 0)
(1.02644 0.0085399 1.03939e-22)
(1.04987 0.0105697 3.71911e-22)
(1.04479 0.0184882 0)
(1.00601 0.00924338 8.26686e-21)
(-0.0271049 -0.0210224 -7.10485e-20)
(1.05745 0.119175 0)
(1.05339 0.019802 -1.24734e-20)
(1.0205 0.029945 1.91564e-21)
(1.00966 0.000718706 -3.55571e-21)
(0.974211 0.00510089 8.55967e-21)
(1.17744 0.0405168 0)
(1.07377 0.0477192 -7.41539e-21)
(0.998778 -0.000149083 -7.03701e-21)
(-0.195093 0.0124514 -7.02042e-20)
(0.76051 0.622637 -5.72798e-21)
(0.991832 0.449653 0)
(1.03109 0.200561 -7.90642e-21)
(0.99909 0.00603229 0)
(1.02588 0.0256115 4.12238e-23)
(1.14257 -0.0120969 -2.30466e-20)
(1.09778 0.144775 -8.09736e-21)
(-0.0350671 0.00266387 9.32601e-20)
(0.402435 0.206662 2.40994e-19)
(0.938456 0.0551655 2.64886e-20)
(0.903589 0.0175792 -1.31709e-20)
(1.00007 0.00116888 4.45621e-21)
(1.05049 0.0500135 0)
(0.967241 0.0146104 2.96055e-20)
(1.00007 0.00128943 0)
(-0.165956 -0.00696183 1.4502e-19)
(1.01492 0.00127604 6.67661e-22)
(1.00036 0.018809 -1.73373e-20)
(1.14211 0.0319789 2.34553e-20)
(1.00001 0.00117444 -9.28655e-21)
(1.19504 0.0218277 2.69203e-20)
(1.05395 0.0338397 -9.00042e-21)
(1.18162 0.0488049 0)
(1.00622 0.114839 0)
(0.999912 0.000378851 -1.16127e-20)
(1.06446 0.0196326 4.28157e-21)
(1.06318 0.0687552 0)
(1.11851 -0.0159661 0)
(1.03507 0.19643 3.08685e-21)
(0.932475 0.289021 5.50839e-21)
(0.999985 0.000170442 -2.24959e-21)
(1.13511 -0.00480092 2.41893e-20)
(1.02591 0.058188 7.44841e-23)
(1.01262 0.0319484 0)
(1.00049 0.0022903 -8.87305e-21)
(1.03652 0.0396678 4.9205e-22)
(0.995906 -0.000441631 0)
(0.936666 0.0581577 9.28059e-21)
(1.11939 0.130431 4.83355e-20)
(0.833328 0.122207 8.04848e-20)
(0.998776 -0.000492025 -1.43336e-20)
(0.99275 0.0545809 -9.88665e-21)
(1.0021 0.00187522 -1.02926e-20)
(0.98947 0.00895021 -1.24138e-20)
(0.773853 0.333531 3.3518e-20)
(1.00345 0.00530763 0)
(1.01206 0.0666763 0)
(1.1886 0.0321857 -4.25871e-20)
(1.01923 0.00545087 -1.72513e-21)
(1.09625 0.150045 0)
(1.15865 -0.0134368 0)
(0.996621 0.00220041 5.38877e-21)
(0.00459326 0.0311727 9.56518e-20)
(1.11955 0.0544334 -2.15479e-20)
(0.999935 0.00114407 -5.29846e-21)
(1.20455 0.11465 1.22248e-19)
(1.04245 0.0216375 0)
(1.00002 0.000340369 -2.45071e-22)
(0.97785 0.0112448 0)
(0.99357 0.00259846 0)
(0.999995 0.000102281 -8.90105e-21)
(1.04918 0.0591744 -4.67861e-21)
(0.973092 0.00468452 -6.08826e-21)
(0.806943 0.576879 1.79345e-21)
(0.979249 0.0517276 -1.0135e-20)
(0.992531 0.00375884 -3.13754e-20)
(1.02269 0.044028 1.11403e-21)
(1.04413 0.122113 -7.55699e-21)
(1.09918 0.0594566 0)
(0.993186 0.00110349 -1.6242e-20)
(1.07437 0.0195438 1.50367e-21)
(1.02503 0.0256155 -4.57539e-23)
(1.10689 0.0285675 -2.78761e-20)
(0.979918 0.00549746 -1.53449e-20)
(1.00237 0.117376 1.17006e-21)
(1.02673 0.0111851 -1.98017e-21)
(0.942593 0.00868102 -2.38713e-20)
(1.02843 0.00424606 -1.62791e-21)
(1.00118 0.00963599 0)
(0.47743 0.00119778 0)
(1.021 0.0119583 2.46682e-22)
(0.777526 0.315781 -3.54772e-20)
(0.992341 0.00100997 1.52231e-20)
(1.05934 0.0182368 6.43474e-21)
(1.01016 0.00610383 -5.77307e-21)
(1.10401 0.0466469 3.65749e-21)
(1.00011 0.00383595 0)
(1.12151 0.0567703 1.21712e-20)
(1.01949 0.0393356 -2.84083e-21)
(1.20063 0.115822 -9.59211e-20)
(0.999972 0.000416805 0)
(0.364493 -0.0470092 9.13951e-20)
(1.03096 0.00197703 0)
(0.96283 0.0571715 0)
(0.999966 0.00013295 -1.20082e-20)
(0.975441 0.00740908 2.79308e-20)
(1.00036 0.00856033 -1.78989e-24)
(1.04733 0.0596637 0)
(0.995939 0.000145802 0)
(0.641395 0.229714 8.44112e-20)
(0.6721 0.471126 -7.69651e-20)
(1.19961 0.019923 0)
(1.06688 0.034569 0)
(0.926864 0.151447 -1.72003e-20)
(1.00598 0.0239383 2.22457e-21)
(0.961667 0.168316 1.94284e-20)
(1.14463 0.0372867 -2.49984e-20)
(1.00145 0.00468349 1.49395e-20)
(0.90014 0.0722228 -3.54686e-20)
(0.92695 0.302892 8.72285e-21)
(-0.0199471 -0.000454782 -8.91004e-20)
(1.1576 -0.0167819 0)
(1.27555 0.271768 1.89253e-19)
(1.06578 0.070696 -3.09292e-20)
(0.994297 0.0409425 -7.42814e-21)
(1.00002 0.000901174 0)
(1.07671 0.0232482 6.24123e-21)
(1.05137 0.0567961 0)
(1.11397 -0.0122893 -5.61229e-21)
(1.0167 0.00539524 -1.14789e-21)
(1.03038 0.0625256 -1.05669e-21)
(1.17518 0.0948751 5.09597e-20)
(1.00003 0.000125877 -2.25859e-22)
(0.989402 0.00831905 -6.27981e-21)
(1.07654 0.0193323 0)
(0.121301 -0.0133577 -8.70698e-20)
(0.96521 0.0559261 -1.01807e-20)
(1.04729 0.10571 -1.44066e-21)
(1.14276 -0.0160841 -2.82828e-20)
(0.999936 0.000325803 1.26646e-20)
(0.225851 -0.0530112 -5.58386e-20)
(1.01653 0.00633564 1.76187e-21)
(1.00523 0.0151431 0)
(0.999365 0.050897 -4.84127e-22)
(1.03372 0.0211671 -3.02495e-21)
(-0.19636 0.00945842 -1.13726e-19)
(1.15153 0.0312199 0)
(0.0763191 -0.00907665 9.13753e-20)
(1.00146 0.000676324 7.24049e-21)
(1.24488 0.345313 -1.53389e-19)
(0.0544596 0.0468267 0)
(1.22659 0.088225 -7.80335e-20)
(1.11299 -0.010375 0)
(1.15169 0.0406757 1.81091e-20)
(1.18616 0.103548 0)
(0.988499 0.17465 -3.39639e-21)
(0.978286 0.0149769 2.98114e-22)
(0.995011 0.0232346 5.28272e-21)
(0.890283 0.0765121 -4.07017e-20)
(-0.215117 0.00545267 0)
(1.00748 0.0241659 4.82139e-21)
(0.958185 0.112471 0)
(0.213838 -0.0252525 0)
(0.991815 0.0127734 -2.33779e-20)
(1.00194 0.0106596 5.69098e-21)
(1.01195 0.0326912 0)
(0.982365 0.057182 0)
(1.00018 0.00864993 9.20811e-21)
(1.04589 0.0116385 -5.49796e-21)
(1.13223 0.216986 -2.53121e-20)
(1.19727 0.148657 5.17118e-20)
(1.04474 0.0116325 -1.46909e-21)
(0.999795 0.00678412 -7.75276e-22)
(-0.141236 0.00124922 0)
(-0.0501667 -0.0515461 0)
(1.00527 0.02429 0)
(0.989653 0.00133406 0)
(1.0004 0.000531428 -1.11855e-20)
(0.997186 0.0173048 -3.59918e-21)
(1.20843 0.255412 3.89914e-20)
(1.15196 0.0280488 -3.06068e-20)
(0.997224 0.409942 0)
(0.981171 0.0501646 0)
(1.00189 0.0111168 -7.81292e-21)
(1.03546 0.0159762 1.47925e-22)
(0.946314 0.00530862 1.98703e-20)
(0.997347 0.00245346 -7.97845e-21)
(1.10499 0.0389449 -3.46405e-20)
(0.962586 0.0355835 -4.87326e-21)
(0.315397 -0.00701149 5.80546e-20)
(0.998674 0.00635939 -2.59955e-22)
(1.00083 0.00309156 -1.20629e-21)
(1.02641 0.16569 0)
(1.0074 0.0232511 -4.79164e-21)
(1.11051 0.00351903 1.19248e-20)
(0.86645 0.252265 0)
(1.06245 0.0195762 0)
(0.768104 0.596782 2.43543e-20)
(0.0369565 -0.00712084 2.43641e-20)
(0.992731 0.0408119 0)
(0.999715 0.0187359 5.51142e-21)
(0.692429 0.0131283 0)
(-0.1929 0.00201628 0)
(0.972506 0.153098 -1.24248e-20)
(1.04154 0.021304 0)
(1.08036 0.0337974 3.18545e-20)
(0.743972 0.378524 0)
(0.911393 0.0272591 8.28879e-20)
(0.979255 0.0142201 -2.82842e-22)
(1.00233 0.00155628 -8.33982e-22)
(1.00357 0.00574416 -1.12361e-22)
(1.04725 0.400163 -6.03785e-20)
(1.06532 0.0350048 0)
(0.765979 0.276473 -3.92614e-20)
(1.00001 0.000365012 7.72702e-21)
(-0.090305 -0.00336295 2.25218e-19)
(1.22028 0.211539 -6.04271e-20)
(0.992224 0.00296748 0)
(0.996663 0.00638335 -2.82249e-21)
(0.654505 0.217306 -7.42025e-20)
(0.999086 0.000672343 4.64847e-21)
(1.01054 0.00613763 3.52511e-21)
(0.990407 0.0859785 8.99676e-22)
(-0.0406764 -0.00805117 -7.07949e-20)
(-0.0101666 -0.00553598 0)
(0.59565 0.011751 4.22338e-20)
(1.05532 0.00483666 9.13056e-21)
(1.14245 0.0539153 -5.26812e-22)
(0.989144 0.167165 1.22192e-20)
(1.01457 0.00508988 1.57044e-21)
(1.00906 0.000455686 5.24901e-21)
(0.999518 0.000140726 0)
(1.0568 0.386057 4.12024e-20)
(1.00011 0.00108946 -1.21273e-20)
(0.99246 0.00431846 1.61427e-20)
(1.14225 0.0517078 3.36934e-20)
(0.972948 0.00874855 -1.69003e-20)
(1.11758 0.144726 2.36745e-20)
(1.00075 0.000766641 2.13136e-21)
(0.998252 0.000547137 -8.54203e-21)
(1.01176 0.00126297 -3.91328e-21)
(0.998947 -0.000477459 0)
(1.19234 0.0758523 -8.95577e-20)
(1.00011 0.00120264 9.07779e-21)
(0.998574 0.0266994 0)
(1.11515 0.0666152 -2.00147e-20)
(0.917184 0.22981 -3.29357e-20)
(0.80422 0.490453 -1.9934e-20)
(0.999974 0.00116663 1.31333e-20)
(1.15211 0.127749 0)
(-0.0941825 -0.053786 1.06547e-21)
(0.245713 -0.0419314 -9.1912e-20)
(0.961649 0.0441178 6.58607e-22)
(-0.191611 0.0103994 0)
(-0.101668 0.0017565 0)
(0.992178 0.0124321 1.0642e-20)
(1.01732 0.00278546 8.38419e-22)
(0.976928 0.0485981 -2.0404e-20)
(0.943279 0.0288945 2.85364e-20)
(-0.0545811 -0.0229826 0)
(1.01842 0.067536 1.88267e-21)
(1.00049 0.00213335 9.07725e-21)
(1.00009 0.00113698 8.51323e-21)
(-0.0384435 -0.048982 0)
(0.96366 0.161277 -1.62445e-20)
(1.05396 0.00391066 -1.04236e-21)
(1.00039 0.00177777 7.35173e-21)
(0.989168 0.00260012 -1.07938e-20)
(1.06025 0.150026 -8.3414e-21)
(1.00992 0.00649997 3.34054e-21)
(1.00724 0.000654896 4.68613e-21)
(1.10399 0.0286618 0)
(0.981817 0.0548217 -1.22265e-20)
(0.999625 0.000120261 -2.38679e-20)
(1.02851 0.0215753 -4.7826e-22)
(0.706269 0.608065 0)
(1.0341 0.0234274 0)
(0.986616 0.0556389 1.20723e-20)
(0.995712 -0.000638736 0)
(0.994498 0.0489959 -1.49452e-20)
(1.16224 0.183258 -6.3539e-20)
(0.999988 0.0012744 -1.03074e-20)
(0.970279 0.0529916 1.26301e-20)
(0.997253 9.94224e-05 0)
(1.07072 0.0445317 -1.32104e-20)
(0.631201 0.532719 0)
(0.999999 9.41759e-05 0)
(0.816659 0.469942 4.60171e-20)
(1.03323 0.085464 -2.89384e-22)
(-0.0318007 -0.0150333 -6.19761e-20)
(1.01625 0.000589225 1.76849e-21)
(1.02515 0.066103 -2.01078e-22)
(1.10229 0.026442 0)
(1.15084 0.130618 4.73233e-20)
(0.771935 0.122475 0)
(0.962557 0.0341267 5.33043e-21)
(1.23632 0.254582 -5.65391e-20)
(0.603935 -0.0342874 -1.91229e-20)
(0.95795 0.0207495 0)
(1.01172 0.000727256 -3.27096e-21)
(1.2304 0.0848184 -7.24305e-20)
(0.997381 -0.000688821 -5.54843e-22)
(1.00001 0.000648952 0)
(1.0138 0.0152752 4.21451e-21)
(1.00002 0.000736208 -9.42595e-21)
(1.12189 0.0941744 0)
(1 1.46946e-05 3.69597e-21)
(0.999994 9.53518e-05 0)
(0.854067 0.248237 -2.4952e-20)
(1.00605 0.110153 2.76639e-21)
(1.01465 9.37926e-05 0)
(0.912669 0.109638 6.9124e-20)
(0.949451 0.0128835 -1.78436e-20)
(0.539857 0.0161671 0)
(1.06042 0.0305291 -6.87903e-21)
(0.794461 0.54976 0)
(0.997866 0.0182647 7.23257e-21)
(1.14166 0.0350755 9.18495e-22)
(0.970655 0.160091 2.06578e-22)
(0.119518 -0.0282464 -1.54922e-20)
(1.06253 0.0458284 3.73741e-22)
(-0.053848 -0.0192658 1.46734e-19)
(1.00001 0.000372867 0)
(1.08183 0.000259159 0)
(1.00146 0.00253849 3.72992e-21)
(0.99523 0.0395808 6.91008e-21)
(0.986688 0.0184827 0)
(1.1793 0.0470398 0)
(0.849633 0.131952 -1.96189e-20)
(1.13183 -0.0104242 2.15457e-20)
(-0.168121 -0.00188798 0)
(1.0004 0.00236943 0)
(0.939163 0.892588 0)
(1.08223 -0.0036788 1.0842e-20)
(1.02203 0.0238782 8.60409e-22)
(0.863754 0.0563504 -4.65048e-20)
(1.08485 0.0672139 -4.50639e-20)
(0.0317467 -0.00630976 -2.07649e-20)
(0.99635 0.0065085 5.90204e-21)
(0.935845 0.091653 3.35985e-20)
(0.914472 0.217782 -2.2744e-21)
(1.0142 0.0678922 0)
(0.823491 0.124296 -1.0577e-19)
(1.00001 0.000162689 -2.33318e-22)
(1.01626 0.0031099 2.59264e-21)
(1.00001 0.000149508 0)
(0.951252 0.443224 -2.4754e-20)
(0.998952 0.00118267 9.89036e-21)
(1.00125 0.00514052 1.02484e-20)
(1.0128 0.0146003 4.26294e-21)
(1.01081 0.00119932 4.75494e-21)
(1.00095 0.00960614 0)
(0.999484 0.00703572 0)
(1.0232 0.0458414 -7.43921e-22)
(1.00227 0.0161271 9.59605e-21)
(0.99907 0.000419892 -1.48308e-20)
(0.95531 0.00625797 0)
(0.992631 0.0887745 0)
(0.918795 0.108118 -2.66538e-20)
(0.993864 0.000395206 1.27465e-20)
(-0.0184071 -0.0172437 -1.59079e-20)
(0.999259 0.0360027 -1.00459e-20)
(1.22992 0.33935 4.6757e-20)
(0.88423 0.138378 0)
(-0.061561 0.00727667 -6.18928e-20)
(1.08177 0.103324 -2.9247e-20)
(1.0797 0.000855603 2.59913e-21)
(-0.157443 0.0214261 1.28764e-19)
(1.10047 0.0619244 -1.97519e-20)
(0.983535 0.430745 -1.20458e-21)
(0.40907 -0.032036 3.85137e-20)
(1.06194 0.145096 -1.17013e-20)
(1.00008 0.00123992 -1.36131e-20)
(1.00425 0.0143382 0)
(0.998025 0.0609212 -6.57068e-21)
(1.16735 0.180614 3.47026e-20)
(1.01082 0.0325742 -6.03739e-21)
(-0.010068 0.00717478 7.90141e-20)
(1.00209 0.0295614 0)
(0.965702 0.672231 9.38961e-20)
(0.316374 -0.0502991 0)
(1.13907 -0.0181244 2.69042e-20)
(1.05241 0.0349606 2.9214e-21)
(-0.0289287 0.0239704 0)
(-0.0877803 0.00719815 0)
(0.939705 0.00906607 -2.73299e-20)
(0.993344 0.0018774 -1.51786e-20)
(0.999957 0.000185239 9.13471e-21)
(1.0734 0.0215106 1.04949e-20)
(1.01648 0.00298371 -1.20645e-21)
(1.013 0.00114033 0)
(1.06974 0.188011 0)
(1.14457 0.00630235 2.51419e-20)
(0.997392 -0.000187421 0)
(1.00996 0.0319951 9.88868e-21)
(0.957508 0.00585801 0)
(1.17324 0.328013 -3.02168e-20)
(1.14596 -0.00977947 1.85086e-21)
(0.999373 0.00128065 3.11408e-21)
(1.03218 0.081746 -3.09007e-21)
(1.15798 0.101495 0)
(0.991128 0.0504252 0)
(0.999598 0.00558355 1.63048e-20)
(-0.0440041 0.00662233 0)
(0.981635 0.0406722 0)
(0.993269 0.0194035 0)
(0.83408 0.920189 0)
(0.988418 0.0744476 6.77499e-22)
(0.97786 0.00498658 -1.65176e-20)
(-0.140458 0.0340794 -4.35165e-22)
(0.0103585 -0.0433929 0)
(0.103253 0.0480904 1.8246e-19)
(0.989663 0.0103385 1.15284e-20)
(0.970371 0.0558143 2.21447e-20)
(1.20939 0.0967718 0)
(1.01314 0.0152071 -4.45664e-21)
(1.01994 0.0310501 6.50418e-22)
(0.999991 0.000196571 0)
(1.09679 -0.0024774 4.1006e-21)
(0.997314 0.00322567 -1.60252e-20)
(1.00081 0.000729903 5.97499e-22)
(1.06553 -0.00535979 1.22027e-20)
(0.78261 0.101219 0)
(0.878398 0.403152 -1.61004e-20)
(1.00878 0.0162248 -7.0407e-21)
(0.980726 0.0105712 0)
(0.997375 -0.00119438 0)
(1.01969 0.0289779 1.15173e-21)
(0.978861 0.0472239 5.38068e-22)
(1.01538 0.00342317 1.4546e-21)
(1.18137 0.103058 2.61932e-20)
(0.988663 0.11237 -2.13928e-20)
(0.989792 0.029928 1.71125e-20)
(0.994985 0.00520636 -1.5296e-20)
(1.0102 0.0151674 5.14e-21)
(1.00219 0.00521039 -9.81584e-21)
(1.03096 0.0455705 -9.82761e-22)
(-0.0206418 -0.00546712 0)
(1.09041 0.0436357 -4.25379e-20)
(1.03016 0.00266298 1.21951e-21)