/*--------------------------------*- C++ -*----------------------------------*\
| =========                 |                                                 |
| \\      /  F ield         | OpenFOAM: The Open Source CFD Toolbox           |
|  \\    /   O peration     | Version:  v2012                                 |
|   \\  /    A nd           | Website:  www.openfoam.com                      |
|    \\/     M anipulation  |                                                 |
\*---------------------------------------------------------------------------*/
FoamFile
{
    version     2.0;
    format      ascii;
    class       volScalarField;
    location    "250";
    object      k;
}
// * * * * * * * * * * * * * * * * * * * * * * * * * * * * * * * * * * * * * //

dimensions      [0 2 -2 0 0 0 0];


internalField   nonuniform List<scalar> 
18355
(
0.000162159
0.0346192
0.000147593
0.000145599
0.000150568
0.000181763
0.000147541
0.000173995
0.000151229
0.036118
0.000145018
0.0344232
0.000183432
0.000147975
0.000148577
0.000151714
0.0139751
0.000146257
0.000148463
0.0607404
0.000153977
0.000149571
0.0682854
0.000150595
0.000156237
0.000148911
0.000148373
0.000150913
0.0195657
0.000148112
0.000149135
0.000152603
0.000146235
0.000146827
0.000168633
0.000162855
0.000149884
0.000182863
0.000150731
0.000145167
0.000147987
0.000168315
0.00014763
0.0280801
0.000147918
0.000184003
0.000170031
0.000151936
0.000167828
0.000146397
0.000144992
0.000147314
0.000149832
0.0620457
0.000148473
0.000148378
0.000191352
0.000148691
0.000458443
0.000184923
0.00014643
0.000177287
0.000146134
0.00016269
0.038205
0.000161557
0.00522911
0.000157664
0.000148412
0.00014943
0.000172053
0.000149683
0.000186195
0.000146626
0.000173969
0.000147513
0.0594595
0.000152426
0.000160025
0.000147096
0.000147621
0.000263603
0.000153692
0.000164301
0.000148855
0.00018308
0.0305902
0.060911
0.0190419
0.0664433
0.000228492
0.000148326
0.000148648
0.000144434
0.00662332
0.0653175
0.000147086
0.00015647
0.0594039
0.00862363
0.0107963
0.0102444
0.000164344
0.00228291
0.000151324
0.000186999
0.02219
0.000177387
0.000161755
0.000183657
0.00014789
0.000150421
0.000148919
0.000150621
0.0557871
0.000147857
0.000485036
0.0603916
0.000470794
0.000164292
0.0388775
0.000707918
0.000152312
0.000171871
0.00014708
0.000178037
0.000147281
0.000149721
0.00356834
0.00014445
0.000145031
0.0027627
0.000171621
0.000156214
0.000161292
0.00014969
0.000147931
0.000145
0.000147819
0.000172924
0.012881
0.0200116
0.000149468
0.000147864
0.000190209
0.000149331
0.000153817
0.0237029
0.00015289
0.020372
0.000149896
0.000149392
0.000167605
0.000430291
0.000182505
0.00014978
0.00276376
0.000468767
0.000149762
0.00017834
0.000155429
0.000153356
0.000156772
0.000156748
0.000203061
0.000271882
0.0631502
0.000166343
0.000202991
0.000146459
0.0274328
0.0617798
0.000144909
0.00014501
0.000151679
0.0253188
0.000180097
0.000148588
0.00189988
0.0487333
0.000165874
0.000202676
0.000158466
0.00014723
0.000211674
0.0268305
0.0694828
0.0002075
0.00015134
0.0109824
0.000191009
0.000147704
0.000156576
0.0069439
0.000162602
0.00014953
0.00165018
0.000158201
0.000167276
0.000145003
0.000151142
0.000152233
0.0464916
0.0672444
0.0112871
0.000156514
0.000481278
0.0600953
0.0670759
0.000167099
0.000147915
0.000149657
0.0576119
0.000149335
0.000146461
0.000254244
0.0521857
0.0577146
0.000148969
0.000152723
0.000246981
0.000147776
0.000163701
0.000147813
0.0563908
0.000149078
0.0506716
0.0260632
0.000169799
0.000147909
0.000149807
0.000159404
0.000154979
0.0540588
0.000150283
0.000148863
0.000148653
0.000184256
0.000246037
0.0109355
0.00016109
0.000201923
0.000149383
0.000146542
0.000149237
0.0207198
0.012625
0.000477995
0.000182374
0.000155318
0.000151149
0.000528499
0.000158811
0.0710344
0.000148834
0.0327083
0.0632928
0.000178331
0.000148107
0.000147536
0.000160879
0.000173939
0.0549522
0.000172284
0.000146684
0.000146428
0.000149735
0.000205775
0.00017045
0.000169421
0.000150359
0.0118888
0.000210501
0.000186064
0.000149081
0.0024922
0.000147154
0.000147809
0.000783178
0.000146698
0.000147503
0.000186382
0.000147365
0.0158224
0.000158641
0.000152481
0.0001469
0.000166288
0.0371956
0.00015266
0.000145633
0.000147963
0.000191621
0.0484026
0.000149758
0.000149847
0.057164
0.000165395
0.000183045
0.000178846
0.000147833
0.000172733
0.000149924
0.000149773
0.000177528
0.000207241
0.000562933
0.000193033
0.000144518
0.000166841
0.000151007
0.000148448
0.00427724
0.000147678
0.000206612
0.000168023
0.000148594
0.000145072
0.000203033
0.00801097
0.0647163
0.00014878
0.000156421
0.0253176
0.000146906
0.000260547
0.000159593
0.000158721
0.00023529
0.000144513
0.000314075
0.000148341
0.000161828
0.000148711
0.000182761
0.0366629
0.000149787
0.0404749
0.000164431
0.000148177
0.000169368
0.000177596
0.00615612
0.0616781
0.00275335
0.000148784
0.000146094
0.0690803
0.000164072
0.000148709
0.000149849
0.00418545
0.000211098
0.00042215
0.0725087
0.000148546
0.000152276
0.00052267
0.000147866
0.000150097
0.000218257
0.000167517
0.000154041
0.0114603
0.000149821
0.000161924
0.000253207
0.00874731
0.000145587
0.000148374
0.000147746
0.000147088
0.000165075
0.00014709
0.000164919
0.00014775
0.000152796
0.000148568
0.000151027
0.000147578
0.000148384
0.000147436
0.000147426
0.000151222
0.000170134
0.0180587
0.000147804
0.0186598
0.000159203
0.0185986
0.000162855
0.000177222
0.000149376
0.0104103
0.000149726
0.000147892
0.000148816
0.000145441
0.0594948
0.000153012
0.000146745
0.00016893
0.000164632
0.000147895
0.000146907
0.0565718
0.000149432
0.000147204
0.000525991
0.00014734
0.000458804
0.00911839
0.000217282
0.000153487
0.000151305
0.0428938
0.0001496
0.000147542
0.000437959
0.000149775
0.000144904
0.0122729
0.000146584
0.0393387
0.000171943
0.000181093
0.0118814
0.000149722
0.000147531
0.0563611
0.000181568
0.0276793
0.00326494
0.000147764
0.000147294
0.000149284
0.0438273
0.000162059
0.000148552
0.000149816
0.000149278
0.000162276
0.000478659
0.000155571
0.000149184
0.00014982
0.000162345
0.000234878
0.0502122
0.0337867
0.0187304
0.000162827
0.000162139
0.0336354
0.000149001
0.000146778
0.000147957
0.000147778
0.000164656
0.000147969
0.000146346
0.00692956
0.00016252
0.000168597
0.0677822
0.000163197
0.0215891
0.000147688
0.000147503
0.000147933
0.000147659
0.000149878
0.000149861
0.000147869
0.0210803
0.000148772
0.000144754
0.000505906
0.000186326
0.000146837
0.000151679
0.0001644
0.000766615
0.000151347
0.000147133
0.00553334
0.000151939
0.0142785
0.000160051
0.000147153
0.00726303
0.000186351
0.000146129
0.0749129
0.0169317
0.0513941
0.000147144
0.00014703
0.000154429
0.000190624
0.00014955
0.0127572
0.0372427
0.0125099
0.000265089
0.000145381
0.000171793
0.0381602
0.065431
0.0612035
0.000148923
0.000155063
0.000155411
0.0466501
0.00985825
0.000232961
0.00014909
0.000147773
0.000148746
0.000162337
0.000147898
0.0489923
0.000156037
0.0578553
0.000148133
0.000149171
0.00014744
0.000157303
0.000158945
0.000232213
0.000147399
0.000185923
0.000438271
0.000162253
0.000148099
0.000152058
0.000163365
0.000149795
0.000161778
0.000167733
0.00016183
0.000185252
0.00015001
0.00014609
0.00014796
0.000149844
0.000165474
0.000154044
0.000177283
0.000147639
0.000150608
0.0249411
0.00014457
0.000157575
0.000149811
0.000183027
0.00015221
0.0590627
0.000150018
0.00835019
0.000153979
0.000152061
0.0631505
0.0248829
0.059759
0.000162372
0.000152699
0.000147218
0.000147752
0.00018715
0.000168369
0.000158849
0.000169595
0.0202525
0.000204459
0.000147372
0.0706181
0.0063033
0.000152027
0.000147756
0.000157617
0.0640684
0.000160835
0.000149396
0.000163524
0.000183619
0.00016878
0.000156731
0.000332513
0.000156084
0.000185101
0.0238909
0.000249516
0.00527514
0.000163724
0.000180724
0.000157867
0.000148389
0.000152123
0.000148042
0.000182905
0.000182823
0.030602
0.000169543
0.0463307
0.0131579
0.00016313
0.000152103
0.0268235
0.0873974
0.000145133
0.000170715
0.00880648
0.0216606
0.000155785
0.000145223
0.00015597
0.000156898
0.0001631
0.0001816
0.000147696
0.00849894
0.000151331
0.000153141
0.0487542
0.000147581
0.000159174
0.0627527
0.000147538
0.000150664
0.0682329
0.000146179
0.000185973
0.00014458
0.0156194
0.000162593
0.000170075
0.00015887
0.000154221
0.000190143
0.000153139
0.0189596
0.000181926
0.0001488
0.0268612
0.000170622
0.000350209
0.018266
0.000147909
0.000228065
0.000147824
0.000145523
0.0163334
0.000152186
0.000162355
0.00014956
0.000158011
0.0155865
0.0660537
0.000165551
0.0160308
0.000164377
0.000151503
0.00014525
0.000149487
0.00016957
0.000170407
0.000146638
0.0435297
0.000156846
0.000165262
0.000149882
0.0710652
0.0532935
0.000148135
0.000145134
0.000181817
0.00014961
0.000146122
0.0142311
0.00017177
0.00014955
0.000147733
0.000193576
0.000167789
0.000160582
0.000163624
0.000148337
0.0415202
0.000173747
0.000149019
0.000185104
0.0608057
0.000147541
0.0610211
0.000145579
0.00014754
0.000149472
0.000158705
0.0524816
0.000163929
0.0264101
0.00015916
0.0499419
0.000293315
0.000157721
0.043492
0.000148436
0.0903917
0.000151927
0.0248166
0.0343556
0.000148948
0.000457384
0.000153717
0.000154352
0.0735195
0.000165862
0.0468308
0.000146662
0.0603632
0.00014796
0.023672
0.000149369
0.000155762
0.000162684
0.000146734
0.000145316
0.000174924
0.00657175
0.0152731
0.000147335
0.000338589
0.000157329
0.000146774
0.000148696
0.000155752
0.00019196
0.0839946
0.00016308
0.000149793
0.000155841
0.0528375
0.000155639
0.000147713
0.000146743
0.000156345
0.000160342
0.017232
0.000147526
0.000230583
0.000162746
0.00318474
0.0496119
0.00590604
0.000145023
0.000179515
0.000147659
0.00014922
0.000159038
0.0111332
0.000146706
0.000147205
0.000147307
0.0887889
0.000151221
0.000148936
0.000159835
0.000160154
0.0705112
0.0263629
0.000147396
0.000147964
0.0689047
0.000149007
0.0703715
0.0389823
0.0569602
0.000174701
0.000177805
0.0275511
0.000163054
0.000149033
0.000146583
0.000148439
0.000149332
0.000148652
0.000149412
0.0680899
0.00826853
0.000149113
0.000167432
0.000146257
0.000151607
0.000164169
0.000148476
0.000153366
0.000150847
0.000192565
0.000375804
0.00017271
0.0515097
0.000162674
0.00691646
0.000170803
0.0537964
0.0748608
0.000173895
0.000431168
0.000207704
0.0183537
0.000147947
0.000147759
0.000147675
0.000157058
0.0595531
0.000146421
0.000149827
0.000180153
0.000146688
0.000162795
0.000162065
0.000149397
0.0255888
0.000148644
0.000147974
0.000193912
0.000145881
0.000193884
0.000186973
0.000148745
0.00015174
0.000146763
0.000165459
0.000146679
0.000151933
0.000157436
0.000147973
0.0707751
0.000148876
0.0724435
0.000155331
0.000188701
0.000147592
0.000183367
0.000163757
0.00014908
0.000148763
0.0739786
0.000147788
0.0184039
0.021159
0.000150317
0.000148639
0.000148421
0.000145091
0.0142074
0.000147705
0.0753986
0.00913341
0.000165421
0.0392454
0.000147127
0.000147529
0.0658273
0.0703012
0.000152703
0.000147852
0.000147932
0.000146509
0.000152654
0.000161506
0.00022748
0.000153765
0.0127648
0.000349555
0.0423287
0.000158044
0.000147939
0.0273466
0.0276108
0.000159963
0.00014761
0.000148853
0.0799864
0.000147935
0.0162036
0.000164818
0.000149656
0.000155829
0.000146002
0.000162829
0.000155993
0.000146704
0.000144595
0.000152334
0.0308108
0.000149435
0.000180817
0.0315402
0.000148753
0.000147358
0.000161548
0.016307
0.000161811
0.0637119
0.000149678
0.000145034
0.000151386
0.0219342
0.000189195
0.000288161
0.000147763
0.000157074
0.000148316
0.0594816
0.000146044
0.02426
0.000162171
0.0149048
0.000149211
0.000147275
0.000177662
0.000147779
0.026778
0.000148839
0.000392942
0.000149681
0.000146473
0.000152221
0.000213312
0.0235137
0.000155226
0.000150098
0.000149744
0.00014878
0.000146614
0.000149861
0.000186726
0.000149415
0.0543524
0.00015194
0.0655402
0.00014824
0.000145214
0.00018575
0.0703832
0.0537094
0.000149699
0.0332231
0.000148375
0.0064964
0.000149888
0.000198898
0.000147042
0.0530432
0.000147431
0.000155926
0.00014821
0.000147713
0.000149721
0.0606449
0.000931133
0.0383793
0.000158178
0.000157192
0.000153513
0.000147765
0.000145618
0.000146182
0.00015129
0.000192488
0.00014918
0.01372
0.000183806
0.000147832
0.00014992
0.00559451
0.000187162
0.000151352
0.000153379
0.000158513
0.023925
0.000175652
0.089724
0.000180124
0.000181425
0.000173199
0.000147976
0.000147472
0.00018037
0.00016103
0.000148082
0.00396274
0.000156171
0.0181552
0.000149448
0.00018178
0.000158272
0.000173626
0.000155507
0.000148279
0.000127822
0.000148371
0.0139572
0.000148312
0.000148239
0.0658567
0.000162347
0.000158545
0.0755054
0.00014753
0.000168357
0.0228397
0.000147758
0.000168506
0.0268771
0.000150572
0.000147524
0.000148406
0.000154004
0.000153319
0.000182199
0.0637464
0.000152691
0.000154931
0.0300984
0.000145487
0.00805242
0.000155223
0.000151747
0.000250059
0.0107225
0.000146102
0.00014734
0.000152941
0.000146149
0.000145721
0.0547659
0.000149786
0.000158879
0.000145143
0.000163408
0.000146101
0.000169948
0.00021502
0.000151765
0.045703
0.000147395
0.000152466
0.000147778
0.0418249
0.000156286
0.000146901
0.000147815
0.00014874
0.000147534
0.000186501
0.0571575
0.0249447
0.044632
0.000149168
0.000149662
0.000183986
0.000148991
0.000146093
0.00024984
0.0435981
0.000151908
0.000148271
0.0313566
0.000149461
0.000149183
0.0423757
0.000182045
0.0491211
0.000151103
0.000147886
0.0444877
0.00014901
0.000157799
0.000149436
0.000161435
0.000148008
0.000177326
0.000197645
0.000170809
0.000148584
0.0453549
0.000150274
0.000146932
0.00014937
0.000148331
0.000147767
0.000148713
0.0567572
0.000149484
0.0100838
0.000149264
0.000159199
0.074259
0.000146498
0.000188052
0.000151117
0.000146437
0.000151684
0.000181256
0.000148109
0.000147276
0.000148769
0.000148089
0.0001761
0.000145817
0.000149738
0.000156317
0.000148526
0.000158871
0.013227
0.0466013
0.0290731
0.0446673
0.000186088
0.000173454
0.0766362
0.0568827
0.000148636
0.000149323
0.000145417
0.00017054
0.0629769
0.00016125
0.000154217
0.000145218
0.000147822
0.00014898
0.000152295
0.040223
0.0546656
0.00963486
0.000177762
0.000148606
0.000149534
0.000148975
0.0329324
0.00115861
0.000147793
0.000342594
0.000145671
0.000161689
0.000152365
0.000162731
0.000161124
0.000243245
0.000151129
0.000170063
0.000145961
0.000147148
0.00017388
0.000147412
0.0001483
0.000176246
0.000205136
0.000148782
0.000166638
0.000147406
0.000148
0.000146606
0.000147852
0.0358443
0.000157606
0.000150919
0.000148902
0.0432922
0.000172341
0.000148399
0.000157622
0.000160907
0.0201905
0.00022284
0.0647296
0.000200068
0.000181725
0.000188381
0.000193499
0.000170481
0.036276
0.000145041
0.00014736
0.000147687
0.000172025
0.00014912
0.0253034
0.000147365
0.000148932
0.0678606
0.000172787
0.000149661
0.000165713
0.00014751
0.000150807
0.000274736
0.000185585
0.000147555
0.000206288
0.000186192
0.013488
0.0622479
0.00014794
0.0365526
0.000147356
0.000167669
0.000146942
0.000146771
0.0352747
0.000161879
0.000151844
0.000147891
0.0472213
0.000153705
0.0106684
0.027293
0.000149734
0.00014585
0.000152846
0.0552266
0.000182657
0.000169594
0.000158705
0.000206554
0.000147989
0.000149999
0.000147959
0.000148183
0.00015106
0.000163106
0.076752
0.000177631
0.000187763
0.0309914
0.000147878
0.0156386
0.000186053
0.000162289
0.000149222
0.000147832
0.00014738
0.00014725
0.000147434
0.0105623
0.000183601
0.0614087
0.000177627
0.00018446
0.000149108
0.000185281
0.0606625
0.000161446
0.000155525
0.000146864
0.0683332
0.0404356
0.000176151
0.000187754
0.000148069
0.0107311
0.000150514
0.000152768
0.000168496
0.000169109
0.000145999
0.000180781
0.0525399
0.000149837
0.0146745
0.0575566
0.0758124
0.0104529
0.000162628
0.00025838
0.000163809
0.00016316
0.0374389
0.000147289
0.000158973
0.000147088
0.000149645
0.0500462
0.000152292
0.0745424
0.000145909
0.000148834
0.064109
0.000147986
0.0714856
0.000150646
0.000187837
0.000152047
0.000149166
0.0715762
0.000155653
0.000179501
0.000146979
0.000147313
0.000204642
0.00017671
0.000148279
0.000155892
0.000241631
0.000180464
0.000352324
0.000149722
0.000147568
0.00014469
0.000147681
0.000157364
0.000164358
0.000145402
0.0627451
0.000147398
0.000148148
0.000171291
0.0336634
0.000177919
0.00015987
0.000146259
0.000151115
0.000180219
0.000303342
0.000260951
0.04417
0.000157864
0.000162946
0.000211322
0.000148502
0.00016858
0.043212
0.000147411
0.000204724
0.0192461
0.000229079
0.000244014
0.0743139
0.000181326
0.000148833
0.00315505
0.000154908
0.000171019
0.000181585
0.000147577
0.000186797
0.000147548
0.00014817
0.000173236
0.0117513
0.000159072
0.000147437
0.000164243
0.0308207
0.000166629
0.0178999
0.000147702
0.0332728
0.000146085
0.000170217
0.00018461
0.000147865
0.0281884
0.000147797
0.000146747
0.000148686
0.000147995
0.0722974
0.000182096
0.000149656
0.0640611
0.000148441
0.017157
0.000146026
0.0158777
0.000161908
0.000185181
0.000152905
0.000147854
0.00014576
0.00014854
0.00022023
0.000175127
0.000148763
0.000169765
0.0150901
0.0789228
0.000171254
0.0532879
0.0366165
0.000147881
0.0294236
0.000146437
0.000209621
0.000147924
0.000148679
0.000149169
0.000176011
0.0046422
0.000205444
0.000181936
0.0494433
0.000189797
0.000184749
0.039725
0.000147037
0.000172438
0.0159666
0.000144754
0.000172972
0.018045
0.000204905
0.000147575
0.0511695
0.000165391
0.0178602
0.00245148
0.000156795
0.000182346
0.0001552
0.000147577
0.000145055
0.0277733
0.000197622
0.000179737
0.000195799
0.000147202
0.00243428
0.000159181
0.000144409
0.000149802
0.000176952
0.000153381
0.000149389
0.000149778
0.00023435
0.00014716
0.000163423
0.0238506
0.000145713
0.000147134
0.00130792
0.000146794
0.000161318
0.000159079
0.00017837
0.000322034
0.000147919
0.000181046
0.000159464
0.00016916
0.000157198
0.000153899
0.000167775
0.00021467
0.000170105
0.0409831
0.000166702
0.000148748
0.000208455
0.0638695
0.000180942
0.000146348
0.00014822
0.000170676
0.000152574
0.0601715
0.000201468
0.000158743
0.0253304
0.000152136
0.000201074
0.0638986
0.000148224
0.000148753
0.000148359
0.000147775
0.000675525
0.000234584
0.000155539
0.000201081
3.17865e-05
0.000168532
0.000148807
0.000153729
0.000171
0.000147463
0.000147015
0.00412024
0.000151403
0.00050262
0.000146713
0.000147826
0.000149798
0.00016807
0.00016116
0.000166486
0.000148594
0.000151738
0.0759843
0.0206663
0.000355359
0.000459657
0.000153891
0.000150337
0.0778521
0.000182355
0.0145202
0.000163011
0.000147477
0.000172193
0.000155131
0.000149965
0.000146425
0.000167747
0.000181846
0.045242
0.000181043
0.000244717
0.000148883
0.000150696
0.000148675
0.000187843
0.021049
0.000201315
0.00041503
0.00014743
0.0552561
0.000151643
0.000147631
0.000152619
0.000149038
0.00017844
0.00014792
0.000182627
0.000145683
0.000379081
0.000157892
0.0139334
0.000150233
0.000148926
0.000155609
0.000146026
0.000184516
0.000432642
0.0748673
0.00017214
0.000145476
0.077367
0.000163748
0.000147858
0.000167839
0.000146937
0.000153294
0.000144639
0.00018124
0.000153867
0.00017747
0.000172146
0.000146706
0.0723812
0.000145476
0.000155864
0.000149527
0.000152734
0.000146114
0.000147946
0.000161272
0.000149866
0.000154235
0.000145852
0.000152493
0.000301338
0.0606686
0.000149845
0.000171489
0.0779135
0.000147237
0.000148979
0.000158368
0.000187642
0.000148011
0.000174737
0.00188894
0.000150877
0.0665096
0.0153636
0.000147944
0.00014995
0.000166726
0.000144303
0.0103813
0.0579471
0.0388032
0.000151703
0.000159581
0.000144872
0.000310022
0.000156114
0.000191069
0.000149585
0.00017957
0.0137511
0.000183561
0.000153056
0.00200017
0.015858
0.0486894
0.000149687
0.000146632
0.0580604
0.00035224
0.000146654
0.000148577
0.000188309
0.000149853
0.000211307
0.000298316
0.000146168
0.000149942
0.00289616
0.000179663
0.000151128
0.000144341
0.000164772
0.000149336
0.000217629
0.000147357
0.000149009
0.000148177
0.000152636
0.000148332
0.000183125
0.000147008
0.000154387
0.0565093
0.0328034
0.0279666
0.000147157
0.000168907
0.000183383
0.000148767
0.000153013
0.000169047
0.000147174
0.000152053
0.0174309
0.00016427
0.000148013
0.000148396
0.000147808
0.0144975
0.063916
0.00014684
0.000149815
0.000147737
0.000179057
0.0344801
0.00015181
0.000174059
0.000148887
0.000165423
0.000159419
0.000234064
0.00848878
0.000149214
0.000233181
0.0721894
0.000163216
0.00014772
0.00016346
0.000159228
0.000162154
0.000155288
0.00014795
0.000188764
0.000155326
0.000264718
0.000161641
0.000149133
0.000149629
0.0559425
0.000148928
0.00016049
0.000205874
0.000161016
0.0835818
0.0182243
0.00014766
0.00017966
0.000182036
0.000183417
0.000162284
0.000152015
0.000148318
0.00562954
0.000161463
0.000148093
0.000167724
0.000178803
0.000313679
0.0495655
0.00014831
0.000155688
0.000149236
0.000205587
0.000206944
0.000149184
0.000172415
0.000154286
0.000151305
0.000149189
0.0168315
0.000177574
0.000147981
0.00015288
0.0272324
0.000149717
0.000147911
0.000156889
0.000165126
0.000148169
0.000148993
0.000152569
0.00983852
0.000159896
0.000147666
0.000146895
0.000148643
0.000169721
0.000147831
0.000147492
0.000233733
0.0813502
0.000147587
0.000149741
0.000177313
0.00016189
0.000169091
0.000149098
0.0190613
0.000147157
0.000150475
0.000159781
0.0837252
0.0251702
0.000192042
0.000169662
0.0601914
0.0212491
0.0261909
0.0376106
0.000153172
0.000148001
0.000146086
0.000161319
0.000147498
0.000147916
0.000149009
0.000176595
0.000147679
0.0283763
0.000161936
0.0672308
0.000148526
0.0570042
0.000148271
0.000156943
0.00014589
0.000150763
0.00016065
0.000259411
0.000148944
0.000146911
0.000154026
0.0624529
0.000147231
0.000168656
0.000149225
0.000162648
0.0145908
0.00017799
0.000474059
0.000158232
0.000208154
0.000148962
0.0438081
0.0120214
0.000147006
0.0677277
0.0248848
0.000147736
0.000144956
0.000167807
0.000160459
0.000167022
0.000145803
0.034487
0.000158056
0.000172552
0.000145794
0.000147519
0.000158027
0.0177013
0.00145324
0.0122917
0.000168331
0.0215612
0.000160514
0.0281444
0.000148539
0.000345746
0.000147649
0.000155693
0.000350994
0.000151126
0.000203174
0.000147626
0.000153165
0.054394
0.00443246
0.000147588
0.000170225
0.000147852
0.0704044
0.000146628
0.0699891
0.0246271
0.000147948
0.0314899
0.000156649
0.0392578
0.000147946
0.000155116
0.000150575
0.000173084
0.000147998
0.000234329
0.000146534
0.0696826
0.000182929
0.0684031
0.000149079
0.000145911
0.00161559
0.000152378
0.000157523
0.000147571
0.000166562
0.000153299
0.000148177
0.0193725
0.000148568
0.000147458
0.000149614
0.000148775
0.0450657
0.000162696
0.000147504
0.038159
0.0004901
0.000195542
0.000147426
0.000178706
0.000451239
0.000147757
0.000156469
0.000149892
0.000148173
0.000147495
0.00014827
0.000156537
0.000160239
0.0622189
0.00018607
0.000181283
0.000149835
0.000147547
0.058704
0.000167329
0.000147394
0.000149921
0.0162456
0.0721624
0.000148241
0.0673952
0.000160846
0.000197497
0.000149842
0.0588208
0.000146163
0.000152058
0.000148571
0.000147029
0.000151512
0.0346506
0.000146157
0.0579316
0.000198185
0.000346831
0.00575027
0.000148588
0.000148325
0.0643338
0.000166671
0.000168459
0.000147823
0.000190881
0.00014903
0.0741341
0.0387077
0.0422249
0.000148562
0.0739943
0.04958
0.0612794
0.000194764
0.000153927
0.000179976
0.000147532
0.000237593
0.0667898
0.000161054
0.0452578
0.000146587
0.000148181
0.000167871
0.00243575
0.0001619
0.000929941
0.000147752
0.0533219
0.00016918
0.000163028
0.00014663
0.000164029
0.000179728
0.00014816
0.00016819
0.000167493
0.00021101
0.000146038
0.000147196
0.0487969
0.0457842
0.000152078
0.0350309
0.000160706
0.000147811
0.0642433
0.0222061
0.00014856
0.000239784
0.000145983
0.000148687
0.000172265
0.0475994
0.000149299
0.0583187
0.000151756
0.000147867
0.0155987
0.000149458
0.000180019
0.000146845
0.0003267
0.000148048
0.0166837
0.000146871
0.000163275
0.000148362
0.000155319
0.000176807
0.0739123
0.000162188
0.0343491
0.000160654
0.0630264
0.0659281
0.0410899
0.000147037
0.0213742
0.0818229
0.0167689
0.000229978
0.000149716
0.000146928
0.000148542
0.000120977
0.000147966
0.000149068
0.000231477
0.00014957
0.0288702
0.000150932
0.053722
0.000148093
0.000149492
0.000187894
0.000145268
0.000176384
0.000147382
0.00016776
0.000181002
0.0219664
0.00014659
0.000147668
0.0763791
0.0614535
0.000149597
0.000159548
0.000164432
0.000150028
0.00797694
0.0462295
0.0779537
0.000193426
0.0291399
0.0422114
0.000204455
0.000147118
0.000146452
0.000150529
0.00014743
0.000158421
0.0276765
0.0661819
0.000148494
0.000152519
0.000151378
0.000884867
0.0636697
0.00075783
0.000534557
0.000148697
0.000499113
0.061164
0.000154635
0.044494
0.000173011
0.000148941
0.0697896
0.0353713
0.00681567
0.000149326
0.000150863
0.000166949
0.000240396
0.000147111
0.000148572
0.00014958
0.000146678
0.000148181
0.0680113
0.000152137
0.000145776
0.0234073
0.000148611
0.0411755
0.00016796
0.0421823
0.00023107
0.000147692
0.0832421
0.000171612
0.00022375
0.000150331
0.000159995
0.000147947
0.000150797
0.0179525
0.000192691
0.000174107
0.000150431
0.000147372
0.000170988
0.000151879
0.000148316
0.000155141
0.000147441
0.0509103
0.000147833
0.0616634
0.0288495
0.000151333
0.000147708
0.0300862
0.000147022
0.000147091
0.00022572
0.00015317
0.00015224
0.000177221
0.000286681
0.0790333
0.000159723
0.000151498
0.000149228
0.0507646
0.0214654
0.000160798
0.000167552
0.000147485
0.00014795
0.000152673
0.000146729
0.000186928
0.000161509
0.00014847
0.000149273
0.000148536
0.000147724
0.00014809
0.000147384
0.000325024
0.0311612
0.0527707
0.000206194
0.0260854
0.000188867
0.000153689
0.0259676
0.0187921
0.033508
0.000148526
0.000147296
0.000461736
0.00509083
0.000205225
0.00019975
0.0562634
0.000148541
0.000147699
0.0515438
0.000146783
0.000191664
0.000192173
0.00015086
0.0139648
0.0574504
0.000149715
0.0155512
0.0272255
0.000173397
0.000207633
0.000149136
0.0469662
0.000250837
0.071084
0.00014682
0.000164582
0.0201292
0.000147253
0.000169687
0.00014773
0.000171635
0.000148742
0.0306324
0.000154448
0.000148457
0.000152611
0.000149623
0.0389607
0.000168926
0.000148956
0.000149188
0.0619538
0.000147709
0.000152602
0.000175942
0.000190319
0.000149791
0.000165832
0.000162284
0.000147511
0.000195012
0.00014797
0.000147746
0.000158931
0.000147645
0.000163994
0.0615214
0.000208826
0.000147957
0.0604161
0.0177115
0.000186004
0.0146834
0.000170183
0.000153301
0.0439958
0.000158348
0.000152347
0.000166554
0.000169528
0.000148503
0.000146718
0.000148642
0.000209285
0.0364598
0.0797214
0.0626699
0.000146612
0.000154135
0.000175658
0.000176519
0.0473823
0.000148823
0.0626
0.000149399
0.0209515
0.000145893
0.0389173
0.000150263
0.0652828
0.0270144
0.000183749
0.0536127
0.000164183
0.000146742
0.000166921
0.0115636
0.0670995
0.000156911
0.000149487
0.000147522
0.000148838
0.000159815
0.000149905
0.000151703
0.000146795
0.000176207
0.000147991
0.0668575
0.000149445
0.0425168
0.000145984
0.000193912
0.0642194
0.000150766
0.00923347
0.000147967
0.000156666
0.000148895
0.000149272
0.000147887
0.00018533
0.000185401
0.000146983
0.000152492
0.000147959
0.0591864
0.000161857
0.00022441
0.000206471
0.000148038
0.000173359
0.000151462
0.000150598
0.000161648
0.000148622
0.000166948
0.0723737
0.000148063
0.0592071
0.000155467
0.00014756
0.000146185
0.0278289
0.000147933
0.0755887
0.000177027
0.000149773
0.0176401
0.000188125
0.00899324
0.000157507
0.000153721
0.000148601
0.000174317
0.0630383
0.000148844
0.000166211
0.000148615
0.000189798
0.00036849
0.0215701
0.0735004
0.0478395
0.000157498
0.0200412
0.000148863
0.0445483
0.000221906
0.000157321
0.000236567
0.000179318
0.00014516
0.000162748
0.000147968
0.000146796
0.000152658
0.000147955
0.000581455
0.0002641
0.000195418
0.00107659
0.00014839
0.00192668
0.000148289
0.000147668
0.000169082
0.0578594
0.00014692
0.0387894
0.000168239
0.000188576
0.0216957
0.000149675
0.000168726
0.0278723
0.000162113
0.000148085
0.000189228
0.000147973
0.000148772
0.000149574
0.000270869
0.0599298
0.000155097
0.000148586
0.0355225
0.0716501
0.000149286
0.000149535
0.00127877
0.0798516
0.000149111
0.000183293
0.000182724
0.000147359
0.000163579
0.000145969
0.0634679
0.000147724
0.0916449
0.0770733
0.0739397
0.000153817
0.000157758
0.000147686
0.000146577
0.0183077
0.000146968
0.0265676
0.0616871
0.000173923
0.000146803
0.00014617
0.000208377
0.000187437
0.000162659
0.0857754
0.000181416
0.0021436
0.000152059
0.0580709
0.000315403
0.000158737
0.000187261
0.0843303
0.0196666
0.000148601
0.00589777
0.000146243
0.00506089
0.000223057
0.00022715
0.000145497
0.000166645
0.000148628
0.00025203
0.0483105
0.000151465
0.000150564
0.0884236
0.0397581
0.000148235
0.0448212
0.0165306
0.00104678
0.000149393
0.0814808
0.000148954
0.0136473
0.000148676
0.000151442
0.000149316
0.000148263
0.0262044
0.000715279
0.000146332
0.0442532
0.0198632
0.000144623
0.000146136
0.000161497
0.000165727
0.000188176
0.000167392
0.0319356
0.0471235
0.0544166
0.0828153
0.000187003
0.000150901
0.000192941
0.000181932
0.019044
0.0446259
0.0321652
0.000186154
0.000176681
0.000153521
0.0188305
0.000169115
0.000194389
0.000149163
0.000154226
0.0588486
0.000148545
0.000157509
0.000195037
0.000152922
0.000169466
0.000148403
0.000151546
0.0695073
0.000184451
0.000145996
0.00015412
0.0426271
7.26817e-05
0.000164243
0.000289737
0.0173366
0.000168151
0.00020254
0.0436496
0.000150011
0.0444093
0.000186986
0.0182575
0.000148888
0.000144314
0.0195951
0.0285483
0.033219
0.0822778
0.0362061
0.000161563
0.000182496
0.000152169
0.0370383
0.000148087
0.000148044
0.000171793
0.000179086
0.000177308
0.0320946
0.000150535
0.000480426
0.0388884
0.000150463
0.000185116
0.000159528
0.000177659
0.000185179
0.000168699
0.0344844
0.0415914
0.0385026
0.000300043
0.000162443
0.00014798
0.000151112
0.000159332
0.000336112
0.0325335
0.037839
0.028761
0.000163307
0.000146801
0.000223469
0.000167766
0.0588195
0.000148557
0.0169521
0.000168881
0.0384628
0.000148522
0.0379762
0.000174675
0.000181153
0.000545476
0.000146828
0.02079
0.0313009
0.000146802
0.000179913
0.0488547
0.00015027
0.000240462
0.000152996
0.000151753
0.000149697
0.0612032
0.000169553
0.000251537
0.000161133
0.0736941
0.000146656
0.000144509
0.000147329
0.000148299
0.00014754
0.0811406
0.000188087
0.0396761
0.000149352
0.000146867
0.0790064
0.000160759
0.0317766
0.000185431
0.000148629
0.000232497
0.000157055
0.000168695
0.0405529
0.000158583
0.0216207
0.000208081
0.000155386
0.000145319
0.000179157
0.000144682
0.000199966