/*--------------------------------*- C++ -*----------------------------------*\
| =========                 |                                                 |
| \\      /  F ield         | OpenFOAM: The Open Source CFD Toolbox           |
|  \\    /   O peration     | Version:  v2012                                 |
|   \\  /    A nd           | Website:  www.openfoam.com                      |
|    \\/     M anipulation  |                                                 |
\*---------------------------------------------------------------------------*/
FoamFile
{
    version     2.0;
    format      ascii;
    class       volScalarField;
    location    "150";
    object      omega_0;
}
// * * * * * * * * * * * * * * * * * * * * * * * * * * * * * * * * * * * * * //

dimensions      [0 0 -1 0 0 0 0];


internalField   nonuniform List<scalar> 
10042
(
0.0219127
0.0220472
0.021857
0.0231814
12.8827
0.0220686
5.36049
0.358048
0.0217371
0.022008
6.29392
0.0231246
0.0215353
0.0214975
0.0235228
0.0220297
0.0220212
0.0222586
0.021915
0.136438
0.0219024
0.163602
0.0215956
0.021622
0.0220545
0.0273321
0.0221318
0.0226744
0.0217822
0.02235
0.0220186
6.04997
0.022019
0.0222219
0.025429
0.0216341
0.0267578
0.0303373
0.021636
0.0292171
0.146294
0.0231476
5.56382
0.0220059
13.0585
0.0522881
0.0223193
0.079618
0.0261694
0.0417901
0.0221671
0.022193
0.0231789
0.0226606
0.0267769
0.0220613
0.0217817
0.0222898
0.0222133
0.0230045
0.0220429
0.0220009
0.0256197
0.0218407
0.0222488
0.0222215
0.0220455
0.0744698
7.57147
0.0218867
0.0226194
0.162385
0.0220099
0.032087
0.0220217
0.0216191
12.7181
0.0219247
0.0299351
6.20045
0.0256007
13.1943
0.0219892
0.0227843
0.0220522
0.0222141
0.0218927
0.162251
0.0219504
0.0218944
0.0221154
13.0318
0.0227445
0.0221298
0.022308
0.0218587
0.0219334
0.0218569
0.028741
0.0217768
0.0222908
0.107554
0.349187
0.0222027
0.0225714
0.0510656
0.0219148
0.0219273
0.0219108
0.0214545
0.0217139
0.0218342
0.0253694
6.91617
0.0222383
0.0218474
0.0219432
0.0219206
0.0218563
7.13895
0.0219438
0.324801
0.0220346
0.0219832
0.105708
0.0219943
0.343615
0.0269657
0.049152
0.0218869
0.0309201
0.022015
5.65642
0.173118
0.0217775
0.0570115
5.63972
0.0221252
0.0832247
0.18906
0.0226858
0.0219406
0.0224643
0.149878
0.021881
0.0218337
0.0563915
0.0215437
0.0218691
0.0250785
0.0217556
0.0222555
5.88475
6.32014
0.022186
0.0215302
0.0226005
0.0219927
0.0585237
11.2497
7.11429
0.117412
0.0219856
0.0217571
0.0220469
0.0219964
0.0605487
26.7479
6.60523
7.023
0.0223706
0.0218424
12.555
0.176639
0.0380677
4.69096
11.9231
0.0220218
0.0865085
0.0309783
0.0227404
5.96411
0.0221035
0.0269198
0.0230334
8.17427
0.215931
0.0220368
6.24825
0.023468
3.12186
0.0224616
5.62464
6.09814
0.0889739
1.45587
0.0245877
0.0219259
0.0215349
0.0232292
0.0369859
0.0220719
0.0218268
0.181357
0.0220865
0.0216811
5.00745
0.0221569
0.0222604
0.0222433
0.7887
0.0218857
0.0559713
0.347478
0.0225732
0.226446
0.0219705
0.0219872
0.0627136
0.0217728
0.0254434
0.0227281
0.425171
0.0312077
0.0253287
0.0279771
0.290295
0.0218405
0.151139
0.0227935
0.0217364
0.141692
0.0218506
0.0227675
0.0218829
0.0252412
0.0217084
0.0214835
0.0228983
0.0248104
0.0219926
0.0220397
0.0220042
0.0254409
0.0218476
0.0220271
0.0216246
0.0226302
0.0224965
0.0222689
0.0215366
0.0218774
0.0241689
0.563833
0.117774
7.34541
0.0387012
0.0373506
0.0237111
0.0586813
3.75934
0.0227314
0.0219181
0.0215025
0.0231719
0.021708
0.191682
0.0228837
0.0218889
0.0222509
0.038714
0.0225337
0.31814
0.0379719
0.196399
0.0235596
0.024778
0.0217124
0.0242063
0.0218973
0.0321704
0.0219187
0.0273808
5.80718
0.0216831
0.0218175
3.78217
0.0539164
0.0220088
0.0220418
0.0239013
4.70961
0.0511817
0.156229
0.022182
0.0215312
0.0218414
0.0217509
0.285473
0.0218877
0.0220368
0.0218408
0.0219716
0.0309562
0.0237387
0.0770536
10.6341
0.0227959
2.41872
0.0218498
0.0240361
0.0221232
8.531
0.105305
1.52742
13.6458
0.0216042
0.0229038
0.0218907
0.0239001
0.0280356
0.0222419
0.0322169
0.021708
0.0215
0.0220254
0.0841387
0.022284
0.02321
0.0219776
0.0235831
6.68578
0.0218502
0.0221764
0.021988
0.0218167
0.0412809
0.088786
0.0372206
0.548583
0.0313031
0.0261136
0.021994
0.0214795
0.0221757
0.0222681
0.40951
0.0219192
0.0222244
0.087051
0.0218292
0.0245785
0.0229
0.0918957
0.0218529
0.0251263
0.0461112
0.0319867
0.0231382
0.0219317
0.966262
0.0572514
0.0221671
0.0408858
0.0219468
0.021854
0.0219447
0.0245002
0.898655
0.0236631
0.0222495
0.0227737
0.0222923
0.0222711
0.134466
0.0219296
0.0216168
5.78273
0.0218384
0.641006
0.4207
0.03268
4.55247
8.42932
0.027532
0.145158
0.0221587
0.0430894
0.0222914
0.022232
0.183051
0.0220641
0.0241344
13.5269
0.0220139
0.0219038
0.0504997
2.42395
0.0221501
0.0215419
6.17051
0.106602
0.021839
0.0749197
15.6758
0.0217717
0.0222642
0.0216399
0.0218715
0.0214804
0.0216765
1.38259
0.418418
0.0222693
10.4554
0.0214997
0.0218874
0.639403
0.0219743
0.831809
0.0549626
0.0227988
0.0215894
0.0215348
0.145024
0.0224496
0.0275374
0.0223545
5.81144
0.0224586
3.69861
0.0233391
0.0219342
0.0218475
0.741362
0.0219498
0.0256977
0.0218746
0.0218348
7.80333
0.02468
0.0219325
0.0217472
6.74692
0.021879
0.0249668
0.0231614
0.021713
9.29568
4.64921
0.021883
0.0221861
0.0237693
0.021536
0.0220066
0.0219721
6.50651
0.0219955
0.0217497
0.0283364
0.333556
0.0566718
0.0222686
0.0305918
20.7345
0.0323464
0.0219381
0.0219371
0.172896
0.0221125
0.0219404
0.0291953
0.0217748
0.0216775
0.0228771
0.0215677
0.0379078
0.0219121
0.0219538
8.00834
0.0217633
0.0223192
0.0220662
0.0222904
0.0320464
0.0218872
0.0217986
1.54309
0.0224643
7.43275
0.0227072
0.022282
0.0222767
0.132149
0.0219135
0.0219375
0.0220127
0.0222259
0.0276205
5.77939
0.0218826
0.037659
4.89007
0.0322166
0.0222613
0.0219587
0.0219808
0.0222036
0.0218609
2.23573
5.75579
0.022074
0.0269894
0.0266698
0.0262866
0.0220297
0.0216608
0.288255
0.141901
3.56852
0.0215856
0.0220174
0.0219412
0.0218433
7.85067
0.03376
0.0222322
0.0218355
0.0217995
0.0219978
0.310519
0.0246673
0.0221395
7.91442
1.51604
0.466338
0.051916
0.0220142
0.0217843
0.047409
0.0512611
5.24341
27.3927
0.0246633
0.026004
0.0222109
0.0231605
0.0221706
0.0222002
6.51551
0.0216181
0.0218532
0.0495229
0.0222108
0.201867
0.0225682
0.115395
0.0289187
0.0222453
0.0228063
0.0254178
0.0335945
0.0519156
0.0846453
0.0222825
0.0417159
0.0227658
0.0218587
0.0221189
0.0222025
0.0220344
0.0249193
0.0567932
0.0411043
0.0221428
0.0225141
0.0220085
0.0219193
0.132387
0.0219288
0.0231401
0.152016
0.0215696
0.0513817
0.0619051
0.0220391
7.94954
0.0374984
0.0222104
0.245623
0.0219311
0.0222687
0.0219712
0.0219798
0.0222924
0.023581
0.0220055
1.07186
0.0226879
0.0219634
0.0221452
0.03245
0.0308061
0.0219784
0.0235799
0.0217851
0.0295319
0.0219415
0.0290588
0.0216208
0.022963
0.0215335
0.0219312
9.84399
0.0216463
0.118174
0.0219673
0.0224885
0.0217449
0.0304309
0.0220746
0.038999
0.0220042
0.218924
0.0222625
4.49697
0.02154
0.0234255
0.0222717
0.0219878
0.0219582
0.023542
0.0220338
0.126952
34.9803
0.204569
0.0233591
0.0362888
0.0218192
0.0381801
0.0522055
0.0220114
0.0288697
0.089119
5.90264
0.0624899
7.15883
0.0260721
0.0221116
0.0222317
0.0239676
0.0235602
0.0314641
0.0216086
0.0231721
0.106846
0.0222649
0.0219202
0.0238396
10.2819
0.0232685
0.0294823
0.0471691
0.022252
6.17258
0.0216244
0.021829
0.0223742
0.0217813
7.41007
0.0583648
9.86208
0.0220568
3.98832
11.3187
0.376151
0.0312949
0.058791
0.149417
0.0401296
0.0219782
0.0218789
0.0300013
9.5943
0.0218119
0.0290097
8.49185
0.021907
0.0219074
0.0218654
0.0228323
0.0219502
0.02189
0.129994
3.59363
0.0218682
0.0219978
5.64424
4.61574
0.0218231
0.0219417
0.0221551
0.0218751
0.694702
0.0582303
0.304585
0.0225707
0.0219018
0.0217359
0.0227697
0.0220517
0.0298336
0.0225993
10.7638
0.0220047
0.0220751
0.0401809
0.0218076
0.0298841
0.0667203
0.0226757
34.003
8.4319
0.0221162
0.0218573
4.86666
7.74327
0.0350629
0.0219082
0.360933
0.196726
0.0256412
0.0219611
0.0219948
0.0219223
0.368791
0.0233397
0.0956667
0.0222687
6.60255
0.825939
0.0219615
0.0219872
0.119531
0.0221502
0.0217422
0.0248778
6.87267
5.56098
9.22797
0.0222215
0.0527378
0.038387
0.0216477
0.0218624
0.0221942
0.349083
0.0222063
0.021958
0.0526022
0.0220194
0.0620298
0.0221116
0.0221061
0.0216937
0.0221511
0.157716
0.0221994
0.0218727
0.0376334
0.0561772
0.438268
0.0222105
0.0860515
3.94758
7.33506
0.022907
6.81557
9.01615
0.0219084
0.021547
0.0226203
0.023262
3.59808
0.0232156
0.0221228
0.0222065
4.83585
0.0370125
0.0221761
0.0221424
0.0219374
0.0411686
0.0217559
0.0218334
0.028817
0.022773
0.0222048
0.0217468
1.542
0.0218182
0.022689
0.0220289
0.0223235
0.152916
0.0222035
0.0229765
0.0220711
0.0242299
0.853641
0.0222919
0.394523
0.0253931
4.31298
0.0216728
0.0232233
0.0283998
0.0857511
0.0507708
0.0225907
8.24603
1.55296
0.0224969
0.0217976
0.387774
0.0220787
0.0222514
0.0217308
0.0222421
0.0475164
0.0222928
0.0222931
0.0657982
0.0279678
0.0229786
0.031134
0.0227349
10.469
0.0228266
0.929776
0.021868
0.0495603
0.0365583
7.70693
0.0235981
7.14343
0.0222696
0.0242161
0.0220421
0.0220648
0.0219179
0.109537
0.0401963
0.0399764
9.1555
0.0221197
12.2838
0.0244104
0.0217583
0.0312673
0.0284637
7.72416
0.0219817
0.0277973
0.0515502
0.0231848
0.0416784
0.0222838
0.0215789
0.0222833
0.354736
0.0221338
0.022003
0.0217386
0.0217281
0.0219355
0.0219873
0.0222192
0.0218521
0.0221512
0.0224557
0.0250173
0.0306407
0.0219903
4.93892
0.0219663
3.1299
0.0370133
4.61917
0.0345773
0.0240876
6.52303
0.031302
0.367471
7.06515
0.0407039
0.0221996
0.0218468
0.022804
0.156097
0.02187
7.0421
0.0218729
19.0207
4.85263
0.044915
0.0225665
7.00771
6.17028
0.0231639
0.021979
0.0222642
0.0235845
0.021569
0.0216727
0.0569378
0.187695
0.0220776
0.0218637
0.022356
0.741868
0.0501137
0.0221565
0.0247954
0.0829908
0.0224117
0.0220258
6.41706
0.0222733
0.0218853
12.2908
0.0238493
0.0219556
6.05843
4.6829
10.4174
0.0219165
0.0230949
0.346677
0.0217375
0.0218451
0.0222845
0.0268015
0.0220421
0.0221117
0.0229454
0.0461907
0.194334
0.0217856
0.0219415
0.022079
0.0218121
0.0225131
0.0216029
0.129644
0.0282818
0.0219677
0.021983
0.0217692
0.0219746
0.0223173
7.24199
0.027017
0.0215357
0.0219281
0.0409601
6.98621
0.0220421
0.0219816
0.0220286
0.0215412
6.63342
0.0399319
0.0217413
0.022067
0.0278914
0.109911
0.0221694
0.022283
0.0247408
0.0219452
0.024671
0.0223376
2.6918
0.0339776
0.0220686
0.0252613
12.4476
0.0279982
0.126903
0.0247684
0.3601
0.0222711
0.0220411
0.024215
0.0552919
0.021905
0.0217705
0.0222441
0.0224251
0.110186
0.126596
0.316108
0.0224373
0.0219921
0.0279559
0.0219781
0.0219743
2.10844
0.0235384
0.0219572
0.0219833
0.321348
0.745286
0.0219908
0.0220546
0.0800107
0.0217571
0.0221035
0.0219349
0.0775279
0.0228347
0.0246902
11.1448
0.0222434
0.0221685
3.76715
0.0219063
0.176853
0.0218943
0.0231693
0.0416176
0.0220003
0.0220892
0.0221053
0.0230982
8.20972
0.0219216
0.0221354
0.236013
0.0255132
0.26928
8.71998
0.0465014
0.0222125
0.464656
0.0218054
5.23976
0.0221681
0.0219961
0.021724
7.35927
0.0222126
0.0223347
0.0221601
0.0304001
3.2759
0.0277866
0.0474551
0.0219147
0.0221354
0.0356599
0.028187
0.0218365
0.02472
0.0218911
6.58963
5.86991
0.0221388
0.0229159
0.0222234
0.409696
0.0221572
17.9564
0.0219785
0.0217969
0.021737
0.0223285
0.0233313
0.0222715
0.0219891
0.0220059
0.390807
0.089374
0.0218492
0.0238723
0.0233438
0.0407051
0.0218127
0.0257664
0.0227562
0.0219713
0.023196
0.0277846
0.0222802
0.0219127
0.0265618
0.0217348
0.165308
0.0229338
0.151232
0.0221198
0.0220364
0.0217917
0.0571595
0.0390888
0.0217713
0.0238871
0.0634299
0.0224248
0.0217748
0.0249025
0.0222247
10.5543
0.240938
0.0246771
8.22945
0.0230969
0.0308381
0.0855736
0.0372535
0.0295446
6.16832
0.0271564
0.10557
0.021958
0.0227526
0.0218491
0.0219524
0.0253757
0.0217588
0.209398
0.0219847
0.0220062
0.0761532
0.0219417
0.0467008
0.024497
0.0251486
0.0218763
0.0423524
0.16789
0.0214213
0.0287945
8.25028
0.0422415
0.0217375
0.0271756
0.021993
0.0217755
4.93508
0.0218343
0.0217843
0.0455747
0.0219606
0.0253108
0.0217495
0.0219997
5.59681
0.0218424
0.0216674
0.0242719
0.0219151
0.0215274
0.0222519
6.60721
0.0221553
0.0220844
0.0215763
0.0707708
0.0224066
0.0242473
0.0219291
0.0342311
0.0226258
0.0219077
0.0227632
0.0220996
0.0217806
0.122972
0.0405728
0.0280778
0.0234564
0.0438537
0.065658
0.0273776
0.0280616
0.0229079
8.35122
0.0219419
0.0219616
0.0219231
0.0222384
0.0351782
0.0218919
8.43639
5.70725
0.782056
0.0220839
0.0242752
0.0385593
0.0215367
0.0908958
0.0469873
0.972768
0.055075
6.84276
0.0658409
0.13566
2.99297
0.0279168
0.0226746
0.0248012
0.0217773
6.5938
0.0224443
0.0290546
0.0218023
0.024883
0.022043
5.9024
8.10129
0.0222039
5.93678
0.715871
0.139847
0.0427478
0.062516
0.0216713
7.76327
0.0219754
3.34153
6.27611
0.0222046
0.0219145
0.0220009
0.0233301
0.0239715
0.0335019
0.158573
0.0221251
0.0220374
0.0246746
0.0222493
0.0220358
0.0258308
0.0218381
0.0220578
0.165364
0.0588588
0.0220395
5.89421
0.0225981
0.0222724
0.0234404
0.260429
0.0219404
0.021734
0.10125
0.196396
0.0217811
0.0248216
0.651891
0.0503476
5.93757
0.0217832
0.125156
8.1388
11.3315
0.0220821
0.0219269
0.0523615
0.0260904
0.0405622
0.0223187
9.6623
0.0456142
0.166308
0.0220515
0.0219756
6.14278
0.144763
0.0221499
0.0222725
7.58785
0.0219246
0.0216005
0.0217722
0.0230963
0.0221971
0.0295159
0.0221241
0.0231997
0.0216249
0.0298227
24.58
0.0589003
0.0326603
9.89939
0.0716746
0.0216463
0.0217736
0.0218568
0.0222837
0.127015
0.029671
0.0220036
0.0219881
0.0219723
0.0216099
0.032146
0.0216189
0.0484577
0.0234318
0.0221237
8.71926
6.02789
0.0221019
8.71003
0.0336366
0.0323
0.0222645
0.021627
10.5471
0.0694105
0.0219213
0.0217306
0.0219347
0.0256653
0.0222626
0.116747
0.0215255
0.0220582
0.0219944
3.11746
8.22637
0.0215231
0.0220091
0.160283
0.522223
0.0245668
5.72189
9.92984
0.0217508
0.0221421
0.0221424
0.0229993
3.39244
0.022036
0.0222844
0.197495
0.0877738
0.0222127
0.0219451
0.0739459
0.0222837
0.0220735
0.106785
0.0718161
6.66499
0.0219825
0.059445
0.0411037
0.0487052
0.0231058
0.0272225
0.021937
0.022004
0.125935
0.0256407
0.0219952
0.0245765
5.99677
0.0215435
0.0218168
0.0215356
0.0775364
0.0219456
0.0220863
0.0214429
0.0219444
0.7405
11.1826
0.0222289
0.6509
7.49202
6.08042
0.0219352
0.0219516
0.021832
0.0218962
0.0221161
0.02215
0.0216294
0.0220825
0.0217817
0.0242891
9.63008
0.0357865
0.198807
0.0276174
0.0220296
0.0231325
0.0317479
0.0221858
0.0218512
0.0396774
0.0315114
0.564986
0.0373729
0.021505
8.84447
0.0226664
0.0214986
0.0218489
0.243743
0.0395599
0.0227761
0.0253953
0.0220724
0.0220935
0.0321628
0.0363548
0.0261474
2.23148
0.0220827
0.0220303
0.697669
0.036871
0.0249931
0.118044
0.0228897
0.0662656
0.226423
0.0627988
9.34284
0.0218364
0.0217268
0.021939
0.0220474
0.0220946
0.0229663
0.0364275
0.0422448
16.4796
0.0220729
7.86331
3.06967
0.023673
1.58658
0.0222326
0.0900882
8.42691
0.0219103
0.0844075
0.0215636
2.04303
0.0221979
0.16897
0.0218648
0.455783
0.0335899
6.05927
0.0218495
0.144836
0.0216316
0.02289
0.227374
0.0218406
9.24535
8.26501
0.216612
4.00129
0.0824912
6.80501
0.0381261
0.022016
0.0448513
0.0436
3.80945
0.0220764
0.0220171
0.0225541
0.0470708
0.0219564
0.022238
0.0222174
17.804
3.45617
0.0219208
7.10644
0.059182
0.0217308
0.0376552
0.027249
3.52631
0.0292868
0.0217724
0.737871
0.0220716
0.0219369
0.0220896
0.125311
0.0571701
0.0217812
0.0265213
0.0221105
0.0222608
0.021794
11.4371
0.0222857
0.0218145
0.39424
0.190852
0.0235866
0.0218035
2.96386
0.0282155
0.0232351
0.0219544
0.0520996
0.0229213
0.0255583
0.0245954
1.54451
0.04318
0.0553742
0.0214984
0.0287728
0.0387693
0.0260074
0.022393
10.0403
0.0222527
0.125267
0.0218896
0.0221941
0.0283147
0.157499
0.0231612
0.0244658
0.0221137
0.0371501
0.0590735
0.07377
0.0278391
0.0222924
0.0219646
0.0281146
0.0702443
0.0219367
0.0393437
0.0220131
0.0219392
5.75428
0.0218956
9.92322
0.0219446
0.0271235
0.0614712
0.0219429
0.0266867
0.0816536
0.0972788
0.0219473
0.0664113
0.0224101
0.0222637
0.0219074
5.69392
5.10309
0.0219076
0.0219309
0.0216173
0.0218174
0.0832645
6.09358
0.0219355
1.52981
0.021735
0.021799
0.021892
0.302153
0.0227373
0.023791
0.021947
0.0219598
0.0219262
0.0222569
0.0222596
0.0304042
14.869
0.0216236
0.0219262
0.04204
0.0660978
0.0217997
2.28995
0.0503465
0.0217943
0.0215241
0.022102
0.0964426
0.0217366
0.0656714
0.0282768
0.0231219
0.0217914
0.0427024
0.0215296
0.144629
0.0276589
0.02239
0.493703
0.424525
0.0214286
0.0218641
7.44741
0.113202
0.0683811
0.0235584
0.0657219
0.0215548
9.00249
0.0534623
0.0217497
2.04866
4.59574
0.0231847
0.0433964
0.0500677
0.0217662
11.0165
0.0221933
0.0256694
0.0291889
0.0222587
0.0220493
0.0528233
0.0218708
0.0218884
0.0218697
6.41423
0.0218489
0.0219379
0.0217544
0.0218887
0.0218592
0.0222307
0.0465205
0.0459366
0.0231334
0.0222503
1.66725
0.0222608
0.0218345
0.0218988
0.0216151
0.0220842
0.0219712
0.0270139
0.0788203
0.0222245
0.0289156
0.0504552
0.0217398
0.0275416
6.06602
0.0225968
0.0215362
0.0220789
0.0858723
0.0222034
0.0222032
0.0241637
0.0248064
1.01095
12.8567
0.0218246
0.0218629
0.0219412
0.0705761
0.0232399
0.0218026
0.0283618
0.0763303
0.0221779
0.0269094
0.022133
0.106938
0.155669
0.022626
0.134275
0.02559
6.10675
0.0222057
0.0218928
9.54893
0.123086
0.0241963
0.125232
0.0959506
31.8227
0.0463649
0.748356
0.024932
0.0241145
5.73814
0.0266504
0.160768
0.0274764
0.128119
6.15396
0.0222933
0.0221456
0.0219748
0.404864
0.021451
6.167
0.0328698
22.4656
0.022987
0.123565
0.201126
0.0219469
0.0222019
0.0821191
0.0293315
0.022088
0.0240848
0.0799966
0.0705834
0.0745903
0.0914055
11.2939
0.152914
0.0221153
0.0222016
8.10831
0.0785715
0.022591
0.0378561
6.01514
0.0222216
0.0233447
0.0219396
0.028678
0.0220387
0.0221053
0.0392449
0.0221158
0.0227095
6.2537
32.5458
0.0217301
0.025765
0.0257069
0.204256
0.0430906
0.0222705
0.0219251
0.108485
21.6644
0.0219299
0.0252404
0.0220495
3.97477
0.0218353
0.0295535
0.292337
0.259177
0.0222725
0.148348
0.0879428
0.053563
0.0256619
0.0220207
10.4875
0.0218203
0.0250742
0.0222502
0.0270261
0.0216082
0.0216215
0.0220553
0.0635172
0.0218253
0.0219772
0.0217698
0.0219454
0.0218685
0.0220102
0.0853521
3.83299
3.59126
0.0247715
0.0220562
0.0322523
0.0233326
8.6871
0.0222852
0.191962
0.0216267
0.0219953
0.0223055
0.0338157
5.78637
0.0219585
5.80065
0.0221657
0.0215253
0.0229498
7.19019
0.0233676
0.0456216
9.45141
0.0222849
0.0221972
8.05092
0.0218914
7.63708
0.0220879
0.0294478
12.3542
0.0224239
0.022096
0.0218571
9.38313
0.0254706
0.0218725
0.860705
0.021957
0.0224931
0.0791037
23.5946
0.211687
7.92267
2.96424
0.076358
0.0234607
0.200631
0.229099
0.0217871
0.021866
0.0228168
0.0254155
0.0816418
0.0219882
0.0254202
0.0219027
0.0219588
3.41628
0.0222256
9.24357
0.0215607
0.0287259
0.0520311
0.021826
0.0215189
7.02195
8.71412
0.0630403
0.0220794
0.0247198
0.0438964
0.0217686
0.0315774
0.0953328
0.0360329
0.023372
6.99226
25.7916
0.0215476
0.0221334
0.0216528
0.0221947
0.0225429
0.0256442
22.5015
0.0221205
0.0219617
0.0374879
20.3724
0.021569
0.747314
0.0215924
0.126146
0.0537297
9.83541
0.0561791
0.0545954
0.0574422
0.0215152
0.0215116
0.240069
0.0253125
0.0220863
0.810121
0.0218326
0.0220832
0.0216245
0.0466664
0.239049
0.628586
0.155587
0.0267087
0.0291995
0.0219473
11.897
0.158689
0.0229692
0.0219723
0.0217355
0.0755585
11.2751
0.0361356
11.4166
0.0229338
0.0217734
5.71945
0.0219509
8.4775
9.67812
0.0217014
0.0293293
0.198259
0.0241631
0.0361625
0.0218267
6.47739
0.0252737
0.173888
6.12612
4.86927
0.0263815
0.0261798
0.0221359
0.158558
12.4325
0.0226639
0.0235149
6.60638
0.0501093
0.0693449
0.0222636
0.939688
5.80953
0.101064
0.0219564
0.0254402
0.0218933
1.91538
0.0680772
0.0321029
7.05386
5.82079
0.0215154
0.147105
0.0221002
1.97
0.0979311
0.0252042
0.0242604
0.902378
0.021403
0.0528233
7.23287
7.67204
0.0229505
0.0220306
0.0217903
0.0926273
1.11408
0.173713
7.71967
0.0764647
0.0409157
0.0217809
6.50327
0.071741
0.0283302
0.209248
5.90951
5.99022
5.69389
9.58973
6.45652
6.16832
0.022066
0.0290037
0.0321263
0.0218803
11.6698
0.752275
0.0220187
6.82295
0.0221294
0.0219909
0.0217722
0.0294415
0.0218672
6.15747
0.0629624
0.181106
0.0216969
0.599868
0.048671
0.38807
5.73277
0.0224699
0.0264063
0.0379696
0.068925
0.0217484
0.0216203
0.0218889
5.68761
0.0217808
0.0217565
0.149524
0.022944
20.6896
0.0220455
8.84527
0.0219499
0.0220599
0.0219591
0.0219874
0.0254237
0.0242295
10.1924
0.031255
0.0325523
9.81837
0.0218202
10.2025
0.0217971
9.33454
0.50177
8.14749
0.061175
0.0219759
0.0222727
8.75438
0.0219798
0.0250812
0.0221112
0.0276405
9.20326
0.0218839
0.021849
0.0218807
0.0222653
6.71937
11.172
0.0218223
0.0214432
6.45758
11.5916
0.0218624
4.48548
0.0222645
11.0757
8.05952
0.0585565
0.409511
1.14957
0.0894186
5.69288
0.0662419
0.0219841
0.0215441
0.0217854
10.2793
11.0248
0.0229309
0.0284008
5.66553
0.0218399
6.06531
0.0218031
0.0218931
0.0216218
1.8797
0.0620968
0.0217431
5.86993
0.0222527
1.47411
6.77474
0.0217297
0.02211
0.109334
0.0219527
0.0219499
0.0218293
4.83404
0.0320192
0.0220307
0.0221302
3.93583
0.021946
0.0410631
0.0219833
7.65964
0.0221013
0.109855
0.0236177
6.11807
5.68799
0.0308056
0.0704276
0.0520251
0.0220734
0.0784377
7.26281
0.021737
0.0763775
0.0217666
0.569478
0.0218942
8.278
3.84762
0.112845
5.74324
6.01343
0.0416093
0.0223693
1.21762
0.0219303
12.738
0.025403
0.973047
0.0218715
0.0327878
0.0471607
0.0305801
0.0221196
0.0219445
0.0221958
5.85648
0.0693227
5.64443
4.48293
0.0277162
0.0216198
0.0558353
11.255
0.0338006
0.0217709
0.0220795
3.64272
1.48919
8.61085
6.74934
0.0354247
0.0222897
0.0217784
0.0486059
0.050194
0.678022
0.0219969
0.0220681
37.2022
0.0636621
0.0222854
0.0550343
0.748962
0.0981721
0.0216083
0.0494095
0.595343
1.08677
6.35567
0.186028
0.0218785
0.0222694
0.0220948
0.022285
0.0219654
0.0220897
0.0335046
0.246492
0.033424
0.0259818
0.028759
0.0221879
0.0261669
0.0223684
0.0349484
0.0329316
0.0218202
0.0281092
0.0219008
0.0218404
0.022487
0.0221202
0.458029
0.0215922
0.0811018
0.609933
0.6305
10.7367
6.40756
0.0223815
0.0222368
0.0218997
9.7898
0.0218553
0.0214725
0.0221746
7.59358
0.0313739
0.0325888
0.365477
0.0233904
0.0220313
0.0293926
0.0218768
0.0492116
0.0222855
0.0343576
0.0217865
0.0219372
0.0228885
0.0235019
0.0242678
0.583067
0.0348364
0.119074
0.0580972
0.105048
0.0435827
0.0663407
0.0218297
5.97633
0.0246166
0.0267006
0.0219426
0.0224841
0.133503
0.0219831
0.0660264
7.92266
0.0295
0.381692
0.105595
0.0550711
0.0716296
0.061826
0.0219304
0.0282444
0.0220893
0.0805927
0.0516144
9.46528
0.0217603
0.0478278
0.0265306
6.43401
0.292798
0.0443091
0.0220968
0.0514232
0.0215733
0.0630126
0.0227212
8.10445
0.0216538
0.0259725
0.0220147
0.0361252
0.106008
0.0304874
3.03896
0.0220384
0.0279318
0.0626319
0.0220137
0.983833
10.6518
0.141061
0.0455619
0.0469272
0.0217804
0.0217459
4.69406
0.105568
0.0216221
0.0223209
0.0251137
0.021908
0.455831
0.0217776
9.97137
0.145555
0.129713
0.0374594
0.0223344
0.0216643
0.0217974
0.163316
0.0851013
0.0267489
5.83562
0.0221742
0.0231553
0.0273637
9.74128
0.0215042
0.277055
0.0214032
8.77413
0.0219076
0.0218993
0.0386069
0.0219838
0.0222371
0.1316
0.0220906
0.0223089
0.0217558
0.0439937
0.0254537
2.7695
0.0219905
0.0221116
0.0218463
0.116915
0.0218058
0.0287546
0.0384547
8.12947
8.30498
12.2409
0.919207
0.427178
0.0407916
0.0645869
0.0274262
0.0222515
0.0221203
9.87466
0.0591046
0.0215423
0.0219619
0.0219526
0.0264057
0.0830993
0.022252
0.0304181
0.108885
0.145145
0.125462
0.0219646
0.0222377
4.40415
0.02328
0.0215833
5.24828
4.74705
0.0216951
0.0214332
0.0268969
0.0220535
0.0386997
0.0222485
0.668308
0.0222728
2.66831
0.0219492
5.76802
0.0294801
0.021953
0.0519191
0.0215882
0.0219195
0.022265
0.0317413
0.510328
0.0218617
0.148998
0.0222856
0.0221998
0.12044
0.0216851
0.0221283
0.0221021
0.0214713
0.0219673
0.0215069
0.0221666
0.469544
0.0218572
0.0217335
0.0586644
0.0216284
0.0219353
0.0221678
0.0221303
10.2713
0.432428
0.0219945
0.0226172
0.0218752
0.0222856
0.145987
0.022055
0.0219826
8.09656
0.0219584
0.0436031
0.0478731
0.0383774
0.0218247
0.17133
0.021917
0.248393
0.0713083
0.0218412
4.63409
2.45916
0.0283965
0.130586
0.0218369
0.0218758
0.0461227
0.172125
0.0217483
0.0218557
0.0221539
0.0403986
0.0221028
0.0363385
0.0221105
0.0463602
0.413559
0.0396242
0.137638
0.0218475
0.023993
0.0228205
0.0236298
0.0216896
0.0219048
0.0228515
0.0234843
0.0704395
0.022366
0.076395
0.0218532
9.52723
0.0215237
0.0217766
0.0712817
0.0222718
0.105916
0.0711627
0.0374035
0.0218956
0.0228612
0.0218966
0.0373009
0.0220915
0.0569041
0.0248398
0.022165
0.0216731
0.0275012
8.67621
0.031799
0.0531163
6.11224
0.361586
0.0390919
0.0215753
9.05775
0.0219521
0.0232641
0.0224254
0.0893344
0.0218933
0.0355797
0.0279323
0.0235465
0.0221217
0.0252616
0.0222001
0.0555871
0.0219317
0.0221861
0.0219597
0.0281514
0.555042
0.0219956
8.12727
0.0893558
0.0214541
9.58211
0.264077
0.0217878
0.0230443
0.0710217
0.0217951
0.021906
6.10629
0.0220271
8.44593
0.0256164
0.0245095
0.0226837
0.0222715
0.0219239
0.0217985
0.0628754
0.0225587
0.0219588
0.021921
0.0221804
5.84619
0.0367659
0.022042
0.029191
0.130843
0.0686467
0.0218815
0.0219844
0.0219633
0.0247846
0.0228266
0.0224351
0.0260629
2.34995
0.02178
0.0228501
3.88247
0.0245169
0.0837903
0.144846
0.0218787
0.0222703
0.226934
0.0772576
0.150135
5.93644
8.74367
0.156522
1.06571
0.0217566
0.0229463
0.0216832
0.0221872
6.69129
0.0219977
0.0517986
0.0542997
0.0274804
0.0250796
0.534807
0.0219039
0.0221163
0.0251229
0.0219344
0.0220492
0.0217486
0.0220044
0.0630421
0.0219387
0.0221592
0.0217857
0.0466982
0.0221325
9.93127
0.0219188
0.0227798
0.0218144
0.0222524
0.0227168
0.0219531
0.0378033
0.022988
0.02193
0.0280168
0.0220119
0.0222649
0.021998
0.0312851
0.0222505
0.0220327
0.0220459
0.0220591
0.0273201
0.0220196
0.0220073
0.0909469
0.0220739
0.0219278
0.0234301
4.40673
0.0485581
0.022268
0.0454521
11.5892
0.098532
0.168651
0.0239546
0.0227488
0.02578
0.208787
0.0220443
0.179969
0.0224391
0.02189
0.0281116
0.02205
0.0670926
0.0726773
0.0617151
0.0229161
0.0219521
0.028164
0.0273201
0.0229518
0.0241479
0.0231214
0.0450294
0.0780409
0.0619907
0.02194
0.0235497
2.1261
0.0231655
0.0222854
6.47273
0.57219
0.0219516
0.0223274
0.0229371
0.0719449
10.7695
0.0219564
0.325967
3.78602
0.0389821
0.056735
0.0216719
0.0234101
0.0225307
0.0733711
0.0222323
0.0297256
0.0231287
0.225037
0.022194
0.0220611
8.20321
0.0232045
0.0230363
0.0221357
0.022213
0.0378035
6.10564
0.0277858
0.022043
4.01181
0.0771046
0.0222313
0.0219668
0.0218327
0.0240679
0.0217072
0.147735
0.0218679
0.0242033
0.0250547
0.052195
0.026298
0.0218296
0.0272218
0.0241483
0.02183
0.0798643
0.0219352
0.0232079
0.0216903
0.0222721
25.8148
0.0274972
0.0222101
5.69768
0.0226426
0.021949
1.70832
0.0582176
5.65062
0.0219307
0.0228221
0.0218767
0.022466
0.0229513
6.3721
0.0223813
0.07851
0.0217631
0.0220622
0.0233257
0.021937
0.0371017
10.2437
0.538519
0.0219493
0.0217217
0.230809
0.0225822
0.0221048
0.0263758
0.0260676
0.444728
0.085104
0.0227274
6.43466
0.0716682
0.0224188
0.021733
0.0221648
0.0285797
6.34431
0.022284
0.0544777
0.0225767
0.0220895
0.0215744
0.0222649
16.0838
0.0270808
0.021761
0.0237556
0.0220946
0.0254567
0.0214425
0.0229412
0.0219502
0.0227162
0.481763
0.0220513
0.0222135
0.0844467
0.021608
0.0215674
7.35948
0.021879
7.13659
6.13202
12.182
0.0265968
0.0221524
0.0215086
0.0221392
0.0214814
0.0236156
0.152522
0.0459122
0.469799
0.0782625
0.0240699
0.0215979
0.0227753
0.0225725
0.0222727
0.0221426
0.0215575
0.0770378
0.0224355
25.008
0.0222756
0.0226906
0.0222637
0.0220318
9.09528
0.151576
0.0287867
0.0215066
0.0478499
0.0228806
0.0219698
0.0666772
0.0214531
0.0230613
9.29556
0.0219582
0.0219036
0.0219018
7.64701
5.65976
0.0216297
0.0225749
0.023987
0.0221167
0.021651
0.0219594
0.0220758
0.0219142
0.0218532
0.0218983
0.0238178
6.9407
0.0386421
0.0219356
0.0219339
0.0222323
0.0220907
0.0221776
0.0260035
0.0276768
15.9118
0.0252808
0.0221929
0.0225491
0.0219455
0.082888
0.0216037
0.022224
0.0232901
0.0283214
0.0268106
10.9453
0.0221146
0.0283187
0.0226342
0.0225688
0.0221039
0.0216021
0.0227744
0.0965573
0.142764
0.0217385
0.0341132
0.0698122
0.0222649
0.0350197
0.0379181
6.63559
0.0222494
0.0235492
0.0224093
0.0215958
0.0682126
0.0219573
0.021997
0.0441949
0.170356
0.158113
0.0217706
0.0219219
8.07226
5.80516
0.0215883
0.972291
0.376734
0.021824
0.0215894
0.0217195
0.0220848
0.0221405
0.021551
0.0281774
9.02299
0.0217797
0.0219577
0.0216964
0.0221578
0.0218002
0.0218443
0.0215421
6.75184
0.0219959
0.177658
0.0221743
0.0218072
0.0228071
0.0218424
0.0221759
0.0276026
0.0221551
0.0223381
4.5292
0.0219904
0.0243979
0.0220259
0.0219863
0.0221405
0.0218184
0.0979962
0.0220564
0.0221059
0.0219899
0.184571
0.0297874
0.022129
0.0221755
0.0219381
0.0229143
5.82943
0.0233783
0.0236921
0.0219494
0.0221227
0.021955
0.0503414
0.0229942
0.0226807
0.430776
0.0435602
0.0218133
0.0245769
0.0220031
0.0223051
0.0218236
5.89245
0.0219594
0.0220578
0.021811
0.0299835
0.0232089
0.0226844
0.0219336
0.0217954
0.0571701
10.6039
0.0218232
0.0570985
0.023463
0.0233779
11.9882
0.0217528
0.0219826
0.0219491
0.0234389
0.023006
0.0217934
0.0242083
0.0219061
0.0847706
0.021522
0.0217217
0.0244391
0.0221426
0.0855582
0.0249647
15.7796
0.0592454
0.0222126
0.10679
5.73518
0.0224351
0.024094
0.0220682
0.0253704
0.0217856
0.0360357
0.0430973
0.0218853
0.0292014
0.0218118
5.71357
0.0221778
0.0233279
7.20586
0.0380824
0.0236763
0.165583
0.0221563
0.0219947
5.73272
0.0217483
12.2532
0.0218487
0.0218687
0.0624018
3.63965
0.0219131
0.0435225
9.63904
0.0218568
0.0221752
0.022008
0.0261581
0.0248429
0.0226797
0.0220038
5.65971
0.0219619
0.0224984
0.0219388
0.0219107
0.0220348
0.0232534
0.0286584
10.4522
0.0222319
10.326
0.0219398
0.0225367
0.0245192
0.0224941
0.0511913
0.0552701
0.0223493
0.0219341
0.0218277
0.0756496
0.0217245
0.0218365
0.507477
0.125698
0.0217205
0.0220011
0.0217792
0.0220881
0.0246138
0.0837103
0.0219637
0.0221265
0.0217491
0.0221273
0.0219623
0.0215103
0.0259121
5.36967
0.0217016
0.0221748
4.42623
0.0219077
0.0380532
0.0220683
0.0283364
0.0487121
23.9941
0.0222612
0.0220541
0.0217917
0.0221206
0.0220412
0.0214525
0.0221444
0.0221266
0.0230433
0.0474876
0.0244569
0.023264
9.92368
0.0220278
0.156071
0.0217291
0.0218325
0.0220151
7.83131
0.021845
0.0523697
0.0228497
0.0225915
0.0219338
0.0217553
0.021798
0.022278
0.0218532
0.0218198
0.0478277