/*--------------------------------*- C++ -*----------------------------------*\
| =========                 |                                                 |
| \\      /  F ield         | OpenFOAM: The Open Source CFD Toolbox           |
|  \\    /   O peration     | Version:  v2012                                 |
|   \\  /    A nd           | Website:  www.openfoam.com                      |
|    \\/     M anipulation  |                                                 |
\*---------------------------------------------------------------------------*/
FoamFile
{
    version     2.0;
    format      ascii;
    class       volScalarField;
    location    "150";
    object      p;
}
// * * * * * * * * * * * * * * * * * * * * * * * * * * * * * * * * * * * * * //

dimensions      [0 2 -2 0 0 0 0];


internalField   nonuniform List<scalar> 
10042
(
0.0218773
0.0212145
-0.0288853
-0.00795583
-0.52747
0.0197183
-0.328409
-0.29534
-0.021858
0.010868
-0.539415
-0.00826781
-0.00815661
-0.0083336
0.0523775
0.0176368
0.0177064
0.0114539
0.0217825
0.222229
0.00644103
-0.237958
-0.00748056
-0.006414
0.0212345
-0.0908033
0.0239783
0.014425
-0.0122221
0.00692914
0.0256912
-0.543321
0.0107926
-0.0122948
-0.0687462
-0.00600006
-0.0866307
-0.0977658
-0.00575151
-0.0116309
0.245124
0.0436182
-0.325644
0.021444
-0.532959
-0.147033
0.0386782
-0.156779
-0.0811651
-0.091975
0.00974813
-0.0311035
0.0557768
-0.039574
-0.0869447
0.0194336
-0.0132315
0.0383062
-0.0128337
0.0533588
0.0238062
0.023379
-0.0701491
-0.0278612
0.0549571
-0.0158362
0.047844
0.216235
-0.438404
0.0128492
-0.0384536
0.25142
0.022857
0.140904
0.0477509
-0.00669118
-0.524299
0.0223357
0.100873
-0.333716
-0.0782256
-0.512894
0.00346966
0.0421956
0.0484504
0.0150724
0.0203978
-0.257364
0.0319821
0.0197984
-0.026113
-0.531212
0.012847
-0.0305169
0.00853912
-0.00576401
0.0172191
0.00117711
-0.0112725
-0.0181303
0.0111984
-0.239218
-0.297309
0.014853
0.0222593
-0.0846668
0.0256575
0.016975
0.00650593
-0.0132355
-0.00205236
0.0085239
-0.0395419
-0.435816
0.0542193
0.0123509
0.0315685
0.0223929
-0.00640681
-0.560542
0.0321002
-0.293558
0.0168237
0.0295654
-0.234782
0.00424726
-0.295388
-0.0843082
-0.0745616
0.0187596
0.101846
0.0395488
-0.558465
-0.264389
-0.0171401
-0.14795
-0.561697
-0.0264354
-0.164327
-0.272103
0.0288374
0.0321182
0.0289812
-0.283525
-0.0275321
0.0089445
-0.16452
-0.0174535
0.00111582
-0.0115178
-0.0241607
0.0103665
-0.339632
-0.566891
0.0225122
-0.00809133
0.0690494
0.0237835
-0.148225
-0.549
-0.513543
-0.243198
0.0264057
-0.0237324
-0.00140937
0.0389771
0.0013547
-0.535204
-0.54658
-0.563942
-0.0385269
0.00711448
-0.511347
0.199685
0.076041
-0.317872
-0.406507
0.019263
0.222253
-0.073652
0.0712083
-0.543676
0.0482988
-0.0817772
0.0442345
-0.560458
-0.28934
-0.0125989
-0.492997
-0.0527152
-0.131044
0.0311623
-0.345735
-0.499429
-0.210099
-0.436813
-0.0701832
0.024837
-0.00783232
-0.0261913
0.102105
-0.0139703
0.00673433
0.171005
0.0489766
-0.00939931
-0.188364
0.0225191
0.0121825
0.0204269
-0.423131
-0.00834833
0.0102393
-0.189853
0.0667972
-0.296021
0.0445373
0.0155554
-0.189578
0.000762192
-0.0433129
0.0679255
-0.287416
-0.100403
0.0649274
-0.0938957
-0.284595
0.01063
-0.271651
-0.0393756
-0.0226098
0.0748606
0.00768865
-0.0383954
-0.0295682
-0.0151286
-0.00736765
-0.00864925
-0.0515211
-0.0517449
0.0267081
0.018433
-0.00100336
-0.0391237
0.0119622
0.0252726
-0.0055519
0.0211423
-0.0387739
0.0112961
-0.00768848
0.0123121
0.0123276
-0.308373
-0.245296
-0.4906
0.082399
0.0606228
0.0522251
-0.158279
-0.309705
-0.0494221
0.0256545
-0.00851792
-0.0236159
-0.00701692
-0.242571
-0.0488575
0.0195054
0.0202331
0.11108
-0.0399072
-0.194458
0.0661125
-0.290673
-0.0535494
-0.0502946
-0.00590033
-0.0656616
-0.0285208
-0.0777702
0.0267253
-0.090699
-0.560956
-0.00890999
-0.0252589
-0.310442
-0.152755
-0.0123487
0.0245574
0.0120031
-0.303044
-0.167349
-0.290897
0.00979572
-0.00782954
0.0101602
-0.0221179
-0.281774
0.0224089
0.0235345
0.00777853
0.0449531
-0.0937722
0.0420312
-0.156773
-0.425429
0.0525251
-0.334535
0.0122478
-0.0637323
0.0241474
-0.565114
-0.239306
-0.463578
-0.402312
-0.00747519
-0.0493239
0.0121433
0.0295003
-0.0943095
0.0148418
-0.0665607
-0.00244902
-0.00875924
0.0208027
-0.164989
0.0186042
-0.050108
0.0392111
0.0400523
-0.422414
0.012604
0.0226012
0.00715857
-0.0271202
-0.0994294
-0.21177
0.0503783
-0.332204
-0.0960191
-0.0776523
0.0398692
-0.0085043
-0.0311614
0.0116452
-0.316109
0.0260463
-0.0150883
-0.136779
0.00747012
0.0238671
0.0419064
-0.142699
-0.0302324
0.0639604
-0.0712213
-0.0611329
-0.028635
0.0265574
-0.336357
-0.171114
-0.0392128
-0.0987238
0.0135312
0.00763565
0.0131097
0.0265893
-0.440947
-0.0503095
0.0140044
0.0503343
0.0118556
0.0185543
0.203142
0.0253297
-0.0151338
-0.561976
0.00428446
-0.301044
-0.314453
0.138419
-0.311934
-0.482307
-0.00971959
0.0951132
0.0230683
-0.097368
0.0196056
0.0397578
-0.177949
0.0151746
0.0315815
-0.235935
-0.0075852
0.00675477
0.202446
-0.0983259
-0.0151364
-0.0171
-0.544359
-0.24466
0.00717109
0.224168
-0.477563
0.000154617
0.0140522
-0.0113757
0.0165869
-0.0087375
-0.00882743
-0.332282
-0.297528
0.0401454
-0.443012
-0.00813764
0.0224941
-0.402177
-0.033712
-0.302615
-0.17357
0.0445852
-0.0158323
-0.0166537
-0.157223
-0.0395213
-0.00519357
0.0154764
-0.536326
0.0648991
-0.485636
0.0494014
0.00986941
0.0117822
-0.373564
0.0106764
0.105676
0.0179015
-0.0293258
-0.546753
-0.0710612
0.0312715
-0.00276841
-0.55489
0.0177169
-0.0728441
-0.0189076
-0.00628517
-0.431661
-0.31501
0.00610378
0.0522327
-0.0522161
-0.00761174
0.0171927
0.0310917
-0.557895
0.0297062
-0.00823564
0.0264922
-0.288027
-0.177593
0.0120076
-0.0735921
-0.455078
-0.0962732
0.034374
0.0263104
-0.267265
-0.038032
0.00982138
0.105054
-0.0233347
-0.00843303
0.0696228
-0.00972541
0.0238283
0.0261337
0.0110993
-0.53786
-3.41244e-07
-0.03695
0.0143328
0.0145439
-0.0689783
0.00633411
-0.0260304
-0.460341
0.0100618
-0.337943
-0.048322
0.0113328
0.0110322
-0.259263
0.0287531
0.0316064
0.00783645
-0.0401699
0.0538006
-0.321446
0.018494
0.0320452
-0.0406309
-0.0945965
0.0130328
0.0300546
-0.0328356
0.0154306
0.0140811
-0.352561
-0.561339
0.0152245
-0.0837176
-0.0756263
-0.073475
0.0491082
-0.00425617
-0.276286
-0.163062
-0.0695036
-0.0152747
-0.0340808
-0.0326701
0.0046151
-0.505413
-0.088388
-0.0402343
-0.0125025
-0.00078886
0.0474566
-0.283293
-0.0721543
0.0241349
-0.558028
-0.0614566
-0.177856
-0.0933944
0.0172221
-0.0170756
-0.0859147
-0.155029
-0.36341
-0.534911
0.0666236
0.109598
0.0138082
-0.0492509
0.0509516
0.0139713
-0.522609
-0.00584231
0.0127689
-0.137207
0.0156759
-0.232285
-0.0462879
-0.221737
-0.0259945
0.0206741
-0.0497186
-0.0710605
-0.0669152
-0.0958473
-0.0178203
0.0199179
-0.0886066
-0.0263025
-0.00424862
0.0118163
-0.0313637
0.0278599
0.0673821
-0.176617
0.145965
0.0245948
0.0110102
0.00766706
0.0304714
0.116612
0.00699874
-0.0142772
-0.229874
-0.00937434
-0.155915
-0.0933315
0.0250134
-0.559338
-0.127719
0.0169209
-0.307053
-0.0315489
0.0124027
0.0417324
0.0288203
0.017663
-0.0514537
0.0486362
-0.0620139
0.0262359
0.0294334
-0.0184215
-0.0740769
-0.10703
0.0300748
-0.0581881
-0.0163445
-0.0940479
0.0417811
-0.0227832
-0.0158035
0.0761145
-0.0160682
0.0123321
-0.375381
-0.0108947
0.12218
0.0310723
-0.0447655
-0.000736124
-0.103946
0.0144747
-0.131691
-0.0136389
-0.301157
0.0188493
-0.323475
-0.0173471
0.0416161
0.0218017
0.045457
0.0138887
-0.049829
0.0274333
0.26306
-0.527859
-0.225734
-0.0591265
0.0464193
0.0049643
0.00257065
-0.14626
0.0104275
0.0987529
-0.0184225
-0.358411
-0.0874339
-0.504867
-0.0749343
0.0136913
0.0147988
-0.0619549
-0.0527775
-0.0662874
-0.00718057
-0.0324402
-0.241216
0.0102996
0.030821
-0.0599009
-0.365153
0.0395591
-0.0698129
-0.0815157
0.02083
-0.331758
-0.00698491
0.00652299
0.00510066
-0.0235676
-0.564794
-0.149462
-0.365504
0.00816583
-0.470723
-0.545968
-0.307809
-0.0675044
-0.159917
-0.265476
-0.0301795
0.0399394
0.0183868
0.106659
-0.563411
0.00304909
0.0277182
-0.339119
0.026015
0.0110372
-0.00365417
0.0212175
0.0142886
-0.0313644
-0.250419
-0.448599
-0.0303896
0.0152753
-0.557289
-0.35038
0.00568094
0.0337452
0.00980612
0.0174009
-0.414024
-0.146668
-0.162743
0.0248032
0.0111507
-0.0239809
0.0735244
0.0236151
-0.0997221
0.0485637
-0.441535
0.0180962
0.0111827
-0.0720091
0.00323575
-0.0776041
0.0681296
-0.0479943
-0.538048
-0.355265
0.0154882
0.0136643
-0.330847
-0.549894
-0.00330948
-0.0305373
-0.30202
0.123553
0.100264
0.0392315
0.00726315
0.00694896
-0.220453
-0.0577615
0.149809
0.0128327
-0.419203
-0.427447
0.0302011
0.0220871
0.258316
0.0223678
-0.00114534
0.0023997
-0.545614
-0.348283
-0.37875
-0.0361432
-0.15757
-0.027873
-0.00528424
-0.000411512
0.0227547
-0.226041
0.0128144
0.029208
-0.155088
0.0473702
-0.183783
0.00928439
0.024026
-0.0027267
0.0244294
-0.257984
0.0129891
0.0131036
-0.13112
0.0256247
0.00346473
0.0162874
-0.226194
-0.3493
-0.342005
0.0470151
-0.564807
-0.545954
0.0257475
-0.0079445
0.0297923
0.0699521
-0.342125
-0.0214513
0.0116489
0.013296
-0.346431
0.00347027
-0.0347598
0.0116476
0.0336764
-0.106763
-0.000429906
0.00150361
-0.0912979
0.0225195
0.0226787
-0.018847
-0.00260886
-0.0244963
0.0172141
0.0282044
0.0108748
-0.281661
0.0160131
0.0352539
0.02581
-0.0675867
0.112231
0.0126504
0.00414052
-0.0446884
-0.34546
-0.00721327
-0.0280617
-0.0879392
-0.225905
0.198111
0.0492613
-0.514705
-0.298803
0.058003
-0.00314747
-0.305795
0.0263187
0.0145683
-0.00371721
0.0142505
-0.158727
0.0101749
0.0183032
0.0807737
-0.0238766
-0.00744949
0.0750029
0.0685616
-0.422322
-0.0508963
-0.0316823
0.0162374
-0.139853
-0.00408183
-0.341948
-0.0597839
-0.513136
0.013292
-0.0535464
0.00904093
0.0131158
0.0297943
-0.215628
0.128512
-0.080621
-0.507016
0.0123339
-0.415974
-0.0511013
-0.0130517
0.136286
-0.0949752
-0.354909
0.0225462
0.0578859
0.0332844
-0.016953
0.154163
0.0120302
-0.00699995
0.0116687
-0.126825
0.0218821
0.0111771
-0.00265461
-0.00177332
0.0127562
0.0159905
-0.019259
0.0105516
0.0228674
0.0648596
-0.000856295
0.0696942
0.0296912
-0.343855
0.00965401
-0.459609
0.0935388
-0.380793
-0.11037
-0.052261
-0.548342
-0.110171
-0.154648
-0.33464
-0.106809
0.0134712
0.00779114
0.00302037
-0.289002
-0.00257195
-0.561234
0.00815229
-0.510367
-0.316373
-0.0764817
-0.0452491
-0.561751
-0.408533
0.0786779
0.0294892
0.0215867
-0.0583084
-0.00718634
-0.0039728
-0.138095
-0.172661
0.0258853
-0.00139661
0.0629473
-0.377973
-0.090836
0.0205026
-0.0423288
-0.217235
0.0140929
0.015984
-0.562541
0.027507
0.021674
-0.301507
0.00887099
0.0439453
-0.542618
-0.338004
-0.560122
0.0296661
0.0343134
-0.309813
-0.0030011
-0.0120078
0.0179623
-0.0624614
0.0230607
0.00918276
-0.0390372
0.194895
-0.0196525
0.00204206
0.0390972
0.0267172
-0.0114525
0.0282895
-0.00616783
-0.257533
-0.00549175
0.022289
0.0254254
0.000294285
0.00907908
-0.0274625
-0.54693
-0.0872211
-0.0169728
0.0260713
0.137216
-0.342083
0.0271484
0.00905427
0.0278047
-0.0165964
-0.501961
-0.0844038
-0.00645818
0.00837796
-0.0919097
-0.0885498
0.0244159
0.019248
0.00934766
-0.0260783
-0.0689416
0.0305614
-0.305606
-0.0885848
0.0243319
-0.0614851
-0.517845
0.0487258
-0.223918
-0.0308772
-0.308837
0.0138117
-0.0333994
-0.0663492
-0.140295
0.0283126
-0.0255491
0.0166526
-0.0432539
0.145255
-0.123511
-0.217725
-0.043339
0.00737271
0.0101032
0.0207048
0.0234718
-0.30664
0.00860761
-0.0126341
0.0289582
-0.0981976
-0.423056
0.006872
-1.50471e-05
-0.202645
-0.0250373
0.0259079
0.0343529
-0.195967
-0.0400356
-0.0695564
-0.532544
0.0157861
0.0229482
-0.350652
0.00779555
-0.0195874
0.00368811
-0.0318297
-0.0400708
0.0364206
0.0121854
-0.0339215
-0.0503486
-0.517118
0.0250005
0.0113621
0.00306286
0.0622715
-0.27016
-0.510448
-0.0784056
0.0144741
-0.383811
-0.0281236
-0.428475
0.0223791
-0.00219919
-0.00858836
-0.556015
0.0144529
0.0318616
0.0245649
-0.103387
-0.348689
-0.0147354
-0.14683
0.0227526
0.0117945
-0.11328
-0.0665484
0.005976
-0.0558134
0.0233509
-0.344248
-0.561677
0.0216279
0.0718388
0.0169346
-0.226694
0.0198494
-0.529286
0.0306413
-0.0232401
-0.0067365
-0.0268619
-0.0558388
0.0105459
0.0253589
0.0489581
-0.301098
-0.202694
-0.0087319
-0.0623629
-0.0565317
-0.023636
-0.0248782
0.1043
-0.0237395
0.0411693
0.0788204
-0.0739742
0.0106294
0.00775922
0.0446068
-0.0178134
-0.276501
-0.0278015
-0.191475
0.0404914
0.0243346
-0.0264553
-0.0973965
-0.0637152
0.00057822
-0.0637027
-0.180486
0.0318815
0.000875701
-0.0589668
0.0101108
-0.565261
-0.117292
-0.0176594
-0.562906
0.0722818
-0.102893
-0.223551
-0.0194403
-0.074563
-0.546682
-0.0652654
-0.20839
-0.0262192
-0.038391
-1.1941e-05
0.0426963
-0.0758249
-0.00710438
0.134684
0.00864293
0.0373527
-0.122261
0.0267337
-0.138072
-0.052884
-0.00788319
0.00714647
0.0854298
-0.15169
-0.00969814
-0.0969481
-0.562925
0.175685
-0.0235247
-0.066941
0.00975375
-0.00804102
-0.484727
0.0071119
0.00103119
-0.152929
0.0162648
-0.0713757
-0.0131789
0.0176272
-0.334509
-0.0105287
-0.00841087
-0.0439396
0.0304409
-0.0167961
0.0103737
-0.496478
0.037711
0.0113706
-0.0149505
-0.17281
0.0569037
-0.0252355
0.0342471
0.00365777
0.0185106
0.0292315
-0.0144799
0.0243662
0.000872555
-0.107811
-0.112787
-0.062072
0.0715349
-0.13285
-0.186578
0.099309
0.097325
0.0492329
-0.33627
0.0419543
-0.00732584
0.00664177
0.0102047
0.0257734
0.00405805
-0.444693
-0.556308
-0.321274
0.0122778
-0.046133
-0.0496614
-0.0131578
0.134773
-0.0561806
-0.394107
-0.136916
-0.552764
-0.186835
-0.229686
-0.345555
-0.0270786
-0.0490663
-0.0319147
-0.00391053
-0.342917
-0.0305173
0.0839133
0.00386085
0.00624619
0.0221305
-0.502997
-0.345032
0.0119379
-0.554007
-0.409733
-0.203963
-0.1443
-0.18586
-0.00805626
-0.556375
0.0192146
-0.336388
-0.555567
0.012341
0.0233666
0.0101283
0.0459855
-0.0621252
-0.108222
-0.25638
0.0121401
0.0224605
-0.0539361
-0.0353923
0.00879336
-0.00446935
0.00824618
0.0238766
-0.160084
-0.184647
0.0216553
-0.332816
-0.0462604
0.0223431
0.0813717
-0.31594
0.0324539
-0.0030065
-0.233877
-0.28312
-0.0213022
-0.0433705
-0.408597
-0.165286
-0.545413
0.00143002
-0.2098
-0.425959
-0.479985
0.0163043
0.0280412
-0.140666
0.0372197
-0.0757668
0.0288166
-0.536336
-0.151645
-0.280499
0.0158557
0.00871276
-0.556748
-0.16472
0.0201609
0.0228544
-0.56391
0.0305307
-0.0161626
-0.0252993
-0.0519375
0.0120821
0.0888614
0.0361187
-0.0561552
-0.00813859
-0.0995977
-0.522572
-0.138351
-0.106331
-0.44111
-0.206833
-0.0102238
-0.00729813
-0.00807484
0.010151
-0.269198
0.0943398
-0.0321492
0.0169321
0.0292082
-0.00594033
0.0492005
-0.00739046
0.0530599
-0.0580415
0.0145701
-0.345472
-0.500371
0.0141085
-0.336286
0.0250465
-0.0832688
0.0221166
-0.0105433
-0.545419
-0.201321
0.00861895
-0.00407909
0.0336531
-0.0684316
0.0135253
-0.201694
-0.00958756
0.0245369
-0.00788915
-0.345212
-0.563655
-0.0155943
0.0491899
-0.21463
-0.169442
0.0699636
-0.336047
-0.520282
-0.0243795
0.011246
0.0421622
0.0382736
-0.344505
0.0228421
0.0128617
-0.295404
-0.229039
0.0229021
0.0337521
0.240914
0.012426
0.0239214
-0.24761
-0.191081
-0.564823
0.00869341
-0.0984743
0.0784014
-0.143234
0.0728371
0.00429342
0.0189199
-0.00825178
0.0695643
-0.000862701
0.0229486
-0.0269211
-0.561285
-0.0119982
0.0059068
-0.0126979
-0.120566
0.0169392
0.0109673
-0.00891249
0.0189945
-0.415313
-0.482108
0.0415005
-0.319277
-0.474214
-0.559065
0.0227986
0.0397083
0.00649941
0.0235859
0.0238732
0.0207875
-0.00660875
0.0107939
0.00100692
0.0688361
-0.453831
-0.0180079
-0.217883
-0.0855943
0.0156488
0.0404646
-0.0521335
0.0411695
0.0108103
-0.0583041
-0.0428226
-0.408827
-0.127018
-0.0151053
-0.482536
0.00336678
-0.0116945
-0.0101136
-0.282781
-0.135666
0.0713443
-0.0359747
0.0266754
0.0170604
0.074404
-0.122379
-0.0615692
-0.321035
0.0170453
0.00761664
-0.402598
-0.0461814
-0.00440371
-0.240456
-0.0462345
-0.0908874
-0.27707
-0.19221
-0.562707
0.000160766
-0.0231573
0.0103284
0.0267793
0.0261348
-0.0268321
-0.127094
-0.0809274
-0.54712
0.013489
-0.334072
-0.396341
-0.0493686
-0.438531
0.0280393
-0.232773
-0.550673
0.00820495
-0.210991
-0.0182128
0.0196377
0.0125043
-0.259447
0.0149273
-0.33058
-0.0944862
-0.510969
0.00707048
-0.249109
-0.0213627
-0.0479836
-0.262037
0.00649808
-0.559786
-0.477523
-0.229011
-0.406841
-0.198259
-0.561309
-0.106085
0.0260036
-0.0533843
-0.148494
-0.303345
0.0159536
0.00736626
-0.0321686
-0.140607
0.040966
0.0339993
0.0189961
-0.546873
-0.35146
0.0284509
-0.419461
-0.0425703
-0.00194803
-0.0710389
0.0232289
-0.349691
-0.0512992
-0.0054615
0.157468
0.0262694
0.00940238
0.0117278
-0.262675
-0.176532
-0.02067
0.0393558
0.0259716
0.0125858
0.00150863
-0.560167
0.0205365
0.00193963
-0.277515
-0.264661
-0.0583457
-0.0115297
-0.344242
0.0479159
0.036132
0.0147679
0.0466288
-0.0467811
-0.0734434
-0.0139635
-0.31882
-0.071687
-0.17071
-0.0146823
-0.0623809
-0.0911235
-0.0722537
0.0353838
-0.380882
0.0102242
-0.212003
0.0182973
0.0221813
-0.0595039
-0.252561
-0.0512385
-0.0681832
0.0144775
0.01949
-0.175424
-0.154083
0.00492589
0.0135801
0.00700979
0.101321
-0.143042
0.0178841
-0.134331
0.0158929
0.0222014
-0.513994
0.0242762
-0.564363
0.043051
0.0940472
-0.155282
0.0190567
-0.0843984
-0.135806
-0.234113
0.00919082
-0.135911
-0.0425018
0.0169821
0.0258254
-0.561896
-0.347514
0.0213544
0.0335975
-0.0206962
0.00381691
-0.20938
-0.343677
0.0141319
0.0481887
-0.00264627
0.00168527
0.0131931
-0.279312
-0.0118566
0.0148114
0.0265036
-0.00187109
0.0293463
0.0111314
0.0118024
-0.102353
-0.455959
-0.0190583
0.0183529
0.179447
-0.197526
0.00338965
-0.325337
-0.164516
0.000742698
-0.0168616
-0.0343271
-0.203923
-0.010652
-0.144733
-0.0481132
-0.0473212
0.000982854
-0.14595
-0.00947812
0.00268092
0.0196081
0.0339032
-0.288031
-0.311268
-0.00986829
0.0153723
-0.56418
-0.245116
-0.185029
-0.0473425
-0.148547
-0.0176856
-0.517084
-0.100511
-0.0240646
-0.350619
-0.326979
0.0297404
-0.131409
-0.162419
-0.00569389
-0.454229
0.0324001
-0.0803376
-0.070581
0.0252206
0.00859107
0.00542499
0.0119842
0.0054765
0.0110511
-0.34549
0.00444995
0.00558763
-0.00645016
0.0134507
0.0044146
0.0166333
-0.136269
0.198222
-0.0544604
0.0169642
-0.426001
0.0179565
0.00189479
0.0207515
-0.0203578
0.0237625
0.00726203
-0.087342
-0.192049
0.0228245
-0.0976403
0.0867636
-0.0123369
0.01432
-0.349723
-0.022371
-0.00829707
0.0203803
0.203522
0.0166339
0.0115549
-0.0130067
0.0127526
-0.32872
-0.548265
0.00348358
0.00384672
0.0148885
0.0549446
-0.00830299
0.00245181
0.0837899
-0.0869355
0.0305483
0.0523652
0.0244815
-0.250812
-0.214982
-0.0476017
-0.140786
-0.0313737
-0.49733
0.0221159
0.014092
-0.50284
0.0469313
-0.0271073
-0.199178
0.169203
-0.524761
0.0469838
0.203552
-0.0728549
-0.0611506
-0.554749
0.0217282
-0.175257
-0.0712836
-0.268389
-0.487544
0.0202091
0.0291371
0.0206995
-0.255824
-0.00900308
-0.541483
-0.109929
-0.532508
0.0519527
0.184245
-0.306832
0.00590554
0.0240706
0.187555
-0.0408217
0.0264545
-0.0458899
0.0141865
-0.196523
-0.212388
-0.19703
-0.540597
-0.241773
0.0105852
0.0112148
-0.341541
0.156256
-0.0109989
-0.012242
-0.398197
-0.02205
-0.0564753
0.016791
0.0106926
0.0105288
0.011678
0.173072
0.039089
-0.00574941
-0.548303
-0.522753
-0.00135299
0.0529602
-0.0790504
-0.289031
-0.0146236
-0.035819
0.00902636
0.0814562
-0.482835
0.022897
0.102253
-0.0100685
-0.323294
0.00928001
-0.0634474
-0.273641
-0.266347
0.0205467
0.0290073
-0.211819
-0.169213
0.0393708
0.0082143
-0.51277
0.00667538
-0.0710009
0.036028
-0.0837349
-0.0159777
-0.0195622
-0.02271
-0.193837
0.00678574
0.00836137
-0.0153681
-0.0312872
0.0122378
-0.00951577
-0.22284
-0.41734
-0.348139
-0.0711349
0.026497
0.112478
-0.0543753
-0.564295
0.0173286
0.0937328
-0.00678046
0.0286733
-0.0407179
-0.102965
-0.347693
0.0307889
-0.523347
-0.0336444
-0.0105154
-0.0305259
-0.340392
0.0311778
0.183366
-0.560745
0.021755
0.0377573
-0.560227
0.023407
-0.464769
0.0260535
-0.100673
-0.446847
-0.0431801
0.0199355
0.00372192
-0.539325
-0.0779947
0.0161232
0.080146
0.0196148
-0.0457839
-0.214023
-0.544416
-0.093716
-0.45133
-0.435649
-0.00265017
0.0143982
0.00568914
-0.309755
-0.0273495
0.0126787
0.0051432
-0.0659038
0.171291
0.0211846
0.0499499
0.0105192
0.0166952
-0.345074
0.0150959
-0.551987
-0.0148497
-0.064773
-0.101637
0.00230852
-0.0106964
-0.49294
-0.553308
-0.187874
0.0196306
-0.0384399
-0.0855384
0.0003707
-0.106764
-0.231982
-0.123833
-0.00857918
-0.555013
-0.542004
-0.00749131
0.0109931
-0.005002
0.01133
-0.0442466
-0.0621151
-0.508726
0.0104933
0.0308912
-0.0867417
-0.540449
-0.0152435
-0.409228
-0.0186179
-0.252001
-0.170154
-0.347061
-0.10194
0.0682113
0.0738889
-0.0156139
-0.00989518
-0.317179
-0.0297774
0.0199828
-0.434499
0.00911448
0.0231381
-0.00855566
-0.154419
-0.134582
-0.411538
0.157123
-0.0845132
-0.0433908
-0.0315511
-0.554021
-0.202142
-0.0181325
0.0261778
-0.0169768
-0.140142
-0.501589
0.0192752
-0.486158
0.0735838
-0.00349025
-0.562606
0.0170303
-0.487656
-0.465894
-0.00610318
-0.0583014
-0.190909
0.0150723
0.0373535
0.00150363
-0.555974
-0.076001
-0.0446931
-0.550892
-0.44046
-0.0816879
-0.0632275
0.0175054
-0.273017
-0.559084
-0.0454991
-0.0585643
-0.562882
0.0745335
0.024511
0.0101673
-0.285231
-0.552045
0.18573
0.035473
-0.0784876
0.00946513
-0.461471
-0.191657
-0.106799
-0.38391
-0.510162
-0.0159707
-0.27026
0.0174291
-0.426045
0.0747329
-0.0633816
-0.0633534
-0.431299
-0.00956252
-0.114378
-0.562803
-0.413415
-0.0134421
0.0106186
0.00162202
-0.0665273
-0.446237
-0.295204
-0.496729
-0.128597
-0.113818
-0.0057815
-0.50066
-0.192085
0.000248168
-0.0693347
-0.542948
-0.561943
-0.557355
-0.554498
-0.472582
-0.55405
0.0114934
0.0783771
-0.093278
-0.0272119
-0.551642
-0.422225
0.0103537
-0.329479
0.0178303
0.0285761
0.000516215
-0.101256
0.0112757
-0.4893
0.204151
-0.212516
-0.0226371
-0.402122
0.0668817
-0.316685
-0.556312
-0.0427157
-0.0840305
-0.0349605
0.171128
-0.01619
-0.019327
0.00954718
-0.520823
0.00146472
-0.0135557
-0.140435
-0.052618
-0.546376
0.00870088
-0.56238
0.0301985
0.00965398
0.0122575
0.0185284
-0.0667844
-0.0357453
-0.562608
0.053136
-0.0904733
-0.340848
0.00060964
-0.526109
0.00320288
-0.492707
-0.209196
-0.556241
-0.182195
0.0113159
0.0237596
-0.339026
-0.0327074
-0.0702539
0.0174566
-0.0861848
-0.546203
0.00412524
0.00922719
0.0205405
0.0239644
-0.451592
-0.472781
-0.0040024
-0.00960712
-0.481131
-0.49797
0.0117797
-0.301631
0.0226492
-0.512507
-0.528963
-0.139566
-0.260952
0.101242
0.114836
-0.561117
-0.131314
0.0372609
-0.0124597
0.0014187
-0.505426
-0.467538
-0.0154305
0.0886281
-0.563462
0.0102347
-0.564239
-0.0279002
-0.030621
-0.0146961
-0.419762
-0.137839
-0.0113735
-0.553738
0.0101641
-0.316842
-0.330454
-0.0108608
0.0255975
-0.235181
0.0295798
-0.00864007
0.00363779
-0.349046
0.0421193
0.0101918
0.0143113
-0.335648
0.0350997
-0.0470168
0.0207193
-0.564328
0.0118597
-0.130623
-0.00860602
-0.563425
-0.326012
-0.0676657
-0.147204
-0.165231
0.0232761
-0.13846
-0.558954
-0.01523
-0.201791
0.000127631
-0.400696
0.0185288
-0.551304
-0.323062
0.0399089
-0.548735
-0.556381
0.164723
-0.0416561
-0.460208
0.00671429
-0.56015
0.0587416
-0.441251
0.0109844
0.0302135
-0.135471
0.0629111
0.0345148
0.0430494
0.011688
-0.544248
-0.202987
-0.547688
-0.343468
0.0877271
-0.0110592
-0.0178245
-0.512157
0.0399616
-0.0146398
0.0137641
-0.47245
-0.40364
-0.501845
-0.545275
-0.108604
0.0338631
0.00126574
-0.158724
-0.158005
-0.414967
0.0211817
0.0236931
-0.545801
-0.191784
0.0138289
-0.146719
-0.428992
-0.23103
-0.0198829
0.0278079
-0.411497
-0.446328
-0.322567
-0.263145
0.0196759
0.0191988
-0.00877019
0.013323
0.0368124
0.0233772
0.0176301
0.0300065
-0.0982763
-0.0737888
-0.0166767
0.024416
0.0515385
-0.0414848
-0.0103812
0.0376291
-0.000487819
-0.0323643
0.0258942
0.00349659
0.00744981
0.0257564
-0.328013
-0.0149449
0.0305788
-0.395486
-0.396328
-0.563007
-0.480694
-0.0030322
0.0100592
0.0135428
-0.345725
-0.0261657
-0.0113225
0.019475
-0.336786
0.0605479
-0.109031
-0.317301
0.034593
0.0258199
-0.0488498
0.0114893
0.0146121
0.0228221
0.011775
-0.0021909
0.0217894
-0.00610009
0.0295414
-0.0638513
-0.394686
-0.119287
-0.157942
-0.184723
-0.206873
-0.12637
-0.1977
-0.0268793
-0.544083
0.0955582
0.0540379
0.0226358
-0.0446948
-0.176923
0.0301399
-0.101055
-0.548106
0.11914
0.227228
-0.242498
-0.0295792
-0.142555
-0.0767376
0.0294905
-0.0611117
0.0227527
-0.188747
-0.137444
-0.343741
-0.000784594
-0.136326
0.0950935
-0.3883
-0.278809
-0.15001
0.0206457
-0.161619
-0.0087052
-0.187517
-0.0055257
-0.343096
-0.00983703
0.0951911
0.0181359
-0.0380967
-0.197277
-0.0520274
-0.386678
0.0255838
-0.0662252
-0.0665313
0.0190177
-0.312041
-0.49447
-0.252273
-0.0999712
-0.14994
-0.0268703
-0.0198674
-0.378467
-0.233965
-0.0209909
-0.0418013
0.0980893
0.0286327
-0.362668
-0.00486607
-0.48117
-0.278786
-0.243807
-0.063174
0.037265
-0.007797
-0.0224811
-0.257024
0.103313
0.100033
-0.562983
0.0207861
0.0606784
0.0826827
-0.351642
-0.0154502
-0.270024
-0.00941705
-0.454057
0.0104092
0.0193225
0.148967
0.0083592
0.0301498
-0.26198
0.0330817
0.0241752
-0.0187053
-0.127658
-0.0231069
-0.343416
0.0291555
0.029533
0.00363696
-0.239449
0.00402911
0.0938913
-0.132973
-0.337483
-0.407167
-0.365291
0.0309799
-0.372944
-0.119179
0.0222382
0.102409
0.0163586
0.0253876
-0.539308
0.0457056
-0.0088824
0.0191559
0.0101905
-0.0833767
-0.200587
0.023994
0.118645
-0.236683
-0.247214
-0.150047
0.0163368
0.0100959
-0.34964
-0.0567619
-0.0179774
-0.346929
-0.331387
-0.00921423
-0.0119007
0.0317985
0.0243228
0.163193
0.0100221
-0.22148
0.0233249
-0.344131
-0.0133995
-0.546108
-0.0566109
0.0184672
-0.115567
-0.0143209
-0.0317331
0.023118
-0.0994703
-0.392282
0.0107451
-0.258408
0.0143539
0.010903
0.163205
-0.023536
0.0126623
0.0113826
-0.00886235
0.0138695
-0.0146647
0.0185149
-0.31344
0.00907638
-0.0195037
-0.0539842
-0.0124567
0.0239727
0.0204797
-0.0209566
-0.405451
0.167651
-0.0160067
-0.0462057
-0.0303273
0.0237414
-0.225007
0.00953098
0.00944589
-0.547111
0.0176403
-0.146213
-0.105011
0.0107319
-0.0284007
-0.261573
0.0189027
-0.275091
0.198837
-0.0291723
-0.337659
-0.357907
0.110581
-0.00011186
0.00131217
0.0191853
0.034868
-0.255982
-0.0171633
0.00422194
-0.0241875
-0.118317
0.0195567
-0.0323829
0.0167561
-0.146942
-0.310303
-0.0145321
-0.214731
0.00555481
-0.0488312
-0.00635254
-0.00873615
-0.00684274
0.0247371
0.000640737
-0.00847591
-0.00302881
0.0253246
-0.122575
-0.0297492
-0.441407
-0.00865642
0.00101001
-0.206019
0.0166911
-0.244414
-0.132807
-0.059366
-0.0306986
-0.00155775
-0.0311908
-0.0736896
0.036079
0.131316
-0.0733476
0.0247944
-0.0119484
0.0387781
-0.336667
-0.0487989
-0.0078984
-0.345326
-0.193038
-0.0438032
-0.00835577
-0.465989
0.00653429
-0.0547716
0.0509787
-0.2013
-0.0246088
-0.024426
0.0787757
0.0209801
0.0108463
-0.02243
0.0106328
-0.170511
0.0183232
0.0194595
0.00356426
-0.0500343
-0.312795
0.000698905
-0.543132
0.238093
-0.0117735
-0.365589
-0.26372
-0.027578
-0.0509589
-0.127591
0.00187233
0.0285856
-0.349174
0.00811672
-0.402744
0.0988404
-0.0204341
0.0653577
-0.0403901
0.0148926
-0.0272782
0.195036
0.0640058
0.0101228
0.0169913
-0.034236
-0.543424
-0.0511063
0.0023138
0.109532
-0.245049
0.157428
0.0130769
-0.0202583
0.0398088
-0.0369996
0.0660069
0.0625703
-0.0816053
-0.313385
-0.0265312
-0.0471851
-0.337003
-0.00743266
-0.102758
-0.283676
0.0143619
0.0173004
-0.189519
-0.195577
-0.132261
-0.551676
-0.346741
-0.250587
-0.312839
-0.0254561
-0.0523098
-0.00327338
0.0207272
-0.33398
0.0468347
-0.165103
-0.0914731
-0.0590026
0.0554299
-0.38357
0.0194623
0.0164449
-0.0260325
0.0216498
0.027601
-0.021283
-0.0317785
-0.179935
0.0294093
0.0392986
-0.00318427
0.0887146
0.010329
-0.356702
0.0293325
-0.0458003
0.00231243
0.0236104
-0.00750116
-0.00312415
-0.0817109
0.0664019
0.0241362
-0.0351754
-0.0154216
0.0163772
0.0144992
0.110014
-0.0366906
0.0264247
0.0257564
0.0251257
-0.0872738
0.0271174
0.0278717
-0.194547
0.0245262
0.0126166
-0.0582905
-0.350336
-0.159497
-0.040382
-0.112241
-0.505828
-0.199149
-0.253867
0.0256216
-0.0161726
-0.0791287
-0.176923
-0.0210383
-0.216343
-0.0364099
0.00527522
-0.0428662
0.0176829
-0.196602
-0.204228
-0.188201
-0.0107505
-0.000401574
-0.0563611
0.0287054
0.073263
-0.0369498
-0.0465756
0.0708
0.13935
-0.13377
0.00766925
-0.0462204
-0.348727
0.0666286
0.0167057
-0.557075
-0.39916
0.00228745
-0.0391932
-0.0463155
-0.205571
-0.561919
0.0256958
-0.300526
-0.327157
0.159453
-0.179062
-0.0223711
-0.0508526
-0.0453143
-0.187328
0.0234839
0.116009
-0.0546596
-0.26025
0.0237478
0.0261304
-0.333928
-0.0558796
0.0691925
-0.0166072
0.0238174
-0.0842291
-0.513485
-0.0187076
0.0275646
-0.351086
-0.110082
-0.0362004
0.0209759
0.00854699
-0.0155706
-0.0243724
-0.224918
0.016314
-0.0320997
0.0509737
-0.137489
0.0248551
-0.00661876
-0.00069132
-0.0215203
-0.000793281
-0.15267
-0.0277477
-0.0478098
-0.00638284
0.0143371
-0.525859
-0.0886676
-0.0368593
-0.562071
-0.044336
0.0325504
-0.475864
-0.135619
-0.538004
0.0163515
-0.0513639
0.0164545
-0.0416753
-0.0199303
-0.564173
-0.0424952
-0.190081
-0.0216498
-0.0326249
-0.0465128
-0.0176417
0.118055
-0.44117
-0.397197
0.0195508
-0.00241913
-0.309292
0.0664529
-0.0216902
0.0297999
-0.0813171
-0.372178
-0.200191
-0.0272784
-0.336988
-0.116133
0.0245389
-0.0202548
-0.0322012
0.0737313
-0.555322
0.021114
-0.0860943
-0.0468654
0.0239799
-0.0174663
-0.0349876
-0.554125
0.090547
-0.0150984
0.0186565
0.0257203
0.0945511
-0.0125213
-0.0468306
-0.0109809
-0.0490581
-0.378053
0.0141629
0.0217974
-0.192436
-0.0148619
-0.0168482
-0.333375
0.0133361
-0.5648
-0.543188
-0.557089
0.0167694
0.0326895
-0.0112045
0.0102577
-0.0115715
-0.000191275
-0.212324
-0.141039
-0.37001
-0.211444
-0.00960402
-0.0183143
-0.0499886
-0.0126135
0.0241272
0.0273038
-0.0163728
-0.0336361
-0.0332253
-0.529184
0.012281
-0.00313338
0.0146057
-0.0248292
-0.348834
-0.0424716
0.116307
-0.0115945
-0.14728
-0.0510356
0.0211618
-0.120985
-0.00953254
-0.0528949
-0.564495
0.0251177
0.0268677
0.0268062
-0.406153
-0.558909
-0.0209973
-0.0164694
-0.0500926
0.0312831
-0.021547
0.000922255
0.00940187
0.020462
0.00662382
0.00500755
-0.0454368
-0.483992
0.143117
0.0251166
0.0298055
-0.0374389
-0.0291905
0.0245373
0.032345
0.107858
-0.556817
-0.069735
0.0219687
-0.0371368
0.0211014
-0.200391
-0.0142026
0.0163081
0.0632469
-0.0548798
0.0856772
-0.528827
0.000798679
-0.0690399
0.00572924
-0.00864922
0.025517
-0.0201214
-0.0504867
-0.205829