/*--------------------------------*- C++ -*----------------------------------*\
| =========                 |                                                 |
| \\      /  F ield         | OpenFOAM: The Open Source CFD Toolbox           |
|  \\    /   O peration     | Version:  v2012                                 |
|   \\  /    A nd           | Website:  www.openfoam.com                      |
|    \\/     M anipulation  |                                                 |
\*---------------------------------------------------------------------------*/
FoamFile
{
    version     2.0;
    format      ascii;
    class       volScalarField;
    location    "250";
    object      ddt0(omega);
}
// * * * * * * * * * * * * * * * * * * * * * * * * * * * * * * * * * * * * * //

dimensions      [0 0 -2 0 0 0 0];


internalField   nonuniform List<scalar> 
18758
(
0.00271998
0.0712239
-2.54137e-06
0.00221229
0.000322524
7.49275e-07
1.8328e-06
6.43171e-05
0.000293997
0.000212951
0.108159
-0.14086
-0.0419208
3.2634e-05
1.09327e-06
1.07388e-06
-0.104826
4.4916e-07
1.0502e-06
-0.00010586
-0.0506991
0.367471
1.0721e-07
-3.07741e-06
0.214315
2.48693
-0.0626268
-0.00464759
-0.00554337
0.00631945
0.656898
-0.0687177
5.49305e-05
-0.0349697
0.000398834
0.00462354
-0.0482725
0.000363823
0.837722
6.11017e-07
-0.0171864
0.00016245
-0.113239
4.14692e-05
2.51683e-06
0.538631
0.000218053
-0.00560632
0.120956
0.000834503
0.117548
-0.041064
0.000708347
-0.000122269
-0.00356186
-0.0333474
3.73591e-06
-0.000100523
-0.00435591
4.02622e-06
2.74047e-06
3.74456e-05
-0.283755
-0.0727687
3.20404e-06
-0.252008
4.8659e-06
1.13864e-06
-0.00455637
1.14679e-06
-0.102414
1.66082
-1.6572e-06
0.000169907
0.00372448
0.918923
-0.440599
-0.035928
0.000261129
-0.0882571
-0.00618834
0.66335
-0.0495593
0.00220068
9.60771e-05
-0.00379658
-3.37952e-05
0.000247904
-0.243948
-0.00350447
-0.729492
-2.2918e-06
-0.00405084
0.106491
-1.42552e-06
1.54433e-06
3.84288e-06
-0.00251892
-0.0355307
4.69499e-06
0.686208
-0.000216266
8.55975e-07
1.51513e-06
-0.250833
-0.0627262
-0.00551561
-0.780223
-0.547937
0.699702
1.07941e-06
-0.053365
-0.000436823
8.2909e-07
-0.000255503
-0.0152996
-0.00239952
3.41537e-06
-0.0120956
-0.000160127
-1.08755e-06
-0.420998
4.59932e-05
2.73759e-06
0.257375
-0.000143758
2.59651e-05
3.17488e-06
-0.0101284
0.862375
-0.00444478
3.41947e-07
0.000502841
-0.54941
3.13008e-06
2.74011e-06
-1.29385
-0.00019364
-0.00484997
-0.00669934
-0.000198674
0.109057
-0.00156279
-0.525772
0.353949
-0.00218753
-0.229237
-0.0101681
0.103084
0.919608
1.55469
0.113289
3.28163e-07
0.000336175
-0.0296267
-0.386321
-0.00411762
-0.00942748
0.00263572
0.0943614
-0.233317
4.81439e-06
0.0269876
-0.229872
0.514416
-1.64884e-05
4.35578e-06
-0.0935697
1.07712
-0.16197
-0.0134923
-2.26482e-06
-0.00674253
0.0479963
-0.46962
7.59285e-07
-1.16939e-06
0.746134
0.0794855
3.64609e-06
-2.04064e-07
-0.000202873
-0.00337122
8.29472e-06
1.82893
3.39322e-06
0.0118168
-0.000891503
0.0605177
0.10474
0.0457704
3.41982e-06
-0.000804734
-0.471389
-1.28675e-06
8.95932e-06
-0.00958228
1.01018e-07
0.0359723
1.65057e-06
-0.000123323
-0.00780603
-0.223733
1.32793e-06
1.29577e-06
0.0243439
6.25133e-06
0.000358456
1.28676
0.302558
-4.11433e-07
-0.00450148
-0.000144226
-6.39404e-05
-9.09594e-05
3.28586e-06
2.45994e-06
-0.00436087
2.86904e-07
0.0841209
-0.453142
-3.27366e-05
-0.00136212
-0.00867991
-0.253613
-0.00653132
-0.000889701
-0.00249269
-0.24425
4.99417e-06
2.70094
-0.0022303
-0.417515
4.1705e-06
2.49139e-06
-6.33888e-05
-0.00421249
0.10784
-0.011452
1.26228e-05
1.14103e-06
-0.00211753
-0.00707171
7.8196e-07
1.61206
-0.0072202
2.47279e-06
1.22995e-06
3.45393e-05
4.9772e-06
0.0014266
-1.23735e-06
0.000914835
-2.9274e-05
1.09018e-06
-0.000110173
1.32572e-05
1.14613
2.24885e-06
-0.846762
-0.000240955
2.86019e-06
2.7075e-06
-0.000566838
-0.205139
-0.184688
3.24228e-06
-0.00973775
-1.60824e-07
1.55541e-05
-0.0243769
-0.0816391
1.41743e-05
2.5606e-06
4.97692e-05
-8.25823e-05
0.000266454
6.60873e-07
-7.5402e-05
3.50321e-05
1.29478e-06
-3.37948e-07
1.74131e-06
-0.197992
1.55148e-06
2.19286e-06
4.9854e-07
-0.00646656
2.01881e-06
1.76695e-06
1.17021e-06
7.2392e-06
1.37029e-05
-1.22764e-06
-3.67755e-06
0.000106702
-0.0161305
-5.58461e-06
-3.46852e-06
0.201642
3.7261e-05
-1.58437e-06
-1.46416e-06
1.12863
0.0376136
-3.14646e-07
0.00590649
-0.0662633
4.09077e-05
-0.025279
1.7949e-06
-0.399438
-0.00988696
-0.00348426
-0.00572366
-0.0106903
1.53289e-08
0.372786
-0.00668594
3.54473e-06
-0.0032105
0.00235379
0.525769
2.57348e-06
3.01985e-07
0.491092
0.0451193
2.85017e-06
0.138039
0.000578458
-0.00103782
-0.782305
2.42153e-06
2.98225e-06
2.27749e-06
7.6691e-07
-3.50304e-05
3.27053e-05
7.11107e-05
9.21656e-06
-3.02914e-05
1.43849e-05
-0.373985
1.02919
-0.000173437
0.591877
-0.0202516
2.45423e-06
-0.000412476
0.00109333
-0.0592403
0.0305911
-0.00234103
3.19572e-06
0.0682143
-0.239579
-0.000945087
1.41948e-05
-0.000961913
-8.10182e-05
3.01452e-05
-0.00673801
-0.511261
-0.116603
-0.0209958
-0.489104
2.56085e-06
1.71834e-05
-0.000222809
-0.00233748
0.10699
-0.0129572
-0.269271
-0.0240222
0.0146878
-0.0137696
7.58771e-07
-0.213059
-0.0108822
0.0704059
-0.1344
2.6775e-06
-3.23094e-06
-0.0740429
-0.0358456
0.01915
-0.0244674
0.209261
1.41654e-05
-0.144687
0.645675
1.10209e-06
3.79697e-05
-0.000109275
3.78848e-06
-1.19657e-06
-9.14698e-05
1.73678e-06
-1.21466e-06
1.79373e-06
5.40372e-05
0.000962675
0.364968
-0.000155853
0.0156053
0.0453848
0.434904
0.258897
-0.00967534
7.86528e-05
-3.47592e-06
-0.103355
3.85778e-05
1.07969e-05
-0.640005
-0.00220969
0.0357467
2.50481e-05
-0.374136
2.74207e-06
3.58449e-05
-1.3909e-06
-0.131603
-0.22337
0.0536671
-2.85833e-06
-0.858111
-0.00372883
2.62258e-06
5.66636e-06
8.45641e-07
-0.277547
-2.38986e-06
-6.42394e-07
0.776641
-0.000179669
1.23367e-05
-1.17502e-06
4.69484e-05
0.000204859
0.207635
0.0010496
-2.04284e-06
-0.248087
-1.56786e-06
5.47761e-05
-0.0022981
2.23439e-06
0.445164
-1.52395e-06
0.000215396
-2.80356e-06
-0.0141643
-0.000152172
2.03587e-06
0.0701436
0.0406048
7.76019e-07
1.68026e-05
8.1068e-05
1.33498e-06
-1.44513e-06
1.59973e-06
-0.386498
0.47946
2.4253e-06
-3.9514e-05
-0.494596
0.357392
-0.00972011
-0.00550006
0.00076016
-2.01728e-07
-0.00882293
5.32898e-05
0.000771269
4.74014e-05
0.0508467
0.00347066
0.000143756
-9.42505e-07
1.49104e-06
2.32663e-06
2.38976e-06
2.2633e-06
2.34019e-06
-0.348228
1.98812e-06
-1.37406e-06
-0.00328857
1.33534e-06
-2.6734e-06
-5.44905e-06
5.31439e-05
-0.00169064
-0.0379932
8.2389e-06
0.111665
1.0955e-06
-0.000146097
-0.00736289
0.602104
-0.0101111
1.89145e-06
3.02701e-06
0.547554
-0.705334
0.00323103
2.48954e-07
-0.000479476
-0.198097
4.0797e-07
6.85257e-07
0.416318
-7.83801e-05
-0.00677091
0.00278033
0.000101467
-2.832e-06
1.32541e-06
-2.47951e-07
-1.79958e-06
-3.44557e-06
4.03481e-06
2.17773e-06
0.0517877
6.08244e-07
0.00331633
-0.467413
7.03426e-07
5.27488e-07
1.27353e-06
0.000103604
-0.000518532
0.00271423
4.43898e-06
0.21359
0.000733248
0.000739283
1.28372e-05
5.4927e-05
6.64923e-05
4.69084e-06
3.81937e-06
0.146627
2.34477
1.21934e-06
3.82106e-06
6.44853e-06
-0.223421
-1.22416e-06
6.18885e-06
2.44466e-06
-1.46062e-06
2.04135e-07
1.15947e-05
-7.39852e-05
1.30232e-06
-0.00426177
4.13462e-06
-1.45233e-05
-0.00617975
0.569955
3.81355e-05
1.82384e-05
4.45526e-06
-2.74732e-06
-6.2686e-07
-0.00032501
0.0400591
0.0687439
5.33588e-06
-0.114832
4.06085e-06
-0.000471734
2.70213e-05
1.32965e-06
-0.00222663
1.52117e-06
-3.6993e-06
-0.0338572
-2.15163e-06
1.12061e-05
-0.00955123
-1.03265e-06
3.81559e-06
-0.0487516
8.64466e-07
-0.176309
0.00815185
2.22462e-06
-3.16335e-06
0.00198587
5.953e-05
-0.000568264
4.30697e-07
-0.847042
-0.0715079
0.00284146
1.66648e-06
0.196662
-9.43332e-07
1.57649e-07
2.87947e-06
0.000383905
0.237515
-0.00855901
-0.000142681
8.28506e-06
0.000123175
-0.157107
-0.00243858
2.5264e-06
0.0137755
4.83879e-05
0.0771915
0.00046512
-0.0011773
3.75347e-06
0.000359645
-0.00199437
2.09932e-06
3.7983e-06
-1.09031e-06
2.16317e-06
0.000333117
-0.000394503
0.00294679
-0.0262915
0.000332946
0.000132936
3.22793e-06
5.25859e-07
0.0401736
0.0487458
-2.07929e-05
-0.00137541
0.178515
0.143741
6.3619e-07
-2.55529e-06
0.00261449
-0.0155367
-6.29297e-07
-0.0857243
7.63691e-06
7.16926e-07
-0.000199324
2.8765e-06
3.30923e-06
6.16921e-05
2.12246e-06
-5.63937e-05
0.000585129
-0.00219548
0.0396519
-4.55827e-05
9.40752e-07
-0.0158008
5.56943e-06
-0.0196857
0.0490919
7.96665e-06
-0.965515
-0.000263403
1.57769e-05
-0.914585
0.0438667
0.0492025
-0.301837
4.81147e-05
-0.0420086
8.22787e-07
-0.165015
0.343713
-0.000836603
-5.52951e-05
-0.0979006
4.80246e-05
0.00490549
2.03164
-0.0621221
4.99059e-07
-0.00521526
1.48797e-06
-0.00145819
-0.00691662
1.07069e-06
0.000226661
-0.525636
-0.230703
-5.44339e-05
-8.23589e-05
-1.47723e-06
1.51535e-05
-5.21193e-05
-0.000881021
0.000964286
-2.78552e-06
-0.0154973
0.000115954
1.5218e-05
-3.439e-05
-4.78895e-07
0.0356665
1.50909e-06
2.1836e-06
1.35024
8.67147e-07
-9.54719e-05
-0.151049
-0.00385545
-0.00343129
2.21402e-06
1.21114e-05
0.000280617
7.01958e-06
-0.03048
2.05753e-05
-8.20872e-05
2.69024e-05
1.22647e-05
-1.14463e-06
-0.0442775
-6.37614e-07
0.494544
-0.00607471
5.0178e-06
-0.375657
1.17791e-06
-0.000316166
-5.65431e-05
-1.65606
1.47284e-05
0.0750908
-0.0580635
-2.49175e-06
-0.113138
3.08028e-07
1.73974
9.09866e-06
8.72705e-06
-0.189736
-0.17579
1.3398e-06
-9.98909e-06
5.54748e-05
-7.72706e-09
2.37325e-06
0.0538761
0.484013
1.35536e-05
6.81129e-08
3.77898e-07
0.133679
-0.00723569
-0.015905
1.91082e-06
0.0154593
9.13888e-06
1.39819e-05
-0.00016942
-0.0514919
2.45268e-06
-0.00154086
0.0389207
1.14096e-05
0.0206161
4.11993e-06
0.000505917
2.43901e-06
8.81972e-07
4.22943e-05
1.71003e-05
-0.00219258
2.79613e-06
-0.319637
-3.15719e-07
2.97567e-05
-0.00544856
-0.372234
-0.0012984
-3.48474e-06
1.18926e-05
-0.050865
0.0288568
0.00367198
4.39127e-07
4.75575e-06
0.000216069
0.0150495
-0.138037
-1.12925e-05
8.89804e-07
3.25945e-06
-8.86486e-06
-3.84635e-06
-6.21867e-07
-1.56961e-06
-0.0069832
1.43425e-06
3.8005e-06
-0.0507273
1.20778e-06
-0.0172212
-0.00282003
-0.186277
0.125447
0.0406468
0.460455
-7.81425e-07
4.93637e-06
-0.000103455
-1.27159e-06
1.96713e-06
-4.18377e-07
-1.35741e-07
1.34249e-05
-0.0667611
-0.00882489
0.0100098
9.80332e-05
4.32793e-06
0.0007823
0.000948683
-0.000109146
-7.13547e-07
-3.35289e-05
-1.05384e-06
0.289555
-0.339102
0.241898
4.34891e-06
-0.00673185
-0.0101004
0.013379
0.00788564
-0.765065
-5.18497e-05
-0.000624042
2.28562e-05
0.0584351
1.37018e-06
1.73368e-06
-0.00265132
-0.516987
-1.85289e-07
0.0012152
0.363362
1.98639e-06
1.00303e-06
2.67921e-06
-9.67253e-06
7.84653e-07
9.39146e-05
0.000331944
-1.33163e-06
2.24343e-07
-0.0409435
0.268655
6.45308e-07
0.0198704
0.534126
-3.1022e-05
-3.9702e-05
-2.07591e-05
1.20633e-06
-0.00010088
-2.35468e-05
1.09881e-06
5.44008e-06
8.1185e-05
4.84208e-06
-0.135644
0.000290809
7.31979e-07
-1.13729e-05
0.817254
3.44241e-07
1.98945e-06
-0.170246
1.78862e-06
9.22252e-05
3.30726e-05
3.72793e-06
4.89148e-07
2.80916e-06
-0.000123914
-0.00116667
-1.51966e-06
0.0459449
-0.000295683
-0.00814348
-0.664224
3.03808e-06
-0.00587744
8.59491e-07
0.0089517
6.52466e-06
-6.21748e-06
-0.0051031
-0.00407142
2.90082e-05
-0.124065
2.5887
1.32889e-06
-0.000121652
2.08294e-06
2.02473e-06
0.000364818
7.78112e-05
2.63222e-06
-0.00459108
2.23337e-06
-3.19439e-06
-0.0634762
1.62071e-05
2.23221e-06
5.27006e-07
-0.0919683
-1.32581e-05
-2.45593e-05
0.000357958
-0.161218
-0.0334302
-0.0103882
0.0194758
-3.38103e-08
-1.03376e-06
3.68198e-06
-0.0665707
1.37624e-06
-1.80111e-06
6.25632e-05
-1.07076e-06
1.17149
3.91716e-06
3.7408e-06
-0.222018
1.37775e-07
-0.00362792
0.805018
-1.15982e-06
-1.39777e-06
-0.524399
-8.77596e-05
0.340301
0.886636
4.45235e-07
3.9748e-06
-0.459258
2.2368e-06
5.91024e-05
0.0318099
-2.09296e-06
-0.0592954
2.23994e-06
-8.98984e-06
8.13003e-07
0.000923105
8.45228e-05
-0.00973122
7.86729e-07
2.70889e-06
-0.398079
-0.0524483
-0.00121679
-0.000324767
-0.00963851
0.0250813
-0.147017
-4.79196e-07
0.00529539
-1.43486e-06
0.0917609
-0.0411469
-2.9101e-05
9.52756e-05
3.03898e-06
-0.0290119
3.09977e-06
-2.27545
1.59709e-05
-0.280092
-0.00323689
-3.21335e-08
-1.40124e-06
-7.61723e-07
-0.199444
0.957687
7.49084e-06
-0.87731
2.66583e-06
2.47953e-06
-0.044621
3.06984e-06
1.55024
1.65632e-06
8.90475e-05
2.32065e-06
1.97389e-06
2.7591e-06
3.45034e-06
-0.00175563
-0.000384175
0.000886048
0.000372351
4.01511e-05
8.76526e-07
-0.173085
2.81813e-06
-0.00470276
3.10344e-06
-0.0779519
9.25062e-05
0.037043
1.36851e-05
-8.43067e-06
2.43461e-06
-0.852803
-2.90663e-06
0.0649377
0.00293282
2.55798e-06
-2.30204e-05
2.67113e-06
1.12214e-06
-0.00013365
-5.71445e-06
-0.184064
8.08381e-06
-6.10893e-05
6.37745e-06
3.49602e-05
-0.490228
-0.736154
9.3455e-06
5.19557e-07
-1.40825e-05
3.52501e-05
8.22872e-07
-0.000176037
-2.49855e-05
-6.87381e-07
5.52297e-07
-1.3043e-06
0.0199459
-0.00734949
1.88875e-06
-1.35363e-06
-0.0230175
-8.64295e-06
1.14883
-0.357773
1.06685e-05
-0.00185122
-1.27121e-06
-1.69074e-05
9.84204e-06
7.74587e-05
0.00012307
4.28758e-06
0.000168615
-0.0267446
-0.00517237
0.0064595
-0.376104
0.168203
-0.000564483
4.62294e-06
2.97462e-06
0.165419
-1.33596e-06
1.27571e-06
6.50886e-05
-0.00633251
1.40937e-06
-1.04719e-06
0.103939
9.71706e-06
-5.06344e-06
0.000137336
8.55945e-05
-0.00463933
3.69573e-06
1.80928e-05
7.19623e-06
-0.000755795
-2.56752e-05
5.47983e-06
1.76136e-05
-0.036147
7.94663e-07
1.52921e-06
0.0147786
-1.37935e-06
1.95427e-07
-3.58296e-06
2.38269e-05
-0.000143574
-0.177442
-0.00973535
0.0402015
0.00457607
-0.0606956
0.0228083
1.37887e-05
-0.0689419
0.0542623
4.23425e-06
7.03155e-06
1.35503e-06
3.24273e-06
2.66264e-05
-1.12073e-05
0.000622078
-0.00668152
1.6568e-06
2.85263e-08
0.00187882
-2.02771e-05
-0.000719534
-2.05991e-06
-2.91811e-05
4.78207e-06
-0.00780852
-0.398933
0.000244381
-0.307418
3.42469e-06
4.85464e-06
-0.00299261
-3.32106e-05
4.06933e-06
-0.00628811
3.71333e-05
6.8191e-05
-0.0186885
-0.0020595
-0.000720919
-2.00266e-06
3.27658e-06
8.02022e-06
-2.1496e-07
0.0124053
-0.00131315
-0.699011
0.0581491
2.33792
3.53852e-05
0.0443544
-0.640619
-0.346489
-0.00590886
0.270231
0.000190811
0.0999519
-0.00805952
-0.000856503
6.67242e-07
-3.24258e-07
1.1921e-05
0.00127531
4.39211e-07
-2.7079e-06
0.00395351
0.373475
1.66304
0.0373693
-0.0063239
-0.224261
-0.000192431
-6.90629e-06
1.86143e-06
-0.0037395
-0.00516497
1.50105e-06
0.000404891
0.221889
0.053973
0.279157
0.000910691
0.00132314
-7.97588e-07
0.457246
8.67385e-07
0.0014773
0.513519
-0.000511766
-0.00923945
-0.00859231
4.16177e-06
-1.78507e-06
-0.0416978
0.0257531
0.0238374
3.0169e-05
3.56573e-05
-0.000150626
-0.0215893
5.75055e-06
0.0329446
9.89032e-06
0.0364419
0.0510748
7.13919e-05
0.00920346
0.0016301
0.15463
-9.69775e-07
-0.000947571
-0.586311
0.000215342
1.09554e-06
0.632028
-0.0317762
1.07219e-06
2.61765e-06
0.0280812
-0.000218555
2.17633e-05
0.952723
0.0179727
-0.000177651
-0.00011743
-0.0372909
0.000114001
2.65738e-05
3.47481e-05
-0.0334721
3.09547e-05
-4.93462e-06
1.47463e-06
-0.00749891
1.02746e-06
-0.0222543
1.8621e-06
2.10983e-06
0.0481299
9.33037e-07
3.95817e-06
0.0073523
-1.06932e-06
9.41269e-05
3.47622e-06
4.64376e-06
-2.2355e-07
-0.00591359
-3.29804e-05
0.0263981
-0.00237174
-0.230794
0.118797
0.000170679
8.60213e-08
9.84503e-07
-0.621761
0.000240544
-0.000113218
0.00929308
0.000891829
1.18896
8.06056e-07
1.59245e-06
5.64356e-07
-5.51106e-06
-5.39757e-06
-1.88117e-06
-2.35217e-05
-8.44591e-05
3.37273e-06
0.0715759
-0.00267176
0.0503769
8.6807e-05
3.79745e-06
-0.000820672
-0.225661
-0.514675
-0.0175889
-0.272382
0.0911241
-0.00552394
-0.649934
-4.86571e-05
-0.000978649
-0.00116476
0.0703031
1.56859e-06
-0.0335624
0.0812711
-0.00695043
-9.91691e-07
0.0322038
3.93073e-06
2.47865e-06
-2.11983e-07
-0.000222371
0.089977
1.22965
6.9173e-08
1.77499e-06
-2.07449e-06
9.15406e-07
0.000482916
3.4152e-06
-0.718208
-0.00186205
-0.000914584
4.33238e-05
3.21119e-07
-2.89792e-06
0.385939
-0.0116648
-1.85389e-06
8.99583e-05
1.15844
9.37568e-07
3.69978e-06
1.86255e-07
-6.70525e-06
-1.0864e-07
5.41573e-08
2.80045e-06
0.131922
3.17119e-05
-0.00969655
1.13529e-05
2.46047e-08
-0.0706451
2.21742e-05
-0.00671264
1.32003e-07
-0.00233303
0.0403646
-0.15625
-0.000982706
-0.0029211
0.180016
-0.000227579
0.000999779
-3.32684e-07
-3.59131e-07
-2.38922e-06
2.04124e-06
0.0695766
0.00112553
5.81205e-05
0.0406022
-2.58511e-06
-4.22646e-05
0.000729427
0.617586
-4.60315e-07
-0.00142263
1.58594
-0.0059991
0.339745
-1.4236e-06
-2.78196e-06
0.397309
0.000283464
5.58674e-07
1.98073e-06
-0.00914021
2.58215e-07
1.61376e-06
2.71353
-0.00234073
-5.3559e-05
-2.67189e-05
9.91523e-05
-0.33325
9.54077e-06
0.52726
-1.07286
7.49094e-07
4.25563e-07
-0.464241
0.000992301
0.000392738
2.79104e-05
0.000508887
-0.000753572
4.97013e-07
-0.000121399
-0.00800332
0.00126193
1.46534
-0.00421657
-0.000453942
0.0932569
-0.943165
3.47559e-05
0.0154841
-0.458818
-0.000198932
-0.345174
4.44154e-07
-0.00533203
-0.00501687
0.0890522
0.000982865
-0.012232
0.000716932
-0.0108978
4.21748e-06
1.91403e-06
0.145965
-0.000114396
1.68225e-07
9.42308e-07
3.25014e-05
5.49882e-06
-3.92851e-07
1.85185e-06
-6.37874e-07
-0.301613
-0.502905
5.01128e-06
-8.51129e-06
0.0249304
0.00507745
-1.17797e-06
-0.00579295
-0.0140953
-0.00129287
6.48887e-06
2.66132e-06
0.345625
3.38191e-05
9.86611e-05
-0.00645501
1.42424e-06
0.000645671
-0.49179
-2.63077e-06
-0.0478891
-0.521584
-0.491032
-2.52509e-07
-2.37174e-06
3.23389e-06
2.58469e-06
1.35008e-06
0.0413513
-0.0763053
1.63638e-06
0.0339158
-0.0974098
1.14249e-06
4.28067e-06
1.48726e-06
0.00797636
0.130478
-0.00852758
-0.00204931
3.05901e-05
-0.405716
0.0257888
-4.02282e-07
3.31902e-06
0.000136342
-0.000404144
-0.0571479
-0.00174344
-4.59618e-07
-0.00232317
0.0376497
-0.000255676
7.90719e-07
2.4252e-06
-0.000108001
1.70115e-06
7.40259e-06
9.76556e-07
0.00301731
-0.206836
-3.63761e-06
-3.26761e-06
0.000292417
1.92461e-06
3.75666e-06
0.000128932
0.0238552
8.20895e-07
0.000113237
0.614947
-0.00609749
0.0998706
-0.00682674
6.03402e-05
0.000128581
-5.90956e-05
-1.10906e-06
1.82646e-06
-3.01462e-05
-0.120817
0.00178797
2.68753e-05
-0.00269223
-3.82746e-06
0.628224
-0.129216
3.76552e-06
0.0402702
-5.47865e-06
3.83811e-05
0.000779203
0.990273
6.06192e-05
0.000105116
4.64064e-06
0.00127838
-1.95613e-06
1.87395
-0.0958039
1.39955e-06
-0.00533971
-0.0761204
-2.91878e-06
3.79765e-05
-0.00551503
-0.00396411
5.12124e-06
-0.00543943
4.28791e-05
-3.81508e-07
-0.122949
0.0426832
0.189423
1.16052e-06
-0.682794
0.000342618
-4.06619e-06
0.000568782
0.000440954
-0.000163704
-0.00731129
0.130833
0.00679042
-0.00258629
-0.0101241
1.07701e-06
-0.018298
0.0487708
-0.00589134
-0.0082928
-2.23717e-06
-0.530081
-7.04967e-07
2.5664e-06
-0.00119242
1.04035e-05
0.0185545
0.0462409
5.31435e-06
-0.183536
-0.101253
0.365125
0.000207828
-0.00227153
-5.32255e-07
6.47678e-05
7.40189e-05
-1.17172e-08
-0.14916
0.0390387
-0.285084
0.0444785
-0.0137182
0.00397293
1.11598
7.23413e-06
9.35787e-05
-2.05124
-0.00266256
1.89339e-06
4.42698e-07
-0.435784
-0.0021144
0.0004431
1.13127e-06
3.45115e-07
-0.0297693
1.5251e-06
0.000760756
0.0570657
-2.75305e-06
0.17367
-2.50815e-06
0.261411
0.000352587
0.116863
2.22442e-05
-0.0163146
3.50439e-05
1.17818e-06
2.97285e-05
0.082457
0.00103218
0.114201
-3.62169e-06
2.63456e-06
-0.044921
0.000811598
5.2425e-06
-0.008507
-0.00546258
-0.0995209
-0.517277
-7.26232e-07
3.65886e-06
-0.0323325
-3.11561e-07
-2.80985e-06
0.000198029
4.79398e-06
4.35583e-06
8.38014e-08
6.98421e-07
7.61622e-05
1.00155e-06
0.000753604
0.000148703
0.000126481
-0.274625
0.070536
0.000214966
1.0904e-07
3.17565e-06
-0.0061547
3.66913e-06
1.76716e-06
-3.27777e-06
-0.00299772
-7.03417e-06
-1.00429e-06
4.13078e-05
-0.00182396
-0.00806334
-2.23287e-06
-0.0190876
-0.00780171
0.000441036
0.0458565
0.000481649
6.41613e-06
-1.12744e-06
0.00575344
0.00293384
2.93182e-06
-0.0924084
0.467843
3.29556e-06
-0.821928
-3.52761e-05
-0.000690448
0.00512735
-0.749278
0.129525
-0.000100362
2.35223e-06
-0.151506
1.05338e-05
0.0506151
-0.00418352
0.134055
0.423577
2.1918e-05
-0.00131346
4.34559e-06
0.00511023
-0.003485
0.218759
1.7586e-06
-3.58254e-06
0.00269865
2.4173e-05
-0.231347
-5.47673e-06
-0.0245981
-0.113659
-0.00104904
0.177896
0.0975196
-5.52487e-06
-1.40743e-06
2.95815e-06
-0.313885
0.0330307
7.91906e-06
2.24771e-06
-1.74274e-05
1.57356e-07
-0.00136596
-5.77463e-06
2.17731e-06
0.00817477
8.3334e-06
1.33396e-06
4.81075e-05
1.845
0.388985
-0.336726
2.38722e-06
-0.000215925
0.0002899
-2.56641e-05
-0.00260882
-0.386296
0.0849174
6.62858e-06
-0.00234148
-1.39135e-06
-0.000382785
-0.00494102
-0.00192911
0.296032
1.05871e-06
-0.00262553
-5.26804e-06
0.0157192
-0.110872
2.15203e-06
3.49423e-05
3.21034e-06
3.33441e-06
0.302926
-3.33318e-06
-1.12728e-06
5.97393e-06
2.07169e-05
1.40427e-06
4.0141e-05
3.40832e-06
3.77275e-05
3.15909e-06
2.25656e-06
0.307835
-0.0129366
0.0418882
1.74835e-06
-1.96754e-06
-3.05824e-06
3.32099e-08
5.40728e-07
0.000610481
1.71368e-06
1.0538e-06
1.70926e-06
5.02038e-07
3.83537e-06
2.8286e-06
-0.230117
0.234544
-0.0010122
0.0283399
4.73923e-06
0.647744
-0.0141971
-0.00178375
5.53613e-06
-0.203908
1.46982e-06
2.41756e-06
-3.35526e-06
-6.68092e-06
-0.00732659
1.00684e-06
0.00490137
-0.000581662
-5.8104e-08
-0.00499294
0.0158068
0.000155285
-1.65215e-06
-1.22767e-05
-0.307376
-0.00127099
0.0574069
1.10819e-06
-6.86709e-05
-6.77444e-07
6.41053e-05
-0.000139479
0.0152131
0.000325544
-7.7886e-07
-0.71189
0.00528969
-0.00637994
2.19614e-06
6.44837e-06
-0.0904934
4.05804e-05
2.5576e-06
0.000650517
-0.155596
6.64358e-06
1.85507e-06
-1.54802e-06
0.000766773
-8.23694e-06
-0.0365117
-1.93727e-06
-3.83918e-05
0.000436534
-0.390198
-3.69339e-07
2.54336e-06
-1.66305e-06
0.000358834
-1.78787e-08
2.46968
0.0317211
0.000608679
-0.0301103
2.94403e-06
-0.940778
-5.23092e-06
6.90417e-07
-0.00286224
0.000940031
-0.00572315
0.000295302
0.0463025
1.01873
5.06993e-05
-0.000330107
-3.73231e-05
0.071647
-3.78242e-06
0.000341677
-0.0283173
6.61866e-06
0.00784933
0.00513249
0.0258675
0.0739904
-0.00339603
-0.00585849
-0.0700043
-0.00693756
9.24067e-05
-0.00487949
1.21931e-06
-7.53672e-07
3.71269e-06
-0.711378
-0.0277207
-0.0202771
0.000235269
0.00014173
0.00159684
1.55261e-06
0.0039589
1.65577e-06
0.000745592
1.59819e-06
2.29709e-07
0.000199362
-0.00141197
-0.811515
9.81089e-05
0.000286989
-9.03314e-07
0.00261505
0.465019
-1.9395e-06
0.00252459
0.182976
-1.80621e-07
-0.00367935
5.19533e-07
0.130332
0.000127673
-0.0309724
-2.07257e-05
5.73703e-06
0.000224707
-0.00129614
-1.53873
0.0020459
0.020649
1.24208e-05
-3.69341e-06
-3.83496e-06
2.63572e-06
-1.08662e-06
3.62531e-06
-0.943799
0.167242
-9.53186e-05
4.57662e-07
-0.000263557
-5.7255e-05
-6.38579e-07
-3.16539e-06
-0.00597987
-0.0285386
-0.0612261
-1.21594e-05
-0.000381085
-7.89732e-08
-0.00458201
2.01241e-05
-0.00119204
-0.00945811
-0.0587921
-0.0124042
-1.39303e-07
-3.05194e-06
2.13879e-06
-6.74522e-08
2.58714e-07
1.4817e-07
-0.648904
2.89843e-06
2.29035e-06
8.41841e-07
0.000900864
1.43853e-06
0.157867
-0.225435
-0.0135809
6.45173e-07
0.406397
-1.3626e-06
-0.0205309
-0.00271781
-0.000122738
-0.0170134
3.59077e-05
-0.00457341
6.64306e-06
0.000268895
-8.25539e-05
0.00296531
-0.00696859
0.314769
-0.0067968
-0.0050943
-8.37017e-05
2.12953e-05
7.29106e-06
0.274599
7.08267e-05
-0.0468188
-3.06142e-05
-0.18275
-0.430996
0.0169486
3.03075e-05
0.426751
0.000138451
-2.43548e-06
-4.06653e-06
2.0689e-05
-0.00511852
1.96666e-06
-0.0455588
-0.00258385
-0.00772292
2.24782e-06
-0.000221936
0.0358439
-0.0047746
0.0376281
0.000113508
-0.000417896
0.0976177
0.00665304
7.67062e-06
0.00310473
0.0101582
-0.00478152
-0.198526
0.000271784
0.000493308
-0.000643515
-3.73928e-06
-0.000363728
-0.00253719
1.08367e-06
0.063833
0.110479
-0.735139
-7.24988e-05
-0.0106475
0.00426858
2.34337e-06
-0.00163057
-5.70087e-07
0.00822461
-5.01857e-05
-0.223069
0.281697
-0.0707682
0.0485687
-0.00702829
-1.09473
6.54141e-05
0.000819046
0.0455493
-0.873113
1.99671e-05
4.29674e-05
8.09197e-07
-0.000192042
-1.90168e-06
2.32333e-06
0.0161126
3.83819e-06
-1.10457e-06
0.000807559
5.15943e-05
1.70585e-06
0.00725606
-0.255906
-0.00320712
-2.80388e-06
-3.24744e-06
2.30087e-05
-4.12759e-05
3.57736e-06
2.16201e-06
1.58945e-06
-0.388198
0.000131641
-0.00230863
3.98013e-05
2.2817e-06
5.25035e-07
-0.0060315
-0.00699072
0.00547746
-0.00200614
5.89769e-06
0.000575409
1.75115e-06
-0.000135311
0.916547
-2.60425
-0.00459538
7.02669e-06
-1.29517e-06
0.000631944
0.0432866
0.0377924
-0.00658267
0.000130539
3.70305e-06
6.10515e-07
0.000105865
0.163704
-0.103538
-1.39696e-07
-0.00959476
7.7668e-07
-1.52313e-06
-0.00331622
-6.07325e-07
-0.199738
-0.00376176
0.00360547
-3.76224e-06
-0.000655155
-0.00117574
-0.261716
1.15858e-06
3.31905e-05
-0.00468139
-0.0599187
-0.511445
0.279975
-0.410638
1.0913e-05
-0.00960945
0.000182557
-0.00542894
-0.793636
-0.00049154
-1.615e-07
-5.30259e-07
-3.2362e-06
0.0404869
-0.226113
0.000204731
-0.134184
-3.81908e-06
-1.74319e-07
5.29572e-06
-0.00327399
0.000393348
-0.161793
2.24678e-06
1.1155e-05
0.00093533
1.65313
-1.51073e-06
-0.0242207
6.21321e-05
-0.000251748
-0.173758
6.36274e-07
-0.167905
-0.299863
-0.013372
-0.0309553
1.00309e-05
1.62923e-05
0.000138312
0.0594888
-0.000463995
-4.68024e-06
1.32472
0.018665
-1.16301e-08
2.12115e-05
-0.0796442
1.60139e-06
0.232648
0.264525
0.000165483
-1.58036e-06
0.000143465
0.000114559
-0.268372
1.93729e-07
-0.000774948
4.76385e-05
1.68214
-0.600903
1.3439e-06
-3.87141e-06
-0.00289343
0.000146576
-3.66704e-08
1.94622e-06
1.08789e-06
-0.00210206
4.6197e-05
1.02949
3.54353e-06
1.86274e-06
9.17146e-05
1.45912e-05
0.000344626
2.46452e-05
-0.162053
0.0108686
-0.0689501
2.9622e-06
-1.52882e-06
0.393846
-0.000152466
-0.00498397
0.0622695
-0.00917286
0.0538574
0.0317176
1.07813e-08
0.702632
0.0254011
3.01695e-05
4.20948e-07
2.07101e-06
2.63947e-06
-2.1449
0.0160635
-4.3018e-07
-0.33627
0.281889
0.0551286
-3.01972e-06
-1.12131e-06
1.81595
1.19122e-06
1.31222e-06
1.50895e-05
2.11014e-06
0.443228
-6.81015e-07
-0.793328
0.0340051
-1.0362e-06
-1.39161
0.0279372
2.71981
-0.0517735
3.09753e-06
0.000116382
0.00140466
0.151542
-0.0365
0.0212531
-1.15716e-05
1.83357e-06
-0.0066029
1.7571e-06
2.59611
-0.100326
1.33494e-06
0.174773
-5.10552e-07
0.0823466
3.34241e-05
0.0128089
2.75647e-05
-3.26819
-0.0156255
0.514923
1.34723
-2.9272e-06
0.23522
0.0106874
8.86123e-06
0.0620134
9.79718e-06
-5.93799e-07
5.10523e-06
0.000494823
0.000124279
1.95591e-06
2.39526e-06
0.047632
-0.00111153
0.000638567
-0.310436
-0.00153997
-0.000561997
-6.84585e-05
0.000177711
-3.97987e-06
-0.00471033
1.52287
-1.21188
0.0448373
4.33228e-05
5.50924e-06
3.08898e-05
-0.00227948
5.39282e-05
2.38146e-06
0.403241
-0.0952168
-0.157041
-0.000614205
3.53772e-07
-0.000887269
-2.35387
2.79825e-06
1.62896e-06
3.62784e-05
5.46974e-06
-0.000876852
-1.22429e-06
-0.0119256
9.42627e-10
-0.509649
-8.19829e-07
0.0375917
0.126995
-0.00641352
2.34018e-06
-0.00302467
-4.08525e-06
-1.41564e-06
-0.00241058
-0.0560523
1.37771e-06
9.44818e-06
0.546908
-2.70733e-06
-0.00109973
0.360331
2.76683e-05
-0.136581
1.16064e-06
-0.486155
0.000253537
0.0421675
-1.54218e-06
-3.38677e-06
-0.0215799
7.60952e-07
-0.00656675
0.000138919
0.000786951
-0.209341
2.54802e-05
2.08469e-06
1.71007e-05
3.61226e-06
-0.259918
0.29548
-3.00455e-07
-0.0106678
-0.009218
-0.0193594
7.85908e-06
0.00298601
0.10201
0.000463821
-8.22006e-05
4.28097e-06
-0.29863
-4.84927e-07
-0.531386
-1.43662e-06
3.51955e-05
0.000132064
-9.37232e-08
1.98849e-06
0.0119712
8.16317e-05
2.18749e-06
0.0341347
-1.77569e-06
0.0016718
8.82311e-05
0.528269
0.00265418
-1.47116e-06
0.000971663
2.01759e-06
2.26584e-06
0.000122687
-0.211425
0.0788746
0.0479118
0.36543
1.73645e-06
-8.4179e-06
-1.43226e-05
8.78231e-07
3.42237e-07
1.7041
-2.19582e-08
-2.94432e-05
-0.033543
-3.0868e-05
0.00166833
3.07085e-06
1.90395e-06
-0.251134
-0.747874
-3.26142e-07
-0.00206374
1.3752e-05
-0.0407287
3.2118e-06
1.83078e-05
0.0125794
2.17401e-05
0.0714405
-0.00146204
8.64614e-06
2.57491e-05
0.246626
2.50679e-05
-0.000716607
0.668648
-0.927104
0.000117308
8.60943e-05
0.00153121
0.21385
3.27665e-05
-0.0659033
-0.279914
-0.252687
0.456867
-7.53746e-05
4.47403e-06
-1.54311e-08
0.112022
-0.0348931
-0.024035
0.187906
2.6906e-06
0.351739
-0.000103289
-0.324894
2.57422e-06
0.00114098
-0.00776776
4.62305e-05
3.93089e-05
-0.00208626
0.000231296
9.08595e-06
4.2552e-06
-9.0264e-05
9.62608e-05
2.76154e-07
0.866294
5.16282e-07
9.7776e-06
-7.6592e-06
-0.037499
0.00135967
0.027058
0.00068775
7.28371e-05
0.539578
0.000225667
-0.00313706
-1.51525e-06
8.11141e-08
-0.207498
0.150729
-0.0726329
2.24266e-05
5.31045e-06
-0.301654
-0.00396436
-0.00760154
0.0626819
0.302594
0.187544
1.46768e-06
0.0566689
-9.12523e-06
-0.00449819
0.280722
-0.00471327
-0.00439849
3.03651e-06
0.112423
-0.00201264
-0.0120286
-0.00195475
3.68646e-06
3.3447e-06
-1.91669e-06
0.70461
1.81043e-07
0.39453
-0.00464099
-0.0261577
6.50718e-07
0.460879
-0.18992
-0.00745164
0.0234272
2.73042e-05
-3.24656e-07
4.81511e-06
-0.000252601
4.66222e-06
-0.000182573
-0.20143
1.18594e-06
3.32679e-05
0.154567
-0.00698254
0.00347412
0.000132941
0.00102665
2.81999e-06
0.111657
5.68327e-05
-0.383086
-0.000988544
0.0363314
0.000482674
-0.00253607
-0.40268
3.09393e-06
2.0591e-07
1.17618
0.0703004
-0.205286
-0.00493417
-0.0010733
-7.77668e-06
-0.00230654
1.60284e-06
0.00106697
2.45007e-06
1.02957e-05
0.0461209
1.54757e-05
-0.00343479
3.62979e-07
-0.202671
-0.000264871
-0.0024446
0.000742206
-0.0701813
-0.000214262
-1.42195e-06
0.071528
-0.188251
0.0818314
1.21369e-06
-1.33776e-05
-0.0448934
-0.16764
1.21728
5.19076e-06
2.46049e-05
-3.37379e-07
0.000384636
7.30082e-06
1.81705e-06
-1.18568
3.12756e-07
-0.0641784
2.64362e-06
0.0979809
3.6052e-06
-0.11037
0.0342995
-0.00781099
0.298873
-0.0129061
-1.0942e-06
-0.00263497
-1.16958
6.38266e-07
8.39988e-06
4.58432e-06
0.318975
1.03395
5.91986e-08
0.214674
0.00139843
1.80349e-06
-0.357699
3.89854e-05
-0.00204615
0.349534
0.0547803
6.20641e-07
-0.566433
-0.00124587
-1.85275e-06
0.100356
0.00181155
-0.0145498
0.631415
0.00372511
-0.514169
0.162623
0.000459326
0.185241
-0.159558
0.200724
1.19841e-05
-2.0158e-06
9.6652e-07
4.47718e-05
0.027984
-0.983807
-0.0327372
-2.17857