/*--------------------------------*- C++ -*----------------------------------*\
| =========                 |                                                 |
| \\      /  F ield         | OpenFOAM: The Open Source CFD Toolbox           |
|  \\    /   O peration     | Version:  v2012                                 |
|   \\  /    A nd           | Website:  www.openfoam.com                      |
|    \\/     M anipulation  |                                                 |
\*---------------------------------------------------------------------------*/
FoamFile
{
    version     2.0;
    format      ascii;
    class       pointVectorField;
    location    "250";
    object      pointDisplacement;
}
// * * * * * * * * * * * * * * * * * * * * * * * * * * * * * * * * * * * * * //

dimensions      [0 1 0 0 0 0 0];


internalField   nonuniform List<vector> 
19270
(
(0 0 0)
(0 0 0)
(0 0 0)
(0 0 0)
(0 0 0)
(0 0 0)
(0 0 0)
(0 0 0)
(0 0 0)
(0 0 0)
(0 0 0)
(0 0 0)
(0 0 0)
(0 0 0)
(0 0 0)
(0 0 0)
(0 0 0)
(0 0 0)
(0 0 0)
(0 0 0)
(0 0 0)
(0 0 0)
(0 0 0)
(0 0 0)
(0 0 0)
(0 0 0)
(0 0 0)
(0 0 0)
(0 0 0)
(0 0 0)
(0 0 0)
(0 0 0)
(0 0 0)
(0 0 0)
(0 0 0)
(0 0 0)
(0 0 0)
(0 0 0)
(0 0 0)
(0 0 0)
(0 0 0)
(0 0 0)
(0 0 0)
(0 0 0)
(0 0 0)
(0 0 0)
(0 0 0)
(0 0 0)
(0 0 0)
(0 0 0)
(0 0 0)
(0 0 0)
(0 0 0)
(0 0 0)
(0 0 0)
(0 0 0)
(0 0 0)
(0 0 0)
(0 0 0)
(0 0 0)
(0 0 0)
(0 0 0)
(0 0 0)
(0 0 0)
(0 0 0)
(0 0 0)
(0 0 0)
(0 0 0)
(0 0 0)
(0 0 0)
(0 0 0)
(0 0 0)
(0 0 0)
(0 0 0)
(0 0 0)
(0 0 0)
(0 0 0)
(0 0 0)
(0 0 0)
(0 0 0)
(0 0 0)
(0 0 0)
(0 0 0)
(0 0 0)
(0 0 0)
(0 0 0)
(0 0 0)
(0 0 0)
(0 0 0)
(0 0 0)
(0 0 0)
(0 0 0)
(0 0 0)
(0 0 0)
(0 0 0)
(0 0 0)
(0 0 0)
(0 0 0)
(0 0 0)
(0 0 0)
(0 0 0)
(0 0 0)
(0 0 0)
(0 0 0)
(0 0 0)
(0 0 0)
(0 0 0)
(0 0 0)
(0 0 0)
(0 0 0)
(0 0 0)
(0 0 0)
(0 0 0)
(0 0 0)
(0 0 0)
(0 0 0)
(0 0 0)
(0 0 0)
(0 0 0)
(0 0 0)
(0 0 0)
(0 0 0)
(0 0 0)
(0 0 0)
(0 0 0)
(0 0 0)
(0 0 0)
(0 0 0)
(0 0 0)
(0 0 0)
(0 0 0)
(0 0 0)
(0 0 0)
(0 0 0)
(0 0 0)
(0 0 0)
(0 0 0)
(0 0 0)
(0 0 0)
(0 0 0)
(0 0 0)
(0 0 0)
(0 0 0)
(0 0 0)
(0 0 0)
(0 0 0)
(0 0 0)
(0 0 0)
(0 0 0)
(0 0 0)
(0 0 0)
(0 0 0)
(0 0 0)
(0 0 0)
(0 0 0)
(0 0 0)
(0 0 0)
(0 0 0)
(0 0 0)
(0 0 0)
(0 0 0)
(0 0 0)
(0 0 0)
(0 0 0)
(0 0 0)
(0 0 0)
(0 0 0)
(0 0 0)
(0 0 0)
(0 0 0)
(0 0 0)
(0 0 0)
(0 0 0)
(0 0 0)
(0 0 0)
(0 0 0)
(0 0 0)
(0 0 0)
(0 0 0)
(0 0 0)
(0 0 0)
(0 0 0)
(0 0 0)
(0 0 0)
(0 0 0)
(0 0 0)
(0 0 0)
(0 0 0)
(0 0 0)
(0 0 0)
(0 0 0)
(0 0 0)
(0 0 0)
(0 0 0)
(0 0 0)
(0 0 0)
(0 0 0)
(0 0 0)
(0 0 0)
(0 0 0)
(0 0 0)
(0 0 0)
(0 0 0)
(0 0 0)
(0 0 0)
(0 0 0)
(0 0 0)
(0 0 0)
(0 0 0)
(0 0 0)
(0 0 0)
(0 0 0)
(0 0 0)
(0 0 0)
(0 0 0)
(0 0 0)
(0 0 0)
(0 0 0)
(0 0 0)
(0 0 0)
(0 0 0)
(0 0 0)
(0 0 0)
(0 0 0)
(0 0 0)
(0 0 0)
(0 0 0)
(0 0 0)
(0 0 0)
(0 0 0)
(0 0 0)
(0 0 0)
(0 0 0)
(0 0 0)
(0 0 0)
(0 0 0)
(0 0 0)
(0 0 0)
(0 0 0)
(0 0 0)
(0 0 0)
(0 0 0)
(0 0 0)
(0 0 0)
(0 0 0)
(0 0 0)
(0 0 0)
(0 0 0)
(0 0 0)
(0 0 0)
(0 0 0)
(0 0 0)
(0 0 0)
(0 0 0)
(0 0 0)
(0 0 0)
(0 0 0)
(0 0 0)
(0 0 0)
(0 0 0)
(0 0 0)
(0 0 0)
(0 0 0)
(0 0 0)
(0 0 0)
(0 0 0)
(0 0 0)
(0 0 0)
(0 0 0)
(0 0 0)
(0 0 0)
(0 0 0)
(0 0 0)
(0 0 0)
(0 0 0)
(0 0 0)
(0 0 0)
(0 0 0)
(0 0 0)
(0 0 0)
(0 0 0)
(0 0 0)
(0 0 0)
(0 0 0)
(0 0 0)
(0 0 0)
(0 0 0)
(0 0 0)
(0 0 0)
(0 0 0)
(0 0 0)
(0 0 0)
(0 0 0)
(0 0 0)
(0 0 0)
(0 0 0)
(0 0 0)
(0 0 0)
(0 0 0)
(0 0 0)
(0 0 0)
(0 0 0)
(0 0 0)
(0 0 0)
(0 0 0)
(0 0 0)
(0 0 0)
(0 0 0)
(0 0 0)
(0 0 0)
(0 0 0)
(0 0 0)
(0 0 0)
(0 0 0)
(0 0 0)
(0 0 0)
(0 0 0)
(0 0 0)
(0 0 0)
(0 0 0)
(0 0 0)
(0 0 0)
(0 0 0)
(0 0 0)
(0 0 0)
(0 0 0)
(0 4.75241e-06 0)
(0 3.7074e-06 0)
(0 4.6657e-06 0)
(0 3.96829e-06 0)
(0 4.28087e-06 0)
(0 2.75089e-06 0)
(0 3.0676e-06 0)
(0 3.42693e-06 0)
(0 1.69423e-06 0)
(0 2.46689e-06 0)
(0 7.06596e-07 0)
(0 3.02108e-06 0)
(0 1.60325e-07 0)
(0 4.20084e-06 0)
(0 2.29333e-06 0)
(0 2.34308e-06 0)
(0 1.94332e-06 0)
(0 1.83565e-06 0)
(0 4.53736e-06 0)
(0 1.49754e-06 0)
(0 1.22691e-06 0)
(0 9.42257e-07 0)
(0 2.00006e-07 0)
(0 4.57504e-06 0)
(0 3.67547e-06 0)
(0 3.64684e-06 0)
(0 2.91482e-06 0)
(0 2.71825e-06 0)
(0 8.46416e-07 0)
(0 6.19325e-07 0)
(0 2.66002e-06 0)
(0 9.36874e-07 0)
(0 2.30309e-07 0)
(0 3.50999e-06 0)
(0 1.96948e-06 0)
(0 2.52421e-06 0)
(0 3.34395e-06 0)
(0 3.86205e-06 0)
(0 2.96566e-06 0)
(0 2.1205e-06 0)
(0 5.49175e-07 0)
(0 3.64786e-07 0)
(0 1.54376e-06 0)
(0 2.53673e-07 0)
(0 2.86352e-06 0)
(0 3.99818e-06 0)
(0 3.00954e-06 0)
(0 4.44893e-06 0)
(0 3.80223e-06 0)
(0 4.51945e-06 0)
(0 3.68081e-07 0)
(0 1.04186e-06 0)
(0 1.36734e-06 0)
(0 2.71193e-06 0)
(0 2.76131e-06 0)
(0 4.61255e-06 0)
(0 3.53802e-06 0)
(0 2.58649e-06 0)
(0 4.93988e-06 0)
(0 4.06987e-06 0)
(0 3.94003e-06 0)
(0 4.52086e-06 0)
(0 2.99042e-06 0)
(0 2.75055e-06 0)
(0 2.70836e-06 0)
(0 2.30331e-06 0)
(0 1.72549e-06 0)
(0 1.4572e-06 0)
(0 9.87213e-07 0)
(0 1.42097e-07 0)
(0 8.86102e-05 0)
(0 0.000113734 0)
(0 0.000128004 0)
(0 0.000131038 0)
(0 0.00013363 0)
(0 0.000135772 0)
(0 0.000137298 0)
(0 0.000138308 0)
(0 0.000138734 0)
(0 0.00013856 0)
(0 0.000137836 0)
(0 0.000136493 0)
(0 0.000134641 0)
(0 0.00013234 0)
(0 0.00012971 0)
(0 0.000126712 0)
(0 0.000123311 0)
(0 0.000119333 0)
(0 0.000114897 0)
(0 0.000111928 0)
(0 0.00011018 0)
(0 0.000110572 0)
(0 0.00010885 0)
(0 0.000109149 0)
(0 0.000107461 0)
(0 0.000107675 0)
(0 0.00010601 0)
(0 0.000106151 0)
(0 0.0001045 0)
(0 0.000104557 0)
(0 0.000102922 0)
(0 0.000102794 0)
(0 0.000102907 0)
(0 0.00010127 0)
(0 0.000101187 0)
(0 9.95201e-05 0)
(0 9.93729e-05 0)
(0 0.000100971 0)
(0 9.90892e-05 0)
(0 0.000100619 0)
(0 9.75049e-05 0)
(0 9.7165e-05 0)
(0 9.55651e-05 0)
(0 9.51997e-05 0)
(0 9.35977e-05 0)
(0 9.31582e-05 0)
(0 5.54819e-05 0)
(0 5.30579e-05 0)
(0 5.46505e-05 0)
(0 5.22957e-05 0)
(0 5.36876e-05 0)
(0 5.15226e-05 0)
(0 5.29354e-05 0)
(0 5.08137e-05 0)
(0 5.23443e-05 0)
(0 5.01526e-05 0)
(0 5.1689e-05 0)
(0 4.95079e-05 0)
(0 5.10531e-05 0)
(0 4.88732e-05 0)
(0 5.04728e-05 0)
(0 4.82654e-05 0)
(0 4.98699e-05 0)
(0 4.77245e-05 0)
(0 4.93202e-05 0)
(0 4.72447e-05 0)
(0 4.87982e-05 0)
(0 4.67069e-05 0)
(0 4.82997e-05 0)
(0 4.62111e-05 0)
(0 4.77996e-05 0)
(0 4.54963e-05 0)
(0 4.73489e-05 0)
(0 4.5389e-05 0)
(0 4.70007e-05 0)
(0 4.50374e-05 0)
(0 4.66698e-05 0)
(0 4.46895e-05 0)
(0 4.63382e-05 0)
(0 4.43658e-05 0)
(0 4.60088e-05 0)
(0 4.40306e-05 0)
(0 4.56892e-05 0)
(0 4.37573e-05 0)
(0 4.54214e-05 0)
(0 4.35216e-05 0)
(0 4.51504e-05 0)
(0 4.3258e-05 0)
(0 4.48849e-05 0)
(0 4.29936e-05 0)
(0 4.71845e-05 0)
(0 4.46923e-05 0)
(0 4.28298e-05 0)
(0 4.10358e-05 0)
(0 4.11147e-05 0)
(0 3.92214e-05 0)
(0 3.93968e-05 0)
(0 3.75298e-05 0)
(0 3.74002e-05 0)
(0 3.58877e-05 0)
(0 3.57278e-05 0)
(0 3.42838e-05 0)
(0 3.41524e-05 0)
(0 3.27223e-05 0)
(0 3.26611e-05 0)
(0 3.1201e-05 0)
(0 3.12087e-05 0)
(0 2.97705e-05 0)
(0 2.98317e-05 0)
(0 2.84324e-05 0)
(0 2.85537e-05 0)
(0 2.71634e-05 0)
(0 2.73041e-05 0)
(0 2.59592e-05 0)
(0 2.61188e-05 0)
(0 2.48161e-05 0)
(0 2.49924e-05 0)
(0 2.37178e-05 0)
(0 2.39122e-05 0)
(0 2.26754e-05 0)
(0 2.288e-05 0)
(0 2.16883e-05 0)
(0 2.18951e-05 0)
(0 2.07486e-05 0)
(0 2.09703e-05 0)
(0 1.98684e-05 0)
(0 2.01164e-05 0)
(0 1.90608e-05 0)
(0 1.93354e-05 0)
(0 1.83139e-05 0)
(0 1.86107e-05 0)
(0 1.76125e-05 0)
(0 1.79203e-05 0)
(0 1.69208e-05 0)
(0 1.72738e-05 0)
(0 1.6275e-05 0)
(0 1.67239e-05 0)
(0 1.56759e-05 0)
(0 1.60017e-05 0)
(0 1.5095e-05 0)
(0 1.54576e-05 0)
(0 1.45745e-05 0)
(0 1.50187e-05 0)
(0 1.40943e-05 0)
(0 1.44618e-05 0)
(0 1.36449e-05 0)
(0 4.45687e-05 0)
(0 3.26802e-05 0)
(0 2.40895e-05 0)
(0 4.57421e-05 0)
(0 2.82752e-05 0)
(0 1.81726e-05 0)
(0 1.48529e-05 0)
(0 2.24161e-05 0)
(0 1.46775e-05 0)
(0 1.79952e-05 0)
(0 9.13618e-05 0)
(0 9.10598e-05 0)
(0 8.93657e-05 0)
(0 8.89648e-05 0)
(0 8.73602e-05 0)
(0 8.77783e-05 0)
(0 8.68216e-05 0)
(0 8.83772e-05 0)
(0 8.52573e-05 0)
(0 8.46193e-05 0)
(0 8.30487e-05 0)
(0 8.23556e-05 0)
(0 8.07725e-05 0)
(0 8.00757e-05 0)
(0 7.84965e-05 0)
(0 7.77735e-05 0)
(0 7.61877e-05 0)
(0 7.54265e-05 0)
(0 4.90237e-05 0)
(0 7.38073e-05 0)
(0 7.45124e-05 0)
(0 7.30141e-05 0)
(0 7.45587e-05 0)
(0 7.20993e-05 0)
(0 7.35585e-05 0)
(0 7.05815e-05 0)
(0 6.96315e-05 0)
(0 6.81342e-05 0)
(0 6.71612e-05 0)
(0 6.56843e-05 0)
(0 6.4694e-05 0)
(0 6.32387e-05 0)
(0 6.22266e-05 0)
(0 6.07961e-05 0)
(0 5.97488e-05 0)
(0 6.11118e-05 0)
(0 5.83491e-05 0)
(0 5.72859e-05 0)
(0 5.93801e-05 0)
(0 5.5903e-05 0)
(0 5.48361e-05 0)
(0 4.35482e-05 0)
(0 5.34731e-05 0)
(0 5.23939e-05 0)
(0 5.10452e-05 0)
(0 4.99554e-05 0)
(0 4.86184e-05 0)
(0 4.75174e-05 0)
(0 4.87699e-05 0)
(0 4.63258e-05 0)
(0 4.74697e-05 0)
(0 4.51113e-05 0)
(0 5.15751e-05 0)
(0 4.39278e-05 0)
(0 4.27406e-05 0)
(0 4.15818e-05 0)
(0 4.0408e-05 0)
(0 3.92664e-05 0)
(0 3.81127e-05 0)
(0 3.69804e-05 0)
(0 4.79411e-05 0)
(0 4.2768e-06 0)
(0 4.84184e-06 0)
(0 4.57242e-06 0)
(0 5.17629e-06 0)
(0 4.90409e-06 0)
(0 5.63366e-06 0)
(0 5.25246e-06 0)
(0 5.92985e-06 0)
(0 5.60578e-06 0)
(0 6.30519e-06 0)
(0 5.99031e-06 0)
(0 6.73275e-06 0)
(0 6.41517e-06 0)
(0 7.20471e-06 0)
(0 6.87516e-06 0)
(0 6.09958e-06 0)
(0 6.55558e-06 0)
(0 5.80319e-06 0)
(0 6.25675e-06 0)
(0 5.52431e-06 0)
(0 5.99219e-06 0)
(0 5.29683e-06 0)
(0 5.75026e-06 0)
(0 5.01166e-06 0)
(0 5.53608e-06 0)
(0 4.89023e-06 0)
(0 5.35952e-06 0)
(0 4.73099e-06 0)
(0 5.20447e-06 0)
(0 4.59397e-06 0)
(0 5.0836e-06 0)
(0 4.50378e-06 0)
(0 6.46232e-06 0)
(0 4.99139e-06 0)
(0 4.42853e-06 0)
(0 4.91559e-06 0)
(0 4.35422e-06 0)
(0 5.52357e-06 0)
(0 6.57771e-06 0)
(0 4.8582e-06 0)
(0 4.32308e-06 0)
(0 4.82568e-06 0)
(0 4.3024e-06 0)
(0 4.82048e-06 0)
(0 4.31393e-06 0)
(0 4.84435e-06 0)
(0 4.36103e-06 0)
(0 4.89291e-06 0)
(0 4.4216e-06 0)
(0 5.41378e-06 0)
(0 3.99207e-06 0)
(0 4.96389e-06 0)
(0 4.50187e-06 0)
(0 5.05928e-06 0)
(0 4.60313e-06 0)
(0 4.06972e-06 0)
(0 4.18691e-06 0)
(0 3.68147e-06 0)
(0 3.81016e-06 0)
(0 3.33063e-06 0)
(0 3.45984e-06 0)
(0 2.94767e-06 0)
(0 3.14638e-06 0)
(0 2.71507e-06 0)
(0 2.87373e-06 0)
(0 2.47559e-06 0)
(0 2.61986e-06 0)
(0 2.24692e-06 0)
(0 2.39501e-06 0)
(0 2.05223e-06 0)
(0 2.20052e-06 0)
(0 1.87855e-06 0)
(0 3.00802e-06 0)
(0 4.72367e-06 0)
(0 2.32553e-06 0)
(0 4.25365e-06 0)
(0 3.84167e-06 0)
(0 7.69608e-06 0)
(0 3.5856e-05 0)
(0 3.69645e-05 0)
(0 4.96767e-05 0)
(0 3.81095e-05 0)
(0 3.47203e-05 0)
(0 3.36169e-05 0)
(0 3.24849e-05 0)
(0 3.14025e-05 0)
(0 3.02675e-05 0)
(0 2.9214e-05 0)
(0 4.85781e-05 0)
(0 5.09984e-05 0)
(0 4.91237e-05 0)
(0 5.15062e-05 0)
(0 4.9583e-05 0)
(0 2.80879e-05 0)
(0 2.9003e-05 0)
(0 4.71985e-05 0)
(0 4.76142e-05 0)
(0 4.99647e-05 0)
(0 4.79563e-05 0)
(0 1.61978e-05 0)
(0 1.64971e-05 0)
(0 1.71637e-05 0)
(0 1.74774e-05 0)
(0 1.67125e-05 0)
(0 1.76958e-05 0)
(0 1.84482e-05 0)
(0 1.86382e-05 0)
(0 1.93865e-05 0)
(0 1.95399e-05 0)
(0 2.02976e-05 0)
(0 2.04346e-05 0)
(0 2.12056e-05 0)
(0 2.1383e-05 0)
(0 2.05438e-05 0)
(0 2.15373e-05 0)
(0 2.24233e-05 0)
(0 2.26084e-05 0)
(0 2.35269e-05 0)
(0 2.37176e-05 0)
(0 2.46265e-05 0)
(0 2.48246e-05 0)
(0 2.57358e-05 0)
(0 2.59306e-05 0)
(0 2.68845e-05 0)
(0 2.70583e-05 0)
(0 2.59888e-05 0)
(0 2.71215e-05 0)
(0 2.82032e-05 0)
(0 2.83217e-05 0)
(0 2.94277e-05 0)
(0 2.96347e-05 0)
(0 3.0771e-05 0)
(0 3.10794e-05 0)
(0 3.22435e-05 0)
(0 3.26574e-05 0)
(0 3.13892e-05 0)
(0 3.30545e-05 0)
(0 3.43285e-05 0)
(0 3.47948e-05 0)
(0 3.60708e-05 0)
(0 3.65956e-05 0)
(0 3.78851e-05 0)
(0 3.84459e-05 0)
(0 3.97315e-05 0)
(0 4.03118e-05 0)
(0 4.159e-05 0)
(0 4.21906e-05 0)
(0 4.34911e-05 0)
(0 4.41159e-05 0)
(0 4.54557e-05 0)
(0 4.60964e-05 0)
(0 4.74756e-05 0)
(0 4.81157e-05 0)
(0 4.95227e-05 0)
(0 5.01647e-05 0)
(0 5.15867e-05 0)
(0 5.2243e-05 0)
(0 5.37025e-05 0)
(0 5.43826e-05 0)
(0 5.59121e-05 0)
(0 5.66108e-05 0)
(0 5.82015e-05 0)
(0 5.8915e-05 0)
(0 6.05284e-05 0)
(0 6.12436e-05 0)
(0 6.28626e-05 0)
(0 6.35795e-05 0)
(0 6.51943e-05 0)
(0 6.59125e-05 0)
(0 6.75027e-05 0)
(0 6.824e-05 0)
(0 6.98166e-05 0)
(0 7.05805e-05 0)
(0 7.2149e-05 0)
(0 7.29183e-05 0)
(0 7.4458e-05 0)
(0 7.52089e-05 0)
(0 7.67792e-05 0)
(0 7.74884e-05 0)
(0 7.91046e-05 0)
(0 7.97694e-05 0)
(0 8.14463e-05 0)
(0 8.20986e-05 0)
(0 8.3855e-05 0)
(0 8.45102e-05 0)
(0 8.6362e-05 0)
(0 8.70094e-05 0)
(0 8.50415e-05 0)
(0 8.74933e-05 0)
(0 8.95255e-05 0)
(0 8.9937e-05 0)
(0 9.19719e-05 0)
(0 9.23567e-05 0)
(0 9.02078e-05 0)
(0 9.26041e-05 0)
(0 9.47627e-05 0)
(0 9.49511e-05 0)
(0 8.31471e-05 0)
(0 9.26703e-05 0)
(0 9.49177e-05 0)
(0 9.72064e-05 0)
(0 9.70823e-05 0)
(0 9.94104e-05 0)
(0 9.92093e-05 0)
(0 9.67729e-05 0)
(0 9.88363e-05 0)
(0 0.000101295 0)
(0 0.000100846 0)
(0 0.000103294 0)
(0 0.000102805 0)
(0 0.000100324 0)
(0 0.000102189 0)
(0 7.38149e-05 0)
(0 0.00010474 0)
(0 0.000104049 0)
(0 0.00010145 0)
(0 0.000103264 0)
(0 0.000105908 0)
(0 0.000105074 0)
(0 0.000107698 0)
(0 0.000106829 0)
(0 0.000104127 0)
(0 0.000105858 0)
(0 0.000108515 0)
(0 0.000107541 0)
(0 0.000104814 0)
(0 0.000106453 0)
(0 0.000109138 0)
(0 0.000107994 0)
(0 0.000110636 0)
(0 0.000109454 0)
(0 0.000106739 0)
(0 0.000108132 0)
(0 0.000110813 0)
(0 0.000109401 0)
(0 0.000111971 0)
(0 0.000110565 0)
(0 0.000107839 0)
(0 0.000109021 0)
(0 0.0001117 0)
(0 0.000110153 0)
(0 6.19888e-05 0)
(0 0.000107317 0)
(0 0.000108435 0)
(0 0.00011122 0)
(0 0.000109511 0)
(0 0.000112218 0)
(0 0.000110528 0)
(0 0.000107733 0)
(0 0.000108769 0)
(0 0.000111352 0)
(0 0.000109651 0)
(0 0.000106894 0)
(0 0.000107821 0)
(0 0.000110495 0)
(0 0.00010864 0)
(0 0.000111266 0)
(0 0.000109359 0)
(0 0.000106556 0)
(0 0.00010724 0)
(0 0.000109977 0)
(0 0.000107835 0)
(0 0.000110495 0)
(0 0.000108389 0)
(0 0.000105663 0)
(0 0.000106233 0)
(0 0.000109052 0)
(0 0.000106825 0)
(0 0.000104034 0)
(0 0.000104501 0)
(0 0.00010722 0)
(0 0.000104818 0)
(0 0.000107437 0)
(0 0.000105097 0)
(0 0.000102071 0)
(0 0.000102793 0)
(0 0.000105381 0)
(0 0.000103009 0)
(0 0.000100452 0)
(0 0.00010055 0)
(0 0.000103161 0)
(0 0.0001007 0)
(0 5.07951e-05 0)
(0 9.80505e-05 0)
(0 9.82195e-05 0)
(0 0.000103229 0)
(0 9.55041e-05 0)
(0 9.5679e-05 0)
(0 4.09045e-05 0)
(0 9.28834e-05 0)
(0 9.30854e-05 0)
(0 9.01903e-05 0)
(0 9.04221e-05 0)
(0 7.13219e-05 0)
(0 8.74153e-05 0)
(0 8.76559e-05 0)
(0 8.71121e-05 0)
(0 9.05667e-05 0)
(0 8.7798e-05 0)
(0 9.06077e-05 0)
(0 8.78589e-05 0)
(0 8.49842e-05 0)
(0 8.50426e-05 0)
(0 3.17752e-05 0)
(0 8.78757e-05 0)
(0 8.50756e-05 0)
(0 8.2178e-05 0)
(0 8.22444e-05 0)
(0 7.92958e-05 0)
(0 7.9415e-05 0)
(0 8.78271e-05 0)
(0 2.0632e-05 0)
(0 7.64211e-05 0)
(0 7.65879e-05 0)
(0 7.35396e-05 0)
(0 7.37294e-05 0)
(0 7.67166e-05 0)
(0 7.38867e-05 0)
(0 7.0846e-05 0)
(0 7.10314e-05 0)
(0 7.67946e-05 0)
(0 6.7943e-05 0)
(0 6.81663e-05 0)
(0 6.20285e-05 0)
(0 6.50437e-05 0)
(0 6.52913e-05 0)
(0 4.28158e-05 0)
(0 6.2138e-05 0)
(0 6.2393e-05 0)
(0 6.18273e-05 0)
(0 6.54516e-05 0)
(0 6.25717e-05 0)
(0 3.1787e-05 0)
(0 0.000109306 0)
(0 5.94924e-05 0)
(0 5.96943e-05 0)
(0 5.29988e-05 0)
(0 2.7073e-05 0)
(0 2.8101e-05 0)
(0 2.59798e-05 0)
(0 4.56053e-05 0)
(0 4.59206e-05 0)
(0 3.44291e-05 0)
(0 2.65502e-05 0)
(0 6.55341e-05 0)
(0 5.0273e-05 0)
(0 5.66077e-05 0)
(0 5.68284e-05 0)
(0 7.33486e-05 0)
(0 2.50062e-05 0)
(0 2.39415e-05 0)
(0 4.35686e-05 0)
(0 4.38605e-05 0)
(0 5.41402e-05 0)
(0 2.09795e-05 0)
(0 5.37382e-05 0)
(0 5.3964e-05 0)
(0 2.3001e-05 0)
(0 2.19719e-05 0)
(0 4.1501e-05 0)
(0 4.17693e-05 0)
(0 5.08621e-05 0)
(0 5.10917e-05 0)
(0 5.41061e-05 0)
(0 5.12488e-05 0)
(0 5.41602e-05 0)
(0 5.13227e-05 0)
(0 4.8423e-05 0)
(0 4.85107e-05 0)
(0 4.56194e-05 0)
(0 4.57166e-05 0)
(0 4.85005e-05 0)
(0 4.57319e-05 0)
(0 2.1048e-05 0)
(0 2.00622e-05 0)
(0 2.08617e-05 0)
(0 3.94023e-05 0)
(0 3.96519e-05 0)
(0 4.19764e-05 0)
(0 3.98408e-05 0)
(0 3.90992e-05 0)
(0 4.21215e-05 0)
(0 3.99673e-05 0)
(0 4.22031e-05 0)
(0 4.00349e-05 0)
(0 6.5745e-06 0)
(0 7.17094e-06 0)
(0 6.91856e-06 0)
(0 7.54096e-06 0)
(0 7.3017e-06 0)
(0 7.94519e-06 0)
(0 7.70663e-06 0)
(0 8.37997e-06 0)
(0 8.15069e-06 0)
(0 8.85073e-06 0)
(0 8.65297e-06 0)
(0 9.36244e-06 0)
(0 9.1451e-06 0)
(0 9.88629e-06 0)
(0 9.65325e-06 0)
(0 3.77941e-05 0)
(0 3.78542e-05 0)
(0 4.29632e-05 0)
(0 4.30105e-05 0)
(0 1.0454e-05 0)
(0 1.02352e-05 0)
(0 5.05633e-05 0)
(0 1.10607e-05 0)
(0 1.08722e-05 0)
(0 1.68461e-05 0)
(0 2.59578e-05 0)
(0 1.8976e-05 0)
(0 1.95056e-05 0)
(0 1.82233e-05 0)
(0 1.17041e-05 0)
(0 1.15528e-05 0)
(0 1.24109e-05 0)
(0 1.22811e-05 0)
(0 1.32047e-05 0)
(0 1.30687e-05 0)
(0 4.22205e-05 0)
(0 4.02671e-05 0)
(0 4.03478e-05 0)
(0 3.5606e-05 0)
(0 3.56607e-05 0)
(0 4.83944e-05 0)
(0 3.69903e-05 0)
(0 3.66486e-05 0)
(0 1.90502e-05 0)
(0 2.04591e-05 0)
(0 1.98021e-05 0)
(0 2.12295e-05 0)
(0 2.05695e-05 0)
(0 2.20556e-05 0)
(0 2.13639e-05 0)
(0 2.2937e-05 0)
(0 2.21991e-05 0)
(0 2.38102e-05 0)
(0 2.30738e-05 0)
(0 2.15031e-05 0)
(0 2.23814e-05 0)
(0 2.08638e-05 0)
(0 2.16745e-05 0)
(0 2.33008e-05 0)
(0 2.26151e-05 0)
(0 2.09874e-05 0)
(0 2.19658e-05 0)
(0 2.04044e-05 0)
(0 2.13522e-05 0)
(0 1.9842e-05 0)
(0 2.07753e-05 0)
(0 1.92611e-05 0)
(0 2.02378e-05 0)
(0 1.87223e-05 0)
(0 1.97379e-05 0)
(0 1.82663e-05 0)
(0 1.92849e-05 0)
(0 1.78608e-05 0)
(0 1.8891e-05 0)
(0 1.75446e-05 0)
(0 1.85601e-05 0)
(0 2.17866e-05 0)
(0 1.9967e-05 0)
(0 1.96394e-05 0)
(0 2.10972e-05 0)
(0 2.0752e-05 0)
(0 2.17804e-05 0)
(0 1.73119e-05 0)
(0 2.42711e-05 0)
(0 2.22478e-05 0)
(0 2.18602e-05 0)
(0 7.79246e-06 0)
(0 1.71794e-05 0)
(0 1.64647e-05 0)
(0 1.40498e-05 0)
(0 3.76378e-05 0)
(0 3.77446e-05 0)
(0 3.3408e-05 0)
(0 3.34582e-05 0)
(0 2.34132e-05 0)
(0 2.29943e-05 0)
(0 -3.65058e-07 0)
(0 -2.93628e-07 0)
(0 -3.63207e-07 0)
(0 -2.90481e-07 0)
(0 -3.57964e-07 0)
(0 -2.87182e-07 0)
(0 -3.50765e-07 0)
(0 -2.77693e-07 0)
(0 -3.39835e-07 0)
(0 -2.63275e-07 0)
(0 -3.37025e-07 0)
(0 -2.46398e-07 0)
(0 -3.14177e-07 0)
(0 -2.24269e-07 0)
(0 -2.97076e-07 0)
(0 -2.02033e-07 0)
(0 -2.75242e-07 0)
(0 -1.78365e-07 0)
(0 -2.49193e-07 0)
(0 -1.50831e-07 0)
(0 -2.23207e-07 0)
(0 -1.21372e-07 0)
(0 -2.11425e-07 0)
(0 -8.42983e-08 0)
(0 -1.60275e-07 0)
(0 -3.47956e-08 0)
(0 -1.07699e-07 0)
(0 4.85014e-08 0)
(0 -8.65904e-08 0)
(0 1.83205e-08 0)
(0 -5.40165e-08 0)
(0 -1.90573e-07 0)
(0 7.7475e-08 0)
(0 1.06528e-09 0)
(0 1.46314e-07 0)
(0 6.35084e-08 0)
(0 -8.27108e-08 0)
(0 -8.10228e-09 0)
(0 1.40353e-07 0)
(0 6.73006e-08 0)
(0 -6.63849e-08 0)
(0 8.06596e-09 0)
(0 -1.17142e-07 0)
(0 -3.77763e-08 0)
(0 -1.57011e-07 0)
(0 -7.4426e-08 0)
(0 -1.85703e-07 0)
(0 6.00744e-08 0)
(0 -1.02057e-07 0)
(0 -2.0934e-07 0)
(0 -1.23383e-07 0)
(0 -2.25012e-07 0)
(0 3.75771e-06 0)
(0 9.58981e-06 0)
(0 0.00012677 0)
(0 3.45315e-05 0)
(0 3.41566e-05 0)
(0 1.39131e-05 0)
(0 1.49372e-05 0)
(0 -3.03761e-07 0)
(0 1.54689e-05 0)
(0 1.47825e-05 0)
(0 4.76354e-06 0)
(0 3.50591e-05 0)
(0 3.5189e-05 0)
(0 3.48466e-05 0)
(0 3.77604e-05 0)
(0 3.52355e-05 0)
(0 1.29343e-05 0)
(0 2.45996e-05 0)
(0 2.50109e-05 0)
(0 2.41829e-05 0)
(0 3.12023e-05 0)
(0 3.1253e-05 0)
(0 3.3454e-05 0)
(0 3.12534e-05 0)
(0 3.33936e-05 0)
(0 3.1199e-05 0)
(0 3.3279e-05 0)
(0 3.10925e-05 0)
(0 3.26817e-05 0)
(0 3.27599e-05 0)
(0 1.65209e-05 0)
(0 -3.78578e-07 0)
(0 1.67979e-05 0)
(0 2.90142e-05 0)
(0 2.89171e-05 0)
(0 3.31156e-05 0)
(0 4.99497e-05 0)
(0 1.37986e-05 0)
(0 1.28165e-05 0)
(0 -2.57057e-07 0)
(0 1.38402e-05 0)
(0 6.66848e-06 0)
(0 1.84473e-05 0)
(0 2.21353e-07 0)
(0 9.37422e-05 0)
(0 1.56534e-05 0)
(0 2.19761e-05 0)
(0 8.14326e-05 0)
(0 1.44121e-05 0)
(0 0.000107105 0)
(0 9.47117e-05 0)
(0 3.5217e-05 0)
(0 3.27651e-05 0)
(0 3.03375e-05 0)
(0 3.03715e-05 0)
(0 2.58155e-05 0)
(0 3.2028e-05 0)
(0 3.16263e-05 0)
(0 3.8692e-05 0)
(0 1.31524e-05 0)
(0 4.66458e-05 0)
(0 4.62488e-05 0)
(0 4.82527e-05 0)
(0 4.78649e-05 0)
(0 4.98921e-05 0)
(0 4.9385e-05 0)
(0 5.15177e-05 0)
(0 5.11348e-05 0)
(0 5.31311e-05 0)
(0 5.26298e-05 0)
(0 5.06831e-05 0)
(0 5.46726e-05 0)
(0 5.52325e-05 0)
(0 5.67738e-05 0)
(0 5.73903e-05 0)
(0 5.89225e-05 0)
(0 5.9589e-05 0)
(0 6.10921e-05 0)
(0 6.185e-05 0)
(0 6.32815e-05 0)
(0 6.41255e-05 0)
(0 6.54729e-05 0)
(0 6.63188e-05 0)
(0 6.7703e-05 0)
(0 6.86073e-05 0)
(0 6.99709e-05 0)
(0 7.09093e-05 0)
(0 7.22726e-05 0)
(0 7.32263e-05 0)
(0 7.46035e-05 0)
(0 7.55622e-05 0)
(0 7.41747e-05 0)
(0 7.65099e-05 0)
(0 7.79331e-05 0)
(0 7.89232e-05 0)
(0 8.03666e-05 0)
(0 8.13977e-05 0)
(0 8.28377e-05 0)
(0 8.38935e-05 0)
(0 8.5328e-05 0)
(0 8.64105e-05 0)
(0 8.78494e-05 0)
(0 7.74846e-05 0)
(0 8.89385e-05 0)
(0 9.03901e-05 0)
(0 9.14762e-05 0)
(0 9.2899e-05 0)
(0 9.39966e-05 0)
(0 9.53541e-05 0)
(0 9.64397e-05 0)
(0 9.77493e-05 0)
(0 8.74576e-05 0)
(0 9.88296e-05 0)
(0 0.000100101 0)
(0 0.000101199 0)
(0 0.00010243 0)
(0 9.75147e-05 0)
(0 0.000103542 0)
(0 0.000104733 0)
(0 0.000105839 0)
(0 0.000107 0)
(0 0.000108104 0)
(0 0.000109255 0)
(0 0.000108121 0)
(0 0.000110352 0)
(0 0.000109183 0)
(0 0.000111378 0)
(0 0.000112551 0)
(0 0.000113531 0)
(0 0.00011235 0)
(0 0.000114425 0)
(0 0.000115598 0)
(0 0.000116413 0)
(0 0.000117564 0)
(0 0.000118327 0)
(0 9.90091e-05 0)
(0 0.000119434 0)
(0 0.000120147 0)
(0 0.000119022 0)
(0 0.000120783 0)
(0 0.00012188 0)
(0 0.000122433 0)
(0 0.000121314 0)
(0 0.000122896 0)
(0 0.000123989 0)
(0 0.000124416 0)
(0 0.000125458 0)
(0 0.000125875 0)
(0 0.000124778 0)
(0 0.000126211 0)
(0 0.000127285 0)
(0 0.000127553 0)
(0 0.000126401 0)
(0 0.000127671 0)
(0 0.000128829 0)
(0 0.000128888 0)
(0 0.000130034 0)
(0 0.000130063 0)
(0 0.000128835 0)
(0 0.000129969 0)
(0 0.00013121 0)
(0 0.00013106 0)
(0 0.0001323 0)
(0 0.000132108 0)
(0 0.000130815 0)
(0 0.000131797 0)
(0 0.000133092 0)
(0 0.000132699 0)
(0 0.000133958 0)
(0 0.000133518 0)
(0 0.000132218 0)
(0 0.000132971 0)
(0 0.000134256 0)
(0 0.000133634 0)
(0 5.61789e-05 0)
(0 0.000134869 0)
(0 0.000134203 0)
(0 0.000132901 0)
(0 0.000133429 0)
(0 0.00013468 0)
(0 0.000133857 0)
(0 0.00013254 0)
(0 0.00013292 0)
(0 0.000134199 0)
(0 0.000133222 0)
(0 0.000134432 0)
(0 0.000133436 0)
(0 6.49471e-05 0)
(0 0.000132186 0)
(0 0.000132371 0)
(0 0.000133586 0)
(0 0.000132469 0)
(0 0.000133637 0)
(0 0.000132498 0)
(0 0.000131299 0)
(0 0.000131328 0)
(0 0.000132451 0)
(0 0.000131213 0)
(0 0.000106899 0)
(0 0.00013228 0)
(0 0.000130965 0)
(0 0.000129723 0)
(0 0.000129547 0)
(0 0.000130678 0)
(0 0.00012923 0)
(0 8.93328e-05 0)
(0 0.000128041 0)
(0 0.000127684 0)
(0 0.00012884 0)
(0 0.000127285 0)
(0 0.000128384 0)
(0 0.000126835 0)
(0 0.000125677 0)
(0 0.000125218 0)
(0 0.00012634 0)
(0 0.000124708 0)
(0 6.45968e-05 0)
(0 0.000125768 0)
(0 0.00012413 0)
(0 0.000123007 0)
(0 0.000122425 0)
(0 0.000123484 0)
(0 0.00012177 0)
(0 0.000120668 0)
(0 0.000120003 0)
(0 0.000118842 0)
(0 0.000118172 0)
(0 0.00011927 0)
(0 0.000117455 0)
(0 0.000116283 0)
(0 0.000115591 0)
(0 0.000116702 0)
(0 0.000114837 0)
(0 0.000113655 0)
(0 0.000112884 0)
(0 0.00011163 0)
(0 0.000110846 0)
(0 0.000112043 0)
(0 0.00010998 0)
(0 0.000108718 0)
(0 0.000107821 0)
(0 0.000106526 0)
(0 0.000105627 0)
(0 0.000104288 0)
(0 0.000103463 0)
(0 0.000102065 0)
(0 0.000101224 0)
(0 9.98227e-05 0)
(0 9.88969e-05 0)
(0 0.000118652 0)
(0 8.1802e-05 0)
(0 7.36213e-05 0)
(0 0.000113216 0)
(0 8.04093e-06 0)
(0 8.56141e-06 0)
(0 0.000127739 0)
(0 2.74882e-05 0)
(0 4.79318e-05 0)
(0 2.45917e-05 0)
(0 2.03254e-05 0)
(0 1.32276e-05 0)
(0 0.000111112 0)
(0 1.62462e-05 0)
(0 1.13007e-05 0)
(0 9.74839e-05 0)
(0 9.65591e-05 0)
(0 2.79709e-05 0)
(0 2.8037e-05 0)
(0 0.000126441 0)
(0 -4.11782e-07 0)
(0 2.89943e-05 0)
(0 5.8643e-06 0)
(0 0.000104921 0)
(0 1.37081e-05 0)
(0 1.27227e-05 0)
(0 2.38031e-07 0)
(0 2.54091e-05 0)
(0 2.68416e-05 0)
(0 2.67556e-05 0)
(0 9.51292e-05 0)
(0 9.41972e-05 0)
(0 9.2728e-05 0)
(0 9.17914e-05 0)
(0 1.22661e-05 0)
(0 9.02207e-05 0)
(0 8.93521e-05 0)
(0 7.9557e-06 0)
(0 1.15953e-05 0)
(0 2.70479e-05 0)
(0 8.93197e-06 0)
(0 9.47677e-06 0)
(0 8.42684e-05 0)
(0 8.38754e-05 0)
(0 8.09789e-05 0)
(0 8.04739e-05 0)
(0 7.75474e-05 0)
(0 7.69794e-05 0)
(0 7.39586e-05 0)
(0 7.33199e-05 0)
(0 7.02128e-05 0)
(0 6.94761e-05 0)
(0 6.63049e-05 0)
(0 6.54808e-05 0)
(0 6.86896e-05 0)
(0 6.4613e-05 0)
(0 6.78459e-05 0)
(0 6.36667e-05 0)
(0 6.6881e-05 0)
(0 6.26268e-05 0)
(0 6.5818e-05 0)
(0 6.14991e-05 0)
(0 6.46908e-05 0)
(0 6.22679e-05 0)
(0 6.02965e-05 0)
(0 6.34798e-05 0)
(0 5.90382e-05 0)
(0 6.22351e-05 0)
(0 5.77287e-05 0)
(0 6.09641e-05 0)
(0 5.83149e-05 0)
(0 5.63428e-05 0)
(0 5.95609e-05 0)
(0 6.40865e-05 0)
(0 6.2684e-05 0)
(0 5.80379e-05 0)
(0 6.11473e-05 0)
(0 5.6451e-05 0)
(0 5.95581e-05 0)
(0 6.41807e-05 0)
(0 6.26518e-05 0)
(0 5.79816e-05 0)
(0 6.11285e-05 0)
(0 5.64192e-05 0)
(0 5.95751e-05 0)
(0 6.41897e-05 0)
(0 6.26582e-05 0)
(0 5.7969e-05 0)
(0 6.10728e-05 0)
(0 6.56182e-05 0)
(0 6.40954e-05 0)
(0 5.94502e-05 0)
(0 6.2463e-05 0)
(0 5.77627e-05 0)
(0 6.07577e-05 0)
(0 6.52487e-05 0)
(0 6.36761e-05 0)
(0 5.90824e-05 0)
(0 6.20697e-05 0)
(0 6.65388e-05 0)
(0 6.48644e-05 0)
(0 6.03733e-05 0)
(0 6.31017e-05 0)
(0 5.85848e-05 0)
(0 6.1271e-05 0)
(0 6.57239e-05 0)
(0 6.38628e-05 0)
(0 5.93564e-05 0)
(0 6.19709e-05 0)
(0 5.74437e-05 0)
(0 6.0034e-05 0)
(0 6.45036e-05 0)
(0 6.24995e-05 0)
(0 5.80397e-05 0)
(0 6.04407e-05 0)
(0 5.59477e-05 0)
(0 5.82597e-05 0)
(0 6.26047e-05 0)
(0 6.04501e-05 0)
(0 5.59805e-05 0)
(0 5.81967e-05 0)
(0 6.24746e-05 0)
(0 6.02714e-05 0)
(0 5.58842e-05 0)
(0 5.79548e-05 0)
(0 5.35384e-05 0)
(0 5.55462e-05 0)
(0 5.98468e-05 0)
(0 5.74289e-05 0)
(0 5.31432e-05 0)
(0 5.50219e-05 0)
(0 5.07738e-05 0)
(0 5.26526e-05 0)
(0 5.67768e-05 0)
(0 5.44246e-05 0)
(0 5.03414e-05 0)
(0 5.21211e-05 0)
(0 5.60514e-05 0)
(0 5.37586e-05 0)
(0 4.98852e-05 0)
(0 5.15257e-05 0)
(0 4.77351e-05 0)
(0 4.93692e-05 0)
(0 4.56681e-05 0)
(0 4.73017e-05 0)
(0 5.75032e-05 0)
(0 4.36639e-05 0)
(0 4.52662e-05 0)
(0 4.8828e-05 0)
(0 4.67276e-05 0)
(0 4.32127e-05 0)
(0 4.45532e-05 0)
(0 4.1069e-05 0)
(0 4.22678e-05 0)
(0 3.87919e-05 0)
(0 3.98697e-05 0)
(0 5.01629e-05 0)
(0 3.64319e-05 0)
(0 3.74388e-05 0)
(0 4.08375e-05 0)
(0 3.84121e-05 0)
(0 3.50403e-05 0)
(0 3.60426e-05 0)
(0 3.27407e-05 0)
(0 3.37826e-05 0)
(0 3.05555e-05 0)
(0 3.15758e-05 0)
(0 4.17125e-05 0)
(0 2.84193e-05 0)
(0 2.93826e-05 0)
(0 3.24772e-05 0)
(0 3.03221e-05 0)
(0 2.72484e-05 0)
(0 2.82572e-05 0)
(0 2.52465e-05 0)
(0 2.62834e-05 0)
(0 2.34142e-05 0)
(0 2.43803e-05 0)
(0 4.19288e-05 0)
(0 5.30736e-05 0)
(0 2.16572e-05 0)
(0 2.2516e-05 0)
(0 3.53478e-05 0)
(0 2.52322e-05 0)
(0 2.33155e-05 0)
(0 2.06687e-05 0)
(0 2.13896e-05 0)
(0 1.88907e-05 0)
(0 1.94392e-05 0)
(0 3.33223e-05 0)
(0 6.7651e-05 0)
(0 1.70348e-05 0)
(0 1.74491e-05 0)
(0 1.51707e-05 0)
(0 1.55627e-05 0)
(0 1.34797e-05 0)
(0 1.38875e-05 0)
(0 6.31267e-05 0)
(0 5.90778e-05 0)
(0 5.99399e-05 0)
(0 5.58778e-05 0)
(0 5.67613e-05 0)
(0 5.26988e-05 0)
(0 5.36025e-05 0)
(0 4.95229e-05 0)
(0 4.86213e-05 0)
(0 5.04259e-05 0)
(0 4.63187e-05 0)
(0 4.72472e-05 0)
(0 1.59959e-05 0)
(0 1.43548e-05 0)
(0 1.23586e-05 0)
(0 1.28811e-05 0)
(0 2.94778e-05 0)
(0 2.90479e-05 0)
(0 -4.31257e-07 0)
(0 1.09134e-05 0)
(0 1.15425e-05 0)
(0 3.51146e-05 0)
(0 4.31182e-05 0)
(0 4.40777e-05 0)
(0 2.73945e-05 0)
(0 2.38126e-05 0)
(0 2.50465e-05 0)
(0 2.56625e-05 0)
(0 2.57649e-05 0)
(0 2.54984e-05 0)
(0 0.000127345 0)
(0 9.57087e-06 0)
(0 1.02907e-05 0)
(0 1.22887e-05 0)
(0 1.11147e-05 0)
(0 9.09303e-06 0)
(0 9.99105e-06 0)
(0 2.80424e-05 0)
(0 2.58059e-05 0)
(0 3.11784e-05 0)
(0 2.85749e-05 0)
(0 3.06844e-05 0)
(0 2.80541e-05 0)
(0 3.01292e-05 0)
(0 2.74784e-05 0)
(0 8.7709e-05 0)
(0 8.68602e-05 0)
(0 1.07702e-05 0)
(0 7.96599e-06 0)
(0 8.94022e-06 0)
(0 2.59732e-05 0)
(0 2.46863e-05 0)
(0 2.46134e-05 0)
(0 2.66123e-05 0)
(0 2.4479e-05 0)
(0 2.64082e-05 0)
(0 2.42854e-05 0)
(0 2.35622e-05 0)
(0 2.36328e-05 0)
(0 1.002e-05 0)
(0 1.36452e-05 0)
(0 1.2644e-05 0)
(0 1.46678e-05 0)
(0 0.000126016 0)
(0 0.00010025 0)
(0 1.0142e-05 0)
(0 1.08885e-05 0)
(0 2.23648e-05 0)
(0 2.21887e-05 0)
(0 8.51612e-05 0)
(0 8.43052e-05 0)
(0 2.61412e-05 0)
(0 9.32578e-05 0)
(0 6.97418e-06 0)
(0 8.0221e-06 0)
(0 9.94509e-06 0)
(0 9.0808e-06 0)
(0 7.28197e-06 0)
(0 8.3667e-06 0)
(0 6.68817e-06 0)
(0 7.69858e-06 0)
(0 2.06909e-05 0)
(0 4.43872e-05 0)
(0 4.43586e-05 0)
(0 4.65361e-05 0)
(0 4.64686e-05 0)
(0 4.86695e-05 0)
(0 4.85542e-05 0)
(0 5.07741e-05 0)
(0 5.06065e-05 0)
(0 5.28428e-05 0)
(0 1.17608e-05 0)
(0 1.16657e-05 0)
(0 3.98985e-05 0)
(0 4.0904e-05 0)
(0 3.89541e-05 0)
(0 0.000109166 0)
(0 0.000107939 0)
(0 0.000110192 0)
(0 0.000108951 0)
(0 0.000111175 0)
(0 1.64525e-05 0)
(0 2.14286e-05 0)
(0 2.15299e-05 0)
(0 8.5965e-05 0)
(0 8.33874e-05 0)
(0 8.16845e-05 0)
(0 8.07587e-05 0)
(0 7.90206e-05 0)
(0 7.81085e-05 0)
(0 7.63043e-05 0)
(0 7.54388e-05 0)
(0 7.36116e-05 0)
(0 7.27701e-05 0)
(0 1.90858e-05 0)
(0 9.87855e-06 0)
(0 1.04489e-05 0)
(0 1.30562e-05 0)
(0 2.80133e-05 0)
(0 9.34942e-06 0)
(0 9.85676e-06 0)
(0 6.13652e-06 0)
(0 6.95444e-06 0)
(0 2.68767e-05 0)
(0 1.00321e-05 0)
(0 0.00012687 0)
(0 8.42394e-06 0)
(0 7.55734e-06 0)
(0 6.13881e-06 0)
(0 6.65775e-06 0)
(0 5.26264e-06 0)
(0 5.57309e-05 0)
(0 4.17446e-05 0)
(0 8.23786e-05 0)
(0 7.09727e-05 0)
(0 7.00874e-05 0)
(0 1.10462e-05 0)
(0 1.05876e-05 0)
(0 1.076e-05 0)
(0 3.72846e-05 0)
(0 7.08219e-05 0)
(0 4.83713e-05 0)
(0 5.03733e-05 0)
(0 4.81261e-05 0)
(0 6.6592e-05 0)
(0 4.76826e-05 0)
(0 4.7316e-05 0)
(0 4.44343e-05 0)
(0 4.39901e-05 0)
(0 4.11005e-05 0)
(0 4.05663e-05 0)
(0 3.76752e-05 0)
(0 3.705e-05 0)
(0 3.41712e-05 0)
(0 3.34863e-05 0)
(0 1.455e-05 0)
(0 2.88912e-05 0)
(0 2.66783e-05 0)
(0 2.65211e-05 0)
(0 2.43038e-05 0)
(0 2.40944e-05 0)
(0 1.4633e-05 0)
(0 1.5696e-05 0)
(0 9.82949e-05 0)
(0 8.76079e-06 0)
(0 3.67128e-05 0)
(0 2.54897e-05 0)
(0 2.63044e-05 0)
(0 2.72412e-05 0)
(0 2.80843e-05 0)
(0 2.90585e-05 0)
(0 2.99035e-05 0)
(0 3.09275e-05 0)
(0 3.17762e-05 0)
(0 3.06021e-05 0)
(0 3.28487e-05 0)
(0 3.19767e-05 0)
(0 3.373e-05 0)
(0 2.0278e-05 0)
(0 2.01241e-05 0)
(0 8.00562e-06 0)
(0 8.01031e-06 0)
(0 2.53736e-05 0)
(0 1.93672e-05 0)
(0 1.95042e-05 0)
(0 2.15512e-05 0)
(0 1.95603e-05 0)
(0 1.91723e-05 0)
(0 9.11808e-05 0)
(0 0.000125502 0)
(0 0.000109905 0)
(0 0.000107646 0)
(0 0.000112119 0)
(0 3.39193e-05 0)
(0 3.30316e-05 0)
(0 5.00699e-05 0)
(0 4.78145e-05 0)
(0 1.08213e-05 0)
(0 1.07227e-05 0)
(0 1.15873e-05 0)
(0 1.065e-05 0)
(0 3.05979e-05 0)
(0 3.13787e-05 0)
(0 2.98768e-05 0)
(0 1.08796e-05 0)
(0 1.03017e-05 0)
(0 1.75587e-05 0)
(0 1.76209e-05 0)
(0 6.82183e-05 0)
(0 6.73713e-05 0)
(0 0.000126331 0)
(0 0.000127671 0)
(0 8.97104e-06 0)
(0 8.16195e-05 0)