/*--------------------------------*- C++ -*----------------------------------*\
| =========                 |                                                 |
| \\      /  F ield         | OpenFOAM: The Open Source CFD Toolbox           |
|  \\    /   O peration     | Version:  v2012                                 |
|   \\  /    A nd           | Website:  www.openfoam.com                      |
|    \\/     M anipulation  |                                                 |
\*---------------------------------------------------------------------------*/
FoamFile
{
    version     2.0;
    format      ascii;
    class       surfaceVectorField;
    location    "250";
    object      Uf;
}
// * * * * * * * * * * * * * * * * * * * * * * * * * * * * * * * * * * * * * //

dimensions      [0 1 -1 0 0 0 0];


internalField   nonuniform List<vector> 
27882
(
(1.02068 -0.00597499 1.30311e-23)
(1.0218 -0.0052418 -1.3002e-22)
(1.02029 -0.00446697 3.42179e-22)
(1.05179 -0.0444603 -5.76066e-22)
(1.05892 -0.0425162 -6.07966e-22)
(1.0559 -0.0343526 -3.45737e-22)
(1.00286 2.88121e-05 -3.5079e-22)
(1.0034 1.09765e-05 8.7431e-22)
(1.00391 -1.04682e-05 5.72231e-22)
(1.02058 -0.00783621 -9.0239e-22)
(1.01924 -0.0065917 -7.50003e-22)
(1.003 -0.000524599 7.89334e-22)
(1.0033 0.00115161 8.00504e-22)
(1.00162 0.000165446 -6.1883e-24)
(1.007 0.000142675 3.37241e-23)
(1.00768 0.000254383 1.80749e-22)
(1.00723 0.000187148 -8.78338e-23)
(1.01575 -0.00511803 1.97887e-23)
(1.01586 -0.00530546 -2.91153e-22)
(1.01601 -0.00522928 1.09813e-22)
(1.02333 -0.0183728 0)
(1.0237 -0.019033 2.7747e-22)
(1.02292 -0.0190582 -1.69993e-22)
(1.00272 -0.00203487 -2.58863e-21)
(1.00407 -0.00105408 0)
(1.00274 -0.00329524 -2.2501e-21)
(1.00288 -0.00456596 -3.0526e-22)
(1.00394 -0.00355439 1.94353e-21)
(1.03074 -0.0504082 1.12221e-21)
(1.03732 -0.0436308 -8.99042e-23)
(1.03084 -0.0408021 -8.76877e-23)
(0.873126 -0.220476 0)
(0.882945 -0.2439 -4.17099e-21)
(0.889604 -0.224296 0)
(0.937643 -0.0127984 -1.9558e-21)
(0.943964 -0.00496369 -7.57196e-23)
(0.933422 -0.00256157 3.41171e-21)
(1.03507 -0.0168802 -1.05173e-21)
(1.03606 -0.0170639 -6.58206e-22)
(1.03549 -0.0160973 4.57763e-22)
(1.01521 -0.00478363 6.45663e-23)
(1.01549 -0.00497301 -1.74365e-22)
(1.01527 -0.00499553 2.27478e-23)
(1.01265 -0.00215156 -2.82006e-23)
(1.01251 -0.00204791 -2.49465e-22)
(1.01253 -0.00218445 -1.12759e-23)
(0.859452 -0.192023 0)
(0.860439 -0.210323 0)
(1.01152 0.00140655 1.2073e-22)
(1.01136 0.00135427 1.71367e-23)
(1.01495 -0.00463084 -1.75508e-22)
(1.01515 -0.00460795 6.34266e-23)
(1.01751 -0.0118303 0)
(1.01753 -0.0115763 0)
(1.01729 -0.0119504 0)
(1.10221 -0.0225049 1.60772e-21)
(1.09517 -0.0529525 -7.87173e-21)
(1.09397 -0.0439769 7.32394e-21)
(1.12627 -0.0241749 1.19707e-20)
(1.14753 -0.023897 5.31891e-21)
(1.15732 -0.0262831 -7.86415e-22)
(1.00598 9.88747e-05 -1.01165e-22)
(1.00678 0.000151204 2.7451e-23)
(1.00624 0.000154272 3.76516e-22)
(1.0066 0.000197618 4.62065e-22)
(1.00699 0.000250903 3.26004e-22)
(1.09885 -0.0220855 5.27794e-21)
(1.0833 -0.0202936 -3.3024e-21)
(1.21021 -0.168013 -1.54739e-20)
(1.21385 -0.159729 0)
(1.20221 -0.15321 0)
(0.82328 0.00533443 -4.75998e-21)
(0.856115 0.0434572 1.74527e-20)
(0.830574 0.0872281 -8.9048e-21)
(0.956417 -0.119808 -8.23702e-22)
(0.963667 -0.119833 -6.23921e-22)
(0.957784 -0.127444 -5.00798e-22)
(1.08062 -0.0991312 2.63129e-21)
(1.08119 -0.1037 2.58445e-21)
(1.07717 -0.101 -2.21109e-21)
(1.06946 -0.0540958 -1.08728e-21)
(1.07282 -0.0430195 0)
(1.07259 -0.037387 0)
(0.832541 0.343791 9.49026e-21)
(0.840051 0.330352 -9.76046e-21)
(0.850345 0.345462 -5.13025e-22)
(0.801506 -0.028865 2.06301e-21)
(0.824208 -0.0770069 9.99324e-21)
(1.02297 -0.0178232 1.55447e-22)
(1.02363 -0.017838 0)
(0.910863 -0.00614361 -6.13902e-21)
(0.874774 0.000511502 3.46042e-21)
(0.838245 0.00849808 1.16518e-21)
(1.00371 0.00282293 0)
(1.00399 0.00435487 -9.8306e-22)
(1.00219 0.00350493 1.50578e-21)
(1.06161 -0.0632375 -1.19295e-21)
(1.05998 -0.0742044 1.17308e-21)
(0.942241 -0.0212153 9.52365e-22)
(0.931381 -0.0196287 -8.51296e-22)
(1.00481 0.00193653 0)
(0.891072 -0.338523 5.87265e-21)
(0.908038 -0.338771 -3.52793e-21)
(0.89685 -0.355512 -1.42457e-20)
(1.01476 0.00303008 3.21424e-23)
(1.01454 0.00311667 3.09867e-23)
(1.01442 0.0029061 -4.76471e-23)
(0.919323 -0.209383 3.27443e-22)
(0.932281 -0.205597 5.40714e-22)
(0.921841 -0.218655 3.35615e-21)
(1.00212 -0.00783666 7.7367e-22)
(1.00063 -0.00826358 -1.25402e-21)
(1.00121 -0.0066045 -2.21889e-22)
(0.917296 -0.0926761 2.14456e-22)
(0.922846 -0.109499 -1.89018e-22)
(0.933729 -0.0969418 0)
(1.01019 0.000247023 5.50855e-22)
(1.01023 -1.86476e-05 -1.53056e-22)
(1.01006 2.41541e-05 5.05641e-22)
(1.01027 -0.000710813 -4.94742e-22)
(1.01022 -0.000697792 -1.49308e-22)
(1.0106 -0.000783764 -5.2202e-22)
(0.812585 0.314619 -2.9603e-22)
(0.817698 0.298601 5.85972e-22)
(0.824765 0.309762 1.93671e-22)
(1.00286 -0.00855611 1.19493e-21)
(1.00339 -0.00728366 2.6305e-21)
(1.07075 -0.106744 8.30948e-22)
(1.0667 -0.104617 2.46218e-21)
(1.06731 -0.110021 1.6196e-21)
(-0.0143363 0.204776 3.75665e-21)
(-0.0175654 0.207997 -1.87858e-20)
(-0.0100727 0.219543 8.18191e-21)
(1.01561 -0.00774318 2.49625e-22)
(1.01688 -0.00790594 -2.43361e-22)
(1.01593 -0.00645002 1.39941e-21)
(1.02305 -0.0555771 4.19063e-22)
(1.03041 -0.0611522 1.71878e-21)
(0.649079 -0.0441686 1.97535e-21)
(0.656504 -0.0360395 -2.24241e-20)
(0.714961 -0.0746675 -2.03231e-20)
(1.01463 -0.0090937 -2.65328e-22)
(1.01437 -0.00740439 -3.33507e-22)
(1.01549 -0.014322 -1.74567e-21)
(1.01489 -0.0140133 -7.20528e-22)
(1.01503 -0.0147966 -7.78741e-22)
(1.13839 -0.0627479 0)
(1.13864 -0.0595698 -4.12948e-21)
(1.1416 -0.0615224 0)
(0.950297 0.00166399 1.98659e-21)
(0.952938 -0.00667489 2.81894e-21)
(1.01126 0.00114594 1.70546e-22)
(1.01115 0.00113753 4.27957e-22)
(1.01132 0.00127443 3.94681e-22)
(1.01749 -0.012017 0)
(1.01765 -0.0117845 0)
(1.06281 -0.102325 0)
(1.05926 -0.104889 0)
(1.05916 -0.0999938 0)
(1.01145 0.00117223 -1.76862e-22)
(1.0112 0.00103939 -1.1525e-21)
(1.00943 -0.000546887 0)
(1.00998 -0.000702264 -3.96487e-22)
(1.0095 -0.000511571 0)
(1.01024 0.000562432 2.68986e-22)
(1.01033 0.00043438 -5.76024e-22)
(0.769885 0.0996531 2.66628e-20)
(0.751987 0.153307 -2.01289e-20)
(0.796478 -0.262792 3.09031e-22)
(0.810478 -0.256111 4.52091e-23)
(0.798759 -0.248678 0)
(1.00844 -0.000424194 0)
(1.00934 -0.000573449 2.48567e-22)
(0.597501 0.0397483 7.2664e-21)
(0.611618 0.0302645 -6.90452e-21)
(0.554342 0.0450175 1.26295e-21)
(1.00643 -0.000242308 4.71034e-22)
(1.00573 -0.00016537 -3.04605e-22)
(1.0058 -0.000179526 0)
(1.01013 0.00110578 -2.4825e-22)
(1.01001 0.0010582 0)
(1.01018 0.00110438 -7.3958e-23)
(0.956542 -0.111821 2.67473e-21)
(0.94996 -0.118243 8.00041e-22)
(1.01151 0.00143012 5.99009e-23)
(1.01168 0.00149422 1.3616e-23)
(0.574587 -0.00775262 3.72755e-20)
(0.633307 -0.048555 5.9869e-21)
(1.14095 -0.159948 1.25756e-21)
(1.18076 -0.170653 1.42386e-20)
(1.15694 -0.151758 7.63239e-21)
(1.0134 -0.00494606 -8.82355e-22)
(1.01361 -0.00511582 4.2056e-22)
(1.01342 -0.00510417 4.64742e-24)
(1.01271 -0.0114346 -1.41902e-21)
(1.01253 -0.012297 -1.38342e-21)
(1.01345 -0.0117509 4.53507e-22)
(0.979178 0.0426361 1.15767e-21)
(0.974121 0.0364052 -3.84633e-21)
(0.982303 0.0342573 1.28888e-21)
(0.814825 0.339327 5.72749e-21)
(0.824744 0.35621 2.99994e-21)
(0.879502 0.315285 4.29187e-21)
(0.892585 0.308989 1.6327e-21)
(0.880878 0.315274 4.69308e-21)
(0.837106 -0.152463 3.83214e-22)
(0.836225 -0.160674 -3.89372e-21)
(0.826993 -0.126532 0)
(1.0014 -0.00300154 -1.84778e-21)
(0.905491 -0.0829154 2.21736e-22)
(0.916613 -0.0744427 -6.90877e-21)
(1.10945 -0.0748425 -1.14709e-21)
(1.11012 -0.0722673 -4.96135e-21)
(1.11226 -0.0746195 8.07467e-21)
(0.874565 -0.335729 9.27174e-21)
(0.889639 -0.322451 6.6376e-21)
(0.845848 -0.168771 3.51168e-22)
(0.844298 -0.144994 -2.54881e-21)
(0.993269 0.005198 0)
(0.991937 0.00899401 -1.58915e-21)
(0.989311 0.00561541 0)
(1.01003 -0.00199036 -2.21202e-24)
(1.00996 -0.00141723 8.83461e-22)
(1.00957 -0.00175666 -3.28206e-22)
(1.12762 -0.0610328 -4.76506e-21)
(1.13027 -0.0616369 -1.6972e-20)
(1.12789 -0.0636697 -4.01798e-22)
(1.05672 -0.0205943 -3.00084e-21)
(1.05588 -0.0190568 3.32999e-22)
(1.01158 -0.0107034 -1.71458e-21)
(1.01291 -0.0103128 -1.04294e-21)
(0.791256 0.134046 2.19283e-20)
(0.790536 0.0369855 -1.32927e-20)
(1.12693 -0.0586259 1.65826e-20)
(1.12507 -0.0607513 4.16582e-21)
(0.286216 0.163871 1.07772e-21)
(0.282591 0.164064 -9.06497e-21)
(0.235969 0.202261 2.57466e-20)
(1.00915 -0.000503271 5.91929e-23)
(1.00952 -0.000487036 3.83399e-22)
(1.01041 -0.000539934 3.13919e-22)
(1.09807 -0.0630377 -5.77537e-22)
(1.099 -0.0612848 -6.38813e-21)
(1.10014 -0.0638399 -1.20317e-20)
(-0.0100934 0.199746 0)
(-0.021322 0.191919 0)
(1.01338 -0.00480943 -5.14378e-22)
(1.01321 -0.00478067 -1.05159e-22)
(1.00774 -0.000804499 9.62126e-23)
(1.00781 -0.000850456 -4.23728e-22)
(1.00776 -0.000809405 -2.16793e-23)
(1.01298 0.00215968 -6.02943e-23)
(1.01277 0.00207493 3.82647e-24)
(1.013 0.00212032 6.18346e-23)
(1.06675 -0.0763212 2.8656e-21)
(1.069 -0.0747156 -1.41906e-21)
(1.06918 -0.0782552 1.339e-21)
(0.836876 -0.132373 2.86418e-21)
(0.841894 -0.167511 -8.369e-21)
(0.849337 -0.170262 -9.42826e-21)
(1.01097 -0.00402507 6.42365e-22)
(1.01106 -0.0040529 6.69655e-22)
(1.01092 -0.00392091 -2.42714e-22)
(0.807429 0.326148 -1.51142e-21)
(0.798325 0.311743 -7.34611e-22)
(1.02142 -0.00659748 -2.57842e-21)
(1.02081 -0.00582679 -6.59403e-22)
(1.02039 -0.00708988 2.08112e-21)
(1.01007 0.00110818 -2.60375e-23)
(1.01025 0.00115543 2.69295e-23)
(1.0077 -0.000794561 9.30698e-22)
(1.00766 -0.000754269 8.59919e-22)
(0.571539 0.0521028 -3.11154e-21)
(0.639449 0.0362155 1.15016e-21)
(1.10474 -0.00274523 0)
(1.10002 -0.0010074 0)
(1.07358 -0.103863 -7.20128e-21)
(1.07472 -0.109056 3.46022e-22)
(0.280026 0.172737 -2.60174e-20)
(0.33592 0.130156 -7.87848e-21)
(0.936948 0.247095 4.09353e-21)
(0.964877 0.205567 -6.25981e-21)
(0.948998 0.245962 5.25045e-21)
(1.07993 -0.146468 2.31838e-21)
(1.08885 -0.139278 4.51896e-21)
(1.09298 -0.120664 2.70911e-21)
(1.01307 -0.00219442 0)
(1.0129 -0.00208494 -4.22324e-22)
(1.01304 -0.00204236 0)
(0.785747 -0.268213 -3.71736e-21)
(0.796286 -0.27547 6.33709e-22)
(1.00989 -0.0114892 -8.34297e-22)
(1.01143 -0.0110067 2.49384e-22)
(1.01045 -0.00979611 -1.63537e-22)
(1.00486 -2.54046e-05 7.16243e-22)
(1.00487 -2.03885e-05 2.91236e-22)
(1.00396 -1.61151e-05 -1.34927e-22)
(1.02271 -0.00609764 -1.5657e-22)
(1.0219 -0.0074002 5.45543e-22)
(0.919778 -0.196833 -6.78099e-23)
(0.910415 -0.202706 -8.42144e-22)
(0.909652 -0.191191 -7.51613e-22)
(1.06402 -0.0783769 -3.36881e-21)
(1.06378 -0.0746649 -6.19602e-21)
(1.01118 0.000668612 -7.06863e-22)
(1.01128 0.000723708 -2.50053e-22)
(1.01101 0.000671969 2.69035e-22)
(0.91369 -0.227342 1.85829e-22)
(0.90452 -0.234623 0)
(0.916573 -0.240141 0)
(1.01106 -0.00343024 -3.98377e-22)
(1.01041 -0.00331006 -3.09412e-22)
(1.01082 -0.00411811 -1.39057e-23)
(1.00534 -6.13691e-05 -5.23953e-22)
(1.0051 -6.82313e-05 -3.20665e-22)
(1.00585 -5.10309e-05 -9.80082e-23)
(0.876498 0.312207 0)
(0.869805 0.320357 7.51109e-21)
(1.01021 -0.00263438 6.66198e-22)
(1.01051 -0.00216025 9.13542e-23)
(1.00911 -5.3572e-05 2.21377e-22)
(1.00927 -1.95433e-05 3.48817e-22)
(1.00912 -3.58113e-05 -9.64425e-23)
(0.153701 0.241709 -1.84759e-20)
(0.123022 0.238898 -1.69293e-20)
(0.155837 0.249256 -5.85813e-23)
(1.01611 -0.014545 -8.34636e-22)
(1.01572 -0.0138314 5.00108e-22)
(1.0104 -0.0001996 0)
(1.01039 -4.94717e-05 -1.37496e-22)
(1.0104 -4.93263e-05 0)
(1.00912 -6.04264e-05 -5.9579e-22)
(1.00897 -7.54273e-05 0)
(1.11282 -0.13816 -6.06882e-21)
(1.1095 -0.13157 -5.56562e-21)
(1.10617 -0.138898 9.6548e-21)
(0.12371 0.173725 1.40442e-20)
(0.0896718 0.158653 -3.41677e-20)
(1.06608 -0.0997633 -1.427e-21)
(1.00622 -0.000322277 -7.64123e-22)
(1.00536 -0.000174769 2.4972e-22)
(1.00678 -0.000411378 5.28903e-22)
(1.0204 -0.0359257 5.28223e-23)
(1.01894 -0.0351248 -5.31973e-23)
(1.01892 -0.0370016 3.48459e-22)
(0.300186 0.175443 -1.21646e-21)
(0.333191 0.159344 6.27235e-21)
(0.369529 0.154497 2.1573e-21)
(1.01512 0.00319268 0)
(1.01501 0.00296913 -6.98281e-23)
(1.00539 -0.000166654 -1.56664e-23)
(1.00558 -0.000149144 8.18398e-22)
(1.00602 -0.000137523 -6.38984e-22)
(0.831756 0.281112 -1.09229e-21)
(0.837063 0.290979 -6.44184e-21)
(0.844169 0.276047 -5.10838e-21)
(1.01144 -0.00250316 -8.16515e-22)
(1.01126 -0.00291018 0)
(1.01099 -0.00231981 -5.10979e-22)
(1.00924 -0.170228 1.23039e-21)
(1.00503 -0.177669 -6.16839e-24)
(1.00081 -0.16907 8.97691e-23)
(1.10863 -0.078091 -4.95585e-22)
(1.10646 -0.0755453 4.44203e-21)
(1.00805 -0.0113583 1.01837e-21)
(1.00917 -0.0130969 -4.63016e-22)
(0.953493 -0.209703 -2.18044e-21)
(0.957968 -0.218608 3.26077e-21)
(0.974532 -0.199855 0)
(1.06842 -0.0608704 -3.77442e-21)
(1.06999 -0.0594046 -1.14406e-21)
(1.07054 -0.0623207 -6.1418e-21)
(0.910767 0.287109 -5.38092e-21)
(0.922039 0.256238 0)
(0.185939 0.243945 -2.61036e-20)
(0.149055 0.232875 7.44942e-21)
(1.08692 -0.0523197 -9.21174e-22)
(1.08783 -0.0507655 0)
(1.08884 -0.0528591 0)
(0.548832 0.0616615 -5.64905e-21)
(0.509741 0.0643213 2.52948e-21)
(1.10748 -0.126521 -7.274e-21)
(1.10154 -0.126288 4.24024e-21)
(1.1048 -0.120647 3.97808e-21)
(1.04466 -0.0455393 -2.396e-22)
(1.04227 -0.0368367 0)
(0.988863 -0.383944 4.34456e-21)
(0.980804 -0.3639 5.26386e-21)
(1.0041 -0.37053 -5.72021e-21)
(0.199497 0.198804 -1.88861e-20)
(0.238426 0.212784 0)
(0.253176 0.209819 7.17585e-21)
(-0.0280733 0.117713 -9.67573e-22)
(-0.0123869 0.127787 6.24819e-21)
(-0.0113945 0.138742 1.7898e-20)
(1.02609 -0.00442625 0)
(1.02652 -0.00445167 2.37895e-22)
(1.02635 -0.00479975 5.47941e-22)
(1.00498 0.00542987 -1.50678e-21)
(1.0067 0.00494796 -1.68032e-24)
(1.00635 0.00701286 6.74244e-22)
(0.911658 -0.210684 9.6616e-21)
(0.914981 -0.200259 -7.97339e-21)
(0.851382 -0.00591933 -4.88327e-21)
(0.800181 -0.0917635 -3.64513e-21)
(1.09697 -0.0652177 6.51509e-21)
(1.09578 -0.0624027 2.33809e-22)
(1.11759 -0.142744 -2.86073e-21)
(1.11854 -0.135804 3.58786e-21)
(0.999214 0.0143756 2.36994e-21)
(0.998284 0.019263 -5.59728e-24)
(1.00285 0.0169501 -5.08395e-22)
(1.04539 -0.055365 -3.42047e-22)
(0.469605 -0.107819 5.6195e-21)
(0.497509 -0.145812 8.49731e-21)
(0.435884 -0.0906822 -3.16129e-22)
(1.00993 4.9541e-05 0)
(1.01007 6.94248e-05 -9.72363e-22)
(1.00992 4.65987e-05 0)
(-0.031763 0.114676 -3.72518e-21)
(-0.0413795 0.113911 0)
(-0.0377816 0.0988801 -9.8729e-21)
(0.522392 0.0734832 1.52965e-21)
(0.585672 0.0584151 -2.51721e-21)
(0.813633 0.264648 4.68796e-22)
(0.822624 0.254026 3.66485e-22)
(0.826351 0.265257 1.64364e-21)
(1.01253 0.00112101 -4.0088e-22)
(1.01242 0.00094467 4.86981e-22)
(1.01281 0.0010404 0)
(1.00993 5.35065e-05 0)
(1.00979 3.34078e-05 -4.22375e-22)
(0.524505 -0.115034 -1.57799e-20)
(0.549169 -0.149679 -1.60192e-20)
(0.588095 -0.166946 9.67111e-22)
(0.16086 0.185457 2.45608e-20)
(0.151799 0.192959 4.40184e-20)
(0.892398 -0.25977 -4.00008e-21)
(0.904687 -0.264216 -1.04672e-21)
(0.89661 -0.276921 -2.6843e-21)
(-0.0581564 0.108629 0)
(-0.0646755 0.0911001 5.72558e-21)
(-0.0553833 0.108809 1.12709e-20)
(1.00245 4.94332e-05 -9.47905e-22)
(1.00179 7.33862e-05 -4.61362e-22)
(1.08196 -0.107592 -4.17668e-21)
(1.0788 -0.110731 -2.28574e-21)
(1.08354 -0.112536 -6.99305e-21)
(0.88994 -0.0644291 2.75352e-21)
(0.884648 -0.0646037 -2.81097e-21)
(0.991333 0.157943 -1.02366e-20)
(0.980112 0.15382 -2.58135e-21)
(1.01025 -0.00309538 1.19041e-21)
(1.01033 -0.00320549 7.99606e-22)
(1.01031 -0.00310988 4.07155e-22)
(1.01334 -0.00464685 4.81722e-22)
(1.01354 -0.00481805 5.69791e-22)
(1.20079 -0.134734 -1.07989e-20)
(1.20845 -0.129046 -3.65354e-21)
(1.21206 -0.140278 -3.54073e-21)
(0.942887 -0.0137669 -1.08954e-20)
(0.981505 -0.0202544 -4.32381e-21)
(1.03706 -0.00711483 1.36769e-21)
(1.03655 -0.00636279 2.87686e-22)
(1.00936 0.000957846 1.75113e-23)
(1.0094 0.000955231 -1.36914e-23)
(1.00926 0.000909813 9.75622e-23)
(1.01773 -0.0136646 -5.11497e-22)
(1.01733 -0.0132398 1.03083e-21)
(1.01714 -0.0136619 1.16068e-21)
(1.13552 -0.0642213 0)
(1.13817 -0.0663518 0)
(1.04203 -0.00991653 -4.73752e-23)
(1.043 -0.0105386 -5.78049e-22)
(0.944576 -0.416557 7.46432e-22)
(0.950905 -0.405761 -1.17007e-20)
(0.929331 -0.413727 -2.72818e-21)
(1.01773 -0.00286057 -7.97314e-23)
(1.0178 -0.00271414 -2.60036e-22)
(1.01796 -0.00291694 -1.71413e-22)
(1.07623 -0.0260397 -1.18747e-21)
(1.07233 -0.0409491 1.59835e-21)
(1.02701 -0.0217061 1.15978e-21)
(1.02748 -0.0198898 1.04308e-21)
(1.02947 -0.0217137 1.15978e-21)
(-0.00235546 0.198194 1.62185e-22)
(-0.0057105 0.185425 4.38546e-21)
(0.794804 0.198859 -1.14064e-22)
(0.804432 0.218024 -1.75049e-21)
(0.816452 0.213702 -1.66127e-21)
(-0.0432164 0.0968129 -1.17313e-20)
(-0.0405351 0.109761 -1.71372e-20)
(1.01764 -0.00304085 1.60147e-22)
(1.01749 -0.00282561 2.15382e-22)
(0.984144 -0.0897181 0)
(0.986751 -0.0944754 2.93764e-22)
(0.98036 -0.0925161 6.85418e-22)
(0.913 0.257297 -8.84653e-22)
(0.905228 0.271267 1.12167e-21)
(0.895989 0.261629 0)
(1.00939 0.00107007 4.56339e-23)
(1.00937 0.00104348 1.852e-22)
(1.0095 0.00111431 -3.5535e-22)
(1.0408 -0.0107776 4.04914e-22)
(1.0411 -0.0099989 -2.14711e-21)
(1.0401 -0.0100345 -6.24729e-21)
(1.00041 -0.184649 -8.23043e-22)
(0.995323 -0.191929 -2.19164e-21)
(0.991129 -0.183135 1.23634e-22)
(1.02559 -0.0044785 6.29522e-22)
(1.02575 -0.00412609 -2.72691e-22)
(0.0133372 0.1929 7.94403e-21)
(0.00603158 0.210351 1.86528e-22)
(1.00554 0.000122731 1.03138e-22)
(1.00617 0.000154052 -7.24978e-23)
(1.00548 9.87226e-05 1.08116e-22)
(1.01116 -0.0021247 -1.46361e-22)
(1.01126 -0.00171254 8.51681e-22)
(1.01077 -0.00154507 -5.15819e-22)
(1.11861 -0.149165 9.87008e-22)
(1.12427 -0.145921 3.14176e-21)
(0.934987 0.126877 0)
(0.960787 0.116091 0)
(0.954894 0.126401 0)
(1.01246 -0.00177854 0)
(1.01233 -0.00168051 -2.47427e-22)
(1.01245 -0.00164661 -2.1721e-22)
(1.01322 -0.00229079 -2.19897e-22)
(1.01308 -0.00232239 0)
(-0.0157182 0.114286 -7.77988e-21)
(-0.0231599 0.129814 7.31434e-21)
(1.01011 -0.000882343 -7.11442e-23)
(1.01015 -0.000894712 3.10667e-22)
(1.01024 -0.000816501 -3.98677e-22)
(1.00342 0.00638141 -5.5005e-23)
(0.0329948 0.123957 -1.26864e-20)
(0.0156366 0.11903 6.51921e-21)
(1.00412 6.72692e-05 -1.82983e-23)
(1.00374 4.61024e-05 -3.01222e-23)
(1.00477 0.000111732 -2.83139e-23)
(1.09666 -0.0675202 -1.67535e-21)
(1.09615 -0.0697689 -3.80408e-21)
(1.09875 -0.0682067 -6.90347e-21)
(1.01158 -0.00276754 -4.44679e-22)
(1.01083 -0.00273022 -3.54407e-22)
(1.013 -0.0042403 -9.92637e-22)
(1.01252 -0.0040445 4.62148e-22)
(1.01273 -0.00387097 4.70072e-22)
(1.01747 -0.0119595 0)
(1.01749 -0.0120569 0)
(1.01754 -0.0118817 0)
(1.0132 0.00225489 -9.04037e-23)
(1.01297 0.00221374 3.70396e-23)
(1.01297 -0.000833098 -1.01713e-23)
(1.01258 -0.000678808 2.5694e-22)
(1.01278 -0.000690507 -2.8438e-22)
(1.09452 -0.0667674 2.94465e-21)
(1.00824 0.000300675 -1.30906e-22)
(1.00807 0.000276968 2.62299e-22)
(0.976413 -0.17928 -2.73186e-21)
(0.975483 -0.174044 -2.51014e-21)
(0.991037 -0.165905 -1.72164e-22)
(0.921664 0.23865 1.27477e-21)
(0.934438 0.24184 -9.25006e-22)
(1.01226 -0.000223567 6.97794e-22)
(1.01195 -0.000120866 -1.3319e-22)
(1.01197 -0.000209265 4.95848e-22)
(1.06657 -0.0626763 -1.69607e-21)
(1.06622 -0.0595768 -4.43829e-23)
(1.12162 -0.156489 -1.23514e-20)
(1.1125 -0.153436 -6.88286e-21)
(0.90626 0.134225 2.38661e-22)
(0.919539 0.123417 6.46361e-21)
(0.929486 0.117796 6.39351e-22)
(0.937145 0.0923461 1.83603e-21)
(0.943224 0.114806 4.10992e-21)
(0.986151 0.0475618 2.9881e-21)
(0.977127 0.0516328 4.98669e-21)
(1.12318 -0.0523652 5.10808e-21)
(1.12453 -0.0531766 1.55341e-21)
(1.12453 -0.0512594 -2.56924e-21)
(0.510908 -0.131059 3.93519e-21)
(0.447343 -0.0730576 -1.66567e-23)
(1.01006 -0.000858123 -2.232e-22)
(1.01 -0.000935485 4.06794e-22)
(1.2049 -0.178554 -1.12363e-20)
(1.21003 -0.178076 -9.17224e-21)
(1.08589 -0.0542538 -2.36782e-22)
(1.08483 -0.0520771 -3.06993e-23)
(1.02046 0.107618 -9.59417e-22)
(1.00231 0.162194 2.36882e-21)
(1.00448 -0.000103616 -1.78715e-22)
(1.00532 -0.000138602 -1.61094e-22)
(1.01006 -0.00178022 0)
(1.00995 -0.00167496 2.07795e-22)
(1.00997 -0.00179313 2.6169e-22)
(1.01256 -0.000351203 2.46494e-22)
(1.01255 -0.000187099 4.20312e-22)
(0.943659 0.00439546 0)
(0.937476 6.25354e-05 -1.63822e-21)
(0.937715 0.00893917 -1.92075e-21)
(-0.0164058 0.213001 -5.68619e-21)
(-0.011065 0.216223 1.51211e-21)
(-0.00717392 0.227525 9.32233e-22)
(0.990097 -0.199799 -8.34312e-22)
(0.984583 -0.208097 -1.73033e-22)
(0.980324 -0.198458 1.75636e-21)
(1.02258 -0.0132225 -8.80615e-22)
(1.02212 -0.0133088 7.01162e-23)
(1.02226 -0.0128139 3.77729e-23)
(1.01338 -0.00239543 -3.27499e-22)
(1.0134 -0.00255352 -1.67417e-22)
(1.01357 -0.00251541 5.60806e-23)
(0.949381 0.000222115 0)
(0.9496 0.00760532 0)
(1.01253 -0.162666 1.28447e-21)
(1.01606 -0.154684 1.3244e-21)
(1.00835 -0.154009 1.18404e-21)
(1.00309 2.37473e-05 1.25067e-22)
(1.00408 5.77448e-05 -4.51697e-22)
(1.00345 4.31391e-05 -1.07465e-21)
(0.972639 -0.396056 -9.35247e-21)
(0.99392 -0.400691 4.48023e-22)
(1.07094 -0.226253 6.7883e-21)
(1.08067 -0.23279 -2.54613e-21)
(1.08067 -0.219591 1.03249e-20)
(1.01025 -0.00174037 2.58112e-22)
(1.01014 -0.0017641 -1.69249e-22)
(1.01014 -0.00163844 -3.74193e-22)
(1.00736 -0.000574012 -7.27201e-22)
(1.00743 -0.000589934 -4.82849e-22)
(1.00737 -0.000544738 -4.67524e-22)
(1.0146 0.00202285 -4.89181e-23)
(1.01448 0.00164899 6.79529e-22)
(1.01401 0.00184162 1.02953e-21)
(1.0109 -0.00401684 -1.43946e-22)
(1.01103 -0.0041402 8.4587e-22)
(-0.0609778 0.105938 2.38685e-20)
(-0.0512721 0.123999 -8.90826e-21)
(1.01047 -0.000551295 -1.1247e-21)
(1.01057 -0.000771165 -7.365e-22)
(1.0106 -0.000655414 -8.37384e-22)
(1.0495 0.0106344 -6.05192e-21)
(1.04665 0.0285032 5.24308e-22)
(1.04393 0.0102668 -6.9484e-22)
(1.0129 -0.000518364 -9.33317e-22)
(1.01253 -0.000494867 -4.5669e-22)
(1.00545 0.000101743 9.13398e-23)
(1.00632 0.00012328 -1.34794e-22)
(1.00524 7.8344e-05 -7.18731e-24)
(0.988947 -0.237531 -6.25787e-22)
(0.994847 -0.228106 -2.2455e-21)
(1.00081 -0.238211 -2.94576e-21)
(1.01229 0.00117076 -4.01356e-22)
(1.01206 0.00119319 -4.08064e-22)
(1.01193 0.00103265 0)
(1.11568 -0.162924 -2.53463e-20)
(1.08307 -0.138844 -1.28416e-20)
(1.01373 -0.00097711 0)
(1.01358 -0.00084089 0)
(1.01359 -0.000961538 0)
(0.9059 -0.285884 4.36822e-21)
(0.904536 -0.295161 -1.12571e-21)
(1.0125 -0.0103701 -1.03969e-21)
(1.01268 -0.0120974 7.61959e-22)
(1.00942 -1.85091e-05 1.93052e-22)
(1.0094 -1.89179e-06 -4.09037e-23)
(1.01033 -0.00185 4.44365e-22)
(1.01033 -0.00173687 9.80158e-22)
(0.988374 -0.0868125 0)
(0.981876 -0.0849813 1.21654e-22)
(0.633543 -0.112232 -2.56434e-22)
(0.651795 -0.113259 0)
(0.639541 -0.136111 0)
(0.614048 -0.109298 -8.96291e-23)
(0.622334 -0.0851062 -1.54023e-21)
(1.00955 -1.4774e-05 4.94723e-22)
(1.00942 -3.03128e-05 -3.78539e-22)
(1.01732 -0.170647 1.74525e-21)
(1.02692 -0.00466919 1.05586e-21)
(1.02679 -0.00425253 2.5758e-22)
(1.01131 -0.00568174 4.92082e-22)
(1.0112 -0.00555563 1.51366e-21)
(1.01126 -0.00576708 1.01929e-21)
(0.882142 -0.225326 6.13804e-22)
(0.893996 -0.230217 2.46916e-22)
(0.890508 -0.217596 7.17107e-22)
(0.789486 -0.00390536 -8.69581e-22)
(0.844812 -0.0267437 8.2062e-22)
(0.819073 -0.0243595 -1.28974e-20)
(1.01143 -0.0057964 -1.08207e-21)
(1.01136 -0.00559321 -1.58441e-22)
(1.00987 -0.000812664 9.35843e-22)
(1.00993 -0.000828523 -1.576e-22)
(1.01 -0.000767871 -4.05475e-22)
(1.01691 0.00684599 -1.67054e-22)
(1.01759 0.00756952 -2.65829e-22)
(1.0166 0.00762774 -5.6202e-22)
(1.01745 -0.0118673 0)
(1.01744 -0.0119939 3.38026e-22)
(1.03031 -0.0349166 1.09927e-22)
(1.03112 -0.0338245 8.62272e-22)
(1.03186 -0.0351528 9.82569e-22)
(1.00843 0.000316896 -2.20942e-22)
(1.00871 0.000355617 -2.86368e-22)
(1.01349 -0.00440112 -9.07001e-22)
(1.01322 -0.0046957 -5.21515e-22)
(1.03431 -0.0166729 6.80382e-22)
(1.03473 -0.0175982 -9.06768e-22)
(1.00729 -0.000556141 1.09628e-23)
(1.00735 -0.000599497 4.60862e-23)
(1.00493 -0.000177899 2.56809e-22)
(1.00641 -0.000241683 3.79186e-22)
(1.00541 -0.000188207 2.73549e-22)
(1.01403 -0.00233108 -2.64491e-23)
(1.01387 -0.00234608 0)
(1.01388 -0.00218296 0)
(0.502582 0.0826848 -2.73668e-21)
(0.536891 0.079354 -5.08233e-22)
(0.478196 0.0945801 -6.3656e-21)
(1.01565 -0.00489301 1.50413e-22)
(1.0098 -0.00078582 8.44219e-24)
(1.00975 -0.000849643 2.32366e-22)
(1.01046 0.000920166 -4.05572e-23)
(1.01039 0.000912861 -5.56239e-23)
(1.01036 0.000865012 -7.4381e-24)
(1.02316 -0.156078 3.20011e-22)
(1.01957 -0.148172 1.05774e-21)
(1.00771 -0.000812706 0)
(1.00772 -0.000819853 -1.72985e-22)
(1.00779 -0.00084769 0)
(1.00764 -0.000776127 0)
(1.0028 4.49223e-05 6.88956e-22)
(1.00206 -3.41107e-05 6.79842e-22)
(1.03571 -0.00891552 -1.89268e-21)
(1.03647 -0.00893236 -2.29027e-21)
(1.0362 -0.00957346 0)
(1.01098 0.00102377 0)
(1.01107 0.00114274 4.87654e-22)
(1.00512 7.56866e-05 -3.27507e-23)
(1.00473 7.44775e-05 8.7496e-23)
(1.00548 7.41686e-05 1.57191e-22)
(1.00388 3.26468e-05 2.96046e-22)
(1.00336 4.36919e-05 -7.7007e-23)
(1.00433 3.909e-05 1.79479e-22)
(1.01607 0.00250421 -4.07584e-22)
(1.01689 0.00281235 -5.66979e-22)
(1.01612 0.00316734 -3.90106e-22)
(0.923245 0.141291 -1.6528e-21)
(0.918855 0.117332 -9.05745e-23)
(1.00894 -0.000405522 -9.00803e-23)
(1.00714 -0.000319313 5.74544e-22)
(1.00597 0.000144704 -5.99434e-22)
(1.00542 0.000100708 -4.03464e-22)
(0.248038 0.27305 0)
(0.218246 0.265681 0)
(0.213116 0.27337 0)
(1.04572 -0.0223554 1.31336e-21)
(1.04626 -0.0212546 1.17859e-21)
(1.04493 -0.0215092 0)
(1.00533 4.00961e-05 -2.53816e-22)
(1.00567 2.13127e-05 6.21042e-22)
(1.00485 4.29225e-05 -4.95707e-22)
(1.00506 3.32058e-05 1.65174e-22)
(1.00578 6.11512e-05 3.93229e-22)
(0.856281 -0.288136 1.37334e-20)
(0.825078 -0.253394 -1.26307e-20)
(0.83894 -0.305882 4.11512e-22)
(0.984919 -0.0283993 -5.0095e-22)
(0.991245 -0.03058 9.95129e-22)
(0.990201 -0.0242232 -2.39172e-22)
(1.00934 0.000967293 3.49656e-23)
(1.00944 0.00100889 3.52431e-22)
(1.02883 -0.0130202 -1.16399e-22)
(1.02655 -0.010888 0)
(1.02552 -0.0134257 2.72133e-22)
(1.10513 0.0220946 -6.5657e-22)
(1.10636 0.0048287 0)
(1.01006 0.000734237 0)
(1.01032 0.000891485 3.25893e-22)
(0.956481 0.00722122 -1.31635e-21)
(0.948354 0.0102687 -6.65316e-22)
(1.01418 -0.00231253 -2.88608e-23)
(1.01417 -0.00247664 -2.27803e-23)
(0.604169 -0.0995959 -1.43482e-22)
(0.603067 -0.0568206 -2.8119e-21)
(0.602674 -0.0828259 9.50494e-24)
(1.0096 -0.185737 -8.71619e-24)
(1.01987 -0.121851 1.02145e-21)
(1.02474 -0.124912 2.18289e-21)
(1.01813 -0.126374 -1.4038e-21)
(1.08109 -0.0956043 1.11867e-21)
(1.08407 -0.0980751 0)
(0.831879 0.00648325 7.18859e-21)
(0.904401 -0.00470732 -8.70196e-21)
(1.01 0.00111122 2.48656e-22)
(1.01011 0.0011695 2.86309e-23)
(1.00995 0.00112137 3.14598e-23)
(0.81345 -0.180385 -1.37949e-20)
(0.803019 -0.110765 2.22769e-20)
(0.830955 -0.137288 -1.01942e-22)
(1.12428 -0.163714 -2.56846e-21)
(1.11768 -0.169738 -2.3192e-21)
(1.12784 -0.173206 6.48889e-22)
(1.0066 -0.000238448 0)
(1.00598 -0.000212672 1.1561e-22)
(1.00587 -0.000196241 0)
(1.02231 -0.116683 -8.38582e-22)
(1.0152 -0.118054 1.47073e-21)
(0.995221 0.0118472 -1.07811e-22)
(0.999418 0.0102563 -6.5799e-22)
(0.970617 -0.3431 0)
(0.959802 -0.355311 0)
(1.00969 -0.00210805 -7.18008e-22)
(1.00979 -0.0022144 6.99777e-23)
(1.00971 -0.00220424 5.65214e-22)
(1.00987 0.00107044 1.65868e-22)
(0.058046 0.141582 -8.02937e-21)
(0.884053 -0.0212777 3.51226e-22)
(0.886636 0.0126327 0)
(1.00862 -0.000935437 8.40617e-22)
(1.00872 -0.00093161 0)
(1.00872 -0.00097417 -7.14467e-22)
(0.0958743 0.236534 -2.06137e-21)
(0.0702496 0.233663 6.85937e-21)
(0.0958547 0.245462 4.36854e-22)
(0.95405 -0.00313551 0)
(0.959213 -0.000323688 0)
(0.958723 -0.00641026 -1.2149e-21)
(1.0014 -0.00847682 1.01767e-21)
(1.00311 -0.0096665 9.61217e-22)
(1.00128 -0.0107065 1.80831e-21)
(0.235513 0.207451 6.2563e-21)
(0.271099 0.188079 -2.82066e-21)
(0.300154 0.184394 4.13944e-21)
(1.00958 -0.00200382 -4.93973e-22)
(1.00966 -0.0020088 -2.36449e-22)
(1.01268 0.00131454 1.68835e-22)
(1.01386 -0.000966419 0)
(1.01381 -0.00109053 1.40665e-22)
(1.00537 6.50274e-06 2.78303e-22)
(1.00472 -2.41135e-05 5.06601e-23)
(1.01532 -0.0100737 -1.47935e-22)
(1.01515 -0.0100849 -1.17926e-21)
(1.01541 -0.0102908 -6.65391e-22)
(1.00898 -0.00211312 5.13225e-22)
(1.00907 -0.00137597 0)
(1.00956 -0.00209097 1.40511e-22)
(1.02394 -0.0197562 1.2878e-21)
(1.0244 -0.019054 -7.43103e-22)
(1.01017 -0.000921536 0)
(1.01019 -0.000940765 4.40472e-22)
(1.01029 -0.000843524 0)
(1.01552 -0.0100981 5.77537e-22)
(1.01526 -0.00988584 1.65551e-22)
(1.02335 -0.0130147 1.25002e-23)
(1.02296 -0.0132114 -5.33784e-22)
(1.02348 -0.0134112 -3.31566e-22)
(0.671166 -0.34444 3.09388e-21)
(0.668797 -0.355194 0)
(0.879255 -0.322484 1.92378e-20)
(0.880553 -0.267399 -1.1416e-20)
(1.01156 -0.00220692 -1.6851e-22)
(1.01185 -0.00264052 6.12244e-23)
(0.801094 -0.226054 -2.66993e-21)
(0.838186 -0.0910227 1.24149e-21)
(0.828035 -0.0950037 1.8674e-22)
(1.00853 -0.000936117 3.33886e-22)
(1.00852 -0.000901247 2.00209e-22)
(1.0624 -0.0446237 -9.8544e-21)
(1.06061 -0.0442085 -2.58148e-21)
(1.06188 -0.042997 -3.68834e-21)
(0.977987 -0.0249896 -8.00695e-22)
(0.978894 -0.0326236 -2.73001e-22)
(1.12287 -0.0208265 6.35168e-21)
(1.11243 -0.0195624 -7.2764e-21)
(1.14006 -0.0232591 9.95803e-22)
(0.942576 -0.183311 2.57356e-21)
(0.948429 -0.19812 -9.2904e-22)
(0.962644 -0.177584 5.65332e-23)
(0.949927 -0.171078 -4.0298e-22)
(0.957219 -0.17429 3.14156e-22)
(0.955712 -0.164803 -2.09368e-23)
(1.0179 -0.00251291 -1.2554e-22)
(1.01763 -0.00246508 -6.16825e-23)
(0.0237552 0.204543 -5.6926e-22)
(0.00679872 0.200831 -7.16407e-21)
(0.00365457 0.188268 9.29893e-21)
(0.90185 -0.280852 -1.29371e-22)
(0.898667 -0.280191 -2.74541e-21)
(0.900636 -0.283725 -1.30198e-22)
(1.02023 -0.0285808 1.21827e-21)
(1.02257 -0.0294426 1.85542e-21)
(1.02061 -0.031392 1.10877e-21)
(1.02371 -0.0128591 -1.71447e-22)
(1.02322 -0.0126601 3.80172e-22)
(1.00005 -0.00693391 -2.85345e-22)
(1.00197 -0.00635865 -2.40164e-22)
(1.01385 -0.00384523 -2.8164e-22)
(1.01366 -0.00414853 9.58463e-22)
(1.01335 -0.00376076 4.3387e-22)
(1.01032 -3.2047e-05 -6.96337e-22)