/*--------------------------------*- C++ -*----------------------------------*\
| =========                 |                                                 |
| \\      /  F ield         | OpenFOAM: The Open Source CFD Toolbox           |
|  \\    /   O peration     | Version:  v2012                                 |
|   \\  /    A nd           | Website:  www.openfoam.com                      |
|    \\/     M anipulation  |                                                 |
\*---------------------------------------------------------------------------*/
FoamFile
{
    version     2.0;
    format      ascii;
    class       surfaceVectorField;
    location    "400";
    object      ddtCorrDdt0(Uf);
}
// * * * * * * * * * * * * * * * * * * * * * * * * * * * * * * * * * * * * * //

dimensions      [0 1 -2 0 0 0 0];


internalField   nonuniform List<vector> 
27882
(
(0.00676296 -0.00288466 -5.2709e-19)
(0.00735647 -0.00198466 1.03065e-18)
(0.00618734 -0.00188076 3.12591e-19)
(0.0356982 -0.0160059 -5.96058e-19)
(0.0395967 -0.0118475 -1.37884e-18)
(0.0357061 -0.00830981 -2.31283e-19)
(-1.541e-05 -9.07561e-07 2.77354e-20)
(-2.50426e-05 -1.05953e-06 2.55744e-19)
(-3.08403e-05 2.0223e-06 2.185e-19)
(0.00713367 -0.00415291 -4.39318e-19)
(0.00586784 -0.00370317 5.55006e-19)
(-0.00662807 0.000558316 -4.04872e-19)
(-0.00685548 0.00165029 2.31033e-19)
(-0.00774594 0.000668907 3.09531e-18)
(3.61243e-05 -2.59645e-06 5.9522e-20)
(4.40515e-05 -3.15267e-06 2.43509e-21)
(3.71807e-05 -4.40701e-06 5.12392e-20)
(0.000228507 -3.56804e-05 -3.37498e-20)
(0.000229003 -3.73743e-05 -7.75838e-20)
(0.000231106 -4.14533e-05 -4.78289e-21)
(-0.000807741 -0.000599225 -1.36665e-19)
(-0.00082856 -0.00071842 -2.23757e-19)
(-0.000971757 -0.000667607 -2.04259e-19)
(-0.00641209 -0.000365805 2.41342e-19)
(-0.00574117 0.000532295 -3.35676e-19)
(-0.00605181 -0.00109527 2.97142e-19)
(-0.00562329 -0.00174232 -1.82693e-18)
(-0.00516684 -0.000900803 -7.32239e-19)
(0.0254303 -0.0242866 -2.49467e-18)
(0.0268013 -0.0200391 6.36201e-19)
(0.0220252 -0.0203424 1.1931e-18)
(-0.0138074 -0.228417 -1.73981e-19)
(-0.00340768 -0.241575 6.68426e-18)
(0.0028532 -0.220731 3.11455e-19)
(-0.0397658 -0.0297484 -3.54907e-19)
(-0.0412732 -0.023039 1.24306e-18)
(-0.0438334 -0.0247708 -1.16414e-18)
(0.000838995 -0.000361515 -1.04489e-19)
(0.000947726 -0.00033186 1.43235e-18)
(0.000861757 -0.000243629 -8.4524e-19)
(0.000225555 -2.20999e-05 -4.13101e-20)
(0.000227535 -2.86776e-05 -7.20877e-20)
(0.000230615 -1.81544e-05 1.37045e-20)
(0.000190377 3.31879e-05 1.464e-20)
(0.00019067 3.66175e-05 -1.49177e-20)
(0.00019412 4.17636e-05 -2.2219e-20)
(-0.0268389 -0.207986 -3.06012e-18)
(-0.0234884 -0.223518 3.13433e-18)
(3.30559e-05 -0.000136146 4.40995e-20)
(2.87134e-05 -0.000129495 2.52375e-20)
(0.000222851 -1.27109e-05 -9.93756e-20)
(0.0002229 -2.65389e-05 5.96752e-20)
(0.000722819 0.0031504 -2.79284e-20)
(0.000780061 0.00355545 -9.34046e-19)
(0.000324171 0.0032918 6.60269e-20)
(0.080615 -0.0204101 -1.62652e-19)
(0.0810628 -0.0374563 6.84852e-18)
(0.0749181 -0.0351564 -5.27137e-19)
(0.0353308 0.101501 6.66074e-18)
(0.0436425 0.0980298 -5.97285e-18)
(0.0566184 0.0941355 1.95551e-18)
(2.49354e-05 -1.51502e-06 1.49458e-20)
(3.51128e-05 -6.93779e-07 -2.41119e-20)
(8.4693e-06 2.87516e-06 3.5762e-20)
(1.19118e-05 5.04188e-06 9.46777e-20)
(1.16825e-05 5.81351e-06 1.74501e-21)
(0.0209465 0.108776 4.66686e-18)
(-0.00202831 0.114311 2.93417e-18)
(0.117513 0.00329279 -7.78336e-18)
(0.112432 0.00844349 5.52689e-18)
(0.12502 0.00695348 -5.21633e-18)
(-0.054144 0.0692307 2.31182e-19)
(-0.0338024 0.0702493 -4.30699e-18)
(-0.0433666 0.0438883 -5.50515e-18)
(-0.00317442 -0.0653451 4.41779e-19)
(0.000368413 -0.0619325 9.23147e-19)
(0.000584915 -0.0687194 2.32072e-18)
(0.0348923 -0.00534787 2.28139e-18)
(0.0371485 -0.00674823 4.76635e-18)
(0.0346917 -0.00765055 8.05493e-19)
(0.0511054 -0.0120169 -8.73825e-21)
(0.0531296 -0.00423808 -1.64895e-18)
(0.0493265 -0.00220723 3.98821e-19)
(0.0617653 -0.076405 1.6568e-18)
(0.0556037 -0.0457412 -3.70798e-19)
(0.0751753 -0.0730919 -1.12257e-18)
(-0.0680301 0.0621544 1.07992e-18)
(-0.0616038 0.0714173 6.05507e-18)
(-0.000795967 -0.000489257 2.00371e-19)
(-0.000662794 -0.000535622 -8.87291e-20)
(-0.0621337 0.149513 2.01594e-18)
(-0.0953162 0.16187 -3.8899e-18)
(-0.10873 0.172668 -1.26184e-17)
(-0.00699815 0.00274879 7.38452e-19)
(-0.00721379 0.00373625 -1.27094e-19)
(-0.00825966 0.00283765 7.45101e-19)
(0.0470926 -0.0195628 9.7098e-19)
(0.0514976 -0.0219207 -1.68025e-18)
(-0.036192 -0.0340938 3.80567e-19)
(-0.0377815 -0.0361835 8.16243e-19)
(-0.00601994 0.00244799 -1.81553e-19)
(0.0478589 0.049728 1.5684e-18)
(0.0665108 0.0442698 7.48363e-19)
(0.0519147 0.0467135 8.20163e-19)
(0.000415955 -2.06171e-05 -1.10609e-21)
(0.000361127 5.4351e-05 6.7264e-20)
(0.000346728 -3.98244e-05 -4.36098e-20)
(0.00891283 -0.145855 3.03409e-18)
(0.0190826 -0.127075 3.01206e-19)
(0.0130093 -0.136671 -3.11086e-18)
(-0.00526578 -0.00379631 -4.44001e-20)
(-0.00600662 -0.00448043 9.02203e-19)
(-0.00617019 -0.0033392 -1.38962e-19)
(-0.023586 -0.104275 -8.3998e-19)
(-0.0146741 -0.112435 -3.52518e-19)
(-0.0112308 -0.0989875 1.76065e-18)
(-0.00156044 -0.000411517 -2.43281e-19)
(-0.00139241 -0.000579799 1.05887e-19)
(-0.00167436 -0.000654602 -7.21872e-19)
(0.000236798 7.26961e-06 -2.47136e-19)
(0.000231137 9.46967e-06 -8.58056e-20)
(0.000236832 1.40093e-05 -1.54728e-19)
(0.012491 -0.0302487 -5.58816e-18)
(-0.0267087 0.0332019 -6.33535e-18)
(0.00198323 0.0110161 -1.35581e-18)
(-0.00450676 -0.00395064 3.51773e-19)
(-0.00453172 -0.00315778 2.8561e-19)
(0.0346662 -0.0121299 3.11291e-18)
(0.0324858 -0.0134269 2.84027e-18)
(0.0350466 -0.0147904 3.0282e-19)
(-0.107331 0.165647 9.01286e-18)
(-0.092155 0.15189 -1.3967e-18)
(-0.109124 0.179259 -2.39905e-17)
(0.00381751 -0.00555558 3.7209e-19)
(0.00468178 -0.00522567 -2.89434e-20)
(0.00375228 -0.0044826 2.20373e-19)
(0.0243344 -0.0273139 2.99283e-19)
(0.0296241 -0.0280911 1.57592e-18)
(0.000479391 0.0640846 -2.94709e-18)
(-0.0101312 0.0779108 4.42701e-18)
(0.0393475 0.0280742 -6.1779e-18)
(0.00345583 -0.00675183 -1.32408e-19)
(0.00282413 -0.00574858 -6.79439e-19)
(0.00387159 -0.00164359 -1.65143e-19)
(0.00344441 -0.00183125 3.01863e-19)
(0.0038482 -0.00216752 3.89585e-19)
(0.040971 0.0452478 2.48761e-18)
(0.0388874 0.0481092 1.58178e-18)
(0.0426854 0.0484671 1.28413e-18)
(-0.0419289 -0.0162819 5.0366e-19)
(-0.0380083 -0.0209384 6.06483e-19)
(-0.000364101 0.000456904 7.99232e-20)
(-0.000425128 0.000424931 3.09656e-19)
(-0.000481628 0.000516082 -9.21786e-20)
(0.000641311 0.00276591 -4.70862e-19)
(0.00106748 0.00293271 1.61219e-19)
(0.0302297 -0.0138619 1.66862e-18)
(0.0301507 -0.0162477 2.11453e-19)
(0.0282134 -0.0147981 1.50882e-18)
(-0.00028056 0.000505131 -4.50035e-19)
(-0.000264885 0.000401284 -5.14369e-19)
(0.000231477 4.45696e-06 2.98574e-20)
(0.000237556 2.99125e-06 1.03135e-19)
(0.000231647 3.592e-06 5.37904e-20)
(-0.00165922 -0.000199391 -1.73266e-19)
(-0.00141146 -0.000198136 -8.87767e-20)
(-0.0346197 -0.10633 2.85943e-19)
(-0.0635029 -0.0979062 2.54522e-18)
(0.129178 -0.205981 2.14814e-18)
(0.155458 -0.16316 -7.01654e-20)
(0.122527 -0.210063 1.39085e-19)
(0.000223968 1.41669e-06 -1.0801e-20)
(0.000234446 2.84951e-06 -9.37452e-20)
(-0.156891 0.165752 5.34346e-18)
(-0.158643 0.158829 -4.50656e-18)
(-0.156192 0.161297 -2.40869e-18)
(0.000153033 -1.47624e-05 7.13173e-20)
(0.000146854 -1.10664e-05 -1.27662e-20)
(0.000151862 -1.09148e-05 -9.65039e-20)
(9.93597e-05 -7.38654e-05 -1.24653e-19)
(9.33355e-05 -7.15536e-05 -4.24747e-20)
(0.000104853 -7.13839e-05 -1.48235e-19)
(-0.0068468 -0.0619305 2.59775e-18)
(-0.00700405 -0.0686097 -1.83907e-18)
(4.38057e-05 -0.000140973 6.4942e-21)
(3.70584e-05 -0.000146653 8.96663e-21)
(-0.0289783 0.0965242 -6.3262e-18)
(0.00457407 0.056296 -3.17833e-18)
(0.147416 -0.0108268 2.36795e-18)
(0.13409 -0.00724452 7.376e-18)
(0.143715 -0.00270988 -2.90303e-18)
(0.000283658 0.000128124 2.77847e-20)
(0.000286108 0.00012452 4.10869e-20)
(0.000293747 0.000135238 -2.6411e-20)
(-0.00409479 0.00566933 5.2955e-19)
(-0.00432133 0.00506045 3.96058e-19)
(-0.00351601 0.00526407 -8.12892e-20)
(-0.0351888 0.0489753 5.65049e-19)
(-0.0394979 0.0428808 -1.08648e-18)
(-0.0317292 0.0414748 2.16908e-18)
(0.0511143 -0.0812701 4.92895e-18)
(0.0610133 -0.0826405 -2.1953e-19)
(-0.0180766 0.359882 -4.76258e-18)
(-0.00967445 0.311321 2.95196e-18)
(-0.0482818 0.444537 -6.47712e-18)
(-0.0469504 -0.173904 4.85214e-18)
(-0.0426327 -0.17945 1.95586e-18)
(-0.0528967 -0.151285 6.70716e-19)
(-0.00702583 -0.00125858 1.72377e-18)
(-0.0335415 -0.103623 -1.18154e-19)
(-0.0301808 -0.0932555 1.42248e-19)
(0.0325011 0.0180359 3.95567e-18)
(0.0310615 0.0196474 3.48333e-18)
(0.0334573 0.020158 6.01134e-18)
(0.028249 0.0524167 6.46574e-18)
(0.0358754 0.0332057 -3.47922e-18)
(-0.040811 -0.188393 5.29732e-19)
(-0.0475572 -0.168092 4.18765e-19)
(-0.0198273 0.0180113 -2.01911e-19)
(-0.0211783 0.0209018 -1.07443e-18)
(-0.0230581 0.0181074 -3.82085e-19)
(-0.00146461 -0.00231301 -8.06543e-19)
(-0.00159579 -0.00188644 2.98041e-19)
(-0.00196951 -0.00233221 -4.89571e-19)
(0.0313467 0.0390816 1.02613e-18)
(0.0340836 0.0404876 -3.29671e-18)
(0.0338 0.0374404 -6.33305e-18)
(0.00292958 0.00124191 -4.50805e-18)
(0.0026924 0.00121392 4.44381e-18)
(-0.00488302 0.00633955 8.28561e-19)
(-0.00382475 0.00644511 1.07833e-18)
(-0.0241924 -0.124685 1.42801e-19)
(-0.0163254 -0.0941061 -1.53865e-18)
(0.0288992 0.0399308 6.6182e-18)
(0.0294533 0.0369327 8.58937e-18)
(-0.0561117 0.178165 2.75161e-17)
(-0.0444108 0.175054 6.26372e-18)
(-0.0541108 0.196262 -1.24146e-17)
(0.000196747 4.51911e-06 2.39171e-19)
(0.000203036 1.91734e-06 1.03836e-19)
(0.000202599 1.00921e-05 1.22876e-19)
(0.0211809 0.0142534 8.42969e-19)
(0.0200808 0.0153166 2.48983e-18)
(0.021845 0.0154847 -1.04297e-17)
(-0.12024 0.172415 5.16717e-18)
(-0.107507 0.14902 -4.71342e-18)
(0.000272256 0.000126508 4.13521e-20)
(0.000277136 0.000130716 -2.58558e-20)
(0.000167262 -1.35273e-05 -3.04653e-19)
(0.000167348 -1.11366e-05 -4.24738e-19)
(0.000166902 -6.76174e-06 -1.57295e-19)
(0.000146856 -0.000153289 1.8342e-20)
(0.000129285 -0.000153312 1.96275e-20)
(0.000142431 -0.000176042 6.55215e-20)
(0.0210055 -0.00441354 -2.33036e-18)
(0.0208035 -0.00299365 -4.18952e-18)
(0.0223986 -0.00391508 -5.35839e-18)
(-0.0355322 -0.152122 -6.45883e-18)
(-0.0345561 -0.18249 1.50942e-18)
(-0.026845 -0.181462 1.54208e-18)
(0.000250284 -0.000116643 1.04864e-19)
(0.000260151 -9.52285e-05 7.4996e-20)
(0.000253906 -0.000111962 1.0906e-19)
(0.0317277 -0.0684881 3.80391e-18)
(0.0150257 -0.0512649 -2.4626e-18)
(0.0041245 0.00942958 5.1422e-20)
(0.00341366 0.010082 -9.88081e-19)
(0.00322784 0.00880857 1.74034e-18)
(9.14815e-05 -7.30067e-05 -2.60378e-19)
(0.000104374 -7.55389e-05 3.9675e-20)
(0.000167283 -2.32205e-05 -8.10033e-20)
(0.000168219 -1.7129e-05 1.84999e-19)
(-0.154705 0.173236 -9.79491e-18)
(-0.15737 0.170845 -4.48193e-18)
(0.0803807 -8.31663e-05 -2.3619e-18)
(0.0790741 -0.000778236 -1.39969e-18)
(0.0346852 -0.00999577 -3.77108e-19)
(0.0368808 -0.0117033 1.14815e-18)
(-0.0654063 0.184082 8.11748e-18)
(-0.056969 0.167452 -6.07834e-18)
(0.111082 -0.0235183 -5.49302e-18)
(0.153816 -0.107247 4.97568e-18)
(0.13134 -0.0112906 -1.62471e-18)
(0.073037 -0.0373511 -4.51955e-19)
(0.0767402 -0.0350775 -1.29409e-18)
(0.069696 -0.034225 -7.45017e-20)
(0.000185369 9.91336e-06 2.86142e-20)
(0.000185654 1.54914e-05 7.07041e-21)
(0.000184755 6.19691e-06 1.38769e-20)
(0.0967359 -0.250063 -4.79989e-18)
(0.14402 -0.192183 3.28058e-18)
(0.00107661 -0.00743781 -1.15898e-18)
(0.00205156 -0.00663086 1.03235e-18)
(0.0010824 -0.00617186 4.35206e-19)
(4.2509e-05 -1.49728e-06 1.65842e-19)
(4.23618e-05 -6.14855e-07 2.61411e-19)
(4.17387e-05 -1.26941e-06 2.06768e-20)
(0.00523829 0.0100355 -7.24301e-19)
(0.00479132 0.00867336 -2.55498e-19)
(0.0306587 -0.113848 3.82065e-19)
(0.031074 -0.123346 -2.05333e-19)
(0.0227762 -0.120808 -1.92473e-18)
(0.0210059 -0.00602836 1.44654e-18)
(0.0196644 -0.00503979 2.83914e-18)
(0.00013144 0.000164407 2.25723e-19)
(0.000101965 0.000219541 3.22405e-21)
(7.12107e-05 0.000164682 -4.93568e-20)
(0.0478756 -0.121513 2.08447e-19)
(0.053704 -0.126318 1.35446e-18)
(0.0565691 -0.120576 -1.5948e-18)
(-0.000437576 -0.00312413 2.29576e-19)
(-0.000993041 -0.00324351 9.82019e-19)
(-0.000559968 -0.00376846 2.65464e-19)
(3.73283e-05 -6.2935e-06 -2.83932e-21)
(3.77745e-05 -7.44013e-06 2.30785e-20)
(3.60063e-05 -7.22973e-06 2.665e-19)
(-0.00920262 0.283799 3.75761e-18)
(-0.0295804 0.423665 -6.20132e-18)
(-0.0012497 -0.002793 4.82558e-19)
(-0.00100001 -0.00227867 1.57816e-19)
(-4.39381e-05 -0.000143886 -1.94841e-19)
(-4.05404e-05 -0.000138366 1.53133e-18)
(-3.77031e-05 -0.000147038 1.37607e-18)
(0.0968656 0.0579835 6.19985e-18)
(0.0724202 0.068142 -3.44593e-18)
(0.0885342 0.0723714 4.23686e-18)
(0.00422168 -0.00142229 -2.16127e-19)
(0.00371978 -0.0011739 3.11998e-19)
(-0.000848571 -0.000495655 5.21683e-19)
(-0.000966277 -0.00042542 2.56944e-19)
(-0.000802254 -0.000352973 1.06285e-19)
(-4.93369e-05 -0.000138554 -7.53747e-19)
(-4.44181e-05 -0.000147769 -8.60112e-19)
(0.0634476 -0.00749315 -1.14105e-18)
(0.0597524 -0.00604724 -6.32667e-18)
(0.0613245 -0.0101539 -3.54786e-18)
(0.115839 -0.00790306 -4.15706e-18)
(0.106605 -0.0109636 7.65008e-18)
(0.0304708 -0.0117848 -1.4063e-18)
(0.000165826 -1.26328e-05 -2.15881e-19)
(0.000169945 -9.04077e-06 9.33624e-21)
(0.000157117 -1.10507e-05 9.06395e-20)
(-0.00222384 -0.00578178 2.33163e-19)
(-0.00281255 -0.0056534 -1.54322e-19)
(-0.00265665 -0.00631736 -1.38891e-19)
(-0.12092 0.216933 -7.17909e-18)
(-0.120244 0.215358 4.88342e-18)
(-0.114633 0.212155 -1.25268e-17)
(0.000499352 9.94842e-06 -4.86842e-20)
(0.0004738 -9.7185e-05 -6.71049e-22)
(7.88129e-05 -2.29137e-05 -1.8019e-20)
(7.12012e-05 -2.55164e-05 1.4235e-19)
(7.33976e-05 -3.01307e-05 7.38784e-19)
(-0.0780472 0.574984 -6.13904e-18)
(-0.0660998 0.592502 -6.33358e-18)
(-0.0590338 0.584089 -1.11791e-17)
(-0.000141907 -0.00223239 -2.71359e-19)
(-0.000285834 -0.00264697 -4.40876e-19)
(-0.000537727 -0.00223655 5.59955e-20)
(0.0403884 -0.0585751 -4.84463e-19)
(0.0421609 -0.0628534 7.05529e-19)
(0.0369786 -0.0619116 -9.85887e-19)
(0.0341141 0.0163699 -6.90625e-18)
(0.0319569 0.0159929 -3.89836e-18)
(-0.000114375 -0.00789378 -4.69376e-20)
(0.00109402 -0.00874106 -5.15253e-19)
(0.0396946 -0.122139 -2.22143e-18)
(0.0440245 -0.109542 5.61492e-18)
(0.0518606 -0.0935865 -5.51382e-19)
(0.0151515 -0.000121505 -2.37443e-19)
(0.014795 0.000826495 6.54594e-20)
(0.0160834 0.000410903 -3.08889e-18)
(0.0374415 0.171385 9.19836e-18)
(0.0789365 -0.00765502 -6.93984e-18)
(0.117333 0.0485331 1.08468e-17)
(0.103347 0.044791 -1.37776e-18)
(0.0136246 0.00897864 -7.02819e-18)
(0.0128105 0.00956185 3.30811e-18)
(0.0139234 0.00998704 2.52394e-19)
(-0.152066 0.178958 -5.49245e-18)
(-0.151616 0.174988 -2.73433e-18)
(0.0566472 -0.00471205 5.03509e-18)
(0.0543709 -0.00680118 -2.15435e-19)
(0.0533288 -0.00321876 2.89666e-18)
(0.0315708 -0.0190299 3.54968e-19)
(0.0279401 -0.0147457 -6.48146e-19)
(0.102212 -0.0957901 -5.24411e-19)
(0.100195 -0.0968706 -8.48744e-19)
(0.102507 -0.0920479 -7.29737e-19)
(0.121083 0.00107042 2.82596e-18)
(0.125437 0.00755585 -2.70191e-18)
(0.120225 0.0051921 1.05258e-17)
(0.0113343 -0.00334952 -3.6059e-18)
(0.0273982 -0.00185426 -2.84543e-17)
(0.0179311 0.00900373 -4.98813e-17)
(0.000254354 0.000322344 -2.32155e-19)
(0.000263008 0.000325625 -3.41675e-19)
(0.000267095 0.000320257 -1.097e-18)
(-0.00678992 0.00467097 -8.26902e-19)
(-0.00551678 0.00470889 5.8547e-19)
(-0.00620408 0.00598921 -7.94094e-20)
(0.00219033 -0.163887 4.64204e-18)
(0.00301214 -0.154891 4.23527e-18)
(0.087901 0.0916991 2.03804e-18)
(0.100823 0.113847 -2.312e-18)
(0.0223492 0.0128568 8.13389e-19)
(0.0206307 0.0129398 9.23345e-19)
(0.0673376 -0.00837105 1.90631e-18)
(0.064874 -0.00458108 1.12455e-17)
(-0.0156647 0.0255199 6.62703e-19)
(-0.0167781 0.0294436 1.49015e-18)
(-0.0128667 0.027815 -1.38874e-18)
(0.0350351 -0.0229092 -1.13534e-19)
(0.175729 0.0231427 1.65549e-18)
(0.192453 0.0259596 9.53514e-19)
(0.149596 0.042077 2.27901e-18)
(-7.90319e-05 -7.29076e-05 -1.13559e-19)
(-9.38443e-05 -5.25527e-05 2.53258e-19)
(-0.000101993 -6.7756e-05 1.74658e-19)
(-0.116431 0.0713439 2.07696e-18)
(-0.106322 0.0627208 -1.55863e-17)
(-0.114403 0.0522272 -9.13487e-18)
(-0.148601 0.186107 -1.15878e-17)
(-0.151557 0.183701 2.70732e-18)
(-0.123176 0.126162 -2.85791e-18)
(-0.156103 0.185626 -5.12898e-18)
(-0.134015 0.18023 -3.39972e-18)
(0.000257976 0.000629523 4.15148e-19)
(0.00031137 0.000492327 8.99174e-20)
(0.000417212 0.00062018 1.95279e-19)
(-5.861e-05 -8.31649e-05 8.08086e-20)
(-6.63365e-05 -9.27653e-05 -1.24634e-19)
(0.144873 -0.0247617 -9.45876e-19)
(0.178127 -0.0338206 -2.9449e-19)
(0.150339 -0.0590367 -1.74353e-20)
(0.119918 -0.00459865 -8.507e-18)
(0.121788 -0.000886188 -1.2193e-17)
(0.00361777 -0.243646 -3.64491e-19)
(0.0193492 -0.220361 1.21134e-17)
(0.00634045 -0.241142 -1.17572e-17)
(-0.0442094 0.0154536 -1.19234e-17)
(-0.0448153 0.00228472 -1.21421e-17)
(-0.0325121 0.00898657 -2.18514e-17)
(-7.32721e-06 -1.02843e-06 -2.53176e-19)
(7.54175e-06 -1.2681e-06 -5.50362e-19)
(0.0390289 -0.00775654 -1.40055e-19)
(0.0390544 -0.0103441 -3.07322e-18)
(0.0416979 -0.00904395 -2.4518e-18)
(0.00405742 -0.00566668 -3.23104e-20)
(-0.000710887 -0.00420044 -1.70948e-19)
(0.161276 -0.128315 4.01961e-18)
(0.142297 -0.147108 4.12718e-18)
(0.00022739 -0.000149349 -6.26199e-19)
(0.00022592 -0.000154984 -5.73756e-19)
(0.000231238 -0.000141955 2.05347e-20)
(0.000267614 0.000122054 3.84151e-20)
(0.000267253 0.00011687 -9.72478e-21)
(0.0989706 0.0186856 7.10228e-18)
(0.100544 0.0238641 1.12951e-17)
(0.105231 0.0185667 -1.75721e-18)
(-0.0252484 0.137228 -2.60861e-18)
(-0.000625014 0.126761 -3.49096e-18)
(0.000660832 0.000421729 -2.45549e-18)
(0.000613938 0.00042249 -2.38646e-18)
(4.81891e-05 -4.66143e-05 4.17495e-19)
(5.2634e-05 -5.48794e-05 2.57763e-20)
(4.783e-05 -5.23077e-05 1.47754e-20)
(0.00452876 0.000111981 3.08482e-20)
(0.0040722 0.000191419 1.79295e-19)
(0.00425448 -0.000250438 9.42767e-19)
(0.0399688 0.0425745 -7.36534e-18)
(0.0429849 0.0426164 5.50427e-18)
(0.00103771 0.000496061 2.48558e-18)
(0.00112109 0.000504491 -6.38433e-19)
(0.0882197 -0.113578 -1.87934e-19)
(0.0861926 -0.11427 -1.64829e-19)
(0.0946021 -0.106822 2.61955e-19)
(0.000207806 0.000108908 -9.44955e-20)
(0.000207302 0.000119373 9.0034e-21)
(0.000207384 0.000115102 -2.53718e-19)
(0.0539548 0.00596863 4.32172e-19)
(0.0557749 -0.00242937 1.94674e-19)
(0.0138586 -0.00171713 3.36696e-19)
(0.01356 -0.000259786 4.02354e-19)
(0.0154017 -0.000920678 2.43213e-19)
(-0.141482 0.190799 -2.56897e-18)
(-0.134116 0.170336 -1.16899e-17)
(-0.20874 0.190902 -1.42687e-18)
(-0.196448 0.189746 -1.31852e-19)
(-0.213918 0.23744 1.65253e-18)
(0.00458296 -0.0140178 2.00321e-17)
(-0.0039446 -0.00255643 2.74028e-17)
(0.000213131 9.17706e-05 -2.50937e-19)
(0.000206234 9.54743e-05 1.76254e-19)
(-0.00415809 -0.0396101 8.25848e-19)
(-0.00101441 -0.0405991 9.65993e-19)
(-0.00442653 -0.0425138 -1.20425e-18)
(-0.0376619 0.347025 -2.84692e-18)
(-0.0664043 0.396271 4.60704e-18)
(-0.110571 0.429656 -2.0846e-18)
(3.32535e-05 5.64302e-05 1.4708e-21)
(3.43787e-05 5.9733e-05 -1.20485e-19)
(3.57961e-05 6.40369e-05 1.35108e-20)
(0.0010257 0.000396878 -9.88226e-19)
(0.00100583 0.000450871 1.69314e-18)
(0.000956686 0.000404831 2.57898e-18)
(0.043984 -0.0662135 1.78843e-20)
(0.0459282 -0.0702651 -2.05156e-18)
(0.041183 -0.0701972 5.71338e-19)
(0.00024881 0.000318062 4.09148e-19)
(0.000248749 0.00032514 4.23464e-19)
(-0.165634 0.20902 1.70232e-17)
(-0.1506 0.213069 1.1157e-17)
(3.10358e-05 -4.05558e-06 3.5207e-19)
(3.27768e-05 -6.40243e-06 -1.30582e-20)
(2.87309e-05 -5.54072e-06 -1.4441e-19)
(-0.00047625 -0.00261833 1.77745e-19)
(-0.000416133 -0.00220015 5.72704e-20)
(-0.000872242 -0.00226398 4.10578e-19)
(0.0699715 -0.0103516 -1.28533e-18)
(0.0714808 -0.00668995 2.29849e-19)
(-0.0755889 0.161687 -5.17034e-18)
(-0.0359687 0.131715 -2.44321e-19)
(-0.0301337 0.146103 -1.04798e-18)
(0.000186188 2.75377e-05 -2.72074e-21)
(0.000187205 3.03184e-05 1.07661e-20)
(0.000184541 2.40362e-05 -8.31092e-21)
(0.000186839 3.71297e-06 8.52238e-21)
(0.000186946 1.26612e-05 -4.52287e-21)
(-0.128939 0.0819932 9.81632e-18)
(-0.12211 0.093875 3.23709e-18)
(1.97016e-05 -0.000186765 -3.31559e-19)
(-7.35051e-06 -0.000179539 -3.75804e-20)
(1.72232e-05 -0.000163841 8.45381e-20)
(-0.00811263 0.00496645 -8.21414e-19)
(0.0853705 -0.0214361 -7.25368e-18)
(0.0721301 -0.0201951 -2.1327e-18)
(2.53574e-05 1.39981e-06 -2.51107e-19)
(2.26004e-05 1.70509e-06 -1.28027e-19)
(2.6961e-05 3.38028e-06 -1.66938e-19)
(0.023701 0.0121957 -6.04649e-19)
(0.0250775 0.0115333 -3.21506e-18)
(0.024854 0.0133882 -4.27546e-18)
(-5.0295e-05 -0.00296003 -1.97723e-19)
(-0.000715331 -0.0032138 -3.16883e-19)
(0.00174633 -0.00121265 1.61055e-19)
(0.00144155 -0.00120235 1.92427e-19)
(0.0015367 -0.0009779 -2.51215e-19)
(0.000949528 0.00208429 1.07686e-19)
(0.000792184 0.00227739 3.75017e-19)
(0.00109372 0.00237305 2.80873e-19)
(0.000170631 -0.000151344 -3.40419e-20)
(0.000150791 -0.000122509 -6.42527e-21)
(0.000173998 -4.17505e-06 1.13678e-21)
(0.000170615 -8.68814e-07 3.24321e-20)
(0.000173335 -3.7689e-06 5.7433e-20)
(0.0225086 0.0111873 1.29845e-18)
(4.99463e-05 -4.51301e-06 -1.72003e-20)
(4.97023e-05 -1.48206e-06 -4.65981e-20)
(0.0446357 -0.070978 -1.31129e-18)
(0.041954 -0.0783343 6.5687e-19)
(0.04943 -0.0601642 2.37131e-18)
(0.00111368 0.279284 7.62603e-19)
(0.0591193 0.215698 -1.11992e-18)
(0.000640539 -0.000334692 5.14146e-19)
(0.000513709 -0.000279532 -1.50306e-19)
(0.000513862 -0.00037919 7.84789e-20)
(0.0154764 -0.00113818 3.6615e-18)
(0.014382 -0.000677933 -2.23564e-19)
(0.0735406 -0.0122517 4.16097e-18)
(0.0688509 -0.0143113 4.5236e-18)
(-0.132551 0.183691 -5.20353e-19)
(-0.114366 0.160163 3.36513e-19)
(0.00703327 0.119551 2.05404e-19)
(0.0145987 0.101552 -3.67244e-20)
(0.010322 0.113444 3.68907e-19)
(-0.0287155 0.0534763 8.69001e-19)
(-0.0374018 0.0573225 5.54924e-20)
(0.0196541 0.0408311 -1.10656e-17)
(0.0218787 0.0418318 -1.08868e-17)
(0.0195498 0.0435272 -1.76981e-19)
(0.185946 -0.00212681 -2.75346e-18)
(0.152846 0.0290498 -3.32782e-18)
(4.42063e-05 -0.000192055 2.39146e-19)
(2.90607e-05 -0.00020299 -1.13838e-18)
(0.121764 -0.00261444 2.99713e-18)
(0.113001 -0.00171821 -7.6927e-18)
(0.0144754 0.00836617 3.47203e-18)
(0.0134558 0.0080102 -4.45323e-18)
(0.143199 -0.0980203 -4.69434e-18)
(0.17229 -0.115431 6.27219e-18)
(8.43702e-05 -1.66933e-05 -6.99974e-19)
(8.70788e-05 -2.19285e-05 -3.11198e-19)
(0.000239698 -2.81358e-05 -1.54514e-19)
(0.000237048 -3.43331e-05 -1.08523e-19)
(0.000239247 -3.91405e-05 8.56766e-20)
(0.000772562 -0.000399548 -3.10047e-19)
(0.000762798 -0.000245657 1.50279e-19)
(-0.0612927 0.00941133 6.97755e-19)
(-0.0656496 0.00361223 -5.6407e-20)
(-0.0679359 0.0116653 1.16919e-18)
(-0.0796994 0.146894 -1.02202e-18)
(-0.0665215 0.136481 -1.01728e-17)
(-0.0773711 0.157886 -1.87187e-18)
(0.0477682 -0.0745242 8.42639e-19)
(0.0494941 -0.0807 -8.38716e-19)
(0.0429571 -0.0781281 4.23981e-18)
(-0.000138701 -8.00829e-05 3.62274e-19)
(-0.000164886 -4.65371e-05 -1.12567e-19)
(-0.000104682 -5.34912e-05 -2.09733e-19)
(0.000188139 -2.33366e-06 -4.944e-20)
(0.000189755 4.02806e-06 -2.61869e-20)
(0.000188284 -8.56145e-06 1.54986e-19)
(-0.0553213 0.00719486 -2.91065e-19)
(-0.0570606 0.013476 8.14249e-19)
(0.0379139 -0.0551146 -1.94002e-19)
(0.035475 -0.0507342 7.4365e-20)
(0.0324801 -0.0537503 -2.68204e-19)
(-3.854e-06 -3.59011e-06 5.29062e-20)
(-1.39434e-05 -6.09784e-06 -2.28544e-19)
(-9.43918e-06 -4.74616e-06 -3.90287e-19)
(0.0994563 -0.1022 9.79456e-20)
(0.104188 -0.0948667 4.26283e-20)
(0.0771942 -0.0512548 -1.27315e-19)
(0.0817933 -0.0505376 1.47565e-19)
(0.0779843 -0.0464996 -2.05105e-20)
(0.00024307 -8.91898e-06 -8.08306e-22)
(0.000242158 -1.75746e-05 6.03429e-20)
(0.000242422 -1.22657e-05 9.29666e-20)
(8.26386e-05 -0.000138259 6.5413e-21)
(8.08131e-05 -0.000143049 -2.16272e-19)
(7.52525e-05 -0.000133039 -1.18803e-19)
(0.000721111 0.00161561 -1.11404e-19)
(0.00085995 0.0013253 4.8008e-19)
(0.000529507 0.00136923 3.78385e-19)
(0.000245128 -0.000133203 -1.297e-20)
(0.000252038 -0.000115191 4.47808e-20)
(-0.0571792 0.020614 2.93275e-17)
(-0.0439832 0.029105 1.00859e-17)
(-0.000855621 -0.000811537 1.51631e-19)
(-0.00078325 -0.0009899 -5.92065e-20)
(-0.00064715 -0.000818783 -9.2938e-20)
(0.0370956 0.00905906 3.41562e-18)
(0.035985 0.0238205 3.8706e-19)
(0.0388402 0.0105196 2.16838e-19)
(0.000938557 -0.000493659 -4.34868e-19)
(0.000761212 -0.000551812 -1.29444e-19)
(9.47159e-06 -4.2275e-06 1.52849e-19)
(1.88848e-05 -6.00298e-06 -8.18682e-20)
(1.06367e-05 -3.57079e-06 -7.86549e-20)
(0.0632403 -0.0832039 -2.74738e-19)
(0.0603472 -0.0790304 1.01995e-18)
(0.0656664 -0.0785504 -4.89279e-19)
(0.000120035 0.000628389 1.898e-19)
(-2.66597e-06 0.000606085 1.64856e-19)
(6.33093e-05 0.000487775 -5.15374e-19)
(0.152371 -0.0177542 2.61524e-18)
(0.158217 -0.0106059 1.46326e-18)
(0.000180066 -6.7318e-06 -5.19015e-20)
(0.000179321 -6.52554e-06 -2.12465e-20)
(0.000180268 -4.93441e-06 1.20733e-19)
(-0.0156123 -0.425418 -2.62275e-18)
(-0.00622654 -0.469797 -3.20622e-17)
(0.00256854 -0.005811 -1.02801e-19)
(0.00307882 -0.00697462 3.92559e-19)
(-4.69791e-05 -0.000129142 -1.05263e-19)
(-3.69211e-05 -0.000133522 3.0658e-20)
(0.000246184 -7.67991e-06 -1.08777e-19)
(0.000243428 -2.07505e-06 -1.42906e-21)
(-0.00345149 -0.0365946 -3.14683e-19)
(-0.00719731 -0.0379472 1.12986e-18)
(-0.0991611 -0.0387191 -2.1618e-18)
(-0.116997 -0.0816216 -1.42121e-18)
(-0.125291 -0.0691247 -2.58285e-18)
(-0.0765225 0.00673936 1.87387e-18)
(-0.0687621 -0.0149731 3.73165e-18)
(-5.05596e-05 -0.000119697 2.69962e-19)
(-5.69863e-05 -0.00012474 -4.92912e-19)
(0.0428445 -0.0551328 2.21383e-19)
(0.000279992 0.000329968 -7.08146e-20)
(0.000263926 0.000330972 1.3366e-18)
(9.90309e-05 -0.000258447 1.76793e-19)
(6.24943e-05 -0.000260937 2.92355e-19)
(6.87307e-05 -0.000284461 -1.19375e-19)
(0.0966709 -0.0993721 9.93357e-19)
(0.0603103 -0.124933 2.05476e-18)
(0.0548826 -0.12509 -1.44816e-18)
(-0.0337872 0.130742 4.77436e-18)
(0.0188143 0.0969003 -9.95326e-18)
(0.0043679 0.101375 -1.70643e-18)
(0.000135334 -0.000247198 3.28648e-19)
(0.000128173 -0.000232113 3.76107e-20)
(8.44516e-05 -0.000213843 9.26631e-20)
(7.68045e-05 -0.000205951 2.86722e-20)
(9.57007e-05 -0.000201723 -2.27589e-19)
(0.000626295 0.00191844 -1.56933e-19)
(0.000847149 0.00234748 2.94611e-20)
(0.00031613 0.00232797 8.26959e-20)
(0.0010914 0.00189623 8.38278e-22)
(0.000841269 0.00186044 -2.13715e-19)
(0.000828351 -0.00430418 -7.01733e-19)
(0.00092309 -0.0039193 -1.82356e-18)
(0.00126168 -0.00416341 2.93641e-19)
(4.99717e-05 -8.03264e-06 -9.8475e-21)
(5.4308e-05 -6.03737e-06 -1.49291e-20)
(0.00205672 -0.00117744 -9.2734e-20)
(0.00194154 -0.0015001 -3.46e-19)
(0.000796479 -0.000373696 1.17625e-18)
(0.000815622 -0.000427597 2.43951e-19)
(8.39666e-05 -0.000131312 2.53819e-19)
(9.04428e-05 -0.000137092 -1.4347e-19)
(0.000160947 -9.84166e-06 3.22147e-20)
(0.000152639 -1.24742e-05 2.36932e-19)
(0.000155619 -1.16286e-05 2.46232e-19)
(0.000191071 -2.5453e-05 1.33941e-19)
(0.000191533 -1.70002e-05 -8.20418e-20)
(0.000191202 -2.38132e-05 -1.72672e-19)
(-0.144832 0.191484 -1.16942e-17)
(-0.143373 0.194423 -4.96221e-18)
(-0.139528 0.197266 -8.41559e-18)
(0.000226664 -3.83141e-05 -2.70665e-20)
(9.50995e-05 -0.000213316 -5.42598e-19)
(8.22035e-05 -0.00022674 3.07273e-19)
(2.95265e-05 -8.79459e-05 -4.58249e-22)
(3.48954e-05 -8.45989e-05 2.12831e-20)
(2.94476e-05 -8.25545e-05 2.90194e-20)
(0.0383746 -0.0481049 -1.86539e-19)
(0.0340335 -0.0474263 -1.54884e-19)
(0.000162733 -3.46197e-05 4.88664e-20)
(0.000159089 -4.51499e-05 3.04306e-19)
(0.000165028 -3.45369e-05 1.06998e-19)
(0.000163197 -3.45116e-05 2.75865e-19)
(1.48482e-06 -2.74592e-06 9.72503e-19)
(8.46814e-06 -1.16857e-06 3.76212e-19)
(0.000675741 0.000309171 2.073e-18)
(0.000708322 0.000321909 1.36502e-18)
(0.000715637 0.000294203 8.55901e-20)
(-0.00041472 0.000356227 3.88054e-20)
(-0.000496812 0.000396522 -8.67785e-20)
(-3.09954e-05 -2.11846e-06 -2.68526e-19)
(-2.75151e-05 -6.74957e-07 -1.52525e-19)
(-3.28273e-05 5.8434e-07 -7.36405e-20)
(-1.42744e-05 2.69206e-06 3.33144e-19)
(-8.07877e-06 1.80797e-06 1.26967e-19)
(-1.47833e-05 5.48029e-06 -1.22865e-19)
(0.00126649 0.00225659 7.69037e-20)
(0.00161777 0.00266179 1.20574e-19)
(0.00100893 0.00270887 4.33156e-19)
(0.00135608 0.133094 -5.94537e-19)
(0.00450539 0.123677 -1.74292e-18)
(0.000196302 4.34371e-06 -6.80677e-20)
(0.000209491 1.7812e-06 -1.59629e-20)
(5.67038e-06 1.20461e-06 -7.33004e-20)
(4.44429e-06 1.01596e-06 -3.03316e-20)
(0.125257 0.0842196 9.38158e-18)
(0.115012 0.0799951 2.40812e-18)
(0.102326 0.0962255 1.85456e-18)
(0.00231523 -0.000214698 2.85584e-18)
(0.0022868 -4.17985e-05 1.97043e-18)
(0.00217048 -0.000181754 1.31378e-18)
(-4.33545e-05 2.42763e-06 -4.76044e-20)
(-4.32792e-05 6.17677e-06 -7.5754e-19)
(-3.88324e-05 2.76838e-06 7.21151e-20)
(-4.22979e-05 -2.74092e-07 2.01329e-19)
(-4.78523e-05 1.44705e-06 -1.94681e-19)
(0.0150638 -0.000843249 1.78213e-18)
(0.00126747 -0.00427366 -4.23711e-19)
(0.00934688 0.0131393 2.09524e-19)
(-0.00334168 -0.0292453 7.0037e-19)
(0.00129453 -0.026307 -3.78023e-19)
(-0.00268846 -0.0240316 -6.02982e-19)
(4.47111e-05 -3.80518e-05 1.51024e-19)
(4.85178e-05 -4.1781e-05 3.80917e-19)
(0.012973 -0.00570949 5.80468e-20)
(0.0111483 -0.00477348 1.87225e-19)
(0.0110975 -0.00668526 -2.68225e-19)
(0.0760949 0.0291119 -1.08899e-17)
(0.082029 0.012094 1.04977e-18)
(-0.00197914 -0.00017357 -5.24304e-19)
(-0.0017525 4.97107e-05 8.37464e-20)
(-0.0409162 -0.0106899 -1.18254e-18)
(-0.0453785 -0.0118415 -5.74332e-19)
(0.000192676 -3.06418e-05 1.31946e-19)
(0.000193127 -2.8022e-05 3.89944e-20)
(-0.0598951 0.0326388 1.4251e-18)
(-0.0411581 0.0368045 7.68011e-19)
(-0.0407791 0.0524477 4.18387e-19)
(0.0464778 -0.062566 3.55392e-19)
(0.0228993 -0.0380635 -3.66927e-20)
(0.0259916 -0.0372727 1.93606e-19)
(0.0243442 -0.0406777 -7.86416e-20)
(0.0336402 -0.0042065 3.09794e-18)
(0.0356089 -0.00334715 8.97294e-19)
(-0.120894 0.166117 -3.89017e-18)