/*--------------------------------*- C++ -*----------------------------------*\
| =========                 |                                                 |
| \\      /  F ield         | OpenFOAM: The Open Source CFD Toolbox           |
|  \\    /   O peration     | Version:  v2012                                 |
|   \\  /    A nd           | Website:  www.openfoam.com                      |
|    \\/     M anipulation  |                                                 |
\*---------------------------------------------------------------------------*/
FoamFile
{
    version     2.0;
    format      ascii;
    class       surfaceScalarField;
    location    "400";
    object      phi;
}
// * * * * * * * * * * * * * * * * * * * * * * * * * * * * * * * * * * * * * //

dimensions      [0 3 -1 0 0 0 0];
oriented        oriented;


internalField   nonuniform List<scalar> 
27882
(
0.510316
-0.361835
-0.148479
0.471295
-0.189065
-0.282229
0.27164
-0.532617
0.260986
0.165008
0.34531
-0.223409
0.350966
-0.127554
-0.426024
-0.102063
0.528087
0.185107
0.188312
-0.373408
0.119368
-0.330598
0.211235
-0.341336
0.117931
0.247282
-0.373694
0.126416
0.365787
-0.516696
0.15091
0.458069
-0.198615
-0.259453
-0.380841
0.131785
0.249058
0.331866
-0.164568
-0.167295
0.104598
-0.430437
0.325856
-0.428435
0.14784
0.280615
0.197423
0.260646
-0.313207
-0.168222
0.3817
-0.277087
0.175091
0.140009
-0.315096
-0.438762
0.327124
0.111639
0.0486525
-0.118923
0.0702703
0.0867723
-0.512795
-0.333752
0.540259
-0.206506
0.11658
-0.0679279
0.159484
-0.101204
-0.0582801
-0.209443
-0.0842532
0.293696
0.227313
-0.133238
-0.0940748
-0.181627
0.0410406
0.140587
0.471428
-0.319414
-0.152014
-0.152811
0.244547
-0.0917357
0.0467225
-0.256165
0.307193
-0.187821
0.0693619
-0.133957
0.0645949
-0.168328
0.339845
-0.171514
0.182525
0.288904
-0.258316
-0.122522
0.182643
0.209378
0.0450464
-0.254424
0.395312
-0.476148
0.0808368
0.456714
-0.317741
-0.138972
-0.18424
-0.167031
0.351275
0.452249
-0.230985
-0.221264
0.468903
-0.334333
-0.134566
0.520468
-0.36174
-0.158701
-0.216098
0.146021
0.0700778
-0.333806
0.14957
-0.178518
0.0218647
0.156654
0.0127397
-0.01639
0.00365033
0.503782
-0.353595
-0.150184
0.520607
-0.154819
0.103021
-0.11246
0.00943877
0.184584
0.3192
-0.391025
0.167642
0.223386
0.0579213
-0.13065
0.0727285
0.380492
-0.248705
0.485515
-0.462571
-0.0229406
-0.1576
0.332694
-0.177886
0.162428
0.0154583
0.36635
0.119168
0.488855
-0.0787677
-0.410065
0.332964
0.135943
-0.0708978
-0.137614
0.00911899
-0.10721
0.0980906
0.0241354
0.464746
0.099423
-0.0685627
-0.0308603
-0.0179352
0.401539
-0.383587
0.62557
-0.299176
-0.326393
0.0696594
0.157653
-0.544538
0.231332
-0.018769
0.12179
0.084951
0.0418135
-0.126764
0.144272
-0.398648
0.25439
0.166581
-0.285473
0.118892
0.256072
-0.301833
0.0457623
0.0442082
-0.197019
0.168013
0.06341
-0.231423
-0.215577
-0.168873
0.384451
-0.0940513
0.288239
0.164011
0.135886
-0.149393
0.0135075
-0.0429107
0.252288
-0.294546
0.0789689
0.0101367
0.218262
-0.228398
-0.540229
0.262175
0.278057
-0.134837
0.0333167
0.10152
0.196851
0.0526811
-0.140759
0.307342
-0.237581
0.166683
-0.133388
-0.00144829
-0.0709029
0.0853311
-0.0144282
-0.349957
0.508972
-0.158984
0.135504
-0.157416
0.0219116
0.015284
-0.00254437
-0.24924
0.393526
0.522484
-0.10099
-0.421482
-0.338838
-0.134923
0.473761
0.172855
-0.166391
-0.00646405
0.392716
-0.226689
-0.166027
0.17931
-0.380401
0.201102
-0.173495
-0.042603
0.330082
-0.22623
-0.103851
0.316
0.309572
0.428427
0.0940703
0.054044
0.045379
-0.248959
-0.189802
-0.151452
-0.027066
-0.069949
-0.000953817
0.0100308
0.22593
-0.23596
0.387014
-0.14823
-0.238782
-0.13806
0.44153
-0.303448
0.0901148
-0.0809957
0.277485
-0.464486
0.187005
0.476351
-0.472764
-0.00357591
0.123939
0.206145
-0.132388
0.00219832
0.13019
0.177418
-0.00456175
0.55546
-0.264185
-0.291271
-0.00363226
0.120903
-0.11727
-0.341237
0.49047
-0.149229
0.550417
-0.386765
-0.163639
0.234508
-0.066495
-0.210249
-0.329977
-0.507638
0.0741776
0.433466
-0.0134993
0.0219998
-0.00850049
-0.219864
-0.171159
-0.503167
0.34117
0.162001
-0.42163
-0.0860019
-0.04441
-0.101063
0.145473
-0.0187932
0.0159209
-0.156021
-0.52618
0.274431
0.251771
-0.23042
0.241975
-0.0115533
0.0224784
-0.0618609
0.0393825
-0.14075
0.536062
-0.35197
0.481022
-0.129038
0.19042
-0.0106916
-0.179729
-0.401354
-0.0644914
0.46585
-0.166949
0.0221599
0.144789
0.139563
-0.0036767
0.428963
-0.151475
0.444646
-0.155716
-0.288929
0.193695
-0.183834
-0.0098604
-0.265477
0.275509
-0.0213218
0.00782248
0.168717
-0.163507
-0.0052097
0.0902777
-0.0362336
-0.0177397
0.141025
-0.123285
-0.187493
-0.329202
0.0258483
0.0918497
-0.117698
0.0165008
0.00193379
-0.0184346
0.0195889
-0.0167041
-0.00288479
0.0532406
-0.258133
0.204898
-0.37973
0.10197
0.277763
0.197173
0.259541
0.181939
-0.0353942
0.157599
-0.0220947
0.0765139
-0.120924
-0.245424
-0.0349855
0.280411
0.283803
-0.102069
0.0536736
0.0483959
0.355167
0.030358
-0.385521
0.0168508
-0.0165678
-0.000283025
0.0443322
0.0459455
-0.211624
0.131617
0.0800073
-0.548391
0.247523
0.300872
0.413803
-0.0586308
-0.0637044
0.104259
-0.0405551
-0.0160915
-0.00270169
0.415506
-0.357034
-0.0584718
0.00744484
0.00750646
-0.0149513
0.407979
-0.136332
-0.167064
0.162191
0.00487367
-0.272565
-0.155093
-0.00736951
0.233299
0.134982
-0.391585
0.256611
0.141637
-0.390864
0.0442234
-0.122321
0.0780979
0.12901
-0.0596476
0.229619
0.0462639
0.520322
-0.244908
-0.275412
-0.128906
-0.177507
0.306416
-0.0714866
0.129408
0.140977
0.165435
-0.0946683
-0.0208883
0.115557
0.421189
-0.31696
-0.104217
-0.325992
0.00657823
0.344858
-0.291184
-0.053673
0.0221995
-0.00691547
-0.101442
-0.127946
0.229389
0.00656538
0.0130235
0.278064
0.143139
0.068708
-0.168209
0.0995019
0.128583
0.132209
-0.260792
-0.539174
0.219441
0.319735
0.236072
-0.314155
0.0780866
-0.143558
0.0119691
0.131589
0.317022
-0.263775
0.0109809
0.0112186
-0.494079
0.0769416
0.417141
-0.19386
-0.253546
0.447409
0.188437
-0.111923
-0.180984
-0.0699014
0.250886
-0.147675
0.427365
-0.279668
-0.401455
0.263416
0.0115787
0.00527206
0.0930559
-0.363743
0.270694
-0.0398826
-0.0162323
0.00731167
0.554601
-0.375559
-0.179038
-0.115975
0.150563
-0.0345881
-0.46336
0.269503
-0.134087
0.423672
-0.289579
0.106165
-0.327136
0.220973
0.16421
-0.503048
0.00249306
0.390024
-0.392487
0.0416243
0.341835
-0.443897
-0.0585252
0.387533
-0.329008
-0.179101
0.307684
-0.171443
-0.280195
0.451642
0.1783
0.015396
0.0652068
0.12323
0.0626124
-0.243596
-0.264807
0.42121
-0.156402
0.278712
-0.0226402
-0.0775589
0.134283
-0.0567242
-0.0372297
-0.0648397
0.344879
-0.251816
0.082559
0.0769249
0.158071
0.0106468
0.220259
-0.227628
0.061893
-0.413849
-0.48266
0.147296
0.335382
0.275609
-0.447048
0.0760767
-0.221839
0.145763
0.0167655
-0.0145425
-0.00222297
-0.137068
0.000693096
0.136375
-0.342649
0.262484
0.080167
0.101844
0.322976
-0.4248
-0.139144
0.215221
0.0195191
-0.18702
0.167501
-0.342102
-0.170001
0.512109
0.11227
-0.0864218
0.148847
-0.0267423
-0.122105
-0.477169
0.341972
0.135217
-0.261687
-0.199245
0.460944
-0.204132
0.497001
-0.292867
0.370751
-0.191433
0.0152105
-0.00776564
0.514722
-0.252732
-0.261985
0.292438
-0.554745
0.262307
-0.170938
0.446551
0.463015
-0.0731511
-0.389863
0.124819
-0.00555314
-0.119265
0.380664
-0.574043
0.193382
0.145274
-0.0603224
-0.396335
-0.0278549
0.424216
-0.261769
0.0745735
-0.231074
-0.233408
-0.36293
0.437114
-0.10194
-0.375214
-0.108401
0.17711
0.137612
-0.0145425
-0.123069
-0.040566
0.178178
0.0286261
-0.391551
-0.14743
0.0676761
-0.325804
-0.227136
0.356907
-0.129765
0.105137
-0.128179
0.0230423
-0.0554382
-0.0605732
0.116011
-0.353745
0.126616
0.0875765
-0.331572
0.244001
0.120398
0.353863
-0.474261
0.316977
-0.210808
0.215316
-0.0294163
-0.185898
0.492628
-0.150793
-0.41798
0.283896
0.160465
0.171403
0.199911
-0.461586
-0.311476
-0.175981
0.487478
-0.433906
0.379361
0.0545654
-0.0745263
0.0403082
0.0342181
-0.245316
0.355434
-0.26785
0.397264
-0.43558
0.038317
-0.137417
-0.0496021
-0.152204
0.378484
-0.226269
0.276236
-0.438968
0.096871
0.0941125
-0.292339
0.198229
-0.12175
-0.340818
-0.534385
0.258799
0.275591
-0.558422
0.262977
0.29545
0.206908
0.25381
-0.460715
-0.478267
0.21346
-0.43786
0.0879329
-0.454257
0.120507
-0.0233655
0.0083741
0.0149914
0.11601
-0.232893
0.116884
-0.597449
0.338285
0.259172
-0.392732
-0.204709
-0.0857961
-0.128637
0.214433
0.275052
-0.461725
0.186674
0.280553
0.23977
-0.148821
-0.243861
0.392685
-0.326817
0.0778596
-0.0955931
0.428562
0.152004
0.22849
-0.405313
-0.028575
-0.122698
0.175419
-0.0527209
-0.121398
0.0525933
-0.147353
0.09476
-0.0869004
-0.0947267
-0.0509964
-0.0829604
-0.61643
0.299948
0.316483
0.294311
-0.144127
-0.150184
-0.175937
0.13519
0.0407462
0.0404427
-0.424376
0.383952
-0.108268
0.160862
-0.226641
-0.018782
-0.0207848
0.112635
0.160643
-0.458516
0.297888
-0.300428
-0.00997809
0.452242
-0.270082
0.062217
0.34029
-0.402498
-0.0124674
0.0218583
-0.00939086
-0.0517294
0.206036
-0.154306
0.414744
-0.283233
-0.131508
0.0107695
-0.0528532
0.0420837
0.447999
-0.28734
-0.167725
-0.365794
-0.0305173
0.120813
0.355546
-0.198805
0.316441
-0.117632
0.0399062
0.328507
-0.36841
-0.0847555
-0.245839
0.155204
-0.41026
0.255062
-0.298407
0.0996055
-0.172949
0.269662
-0.0967102
0.190037
-0.153999
0.158953
-0.244749
-0.0783277
-0.323023
0.165674
0.193293
0.199424
-0.267126
0.32935
-0.0257849
0.172261
-0.146476
0.466911
-0.191858
0.12103
-0.0765173
-0.0445128
0.457696
-0.167725
-0.28997
0.143064
-0.136569
-0.00649518
-0.416952
0.100006
-0.0212364
0.0129318
0.00830461
0.23442
-0.256726
0.0223057
0.100237
-0.318645
0.218409
-0.273241
0.100296
0.288403
0.126345
-0.407338
0.300375
0.106967
0.140258
-0.474586
-0.125098
-0.159039
0.291249
0.470789
-0.219356
-0.251432
0.255345
-0.210056
-0.0452877
0.099243
-0.258282
-0.140673
0.227418
-0.0194838
-0.207933
0.155155
-0.284058
0.179631
-0.00221271
0.000375475
-0.0113086
-0.121079
-0.057222
0.277481
-0.203299
0.168603
0.0346964
0.104078
-0.421819
0.00508447
0.13798
-0.0145747
0.47759
0.0225939
-0.0702128
0.047619
-0.118802
0.323855
-0.477235
0.153381
0.234673
0.236116
0.377783
-0.395702
0.223233
0.317028
-0.0673837
-0.0515391
0.23834
-0.292362
0.481922
-0.189559
0.133216
-0.0280792
0.00953232
-0.0729832
0.21689
0.134107
0.252909
-0.281853
-0.146562
0.300681
-0.196823
-0.103856
-0.355936
0.157455
0.198485
0.463514
-0.296603
-0.166908
0.284736
0.265693
-0.373582
-0.0337529
0.266466
-0.407565
0.141112
-0.420953
0.109496
-0.534146
0.294672
0.23948
0.157556
-0.488348
0.330794
0.262727
-0.249636
-0.0130902
0.222524
-0.264324
0.0417996
-0.209668
0.187702
0.0219667
0.0449855
0.0998937
-0.144879
0.157676
-0.112691
0.0044853
-0.0200565
0.0155712
0.263463
0.00448674
-0.142195
0.137708
-0.26954
0.476451
0.430611
-0.0356467
-0.394963
-0.35492
0.123936
0.158682
0.142001
-0.34514
0.212377
0.132763
-0.216132
0.0227518
0.172631
0.00700024
0.360025
-0.262882
-0.0971418
-0.373872
-0.200167
0.148573
0.0414642
0.284486
0.236004
0.211258
-0.0952464
0.558888
-0.288347
-0.27054
-0.023829
0.0210255
0.00280351
-0.163264
0.276921
-0.206321
-0.352096
0.0411741
-0.0304045
0.138154
-0.147071
0.00891757
-0.504182
0.40225
0.101965
0.317756
0.145762
-0.252224
0.4695
-0.217274
0.162667
-0.219889
0.221687
-0.513174
0.291491
-0.356636
-0.177744
-0.0887396
-0.122884
-0.0121023
-0.197565
-0.0826548
0.384044
-0.242395
-0.310154
0.208873
0.101286
0.16329
0.0780724
-0.241361
0.10122
-0.09368
-0.00753999
-0.149133
-0.164451
0.313585
-0.608082
0.359964
0.248119
-0.0459689
0.22583
0.333059
-0.31443
0.354338
0.0371209
0.121527
0.294399
-0.415903
0.0931275
0.151419
-0.241976
-0.366105
0.257942
-0.0946512
0.526423
-0.228948
-0.297466
-0.147916
0.136607
0.196013
-0.498399
0.302388
0.35347
-0.0869932
0.0189224
-0.0137238
-0.0051986
-0.153654
-0.30807
0.127398
0.373303
-0.500701
0.191371
0.036047
-0.00653475
-0.295195
0.301734
0.285767
-0.433423
-0.464966
0.082284
0.382688
0.503223
-0.324142
-0.179054
-0.101748
0.174304
-0.0725555
-0.0235267
0.031813
-0.00828631
0.214428
0.0745735
-0.288997
0.233391
-0.11226
-0.121131
0.328018
-0.228775
0.120193
-0.0759691
0.469843
-0.332815
-0.137029
-5.41231e-05
0.148901
0.0932062
0.376637
-0.510045
0.331196
0.178852
0.142164
-0.137677
-0.190873
0.250433
0.00969028
-0.260121
0.22002
0.0871777
-0.40694
0.348416
0.393836
-0.357871
-0.0359625
0.139016
0.289951
-0.514256
0.217935
0.296329
0.310401
-0.12208
0.456914
-0.120184
-0.336718
0.430933
-0.309382
0.0797721
0.377151
0.0108909
0.334426
0.24689
-0.391145
0.144255
-0.3171
-0.158329
0.475439
-0.543902
0.36518
0.178723
0.131124
-0.140844
0.00972026
-0.152203
-0.373953
-0.259404
0.455375
-0.195965
0.358731
0.125381
-0.484111
0.240087
-0.246619
0.0438144
0.350023
-0.0775401
0.404666
-0.208533
0.156545
0.364063
0.347013
0.0352284
-0.382241
-0.198055
0.0226469
0.175408
-0.151605
0.0912983
0.0603064
-0.00916424
0.0213487
-0.0121844
-0.197075
-0.006224
0.38581
-0.383288
-0.356459
-0.0604802
0.000955487
-0.0244822
-0.0303748
0.502751
-0.318453
-0.184297
0.509108
-0.142755
0.0756537
-0.287143
0.211491
-0.0301941
0.524661
-0.137054
0.484067
-0.0638734
0.103772
-0.0398982
-0.139746
-0.187387
0.136924
0.00263821
0.204548
0.298205
0.494327
-0.176568
0.106917
0.126475
-0.457063
0.25783
-0.132548
-0.255758
0.388315
-0.504737
0.216874
0.287894
-0.530417
0.309408
0.221011
0.0458584
0.299029
0.0804019
-0.442113
0.162702
-0.412385
0.249683
0.266561
-0.439357
0.172797
0.281122
0.0789045
0.219013
0.109005
0.492815
-0.119511
-0.163746
0.430309
-0.423451
0.106361
-0.248903
0.184829
0.0640753
0.341586
-0.138763
-0.202821
0.0819105
-0.231043
-0.248945
-0.131447
0.0454825
-0.146925
-0.183494
0.225675
-0.0421797
0.236922
0.0135128
0.296238
0.10038
-0.396613
0.469418
-0.31186
-0.473669
-0.188364
0.272679
-0.0843123
-0.290827
0.102467
0.000642506
-0.0162334
0.0155909
0.0339354
-0.128604
-0.246897
0.44682
-0.285707
0.28518
-0.191066
-0.0972285
0.033524
-0.533135
0.24479
-0.283874
0.448084
0.35702
-0.346101
-0.429783
-0.114117
-0.134908
-0.254477
0.389392
0.451694
-0.155451
-0.123349
-0.188824
0.312176
0.433626
0.00452313
0.157905
-0.376379
0.127446
0.336486
-0.477236
0.178022
-0.215587
0.0375648
0.00626418
-0.0154284
-0.421178
0.286648
0.134533
-0.217501
-0.285661
0.427655
-0.26985
-0.157795
-0.393817
0.134419
0.270479
0.119181
-0.389646
-0.405725
-0.396444
0.279235
0.11721
-0.452745
0.166536
0.286211
-0.3067
0.220819
0.0858837
0.263444
-0.293273
0.0298307
0.293171
0.134492
0.13984
-0.165624
0.481432
0.0571389
-0.401533
0.344397
0.15668
0.00139124
-0.20982
-0.334718
-0.23286
-0.297556
-0.0122989
-0.297953
0.310252
-0.110346
-0.422262
-0.0128085
0.248883
0.0446664
0.210679
0.50307
-0.133443
-0.36962
-0.124983
0.389565
-0.264569
-0.0128481
0.223079
0.332384
-0.388096
0.228727
0.159368
0.476701
-0.19999
-0.27671
-0.518893
0.165707
0.353191
0.249533
0.276897
-0.19834
0.208478
0.0831653
-0.293952
0.210789
0.208109
0.133478
0.387886
-0.252896
-0.0248429
0.288286
-0.464051
0.399701
0.159335
0.302302
-0.461626
-0.006361
-0.0170045
0.490616
-0.216629
-0.273986
0.276007
0.278598
0.246284
-0.38261
0.136335
0.494635
-0.347901
-0.146732
0.108031
-0.235977
0.235567
-0.145764
-0.0898024
0.284869
0.161562
-0.446427
-0.173176
0.280225
0.0708793
0.0926795
-0.163559
0.290065
-0.21441
-0.272362
-0.160411
0.432794
0.256022
-0.404841
0.0543641
-0.226313
0.171951
0.00437994
-0.068107
-0.162312
0.434122
-0.299313
-0.134807
0.0831406
-0.349869
0.266738
0.249644
0.244994
-0.167237
0.16231
0.00492736
-0.337777
-0.181112
0.339837
-0.256688
-0.360214
-0.17292
-0.0458462
-0.340538
0.386394
-0.0731452
-0.153232
0.226379
-0.112524
-0.172599
0.285125
0.499548
-0.20711
-0.302038
0.291681
0.142444
0.12263
0.220264
-0.342891
0.384955
-0.138661
0.183764
-0.482401
0.298649
0.386294
-0.105171
0.0536464
-0.117417
0.171034
-0.187883
0.0168496
-0.012915
-0.00378911
0.0132107
-0.0125682
-0.390563
0.138341
-0.434367
0.484078
-0.0497099
-0.00837758
-0.278925
0.398113
-0.119187
0.195119
0.295499
0.182426
0.284486
0.241617
-0.366892
0.125282
-0.146503
0.0161831
-0.184526
0.168344
-0.130929
-0.373229
-0.0763951
0.36594
-0.461529
-0.44476
0.31542
0.129351
-0.466553
0.169954
-0.276974
0.154522
0.00215792
0.119258
0.325614
-0.444872
0.269893
0.153784
0.220532
0.125504
-0.129136
-0.469667
0.185793
-0.00727637
0.427661
-0.264959
0.36817
-0.126547
-0.328656
0.486238
-0.157578
0.297225
0.16495
-0.175642
0.139299
-0.411864
-0.11629
0.300241
-0.217072
0.26197
-0.215247
0.289362
0.159381
-0.44874
0.0279984
0.0538927
-0.0818911
0.0196169
-0.0151316
0.311228
-0.210987
-0.443883
0.272949
-0.222252
-0.134782
0.253588
-0.199222
-0.215057
-0.0706446
0.285703
-0.0205455
-0.196172
0.216718
0.107757
0.00944626
-0.117203
-0.105582
-0.225773
0.331362
-0.185904
0.416776
-0.230872
-0.0879778
-0.406099
0.17931
-0.00827541
-0.126023
-0.494567
0.204702
0.289873
0.0747097
-0.190775
0.116066
-0.202067
-0.141206
-0.0748473
-0.166028
0.240877
0.142836
-0.266181
-0.173992
-0.135216
-0.138022
0.449826
0.236998
0.107861
0.299808
-0.194041
-0.105767
0.152644
-0.402146
0.249508
0.127703
-0.17256
0.216875
0.140038
0.0228046
0.162443
-0.185247
0.298557
0.13542
-0.433975
0.370293
0.0863713
-0.456664
0.150206
0.229176
-0.315829
0.26999
0.0913819
0.486493
-0.310735
-0.175746
-0.117601
0.470446
-0.259226
-0.21122
-0.0192616
0.14829
-0.00588922
0.208158
-0.326714
0.118568
0.234204
-0.356591
0.122393
-0.0458015
0.201225
-0.155423
0.238922
-0.361801
0.122885
0.13006
-0.408984
0.166354
-0.242831
0.0764787
-0.297343
0.291049
-0.123724
-0.167322
0.337721
-0.345895
0.00818083
-0.262974
0.482417
0.0670298
0.433557
-0.134999
-0.0300913
-0.11073
-0.0770786
0.105886
-0.0773834
-0.0285024
-0.290131
0.347272
0.136727
-0.419958
0.167129
-0.241975
-0.101451
0.0127567
0.088694
0.170893
-0.242535
0.0716432
0.100527
-0.363407
0.0189736
-0.315799
0.296825
-0.445524
0.000977638
0.444549
0.239312
0.231134
-0.473383
0.311821
0.16157
0.188044
-0.208589
0.354625
-0.115696
0.319109
-0.233076
-0.0860293
0.0712364
0.0152048
-0.0864412
0.477319
-0.242645
-0.299587
0.14769
-0.33559
0.187905
-0.0901301
0.130662
-0.408697
0.278041
0.374318
-0.166146
0.328904
0.0586297
-0.0181855
0.0028602
0.0153253
-0.292088
0.457911
-0.165819
-0.271377
0.402046
-0.161177
-0.312199
0.0280789
0.0731411
0.0681128
0.167454
0.419216
-0.269499
-0.149715
-0.458002
0.140451
0.317561
0.251101
-0.388517
0.137418
0.232078
0.0870363
-0.119534
-0.0103519
-0.395562
0.162377
-0.434718
-0.00958263
-0.0293201
-0.217542
0.246863
-0.331099
0.451497
0.450567
-0.270933
-0.179632
-0.101774
-0.233979
0.335763
0.0492946
0.192682
-0.284925
0.447324
0.497068
-0.3317
-0.165365
0.209446
-0.0180737
-0.132158
0.349039
0.00539403
-0.13034
0.431617
-0.301251
0.026995
-0.0667866
0.0397916
0.507422
-0.35582
-0.151582
-0.0665377
-0.0108649
-0.144877
-0.246268
0.166392
0.0129177
0.482751
-0.0521385
0.349815
-0.0120896
0.0862401
0.258727
-0.344967
-0.133333
0.384437
0.0554603
-0.270516
0.286583
0.152097
-0.438666
-0.430559
0.291699
0.138869
-0.00975077
-0.275722
-0.0122776
0.0101863
0.218094
0.176865
-0.468949
-0.449691
0.172872
0.276837
0.105139
-0.315518
0.210382
0.318419
-0.170724
-0.0895917
0.455536
-0.134373
-0.257397
0.391782
-0.370845
0.373996
-0.223773
-0.39045
0.26548
0.283413
-0.46437
0.181209
0.283172
0.082981
-0.109723
0.0219391
-0.182066
0.160127
-0.117078
0.0962936
-0.148982
-0.235566
0.384548
-0.0080104
-0.0101751
-0.250569
0.39387
-0.143289
-0.0598003
-0.242143
-0.113789
0.29074
0.167175
0.265345
-0.439923
0.174596
0.502063
-0.323493
-0.178563
-0.414976
0.45378
-0.0387987
-0.262117
0.126904
-0.0851085
-0.022101
-0.0959651
-0.0556394
0.158035
-0.187354
-0.481073
0.3115
0.169574
-0.152298
-0.253571
0.40588
-0.228906
0.0454132
0.200646
0.0620824
-0.0644853
-0.122762
0.187248
-0.445037
0.0694814
-0.414986
0.143847
0.271144
0.180694
0.316376
-0.0161219
0.00929656
0.00682538
-0.178297
-0.108727
0.287025
0.0089606
0.443857
-0.457988
0.014145
0.135125
-0.138297
-0.00389728
0.204922
0.245647
-0.00406183
0.242557
-0.189437
-0.0531194
0.191036
-0.29671
0.105676
0.525873
-0.17201
0.49772
-0.161233
0.0651935
0.063816
0.197097
0.0969928
-0.294086
0.324675
0.15751
-0.482183
-0.0439454
-0.125989
0.169935
0.157336
-0.133489
-0.262073
0.395575
-0.193012
-0.361733
-0.132943
0.374759
-0.241814
-0.242168
-0.163129
-0.13571
-0.255136
0.390858
0.236836
-0.398364
0.161549
0.158706
-0.387219
0.228519
0.0957143
0.251513
-0.347214
0.144246
-0.34292
0.198678
0.208138
-0.197724
-0.0104131
0.338238
-0.354984
0.0167528
-0.0873287
0.28443
0.000492401
-0.310548
0.310056
-0.00304639
-0.0130755
0.0120002
0.369713
-0.0897468
-0.317193
0.0592805
0.0606707
-0.119951
0.320153
-0.295673
-0.0244761
-0.446555
0.269007
0.177551
0.451068
-0.160324
0.322063
-0.459117
-0.121377
0.306904
-0.185524
0.0202472
0.29991
-0.417833
0.45341
-0.035572
0.124731
0.147952
0.338549
-0.194299
-0.109679
0.294529
-0.184845
-0.0466999
0.117936
-0.0223239
0.237641
-0.521533
0.299284
0.222253
0.234676
0.131437
-0.366106
-0.207367
-0.108329
0.315696
0.211447
0.285204
-0.461932
0.17673
0.0758165
-0.0969247
0.285539
0.143205
-0.428725
-0.0849943
0.191912
0.196593
0.0128537
-0.398346
0.258625
0.139736
0.270935
-0.42877
0.157848
0.214681
-0.430825
0.216151
0.313047
-0.173035
0.145469
0.00480521
-0.150274
-0.0458848
-0.419075
0.165915
-0.314897
-0.172886
0.136451
0.00571357
0.177303
0.0652544
0.308458
-0.203316
-0.349968
0.215989
0.133981
-0.149993
-0.239946
-0.0471958
-0.0715169
-0.15993
0.380345
-0.220408
0.0640833
0.073379
-0.137462
0.0037566
0.121062
0.266344
-0.393774
0.127434
-0.275555
0.217806
0.0577496
0.124373
-0.425418
-0.0337467
0.459168
0.19356
-0.177376
-0.162981
0.448188
0.372321
-0.221313
0.148169
0.0975813
-0.292437
0.194859
-0.282431
0.322887
0.478805
-0.197778
-0.281026
-0.319819
0.45483
-0.134992
0.385461
-0.232812
-0.302383
0.355627
0.491487
-0.391103
-0.152761
0.41812
-0.159038
0.429986
-0.102138
0.367301
-0.132619
0.282358
0.153492
-0.435847
0.186402
0.0217374
0.272443
-0.20983
0.204593
-0.456551
0.251959
0.130205
-0.135758
-0.230571
-0.181814
0.255347
0.497166
-0.428777
-0.068388
-0.28864
-0.109693
0.0914589
0.0162983
0.277689
-0.517856
0.240177
-0.315199
0.439857
-0.124652
-0.255135
0.195969
0.0591673
0.501124
-0.320427
0.344005
-0.155961
0.207642
0.105604
-0.313242
0.213053
0.110427
-0.323474
-0.0983188
-0.192874
0.291193
0.269316
0.124288
-0.393591
-0.0159472
-0.129287
0.412131
0.0850366
0.341072
-0.00282691
-0.199023
-0.0398067
0.23883
0.0748377
0.0143304
0.0072084
-0.299425
0.0920579
-0.291389
0.475164
-0.0887214
0.324408
-0.235676
-0.230376
0.367094
-0.136717
-0.405489
-0.0392616
-0.0669596
-0.188173
0.100773
-0.393134
0.198708
0.274776
-0.473482
0.315332
0.00222471
-0.317556
-0.381288
0.13914
-0.211639
0.370353
0.421587
-0.0300527
-0.219582
0.286898
-0.189313
-0.0355487
0.326486
-0.290937
0.10888
-0.432989
-0.467971
0.329766
0.13822
-0.140877
-0.225231
0.36611
0.302387
0.142107
0.00336209
0.235397
0.0689075
-0.304301
0.295515
0.183291
-0.0103667
-0.00478666
0.0151533
-0.00462907
0.277072
-0.195773
0.491267
-0.295493
0.00484382
0.0765429
-0.463294
0.0437804
-0.107654
-0.297461
0.170876
0.491761
-0.242115
-0.0837906
0.291436
0.46998
-0.33992
0.115695
-0.352693
0.237007
-0.03289
-0.0685606
0.360689
0.130802
-0.276616
0.141863
-0.108546
-0.384208
-0.0307623
0.306762
0.13867
-0.445431
0.404952
-0.134461
-0.112888
0.177809
0.166197
0.23123
0.136946
0.276238
-0.0474046
0.453961
-0.311497
-0.142445
-0.41886
0.258468
0.330367
-0.0150351
-0.122151
-0.26885
0.391015
-0.0595092
0.11879
0.206085
-0.388388
0.182312
-0.255575
0.0791512
0.176426
0.157584
0.290431
0.354591
-0.148499
-0.140657
-0.3273
0.348689
-0.232986
0.185485
-0.163545
0.331416
-0.0960171
0.245794
-0.0649376
-0.180855
-0.203773
0.0271913
0.176583
0.136424
-0.391221
0.254801
0.221898
-0.375947
0.154063
0.38076
-0.239592
-0.141168
0.178719
0.246174
-0.424873
-0.329938
0.294389
-0.0255142
-0.426495
0.452042
-0.097122
-0.124901
-0.124001
0.287302
-0.476367
0.135238
0.500827
-0.340796
-0.160028
-0.410976
0.0911731
0.00216951
0.0394668
-0.0416363
-0.383521
-0.0508455
0.261822
0.16584
0.214577
0.0332438
-0.24782
0.300616
-0.151222
0.174027
-0.248732
0.427472
-0.201145
0.487691
-0.286534
-0.142874
-0.174012
0.316889
0.126098
0.263329
-0.389421
0.121309
0.345402
-0.114168
0.297055
-0.106017
0.240989
-0.369323
0.128342
0.0586035
-0.22317
0.109975
-0.0972186
0.232036
0.218807
0.135826
0.271629
-0.436737
0.165123
0.269502
-0.43891
0.169411
0.384569
-0.24814
-0.139166
-0.26226
0.401438
-0.318238
-0.18016
0.200755
-0.311594
0.110843
0.154396
-0.286963
0.190581
0.289546
-0.480123
-0.122917
0.0555652
0.0673514
-0.000415703
0.13734
-0.368434
-0.151056
0.482255
0.186615
-0.151806
-0.0348082
0.0227235
-0.288405
0.265685
-0.217565
0.113088
0.104477
-0.287828
-0.123432
-0.141342
0.264778
-0.00801269
0.0195914
-0.338073
-0.156879
0.49497
0.438107
0.323462
0.173541
-0.0922099
-0.201739
0.280526
-0.432771
0.152247
0.167948
-0.432129
0.101156
-0.186149
0.473495
-0.208387
-0.265108
0.43635
-0.293091
-0.143256
0.15327
0.0333445
0.0302049
0.00179061
-0.0319955
0.000522372
-0.0167557
-0.326593
0.187831
-0.316466
0.172913
0.14356
0.090695
0.192933
-0.283619
0.252357
0.0277227
-0.280079
0.206151
0.294976
0.52927
-0.219391
-0.309874
0.174116
-0.187545
0.0134302
0.278924
-0.376048
-0.04178
-0.175963
-0.00889313
-0.0123433
0.164748
-0.237858
0.0731118
0.0411454
-0.33426
0.293117
-0.166791
-0.31428
-0.179794
-0.0757798
0.354012
0.0823395
0.248526
-0.337237
-0.0719368
0.372545
-0.131549
0.251596
0.0438052
-0.295398
0.528412
-0.199903
0.259087
-0.134352
0.231424
0.106014
-0.337435
-0.3563
0.37096
-0.014659
0.256437
-0.24666
-0.00977329
0.251968
-0.399928
0.147974
-0.283511
0.40277
0.417428
-0.110665
-0.21728
-0.304248
-0.285783
-0.202621
0.488408
0.00079483
-0.221469
0.220677
0.432546
-0.163041
-0.0823082
0.342552
-0.260243
0.0027277
0.0301049
-0.290345
0.411413
-0.121067
-0.072274
-0.021406
-0.433231
0.163148
-0.300561
0.341709
-0.109794
0.0246853
-0.406432
0.122921
0.237409
-0.362899
0.125497
0.094274
0.190908
-0.144292
-0.196639
0.287343
-0.172375
0.173172
0.271515
-0.248788
0.108727
0.191081
0.207637
-0.0296142
0.294969
0.234306
-0.509939
0.186004
0.323942
-0.265926
0.312756
-0.0468294
0.194154
-0.363555
-0.0696758
-0.291225
0.509167
0.315237
-0.114477
-0.422126
0.269839
0.130898
0.211457
-0.352333
0.230285
-0.155574
0.0433612
0.0315011
-0.0748623
0.249382
0.135584
-0.221011
-0.152214
-0.282159
0.145957
0.252748
-0.398694
-0.147473
0.413457
-0.147109
0.177334
0.169579
0.300401
0.164479
-0.188028
0.0235491
-0.0755215
0.32712
-0.156172
0.377862
0.446871
-0.0453178
-0.210772
-0.0968017
0.307579
0.157448
0.248975
-0.406415
0.426387
0.0256093
0.159876
-0.033036
0.0352055
-0.153969
-0.242473
0.0194352
-0.105857
0.270033
0.143429
-0.00759363
-0.00897412
-0.089872
0.0380564
0.0518155
-0.00693678
0.0371417
0.145639
-0.0789128
-0.0667264
-0.0996543
-0.0116554
-0.322148
-0.32652
-0.126224
-0.134807
0.13888
-0.00407283
-0.247378
-0.415366
0.247144
0.250692
0.135923
-0.386605
-0.137778
-0.0341474
-0.231777
-0.157129
-0.137052
-0.376117
0.0377786
-0.35623
0.0457582
0.0580133
-0.219673
0.109057
0.110616
-0.406123
0.0777394
0.328384
-0.141383
0.132495
0.00888797
0.201644
0.129253
-0.330896
0.423378
0.14752
-0.409495
0.261979
0.127008
0.267838
-0.39483
0.097454
-0.123233
0.123179
0.374242
-0.447392
0.21878
-0.0323771
0.208718
-0.115591
-0.00719508
0.0201269
-0.0171443
0.00422938
-0.04605
-0.14624
0.192291
-0.0385288
0.210161
-0.171632
0.201346
0.232213
-0.00572612
0.25505
0.00138983
0.242225
0.239698
0.222049
-0.354991
-0.220136
-0.106455
-0.00488224
0.126148
-0.121266
0.00164412
0.222642
-0.063832
-0.334807
0.350326
-0.427865
0.379764
-0.0596822
-0.0632344
-0.277759
-0.116013
-0.164883
-0.313955
0.171084
0.28332
0.190176
0.434616
-0.418655
-0.0159206
-0.457153
0.243983
0.21317
-0.28303
0.159603
-0.456993
0.247511
0.209482
-0.316089
0.482626
0.304284
-0.155516
-0.148765
-0.281274
0.0867902
0.194485
-0.193106
-0.0068054
0.0166139
-0.00980854
-0.227429
0.234705
-0.325708
0.0910039
-0.0402729
-0.0381356
0.0784085
-0.208842
0.178868
0.029975
0.159699
-0.173231
-0.184679
0.357911
-0.0169394
0.367266
0.25119
0.135286
-0.386466
-0.15984
0.425779
-0.265916
-0.234124
-0.241549
-0.186807
-0.27655
0.505925
-0.208001
-0.297921
0.103158
0.0421157
0.230653
0.141048
-0.3717
-0.161683
0.0242066
0.169354
0.182899
-0.208183
0.0252842
0.194
-0.0198836
-0.304733
0.100123
0.204613
0.195343
0.104901
0.278757
0.107625
-0.386382
0.10834
0.195947
-0.139764
-0.250402
0.390171
-0.258687
-0.150769
0.409466
0.198873
0.0911928
-0.331941
0.481026
-0.149074
0.00420281
0.104369
-0.108571
0.179783
0.278429
-0.458204
-0.142572
-0.060718
-0.346465
0.407183
-0.25435
-0.173929
0.428283
-0.126987
0.306201
-0.26842
-0.479602
-0.0804236
-0.175248
0.255674
0.256034
0.126703
-0.382731
-0.411456
0.141615
0.328946
-0.0704496
-0.0789433
0.269785
0.099681
-0.369461
0.243354
-0.475006
0.231653
-0.0327075
-0.0979422
-0.104536
0.30618
-0.0284996
-0.00877872
0.0372783
0.163988
0.0804304
-0.244417
0.451979
-0.291171
-0.160798
-0.427563
0.0956359
-0.0725607
0.0322878
-0.170645
0.141229
-0.282317
0.478254
-0.2349
0.231377
-0.16719
-0.064186
-0.106585
0.485344
-0.16328
0.472287
-0.185278
-0.287
-0.168654
0.460968
-0.292302
0.382566
-0.256463
-0.276164
0.360062
-0.0838909
0.314642
0.131987
-0.446627
0.420341
-0.148821
-0.201052
-0.172527
0.131251
0.267601
-0.398837
0.469742
-0.145887
-0.213891
0.461307
-0.247417
0.247816
-0.459696
0.21188
0.240362
0.265566
0.403007
-0.146968
-0.430868
-0.00908711
0.439957
-0.0422144
0.0427786
-0.100478
0.0576993
0.222684
-0.408588
-0.0430629
0.0864241
0.437665
-0.175843
0.17172
0.0359172
-0.0470933
-0.418244
-0.083939
-0.176877
0.165625
0.0112528
0.00795374
-0.0205954
0.0126416
-0.145748
-0.264637
0.410395
-0.184943
-0.0985128
0.283457
-0.320688
0.138067
-0.00287693
0.249683
0.168698
-0.397317
0.228619
0.406689
-0.260721
-0.144432
0.448074
-0.361301
-0.0149484
-0.169577
0.0022142
0.0879006
-0.0329914
0.129573
-0.096582
0.109683
-0.335448
-0.487058
0.277238
0.457496
0.496902
-0.344812
-0.152086
0.100021
-0.331571
0.231552
-0.277204
0.393917
-0.116695
0.0382377
-0.0311395
0.174356
-0.143216
-0.0995752
0.387981
-0.121183
-0.391449
0.255752
0.303069