/*--------------------------------*- C++ -*----------------------------------*\
| =========                 |                                                 |
| \\      /  F ield         | OpenFOAM: The Open Source CFD Toolbox           |
|  \\    /   O peration     | Version:  v2012                                 |
|   \\  /    A nd           | Website:  www.openfoam.com                      |
|    \\/     M anipulation  |                                                 |
\*---------------------------------------------------------------------------*/
FoamFile
{
    version     2.0;
    format      ascii;
    class       volScalarField;
    location    "900";
    object      ddt0(k);
}
// * * * * * * * * * * * * * * * * * * * * * * * * * * * * * * * * * * * * * //

dimensions      [0 2 -3 0 0 0 0];


internalField   nonuniform List<scalar> 
18758
(
-1.28409e-07
0.00117202
1.9161e-08
-0.00624025
-0.00173428
0.00356565
-5.59991e-05
2.66589e-08
7.09539e-06
-8.2025e-08
-1.19528e-07
-0.00182386
1.46895e-08
-7.90133e-06
1.81541e-07
2.00471e-05
-4.34767e-07
-3.84564e-09
3.67177e-08
-9.14758e-08
-0.00100608
-1.18781e-09
-0.00024978
-0.000301324
0.00135883
2.64472e-08
-7.54539e-07
-0.00028767
0.00584808
0.00359981
-2.25883e-06
-0.00306933
4.57384e-09
1.99411e-08
-2.95394e-06
3.64987e-09
3.65489e-09
-8.07314e-08
-8.86041e-08
-4.38317e-07
-7.7127e-08
1.59103e-09
-1.15908e-08
2.96204e-08
-0.00166599
1.33014e-08
-6.56355e-05
-1.33488e-07
-8.03982e-08
-1.59862e-08
2.96625e-07
-0.00517034
-4.22162e-09
-1.15611e-07
-0.00010049
0.0116107
3.52534e-09
1.2349e-05
4.43061e-08
-8.40522e-06
9.00213e-08
-4.27604e-05
1.01888e-06
8.28569e-08
-3.32271e-09
-1.07423e-08
-5.48056e-07
5.51417e-09
-7.17967e-08
-0.0050474
-0.00436997
8.51955e-08
-1.65448e-08
0.0123181
2.00127e-08
5.71825e-08
5.29834e-06
-0.00243313
9.33972e-07
-4.50761e-05
-3.93519e-05
-0.000684789
-9.70722e-06
0.00317615
6.18629e-06
-6.936e-08
-0.000725975
9.06876e-07
-2.07193e-06
7.1548e-08
0.00319342
4.32249e-08
-0.00122574
5.70365e-10
0.000371098
-0.000918414
4.66938e-06
1.70104e-08
-1.49515e-08
-0.00161414
-1.044e-07
0.002851
-8.07569e-07
-8.49396e-08
-0.00291668
-0.00248582
-0.014205
-0.0027024
-1.13717e-07
4.98399e-08
-0.00128201
4.67337e-05
2.18819e-08
8.9662e-08
-0.00578031
0.00127667
0.00177404
1.79302e-07
-0.000774898
0.00062988
-4.3813e-08
-4.3861e-08
0.00223865
-3.55497e-06
-9.30821e-05
0.00303031
0.000244536
-1.07183e-05
-0.000894936
3.08298e-08
-4.84652e-07
-3.58731e-06
0.000394237
-1.57636e-07
-1.77826e-05
3.80691e-08
4.60044e-06
-5.04769e-07
-1.51463e-09
-4.60341e-08
3.53453e-07
1.05077e-06
1.26546e-07
0.00629748
-7.6634e-08
6.34213e-08
0.000464949
-0.00293729
-2.33769e-06
-0.0105917
-0.00217316
-0.0118432
-7.20022e-08
1.30946e-09
0.000547109
-9.72975e-08
-0.000387782
-1.32595e-07
1.21521e-07
-9.56259e-12
4.19945e-08
-7.34278e-06
-0.000684874
1.20047e-07
1.29188e-07
0.0052292
2.22398e-08
-2.33265e-05
5.95077e-06
0.00276486
0.00180058
-5.13828e-09
-0.00119913
-0.0006442
-8.11737e-06
-0.000113974
0.00179491
7.73282e-08
-2.89335e-07
-7.48771e-08
1.28836e-08
0.000853869
-0.00722305
-1.92084e-08
8.9427e-08
-0.00128852
-1.54483e-08
0.00137447
-9.98024e-09
-4.44003e-08
-1.05755e-07
1.83254e-05
3.95789e-08
-2.05706e-06
-1.05491e-07
1.13747e-06
-9.84141e-08
1.69046e-07
6.75207e-09
-1.1657e-08
-6.94834e-07
-1.3112e-07
-1.0442e-07
4.02294e-07
1.48076e-08
-7.99636e-08
-5.46925e-07
6.74664e-10
-0.00142464
-7.06765e-08
-6.52062e-09
-8.09831e-08
1.18167e-07
-9.66748e-08
1.07961e-06
-0.000642706
-3.04451e-06
-1.3181e-05
9.58172e-09
0.00338066
-6.85899e-09
-1.14711e-07
-6.44844e-07
0.00013495
1.31642e-05
-6.16169e-07
8.59418e-08
3.99051e-08
-2.05172e-08
3.79288e-07
-1.39356e-08
9.67765e-07
-1.45136e-06
4.21948e-06
1.29493e-08
-2.58516e-08
-2.09127e-08
2.03696e-08
0.00288929
-9.38465e-08
2.76946e-08
2.0518e-06
-0.0140067
-5.42442e-08
-0.0112684
-0.000821115
4.83648e-06
2.5738e-09
0.000194982
-4.61662e-08
1.07344e-08
-0.000281745
-6.79196e-08
-4.42158e-08
1.36988e-07
-4.45217e-08
-2.68991e-05
-2.16038e-05
-1.06871e-07
-3.861e-07
2.33758e-08
-6.52467e-07
7.46885e-09
3.82767e-07
-7.98137e-08
-9.84061e-07
7.32165e-05
1.28642e-08
-1.1347e-07
-6.70525e-07
-1.10164e-07
8.50191e-08
4.1728e-07
0.00511371
0.00155582
1.2994e-07
1.73814e-07
0.00320862
-0.0008461
3.25592e-08
-2.84748e-08
-1.14346e-07
-9.23106e-08
1.25438e-07
0.00301182
-0.00046991
0.0116923
0.000665963
-0.000208423
-2.08428e-08
2.21811e-08
1.98573e-07
-0.00101839
9.24604e-09
-1.77441e-07
5.29103e-07
-1.20017e-07
0.000271453
2.87822e-08
0.00810816
0.0032063
1.67319e-08
-0.00484377
-1.85606e-08
-7.43359e-08
-1.09482e-07
4.26526e-07
1.3906e-07
7.93855e-09
-6.99279e-05
0.0128165
-4.47586e-08
-0.000121148
0.000472677
6.25438e-06
-2.96586e-09
2.45132e-08
-0.00418808
-5.83368e-08
-1.99331e-08
-3.7018e-08
1.99929e-08
-9.33733e-07
4.20659e-07
-1.16233e-07
-1.02978e-07
-8.61173e-08
1.06898e-07
1.71993e-08
-6.60156e-10
-5.33021e-06
-1.12368e-07
6.37628e-07
-0.00606324
-4.05898e-08
3.65393e-08
6.64078e-08
0.00843027
-0.00485384
-2.16432e-08
-6.36882e-09
-2.1755e-08
4.19801e-08
-4.81775e-07
8.36542e-06
-4.63427e-08
4.29098e-08
-1.93885e-08
-6.16896e-06
7.45444e-07
4.98105e-06
3.08785e-07
7.79367e-08
1.05317e-05
3.03774e-07
-7.6874e-08
1.24688e-08
-0.0014642
-0.000558429
-0.00323909
1.19096e-08
-1.02548e-07
0.00311533
0.00477772
-8.6931e-08
-2.09319e-08
5.96107e-08
-1.42455e-08
-6.79603e-08
0.0039597
0.00124252
-4.8095e-06
-7.98061e-08
0.000137714
6.93319e-08
-1.29778e-07
8.7401e-08
-9.94122e-08
-2.87999e-06
-1.11684e-07
-8.52723e-05
6.75224e-07
1.29019e-07
-4.3402e-08
0.00182409
-4.5668e-06
5.11237e-06
6.02036e-08
-1.39995e-06
-2.7897e-08
2.0047e-08
-4.27992e-08
1.70475e-08
0.00161414
-0.00174974
0.00137261
-0.000982037
3.1485e-08
2.33676e-06
-0.00339034
-4.67761e-08
2.30483e-08
-0.00695016
-4.4676e-08
7.80122e-08
1.49497e-08
-2.91263e-06
-5.52399e-08
-4.70618e-08
3.35794e-07
0.00313939
-3.44205e-08
-0.00176841
-2.10221e-07
2.21789e-10
1.87768e-08
6.20947e-08
-7.16841e-09
-1.17804e-07
-4.58334e-07
-2.12351e-07
3.62897e-05
-5.3849e-08
2.95011e-09
1.09208e-07
-0.00750629
0.00224923
0.00175523
-3.41678e-06
4.52649e-08
1.69831e-08
2.23773e-08
1.2364e-07
-5.00848e-06
-3.17537e-07
-1.71919e-07
-1.09888e-07
-6.8953e-08
-0.00481396
-7.83818e-07
5.42927e-08
-1.01217e-07
-1.36612e-06
6.71257e-08
0.00186449
5.49624e-08
2.71817e-10
-0.00303871
-1.6359e-08
-1.0724e-07
-3.01571e-05
-2.80147e-06
1.30521e-07
-0.000767808
5.5589e-08
8.35772e-08
-2.94417e-07
-0.00148
7.95789e-09
-2.17207e-08
-8.60184e-06
-0.00167684
0.000791955
-7.80474e-06
7.83995e-08
1.27236e-06
1.08935e-07
-5.0443e-06
-1.11376e-07
-0.00112257
-1.38382e-06
0.00113177
-1.62274e-07
-2.83482e-06
1.76714e-08
-0.000369657
-1.42063e-08
-0.000152639
9.02786e-08
-8.88912e-06
1.64058e-08
0.00187128
-7.6551e-08
2.10065e-08
-1.63442e-08
1.63295e-08
-0.00904751
0.000670367
-0.00562767
-5.95137e-07
1.01674e-07
4.53024e-07
6.93793e-10
-1.02085e-09
-0.00507164
-1.63174e-08
1.15117e-09
9.87664e-07
1.33817e-08
9.73138e-09
4.52656e-07
-1.40223e-09
-5.43796e-08
1.89212e-09
7.62774e-08
-9.1605e-08
-0.0119875
-1.62082e-08
-1.65724e-08
-1.22439e-07
4.55732e-09
4.42602e-06
4.78775e-08
-1.14404e-07
-7.3337e-05
0.00157237
-2.62977e-06
-0.00542829
-7.50179e-08
-1.1465e-07
0.00163508
2.69694e-08
0.00162723
-2.04132e-06
2.13594e-08
-0.0118496
2.84256e-05
4.04527e-08
4.15623e-08
-6.40984e-08
-0.00536437
-8.03724e-08
-6.04002e-08
1.78591e-07
1.32205e-07
5.92713e-08
1.63972e-08
-3.34827e-10
0.00479101
-7.98566e-08
0.00492923
-4.1713e-08
1.28129e-06
0.00277659
9.39925e-09
-1.08678e-08
-9.34498e-08
8.09182e-09
1.53557e-08
4.45705e-08
-6.90018e-08
9.27235e-07
-2.01674e-05
-8.42268e-09
-0.00537258
-0.000159978
3.60866e-08
4.13245e-07
-0.000218658
1.17454e-08
4.63234e-08
-5.77571e-08
-0.00439235
-8.21771e-08
-9.11763e-07
1.193e-07
6.34633e-05
-1.12719e-07
2.13523e-06
9.71235e-07
-5.40339e-05
-9.18581e-08
1.00354e-07
9.48171e-08
-0.00150444
3.24521e-08
-3.1859e-06
9.73859e-08
-0.0130698
-3.25404e-09
-5.02047e-08
1.81318e-08
1.24706e-08
-0.000693215
-0.0124723
5.78075e-08
-1.27905e-05
1.41684e-07
0.000696276
0.000405106
-0.00339245
0.000602641
7.1874e-08
-0.00045696
-2.1272e-06
6.38112e-08
-5.60115e-07
-0.00496977
-0.0015647
1.31065e-08
2.89811e-08
8.80876e-08
8.90855e-09
-0.00294048
7.04622e-07
-0.000420551
-0.00300547
5.22688e-08
7.31116e-09
-5.71002e-08
-9.72829e-10
4.03231e-08
4.61852e-08
1.66779e-07
9.82469e-07
-1.06302e-07
6.56858e-07
-0.00306158
-7.15202e-08
1.81636e-08
-1.4786e-08
1.41383e-07
-0.00449627
-7.87355e-07
0.00935604
2.34843e-08
6.87263e-08
-1.53818e-05
-0.000961005
2.40191e-08
-2.27806e-08
-3.24886e-06
0.00299636
-9.25403e-07
1.20386e-08
-3.27674e-05
0.000811913
-0.000530079
-1.73509e-08
-2.74001e-05
-0.000101574
-0.00053557
-1.08954e-07
-9.82306e-10
-0.0024423
-5.95564e-11
-3.77939e-06
0.00172763
5.53235e-06
-4.95413e-05
-1.22324e-06
-0.00224692
-4.19172e-07
1.21106e-07
2.33632e-08
0.00128816
-0.00262428
-0.000105998
-0.000542041
3.29158e-08
-3.71309e-06
-3.65871e-10
6.90776e-08
-1.97852e-06
-2.41364e-07
2.11324e-08
1.07655e-08
4.0183e-06
-0.00523791
0.00135636
-0.000145097
-7.65698e-08
-1.03904e-07
2.55773e-06
4.75943e-08
-2.28131e-08
-6.07546e-08
1.83624e-07
-2.49307e-06
1.93248e-09
-1.92816e-06
9.97437e-09
2.06701e-08
-5.62525e-09
-0.00136139
5.35508e-08
1.49914e-09
-1.19479e-07
-9.13229e-09
-7.62976e-09
0.00143566
-5.78451e-09
2.8474e-08
2.92335e-08
-1.83636e-07
9.7727e-08
-6.8586e-08
0.0119072
5.69446e-08
-1.12655e-07
-0.00108224
-1.18203e-07
-0.00634867
-8.80541e-07
6.55801e-07
-0.000402334
-0.0026396
-2.28093e-08
-0.00459135
-8.99268e-05
2.69862e-08
-0.000693594
1.48918e-08
-4.31056e-09
-6.56267e-08
-1.55965e-09
-6.36606e-07
-0.00442539
-1.28506e-08
-0.00070305
6.37199e-08
-4.86077e-08
-0.00206568
-6.93538e-09
0.00241805
-4.44958e-08
-3.7953e-08
-4.06901e-08
-6.15512e-08
3.70791e-06
-5.87844e-07
0.0012282
-8.8781e-08
0.0037565
-3.52483e-08
1.38983e-09
1.82315e-06
-0.000117671
-0.000360448
-1.04551e-06
-4.8332e-06
-2.18184e-06
-1.27556e-07
3.70936e-06
-4.54605e-08
0.00577356
1.2713e-08
-2.19626e-05
2.758e-08
-6.6809e-07
1.70289e-09
-1.05695e-07
0.00641876
1.97975e-08
3.40888e-08
0.000586705
-3.94025e-08
-5.80025e-09
-3.15851e-07
3.59725e-07
9.3202e-06
0.00167476
-0.0068172
0.00211688
7.95776e-09
-2.00621e-09
-0.000360628
-2.71955e-08
-0.000856656
-1.2679e-06
-1.17116e-07
-1.29325e-09
-1.0798e-07
-2.6818e-09
-4.05249e-08
-3.52521e-08
-0.000417298
1.59723e-06
-4.97469e-06
-2.61817e-08
1.10653e-08
-1.12073e-06
0.00125972
1.82997e-09
-2.15746e-06
-6.27208e-08
-0.00456648
5.58447e-08
6.9736e-05
1.38246e-08
-5.61131e-05
3.97226e-10
-4.85613e-07
6.70819e-08
1.79162e-07
6.37849e-08
-7.57724e-09
2.34454e-08
-5.6262e-09
-0.00906203
0.000684658
-1.4834e-07
0.00246412
6.13565e-08
-3.27705e-07
-9.31676e-08
2.44969e-06
-0.00012504
-1.57579e-07
-1.28805e-08
-2.36711e-07
8.93738e-09
5.39578e-08
-8.10914e-08
0.00162148
0.00449046
0.000345904
-0.00477488
-1.12587e-06
1.64522e-08
1.15403e-07
0.000618278
-5.11839e-09
0.000464105
-4.26705e-08
-1.45493e-11
-0.00434971
0.00240193
1.67558e-09
0.00129401
-1.22554e-07
-5.56717e-06
5.13592e-07
-0.00497401
0.00250057
-0.00115174
1.63008e-08
2.94867e-08
-0.00339544
1.30932e-07
-6.97933e-08
-5.52427e-08
1.28751e-07
-0.00607356
-9.57241e-06
-2.27582e-08
0.0036279
-1.96185e-07
-2.99363e-06
-6.03386e-08
1.08908e-08
-1.52129e-09
2.0598e-08
0.00165189
-0.00262319
-5.88273e-05
-2.0884e-09
-1.14529e-08
-3.9079e-09
6.55335e-08
-6.37577e-08
-3.05047e-08
-0.00167671
-0.00519589
-1.74804e-06
4.3654e-07
-4.62954e-05
-6.56706e-08
1.65722e-06
1.16745e-07
-0.000134435
-5.84818e-05
-0.000558991
-0.000767488
1.64987e-07
-3.55961e-08
-0.0029391
0.00360298
-0.00082543
4.75204e-07
1.73929e-07
0.00186324
1.19981e-08
7.98347e-07
1.3571e-05
-5.28199e-06
1.28666e-08
-7.60274e-08
-1.26018e-07
-0.00265656
-2.92624e-06
-1.68727e-06
-4.49191e-08
1.7423e-07
8.50615e-08
-0.0702727
-1.03524e-07
-9.45672e-05
-2.00829e-08
7.88948e-08
-7.5989e-06
-1.48913e-09
1.58856e-09
-1.22591e-07
-7.45048e-08
9.87951e-09
-4.81532e-08
-1.88056e-08
-0.00651611
0.000781306
-0.00341928
-2.09472e-08
-1.40529e-07
-2.64363e-09
3.67136e-06
7.52914e-06
-1.00411e-07
-2.34757e-08
7.16349e-08
1.62763e-05
1.37151e-07
-6.44272e-08
0.0014543
-5.37671e-06
4.45851e-08
5.88583e-08
-0.00504745
-3.77654e-06
-1.55215e-08
1.31643e-09
0.000446438
1.02762e-08
-4.68729e-08
-2.95102e-09
0.000126925
0.000385581
8.04701e-10
6.68007e-08
0.000402332
1.11128e-07
-0.0131418
0.000712949
-1.25119e-06
4.46239e-08
5.23749e-09
-4.10342e-09
1.45667e-08
0.000645015
0.00482914
-1.46809e-09
-9.90616e-08
-0.00102395
4.38555e-08
-5.00544e-08
0.00186293
-3.56325e-08
-0.00209589
-3.84998e-09
-3.32482e-08
4.76096e-08
-6.37984e-08
8.08719e-08
1.15427e-08
0.00166294
-1.04825e-07
-1.00033e-09
-6.417e-07
-1.23475e-07
-7.54787e-10
5.37091e-08
-9.63135e-08
9.35502e-09
1.17676e-06
9.48415e-09
-7.00734e-08
-7.98198e-05
-4.77869e-06
-6.53653e-08
-7.3844e-06
-3.4894e-06
2.8544e-07
-4.33945e-08
-9.85463e-07
0.00583788
-1.33759e-07
-9.46778e-09
-5.5856e-08
-1.54569e-08
-1.31828e-09
-9.03119e-07
-9.3572e-08
-9.44918e-07
1.40106e-08
-7.07996e-08
-2.16439e-06
6.25235e-05
3.10566e-07
-3.57418e-08
4.42401e-08
-6.22082e-08
9.00327e-07
3.62274e-08
0.00082966
-4.97838e-08
1.25386e-07
4.44167e-08
6.29665e-06
0.00348081
5.62386e-09
-7.27683e-08
-3.36508e-09
-1.1705e-06
1.31303e-08
-3.60569e-08
-0.00351388
1.09545e-09
-1.14844e-08
1.67035e-08
-6.12423e-07
1.74249e-08
-5.39137e-08
-0.00151761
0.00514556
4.5584e-06
7.68172e-07
0.00303908
-2.43469e-07
-5.81643e-08
-2.9193e-08
0.000906316
-3.58639e-08
-5.52973e-07
-1.27771e-06
-6.65073e-08
6.47307e-09
1.15643e-07
-8.19298e-08
-2.35776e-09
4.74689e-09
-9.52703e-06
-0.00425189
-8.11412e-08
1.77505e-08
-0.0137503
-6.04336e-07
-9.47674e-05
-0.000295135
-5.34608e-06
1.35422e-08
6.30932e-08
3.30229e-08
-1.20619e-06
1.65171e-08
8.20929e-08
0.003794
-2.75023e-06
-7.95524e-07
-3.06001e-08
3.51145e-09
3.04015e-06
2.09417e-08
-7.61748e-08
-1.10381e-07
7.90537e-07
-5.21446e-07
8.03991e-08
-1.23205e-07
-5.84644e-08
1.19642e-08
-7.08609e-08
4.64044e-08
-0.0220045
6.74991e-08
5.90704e-07
-4.72462e-08
-7.72348e-08
0.00360853
-0.00585545
-0.000397729
9.55679e-09
0.00067088
1.51306e-08
-5.65381e-08
-1.12733e-07
3.97233e-07
2.467e-09
1.34002e-08
-7.88182e-08
-1.28578e-06
1.08904e-08
-5.15081e-09
2.87779e-08
5.27831e-10
0.000257956
0.000826062
6.44773e-05
-2.47954e-08
0.000434122
1.39282e-07
5.53319e-09
-1.64156e-07
1.12273e-08
4.70854e-07
-1.12547e-07
-4.55476e-08
0.00134455
0.000893627
0.0032702
9.26144e-08
0.000658931
-4.59424e-08
-0.00306591
0.00141328
3.01661e-08
-9.62063e-07
-1.10118e-05
3.68852e-09
9.21973e-09
5.52252e-05
1.10771e-07
2.886e-09
5.19806e-06
0.00117685
1.49813e-08
-6.47249e-08
5.84982e-09
-5.17391e-08
-4.13865e-07
4.81577e-09
0.00197259
-4.91012e-07
-3.06266e-09
-0.0001445
-9.17441e-08
-5.00844e-07
1.12483e-10
-2.00552e-05
8.67596e-08
-0.00276343
-4.66551e-08
4.5169e-08
0.00290305
2.72501e-08
0.00340475
-3.12817e-09
4.59435e-08
-0.000424016
-0.00548754
1.22661e-07
8.68986e-08
5.7344e-09
5.39261e-08
-1.27054e-07
6.22501e-09
5.0607e-09
-9.81875e-05
-1.35838e-08
-2.48272e-08
1.32044e-06
-4.33713e-07
-8.53583e-08
1.43335e-08
0.000803097
4.10571e-07
-9.74225e-08
-5.88996e-08
-3.30685e-08
-4.20415e-08
0.00349372
7.9397e-09
4.49654e-08
-2.19879e-08
0.00365363
2.70683e-08
9.22798e-08
-0.00141437
-6.1435e-08
0.000846727
-1.75767e-07
8.64954e-09
-2.40805e-09
0.000490776
1.51237e-07
-3.58071e-09
-0.00176054
0.0016534
1.86854e-08
-0.00338949
3.27118e-07
6.20426e-08
4.06612e-08
-6.13895e-08
-1.89599e-09
0.00645699
-1.02965e-07
1.32786e-08
0.000395489
-0.00117705
2.86281e-06
3.4535e-09
-0.00293843
-8.31665e-08
1.92143e-05
-0.00573828
2.38085e-08
-0.00257032
-8.07e-10
4.70761e-08
1.61858e-07
-0.00527766
2.69908e-08
1.18362e-07
0.00258603
-1.10498e-09
2.11162e-08
2.79371e-08
1.27233e-07
0.00201106
3.40014e-07
-4.57779e-09
-7.41308e-08
0.000385627
5.23861e-08
-1.29294e-07
9.07756e-09
-1.20508e-06
3.47336e-08
-5.20804e-08
-5.26888e-08
1.2245e-08
-1.08971e-07
3.957e-09
-8.93546e-08
-1.22675e-07
0.00098397
1.16732e-08
0.00390587
9.30205e-08
6.77349e-09
1.74697e-09
-8.22845e-08
1.2742e-07
-6.47316e-08
-0.00233683
0.00286615
-1.33686e-07
2.20681e-08
0.00700431
-1.22397e-07
0.00288751
-8.2869e-08
-5.64811e-07
-0.00122386
-8.02312e-05
-0.00400819
1.37402e-07
6.8255e-08
1.5534e-08
-0.00500076
-2.07582e-08
4.21893e-09
-1.13911e-06
6.93137e-08
-3.16e-10
1.41344e-08
0.000201025
-0.000148841
1.8323e-09
1.65331e-06
-0.00490844
-3.91508e-08
1.5624e-08
9.55335e-08
-0.00354335
2.75286e-08
-4.88007e-06
4.70899e-10
9.97609e-09
7.5302e-08
4.12945e-08
-5.87066e-07
-1.94038e-08
2.21005e-08
-4.80622e-08
8.40815e-09
7.69509e-06
4.26354e-10
-5.36091e-08
6.43992e-08
-3.76667e-08
-6.04879e-07
-0.000251518
-1.19559e-07
4.68877e-08
3.18462e-08
-1.14119e-09
-3.18583e-09
-0.00373566
-4.91648e-09
-1.06211e-07
-1.46397e-07
-0.00156065
-2.99516e-11
-4.0895e-08
0.000435524
8.10704e-09
1.06253e-06
3.98865e-07
-1.09504e-07
0.00203522
-0.00429887
1.33668e-08
-0.000108037
-9.06297e-08
-5.62822e-06
3.57106e-09
-0.000436973
1.29869e-08
0.00357743
5.8141e-09
9.33674e-08
-0.000522644
5.96203e-05
5.73315e-05
-2.26893e-06
-3.61304e-08
-0.00986213
3.29579e-09
-0.000835083
-1.37939e-07
5.62978e-09
4.0545e-09
7.33631e-08
2.04845e-08
1.20219e-07
-0.000742453
-4.5983e-07
5.27432e-08
1.71977e-08
6.25513e-08
0.00111235
5.09989e-07
-7.05807e-08
9.88279e-09
-3.59996e-08
-8.08059e-08
-8.84269e-06
7.55964e-08
-1.10797e-07
-8.32549e-07
-1.35454e-08
-2.35976e-08
1.82768e-08
5.41182e-09
-1.13295e-06
-1.35158e-07
-5.10815e-07
-1.95585e-08
6.60127e-11
0.00180347
-6.84116e-08
4.52427e-07
-0.000382616
-5.36403e-09
0.00147321
0.000227867
-1.671e-07
-0.00379635
-6.38098e-08
-0.00205783
-0.00810551
-3.32564e-06
1.15954e-08
0.00370703
-4.57751e-07
4.68032e-09
-1.49486e-07
-0.000664568
1.39184e-08
-9.93062e-11
-8.0201e-08
9.8946e-10
0.00123655
-1.55713e-07
7.92607e-08
3.063e-10
-8.34464e-09
9.76422e-07
-1.87283e-07
0.00127736
-3.5477e-06
-0.00336679
1.01628e-07
-1.40557e-09
-6.267e-08
0.000485852
0.011698
-2.67043e-08
1.11966e-07
8.45754e-07
6.71908e-08
8.80908e-08
2.90665e-05
-0.0026685
-3.2595e-08
7.03082e-08
-0.00128024
4.08273e-08
-0.00468717
-7.26633e-05
-2.45255e-08
-0.0077961
9.07011e-08
-3.40781e-06
-4.72375e-08
0.000295909
1.29788e-08
-3.04078e-05
1.86717e-10
-2.30661e-07
1.24676e-07
2.20399e-08
0.00399707
8.19107e-08
6.60539e-08
-1.22858e-07
-0.00141507
2.081e-08
-1.40467e-09
0.000421032
1.72429e-08
-4.47994e-09
1.19124e-08
1.72048e-07
7.36413e-09
-3.83679e-10
-6.77926e-08
9.7949e-10
4.8122e-08
-1.00078e-08
-7.36916e-07
-0.00298176
-1.28716e-06
-0.00244608
1.99055e-08
-1.38679e-08
1.53639e-08
9.05513e-09
-5.39107e-08
-0.00275874
-0.00329599
-6.59095e-08
5.54662e-10
-5.21218e-08
-0.00975323
-2.82067e-09
2.17788e-06
-0.00102144
-0.00368075
0.00344698
0.000270234
-0.00246064
1.36245e-08
0.00397088
0.00122398
0.00297299
-6.12853e-08
4.05856e-08
-6.51626e-07
7.05248e-09
0.0121509
-1.32301e-06
3.09405e-08
-1.15001e-07
0.00162532
-2.4757e-09
1.59542e-08
-0.000912948
-2.01686e-07
5.49359e-08
-1.61652e-09
-7.36454e-07
8.68682e-09
0.00395486
-0.000165454
0.00120383
-0.00407359
-1.50621e-06
0.000200037
2.81655e-08
5.27429e-06
2.11923e-08
-5.54539e-08
-1.25312e-08
-0.00322857
-8.23174e-08
-1.37845e-08
0.00337
-0.000100496
-2.77912e-05
6.4126e-07
-1.0327e-07
-7.41248e-08
0.00141628
0.000454791
-0.00298998
-0.000244152
3.65019e-07
0.00344311
-1.29538e-06
-7.15267e-06
-6.34012e-09
-6.30495e-07
3.46903e-09
-7.42873e-08
-1.24186e-07
9.14677e-09
-0.0057618
3.35603e-08
5.03107e-08
-1.57972e-08
-0.0020722
-5.86552e-10
1.34185e-08
9.0282e-08
-4.49133e-08
-1.89142e-08
-1.9259e-06
-0.000154959
8.52443e-08
-0.00100994
-5.30855e-09
-3.85988e-08
2.2683e-07
-1.02241e-07
9.49188e-10
-0.00414306
-4.19796e-07
-5.88717e-05
2.66567e-09
-0.000838153
1.17314e-07
-5.85199e-08
3.49548e-09
-3.91311e-08
0.00142971
4.05121e-05
-9.25491e-05
1.61192e-08
1.18195e-07
-6.17861e-09
-0.000601583
-8.40561e-09
1.87166e-08
5.48836e-05
-3.06233e-08
-1.14836e-07
-0.00319532
-1.16413e-08
-6.52592e-08
1.94961e-08
5.22087e-08
3.82875e-09
1.25501e-07
1.30073e-10
9.19874e-08
-1.29877e-06
-4.85502e-08
7.69552e-09
0.0003756
-7.38139e-08
-0.00309384
0.000246836
-6.84361e-08
0.000102828
-0.000326116
-2.86517e-08
-4.5753e-07
1.2755e-08
9.44856e-08
0.000799974
-4.76146e-08
-0.0126951
6.41147e-09
-6.08859e-06
1.1874e-07
5.44353e-08
-2.40184e-08
-0.00323424
-9.30042e-08
-0.000213383
5.26775e-08
1.21798e-06
-2.82954e-08
1.14528e-08
-1.38039e-07
-2.72349e-07
-1.45932e-08
0.00318953
4.39773e-09
-4.90145e-07
7.84715e-09
-1.162e-07
-8.59177e-08
-2.37195e-06
-5.14192e-08
-1.54696e-06
0.0175668
-7.76983e-08
-5.52861e-07
-1.49836e-08
-0.00498832
6.21976e-08
-7.66532e-10
1.47854e-07
0.00249486
-0.00167037
-3.8078e-08
-9.98942e-08
4.16476e-09
-1.85353e-08
8.11908e-08
-0.00184528
-2.10327e-08
2.23713e-08
0.00156579
2.0317e-08
-3.87634e-09
-4.44721e-08
-0.00419761
4.16643e-08
0.0005423
0.00160738
2.37492e-06
0.00129153
2.67265e-08
-0.000910299
3.50887e-05
1.42502e-08
-2.215e-08
5.52177e-08
9.50331e-08
-2.21128e-07
-9.05512e-05
-8.59631e-07
-0.000140597
1.15646e-07
1.06807e-07
-0.0117777
-2.28781e-08
-0.00249252
7.42197e-10
0.000123493
-0.0048076
7.79395e-09
-4.12699e-08
-2.29419e-09
-1.57333e-07
2.82685e-07
4.23044e-09
-0.000892494
1.33878e-07
-6.59607e-07
1.81394e-09
-1.14911e-07
2.48716e-08
-0.00179159
4.23918e-08
-7.76991e-06
-9.29532e-08
0.00102609
7.86312e-09
8.84422e-08
-0.00250031
2.64567e-08
2.52867e-08
-1.12084e-07
7.41346e-08
-1.70879e-07
5.54865e-06
2.42002e-08
4.20766e-08
-6.33459e-08
-8.87045e-08
6.37174e-08
0.00332417
2.84895e-08
-9.69015e-08
0.00154175
-2.0571e-06
-6.06549e-08
4.73773e-07
3.21872e-08
-2.40381e-09
9.61428e-06
2.92989e-05
4.51329e-07
1.81686e-09
-6.31346e-08
3.57358e-08
-1.5224e-06
-3.88126e-09
3.88386e-08
1.04374e-07
-1.00889e-07
5.57716e-09
5.17346e-08
-0.00356998
-2.67066e-09
0.00657452
-8.07274e-06
-1.33232e-07
1.54569e-08
-0.00273883
-0.000582574
1.38594e-08
-4.84411e-08
0.00147593
5.62755e-08
6.98227e-07
2.74858e-07
0.000138125
-4.13562e-08
8.14945e-08
-8.95996e-09
-3.17731e-08
-5.33739e-05
7.67145e-06
-3.33832e-08
-1.08578e-07
-8.2909e-08
2.19555e-08
3.54748e-07
9.22481e-09
-1.19639e-06
-1.09572e-07
-1.26975e-07
-1.24492e-09
1.12149e-07
4.54738e-06
9.73508e-08
0.00268874
-2.48296e-06
3.01471e-08
1.69431e-08
5.19372e-09
4.85034e-08
0.00243518
2.91713e-10
-2.56345e-07
-1.6498e-08
3.15886e-08
4.34999e-08
-0.00544946
2.40036e-08
-8.02453e-09
7.27376e-08
-4.19529e-08
-8.52174e-08
-8.01054e-08
-0.00107472
9.72332e-08
5.16691e-09
1.95016e-06
0.00283185
5.99825e-08
-7.36599e-08
-0.00315396
-5.51356e-08
-9.60456e-08
0.00756281
6.53126e-09
0.000395381
-7.5832e-07
1.76256e-08
-2.96498e-06
-5.78123e-08
-3.89117e-08
-1.49303e-08
-0.00390466
2.33344e-08
-0.00445718
0.00258819
-7.91557e-05
7.48561e-08
8.5286e-09
0.00106662
-1.10018e-09
0.00129037
1.52998e-08
3.22553e-05
3.38107e-08
-3.8195e-06
8.8016e-08
0.00128834
-7.2516e-08
1.80822e-09
0.00193232
0.000955757
-8.36188e-09
-0.0054004
6.54284e-09
-1.07646e-07
-3.10246e-08
0.000443517
-7.01415e-05
8.98511e-08
1.06015e-07
-0.00481394
-1.06532e-06
2.45675e-09
4.28641e-08
7.33409e-09
1.07408e-08
2.89072e-08
3.21216e-08
0.000288902
0.000956518
6.47592e-08
1.21067e-06
2.16791e-07
-2.5026e-06
5.85037e-09
0.000348807
0.00156569
0.000502977
5.07741e-08
0.00358984
0.00114012
9.96797e-09
-7.31661e-08
2.8513e-08
-1.29332e-06
0.0013181
-2.86087e-08
2.95658e-08
3.86788e-08
-7.1747e-08
-2.96514e-09
-2.90038e-08
0.000156853
6.48389e-08
-3.15637e-07
5.74777e-08
-9.10296e-09
2.70697e-08
1.274e-08
2.50344e-06
0.000513567
1.26616e-08
-5.26142e-07
-1.40294e-08
-0.00108072
-2.87313e-08
2.66752e-08
-0.000514158
-0.000272781
-3.28089e-07
0.00056272
-2.2172e-06
-1.07387e-09
3.73448e-08
1.23205e-07
-1.45277e-07
2.99063e-09
-2.47103e-08
1.47191e-06
7.44018e-07
-0.00393897
-4.15398e-06
-1.32687e-07
0.000295287
1.92631e-07
-8.88976e-08
5.47288e-09
0.00268783
-0.00423734
0.00100129
-5.67828e-08
5.13929e-10
-6.6358e-05
0.00172978
1.62828e-08
-0.0018743
1.52822e-08
-1.21703e-07
3.60642e-09
-5.74257e-08
-4.41831e-08
-1.4983e-08
1.41151e-06
-3.89304e-09
-8.80199e-08
-2.70481e-08
-2.38009e-09
2.09163e-08
1.07688e-08
9.53502e-09
8.87085e-12
-3.91184e-08
-0.00325006
-0.00202677
0.00192777
-1.16371e-07
-0.00292182
8.10817e-09
0.00216997
-0.00152655
1.65982e-08
8.8453e-09
7.14021e-08
-3.01333e-07
7.84505e-08
0.010513
0.000162427
-1.10088e-07
2.75355e-08
-8.29486e-08
0.00136624
-1.77499e-08
0.00122969
1.5889e-08
1.86065e-08
0.00201577
-4.95344e-08
-1.14828e-08
4.7024e-09
-0.00362877
-1.45782e-08
-2.59861e-08
-2.56341e-06
-2.05009e-08
5.75817e-09
1.0412e-07
2.78986e-08
1.66458e-06
2.18764e-08
0.000199895
1.0548e-08
-2.36129e-09
9.2629e-09
0.00105182
-9.7911e-08
1.17923e-07
0.00292138
2.13732e-08
-1.02624e-08
-1.35722e-05
-2.67483e-05
1.05272e-07
0.00390657
-0.00375543
-1.17814e-07
-0.00223705
9.08199e-09
-7.48885e-08
-4.48054e-06
-1.84446e-08
-0.000194499
0.0014338
1.787e-09
1.36103e-07
9.79681e-08
-1.36216e-05
-0.00712204
-3.78397e-07
1.32258e-08
-4.51804e-05
-3.67009e-08
-1.60925e-07
-1.22089e-07
1.53045e-08
2.03356e-08
3.7452e-08
3.37277e-08
-0.0102477
1.67651e-08
2.99012e-08
-8.50275e-08
0.00602342
-1.71121e-06
0.00257568
1.58451e-08
3.06104e-07
-6.69754e-08
-3.22416e-08
1.5747e-08
3.77777e-08
1.1232e-08
-4.35618e-08
1.9719e-08
4.10807e-09
4.51077e-08
3.64452e-08
-5.72741e-08
1.79037e-08
3.74169e-05
0.00288602
-3.2932e-08
-8.86816e-09
-0.00469811
2.58038e-09
-5.72899e-06
-0.00339385
0.00354466
0.00154711
4.17901e-06
0.000442126
-0.00799399
-0.00298586
9.39376e-09
-8.14004e-08
9.23674e-08
-5.77855e-08
-1.20784e-07
-4.50352e-10
-3.71094e-08
-0.00280488
-2.02324e-08
5.59941e-08
0.000978039
-1.91609e-08
-2.92171e-08
9.29746e-08
2.7552e-08
1.15136e-07
3.44397e-08
7.31843e-08
0.00209217
0.000102552
1.14991e-08
-1.89409e-08
3.32418e-09
-3.58383e-09
-4.32393e-08
-9.20757e-08
0.03379
-4.20601e-06
-4.4055e-10
0.00159197
-1.20433e-07
-3.79404e-08
-0.000908108
-1.89687e-08
-1.40896e-06
2.2373e-08
-8.47665e-08
1.67595e-08
0.00196458
3.95671e-08
2.35788e-09
8.04683e-09
-7.95532e-08
-7.18714e-08
6.16354e-08
0.000679705
-5.07813e-08
-1.97072e-07
-0.0094703
-0.00203004
-3.19774e-06
-1.70978e-07
0.00215411
1.28898e-07
7.82124e-10
-3.9242e-08
0.000139838
-1.56703e-06
-5.56194e-08
-0.000324903
3.07571e-09
-0.0031042
-4.8617e-07
-0.000114813
-4.80976e-09
-9.02548e-08
3.68702e-08
1.43992e-06
-2.63866e-07
-1.77917e-05
-0.0040861
8.80625e-09
-6.6904e-08
-8.59899e-08
-7.00976e-08
0.00172663
-4.01083e-08
-2.55316e-08
5.51997e-07
4.71721e-07
-3.23236e-08
-2.30424e-10
-3.13335e-10
4.19332e-08
1.24942e-08
7.63247e-08
-5.12924e-08
1.43259e-08
-1.98652e-08
8.17039e-08
-1.87513e-09
0.000315108
-0.00349605
4.95584e-08
3.55256e-08
-1.13611e-08
-7.55406e-08
1.86357e-08
1.80555e-08
0.00164424
8.59809e-07
4.33093e-08
9.10667e-09
0.00162811
-0.00378115
5.38068e-09
-6.11413e-06
-5.28397e-08
-9.8576e-09
0.000216868
1.75639e-08
1.18204e-07
1.74186e-09
0.00383344
-0.00264222
1.45114e-09
-1.34588e-07
0.000241936
-9.83798e-08
-0.00484687
7.39039e-10
-2.58184e-08
-0.00211766
-0.0105147
-7.54455e-08
2.51466e-08
-3.83728e-08
9.23595e-09
1.31068e-07
-0.00171022
-0.00363587
-0.000369865
2.06043e-07
2.08416e-08
-8.60431e-07
1.16713e-07
2.56477e-05
-1.34612e-07
0.000350334
-1.15051e-08
3.10951e-09
-2.95051e-08
-1.12672e-08
5.12814e-09
-1.26689e-06
-0.00261292
-8.93317e-08
-4.70839e-09
1.79875e-08
-4.16864e-05
-6.06399e-08
-1.19376e-07
5.19107e-09
-6.75096e-08
-0.000921646
2.87957e-08
-4.69365e-08
-2.41009e-07
2.9637e-07
8.98108e-09
-1.53909e-07
5.90275e-08
-6.73796e-08
-6.03542e-06
-3.74157e-09
-0.00962307
9.8312e-05
-1.45895e-06
0.0077287
2.01582e-09
1.09159e-07
-1.05228e-07
0.00403243
5.49274e-08
-0.00212422
2.23342e-08
0.000272472
-5.94436e-08
4.92047e-08
-8.69093e-08
9.91023e-08
-0.00460131
3.07778e-08
-7.19889e-08
1.73506e-05
-3.74657e-06
8.47114e-09
-2.7312e-09
1.37858e-09
-3.80395e-08
-0.000826904
-1.44862e-06
2.14413e-08
3.62195e-06
2.22538e-08
0.0038981
-2.60107e-08
0.00361503
-6.50573e-08
0.00379824
-5.70637e-05
-1.3574e-07
-3.09161e-08
-6.53667e-09
-8.70723e-10
-0.00295948
7.10617e-08
-1.14556e-06
-0.00287791
-1.46166e-09
-0.000813083
-3.34605e-09
-4.35807e-08
-3.502e-06
-1.80861e-08
2.28282e-08
0.00159162
-4.48258e-05
-0.0013117
3.90913e-08
3.60577e-08
1.33667e-08
1.80758e-08
-9.66526e-08
-4.69131e-08
0.0095486
-3.49563e-06
0.00672451
-6.08175e-08
-1.00008e-07
0.00378226
-2.5101e-06
-9.70028e-08
3.62382e-08
0.000262238
-8.34655e-08
-0.00107112
8.52161e-08
1.14099e-08
-3.12877e-08
1.24461e-08
-1.06484e-09
1.08993e-07
1.72045e-08
4.71662e-08
-0.00668678
-1.25207e-07
-0.00232316
-1.04589e-08
-3.33934e-09
1.90366e-08
1.59653e-05
-1.47141e-09
-4.74487e-08
1.40247e-08
0.000477085
1.93262e-06
1.96207e-08
1.98753e-07
6.03859e-08
-3.97315e-08
-6.20719e-10
1.58374e-08
1.7323e-08
0.000896707
1.15444e-07
-3.62357e-08
1.04055e-06
6.31396e-08
-0.0115812
-2.14588e-06
-4.3951e-06
2.34749e-06
5.18742e-08
1.02365e-08
-0.00443502
-6.14544e-08
-3.49093e-06
6.78223e-08
5.33185e-08
-5.12209e-08
1.26467e-08
0.00372415
-1.96644e-08
-3.81633e-08
-0.00339775
2.52649e-08
0.000814223
2.30931e-08
-3.76151e-07
3.102e-07
-2.0322e-08
-0.00205202
-8.87894e-10
3.10451e-08
-1.95872e-08
1.99757e-07
3.71552e-08
-3.2052e-05
-1.13394e-08
-4.84259e-07
-0.000625705
2.86593e-06
-7.07704e-09
-1.79517e-05
7.48025e-08
-0.00244406
4.02683e-08
1.13616e-07
2.29036e-09
-0.0107787
-5.16968e-08
-7.82726e-08
0.00155113
-1.32186e-08
1.52479e-08
7.72401e-08
-4.30166e-07
-0.0048654
-0.00478498
-9.60824e-09
6.19827e-07
-1.84048e-08
6.58343e-07
-2.93386e-09
-8.99143e-08
-4.25754e-06
0.000256795
-6.21906e-08
-6.41086e-09
-2.28589e-08
-2.0825e-05
1.33329e-08
-8.797e-07
0.00262869
3.05376e-09
-0.000518537
1.44854e-08
1.3154e-06
2.03095e-08
-1.01169e-07
0.00131786
1.62746e-08
-2.4622e-08
-3.96506e-05
-0.0024712
-0.00591038
2.60744e-08
-0.00413
-0.000343569
-7.91626e-09
-1.88428e-06
0.000589699
-9.40751e-10
1.4012e-07
-0.00542894
-2.94237e-10
1.00494e-08
7.28303e-09
1.07852e-08
7.12746e-07
3.40667e-07
-2.80607e-07
-0.00147016
-1.40118e-09
-1.03137e-07
5.57065e-08
1.21374e-07
5.12105e-08
-2.1305e-07
4.10205e-08
9.12266e-10
0.00380368
5.77155e-06
-0.00078195