/*--------------------------------*- C++ -*----------------------------------*\
| =========                 |                                                 |
| \\      /  F ield         | OpenFOAM: The Open Source CFD Toolbox           |
|  \\    /   O peration     | Version:  v2012                                 |
|   \\  /    A nd           | Website:  www.openfoam.com                      |
|    \\/     M anipulation  |                                                 |
\*---------------------------------------------------------------------------*/
FoamFile
{
    version     2.0;
    format      ascii;
    class       volVectorField;
    location    "150";
    object      U;
}
// * * * * * * * * * * * * * * * * * * * * * * * * * * * * * * * * * * * * * //

dimensions      [0 1 -1 0 0 0 0];


internalField   nonuniform List<vector> 
18758
(
(1.10026 -0.302409 0)
(1.2686 -0.0162191 -2.63979e-20)
(1.01505 -0.000156432 4.36492e-22)
(0.621351 0.121323 1.40152e-20)
(0.218536 0.0313944 0)
(0.235737 0.0372069 6.1149e-20)
(-0.225814 -0.0109118 0)
(1.01195 -0.00473389 2.67966e-21)
(1.22795 0.0263414 0)
(1.0178 -0.103482 1.01846e-21)
(1.05566 -0.0384536 3.69114e-21)
(0.198259 -0.0499611 1.46165e-20)
(1.00212 -0.000319696 -4.86701e-22)
(1.10489 0.165679 2.12502e-20)
(1.0436 0.010722 -1.38375e-20)
(0.594609 -0.506963 -9.4124e-21)
(1.1099 0.0261195 5.89275e-20)
(1.00409 -0.00717824 0)
(1.03627 -0.00461229 -5.24681e-21)
(1.0276 -0.122747 0)
(-0.0203416 0.0120884 3.17379e-22)
(1.00004 -0.000814488 3.63251e-22)
(-0.0363105 -0.0177924 0)
(1.23471 0.0567422 6.018e-20)
(1.3166 -0.11461 0)
(1.01165 -0.0045744 -3.19906e-21)
(0.795164 -0.688363 1.33733e-20)
(0.187411 0.0238774 -2.84844e-20)
(0.935535 0.0129087 -8.47308e-20)
(1.08774 -0.705006 0)
(1.11156 0.0826419 -2.9147e-20)
(0.114089 0.0224354 -3.10513e-20)
(1.00047 -0.000155759 -2.74531e-21)
(1.05039 -0.0104228 0)
(1.16339 0.102582 2.87368e-20)
(0.999334 -0.00265549 -6.20277e-21)
(1.00019 -0.000229538 -1.38007e-21)
(1.03395 -0.021025 -9.04302e-21)
(1.04029 -0.0237814 -1.43893e-20)
(1.1185 0.0225662 -2.1139e-20)
(1.03468 -0.0194994 4.52297e-21)
(0.939595 -0.0789217 0)
(1.02129 -0.00689191 -3.07905e-21)
(0.977184 -0.0915219 -8.15128e-21)
(1.21128 -0.501327 5.87535e-21)
(1.01295 -0.00134798 -1.7914e-21)
(-0.0584414 -0.0156215 1.67646e-20)
(1.05006 -0.0520789 0)
(1.01559 -0.101063 0)
(1.02087 -0.00525364 -2.66525e-21)
(1.21671 -0.131233 3.0785e-20)
(0.370196 0.0721551 2.08302e-20)
(1.01537 -0.00176356 3.89861e-21)
(1.05411 -0.0371933 3.13252e-21)
(0.154481 0.0206443 2.71062e-20)
(1.28968 -0.214867 6.46756e-20)
(1.00024 -0.000259057 1.39408e-21)
(0.521041 -0.345107 4.6018e-20)
(0.99391 -0.0235211 0)
(1.11303 0.170104 -4.5362e-20)
(1.11707 -0.257494 -3.00128e-20)
(-0.21051 -0.0143317 0)
(1.19585 0.0128411 1.57709e-20)
(0.970602 -0.0454634 0)
(1.01519 -0.00182547 -2.94948e-21)
(0.994192 -0.00465748 6.90132e-23)
(1.11611 0.0290244 -2.35195e-21)
(1.00053 -0.000199202 4.23743e-21)
(1.03198 -0.0191185 3.69711e-21)
(0.351909 0.0718019 -5.77679e-21)
(0.253874 0.0512655 0)
(0.971852 -0.0274262 0)
(1.02121 -0.00558238 2.46831e-21)
(-0.0212919 -0.0872104 6.67235e-20)
(1.01684 -0.00779479 -1.23213e-21)
(0.995577 -0.0241462 1.96594e-21)
(1.2211 0.0727618 -3.78841e-22)
(0.21987 0.0300649 -1.18023e-19)
(0.909893 -0.328514 0)
(-0.0827049 -0.0293657 1.1505e-19)
(0.068107 0.00903838 -1.04924e-19)
(1.27719 -0.469472 7.68605e-20)
(1.11793 0.169114 -3.03657e-20)
(0.199247 0.030854 5.41214e-22)
(1.22029 0.0773665 -2.45965e-20)
(1.09607 -0.0231669 4.2299e-20)
(0.57677 -0.203459 0)
(1.19481 0.0107542 0)
(-0.0662868 -0.0312559 -9.18423e-20)
(0.996142 -0.0247014 -4.90238e-21)
(0.159155 0.0277631 0)
(0.993432 -0.0230343 0)
(0.136049 -0.0732284 0)
(0.937255 -0.0825503 -1.48596e-20)
(0.0751185 0.0131763 4.75722e-20)
(0.0872615 -0.0596406 0)
(1.21734 0.0797086 0)
(1.01728 -0.00805136 -2.01601e-21)
(1.00221 -0.0180788 -3.55145e-21)
(0.00125912 0.0150438 4.14069e-20)
(1.03885 -0.126079 9.9225e-21)
(0.102244 0.0226097 0)
(1.16001 0.0524432 1.22137e-20)
(1.11852 -0.122862 0)
(0.0894475 0.0153565 -4.92675e-21)
(1.103 -0.674339 0)
(0.980728 0.111266 0)
(0.246643 0.0351469 9.80808e-20)
(1.04292 -0.0335918 0)
(0.964745 -0.0135122 1.23707e-20)
(0.165603 -0.0758079 -3.18616e-20)
(0.472236 -0.662578 0)
(1.01034 -0.00521842 -9.87499e-22)
(1.00968 -0.035213 0)
(0.757801 0.0388304 0)
(-0.216329 0.00520943 -1.62558e-20)
(-0.152496 0.0039572 0)
(1.04313 0.0113325 0)
(0.0411427 -0.0354116 -1.14988e-19)
(0.0444915 0.0153003 0)
(1.11714 -0.050325 -1.74301e-20)
(0.987734 -0.0114871 -5.11186e-21)
(0.66357 -0.0297506 -1.49341e-19)
(0.646565 -0.652894 -2.4779e-20)
(1.19502 -0.385323 -4.46833e-20)
(1.2091 -0.480267 0)
(1.28289 -0.0201627 2.60215e-20)
(1.25144 0.0271254 -1.83672e-20)
(0.0773401 -0.0565196 0)
(1.0034 -0.000114092 5.87247e-22)
(1.11175 0.0276631 -3.2478e-22)
(0.824812 -0.66777 9.27168e-22)
(-0.0594239 0.00690494 0)
(0.934474 -0.219687 0)
(0.210752 -0.709666 0)
(0.970522 -0.0644204 -4.24474e-21)
(1.21909 0.070612 0)
(1.12117 0.0236979 6.77438e-20)
(1.00263 -0.0180332 -6.97145e-22)
(0.787851 -0.267095 0)
(0.894735 -0.324541 -6.08658e-23)
(0.958285 -0.459259 0)
(1.00466 -0.0310522 4.68043e-22)
(1.18192 -0.192438 7.56607e-20)
(1.03545 -0.019233 5.99385e-21)
(1.03781 -0.00227183 -1.14576e-20)
(-0.101818 0.00580643 -1.18276e-19)
(0.254104 0.0161337 0)
(1.10797 0.0826467 2.93485e-20)
(0.680024 0.0461868 0)
(1.28506 -0.453308 -1.32281e-19)
(1.1688 0.128369 1.03872e-20)
(1.09609 -0.0278878 -2.0585e-20)
(0.999954 -0.00074841 0)
(-0.0514896 0.00541529 2.77513e-20)
(1.08645 -0.0427129 2.03947e-20)
(0.00125463 -0.0359129 1.52316e-19)
(1.04941 -0.0539258 0)
(0.991659 -0.037355 5.75171e-21)
(1 -0.000307529 3.62897e-21)
(1.01092 -0.0129202 0)
(1.12434 0.164206 0)
(0.182971 -0.106738 3.29658e-22)
(0.99288 -0.0371111 4.91284e-21)
(1.11793 -0.252658 -4.34902e-20)
(0.848923 0.0227312 3.1969e-20)
(1.0376 -0.0062555 -8.37061e-23)
(0.575018 -0.0517886 1.77277e-19)
(1.21818 -0.240285 -6.73354e-20)
(0.267115 0.0355688 -1.2929e-19)
(-0.13261 0.0159665 0)
(1.00401 -0.0073521 -9.96763e-22)
(0.196841 -0.0978579 -1.19398e-19)
(0.194328 0.0247895 -6.11392e-20)
(1.12725 0.161908 0)
(1.25203 0.059172 -3.93166e-20)
(0.743356 0.033952 5.54872e-20)
(0.969624 -0.0470318 0)
(0.802552 -0.264625 -2.69785e-20)
(1.0312 -0.0297269 0)
(1.00882 -0.00505509 5.22575e-22)
(-0.181337 -0.000674516 0)
(1.20076 0.12724 -5.17228e-21)
(1.02567 -0.00503863 -1.21579e-20)
(1.06642 0.00551474 -1.346e-20)
(1.24259 0.121344 3.19822e-20)
(0.997559 -0.0192434 5.38549e-21)
(-0.202694 0.00722825 0)
(1.02014 -0.00608538 -2.36225e-21)
(0.995509 -0.0171954 -6.97769e-21)
(0.940976 -0.223856 2.46251e-20)
(1.24771 0.0261291 1.0223e-19)
(1.01208 -0.0469559 -3.67882e-22)
(1.10665 0.0793045 0)
(0.976805 -0.150656 -1.30999e-20)
(1.19754 0.00748041 0)
(1.03086 -0.125319 -4.1226e-21)
(1.22744 -0.23887 5.85102e-20)
(1.00074 -0.00242677 0)
(1.02098 -0.00652897 6.81287e-23)
(0.754126 -0.217351 -3.63752e-20)
(1.04733 -0.0539681 1.17372e-20)
(1.07366 -0.127032 1.12079e-20)
(1.17912 -0.00385034 0)
(1.00212 -0.000485872 -5.56831e-22)
(0.978717 -0.146817 1.01424e-20)
(1.16678 0.046882 2.07512e-20)
(0.999962 -0.000579273 0)
(-0.000357838 0.0118735 -2.13107e-20)
(1.01153 -0.102057 1.78743e-22)
(1.00449 -0.00725514 -1.5218e-21)
(1.12264 -0.125775 4.85287e-20)
(0.994151 -0.039342 1.01036e-20)
(1.08153 -0.116222 -1.69954e-20)
(0.867621 -0.295043 0)
(0.0749553 -0.00471355 3.21809e-22)
(0.8653 -0.307729 9.12496e-21)
(0.537215 -0.451535 -9.55121e-20)
(1.01531 -0.00445077 -1.46437e-21)
(0.25519 0.0381172 -5.95624e-20)
(1.00437 -0.00742352 1.5823e-21)
(1.04266 -0.0349462 0)
(1.2045 0.0947086 4.58701e-20)
(-0.0832325 0.00676984 5.08256e-20)
(1.25727 -0.152485 -8.57911e-20)
(1.16353 0.0478017 -7.83671e-20)
(1.15677 -0.0553023 -4.18213e-21)
(0.98788 -0.210616 0)
(1.02498 -0.00259258 4.44023e-21)
(1.18171 -0.00933869 2.81747e-20)
(0.99389 -0.00488032 3.51098e-21)
(1.19662 0.00531061 -3.18282e-20)
(-0.0598874 -0.0128489 1.17325e-19)
(1.21965 0.0846495 -2.64114e-20)
(1.00197 -0.000246592 0)
(0.997368 -0.0186062 0)
(1.02479 -0.00285425 -3.89242e-21)
(1.01245 -0.0015806 1.66425e-21)
(0.748364 -0.0480918 1.48488e-19)
(1.09746 -0.0942031 -4.92728e-22)
(1.00887 -0.0128937 7.36024e-22)
(1.28735 -0.252476 5.06012e-20)
(0.959649 0.112728 0)
(1.05409 -0.0209026 0)
(0.730027 0.0528842 5.54742e-21)
(0.0177973 -0.042749 0)
(1.21699 0.0867416 1.25248e-20)
(0.999421 -0.00254581 5.1603e-21)
(0.0696942 0.0118233 -1.1932e-20)
(0.89738 -0.0791195 -3.27299e-20)
(0.999191 -0.00308113 0)
(0.51527 -0.0396407 -1.06297e-19)
(1.09734 -0.021657 -6.12735e-20)
(0.897479 -0.0850161 6.87111e-20)
(1.04192 0.00568577 9.32887e-21)
(1.12407 -0.0543479 2.29308e-20)
(1.25093 0.0780644 0)
(0.498428 -0.443965 -6.18581e-20)
(1.07757 -0.115213 1.63231e-20)
(0.936886 -0.320957 0)
(1.02801 0.00242144 5.59181e-21)
(1.15352 0.0381093 -3.47048e-20)
(0.999538 -0.00735037 -7.49494e-22)
(1.17696 -0.00226837 0)
(1.00949 -0.0991949 0)
(1.20293 0.0973193 0)
(-0.294183 -0.000708427 1.89918e-20)
(1.01503 -0.00431619 0)
(1.04212 -0.0313585 8.13259e-21)
(1.05039 -0.479903 0)
(1.04101 -0.0304777 -1.78365e-22)
(1.06539 0.00461423 1.15857e-20)
(1.17856 -0.00784615 0)
(0.735307 0.0147237 -1.03625e-19)
(-0.169361 0.00261132 0)
(1.00279 -0.0302027 -2.25166e-21)
(1.20788 -0.120312 3.38763e-20)
(0.122236 -0.0246979 2.7847e-20)
(1.25046 -0.468201 0)
(1.0099 -0.0516098 -3.4938e-22)
(1.02924 -0.00809636 2.80767e-21)
(1.07889 -0.0715436 2.1289e-20)
(1.09985 -0.0922688 3.2694e-20)
(1.00444 -0.0304278 9.04574e-22)
(0.15401 -0.0406924 -4.21791e-20)
(1.27807 -0.246958 9.26595e-20)
(1.06276 0.23992 4.32799e-20)
(-0.0663338 0.00572297 0)
(-0.0341801 -0.0168808 -1.11927e-19)
(1.02411 -0.00484276 0)
(1.01514 -0.000131528 4.49066e-22)
(0.992865 -0.227678 3.61372e-22)
(0.145399 -0.00686123 -1.00747e-19)
(0.922545 -0.0449412 -1.01943e-20)
(0.921891 -0.317729 7.30183e-21)
(1.19946 -0.0216565 -3.64571e-20)
(1.07362 -0.0777065 -1.81684e-20)
(0.0348289 0.0105051 0)
(1.03553 -0.00493414 0)
(1.13621 0.229643 -4.72619e-20)
(0.218131 0.0323867 -6.79811e-20)
(1.01274 -0.00138157 -1.14501e-23)
(0.430693 0.0942816 0)
(0.965109 -0.169356 0)
(1.03287 -0.0194936 -2.12429e-21)
(1.06982 -0.108385 -2.28966e-21)
(1.18702 -0.0557355 1.74435e-21)
(1.04749 0.00360867 0)
(0.999213 -0.00299136 -1.09197e-22)
(-0.260446 -0.00856278 0)
(1.09161 0.246707 0)
(1.00189 -0.013262 1.2757e-21)
(-0.268833 -0.00548847 -1.82045e-19)
(0.0402274 0.0127651 -2.53031e-20)
(1.25152 -0.14964 0)
(0.998122 -0.00769195 0)
(1.00217 -7.62236e-05 0)
(1.16847 0.201147 -7.97269e-20)
(1.05317 -0.0217622 0)
(1.02509 -0.00506884 4.93074e-21)
(1.02983 -0.00952365 4.18821e-21)
(0.946826 -0.0160015 0)
(1.21599 -0.249205 0)
(1.1899 -0.0581981 0)
(1.07694 -0.0728226 -1.89192e-20)
(1.09372 -0.0930709 -9.49388e-21)
(1.02346 -0.124904 2.71456e-21)
(0.950086 -0.22424 -2.89246e-20)
(1.02765 0.00200976 -5.37454e-21)
(0.999992 -0.000612322 -3.70538e-21)
(1.25156 0.0299309 -1.91516e-20)
(1.07565 -0.203013 2.67106e-20)
(1.21367 -0.11999 4.66162e-20)
(0.621453 0.125527 3.15063e-20)
(0.919308 -0.0471644 1.19116e-20)
(1.01269 -0.0455179 -4.23158e-23)
(1.00539 -0.000147741 0)
(1.1335 0.231348 4.88895e-20)
(0.483888 0.103549 0)
(1.02523 -0.00333821 4.28678e-21)
(1.0049 -0.00731614 -1.31857e-21)
(1.02501 -0.00362126 -1.99972e-21)
(0.969945 -0.0623609 1.33571e-20)
(0.98487 -0.203063 0)
(1.30318 -0.114325 -9.78772e-20)
(0.988277 -0.0111953 7.56502e-21)
(0.968822 -0.0132742 1.06582e-20)
(1.02174 -0.00465548 0)
(0.608107 -0.55494 1.47668e-20)
(0.959248 -0.447259 -4.87705e-21)
(1.22242 -0.0236748 -5.26574e-20)
(1.14337 -0.301221 0)
(1.05147 -0.00407727 -1.10951e-22)
(1.2453 0.0218617 -1.94336e-20)
(1.08859 -0.301687 -3.46524e-20)
(1.10872 -0.0749242 -1.73491e-20)
(0.891112 -0.0941221 0)
(0.141385 -0.0454526 0)
(-0.057168 0.00665593 1.13493e-20)
(1.22371 0.120167 4.2654e-22)
(1.00205 -0.00228134 1.96819e-21)
(1.03388 -0.133584 4.35974e-21)
(1.29309 -0.0472475 0)
(0.667586 0.0242563 1.6092e-19)
(1.02167 -0.0812966 -2.69751e-21)
(1.02401 -0.00524051 -3.60317e-21)
(1.15642 -0.0291741 -3.24078e-20)
(1.03681 -0.00981579 -5.38447e-21)
(1.09595 -0.0114636 -1.36965e-20)
(1.18674 -0.00501593 -5.9101e-20)
(0.544449 0.101113 3.06817e-20)
(1.12867 0.122023 0)
(1.02004 -0.121942 0)
(-0.279927 0.000338399 0)
(0.989113 -0.0246871 1.31433e-20)
(1.0467 -0.055691 -9.38776e-21)
(1.00301 -0.0238752 -1.03437e-21)
(1.04046 -0.0248417 1.1168e-20)
(1.15244 0.0953371 5.10503e-20)
(1.06041 -0.0391054 -1.00005e-20)
(-0.253623 -0.00948156 1.71821e-19)
(0.915707 -0.469716 1.1921e-21)
(1.04142 0.00517151 -9.95962e-21)
(1.0017 -0.0128199 6.66083e-21)
(-0.15225 0.00741283 0)
(1.12928 0.118793 0)
(1.22683 0.0285413 -6.77589e-20)
(0.988776 -0.0240387 -7.66269e-21)
(1.10356 0.0642608 2.71156e-20)
(1.02857 -0.00818546 0)
(0.939511 -0.0715045 1.56401e-20)
(0.987681 -0.0119506 -4.26723e-21)
(1.01472 -0.00442094 0)
(-0.139398 0.00304231 0)
(0.00979974 0.0128451 0)
(1.04656 -0.770135 -1.65043e-20)
(0.413231 -0.148089 2.73728e-20)
(1.00547 -0.00043434 0)
(1.21932 0.0571587 -1.3291e-20)
(0.105801 0.0321788 -5.62286e-20)
(1.12592 -0.056289 -2.60987e-20)
(1.0106 -0.00545003 0)
(0.645364 0.144257 -7.93184e-20)
(1.02827 -0.0118758 6.2067e-21)
(1.03851 -0.000352817 0)
(1.00903 -0.00535043 2.15251e-22)
(1.15485 0.0978485 -3.26485e-20)
(0.990656 -0.0128867 4.82879e-21)
(0.973624 -0.0904317 7.63837e-21)
(1.13921 -0.291325 0)
(0.675105 -0.0190065 9.31945e-20)
(1.02939 -0.00918323 0)
(0.200881 0.0316774 0)
(1.13327 0.00039403 1.36162e-20)
(0.998341 -0.00751316 -4.05054e-22)
(1.07356 -0.00369347 1.45962e-20)
(0.992294 -0.0244556 -8.25206e-21)
(1.00479 -0.00750075 6.92469e-22)
(1.07145 -0.0754791 0)
(1.15081 0.0297838 4.33511e-20)
(0.956496 -0.22012 4.4568e-21)
(0.116201 0.0399262 0)
(1.12027 -0.0504522 -2.67358e-20)
(0.996441 -0.00447879 -5.67722e-21)
(1.0306 -0.471756 -1.95034e-20)
(0.706013 0.108654 5.88614e-21)
(0.83703 0.185707 0)
(-0.14151 0.0145866 9.3433e-20)
(1.1428 0.102185 0)
(1.00729 -0.050316 1.81726e-21)
(1.01446 -0.00426448 0)
(1.00869 -0.0125318 -8.38882e-22)
(0.993232 -0.0402526 -6.97378e-21)
(1.12405 0.124288 -4.28846e-20)
(1.1189 0.0132361 0)
(1.08631 0.024289 7.91535e-22)
(0.965168 -0.16278 -7.51258e-21)
(1.09746 -0.0262205 -1.19519e-20)
(1.22054 0.153586 3.31531e-20)
(1.16312 0.0515852 6.93161e-21)
(0.992192 -0.0235735 -5.39764e-21)
(1.09115 -0.0910875 -6.66776e-21)
(-0.067057 -0.0348528 1.50063e-19)
(0.98956 -0.0545036 -9.31137e-21)
(0.562119 0.123955 0)
(1.00338 -0.000105763 2.07489e-23)
(0.996746 -0.000602493 7.55849e-21)
(0.322345 0.0103718 2.18953e-20)
(0.950329 -0.100032 -8.78221e-21)
(1.04287 -0.0274989 1.67114e-22)
(1.24943 0.0818573 0)
(1.16694 0.100355 0)
(0.996935 -0.222525 0)
(0.0692562 -0.0624301 6.55487e-20)
(0.994852 -0.0242688 -2.63236e-21)
(0.987797 -0.0500421 0)
(0.545544 -0.499947 6.08199e-20)
(0.1361 -0.0404322 3.02065e-20)
(0.869681 -0.125174 1.10599e-21)
(1.15579 -0.153112 0)
(1.10235 0.169852 0)
(1.22878 0.152127 -3.26714e-20)
(-0.21317 0.00250893 6.87316e-20)
(1.10955 0.165619 -2.17731e-20)
(0.971219 -0.0260673 0)
(1.21765 -0.0628185 -4.37584e-20)
(1.0087 -0.0355828 0)
(1.12366 0.127315 2.22045e-20)
(1.0399 -0.0487836 0)
(0.132514 -0.0666237 -1.54228e-20)
(1.10085 0.064072 -2.60256e-20)
(1.30435 -0.051525 5.06574e-20)
(1.08634 0.0229636 0)
(1.11323 0.0917327 -1.57167e-20)
(1.01268 -0.00157771 1.76989e-21)
(1.24207 0.0541926 -4.44373e-20)
(1.02096 -0.00588609 3.36257e-22)
(-0.0760154 0.00518321 0)
(1.00272 -0.0244564 1.05026e-21)
(1.15491 -0.388871 1.87001e-20)
(0.999504 -0.00623098 0)
(1.1463 0.21907 0)
(1.09818 -0.0106705 -1.39965e-20)
(1.00011 -0.00542642 0)
(1.00188 -0.0174846 0)
(1.00937 -0.0053154 0)
(0.856166 0.12947 -3.77962e-20)
(-0.121543 0.00363119 -1.49373e-20)
(0.786044 0.0373956 0)
(1.11268 0.0328708 5.10373e-21)
(1.0629 0.00451218 1.84859e-20)
(1.18903 -0.0515313 -6.69502e-20)
(1.00002 -0.000576449 -2.67454e-21)
(1.00004 -0.000299565 8.396e-21)
(0.3608 0.0682595 5.12187e-20)
(1.00148 -0.0175967 0)
(0.996103 -0.00173591 0)
(1.20188 -0.0241073 7.29737e-20)
(1.00215 -0.00222779 -2.52988e-21)
(1.1503 -0.154624 0)
(1.1868 -0.0487158 7.12114e-20)
(0.99589 -0.00154881 2.94429e-21)
(0.99087 -0.0135659 -2.18414e-21)
(0.936569 -0.0911143 -2.25749e-20)
(0.989415 -0.0527335 6.66318e-21)
(1.08889 -0.0434986 -2.79612e-21)
(0.738245 0.0512178 -5.5958e-21)
(1.05885 0.0394153 0)
(0.877513 -0.125145 1.02817e-21)
(1.04734 -0.0836517 0)
(0.996607 -0.00430619 2.89762e-21)
(0.396486 -0.750518 -2.33824e-21)
(0.965759 -0.0181213 1.61767e-20)
(1.04085 -0.0362451 0)
(0.859393 -0.772612 1.99202e-20)
(-0.202445 0.00294005 -2.65846e-20)
(1.11113 0.0890717 0)
(1.1298 0.190437 0)
(1.02084 -0.0833735 0)
(1.04106 -0.0352367 0)
(-0.17912 0.0062387 -2.33294e-20)
(1.0369 -0.00580733 0)
(-0.152393 0.003953 6.8587e-20)
(1.14161 -0.382355 0)
(0.999835 -0.00558027 0)
(0.699651 0.0544378 0)
(1.24915 0.0228216 0)
(1.15784 -0.026099 0)
(1.00839 -0.000435419 0)
(1.07461 -0.196349 0)
(0.430378 0.0861117 -4.30609e-20)
(1.03474 -0.0206921 -1.12696e-20)
(1.0294 -0.0179542 0)
(1.04458 0.0108761 5.27369e-21)
(1.04744 0.00281099 0)
(1.03837 -0.00249238 1.5451e-20)
(1.01169 -0.000759473 0)
(1.00003 -0.000143951 -6.73086e-21)
(0.802422 -0.0303428 0)
(1.07249 -0.0311397 -3.26255e-21)
(0.838165 0.0223139 -3.48557e-20)
(0.987542 -0.00943727 1.666e-20)
(1.22454 -0.0678736 9.92711e-20)
(1.23578 -0.0120636 2.61386e-20)
(0.99944 -0.00712563 1.10498e-22)
(1.02042 -0.00646053 2.42058e-21)
(1.07045 -0.0352897 0)
(1.00098 -0.00257871 0)
(1.01074 -0.0529894 2.45364e-22)
(0.952209 -0.0386352 -6.64886e-21)
(1.03008 -0.0300284 0)
(1.19071 0.0182041 1.58281e-20)
(0.643718 -0.567862 -3.4069e-20)
(1.01697 -0.00224401 -5.43114e-23)
(0.411293 0.0823977 8.48106e-20)
(0.101392 0.0169392 -3.12518e-20)
(0.866311 -0.109873 -2.46757e-20)
(1.2168 -0.0599271 0)
(0.990756 -0.770339 7.69629e-21)
(0.937087 -0.0743325 0)
(1.05821 0.037848 -1.41918e-20)
(1.08977 -0.0251997 0)
(0.263918 0.053804 9.97617e-23)
(1.07077 -0.0317646 0)
(1.09921 0.0503155 0)
(1.00617 -0.033308 -3.80789e-22)
(0.239695 -0.0841144 -4.31509e-20)
(1.12628 -0.0187361 4.49914e-20)
(0.982788 -0.43142 0)
(1.1939 0.0539029 0)
(-0.218037 -0.0112939 0)
(1.0696 -0.0342026 0)
(0.99986 -0.0268478 2.8219e-21)
(1.15713 -0.0483229 -3.59331e-20)
(1.31199 -0.126564 -2.85167e-20)
(1.00813 -0.0518408 0)
(1.18719 -0.373559 -7.60457e-20)
(0.978238 -0.0305301 9.00132e-21)
(0.884719 0.108016 4.73959e-20)
(1.01358 -0.0542506 0)
(1.02833 -0.013549 1.11125e-20)
(1.00959 -0.00558478 0)
(1.00206 -0.00169224 -5.75896e-22)
(0.115675 0.0201589 6.63814e-20)
(0.859661 0.108775 -5.88588e-21)
(0.987435 -0.0237481 1.13325e-20)
(1.15194 0.182654 0)
(0.955829 -0.122967 -1.65371e-20)
(0.782814 0.17155 0)
(-0.100835 0.00640312 0)
(1.17881 0.203133 6.0914e-20)
(1.27385 -0.0143961 -2.5104e-20)
(1.0336 0.00314447 5.30313e-21)
(0.230697 0.0261136 -5.43373e-20)
(1.10336 0.079009 -1.30329e-20)
(1.01537 -0.0317206 -2.1162e-21)
(1.11911 0.0286846 1.26083e-20)
(0.335135 0.0657862 -2.78089e-20)
(0.289445 -0.000498226 3.33661e-22)
(1.05006 -0.0115238 -1.00432e-20)
(0.955513 -0.0101155 -2.11821e-20)
(1.0123 -0.0335088 5.82634e-24)
(1.0148 -0.000354193 0)
(0.235263 0.0196114 6.14789e-21)
(1.18883 0.0236217 -7.63112e-21)
(0.169556 0.022784 9.978e-20)
(0.0769257 0.0267512 0)
(0.98207 -0.0212331 0)
(1.00084 -0.00253031 -5.21855e-23)
(1.15034 -0.00282218 3.56171e-20)
(1.00003 -0.000573794 0)
(1.01073 -0.0125404 0)
(0.952551 -0.0370651 0)
(1.04488 0.00826385 1.56127e-20)
(1.19401 0.0169788 -1.62968e-20)
(1.12388 -0.017718 -2.2256e-20)
(1.22384 -0.222645 -8.71765e-20)
(0.260334 0.0380826 5.61346e-20)
(1.15702 -0.145391 3.6242e-20)
(0.99948 -0.0060237 -2.80288e-21)
(0.951511 -0.0964257 -8.58969e-21)
(1.20203 -0.143277 -3.3549e-20)
(0.321342 0.0546399 0)
(1.09711 0.0484124 0)
(1.30898 -0.363392 3.98633e-20)
(1.14783 -0.0518322 -3.0054e-20)
(0.986684 -0.0242023 -8.89443e-21)
(1.15334 0.178763 1.98979e-20)
(0.871852 0.172429 -6.48985e-20)
(1.013 -0.0482062 -3.47822e-22)
(1.02567 -0.00411647 -4.47759e-21)
(0.653108 -0.295269 2.81476e-20)
(0.139856 0.026124 0)
(1.22994 -0.231781 0)
(1.00216 -0.00164564 -8.13364e-23)
(-0.0769879 0.0053192 -3.0779e-21)
(-0.0525388 0.00315338 0)
(1.31996 -0.131521 -1.33553e-20)
(1.02107 -0.00495116 0)
(-0.162518 -0.0184485 0)
(-0.25797 -0.00659989 3.88229e-20)
(0.51497 -0.196109 1.09164e-19)
(1.06073 -0.037416 1.11445e-20)
(0.999375 -0.00094033 0)
(0.788609 0.036968 0)
(1.00001 -0.000120492 8.36564e-21)
(1.17509 0.128828 -2.06053e-20)
(-0.12509 0.00579516 6.064e-20)
(1.23083 -0.0205455 -2.8595e-20)
(-0.203453 -0.0137826 -1.25453e-19)
(1.15536 0.0607751 0)
(0.0198125 0.0192286 4.14313e-20)
(1.15398 0.0284984 -6.68237e-20)
(0.990543 -0.033839 0)
(0.956413 -0.00911928 1.71459e-20)
(-0.198452 0.00982007 -6.36478e-20)
(0.769329 0.189265 5.1868e-20)
(-0.275407 -0.00592194 -5.2111e-20)
(0.557077 0.0950877 -6.82061e-20)
(1.03698 -0.00507382 5.13476e-21)
(1.17703 0.1258 -4.48171e-20)
(1.00002 -0.000453823 5.54717e-22)
(1.15923 -0.0581948 -2.05988e-20)
(1.14449 0.0768445 2.36345e-20)
(1.21165 -0.134622 0)
(0.999933 -0.00547701 -2.23516e-21)
(0.970265 -0.0807211 1.8905e-20)
(1.21574 0.0575192 -1.31646e-20)
(0.37437 0.0741282 -9.91808e-20)
(-0.186766 0.0112828 0)
(-0.292734 -0.00272312 4.96071e-20)
(1.11171 -0.0762867 -2.21659e-20)
(1.04276 -0.125632 0)
(1.21847 0.0916723 5.07672e-20)
(0.967539 -0.0139342 0)
(1.02751 -0.00772735 0)
(0.996923 -0.0124339 1.26463e-21)
(1.05628 0.018508 0)
(1.11336 0.0853149 3.4359e-20)
(0.995982 -0.00458978 3.26861e-21)
(1.14176 0.0739753 -2.17228e-20)
(1.0075 -0.0123132 2.79036e-22)
(1.00303 -0.000183928 1.31852e-21)
(1.00532 -0.00733574 1.10103e-21)
(0.212058 0.0279678 0)
(0.964649 -0.0152664 -8.4986e-21)
(1.00002 -0.000405586 0)
(1.14705 -0.00415176 1.75921e-20)
(1.14689 -0.0257065 7.94334e-20)
(1.01715 -0.00240382 2.29638e-21)
(-0.157387 0.00281901 -3.42532e-20)
(1.03726 -0.00939073 6.68737e-21)
(1.02917 0.00180785 3.60747e-21)
(1.15131 -0.0707659 0)
(0.888197 -0.135009 0)
(1.06391 0.00534884 -6.79168e-21)
(1.02777 -0.0518915 0)
(1.32941 -0.360063 1.81766e-20)
(0.864856 -0.115469 -2.49309e-20)
(1.06819 -0.118233 1.19157e-20)
(0.896273 0.174259 7.36705e-20)
(1.07165 -0.116983 -2.37123e-20)
(0.688331 0.163368 0)
(0.907839 -0.0214229 0)
(1.19138 0.0223501 -1.71139e-20)
(0.517319 -0.245312 6.58351e-20)
(0.209972 0.0135787 0)
(1.02517 -0.00401507 -3.94535e-21)
(0.281693 0.0550799 0)
(1.25366 0.0385279 4.34593e-20)
(1.01224 -0.00363935 -5.50435e-23)
(-0.0314741 0.0103856 0)
(0.998199 -0.00530681 1.10601e-20)
(1.00576 -0.00733794 -2.26437e-22)
(1.12134 -0.0278727 0)
(1.00395 -0.00679703 0)
(1.14926 -0.239922 0)
(0.299908 0.0531987 0)
(1.02041 -0.00580697 0)
(0.204909 -0.123185 0)
(1.03305 0.00300543 -9.67142e-21)
(1.11609 -0.0473451 0)
(0.792568 0.203271 5.1733e-20)
(1.01696 -0.00187076 8.23339e-22)
(0.126496 0.0235343 -7.29065e-20)
(1.01524 -0.0667479 -3.46155e-22)
(1.037 -0.0127786 -2.84963e-21)
(0.997764 -0.0174198 -4.71235e-21)
(0.996628 -0.0127468 0)
(1.23073 -0.00934963 0)
(0.739261 -0.209015 0)
(-0.199131 0.00333472 1.04832e-19)
(1.16206 -0.14424 -5.21182e-20)
(0.188679 0.0349105 3.58915e-20)
(1.15186 -0.00842125 -1.73536e-20)
(0.99616 -0.00441994 5.519e-21)
(1.21904 0.0636996 0)
(-0.278197 -0.00588165 4.90233e-20)
(1.27195 -0.011376 -2.73553e-20)
(0.75502 -0.23281 1.9407e-20)
(1.22116 -0.020568 7.99395e-20)
(1.09808 0.081209 2.06248e-20)
(1.07043 -0.0591447 -1.47561e-20)
(1.23219 -0.0130486 0)
(1.02512 -0.0498116 2.03426e-21)
(1.29177 -0.44522 6.75819e-20)
(1.00224 -0.00103632 -5.70676e-22)
(-0.149865 -0.0247854 -1.11335e-20)
(1.0514 -0.00990648 -1.22744e-22)
(0.772476 -0.240475 1.59948e-20)
(0.931977 -0.0902867 -2.32027e-20)
(1.04056 -0.0273158 4.33254e-21)
(1.04943 0.00609375 7.63617e-22)
(0.955128 -0.00711305 0)
(1.01005 -0.0121239 -2.66272e-23)
(1.30735 -0.0581759 -4.64541e-20)
(1.01322 -0.0673554 -2.19647e-22)
(1.00521 -0.00753424 0)
(1.12135 0.0145151 4.88426e-20)
(1.18772 -0.0655807 -2.86824e-20)
(1.23256 -0.00777782 -3.66747e-20)
(1.32193 -0.120465 2.87974e-20)
(1.06494 0.174594 -6.63307e-20)
(-0.0962128 0.0113904 0)
(1.0009 -0.00250275 -2.19761e-21)
(0.999471 -0.000906954 0)
(-0.0629477 0.00623711 -6.00057e-20)
(0.995535 -0.00799656 -1.42165e-20)
(1.27935 -0.276142 -1.21814e-19)
(1.15817 0.0634647 0)
(1.05734 -0.0379061 0)
(0.995985 -0.00124546 -4.18882e-21)
(1.06582 -0.108751 1.31083e-20)
(0.99053 -0.00075488 0)
(1.03605 -0.0126792 5.38024e-21)
(1.08645 0.00202128 2.37983e-20)
(1.27628 -0.267285 1.06169e-19)
(1.22727 -0.217854 -3.49104e-20)
(0.653836 -0.313366 -1.03496e-19)
(1.13065 -0.167325 0)
(1.00074 -0.00363435 0)
(1.12693 0.0507696 0)
(0.76895 0.0352283 -1.16609e-19)
(1.00702 -0.0117414 0)
(1.14344 0.0803322 -2.37045e-20)
(1.06261 -0.0246611 -1.0512e-20)
(0.299181 0.0558365 -5.95454e-20)
(0.955932 -0.0411498 0)
(0.0184074 0.00343492 1.13119e-19)
(1.00232 -0.00091839 0)
(1.25432 0.0308422 0)
(1.00002 -0.000302107 6.04039e-22)
(1.16209 0.0410245 2.18477e-20)
(1.01488 -0.0323876 1.76163e-22)
(1.05547 0.0175066 -2.90934e-20)
(1.05916 0.0347991 0)
(1.01713 -0.00202777 0)
(1.02865 0.00185299 0)
(1.01645 -0.00326228 0)
(0.817656 0.121272 4.35364e-20)
(-0.136003 -0.00292432 5.66985e-20)
(1.09406 0.014095 -2.73485e-20)
(0.164593 0.0262326 3.5485e-20)
(0.985767 -0.023711 0)
(1.11648 0.0147884 0)
(1.0861 -0.0404037 -4.29804e-20)
(1.22857 0.0390176 0)
(-0.0659828 -0.0311672 -1.25786e-19)
(1.09385 0.0160295 3.02178e-20)
(1.0192 -0.00230465 0)
(1.0016 -0.435158 0)
(1.0074 -0.0119501 0)
(0.985389 -0.0230278 0)
(1.08712 -0.0358619 2.93313e-20)
(-0.178952 0.00597689 0)
(0.718932 -0.00463143 -1.01938e-20)
(1.26292 -0.00724772 4.44722e-20)
(1.17037 0.198645 0)
(0.725639 -0.210297 8.22725e-21)
(0.948887 -0.0174416 1.11662e-20)
(1.00645 -0.0258497 0)
(1.30788 -0.433302 -6.81048e-20)
(1.00564 -0.00753032 1.03873e-21)
(1.28953 -0.0326097 -2.482e-20)
(1.08642 -0.0230173 9.90265e-21)
(0.999235 -0.00130061 6.7511e-21)
(0.394546 0.0499169 0)
(0.356044 0.0418115 0)
(0.997026 -0.000656925 8.34817e-21)
(-0.185337 0.00308429 -1.2662e-19)
(1.04791 -0.086103 0)
(1.06902 0.137434 7.77881e-21)
(0.940728 -0.336777 0)
(1.13344 0.193758 0)
(0.324474 0.041031 0)
(1.27498 -0.328865 1.18025e-19)
(1.00288 -0.000686448 8.68546e-22)
(1.015 -7.16336e-06 0)
(0.273104 0.0404536 3.11214e-20)
(1.00245 -0.0309179 6.51328e-21)
(1.03124 -0.0197337 -7.6041e-21)
(1.0887 -0.0230907 -2.0821e-20)
(1.00097 -0.0316205 1.46915e-21)
(0.876194 0.147991 0)
(1.15619 0.168613 -1.96084e-20)
(1.15281 -0.00482809 -6.43494e-20)
(0.0802882 0.030535 -3.79902e-20)
(1.1358 -0.00149322 0)
(1.1599 0.101248 -3.50605e-20)
(1.06176 -0.0239127 -4.9852e-21)
(1.00306 -0.00413611 -7.79418e-22)
(1.01506 -0.00141546 -2.21023e-21)
(1.00995 -0.00673083 0)
(-0.175963 0.00443633 -6.29489e-20)
(0.230884 0.0146062 -1.51859e-20)
(1.12966 0.196679 1.78663e-20)
(0.995767 -0.00102517 0)
(1.01897 -0.00209966 0)
(1.05983 0.03624 1.66715e-20)
(1.01633 -0.0215772 1.76792e-21)
(1.12301 -0.0304995 -2.33735e-20)
(0.973254 -0.0859124 0)
(1.24833 -0.48625 0)
(0.398946 0.0690867 -7.09576e-20)
(1.14297 0.0705878 6.52231e-20)
(1.21874 0.101187 2.90587e-20)
(1.1341 0.196576 -2.08187e-20)
(1.03024 -0.0183869 3.66306e-21)
(1.23061 -0.0148954 4.04704e-21)
(1.00688 -0.0262521 -1.16149e-21)
(-0.0582001 -0.0300517 -3.56853e-20)
(1.25466 0.0360803 3.33063e-20)
(0.00398961 -0.0268221 9.2275e-20)
(0.954498 0.0275137 -2.35791e-20)
(1.04572 0.00819597 -1.32229e-20)
(1.08659 0.00404141 -2.04364e-22)
(1.1861 -0.671475 -3.87965e-20)
(0.0731672 0.0307661 2.52613e-21)
(0.0380355 -0.0310421 -1.42913e-19)
(0.791763 -0.107613 5.14513e-20)
(1.2076 -0.145795 -6.19411e-20)
(-0.147533 0.00954014 7.51844e-20)
(1.00205 -0.00198604 0)
(1.21597 0.0934426 -5.19666e-20)
(0.587814 -0.647822 0)
(1.12008 0.130818 2.91572e-21)
(1.00214 -0.00191884 6.04233e-22)
(1.03303 -0.0205617 9.40435e-21)
(1.12374 -0.0144693 0)
(0.0509063 0.0237339 3.12389e-20)
(0.34777 -0.683457 -3.77471e-20)
(1.02932 -0.313222 1.68675e-20)
(0.988584 -0.00779798 -1.42368e-22)
(1.05527 0.0152982 -1.03227e-20)
(0.891131 -0.0586429 1.01012e-20)
(0.175245 -0.200472 1.09242e-19)
(1.03953 -0.0266227 -4.37478e-21)
(1.25869 -0.296995 6.11725e-20)
(1.00428 -0.0148652 0)
(0.987658 -0.051708 0)
(1.23682 -0.0661029 -3.19463e-20)
(1.00691 -0.0114151 -5.16343e-22)
(0.998732 -0.00761094 -1.1048e-20)
(1.04103 -0.0497804 8.23647e-22)
(1.00559 -0.0999718 -1.22537e-21)
(1.00335 -0.00414178 1.39985e-21)
(1.02549 -0.0490189 2.56461e-21)
(1.0216 -0.004982 -3.06737e-21)
(1.09719 0.182704 7.992e-20)
(1.08974 0.221454 -1.60194e-20)
(0.27925 0.0259748 0)
(1.02466 -0.0046934 3.88899e-21)
(0.8776 -0.209267 4.6008e-20)
(0.993185 -0.00195124 -5.54477e-23)
(1.22122 0.0661176 0)
(1.22658 0.0240073 3.60191e-21)
(1.03309 -0.155151 1.94743e-20)
(1.00394 -0.014934 -5.86065e-22)
(1.05124 -0.0050883 1.22943e-20)
(1.1879 -0.398538 -3.79989e-20)
(1.18603 0.0580004 2.05318e-20)
(1.09197 -0.0250442 0)
(-0.128688 0.00503383 1.57462e-19)
(1.11576 0.130923 2.00168e-20)
(0.992685 -0.0231125 0)
(0.98256 -0.022153 -7.84186e-21)
(0.715006 0.167618 0)
(-0.0824997 -0.0363766 -2.31451e-19)
(1.1152 -0.186572 0)
(1.01641 -0.00437756 2.09304e-22)
(1.16894 0.214592 0)
(1.00088 -0.0034346 -2.88891e-21)
(1.11294 -0.0470766 -3.6562e-20)
(1.02012 -0.00789748 0)
(1.30718 -0.141786 -2.48617e-20)
(-0.0366253 0.00459336 6.35186e-20)
(1.00696 -0.0078374 8.30687e-23)
(1.03793 -0.00156015 6.23551e-21)
(1.2869 -0.0265927 2.36437e-20)
(0.999501 -0.0275853 -6.56806e-21)
(0.758042 0.060011 -5.72352e-20)
(-0.246317 0.00724179 -8.77009e-21)
(1.12353 0.0545514 4.96062e-20)
(0.966162 -0.0128607 1.25565e-20)
(0.999066 -0.00205825 -7.81308e-21)
(1.02027 -0.00771292 3.30475e-21)
(1.00223 -0.000753627 1.45666e-21)
(-0.24443 0.00173274 3.37127e-20)
(1.31543 -0.211242 -6.49508e-20)
(1.21679 -0.126922 -4.90442e-20)
(1.03535 -0.0466382 -3.52031e-21)
(-0.00333191 0.0131389 0)
(1.0051 -0.000261911 0)
(0.995527 -0.016517 -5.62392e-21)
(0.660577 0.0345062 1.9509e-19)
(1.02632 -0.0120168 3.11304e-22)
(0.270385 0.0337961 -5.36851e-20)
(1.01689 -0.00151051 -3.22473e-21)
(0.924137 -0.0940372 2.15979e-20)