/*--------------------------------*- C++ -*----------------------------------*\
| =========                 |                                                 |
| \\      /  F ield         | OpenFOAM: The Open Source CFD Toolbox           |
|  \\    /   O peration     | Version:  v2012                                 |
|   \\  /    A nd           | Website:  www.openfoam.com                      |
|    \\/     M anipulation  |                                                 |
\*---------------------------------------------------------------------------*/
FoamFile
{
    version     2.0;
    format      ascii;
    class       surfaceVectorField;
    location    "1000";
    object      ddtCorrDdt0(Uf);
}
// * * * * * * * * * * * * * * * * * * * * * * * * * * * * * * * * * * * * * //

dimensions      [0 1 -2 0 0 0 0];


internalField   nonuniform List<vector> 
27882
(
(-1.09872e-05 0.00516484 -3.08764e-19)
(-0.000815425 0.00537648 -3.06711e-19)
(-0.000444774 0.00429933 7.00833e-20)
(-0.0117925 0.0639493 -5.54124e-20)
(-0.0212005 0.0692174 2.3128e-18)
(-0.0198639 0.0583983 8.7991e-20)
(4.69578e-05 -5.39828e-06 1.45144e-19)
(5.22287e-05 -7.83057e-06 8.15391e-19)
(4.83929e-05 -1.11523e-05 1.14312e-19)
(0.000836503 0.0061242 -5.06461e-19)
(0.000796219 0.00490412 -6.25386e-20)
(0.00224161 -0.00743279 -7.41531e-19)
(0.00139738 -0.00810394 -1.70393e-18)
(0.00264367 -0.00837457 -1.27318e-18)
(2.17351e-05 7.58246e-06 5.57447e-20)
(2.41136e-05 1.07723e-05 4.35758e-20)
(2.50816e-05 8.54314e-06 2.71088e-20)
(0.000318083 1.41367e-05 9.02869e-20)
(0.000326391 1.27007e-05 -5.41884e-21)
(0.000321274 3.90149e-05 -1.52851e-19)
(0.0019236 2.11905e-05 1.12272e-19)
(0.00205614 9.87941e-05 -1.09067e-18)
(0.00207754 -9.37589e-05 -9.27285e-19)
(0.00306333 -0.0067612 7.4557e-19)
(0.00196711 -0.00658503 1.42124e-18)
(0.00356627 -0.00616334 4.69857e-19)
(0.00404784 -0.00542034 4.0181e-19)
(0.00309692 -0.005417 -1.83711e-18)
(0.011928 0.0490981 2.03728e-19)
(0.00444954 0.0493869 1.23334e-20)
(0.00963121 0.0406857 1.49983e-19)
(0.0655793 0.0356123 1.64682e-19)
(0.0554567 0.0681232 9.57438e-19)
(0.0691875 0.0664904 -1.17969e-18)
(0.0389466 -0.0282364 -4.04676e-19)
(0.0333979 -0.0294016 -7.69706e-19)
(0.0371371 -0.0346762 -2.08102e-22)
(0.00102541 0.00142521 2.58175e-19)
(0.000962575 0.00150947 3.21582e-18)
(0.000912775 0.00138692 -4.33279e-19)
(0.000306338 -2.75818e-05 4.60711e-20)
(0.00031288 -6.25921e-06 3.61366e-21)
(0.000311096 -3.6965e-05 -1.18453e-20)
(0.000214499 -7.29755e-05 -2.89018e-20)
(0.000208992 -7.31884e-05 -1.37076e-20)
(0.000209567 -8.04598e-05 -8.17607e-21)
(0.0742806 0.00221646 1.54722e-18)
(0.0651013 0.00453404 -9.18729e-19)
(8.9392e-05 -1.23107e-05 -8.39438e-20)
(8.65888e-05 -1.18983e-05 -1.29802e-20)
(0.000300451 -4.54137e-05 -9.90044e-20)
(0.000300511 -1.54504e-05 -2.71535e-20)
(-0.00188347 -0.00155991 4.12581e-20)
(-0.00223101 -0.0017481 -4.87386e-19)
(-0.00178201 -0.00193372 -2.36474e-19)
(-0.0713249 0.0572775 -6.87298e-19)
(-0.0608903 0.0805568 -3.08193e-18)
(-0.0569716 0.0666091 1.16736e-19)
(-0.0472343 -0.0360826 -1.74668e-19)
(-0.071407 -0.0390406 -5.34626e-19)
(-0.078539 -0.0362282 -6.62285e-19)
(2.17144e-05 4.0962e-06 4.07402e-20)
(1.82389e-05 6.24487e-06 -3.56989e-20)
(1.70132e-05 -5.41042e-06 1.45877e-19)
(1.48268e-05 -6.09979e-06 1.82214e-19)
(1.65008e-05 -8.13442e-06 1.19857e-19)
(-0.0237353 -0.0351022 -1.68881e-19)
(-0.0141078 -0.0377004 7.36778e-19)
(-0.188554 0.097285 8.64633e-19)
(-0.172404 0.0935447 3.35936e-19)
(-0.187194 0.0794727 -1.1385e-19)
(0.0511417 -0.00397798 -5.49275e-18)
(0.0334661 -0.0294483 -6.29532e-18)
(0.0517025 -0.0722056 -2.72651e-18)
(0.0587906 0.00950585 -2.93296e-20)
(0.0560238 0.0125551 3.29498e-19)
(0.0612815 0.0125398 -3.44372e-20)
(-0.0107016 0.0371614 2.68257e-18)
(-0.010514 0.0403675 1.71655e-18)
(-0.00805599 0.0380057 -8.60343e-19)
(-0.0359731 0.0939515 -1.50183e-18)
(-0.0432949 0.0907469 3.25383e-19)
(-0.0414923 0.0802776 1.91634e-18)
(-0.0542138 -0.531744 1.46301e-17)
(-0.0985188 -0.59373 -3.34763e-18)
(-0.0919833 -0.602924 -9.18202e-18)
(0.0658054 0.00862026 2.82398e-18)
(0.0475543 0.029826 7.03513e-18)
(0.00179523 -4.64639e-05 2.64104e-19)
(0.00178027 9.96071e-05 7.37486e-19)
(-0.0379942 -0.0546561 -1.54858e-19)
(-0.0264883 -0.0617418 -7.2792e-19)
(-0.0375258 -0.0701771 1.37499e-18)
(0.00045763 -0.00881129 1.16524e-20)
(-0.000390023 -0.00958615 3.16611e-19)
(0.00090266 -0.00989201 -1.1392e-19)
(-0.0244473 0.0939569 2.91325e-18)
(-0.0260396 0.106824 1.96457e-18)
(0.0397842 -0.0231387 8.61153e-19)
(0.0440104 -0.0277661 -4.4424e-19)
(0.000295881 -0.00782572 3.25355e-19)
(-0.0239349 0.523955 -3.56146e-20)
(-0.019958 0.520558 -2.72887e-18)
(-0.0275646 0.509496 1.52126e-17)
(-2.95401e-05 0.000215225 -4.23561e-20)
(-4.32679e-05 0.000177377 -4.24938e-20)
(3.663e-06 0.0001882 -5.96563e-21)
(0.0101047 0.116061 2.31067e-18)
(0.00766293 0.134176 1.58582e-18)
(0.0014686 0.143799 -2.38667e-18)
(0.00574185 -0.00421191 -5.23469e-19)
(0.00676709 -0.00463617 -6.68738e-19)
(0.00571298 -0.00513541 -5.99104e-20)
(0.0549847 -0.0106323 -5.41313e-19)
(0.0529663 0.000703098 -1.70475e-18)
(0.0538211 0.000348243 -8.06252e-20)
(0.00116403 -0.000287347 1.30793e-20)
(0.00118089 -0.000128956 -5.49779e-20)
(0.00139823 -0.000239177 -4.19546e-19)
(0.000129065 -1.32473e-05 1.68174e-19)
(0.00013327 -1.57597e-05 2.01213e-19)
(0.000129005 -1.89963e-05 1.5623e-19)
(-0.0232132 -0.460118 -1.15455e-18)
(-0.0558906 -0.480786 1.44176e-18)
(-0.0822114 -0.545603 -1.2934e-18)
(0.00578059 -0.00355059 -3.74394e-19)
(0.0049745 -0.00400887 1.10314e-19)
(-0.00269539 0.0409035 3.69636e-19)
(-0.000432865 0.0387927 -1.18179e-18)
(0.000117279 0.042463 -3.30563e-18)
(-0.0279329 -0.222327 1.53694e-18)
(-0.0208426 -0.227598 4.20878e-18)
(-0.0308835 -0.230551 7.79514e-18)
(0.00315244 0.00388179 8.1472e-20)
(0.00257813 0.00459795 -4.48428e-20)
(0.00245395 0.00351803 -5.82173e-20)
(0.0202396 0.0465819 -3.44003e-19)
(0.0137511 0.0583841 -1.14999e-18)
(-0.188343 0.0688207 3.83028e-20)
(-0.194863 0.0515737 1.7196e-18)
(-0.226186 0.0867103 -4.48302e-19)
(0.00416473 0.00417394 5.00593e-20)
(0.00351026 0.00313273 -6.75538e-20)
(0.000793155 0.00298409 -8.45736e-21)
(0.0010764 0.00267643 3.34531e-19)
(0.0012355 0.00322608 2.82237e-19)
(-0.0599237 0.00281328 7.63366e-19)
(-0.0600034 -0.000786574 1.10739e-18)
(-0.063423 0.00125973 -3.32054e-19)
(0.0278621 -0.0301935 1.63633e-19)
(0.0297115 -0.0254179 -1.37991e-18)
(-0.00059282 -0.000319909 3.88865e-20)
(-0.000520199 -0.000391612 -2.12694e-20)
(-0.000614646 -0.000446756 1.90363e-19)
(-0.00156466 -0.0014344 4.16815e-19)
(-0.00191955 -0.00123976 4.20301e-19)
(0.00165173 0.036718 -1.6319e-18)
(0.0042758 0.0376036 6.87505e-19)
(0.003395 0.0345922 -1.82505e-18)
(-0.000683469 -0.000243255 -1.07209e-19)
(-0.000571159 -0.000204865 1.48735e-19)
(0.000137993 -1.30419e-05 2.29475e-20)
(0.000133869 -1.11433e-05 -1.11371e-19)
(0.00013712 -1.19621e-05 -2.1814e-19)
(0.00108557 -0.00046611 -1.36613e-19)
(0.00096144 -0.000316114 3.64779e-20)
(0.0785692 -0.0428831 2.1361e-18)
(0.0794404 -0.0342154 2.00565e-18)
(0.155302 -0.11543 1.52751e-18)
(0.160077 -0.0977079 -3.19645e-18)
(0.139476 -0.0895455 3.03904e-18)
(0.000145631 -9.77057e-06 5.26976e-20)
(0.000134738 -1.14682e-05 2.58122e-19)
(0.00797634 -0.105452 7.67023e-19)
(0.0163044 -0.0992171 5.2835e-20)
(0.0130972 -0.112184 8.37052e-20)
(2.32427e-05 6.87533e-06 7.62578e-20)
(2.49482e-05 3.55055e-06 3.04736e-19)
(2.0336e-05 3.5236e-06 -3.14597e-19)
(-3.65799e-05 8.78288e-05 -2.9713e-19)
(-3.54238e-05 8.86758e-05 -1.22825e-19)
(-4.92418e-05 9.94843e-05 2.76763e-19)
(0.0557378 0.00630358 -9.36227e-19)
(0.0605452 0.00574639 -6.78184e-19)
(9.11041e-05 1.4847e-05 -4.18148e-21)
(9.42983e-05 -1.32346e-05 -9.83833e-21)
(-0.142245 0.0461397 1.7436e-18)
(-0.174548 0.0818281 3.42883e-19)
(-0.219498 0.0838862 1.92347e-18)
(-0.2129 0.0946143 7.91212e-19)
(-0.205895 0.0746229 1.66541e-18)
(0.000263358 -0.000208419 1.05417e-19)
(0.000273128 -0.000212148 8.78653e-20)
(0.00026613 -0.000216637 9.969e-20)
(-0.00113897 -0.00641435 2.55549e-19)
(-0.000505814 -0.00610516 -8.32496e-20)
(-0.00102364 -0.00571525 4.85532e-19)
(-0.00663433 -0.0453209 -4.65912e-19)
(-0.00263747 -0.0439347 -3.69222e-19)
(-0.00573678 -0.0402907 -1.70142e-18)
(-0.00525962 -0.447463 3.35406e-18)
(-0.00775164 -0.441495 6.61803e-18)
(-0.0362517 0.00803731 1.23913e-18)
(-0.0429718 0.00196487 1.84959e-18)
(-0.0448517 0.0182746 9.91184e-19)
(0.0784298 -0.0332649 1.17109e-19)
(0.0722387 -0.0337116 -2.77481e-18)
(0.0773698 -0.0436513 -8.45857e-19)
(0.00410919 -0.00686349 -1.13199e-18)
(0.0560519 -0.0193972 2.15142e-19)
(0.0540749 -0.0187253 1.04292e-18)
(-0.0322148 0.0182468 3.14728e-18)
(-0.0323976 0.0158679 3.64152e-18)
(-0.0346867 0.0175794 3.6471e-18)
(-0.0166546 0.522582 -5.98919e-18)
(-0.0247324 0.512101 -5.04651e-18)
(0.0787679 -0.0186571 1.38053e-18)
(0.0799735 -0.0324951 6.08018e-19)
(-0.000612499 -0.0228513 -5.74633e-19)
(-0.00132348 -0.025079 1.88588e-20)
(0.00100022 -0.0246117 -1.4046e-18)
(0.00238498 0.000729298 5.93137e-19)
(0.0021814 0.00039668 2.40157e-19)
(0.00263466 0.000392901 3.02183e-19)
(-0.0475309 0.00164995 -1.97916e-19)
(-0.0506803 0.00206168 1.39264e-18)
(-0.0482258 0.00469422 3.6357e-18)
(-0.00123679 0.00261768 4.66405e-19)
(-0.00112438 0.0024151 -3.50771e-19)
(-0.00118421 -0.00729365 8.07653e-20)
(-0.00190969 -0.00665026 -9.33429e-20)
(0.0627915 -0.0506816 1.60447e-18)
(0.0710213 -0.0392226 -8.61702e-18)
(-0.0463002 -0.00100132 3.24029e-19)
(-0.044833 0.00184931 2.06212e-18)
(0.066231 -0.0178563 -7.29661e-18)
(0.0884014 -0.00682118 3.0258e-18)
(0.10688 -0.0282245 -2.6471e-18)
(0.000180288 -1.29072e-05 4.06159e-19)
(0.000168784 -1.28544e-05 1.13005e-19)
(0.000157513 -1.82114e-05 3.46385e-19)
(-0.0211292 0.0111449 2.77478e-19)
(-0.0213089 0.0097478 3.3351e-18)
(-0.0227435 0.0111918 -3.70076e-18)
(-0.0166566 -0.222405 -7.53837e-18)
(-0.027196 -0.230907 4.20548e-19)
(0.00026114 -0.000205375 -6.4581e-20)
(0.000257738 -0.000203927 -2.88268e-20)
(6.0152e-06 6.88523e-06 1.69492e-19)
(4.45755e-06 3.15882e-06 3.72053e-19)
(6.9481e-06 -3.59132e-06 -2.79673e-19)
(0.000100698 0.000103617 -1.14964e-20)
(0.000104657 9.50427e-05 7.87264e-20)
(0.000110688 8.44291e-05 -4.45582e-21)
(-0.00398371 0.0218739 1.52186e-18)
(-0.00524736 0.0210871 -1.73723e-18)
(-0.00525318 0.0229876 -1.97511e-18)
(0.0641978 -0.0442053 4.25765e-18)
(0.0645818 -0.0329486 1.54859e-18)
(0.0532449 -0.0318679 -4.41604e-18)
(0.000157209 -7.43938e-05 -4.91029e-20)
(0.000163153 -6.94827e-05 6.54917e-20)
(0.000152032 -6.73787e-05 -3.38985e-19)
(0.0019557 -0.427427 -3.16258e-18)
(0.0335778 -0.357842 3.98232e-19)
(-0.00851456 -0.00262598 8.27628e-19)
(-0.00847572 -0.00373001 1.51978e-19)
(-0.00753344 -0.00296806 -1.34491e-19)
(-2.40828e-05 7.51077e-05 5.92274e-20)
(-3.60328e-05 8.67315e-05 -1.67822e-19)
(4.94935e-06 1.86668e-05 -1.50109e-19)
(5.60015e-06 1.20897e-05 -4.56743e-21)
(-0.00099404 -0.113822 9.19767e-19)
(0.00132506 -0.100348 -2.80311e-19)
(-0.0783395 0.0474756 6.57411e-18)
(-0.0716462 0.0401383 2.10101e-19)
(-0.00518548 0.0394466 -1.46218e-19)
(-0.0050584 0.0431552 -1.59409e-18)
(0.0485143 -0.0345682 -2.80495e-18)
(0.028075 -0.0106148 -2.76258e-18)
(-0.0397767 -0.0391493 1.46437e-19)
(-0.038013 -0.0543535 2.76124e-19)
(-0.0453697 -0.0367386 -6.90762e-19)
(-0.036285 0.154866 -2.88577e-19)
(-0.0478239 0.149158 -2.47529e-19)
(-0.0523145 0.126735 3.35776e-19)
(0.00022853 -4.94102e-05 -1.45214e-20)
(0.000222595 -5.39401e-05 -5.29529e-20)
(0.000225622 -4.18704e-05 -1.31538e-20)
(0.150675 -0.125769 2.44065e-19)
(0.163313 -0.123392 -2.02154e-18)
(0.00665331 0.00525293 2.96807e-19)
(0.00547509 0.00569672 -4.01837e-19)
(0.00543518 0.00438509 4.37584e-19)
(3.99381e-05 3.83365e-06 -3.50681e-19)
(3.81906e-05 2.3412e-06 -8.07677e-20)
(4.22196e-05 1.34716e-06 -3.14597e-19)
(-0.00945761 -0.0021276 1.20413e-18)
(-0.0083355 -0.00151523 -3.75958e-19)
(0.113374 0.0111257 -7.27682e-19)
(0.116368 0.00669049 1.69367e-18)
(0.111931 0.00337242 -4.72994e-19)
(-0.00242428 0.0227584 3.20432e-19)
(-0.00258063 0.0208179 5.08397e-19)
(-0.000442881 0.000213848 -3.07212e-20)
(-0.000504903 0.000192597 -1.39527e-19)
(-0.000422273 0.000159338 -3.90089e-19)
(0.132299 0.0152879 -3.05736e-18)
(0.143553 0.00444882 4.88671e-19)
(0.152414 0.0117418 -1.63727e-18)
(0.00234742 0.00185652 4.0913e-20)
(0.00275847 0.00155607 3.92895e-19)
(0.00288401 0.00211638 -8.18116e-20)
(3.77739e-05 -6.73977e-06 -7.46135e-19)
(4.08035e-05 -6.40715e-06 -1.41523e-19)
(3.92166e-05 -9.71939e-06 -8.59949e-21)
(-0.0290498 0.00292828 1.40338e-18)
(-0.031297 0.0162292 -2.66397e-18)
(0.00256875 0.00110337 6.41526e-19)
(0.002085 0.000982629 6.7694e-20)
(0.000139957 7.45336e-05 1.2406e-19)
(0.000137295 6.51959e-05 5.04188e-19)
(0.000137244 5.30185e-05 -2.62563e-19)
(-0.0849457 -0.266082 6.16375e-18)
(-0.0773916 -0.258388 1.54595e-17)
(-0.0831305 -0.239328 -2.02363e-17)
(0.000418018 0.0032419 -3.37783e-19)
(0.000474476 0.00269781 1.4659e-19)
(0.000852032 0.000120014 7.59913e-19)
(0.00086494 1.71095e-05 -1.34667e-19)
(0.000738069 6.22899e-05 1.82127e-19)
(0.000140275 9.36662e-05 1.82187e-19)
(0.000138184 7.95249e-05 5.86232e-19)
(-0.0299642 0.0743787 2.81481e-18)
(-0.0283887 0.0679475 -1.09053e-18)
(-0.0237345 0.0733674 8.94248e-19)
(-0.00978094 -0.185929 4.96709e-18)
(-0.00363761 -0.185892 5.85412e-18)
(-0.000866222 0.0356707 2.23999e-18)
(0.000106973 -8.20517e-06 -2.2355e-19)
(0.000105541 -6.1175e-06 -7.80296e-20)
(9.7986e-05 -1.28467e-05 -7.29326e-20)
(0.00716211 0.0013825 9.69981e-20)
(0.00731382 0.000807629 -6.0261e-19)
(0.0078182 0.00123172 -2.28044e-20)
(-0.0420491 -0.192296 2.70719e-19)
(-0.0367315 -0.184651 1.36713e-19)
(-0.0519171 -0.178895 6.7494e-19)
(-8.07852e-05 0.000250711 9.13352e-20)
(-1.63767e-05 0.000247675 -9.43003e-20)
(5.34977e-05 4.95632e-06 6.21854e-20)
(5.53143e-05 4.2951e-06 -1.80694e-19)
(5.91244e-05 5.29964e-06 2.33901e-19)
(0.0346547 0.0692727 8.35362e-19)
(0.0225532 0.0749656 -4.10032e-18)
(0.0350008 0.0961947 -3.26247e-18)
(0.00155234 0.00149137 -7.07492e-21)
(0.00194845 0.00163071 -2.15769e-19)
(0.00180974 0.00123658 -5.04887e-19)
(0.0595244 0.0578641 4.10485e-19)
(0.0664649 0.0598171 -6.20086e-18)
(0.0635025 0.052624 -9.56684e-19)
(-0.0318934 0.0210907 -3.45957e-18)
(-0.029904 0.0191988 -3.87238e-18)
(0.00793641 0.00433986 5.39692e-19)
(0.00819865 0.00586743 4.20461e-19)
(0.0343638 0.130875 2.67308e-18)
(0.0192954 0.158786 3.02783e-18)
(0.0240129 0.144871 5.26913e-19)
(-0.00523364 0.0141336 1.40531e-18)
(-0.00585048 0.0134357 -7.29365e-19)
(-0.00622433 0.0146858 -5.24662e-18)
(-0.0423692 -0.0138938 -1.53699e-18)
(-0.0317532 -0.0359908 -8.32481e-19)
(-0.0916968 -0.277229 1.07072e-17)
(-0.0784754 -0.282793 2.9319e-18)
(-0.012446 0.0078933 -1.8996e-19)
(-0.0124274 0.00692418 -1.54592e-18)
(-0.0134455 0.00762006 -2.55575e-18)
(-0.00714562 -0.121521 -9.54847e-19)
(0.000502742 -0.125957 -4.35686e-19)
(-0.0276818 0.0628179 -1.81994e-18)
(-0.0225047 0.0615812 -6.61337e-19)
(-0.0264181 0.0573504 6.39479e-19)
(-0.00341701 0.0579516 -6.61473e-19)
(-0.00335033 0.047951 -2.06549e-19)
(-0.228856 0.387061 -1.24656e-18)
(-0.197523 0.368136 -1.39195e-17)
(-0.21714 0.371005 -4.86363e-18)
(-0.0399953 -0.180874 2.07298e-17)
(-0.0647918 -0.218583 2.25449e-17)
(-0.0719665 -0.181569 1.10578e-17)
(-0.00719737 -0.191275 -8.15826e-18)
(-0.00615796 -0.197836 9.23963e-18)
(-0.0138657 -0.208631 1.68915e-17)
(0.00024206 0.00033256 5.67041e-19)
(0.000238694 0.00034213 -4.36448e-19)
(0.000258298 0.000348519 5.09089e-19)
(-0.00135059 -0.0096257 -3.37654e-19)
(-0.00208496 -0.00857118 2.33543e-19)
(-0.00271313 -0.00981001 -1.67884e-19)
(0.00938506 0.0947325 6.49284e-19)
(0.0143926 0.0872018 4.77188e-18)
(0.106045 0.0775191 -2.1992e-18)
(0.109907 0.089422 -2.55419e-18)
(-0.0209205 0.0129971 -3.28827e-18)
(-0.0196623 0.0112625 -3.78976e-18)
(-0.0335917 0.0800573 4.99011e-18)
(-0.0367725 0.0732708 -1.19583e-18)
(-0.00696321 -0.0248393 1.96321e-19)
(-0.00822235 -0.0276295 -4.26408e-19)
(-0.00980679 -0.0247247 -3.21209e-19)
(-0.00302543 0.0686079 2.66583e-18)
(0.0827065 0.196953 8.71645e-19)
(0.0564952 0.227777 2.23127e-18)
(0.12262 0.178486 1.91053e-18)
(0.000136228 8.00692e-05 -5.03724e-20)
(0.000134608 7.67382e-05 7.39078e-20)
(0.000141765 9.32566e-05 2.12729e-19)
(0.00421588 -0.196857 -6.41007e-18)
(-0.0025302 -0.201039 3.77665e-18)
(0.0126439 -0.191185 -5.18065e-18)
(-0.0126943 -0.128663 -4.01237e-19)
(-0.0164265 -0.116843 4.21292e-19)
(0.000191403 -0.323931 6.77165e-19)
(-0.0254122 -0.318105 7.673e-20)
(-0.0645504 -0.381159 8.94061e-19)
(-0.00106632 0.000267133 3.94019e-19)
(-0.000938389 0.00036373 -2.14935e-19)
(-0.00110828 0.000446646 2.35677e-19)
(0.000133432 6.63383e-05 -1.38868e-19)
(0.000136886 8.17227e-05 -1.45125e-20)
(0.00349036 0.208047 -2.90085e-18)
(-0.0163831 0.238063 -6.63847e-18)
(-0.065027 0.253588 -9.94102e-18)
(-0.0261264 -0.18474 5.08574e-18)
(-0.0218992 -0.216205 -2.91389e-17)
(0.044333 0.10038 9.63411e-19)
(0.04207 0.138217 -4.79227e-19)
(0.0302234 0.137649 -8.08534e-19)
(-0.0128204 -0.193597 -1.05002e-18)
(-0.0111805 -0.181925 -2.56424e-17)
(-0.0108879 -0.192257 -2.25969e-17)
(4.17027e-05 -4.06035e-06 -1.43333e-19)
(3.85951e-05 -3.25271e-06 -2.54196e-19)
(-0.0103922 0.0433303 2.60568e-18)
(-0.00760444 0.0450455 -1.50954e-18)
(-0.0107979 0.0471657 2.81377e-18)
(-0.00713362 0.104411 2.92383e-19)
(-0.00318044 0.102823 2.55896e-18)
(-0.0377749 -0.0642494 -2.33871e-19)
(-0.0322101 -0.0651557 5.70777e-19)
(-1.92721e-05 -0.000223601 1.53477e-19)
(-2.12979e-05 -0.00022671 -5.56429e-19)
(-3.95817e-05 -0.000237576 -1.63476e-19)
(0.000253296 -0.00019991 -3.06584e-21)
(0.000263383 -0.000200586 -2.79688e-20)
(-0.123735 0.0818754 -2.97122e-19)
(-0.128641 0.0729211 -3.76167e-19)
(-0.142757 0.0803036 -1.48723e-18)
(-0.0503982 -0.0475939 -1.78091e-19)
(-0.040423 -0.0410741 -2.85722e-19)
(9.93914e-05 0.000796463 4.39065e-19)
(9.1741e-05 0.000745522 1.40706e-18)
(1.69097e-05 1.87778e-05 -4.1328e-19)
(1.20202e-05 3.09877e-05 -1.51325e-19)
(1.54743e-05 2.68906e-05 -1.20582e-19)
(-0.0010955 0.00276034 -9.24465e-20)
(-0.000903293 0.00233928 1.1509e-18)
(-0.000609105 0.002693 1.60624e-19)
(-0.0567433 0.004481 2.17853e-18)
(-0.0597252 0.00674096 2.20573e-18)
(-3.24761e-05 0.0011574 3.08136e-18)
(-5.42645e-05 0.00124295 9.55378e-19)
(-0.268674 0.433152 -1.92765e-18)
(-0.246043 0.418032 -4.73396e-18)
(-0.252305 0.434761 1.35461e-17)
(0.000190583 0.000208897 1.1134e-19)
(0.000189599 0.000189435 7.66956e-21)
(0.000180261 0.000202605 6.7542e-20)
(-0.0513883 0.0794673 -7.72274e-19)
(-0.0475409 0.0937829 1.19816e-18)
(-0.00417345 0.0121389 1.21943e-18)
(-0.00535259 0.0111192 -8.76818e-19)
(-0.00593039 0.0131826 8.59863e-19)
(-0.0176313 -0.223281 -2.55031e-18)
(-0.018264 -0.221577 9.48153e-19)
(0.0478211 -0.167609 -1.88153e-18)
(0.037052 -0.202935 -6.33856e-19)
(0.0103939 -0.19493 -4.58604e-19)
(-0.00388284 -0.175979 -9.76434e-19)
(-0.00918732 -0.188761 -1.05539e-17)
(0.000202692 0.000208853 3.76531e-19)
(0.000189733 0.000200845 -1.69539e-19)
(0.0365074 0.00858398 -6.45362e-20)
(0.037168 0.0114774 -7.14467e-19)
(0.0392664 0.0082865 -2.73787e-19)
(-0.0913875 -0.0272849 -8.70026e-19)
(-0.0861105 -0.0106957 -4.64988e-19)
(-0.103715 -0.0392293 -3.51774e-19)
(2.83927e-05 -3.22448e-05 -1.07906e-19)
(2.68111e-05 -2.83554e-05 1.03689e-19)
(2.88014e-05 -2.73932e-05 6.57857e-21)
(9.22072e-05 0.00118981 -1.86673e-18)
(3.11618e-05 0.0011349 -9.73614e-19)
(9.47777e-05 0.0011029 -1.00783e-18)
(0.0733975 0.0608791 -1.92388e-18)
(0.0814122 0.0615033 1.77415e-19)
(0.0773538 0.0545077 2.5223e-18)
(0.000244419 0.000323213 5.0124e-19)
(0.000220264 0.000309989 -1.37438e-19)
(-0.0131057 -0.22185 8.39614e-19)
(-0.0193002 -0.224404 5.30921e-18)
(3.62263e-06 1.06877e-05 -1.22514e-19)
(5.63629e-06 1.45888e-05 -7.6219e-20)
(7.98667e-06 1.08487e-05 1.23564e-19)
(0.00231352 -0.000188172 -2.01193e-19)
(0.00193884 -0.000215165 2.51311e-19)
(0.00216066 -0.000545724 2.35428e-19)
(-0.0334832 0.0863785 9.02616e-19)
(-0.0392348 0.0845842 2.94123e-18)
(-0.0213301 -0.093609 -5.96022e-19)
(-0.0272761 -0.0863324 -3.32251e-19)
(-0.0312372 -0.0882683 -2.40717e-18)
(0.000206449 -5.93193e-05 -2.13676e-22)
(0.000200803 -5.89401e-05 -1.41258e-21)
(0.000205343 -5.32423e-05 -1.19183e-20)
(0.000232056 -4.307e-05 3.03371e-20)
(0.000230247 -5.57689e-05 1.29253e-20)
(0.0143022 -0.195035 4.2825e-18)
(0.00182362 -0.205322 -3.56935e-18)
(-0.000117613 -3.16898e-05 1.60618e-19)
(-0.000106941 -5.7638e-05 9.45335e-19)
(-0.000155078 -5.94925e-05 -3.85525e-19)
(-0.000891751 -0.0108503 1.01138e-18)
(0.0020786 -0.160332 2.65426e-17)
(0.00187553 -0.168141 -8.3646e-18)
(-3.71068e-06 3.27823e-06 3.29393e-20)
(-2.5914e-06 1.81094e-06 -2.11317e-19)
(-1.13108e-05 3.9843e-06 -5.58782e-20)
(-0.0211359 0.014683 -1.53466e-18)
(-0.0212653 0.0163533 2.67834e-18)
(-0.0229557 0.014755 4.42487e-18)
(0.00246171 0.000275422 5.85346e-20)
(0.00277996 -0.000117378 -8.0389e-20)
(8.80958e-05 0.00197905 -1.03673e-19)
(0.000319603 0.00171833 -2.73119e-20)
(1.23436e-05 0.00164068 7.64679e-20)
(-0.00120243 -0.000856823 -8.99947e-20)
(-0.00128342 -0.00107707 -9.99561e-21)
(-0.00147419 -0.000917083 1.8489e-19)
(9.72349e-05 0.000112245 -6.23534e-21)
(9.11423e-05 0.000116257 -5.15122e-20)
(0.000214868 -8.60379e-07 5.13782e-20)
(0.000216118 -3.67978e-06 1.39551e-20)
(0.000215579 1.43199e-06 -4.4175e-21)
(-0.0195303 0.0145579 6.11834e-19)
(2.67815e-05 1.44266e-05 5.67728e-20)
(2.24439e-05 1.24719e-05 -5.5423e-20)
(-0.00342782 0.164255 -3.7825e-19)
(0.0064844 0.145286 -2.00442e-18)
(-0.00327549 0.157452 -7.16145e-19)
(-0.0912408 -0.0467858 -1.43858e-19)
(-0.0761704 -0.0272934 1.59722e-18)
(0.00020961 0.000165715 1.8001e-19)
(0.000210696 9.01028e-05 3.92964e-19)
(0.000292633 8.53901e-05 -6.5505e-20)
(-0.00427689 0.0149799 -2.561e-18)
(-0.00424774 0.013452 3.5441e-20)
(-0.0345602 0.0948903 1.02761e-18)
(-0.0258108 0.0884685 -5.41846e-19)
(-0.00873751 -0.0970109 -1.00014e-18)
(-0.013855 -0.0965635 -1.6673e-18)
(-0.0245955 -0.000709604 -2.7317e-19)
(-0.0262831 0.0184778 -3.855e-19)
(-0.0295878 -0.00112682 2.31429e-19)
(-0.0115079 -0.0458844 2.83683e-20)
(-0.00816954 -0.0504929 -3.32013e-19)
(-0.0402829 -0.00755821 -1.29506e-18)
(-0.0424165 -0.00684683 9.46025e-18)
(-0.0419124 -0.0094712 2.70372e-18)
(0.0332183 0.218996 -2.73121e-18)
(0.100002 0.172292 -8.84155e-19)
(-0.00012552 -1.96288e-05 3.32338e-19)
(-9.39232e-05 -1.16171e-05 -3.98031e-19)
(-0.203302 0.102421 6.17212e-19)
(-0.187489 0.112273 2.18149e-18)
(-0.0124054 0.00899831 5.01688e-19)
(-0.0115362 0.00825022 3.01912e-18)
(-0.0466708 -0.0547126 -3.67025e-20)
(-0.0421641 -0.062676 1.10971e-18)
(5.36891e-05 3.44251e-06 -7.67288e-20)
(5.15423e-05 5.47257e-06 3.27363e-19)
(0.00013807 -1.8996e-06 -1.13936e-19)
(0.000137299 2.09505e-06 3.11406e-20)
(0.000134353 -8.33419e-07 -2.57963e-20)
(0.00023181 0.00026575 2.08277e-19)
(0.000119405 0.000237607 2.40798e-19)
(0.0203397 -0.0391125 2.36008e-18)
(0.0238897 -0.039259 -1.39417e-18)
(0.0213722 -0.0426527 1.17178e-18)
(-0.0274188 -0.227531 -9.65586e-18)
(-0.0342086 -0.228749 -9.54163e-18)
(-0.0320572 -0.225451 -2.15484e-17)
(0.0896438 0.0620975 -2.47827e-18)
(0.0974143 0.0627088 -3.75237e-19)
(0.0939634 0.0547696 1.93899e-18)
(0.000932843 0.000166038 3.90836e-19)
(0.00091051 8.64147e-05 -7.56804e-20)
(0.000865992 0.000165658 4.56762e-19)
(0.000236475 -3.56165e-05 -1.91587e-20)
(0.000239268 -4.72597e-05 -1.96072e-20)
(0.000242606 -2.78195e-05 3.55481e-20)
(0.0193444 -0.035868 2.01325e-18)
(0.0169135 -0.0386424 2.33742e-18)
(0.0539458 0.0554989 4.84264e-18)
(0.0477926 0.0526901 3.25276e-20)
(0.0519077 0.0486018 2.19953e-18)
(2.65695e-05 1.27948e-06 1.86171e-21)
(2.69091e-05 1.70698e-06 1.00548e-19)
(2.70645e-05 1.44793e-06 5.66087e-20)
(-0.240576 0.400644 1.47778e-18)
(-0.254258 0.397808 8.34512e-18)
(0.0597075 0.138378 3.90217e-18)
(0.0557973 0.151956 -1.23017e-18)
(0.0429381 0.13831 5.41536e-18)
(0.000136972 -5.26292e-06 -3.6782e-20)
(0.000136484 -3.99002e-06 -1.15517e-20)
(0.000135148 -3.78644e-06 2.39373e-19)
(4.96676e-05 2.69608e-05 -7.70492e-19)
(4.86398e-05 2.69603e-05 1.60355e-19)
(5.19242e-05 1.62833e-05 -4.96958e-19)
(-0.00235311 0.000462729 5.05753e-20)
(-0.00208524 0.00066429 1.65028e-19)
(-0.00198018 0.000329397 -3.48504e-19)
(0.000147432 -8.08627e-05 6.70938e-20)
(0.000160525 -8.43436e-05 9.99513e-20)
(-0.0125713 -0.193657 3.76776e-17)
(-0.0156497 -0.204258 2.90637e-17)
(0.00105182 0.000277148 -4.82843e-19)
(0.0011243 0.000386931 -9.89394e-20)
(0.00093063 0.000374746 -9.15111e-21)
(-0.033262 0.035008 5.02934e-19)
(-0.038095 0.0257785 -1.0904e-19)
(-0.0347231 0.0408981 -6.06011e-19)
(0.000246986 0.00037768 -2.32981e-19)
(0.00035677 0.000266142 1.8043e-19)
(3.12014e-05 2.88628e-06 -1.78288e-20)
(3.19767e-05 4.27435e-06 3.85599e-20)
(2.93898e-05 3.34418e-06 8.29524e-21)
(0.119835 0.0803123 2.11845e-19)
(0.105859 0.0822084 1.22305e-18)
(0.115952 0.0899652 3.07464e-19)
(-0.00100568 0.000134409 4.51498e-19)
(-0.000940021 5.97246e-06 1.72811e-19)
(-0.000833068 0.00010983 3.54391e-19)
(-0.23186 0.0895885 2.60434e-18)
(-0.223728 0.067344 2.13805e-19)
(0.000216515 1.75621e-05 -6.43868e-20)
(0.000214137 1.54592e-05 8.80398e-20)
(0.000216716 1.14965e-05 -4.70302e-20)
(-0.0826502 -0.0262387 -3.72344e-19)
(-0.0617915 -0.083191 6.14689e-18)
(0.004285 0.0058715 4.41692e-19)
(0.00511405 0.00699982 -2.3771e-21)
(0.000138076 7.08522e-05 -2.41873e-19)
(0.000140125 4.74993e-05 8.65727e-19)
(0.000134999 -5.0532e-06 -1.80699e-19)
(0.000136944 -6.37241e-06 -2.41764e-19)
(0.033714 0.0089998 2.79975e-20)
(0.0355544 0.00625095 6.33451e-20)
(0.0962527 -0.0656828 3.80693e-19)
(0.0950733 -0.0633639 2.62023e-19)
(0.0961892 -0.0604776 -1.07872e-18)
(0.0994914 -0.0661341 1.3227e-19)
(0.0983234 -0.0704749 -2.31175e-19)
(0.000137249 7.25587e-05 -7.586e-19)
(0.000137618 8.94468e-05 -1.01831e-18)
(0.0552968 0.062963 6.65786e-19)
(0.000238054 0.000357793 4.06002e-19)
(0.000226695 0.000338685 -2.43731e-19)
(0.000402959 -0.000335771 1.44057e-19)
(0.000382624 -0.000375141 -5.76824e-20)
(0.000443405 -0.000373783 -3.26472e-20)
(0.130305 -0.00943029 5.44888e-19)
(0.13461 -0.00105989 2.12719e-18)
(0.123925 -0.0027191 -2.965e-18)
(-0.196135 -0.0407143 3.11603e-19)
(-0.20237 -0.0229216 -6.10951e-22)
(-0.210859 -0.0218905 -4.48254e-19)
(0.000421162 -0.000300572 2.36025e-19)
(0.000374016 -0.000304872 -1.48411e-19)
(-0.000117446 1.91799e-05 3.61882e-19)
(-0.00012287 8.13555e-06 -2.05351e-19)
(-0.000146513 9.37128e-06 -7.72109e-20)
(-0.00119539 -0.000430201 7.42388e-20)
(-0.00158207 -0.000541366 2.52816e-20)
(-0.00129967 -0.000854859 2.47712e-21)
(-0.00111147 -0.000694578 -1.12524e-19)
(-0.000966145 -0.000828188 -1.87434e-19)
(0.00470301 0.00332682 4.77864e-19)
(0.00434127 0.00321711 -2.38636e-19)
(0.00441257 0.00362866 -2.4597e-19)
(3.12612e-05 1.6416e-05 -2.98669e-20)
(2.895e-05 1.8799e-05 1.43637e-20)
(-0.000145957 0.00225988 -5.28237e-19)
(0.000242916 0.00239431 3.44785e-21)
(0.00106213 0.00135239 -3.38785e-19)
(0.00111828 0.0014658 7.03324e-19)
(5.12251e-05 2.76133e-05 -2.11547e-19)
(4.87026e-05 3.70418e-05 -7.5157e-19)
(0.000102542 -7.56181e-06 9.95439e-20)
(8.95673e-05 -1.23826e-05 -4.21893e-19)
(9.36878e-05 -7.45443e-06 8.36794e-20)
(0.000238982 2.43294e-05 1.00673e-19)
(0.000239211 4.48414e-06 -6.91184e-20)
(0.000235534 1.96608e-05 1.38624e-20)
(-0.0166228 -0.135707 6.09208e-19)
(-0.0290681 -0.131878 -7.24069e-20)
(-0.0190549 -0.142596 1.03509e-19)
(0.000310011 2.2267e-05 -4.19631e-20)
(-0.000113601 2.04184e-05 4.01306e-19)
(-9.76409e-05 2.99146e-05 -2.16441e-19)
(6.81615e-05 1.89254e-05 -2.94274e-20)
(6.65698e-05 2.9954e-05 -2.91442e-20)
(6.67994e-05 1.96435e-05 -3.51775e-20)
(0.0443785 0.05707 -1.92213e-18)
(0.042881 0.0503305 -1.4596e-18)
(8.88613e-06 3.03017e-05 -2.99309e-19)
(1.01691e-05 3.97919e-05 -2.18515e-19)
(4.58162e-06 2.94551e-05 -5.18943e-19)
(9.50127e-06 3.01902e-05 7.31156e-19)
(2.43571e-05 1.16594e-06 -2.02341e-20)
(2.15036e-05 2.76423e-07 1.37236e-20)
(0.000273101 0.000854874 -9.74287e-19)
(0.00023597 0.000884626 2.49886e-19)
(0.000290576 0.000917069 -7.73374e-19)
(-0.000436202 -0.00035014 -5.27269e-20)
(-0.000462627 -0.000466861 -1.85938e-19)
(1.66301e-05 -7.4425e-06 8.0129e-20)
(1.54832e-05 -6.91754e-06 1.80242e-19)
(1.22184e-05 -1.07768e-05 1.01093e-19)
(7.07744e-06 -4.96323e-06 -3.31963e-19)
(7.97282e-06 -3.13889e-06 8.46526e-20)
(1.09204e-06 -6.78936e-06 1.75968e-19)
(-0.00333055 0.000786134 -4.4568e-19)
(-0.00387236 0.000972881 -3.1902e-19)
(-0.00372477 0.000308547 -3.92993e-19)
(-0.0233811 -0.022506 1.2712e-19)
(-0.0204396 0.00293735 -5.44992e-19)
(0.000185492 -1.29467e-05 -1.01135e-19)
(0.000188156 -9.76467e-06 -2.02387e-20)
(1.92745e-05 -4.74261e-06 -1.82291e-19)
(1.86208e-05 -3.64228e-06 -1.02848e-19)
(-0.0385653 -0.1592 -5.51134e-18)
(-0.0624725 -0.18826 -2.46932e-17)
(-0.0469042 -0.16473 -4.21527e-18)
(0.000385533 0.00270796 -2.32687e-18)
(0.000219915 0.0025759 -2.19496e-18)
(0.000400364 0.00254872 -2.34102e-18)
(5.07742e-05 -2.13789e-05 4.6368e-20)
(4.44102e-05 -2.45772e-05 5.95627e-20)
(4.70149e-05 -1.71139e-05 2.85904e-20)
(5.61393e-05 -1.79801e-05 -2.90984e-19)
(5.56697e-05 -2.56364e-05 -4.74101e-20)
(0.0191434 0.240443 -2.09016e-18)
(0.0473543 0.175467 -6.2575e-18)
(0.0251826 0.279179 1.36839e-17)
(0.0324693 0.000647343 -2.25574e-19)
(0.0309408 0.00578718 -2.82684e-19)
(0.0285477 0.00156322 1.77195e-20)
(1.9641e-05 8.58259e-06 2.24499e-20)
(1.80698e-05 1.29313e-05 -3.87944e-19)
(-0.00431491 0.0138085 -4.01897e-20)
(-0.00380949 0.0117701 1.73405e-19)
(-0.00204442 0.0129391 1.52081e-19)
(-0.0842177 0.0327725 2.7249e-18)
(-0.0853586 0.0467944 3.24636e-18)
(0.00125642 -0.000634216 4.07379e-19)
(0.0009757 -0.000619514 -1.24816e-19)
(0.0231112 -0.0306008 1.38225e-18)
(0.025755 -0.0352722 -3.62894e-19)
(0.000236486 4.19367e-05 4.14995e-20)
(0.000241855 2.97371e-05 5.81958e-20)
(0.112532 -0.0511481 -4.62964e-20)
(0.134461 -0.0296319 -4.51333e-20)
(0.13423 -0.0210563 -2.93302e-19)
(0.0689415 0.0676475 1.02666e-18)
(0.0316687 0.0358516 1.84684e-18)
(0.0302033 0.0393798 -5.45077e-19)
(0.0345413 0.0374129 1.3677e-19)
(-0.0113265 0.0347301 2.69251e-18)
(-0.0131044 0.0367151 1.06467e-18)
(-0.016988 -0.0694237 -9.16171e-19)