/*--------------------------------*- C++ -*----------------------------------*\
| =========                 |                                                 |
| \\      /  F ield         | OpenFOAM: The Open Source CFD Toolbox           |
|  \\    /   O peration     | Version:  v2012                                 |
|   \\  /    A nd           | Website:  www.openfoam.com                      |
|    \\/     M anipulation  |                                                 |
\*---------------------------------------------------------------------------*/
FoamFile
{
    version     2.0;
    format      ascii;
    class       surfaceVectorField;
    location    "750";
    object      ddtCorrDdt0(Uf);
}
// * * * * * * * * * * * * * * * * * * * * * * * * * * * * * * * * * * * * * //

dimensions      [0 1 -2 0 0 0 0];


internalField   nonuniform List<vector> 
27284
(
(0.0549711 0.095654 -1.08119e-18)
(0.0485069 0.0948226 1.09314e-18)
(0.0505296 0.100882 -9.5663e-19)
(1.85735e-06 2.27761e-05 -3.39358e-19)
(-4.48972e-06 2.2271e-05 1.73156e-19)
(-3.38402e-06 3.24742e-05 -9.82702e-19)
(0.079481 -0.0536197 5.54251e-18)
(0.082274 -0.0482838 -1.11664e-17)
(0.0763685 -0.0480279 -1.1388e-17)
(0.000206014 -2.94312e-05 1.88771e-20)
(0.000201689 -3.43183e-05 -4.36516e-19)
(0.000201777 -3.14067e-05 -3.75859e-19)
(-0.00939259 0.0137252 -1.18094e-19)
(-0.0118646 0.0132216 -5.40443e-19)
(-0.00983115 0.0108531 -7.49108e-19)
(-0.0699731 -0.0971953 -5.43765e-19)
(-0.0744825 -0.0739478 5.84988e-19)
(-0.0729031 -0.0968876 -1.64115e-18)
(0.000900192 -0.000458628 -1.64055e-19)
(0.000890665 -0.0002677 1.89821e-19)
(0.00108883 -0.000305299 6.19516e-19)
(-0.00816903 0.0165118 5.53425e-19)
(-0.00680572 0.0137108 -9.37964e-19)
(0.000130694 1.24585e-05 -1.39356e-19)
(0.000128684 1.89788e-05 5.24824e-20)
(0.000136255 1.4467e-05 5.99746e-20)
(0.0550628 0.00091175 -7.12973e-19)
(0.0501594 0.00190066 6.38503e-20)
(0.0522735 0.0145116 -5.93932e-20)
(-0.00414466 -0.00641204 1.03576e-19)
(-0.00427898 -0.00557992 2.94027e-19)
(-0.003392 -0.00601181 4.45062e-19)
(-0.000434122 -0.0449389 -2.12015e-18)
(-0.00101064 -0.0429115 -4.03895e-18)
(0.00124431 -0.0434982 4.40827e-18)
(0.000259772 -0.0472218 3.56843e-18)
(-0.00228715 -0.0464891 3.33881e-18)
(-0.0152264 0.143993 -1.37495e-18)
(0.00463334 0.143875 -6.42481e-19)
(0.00188576 0.12069 -4.34111e-19)
(0.000159438 2.56227e-05 3.07827e-19)
(0.000157532 3.3268e-05 -7.49364e-19)
(0.000149895 3.1913e-05 7.38534e-19)
(3.83261e-05 -0.000111796 -2.3216e-19)
(4.11294e-05 -0.000106149 3.23595e-19)
(4.13034e-05 -0.000100966 3.33769e-19)
(0.00020796 -2.49937e-05 7.40078e-19)
(0.000208576 -2.34267e-05 5.71559e-19)
(0.00228517 -0.00453373 1.91349e-19)
(0.00286327 -0.00471913 -1.38593e-19)
(0.00269337 -0.00408897 -6.7406e-19)
(0.0742491 0.00877548 -7.54547e-19)
(0.0738288 0.0129083 -1.04282e-18)
(0.0705987 0.0105556 -7.06061e-19)
(-2.67365e-05 0.00260122 4.20583e-19)
(0.00030652 0.00258396 -4.23529e-19)
(0.000189326 0.00219158 -1.64676e-18)
(-0.0619581 0.11547 -1.07159e-18)
(-0.0493456 0.11045 4.50429e-18)
(-0.0490279 0.126619 -5.63428e-19)
(-5.63159e-05 0.000554289 -1.38514e-19)
(-9.441e-05 0.000520323 9.28667e-20)
(-0.000139185 0.000594091 3.84342e-20)
(3.93962e-05 -3.77455e-06 5.5451e-19)
(3.83704e-05 -6.11816e-06 8.48154e-19)
(4.02232e-05 -7.12401e-06 -3.57599e-19)
(-0.0665984 -0.116114 8.40943e-19)
(-0.0681713 -0.0972827 -8.05511e-19)
(3.87764e-05 6.06971e-07 3.38831e-19)
(4.10215e-05 -1.48584e-06 4.93015e-19)
(-0.000280302 -0.00161517 -2.64863e-19)
(-0.000128771 -0.0013582 -5.6016e-19)
(4.7183e-07 -0.00160636 -4.94545e-20)
(0.000718601 -0.000564469 -3.56782e-19)
(0.00050915 -0.000694061 1.54316e-19)
(0.000498688 -0.000461611 9.21894e-20)
(0.000206357 -6.17042e-05 3.10486e-19)
(0.0002024 -7.19227e-05 -3.32271e-19)
(0.000207779 -6.56051e-05 -5.8362e-19)
(0.000131199 6.49062e-06 4.83389e-19)
(0.000124248 1.0013e-05 9.15273e-20)
(-0.00353341 -0.0080607 -1.84289e-19)
(-0.00389226 -0.0072639 -3.68542e-19)
(-0.00282957 -0.00751836 5.73107e-19)
(-0.00605648 -0.332814 4.46886e-18)
(-0.0191929 -0.315836 2.90509e-19)
(-0.0174134 -0.307507 -1.22372e-18)
(-0.0350566 0.00414337 1.11917e-18)
(-0.032064 0.00544887 -1.46815e-18)
(-0.0346665 0.00783937 -5.02479e-19)
(-4.56014e-05 -8.53741e-05 6.48402e-20)
(-4.4969e-05 -8.02771e-05 1.38424e-19)
(-7.03726e-05 -7.49521e-05 1.59888e-19)
(5.92526e-05 5.83446e-05 -5.4769e-20)
(5.69935e-05 6.14562e-05 2.6764e-19)
(5.79137e-05 5.62767e-05 2.33141e-19)
(5.76676e-05 -1.56517e-06 -1.7078e-20)
(5.73071e-05 -2.2625e-06 -4.70009e-20)
(6.28854e-05 -1.32089e-06 -1.01963e-20)
(-0.00135551 0.000815561 3.61216e-19)
(-0.00113982 0.000752611 1.10367e-18)
(-0.00124989 0.000941024 1.2833e-19)
(0.00631844 0.000800964 1.41522e-21)
(0.00634736 0.000429058 -5.51976e-19)
(0.00600799 0.000656679 -9.86567e-19)
(-0.00148606 0.00068547 -4.34636e-19)
(-0.00162891 0.000911202 -1.4636e-20)
(-0.00306413 -0.00892596 -8.83169e-19)
(-0.00428477 -0.00868019 -2.29274e-19)
(2.37576e-05 -0.000626342 4.05763e-19)
(-2.90177e-06 -0.000704112 6.90325e-19)
(9.05233e-05 -0.000691115 1.64921e-19)
(0.000121214 -1.45059e-05 -1.99954e-20)
(0.000127844 -1.41268e-05 -2.71796e-20)
(0.000143345 -8.11314e-06 -5.11055e-20)
(-0.00493837 -0.00683011 8.18349e-19)
(6.14106e-05 5.22505e-05 -2.70067e-19)
(6.2116e-05 4.41798e-05 8.71573e-20)
(6.15377e-05 4.47439e-05 -7.16807e-20)
(8.42019e-06 2.44229e-05 -3.44405e-19)
(1.34293e-05 2.62902e-05 -1.69133e-19)
(9.46989e-06 3.50689e-05 -1.69896e-19)
(6.23582e-06 1.5357e-05 2.58344e-19)
(-0.0274297 -0.0755432 -5.62754e-19)
(-0.0261663 -0.072706 -9.98317e-18)
(-0.0299294 -0.0724301 -1.47438e-19)
(0.000213062 5.87018e-05 5.18381e-19)
(0.000214675 4.75499e-05 6.26448e-19)
(0.000213042 5.91705e-05 -7.27072e-20)
(0.000211666 6.73881e-05 2.47563e-19)
(0.000213077 5.81227e-05 -6.06741e-19)
(0.0131735 -0.334416 -6.39368e-18)
(-7.22017e-05 0.000449704 2.17662e-19)
(-0.00011376 0.000402265 -1.47446e-19)
(-1.24329e-05 0.000397746 -3.42853e-19)
(3.21634e-05 6.2182e-06 7.99444e-19)
(3.22806e-05 5.25214e-06 -5.51075e-19)
(3.05074e-05 4.64589e-06 6.8965e-19)
(-0.185173 0.24753 -4.92247e-19)
(-0.19854 0.300199 -1.92994e-18)
(-0.199489 0.346018 -1.56589e-18)
(-0.000173986 0.000517448 -2.00651e-19)
(-2.54957e-05 0.000508436 6.76425e-19)
(0.0489631 0.0436678 9.78005e-21)
(0.0514294 0.0436326 -7.13731e-20)
(0.0495946 0.0403416 2.92139e-19)
(0.000175077 3.66217e-05 6.53436e-20)
(0.000177825 2.58121e-05 1.15684e-20)
(0.000175539 3.85213e-05 4.41927e-20)
(-0.000447216 0.0025851 1.3703e-18)
(-0.000339513 0.00307342 6.00975e-19)
(1.69714e-05 2.3768e-06 -2.80072e-19)
(2.29575e-05 1.39536e-06 6.45311e-20)
(2.17277e-05 1.44409e-06 -2.49827e-19)
(-0.0808864 -0.4875 -6.96729e-18)
(-0.000449258 -0.00181199 -6.47009e-19)
(-0.000552025 -0.00151964 4.3189e-19)
(-0.13387 -0.0853491 -2.50821e-18)
(-0.140786 -0.0858443 1.03276e-17)
(-0.135198 -0.0771132 -2.02776e-18)
(6.03149e-05 5.95482e-05 -1.67448e-19)
(0.0183105 -0.0306941 2.7968e-18)
(0.0165987 -0.0312513 4.27189e-18)
(0.0169182 -0.0289688 8.74205e-19)
(0.0452603 0.0437022 -2.68681e-19)
(0.0473242 0.047358 1.87069e-18)
(0.00230387 0.000459627 4.13392e-19)
(0.00211078 0.000220047 2.97203e-19)
(0.00190042 0.000465587 3.31045e-19)
(-0.0385234 0.0251196 -5.79442e-19)
(-0.0378046 0.0296428 -1.0321e-18)
(-0.0347432 0.0255665 -1.21204e-19)
(3.06515e-05 -1.77763e-06 -8.79642e-20)
(3.13283e-05 -1.8629e-06 -4.24065e-21)
(3.19843e-05 -4.57097e-06 -3.25724e-19)
(-0.000480549 0.00303017 -1.42393e-20)
(-0.000263132 0.00293134 -1.23795e-19)
(-0.000313478 0.0032627 4.57731e-21)
(0.00630101 0.00111665 -2.97253e-18)
(0.00665743 0.000881885 1.39481e-19)
(4.70329e-05 4.31728e-05 5.54118e-20)
(4.46239e-05 3.24105e-05 4.04451e-19)
(4.46892e-05 3.98304e-05 4.06495e-19)
(0.0642352 0.0121389 -1.04919e-18)
(0.0740488 0.0157057 -1.84803e-18)
(0.0677284 0.0198295 -3.42785e-19)
(0.000125352 0.000256798 1.99263e-19)
(0.000101308 0.000246593 -2.30333e-19)
(0.000109099 0.000251698 -1.13791e-19)
(0.000174217 4.52118e-05 -3.87702e-20)
(0.00017864 3.30323e-05 8.28438e-20)
(-0.0241455 0.00404463 1.24874e-18)
(-0.0262529 0.0026419 1.8236e-18)
(-0.0235539 0.0015261 9.09704e-20)
(0.00569102 -0.00483102 -1.29554e-18)
(0.00488639 -0.00489192 1.39717e-19)
(0.00516056 -0.00415816 -6.62956e-19)
(-0.0373524 -0.00629497 -1.09833e-19)
(-0.0391038 -0.00104298 -1.0614e-19)
(-0.0346178 -0.0012144 9.95415e-19)
(5.18098e-05 6.01769e-05 -3.31233e-19)
(4.95857e-05 5.20649e-05 2.54466e-20)
(4.9613e-05 5.72271e-05 7.19085e-19)
(-0.0916342 -0.48944 2.70453e-18)
(-0.0936585 -0.425597 6.17099e-18)
(5.4634e-05 6.56039e-05 -6.03065e-19)
(5.46023e-05 6.30816e-05 -8.11895e-19)
(0.000140841 0.000268203 1.02707e-18)
(0.000140028 0.000264871 -1.65912e-19)
(-0.0401928 -0.0118585 -3.20126e-19)
(-0.0349623 -0.0119718 -1.03764e-18)
(-0.000724436 0.0031949 -4.46712e-20)
(-0.000659976 0.00286796 -1.92593e-19)
(-0.0323495 -0.0411939 1.58558e-19)
(-0.0375951 -0.0424282 1.66676e-19)
(-0.0358531 -0.0328018 1.59509e-19)
(4.95891e-05 4.64651e-05 2.57057e-19)
(-0.00199853 0.00399156 -1.76615e-19)
(-0.00176065 0.00426563 -1.77866e-19)
(-0.00216373 0.0043851 -6.2063e-21)
(0.00254525 0.0275834 1.18348e-19)
(0.00411304 0.0285762 6.05643e-19)
(0.00194317 0.0291454 -5.59168e-19)
(1.17358e-05 1.89735e-06 -1.09433e-19)
(1.4402e-05 3.28518e-06 4.62638e-20)
(2.97911e-05 1.46126e-06 1.61152e-19)
(0.000175031 5.00542e-06 4.96614e-19)
(0.00018371 2.23438e-06 -1.24078e-19)
(0.000180482 1.91957e-06 2.30883e-19)
(0.00725157 0.0177548 7.10422e-19)
(0.00744815 0.0164541 -1.64777e-19)
(0.00844129 0.0173428 4.85952e-20)
(0.000233449 -5.37888e-05 8.47844e-20)
(0.000234137 -6.11912e-05 -7.07947e-19)
(0.000226422 -5.13591e-05 -2.45057e-19)
(0.00588517 0.0180319 1.29791e-19)
(0.00682084 0.0190281 5.64953e-19)
(-0.0637206 0.275285 2.57789e-18)
(-0.0532172 0.327319 -4.87717e-18)
(-0.0585502 0.0810213 -1.28461e-18)
(-0.0671488 0.0681928 1.23857e-18)
(-0.0521911 0.075555 -1.54163e-18)
(-0.0273988 -0.0492842 -2.23848e-18)
(-0.025648 -0.039561 -2.90027e-19)
(-0.000123042 0.000351627 2.53251e-19)
(-0.000226041 0.000387379 3.70273e-19)
(0.0810155 0.0566333 1.65036e-20)
(0.0770292 0.0492049 -2.97452e-18)
(0.0698533 0.0565281 -1.38818e-18)
(0.000918348 0.00175802 3.16596e-19)
(0.000763287 0.00209463 -4.38823e-20)
(0.00122643 0.00210915 3.62332e-19)
(0.000192691 9.8258e-06 -1.95071e-19)
(0.000190425 1.91543e-05 2.01967e-19)
(0.000190217 6.60601e-06 -4.06533e-19)
(0.00105415 0.0014557 8.79213e-21)
(0.000678535 0.00147327 -6.61111e-20)
(0.0381719 0.00434591 -8.51192e-19)
(0.0402268 0.00550957 1.39416e-19)
(0.0377146 0.00653515 -9.98331e-19)
(-0.000217842 0.000407449 2.93593e-20)
(-0.000199185 0.000439698 -3.36938e-20)
(-0.000265968 0.000453963 2.0345e-20)
(0.00131883 0.0263839 -1.26286e-18)
(0.00348188 0.0259122 -4.75691e-19)
(0.000152159 0.000274183 2.45875e-19)
(0.000144409 0.000264398 9.44422e-19)
(-0.000125059 0.000312228 8.15129e-19)
(-4.88684e-05 0.000331463 5.36481e-19)
(5.15302e-05 1.07036e-05 -9.80384e-22)
(5.1706e-05 1.09549e-05 -1.42004e-20)
(5.28428e-05 5.5635e-06 -2.2055e-20)
(-0.000960218 0.00329365 3.02424e-20)
(-0.00123428 0.00342771 1.13776e-19)
(-0.00114819 0.00311668 -1.05746e-19)
(3.5957e-05 -0.000117501 -3.20039e-20)
(3.50049e-05 -0.000120601 4.29107e-19)
(-0.0432851 0.0247819 -3.42963e-19)
(-0.0391914 0.0206473 -3.50598e-19)
(0.0827818 0.0722958 -1.6378e-19)
(0.090407 0.0552129 -2.66856e-20)
(0.00809932 0.00804966 4.39877e-19)
(0.00833642 0.00872518 -2.1717e-19)
(0.00887218 0.00801031 1.34377e-19)
(5.33596e-05 -5.29974e-05 4.80782e-19)
(5.43737e-05 -3.99477e-05 1.655e-19)
(5.60903e-05 -3.73538e-05 3.3577e-20)
(1.42735e-05 4.74665e-06 2.06717e-19)
(1.1948e-05 2.47852e-06 -4.24031e-19)
(3.22814e-05 -2.77004e-06 -2.12924e-19)
(3.15787e-05 -1.02564e-06 -1.46705e-19)
(3.0757e-05 -2.06345e-06 -3.33722e-20)
(-0.0146168 -0.00638195 -2.37563e-19)
(-0.0160728 -0.00578792 8.84885e-19)
(-0.0141676 -0.00486034 -1.64863e-18)
(-0.00221203 0.00372286 -4.6812e-19)
(-0.00188191 0.00363776 -1.04607e-20)
(0.0043629 -0.110587 -3.01379e-18)
(0.0102181 -0.104995 -4.91593e-18)
(-0.00028281 -0.107689 1.61719e-19)
(-0.00953381 0.00149815 3.82859e-19)
(-0.008823 0.00193046 -1.60032e-18)
(-0.00874253 0.00110827 -9.31393e-19)
(0.000160339 0.000281421 -1.0907e-18)
(0.000159876 0.00028497 -7.19268e-19)
(-0.0437325 -0.01883 -1.03672e-18)
(-0.0471387 -0.0122245 4.42394e-19)
(-0.00125845 0.00157726 -1.21484e-19)
(-0.00145886 0.00159476 -2.60651e-20)
(-0.00132111 0.001422 -1.40502e-19)
(-0.000103756 0.00274735 -2.34364e-19)
(5.44113e-05 0.00293513 -2.37725e-20)
(0.0555936 0.0123275 -1.38171e-18)
(0.0597372 0.00671899 -3.3635e-19)
(0.0761922 -0.0569128 9.04671e-18)
(0.0810968 -0.0578588 7.48155e-18)
(-0.085381 0.193174 1.45988e-18)
(0.00941943 0.0210839 3.95234e-19)
(0.0093127 0.0226925 1.92633e-19)
(0.0110848 0.0218762 8.38069e-19)
(-0.0443067 -0.0292819 2.35621e-18)
(-0.0399092 -0.0249842 2.50825e-18)
(-0.0225629 -0.0830846 3.15593e-18)
(-0.0269148 -0.0865493 7.51226e-18)
(-0.0211689 -0.0867814 3.25702e-18)
(0.000982786 -0.000699653 -8.01856e-19)
(0.000208648 -2.11768e-05 -1.15649e-19)
(0.000205364 -2.46404e-05 3.88657e-19)
(0.0605597 0.096202 -1.738e-18)
(0.0585934 0.0909303 7.59298e-19)
(5.60744e-05 0.000237746 7.54047e-20)
(3.93379e-05 0.000265085 1.25891e-19)
(1.76268e-05 0.000253987 7.75421e-20)
(0.000194801 -2.79324e-07 6.96971e-19)
(0.000195004 1.26468e-05 1.80593e-19)
(-0.158913 0.176316 3.89637e-19)
(-0.156596 0.149795 6.1713e-20)
(0.00014881 4.26539e-05 -2.84714e-19)
(0.000149664 4.05246e-05 -2.54473e-19)
(0.000146963 5.38039e-05 1.3315e-20)
(0.0345469 -0.0126206 2.8497e-18)
(0.0351132 -0.0145306 3.87207e-18)
(0.0365216 -0.0125235 -3.23984e-18)
(0.00121301 0.0609229 -1.47051e-18)
(0.00235745 0.0577974 6.10199e-19)
(0.00468982 0.0610751 1.85041e-18)
(0.000246182 -7.48836e-05 -6.25893e-20)
(0.000248404 -7.33461e-05 -4.24212e-19)
(0.000255807 -7.63769e-05 -1.57762e-19)
(0.0770203 0.00716795 -1.37111e-18)
(0.0736826 0.004946 -2.66975e-19)
(0.0516683 0.0350738 -6.85645e-19)
(0.05655 0.0296183 -6.92923e-19)
(0.0588092 0.037734 -1.00931e-18)
(0.000134025 2.90252e-06 -2.5251e-20)
(0.00013241 6.33117e-06 -7.30072e-19)
(0.000134033 1.06502e-06 -2.27344e-20)
(-0.0508902 0.0959364 6.06724e-19)
(-0.0656251 0.0879798 -2.39135e-18)
(0.00378413 0.00240542 -6.92225e-19)
(0.00373595 0.00217242 2.33847e-19)
(0.00399887 0.00229694 -6.76663e-19)
(-0.0144459 -0.0136343 -2.91601e-19)
(-0.0104634 -0.0149479 -7.40575e-20)
(-0.0151126 -0.0177715 5.20887e-20)
(0.000203581 9.25048e-05 -7.77627e-20)
(0.000203437 9.16725e-05 6.50555e-20)
(0.000203036 9.10893e-05 1.90015e-19)
(-0.159953 0.519954 8.40832e-18)
(-0.181779 0.505272 5.20694e-18)
(-0.00314022 0.0607517 1.5182e-18)
(-0.000187336 0.0646009 1.12621e-18)
(0.000140434 -1.36909e-05 8.80443e-20)
(0.000140039 -1.7744e-05 7.60257e-22)
(0.000144774 -1.54784e-05 1.28117e-20)
(-0.157591 -0.101189 1.14677e-20)
(-0.163686 -0.108102 -3.48768e-18)
(-0.156358 -0.109507 -2.43038e-18)
(0.000114437 -9.90612e-05 -5.45195e-21)
(9.23941e-05 -0.00010069 3.21652e-20)
(0.00011256 -7.30387e-05 1.89679e-20)
(-0.0149907 -0.00805735 8.40221e-19)
(-0.0132435 -0.00703823 4.54965e-20)
(0.0151576 -0.0829604 2.09543e-18)
(0.0116276 -0.0916532 -1.02472e-19)
(0.0071896 -0.0916142 -1.53516e-18)
(0.000206231 -5.92228e-05 -3.92815e-20)
(0.00020888 -5.09193e-05 3.18336e-21)
(8.61001e-05 0.00259667 1.59727e-19)
(-0.00018857 0.00258237 -5.91331e-21)
(0.000802541 -0.00198989 1.18647e-19)
(0.000460019 -0.00183309 4.25403e-19)
(0.000739755 -0.00162998 2.03072e-19)
(0.000500754 -0.00703934 2.34789e-19)
(-0.000715592 -0.00742178 1.03659e-19)
(-0.000275514 -0.00605663 -1.58813e-19)
(6.25211e-05 4.33818e-05 5.1451e-19)
(6.33159e-05 3.34297e-05 1.88287e-19)
(5.17772e-05 -6.4705e-07 1.28111e-19)
(5.15753e-05 -1.87792e-06 1.34057e-19)
(5.10824e-05 1.94915e-07 -4.1924e-19)
(0.000209386 -1.48927e-05 1.89817e-20)
(0.000206132 -1.93236e-05 -6.27421e-19)
(9.45056e-06 2.09964e-06 -3.26086e-20)
(5.28825e-06 4.54203e-06 -4.82431e-19)
(0.00020465 9.28694e-05 -5.37735e-20)
(0.000203959 9.36305e-05 -2.28171e-19)
(5.17334e-05 7.67995e-07 1.26472e-19)
(5.29953e-05 -2.01556e-07 1.80014e-19)
(0.000834835 -0.00503191 2.45715e-20)
(0.00132341 -0.00534727 -1.03774e-19)
(0.000771614 -0.00570466 -2.97844e-19)
(0.000151009 2.91239e-05 1.35641e-19)
(0.000146933 4.38908e-05 5.4759e-21)
(5.0814e-05 -6.58442e-05 -2.52494e-19)
(5.2417e-05 -6.31646e-05 -8.54771e-20)
(-0.00349446 -0.0102938 1.17909e-19)
(-0.00546875 -0.0101569 1.51831e-19)
(-0.00421759 -0.00838765 8.66288e-20)
(0.0032609 -0.006153 2.48649e-19)
(0.004031 -0.00632513 -6.06719e-19)
(0.00342441 -0.00704706 -8.39068e-19)
(0.0374605 -0.00757473 -7.21063e-19)
(0.0416491 -0.0123503 -1.20999e-18)
(0.0358345 -0.0162688 1.75497e-19)
(-0.152053 -0.0942837 5.73456e-18)
(-0.158533 -0.092274 -5.04039e-18)
(0.0559137 0.113965 -1.46167e-19)
(0.0749958 0.113276 9.10262e-19)
(0.0542179 0.118154 -3.22072e-19)
(0.00824676 0.0704514 1.5429e-18)
(-0.001732 0.0463877 -2.77904e-18)
(0.0101949 0.0539608 -4.78813e-18)
(0.00385434 0.00272823 -7.1729e-19)
(0.00354899 0.00256412 -6.77479e-20)
(5.39213e-05 -2.23e-06 -1.51001e-19)
(5.31666e-05 -3.00829e-06 7.0719e-20)
(4.66259e-05 -1.42421e-06 9.57997e-20)
(0.0323408 -0.0127035 5.18118e-19)
(0.0335939 -0.0108567 -3.01745e-18)
(2.43985e-05 -4.09642e-06 3.56029e-19)
(2.14276e-05 -4.05243e-06 -4.46317e-19)
(3.4644e-05 -1.18585e-06 -1.63603e-19)
(0.0273643 -0.320533 -1.76937e-18)
(0.0171683 -0.311137 8.20758e-19)
(2.07703e-05 -3.90158e-06 -9.83009e-20)
(2.28738e-05 -5.03496e-06 -6.49266e-20)
(3.17296e-05 -2.47025e-06 3.55143e-20)
(0.000140522 -1.02272e-05 3.26745e-20)
(0.000145622 -9.66598e-06 7.44796e-20)
(3.40779e-05 -2.58742e-06 3.7139e-20)
(3.56002e-05 -4.5797e-06 -3.50269e-19)
(6.34785e-05 1.06727e-05 -2.36966e-20)
(6.56808e-05 1.85391e-05 1.82698e-20)
(6.53562e-05 8.99738e-06 2.04449e-20)
(0.00164308 -0.00019171 -1.66342e-18)
(0.00172635 -0.000239078 1.92907e-18)
(0.00172833 -0.000150897 -1.09347e-18)
(-0.00536335 0.00851136 -8.24554e-19)
(-0.0045972 0.00844627 1.5433e-19)
(-0.00506624 0.00934875 -2.27537e-20)
(3.12146e-05 5.73409e-06 -3.78214e-19)
(2.7669e-05 5.44291e-06 -2.03989e-19)
(4.27869e-05 2.3637e-06 -2.61694e-19)
(0.0337256 -0.00405883 1.02811e-18)
(0.0377614 0.00041468 -3.63311e-19)
(-3.53552e-05 0.000422348 -3.34685e-20)
(-6.79522e-05 0.000399346 -1.53583e-21)
(-1.08228e-05 0.000371862 -3.06336e-20)
(0.000205524 -8.83721e-05 9.59364e-20)
(0.000202745 -9.70849e-05 -2.16049e-19)
(0.000201712 -9.38664e-05 -2.8642e-19)
(0.0254446 -0.0112075 -4.64538e-19)
(0.0225516 -0.0084388 -4.12595e-19)
(0.0215371 -0.0132478 -5.6789e-19)
(-0.000111375 0.000271702 4.31003e-19)
(-0.000194683 0.00028313 5.13826e-19)
(5.54452e-05 1.40126e-06 3.14322e-19)
(5.81477e-05 2.01157e-06 6.59978e-19)
(5.50307e-05 -6.40783e-08 -2.96365e-19)
(0.00456459 0.0181713 -8.15903e-19)
(0.00393685 0.0194858 -6.80124e-19)
(0.00308642 0.0182882 7.38303e-20)
(0.000138555 -9.66942e-05 3.54527e-21)
(0.00013256 -9.57547e-05 -5.148e-21)
(0.000138044 -9.03852e-05 -8.74676e-21)
(0.000532741 -0.000959111 9.19087e-20)
(0.000298711 -0.000777727 1.57995e-19)
(-0.0250193 -0.0789289 -2.32268e-20)
(-0.0208089 -0.0795518 -6.44538e-18)
(0.0369515 0.00269933 -9.22322e-19)
(0.0393736 0.00232734 -2.98231e-19)
(-1.67994e-05 7.10492e-06 4.87693e-19)
(-8.52603e-06 6.99035e-06 -3.71843e-19)
(-9.61063e-06 1.03529e-06 -8.70647e-20)
(5.99908e-05 -4.5582e-05 -1.39051e-19)
(6.50944e-05 -2.93098e-05 1.48849e-19)
(6.40703e-05 -3.89244e-05 1.37474e-19)
(8.62993e-05 -3.44945e-05 4.21138e-20)
(8.43954e-05 -2.71444e-05 4.99004e-21)
(7.87459e-05 -3.18179e-05 1.52128e-20)
(0.0113191 -0.117824 7.99577e-18)
(0.0231627 -0.107186 -2.68679e-17)
(0.0231828 -0.117165 -5.99866e-20)
(3.36498e-05 8.47649e-06 -4.20554e-20)
(3.17559e-05 6.00774e-06 2.05799e-19)
(0.0719597 0.107773 1.53408e-18)
(0.0642305 0.109879 -7.15033e-19)
(0.0757092 0.104749 -3.3687e-18)
(-6.75549e-06 1.41451e-05 3.2801e-19)
(-1.24102e-05 2.14708e-05 8.28636e-19)
(-0.0481418 0.164069 -8.59309e-19)
(-0.0378189 0.136914 6.98112e-18)
(-7.80941e-05 0.000243585 7.71127e-20)
(-3.89285e-05 0.000279317 -1.22133e-20)
(0.00354694 -0.0012183 -4.26049e-20)
(0.0035058 -0.00162 -1.84088e-19)
(0.00315864 -0.00141031 2.5001e-20)
(-0.00247899 -0.00985016 -1.11121e-18)
(-0.0018562 -0.0091351 -3.25747e-19)
(4.55406e-05 6.57922e-06 1.73294e-19)
(4.66867e-05 7.66392e-06 4.73185e-19)
(3.9863e-05 9.9914e-06 -2.80669e-19)
(0.0517174 0.108647 8.08411e-19)
(0.059136 0.109071 1.77472e-18)
(0.000152512 0.000129498 -1.92227e-19)
(0.000172092 0.000106058 -9.90824e-20)
(0.000175262 0.000123328 2.15232e-19)
(0.0145507 0.0859841 4.34698e-18)
(0.00767029 0.0827983 5.30578e-18)
(0.000208695 -8.00419e-05 -3.81692e-19)
(0.000208098 -7.75879e-05 1.16539e-19)
(-4.08904e-05 -8.58231e-05 -2.30684e-19)
(-2.33413e-05 -8.35872e-05 5.2478e-19)
(-3.47593e-05 -8.00184e-05 -1.20871e-19)
(-0.000451403 -0.0019063 -2.6615e-19)
(-0.00063606 -0.00165398 6.47873e-20)
(-0.000304616 -0.00161846 -1.49433e-19)
(-8.9113e-05 9.55712e-05 -3.29327e-20)
(-5.80909e-05 0.000100737 1.44099e-19)
(-7.17083e-05 7.72677e-05 3.02305e-19)
(0.00309049 -0.0584284 7.70641e-19)
(-0.012165 -0.074862 -3.99656e-19)
(-0.0127514 -0.0602428 -4.64704e-19)
(0.00266551 -0.0021698 -1.7014e-19)
(0.00327318 -0.00199748 6.10184e-20)
(0.0029698 -0.00273656 2.1615e-19)
(0.00209064 -0.00219517 -1.03176e-19)
(0.00231539 -0.00169745 -1.79108e-19)
(0.000113714 -0.000135621 2.66437e-21)
(0.000138432 -0.000100478 -6.67574e-21)
(0.0426258 -0.299971 -3.36115e-19)
(0.034173 -0.323637 4.82572e-18)
(-0.00617956 0.0083661 -1.18827e-18)
(-0.0055448 0.00761655 -1.32755e-19)
(0.00433851 -0.000250252 5.66435e-19)
(0.00414665 -0.000184742 9.94124e-19)
(0.00431185 -4.38214e-05 -7.33108e-19)
(0.000126556 0.000152712 -6.86748e-21)
(0.000100755 0.000173097 9.08356e-20)
(0.000124311 0.00017196 1.80405e-19)
(0.000208495 7.86548e-05 1.23789e-19)
(0.000206243 8.55662e-05 3.87866e-20)
(0.000207256 7.76318e-05 -2.26296e-19)
(0.00789807 0.00728812 4.15289e-19)
(0.00733738 0.00793342 -2.72272e-21)
(5.43933e-05 -0.000103965 1.07271e-19)
(5.66266e-05 -0.000103017 -1.26719e-19)
(5.59963e-05 -0.000101795 -1.52236e-20)
(0.00856446 0.0146491 4.12267e-20)
(0.00760433 0.0152023 -7.72315e-20)
(0.00762223 0.013962 -8.16913e-20)
(-0.00640711 -0.00293839 1.61872e-19)
(-0.0065238 -0.00419614 4.11891e-19)
(-0.00516495 -0.00356797 1.25375e-19)
(0.0205766 0.00409664 1.03766e-19)
(0.0239121 0.00463631 -1.15752e-19)
(0.0207191 0.00696343 -7.16304e-20)
(0.00402475 0.00237453 -5.76811e-19)
(0.00368664 0.0017477 3.12804e-19)
(0.00456035 0.00186528 -1.25056e-19)
(5.22703e-05 -0.000101045 -1.72402e-21)
(5.18809e-05 -9.51736e-05 2.12996e-19)
(5.23018e-05 -9.58387e-05 3.71001e-20)
(0.0473564 0.0392397 9.46059e-19)
(0.0464037 0.0319625 4.93942e-19)
(0.0350865 0.0846609 -1.45722e-18)
(0.0359209 0.0904085 -9.15198e-19)
(0.0299481 0.0888853 2.43064e-18)
(-0.0170042 0.0077936 6.35471e-19)
(-0.0186971 0.00710994 3.43837e-20)
(-0.0170228 0.00598223 5.27367e-20)
(0.00121409 0.000789628 -1.46945e-20)
(0.00102191 0.000736114 4.72762e-19)
(0.00107338 0.00091133 8.39917e-19)
(-0.00079196 0.00351431 -2.11279e-20)
(0.0336323 -0.0179434 -1.45841e-19)
(0.0339528 -0.0109961 -5.90434e-19)
(0.0386688 -0.014272 -3.80131e-19)
(5.16169e-05 -0.000104909 8.37477e-20)
(-0.00146009 -0.0104367 1.3402e-19)
(-0.00202052 -0.0125067 2.36365e-19)
(0.0177141 0.00389136 4.21954e-19)
(0.0200599 0.00143389 3.49115e-19)
(0.000934981 -9.29775e-05 1.36505e-19)
(0.000903698 -0.000129341 1.07209e-18)
(0.000876842 -9.36288e-05 5.37109e-20)
(-0.0293765 -0.0790291 4.02262e-18)
(0.00315414 -0.00160984 -2.0205e-18)
(0.00315643 -0.00177353 6.07319e-19)
(0.00300904 -0.00165554 -2.11857e-18)
(0.00162467 -0.00217813 8.92192e-19)
(0.00175733 -0.00272189 -1.77761e-19)
(-3.09803e-05 1.70036e-05 2.79852e-19)
(-2.36981e-05 1.23656e-05 1.10346e-19)
(-2.0227e-05 2.06683e-05 -2.41172e-19)
(0.00156417 -0.000151085 -1.2999e-18)
(0.00156187 -0.000226633 -5.94688e-19)
(0.00115624 -0.00209099 6.82107e-19)
(0.0014337 -0.001754 5.98852e-19)
(-0.0155905 0.00837881 5.58801e-19)
(-0.0140571 0.00872408 -2.44226e-19)
(-0.0141781 0.00715759 1.17091e-19)
(0.000131116 0.000135189 -6.08976e-20)
(0.000179217 1.41232e-05 4.70799e-20)
(0.000181278 8.92068e-07 3.42422e-20)
(0.000178334 1.61886e-05 4.33671e-20)
(0.000216735 2.50685e-05 6.41458e-19)
(0.000215687 3.63462e-05 1.92836e-19)
(0.000215865 3.65424e-05 2.62441e-19)
(0.00939436 -0.0454026 5.43109e-19)
(0.0147681 -0.0501058 6.31537e-19)
(-0.0282887 -0.0915528 3.61642e-18)
(-0.0432604 -0.102832 -3.05804e-19)
(-0.0405383 -0.085146 -5.75379e-19)
(0.000109477 0.000213944 5.65338e-20)
(8.39307e-05 0.000181397 -3.55227e-19)
(0.000134057 0.00019206 3.59355e-20)
(0.00250041 0.000801147 1.69037e-19)
(0.00277304 0.000475179 -7.25546e-20)
(-0.0127791 -0.0882099 -8.37539e-19)
(0.044731 -0.0549315 -1.29958e-18)
(0.044216 -0.0586819 -3.20864e-18)
(0.0412385 -0.0561845 -1.17828e-18)
(-0.00738023 -0.00209561 8.59661e-20)
(-0.00591604 -0.00176744 -4.93583e-19)
(6.16198e-05 1.36953e-05 3.29082e-21)
(6.13174e-05 2.54542e-06 2.07469e-20)
(-0.00594413 -0.00949278 2.90682e-19)
(-0.00471704 -0.0117218 2.27475e-19)
(-0.00389201 -0.00927412 -5.80006e-20)
(0.00332387 -0.0015897 1.53196e-18)
(0.00317406 -0.00146402 -5.52215e-19)
(0.000155981 4.71581e-07 -1.57383e-19)
(0.000158878 -2.6822e-06 -7.69771e-20)
(0.00015282 2.52409e-06 -4.04046e-20)
(0.00335324 0.00284112 4.28801e-19)
(0.00422063 0.00314975 -2.60798e-19)
(0.000199229 -5.29022e-05 8.37071e-20)
(0.000198067 -4.82467e-05 -1.37241e-22)
(0.000195525 -4.76359e-05 3.82403e-19)
(0.0171783 -0.0735293 2.03109e-18)
(0.0219357 -0.069431 6.1771e-19)
(-0.0132506 0.0210534 -1.2919e-19)
(-0.0166763 0.0216564 5.93748e-19)
(-0.0128048 0.0253618 -2.48919e-20)
(0.0350007 0.00222481 -2.74066e-19)
(0.0334154 0.00141589 1.2291e-18)
(0.0339643 0.00351572 8.67448e-20)
(0.00552807 -0.00393643 -1.42134e-18)
(0.00576754 -0.00405356 -9.64767e-19)
(0.00547126 -0.00421078 2.98673e-18)
(-0.00317521 -0.0106504 5.0864e-19)
(-0.00181483 -0.0107763 -1.36301e-19)
(0.00664108 -0.0183092 5.7458e-20)
(0.00394273 -0.0203559 -8.52666e-19)
(0.00429463 -0.0168923 3.44084e-19)
(-0.0127306 -0.00716746 6.48177e-19)
(-0.0135068 -0.00995928 4.09526e-19)
(-0.0100332 -0.00848624 3.10986e-19)
(0.041939 0.00710211 1.6045e-18)
(0.0413513 0.00950316 6.89785e-19)
(0.0442837 0.0087662 -4.59188e-19)
(0.000200771 -5.59335e-05 -1.41113e-19)
(0.000203328 -5.74346e-05 4.05238e-19)
(0.000179706 1.07908e-05 -3.55394e-20)
(-0.000217167 -0.000966673 5.26034e-19)
(1.18326e-05 -0.00119844 6.14349e-20)
(5.22667e-05 -0.000884557 -6.31643e-20)
(5.76969e-05 -1.33976e-05 8.99729e-21)
(5.49394e-05 -2.97097e-05 -1.90658e-19)
(5.5174e-05 -1.76809e-05 -1.0109e-19)
(0.00350494 -0.000844794 2.56769e-19)
(0.00392541 -0.00100127 1.63785e-20)
(0.00457059 -0.000315209 -2.79491e-18)
(0.00436345 -0.000462725 -1.13669e-18)
(0.000213869 -9.18471e-06 -5.01293e-21)
(0.000212842 -2.01695e-05 -1.31047e-19)
(0.000213258 -1.84047e-05 -3.62233e-19)
(-6.45086e-05 0.000148194 -7.43169e-20)
(-4.22433e-05 0.000157803 -6.13305e-20)
(-7.43488e-05 0.000163736 -1.65116e-21)
(0.0151681 0.00196036 -1.41433e-18)
(0.0142597 0.000674176 -6.82481e-19)
(0.0134382 0.00239693 -1.9394e-19)
(0.00024452 -7.45566e-05 4.59895e-19)
(0.00023801 -7.35571e-05 1.0191e-19)
(0.0170115 0.0425436 7.55997e-19)
(0.0194731 0.0435889 1.58679e-20)
(0.0169897 0.0454099 -6.31334e-19)
(0.0640282 -0.0441664 5.39677e-18)
(0.0502635 0.00610812 -2.74719e-18)
(0.0132839 -0.000597245 6.38896e-19)
(0.0120441 -0.0015433 9.68562e-20)
(0.0117092 7.6067e-05 -3.33481e-19)
(-0.000107677 0.000115661 -1.51264e-19)
(-0.000124573 9.1618e-05 5.88511e-20)
(-0.0109572 0.000338396 -5.81009e-19)
(-0.0101846 0.000995655 2.31833e-18)
(-0.0100668 -2.1524e-05 9.14052e-19)
(5.92003e-05 -9.45268e-06 -4.45874e-19)
(5.98458e-05 2.06598e-06 -1.09802e-19)
(0.00956726 0.0151829 -2.74786e-20)
(0.0106766 0.0158498 -5.80455e-20)
(0.00968661 0.016713 1.48395e-19)
(0.000208401 3.75922e-05 4.89988e-20)
(0.000192207 4.67415e-05 1.93832e-21)
(0.000206918 2.25048e-05 1.68649e-20)
(-0.00705678 0.00870737 1.2456e-18)
(-0.00807275 0.00915342 -6.79789e-20)
(-0.00690471 0.00971252 -9.21586e-20)
(0.000116659 -1.93183e-05 -1.11375e-20)
(0.000115454 -1.33568e-05 -9.25756e-20)
(-0.00706938 0.00798003 -5.94786e-20)
(0.00321594 -0.123115 -4.93515e-19)
(0.000302848 -0.13702 -4.67573e-19)
(-4.52944e-05 -8.74465e-05 -2.28697e-19)
(-2.85922e-05 -9.11552e-05 2.58418e-20)
(0.0169183 -0.00599424 -3.73441e-19)
(0.0160887 -0.00618147 -3.84504e-19)
(0.0168478 -0.007077 4.94969e-19)
(-0.000734772 0.0015231 -1.19838e-19)
(-0.00081468 0.0016854 -1.70404e-22)
(-0.00089117 0.00153025 2.51114e-20)
(0.0012553 0.00414405 -3.11795e-19)
(0.000946569 0.00482071 -7.26506e-20)
(0.00180099 0.00482955 1.95403e-19)
(-0.0152124 -0.00542114 4.63207e-19)
(-0.011736 -0.00456746 -1.05143e-19)
(0.000162581 1.75796e-05 9.81268e-19)
(0.000153863 2.10737e-05 -2.59218e-19)
(5.61702e-05 -6.08799e-05 5.99497e-20)
(5.63138e-05 -5.10901e-05 -2.47542e-19)
(0.0169405 0.0398434 2.45942e-19)
(0.0146129 0.0414189 -4.40125e-20)
(-8.68126e-05 0.000134737 -2.66188e-20)
(-5.39556e-05 0.000132787 8.33341e-20)
(-0.0179158 -0.0118891 -6.72634e-19)
(0.00633735 0.000105813 5.08823e-19)
(0.00603432 -2.74408e-05 1.09953e-18)
(0.00633239 -0.000256224 -1.05834e-19)
(0.0953056 0.0342497 3.62216e-18)
(0.0136301 0.013392 1.00194e-19)
(0.0139048 0.0147716 -6.86186e-22)
(0.0126156 0.0140826 -8.18459e-21)
(0.0361164 0.000565355 3.98702e-20)
(0.00323344 -0.00287449 9.81126e-19)
(0.00377028 -0.00276844 2.35198e-19)
(0.00334894 -0.00242962 -2.80404e-20)
(0.0160018 0.00351046 -7.78816e-20)
(0.0168498 0.00135349 -2.98815e-19)
(0.000129364 0.000398092 -1.32623e-19)
(0.000140205 0.000332045 2.2923e-19)
(6.91662e-05 0.000376225 -2.40798e-19)
(0.00259455 -0.00126115 7.74106e-19)
(0.00265295 -0.00114305 5.9305e-19)
(0.00250025 -0.00117221 -8.98218e-19)
(0.00522855 -0.00380243 2.42257e-18)
(0.00553637 -0.00364589 -8.08909e-19)
(0.0179004 -0.00593708 -3.70062e-20)
(0.0170317 -0.00505811 3.32519e-19)
(0.02544 -0.00109261 -7.62895e-19)