/*--------------------------------*- C++ -*----------------------------------*\
| =========                 |                                                 |
| \\      /  F ield         | OpenFOAM: The Open Source CFD Toolbox           |
|  \\    /   O peration     | Version:  v2012                                 |
|   \\  /    A nd           | Website:  www.openfoam.com                      |
|    \\/     M anipulation  |                                                 |
\*---------------------------------------------------------------------------*/
FoamFile
{
    version     2.0;
    format      ascii;
    class       surfaceScalarField;
    location    "750";
    object      meshPhi;
}
// * * * * * * * * * * * * * * * * * * * * * * * * * * * * * * * * * * * * * //

dimensions      [0 3 -1 0 0 0 0];
oriented        oriented;


internalField   nonuniform List<scalar> 
27284
(
0.000481021
-0.000796219
0.000315457
-0.000399744
0.000367232
4.51145e-05
0.000284873
0.000239156
-0.000523934
-0.000258426
0.000408933
-0.000120146
4.51853e-05
0.000844157
-0.000884675
-0.000881127
-0.000248953
0.00113301
0.000547433
-0.000872279
0.000331267
0.00088111
-0.00083136
-6.38873e-05
8.61027e-05
1.10618e-06
0.000601604
-0.000707695
0.000108504
0.0013049
-0.000442696
-0.000858881
0.0004959
-0.000240401
-0.000255418
0.000175232
0.000320741
0.000347591
0.000632949
-0.000979429
-0.000148301
0.000146133
2.70081e-05
0.000216611
-0.000292492
8.45874e-05
-0.000347085
0.000124782
-0.000264608
0.00109386
-0.000825438
0.00030718
0.000319445
-0.000626448
0.000512761
0.000289758
-0.000796577
0.000398538
-0.000895074
0.000496936
0.000222558
-0.00105489
0.000837741
-0.00014581
0.000293902
-0.00013106
0.000215151
-0.00109375
0.000108931
-0.000239368
0.000794316
-0.00108639
0.000299706
0.000231125
0.000695142
-0.000917401
-0.000662913
7.24527e-05
0.000619108
-4.7058e-05
4.43976e-06
0.00122259
-0.000477223
-0.000742953
0.000486951
0.000412703
-0.000899325
0.000352089
-0.000990991
0.000640213
-0.000274528
-3.87689e-05
0.000319289
0.000161375
1.45066e-05
-0.000168592
7.46033e-07
6.35257e-07
-8.62381e-07
0.000678172
-0.000920783
0.000247321
0.000448573
0.000334995
-0.00078262
-9.54361e-05
0.000778473
0.000420944
0.000804011
-0.00108639
0.000945523
0.000146433
8.04243e-05
8.91261e-05
-0.000109414
0.000830298
2.71643e-05
0.000168087
-0.000187931
0.000327588
-0.000397099
8.22806e-05
-5.9276e-05
0.000322549
-0.000412086
8.95657e-05
-0.000649256
-9.47681e-05
0.000763098
8.61458e-05
-0.000716187
-0.000593176
0.00107773
-0.000176332
-0.000889769
4.69621e-05
-2.31705e-05
-1.62509e-05
0.000507054
-0.000833409
0.000326469
0.000886091
0.00020184
-0.000372173
0.000666392
-0.000293982
0.0010702
-0.000330916
-0.000715026
-0.000335814
0.000854881
1.32627e-05
-5.96464e-06
-4.01127e-06
-0.000937868
0.00108918
-0.000288768
-0.000383542
0.00013463
0.000248929
0.000195961
0.000219951
0.000282763
-0.000502556
-0.000727261
0.000355409
0.000483188
-0.00016199
-0.00031671
4.10703e-06
0.000674596
-0.00067787
-4.47137e-05
4.13471e-05
1.13232e-05
-0.000160243
-0.000586913
0.00074932
-0.000162685
0.000612054
0.000143956
2.09652e-05
-0.000158756
-0.00116179
0.000779537
0.000384658
-0.000656093
0.000851235
-0.000184607
0.000528961
0.000559101
-0.00016987
0.000916486
-0.000745282
0.00113729
-0.000282074
-0.000851687
-0.000115672
0.000794249
-0.000675091
0.000162229
2.54971e-05
-0.000181036
-0.00082538
-0.000112331
-1.42395e-05
0.000183297
-0.000799747
0.00015438
0.000714768
-0.00082679
0.000666884
-0.000824764
-0.000672484
0.000959029
-0.000283446
0.000175737
-0.000735053
-6.53478e-05
0.000802528
-0.000932418
0.000400822
0.000532288
2.85374e-05
1.039e-05
-2.52195e-05
0.000167262
-7.41915e-05
-5.23604e-05
0.000215287
-0.000745738
0.000531298
0.000697366
5.88574e-05
-0.000738568
-0.000569425
0.000785605
-0.000103149
-0.000742501
0.0010875
-0.000731307
-0.000355615
0.00039589
-0.00106469
-0.000987754
0.000822157
0.00122847
-0.000469533
-0.000756824
-0.000493644
0.000184067
0.000313735
0.000679408
-0.000209405
-0.000450451
-0.000154815
-0.000333932
-9.69792e-05
0.000565257
-0.000467955
-0.000824748
-8.78651e-05
0.0009178
-0.000593188
-0.000338532
-0.000676517
-0.000111475
-0.000174804
-0.00080182
-3.62627e-06
5.31566e-06
-1.18865e-06
-1.60404e-05
0.000757062
-0.000739069
0.00033271
-0.000105213
0.000736646
-0.000731632
0.00036425
0.000865834
-0.000916218
0.000466392
0.000450722
8.73666e-06
0.000213933
-0.000214467
1.07824e-05
5.53148e-06
1.27477e-05
-1.14802e-05
5.20524e-06
-0.000127874
0.000745991
-0.000616556
7.92932e-05
-0.000812195
0.000378477
-0.0004661
8.7658e-05
0.00092395
-0.000217469
-0.000704749
-0.000843574
0.000179095
-0.000125268
0.000843502
-0.000142782
0.000894816
-0.000749063
-0.00118783
0.000603274
-0.00051407
-0.000645253
-0.000194078
0.000479029
-0.00097369
-0.000901532
0.000443538
0.000458766
0.000647392
-0.000769556
-0.000366908
0.000323386
4.35516e-05
0.000786251
-0.000258975
-5.25694e-05
0.000805627
-0.000324395
-0.00104081
0.00095691
9.04929e-05
0.000185267
0.000513258
0.000990435
-0.000483257
0.000997451
-0.000658051
-0.000327095
-0.000714096
0.000323525
0.000390808
0.000247689
-0.000640098
0.000392725
-0.000599308
-6.86572e-05
0.000683083
0.000615999
-0.000308672
-0.000673023
-0.000290062
0.000965192
-0.000271019
-9.51835e-06
0.000327202
0.000511752
0.00057625
2.05469e-05
-0.000568912
0.000549597
-0.000165237
-0.00071223
0.000881524
0.000615144
-0.000732628
0.000134648
-0.000373864
-0.000574588
-0.000475909
0.00072398
-0.000205142
0.00014548
9.80341e-05
0.000146552
0.000251835
-0.000398368
1.26987e-05
-4.64558e-06
-7.95875e-06
0.000660103
-0.00078632
-1.40668e-05
2.10586e-05
-7.02535e-06
-0.000619927
-1.2069e-05
-0.000475602
-0.000709667
0.00056763
-0.000176562
-0.000385603
0.000164096
0.000679168
-0.000838275
0.000212323
-3.6782e-05
-0.000170483
0.000100828
8.60599e-05
5.43927e-05
-0.000277141
-6.65452e-06
4.603e-05
-3.43958e-07
0.000627936
-6.84054e-05
-8.12858e-05
-0.00101389
0.000221902
0.000795137
0.000285575
0.000722468
0.000179399
-0.000164172
0.000172736
0.000705255
-0.000873827
-0.00109952
0.00028075
0.000821984
-0.000432668
0.000621051
-0.000186104
-0.000176721
0.000323288
-0.000321135
0.000784256
-0.000462901
-0.000597425
-0.000292697
0.00089038
0.000666472
-0.000644475
8.59561e-06
7.21654e-06
-9.99301e-06
-0.000353398
-0.000360437
1.81011e-05
1.6478e-05
-2.19649e-05
0.000448824
-0.00104205
3.12598e-06
3.47697e-06
-4.21146e-06
-7.96987e-05
-7.57467e-05
-6.03109e-06
2.47868e-05
-6.51729e-06
3.04484e-08
6.58922e-06
-0.00103044
0.000534137
0.000498911
-0.000272985
-0.000496081
0.000770443
1.99745e-05
2.01583e-05
-2.56798e-05
-0.000585778
0.00015544
0.000891202
7.23442e-05
-0.000957871
-0.000133692
0.000670064
-0.000514928
0.000578915
-0.000478597
-9.71223e-05
-0.000969702
0.000805973
-5.00328e-06
-4.33149e-05
6.64729e-05
-0.000202883
0.000804271
-0.000600413
0.000774736
-0.000155234
-0.000583862
0.000770349
-6.65504e-05
3.2626e-05
-0.000399502
-0.000538768
0.000442086
0.000478002
-0.000382512
-8.24057e-05
-0.000162059
-2.4996e-05
0.000191996
0.000291899
-0.000348534
0.000115107
0.000313627
-0.000483942
0.000170359
3.38107e-05
2.04842e-05
0.00047963
-0.000793578
0.000314134
-3.25008e-05
0.000412668
0.00117905
-0.000830056
-0.000113306
-0.000845839
0.000153878
0.000910654
-0.00106008
0.00119624
-0.000772926
-3.73621e-05
-3.49387e-06
5.62013e-05
-0.000790559
0.000469648
0.000333591
-0.00109302
0.000766713
0.000261555
-0.000858738
0.000443383
-0.00055786
0.000293267
-0.000352052
6.53552e-05
0.000584873
-0.000159909
-0.000418964
0.000867036
-0.000911545
5.15298e-05
-0.000893886
0.00106958
-0.000172802
-0.000619077
0.000173297
0.000450946
-0.000213367
-0.000400605
8.87766e-06
4.07262e-06
-0.000662528
0.00111144
0.000552603
-0.000824116
0.000573514
-0.00066782
9.53216e-05
-0.00118249
0.000337068
0.000852653
-0.000871001
0.000273955
0.000615038
-0.000370529
-0.000544738
0.000134143
2.77903e-05
-0.000157535
0.000539097
0.00021014
-0.000748383
-5.22556e-05
0.000371085
-0.000315593
-0.00113249
0.000945866
0.000189189
0.00018389
-0.000708993
0.000530287
2.876e-05
0.000148362
-0.000172456
0.000250054
-0.000921405
-0.000435205
0.000887618
-0.000452086
-0.00010024
0.000843413
-0.000741781
0.00058528
-0.00068649
0.000107909
0.000652557
-5.88655e-05
-0.000290678
0.000351253
0.000167354
-0.000681723
0.000858533
-0.000930319
-0.000199263
0.00104028
-0.00022524
-0.000810651
0.000355203
-0.000125821
0.000601286
-0.000474448
-0.000593229
0.000384499
0.000545856
-0.000177925
-0.000355082
-0.00053872
-0.000489496
-0.000180658
-0.000407107
0.000793915
-6.27186e-05
-0.000729845
-0.00084107
0.00101405
-0.000290513
-0.000699457
-8.02415e-05
0.000664683
-0.000564641
-0.00106873
0.000177786
-0.000722365
0.00105031
-0.000326104
-0.000965084
0.000842313
0.00013427
0.000163236
0.000324203
0.000349623
-0.000270101
0.000471435
-0.00020125
0.000337889
-0.000386793
-5.1209e-06
-1.04483e-06
-1.54108e-05
0.000360006
-0.000341267
0.000495591
-0.000620406
0.000236555
-0.000211356
2.776e-05
-0.00056694
0.000756561
0.000184948
0.000408604
-0.000575589
-1.60846e-05
2.03872e-06
-0.000761605
0.000168201
0.000596766
0.000829432
-0.000451931
-0.000377162
-0.000754904
0.000514746
0.000240665
0.000813616
0.000384821
0.000215252
0.000826511
-0.00103891
-0.000152274
0.000879002
-0.000722322
-0.000204449
-0.000400722
0.000605472
-0.000379479
0.000582013
0.000705644
7.228e-05
0.000725932
-0.000790281
-0.000195915
-2.94064e-05
0.000232517
-0.000872566
0.00103075
0.00066322
-8.88058e-05
4.44166e-05
0.000541337
-0.000556196
-6.38003e-06
-0.000822056
0.000834869
0.00139843
-0.000555395
-0.000840177
0.000105543
-0.000689572
-0.000754366
0.000404182
0.000350561
-0.00118318
0.000221726
0.00138463
-0.000566853
-0.000814246
-6.52667e-05
0.000938991
0.00106353
-0.000303546
-0.000758156
-0.000218784
2.9893e-05
-0.000806479
0.000562116
0.0002452
0.000857134
0.000137011
-0.000985724
-0.0011666
0.000631638
0.000536495
0.000216761
-8.25176e-05
-0.000612297
-1.55561e-05
-2.48052e-06
3.22539e-05
-0.000300922
0.000104636
-0.000524493
0.000420201
-0.000782672
0.00084583
-5.96748e-05
-0.000758583
0.000235173
0.000528527
0.000781599
-0.000929246
-4.42678e-05
-7.82129e-05
3.11989e-05
-0.000188469
-0.000336189
-0.000417766
0.000891529
-0.00089097
0.000717743
0.00033965
-0.000775701
0.00043698
-0.00102865
-7.74742e-05
0.000677918
-0.000599753
0.000290967
3.09371e-05
0.000976983
-0.00100367
0.000557988
0.000843086
0.000770468
-0.000899871
0.000140886
0.0006988
7.22992e-05
-0.000769786
-0.000362881
-0.000391337
0.000495549
-0.000390584
6.69898e-05
0.000286487
-0.000351622
-0.000156088
-0.000274169
0.000430305
-0.00107508
0.00059954
0.000488198
-0.000848076
-0.000193547
0.00104699
0.000420526
-0.000734851
0.000314644
0.00051041
0.000554654
-0.000409296
-0.00065006
0.000751269
-0.000645243
8.6524e-05
0.000567191
-0.000631277
-0.000397397
-0.000189535
0.000587204
-0.000425657
0.000269619
0.000261847
0.00026452
-0.000526317
-0.000267928
0.000336726
0.000831939
-0.000132486
-0.000504585
0.000638282
2.29383e-05
0.000742323
-0.000761612
1.78685e-05
-1.43109e-05
-2.91015e-06
-0.000922863
-0.000161728
-0.000700094
-0.000938967
3.38425e-05
0.000919212
0.000694979
-4.64139e-07
1.65172e-06
-0.000682493
-0.000140179
0.000824761
6.36909e-06
-0.000284537
0.00028663
0.00111258
-0.000461727
-0.000325449
0.000331581
4.39404e-05
-0.000166196
-0.000913708
-0.000100476
-0.000912043
0.00101658
0.00049446
-0.000213131
-0.00028125
-0.000457279
-0.000340078
0.000797555
-0.000724136
0.000662641
6.79885e-05
-0.000334072
0.0010529
-0.000848086
-0.000198915
0.000760963
-4.60688e-05
-5.47923e-05
-0.000870008
-0.000952012
0.000861793
9.59679e-05
4.82e-05
0.000555816
8.65381e-05
0.000685741
-0.00075585
0.000147255
-0.00017347
6.99509e-05
-1.86965e-05
5.08462e-06
1.37281e-05
0.000196302
0.000762901
-0.000953791
-8.19287e-05
-0.00066884
0.000766074
-0.000267641
0.000478996
-0.000211288
-0.00090449
-4.25344e-05
-6.56331e-05
0.000626025
-0.000540493
-0.000848116
0.000120703
0.000736134
-8.51899e-05
0.000718131
0.00021525
-7.39105e-05
-8.97923e-05
0.000645083
-0.000728948
-0.000143372
-2.82601e-05
0.000175117
-3.97056e-05
0.000219681
-0.00093786
0.000118681
-0.000156979
-0.000226551
-4.69274e-05
0.000360194
-0.000311219
2.72678e-05
-0.000167155
0.000645392
5.15777e-05
-0.000677448
-0.00108806
0.000889585
0.0002037
-0.000436711
0.000541775
-2.62755e-05
3.49426e-05
1.37737e-06
-0.000126558
0.000798837
-0.000669556
0.000309644
-0.000354646
0.00137759
-0.000816898
0.000873996
-0.00087961
1.97925e-05
0.00042275
0.000621128
0.000453129
-0.000277829
0.000655051
-0.00020706
-0.000442524
-0.000364555
0.000352465
0.00073954
-3.96155e-05
-0.000269256
0.000330841
-5.43953e-05
-0.00106313
-2.00721e-05
-0.000545276
0.000924408
-0.000375176
0.000854423
0.000105584
-0.000953738
3.02734e-05
-0.000183067
0.000190671
0.000820771
-0.00108173
9.50902e-05
-0.000105695
3.83004e-05
-0.000871629
-8.26672e-05
0.000959886
-5.57551e-05
0.00039305
0.000799608
-0.000827316
2.87283e-05
0.000392051
0.00115977
-0.000414827
-0.000742319
-1.58831e-05
-2.10654e-05
0.000519813
-0.00105058
0.000182449
-8.69037e-05
-0.000709803
0.000803596
-9.10463e-06
-0.000401351
0.000410663
-0.000297023
-0.000124002
0.000421048
5.91517e-05
0.000302763
0.00012039
0.000634429
-0.000748258
-0.000509907
0.000239906
-0.000296403
0.0010216
-0.000719477
-2.1454e-05
-0.000261976
-3.44929e-07
3.44929e-07
0.000793316
-0.000426363
-0.000366496
0.000260433
0.000546113
0.000634697
0.000745666
-0.000548806
-0.000317772
-0.00112147
0.000312472
0.000812063
-0.000596522
0.000622377
-0.00108478
0.00103183
5.57837e-05
0.000334678
-0.000791738
0.00023329
0.000423286
-0.000656236
-3.80679e-06
4.48631e-07
0.000230628
0.00030982
-0.000540423
-0.000960761
0.000878371
-0.000461307
0.000532437
0.000863162
-0.000464226
0.000360655
1.72709e-05
-0.000669164
-0.000387767
-1.56919e-05
6.8099e-06
8.88526e-06
7.62532e-05
0.000661161
0.000442839
-4.67181e-05
-0.000665472
0.000312302
0.000737179
-0.000499902
-0.000235649
0.000821498
-0.000364754
-0.000456382
0.00105545
-0.000785578
-0.000259492
-0.000523139
0.000300583
0.000233873
0.000369877
0.000697848
-0.000837922
0.000558531
0.000142655
-0.000693016
-0.000226689
-0.000478369
-0.000576968
-0.000181216
6.39721e-05
-0.000497975
0.000269197
0.0004245
-0.000433386
-0.000190718
-0.000320715
-0.0011761
0.000205831
0.000975523
1.94904e-05
-0.000742273
-0.000731622
-0.000234586
0.000966365
-0.000704778
0.00037542
0.000329863
-0.000745176
0.000946806
0.0010394
-0.000258586
0.000416797
-0.000647604
0.000231251
2.18163e-05
-0.000110037
0.000111097
0.000231892
4.07705e-05
-0.000266685
-0.000651031
-0.000186625
-0.000135304
-0.000406112
0.000109109
4.60492e-05
-0.000308225
2.75806e-05
-6.38657e-06
-7.40235e-06
-0.000209526
-4.73213e-05
0.000304629
0.000347761
0.000146767
0.000343229
-0.000884453
-3.30228e-05
-0.000153563
0.000191072
-0.0010384
0.000375424
-0.000266582
-0.000802224
0.00103484
-0.000222488
-3.49854e-05
0.000348643
-0.000315504
0.000535613
0.00104899
-0.000151919
-3.23289e-05
0.000150288
-0.000326181
-0.000378062
-0.000347198
-1.08337e-05
0.000358091
0.000600601
0.000326474
-0.000926933
0.000266316
1.96472e-05
-0.000278911
-0.000399723
-0.000413985
0.000813824
-0.000287023
6.14245e-05
0.000319667
-0.000240443
-0.00047899
0.000720048
-0.000919869
0.00017899
0.000743507
-1.65103e-05
0.000817036
0.000709545
-0.000878154
0.000686414
0.000861097
0.000279644
-0.000571692
0.00079842
-0.000497936
0.000230367
0.000152233
0.000745406
0.000701677
-0.000315711
-0.000385317
0.000178896
-0.000955225
0.000781547
0.000235411
3.52951e-05
-0.000264224
-0.00109454
0.000562214
0.000537001
0.000261581
-0.000196991
0.000516231
-0.000319094
0.000351899
-0.000475873
0.000735565
-0.000658539
0.000843986
0.000253407
-0.00113637
0.000258825
0.000884666
0.000946996
0.00019567
0.00039444
0.000757471
-0.000723349
0.000155216
0.000348364
-0.000498841
2.90635e-05
0.00012373
-0.000150078
0.000238166
0.000651508
-0.000865883
0.000758135
-0.000195248
0.000367521
-0.000326192
0.000486044
-0.000740865
0.000483595
0.000257341
0.000726202
-0.000246381
-0.000306446
-0.000865789
-0.000168805
2.05524e-05
1.82136e-05
0.000665783
6.95056e-08
-1.33591e-05
-2.35086e-06
-0.000327513
-0.000176324
0.000503916
0.00018124
-0.0010248
-9.63535e-05
0.000847803
-0.000749296
0.000873661
0.000141324
-0.00101174
-0.000930878
8.43017e-05
0.000849987
0.000879369
-0.000183683
-0.000693693
0.000223078
-0.00029018
6.71106e-05
-0.000269268
-0.000435282
0.000705502
0.00079597
-0.00109717
0.000309044
0.000317697
5.98084e-05
-0.000376948
0.000120474
8.2568e-05
0.000444369
-0.000342942
0.000573598
0.000719581
-0.000651921
-6.69069e-05
-0.000885835
-0.000285552
0.000276673
-5.35876e-05
0.000571873
-1.90021e-06
-0.00030798
-0.000357242
-0.000369606
0.000722669
-0.000236848
-5.9479e-05
0.000297579
0.000903965
-0.000748845
-0.000297204
-0.000791195
-0.000925126
-0.000101329
0.00103819
-0.000571947
0.000741267
-0.000167227
-0.000639331
6.42768e-05
-0.000299864
0.000692102
-0.000477163
-0.000213255
0.00102964
-0.00011463
3.16474e-05
-0.000945425
0.000720092
-0.000783368
-0.000933704
0.000665662
0.000837719
0.000200829
-0.00103329
-0.000382878
0.00044837
-0.00111041
1.82464e-05
0.000333675
0.000850035
7.08687e-05
-0.000920236
0.00117899
-0.000219189
-0.00095568
-0.000778352
-0.000211208
-0.000104098
0.000765853
0.000652101
-0.000728378
-1.75896e-05
0.00073308
-0.000697873
0.00034405
0.000838481
0.000872158
-0.0010923
0.000224191
0.000986502
-0.000121285
-0.000238126
-0.000671489
0.000604005
0.000510466
0.000187978
0.000481187
-0.000650188
0.000901521
-5.07823e-05
0.000836969
0.000251388
-0.00108396
0.000154117
-0.000490256
0.000336299
0.00023935
0.000213837
-0.00060663
0.000603811
0.000837889
-0.000756378
0.000323748
0.00048207
-0.000539453
0.000798916
-0.000159879
-0.000269758
0.000429659
0.00024241
-0.000169429
0.000921677
-0.000235609
-0.000685493
0.000468373
-0.000736645
-9.14607e-05
0.000241167
0.000690745
-0.000793124
0.000361078
-0.000420878
0.000654498
-3.30881e-05
1.06904e-05
-3.29237e-05
0.000170333
-0.000131945
0.000422443
0.00022552
-0.000647461
0.000307844
0.000412553
-0.000341707
0.00049599
0.000686594
-0.000531637
-0.000122391
-0.000188436
0.000471327
-0.000431627
0.000637696
0.000194375
-0.000521805
-8.428e-08
-9.72199e-08
-0.00095454
0.000296998
0.00066799
-0.000167415
0.000464413
-0.000296934
-0.000207168
-0.000603658
0.00081622
-0.00106301
0.000136819
8.41894e-06
-3.2254e-06
0.000853968
-0.000121675
-0.000730233
0.00073988
-0.000230135
-0.000504472
0.000148824
-0.000829184
0.000486439
-0.000224559
-0.000943226
0.000392607
0.000552073
5.76727e-05
0.000316424
-1.10953e-05
1.53689e-05
2.10239e-07
0.000621816
-0.000114882
0.000944225
-0.000823502
-0.000239451
-0.000702165
-0.000145801
-0.000208378
0.000354189
0.000357248
-0.000107408
-0.000237066
0.000351642
-0.000290754
0.000830374
-0.000975768
0.000152526
2.15952e-05
-7.43382e-06
0.00023722
-0.000855423
0.000619903
1.12717e-06
-1.44337e-05
0.000167094
0.000493417
-0.000900064
0.000591445
0.000309179
0.000135051
0.000572679
-0.00070181
-0.000279617
0.000518175
-0.000238162
0.000731746
-0.000272815
-0.000457725
1.33972e-05
0.000564718
0.000814473
-0.000535348
-0.000278925
-0.000771356
-9.38431e-05
-0.00064695
-0.000863779
0.000188253
0.000676678
-0.000999035
-3.65187e-05
0.00104224
0.000843888
-0.000153018
-0.000666816
0.000313621
0.000547857
0.000779447
-0.00105832
0.000546602
-0.000925303
0.000382742
-1.14412e-05
-3.94942e-06
-0.000241329
0.000739648
-0.000497836
-0.000892195
0.000508935
0.000383331
-0.000730014
-0.00021316
-0.000238511
-0.000762315
0.00100112
-0.000969848
0.000740421
0.000250772
-0.000988597
-0.000192838
0.000481763
-0.000288862
-1.78031e-05
0.000255729
-0.00057788
-0.000218004
-7.1882e-05
0.000298397
-0.000225469
-7.40177e-06
-3.28421e-06
1.09647e-05
0.000495719
0.000237247
0.000744903
-0.000470993
-0.000273449
-6.50084e-05
-0.000272464
0.000337499
-0.000672558
0.000823551
-0.000589229
-0.000105824
0.000703743
-0.000640089
4.68058e-05
-1.67459e-05
0.000107371
0.000474439
0.000178935
-0.000576055
-0.00110617
0.000753013
0.000361143
0.000921757
-0.000769129
-0.000148682
0.000485831
-0.00072669
-0.000882741
0.00031892
-9.04279e-05
-0.000653085
0.000752967
-0.000239364
0.000656595
-7.23174e-05
-0.000313697
0.000386045
-0.000765848
0.000195903
0.000621442
8.9176e-05
-0.000706515
-0.000658584
-0.000104284
0.000653164
0.000151942
-0.000913794
8.85842e-05
0.000743667
0.000550421
0.000147462
-0.000680446
0.000846091
-0.000934747
9.08748e-05
0.000152044
-0.000822345
0.000784656
-0.000615894
0.000273336
0.000296352
-0.000569402
0.000350587
0.000713141
-0.00074168
0.000306758
2.96174e-05
-0.000191264
0.00113785
-0.000973252
-0.000157928
-0.000132704
-0.00044786
0.000580646
-1.97415e-05
2.84735e-06
0.00104234
-0.000194184
-0.000169123
-0.000553931
-0.000345461
0.000869066
4.97735e-06
-0.00085946
-0.000195297
-0.000247957
0.000465975
0.000509953
0.000393085
-0.00090133
0.000136284
0.000719645
-3.29634e-05
0.000159879
-0.00012292
5.05825e-05
0.000335243
-0.000381753
7.54289e-05
0.000764224
-0.000837815
4.98507e-05
0.000616775
-0.00108982
0.000677409
0.000125422
-4.10173e-05
-6.43763e-05
-0.000612236
-0.000288483
0.000465439
-0.000877546
0.00106002
-0.000168488
7.14388e-05
-0.000726817
0.000343523
-0.000893227
0.000841454
-0.000546456
-0.000294899
-3.08914e-05
0.000165891
-0.000131373
0.000559618
-0.000320368
-0.000489726
0.000865045
-0.000358465
9.31156e-06
-2.39862e-06
0.000272717
-0.000440073
-0.00016658
0.000931087
-0.000761683
-0.000900578
0.000666102
-0.000249472
-0.000837484
-0.000530905
0.000364335
0.000571276
0.000270267
0.000411542
-0.000884352
-0.000192485
-1.83998e-05
0.000112255
0.000148845
-0.000145203
0.000713274
0.000279588
0.000764514
-0.000534764
0.000798861
-0.000463968
3.10188e-05
-3.67334e-05
2.42152e-05
-0.000354473
0.000194612
0.000875573
0.000132884
-0.00100235
-0.000670903
0.000745711
-0.000795033
-0.000387535
-0.000826401
0.00103701
0.000832601
0.000728173
-0.000135982
-2.25629e-05
0.000161456
-0.000335985
-0.000150365
0.000486458
-0.00077508
0.000947472
-0.000153548
-0.00019317
0.000233378
-3.26094e-05
0.000194581
3.41546e-05
-0.000223819
-0.000746364
0.000276708
-0.000793872
0.000464029
-0.000203348
-0.000260624
-0.000252101
5.79007e-05
0.000437978
-0.000521851
0.000816678
-0.00106665
0.000878608
-0.000918328
-9.21991e-05
-0.000198111
-0.000587059
0.000790559
0.00077918
-0.00060741
0.000311081
-0.000512348
0.000742232
-0.000298035
0.000182548
-2.94263e-05
0.000913886
-0.000464941
0.000353018
-0.000425301
-1.97789e-05
2.67481e-05
-2.9794e-06
0.000560879
-0.0007062
0.000148028
2.78592e-06
-1.02041e-05
1.1608e-05
-0.000344137
0.000286876
-0.000563136
0.000283899
-8.21885e-06
9.89401e-07
-0.000224683
-0.000831648
-0.000100951
0.000116812
-0.000784424
2.6478e-06
-1.77293e-05
-0.000580792
0.000792431
-0.000210258
0.000751444
-0.000521789
-0.000227875
-0.000947012
0.000601309
0.000346199
-0.000843357
-0.000222469
-0.00037763
0.000672241
6.11737e-05
-0.000311134
0.000251369
-0.000441991
0.000472155
-3.00227e-05
0.000310088
0.00059832
0.000119579
-0.00101979
0.000538484
0.000483335
-0.000674662
9.36761e-05
-0.000881831
0.00103556
-0.000144674
-0.000399257
0.00110165
-0.000685858
1.88886e-06
-7.93402e-07
-0.000111656
-0.000272246
0.000680487
-0.0010016
-3.16442e-05
8.99156e-05
-0.000117082
4.83027e-05
0.000153461
-0.000132591
-1.03514e-05
1.1747e-05
1.04262e-06
0.00106261
-0.000227388
-0.000829269
-0.00044337
-0.000503179
8.91253e-05
-0.000530955
0.000332026
-0.000730115
0.000868392
0.00113658
-0.000298775
-0.000830127
-0.000251871
-0.000876809
0.000708026
-0.000116418
-6.85039e-05
-0.000798985
0.00101717
-7.18147e-06
0.000159034
-0.000145333
0.00015514
0.000509543
-0.000645696
-4.03966e-05
5.04605e-05
-0.00113715
0.000277962
0.000846702
0.00019187
-0.00103406
6.21036e-05
0.000290625
-0.000349045
-0.000208332
-0.000257728
0.000191028
0.000964672
-0.000570435
0.000479125
-0.000668563
-0.000461233
0.000114094
2.65254e-05
0.000152716
-0.00028296
0.000348797
-0.0010539
0.000213736
0.00104592
5.39055e-05
-0.000333112
3.96062e-05
0.00020984
-0.000244369
-0.000402132
0.00106328
0.000150945
-0.000124335
0.000654664
0.000475478
-0.0011273
-0.000848554
9.49334e-05
-7.74418e-05
0.00106321
-0.000349968
-0.000696197
-0.000482898
-0.000534657
-0.000198325
-0.000847165
0.00104653
-0.000536555
0.00070157
0.00118381
-0.000782763
-0.000395858
0.000156323
-0.000106848
0.000150148
0.000465962
-0.000305784
0.000247545
0.000785998
-0.000482965
-0.000302247
-0.000399532
0.000949977
-0.00086773
0.000576041
0.0010638
-0.000222665
-0.00021142
-0.000789136
0.00100406
-0.000209569
-8.06028e-05
4.54761e-05
-1.455e-05
0.00029265
-0.000227099
0.000616355
0.00035294
-0.000926539
0.000574379
-0.000829588
-0.000261639
0.00109787
-8.78103e-05
-0.000257639
-2.77077e-05
-0.000114178
0.000144464
0.00060331
-0.00107094
0.000149494
-0.000117687
0.000518431
0.000268307
-0.00030387
0.000270134
0.000208927
0.000139628
0.000116816
-4.30946e-05
-4.54737e-05
7.68069e-05
6.56444e-05
-2.16529e-06
-4.26125e-07
3.62512e-06
0.000109682
-0.000972347
0.000339387
-0.000566559
0.000241992
0.000324707
-0.000819946
0.000681765
0.000373787
-0.000713972
0.000340691
-0.00119375
0.000716294
0.000486859
-1.65074e-05
0.000156396
-0.000134091
-6.80801e-05
3.01035e-05
0.00104267
-0.000304115
-0.000720284
0.000780443
-0.000205407
-0.000563479
0.000708162
-0.000965782
0.000262014
0.000463287
-0.000405084
-0.000134203
0.000618096
-0.000408925
-0.000775327
0.000865882
-0.000976988
0.000127127
0.000767851
0.000627999
0.000336984
0.000708004
-0.00033378
0.000828185
-0.000174189
0.000323377
0.000189045
-0.000512315
-0.000100422
0.000235061
1.89512e-05
-0.000758397
0.000741358
-0.000739076
-0.000110487
0.000140138
0.000981678
-0.000243756
-0.00073222
0.000375129
-9.38748e-05
-0.000244364
0.00109598
-0.000314093
0.000386395
-0.000590212
0.000204104
0.000175686
-0.000511553
-4.39007e-05
0.000303087
-0.000252607
-0.000793268
8.90828e-05
-0.000954946
0.000253705
0.000537028
7.18189e-05
-0.000281379
-1.60191e-05
0.000641742
0.000150771
0.000160571
-3.40218e-05
5.42677e-05
-1.75575e-05
-2.78495e-05
0.000679733
-0.000514895
0.000614476
-0.000558735
0.000243692
0.000173523
-0.000417173
0.000111559
2.18442e-05
-0.000130796
-0.000118933
0.00026262
-0.00029998
-0.000197852
-0.000168241
0.000380674
0.000708047
-0.00100934
0.000136536
5.65635e-06
0.00087097
-0.00035923
0.000175764
-0.00082859
0.000626774
0.000239116
-4.4833e-06
-1.40998e-05
0.000271636
0.000880364
-0.000550383
0.00103486
-0.000480648
-0.00018066
-0.000572039
-0.000944683
0.000806496
0.000142639
0.000654475
-0.000229761
-0.000430793
-7.55843e-05
0.00050873
0.000230375
9.76568e-05
1.27105e-05
-9.51622e-05
-0.000167452
0.000289373
0.000172352
-0.000729496
0.000561769
-3.81697e-05
1.30454e-05
-0.000827777
0.000848883
-0.000571162
9.56632e-05
0.00105863
-0.000167691
-0.000882427
0.00107814
-0.000242011
-0.000829151
0.000877958
-0.000914826
-0.000690631
0.00104444
0.000326702
-0.000256858
2.9628e-05
2.05848e-05
-3.38949e-05
3.74651e-05
-4.97251e-05
2.14864e-05
0.00110241
-0.000226294
-0.000536517
0.000459561
-8.16973e-05
-0.000726711
0.000825222
0.000631971
-0.000208357
2.59552e-05
0.000140178
0.00015607
-0.000123995
0.000461383
0.00123591
-0.000809612
-0.000424541
0.000205048
0.000488596
-0.00035971
7.06253e-05
0.000418184
-0.000174455
-1.88809e-05
0.000180825
-0.000157025
0.000342113
3.45219e-05
-0.000373556
-4.62694e-05
0.000763615
-0.000716507
0.00118889
-0.000201723
-0.000982859
-0.000825408
0.000949235
0.000690098
0.00102835
-0.000842546
-0.000236998
0.000619129
-0.000381977
0.000490607
0.000746936
8.42995e-08
-8.41612e-06
0.000163732
-0.000177763
-1.44034e-05
0.000897856
0.000807795
-0.00109238
0.000290052
0.00016045
0.000484615
0.00039657
3.64531e-05
0.000165969
-0.000194934
0.000158358
0.000908404
0.000173027
0.000883958
0.000646716
-0.000411867
-0.000234432
-0.00029205
0.0007888
-0.000487297
0.000558079
8.79271e-05
-0.000637433
0.000660551
-0.000810497
0.000154324
-0.000540188
0.000618514
-0.000417635
0.000372818
4.93553e-05
-7.15056e-05
0.000393942
-0.000521298
0.000127529
0.000333579
-0.000498223
0.000164801
0.000133918
0.000280025
-0.000197045
0.000209347
-0.000214982
3.02594e-05
5.33501e-05
0.00022967
-0.000279954
0.000577542
-0.00077029
0.000856137
-0.000172244
-0.000669547
0.000615901
9.7786e-05
1.30256e-05
-9.70805e-05
-0.000582538
0.000314882
-0.000252211
0.000376324
-0.000249575
-0.000113391
0.000878518
-0.000152588
-0.000702837
-0.000676101
0.00025557
0.000617387
0.000178169
-0.00046768
0.000306735
-0.000618062
-0.000192378
0.000827137
-0.000969075
0.000471151
0.000497979
5.7201e-05
-7.42905e-05
0.0009554
0.000271568
0.000117508
-6.14594e-05
-0.000300377
0.000365453
0.000331009
-0.000224591
-9.78772e-05
-9.22534e-05
0.000709107
-0.000615505
-0.000186015
-0.000311839
0.000155582
0.000744979
0.000682985
-0.000363362
-0.000488543
-0.000233044
0.00072237
-0.00044659
9.48515e-05
0.000351782
0.000725002
-0.000341308
-0.000383375
-4.41675e-05
-0.000545085
0.000614985
0.000341037
0.00085136
-0.00011305
-0.00057771
0.00070511
0.000222168
0.000304871
-0.000509716
0.000492635
6.09232e-05
-0.000524907
-0.000641752
-0.000153968
0.000797703
-7.59312e-05
0.000878552
-0.000169075
0.000675455
0.000286453
0.000478679
-0.000763605
0.000435639
0.000219026
0.000645138
-0.000172484
-0.00115774
0.00034868
0.000810966
-0.000892523
-0.000176226
0.00107342
0.000150356
-0.000175159
0.000229854
-0.000991818
0.000813413
-0.000924632
0.000114035
4.36507e-05
-6.36292e-05
3.17834e-05
4.59317e-05
2.3707e-06
0.000206791
0.000257289
-0.000373661
-0.000518392
0.000334823
0.000464229
0.000388467
-0.000497518
0.000126168
-0.000327484
0.000517585
-0.000189967
0.00022172
0.000207146
-0.000805284
0.000808833
7.66528e-05
-0.000883259
-0.000363249
-0.000425848
0.000791266
0.000970562
-0.000645915
8.3236e-05
-6.5959e-05
-0.000276627
0.000442087
0.000516554
-0.000955246
0.000813329
0.000975386
-0.00023263
-0.000465322
0.000278473
0.000615569
-0.000898401
2.00323e-06
-8.7562e-06
0.000752184
-0.000185549
0.000251459
-0.000446062