/*--------------------------------*- C++ -*----------------------------------*\
| =========                 |                                                 |
| \\      /  F ield         | OpenFOAM: The Open Source CFD Toolbox           |
|  \\    /   O peration     | Version:  v2012                                 |
|   \\  /    A nd           | Website:  www.openfoam.com                      |
|    \\/     M anipulation  |                                                 |
\*---------------------------------------------------------------------------*/
FoamFile
{
    version     2.0;
    format      ascii;
    class       volScalarField;
    location    "950";
    object      ddt0(k);
}
// * * * * * * * * * * * * * * * * * * * * * * * * * * * * * * * * * * * * * //

dimensions      [0 2 -3 0 0 0 0];


internalField   nonuniform List<scalar> 
18355
(
-2.12667e-07
-0.000129871
-4.73462e-08
-1.0446e-07
2.2294e-08
-6.90861e-07
-7.88975e-08
-4.38726e-07
-8.76098e-10
-0.000963687
-1.36355e-07
-0.000110353
-6.95686e-07
-2.30574e-08
-1.38974e-08
4.38756e-08
0.000190699
-7.51826e-08
4.43742e-08
0.00577387
3.39496e-08
4.01153e-08
-0.00232476
2.32344e-08
2.43687e-07
-2.51801e-08
4.04323e-12
7.39093e-09
-0.000279882
-4.04444e-08
-1.92644e-08
8.60929e-08
-7.90518e-08
-1.74514e-07
-4.29577e-07
-1.79806e-07
4.90511e-09
-1.05866e-06
1.26469e-08
-1.46793e-07
-2.23246e-08
-3.12796e-07
-4.88457e-08
-0.00115015
-1.79739e-07
-9.23284e-07
-3.26801e-07
2.39175e-08
-7.42123e-08
-6.13841e-08
-1.47545e-07
-1.59432e-09
-3.53044e-09
0.000160849
-4.2016e-08
-9.26376e-08
-1.51652e-07
-1.65859e-08
1.18974e-07
-4.51725e-07
-6.28379e-08
-5.79724e-07
-7.74431e-08
-3.80979e-07
-0.000189703
-2.36104e-07
-0.000515352
1.07807e-08
-2.19174e-10
3.40686e-08
-5.81355e-07
-2.04479e-08
-4.70552e-07
-7.75389e-08
-4.90509e-07
-7.83526e-08
0.00534667
6.53531e-08
2.97413e-07
-1.64547e-08
-7.62714e-08
8.82705e-05
7.84986e-09
-7.02642e-08
-2.84993e-08
-6.5959e-07
0.000248856
0.00543576
-0.000370187
-0.000975213
-3.43836e-05
-1.85762e-07
-2.92504e-08
-1.45377e-07
-0.000320413
-0.00222995
-5.85691e-08
4.27085e-08
-0.000112771
0.000116863
-0.00048571
0.000155304
-3.03793e-07
-0.00272625
7.56772e-08
-1.39246e-06
0.000155953
6.64967e-08
-1.69794e-07
1.00402e-05
-4.46722e-08
2.75655e-08
-1.20912e-08
2.50146e-08
0.000720576
-1.0765e-07
2.21635e-06
0.00559606
2.26576e-06
-1.75546e-07
-0.000997095
0.00925891
6.45752e-08
-3.14708e-07
-5.79417e-08
-1.0359e-06
-1.41096e-08
5.52445e-09
-0.000815305
-1.4639e-07
-1.45531e-07
-0.00278742
-2.74023e-07
5.62593e-08
-3.78184e-08
-9.57107e-09
-1.67526e-08
-1.39201e-07
-5.6273e-08
2.05828e-07
-0.000558294
-0.000318684
6.21264e-08
-4.9734e-08
9.44358e-06
2.84553e-08
-9.62078e-09
-0.000287761
-5.055e-08
-0.00149412
-3.11965e-08
3.08758e-08
-2.97382e-07
-1.66262e-06
-3.26366e-07
-1.26476e-08
-0.00250695
2.83407e-06
-1.27152e-08
-6.07199e-07
-1.72746e-08
-1.0286e-07
-1.11788e-07
6.90269e-08
4.80804e-07
2.51745e-05
0.00146235
-4.13662e-07
-7.69377e-07
-7.23782e-08
0.000415503
-0.00208909
-1.29454e-07
-1.40187e-07
4.16733e-08
3.88336e-05
2.7847e-07
-2.82286e-08
0.00218888
-0.000118906
-2.35285e-06
-2.7065e-07
-4.07404e-08
-9.65724e-08
-2.44682e-06
0.000127345
-0.00197014
-9.69397e-06
9.27029e-09
0.000175966
-1.6843e-07
-3.0014e-08
7.7391e-08
0.00333946
-1.86526e-07
4.27799e-08
-0.00862691
-3.57108e-08
-1.31514e-07
-1.34838e-07
-1.02956e-07
4.18628e-08
0.00152358
-0.0019417
3.13826e-05
-3.92872e-08
3.71465e-06
0.000368934
-0.000269588
-1.14191e-07
7.41836e-09
-3.99392e-08
0.0045675
6.04401e-08
-7.49748e-08
0.000114927
0.0117082
0.00474081
-1.51594e-09
-5.77061e-08
9.22906e-05
-6.44915e-08
-1.16051e-07
-1.14814e-08
0.00131961
3.64479e-08
0.00046231
0.000148887
5.89782e-06
1.03442e-08
-4.65284e-09
2.95216e-07
-7.37455e-08
0.000567361
1.7748e-08
-2.0756e-08
-3.33366e-08
8.08727e-08
0.0108672
-8.80753e-05
-1.60444e-07
-2.63433e-06
-1.47214e-08
-7.02219e-08
3.78821e-08
-1.14681e-05
0.00935715
-2.76668e-06
-3.23767e-07
-8.38255e-09
-1.00572e-07
-9.92185e-06
-1.78415e-08
-0.000171141
3.05928e-08
0.000313128
0.00983692
-6.48464e-07
-9.24547e-09
-1.32517e-07
-2.54878e-07
-2.21599e-07
0.00152087
-2.70277e-07
-1.07976e-07
-8.59341e-08
-1.41989e-08
7.25921e-07
2.97512e-07
-4.93063e-06
6.36175e-08
-0.0006568
-1.27118e-05
-1.52471e-06
-7.98772e-08
0.000425243
-1.24417e-08
-3.9012e-08
0.00232419
-1.67465e-07
-7.30807e-08
-1.2276e-06
-8.2026e-08
-5.79599e-05
-5.83112e-09
1.42519e-08
-1.67157e-07
-4.11178e-07
-4.24614e-05
7.97589e-08
-1.19059e-07
6.04417e-09
-1.64376e-06
-0.000516433
-2.74657e-09
-9.97041e-09
0.0101805
-1.11728e-07
-2.98238e-07
-4.31027e-06
-3.78185e-08
-5.21079e-07
3.18618e-08
-1.72761e-08
9.24227e-06
-7.46023e-07
1.88846e-05
-1.95828e-06
-1.48678e-07
-2.10627e-06
6.52792e-08
4.12175e-08
-0.0183719
-6.15038e-08
-1.1301e-06
4.70768e-07
-2.88936e-08
-1.4243e-07
-3.73145e-06
-0.00108332
0.000495763
2.62528e-08
3.3631e-08
-0.00108835
-1.20056e-07
0.00534305
3.26716e-07
-5.05276e-07
-0.00455384
-1.49072e-07
2.37143e-05
3.03913e-08
1.49134e-08
-7.65886e-08
-2.78058e-07
0.000154332
8.02417e-10
0.000729829
-2.25479e-07
-8.91183e-09
-1.52272e-07
-5.6738e-07
-0.000686601
0.000845047
0.00553436
2.81947e-08
-8.92031e-08
-0.00216945
-7.0458e-07
-2.35161e-08
3.75775e-08
0.000400695
-2.56002e-06
-1.25796e-05
-0.00230935
-1.17559e-08
-1.07523e-07
-6.83895e-06
-4.58051e-08
2.67938e-08
-3.13579e-06
-9.81255e-08
4.29892e-08
-0.000782068
-4.63655e-09
2.77931e-07
0.000105674
-6.09191e-06
-1.28422e-07
-2.54574e-08
-5.54164e-08
-4.57079e-08
-3.11194e-07
-4.7716e-08
1.75769e-08
-5.47291e-08
-5.22775e-08
-1.41667e-08
4.5636e-10
-1.08474e-07
4.38677e-08
-1.04413e-07
-9.97399e-08
3.92831e-08
-3.20923e-07
0.000117891
-2.14329e-08
0.00309616
-7.63728e-08
0.000181379
-6.47214e-08
-5.10049e-07
4.15532e-08
0.00332517
4.05731e-09
-1.06824e-07
-2.28902e-08
-1.14797e-07
0.000430016
-1.27705e-07
-1.73255e-07
-3.29377e-07
-6.92034e-08
-3.78648e-08
-1.23796e-07
0.000804519
3.72197e-08
-1.61175e-08
-1.38512e-06
-7.81713e-08
-2.35813e-06
0.000143696
-8.0996e-07
1.46357e-08
7.888e-08
-0.000130314
-2.02597e-08
-7.93269e-08
-4.40171e-06
-1.77551e-08
-1.28295e-07
0.000179502
-7.47632e-08
0.000165263
1.57794e-07
1.35656e-07
0.000168427
3.30134e-08
-8.61434e-08
0.00724374
-6.91958e-07
0.000625648
0.0217283
-4.88111e-08
-9.4128e-08
2.34612e-08
0.0103297
1.71346e-07
5.23699e-08
-1.75904e-08
5.86492e-08
4.33596e-07
-1.8907e-06
-1.65981e-08
1.98585e-08
-4.38729e-09
-7.44473e-08
-2.66086e-05
-0.000375727
0.000319569
-0.000884228
5.34945e-08
1.31407e-07
-0.00118923
-5.54337e-08
-1.00661e-07
1.20936e-08
-2.36372e-08
1.35972e-07
-2.8735e-08
-1.74145e-07
0.000109652
-6.00586e-08
-1.31615e-07
-0.000660831
1.56177e-07
4.47906e-05
1.45608e-08
-1.02502e-07
-5.59432e-08
-7.75467e-08
-1.08389e-08
1.03102e-08
-3.62904e-08
-0.000276114
2.42883e-08
-1.53483e-07
-0.00144919
-6.92965e-07
-9.731e-08
2.16279e-08
-2.41645e-07
0.00584412
4.89932e-08
-7.03714e-08
0.00616958
3.97239e-08
-0.000190682
3.56103e-07
-3.64085e-08
3.78561e-05
-7.07861e-07
-8.98174e-08
1.34929e-05
-0.000433574
0.000937713
-3.56142e-08
-7.20582e-08
-7.27501e-08
-1.55571e-06
2.20007e-08
-0.00032255
0.00841688
0.0031956
-0.000411804
-1.1792e-07
1.86612e-07
0.000261147
-0.00222078
0.00346677
8.73096e-09
2.05911e-08
-1.17695e-08
-0.00145807
0.000158655
1.15788e-05
3.98377e-08
-5.77848e-08
-7.63512e-09
-3.89256e-08
-3.45665e-08
0.00819481
-5.46192e-08
0.00113582
-3.81324e-08
6.18367e-08
-1.29655e-07
-1.46841e-08
1.24437e-09
-0.00055383
-7.77457e-08
-1.10549e-06
0.000677043
2.68157e-07
-7.31218e-09
3.60141e-08
3.44482e-07
-1.1829e-08
-2.20286e-07
-1.17382e-07
2.25731e-07
-4.55088e-07
2.81112e-08
-9.24549e-08
1.34287e-08
4.59668e-09
-2.70183e-07
5.71816e-08
-5.92648e-07
1.03791e-08
2.67776e-08
0.0022376
-1.56421e-07
-5.55492e-07
2.24e-08
-6.63653e-07
1.87539e-08
0.000276045
-1.15277e-07
-0.000582397
2.80983e-08
1.85756e-08
0.00970701
0.00294451
-0.008619
2.90076e-07
-1.3399e-07
-3.025e-08
-6.8054e-08
-8.0893e-07
-1.06115e-07
-7.10933e-08
-1.50202e-07
-0.000327724
-1.47809e-06
-1.39217e-07
0.00062138
-0.00427987
3.73456e-08
-5.75865e-08
-5.02518e-07
-0.00110748
-2.44086e-07
-2.51265e-08
5.75297e-07
-3.92443e-07
-3.13591e-07
3.0773e-08
-0.000346368
2.74742e-08
-9.61119e-07
-0.000742101
-0.00232188
-0.00289244
-6.08393e-07
-9.4954e-08
-5.39006e-08
-9.10976e-08
4.90451e-08
-4.93665e-08
-3.96565e-06
2.60865e-05
9.81199e-05
4.2417e-07
-0.000291472
0.000374644
2.89015e-07
3.77349e-08
6.16557e-06
-0.00192955
-1.47691e-07
-1.39012e-06
-0.000460525
-0.00716923
2.40782e-08
-1.31106e-07
2.40077e-08
1.04454e-07
3.49299e-07
-6.55197e-07
-5.5728e-08
-0.00046766
4.49373e-08
4.60905e-08
-0.00150538
-3.808e-09
2.18705e-07
0.00478009
-8.45186e-08
-8.60135e-08
-0.0017713
-1.46837e-07
-1.04562e-06
-1.49409e-07
0.000132235
2.82884e-07
4.23623e-08
-1.06978e-07
-1.08688e-07
-1.59227e-06
3.03548e-08
-0.00119203
-3.67269e-07
-3.73223e-08
-0.000882079
7.03089e-08
-7.56224e-05
0.000292225
7.55302e-06
3.2731e-05
-5.20824e-08
-1.05943e-07
-0.000402559
3.58098e-08
-2.19903e-07
-3.85017e-08
-5.39683e-08
-0.00133081
-0.000217604
-9.84615e-08
-0.000513869
-2.02288e-07
8.96383e-09
-1.30756e-07
-3.79672e-08
-2.75944e-07
6.30454e-08
-8.74545e-08
-0.0116991
-5.05374e-08
-1.73249e-07
-1.74738e-07
-0.000114411
0.000671694
-3.82236e-08
-1.45266e-07
-6.35262e-07
-2.18605e-08
-8.75629e-08
0.000109881
-1.06608e-05
2.65332e-08
-6.70995e-08
-8.10506e-07
-3.75945e-09
3.24494e-07
-1.15734e-06
4.37509e-08
0.000363277
-3.56253e-07
2.49547e-08
5.03456e-06
-0.00203915
-8.10905e-08
0.000148972
-1.04922e-07
-8.05199e-08
1.50816e-08
1.06447e-06
0.000735688
-2.10155e-07
-0.000526288
-5.8267e-08
0.00206511
-0.000673007
-7.04107e-08
-0.000278121
-2.18039e-08
-0.000557529
2.25941e-08
-0.000325761
-0.00014666
5.4402e-08
-4.3455e-06
-4.20246e-08
2.4046e-08
-0.00486702
-1.91196e-07
-0.000141639
-8.8948e-08
0.000270486
-4.79623e-08
-0.000779418
-4.48766e-08
-2.43459e-09
3.10101e-07
-6.80375e-08
-1.6632e-07
-1.84211e-07
-0.000983564
-0.00468709
-9.04598e-08
-2.04242e-06
-7.42415e-08
-7.01798e-08
-9.75562e-09
-2.85257e-08
-1.83169e-06
-0.00312132
-1.99067e-07
-1.85294e-07
6.67596e-08
0.00045833
3.53414e-09
-5.75876e-08
-5.74941e-08
-2.06888e-07
-1.43372e-07
-0.000722581
-1.06664e-08
4.51601e-07
5.59824e-08
-0.00606562
0.000869923
-0.000469146
-1.50939e-07
1.21996e-07
-4.26469e-08
1.20754e-08
1.71349e-08
-0.000616784
-1.18031e-07
-2.96594e-08
-1.73426e-07
-0.0018429
4.95277e-08
-2.85495e-08
-1.55295e-07
-1.49414e-07
-0.00154854
0.000113639
-7.98304e-08
-2.64152e-08
-0.00168668
2.91178e-08
-0.000489025
-0.000162052
0.000604345
5.13592e-07
1.6154e-07
0.0108872
3.08821e-07
8.04511e-10
-7.07379e-08
3.57137e-08
1.78994e-08
-2.35987e-08
2.12216e-08
-0.0053933
7.22004e-05
-7.95217e-08
6.67485e-08
-1.3554e-07
-6.75949e-10
-2.26828e-07
-3.105e-08
2.20645e-08
-8.41137e-08
5.86611e-06
-3.05308e-06
-3.57093e-07
-0.000171416
-3.46011e-08
-0.000543099
-7.68028e-07
0.00380065
-0.00114199
-4.08899e-07
-0.000291048
-9.33749e-07
0.000300339
-8.97531e-08
-5.1007e-08
-7.56872e-08
8.44079e-08
0.00688842
-8.26078e-08
4.43936e-09
-6.54401e-07
-1.36717e-07
-2.32234e-07
-2.61727e-07
-2.96638e-08
0.00785904
-3.41614e-08
-2.61292e-08
-1.04456e-06
-9.31408e-08
-1.12568e-06
1.90466e-06
5.42963e-08
5.95471e-08
-7.40716e-08
6.45649e-08
-1.14326e-07
-9.30056e-08
0.000808277
-3.36372e-10
-0.00215093
-9.04111e-08
-0.0023376
1.61192e-07
-6.02141e-07
-7.14674e-08
-4.44872e-08
-3.32043e-07
-6.99915e-09
5.50085e-08
-0.00226505
-6.29725e-08
0.000299069
0.000302861
6.34465e-08
-7.63903e-08
-3.75874e-08
-1.49037e-07
3.18159e-05
-6.60795e-08
-0.00244645
-2.58704e-05
-6.10327e-08
0.0007637
-1.75216e-07
-6.08092e-08
0.000482992
-0.00110704
1.2389e-08
-4.63e-08
-5.66395e-08
-7.69129e-08
1.0246e-07
-4.55162e-08
1.75265e-05
-9.16203e-08
-0.000355401
-1.29788e-06
-0.00313939
-2.89529e-08
-8.64942e-08
-0.000602365
0.000212845
-1.26287e-07
-6.17124e-08
1.51794e-09
-0.00154967
-3.02382e-08
0.000214407
1.01023e-06
-1.71408e-08
-9.88817e-08
-1.80578e-07
-1.94765e-07
-1.42665e-07
-1.40393e-07
-1.57631e-07
8.34423e-08
-0.00116341
-2.57722e-08
2.9017e-07
-0.00096245
-2.90937e-09
-8.61062e-08
-3.41438e-07
-0.000404089
-9.98273e-08
-0.00170093
4.90722e-09
-1.45876e-07
1.3378e-08
4.55274e-05
3.03549e-05
-1.32421e-06
-1.75032e-07
-6.65388e-09
2.93951e-08
-0.00158079
-9.09463e-08
0.0102758
-1.50022e-08
-2.34012e-05
-3.97062e-08
-1.20431e-07
-1.05643e-06
-6.05161e-08
-0.00104434
-4.98829e-08
-1.48328e-05
-1.587e-08
-8.75282e-08
1.41893e-08
-2.32003e-06
0.000254799
-1.46485e-07
-1.1903e-07
2.55939e-08
-4.14097e-08
-8.87363e-08
4.75134e-09
-1.00151e-06
5.43458e-08
0.00269044
8.93554e-09
-0.000512937
-8.53977e-08
-1.42034e-07
0.000149799
-0.000985628
0.000304944
2.66133e-08
0.00036867
-7.6505e-08
-0.000345803
3.79755e-08
-1.28199e-06
-2.10225e-08
0.0010725
-6.16318e-08
-1.38833e-07
-8.34109e-09
-3.91556e-08
-1.16694e-08
0.00166057
0.0236039
0.000728999
-2.01568e-08
1.27373e-07
-1.00854e-07
-7.50378e-08
-1.23032e-07
-1.38992e-07
4.40225e-08
-5.61431e-07
-4.89869e-08
-0.000784683
-5.88823e-07
-4.95232e-08
2.25312e-08
-0.000348251
-8.4979e-07
5.40177e-08
-1.06553e-07
-9.97352e-08
0.000262973
-2.78758e-07
-0.00107923
2.19148e-07
-5.00659e-07
-8.05396e-06
6.99357e-09
-2.55366e-08
-5.36498e-07
5.74966e-08
-8.47447e-08
0.00352851
-6.78591e-09
0.000250634
5.33604e-08
2.39268e-05
-1.67015e-07
-2.32541e-07
2.01531e-08
-4.62714e-09
-0.000316774
-1.16294e-07
-0.000596916
-3.53578e-09
-5.40209e-09
-0.000368138
-8.09356e-08
2.4096e-07
-0.00555709
1.51382e-09
-2.30515e-06
-0.00109163
-6.85267e-08
3.86177e-08
-0.000997091
5.27568e-08
-1.33834e-08
-1.12993e-07
-7.08442e-09
-1.26738e-07
-3.6344e-07
0.00970124
9.47566e-08
-2.03047e-08
8.64697e-06
-1.61177e-07
0.000137634
1.60178e-07
-9.35274e-08
0.00180946
5.53047e-05
-1.49464e-07
-8.05694e-08
-1.2378e-07
-6.79875e-08
-1.00056e-07
-0.00337659
-6.8981e-09
2.70552e-07
-1.39563e-07
1.26759e-06
-9.48207e-08
8.12824e-06
-3.06333e-06
5.51026e-08
-0.000995965
-8.89241e-08
-1.28186e-07
1.5868e-08
-0.00124166
-5.71129e-09
-1.354e-07
-4.45065e-08
-2.86368e-08
-4.03862e-08
-1.14567e-06
0.0009328
0.000154735
0.000987662
-3.27675e-08
1.91007e-08
-1.06426e-07
1.08404e-08
-8.54585e-08
-3.5344e-05
-0.00144604
3.2317e-09
-1.11754e-07
-0.000721671
-2.8524e-08
-2.60467e-08
0.000996519
-6.23898e-07
0.0105353
1.04446e-08
-9.32941e-08
0.000171824
5.54612e-09
-2.8898e-08
-2.87408e-08
1.90557e-07
1.00881e-09
-4.84966e-07
-1.46521e-06
8.60612e-08
-4.529e-08
0.00124894
2.32804e-08
-1.29274e-07
-9.84648e-08
-3.02071e-09
-6.26846e-08
-8.32539e-08
0.00683269
4.01064e-08
9.08633e-05
-9.28223e-08
7.57949e-09
-0.000990453
-1.40801e-07
1.13264e-07
5.61467e-08
-1.35649e-07
3.56671e-08
-5.43241e-07
-2.80928e-08
-1.8669e-08
-4.07538e-08
-4.03548e-08
-1.86925e-07
-1.02829e-07
4.62895e-08
-7.04568e-08
-3.98765e-08
-9.8715e-08
0.000270375
0.00162804
0.0143159
-0.0036604
-1.38356e-06
-2.1488e-07
-0.00400437
0.00484625
-1.60298e-07
2.1774e-08
-1.14998e-07
5.28092e-06
0.0105806
5.45335e-09
-5.92279e-08
-1.32301e-07
1.21516e-08
-4.67268e-08
-1.02925e-07
-0.000599572
0.000837603
0.000144752
-6.21352e-07
-3.24031e-08
-3.1658e-08
-3.29984e-08
5.60495e-06
0.00142139
-1.01413e-07
-1.66723e-06
-9.98944e-08
-2.17474e-07
8.66995e-08
-1.68549e-07
-2.10279e-07
0.000340171
5.67697e-08
4.92022e-06
-1.49691e-07
-1.30856e-07
7.25405e-08
-7.70101e-08
-9.52003e-08
-2.17636e-07
-3.7192e-06
-3.85403e-08
-9.69468e-07
-7.52207e-08
-1.63883e-08
-8.77595e-08
-5.73062e-08
0.00412324
2.25554e-08
4.45521e-08
7.32471e-10
-0.00101691
-1.63097e-05
-6.85305e-09
7.84295e-09
-1.54447e-07
0.000287328
7.10214e-06
0.000761424
-1.28151e-06
2.51333e-07
-1.40976e-06
-1.75891e-06
1.31596e-07
0.000241654
-1.4254e-07
-7.831e-08
-6.40469e-08
-1.70074e-05
3.1231e-08
-4.54843e-05
-1.04631e-07
5.06317e-08
-0.000389683
-3.92836e-07
2.36052e-08
-2.05928e-06
-8.40271e-08
1.98498e-08
0.000171968
-1.25134e-06
-7.83855e-08
-5.99029e-05
-9.04245e-07
-0.000268579
0.00227813
-1.38481e-08
-0.000163287
-8.10695e-08
-8.03756e-08
-1.09054e-07
-1.08088e-07
-0.00029637
-1.24251e-07
-3.15539e-08
-2.73646e-09
0.000214443
-4.27108e-08
0.0018602
-0.000344764
-1.11319e-08
-9.77674e-08
9.1746e-08
0.00676882
8.05662e-07
-5.18054e-09
-2.15886e-07
-9.19933e-06
1.73583e-09
-1.11749e-07
-9.50351e-08
-1.02999e-07
2.10634e-08
-7.73983e-08
-0.00428004
-6.29992e-07
-1.34548e-06
0.00030354
-1.15277e-07
1.61021e-05
-9.1499e-07
2.83249e-08
-3.39515e-08
-3.36298e-08
-7.87758e-08
-1.27514e-07
-1.10155e-07
9.08264e-05
-6.04266e-07
-0.000320731
-6.20063e-07
-8.33789e-07
5.81335e-08
-1.01948e-06
0.0011569
-2.09888e-07
-1.33223e-08
-1.58052e-07
0.000925148
0.000991213
-2.44917e-07
-1.25568e-06
7.37714e-09
-0.000597933
-9.55512e-08
-1.84755e-08
-3.50921e-08
-8.11376e-08
-9.94122e-08
-5.45254e-07
0.000478272
-1.64516e-08
-0.000347833
0.0002851
-0.00150897
0.000102819
-3.09097e-07
0.000405332
-5.4475e-07
-6.88498e-07
-0.00119467
-2.10442e-08
-2.63663e-08
-1.13516e-07
-2.30683e-08
0.000936763
8.91253e-08
-0.00224729
-1.00706e-07
-1.66983e-07
0.00983694
-2.09442e-08
-0.000869939
-8.88011e-08
1.64029e-06
-1.09358e-07
1.70837e-10
-0.00239443
1.84356e-07
-4.0348e-07
-1.03372e-07
-1.00534e-07
-1.10691e-06
4.20991e-07
-1.36642e-08
7.2132e-09
8.62801e-05
4.06644e-08
-2.76029e-06
-7.10158e-09
-7.40953e-08
-1.59284e-07
-6.79503e-08
1.09488e-07
-1.798e-07
-1.34621e-07
0.000999079
-6.13012e-08
-2.56868e-08
-1.32083e-07
-0.00115451
1.36559e-06
7.51707e-08
-1.38925e-07
6.5963e-08
-6.17764e-07
-1.3082e-06
1.2154e-05
-0.00105632
1.85674e-07
-2.30158e-07
-1.72301e-06
-4.24532e-08
-3.79713e-07
-0.000872037
-1.13595e-07
-2.50885e-06
-0.00113091
9.69448e-05
0.00108107
-0.000380688
-7.37707e-07
1.64647e-09
0.00851079
5.04187e-09
8.04993e-08
-5.84567e-07
1.41795e-08
-9.908e-07
-1.76395e-07
-3.71682e-08
-3.78576e-07
0.000171436
-3.47775e-07
-8.58964e-08
-1.7671e-07
-0.000970691
4.6808e-08
-9.8788e-05
-6.87803e-08
0.000323726
-9.41099e-08
1.6828e-07
-5.86643e-07
-6.23303e-09
0.000299948
-9.87636e-08
-1.15102e-07
-8.93291e-09
2.15042e-08
-0.00189239
-6.37429e-07
-1.51174e-08
-0.00168599
-6.06507e-09
0.000229611
-8.49027e-08
-0.000492165
1.65425e-07
8.27454e-08
1.95817e-08
2.00315e-09
-1.04279e-07
-1.12699e-07
2.32563e-05
-1.99606e-07
-7.05065e-08
-9.26066e-08
-0.000560055
-0.00106425
1.15591e-07
0.00414311
-0.000662613
2.04154e-09
-0.000124764
-1.15671e-07
-1.03809e-06
-1.15821e-07
-6.95111e-09
-4.51926e-08
-5.44585e-07
-0.00332849
8.91051e-07
-6.22979e-07
0.00059945
2.54891e-05
-5.66322e-06
-0.000875301
-8.76861e-08
-2.39905e-07
0.000260535
-1.54245e-07
-3.57296e-07
-0.000331284
-3.60903e-06
-5.62998e-08
0.00217224
-9.76303e-07
-0.000275403
0.0264712
-1.62018e-07
-1.63693e-06
-3.48826e-08
1.56336e-08
-1.4183e-07
0.000290986
-1.53923e-06
-3.07195e-06
-1.40349e-06
-9.90087e-08
-0.00907168
1.03697e-07
-1.82563e-07
2.71483e-08
-5.6785e-07
-1.22775e-07
-9.2113e-09
-6.78998e-09
-0.000167995
-8.55446e-08
-1.99039e-07
9.57992e-06
-1.17061e-07
-8.55641e-08
0.0127699
-1.54379e-07
-1.91966e-07
2.61827e-07
1.24748e-07
2.15992e-07
-2.63953e-08
1.64742e-07
4.51393e-08
-2.80967e-07
-1.70428e-07
-1.12358e-07
1.26391e-06
1.05384e-05
-4.02676e-07
-0.000928536
2.91693e-06
-2.86728e-08
4.1959e-06
0.0078659
-5.49736e-07
-1.37692e-07
-2.43421e-08
7.25262e-06
1.11257e-07
4.37459e-05
-6.70925e-07
-1.40013e-07
-4.24636e-05
-1.24002e-07
-1.80164e-06
0.00971499
2.45243e-08
-5.65968e-08
-3.27512e-08
-1.08681e-07
0.0367136
-6.8133e-05
-1.67494e-08
-1.61144e-06
-1.58971e-05
-2.06991e-08
-1.10144e-07
-2.77942e-09
-2.36512e-07
-1.34926e-07
-1.00358e-07
0.010169
4.76174e-09
3.84261e-06
-8.63064e-08
-7.51842e-08
-1.52496e-08
-4.30753e-07
-2.97862e-08
-3.30235e-07
-1.70351e-08
-9.56122e-08
-0.00205478
7.13937e-06
-9.67266e-07
-0.0614581
2.40346e-08
-1.23464e-07
-0.00231733
-6.58134e-07
0.000327464
5.38841e-08
-5.33887e-08
-2.61413e-07
-2.81822e-08
-1.15054e-07
-1.35015e-07
-4.86477e-08
-4.21027e-07
-0.00150028
-7.08281e-07
0.00122441
4.40103e-09
1.99984e-08
-5.47705e-08
-1.1488e-06
0.000189821
4.78523e-06
-1.75641e-06
-2.51335e-08
-0.000133837
8.58986e-09
-7.94617e-08
-5.68003e-08
2.27911e-08
1.6194e-05
-5.17314e-08
-6.68076e-07
-1.22963e-07
-7.41968e-07
-1.82238e-08
-0.000398838
-1.17677e-07
-8.69878e-08
1.95785e-07
-8.72082e-08
-1.11858e-06
2.37815e-06
-0.00245919
-2.82259e-07
-1.10789e-07
-0.00254117
-1.16278e-07
-6.12049e-08
-2.78878e-07
-7.63389e-08
-1.24471e-07
-1.66604e-07
0.000366787
-1.10436e-07
-5.96154e-07
-4.41655e-07
-4.09924e-08
0.000344056
-1.12292e-07
1.07527e-08
5.05802e-09
-1.2775e-07
-1.44545e-07
1.50878e-08
-1.08394e-07
7.64338e-09
-1.05009e-07
-1.02098e-07
-1.02713e-07
-2.18896e-06
0.0103294
2.40859e-08
9.94738e-08
0.000263463
-1.29322e-07
-3.67901e-08
-2.11854e-07
-1.12511e-06
1.92618e-08
-4.07155e-07
0.00112476
4.84447e-08
0.000271781
-0.000252491
-5.69437e-08
-1.61951e-08
-6.8255e-07
-1.60686e-07
0.00919438
0.00668431
-0.00125818
-1.01108e-07
3.31499e-08
-1.31414e-07
-1.39301e-06
3.88124e-08
8.97297e-06
-1.74309e-08
2.54205e-07
0.000231762
-2.68985e-07
-3.4612e-08
-0.00426829
0.000244092
-0.001586
2.07104e-08
-4.39105e-08
0.00124793
-2.12078e-06
-8.92898e-08
2.60929e-09
2.63526e-05
-2.13884e-08
-2.35656e-07
2.81494e-06
-9.64395e-08
-1.84091e-08
-0.00184136
-4.5762e-07
-1.59555e-08
-1.85932e-07
-1.62033e-07
5.14935e-09
3.54207e-07
-6.45793e-08
-1.13259e-07
2.74315e-08
1.07767e-07
-2.79145e-08
-7.15734e-07
-7.92202e-08
-1.47891e-08
0.00315551
0.000355874
-0.0010184
-1.50138e-08
-6.39003e-08
-2.32943e-07
-5.6047e-09
3.90222e-08
-3.65108e-08
-1.27465e-07
2.50676e-08
0.000454559
-1.55004e-07
-5.05201e-08
-2.61472e-08
-9.65544e-08
0.000208439
-2.66885e-05
-7.0748e-08
-1.04563e-07
-7.46262e-08
9.51433e-08
5.87466e-05
3.39793e-08
-3.63682e-07
-2.56941e-08
7.98392e-08
2.30529e-07
-2.35997e-05
0.00014563
1.18076e-08
0.000151871
-0.00193592
-4.75765e-08
-1.75197e-07
-3.83332e-08
-1.49273e-07
5.34616e-08
-2.83309e-08
-9.26927e-08
-4.48203e-07
-9.87735e-09
-1.62757e-06
-3.25257e-07
5.86257e-08
-1.15635e-07
0.0045245
3.08781e-08
-1.95765e-07
2.44569e-06
-1.28891e-08
-0.00242994
-0.000143467
-1.01725e-07
-2.77825e-05
-0.000278269
3.09819e-06
-6.61309e-08
2.10549e-08
-1.39268e-08
-0.0213082
-6.87692e-09
-8.93027e-08
-3.34013e-07
-6.64612e-07
1.73525e-06
0.000777442
-3.35754e-08
3.91983e-08
1.88275e-08
-9.35454e-06
-0.000549837
-5.30003e-08
-1.84776e-07
4.03308e-08
4.67332e-08
-4.87235e-08
0.000301804
-5.74576e-07
-5.29241e-08
-1.30228e-07
-0.00018245
-1.62999e-08
-7.26912e-08
-1.03118e-07
-2.19905e-07
-3.17042e-08
-4.69307e-08
-1.2623e-07
-0.0379462
-1.9534e-07
-8.46446e-08
-6.97446e-08
-3.85317e-08
2.59796e-06
-4.53257e-08
-7.1377e-08
-0.000328275
-0.00235389
7.99552e-09
-1.94828e-08
-9.20567e-08
2.14579e-07
1.62687e-07
-1.12764e-07
-0.000354828
-1.35592e-07
4.92558e-08
-1.39647e-07
-0.00159314
-4.88327e-05
8.47793e-06
-8.96286e-08
0.000762931
-0.000267867
-0.00377399
0.00442388
-6.18344e-08
-5.19661e-08
-7.39542e-08
-3.13812e-08
-5.92836e-08
-5.97937e-08
-1.80637e-07
2.84987e-06
2.56064e-09
-0.0011243
-1.78304e-07
-0.000571052
-7.13932e-08
-0.00160236
-2.84235e-08
-1.52356e-07
-9.31917e-08
1.32906e-08
1.51783e-08
0.000133016
1.32287e-08
-9.44194e-08
-1.0885e-07
-0.0011006
-8.43033e-08
-5.65029e-08
2.96711e-10
-1.5041e-07
-0.000157628
-1.68308e-06
1.96487e-06
-7.25543e-08
-5.16784e-06
-8.99942e-08
-0.00130886
0.000235936
-1.29355e-07
-0.00222641
-4.99131e-05
-3.50733e-08
-1.40184e-07
-2.8265e-07
-2.07094e-07
-3.3311e-07
-1.20259e-07
-4.04878e-05
-2.46201e-07
-4.77781e-07
-1.71614e-07
-1.12668e-07
1.66751e-07
0.000230831
-0.00558019
0.000176184
-3.32818e-07
0.000255952
9.13351e-08
-0.0010899
-1.13502e-07
2.86489e-06
-8.40086e-08
-2.5515e-08
-0.00397557
4.39342e-08
-1.84145e-06
-2.76776e-09
-2.59222e-08
0.00101552
0.000470844
-1.06919e-07
-0.00188272
-7.5123e-08
-0.00232285
-8.23875e-08
-0.00145627
0.000263988
-9.90279e-08
-0.00034699
-1.26213e-07
-0.00134191
-2.53502e-08
-5.78873e-08
6.13216e-08
-6.75693e-07
-6.5828e-08
-7.27959e-05
-1.12897e-07
0.000951533
-9.82132e-07
-5.57013e-05
-1.04081e-07
-9.11578e-08
-0.00105164
-1.10893e-08
-4.40366e-08
-4.04624e-08
-8.34563e-07
-6.35311e-08
-3.45075e-08
-5.85069e-05
2.26874e-08
-7.28066e-08
-1.14961e-07
4.82474e-08
0.000960963
-2.40234e-07
-1.09789e-07
-0.00126999
0.00153521
-1.18317e-05
-9.41138e-08
-3.37351e-08
8.43417e-07
-9.09422e-08
-1.12853e-07
-1.2218e-07
-2.29892e-08
-8.3283e-08
-3.31631e-08
-1.38749e-07
1.02056e-07
0.00056246
-7.0074e-06
-4.27225e-06
-7.58737e-09
-6.6656e-08
0.00592456
3.13176e-07
-7.76544e-08
-1.17476e-07
-0.000719132
-0.00163087
-3.0774e-08
0.00081048
3.47774e-07
-4.60075e-06
-2.91854e-09
0.000748196
-1.35633e-07
7.2672e-08
-5.00101e-08
-1.35696e-07
4.22698e-08
-0.00120851
-9.5062e-08
-0.0019591
-2.54625e-06
0.000611805
-0.000931113
-4.81656e-08
-2.57568e-08
0.0093926
-7.78725e-08
-2.45088e-06
-3.44136e-08
-2.49798e-07
2.28998e-08
-0.00080855
-0.00131461
0.001323
-1.12688e-07
8.15944e-05
0.00152791
0.000937987
-3.04018e-05
5.25735e-07
-5.30697e-07
8.69713e-10
0.000525558
-0.00190889
1.64088e-07
0.000585325
-1.40634e-07
-9.01397e-09
-4.0153e-07
-0.00298997
4.45108e-09
-0.000288867
-8.92749e-08
-0.00698039
-4.5251e-08
-1.43519e-07
-1.72723e-07
4.37692e-09
-2.16428e-05
-1.24649e-08
-8.30754e-08
-2.44084e-07
-4.14648e-06
-1.3681e-07
-8.47303e-08
-0.00140215
-0.000792098
1.73756e-08
0.000418025
3.79056e-08
-4.33003e-08
0.00153988
-0.00100194
-9.17198e-09
4.98747e-06
-8.86051e-08
-1.03674e-07
-2.10914e-07
-0.00154364
4.85172e-08
0.011371
-3.59463e-08
-5.74629e-08
0.000214406
-1.06177e-07
-4.36818e-07
-1.17114e-07
-3.59784e-07
-2.05406e-08
0.00023314
-3.06524e-08
1.91431e-07
-7.09149e-08
4.36071e-09
-2.40012e-06
-0.00153174
2.49527e-08
-0.00549105
1.32819e-07
0.00163123
-0.00486003
0.000713459
-8.77601e-08
2.63701e-05
-0.00356874
-0.000221632
-0.0001061
4.43395e-08
-8.57516e-08
-1.11712e-07
-0.00285649
-5.37153e-08
-8.68419e-08
0.00194957
-2.39704e-08
-0.00109557
-2.06252e-08
0.00610941
4.44176e-09
-2.34308e-08
-1.31528e-06
-1.92631e-07
-2.07216e-07
-2.81513e-08
-1.13283e-07
-6.83167e-07
-0.000147154
-1.10151e-07
-4.48486e-08
-0.00171475
0.00135161
-1.53033e-08
-1.90754e-07
-2.15669e-07
-1.50513e-08
0.000116835
-0.00109282
-0.000800897
-1.18909e-06
0.000304069
0.0105583
-4.92246e-06
-1.36472e-07
-1.11072e-07
5.48502e-08
-7.532e-08
-9.81093e-09
0.000198659
0.00146396
-5.00343e-08
-1.04859e-07
-8.28882e-09
-0.00299103
-0.00369841
0.0139143
0.00126487
1.17007e-08
0.00195526
0.000586146
2.56527e-08
-0.000966953
-2.2875e-07
-1.10242e-07
-0.00207885
0.000380963
-0.0004656
-1.06264e-08
-2.37921e-08
-1.78531e-07
-0.000210912
-2.13265e-08
2.3335e-08
-2.57489e-08
-1.63813e-07
1.75671e-09
0.00126141
2.50477e-08
-1.17896e-07
0.000188839
-4.31356e-08
-0.000943878
-2.59751e-07
-0.000713659
-0.000242549
-8.86817e-08
-0.00107125
-9.24728e-06
1.84881e-05
6.30124e-08
6.08808e-08
-5.59743e-08
2.05121e-08
0.000246034
-2.14398e-06
-2.30267e-07
-1.02476e-07
-9.08825e-08
2.57896e-06
-1.23159e-07
-8.7562e-09
1.209e-09
-7.4649e-08
-0.00161669
-7.49773e-08
0.0106973
-0.000213609
3.79592e-08
-8.26551e-08
-0.000839849
-8.74654e-08
-1.1499e-07
1.2265e-05
-2.63118e-08
-8.56651e-08
-5.72205e-07
-2.62989e-07
-0.000321501
-1.14517e-07
3.29098e-08
4.22738e-08
-0.00118633
-0.000180886
-2.17828e-07
2.82702e-07
-5.01639e-08
-9.15129e-08
-9.96016e-08
-7.32376e-08
-1.76413e-06
1.76758e-07
6.38763e-09
-9.01742e-08
-1.20684e-08
-2.62401e-08
-9.25295e-08
-8.13177e-08
2.18551e-06
-0.000219326
-0.00578032
1.49363e-05
0.0153232
2.63826e-05
-8.18486e-08
0.000278353
-0.00115384
0.0146461
2.53748e-09
-1.04921e-07
-9.67577e-07
4.3515e-05
-1.1688e-06
-1.17739e-06
-0.00407512
-5.00574e-08
-7.21493e-08
0.00109848
-1.22795e-07
-1.26783e-06
-1.09965e-06
-3.72917e-08
0.000268281
0.00545308
-1.56741e-08
5.59942e-05
-0.00095026
-4.18357e-06
-4.75604e-06
2.7713e-08
0.0189564
2.01333e-05
-0.00120926
-1.20016e-07
2.92032e-07
1.23621e-05
-1.41251e-07
-1.13026e-08
-8.17373e-08
-4.99679e-07
4.47045e-08
0.000195324
-0.000163383
-2.17077e-08
-2.56584e-08
2.9652e-08
0.000262591
-4.04646e-07
3.54932e-08
1.72017e-08
0.0106829
-6.72975e-08
-2.79819e-08
-3.40541e-07
-1.07873e-05
3.37006e-08
4.49983e-08
-4.34318e-07
-6.91806e-08
-6.21596e-07
1.20901e-08
-5.57746e-08
1.96621e-07
-5.76814e-08
4.29672e-07
-0.00210246
-6.93491e-06
-1.25526e-08
0.00124651
0.000114739
-6.49409e-08
0.000231898
3.49733e-08
2.26228e-08
-0.000528346
1.92743e-07
6.7072e-09
-2.6879e-07
3.30403e-07
-4.85324e-08
-1.55155e-07
-4.94002e-08
1.11605e-05
-0.000649754
9.92333e-05
0.000124798
-1.35842e-07
1.58401e-08
-2.11094e-07
2.49272e-06
-0.000578094
-6.64138e-08
0.00680425
3.28091e-08
0.000316586
-1.35944e-07
-0.00128563
1.54459e-08
0.00133697
-0.000816521
-8.57218e-07
-0.00148275
3.35253e-07
-1.0476e-07
-7.31839e-08
0.000170435
-0.00107653
-9.78168e-08
5.53179e-09
-1.00512e-07
1.36323e-08
-1.70182e-07
7.33828e-09
3.41518e-08
-7.96766e-08
-5.1449e-07
-1.35483e-08
-0.00201617
-3.22847e-08
-0.0012686
-8.11919e-08
-2.29048e-06
0.00146766
5.6242e-08
0.00679549
-4.78632e-08
-1.5007e-07
-5.39689e-08
-2.84281e-09
-3.56575e-08
2.37299e-05
9.93552e-07
-2.52878e-08
-5.08646e-10
-2.22515e-08
0.004057
-9.91889e-08
-4.83604e-05
-5.58208e-06
7.40624e-09
-4.77419e-07
3.67783e-08
6.10668e-08
-9.48886e-08
-3.077e-09
1.43623e-07
0.00161415
-4.52726e-08
-0.00167016
-8.72509e-08
-4.7268e-08
-7.47425e-08
-0.00041555
-1.28224e-08
-0.0015987
1.85952e-06
-5.62514e-10
0.000122141
-1.2432e-06
-0.00122301
1.55478e-07
8.71011e-09
-3.40045e-08
-4.55097e-07
0.0090967
-2.34027e-08
2.64217e-10
-1.23435e-08
-1.86399e-07
2.19373e-06
-0.000227876
0.00118655
0.000693897
-6.53951e-08
-0.000101877
-5.10755e-08
-0.001331
-2.8087e-05
-8.41997e-08
-2.14656e-05
-5.32221e-07
-1.38488e-07
3.32289e-08
-1.46476e-08
-3.83714e-08
5.19935e-08
-5.60956e-08
-0.00610892
3.99459e-05
-7.97835e-07
0.012647
-6.225e-08
-0.00803652
-2.67522e-08
-5.50517e-08
-4.40724e-07
-0.00154462
-8.06408e-08
2.63126e-05
9.47576e-08
-6.22994e-07
0.000281334
-9.4774e-08
-3.47372e-07
-0.000958544
-7.7268e-08
-2.50883e-08
1.38751e-05
-4.23877e-08
-5.52962e-08
-2.12844e-08
-8.54982e-06
0.00134381
-1.37193e-07
-2.08356e-10
3.43219e-05
0.00103535
4.36512e-09
-2.22342e-08
-0.0222474
-0.00258519
5.20283e-08
1.1275e-05
1.9854e-09