/*--------------------------------*- C++ -*----------------------------------*\
| =========                 |                                                 |
| \\      /  F ield         | OpenFOAM: The Open Source CFD Toolbox           |
|  \\    /   O peration     | Version:  v2012                                 |
|   \\  /    A nd           | Website:  www.openfoam.com                      |
|    \\/     M anipulation  |                                                 |
\*---------------------------------------------------------------------------*/
FoamFile
{
    version     2.0;
    format      ascii;
    class       volVectorField;
    location    "950";
    object      U;
}
// * * * * * * * * * * * * * * * * * * * * * * * * * * * * * * * * * * * * * //

dimensions      [0 1 -1 0 0 0 0];


internalField   nonuniform List<vector> 
18355
(
(1.09771 0.0841101 -1.95588e-20)
(0.103194 -0.0124771 -1.05414e-20)
(1.0038 0.0218595 8.32425e-23)
(1.01502 0.00487016 1.53204e-21)
(1.04418 -0.00534068 0)
(1.14589 -0.0644129 0)
(1.00393 0.00706922 -4.17598e-22)
(1.16094 0.0271805 -3.24622e-20)
(0.939243 -0.00748062 0)
(-0.000624186 -0.00808952 0)
(1.02178 0.00043971 2.30067e-21)
(-0.238261 0.00738451 -8.06679e-20)
(1.20112 0.0236832 1.03062e-19)
(0.987281 0.00504345 8.01378e-21)
(1.02579 0.0350775 -2.7674e-21)
(0.986858 0.0706557 1.19008e-20)
(-0.243535 0.0206381 1.8946e-20)
(1.01548 0.0102871 1.95531e-21)
(1.00479 0.0360637 0)
(0.605031 -0.085864 2.32041e-20)
(0.967212 0.087573 0)
(0.974812 0.0339134 -5.15636e-21)
(0.0816313 -0.0209408 -6.19497e-20)
(1.04339 -0.00569439 0)
(1.05362 -0.02239 -2.71786e-21)
(0.999242 0.0036335 2.50871e-21)
(0.996201 6.34245e-05 0)
(0.942886 0.00532651 5.90205e-20)
(0.0304186 0.119707 5.8277e-21)
(0.993541 0.0240801 1.14461e-20)
(1.03618 -0.00575888 0)
(1.0509 -0.00985874 -7.93845e-21)
(1.01526 0.00985722 1.4929e-22)
(1.00988 0.000559577 5.77881e-22)
(1.13324 0.133909 6.34085e-21)
(1.10174 0.0842705 2.25882e-20)
(0.95547 -0.00401081 6.33171e-23)
(1.17213 0.268662 1.5257e-20)
(0.9446 0.006539 -4.65532e-20)
(1.02235 0.000887793 2.38971e-21)
(0.98668 0.00485831 -1.01671e-20)
(0.939269 0.316426 -1.26206e-20)
(1.00372 0.022534 1.56983e-21)
(-0.082698 3.81693e-05 2.7821e-22)
(1.01464 -2.27542e-05 1.98598e-21)
(1.18204 0.268306 -6.23549e-21)
(1.14725 0.0791205 -5.97091e-20)
(0.935001 0.0251629 0)
(1.13467 0.0796913 -3.88858e-20)
(1.01496 0.0113641 -8.16375e-22)
(1.01942 0.00232451 -3.83141e-21)
(1.01679 0.0222546 4.78868e-22)
(0.999989 0.000480107 3.72281e-21)
(0.27976 -0.0561966 -6.00216e-20)
(1.00039 0.00599385 3.95399e-21)
(1.0018 0.000296383 0)
(1.10059 -0.120665 0)
(1.02561 0.0359984 2.18873e-21)
(0.11574 0.452167 0)
(1.21558 0.145326 -3.22713e-20)
(1.01455 0.0114479 -7.08752e-22)
(1.15086 -0.0273656 0)
(1.0165 0.00946003 4.07457e-21)
(1.01365 0.194215 -2.80797e-21)
(-0.222704 0.00578454 9.18967e-20)
(1.09561 0.0803871 0)
(0.0272123 0.0971603 -3.52142e-20)
(0.856385 0.0526369 6.26203e-20)
(0.99649 7.54105e-05 -7.298e-21)
(0.976399 0.0341252 -4.44722e-21)
(1.15916 0.106183 1.78128e-20)
(1.00007 0.000441429 -2.07938e-23)
(1.22057 0.149377 3.93636e-20)
(1.01147 0.0113191 -1.51621e-22)
(1.16052 0.0309417 -1.8239e-20)
(1.0041 0.00729129 5.44108e-22)
(0.671716 -0.0989448 5.28357e-20)
(1.05192 -0.00723814 0)
(1.06516 -0.0288679 -4.77062e-21)
(1.01619 0.0194666 0)
(1.00364 0.00694929 2.49113e-21)
(1.23077 0.353622 0)
(0.969213 0.0852889 0)
(1.06143 0.183589 5.92325e-21)
(0.999128 0.00378279 0)
(1.19774 0.0245141 1.58208e-20)
(0.264707 0.000266909 -7.0878e-21)
(0.614899 -0.0859881 -7.06343e-21)
(0.0216947 0.123435 -6.45621e-21)
(0.240513 -0.0468395 0)
(1.22498 -0.0873835 9.32574e-21)
(1.0148 -5.75054e-05 -4.55257e-21)
(0.999903 0.00532644 -5.96642e-21)
(1.01851 0.000448326 6.17203e-21)
(-0.00536214 0.094111 1.87155e-20)
(0.0482946 -0.0176233 0)
(1.02563 0.0153705 -1.84941e-21)
(1.07471 -0.00247485 2.83649e-22)
(0.23995 -0.0510338 0)
(-0.186812 0.0236626 3.92793e-20)
(0.00190209 0.145849 0)
(-0.207202 0.0204587 1.16194e-19)
(1.09607 0.140545 -1.02165e-20)
(1.13896 -0.103397 2.76212e-20)
(1.04327 -0.010177 1.1916e-20)
(1.18636 -0.0396876 0)
(-0.286779 0.0094447 0)
(1.11903 0.30491 0)
(1.10605 0.0259651 2.44631e-20)
(0.485579 -0.31379 -2.44788e-20)
(0.998028 0.0234374 -4.91894e-21)
(0.950886 0.0172917 -2.75782e-20)
(0.998985 0.00302715 1.46374e-21)
(0.948658 0.0166208 1.94563e-20)
(0.281943 -0.0516167 3.01966e-20)
(1.00294 0.000840425 0)
(0.0686834 -0.307077 -9.15055e-20)
(0.667459 -0.10135 -9.02186e-20)
(0.0749409 0.343735 0)
(1.09168 0.145076 1.09014e-20)
(0.00611215 -0.0104852 0)
(1.35239 0.131851 0)
(1.05101 -0.00773769 0)
(1.15854 0.109536 -3.87346e-20)
(1.02497 0.0155452 1.8822e-21)
(1.1196 0.315876 0)
(1.01718 0.0216467 -7.24795e-22)
(1.00001 0.000947061 0)
(1.36268 0.252271 5.86823e-20)
(1.01827 0.000519067 -4.3955e-21)
(1.01942 0.00254646 5.88051e-21)
(1.15173 -0.0527417 -3.66272e-20)
(1.13632 -0.0056938 -4.36353e-20)
(1.07332 -0.00333187 0)
(0.911716 0.187392 1.89351e-20)
(1.00001 0.00107741 7.97183e-22)
(1.02242 0.0279865 2.74202e-21)
(1.02182 0.000229482 0)
(0.991817 0.0141734 3.15966e-21)
(1.1564 0.176194 1.01642e-20)
(3.11665e-05 0.144626 0)
(-0.023613 0.127652 3.00447e-20)
(0.998361 0.0478188 7.65066e-21)
(0.997594 0.0226522 -4.59461e-23)
(0.378893 0.0251412 -9.70897e-21)
(0.97485 0.0303568 8.41213e-21)
(0.909679 0.00263897 4.32539e-20)
(0.232363 0.0194439 -2.45067e-20)
(1.06314 0.00884915 6.82658e-21)
(0.207733 0.025472 2.23013e-20)
(1.04406 0.000348007 0)
(0.9742 0.0315427 -2.95117e-22)
(1.12836 0.131873 -1.8085e-20)
(0.10909 0.404864 1.18737e-19)
(1.11807 -0.0865881 0)
(1.00004 0.000474009 5.24863e-21)
(1.1725 -0.0550591 1.85755e-20)
(0.0835614 0.312334 0)
(1.00004 0.000482794 0)
(1.15784 -0.0259027 -3.92526e-20)
(1.01077 0.10419 -1.77682e-21)
(1.05071 0.0627745 0)
(0.906785 0.092959 1.43236e-20)
(1.07436 -0.00560474 2.48356e-20)
(1.13798 -0.136839 0)
(0.502309 0.669192 3.72451e-20)
(0.197135 0.0559781 9.4118e-20)
(1.12431 0.0908551 0)
(1.24544 0.0191744 4.54779e-20)
(1.01365 0.0112179 -8.85611e-22)
(-0.0787201 0.125527 2.15618e-20)
(0.0097756 -0.0134675 6.77554e-20)
(1.02076 0.000986827 -7.83539e-24)
(1.02153 0.00096729 -4.26547e-21)
(0.989629 0.0699548 -1.02686e-20)
(0.140452 -0.00397925 0)
(1.0868 -0.0811398 5.57081e-21)
(1.00026 0.00548645 -4.21638e-21)
(1.35422 0.249946 9.32226e-20)
(0.449339 0.217072 1.00411e-19)
(0.66645 -0.117796 7.62727e-22)
(1.24478 0.0160003 0)
(1.08751 0.00655154 0)
(1.0054 0.0065348 1.1595e-21)
(1.16096 -0.131645 2.7221e-20)
(0.166492 -0.00673944 -1.69379e-20)
(0.198283 -0.0386365 0)
(1.21702 -0.0696492 -3.40044e-20)
(0.938223 0.00520188 4.51804e-20)
(-0.261902 0.018858 0)
(1.0981 -0.119402 2.7867e-21)
(1.0042 0.0240192 0)
(1.07318 -0.00644107 -1.88959e-20)
(1.08527 -0.112778 2.97234e-20)
(0.890567 0.208675 0)
(0.97682 0.0370521 -7.8322e-21)
(1.27387 0.00708098 3.75506e-20)
(1.08616 0.00523771 3.01615e-21)
(1.11688 -0.00896345 2.70668e-20)
(1.02129 0.00112128 5.29491e-21)
(1.05479 0.0154443 0)
(0.941602 0.0451317 0)
(0.145906 0.0742898 2.67659e-20)
(0.159132 -0.0333815 -2.07015e-23)
(-0.304779 0.0105748 -9.54448e-20)
(0.995711 0.115439 3.69913e-21)
(0.0850458 -0.273579 0)
(-0.0618675 0.00926573 8.55411e-20)
(-0.0424294 -0.000820793 0)
(1.11487 -0.0108692 -4.71207e-20)
(1.02177 0.0289033 0)
(1.04328 0.00081347 -6.57335e-21)
(0.567374 -0.0709025 -2.96082e-20)
(0.998677 0.046179 -7.31164e-21)
(1.01321 0.0109685 9.24801e-22)
(1.23064 0.342875 0)
(1.05644 -0.159809 1.24409e-20)
(0.558098 -0.0708727 -1.64595e-20)
(0.999064 0.00281823 4.02689e-21)
(1.06182 0.00931018 2.98797e-21)
(1.26524 0.245613 -3.53275e-20)
(0.993358 0.0154111 -1.29841e-21)
(1.05578 0.180516 -8.19999e-21)
(1.02237 0.0272899 -2.03434e-21)
(0.106179 0.0476339 1.06106e-19)
(0.984709 0.0356 6.03641e-21)
(-0.0994813 0.012081 -5.62343e-20)
(0.201142 -0.00544397 0)
(0.547309 0.00169408 6.82739e-20)
(1.02085 0.0289415 -1.4147e-21)
(0.999993 0.000605882 -1.20443e-20)
(1.06357 -0.0277131 1.32595e-20)
(1.03112 0.0916562 3.15396e-21)
(-0.0707584 0.0137235 6.96227e-20)
(1.01545 0.0568501 0)
(0.999396 0.00409476 -4.96729e-21)
(1.00019 0.00528429 4.17643e-21)
(1.14999 0.314589 0)
(1.23487 -0.12071 -4.13097e-20)
(-0.22095 0.0147529 1.31969e-19)
(1.10329 0.02547 0)
(1.24716 0.0281052 7.8289e-20)
(1.03638 -0.0069461 2.42927e-21)
(1.01274 0.0115716 0)
(0.981697 0.0359733 3.32493e-21)
(0.176306 0.00133069 5.23454e-21)
(1.29119 0.109141 -7.37532e-20)
(0.0667125 -0.10861 -8.33782e-20)
(1.11506 -0.0862321 4.58499e-21)
(1.01273 0.100974 -1.26339e-21)
(1.05438 0.0165281 0)
(0.209568 0.817956 -1.49874e-20)
(1.0878 0.00276507 2.06819e-20)
(-0.0124461 -0.000232657 -1.94392e-20)
(0.989905 0.0351201 0)
(-0.197608 0.0173017 -1.70176e-19)
(0.926956 -0.141288 1.46635e-21)
(1.15939 -0.0226384 4.16651e-20)
(0.999068 0.0283069 -5.85374e-21)
(1.00601 0.000403201 0)
(1.09157 0.0805593 0)
(1.16875 0.103172 4.28061e-20)
(0.278143 0.114812 -4.70294e-20)
(1.13945 -0.00553522 0)
(1.00827 0.00637909 -2.88364e-22)
(1.01268 0.0101087 1.47009e-21)
(0.999983 0.000725775 0)
(1.25038 0.0205651 6.29156e-20)
(1.08181 0.262998 -1.5692e-20)
(0.586908 -0.0445326 7.26837e-20)
(0.982369 0.0533525 0)
(0.112301 0.0541069 2.29858e-21)
(1.22079 -0.0708074 -1.27311e-19)
(1.18455 -0.0366945 0)
(1.0386 0.0282649 8.46032e-21)
(1.28012 0.00995088 3.46976e-20)
(1.01678 0.0202141 4.53902e-22)
(0.995843 0.00988647 -3.95885e-21)
(1.07896 0.822548 6.7594e-20)
(1.00879 0.000657217 0)
(1.0041 0.00758243 -2.9654e-21)
(1.18857 -0.0313951 -4.16376e-20)
(1.00309 0.0159848 -3.49471e-21)
(-0.0179339 0.111403 -1.66338e-22)
(1.08669 0.00149659 -2.69263e-20)
(0.92603 0.015645 1.67751e-20)
(1.00846 0.000647661 0)
(1.12311 0.0946231 0)
(-0.223645 0.00740719 0)
(1.0517 -0.00910369 1.01911e-20)
(1.0146 0.00469333 -1.68929e-21)
(0.989348 -3.04309e-05 -7.56149e-21)
(1.18386 -0.0684109 4.82177e-20)
(0.139138 -0.0303226 -7.82787e-21)
(0.999981 0.000773029 0)
(1.00002 4.56154e-05 -4.32574e-22)
(1.01095 -0.154739 0)
(1.10628 0.140675 -9.76686e-22)
(1.11213 -0.0905978 0)
(0.63345 0.394424 0)
(0.996068 0.00950979 3.81118e-21)
(1.16414 0.101874 0)
(0.96358 0.028454 5.88506e-21)
(1.00003 7.99429e-05 0)
(0.632729 0.364279 2.82684e-20)
(1.13988 -0.139056 -2.30334e-20)
(1.1179 -0.159111 -1.80723e-20)
(1.18582 -0.0711771 -5.33051e-20)
(1.01832 0.000779565 3.11432e-21)
(0.647765 -0.1163 0)
(1.04139 -0.0102453 4.96106e-21)
(1.00366 0.0354904 0)
(1.34107 0.120718 -1.09339e-20)
(1.00024 0.0210645 8.39641e-24)
(1.25143 0.0244344 3.63928e-20)
(0.925026 0.312238 1.17559e-20)
(0.99993 0.00560669 6.78688e-21)
(1.01675 0.00290241 0)
(1.2485 0.032163 0)
(0.100891 0.0241613 0)
(-0.0253601 0.00712881 -4.03464e-20)
(1.01815 0.0405197 1.08965e-21)
(0.911114 0.0892439 1.7339e-20)
(-0.0980345 0.0021146 4.21086e-20)
(1.02919 0.00101788 -1.0401e-20)
(1.23595 -0.117631 0)
(1.05941 -0.0302371 -1.15106e-20)
(0.959529 0.144349 0)
(1.23074 -0.113004 -3.97749e-20)
(1.01803 0.000849928 -2.82576e-21)
(0.499715 0.725961 0)
(1.0018 0.0334628 -4.80354e-21)
(0.907823 0.198217 -3.33799e-20)
(1.00108 0.000298155 1.43416e-21)
(1.11264 -0.0885063 0)
(-0.213244 0.00999531 0)
(0.999948 5.06746e-05 0)
(0.168624 0.120623 1.28376e-19)
(1.11756 0.0269407 5.79121e-21)
(0.995084 0.00298779 0)
(1.14309 0.0806274 4.33078e-20)
(1.15152 -0.0307121 0)
(1.08457 -0.0959691 0)
(0.31923 -0.0624407 9.24931e-22)
(1.14407 -0.112398 -2.74033e-20)
(0.990235 0.0341632 -2.43054e-21)
(1.01628 0.00911818 -8.21827e-22)
(0.0315909 -0.012384 6.01528e-20)
(0.699495 -0.0766533 0)
(0.999666 0.00502235 -2.51748e-21)
(1.01229 0.053077 1.65472e-21)
(1.1208 -0.161644 2.08399e-20)
(1.15857 -0.132983 -5.04466e-20)
(0.265469 0.719747 0)
(0.0645523 -0.0170148 0)
(0.997913 0.00411065 0)
(1.0611 0.0189053 0)
(0.0464625 -0.163444 2.09619e-21)
(0.998747 0.0235027 0)
(1.01494 0.0551055 -4.44941e-23)
(1.23379 -0.0595779 2.94343e-20)
(1.11405 -0.0157256 0)
(1.06342 -0.00280821 0)
(0.12568 0.0289829 0)
(1 0.000601256 -1.01391e-23)
(0.826893 0.165028 3.47891e-22)
(1.26817 0.251229 1.24405e-19)
(-0.223267 0.00966075 0)
(1.01448 0.00437374 0)
(0.985657 0.0217838 -1.41142e-20)
(0.993325 0.0119259 -1.80261e-21)
(1.0234 0.0169859 -2.67593e-21)
(0.829735 0.254274 0)
(1.02398 0.0167846 0)
(1.1133 0.101316 0)
(0.993678 0.0116203 2.70426e-21)
(1.03503 0.0720999 -4.87194e-21)
(0.997952 0.00390466 -3.5803e-21)
(0.940895 -0.00548124 -6.3682e-21)
(1.03278 0.00916335 -2.90643e-21)
(1.00989 0.0365604 0)
(1.03133 0.0103894 -1.45139e-21)
(1.03133 0.00996936 -6.32225e-22)
(0.997261 0.0667928 0)
(0.562234 0.11263 -4.84907e-20)
(-0.0529587 0.0816682 1.50505e-20)
(1.02352 0.027031 -1.65278e-21)
(0.953052 -0.0997477 5.84889e-20)
(0.945218 0.156522 4.40939e-21)
(-0.057969 0.0889884 3.23894e-21)
(1.10367 -0.00106829 -5.0646e-21)
(1.18245 0.0607533 -2.23667e-20)
(0.980193 0.0367971 -2.24162e-21)
(1.02478 -0.0900677 0)
(0.957457 -0.00393939 1.58435e-20)
(1.00279 0.000695537 -5.09328e-22)
(0.99929 0.00425779 5.13603e-21)
(1.01689 0.00458543 -2.87089e-21)
(0.276949 -0.0547723 0)
(1.06072 0.0438025 7.63776e-22)
(1.01501 -5.45929e-05 -1.19459e-21)
(1.1346 0.0231019 -1.05313e-19)
(1.10913 0.100595 0)
(0.999039 0.0243928 -9.5525e-21)
(1.02908 0.000596023 7.28722e-22)
(-0.0376613 0.0156501 1.06171e-19)
(0.977243 0.0353858 -3.29641e-22)
(1.01651 0.0207524 0)
(0.137332 -0.666396 -9.79262e-20)
(1.00352 0.0147556 -1.0026e-21)
(0.0558526 -0.0824377 2.04033e-19)
(-0.249948 0.0164676 0)
(1.23185 -0.0621908 -2.65424e-20)
(0.913291 0.00111804 -6.5796e-22)
(1.04245 -0.0106817 -5.44428e-21)
(-0.195225 0.00637021 1.22823e-19)
(1.0001 0.000548403 0)
(0.998696 0.0158429 -3.62811e-21)
(0.20119 0.655007 -4.2877e-20)
(1.00002 0.000649575 1.47179e-23)
(1.02053 0.00119076 1.30593e-21)
(-0.258425 0.0187294 0)
(1.01187 0.0112334 2.66025e-22)
(-0.19871 0.0095485 -1.60501e-20)
(1.0985 -0.0505246 0)
(1.09481 -0.0842149 -2.7317e-20)
(-0.233203 0.0201592 0)
(0.963494 0.0242438 -1.18165e-20)
(0.999029 0.0154657 0)
(0.745238 -0.110761 0)
(1.14268 -0.0654966 1.25287e-20)
(-0.0806708 0.125265 -1.77834e-20)
(1.13957 -0.102123 -3.00966e-20)
(0.993883 0.0105974 0)
(1.00512 0.00648835 -1.03957e-21)
(0.973701 0.0284572 -9.29614e-21)
(1.0278 -0.155263 -5.24446e-20)
(0.949052 0.202933 -4.82807e-21)
(1.00485 0.0373369 0)
(1 0.000442686 -1.20503e-21)
(0.997206 0.0449978 -5.0917e-22)
(0.819235 0.173779 -4.78923e-20)
(0.0645156 -0.182371 7.18989e-21)
(0.989114 0.106228 1.5947e-21)
(0.97459 0.0270177 1.29973e-21)
(1.00001 0.000563232 0)
(1.10221 0.000818337 0)
(1.22647 -0.0944818 -5.22602e-20)
(0.157047 -0.0337742 7.54739e-21)
(-0.193768 0.0171584 1.53545e-22)
(0.943546 -0.0646232 -4.83463e-21)
(0.769353 0.135884 0)
(0.841948 0.182192 3.88614e-20)
(-0.0571594 -0.00337234 -3.96374e-20)
(1.03939 0.000422333 0)
(1.00852 0.0089899 0)
(0.989578 -0.000534362 4.08329e-21)
(1.02352 0.0260471 -9.96628e-23)
(0.815176 0.240408 2.95032e-20)
(0.996268 0.00794063 -4.51068e-21)
(1.01496 -7.67152e-05 1.41281e-21)
(-0.204354 0.0207364 0)
(0.808155 0.17195 0)
(1.13912 0.0775979 3.98762e-20)
(0.281614 -0.0527935 0)
(0.757076 0.138761 -3.6824e-20)
(0.142535 -6.12717e-05 4.68298e-20)
(1.01219 0.0267787 -4.27881e-22)
(1.03198 0.00913897 5.05968e-21)
(0.994763 0.0216053 3.12195e-21)
(1.0035 0.00657993 -9.20912e-22)
(1 0.000307293 0)
(1 0.000456822 3.04802e-21)
(0.995903 0.00901665 -2.15927e-21)
(-0.0241248 0.127246 0)
(1.01945 0.0403556 -1.28327e-21)
(1.01803 0.00169027 -8.5631e-22)
(1.33461 0.127671 0)
(1.22021 0.13083 0)
(1.00821 0.00898007 6.18981e-22)
(1.05139 -0.00308136 1.04127e-21)
(0.923591 0.253813 0)
(1.02451 0.836322 -3.48555e-20)
(0.989955 0.0672701 8.34344e-21)
(1.02685 0.0140102 -1.97833e-21)
(1.07396 -0.0975391 -3.0426e-20)
(0.944456 0.0438083 1.34138e-21)
(0.104837 0.0784229 2.34763e-20)
(1.05894 -0.031786 1.70344e-20)
(1.0235 0.0179102 3.31086e-21)
(-0.18035 0.0106566 0)
(1.22271 0.127493 1.10577e-21)
(1.01438 0.00836059 0)
(0.0231229 -0.000320765 -7.97037e-20)
(-0.0119339 0.135878 -1.79301e-20)
(-0.00252478 0.0328385 -1.01993e-19)
(1.02287 0.0181299 1.69739e-21)
(1.02641 0.0135024 -1.73785e-22)
(1.02864 0.0891324 6.34816e-22)
(1.17714 -0.0737488 -3.45878e-22)
(0.963821 0.0166775 1.32851e-20)
(0.122018 0.0590507 2.36505e-20)
(1.07189 -0.158933 1.6315e-20)
(1.00669 -0.0991474 -9.15572e-20)
(1.32938 0.1905 2.23827e-20)
(1.01709 0.00433867 -1.48593e-21)
(1.09615 -0.0511873 0)
(0.195552 -0.0214527 1.03284e-20)
(0.0438173 -0.0167416 0)
(0.46719 -0.0791751 2.52368e-20)
(0.977823 0.0250071 0)
(0.981616 0.101004 -6.77758e-21)
(1.00608 0.103413 5.04492e-21)
(-0.0369395 -0.00826629 0)
(-0.206964 0.0195154 3.82138e-20)
(1.23061 -0.087602 0)
(0.986092 0.036295 -3.0169e-21)
(0.99236 0.0138494 -1.28997e-21)
(0.998127 0.00220999 0)
(0.944493 0.207332 5.93644e-21)
(0.996135 0.00867955 -2.05807e-21)
(0.815714 -0.118563 -3.02695e-20)
(1.00438 0.106114 -7.4492e-22)
(0.317938 -0.0587353 -2.87709e-20)
(0.985541 0.0142355 -4.86219e-21)
(0.997618 0.0436138 -1.67261e-21)
(1.00599 0.000549733 0)
(0.862829 0.0534447 -6.62016e-20)
(1.02726 0.131774 3.41936e-21)
(1.22243 -0.0971228 1.04797e-20)
(1.00244 0.0140494 -3.26215e-21)
(1.17379 -0.0530224 0)
(0.962427 0.843316 -3.11807e-20)
(1.07898 -0.0287119 2.40317e-20)
(1.00003 0.0283215 0)
(0.940463 0.0377676 -2.95276e-21)
(1.07268 -0.0362756 0)
(1.00002 0.000643316 -3.57428e-21)
(1.10618 0.046216 1.27471e-20)
(1.11616 -0.0138785 2.91362e-20)
(1.0789 -0.0269771 -2.41505e-20)
(1.21414 0.169967 9.2576e-20)
(1.0129 0.0545423 -2.57091e-21)
(1.01429 0.00792678 0)
(0.990232 -0.000520915 -7.29851e-21)
(0.999972 5.97006e-05 0)
(1.11799 0.0954609 -4.83393e-22)
(1.06239 -0.00390046 0)
(1.15361 -0.0251261 -2.44861e-20)
(1.0119 0.0259092 -2.29585e-22)
(1.04344 -0.00656199 0)
(0.0499191 0.116588 0)
(1.01775 0.001122 3.11831e-21)
(0.848799 -0.0283001 0)
(0.959505 0.0177599 0)
(1.18706 0.231806 1.98502e-20)
(0.928944 0.016228 0)
(0.259936 -0.0532507 0)
(1.04729 0.0236165 -6.93942e-21)
(-0.125908 0.0115296 9.47586e-20)
(0.927064 0.0581642 4.01805e-21)
(0.935457 0.0280558 -3.11249e-20)
(0.915442 -0.138983 -3.23472e-20)
(0.0225097 0.119081 -4.16819e-22)
(1.00687 0.0909923 0)
(1.07683 -0.0301735 0)
(1.05931 0.0422649 -1.12878e-21)
(1.02302 0.019082 -2.62879e-21)
(0.993523 0.013638 -5.23821e-21)
(1.13304 -0.100822 2.09262e-20)
(1.13723 0.0911122 -2.1955e-20)
(0.970272 0.146146 0)
(1.06732 0.270207 1.37197e-20)
(-0.021044 0.128673 -3.50635e-20)
(1.12914 -0.141168 0)
(1.00497 0.000523725 0)
(0.0243041 0.00636977 -9.3747e-20)
(1.08053 -0.0500442 3.85253e-20)
(1.05146 -0.00516756 1.71135e-20)
(0.993045 0.0138603 1.71806e-20)
(0.846965 -0.02206 7.24345e-20)
(0.200268 -0.0421964 -5.47573e-20)
(1.08945 0.0840215 0)
(1.00007 0.00185992 -6.0362e-21)
(0.700045 0.0320015 3.95768e-20)
(1.20772 0.169988 -8.16282e-20)
(1.13393 0.141397 -1.41619e-20)
(0.872289 0.0483426 4.65201e-20)
(0.620803 0.780896 0)
(1.07508 -0.00020868 0)
(1.18759 -0.0236138 -4.84395e-20)
(0.0254911 0.000702978 -3.21494e-20)
(1.23419 -0.109388 0)
(1.33663 0.126296 1.29613e-20)
(0.829127 0.211283 -4.44014e-20)
(1.13958 0.311498 0)
(1.08585 0.0101099 -6.12909e-21)
(1.00169 0.000367498 2.99031e-22)
(1.05219 -0.00582739 -1.70646e-20)
(0.994196 0.0232453 -9.63351e-21)
(0.406989 0.0125697 -1.33284e-19)
(0.473285 -0.254598 -1.61181e-20)
(0.162374 -0.00950817 0)
(0.582386 0.110148 -4.20643e-20)
(-0.178862 0.00467807 2.6062e-20)
(-0.0175362 0.0372638 -2.24697e-20)
(0.71275 0.0237217 1.26374e-19)
(0.986191 0.0735169 -7.38881e-21)
(0.103659 -0.00485763 4.6052e-20)
(0.678055 0.0659289 0)
(1.02224 0.000621857 -5.45817e-21)
(0.546128 0.0775681 0)
(0.0207949 0.133338 -9.35725e-21)
(1.07648 0.000875784 -2.31645e-20)
(0.993049 0.108184 -4.94786e-21)
(1.01615 0.00335477 -1.34009e-21)
(1.07399 0.00083803 4.20082e-21)
(1.07255 -0.00960792 0)
(1.07089 -0.0365584 0)
(1.18917 0.0156848 -3.98546e-20)
(1.00063 0.0216986 7.74037e-21)
(-0.0995344 0.0106767 0)
(0.994956 0.0678729 3.88766e-22)
(0.968766 0.0791296 1.73786e-20)
(-0.023899 -0.010389 0)
(1.00993 0.0245469 -1.21152e-21)
(1.025 0.13689 2.77466e-21)
(0.520076 -0.0892454 0)
(0.998796 0.0147355 -8.67686e-21)
(1.04367 0.0426416 3.33455e-21)
(-0.0213875 -0.00842337 2.30519e-21)
(1.00985 0.00292126 2.84708e-22)
(1.17219 -0.0551168 2.61662e-20)
(1.01805 0.0010717 -3.49288e-21)
(-0.0217789 0.081341 -8.97721e-21)
(1.07702 -0.031721 0)
(1.10548 -0.0382413 1.2139e-20)
(0.964661 0.148474 -1.35526e-20)
(1.05473 0.069222 -3.47775e-21)
(1.17664 -0.07077 0)
(0.920102 -0.00137807 3.72982e-20)
(0.212766 0.0314416 1.84425e-21)
(1.12167 -0.0814589 2.01539e-20)
(1.03648 -0.00315247 0)
(-0.188427 0.0052056 -5.27489e-20)
(1.10565 -0.0404367 -2.4447e-20)
(0.551281 0.790253 -5.94294e-21)
(-0.27538 0.0149705 1.11874e-20)
(1.31312 0.128448 -2.1767e-20)
(1.22172 -0.09028 -9.73808e-21)
(0.997747 0.0220162 7.17353e-21)
(1.01778 0.00522968 1.57869e-21)
(-0.0127861 0.1353 -5.80427e-21)
(0.938258 0.0394963 3.48401e-21)
(1.10888 0.0452554 0)
(1.00004 0.00139916 1.17968e-21)
(1.08744 0.00914087 6.44563e-21)
(0.984017 -0.0617286 0)
(0.517175 -0.0634159 2.17132e-20)
(1.11705 0.0992056 0)
(-0.157315 0.00715291 -9.03722e-20)
(0.815767 0.227262 -3.00137e-20)
(1.01507 0.0693163 0)
(1.0164 0.00358153 2.83076e-21)
(1.00008 0.00169636 5.9901e-21)
(1.13795 0.0234065 9.09837e-20)
(1.08516 0.256427 0)
(1.02727 0.0068559 1.35389e-22)
(1.1326 0.112873 6.07208e-20)
(0.996489 0.119924 1.10215e-21)
(1.10234 0.143006 -1.61813e-20)
(1.01389 5.24058e-05 2.01087e-21)
(-0.0109647 -0.000213639 1.08172e-19)
(-0.06967 0.014414 -2.89257e-20)
(0.992713 0.023826 0)
(1.02204 0.00106504 1.31412e-21)
(1.13932 -0.070169 0)
(1.00004 0.00126172 0)
(1.01484 0.00856859 0)
(-0.0233985 0.0363452 6.4869e-22)
(0.547025 0.0941575 -5.33104e-20)
(0.967946 0.0260012 0)
(0.993971 0.0142877 -1.32384e-20)
(1.12247 -0.125279 -3.46403e-21)
(1.13394 0.083705 1.11162e-20)
(1.06485 -0.030728 -4.63147e-21)
(0.710137 -0.0663064 0)
(1.01042 0.0356299 1.63062e-21)
(0.211808 -0.0268332 0)
(1.13559 -0.0246693 -4.29766e-20)
(0.983256 0.0331782 3.09553e-21)
(0.432091 0.154985 3.21041e-20)
(-0.000673336 -0.0126793 -3.88598e-20)
(1.0038 0.00805979 1.20664e-21)
(0.581493 -0.0676658 4.3381e-20)
(1.01527 0.00472263 -2.24547e-21)
(0.999065 0.0144744 6.82387e-21)
(0.96385 0.0150606 0)
(0.826338 -0.00148227 6.24781e-20)
(-0.0536042 0.0182007 0)
(1.11546 0.0287869 -1.40023e-20)
(0.0395995 -0.00230972 2.8301e-22)
(1.01516 0.140949 1.30711e-22)
(0.390755 -0.0446261 1.59135e-20)
(1.35954 0.194335 9.05492e-20)
(1.08665 0.0128936 0)
(-0.193513 0.00500841 0)
(0.985353 0.0229431 -3.27815e-21)
(0.516869 0.0419615 -7.06534e-20)
(1.05216 -0.00383603 -4.74609e-21)
(0.235533 0.0075242 -8.17039e-21)
(0.108304 -0.0119626 5.78092e-20)
(0.997031 0.0405552 0)
(0.127943 0.563226 -6.1828e-21)
(1.02806 0.0835973 -5.17116e-22)
(0.92351 0.0597113 3.21254e-21)
(0.878999 0.0798171 1.54137e-19)
(0.655379 0.0896142 7.28096e-20)
(-0.172547 0.00576648 -1.07325e-19)
(1.00994 0.00974979 1.38604e-23)
(0.270601 -0.0547118 -1.75348e-20)
(0.988656 0.0127377 7.56026e-21)
(0.260258 0.0205868 -9.13471e-21)
(1.04175 0.00141887 6.63334e-21)
(1.00018 0.107226 -6.26179e-22)
(1.07321 -0.0339341 2.3307e-20)
(1.01192 0.0135675 1.53483e-22)
(1.01389 0.000562752 0)
(1.12407 -0.0446212 -5.28603e-20)
(1.08315 -0.103351 3.15949e-20)
(1.13901 0.00114138 0)
(1.0049 0.00612563 6.37206e-22)
(0.142416 0.155323 0)
(1.08502 0.0139944 2.81992e-21)
(1.0114 0.0134447 0)
(0.997965 0.00238168 -4.12125e-21)
(0.941556 0.0986991 0)
(1.19059 -0.0584381 -2.90708e-20)
(0.751611 0.0647196 -1.29525e-19)
(1.11191 0.0286959 0)
(1.00923 0.000467949 -1.25328e-21)
(1.03571 0.0966498 -8.01511e-21)
(0.249305 -0.0459744 -3.54332e-20)
(0.997279 0.105494 -3.79661e-22)
(0.999536 0.0211415 0)
(1.0122 0.013914 0)
(1.03784 0.0990481 9.18141e-21)
(1.09987 0.0216324 -1.7171e-20)
(-0.116161 0.00691678 -5.33799e-20)
(1.0097 0.0236707 1.79031e-21)
(1.15775 0.456579 5.07004e-20)
(0.897077 0.216294 0)
(1.14942 -0.0473714 1.23172e-20)
(-0.0103573 0.0323698 0)
(0.0265833 0.10588 4.541e-20)
(1.01598 0.00247072 -2.53416e-21)
(1.09454 -0.0784805 -1.34712e-20)
(1.00434 0.0233131 0)
(1.02094 0.0444613 0)
(1.08664 -0.00237059 0)
(0.0247599 0.129334 -8.44633e-21)
(1.00791 0.0055005 4.4552e-23)
(1.02243 0.0192955 0)
(1.01253 0.000431574 -1.99989e-21)
(0.628967 0.0475658 1.29902e-19)
(0.959503 0.0492396 6.29698e-22)
(1.03702 -0.00354667 0)
(1.04752 0.128598 2.40163e-21)
(1.08565 0.0836931 0)
(0.242653 -0.0435014 0)
(-0.271444 0.00891394 6.77043e-20)
(1.00385 0.011098 -1.83255e-21)
(0.987795 0.00621821 -8.42092e-21)
(0.201884 -0.0387222 0)
(0.984667 0.0338496 -6.42866e-21)
(-0.0270802 -0.00121036 0)
(0.124938 -0.0184187 0)
(-0.057177 0.0111351 0)
(0.661731 0.349373 -3.35222e-20)
(0.819877 0.443431 0)
(1.0455 -0.148657 -6.55528e-20)
(1.07542 -0.0337698 -2.46813e-20)
(0.999203 0.00269916 -1.00686e-20)
(1.01228 0.0116516 0)
(1.00147 0.0346952 4.89362e-21)
(0.970405 0.0241741 -2.69597e-20)
(0.999652 0.00532369 2.61914e-21)
(0.968817 0.0239891 1.60405e-20)
(0.8765 0.0250547 0)
(-0.00697796 0.120614 -4.66468e-20)
(1.03805 0.0293013 -9.83218e-21)
(0.663472 0.181177 1.06923e-19)
(1.0096 0.00361018 -2.42456e-22)
(1.01698 0.0687049 0)
(1.1062 0.105161 0)
(1.0003 0.00603574 0)
(0.967184 0.0813419 -1.9841e-20)
(1.04463 0.0437193 -4.13801e-21)
(0.353973 0.0181346 -2.24428e-19)
(0.0954181 -0.115939 7.03064e-20)
(1.16509 0.0949009 0)
(-0.14509 0.00456691 0)
(0.834688 0.189999 -2.1721e-20)
(0.0420024 0.0919352 5.00899e-20)
(1.08861 0.268149 2.00337e-20)
(0.521733 -0.0570251 3.12053e-20)
(0.005492 -0.00637917 -7.13855e-20)
(1.13779 -0.0225336 2.29609e-20)
(0.912409 0.776549 0)
(1.13134 -0.143105 0)
(-0.275486 0.013888 -1.53045e-19)
(1.03425 0.00204063 3.28326e-21)
(0.993536 0.0109571 -9.51972e-21)
(1.00349 0.00610384 0)
(1.07392 -0.00855669 0)
(0.69695 -0.0962815 2.71955e-20)
(1.01313 0.0104276 -9.94591e-22)
(0.999955 0.000270008 -7.63707e-21)
(1.1871 0.0253 -1.22968e-20)
(1.00736 0.00306612 1.94815e-22)
(1.01096 0.200127 -1.43872e-22)
(1.00924 0.187828 2.38935e-21)
(1.00022 0.000688798 1.74361e-21)
(1.071 -0.151907 0)
(1.03636 -0.00189 4.11235e-21)
(0.98722 0.00589525 0)
(1.12487 -0.127144 0)
(1.01606 0.00716501 3.59947e-21)
(1.24146 0.0871891 -2.81277e-20)
(0.443675 -0.258299 -7.44295e-20)
(1.00027 0.03854 0)
(1.04714 -0.008786 -7.95063e-21)
(1.01109 0.0130456 0)
(0.934216 0.271818 0)
(1.00824 0.00604311 -6.6357e-23)
(1.04855 0.0513127 2.51391e-20)
(1.32211 0.206837 -1.09807e-19)
(0.988397 0.000529781 1.95529e-23)
(0.0389941 -0.0167832 0)
(1.03798 0.0249144 -1.1452e-20)
(0.0679607 -0.0172213 -3.17455e-20)
(1.05961 -0.0146982 1.24489e-20)
(1.11724 -0.111523 2.60744e-20)
(0.999062 0.0128055 0)
(1.09995 -0.0928999 0)
(1.10174 0.104416 0)
(0.999281 0.00247815 6.09431e-21)
(1.00109 0.0394598 0)
(0.0643699 -0.0163251 6.42433e-20)
(0.992867 0.0149723 -4.72172e-21)
(-0.287727 0.0141684 0)
(-0.282731 0.0149278 4.14776e-20)
(0.981293 0.0518272 4.37014e-21)
(1.00121 0.000312128 -1.57784e-21)
(1.00048 0.00622008 -4.79329e-21)
(1.01905 0.00289412 -1.10077e-21)
(-0.0250836 0.0392958 0)
(0.994582 0.0140745 4.64451e-21)
(0.105183 -0.0203258 5.98224e-20)
(-0.00804941 0.132954 -2.13219e-20)
(1.1067 0.134984 -1.07322e-20)
(-0.00661402 0.0450464 6.45035e-20)
(1.00963 0.000612544 0)
(1.00331 0.0204629 -1.48825e-21)
(-0.0188514 0.00620702 4.92018e-20)
(-0.0285692 -0.00301613 0)
(0.922167 -0.00364199 -2.29888e-20)
(1.00034 0.00964563 0)
(0.995458 0.0220107 6.36261e-21)
(1.01275 0.0111065 0)
(1.04813 -0.0122677 -4.34451e-21)
(0.861266 0.176362 3.51286e-21)
(0.349965 0.382877 2.25146e-20)
(1.04991 0.0698438 -5.10134e-21)
(0.0988015 0.0761267 -5.30999e-20)
(0.116839 0.162094 8.50518e-20)
(1.10237 -0.166046 0)
(0.855469 0.0668225 0)
(1.03428 0.0150357 0)
(-0.226782 0.00616581 -2.02235e-21)
(-0.0757729 0.125788 0)
(1.05028 0.126834 -8.9265e-21)
(0.999287 0.0125332 -1.63466e-21)
(0.977367 0.0225278 0)
(0.0572845 -0.0100641 -6.69067e-20)
(0.996024 0.00825349 4.72564e-21)
(-0.0238404 0.0749968 -9.38036e-21)
(0.829019 0.243535 -1.68618e-21)
(1.00006 0.000678012 1.72844e-23)
(0.945521 0.100293 -1.87956e-20)
(1.01495 3.07374e-05 0)
(1.11018 0.0273312 -1.18183e-20)
(1.06921 0.0678934 -5.28151e-21)
(1.00715 0.00290097 -1.03453e-22)
(1.01722 0.0012534 1.51056e-21)
(1.04691 -0.0117888 -3.83774e-21)
(-0.116934 0.00160333 4.07098e-20)
(1.00019 0.0010901 0)
(1.08528 -0.0838988 -1.24638e-20)
(-0.0227569 -0.00561345 4.53495e-20)
(0.978037 0.0209816 0)
(1.00307 0.0154034 4.83032e-21)
(0.825135 0.153677 3.76939e-20)
(0.0650145 0.104715 -1.37523e-20)
(1.10185 0.00530478 -4.70979e-21)
(-0.0510131 -0.00660524 3.78365e-20)
(0.958147 -0.00205717 -2.91901e-20)
(1.01903 0.00268071 0)
(0.93865 0.00197427 2.53942e-20)
(0.0826457 0.000764137 -6.61466e-20)
(0.409113 0.169582 -4.1395e-20)
(0.179098 0.104898 -3.47826e-20)
(1.00901 0.000437621 0)
(0.866298 0.0466069 -2.34164e-20)
(1.00291 0.033244 0)
(-0.0777416 -0.00523 4.69341e-20)
(1.02354 0.00693525 0)
(1.08235 -0.152388 0)
(0.853724 0.185504 3.17198e-20)
(-0.0313271 0.0522729 -1.89057e-20)
(1.00037 0.001481 0)
(1.00475 0.00197921 3.44425e-22)
(0.79628 0.449371 -1.77937e-20)
(0.99744 0.0206931 5.44717e-21)
(-0.136585 0.00355253 0)
(1.03883 0.00110675 0)
(0.183155 0.516612 6.11719e-20)
(1.00004 0.000579289 -2.28052e-21)
(1.01227 0.0102325 1.08859e-21)
(0.932237 0.0251068 -1.06839e-20)
(1.13678 0.448576 0)
(-0.191878 0.022818 1.28906e-19)
(1.02949 0.0948342 -7.63999e-21)
(1.04846 0.0174167 -2.146e-20)
(0.962319 0.0230098 -1.27609e-20)
(1.03688 -0.00235748 0)
(1.0274 0.00638611 -4.78067e-21)
(0.999979 0.000208624 0)
(1.2077 0.0146504 0)
(1.00459 0.0479711 0)
(0.427611 -0.0588685 0)
(1.01071 0.0737116 -1.42283e-21)
(-0.0613228 0.000653488 -1.22546e-19)
(1.03578 0.00179832 -1.85355e-21)
(1.01898 0.00357816 0)
(1.30629 0.175598 -4.63528e-20)
(-0.0269858 -0.0046631 1.97294e-22)
(0.654196 -0.0705241 -2.23577e-20)
(1.01643 0.0506831 1.66823e-22)
(0.287026 -0.00206226 1.17291e-20)
(1.03637 0.00125786 1.96145e-21)
(0.0040663 0.136158 7.59546e-22)
(0.962629 0.026554 1.41222e-20)
(1.24224 0.0366644 -2.44707e-20)
(1.01637 0.0188483 0)
(0.0345081 0.0352951 0)
(1.00499 0.0198828 0)
(1.06691 0.0687835 5.61801e-21)
(0.995383 0.00283398 0)
(1.00288 0.0234766 1.6175e-21)
(1.00002 0.000879239 3.84076e-21)