/*--------------------------------*- C++ -*----------------------------------*\
| =========                 |                                                 |
| \\      /  F ield         | OpenFOAM: The Open Source CFD Toolbox           |
|  \\    /   O peration     | Version:  v2012                                 |
|   \\  /    A nd           | Website:  www.openfoam.com                      |
|    \\/     M anipulation  |                                                 |
\*---------------------------------------------------------------------------*/
FoamFile
{
    version     2.0;
    format      ascii;
    class       surfaceVectorField;
    location    "700";
    object      ddtCorrDdt0(Uf);
}
// * * * * * * * * * * * * * * * * * * * * * * * * * * * * * * * * * * * * * //

dimensions      [0 1 -2 0 0 0 0];


internalField   nonuniform List<vector> 
27284
(
(0.07702 0.0545072 -9.08383e-19)
(0.0726189 0.0543149 -4.06487e-19)
(0.0744005 0.0580282 5.43416e-19)
(6.30837e-05 -3.64241e-05 -2.21035e-20)
(5.90263e-05 -3.99217e-05 -1.18571e-19)
(6.26983e-05 -3.06625e-05 -1.78906e-19)
(0.0255628 -0.107507 -2.52013e-18)
(0.0327409 -0.105376 3.77461e-18)
(0.0278139 -0.0990693 3.22062e-18)
(0.000235407 -1.5376e-05 1.00721e-19)
(0.000235895 -1.85031e-05 -2.7666e-19)
(0.000232818 -1.8422e-05 -5.39565e-20)
(0.00100946 0.0182015 1.04056e-19)
(-0.00165135 0.0199571 -2.49499e-19)
(-0.00115753 0.0163568 -1.32855e-19)
(-0.0680127 -0.00222602 -2.28335e-20)
(-0.0624484 0.00737354 1.66389e-19)
(-0.0712687 0.00461103 -1.86936e-18)
(-0.000336379 -0.00109373 3.88298e-19)
(-0.000179069 -0.000915644 5.95437e-19)
(-9.73597e-05 -0.00112922 2.86582e-19)
(0.00380423 0.0198549 -1.07372e-20)
(0.003059 0.0162351 5.79442e-19)
(0.000123111 8.31253e-06 3.52649e-19)
(0.000121651 1.20231e-05 -6.2431e-19)
(0.000126187 8.59123e-06 -5.19717e-19)
(0.0426703 -0.0437531 1.67024e-19)
(0.0379679 -0.0372116 -8.37817e-20)
(0.0467851 -0.0304344 -4.44168e-19)
(-0.00650285 -0.00196693 -7.20089e-19)
(-0.00602454 -0.0012855 1.09461e-18)
(-0.00560143 -0.00209376 6.23696e-20)
(-0.0313384 -0.0309565 -2.09334e-18)
(-0.0301014 -0.0292673 -2.39181e-18)
(-0.0289954 -0.0313276 -8.36938e-19)
(-0.0325956 -0.0332248 -1.8115e-18)
(-0.0338438 -0.0307331 -1.53447e-18)
(0.0812067 0.0774396 1.75434e-19)
(0.0856347 0.0629291 5.24937e-20)
(0.0739963 0.0657152 -5.42944e-19)
(0.000139215 1.20279e-05 4.09399e-19)
(0.000141951 1.51056e-05 -4.11403e-19)
(0.000137083 1.63082e-05 -5.9468e-20)
(1.79779e-06 -7.29878e-05 1.74872e-19)
(4.28626e-06 -7.37525e-05 3.64085e-19)
(2.10993e-06 -7.61223e-05 3.3127e-19)
(0.000235771 -1.22807e-05 4.09239e-20)
(0.000237701 -1.24396e-05 -2.24683e-19)
(-0.000540758 -0.0043288 7.74085e-19)
(-0.000172194 -0.0047963 4.40608e-19)
(6.59395e-05 -0.00422068 -5.61599e-19)
(0.0738089 -0.0380296 -5.98819e-19)
(0.0757301 -0.0329839 -1.81289e-18)
(0.0708141 -0.0335632 -1.52005e-18)
(0.0015505 0.00266186 -1.54023e-19)
(0.00190164 0.00240924 3.55061e-19)
(0.00153271 0.00214778 3.21979e-19)
(0.0533374 0.116027 2.62847e-18)
(0.0469398 0.104345 3.39951e-18)
(0.0633589 0.10757 1.27486e-18)
(0.000663354 0.000269718 -2.96332e-20)
(0.000605168 0.000274054 -1.55462e-20)
(0.000617553 0.000354135 2.38568e-20)
(5.39424e-05 -8.95894e-06 -6.62221e-19)
(5.47047e-05 -1.48579e-05 -1.34667e-18)
(5.56624e-05 -1.73036e-05 3.40823e-19)
(-0.0728966 -0.0166265 -4.14004e-19)
(-0.0692115 -0.0101115 6.65907e-19)
(5.29949e-05 -3.04495e-07 1.64544e-19)
(5.36988e-05 -4.18105e-06 1.48082e-19)
(-0.00143116 -0.000713988 -7.42515e-19)
(-0.00116366 -0.000598558 1.82541e-19)
(-0.0012098 -0.000887825 1.65654e-21)
(-0.000589299 -0.00101891 -1.26573e-19)
(-0.000854895 -0.000946534 1.2428e-19)
(-0.000663282 -0.000763948 2.45457e-19)
(0.000240985 -3.50034e-05 2.40295e-19)
(0.000240241 -3.91575e-05 -3.54305e-19)
(0.000241766 -3.57108e-05 -2.61802e-19)
(0.000125246 5.38992e-06 7.52798e-19)
(0.000120158 8.1561e-06 3.34678e-19)
(-0.00704423 -0.00355091 6.64344e-20)
(-0.00680532 -0.00278286 -7.02227e-19)
(-0.00611488 -0.00353803 6.82747e-19)
(-0.0606628 -0.0754814 -1.84568e-18)
(-0.0643173 -0.0230603 7.90046e-18)
(-0.0736512 -0.0447436 5.81671e-18)
(-0.0204606 0.0231961 -4.28825e-19)
(-0.0178213 0.0223398 -3.5981e-19)
(-0.0182026 0.025277 4.86375e-19)
(-9.20379e-05 -1.77856e-05 2.7094e-20)
(-8.10965e-05 2.1617e-06 -3.48029e-19)
(-0.00011365 4.8536e-06 -6.8776e-19)
(3.07814e-05 4.91197e-05 3.13715e-20)
(2.99974e-05 5.88325e-05 -5.29314e-19)
(3.17772e-05 4.85195e-05 -5.00476e-19)
(6.31942e-05 -2.4599e-06 3.91605e-21)
(6.23423e-05 -3.13605e-06 2.39852e-20)
(6.71281e-05 -1.72691e-06 -6.88155e-21)
(-0.000546775 0.00179584 -8.39252e-20)
(-0.000394381 0.00161953 -1.9216e-19)
(-0.000355786 0.00182389 1.53296e-20)
(0.00573449 -0.00326989 6.72912e-19)
(0.00553079 -0.00354749 -2.0579e-18)
(0.00540342 -0.00318076 -5.96216e-19)
(-0.000753794 0.00178404 4.19437e-19)
(-0.000699521 0.0020443 -3.21126e-19)
(-0.00726853 -0.004478 1.34799e-18)
(-0.00799629 -0.00352597 6.83748e-19)
(-5.82079e-05 -0.000190209 5.0389e-20)
(-0.000134863 -0.000238515 -5.99198e-19)
(-3.8576e-05 -0.000265133 3.0279e-19)
(0.000164136 -1.8599e-05 4.85138e-20)
(0.000172418 -1.9213e-05 -7.30808e-20)
(0.000181623 -1.08864e-05 8.65206e-20)
(-0.00738197 -0.00185177 -8.34735e-19)
(3.18608e-05 3.69512e-05 -9.64056e-20)
(3.09251e-05 2.33697e-05 -2.11781e-19)
(3.24776e-05 2.58006e-05 -2.3922e-19)
(6.32831e-05 -3.59213e-05 1.41473e-19)
(6.68818e-05 -3.11816e-05 4.08616e-19)
(6.72878e-05 -2.54934e-05 2.08975e-19)
(6.42231e-05 -4.55016e-05 -1.81112e-19)
(-0.0735244 -0.0280213 -1.75918e-18)
(-0.0698011 -0.0280935 3.19309e-18)
(-0.0721303 -0.0243307 -3.43321e-18)
(0.000232578 9.09377e-05 -3.81499e-19)
(0.000236414 7.77481e-05 2.12341e-19)
(0.000231801 9.4069e-05 7.29978e-19)
(0.000228628 0.00010327 -3.04337e-19)
(0.000232694 8.78311e-05 -2.96929e-19)
(-0.0559629 -0.141536 -6.55962e-18)
(-1.91868e-05 0.000593581 4.677e-19)
(-0.000118215 0.000540834 1.42483e-18)
(6.78357e-06 0.000495474 -5.16886e-19)
(1.22511e-05 1.27215e-05 -8.92361e-19)
(1.67227e-05 9.61627e-06 -3.18664e-19)
(1.22291e-05 9.38483e-06 -1.98902e-20)
(0.0649965 0.303721 1.50368e-18)
(0.101126 0.233774 1.72398e-18)
(0.107617 0.232226 9.00763e-19)
(-6.53615e-05 0.000721339 -1.55595e-19)
(9.93586e-05 0.000633696 -8.34609e-19)
(0.0635237 0.0117109 -5.30838e-19)
(0.065924 0.0107204 -7.29021e-19)
(0.0628445 0.00827397 -2.90829e-19)
(0.000311734 -6.39619e-05 -2.65783e-20)
(0.000306524 -7.77984e-05 7.05218e-20)
(0.000306731 -5.58283e-05 1.15442e-20)
(0.00111639 0.0029051 -3.54799e-20)
(0.00154004 0.00325023 -8.63008e-19)
(2.61616e-05 2.41126e-06 -4.14707e-20)
(3.21526e-05 1.14437e-06 -4.62543e-20)
(3.0648e-05 1.4283e-06 -2.06497e-19)
(0.00475084 0.0321205 5.5651e-18)
(-0.00170201 -0.000782636 9.92864e-19)
(-0.00159499 -0.000493536 4.67787e-20)
(-0.0734328 -0.00351238 2.30469e-18)
(-0.0794037 -0.000129955 1.10638e-18)
(-0.0696424 0.00626297 1.67559e-19)
(3.07608e-05 4.86024e-05 3.90866e-19)
(-0.0066951 -0.0350387 -8.53515e-19)
(-0.00833779 -0.0341118 6.31786e-18)
(-0.00658175 -0.0327236 3.60185e-18)
(0.0601102 0.0132317 7.91192e-20)
(0.0632569 0.0158294 1.69854e-19)
(0.00206186 -0.000342851 7.79387e-19)
(0.00175443 -0.000435878 3.14897e-19)
(0.0017343 -0.000157559 1.11364e-19)
(-0.0112623 0.0378106 2.65119e-18)
(-0.00857739 0.0403785 -9.74602e-19)
(-0.00869992 0.0358456 7.78021e-19)
(-1.41034e-06 6.94429e-06 -1.81376e-19)
(-3.42844e-06 9.34655e-06 -2.11544e-19)
(-4.84767e-06 6.04882e-06 -3.47321e-19)
(0.00194859 0.00224613 -5.29999e-20)
(0.00206251 0.00202934 -1.81142e-19)
(0.00220457 0.00232466 1.35817e-20)
(0.00590994 -0.00305761 8.96281e-19)
(0.0060523 -0.00343492 3.37056e-18)
(1.66233e-05 9.38543e-05 8.83828e-20)
(1.40644e-05 8.9284e-05 -1.89434e-19)
(1.57036e-05 9.05415e-05 1.09757e-19)
(0.0720074 -0.0376489 -2.07936e-18)
(0.0652812 -0.0611008 -3.99521e-18)
(0.0803346 -0.0295994 -4.10412e-18)
(-0.000108931 0.000138278 -8.53657e-20)
(-0.000154926 0.000147659 -5.76903e-19)
(-0.00011307 0.000151758 -2.39855e-19)
(0.000314457 -5.49592e-05 1.05553e-19)
(0.000314228 -7.3911e-05 -1.4206e-19)
(-0.0135018 0.0168779 2.27546e-20)
(-0.015809 0.0171901 -3.32181e-19)
(-0.0145693 0.0150012 -1.30287e-18)
(0.00195726 -0.00653425 1.44989e-18)
(0.00124263 -0.00608866 8.56658e-19)
(0.00196424 -0.00571644 1.08782e-18)
(-0.0336714 0.018205 -3.69842e-19)
(-0.0343924 0.0240188 -4.84891e-18)
(-0.0296517 0.0218251 -2.53964e-19)
(2.37465e-05 9.34361e-05 -1.40423e-20)
(2.02484e-05 9.4815e-05 3.5918e-19)
(2.21244e-05 9.02622e-05 -2.44178e-19)
(-0.0161708 0.0168099 3.91098e-18)
(0.00106453 0.0547081 3.70545e-19)
(2.61858e-05 8.957e-05 8.73952e-20)
(2.52048e-05 9.56549e-05 -1.60095e-19)
(-7.3666e-05 0.000135089 8.61888e-20)
(-0.000100271 0.0001265 -4.89311e-19)
(-0.0379941 0.0146009 4.1356e-19)
(-0.0327277 0.0120686 1.0825e-18)
(0.00185099 0.00252417 6.1292e-22)
(0.00170913 0.00223418 -5.02883e-20)
(-0.041009 -0.00773124 -2.23407e-19)
(-0.0461795 -0.00473213 -5.16706e-20)
(-0.0395643 -0.00118919 6.50848e-19)
(1.90474e-05 9.72639e-05 -3.11274e-20)
(0.00139281 0.00385602 -2.03361e-20)
(0.00174547 0.00389202 4.22417e-20)
(0.00152059 0.00420919 3.40471e-20)
(0.0177605 0.0185919 2.86775e-19)
(0.0194685 0.0184095 -9.57373e-20)
(0.0182188 0.0200011 6.16946e-20)
(3.77762e-05 5.68515e-06 -1.14537e-19)
(4.17745e-05 5.94084e-06 3.1478e-19)
(4.557e-05 2.5007e-06 -5.04563e-19)
(0.00019948 1.493e-05 -5.20899e-19)
(0.000208994 9.31829e-06 6.97182e-20)
(0.000201753 9.11963e-06 -9.58131e-19)
(0.0161635 0.00877046 2.78842e-20)
(0.0156327 0.00766546 7.07788e-20)
(0.0168474 0.00777245 -2.4797e-20)
(0.000150687 8.68183e-05 8.98467e-20)
(0.000152682 7.12317e-05 -7.6876e-19)
(0.000146158 8.92999e-05 -8.40427e-19)
(0.0152502 0.00969358 -1.71469e-20)
(0.0165642 0.00990956 -2.01622e-19)
(0.0444796 0.356887 2.70673e-18)
(0.0645876 0.290437 1.08255e-18)
(0.00746204 0.0998326 8.61866e-19)
(-0.0143669 0.0995622 2.485e-18)
(-0.0115651 0.104741 4.42468e-19)
(-0.0413579 -0.0162874 -6.57392e-19)
(-0.0370478 -0.0109204 -1.23405e-19)
(-0.000188488 0.000493264 1.74157e-19)
(-0.000266174 0.000586735 1.65531e-19)
(0.0886615 0.0499061 -7.58911e-19)
(0.0910434 0.0430709 3.9523e-19)
(0.0821553 0.0441571 -2.22781e-19)
(0.00165742 0.00135065 -3.85366e-19)
(0.00170322 0.00172293 2.81671e-21)
(0.00207996 0.00149486 -9.68021e-19)
(0.000153704 0.000131534 5.24429e-20)
(0.000157398 0.000135311 2.78724e-19)
(0.000152238 0.0001226 1.89381e-19)
(0.00159082 0.00104931 6.39838e-19)
(0.00128602 0.00122263 9.2528e-20)
(0.034409 -0.0200114 3.5905e-18)
(0.0370723 -0.0199167 -1.61981e-18)
(0.0349977 -0.0175035 1.41686e-18)
(0.000405509 0.00030556 -4.20856e-20)
(0.000449985 0.000304544 4.08689e-20)
(0.000403209 0.000358896 -1.80731e-20)
(0.0160564 0.018307 3.5315e-19)
(0.0174123 0.0168295 -3.05101e-19)
(-3.93939e-05 0.000130845 -3.20137e-21)
(-4.46038e-05 0.000134192 6.57697e-20)
(-0.000244233 0.000432388 7.7728e-20)
(-0.000130577 0.000425044 -8.01398e-19)
(6.94581e-05 3.95633e-08 -6.08073e-21)
(6.93356e-05 -1.24469e-06 -6.80116e-20)
(6.9565e-05 -7.37137e-06 -4.1845e-21)
(0.00175438 0.00273832 4.35322e-20)
(0.00161095 0.0029886 -1.5133e-20)
(0.00149102 0.0027118 -2.01711e-21)
(-1.83633e-06 -7.07718e-05 3.20571e-19)
(8.37744e-07 -6.51688e-05 4.63881e-19)
(-0.0144577 0.0401674 -5.31906e-19)
(-0.0139882 0.0354862 2.65328e-19)
(0.0882869 0.0474018 -2.42149e-19)
(0.0912342 0.0535227 2.87753e-18)
(0.0114052 0.001004 3.6582e-19)
(0.0119936 0.00138831 -9.04775e-20)
(0.0119809 0.000532691 7.44843e-19)
(1.22319e-05 -6.31468e-05 6.23105e-19)
(1.11847e-05 -5.81162e-05 6.5946e-20)
(1.66988e-05 -5.46851e-05 1.08922e-19)
(2.32908e-05 4.43665e-06 1.78265e-19)
(2.10227e-05 3.06819e-06 -9.34827e-20)
(7.58642e-06 -2.105e-07 1.41249e-19)
(1.67897e-05 6.44206e-08 5.97233e-20)
(7.73508e-06 7.86093e-07 -8.17045e-20)
(-0.0138193 0.00443412 -1.82299e-18)
(-0.0143598 0.00588463 1.22783e-18)
(-0.0126437 0.00525531 -3.44173e-19)
(0.00105615 0.00378394 -1.15311e-19)
(0.00126534 0.00351267 -1.62593e-19)
(-0.0991135 -0.0784917 1.47855e-18)
(-0.0847565 -0.07757 2.60072e-18)
(-0.0946151 -0.0711649 9.64708e-18)
(-0.0053377 0.00670937 -1.79907e-18)
(-0.0045681 0.00657067 5.22076e-19)
(-0.00503319 0.00600028 -4.24137e-19)
(-1.40765e-05 0.000130571 -3.97328e-20)
(-3.32583e-05 0.000128188 8.72195e-20)
(-0.0431261 0.0108065 7.2019e-19)
(-0.0451085 0.0169674 3.28991e-18)
(0.000517687 0.00173146 -3.72279e-20)
(0.000374866 0.0018682 9.15152e-20)
(0.000345258 0.0016678 -6.73409e-20)
(0.00206339 0.0018242 -3.95975e-20)
(0.0023036 0.00187272 2.47591e-19)
(0.0693464 -0.022922 -1.04465e-18)
(0.0632011 -0.0396057 1.25349e-18)
(0.0184876 -0.107159 -1.0407e-17)
(0.0256452 -0.114087 -5.04057e-18)
(0.0336696 0.387649 -3.19793e-18)
(0.0196012 0.0101809 -2.62314e-20)
(0.0203741 0.0113899 -6.14807e-20)
(0.021305 0.0098635 -5.55371e-20)
(-0.0479397 0.00596773 3.03787e-18)
(-0.0405512 0.00497617 -4.41769e-18)
(-0.0761261 -0.0360626 1.2255e-18)
(-0.0785247 -0.034505 -1.18823e-17)
(-0.0780706 -0.0392814 -5.8358e-18)
(-0.000486849 -0.0013293 -4.21395e-19)
(0.00023651 -1.00872e-05 7.40756e-20)
(0.000234541 -1.13867e-05 2.47622e-19)
(0.0809749 0.0548176 -1.01169e-18)
(0.0795189 0.0511108 -6.46665e-19)
(0.000505237 1.58678e-05 -2.46821e-20)
(0.000516121 4.04816e-05 -5.41655e-20)
(0.000482339 5.45753e-05 4.22385e-20)
(0.000150381 0.000125145 -5.54183e-19)
(0.000154808 0.000139612 3.73223e-19)
(-0.00200686 0.390557 -4.14208e-18)
(0.000595297 0.371335 2.86202e-18)
(0.000310404 0.000134013 3.16169e-19)
(0.000308224 0.0001319 1.8633e-19)
(0.000311347 0.000131497 1.23205e-19)
(0.0196842 -0.0323663 -7.77487e-18)
(0.0187846 -0.0343518 -3.41385e-18)
(0.0213196 -0.033578 4.4829e-18)
(0.0311515 0.0430222 -3.0444e-19)
(0.0308079 0.040352 -4.60874e-19)
(0.0338264 0.0416951 -9.76182e-19)
(0.000152428 2.78151e-05 -1.64239e-19)
(0.000154702 4.29086e-05 -5.93958e-19)
(0.000158293 2.95046e-05 -5.9752e-19)
(0.0759649 -0.0417562 -2.32697e-18)
(0.0707662 -0.0423356 1.23913e-18)
(0.0779963 0.0120119 -3.24375e-19)
(0.0829556 0.0043965 -2.75976e-18)
(0.08736 0.0137193 4.84195e-19)
(0.000220838 1.90739e-05 5.18731e-20)
(0.000224809 2.03326e-05 -1.64956e-19)
(0.000222552 2.34576e-05 -2.65265e-19)
(0.0293779 0.102484 7.82872e-19)
(0.0221824 0.101615 -1.02537e-18)
(0.00479771 -0.000633107 9.00379e-19)
(0.00461551 -0.000767796 6.5487e-19)
(0.00489413 -0.000852744 7.35173e-19)
(-0.0211505 9.00592e-06 8.06617e-19)
(-0.0200032 -0.00323263 -3.28474e-19)
(-0.0235813 -0.00258455 2.40217e-20)
(0.000200457 0.000172496 -3.97996e-19)
(0.000201615 0.000167534 3.64012e-19)
(0.000195307 0.000178368 -1.52652e-19)
(0.169744 0.096293 1.7402e-18)
(0.151173 0.145076 -1.9587e-18)
(0.0281451 0.0445656 9.33743e-20)
(0.0315864 0.0461443 6.71602e-19)
(0.000196299 -2.47564e-05 -7.16806e-20)
(0.000193292 -3.04533e-05 -9.02595e-20)
(0.000201387 -2.9171e-05 -1.51442e-20)
(-0.102481 -0.00465634 1.42712e-18)
(-0.112173 -0.00813598 -3.76899e-19)
(-0.10878 -0.0148987 2.06986e-18)
(9.52599e-05 -6.37322e-05 -3.74832e-20)
(8.51401e-05 -7.17611e-05 -5.25924e-20)
(9.7833e-05 -4.57296e-05 -4.02491e-20)
(-0.0150951 0.00361203 8.24079e-19)
(-0.0133354 0.0029905 -3.46428e-19)
(-0.0132812 -0.0861713 -1.18465e-20)
(-0.0160211 -0.0913433 -6.04534e-19)
(-0.0214534 -0.0810232 2.51568e-19)
(0.000240298 -3.33358e-05 8.38922e-20)
(0.000242386 -2.937e-05 -5.87324e-20)
(0.00211861 0.00162023 2.51938e-19)
(0.00188405 0.00175645 -5.81155e-20)
(-0.000348776 -0.00155106 -1.59303e-19)
(-0.00050545 -0.00131593 -3.6155e-19)
(-0.000193146 -0.00128513 -4.14272e-19)
(-0.0056217 -0.00589371 -2.10118e-19)
(-0.00674473 -0.00529143 1.43088e-19)
(-0.0056045 -0.00446751 -4.03213e-19)
(3.0017e-05 2.17422e-05 4.34757e-19)
(3.16558e-05 8.54139e-06 1.23218e-19)
(5.75854e-05 -3.59268e-06 4.09771e-20)
(5.82959e-05 -6.48369e-06 2.54209e-19)
(5.60284e-05 -3.07224e-06 1.15965e-19)
(0.00023903 -7.74489e-06 -4.67629e-19)
(0.000238559 -7.06268e-06 -7.95359e-20)
(3.36981e-05 5.94078e-06 -6.52673e-19)
(3.17604e-05 1.00175e-05 -1.51693e-19)
(0.000203514 0.000165435 -3.7544e-19)
(0.000198665 0.000175854 -8.94195e-20)
(5.53788e-05 -3.24759e-07 -6.23563e-20)
(5.75468e-05 -3.47636e-06 9.70775e-20)
(-0.0019722 -0.00387293 1.79859e-19)
(-0.00178013 -0.00441758 -2.8797e-19)
(-0.00240187 -0.00435836 -3.65081e-19)
(0.000310058 0.000134895 -3.73171e-20)
(0.000311954 0.000135301 1.83369e-19)
(9.1587e-06 -6.94821e-05 -5.47211e-20)
(1.27078e-05 -6.74328e-05 1.54892e-19)
(-0.0121801 -0.00528626 -1.72191e-19)
(-0.0134191 -0.00346557 -1.74911e-19)
(-0.010884 -0.00320946 1.08615e-19)
(-0.00076285 -0.00610218 -4.80159e-19)
(-0.000302876 -0.00667695 -9.55682e-19)
(-0.00119868 -0.00690194 -1.85074e-19)
(0.0207882 -0.032274 -3.29911e-20)
(0.0223458 -0.0391076 5.3935e-19)
(0.0151227 -0.0378422 -9.73144e-19)
(-0.0940665 -0.00110628 1.93191e-18)
(-0.0978567 0.00606051 5.06107e-19)
(0.0792845 0.065424 -8.46821e-20)
(0.0817601 0.0689295 6.63872e-19)
(0.0770017 0.0691577 1.27534e-18)
(-0.051104 -0.0541501 1.17179e-18)
(-0.0716106 -0.0428251 -4.63627e-19)
(-0.0481295 -0.0682211 -1.65924e-18)
(0.00504145 -0.000448392 -4.68636e-20)
(0.00471647 -0.000385891 -2.4272e-19)
(2.71128e-05 -5.07308e-06 -5.62419e-20)
(2.40489e-05 -5.34806e-06 -2.66788e-19)
(2.99837e-05 -2.19161e-06 -3.19653e-19)
(0.0177969 -0.030904 2.11281e-19)
(0.0202748 -0.0302148 -2.78152e-20)
(2.03745e-05 -7.74441e-07 2.54238e-19)
(1.9589e-05 1.33523e-07 3.62566e-20)
(3.13817e-05 1.91998e-07 2.43664e-19)
(-0.0508392 -0.203177 1.25821e-17)
(-0.0688663 -0.156967 5.76434e-19)
(2.61858e-05 -1.90071e-06 -5.43622e-20)
(2.73672e-05 -3.27046e-06 2.55444e-20)
(3.75448e-05 -1.51176e-06 1.15573e-19)
(0.000192659 -1.82628e-05 4.84428e-20)
(0.000201736 -1.70808e-05 5.79521e-20)
(8.44596e-06 -7.12894e-07 1.9117e-19)
(2.12034e-06 -3.81609e-07 -4.51591e-20)
(7.72586e-05 9.13674e-07 -2.86726e-20)
(7.75388e-05 1.31643e-05 2.16683e-20)
(7.78396e-05 7.05172e-07 3.95211e-20)
(0.00152171 -0.00114666 -1.1929e-18)
(0.00154435 -0.00122572 1.70001e-19)
(0.00161416 -0.00116769 -1.93304e-18)
(0.00156886 0.0089075 4.33195e-19)
(0.00209194 0.00838722 1.55689e-19)
(0.0022245 0.00941331 7.53173e-19)
(6.48281e-05 5.84071e-06 -4.196e-20)
(6.1438e-05 6.22624e-06 -4.33415e-23)
(6.29323e-05 2.53009e-06 5.91122e-19)
(0.0197366 -0.025776 1.40273e-19)
(0.0249958 -0.0247467 5.5751e-19)
(0.000573022 0.00018318 2.66155e-20)
(0.000527068 0.00019313 -3.37506e-20)
(0.000557811 0.000136815 -4.63242e-20)
(0.000247461 -4.32451e-05 -1.24578e-19)
(0.000248262 -4.53881e-05 -3.38626e-19)
(0.000245602 -4.49301e-05 -1.00716e-19)
(0.00982008 -0.0245982 -9.07686e-19)
(0.00985446 -0.0198019 -8.84716e-20)
(0.00566449 -0.0230601 5.84861e-19)
(-0.000288741 0.000375715 7.07392e-19)
(-0.000375729 0.000447777 9.47759e-20)
(6.43381e-05 -1.04296e-06 2.27299e-19)
(6.79855e-05 -6.60582e-07 -4.47232e-19)
(6.44517e-05 -3.69636e-06 7.74122e-19)
(0.0143114 0.0105378 -1.60205e-19)
(0.0144646 0.0118058 8.66487e-20)
(0.0132097 0.0113448 9.68455e-20)
(0.000187905 -0.00013559 -3.81009e-20)
(0.000178814 -0.000128757 2.91842e-20)
(0.000186877 -0.000127562 7.0809e-20)
(-0.00106608 -0.00116853 -3.08247e-19)
(-0.00111116 -0.000850329 -5.47889e-20)
(-0.074864 -0.0317633 1.2393e-17)
(-0.0725181 -0.0354211 8.15503e-18)
(0.0322836 -0.020417 7.47727e-19)
(0.0342469 -0.02269 -3.02338e-18)
(5.53901e-05 -5.48067e-05 2.67586e-19)
(5.73928e-05 -5.35599e-05 2.41094e-19)
(5.58982e-05 -5.61404e-05 1.74233e-19)
(2.45915e-05 6.83142e-05 -6.15608e-20)
(3.6198e-05 8.33401e-05 1.67361e-19)
(3.61682e-05 7.95907e-05 -2.46091e-19)
(0.000120412 -3.99044e-05 2.88191e-21)
(0.000116111 -3.17557e-05 -3.28317e-20)
(0.000112305 -3.63005e-05 5.34217e-20)
(-0.110604 -0.0871634 -1.12108e-18)
(-0.0864032 -0.0905033 -9.27721e-18)
(-0.109135 -0.0969721 2.34806e-18)
(1.29723e-05 1.64921e-05 -3.83248e-19)
(8.27296e-06 1.53613e-05 1.174e-20)
(0.0885739 0.0617108 4.71905e-19)
(0.0850056 0.0618167 2.3149e-18)
(0.0872249 0.0650988 3.37062e-20)
(5.80512e-05 -4.74008e-05 -3.53089e-19)
(5.74006e-05 -4.10518e-05 4.55208e-19)
(0.0785019 0.09892 -1.13095e-18)
(0.0675811 0.0924814 1.56287e-18)
(-0.000312719 0.000317277 1.99143e-19)
(-0.000217646 0.000328769 -3.51157e-19)
(0.00252865 -0.00244718 3.28773e-19)
(0.00226525 -0.0027569 4.10868e-20)
(0.00210877 -0.00238759 -1.13733e-19)
(-0.00737069 -0.00547479 1.11324e-18)
(-0.00639099 -0.00526064 5.55231e-19)
(7.5865e-05 3.62565e-06 -5.58482e-20)
(7.73767e-05 4.00338e-06 9.96233e-20)
(7.45882e-05 5.92099e-06 5.11514e-19)
(0.0766846 0.0617419 -9.16662e-19)
(0.0812549 0.0616983 6.94393e-19)
(0.000511966 -0.000113351 8.64608e-20)
(0.00051536 -0.000141702 1.06564e-20)
(0.000534241 -0.000134663 -7.71369e-20)
(-0.0402474 -0.0458974 -1.01934e-19)
(-0.0563715 -0.0379252 -5.03081e-20)
(0.000247966 -3.96401e-05 -1.29101e-19)
(0.000246139 -4.06853e-05 2.58966e-19)
(-0.000105228 -4.97864e-05 -1.4778e-19)
(-8.81196e-05 -5.87778e-05 -5.1054e-19)
(-0.000108273 -6.09615e-05 2.37614e-19)
(-0.0011439 -0.000959798 -8.68641e-20)
(-0.00112735 -0.000730927 -2.02903e-19)
(-0.000890201 -0.000838026 3.75239e-19)
(0.000217306 0.000170981 -7.21752e-20)
(0.00023714 0.000158445 -1.26446e-19)
(0.000214485 0.000165113 -2.7297e-19)
(-0.0525688 -0.0424383 5.3941e-19)
(-0.0602727 -0.0415558 1.72761e-19)
(-0.0531885 -0.0331581 3.5286e-20)
(0.000885555 -0.00253707 5.41036e-20)
(0.00140796 -0.0027284 1.18052e-19)
(0.000832537 -0.00315419 -1.67683e-19)
(0.000412766 -0.00229309 -7.17394e-20)
(0.00087229 -0.00203831 5.72502e-19)
(9.05209e-05 -8.8747e-05 2.01338e-20)
(0.000105788 -5.85165e-05 3.14957e-20)
(-0.0376811 -0.258222 8.29058e-18)
(-0.0331918 -0.25393 9.6768e-18)
(0.000887685 0.009438 2.64639e-19)
(0.00104647 0.00840906 2.48583e-19)
(0.00357608 -0.00283967 5.38763e-19)
(0.00347792 -0.00266329 3.03524e-19)
(0.00368842 -0.00267149 5.90363e-19)
(0.000503729 -8.14365e-05 1.05005e-19)
(0.000492954 -4.95851e-05 2.57287e-20)
(0.00052111 -7.05396e-05 -1.20462e-19)
(0.000220489 0.000128828 1.49656e-20)
(0.00021361 0.000143523 -2.62672e-19)
(0.000218616 0.000130376 -3.34499e-19)
(0.0107895 0.000544016 -1.17907e-19)
(0.0107486 0.0013183 1.58411e-19)
(-2.50008e-05 -4.40712e-05 -6.57726e-20)
(-2.89368e-05 -6.0856e-05 -6.946e-19)
(-2.41991e-05 -5.1937e-05 -3.75807e-19)
(0.0154702 0.00567042 -5.47042e-19)
(0.0150275 0.00667814 -3.47645e-19)
(0.0143742 0.00571581 -2.8253e-20)
(-0.00785798 0.00115664 1.83541e-19)
(-0.00894409 0.000275278 -2.6699e-19)
(-0.00714086 -0.000146123 2.32393e-19)
(0.0206816 -0.00981067 2.2216e-19)
(0.0239182 -0.0114222 3.23798e-19)
(0.0228792 -0.00716725 -7.20031e-20)
(0.00424329 -0.00157101 1.87767e-19)
(0.00355514 -0.00176411 -9.39276e-19)
(0.00422329 -0.00236325 4.92225e-19)
(-1.9783e-05 -2.65068e-05 2.68916e-19)
(-1.28485e-05 -6.67402e-06 2.04629e-19)
(-1.52114e-05 -1.69016e-05 1.1631e-19)
(0.0730851 0.0161864 -6.04414e-20)
(0.0689449 0.0085183 1.10279e-19)
(0.0622239 0.0492844 -2.2881e-19)
(0.0639319 0.0530349 -8.67149e-20)
(0.0595359 0.0531868 1.47938e-18)
(-0.00677934 0.0152703 1.76696e-18)
(-0.00831716 0.0157558 1.91104e-18)
(-0.00781425 0.014126 1.78706e-19)
(0.00109365 -0.000541609 -4.44764e-19)
(0.000978089 -0.000406882 1.80952e-19)
(0.00114455 -0.000351918 -5.47435e-19)
(0.00201009 0.002778 3.8173e-20)
(0.0188021 -0.0466409 1.69831e-19)
(0.0245807 -0.0377255 1.50454e-18)
(0.0264721 -0.0466102 1.39307e-19)
(-2.63372e-05 -3.4589e-05 3.25533e-19)
(-0.0104548 -0.0069072 -4.72362e-19)
(-0.0134934 -0.00767777 -1.85917e-19)
(0.0179888 -0.00789439 -3.31012e-19)
(0.0182799 -0.0118405 -2.53023e-19)
(0.00102533 -0.000659617 -7.28736e-19)
(0.00096579 -0.000662023 -7.89566e-19)
(0.000978402 -0.00062741 -8.16848e-19)
(-0.0762547 -0.0275386 -5.98641e-19)
(0.0017688 -0.00306778 -1.56436e-18)
(0.00166543 -0.00319403 -5.14658e-19)
(0.00163077 -0.00300649 -1.67779e-18)
(0.000108645 -0.00204692 -5.7733e-19)
(-7.25237e-05 -0.00252061 8.07591e-20)
(5.31476e-05 -4.70827e-05 6.79312e-20)
(5.38301e-05 -5.16841e-05 -3.59979e-19)
(5.57365e-05 -4.3309e-05 4.53858e-19)
(0.00148635 -0.00108222 -3.15649e-19)
(0.00142256 -0.00112772 -9.40728e-19)
(-0.000179075 -0.00179661 -2.7354e-19)
(0.000216392 -0.00167742 -6.71934e-20)
(-0.00556954 0.0148207 4.20895e-19)
(-0.00431852 0.0141492 -1.70705e-18)
(-0.00526576 0.0132068 -3.29565e-19)
(0.000486972 -8.99751e-05 7.11913e-20)
(0.000302696 -9.08828e-05 -7.66199e-21)
(0.000297829 -0.000103541 8.21307e-20)
(0.000298547 -8.26845e-05 4.07687e-20)
(0.000242559 4.37324e-05 5.68365e-19)
(0.000239728 5.75711e-05 -6.98904e-19)
(0.000239876 5.55501e-05 5.66129e-19)
(-0.0429175 -0.0410117 -2.52833e-19)
(-0.0497668 -0.0522473 2.43686e-19)
(-0.0665282 -0.0369144 -2.53544e-18)
(-0.0688959 -0.0316772 5.53447e-20)
(-0.0635144 -0.0261005 -9.21408e-19)
(-0.000222896 0.000111326 3.97684e-19)
(-0.00029239 0.000103583 -9.08373e-20)
(-0.000246245 6.62031e-05 3.16776e-20)
(0.00238089 -0.000152991 1.05337e-20)
(0.00241217 -0.000572414 2.79464e-19)
(-0.0659867 -0.0526981 3.05718e-18)
(-0.00540674 -0.0757428 -9.48759e-19)
(-0.00916141 -0.0787236 -3.69493e-18)
(-0.00915236 -0.0737258 1.96713e-18)
(-0.0080401 0.00265211 2.77454e-19)
(-0.00675807 0.00200536 4.6981e-19)
(7.58943e-05 3.46213e-06 -2.0174e-21)
(7.61042e-05 -1.11709e-05 -3.20649e-20)
(-0.0122847 -0.00497692 -3.554e-19)
(-0.0125536 -0.00773766 -1.00085e-18)
(-0.0101337 -0.00638069 -2.004e-19)
(0.00193718 -0.00315057 -3.80175e-19)
(0.00186397 -0.00295541 -1.22334e-18)
(0.000245166 -1.45655e-05 -2.11539e-20)
(0.00025261 -1.27549e-05 1.37055e-19)
(0.000249366 -1.18624e-05 6.63741e-20)
(0.00408663 -0.000819146 -2.63857e-19)
(0.00496581 -0.00123865 1.28845e-19)
(0.000134357 3.08014e-05 -4.87118e-19)
(0.000136003 4.55801e-05 1.43898e-19)
(0.000134974 3.95107e-05 -3.01576e-19)
(-0.0117909 -0.0783441 2.92837e-19)
(-0.0060655 -0.0850696 5.56476e-19)
(0.00256252 0.0226074 7.38682e-19)
(0.000342559 0.0249154 1.30674e-19)
(0.00421309 0.0259369 5.23889e-19)
(0.0301138 -0.0197398 -4.86538e-19)
(0.0280539 -0.0194575 -1.22648e-18)
(0.0299966 -0.0178826 9.30825e-19)
(0.00213465 -0.00621417 3.98791e-20)
(0.00220241 -0.00643451 -5.21043e-19)
(0.00187846 -0.00636064 6.09629e-18)
(-0.0084073 -0.00561311 5.11593e-19)
(-0.00753104 -0.00657639 -1.37629e-18)
(-0.00681837 -0.0188948 3.74675e-19)
(-0.00962535 -0.0188315 -5.01721e-19)
(-0.00817674 -0.0160872 1.82098e-19)
(-0.0158259 0.00351955 -9.53688e-19)
(-0.018438 0.002125 4.90566e-19)
(-0.0151258 0.000953435 -2.88741e-19)
(0.0393269 -0.0198608 -3.41097e-18)
(0.0400729 -0.0173271 9.25745e-19)
(0.0424233 -0.0196752 2.76069e-19)
(0.000133399 1.72263e-05 -2.58771e-19)
(0.000134031 2.2447e-05 -1.58077e-19)
(0.000306397 -9.92321e-05 1.06426e-19)
(-0.00165812 -0.00060559 -2.32e-19)
(-0.00166717 -0.000952599 2.86726e-19)
(-0.00138132 -0.000742183 2.43054e-19)
(1.46032e-05 -3.96143e-05 -2.83902e-19)
(1.04011e-05 -5.14188e-05 -4.25457e-19)
(9.2597e-06 -4.38755e-05 -9.36296e-20)
(0.00272876 -0.00214909 2.71519e-19)
(0.00299217 -0.00250008 4.67307e-19)
(0.00368676 -0.00301633 -5.03208e-19)
(0.0034484 -0.00298736 -1.57941e-19)
(0.000242636 -9.42999e-07 8.12176e-21)
(0.000242984 -9.26542e-06 -3.9151e-19)
(0.000243082 -9.0119e-06 2.57481e-19)
(0.000275551 0.000146737 1.01083e-20)
(0.000297901 0.000128739 6.18596e-20)
(0.000284153 0.000148643 5.91509e-21)
(0.0141456 -0.0068657 1.96352e-20)
(0.0124717 -0.0073971 -8.43363e-20)
(0.012915 -0.00560256 8.33643e-20)
(0.000148789 1.21811e-05 -6.22928e-20)
(0.000148183 2.29143e-05 9.76016e-20)
(0.0357253 0.0230764 5.67093e-19)
(0.0380809 0.0228349 -5.90447e-19)
(0.0368589 0.0252962 7.31752e-20)
(0.0351738 -0.292602 -2.26856e-18)
(0.0366402 -0.271095 6.44362e-18)
(0.0109506 -0.00784422 9.87341e-19)
(0.00924328 -0.00797585 1.02199e-18)
(0.00999779 -0.00650641 -3.99914e-19)
(0.000221527 0.000176659 -2.16373e-20)
(0.00019309 0.00018714 -9.66003e-20)
(-0.00702342 0.00684422 -1.24226e-18)
(-0.00607962 0.00679928 -2.48571e-18)
(-0.00667614 0.00607802 5.63749e-19)
(1.8357e-05 -3.54443e-05 1.45129e-19)
(1.79084e-05 -2.61149e-05 2.61824e-20)
(0.0165777 0.00554658 1.19622e-19)
(0.0177805 0.00539208 -1.65249e-19)
(0.0174795 0.00667632 -5.53695e-20)
(0.000501426 -0.000206628 9.88649e-20)
(0.000482676 -0.000186429 -2.99624e-20)
(0.000481144 -0.000215633 -1.9114e-19)
(0.00047996 0.0101038 -1.83577e-19)
(9.59883e-05 0.0108753 1.62581e-19)
(0.00127973 0.0107292 -5.9608e-19)
(0.000157265 -2.54712e-05 -1.18736e-19)
(0.000155819 -1.65984e-05 1.39108e-19)
(-5.12995e-05 0.00962319 -6.58412e-19)
(-0.00893303 -0.132879 8.8661e-19)
(-0.0102685 -0.123769 -1.01262e-18)
(-0.000101101 -3.49779e-05 3.14057e-19)
(-7.78741e-05 -3.46454e-05 3.47643e-19)
(0.00961106 -0.0149765 2.4225e-18)
(0.00880269 -0.0145584 1.29007e-19)
(0.0089669 -0.0158168 -1.72213e-18)
(0.000870668 0.00134792 -4.19916e-20)
(0.000913667 0.00152623 4.72822e-20)
(0.000750804 0.00146894 2.91205e-20)
(0.00370771 0.00141955 4.49338e-19)
(0.0039534 0.00206434 -2.48877e-19)
(0.00448799 0.00150654 1.17306e-18)
(-0.0161133 0.00647713 -1.00192e-18)
(-0.0134018 0.00490681 -4.22047e-19)
(0.000142213 1.10334e-05 2.45016e-19)
(0.000139167 8.45145e-06 -7.77038e-20)
(1.4684e-05 5.0791e-05 3.99434e-19)
(1.56891e-05 5.74553e-05 4.03452e-22)
(0.0344405 0.0210224 8.29182e-19)
(0.0333573 0.0232503 -1.03372e-19)
(0.000248697 0.000164893 2.60273e-20)
(0.000268206 0.000146621 1.06642e-19)
(-0.0217942 0.00361966 7.86176e-19)
(0.00531677 -0.00377982 -7.37317e-20)
(0.00499591 -0.00368629 1.12054e-18)
(0.00508462 -0.00403618 4.47527e-19)
(0.052517 0.00999323 3.12708e-18)
(0.0186807 0.00193091 -8.34355e-19)
(0.019673 0.00289413 2.10725e-20)
(0.0183211 0.00304836 1.92939e-21)
(0.0299374 -0.0219549 2.04513e-18)
(0.00125535 -0.00358628 1.07275e-18)
(0.00176338 -0.00380882 -1.18334e-18)
(0.0016263 -0.003295 5.68528e-19)
(0.015808 -0.00607617 -1.6705e-19)
(0.0152024 -0.00842053 8.51574e-19)
(0.000196332 0.000439932 -1.65924e-19)
(0.000165042 0.000355053 7.30115e-20)
(0.000103803 0.000429618 -7.727e-19)
(0.00153461 -0.00247562 3.65607e-19)
(0.00165518 -0.00242284 9.17422e-21)
(0.00152574 -0.00235063 2.31291e-19)
(0.00197922 -0.00592192 1.41327e-18)
(0.00233032 -0.00598613 -1.80424e-18)
(0.0104907 -0.0155851 1.30856e-18)
(0.0102221 -0.0143209 1.53086e-18)
(0.0228735 -0.0186957 9.20784e-19)
(0.0201435 -0.024881 -3.36352e-19)