/*--------------------------------*- C++ -*----------------------------------*\
| =========                 |                                                 |
| \\      /  F ield         | OpenFOAM: The Open Source CFD Toolbox           |
|  \\    /   O peration     | Version:  v2012                                 |
|   \\  /    A nd           | Website:  www.openfoam.com                      |
|    \\/     M anipulation  |                                                 |
\*---------------------------------------------------------------------------*/
FoamFile
{
    version     2.0;
    format      ascii;
    class       volScalarField;
    location    "150";
    object      k_0;
}
// * * * * * * * * * * * * * * * * * * * * * * * * * * * * * * * * * * * * * //

dimensions      [0 2 -2 0 0 0 0];


internalField   nonuniform List<scalar> 
18758
(
0.000189505
0.00242498
0.000148464
0.000188248
0.000165545
0.000139096
0.000143403
0.00015229
0.000163493
0.000162121
0.00145107
0.00311377
0.000273461
0.000151697
0.000143191
0.000141847
0.00345125
0.000130546
0.000143064
0.000153619
0.00475586
0.00241033
0.000140062
0.000139266
0.0101837
0.0113797
0.0102571
0.000220362
0.000189335
0.00422706
0.00540179
0.0090187
0.000151901
0.0508989
0.000167189
0.0040157
0.000283835
0.000165853
0.00953998
0.00013472
0.00395435
0.000164242
0.00193563
0.000146074
0.000144892
0.00449303
0.000162367
0.000190833
0.0300981
0.000179344
0.00161327
0.044679
0.00017797
0.000155368
0.000193819
0.00026285
0.000139739
0.000153143
0.000189081
0.000139455
0.000146847
0.000145567
0.0119737
0.000470684
0.000147194
0.0579097
0.000146881
0.000133223
0.000221327
0.00013073
0.0434211
0.0301847
0.000143084
0.000159153
0.000219881
0.00758683
0.00330689
0.00559071
0.000163817
0.00189416
0.000185928
0.00690629
0.0046827
0.000181807
0.000150095
0.000189817
0.000156313
0.000160179
0.0118861
0.000189194
0.0373745
0.000153073
0.000180821
0.0301039
0.000142969
0.000139033
0.000132329
0.000179922
0.00613774
0.000142364
0.0060247
0.000160407
0.000133148
0.000139001
0.057978
0.00432369
0.0001908
0.0372487
0.00777275
0.0108967
0.000142015
0.000526485
0.000166084
0.000146433
0.000160357
0.000287421
0.000179443
0.000138104
0.000313365
0.000153354
0.00014502
0.00353875
0.000150422
0.000138128
0.0285608
0.000155385
0.000143908
0.000138145
0.000203341
0.0189993
0.00018913
0.000153016
0.000161987
0.0393517
0.000135067
0.000145886
0.00059634
0.000149668
0.00022589
0.000185802
0.000172091
0.00564396
0.000173753
0.00708994
0.0275678
0.000174911
0.0558305
0.000198878
0.00166316
0.00522571
0.0119368
0.0265801
0.000146527
0.00016747
0.00376193
0.0255101
0.000180718
0.000203774
0.000185284
0.00218474
0.031479
0.00013943
0.0293983
0.0555899
0.00422693
0.000139831
0.000139322
0.0343616
0.0172278
0.00386398
0.0272135
0.000148988
0.000192199
0.0064196
0.0107895
0.000142371
0.000142882
0.000663844
0.0445525
0.000149329
0.000132291
0.000154387
0.000193411
0.000151101
0.0125009
0.000143661
0.00465685
0.000166589
0.0303753
0.0136074
0.0265016
0.00014359
0.000197666
0.00333811
0.00013143
0.000150828
0.000236832
0.000146331
0.0307533
0.000141045
0.000148557
0.000208538
0.00697532
0.000141799
0.000142048
0.0299321
0.000142306
0.000169184
0.0133663
0.0228083
0.000144504
0.000181713
0.000150632
0.000148941
0.000152099
0.000132544
0.000144521
0.000181366
0.000136399
0.00468712
0.00699148
0.000141831
0.00017326
0.000209992
0.00677948
0.00588511
0.000226932
0.000188307
0.0325599
0.000142065
0.0101796
0.000174781
0.0126571
0.000147959
0.000140734
0.000142304
0.00022042
0.0300586
0.000250315
0.000149122
0.000142155
0.000214229
0.000215885
0.00014654
0.00984883
0.000245306
0.000140811
0.000138212
0.000142888
0.000142424
0.0275744
0.000145038
0.00556151
0.00014288
0.000143498
0.000270667
0.000139686
0.0361639
0.00014289
0.000634345
0.000166722
0.000138433
0.0001409
0.000195691
0.00594702
0.0120251
0.000138559
0.000221435
0.000146647
0.000146071
0.000330267
0.0503686
0.000145864
0.000141322
0.000151602
0.000151694
0.000159336
0.000135337
0.000149644
0.000151683
0.000138205
0.000153006
0.00014236
0.0515132
0.000143284
0.000141135
0.00013024
0.000212331
0.000138924
0.000138929
0.00014775
0.000149678
0.000139611
0.000142573
0.000145588
0.0001497
0.00560664
0.000157335
0.000140798
0.0289245
0.000154859
0.000142496
0.000142522
0.0162812
0.000603149
0.000132239
0.000271978
0.00434252
0.000146461
0.000254042
0.000142391
0.0205937
0.000231051
0.000200778
0.000188369
0.0491962
0.000132885
0.0142812
0.000218661
0.000146838
0.000199171
0.000182008
0.00306587
0.000140704
0.000132952
0.0214278
0.00704645
0.000139527
0.0296675
0.000202819
0.000183593
0.0369044
0.000140633
0.000140059
0.000142668
0.000146101
0.000149397
0.000154343
0.000152443
0.000142772
0.000149143
0.000149092
0.0103802
0.0182885
0.000148697
0.0151911
0.00675138
0.00013935
0.00016546
0.000737794
0.00377156
0.00472601
0.000244844
0.000143644
0.0291331
0.00112471
0.000171511
0.000149063
0.000180485
0.000148865
0.000145162
0.000242598
0.00238422
0.00336519
0.000244538
0.000772229
0.000140815
0.000157611
0.000154902
0.000180785
0.0298573
0.000277227
0.0175548
0.00025415
0.00432458
0.000252022
0.000143903
0.0578261
0.000199488
0.000855721
0.00283313
0.000142361
0.000139065
0.00248229
0.00409236
0.00520004
0.000338244
0.0290407
0.00014927
0.00345181
0.00898604
0.000141926
0.000151455
0.000151751
0.000151129
0.000145465
0.000149175
0.000144228
0.000156026
0.000146687
0.000143552
0.000166873
0.00332164
0.000160276
0.00110384
0.00130289
0.0251293
0.00239142
0.000201269
0.000146975
0.000139762
0.00228874
0.000151446
0.000149222
0.000493656
0.0001804
0.00104253
0.000139877
0.0115944
0.000144432
0.00015505
0.000131875
0.0316647
0.0168859
0.0052744
0.000145181
0.0353094
0.000180048
0.000144114
0.000150095
0.000144746
0.0204919
0.000145452
0.000142182
0.00586521
0.000160619
0.000149342
0.000142763
0.00015194
0.000156025
0.000854033
0.000252436
0.000147764
0.0584964
0.000131811
0.000156784
0.000187435
0.000143702
0.00401878
0.000147551
0.000156439
0.00014794
0.00026839
0.000154148
0.000144173
0.0301311
0.000654758
0.000130296
0.000157617
0.000154745
0.000141815
0.000144026
0.000150914
0.00155375
0.0437208
0.000147558
0.000169042
0.000633213
0.000443362
0.00664799
0.000246374
0.0070359
0.000137474
0.000199535
0.000207496
0.000164549
0.00015174
0.00497525
0.000314327
0.000170945
0.000140207
0.000143423
0.00013898
0.000143686
0.000138941
0.000143801
0.000420603
0.000149527
0.000131482
0.000179217
0.000152059
0.000148158
0.000134711
0.000153378
0.00030676
0.0054572
0.00014253
0.00141243
0.000141452
0.000160627
0.00019571
0.0409495
0.000257248
0.000142974
0.000143722
0.043257
0.0372066
0.000243941
0.000139776
0.0002804
0.052179
0.000130214
0.000140249
0.0293949
0.000152285
0.000186951
0.000241176
0.000153813
0.000169041
0.000138294
0.000141843
0.000152495
0.000142514
0.000141791
0.000146906
0.00792131
0.000132145
0.000688615
0.000883961
0.000130286
0.00013215
0.00015059
0.000158257
0.000159315
0.000279071
0.000142443
0.0194187
0.000164153
0.00016443
0.000141191
0.000142403
0.00014386
0.000147758
0.000147649
0.0300227
0.0173909
0.000138141
0.000141564
0.000149456
0.0346877
0.000131993
0.000132807
0.000144038
0.000131551
0.000140756
0.000140969
0.000150811
0.000141813
0.000190719
0.000142365
0.000135757
0.000226706
0.0383984
0.000165751
0.000144209
0.000142478
0.000148975
0.000142526
0.000151347
0.000588641
0.00123859
0.000149509
0.00788571
0.000142333
0.000166223
0.000144499
0.000141149
0.000175486
0.000130753
0.000142832
0.00992545
0.000147898
0.000151017
0.000233581
0.000143877
0.000143352
0.0311652
0.000137949
0.00211319
0.000374989
0.000143428
0.000148255
0.000178606
0.000152981
0.000159536
0.000142167
0.00084098
0.009246
0.00736157
0.000138469
0.0284171
0.000131345
0.000144825
0.000142384
0.000171334
0.00980246
0.000236687
0.000144676
0.000150843
0.000152367
0.00210314
0.000257331
0.000141218
0.000333064
0.000155184
0.0298655
0.000161652
0.00021284
0.000139609
0.000169578
0.000181229
0.000143274
0.000139672
0.000132041
0.000138942
0.000159391
0.000226436
0.00541318
0.00904751
0.000218603
0.000157136
0.000142485
0.000137829
0.000593994
0.00343998
0.000135089
0.000173996
0.0259836
0.0300805
0.000145973
0.000144613
0.000185076
0.00545144
0.000131256
0.000680566
0.000143848
0.000154796
0.000162578
0.000144893
0.000147673
0.000147819
0.00013851
0.000148954
0.000237494
0.000175349
0.00554792
0.000148862
0.000140966
0.000302457
0.000133062
0.000325217
0.00792387
0.000144012
0.000556951
0.000152635
0.000144766
0.000638768
0.00679796
0.0068917
0.00220263
0.000152498
0.00891684
0.000132227
0.0540145
0.0260668
0.000169657
0.000143498
0.00471043
0.000154793
0.000201606
0.0229115
0.000428922
0.000146057
0.00742267
0.00014147
0.000175332
0.000190949
0.000141101
0.000164221
0.00447921
0.00170421
0.000157353
0.000151087
0.000131497
0.00014907
0.000152162
0.0001664
0.00023155
0.000141555
0.000298235
0.000156216
0.000145937
0.000157835
0.000131819
0.00115249
0.000142276
0.000138998
0.00796052
0.000138
0.00014984
0.00142968
0.000180291
0.00018011
0.000143845
0.000145833
0.000185487
0.000145637
0.0050095
0.000154418
0.000152684
0.000150569
0.000145593
0.000131369
0.0332541
0.000131819
0.0476945
0.000215971
0.000149571
0.0407734
0.0001396
0.000176943
0.000156812
0.00243195
0.00015405
0.00110302
0.00360464
0.00014463
0.00130089
0.000135732
0.018048
0.000145853
0.000148362
0.0487734
0.00218845
0.00014214
0.000146975
0.000152095
0.000138088
0.000143777
0.00428491
0.0380012
0.000141266
0.000137958
0.000135825
0.000826797
0.000236177
0.000252493
0.000138445
0.00035338
0.000148342
0.000146023
0.000160953
0.00536417
0.00014123
0.000174496
0.000905559
0.000146805
0.000546046
0.000144241
0.000161795
0.000141233
0.000138372
0.00015788
0.000146155
0.000181694
0.000143586
0.0425719
0.000146256
0.000154731
0.00018899
0.000491109
0.00017481
0.000140699
0.000145476
0.00372877
0.000436599
0.000193862
0.00013959
0.000142331
0.00015928
0.0269975
0.0018469
0.000140929
0.000142082
0.000149456
0.000146723
0.000148959
0.000142555
0.000144712
0.00697293
0.000142247
0.000143444
0.00368571
0.0001384
0.000238859
0.000211955
0.00508112
0.00104817
0.00548102
0.0372962
0.000142572
0.00014247
0.000151853
0.000141165
0.000141293
0.000139063
0.000141031
0.000148895
0.000436468
0.000195147
0.000429778
0.000148354
0.000141926
0.00016495
0.000166394
0.000190138
0.000146227
0.000149631
0.000138208
0.0339125
0.0154485
0.00908136
0.000147776
0.000192363
0.000201346
0.000498541
0.0269081
0.000303137
0.000150334
0.000155351
0.000136459
0.047055
0.000146655
0.000132905
0.000194132
0.000589543
0.000142261
0.00558207
0.00388432
0.000142451
0.000142307
0.000142542
0.00014403
0.000143335
0.000153946
0.000163879
0.000143419
0.00014676
0.0102098
0.0336715
0.000142969
0.00532424
0.000181925
0.00014982
0.000145275
0.000141518
0.00013744
0.000151448
0.000149838
0.000144573
0.000147767
0.00015288
0.0001466
0.0490773
0.000159706
0.000143531
0.000144176
0.010723
0.000146237
0.000132854
0.00767668
0.000141367
0.00016802
0.000157909
0.000143491
0.00013945
0.000138084
0.000154085
0.000169644
0.000144739
0.00554122
0.000191589
0.000199499
0.000646226
0.000149195
0.000243206
0.000132228
0.00030904
0.000149731
0.000143236
0.000199122
0.000278701
0.00014826
0.0248925
0.0211412
0.000138511
0.000161717
0.000132909
0.000149348
0.000160134
0.000151679
0.000142887
0.000309145
0.000141054
0.000141301
0.00464374
0.000141645
0.000141295
0.000139463
0.0503314
0.000144414
0.000144685
0.000163521
0.0143916
0.00426171
0.000259278
0.00785747
0.000142023
0.00013166
0.000143568
0.000430619
0.000149801
0.00014103
0.000153185
0.000137844
0.0111585
0.000146938
0.000145975
0.0212622
0.000142259
0.000179866
0.00708728
0.000131638
0.000143346
0.00745951
0.000151538
0.025604
0.0133267
0.000137789
0.000144446
0.000539639
0.000138593
0.000153306
0.00539033
0.000135724
0.00494884
0.000142456
0.000143733
0.00014321
0.000166236
0.000152062
0.0081529
0.00015421
0.000140783
0.000175906
0.00379853
0.000170043
0.000165154
0.000297183
0.0280026
0.0168326
0.000131283
0.027642
0.000147764
0.0309955
0.00952829
0.000141417
0.000162584
0.000147077
0.00530676
0.000139652
0.00286563
0.000141624
0.0200257
0.000191545
0.000140184
0.000131529
0.000142584
0.0235178
0.00927306
0.000143899
0.00124327
0.000146189
0.000141236
0.00558559
0.000143119
0.00309429
0.000139976
0.000153739
0.000140553
0.000140041
0.00014086
0.000139717
0.00020686
0.000168901
0.000166666
0.000166875
0.000148679
0.000142712
0.00423052
0.00014263
0.00803524
0.000145489
0.00381783
0.000158271
0.00301797
0.000139528
0.000140656
0.000141079
0.036119
0.000143418
0.00774418
0.000198992
0.000143609
0.000157375
0.000142588
0.000138093
0.000152237
0.000141268
0.00315419
0.000144021
0.000150587
0.000143767
0.000151922
0.0033105
0.000820226
0.000145728
0.000139518
0.000145856
0.000148202
0.000141973
0.000155601
0.000148569
0.000142504
0.000137618
0.000139034
0.000212072
0.000186899
0.000146373
0.000137724
0.000294899
0.000149157
0.0296428
0.0111005
0.000148521
0.0303887
0.00015259
0.000139482
0.000142416
0.000153167
0.000215235
0.000138384
0.000167192
0.00487648
0.000207838
0.000295769
0.0556495
0.0289332
0.000160528
0.000146079
0.000144534
0.00726021
0.000137712
0.0001468
0.000163137
0.000361866
0.000144246
0.000140307
0.0292482
0.000153692
0.000149943
0.000149572
0.000153855
0.000210051
0.000144541
0.000154407
0.000143959
0.000162905
0.000152025
0.000147848
0.000148032
0.0072599
0.000147801
0.00014276
0.00509794
0.000131572
0.000143398
0.000145594
0.000150119
0.000147275
0.00499249
0.000198763
0.0060104
0.00580689
0.000959041
0.00692291
0.000148603
0.000438488
0.00578295
0.000145539
0.000149408
0.00014743
0.000144591
0.000150393
0.000148708
0.000235334
0.000234512
0.000147031
0.000135482
0.000177824
0.000151824
0.0068158
0.000143183
0.000148805
0.000142083
0.000257674
9.18098e-05
0.000163393
0.0450983
0.00014238
0.000142202
0.000195297
0.000166547
0.000141884
0.000228335
0.000148772
0.000161966
0.00571068
0.000208525
0.000162852
0.00014657
0.000147823
0.00014854
0.000138724
0.00500678
0.000205026
0.0358733
0.00079373
0.0148222
0.000148491
0.0290997
0.036991
0.0545216
0.000189553
0.029243
0.000162219
0.00136734
0.000201889
0.000165021
0.00013052
0.00014264
0.000145955
0.000175036
0.000139523
0.0001449
0.000265414
0.0279211
0.0267754
0.00579984
0.000186226
0.00322652
0.000171282
0.000154465
0.000142808
0.0303276
0.000240775
0.000140071
0.000164248
0.00267334
0.0294224
0.0262262
0.000170616
0.000191135
0.000131725
0.024315
0.000147788
0.00482478
0.00625897
0.000160487
0.000196843
0.000202023
0.000144341
0.00014319
0.00542753
0.000582573
0.000211221
0.000148515
0.000144279
0.000152514
0.00487557
0.000163674
0.00576155
0.000148401
0.0073685
0.000975142
0.000156332
0.000262302
0.000220801
0.0294227
0.000131727
0.000168918
0.0363422
0.000161401
0.000141932
0.0122112
0.00621287
0.000142409
0.000142577
0.00446247
0.000151403
0.000150521
0.0373288
0.000320785
0.000145896
0.000161415
0.000614247
0.000163656
0.000152573
0.000152332
0.00267631
0.000156098
0.000140268
0.000141319
0.000253467
0.000139229
0.000350897
0.000136976
0.000138518
0.00722814
0.000146536
0.000142476
0.000300293
0.00013136
0.000153615
0.00013785
0.000142321
0.000144766
0.000185179
0.000144571
0.00598656
0.00019387
0.00301303
0.038478
0.00015534
0.000137755
0.000139233
0.0376198
0.000158638
0.000143828
0.0052343
0.000168406
0.0271781
0.000136156
0.000136785
0.000137773
0.000141006
0.000144505
0.000133993
0.000148209
0.000148673
0.000143163
0.000952182
0.000176108
0.00652708
0.000150163
0.000137942
0.000162279
0.0570321
0.0382904
0.00705985
0.0477047
0.0073735
0.000232593
0.0372293
0.000150711
0.000171723
0.000175652
0.0305483
0.000141119
0.000322934
0.00100137
0.000218653
0.000142672
0.00720736
0.000141756
0.000142539
0.000143632
0.000162714
0.000541498
0.00568447
0.000145892
0.000130957
0.000138788
0.000134838
0.000175913
0.000143438
0.0374681
0.000189994
0.000189044
0.000148981
0.000142424
0.000133631
0.0317985
0.000807164
0.000143799
0.000141906
0.0259352
0.000134715
0.000143541
0.00013596
0.000144256
0.00014462
0.00014594
0.000137951
0.00146892
0.000152719
0.000260181
0.000163507
0.000146931
0.000102419
0.000146431
0.0162549
0.000147026
0.000176062
0.00142033
0.000702999
0.000169073
0.000213269
0.0285789
0.000151467
0.00016764
0.000152512
0.000142346
0.000138595
0.000140473
0.000323855
0.000174017
0.000154705
0.000271656
0.000138347
0.000144875
0.000172011
0.0118239
0.000131254
0.000172685
0.00347563
0.000190093
0.00965124
0.000149636
0.000146421
0.025546
0.000171204
0.000139811
0.0001424
0.00019562
0.000137583
0.000138381
0.0182591
0.000185351
0.000149757
0.00014814
0.00014665
0.040652
0.000154075
0.024851
0.0010332
0.000142706
0.000141713
0.000359973
0.000169143
0.000161557
0.000150557
0.000170289
0.000163486
0.000139595
0.000152972
0.000227833
0.000177282
0.0144261
0.00577133
0.000167429
0.00681097
0.000293008
0.000140889
0.00774664
0.00223919
0.000154493
0.0578152
0.00014664
0.000202376
0.000194206
0.00458156
0.000168043
0.000243138
0.000164399
0.00526575
0.000141841
0.000132949
0.0407909
0.000151746
0.000142322
0.000142158
0.000147933
0.000134339
0.00014907
0.000141246
0.000142486
0.0407679
0.00522052
0.000142459
0.000147103
0.000283527
0.00494363
0.000131543
0.000226656
0.0002493
0.00017615
0.000145774
0.000140781
0.0312684
0.000148027
0.000187349
0.000196011
0.000138485
0.000159614
0.0396334
0.000142756
0.0044139
0.000410697
0.0364044
0.0001488
0.000142702
0.000143216
0.000144956
0.000142246
0.00655993
0.0194302
0.00013779
0.000351099
0.0051881
0.000150246
0.000146107
0.000142194
0.00675724
0.0307698
0.000213437
0.00019812
0.000152688
0.0421013
0.00564187
0.000138772
0.000142335
0.000158731
0.00016765
0.00042298
0.00490484
0.000140605
0.000263467
0.00630427
0.000153964
0.000139881
0.000146179
0.000152434
0.000141711
0.000149375
0.000138313
0.000247542
0.000827763
0.000144739
0.000146558
0.000167181
0.000138556
0.000142473
0.000146443
0.0072801
0.000137914
0.000153384
0.0426067
0.000222763
0.000443233
0.000186185
0.000148347
0.000146647
0.000148743
0.000137521
0.000141367
0.000148933
0.000325274
0.000182601
0.00015029
0.000187995
0.000138066
0.0255374
0.000223065
0.000143673
0.000487395
0.000140511
0.000151635
0.000210189
0.0321894
0.000156651
0.000154056
0.000153735
0.000232007
0.000131959
0.0315828
0.0502374
0.000138137
0.00019259
0.00429674
0.000145068
0.000150949
0.00672062
0.000190532
0.000146853
0.00491453
0.000155365
0.000142431
0.00587316
9.03267e-05
0.00199954
0.000141
0.000581937
0.000166744
0.000133498
0.000184722
0.000163997
0.000146573
0.000195659
0.000497887
0.00520022
0.000186431
0.000218254
0.000138002
0.0531747
0.00645015
0.000221285
0.000211001
0.000145192
9.61071e-05
0.000145306
0.000141719
0.000176961
0.000149491
0.000363915
0.00753012
0.000146941
0.0523847
0.00550134
0.0379335
0.000161725
0.000191668
0.000131273
0.000147929
0.000153434
0.000131102
0.0219597
0.00114467
0.0431962
0.000345161
0.000241315
0.00534127
0.0304503
0.000143957
0.00015298
0.0015919
0.000185705
0.000145432
0.000142237
0.000211456
0.000218537
0.000160383
0.000142772
0.000146048
0.000239261
0.0001425
0.000228321
0.00720161
0.000134246
0.0337981
0.000136914
0.0456592
0.000203889
0.0457466
0.000150562
0.00606488
0.000146009
0.000142513
0.000150393
0.0308943
0.00017304
0.0048489
0.00014682
0.000142495
0.000604385
0.0523241
0.000146862
0.00019489
0.000223945
0.0467047
0.00843131
0.000140236
0.000145662
0.00473379
0.000131216
0.00013755
0.000155823
0.000143867
0.000146921
0.000140007
0.00014207
0.000155044
0.000142044
0.000165285
0.000171631
0.000141941
0.00254208
0.0301108
0.00015701
0.000135594
0.000143097
0.000207458
0.000143619
0.000142723
0.000144671
0.000187333
0.000143495
0.00015478
0.000152741
0.000273302
0.00472458
0.000140902
0.000222065
0.000237717
0.000160105
0.000317612
0.000289066
0.000140888
0.000142689
0.000225754
0.000202763
0.000157833
0.00393906
0.0270707
0.00014308
0.0209135
0.000149191
0.000201843
0.00554992
0.000240923
0.030457
0.000151445
0.000141333
0.00750004
0.000153048
0.0134117
0.000171882
0.0062589
0.0471719
0.000140396
0.00017139
0.000141957
0.000283416
0.000203432
0.0340836
0.00014145
0.000144948
0.000236791
0.000148192
0.00295813
0.000140263
0.00476638
0.000865443
0.000176436
0.0485942
0.0297565
0.000140606
0.000140751
0.000144081
0.000278326
0.00330143
0.000148368
0.000154645
0.000148287
0.00013567
0.000166879
0.000140881
0.000136765
0.000269342
0.000148058
0.000136512
0.000156502
0.0267236
0.00290261
0.0365137
0.000145963
0.000210165
0.000154822
0.000156602
0.000189128
0.00048706
0.0305428
0.000139279
0.000196556
0.000131543
0.000168952
0.000175062
0.000183697
0.00640753
0.00014934
0.000209748
0.000137448
0.00469358
0.00242513
0.00013681
0.000151054
0.000151404
0.000151856
0.0270604
0.000144579
0.000144654
0.000149214
0.000148226
0.000138962
0.000151174
0.00014318
0.000148323
0.000143439
0.000141668
0.0129292
0.00726259
0.0515456
0.000135558
0.000131891
0.000132715
0.000135821
0.00013302
0.000170207
0.000132624
0.000138049
0.000142829
0.000139815
0.000162734
0.00014259
0.000314299
0.0261462
0.000171902
0.00133625
0.000146182
0.00814711
0.000229695
0.000143948
0.000139939
0.00335404
0.000150172
0.0001442
0.000145312
0.000216401
0.000201922
0.00014033
0.000231859
0.000160389
0.000142741
0.00023199
0.00721546
0.000164022
0.000140662
0.000153103
0.00183092
0.000155214
0.00144056
0.000140412
0.000147982
0.000144477
0.000153493
0.000171318
0.0067918
0.00016652
0.000136888
0.015508
0.000199561
0.000195496
0.000141238
0.000155446
0.0470496
0.000140798
0.000148082
0.000162912
0.0245123
0.000134041
0.00014277
0.000138123
0.000167387
0.00014564
0.0067072
0.000145429
0.000156638
0.000162891
0.0400976
0.00013863
0.000136914
0.000131659
0.000165472
0.00013555
0.0248426
0.00324196
0.000165805
0.00462218
0.000142927
0.0179737
0.000145454
0.000137789
0.000226939
0.000194676
0.000223032
0.00514722
0.000475246
0.00169723
0.000167839
0.000168626
0.000149865
0.000467923
0.000144858
0.000147557
0.000267052
0.00014764
0.00542256
0.00516488
0.00459645
0.00621422
0.00531556
0.00547776
0.00388771
0.000187339
0.000149741
0.000198352
0.000144383
0.000137045
0.000141526
0.0420221
0.0429713
0.00454355
0.000157374
0.000154816
0.00516263
0.000140481
0.000232566
0.000136704
0.000173031
0.000142201
0.000133025
0.000148503
0.000171944
0.0215997
0.000163335
0.000162202
0.000137725
0.000200558
0.00441516
0.000137382
0.000207032
0.0354467
0.000131175
0.000179171
0.00013768
0.0314648
0.000145768
0.0200346
0.000148501
0.000146036
0.000162411
0.000223507
0.00104926
0.000176833
0.00511234
0.000151438
0.000144827
0.000145189
0.000145058
0.000136774
0.000143269
0.000883807
0.0350348
0.000178612
0.000143189
0.000157526
0.000153353
0.000146049
0.00014666
0.000197847
0.00474325
0.0031751
0.000144335
0.00498493
0.000137684
0.000182221
0.000151441
0.000172186
0.000233564
0.00450996
0.00671301
0.000133201
0.000144453
0.000140483
0.000142522
0.000144422
0.000142158
0.0374573
0.000146104
0.000146989
0.000148606
0.000171216
0.000141709
0.0294107
0.034488
0.00532401
0.000145556
0.0017821
0.000136634
0.00661006
0.0155113
0.000149784
0.00512371
0.000154441
0.000183131
0.000140602
0.000145713
0.000160838
0.000190753
0.000206944
0.00581212
0.00022687
0.000199172
0.000178719
0.000150011
0.000143823
0.0121232
0.000153544
0.00928571
0.000149431
0.051723
0.00071968
0.00517847
0.000150731
0.00462323
0.000154537
0.000143935
0.000136121
0.000152152
0.000185731
0.000142714
0.00497888
0.000201315
0.00020721
0.000141411
0.000157593
0.000387428
0.00444037
0.00760048
0.000156427
0.000166414
0.0436491
0.000318264
0.000147973
0.000187652
0.00701478
0.000184848
0.0003199
0.000158071
0.00016072
0.000211408
0.000133842
0.00551058
0.000176974
0.000144211
0.000859937
0.00578036
0.00556783
0.000157564
0.000203238
0.000197492
0.000136875
0.000183282
0.000149307
0.000145817
0.000140784
0.0343013
0.0343674
0.00589027
0.00722941
0.000190974
0.00125178
0.000155143
0.000214867
0.00767283
0.0353824
0.000151136
0.000149126
0.000141834
0.000158779
0.000134185
0.000141295
0.00218892
0.000141651
0.000138416
0.000165297
0.000149468
0.000132582
0.000209491
0.00607635
0.000179323
0.000146088
0.000144798
0.000161997
0.000150185
0.000141573
0.000140552
0.000136556
0.000432771
0.000157529
0.000219395
0.000158538
0.000143624
0.000132917
0.000244647
0.000217529
0.000253325
0.000170145
0.000147541
0.000171504
0.00014056
0.000159432
0.0140239
0.000414393
0.000184189
0.000153012
0.000137579
0.000162543
0.00759767
0.00542777
0.00487367
0.000156899
0.000138057
0.000137914
0.000155903
0.00067122
0.0316994
0.000138064
0.00470627
0.000132903
0.000143714
0.000206364
0.000140291
0.00386369
0.000207422
0.00460783
0.000133311
0.000172443
0.000172937
0.0425559
0.000137926
0.000145845
0.000233935
0.00394828
0.00107549
0.00488913
0.0349311
0.000149822
0.000184832
0.000157367
0.000185003
0.0399855
0.000158716
0.000140829
0.000145715
0.000135361
0.00144213
0.0506452
0.000156457
0.0519354
0.000136002
0.000140953
0.000145908
0.000225269
0.00021395
0.0558078
0.000143714
0.000148894
0.000169654
0.0180305
0.000136529
0.00465944
0.000140466
0.000152373
0.0304607
0.000139883
0.0215314
0.00146095
0.00688673
0.0365629
0.000144347
0.000153666
0.000153195
0.0299296
0.000216989
0.000145342
0.0148869
0.000454308
0.000131129
0.000151411
0.00157193
0.00013686
0.0285194
0.0275919
0.000156699
0.000131725
0.000155123
0.00015983
0.0456254
0.000137753
0.000169537
0.000150136
0.0244732
0.0366098
0.000142666
0.000136526
0.000208575
0.000157869
0.000144695
0.000142848
0.000140038
0.000182654
0.00015254
0.0178563
0.000148732
0.000148089
0.000141037
0.000151418
0.000153022
0.000151582
0.00335356
0.00727938
0.00401429
0.000148242
0.000136402
0.00477092
0.000160051
0.000183206
0.0010469
0.000193926
0.00737223
0.0290837
0.000135981
0.010462
0.000416081
0.000150532
0.000140062
0.000143716
0.000143641
0.000811496
0.00499141
0.000144584
0.0576827
0.0084696
0.03213
0.00013259
0.000138572
0.0228496
0.0001401
0.000145872
0.000164177
0.000141828
0.000783819
0.000155285
0.0401932
0.00437241
0.000141538
0.000309097
0.000260894
0.0163945
0.000380346
0.000143003
0.00015519
0.000171983
0.0358848
0.000338455
0.000429702
0.00014791
0.000143809
0.000196115
0.000136879
0.0136985
0.00697666
0.000140491
0.00382255
0.000137168
0.0312765
0.000146367
0.00598469
0.000150208
0.000946172
0.000285038
0.0382989
0.0136587
0.000135245
0.0235411
0.030256
0.00014877
0.0340142
0.000148372
0.00013346
0.000143728
0.000160933
0.000154611
0.000145786
0.000141106
0.000342016
0.000173686
0.000182623
0.0581759
0.000186287
0.000159962
0.000148319
0.000195116
0.000136409
0.000187235
0.0156818
0.000563999
0.007624
0.000151147
0.00015337
0.000150572
0.000182432
0.000152314
0.000141278
0.0267345
0.00833681
0.0333042
0.000154061
0.000145714
0.000177319
0.000385481
0.00014767
0.000136645
0.000150327
0.000151273
0.000173356
0.000143356
0.00498508
0.000147534
0.0387343
0.000138437
0.00054622
0.00789538
0.00093525
0.000135728
0.000185817
0.000145066
0.000137394
0.000196385
0.00824998
0.000141553
0.000149588
0.0392497
0.000144229
0.000187727
0.00481594
0.000158539
0.00409878
0.000145622
0.0012196
0.00016317
0.000471137
0.000136307
0.00014022
0.0510226
0.00013999
0.00498861
0.000155405
0.000164706
0.037915
0.000150613
0.000143814
0.000149805
0.000141475
0.00612611
0.0372651
0.000137345
0.00498941
0.000205891
0.000312717
0.000144002
0.000246657
0.00128245
0.00016068
0.000161873
0.00014401
0.0552526
0.000133653
0.0389429
0.000136193
0.000139964
0.000154395
0.000145965
0.000138463
0.000220089
0.000153204
0.000141568
0.00562269
0.000137913
0.000185198
0.000157611
0.00646991
0.000218518
0.000140376
0.000168266
0.000141061
0.000140484
0.000154934
0.0381233
0.00156273
0.0063089
0.0298629
0.000136479
0.000143526
0.000144612
0.000140255
0.000135669
0.00897853
0.000133174
0.00015486
0.000163983
0.000149692
0.000227009
0.000144752
0.000136558
0.0322907
0.00031978
0.000146189
0.000174362
0.000164658
0.000333771
0.000141572
0.000151797
0.00573902
0.000145952
0.00107769
0.000239767
0.000149644
0.000150112
0.0316252
0.000154928
0.000187184
0.00410069
0.00125472
0.000153931
0.000153591
0.000173384
0.0395687
0.000148591
0.0078768
0.00132757
0.00414162
0.0398902
0.000138665
0.00014419
0.00014223
0.00146077
0.00295453
0.000312597
0.0297117
0.000135565
0.0185135
0.000139061
0.0559473
0.000143406
0.000175866
0.000204344
0.000149191
0.000149245
0.000188473
0.000157587
0.000148126
0.000149058
0.000198585
0.000153369
0.00014065
0.0080765
0.000148337
0.000148443
0.000143422
0.000602365
0.000188275
0.00712658
0.000163197
0.000152823
0.0402657
0.00015687
0.000214666
0.000137205
0.00014228
0.0531566
0.0297778
0.00282256
0.000145936
0.000154352
0.0578876
0.000215378
0.000199622
0.000809123
0.00302808
0.00575472
0.000136336
0.00651799
0.000140205
0.000184765
0.00254003
0.000188129
0.000188014
0.000151474
0.030746
0.000195688
0.00580622
0.000213709
0.000141694
0.000143366
0.000144232
0.00806813
0.000137345
0.00383255
0.000187609
0.00635889
0.000135754
0.0312395
0.0541512
0.00564192
0.00638589
0.00015028
0.000147343
0.000142182
0.00015879
0.000144321
0.000154961
0.0512215
0.00014432
0.000150664
0.0310169
0.00562479
0.0057949
0.000157678
0.000167431
0.000139708
0.0307797
0.000148891
0.0447116
0.000174438
0.00052335
0.000164386
0.000186735
0.013499
0.000142926
0.000142326
0.0166607
0.00183468
0.000240093
0.000201864
0.000177837
0.000141362
0.000229402
0.000143902
0.000235037
0.000143641
0.000151414
0.00675248
0.000149556
0.000186646
0.000137578
0.0539181
0.00070281
0.000165564
0.00016469
0.033579
0.000160072
0.000136104
0.037858
0.0548886
0.0305994
0.000140037
0.000148175
0.0104781
0.0567018
0.0175524
0.00014602
0.000152193
0.00014625
0.000159335
0.0001481
0.000138407
0.000456686
0.000140762
0.0430328
0.000153376
0.00162057
0.000135774
0.0521216
0.000873396
0.00019084
0.011434
0.00357078
0.000138524
0.000199148
0.000730516
0.000139745
0.000147847
0.000145201
0.0347191
0.0186188
0.000144582
0.0290718
0.000176953
0.000142639
0.0337706
0.00015232
0.000193772