/*--------------------------------*- C++ -*----------------------------------*\
| =========                 |                                                 |
| \\      /  F ield         | OpenFOAM: The Open Source CFD Toolbox           |
|  \\    /   O peration     | Version:  v2012                                 |
|   \\  /    A nd           | Website:  www.openfoam.com                      |
|    \\/     M anipulation  |                                                 |
\*---------------------------------------------------------------------------*/
FoamFile
{
    version     2.0;
    format      ascii;
    class       volScalarField;
    location    "150";
    object      omega_0;
}
// * * * * * * * * * * * * * * * * * * * * * * * * * * * * * * * * * * * * * //

dimensions      [0 0 -1 0 0 0 0];


internalField   nonuniform List<scalar> 
18758
(
0.0293884
0.313128
0.0216512
0.0288886
0.0260167
0.02044
0.021284
0.022757
0.0254757
0.025103
0.242748
0.372181
0.064803
0.022644
0.0212631
0.0211418
0.390195
0.0195349
0.0212535
0.0234191
0.511327
2.2423
0.0205535
0.0204811
3.31526
2.73152
0.974948
0.100207
0.0696027
0.356642
1.28533
0.945052
0.0226356
4.05663
0.026453
0.35217
0.0699501
0.026031
1.14427
0.0198818
0.34309
0.02601
0.233163
0.0215214
0.0214155
1.16563
0.0253543
0.0709801
2.28327
0.0264566
0.253463
3.0287
0.0261365
0.023733
0.13052
0.0613711
0.0205719
0.0232556
0.0652246
0.0205249
0.0216223
0.0214383
1.11513
0.319013
0.0216421
4.0657
0.0214637
0.0198534
0.101301
0.0195534
2.91758
3.44983
0.0212135
0.0256665
0.0727421
1.49628
0.741584
0.464269
0.0256294
0.249322
0.0741777
0.963838
0.437205
0.0425418
0.0222454
0.104578
0.0248989
0.026253
1.14066
0.103174
2.22709
0.0223255
0.0579439
2.24479
0.0212032
0.0207436
0.0196707
0.0501629
0.478159
0.0210989
1.37989
0.0268311
0.019846
0.0207402
4.04358
0.503058
0.0708826
2.23612
0.935461
0.789965
0.0211662
0.357838
0.0252664
0.0213705
0.026816
0.183113
0.0488345
0.0203646
0.222154
0.0226571
0.0212619
0.75417
0.0222659
0.0204839
3.37738
0.0237672
0.0211491
0.0204859
0.112901
4.2031
0.0661778
0.0222451
0.0277707
2.97789
0.0199208
0.021352
0.25712
0.022103
0.125172
0.072232
0.0263685
0.438951
0.0415639
0.894115
3.55225
0.0448988
3.99253
0.100105
0.262635
1.95451
5.1565
2.89449
0.0215893
0.0264492
0.340616
1.60096
0.0574545
0.117001
0.0449833
0.304741
2.28894
0.0205861
2.22026
3.96376
1.12457
0.0205872
0.0205768
2.5426
4.47254
0.407693
2.43002
0.0217725
0.0760094
0.32166
1.01006
0.0210552
0.0212017
1.12685
4.00249
0.0220192
0.0197804
0.0236544
0.124286
0.0225008
2.37887
0.0213606
0.364097
0.0294795
2.20184
1.41242
2.75697
0.0213511
0.0687493
0.864965
0.0196832
0.0224096
0.140888
0.021578
2.19199
0.0206903
0.0218236
0.134656
1.0294
0.0211398
0.0211689
2.23429
0.0209429
0.0270521
4.80863
3.42371
0.0211636
0.059025
0.0220969
0.0220717
0.0228344
0.0196894
0.0214082
0.0581269
0.0201289
0.362117
0.979493
0.0208485
0.040662
0.134623
1.11522
0.301948
0.0788751
0.103587
2.33238
0.0209206
2.80276
0.0446684
1.06304
0.0215662
0.0209857
0.0209165
0.0802872
2.41545
0.159898
0.0219008
0.0211786
0.074215
0.108741
0.0214146
2.27483
0.192877
0.0209971
0.0206248
0.0210941
0.0210983
2.40189
0.0213325
0.289319
0.0210009
0.020968
0.196112
0.0205625
3.46214
0.0212606
0.219258
0.0254351
0.0205048
0.0210088
0.066016
1.23203
1.40249
0.0205148
0.120283
0.0216038
0.0214134
0.225085
3.51755
0.0213832
0.0208477
0.0212562
0.0227026
0.0262601
0.0200113
0.0222294
0.0226355
0.0206252
0.0222592
0.0212134
3.88303
0.021274
0.0208335
0.019526
0.104978
0.0207223
0.0207278
0.0215978
0.0220912
0.0205488
0.0208785
0.0212637
0.0219422
0.299639
0.0228176
0.0206634
3.40279
0.0239897
0.0209009
0.0209197
1.3504
0.0842839
0.0197751
0.0456503
0.502762
0.0215837
0.0574478
0.0212167
1.54534
0.13495
0.0813571
0.0682724
4.08563
0.0198222
1.30768
0.156834
0.0214672
0.0778801
0.0423174
1.39767
0.0209668
0.0198292
3.69042
0.332022
0.0207266
3.06561
0.0637759
0.0281631
2.57054
0.0209611
0.0206229
0.0212452
0.0213517
0.0219688
0.0226662
0.022823
0.0209952
0.0219134
0.0219016
1.45834
1.34331
0.0219818
1.34777
0.493218
0.0207141
0.0318626
0.0867834
2.25078
0.418109
0.14049
0.0213609
2.76325
0.315392
0.0312838
0.021897
0.0277529
0.0220966
0.0213672
0.152551
0.76065
0.340425
0.0999545
0.645067
0.0209962
0.0255244
0.0238831
0.0509946
2.3464
0.175892
1.15665
0.119939
0.352305
0.145254
0.0210502
4.1753
0.104491
0.149451
0.312681
0.0210352
0.0204431
1.77532
0.388027
0.425532
0.23067
3.21636
0.0219365
0.389122
0.780935
0.0211516
0.0225515
0.0227453
0.0223895
0.0212627
0.0221837
0.0214217
0.0226671
0.0214189
0.0211297
0.0308838
0.656673
0.0275321
0.426262
0.483301
3.93702
0.543891
0.101033
0.02161
0.0205334
0.259218
0.0225423
0.0219218
0.31194
0.0498162
0.177318
0.0205962
1.45297
0.0213639
0.0240829
0.0197365
2.21887
1.495
0.429389
0.0212383
2.36376
0.0567664
0.021381
0.0222514
0.0211956
1.20896
0.0212499
0.0208475
1.31551
0.0278151
0.0219497
0.021191
0.0226288
0.0242263
0.55525
0.0748927
0.0216117
4.13367
0.019729
0.0229745
0.0987096
0.0214047
1.08612
0.0216495
0.0244079
0.021587
0.163757
0.0223567
0.0214159
2.58348
0.0968343
0.0195293
0.0255276
0.0231036
0.0211419
0.0210702
0.0220966
0.775909
2.6529
0.0216707
0.0345591
0.527055
0.758368
0.388573
0.191398
0.396734
0.0202928
0.0950723
0.0680877
0.0288999
0.0225733
0.363232
0.044362
0.0261291
0.0206505
0.0212815
0.0207251
0.0214033
0.0207189
0.0214206
0.182378
0.0218179
0.0196932
0.0557452
0.0221432
0.0216218
0.019885
0.0228729
0.0429344
0.525127
0.0209701
0.229118
0.0207105
0.0277387
0.113784
2.95548
0.123204
0.0212556
0.0213717
2.7381
2.67735
0.0335176
0.0205776
0.0868202
3.91731
0.0195216
0.020566
2.61151
0.0228908
0.0752439
0.0327111
0.0228097
0.0345104
0.0206302
0.0210119
0.0222486
0.020871
0.0208904
0.0216241
0.51284
0.0197882
0.121361
0.652105
0.0195268
0.0197875
0.0220092
0.0257752
0.0262516
0.0856816
0.0211084
1.50737
0.029039
0.028782
0.0207723
0.0209676
0.021254
0.0216921
0.0216788
3.22454
2.62017
0.0206217
0.0208726
0.0220399
2.43295
0.0197463
0.0197082
0.021436
0.019704
0.0207992
0.0207476
0.0224005
0.0211385
0.06805
0.0211059
0.019989
0.0928603
3.07434
0.0250951
0.0211958
0.0210863
0.0217429
0.0211867
0.022363
0.110851
0.163998
0.0220564
0.709786
0.0210731
0.0326533
0.0212525
0.0207006
0.045455
0.0195595
0.02093
0.798039
0.0215765
0.0224708
0.0926616
0.0210838
0.0213141
2.20318
0.0203434
0.466353
0.0499164
0.0209759
0.0216263
0.0396236
0.0229657
0.0262907
0.0210395
0.257864
0.734494
0.406409
0.0206504
3.47228
0.0196787
0.0211775
0.0211206
0.0249431
1.42708
0.105207
0.0212682
0.0224248
0.022584
1.20672
0.0761099
0.0210569
0.0613655
0.0241171
2.48822
0.0275788
0.0338796
0.0207489
0.0246467
0.0505562
0.0209832
0.0207505
0.0197521
0.0206813
0.0261933
0.0626605
0.289082
0.794689
0.0341
0.0235659
0.0211247
0.0205795
0.109928
2.76933
0.0199163
0.0413366
3.03578
3.22937
0.0213669
0.0211943
0.0452743
0.360311
0.0196667
0.0737259
0.0211984
0.0224974
0.0292121
0.0214582
0.0216858
0.021803
0.0206648
0.0219633
0.0687999
0.0451998
0.440093
0.0220267
0.0208151
0.204185
0.0197289
0.227019
0.509637
0.0212103
0.231924
0.0225092
0.0212879
0.26081
0.326277
0.331242
0.930649
0.0228085
0.946108
0.0198004
4.26266
3.79706
0.0301232
0.0210898
0.449033
0.0239338
0.0566201
1.39791
0.322597
0.021555
0.502594
0.0207565
0.0430932
0.0744007
0.0207698
0.0299482
0.810172
0.374217
0.0249029
0.0224926
0.0196942
0.0218985
0.0221668
0.0291475
0.0848842
0.0208552
0.195152
0.0233717
0.0213927
0.0257432
0.0197465
0.174596
0.0211996
0.0206854
2.21848
0.0206052
0.0223073
0.205328
0.0574205
0.0597754
0.021391
0.0213807
0.0524042
0.0213648
0.351945
0.0237955
0.0230291
0.0222864
0.0213552
0.0196796
2.50067
0.0197457
2.68145
0.155051
0.0220779
2.60601
0.0205046
0.0269483
0.0246586
1.24349
0.0236443
0.187238
0.328154
0.0211844
0.232874
0.0202916
1.4282
0.0213907
0.0217784
3.34809
0.255324
0.0211808
0.0215384
0.0226918
0.0205423
0.0213849
0.359213
2.68581
0.0207796
0.0205312
0.0203029
0.54066
0.103738
0.0399772
0.0206547
0.063968
0.0217726
0.021407
0.0280119
0.457116
0.0210599
0.0422643
0.236715
0.0209728
0.0738782
0.0213931
0.0275959
0.02106
0.0203879
0.0256506
0.0214263
0.0518851
0.0213907
3.41681
0.021473
0.0239486
0.0680718
0.151667
0.0421007
0.0206645
0.0213435
0.332256
0.0804141
0.0505362
0.0208225
0.0210868
0.025745
2.20076
0.250682
0.0207265
0.0211666
0.021972
0.0215111
0.0219666
0.0211711
0.0211579
0.398102
0.0211923
0.0213216
0.3343
0.0206383
0.202504
0.0833141
1.37484
0.833237
0.429745
2.74956
0.0211794
0.0210992
0.0227799
0.0207628
0.021062
0.0205641
0.0207486
0.0218633
0.304667
0.113108
0.132098
0.0218988
0.0210597
0.0296418
0.0304917
0.0586402
0.0213797
0.0221553
0.0203633
2.51536
1.21026
0.796214
0.021558
0.076046
0.103527
0.0658211
2.18897
0.122238
0.0222383
0.0217126
0.0200592
3.98401
0.0215326
0.0198728
0.0692821
0.242042
0.0211603
0.291211
0.513961
0.0212266
0.0211336
0.0212418
0.0211642
0.0212704
0.0228734
0.0295943
0.0212512
0.0215435
0.788913
2.58464
0.0212422
0.364674
0.827989
0.0220518
0.021354
0.0208171
0.020237
0.022602
0.0220501
0.0211509
0.02169
0.0226743
0.0215403
3.39005
0.0265044
0.0209875
0.0211744
0.965053
0.0215671
0.0198621
2.05392
0.0210747
0.0333444
0.0256696
0.0213315
0.0207988
0.0205195
0.0236422
0.0371609
0.0211463
0.429477
0.0608593
0.0926669
0.199366
0.021921
0.0529089
0.0197995
0.0965024
0.0221103
0.0210954
0.131564
0.203835
0.021718
1.30173
3.24292
0.0203943
0.028496
0.0198628
0.0219195
0.0266512
0.0223742
0.0210891
0.0397125
0.021029
0.0208333
0.400486
0.0208312
0.0210593
0.0207978
3.50147
0.0212047
0.0213487
0.0292283
1.35852
0.389179
0.179769
0.5126
0.0210263
0.0197226
0.0213409
0.322825
0.0218266
0.02091
0.023173
0.0203255
1.23043
0.021568
0.0215229
1.3558
0.0211411
0.056751
1.45169
0.0197195
0.0212438
0.90957
0.0226482
3.96411
0.998968
0.0205774
0.0214117
0.169729
0.0206773
0.023238
0.432562
0.0200694
0.492913
0.021228
0.0211378
0.0212603
0.0305003
0.0224599
0.562386
0.0224495
0.0209794
0.0506306
0.332233
0.0377484
0.0253695
0.0361548
2.28767
1.39297
0.0196705
2.30936
0.0215055
2.55685
0.788333
0.0207922
0.0236884
0.0215847
0.359124
0.020767
1.35582
0.0208291
1.31473
0.115634
0.0206477
0.0196842
0.0211874
1.26709
1.16348
0.0211968
0.236478
0.0214952
0.0210589
0.516185
0.0212857
1.89231
0.0208097
0.0233709
0.0209506
0.0208126
0.0209893
0.0207706
0.0770136
0.0260287
0.0302239
0.0320827
0.0217979
0.021226
0.419945
0.0212555
0.566434
0.0215397
0.405432
0.0258226
0.337062
0.0205374
0.0207031
0.021034
2.22136
0.0209824
0.503678
0.0572325
0.0213938
0.0254611
0.0212511
0.0206196
0.0228891
0.0208194
0.366953
0.021206
0.0223279
0.0212045
0.0227231
1.43641
0.186477
0.0213711
0.0208104
0.0214519
0.021722
0.0211138
0.0225719
0.0218006
0.0211784
0.0203129
0.0204733
0.198867
0.0734593
0.0213795
0.020318
0.148274
0.0220807
1.86554
1.1269
0.0217994
2.30705
0.0221998
0.0205362
0.0210091
0.023046
0.0312893
0.0203945
0.0325784
0.41423
0.034882
0.14583
4.01971
3.33315
0.0269818
0.0215247
0.0214255
0.554338
0.0203049
0.0214267
0.0292893
0.0453763
0.0210787
0.0206765
2.9043
0.0234945
0.0220835
0.0220265
0.0234352
0.0358417
0.0214191
0.0238081
0.0212172
0.0276028
0.0223658
0.0217011
0.0216763
0.54481
0.0217231
0.0212364
0.425018
0.0196835
0.0209952
0.0212943
0.0221658
0.0216469
0.637768
0.0978039
0.510565
0.37375
0.609733
0.328013
0.0219082
0.315411
0.450388
0.0213596
0.0220232
0.0215603
0.021428
0.0222323
0.021996
0.0851521
0.0987422
0.0214104
0.0202575
0.0384764
0.0223424
0.325872
0.0209975
0.0218535
0.0210728
0.174141
0.0562649
0.029305
3.46842
0.0211138
0.0210842
0.0719258
0.0253136
0.0210679
0.0950951
0.0218069
0.0236134
0.367024
0.081415
0.0274499
0.0214579
0.0216167
0.0217983
0.0206407
0.419224
0.0740797
2.21604
0.147083
2.62381
0.0217606
2.21537
2.24017
4.00926
0.0964021
1.80682
0.02539
0.194672
0.0954148
0.028672
0.0195364
0.0211644
0.0213998
0.0364202
0.0208093
0.021214
0.0360736
2.58366
1.87323
0.373957
0.0694022
0.392068
0.0260092
0.0230211
0.0212466
2.41182
0.173599
0.0205427
0.0297834
0.851265
2.65835
3.19514
0.0347678
0.0536344
0.0197331
4.06277
0.0217179
0.411271
0.680531
0.0269645
0.110627
0.0983356
0.0214012
0.0212245
0.526217
0.108633
0.198901
0.0217595
0.0212394
0.0230403
0.414975
0.0239042
0.352777
0.0217773
0.379489
0.12871
0.0243046
0.0750687
0.0754625
3.32213
0.0197318
0.0301978
2.21032
0.0277433
0.0211564
0.784997
0.536326
0.0211361
0.021252
0.285297
0.0221815
0.0222414
3.44084
0.0586432
0.021407
0.0282018
0.179538
0.0296365
0.0228171
0.0227429
0.278769
0.0242022
0.0207301
0.0209858
0.0732283
0.0207678
0.299125
0.0204435
0.0206656
0.397245
0.0215998
0.0211175
0.0410325
0.0196795
0.023309
0.0204891
0.0210793
0.0214903
0.0723462
0.0212782
0.354252
0.133369
0.378337
3.62228
0.0239587
0.0205659
0.0207711
2.21242
0.0258385
0.0211431
0.336797
0.0326325
1.82247
0.0200911
0.0204307
0.020578
0.0207993
0.0212026
0.0198858
0.0219057
0.0220814
0.0212975
0.151239
0.0274537
0.369535
0.022164
0.020493
0.0233416
4.21664
2.39859
0.498266
3.56393
0.498145
0.0956364
2.25847
0.0222179
0.031575
0.0428951
2.80875
0.020973
0.0850381
0.172501
0.152867
0.0211812
0.503107
0.0210565
0.0212399
0.0210019
0.0293771
0.363144
2.02395
0.0215457
0.0195742
0.0204429
0.0201496
0.0282494
0.0213429
2.22642
0.0620801
0.0294649
0.0218506
0.0211442
0.0198489
3.19509
0.419774
0.0210734
0.0209565
1.39297
0.0201363
0.0213414
0.020312
0.0211706
0.0214756
0.0213374
0.0205078
0.249425
0.0230389
0.158067
0.0239315
0.0216244
0.217034
0.021563
3.79165
0.0216323
0.0459778
0.185986
0.109932
0.0304994
0.0863034
3.33825
0.0223405
0.0309023
0.0222739
0.021168
0.0204897
0.0209378
0.136549
0.0378406
0.023872
0.107551
0.0204704
0.0213411
0.036569
0.781136
0.0196663
0.0402549
2.1826
0.0976416
1.11435
0.0218735
0.0214975
3.40104
0.027104
0.0208518
0.0211289
0.102638
0.0205491
0.0206429
2.65681
0.0567032
0.0222131
0.0218989
0.0215948
2.60169
0.0236745
4.00292
0.637419
0.0212222
0.0210066
0.0890511
0.033174
0.0234639
0.0222815
0.0244665
0.0234334
0.0208218
0.0232116
0.150136
0.0411188
5.45067
0.371859
0.0335623
0.481216
0.0749811
0.0207222
0.508249
1.15109
0.0225994
4.1111
0.0214951
0.16913
0.0746962
0.529873
0.0244147
0.0376257
0.0287276
0.325453
0.0210576
0.0198724
3.81995
0.0227248
0.0211418
0.0211791
0.0216795
0.0198443
0.0218931
0.0209844
0.0211701
3.44688
0.83674
0.0210917
0.0216999
0.0764445
0.407133
0.0197069
0.182347
0.0557181
0.0438695
0.0213855
0.0209768
3.19548
0.0217033
0.054831
0.0806389
0.0206484
0.0234292
3.09647
0.0208957
0.394314
0.292151
2.29626
0.021847
0.0209088
0.0212936
0.0212029
0.021192
0.368071
1.3799
0.0203227
0.070346
3.07647
0.0219513
0.021531
0.0211947
0.441865
3.15712
0.0325773
0.0312924
0.0230288
3.20053
0.367771
0.0205245
0.0210668
0.0260767
0.0338188
0.309637
0.326757
0.0207141
0.0764776
0.379924
0.0221424
0.0208636
0.0215472
0.0230104
0.0210136
0.0219529
0.0206299
0.0384925
0.103154
0.0213377
0.0215096
0.0324587
0.0206609
0.0210795
0.0216772
0.377104
0.0205936
0.0227013
2.8883
0.155661
0.168548
0.0702129
0.0218731
0.0214736
0.0219578
0.0204148
0.0210715
0.0218721
0.0543931
0.0284265
0.0221786
0.025922
0.0203502
1.35023
0.0635482
0.0212106
0.419939
0.0207489
0.0226121
0.169859
2.87789
0.0237709
0.0234858
0.0235347
0.036148
0.0197122
3.35236
4.24744
0.0206232
0.0731342
0.388455
0.0213427
0.0223604
0.36523
0.0667648
0.0215628
0.423763
0.024239
0.0211777
0.666653
0.677984
0.322388
0.0207775
0.278165
0.0305117
0.0198251
0.050909
0.0295002
0.0215522
0.0402159
0.153344
0.42888
0.0338832
0.0343437
0.020608
3.94267
0.368418
0.176042
0.229586
0.0213463
0.168825
0.0213494
0.021021
0.0446194
0.0219819
0.0635327
0.384049
0.0215923
3.7275
1.20013
2.53399
0.0280433
0.0654551
0.01967
0.0218083
0.023261
0.0196456
1.26206
0.461634
3.51897
0.068332
0.10222
0.42912
2.84786
0.0211963
0.0223628
0.922363
0.0576568
0.0213548
0.0211325
0.0691377
0.0298611
0.02662
0.0212356
0.0214755
0.0480717
0.0211392
0.0852875
0.382156
0.0198365
3.08994
0.020202
2.4842
0.224001
3.36173
0.0222684
0.534585
0.0215288
0.0210689
0.0222121
2.94052
0.0370456
0.537519
0.0214696
0.0211321
0.236485
3.97936
0.0215854
0.107248
0.253869
4.31871
0.948272
0.0208555
0.0213783
0.406269
0.0196612
0.0202688
0.02418
0.0212226
0.0214678
0.0208265
0.021122
0.0240115
0.0211652
0.0292938
0.027019
0.0209075
1.43306
2.7968
0.0246185
0.0202734
0.0212862
0.028476
0.0213509
0.0212401
0.0213391
0.0930929
0.0211163
0.022526
0.0228845
0.0401208
0.42365
0.0209052
0.0343996
0.0366418
0.0264069
0.113736
0.0427349
0.0207427
0.0211897
0.0304235
0.0279509
0.0229202
0.595666
3.7838
0.0212917
1.51697
0.0219304
0.0700088
0.713856
0.0916918
2.2895
0.0226294
0.0210709
0.801668
0.0227446
0.99983
0.0242532
0.535965
2.59088
0.020663
0.0387803
0.0210691
0.0434919
0.0842847
2.36689
0.0209967
0.0213401
0.0906159
0.0217038
0.495567
0.0206413
0.409913
0.403248
0.0435978
3.66537
2.91938
0.0207616
0.0208923
0.0213409
0.0428791
0.342671
0.0217651
0.0225431
0.0217495
0.020283
0.0231805
0.0207829
0.0203999
0.0654473
0.0217269
0.0203687
0.0237478
2.79475
0.936941
2.40989
0.0215317
0.0531286
0.0226881
0.0250363
0.103932
0.226176
2.93639
0.0203326
0.0373774
0.0197032
0.0349144
0.0247825
0.0538981
0.540295
0.0217648
0.0837322
0.0202681
0.365877
0.264255
0.0204
0.0223746
0.0220455
0.022085
3.67471
0.0213201
0.0213533
0.0219809
0.0217085
0.0204449
0.022417
0.021297
0.0217521
0.0213456
0.0211044
1.00372
0.50347
3.68305
0.0200722
0.0197105
0.019765
0.0201223
0.0198915
0.032905
0.019831
0.0206081
0.0212464
0.0208502
0.0290472
0.0212535
0.156044
2.45652
0.0387465
0.783546
0.0215314
0.883862
0.0315275
0.223492
0.0205877
0.582611
0.0220379
0.0213462
0.0213618
0.057308
0.0911244
0.0209114
0.0373061
0.0263261
0.0211677
0.0350743
0.451862
0.0286896
0.0208898
0.0228101
0.607819
0.022256
0.547088
0.0209183
0.0219224
0.0213439
0.0224932
0.0289572
0.386043
0.0303214
0.0203673
1.49166
0.0346938
0.0262901
0.0210559
0.02393
3.96523
0.0207144
0.0217563
0.0279323
1.30337
0.0198169
0.0210177
0.0204574
0.0306763
0.021434
0.53953
0.0213661
0.025083
0.0286525
3.32656
0.0206323
0.0204219
0.0197131
0.0308185
0.0202669
2.79707
0.454696
0.029642
0.404394
0.0212753
1.5039
0.0213883
0.0205793
0.0341366
0.0573377
0.160047
0.329965
0.477486
1.37115
0.0261502
0.034503
0.0221102
0.092269
0.0213509
0.0218238
0.128089
0.0216704
0.428925
0.287205
0.288214
0.463014
0.329339
0.708335
0.487709
0.0716558
0.0219638
0.0308487
0.0213494
0.0203803
0.0210352
2.66779
2.99769
0.419742
0.0247931
0.0236847
0.427617
0.02093
0.0380091
0.0204185
0.0376028
0.0211978
0.0199118
0.0220131
0.039605
1.51732
0.0282847
0.0283123
0.020431
0.0321428
0.776996
0.0202749
0.0635065
3.95749
0.0196555
0.0541653
0.0205658
3.07171
0.0215854
3.9911
0.0217947
0.0215041
0.0252752
0.0330807
0.681946
0.0279491
0.374099
0.0226075
0.0213376
0.0213577
0.0215117
0.020356
0.021304
0.581548
3.23022
0.0274219
0.0210751
0.024608
0.0228996
0.021567
0.0214641
0.0826799
0.420056
0.294561
0.0211893
0.426496
0.0205543
0.0587494
0.0225867
0.039311
0.218748
0.379232
0.36832
0.0199368
0.0213067
0.0209448
0.0211546
0.021346
0.0211318
2.2163
0.0214738
0.0216564
0.021806
0.0335429
0.0211283
3.34147
2.76393
0.320778
0.0213725
1.24614
0.0203443
0.415759
1.35315
0.0220869
0.320267
0.02379
0.0597253
0.0207187
0.0215182
0.0277683
0.0496125
0.100462
0.541042
0.146105
0.126783
0.0312011
0.0221391
0.0212027
0.775766
0.0233218
0.771072
0.0219691
3.67301
0.343474
0.412062
0.0222904
0.736176
0.0236354
0.0210423
0.0201567
0.0226862
0.0631776
0.0212412
0.406285
0.0385677
0.103699
0.0210831
0.0245294
0.373511
0.396605
0.43371
0.0246961
0.0233692
3.20411
0.0983039
0.0217119
0.0458973
0.370622
0.0608882
0.150859
0.0254253
0.0267264
0.209321
0.0198615
0.289908
0.0468786
0.0213351
0.12902
0.437537
1.75957
0.0230084
0.110243
0.0318992
0.0204218
0.052585
0.0217746
0.213571
0.0204539
2.13222
2.74328
0.66642
0.381168
0.0975373
0.558416
0.0240827
0.0296408
0.388166
2.29718
0.0224851
0.0219121
0.0210185
0.0248594
0.019898
0.0210521
0.797378
0.0210458
0.020604
0.0293462
0.0219736
0.0198311
0.0377299
0.714314
0.0561337
0.0213015
0.0213524
0.0284629
0.0221871
0.0210457
0.0209481
0.0204018
0.131748
0.025318
0.0500033
0.0254435
0.0212142
0.0198966
0.215515
0.141699
0.0700395
0.0235263
0.021656
0.0362931
0.0209404
0.0269605
1.32948
0.221544
0.0246425
0.0232167
0.0202872
0.027832
0.510048
0.368724
0.421702
0.0249616
0.0203437
0.0205918
0.0244215
0.231265
2.19695
0.0204606
0.417925
0.019894
0.0210332
0.0870999
0.0208566
0.567962
0.0901707
0.418713
0.019814
0.0311003
0.0399979
2.75134
0.0203214
0.0214847
0.164039
0.484409
0.540622
0.517541
2.15563
0.0221916
0.179537
0.0251487
0.0303411
2.4869
0.022516
0.0209329
0.0215455
0.0200902
0.334792
3.69509
0.0243964
4.30408
0.0201424
0.0209437
0.0215056
0.121516
0.0294968
4.17396
0.0213903
0.0218597
0.0338547
1.88555
0.0203336
0.417651
0.020721
0.021935
2.1317
0.0208622
1.39792
0.435789
0.496116
4.3
0.021229
0.023469
0.0224733
2.67646
0.0321222
0.0213741
5.24307
0.0596533
0.019647
0.022573
0.655183
0.0204361
3.45783
2.47656
0.0247889
0.0197215
0.0238025
0.0246998
3.5596
0.0205663
0.0299706
0.0221412
1.84784
2.23617
0.0212287
0.0201925
0.156211
0.0250389
0.0214822
0.0210277
0.0208876
0.05285
0.0229466
1.37799
0.0217622
0.0216382
0.0208345
0.0224639
0.0225818
0.0224695
0.574437
0.38167
0.376834
0.0217836
0.0203228
0.554586
0.0252345
0.0607643
0.44739
0.0985429
0.404923
2.38445
0.0203113
0.78862
0.0743194
0.0222634
0.0208279
0.0213934
0.0213783
0.552013
0.304017
0.0213544
4.08528
0.897262
2.71191
0.0197601
0.020587
1.88982
0.0208925
0.0214618
0.0239202
0.0210251
0.857804
0.0226034
2.4909
0.413752
0.0208208
0.15067
0.0917969
2.69739
0.249874
0.0212808
0.0238045
0.0345747
4.01792
0.221957
0.0694934
0.0216903
0.021395
0.0812963
0.0204363
2.73643
0.718718
0.0209286
0.643912
0.0203923
2.8361
0.0215646
0.348546
0.0221706
0.616636
0.176526
2.85079
5.12871
0.0200773
1.30341
2.35861
0.0218356
2.29533
0.0217757
0.019973
0.0212082
0.0269056
0.0235815
0.0215216
0.0209828
0.119577
0.0406767
0.0483241
4.1939
0.0566244
0.0261855
0.0219653
0.0621626
0.020178
0.0914978
1.90007
0.269062
0.43657
0.0223281
0.0233691
0.0222536
0.0296006
0.0227549
0.0210659
3.71042
0.874449
2.5901
0.0215618
0.021532
0.0444219
0.211016
0.0217642
0.0204144
0.0221986
0.0224173
0.0400333
0.0212521
0.421404
0.0216975
2.43335
0.0205756
0.0938662
0.83859
0.392514
0.020084
0.0884888
0.0213541
0.0204017
0.0712968
0.859143
0.021
0.0220598
2.85318
0.0212904
0.0580261
0.513248
0.025431
0.629255
0.0214433
0.494025
0.0290588
0.470824
0.0203125
0.0205907
3.58408
0.0208179
0.323694
0.0239063
0.0293586
2.57092
0.0222508
0.0213942
0.0220934
0.021035
1.09913
2.46963
0.0204062
0.423916
0.0379919
0.170609
0.021215
0.0717982
0.197193
0.0268816
0.0284999
0.0213655
4.02854
0.0199996
2.25301
0.0203018
0.0206237
0.0235557
0.0215545
0.020669
0.0725804
0.0231467
0.0210084
0.31864
0.0204419
0.047699
0.0254126
0.768382
0.0345153
0.0206404
0.0313161
0.0209727
0.0209473
0.023708
2.19043
0.227011
0.332342
3.83024
0.0203886
0.0211086
0.0212246
0.0209014
0.0202278
2.33866
0.0198403
0.0231391
0.174373
0.0220311
0.220644
0.0214776
0.0203942
2.2199
0.306155
0.0215707
0.0442806
0.023954
0.193569
0.0210558
0.0225681
0.642666
0.021453
0.181449
0.168805
0.0220786
0.0221403
3.93305
0.0237139
0.0566716
2.12497
0.551871
0.0233728
0.0223582
0.0358381
3.90673
0.0218495
0.752004
0.383199
1.07699
2.61598
0.020407
0.0213699
0.0211602
0.228481
0.437118
0.204067
3.25345
0.0200672
1.35924
0.020462
4.04271
0.0211981
0.0397925
0.0979565
0.0219714
0.0219546
0.103932
0.0251973
0.0217294
0.0219526
0.0663068
0.0231861
0.0209226
1.17966
0.0217643
0.0217878
0.0210934
0.263863
0.0282208
0.395219
0.0281728
0.0230069
2.73297
0.024569
0.090797
0.0203871
0.0211707
3.85683
3.19804
0.427934
0.0215068
0.0234892
4.22968
0.0928016
0.0885848
0.150826
0.531825
0.660538
0.0203721
0.767149
0.0206382
0.0599158
0.362384
0.0925662
0.093438
0.022178
2.24166
0.070268
0.352382
0.0343902
0.0210559
0.0213393
0.0213163
0.72257
0.0205117
0.440043
0.0645541
0.409284
0.0202304
3.20948
3.8295
0.329072
0.379202
0.0221994
0.0216787
0.0210753
0.0249556
0.0213803
0.0240823
3.99839
0.021133
0.0222819
3.13706
0.331876
0.33385
0.0249275
0.031164
0.0207769
2.51934
0.0220236
3.28146
0.0413522
0.10034
0.0286717
0.092555
1.12402
0.0212774
0.0211807
4.80371
0.242927
0.0736664
0.133686
0.0454399
0.0208074
0.082831
0.0214158
0.0649367
0.0213807
0.0226064
0.389444
0.022036
0.0915506
0.0205507
3.89978
0.308991
0.0234877
0.0295323
2.23153
0.025342
0.020292
2.4035
3.8748
2.59982
0.0208892
0.0217309
0.968924
4.14306
5.33171
0.0214929
0.0226814
0.0215783
0.0259508
0.0217258
0.0206632
0.121747
0.0209323
2.91083
0.0231226
0.388502
0.0200821
4.21191
0.230602
0.0941127
3.37159
0.476052
0.0206139
0.0764099
0.497631
0.0208466
0.0216928
0.0213337
2.46104
4.48539
0.0214759
3.34337
0.0402625
0.0212359
2.19557
0.022863
0.0684086
2.54713
2.2009
0.0211062
2.25112
0.0225512
0.0202572
3.06014
0.0457982
0.361774
3.33463
0.0342781
2.85007
0.343032
0.0264708
0.144667
3.84742
3.05945
0.0220933
0.020033
0.0211136
0.0225006
0.351161
0.162328
2.95922
0.352326
0.0245532
0.020021
0.0208706
0.0235885
0.334722
0.0211953
0.429604
0.316668
0.0203762
0.0222532
3.17899
0.0616332
0.144829
3.19378
0.0213312
4.17797
0.375992
0.252681
0.0225381
0.0240071
0.163733
0.0213274
0.022604
0.0914443
0.0232802
0.114129
2.53105
0.0213443
0.0936215
1.16646
0.0504418
0.037221
0.332877
0.944299
3.47345
0.0213585
0.717246
3.7928
0.0428016
0.0220938
0.020524
0.0217465
0.0214002
1.11798
0.0224214
3.14987
0.0224377
0.0212382
2.80378
1.2376
0.0202823
0.0211237
0.420723
0.420552
0.0213829
0.0204884
0.025302
0.0256835
0.18484
0.0547918
0.0205511
0.0900747
0.0220045
0.436955
0.170052
0.42567
0.0212638
0.045238
2.2391
0.415045
0.022016
0.682647
0.473966
2.58718
0.0202235
0.0225365
2.24144
0.127007
0.0557222
2.71572
0.0214199
0.0857825
0.0226123
0.0551771
0.069514
0.800245
0.124803
0.0229859
0.0208968
0.0298541
0.385033
0.0213468
0.0305955
0.321749
0.156996
0.0206646
3.08565
1.38574
0.0601753
0.0225974
0.0215452
0.0215219
0.0247719
0.0416255
0.233638
0.0891883
0.020466
0.0212926
0.348758
0.195649
0.0214404
0.326718
0.551712
0.0224105
2.33991
3.80201
0.0202877
4.08509
3.90855
2.24747
2.39539
0.020751
0.317926
0.117142
0.0219247
0.0234323
3.89863
0.377277
2.84393
0.0239307
0.0212933
0.0252885
3.86654
0.0224697
1.93591
0.0197465
0.0216534
2.77936
0.388785
0.0338358
1.2921
0.0535496
0.0227324
0.270275
0.673165
0.217803
0.421532
0.0589208
0.0631954
0.0213276
0.0213101
0.0519638
3.30927
2.49856
0.8116
0.111666
0.308606
3.52002
0.0303022
0.020966
0.0217678
0.0601892
0.70048
0.0204714
0.0554914
0.395908
0.0882949
1.06732
0.13438
2.22194
0.0216669
0.0225118
0.423185
0.0240884
0.0217831
0.022399
0.353134
0.030098
0.0527325
0.0204108
0.0213021
0.363112
0.435554
0.0223259
0.785211
0.320124
0.0824095
0.0222652
0.412556
0.0210454
2.28182
0.100559
2.66591
0.0215338
0.163633
0.0200655
0.0213013
0.896265
2.47218
1.17353
0.0204014
0.253306
0.435292
0.311428
0.0930699
0.0399496
0.0224301
1.62338
0.167535
0.0212189
0.0209426
0.28696
0.635098
1.56323
0.0261787
2.18798
0.0203684
0.0217757
0.0701624
0.062697
0.021175
0.373557
0.0214204
0.0215222
0.0221145
0.0222069
0.450534
0.51066
0.019638
0.0846701
0.0208862
0.0331332
2.47474
0.0218351
0.942754
2.7285
0.190812
0.18546
0.0214752
2.36338
0.0223045
0.128769
0.0207384
0.117741
0.0326
0.0250848
0.0214654
0.106997
0.062168
0.157189
0.394394
0.0217982
0.0202726
0.333398
0.12136
0.0335159
3.32844
0.024077
3.22291
0.0214696
0.179776
0.113704
0.435379
0.0202803
0.616388
0.0552304
0.136634
0.0225186
0.0238248
0.0239799
0.0236126
0.0239205
0.0236091
0.0234505
0.0210472
0.0861316
2.25814
0.209926
0.0250843
0.0212018
2.85591
0.101493
0.021207
0.0584301
0.0232342
0.0227037
1.26179
0.374211
0.0202405
2.36835
0.021475
1.95114
0.17671
0.153951
0.0230833
0.0218977
0.0229904
0.0204443
0.0223855
0.348063
0.320855
0.0343354
0.426046
0.136812
0.0213577
0.0457262
0.346234
0.0215081
0.0239904
0.185458
0.0234271
0.0581438
0.0235244
0.0243323
0.0493853
1.68678
0.0908544
2.21576
0.0254979
0.200347
0.0628782
0.781237
0.0617004
0.0273501
0.0210519
0.0247136
0.140553
0.406597
3.87815
0.0209732
2.35586
0.428342
0.344802
0.1208
0.907003
2.20168
3.56091
0.019745
0.0948421
0.0241641
0.179276
0.47649
0.252433
0.021117
0.437518
0.0515593
0.113755
0.0210414
0.0665848
0.0229927
0.142238
0.0228077
0.0871852
0.161439
0.0256648
0.0208447
0.0217324
2.30812
0.0207658
0.130859
0.0652309
0.219528
0.0278038
0.445727
0.0732024
0.0212092
0.0207171
2.38179
0.0234243
0.0208475
0.0211436
0.354442
4.01005
0.108052
0.0213926
0.0357168
0.212297
0.412978
0.0463259
0.0209543
0.0577942
1.50341
0.0270317
0.0235767
0.0208037
4.33967
0.0206338
2.77959
0.341135
0.0468867
0.0812642
0.0410441
0.0203029
0.0226214
0.422814
0.0230498
0.0246589
0.0210946
0.0212884
3.62013
1.3682
0.126092
0.0205095
2.32651
0.0785403
0.335881
0.0212203
0.0266352
0.0248775
0.128654
0.0212524
0.0601259
0.409122
0.0931574
0.0249132
0.0208201
0.0267543
0.0269175
0.0484557
0.0202331
0.0216725
0.0215404
0.0215077
2.83136
2.11714
0.265605
0.0352816
0.0220653
0.0196671
0.25387
0.32306
0.287951
0.0242442
0.0867185
0.0213012
0.021738
0.0785214
0.0207266
1.44746
0.021783
3.70658
0.0201897
2.53979
0.0214434
0.332223
0.360727
0.104975
0.154906
0.0196654
2.80519
0.0203282
0.111093
0.657955
0.152528
0.0206047
0.258541
0.465239
0.0591523
0.10054
0.0274997
0.10114
0.0200828
0.03458
0.020406
0.355458
0.164949
2.96835
2.20004
0.0217066
0.326082
0.0209279
0.0210629
0.146063
0.0201406
0.0210256
0.0210862
0.0210144
0.192252
0.0223244
0.023294
0.0220056
0.0212909
0.0210669
0.0224677
0.0245328
0.0214516
0.031086
0.0348894
0.0228056
0.415645
0.0230838
0.0541773
0.503584
0.0414959
0.0517948
0.0861281
0.187647
0.0631921
0.230427
2.74155
0.759473
0.0203846
0.0208947
0.0237668
0.019905
0.0897122
0.0282766
0.0201912
2.29997
3.58071
0.396824
0.0373981
0.0551761
0.0420591
0.0213787
0.578928
0.0980648
0.0222089
0.2925
0.208232
0.0215586
0.328504
0.154653
0.376154
0.0517825
0.0618569
0.0496055
0.0206593
0.0198529
0.580935
1.96451
0.687407
0.0228665
0.0211066
0.465192
0.0346525
0.0231836
0.0198083
0.204807
0.0202629
0.0246155
0.0254088
0.0212898
0.0313094
2.48068
0.0208356