/*--------------------------------*- C++ -*----------------------------------*\
| =========                 |                                                 |
| \\      /  F ield         | OpenFOAM: The Open Source CFD Toolbox           |
|  \\    /   O peration     | Version:  v2012                                 |
|   \\  /    A nd           | Website:  www.openfoam.com                      |
|    \\/     M anipulation  |                                                 |
\*---------------------------------------------------------------------------*/
FoamFile
{
    version     2.0;
    format      ascii;
    class       volScalarField;
    location    "150";
    object      p;
}
// * * * * * * * * * * * * * * * * * * * * * * * * * * * * * * * * * * * * * //

dimensions      [0 2 -2 0 0 0 0];


internalField   nonuniform List<scalar> 
18758
(
0.00317899
-0.00172932
0.0038971
0.00304915
0.00861888
0.000713583
-0.00025948
-0.00422751
0.00854016
0.00853259
0.000390028
-0.0234464
0.0116639
-0.0131825
4.89239e-05
0.000893855
-0.0221291
6.70483e-05
7.73145e-05
0.00561228
-0.0241485
-0.0231122
0.000790116
0.00164891
-0.0210452
-0.0577532
-0.0737281
0.000480774
-0.0277561
-0.00904721
-0.0527075
-0.0624908
-0.00419016
-0.0126039
0.00873443
-0.0111173
0.0114331
0.00853396
-0.0823222
0.000774403
-0.020006
0.00866342
0.000171301
0.00445055
0.00195496
-0.0251867
0.00859959
-0.0253326
-0.0900362
0.00367082
2.461e-06
-0.0824427
0.00343699
0.00746625
-0.0362541
0.0115332
0.00385722
0.00534946
-0.0231993
0.0038487
0.00226018
0.00447326
-0.0497051
-0.00564681
0.00235775
-0.00903003
0.00401974
0.00268563
0.00255057
0.000108875
-0.0792573
-0.0634422
0.0018958
0.00714061
0.0225098
-0.0516975
-0.0250225
-0.0182668
0.00863248
0.00213484
-0.037685
-0.0710915
-0.0160908
0.0159334
0.00453295
-0.0392484
-0.0281307
0.00760602
-0.0539209
-0.0407519
-0.0551989
0.0014282
-0.0400116
-0.082387
0.00186263
0.00406355
0.000479147
-0.0265202
-0.0285868
0.00367998
-0.031082
0.0098346
0.00264552
0.00406621
-0.00784824
-0.0200298
-0.0263173
-0.0584578
-0.0285601
-0.0205448
0.000547444
-0.00684368
0.00596941
0.00403908
0.0102357
-0.0059728
-0.0255457
0.00374157
-0.0137379
0.00442689
0.0040966
-0.0274827
0.00448489
0.0040958
-0.164766
0.00751882
0.00441557
0.0041035
-0.0345777
-0.208107
-0.0245188
0.0034295
-0.00470954
-0.0159661
0.000659649
0.00408016
-0.0237619
0.00442577
-0.0180052
-0.0369704
0.00585952
-0.0267632
-0.0294393
-0.030084
-0.172119
-0.0406024
-0.00419834
-0.0329114
0.000282409
-0.0805527
-0.220818
-0.164182
-0.00732355
0.00826371
-0.0172811
-0.0575261
-0.0392187
-0.0355315
0.0173128
-0.0019028
-0.051609
0.00418567
-0.0786594
-0.00337972
0.00326278
0.00379886
0.00416742
-0.0756013
-0.212806
-0.0310576
-0.134752
0.00387609
-0.0284063
-0.000462087
-0.0340557
0.00452355
0.00171442
-0.0421304
-0.0161019
-0.0146178
0.00238831
0.00735715
-0.0365889
-0.0187202
-0.0912791
-0.0022329
-0.00866794
0.0099847
-0.0755354
0.0204432
-0.158559
-0.00212186
-0.00146039
-0.00309311
0.00174577
-0.0172061
-0.0186113
-0.00704913
-0.067741
0.00248458
0.00390789
-0.0385665
0.0253469
0.000856752
0.000515763
-0.0708314
0.0047741
0.00842361
-0.219377
-0.190947
0.00269913
-0.037983
0.00393158
0.00571972
0.00484425
0.000564506
0.000340423
-0.0385937
0.000785928
-0.0195987
-0.00178385
0.00399702
-0.0284915
-0.0388073
0.0249578
-0.00417947
0.0240116
-0.0442555
-0.0584767
0.00474774
-0.0591763
-0.0394142
-0.0302766
0.00411502
0.00265027
0.00398118
0.0208563
-0.107944
-0.0195045
-0.00320713
0.0003879
0.0199769
-0.0160081
0.00332314
-0.0899361
-0.0457276
0.00251451
0.00422677
0.00386217
0.00377555
-0.129608
0.00442832
-0.000988806
0.00397303
0.000507958
-0.0296948
0.00380834
-0.0660913
-3.87464e-05
-0.0309097
0.00610323
0.00413381
0.00246558
-0.00107428
0.00686801
0.00266838
0.00415276
-0.0183902
-0.00758727
0.00501892
-0.00836642
-0.0489795
0.00488447
0.00465336
0.00216074
0.00456706
-0.0110616
0.000754728
0.00576768
-0.0126544
0.00421273
0.00330932
-1.93355e-05
-0.00363475
-0.000170846
0.00463197
0.000242021
-0.0173931
0.00410525
0.00408244
0.00336276
-0.0139912
0.00385737
0.00328572
0.00313471
0.00389892
-0.00509729
0.00144817
0.00169412
-0.15924
-0.0202967
0.00387714
0.00382832
-0.0834928
0.00391939
0.0023401
0.00318494
-0.0181382
0.004453
0.0118422
-0.000114097
-0.011834
-0.0197666
-0.0142135
-0.0289051
-0.00790491
0.00254798
-0.0814009
-0.0420625
0.00391337
-0.0132834
0.0167709
-0.0698776
0.00312995
0.00259076
-0.198001
-0.00195739
0.00446313
-0.153496
0.0179661
0.00619735
-0.026366
0.00310289
0.00381507
-0.000124144
0.00402345
0.00457946
0.0038643
-0.00473119
0.00484541
0.00431201
-0.00416536
-0.0148451
-0.0924055
0.00440602
-0.0801775
-0.0295478
0.00444578
-0.0285317
0.00369093
-0.0265109
-0.0177747
-0.00726809
-0.00222669
-0.14425
-0.0337325
0.00946418
-0.00427763
0.00642889
0.00585944
0.00445451
-0.0205872
-0.0095123
-0.00905452
0.0256683
-0.0104863
0.00259698
-0.0225642
0.00752717
-0.0249199
-0.101552
-0.0077848
-0.0357003
0.0162236
-0.0204805
-0.00634176
0.000377612
-0.0111463
-0.034354
0.00214846
-0.00644193
0.00400533
0.00161912
-0.0252499
-0.0142482
-0.0150073
-0.0076003
-0.16079
-0.00355475
-0.0297108
-0.0201801
0.000782833
-0.0110637
0.0052984
0.00453657
0.00416109
0.00592924
-0.00338919
0.00333437
0.0034953
0.00376274
0.00310818
-0.044477
-0.0301072
-0.0398639
-0.0417287
-0.184172
-0.036731
-0.0316105
0.00387092
0.00153923
-0.0033474
-0.0106265
-0.00256201
-0.0247097
-0.0237899
-0.00207661
0.00383173
-0.0194878
0.00209065
-0.0204794
0.00209739
-0.0492683
-0.00557438
-0.0224934
0.00316572
-0.0303483
-0.0424695
-0.000242059
0.00452771
0.0025091
-0.0336744
0.00289933
0.00327711
0.00116648
-0.0310303
-0.00289011
0.00170214
-0.00261619
-0.0024493
-0.00811757
0.00469631
0.00111768
-0.00629099
0.00204994
0.0038577
-0.0453005
-0.00165122
-0.0419075
0.000983608
-0.00180183
0.00370502
-0.00641317
0.00381976
-0.00321955
-0.124393
0.00325368
0.00023219
-0.0218419
0.00713039
0.000827572
0.00368181
-0.000494717
0.0129131
-0.037491
-0.00760885
-0.0165107
-0.014891
-0.0437691
-0.0298328
-0.0428733
-0.0292583
0.00368454
-0.0303445
0.0187455
0.00689258
-0.00362424
-0.0236407
0.00461187
0.0059994
0.00380557
-0.000182974
0.00418621
-0.00156637
0.00418816
-0.00129132
0.0123263
0.00392265
0.00183435
-0.0446746
0.00324451
0.00365845
0.00105057
0.00707278
0.00502203
-0.0249684
0.00481321
0.000904207
0.000189459
-0.0288609
-0.0353142
-0.0385415
0.0157175
0.000322362
-0.00236059
-0.0390254
-0.0204744
0.00463043
0.00385208
0.000987297
-0.00287199
0.000178685
9.521e-05
-0.0756181
0.00458005
-0.0362867
0.00507295
0.0045067
-0.0154957
0.00424251
0.00440991
0.00117542
0.00128884
0.00470942
0.00190059
-0.0432399
0.00246344
0.000209108
-0.0190087
0.000181914
0.00245415
0.00396046
-0.0170184
0.00951403
0.00218141
0.00359952
0.024343
0.000374503
0.00689766
0.00430576
0.00378118
0.00386496
-0.00728019
-0.00721929
-0.125199
-0.100365
0.00419926
0.00468417
-0.0134412
-0.0698435
0.00215287
0.000507879
-0.00124958
0.00189845
0.00458243
0.00428914
0.00456619
0.00091439
-0.022825
0.00348941
0.000794916
0.0158876
-0.0396487
0.00606951
0.00440729
0.00416444
0.00371795
0.00120035
0.00439631
0.00191088
0.00235047
-0.0143493
-0.0348795
0.0041966
-0.0292149
0.0044068
0.00233951
-0.0386906
0.000225743
0.00130881
-0.0686674
0.00381625
-0.017379
0.0248326
0.00385986
-0.00145741
-0.0562936
0.00371124
0.0115053
0.00424794
0.0035136
0.00378836
0.0151016
-0.0010428
0.00948581
0.00445464
-0.0302557
-0.04228
-0.0242244
0.00426101
-0.159573
0.00168575
0.00271325
0.0031076
0.00403763
0.0128332
0.0134426
0.00394938
-0.0177579
0.00449221
-0.00845966
0.00149675
0.00187577
0.0025733
-0.0187467
-0.117733
-0.00567091
0.00663756
0.0044502
0.00386051
-0.021793
0.00350101
0.00447064
0.00220041
0.00437055
-0.0074281
0.00637843
0.00024066
-0.0592522
0.00690618
0.00742914
0.00322329
0.00419509
-0.00050546
-0.0214377
0.000991999
-0.026669
-0.17188
-0.130632
0.00258491
0.00119043
0.0169235
-0.0204658
0.00160373
0.00461691
0.00435229
0.00336366
-0.0271805
-0.000313295
-0.00761743
0.00453915
0.00419115
0.00455364
0.00521863
-0.0375004
-0.0287783
0.00569014
0.00460317
-0.0115637
0.00058242
-0.0119703
-0.0478649
0.00447337
-0.0229355
0.00461359
0.00444201
-0.0244699
-0.00158626
-0.00139739
0.00812687
-0.0011124
-0.0569424
0.00253052
-0.0141815
-0.177043
0.00933002
0.00394912
-0.0340459
-0.0182311
0.0181526
-0.0279706
-0.0133837
-0.00640382
-0.0449833
0.00251786
-0.0257186
-0.0289168
0.0039365
-0.0146995
-0.0256464
0.0114284
0.00757884
0.00471461
0.00181206
-0.00476937
0.00392105
0.00980773
0.0234135
0.00460065
-0.00747397
0.00730614
0.00505781
-0.0264128
0.00220158
0.00142876
6.31034e-05
0.00438888
-0.0859691
0.00418541
0.00585636
0.00087718
-0.0417713
-0.0477926
-0.00262595
0.00470226
-0.00321854
0.00426689
-0.0200934
-0.0211919
0.00481897
-0.00988123
0.00515244
0.00170544
-0.0713193
0.00218778
-0.00293057
-0.0412288
-0.0147648
-0.0686763
0.00232279
0.00624013
0.00718439
-0.00233424
-0.0220351
-0.00120509
-0.0134868
0.00191451
0.00228698
0.00391121
-0.0211566
0.00441976
-0.00669685
-0.0433279
-0.00320117
0.000406605
0.00252237
-0.00315802
0.00424072
-0.0024976
-0.016407
-0.0711792
0.00405611
0.00422852
0.00392172
-0.00884341
0.0156339
0.0071354
0.00421046
0.00251698
-0.00633295
0.00482538
-0.0298909
-0.023878
0.00178925
-0.0277697
-0.0063649
0.00193363
0.00323272
-0.00279873
-0.00409199
0.00181171
0.00371609
-0.0215515
0.00518225
-0.0229934
-0.00146849
-0.00841955
0.00364006
-0.0212957
-0.0269529
0.0119878
-0.0245983
0.00148621
0.00510643
-0.0200337
0.00250594
0.017891
0.00379535
0.00390402
0.00637881
-0.0967963
-0.00130154
0.0040601
0.000597586
-0.00105996
0.0024463
0.00453368
0.00184121
0.00386041
-0.0242017
9.40156e-05
-0.00156316
-0.0193229
0.00427324
-0.051868
0.00722277
-0.00960868
-0.0604926
-0.0315051
-0.0747131
0.00157362
0.00388649
0.00516005
0.00402845
0.00191939
0.00384378
0.00372841
-0.00487227
-0.00683577
-0.0356356
-0.00375369
0.00405945
0.00366
-4.55567e-05
0.00366892
-0.00214074
0.00272361
0.0056901
0.00368885
-0.0891024
0.00471719
-0.0594911
0.00403046
-0.0272692
-0.0327692
0.00389285
-0.103193
-0.0219346
0.00365538
0.00208264
0.000728368
-0.0161613
-0.000692938
0.00285647
-0.013415
-0.0302029
0.00136972
-0.000167162
-0.00582852
-0.000266149
0.00243937
-0.00048221
0.00514142
0.000166475
0.00725273
-0.0122351
0.00134278
-0.000504601
-0.0738044
-0.0945742
0.000261213
-0.0274682
-0.0307677
0.00516826
0.00389603
0.00402679
0.000193426
0.00556412
0.00514718
0.00365134
-0.00687376
0.00707606
-0.00200717
-0.0471355
-0.0101804
0.00365734
0.00517739
-0.0778607
-0.00673329
0.00280824
-0.00352171
0.00172766
-0.0152273
-0.0207348
-0.00177114
0.00393719
0.00420589
0.00618508
-0.039522
0.00371202
-0.0359625
-0.00254062
-0.0291194
-0.0209562
-0.00107048
0.0118827
0.00251651
0.000297949
-0.0144986
0.00495016
-0.0351774
-0.0289497
0.00560298
-0.0506654
-0.06727
0.00245178
-0.0265903
0.0028061
-0.000307047
-0.00769492
0.0067679
0.00393831
0.00443704
0.00226169
0.00458263
-0.0279885
0.00430398
0.00199085
0.0039705
-0.044223
0.00523127
0.00388814
-0.0112106
0.0265735
-0.0168165
-0.026458
-0.0432118
0.00446963
0.00205682
-0.0019285
-0.0163478
0.0041001
0.00453721
-0.0133206
0.00367534
-0.0272058
-0.00162671
-0.00476372
0.00969596
0.00208808
-0.0438564
-0.0388691
0.00200179
0.00140865
-0.0381151
0.00470967
-0.186107
-0.0851864
0.00418412
-0.00313226
0.0119959
0.00419557
-0.0140427
-0.0182045
0.0016094
-0.036145
-0.000299552
0.00507584
0.000204452
0.00208472
0.00689028
-0.0603879
-0.000461935
0.00299037
0.00602644
-0.0146872
-0.0390001
0.00576831
0.0048737
-0.114126
0.0237152
0.00155809
-0.119558
0.0040915
-0.0701539
-0.0687327
0.00399536
0.00388716
-0.00144302
-0.0246221
0.00441108
-0.0075974
0.0042982
0.00830478
-0.038593
0.00373487
0.00165891
0.00132524
-0.0442836
-0.0282295
0.00451372
-0.0398227
0.00322832
0.00185379
-0.0420263
-0.000968999
-0.0329319
0.00439301
-0.011227
0.00316831
0.00442427
0.0029348
0.00443534
0.00681342
0.00577542
0.0101538
-0.0117225
0.00601362
0.000151848
-0.0249145
-0.000637848
-0.0571511
-0.00124325
-0.0201582
-0.0179204
-0.00392354
0.00382957
0.00387647
0.00218926
-0.0519028
0.00124919
-0.0469543
0.0202509
-0.00154289
-0.0257713
-0.000562873
0.00417313
0.00609846
0.00452759
-0.0213721
0.00461115
0.00401389
0.00399974
-0.0138799
0.00107129
-0.0372395
0.00448822
0.00387058
0.00389804
0.00583517
0.0021798
0.0038696
0.00300467
0.00146505
0.00370758
0.00378825
-0.0322187
-0.0356776
0.00346855
0.00369046
0.0186402
0.006427
-0.0935145
0.00298427
-0.00549349
-0.0608893
0.00379387
0.00379329
0.00379322
-0.00159641
0.00646166
0.00376509
-0.0154832
-0.00534413
0.00396423
0.0203747
-0.0205614
-0.123236
0.009792
-0.0044636
-0.00362863
-0.0430238
0.00365655
0.00354049
-0.0183327
0.00475892
0.00366064
0.00379371
-0.150836
-0.0227262
0.00398059
0.00403087
-0.0119921
0.00363472
-0.00326258
-0.0221352
0.0041293
0.00997362
0.00417935
-0.00697007
0.0051553
-0.050412
-0.00997899
-8.79838e-05
-0.0321913
0.00163415
0.00363391
0.00300121
-0.00882558
0.00389503
-0.0132668
-0.0324467
-0.040387
-0.0134836
-0.0118523
-0.00595059
0.00392886
-0.0108793
-0.0381412
0.00403116
-0.0129494
0.00346982
-0.00369645
-0.0090413
0.00633578
0.0240119
0.0170016
0.00356369
0.00386839
0.0153424
0.00424211
-0.00522577
0.00377399
0.00328716
0.00372434
-0.022099
0.00552339
-0.0141257
-0.0106961
0.00330456
0.00365282
-0.0144433
0.00593801
0.00338097
0.0144573
0.00580898
0.00394178
-0.0251774
0.00437974
0.00963266
0.00286624
0.00400921
-0.00271656
0.00435929
-0.0229918
0.00826966
-0.0543439
0.00148611
-0.0952077
0.00584223
-0.0846406
-0.0610802
-0.0191818
-0.0383443
-0.0878486
0.00858997
0.000998876
-0.0276256
0.00983019
9.43404e-05
0.00236789
0.00462934
0.0150756
0.00390916
0.00290297
0.0036889
-0.0685204
-0.095328
-0.0329522
-0.0345299
-0.0358821
0.0060788
0.00582561
-0.00033614
-0.0578572
-0.0390055
0.000510495
-0.0103603
-0.0383454
-0.135623
-0.17274
-0.00216347
0.0138983
0.00212151
-0.188429
-0.0096487
-0.0142367
-0.01217
0.00976562
-0.0353151
-0.0291311
-0.00294249
0.00178612
-0.0311891
0.00107903
-0.0330028
0.00561929
0.00381536
0.00630888
-0.00638322
-0.00109685
-0.0144143
-0.00554736
-0.0261029
0.00270367
0.00427362
0.00357341
0.0222525
-0.137731
0.00211388
0.0095703
-0.0548243
-0.0135327
0.000683682
-0.0331908
-0.035794
0.00268703
-0.000543046
-0.000130211
0.0038851
0.00437665
-0.0755117
0.00566226
0.0039394
-0.0254154
-0.0229451
-0.0176764
0.000418512
-0.000625666
-0.00433765
0.00481987
0.00444347
0.00404392
0.00317602
0.00402674
-0.0360402
0.00412659
0.00421095
-0.0339146
0.00444438
0.00341312
0.00356726
0.00173632
-0.0097319
0.00416013
0.00405291
-0.0045824
-0.0387665
0.00453825
-0.00462941
-0.0369963
-0.0361952
-0.016533
-0.00510093
0.00420811
0.00399168
-0.0510447
-0.0112013
0.00398763
-0.00738538
-0.00166622
-0.0907511
0.000147841
0.00410867
0.00416476
0.00451563
0.00519201
0.00268188
0.00612355
0.00587939
-0.00124794
0.00193243
0.00130238
-0.0195224
0.00433836
0.00416047
0.00396868
-0.0132013
-0.0687086
-0.0394772
-0.0117684
-0.0406854
0.0182562
-0.0610608
0.00461074
0.00962552
-0.0225097
-0.137014
0.00391783
0.00853565
0.00144227
-0.0397714
0.00184576
-0.0247188
0.00333889
-0.000432971
0.000744748
-0.0283333
-0.00643864
-0.0834027
-0.00633267
0.000282711
0.00377118
0.00360001
0.00664491
-0.00189804
-0.0587757
-0.0137203
0.00634624
0.00600523
0.00245552
0.0024841
-0.0712335
0.0277962
0.00199237
0.0037374
-0.0266571
0.00358999
-0.00195747
0.00396122
0.0051618
-0.00424971
0.00408435
0.00419491
-0.00125674
-0.0168739
-0.00729346
-0.00110423
-0.00777571
-0.0307841
0.00447263
-0.024841
-0.00808706
-0.0366177
0.00117166
0.00435009
0.00995718
0.00570455
-0.116621
0.00463403
0.0108081
0.000972555
0.00135895
0.00403595
0.00329838
0.0200442
0.000534555
-0.0173685
0.0185474
0.00402879
0.00452551
-0.00578554
-0.0273414
0.00156569
-0.0307398
-0.0497788
-0.0374897
0.0170397
0.00387358
0.000550249
-0.180603
0.00670446
0.00369639
0.0029014
-0.0349128
0.00417651
0.00424349
-0.0989985
-0.0193689
0.00571838
0.00611231
0.00389718
-0.0765693
-0.022864
-0.18536
-0.0099582
0.000210682
0.00433546
0.00690226
-0.000458284
0.00417692
-0.00934893
0.00420845
0.00401376
0.00383921
0.00565426
-0.0347253
0.0019187
-0.220582
-0.012726
-0.0243525
-0.0377553
0.00851998
0.00393661
-0.047717
-0.0104286
0.00384611
-0.0216985
0.00372379
-0.0385105
-0.0230656
0.0045168
0.00434728
0.00745692
0.00807271
-0.00493733
0.00355133
0.00285182
-0.0145235
0.00574853
0.00221455
0.000481086
0.0058524
0.000743304
-0.000634731
0.00396309
0.00171917
-0.00781834
-0.0336111
0.00401852
0.00444042
0.00919299
-0.0358493
0.00195306
-0.047513
0.0112085
-0.0237573
0.00418294
0.00307781
-0.0781221
0.00598714
-0.00352093
-0.0240224
0.00427705
0.00430051
-0.0124391
0.00320917
-0.0124687
-0.0282278
-0.0648129
-0.000607948
0.00316062
-0.00106339
0.00394745
0.000262625
-0.005743
0.0137953
0.00249234
0.00267724
-0.0254712
0.00407614
-0.0047607
0.000137538
-0.0416066
-0.1291
0.00620635
0.00662037
-0.0172245
-0.0144078
-0.0313377
0.00385923
0.00431152
-0.0166927
-0.0251741
-0.012163
-0.00713543
0.00387509
0.00195918
-0.0344615
0.00393705
0.00360576
-0.00564088
0.00534538
0.00423317
-0.00177017
0.00425804
0.00715487
0.00305508
0.00194319
0.000685266
-0.0125707
0.00426344
0.00429527
0.00398245
-0.0250972
0.00418476
0.00447187
-0.0392301
-0.0406968
0.016388
-0.0354089
0.00430468
0.00372935
0.0044471
0.00401865
0.00181722
0.00389976
0.0051055
0.00414771
-0.0049926
0.00470982
0.00370662
-0.0231442
0.0118257
0.00359117
-0.0394575
0.004458
-0.0117407
-0.0375506
-0.117631
0.00776737
-0.0100568
-0.0235264
0.00675294
0.00180449
-0.0778876
-0.0117764
0.00418597
-0.0236403
-0.029011
0.00292387
-0.00538216
-0.0245545
-0.0213501
-0.00214488
-0.00401531
-0.0196064
0.00122405
-0.00305539
-0.0264531
-0.0012986
0.00390432
-0.0262533
0.0127691
0.00225831
-0.00165058
-0.00927378
0.00391118
0.00845428
-0.0240425
-0.0121184
0.010253
0.00637758
0.00417285
-0.0167438
-0.0157789
-0.0461889
-0.0528783
0.00322566
0.00883295
0.00351306
0.00411581
-0.021674
-0.00215645
0.00345959
-0.0236459
-0.00492321
-0.0130597
0.00984555
-0.070871
-0.0145649
-0.0145398
0.0015972
0.00424607
-0.0123334
0.00137319
-0.0639657
-0.0283414
-0.00727221
0.00407141
0.0194659
-0.0189
-0.115077
0.00464878
0.00385518
-0.00948978
-0.0206891
0.00378502
0.00232861
0.0123347
0.00537805
-0.00319385
-1.85802e-05
-0.000244318
0.00608526
0.00280428
0.0230094
-0.020447
0.000961888
-0.0322209
0.0015859
-0.0125636
-0.0542678
-0.077943
0.00564962
-0.023747
0.00389843
0.00451044
-0.00551364
-0.139623
-0.000381412
0.00157482
0.00305894
0.00301318
0.0273483
-0.0147636
-0.00467162
-0.0350556
-0.0541322
-0.0157166
-0.0374801
0.00428761
0.00393958
-0.00864922
0.00148528
0.00145696
-0.00453129
0.00372911
0.00403453
0.00431101
0.00219371
-0.0161745
0.00062844
0.00906715
0.00607507
0.00373119
0.00591523
-0.139578
0.00149671
0.00388926
-0.00103288
0.00508997
-0.0021061
-0.000256343
0.00161121
-0.0429082
0.00501283
0.0038621
-0.000102323
0.00371193
-0.0138427
0.00448988
0.00499383
0.00697569
-0.00150203
0.0165164
0.00365193
0.00433268
0.00156468
0.00460054
0.00434792
0.00111822
0.0101161
-0.0181296
-0.00114352
-0.0367248
0.00416238
0.00785651
0.00866596
0.00761377
-0.088335
0.00508301
0.00174862
-0.0302076
0.00573333
-0.0913542
0.00405713
-0.0162076
-0.00798219
0.00385888
-0.032113
0.00348554
0.00325331
-0.0102572
-0.0753589
0.00409426
0.00261096
0.0241735
0.00539865
-0.032342
0.00387372
-0.0127239
-0.0215806
-0.020459
-0.0470516
-0.148269
0.00447818
0.00444155
-0.000823149
0.00650409
-0.00531994
-0.00296141
-0.000372828
0.00200165
0.00390275
0.00414811
0.00449173
0.00407142
0.0114711
-0.00573075
0.00403082
0.00773443
-0.106516
-0.00152182
-0.070431
-0.00534418
0.00797624
0.00409859
-0.0272428
-0.0413524
0.0127943
-0.142076
0.00124047
0.010268
0.00195316
-0.0215998
0.00419653
-0.0188239
-0.0159779
0.00403483
0.00332277
0.00361202
-0.00464041
-0.00495265
0.00406991
-0.00391858
0.00399204
0.00407408
-0.170116
0.00223369
0.00074886
-0.012394
0.0053276
0.00250138
-0.00445867
-0.00119664
0.00598606
-0.00189482
0.00157376
-0.0853466
-0.035313
-0.0410127
0.00333842
0.00182532
0.00203295
0.00281839
0.00275924
0.0132367
0.00266276
0.00419854
-0.000254635
0.00374386
-0.0201418
-0.000609171
0.0210944
-0.0505786
-0.0272127
-0.00974371
-0.00448136
-0.0636577
0.00532292
-0.0311108
0.00389816
-0.0161164
-0.00121961
-0.000713836
0.00310543
0.00696845
-0.0242954
0.00360179
0.00322101
0.00898923
0.00249962
0.00725601
-0.0437509
0.0116434
0.00440271
0.00579817
0.0282628
0.00378571
-0.0317187
0.00363156
0.00591017
0.000616707
0.00394185
0.00933081
-0.0338898
0.0122841
0.00398758
-0.0258507
0.00359548
0.00466388
0.00194231
0.00447275
-0.0142363
0.00394276
-0.00950648
0.00358992
-0.0511375
0.000547866
0.00491947
0.00403182
0.011966
0.00443762
-0.0461348
0.00339995
-0.028119
-0.00918219
-0.00946355
0.00434332
0.00410014
0.00194452
-0.0115942
0.00388321
-0.104695
0.00542112
0.0112694
-0.0105589
-0.000900885
-0.0302285
0.00237861
0.0041747
0.00673053
0.0146919
-0.0418262
-0.00495086
-0.0623219
-0.0422462
0.00619178
-0.0204959
0.00295473
0.00201138
0.00179524
0.00368016
0.0172046
-0.00549141
-0.0165387
-0.00137849
-0.000420065
-0.0306986
-0.00363518
0.00822713
-0.0139542
-0.0339493
0.00395138
0.00494937
-0.000107002
0.00399632
0.00336877
-0.0483829
-0.0928541
-0.0152913
0.00193346
-0.00158875
-0.00984446
0.00351969
0.0037964
0.00409675
-0.00489916
7.28569e-05
0.00299082
0.00401196
-0.0328052
-0.0413436
0.0110215
-0.0128021
0.00402798
0.00380018
-0.0534605
0.00364164
0.0210901
-0.0128429
0.00145028
-0.041784
0.00416174
-0.123778
0.00395189
-0.0252659
0.00229346
-0.0029352
0.00849085
0.00687791
-0.00393257
0.00368989
-0.00481491
-0.0178648
0.00227479
0.00279577
-0.00122347
0.00397165
-0.00129636
-0.00583324
-0.0288676
0.00602905
0.00416808
0.00810364
0.00579195
-0.00704561
0.0031129
-0.0234015
-0.0185289
-0.000350453
0.00520808
-0.00602563
0.00420388
-0.0352813
-0.0160387
-0.0284335
-0.0498922
-0.0229693
-0.0215407
0.00309631
0.00237781
0.00315197
0.00234499
0.000259604
0.0020802
-0.0522853
0.00330432
0.00445621
-0.000928984
0.0138932
0.00096832
-0.134952
-0.0225483
-0.00936251
0.00368027
-0.07179
0.00396313
-0.0270867
0.0174515
0.00451815
-0.00741697
-0.0191918
-0.0339148
0.00431918
0.00370343
-0.0247858
0.018747
-0.0234393
-0.0116007
-0.031806
-0.0352263
0.00970559
-0.00897986
0.00418584
-0.0359327
-0.0130503
-0.0710312
0.00472408
-0.0163984
-0.0233706
-0.0359013
-0.00379048
-0.0145816
-0.00618013
0.00105623
0.00352448
0.000315358
-0.0305677
-0.00033584
-0.0311321
0.00839521
-0.025451
0.00154971
0.00802301
-0.0559144
-0.0179779
-0.0330824
-0.0152307
0.00422545
-0.0888908
-0.000387666
-0.00581408
0.0169847
-0.0259962
-0.0299957
0.0225979
-0.00773948
5.68874e-05
-0.0521088
0.00248855
-0.000855111
-0.033643
-3.96962e-05
0.00297754
-0.0330656
-0.0035851
0.00383384
-0.0347849
0.00337531
0.00410076
-0.0174641
0.00360941
-0.0435164
0.00120493
-0.0155155
-0.0987269
0.00298677
-0.0234077
-0.0365197
-0.00693366
-0.0171229
0.00444981
-0.0171485
-0.0387013
-0.0147806
0.00637796
0.00431088
0.0081441
0.00268904
0.0022365
-0.0030811
0.00340699
0.00431629
0.00864895
0.00640242
0.00266735
0.00379696
-0.0284836
-0.0459484
0.00375923
0.00145463
-0.0195915
0.0030638
0.00320264
0.00324371
0.00407763
-0.00993383
-0.0154292
0.00969928
0.00745336
0.00336767
0.00294079
-0.0445045
-0.0377563
0.00505162
0.00421737
-0.005642
-0.00808188
0.0034744
-0.0313129
0.0108983
0.0148128
0.00439683
-0.0224781
0.00362761
0.000915265
-0.031485
-0.0307269
-0.0200546
-0.0148436
0.00366416
0.00419563
-0.0146626
0.0179804
-0.0511408
0.00405694
0.000170743
0.00293154
0.00327521
-0.00798542
0.00432673
-0.0376591
-0.0101266
0.00366439
0.00226313
0.00924261
-0.0264066
-0.0717249
0.0036428
0.00446161
-0.0379636
-0.0143661
-0.0279498
-0.00963205
-0.0321234
0.00655405
-0.0317412
-0.012335
0.00148833
-0.0508864
0.0039975
0.00411163
-0.0065568
0.00343008
-0.0243923
-0.00949311
-0.00102138
-0.0149534
0.00350469
0.00415528
-0.00376047
-0.0148822
0.00451031
-0.00721206
-0.00221794
-0.00323268
-0.00250467
-0.078356
0.00394685
-0.018594
0.0036988
0.00384392
-0.0197395
0.00365904
0.0127671
0.00728609
-0.0246817
-0.0196142
0.00394678
-0.0210455
0.00405246
-0.13346
0.00639461
0.00252391
-0.216211
0.00457967
0.00133391
-0.0153622
-0.00638699
0.00411748
-0.163453
-0.0573596
-0.0120416
0.00200235
-0.000371517
0.00838847
-0.00805055
0.00420077
0.00920826
0.00557084
-0.0872333
-0.0585632
-7.20435e-06
0.0035663
-0.0384922
0.00578508
-0.00447281
0.00494789
0.00346219
-0.0209375
-0.0138029
0.00425814
0.00318394
0.00389365
0.00371678
-0.000215633
0.00417536
0.00572117
0.00844686
-0.00403863
-0.0242913
-0.00995482
0.00393729
-0.0254828
0.00831247
-0.0347326
-0.0240398
-0.034961
-0.033041
-0.0525183
0.00395733
-0.0384418
0.00310294
-0.00804759
0.00434556
-0.00216764
-0.00217555
-0.00615635
-0.00545265
0.000405796
-0.0180624
-0.0187707
-0.0411505
0.00204488
0.00428966
-0.0897758
0.00347629
-0.000474221
-0.000456251
0.00420286
-0.0523891
0.00128075
-0.0533169
-0.0130423
0.0041208
0.0249292
0.0145156
-0.100591
-0.00232544
-0.000994739
0.00141583
0.00987506
-0.0206734
-0.00308892
0.0034
0.00143187
-0.0024743
-0.0255758
0.00411751
-0.0958435
-0.0557979
0.00359118
-0.0354979
0.00401287
-0.131071
0.00422654
-0.000879791
-0.00632119
-0.00701437
-0.0027941
-0.0672432
-0.215798
0.00340973
-0.0712907
-0.0600816
-0.00286292
-0.0679548
-0.00582166
0.00324052
0.00380327
-0.0015534
-0.000961748
-0.00533152
0.00371924
0.0119027
-0.024179
-0.00205413
-0.0209593
-0.0142166
0.00889717
0.00575669
0.00610635
0.00354896
-0.0421285
-0.0838163
0.0163058
-0.0217222
0.00567228
-0.0234196
-0.00467606
0.00387885
-0.00212743
0.00172768
-0.174453
-0.0412064
-0.0293623
0.00175808
-0.00600424
-0.0183125
0.0168936
0.00446133
0.00408969
0.00565254
0.000226018
-0.0229019
0.00107092
-0.0101689
-0.010164
-0.0673479
0.00427987
0.00337191
-0.0114576
-0.0314254
0.00334411
-0.0466705
0.00246692
0.0040009
-0.0106241
-0.0243
0.00417885
-0.0124891
-0.0631854
0.00233668
-0.0117697
-0.0111875
0.00767175
-0.00448259
-0.000420163
-0.0277001
-0.0129435
-0.0557429
0.00392215
0.00137163
-0.0484253
0.00435197
-0.00539086
0.000786573
0.00134495
-0.08025
-0.00327303
-0.00252365
-0.00974135
0.00327065
0.013575
-0.071823
0.00402247
-0.00592551
0.00401117
0.0135661
0.00430042
0.00356346
0.00152513
-0.0040942
-0.0236561
-0.00216583
-0.0151893
0.00332556
-0.0494851
0.00391313
0.00369504
-0.0054258
-0.00659865
0.00415413
0.019395
-0.0101161
0.00406082
-0.00928996
0.00402335
0.011905
-0.0182944
-0.0569153
0.00347678
0.00391657
0.0116895
0.0038424
0.00307625
0.000190453
-0.0191078
0.00145151
-0.0105274
-0.0209995
0.00406277
0.00504449
0.00525586
0.00364251
0.00378668
-0.0917995
0.00260904
0.00580302
-0.0305197
0.00495609
-0.0480899
-0.00124834
0.00407131
-0.0429324
0.0184135
-0.00693859
-0.0418279
-4.44429e-05
0.0088143
0.00292883
-0.000160189
0.00285074
0.00504377
0.00250156
-0.0356617
-0.0130011
-0.00580813
-0.0203744
0.00385603
-0.0103046
-0.0237111
-0.00168027
-0.00524086
0.00407016
0.00946781
-0.021326
0.00628163
-0.0625277
-0.0231349
0.0105158
-0.0626731
0.00352232
-0.00194711
0.0012589
0.000275471
0.00587689
-0.00575117
-0.110931
0.00331675
0.00662438
0.00356748
-0.0191521
0.00331439
0.000835825
-0.0257028
0.00556309
0.00645122
-0.0429939
-0.00907241
-0.0047263
-0.0127425
0.0064693
-0.00757
0.00400297
0.0165821
-0.000900104
-0.00618003
0.00502813
-0.0272434
0.00352652
-0.0343888
0.00318888
-0.00978864
-0.0599214
0.000600334
0.00352857
0.00399301
0.00102268
-0.00392844
-0.153572
0.00408444
0.00417486
0.00358386
-0.0225787
0.00194435
-0.0246189
0.0032854
0.00266262
0.00224715
0.00404233
0.00697434
0.00406317
-0.028899
-0.0127363
-0.0403385
-0.0410547
-0.000158696
-0.0783312
-0.00904787
0.00120504
0.00590829
0.00323607
-0.00176652
0.00112347
-0.0307923
0.00417099
-0.00836823
-0.0267032
-0.0292642
0.00378494
-0.0535751
-0.00753835
-0.00498595
-0.0346022
-0.00783779
-0.0097028
0.00382899
0.00821919
-0.00208287
0.00690386
-0.0118191
0.00256238
-0.00570258
-0.118562
-0.00329604
-0.00490338
0.00527652
0.00467011
0.00440122
-0.113197
0.00446629
-0.0180837
-0.0221355
0.00419266
0.0104966
-0.045416
-0.00341082
-0.000950624
0.000785281
-0.209278
0.00139975
0.0117118
-0.0362254
-0.0195975
0.00442783
0.0235206
-0.00242778
0.00501728
-0.00213829
-0.0191365
-0.0342334
-0.00933171
-0.0443701
0.00416145
-0.00414479
-0.0292014
0.00405134
-0.000732427
-0.0627713
0.00835023
0.00389722
-0.0598717
-0.00603996
-0.122371
0.00340374
0.00147018
-0.0819272
-0.00687486
-0.216324
-0.00221068
0.00682579
-0.0071662
-0.00220609
-0.0027989
0.00413802
-0.00816254
0.00404489
-0.08977
0.00281888
-0.0077997
0.00332315
-0.00865886
-0.018818
-0.0363546
-0.0185847
0.00559784
0.00432896
-0.0108901
-0.0075964
0.00368221
-0.0045927
0.00395684
-0.08025
-0.206164
-0.00411878
-0.161586
0.0048429
-0.000269356
-0.0556534
-0.0141234
-0.0114295
-0.0886574
-0.0693101
0.000278343
-0.0499092
0.00390564
0.003621
-0.142622
0.0125696
-0.0226884
-0.0886053
0.00404717
-0.0476723
-0.00128547
0.000942802
-0.0199559
-0.0106233
-0.10698
-0.0119628
0.00332442
0.00206499
-0.00454955
-0.0113048
0.0233236
-0.096535
-0.00578153
-0.0274412
0.00329952
0.00293181
0.001249
-0.0033983
0.000124738
-0.0320237
-0.00663634
0.00405019
-0.00709181
-0.149965
-0.0120101
0.0248384
-0.0715491
-0.00172577
-0.198419
-0.0222554
-0.0250117
-0.013357
3.6608e-05
0.0027478
0.000959572
-2.1201e-05
-0.0354806
0.00259145
0.00362478
-0.00217589
0.00368463
-0.0219876
-0.00596507
-0.017023
-0.0341631
-0.00518435
-0.0554147
-0.0518666
-0.00215429
0.00529583
-0.00401555
-0.0179376
-0.00792917
0.00417168
-0.00360773
0.00380662
-0.0140995
-0.00125185
-0.112335
-0.00111925
0.00111077
-0.155392
-0.0553409
0.00388725
0.00184645
-0.00122392
-0.0213534
-0.00266217
0.00388588
0.00356549
-0.0119223
-0.0478177
-0.0469893
0.00418576
-0.0363653
-0.00141432
-0.0297082
0.00271058
-0.0280213
0.00213815
0.00325144
-0.0383004
-0.03182
0.0064839
-0.0322902
-0.0259638
-0.0211923
0.00338792
-0.00513173
-0.0538274
-0.0363843
0.00709484
-0.0828523