/*--------------------------------*- C++ -*----------------------------------*\
| =========                 |                                                 |
| \\      /  F ield         | OpenFOAM: The Open Source CFD Toolbox           |
|  \\    /   O peration     | Version:  v2012                                 |
|   \\  /    A nd           | Website:  www.openfoam.com                      |
|    \\/     M anipulation  |                                                 |
\*---------------------------------------------------------------------------*/
FoamFile
{
    version     2.0;
    format      ascii;
    class       volScalarField;
    location    "1000";
    object      p;
}
// * * * * * * * * * * * * * * * * * * * * * * * * * * * * * * * * * * * * * //

dimensions      [0 2 -2 0 0 0 0];


internalField   nonuniform List<scalar> 
18355
(
0.0414692
0.00300457
-0.0248627
-0.00129636
0.00305629
-0.000232019
0.00391965
0.00347403
0.00245632
0.00361696
0.0027026
-0.0855492
-0.0868686
-0.00756063
0.00224687
0.00296325
-0.00118218
0.00379139
0.0174388
0.00423246
-0.0345085
-0.00942975
0.00283052
0.00192792
0.00281066
0.00432046
0.00394594
-0.00106514
0.00238117
0.00332786
-0.0257515
0.00648539
0.0030997
0.00278618
0.000203437
0.0039734
-0.0250407
0.00412577
0.00366092
-0.0013528
-0.00716249
0.00308827
0.00281604
0.00298031
0.00298788
-0.118127
0.000559077
0.000552564
-0.0252784
0.00367993
0.00248605
-0.0421125
0.00372257
0.0320743
-0.00654416
0.00428566
0.00136098
-0.0243099
0.00435015
-0.138809
0.00280584
-0.055578
0.0330901
0.00349166
0.00922519
0.00244238
-0.00889346
-0.0242019
0.00270471
0.00711614
0.00342409
-0.00658256
0.00538832
0.0050852
0.000671526
0.00274938
-0.0226952
0.00276783
0.00339414
0.00105582
-0.00831802
0.00209981
0.00272857
-0.0055067
0.0105419
0.00284805
0.000283948
0.00148794
0.00218111
0.00270423
-0.0423807
-0.0112302
0.0042132
0.00367133
0.00341154
0.00342749
0.00151545
0.00343896
-0.000416315
-0.00809001
0.00927837
0.00333549
0.00364302
0.000181042
-0.00727601
0.00297275
0.00878146
-0.00170688
-0.00939764
0.00290925
0.00138801
0.00237051
0.0044017
-0.00555316
-0.0970076
0.00116447
0.00330712
0.00111359
-0.00664942
-0.00972287
0.0092662
-0.02974
-0.0474968
0.0059374
0.000701271
-0.115271
0.00397003
-0.00127796
0.042616
-0.00915427
0.00159385
-0.049124
-0.00389671
-0.0220116
0.0245236
0.00240414
0.0143452
0.00705534
-0.00376109
-0.0234376
-0.0186204
0.0033291
0.00115098
-0.0213949
0.0247366
-0.00681435
-0.131221
0.000217318
0.00436519
0.000653175
-0.00104092
-0.00992543
0.00327235
0.00447424
0.00283851
0.0027628
-0.00119666
0.00275889
0.00114284
0.00275868
0.00337022
-0.00380297
0.00291729
0.00418394
0.00468974
0.00492515
-0.135443
0.0347932
-0.0843723
-0.0178079
0.00206994
-0.0222712
0.00282299
-0.0217438
0.00101371
-0.00678483
0.00231529
0.00014709
-0.0246569
-0.000804925
0.00289594
0.00549129
-0.00929635
-0.00103057
0.00434082
0.00363602
0.00286406
0.00324229
-0.00783237
0.00396051
-0.114192
-0.00285548
0.0030162
0.002764
-0.00767085
-0.0872392
0.00253365
0.0338407
0.00301168
-0.00789702
0.00360829
0.00375235
0.00401739
0.00293961
0.0359792
-0.00999786
-0.0745452
-0.000908218
0.00306636
0.00317741
-0.00522392
0.0054322
0.00345991
0.00343881
0.000199744
-0.0232054
-0.000542587
-0.0277562
-0.0095387
0.000940755
-0.0100906
0.00257615
-0.00122557
0.00277692
0.00719965
0.00432683
0.00263235
0.00615625
0.0396647
0.00455512
0.00381586
-0.00777434
0.00532483
0.00261149
0.00416257
0.0073784
-0.0198854
-0.117727
-0.036356
0.00338565
0.00304363
-0.0243415
0.00333066
0.00380507
-0.00959354
-0.00678233
0.000201866
0.00578727
0.00480779
0.00354426
0.00349422
0.00672129
-0.0479106
0.00297729
0.000170825
0.00285414
-0.0353564
-0.00574822
0.00437885
0.0018312
0.00278723
0.00119178
-0.00674239
-0.0430058
0.00434824
0.00641672
0.00349863
0.00368498
0.00189881
-0.00678155
0.00400898
0.00291593
0.00404722
-0.028587
-0.000663084
-0.0062601
0.00843026
0.0023692
0.0227622
-0.0417768
0.00787316
-0.00534158
0.00197839
0.00290015
-8.95725e-05
-0.0101886
0.00112994
-0.00716457
0.000485339
-0.00153237
0.00308463
-0.0308937
-0.00807782
0.00392195
0.00368424
0.00223013
0.00273348
0.0209493
-0.00593753
0.00366566
-0.0273031
-0.0332026
-0.00174435
-0.00651055
0.0038419
0.0088281
0.00360595
-0.0336322
-0.0420852
-0.0290673
0.00486307
-0.0286393
0.000891242
0.00516149
0.0305966
0.00238866
0.000804754
0.000671054
-0.000253492
-0.0560145
-0.0323729
-0.00420656
0.00558968
0.00822933
-0.019903
0.00565586
0.000323823
-0.0100624
-0.0190041
-0.00775151
0.0045472
0.000114782
0.00237687
0.00300322
-0.00219335
-0.00675408
-0.00161466
0.00449886
-0.0785008
0.0265467
0.00374395
0.00498625
-0.00491386
0.00220289
-0.00756248
0.00514091
0.00326885
0.00218324
-0.00295959
0.000763199
-0.00596412
0.00234296
-0.0623812
0.00516943
-2.85636e-05
0.00376491
0.00164887
-0.00497807
0.00185607
0.00267228
-0.00288342
-0.00788577
-0.137005
0.0038918
0.00262797
0.00103416
0.00622819
-0.000361827
0.00285316
0.00547446
0.00318181
0.00908552
-0.00712335
-0.0201302
-0.0847661
0.00306706
0.00306145
-0.0345632
0.00304334
0.0063007
0.00390623
-0.00789483
-0.00262656
0.00352848
0.00147804
0.00502987
-0.00766202
0.00453345
0.00330395
-0.0109992
0.0024366
-0.000130509
0.00386879
0.00406161
-0.042911
-0.0816656
0.00387949
0.00423028
-0.0437975
0.0036915
-0.00678522
-4.03241e-05
-0.0324851
-0.00788353
0.00938598
0.0038511
0.00612815
0.00570646
0.00788313
0.024973
0.00355925
0.000131911
0.0103385
-0.00855777
-0.000508688
-0.0380801
-0.00684476
0.00534065
0.000273103
0.00905603
-0.00679965
-0.0251426
-0.0153008
-0.0106692
-0.00106748
0.00306984
-0.00977177
-0.00714529
0.00362089
0.00590518
0.00200945
-0.000467241
-0.0330493
-0.0404824
0.00306277
-0.00150678
0.00293998
-0.0180536
-0.00915079
-0.00555967
0.00366297
-0.0346485
0.0016256
0.00297701
0.00375095
0.00815452
-0.0843439
0.00302721
0.00290201
-0.00602309
-0.0797393
0.00384479
0.00271859
0.0052458
-0.00137534
-0.0114077
-0.092314
-0.0536876
-0.00955061
0.00149323
-0.00992004
-0.0856743
-0.0288847
0.00300385
0.0317725
-0.00367816
0.00302016
0.00134836
-0.00782971
0.00399046
0.00557369
-0.0107742
0.00542938
-0.00990413
-0.0582611
-0.00624343
-0.0424641
-0.00654325
0.00298398
-0.0150875
0.00299506
-0.0487004
-0.0737746
0.00786619
0.00410594
-0.00126623
-0.00612113
0.00321547
0.00368262
0.00346356
0.00249131
-0.0089886
-0.00022477
0.00305658
0.00350291
-0.0118028
0.0353467
0.03052
-0.00931483
0.00290145
0.00281028
-0.00929327
0.00153326
-0.0171255
0.00506838
-0.00382594
0.00628841
-0.0136623
-0.0158194
-0.16132
-0.000728884
0.00375553
-0.0138387
0.000323665
0.0313674
0.00937861
-0.0374776
-0.00157345
-0.165132
-0.000702382
-0.025381
0.00633504
0.00191952
-0.00570813
-0.0148976
-0.0108519
-0.00329582
-0.0303268
0.00142977
-0.0174732
0.0039036
-0.0105626
-0.00610407
-0.00699601
0.00503652
-0.0235031
-0.0195928
-0.0708263
0.00303197
0.00563873
0.006288
0.00473058
0.00044039
-0.00242313
0.00567161
0.00568258
-0.0105056
-0.00698649
-0.00328388
0.00167683
0.00217473
0.00548182
-0.036314
-0.086102
-0.00257437
-0.00498965
0.0414208
-0.00885802
-0.0606348
-0.00241598
-0.00589036
-0.00028402
-0.00711274
0.00469181
0.00141777
0.00657066
0.00290167
0.00267905
-0.0331942
-0.0381858
-0.0340601
-0.00814198
-0.0588736
0.00175478
-0.0131738
-4.32923e-06
0.00157215
-0.0483038
0.0047344
0.00650708
0.00115206
-0.00272593
0.00363889
0.00433571
-0.0112118
-0.0217695
0.00291172
0.00195855
0.00164763
-0.00684925
-0.0218699
-0.16048
0.00294635
0.00428662
-0.0041883
0.0020108
-0.0157049
0.00158749
0.00306632
0.0215371
0.00384445
-0.0463263
-0.016067
0.000301283
8.82418e-05
0.0388335
0.00221801
4.72757e-05
0.00619097
-0.00193381
-0.00716479
0.0034919
0.00480234
-0.00399921
0.000281456
0.0293425
-0.0686243
0.00142946
-0.0176308
-0.0148766
0.00195866
-0.0462022
0.00299018
0.0418102
-0.00259831
0.000220869
-0.0176772
-0.0343353
-0.0956648
0.00377838
0.00367505
0.00350067
0.0027404
0.00439446
-0.0536939
-0.000543788
-0.0212634
0.029778
-0.00879978
-0.0344248
0.00359202
-0.0362276
-0.0102185
-0.00413062
0.00159138
-0.000568265
0.00449805
-0.020608
-0.00438102
0.00132085
-5.62207e-05
0.00499009
0.00451328
-0.0582736
-0.000911637
0.0413331
-0.00609943
-0.00233149
0.035349
0.00278284
8.32322e-05
0.00666845
0.0201266
-0.0117201
-0.00680434
-0.0143088
-0.00212859
0.00255027
0.00326644
0.0051706
0.0348749
-0.0118115
0.00246708
0.00446523
-0.017458
-0.000553013
-0.00108652
-0.0966933
-0.0110757
0.0215806
0.00260571
-0.0210347
-0.00824254
0.000204346
-0.0520384
-0.00476623
-0.0167197
-0.0120913
-0.00690553
0.0167206
-0.0080403
0.00288774
-0.00487649
0.00133514
0.000652248
0.000208301
0.0208438
0.00272409
-0.0651039
0.00486472
-0.0026671
-0.0294774
-0.00179052
-0.00728831
-0.00323078
0.00265153
-0.0522499
-0.00374434
0.00286613
0.00289945
-0.000696747
-0.00863607
-0.0427736
0.00424763
-0.0288178
0.00433803
0.00522313
0.00292556
0.00467987
0.000478385
0.00303552
-0.0512866
0.00712163
0.00266554
-0.021943
-0.00528753
0.00212117
-0.00292525
0.00169786
0.00489546
-0.0450311
0.000158407
-0.0347433
-0.000661788
-0.00232017
0.00214239
-0.0358956
-0.0124443
0.0183828
0.00578212
-0.00855182
0.00480048
-0.0662055
0.0392151
-0.00820745
-0.0210886
0.00360521
-0.00550524
0.000526855
0.000312656
0.00296764
-0.00416732
0.00559869
0.0025519
0.00276767
0.00123118
-0.00501641
0.0169862
-0.0642002
0.00307668
-0.00167191
-0.00203645
-0.00150264
0.00391387
0.00103026
0.00654748
0.00276695
0.00133103
0.00278275
-0.00900583
0.00477795
0.00327178
-0.0931036
-0.00986498
-0.0207578
0.00142884
-0.0859683
0.00284652
0.00277855
0.0032717
0.00669077
0.00361702
0.00330218
0.00293358
0.00300437
0.00496065
0.00268731
0.00622026
-0.00363234
-0.00811183
0.000253793
-0.0208663
-0.015407
0.0014183
-0.0104618
0.00174093
0.0145927
0.00218976
-0.036367
-0.00365596
0.00404383
0.00560975
0.00657729
-0.155572
0.00292079
0.000922898
-0.0104332
0.00645794
0.00389367
0.00305137
0.00247927
0.00226717
0.00246739
-0.0370837
0.00281855
-0.0633559
0.00594856
0.00118615
0.00249908
0.000482679
-0.000523022
-0.0430998
-0.0126006
0.00279964
-0.0152537
-0.0140171
0.00268406
0.000249162
-3.18565e-05
0.00318078
-0.0126003
-0.0270196
0.0056244
0.00515003
-0.0137272
-0.0108376
0.0051813
-0.00716772
-0.0825463
-0.0170289
0.00519596
-0.0404886
-0.137455
0.00572015
0.000812407
0.00269961
-0.0151313
-0.0058375
0.0073115
-0.0498098
-0.0491373
0.00307609
-0.00909155
0.00491952
0.00323371
-0.154675
0.00127308
0.00277608
0.00255477
0.0027316
0.000364211
0.00213316
0.0037842
-0.0809915
0.00230336
0.00385757
0.00307782
0.00264393
0.000634209
-0.00533203
0.00640082
0.0026587
0.00463848
0.00292493
0.000542786
-0.0496324
0.00426437
0.00794218
0.00395774
-0.019491
-0.0404349
0.00564095
-0.00580304
0.00284364
0.00281228
0.00362695
0.00279697
0.00590969
0.00424813
-0.00495784
0.00401372
-0.0119025
0.0061823
0.00528842
0.00275377
0.00272405
0.00597243
-0.00302038
-0.00177616
0.00209837
0.00226536
0.00255387
-0.0208532
0.000469831
-0.0206461
0.00533885
-0.0855209
0.00276053
0.00348973
0.0065208
0.00632675
-0.000313279
0.00770605
0.00502745
0.025511
-0.000433392
0.00119881
0.00277378
-0.0120351
0.00344832
0.00277621
0.00735335
0.00547514
0.00284646
-0.00475098
-0.00470054
-0.0396245
-0.000165474
0.00346858
0.00501635
0.00401736
0.00324514
0.00494695
-0.0115164
-0.0286145
-0.00581533
0.00300482
0.00287188
0.00335229
0.0045928
0.00421848
0.00234769
0.00285693
0.00432593
0.00503815
0.00291406
-0.00952177
0.0070135
0.00228437
0.00192396
-0.0082974
-0.0916674
0.00298868
-0.0111428
0.00293149
0.00321955
0.00300023
-0.0148649
-0.0574846
-0.00965167
0.0208161
-0.0159275
-0.0890566
-0.0141312
-0.000618792
0.00655616
0.00256175
0.00198889
-0.00111089
0.00296078
-0.0163281
0.00367446
-0.0262285
-0.00267962
-0.0414628
0.00407401
-0.0139043
0.0115641
0.00528852
0.00269393
-0.0137115
-0.0258427
0.00287567
0.00249223
-0.0440581
-0.0662941
0.0179605
0.00226852
-0.0518753
-0.00160809
0.00464219
0.00722166
-0.000472253
0.00496719
-0.0440812
0.00470213
0.0018161
-0.0265607
0.00202149
-0.00106756
-0.0465647
-8.26784e-05
0.00188832
0.00367939
-0.0758924
0.00431083
-0.00133253
-0.00329087
-0.0158049
0.00552347
-0.000327539
-0.000229793
0.00236621
0.00724096
-0.0144211
0.00261658
0.00105579
0.00168738
0.00264017
0.00230708
-0.00747929
-0.0209244
0.00287601
0.00783516
-0.0273558
-0.0161763
0.00276511
-0.0126693
-0.000336108
-0.00253394
0.00439223
-0.032793
0.011318
-0.00527878
-0.00932622
-0.029021
0.00240888
-0.000121266
-0.0090532
0.0120611
0.00725253
-0.00060687
-0.00561509
0.0036332
0.00389867
-0.0133214
0.00184026
0.00273777
-0.00809973
-0.0467932
-0.153819
0.000152982
-0.0130512
0.00019543
0.00564585
0.00225103
0.00273526
0.00402655
-0.0142601
0.00260526
0.0054882
0.00512447
0.00521776
-0.0597047
-0.0176454
-0.0133492
0.0057361
0.00265345
-0.0551475
-0.091231
-0.0500812
0.00268389
0.00383093
-0.00844762
-0.0279945
0.000948475
0.00256213
-0.0488429
-0.00531615
-0.00982192
-0.00573524
-0.013984
-0.00517143
0.0114776
-0.0196204
-0.0283634
0.00197658
-0.00270529
0.0284997
0.00259106
0.000465599
-0.000970516
-0.00855263
-0.0215129
0.00519222
-0.115339
0.000347612
-0.0116187
0.0349063
-0.00429873
-0.0123055
-0.0486715
-0.0827533
0.00405657
-0.0105936
0.00358447
-0.115356
0.00537774
0.0381204
0.00130646
-0.0443254
-0.0858718
0.0031069
0.00640893
0.00170422
0.00375439
-0.00290915
-0.00146221
0.00399166
0.00225789
-0.0241949
-0.0113143
0.00312335
0.00406336
0.0038374
0.00545808
0.00226608
-0.00853926
0.00260711
0.000185079
0.00298036
0.0032113
-0.0166525
-0.00476804
0.0022925
-0.00726456
-0.0122273
0.00640972
0.00361447
0.00319482
0.00300008
8.3689e-05
-0.00219393
-0.000745059
0.0039523
0.00289599
0.00250147
-0.0053999
0.00307233
0.00300558
-0.002344
0.00325785
0.002992
-0.00261445
-0.000836388
0.00319079
-0.0286229
-0.0316135
0.00283501
-0.0152848
-0.0144775
0.000126282
0.00417123
0.00263154
0.00283683
0.00271613
0.0377533
-9.77384e-05
0.00305712
0.0220016
0.00269741
8.37157e-05
0.00315391
0.00353589
0.00582919
-0.0441767
-0.00413389
0.000181951
-0.0571265
-0.0163129
-0.00314102
0.00295954
0.00442399
-0.00640096
-0.00446539
-0.0134739
0.00234109
0.00271744
0.0363323
0.0123631
0.0309377
0.0133875
0.00441792
0.00331283
0.00309697
-0.00899364
-0.0842832
0.00289173
-0.0584378
0.00231429
-0.0164057
-0.079953
0.00332559
0.00158872
-0.00136065
-0.00825502
0.00412882
0.0063793
-0.00907314
0.00973862
-0.00501463
0.00295888
-0.000785674
0.00010586
0.00344101
-0.0193121
-0.0172343
-0.00515289
-0.00780126
-0.00726763
0.00487301
0.00305846
-1.83669e-05
0.00300207
-0.0155377
-0.00374895
-0.0159253
0.00503422
0.00189984
-0.0381713
-0.0101696
0.00504807
0.00364274
-0.000109199
-0.0201564
-0.0520398
-0.00181951
0.00285424
0.00513138
-0.00031041
0.0042087
-0.00338051
-0.0094708
0.00662448
0.00465145
-0.00091202
-0.0017247
0.00184834
0.0027259
0.000139125
0.00263408
0.00252694
0.00442222
-0.0165934
-0.00646292
-0.00685217
0.003244
0.00138642
-0.155814
-0.0571186
0.00257356
0.00402648
0.00141627
-0.00158742
0.00303003
-0.00198497
0.00140544
0.00121017
-0.0372558
0.00317438
0.00262732
0.00301735
0.0047647
0.00214767
-0.00234323
0.0251479
0.0030073
0.00352665
0.002036
-0.0892857
0.00216145
0.00251155
0.00317051
-0.00755332
-0.00633701
-0.00551041
0.00302427
0.00202044
-0.00439689
0.0024272
0.00284308
0.00229725
-0.00393923
-0.0280187
0.00298425
0.00233283
-0.0263538
0.00125543
0.00326172
0.00270882
0.00335158
-0.0333284
-0.0353394
0.00704662
0.00673975
-0.00193508
-0.0600766
-0.0337068
-0.00303875
0.00394846
-0.0308142
0.00501664
0.00114673
0.00297684
0.00331476
0.00336008
0.00321659
0.00300405
-0.0374908
-0.000238473
0.00043501
-0.000373238
0.00504294
0.00314781
-0.0867508
0.0007787
-0.0347809
0.0047592
0.00358121
0.00427873
-0.0179172
0.0047668
0.00579464
-0.00626998
0.00135074
0.00552431
-0.00535365
-0.0147955
-0.0118344
-0.0596876
0.00609448
0.000381126
0.00685959
0.00326417
-0.00359174
0.00270074
-0.0333124
0.00465635
0.00231706
0.00310583
0.0036941
0.00560958
-0.00429967
-0.00230719
-0.0965453
0.00119473
0.00250684
-0.0285135
-0.0527289
0.00287644
0.0276895
0.00299621
0.00609034
-0.0465729
-0.00602203
-0.0107117
0.00421477
-0.0264403
0.00280557
-0.0129366
-0.0107246
-0.00629223
0.0017583
-0.0125876
-0.00627639
0.00380759
0.00354653
0.0294463
-0.0132542
0.00282971
0.00140768
-0.0463197
-0.0027096
0.00282268
-0.00122693
-0.133084
-0.0205827
-0.0855489
0.004161
-0.0518372
0.00400241
-0.0310519
0.000599416
0.00341448
0.00136422
0.00307709
-0.0148567
-0.00308766
-0.0127514
0.012988
0.00273935
0.00417463
0.00302579
0.00240919
0.0389937
-0.00319363
-0.00072166
-0.0140809
0.0110236
-0.0113076
-0.00993638
-0.0344438
0.00100182
0.00161503
0.00384531
0.00288476
0.0028597
-0.0160679
-0.0607484
0.000196042
-0.00154602
0.00305931
0.0036673
0.00308829
0.00440045
-0.00227219
0.00355346
-0.0012731
-0.0443896
0.00289808
0.0028093
-0.0124454
0.00348775
0.00849137
0.000256643
-0.0107012
0.00498672
-0.177947
-0.0728177
0.000611826
0.00441213
0.00392656
0.00367831
0.00323773
-0.0374608
0.00237732
-0.0289341
0.000174629
-0.0135985
-0.0116165
-0.0396125
0.00600381
0.00512201
-0.000306229
0.00437162
0.00574063
-0.0129483
-0.00354132
0.0293838
-0.0302077
-0.00443336
0.00299764
-0.0166487
0.00686128
-0.00960675
0.00299687
0.00322595
0.00158865
0.00385214
-0.00551947
-0.0106459
0.00356898
-0.0870419
-0.00419039
0.00491726
0.00359317
-0.0189481
-0.0366991
-0.00530114
0.0030502
0.00350268
0.000549211
0.00301638
-0.00868095
0.00340445
0.0310498
-0.0172722
-0.00678207
0.00351334
-0.00568049
-0.00799869
-0.000796062
0.00654525
0.00390963
0.00469313
-0.00182494
0.0028631
-0.00445576
-0.0208453
0.00159428
0.00107831
0.00167638
0.00345275
-0.00114902
6.56028e-05
0.00326125
0.00220047
0.00287709
0.00321005
-0.00378154
-0.0496027
0.0141961
0.00291075
0.0358937
0.00294313
0.00287844
0.00134591
0.00364436
0.00708146
0.00142059
0.00292948
0.00324745
0.00296882
-0.0484533
0.0041683
0.00313962
0.00360648
-0.0603262
-0.01331
-0.00877
-0.00393552
-0.00424039
-0.0229096
0.00452883
0.00176604
-0.00196346
-0.0307276
0.00319777
-0.178508
0.00318795
-0.00244669
0.00289457
0.00352294
0.00292007
-0.00154034
-0.0180456
-0.0094261
-0.0130515
0.00190368
0.00184394
0.00309721
0.003053
0.00344464
-0.0131347
-0.00530756
-0.00797737
0.00322965
0.00916961
0.00300471
0.000529299
-0.0133646
0.0049847
0.00331982
0.00337184
0.00408699
-0.0155842
0.00280691
-0.0396912
0.00447561
0.00296278
0.00346435
-0.00146733
0.00566186
0.00315398
0.00350217
-0.00284627
-0.00173988
0.0011675
-0.0021228
0.00583548
-0.002233
-0.00462191
0.00315525
-0.0076021
0.002988
0.00295347
-0.0345204
0.0122741
-0.118426
0.0034885
0.00297252
-0.00749698
0.00282501
0.0106464
-0.0177172
0.00270461
0.00182822
-0.00892013
-0.00834682
-0.0361154
0.00357685
-0.0126496
0.000136319
-0.0373187
0.00279156
-0.00339725
0.00288889
0.00378261
0.00319619
-0.0423279
-0.000962841
-0.0237864
-0.00268548
0.00344102
0.00298201
0.00836977
-0.0132583
0.00228366
0.010686
0.000880848
0.0030061
-0.00579143
0.00516055
0.00300972
0.003526
-0.0218579
-0.0163443
0.00388577
-0.0463799
-0.0124245
-0.0262282
0.00280518
0.00366732
-0.00129845
-0.00451526
0.00322312
-0.015254
-0.00750941
-0.161184
0.00320935
-0.000201088
-0.0574403
0.00266774
0.00329001
0.00325851
0.0126789
0.00314512
0.00320129
-0.00304003
0.00293262
0.00083451
0.00467904
0.00418999
-0.0156775
-0.00830129
-0.0283684
-0.00269605
0.00457904
-0.00798839
0.00327957
-0.014082
-0.00356265
-0.00205264
0.00474197
-0.0071896
-0.000767931
0.00325272
0.0043918
-0.00100066
0.00504297
-0.0385303
0.00114021
0.00227081
-0.0488047
0.00269713
-0.00319199
-0.0243255
0.00682969
-0.00418206
-0.00555364
-0.0187655
-0.00433418
0.00435366
0.00247681
0.00272616
-0.0225098
0.00150682
-0.0147919
-0.0128766
0.00196526
0.00520961
0.00616314
-0.00147088
0.00213036
0.00253043
0.00284524
-0.00397039
0.00287944
-0.0566341
0.0032114
0.00314695
0.000749327
0.00338964
0.0394576
0.00142269
0.00255924
0.00185018
0.00502379
-0.035027
0.00539654
-0.000460085
0.00338822
0.00558597
-0.018414
-0.00311543
0.00343122
0.00488507
-0.00326988
-0.00616857
-0.0258804
-0.00751546
-0.00234231
0.00206067
-0.126008
0.0101616
-0.000205621
-0.00178316
0.0115812
0.00344037
0.00142513
-0.0157757
-0.00406296
0.00917444
-0.00679351
-0.0136576
-3.11132e-05
0.000312092
-0.00344869
0.000461199
-0.0081516
-0.00669806
0.000161599
-0.0628931
0.0029211
0.00352975
0.00731014
0.00335942
0.0024998
-0.00919461
0.000575667
0.00942443
0.00351182
-0.00257047
0.00333517
0.000690972
-0.0365493
-0.0108681
0.00412078
0.00360491
0.00170874
-0.00773727
0.00123297
0.00292858
-0.055804
-0.0205586
-0.0179049
0.0170441
-0.00606284
0.00573358
-0.0141859
0.00251033
-0.00999458
-0.001976
0.00305736
-0.0529386
-0.00637534
0.00128592
0.00352913
0.0030264
0.000352
-0.0468648
-0.00325309
-0.0102848
-0.0237561
0.000478944
0.00288868
0.0263753
0.000847233
-0.0654872
-0.0232968
-0.0547115
0.00654013
-0.00150046
0.00531782
0.00277979
-0.000585444
0.00519459
-0.0030928
0.00337509
-0.010022
0.0032798
-0.105845
-0.067159
0.0033559
0.00450324
0.00292183
-0.00524948
0.00304605
0.00273669
0.00372321
0.00471664
0.00443769
0.00437915
-0.0237617
-0.00311904
-0.00446941
4.5578e-05
0.000543442
0.0034457
0.00346046
-0.00227546
-0.0171406
0.00473588
1.45525e-05
-0.00721162
-0.00510057
0.00333344
-0.0627759
0.022768
-0.00319215
0.00410564
-0.119477
0.00347965
-0.00646569
-0.00383129
-0.0130287
-0.0185952
-0.010617
0.00439176
0.0225265
-0.0409786
0.0045654
0.0012937
0.00247117
0.00351909
0.00102374
0.00336873
0.00294808
-0.0150788
0.01279
-0.00249023
0.00264165
-0.00153636
0.000596483
0.00447682
0.000135396
0.0157664
-0.0197967
-0.0379799
0.00289902
0.00585467
0.000188151
0.00337257
0.000381679
-0.00440026
-0.187206
-0.0187855
-0.0117471
0.0280734
-0.00277136
0.0234366
-0.00498449
-0.0452223
-0.0298133
0.00446809
0.00323536
0.00350406
-0.00772937
0.00455135
0.00532542
-0.0287053
0.00579802
0.00274258
-0.107657
0.00298921
-0.0176548
-0.0082953
-0.0270988
-0.106516
0.00356811
-0.0236269
-0.147667
0.0200737
0.00134544
0.0348735
0.00502323
0.00202316
0.00134593
0.0107611
0.0367519
0.0031722
0.00302965
0.00330093
0.00300293
0.00790425
-0.114828
0.000130335
0.00140888
0.00118291
-0.0785756
-0.0576306
-0.00116706
0.00297583
-0.0744695
8.58101e-05
0.0160304
0.00122764
-0.00694229
0.00285382
0.00309944
-0.00107227
0.00305755
-0.00226755
0.00297838
0.00427954
0.00478779
-0.192179
0.00532242
-0.0066227
-0.00435338
-0.0364155
-0.0798634
0.00621369
-0.00327103
0.00346538
-0.0407647
-0.046299
0.00370582
0.00121095
0.00529429
-0.00409027
0.0374971
-0.0253828
-0.00106644
-0.0187093
0.00442967
-0.00551219
-0.0109301
0.0382909
-0.0353518
-0.00208283
-0.00774094
0.000268543
0.00904548
0.0219497
0.000811566
0.00301876
-0.00209821
-0.0746042
0.00353922
0.00290914
-0.00539756
0.00223304
0.00342094
-0.0508989
0.00382883
0.00328713
0.0197789
-0.00131708
-0.0135804
-0.0114484
0.00117459
0.00364876
0.00315666
-0.0120482
0.04192
0.0232193
-0.0597184
-0.203141
-0.0120847
0.0012528
-0.00206107
0.00299577
-0.0624708
0.00734196
0.00340537
-0.00330432
-0.017203
-0.0388784
-0.00321419
0.00329577
0.0418897
-0.00615647
0.00318876
0.00293913
0.00412845
0.00309071
0.0162443
-0.0811671
0.00289938
-0.00120342
-0.0180851
-0.00312437
0.00151609
-0.000891555
0.00298773
-0.0332515
0.00339385
-0.00467568
0.00216033
-0.0182556
0.00152196
0.00930106
-0.0862248
-0.0250755
-0.0407815
0.00319426
-0.00339644
-0.199894
0.000877538
0.00292586
0.00343808
0.00281505
-0.0100411
0.00126836
0.00363122
0.0113161
0.00273428
-0.00139886
-0.00373677
0.00307834
0.00330583
-0.011804
0.0121087
-0.0260407
0.00306786
-0.030895
0.00508058
0.00448887
-0.00015328
0.00149842
-0.000330463
-0.00301162
0.00332273
-0.00163486
0.0017616
0.00297972
-0.00634201
-0.0162882
0.0325039
-0.0125836
0.00121514
-0.0759303
0.004454
0.00327345
-0.00723021
0.00127865
0.000495458
0.0171265
0.00305794
0.0275729
-0.0195119
0.00102453
0.00123188
0.00346689
0.00422109
0.00344163
0.00290816
0.00577651
-0.00169829
0.00938784
-0.0734936
0.00306502
-0.0767689
-0.0127785
-0.00417535
0.00542978
-0.0759469
0.00338515
0.0056372
0.00709884
-0.000715265
-0.00161594
0.0089581
-0.0112733
0.00503793
-0.0302991
0.00972978
0.00325249
0.00280609
-0.00482069
-0.00142484
0.00486131
-0.0146166
-0.004799
-0.0085057
0.00278935
-0.0649485
-0.000151139
-0.00158022
-0.00294283
-0.00325159
-0.00362275
0.0408207
-0.00162754
-0.0208726
-0.0289699
-0.00207894
0.0140895
-0.0404564
0.00804582
0.00263437
-0.00447037
-0.0235898
0.0019287
-0.00303517
-0.0271343
0.00447988
-0.01234
-0.00563578
0.00397331
0.00209912
-0.00594604
-0.127983
-0.00796021
-0.0108086
-0.00198351
-0.00933328
-0.0222189
0.00312601
0.0314635
0.0033237
0.00205816
0.00317868
0.00328567
-0.00097474
0.00325221
0.00330059
0.00208149
-0.0222387
-0.00829777
-0.0297964
0.0019496
0.000109762
0.00570291
-0.0563724
0.000200975
0.00348929
-5.85977e-05
0.00100613
-0.0249332
0.00283985
0.00351759
0.00484158
0.00334404
-0.0311754
-0.0228754
0.00319037
0.0386795
-0.0138393
-0.0294589
0.00259101
-0.0482956
0.00142613
0.00133944
0.000963356
-0.00248673
0.00572513
0.00303739
0.00489098
-0.0830267
-0.0957478
-0.0155189
-0.0215721
-0.0703855
0.00348022
-0.00610727
-0.00566996
0.000665655
-0.00367145
0.00308867
-0.112335
0.00324679
-0.00373435
-0.0037281
0.00293441
0.00268447
-0.00236166
-0.000515701
-0.00173523
0.00779645
0.000431749
0.00346034
0.00322719
-0.0433311
-0.0616753
-0.000860949
-0.00415188
-0.106546
-0.0727632
-0.0413516
0.00170318
-0.00789758
0.0020231
-0.00755301
-0.00578699
-0.00952893
0.0003385
-0.00761344
0.00318333
0.00265964
0.00450145
0.00442041
0.00540318
-0.0482342
-0.0229298
-0.042187
0.000360143
0.0105308
0.0366164
-0.0321239
0.0036789
0.000494342
-0.000594945
-0.0266591
0.000254765
0.00297067
0.0032204
-0.00368886
0.00322313
-0.00362841
-0.00339922
0.00288802
0.00641689
-0.000499473
-0.0021053
-0.000318876
0.00369581
0.0473358
0.0010925
0.00318096
-0.0211247
-0.0107618
-0.0441022
-0.0149926
0.00333901
0.00879082
0.00186883
-0.014063
0.00296427
0.00206988
-0.00794939
0.00266775
0.000676527
0.0032782
0.00296289
-0.0372355
-0.0259317
-0.0623683
0.0032304
-0.00285301
-0.0522082
-0.000175186
0.00277553
0.00327016
0.000893671
0.00157279
0.00189088
-0.00425689
0.00213103
0.00304766
-0.0561747
0.00212177
0.0176058
0.00310315
0.00183789
0.00335628
-0.00938504
-0.0318059
0.00282678
0.000980834
-0.0205486
-0.021482
-0.0233671
-0.0261185
-0.0121074
-0.00565145
0.0060879
-0.141544
-0.00335287
-0.00544861
-0.0472941
0.00150323
0.0404046
0.00432756
0.00353174
-0.0377959
0.00268231
0.00344319
0.00179358
0.00111658
0.00299087
-0.0198706
0.00327659
0.00203271
-0.00764637
0.00406764
-0.0401522
0.00169334
0.0165784
0.00314173
0.00132659
-0.0365617
-0.00896435
-0.00802898
0.00139396
-0.00427252
0.00206661
-0.013066
-0.0545901
-0.0539618
-0.0146601
-0.0203842
0.00253776
-0.0284582
0.00113692
-0.00693324
-0.121506
-0.102321
-0.0623261
-0.00250297
0.00387331
-0.0200725
0.00139678
0.0103672
0.00287033
0.0122415
-0.0146202
0.0127897
-0.0228743
-0.124937
0.000834083
-0.00149606
0.0142749
-0.0148243
0.000218076
-0.00756722
-0.0082176
-0.0669891
-0.0170707
-0.0533796
-0.0605718
0.00128585
0.001825
-0.00651314
-0.00612623
0.012071
-0.0049923
0.00504333
0.00660762
0.000157785
-0.0115957
-0.077672
-0.0302026
-0.0832516
-9.0471e-05
-0.00976575
-0.0171488
0.0174418
0.00463496
0.00515315
0.00806075
0.00189616
-0.153591
0.00692896
-0.0319501
0.00299213
0.000972254
0.00309826
0.00316648
-0.0129195
0.00188624
-0.00532574
-0.00600149
-0.0142923
-0.196433
0.00242459
0.00325411
0.000802395
0.00318467
-0.00311296
0.00251482
0.00397281
-0.0153116
0.0112902
0.00203872
-0.0159773
0.00191272
0.00408378
0.00420131
0.00470674
0.00314644
-0.005433
0.00203112
0.00242929
0.00314647
-0.071948
0.00673446
-0.0307061
0.0269313
-0.00448898
0.00454689
0.00310201
-0.00248453
-0.00157905
0.00209124
0.00221964
0.0040936
0.00404659
0.000111752
0.00251429
-0.0104381
-0.00897851
0.00473094
0.00246382
0.00284028
0.00328944
0.00384884
0.00645002
-0.03797
-0.00599794
-0.0229155
-0.0108332
0.00311252
-0.00734401
0.00949128
-0.045761
0.00283593
0.00448214
-0.0205636
0.00314151
-0.00584187
0.00313008
0.00311852
-0.00207317
0.00291266
0.00289493
-0.00285391
-0.00233912
-0.0412331
-0.000952056
-0.00487948
-0.00734332
-0.00107991
0.00193186
-0.0328955
0.00267959
0.00335391
0.00363939
-0.00280449
0.0013891
-0.00130946
-0.0121264
-0.0069699
-0.00607408
0.00280017
-0.00490244
-0.00485352
0.00325502
0.00016367
-0.0690897
-0.00821748
0.00251184
0.000623961
-0.004475
0.00567108
0.00314072
0.000120105
-0.0128508
0.0100037
-0.0179402
-0.0121398
0.00128234
-0.036216
-0.0214852
0.00362342
0.0441827
0.0032179
-0.025981
0.00188183
-0.0097334
0.00291908
-0.0294209
0.000689432
0.00319353
-0.00590536
0.00316554
0.000859696
0.00569751
0.00205046
-0.00922987
0.00182866
-0.0078229
0.00290499
-0.00288446
-0.0530942
0.00322048
-0.00345913
-0.00237872
-0.11535
0.00120938
-0.00830589
-0.0400348
-0.0226818
0.0271847
0.00354849
0.00202057
0.00283458
-0.00888238
0.00240237
0.0040712
-0.00595976
0.0150616
0.0125358
-0.0700638
-0.119783
-0.0100388
-0.00287002
0.0189913
-0.0025374
0.00240357
-0.0205453
-0.00104548
0.000683021
0.00289872
-0.0065261
0.00310327
-0.0419396
0.00430788
0.0107714
-0.011564
-0.0118571
-0.00169586
0.00271953
-0.0496583
-0.0010329
-0.151619
-0.026115
-0.00296894
0.0371091
-0.00721033
0.000598461
0.00418809
0.000320452
-0.0197231
0.000601579
0.00127723
0.00150867
0.00325635
0.00311551
-0.00889131
-0.0375256
0.00312368
-0.0160715
0.00322782
-0.00145295
-0.00584898
0.00287819
-0.103062
-0.010219
0.00367265
0.00126103
0.000733671
0.0017804
0.00309601
0.00272134
-0.0447284
-0.0340928
0.00206756
-0.00919611
0.00284456
-0.0102934
0.0152841
0.00194703
0.0049112
0.00517658
-0.000310827
0.00295637
0.000782703
-0.00733515
-0.0254823
-0.00283005
0.00309098
0.0277049
0.00479892
-0.0617692
-0.0567539
0.0100267
0.00285984
-0.129753
0.00194126
0.00538486
0.00388655
-0.0286059
-0.172469
-0.00642242
-0.191745
0.00291143
-0.0310346
0.000278334
0.00187374
-0.0875511
0.00133938
-0.0108066
-0.00281229
0.00811778
0.00316999
0.0148715
0.00288829
0.00316104
0.00162585
-0.0335774