/*--------------------------------*- C++ -*----------------------------------*\
| =========                 |                                                 |
| \\      /  F ield         | OpenFOAM: The Open Source CFD Toolbox           |
|  \\    /   O peration     | Version:  v2012                                 |
|   \\  /    A nd           | Website:  www.openfoam.com                      |
|    \\/     M anipulation  |                                                 |
\*---------------------------------------------------------------------------*/
FoamFile
{
    version     2.0;
    format      ascii;
    class       volVectorField;
    location    "1000";
    object      U;
}
// * * * * * * * * * * * * * * * * * * * * * * * * * * * * * * * * * * * * * //

dimensions      [0 1 -1 0 0 0 0];


internalField   nonuniform List<vector> 
18355
(
(0.804967 -0.140202 -7.02432e-21)
(1.00872 -0.000205993 -1.5898e-22)
(0.926491 0.180145 0)
(1.01051 0.00104414 0)
(1.03038 -0.0104366 1.02162e-21)
(1.03435 0.12216 -3.3097e-22)
(1.00999 0.000988045 -1.62686e-21)
(1.02841 -0.0135846 8.61951e-22)
(1.00498 7.05173e-05 0)
(0.921672 0.00697108 4.33155e-22)
(1.01712 0.0207373 0)
(1.06474 0.15284 1.59576e-20)
(1.06505 0.15789 1.75075e-20)
(0.970253 -0.164971 0)
(1.00699 0.000134157 -2.28761e-22)
(1.00964 -0.00026178 -1.70053e-21)
(1.01041 0.000980685 0)
(1.00925 0.0143269 -2.01546e-21)
(0.887939 0.0711349 0)
(1.01303 1.49937e-05 1.10859e-23)
(1.133 -0.0346258 1.0301e-20)
(1.02219 0.0107005 0)
(1.00776 9.65094e-05 0)
(1.02179 0.113508 0)
(1.00773 0.00011111 4.86644e-22)
(1.01391 0.00551578 6.78083e-22)
(1.01044 0.00156643 -4.46585e-22)
(1.0109 0.00191545 2.59328e-22)
(1.00381 -1.1881e-05 0)
(1.01578 0.0221688 6.04509e-22)
(0.922072 0.275085 0)
(1.0488 0.0221004 1.53068e-21)
(1.01176 -0.000466494 0)
(1.00917 -0.000358736 0)
(1.00597 -8.73358e-05 1.18992e-22)
(1.0157 0.0028696 -6.17905e-23)
(1.02968 0.0286907 -1.56913e-20)
(1.01604 0.00289369 -8.06055e-22)
(1.01565 0.0232964 1.30308e-21)
(1.01543 0.00949429 3.6395e-23)
(1.01291 0.000209136 -1.59717e-21)
(1.01721 0.0217963 5.01931e-22)
(1.00922 -0.000356471 0)
(1.0085 -0.000186191 0)
(1.00857 -0.000170598 0)
(1.09364 0.217481 -1.54642e-20)
(1.0108 0.00224836 -1.57159e-22)
(1.01068 0.00214326 1.5889e-22)
(0.907477 0.273382 0)
(1.01163 0.00162715 -2.2042e-21)
(1.00629 -3.78305e-05 5.39558e-22)
(0.783385 -0.332185 0)
(1.0118 0.00163737 1.35122e-21)
(0.916078 -0.0229251 -8.72929e-21)
(1.01552 0.00294022 2.86202e-21)
(1.01359 -0.000250225 -6.68436e-22)
(1.00542 -5.97605e-05 2.68326e-22)
(0.898055 0.269158 4.95131e-21)
(1.01438 0.00570521 -1.52889e-21)
(1.10423 0.271986 -2.83362e-20)
(1.00927 -0.000367761 0)
(1.02923 0.120583 -6.82308e-21)
(0.921945 -0.0291371 0)
(1.01125 -0.00192728 0)
(1.06066 0.00368507 1.46675e-22)
(1.00688 -7.26616e-05 -1.1108e-21)
(1.02407 0.0152875 2.87841e-21)
(1.02876 0.0286396 1.13733e-20)
(1.0094 -0.000333694 1.00986e-21)
(0.912909 0.00704303 3.49816e-21)
(1.01051 0.000997279 8.69667e-22)
(1.01565 0.00305846 -2.50383e-21)
(1.03947 0.0215586 1.15864e-21)
(1.00539 0.0135442 7.27403e-23)
(1.06581 0.0321692 1.56078e-22)
(1.00945 -0.000359291 2.77556e-22)
(0.907738 0.265829 4.77497e-21)
(1.00955 -0.00037738 -1.35944e-22)
(1.01038 0.000894748 -4.28462e-22)
(1.05958 0.0392876 0)
(1.02385 0.0151671 8.12318e-22)
(1.03192 0.0629127 0)
(1.0095 -0.000349417 -1.47176e-21)
(1.02372 0.0151796 -1.74913e-22)
(1.01383 -0.00651294 6.49331e-21)
(1.0037 1.76859e-05 -7.35901e-22)
(1.00695 0.000253204 1.46566e-23)
(1.01002 0.0106396 1.47716e-22)
(1.00995 0.00194905 -7.81888e-22)
(1.01106 0.00865649 -2.7037e-22)
(0.943133 -0.307364 0)
(1.20301 0.0376745 2.02634e-23)
(1.02089 0.0576724 -7.88352e-22)
(1.01167 0.00159417 -2.32553e-21)
(0.888799 -0.0972271 -8.20611e-22)
(1.01343 -0.00399558 -8.46585e-22)
(1.00961 0.00160429 0)
(1.01328 -0.00333783 8.118e-22)
(0.962586 0.0533106 0)
(1.02106 0.0101817 -1.25759e-21)
(1.01489 -0.00422895 -1.96458e-21)
(1.01027 0.000892512 0)
(1.01149 0.00156563 1.85555e-21)
(1.01081 -0.000695275 0)
(1.0237 0.015135 1.08471e-22)
(1.00974 -0.000262083 1.48054e-21)
(1.06197 0.00833983 1.97015e-21)
(0.875315 -0.114896 0)
(1.01546 0.0226574 -3.52589e-21)
(1.00952 -0.000301515 0)
(1.00655 -0.00012244 2.86121e-22)
(1.00411 -2.73737e-05 0)
(1.02791 0.0256701 -6.37249e-23)
(1.02365 0.0150868 0)
(1.03639 0.247216 -6.70826e-21)
(1.0259 0.0176004 3.17706e-22)
(1.01016 0.000794587 0)
(1.06164 0.0549304 0)
(1.02256 0.0137273 6.53405e-22)
(1.02434 0.015268 -1.06005e-21)
(0.930054 0.0048587 -1.49584e-21)
(0.930712 0.188502 1.66084e-21)
(0.948599 -0.312781 0)
(1.00498 0.0048782 8.05242e-22)
(1.05455 0.0621877 -5.26042e-23)
(1.08188 0.229867 -4.01331e-20)
(1.01011 0.00136524 1.01056e-21)
(1.01044 0.000858222 -1.54171e-22)
(0.765593 -0.130795 0)
(1.02102 0.00873043 0)
(1.00968 0.0016727 -2.0246e-22)
(0.786482 -0.323981 0)
(1.01477 0.00452968 8.48204e-22)
(0.982882 0.0896429 -5.63734e-21)
(1.02008 -0.0583243 5.12449e-21)
(1.00994 0.00195381 -1.28651e-21)
(0.887603 0.0804894 0)
(0.914439 -0.0341075 0)
(1.01225 0.000842769 -3.92999e-22)
(1.20073 0.0328189 -5.1751e-21)
(1.02734 0.0216219 -9.9355e-21)
(1.02243 0.0226464 9.26274e-22)
(1.0105 0.00205176 1.54169e-22)
(0.762681 -0.341871 6.80264e-21)
(1.02741 -0.0601151 0)
(1.01375 0.000349909 0)
(1.07826 0.286719 0)
(1.01284 -0.00185842 0)
(1.02676 0.0265641 0)
(0.953897 0.0919613 4.54687e-23)
(1.01079 0.00180034 -2.48726e-22)
(1.02441 0.0151134 3.40313e-21)
(1.01245 0.00114104 0)
(1.01062 0.0101836 5.71666e-22)
(1.00932 -0.00035945 0)
(1.00728 6.73226e-05 0)
(1.01033 0.00078475 2.01824e-24)
(1.00421 -8.90751e-06 0)
(1.0106 0.00211636 3.11099e-23)
(1.00709 5.58883e-05 -5.45139e-22)
(1.01121 0.0167248 -1.44911e-21)
(1.01481 0.00469214 -8.23217e-22)
(1.00949 -0.000285569 -1.32047e-21)
(1.01598 0.0151571 -1.68174e-21)
(1.00728 0.0170514 0)
(0.961985 0.014917 6.91615e-22)
(1.08888 0.287382 0)
(0.717096 -0.180624 5.38939e-21)
(1.00917 0.307625 0)
(1.02684 0.021281 -2.65759e-21)
(1.00439 -4.66788e-05 -3.95948e-22)
(0.985903 0.0861719 -7.42624e-22)
(1.00389 -2.91659e-05 -4.87211e-22)
(0.902801 0.253878 3.95123e-21)
(1.00525 -6.95295e-05 0)
(1.01311 0.000274882 -1.74998e-21)
(1.00479 -4.42663e-05 0)
(1.0115 -0.00120097 -6.78286e-23)
(1.03392 0.013464 9.04291e-22)
(1.02511 0.0132307 1.61468e-22)
(1.0036 -1.60119e-05 6.5078e-22)
(0.966454 0.00645626 -7.09093e-22)
(1.02166 0.0098217 -2.70105e-21)
(1.01126 0.00235604 2.97391e-22)
(0.986482 0.0133241 -1.07523e-21)
(1.01146 0.00152394 -9.0971e-22)
(1.00471 3.2724e-05 6.0245e-22)
(1.01452 0.00707873 1.02494e-21)
(1.01549 0.0011255 0)
(1.01063 0.00198519 -5.14613e-22)
(1.08382 0.223469 5.38347e-20)
(0.965244 0.0576248 -8.55518e-22)
(1.00885 -0.000136543 6.3314e-22)
(1.01065 -0.000301699 7.31192e-22)
(1.01492 0.00026727 -9.79275e-23)
(1.01595 0.250735 -2.33752e-20)
(1.00702 -7.97917e-05 5.3998e-22)
(0.647368 -0.163022 1.92316e-22)
(1.00881 -0.000195098 -3.32322e-22)
(0.983928 -0.175575 -1.74479e-21)
(1.01127 0.00146202 0)
(1.00884 0.00867465 -2.46798e-22)
(1.01392 0.0236087 0)
(1.00447 -2.7818e-05 7.75571e-22)
(0.726965 -0.161162 0)
(1.02117 0.0076367 0)
(1.03081 0.339416 0)
(1.01116 0.00231471 0)
(1.0115 -0.000399171 -1.65926e-21)
(1.01368 0.00115149 -4.00071e-22)
(1.01776 0.00791373 1.27662e-21)
(1.00981 0.0645525 2.09972e-21)
(1.01022 0.00150276 7.8046e-22)
(1.01087 0.00116828 -8.03081e-22)
(1.01303 -0.00193151 0)
(0.886275 0.255611 -3.74242e-21)
(1.0254 0.013583 -1.5682e-22)
(1.03415 0.0244739 0)
(1.02095 0.00797427 0)
(1.01087 0.00229827 1.5985e-23)
(1.01677 0.0225314 3.94418e-22)
(1.01028 -0.000360538 5.59523e-22)
(1.01116 0.014206 1.56803e-22)
(1.02362 0.00448669 -6.88065e-22)
(0.98681 -0.00290118 0)
(1.00699 -0.0040003 0)
(1.01036 -0.00031958 2.77209e-22)
(0.926997 -0.0389915 6.36662e-22)
(0.953282 -0.136513 0)
(1.03444 0.0161008 7.33938e-22)
(1.01014 -0.00137597 -7.93139e-22)
(1.02382 0.0152576 -1.22335e-22)
(0.96742 0.021555 5.77004e-22)
(1.0104 -0.000345808 -5.73905e-22)
(1.01313 0.0163399 -1.09161e-23)
(0.989958 -0.000161335 1.7145e-21)
(1.02986 0.00916584 1.81898e-21)
(1.09102 0.222223 0)
(1.0429 0.0222241 -7.33378e-21)
(1.01143 0.00171868 8.35613e-22)
(1.00906 -0.000215969 9.14763e-22)
(1.0336 0.0130443 -1.38282e-20)
(1.01179 0.00127161 -8.01943e-22)
(1.03215 0.0145248 7.62354e-22)
(1.02088 0.0076925 0)
(1.01556 0.00271328 0)
(1.01064 0.00208084 -7.53516e-23)
(1.00521 0.059053 -2.28937e-21)
(1.01068 0.082901 0)
(1.01065 0.00097727 7.87222e-22)
(1.0109 -0.00226906 0)
(1.00387 0.0768606 0)
(0.984463 0.17456 -1.075e-20)
(1.02469 0.00302338 6.32943e-22)
(1.01137 -0.00113326 6.21468e-23)
(1.02231 0.0125789 -5.66051e-22)
(1.04188 0.0223223 0)
(1.01293 0.000446652 3.02309e-22)
(1.0076 -0.0051557 -9.86301e-22)
(1.00918 0.00144459 2.56525e-22)
(0.950477 0.0790395 3.35757e-22)
(1.03804 -0.0328004 3.29628e-22)
(0.974252 0.056022 0)
(1.04479 0.0380712 0)
(1.01359 0.0248862 2.40193e-21)
(1.00785 0.026328 0)
(1.02403 0.0152931 -1.41934e-21)
(0.953202 0.0504813 8.76976e-22)
(1.00914 0.00143099 -2.70808e-22)
(1.01567 0.00285439 1.13618e-21)
(1.0113 0.00257572 -1.05803e-21)
(1.00974 -0.000341523 0)
(1.00853 0.0078405 8.05051e-22)
(1.03466 0.0251784 -1.61663e-21)
(1.01038 0.00151527 -1.62889e-22)
(1.01853 0.00795517 1.82294e-21)
(0.992597 0.00221746 3.09677e-21)
(1.00982 0.00187423 7.94054e-22)
(0.98726 -0.0317239 4.94193e-21)
(0.792742 0.173969 3.69031e-21)
(0.995377 0.0060805 9.26684e-22)
(1.01798 0.00816899 -1.67634e-23)
(1.02652 0.018875 0)
(1.00962 -0.000343413 1.65653e-22)
(1.00764 0.0137705 0)
(1.02093 0.00680876 -2.75515e-21)
(1.02661 0.0128901 -2.61858e-22)
(1.01365 0.000263926 2.62378e-21)
(1.02622 0.0133331 6.78173e-24)
(0.891666 0.155145 -6.76447e-22)
(1.01159 -0.000434468 1.92734e-22)
(1.01883 0.0606877 0)
(1.02307 0.0135763 -3.20972e-21)
(1.01175 -0.0077348 5.025e-22)
(1.02631 0.0125972 -4.5181e-22)
(1.00648 0.00012587 9.58998e-22)
(1.01052 -0.000295257 5.95338e-22)
(0.99087 -0.0268881 9.14043e-21)
(1.01829 0.00794232 1.52999e-21)
(1.02595 0.0195799 1.70213e-21)
(1.03145 0.0298296 -2.58533e-21)
(0.868861 -0.304768 -5.51752e-21)
(1.00385 0.0186486 1.63568e-22)
(0.971384 0.0579708 1.85157e-21)
(1.00853 0.0110115 -1.01395e-21)
(0.98997 0.00154137 -3.40498e-21)
(1.01137 0.00172903 9.60123e-22)
(1.04109 0.0186297 0)
(1.04433 0.0370113 0)
(1.01653 0.0595233 7.68296e-21)
(0.985349 0.0062948 1.55789e-21)
(0.903999 0.215508 0)
(1.01167 0.00291041 0)
(1.02147 0.00214739 2.61854e-21)
(0.938604 -0.0299504 6.94269e-21)
(1.02721 0.0191987 -6.67277e-22)
(1.01161 0.00288472 1.10632e-22)
(1.0106 0.00208939 0)
(1.0107 0.00205758 0)
(1.04769 0.0746385 -2.22181e-20)
(0.913025 0.218379 0)
(0.815768 0.224746 1.02208e-21)
(0.983199 -0.000417303 -6.00863e-22)
(0.992776 0.00580847 -9.91792e-22)
(1.02846 0.0215011 0)
(0.985733 0.0394489 0)
(1.01254 -0.00173419 -3.59569e-23)
(1.02109 0.00737833 0)
(1.02787 0.0211682 5.49713e-21)
(1.01763 0.00457786 0)
(1.03401 0.0144617 2.7911e-22)
(1.00676 -6.5809e-05 -7.03171e-23)
(0.912647 0.0855349 0)
(1.01006 -0.000286536 -6.31826e-22)
(1.04799 0.0791104 3.10675e-22)
(1.01425 0.000589206 8.29514e-22)
(1.01561 0.00931262 -6.54232e-22)
(1.00697 0.0100876 8.61056e-22)
(1.04554 0.169313 9.19213e-21)
(0.678597 -0.216909 1.95423e-21)
(1.03163 0.0133252 0)
(0.988467 -0.00420836 6.01602e-22)
(1.01898 0.0104365 0)
(1.01007 0.00201542 1.01308e-21)
(1.01737 0.00442016 1.93132e-22)
(1.00794 0.000823649 -2.02369e-22)
(0.91351 0.0205679 2.23656e-22)
(1.01025 0.00210812 -5.80819e-22)
(1.01104 0.000569875 -1.33518e-21)
(0.997742 0.0258737 0)
(1.01956 0.0101103 0)
(1.01028 0.00214943 -1.488e-22)
(1.00891 0.181254 3.24975e-20)
(1.00839 0.00164278 -9.16101e-22)
(1.01067 0.00206875 6.03673e-24)
(1.01009 -0.000731726 0)
(1.02769 0.0126759 1.01015e-22)
(1.01166 0.000481944 1.40537e-22)
(1.02815 0.0133422 -1.00377e-22)
(1.0114 -0.000571682 6.12572e-22)
(1.01121 0.000619036 1.18943e-21)
(1.02075 0.00989835 0)
(1.09945 0.26504 -3.40946e-20)
(1.00661 0.025294 1.01554e-21)
(1.01125 -0.000628727 0)
(1.01032 0.00191863 9.06182e-23)
(0.999551 -0.00121768 9.02192e-22)
(1.0108 0.00210924 0)
(1.00459 -1.04141e-05 -1.239e-21)
(0.97061 0.038729 1.6919e-21)
(1.0121 0.0272013 -1.94951e-22)
(0.990177 -0.00273072 5.77616e-22)
(1.01694 0.00430021 4.49567e-21)
(1.0301 0.00958364 4.35701e-21)
(1.06025 0.160751 5.97041e-21)
(1.01807 -0.001578 0)
(1.02472 0.0113501 1.64485e-21)
(1.04189 0.0189534 3.93598e-21)
(1.01095 -0.000375934 -3.27677e-22)
(1.00117 0.000366564 9.577e-22)
(1.02896 0.00106342 -1.03612e-21)
(1.02043 0.00930096 -1.1251e-21)
(1.01111 0.000665363 -8.53257e-22)
(1.01009 0.0150278 -8.68458e-22)
(1.00696 0.000256947 -4.30833e-23)
(1.01314 0.00856583 0)
(1.01494 0.000309497 0)
(1.04335 0.0610892 9.92782e-22)
(1.01231 0.00159229 8.41478e-22)
(1.02478 0.0150545 2.2855e-21)
(1.00612 -4.43353e-05 4.72305e-22)
(1.01075 0.00212032 -6.53235e-24)
(1.00898 0.00725141 9.93373e-22)
(1.01067 0.00284627 -1.59205e-21)
(1.02038 0.0945918 -4.29229e-22)
(0.941226 0.324384 3.15682e-21)
(1.00123 0.0314009 -8.04683e-22)
(1.00761 -0.00215771 0)
(0.979824 0.169005 1.70052e-20)
(1.02059 0.00780559 -4.74263e-22)
(1.01422 0.00052425 0)
(1.00692 -0.000170449 -4.56988e-24)
(1.0224 0.0574141 -4.2318e-21)
(1.01561 0.00122089 -1.11629e-21)
(0.987934 -0.00384748 -6.00984e-22)
(1.01008 0.000783741 0)
(1.00199 0.0161467 0)
(0.991988 0.0437415 -1.75363e-21)
(0.977393 -0.00350478 -4.78263e-22)
(0.71331 -0.218763 -3.69453e-21)
(0.963563 0.039796 -7.55775e-23)
(1.01081 -0.000654916 1.47786e-23)
(0.648923 0.256518 3.87528e-21)
(1.02136 0.0101711 0)
(1.01029 0.00148827 0)
(1.14593 -0.00583359 -1.0941e-20)
(1.0144 0.000687811 -6.41458e-22)
(1.00376 0.000626237 -2.42048e-21)
(1.01498 -0.00128899 0)
(1.06911 0.00867284 -2.68194e-21)
(1.01438 0.000733942 0)
(0.991261 0.0873625 0)
(1.06333 0.105431 0)
(0.982316 0.057458 -3.00907e-22)
(1.01352 0.00500782 0)
(1.00943 -0.000317516 1.5555e-21)
(0.978974 0.0593477 3.46881e-22)
(1.0228 0.0137586 -6.99278e-22)
(1.01027 -0.000245746 0)
(0.939269 0.00785821 1.20516e-21)
(1.03543 -0.0283894 3.16979e-22)
(1.01019 0.00138722 -1.31669e-22)
(1.02182 0.0591684 8.88668e-21)
(1.01711 0.0934496 6.75975e-21)
(1.00929 -0.000290767 -1.07161e-24)
(1.01633 0.0109752 4.64109e-22)
(1.02996 0.0136828 6.26574e-22)
(0.865381 0.230948 3.50715e-21)
(1.00568 0.0301685 2.93501e-22)
(1.01927 0.0101165 1.64701e-21)
(1.01146 0.00176858 -4.94905e-22)
(1.02885 0.051687 -4.69482e-21)
(1.00735 0.00029615 -6.64632e-22)
(1.01094 -0.000404463 3.27813e-22)
(1.0102 -0.000519467 -3.75349e-22)
(0.980696 8.20767e-06 6.02899e-22)
(0.951852 0.320177 -8.27577e-22)
(1.0108 -0.000363896 -3.21591e-22)
(1.00164 9.57549e-06 -6.70584e-22)
(1.01347 0.000533855 -9.58179e-23)
(1.0444 0.175317 -4.16974e-20)
(1.0283 0.00320113 1.84955e-21)
(1.01077 -0.00030802 3.01706e-22)
(1.00454 -0.000468925 1.55984e-21)
(1.00964 0.014917 3.7566e-22)
(1.02113 0.00480157 6.07579e-21)
(1.02281 0.255998 3.53741e-20)
(1.02481 0.121666 9.17729e-21)
(1.02199 0.0101133 4.34534e-21)
(1.00728 0.000271744 1.03546e-22)
(1.00767 0.0297293 1.98105e-21)
(1.05396 0.178992 -3.68597e-20)
(0.89816 -0.264341 -9.02559e-21)
(1.01072 -0.000367409 0)
(0.57723 -0.147847 -1.06473e-20)
(1.0121 0.000742639 0)
(1.01088 -0.000371415 6.25432e-22)
(1.00123 0.0148176 0)
(1.02328 0.014101 -8.27936e-22)
(1.04879 0.0632244 -1.51498e-21)
(1.03949 0.0190367 0)
(1.02468 0.0152869 1.4692e-22)
(1.00409 0.0138735 -1.5257e-21)
(1.02253 0.0106901 -1.74016e-21)
(1.00399 0.176303 -4.46891e-21)
(1.0226 0.0139571 0)
(1.04552 0.0346535 1.07778e-20)
(1.02016 0.0104374 4.66708e-22)
(1.0106 -0.000376063 6.67879e-22)
(1.02551 0.00797107 0)
(1.01076 -0.000376197 0)
(1.01733 0.117998 9.87771e-21)
(0.928734 0.315102 1.98555e-20)
(1.07007 0.0141794 2.40094e-21)
(1.00835 0.0149453 1.09821e-21)
(1.01468 0.00764287 0)
(1.01986 0.0104306 4.16278e-22)
(1.01388 0.00165794 0)
(1.00896 0.0117983 -6.1863e-22)
(1.01178 -0.00287442 0)
(1.01147 -0.00147657 0)
(1.01704 0.00151243 1.47344e-21)
(1.00593 0.0148061 -1.6979e-22)
(1.00921 -0.000240109 9.75755e-22)
(1.01227 -0.00329949 8.86016e-22)
(0.504937 -0.101274 1.38544e-21)
(0.624679 -0.150615 0)
(0.931431 -0.0252408 -6.78646e-21)
(1.02103 0.00847289 -7.64429e-22)
(1.00307 -1.68487e-05 4.63561e-23)
(1.02944 0.0128228 -7.93843e-22)
(1.02196 0.0103709 -1.35462e-21)
(0.966763 0.0694119 -7.61756e-22)
(0.899306 0.181703 -1.61585e-21)
(1.02065 0.0028826 -1.97023e-21)
(1.02371 0.0150819 -8.65414e-22)
(1.00207 0.0066442 -1.8129e-21)
(1.02559 0.012644 -7.21436e-21)
(1.02697 0.0174348 1.84961e-21)
(1.01383 0.255023 2.05474e-20)
(1.01976 0.0113978 2.01132e-22)
(1.01517 0.00318095 0)
(0.884054 0.183418 -8.66873e-21)
(1.00812 0.000324407 -1.71675e-23)
(0.675639 -0.19528 -5.41439e-21)
(0.600969 0.268803 -4.86846e-21)
(1.0434 0.0240398 8.73044e-21)
(1.01617 0.0106997 0)
(0.98991 0.253277 9.97456e-21)
(1.01049 0.00162542 1.64746e-22)
(0.993821 0.0839619 7.97856e-21)
(1.04954 0.0253135 -1.81893e-21)
(0.98751 -0.0815408 -1.93002e-22)
(1.02237 0.0139633 0)
(1.02528 0.00772402 0)
(1.02062 0.00489662 2.31134e-21)
(1.02075 -0.11474 0)
(0.906164 -0.267207 7.47918e-21)
(1.00113 -0.0714371 0)
(1.09855 0.0304365 0)
(1.00846 0.00936497 -2.44485e-22)
(1.02028 0.00477503 1.14711e-22)
(1.02374 0.015294 1.7882e-22)
(1.0157 0.002666 -2.29168e-21)
(1.01898 0.000742709 2.1232e-21)
(1.17459 -0.00951062 1.23011e-20)
(0.873475 0.236806 0)
(0.919564 0.320318 -2.3175e-20)
(0.949328 0.13925 1.22841e-21)
(1.02947 0.00221759 -3.09443e-21)
(1.04533 0.0212123 0)
(1.02764 0.0290384 0)
(1.01087 0.00230504 1.26981e-22)
(1.01286 0.00336579 2.54206e-23)
(1.03189 0.0026647 6.24796e-22)
(1.01052 -0.00147411 7.56072e-22)
(1.02128 0.00699193 7.13686e-22)
(1.01559 0.00251033 0)
(1.05368 0.0878166 0)
(1.00951 0.001599 -6.52781e-22)
(0.940138 0.142394 -9.37133e-22)
(1.02287 -6.57183e-05 -1.23054e-21)
(1.00187 0.105514 6.78527e-21)
(1.06057 0.165655 -1.98806e-20)
(1.01296 0.00337201 -5.36837e-22)
(1.0236 0.0150512 1.03459e-21)
(0.712446 -0.132103 0)
(1.01695 0.00163224 0)
(0.887194 0.329709 1.68844e-20)
(1.01106 0.000668628 6.93275e-22)
(1.15632 0.0378117 1.02886e-21)
(1.02045 0.0112074 -6.96265e-23)
(1.01351 0.000273656 0)
(1.02615 0.0299482 0)
(0.956339 0.0547176 0)
(0.960234 0.0349474 0)
(1.00348 -5.06573e-05 -9.38287e-22)
(1.00976 -0.000304622 0)
(1.02891 0.0479303 0)
(1.04402 0.0248202 -8.65914e-21)
(0.99743 0.105166 -9.65955e-21)
(1.01569 0.000821983 6.07902e-22)
(1.03265 0.123695 1.31108e-20)
(1.00946 0.00159342 -4.82961e-22)
(0.897591 0.171374 0)
(1.00583 -7.38912e-05 1.11041e-23)
(1.0123 0.00328539 2.48767e-22)
(0.969817 0.197641 0)
(1.00474 0.00455209 6.20365e-22)
(0.994146 -0.00208001 -6.53835e-22)
(1.0058 -7.58324e-05 0)
(1.02394 0.0152125 4.50627e-22)
(1.01525 -0.0073687 0)
(0.915502 0.0660996 0)
(0.821578 0.236961 2.9827e-21)
(1.0302 0.0207448 7.2876e-21)
(1.02524 0.00664607 0)
(1.00525 -4.25898e-05 0)
(1.02662 0.0179103 7.88174e-23)
(1.01984 0.00956118 -5.07692e-22)
(1.03047 0.0202778 -3.16482e-21)
(0.847376 0.304608 -1.37627e-20)
(1.00823 -9.98824e-05 -7.05393e-22)
(0.995595 0.0278293 0)
(1.01695 0.00782954 1.16023e-21)
(1.005 -6.71242e-05 -1.91865e-22)
(1.02651 0.0186449 -2.25334e-21)
(0.965746 0.0570897 5.6968e-22)
(1.01933 -0.00157259 -7.9337e-22)
(1.0251 -0.0434222 0)
(1.01134 -0.00445159 1.07095e-21)
(1.04352 0.0530436 7.33507e-21)
(1.03588 0.140951 0)
(1.01273 -0.00180062 0)
(1.01072 0.00213044 0)
(0.615786 -0.108827 -7.48705e-21)
(1.01318 0.00868159 3.58239e-22)
(0.477516 -0.0599516 1.27457e-21)
(1.04089 0.0146656 1.38386e-21)
(1.01564 0.00873586 4.42232e-22)
(1.0156 0.00231663 0)
(1.01064 0.00104396 -4.30276e-22)
(1.0063 0.0146441 2.65588e-21)
(1.01857 0.0108616 -7.33186e-22)
(1.01495 -0.00152131 1.1149e-22)
(1.03343 -0.0950542 -4.92568e-21)
(0.80636 -0.279689 2.07016e-20)
(1.01222 0.00326306 -5.58438e-22)
(0.839135 0.22216 0)
(0.858405 0.217047 2.2338e-21)
(1.01726 0.018699 7.38238e-22)
(0.957476 0.205946 0)
(1.0111 -0.000396442 -8.1358e-23)
(0.868678 -0.138317 -6.98769e-21)
(1.02907 -0.0786321 -7.91154e-22)
(1.01368 -0.00213184 1.22642e-22)
(1.02301 0.160104 5.87365e-21)
(1.02637 0.0555348 -5.3942e-22)
(1.01743 0.271021 0)
(0.899492 0.0543241 -8.56334e-22)
(1.01045 -0.000879228 -2.48295e-22)
(1.01058 0.000950423 -8.20584e-22)
(1.0045 -2.54654e-05 -5.30683e-22)
(0.980178 0.0139257 5.45479e-22)
(1.04537 0.0727832 1.75018e-20)
(1.01338 0.00507912 -1.94657e-22)
(1.03101 0.00796817 -4.1922e-21)
(1.02127 -0.0912995 1.56728e-20)
(1.02134 0.00985006 0)
(1.02554 0.0571916 6.62224e-22)
(1.01091 0.00120948 0)
(1.03007 0.0533975 0)
(0.778772 0.276216 3.00793e-21)
(1.03466 -0.0981511 0)
(1.04181 -0.00316419 5.52729e-22)
(1.02866 -0.0819165 2.10143e-22)
(1.01384 0.00496014 -6.61597e-22)
(0.907967 0.254373 4.1215e-21)
(1.02373 0.0150515 -1.06177e-21)
(1.01018 0.00187738 -1.97147e-22)
(1.02527 0.0161215 -7.69176e-23)
(0.905985 0.0362541 1.98467e-21)
(1.00867 0.0100032 0)
(1.05332 0.0689926 1.74054e-21)
(1.01351 0.00508933 0)
(0.95789 -0.126137 0)
(1.01339 0.000511101 0)
(1.01616 0.00915194 -4.14285e-22)
(0.696212 0.102861 -9.40553e-21)
(1.00359 -4.89668e-05 1.26646e-21)
(1.02585 0.0158095 0)
(0.996465 7.99845e-05 0)
(1.02421 -0.0366613 5.974e-21)
(1.02034 0.00146288 -2.51791e-21)
(1.01453 0.0011673 -2.2155e-21)
(1.02594 0.0178309 0)
(1.02428 0.0152401 6.8277e-22)
(1.01048 -0.000462788 0)
(1.01723 0.000824997 -1.26173e-21)
(1.02489 0.0336875 2.28097e-22)
(0.907538 -0.0244638 4.94893e-21)
(1.0251 0.0152216 -2.81933e-21)
(1.00619 6.83021e-05 8.86782e-22)
(1.007 0.00674573 5.03901e-22)
(1.05587 0.123022 0)
(1.01308 0.00455893 -1.48102e-22)
(1.03655 -0.0688674 -2.08821e-22)
(1.0319 0.251605 -4.06794e-21)
(1.02078 0.00473951 -5.48831e-21)
(0.645966 -0.274858 3.84095e-21)
(1.01092 -0.000523834 -3.04102e-22)
(0.916853 0.177703 0)
(1.01713 0.00312108 1.68315e-21)
(1.01473 -0.00137861 0)
(0.977807 0.198001 -1.17592e-20)
(1.02223 0.014228 0)
(0.879405 0.229197 0)
(1.02522 0.0150175 2.49606e-21)
(1.01459 0.00112271 -1.22165e-21)
(0.660869 -0.288124 -1.56431e-21)
(1.01696 0.00314164 -1.5226e-21)
(1.00944 -0.00032309 0)
(1.01252 0.000519666 1.06035e-21)
(1.01029 0.00195367 0)
(1.02645 0.0158832 0)
(1.01155 0.0121849 -1.49865e-22)
(0.715077 -0.238668 -2.56809e-21)
(1.00357 -1.08512e-05 0)
(0.899766 0.330921 3.50436e-22)
(1.01168 0.00695964 0)
(1.05113 -0.0621408 0)
(0.791053 0.171435 -4.72283e-21)
(1.01675 0.0111905 -1.23156e-22)
(1.01718 0.00446078 -3.37017e-21)
(1.02393 0.015092 -5.47265e-22)
(1.01168 -0.00127688 -2.75062e-22)
(1.01136 0.141994 1.13839e-20)
(1.0137 0.0032805 -3.44896e-22)
(1.00958 -0.000379617 2.91798e-22)
(1.01097 -0.000365056 9.92419e-22)
(1.0134 0.00500343 6.62876e-23)
(1.01669 0.00161684 0)
(0.943668 0.213626 1.1212e-20)
(1.00834 0.0163184 0)
(1.01423 0.0621462 0)
(1.01277 -0.000206852 2.59467e-21)
(1.0209 0.00118494 -1.57825e-21)
(1.01194 0.0160157 2.01934e-22)
(1.00468 -0.00120028 0)
(1.04492 -0.0273748 -2.32272e-22)
(1.00899 -0.00016195 -7.13511e-22)
(1.0221 0.117449 -9.70376e-21)
(1.00606 0.00211544 1.2055e-21)
(1.01048 -0.000312158 -2.82163e-22)
(0.856816 0.238422 5.05977e-21)
(0.769334 0.266168 1.06424e-21)
(1.00639 -6.67901e-05 -2.37267e-24)
(1.06388 -0.026193 0)
(1.00511 -3.34758e-05 0)
(0.974643 0.0288814 5.06776e-22)
(1.04203 0.0523002 7.05345e-21)
(1.0136 -0.00214188 -6.72201e-23)
(1.03 0.049676 -4.56432e-21)
(1.02474 0.015932 -7.91634e-23)
(1.05478 -0.0487055 0)
(1.00593 -2.52619e-05 0)
(1.04286 0.0205426 0)
(1.07627 -0.088538 0)
(1.06123 -0.0381045 2.8559e-21)
(1.00931 0.0508431 3.17569e-21)
(1.01664 0.00170528 1.77109e-21)
(0.970993 -0.0276572 -6.79227e-22)
(1.04996 0.11176 3.57021e-21)
(0.907491 -0.143185 6.00489e-21)
(1.01582 0.000925011 -6.13351e-22)
(1.03084 0.0155191 6.14185e-21)
(1.01056 -0.000880999 -1.24678e-23)
(1.01758 0.0071843 0)
(1.01159 0.00289672 -8.66462e-23)
(1.00652 -8.17269e-05 -6.88322e-23)
(1.00838 -0.000160727 0)
(1.06478 -0.0380235 6.92694e-22)
(1.00609 0.000127385 0)
(1.00693 9.38854e-05 0)
(1.0092 -0.000359634 -6.33515e-22)
(1.0073 -0.000130699 2.89288e-22)
(1.01867 0.00979175 1.30076e-21)
(1.05904 -0.0330216 -5.1541e-21)
(1.04719 0.109385 -3.1865e-21)
(1.01166 -0.000419357 1.57434e-21)
(1.02431 0.0154625 -5.95541e-22)
(1.01517 0.00742381 2.68588e-22)
(1.01481 0.00748278 2.04759e-22)
(1.00988 -0.00129762 0)
(1.01044 0.00199608 -1.52129e-22)
(1.00399 0.0253968 0)
(1.00937 -0.000372864 0)
(1.00983 0.00167334 -3.66543e-22)
(1.00455 2.49467e-05 0)
(1.02068 0.00824132 1.40363e-21)
(1.01087 0.0014853 0)
(1.01506 0.00224149 -3.83437e-22)
(1.03355 0.2403 1.48315e-20)
(1.18433 0.0509041 2.39116e-21)
(1.02941 0.0207374 -4.05327e-21)
(1.00967 0.00160598 3.58173e-22)
(1.05691 0.174544 1.12827e-20)
(1.00948 -0.000378047 0)
(1.00935 -0.000376993 5.8423e-22)
(1.01451 0.00236004 -3.62958e-24)
(1.00559 0.045742 -2.08593e-21)
(1.01022 0.0162568 4.97449e-22)
(1.01401 0.00191988 -7.41143e-22)
(1.01108 -0.000375918 0)
(1.00875 -0.000149146 0)
(1.00614 0.0161321 -1.38075e-21)
(1.00942 -0.000321262 7.77704e-22)
(1.0013 0.0128274 0)
(1.01353 0.00317844 -5.85678e-22)
(1.02072 0.00958115 -2.9239e-22)
(1.01158 0.00291955 1.28072e-22)
(1.0307 0.0152511 5.93809e-21)
(1.00571 -0.202972 -4.45042e-21)
(1.01013 0.00187318 1.9696e-22)
(1.0227 0.0102751 0)
(1.00742 0.000298742 9.58692e-22)
(0.880873 0.0835548 -3.22784e-21)
(0.97411 -0.0743151 -7.30011e-22)
(1.04016 0.0313374 -8.17664e-21)
(1.01829 0.0108814 0)
(1.02129 0.00600357 1.77154e-23)
(1.02336 -0.00132767 -2.71093e-23)
(1.00033 0.0201223 1.21558e-21)
(1.06527 0.268617 0)
(1.00416 -2.09835e-05 -4.0075e-22)
(1.01472 -0.0710021 0)
(1.02276 0.0104748 0)
(0.94813 0.116385 1.70241e-21)
(1.01503 0.00251715 1.76314e-21)
(1.01127 -0.00038938 3.34192e-22)
(1.01162 -0.00192627 0)
(0.878114 -0.0785674 8.81517e-22)
(1.01151 -0.00164776 0)
(1.04062 0.0320201 1.70764e-20)
(1.02348 0.0079066 -6.83952e-22)
(1.00743 0.187877 1.72729e-20)
(1.04258 0.0229401 -1.58388e-21)
(1.00582 0.000157399 2.83026e-22)
(1.00681 8.49816e-05 -1.0808e-21)
(1.0068 -6.29294e-05 2.67811e-23)
(1.01297 0.00442534 2.27462e-22)
(1.04575 0.0358574 0)
(0.953465 0.101316 4.76752e-21)
(0.931076 0.0937224 -5.69248e-22)
(1.00244 0.0461101 0)
(1.0232 0.00237709 0)
(1.00958 -0.000314396 -4.21029e-22)
(1.00601 0.000203086 0)
(1.0116 0.00294222 0)
(1.00995 0.000874813 0)
(1.02392 0.00948993 -1.62072e-21)
(1.01233 0.0608287 0)
(1.0066 0.00117443 -4.31008e-22)
(0.977399 0.0453296 0)
(1.02281 0.00233933 0)
(1.01958 0.00240608 -5.31817e-22)
(1.02679 0.0327292 -2.48995e-22)
(1.01571 0.00245382 0)
(1.04857 0.179775 3.61559e-20)
(1.00287 0.049054 4.40609e-21)
(1.01132 0.00454586 0)
(0.980338 0.155157 1.65416e-20)
(1.10015 0.274359 0)
(1.00626 0.0248654 1.14055e-21)
(1.0108 0.0022538 2.07326e-22)
(1.00956 -0.00032676 4.37416e-22)
(1.02535 0.00709814 -5.24729e-21)
(1.01365 0.000690913 0)
(0.904133 0.0202009 -2.81466e-21)
(1.04039 0.0717827 1.17473e-20)
(1.00823 0.137272 -1.59146e-20)
(1.01084 -0.000408243 1.96097e-22)
(1.02063 0.00798658 -2.68431e-21)
(1.01273 0.00782765 2.21018e-22)
(1.01006 0.00088123 -4.60675e-22)
(1.07915 0.267304 0)
(1.04468 -0.00674319 -3.91524e-22)
(1.00952 -0.000384342 1.5529e-22)
(1.01154 -0.0013747 0)
(1.00593 -4.80388e-05 3.09277e-22)
(1.01164 0.00298076 -4.86532e-23)
(1.01032 0.00212838 6.76354e-22)
(1.01023 -0.0010691 1.03171e-21)
(1.01988 0.223817 2.44661e-20)
(1.01153 -0.0019321 0)
(1.01529 0.00300907 6.1717e-23)
(1.01078 -0.000415439 -9.88065e-22)
(1.00803 0.000262414 -7.28313e-22)
(1.01165 0.00295598 -2.12433e-23)
(1.01732 0.00697042 0)
(1.00099 0.00746194 2.16344e-21)
(1.00801 0.00025152 7.34401e-22)
(1.00611 0.00567584 -6.15371e-22)
(1.01111 -0.000365048 -6.80576e-22)
(1.00245 0.0214018 6.3918e-23)
(0.965804 0.206675 0)
(1.0075 0.0110457 7.77498e-22)
(0.966464 0.00301354 3.25023e-22)
(1.01165 -0.00638878 -4.83598e-22)
(1.02943 0.00813829 -5.55323e-21)
(1.01312 0.0967149 -6.79239e-21)
(0.958699 -0.0327343 0)
(1.0134 0.000534962 -8.64235e-22)
(1.0069 -1.6743e-05 -6.4153e-22)
(1.00777 0.000121799 9.99386e-25)
(1.01632 -0.0120274 0)
(1.0035 -6.25685e-05 0)
(1.00465 0.0240493 0)
(0.988478 0.00833855 -5.76175e-22)
(1.01729 0.00739814 1.18954e-21)
(1.01553 0.0040369 7.67817e-22)
(1.02046 0.000943629 2.67591e-21)
(0.937944 0.113362 2.14359e-21)
(0.988751 -0.0102514 -5.70347e-22)
(1.00352 1.45882e-05 -6.66933e-22)
(1.00692 -5.67236e-05 -1.70035e-21)
(1.00945 -0.00169586 -2.14623e-21)
(1.00391 0.0208916 0)
(1.01267 0.00356108 8.03471e-22)
(0.96187 0.0440337 5.04561e-23)
(1.00738 0.000185381 4.89133e-24)
(1.0103 -0.000399184 0)
(1.02925 0.021222 8.49292e-22)
(1.11333 -0.00231287 2.35237e-22)
(1.09701 0.042381 0)
(0.971985 0.0128043 -6.04327e-22)
(1.02591 0.228145 -4.11335e-20)
(1.01046 -0.000312893 5.88194e-22)
(1.01239 0.0117754 1.58399e-21)
(1.07813 0.0227867 1.48149e-21)
(1.01058 -0.00415673 -7.24945e-22)
(1.01286 0.00434865 1.36416e-22)
(1.0778 0.0160238 -1.81266e-21)
(1.02083 0.00381939 0)
(0.862451 0.0559258 0)
(1.11097 -0.0110823 -6.05186e-22)
(1.00666 -0.000161455 4.72726e-24)
(1.01045 -0.000325227 0)
(1.02071 0.00143114 2.6122e-21)
(1.01373 0.00294769 -1.62378e-21)
(1.01063 -0.000308981 -1.56226e-22)
(0.970179 -0.00262424 2.187e-21)
(0.948422 0.0194161 -1.67955e-21)
(1.00908 -0.000306099 -9.45892e-22)
(1.01726 0.0076375 -2.35315e-21)
(1.01891 0.0105791 -4.498e-22)
(1.03393 0.0548932 -1.07987e-20)
(1.01302 0.00460046 3.25018e-23)
(1.01077 -0.000770204 2.1169e-22)
(1.0001 0.00870234 0)
(1.01172 0.00270243 6.78197e-22)
(1.015 -0.00149995 -8.11706e-22)
(0.98191 0.0118203 -1.61742e-21)
(0.958433 0.0923202 4.44771e-21)
(0.987613 0.104066 1.44739e-21)
(1.01368 0.000778292 0)
(1.01003 -0.000284563 0)
(1.00934 -0.000325123 0)
(1.01231 -0.00101172 -7.60549e-22)
(1.00505 0.000281953 0)
(1.01195 0.0117697 -1.27708e-23)
(1.00998 0.00198139 0)
(1.00713 -5.27782e-05 0)
(1.00789 -0.00314739 0)
(0.976155 -0.0366756 -5.7067e-22)
(1.00817 4.32702e-05 7.01765e-22)
(1.01751 0.00103881 -1.65626e-21)
(0.963226 0.0304164 2.3291e-21)
(1.01033 0.00216323 8.14902e-22)
(1.00871 0.00113306 1.59818e-21)
(1.01698 0.00278804 3.27136e-21)
(0.948333 -0.0701027 0)
(1.00995 -0.000280082 -2.97615e-22)
(1.01993 0.00240556 0)
(1.00828 3.13515e-05 -7.13263e-22)
(1.01676 0.00398212 0)
(1.00976 -0.000264308 -2.5896e-22)