/*--------------------------------*- C++ -*----------------------------------*\
| =========                 |                                                 |
| \\      /  F ield         | OpenFOAM: The Open Source CFD Toolbox           |
|  \\    /   O peration     | Version:  v2012                                 |
|   \\  /    A nd           | Website:  www.openfoam.com                      |
|    \\/     M anipulation  |                                                 |
\*---------------------------------------------------------------------------*/
FoamFile
{
    version     2.0;
    format      ascii;
    class       volScalarField;
    location    "850";
    object      k_0;
}
// * * * * * * * * * * * * * * * * * * * * * * * * * * * * * * * * * * * * * //

dimensions      [0 2 -2 0 0 0 0];


internalField   nonuniform List<scalar> 
9793
(
0.000149428
0.015907
0.000147573
0.027167
0.000149704
0.000202561
0.000172219
0.0453728
0.000149093
0.00773803
0.000149246
0.00014918
0.000147311
0.046514
0.000147343
0.000159903
0.000171925
0.000147504
0.031547
0.000145031
0.000146157
0.000149939
0.0263352
0.0463285
0.048432
0.00015478
0.00014856
0.000149722
0.000145084
0.000175568
0.0172743
0.000218876
0.000147987
0.000147553
0.000147053
0.00016098
0.000156306
0.000153162
0.0383359
0.000161425
0.000173135
0.0810246
0.0402315
0.000149793
0.000147698
0.000148171
0.0235015
0.000149885
0.000147587
0.000147551
0.000160823
0.000146879
0.000167324
0.000149769
0.000158578
0.0290942
0.000147365
0.000187624
0.000147584
0.000149937
0.000154912
0.000168973
0.000147631
0.000168884
0.000147576
0.0001488
0.00769098
0.000154312
0.000157336
0.041213
0.000148107
0.000168818
0.0408867
0.108976
0.0498378
0.000149724
0.000161855
0.0770338
0.000147806
0.000149783
0.000162417
0.03216
0.000171773
0.000152382
0.000157351
0.000197701
0.000149714
0.000184542
0.038758
0.000168522
0.0299508
0.000426688
0.000701624
0.000165088
0.0395554
0.000147337
0.0519488
0.000170101
0.000154507
0.000149769
0.036757
0.000166019
0.0752154
0.000147721
0.052456
0.0754523
0.104497
0.00014702
0.000147831
0.000149878
0.000149514
0.0281551
0.000403749
0.0133876
0.000148001
0.000148653
0.000156212
0.00014823
0.0314334
0.000148075
0.0515371
0.00018543
0.0640006
0.000170718
0.000156356
0.000148109
0.000173354
0.0210688
0.000342074
0.000316709
0.000154284
0.00014664
0.000149184
0.000152821
0.000159433
0.000183361
0.00360804
0.000156275
0.000149806
0.000174638
0.0333128
0.000159979
0.000147861
0.000179644
0.0229798
0.000211065
0.00014811
0.0498652
0.000146646
0.000148072
0.000148367
0.039397
0.00015381
0.000148514
0.0001477
0.000321829
0.000173087
0.000147595
0.0004674
0.000147727
0.00018262
0.000154527
0.000146198
0.000184319
0.000149436
0.0682481
0.0698457
0.000150148
0.000147024
0.000149396
0.000147948
0.0111401
0.025686
0.0471322
0.00014727
0.000200274
0.000174563
0.00020013
0.000147721
0.000154305
0.055506
0.019353
0.000188448
0.000148125
0.000148375
0.00014698
0.0706747
0.0378648
0.0151571
0.0788894
0.000148433
0.0162346
0.000191577
0.000153651
0.000148002
0.000151355
0.000313075
0.000145198
0.000147492
0.000149298
0.000148224
0.000146421
0.000162302
0.000157033
0.0339341
0.000147843
0.000159125
0.000150189
0.000149323
0.000191847
0.000173816
0.0340355
0.00014538
0.0390953
0.000152419
0.000178376
0.000147407
0.000183201
0.000148712
0.000162349
0.000171096
0.000146407
0.000255479
0.0524634
0.000164382
0.000147299
0.000174554
0.0590274
0.000162526
0.000162691
0.0347223
0.000195767
0.000176475
0.00016954
0.000187187
0.000146563
0.0300055
0.015799
0.000145201
0.000149432
0.0791047
0.000147586
0.0001495
0.000195738
0.000198211
0.000148724
0.00015443
0.000159979
0.000160901
0.000154809
0.000147755
0.000164645
0.0273533
0.000146304
0.0489462
0.000149721
0.000149056
0.000145664
0.0298208
0.00014777
0.00168885
0.0418995
0.00014858
0.000148781
0.00801462
0.000148165
0.000149558
0.000147937
0.0403897
0.000181142
0.000153304
0.000192027
0.000185349
0.0709936
0.0242919
0.000150213
0.0200479
0.000149737
0.0604926
0.000632285
0.0405339
0.0509174
0.000197111
0.000154456
0.000170274
0.000156269
0.000148256
0.000150689
0.000192252
0.000154923
0.00014884
0.000149881
0.000145373
0.000146988
0.000146303
0.028084
0.000146965
0.000147193
0.000149071
0.000147319
0.02232
0.000213459
0.000164666
0.000150481
0.000179549
0.000150211
0.0745449
0.0323052
0.000147745
0.0435907
0.000167098
0.000147678
0.0118697
0.0948938
0.00014804
0.000165048
0.000779166
0.000148727
0.000158313
0.000147212
0.000149027
0.0645976
0.000161412
0.000147609
0.000148044
0.000150254
0.000178313
0.000408341
0.000147597
0.00014698
0.000147458
0.00931787
0.0271446
0.0352525
0.000146373
0.000162115
0.000158562
0.000266025
0.000179876
0.000146683
0.000147152
0.000147449
0.000170012
0.000148486
0.0475422
0.000148485
0.000146506
0.0680092
0.0289458
0.0377551
0.000147696
0.036393
0.000153497
0.000410589
0.0485565
0.0341528
0.000152044
0.000162278
0.00545533
0.0306098
0.0286013
0.000154473
0.000149732
0.000153687
0.000147372
0.000146857
0.000148374
0.000148438
0.000149941
0.0514049
0.000149318
0.000172875
0.000161267
0.0860265
0.000146679
0.000152611
0.0206989
0.000198106
0.050595
0.000179067
0.000146499
0.000152207
0.000147587
0.00020769
0.000144864
0.0378887
0.000175026
0.000171941
0.0318526
0.0654629
0.00014882
0.000147262
0.0147997
0.000210505
0.000147826
0.0438635
0.000148777
0.000149094
0.000508381
0.000145366
0.000187472
0.000146584
0.0687318
0.000148522
0.000149504
0.0646098
0.00016828
0.000183683
0.000153736
0.000148378
0.000147034
0.0593501
0.000169618
0.000145734
0.00014923
0.000159174
0.000158592
0.00018362
0.018854
0.000149237
0.000147533
0.000187196
0.000148423
0.0289019
0.000199453
0.000148321
0.000148021
0.000150529
0.000148671
0.000147383
0.037439
0.00016262
0.0170854
0.000156187
0.00015379
0.000170558
0.000152889
0.0321137
0.000154377
0.000149764
0.000154405
0.000209104
0.000147937
0.000147757
0.00014813
0.000144884
0.000147809
0.000147252
0.000148184
0.000148965
0.000150545
0.000156138
0.00019669
0.000149743
0.000267557
0.000154006
0.000179259
0.0234416
0.000148255
0.0721582
0.00017218
0.000148013
0.0001449
0.0001479
0.0604247
0.000185217
0.000144875
0.000148703
0.000149249
0.000164823
0.000175294
0.0776469
0.000147669
0.000147711
0.000157492
0.0207967
0.0397718
0.000151753
0.000153298
0.0503566
0.0692477
0.00098998
0.000148863
0.000146573
0.034804
0.000147391
0.000174608
0.0868479
0.000145608
0.000178526
0.00015787
0.0347549
0.000147009
0.0325712
0.000206856
0.000159088
0.00513661
0.00014736
0.000257071
0.000148527
0.00014722
0.000149439
0.000147587
0.0461589
0.000147312
0.000147389
0.000150422
0.000146405
0.000146588
0.000164631
0.000150485
0.000168028
0.000148088
0.000148117
0.0233338
0.000166079
0.00015167
0.0483634
0.000155352
0.00014893
0.000147793
0.000147399
0.0411578
0.000147375
0.00014832
0.0189105
0.0781726
0.000161181
0.000147362
0.000149883
0.000149337
0.000149566
0.0486852
0.000148886
0.0907287
0.000155497
0.000281194
0.000149721
0.0100401
0.000152852
0.000182666
0.000147441
0.000197644
0.0235946
0.000148586
0.0846056
0.000147492
0.000149404
0.000146007
0.0612927
0.0334609
0.000147941
0.000158696
0.00014738
0.0511271
0.000148471
0.000164993
0.0333769
0.000153471
0.00014802
0.000161818
0.000149599
0.000149556
0.000147519
0.000194725
0.000147536
0.0534219
0.000148213
0.000148576
0.000172428
0.000166311
0.0504502
0.00014705
0.0109834
0.000147231
0.000179425
0.000147642
0.000150034
0.00014736
0.000148199
0.000149766
0.0001799
0.000176461
0.0828774
0.000182849
0.000158888
0.000159134
0.000393937
0.00015341
0.0477001
0.0320446
0.000185194
0.0333536
0.0829299
0.000178426
0.000149596
0.00048611
0.000172406
0.000149641
0.000192744
0.000149641
0.000192434
0.000160278
0.000121343
0.000155281
0.030592
0.0324914
0.000170629
0.000158497
0.000149384
0.000205553
0.000150479
0.00014745
0.000148408
0.00015445
0.000168519
0.0354339
0.000182685
0.0308045
0.000152768
0.000151512
0.0349704
0.000184284
0.000152632
0.000177085
0.000149391
0.000470271
0.0675844
0.000148282
0.000164723
0.000179602
0.0314701
0.000147541
0.00015413
0.0644173
0.000161663
0.0768787
0.000196885
0.0859941
0.000154208
0.000153626
0.000148111
0.000147681
0.0061226
0.000149884
0.0162959
0.000187228
0.000170864
0.000149706
0.000149443
0.000154493
0.000149902
0.000146716
0.000147608
0.000180936
0.0637091
0.0486055
0.000149849
0.000195406
0.000147531
0.0297429
0.000175038
0.000161801
0.000158405
0.000204011
0.00014612
0.000148306
0.000161175
0.000147413
0.000149137
0.000175465
0.0378492
0.000146423
0.00484444
0.040486
0.000155065
0.0617797
0.0410041
0.000147401
0.000171729
0.000160928
0.00014838
0.000145877
0.000168735
0.0409295
0.0396347
0.000148011
0.000148004
0.000146123
0.0001571
0.000150511
0.000152096
0.00019808
0.000175078
0.000148921
0.0463178
0.000162315
0.000158304
0.000148963
0.00601932
0.000154137
0.00014727
0.000171334
0.000318934
0.000145942
0.000148223
0.000147614
0.000158194
0.000146089
0.000170847
0.00176027
0.000148869
0.000195015
0.000152066
0.000148726
0.0526948
0.0311471
0.00954229
0.000148402
0.000146182
0.0934689
0.000153982
0.0773998
0.000145684
0.000147519
0.0158913
0.0863214
0.00016053
0.000190006
0.000164566
0.00014728
0.000149793
0.000148134
0.0359141
0.000148236
0.000149947
0.0315579
0.000155155
0.000206136
0.000157831
0.000147429
0.0310492
0.000149765
0.000147571
0.000148071
0.000157505
0.0246527
0.000148998
0.000147736
0.000147402
0.000147306
0.000147476
0.000148206
0.0446259
0.000157983
0.000150332
0.000148634
0.000158
0.000173688
0.000159886
0.000155762
0.000149883
0.00014606
0.000151664
0.0310836
0.0666207
0.000153427
0.0364431
0.000149379
0.000153762
0.000198346
0.000320419
0.000147315
0.00014913
0.000187159
0.000174719
0.000147195
0.000149623
0.0530196
0.000149767
0.000172663
0.000147989
0.000198525
0.000149615
0.000152764
0.000148748
0.000159983
0.000149687
0.000152841
0.000154229
0.000173954
0.00014693
0.000147881
0.000149633
0.000147182
0.000149492
0.000149021
0.000161613
0.000148639
0.000176902
0.0535283
0.000168689
0.000175747
0.000149283
0.000147528
0.0145599
0.0971216
0.000145768
0.0592698
0.0178468
0.000146257
0.000147715
0.000147081
0.000174935
0.000177916
0.000316804
0.000146887
0.000154455
0.000146887
0.000149152
0.000152431
0.000171117
0.000149408
0.000198282
0.000148523
0.000165119
0.000147133
0.000150926
0.000147626
0.000174232
0.000164231
0.0214674
0.105849
0.0578035
0.000172942
0.000147546
0.000301795
0.000416364
0.00018067
0.000149061
0.000148463
0.000298967
0.00014704
0.0253213
0.000146742
0.000163513
0.000149777
0.000149779
0.000147351
0.0857742
0.0373652
0.0258934
0.000165811
0.0192092
0.000147621
0.0569384
0.0732376
0.000149785
0.000148471
0.000146017
0.0740203
0.000145461
0.0451531
0.000157821
0.000192651
0.000149236
0.000220303
0.0168807
0.000286914
0.000156963
0.000163043
0.00014812
0.0414751
0.000145474
0.000203646
0.000194167
0.00016558
0.0795942
0.0424892
0.000154053
0.000151825
0.00014749
0.000201838
0.0466299
0.0149396
0.000146107
0.000416674
0.00015919
0.000199045
0.000171413
0.0387829
0.0401546
0.000147162
0.000154319
0.000163767
0.000155463
0.000155154
0.0691922
0.000149247
0.0750514
0.000147753
0.000146946
0.000172519
0.000191291
0.0730011
0.00015089
0.0152751
0.0281569
0.000221017
0.00015474
0.000149509
0.00015087
0.000149466
0.000147684
0.000217517
0.0637966
0.000149186
0.000147672
0.000165364
0.000276264
0.000155271
0.000147662
0.000189552
0.000147565
0.000149816
0.000145607
0.000181548
0.000148091
0.000156951
0.0222089
0.00017316
0.000153208
0.000484534
0.000171221
0.000147537
0.000152766
0.000164547
0.000149724
0.000147638
0.000146867
0.0649406
0.0528725
0.000148977
0.000165612
0.000159087
0.000206728
0.000147925
0.0544574
0.000146912
0.000146161
0.000202737
0.000103645
0.0001783
0.00014829
0.000147188
0.0220038
0.0384845
0.00019185
0.00032066
0.000148584
0.000154894
0.00014801
0.0123199
0.000152478
0.0688977
0.000150148
0.000148118
0.000154362
0.000146417
0.000146998
0.000166085
0.000146461
0.0572837
0.000147897
0.00014886
0.000145875
0.000156923
0.049056
0.0261272
0.000178641
0.0231706
0.000147748
0.000160333
0.000153323
0.08371
0.000148448
0.000146976
0.0800417
0.00015926
0.00015803
0.000148646
0.0003074
0.0834117
0.0408204
0.000148695
0.000158601
0.000220341
0.000165791
0.000240446
0.000186636
0.000172599
0.000147268
0.000149892
0.000180907
0.000166851
0.000147796
0.000200391
0.00014607
0.000149146
0.000149096
0.000146896
0.000147568
0.000147832
0.00021168
0.000155234
0.000151558
0.000164593
0.000146341
0.000147616
0.00016311
0.0436368
0.000167129
0.000170819
0.0608819
0.000149517
0.0530902
0.000157428
0.0139661
0.000166056
0.000149283
0.000149292
0.000153233
0.0445672
0.00028423
0.000165879
0.000175318
0.000145953
0.000147658
0.000149619
0.000149277
0.0180914
0.000156438
0.000148613
0.000193999
0.000183762
0.0696604
0.00015104
0.0762109
0.000163381
0.000169117
0.000166284
0.000191701
0.000187254
0.000149135
0.0411955
0.000434188
0.000159938
0.0406168
0.000172104
0.000149798
0.000149735
0.000147596
0.000150933
0.000155009
0.0217391
0.000174909
0.000147017
0.00018992
0.000147888
0.024676
0.000461945
0.000147581
0.0224194
0.000147792
0.000147104
0.000149315
0.0401781
0.0423949
0.000175513
0.000157305
0.000147589
0.000215779
0.000149497
0.000159819
0.000148502
0.000148752
0.000148336
0.0723815
0.000150328
0.000160735
0.000157223
0.000149354
0.000185512
0.000181596
0.00016816
0.000154037
0.000153878
0.0340862
0.0660991
0.000148766
0.000146912
0.00014876
0.000150009
0.0271187
0.0628169
0.000194498
0.000154342
0.000146534
0.0728438
0.0940078
0.000148999
0.0312049
0.000146052
0.000177811
0.0118244
0.000146232
0.0207904
0.0489912
0.000181146
0.0209895
0.0749554
0.0001472
0.000150092
0.000296651
0.0357379
0.000149803
0.0275629
0.000154774
0.00014754
0.000149808
0.000152821
0.000169132
0.00015547
0.000182495
0.0210433
0.000179286
0.000158516
0.000148391
0.000168071
0.000328006
0.000146791
0.000440025
0.000166821
0.000149415
0.000153183
0.000149571
0.000148875
0.000157534
0.000314982
0.000151009
0.000146457
0.0265697
0.0395138
0.000183502
0.000149716
0.000171504
0.000147611
0.000147357
0.0681247
0.0465989
0.000147297
0.000144472
0.0545714
0.0238696
0.000167184
0.000149042
0.0756187
0.000151509
0.000147364
0.000155263
0.000147372
0.000145892
0.000145311
0.0794493
0.00206406
0.000154625
0.000260829
0.000173275
0.0377617
0.0715642
0.0410782
0.000204507
0.000147875
0.00014955
0.000150201
0.00014779
0.000166572
0.00014705
0.000169496
0.000160305
0.0654306
0.000148215
0.0320181
0.000159099
0.0404252
0.000147321
0.000271216
0.00016401
0.00020999
0.000204734
0.000160215
0.000145287
0.0702644
0.000173784
0.000281109
0.000145669
0.0766183
0.000148085
0.0380471
0.000209762
0.000161168
0.000147567
0.000148476
0.0465229
0.0177177
0.000165119
0.000146451
0.0595336
0.000171246
0.000170995
0.0989017
0.000167179
0.000147751
0.0930255
0.000147616
0.000166565
0.000146647
0.0480197
0.000146639
0.000154435
0.000214466
0.000494123
0.000149429
0.000173116
0.000155668
0.00016698
0.000147036
0.000191282
0.000151393
0.000166259
0.000147844
0.000147741
0.0319772
0.000161615
0.0406246
0.100257
0.0209284
0.000150187
0.000146695
0.000146992
0.000156325
0.000167083
0.000162607
0.0194895
0.000152916
0.0336224
0.000161845
0.000149861
0.000148029
0.000183476
0.00039247
0.0134227
0.000147575
0.0331202
0.00014691
0.0634107
0.000263438
0.000173344
0.000147877
0.000146899
0.000167002
0.000544639
0.000153529
0.000149769
0.000154901
0.000171212
0.000152469
0.000239936
0.03177
0.00048593
0.000148954
0.000157292
0.0741061
0.000149173
0.000164272
0.000147385
0.000216167
0.000160272
0.000147647
0.000162138
0.000175621
0.000148943
0.0629605
0.000147561
0.00019231
0.00018085
0.00102063
0.000184299
0.000149028
0.000148935
0.0184465
0.000148744
0.00016149
0.000185829
0.000152876
0.000145406
0.0763026
0.000153112
0.000190445
0.000153972
0.000165306
0.000149844
0.000188974
0.000153592
0.000154637
0.0660414
0.000219237
0.000148496
0.000149802
0.000175103
0.042321
0.000292486
0.000205555
0.000163456
0.000147683
0.00014681
0.0419984
0.000148827
0.0708066
0.000174986
0.0686395
0.000148595
0.00014608
0.000146484
0.000168477
0.000179927
0.000409053
0.0403868
0.000182496
0.000156069
0.000145137
0.000333064
0.000151044
0.000183701
0.000152023
0.000167218
0.000163819
0.000147615
0.0001451
0.000182409
0.000145639
0.000163782
0.000164967
0.0277753
0.0569204
0.000172971
0.0405692
0.000147042
0.000146675
0.00014837
0.000176511
0.000164723
0.000168113
0.000178298
0.0139801
0.000160997
0.000174264
0.00014743
0.000151507
0.0351768
0.000148311
0.000181984
0.000144426
0.000147219
0.0557037
0.000183508
0.000147356
0.000175848
0.000196901
0.0439781
0.0696739
0.000154335
0.000185792
0.00017675
0.0225568
0.000148498
0.0648666
0.0317802
0.000151743
0.000159166
0.000145619
0.000192184
0.000147788
0.000147801
0.0409729
0.00014909
0.000145416
0.000190455
0.000182756
0.0389584
0.0387619
0.000418573
0.0311188
0.000146958
0.00014758
0.000147361
0.000149306
0.0858371
0.000148625
0.0315877
0.00015101
0.0373791
0.000152678
0.000148692
0.000145667
0.000149024
0.000157462
0.000148978
0.000145278
0.000331989
0.000146784
0.000178558
0.000149623
0.0183906
0.000152717
0.000148407
0.000148963
0.00017339
0.000147213
0.000146209
0.000148491
0.000149376
0.0001566
0.00014725
0.00015183
0.00015742
0.0898637
0.040955
0.0317782
0.0295683
0.000146388
0.000147875
0.000147685
0.000144146
0.000147605
0.000146199
0.0012434
0.000147178
0.000149647
0.000148332
0.000148188
0.000148178
0.0474082
0.000155785
0.000147685
0.0382198
0.00017313
0.000145868
0.0407114
0.0201985
0.000148002
0.000196663
0.000205305
0.000148427
0.000161702
0.000152085
0.000144897
0.00015609
0.000150645
0.00017475
0.000147927
0.000149614
0.000146298
0.00549705
0.00016295
0.000161859
0.000148066
0.000149745
0.0387736
0.000153993
0.000148116
0.000152822
0.000153612
0.00014965
0.000179333
0.023526
0.000287378
0.0391201
0.000177837
0.000160294
0.000149708
0.0398181
0.000185329
0.000150499
0.000175522
0.000149949
0.000147463
0.000149606
0.0739956
0.000162829
0.000147867
0.000148181
0.000202022
0.000146151
0.000192049
0.000147937
0.000263604
0.000201841
0.0796658
0.000148416
0.000151045
0.000157602
0.000159772
0.000149248
0.000160608
0.000167099
0.0831779
0.000149738
0.000192782
0.0724432
0.000145522
0.0410789
0.000161578
0.000185932
0.000178344
0.000147576
0.000156621
0.000170427
0.000145687
0.000155497
0.000144837
0.092544
0.000419462
0.000158516
0.000146663
0.000184936
0.000166062
0.000338383
0.000181407
0.000151745
0.000161267
0.000147645
0.000147771
0.000170165
0.00016319
0.0329653
0.000146753
0.000192456
0.000154924
0.0829089
0.000188713
0.0545414
0.000145115
0.00015059
0.000306513
0.000278932
0.00016113
0.0320719
0.000152456
0.000178224
0.000147259
0.000147206
0.0279167
0.0219042
0.000157166
0.000148524
0.0001666
0.000300303
0.000175486
0.000165413
0.000146426
0.000147976
0.000145899
0.000324244
0.0304459
0.000146855
0.000173455
0.0504945
0.000175558
0.00018756
0.0321075
0.0149738
0.0610765
0.00014703
0.000152164
0.0353841
0.000147163
0.000162688
0.000253013
0.0443834
0.000151325
0.000156896
0.021162
0.000204331
0.000281813
0.0458613
0.0397067
0.03798
0.000148638
0.000145557
0.000147839
0.000151292
0.00894787
0.000163214
0.000187035
0.000190091
0.000163911
0.000148354
0.0183645
0.000146997
0.000163676
0.000147323
0.000160837
0.0148014
0.00104224
0.00014834
0.000145541
0.000174111
0.0985108
0.000186941
0.0410919
0.000161585
0.000148497
0.000166649
0.00014445
0.00016822
0.000157588
0.000147613
0.100219
0.000174453
0.000210723
0.000167817
0.000149167
0.000145947
0.00395222
0.000153399
0.000145531
0.000148875
0.000149677
0.000145643
0.00853785
0.0759082
0.0323854
0.000260728
0.0351599
0.000155324
0.000147626
0.0742895
0.000155261
0.000199805
0.0807934
0.00014693
0.0473188
0.028584
0.000171159
0.000158418
0.000210764
0.000151136
0.000291975
0.000162403
0.0293199
0.000146832
0.000150651
0.000161593
0.000446291
0.000183969
0.000165528
0.0270749
0.0615041
0.000165502
0.000197204
0.000413384
0.000153778
0.000188616
0.00925043
0.000160712
0.00016472
0.059621
0.000166136
0.000160319
0.000148588
0.000167672
0.000169775
0.000167945
0.000148488
0.0825406
0.000174195
0.0304716
0.0227104
0.0313117
0.000161083
0.000267115
0.0805136
0.000146797
0.0315226
0.0973524
0.0830963
0.000156557
0.000152408
0.0410536
0.0607785
0.00014571
0.000178461
0.000146153
0.000147249
0.000471132
0.000153598
0.0294433
0.040726
0.0335497
0.0862669
0.000145271
0.000166653
0.000148234
0.000146774
0.000170323
0.000175123
0.000158199
0.000380406
0.0319627
0.000149803
0.000157972
0.000245405
0.000153448
0.000189465
0.000161918
0.0364681
0.0371318
0.000251218
0.0781557
0.0167021
0.0304955
0.0378542
0.0341699
0.000167223
0.000153414
0.000172071
0.000171636
0.0493958
0.0863862
0.000148782
0.000155692
0.0361343
0.0279508
0.00015638
0.0296561
0.000147793
0.000216253
0.0667323
0.0979275
0.000147327
0.0311995
0.00026085
0.00015585
0.000159626
0.0486445
0.0438908
0.0282864
0.0363442
0.000148194
0.0196661
0.0335745
0.000160509
0.000183503
0.000169244
0.000146015
0.000157444
0.0247046
0.0431798
0.00015453
0.000149068
0.0386869
0.000167547
0.0333786
0.000172442
0.000266511
0.0387991
0.00014785
0.0761343
0.000149891
0.000165002
0.000148426
0.000148408
0.00014578
0.000162589
0.000182524
0.000144506
0.00530753
0.000188336
0.0585815
0.0441171
0.0296745
0.000147226
0.0631052
0.000270591
0.0310759
0.000159668
0.000147621
0.00185947
0.000209709
0.0428387
0.000163198
0.000151432
0.000145666
0.00573265
0.0159404
0.000159057
0.00385008
0.000157159
0.000148847
0.0370404
0.000162931
0.0185812
0.000148152
0.000164766
0.031573
0.0292434
0.0362511
0.000269753
0.0369346
0.0330858
0.0450869
0.000148222
0.0189613
0.000163367
0.000147062
0.000145322
0.000147764
0.0178758
0.000162268
0.037608
0.0356848
0.000172079
0.000173626
0.00019532
0.0292362
0.000181696
0.0494163
0.0293921
0.000251552
0.000168155
0.000146242
0.0249431
0.000163698
0.000204914
0.0364924
0.0438714
0.000276979
0.000148517
0.000153791
0.000162356
0.000148277
0.000148376
0.000157902
0.0384436
0.00016353
0.000158076
0.0350225
0.000188668
0.0001159
0.000835223
0.0399757
0.000205878
0.0426294
0.0288444
0.0308432
0.000164762
0.000162859
0.00014861
0.000252567
0.000178066
0.000202923
0.000164448
0.000163959
0.000144125
0.000196366
0.0815304
0.00016023
0.000145044
0.000152651
0.0165806
0.000147026
0.000148073
0.00017027
0.0343664
0.000163008
0.000163314
0.000175783
0.000156973
0.00017973
0.000147385
0.00014779
0.00016481
0.000203566
0.000149018
0.00016006
0.000180767
0.083251
0.000148676
0.0739655
0.000148189
0.0394984
0.000151085
0.000151308
0.000144899
0.000188974
0.000169286
0.0129017
0.0466962
0.000164962
0.000148996
0.000148845
0.0576282
0.00894937
0.000148212
0.000186876
0.0352494
0.000169221
0.000166176
0.000144161
0.000150208
0.000147554
0.0378403
0.000166865
0.000148221
0.0507932
0.000149369
0.000163752
0.000196474
0.000146029
0.000168833
0.000170868
0.0458922
0.00014948
0.000154342
0.000151306
0.000169322
0.000143925
0.000147308
0.0826087
0.000202304
0.000175371
0.000149504
0.0405417
0.000149364
0.000149389
0.000147543
0.00021603
0.0510522
0.000152984
0.0731998
0.00121117
0.000170314
0.0262662
0.0296969
0.0339242
0.0583082
0.000177823
0.000183555
0.000194331
0.000167891
0.000147495
0.000156704
0.000162984
0.0514804
0.000148429
0.0457515
0.000147776
0.000191172
0.000175464
0.000150723
0.000158712
0.0182147
0.0220077
0.0205551
0.0319959
0.000146583
0.000187403
0.036224
0.000157768
0.0754428
0.00016055
0.000169425
0.0394023
0.000170483
0.000147814
0.000181377
0.000184937
0.000147662
0.0346344
0.000166792
0.000145887
0.000149556
0.0001487
0.000147934
0.0410565
0.000149132
0.000167921
0.000148041
0.000150549
0.000157635
0.00014762
0.0386739
0.000177993
0.000148789
0.000145591
0.000183736
0.000152641
0.000163334
0.0117462
0.0296139
0.000166334
0.000182645
0.000160554
0.000145223
0.000189897
0.0541845
0.000161797
0.0356646
0.0871359
0.000166067
0.000162883
0.000162666
0.000173271
0.00016043
0.0495635
0.000148659
0.000148911
0.00014821
0.0426616
0.0600504
0.000159806
0.00020284
0.000148042
0.000160262
0.000198737
0.000207368
0.000147688
0.000167644
0.0390574
0.000167405
0.000147851
0.000147798
0.0348318
0.0214793
0.000147594
0.000213481
0.000165016
0.000200936
0.0052408
0.000146955
0.0256343
0.000162551
0.000148014
0.0716658
0.000199582
0.000147526
0.000148998
0.000198685
0.00014681
0.000148178
0.000149123
0.000160806
0.00016168
0.0228944
0.000155535
0.000175643
0.0390632
0.000147729
0.0849139
0.0397971
0.000155418
0.000182747
0.000202837
0.000148128
0.000194222
0.000144308
0.0636746
0.000259825
0.000147906
0.0805468
0.0692811
0.000147872
0.000147896
0.000198126
0.000172778
0.0321492
0.0318327
0.000148524
0.000166627
0.0263101
0.000151483
0.000174978
0.000184677
0.000159061
0.0751861
0.000152642
0.000153705
0.000201967
0.0337577
0.000161393
0.110365
0.000147251
0.000144843
0.000149761
0.000160812
0.0745617
0.000148301
0.000168291
0.00764896
0.0295996
0.000149397
0.000158621
0.000284135
0.0404273
0.000149448
0.083352
0.000164088
0.000175161
0.000165486
0.000151157
0.00015646
0.000148011
0.000147698
0.0844563
0.000147377
0.000162567
0.000147808
0.0464498
0.000153692
0.000155251
0.000145207
0.000153515
0.000147779
0.000166992
0.0172595
0.0404077
0.000163225
0.000160835
0.000147615
0.000157465
0.000171988
0.0644486
0.0336268
0.000146688
0.000122755
0.000148061
0.000359809
0.0356384
0.0236552
0.000146684
0.000171657
0.000181097
0.0482865
0.000177678
0.000147181
0.0702044
0.000183001
0.000159496
0.0845003
0.000149662
0.000148257
0.000160616
0.063052
0.000147757
0.0865443
0.000158433
0.000580826
0.000167457
0.000153794
0.0639773
0.000156908
0.000148556
0.000167834
0.000148048
0.000330482
0.0795691
0.000208649
0.000155278
0.000173302
0.000147839
0.000178083
0.000166843
0.081804
0.000148312
0.000146354
0.000155735
0.000158567
0.000171945
0.0499751
0.110778
0.000158961
0.000178558
0.000146845
0.112636
0.0752214
0.000181199
0.000147695
0.000149708
0.00015328
0.0722923
0.000148481
0.000157946
0.0673362
0.000185839
0.000148147
0.000179969
0.000183341
0.000147842
0.000154342
0.000181074
0.000274486
0.00016969
0.000165379
0.042138
0.0395516
0.0192476
0.000155443
0.000148676
0.000153428
0.000152832
0.000184334
0.000173647
0.000160061
0.000183181
0.048714
0.000152168
0.000147878
0.027565
0.000182951
0.0325016
0.000177241
0.0001546
0.000151706
0.000151802
0.000146777
0.000147504
0.000171711
0.000145356
0.000150514
0.000149755
0.000150769
0.000151792
0.000147641
0.00015997
0.000171095
0.000149132
0.000147615
0.000148691
0.000150168
0.000149315
0.000181434
0.000148261
0.000151282
0.000251505
0.000146888
0.000151285
0.000149083
0.000159218
0.0270562
0.0507785
0.028394
0.0593274
0.079143
0.000202352
0.000147106
0.000171049
0.000148247
0.00230397
0.000153071
0.00015695
0.000148869
0.000173621
0.000147642
0.000162325
0.000146472
0.0684337
0.000187906
0.00014841
0.0448453
0.0735544
0.000149569
0.000198422
0.000147613
0.000145487
0.00950699
0.00014927
0.000173044
0.000192535
0.000148592
0.000145241
0.000175207
0.0348689
0.00015318
0.000153041
0.032481
0.000147549
0.0277125
0.000171937
0.0279501
0.000145764
0.0334775
0.000147716
0.00014877
0.000199863
0.000175344
0.0321744
0.0338246
0.0164241
0.0726661
8.83369e-05
0.000181482
0.000148169
0.000178124
0.000149142
0.000146644
0.000168186
0.000147325
0.00014781
0.000145477
0.000145212
0.000180557
0.102003
0.0332562
0.000199576
0.0421173
0.000153187
0.00015685
0.000151816
0.000150312
0.000181375
0.000148318
0.00014778
0.000146698
0.00015339
0.000150881
0.000175138
0.000192832
0.000168375
0.000148627
0.000163111
0.000163449
0.0331059
0.0269936
0.000154572
0.000168994
0.000148477
0.0678551
0.0416554
0.000147538
0.000147394
0.000153665
0.000149364
0.0353237
0.000211508
0.0340948
0.000148651
0.111288
0.000148544
0.0282755
0.000171674
0.000146551
0.000157473
0.0842342
0.000154832
0.000157587
0.000163047
0.000177545
0.0692784
0.000147999
0.00014727
0.000156001
0.000384238
0.000147351
0.0322413
0.111736
0.000148013
0.000144073
0.0121889
0.000185011
0.000147714
0.00148479
0.00540642
0.0647597
0.103439
0.000160327
0.000277865
0.000148361
0.0295773
0.0755308
0.000206583
0.000184992
0.000152702
0.0273312
0.000153893
0.000146985
0.000144122
0.00440689
0.000145531
0.0679333
0.000151657
0.000148707
0.000153351
0.0354132
0.000152836
0.000150605
0.000148357
0.0826553
0.0226056
0.0693328
0.0407831
0.000174369
0.000147779
0.000152212
0.00417335
0.000169523
0.000147839
0.000176695
0.00152864
0.0935536
0.000148405
0.0260496
0.0302436
0.000171787
0.000148284
0.000152891
0.000147657
0.000147154
0.00014762
0.000148118
0.000150079
0.000168514
0.00014854
0.000203204
0.000149859
0.000150203
0.0217736
0.000187221
0.000153951
0.000150502
0.0304083
0.000145539
0.000156787
0.00015524
0.000146582
0.0708927
0.000164561
0.000150383
0.000161149
0.000148091
0.000158557
0.000148458
0.000197565
0.0001467
0.000147638
0.0838872
0.000154096
0.000179081
0.000164226
0.000151732
0.000188587
0.000143925
0.000148487
0.000150058
0.0461981
0.000154244
0.000147659
0.000303551
0.00014813
0.000145497
0.000147049
0.000213643
0.000157849
0.000208043
0.000158147
0.000157041
0.000162306
0.000152764
0.000156149
0.000161973
0.0304979
0.000148993
0.000157228
0.000147222
0.000181363
0.000204568
0.000147183
0.000163398
0.073768
0.00015659
0.000145264
0.0513991
0.000154904
0.000167409
0.0275213
0.000161258
0.000147569
0.00015885
0.000147648
0.000155785
0.000147209
0.000151478
0.000155016
0.00014763
0.000148317
0.000157453
0.000148704
0.000180101
0.00014808
0.000151697
0.000147824
0.000164241
0.0329913
0.000148565
0.000148624
0.000168259
0.000153077
0.000147999
0.00342706
0.0512798
0.0253492
0.000148468
0.000153564
0.000169093
0.000149595
0.00014874
0.000165377
0.000176204
0.000144724
0.000163228
0.000148116
0.000147148
0.00014734
0.000144763
0.000151873
0.000167094
0.000165124
0.000158916
0.0348296
0.000153725
0.00015654
0.000146827
0.0581874
0.0773164
0.0693879
0.000148353
0.000170268
0.000157855
0.000148188
0.000148703
0.00016079
0.0362004
0.0286511
0.000148824
0.000160037