/*--------------------------------*- C++ -*----------------------------------*\
| =========                 |                                                 |
| \\      /  F ield         | OpenFOAM: The Open Source CFD Toolbox           |
|  \\    /   O peration     | Version:  v2012                                 |
|   \\  /    A nd           | Website:  www.openfoam.com                      |
|    \\/     M anipulation  |                                                 |
\*---------------------------------------------------------------------------*/
FoamFile
{
    version     2.0;
    format      ascii;
    class       volScalarField;
    location    "200";
    object      k;
}
// * * * * * * * * * * * * * * * * * * * * * * * * * * * * * * * * * * * * * //

dimensions      [0 2 -2 0 0 0 0];


internalField   nonuniform List<scalar> 
18758
(
0.000169062
0.00248553
0.000147797
0.000168367
0.000165455
0.000139668
0.000143383
0.000152166
0.000163538
0.000162073
0.00145139
0.00442335
0.000187937
0.000151604
0.000143177
0.000141855
0.00532434
0.000130609
0.000143052
0.000153581
0.00600713
0.00386808
0.000140717
0.000139864
0.0137336
0.00458552
0.0130879
0.000221952
0.000191647
0.00411357
0.00165783
0.0120608
0.000151788
0.050915
0.000166824
0.00390452
0.00025478
0.000165642
0.00238583
0.000134657
0.00340352
0.000164373
0.00321856
0.000146243
0.000144928
0.00162401
0.000162436
0.000193061
0.0306513
0.000167144
0.00153406
0.0385997
0.000167001
0.00015616
0.000196781
0.000231858
0.000139752
0.000153212
0.000190779
0.000139386
0.000146904
0.000145696
0.0142869
0.000535975
0.00014726
0.0580342
0.000147059
0.000133303
0.000222752
0.000130802
0.0383067
0.0166538
0.000143085
0.000158376
0.000211753
0.00227487
0.0113058
0.006723
0.000163842
0.0042733
0.000188355
0.00167438
0.00615959
0.000178889
0.000150877
0.000192561
0.000156249
0.000159297
0.0154165
0.000191671
0.0357608
0.000153122
0.000182305
0.0303966
0.000142971
0.000139053
0.000132446
0.000180909
0.00728024
0.000142313
0.00207829
0.000159677
0.000133233
0.000139019
0.0579844
0.00545468
0.000193002
0.0366762
0.0195775
0.00600056
0.00014202
0.000579128
0.00016674
0.000146334
0.000159703
0.00029484
0.000180307
0.000137952
0.000321975
0.000154169
0.000145101
0.0117116
0.000151281
0.000138135
0.031791
0.000156181
0.000144245
0.000138152
0.00020785
0.0239198
0.000190944
0.000153259
0.000161539
0.0374861
0.000134818
0.000146035
0.00294723
0.000150426
0.000229585
0.000188198
0.000173636
0.00352984
0.000174316
0.0160296
0.0310852
0.00017557
0.0543358
0.00020287
0.00168206
0.000878974
0.0197186
0.0285121
0.000146543
0.000167015
0.00354986
0.0323446
0.000182197
0.000208265
0.000181286
0.00221927
0.0262394
0.000139491
0.0290788
0.0539595
0.00139594
0.000140182
0.000139376
0.0287828
0.0232066
0.00345517
0.028145
0.000148356
0.000194835
0.00544498
0.0229272
0.000142356
0.000142885
0.000259992
0.0438025
0.000149295
0.000132348
0.000155331
0.000196593
0.000151043
0.00293276
0.000143645
0.00447322
0.000167705
0.0303565
0.0119432
0.0281707
0.000143573
0.000197792
0.0142735
0.000131493
0.00015077
0.000241307
0.000146348
0.0305895
0.000141356
0.000147977
0.000213438
0.00828117
0.000141807
0.000142053
0.0294558
0.000142383
0.000168892
0.0199379
0.0257225
0.000144705
0.000183367
0.000149676
0.000149296
0.000152285
0.000132663
0.000144533
0.000182962
0.000136823
0.00387375
0.0185778
0.000141571
0.000173765
0.000214695
0.00920169
0.00591555
0.000219711
0.000190195
0.027671
0.000142152
0.00356966
0.000175458
0.0256335
0.000148165
0.000140735
0.000141933
0.000218154
0.0312647
0.000255359
0.000149085
0.000142157
0.000211644
0.00021884
0.000145958
0.00189221
0.00025515
0.000140812
0.00013824
0.000145462
0.00014237
0.0284293
0.000145549
0.00453619
0.000142375
0.000144244
0.000274479
0.000139863
0.0234405
0.000142894
0.000972441
0.00016742
0.000138446
0.000140901
0.000195727
0.0236548
0.0253486
0.000138577
0.000225011
0.000146664
0.000145903
0.00034193
0.0458697
0.000145709
0.000141463
0.000143742
0.000151937
0.000159082
0.000135676
0.000150062
0.00015159
0.000138228
0.000153282
0.000142356
0.0487133
0.000143266
0.000141272
0.000130281
0.000215339
0.000138945
0.000138949
0.000147111
0.00014963
0.000139527
0.000142266
0.000145365
0.000155525
0.00582783
0.000157385
0.000141497
0.0322192
0.000154757
0.000142092
0.000142135
0.0092697
0.000656993
0.0001323
0.000245861
0.00494801
0.000146405
0.00018644
0.000142386
0.0242123
0.000235104
0.000202405
0.000190571
0.0497962
0.000132977
0.0142973
0.000224131
0.000147024
0.000200406
0.000178537
0.00064119
0.000140702
0.00013304
0.0249385
0.00663697
0.000139605
0.0324503
0.000200118
0.000183636
0.0365532
0.000140633
0.00014047
0.000142669
0.000146016
0.000149663
0.000153408
0.000152306
0.000142805
0.000149382
0.00014905
0.0241159
0.0105303
0.000149586
0.0129228
0.00745182
0.000139425
0.000165574
0.000699726
0.0071756
0.00248405
0.000248509
0.00014363
0.0310883
0.000529185
0.000172692
0.00014902
0.000181364
0.000149255
0.000145538
0.000247637
0.0119294
0.00210648
0.000259381
0.00912159
0.000140815
0.000157513
0.000155917
0.000181744
0.0307266
0.000284658
0.0261596
0.000257454
0.00332105
0.000256048
0.000144539
0.0597662
0.000203694
0.000904496
0.00299299
0.000142441
0.000139689
0.00412781
0.00248613
0.00442361
0.000350807
0.031932
0.000149227
0.00433566
0.00435773
0.000141933
0.000151361
0.000152137
0.000150084
0.00014552
0.000149601
0.000144229
0.000156343
0.00014602
0.000145831
0.000165954
0.000978145
0.000160255
0.000585174
0.000646375
0.0292544
0.000764229
0.000205315
0.000151578
0.000140431
0.0033565
0.000151352
0.000149192
0.00833161
0.000181234
0.000410835
0.000140126
0.0244623
0.000144467
0.000154947
0.000131949
0.0310085
0.0257797
0.00303363
0.000144925
0.0352833
0.000181357
0.00014412
0.00014905
0.000145072
0.0269227
0.000145536
0.000141858
0.00225569
0.000160602
0.000149303
0.000142766
0.000151836
0.000155718
0.000700563
0.000243219
0.000148355
0.0597241
0.000131883
0.000155293
0.000189369
0.000143702
0.00131809
0.000148114
0.000156096
0.000147257
0.000274502
0.000161943
0.000144171
0.0319611
0.000725386
0.000130341
0.000157519
0.000154262
0.000141823
0.000143447
0.00015092
0.0173388
0.0409913
0.000147546
0.000169024
0.00784661
0.000209148
0.00730723
0.00025503
0.00738747
0.000137285
0.000202961
0.000204498
0.000163488
0.000151637
0.00411019
0.000295443
0.000172281
0.000139948
0.000143407
0.000139007
0.000143685
0.000138967
0.000143805
0.00179874
0.000149268
0.000131539
0.000180305
0.000152278
0.000147407
0.000134652
0.000152944
0.000289228
0.00667117
0.000142578
0.00136387
0.000142018
0.000160604
0.000199792
0.0464128
0.000261933
0.000142984
0.00014371
0.0427407
0.0361079
0.000242689
0.000139886
0.00026085
0.0494488
0.000130256
0.000140733
0.0202501
0.000152403
0.000189574
0.000240081
0.000151481
0.000169013
0.000138325
0.000141848
0.000152517
0.000143381
0.000141904
0.000146952
0.00713766
0.000132143
0.000353082
0.00932861
0.000130331
0.000132149
0.000150372
0.00015811
0.000160241
0.000246544
0.000142394
0.0184207
0.000163462
0.000163285
0.000141397
0.000144082
0.000147208
0.000147734
0.000147631
0.035335
0.00458859
0.00013816
0.000141681
0.000149413
0.0306048
0.000132069
0.000132911
0.000144043
0.000131601
0.000140909
0.000141164
0.000151148
0.000141821
0.000192454
0.000142321
0.000135381
0.000226953
0.047738
0.000166297
0.00014461
0.000142425
0.000148155
0.000142529
0.000152064
0.000333895
0.00116888
0.000149468
0.0123919
0.000142285
0.000166369
0.000144763
0.00014158
0.000176241
0.000130826
0.000143626
0.010835
0.000147267
0.000150955
0.000236474
0.000143446
0.000143328
0.0306724
0.000137788
0.00427657
0.000414753
0.000142841
0.000147522
0.000175798
0.000152836
0.000160564
0.000142157
0.000405867
0.0128425
0.00741458
0.000138503
0.0316452
0.00013139
0.000145067
0.000142356
0.000165662
0.00555126
0.000237572
0.000143459
0.000150787
0.000153309
0.0204172
0.000253146
0.000141223
0.000287412
0.000155071
0.0313186
0.000161232
0.000222008
0.000139671
0.00016459
0.000182
0.000142735
0.000139736
0.000132114
0.000139003
0.000159066
0.000225567
0.00376873
0.0096826
0.000225282
0.000156736
0.000142449
0.000137853
0.000397403
0.00683826
0.000134885
0.0001745
0.0281862
0.0348567
0.000146314
0.000145315
0.000181691
0.00655558
0.000131304
0.00060499
0.000143744
0.000155076
0.000162593
0.0001449
0.000147656
0.000147679
0.000138529
0.000148326
0.000230037
0.000176095
0.0041718
0.000149158
0.000141122
0.000308827
0.000133161
0.000336218
0.00698297
0.0001439
0.00489789
0.0001518
0.00014521
0.00485072
0.00612146
0.00602795
0.0198676
0.000152371
0.0106462
0.00013222
0.0575719
0.029694
0.000170826
0.000142807
0.00332
0.00015468
0.000192862
0.00584212
0.000424801
0.000146073
0.00788371
0.000141762
0.000175912
0.000193559
0.000140896
0.000164034
0.0128969
0.00359118
0.000156654
0.000151431
0.000131565
0.000149023
0.000159052
0.000167595
0.000227598
0.000141746
0.000303434
0.000155777
0.000145769
0.000157769
0.000131832
0.00047334
0.000142275
0.00013906
0.00144803
0.000138019
0.000150313
0.0033957
0.000181649
0.000181191
0.00014384
0.000145694
0.000185278
0.00014554
0.00634792
0.000154323
0.000152744
0.000150492
0.000145436
0.000131423
0.0275937
0.000131834
0.0443266
0.000221161
0.000149531
0.038791
0.000140005
0.000175878
0.000156168
0.00116083
0.000153967
0.000452655
0.00500001
0.000145354
0.00448304
0.000135738
0.00286225
0.000145744
0.000148325
0.0442536
0.00265211
0.000142143
0.000147057
0.000151975
0.000138186
0.000143771
0.00332307
0.0401222
0.000141174
0.000138045
0.000135832
0.000730496
0.000236666
0.000238411
0.000138467
0.000301455
0.000148303
0.000145869
0.000160938
0.00678483
0.000141235
0.00017507
0.000281017
0.000141233
0.000397404
0.000144219
0.000161323
0.000141239
0.000138307
0.00015777
0.000145976
0.000182614
0.000143582
0.0396365
0.000146425
0.000154637
0.000191068
0.0016135
0.000175301
0.000141385
0.000145323
0.00429603
0.000354789
0.000186822
0.000139613
0.000142278
0.000158507
0.027006
0.00382119
0.000140901
0.000142086
0.000149447
0.000146792
0.00014857
0.000142558
0.000144201
0.00739341
0.000142247
0.000143419
0.00433918
0.000138439
0.000262509
0.000212113
0.0223172
0.000404516
0.00378196
0.0407354
0.000142575
0.000142412
0.000152175
0.00014108
0.000141297
0.000138908
0.000140655
0.000148851
0.000478762
0.000199081
0.000265322
0.000151911
0.000141888
0.00016427
0.000165498
0.000190027
0.000146428
0.000149897
0.000138115
0.0355969
0.0246882
0.00779548
0.000147987
0.000195019
0.000205398
0.00036517
0.0270413
0.00418096
0.000150575
0.000146324
0.000135703
0.0455644
0.000146658
0.000132894
0.000195166
0.00407591
0.000142267
0.00471473
0.00156946
0.000142445
0.000142301
0.000142533
0.00014406
0.000143322
0.000153556
0.000163648
0.000143419
0.000146773
0.0122482
0.0360592
0.00014296
0.00458444
0.00011586
0.000150082
0.000144039
0.000141331
0.000137837
0.000151966
0.000150086
0.000143954
0.000147742
0.000152467
0.000146578
0.0444469
0.000159441
0.000142957
0.00014422
0.00509173
0.000146253
0.000132847
0.00376787
0.000141373
0.000167922
0.000157798
0.000143468
0.000139475
0.000138158
0.000154027
0.000169955
0.000144112
0.00410274
0.000191567
0.000202799
0.00639077
0.000149197
0.000187431
0.000132221
0.000264606
0.000149685
0.000143271
0.00020339
0.000283083
0.000148122
0.0223024
0.00861804
0.000138813
0.000161696
0.000132905
0.000149354
0.000159798
0.000151545
0.000142978
0.000323351
0.000141056
0.00014149
0.00608216
0.000141843
0.000141299
0.000139491
0.046073
0.000144468
0.000143933
0.000163248
0.0178311
0.00417601
0.0002644
0.00767653
0.000142022
0.00013169
0.000143546
0.000459157
0.000149575
0.0001411
0.00015306
0.000137715
0.00143116
0.000146928
0.000145964
0.0251808
0.000142262
0.000181087
0.00236817
0.000131668
0.000143346
0.0152158
0.000151831
0.0285333
0.00711608
0.000137809
0.000144428
0.00215085
0.000138613
0.000153183
0.00436073
0.000136088
0.00648284
0.000142449
0.000143769
0.000143199
0.000165447
0.000151934
0.00875037
0.000154215
0.00014078
0.000629217
0.00518171
0.000170389
0.000166179
0.00028962
0.0284213
0.0200242
0.000131321
0.0281537
0.000147866
0.0235641
0.01155
0.000141248
0.000159947
0.000147077
0.00661111
0.000139706
0.00117284
0.000141812
0.0257376
0.00019433
0.000139886
0.00013164
0.000142588
0.0259537
0.000974356
0.000143794
0.000702609
0.0001463
0.000141241
0.00712523
0.000143097
0.00197232
0.000140035
0.000153588
0.000140555
0.000140102
0.000140856
0.000139773
0.000206744
0.000169984
0.00016521
0.00016665
0.000148473
0.000142705
0.00273517
0.000142619
0.00888425
0.0001455
0.00567137
0.000158131
0.00308567
0.000139561
0.000141028
0.000141082
0.0368055
0.000144288
0.00633841
0.000194546
0.000143606
0.000157301
0.000142578
0.00013811
0.000152862
0.000141505
0.00299375
0.000143911
0.000150864
0.000143679
0.000151828
0.00368814
0.00129132
0.00014561
0.000139542
0.000144742
0.00014798
0.000141973
0.000164339
0.000148749
0.000142508
0.000137439
0.000139059
0.000213258
0.000189496
0.000145718
0.000137565
0.000310769
0.000148928
0.0193997
0.0220318
0.00014848
0.0295856
0.000152933
0.000139703
0.000144556
0.000152998
0.000208477
0.000138268
0.000167072
0.00466394
0.000185252
0.000311688
0.0555853
0.0341352
0.000161253
0.00014606
0.000144523
0.00449198
0.000137569
0.000146071
0.000163032
0.000363807
0.000143614
0.000140043
0.031529
0.000153615
0.00015
0.000153209
0.000153709
0.000186354
0.000144524
0.000154316
0.000143859
0.000164063
0.000151818
0.00014782
0.000147971
0.00782169
0.00014779
0.00014275
0.0039093
0.000131695
0.000142841
0.000145458
0.000150051
0.000146059
0.00961248
0.000202773
0.00376421
0.00585335
0.000733295
0.00667414
0.000148803
0.000490353
0.00416377
0.000145465
0.000149364
0.000146812
0.00014458
0.000150319
0.000148526
0.000225502
0.000235067
0.000146217
0.000135481
0.00017369
0.000151797
0.00676448
0.000142731
0.000149011
0.00014204
0.000262605
0.000986299
0.000163205
0.0421282
0.000142344
0.000142156
0.000196624
0.000167478
0.000141853
0.000228544
0.000148616
0.000159593
0.00686228
0.00020875
0.000164029
0.000146649
0.000148049
0.000148518
0.000138814
0.00403773
0.000204645
0.0357106
0.000391635
0.00303868
0.00014832
0.0289825
0.0354378
0.0534352
0.000192451
0.023806
0.00016236
0.001347
0.000205172
0.000166181
0.000130582
0.000142635
0.000145822
0.000171782
0.000139549
0.000144926
0.00025822
0.0186114
0.0143816
0.00430648
0.000188664
0.00306636
0.00017113
0.00015455
0.000142796
0.0239742
0.000246107
0.000140655
0.000163968
0.000961837
0.0312442
0.028792
0.00017003
0.000189286
0.000131746
0.0284829
0.000147776
0.00434262
0.00275594
0.000161039
0.00020103
0.000205553
0.00014432
0.00014319
0.00646821
0.000322642
0.000209344
0.000148397
0.000147128
0.000153168
0.00483154
0.000163711
0.00467079
0.000148361
0.00673711
0.000961963
0.000155935
0.000273344
0.000215177
0.0333796
0.00013175
0.000170109
0.0334601
0.000161196
0.000141938
0.00813778
0.00720106
0.000142396
0.000142568
0.0025635
0.000149763
0.000148578
0.0234215
0.000283277
0.000144131
0.000161381
0.000430213
0.000163528
0.000152465
0.000152231
0.00215575
0.000155709
0.000140502
0.000141315
0.000256566
0.000139252
0.000349361
0.000136999
0.000138541
0.00572641
0.000147153
0.000142432
0.000269549
0.00013141
0.000153459
0.000137891
0.000142269
0.000144781
0.000187453
0.000144937
0.00493411
0.00019673
0.00367242
0.0327103
0.00015509
0.000137785
0.000139256
0.0336988
0.000158396
0.000142929
0.00453118
0.000167764
0.0185839
0.000136471
0.0001368
0.000137791
0.00014124
0.000144528
0.000134225
0.000148084
0.000149039
0.000143142
0.000998676
0.000152168
0.00529488
0.000148031
0.000137982
0.00017454
0.0596796
0.0373657
0.00781164
0.0444959
0.00565631
0.000232699
0.0362347
0.00015015
0.000172882
0.000176117
0.0331546
0.000141117
0.000272453
0.00100058
0.000223867
0.000142675
0.00715452
0.000141727
0.00014253
0.000144447
0.000162739
0.000612215
0.000888297
0.000145909
0.000131041
0.000138767
0.000134798
0.0001745
0.000143422
0.0356418
0.000190862
0.000193598
0.000148786
0.000142418
0.000133913
0.0434192
0.000806587
0.000144503
0.000142466
0.0107976
0.000134676
0.00014352
0.000135954
0.000144296
0.000144633
0.000145894
0.000138014
0.000617367
0.000152623
0.000265397
0.000163541
0.000146942
8.73018e-05
0.00014607
0.0224423
0.000147037
0.000176874
0.000584067
0.00229515
0.000170239
0.000213678
0.0345637
0.000150679
0.000165968
0.000152535
0.00014235
0.000138561
0.000140478
0.000262161
0.000173272
0.000154585
0.000234909
0.000138308
0.00014533
0.00017159
0.00837908
0.000131298
0.000173191
0.00110196
0.000193114
0.00516266
0.000149102
0.000146449
0.0285308
0.000170318
0.000139832
0.00014238
0.000199605
0.000137603
0.000138413
0.00521538
0.000186303
0.000150106
0.000148043
0.000144894
0.0385446
0.000153994
0.0294193
0.000766822
0.0001427
0.000141712
0.000252539
0.000168469
0.000172059
0.00015048
0.000185653
0.000175294
0.000139619
0.000153171
0.000232156
0.000176501
0.0219242
0.00599607
0.000167564
0.0050229
0.000239262
0.000140917
0.00784748
0.00121673
0.000152179
0.0594514
0.000146809
0.000210975
0.00019622
0.00418637
0.000184247
0.000226053
0.000163218
0.00522635
0.000141807
0.000132939
0.0342883
0.000152301
0.000142321
0.000142161
0.000147708
0.000134319
0.000149085
0.000141239
0.00014249
0.0370651
0.0124969
0.000142402
0.000147778
0.000308566
0.00403953
0.000131581
0.000233995
0.00021433
0.000176711
0.000145689
0.000140777
0.0421494
0.000147779
0.000187172
0.000198543
0.000138524
0.000170262
0.0372907
0.000142542
0.00438251
0.00758984
0.0344722
0.000148825
0.000142455
0.000143192
0.000144623
0.000142246
0.00529182
0.0172483
0.000138014
0.0003461
0.0101343
0.00015004
0.000146093
0.000142195
0.00699553
0.0353724
0.000212186
0.000206916
0.000152594
0.0397401
0.00467926
0.00013864
0.000142294
0.000158574
0.00016779
0.00045324
0.00450516
0.000140367
0.000272845
0.00483078
0.000161073
0.0001399
0.000146181
0.000152694
0.000141699
0.000149352
0.00013835
0.000238173
0.00159566
0.000144743
0.000146593
0.000167008
0.00013859
0.000142426
0.000152012
0.00706331
0.000137935
0.000150601
0.0458416
0.000228278
0.000267086
0.000188598
0.000146724
0.000149854
0.000149489
0.000137485
0.000141373
0.000149158
0.00023026
0.000186477
0.000150224
0.000204957
0.000137935
0.0148199
0.000296169
0.000143611
0.000376894
0.000140756
0.000151539
0.000214205
0.019443
0.000156882
0.000153889
0.000153664
0.000230894
0.000132124
0.017559
0.0537384
0.000138155
0.000194759
0.00543256
0.00014506
0.000150862
0.00681788
0.000192151
0.000146834
0.00424872
0.000155257
0.000142435
0.00904881
0.000278977
0.000837055
0.000140797
0.00605954
0.000164719
0.000133823
0.000184355
0.000163668
0.000145994
0.000199102
0.00050202
0.00429679
0.000190151
0.000219218
0.000138019
0.0511268
0.00512835
0.000228295
0.000257991
0.000145173
0.00417216
0.000145272
0.000141698
0.000177486
0.000149459
0.000408101
0.00672757
0.000146919
0.0497263
0.00267686
0.0378202
0.000161541
0.000192726
0.000131311
0.000146166
0.000153297
0.000131143
0.0242642
0.000629929
0.0399076
0.000327747
0.000241327
0.00452813
0.0174986
0.000143855
0.000160724
0.000951549
0.00018684
0.000145378
0.000142235
0.000478738
0.00020378
0.000159914
0.000142762
0.000146046
0.000267685
0.000142481
0.000227508
0.0059281
0.000134235
0.0301022
0.000137372
0.0378055
0.000236524
0.0379352
0.000150593
0.00680491
0.000144817
0.000142487
0.000150321
0.0341104
0.000172353
0.00412805
0.00014666
0.000142468
0.000611422
0.0506912
0.00014684
0.000198922
0.00025427
0.0515902
0.0179014
0.000140289
0.0001456
0.00456306
0.000131255
0.000138071
0.000155544
0.000143794
0.000147113
0.000140062
0.000142071
0.000154911
0.000142049
0.000163938
0.000172551
0.000143269
0.00821898
0.0324814
0.000156586
0.000135596
0.000143076
0.000192265
0.0001436
0.000142712
0.000144674
0.0001895
0.000143528
0.00015516
0.000152616
0.000247574
0.00420886
0.000140966
0.000204969
0.00022821
0.00015961
0.000232176
0.000267133
0.000141156
0.000142692
0.000250927
0.000224247
0.00015787
0.005124
0.0261134
0.00014306
0.0293413
0.000149442
0.000201279
0.005419
0.00236339
0.0310837
0.000151881
0.000141339
0.0092024
0.000153105
0.0149877
0.000187502
0.00631868
0.0410544
0.00014075
0.000171831
0.00014192
0.000250659
0.000204937
0.0343466
0.000141441
0.000144947
0.000234821
0.000148095
0.00561075
0.000140418
0.00515326
0.000622286
0.000176857
0.0413199
0.0322266
0.000140841
0.000140813
0.000144051
0.000201922
0.00324738
0.000148343
0.000154652
0.000148424
0.000135673
0.000178098
0.000141124
0.000136769
0.000267361
0.000148021
0.000136507
0.000156768
0.0122521
0.00115024
0.0340449
0.000145964
0.000210052
0.000161447
0.000156533
0.000191554
0.00283281
0.0334992
0.000137365
0.000206056
0.000131591
0.000169078
0.000193669
0.000184504
0.00526582
0.00014914
0.000210216
0.000137268
0.00458627
0.00225433
0.000136811
0.000150974
0.000151731
0.000152195
0.0305237
0.00014458
0.000144646
0.000149173
0.000148157
0.000139243
0.000151084
0.000143158
0.000148074
0.000143424
0.00014168
0.0124349
0.00770977
0.0465489
0.000135414
0.000132036
0.000132977
0.000135889
0.000133007
0.000167685
0.000132633
0.000138071
0.000142817
0.000139837
0.000162656
0.00014258
0.000311981
0.0179347
0.00017228
0.000901475
0.000146162
0.00422536
0.000213662
0.000126652
0.000139738
0.00763971
0.000150201
0.000144171
0.000145301
0.000214611
0.000204927
0.000140342
0.000220418
0.000161555
0.000142732
0.000221221
0.00724987
0.000162455
0.00014072
0.000153385
0.00181461
0.000162648
0.000677798
0.000140422
0.000148154
0.000144467
0.000152502
0.000172157
0.00588216
0.000164628
0.000136848
0.0254035
0.000240636
0.000214128
0.000141242
0.000155035
0.0417072
0.000140865
0.000148059
0.000162097
0.0202775
0.000134049
0.000142825
0.000138082
0.000165575
0.000146183
0.00734594
0.000145405
0.000156574
0.000162563
0.0368106
0.000138717
0.000136926
0.000131725
0.000165215
0.000135549
0.00943175
0.00273113
0.000164173
0.00493337
0.000142909
0.0273863
0.00014547
0.000137808
0.000220881
0.000192804
0.000228863
0.00470554
0.00029808
0.00069383
0.000168579
0.000168722
0.000150058
0.000381462
0.000144865
0.000151384
0.000270968
0.000147611
0.00458522
0.00343885
0.002622
0.00456806
0.00500621
0.00556568
0.00440995
0.000189862
0.000155931
0.000200426
0.000144362
0.000137006
0.000141501
0.0408216
0.0363438
0.00428686
0.000156922
0.000154556
0.00444181
0.000140487
0.000217361
0.000136718
0.000172612
0.000142202
0.000133007
0.000155629
0.000172415
0.0289751
0.000161835
0.00016197
0.000137688
0.000197941
0.00120271
0.000137224
0.000201856
0.034987
0.000131219
0.000180385
0.000137698
0.036165
0.000150768
0.026836
0.000148658
0.000146003
0.000162413
0.000216614
0.00269169
0.000211882
0.0050005
0.000151373
0.00014483
0.000145188
0.00014507
0.000136732
0.000143246
0.00428389
0.0307551
0.000178504
0.000142823
0.000158412
0.000153796
0.00014607
0.000146458
0.000200435
0.00461746
0.00554448
0.000144389
0.00408265
0.000137712
0.000183916
0.000151364
0.000172619
0.000269024
0.00662066
0.0070548
0.000133183
0.000144451
0.000140486
0.000142517
0.000144405
0.000142159
0.0344563
0.00014621
0.000146709
0.000148624
0.000168408
0.000141717
0.0335731
0.0319168
0.00567952
0.000145515
0.000435994
0.000136591
0.00782225
0.0100856
0.000149157
0.00547012
0.000154338
0.000184908
0.000140847
0.000148326
0.000160795
0.000186081
0.000210096
0.00393589
0.000231785
0.000203526
0.000179013
0.000149946
0.000143724
0.0104491
0.000153411
0.0121148
0.00014968
0.0488987
0.000572983
0.00418259
0.000150658
0.000535876
0.000154329
0.000144811
0.000135963
0.000152039
0.00018773
0.000142703
0.00610897
0.000200904
0.00021074
0.000141419
0.000158415
0.000292262
0.00411365
0.00742597
0.00015627
0.000176153
0.035931
0.000256402
0.000147937
0.000181648
0.00687267
0.000186593
0.000286711
0.000157779
0.000160147
0.000243136
0.000134151
0.00517041
0.000177867
0.000144191
0.000908791
0.00414604
0.00239154
0.000155091
0.000207796
0.000174235
0.000136889
0.000183913
0.00014953
0.00019322
0.000137971
0.0255124
0.038402
0.00769886
0.00608898
0.000194305
0.000329503
0.000155018
0.000221223
0.00725481
0.0357692
0.000151062
0.000148825
0.000141826
0.000159512
0.00013445
0.000141296
0.00059966
0.000141624
0.000138508
0.00016404
0.000149173
0.000132589
0.000262983
0.00901941
0.00018036
0.00014545
0.000144801
0.000161907
0.000150368
0.00014155
0.000140554
0.000136567
0.000197525
0.000157364
0.000220504
0.000157775
0.000143578
0.000132898
0.000269833
0.000222287
0.000263564
0.000182473
0.000147516
0.000171187
0.000140564
0.000159405
0.00531894
0.000844476
0.000197837
0.000152943
0.000137422
0.000161854
0.00722366
0.00421288
0.0043973
0.00015673
0.000137949
0.000137935
0.000155749
0.000323087
0.0311865
0.000138038
0.00399382
0.000132884
0.000143377
0.000207703
0.000140347
0.00642011
0.000209155
0.00403358
0.000133613
0.000173603
0.000173373
0.0391752
0.000137783
0.000145748
0.000237662
0.0042078
0.0105444
0.00306446
0.0278731
0.00014951
0.000189231
0.000157164
0.000156369
0.0399515
0.000167004
0.000140851
0.000145735
0.000135242
0.000366045
0.0477088
0.000156113
0.056203
0.000135849
0.000140971
0.000145881
0.000228592
0.000221291
0.0580951
0.00014371
0.000148858
0.000169071
0.00655969
0.000136484
0.00464039
0.000140656
0.000158491
0.0225418
0.000139902
0.023702
0.00631552
0.00724517
0.0425578
0.00014345
0.000153582
0.00015205
0.0319546
0.000212452
0.000145352
0.0234034
0.000484572
0.000131169
0.000151335
0.00051431
0.000136878
0.0318715
0.0195295
0.000156504
0.00013179
0.00015483
0.000159974
0.0425599
0.000137779
0.000170718
0.000149907
0.0133612
0.0356731
0.000142659
0.000136356
0.000212931
0.000157301
0.00014471
0.000142905
0.000140053
0.000183531
0.000152432
0.00650604
0.000148863
0.000148327
0.000141439
0.000151338
0.0001593
0.000151648
0.00680086
0.0074881
0.00496358
0.000148216
0.000136357
0.0013448
0.000160704
0.000185057
0.000635864
0.000197747
0.00605901
0.0224678
0.00013597
0.0046839
0.000456425
0.000150455
0.000140119
0.000143713
0.000143634
0.00224817
0.00410555
0.000144571
0.0585562
0.00710229
0.0298896
0.000132823
0.000138712
0.00994497
0.000140115
0.000145858
0.000164179
0.00014181
0.000321182
0.000155327
0.0400245
0.00362731
0.000141461
0.000197752
0.000219789
0.0035895
0.000399018
0.000142984
0.000154893
0.000170538
0.0368693
0.000354471
0.000502014
0.000148019
0.000143806
0.000198788
0.000136897
0.00228991
0.0103435
0.000140499
0.000442336
0.000137134
0.0344808
0.000145105
0.00527127
0.000150139
0.000926139
0.0002933
0.0430761
0.0226138
0.000135137
0.0186019
0.0293432
0.000148744
0.0338273
0.000148332
0.000133435
0.000143652
0.000160399
0.000154363
0.00014579
0.000141094
0.000234427
0.000174111
0.00018224
0.0611288
0.000186917
0.000161133
0.00014865
0.000194465
0.00013624
0.000189449
0.00433237
0.00464626
0.00768771
0.000150927
0.0001533
0.000150497
0.000222746
0.000152189
0.000141285
0.0306283
0.00909422
0.0312927
0.000145159
0.00014573
0.00017769
0.000524923
0.000147145
0.000136657
0.000150218
0.000151208
0.000173712
0.000143353
0.00499399
0.000147534
0.0380313
0.000138565
0.000629644
0.00765753
0.000616943
0.00013557
0.000187484
0.000145071
0.00013735
0.000197322
0.00853862
0.000141547
0.000149538
0.0436364
0.000144226
0.000188227
0.0029814
0.000157709
0.00782021
0.000145606
0.00973909
0.000162949
0.000329336
0.000136259
0.000140915
0.0463544
0.000140047
0.00480393
0.000155081
0.000163966
0.0344584
0.000150553
0.000143811
0.000149745
0.000141453
0.00674486
0.0367102
0.000137312
0.00473003
0.000281266
0.00033277
0.000143893
0.000243043
0.00127774
0.000160228
0.000161831
0.000143981
0.0537654
0.000133621
0.0346878
0.000136144
0.000140022
0.000154183
0.000145984
0.000138478
0.000211974
0.00015306
0.000141554
0.00425789
0.000137872
0.000183509
0.000157473
0.00305547
0.000206553
0.000140191
0.000166415
0.000141055
0.000140488
0.000154668
0.02924
0.00159198
0.00470489
0.0276464
0.000136488
0.00014358
0.000144672
0.000140269
0.000135558
0.00140866
0.000133293
0.00015512
0.000165294
0.000149969
0.000260677
0.00014476
0.000136567
0.0315842
0.00770318
0.000146209
0.000174961
0.000164658
0.000354091
0.000141556
0.000151712
0.00633998
0.000145722
0.0011286
0.000244048
0.000149595
0.000150047
0.0321392
0.000154616
0.00018755
0.00466024
0.000836271
0.000153735
0.000159636
0.000171824
0.0371654
0.000148302
0.0111558
0.00389848
0.00737034
0.0396255
0.00013896
0.000144157
0.000142235
0.0014263
0.00366899
0.000321911
0.0365007
0.000135429
0.0096932
0.000139307
0.0552358
0.000143361
0.000175132
0.000207608
0.000148974
0.000148928
0.000190538
0.000157333
0.000148087
0.000149023
0.000197925
0.000153207
0.000140669
0.00331644
0.000148361
0.000148404
0.000143481
0.000547485
0.000170133
0.0063139
0.000162385
0.000152689
0.0417789
0.000156474
0.00021545
0.00013716
0.000142284
0.0507835
0.0329663
0.00408252
0.000144654
0.000154032
0.0613041
0.000216349
0.000202631
0.000846974
0.00235994
0.00550751
0.000136344
0.0067629
0.000140205
0.000186483
0.000864268
0.00019068
0.000190475
0.000151477
0.0310669
0.000196549
0.00694001
0.00020796
0.000141669
0.000143351
0.000144228
0.00325586
0.000137369
0.00233184
0.000189469
0.00754511
0.000135625
0.02701
0.0520255
0.00560705
0.00533624
0.000150207
0.000147348
0.000142134
0.000159556
0.000144288
0.000154861
0.0474279
0.000144674
0.000150584
0.0368207
0.00546099
0.00582658
0.000157103
0.000166383
0.000139762
0.0325868
0.000149541
0.0418135
0.000174837
0.000553536
0.000162917
0.000188615
0.025101
0.000142909
0.000142329
0.0246621
0.00187716
0.000455429
0.00020626
0.000178318
0.000141688
0.000223636
0.000143905
0.000235019
0.000143634
0.000151354
0.00508955
0.000149501
0.000188602
0.000137596
0.0517474
0.000586537
0.000177742
0.000164058
0.0333884
0.000160771
0.000136052
0.0362487
0.0529317
0.0326456
0.000140051
0.000148288
0.0143199
0.0581749
0.023851
0.000145985
0.000151797
0.00014627
0.000158885
0.00014808
0.00013842
0.00022622
0.000140779
0.0377064
0.000153142
0.000305399
0.000135631
0.0550074
0.000360681
0.000194193
0.0147748
0.00422664
0.00013862
0.000200269
0.00390674
0.000139766
0.000147813
0.000145124
0.0355562
0.0251125
0.000144595
0.0322882
0.000175908
0.000142629
0.0336478
0.000152218
0.00019476
0.0364518
0.030875