/*--------------------------------*- C++ -*----------------------------------*\
| =========                 |                                                 |
| \\      /  F ield         | OpenFOAM: The Open Source CFD Toolbox           |
|  \\    /   O peration     | Version:  v2012                                 |
|   \\  /    A nd           | Website:  www.openfoam.com                      |
|    \\/     M anipulation  |                                                 |
\*---------------------------------------------------------------------------*/
FoamFile
{
    version     2.0;
    format      ascii;
    class       volVectorField;
    location    "950";
    object      ddt0(U);
}
// * * * * * * * * * * * * * * * * * * * * * * * * * * * * * * * * * * * * * //

dimensions      [0 1 -2 0 0 0 0];


internalField   nonuniform List<vector> 
18355
(
(0.0574002 -0.0483205 -3.24857e-19)
(0.00052376 -0.000508822 1.92283e-19)
(-0.0465517 -0.00626124 -8.17548e-19)
(0.000656106 9.21638e-05 9.46337e-20)
(0.00891438 -0.0199968 7.17257e-20)
(0.0555858 0.0527467 -2.6202e-19)
(-0.00109066 0.00113285 -4.66034e-19)
(0.00482462 -0.0219376 -5.0759e-20)
(0.000338524 -2.24906e-05 -3.02172e-19)
(0.0131293 0.0289887 -2.34804e-19)
(0.00164103 0.00746589 2.09577e-19)
(-0.0177318 0.00603041 -6.70176e-18)
(-0.0181519 0.00656469 7.97338e-18)
(-0.0629853 -0.254433 -1.73137e-19)
(0.000277033 -3.62927e-05 8.3947e-21)
(0.000764201 -0.000261654 5.61779e-20)
(0.000738562 8.6359e-05 -7.34809e-20)
(-0.00363311 0.00454137 6.61773e-19)
(-0.0277969 -0.0437796 1.28074e-18)
(-0.00187249 -0.0031177 -3.95995e-19)
(0.0582433 0.0160308 3.50807e-19)
(0.00167253 0.00038113 -2.29907e-19)
(0.000366713 -0.000262919 8.34435e-20)
(0.052178 0.0549361 7.57183e-19)
(0.000358017 -0.000247237 -3.29064e-19)
(0.000698321 0.00244354 1.16042e-18)
(-0.000413263 0.00117013 4.97936e-19)
(0.000576751 0.000186388 -9.49338e-20)
(0.000334952 -1.32805e-05 4.26139e-19)
(0.000834629 0.00855873 1.27041e-18)
(0.0973966 0.221782 -2.03815e-18)
(0.0193273 0.00952382 -2.14731e-19)
(0.000477928 -0.00059919 2.41158e-20)
(0.000973266 -0.000148971 -2.2722e-19)
(-0.000392557 1.96195e-05 -4.78804e-21)
(0.00169959 -0.000624071 6.35267e-19)
(-0.00045566 -0.00414631 -2.16381e-18)
(0.00195724 -0.000594591 -6.0327e-19)
(0.0008641 0.00920231 -1.25087e-18)
(4.81506e-06 0.00137296 4.97886e-20)
(0.00143893 9.79645e-06 2.00091e-19)
(0.00175922 0.00812845 -7.13703e-20)
(0.000958451 -0.000197296 1.84769e-20)
(0.000514132 -0.000450821 1.73727e-20)
(0.000509573 -0.000477276 -3.35673e-20)
(-0.0185363 0.0138942 -1.51422e-18)
(0.000281891 0.00022323 7.87497e-20)
(0.000281582 0.000206959 1.64649e-20)
(0.0721324 0.284487 4.06538e-19)
(-0.000204334 -0.000686122 -3.19791e-19)
(0.000771765 1.71035e-05 7.09556e-19)
(0.0751867 0.0256717 -1.54644e-19)
(-0.000310215 -0.000789443 9.05224e-19)
(0.0102142 -0.0477532 2.81585e-19)
(0.000821199 0.000148171 -2.24987e-19)
(-0.00141442 -0.00350517 6.33026e-19)
(4.26958e-05 3.07799e-05 5.89354e-20)
(-0.0566588 0.403107 8.9795e-18)
(0.00113393 0.00254161 -5.99335e-19)
(0.0317841 0.0200174 6.90829e-18)
(0.000985168 -0.000178612 -3.07792e-20)
(-0.0176095 -0.00138096 8.37709e-18)
(0.0131769 -0.0460445 8.90143e-19)
(0.000350232 0.00303231 -2.69022e-19)
(0.0259529 0.00427247 -7.50947e-19)
(0.000733926 4.11279e-05 1.5842e-19)
(0.00342306 -0.000728213 4.02366e-19)
(-0.000333435 -0.00433922 5.14167e-18)
(0.00105735 6.48153e-05 3.96527e-20)
(-0.054681 0.0272997 1.77315e-20)
(-0.000205421 -0.000192827 -1.41721e-19)
(0.000761287 0.000152775 1.23898e-18)
(0.0151859 0.00828269 -2.75479e-19)
(-0.00625295 0.00441042 -2.44474e-19)
(0.0532084 0.00346437 9.99843e-19)
(0.00106946 -1.73806e-05 2.4561e-19)
(-0.00442186 0.312944 -9.75634e-19)
(0.00108643 -5.61747e-05 -2.09958e-19)
(-0.000240559 -0.000189765 2.30749e-19)
(0.0499755 0.0102804 -6.73833e-19)
(0.00350691 -0.000530902 -2.67468e-18)
(0.0367609 0.0322817 -5.64524e-19)
(0.00108698 3.26117e-05 -1.2015e-19)
(0.00497469 -0.000340987 -2.27504e-18)
(0.0156257 -0.011771 -2.13582e-19)
(0.000610053 -9.22804e-06 -2.90358e-19)
(0.000541943 5.94283e-06 -6.60703e-20)
(0.00820386 -0.0107258 1.10714e-18)
(-4.13042e-05 3.15217e-05 -5.96464e-20)
(0.00915671 -0.0104959 -1.5882e-18)
(0.0264149 -0.416091 2.21546e-17)
(0.0505949 0.0162831 -5.56107e-19)
(0.0290574 0.0326985 1.97197e-18)
(-7.21801e-05 -0.000617904 4.98014e-19)
(-0.10934 0.00379394 2.76993e-18)
(-0.00234117 0.00207033 2.26256e-20)
(0.000147658 3.07323e-05 -2.53169e-19)
(-0.00179657 0.00176633 -1.43832e-19)
(-0.0100185 -0.0229043 -1.5459e-18)
(0.00145416 0.000577188 -3.49993e-19)
(0.0147524 -0.0109667 1.58953e-18)
(-0.000256954 -0.000204869 2.27299e-19)
(-6.48212e-05 -0.000535596 -4.64855e-19)
(-0.000612609 0.000176805 -8.20845e-22)
(0.00390608 -0.000348352 -1.11775e-19)
(0.000762581 -0.000256695 1.4439e-19)
(0.0257491 0.00592174 1.07154e-19)
(-0.114198 0.00184346 -1.77559e-18)
(0.00313308 -0.00790098 -2.00288e-18)
(0.000840137 -0.000292696 -4.94849e-19)
(3.66686e-05 4.8942e-05 -4.57172e-20)
(0.000532164 1.41067e-05 2.6903e-19)
(0.00841206 0.00993951 -6.74016e-19)
(0.00475349 -8.73157e-05 1.66531e-18)
(-0.0246734 0.0184408 5.81062e-18)
(0.00747632 0.00419753 2.93809e-19)
(-0.000262841 -0.00020905 -5.62929e-19)
(0.0557489 0.0199105 3.71922e-19)
(0.0029836 0.000678309 6.03994e-19)
(0.00320207 -0.000759805 -1.29707e-18)
(-0.0475135 0.0261275 -6.33461e-19)
(-0.0468274 -0.00337608 1.37953e-18)
(0.0336894 -0.384297 3.21608e-18)
(0.00991036 -0.013412 -3.38586e-18)
(0.0518503 0.0267276 -1.75573e-18)
(-0.0201508 0.0152488 -1.32615e-18)
(-0.000803379 0.00132538 2.92499e-19)
(0.000682763 7.22874e-05 -1.10854e-19)
(0.0559829 -0.0562027 -8.62741e-19)
(0.00115157 0.000408481 3.03752e-18)
(0.000132908 3.43866e-05 3.45652e-19)
(0.0724842 0.0269359 1.72889e-20)
(0.00054309 0.00018598 -3.25186e-20)
(-0.0172585 -0.0135544 1.05779e-17)
(0.0318398 -0.0183853 2.89073e-19)
(-0.000103527 7.0522e-06 -3.40643e-19)
(-0.0309598 -0.0423136 -6.92194e-19)
(-0.064965 0.0127548 -1.08936e-19)
(0.00101392 2.26177e-05 1.90581e-19)
(0.0533824 0.0172293 -7.88452e-19)
(0.00140873 -0.00316833 5.32317e-18)
(0.0178531 0.00937138 1.03014e-18)
(0.000168911 0.000162311 1.5136e-19)
(0.107121 0.0495049 1.56324e-18)
(0.0331837 -0.0167748 8.46249e-21)
(0.00135417 2.21329e-05 -6.3225e-19)
(0.0280391 0.0246745 -6.39103e-18)
(-0.000729285 0.000569658 7.674e-21)
(0.00772595 0.010399 -5.4678e-19)
(0.00317962 0.0897511 3.58578e-19)
(0.000563588 0.00017677 1.08242e-19)
(0.00317035 -0.000688664 1.25878e-18)
(0.00379914 0.00107554 1.65465e-20)
(0.00379259 0.00742956 3.68657e-19)
(0.000964743 -0.000225224 7.72562e-20)
(0.000433455 -0.000106708 -1.23891e-19)
(0.000624511 6.4563e-05 1.00419e-19)
(0.00064554 -1.31143e-05 -3.81281e-21)
(0.000213896 0.000177513 -3.50294e-19)
(0.000459273 -9.20956e-05 -6.78164e-20)
(-0.00229092 0.005765 6.75015e-19)
(0.000427382 0.000201163 -2.49713e-19)
(0.000816856 -0.000282706 -6.94267e-20)
(0.00982782 0.00782657 -3.42488e-19)
(-0.00475384 0.00641655 3.63087e-19)
(0.00650312 0.0313552 -6.27957e-19)
(0.0303312 0.024181 -7.20655e-18)
(0.0725612 -0.0408131 -4.16005e-19)
(0.0764696 0.0247403 2.38759e-19)
(0.00160316 -0.00318095 -3.31647e-19)
(0.000370268 2.12873e-05 5.83891e-20)
(-0.015985 -0.0133178 -1.12843e-18)
(0.000619046 -7.52696e-06 1.67176e-19)
(0.0567933 0.301 -1.5797e-18)
(-9.29596e-05 2.58781e-05 7.76109e-20)
(0.00142215 1.49515e-05 1.70875e-19)
(0.000564491 2.21753e-05 -5.09466e-19)
(-0.000675629 0.00029961 2.08937e-20)
(0.000412338 -0.00115195 -2.42912e-18)
(0.00856141 -0.000979539 9.86399e-19)
(0.00058224 -1.7843e-05 1.15751e-20)
(0.00386949 0.0289334 3.61577e-19)
(0.00135101 0.000417375 9.95227e-19)
(0.000458135 0.000225024 1.04889e-19)
(0.00969007 0.0203071 3.96525e-20)
(2.10415e-07 -0.000447304 -2.52418e-19)
(0.000483569 -3.4669e-05 -1.76753e-20)
(0.0102182 -0.00911804 1.14402e-18)
(0.00114064 9.45758e-05 -2.20891e-19)
(-0.000102805 0.00136889 -2.76284e-19)
(-0.0197856 0.014486 2.35579e-18)
(-0.01112 -0.0216245 -7.7861e-19)
(0.000461534 -0.000565146 -3.81057e-19)
(0.00143876 0.000532874 -4.11545e-20)
(0.00138287 9.47849e-06 1.34294e-19)
(-0.0258743 0.0189594 4.97364e-18)
(0.00079563 1.87421e-05 2.35366e-19)
(0.109793 -0.0422394 5.8149e-19)
(0.000546502 -0.000538968 -2.21895e-19)
(-0.0354089 -0.253662 -4.84437e-19)
(-8.04571e-05 -0.000377588 -6.00313e-19)
(-0.00391707 0.00135011 -5.05894e-19)
(-0.000189178 0.0096228 -1.19136e-18)
(0.000578854 -3.03757e-05 1.22484e-20)
(0.070647 -0.0458756 3.38107e-18)
(0.00111834 0.000320649 -7.57148e-19)
(0.0785008 0.0275571 -2.11026e-19)
(0.000460853 0.000225338 -4.26491e-20)
(0.000673617 -0.000692045 -1.09794e-19)
(0.00403186 -0.000567802 5.01382e-20)
(0.000791628 0.000632495 -1.10312e-18)
(0.0156963 0.0455761 3.1237e-18)
(0.00391553 0.00407611 6.34093e-21)
(0.00366841 0.00327603 2.54154e-20)
(-0.000742843 0.000603868 -2.90465e-20)
(0.0308085 0.33189 2.6167e-17)
(0.00865132 -0.000482105 1.34788e-19)
(-0.000319213 -0.00278806 4.25924e-19)
(0.00106395 0.000359644 -3.46717e-19)
(0.000218955 0.000223403 2.89288e-19)
(0.00309693 -0.00739084 -1.05972e-18)
(0.00101353 0.000795158 1.09142e-19)
(0.00676706 -0.00989394 -4.1786e-18)
(-0.00187935 -0.00904456 -4.02003e-20)
(-0.0266291 0.00690656 -6.12946e-19)
(-0.0068759 0.000893119 1.27686e-20)
(0.0011375 0.000750879 -1.41983e-19)
(-0.0609881 0.00744488 1.79639e-20)
(0.049695 -0.0372958 1.11482e-18)
(0.0134243 0.00463225 -8.53001e-20)
(-0.00238876 -0.000532458 -1.96608e-19)
(0.00381407 -0.00055627 8.57254e-19)
(0.0233114 -0.00409323 4.32104e-19)
(0.0010938 0.000814434 1.05002e-19)
(0.00861768 0.0101275 -5.24467e-19)
(-0.0241284 0.00744796 9.01522e-19)
(0.000780262 -0.000558979 2.32831e-19)
(-0.0190556 0.0143499 -1.61806e-18)
(-0.00105566 -0.00181272 1.60981e-18)
(0.00424384 0.0026753 1.05932e-20)
(0.000535169 -0.000608143 6.28428e-20)
(0.0004277 -0.00109769 -4.78776e-18)
(0.00386624 0.00209685 -2.23813e-19)
(0.0125097 0.0031708 3.40939e-20)
(0.00111504 0.00035025 2.51677e-19)
(0.000853823 0.000150514 7.99468e-20)
(0.000340254 0.000210657 -6.32188e-20)
(0.0105631 0.0436888 -3.51599e-18)
(0.0269595 0.0521842 1.82209e-18)
(-0.000209118 -8.73902e-05 5.71499e-19)
(0.000129886 0.00362595 -1.08282e-20)
(0.0220535 0.0519311 -1.26552e-18)
(-0.0319062 0.000824753 -1.10552e-19)
(-0.00305485 -0.00862553 4.20937e-20)
(-0.000651636 0.000292144 -2.24742e-20)
(0.00426126 -0.0125512 -8.95591e-21)
(-0.00100667 -0.00188974 1.24632e-18)
(0.00121575 1.99137e-05 1.52359e-19)
(-0.00735225 -0.000139461 3.77221e-19)
(0.00014196 -1.08437e-05 -4.94991e-20)
(-0.0047545 0.086639 -1.34943e-19)
(-0.0114984 -0.0377193 -6.52693e-19)
(-0.00941047 -0.019619 2.26216e-18)
(-0.0031925 -0.00268951 -5.95771e-18)
(-0.000268035 0.0104576 -1.01479e-18)
(0.000769297 0.0207288 1.87171e-18)
(0.0154649 0.00327505 -9.11671e-19)
(-0.0103888 -0.0261865 1.08767e-18)
(0.000134185 -1.59152e-05 -8.60019e-20)
(0.0008498 0.000155645 7.7601e-19)
(0.000531168 0.00132524 6.61462e-19)
(0.000898447 -0.000337256 -7.67593e-20)
(-0.00412388 0.000898149 2.34729e-19)
(-0.000444667 -0.0028368 9.84815e-19)
(0.000527653 0.000149972 -1.56579e-21)
(0.000918089 0.00057147 -1.50024e-18)
(-0.0159823 -0.00200441 -9.84701e-19)
(-7.69276e-05 -4.00289e-06 8.39922e-20)
(0.0201243 -0.0243508 1.53582e-18)
(-0.0696086 0.164689 -7.61048e-20)
(-0.0136564 0.000390022 1.78421e-19)
(0.000747064 0.000664818 -5.39912e-19)
(0.00784158 0.00530057 -1.43932e-20)
(0.000911683 -0.000313676 -1.08748e-21)
(0.00671667 -0.0115252 -1.3916e-19)
(0.00101876 0.000292567 -1.729e-18)
(0.00980646 -6.63035e-05 -5.411e-20)
(0.00149948 1.19864e-05 4.15636e-19)
(0.00919594 4.21426e-05 -8.63096e-19)
(-0.00197132 0.15314 4.79395e-19)
(0.000553199 -0.000606192 -8.24397e-20)
(-0.00749476 -0.00762052 -4.58819e-18)
(0.00274472 0.000295492 -6.64994e-19)
(-0.00668618 -0.00468722 -3.28461e-20)
(0.0157094 -2.33499e-05 2.22079e-19)
(0.000333684 -2.8239e-05 -1.77395e-19)
(0.00135878 0.000563957 -1.39704e-19)
(0.0190118 -0.0226367 -6.04201e-20)
(0.000884568 0.000591991 2.08139e-19)
(0.0187907 0.00554068 1.2633e-18)
(-0.000876259 -0.00397134 9.44363e-19)
(-0.0225105 0.014313 -1.13924e-17)
(0.00453961 -0.0126401 -9.3808e-21)
(-0.0105454 -0.0201475 2.42979e-18)
(-0.004134 0.00261425 1.2857e-18)
(-0.017958 -0.00223257 -1.16328e-18)
(-0.000422911 -0.000592856 -5.41746e-20)
(-0.000673885 -0.0015964 -1.36363e-18)
(-0.00297946 -0.00265946 -8.41299e-18)
(-0.00732686 -0.00808858 3.48929e-18)
(0.018509 -0.0033954 -6.87737e-20)
(-0.0596483 0.00221816 2.04691e-19)
(0.000242243 0.00030284 -1.04143e-20)
(0.00564997 -0.00154252 9.74134e-20)
(0.0144963 -0.0399743 1.2058e-19)
(0.00831654 0.00563673 4.9174e-22)
(0.000288598 0.00030152 2.47026e-19)
(0.00027295 0.000193967 4.26504e-21)
(0.000441681 0.000211654 1.37284e-20)
(-0.00901632 -0.00214617 6.41882e-18)
(-0.0554333 0.00399402 -2.93452e-19)
(-0.11778 0.0289529 -3.00443e-18)
(0.0179806 -0.00229498 9.89898e-20)
(-0.015538 0.000420274 2.26342e-18)
(0.00106767 -0.00294615 3.62892e-18)
(0.00669102 0.0353707 -3.68826e-19)
(-0.000656781 0.000562606 -2.56968e-22)
(0.00113465 0.000313636 -4.98813e-19)
(0.00125801 -0.00292154 -2.55319e-19)
(0.00080614 0.000261023 1.19346e-18)
(0.013547 0.0036236 5.14916e-20)
(-0.000458757 2.28428e-05 -7.25172e-21)
(-0.00445081 0.0926596 1.03136e-18)
(0.000735044 -0.000276282 1.07775e-19)
(0.0518618 0.0384215 -5.12045e-19)
(0.00142655 3.98502e-05 -4.51565e-20)
(0.000123341 0.00127635 6.59261e-20)
(-0.00525143 0.00218058 1.12975e-19)
(-0.0215081 0.0062116 1.34016e-17)
(0.0953048 -0.0286428 -3.57426e-19)
(0.0125359 0.00229133 1.10489e-19)
(0.0159893 -0.00224313 1.04841e-19)
(0.00122226 0.00110371 7.31416e-20)
(-3.04751e-05 4.50453e-05 2.28661e-19)
(0.000800227 0.000250191 -7.60439e-19)
(-0.00719215 -0.000166337 -1.08867e-19)
(0.0157636 0.031258 5.52638e-19)
(-3.07536e-05 7.65808e-05 -8.46662e-20)
(0.0010033 2.25624e-05 -3.57067e-22)
(0.00343008 0.0245072 6.0448e-19)
(0.00119139 0.000879502 -2.64984e-18)
(-0.000131736 6.68887e-05 1.27848e-19)
(-0.0281513 0.00473559 4.15949e-18)
(-0.00626235 0.000322171 -1.93965e-19)
(0.000384774 0.000215241 -1.45603e-19)
(-0.00189193 -0.000208822 -4.88822e-19)
(0.0105238 0.000288915 -3.26051e-19)
(0.00123353 1.0753e-05 5.72068e-19)
(0.0105694 0.000951438 -3.3269e-19)
(0.000946552 0.00157318 1.45314e-19)
(0.000955038 2.7017e-05 -4.57503e-20)
(0.00138454 0.000592937 2.74254e-19)
(0.0294645 0.0189055 -3.36065e-18)
(0.0161918 -0.0127477 3.43743e-19)
(0.000832978 0.00147127 2.02406e-20)
(0.000191193 0.000140544 -1.52025e-19)
(-0.0157238 0.00167406 9.21391e-19)
(0.000449819 0.000219118 7.08512e-21)
(0.000691685 -8.01371e-06 -3.20619e-19)
(0.00170618 0.0411998 -8.79541e-19)
(0.0130454 -0.0159727 -2.56332e-19)
(-0.0182407 -0.00522019 1.14837e-19)
(0.000781762 0.000233434 2.42469e-18)
(0.00077676 -0.000596775 -1.6768e-18)
(-0.0189451 0.0064965 -1.03946e-17)
(0.00259705 -0.00608112 -9.0173e-20)
(0.00254647 -0.0129526 3.80656e-20)
(-0.00086233 -0.00159088 1.7408e-18)
(0.000679298 -0.000480996 4.15546e-20)
(-0.0134933 0.00223275 -8.21779e-19)
(0.0119112 -0.0105972 6.82513e-19)
(0.00114707 0.000555679 -8.68189e-19)
(0.00097174 3.23242e-05 -3.07008e-19)
(-0.00309193 0.00488623 8.32606e-19)
(0.000390256 -6.01899e-06 -1.09901e-19)
(0.000105734 0.00531459 -9.19871e-20)
(0.00136222 1.50344e-05 -8.46326e-20)
(0.0177396 0.026056 -8.00027e-20)
(0.00422413 0.00150291 9.65703e-20)
(0.00279218 -0.000755802 -2.56395e-18)
(0.000713568 2.9402e-05 -2.93649e-19)
(0.000386039 0.000221142 -1.14116e-19)
(-0.00382093 0.00055583 -1.0584e-19)
(0.00024915 0.00213958 -3.88205e-19)
(-0.014189 -0.00530041 -1.68563e-18)
(-0.0111146 0.054391 1.45138e-19)
(0.0161082 -0.0151004 -8.08751e-20)
(-0.00503285 0.00134645 3.35383e-19)
(-0.0322425 -0.000852263 1.55042e-18)
(0.00903341 -0.000185248 5.25362e-19)
(0.00122424 3.41889e-05 -4.3173e-19)
(-0.000503187 2.82124e-05 2.22213e-21)
(-0.00656483 -0.00706016 -9.94024e-19)
(0.00108008 0.00010249 1.74131e-19)
(-0.0199242 -0.00578241 -1.51057e-18)
(-0.00111514 0.000855843 4.38022e-19)
(-0.00828432 0.00639283 8.69991e-19)
(0.0110361 0.0352275 2.64886e-18)
(-0.0299791 0.00985102 3.17081e-19)
(0.0812788 -0.0270476 3.51193e-18)
(-0.0058074 -0.0243938 1.5705e-18)
(-0.000630009 0.000158001 1.16751e-21)
(-0.102615 0.0639251 1.11193e-18)
(0.00145956 0.000512734 1.45655e-18)
(0.000517888 0.000145292 -1.22138e-20)
(0.0583253 0.0186103 9.41308e-19)
(0.00132557 5.02445e-05 1.45817e-18)
(-0.0114543 0.0016861 -1.63275e-19)
(-0.000985899 0.0022272 6.84601e-20)
(0.0278089 0.00692203 7.56762e-20)
(0.00113075 5.46204e-05 -8.77627e-19)
(-0.0156783 -0.0118866 9.92343e-19)
(0.0576595 -0.00821845 -4.92247e-19)
(-0.00907358 -0.0171451 -5.3974e-19)
(0.000136952 0.000302254 -2.98909e-20)
(0.000656121 -0.000681079 -3.62603e-19)
(-0.0100006 -0.0177333 -5.65914e-18)
(0.00295666 0.00050567 7.51137e-19)
(-0.00115731 -0.000316926 -2.88809e-19)
(0.0105329 0.0293333 -8.42921e-19)
(-0.0127203 -0.0317948 -1.3907e-18)
(0.000508771 0.000132776 2.02721e-20)
(-0.00708185 -0.00715326 -2.34722e-19)
(-0.0142917 -0.00596251 3.43552e-18)
(0.000599815 -0.000648901 8.87516e-21)
(0.000360678 0.00187511 -1.56039e-19)
(0.0115245 0.0019552 1.79683e-19)
(-0.165127 0.324992 -3.17643e-18)
(0.000514802 -0.0116197 -2.1509e-18)
(0.00112633 0.000941876 4.35077e-19)
(-0.000545013 -0.000657101 -5.20526e-20)
(-0.0052559 -0.00571347 9.48923e-18)
(0.000370342 -1.09666e-05 -1.69127e-19)
(0.00115816 -0.00060926 1.40877e-19)
(-0.00157741 -0.000242821 1.26987e-19)
(-0.0281344 0.0111294 1.45945e-19)
(-0.0073936 0.050304 -1.49609e-19)
(0.000720918 -0.000481572 -1.36788e-19)
(0.000493153 -2.54959e-06 4.08297e-20)
(0.00130741 2.51257e-05 6.48922e-19)
(-0.0220554 0.00691315 2.90782e-18)
(0.0122056 -0.00842709 -8.18612e-19)
(0.00136138 0.000828244 1.95169e-20)
(-0.0111869 0.000250174 4.59673e-19)
(0.0063159 -0.0105869 3.83566e-18)
(0.000897193 0.000170092 -4.36647e-18)
(-0.0206041 0.0203086 -6.6251e-18)
(-0.0182697 -0.00194855 -1.37705e-17)
(0.00143866 0.000386303 -7.99962e-19)
(0.000372894 -7.72242e-06 2.83246e-19)
(0.000697732 -0.0109472 -3.18456e-20)
(-0.021088 0.00813637 -2.84783e-18)
(-0.0580053 -0.207669 6.09328e-18)
(0.00080704 -0.000520548 9.3192e-23)
(0.0569609 -0.101981 -6.64183e-18)
(0.00100922 2.14614e-05 3.17887e-19)
(0.000767437 -0.000537954 6.36697e-20)
(0.00575889 -0.0139269 -2.90818e-19)
(0.00305857 0.00019241 4.2473e-19)
(0.0201287 0.0263319 -4.69919e-19)
(0.0154716 0.00702892 3.74504e-19)
(0.00294757 -0.000839442 -7.52767e-19)
(-0.00706498 0.00474285 -9.72621e-19)
(0.00164246 0.000310771 5.38994e-19)
(-0.0285267 0.00331995 1.66867e-18)
(0.00320057 0.000734551 -1.32343e-18)
(-0.00273407 -0.00240151 -4.44256e-18)
(0.0013755 0.000822918 7.17653e-19)
(0.000889123 -0.000523029 9.49354e-20)
(0.000966431 -9.99098e-05 3.24221e-18)
(0.00085889 -0.000554222 2.83349e-19)
(-0.0185681 -0.00356244 7.41544e-19)
(-0.0182213 0.0533208 -8.52386e-19)
(0.0276172 0.00864964 -5.27511e-19)
(-0.00421236 0.00500693 2.48584e-19)
(-0.000293186 0.000795568 1.2733e-20)
(0.00133033 0.000892101 1.66641e-18)
(0.00459808 -0.000395645 -7.25895e-20)
(-0.00384665 0.00304224 1.06358e-19)
(-0.000730249 0.00292836 2.65039e-19)
(-0.000159667 0.00143251 3.30496e-19)
(0.000974979 0.000100109 -1.93705e-18)
(0.00611516 -0.0121853 -4.28727e-19)
(0.000529427 -0.000646697 2.90911e-19)
(-0.00128537 0.00268834 -2.4109e-19)
(-0.282129 -0.240301 -9.07073e-18)
(0.119785 -0.0455789 4.85767e-19)
(0.0122821 -0.0420359 -1.46585e-19)
(0.00106276 0.000386132 -5.86646e-18)
(0.000568812 -8.65066e-06 1.04462e-20)
(0.0114738 0.00121087 6.74923e-20)
(0.00149875 0.000414453 1.37184e-18)
(0.000409709 0.0716513 -2.16751e-20)
(-0.0554742 -0.0111427 -1.60485e-19)
(0.00523509 -0.000850803 -2.4515e-19)
(0.00531489 0.000603148 -6.58073e-19)
(-0.00880169 0.000320986 -2.12506e-19)
(0.00165244 -0.000345888 -6.54942e-19)
(0.00196124 -0.0018413 -7.54611e-19)
(0.0416857 0.0238442 1.86206e-18)
(0.00868384 -0.00580994 6.19816e-19)
(0.00152087 -0.000271915 -6.60609e-19)
(-0.0364034 -0.102368 -7.87684e-19)
(0.000562272 1.06308e-05 1.21783e-19)
(0.0962798 -0.0346305 -2.07221e-18)
(-0.0991746 0.0609521 -4.63184e-20)
(-0.00134474 -0.00191827 -9.25158e-18)
(0.000336835 0.00175306 3.38701e-19)
(0.0414354 0.0251605 -7.27674e-18)
(0.000527806 0.000162177 -1.48895e-21)
(-0.0145321 -0.0117259 -1.20632e-18)
(0.0193863 0.0108965 -1.46175e-18)
(0.017824 0.00407455 -3.2728e-19)
(0.00321582 0.00093513 -3.36342e-18)
(0.000917662 -8.2549e-05 -4.10231e-18)
(0.000878455 0.000207015 7.11264e-19)
(-0.0447756 -0.0945376 -5.88607e-19)
(-0.0436204 -0.291456 -2.80846e-18)
(0.0175697 0.00450056 6.77078e-20)
(0.0570793 -0.0623589 -4.00453e-18)
(-0.00415227 0.0017331 5.38124e-19)
(0.00088635 0.00021931 1.54796e-18)
(0.00483058 -0.000624071 2.14573e-19)
(0.000855591 0.000158452 -4.06113e-19)
(0.00366663 -0.00260596 -1.41464e-18)
(0.0557776 0.0149245 -7.2002e-19)
(0.00821531 0.312533 -2.46299e-17)
(-0.0219352 0.058539 9.66573e-19)
(0.0421755 0.0690051 4.24764e-18)
(0.0113808 -0.00229885 1.86281e-18)
(0.0179817 0.00875905 -4.67102e-19)
(0.00817365 0.0120049 1.97357e-20)
(0.000288285 0.000234034 1.40231e-19)
(0.000518838 0.000179383 -3.68558e-20)
(0.0129634 -0.00216694 -4.42605e-20)
(-0.00300571 -0.0049186 -4.55344e-19)
(0.000993462 0.000277262 -7.51189e-20)
(0.000880406 0.000151992 -5.58367e-19)
(0.0585173 0.0442717 -1.96238e-19)
(0.000140006 1.56539e-05 1.80439e-19)
(0.0454494 0.0739155 -4.9457e-18)
(0.00648888 -0.00345271 1.72323e-18)
(-0.0181692 -0.0076816 2.10276e-18)
(-0.0193341 0.00703952 2.41825e-18)
(0.000525906 0.000167602 -4.42528e-19)
(0.00485465 0.000206281 -1.45034e-19)
(0.0733955 -0.0570241 -3.74137e-18)
(0.000952699 0.000114301 1.51012e-18)
(-0.0328816 0.0709854 -8.92108e-20)
(0.000956295 3.54501e-05 2.35892e-19)
(0.0454483 0.0163978 1.18696e-19)
(0.00903883 -0.00533897 -1.19434e-18)
(0.00140408 1.4318e-05 -2.88026e-19)
(0.00748945 0.0124738 6.38363e-19)
(-0.0112011 -0.0247306 6.16975e-19)
(-0.00466128 -0.0258812 2.34242e-19)
(0.000545344 -2.02459e-05 2.51782e-21)
(0.00112827 0.00026982 3.06756e-19)
(-0.00446752 -0.00563932 -4.24437e-18)
(-0.00146039 -0.00192428 -4.97766e-18)
(-0.0186524 -0.0086272 -4.36585e-18)
(0.00115921 6.14497e-05 -3.92692e-19)
(-0.0176249 -0.000628144 7.72828e-19)
(0.00012823 8.77908e-06 1.54347e-19)
(-0.0535517 -0.0144611 3.69837e-19)
(-0.00041622 1.50127e-05 -1.95016e-21)
(0.000327389 0.000314209 4.7322e-19)
(-0.0380222 0.0041296 5.62185e-21)
(-0.00283513 0.00739685 1.11533e-19)
(-0.0212559 0.00411083 -1.66838e-18)
(-8.90808e-05 3.47057e-05 -1.44206e-19)
(0.00575427 0.00107461 -1.53308e-18)
(-0.00420609 -0.00703148 5.02082e-21)
(-0.0122637 0.0804354 -1.65606e-19)
(-0.10692 0.0378451 -7.34714e-19)
(0.000766859 -0.00254015 1.17633e-19)
(-0.000829346 -0.0108123 4.82167e-20)
(0.000300898 3.14005e-05 -3.24165e-21)
(0.00800239 0.00452478 -1.27671e-19)
(0.00115529 0.000695659 -1.19252e-18)
(0.000809164 -0.00239619 9.05071e-19)
(0.0294439 0.0543214 -1.82163e-18)
(0.000492077 -0.000395406 -5.46506e-19)
(0.0192058 -0.0110089 -2.35238e-19)
(0.000645871 0.000683442 -1.03125e-18)
(0.000377656 2.8791e-05 1.81889e-20)
(0.00209846 -0.00235741 2.42076e-18)
(-0.00566402 0.0670227 1.95202e-19)
(0.00315171 -0.00694499 9.45338e-21)
(0.0288467 -0.0149432 -4.99951e-19)
(-0.00420355 -0.00282059 -4.5795e-19)
(-0.00554774 -0.00317015 -3.13769e-18)
(0.0495735 0.0221137 1.33667e-20)
(-0.000682554 0.000589075 -3.95536e-20)
(0.000352774 0.000217331 1.59967e-19)
(0.104394 -0.0711341 5.72805e-18)
(0.00935629 -0.00950972 1.27419e-18)
(-0.295696 -0.242509 1.04464e-17)
(0.016872 0.0051417 -6.43476e-22)
(0.000174023 0.00107727 4.37512e-20)
(0.000924634 0.000152206 2.354e-19)
(-0.000100736 -0.000170983 -1.10072e-19)
(-0.00557926 0.00501831 1.61859e-18)
(0.00123488 0.00133765 4.73673e-19)
(-0.000905239 0.00199249 -9.54262e-20)
(0.0421022 -0.0196036 4.12444e-20)
(0.0678857 0.0285827 -9.9507e-20)
(0.00027953 0.000317535 -4.51325e-19)
(-0.153346 0.1755 1.25329e-20)
(-0.172048 0.274927 1.54386e-18)
(0.00157448 0.0061166 -1.92525e-19)
(-0.0420996 0.00477201 -7.61387e-19)
(0.00113278 -0.000680978 -1.76489e-19)
(0.0562618 -0.0448584 6.07602e-19)
(0.0192435 0.00660075 -3.82327e-20)
(-0.000774537 0.000784903 -6.09557e-20)
(0.042742 0.0317253 -5.30772e-18)
(-0.00607139 -0.0062617 -1.26213e-18)
(-0.00151104 0.0237242 2.07094e-18)
(-0.0272311 0.081806 9.34551e-19)
(-0.00152149 -0.000715249 2.36741e-20)
(-0.000105967 -0.00013288 -4.85265e-19)
(0.000666643 -9.27057e-06 -1.40755e-19)
(0.00792816 0.023992 -1.73012e-19)
(-0.00875745 -0.00250259 -4.96712e-18)
(-1.57967e-06 0.000301181 1.01248e-19)
(0.000596889 -0.00059606 -5.81169e-20)
(0.040034 -0.0218115 2.96354e-19)
(0.00136128 0.000476558 -1.31542e-18)
(-0.00651728 -0.00640769 -2.80969e-19)
(-8.44702e-05 -0.000144118 -2.09455e-20)
(-0.00560936 -0.00547725 -1.41232e-17)
(-0.0894262 0.0747453 -1.79129e-19)
(-0.0302131 -0.0914064 5.96217e-19)
(0.00996683 -0.0254583 3.20061e-19)
(-0.0300044 -0.0723691 -6.25152e-19)
(0.0110137 -0.00975073 7.29071e-19)
(-0.01709 0.318697 -3.86422e-19)
(0.00522467 0.000259938 -3.10077e-19)
(0.000145281 0.000106275 1.72777e-19)
(0.00711631 0.00267546 -1.47504e-19)
(-0.0320976 0.0699859 2.42487e-19)
(0.00250061 0.0084759 -6.299e-19)
(-0.00793246 -0.00144912 -3.01833e-18)
(2.4413e-05 0.000307442 2.42298e-20)
(0.0457394 -0.0400364 -9.71483e-19)
(0.00128294 2.38593e-05 -7.27648e-19)
(0.00035055 0.00116154 1.10476e-19)
(-0.239097 -0.0792121 -2.46269e-19)
(0.000608241 -8.1904e-06 3.52967e-19)
(0.00767028 0.00237221 -1.36974e-19)
(-0.0178093 0.0042372 8.06199e-19)
(0.0267762 -0.0141892 -4.31031e-19)
(0.000882514 -4.27938e-05 3.9693e-20)
(0.00110686 8.62481e-05 -2.03342e-20)
(0.00242746 -0.00212512 -3.72706e-18)
(0.00620248 0.001201 4.50275e-19)
(0.000919041 0.000948792 -1.09441e-19)
(-0.000592763 -0.0041556 -3.3722e-19)
(0.00699555 0.0146822 -1.79676e-19)
(0.00968345 -0.0505042 -7.71338e-19)
(0.00260944 -0.000884948 1.41452e-18)
(0.000326281 -4.0278e-05 1.92631e-19)
(0.00935145 -0.0124197 3.49741e-19)
(0.0551069 -0.00173243 2.45166e-18)
(0.000247337 0.000292039 8.99708e-20)
(-0.0185139 -0.0667311 -4.57388e-19)
(-0.0214106 0.0189976 -1.41273e-18)
(0.000872726 0.000185219 4.52857e-18)
(-0.0803857 -0.186806 2.80229e-18)
(0.000947705 0.00121193 2.34872e-19)
(-0.0491778 -0.00875327 -1.8335e-19)
(0.000883668 0.000208289 -1.04625e-18)
(-0.00125111 0.00230008 -1.90719e-20)
(-0.0362985 0.005115 1.39404e-18)
(0.00344933 0.00125256 -3.71423e-19)
(-0.15441 0.377938 2.71393e-18)
(0.00247012 -0.000808428 -1.95719e-19)
(0.00110847 8.59372e-05 7.80743e-19)
(-0.184742 -0.244837 2.72326e-18)
(0.000847028 0.000207047 6.71965e-19)
(0.000894718 -0.000281563 -5.83782e-20)
(0.00123073 1.36247e-05 -2.0409e-19)
(0.000126735 0.000123477 1.09836e-19)
(0.00819589 0.00262951 -4.4586e-20)
(0.00764109 -0.00985842 4.45416e-18)
(0.0814086 -0.021823 -1.21285e-19)
(0.000399666 -2.05018e-05 2.5412e-20)
(-0.0279612 0.0678124 -6.88152e-19)
(-0.0013416 0.00423164 6.10187e-19)
(-0.00385953 -0.0723593 -2.95607e-18)
(-0.0809743 0.164627 5.71518e-18)
(0.000594104 0.00189551 9.53657e-20)
(0.000790026 0.000246237 -1.91517e-18)
(0.00569004 0.000685614 5.23213e-19)
(-0.000273492 0.00189609 1.05065e-19)
(-0.0229944 -0.00132345 -2.99808e-18)
(0.000653611 0.00010412 -2.33464e-19)
(0.000982272 -0.000277773 -1.08395e-19)
(0.00161044 -8.92528e-05 1.07719e-19)
(2.90724e-05 0.000301052 -4.60488e-21)
(0.000939524 0.000119969 -4.85734e-19)
(-0.0472907 0.00510169 2.78491e-18)
(-0.00409634 0.0058457 -1.255e-18)
(-0.00783972 -0.00860223 4.29805e-19)
(-0.0022898 -0.00316133 7.62604e-19)
(0.00509208 -0.0023096 4.11161e-20)
(-0.00192026 0.00525532 -4.82302e-19)
(-0.00634491 0.00408661 5.44224e-19)
(-0.00494682 -0.0420684 -2.42096e-19)
(0.000503807 -0.000602215 -4.55287e-19)
(-0.0179272 -0.00289308 1.91625e-18)
(0.0110344 -0.0133854 3.30098e-18)
(0.00121805 0.000751747 1.01191e-19)
(-0.0115017 0.310763 -6.55451e-18)
(-0.0965204 0.0713408 -5.94247e-19)
(0.000498122 5.82721e-05 6.60877e-20)
(0.0165722 -0.0602357 7.98733e-19)
(0.000208853 2.77517e-05 -3.81851e-20)
(0.0212144 -0.00890823 1.62151e-19)
(-0.00543094 -0.00338654 5.44445e-18)
(-0.000811628 0.000728859 5.94585e-20)
(-0.00486008 -0.00548604 5.43044e-18)
(0.00666135 0.00236697 1.39319e-19)
(0.00346496 -0.0650196 2.82888e-18)
(0.00050465 4.69645e-05 -8.74841e-20)
(-0.000882864 -0.0016529 -4.608e-18)
(0.00765227 -0.118728 -7.22394e-18)
(0.0340597 -0.0057672 6.76228e-20)
(0.00933426 0.0375322 -4.33125e-19)
(0.000938245 0.000129567 -1.37522e-18)
(0.0174356 0.00172657 -1.96693e-19)
(-0.0143718 0.000541917 2.35486e-18)
(0.0558998 -0.0393945 1.09498e-19)
(0.00113147 6.99113e-05 4.1482e-19)
(0.000863767 -0.00134058 1.32994e-18)
(-0.00137655 -0.000867259 -1.47403e-20)
(0.000799066 0.000508815 -3.01643e-19)
(0.000300822 0.000300159 1.31718e-21)
(-0.000418745 2.46945e-05 1.38649e-20)
(0.000520757 -0.000423524 -4.56148e-19)
(0.0153054 -0.0662552 -1.45593e-18)
(-0.00959424 2.18026e-05 -1.03305e-19)
(0.000332542 -5.8973e-05 1.12882e-19)
(0.000991945 -0.000123213 -4.35032e-19)
(-5.60621e-05 6.78216e-05 -2.75258e-19)
(0.00100611 0.000970599 8.61277e-19)
(0.0323139 -0.00524023 2.07507e-20)
(-0.0142699 8.95997e-06 -2.7211e-19)
(0.000606056 -0.000693459 1.51989e-19)
(0.00623579 0.00163516 1.34728e-19)
(2.56263e-05 0.000706579 -6.98801e-20)
(-0.000114703 0.000742153 -8.35477e-20)
(-0.00257658 -0.000206941 9.16219e-20)
(0.000226947 0.000156486 1.06655e-19)
(-0.00238187 0.0214 -1.2326e-18)
(0.00103049 -9.72758e-05 -1.04875e-19)
(0.00018041 6.13218e-05 -2.46524e-20)
(0.000464288 -3.29764e-05 2.99097e-19)
(0.00108251 0.000406006 1.80489e-18)
(-0.0025417 -0.0028498 -7.26225e-19)
(0.00213104 -0.00444423 7.03081e-20)
(-0.0272388 0.0172256 9.05325e-20)
(0.048022 0.0179556 6.87341e-19)
(0.000990247 -0.00264109 1.24813e-18)
(0.000153135 3.94159e-05 2.26215e-19)
(-0.020411 0.00774376 8.40386e-18)
(0.000980552 -0.000246198 1.59192e-19)
(0.00101406 -0.000130134 -3.70404e-20)
(0.00275477 -0.00437125 1.6893e-19)
(0.00506095 0.0352006 2.23014e-19)
(-0.0029565 0.00559389 7.3503e-19)
(0.00288676 -0.00385536 -2.57333e-19)
(0.0015938 -0.000288876 -2.4701e-19)
(0.000504519 -0.000536783 1.68944e-19)