/*--------------------------------*- C++ -*----------------------------------*\
| =========                 |                                                 |
| \\      /  F ield         | OpenFOAM: The Open Source CFD Toolbox           |
|  \\    /   O peration     | Version:  v2012                                 |
|   \\  /    A nd           | Website:  www.openfoam.com                      |
|    \\/     M anipulation  |                                                 |
\*---------------------------------------------------------------------------*/
FoamFile
{
    version     2.0;
    format      ascii;
    class       surfaceVectorField;
    location    "950";
    object      ddtCorrDdt0(Uf);
}
// * * * * * * * * * * * * * * * * * * * * * * * * * * * * * * * * * * * * * //

dimensions      [0 1 -2 0 0 0 0];


internalField   nonuniform List<vector> 
27284
(
(0.0563646 -0.0521588 -6.07228e-19)
(0.056833 -0.0466089 1.01264e-20)
(0.0597073 -0.0460152 -1.90023e-19)
(0.000219238 -0.000493162 7.03971e-20)
(0.000224181 -0.000524382 -2.58085e-20)
(0.000253055 -0.000507393 2.0811e-19)
(-0.0470278 -0.0045177 4.42668e-19)
(-0.0479994 -0.00755389 -5.08867e-19)
(-0.0448446 -0.00707086 -1.47353e-19)
(-0.000207709 8.86205e-05 1.41038e-20)
(-0.000203524 9.80891e-05 8.83227e-20)
(-0.000197044 8.73823e-05 5.07374e-20)
(0.00673574 -0.0209836 7.86503e-23)
(0.0107607 -0.0215886 3.69596e-20)
(0.00816002 -0.0172678 6.76896e-20)
(0.0534651 0.0540272 4.68826e-19)
(0.0529449 0.0492702 -2.09807e-19)
(0.0638502 0.0542711 -1.17169e-18)
(-0.00115488 0.00123284 -1.91454e-19)
(-0.00126321 0.000953801 -5.8014e-21)
(-0.00147817 0.00114219 -2.18715e-20)
(0.00201728 -0.0255601 1.01322e-19)
(0.00308785 -0.0193966 -1.83158e-19)
(-0.000215602 -1.68614e-05 4.057e-19)
(-0.000227441 -2.88458e-05 -2.83477e-19)
(-0.000229495 -2.12098e-05 3.45659e-20)
(0.0143446 0.0302646 3.57722e-19)
(0.0117395 0.0291158 -5.4516e-19)
(0.0124868 0.0286767 -1.86231e-20)
(0.00150917 0.00778517 5.97433e-20)
(0.0018214 0.00719282 2.50751e-19)
(0.00104193 0.00730018 -2.91867e-20)
(-0.0179913 0.00629804 8.15099e-19)
(-0.0174123 0.00606953 -3.48523e-18)
(-0.0179059 0.00565366 -9.3471e-18)
(-0.0186098 0.00652545 -1.55964e-18)
(-0.0180408 0.00690183 2.10374e-18)
(-0.0527034 -0.254713 -1.93815e-19)
(-0.0735836 -0.257459 1.6922e-18)
(-0.0614816 -0.234409 -1.30305e-18)
(-0.000261852 -3.21742e-05 -7.65037e-20)
(-0.000261984 -3.90899e-05 1.51148e-19)
(-0.000254237 -3.85499e-05 -1.3508e-19)
(0.00058203 -0.000260632 9.30588e-20)
(0.000593167 -0.000249674 -7.31475e-20)
(0.000599498 -0.000276093 -4.89977e-20)
(-0.000210373 7.84545e-05 -9.31819e-20)
(-0.000218007 8.72475e-05 -3.32595e-20)
(-0.00354813 0.00471463 7.70459e-19)
(-0.00411134 0.00479119 3.54247e-19)
(-0.00388532 0.0041937 4.95031e-20)
(-0.0296845 -0.042923 1.66256e-19)
(-0.0273785 -0.0460643 -2.18634e-19)
(-0.026249 -0.0423941 1.0406e-18)
(-0.00186686 -0.00332246 -2.88748e-20)
(-0.00228771 -0.00314239 3.16772e-19)
(-0.00194861 -0.00274945 3.39333e-20)
(0.0582519 0.0173658 6.62885e-19)
(0.0569761 0.0154653 -1.8315e-19)
(0.059368 0.0152373 1.27682e-19)
(0.0011836 0.000334701 1.3735e-19)
(0.00115364 0.000391718 5.49763e-19)
(0.00125198 0.000393818 -2.17751e-19)
(-2.23815e-05 -0.000254763 -1.54293e-19)
(-1.23533e-05 -0.000279164 -8.24417e-21)
(-2.11628e-06 -0.000258599 4.99303e-20)
(0.0518276 0.061666 1.56157e-18)
(0.0459432 0.052701 2.35911e-19)
(-3.95761e-05 -0.000251621 -2.28707e-19)
(-2.9748e-05 -0.000232631 -1.5676e-19)
(0.000631957 0.00250606 1.66006e-19)
(0.000395104 0.00221816 -3.06408e-21)
(0.000290296 0.00253752 8.15501e-19)
(-0.000842022 0.00125569 4.03335e-19)
(-0.000513639 0.00128858 1.21352e-19)
(-0.000627916 0.00100063 2.88847e-19)
(-0.00021019 0.000180373 -2.74193e-20)
(-0.000200628 0.00018448 -9.27715e-20)
(-0.000211611 0.000191467 -2.45468e-20)
(-0.000176613 -9.5571e-06 1.11335e-19)
(-0.000201805 -1.55242e-05 3.15465e-19)
(0.000675591 0.00885219 -1.75937e-19)
(0.00113841 0.00836612 6.83438e-19)
(0.000311129 0.00827407 3.3098e-19)
(0.0853686 0.249924 -5.12809e-19)
(0.0977022 0.195364 -2.2584e-18)
(0.0987872 0.207968 1.83302e-18)
(0.0192507 0.010292 -9.15356e-19)
(0.0185526 0.00915829 -3.76005e-19)
(0.0200129 0.00900712 7.50631e-20)
(0.000360932 -0.000606323 -2.73361e-20)
(0.000301139 -0.000552067 -4.69683e-20)
(0.000295241 -0.000642682 1.48257e-20)
(0.000819052 -0.000164422 -1.15952e-19)
(0.000827147 -0.00013567 -3.40641e-19)
(0.000801012 -0.000144121 3.8194e-20)
(-0.000433236 2.17049e-05 2.71171e-20)
(-0.000420992 2.31573e-05 -3.67306e-20)
(-0.000323209 1.26397e-05 -5.52321e-21)
(0.00160474 -0.00061503 -2.98611e-20)
(0.00135999 -0.000534681 8.22556e-19)
(0.00147042 -0.000777935 4.64058e-19)
(-0.000564847 -0.00425744 1.7893e-18)
(-0.000793215 -0.00416827 -2.46636e-18)
(-0.000556457 -0.00403339 -3.28322e-18)
(0.00176931 -0.000454109 -4.45114e-19)
(0.00190659 -0.000747055 4.62358e-19)
(0.000188838 0.00940918 -1.34351e-18)
(0.00114691 0.00944482 -4.26862e-19)
(-0.000271867 0.00132438 5.32145e-20)
(-0.000279767 0.00143921 5.99995e-20)
(-0.000382712 0.00135853 1.70543e-20)
(4.36994e-05 1.07345e-05 3.02004e-19)
(3.83635e-05 1.19763e-05 -3.70442e-20)
(5.25507e-05 5.56204e-06 4.88797e-19)
(0.00200769 0.00825927 1.88434e-20)
(0.000807236 -0.000188647 -7.08199e-21)
(0.000793866 -0.000212447 5.06584e-20)
(0.000780884 -0.000189641 -1.05923e-19)
(0.000215624 -0.000464413 -9.32214e-21)
(0.000215616 -0.000436752 -2.35744e-19)
(0.000243885 -0.000449687 9.44552e-21)
(0.000187953 -0.000476305 -6.41373e-21)
(-0.0188447 0.014091 -1.5656e-18)
(-0.0185358 0.0136529 9.75343e-18)
(-0.0183438 0.0138738 1.44237e-18)
(-0.000306327 0.000214679 4.73272e-20)
(-0.000297846 0.000228209 1.12477e-19)
(-0.000304454 0.000225133 1.36835e-19)
(-0.000314606 0.000200218 8.77944e-21)
(-0.000307935 0.000204296 -2.41807e-20)
(0.0633442 0.293306 -5.52902e-19)
(-0.000564376 -0.000734656 3.08904e-19)
(-0.000470289 -0.000649771 9.20789e-20)
(-0.000596131 -0.000645939 2.00414e-19)
(0.000614586 1.63279e-05 4.73362e-19)
(0.000583912 1.25612e-05 -3.12282e-19)
(0.000580356 1.73506e-05 2.71138e-19)
(0.0745152 0.0266417 -1.51298e-19)
(0.0742238 0.0227113 -1.03051e-19)
(0.0788251 0.0271883 1.06884e-19)
(-0.000499883 -0.000859132 3.51046e-19)
(-0.000681428 -0.000809404 -1.39964e-19)
(0.0113717 -0.0470052 5.71515e-19)
(0.0099283 -0.0494433 -2.69645e-19)
(0.00808347 -0.0461928 2.717e-19)
(3.28126e-05 0.000148667 6.11918e-19)
(3.33594e-05 0.000149409 2.94794e-19)
(2.27478e-05 0.000138064 -2.14223e-19)
(-0.00126782 -0.00348055 1.54268e-19)
(-0.00167767 -0.00406536 1.20875e-18)
(-2.88664e-05 3.95212e-05 3.27303e-21)
(-1.42602e-05 2.58071e-05 -1.22445e-19)
(-3.41542e-05 2.60991e-05 1.80833e-19)
(-0.0296908 0.356322 4.04659e-18)
(0.000877735 0.00271899 -1.23355e-19)
(0.000941414 0.0023627 -3.15505e-19)
(0.0304707 0.0193632 1.11798e-18)
(0.0313031 0.0207161 -5.66652e-18)
(0.0332203 0.0201534 6.90952e-18)
(0.000837994 -0.000186348 1.84502e-19)
(-0.0179785 -0.00166042 -2.58185e-18)
(-0.0176925 -0.000948769 4.09988e-18)
(-0.0171185 -0.00167129 2.62793e-18)
(0.0126079 -0.0436655 3.32221e-19)
(0.0148293 -0.0468325 6.76671e-19)
(0.000112289 0.00331004 -2.6124e-19)
(0.00049593 0.00301764 1.74939e-19)
(6.81165e-05 0.00282256 -1.61246e-19)
(0.0257488 0.00505525 -3.39276e-19)
(0.0268237 0.00378552 6.91155e-19)
(0.0248962 0.0037077 9.92591e-20)
(0.000567875 3.47953e-05 -8.60056e-20)
(0.000598708 4.40475e-05 1.12011e-19)
(0.000576381 4.55027e-05 -2.99396e-21)
(0.00329465 -0.000636797 -1.01419e-18)
(0.00314074 -0.000744825 -4.31353e-19)
(0.00335039 -0.000851868 -4.08059e-20)
(-0.000375229 -0.00436101 1.06975e-18)
(-0.000612475 -0.00449778 4.38445e-18)
(0.000928787 4.88153e-05 -4.5782e-20)
(0.000920007 8.88632e-05 8.45684e-20)
(0.000898055 5.61348e-05 5.08928e-20)
(-0.0510434 0.0269671 -5.242e-20)
(-0.0568637 0.0312402 1.5527e-19)
(-0.0586118 0.0243874 -9.81103e-19)
(-0.00052191 -0.000188002 4.6407e-20)
(-0.00049509 -0.000184258 -1.32629e-19)
(-0.000506775 -0.000204921 -2.59461e-21)
(3.32936e-05 0.000147818 -3.06197e-19)
(4.25096e-05 0.00015819 3.11105e-19)
(0.0152172 0.00763743 3.32143e-20)
(0.015646 0.00871462 9.91209e-21)
(0.0143306 0.00850125 -4.5153e-20)
(-0.00685018 0.00459704 -5.82539e-19)
(-0.00607612 0.0047238 7.77257e-19)
(-0.00630522 0.003955 -1.57315e-19)
(0.0518973 0.00671331 1.54504e-19)
(0.0562076 0.000866463 2.19704e-19)
(0.0493878 -0.00150744 -3.15298e-18)
(0.000933218 -3.65493e-05 2.51874e-20)
(0.000934662 8.04247e-06 5.16369e-20)
(0.000905061 -2.12919e-05 1.54665e-20)
(-0.0114102 0.316566 -2.37531e-18)
(0.0272915 0.263657 -2.1554e-18)
(0.000932599 -7.96412e-05 1.23692e-21)
(0.000968637 -5.46335e-05 -1.0339e-19)
(-0.000535586 -0.000198377 2.29064e-19)
(-0.00053843 -0.000179688 2.33964e-20)
(0.0524337 0.0147164 1.29553e-18)
(0.0455729 0.010097 -1.13998e-18)
(0.00350543 -0.000551775 -7.23258e-19)
(0.00327213 -0.000438499 -8.23517e-19)
(0.032991 0.0325088 -7.17708e-20)
(0.0390809 0.0371604 2.81119e-19)
(0.0387966 0.0279933 -5.84706e-19)
(0.000963386 3.69448e-05 1.17634e-19)
(0.00460762 -0.000223469 -3.23405e-19)
(0.0046509 -0.000491775 -1.01725e-18)
(0.00490562 -0.000353619 -9.53397e-19)
(0.0150941 -0.0113542 6.66817e-19)
(0.0151422 -0.0125245 3.4194e-19)
(0.0161245 -0.0115729 1.4966e-19)
(0.000332869 -9.34145e-06 -2.0563e-19)
(0.000319195 -1.33456e-05 -1.31436e-19)
(0.000249338 -5.33944e-06 -1.26024e-19)
(-0.0003162 8.77094e-06 1.48526e-20)
(-0.000300507 6.20638e-06 -2.23612e-20)
(-0.000303484 4.56962e-06 -6.39408e-20)
(0.00848094 -0.0106265 -2.27411e-19)
(0.00774972 -0.0102921 2.76955e-18)
(0.00784139 -0.011169 2.02121e-19)
(-0.000509804 3.90131e-05 8.45139e-20)
(-0.000512007 2.56987e-05 -1.0009e-19)
(-0.000494091 3.05122e-05 -7.47606e-20)
(0.00908242 -0.010026 -1.47433e-19)
(0.00934463 -0.0109047 4.60277e-19)
(0.0296246 -0.401258 1.35756e-17)
(0.0208354 -0.414881 7.65856e-18)
(0.0519638 0.0168097 -4.19601e-19)
(0.049211 0.0171415 -8.22719e-20)
(0.0504662 0.0144853 2.16225e-19)
(0.0279227 0.0354358 2.02349e-18)
(0.0265459 0.0288689 8.58024e-19)
(-0.000407596 -0.000572719 7.91489e-20)
(-0.00032102 -0.000654974 -1.42129e-19)
(-0.111778 0.00279176 6.52334e-19)
(-0.107187 0.0134793 9.20426e-18)
(-0.10498 -0.00425456 1.38449e-18)
(-0.00219167 0.00191823 -3.78211e-20)
(-0.00268198 0.00182506 4.84206e-20)
(-0.00246413 0.00243408 -2.78083e-20)
(-0.000409502 3.30459e-05 5.28674e-20)
(-0.000401162 3.52888e-05 -1.39061e-20)
(-0.00040297 2.56801e-05 -2.46437e-20)
(-0.00168938 0.00195166 -8.71831e-20)
(-0.00187792 0.00150067 1.39242e-19)
(-0.0106737 -0.0222436 -1.1473e-18)
(-0.0107362 -0.023901 -4.16931e-19)
(-0.00926909 -0.0226476 -5.49544e-19)
(0.00101991 0.000581391 -4.45462e-20)
(0.00106673 0.00054068 5.24833e-19)
(0.00110834 0.000593509 5.02441e-20)
(0.014783 -0.0103919 4.60092e-19)
(0.0138356 -0.0112941 1.3153e-18)
(-0.000545199 -0.000204449 -1.5586e-19)
(-0.000535689 -0.000208785 8.60037e-20)
(-0.000361525 -0.000491224 -3.89856e-19)
(-0.000465135 -0.000519578 -6.40798e-19)
(-0.000629519 0.000167599 -7.28256e-22)
(-0.000627991 0.000186226 -3.17704e-20)
(-0.000611998 0.000179013 7.56987e-21)
(0.0036792 -0.000464008 4.04198e-19)
(0.00388753 -0.000361319 2.55312e-19)
(0.00364321 -0.000248523 2.0165e-20)
(0.000568571 -0.000270293 -1.76908e-20)
(0.000564065 -0.000242775 8.71451e-20)
(0.0267502 0.006439 9.45571e-20)
(0.0247694 0.00637078 -5.36553e-20)
(-0.113604 -0.0155249 -2.01362e-18)
(-0.114901 0.0104537 -4.08681e-19)
(0.00297287 -0.00765466 -1.55223e-18)
(0.00327851 -0.0080043 -1.1758e-18)
(0.00269083 -0.00807125 1.10062e-18)
(0.000668079 -0.000287612 -2.56968e-19)
(0.000691033 -0.000313838 -1.18257e-19)
(0.000686908 -0.000282917 1.31408e-20)
(-2.04758e-05 5.49752e-05 -5.91972e-20)
(-4.41942e-05 5.43721e-05 2.02853e-19)
(0.000405418 1.92496e-05 -2.98557e-19)
(0.000301815 7.87168e-06 9.90067e-20)
(0.000414149 1.59422e-05 1.82515e-19)
(0.00803283 0.0101565 -6.85206e-19)
(0.00894588 0.0102418 -2.26058e-19)
(0.00816078 0.00925578 -3.09881e-19)
(0.00454684 4.91728e-05 7.78036e-19)
(0.00432436 -0.000107238 1.75005e-18)
(-0.0228424 0.0188461 1.80563e-18)
(-0.0260238 0.0178736 2.85537e-18)
(-0.0226427 0.0182773 4.43019e-18)
(0.00757103 0.00435879 8.03417e-20)
(0.00734699 0.00386817 1.4829e-19)
(0.0069821 0.0042991 1.62515e-19)
(-0.00054799 -0.000213727 -2.49317e-19)
(-0.000556207 -0.00020716 -8.74664e-20)
(0.053672 0.0234581 -9.64111e-19)
(0.0613681 0.0200827 1.29537e-18)
(0.00267877 0.000582834 6.74313e-19)
(0.00279737 0.000697084 -3.62758e-19)
(0.00259705 0.000728881 4.26636e-19)
(0.00293634 -0.000738883 4.06495e-20)
(0.00300581 -0.000923269 1.78383e-19)
(-0.0456088 0.0219708 2.39536e-18)
(-0.0449634 0.0292551 -7.75282e-20)
(-0.0455125 -0.00282194 3.99257e-19)
(-0.0482928 -0.00256492 6.38393e-19)
(0.0362313 -0.370173 -3.9712e-19)
(0.00951648 -0.0128881 -1.53392e-18)
(0.0103959 -0.0134033 1.37509e-19)
(0.00940526 -0.0140794 -2.60406e-18)
(0.0521797 0.0331603 1.27213e-18)
(0.047085 0.0251161 6.26321e-18)
(-0.0200377 0.0148349 4.08339e-19)
(-0.0195222 0.0155083 -2.0212e-18)
(-0.0204148 0.0152431 1.94225e-18)
(-0.00109695 0.0015749 1.65021e-19)
(-0.000212052 6.81357e-05 -3.05988e-20)
(-0.000201808 6.87171e-05 -2.21684e-20)
(0.0643523 -0.0573981 -2.41232e-18)
(0.0540893 -0.0578687 -6.83271e-20)
(0.000706679 0.000391591 -1.55189e-18)
(0.00075268 0.000395613 2.15425e-18)
(0.000724491 0.000424299 1.33633e-18)
(-0.000418247 3.02643e-05 -3.71477e-20)
(-0.000415725 4.0818e-05 -2.16484e-20)
(0.0733987 0.0291157 1.44403e-20)
(0.0711311 0.0264888 -4.87664e-20)
(-5.70749e-05 0.000190976 -1.43348e-19)
(-5.9104e-05 0.000177545 -3.11063e-19)
(-4.58053e-05 0.000181815 9.41077e-20)
(-0.0167542 -0.0134463 5.21798e-18)
(-0.0177753 -0.0128881 2.23424e-18)
(-0.0175783 -0.0142214 -2.95175e-18)
(0.0323554 -0.0176667 1.60979e-19)
(0.0307291 -0.017919 2.25405e-19)
(0.0321591 -0.0196648 2.347e-19)
(-0.000539208 1.93755e-06 -1.28697e-19)
(-0.000543859 1.4339e-05 -4.38978e-19)
(-0.000560906 7.294e-06 -2.01453e-19)
(-0.0327487 -0.0431126 -2.18601e-19)
(-0.0311023 -0.0397749 -4.69861e-19)
(-0.0630965 0.0100848 2.45776e-18)
(-0.0608929 0.0142231 3.7144e-19)
(-0.0726224 0.0155174 -7.58809e-19)
(-7.95443e-05 2.09751e-05 2.68247e-19)
(-7.64517e-05 1.98652e-05 2.6273e-19)
(-7.83073e-05 2.44944e-05 9.50901e-20)
(0.0547006 0.0159157 -7.46518e-19)
(0.0535273 0.0185398 1.88538e-19)
(0.00125528 -0.00318082 2.73063e-18)
(0.00112195 -0.00307769 2.7225e-18)
(0.0011144 -0.00330456 -3.59168e-19)
(0.0184415 0.00746198 1.08078e-18)
(0.0159162 0.00980927 -4.61102e-19)
(0.0198199 0.0109218 8.80744e-20)
(-0.000355549 0.000171922 -1.79291e-19)
(-0.000355115 0.000159077 1.28806e-19)
(-0.000364524 0.000156566 5.14091e-20)
(0.108386 0.0479886 6.41252e-19)
(0.102577 0.0451104 5.49807e-19)
(0.0327278 -0.0154604 1.05133e-19)
(0.0344389 -0.0172555 5.97191e-20)
(1.44945e-05 1.87694e-05 -2.7755e-19)
(1.25669e-05 2.36785e-05 5.53809e-20)
(5.4518e-06 2.40085e-05 -6.34059e-19)
(0.0294277 0.0243432 -6.84391e-18)
(0.0282969 0.0258919 -1.05869e-18)
(0.0264312 0.0238989 -5.44516e-18)
(-0.000739472 0.000585891 -3.35129e-21)
(-0.000706872 0.000580053 -3.23945e-20)
(-0.000741765 0.000546245 2.53351e-20)
(0.0078373 0.011187 -2.34775e-19)
(0.0071669 0.0101645 -3.26011e-20)
(-0.000774703 0.0883057 -3.37821e-19)
(0.00225755 0.0945145 2.25723e-19)
(0.00920862 0.0815848 4.31643e-19)
(-0.000209235 0.000170291 -3.34452e-21)
(-0.000219408 0.000175369 4.32345e-20)
(0.0027604 -0.000774451 2.43415e-19)
(0.00285361 -0.000601492 6.19084e-19)
(0.00386222 0.00126769 5.81602e-20)
(0.00377007 0.000809581 1.06995e-20)
(0.0033745 0.00114287 -5.88397e-20)
(0.00309908 0.00798705 -9.15256e-20)
(0.00448606 0.00768372 6.19775e-19)
(0.00336689 0.00648119 -9.93968e-20)
(0.000807207 -0.000235539 1.14949e-19)
(0.000777644 -0.000230917 -4.84296e-20)
(1.47362e-05 -0.000101001 -9.80774e-20)
(2.34269e-05 -0.000113404 4.89127e-20)
(3.16408e-06 -0.000112492 3.99074e-20)
(-0.000222706 6.53255e-05 3.72959e-20)
(-0.000213771 5.64958e-05 -3.6561e-20)
(0.000345767 -1.06926e-05 3.73117e-19)
(0.000369942 -2.45011e-05 4.7343e-20)
(-0.000347614 0.000181806 -1.48064e-19)
(-0.000354535 0.00018033 -6.49369e-20)
(1.15849e-06 -8.52315e-05 -3.52168e-20)
(2.25461e-05 -8.64267e-05 6.96002e-20)
(-0.00228379 0.00549124 1.60518e-19)
(-0.00278355 0.00568221 7.12478e-19)
(-0.00235013 0.00610695 3.57457e-19)
(-6.88862e-05 0.000200283 2.90126e-19)
(-5.31193e-05 0.000205056 -2.48509e-19)
(0.000654336 -0.00029591 -2.665e-20)
(0.000652927 -0.00026792 3.57294e-20)
(0.00922174 0.00899844 -4.35816e-19)
(0.0108687 0.0077208 2.69271e-19)
(0.00889837 0.00674536 6.48593e-19)
(-0.0046327 0.00611552 -3.95821e-19)
(-0.00534883 0.0061893 -8.69405e-19)
(-0.00485668 0.00691912 4.5572e-19)
(0.00536336 0.0299513 -4.3307e-19)
(0.00788222 0.0316622 -1.73884e-19)
(0.00740413 0.0313709 -6.46813e-20)
(0.0303607 0.0231873 3.94495e-18)
(0.0317859 0.0249801 -3.9075e-18)
(0.0730783 -0.0427164 2.09382e-18)
(0.0841224 -0.0388172 -1.48584e-18)
(0.0694349 -0.0367499 -6.77205e-19)
(0.0780456 0.0256092 -2.25442e-18)
(0.0730104 0.0293539 1.54715e-19)
(0.0765852 0.0221828 -2.31242e-19)
(0.00142762 -0.00332995 -3.4436e-18)
(0.00143587 -0.00308053 -1.32753e-19)
(0.000262439 2.57944e-05 6.93068e-20)
(0.000280229 2.68815e-05 -5.71925e-20)
(0.000197301 1.13422e-05 5.41965e-20)
(-0.0158803 -0.0125401 1.99894e-20)
(-0.0155568 -0.0137499 1.22371e-18)
(0.000400549 -8.27697e-06 3.49553e-21)
(0.000398414 -9.3129e-06 6.49334e-21)
(0.000294471 -3.63211e-06 9.84631e-20)
(0.0438859 0.315919 1.07268e-17)
(0.0625289 0.277771 -2.36874e-18)
(-0.000145605 3.14186e-05 -1.40361e-21)
(-0.000163087 3.23904e-05 3.81148e-20)
(-0.000116919 1.4526e-05 4.25609e-20)
(2.57348e-05 1.25036e-05 1.21437e-19)
(1.92072e-05 1.3011e-05 7.04933e-19)
(0.000386644 2.00528e-05 -2.2574e-19)
(0.000454086 2.84434e-05 -2.09309e-19)
(-0.000667936 0.000297289 -5.52133e-20)
(-0.000689296 0.000291004 1.34436e-20)
(-0.000676676 0.000315412 2.68952e-21)
(0.000128567 -0.00112131 -3.69574e-18)
(5.91802e-05 -0.00117419 8.30739e-19)
(0.000137819 -0.00117559 -9.87482e-19)
(0.00843877 -0.000747887 6.7202e-19)
(0.00807955 -0.00110576 8.51845e-19)
(0.00867234 -0.00119225 1.04388e-18)
(0.00026154 -2.16098e-05 -1.36558e-20)
(0.000273744 -2.04372e-05 6.83846e-20)
(0.000202479 -1.05062e-05 1.68767e-19)
(0.00409446 0.027731 1.16771e-19)
(0.00322779 0.0282127 3.37649e-19)
(0.00100339 0.000397921 6.81744e-20)
(0.00097517 0.000442047 -1.60632e-19)
(0.00093123 0.000399349 5.91582e-19)
(-0.000207607 0.000224144 3.01164e-20)
(-0.000201487 0.00022935 1.19597e-19)
(-0.000197965 0.00021745 -4.78936e-20)
(0.00871838 0.0220768 -2.66876e-19)
(0.00847635 0.0195592 2.04538e-19)
(0.01106 0.0193518 -6.305e-20)
(-0.000336606 -0.000407742 -4.28819e-19)
(-0.000248304 -0.000453589 -8.28932e-20)
(5.66382e-05 -3.385e-05 1.64508e-19)
(6.64601e-05 -2.87418e-05 -1.30765e-20)
(7.92002e-05 -4.63039e-05 -1.05913e-19)
(0.00960583 -0.00932742 1.1844e-18)
(0.010457 -0.00947153 9.43505e-19)
(0.0100947 -0.0086313 -1.87982e-20)
(6.06986e-05 9.71235e-05 -1.92308e-20)
(6.29222e-05 8.82592e-05 4.95259e-19)
(5.49999e-05 9.27749e-05 -9.37133e-20)
(-0.000386822 0.00161771 -8.89067e-20)
(-0.000197574 0.00127131 -3.15427e-19)
(-0.0193799 0.0144093 2.67889e-19)
(-0.0198733 0.0142164 4.45112e-19)
(-0.0109049 -0.0208812 8.36975e-19)
(-0.0119718 -0.0220494 -6.57632e-19)
(0.000159868 -0.000584276 -4.17277e-19)
(0.000162623 -0.000551337 -1.06118e-19)
(0.000126078 -0.000560813 -7.3223e-20)
(0.00128592 0.000549261 -9.35813e-20)
(0.00133638 0.000482665 3.03284e-20)
(0.00136909 0.000566703 4.7484e-20)
(6.39001e-05 1.23547e-05 1.84625e-20)
(6.3257e-05 8.08501e-06 -5.29846e-19)
(6.6902e-05 6.59145e-06 -4.82963e-19)
(-0.0223257 0.0195064 -1.31683e-18)
(-0.0281846 0.017455 5.49038e-19)
(-0.024939 0.0197135 -2.52852e-20)
(0.000637551 1.90428e-05 -2.42289e-20)
(0.000630677 2.34588e-05 1.23213e-19)
(0.116956 -0.0452636 2.70956e-19)
(0.0944865 -0.0470934 -6.4995e-19)
(0.111799 -0.0377967 4.89814e-19)
(0.000194195 -0.000538095 -2.71533e-20)
(0.000230652 -0.000556849 -9.67576e-21)
(-0.0301856 -0.270016 2.15279e-18)
(-0.0112863 -0.224598 -1.36535e-18)
(-0.000330945 -0.00033202 1.97687e-20)
(-0.000403743 -0.000383657 5.05668e-19)
(-0.00428792 0.00111725 -1.39807e-19)
(-0.00429455 0.00153487 -3.73974e-20)
(-0.00390562 0.0013598 -5.09612e-19)
(-0.00038095 0.0100486 -1.10917e-18)
(-0.000763704 0.00940941 2.87884e-19)
(0.000218135 -2.59437e-05 2.36691e-20)
(0.000215432 -2.99186e-05 2.16626e-19)
(0.000249267 -4.01826e-05 -1.09171e-19)
(0.0659091 -0.0454527 1.70515e-18)
(0.0737845 -0.0478661 1.40983e-18)
(0.000569253 0.000329912 -2.77684e-19)
(0.000548621 0.000311728 -6.35631e-19)
(0.00058159 0.00030406 -2.20998e-19)
(0.0879094 0.0145689 -1.47817e-19)
(0.0755633 0.0343729 -1.00965e-19)
(-0.000214792 0.00022823 -6.4387e-20)
(-0.000212603 0.000217639 -2.59092e-20)
(0.000484986 -0.000696027 3.38675e-20)
(0.000530517 -0.00064896 -3.26069e-20)
(0.00055769 -0.000731395 -1.21092e-19)
(0.00415836 -0.000495026 -2.68261e-20)
(0.00385271 -0.000840304 6.2991e-20)
(0.00366155 -0.000403157 5.4167e-20)
(0.000375233 0.000645441 -8.16706e-19)
(0.000344163 0.000602392 -2.55001e-19)
(0.000326566 0.000637013 -6.24747e-19)
(0.0130413 0.0445801 7.19315e-19)
(0.018802 0.0483155 9.25499e-19)
(0.0169084 0.0433243 1.10228e-18)
(0.00365391 0.00363471 5.4071e-21)
(0.00340121 0.00437303 -7.77072e-20)
(0.00426491 0.00416962 3.84458e-20)
(0.00386725 0.002975 1.78312e-20)
(0.00313884 0.00322491 3.77869e-20)
(-0.000730908 0.000633522 -3.83574e-21)
(-0.000769948 0.00059874 1.55549e-20)
(0.0201658 0.320765 -2.04425e-17)
(0.0250854 0.345935 1.4547e-17)
(0.00874231 -0.000228734 1.95489e-19)
(0.00820455 -0.000256939 -8.3027e-19)
(-0.000644599 -0.00282644 7.15513e-19)
(-0.000539377 -0.00272794 -1.45981e-18)
(-0.000514951 -0.00285368 3.65623e-20)
(0.000589725 0.000349133 -5.24901e-20)
(0.000607942 0.000372022 -2.70831e-19)
(0.000626968 0.000344533 6.93561e-19)
(-0.000318337 0.000219992 6.21691e-20)
(-0.000324334 0.000218739 7.5872e-20)
(-0.000313816 0.000233472 1.13705e-19)
(0.00260399 -0.00727534 5.96944e-19)
(0.0031783 -0.00721772 -7.08584e-19)
(0.000949932 0.000806133 1.07744e-19)
(0.000888174 0.000816413 -1.35939e-22)
(0.000895688 0.000756492 8.66981e-21)
(0.00637684 -0.010281 -1.98428e-19)
(0.00699504 -0.00989169 3.18488e-20)
(0.00634996 -0.00948501 -1.36901e-18)
(-0.00254678 -0.00884079 -1.71203e-19)
(-0.00143372 -0.00991243 -5.93565e-19)
(-0.00168744 -0.00862121 2.65025e-19)
(-0.0254736 0.00725737 1.06872e-20)
(-0.0273837 0.0087723 -4.35799e-19)
(-0.0271117 0.00468062 -4.01359e-19)
(-0.00727665 0.000395002 2.30131e-19)
(-0.00637413 0.000724482 -1.72538e-19)
(-0.00728923 0.00149407 8.81502e-20)
(0.00101291 0.000783318 -1.61206e-20)
(0.00107065 0.000752352 -2.1071e-20)
(0.00100991 0.000712017 1.37783e-21)
(-0.0650066 0.00516707 -3.16971e-19)
(-0.0558891 0.00622716 -7.67714e-20)
(0.0473007 -0.0389074 -7.03669e-19)
(0.052643 -0.038475 5.84661e-19)
(0.0490785 -0.0345856 5.38602e-19)
(0.013352 0.00410302 -2.84251e-20)
(0.0138237 0.00490317 -6.2617e-20)
(0.012766 0.00486109 4.37505e-21)
(-0.00269678 -0.000373675 -7.69383e-20)
(-0.00244904 -0.000511557 4.69837e-21)
(-0.00267682 -0.000721607 1.86542e-20)
(0.00372516 -0.000675179 -3.561e-19)
(0.0223366 -0.00655035 2.73754e-19)
(0.0228128 -0.00301296 2.243e-19)
(0.0229949 -0.00422029 6.19453e-20)
(0.00100856 0.000853456 -7.55969e-20)
(0.00734314 0.0101012 -4.53879e-19)
(0.0092812 0.0114397 3.02685e-19)
(-0.0226823 0.0055994 -9.22245e-19)
(-0.0232716 0.00937735 3.17291e-19)
(0.00036525 -0.000584037 -8.09273e-19)
(0.000328991 -0.000569444 7.63687e-19)
(0.00037743 -0.000535815 5.70674e-19)
(-0.0191055 0.0146547 -1.95619e-18)
(-0.00126329 -0.0018554 1.4424e-18)
(-0.00137207 -0.00183481 5.27096e-18)
(-0.00126676 -0.00175603 -6.13306e-19)
(0.00391623 0.00236269 -1.07246e-19)
(0.0045281 0.00266329 3.00962e-20)
(0.000230476 -0.000627707 1.79048e-19)
(0.000191137 -0.000605412 -2.27197e-19)
(0.000233705 -0.000592342 1.32843e-19)
(0.000181828 -0.00108003 -1.76051e-18)
(0.000110783 -0.00107464 1.05993e-19)
(0.00393708 0.00180009 -7.70093e-20)
(0.00338238 0.00211773 -5.89534e-20)
(0.0129178 0.00338984 3.98331e-20)
(0.0124183 0.00270447 7.5875e-20)
(0.0119226 0.00339535 -5.12716e-21)
(0.000551469 0.000353406 1.83691e-19)
(3.47667e-05 0.000150631 4.31742e-19)
(3.61188e-05 0.000152185 -1.70682e-19)
(2.54292e-05 0.000140957 -3.03909e-19)
(-0.000284159 0.000213688 5.08702e-20)
(-0.00029529 0.000209049 -1.30967e-19)
(-0.000290451 0.000196355 2.92197e-20)
(0.00982875 0.0406202 -1.95879e-18)
(0.00907004 0.0447896 -1.54834e-18)
(0.0248485 0.0519474 2.50369e-18)
(0.0312707 0.0541781 1.04345e-18)
(0.026791 0.0493778 1.55869e-18)
(-0.000497079 -0.000113803 3.4224e-20)
(-0.000457421 -8.15203e-05 -1.13591e-19)
(-0.000518385 -6.3658e-05 3.43841e-19)
(-0.000284751 0.00357802 -5.42739e-20)
(0.00020489 0.00390495 2.20739e-20)
(0.0203628 0.054628 -4.86986e-19)
(-0.0321244 6.56227e-05 6.43077e-19)
(-0.0324641 0.00136094 -6.45458e-19)
(-0.0310752 0.000979615 -5.15225e-19)
(-0.00369541 -0.00904303 -5.47756e-19)
(-0.00325015 -0.00782279 2.49583e-19)
(-0.00066214 0.000274837 -1.36731e-20)
(-0.000648511 0.000301363 -3.09589e-20)
(0.00335719 -0.0127518 1.10348e-19)
(0.00528284 -0.0134489 1.02742e-20)
(0.00382494 -0.0116397 -1.72927e-19)
(-0.00126475 -0.0019427 -1.85425e-18)
(-0.00118528 -0.00187476 4.2992e-19)
(-4.41752e-05 2.14861e-05 -5.98579e-19)
(-3.75793e-05 1.6673e-05 2.65135e-19)
(-4.74795e-05 1.89117e-05 -4.71023e-19)
(-0.00705456 -0.000693512 -2.64761e-20)
(-0.00818478 -0.000151294 -6.51559e-21)
(-0.000416902 -1.29418e-05 -6.8144e-20)
(-0.000418351 -7.5461e-06 -1.50222e-19)
(-0.000409587 -1.06337e-05 -4.19223e-20)
(-0.00220674 0.0785289 -2.35177e-19)
(-0.00980843 0.0875829 1.06471e-18)
(-0.0121462 -0.034587 -7.13326e-19)
(-0.0085612 -0.0398776 -1.1238e-18)
(-0.0135295 -0.0384973 -3.93029e-19)
(-0.0100647 -0.0198774 2.32305e-18)
(-0.00978826 -0.0186172 -1.69479e-18)
(-0.00874545 -0.0197976 7.73019e-19)
(-0.00326896 -0.00268388 -7.06614e-18)
(-0.00342187 -0.0027739 2.31058e-18)
(-0.00344882 -0.00257835 -7.52586e-18)
(3.75265e-05 0.0107256 -6.01088e-19)
(-0.00098184 0.0106311 -2.13729e-19)
(-0.00090876 0.0210859 6.53637e-19)
(0.00173768 0.0219548 9.08127e-19)
(0.00079524 0.0190159 -1.74848e-19)
(0.015613 0.00167785 -3.66125e-19)
(0.0169512 0.0042521 -4.79371e-19)
(0.0139286 0.0040057 -1.08425e-18)
(-0.0108341 -0.0253875 8.44402e-19)
(-0.00934625 -0.0262701 -8.61489e-19)
(-0.01117 -0.0274489 3.4235e-18)
(-0.00041499 -1.76293e-05 4.5738e-20)
(-0.00042483 -1.50793e-05 2.76805e-19)
(4.47752e-05 0.00016083 2.49311e-19)
(0.000483575 0.00118944 1.15496e-19)
(0.000346152 0.00158438 2.92056e-19)
(0.000135618 0.00124937 1.73539e-19)
(0.000733971 -0.000326238 -4.08386e-20)
(0.000710949 -0.000333499 3.4047e-20)
(0.000737561 -0.00035511 -9.00907e-20)
(-0.004215 0.00071503 4.8982e-20)
(-0.00466683 0.000853425 1.61157e-19)
(-0.000755259 -0.00293914 1.88731e-18)
(-0.000793076 -0.00277964 -2.04621e-18)
(-0.00025428 0.000146866 -6.6343e-21)
(-0.000244715 0.000155179 -3.09952e-21)
(-0.000244252 0.000144485 8.76578e-21)
(0.000446536 0.00057682 -6.78505e-19)
(0.000452275 0.000545885 -4.16595e-19)
(0.000487032 0.00057989 1.43279e-19)
(-0.0171313 -0.00208397 -1.13994e-18)
(-0.0159287 -0.000808728 7.82112e-19)
(-0.0152379 -0.00271878 4.75906e-20)
(-0.000535099 -9.51299e-06 7.22078e-20)
(-0.000520659 -2.24645e-06 4.46815e-20)
(0.0194902 -0.023472 7.49986e-19)
(0.0194962 -0.025293 4.70754e-19)
(0.0211183 -0.0241201 -2.73477e-19)
(-0.0756095 0.165438 3.71488e-18)
(-0.0751949 0.127294 -2.1417e-18)
(-0.0147748 0.000440426 1.19334e-18)
(-0.0133644 0.00134326 -1.12222e-18)
(-0.0131451 -0.000367908 1.03876e-18)
(0.000426173 0.000649785 -6.58694e-19)
(0.000407347 0.00068996 4.5031e-19)
(0.00794098 0.00549948 -2.70481e-21)
(0.00775614 0.00486768 -7.84965e-20)
(0.00732094 0.00540911 -3.36214e-19)
(0.000730487 -0.000298757 -2.22739e-20)
(0.000756487 -0.000314473 1.22914e-19)
(0.00634313 -0.0109958 1.99301e-18)
(0.00628733 -0.0118982 -2.88797e-19)
(0.00709381 -0.0115698 -5.20993e-19)
(0.000473953 0.000281082 -9.05953e-19)
(0.000464397 0.000299342 -1.35432e-18)
(0.000446205 0.000284121 -4.21403e-19)
(0.00930995 -3.96151e-05 -4.55262e-19)
(0.00999841 0.000116205 -4.69981e-20)
(0.00977208 -0.000532041 -8.04811e-19)
(4.18935e-05 1.42306e-05 3.29226e-20)
(5.07346e-05 8.50896e-06 4.88788e-19)
(0.00889023 0.00031173 -4.58819e-19)
(-0.00335624 0.151687 -1.1789e-18)
(-2.26665e-05 0.149321 1.04994e-18)
(0.000416721 -0.000648668 2.84787e-20)
(0.000413401 -0.000566901 -4.28918e-20)
(-0.00750362 -0.00786179 -5.14715e-19)
(-0.00738589 -0.00739195 -2.48477e-18)
(-0.0079256 -0.00755638 -3.55199e-18)
(0.00236146 0.000252616 -6.58179e-19)
(0.00252518 0.000229997 -1.37859e-19)
(0.00244333 0.000369598 -7.71313e-20)
(-0.00637059 -0.00428543 -2.46425e-20)
(-0.00662436 -0.0053585 -8.19876e-21)
(-0.00741802 -0.00442413 1.98237e-21)
(0.0171657 -0.000977777 5.87688e-19)
(0.0140045 -0.000735514 -6.43732e-19)
(-0.000266706 -2.61608e-05 -2.35262e-19)
(-0.000257299 -2.50794e-05 5.62959e-21)
(0.00123918 0.000609888 -2.44117e-19)
(0.00121421 0.000531768 5.06949e-20)
(0.017836 -0.0227496 3.18377e-19)
(0.0193748 -0.0217974 1.89806e-21)
(0.000437232 0.000613051 -2.99605e-19)
(0.000402797 0.000574074 -5.52757e-20)
(0.0208572 0.00494387 1.98475e-18)
(-0.000992471 -0.00408473 -9.75264e-19)
(-0.000987656 -0.00387098 -2.71251e-18)
(-0.00121481 -0.00398695 3.83561e-19)
(-0.0287607 0.0255381 -4.5396e-18)
(0.00388137 -0.0125969 -4.36e-19)
(0.00456575 -0.0131805 -9.63935e-20)
(0.00465719 -0.0122559 -1.02278e-19)
(-0.0115611 -0.0195462 2.75077e-19)
(-0.00425471 0.00285709 6.0386e-19)
(-0.00478616 0.00266315 8.89705e-19)
(-0.004289 0.00238645 8.42885e-19)
(-0.0182877 -0.00370458 -3.94889e-19)
(-0.0189312 -0.0011595 1.03901e-19)
(-0.00079538 -0.000626733 -5.38134e-20)
(-0.000759717 -0.000530625 8.3667e-20)
(-0.000693513 -0.000596847 2.72131e-19)
(-0.000921582 -0.00159696 2.67076e-19)
(-0.000853037 -0.00164682 2.17528e-18)
(-0.000830049 -0.00155464 -2.9047e-18)
(-0.00312997 -0.0025408 -1.68209e-18)
(-0.00308766 -0.00273461 -6.10334e-18)
(-0.00771781 -0.00839824 1.87808e-18)