/*--------------------------------*- C++ -*----------------------------------*\
| =========                 |                                                 |
| \\      /  F ield         | OpenFOAM: The Open Source CFD Toolbox           |
|  \\    /   O peration     | Version:  v2012                                 |
|   \\  /    A nd           | Website:  www.openfoam.com                      |
|    \\/     M anipulation  |                                                 |
\*---------------------------------------------------------------------------*/
FoamFile
{
    version     2.0;
    format      ascii;
    class       surfaceVectorField;
    location    "100";
    object      Uf_0;
}
// * * * * * * * * * * * * * * * * * * * * * * * * * * * * * * * * * * * * * //

dimensions      [0 1 -1 0 0 0 0];


internalField   nonuniform List<vector> 
27907
(
(1.09781 -0.307414 3.94985e-20)
(1.10771 -0.300844 1.36825e-20)
(1.10644 -0.313249 -8.52769e-21)
(1.2814 -0.0017232 -1.73715e-21)
(1.25969 0.000953155 -5.14949e-20)
(1.27609 0.000719706 -5.15337e-20)
(1.0152 -8.26661e-05 2.64104e-22)
(1.01515 -0.00014704 5.52388e-22)
(1.01509 -6.79353e-05 0)
(0.536606 0.0424027 -8.77366e-21)
(0.55099 0.0518692 1.31304e-20)
(0.510984 0.029517 -1.08096e-20)
(0.217713 0.0288892 9.16767e-21)
(0.251787 0.0306023 -1.35566e-20)
(0.211864 0.0284198 -3.79765e-20)
(0.239353 0.052282 -2.90677e-20)
(0.20352 0.050558 -6.87614e-21)
(0.252568 0.0524368 -2.69474e-20)
(-0.223448 -0.0122566 2.12341e-20)
(-0.241459 -0.00610323 1.94138e-19)
(-0.229014 -0.0121277 -9.24119e-21)
(1.01216 -0.00474635 2.57554e-23)
(1.01249 -0.00473467 -6.06096e-22)
(1.01237 -0.00503465 4.5996e-23)
(1.21725 0.024962 0)
(1.21758 0.0232573 0)
(1.21898 0.0244187 0)
(1.01861 -0.10437 2.34096e-22)
(1.01881 -0.108124 -4.49083e-22)
(1.02192 -0.105377 -1.31193e-21)
(1.05715 -0.0380426 -3.02913e-21)
(1.05884 -0.0383763 1.19503e-21)
(1.05769 -0.0398241 1.94867e-21)
(0.152434 -0.0502665 -5.22613e-20)
(0.146446 -0.047647 1.53961e-20)
(0.248533 -0.0599305 5.61549e-20)
(1.00222 -0.000431798 -6.71446e-22)
(1.00211 -0.000315795 1.27837e-21)
(1.00228 -0.000288764 -1.49734e-21)
(1.13706 0.161232 4.16833e-21)
(1.13975 0.157757 8.53941e-21)
(1.1352 0.156658 2.82869e-20)
(1.04476 0.0131522 0)
(1.04557 0.012877 2.68856e-21)
(1.04471 0.0121884 1.28952e-21)
(0.600913 -0.536188 -2.9904e-20)
(0.56716 -0.50861 -4.26786e-21)
(0.604338 -0.493105 -1.19692e-20)
(1.1164 0.0257583 -2.04836e-20)
(1.11406 0.0255027 -9.12981e-21)
(1.1156 0.0234215 1.22681e-20)
(1.00429 -0.00741979 -1.63599e-21)
(1.00449 -0.0074631 -2.10219e-21)
(1.00426 -0.00715459 -1.45886e-22)
(1.03702 -0.00406435 -2.37919e-21)
(1.03778 -0.00409353 -4.41702e-22)
(1.03742 -0.00347263 -4.74769e-21)
(1.03146 -0.126227 0)
(1.02792 -0.126044 -2.12589e-21)
(1.03015 -0.122678 0)
(-0.00399811 0.00992358 1.75561e-20)
(-0.0344469 0.0073461 1.98503e-20)
(-0.00808743 0.00961568 3.47898e-20)
(1.00001 -0.000625046 1.98268e-21)
(0.999994 -0.000909619 -1.27454e-21)
(1.00004 -0.000748844 1.20017e-21)
(-0.0604335 -0.019897 1.83577e-20)
(-0.0203594 -0.0235465 0)
(-0.0639498 -0.0205845 -5.27879e-20)
(1.22571 0.0422937 4.28614e-21)
(1.22155 0.0414232 -4.49301e-20)
(1.18964 0.044228 -1.1683e-20)
(1.3261 -0.113137 0)
(1.33605 -0.11647 -1.60891e-20)
(1.33822 -0.108776 5.93404e-20)
(1.01186 -0.00474469 0)
(1.012 -0.00448313 0)
(0.805797 -0.687305 5.62314e-21)
(0.795776 -0.708493 3.79061e-21)
(0.773631 -0.688588 -3.95792e-21)
(0.180701 0.0275291 -5.10631e-21)
(0.216173 0.0296024 -5.86024e-20)
(0.188666 0.0275703 -4.28756e-20)
(0.896042 0.0300941 4.24261e-20)
(1.0009 0.0231454 -1.97061e-20)
(0.933812 0.0277917 2.58479e-20)
(1.09685 -0.702153 0)
(1.05579 -0.701484 0)
(1.12638 -0.764568 0)
(1.12242 0.0794654 -2.49304e-22)
(1.12528 0.0803984 1.2885e-20)
(1.12481 0.0772667 1.3185e-20)
(0.0699724 0.0128454 -3.4218e-20)
(0.0863385 0.0161474 -3.22823e-21)
(0.0922062 0.0167775 -1.60183e-20)
(1.0005 -0.000189576 0)
(1.00042 -0.000175571 0)
(1.00046 -0.000108693 0)
(1.05223 -0.0103248 -4.94227e-21)
(1.05295 -0.00949791 -3.86067e-21)
(1.05178 -0.00926222 7.51555e-21)
(1.17552 0.0862461 1.29092e-20)
(1.17257 0.0869807 -1.49803e-20)
(1.1749 0.0897811 3.65948e-20)
(0.99939 -0.00290049 5.90831e-21)
(0.999285 -0.00301166 -1.5952e-21)
(0.999335 -0.00311104 2.24241e-21)
(1.00021 -0.000243933 -8.41738e-22)
(1.00016 -0.000193899 -1.28716e-21)
(1.00017 -0.000252362 2.28021e-22)
(1.03578 -0.0207139 2.66556e-21)
(1.03488 -0.0206764 -2.04805e-21)
(1.03547 -0.0215201 0)
(1.04205 -0.0241845 -3.50646e-21)
(1.04247 -0.0232663 0)
(1.0413 -0.0234489 0)
(1.1248 0.0212558 1.08189e-20)
(1.12329 0.0190745 -1.10241e-20)
(1.12204 0.0217052 9.40973e-21)
(1.03653 -0.0191476 -3.00521e-22)
(1.03609 -0.0199443 5.82125e-22)
(1.03559 -0.0189924 1.55899e-21)
(0.939381 -0.0833057 -1.11688e-20)
(0.939159 -0.0789916 -7.66764e-22)
(0.943164 -0.0821005 -6.46022e-21)
(1.02175 -0.00643637 2.79366e-22)
(1.02176 -0.0067504 3.34379e-22)
(1.0222 -0.00661074 -5.94085e-22)
(0.976842 -0.0932454 -4.15249e-21)
(0.979232 -0.095183 -1.23146e-20)
(0.979888 -0.0917622 3.90344e-21)
(1.21364 -0.501166 9.32295e-22)
(1.1911 -0.507216 2.49411e-21)
(1.24111 -0.531198 4.20987e-20)
(1.01313 -0.0013179 -5.15634e-22)
(1.01325 -0.00118846 7.592e-22)
(1.0133 -0.00139135 6.55161e-22)
(-0.0596141 -0.0197416 5.66206e-21)
(-0.0933492 -0.017234 -2.29503e-20)
(1.05194 -0.0536503 3.47533e-21)
(1.05341 -0.0524811 0)
(1.05155 -0.0517151 3.05231e-21)
(1.01557 -0.103604 3.48081e-22)
(1.01842 -0.101271 -7.91347e-23)
(1.02158 -0.00510225 2.81023e-22)
(1.02149 -0.00478644 1.10824e-21)
(1.02112 -0.00492659 1.3644e-22)
(1.22144 -0.133376 2.487e-20)
(1.22371 -0.128929 -2.18613e-20)
(1.2275 -0.133957 -2.29216e-21)
(0.336294 0.0479104 1.92199e-20)
(0.329063 0.0461152 -3.39592e-20)
(0.37676 0.0508979 -2.21959e-21)
(1.0155 -0.00167082 -2.89686e-22)
(1.01574 -0.00171842 1.12576e-21)
(1.01556 -0.00155412 0)
(1.05535 -0.0377694 -6.53404e-21)
(1.05646 -0.0365358 9.55497e-21)
(0.145495 0.023592 2.20426e-20)
(0.167363 0.0274528 3.93018e-20)
(1.20982 -0.208142 3.3937e-20)
(1.28745 -0.214019 8.50391e-21)
(1.31671 -0.226556 5.09692e-20)
(1.00026 -0.000240586 0)
(1.00026 -0.000308869 -1.04935e-21)
(0.521077 -0.365391 6.50368e-22)
(0.538976 -0.3356 0)
(0.994161 -0.0243076 -5.91554e-22)
(0.994851 -0.0243916 3.93165e-21)
(0.994303 -0.0251602 4.59479e-21)
(1.14913 0.158832 2.78765e-20)
(1.14408 0.158626 1.14265e-20)
(1.14631 0.163155 -5.9955e-21)
(1.1217 -0.25981 1.53176e-20)
(1.1167 -0.265024 1.63521e-22)
(1.12554 -0.265332 3.64434e-20)
(-0.219986 -0.0119232 -8.03489e-20)
(-0.200838 -0.0174584 -1.02364e-20)
(1.19368 0.00975941 7.37044e-21)
(1.19273 0.0124297 -6.57684e-22)
(1.19571 0.0111769 -1.98047e-20)
(0.970882 -0.0484182 1.94836e-21)
(0.972564 -0.0476199 3.14527e-21)
(0.970804 -0.0464068 -3.21807e-21)
(1.01543 -0.00179321 -2.34475e-22)
(1.01529 -0.00159555 1.6507e-22)
(0.994167 -0.00551602 -1.86042e-21)
(0.994334 -0.0051744 -4.55531e-22)
(0.994491 -0.00551014 -3.07994e-21)
(1.12346 0.026634 1.52271e-20)
(1.12128 0.0289974 3.10023e-20)
(1.12065 0.0259269 -1.06393e-20)
(1.00058 -0.00018288 0)
(1.00053 -0.000261799 0)
(1.03377 -0.0191882 1.90211e-21)
(1.03292 -0.0193147 0)
(1.0332 -0.0185001 3.64412e-21)
(0.30151 0.0459742 6.28977e-20)
(0.34032 0.0484321 2.73941e-20)
(0.254477 0.036094 5.28013e-20)
(0.258474 0.0353255 3.74087e-21)
(0.220765 0.0321803 1.93587e-20)
(0.972023 -0.0285841 -3.44752e-22)
(0.971918 -0.0298995 -1.36604e-20)
(0.973247 -0.0292755 -6.0211e-21)
(1.02165 -0.00541803 -1.02896e-21)
(1.02205 -0.00528271 1.53425e-21)
(0.149836 -0.327136 -2.0068e-20)
(0.168268 -0.271208 2.8854e-20)
(0.110816 0.0370766 1.15593e-19)
(1.01765 -0.00786924 1.30758e-22)
(1.0172 -0.00781788 -1.26783e-21)
(1.01736 -0.00754311 -7.88102e-22)
(0.996345 -0.0254072 2.3755e-21)
(0.995752 -0.0253353 0)
(0.996173 -0.0246648 0)
(1.21383 0.0567365 4.30039e-20)
(1.21334 0.0547053 -9.44801e-22)
(1.21562 0.0544284 -8.95953e-21)
(0.237873 0.0282946 0)
(0.205131 0.0232286 0)
(0.231141 0.0280136 2.39327e-20)
(0.901723 -0.3302 -7.44232e-21)
(0.916629 -0.327035 8.10965e-21)
(0.911875 -0.343164 9.86327e-21)
(-0.0815786 -0.0315774 -3.63871e-20)
(-0.0797897 -0.0307875 2.84338e-20)
(-0.108983 -0.0288097 3.10208e-20)
(0.0328873 0.00686647 -3.09287e-20)
(0.0310297 0.00515154 0)
(0.0890503 0.00406005 -5.0499e-20)
(1.28327 -0.470895 1.18987e-21)
(1.27016 -0.479001 3.49761e-20)
(1.28428 -0.487664 -5.0238e-21)
(1.1505 0.155098 -2.97175e-22)
(1.15292 0.15926 -2.33512e-20)
(0.173587 0.0435165 2.41955e-20)
(0.204931 0.0463758 1.95976e-20)
(0.209191 0.0466139 -6.05326e-21)
(1.21359 0.0591973 2.57133e-20)
(1.21599 0.0590206 6.53868e-21)
(1.10012 -0.0225632 5.886e-21)
(1.10001 -0.0250905 -2.09575e-20)
(1.09776 -0.0230402 -1.76176e-20)
(0.456822 -0.169764 -3.4876e-20)
(0.513534 -0.193136 6.41893e-20)
(0.706871 -0.252682 -9.83521e-20)
(1.19444 0.0073925 -3.47833e-20)
(1.1913 0.00887112 0)
(-0.0674529 -0.0338526 9.03157e-20)
(-0.077667 -0.0344701 3.95332e-20)
(-0.0504608 -0.0219277 4.17538e-20)
(0.997146 -0.025548 5.89767e-22)
(0.996641 -0.026279 5.76975e-22)
(0.146752 0.0410069 0)
(0.142378 0.0407739 0)
(0.993548 -0.0241947 -7.79421e-21)
(0.994092 -0.0235739 -4.65073e-21)
(0.097491 -0.0660856 -1.96012e-20)
(0.0864682 -0.0673952 4.38035e-20)
(0.220497 -0.0906537 2.85284e-20)
(0.93961 -0.0877339 -1.11447e-20)
(0.935536 -0.08453 0)
(0.0378844 0.0105702 -7.70004e-21)
(0.0392151 0.0102803 0)
(0.0946896 0.0113489 4.32813e-20)
(0.105579 -0.0672797 4.23836e-21)
(0.0250041 -0.0519355 1.01439e-19)
(1.2138 0.0621915 -2.89778e-20)
(1.21109 0.059945 -6.2807e-20)
(1.01806 -0.00794286 9.61981e-22)
(1.01789 -0.00822799 1.60186e-21)
(1.00289 -0.0186468 0)
(1.00256 -0.0184121 0)
(1.00267 -0.0189907 0)
(0.0211653 0.012949 1.68239e-20)
(-0.000746285 0.0101899 0)
(1.04358 -0.127867 5.96097e-23)
(1.04084 -0.131572 -4.09495e-21)
(1.03949 -0.126651 4.35967e-22)
(0.119205 0.0371791 1.34452e-20)
(0.0894358 0.0352068 -6.48173e-21)
(0.0893169 0.0332994 1.39362e-20)
(1.16565 0.0446712 -3.40001e-21)
(1.16288 0.0441456 2.1813e-20)
(1.16405 0.0469486 0)
(1.12464 -0.125681 -8.16138e-21)
(1.12019 -0.125295 0)
(1.12291 -0.121903 -7.09365e-21)
(0.0484281 0.00968903 1.30834e-21)
(0.0537916 0.00994627 -2.02567e-20)
(1.13897 -0.690908 1.10135e-20)
(1.09044 -0.661564 1.98268e-20)
(0.929617 0.0784941 9.47775e-23)
(0.91338 0.0765585 -5.21564e-21)
(0.975449 0.0778618 3.87245e-20)
(0.242637 0.0285651 0)
(0.275934 0.0313618 -1.49322e-22)
(1.0446 -0.0344871 -1.66729e-21)
(1.04413 -0.0332823 -3.78222e-21)
(1.04575 -0.0334691 -1.74919e-21)
(0.965007 -0.0163485 -7.44753e-22)
(0.965786 -0.0150306 -1.28258e-20)
(0.964119 -0.0148829 -7.20845e-22)
(0.261764 -0.102958 6.39764e-20)
(0.118044 -0.0726533 4.44294e-20)
(0.574071 -0.940669 1.94568e-20)
(1.01083 -0.00549581 -9.27211e-23)
(1.01073 -0.00522037 -1.60129e-22)
(1.01051 -0.00539127 -3.13296e-22)
(1.01024 -0.0365393 2.91067e-22)
(1.01128 -0.0366014 1.18783e-21)
(1.01076 -0.0355261 -1.06215e-22)
(0.784202 0.0498518 6.65543e-21)
(0.787805 0.0500454 -2.48192e-20)
(0.714394 0.0518573 -4.14116e-20)
(-0.222395 0.00937329 7.83185e-22)
(-0.249974 0.00685921 1.55308e-19)
(-0.220711 0.00770475 3.56994e-20)
(-0.151569 0.00725662 0)
(-0.154251 0.00789901 -2.96068e-20)
(-0.128299 0.00970159 4.27195e-20)
(1.04465 0.0140245 3.48181e-21)
(1.04387 0.0133726 0)
(0.00736716 -0.0367127 -2.7408e-20)
(0.075118 -0.0417031 -8.26852e-20)
(0.00756178 -0.0347949 6.1633e-21)
(0.0314249 0.014082 6.31322e-20)
(-0.0048949 0.01449 8.51667e-20)
(1.12221 -0.0511924 -1.65547e-22)
(1.11985 -0.0493062 -2.41655e-22)
(1.11913 -0.0526436 -1.02163e-20)
(0.988227 -0.012204 -3.26719e-21)
(0.988002 -0.0126371 1.72179e-21)
(0.987641 -0.0121401 5.78643e-22)
(0.678825 -0.0409975 -9.15795e-21)
(0.637104 -0.0287499 -8.29916e-20)
(0.569179 -0.0207006 -9.86136e-20)
(0.613343 -0.656174 2.38016e-21)
(0.654324 -0.634988 1.11831e-20)
(0.657218 -0.684317 1.02394e-20)
(1.195 -0.387321 -2.31908e-20)
(1.19467 -0.4001 -4.40325e-20)
(1.20532 -0.392941 -8.79586e-22)
(1.23749 -0.494094 -2.18363e-21)
(1.20272 -0.478373 -2.3846e-20)
(1.28565 -0.00539218 5.24181e-20)
(1.2843 -0.00623243 5.04564e-20)
(1.23207 0.0271338 -7.41009e-21)
(1.23296 0.0280446 -4.99276e-20)
(1.23572 0.0270378 -3.0046e-20)
(0.0672393 -0.0601432 6.54433e-22)
(0.0147997 -0.043985 1.30137e-20)
(1.00292 -0.000151676 -1.28013e-21)
(1.00316 -0.00014242 6.75796e-22)
(1.00389 -0.000225448 1.07724e-21)
(1.11843 0.025719 -2.95264e-20)
(1.11698 0.0278224 -3.9115e-21)
(0.850189 -0.676561 -1.07e-20)
(0.819328 -0.646401 6.37628e-21)
(-0.0579597 0.00562706 2.58311e-21)
(-0.0548354 0.0053834 -4.08047e-20)
(0.939387 -0.225565 1.35032e-20)
(0.929415 -0.226862 1.76933e-20)
(0.937002 -0.217727 -1.73048e-21)
(0.246298 -0.690823 3.88552e-20)
(0.227054 -0.767949 2.34769e-20)
(0.97122 -0.0655311 -3.64687e-22)
(0.970381 -0.0677924 1.90749e-21)
(0.972936 -0.0672802 4.59829e-21)
(1.21293 0.0522443 2.27448e-20)
(1.21076 0.0546105 1.01051e-20)
(1.12616 0.0228858 3.32329e-21)
(1.12743 0.0206824 -1.00423e-20)
(1.00335 -0.0189911 -3.47111e-21)
(1.00317 -0.0183334 0)
(0.794949 -0.268723 3.45968e-20)
(0.78201 -0.263984 4.34091e-21)
(0.786144 -0.280555 4.17055e-20)
(0.892965 -0.321447 -1.82538e-20)
(0.887552 -0.338776 -4.25002e-21)
(0.958946 -0.460014 -8.10085e-21)
(0.946912 -0.47224 -2.61089e-21)
(0.968157 -0.472863 -1.67428e-20)
(1.00542 -0.0319268 8.37503e-22)
(1.00603 -0.0325175 -9.6841e-22)
(1.0052 -0.0327316 3.07606e-21)
(1.13351 -0.190045 1.84063e-20)
(1.07648 -0.17508 -3.37169e-20)
(1.03687 -0.0185505 7.63392e-21)
(1.03735 -0.0194621 3.15408e-21)
(1.03937 -0.00158133 0)
(1.03905 -0.00100946 -3.04112e-21)
(1.03855 -0.00162723 0)
(-0.0635544 0.00604327 0)
(-0.0670899 0.00645864 0)
(-0.0915748 0.0048791 -2.76998e-20)
(0.149103 0.00480307 -6.55444e-21)
(0.176332 0.006172 1.06753e-20)
(0.152343 0.000131382 -1.23972e-20)
(1.11983 0.0783143 -1.42007e-20)
(1.12 0.0815191 -1.37501e-20)
(0.696081 0.050637 1.99774e-20)
(0.674128 0.0492226 9.58357e-21)
(0.63228 0.0455022 -3.42352e-20)
(1.29403 -0.457707 -3.446e-20)
(1.27617 -0.454414 -3.29072e-20)
(1.14848 0.0877112 -1.07612e-21)
(1.09933 0.0865392 -6.80285e-20)
(1.13902 0.0904059 -5.61971e-20)
(1.10004 -0.0273158 -8.76223e-21)
(1.09775 -0.0278623 2.60489e-21)
(1.10003 -0.0298179 -1.86941e-20)
(0.999966 -0.000628748 0)
(1.00001 -0.000870258 0)
(0.999977 -0.00068491 1.86613e-21)
(-0.0606514 0.00205113 0)
(-0.0558246 0.0030642 0)
(-0.0944624 0.00214856 0)
(1.09075 -0.0436241 -1.96507e-20)
(1.08925 -0.0419626 -9.10546e-22)
(1.08816 -0.0440306 -1.80246e-20)
(-0.0414772 -0.0354876 7.76573e-20)
(-1.43039e-05 -0.0382654 4.46155e-20)
(1.05062 -0.0546037 3.73923e-21)
(1.05242 -0.0555317 -3.78553e-22)
(0.993102 -0.0387839 5.97935e-23)
(0.992379 -0.0394745 1.16115e-21)
(0.992118 -0.0382623 0)
(0.999995 -0.000432138 3.90774e-21)
(1 -0.000206506 0)
(1 -0.00021905 0)
(1.01136 -0.0131496 9.66856e-23)
(1.0117 -0.013395 -4.04505e-23)
(1.01133 -0.0135708 2.78352e-22)
(1.15629 0.150043 1.50514e-20)
(1.15324 0.152 1.55518e-20)
(1.1566 0.153963 1.27898e-20)
(0.175909 -0.100961 1.3219e-20)
(0.242982 -0.127452 -2.82365e-21)
(0.0787055 -0.078935 1.1037e-19)
(0.99393 -0.0376922 -4.17381e-21)
(0.99432 -0.0390993 5.33285e-21)
(1.12745 -0.253846 -1.36448e-20)
(1.11866 -0.254309 -3.47795e-20)
(0.854102 0.0359285 1.462e-20)
(0.798749 0.0407786 3.61057e-20)
(1.03849 -0.00534772 2.30513e-21)
(1.03935 -0.00541357 -3.33416e-21)
(1.03873 -0.00607406 -3.0213e-21)
(0.521531 -0.0475418 0)
(0.619877 -0.0623949 -6.04022e-20)
(0.499323 -0.0484703 0)
(1.22961 -0.244834 -2.57885e-20)
(1.22396 -0.249918 3.41924e-20)
(1.2221 -0.241676 4.12877e-22)
(0.237687 0.0492299 2.84272e-20)
(0.280348 0.0516214 3.63973e-20)
(0.274769 0.0514528 3.34252e-20)
(-0.158588 0.0189307 -4.67398e-20)
(-0.164 0.01848 6.14393e-21)
(-0.135187 0.0218227 0)
(1.00413 -0.00742086 2.59607e-22)
(1.00436 -0.00768956 -7.73698e-22)
(0.332205 -0.139031 5.0565e-20)
(0.124422 -0.0822636 -5.26845e-20)
(0.191106 0.0274044 -4.90027e-21)
(0.194924 0.0266998 4.80451e-20)
(0.226928 0.029626 -1.25147e-21)
(1.15627 0.146605 4.48702e-21)
(1.15965 0.148642 8.26426e-23)
(1.23464 0.0438245 5.93208e-21)
(1.22615 0.0443327 3.16593e-20)
(0.766594 0.0495893 1.14948e-21)
(0.705797 0.0486894 4.31302e-20)
(0.794493 0.0482247 -1.62434e-20)
(0.97103 -0.0499046 -4.74345e-21)
(0.969203 -0.0489037 -6.63625e-21)
(0.806823 -0.260065 -1.53417e-20)
(0.809587 -0.276384 -2.22372e-20)
(1.03211 -0.0301829 1.66832e-21)
(1.03316 -0.0303688 0)
(1.0327 -0.0293044 0)
(1.00923 -0.00537011 2.11399e-23)
(1.00893 -0.00522179 -1.61921e-22)
(1.00917 -0.00505628 1.74203e-23)
(-0.217797 0.00363507 -3.22366e-20)
(-0.216372 0.000950448 -4.29757e-20)
(1.19024 0.0886362 3.53061e-20)
(1.1598 0.086072 3.52561e-20)
(1.02604 -0.00462745 -2.87361e-21)
(1.02642 -0.00444319 -8.23419e-21)
(1.02657 -0.0049004 2.31116e-22)
(1.069 0.00615258 0)
(1.06934 0.00749043 0)
(1.07053 0.00615015 8.26424e-21)
(1.21127 0.0821696 1.52339e-20)
(1.2358 0.0821192 -1.66304e-20)
(1.23101 0.0869393 -1.85109e-20)
(0.997921 -0.0196881 1.06989e-21)
(0.997845 -0.0203045 -1.20034e-21)
(0.998368 -0.0201138 7.49783e-22)
(-0.22876 0.00922417 1.01816e-20)
(-0.201774 0.0115574 -1.06974e-19)
(1.02082 -0.00597101 -9.27115e-22)
(1.02082 -0.00565791 1.06356e-21)
(1.0204 -0.00575856 -7.79013e-24)
(0.995939 -0.0175536 -6.71605e-21)
(0.996145 -0.0181141 -3.15503e-21)
(0.995596 -0.0181302 5.00212e-21)
(0.946666 -0.226939 1.24861e-20)
(0.939304 -0.235022 -8.75543e-22)
(1.23148 0.0257597 -1.71883e-20)
(1.22857 0.0268674 1.4922e-20)
(1.01372 -0.0475073 0)
(1.01389 -0.0488661 1.72732e-22)
(1.01264 -0.0483747 -6.80744e-22)
(1.1173 0.0769891 -6.14632e-21)
(1.1196 0.0751437 0)
(0.979433 -0.151729 0)
(0.975762 -0.153831 0)
(0.980743 -0.156104 -1.93779e-21)
(1.19552 0.00527595 -2.09504e-20)
(1.19712 0.00665642 -3.12231e-20)
(1.0353 -0.126335 4.97191e-21)
(1.03296 -0.130376 0)
(1.23624 -0.2402 -1.12632e-20)
(1.23909 -0.248313 1.13787e-20)
(1.00081 -0.00263474 -1.88943e-21)
(1.00073 -0.002476 5.02525e-22)
(1.00072 -0.00257175 1.77087e-21)
(1.02128 -0.00623192 3.06918e-22)
(1.02171 -0.0060652 1.0033e-21)
(0.74581 -0.21519 3.11839e-20)
(0.753771 -0.228128 1.84409e-20)
(0.762135 -0.215693 6.19419e-21)
(1.04902 -0.0554438 0)
(1.04876 -0.0536698 -5.72631e-21)
(1.07788 -0.126881 -1.24823e-20)
(1.0741 -0.128615 8.4978e-22)
(1.07785 -0.131972 -1.26735e-20)
(1.17925 -0.00460079 0)
(1.18023 -0.00664875 -2.23393e-20)
(1.18161 -0.00388484 -8.38649e-21)
(1.00214 -0.000538967 0)
(1.00232 -0.000537723 -6.16753e-22)
(0.978996 -0.147293 -6.40222e-21)
(0.983653 -0.149607 0)
(1.1683 0.0403197 1.5277e-20)
(1.16976 0.0380951 -3.83801e-20)
(1.1709 0.0410383 -2.29484e-20)
(0.99999 -0.000392428 0)
(0.999984 -0.000652669 0)
(0.00455839 0.00883555 1.61803e-20)
(-0.0219211 0.00601538 1.76457e-20)
(0.00518214 0.00992336 6.63418e-21)
(1.01234 -0.102672 -3.5481e-22)
(1.01245 -0.106393 2.51092e-22)
(1.00468 -0.00748459 -1.08957e-21)
(1.00491 -0.00752661 -1.00153e-21)
(1.00465 -0.00718367 1.06097e-21)
(1.12609 -0.129622 -7.74372e-21)
(1.12907 -0.12599 5.90604e-22)
(0.994629 -0.0413054 -1.27748e-22)
(0.995744 -0.0412236 -2.67712e-21)
(0.994933 -0.0402619 -3.1447e-21)
(1.08267 -0.117395 -2.8187e-21)
(1.0858 -0.116782 -1.7899e-20)
(1.08539 -0.121023 1.58546e-20)
(0.867533 -0.305818 1.06952e-20)
(0.861641 -0.293256 4.93236e-22)
(0.876463 -0.296639 2.55753e-20)
(0.0905286 -0.0100047 -3.39972e-22)
(0.0416959 -0.0100274 -1.60826e-21)
(0.040209 -0.00721712 -1.35854e-21)
(0.856411 -0.314658 -1.5028e-20)
(0.872325 -0.317119 7.39719e-21)
(0.515819 -0.450125 -4.53803e-20)
(0.540585 -0.479907 -1.46578e-20)
(0.549972 -0.441072 -2.68385e-20)
(1.01557 -0.00428286 0)
(1.0159 -0.00434571 -6.21322e-22)
(1.0157 -0.00452683 -1.90435e-22)
(0.287165 0.0549544 -5.8453e-20)
(0.232065 0.0519544 -4.75747e-22)
(1.00473 -0.00773677 4.70945e-22)
(1.04381 -0.0353108 0)
(1.04528 -0.0354524 0)
(1.20541 0.0747466 -1.66806e-20)
(1.20764 0.0728233 -3.42069e-21)
(1.20447 0.0724576 7.27945e-21)
(-0.0610757 0.0057515 0)
(-0.0412974 0.00796798 1.9316e-20)
(1.26426 -0.152281 3.89307e-22)
(1.26987 -0.151359 5.23026e-21)
(1.26776 -0.157637 5.20439e-21)
(1.16685 0.0427399 1.95512e-20)
(1.16564 0.039682 4.71653e-20)
(1.16181 -0.0573634 -1.01368e-20)
(1.16127 -0.0531681 1.52225e-20)
(1.15803 -0.0563061 -5.14451e-21)
(0.988497 -0.210473 -5.33078e-22)
(0.993875 -0.215189 -1.11968e-21)
(0.986368 -0.218272 -1.12049e-21)
(1.02543 -0.00225867 -4.82887e-22)
(1.02536 -0.0019041 -6.96483e-22)
(1.0258 -0.00213515 4.60129e-22)
(1.1814 -0.00977153 1.84924e-20)
(1.18288 -0.0118244 6.68975e-20)
(1.18421 -0.00860915 3.45412e-20)
(0.994031 -0.00578818 8.31906e-21)
(0.993831 -0.00547583 -3.8415e-21)
(1.19338 0.00386441 -2.04534e-20)
(1.19659 0.00286903 4.04007e-20)
(-0.0620953 -0.0199872 -1.12897e-20)
(-0.0702639 -0.0162532 -1.50858e-22)
(-0.0965277 -0.0142346 1.61339e-21)
(1.21416 0.064471 0)
(1.21643 0.0637633 -1.55777e-20)
(1.00199 -0.000185198 2.30017e-21)
(1.00197 -0.000301674 3.00098e-21)
(0.998046 -0.0190259 -2.69058e-21)
(0.997513 -0.0192427 2.5287e-21)
(1.02553 -0.00264093 -1.93817e-23)
(1.02501 -0.00240123 2.07647e-21)
(1.01285 -0.00153915 5.5897e-22)
(1.01272 -0.00165493 -2.92064e-23)
(1.01266 -0.00145703 5.17487e-22)
(0.800609 -0.0537032 4.4984e-20)
(0.716787 -0.0464908 7.75813e-20)
(1.10175 -0.0943252 2.47391e-20)
(1.09892 -0.0946582 -5.85338e-21)
(1.10104 -0.0976826 9.53495e-21)
(1.00925 -0.0131572 -2.89877e-22)
(1.00925 -0.0134609 0)
(1.00959 -0.0133734 1.79255e-23)
(1.29252 -0.256847 -2.44292e-20)
(1.29882 -0.265594 4.03078e-20)
(1.30663 -0.257491 -5.25756e-20)
(0.875665 0.0772254 -1.42578e-20)
(0.938228 0.080432 -1.66784e-20)
(1.05579 -0.0210312 3.63067e-21)
(1.05697 -0.0210115 -5.27682e-21)
(1.05595 -0.0199892 -8.49939e-21)
(0.72167 0.0519457 9.56103e-21)
(0.76823 0.0561406 -2.88691e-20)
(0.0547345 0.0326164 -5.27078e-20)
(0.0680575 -0.115951 -2.95288e-20)
(-0.0853264 -0.0260209 -8.67536e-20)
(1.21446 0.0672198 2.2605e-20)
(1.21166 0.0653431 0)
(0.999469 -0.00277632 3.29947e-21)
(0.999432 -0.00272246 -2.38233e-22)
(0.0322269 0.00820263 -9.84729e-21)
(0.0356815 0.00937901 2.33225e-20)
(0.0939956 0.00838535 -7.92649e-20)
(0.898274 -0.0850217 1.73676e-21)
(0.895087 -0.0803784 -1.55835e-20)
(0.900555 -0.0805076 -3.17552e-20)
(0.999219 -0.00345684 2.34517e-21)
(0.999211 -0.00358077 8.84745e-21)
(0.999128 -0.00361868 5.66661e-21)
(0.52059 -0.0415992 0)
(0.408621 -0.0331238 0)
(1.10189 -0.0225418 3.31072e-20)
(1.1001 -0.0206112 -2.15007e-20)
(0.894819 -0.0897363 5.0974e-21)
(0.900633 -0.0895492 9.07422e-21)
(1.04292 0.00689089 -5.02604e-22)
(1.04298 0.00759652 6.46077e-21)
(1.04371 0.00707573 4.06214e-21)
(1.12851 -0.05628 0)
(1.12565 -0.0557162 0)
(1.12793 -0.0531664 5.3733e-21)
(1.2355 0.0559002 0)
(1.2365 0.0537682 2.37086e-20)
(1.23388 0.0540835 0)
(0.484797 -0.461959 -9.4599e-20)
(0.495665 -0.427704 1.28786e-20)
(1.07965 -0.118948 6.91878e-21)
(1.07964 -0.114994 5.07411e-21)
(0.931095 -0.323986 -5.91544e-21)
(0.940141 -0.333964 -1.14278e-22)
(0.943648 -0.320048 -1.11659e-21)
(1.02824 0.00300247 -2.48947e-21)
(1.0287 0.00318388 -1.97017e-21)
(1.15744 0.0315437 -2.43749e-20)
(1.15867 0.0342028 -1.41092e-20)
(1.15541 0.0341178 -1.42948e-20)
(0.999641 -0.00779586 7.37681e-22)
(0.999661 -0.00812292 -3.57161e-21)
(0.999825 -0.00786371 -1.83838e-21)
(1.17834 -0.00159619 0)
(1.1764 -0.00448925 2.51848e-20)
(1.00943 -0.101637 -1.12605e-21)
(1.01231 -0.0994984 -1.64538e-22)
(1.20372 0.0769943 5.74471e-21)
(1.20627 0.0773527 5.58967e-21)
(-0.307946 0.000338404 -1.02533e-20)
(-0.326217 0.00217883 -8.411e-21)
(-0.309241 -0.00144191 -6.06287e-20)
(1.01525 -0.0042626 0)
(1.01542 -0.00408649 0)
(1.04337 -0.0310007 5.61594e-21)
(1.04471 -0.0311893 1.56822e-21)
(1.04375 -0.0321357 1.70278e-21)
(1.03775 -0.482635 -1.03209e-20)
(1.05814 -0.479289 2.84029e-21)
(1.05164 -0.504779 0)
(1.04295 -0.0299375 -1.5907e-21)
(1.04203 -0.0308024 7.76402e-21)
(1.06756 0.00625691 3.47671e-21)
(1.0685 0.00494915 0)
(1.17821 -0.0100846 -2.43354e-20)
(0.696152 0.0263069 -2.6246e-20)
(0.796428 0.0203736 5.7074e-20)
(0.725329 0.0240467 -2.08402e-21)
(-0.151954 0.00595337 0)
(-0.177291 0.00526617 -3.66636e-20)
(1.00348 -0.0317513 -3.37307e-22)
(1.00411 -0.0313329 1.72763e-21)
(1.00328 -0.0309104 1.77449e-21)
(1.21784 -0.120616 1.47287e-20)
(1.21279 -0.116541 1.49495e-20)
(1.2125 -0.123414 5.44787e-20)
(0.0534973 -0.0575509 -1.60339e-20)
(0.0256095 -0.049804 0)
(0.0622821 -0.0319854 1.68796e-20)
(1.25359 -0.487688 0)
(1.24323 -0.467631 -2.66922e-20)
(1.0117 -0.0537184 -4.62926e-22)
(1.0104 -0.0531461 -4.88847e-22)
(1.01167 -0.0521807 -9.1008e-22)
(1.02979 -0.00769409 -1.28611e-21)
(1.03044 -0.00789648 1.42611e-21)
(1.03022 -0.00729317 -4.22884e-21)
(1.08064 -0.0729881 9.13414e-21)
(1.0828 -0.0729225 -5.65677e-21)
(1.08148 -0.0703113 6.62556e-21)
(1.10498 -0.0932576 -6.02845e-22)
(1.10258 -0.0905 9.91095e-21)
(1.00486 -0.031445 -1.0139e-21)
(1.00561 -0.0312729 -1.09334e-22)
(0.0589596 -0.0890131 -3.66035e-21)
(0.102221 -0.0559251 -1.63877e-20)
(1.28782 -0.248462 -4.94178e-20)
(1.28216 -0.256479 2.42931e-20)
(1.02159 0.201564 -4.25541e-21)
(0.978528 0.192075 0)
(0.994563 0.192869 1.70226e-21)
(-0.0627083 0.0059449 0)
(-0.0190976 -0.0214067 -1.35278e-20)
(1.02467 -0.00464787 -1.53527e-21)
(1.02499 -0.00436534 1.69569e-21)
(1.02446 -0.00424926 0)
(1.01526 -0.000104533 1.63072e-21)
(1.01523 -3.75105e-05 1.33927e-21)
(0.997136 -0.227901 -7.27297e-22)
(0.990591 -0.230986 0)
(0.997503 -0.236318 2.19533e-21)
(0.150597 -0.00863305 5.48598e-20)
(0.151759 -0.0141359 -4.11233e-20)
(0.921281 -0.0487721 -1.74795e-21)
(0.923093 -0.0455236 6.95674e-22)
(0.924981 -0.0486262 2.09821e-20)
(0.922139 -0.314526 -9.07071e-21)
(1.20145 -0.0211873 1.67616e-20)
(1.20034 -0.0185431 1.50329e-20)
(1.19845 -0.0210809 1.60546e-20)
(1.07526 -0.0775326 -3.70615e-21)
(1.07795 -0.0778478 -8.37627e-21)
(1.07591 -0.0804525 -1.18785e-21)
(-0.0131844 0.00740917 5.96485e-21)
(1.0366 -0.00463066 0)
(1.03627 -0.0040061 0)
(1.16996 0.209503 -8.60516e-22)
(1.17906 0.208397 2.58143e-20)
(1.16164 0.205573 -4.46073e-21)
(0.198675 0.0465126 -3.42288e-20)
(1.01299 -0.00143936 -4.69118e-22)
(1.01295 -0.00123968 2.81178e-22)
(0.398643 0.0667694 -9.14476e-21)
(0.356812 0.0611308 -3.92e-21)
(0.369764 0.0629486 -1.8406e-20)
(0.966832 -0.169282 -8.44254e-22)
(0.969889 -0.174206 -3.17466e-21)
(0.963202 -0.174622 1.61357e-21)
(1.03435 -0.0199641 -5.50917e-22)
(1.03463 -0.0190218 5.60389e-21)
(1.06979 -0.110176 6.35774e-21)
(1.07371 -0.112294 -4.20996e-21)
(1.0731 -0.107261 8.81209e-21)
(1.19229 -0.0562012 -1.55193e-20)
(1.19144 -0.0521204 4.27389e-20)
(1.18832 -0.0559699 1.36378e-20)
(1.04924 0.00456168 -5.95807e-22)
(1.04878 0.00528957 3.22772e-21)
(1.04989 0.00528599 4.12789e-23)
(0.99929 -0.00331735 -3.56741e-21)
(0.999186 -0.00334973 -9.31957e-21)
(-0.277351 -0.00728934 1.62278e-20)
(-0.275523 -0.00890085 0)
(-0.251183 -0.00898655 0)
(1.0562 0.212318 1.70902e-22)
(1.07004 0.212486 1.3837e-20)
(1.00216 -0.0134258 -2.86967e-21)
(1.00243 -0.0137246 -1.27148e-21)
(1.00214 -0.0138503 -4.64349e-22)
(-0.269451 -0.00747528 2.90748e-21)
(-0.276319 -0.00513053 -1.81662e-22)
(-0.28302 -0.00328815 2.49481e-21)
(-0.00750939 0.0109103 0)
(1.25847 -0.152939 -2.38706e-20)
(1.26084 -0.147057 -1.41393e-20)
(0.998441 -0.00822403 1.26399e-21)
(0.998349 -0.00854471 6.26966e-21)
(0.998235 -0.00818499 3.36555e-21)
(1.00307 -8.34694e-05 -5.62283e-22)
(1.14652 0.156548 -7.68534e-21)
(1.13534 0.153156 7.59739e-21)
(1.10036 0.151076 3.50963e-21)
(1.05452 -0.0211641 0)
(1.05547 -0.0223599 0)
(1.0255 -0.00445919 4.14569e-21)
(1.02567 -0.00495027 1.28941e-21)
(1.03064 -0.0090119 -2.62242e-21)
(1.03081 -0.00942264 -7.09459e-22)
(1.03126 -0.00897463 -1.63732e-21)
(0.948217 -0.018993 -5.94244e-21)
(0.946031 -0.0186359 -1.18721e-20)
(0.947281 -0.0165103 1.33409e-20)
(1.218 -0.25539 2.86908e-21)
(1.22639 -0.258696 -3.60493e-21)
(1.19338 -0.0592822 -3.04092e-20)
(1.19608 -0.0555781 1.04536e-20)
(1.07974 -0.0754298 9.45302e-21)
(1.07818 -0.0729101 7.89504e-21)
(1.0958 -0.0936044 -1.10516e-20)
(1.09607 -0.0967512 -2.08846e-20)
(1.02395 -0.125623 -1.30655e-21)
(1.02525 -0.129614 -1.02611e-21)
(0.954502 -0.226569 9.45343e-21)
(0.954273 -0.233471 -2.85088e-21)
(1.02778 0.00285004 2.29449e-22)
(1.02816 0.00253675 2.31496e-21)
(0.999996 -0.000651186 -6.38158e-22)
(0.999999 -0.000652914 3.7152e-21)
(1.23442 0.0294199 -3.69927e-20)
(1.23162 0.0290752 2.28994e-20)
(1.07855 -0.202919 5.2263e-21)
(1.07585 -0.208792 0)
(1.08282 -0.207671 0)
(1.22263 -0.123906 -2.53224e-20)
(1.22225 -0.117571 3.24459e-20)
(0.551527 0.0495312 1.50845e-20)
(0.518127 0.0279295 -1.30349e-20)
(0.918018 -0.0492144 -5.05443e-21)
(0.920361 -0.0522615 -1.25558e-20)
(1.01354 -0.0461576 -5.38409e-22)
(1.01478 -0.0465386 0)
(1.00458 -0.000226199 -4.46333e-23)
(1.00507 -0.000207172 1.27453e-22)
(1.00631 -0.000213555 -1.5567e-24)
(1.1742 0.211763 -1.32529e-20)
(1.1593 0.21239 1.00458e-20)
(0.444702 0.0728032 -2.36061e-20)
(0.432953 0.070625 -5.19587e-21)
(1.02567 -0.00304174 -1.80065e-21)
(1.02608 -0.00287323 -1.16389e-21)
(1.0051 -0.00754531 -1.77013e-22)
(1.00532 -0.00756931 1.79823e-21)
(1.00505 -0.00723641 8.70318e-22)
(1.0257 -0.00339525 0)
(1.02525 -0.00312009 -3.00509e-21)
(0.971766 -0.0634923 -7.6667e-21)
(0.969633 -0.0642185 -2.79014e-21)
(0.982272 -0.205913 8.0297e-22)
(0.989343 -0.203553 2.33131e-21)
(1.3159 -0.109226 0)
(1.31388 -0.116523 2.85394e-20)
(0.988862 -0.0120995 -4.93558e-21)
(0.988491 -0.0115731 5.94791e-21)
(0.968474 -0.0153825 1.06133e-21)
(0.969743 -0.0155035 -4.86599e-21)
(0.969092 -0.0141733 -5.16912e-21)
(1.02219 -0.00448701 -2.57835e-21)
(1.02251 -0.0042931 -1.82628e-23)
(1.02205 -0.00414924 -1.53803e-22)
(0.625438 -0.562637 -8.7102e-22)
(0.588067 -0.580188 6.21764e-21)
(0.972566 -0.446791 6.68271e-21)
(0.951306 -0.445848 9.85285e-22)
(1.22163 -0.0177885 -2.58419e-20)
(1.2242 -0.0190193 -1.93703e-23)
(1.22175 -0.0209322 2.50751e-20)
(1.14561 -0.302129 1.919e-20)
(1.14286 -0.312031 1.56191e-20)
(1.15588 -0.307316 -3.96789e-20)
(1.05336 -0.0037067 5.73606e-21)
(1.05292 -0.00268176 -7.61352e-21)
(1.0543 -0.00290767 -1.17283e-20)
(1.23105 0.0246901 -7.01487e-21)
(1.22816 0.0242266 7.71741e-20)