/*--------------------------------*- C++ -*----------------------------------*\
| =========                 |                                                 |
| \\      /  F ield         | OpenFOAM: The Open Source CFD Toolbox           |
|  \\    /   O peration     | Version:  v2012                                 |
|   \\  /    A nd           | Website:  www.openfoam.com                      |
|    \\/     M anipulation  |                                                 |
\*---------------------------------------------------------------------------*/
FoamFile
{
    version     2.0;
    format      ascii;
    class       surfaceScalarField;
    location    "950";
    object      meshPhi;
}
// * * * * * * * * * * * * * * * * * * * * * * * * * * * * * * * * * * * * * //

dimensions      [0 3 -1 0 0 0 0];
oriented        oriented;


internalField   nonuniform List<scalar> 
27907
(
-0.000242409
-0.000569243
0.000811696
-0.000499895
0.000665716
-0.000165813
0.000760653
0.000358101
-0.000961693
0.000390887
-0.000740393
0.000349512
0.000408343
-0.000627461
0.000219119
-0.000308222
0.000612131
-0.000303908
-0.000405772
0.000453037
-4.72645e-05
-0.00217326
-5.80483e-05
0.00230356
-0.000217029
-0.000514548
0.000731604
-0.000868937
0.0015115
-0.000641682
-0.00225267
0.00114958
0.00110604
0.0003211
0.000247791
-0.000568889
0.000320227
-0.000141274
-0.000100212
0.000656507
0.000253269
-0.000909695
0.000280709
0.00163244
-0.00190837
-0.00034588
0.00071761
-0.000371727
0.00147647
-0.00109346
-0.000382507
0.00276201
-0.000790693
-0.00192798
-0.00246036
0.00234563
0.00012526
0.000430339
0.000947143
-0.00137692
-0.000269159
0.000450705
-0.000181546
0.000215541
0.000187823
-0.000396713
0.00036853
-0.000598087
0.000229559
-0.000421173
-0.000159846
0.000581029
-0.000811811
0.000463742
0.00034808
9.79233e-05
-0.00219103
-0.000656133
0.000369221
0.000286914
0.000475143
-0.000618806
0.000143664
0.000524495
-0.000678734
0.000154244
-0.000527436
5.6239e-05
0.0004712
-0.00078327
0.00126103
-0.00047753
0.000474389
-0.000194878
-0.00027951
6.97666e-05
3.95989e-05
-7.14755e-05
-7.23976e-05
0.00195371
-0.00187632
0.000390503
-0.000990504
0.000600078
0.000317902
0.00107827
-0.00139157
-5.7129e-06
-8.7907e-05
0.000119722
0.000491266
-0.00242972
0.00194694
0.00231209
-9.44802e-05
-0.00221094
0.00153006
-0.000583622
-0.000945961
0.00110468
0.00152301
-0.00261896
0.00107007
0.000782657
-0.00185196
-0.00276201
0.000679285
0.00211357
0.00154934
3.35749e-05
-0.00158203
-0.000552487
-3.1996e-05
0.00058449
-0.000132502
-0.000849706
0.00108931
-0.000103411
0.000471941
0.00144695
0.000393807
-0.00183852
0.000841611
-0.00170955
0.00238977
-0.000110695
-0.00224184
-0.000632941
-0.00023852
0.000871521
0.000456207
0.000161126
-0.000617332
-0.000692665
0.00173065
-0.000956078
-0.00077763
-0.00147176
0.000482817
-7.67273e-06
0.000702954
-0.000350644
-0.000352303
-0.000114527
0.000134522
-0.000537849
-0.000314179
0.00196627
-0.00240675
0.000445842
0.000111974
-0.000926155
0.000814254
-0.00105031
0.000330409
0.00071996
8.31234e-05
-0.000488896
-0.000760073
-0.000154374
0.000914521
0.000983409
-0.00217173
0.00118997
0.000769557
-0.00138957
0.000281091
0.00199076
-0.00226833
0.0014199
8.64712e-05
-0.00150589
-3.21342e-05
0.000133697
0.00272589
-0.0003493
-0.00236556
0.000508359
-5.21511e-05
-0.000165862
-0.000294247
0.00046011
0.00218332
-0.000246961
-0.00193452
0.000136968
0.00228811
0.000357238
-0.000495791
0.000138553
0.00267234
-0.000256968
-0.00237324
-0.00186107
0.0025981
-0.000730628
0.000178444
-0.000878695
0.000700279
-0.000527544
0.000499557
2.7988e-05
0.000663153
-0.000992501
0.000329392
-0.00015426
-0.000339443
0.000493704
0.000264196
0.000288476
-0.000552671
-0.000353085
-0.000230722
0.000583812
-0.000587728
0.000699756
0.000688655
-0.000330394
-0.00035826
-0.000573007
0.000751478
0.00116285
0.000615861
-0.00177771
0.000281095
0.000295494
-0.000576587
0.000252915
-0.00101291
-0.000275366
-0.000170833
0.000446199
-0.00266359
0.000809306
0.000348507
0.000340148
0.00249655
-0.000524567
0.000175831
0.000433241
-0.000609071
-0.000756037
0.00182679
0.000425491
0.000167433
-0.000592923
-0.000291792
0.000467624
0.000281539
-0.000854518
0.000783567
0.0019254
-0.00299747
0.000936835
0.00207093
-0.000481643
0.000212484
-0.000649246
0.00137787
-0.000728065
-0.000675501
0.000237133
0.000438368
0.000808068
-0.00102599
0.000218046
0.00120821
-0.000279791
-0.000928177
0.000290096
0.000184293
9.60984e-05
-0.000623531
0.000308872
0.0003387
-0.000647565
0.000112994
-0.000640537
0.00198267
-0.00250845
0.000530263
-0.00206725
9.93161e-05
0.00196846
-0.000568669
0.000276878
-8.14091e-05
0.00231799
-0.0020955
-0.000149722
0.00259852
-0.000492239
-0.00209982
-0.000232476
-0.000331494
0.000563973
-0.000371683
0.000413739
-4.20559e-05
0.000312243
0.000188921
-0.000501165
0.00193799
-0.00165256
0.000399495
-0.00060573
0.000206236
-2.69852e-05
0.000452477
0.00167836
-0.0012083
-0.000469469
-0.000422391
-0.00135487
0.00177995
-0.000605627
5.51268e-05
0.000550503
0.000571894
-0.000463024
-0.000108868
-0.000705136
0.000387206
0.000317942
0.000168431
-0.000720911
0.000186287
-0.000686174
-0.000777034
0.000117774
0.000659273
-7.34301e-05
0.000506673
-8.51067e-05
1.33473e-05
0.000170113
0.0010086
0.000468324
-0.000375134
-0.000280995
0.000273289
0.000177416
-0.000320374
0.000988007
-0.000667519
-4.66276e-05
-0.000383482
0.000284137
0.0012734
-0.00155642
-5.54415e-05
-0.000823222
0.000810873
0.000719594
-0.000290153
-0.00269298
-0.00105969
0.000818846
0.000240868
-1.38605e-06
0.000664573
-0.000773617
0.000574915
0.000198716
-0.00148367
-0.00083375
0.0023239
0.000265818
0.000437141
-0.000895162
0.00200691
0.00214862
3.22605e-05
-0.00217167
-0.000340211
-0.000110444
0.000450655
0.000345602
-0.000581334
0.000235733
-0.00120883
0.000425788
-0.000683164
0.000106312
0.000576856
0.000270334
-0.000623413
-0.000556406
0.000641288
-8.48731e-05
0.000877298
-0.00175182
0.000875565
-0.000313998
-1.76069e-05
0.000350903
-0.000181258
-0.000300939
0.000482198
0.00186476
-0.00124432
-0.000619149
0.000510878
-0.000111382
-0.00028177
0.00173081
-0.00282584
0.00154876
0.00128085
1.02558e-06
0.000107383
-0.000104753
-0.00266977
0.000636387
0.00205942
-0.000366519
-0.000376946
0.000743516
-0.000260114
-0.000287007
0.000547122
-0.00111111
-0.00171061
-0.000254049
-0.000796201
7.43579e-05
0.00045014
-0.0025046
0.00249647
1.8267e-05
0.000239052
-0.000610454
0.000371405
0.000435983
0.000318644
-0.000754601
0.000599279
-0.0003001
-0.000299178
0.000194299
0.000298666
-0.000492965
0.0012756
0.00152124
-0.000561063
0.000300951
0.000342842
0.000206351
-0.000549192
-0.000776775
0.000410306
-0.000744749
0.000323587
-0.000237776
0.000635173
-0.000397394
-0.000682094
0.00166676
-0.000385133
-0.000674515
-8.05397e-06
0.00212173
-0.00210669
0.0021246
-0.000266592
-0.00178562
-0.000259807
-0.000178841
-0.00058352
2.71235e-05
-0.00304643
0.000980615
0.00209184
-0.00202837
0.000533263
0.00149702
0.000873626
-0.000615243
-0.000258367
0.000475457
0.00186461
-0.00233132
0.000168852
-0.000540535
0.0025473
-0.000116926
-0.00239094
0.0002191
-0.0023674
0.00215538
-0.000882248
0.000561966
1.90094e-05
-0.000796028
-0.00218194
0.00083163
0.001354
-0.000846225
-0.000362353
-0.00131301
0.00117848
0.0001348
-0.000634444
0.000887429
-0.000870654
0.00130153
-0.000338065
0.000774076
0.000168862
-0.00104845
0.000919049
-0.00256656
-0.000158306
0.000958154
-0.00042223
-0.000535898
0.00173304
-0.00201236
-0.00094566
-0.000342231
0.00128837
-0.000985981
6.56904e-05
0.000920404
0.000270631
0.000120523
-0.000267907
-0.00104477
-0.000971212
-5.40415e-05
0.00102537
1.59797e-06
-0.000301671
-0.00017145
0.000443741
-0.00027229
-0.000687811
0.00153033
0.0026917
-0.000778978
-0.00187167
0.000912176
0.000296248
0.00251529
-0.0017175
-0.000793846
-0.000657323
-0.000387777
0.00104545
0.000606032
0.00040682
-0.0010128
-0.000683333
0.00033257
0.000350764
0.000776772
-0.000170702
0.000712753
-0.000402977
-0.000309774
-0.00285475
0.00131587
0.00159108
-0.000595118
0.000286898
0.00194131
0.000100493
0.0018856
9.53547e-05
0.000622816
-0.000718139
0.000169794
-0.000510004
-0.000792849
0.000514358
0.000278512
7.15293e-05
-0.00104261
0.00126998
5.55286e-05
-0.00132526
-0.000671355
-0.000367335
0.00103885
-0.00146574
-0.000895871
0.00238561
-0.00116574
0.000261986
0.000903867
-0.00174109
0.0020251
-0.00100556
0.000371201
-0.000483497
-8.99172e-06
0.000492489
-0.000440266
0.000721831
-0.000128121
5.46634e-05
-0.00210477
0.00258954
0.00134228
-0.00278128
3.23083e-05
0.00107141
-0.000999636
-0.00067326
6.76365e-05
-0.000307822
-0.000818069
0.00112634
-0.00248696
0.00242373
8.71489e-05
-0.000797456
0.000466175
0.000331293
0.000590821
-0.000281943
-0.00103288
0.0018974
-0.000861016
-4.01588e-05
-0.000643001
0.000467023
-0.000209629
-0.000257394
0.000290751
-0.000730992
-0.0012214
0.00154283
0.000202227
0.000350097
-0.000552324
-0.000784312
0.00144281
-0.000658251
0.001242
-0.00167527
0.000438406
-0.000344767
0.000583822
0.00141049
-0.000246829
0.000788577
-0.00157263
-0.00242752
0.00076679
0.00166616
0.00155766
-0.00138921
-0.000168058
-0.00018999
0.000694887
-0.000504882
0.000219238
0.000493517
0.000578849
-0.00123578
0.000516969
0.000430172
-0.000947091
-0.00267229
0.00262828
-0.000406024
0.0011772
-0.000770994
0.00193229
0.000537905
-0.0024528
0.00016276
-0.00114861
0.000936054
-0.00162289
-0.000497302
0.000592683
-0.000384202
0.000443016
-5.88145e-05
-0.000750102
-0.00203882
-0.0024398
0.00065251
0.00179194
-0.000157312
-0.000462248
0.000619573
-0.00181571
-0.000619253
-0.00137759
-0.000648531
-0.00109991
0.000579346
-0.000670984
9.16415e-05
-9.66046e-05
0.000408848
0.00254162
-0.00258726
5.25421e-05
0.00113683
-0.000779008
-0.000357741
-0.000149647
0.00037988
-0.000230233
0.000383954
-0.000614669
0.000759844
0.00125577
-0.00201261
-0.00277758
0.00275539
4.19921e-05
4.62658e-05
0.00108984
-0.00113535
0.000961048
-0.00126837
0.000861058
-0.00233841
0.000320884
-0.000470531
-0.00036608
-0.000431362
-0.000758533
0.000582408
0.00017614
-0.000165359
-0.000586907
-0.000174565
0.00254356
-0.00234093
0.00102638
-0.000153298
-0.00115373
0.000615266
0.000538589
-0.000335138
-0.000348193
0.00030772
0.00140406
-0.00171143
-0.000475477
0.000734143
0.000204695
-0.000938761
-0.00164362
0.000428725
0.00121576
0.000466424
-0.000198098
-0.00225115
0.000148669
-0.00058643
0.000437778
0.000268887
0.000988616
-0.00100677
-0.000592203
0.00040774
0.000184464
-0.000797389
-0.000386517
0.00118415
0.00217682
0.000559471
-8.23412e-05
0.00136075
-0.00127769
0.00111894
-2.64344e-05
-0.00109239
-0.00111924
-0.000746722
0.00187014
-0.000366593
0.00161435
0.000367007
0.000113572
-0.000480579
-0.000141616
-0.000616898
-0.000449148
-0.00184419
0.00230867
-0.000448899
8.87215e-06
0.000440027
0.000517532
-0.000495092
-0.000297733
-0.00234656
-0.000281947
0.00264206
1.58705e-05
-0.000430252
-0.000138562
0.000568825
-0.00219628
0.00116728
-0.00273121
-0.000284503
-0.00288265
0.00108995
0.00180436
-0.00188741
0.000179321
0.00170867
-0.000432689
0.000751361
0.000232923
0.000886121
0.00123206
-0.00118498
-0.00156419
0.000746563
-0.000449647
0.00139737
-0.00145798
0.00057586
-0.00230624
-0.000347812
-0.000307792
0.000312409
0.000702218
-0.000584431
-0.00116301
0.000675462
0.000487683
0.000780867
0.000356021
-0.000213663
0.000604555
0.00150047
-0.00119245
-0.000804711
-0.00137328
-0.000110471
2.22918e-05
0.000212348
-0.000397996
0.000546682
-0.000336739
-0.000255461
-0.00111707
0.00248354
0.00263669
-0.000717183
-0.00187793
0.00134862
-0.00244053
-0.00124603
0.00153126
0.000603186
-0.00127436
-0.000357272
-0.000454526
-0.00246191
0.00204329
-8.46402e-06
-0.00199599
0.00200526
-5.04114e-05
0.00236566
-0.00228095
-0.000745824
0.000399947
-0.000560665
-0.000212935
-0.000321906
0.000886391
-0.000564445
-0.00110861
0.000642546
0.00046611
-0.000739957
-0.00124439
0.00198867
0.000581545
-0.000705756
0.000124224
-0.000905592
0.000663236
0.00151046
-0.00101339
-0.000496563
-0.00134667
0.000692018
0.000654827
-0.000284629
0.000316075
0.000172987
-0.000489063
0.00031586
0.000557779
-0.00111876
0.00113478
3.63491e-05
-0.000944682
-0.000393365
0.00133852
-0.000759097
0.000423319
0.000335786
3.18662e-05
0.000547483
0.00200468
-0.00130357
-0.000699664
-0.00248244
0.00233552
0.000449582
-0.00112115
0.000671764
0.00106652
0.0015095
-0.00256672
0.00155107
-0.00118746
-0.000362726
-0.000476856
0.000714253
-0.00023739
-0.000237208
-0.000373567
0.00061078
-0.000933957
7.82759e-05
0.000855769
0.000999099
-0.00144814
0.000154581
-0.000538783
0.001835
-0.00240995
0.00057899
0.00175196
-1.65453e-05
0.00237868
-0.00206635
-0.000303876
-0.000193412
0.00251197
0.00114427
-0.000554922
-0.000589251
-0.00121137
0.00182154
-0.000608361
4.00356e-05
-0.000488934
-0.000207514
-0.000455993
0.000663522
-0.00075055
-0.00167155
-0.00244672
0.00201402
0.000539499
-0.000288748
-0.000250751
0.000126236
-0.00106009
-0.000637382
0.000420374
0.00237913
-0.000540195
-0.000920601
0.0011319
-0.000211013
-0.00250075
-0.000257218
0.000774276
-0.00176451
0.000990902
0.000607609
-0.00196107
-0.00239667
0.00169952
0.000390026
0.000109535
-0.000499561
-0.000394653
0.000223203
0.000200286
0.000256561
-0.000456845
-0.000287572
-0.000288266
0.000349062
5.20544e-05
-0.000866953
0.00063745
0.000229533
0.000589001
-0.000283298
-0.000305703
0.00112519
0.000432844
0.000611819
0.00176902
-0.000839611
0.000625955
0.00256753
-0.00253165
-2.06314e-05
-6.62308e-05
-0.00204108
0.00211572
0.000230611
0.00196387
0.000509244
0.000635103
-0.0021724
0.0022779
-0.000101387
-0.000240904
0.00179117
-0.000576327
-0.00053224
-0.000665867
0.000331661
0.000334209
-0.000408413
-0.00245731
0.000498139
-8.9795e-05
0.00101243
0.000223776
-0.00123584
-0.0024269
9.62598e-05
-0.00195771
0.000963833
0.000995621
0.000547657
0.00204958
-0.0025916
0.00189671
-0.000330239
-0.00131254
0.000667924
0.000362318
-0.00103007
-0.000724775
-0.000733024
0.000223068
0.000243955
0.000952997
0.000725778
0.000674739
0.00142406
-0.00209301
-0.000545068
0.000387767
-0.000240322
-0.000338469
0.000578795
0.000718988
-0.000496118
-0.000222862
-0.000317156
0.000511456
-0.00103833
0.000372739
0.00066569
0.000759404
0.00138291
-0.00213906
-0.00192222
-0.000413515
-0.000123034
-0.00233658
0.00217393
0.000344743
0.00110233
-0.00102395
0.00136205
-0.000831561
-0.000530056
-0.00136255
-0.000103765
0.00146712
0.000582047
-0.00137915
0.00149403
-0.000754427
0.000342935
0.000411505
0.000879705
-0.00147835
0.00203025
-0.000471069
-0.00109249
0.000276251
-0.000551616
-0.00120809
0.00188128
-0.000671013
-0.000692591
0.000455387
1.52354e-05
-2.08261e-05
-0.00236488
0.000512638
-0.000347866
-0.000164771
-0.00102206
0.00138969
-0.000367171
0.0016574
-0.00233161
0.000679106
0.000543848
-0.000733822
-0.000505385
0.000895963
-0.000612383
-0.000541241
-0.000540158
0.000466729
0.00093439
0.00166756
0.00074641
-0.00200002
0.00125583
0.000314635
0.00056224
-0.000314448
-0.00164247
0.001213
0.000429624
-0.000559638
-0.000360612
0.000920354
-0.000290439
0.000947018
-0.000260237
-0.000494176
-0.000445252
0.000250419
0.000194833
-0.000672807
0.00226906
-8.39641e-05
-0.000277693
0.000812419
-0.000534669
0.000101948
0.00250282
0.000273626
0.000828797
0.00198363
-0.00153342
-0.000447122
4.89906e-05
-0.000589148
0.000301189
-0.00122149
-0.000442941
-0.000316147
0.000253274
-0.00161493
-0.00129675
0.000802929
0.000494019
0.00112422
-0.000551828
0.000391991
-0.00236791
0.002542
-1.90408e-05
0.000335116
0.00032788
0.00205845
-0.000587091
1.93658e-05
0.000567739
0.00100207
-0.0022227
0.00123622
-0.000394802
-0.000246471
0.000641286
0.00120507
0.000346835
6.07994e-05
0.00190175
-0.00194175
0.00323296
-0.00228419
0.00198606
-0.00169318
0.000385835
-0.00071462
0.000328791
-0.000490796
0.000427058
6.37381e-05
-0.000524738
0.000292265
0.00109941
-0.00149709
0.000398133
0.00189584
-0.000579438
-0.00131425
-0.000941579
0.000915246
-0.000225098
2.28105e-05
0.000212643
0.000157418
-0.000201263
4.09709e-05
0.000306442
0.000274223
-0.000580664
0.0014237
0.00182087
0.00216217
-0.00214466
-1.44783e-05
0.00106262
-0.000328396
-0.000991635
-6.34396e-05
-0.00113587
0.000576361
0.000187839
-0.0011293
0.0021895
-2.48345e-05
-0.00251264
0.000345748
0.00162208
-0.000892141
-0.000729529
0.00104041
-0.00224586
0.000822463
0.00104336
0.000610971
-0.000651126
-0.0019732
0.000887502
0.00108684
-0.00091891
-0.000723374
0.00190503
-0.000645892
-0.00125794
-0.00121512
0.00189615
0.000511178
-1.91734e-05
-0.000492004
0.00173072
-0.0023922
0.000662763
-0.00225743
0.000404513
0.00185656
7.44392e-05
-0.000521285
0.000446848
-0.000411513
0.000479131
-6.76173e-05
-0.000626013
-0.000670516
-7.82372e-05
0.000526222
-0.000447976
0.0010125
0.000993401
-0.00215299
-0.000521531
0.000110017
-0.000117191
-0.00237629
-0.000463832
0.000258556
0.000205276
0.000183713
-0.000770785
-0.00183217
0.00207814
-0.000227776
2.76861e-05
0.000583289
0.000600566
0.00104564
-0.000595882
-0.000333983
0.000397137
6.38313e-05
-0.000446186
-0.000716666
-0.000623805
0.000432391
0.000191416
0.00202135
0.00245571
-0.000245743
-0.00219837
-0.000419586
0.00205633
0.000805002
-0.00192037
0.00197866
0.000177647
0.000313928
0.000371847
-0.000546592
0.000157418
-0.000345529
-0.000320334
-0.00156198
-0.000200229
0.00176399
-0.0003576
0.000431961
-3.10413e-05
-0.00213218
0.00216623
-0.000556873
-0.000285671
0.000842591
0.000188867
0.00238336
-0.000436221
2.16563e-05
-0.00212675
0.000473516
0.00165513
-0.000275192
0.000917515
-0.000614074
-0.00113564
0.0018983
0.000805099
-0.00160268
0.000798305
-0.00213373
0.00213275
0.00100303
-3.80271e-05
-0.000964923
-0.000569835
-0.000175988
0.00239087
-0.00011714
-0.00220653
0.0004912
8.49696e-05
-0.000576168
-0.000205514
-0.000287022
0.000492536
-0.00046104
0.00121426
-0.000753107
-0.000758743
0.000481096
-0.000297463
0.000497751
0.00155753
-0.000917216
-0.00105469
-0.00124723
0.00173541
-0.000487026
-0.000346637
0.000180775
0.000356082
-0.00191611
-0.0014091
0.000937172
0.000472337
0.00029071
-0.00228473
0.00200046
0.000334207
-0.000622209
0.000288003
-0.0016008
0.000402883
0.00119836
2.6753e-05
-0.000587399
-0.000657925
0.000980138
-0.00032215
-0.000324593
0.000407717
-0.00176869
0.00235771
-8.21688e-05
-0.00226846
0.00100318
-0.00133638
0.000333435
0.000583707
0.000150868
-0.000734565
0.0020182
-0.000435734
-0.000269388
-0.000947848
0.00240462
-0.00145428
0.000324305
0.00026652
-0.00116286
0.00197803
-0.000812224
-0.00279355
0.00286106
-5.11684e-05
0.00187699
0.0001693
-0.000776306
0.000913339
-7.21236e-05
-0.000212421
-0.000282992
0.000495413
-0.00023446
0.00055877
0.00190973
0.000474106
-0.000704974
-2.3687e-06
0.000707371
-0.000516396
-0.00080692
0.00132371
0.000407984
0.000311012
-3.75276e-05
-0.000453269
-0.000748105
0.000317867
0.000507651
-0.000646764
0.000139122
-0.00301392
0.00150086
0.00152329
-0.000357969
-0.000260837
0.000344238
-0.00119021
0.002643
-0.000532169
-0.00210344
0.000332282
0.00108796
0.000467569
0.000285633
0.000227005
0.00199581
-0.00206289
0.00176528
-0.0021311
0.000366059
0.000175283
-0.0021433
0.00197377
0.000524256
-0.000787411
0.000390283
0.000431313
8.8251e-05
-0.000519564
0.00093799
8.7016e-05
-0.00102492
0.000486507
0.000269557
0.000319445
-0.00203672
-9.22641e-06
0.00204867
-0.000694276
0.000893174
-0.00117043
0.000885995
0.000284661
0.000270596
-5.18677e-05
-0.000390596
-0.00225303
0.00177825
-0.000972225
0.00181711
0.000204678
-0.00201801
0.000848733
-0.000330059
-0.00127026
0.000740084
-0.000186197
-0.000553856
0.000399516
0.000152236
-0.000551751
0.000821672
-0.00118215
-0.00112134
0.00214017
-0.00175143
0.00072991
0.0009235
-0.000396473
-0.000526967
0.000404077
0.000141607
-0.000545683
-0.000597017
-0.000811594
-0.00058377
4.18191e-05
0.000541956
0.00138288
-0.000481953
-0.000900657
0.00239329
-0.000479201
0.000172788
-0.000877729
-0.000521138
-1.62022e-05
0.000537346
0.00214234
-0.00130712
-0.00340922
0.00135467
0.00207924
-0.000324811
0.000745351
-0.000420533
-0.000326992
0.000402042
3.46257e-05
-0.00075984
-0.000267902
0.000440889
-0.000224417
-0.000214231
-5.5392e-05
0.000639109
0.00224324
-0.00231725
-0.000292965
-0.000131212
0.000424177
0.000109939
0.000414115
-0.000524055
-0.000265568
0.000726697
-0.00193614
8.51423e-05
-0.00124745
0.000195262
0.000431123
-0.000626381
-0.000143913
0.000143913
-0.000300001
-0.000442267
0.000742308
-0.00022659
-0.000237242
0.000698177
-0.000917062
0.000218918
-0.000541055
0.000216462
0.000987365
-0.000725556
-0.000261689
-0.000202172
-0.00024068
0.000442851
-0.000354244
0.00102233
-0.000751529
-0.00141086
0.00216624
0.00201362
-0.000248031
-0.000216865
-0.000239245
0.00045611
-0.000178361
0.000709443
-0.000531072
0.000476946
0.000291913
-0.000665476
0.00223893
-0.000719068
0.000419104
-0.00023988
1.66743e-05
0.000282426
0.000987744
-0.000992797
0.000367722
0.000625195
0.000449169
-0.00108204
-0.00210887
0.00029712
0.00163791
0.000145142
-0.0017822
-0.000691887
-0.000175033
0.000511012
-1.98112e-05
0.000269295
-0.000486159
-0.000471265
3.2879e-05
0.000438387
0.0010889
0.000422004
-0.00125018
0.000601345
-0.000432265
0.00072304
0.00187235
-0.00188006
0.00246349
-0.00239339
-5.17267e-05
0.00206686
-0.00241394
0.000356927
-0.00218831
0.000972279
0.0012182
0.000635215
0.000971694
-0.0018934
0.000925314
-0.000359283
-0.000633383
-0.0028268
0.00237933
0.000475406
-6.39203e-05
0.000171895
0.00253047
-0.000453335
-0.0020309
0.000266919
0.000281765
-0.000548683
-0.00217548
0.000108912
-0.000163982
0.000193381
-1.57961e-05
-0.00083293
-0.000337262
0.00139543
-0.00094751
-0.000447586
0.000755296
0.00168482
4.00133e-06
0.000386025
-0.000917586
0.00199176
-0.00230286
0.00219245
0.000124541
0.00114721
-0.000461376
-0.000685629
0.0014488
-0.000630969
-0.00081767
0.000520218
-2.57716e-05
-0.00177417
0.00180297
-0.000604224
2.04586e-05
0.000752079
-0.000376465
-0.000736906
0.00111384
0.000161841
-0.000682972
0.000773728
-0.00114972
-0.00065732
-0.000182281
-0.00175108
0.000900041
0.000574183
-0.000317898
-0.000256284
2.70186e-05
0.000404294
-0.00203262
-0.00056768
0.000273434
-0.000301327
0.000702794
-0.000401454
-0.00190335
0.00194468
3.41029e-05
-0.000516002
0.000315449
0.000200553
0.00241793
-0.0023261
-8.06197e-05
0.0023686
-0.000440175
-0.00188399
0.000908596
-0.0014462
0.000538093
0.000392256
-0.00227352
-0.000556315
-0.000295284
0.000851656
-0.000113246
0.000517324
-0.00244648
0.000314788
0.000259396
-0.00135014
-0.00165273
-0.00147533
0.000267618
-0.000715129
0.000536779
0.00226839
-0.000248163
-0.00195258
-0.000533736
0.000333404
0.000200332
0.0015597
0.000466275
-0.00202407
-0.0023256
0.000353738
0.00198062
-0.000232101
0.00252389
-0.00228216
0.00256627
-0.000491939
-3.20326e-05
0.000825826
-0.000793766
0.000694065
0.000264114
-0.00046945
3.96661e-05
0.000429784
-0.000136183
0.000957965
0.000211722
0.00040041
0.000250504
0.000986198
-0.00123647
0.00239888
0.000763074
7.94693e-05
-0.000842513
-4.74672e-06
-0.000466519
0.000643707
-0.000136048
-0.000965
0.000542799
-0.00086164
0.000539772
0.000774749
0.000352117
-0.00112662
0.00156803
0.00013285
-0.00169961
-0.000759061
0.000727053
-0.00237252
0.00134191
0.00103348
-0.000330461
0.0006008
-0.000518056
0.000553586
2.40092e-05
0.000216199
-0.000509164
0.00196743
-1.01666e-05
-0.000313268
-0.000651699
0.000706614
0.000915862
-0.00218977
0.000512546
0.00168201
-0.000242885
-0.000435842
0.00262308
-0.00239489
-0.00020061
-0.000729852
0.000286921
-0.000251214
0.00181265
0.00185264
0.000489498
0.000872952
0.000700256
0.000402282
-0.00110243
0.000644303
0.000181546
0.000614619
-0.000534011
-3.77821e-05
0.000571801
0.000478687
-0.000191492
-0.000287194
-0.000936357
-0.000835475
0.000188318
-0.00045622
0.00286294
-0.00168544
-0.00117214
-0.000548798
-1.49484e-05
0.000563756
0.000701096
0.000286378
0.00181752
-0.000665565
0.00202151
0.000169735
-0.000987189
0.000905361
-0.00192788
-0.00117916
-0.00034139
-0.00197491
0.000676128
-0.00165117
0.000976073
0.000165313
-0.0007141
-0.000652291
0.000466118
-0.000700394
0.00037559
0.00104977
-0.000684437
-0.0003652
-4.36869e-05
0.00127064
-0.00120142
0.000518113
-0.00104689
0.000528992
-0.000628581
0.000390809
0.000596258
-0.00257276
0.00200209
-0.000622161
0.000990004
-0.00226989
0.00171212
0.000560124
-0.000424498
3.60848e-05
0.000388414
0.00191702
-0.00029563
-0.00162052
0.000452722
-9.79905e-05
-0.00035473
-0.00043826
-1.51307e-05
0.000166793
0.000535434
-0.000162407
4.26227e-06
-0.00122108
0.000980009
0.00024123
0.00116866
0.00148018
-0.000934941
-0.00125093
0.0018633
-0.000897712
-0.000964367
0.00221629
-0.000220166
-0.00206807
0.000823693
0.00169884
-0.00245486
0.000605719
-0.000219879
-0.000303908
-0.00013474
0.000709538
0.000874088
-0.00158283
-0.000201548
-0.000332188
0.00204888
0.000347501
-0.00140036
0.000569248
0.000450273
-0.00169327
0.000259443
-0.000730815
0.000471392
0.000304414
-0.000458673
-0.000655062
0.0013653
-0.00204598
0.00225433
-0.000164227
-0.000515961
0.00054273
-0.00220345
0.00221463
-0.000162196
-0.00174763
0.00129865
0.00045019
0.000366531
0.000172969
0.000404147
-0.000628621
0.000224478
0.000477228
0.000248001
-0.000725219
0.000485059
-0.00062361
0.000639638
5.44394e-05
8.53716e-05
-0.00197214
0.00152163
0.00112625
-0.00263854
0.0002936
-0.000624057
0.00195837
-0.000706481
0.000518812
0.000187678
0.00175855
-0.00118182
-0.000575466
3.00895e-05
-0.00137826
0.00134872
0.000610604
-0.000333907
-0.000276696
0.000308219
0.000277037
-0.000585255
-0.00194864
-7.47565e-06
-0.000461974
0.000966841
0.000939244
-0.000706545
-0.000172783
0.000879464
0.00088454
-0.000454325
0.000406831
-0.000286897
0.000414588
-0.000675786
0.000261207
1.18439e-06
-0.0003324
0.00041573
-0.000364818
0.000927356
-0.000411293
0.000357778
-0.000585094
0.000227317
0.00205306
0.000495418
-0.0024882
0.00214897
0.000512496
0.000469163
-0.00238868
0.00192504
-0.000388256
-0.000189993
0.000578254
0.000803912
-0.00059438
-0.000209495
0.00113671
0.000213502
0.000323174
-0.000536675
0.00139781
-0.000385008
-0.000184616
-0.000805823
-0.000418243
-0.00184889
-0.000528385
0.00186626
-0.00129044
0.00187163
-0.0015049
-0.000256421
-0.00209858
0.00249557
-0.000339901
-0.000237843
-0.00020741
0.000433853
0.000390994
0.000460179
-0.000851138
-7.66965e-05
0.00210002
0.000203568
-0.0022037
0.000947218
0.00241637
-0.00208973
-0.000315156
0.00137766
-0.000468615
0.0014794
-0.00171941
0.00055239
0.000604005
-0.000272438
-0.000331565
-0.00104093
0.000681787
-0.00087387
0.000200663
0.000673231
-0.00032099
0.000712014
0.00222242
0.000244265
3.18556e-05
-0.000790889
-0.000926317
0.00245655
0.000171435
-0.00080785
0.000506536
-0.000239206
0.000532493
-0.000293286
0.000660842
-0.000225077
-0.00043576
0.00186107
-4.03789e-05
-0.000876404
0.00155351
0.000393415
-0.000564059
0.000170647
0.000257318
0.000259285
-0.000516602
0.000323035
0.000505545
0.000578233
-0.00108374
0.00042325
0.000500301
-0.000307331
-0.000214199
-0.000972231
3.70093e-05
0.00024559
-0.000677831
0.000202544
0.000369351
-0.000597176
0.00087089
2.69226e-06
-0.000243871
0.00102324
-0.00135284
0.000275602
0.000212072
-0.000487675
0.000381755
0.000129423
-0.000572676
-0.000262895
0.000835624
2.75378e-05
-0.00223614
0.00221161
0.00196714
-0.00115522
-0.000809671
0.00043003
0.00095266
-0.00138253
0.000203102
-0.000412731
-0.00177165
-0.000413352
-0.000481823
0.000721551
-0.000239715
0.00251037
-0.000118439
-0.00237454
0.00178878
0.000699194
0.000122506
-0.000821667
-0.0022749
-0.000272493
0.000157331
0.00216521
-0.00230877
0.00188362
0.000102234
-0.000616324
0.00155329
0.00185917
-0.000437794
-0.001372
-0.00133217
-0.00103725
0.0022258
9.0334e-05
-0.000624337
-0.000527693
-0.000204028
0.000731758
-0.000231792
-0.000349542
-0.000156436
0.00117547
-0.000650884
-0.000524493
-0.0002083
0.0022111
-0.00200086
0.000707659
-0.000823668
0.000309146
0.00111196
-0.00134154
0.000229889
0.00029785
0.0022283
0.00119931
-0.00193517
0.000660861
-0.000273644
-0.000112063
0.000684852
-0.000572733
0.00118227
0.000554254
0.000314154
-0.000510423
0.000196269
0.000500628
-0.0010977
0.00102133
-0.00211278
7.88513e-05
5.21325e-05
-0.000409584
0.000238751
0.000879101
-0.00114944
0.000270469
9.59676e-05
-0.00193721
0.00189257
-0.000200221
0.000584978
-0.000384742
-0.00117976
0.0011125
9.14787e-05
-0.00108957
-0.00038517
-0.00122685
-0.000872703
0.00212366
0.000669255
7.80709e-05
-0.000747314
0.000271464
-0.00209807
0.000181584
0.00195817
0.00195973
-0.00191921
0.000559497
0.000128424
-0.000687912
-0.000107935
0.00247174
-0.000625703
0.000377412
0.000248295
0.000307825
-0.000493631
0.000185806
0.000430888
0.000802871
-0.00123352
0.00197216
0.00115926
-0.0016929
0.000536614
-0.00241279
0.00121292
-0.000360831
-2.16639e-05
0.000219324
0.000323575
-0.000674213
0.000542394
0.000686359
0.00143741
-0.00212037
-0.000240442
-0.000275559
-1.60267e-05
-0.000180707
-0.00194194
0.00216748
0.000459178
0.000175997
0.00259044
-0.00247973
-9.32042e-05
-0.00029681
-0.00033065
0.00203893
-4.7684e-05
-0.00192223
-0.00154083
0.000910987
0.000630172
0.00031514
0.00267166
-0.00046254
-0.00220158
-0.00108323
-0.00110549
0.00219983
-0.0011456
-5.67616e-06
0.000514393
-0.000215727
-0.000651117
0.00231319
-0.00131497
0.00134565
0.000929963
-0.000576472
-0.000353479
-0.000261858
0.00128552
0.000237783
0.00178345
-0.00198513
0.000479863
0.000667539
-0.00135298
0.000407742
0.000894382
4.78823e-05
0.000367412
0.00137648
3.68105e-05
0.0010754
-0.00041803
0.00032004
0.000887063
-0.00103089
0.00014396
0.00241213
-0.00212558
-0.000280417
0.000827194
-0.00082953
0.00107156
-0.00082135
-0.00025007
0.000535207
-0.00108965
0.000554549
0.00104587
-0.00166121
-0.00111358
0.000476628
0.00063715
0.000471374
-0.00025135
-0.00143272
0.00168598
-0.000146809
0.00113322
-0.00233949
-6.41609e-05
0.00279961
-0.00253421
-0.000238534
0.00259497
-0.00017473
-0.00239914
-0.00158992
0.000895387
0.000695048
-0.00111505
0.000727577
-8.03583e-05
0.00101785
0.00248733
-0.0022917
-0.000183879
-0.001209
-0.000537356
0.00111923
0.000601897
-0.000354104
-0.000247793
-0.000628254
-0.00237079
1.13173e-05
0.00148106
-0.00254462
0.00108757
0.00131838
-0.000209131
0.000748432
-0.000539241
0.00225863
0.00027416
-0.000478886
0.000204727
-1.17883e-05
-0.00225608
0.00227889
-0.00172064
-0.00107407