/*--------------------------------*- C++ -*----------------------------------*\
| =========                 |                                                 |
| \\      /  F ield         | OpenFOAM: The Open Source CFD Toolbox           |
|  \\    /   O peration     | Version:  v2012                                 |
|   \\  /    A nd           | Website:  www.openfoam.com                      |
|    \\/     M anipulation  |                                                 |
\*---------------------------------------------------------------------------*/
FoamFile
{
    version     2.0;
    format      ascii;
    class       volScalarField;
    location    "950";
    object      nut;
}
// * * * * * * * * * * * * * * * * * * * * * * * * * * * * * * * * * * * * * //

dimensions      [0 2 -1 0 0 0 0];


internalField   nonuniform List<scalar> 
10042
(
0.00672702
0.00672101
0.00357314
0.00302477
0.00506829
0.00672108
0.0172745
0.00147879
0.00478051
0.00671981
0.0054946
0.00685021
0.00671794
0.00671713
0.000960525
0.00672066
0.00672068
0.00672539
0.00672718
4.85187e-05
0.00671894
0.000918808
0.00674122
0.00672055
0.00672101
0.00130088
0.00672231
0.00141871
0.00452664
0.00174836
0.00672188
0.00124594
0.00671989
0.00213632
0.00113586
0.00672082
0.0013543
0.00155886
0.00672007
0.000531428
4.76096e-05
0.00107958
0.0185211
0.00275847
0.00490265
0.00110529
0.00186225
0.00116282
0.00122442
0.00341558
0.00672294
0.00315913
0.000998751
0.0029161
0.0014257
0.00672094
0.00456447
0.00183511
0.00216272
0.00118622
0.00672118
0.00672166
0.00107436
0.00372727
0.00182129
0.00221295
0.00252948
7.92715e-05
0.0123251
0.00415168
0.00278966
4.94154e-05
0.00261034
0.000266479
0.00275683
0.00672144
0.00498159
0.00672611
0.000337063
0.0174346
0.00118743
0.00316205
0.00312956
0.00126303
0.00259387
0.00672427
0.00672988
0.000150076
0.00350788
0.00672879
0.00249352
0.00294193
0.0013246
0.00339509
0.00191437
0.00381503
0.00672278
0.00401175
0.00056791
0.00447271
0.00672622
0.000220601
0.00246909
0.00672397
0.00150739
0.000205203
0.00672938
0.00672315
0.00671888
0.00673959
0.00672089
0.00531229
0.000972073
0.0119631
0.00202939
0.00649227
0.00672746
0.0067265
0.00359244
0.00507962
0.00362438
0.00052592
0.00260254
0.0067231
0.000228567
0.00261765
0.000544559
0.00107469
0.000237434
0.00672952
0.000315363
0.00289944
0.00780285
0.000459647
0.00420188
0.000294003
0.00481221
0.00245989
0.00106463
0.000136644
0.00136459
0.00672797
0.00159311
0.000240548
0.004193
0.00673831
0.000325922
0.00677382
0.003745
0.000809861
0.00452311
0.00672535
0.0188286
0.00649784
0.00672347
0.00671742
0.00128465
0.00672186
0.000270418
0.000589122
0.00403733
0.000457919
0.00672257
0.00459169
0.00265172
0.00280415
0.000123923
0.000603225
0.00112688
0.00634956
0.00283548
0.00672335
0.000718644
4.24305e-05
0.000217786
0.0261162
0.0070621
0.00263964
6.63109e-05
0.00060488
0.00119262
0.00161319
0.00241985
0.00099799
0.00114224
0.00421548
0.000425208
0.00278182
0.00636665
0.00155839
3.51127e-05
0.00151235
0.0196563
0.000176929
0.000689493
0.000738972
0.00149309
0.00672714
0.00671677
0.00124047
0.000204682
0.00227911
0.00555949
4.6113e-05
0.00224743
0.00673816
3.93788e-05
0.0067228
0.00672545
0.00672499
0.000222199
0.00678745
0.000147805
6.06214e-05
0.00136642
0.000395373
0.00321951
0.00672065
0.000363046
0.00672804
0.00091434
0.00124215
8.85218e-05
0.0016121
0.000662426
0.00134068
0.000629845
0.00663226
0.00035755
0.00269702
0.00459574
5.60024e-05
0.006723
0.00274714
0.00362646
0.00077308
0.00673786
0.00672044
0.00197531
0.00230801
0.00672252
0.00261498
0.0027342
0.000858814
0.00667415
0.00672146
0.00672374
0.00143907
0.002764
0.00672563
0.00671743
0.00417805
0.00090349
9.74036e-05
0.000468884
0.00401713
0.000208005
0.00022382
0.000901942
0.00106741
0.0191524
0.00212393
0.00672866
0.0067224
0.00137865
0.00673593
0.000638716
0.00244532
0.00673038
0.00672521
0.00021217
0.0027314
7.16715e-05
0.000218477
0.000167331
0.00144896
0.00232781
0.00673323
0.00185759
0.00370542
0.000615368
0.00397564
0.00137465
0.00845848
0.00673665
0.00388152
0.0175749
0.00089864
0.00283327
0.00672128
0.000986602
0.0274336
0.000560209
0.000269457
0.00672329
0.00671714
0.00551834
0.00458091
0.000379803
0.00549079
0.00672119
0.006725
0.00313273
0.00176651
0.000879758
0.000178572
0.00622323
0.00112509
0.00453604
0.00673221
0.00188988
0.00672215
0.00223259
0.000240235
0.000219594
0.00490671
0.00672275
0.00256707
0.00375739
0.000867187
0.00134782
0.00672501
0.000495109
0.0067204
0.00672885
0.00269496
0.000183977
0.00672608
0.00162107
0.00306892
0.000952666
0.0101382
0.0067337
0.00672325
0.00671888
0.00399429
0.00036146
0.000600778
0.000234853
0.000459596
0.00179773
0.00108841
0.00295338
0.00671622
0.00256972
0.00672563
0.000298702
0.00400113
0.00224781
0.00178165
0.00577204
0.000771826
0.0011892
0.00137675
0.00377352
0.000668948
0.000261098
0.000498916
0.00143491
0.00672725
0.000918084
0.000337505
0.00264664
0.000377448
0.00672096
0.0067226
0.00672092
0.000792918
0.000359501
0.00239544
0.00672518
0.00120512
0.00672625
0.00672573
4.98717e-05
0.0067268
0.00675041
0.00517561
0.00672028
0.00714222
0.000167001
0.000235268
0.0312183
0.00308204
0.000605268
4.60328e-05
0.00672285
0.00313064
0.00672625
0.00196226
0.00352573
0.00672085
0.000933493
4.55961e-05
0.00678561
0.00671909
0.000118404
3.74826e-05
0.00226157
0.00676711
0.00137356
0.000231478
0.00672393
8.00819e-05
0.000690197
0.00672843
0.00672556
0.00673776
0.00673115
0.00672388
0.006735
0.00258123
0.00297632
0.00182991
0.00686729
0.00671754
0.00582641
0.000274225
0.00330323
0.00583332
0.000553793
0.00127956
0.00675318
0.00676253
0.000100697
0.00278079
0.000584365
0.00177827
0.00678004
0.00143098
2.68758e-05
0.000964271
0.00671989
0.00582543
0.000192503
0.00671989
0.000523484
0.00501926
0.00392475
0.00135748
0.00154297
0.00672941
0.00674019
0.00200412
0.00673039
0.00137509
0.00133691
0.00673478
0.00514084
0.0299852
0.00671964
0.00195307
0.00235482
0.006717
0.00672068
0.00672377
0.00275492
0.00672239
0.00676503
0.000478571
0.00205962
0.000457152
0.00672565
0.000626195
0.000927173
0.00181045
0.00672907
0.00672624
0.000475041
0.00289332
0.00671983
0.000357759
0.0041718
0.00673396
0.00109673
0.00672478
0.000233394
0.00673024
0.00671999
0.00338
0.00671974
0.00304511
0.00672085
0.0018558
0.000549303
0.00671941
0.00413739
0.000202262
0.00158902
0.0148608
0.002102
0.00672598
0.00672591
0.000197959
0.00416846
0.00672904
0.00671949
0.00283256
0.000445664
0.0155416
0.00673052
0.000235391
2.29735e-05
0.00192436
0.00672547
0.00672508
0.00356684
0.00672398
0.00673051
0.0171474
0.00418915
0.0067209
0.00104721
0.00181565
0.00176817
0.00254298
0.00672135
0.000347184
0.000101128
4.32546e-05
0.0067486
0.00340628
0.00343287
0.00672044
0.0108909
0.000546907
0.00307126
0.00357344
0.00674234
0.0027825
0.000134316
0.00147676
0.00672245
0.00167349
2.49756e-05
5.08637e-05
0.000242605
0.00672062
0.00420839
0.00328143
0.000390895
0.0155031
0.000892356
0.000711814
0.000527656
0.00672416
0.00166336
0.00230233
0.00672389
0.0047593
0.00672256
0.0067313
0.00120645
0.00672418
0.000708947
0.00220332
0.000620756
0.000559388
0.00672502
0.00239136
0.00117288
0.00252824
0.000255875
9.90753e-05
0.006726
0.00371664
0.00162338
0.00376212
0.00672183
0.00239145
0.00672153
0.000665871
0.000426313
0.000160913
0.00672259
0.0017055
0.00671928
0.00651155
5.51988e-05
0.00671881
0.0013068
0.000871831
0.00672412
0.000366177
0.00257728
0.0067212
0.0038976
0.00106378
0.00672417
0.000402044
0.00297545
0.00672566
0.00317073
0.00672322
0.00672627
0.0013847
0.00265799
2.73345e-05
0.00139692
0.0067247
0.00226245
0.000486682
0.00108795
0.00672331
0.00215791
0.00456569
0.00155426
0.00378175
0.000550748
0.00675475
0.0010353
0.00675617
0.00672102
0.00700272
0.00673703
6.41289e-05
0.0067242
0.00263376
0.00672001
0.00130792
0.00672097
0.000976392
0.00268931
0.000370471
0.00672552
0.0173267
0.00677434
0.000994241
0.00672572
0.00300838
0.00672078
0.0013455
0.00672154
5.08033e-05
0.000361699
4.48167e-05
0.00189582
0.000256805
0.00534102
0.000250088
0.00111902
0.00671976
0.000378234
9.12267e-05
0.0154751
0.00256939
0.000156454
0.00105103
0.00231511
0.00672473
0.00210098
0.00143186
0.00294086
0.00672143
0.00137382
0.000397376
0.00672547
0.00673214
0.00216425
0.00976623
0.00103659
0.000668141
0.00329677
0.00672522
0.0185176
0.00672255
0.00672523
0.00180514
0.00439051
0.00296207
0.0011934
0.00997157
0.00672031
0.000163105
0.00240297
0.000269258
0.00338567
0.00100398
0.000407732
0.000267047
0.00304557
0.00478274
0.000340293
0.00210716
0.00561662
0.00044853
0.0126155
0.00673197
0.00672136
0.00381933
0.00128689
0.00672092
0.00337522
0.000187659
0.00118013
0.00392608
0.00672046
0.00749102
0.0220189
0.00607163
0.00672799
0.00672278
0.00673123
0.000280268
0.00119816
5.30652e-05
0.00146937
0.0067217
0.00468791
0.0011635
0.00672113
0.00137052
0.00137217
0.0065462
0.00672081
0.00672088
0.000316026
0.0059229
0.00231457
0.000102798
0.002347
0.000198928
0.0138378
0.00228735
0.00673147
0.00699206
0.00367026
0.000311242
0.00381097
0.00108997
4.62477e-05
0.000561149
0.00329253
0.00671908
0.00671888
7.07276e-05
0.00167089
6.79944e-05
0.00672567
0.0109705
0.000369752
0.00672483
0.00672186
5.824e-05
0.0067226
0.00672006
0.000801327
0.0099458
0.0163193
0.00739659
0.00315529
0.000841444
0.000284881
0.00672014
0.00676216
0.00672368
7.36459e-05
0.00672407
0.00672517
0.000897726
0.00267933
0.000365098
0.00672175
0.00672186
0.00672332
0.00672275
0.000467359
0.00672386
0.00432612
0.000874916
0.000135225
3.29755e-05
0.00672418
0.000380559
0.0234552
0.0151536
0.00120229
0.00295458
0.00139957
0.00673142
0.00671802
0.00143819
0.000951898
0.0194399
0.00124503
0.00672195
0.00672407
0.0211054
0.000282855
0.00322098
0.00672242
0.00672939
0.000390522
0.00671993
0.00672712
0.00161768
0.00134927
0.00672396
0.00463104
2.8607e-05
0.00394991
0.00140783
0.00672145
0.00184735
0.000236582
0.00672396
0.00116929
0.0067214
0.00164388
2.77192e-05
0.00672626
4.06263e-05
0.000922008
0.0181289
0.00675049
0.00137885
0.0017145
0.000431341
0.000117494
0.00155397
5.79448e-05
0.0120625
0.00147581
0.00675995
0.000222201
0.00672164
0.00672523
0.00673047
0.006725
0.00058593
0.0067263
0.00672627
9.56712e-05
0.000601985
0.0068436
0.000341423
0.00124266
0.00732879
0.00217093
3.49038e-05
0.00673209
0.00122594
0.000296549
0.0146612
0.00167916
0.0108397
0.0067257
0.00228286
0.00672008
0.00248607
0.00429643
0.000591869
0.000177123
0.00380573
0.00230262
0.00672183
1.97148e-05
0.00229115
0.00555568
0.000285695
0.000988445
0.0144221
0.00672213
0.000460249
0.000149062
0.00124466
0.000156474
0.00672605
0.00671822
0.00672604
5.19406e-05
0.00672221
0.00671985
0.00672848
0.00672353
0.00672109
0.00672077
0.00214664
0.00672666
0.00672263
0.00146337
0.00077707
0.000343263
0.00672255
0.0175191
0.00299555
0.000190846
0.000224608
0.0145871
0.000783321
0.00213797
0.00149573
0.00102679
5.37092e-05
0.0123001
0.000399846
0.00672389
0.00672409
0.00139052
0.000239113
0.00347825
0.00822267
0.00344899
0.000389051
0.0187958
0.00339487
0.00221882
0.00464843
0.0112601
0.00098192
0.00672325
0.00672552
0.00214921
0.00671803
0.00672686
0.000274356
0.00262122
0.00672158
0.00388504
0.00155033
0.000200937
0.00318031
0.00672275
0.00101641
0.000484495
0.00171064
0.00672048
0.00831616
0.0018616
0.00542834
4.94143e-05
0.000987546
0.00339289
0.000861881
0.0294691
0.00403079
0.00640824
0.0011265
0.000634901
0.00672969
0.00360871
0.00672609
0.00229266
0.00672113
0.00672157
0.00259209
0.000130034
5.35363e-05
0.00672753
0.0037434
0.00672166
0.00442819
0.00156848
0.0067184
0.000411057
0.000532339
0.00288433
0.00672256
0.00672703
0.00671934
0.00209299
0.00962963
0.00137703
0.00676875
0.0067272
0.00016233
0.0155835
0.00672137
0.00671939
0.00672146
0.00676066
0.000258005
0.00380774
0.00676078
0.00672056
0.00105689
9.2261e-05
0.00672317
0.00672603
0.00082939
0.00314557
0.00185437
0.00172777
0.0144985
0.000501992
0.00672125
0.00106642
0.00106936
0.000550262
0.000510182
0.00104893
0.000659388
0.00672573
0.00345202
0.00149097
0.00131833
0.0050635
0.00459502
0.00672503
0.0027182
5.94555e-05
9.96496e-05
0.0174061
0.00230947
0.00671909
0.000530279
0.00302463
0.00302257
0.011537
0.00102998
0.00281893
0.00672305
4.31386e-05
0.000263249
0.00671897
0.00244967
0.000525181
0.0045017
0.00672192
0.00673009
0.00061961
0.00161759
0.00205791
0.000482601
0.00195756
0.00672306
0.0244932
0.00671963
5.72306e-05
0.00672193
0.00138937
0.000262197
0.00257114
0.00672122
0.00331483
0.0017701
0.000733715
0.00672785
0.00672223
4.46943e-05
0.000590362
0.00027912
0.0104928
0.000246246
0.00672426
0.000197745
0.00413977
0.00214873
0.00672303
0.00274008
0.00676293
0.00177793
0.00672424
0.0018018
0.00672296
0.00127261
0.0259015
0.000565649
0.000399688
0.00381964
0.00672225
0.000585091
0.000731571
0.00672264
0.00111606
0.00575816
0.0158375
0.00838787
0.00672238
0.00108024
0.00672449
0.0158369
0.00672276
0.0002206
0.00672324
0.00395625
0.00676255
0.00205359
0.00171249
0.00672573
0.00672228
0.00299624
0.00144012
0.000670855
0.00380297
0.00157383
0.00216784
0.000277598
0.00379227
0.000531621
0.00163442
0.0031113
0.00094324
0.00215889
0.00672592
0.00671946
0.000546697
0.00478301
0.000176583
0.00153036
0.000105233
0.00222471
0.00672112
0.00446046
0.002821
0.000325728
0.00672618
0.00164812
0.000673286
0.00161773
0.00672714
0.00119384
0.00672441
0.001299
5.58135e-05
0.000987097
0.00288839
0.000991875
0.00137027
0.000423231
0.000303952
0.00224702
0.00164003
0.00229483
0.00068429
0.003032
0.00197924
0.00417504
0.0035205
0.00127376
0.00543044
4.45945e-05
0.00264815
0.00279963
0.00017065
0.00672608
0.00116535
0.00239324
0.000766403
0.00412486
0.000172668
0.00194852
0.00671739
0.00131349
0.00759372
0.000148109
0.00469079
0.00227491
0.00671953
0.00486458
0.000241065
0.0067253
0.0067198
0.000708355
0.00313674
0.00178231
0.00489916
0.00672081
0.0221156
0.00356242
0.00673271
0.0011241
0.00617864
0.0067733
0.00672522
7.05163e-05
0.00210186
0.00672108
0.00674638
0.000887434
0.0015671
0.00103169
0.00671814
0.000325833
0.0014662
0.00482615
0.00152322
0.00672167
0.00672007
8.54443e-05
0.000425917
0.000735662
0.000973197
0.000414215
0.000621646
0.000432467
0.000400121
0.0011481
0.0116296
0.00385856
0.00295356
0.00671869
0.0067248
0.000280054
0.00672023
0.00413642
0.007151
0.00212297
0.00672103
0.00108017
0.000313458
0.00673647
7.20561e-05
0.000228367
0.000185276
0.00137807
0.00946572
0.000659977
0.000653117
0.0202581
0.000617351
0.00221247
0.00080192
0.00563209
0.0156218
0.00198449
0.000387252
0.00672846
0.000774012
0.00672104
0.00867478
0.0143744
0.00672398
0.00288235
0.000279002
0.000760304
0.000693111
0.000377082
0.00673186
0.00904117
0.00311172
0.00530178
0.00570404
0.00672401
0.00387557
0.00671965
0.00102745
0.00200249
0.000684177
0.000479713
0.00672202
0.00672101
0.00111883
0.00244577
0.00671992
0.000702951
0.0067254
0.00672123
0.00308987
0.000427212
0.00672102
0.0116733
0.00259373
0.00672573
0.000904002
0.000374347
0.00672829
0.00672812
0.0004175
0.000165858
0.00438548
0.00107648
0.000447153
0.000546719
0.00947294
0.00672825
0.000887173
0.0125769
0.00673584
0.00672117
0.00361442
0.00118883
0.000598043
0.000330946
0.00178437
0.00910772
0.000687908
0.000351074
0.00251514
0.00671925
0.00289093
0.000144931
0.00672259
0.00672572
0.00609107
0.00673056
0.00675675
0.00460371
0.00176597
0.00672381
0.000367224
0.00221561
0.00212888
0.00672573
0.00134377
0.000699216
0.00025646
0.000800129
0.00676001
0.000451868
0.00673492
0.00488497
0.00379236
0.00672586
0.000250696
0.000357135
0.00364032
0.00291771
0.0067238
0.00671824
0.000327202
0.00672288
0.000153023
0.00209038
0.00672201
0.0129536
0.00693709
0.00672151
0.0110639
0.00030887
0.000587721
0.00672553
0.00673388
0.00155468
0.000457653
0.00671966
0.0067318
0.0067301
0.00104131
0.0067255
0.000897413
0.00672132
0.00672131
0.00278128
0.0233726
0.00609674
0.00675252
0.00276672
0.000112979
5.24694e-05
0.000700002
0.0207665
0.00922515
0.00485584
0.00672241
0.00212803
0.00115182
0.0199356
0.00672109
0.00672606
0.000164404
0.000372962
0.00672415
0.00672736
6.81901e-05
0.00672605
0.00672137
0.000246458
0.00064952
0.00686199
0.00671928
0.0026922
0.000182268
0.00111192
0.00101728
0.000583175
0.00672327
0.00680141
6.43227e-05
0.000729235
0.00672174
0.000961886
0.00592068
0.00673093
0.00673565
0.00673376
0.000169933
0.00672206
0.00672109
0.00671579
0.00672281
0.000337322
0.0065676
0.00193548
0.00190691
0.0115359
0.00886427
0.00672512
0.00352553
0.00672435
0.00666236
0.00672194
0.00672257
0.00672209
0.00672104
0.00672049
0.000757478
0.00603848
0.000323259
0.00188444
0.00168827
0.00672052
0.00108891
0.000499018
0.00201847
0.00672731
0.000292546
0.000480479
0.000350664
0.00105694
0.00675029
0.00256921
0.00151825
0.00672733
0.00374817
0.00069215
0.000929585
0.0011499
0.000719375
0.0067215
0.00672135
0.000302372
0.00110131
0.00224648
0.0060413
0.0067212
0.00671978
0.000267822
0.000339414
0.000806391
0.000448495
0.00185753
0.000168183
0.000438615
0.000387265
0.00129459
0.00437761
0.00499838
0.00672002
0.00672147
0.00672182
0.00147525
0.000885757
0.0036012
0.00253024
0.00672098
0.00953672
0.00157153
0.00238264
0.000253799
0.00199931
0.000409019
0.0023984
0.00671978
0.00064022
0.00677611
1.9579e-05
0.00672382
0.000486393
0.00673065
0.000203404
0.00204078
0.00595052
0.00672244
0.000482858
0.00630892
0.00183711
0.000535457
0.00672285
0.00136537
0.0114345
0.00160912
0.0018473
0.000680145
0.00861757
0.000449558
0.00672169
0.000244133
0.000656975
0.0193796
0.006721
0.00671963
0.00192586
0.000385929
0.00342689
0.00202371
0.00201516
0.001939
0.0239812
0.0037986
0.00400953
0.00015409
0.0067219
0.000383995
0.000550033
0.026581
0.000618158
0.00502306
2.49333e-05
0.00672145
0.00671969
0.00672119
0.000287363
0.000636909
0.00404045
0.000558803
0.0067221
0.00672546
0.0067196
0.00467103
0.00672609
0.00671779
0.00585614
0.000611224
0.00163204
0.00437174
0.0200921
0.000483862
0.00104715
0.00315615
0.000149477
0.00178384
0.00174405
0.000918305
0.00412695
0.000277773
0.000664031
0.00674633
0.0025229
0.00314094
0.00197721
0.0016141
0.00778449
0.00672508
0.000775163
0.00672796
0.00672368
0.00236903
0.000497722
0.00165692
0.00142723
0.00672178
0.000265079
0.000710377
0.00117217
0.000537515
0.00672627
0.00671875
0.000404577
0.00143256
0.00672293
0.000953194
0.00672053
0.00672453
0.0078114
0.00636387
0.00590581
0.00376588
0.000461982
0.0010253
0.00334345
0.00150361
0.00173517
0.000457573
0.00319075
0.00164409
0.00240028
0.00672555
0.00405282
0.00531889
0.0216141
0.00672829
0.00643759
0.00669308
0.00567585
0.000568108
0.0191119
0.00327549
2.41055e-05
0.0067271
0.00671938
0.00672363
0.00151209
0.00156263
0.000941854
0.00672539
0.00290103
0.00374052
0.00672531
0.00672543
0.000866029
0.000267595
0.00632045
0.0034902
0.000155954
0.000433902
0.00672632
0.00465565
0.000432654
0.00610979
0.00677331
0.00330526
0.00065901
0.00568448
0.00134101
0.000648933
0.00253622
0.00642943
0.00070935
0.00672166
6.03658e-05
0.000531665
0.00158308
0.00872678
0.000160253
0.00671822
0.00673195
0.00271192
0.000429249
0.000689025
0.00241383
0.00126758
0.00677098
0.00957615
0.0030452
0.00480273
0.0186734
0.0308412
0.00111764
0.000443706
0.000681152
0.00584694
0.00665051
0.00206603
0.00144669
0.000704683
0.00187304
0.00672019
0.000158756
0.00672498
0.00671869
0.00672429
0.000107204
0.00435007
0.00671832
0.00585624
0.00672415
0.00403039
0.0067247
0.00121101
0.000134449
0.00215239
0.00672521
0.000247738
0.00191937
0.0067236
0.00672877
0.00666077
0.00672139
0.00671886
0.00145104
0.00067285
0.00672447
0.00105695
0.000147043
0.00519018
0.000542553
0.0156963
0.00171779
0.00673065
0.00672121
6.70448e-05
0.00672396
0.00672396
0.000978067
0.000770041
0.00246984
0.000339956
0.00672031
0.00671823
0.00672156
0.000124885
0.0068467
0.00605791
0.000409259
0.000136723
0.00197995
0.000508129
0.00672226
0.000287503
0.000802168
0.00230358
8.8105e-05
0.00087214
0.00974974
0.00672397
0.00672426
0.00928223
6.44569e-05
0.00103393
0.00112875
6.68552e-05
0.000588506
0.00016949
2.69107e-05
0.00130669
0.00207401
0.00355179
0.000584884
0.000365107
0.00223723
0.000244464
0.0079053
0.00672629
0.00216241
0.00672204
7.65988e-05
0.00671608
0.00172321
0.00132141
0.000922667
0.00115071
5.71627e-05
0.000314355
0.00671842
0.00198583
7.3903e-05
0.000570027
0.0067217
0.00229311
9.39332e-05
0.000516828
0.000375324
0.000688709
0.00126531
0.000148793
0.00672173
0.00672391
0.0126666
7.93637e-05
0.00164733
0.000278946
0.0134209
0.00216508
0.00215139
0.00672235
0.000502323
0.00672023
0.00672154
0.000172168
0.00219254
0.00687807
0.00550375
0.000481968
0.00671843
0.000606118
0.00150721
0.000146199
0.000215879
0.00233594
0.00671978
6.66681e-05
0.00038008
0.00672567
0.000579541
0.0024932
0.0139557
0.00617462
0.000614117
1.72581e-05
6.21242e-05
0.00672577
5.75506e-05
0.000232424
0.000618705
0.000645004
0.00671961
0.00760416
0.00673446
0.00201853
0.00180754
0.00167429
0.0067548
0.00673369
0.00292005
0.000476104
0.00607821
0.00671915
0.00452746
0.00370842
0.0067256
0.0026556
0.000408368
0.00154652
0.023036
0.00125342
0.00672135
0.00029073
0.00169363
0.00573855
0.00672609
4.22864e-05
0.00673443
0.00672246
0.00247508
0.000626661
0.0202295
0.00672526
0.00688063
0.00252194
0.00672485
0.00151595
0.00883816
0.00103208
0.000137588
0.00611177
0.00672607
0.00200657
0.00201705
0.00610245
0.00143024
0.00672168
0.00125097
0.00459526
0.00270753
0.00672147
0.00671829
0.00159724
0.00151331
0.00672983
2.74653e-05
0.00672237
0.00241053
0.000446022
0.00191976
6.02476e-05
0.0120091
0.000876067
0.000112649
0.00101824
4.99968e-05
0.000365195
0.00431561
0.00470905
0.00131417
0.00211992
7.38391e-05
0.00672173
0.000635013
0.00672129
0.00672154
0.0223151
0.00672458
0.00274617
0.00674539
0.00241649
0.00311897
0.00671797
0.00672481
0.0110943
0.0079681
0.000341411
0.00672121
0.000964193
0.00351621
0.00672513
0.00131734
0.000418666
0.00106429
0.00684635
0.00343927
0.00139434
0.00671927
0.00672219
0.0067202
0.00672374
0.00269021
0.00217201
0.000545345
0.00672186
0.0067249
0.00310312
0.00134283
0.00674769
0.000234865
0.00677239
0.00039236
0.000664754
0.0103759
0.00289062
0.000126263
0.000124094
0.00675375
0.00672259
0.000319809
0.000812053
0.0067213
0.000390379
0.00673384
0.00672136
0.00672687
0.000655146
6.51586e-05
0.000324847
4.64646e-05
0.00154055
0.000600413
0.00372673
0.0029586
0.00075072
0.00140752
0.00672339
0.00495494
0.00138932
0.00661737
0.000308012
0.00659661
0.00117485
0.00603755
0.00786308
0.0032107
0.011117
0.00429256
0.00675455
0.0006395
0.00309354
0.000822784
0.000275451
0.00467684
0.00919549
0.00159119
5.94628e-05
0.00217803
0.00183321
0.00158726
0.00216903
0.00672228
0.000194073
0.00361316
0.00268439
0.00174031
0.00796081
0.000142879
0.000104076
0.00672577
0.0113485
0.00285199
6.19155e-05
0.00338159
0.00152218
0.00672115
0.000208086
0.000571429
0.000779965
0.00500443
0.00898068
0.00675974
0.000358022
0.00672151
0.00107744
7.23945e-05
0.0021681
0.0021335
0.000354123
0.00671636
0.00260782
0.00235739
0.0130238
0.00138742
0.00672003
0.00672176
0.000104894
0.000243103
0.000275919
0.0111395
0.00184679
0.000402335
0.00676773
0.0106122
0.000620905
0.000519478
6.31406e-05
0.00116208
0.00525511
0.00416444
0.00316268
0.00880136
0.00344164
0.00250957
0.000386103
0.000650808
0.00403979
0.00260096
0.00039913
0.00671992
0.00942369
0.00672211
0.00672252
0.00672071
0.000898283
0.00672477
0.00951641
9.39024e-05
0.000314443
0.0052322
0.000298176
0.000146546
0.000617386
0.00359029
0.00275371
0.00146304
0.000301882
8.86093e-05
0.00486909
0.00677494
0.00672144
0.00819145
0.00672487
0.00396949
0.00204346
0.00222382
0.00221951
0.00672017
0.00613522
0.0067263
0.00672049
0.00302515
0.00280546
0.00201201
0.00107298
0.0047606
0.000340114
0.00215059
0.0124071
0.00475056
0.00805375
0.00672914
0.0106152
0.0240197
0.00805112
0.000653684
0.00288486
0.00672573
0.0108013
0.00359984
0.00195397
0.0067217
0.00167484
0.00808627
0.00671857
0.00672452
0.00594985
0.00672553
0.00232622
0.00536523
0.00437724
0.00671736
0.0104773
0.00667223
0.00672613
0.0231854
0.00672553
0.00742706
0.0103844
0.0013804
8.60272e-05
2.49598e-05
6.85575e-05
0.00707034
0.00182382
0.00296403
0.00673359
0.00672224
0.00909425
0.00655325
0.00141801
0.000413223
0.00719529
0.00654829
0.00531593
0.00414275
0.00383463
0.00674926
0.000850237
0.00150857
0.00543912
0.00918458
0.00672534
0.0056034
0.0176915
0.00587948
0.00672204
0.000476967
0.00672582
0.00679648
0.00671999
0.022725
0.000338499
0.00672001
0.00672216
0.0318162
0.00353709
0.000277521
0.00672167
0.00735815
0.00672142
0.000108234
0.00272041
0.00793874
0.00937163
0.000582345
0.00132235
0.000686594
0.00672131
0.000155785
0.00885592
0.00505983
0.0004828
0.00672581
0.000307599
0.00672749
0.00921721
0.0346705
6.70525e-05
0.00718043
0.00900341
0.000171939
0.00280436
0.000225508
0.00671869
0.00389715
0.00062317
0.00034581
0.00431669
0.000336997
0.000377453
0.000366314
0.00219901
0.00368891
0.00672378
0.00208855
0.000452854
0.00818178
0.0181698
0.000432548
0.00673432
0.00016815
0.00232078
0.000287613
0.0038823
0.00672107
0.000107473
0.000954939
0.0018534
0.00479762
0.000567728
0.00187212
0.00672542
0.0006947
0.000409464
0.000424075
0.00672141
0.00672121
0.000282909
0.000454738
0.00672609
0.00116555
0.000405439
0.000458
0.00678016
0.000159769
0.000332409
0.000330219
0.0126168
0.000676511
0.00542102
0.00672568
0.00681254
0.00672607
0.00312688
0.00672152
0.00034043
4.22509e-05
0.000625899
0.00210016
0.000528008
0.00672359
0.000567185
0.00284209
0.000327445
0.000327089
0.00456835
0.000613521
0.0043789
0.00671889
0.00163924
0.00672223
0.00012735
0.00674772
8.40108e-05
0.000480409
0.000337458
0.00485247
0.00738968
0.00687486
0.00672459
0.00672318
0.011206
0.00427261
0.00672587
0.00672319
0.0130691
0.000342045
0.000764615
0.000627834
0.00101159
0.00672136
0.000584911
0.00672387
0.000162511
0.00672609
0.000303911
0.00556342
0.00332603
0.00138731
0.00102802
0.00197415
0.000456399
0.00112254
0.000115217
0.000470028
0.000680316
0.000407842
0.000455878
0.00426595
0.00620984
0.000677435
0.000577643
0.00318017
0.00263647
0.000112771
0.00672305
0.000163674
0.000864691
0.000342253
3.16787e-05
0.000263114
0.000159955
0.000170494
0.000166
0.00672849
0.000704321
0.00672147
0.000207283
0.000308189
0.0126258
0.00672865
0.000352444
0.000495662
0.0139938
0.000993534
0.000612585
0.00672149
0.000395885
0.00672266
0.000629823
0.00148046
0.0143875
0.00673456
0.00053734
0.00672075
0.000343806
0.000800818
0.000553005
0.0017425
0.00672142
0.00233362
0.0001583
0.00672082
0.00520548
0.0076002
0.000449768
0.00346795
0.000423484
0.00428165
0.00447412
0.0037663
0.000217288
0.00587719
0.00275937
0.000593133
0.00445601
0.000183306
0.00501839
0.00916352
0.00027477
0.00047469
0.000362529
0.00155195
0.00672976
0.00421085
0.000160632
7.9838e-05
0.000464715
0.00614163
0.00672318
0.000945902
0.000460983
0.00805786
0.00675571
0.00116401
0.0067158
0.0117449
0.00672099
0.00672756
0.000182187
0.00671922
0.00188486
0.000376547
0.0023521
0.0018786
0.00526897
0.000388764
0.000720003
0.0211522
0.00672257
0.00224199
0.00671873
0.000477806
0.0067258
0.000380486
0.000859778
0.0133948
0.00515745
4.65657e-05
2.7055e-05
0.000230351
0.00043645
0.000122586
0.000439392
0.00672525
0.00672219
0.00764274
0.000127048
0.00672043
0.00672208
0.00671972
0.00137608
0.000220423
0.00672518
0.000303184
0.00047254
0.000489462
0.00010916
0.00672126
0.00672506
0.0207308
0.00206007
0.00676775
0.0224365
0.00832266
0.0067397
0.00672934
0.000565816
0.00672113
0.000176113
0.00672524
0.0219542
0.00672573
0.0216337
0.00298245
0.00225594
0.000627133
0.00320988
0.00254892
0.00674416
0.0037681
0.00672553
0.000735303
0.000336806
0.00455922
0.000388571
0.00672611
0.00672386
5.31482e-05
0.00537586
0.00672211
0.00672146
0.00672524
0.00298638
0.00674564
0.00672301
0.00155513
0.00672393
0.00473567
0.000161516
0.00674028
0.00672561
0.00672299
0.00241233
0.00705097
2.82689e-05
0.00284163
0.00252502
0.00370392
0.00672608
0.00094487
0.00672037
0.00671945
0.00113732
0.00672174
0.000646293
0.00336107
0.000249156
0.0039603
0.000479281
0.00367605
0.000506339
8.38033e-05
0.00374343
0.00609771
0.0170756
0.000388129
6.69077e-05
0.00444099
0.00581873
0.000169934
0.000589688
0.00489945
0.00671886
0.00237433
0.000457465
0.00672157
0.000324195
0.00672167
0.000456279
0.000929894
0.000255887
0.000949331
0.00440521
0.00238174
0.00687711
0.00684564
0.00673101
0.00461232
0.00134375
0.00277034
0.000120145
0.00172148
0.00218473
0.00387099
0.0110238
0.00672864
0.00672456
0.00037672
0.00672576
0.000279892
0.0017744
0.000358887
0.00383792
0.00137042
0.00334222
0.000377718
0.00233825
0.000111653
0.00163925
0.00213605
0.00674562
0.00050701
0.00994769
0.000464705
0.00016174
0.0198383
0.0198672
0.000294876
0.00672184
0.0113508
0.00328251
0.00177502
0.00149678
0.00065406
0.00332146
0.000334632
0.000424154
0.000967988
0.0067219
0.000932731
0.00672386
0.000704667
0.00672329
0.0067235
0.00309703
0.000692668
0.00185839
0.00270257
0.00189472
6.23779e-05
0.00672757
0.0083318
0.0010693
0.00431334
0.00184208
0.00189646
0.00660324
0.00565743
0.017096
0.0067197
0.012545
0.000547477
0.000909337
0.00125088
0.00281747
0.00343045
0.00406334
9.24362e-05
0.0013762
0.00671969
0.00355892
0.00320082
0.00193236
0.00035054
0.00677555
0.000355779
0.000480933
8.62984e-05
0.00672463
0.00289421
0.0033276
0.000956086
0.00118495
0.0014819
0.00152771
0.0102771
0.00427343
0.00192099
0.0327541
0.000897712
0.00176229
0.000288344
0.00436246
0.00672572
0.0135129
0.000651735
0.0011702
0.00301385
0.0129803
0.000495262
0.00380925
0.00444396
0.00225238
0.00671884
0.00672348
0.0172251
0.00277399
0.000683351
0.00293833
0.0023787
0.000667706
0.000500169
0.00672673
0.00672184
0.00084487
0.00672477
0.00672147
0.00449428
0.00364134
0.00070556
0.00672727
0.00207021
0.00529866
0.00014838
0.00672212
0.00833335
0.00673205
0.0026806
0.00671904
0.00672518
0.00153385
0.00299608
0.000420582
0.00111952
0.00672634
0.000636498
0.00275979
0.00672557
0.00285282
0.000285725
0.00242915
0.0067214
0.00672132
0.00672132
0.00152649
0.00672165
0.006722
0.000722584
0.00672142
0.00335823
0.00212144
0.0250232
0.000683584
0.00289464
0.0022696
0.00448023
0.000722802
0.000654572
0.000949133
0.00155943
0.00160915
0.00898066
0.00266531
2.06274e-05
0.00287918
0.00671853
0.000643765
0.00672082
0.000492999