/*--------------------------------*- C++ -*----------------------------------*\
| =========                 |                                                 |
| \\      /  F ield         | OpenFOAM: The Open Source CFD Toolbox           |
|  \\    /   O peration     | Version:  v2012                                 |
|   \\  /    A nd           | Website:  www.openfoam.com                      |
|    \\/     M anipulation  |                                                 |
\*---------------------------------------------------------------------------*/
FoamFile
{
    version     2.0;
    format      ascii;
    class       volScalarField;
    location    "950";
    object      omega_0;
}
// * * * * * * * * * * * * * * * * * * * * * * * * * * * * * * * * * * * * * //

dimensions      [0 0 -1 0 0 0 0];


internalField   nonuniform List<scalar> 
10042
(
0.0219212
0.0220488
0.0219681
0.0232382
11.8277
0.0220691
4.62071
3.18341
0.0217928
0.0220088
4.40942
0.023174
0.0215343
0.0214962
0.0234849
0.0220314
0.0220234
0.0222585
0.0219235
0.130913
0.021905
0.188356
0.0215889
0.0216213
0.0220557
0.0282992
0.0221317
0.0226628
0.0217988
0.0223541
0.0220204
5.27614
0.0220196
0.0222646
0.02577
0.0216336
0.0275713
0.0321945
0.0216354
0.029167
0.143427
0.0231075
4.39773
0.0219906
12.0095
0.0528471
0.0223029
0.0866805
0.0267923
0.0468008
0.0221669
0.0226211
0.0231616
0.0233711
0.0276171
0.022062
0.0218007
0.0222721
0.0222555
0.0229696
0.0220444
0.0220046
0.025926
0.0219386
0.0222362
0.0222748
0.0220388
0.0728855
3.83766
0.0218782
0.0233179
0.157727
0.0219946
0.0320021
0.0220178
0.0216186
11.4488
0.0219331
0.0298525
4.52725
0.0262289
12.3089
0.0219851
0.0227524
0.0220442
0.0222135
0.0219
0.145379
0.0219437
0.0219024
0.022211
12.2981
0.0227353
0.0225052
0.0223092
0.0218675
0.0219403
0.0218534
0.0286751
0.0218109
0.0222908
0.0986303
5.18797
0.0222021
0.0225512
0.049635
0.0219227
0.0219343
0.0219131
0.0214664
0.0217165
0.0218309
0.0254115
3.59231
0.0222257
0.0218464
0.021948
0.021929
0.0218653
6.93929
0.0219379
3.27036
0.0220197
0.0219851
0.0970337
0.021988
2.62887
0.0273683
0.0478313
0.0218935
0.03081
0.0220066
3.99375
0.178063
0.0218102
0.0554565
4.75173
0.0222192
0.0907022
0.167837
0.022661
0.0219449
0.0224388
0.132351
0.0220901
0.021831
0.0546993
0.021577
0.0218666
0.0250507
0.0218227
0.0222555
3.58973
5.60022
0.0221853
0.0215292
0.0225953
0.0219969
0.0561137
11.3494
5.15578
0.111067
0.0219891
0.0218239
0.0220525
0.0219906
0.0586557
27.3657
5.49151
6.56352
0.0228682
0.0218468
12.0994
0.167249
0.0377252
3.54313
4.5588
0.0220065
0.0844718
0.0308875
0.0227388
5.92791
0.0220899
0.0272769
0.022995
8.37314
0.214638
0.0220741
4.24132
0.0237966
2.93955
0.0224361
3.46591
6.4916
0.087446
2.10511
0.0252718
0.0219338
0.0215336
0.0233181
0.0366846
0.0221095
0.0218241
0.166364
0.0220791
0.0216875
4.54568
0.0221563
0.0222603
0.0222427
0.946336
0.0218771
0.0545233
0.305216
0.022564
0.220721
0.0219688
0.0219906
0.0603162
0.0217738
0.025499
0.022712
0.362482
0.0331323
0.0252518
0.0290935
0.300126
0.0218384
0.14157
0.0236185
0.0217924
0.133833
0.0218551
0.0235794
0.022007
0.0252155
0.0217129
0.0214825
0.0233269
0.0268296
0.0219958
0.0220257
0.02201
0.0254803
0.0218473
0.022029
0.0216233
0.0226143
0.0230874
0.0222689
0.0215346
0.0218706
0.0241348
0.476865
0.111689
5.48334
0.0383204
0.0370254
0.0236601
0.0586293
4.34306
0.0231081
0.0219257
0.0215006
0.0232525
0.0217119
0.234884
0.0235631
0.0218954
0.0222503
0.0384717
0.0231518
0.280987
0.037628
0.171374
0.0238564
0.0268056
0.0217152
0.0251767
0.0221124
0.0320624
0.0219135
0.0283404
4.19651
0.0216881
0.0218929
4.56964
0.0539274
0.0220391
0.0220433
0.0238708
3.44006
0.0496667
0.137942
0.0221819
0.0215296
0.0218388
0.0218037
0.263612
0.0218896
0.0220385
0.0218445
0.0219702
0.0333044
0.023684
0.0725181
8.98309
0.0227791
7.90763
0.0218512
0.024983
0.0221232
6.44379
0.0964912
1.38841
5.63392
0.0216041
0.0236103
0.0218829
0.0238544
0.0291356
0.0222416
0.0321746
0.0217101
0.0214979
0.0220107
0.0790666
0.0222839
0.0235068
0.0219728
0.0235315
3.59764
0.0218511
0.0221757
0.0219881
0.0219126
0.0408533
0.0878651
0.0368951
2.51232
0.0335917
0.0264798
0.0219875
0.0214791
0.0223055
0.022268
0.548449
0.0219125
0.0222744
0.103645
0.0218263
0.0245019
0.0228663
0.116836
0.0220049
0.0250786
0.0451519
0.031902
0.0232662
0.0219395
5.78206
0.0554652
0.0224358
0.0404601
0.0219514
0.021859
0.0219495
0.0244401
0.788653
0.0249208
0.0222492
0.0227332
0.0222923
0.0222709
0.129148
0.0219375
0.0216327
5.04666
0.0218422
5.73671
0.484783
0.0325939
3.04936
6.51626
0.0273975
0.137202
0.0221582
0.0477173
0.0222913
0.022215
2.29062
0.0220642
0.0240869
12.6477
0.0220269
0.0219064
0.0500536
2.25954
0.0221969
0.021571
5.20805
0.0976065
0.0218429
0.07342
16.8145
0.0217727
0.0222641
0.0216467
0.0218761
0.0214794
0.0216805
7.22096
4.7301
0.0222502
9.59936
0.0214976
0.0218904
0.5332
0.0221596
5.73903
0.053264
0.0227651
0.0216084
0.0215601
0.132366
0.0229953
0.0274428
0.0223439
4.00642
0.0224504
3.21093
0.0232893
0.0219376
0.0218459
0.614772
0.0219529
0.0256718
0.0218725
0.0219718
8.39814
0.0253174
0.0219381
0.0217556
5.26397
0.0218848
0.025587
0.0232315
0.0217162
9.70719
3.12715
0.0218864
0.0221669
0.0250284
0.0215342
0.0220093
0.0219735
5.05335
0.0219962
0.021746
0.0282472
3.42517
0.0548229
0.0222685
0.0304545
18.9001
0.0350725
0.0219406
0.0219448
0.179056
0.0223572
0.0219433
0.0291424
0.0218408
0.0216814
0.0228612
0.0215688
0.0375007
0.0219197
0.021957
5.74114
0.0217662
0.0227976
0.0220662
0.022283
0.0319473
0.0218905
0.0218789
1.36428
0.022464
5.00537
0.023072
0.022282
0.0222767
0.119116
0.0219125
0.0219427
0.0220125
0.0225351
0.0275113
4.96977
0.0218886
0.0374367
4.63483
0.0349749
0.0222611
0.0219627
0.022218
0.0222029
0.0218645
2.03106
4.58888
0.0220741
0.0273899
0.0286074
0.0281131
0.0220266
0.0216609
0.94584
0.130297
3.34695
0.0216014
0.0222636
0.0221016
0.0218472
4.54891
0.0336365
0.0225434
0.0218576
0.0218088
0.0219958
1.43144
0.0253227
0.0221393
6.24228
1.3817
0.414775
0.0504238
0.0220165
0.0218153
0.0537566
0.0501449
2.93072
27.0404
0.0246049
0.0259918
0.0222104
0.0234608
0.0221588
0.0221996
4.68612
0.0216165
0.0218555
0.0507953
0.0222101
0.936688
0.0228846
0.12194
0.0287814
0.0222447
0.0233918
0.0257811
0.0388754
0.0504073
0.0807473
0.0222824
0.0467274
0.0228704
0.0218649
0.0221184
0.0223289
0.0220347
0.0248536
0.054925
0.0408219
0.0221428
0.0225237
0.0220084
0.0219257
0.126266
0.0219305
0.023197
0.189933
0.0215704
0.0502236
0.070351
0.0220407
8.23786
0.0384505
0.0222096
0.235147
0.0220624
0.0222686
0.0219684
0.0219828
0.0222924
0.0238491
0.0220032
0.987276
0.0226628
0.0219675
0.0222007
0.0323927
0.0316007
0.0219803
0.0244703
0.021815
0.0314572
0.0219417
0.0289938
0.0216391
0.0229573
0.0215552
0.0219362
8.61985
0.0216527
0.112585
0.0219693
0.0229285
0.0217474
0.0316849
0.0220745
0.039477
0.0220403
0.202999
0.0222621
4.61759
0.0215732
0.0233812
0.0222715
0.0219851
0.0219626
0.0238009
0.0220344
0.124223
32.9125
0.870695
0.0239396
0.0359644
0.0218164
0.0378111
0.0527332
0.022012
0.0287891
0.0849725
3.08796
0.0705832
5.29725
0.0264273
0.0220985
0.0222313
0.0249146
0.0238582
0.0360957
0.021608
0.0233054
0.100715
0.0222649
0.0219263
0.0248263
5.64185
0.023232
0.029304
0.05359
0.0222514
4.33224
0.0216244
0.0218323
0.0223762
0.0218428
5.53723
0.0598473
4.84815
0.0220564
2.9694
12.6307
0.448312
0.035678
0.0592927
0.140274
0.039551
0.0219735
0.0218757
0.0299269
7.09967
0.021809
0.0289013
5.50033
0.0219145
0.0219128
0.02187
0.022816
0.0219549
0.0220669
0.117471
4.83969
0.0220299
0.0220005
3.94024
2.9842
0.0218203
0.0219442
0.0221549
0.0218801
0.579393
0.0597214
0.275405
0.0225516
0.0219073
0.0218034
0.022769
0.0220528
0.0313393
0.0225716
8.5387
0.0220078
0.0220747
0.0397327
0.0218052
0.0330918
0.0648794
0.0231872
30.4244
4.06402
0.0221044
0.0218599
7.78223
5.31939
0.0348222
0.0220416
3.78752
0.184589
0.0256077
0.021958
0.0219947
0.0219244
0.318915
0.0238923
0.0927131
0.0222686
3.49936
0.735811
0.0219653
0.0219919
0.116917
0.0221496
0.0217447
0.0248261
4.55299
2.97909
8.80928
0.0226212
0.0523314
0.0379931
0.0216475
0.0218743
0.0221935
0.302689
0.0222059
0.0219629
0.0521548
0.0220171
0.0597481
0.0221113
0.0221063
0.0216956
0.0221511
0.163892
0.0221989
0.0218661
0.0379297
0.054706
0.389172
0.0222098
0.079591
2.67203
4.96724
0.0228673
5.18004
10.129
0.0219158
0.0215458
0.0225947
0.0232386
2.37251
0.0232956
0.0221223
0.0222061
3.07254
0.0366649
0.0225634
0.022142
0.021941
0.0408105
0.0217589
0.0218381
0.0305366
0.0227492
0.0222042
0.0217868
1.42194
0.021891
0.0226777
0.022029
0.0223228
0.134657
0.0222027
0.0229428
0.0220716
0.0248431
0.826745
0.0222919
0.360426
0.025477
2.57523
0.0216696
0.0233155
0.0302726
0.0794498
0.0502471
0.0225631
6.36287
5.06388
0.0224761
0.0218128
0.367755
0.0220791
0.0222511
0.0217327
0.0222418
0.0463324
0.0222928
0.0222931
0.0640885
0.0278736
0.0230309
0.0310128
0.0227145
9.32913
0.0232836
0.860272
0.0218717
0.0508203
0.036204
4.5494
0.0240548
4.18929
0.0222695
0.0257934
0.0220419
0.0220515
0.0219169
0.115721
0.0399264
0.0455237
6.94573
0.0221191
10.7789
0.0261424
0.0217758
0.0312218
0.0290218
3.81617
0.0219868
0.0277722
0.0505024
0.0232526
0.0413756
0.0222838
0.0215773
0.0222833
0.304404
0.0221332
0.022004
0.0217404
0.0217315
0.0219403
0.0219909
0.0222853
0.0218565
0.0221506
0.0224521
0.0249792
0.0305149
0.0219914
2.82532
0.0219556
2.31006
0.0367267
2.85051
0.0343319
0.0255626
5.29491
0.031927
0.331147
5.94995
0.0403938
0.0221991
0.021851
0.0228196
0.137673
0.0218715
5.60084
0.0218664
17.0436
4.38353
0.0518242
0.0228721
6.88992
3.34863
0.0231646
0.0219815
0.0222639
0.0244463
0.0215675
0.0216742
0.0550446
2.99676
0.022078
0.0218648
0.0223514
0.622671
0.0557167
0.0221555
0.024896
0.0779766
0.0224038
0.0220274
4.98319
0.0222483
0.0218866
11.2679
0.0238311
0.021955
5.60234
3.01673
10.9565
0.0219232
0.0230634
0.370156
0.021739
0.0218657
0.0222844
0.0295646
0.0220436
0.0221114
0.0239081
0.0458266
0.179403
0.021787
0.0219415
0.0220793
0.0218311
0.0224904
0.0216015
0.120874
0.0281893
0.0219548
0.0219877
0.0217708
0.0219759
0.0224238
4.93788
0.0280599
0.0215649
0.0219362
0.0406747
4.0192
0.0220427
0.0219826
0.0220291
0.021566
4.92476
0.0453942
0.0217443
0.0220666
0.0283893
0.10306
0.0221693
0.0222828
0.0246837
0.0220335
0.0257596
0.0223255
5.00882
0.0340034
0.0220693
0.0254822
11.7378
0.0279269
0.136552
0.0248115
0.36506
0.0222709
0.0223224
0.0247884
0.057131
0.0219075
0.0219092
0.0222436
0.0228527
0.10475
0.117081
4.09109
0.0227033
0.0219921
0.0278813
0.0219649
0.0219621
5.52401
0.0235334
0.0219846
0.0219859
0.292471
0.743426
0.0219906
0.0220578
0.0781318
0.0218372
0.0221039
0.021938
0.0761032
0.0230131
0.0257708
11.4517
0.0222302
0.022168
2.58833
0.0219097
0.163248
0.0218959
0.0233079
0.0409624
0.0219904
0.0220889
0.022436
0.0234254
6.63935
0.0219298
0.0221349
0.214597
0.0254547
0.209586
5.24987
0.0454743
0.022212
0.390889
0.0219204
8.56053
0.0221674
0.0220028
0.0217175
5.71491
0.0222121
0.022307
0.02216
0.0317294
2.34011
0.0276924
0.0467987
0.021907
0.0221349
0.0352971
0.0280877
0.0218407
0.0249555
0.0218948
4.05973
4.35833
0.0221381
0.0229002
0.0222227
4.15529
0.0221562
19.7067
0.0219796
0.0218578
0.0217375
0.0224347
0.0237308
0.0222715
0.0219933
0.0220039
2.96103
0.0906069
0.021864
0.024375
0.0241053
0.0401393
0.0218888
0.0257391
0.0228438
0.0219684
0.0231834
0.0302886
0.0222802
0.0219159
0.0264786
0.0217671
0.146554
0.0230443
0.137453
0.0221043
0.0220379
0.0219385
0.0636595
0.0386973
0.0217732
0.0244125
0.0619721
0.0223994
0.0217763
0.025134
0.0222247
8.38639
0.217673
0.0246894
5.97223
0.0230763
0.0323567
0.0798843
0.036897
0.0327854
5.06475
0.0298471
0.11351
0.0220446
0.0229392
0.0218469
0.0219517
0.0259593
0.0217641
0.196029
0.0219762
0.0219965
0.0722307
0.0219491
0.0479241
0.0262293
0.0251143
0.0218684
0.0419163
2.21573
0.0214247
0.0300661
6.89364
0.0419084
0.0218045
0.0298507
0.0219939
0.0217822
4.47614
0.0218377
0.0217876
0.0445904
0.0219474
0.0266727
0.0217694
0.022003
3.77706
0.0218603
0.0216713
0.024442
0.0219215
0.0215577
0.0222519
5.93689
0.0221368
0.022084
0.0215914
0.07164
0.0223908
0.0243012
0.0219334
0.0339948
0.02261
0.0219101
0.0228184
0.0220998
0.0217839
0.113999
0.0403423
0.028018
0.023424
0.0434531
0.0636656
0.0273357
0.0280048
0.0228684
5.77272
0.0219422
0.0219771
0.0219249
0.0222384
0.0349035
0.0218936
9.77139
3.94126
5.39264
0.0220835
0.0244681
0.0380668
0.0215452
0.0874724
0.0459085
0.756201
0.0568021
4.8047
0.0638436
0.167224
2.1521
0.0278033
0.0230723
0.0248376
0.0217795
3.35533
0.0225741
0.0289733
0.0218035
0.0248347
0.0220446
3.69722
4.00796
0.0222036
4.77566
0.59076
0.15027
0.042056
0.0600779
0.0216747
5.65275
0.0219618
7.50806
4.31248
0.0222042
0.021907
0.0220017
0.0232827
0.0249641
0.0333111
0.163195
0.0221245
0.0220393
0.0248777
0.0224175
0.0220356
0.025738
0.0218417
0.0220588
1.78176
0.0565383
0.0220413
6.02272
0.0230983
0.0222722
0.0234225
0.244834
0.0219448
0.0217355
0.0950459
0.17237
0.0218272
0.0249329
0.594844
0.0489733
3.9382
0.0217844
0.163921
4.03695
9.84757
0.022082
0.0219222
0.053711
0.0259952
0.0400727
0.0222972
6.5298
0.044667
0.163413
0.0220372
0.0219766
4.84529
0.570223
0.022149
0.0222723
6.94162
0.0219313
0.0216216
0.0219129
0.0234392
0.0221968
0.0294225
0.0221064
0.0238365
0.0216262
0.0311707
22.1877
0.056438
0.0325591
4.66599
0.0676362
0.0216519
0.0217794
0.0218699
0.0222837
0.113699
0.0295734
0.022273
0.0219734
0.0219758
0.0216086
0.031984
0.021619
0.0476386
0.024147
0.022123
4.48896
4.02482
0.0221014
6.51928
0.0334295
0.0321528
0.0222641
0.0216323
11.2668
0.0658168
0.0219246
0.0217326
0.0219387
0.0259516
0.0222624
0.141789
0.021526
0.0220591
0.0220139
2.30118
7.30935
0.0215429
0.0220071
0.144805
0.476962
0.0245076
3.97123
6.70468
0.0218827
0.0221417
0.0221273
0.0229668
2.32853
0.022038
0.0222844
0.173037
0.08144
0.0222121
0.0219469
0.0725844
0.0222837
0.0220741
0.0975205
0.0698669
5.88339
0.0219832
0.0670481
0.0405799
0.0492701
0.0230841
0.0271372
0.0219444
0.0219988
0.118907
0.0255508
0.0219994
0.0245996
4.23433
0.0215486
0.0218152
0.0215421
0.0732565
0.0219518
0.0220861
0.0214447
0.0219515
0.616834
9.13202
0.0222106
6.21801
3.99254
4.44286
0.0219432
0.0219504
0.0218358
0.0219026
0.022116
0.0221491
0.0216292
0.0220821
0.021785
0.024237
4.84446
0.0355171
1.68583
0.0292881
0.022031
0.0230977
0.031674
0.0221697
0.0218553
0.0392106
0.0314529
0.483491
0.0383563
0.0215232
9.8693
0.0226802
0.0215036
0.021867
0.315039
0.0396282
0.0227652
0.0254256
0.0220727
0.0220931
0.03201
0.037661
0.0285737
7.14124
0.0220827
0.0220299
0.5774
0.0366387
0.0249512
0.115273
0.0231657
0.0632506
0.265671
0.0601639
7.43726
0.0218349
0.0218483
0.0219424
0.022048
0.022095
0.0230819
0.0369574
0.0484238
17.9907
0.0220726
7.35737
6.4624
0.0249524
1.31541
0.0222073
0.0834644
8.89686
0.0219137
0.0816623
0.0215999
1.88755
0.0221975
0.182505
0.0218687
0.574683
0.0367878
4.24792
0.0218541
0.150354
0.0216956
0.0231796
0.225689
0.021845
7.29274
4.45869
2.75806
8.09964
0.0818079
5.19733
0.0380583
0.022018
0.0439639
0.0427212
4.33005
0.0220763
0.0220167
0.0226949
0.0462991
0.0219549
0.0222196
0.0222007
19.5821
2.46127
0.0219172
9.39705
0.0571659
0.0217331
0.0373674
0.0271412
2.44542
0.0291926
0.0217763
0.706718
0.0220721
0.0219399
0.0220893
0.11254
0.0554787
0.0218277
0.0264296
0.0221109
0.0222606
0.0217974
11.5632
0.0222857
0.0218173
4.7465
0.230167
0.0240235
0.0218243
2.1357
0.0281361
0.0232004
0.0219412
0.05099
0.0231856
0.0270856
0.0245903
6.7638
0.0423881
0.0538573
0.0215134
0.0323521
0.0434423
0.0276847
0.0223678
8.21089
0.0222527
0.153816
0.0218968
0.0221933
0.0319522
0.170686
0.0234826
0.0249548
0.0221131
0.0367172
0.0576589
0.0779677
0.0277265
0.0222924
0.0219651
0.0280528
0.0749888
0.0219438
0.0398468
0.0220153
0.0219471
3.78545
0.0219011
9.0372
0.0219451
0.0270626
0.0627281
0.0219308
0.0278312
0.0907934
0.0909227
0.0219392
0.0715865
0.0226811
0.0222634
0.0219048
4.74582
3.23055
0.021916
0.021936
0.0216749
0.0218141
0.0809247
3.80163
0.0219252
1.40505
0.0217369
0.0218023
0.0218988
2.58166
0.022783
0.023766
0.0219541
0.0219653
0.0219233
0.0222568
0.0222595
0.0306225
12.3554
0.0216589
0.0219155
0.0417428
0.0629658
0.0218018
7.14796
0.0491997
0.0217925
0.021555
0.02243
0.10062
0.0217478
0.0692366
0.0281444
0.0240499
0.02179
0.0420116
0.02153
0.135375
0.0275809
0.0223631
5.13573
1.59045
0.0214317
0.0218675
5.60595
0.105969
0.0671133
0.0248337
0.0691372
0.0215853
5.63275
0.0584955
0.0218807
1.89124
2.91056
0.0231554
0.0430548
0.0486786
0.0217695
9.62228
0.0221729
0.0265291
0.0291156
0.0222388
0.022049
0.0515052
0.0218768
0.021891
0.0218753
5.50229
0.0218433
0.0219385
0.021759
0.0218954
0.0218536
0.0222301
0.0477984
0.0456441
0.0237816
0.0222498
1.35605
0.0222489
0.0218382
0.0219067
0.0216652
0.0220846
0.0219717
0.0280446
0.0788013
0.022224
0.029455
0.0495546
0.0217543
0.0274365
3.16178
0.0226805
0.0215331
0.0220792
0.0836514
0.0222026
0.022203
0.0241843
0.0247278
6.86745
13.2778
0.0218282
0.0218654
0.021947
0.0685494
0.0232854
0.0218003
0.0282852
0.0726145
0.0221575
0.0268342
0.0221329
0.0972712
0.176621
0.0230235
0.123835
0.0255867
3.63799
0.022205
0.0218999
5.87839
0.116429
0.0242707
0.168265
0.0925299
31.0297
0.0455083
0.699245
0.0255124
0.0252427
4.76176
0.0265664
0.844196
0.0300077
0.114743
3.84763
0.0222933
0.0221262
0.0219802
0.347126
0.0214528
6.47412
0.0345177
23.7442
0.0229506
0.118832
0.180031
0.0219473
0.0221855
0.0797197
0.0292831
0.0220883
0.0257941
0.0769046
0.0675369
0.0701552
0.0955912
12.5374
0.138336
0.0221149
0.0222014
4.85876
0.0761783
0.0226338
0.0374282
3.2611
0.0222965
0.0240917
0.021946
0.0285914
0.0220388
0.0221049
0.0390198
0.0221006
0.0227884
4.34668
31.5749
0.0217324
0.0256762
0.0265338
0.178897
0.0423792
0.022435
0.0219283
0.103675
17.9943
0.0219381
0.0252343
0.0220785
5.19976
0.0218337
0.0294148
0.872692
0.576802
0.0222721
0.138462
0.0821565
0.0518946
0.025559
0.0220206
7.52812
0.0218191
0.0262974
0.0222264
0.0284583
0.0216266
0.021658
0.0221252
0.0606674
0.0218228
0.021978
0.0217921
0.0221745
0.0218743
0.0220332
0.0796248
6.9446
2.52921
0.0253395
0.0220567
0.0321433
0.0237124
8.35531
0.022285
0.184103
0.0216238
0.021997
0.0225433
0.0336058
3.60282
0.0219622
3.95742
0.0223146
0.0215274
0.0230799
7.59336
0.0233313
0.0451783
7.97432
0.0222848
0.0221769
6.14845
0.0218958
9.33173
0.0220883
0.03067
6.22245
0.0228608
0.0220958
0.0218598
10.551
0.0264035
0.0218776
0.829776
0.0219635
0.022839
0.0740138
23.551
0.190211
4.05574
5.23913
0.0734006
0.0234435
0.184654
0.209002
0.0218991
0.0218601
0.0228266
0.0271611
0.0791846
0.0219928
0.0253207
0.0219079
0.0219642
2.45144
0.0222251
10.0409
0.0215752
0.0322324
0.0568649
0.021829
0.0215212
3.91456
6.41958
0.0607961
0.0220797
0.0247983
0.0497894
0.0217708
0.0330875
0.0888305
0.0368818
0.0234155
7.32624
25.6267
0.0215452
0.022133
0.0216527
0.0221944
0.0230578
0.02773
20.3701
0.0221201
0.0219646
0.0425005
21.7936
0.0215844
0.88848
0.0216264
0.117963
0.0523124
6.65045
0.0619213
0.0533605
0.0562789
0.0215351
0.0215127
0.214881
0.0253388
0.0220864
0.724946
0.0218323
0.0220835
0.0216258
0.0455339
0.210676
0.525453
0.147311
0.0278654
0.0290872
0.0221764
12.8615
0.364956
0.0230422
0.0219775
0.0217654
0.0828254
9.18735
0.0358075
10.1515
0.022918
0.0217746
4.26753
0.0219372
4.71123
10.1819
0.0217033
0.0292011
3.19226
0.0241297
0.0358116
0.0218241
4.65544
0.0262494
0.162094
4.95678
7.51175
0.0276178
0.0285811
0.022135
0.140243
12.9333
0.0232578
0.0239897
5.34345
0.0492148
0.0671558
0.0222636
4.88094
4.78318
0.097895
0.0219516
0.0264062
0.0218985
1.63877
0.0654675
0.0321198
9.0141
3.67203
0.0215387
0.135124
0.0220998
3.1469
0.0932376
0.0269904
0.0254258
0.782758
0.0214068
0.0566861
5.55272
3.78912
0.0230107
0.0220308
0.0217935
0.087612
1.10117
0.153591
4.33213
0.0858079
0.0406391
0.0217885
3.74765
0.0698468
0.0282643
0.190307
5.37688
5.28837
4.86673
10.3137
3.74797
5.95061
0.0220536
0.0289216
0.0319293
0.0220893
12.7985
0.680971
0.0220192
7.13354
0.0221286
0.0219932
0.0217754
0.0299124
0.0218728
3.6357
0.061824
0.545835
0.0218008
0.506733
0.0478283
0.391412
4.70305
0.0229573
0.0273159
0.0375807
0.0672496
0.0217765
0.0216566
0.0218941
3.73338
0.0217832
0.0217735
1.33158
0.0235077
21.2501
0.0220452
7.64177
0.0219549
0.0220597
0.0219472
0.021973
0.0271507
0.0243495
9.72874
0.0311205
0.0358246
5.29885
0.0218188
7.26003
0.0217977
5.45239
3.81561
6.14826
0.0592485
0.0219654
0.0222726
5.86438
0.0222166
0.0263426
0.0221105
0.0292906
6.67151
0.0218857
0.0218532
0.0218826
0.0222651
9.05535
10.4631
0.0218261
0.0214455
3.62595
9.98411
0.0218678
3.89354
0.0222642
8.68429
4.99896
0.0612082
0.350954
1.05376
0.0859622
4.07043
0.0716009
0.0219764
0.0215505
0.0217885
6.95834
9.91658
0.0229858
0.0283251
4.16103
0.0218388
4.39606
0.0219143
0.0220864
0.0216365
3.90964
0.0659647
0.0217553
4.03687
0.0222527
6.81582
4.27622
0.0217401
0.0221103
0.104675
0.0219581
0.021938
0.021833
3.09611
0.0318651
0.0220308
0.0221295
2.49301
0.0219424
0.040601
0.0219882
6.5783
0.0221008
0.102332
0.0236741
4.7978
6.89096
0.0307119
0.0752545
0.0508023
0.022074
0.0739605
5.42409
0.0217605
0.0732846
0.0217684
0.486506
0.0219017
5.85933
2.38407
0.10644
3.92878
4.27554
0.0412678
0.0227888
1.18222
0.0219317
12.9472
0.025322
0.835498
0.0218642
0.0326143
0.0463313
0.0304398
0.0221014
0.0219448
0.0221955
5.41172
0.0657888
3.83703
2.69433
0.0276421
0.0216254
0.0542001
11.1896
0.0335836
0.0217933
0.0220792
3.48463
2.74203
9.52428
4.70236
0.0350808
0.0222606
0.0217804
0.0474615
0.0491667
0.632472
0.022001
0.0220688
35.2244
0.0607368
0.0222854
0.0556388
0.675614
0.0929407
0.0216527
0.04832
0.504084
0.912051
5.76454
0.238506
0.0218787
0.0222691
0.0220797
0.0222849
0.0219601
0.0220899
0.0332901
0.227768
0.0332471
0.0276341
0.0286516
0.0221876
0.0260883
0.0227982
0.0347002
0.032746
0.0218191
0.0280215
0.0219004
0.0218436
0.0224887
0.0221206
0.386018
0.0216077
0.0779918
0.556067
0.765592
10.0675
3.99383
0.0224447
0.0222368
0.0219065
5.77711
0.0220522
0.021477
0.0221736
5.43221
0.0312303
0.0325027
0.381464
0.023355
0.0220327
0.0293321
0.0218827
0.0480922
0.0222854
0.0341382
0.0217866
0.0219261
0.0229252
0.0234712
0.0253796
0.563227
0.0360179
0.110179
0.0557664
0.113705
0.0431427
0.0631363
0.0220045
4.14653
0.0245882
0.0266077
0.0219318
0.0229102
0.121967
0.0219845
0.063226
6.47826
0.0294533
0.38277
0.0964378
0.0533908
0.068168
0.05948
0.0219373
0.0281261
0.0220895
0.0758036
0.0501465
5.31276
0.0217615
0.0469196
0.02648
3.34122
3.0764
0.0434132
0.0220967
0.0502638
0.0215733
0.0606455
0.0227562
4.15429
0.0216588
0.0259308
0.0220174
0.035912
0.115714
0.0304037
7.6218
0.0220396
0.0309916
0.0601144
0.0220165
6.50468
7.66488
0.138751
0.0504903
0.0463152
0.0218769
0.0217878
8.59606
0.0971101
0.0216777
0.0226894
0.0250795
0.0219087
0.383486
0.0217801
6.07401
0.129916
0.129106
0.0371515
0.0223165
0.0216671
0.0218566
0.145763
0.0817663
0.0267123
4.18463
0.0221732
0.0231204
0.0272912
7.8912
0.0215254
1.84803
0.0214067
4.56562
0.0219128
0.0219072
0.0383826
0.0219843
0.0222147
0.121557
0.0220738
0.022287
0.0217934
0.0434861
0.0253927
2.10243
0.0219922
0.0220923
0.0218493
0.114331
0.0218081
0.0286723
0.0387819
5.41236
9.36471
11.3122
0.882937
0.362205
0.0405914
0.0624705
0.027379
0.0222511
0.0221206
7.08219
0.057509
0.0215419
0.0219679
0.0219552
0.0273221
0.0780274
0.0222518
0.0303592
0.104495
0.1498
0.115744
0.0219695
0.0222376
2.90225
0.0238695
0.021612
3.30382
7.11486
0.021701
0.0214405
0.0267958
0.0220545
0.0384392
0.0222485
3.91955
0.0222726
2.079
0.0219802
5.07979
0.0293748
0.0219399
0.0555088
0.0216007
0.0221188
0.0222647
0.0315338
0.446077
0.0218552
0.145707
0.0222856
0.0221996
0.115397
0.0217613
0.0221277
0.0221016
0.0214704
0.0219553
0.021522
0.0221656
5.47332
0.0218619
0.0217755
0.0566753
0.0216374
0.0219433
0.0221667
0.0221988
8.78375
0.434439
0.0220365
0.0231337
0.0220128
0.0222855
0.190216
0.0220547
0.0219837
7.78537
0.0219642
0.0427269
0.0521658
0.0379937
0.0219379
0.186284
0.0219066
0.242794
0.0696677
0.0219579
7.92656
2.11763
0.0283554
0.121937
0.0218343
0.0218768
0.0452981
0.209414
0.0217785
0.0218589
0.0222387
0.0402631
0.0221025
0.0360686
0.0221099
0.0457477
1.59512
0.0391097
0.178143
0.0218417
0.0254949
0.0228971
0.0236751
0.0216926
0.0219008
0.0228745
0.02354
0.0678229
0.0223431
0.0846231
0.0220158
4.97365
0.0215207
0.0217788
0.0673344
0.0222716
0.0962843
0.0781844
0.0370757
0.0220895
0.0228859
0.0220363
0.0370855
0.0220752
0.0558349
0.0257197
0.022147
0.021684
0.0274157
6.85479
0.0317491
0.0516819
3.84568
3.89945
0.0386195
0.0215748
4.8564
0.0219469
0.0236708
0.0224017
0.0905295
0.0219701
0.0352567
0.0278486
0.0235125
0.0221212
0.0252353
0.0221999
0.0541872
0.0219393
0.0221851
0.0219583
0.0280401
4.41388
0.0219967
8.63296
0.087422
0.0214605
8.21951
0.484143
0.0219019
0.023395
0.0784565
0.0217935
0.0219111
3.61165
0.0220269
4.04708
0.0255808
0.0245478
0.0226711
0.0226302
0.0219124
0.0218953
0.0616983
0.022547
0.0219611
0.0219096
0.022569
5.22054
0.0364642
0.0220357
0.0291351
0.130722
0.0669035
0.0218882
0.0220436
0.0219604
0.0248614
0.0228059
0.0224227
0.0271162
5.65623
0.0218747
0.0231492
2.46624
0.0245074
0.108741
0.129535
0.0218721
0.02227
3.98177
0.0757409
1.53991
5.52669
4.35776
0.166647
6.37614
0.021837
0.0235003
0.0216839
0.0221862
4.49194
0.0219936
0.0504393
0.0607613
0.0306619
0.0249872
0.52751
0.0219121
0.0221156
0.0251597
0.0219426
0.0220493
0.0217992
0.0222736
0.0616766
0.0219453
0.0221414
0.0217866
0.0460135
0.0221322
7.14636
0.0219257
0.0234782
0.0218178
0.0222521
0.0227528
0.02196
0.0375979
0.0229617
0.0219381
0.0279139
0.0220488
0.0222646
0.0219837
0.0312095
0.0224271
0.022034
0.0220469
0.0220599
0.0286412
0.0220211
0.0220089
0.0948476
0.0220745
0.0219167
0.0241692
2.87333
0.0473829
0.0226268
0.0490678
10.9786
0.10663
0.21838
0.0239086
0.0228104
0.0269619
3.71348
0.0221077
0.607543
0.0230143
0.0218924
0.028
0.022051
0.0638403
0.0689857
0.0589873
0.0229607
0.0219529
0.0280469
0.0272393
0.0229366
0.024298
0.0240695
0.0444351
0.0755769
0.0659282
0.0219301
0.0248244
1.90254
0.0231302
0.0222853
6.3037
0.472671
0.0219487
0.0225424
0.0237532
0.0678353
11.1077
0.021963
0.334931
6.84251
0.0387362
0.054598
0.0217618
0.0236737
0.0228527
0.0725554
0.0222318
0.0296898
0.0237885
0.184205
0.0221935
0.0220617
6.36492
0.0238243
0.0230137
0.0221853
0.0222125
0.0376023
3.70955
0.0276535
0.0220432
2.69098
0.0914023
0.0224125
0.021953
0.021831
0.0241003
0.0217964
0.188199
0.0218663
0.0242978
0.024952
0.0534388
0.0261719
0.0218387
0.0270875
0.0241887
0.0218304
0.0874471
0.0221821
0.0234883
0.0216928
0.022272
23.3987
0.0279812
0.0224026
4.16688
0.0229149
0.0219516
1.47983
0.060957
3.77718
0.02192
0.0232906
0.0218824
0.0227076
0.0230228
4.56797
0.0226671
0.0783811
0.0218128
0.0223741
0.0244255
0.0219835
0.0368815
7.77482
0.465363
0.0219562
0.0217239
0.210561
0.0225717
0.0221781
0.0262906
0.0270725
0.375175
0.0796103
0.0228307
5.20962
0.0806148
0.0224006
0.0217769
0.0223059
0.0284852
4.43218
0.0222839
0.0612864
0.0229862
0.0220899
0.0216012
0.0227225
17.1909
0.0270212
0.0217866
0.0237338
0.0220949
0.025419
0.0214517
0.0237403
0.0219754
0.0231972
0.403443
0.0220361
0.0222127
0.0858266
0.0216228
0.0215912
6.49776
0.0218853
6.24255
5.32783
12.9615
0.026459
0.0221324
0.021512
0.0221389
0.0214864
0.0236193
0.127664
0.0465293
0.39468
0.0742693
0.0240816
0.0216278
0.023247
0.0226213
0.0222726
0.0221215
0.0215795
0.0736617
0.0225851
23.0257
0.0222667
0.0227197
0.0222635
0.0221178
7.96144
0.140786
0.0287474
0.0215107
0.0478134
0.0234492
0.0219756
0.0738117
0.0214552
0.0237264
8.68013
0.0219644
0.0219034
0.0219027
6.45677
4.7379
0.0217014
0.0226392
0.0254679
0.0220983
0.021734
0.0219605
0.0220754
0.0219052
0.0218477
0.0219
0.0252998
3.79585
0.0384224
0.0219434
0.0219403
0.0224222
0.022206
0.0221774
0.0258749
0.0276448
16.6605
0.0256842
0.0221754
0.0232205
0.021953
0.0823156
0.0216161
0.0222234
0.0232588
0.0281737
0.0267417
8.54127
0.0221103
0.0313423
0.0226426
0.0226059
0.0221043
0.0216518
0.023259
0.100589
0.509599
0.0217599
0.03498
0.0666773
0.0222647
0.0386733
0.0378195
3.4432
0.0222494
0.0235469
0.0226905
0.0216078
0.0669149
0.021964
0.0220005
0.0499306
0.192095
0.31562
0.021784
0.0219121
6.56417
3.93801
0.0216236
1.02013
5.3299
0.0218276
0.0216168
0.0218313
0.0220667
0.0221399
0.02157
0.0280765
6.23261
0.0218382
0.0219638
0.021702
0.0221574
0.0217983
0.0218467
0.0215594
3.86897
0.0220518
1.11638
0.0221566
0.0218053
0.0231288
0.0218376
0.0221756
0.0288197
0.0221542
0.0223328
5.90133
0.0219943
0.0255114
0.0220157
0.0219844
0.0221402
0.021816
0.106563
0.0220575
0.0221059
0.0220411
0.171378
0.0339112
0.0221888
0.0221751
0.021946
0.0231635
3.69872
0.0233612
0.0236459
0.0219565
0.0221226
0.0219521
0.049213
0.0233723
0.0230713
0.366067
0.0432262
0.0218137
0.0252983
0.022049
0.0225341
0.021836
4.33077
0.0219645
0.0220579
0.0218085
0.0299179
0.0236501
0.0234621
0.0219228
0.0217939
0.0553516
8.24879
0.021826
0.0564446
0.0234514
0.0233571
11.8531
0.0217634
0.0219877
0.0219557
0.0239519
0.0235511
0.0217967
0.0242418
0.0219116
0.0863081
0.0215448
0.0217234
0.0257995
0.0221418
0.0813969
0.0264822
16.1999
0.0577541
0.0222118
0.0972604
4.04544
0.0230031
0.0247114
0.0220679
0.0252626
0.0217848
0.0368769
0.0427959
0.021892
0.0290817
0.0219804
4.21234
0.0223147
0.02442
4.97168
0.0418575
0.0242578
0.148804
0.0221556
0.0219952
4.44109
0.0217711
11.8835
0.0218529
0.0218733
0.0677508
4.59276
0.0219215
0.0428842
10.4623
0.0218616
0.0221743
0.0219949
0.0280814
0.0256727
0.0229478
0.0220071
3.83396
0.0219681
0.0227376
0.0219464
0.0219086
0.0220364
0.0235305
0.0286112
9.35883
0.0222313
8.08375
0.0219476
0.0230363
0.0245038
0.0228304
0.0583734
0.0559658
0.0225606
0.0219353
0.0218316
0.08293
0.0217494
0.0218366
0.443707
0.112866
0.0217646
0.0220049
0.0217922
0.0220882
0.024607
0.0794542
0.021969
0.0221269
0.0217505
0.0222876
0.021968
0.0215125
0.0279031
3.97424
0.0217041
0.0224806
6.64638
0.021916
0.0379247
0.022069
0.0297171
0.0492641
20.4418
0.0222612
0.0220549
0.0217939
0.0222221
0.0220422
0.0214595
0.0221436
0.0221268
0.0234105
0.0525088
0.0251666
0.0236901
7.8083
0.022029
0.141304
0.0217453
0.0219901
0.0220165
4.839
0.0218461
0.0508494
0.023164
0.0226484
0.0219347
0.0217625
0.0219301
0.022518
0.0218577
0.0218221
0.0468566
0.240967
7.49582
0.0217967