/*--------------------------------*- C++ -*----------------------------------*\
| =========                 |                                                 |
| \\      /  F ield         | OpenFOAM: The Open Source CFD Toolbox           |
|  \\    /   O peration     | Version:  v2012                                 |
|   \\  /    A nd           | Website:  www.openfoam.com                      |
|    \\/     M anipulation  |                                                 |
\*---------------------------------------------------------------------------*/
FoamFile
{
    version     2.0;
    format      ascii;
    class       volScalarField;
    location    "1000";
    object      omega_0;
}
// * * * * * * * * * * * * * * * * * * * * * * * * * * * * * * * * * * * * * //

dimensions      [0 0 -1 0 0 0 0];


internalField   nonuniform List<scalar> 
18355
(
0.0341086
5.55578
0.0218945
0.02166
0.0223453
0.0808462
0.0219571
0.0571518
0.0233205
5.76777
0.0215245
6.15518
0.0927589
0.0219756
0.0220676
0.0235847
6.86413
0.021733
0.0220205
5.25719
0.0255041
0.0223791
4.97284
0.0223509
0.0246814
0.0221467
0.0220714
0.0231026
1.7716
0.0219594
0.0219696
0.0230445
0.0217347
0.0217965
0.0529083
0.0351242
0.0225465
0.162476
0.0229937
0.0215404
0.0219756
0.0839749
0.0218956
8.64523
0.0217694
0.170567
0.0503771
0.0238095
0.0450149
0.0217544
0.0215545
0.0218271
0.0222771
5.32432
0.0220853
0.0220739
0.1142
0.0220922
3.67181
0.129227
0.0217602
0.0638522
0.0217157
0.0429094
5.59023
0.0330974
5.72588
0.0321993
0.0220776
0.0223138
0.0605606
0.0222568
0.138236
0.0217993
0.0572659
0.0219533
5.98639
0.0230137
0.0274185
0.0218081
0.0219689
0.777309
0.0252864
0.0455166
0.0221386
0.0911446
6.3523
5.23983
1.78172
5.38295
0.344965
0.0218304
0.0221091
0.0214826
17.5441
4.88089
0.0217697
0.0255335
5.17416
6.11357
5.81559
6.41874
0.042168
5.35374
0.0225443
0.104792
9.33458
0.133964
0.0316394
0.394746
0.0219305
0.0227942
0.0221483
0.0229157
5.08592
0.0220035
4.70988
5.96729
4.49523
0.0423182
5.42137
2.09162
0.022949
0.0601121
0.0217699
0.145313
0.0218231
0.0222619
5.45249
0.0214888
0.021561
6.1811
0.0478084
0.0253026
0.0418266
0.0222578
0.0219109
0.0215222
0.0219575
0.0772126
3.72583
1.76018
0.0223465
0.0219301
0.410992
0.0222708
0.025613
9.9084
0.023455
10.2277
0.0221948
0.0222944
0.0497654
3.71938
0.0796681
0.02227
6.10563
3.6726
0.0222675
0.0681701
0.0268651
0.0244652
0.0299246
0.0256672
0.212001
2.10348
10.4331
0.042366
0.194774
0.0217688
1.60842
4.81819
0.021527
0.0215316
0.023569
7.75183
0.0599364
0.0221011
3.43575
24.2828
0.0759744
0.192746
0.0275017
0.0219123
0.241894
7.23028
5.32532
0.218044
0.0233786
7.97518
0.111237
0.0218974
0.0254834
5.41436
0.0480395
0.0223477
5.26922
0.0271607
0.0386296
0.0215345
0.0227639
0.0240723
13.7594
5.18286
22.0879
0.028339
3.43727
4.8575
4.80871
0.038175
0.0219148
0.0221407
5.08992
0.0222818
0.0217709
0.712599
3.77498
5.10411
0.0221557
0.0233891
0.539284
0.0219497
0.0440772
0.0218937
9.02194
0.0221859
4.74768
7.46085
0.129926
0.0219145
0.022274
0.0268864
0.026126
4.96205
0.0227153
0.0221396
0.0221101
0.193164
1.19588
29.0641
0.0309207
0.192841
0.0220198
0.0217818
0.0222425
9.78441
7.05574
3.17269
0.0786189
0.0267396
0.0227723
6.96262
0.0277142
4.98454
0.0221099
4.7218
4.56561
0.0682135
0.0219496
0.0219123
0.0321399
0.0660866
16.7299
0.0494709
0.0218291
0.0217712
0.0222634
0.214179
0.081169
0.106324
0.0227462
8.0221
0.235331
0.10049
0.0221887
5.10182
0.0218118
0.0219879
9.45634
0.0218099
0.0219515
0.10146
0.0219085
3.4293
0.0274722
0.0242944
0.0218287
0.0423607
5.43056
0.023085
0.0216673
0.0219852
0.130644
4.8845
0.0222672
0.0222792
4.1352
0.0447091
0.0802601
0.250866
0.0219926
0.0616416
0.0225325
0.0222689
0.234662
0.2227
0.304633
0.139239
0.0214979
0.0852077
0.0224354
0.0220199
4.5027
0.0219142
0.217325
0.0824474
0.0221016
0.0215856
0.198951
19.8455
5.12608
0.0221312
0.0290871
10.0041
0.0216641
1.23776
0.0268727
0.0328564
0.567728
0.0215004
3.17592
0.0219884
0.0447053
0.0221228
0.079084
5.1007
0.0222708
19.9084
0.0354049
0.0220413
0.0488653
0.065105
5.7568
5.38861
5.15146
0.0220953
0.0217094
4.86052
0.0622972
0.0221175
0.0225072
0.368598
0.240371
4.22197
4.9715
0.022095
0.0233002
3.34927
0.0219263
0.0226192
0.269663
0.0386646
0.0238983
17.4217
0.0222757
0.0470418
0.645293
31.1172
0.0216622
0.0220058
0.0219641
0.0217785
0.0650734
0.0217776
0.0400727
0.0219673
0.0242162
0.0220982
0.0231931
0.021784
0.0220065
0.0217748
0.0217704
0.0232432
0.126267
1.72992
0.0218919
6.00022
0.0346053
1.68327
0.0322235
0.0722202
0.0222917
6.03079
0.0224648
0.0220084
0.0221328
0.0216313
5.23978
0.0240265
0.0216652
0.0432093
0.0395277
0.0219263
0.0216599
5.30103
0.0223055
0.0218167
4.93814
0.0219109
3.42958
8.24083
0.263516
0.0252976
0.0225274
4.91913
0.0222455
0.0219338
4.43131
0.0222693
0.0215288
8.39809
0.021792
4.88506
0.0440211
0.0653288
6.95635
0.0224324
0.0219351
5.85952
0.0798104
1.64248
5.29555
0.0219732
0.0219217
0.0222552
4.44148
0.0440905
0.0220467
0.0222749
0.0222675
0.048526
3.67476
0.0273012
0.0222165
0.0222754
0.0316836
0.402875
4.89257
4.72058
6.55269
0.0525745
0.0469991
6.70964
0.0219815
0.0218373
0.0219851
0.0218878
0.0622702
0.0220134
0.0216148
6.71542
0.0500317
0.04633
5.51887
0.0546227
9.36577
0.0218792
0.0217761
0.0219425
0.0219742
0.0222834
0.0222813
0.021998
1.60216
0.0221283
0.0215341
1.50397
0.131655
0.0218461
0.0227528
0.0564243
10.953
0.0233323
0.0217656
5.825
0.0237773
3.72007
0.0271204
0.0217885
6.5421
0.131157
0.0217277
5.25988
2.54531
6.31099
0.0217891
0.0217528
0.0256371
0.126674
0.0223687
7.67849
4.17938
5.92984
1.17619
0.0216229
0.0433914
5.17806
4.87717
5.43531
0.0221365
0.0266409
0.0268473
5.13428
5.98147
0.387211
0.0221917
0.0219568
0.0221242
0.044523
0.0220027
5.72524
0.0270865
5.19576
0.0219778
0.0222201
0.0219116
0.0314226
0.0318128
0.344119
0.021925
0.100363
4.6733
0.0298193
0.0219491
0.0239085
0.0305343
0.022272
0.0324067
0.039165
0.0295664
0.139455
0.0225928
0.0217239
0.0219901
0.0222786
0.0407129
0.0238668
0.0642353
0.0218732
0.0223508
3.09389
0.0215109
0.0322791
0.0224812
0.14721
0.02406
5.19309
0.022431
32.8275
0.0258744
0.0238878
4.57909
2.90247
10.7924
0.0298365
0.0238243
0.0217989
0.0219566
0.110363
0.0473267
0.032936
0.0786983
1.7021
0.211851
0.0219262
5.52777
6.72029
0.0228677
0.0219538
0.0321871
5.24111
0.0322125
0.0222165
0.0601741
0.129886
0.0544201
0.0301471
3.58611
0.0252922
0.0960047
8.57201
0.799758
4.69025
0.0559037
0.163864
0.0270089
0.0220783
0.0229018
0.0219529
0.307879
0.343401
6.2188
0.120955
4.85362
3.89007
0.0550893
0.0238559
7.29312
11.1637
0.0215361
0.133082
5.52236
7.80804
0.0274656
0.0216084
0.0252192
0.0256431
0.0301594
0.0834676
0.0219119
33.1266
0.0233168
0.0247678
5.01162
0.0218713
0.0324768
5.51817
0.0219404
0.0228153
4.74056
0.0217578
0.100557
0.0215094
3.18087
0.0300639
0.0417878
0.0333141
0.0251745
0.123524
0.024843
10.2591
0.078169
0.0219146
10.2585
0.0424156
3.63744
7.34981
0.688409
0.333394
0.0219273
0.0216358
2.91804
0.0240206
0.0330199
0.0222395
0.0271208
6.55169
6.31169
0.0413123
22.2073
0.0606835
0.0234047
0.0216101
0.0222295
0.0445549
0.0791861
0.0216853
10.5698
0.0290304
0.0446285
0.0219899
5.00878
4.98573
0.021961
0.0215413
0.080609
0.0222466
0.0217243
2.42351
0.132508
0.0223587
0.0219537
0.147576
0.0450022
0.0278035
0.0590664
0.0219987
4.93957
0.0521102
0.022165
0.355147
4.80438
0.0219568
6.38397
0.021657
0.0219426
0.0223424
0.0345921
5.23873
0.0348144
7.43999
0.0324516
4.88034
1.59317
0.0269246
5.05838
0.0220167
10.1667
0.022846
8.41076
5.57513
0.022148
4.48416
0.024996
0.0261556
11.1479
0.0767874
4.71443
0.0218145
5.25961
0.021965
8.41923
0.0220701
0.0273162
0.0299356
0.0218052
0.021611
0.0537763
5.54624
7.40441
0.021928
2.4488
0.0266583
0.0218123
0.0221171
0.0278728
0.130904
11.0755
0.0336014
0.0220437
0.0269991
4.97358
0.0272126
0.0219175
0.0218022
0.027562
0.0299418
21.3609
0.0218665
0.773122
0.0485947
6.45569
6.25374
5.91671
0.021584
0.0604041
0.0218948
0.0222752
0.0277429
3.51834
0.0218341
0.0217996
0.0217811
10.5755
0.0232784
0.0219387
0.0328587
0.0313292
5.47991
7.65849
0.0219321
0.0219756
5.32838
0.0221623
4.85156
5.12704
5.00949
0.173627
0.221773
4.76103
0.0304169
0.0221649
0.0217897
0.0220108
0.022276
0.0221094
0.0223061
9.07798
11.2084
0.0222009
0.0898862
0.0217688
0.023475
0.0388965
0.0220856
0.0249575
0.0229096
0.46856
3.02643
0.061012
4.60331
0.0499564
4.88414
0.0845365
4.94722
4.89885
0.0527298
4.2195
0.225368
6.8064
0.0217914
0.02197
0.0219766
0.0258192
4.96004
0.0217667
0.0222764
0.0786753
0.0218352
0.043738
0.0408972
0.0222174
4.41404
0.0218915
0.0219754
0.15473
0.0216896
0.160959
0.419937
0.0220916
0.0227049
0.021814
0.062174
0.0218287
0.023495
0.998227
0.0219822
4.89778
0.0221096
4.97998
0.0243826
0.11245
0.0219577
0.0760093
0.0378504
0.0221719
0.0220983
4.98972
0.0219513
8.39846
7.46148
0.0227316
0.0221126
0.0220782
0.0215718
2.22792
0.0219536
5.12014
12.9902
0.0443731
7.93185
0.0218273
0.021896
5.15938
4.75614
0.0245129
0.0220002
0.02194
0.021779
0.0230171
0.0439841
1.11114
0.0248693
4.47408
2.6329
2.99319
0.0331332
0.0218665
10.3206
1.59401
0.0330281
0.0219607
0.0221197
5.09354
0.0220082
3.10951
0.0625105
0.0222529
0.0280664
0.0216205
0.0332344
0.0265896
0.0218382
0.021519
0.0228983
7.9808
0.0222226
0.0610506
6.76554
0.0220887
0.0219106
0.0454959
2.18101
0.0311656
4.71486
0.0224531
0.0215643
0.0234413
9.42096
0.428007
1.82391
0.021877
0.0308508
0.0219876
4.74364
0.0216564
4.43174
0.0472185
2.04913
0.0221917
0.0219216
0.220647
0.0219283
9.95951
0.0219482
3.28317
0.0222563
0.0217778
0.0240737
0.601597
4.86004
0.026402
0.0224089
0.0224551
0.0219141
0.0216792
0.022281
0.106554
0.0223311
5.03844
0.0237013
4.70529
0.0218388
0.0215892
0.789639
4.77056
6.43843
0.0224571
5.77351
0.0218616
12.9205
0.0225116
0.173483
0.0218032
7.35264
0.0218856
0.0265508
0.0220468
0.0219035
0.0222619
5.36184
4.52233
5.0708
0.0334984
0.0257765
0.0245824
0.0219892
0.0216679
0.0217581
0.0233016
0.152821
0.0220286
26.6556
0.102717
0.0219975
0.0225397
10.9625
0.110899
0.023373
0.0244649
0.0328863
5.05049
0.0557807
10.7317
0.0606003
0.0773047
0.151496
0.0219829
0.0218664
0.0788563
0.0413843
0.0218125
5.9025
0.0286994
5.02036
0.0223444
0.321539
0.033772
0.0626841
0.0273005
0.0220572
0.930443
0.0219189
21.1416
0.022009
0.022051
4.73892
0.0317616
0.0264232
10.9823
0.0218604
0.103059
9.88705
0.0219511
0.0708989
8.00534
0.0228672
0.0218697
0.0219329
0.0239695
0.0239816
0.0793278
4.71706
0.0230537
0.0264448
6.78069
0.0216062
7.34
0.0242985
0.0233817
0.537707
6.88396
0.0217468
0.0219081
0.0237925
0.0216955
0.0216758
7.18077
0.0222708
0.0265643
0.0215953
0.0556839
0.0217274
0.121935
0.909391
0.0227299
4.94665
0.0219367
0.0236435
0.0218939
5.31791
0.0282465
0.0218674
0.0219943
0.0221086
0.0218836
0.102091
5.75117
8.16203
9.5302
0.0221843
0.0224266
0.080153
0.0221547
0.0216624
1.71346
5.42596
0.0236876
0.0219068
8.42794
0.0222262
0.0221866
4.873
0.0819615
3.51045
0.0232179
0.0218628
4.64176
0.0221754
0.032562
0.0222225
0.0293331
0.0219773
0.072226
0.165233
0.0425862
0.0221009
10.9517
0.0227169
0.0218719
0.0221449
0.0220124
0.0219303
0.0220698
5.86144
0.0223681
6.05296
0.0222345
0.0279729
4.90135
0.0218067
0.290208
0.0232004
0.0217971
0.0236108
0.077245
0.0220344
0.0218105
0.0221279
0.0219742
0.05673
0.0216883
0.0224398
0.0290502
0.0220928
0.0321463
10.8546
4.84434
4.79545
7.16474
0.10036
0.0624088
8.3529
5.01652
0.0218658
0.0222722
0.0216335
0.128129
5.08616
0.0382816
0.0254004
0.0215918
0.0219004
0.0221596
0.0232954
26.2364
17.5511
9.5758
0.0670023
0.0221038
0.0222361
0.0221571
6.04361
2.10317
0.0218014
2.48261
0.0216689
0.0323418
0.0229409
0.0406122
0.0316598
0.488333
0.023198
0.11841
0.0216449
0.0219034
0.082258
0.0219286
0.0220646
0.0572726
0.216674
0.0221295
0.0762138
0.0219297
0.0219768
0.0218029
0.0219587
6.05872
0.0299256
0.0230584
0.0221407
5.06943
0.144513
0.0220746
0.0321736
0.0305759
5.08895
0.808907
5.46694
0.180813
0.0648946
0.114287
0.139117
0.0788957
4.8064
0.021583
0.0219165
0.02192
0.142281
0.022195
9.27352
0.0217694
0.0221488
4.7955
0.0551603
0.0224136
0.0767727
0.0219521
0.0230325
0.740132
0.303437
0.0219487
0.628078
0.127319
20.8332
5.47719
0.0219982
5.93825
0.0219255
0.064684
0.0218694
0.0218432
5.48938
0.0446444
0.0235652
0.0219148
4.60008
0.0249951
6.18814
6.54615
0.0222632
0.0216439
0.0246358
5.87949
0.223446
0.0412744
0.0330341
0.223477
0.0219783
0.0224324
0.0217998
0.0218935
0.0231973
0.0549203
8.94982
0.0670042
0.110969
4.92989
0.022002
1.95974
0.12748
0.0496494
0.0221931
0.0219833
0.0219193
0.0219181
0.0219438
23.0187
0.155175
5.23781
0.0670923
0.0929006
0.0222082
0.0967101
6.40564
0.0235841
0.0249982
0.0218588
12.5175
4.95346
0.0923878
0.112558
0.0219786
4.51503
0.0227255
0.0245674
0.039873
0.0797494
0.0216457
0.0758206
4.77392
0.0222777
25.4355
20.6618
4.92703
23.158
0.0357173
1.00628
0.0567246
0.0541059
5.83905
0.0218102
0.0331806
0.0216835
0.0222514
6.98649
0.0228644
4.99748
0.0217002
0.021889
5.27331
0.0219343
15.7693
0.0227989
0.437654
0.0232064
0.0221853
5.10333
0.0245106
0.0697642
0.0218752
0.0217642
0.223964
0.208163
0.0220578
0.0281982
0.760204
0.0641404
2.41725
0.0222621
0.0219511
0.0215253
0.0219299
0.0259658
0.0564518
0.0216332
5.81578
0.021882
0.0220401
0.0594727
7.23923
0.174416
0.0283148
0.0217695
0.0224793
0.0788263
2.04782
1.21643
11.6909
0.0260924
0.0364482
0.226114
0.0218708
0.0541482
5.03656
0.0219405
0.200635
7.28564
0.456953
0.551011
5.04384
0.0789157
0.0221092
5.00956
0.0265477
0.0429391
0.157082
0.0218621
0.107373
0.0218687
0.0219824
0.0514107
7.44439
0.0342929
0.0219429
0.0410717
8.64899
0.0823427
2.44227
0.0219281
6.03713
0.0216527
0.0764218
0.108452
0.0219116
5.1619
0.0218084
0.0218413
0.0220753
0.0219319
4.82822
0.0815154
0.022253
4.70661
0.0220807
5.96663
0.0216618
2.1722
0.0472804
0.241001
0.0246741
0.0219072
0.0216802
0.0220757
0.269781
0.118219
0.0221295
0.0425595
2.75186
5.08302
0.0428699
4.90596
6.62265
0.021911
7.8131
0.02179
0.213587
0.0220053
0.0220851
0.0220178
0.0681782
6.77142
0.224348
0.0969049
4.91546
0.445038
0.257965
5.29442
0.0218748
0.0760702
7.91085
0.0215367
0.0507238
6.39581
0.200861
0.0218973
4.92221
0.0670128
2.03936
4.80204
0.0269287
0.220562
0.0248356
0.0218614
0.0215872
4.74231
0.164263
0.256261
0.15357
0.0219078
5.65336
0.0345845
0.0215062
0.0224722
0.0641074
0.0240147
0.0222163
0.0222692
0.910893
0.0218978
0.0424234
9.92125
0.0216826
0.0218935
3.18854
0.0218509
0.0434318
0.026762
0.128976
2.25608
0.0219255
0.0644886
0.0280407
0.077083
0.0273345
0.024815
0.0976008
0.865058
0.050317
6.02199
0.0844179
0.0221124
0.230665
5.3316
0.0763608
0.0217831
0.0220498
0.138418
0.0229499
6.402
0.645365
0.0283201
1.57325
0.0234735
0.181738
4.72114
0.0219656
0.0221281
0.0220696
0.0219919
4.85133
0.355849
0.0250267
0.181844
0.273623
0.0473581
0.0220738
0.0238107
0.0589372
0.0219371
0.0218715
4.80795
0.0226737
4.45482
0.0218222
0.021998
0.0222726
0.0706826
0.0383073
0.0400381
0.0220707
0.0230305
4.96058
1.59754
2.82545
2.63159
0.0257121
0.022481
5.13169
0.0885339
3.32442
0.0539988
0.0218858
0.0545707
0.0265987
0.0223473
0.0217944
0.0939022
0.0784828
5.47709
0.0823283
0.477182
0.0221637
0.0229333
0.021916
0.116822
9.49433
0.210214
3.39544
0.0218624
4.59337
0.0227583
0.0219704
0.0240996
0.0221672
0.754366
0.0219636
0.0839785
0.0216769
2.96239
0.0327745
10.4131
0.0224287
0.0220152
0.0244623
0.0217119
0.0930765
3.76864
5.12435
0.0545993
0.0216321
5.29065
0.0581776
0.0219342
0.06695
0.0217401
0.0239217
0.021523
0.832002
0.0247992
0.0704722
0.0529994
0.0217633
14.0368
0.0216342
0.0251798
0.0223763
0.0238092
0.0217483
0.0219224
0.0306483
0.0222818
0.0251945
0.0216917
0.0238454
2.00591
4.17559
0.0225072
0.0436133
5.60426
0.0219162
0.0221575
0.0310335
0.115974
0.0219331
0.0588107
6.14301
0.0230396
5.57816
5.32842
0.0219503
0.022556
0.0596766
0.0214686
5.06708
4.89723
5.6535
0.0230282
0.0282247
0.0214977
2.08411
0.0285877
0.475012
0.0222428
0.140051
8.31666
0.0809719
0.0234994
4.87487
7.25741
5.17507
0.0224262
0.0217574
7.34187
2.69273
0.0218104
0.0221018
0.423614
0.0225144
0.235109
1.97208
0.0217395
0.0225499
5.97583
0.0708489
0.0225946
0.0214973
0.042146
0.0223002
0.261174
0.0218824
0.0221192
0.0219578
0.0229924
0.0220654
0.102884
0.021746
0.0257862
5.13557
4.7096
9.24424
0.0218206
0.0793222
0.0799872
0.0220957
0.0247268
0.0405763
0.0219074
0.0238236
6.36561
0.0555979
0.0219528
0.0220125
0.0217771
5.25233
5.39262
0.0217268
0.0222934
0.0219854
0.0597443
5.54308
0.0237017
0.0768977
0.0221432
0.0623366
0.0272426
0.363754
10.8178
0.0222715
0.776339
4.83231
0.0406896
0.0218269
0.0412307
0.0288281
0.0438805
0.0265565
0.0218114
0.110024
0.027158
1.54582
0.042363
0.0222119
0.0223029
4.97008
0.0221371
0.0234015
0.215094
0.0424832
5.52253
2.1247
0.0217875
0.252154
0.599719
0.320783
0.0449088
0.0237728
0.0220631
5.95977
0.0457254
0.0218352
0.0713462
0.0696279
2.22175
5.56111
0.022063
0.0280708
0.0222475
0.223716
0.907515
0.0221876
0.0601105
0.0258595
0.023319
0.022189
8.9184
0.0707497
0.0219517
0.0237754
6.50931
0.0222614
0.0220096
0.0263664
0.0703437
0.021973
0.0221614
0.023612
6.90064
0.0302367
0.021826
0.021834
0.0218956
0.126972
0.021997
0.0219452
0.573391
5.30727
0.0218669
0.0222647
0.05828
0.029646
0.0902826
0.0221419
1.95398
0.0219049
0.0228321
0.0293314
5.3037
10.7649
0.4367
0.0421701
5.31975
1.59242
8.81354
6.0441
0.0244686
0.0219489
0.0216902
0.0414539
0.0218922
0.0219513
0.0219116
0.182252
0.0218819
8.41576
0.0320596
5.49324
0.0218881
4.87416
0.0219873
0.0277546
0.021693
0.0229747
0.0407644
0.630188
0.0221819
0.0218494
0.0249793
5.16016
0.0219089
0.0402572
0.0221936
0.0384351
3.84451
0.24486
3.80953
0.0307452
0.221908
0.0221394
5.17542
9.7809
0.0218827
4.97227
1.53972
0.021904
0.0215246
0.0459526
0.0309546
0.0437133
0.0216964
5.97271
0.0329234
0.0609274
0.0216148
0.0219559
0.0262932
5.63122
5.4482
5.47388
0.0426461
5.41329
0.0390973
9.85602
0.0219469
2.67334
0.0219732
0.0269571
1.46827
0.0232011
0.20081
0.0218764
0.0245549
6.31878
6.55479
0.0219654
1.78926
0.0220013
5.09411
0.0218022
5.47477
4.85961
0.0218185
6.08933
0.0274209
5.99321
0.0219742
0.0264059
0.0228684
0.085851
0.0220216
0.435779
0.0218054
5.96156
0.0866081
5.66198
0.0221343
0.0216924
0.531855
0.0231241
0.0317901
0.0218873
0.0816063
0.024558
0.0219726
1.95917
0.0220374
0.0219388
0.0222933
0.0220974
4.85073
0.0387594
0.0219536
6.20602
3.93894
0.496922
0.0216898
0.0895077
3.46364
0.0218388
0.0260941
0.0223761
0.0220437
0.0219512
0.0219953
0.0272842
0.028551
5.09983
0.330965
0.239618
0.0222777
0.0219543
5.01782
0.0355534
0.021926
0.0223453
7.5694
4.80248
0.0219828
5.71541
0.0390687
0.544488
0.0222785
5.32052
0.021754
0.0228154
0.022101
0.0218862
0.0234525
6.93282
0.0217359
4.80155
0.163699
3.70419
5.89602
0.0221027
0.0220064
5.25651
0.0668518
0.0981961
0.0219796
0.114793
0.022207
4.9086
6.0492
4.95166
0.0220703
5.27211
12.575
5.36906
0.507199
0.0256906
0.128216
0.0218636
0.444014
5.1304
0.0290974
4.87059
0.0218199
0.0220418
0.0696751
6.29075
0.0400912
0.404953
0.021988
9.00816
0.0408812
0.0517308
0.0218217
0.0408481
0.248445
0.0220383
0.039711
0.0412036
0.239208
0.0215851
0.021903
4.93785
5.23798
0.0238149
4.86768
0.0392
0.0219945
8.57478
9.83888
0.0220974
0.503179
0.0217053
0.0220728
0.0481798
5.09529
0.0222945
5.14609
0.0235096
0.0219338
5.25416
0.0221772
0.0717253
0.0218567
2.50414
0.0220247
5.23506
0.0217724
0.0552596
0.0218526
0.0276073
0.220608
4.85519
0.0492164
8.59319
0.0288337
5.50202
8.40374
4.94079
0.0218724
9.88674
11.2479
2.97124
0.350699
0.0224283
0.0218514
0.0219501
9.09825
0.0219487
0.0220501
0.791736
0.0222412
8.83017
0.023036
5.947
0.0219466
0.0222302
0.113204
0.0215552
0.0571033
0.0218603
0.0741789
0.0934698
1.52681
0.021814
0.0219014
4.93856
13.8586
0.0222448
0.0304908
0.0354314
0.0225935
6.99221
5.29885
5.08546
0.142737
4.72718
4.08082
0.21961
0.0218989
0.0217915
0.0228567
0.021941
0.0327905
6.50906
7.35272
0.0220899
0.023835
0.0226817
4.14645
7.38933
7.82004
2.33966
0.0220717
2.31278
5.11961
0.0264835
4.98542
0.0498739
0.0221094
5.21359
5.48007
6.25183
0.0222075
0.0229948
0.0433849
0.424757
0.0218183
0.0220388
0.0222428
0.0218299
0.0220415
6.52071
0.0238677
0.0216911
8.41562
0.0221058
5.87126
0.0421306
5.5877
0.422611
0.0219796
5.3284
0.151765
0.965639
0.0227386
0.0285041
0.022014
0.023019
6.37643
0.148655
0.0786657
0.0224647
0.0219318
0.151149
0.0233196
0.0220624
0.0273462
0.0219362
4.94018
0.0219993
5.29625
8.27593
0.0233574
0.0219815
8.6118
0.0218704
0.0216781
1.2611
0.0245707
0.0237146
0.0831504
1.86153
5.3139
0.0337158
0.0234843
0.0222712
4.95465
1.57227
0.0234302
0.03614
0.0218823
0.0218052
0.0239697
0.0217129
0.286444
0.0294381
0.0220163
0.0222381
0.0220939
0.0218983
0.0218408
0.0219111
2.55627
6.09636
8.30599
0.353978
3.60043
0.44572
0.0248267
4.98594
6.95028
4.01986
0.0220943
0.0216758
3.69356
4.42342
0.416339
0.219491
7.46465
0.0220965
0.0219325
4.94516
0.0218455
0.145168
0.135497
0.0225221
9.91575
4.96324
0.0222611
11.4937
7.97327
0.162009
0.700732
0.0222025
3.12206
0.535796
5.64315
0.021853
0.0663071
1.65186
0.0219148
0.0414709
0.0217305
0.0509413
0.0220891
5.95129
0.715152
0.0220232
0.0232464
0.0223951
4.67777
0.043402
0.0221462
0.0222254
4.89019
0.0219225
0.0232529
0.114557
0.45243
0.0224959
0.0824258
0.0494179
0.0219479
0.148124
0.0219252
0.021962
0.0268881
0.021968
0.0306078
4.8164
0.235458
0.0220023
14.1739
2.33143
0.288853
7.03864
0.0420118
0.0235175
5.26096
0.0264395
0.0241665
0.0464763
0.0772765
0.0218772
0.021725
0.0221108
0.480275
5.50703
5.61944
5.35063
0.0218238
0.0259712
0.0772418
0.165219
4.99688
0.0221384
5.33471
0.0223446
7.32917
0.021575
5.96537
0.0227187
16.2818
7.43549
0.0902567
4.90313
0.059241
0.0218378
0.0851465
5.3949
15.9496
0.0264119
0.0223683
0.0219557
0.0221105
0.0295946
0.0222868
0.0235779
0.0218229
0.061123
0.0220102
5.0721
0.0222243
5.27171
0.0216775
0.157252
10.1012
0.0229885
4.81277
0.0220166
0.027453
0.0221521
0.0222002
0.0219248
0.386392
0.213537
0.0218002
0.024295
0.021974
5.27721
0.0313143
0.49156
0.216758
0.0219771
0.0513689
0.0226398
0.0228947
0.0466556
0.0221074
0.0554473
9.81118
0.0220294
4.90276
0.0273922
0.0218907
0.021724
10.0682
0.0219952
4.90986
0.183705
0.0222691
2.25902
0.112521
6.18626
0.02592
0.0251677
0.0221026
0.062826
4.832
0.022137
0.0460061
0.0220653
0.103868
3.0372
1.56243
6.57906
22.1741
0.0294369
1.81278
0.0221437
5.13068
0.503282
0.0266703
0.453006
0.0699495
0.0215745
0.0485407
0.0220058
0.0217608
0.0242938
0.0219527
1.65531
2.01267
0.155971
4.21411
0.0220765
2.66156
0.0220596
0.0219713
0.0441303
4.764
0.0217332
5.07938
0.0983259
0.112816
6.9204
0.0222326
0.0463844
7.78775
0.0445591
0.0219443
0.404078
0.0219677
0.0221305
0.0222417
2.03384
11.3422
0.0257168
0.022102
5.40952
11.5997
0.0222899
0.0222358
2.99801
5.47727
0.0222251
0.326314
0.119631
0.0218869
0.0304129
0.021701
5.08901
0.0219837
9.9094
6.57875
5.57398
0.0249163
0.0323698
0.0217988
0.0218028
2.30925
0.0218474
10.3376
5.44219
0.0789756
0.0218496
0.0216891
0.712364
0.310494
0.0527706
7.96046
0.0914953
5.28482
0.0229981
4.6361
2.59518
0.0269198
0.396699
5.65238
2.05003
0.0220481
7.05572
0.0217398
3.90362
0.282046
1.17914
0.0216307
0.0421014
0.0221064
1.06436
4.81759
0.0226257
0.0228642
10.2407
5.0872
0.0219704
5.30019
3.10349
4.74079
0.0222163
5.33399
0.0221529
4.51004
0.0221129
0.0226623
0.022206
0.0219895
9.97523
0.311001
0.021719
4.8411
5.35394
0.0215371
0.0216887
0.0417412
0.0666884
0.102988
0.0492001
26.645
4.89827
4.58721
6.05824
0.102369
0.0230684
0.154398
0.112525
5.11262
4.1649
6.06199
0.104976
0.0563098
0.0246142
5.40771
0.0881599
0.626664
0.0221851
0.0256061
11.2798
0.0220955
0.0292144
0.548622
0.0241733
0.0436872
0.0220023
0.0231671
5.70468
0.347423
0.0216377
0.025595
11.0155
0.258561
0.0309929
1.82324
2.59579
0.0445339
0.200206
4.57435
0.0225931
5.53515
0.107294
2.10249
0.0221459
0.0214742
1.63938
4.73386
4.87011
7.35507
4.75056
0.0406042
0.0842508
0.0239059
4.62021
0.0218805
0.022028
0.0473522
0.0756111
0.102498
5.71915
0.0228344
4.90283
5.93712
0.022299
0.0959918
0.0232567
0.228043
0.129112
0.0422867
6.47451
4.81776
5.0757
1.99862
0.0328726
0.021966
0.0226034
0.027818
1.095
6.69369
5.10344
9.53244
0.0525824
0.0218031
0.283905
0.0411897
4.70444
0.0220972
10.7532
0.0578298
5.93281
0.022094
3.4821
0.0938998
0.0737809
3.07469
0.0217202
1.7161
6.10039
0.0218213
0.0861223
5.15013
0.0223999
0.441696
0.0231777
0.0230589
0.0222587
5.4366
0.0470602
1.6755
0.0292176
8.45948
0.0217472
0.0215192
0.0218877
0.0220651
0.0219577
8.14641
0.417605
5.84858
0.0222113
0.0217693
7.42514
0.0289915
4.92138
0.0996927
0.0219092
1.08631
0.0306435
0.0396836
6.12753
0.0267187
38.4331
0.736162
0.0276503
0.0216197
0.245817
0.0215353
0.637951
8.71837
0.213157
0.0217906
6.80911
0.378272
0.0219823
1.57556
0.0221309
5.70085
5.20295
0.0281222
0.0250779
0.0742678
0.0397325
0.0222308
0.021638
0.0219771
20.1062
0.0253369
2.4291
0.698775
10.5909
0.676792
0.11775
0.0219832
0.211618
8.46563
0.0249882
0.0218689
0.0239751
0.0222267
9.17301
0.0835748
5.35754
0.0220008
3.34862
2.67839
4.7961
8.20161
0.021985
3.06493
1.5736
0.0219664
0.022281
1.90607
5.03882
0.0265443
0.281016
3.53838
7.4167
0.0296995
0.0228937
0.457314
0.0431841
0.0231309
0.0274479
0.0221217
0.0779276
5.52906
0.0581189
0.0228108
11.3256
0.149695
0.0216448
0.20123
0.231571
0.0736175
0.0567591
0.0216567
0.0217958
2.26602
3.2101
0.0404545
0.0218355
4.40449
0.445263
1.19997
1.84575
0.023549
0.021651
0.0220978
0.022204
0.0299426
4.70553
0.0982464
0.0223785
0.121159
0.0220687
5.2586
0.0230939
4.87139
0.022854
1.07709
0.0558021
5.13848
0.0219429
0.0219438
0.0218041
4.76304
0.026331
4.82969
3.79196
0.0588978
0.0221553
0.0278217
0.0309024
0.0222414
5.98169
0.0215992
5.32738
4.83128
2.8281
0.0287607
0.021977
0.0222775
0.0220185
0.0222124
0.0962689
7.89945
5.53038
22.487
0.826718
2.50379
0.0235279
0.321702
0.0746415
0.0543611
0.0219764
0.0216519
0.213355
0.0230147
0.0216435
5.50767
1.53947
0.445556
5.26607
4.01143
0.0220999
0.022128
0.0227427
0.0443634
4.97627
0.0220584
0.0472598
0.518165
1.21594
0.04582
0.0221475
0.368962
0.027448
5.2565
0.0220716
0.0217282
0.0219919
0.0219751
0.0226806
5.73154
0.652642
0.0943807
0.141164
0.0919727
0.0218478
0.0531795
0.0226925
0.0221029
0.0272919
6.57683
5.50832
0.0218114
0.321165
0.0218591
0.0575326
0.0232494
0.0287514
0.0221039
0.0891399
0.0564019
5.69571
10.5433
8.31896
9.28197
23.7603
4.77634
1.07039
0.0217139
5.12711
0.0217169
7.35927
0.0257869
4.38678
0.0220929
0.0870994
0.0220667
0.0217644
0.0242743
0.0219659
1.68413
0.0216625
0.021929
0.0216341
0.0217034
0.0218044
0.0297962
0.022127
4.80189
0.0497067
0.0219611
4.21336
0.0220373
0.0218556
0.0663734
5.48729
0.0393332
0.0291243
0.0217633
0.0216025
4.67651
0.0221959
0.02564
0.156708
6.04027
8.78507
4.81039
5.10617
4.82482
18.5424
5.83398
8.34158
0.07426
2.67536
0.0222272
0.0220188
0.072678
0.0261308
2.53461
0.0221334
0.0465598
0.0517775
0.412402
0.0848763
0.0393467
0.0234468
0.0219859
0.0503914
0.0220723
0.0217194
0.452817
0.0222369
4.68072
5.32024
0.102976
0.0217846
5.6417
0.0231861
5.13267
0.483011
0.0218378
8.34442
5.18673
0.0669541
0.0698394
0.0312611
3.5153
4.86061
0.0237355
19.8411
0.0535951
0.0403045
4.9647
0.0221323
3.3735
0.0220379
0.0220602
0.0218247
2.02816
0.244043
0.347317
4.87246
0.0250367
0.0460722
3.2322
0.0217893
5.51376
0.0216834
1.98363
4.90182
10.3035
0.119468
11.8687
0.021951
0.0221808
0.0238618
6.10535
0.048911
0.0224363
0.0219606
0.0214674
0.0218897
0.0642731
0.174593
0.0813887
0.171452
0.0598059
0.0219935
4.84557
0.0303805
2.24567
0.022651
0.0217479
0.0225662
0.0222322
0.0392779
0.320095
4.62972
0.546661
5.24623
0.43401
0.0218211
2.00115
0.0215167
0.0220173
0.0229237
0.0217576
0.0315786
0.0219885
0.0681626
0.0218261
4.77442
0.0222781
0.0224504
0.0217505
4.97763
0.854799
0.0916523
0.0215568
4.89165
0.150345
0.0796745
5.25435
0.0575455
2.69004
0.0220864
1.98738
0.198608
0.0305839
1.3967
0.0334586
0.0411865
0.700184
0.0281265
17.2455
0.0997597
5.61913
4.56657
0.0428918
0.0294897
0.021981
4.77252
0.0220072
3.12246
0.0219214
0.0218943
0.0215235
0.0319607
5.68735
0.0240019
0.0219191
0.0221142
0.0457311
1.87748
0.106849
2.62813
0.201507
0.0713534
0.021993
0.05936
0.022185
0.0228895
6.58037
0.0330864
0.0383865
0.119028
3.09347
0.149064
0.0439499
0.073867
0.0618968
0.024594
2.74804
0.0222022
6.92048
0.0253548
3.71378
0.0965185
2.6571
5.69413
0.0935883
4.63104
4.38111
0.143313
0.296504
0.0988128
0.559608
0.0220267
0.0810997
0.0552937
10.3753
0.0230715
5.63569
7.53101
0.0215063
0.0217588
5.64838
0.0223087
0.0219122
0.0216191
14.8422
1.51042
2.43372
0.0269584
2.91439
0.597935
2.45861
1.78065
0.0787965
0.0220348
24.8994
3.086
1.58067
0.426148
0.021959
0.0218388
0.0220129
0.0221127
1.50914
0.136082
3.33659
0.0861224
0.0221442
0.0219689
0.0222878
0.03158
11.4155
0.0237254
3.65363
4.94738
0.053865
0.0221212
5.19138
0.167233
2.56622
0.0219508
20.9923
0.0964887
0.0221559
5.61697
4.44096
0.0230745
0.0217656
0.0221041
0.0222559
0.0219852
0.155433
0.0578636
0.336622
0.0424038
0.0225794
0.0305172
0.0220861
0.0257051
0.0219577
7.85425
15.9763
0.0351604
0.022038
5.52593
0.0216823
0.181643
0.527547
9.54808
5.02268
5.50842
0.0220566
0.0222746
0.0221248
0.244221
0.0225952
3.72865
0.0254516
0.0218932
0.0219924
0.152068
0.178135
0.0220731
5.06497
0.0747753
4.12847
11.0455
0.0221161
0.71379
4.9075
0.187878
0.0222877
0.021981
0.139935
1.40432
19.8663
0.0231429
7.91776
0.0217399
0.0837774
2.35673
0.182729
0.021724
8.36425
3.02122
5.59638
8.35698
0.0222766
0.0221862
0.0840308
0.153583
0.0418883
0.0230109
4.46563
0.0234556
7.30109
4.92878
0.0218857
8.87049
0.0218488
0.0843609
7.32575
0.0839088
0.0575258
1.85517
0.0240106
2.75872
0.0219922
0.929087
5.59741
2.48654
12.8002
0.0243254
0.0581116
0.0217047
5.64955
0.022968
0.0217341
0.047459
0.0527001
0.0491783
23.7031
4.83688
4.88517
0.211881
0.0307015
0.0386735
0.0262842
0.0351378
29.3317
0.0232162
0.387424
0.0227803
5.04824
0.605045
0.022229
0.022165
0.0422735
28.8583
0.0429694
0.0216161
0.0218849
0.0304099
0.0266004
0.0282583
0.0253286
4.88078
0.0239067
5.48782
0.0742951
0.0219367
0.0748189
0.0766379
0.0405708
0.0218433
0.0220684
1.75706
4.85568
5.3723
0.0420155
0.0459488
0.053068
0.0475712
0.0219197
0.023625
4.96909
0.0483855
0.0239028
4.88618
6.05654
0.231386
4.28219
0.0782361
0.0226454
6.03797
0.0652954
5.1596
0.0219141
4.74578
0.0492878
0.0327407