/*--------------------------------*- C++ -*----------------------------------*\
| =========                 |                                                 |
| \\      /  F ield         | OpenFOAM: The Open Source CFD Toolbox           |
|  \\    /   O peration     | Version:  v2012                                 |
|   \\  /    A nd           | Website:  www.openfoam.com                      |
|    \\/     M anipulation  |                                                 |
\*---------------------------------------------------------------------------*/
FoamFile
{
    version     2.0;
    format      ascii;
    class       volScalarField;
    location    "1000";
    object      ddt0(k);
}
// * * * * * * * * * * * * * * * * * * * * * * * * * * * * * * * * * * * * * //

dimensions      [0 2 -3 0 0 0 0];


internalField   nonuniform List<scalar> 
18758
(
-1.88721e-06
0.00126939
-3.78635e-08
-1.56285e-06
8.66059e-10
-3.72554e-08
1.70235e-08
2.18047e-07
1.44908e-08
-2.08549e-07
0.000952687
0.00319292
1.12682e-05
1.47372e-08
1.10022e-08
-3.5745e-08
0.00503155
3.78627e-08
2.0712e-09
8.08878e-07
-0.000337652
-0.000790536
-5.99481e-08
-5.38766e-08
-0.00732465
0.00147136
-0.0105325
-7.84697e-06
-5.68237e-06
0.000303179
0.00359393
-0.0106633
2.09969e-07
-0.0198733
-1.84467e-07
0.000632323
6.48201e-06
1.72924e-07
-0.0121204
-5.80692e-08
0.00200385
-6.30109e-07
0.00132258
-3.83711e-07
-2.94979e-08
0.011847
-5.81959e-07
-5.98575e-06
0.00148721
-7.94091e-07
0.0011069
-0.00721932
-5.14574e-07
-1.44873e-06
1.02415e-05
1.73977e-06
5.41626e-08
9.21294e-07
-5.70765e-06
4.6752e-08
-2.76199e-08
-3.70159e-07
-0.000627185
0.0032818
-2.63976e-08
-0.0122321
9.42378e-09
3.51619e-08
-7.98896e-06
4.04003e-08
-0.00766371
0.00530169
-4.65636e-08
1.03964e-06
-7.4672e-07
0.00345369
0.00107573
0.00290642
-2.8014e-07
0.00134493
4.46323e-07
-0.0102455
0.00501831
6.96257e-07
7.46316e-08
7.71342e-06
-2.86563e-07
1.22729e-06
-0.000750828
6.47691e-06
-0.014686
-3.41346e-08
-1.0755e-06
0.00273522
-5.04117e-08
-2.36241e-08
2.78291e-08
-3.51171e-06
0.00108978
-1.00256e-08
0.00100236
1.76885e-06
3.45885e-08
-2.16731e-08
-0.0111004
-0.000354026
-5.88813e-06
-0.0120191
0.000651552
-0.00741166
-2.8895e-08
0.00772127
-1.43716e-06
-1.4817e-08
1.7603e-06
-1.33551e-06
-3.38301e-06
4.39565e-08
-4.07368e-06
-2.36324e-06
-9.05191e-09
0.000846046
-1.12009e-06
6.34938e-08
-0.00199781
-1.42049e-06
-2.52084e-07
6.18089e-08
-5.87547e-06
0.00344291
-5.43011e-06
2.61842e-08
-1.13716e-08
0.0115387
-1.80438e-07
2.3937e-08
0.00257171
-1.54873e-06
-8.05509e-06
-9.11918e-07
-1.99119e-06
0.000956434
-2.17869e-06
0.000523732
-0.000682543
-1.13021e-06
-0.00664136
-6.1583e-06
0.00101919
0.0298275
0.00633012
-0.000499237
-5.91476e-08
-3.93757e-07
0.00199592
-0.0217846
-1.40537e-06
-5.1577e-06
8.71072e-07
0.00129398
-0.00995983
9.77026e-08
0.00986003
-0.00540682
0.0055583
1.59088e-07
9.51299e-08
-0.00321282
0.00452553
0.000338905
0.000760655
-3.10233e-08
-6.0605e-06
-0.00100357
3.80588e-05
5.39532e-08
-4.51011e-08
-0.0021669
-0.0210642
-5.63438e-08
1.88611e-08
-5.79736e-07
9.21469e-06
-8.6555e-08
0.0188972
-3.36439e-08
5.94024e-05
1.52804e-07
0.00416317
-0.0137127
-0.000309987
-2.93645e-08
-4.1361e-06
0.00573918
-1.86217e-08
-6.32497e-08
-6.64846e-06
-5.91954e-08
0.00469811
-6.02449e-08
5.09027e-07
8.79995e-07
-0.00131456
-3.97467e-08
-2.98467e-08
0.0107275
1.5463e-07
-3.75661e-07
0.00543726
0.00111018
-1.00752e-07
-2.58483e-06
1.2173e-06
-7.02419e-07
6.51254e-07
2.31757e-08
-3.5633e-08
-2.46722e-06
-2.83373e-08
0.00150297
0.00607052
5.0301e-08
-2.11419e-06
-4.3219e-06
-0.000545161
-0.00011813
1.22552e-06
6.02982e-06
-0.0110711
1.42772e-07
0.00340331
-1.29982e-06
0.000784761
4.76884e-08
-1.53125e-08
8.57429e-08
-3.84466e-06
5.79375e-07
-5.10447e-06
1.23772e-07
-2.38645e-08
-3.8551e-06
-8.67408e-06
-3.28598e-08
0.0261957
0.00154016
-1.78269e-08
7.59109e-09
-7.71654e-07
-6.75029e-09
0.00090725
-5.14134e-07
0.000428884
1.76623e-07
-2.05636e-08
0.000406287
8.00662e-08
0.00736883
-2.73681e-08
0.0103639
-1.25982e-06
7.13776e-08
-2.25387e-08
-3.43418e-06
-0.000135335
-0.000211839
7.27162e-08
-8.65181e-06
-5.60111e-08
5.72019e-08
-0.000102013
0.00679894
3.2274e-08
1.06521e-07
-2.0864e-06
5.24553e-07
-1.58199e-07
-1.49702e-08
-7.79259e-07
1.89702e-08
5.70103e-09
8.62508e-09
-1.35623e-08
-8.10685e-05
1.37702e-08
1.02516e-07
1.76425e-08
-8.15974e-06
-2.00798e-08
-1.972e-08
-4.21825e-08
-3.48495e-08
9.4698e-08
-4.41581e-08
-9.96464e-08
-2.73197e-06
-4.49908e-05
-1.11005e-08
-6.13293e-08
-0.00545964
-1.55699e-07
-3.01305e-08
-2.62968e-08
-0.00981162
0.000509013
1.66407e-08
1.21936e-05
-0.00080129
-6.26912e-07
-1.74035e-05
-1.26401e-08
-0.000265907
-6.74864e-06
-6.83206e-06
-5.46259e-06
-0.0215698
3.0279e-08
-0.0174287
8.82342e-06
-1.08226e-08
-6.13124e-06
1.01758e-06
0.0334571
-4.58035e-09
3.21507e-08
0.00188925
-0.00281245
4.71736e-08
-0.00259078
-2.52695e-06
-2.39038e-08
0.00678893
-3.95573e-09
1.81585e-07
-2.39929e-08
-1.94347e-08
-3.41905e-07
-1.64252e-06
2.12227e-07
1.70132e-07
-3.01878e-07
1.03764e-07
0.00311907
-0.00774887
-9.55627e-07
-0.014317
-0.00130515
4.13003e-08
-1.0338e-06
0.000482881
-0.000533133
7.32163e-05
-8.35923e-06
-3.51399e-08
-0.00169273
0.0147067
-1.55922e-06
1.03297e-07
-4.48322e-06
-2.95121e-07
-2.51641e-07
-2.99032e-06
0.00296999
2.60944e-05
-2.03893e-05
0.00346142
-1.74912e-08
-3.20961e-07
-5.13159e-07
-3.69654e-06
0.000812598
-1.20162e-05
-0.00433481
-9.58186e-06
0.00143775
-9.01075e-06
-3.52223e-09
-0.0184544
-5.80469e-06
0.00071316
0.0011916
-5.80689e-10
-6.02847e-08
0.000661022
-5.23909e-05
0.000804336
-3.55106e-05
-0.00232146
1.20518e-07
0.00238313
-0.0063075
-3.44761e-08
4.91491e-08
3.67192e-07
4.82461e-07
-1.66089e-08
-1.22813e-07
-5.30251e-08
1.01892e-07
-4.56111e-08
-1.31522e-06
3.31499e-07
-0.00152727
-4.91032e-07
0.0328758
0.0291004
0.00353879
0.00246236
-6.95103e-06
-2.22938e-06
-7.36416e-08
0.00150152
5.76662e-08
1.48163e-07
0.000707168
-3.55757e-06
0.00575963
9.92471e-08
0.00190973
-2.75459e-08
-1.64234e-07
-7.00652e-11
0.00841682
-0.000215905
0.000586831
-8.04653e-08
0.00464605
-2.06812e-07
-2.88995e-08
6.15597e-07
-8.19481e-08
-0.00985655
-1.2589e-07
-3.43887e-08
-0.00286223
-5.3386e-07
1.44753e-07
-4.6573e-08
2.49939e-07
3.40805e-07
0.0267846
0.002879
-3.69793e-08
-0.0155407
-3.06045e-09
-1.19647e-06
5.54317e-06
-5.03079e-08
0.00530308
-3.94447e-08
3.99908e-07
-5.02534e-08
-6.34096e-06
-1.52602e-06
-5.41563e-08
-0.00117582
0.000591227
1.90385e-08
-3.24284e-07
8.94735e-07
-3.77677e-08
-6.44927e-08
-5.02288e-08
-0.000108532
-0.0138093
-2.91259e-08
-1.36783e-06
0.00262679
-0.00102245
-0.0019031
0.0010875
-0.00291921
4.23888e-08
-7.00434e-06
-3.32341e-06
8.76381e-07
2.14176e-07
0.00124861
0.00022541
-1.75475e-06
-2.86774e-08
1.44562e-08
-1.59034e-08
-5.10532e-08
-1.49128e-08
-5.48725e-08
9.39042e-05
5.13241e-09
-1.46041e-08
6.71968e-07
1.46176e-08
-6.64792e-08
6.807e-08
1.00117e-06
0.000163396
-0.000197361
1.59497e-07
0.000997368
1.46501e-08
-5.34984e-07
5.11039e-06
-0.00353249
-1.06435e-05
-3.20893e-08
-3.89984e-08
-0.00896
0.00937604
3.18468e-05
3.47569e-08
0.0078866
-0.0015518
1.94491e-08
2.77563e-08
0.00321362
7.24882e-07
-2.12856e-06
1.56396e-05
-1.82553e-07
-1.3349e-06
9.48013e-09
3.44478e-08
-5.85362e-08
-1.04143e-07
1.26938e-07
-3.30681e-08
-0.00285225
1.1483e-08
0.00534639
0.00194507
2.03094e-08
1.22308e-08
9.0232e-09
-2.71557e-07
1.33619e-06
0.00518168
-2.36162e-08
-0.024167
2.69534e-07
8.66382e-07
7.62876e-08
-1.01527e-06
-1.47137e-06
-1.00794e-08
-2.30627e-08
-0.00246349
0.00978328
3.51776e-09
1.18226e-07
-3.70057e-08
-0.00789254
4.11684e-09
1.68654e-08
-5.48419e-08
-1.01548e-08
7.96177e-08
7.65777e-08
9.05742e-08
-3.8416e-08
-5.78702e-06
-2.58018e-08
-2.12946e-08
-6.05798e-06
-0.000433145
-1.42584e-06
-3.69465e-07
4.39822e-08
-6.37419e-08
-2.65969e-08
-2.19179e-06
0.00185145
0.00118875
-4.58155e-08
-0.00220811
4.84241e-08
-1.09572e-06
-2.4742e-07
-4.10756e-08
-1.6636e-06
3.7566e-08
-8.89744e-08
-0.00521991
-3.07743e-08
-6.71719e-08
-1.51036e-05
-1.69341e-08
-7.60956e-09
0.0075914
4.35231e-08
5.01256e-05
0.000158573
-3.01649e-08
-5.83751e-08
1.03381e-06
3.47256e-07
1.36996e-06
4.73327e-08
0.0130581
-0.00274818
-0.00346286
1.30339e-08
-0.00802375
-1.93879e-08
-1.04765e-07
-5.54589e-08
6.55078e-06
-0.00908415
-7.40428e-06
2.81766e-07
-7.98174e-08
-1.55492e-06
0.00592012
0.00314658
-3.42781e-08
6.39752e-06
-1.42841e-07
-0.000537464
-4.51277e-08
4.36586e-06
1.51417e-08
5.27419e-06
-3.53997e-06
-3.46231e-08
1.83242e-08
6.80404e-09
3.14885e-08
-1.56352e-09
0.000451782
0.000378972
-0.00679835
1.16673e-05
6.86758e-07
-4.98552e-08
-1.75011e-09
0.0057605
4.14026e-05
3.54378e-08
-2.27399e-06
-0.000301772
-0.00327279
-8.85824e-08
-6.49976e-08
3.05754e-07
0.000113216
-2.15386e-08
0.000311525
2.59427e-08
8.00189e-08
-7.374e-07
-3.23855e-08
-2.50957e-08
-1.03898e-06
-2.65269e-09
3.91847e-07
0.000999505
-1.70103e-06
0.000611872
-8.43059e-07
9.14242e-08
-3.67559e-05
-1.47585e-10
-7.95384e-05
-0.00241886
4.51614e-08
0.00122924
-2.09462e-07
-4.28789e-07
0.00230427
-0.00179319
-0.0020467
-0.000139135
3.19054e-07
-0.0113656
1.05534e-08
-0.022278
-0.000551024
-1.95071e-06
2.45107e-07
-0.000189513
-1.25849e-07
6.71155e-06
-0.0133551
0.0229516
-6.2537e-08
-0.00349032
-6.54487e-08
-2.55904e-06
-5.87617e-06
6.60496e-09
-6.978e-07
0.000886213
3.06703e-05
1.10858e-06
1.87801e-07
-1.69638e-08
9.20636e-08
-1.93774e-06
-8.64968e-07
-5.09643e-06
7.80152e-08
-2.44764e-05
7.09294e-07
7.92315e-08
-3.51157e-07
3.84902e-09
-0.000474928
-1.79247e-08
3.38125e-08
0.0256708
1.25443e-09
-4.14037e-07
0.00191413
-1.92356e-07
2.18521e-06
-4.45724e-08
-1.74517e-08
-2.49154e-06
-8.95056e-08
0.000418147
-1.4883e-07
7.53243e-07
5.96021e-08
1.44298e-07
-1.94257e-08
-0.00254997
4.13931e-09
-0.00675221
-8.03658e-06
-5.36417e-08
-0.00774585
-2.75976e-08
1.0385e-06
1.03164e-06
0.0215907
-1.61671e-07
0.004144
0.00181736
-4.40539e-08
0.00232496
-4.18682e-09
-0.0113382
-7.70123e-08
3.31829e-08
0.00461029
0.00178786
-2.71406e-08
-1.22791e-07
2.65324e-07
-3.7321e-08
-4.25325e-08
0.00141953
-0.00257142
1.03163e-07
-3.62156e-08
-2.47528e-09
0.0229549
-7.0879e-06
-3.11e-05
2.71258e-09
0.000133822
3.48103e-08
5.6545e-09
-5.7722e-07
0.00378569
-3.49425e-08
-2.36188e-06
0.0157301
-8.5043e-08
0.000424781
-3.2902e-08
4.1235e-08
-3.43456e-08
1.61335e-08
-3.16052e-07
1.14864e-07
-3.83491e-06
-5.05261e-08
0.011333
-3.15865e-08
-1.64618e-07
-5.71274e-06
1.88492e-05
-2.44774e-06
-7.54022e-08
1.38753e-07
0.00246632
0.000209242
3.23893e-06
-2.32763e-08
1.37682e-08
1.04791e-06
0.0103907
0.00203254
9.02079e-08
-2.62105e-08
1.97773e-07
-1.21199e-07
-9.43197e-07
-5.04523e-08
-2.39183e-08
-0.00223974
-1.96266e-08
-7.9942e-09
0.00191733
1.52936e-08
0.00466718
-4.86967e-06
0.00470522
0.0371963
0.00117823
-0.00196174
-4.29784e-08
8.40779e-09
4.50971e-07
5.19895e-08
-3.54459e-08
-1.27124e-08
-4.20395e-08
8.90831e-08
0.00515275
5.01944e-06
0.0150739
3.49866e-07
7.15245e-09
1.06887e-07
3.1372e-07
-3.01982e-06
-1.09163e-07
-9.59568e-07
-5.66638e-09
-0.00138431
0.00592947
-0.003826
3.47915e-08
-6.24297e-06
-6.82722e-06
0.00033078
0.00818109
0.00838556
1.4973e-07
2.91834e-07
-3.63046e-07
-0.0187006
5.80579e-08
-1.42361e-08
-5.21877e-06
0.0056301
-3.80765e-08
0.000525514
-0.000552638
-1.05007e-08
-6.09679e-08
-1.52359e-08
-4.73271e-08
1.07569e-08
6.07697e-07
-5.77747e-07
-3.05753e-08
5.59613e-08
-0.00478193
-0.00119884
5.9141e-09
8.61097e-05
-0.00729207
-4.72354e-07
5.79851e-07
6.42658e-08
2.31479e-08
-1.10369e-07
-4.92691e-07
-5.4225e-08
-3.40836e-09
6.09092e-07
5.67417e-08
0.00511282
-1.47081e-07
-5.27918e-08
-9.31384e-08
-0.00577662
-6.16749e-08
-4.98207e-09
0.0169413
-3.79241e-08
-1.13923e-06
-3.14853e-07
-1.42847e-08
-2.70052e-08
-2.21906e-08
8.71262e-07
-9.36343e-07
-6.6174e-08
0.00132126
-3.2518e-06
-7.05493e-06
0.00397726
1.9538e-07
-3.37009e-05
1.12279e-08
0.0118173
-4.37804e-08
-3.17168e-08
4.50267e-06
0.000342196
-1.16656e-07
-0.0148743
0.00567468
-2.84738e-08
-6.51946e-07
-1.80443e-10
-4.97282e-08
-3.98659e-08
-1.56452e-07
-3.1011e-09
7.37577e-05
-1.9876e-08
6.25833e-08
0.00263963
1.17903e-07
-4.18666e-08
-2.72624e-08
0.00643009
-1.17771e-07
3.27471e-07
-4.85858e-07
-0.00215271
0.00235541
1.81615e-05
-0.00345208
4.07647e-08
-2.74545e-09
-1.73111e-08
0.0218567
-6.01637e-09
-5.57024e-08
7.76805e-09
-4.88806e-09
-0.0078916
7.11556e-08
-4.66987e-08
-0.00181829
-5.435e-08
9.38727e-07
4.76391e-05
-4.08298e-09
-3.86613e-08
0.000408378
4.32631e-07
-0.00239672
-0.00698387
-4.0602e-09
-4.2208e-08
-2.67791e-05
-3.35905e-09
-1.32801e-08
0.000409086
-3.91464e-08
0.00066715
-1.4376e-08
-5.22576e-08
7.54733e-09
1.681e-07
-1.7803e-07
-0.00367405
-6.35896e-08
-9.3375e-09
0.000139194
0.00174873
-1.01329e-06
1.19426e-06
2.16279e-05
0.00286937
-0.00942087
-1.96909e-08
0.00218567
-9.47948e-09
0.00279277
-0.00579363
2.18987e-08
1.49143e-06
7.67834e-08
0.000242423
-1.73983e-08
0.02026
1.32046e-07
-0.000401067
8.50531e-06
-3.871e-08
-3.24339e-08
-3.06562e-08
-0.0117437
-0.00568639
5.69828e-08
0.0152944
-7.61726e-09
-3.62981e-08
0.000377968
3.13791e-09
-0.00311079
-4.58891e-08
4.81235e-08
-3.38956e-09
-4.41725e-08
-1.20681e-08
-9.66891e-09
-4.30176e-06
-9.61948e-09
1.21123e-06
-8.52868e-07
6.15408e-08
-1.43437e-09
-0.000586899
-1.44359e-08
-0.00389624
-4.31637e-08
0.00608193
-2.80093e-07
0.00129916
2.66216e-08
7.68332e-08
-2.72912e-08
-0.00539111
-1.03678e-07
-0.00173364
-1.90167e-06
-4.96192e-08
-3.26239e-07
-1.51433e-08
9.75519e-10
-2.45782e-08
1.99279e-08
0.000337761
6.83092e-08
1.65888e-07
-3.265e-08
-1.86764e-10
0.019216
0.0161459
-5.41127e-08
-2.56981e-08
5.28338e-07
6.82686e-08
-5.2585e-08
-1.69046e-06
-1.0241e-07
-3.43064e-08
5.01781e-08
7.25199e-08
-1.12568e-06
-3.25707e-06
-4.60156e-08
2.86616e-08
-1.79806e-05
7.91498e-07
-0.0230458
0.0104411
6.70083e-08
0.0134701
3.94575e-09
1.12013e-07
-9.87351e-07
3.41572e-07
-1.5842e-05
4.60626e-08
-1.03248e-06
0.00121585
-2.03642e-06
-1.59439e-05
-0.00989583
-0.00166593
1.82797e-06
-3.56712e-08
-4.91753e-08
-0.000169028
2.96258e-09
-6.07542e-08
-7.13828e-07
0.000109071
-5.07715e-08
-2.75379e-08
-0.00213248
-1.63818e-07
-1.29296e-06
-2.71239e-07
2.03259e-08
-3.78712e-06
-4.20889e-08
-1.58933e-07
-1.45096e-08
1.14962e-07
-1.50172e-06
4.06939e-09
-2.25653e-07
-0.00144557
-4.62471e-08
6.9805e-10
0.00150195
-3.71558e-08
-5.41256e-08
-1.02862e-07
6.25681e-08
6.00991e-07
0.000225749
-6.10946e-06
-0.000127055
-0.000529934
0.0318555
-0.00249933
-1.41015e-06
0.0102238
0.000397955
-1.1133e-07
-2.76479e-08
-4.09053e-08
-4.94595e-08
7.29817e-08
6.88457e-07
-2.39465e-06
-7.15545e-06
-6.52029e-08
-9.81564e-09
2.54973e-06
-1.45569e-06
-0.00267342
-4.2484e-08
-1.28403e-07
2.56195e-09
2.76103e-06
0.000546884
-6.12622e-07
0.0100294
-4.18127e-08
-2.92146e-09
-5.63857e-06
-1.78959e-06
-1.70743e-08
-6.32193e-06
-1.22907e-07
4.95328e-07
7.11524e-05
-4.86244e-06
-4.36967e-07
-1.08179e-07
1.5694e-08
1.40052e-07
1.97382e-08
0.00153811
-3.76735e-06
-0.00594337
0.00243133
0.0214138
-3.97717e-08
0.00754564
-0.0169058
-0.00885083
6.67792e-06
-0.028809
-7.33505e-07
0.00121502
-7.53407e-06
5.01152e-07
3.46459e-08
-6.26056e-08
-4.07124e-08
2.65304e-06
-2.68449e-08
-1.13265e-07
4.17295e-05
0.0058318
-0.0198515
-8.26718e-05
-4.3803e-06
0.00361128
-1.37281e-07
-1.35534e-06
3.11929e-09
-0.00233853
0.000140585
-6.74807e-09
-5.04124e-07
0.00793067
-0.00140782
-0.000423066
-5.61814e-07
-1.08323e-06
2.18048e-10
0.00357191
-4.41903e-08
0.00162039
-0.00383229
2.04562e-06
9.88355e-07
-7.48384e-06
-3.61155e-08
-4.27443e-08
-0.000737022
0.00277892
1.10981e-06
-1.62806e-07
-1.44716e-06
3.86786e-08
0.00118186
-3.75137e-08
-0.000205198
6.40097e-08
-0.00239313
0.000902431
7.4982e-07
0.00157952
-4.4898e-06
-0.00571531
7.6246e-10
-1.64958e-06
-0.0227809
-4.12765e-07
-3.17912e-08
-0.00790705
-0.000584217
-6.21647e-08
-1.40458e-08
0.0004628
1.21763e-06
1.4973e-07
0.00923674
0.000619603
5.62524e-07
-6.19978e-07
0.0260931
-7.24338e-07
3.52955e-07
3.1829e-07
0.00142633
7.8204e-07
-2.4263e-08
2.91074e-08
0.00186536
-2.62884e-08
0.0396746
-1.35156e-08
2.11091e-09
-0.00163911
-4.70291e-07
-3.71452e-08
6.73316e-05
-1.85568e-08
8.07607e-08
7.39379e-09
3.06645e-08
-4.70951e-08
9.0216e-07
2.95151e-08
-7.19596e-05
1.0082e-05
0.00468706
0.0047206
2.16811e-07
-3.96446e-09
-2.65937e-08
-0.0276883
-1.20095e-07
2.24277e-07
0.0013267
-2.48882e-07
-0.0263829
2.71081e-08
-1.16481e-08
-6.56547e-09
8.77372e-09
-2.34668e-07
1.65191e-08
5.88199e-07
4.44215e-10
-5.26656e-09
0.000879397
7.20796e-06
-0.000976608
-1.44774e-07
1.76335e-08
-1.53921e-06
-0.0202318
-0.0103813
-0.00326624
0.00811643
-0.00125657
-7.07471e-06
-0.0142475
-1.07898e-06
-1.44813e-06
-2.58439e-06
-0.00213908
2.461e-08
-3.04677e-05
0.00075528
-1.88521e-05
-4.9647e-08
-0.00435074
-1.4635e-08
-1.24386e-08
-4.92184e-08
-7.34095e-07
0.00649763
0.026784
-6.19638e-08
3.76174e-08
6.381e-08
-2.2933e-09
1.44118e-06
-2.76529e-08
-0.0172475
-4.49691e-06
-6.07943e-06
-4.49426e-08
-5.93099e-08
-1.65601e-08
0.00321509
0.000109217
-4.85774e-08
6.99321e-07
-0.0155863
-4.43809e-10
-2.31793e-08
7.10391e-09
-1.90039e-07
-4.79394e-08
-2.34819e-08
-1.86217e-08
0.00316362
-5.9659e-08
-5.25166e-06
-3.95399e-08
-5.34807e-08
3.46601e-05
-4.58247e-08
-0.00962783
-5.34573e-08
-2.02553e-06
-0.000249038
0.00109236
-9.68493e-07
-5.30009e-06
-0.000603403
3.4184e-07
1.27934e-06
-3.34242e-08
-3.52503e-08
3.24335e-08
-1.12828e-09
-5.06499e-05
-6.31423e-07
-1.00432e-07
1.23642e-06
3.38543e-08
8.71046e-08
-9.90872e-07
-0.00799431
-2.09149e-08
-1.92852e-06
-0.00101688
6.77065e-06
-0.0079913
-6.70565e-09
8.1713e-09
0.000148129
1.47476e-06
-1.72611e-08
-6.13559e-08
-1.78249e-06
-1.0189e-08
1.0741e-08
0.0158004
-4.43612e-06
-9.60869e-07
5.703e-07
8.88092e-07
-0.00792543
-1.67307e-07
0.00446689
0.0255476
-3.08943e-09
3.87214e-08
1.2735e-05
-2.67234e-07
3.0651e-06
6.24623e-08
6.09182e-06
-2.96231e-06
-2.34104e-08
8.91922e-07
2.15733e-06
-8.24872e-07
0.00607544
-0.000203249
-1.31135e-06
-0.00059705
5.54631e-05
-1.06728e-07
-0.00328892
0.0241466
2.05537e-06
-0.0129216
-3.52326e-08
8.58413e-05
-6.49905e-06
-0.00502411
5.25779e-06
-5.05185e-05
1.0478e-06
0.00191306
-3.00353e-09
-1.00418e-08
0.00212436
-3.8358e-08
-5.60127e-08
-2.14875e-08
1.11477e-07
-1.0686e-07
1.86131e-07
2.87595e-08
-4.5467e-08
0.0105116
0.000614509
2.62903e-08
-6.16361e-07
-2.47783e-05
0.00201169
-9.1804e-09
0.000290559
-3.61005e-06
-2.71528e-06
-1.08745e-07
-5.52971e-09
0.00296226
2.33418e-07
-2.77067e-06
-6.77055e-06
1.70287e-08
2.82673e-06
0.0124189
-7.32973e-08
0.00200107
0.00180562
-0.0150984
1.71271e-07
-5.68327e-08
2.67001e-09
1.2158e-08
-1.97142e-08
-0.000828899
-0.00883174
-2.60031e-08
0.00265034
-0.000763321
3.13833e-09
-4.36527e-08
-2.27308e-08
-0.00212717
-0.00297314
2.29364e-06
-7.97046e-06
-6.41902e-08
0.010783
-0.000188729
-1.24624e-08
5.50869e-08
-2.83678e-07
-1.33072e-06
0.0132801
0.00254436
-9.66483e-09
0.00272138
-0.000514968
-2.54015e-06
-1.5534e-08
-5.91621e-08
7.56884e-07
4.10675e-08
1.76795e-07
1.25337e-08
6.36165e-06
0.00114931
-5.69088e-08
2.01469e-09
-9.39199e-07
1.32556e-08
5.36979e-08
-9.65818e-07
-0.00268572
-5.93636e-10
-2.04e-07
-0.00628842
4.49577e-06
-0.000346749
-4.202e-06
-3.04478e-08
5.57121e-07
-1.46181e-06
3.04544e-08
-3.6804e-08
-2.24908e-07
0.000633419
6.89589e-06
1.3268e-07
-3.44008e-06
3.96492e-08
-0.0153714
-4.84998e-05
-7.37914e-08
0.0405215
-2.59358e-08
3.83722e-08
-1.35574e-05
-0.00498304
-1.28376e-06
7.55077e-08
-1.73254e-07
3.93036e-06
-4.31905e-08
0.0110569
-0.0239839
2.326e-09
-6.23664e-06
0.00234717
-1.13817e-07
1.49729e-07
-0.00232651
-5.78016e-06
6.15442e-08
0.000576208
-1.77096e-07
-3.08685e-08
0.000276615
0.000227156
0.00291554
6.64824e-09
0.00248442
2.22997e-06
-4.13875e-08
-2.1307e-06
-4.34236e-07
1.19796e-07
1.68422e-05
0.0320329
0.000154527
-3.20946e-06
-7.70984e-07
-8.80259e-11
-0.0121704
-0.000853269
2.74411e-05
0.0187415
-1.23626e-07
-0.000220659
-1.28739e-07
4.00762e-08
-2.79634e-06
1.77155e-07
0.00020423
-0.00253971
-1.09285e-08
0.00393887
-3.00389e-06
-0.00449448
-4.82801e-07
-5.1502e-06
-1.97675e-08
-4.37162e-07
2.54865e-08
-2.02634e-08
-0.0112931
0.0214165
0.00980014
0.00196088
-7.29694e-06
-0.000430567
-0.00415099
8.04372e-08
-3.12515e-06
0.0267601
-4.50406e-06
-1.24006e-07
-5.53877e-08
-9.4985e-05
-1.20377e-05
2.03106e-07
3.239e-09
4.08103e-08
1.30411e-05
-6.4764e-08
-6.26527e-06
-0.00181538
6.08385e-08
0.00956405
-4.74684e-08
-0.047781
0.00474507
0.0080023
-9.8116e-07
-0.000585721
8.53511e-07
5.84966e-08
1.26082e-07
-0.0023129
-6.07376e-07
-0.00496981
-1.02148e-07
-6.15241e-08
-4.98507e-06
-0.0147552
-9.17555e-10
3.2824e-06
0.0170874
-0.0249517
0.00026004
-3.78103e-08
-1.25094e-07
0.00159258
-2.02675e-08
-5.74667e-08
2.43107e-07
-6.62541e-08
2.84588e-08
-4.48121e-08
-5.39856e-08
-9.05658e-08
-2.87375e-08
1.18766e-06
5.57281e-06
-7.27159e-07
0.0194297
-0.00210651
5.75687e-07
-6.94568e-09
-1.82729e-10
2.92149e-07
-2.68989e-08
-1.35538e-09
-3.5914e-08
6.78599e-06
-2.28516e-08
5.22975e-08
3.62228e-07
4.52614e-05
-0.000136043
-4.14964e-08
3.21744e-06
-3.11557e-05
2.98953e-07
-0.000144172
0.000128265
-6.1141e-08
-4.00816e-08
3.17845e-05
1.83189e-05
2.91629e-08
-0.00106754
-0.0222714
-4.69103e-09
0.000204021
-2.57911e-07
-3.31684e-06
-0.00534564
-4.04591e-05
0.00110054
2.38014e-07
-3.87089e-08
0.000989645
-1.22019e-06
-0.00393083
5.96984e-06
-0.00139292
-0.030462
1.34642e-07
-1.65059e-06
-9.36619e-09
7.79817e-05
-6.76038e-06
-0.00220307
3.47354e-08
-9.83294e-08
-7.04853e-06
-1.73295e-07
0.00226412
1.17038e-08
0.0010637
0.0141792
-2.60897e-06
0.00249658
-0.00238533
-7.03996e-09
-4.94328e-08
2.63645e-08
0.000315881
0.00133442
1.23443e-07
-4.37682e-08
-1.08155e-08
-5.34777e-09
6.20779e-07
-1.51808e-09
1.53335e-08
-1.50728e-05
4.02904e-08
2.03678e-08
-1.31729e-06
0.00250142
0.0177955
-0.010326
-5.7872e-08
5.51145e-05
7.88071e-07
-2.95157e-07
6.85606e-06
3.70881e-05
-0.0024301
6.29112e-07
-1.0756e-06
-9.92497e-09
-1.50061e-06
6.5594e-06
-3.96783e-06
-0.00182484
-7.81979e-09
-5.30691e-06
-2.30511e-08
0.000202433
0.00138969
2.05196e-08
1.8658e-07
4.28199e-08
4.56802e-08
-0.00258555
-7.47294e-08
-1.44487e-09
-2.66934e-08
-1.97296e-07
-3.82041e-08
1.76071e-07
-1.36537e-09
1.67891e-07
-2.89318e-08
-3.67648e-08
-0.00453901
-0.00374014
0.00303264
-6.94525e-08
-3.55891e-08
-4.6051e-08
-2.97662e-08
-7.60713e-09
2.6778e-06
1.45094e-08
2.94401e-09
4.30008e-09
-1.8585e-08
-7.13514e-07
-1.5916e-08
-1.94361e-05
0.00723705
-1.96881e-06
0.0296927
-3.09496e-08
-0.00173954
-4.0563e-06
3.33419e-05
6.01934e-08
0.000262951
-4.38326e-08
3.235e-08
-1.25119e-07
0.000132664
-7.54662e-06
5.59044e-11
-3.32893e-05
-1.67928e-07
-6.80185e-08
-3.71672e-05
-0.00285448
2.03391e-06
-3.93878e-08
-1.25647e-06
4.43726e-05
-2.067e-06
0.0214187
2.80928e-09
1.88308e-07
1.04788e-08
1.16703e-06
-1.28255e-06
-0.00165992
2.46109e-06
1.86748e-08
0.00114268
-2.04312e-05
5.4863e-06
-3.29276e-08
7.42151e-07
-0.00141791
-8.85433e-08
-2.815e-08
6.66937e-07
-0.0141412
-2.52444e-08
-1.1565e-07
3.84738e-08
1.68857e-06
-6.01441e-07
-0.00154597
-1.34014e-07
-2.95977e-07
-3.19572e-07
0.0121094
1.5582e-08
4.98805e-09
-9.10299e-09
-6.48946e-07
-8.36402e-09
0.00832841
-0.00150129
1.62694e-06
0.00141171
-4.69915e-09
0.000936123
-9.36088e-08
-4.96982e-09
-2.37348e-05
-1.43709e-06
2.95699e-05
0.00240622
0.0361141
-0.00418493
4.21165e-06
-1.4459e-06
1.43206e-07
0.00468901
-5.0406e-08
2.2937e-06
-1.3688e-05
2.2364e-08
-0.000261529
0.000258205
0.000412647
-0.000175547
0.00208638
-0.00651996
-0.000734422
-4.72309e-06
-3.23985e-06
9.07081e-06
2.78492e-08
2.32598e-08
-5.61941e-09
-0.00279856
-0.00816897
0.000193451
5.9279e-07
3.64955e-07
0.000403846
3.47304e-09
-9.27768e-06
-8.17364e-09
-1.0928e-06
-2.08327e-08
-1.88096e-08
-2.09688e-06
-1.64341e-06
0.00119474
1.96658e-06
-4.48738e-07
3.61389e-08
2.02805e-06
-0.00469746
1.93398e-08
-1.22275e-06
-0.0235479
-2.22358e-08
-9.15921e-07
-8.86922e-09
-0.00204562
-1.31571e-06
-0.0122779
-1.96942e-08
1.52286e-08
-4.03735e-07
-2.38483e-05
0.0177991
-5.56031e-06
0.00016286
-7.85627e-08
-7.85739e-08
-1.12299e-07
-4.98617e-08
1.28968e-08
-5.07944e-09
0.0122462
0.00870959
2.24635e-07
2.31187e-07
-1.62562e-06
-1.32879e-06
-5.57121e-08
-8.78724e-08
-7.18004e-06
-4.55366e-06
0.0015792
-1.46056e-07
0.00045343
-7.1517e-09
-3.83175e-06
-4.30524e-08
-1.98525e-06
0.017055
0.00221388
-0.0021227
-2.03036e-08
-8.03909e-08
-4.36708e-09
-6.11348e-08
1.98769e-08
-5.28052e-08
-0.0233241
-1.09011e-08
-3.33008e-07
1.56717e-07
2.67879e-06
-3.94537e-08
-0.00446633
0.0150075
0.000935869
-1.33128e-07
0.0297901
8.43886e-09
-0.000569148
-0.0141382
4.20337e-08
0.00148713
-1.21831e-07
-4.03231e-06
-5.40709e-08
1.82618e-06
-5.73288e-07
3.41468e-07
-8.2534e-06
-0.00222197
1.18834e-06
3.87696e-06
-1.77587e-06
5.61242e-08
-2.35698e-09
-0.00431132
1.03709e-09
-0.00542638
-3.59497e-07
0.00522046
0.0118886
0.00178926
1.76925e-07
-0.00132958
1.81125e-07
-1.00547e-07
-2.78016e-08
3.50537e-07
-4.75516e-06
-1.84104e-09
0.000985114
6.00917e-06
-8.20565e-06
-3.9391e-08
-1.72446e-06
0.0308325
0.0023545
-0.00278986
-1.39844e-07
-4.24601e-06
0.000714282
0.00885217
3.42791e-08
2.96857e-06
-0.0024216
-4.65128e-06
-1.98999e-05
4.3328e-08
3.89229e-07
0.00265643
-2.48089e-08
0.000728972
-2.46809e-06
2.47271e-08
0.000841525
0.00119703
0.0162301
3.20174e-06
-7.07813e-06
-2.08048e-06
-1.70835e-10
-3.66495e-06
-4.79297e-08
-0.000968947
4.77934e-07
-0.0354572
-0.000479621
-0.00115933
-0.00189078
4.85225e-06
0.0125989
-1.20272e-07
4.25731e-07
-0.00322364
0.00151133
-2.5129e-08
3.55508e-07
4.41737e-08
-1.98765e-06
9.76934e-09
-3.68576e-08
0.0179062
-8.80618e-09
-2.64523e-09
1.03437e-06
3.29636e-07
1.03739e-08
-2.76065e-05
0.000929112
1.12014e-06
-5.48397e-08
-2.94435e-08
-6.35596e-07
2.05601e-07
-1.73906e-08
-2.6544e-10
-3.15837e-09
0.00845343
-2.01522e-07
-2.49963e-06
1.20147e-06
-8.54764e-08
-1.66111e-08
0.0105885
-4.87208e-06
0.000431785
4.1424e-07
1.24992e-08
-1.14998e-06
4.85488e-09
-4.52888e-07
-0.00657657
-4.40161e-05
2.1919e-06
-1.50903e-07
1.12307e-08
4.03225e-07
-0.00406007
0.000302002
0.000955247
-1.36649e-07
2.00852e-08
4.84149e-10
-1.06312e-07
-0.000493062
0.00636772
5.13448e-08
0.000248121
-1.69943e-08
-5.18217e-08
-6.80345e-06
-4.31366e-08
0.00142215
-7.33954e-06
-0.0019702
-3.86613e-08
-2.23965e-06
-2.1293e-06
-0.00757258
1.91858e-08
-4.26478e-07
1.95435e-05
-0.000107214
0.000417488
-0.00197617
-0.0358358
8.37253e-07
4.62368e-05
-8.976e-08
9.72156e-06
-0.00400614
-1.58201e-06
6.91166e-09
-5.3862e-08
-5.24658e-08
0.00358132
0.00549559
4.27723e-07
-0.0234383
-4.44979e-08
1.1811e-08
-1.86841e-08
-9.53465e-06
-2.92386e-06
-0.0204391
-4.59099e-08
1.25685e-07
-4.93467e-07
-0.0130687
3.09117e-09
0.000657993
3.66803e-07
-3.60635e-06
-0.0209391
-1.49985e-08
-0.00588088
-8.19609e-05
-0.00365373
-0.0246267
4.44573e-07
-1.43937e-07
-2.42599e-07
-0.0016484
-1.6693e-05
-9.85393e-08
0.00705915
0.000251847
-1.95034e-08
-3.11393e-08
0.015786
-1.36066e-08
-0.00361222
0.00706377
-6.32618e-08
-6.36614e-09
4.38982e-07
-1.1682e-06
0.00910412
-4.24214e-09
-2.04293e-06
-7.00515e-07
-0.024233
-0.00809009
-3.90582e-09
-5.99546e-09
2.07257e-06
9.02515e-07
-4.91361e-08
-1.23131e-07
-1.04632e-08
-3.89153e-06
-4.3524e-09
-0.00509596
-7.22445e-09
-2.26556e-08
5.49771e-07
2.62034e-07
4.33054e-07
-1.07384e-06
5.39688e-05
-0.00384338
0.00188219
-2.49287e-08
-9.3001e-10
-0.00227747
-1.96708e-06
-4.04446e-06
0.0176758
-1.50338e-06
-0.00209796
-0.00154595
7.18377e-09
-0.00891312
0.000252223
8.82059e-08
-4.85517e-08
-4.52938e-08
-4.35207e-08
0.0106076
0.000608465
1.5832e-08
-0.0119423
-0.00457916
0.0136766
-3.85741e-08
-4.05278e-08
-0.0168743
-8.2833e-09
4.59423e-08
2.1933e-08
4.36668e-08
-0.00147076
-3.76808e-10
-0.00511771
0.00088397
1.59837e-07
-2.53151e-05
-7.40254e-05
0.0253735
4.82876e-05
-3.88514e-09
5.32074e-07
6.13226e-07
-0.0247236
-5.11073e-05
0.000308898
4.12554e-09
-4.37058e-08
-6.91245e-06
-1.15617e-08
0.0249358
-0.00368853
5.06378e-09
-0.0038669
2.93943e-08
-0.00174201
-1.05424e-07
0.000464268
1.041e-07
0.0207346
-9.43068e-07
-0.00135464
0.00713258
-6.14126e-08
-0.0128723
0.014481
1.35861e-07
-0.00257772
5.16953e-08
-1.43472e-08
-5.6794e-08
2.78741e-07
3.94527e-07
-6.14303e-08
2.13695e-08
-0.000337119
-2.27186e-06
-1.93711e-06
-0.0156536
-4.0139e-06
1.31316e-07
-3.78971e-07
-2.53797e-06
-2.71783e-08
6.76348e-06
-0.00772834
-5.83159e-05
-0.00357596
-8.63668e-07
-1.65996e-07
1.5428e-07
-8.62763e-06
2.98259e-07
-3.57145e-08
0.000780803
-0.00106687
0.0155229
-2.04924e-07
-6.22558e-08
-2.65917e-06
-3.85232e-05
2.09891e-07
-6.46488e-09
-8.67365e-07
2.65981e-07
-2.21091e-06
-1.39281e-08
0.000691521
-4.92922e-08
-0.00905217
-4.01566e-08
0.000473944
0.00116871
0.0264432
-5.9375e-08
5.30903e-06
-9.37916e-08
2.54358e-08
-5.47241e-06
0.000860832
3.71642e-08
-1.3426e-08
-0.00194887
-7.46409e-08
-3.94675e-06
-0.00207044
1.21872e-06
0.00097273
4.16923e-08
0.000897275
-5.44378e-07
0.0412429
-5.9538e-09
-8.04061e-08
0.00644589
-4.72385e-08
0.00248075
5.1438e-07
2.66206e-07
-0.00694549
1.80651e-07
-4.45887e-08
3.80312e-08
-1.25377e-08
0.00286842
-0.00431969
3.57784e-08
0.00077613
-2.04252e-05
-1.85046e-05
1.29438e-08
0.00191803
0.00110508
1.05496e-07
-6.60435e-07
-1.20609e-08
-0.00877798
-5.54127e-09
-0.025257
-1.00395e-08
2.29992e-07
2.19012e-07
-5.94408e-08
-4.03973e-09
1.7094e-05
7.90979e-08
3.78186e-08
-0.00033556
3.53219e-08
-5.63571e-07
-2.64001e-07
-0.00182195
-7.90778e-06
8.44526e-08
1.50553e-06
2.3576e-08
-6.46931e-09
4.73963e-07
-0.0523113
0.00118102
-0.00103146
-0.0210884
1.01663e-09
-1.07825e-07
-1.67128e-07
-2.47858e-09
-3.37173e-08
0.0281067
3.09529e-08
-1.33095e-06
2.06054e-06
-4.04816e-07
0.0107037
-4.566e-08
-1.92468e-10
0.00745772
-5.39164e-05
-5.853e-08
-9.24966e-07
3.77161e-08
-2.67829e-05
-3.31623e-08
3.04542e-07
-0.0016608
4.29662e-07
0.000984139
5.16801e-05
-2.41267e-08
1.12565e-07
-0.023595
7.02282e-07
-3.60485e-06
-0.002825
0.0131284
2.17441e-07
-1.2343e-06
4.66206e-07
-0.0192859
4.63592e-07
-0.00690493
0.00276031
0.013379
-0.00574885
-1.48968e-07
2.38635e-09
-3.7496e-08
0.00111052
0.000485756
-2.39041e-05
-0.000453416
-4.0678e-08
-0.00507319
-1.72468e-08
-0.00983863
-7.88701e-08
-7.72684e-07
-7.93972e-06
-6.03283e-07
4.6809e-07
6.37853e-06
2.66497e-10
6.67852e-08
-3.59392e-08
-2.9398e-06
1.43342e-07