/*--------------------------------*- C++ -*----------------------------------*\
| =========                 |                                                 |
| \\      /  F ield         | OpenFOAM: The Open Source CFD Toolbox           |
|  \\    /   O peration     | Version:  v2012                                 |
|   \\  /    A nd           | Website:  www.openfoam.com                      |
|    \\/     M anipulation  |                                                 |
\*---------------------------------------------------------------------------*/
FoamFile
{
    version     2.0;
    format      ascii;
    class       volVectorField;
    location    "1000";
    object      U_0;
}
// * * * * * * * * * * * * * * * * * * * * * * * * * * * * * * * * * * * * * //

dimensions      [0 1 -1 0 0 0 0];


internalField   nonuniform List<vector> 
18758
(
(1.02143 0.00446818 5.42468e-23)
(1.05675 0.0448118 -1.05607e-21)
(1.00321 -3.84389e-06 0)
(1.02225 0.00329043 7.90239e-22)
(1.00515 -0.0120018 1.07131e-21)
(1.00751 0.000203998 0)
(1.01677 -0.00494165 -7.83347e-22)
(1.02655 -0.0188593 -2.0152e-21)
(1.0066 -0.0119987 -3.87898e-21)
(1.00865 -0.0130583 1.47128e-21)
(1.06182 0.00733086 -5.98711e-22)
(0.985884 -0.221287 -8.36497e-21)
(0.984131 -0.0671459 -1.43977e-21)
(1.03785 -0.0139702 -5.15548e-21)
(1.01621 -0.00472273 0)
(1.01329 -0.00212731 -6.35699e-22)
(0.972978 -0.238382 -1.37739e-20)
(1.01198 0.00127604 4.22598e-23)
(1.01599 -0.00451069 0)
(1.01426 -0.0122965 -3.11189e-22)
(1.04897 0.112102 -3.46533e-21)
(1.02778 -0.0239722 -5.94656e-22)
(1.00691 0.000144204 0)
(1.0068 0.000194888 0)
(1.01772 -0.023663 -1.96845e-21)
(0.979383 0.0546393 0)
(0.886782 -0.304125 9.03266e-21)
(1.05096 -0.12815 4.03509e-21)
(1.08708 -0.0409909 -5.77513e-21)
(1.0429 0.0928971 -2.33281e-21)
(0.691625 -0.192733 -8.71088e-21)
(0.889538 -0.293869 0)
(1.02628 -0.0179831 0)
(0.737275 -0.0219697 0)
(1.00294 -0.0101705 0)
(1.05486 0.0742045 -2.77094e-21)
(0.990957 -0.0736373 0)
(1.00436 -0.0101473 1.59732e-22)
(0.870983 0.185355 2.48391e-20)
(1.0148 0.00343711 -6.06352e-23)
(0.960729 -0.0852107 -1.95015e-21)
(1.01081 -0.0161252 6.51012e-22)
(1.01124 -0.129892 -2.34495e-21)
(1.01046 -0.00181426 9.72205e-22)
(1.01102 -0.000723174 7.91403e-23)
(0.656606 -0.153878 -1.71102e-20)
(1.01167 -0.015161 0)
(1.08856 -0.0479876 1.95526e-21)
(-0.0331882 -0.0982773 0)
(1.02152 -0.000710175 -8.57799e-22)
(1.0672 -0.00192563 1.65017e-21)
(0.274235 0.258188 5.97475e-23)
(1.0215 -0.00208136 -8.09098e-22)
(1.01955 -0.00883534 -1.58196e-21)
(1.05783 -0.022759 0)
(0.985735 -0.0574675 6.82343e-22)
(1.01018 0.001366 0)
(1.01482 -0.0119947 -5.3586e-22)
(1.0841 -0.0511201 -1.88036e-21)
(1.01024 0.00144466 0)
(1.01036 -0.000580341 0)
(1.01017 -0.00152617 -9.63067e-22)
(0.88164 0.268547 0)
(1.0015 -0.382662 1.34549e-20)
(1.00986 -0.000529948 -8.15793e-24)
(0.52659 -0.0799798 8.30506e-22)
(1.00638 -0.000241909 -7.73325e-23)
(1.01048 0.00143214 0)
(1.04485 -0.12845 -4.14362e-21)
(1.01204 0.00135832 -2.97233e-23)
(0.254105 0.275726 -1.55506e-21)
(0.838032 0.0775366 2.44551e-21)
(1.01447 -0.00504693 2.77261e-22)
(1.00867 -0.0193529 0)
(0.946566 -0.0261689 -4.74947e-21)
(0.683792 -0.234182 1.55402e-20)
(0.851592 0.277304 4.13449e-21)
(0.945107 -0.243413 0)
(1.00739 -0.0134418 7.69478e-22)
(0.997994 -0.12994 3.00811e-21)
(1.07577 -0.0292427 -9.53661e-21)
(0.84154 0.160584 -1.22092e-20)
(0.963868 -0.231198 -1.47822e-21)
(0.978419 -0.0295363 0)
(1.01241 -0.00351958 -1.14244e-21)
(1.06457 -0.0279992 -1.1302e-20)
(1.05619 -0.01384 1.36962e-22)
(1.00701 -0.019204 9.57299e-22)
(0.879597 0.274405 1.27693e-20)
(1.0646 -0.0306477 1.27017e-20)
(0.265532 0.337057 1.23982e-20)
(1.01033 -0.000501485 1.85306e-22)
(1.07576 -0.0331051 1.28376e-21)
(-0.0389484 -0.111584 0)
(1.01433 -0.00483726 2.87348e-23)
(1.00813 -0.000994478 3.42694e-22)
(1.01347 0.00225178 1.83952e-22)
(1.07387 -0.0408968 5.40372e-21)
(0.92621 -0.272719 0)
(1.01202 -0.00401982 -4.76964e-22)
(0.664069 -0.196399 -9.85878e-21)
(1.00764 -0.00545465 -4.07882e-21)
(1.01055 0.00143186 0)
(1.00807 -0.000954358 0)
(0.523057 -0.0709517 3.7723e-22)
(1.02969 0.122233 1.02742e-21)
(1.08914 -0.0453008 0)
(0.232825 0.324132 -7.00347e-21)
(0.86973 0.246661 0)
(1.06826 0.104662 -7.56212e-21)
(1.01373 -0.00207553 -4.65095e-22)
(0.987701 -0.402637 0)
(1.02111 -0.00794225 1.2749e-21)
(1.00454 -4.47733e-05 -7.27096e-22)
(1.00824 -0.00411461 -1.41059e-21)
(1.07995 -0.217521 -1.22319e-21)
(1.07287 -0.0420576 -1.06251e-21)
(1.01052 0.0014304 0)
(1.11877 -0.254997 7.17858e-21)
(1.01454 -0.00389761 2.35806e-22)
(1.00538 -0.00011824 4.86171e-22)
(0.859413 0.280024 -4.87806e-21)
(1.013 -0.0035012 -6.81792e-22)
(1.00867 -0.000127659 -1.57898e-21)
(0.121446 -0.0299935 1.07554e-20)
(1.01947 -0.00845092 3.25068e-22)
(1.01048 -0.00121858 1.81101e-21)
(1.00861 -0.000143727 1.68787e-21)
(1.1116 -0.0233023 -3.12755e-22)
(0.0745228 -0.178844 0)
(1.08528 -0.048554 -2.10702e-21)
(1.00687 -0.000349078 0)
(1.03132 -0.0368744 0)
(0.137799 -0.0118227 -3.5265e-23)
(1.01516 0.00360979 -4.54766e-23)
(1.0058 -0.000205193 3.5655e-22)
(0.91581 0.33531 -1.33836e-20)
(1.01362 -0.00282223 -1.18585e-21)
(1.11679 -0.117669 -1.15496e-20)
(1.07698 -0.029682 1.6319e-20)
(1.02176 -0.0099052 -2.95505e-22)
(1.02045 -0.0492359 -9.74354e-21)
(1.06975 -0.0357791 0)
(0.8654 0.258917 0)
(0.13309 -0.0412891 -3.13011e-21)
(1.0747 -0.0319135 0)
(0.455473 -0.0743726 -3.2238e-22)
(1.10282 -0.0269846 0)
(1.06036 0.0196689 0)
(0.883672 -0.015528 3.17842e-20)
(0.162608 -0.152318 2.59024e-20)
(-0.0353241 -0.186734 9.55785e-20)
(1.02689 -0.00349267 -1.65517e-21)
(1.00231 -0.00714432 -3.19293e-23)
(0.956742 -0.119165 1.04489e-20)
(0.796204 -0.313721 2.2789e-21)
(1.07588 -0.0334257 1.08571e-21)
(1.11237 -0.0197151 -1.47313e-22)
(0.973632 -0.0167427 8.01999e-21)
(1.06335 0.029604 0)
(0.414123 0.356485 -3.31865e-21)
(1.00929 -6.84303e-05 -2.20726e-21)
(-0.0511219 -0.194251 0)
(0.447707 -0.06554 9.531e-22)
(0.662597 -0.0845914 -2.68482e-21)
(1.01127 0.00222418 6.86791e-22)
(1.00924 -5.89673e-05 2.15712e-21)
(0.356344 0.366393 0)
(0.100758 -0.166653 0)
(0.967761 -0.180579 -5.87365e-21)
(-0.0733752 -0.199076 0)
(1.00236 6.19844e-05 0)
(1.0925 -0.0411129 1.09194e-21)
(0.888531 0.122164 7.97723e-22)
(0.881845 0.245714 0)
(1.01113 -0.00371623 1.46897e-21)
(1.01438 -0.00476524 -7.34977e-23)
(1.08395 0.0432049 2.03708e-21)
(0.794369 -0.0119407 1.04949e-21)
(1.03744 -0.00465882 1.28591e-20)
(1.0097 0.00107623 8.97735e-22)
(1.0186 -0.00768321 1.7788e-21)
(1.06098 -0.0224805 5.38741e-21)
(1.0432 -0.0071966 0)
(0.723147 0.0489176 0)
(1.01832 -0.00224862 2.87196e-21)
(1.03121 0.108637 1.1693e-21)
(1.02765 0.00166562 -3.49733e-21)
(-0.0367591 -0.113376 3.6165e-20)
(0.720114 -0.0518078 0)
(-0.0489707 -0.196844 -1.21362e-19)
(1.01815 -0.00233325 -1.66315e-21)
(1.04438 -0.0939834 0)
(0.802729 0.206129 2.42921e-21)
(1.00977 0.00108243 -9.1811e-24)
(1.04143 -0.00758068 0)
(1.12593 -0.133116 -4.82444e-21)
(1.02638 -0.00332986 2.41726e-21)
(-0.0306657 -0.104802 -2.94365e-20)
(1.00589 0.000164312 -2.08629e-22)
(1.01385 -0.00191288 0)
(1.11929 -0.0152015 -3.66335e-21)
(0.876988 0.00820633 0)
(1.01312 -0.00169979 0)
(1.01386 -0.00222919 0)
(-0.0400533 -0.184689 -4.26e-22)
(1.01003 -0.0017783 1.07417e-21)
(1.00185 -0.00886031 -4.30277e-22)
(0.12587 -0.167423 0)
(0.00800592 -0.195896 -8.23094e-20)
(1.00423 9.36334e-05 -3.89588e-22)
(1.07645 -0.032843 -4.94683e-21)
(1.01467 -0.00220983 7.70461e-22)
(1.01468 -0.00295493 1.447e-21)
(1.01573 -0.0117153 0)
(1.01355 0.00235624 -1.78918e-22)
(1.01353 -0.000717934 5.24954e-22)
(1.07621 -0.033293 6.31639e-21)
(1.00831 0.000298455 -2.51779e-22)
(1.01026 0.00257319 -3.75189e-21)
(0.810928 0.193259 -2.08319e-21)
(1.01163 0.000495638 -1.95982e-22)
(1.0689 -0.0364025 2.46806e-21)
(1.12427 -0.0171663 0)
(0.871132 0.00092115 1.39717e-21)
(0.911306 0.181487 -8.30886e-22)
(0.94039 -0.0205459 6.33923e-21)
(1.06368 -0.0370232 -1.92883e-20)
(0.397692 0.366479 0)
(1.00996 -0.00175075 1.1443e-21)
(0.979296 0.0558886 0)
(1.07417 -0.0320996 0)
(0.8866 0.236984 -3.81944e-21)
(1.00531 -0.000182282 3.47209e-22)
(1.01075 -0.00172702 -9.05449e-23)
(1.0119 0.000653667 -8.18564e-22)
(0.953981 -0.0697927 0)
(-0.0242574 -0.0868825 0)
(1.13616 -0.152281 3.26886e-21)
(1.02392 -0.0125502 -9.29587e-23)
(1.01417 -0.00242284 0)
(0.957838 -0.0644759 3.17052e-21)
(1.10656 -0.10424 -5.06115e-23)
(1.00346 4.94508e-05 -1.20692e-21)
(0.812196 0.0229934 -1.07376e-20)
(1.19887 -0.0589994 7.115e-21)
(1.01091 -0.00167809 1.83491e-22)
(1.00755 -0.000875081 5.28454e-24)
(1.01173 0.0036914 -7.55539e-22)
(1.012 -0.00407797 -2.98393e-22)
(-0.0722783 -0.194101 1.33741e-20)
(1.01121 -0.00168564 0)
(1.00433 0.104849 -3.96482e-22)
(1.01234 0.000628092 1.66513e-21)
(1.00593 0.000107449 -1.05156e-22)
(1.17857 -0.158688 0)
(1.01081 0.00195137 -6.82929e-22)
(0.773161 0.087369 -4.4659e-21)
(1.01428 -0.000874284 0)
(0.82498 -0.309363 0)
(1.02199 -0.00673013 0)
(1.00885 -0.000100054 1.71313e-21)
(1.01104 -0.00172905 -2.04643e-22)
(1.04132 -0.0907954 8.18012e-22)
(0.855084 -0.220856 2.6835e-22)
(0.842656 -0.218551 -3.15783e-22)
(1.00891 -0.00011054 -2.04668e-21)
(1.11673 -0.107922 3.98713e-21)
(1.02729 -0.00333305 8.76942e-22)
(1.01296 -0.00603998 7.61843e-23)
(1.08114 -0.264685 0)
(0.456332 0.102251 -1.19133e-22)
(1.01304 -0.00596952 -7.05967e-23)
(1.00977 -0.00158791 2.7085e-24)
(1.01377 0.00685229 1.7181e-22)
(1.01614 -0.0115348 0)
(1.0398 -0.0306025 0)
(1.00876 0.000355315 2.83002e-22)
(1.01525 -0.00280981 0)
(1.03721 -0.0143199 3.09543e-21)
(1.00752 -0.000850495 7.17523e-22)
(1.00616 -0.000227001 -7.82627e-22)
(1.01463 -0.00217568 -1.06466e-21)
(0.377958 -0.0571051 -3.96346e-21)
(1.01652 -0.00476443 8.43517e-22)
(1.00968 -0.00157176 5.28247e-22)
(1.0108 0.000872788 3.86037e-23)
(1.10659 -0.0964201 0)
(1.00808 -0.000979797 -8.23462e-22)
(1.00804 -0.000954862 0)
(1.00269 1.86161e-05 1.26453e-21)
(1.03703 -0.00701285 0)
(1.01012 0.00122766 -4.93976e-22)
(1.00504 8.00237e-05 -5.85479e-22)
(1.00386 3.26303e-05 -2.59696e-22)
(1.01184 0.00550667 -3.95658e-22)
(0.904532 0.179325 9.04315e-22)
(1.0093 -0.000417286 0)
(1.00609 0.000125607 0)
(0.263965 0.075987 2.22608e-20)
(1.04774 -0.0167198 0)
(1.00509 2.08706e-05 -5.9935e-22)
(1.00514 2.40453e-05 0)
(0.850435 0.308789 -8.06396e-21)
(1.031 -0.03726 9.20721e-23)
(1.00975 0.00108122 -4.15308e-23)
(1.02885 0.00558633 0)
(1.01583 0.137069 0)
(1.00993 -0.00153967 9.9394e-22)
(0.979988 -0.0513649 8.19384e-22)
(1.0148 -0.00221009 1.63829e-21)
(0.823077 -0.232482 1.33285e-21)
(1.1268 -0.12172 -5.19452e-21)
(1.08439 -0.0845954 -5.26976e-21)
(1.08564 -0.0393356 -6.17526e-21)
(0.751735 -0.0284893 0)
(1.01044 0.00135198 0)
(0.857745 0.295849 -5.67024e-22)
(1.13621 -0.0109505 -3.95875e-22)
(1.00654 -0.000263484 0)
(1.08011 -0.0832767 4.89662e-21)
(0.976705 -0.0207215 -4.58577e-21)
(0.942143 -0.0678895 -3.34757e-20)
(1.01052 -0.00223558 -1.91011e-22)
(1.01038 0.00135207 4.52984e-22)
(0.030566 -0.190638 -3.70884e-20)
(0.895985 0.168811 -7.43684e-22)
(1.00882 -0.00142124 -2.26597e-22)
(0.0697268 -0.04378 0)
(0.96807 -0.0613296 0)
(1.01706 -0.0156015 0)
(0.0820355 0.0168583 -1.4209e-21)
(1.01043 -0.00209704 0)
(1.01105 0.00222644 -7.26745e-22)
(1.01444 -0.000937029 0)
(1.00486 -3.57126e-05 -4.65387e-22)
(1.01657 -0.00889503 0)
(1.01309 -0.00413504 -6.29486e-22)
(1.02739 -0.0190725 0)
(1.01014 -0.00191018 -1.07959e-23)
(1.01657 -0.00893535 1.1193e-22)
(1.02499 -0.0123447 0)
(0.786798 -0.363466 0)
(0.863514 0.316844 6.76187e-21)
(1.0136 -0.00235612 6.08095e-22)
(0.850469 0.301541 7.68543e-21)
(0.913014 -0.264583 -4.24801e-21)
(1.00871 -0.00138165 -2.90495e-22)
(1.06302 -0.0295305 -3.00373e-21)
(1.02614 -0.0466247 0)
(1.02676 -0.0392231 0)
(1.04046 -0.102265 0)
(1.0868 -0.161276 4.11253e-21)
(1.01823 -0.00200993 0)
(-0.0111473 -0.114695 0)
(0.82488 -0.23609 2.89296e-20)
(1.03553 -0.0063689 2.16007e-21)
(1.02515 -0.0120405 0)
(1.01471 -0.015305 0)
(1.01468 -0.00235532 7.25594e-22)
(1.01062 -0.00166542 -1.20935e-21)
(1.13714 -0.138595 0)
(0.819901 0.233044 5.44237e-22)
(1.04085 -0.129739 0)
(0.924985 -0.0162247 0)
(0.809424 0.244942 -5.56993e-22)
(1.01087 -0.00177141 0)
(1.05226 -0.0210837 1.06325e-20)
(1.0187 -0.0072801 -1.92449e-21)
(1.07392 -0.0438035 -3.31843e-21)
(-0.0360913 -0.104485 0)
(1.09076 -0.206068 -5.45268e-21)
(0.900601 0.239078 3.44335e-21)
(0.969985 -0.136763 0)
(0.978695 -0.0608593 6.77758e-21)
(1.08183 -0.170767 0)
(1.00537 9.54692e-05 1.5647e-22)
(0.63582 -0.0724898 -7.51945e-22)
(1.10425 -0.0235709 2.07548e-21)
(1.05273 -0.0237166 5.2853e-23)
(1.02803 -0.146613 0)
(1.00712 -0.000314602 7.79376e-23)
(1.00687 0.000196617 0)
(1.02735 -0.0303275 2.75618e-21)
(1.03138 -0.131231 0)
(0.823071 -0.0229607 3.37816e-21)
(1.07264 -0.279068 0)
(0.078659 -0.0542077 1.12457e-20)
(1.02446 -0.0127081 1.93318e-21)
(0.962928 -0.218673 6.34794e-21)
(1.08242 0.0811057 2.57659e-21)
(1.01347 -0.00216984 7.0223e-22)
(1.03523 -0.0146266 6.98407e-21)
(1.01618 -0.0102179 -1.3298e-21)
(1.00819 -0.000498634 -1.06774e-21)
(1.0053 -0.000121028 -5.4905e-22)
(1.01471 -0.00205657 9.52828e-22)
(1.02015 -0.00183182 0)
(1.00491 -0.000149275 8.56506e-22)
(1.00361 1.37152e-05 -1.28973e-21)
(1.01331 0.00387332 -4.05371e-22)
(1.016 -0.0423509 0)
(0.805281 0.00579099 -4.48734e-20)
(1.06078 -0.0212231 -4.85992e-21)
(0.883968 0.16103 -2.86691e-20)
(0.848586 0.137949 0)
(0.311569 0.00946704 1.37461e-20)
(0.776743 -0.0216146 2.67169e-20)
(1.11065 -0.0371829 -6.14794e-21)
(1.01218 0.00489763 -3.76011e-22)
(1.00671 0.000195946 0)
(1.01031 -0.137157 2.35861e-21)
(1.03463 -0.0149602 4.59625e-21)
(1.02314 -0.0128736 0)
(0.911395 0.299484 -2.4613e-21)
(1.07274 -0.0450662 3.27219e-21)
(1.09665 -0.023737 3.65541e-22)
(1.01064 0.00192664 0)
(0.797847 -0.360825 -2.74732e-22)
(1.01095 -0.000693636 0)
(1.04808 -0.0174514 -6.67229e-21)
(1.00972 0.001062 -2.26234e-23)
(-0.00881696 -0.105983 5.8069e-21)
(0.835232 -0.232521 -1.07975e-21)
(1.01918 -0.0921613 0)
(1.00388 4.36592e-05 -1.32994e-21)
(0.0608643 0.0223764 -4.48858e-21)
(1.07582 -0.0334734 5.56192e-21)
(1.01446 -0.00071859 9.26739e-22)
(1.00832 0.0002314 1.04657e-21)
(1.00423 7.44422e-05 0)
(0.905229 0.232786 -1.95732e-21)
(1.00391 4.00575e-05 -2.47541e-22)
(1.00509 9.31944e-05 1.13147e-21)
(0.6724 -0.122132 -1.52211e-21)
(1.06175 -0.0209033 -1.47526e-21)
(1.02362 -0.0130172 -9.12062e-22)
(1.01421 -0.0045498 -1.02473e-22)
(1.02412 -0.018028 -8.86101e-22)
(1.02475 -0.025663 0)
(0.877313 -0.37505 -4.90385e-21)
(1.12357 -0.00678241 5.57685e-22)
(1.0033 7.30326e-05 2.02524e-22)
(0.57777 -0.0791157 6.48683e-22)
(1.00976 0.00107494 2.46096e-23)
(1.01367 -0.00476169 -2.02168e-22)
(1.06542 -0.0377255 1.19418e-21)
(1.0165 -0.000159886 2.05016e-21)
(0.687373 -0.121947 -1.26281e-21)
(1.00323 0.000118877 0)
(1.02382 -0.0263696 -5.91178e-23)
(1.00318 2.83701e-05 0)
(1.08327 -0.192975 0)
(1.01234 0.00741037 0)
(1.01985 -0.00184216 -6.3022e-22)
(-0.00367544 -0.074442 0)
(1.03855 -0.0350575 -9.28324e-23)
(1.01103 0.00100099 7.4153e-23)
(1.05133 -0.0212489 -1.1437e-20)
(1.0087 -0.00325355 2.27839e-21)
(1.01322 -0.00185114 -2.30965e-22)
(1.00472 6.26999e-05 -7.21513e-22)
(1.01376 -0.000521248 -2.02397e-22)
(0.868178 -0.203701 -9.49662e-22)
(0.486124 0.36192 0)
(1.02798 -0.0061306 1.51687e-21)
(1.05481 -0.0416694 0)
(0.817867 0.269309 2.23514e-21)
(1.09822 0.0389066 0)
(0.900838 0.247932 1.22111e-20)
(1.19626 -0.0724549 3.31428e-21)
(0.899663 0.244666 -8.42204e-21)
(1.01054 0.00126657 0)
(1.10669 -0.0399867 -2.22271e-21)
(0.96507 -0.0658622 -1.42646e-21)
(1.0066 -0.0319734 1.07392e-21)
(1.02547 -0.0177357 1.05969e-21)
(0.987202 0.0207588 3.53615e-21)
(1.02055 -0.0338601 1.17355e-21)
(1.02001 -0.0107595 -3.52628e-22)
(1.00562 2.6718e-05 0)
(1.01675 -0.00506552 6.92599e-22)
(1.00815 -0.00107477 1.13587e-21)
(1.01634 -0.000170315 -6.35961e-22)
(1.0081 -0.00104907 4.50643e-22)
(1.01598 -3.18346e-05 -7.91812e-23)
(0.95334 -0.0365847 -9.46567e-22)
(1.00316 4.21852e-06 7.53682e-22)
(1.00958 0.000986886 6.43239e-22)
(1.07613 -0.0338661 -6.45833e-21)
(1.00699 -0.000336547 0)
(1.00307 2.97212e-05 0)
(1.0143 0.00336375 -4.79557e-22)
(1.00922 -0.00330383 1.34639e-21)
(1.01572 -0.0316154 -1.19976e-21)
(1.06126 0.120676 3.19021e-21)
(1.01008 -0.00186289 -2.42136e-21)
(1.06462 -0.0143446 0)
(1.00669 0.000109044 0)
(1.05988 -0.0228719 2.08508e-20)
(1.07918 -0.0124265 -1.92609e-22)
(0.570655 0.359599 -1.84821e-20)
(0.975711 -0.144702 0)
(1.01374 -0.000872724 4.07528e-24)
(1.01845 -0.00193789 -4.89969e-22)
(0.502012 0.358309 2.74982e-22)
(0.0922982 -0.00611449 1.75883e-21)
(1.01275 -0.0177208 9.55893e-22)
(1.01036 0.00163959 3.90158e-22)
(1.14594 -0.0394843 -2.29109e-21)
(0.387906 -0.067285 -4.89471e-22)
(1.01093 0.000903669 0)
(1.0074 0.000144768 0)
(0.392021 0.319141 -5.32337e-21)
(1.01572 -0.0123242 4.9124e-22)
(1.07818 -0.0285713 -1.42827e-21)
(1.00962 -0.0170971 0)
(1.00783 0.000788028 -1.01668e-21)
(1.05361 -0.042579 3.00513e-21)
(1.00765 -0.000926297 -7.23035e-22)
(1.01083 -0.00340138 8.46485e-22)
(1.01101 -0.000483454 0)
(1.00569 9.09517e-05 -1.75178e-23)
(1.0099 -0.00167054 -1.03481e-21)
(1.01075 -0.000643836 -9.99591e-23)
(0.871447 -0.234793 -1.45614e-20)
(1.00875 0.000747203 5.52197e-22)
(1.09338 -0.0442765 1.83736e-21)
(0.833016 0.272013 0)
(1.01118 0.00103549 -7.59499e-23)
(1.00886 0.00078835 0)
(1.00231 3.16587e-06 0)
(1.0467 -0.0257619 0)
(1.01707 -0.00168011 1.77868e-21)
(1.13048 0.00301879 -7.69157e-22)
(1.01217 -0.00409265 -2.87649e-22)
(0.747575 -0.0505684 0)
(1.02133 -0.0395571 -7.22811e-22)
(1.00627 -0.0302071 -1.13743e-21)
(1.00966 -0.000343421 0)
(1.0131 0.00333593 0)
(1.0116 0.00412594 0)
(1.02776 -0.0071459 0)
(1.02763 -0.00677654 0)
(0.395271 0.189274 -5.75545e-20)
(0.661134 0.104792 0)
(1.00742 -0.000798769 3.65485e-22)
(1.00982 -0.00165677 1.06697e-21)
(1.0362 -0.0067134 5.78218e-21)
(0.35817 0.375827 7.33885e-21)
(1.00984 0.00110459 -4.16432e-22)
(1.01387 0.00247402 -2.55956e-24)
(1.01592 -6.70438e-05 7.66123e-23)
(1.00956 0.000980985 -5.98197e-22)
(1.00954 -0.0014915 -1.08191e-21)
(1.00958 -0.000291965 4.9168e-22)
(1.01666 -0.0103431 -4.23144e-22)
(1.01317 -0.00196806 0)
(1.08613 -0.0538926 0)
(1.01219 -0.00403117 0)
(1.01528 0.0039548 0)
(0.978683 -0.109276 1.33407e-21)
(0.613329 0.36148 7.67849e-21)
(1.01684 -0.0101111 -1.49935e-21)
(1.0107 -0.00135175 9.77738e-22)
(1.01161 -0.00402885 3.78403e-22)
(1.00235 -1.71434e-05 -2.16165e-22)
(1.01435 -0.00410817 0)
(1.0144 -0.00316754 1.12488e-24)
(1.07912 -0.00939264 -5.97773e-23)
(1.04627 -0.0598937 7.62936e-22)
(1.03727 -0.0058408 -3.07728e-21)
(1.0066 0.185492 -2.43388e-21)
(1.01148 -0.00394619 4.26128e-22)
(1.06406 -0.0300161 3.13364e-21)
(1.01042 -0.00133692 -7.03031e-22)
(1.00585 0.0001262 9.37874e-22)
(1.07429 -0.0326494 0)
(1.01196 0.00139477 3.23627e-24)
(1.00557 8.44018e-05 -2.8456e-22)
(0.892834 0.297822 -1.47592e-20)
(1.00334 1.89574e-05 -3.26082e-22)
(1.04173 -0.00833038 0)
(0.928796 -0.0076081 2.25621e-21)
(1.0048 8.00321e-06 1.10394e-21)
(1.01745 -0.00314111 0)
(-0.0207555 -0.116967 0)
(1.01063 0.00141518 0)
(0.941285 -0.0231706 0)
(1.01714 -0.026067 0)
(1.0047 7.29176e-05 -3.67983e-22)
(1.00314 1.77934e-05 0)
(0.982173 -0.0275748 1.34896e-22)
(1.02209 -0.0194928 0)
(1.01819 -0.00167201 3.25942e-21)
(1.01104 -0.00361425 -2.65252e-23)
(0.808482 -0.263977 -2.14759e-20)
(1.01768 0.200763 7.94468e-21)
(0.90036 0.229303 9.03136e-21)
(1.00781 -0.0010057 -1.5583e-21)
(0.325921 0.101541 -2.36351e-20)
(1.00947 0.000900834 0)
(1.00418 7.4879e-05 3.80684e-22)
(1.01256 -0.00405819 0)
(1.01885 -0.00458799 0)
(0.70165 -0.0760573 0)
(0.98848 -0.128685 0)
(1.01291 0.00139149 2.19687e-22)
(1.04204 -0.00704448 7.38588e-21)
(1.01375 -0.00411024 1.76122e-21)
(0.77884 -0.378737 0)
(1.1306 -0.042303 8.74597e-22)
(1.01169 -0.00155461 7.73961e-23)
(1.03095 0.00843587 0)
(1.04654 -0.0187034 -7.51573e-21)
(-0.0228026 -0.0934535 1.5785e-20)
(1.0327 -0.035961 0)
(1.01204 -0.0227183 3.93829e-22)
(1.00883 -0.00144381 -9.459e-22)
(1.01802 -0.00555993 7.30201e-22)
(1.0721 -0.0482983 3.0037e-21)
(1.00484 7.53617e-05 -1.94763e-21)
(1.00891 -0.00146332 4.91581e-22)
(1.00977 0.00108157 2.60488e-22)
(1.00834 -0.00123873 -8.69579e-22)
(1.03424 -0.0319765 -4.68451e-21)
(1.09652 -0.00339313 -1.27679e-21)
(1.01613 0.0926442 -7.45772e-22)
(0.883118 0.28974 9.25014e-22)
(1.00891 -0.0210968 4.00244e-22)
(1.00753 -0.00416528 0)
(1.01255 -0.00413277 0)
(1.00717 -0.000671659 7.11422e-22)
(1.09464 -0.0632944 -5.91108e-22)
(1.02589 -0.034116 0)
(1.01459 0.00357575 3.56696e-22)
(1.06848 -0.0385684 9.42528e-21)
(-0.0229725 -0.185461 2.91887e-20)
(0.376151 0.174472 4.09678e-20)
(1.00338 2.00111e-05 0)
(1.00471 0.000136538 2.60998e-22)
(0.974818 -0.0258026 -1.57206e-22)
(0.900422 0.221433 -1.05784e-20)
(1.00953 0.000915387 -2.95489e-22)
(1.01753 -0.0460199 -4.66578e-22)
(1.01241 -0.00486287 -7.45951e-22)
(1.00519 -8.84796e-05 0)
(1.05975 -0.026445 -1.02153e-20)
(1.01442 -0.000663808 -1.33865e-21)
(1.0281 -0.00650598 0)
(1.00999 -0.00202088 -1.61943e-21)
(1.00774 -0.000909598 0)
(1.00872 -0.000813018 2.11525e-21)
(1.10759 0.00353411 9.95132e-22)
(1.07374 -0.0329226 -1.16623e-21)
(0.829986 -0.0327667 -8.60126e-21)
(1.01455 -0.00321231 0)
(1.00965 -0.00151555 -6.3972e-22)
(1.10153 -0.235135 0)
(1.01397 0.00261952 -4.55533e-23)
(1.10715 -0.270444 -1.70902e-20)
(0.87659 -0.222688 9.73982e-21)
(1.01236 -0.00491361 1.38967e-21)
(0.9215 0.315521 1.39647e-20)
(1.00892 -0.00280895 0)
(1.01095 -0.0016079 4.45405e-24)
(0.896096 0.332735 -7.59522e-21)
(0.894798 0.149739 0)
(0.890647 0.146268 -3.9671e-22)
(0.865007 -0.213844 0)
(1.02209 -0.0185617 1.4424e-21)
(0.884173 -0.284782 -5.87772e-21)
(1.00861 0.00071905 -1.3127e-22)
(0.726631 -0.071568 0)
(0.339846 0.0470427 -1.31332e-20)
(1.03296 -0.00760434 0)
(1.0127 0.000827453 -8.46625e-22)
(0.987048 -0.145801 -1.34294e-20)
(1.04557 -0.0180715 7.17616e-23)
(0.97672 0.0237355 1.5688e-21)
(0.958749 0.194664 5.2559e-22)
(1.07381 -0.354584 -4.41583e-21)
(1.02548 -0.0034801 -2.25416e-21)
(0.898745 -0.283678 0)
(1.00552 0.000139731 0)
(1.06893 -0.0399593 0)
(1.09003 -0.0398503 -3.98113e-21)
(1.00553 -3.85708e-05 0)
(1.04813 -0.0366014 0)
(0.85387 0.264386 0)
(0.942346 -0.0340963 2.03584e-21)
(1.0096 -0.0137949 -2.44844e-21)
(1.01652 -0.0104751 6.67013e-22)
(1.00974 0.00106631 3.2945e-22)
(1.02575 -0.0119552 -2.51559e-21)
(1.01265 0.00640018 0)
(1.02856 -0.000386977 -9.31208e-24)
(0.937799 -0.0444616 -1.82238e-21)
(1.00992 -0.00139765 0)
(1.08264 -0.231544 1.2254e-21)
(1.00817 -0.00399298 1.24032e-21)
(1.01278 -0.00589854 -7.71297e-23)
(1.05579 -0.0189796 -1.12386e-20)
(1.00887 0.000682305 -8.80192e-22)
(1.02113 0.0269066 -2.08683e-22)
(1.0145 -0.00227073 9.84099e-22)
(1.00844 -0.00126463 -1.11531e-21)
(0.799226 0.00680474 2.26263e-20)
(1.00727 -0.000718556 -3.54263e-22)
(1.01531 -0.00246654 0)
(1.01347 -0.129048 0)
(1.07564 -0.0332047 2.96839e-21)
(1.0763 -0.035217 7.43991e-21)
(1.01866 -0.00142961 1.25032e-21)
(1.01333 -0.00603623 1.56745e-21)
(1.04236 -0.0745527 0)
(1.01383 -0.00613776 3.91867e-22)
(0.893801 0.218299 7.88419e-21)
(1.04832 -0.0149567 5.33843e-21)
(1.01529 -0.0126164 9.59866e-23)
(1.03305 -0.0131952 -2.22733e-21)
(1.01233 -0.00553372 0)
(1.00968 0.00102471 -4.54104e-22)
(0.373579 0.362918 -9.53157e-21)
(1.00895 0.000723867 1.29176e-21)
(0.710286 0.322282 -1.50216e-21)
(1.12883 -0.00920934 0)
(1.03778 -0.00544922 -9.70236e-21)
(0.216902 0.300045 5.32023e-21)
(1.00655 0.00017064 5.54662e-22)
(1.01783 -0.0133018 -7.55475e-22)
(1.01062 -0.0138942 0)
(0.613212 -0.168017 -1.00043e-20)
(1.04887 -0.0133225 -5.1068e-21)
(1.09103 -0.0103969 -2.04763e-21)
(0.953389 -0.173726 -5.62933e-21)
(1.00427 5.67299e-05 0)
(0.999934 -0.129557 -1.57357e-21)
(1.00651 -4.3792e-05 1.1932e-21)
(0.974304 0.180275 -1.16475e-21)
(1.01378 -0.00621627 0)
(1.0276 -0.00923067 0)
(0.298414 0.104885 3.87105e-21)
(1.03024 -0.13578 3.05776e-21)
(1.01405 -0.00226385 -5.35999e-22)
(1.01665 -0.00839264 0)
(1.0249 -0.0183473 0)
(1.00802 -0.000383124 -1.00326e-21)
(1.01842 -0.00141415 0)
(1.01712 -0.04111 1.03125e-20)
(0.295229 0.244594 -3.64964e-20)
(1.01085 0.000557591 -1.75459e-21)
(1.0079 -0.000354835 1.01477e-21)
(1.00651 -5.78206e-05 1.23213e-21)
(0.86144 -0.385633 0)
(0.981661 -0.124203 -1.88235e-21)
(1.00125 -0.0300607 0)
(1.00771 -0.000920179 8.62736e-22)
(1.03586 0.00305116 0)
(1.02714 -0.00929369 1.56918e-21)
(1.01326 -0.00611387 -8.96203e-22)
(1.06091 -0.0225087 -5.65765e-21)
(0.940908 -0.261583 0)
(1.01177 -0.00145703 -5.81487e-23)
(1.06946 -0.0377619 -1.02835e-20)
(1.11505 0.0515792 3.35071e-21)
(1.01433 0.00644506 -5.55749e-22)
(1.02995 -0.0366904 0)
(1.01992 -0.00374254 -1.20514e-21)
(1.02965 -0.0362159 -1.46784e-21)
(1.01172 -0.00132603 -1.01985e-22)
(1.01125 0.00156903 3.74106e-22)
(1.05128 -0.0225986 -3.52286e-21)
(1.0127 -0.00596041 6.89384e-22)
(1.07357 -0.0469064 0)
(1.01616 -0.00024468 -6.05141e-22)
(0.218883 -0.031473 -5.36732e-22)
(1.00744 -0.000371362 -3.62352e-22)
(1.04865 -0.0157983 0)
(1.08629 -0.0436038 4.52663e-21)
(0.956116 -0.0458507 6.5582e-21)
(1.0678 -0.0408385 0)
(1.00626 0.000190574 -1.46318e-22)
(1.01225 -0.00540242 -3.79712e-22)
(0.928628 -0.139475 0)
(1.04015 0.000712558 -8.37292e-23)
(0.977918 0.0170176 1.56177e-21)
(1.00875 -0.00133734 7.33348e-23)
(1.01178 -0.00401087 9.41422e-22)
(1.00925 -0.0208768 -1.09403e-21)
(-0.0622906 -0.231881 0)
(1.01532 -0.144277 0)
(1.01058 0.000457989 8.21405e-22)
(1.01393 -0.00252752 2.59543e-22)
(1.02143 -0.0132106 1.049e-21)
(1.01657 -0.00816963 0)
(1.00958 -0.00205319 2.17729e-21)
(1.01382 -0.00424981 0)
(1.00454 2.33284e-05 -1.64818e-24)
(0.90367 0.238967 -7.44469e-21)
(1.01452 -0.00235787 -1.04146e-21)
(1.0177 -0.00328439 -1.53244e-21)
(0.942694 -0.148228 -9.32413e-21)
(1.00779 -0.000999634 0)
(1.20899 -0.0549348 -9.55634e-21)
(1.0177 -0.112631 6.77124e-22)
(0.776035 -0.370574 0)
(1.01086 -0.102066 1.10504e-20)
(0.969827 -0.0651996 -6.29569e-21)
(0.305617 0.23759 6.2477e-20)
(1.01407 -0.00425035 2.64199e-22)
(1.01191 -0.00410067 0)
(1.01602 -0.0106495 6.50335e-22)
(1.01094 0.000498292 0)
(1.01187 -0.00192677 7.40276e-24)
(1.00588 -2.00547e-06 -7.28129e-22)
(1.00538 0.000101631 4.0148e-22)
(1.02573 -0.011535 2.83122e-21)
(1.02528 -0.374945 -1.74306e-20)
(1.0765 -0.0134299 1.74126e-22)
(1.12962 0.0311783 -7.1998e-22)
(1.00958 0.00129393 4.36151e-22)
(1.01161 -0.00367729 2.82889e-22)
(1.02256 -0.0410936 0)
(1.0144 -0.040475 1.89299e-22)
(1.042 -0.0821149 2.16474e-21)
(1.00337 3.1523e-05 0)
(1.01474 -0.00376965 7.3729e-22)
(1.01133 0.00149852 3.67047e-22)
(0.11686 0.101991 -1.66939e-20)
(0.807125 0.147451 4.5772e-21)
(0.854753 0.26666 0)
(1.00548 -0.000193865 6.80678e-22)
(1.09236 -0.0441544 4.58559e-21)
(1.11004 -0.0323031 -4.37207e-23)
(1.02364 -0.0376785 5.8059e-22)
(-0.0752278 -0.231566 -2.23836e-20)
(0.98423 -0.323534 6.41121e-21)
(1.01701 -0.0111272 3.46891e-22)
(1.01399 0.00794305 3.04258e-22)
(1.01566 0.00421148 0)
(0.770864 -0.00531181 -1.27509e-21)
(1.01972 -0.00891719 4.52075e-22)
(1.0088 0.000993947 1.01232e-21)
(1.07553 -0.0757912 0)
(0.840176 -0.317463 0)
(1.0138 -0.00365819 0)
(0.991007 0.105943 0)
(1.07551 0.0452246 1.34928e-21)
(1.01494 -0.00208286 -7.14195e-22)
(1.01301 -0.00393071 -3.78819e-23)
(1.01512 -0.00179565 2.25107e-22)
(1.01142 -0.00340387 1.24157e-21)
(1.01634 -0.00512843 0)
(1.00899 -0.00611713 1.28922e-21)
(1.04448 -0.0374543 0)
(1.01536 -0.00551068 0)
(1.01959 -0.00911226 5.0389e-22)
(0.922118 0.29898 0)
(0.123514 0.0978196 2.10289e-20)
(1.01571 -0.0044394 -7.45157e-22)
(0.977592 0.0708102 0)
(1.06233 0.0257001 0)
(1.01652 -0.00866631 0)
(1.01369 0.00107209 9.66335e-22)
(1.01124 0.000567454 -2.05155e-22)
(1.00834 0.000225763 0)
(1.01682 -0.00922177 0)
(1.01644 -0.00861584 3.70236e-22)
(1.00426 8.3335e-05 -1.62408e-21)
(1.02731 -0.0075015 -3.02972e-21)
(1.00941 -0.00584888 -1.25042e-21)
(1.02113 -0.00854903 -1.03446e-21)
(0.336823 0.111454 -6.61443e-21)
(1.03892 -0.0317155 2.14901e-21)
(1.00491 6.27484e-05 -5.04619e-23)
(1.01149 -0.00321913 -1.2153e-21)
(0.833483 -0.191117 0)
(1.02601 -0.00360073 2.40949e-21)
(1.00897 0.0010234 -6.77296e-22)
(0.475033 0.0512387 0)
(1.01207 -0.00187919 0)
(1.0517 -0.0418657 1.32762e-22)
(1.05036 -0.0228388 -8.98591e-22)
(1.01788 -0.00297343 -1.6117e-21)
(1.00857 -0.00126829 -3.55139e-22)
(1.0082 -0.000239025 0)
(1.01364 -0.0116993 1.51662e-21)
(1.07237 -0.0285892 -2.40509e-21)
(1.00436 4.43811e-05 1.61574e-21)
(0.949204 -0.0424562 1.43234e-20)
(1.04482 -0.0849784 0)
(1.10689 -0.0446122 8.57336e-21)
(0.972765 -0.300984 -2.14714e-21)
(1.0213 -0.0126583 -1.03255e-21)
(0.978199 -0.0384933 9.8013e-22)
(1.00871 0.000757463 0)
(1.1463 -0.0142319 3.13115e-21)
(1.03761 -0.00659319 9.97935e-21)
(1.01117 -0.00333135 -1.14157e-21)
(1.07825 -0.00543297 0)
(1.17982 -0.17838 9.81603e-21)
(1.01381 -0.00741555 -1.42511e-21)
(0.925371 0.24116 0)
(0.902758 0.0692565 -2.59743e-22)
(1.0067 0.000209152 0)
(1.05867 -0.0256733 0)
(1.0091 0.00106829 -5.58837e-22)
(1.01385 -0.000548117 1.42012e-21)
(1.03512 -0.0332295 4.21503e-21)
(1.01324 -0.00903193 -1.03486e-21)
(1.00723 -0.00029656 0)
(1.01085 -0.0201578 -7.41091e-22)
(1.01139 -0.00185323 -2.47386e-23)
(1.00982 -0.00138597 0)
(0.917465 0.24885 1.76565e-20)
(1.00972 -0.000372012 9.8216e-22)
(1.01185 -0.00202893 6.04019e-23)
(1.00859 -0.00130078 6.84205e-22)
(0.408094 0.0970941 3.74735e-21)
(1.01159 -0.00315808 6.4623e-22)
(1.01361 -5.26467e-05 8.62508e-22)
(1.04272 -0.0374551 -4.67692e-21)
(0.852244 0.00310253 -2.83389e-21)
(0.834634 0.105922 0)
(1.16177 -0.151618 7.57023e-21)
(0.8841 -0.257591 -3.71765e-21)
(1.01094 -0.00351025 4.43943e-22)
(1.00921 0.000828445 3.85582e-22)
(1.01809 -0.00288943 8.74102e-22)
(1.05596 -0.368686 -8.72188e-21)
(1.00341 -3.97049e-05 0)
(1.00997 -0.00231706 9.86898e-22)
(1.03893 -0.0176113 -5.78793e-21)
(1.01111 0.00136596 3.58073e-22)
(1.00761 0.155908 4.66057e-21)
(1.0209 -0.00911282 2.92271e-22)
(1.0237 -0.00550941 1.9336e-21)
(0.828763 0.116308 0)
(1.01326 -0.0038546 0)
(1.07581 -0.0337406 1.117e-20)
(0.675844 -0.223736 3.49607e-21)
(1.00922 0.000826058 0)
(1.01517 -0.00538607 -9.1441e-25)
(0.872646 0.272274 -3.56338e-21)
(1.01622 -0.0110923 0)
(0.430454 0.0441176 5.44632e-20)