/*--------------------------------*- C++ -*----------------------------------*\
| =========                 |                                                 |
| \\      /  F ield         | OpenFOAM: The Open Source CFD Toolbox           |
|  \\    /   O peration     | Version:  v2012                                 |
|   \\  /    A nd           | Website:  www.openfoam.com                      |
|    \\/     M anipulation  |                                                 |
\*---------------------------------------------------------------------------*/
FoamFile
{
    version     2.0;
    format      ascii;
    class       volScalarField;
    location    "100";
    object      omega_0;
}
// * * * * * * * * * * * * * * * * * * * * * * * * * * * * * * * * * * * * * //

dimensions      [0 0 -1 0 0 0 0];


internalField   nonuniform List<scalar> 
18355
(
2.30177
0.0204253
0.19837
0.0210099
0.0460371
0.0756995
0.0216175
0.0524674
0.0219515
0.383389
0.0259246
0.121689
0.128647
0.748548
0.0210716
0.0201957
0.0210063
0.0242914
0.154825
0.0225013
1.62893
0.0219142
0.0204565
0.072224
0.0204673
0.022182
0.0216484
0.0210155
0.0221396
0.0267303
0.164378
0.0412085
0.0203433
0.0200693
0.0212756
0.022121
0.0262273
0.0221976
0.0272253
0.0219244
0.0221717
0.0265213
0.0200868
0.0204123
0.0204224
0.256351
0.0209927
0.020982
0.292703
0.0212202
0.0209178
1.67009
0.0212649
0.132237
0.0212868
0.0224979
0.0213469
0.218974
0.0222621
0.80688
0.020079
0.0850697
0.128678
0.0214942
0.0496578
0.0207016
0.0234685
0.0262488
0.0200278
0.578607
0.0209331
0.0212868
0.0352305
0.0252665
0.293531
0.0200467
0.218174
0.0200563
0.0209054
0.239798
0.0234382
0.115699
0.0200382
0.0243301
0.0412132
0.0217526
0.0222685
0.0341319
0.0208783
0.0341063
0.729231
0.197881
0.0913111
0.0212147
0.402166
0.0219279
0.0208636
0.0214008
0.0689262
0.0218547
0.0391658
0.0208745
0.0211727
0.019564
0.023644
0.0202065
0.0491358
0.386509
0.0296751
0.0201508
0.0209112
0.0216096
0.0309392
0.0241488
0.277777
0.0268501
0.0208522
0.263415
0.0228307
0.0233047
0.478616
0.201142
0.772727
0.0387982
0.236347
0.271411
0.021649
0.02104
2.32122
0.021671
0.0208681
1.71607
0.0212787
0.0762604
0.0836815
0.0208668
0.161155
0.577982
0.0211938
0.573351
0.0244859
0.0371031
0.0209589
1.42461
0.0830487
0.0216578
0.670822
0.0196086
0.0308103
0.202145
0.0210085
0.023242
0.021347
0.0261579
0.020097
0.020578
0.021054
0.0217497
0.0209654
0.0206746
0.0246973
0.0212857
0.0201588
0.0294682
0.0257604
0.234849
0.783489
2.15752
1.0094
0.0244666
0.0215028
0.070651
0.0216612
0.414378
0.0213984
0.0221336
0.021516
0.0195254
0.0225444
0.0271786
0.021779
0.221992
0.0218022
0.0210388
0.0274547
0.0211616
0.0217449
0.0332178
0.0213469
0.0217329
0.259307
0.069373
0.0204537
0.0200646
0.0214093
0.27996
0.0205951
2.08886
0.0204343
0.761934
0.0211296
0.0232183
0.0275213
0.0216774
2.2151
0.0215844
0.717704
0.021034
0.0202955
0.0212804
0.0215812
0.0512658
0.022526
0.0220467
0.0196194
0.526598
0.0272237
0.0246217
0.0216039
0.0209965
0.028862
0.0199824
0.0326217
0.0269519
0.0439481
0.0235457
0.0200043
0.573916
1.2118
0.031784
0.0214011
0.0236563
0.235356
0.0199951
0.0299567
0.0441555
0.0219601
0.262864
0.0243259
0.0219772
0.0204499
0.022459
0.0215842
0.0305546
0.0215816
0.0212918
0.0209837
0.0498609
0.0572222
0.021015
0.0218118
0.0569407
0.152688
0.0284291
0.0195311
0.0421715
0.0243016
0.0217541
0.0234203
0.0208102
0.204772
0.307689
0.0626052
0.0284762
0.0280918
0.034264
0.0321309
0.0759592
0.0208024
0.0212932
0.0218875
0.0201492
0.0232082
0.0247572
0.0209766
0.0215821
0.0304542
0.0208546
0.0681338
0.772964
0.0286881
0.0216103
0.0275667
0.0201391
0.0347915
0.0215316
0.0279762
0.0218834
0.0274569
0.301666
0.0203209
0.0419612
0.0226963
0.0238244
0.0331544
0.0212945
0.0200492
0.062555
0.0215806
0.039248
0.0263261
0.305034
0.0357033
0.0639996
0.0236681
0.03177
0.0211603
0.0236217
0.0280256
0.0417853
0.116409
0.263079
0.021076
0.0238387
0.108208
0.0280895
0.0210713
0.020974
0.020995
0.0468971
0.26141
0.385614
0.177231
0.030057
0.0242691
0.0487626
0.0196074
0.0215618
0.0242245
0.0213695
0.0318775
0.0211745
0.401068
0.0202264
0.205488
0.0213534
0.0218741
0.023988
0.140916
1.97235
0.0306405
0.148246
0.0219533
0.0208882
0.0213607
0.0242239
0.388411
0.0209127
0.0214818
0.0698664
0.0218779
0.0209132
0.156004
0.0236628
0.0209896
0.0212903
0.0286616
0.0222889
0.0285828
0.0200683
0.0214727
0.0218184
0.503822
0.0688955
0.0200448
0.0209437
0.0313087
0.0210028
0.021579
0.0401506
0.079814
0.0324075
0.0213448
0.0220043
0.129854
0.0220146
0.0467455
0.0236747
0.0202636
0.0287565
0.0333116
0.0217371
0.0213505
0.0243325
0.0214541
0.0234493
0.021404
0.0556019
0.0216017
0.0230577
0.0209804
0.0209964
0.0230358
0.0221315
0.0638131
0.477996
0.0702857
0.0229889
0.151796
0.0263645
0.0213724
0.0211032
0.0393637
0.0213464
0.0332856
0.0214865
0.0271728
0.050204
0.0476495
2.02854
0.0661818
0.0195737
2.86588
0.0218555
0.0209667
1.58099
0.0213169
0.0270488
0.0202643
0.0543794
0.021312
0.0685846
0.448376
0.0581066
0.0212886
0.020453
0.0606613
0.0228338
0.0210209
0.34321
0.255754
0.0209609
0.0401376
0.064153
0.0204484
0.0221945
0.0294572
0.473967
0.0354315
0.0218792
0.0211995
0.035061
0.0212798
0.0201972
0.0211649
0.0438631
0.485397
0.0202479
0.0221458
0.0215006
0.148057
0.0327658
0.0200479
0.0270763
0.0330371
0.0214816
0.284571
0.0848008
0.0218364
0.0214362
0.0342325
0.153165
0.22329
0.0202258
1.94251
0.0212392
0.0202407
0.0376782
0.0229382
0.0576793
0.0352843
0.023171
0.025832
0.0219235
0.15237
0.0229935
0.0274004
0.0219217
0.0202034
0.0217279
0.0202178
0.0836939
0.430463
0.0537858
0.0247189
0.0216336
0.0219208
0.0215011
0.0237108
0.0215992
0.0200493
0.0213863
0.0350242
0.0204566
0.0215716
2.11413
2.06996
0.112558
0.0216483
0.0220121
0.0295544
0.0218869
0.152937
0.22391
0.023616
0.0244691
0.0256553
0.0222148
0.0233766
4.00625
0.0294824
0.021936
0.396704
0.0215833
2.04156
2.84481
0.0247052
0.0221314
4.07643
0.020983
0.0650764
0.0416641
0.362781
0.0229969
0.0217055
0.0214675
0.449033
0.26513
0.358534
0.4534
0.0234033
0.021457
0.0243292
0.0212994
0.0232976
1.11559
0.62674
0.481377
0.113273
0.0267211
0.0385319
0.0322288
0.0210011
0.0211538
0.0278262
0.0238472
0.0215473
0.021297
0.290311
0.0208481
0.115761
0.0245443
0.0788347
0.137468
0.0211605
0.0241485
2.27831
0.021381
0.555824
0.0212779
0.102829
0.0294988
0.0219609
0.0320133
0.075943
0.0672751
0.0218704
0.020016
0.0334442
0.0249042
0.0788949
0.0213738
0.0857172
0.0208396
0.217141
0.0214027
0.0211762
0.189977
0.0255439
0.0404004
0.0212755
0.0248156
0.0236049
0.399366
0.391731
0.0238929
0.0350849
0.0213783
0.0273677
0.0217741
0.0237468
3.87968
0.0204157
0.0553439
0.0215795
0.021451
0.0238599
0.151125
0.0225971
0.0687497
0.0220713
0.0343418
0.394747
0.0196148
0.0209912
2.1688
0.0333059
2.01501
0.036055
0.0217597
0.0213024
0.0209764
0.0252789
0.0220689
0.0201303
0.125552
1.78985
0.0211595
0.818264
0.623296
0.0250574
0.207943
0.0202128
2.14596
0.349371
0.0196801
0.379139
0.0372885
0.318642
0.437678
0.0210891
0.0209734
0.0216328
0.0488696
0.0460477
0.0213093
0.0219448
0.128126
0.0218034
0.0386814
0.0210715
0.035502
0.688168
0.438613
0.0799902
0.418051
0.0346939
0.212066
0.0244664
0.0209239
0.0261437
0.428419
0.0263791
0.0437786
0.021299
0.575702
0.0215181
0.0218085
2.57942
0.0217983
0.0264925
0.0347134
0.0606297
0.0214759
0.0212908
0.0237878
0.0252086
0.0199758
0.0217287
0.0335344
0.143494
0.0230148
0.02127
0.0367152
0.448848
0.0212409
0.404272
0.281885
0.021473
1.61862
0.0200137
0.201209
0.0213497
0.0203253
0.190428
0.0231952
0.214472
0.0229043
0.0212927
1.61728
0.0213465
0.0201328
0.0215308
0.0209334
0.0269586
0.0326185
1.96696
0.0220155
0.593182
0.0229803
0.412123
0.765906
0.0222231
0.0213539
0.0248095
0.0201655
0.108955
0.0211988
0.0201123
0.0201483
0.0212976
0.0213706
0.227034
0.0251597
0.0440945
0.0225397
0.0238095
0.0242991
0.0244059
0.328371
0.0204592
0.0834725
0.0388173
0.0200178
0.676238
0.604683
0.0209047
0.389042
0.0213891
0.180111
0.0342219
0.0196637
0.0338042
0.0256778
0.398365
0.020991
0.0239698
0.46024
0.0710389
0.0466762
0.0213667
0.327791
0.0753794
2.15815
0.0213731
0.0227246
0.021026
0.021504
0.0210672
0.0212025
0.0204099
0.407864
0.0257
0.020882
0.0200615
0.0206974
0.0218385
0.0660348
0.0742193
0.0203152
0.0252216
0.0215692
0.0215992
0.021505
0.0209528
0.0351912
0.0200588
0.0208906
0.0217261
0.0216216
0.0229804
0.0215666
0.257631
0.141002
0.023973
0.0208723
0.147553
0.020103
0.0200663
0.0215472
0.0451333
0.024679
0.0213939
0.0201717
0.0204438
0.0257533
0.0200197
0.0266627
0.0211888
0.0217692
0.0210657
0.0226586
0.747749
0.0209157
0.0218641
0.0211758
0.170813
0.366521
0.0262802
0.0220679
0.026428
0.0247824
0.0344973
3.61291
0.0217425
0.356188
0.0218816
0.102373
0.0220647
0.0202758
0.0200867
0.431589
0.0200468
0.0265183
0.0320767
0.167727
0.0376296
0.0222698
0.0210069
0.0210606
0.0212271
0.0278504
0.101708
0.333605
0.0417406
0.0215353
0.0200172
0.0225141
0.0210672
0.0208134
0.0217921
0.0440033
0.0250235
0.0478946
0.0215299
0.0214407
0.0337808
0.0213048
0.15284
0.0422041
0.0357639
0.135615
0.782016
0.0292214
0.0209904
0.0200256
0.021681
0.0212831
0.569178
0.0455198
0.105516
0.0203036
0.0216007
0.0232107
0.0208327
3.48593
0.109283
0.0200642
0.0200801
0.0210222
0.0210744
0.0209234
0.021288
0.225932
0.019991
0.0219692
0.0203119
0.0205863
0.0210762
0.0214844
0.0262176
0.020581
0.0254689
0.0201653
0.0688434
0.207009
0.0240095
0.067111
0.022741
0.0218873
0.0660369
0.353179
0.0214322
0.0207351
0.0204706
0.0265259
0.0219191
0.0292014
0.0280731
0.0215264
0.0220413
0.0214877
0.10148
0.194011
0.0220374
0.020626
0.0240866
0.0357655
0.0211469
0.0679248
0.0208343
0.0199724
0.0240702
0.343033
0.459856
0.226239
0.229834
0.0200598
0.0350591
0.059127
0.0246183
0.0212189
0.0597802
0.023601
0.190314
0.570325
0.0209178
0.0200695
0.0214846
0.0219443
0.0200736
0.0472276
0.301223
0.0201076
0.0215534
0.021983
0.0357206
0.0212602
0.0208684
0.0286475
0.0219075
0.020956
0.13216
0.091951
0.0831713
0.0212697
0.0202351
0.0201231
0.0212607
0.0244599
0.0266461
0.0208768
0.0206222
0.022945
0.341229
0.020457
0.0214186
0.0650976
0.0209226
0.0207598
0.0213493
1.90783
0.0202151
0.0214497
0.0204597
0.0225616
0.0202266
0.0250887
0.143355
0.0214191
0.164666
0.0276182
0.205336
0.0538145
0.0209908
0.0251927
0.020845
0.0207437
0.0210023
0.464724
0.388935
0.0304766
0.0263591
0.51305
0.0695637
0.0221407
0.0976047
0.0494883
0.0232472
0.0200752
0.89965
0.0222116
0.0207499
0.0204406
0.246886
1.842
1.83224
0.020711
0.0910493
0.353051
0.0249885
0.0311959
0.0242349
0.0231923
0.0330948
0.0767597
0.0230814
0.0222504
0.0252229
2.87827
0.225273
0.0212489
0.0215725
0.021076
0.3269
0.0237462
0.0219911
0.531581
0.0250797
0.0354914
0.0242283
0.232512
0.0206751
0.0958772
0.0220628
0.0200825
0.0209918
0.0200439
0.0200922
0.0209
0.0217354
0.219875
0.0205244
0.100514
0.0259282
0.0216803
0.0207886
0.0889671
0.0212026
0.0215432
0.0233435
0.165045
0.0460873
0.0231838
0.0215404
0.325806
0.0206706
0.0376821
0.0215234
1.77552
0.0319077
0.315512
0.0254487
0.0210192
0.0344924
0.175489
0.118185
0.0205565
0.0213421
0.036034
3.76161
0.0195726
0.0455201
0.0205971
0.0264042
0.0208678
0.0200559
0.0220055
0.0221099
0.0200366
0.0356817
0.0334334
0.0241917
0.13289
0.999698
0.0221815
0.292613
0.0201258
0.107943
0.318946
0.162087
0.0200322
0.0220306
0.0215029
0.234964
0.0212681
0.0208303
0.0893734
0.0215289
0.0215279
0.0221651
0.0220201
0.021254
2.81729
0.408277
0.0614861
0.0207542
0.0214619
0.175321
0.0201274
0.111825
0.0216305
0.0214882
0.0219874
0.0234706
0.24038
0.0205752
0.021478
2.07191
0.0216093
0.0217928
0.0360604
0.331458
0.0612673
0.0214308
0.0210624
3.21724
0.445381
2.28118
0.0207248
0.0327319
0.190852
0.0203485
0.0340454
0.0230861
0.4494
0.0236502
0.0215422
0.0220965
0.0200416
0.357835
0.0214683
0.0205009
0.361874
0.0280988
0.166207
0.0200137
0.0226256
0.0200585
0.0196468
0.0202038
0.0221757
0.0216245
0.0218906
0.0200514
0.0217756
0.0443144
0.0271286
0.0254433
0.0206413
0.0239618
0.0210739
0.285871
0.0216708
0.0220131
0.0216148
0.0200888
0.0218396
0.0210955
0.0211912
0.0212442
0.0208294
0.0202112
0.394772
0.355669
0.0212652
0.352528
0.0335299
0.0217326
0.0217022
0.0221522
0.452639
0.0217903
0.0201185
0.0201001
0.020041
2.19433
0.0212948
0.0202818
0.178842
0.0200243
0.0197466
0.0246025
0.025666
0.0661188
0.138933
1.82955
0.0201208
0.959788
0.0247921
0.02124
0.020418
0.0239128
0.0212855
0.027765
0.0565147
0.0233517
0.0218795
2.45568
0.0700128
1.94279
0.0731874
0.38888
0.0697359
0.0205195
0.219813
1.92439
0.0201298
0.966313
0.0207077
0.0223091
0.138598
0.0207284
0.172266
0.0250109
0.0228057
0.0219961
0.039898
0.0213775
0.107825
0.0212441
0.0201894
0.455634
0.0197731
0.0216193
0.0218494
0.0505597
0.0212063
0.0214446
0.0229392
0.327317
0.0212245
0.0212868
0.0202343
0.0235252
0.0211874
0.0223067
0.13029
0.0209801
0.0256617
0.0217195
0.0233282
0.0223504
0.0209425
0.0219165
0.0982033
0.0216024
0.0217105
0.0241846
0.218119
0.0222157
0.0211299
0.0214265
0.0252435
0.0656204
0.0225588
0.021023
0.0209741
0.020561
0.0196321
0.0200668
0.025855
0.0292777
0.0528375
0.0215548
0.678789
0.0206416
0.0211265
3.69603
0.043961
0.0199857
0.0742687
0.0213135
0.021021
0.465955
0.0218804
0.0372009
0.0197487
0.148138
0.0205683
0.0200231
0.0202509
0.101326
0.0727896
0.0215733
0.975729
0.0202307
0.0209098
0.0207382
0.142362
0.0214154
0.0206539
0.0220375
0.0226871
0.0212745
0.0214651
0.0207935
0.0217825
0.0215506
0.020845
0.0238483
0.0200194
0.883389
0.0642382
0.0202152
0.0570182
0.0254049
0.0209414
0.0206542
0.0218691
0.0207513
0.0281758
0.0245248
0.042465
0.0431669
0.0217188
0.0732928
0.149191
0.0212313
0.0217441
0.0850203
0.0231547
0.224214
0.0202146
0.0211392
0.0226718
0.0217493
0.0209903
0.025436
0.0209511
0.021368
0.0212556
0.0230845
0.020584
0.12008
0.0213465
0.023928
0.028456
0.0210128
0.447604
0.465702
0.0230717
0.0260642
0.0268993
0.0198888
0.0462891
0.0214479
0.0316727
0.560431
1.70795
0.0353667
0.0215669
0.0257793
0.0210084
0.0282288
0.0205548
0.323534
0.0284605
0.0216674
0.0208024
0.0495958
0.034219
0.0212319
0.0212317
0.312138
0.021603
0.0206448
0.393002
0.0526013
0.0201202
0.80703
0.0203096
0.0407013
0.0553281
0.0212694
0.0214367
0.0231055
0.24433
0.0207914
0.0252408
0.0214416
0.0212769
0.0208292
0.697493
0.0218273
0.0213988
0.0211062
0.193495
0.0254561
0.0208043
0.0197898
0.106387
0.0211568
0.0204539
0.104664
0.714984
0.0219152
0.254124
0.0231565
0.0463073
0.0222676
0.0569552
0.451109
0.0217977
0.0209059
0.0203136
0.0238653
0.0212123
0.55227
0.137167
0.0205286
0.0221974
0.0203346
0.0200547
2.5842
0.0212203
0.0226512
0.022659
0.0516494
0.0214569
0.0216995
0.0245346
0.446589
0.021461
0.0214085
0.0204466
0.0205656
0.0236703
0.044096
0.0215859
0.0211287
0.0213017
0.0210956
0.0203218
2.89082
0.0217662
0.0210502
0.0211001
0.0589052
0.0203736
0.0204566
0.03286
0.0209114
0.0385432
0.0212598
0.0214361
0.265667
4.35673
1.41599
0.0293154
0.0234842
0.0218389
0.351006
0.0206313
0.0245922
0.0200159
0.299811
0.0195484
0.0237966
0.0214659
0.761299
0.036129
0.0297322
0.406505
0.0223924
0.0480351
0.0217255
0.0220329
2.61378
0.0331012
0.0211798
0.0203015
0.0233659
0.0260389
0.0214265
0.0213035
0.0206259
0.0199585
0.173078
0.35113
0.0217261
0.0222244
0.352738
0.894446
0.0229803
0.0222556
0.022931
0.0241199
0.0212176
0.0222507
0.0629474
0.0209132
0.0203245
0.0215189
0.0620159
0.223518
0.0247975
0.0215604
0.0216236
0.0256263
0.0213459
0.0254341
0.0367573
0.0764283
0.0230693
0.36947
0.0201182
0.0212354
0.0218425
0.0200016
0.0215448
0.0208593
0.0383422
0.0210096
0.142951
0.0213622
0.0207202
0.020487
0.0240588
0.0224646
0.0431335
0.0507821
0.0201676
1.14631
0.0229952
0.0205046
0.0198168
0.358626
0.211386
0.0198371
0.0208097
0.0207578
0.0222362
0.168589
0.0900225
0.0220953
0.0219571
0.140873
0.407305
0.021983
0.0212174
0.248791
0.0235472
0.0357177
0.0235075
0.021155
0.0602939
0.0264837
4.46017
0.0280368
0.53839
0.0204015
0.0209122
0.0217585
0.0215922
0.0234606
0.0216952
0.0215561
0.020792
0.0217849
0.0216962
0.0211704
0.0215069
0.0227738
0.0219492
0.0213414
0.0208467
0.0340234
0.0236634
0.0209219
0.0215192
0.167572
0.0213742
0.0218134
0.0219845
0.806626
0.0204581
0.0372137
0.0225646
0.02019
0.0210645
0.338972
0.11333
0.0220459
0.0215203
0.0235191
0.0348645
0.0208739
0.026448
0.0379302
0.0210575
0.101778
0.0208193
0.021332
0.0209951
0.0217602
0.0281091
0.0683252
3.04904
0.0263708
0.0202011
0.0215021
0.0211302
0.0476054
0.0219386
0.353288
0.0208209
0.0213732
0.0213566
0.0733603
0.0209598
0.0215782
0.0212659
0.137353
0.0204665
2.01941
0.0204265
0.0264877
0.0212865
0.0288179
0.0209935
0.0233713
0.549457
0.0400499
0.0202086
0.0340078
0.021516
0.021552
2.24315
0.546886
0.0203197
0.0212501
0.023258
0.0202475
0.021106
0.0218677
0.0217031
0.0240131
0.0509955
0.0221432
0.0257014
0.0370213
0.0217103
0.0209997
0.0211801
0.0225985
0.027451
0.0214297
3.8939
0.0206952
0.455818
0.0365586
0.0201676
0.0207183
0.0206977
0.0597871
0.0214979
0.0236829
0.0215168
0.0207839
0.546891
0.0226825
0.0266239
0.021661
0.0214728
0.0226598
0.0212423
0.0226869
0.0213669
0.022312
0.0219712
0.0219066
0.38104
0.0249845
0.45978
0.0209996
0.024555
0.0224256
0.312243
0.0598667
0.700671
0.0225951
0.0199846
0.0402936
0.0209634
0.44123
0.022129
0.0432875
0.022464
0.348272
2.19623
0.0233822
0.0267604
0.0207463
0.0205318
0.0218931
0.0199232
0.0217325
0.0228858
0.0207844
0.024834
0.0430413
0.306132
0.0208986
0.0678244
0.0201046
0.021195
0.0211577
0.0945871
0.0216642
0.0478109
0.0216737
0.0210792
1.04306
0.0208824
0.0235047
0.021057
0.0234646
0.568387
0.0257034
2.641
0.0212269
0.0584151
0.022854
0.0211223
0.0211554
0.0273957
0.0239269
0.0212782
0.0226771
0.0213253
0.383761
0.0207325
0.430709
0.218983
0.0661623
0.0250134
0.0979235
0.0256511
0.0199213
0.191404
0.021193
0.0976706
0.021864
0.0225937
0.315025
0.311729
0.0259531
0.126545
0.0213839
0.299685
0.0196153
1.18107
0.0201572
0.022197
0.0429895
0.0217079
0.0207178
0.0219846
0.021272
0.0338528
0.284344
0.0309399
0.368215
0.0208084
0.710853
0.0214446
0.0216688
0.0210189
0.0213333
0.430909
0.0216199
0.020563
0.0359945
0.0218121
0.339966
0.0636637
0.0212699
0.0411406
0.0325273
0.0208551
0.0214399
0.0239474
0.0203201
0.0549983
0.0271741
0.0227268
0.0228137
0.0204397
0.0213908
0.0576922
0.0220316
0.0214506
0.0222474
0.0199156
0.0201401
1.86217
0.0267488
0.448886
0.0262024
0.0519808
0.0265816
0.0211186
0.0256754
0.0204773
0.0209829
0.204684
0.0239095
0.0230431
0.0445209
0.0219534
0.268512
0.564433
0.0210742
0.0240487
0.0347719
1.52597
0.0203104
0.0203465
0.0217163
0.0286489
0.332516
0.0242641
0.0235217
0.021858
0.0211731
0.0199627
0.066576
0.0237581
0.0222243
0.439624
0.0216383
0.0229766
0.0244392
0.0214968
0.0212414
0.0210079
0.053232
0.103397
0.0219051
0.02303
0.293728
0.0209022
0.0219519
0.0234055
0.0215952
0.407015
0.410017
0.0467836
0.0723651
0.763354
0.0226838
0.0208461
0.0537461
0.0220247
0.0265771
0.0210323
0.020188
0.333236
0.0827521
0.0210806
0.0207497
0.0267105
0.123802
0.0230663
0.0200232
2.78444
0.0228036
0.0352801
0.020141
0.0267179
0.0195871
0.0226735
0.0257457
0.0211731
5.35728
0.0219682
0.0338623
0.0954226
0.304863
0.081598
0.0211972
0.0607712
0.0241456
0.0240035
0.0223223
0.0218314
0.0214535
0.0226514
0.248288
0.0227674
0.284667
0.0207806
0.20522
0.0202915
0.0218978
0.242527
0.0242455
0.202036
0.0225414
0.0220967
3.51752
2.76134
0.0208683
0.466492
0.0333816
0.0207204
0.0198553
1.85147
0.371499
0.0204622
0.0202764
0.021158
0.0202392
0.315975
0.295671
0.0195252
0.0198067
0.0208648
0.227099
0.0464742
0.298796
0.0201954
0.296552
0.0215985
0.0542866
2.62807
0.0240338
0.0206005
0.020581
0.307098
0.0203392
0.0210593
0.0202122
0.0244286
0.0228097
4.03707
0.0248515
0.0218207
0.0211984
0.0259947
0.191036
0.0405647
0.0211215
0.0208615
0.152482
0.0485569
0.0220004
0.663817
0.0281017
0.0230065
2.57478
0.0226765
0.025661
0.0218242
0.0590292
0.0214313
0.0218241
2.18169
0.0269251
0.0210502
0.0213504
0.0195934
0.0367885
0.10946
0.0209778
0.0202699
0.0221758
0.0669399
0.0221326
0.0202018
0.0212463
0.0207278
0.0234527
0.040987
0.0214151
0.0209453
2.33545
0.0211103
0.176987
0.0286897
0.0299962
0.0234144
0.0222969
0.021483
0.375077
0.0796214
0.0690018
4.23156
0.0281611
0.0208776
0.312207
0.0202201
0.0745606
0.421289
0.0233356
0.0211306
0.0234729
0.0731883
0.0212049
0.0210027
1.21292
0.021266
0.0224284
0.0207805
0.0216696
0.0203321
0.0576901
0.127073
0.0201512
0.0210241
1.0968
0.021196
0.0201186
0.0209985
0.0208243
0.435752
0.0237279
0.0230889
0.0222154
0.0219678
0.0202603
0.0356362
0.104434
0.025762
0.248706
0.0225905
0.0236007
4.10877
0.0208892
0.0203645
0.0210649
0.0208268
0.0218302
0.0197639
0.022115
0.412631
0.0211818
0.0210955
0.0227586
0.0208086
0.378423
0.0216781
2.70885
0.179404
0.0259047
0.0286453
0.332235
0.0238294
0.02118
0.0235238
0.020951
0.0225967
0.0217346
0.0218118
0.305226
0.0202879
0.0213291
0.0394388
0.210453
0.0217032
0.0208442
0.187879
0.0223989
0.0288914
0.0213108
0.0208556
0.0211516
1.72422
0.0214676
0.208765
0.0497864
0.021409
0.0208349
0.0210487
0.0237039
0.271563
0.0201596
0.0380475
0.0211004
2.73067
0.221543
0.022091
0.173102
0.0215519
0.0231035
0.0234233
0.27399
0.023432
0.025823
0.0262402
0.43061
0.0217114
0.0362098
0.0214542
0.0422007
0.144936
0.166854
0.0209415
0.0284348
0.303771
0.485519
0.0230623
0.0235576
0.34087
0.336086
0.0208133
0.054545
0.0211954
0.0241809
0.0214915
0.0223711
0.0222829
0.499699
0.0216725
0.0218129
0.055596
0.436422
0.0532182
0.125561
0.489679
0.0207808
0.344232
0.0605554
0.0210501
0.021123
0.389273
0.0236197
0.0214929
0.0212463
0.0357319
0.0206963
0.0212583
0.635955
0.0214688
0.0217522
0.0210411
0.0214033
0.0225019
0.0205041
2.64532
0.0236169
0.0231356
0.020505
0.0289477
0.12584
0.020889
0.02171
0.301802
0.17548
0.0213532
0.0239097
0.0207079
0.0209351
0.0396533
0.164285
0.0209363
0.0210535
0.313662
0.457495
1.07103
0.0334152
0.0222603
0.370543
0.0207342
0.024459
0.0237073
0.02057
2.36242
1.04336
0.0364852
0.0316978
0.348397
0.0198621
0.0197981
0.0228459
0.0313616
0.619873
0.0203322
0.0325065
0.935491
0.35413
0.0216413
0.0224482
0.265192
0.0209739
0.0237405
0.311509
0.020964
0.021199
0.0205136
0.271728
0.0208501
0.0239386
0.0219454
0.0391485
0.0277044
0.407576
0.0211894
0.0211368
0.0285189
0.0217367
0.0234724
0.0220858
0.103584
0.122871
0.0209924
0.0213545
2.85849
0.326561
0.800471
0.0207555
0.0213572
0.0225869
0.021536
0.0212752
0.0214349
0.0209521
0.0218796
0.0206729
0.0207606
0.0529156
0.0232766
0.0267812
0.846225
0.0634335
0.0479199
0.0247183
0.0449964
0.13874
0.0289273
0.0235566
0.0259801
0.0210703
0.412371
0.0200579
0.0202775
0.0206969
0.439983
0.0208858
0.442195
0.0218048
0.0201312
0.0413926
0.0211756
0.0211504
0.0211679
0.0269246
0.609528
0.0216254
0.0205699
0.0225969
0.635129
0.0476208
0.334165
0.0210363
0.0324819
0.0214984
0.0215452
0.0201945
0.0207215
0.0213566
0.0223182
0.237207
0.0226455
0.0225688
0.121316
1.14998
0.130561
0.0208374
0.0966824
0.0319334
0.455783
0.0205461
0.0210099
0.0219033
0.355235
0.0198023
0.0213695
0.0207129
0.02034
0.128137
0.0220909
0.0557605
0.0211873
0.0197842
0.0239198
0.0214347
0.620259
0.0211473
0.0229876
0.0217875
0.025909
0.0220479
0.0594109
0.330056
0.0212328
0.0407292
1.78241
0.0211212
0.0215518
0.0405413
0.0197354
2.4682
0.0296492
0.0209689
0.0571356
0.0200231
0.0213454
0.0217266
0.020874
0.0202227
0.0221326
0.0206744
0.0207125
0.021531
0.0219026
0.047009
0.0200815
0.136412
0.0205174
0.0209006
0.0269342
0.0435276
0.0220569
0.0197328
0.0212008
0.0222538
0.0417167
0.368544
0.032301
0.0219217
0.0219555
0.0207517
0.0284246
0.0209356
0.0222957
0.415209
0.248794
0.045812
0.021078
0.0218259
0.0221295
0.0197415
0.0426876
0.0201202
0.106066
0.0219687
0.171427
0.0255916
0.42719
0.021578
0.0616728
1.9904
0.403861
0.363452
0.024607
0.345045
0.318838
0.0218661
0.03356
0.390169
0.0204973
0.0207466
0.0213393
0.0238825
0.120015
0.0214806
0.0239201
0.579736
0.0195293
0.0214691
0.295762
0.497655
0.102309
0.383791
0.438637
0.0221216
0.05346
0.0232632
0.0235591
0.265539
0.0223113
3.7626
0.0377813
0.0235339
0.0214278
0.0227297
0.0229223
0.0205631
2.07899
0.0197955
0.0212486
0.0213119
0.576366
4.09182
0.0437479
0.0213026
0.022446
0.0204703
0.461874
0.0210865
0.0220312
0.0232741
0.0551069
0.0206946
0.0740261
2.76106
0.272656
0.0217822
0.165621
0.0205893
0.100264
0.0198322
0.0617934
0.0216826
0.0654411
0.0258028
1.12691
0.126955
0.0228419
0.0225561
0.0364708
0.0238532
0.0211039
0.0207024
0.0250901
0.0219039
0.320638
0.019662
0.0210866
0.0214331
0.0214027
0.262717
0.0207362
0.0201328
0.0215382
0.0436839
0.0256697
0.0541093
0.0227482
0.0224779
0.0815221
0.0206002
0.0213105
0.0664686
0.0426847
0.0201352
0.0325444
0.0228078
0.350729
0.021249
0.133491
0.0216555
0.0212228
0.0202289
0.0201754
0.0211654
0.021073
0.241582
0.0601227
0.021579
0.021318
0.0211321
0.022101
0.0261205
0.346988
0.0217455
0.0294186
0.0238708
0.320064
0.0216671
0.0410091
0.0212947
0.021256
0.0281012
0.0212226
0.0214619
0.0206698
0.0200508
0.399699
0.021383
0.0207276
0.030024
0.455572
0.0365599
0.021452
0.0198946
0.0236336
2.59898
0.023062
0.021702
0.0215368
0.209023
0.021867
0.0211159
0.934318
0.0207829
0.0244845
0.0226406
0.0215448
0.0201745
0.0526216
0.0257344
0.0206165
0.0212844
0.0213845
0.0208983
0.0817355
0.0225773
0.0213964
0.0197725
0.022012
0.02018
0.0212512
0.0775984
0.0206346
0.0239358
0.023557
0.304428
0.0197355
0.0224827
0.0536064
0.0259039
0.178166
0.0209694
0.0214974
0.199354
0.021403
0.020173
0.377545
0.0214205
2.0364
0.879819
0.0663453
0.349474
0.0214172
0.0262557
1.76903
0.0212521
0.0200175
0.183972
0.064101
0.0208958
0.0201381
0.0227413
0.020766
0.199838
0.0448454
0.975431
0.0214863
0.0216531
0.021226
0.0211028
0.629261
0.269878
3.76184
0.0242527
0.0225142
2.36965
0.021339
0.0208946
0.0225001
0.0209283
0.0218501
0.0544838
0.0197333
0.441321
0.0218434
0.0219497
0.0213943
0.0259695
0.0207918
0.48212
0.0206805
0.0212044
0.0226727
0.0201606
3.0307
0.0240685
0.0260105
2.98555
0.0713352
0.0298821
0.4039
0.0213019
1.21024
0.0262612
0.0207646
0.0223565
0.0216835
0.395387
0.375766
0.0214613
0.0233406
0.211298
0.0210681
0.020568
0.0240454
2.0958
0.625078
0.0215467
0.0220121
0.0928683
0.0227821
0.0683276
0.0674671
0.0641887
0.0201463
0.435368
0.0215367
0.347697
0.0545389
0.0332006
4.14905
0.305878
3.94907
0.0203626
1.17605
0.0199534
0.019781
0.253831
0.0197729
0.0221787
0.0211481
0.0591705
0.0206029
0.14018
0.0201639
0.0249894
0.440999
0.0256869
0.0244872
0.4221
0.0218172
0.0202419
0.0218581
0.0928895
0.0242166
0.134176
0.0214188
0.0253444
0.0217811
2.15998
0.0214205
0.0215753
0.0213677
0.598873
0.0310028
0.0215385
3.82655
0.0211035
0.0213756
0.0248653
0.301083
0.0213948
3.84838
0.0214208
2.59827
0.0214357
0.0417756
0.0209866
0.0509293
0.0214275
0.0575674
0.0243587
0.0288202
0.020895
0.0217623
0.3064
0.0203644
0.023937
0.0267938
0.0200824
0.0584073
0.300956
0.138847
0.0220428
0.0197449
0.0211899
0.132632
0.0237529
4.78063
0.0238076
0.306335
0.0217099
0.0984047
0.0205335
0.0295566
0.119927
0.0227822
2.11219
0.0235929
3.67483
0.162841
0.0207691
1.85459
0.0222443
0.0211431
0.0227383
0.0816795
0.0234444
0.162157
0.0246876
0.115596
0.0423549
0.0644632
0.0474066
0.299124
0.0214608
0.0215329
3.84147
3.71826
0.032676
0.0233644
2.1566
0.311221
0.0217182
0.0214396
0.0212152
0.136566
0.0207057
0.0209139
0.0320023
0.13501
0.0198326
0.0206122
0.0221816
3.2302
0.020501
0.0239678
0.0198344
0.122742
0.0221952
1.15839
0.021831
0.0206462
0.0213384
0.0202979
0.549571
0.0346325
0.223276
0.0213251
0.027996
0.0202056
0.208138
0.194082
0.0497227
0.0207898
0.0506478
0.0208873
0.0215884
0.312431
0.0210752
0.0238893
0.0780198
0.0201483
0.113876
0.0207533
0.0198456
0.0215573
2.05587
0.0207788
4.24561
0.116554
0.313034
0.285239
0.0207081
0.533071
0.0648824
5.0334
0.0313131
3.62233
0.176816
0.0215704
0.0318746
0.021747
0.0281824
0.0212254
0.0227732
0.0212065
0.0252229
0.365679
3.9441
0.0238943
0.0230655
0.558888
0.376311
0.0212126
0.0214552
0.670541
0.0345014
0.020452
0.248709
0.0356351
0.0221712
0.0204013
0.022362
0.329527
0.0216265
0.0584473
0.0195929
0.57292
5.32531
0.073058
0.0223475
0.0214895
0.0211853
0.0212785
0.021483
0.0245496
0.0225037
0.0216176
4.07712
0.0208368
0.0214865
0.0210602
0.287937
0.35627
0.0212547
0.0215882
2.65316
0.0204809
4.01516
0.0215283
0.0213792
0.0197324
0.0216253
0.0205878
0.022766
0.020257
0.228571
0.0218099
0.0738053
0.0213521
2.02789
0.0214687
0.0242612
1.81427
0.182553
0.0214297
0.021449
0.0330197
0.0197339
0.617663
0.41819
0.022494
0.0207564
0.0212383
0.0203251
0.0465586
0.316892
0.0362338
0.426521
0.0351734
0.0213596
0.0211876
0.0205272
0.909751
0.266679
0.0214597
0.0211341
0.0208108
0.0267954
0.0213784
0.330982
2.76341
0.0285547
0.0202721
3.5872
0.12877
0.0214466
0.0457134
0.0225178
0.084418
0.0330407
0.0332921
0.0265812
1.87491
0.0315872
5.35807
0.0208348
0.0205236
0.0206957
0.020346
0.0215077
0.0277502
0.0205273
0.0250323
0.0200142
0.24082
0.0210987
0.0282065
2.49203
0.0220699
0.0198133
0.028194
4.3568
0.0212637
0.0206021
0.177943
1.62162
0.342113
0.021928
0.0197428
0.278121
0.127755
0.02374
0.0529168
0.0214016
0.0328835
0.0215308
0.12857
0.0206615
0.0212408
0.427401
0.0204169
0.0226524
0.30512
0.053711
0.0206366
0.0208766
0.0207429
2.94655
0.0238462
0.025763
0.021428
0.0207788
0.123403
0.0302359
0.0211545
0.0212938
0.0197417
0.0229691
0.0206454
0.0226884
0.186136
0.556072
0.0231344
0.0374203
0.0207895
0.0398502
0.0212204
0.0215633
0.0207626
0.240482
0.0388713
0.0200537
0.0226063
1.17473
0.0350376
3.60928
0.0505094
0.0212969
0.0207694
0.0277551
0.0223191
4.03697
0.020507
3.91037
4.13645
0.0209022
0.0365643
0.287232
0.0252903
1.40696
0.110802
0.0220257
3.65783
0.0253319
0.0204968
3.93141
1.06909
0.101516
0.0217401
0.36096
0.300446
0.0213391
0.173585
0.339718
0.0213795
0.0207077
0.0218236
0.0200325
0.0215568
0.137153
1.54525
0.0214257
0.0238463
2.7501
3.80103
0.0338193
0.0525862
0.0210717
0.0270829
1.47657
0.0490346
3.70167
3.56345
0.0212566
0.0214663
0.0210481
0.0228594
3.11396
0.27436
0.0210156
0.0339998
0.332269
0.30881
0.047318
0.0211378
0.0215038
0.0219434
0.243272
0.0223842
0.0344281
0.0283154
0.022017
0.407984
0.0230732
0.0554331
0.140967
0.349081
0.0212209
0.0212108
0.0225339
0.0305972
0.204847
0.274461
0.0218767
2.50245
2.75063
0.0313124
0.0313164
0.428321
0.331636
0.282667
0.474382
0.0213291
0.303829
0.966651
0.02929
0.0270478
0.130292
0.0226382
0.118155