/*--------------------------------*- C++ -*----------------------------------*\
| =========                 |                                                 |
| \\      /  F ield         | OpenFOAM: The Open Source CFD Toolbox           |
|  \\    /   O peration     | Version:  v2012                                 |
|   \\  /    A nd           | Website:  www.openfoam.com                      |
|    \\/     M anipulation  |                                                 |
\*---------------------------------------------------------------------------*/
FoamFile
{
    version     2.0;
    format      ascii;
    class       surfaceScalarField;
    location    "100";
    object      phi;
}
// * * * * * * * * * * * * * * * * * * * * * * * * * * * * * * * * * * * * * //

dimensions      [0 3 -1 0 0 0 0];
oriented        oriented;


internalField   nonuniform List<scalar> 
27284
(
-0.132603
-0.00784397
0.140448
-0.130385
-0.33757
0.467963
-0.0997663
0.126552
-0.0267852
0.450045
-0.0635469
-0.386479
-0.524461
0.318879
0.205584
0.36696
-0.351603
-0.0153553
-0.397871
0.0640142
0.333861
-0.261854
-0.262604
0.356529
0.110967
-0.467481
-0.284248
-0.111345
0.395595
0.0805019
-0.274548
0.194048
0.0346632
-0.113874
0.0792106
0.104602
-0.0699388
0.310455
-0.283642
-0.0268115
-0.194699
-0.270031
0.464746
-0.444998
-0.0333671
0.47837
0.0316052
0.418463
-0.324289
0.143005
0.181286
-0.116657
0.12734
-0.0106834
0.409216
-0.406735
-0.00247657
0.229852
-0.0397074
-0.190144
-0.337066
0.200043
0.137026
-0.529957
0.0592885
0.470679
0.346744
0.0202171
-0.461334
-0.0686132
-0.305829
-0.100857
0.406692
0.452824
-0.328642
-0.124177
0.262253
-0.450908
0.188673
-0.0621976
0.41874
0.0829868
-0.245915
0.16293
0.388983
-0.267101
-0.121881
0.23839
-0.0777997
-0.160589
0.318181
-0.47262
0.154443
-0.372284
0.552689
-0.180401
0.480013
-0.493918
0.0139059
0.29156
0.0101952
-0.301751
0.183969
-0.154831
-0.0291375
0.355835
-0.0642706
0.233131
-0.150142
-0.17253
-0.130875
0.303409
-0.468834
0.480306
-0.0114357
-0.165411
0.506611
-0.347961
-0.158646
-0.322959
-0.126811
0.449778
-0.453334
0.0934639
-0.0125614
-0.0809026
0.245055
-0.444427
0.199384
0.440986
-0.19592
0.236706
-0.291257
0.429993
-0.138729
0.0126083
-0.395583
0.38298
0.130164
0.0470172
-0.177181
0.135945
-0.427195
0.160078
-0.0641443
-0.0959337
0.0983251
-0.385598
0.287288
0.406652
0.00256803
0.0143896
-0.402606
0.388219
-0.132965
0.0185341
-0.32436
-0.0473149
0.0918358
-0.044521
0.134332
0.149897
-0.123462
-0.0264351
0.0170981
0.14298
0.147228
-0.441872
0.294647
0.299666
-0.137587
-0.162079
-0.155579
-0.314058
0.469642
0.293976
-0.19976
-0.0942143
0.169392
0.0145769
-0.34607
0.52607
-0.179996
-0.0230789
-0.29569
0.31877
0.310261
0.103628
-0.413882
0.316402
-0.218066
-0.270648
0.122711
0.147938
0.129881
-0.31261
0.182731
0.542194
-0.248082
-0.29411
-0.383206
0.507608
-0.124398
0.0931326
-0.226098
-0.554778
0.171577
-0.117473
0.427742
0.327305
0.214891
0.14916
0.144817
0.417322
0.00532468
-0.422644
0.161542
0.129004
-0.242285
0.113282
-0.00961613
-0.134734
0.14435
0.435517
-0.485612
0.0501035
0.0473023
-0.44211
0.394833
0.19605
-0.0541588
-0.141891
-0.344377
0.478534
-0.134146
0.125632
0.0704187
0.376902
-0.156265
0.0735913
0.177205
-0.250795
0.407543
0.00978078
0.288254
0.141745
0.0810145
-0.350542
0.269529
-0.141142
0.450477
-0.309333
0.164842
-0.464365
0.299536
-0.458889
0.31775
-0.191725
0.0736607
0.118065
0.183033
-0.299181
0.116152
0.139299
-0.148915
0.32256
-0.440026
0.430967
-0.142706
0.4036
0.0695495
-0.473149
-0.259241
0.127543
0.131698
0.0989256
-0.543917
0.145917
0.15375
0.339189
-0.258171
-0.0159275
0.152056
-0.136128
-0.623104
0.225516
0.397593
-0.366559
0.380951
0.459537
0.00685576
-0.466389
0.338222
-0.140616
-0.197606
0.252897
-0.123892
0.0856591
-0.00133863
-0.0843204
0.0884833
-0.239121
0.150639
-0.0965548
0.419123
0.551933
-0.224626
-0.279954
0.128171
0.151785
-0.0442586
-0.1555
0.293203
-0.316279
-0.105584
0.00581756
0.299614
-0.0526334
0.193968
-0.141334
0.297088
0.254846
-0.0748649
-0.0243896
0.0992545
0.0549589
0.47807
-0.446442
-0.00952894
-0.123074
-0.125355
-0.141335
0.266695
0.451333
-0.286479
-0.0401007
0.170265
0.122173
0.220921
-0.343087
-0.00506956
-0.0994039
0.104474
0.196924
-0.0733507
-0.123573
0.301559
-0.477121
0.175572
-0.0225969
-0.0940599
0.312978
-0.346982
0.0340062
0.378535
-0.524663
0.146156
-0.19591
0.269502
0.229765
-0.121809
-0.107955
-0.499278
0.324053
0.175228
-0.323718
-0.11143
0.435159
-0.11662
0.135683
0.139824
0.0571002
-0.0439471
-0.280624
0.324595
-0.0791163
0.0841661
-0.00504987
0.130384
-0.487242
0.356858
0.185858
0.152366
0.35786
0.0457158
-0.403575
-0.197051
0.459323
-0.1902
0.145943
0.152012
-0.451367
0.299358
0.470596
-0.331792
-0.1388
0.1268
-0.474756
-0.00721608
0.344694
-0.337468
0.47972
-0.00162756
0.40456
0.0309643
-0.343048
0.0193377
-0.409285
0.402082
-0.136132
0.309812
-0.173678
0.320512
-0.198331
-0.296842
-0.326258
0.439375
-0.316519
-0.122854
-0.139405
0.310754
-0.171347
0.298328
0.0834674
-0.381793
-0.0881482
0.00903196
-0.137864
-0.0034214
0.141285
0.173647
-0.225078
0.0514319
0.0890878
0.140678
0.523237
-0.498205
-0.0250274
-0.124215
0.119146
0.529738
-0.516591
-0.0131396
0.419267
-0.182561
-0.469311
0.471396
-0.00208271
-0.40204
0.358124
0.396969
0.0625722
-0.332401
0.454937
-0.122536
-0.0145098
-0.177103
0.191614
0.282959
-0.183844
-0.0991142
-0.47791
0.463316
0.0146028
-0.121512
0.419842
-0.193124
0.311921
-0.118794
0.482446
-0.225196
-0.257236
0.137839
0.293975
-0.431812
0.262004
0.168971
-0.520806
0.346861
0.173957
-0.207865
0.0807836
0.127082
0.165681
-0.414914
0.249255
0.138481
-0.467118
-0.0969442
0.0220794
-0.101886
-0.0898386
0.131665
0.320346
-0.452002
0.346278
-0.534973
0.188698
0.455602
-0.0108893
-0.444676
-0.0806332
-0.032446
0.113079
-0.38411
0.396723
-0.132678
0.0332786
0.0994
-0.460812
0.12325
0.0228268
0.287629
0.444301
-0.18229
0.313611
-0.216335
-0.0972727
0.0586229
0.17451
0.370198
-0.517016
0.146828
0.0102075
-0.148071
0.283796
-0.108418
-0.175374
0.277655
-0.104008
0.314621
0.167838
-0.326529
-0.12375
0.450283
0.147168
-0.447005
0.29984
-0.190041
-0.125211
0.315256
0.329527
0.0243628
-0.353887
-0.146249
0.448178
-0.301926
-0.446175
0.299929
-0.380099
0.510483
0.20331
0.215957
0.18191
0.10105
-0.116872
-0.0595996
0.176472
-0.115029
0.275327
-0.160293
-0.154532
0.433826
-0.279283
-0.165957
0.15003
-0.347539
0.517467
-0.169926
-0.155379
0.199841
-0.0444609
-0.523987
0.265413
0.258575
-0.218394
-0.127928
0.346324
0.526569
-0.211272
-0.315294
0.504257
-0.367622
-0.136632
0.31685
-0.0038717
-0.15529
-0.00899722
0.164287
-0.254033
0.119151
0.134883
-0.269349
-0.17003
0.439384
-0.11008
-0.476319
0.3197
0.156621
0.156721
0.32599
0.113388
0.159229
-0.377621
0.0801539
-0.253413
0.173262
-0.00348028
0.207277
-0.072151
-0.135125
-0.158169
-0.288003
0.088668
-0.428579
0.339919
0.158558
-0.173067
-0.447818
0.289653
0.136343
-0.284459
0.148116
0.168772
0.160531
-0.397354
0.236838
-0.461482
0.198869
0.262625
-0.00701158
0.33654
0.323516
-0.0464299
-0.277085
-0.180636
-0.238426
0.419069
0.455531
-0.3083
0.347881
0.0986106
0.00540335
-0.104014
-0.30211
-0.221874
0.202219
-0.53462
-0.604489
0.304428
0.300064
0.108948
0.0983296
-0.294139
-0.13624
0.430412
0.322538
0.204035
0.442965
-0.301003
-0.14195
-0.116207
0.474067
-0.134201
0.427473
-0.293269
-0.0153519
-0.104385
0.119737
0.00675791
0.10642
-0.113177
-0.162744
0.221369
0.406394
-0.269358
-0.137034
-0.494594
0.198399
0.296198
-0.174585
0.137375
0.0372102
0.311132
0.131844
-0.225053
-0.461397
0.199354
0.262048
0.331636
-0.501611
0.16998
0.209164
0.10445
0.0475766
-0.164448
0.453098
-0.310457
-0.142623
0.329788
-0.149334
-0.180451
0.0749406
-0.26851
0.193572
0.457903
-0.156334
-0.000197207
-0.13782
0.138018
-0.119757
0.296589
0.0667648
-0.287364
0.220601
-0.317328
0.127292
0.0581231
-0.227846
0.169724
-0.149906
0.481546
-0.013777
-0.180577
0.194354
-0.192356
0.307769
-0.115408
-0.00904927
0.179913
-0.170862
-0.12935
-0.339451
0.172862
0.174553
-0.497572
0.461822
-0.143638
0.188076
-0.101235
-0.0868416
-0.184118
-0.0930872
0.277207
-0.165251
0.459106
-0.293852
-0.272096
-0.222494
-0.470752
0.276068
0.499055
-0.152774
-0.142977
0.142781
0.125008
0.204784
-0.300875
0.181066
-0.0474777
-0.133587
-0.0124194
-0.190981
0.056948
0.134033
-0.117238
-0.330923
0.139693
0.191232
0.258368
-0.183426
-0.308779
-0.11752
0.426306
-0.143328
0.1892
-0.0458705
-0.132136
0.138894
0.0743924
0.113684
0.489874
-0.349759
-0.140114
-0.107665
0.056231
0.0514343
-0.0436883
-0.233894
0.27759
0.2398
-0.364982
0.125187
-0.142166
0.00407247
0.138094
0.195885
-0.137761
-0.341967
0.298288
0.183262
0.257737
-0.481826
0.229892
0.251947
0.109595
-0.135235
0.0256398
-0.0500952
-0.0575701
-0.0768331
0.104489
-0.0276555
0.332643
0.157233
-0.201743
0.2464
-0.158127
-0.0882723
-0.453333
0.21649
0.236846
0.159336
0.314152
-0.473488
0.188637
-0.29705
0.124592
0.20943
-0.35424
0.14482
-0.117689
0.37151
0.108503
0.211065
-0.384695
0.173632
-0.494411
0.344815
0.149602
-0.0563443
0.353435
-0.331035
-0.120991
0.452058
-0.324763
0.152238
-0.332535
0.224793
0.107744
0.0486344
-0.122472
0.0738372
0.144229
-0.1253
-0.0189291
-0.1422
-0.142258
0.497626
-0.164982
0.172157
0.1389
-0.311052
0.119028
-0.463395
0.354796
-0.145357
-0.255984
-0.160478
0.416467
-0.445366
0.161118
-0.468284
0.215338
0.252956
0.422976
0.0192666
-0.442215
-0.160264
0.50183
-0.341566
0.310697
-0.197685
-0.113008
-0.468206
0.319806
0.148409
0.0744422
0.028468
-0.10291
0.09703
-0.353011
-0.464148
0.220393
0.243767
-0.18704
0.453378
-0.266333
0.288997
-0.109083
-0.0267665
0.391226
-0.364427
0.148757
0.140241
0.317721
-0.492023
0.174304
0.3836
0.0393964
-0.120434
0.30347
-0.0790267
0.0317118
-0.545781
0.256873
0.28891
0.520849
-0.203126
-0.320069
0.472617
-0.152536
-0.260812
-0.172383
0.433199
-0.320853
-0.160962
0.355735
0.138243
-0.493971
-0.417447
0.19855
0.218898
-0.27903
-0.26675
0.0297325
0.228637
-0.212915
-0.143109
0.356032
0.226176
-0.14602
0.0280873
0.0765148
0.155598
-0.468211
0.312617
-0.253205
-0.351282
0.0342256
-0.177552
0.354772
0.118921
-0.473689
0.0922781
-0.353086
0.399898
-0.0802658
-0.319629
-0.203327
0.316011
-0.112679
0.498442
-0.307271
-0.191148
-0.181986
-0.1423
0.424548
0.0213462
-0.445877
0.257183
-0.395925
0.138746
0.40558
0.0500495
-0.13846
-0.102377
0.240838
-0.295802
0.0573528
-0.204833
0.147482
-0.466967
0.311392
-0.234244
-0.100827
0.309993
-0.455498
0.312517
0.142985
0.169618
-0.094954
-0.0746636
-0.0983645
0.0742539
0.0241106
0.562719
-0.305845
0.492353
-0.347132
-0.145217
-0.021401
0.120012
-0.445312
0.16738
0.277936
-0.405419
0.0744096
-0.323591
-0.156258
-0.01904
-0.106888
0.125929
0.416736
-0.251035
0.222224
-0.19249
-0.269045
0.333064
-0.1463
0.328224
-0.181922
-0.311633
-0.141698
-0.276358
-0.0859793
0.36234
0.127725
0.0165044
0.152394
-0.134746
-0.0176472
-0.099758
0.503358
0.0883311
-0.0550499
-0.0332812
-0.106187
-0.192991
0.29721
0.155905
0.0555842
0.174268
0.337281
-0.458244
0.452976
-0.360694
-0.132552
0.4344
-0.301848
0.282988
-0.137071
-0.0253577
0.36266
-0.0233082
-0.100907
0.178143
0.242348
-0.420491
0.000598296
-0.121206
0.120608
0.115942
0.213105
-0.329039
-0.062702
-0.302927
0.365636
-0.103786
-0.148453
-0.1315
-0.30876
0.450329
-0.141564
-0.410021
0.298678
0.298651
-0.43285
0.453365
-0.156138
-0.120274
0.0861613
0.0834565
-0.408456
0.345762
0.125366
-0.279609
0.154247
-0.288479
0.14628
0.119805
-0.25141
0.131606
-0.0135726
-0.12677
0.140343
0.207669
0.103033
0.0570833
-0.365855
-0.12022
-0.0179136
0.138133
0.504423
-0.288763
-0.215646
-0.344123
0.483149
-0.139022
0.314396
-0.501428
-0.404284
-0.0267638
-0.0716007
0.487015
-0.132238
-0.0132173
0.387916
-0.37469
-0.379361
0.388403
-0.00901206
-0.0562211
0.104856
0.359319
0.0405804
-0.492918
0.342996
0.149925
0.0874753
0.365505
-0.169156
0.26202
0.00914931
-0.271163
-0.0934471
0.0128139
0.0994088
0.0504883
0.0807
-0.27382
0.373961
0.0506013
-0.145012
0.13144
-0.096512
0.113144
-0.0166318
0.23801
-0.268852
0.0308423
-0.356512
0.510692
-0.154176
-0.0739597
0.133206
-0.0592463
-0.0567763
0.43534
0.130508
-0.182629
0.154991
0.0276382
-0.136444
0.275299
-0.138853
-0.233978
0.0955188
-0.148887
-0.12176
-0.132846
-0.153948
0.283832
-0.217753
-0.11931
-0.0313347
0.105777
0.278078
-0.149906
0.0198149
-0.14505
0.125235
0.321251
-0.145451
-0.175795
-0.329779
0.493212
-0.163429
-0.0674017
0.224396
-0.156991
0.180917
-0.126995
0.0365124
0.0904832
0.0935275
-0.0192736
0.143398
0.139591
-0.164392
0.307401
-0.0984436
0.288435
-0.189985
0.12357
0.454698
-0.307526
-0.119077
-0.211844
0.446161
-0.287934
-0.158224
0.490182
-0.338128
-0.152052
0.429065
-0.217386
-0.211664
0.00189104
-0.182467
-0.31978
0.304532
0.141632
-0.00362676
-0.0810412
0.0846681
-0.0415816
-0.0910966
-0.125068
0.138448
-0.263799
0.318644
-0.331854
-0.139722
0.280747
0.341809
-0.458017
0.0795624
-0.121012
0.0414497
0.390439
-0.150637
-0.248715
0.112269
0.136448
-0.196554
0.294039
-0.0974825
0.165569
-0.257144
0.0915773
0.095406
-0.228654
0.133249
0.0758618
-0.0125429
-0.063319
0.231464
-0.147748
-0.0837153
-0.307892
-0.0964823
0.404377
-0.267075
0.430401
-0.163327
-0.327179
0.374504
-0.128721
0.0411471
0.047184
-0.0505835
-0.0967888
0.147373
-0.133861
0.25923
0.00114864
0.0747132
0.161633
-0.472072
-0.127817
0.104509
0.210687
0.0277032
0.345724
-0.471537
0.125814
0.105575
0.172505
-0.25974
0.192342
0.218912
-0.344802
0.125897
0.339594
0.0778665
-0.417459
0.238016
0.496831
-0.151106
0.158249
0.282994
-0.441242
0.0989657
-0.315299
0.338254
-0.119335
-0.130232
-0.112052
-0.159399
-0.237941
-0.237682
0.357803
-0.120117
-0.235617
0.343577
-0.140266
0.0980853
-0.00455775
0.239161
-0.219147
-0.0200126
0.0819695
-0.303754
0.221787
0.170239
-0.248038
0.321949
-0.136089
-0.266841
-0.177574
-0.446524
0.177335
0.2692
0.312285
-0.230313
-0.216082
-0.088647
0.304732
0.122729
-0.31508
-0.399239
0.239855
0.283688
-0.34003
0.445332
-0.286756
-0.158564
0.00361075
0.23555
-0.243621
0.327421
-0.0837966
0.13254
-0.041652
-0.0908881
-0.0678253
0.0959126
-0.217215
-0.2293
0.106498
0.1464
0.114792
-0.124321
0.268403
0.160675
-0.106301
0.0481047
0.0581964
0.163322
0.335147
0.0917286
-0.244633
0.152905
0.139328
0.0921366
0.38878
0.091564
0.177787
0.144163
-0.100924
0.12848
0.0239139
-0.0630565
0.433264
-0.529759
0.218628
0.311134
-0.131092
0.15531
-0.0242179
-0.161576
0.110993
0.102647
0.0298933
0.164342
0.253982
-0.418303
-0.105257
-0.0182042
0.307307
0.138036
0.114099
-0.0345363
-0.450038
0.126447
-0.181519
0.395962
-0.214437
-0.133529
0.0541013
0.0794274
-0.459391
0.323422
0.135973
-0.203065
0.362296
-0.160613
-0.308697
0.108376
-0.251923
0.143548
0.16223
-0.476069
0.313843
0.393918
-0.182852
-0.00733334
-0.0694998
-0.0486675
0.166245
-0.117577
0.537308
-0.271893
0.341983
0.155041
-0.497021
-0.139362
-0.312282
0.128946
0.18334
-0.183329
0.134662
0.0630858
-0.0748966
0.0118108
0.151082
-0.449056
0.297982
0.226535
0.336185
-0.184996
-0.124567
0.309567
0.11502
0.40822
0.22109
-0.0905154
-0.130573
0.464684
-0.122874
0.446019
-0.290417
-0.0586355
-0.136257
0.194893
0.436117
-0.291515
-0.144598
0.14907
-0.00680203
-0.142268
0.167068
-0.407674
0.240607
-0.327907
-0.241077
-0.0244471
0.115116
-0.0906687
-0.0822324
-0.072622
0.0689953
-0.110105
0.254664
-0.144558
0.175495
-0.308422
0.132931
0.151167
-0.394463
0.243311
0.435727
-0.332094
-0.189121
-0.123487
0.296098
-0.0784305
-0.217665
0.354834
-0.487385
-0.211005
0.0457119
0.165293
0.0162593
-0.164103
0.147844
0.189143
-0.370654
-0.248943
0.111012
0.137931
-0.129138
-0.188345
0.2527
-0.0643543
-0.11954
0.0487491
0.0707909
-0.526306
0.182186
0.165054
-0.172898
-0.506571
0.181813
0.324759
0.402594
-0.430179
0.0275851
-0.232439
0.399508
0.00408899
0.126133
-0.130221
0.0975446
-0.0899746
-0.00756997
0.254367
0.139553
0.298885
-0.450492
0.151612
0.255096
0.13652
0.393225
0.436794
-0.298954
0.139081
-0.0294852
-0.0865507
-0.213287
0.299843
0.0974759
0.157331
-0.254804
-0.163402
-0.0476024
0.205738
-0.102799
0.433027
-0.297265
-0.135756
-0.135825
0.0156058
0.109057
-0.077129
-0.0319275
-0.0875704
0.427166
-0.318743
0.456505
-0.13776
0.354865
-0.442433
-0.106019
0.186804
-0.125494
0.218627
-0.142215
-0.312614
0.436275
-0.12365
-0.126438
-0.111729
0.238168
0.397612
-0.143244
0.166004
0.304595
0.137604
-0.119065
-0.0185385
0.309239
-0.193291
0.00572944
-0.161019
-0.431175
0.0518438
0.104618
0.193437
-0.298051
-0.116052
0.0753053
0.0407468
-0.0715372
0.427278
0.114259
-0.240696
-0.375445
0.135606
-0.194241
-0.202686
0.362696
-0.160001
-0.364216
0.276925
0.0873046
-0.157928
0.208285
-0.0503565
0.249699
-0.141321
-0.504988
0.204346
0.300644
0.498604
-0.356671
-0.14193
-0.315606
0.168002
0.147606
-0.106259
0.042115
-0.0766412
-0.12819
-0.0733805
0.407826
-0.334433
0.131929
-0.184562
-0.22953
0.318105
0.0388719
-0.356969
0.471151
-0.116284
-0.00778797
-0.0827754
-0.106847
-0.0227107
0.129557
-0.494815
0.195604
0.299213
0.0483847
0.0781669
0.42852
-0.146084
-0.282426
-0.0657331
0.500133
-0.0692021
-0.0643265
-0.256616
0.104361
0.152257
-0.117008
-0.134402
-0.216909
0.140269
-0.083606
-0.280592
0.0161987
-0.123045
0.279861
0.148669
0.373627
-0.523528
0.32845
-0.355188
-0.467541
0.154938
0.24884
-0.134579
0.145683
-0.027715
0.15544
0.457595
-0.00624014
-0.451344
-0.049748
-0.056553
-0.257689
0.384473
-0.126781
0.365977
0.105176
0.156011
-0.275767
-0.223098
-0.0565071
0.14189
-0.139653
0.368182
-0.524698
0.156517
0.0793207
-0.116028
0.0367077
0.253556
0.0784392
-0.331984
0.375985
0.113785
-0.489766
-0.328484
0.494578
-0.166091
0.222695
0.424291
-0.155874
0.0418861
-0.108914
0.0670277
-0.303795
0.162234
-0.0878417
-0.216772
-0.18996
-0.103941
-0.261036
0.145783
-0.281912
-0.458709
0.331192
0.127521
0.116008
0.311468
-0.296907
-0.0275865
0.0167791
0.177189
0.139341
-0.506961
0.130819
0.212758
0.0703036
0.0387529
-0.380073
0.000746367
0.379329
-0.327797
-0.127065
0.454863
0.51088
-0.211815
-0.299063
-0.204754
-0.271564
0.0348716
0.114199
-0.100862
0.503456
-0.149005
0.125317
-0.237045
0.473676
-0.107696
-0.434511
0.0544406
0.173675
-0.00930893
-0.164365
0.0996798
0.317135
-0.416814
0.0101246
0.143222
-0.153346
0.321514
-0.328523
0.287756
0.136546
0.466985
-0.184021
-0.282962
0.0910338
0.0280903
-0.119124
0.156057
-0.247451
0.411812
0.0317671
0.14004
-0.171805
-0.157554
0.456444
0.20073
0.108457
-0.309182
-0.351853
0.0792098
0.272653
-0.162228
-0.33169
-0.42818
0.301378
0.145881
-0.262713
0.350192
0.42987
0.0320249
-0.461881
0.263179
0.289514
0.293183
0.170769
-0.46395
0.141122
-0.319379
0.178261
-0.167059
0.177184
0.117441
-0.0264075
0.135298
0.144201
0.105499
0.110716
-0.301606
0.190896
-0.293172
0.194735
0.144909
-0.414255
-0.431488
0.274504
0.131891
-0.584837
0.256815
0.328026
0.442565
-0.302674
-0.139879
-0.297409
-0.223388
-0.126742
0.265195
-0.213937
0.329241
-0.115301
0.476285
-0.334964
-0.141319
0.0794355
-0.0807741
0.268934
0.017663
0.148583
-0.309146
-0.155207
-0.000326746
-0.0961852
0.50279
-0.321654
0.341759
0.134528
-0.0796408
0.401157
0.127828
0.496332
-0.15457
0.474274
-0.338673
-0.135598
-0.140457
0.121636
0.234922
0.291151
-0.230079
0.328481
-0.0983996
-0.142981
0.396551
-0.323757
0.102712
-0.363999
0.261298
-0.143724
0.175492
-0.326222
0.274439
0.0517844
0.301121
0.135164
0.049017
0.178531
-0.227544
0.12416
0.38028
-0.0901043
0.0675075
-0.140191
-0.331345
-0.0639289
-0.0962565
0.160186
0.198234
0.0978669
-0.131418
-0.31389
0.0905382
-0.334157
-0.386151
0.261057
0.125096
-0.0837685
0.0712256
-0.139631
-0.338271
0.144529
0.352302
-0.168734
0.290615
-0.102846
-0.187768
-0.282452
0.373587
-0.0911297
-0.45352
0.329774
-0.517835
0.359658
0.158178
-0.318787
-0.0317533
0.154962
0.335221
0.0881097
-0.152038
0.284105
-0.073211
0.101679
0.292951
0.022465
0.373244
-0.395692
0.274497
-0.347867
0.362271
-0.512008
0.149738
0.436261
-0.118146
-0.112321
-0.0454066
0.117938
-0.0725309
-0.173866
-0.210828
-0.143415
-0.0210266
0.164442
0.011392
0.218176
-0.229561
-0.559678
0.220947
0.338735
0.00806456
-0.450152
0.129551
-0.383892
0.254353
0.120581
-0.408824
0.288251
0.227349
-0.016954
-0.210392
0.0936882
0.0685464
-0.423189
-0.200955
0.233126
-0.221728
-0.210036
-0.151173
0.361219
-0.137818
-0.248058
0.0569227
-0.0139092
-0.129506
0.0963298
-0.202349
-0.0933047
0.122014
-0.028709
0.0493056
0.0425302
0.272054
-0.119955
-0.152097
0.317656
-0.472174
-0.324753
0.0991467
-0.271266
0.172123
0.0674841
-0.363647
0.296186
0.0637089
-0.359398
-0.110917
-0.0242652
0.135182
0.118918
-0.0395974
-0.473869
0.173769
0.300105
0.148589
0.389595
-0.132409
0.393154
-0.272567
-0.0666773
-0.0170911
-0.44151
0.122769
-0.297959
0.149751
-0.487878
-0.0920691
0.419661
-0.327586
-0.249131
-0.303714
-0.164563
0.283352
-0.0708102
0.0965699
-0.0257597
-0.355529
0.51426
-0.15873
-0.297693
-0.292262
-0.181603
0.483896
-0.326077
-0.15781
-0.262748
-0.117908
0.318644
-0.272659
0.0761072
0.178778
0.305126
-0.140521
-0.318867
0.145793
-0.479218
0.318954
-0.0654386
-0.19284
0.361063
0.0227969
-0.383857
-0.449452
0.284205
-0.105367
-0.158211
0.263581
-0.0321391
0.118301
0.30872
-0.440231
0.131513
0.0942889
-0.319583
0.47773
-0.158137
-0.246308
-0.215018
0.444889
-0.153984
-0.290902
-0.116536
0.463408
0.151924
0.120132
-0.134532
0.428509
0.117372
-0.314
0.196632
0.12464
-0.362699
0.238063
0.154755
0.228145
0.155975
0.134641
0.15376
0.343867
0.431669
-0.426597
-0.00506137
0.445093
0.0336421
-0.478729
0.0935015
-0.309581
-0.108166
-0.0828145
-0.404622
0.261119
0.143514
0.000627774
-0.135374
-0.446802
0.176783
0.193606
0.323864
-0.140464
-0.0878228
-0.206979
0.294802
0.425833
-0.267583
-0.120343
0.440044
0.0240858
-0.094896
-0.554288
0.232383
0.321908
-0.358974
0.462954
-0.103978
-0.290413
0.134626
0.155788
0.0850906
-0.300199
0.215111
0.25697
0.1793
-0.147015
0.142644
0.247797
-0.12436
0.0272106
0.0971492
-0.294047
0.206225
0.400452
-0.107268
-0.310156
-0.244129
-0.364415
0.161738
0.296737
-0.0140195
-0.282714
-0.302587
0.275085
-0.326552
0.483623
-0.33245
-0.151169
0.314926
-0.19755
0.223233
-0.0510727
0.0211643
0.118983
-0.140147
0.380365
-0.0378064
-0.342552
-0.327549
0.475283
-0.147729
-0.271915
-0.141367
0.413285
-0.309798
-0.151595
-0.1333
-0.289018
0.422321
-0.470101
-0.0437596
-0.092339
0.136099
-0.0943436
-0.0265306
0.120874
0.37336
-0.305852
-0.283414
-0.210994
-0.134615
0.508247
0.498948
-0.343299
-0.155646
-0.31644
-0.142265
0.0913176
-0.423106
-0.186745
-0.290366
-0.306599
0.481205
-0.174598
0.281085
0.146009
0.320976
0.124773
0.316704
-0.441468
0.15849
-0.391937
0.233461
-0.0184809
0.146961
-0.25286
0.470721
-0.167307
-0.303404
0.317085
-0.337986
0.0209119
-0.0697796
0.225317
-0.155537
0.443746
-0.356031
0.146005
-0.314118
0.438898
-0.501113
0.352051
0.149064
-0.0253996
0.403239
-0.377835
-0.208538
0.0739949
0.134544
-0.107962
0.0766278
0.38577
-0.227267
0.0226556
0.104685
0.148238
-0.16604
0.0178023
0.0116982
-0.0848722
0.0731741
0.0148667
-0.124794
0.109927
-0.451024
0.289505
0.161534
0.290207
-0.205114
-0.443637
0.280431
0.163215
-0.332358
0.402004
-0.0696358
-0.308361
0.456118
-0.147739
0.259596
-0.3766
0.117006
-0.373038
0.115293
-0.431809
0.0262354
0.378949
-0.291781
-0.0871663
0.0771804
-0.109319
-0.256141
-0.0891661
-0.150122
0.298903
-0.148781
0.22471
-0.336133
0.111426
-0.317321
-0.174699
0.241256
-0.130243
-0.123331
-0.0855122
0.208845
0.445557
0.0351946
-0.480745
0.158777
-0.47283
0.110526
-0.0686401
-0.152972
0.169232
0.112774
-0.140489
0.409583
-0.0411825
-0.36839
0.0824529
0.047712
-0.130165
-0.362042
0.45775
-0.134325
-0.181699
0.274426
-0.0927249
0.272867
-0.184658
-0.0882078
0.13191
-0.11647
0.151342
-0.494789
0.290036
-0.305532
0.208451
0.0970838
0.0921009
0.0416905
-0.230034
-0.0243509
-0.0601646
0.174753
0.205618
0.43253
-0.0905443
0.123095
-0.431849
-0.0728027
-0.0298019
0.102605
0.323761
-0.259087
0.128214
0.148559
0.230391
-0.0959899
-0.112547
-0.309638
0.143134
0.166505
0.174991
0.0978781
-0.298578
0.344294
0.405404
-0.374374
-0.0310195
0.267283
-0.111308
0.106662
0.15102
-0.25768
-0.560289
0.231926
0.328365
0.373124
0.0607104
0.327935
0.137619
-0.465553
-0.229562
-0.330725
0.438845
0.147159
0.168857
-0.0726272
-0.307344
0.481852
-0.1745
0.149036
0.118248
0.126789
-0.174266
0.102915
0.175565
-0.278477
0.28197
-0.374034
0.0153386
-0.107677
0.386294
-0.129316
0.116315
-0.303723
0.187414
0.0970693
-0.444197
-0.222957
-0.0441441
0.142847
-0.292968
-0.151039
0.184418
-0.3085
0.124086
0.0474434
-0.107526
0.0600822
0.0314188
0.373996
-0.125681
0.314109
-0.129685
0.148854
-0.0360793
-0.252765
0.071067
-0.187634
-0.229712
-0.141715
0.203876
-0.0621592
0.136091
0.314245
0.439348
-0.120065
0.243172
-0.123106
-0.323912
-0.117595
-0.47183
0.375153
0.096686
0.412453
-0.0953578
-0.150471
0.143669
0.0749109
-0.0118251
-0.302839
-0.177865
0.480705
0.116546
0.0391032
-0.155649
-0.420342
0.0210204
0.399322
-0.300246
0.291798
-0.146474
-0.346442
0.451004
-0.117207
0.223872
0.193593
0.327257
-0.141635
-0.136185
0.255337
0.388349
-0.245702
0.0320859
-0.108305
0.0762197
0.126426
0.11483
0.239615
-0.0740432
-0.503792
0.319772
0.548134
-0.316206
-0.0425122
-0.0735161
0.0657794
0.0317652
0.0824799
-0.0770765
0.48234
0.286621
0.1495
-0.124114
-0.188481
0.3126
-0.0679893
0.0711783
0.400219
0.373815
0.0560665
0.118965
-0.205539
0.119859
0.187915
-0.448672
0.312465
-0.0961868
0.247209
0.248789
-0.328574
0.0797962
-0.0382174
0.0793645
-0.44015
0.235045
0.0246845
-0.127896
0.103211
0.138373
0.0763516
0.038177
-0.215199
0.177022
0.517935
-0.4828
0.327381
0.155421
0.0988387
0.189603
0.192252
-0.31636
-0.151736
0.249214
-0.342858
0.10518
-0.0710682
0.0585068
-0.486075
0.182964
0.0956873
-0.278643
-0.0984066
0.121886
-0.306877
0.0169747
0.210377
-0.0949755
-0.0554948
0.00884687
-0.0816496
-0.268253
0.141241
0.21076
-0.351993
0.194608
-0.0798182
0.0685964
0.0112218
0.145181
0.252433
0.150655
-0.327871
-0.137064
0.464935
-0.150672
0.0342018
0.0908854
-0.0791871
-0.163999
-0.308617
-0.111644
-0.226209
-0.079322
0.384782
-0.125185
0.160289
-0.242492
0.0822047
-0.351995
-0.0169282
0.368944
0.0372443
-0.291591
0.254351
-0.509982
0.303791
0.206192
-0.105936
0.0581959
0.0477405
-0.10627
0.289241
-0.307171
0.487611
-0.180437
-0.479061
0.33887
-0.247898
0.415281
-0.447907
0.152259
0.29565
0.199763
-0.536527
0.336765
0.0132807
-0.197397
-0.527304
0.297745
0.350822
-0.451683
-0.499232
0.205932
0.293303
0.194044
0.119443
-0.313483
-0.172481
-0.121885
0.29437
0.280026
-0.310217
-0.165118
0.151633
-0.0350862
0.098147
-0.27496
0.437194
-0.318062
-0.13425
0.452315
0.125942
-0.268239
-0.234438
0.430398
-0.194555
-0.235843
-0.18589
0.284734
0.303644
-0.266397
-0.403774
-0.11281
-0.362871
-0.111707
-0.504082
0.170689
0.333394
-0.270174
-0.12753
0.397711
0.244943
-0.394387
0.149452
0.296606
-0.17721
-0.322017
-0.359796
0.0714431
0.288355
0.447563
-0.331554
-0.117058
-0.286274
0.403338
-0.058493
0.127093
0.0282174
0.0951786
0.368146
-0.16059
0.12526
-0.242465
0.382122
-0.299324
-0.0827967
-0.139256
0.368913
-0.229653
0.227526
0.32061
0.144675
0.338953
0.352584
0.338677
-0.241769
-0.0969041
-0.334596
-0.101704
-0.308809
0.0135295
0.339568
-0.353097
-0.341316
0.496849
-0.155533
-0.507913
0.166598
0.274316
-0.13969
-0.114706
-0.0774371
0.12027
0.51316
-0.160398
-0.352761
-0.369458
0.282333
0.0871254
-0.220293
0.124304
0.332038
-0.368885
0.0368555
-0.277091
-0.298945
0.442133
-0.143184
0.360206
-0.0437949
0.0518275
0.132743
-0.184569
-0.106339
-0.204084
-0.0278705
0.231957
0.378992
0.0526852
-0.0601604
-0.0558916
-0.29307
0.16829
0.124782
0.0916247
0.282332
-0.102273
-0.180059
0.332395
-0.438387
0.105994
-0.152523
0.250374
-0.0978509
-0.318884
0.48933
-0.170444
0.0359905
0.0781083
0.134048
-0.203827
0.350065
-0.496379
0.146318
-0.284887
-0.0845714
0.373465
0.0361289
0.230159
-0.179852
-0.0503056
-0.0268855
-0.0955859
0.13179
0.258493
-0.390278
-0.451277
0.127368
0.117081
-0.257358
0.140278
-0.229529
-0.346547
0.245694
-0.0787527
-0.291232
0.369988
0.383919
-0.158135
-0.225774
-0.260291
0.103255
0.157036
-0.137038
0.385839
0.122355
-0.461024
0.313488
0.0686332
0.340458
-0.326928
0.484284
-0.334226
-0.150056
0.161026
-0.26639
0.0204503
-0.120176
0.099726
-0.471761
0.290603
0.181179
0.00159044
0.399739
0.126847
0.439502
-0.13078
-0.387226
0.300875
-0.507813
0.354861
0.152956
-0.117635
0.213042
-0.388822
0.245854
0.0331492
0.197012
0.315284
0.0479029
0.24668
-0.294574
0.0243229
0.100058
-0.124381
0.145172
-0.249724
0.104555
0.253866
-0.489384
0.338621
0.150765
-0.451584
0.162514
0.289085
-0.259202
0.100993
-0.0761715
0.123884
-0.18245
-0.21763
-0.100245
0.31788
0.154252
0.234101
0.496466
-0.216331
-0.280135
-0.360665
0.12208
0.238588
0.265764
0.146286
-0.412033
0.171596
-0.401551
0.22997
0.0750231
0.215186
0.106637
0.16768
-0.0482886
0.22337
-0.175079
0.405839
-0.130728
-0.275092
0.290181
-0.24227
-0.146479
-0.325342
-0.0558458
0.406668
-0.333709
-0.232856
0.417311
-0.104343
-0.331339
0.18201
-0.10267
-0.180971
0.129001
0.267047
-0.396044
-0.346868
-0.123337
0.470206
0.0843633
-0.0682131
-0.0161503
0.0253183
0.112286
-0.31138
0.138003
0.134647
-0.481514
0.327929
0.0779236
-0.231418
-0.22014
0.156883
-0.326129
-0.140899
0.467029
0.116851
-0.0391731
-0.0776781
-0.465966
0.158797
-0.207994
-0.286819
-0.156046
-0.280286
0.436336
-0.132621
-0.250398
0.0978763
-0.185286
-0.208887
0.0210355
0.187852
-0.308809
-0.451819
0.124276
0.357277
0.0447356
-0.103316
0.0354907
-0.405238
-0.0929642
0.266681
0.110026
-0.376698
-0.506038
0.210806
0.295234
0.14571
0.153683
0.241827
-0.395495
0.200081
-0.317982
0.134135
0.275172
-0.4093
-0.324539
0.206352
0.11819
0.190363
0.153884
0.304028
0.228806
-0.102862
-0.202902
-0.333624
0.272696
-0.310285
0.03759
-0.103132
0.20411
0.318081
-0.522188
0.2267
0.149257
-0.375956
0.0562652
0.114405
-0.17067
-0.171162
-0.296369
0.369417
-0.24041
0.0310085
-0.253855
0.385649
-0.165644
0.133428
0.0322168
0.199996
-0.0910482
0.378427
-0.160642
-0.217783
0.240663
0.137766
0.287614
-0.112115
-0.0277094
-0.0909904
0.1187
0.0800071
0.0368442
-0.0641333
0.396183
-0.205064
-0.123802
0.0294583
-0.320655
0.106721
0.197887
-0.140671
-0.480133
0.168795
0.31134
0.459351
-0.150336
-0.309012
0.129956
-0.464918
0.196427
-0.493751
0.297326
0.159258
-0.134935
-0.164736
-0.286832
-0.399403
-0.115416
0.51482
-0.303673
-0.113821
0.338534
-0.476959
0.158077
-0.0186602
-0.0952134