/*--------------------------------*- C++ -*----------------------------------*\
| =========                 |                                                 |
| \\      /  F ield         | OpenFOAM: The Open Source CFD Toolbox           |
|  \\    /   O peration     | Version:  v2012                                 |
|   \\  /    A nd           | Website:  www.openfoam.com                      |
|    \\/     M anipulation  |                                                 |
\*---------------------------------------------------------------------------*/
FoamFile
{
    version     2.0;
    format      ascii;
    class       volScalarField;
    location    "750";
    object      ddt0(omega);
}
// * * * * * * * * * * * * * * * * * * * * * * * * * * * * * * * * * * * * * //

dimensions      [0 0 -2 0 0 0 0];


internalField   nonuniform List<scalar> 
18758
(
0.000188364
-0.0359273
5.10365e-06
0.000393616
-0.000360922
-2.65614e-06
-1.92283e-06
-5.41705e-05
-0.00031855
-0.000290419
-0.00737249
-0.0659783
0.184498
-3.96003e-05
-1.29283e-06
-1.81863e-06
-0.0539553
-4.64151e-08
-1.26256e-06
0.000138701
0.0573242
-0.0102849
-2.27396e-06
2.19547e-06
-0.00892985
0.00274104
0.00397364
0.0114635
0.00563149
-0.00902587
0.114692
-0.0553711
-4.58474e-05
-0.179247
-0.000365858
0.000138935
0.288039
-0.000345077
0.313035
-1.16785e-05
-0.0400728
-0.000312693
-0.00513264
-8.78962e-05
-3.82736e-06
0.0159687
-0.000265831
0.0056172
0.0943383
-0.000193516
0.000748233
0.474231
3.99074e-05
6.99137e-05
0.00444039
0.0579477
-2.81253e-05
0.000129457
0.00430222
-2.36944e-05
-4.01589e-06
-2.10224e-05
-0.0611675
-0.576156
-4.38739e-06
-1.38804
-5.64447e-06
-2.26895e-07
0.0093226
-7.68086e-07
0.518449
-1.79954
7.46835e-07
-4.90158e-05
-0.0027419
0.205223
-0.526151
-0.0188548
-0.000343023
-0.00486043
0.00638477
0.182345
-0.0257297
-0.00155203
0.000195562
0.00606937
-2.13603e-06
-6.85842e-05
-0.0767105
0.00637361
-0.104725
3.77414e-07
0.00414102
0.126471
4.37525e-07
-2.12211e-06
-2.83214e-06
0.00241201
-0.0106088
-5.3096e-06
0.0300143
0.000346247
7.4935e-08
-2.04138e-06
-1.51789
0.0592821
0.00568925
0.15145
-0.409435
0.145467
-1.65886e-06
-0.262983
0.000379509
-3.43737e-07
0.000373144
-0.0259279
0.00204331
2.26594e-06
-0.220733
0.000125508
1.74217e-06
-0.42888
0.000126318
-2.43059e-06
0.168722
0.000104144
-1.77281e-05
-2.74799e-06
0.00508176
0.0806072
0.00479358
1.75976e-07
-0.00055321
0.0579267
-2.21009e-05
-2.14379e-06
-0.446441
1.70083e-05
0.0215493
0.00662229
0.000320745
-0.00467713
0.00130489
-0.445697
0.156297
0.00218614
-1.07683
0.00697921
-0.031424
0.101297
0.0337421
0.056658
-1.78175e-06
-0.000302956
-0.039077
-0.550008
0.00418589
0.0046907
-0.00152367
-0.0240826
0.431864
-4.81541e-06
0.47974
-1.05614
0.00115974
-1.8641e-05
-4.21126e-06
-0.130771
0.0764459
-0.108033
0.238756
4.69883e-06
0.00663928
0.0256211
-0.260168
-3.4068e-07
2.74022e-07
-0.0626484
-0.289493
-6.05129e-06
7.34701e-07
0.000161479
0.0052961
-1.44789e-05
0.110936
-4.09808e-06
-0.0110926
0.000700296
0.147022
-0.0153181
0.0715448
-4.15458e-06
-0.000342215
-1.58934
1.01762e-06
-1.46658e-05
-0.000511064
-1.60361e-06
0.140929
-1.61845e-06
4.24601e-05
0.000520946
-0.00877383
-2.20169e-06
-1.94068e-06
0.371332
-4.83009e-06
-0.00037332
0.0539873
0.0609322
8.27251e-08
0.00443718
8.00223e-05
3.56919e-05
0.000100286
-3.29763e-06
-3.37085e-06
0.00430985
-1.57137e-06
0.00264702
-1.56189
2.28385e-05
0.00112456
0.00176833
-0.00629695
-0.00825678
-0.00419454
0.00553181
0.0759686
-4.36885e-06
0.15683
0.00215978
-0.240279
-3.4669e-06
-3.05943e-06
3.16939e-05
-0.00356199
0.0630467
-0.0210454
-9.56913e-06
-1.6823e-06
-0.00349843
0.0146178
9.64261e-07
0.117235
-1.49477
-3.06447e-06
-1.337e-06
4.7073e-06
-5.42189e-06
0.250411
-9.39722e-06
-0.0308696
1.74178e-05
-3.55842e-06
-0.327805
3.46122e-06
-6.28725
-2.95634e-06
-0.877678
0.000323756
-2.54471e-06
-3.36968e-06
-0.000507727
2.57143
3.11405
-3.00039e-06
0.0145895
-1.39385e-06
-1.66551e-05
-0.274575
-0.810438
-1.4385e-05
-7.36398e-07
0.000475909
9.65294e-05
-0.000315799
-1.63519e-06
4.53128e-05
-3.94588e-05
-1.44648e-06
1.24623e-06
-2.1793e-06
-0.65758
-1.7731e-06
-5.60471e-07
-2.09233e-07
0.00986798
-2.52921e-06
-2.28709e-06
5.44965e-07
-1.03214e-05
-1.92469e-05
2.38658e-06
4.5704e-06
4.37564e-05
-0.0144415
4.01554e-06
2.42318e-06
0.0866574
-6.19873e-05
2.75353e-06
2.68797e-06
1.28006
0.0243579
8.04802e-07
-0.00778109
0.0608042
6.77036e-06
0.0335382
-2.21478e-06
2.76911
-0.00929389
0.005707
0.00556603
0.71358
8.72944e-07
1.21842
-0.0101914
-4.46273e-06
0.00504347
-0.00136759
0.0455581
-3.00866e-06
5.95059e-07
0.0683065
0.0307206
-2.94729e-06
0.168196
-0.00335516
0.00132218
0.158213
-2.85111e-06
-1.30161e-05
-2.93036e-06
-2.21618e-07
2.13849e-05
4.28913e-05
-6.22212e-05
-9.18684e-06
2.03007e-05
-1.15699e-05
-0.19965
1.11678
-7.6436e-06
1.48369
-0.00541411
-2.85e-06
0.000239628
0.0285052
-0.0168043
-0.030158
0.201361
-4.0066e-06
0.0690287
-0.734937
0.000712868
-1.12818e-05
0.000930829
5.06728e-05
-4.68074e-05
-0.140183
-1.41309
-0.0169725
-0.0040534
-1.56957
-3.1261e-06
-7.66697e-05
0.00019611
0.00219348
0.0752774
0.145393
-0.0571507
0.0161231
-0.019194
0.607109
-2.89053e-06
-0.771992
0.00680194
0.00389596
-0.0167227
-3.09784e-06
2.21126e-06
-0.0139832
-0.0314898
0.194588
-0.323937
0.166389
-1.17778e-05
-0.0779456
0.117582
-1.80502e-06
-3.96971e-05
0.000104081
-9.05458e-05
1.74212e-06
5.9348e-05
-3.04825e-06
2.89401e-06
-1.07857e-07
4.79401e-05
-0.00102242
0.0259618
8.13738e-05
0.171855
0.103772
-0.0294277
0.0208472
0.00767286
4.12975e-05
2.02861e-06
-0.00991975
-3.94978e-05
-8.05705e-06
-0.58541
0.00193746
-0.0400731
6.36848e-06
-0.0701901
-3.99646e-06
-6.40295e-05
1.73577e-06
0.178381
1.94077
-0.024328
3.81573e-06
0.187558
0.00387619
-3.44097e-06
6.85069e-05
-1.11291e-06
-0.0393863
2.12809e-06
1.82618e-06
-0.0199878
9.83999e-05
-9.93225e-06
1.98866e-07
-3.51108e-05
-0.000179582
-0.320977
-0.249687
-6.23857e-07
-1.53779
1.7537e-06
-3.67902e-05
0.00564467
-3.33923e-06
0.0265612
-9.28687e-07
-0.000205352
5.09137e-06
1.14923
-0.000165569
-3.32367e-06
0.0752612
0.0122924
-4.24966e-07
-7.6839e-05
-1.59631e-05
-2.12644e-06
2.50603e-06
-3.68589e-06
3.08365
-0.678126
-4.24147e-06
-0.000306487
-1.28865
-0.048256
0.0200158
-1.52038
0.0361694
3.34603e-06
0.0074259
-0.00345595
-0.00057348
-3.73844e-05
0.00469919
0.0677721
0.00025081
1.5119e-06
-1.52065e-06
-2.66879e-06
-3.49293e-06
-2.83304e-06
-3.50485e-06
0.0219681
4.39957e-07
1.21595e-06
0.00355094
-9.16961e-07
4.56711e-06
1.48725e-05
7.72567e-06
0.075916
0.050502
-8.12035e-06
0.00271698
-3.07286e-06
5.57501e-05
0.00555683
-0.740179
0.0180651
-2.66446e-06
-3.91376e-06
-0.72791
0.137361
0.017637
-1.27412e-05
-0.0704222
-0.705679
-7.16358e-08
-2.53665e-06
0.432429
9.8957e-05
0.00667216
0.019995
-6.95087e-05
-0.000349765
-1.32979e-06
5.35392e-07
-1.26993e-07
1.19615e-06
-2.35491e-06
-3.85105e-06
-0.0221867
-2.17971e-07
-0.0616541
-0.958969
-3.3423e-07
-1.7274e-07
1.72123e-06
-0.000169193
0.000475974
-0.216225
-5.12524e-06
-0.0123885
-0.000767179
-0.000573391
-1.57107e-05
3.17278e-05
1.76333e-05
-6.07824e-06
-5.44452e-06
-0.145666
0.0571274
-1.38307e-06
-2.32606e-06
-9.19605e-06
-0.185257
1.66577e-06
-3.82946e-06
-3.65952e-06
1.37449e-06
1.3263e-06
-1.43342e-05
7.20889e-05
-2.11835e-06
0.0048666
-4.69643e-06
-2.96469e-05
0.00162048
-0.710253
0.000129917
-7.84586e-06
-4.56573e-06
4.74877e-06
1.64776e-07
7.65446e-05
-0.0652632
0.0131045
-8.1799e-06
0.230581
-4.15875e-06
0.000313918
-3.75744e-05
-1.3383e-06
0.00216619
-1.21477e-06
1.50407e-06
-0.0077345
4.66995e-06
-1.78523e-05
-0.00394946
2.61351e-06
-4.2744e-06
0.178782
2.62188e-06
0.00455566
0.035439
-9.47463e-07
5.48926e-06
-0.00137156
-4.218e-05
0.000493826
-1.49465e-07
-1.23387
0.233716
0.0338175
-1.6447e-06
0.0122173
6.10108e-07
-4.91994e-07
-3.87191e-06
-0.000606908
-0.0178174
0.00515573
8.27705e-05
-1.4401e-05
0.000143015
-0.338597
-0.116635
-3.33622e-06
-0.013757
-8.02299e-05
0.0568166
-0.000542896
0.00903711
-4.11189e-06
-0.000457201
0.00188351
-8.63427e-07
-4.10869e-06
1.49893e-06
-2.18801e-06
-0.000364079
-0.234941
-0.0275458
-0.0347829
0.00611712
-7.10746e-05
-3.98328e-06
-6.57228e-07
-0.083913
-0.0245358
3.16129e-06
0.00106267
0.0578417
-0.0871621
-1.06354e-06
-3.80907e-08
-0.00177291
-0.0216947
4.62338e-07
0.037019
-7.65419e-06
3.96801e-07
6.52581e-05
-3.82472e-06
-5.05307e-06
1.74701e-05
-2.5234e-06
-0.000163427
-0.426083
0.00209518
0.103622
2.25496e-05
8.24238e-07
-0.166348
-2.92902e-06
-0.277427
0.0576816
-8.42491e-06
-0.510709
0.000179204
-3.17896e-06
-0.493634
0.0374464
0.0269234
3.12857
-3.49177e-05
-0.0601533
-5.46839e-07
0.385132
-0.0436361
0.000712044
2.23618e-05
-0.118595
-7.61551e-05
-0.00264994
-0.0504204
-0.30249
-2.02771e-06
0.00536007
-1.55856e-06
0.00123709
0.00633935
-2.53172e-07
-0.000400564
-0.53084
0.0127759
0.000133417
8.10534e-05
1.30721e-06
-1.19632e-05
-8.31856e-05
0.00076655
-0.00371408
6.2468e-06
-0.165422
-5.77236e-05
-1.50925e-05
-2.10499e-05
6.68055e-07
-0.0311922
-1.97233e-06
-2.20517e-06
0.103312
-1.01886e-06
5.59849e-05
0.0106774
0.0041119
0.00393107
-3.30879e-06
-1.32852e-05
-0.00123719
-8.64447e-06
-0.0318081
-4.74204e-05
0.000106165
-2.8381e-05
-1.19605e-05
9.12882e-07
0.00251582
8.25918e-07
0.0505659
-0.0162387
-7.9314e-06
0.536066
-1.06379e-06
0.000414463
0.000156965
-1.48557
-3.98936e-05
-0.0261962
-0.0317039
1.6381e-06
0.0128689
-4.5863e-07
-0.0931459
-1.03581e-05
-9.08359e-06
-0.108029
-0.00710341
-1.97244e-06
8.05094e-06
-4.43417e-05
-7.03528e-07
-3.41011e-06
-0.00527937
0.0238356
1.9243e-05
-8.54489e-07
-5.07194e-07
-0.357749
0.00451891
0.0509525
-2.27328e-06
-0.0402738
-9.49475e-06
-1.47234e-05
7.81116e-05
-0.0270228
-3.30204e-06
0.00129301
-0.0646268
0.00024762
-0.00553376
-4.79518e-06
-0.000572231
-3.30621e-06
2.61399e-06
-0.000102567
-1.69493e-05
0.00213357
-3.89647e-06
-0.0798321
-1.53874e-07
-5.63064e-05
0.00541573
0.0418968
0.000980723
1.87333e-06
-1.18688e-05
-0.0437298
-0.0572208
-0.00213532
-9.4865e-07
-5.15848e-06
-6.91158e-05
1.28246
-0.00774903
1.52274e-05
-1.43435e-06
1.41509e-06
7.21285e-06
1.71027e-05
-4.01383e-07
3.37052e-06
0.030137
-1.92955e-06
-4.16674e-06
-0.0419351
-1.18471e-06
-2.4224
0.00150006
-0.289382
0.020416
-0.0257294
-0.00711528
-4.57382e-08
-5.33698e-06
0.000108246
1.94003e-05
-2.84693e-06
8.54575e-07
7.24842e-07
-1.20174e-05
-0.614053
0.0060143
-0.126889
-0.000296592
-4.76391e-06
-0.00084021
-0.000965645
-0.000915545
3.36047e-07
1.83864e-05
7.81023e-06
0.367854
0.113639
0.0962674
-3.85813e-06
0.00656395
0.00655145
0.00890645
1.13088
-0.346408
5.60504e-05
0.000444653
-1.71839e-05
-0.211218
-8.04844e-07
-1.57833e-06
0.00333683
-0.558523
-4.64969e-07
-0.0471035
0.00508376
-2.39735e-06
-2.2704e-06
-3.25651e-06
8.49813e-06
-9.02936e-07
-7.30758e-05
-0.000472193
8.2776e-07
1.66637e-07
0.164026
0.366805
-8.42418e-07
0.0183227
-0.0159239
1.5277e-05
-9.51247e-05
2.37704e-05
-2.59621e-06
8.39534e-05
8.46624e-06
-3.578e-08
-6.61876e-06
-5.91396e-05
-4.51682e-06
-0.232926
-0.000340677
2.83291e-07
9.08443e-06
0.815572
-1.84637e-06
-1.79782e-06
-0.0677271
-2.71488e-06
-0.000413436
-0.000102645
-4.16476e-06
-1.19235e-06
-3.16311e-06
0.000167889
0.00109074
2.75458e-06
-0.0156738
-0.000583154
0.0077065
-0.363456
1.04592e-06
0.00532491
-4.97261e-07
-0.0808894
-9.69241e-06
6.05901e-06
0.0038483
-0.21396
-3.02357e-05
0.270607
-1.68919
-1.23328e-06
1.82853e-05
-1.88184e-06
-4.01456e-06
-0.000408467
-8.49305e-05
-3.16994e-06
0.0363116
-2.56198e-06
5.71733e-06
-0.0403889
-1.74499e-05
-3.44753e-06
-1.20568e-06
-0.632776
1.00851e-05
9.33577e-06
-0.000495665
-0.00925107
-0.142596
-0.35372
-0.0149976
3.14183e-07
1.1189e-06
-4.12203e-06
-0.20103
7.53473e-07
4.7665e-07
-7.10986e-05
8.6049e-06
-0.0664353
-3.32048e-06
-4.65794e-06
0.0406964
-1.35157e-06
0.00382818
0.0931113
1.15118e-06
7.72862e-07
-0.438961
9.3586e-05
-0.105708
0.770472
-6.54642e-07
-4.57925e-06
0.20535
-2.66715e-06
-7.02892e-05
0.195125
1.58598e-06
-0.0272811
-2.77552e-06
7.87785e-06
-8.99791e-07
-0.000961921
-9.29777e-05
0.0546011
-3.63712e-06
-3.16266e-06
-0.058098
-0.0316886
0.00117122
-0.000133643
0.0321993
0.408394
-0.0104582
3.1223e-07
0.409937
2.63218e-06
0.442563
0.00992562
1.97992e-05
-0.0002044
-2.42928e-06
-0.0266374
-3.68866e-06
-0.290506
-1.70364e-05
0.0610539
0.00585101
4.69718e-07
9.59651e-07
3.17814e-07
-0.0520831
-0.0415212
-7.53509e-06
-0.374066
-3.02582e-06
-3.3008e-06
-0.0221887
-3.43715e-06
-0.0216235
-2.51097e-06
-9.49165e-05
-2.73783e-06
-2.679e-06
-3.23271e-06
-4.06394e-06
-0.000297842
0.000129272
-0.000529351
-0.000573417
-4.16446e-05
-1.12524e-06
-0.104478
-3.41663e-06
0.0075745
-4.47935e-06
-0.0336371
-0.000155252
-0.0265616
5.79204e-06
-3.6721e-06
-3.08846e-06
0.509665
1.92083e-07
0.123014
-0.00239065
-3.64477e-06
-2.92239e-05
-3.26432e-06
-1.31144e-06
0.000111603
7.26721e-06
-0.076053
-8.20009e-06
6.49047e-05
-6.94403e-06
-4.10677e-05
0.259005
-0.345969
-1.09157e-05
-1.05891e-06
1.62663e-05
-3.61568e-05
-2.07306e-06
-9.14687e-05
2.20286e-05
3.95835e-08
3.6625e-06
-2.65901e-06
0.00202172
0.0066425
-2.92001e-07
3.50462e-06
0.028241
3.90502e-05
1.21708
0.0309715
-1.0188e-05
0.375402
1.49494e-06
-1.45049e-05
2.39895e-05
-5.75825e-05
-0.0010081
2.90144e-06
-0.000413439
-0.212169
-0.000605547
0.0227543
0.00181036
-0.461505
0.000542107
-5.2964e-06
-3.99883e-06
-0.0303316
8.97807e-06
1.40419e-07
-0.000239243
0.0400498
-3.17701e-07
1.71591e-06
0.10162
-2.99019e-05
-0.000163341
-0.000216249
-9.45902e-05
-0.000347493
-4.39696e-06
-3.80176e-05
-7.55888e-06
0.000608808
-8.74293e-05
-6.48994e-06
-1.91193e-05
0.0836801
-2.16905e-06
-1.85581e-06
0.0138199
9.12613e-07
7.51898e-07
4.0166e-06
-2.39945e-05
5.57083e-05
-0.0595533
0.00762225
-0.123453
-0.0144533
-0.604629
0.0364593
-0.000177302
-0.353101
0.0230039
-5.99993e-06
-9.66444e-06
2.31246e-07
-4.16254e-06
-2.64991e-05
4.07305e-05
-0.00375111
-0.00172054
-1.94034e-07
-1.52955e-07
-0.000757803
-9.42045e-05
0.0315483
3.40645e-06
2.58753e-05
-5.14914e-06
-0.289785
-0.0966169
-0.000396514
-0.284163
-4.20025e-06
-5.2027e-06
0.00392716
0.000237316
-4.46827e-06
0.000631493
-3.77699e-05
-0.000150992
-0.0140491
0.00177917
0.000578184
1.78043e-06
-3.32764e-06
-5.97355e-06
6.3327e-07
0.0562331
-0.00170684
0.557095
-0.0742573
0.139777
-3.61322e-05
0.46115
-0.53084
-0.0145983
0.00693853
0.760087
-0.000248259
0.0100422
0.00803408
0.000653739
-2.7568e-07
-1.0785e-06
-1.30067e-05
-0.000366102
-1.14301e-06
2.62137e-06
0.0191
0.966111
1.63581
0.0147062
0.00592255
-0.215943
0.000277824
4.79053e-06
-2.15023e-06
0.456817
-0.764341
-3.55787e-06
-0.000555809
-0.0449237
0.0643957
0.0739415
-0.00125932
-0.00312471
9.23238e-07
-0.0701451
-2.27464e-06
0.0517991
0.0433948
0.000516067
0.00595816
0.0075675
-4.71644e-06
9.77382e-07
0.056249
-0.0467279
0.00193003
-3.16209e-05
4.83362e-05
0.000128472
-0.196454
-6.96077e-06
0.0233061
-9.6624e-06
0.0586455
0.0144488
-1.68658e-05
-0.0940742
-0.00307912
-0.0640444
1.01582e-06
0.000880061
-0.431471
-0.00033064
-1.74781e-06
0.154416
0.0585227
-2.52549e-06
-3.14584e-06
-0.0132211
9.48993e-05
-0.000176022
-4.6845
-0.0674529
-2.28148e-05
-7.2629e-06
-0.550804
-0.000284836
-9.34648e-06
-2.27614e-05
-0.00809461
1.81926e-05
4.65636e-06
-1.50258e-06
-0.106805
-1.65417e-06
-0.12716
-2.25784e-06
-2.47654e-06
0.0461339
3.33086e-05
-4.51846e-06
0.0215888
8.6814e-07
-9.61568e-05
-3.84579e-06
-4.95527e-06
-7.88011e-07
0.00610227
2.62011e-05
0.0383597
0.00455634
-0.164028
0.173036
-0.000159371
-1.96519e-07
-1.6356e-06
-0.456119
-0.000283153
5.88522e-05
0.0140586
-0.00113791
1.4548
-1.81436e-06
-1.93188e-06
-7.86995e-07
6.61547e-06
-1.42781e-07
3.17585e-06
4.5974e-05
5.78638e-05
-3.73837e-06
0.00837462
-4.09376e-05
0.037436
-0.000215569
-4.0308e-06
-0.000131828
0.202591
0.0461823
0.00483815
-0.623608
0.159815
-0.000436753
-0.326827
0.000170406
0.000735531
0.000848421
0.160552
-1.71779e-06
0.439655
0.00174653
-0.00598764
-8.19328e-08
-0.0127542
-4.53601e-06
-3.01623e-06
-2.69792e-06
0.000108989
-0.241975
-0.374337
-1.51777e-06
-1.40886e-06
-1.73735e-06
-9.01171e-07
-1.47573e-06
-4.14046e-06
-0.435491
0.00206631
0.00171135
-4.45017e-05
-1.64874e-06
3.9163e-06
-1.00407
-0.00692604
1.26504e-06
-3.51073e-05
-0.103036
-9.18368e-07
-4.28664e-06
-3.334e-08
1.71559e-06
-8.66348e-07
2.76306e-07
-3.19907e-06
-0.0386068
-4.39545e-05
0.965318
-1.26701e-05
-1.65328e-06
-0.00839738
-0.000121092
-0.0452289
-1.74126e-06
0.0022201
-0.0808658
0.00314356
0.000777413
0.0028884
-0.645055
-4.69797e-05
-0.000564344
-7.59737e-07
-3.0057e-07
4.50053e-06
-2.41608e-06
-0.0061529
-0.00170702
-8.41415e-05
-0.00562079
4.37545e-06
2.89625e-05
-0.00113986
0.17414
2.9424e-07
0.00123154
0.0412221
0.00706683
-0.0199437
3.64949e-06
2.74146e-06
0.0813072
-9.68512e-07
-9.15904e-07
-3.15985e-06
0.00649343
-5.14743e-07
-1.82615e-06
0.0980867
0.00228637
2.97522e-05
4.82333e-05
-9.86642e-05
0.459
-2.95825e-05
0.0489201
-0.985018
-9.10073e-07
-1.86428e-07
-0.118774
-0.00122308
0.000999022
-2.83769e-05
0.00250402
-0.00012952
-1.01738e-06
0.000144583
-0.0115462
-0.00203503
0.0182451
-0.0252959
0.000194212
0.167417
0.0122257
-2.25831e-05
0.00125274
-3.47123
0.00016729
-0.20159
-1.46009e-06
-0.00524639
0.00581961
0.332207
0.00160216
0.036889
-0.000486656
-0.084255
-4.70089e-06
-1.7266e-06
0.167673
9.6174e-05
-1.31592e-06
-1.33098e-06
-3.30584e-05
-9.9636e-06
4.42944e-06
-1.91652e-06
-4.4086e-07
-0.00886027
-0.486934
-5.31162e-06
4.85569e-05
0.541587
-0.0299262
1.14432e-06
-0.0207098
0.0119438
0.00113114
-7.45261e-06
-3.06154e-06
-0.954615
-3.21949e-05
-0.00120826
0.00684353
-1.50593e-06
0.000547858
0.0114692
3.5163e-06
-0.168703
-0.48375
-0.481581
3.63212e-06
3.29823e-06
-3.54343e-06
-1.06936e-06
-1.84578e-06
0.0525199
-0.0356953
-1.50589e-06
-0.0714451
0.0025754
1.03531e-06
-5.01849e-06
-2.03014e-06
0.0250716
0.0435506
0.00200129
0.00351107
-4.25144e-05
-0.124049
0.023498
7.54148e-07
-3.44817e-06
-0.000201
0.000247519
-0.442733
-0.0132585
1.18583e-06
-0.0857033
0.0314091
0.00026796
-1.12806e-06
-3.79127e-06
0.00013372
-1.70322e-06
-3.51679e-06
-1.07979e-06
0.0263866
0.0110411
2.89963e-06
3.38195e-06
-0.000523954
-2.1059e-06
-3.78935e-06
-0.000100694
0.0398402
-1.01308e-06
-0.000211214
-0.632929
-0.0089593
-0.0155
0.00592414
-0.000173824
-6.34028e-05
4.58969e-05
2.21292e-06
-2.73234e-06
2.2358e-05
-0.0806893
-0.000926384
-2.27845e-05
0.00246409
1.94563e-06
-0.0363731
0.0100971
-4.89111e-06
-0.0953445
5.05844e-06
-4.13309e-05
-0.00700191
-0.0249131
-7.74906e-05
-0.000108054
-2.38166e-05
0.0122342
1.48527e-06
-4.08395
1.73757
-1.5612e-06
0.00564256
-0.0506251
8.17432e-07
-3.32235e-05
-0.00682501
0.00446658
-4.83599e-06
-0.17816
-7.478e-05
-1.83945e-09
-0.523615
-0.0152215
-0.0558408
-3.493e-07
-0.519068
3.25734e-05
3.65275e-06
-0.00163732
-0.000580576
2.00595e-05
-0.000202788
-0.781599
-0.0507847
-0.000386308
0.00099404
-1.31894e-06
-0.76733
0.0329966
-0.0428759
-1.58127
-4.91754e-07
0.513317
-2.20467e-06
-2.76297e-06
0.00101463
-6.87612e-06
-0.0013683
0.0549115
-5.70825e-06
-2.05185
0.0056741
0.321944
-0.000318967
0.00266654
3.60955e-07
-0.000148393
-8.19824e-05
-1.17823e-07
0.729721
0.311158
-0.170418
-0.0718259
-0.000598866
-0.00646493
-0.0432813
-7.21526e-06
3.44448e-05
-3.69824
0.00282986
-3.82095e-06
-1.58326e-06
0.16873
0.00396536
-0.00046407
-1.38982e-06
-5.64408e-08
0.00307581
-2.87651e-06
-0.00371047
0.0423201
3.55813e-06
0.236182
1.79058e-06
-0.031271
-0.276888
-0.0794602
-2.06413e-05
0.0360902
2.07472e-05
-7.96746e-07
-2.62077e-05
0.234954
-0.00156098
0.413578
4.06176e-06
-3.65514e-06
-0.00668093
-0.79396
-5.57575e-06
0.00662758
-2.26563
-1.34891
-0.356628
-6.85604e-08
-4.99252e-06
-0.151832
1.72665e-07
1.84353e-06
-0.000185804
-5.86223e-06
-4.07423e-06
-1.09733e-06
-1.9316e-06
-0.000100856
-1.55912e-06
-0.00047078
-0.000307673
2.78754e-05
0.132952
0.122249
-0.000166992
-2.42517e-07
-3.47581e-06
0.0027366
-4.27432e-06
-2.12653e-06
2.99501e-06
0.00601983
6.68374e-06
1.9142e-06
-2.53259e-05
-0.0118487
-0.0172566
1.35437e-06
0.00371977
0.018001
-0.000441838
-0.00974872
8.49114e-05
-6.29962e-06
2.9951e-07
0.01279
0.0077394
-2.68614e-06
0.0116599
-0.0247696
-3.6871e-06
-0.279845
2.47352e-05
-0.00223655
0.0299428
-0.08384
0.0785757
9.38525e-05
-3.19845e-06
-0.212685
-1.03473e-05
0.67842
0.00064919
0.0301379
-0.00877201
3.29161e-06
0.00114171
-4.83849e-06
-0.0307501
0.00614392
0.362732
-1.73002e-06
1.78946e-06
-0.00363334
-2.56264e-05
-0.110187
-5.18853e-06
-0.0979761
-0.368598
0.000695052
-5.55544
0.13173
5.42904e-06
2.036e-07
-3.22539e-06
-0.0479291
-0.0108133
-6.19957e-06
-3.95046e-06
1.78028e-05
-2.81128e-07
0.00116281
6.17597e-06
-2.2262e-06
0.188014
-8.55124e-06
-1.2806e-06
-6.34847e-05
0.0176508
-0.0186899
-0.481123
-3.72329e-06
-0.0524841
0.000272902
-1.57075e-05
0.00592371
0.126253
0.201998
-7.21142e-06
0.000156345
1.2943e-06
0.000112112
0.0018294
0.00173327
0.0231882
9.27835e-07
0.00277411
8.52294e-06
-0.0321708
-0.0115068
-2.13747e-06
-2.88875e-05
-2.40392e-06
-2.36028e-06
0.0203556
2.07352e-06
1.21961e-06
-8.39018e-06
-2.39421e-05
-1.38427e-06
-3.38183e-05
-3.7807e-06
-3.84723e-05
-3.92378e-06
-3.16136e-06
0.670485
-0.000259488
-5.13915
-1.81302e-06
1.58464e-06
2.56594e-06
4.97425e-08
-4.56157e-07
-5.61301e-05
-1.42614e-06
-1.12983e-06
-1.99607e-06
-8.83583e-07
-0.00016083
-3.4449e-06
0.0185647
2.02817
0.000803574
-1.90404
-5.38685e-06
0.930843
0.00773993
-0.00520746
-1.33399e-05
-0.0441042
-3.38578e-06
-2.61525e-06
1.85601e-07
-0.10815
0.00802041
-1.22701e-06
-0.000191637
0.000482308
-1.53844e-06
0.0128636
0.0522807
0.000131559
7.15281e-07
1.08277e-05
-0.00676134
-0.000740146
0.107351
-1.2664e-06
5.56899e-05
8.22434e-07
0.000206499
-0.000201926
0.0594096
2.89652e-05
1.67608e-06
-0.156551
0.00191946
0.00553032
-2.95925e-06
2.75598e-05
0.00859773
-2.18487e-05
-4.31445e-06
-0.000606945
0.606566
-1.31602e-05
-2.82688e-06
3.03961e-06
-0.000295122
-9.78756e-06
0.0779672
-1.48469e-06
-5.11162e-06
-0.000530877
-0.0404935
7.31141e-07
-2.59278e-06
1.64491e-06
-0.000559642
-1.02272e-07
0.109787
0.176268
-0.000211509
-0.139819
-3.3737e-06
-0.15334
3.63742e-06
-8.98641e-07
0.00599603
-0.00329055
-0.0194411
-0.00896851
-0.200362
-0.0529631
-6.53176e-05
2.77794e-05
4.1175e-05
-0.0883039
3.22231e-06
5.82224e-05
0.0155946
-6.98395e-06
-0.0233006
-0.0124817
-0.0378782
0.196792
-0.0837618
0.0117628
0.0238103
0.00618753
3.05732e-05
-0.00193834
-1.19869e-06
1.62468e-06
-4.22434e-06
0.344272
0.487539
-0.00571679
-0.000176888
-0.000115586
-0.0776357
-1.78341e-06
0.000750913
-1.94565e-06
-0.00123043
-2.15184e-06
-2.67395e-07
-9.11845e-05
0.00124409
-0.65738
0.000161325
-0.000393133
2.1007e-06
-6.54125e-07
0.0767619
7.74376e-06
-0.00264186
-0.0173246
2.63151e-08
0.00374939
-7.98129e-07
0.158308
-2.35235e-06
0.0523725
2.17697e-05
-5.61422e-06
-0.000296853
0.00184942
-1.12828
0.00106276
-0.042409
-2.03122e-05
2.49347e-06
1.41853e-06
-3.95151e-06
1.86457e-06
-4.0264e-06
-0.590855
0.202649
0.000371266
-9.50353e-06
0.0002067
3.4267e-05
-6.00871e-07
3.84304e-06
0.00703133
0.0125495
-0.000330169
7.97059e-06
-0.127925
-1.40964e-07
0.00437697
-2.75888e-05
0.000948002
-0.684202
-0.0387725
-0.00879676
8.74283e-08
1.65194e-06
-2.55023e-06
-1.33202e-06
-1.42294e-07
-1.34133e-06
-0.573215
-3.31921e-06
-5.68671e-05
1.85237e-06
-0.000200259
-2.28981e-06
-0.175336
0.168367
-0.0554696
-3.42565e-06
-1.35212
1.98947e-06
-0.00554314
-0.0294446
-9.94035e-05
-0.0709681
-6.07053e-05
0.00436696
-6.39021e-06
-2.66518e-05
-4.58062e-05
-0.00182152
0.00963253
0.0159071
-0.00688174
0.00423908
-0.000358922
-2.18723e-05
-7.32431e-06
0.166467
-8.12955e-05
0.123475
1.79996e-05
-1.51271
-1.939
-0.00796435
-2.52852e-05
-0.0150076
-0.000131089
-4.87949e-07
4.67407e-06
-5.81971e-06
0.00462908
-2.4319e-06
-0.0337974
-0.000575229
0.00795269
-3.1313e-06
0.000155083
-0.145382
-0.0745913
0.0304426
-0.000144478
0.00144326
0.306219
-0.129043
-7.99875e-06
-0.0015469
0.0200852
0.00441021
0.0146502
-0.000283965
-0.000474085
-0.0924567
4.38076e-06
-0.0439006
0.00237574
-1.02416e-06
0.0111108
-0.00938676
0.06051
0.000137863
0.00470351
0.000341497
-2.51324e-06
0.00139495
-2.70452e-07
-0.0936301
4.76436e-05
2.58151
0.361554
-0.00499863
0.0510257
0.00696162
0.0874017
-9.30848e-05
0.0135281
0.0250465
0.199858
-2.53553e-05
-4.04971e-05
-6.51589e-07
0.000126799
3.82457e-06
-3.23817e-06
-0.112234
-4.3942e-06
1.3301e-06
-0.000576607
-5.16779e-05
-1.38427e-06
0.00180769
-0.255067
0.00358089
4.87785e-06
3.1058e-06
-0.000186008
4.64409e-05
-4.05726e-06
-2.55912e-06
-1.81092e-06
-0.400826
-0.000173919
0.0604448
7.79029e-05
-3.80056e-06
-5.49406e-07
-0.447569
-0.00663878
-0.0667103
0.00138435
-6.37704e-06
-0.000876368
-1.96269e-06
7.4792e-05
0.0243456
3.11076
0.00351612
-2.17386e-05
9.83802e-06
-0.000623047
-0.015869
0.00628471
0.0184239
-0.000167447
1.36609e-05
-7.14697e-07
-0.000134042
-0.00769263
0.168005
1.16692e-06
-0.305914
-6.92817e-07
2.76447e-06
0.00669462
-3.85304e-07
-0.0753324
0.00790075
0.261633
3.43418e-06
0.000908225
0.00090197
0.555022
1.1943e-05
-2.92863e-05
-0.000401946
0.0122061
-0.627592
0.0108233
0.45206
2.5161e-05
-0.00635886
-0.000209914
0.000181405
0.415943
0.000559608
3.32257e-07
-6.31472e-07
3.15407e-06
0.0434882
-1.05431
-0.000182412
-1.43105
4.30915e-06
2.57556e-07
-5.58377e-06
0.0183
0.0154444
-1.20306
-3.31267e-06
-8.84676e-06
-0.00118708
1.19844
1.97588e-06
0.0118744
-8.45985e-05
0.000231035
2.58348
-9.50283e-07
-0.0364975
0.682485
-0.0100755
0.258681
-4.35093e-05
-3.74309e-05
0.000260042
0.080583
0.000406711
3.05462e-06
0.0103227
0.035237
-1.04814e-07
-2.80499e-05
-0.0856527
-2.01154e-06
0.12078
1.35921
-0.000186702
1.65849e-06
-0.000112098
-0.000152036
-0.378135
-3.35797e-07
0.000740538
-4.55523e-05
1.83501
0.565701
-1.68504e-06
5.49021e-06
-0.00310199
-3.44537e-05
-1.0359e-06
-2.94384e-06
-1.41951e-06
0.00201152
-5.47082e-05
0.00342208
-3.9565e-06
-2.49866e-06
-0.000126266
-3.57346e-06
-7.92956e-06
-1.77923e-05
0.983317
0.0062353
-0.0537935
-4.78615e-06
1.83411e-06
-0.225242
9.39412e-05
0.00463371
0.334704
0.00795306
0.0388435
1.05398
1.18063e-07
0.0644533
-0.0153378
-2.87036e-05
-1.42528e-06
-3.13294e-06
-3.66598e-06
-0.300677
-0.00145122
5.70519e-07
-0.215476
-0.101745
0.303937
2.69836e-06
4.468e-07
1.62178
-1.48553e-06
-1.18588e-06
-1.36203e-05
-2.21915e-06
-0.00670956
-1.80608e-07
0.467463
0.00894284
7.76713e-06
0.00945054
-0.012836
0.153827
-0.467643
-3.50584e-06
-6.85272e-05
-0.00132337
-0.0251178
-0.305467
0.00779754
1.30076e-05
-2.87803e-06
0.00703123
-2.09975e-06
0.070513
0.0300388
-1.46037e-06
0.225664
1.37233e-06
0.239526
-0.000108985
0.0108037
-2.46562e-05
-0.73138
0.270656
-0.571557
0.035293
2.71114e-06
0.704047
0.449972
-6.53153e-06
0.35317
-9.86946e-06
5.17938e-07
-5.98142e-06
-0.000516616
-9.49735e-05
-3.41998e-06
-2.83558e-06
-0.000825125
0.000830546
-0.0016008
-0.213946
0.00129223
0.000473598
4.24735e-05
-0.00234455
5.14235e-06
0.00691788
0.904396
1.92467
0.00682177
-4.70479e-05
-2.22714e-05
-2.63379e-05
0.000745714
-4.15717e-05
-3.22833e-06
0.113666
-0.136852
0.190753
9.56616e-05
-1.8118e-06
0.00045917
1.96414
-0.000140652
-1.86561e-06
-3.85027e-05
5.50943e-06
0.00060001
1.25532e-06
-0.102691
-5.89751e-07
0.260587
2.37984e-07
0.00837201
-0.107475
-0.0670364
-2.81429e-06
0.00557507
2.37828e-06
2.46893e-06
0.00326024
-0.154136
-1.20622e-06
-1.22162e-05
-0.763507
1.26923e-06
0.00101672
-0.00275322
8.85889e-05
-0.490824
-9.59984e-07
-0.560295
-0.000408701
-0.010433
1.77253e-06
1.63574e-06
-2.07671
-1.74219e-06
-0.0731437
-9.97456e-05
-0.000812201
-0.43937
-2.01639e-05
-3.13551e-06
-1.84352e-05
-4.01185e-06
-0.018006
0.466138
1.22529e-06
-0.161837
0.00129629
2.33114
-8.29275e-06
-0.187252
0.00840496
-0.000476302
-4.89292e-05
-4.64722e-06
-0.142399
5.71462e-07
-0.603311
1.64852e-06
-8.76236e-05
-0.000122946
-1.34183e-06
-2.25727e-06
-0.00428798
-8.36198e-05
-2.25768e-06
0.0135586
3.02316e-06
-0.00280025
-0.000140461
0.776538
0.00141873
-1.66954e-05
-0.000463145
-2.21811e-06
-2.70533e-06
-8.94922e-05
0.614777
-0.0352846
0.0278391
-0.00986203
-1.89175e-06
5.66537e-06
9.0361e-06
-1.09564e-06
-6.43715e-07
0.043975
1.08515e-06
2.52506e-05
-0.000581162
1.62603e-05
-1.29987
-4.36731e-06
-2.12305e-06
0.1768
1.14392
-1.07197e-06
0.00203287
-1.18407e-05
0.813507
-3.8189e-06
-5.91286e-06
-0.0483267
-1.78663e-05
-0.0436324
-0.570179
-1.15963e-05
-2.21694e-05
-0.0391041
2.4938e-05
0.000407795
-0.0143899
0.11697
-0.000107957
0.000541402
-0.00149743
-0.0819578
-2.6315e-05
0.000764384
-0.289167
-0.0867192
-0.216362
-8.58334e-05
-4.84547e-06
-7.63935e-07
0.00531974
0.301479
-0.192377
-0.496981
-2.42827e-06
-0.00886846
-3.81577e-05
-0.150762
-3.94372e-06
-0.0018309
0.00790289
-4.45406e-05
-3.227e-05
0.00584383
-0.000250066
-8.70838e-06
-6.36519e-06
-0.00216514
-9.21138e-05
-3.02879e-07
-0.038801
1.36736e-06
-9.91569e-06
4.17812e-06
-1.34669
-1.94645e-05
0.0560021
-0.000620299
-7.42402e-05
-0.621561
-0.000188653
0.00564344
2.44987e-06
-6.51239e-07
-1.14609
0.195379
-0.0799666
1.83907e-05
2.92782e-05
-0.130376
0.00699515
0.00765635
-0.000740559
-0.0609255
-0.0542653
-1.58267e-06
0.997993
1.06924e-05
0.00406824
-0.0630039
0.00684759
0.00660326
-5.11742e-06
0.0946477
0.00224095
0.0070542
0.0059556
-4.19338e-06
-4.0999e-06
1.82375e-06
0.0238884
-5.11913e-07
-0.0200768
0.004647
-0.0148617
-8.81571e-07
0.8117
-1.85002
-0.0840129
0.046955
-2.61583e-05
-3.72405e-07
-4.9967e-06
0.00019457
-5.05609e-06
0.000222764
-0.0554287
-1.43032e-06
-3.00431e-05
-0.0771924
-0.103825
-0.0611605
-5.35056e-05
-0.00107243
-3.37842e-06
0.0992607
0.000114955
-0.157588
0.000728198
-0.00107171
-0.000163093
0.0055427
-1.59032
-3.59547e-06
-7.23461e-07
0.0553716
-0.05104
0.0507784
0.00357489
0.00084613
4.67227e-06
-0.00331515
-2.71501e-06
-0.207327
-3.46772e-06
-1.79785e-05
0.0351897
-1.65768e-05
0.00608492
-6.38794e-07
-1.2756
-1.10382
0.000406437
-0.000815784
0.278168
0.000161793
1.48166e-06
0.407147
-1.89624
0.103321
-1.5819e-06
1.45405e-05
0.106115
-2.14702
0.0278452
-4.98636e-06
3.16859e-05
-9.7045e-07
-0.000370455
-5.8442e-06
-2.09058e-06
-0.375339
-2.76344e-07
0.509863
2.77349e-05
-0.111201
-3.03039e-06
0.532512
-0.193357
0.00698304
-0.0269918
-0.0224313
1.30578e-06
0.00410282
-0.15439
-1.05435e-06
-7.85608e-06
-6.16657e-06
0.430742
0.0829655
-9.69215e-07
0.175017
-0.00210463
-2.26271e-06