/*--------------------------------*- C++ -*----------------------------------*\
| =========                 |                                                 |
| \\      /  F ield         | OpenFOAM: The Open Source CFD Toolbox           |
|  \\    /   O peration     | Version:  v2012                                 |
|   \\  /    A nd           | Website:  www.openfoam.com                      |
|    \\/     M anipulation  |                                                 |
\*---------------------------------------------------------------------------*/
FoamFile
{
    version     2.0;
    format      ascii;
    class       pointVectorField;
    location    "400";
    object      pointDisplacement;
}
// * * * * * * * * * * * * * * * * * * * * * * * * * * * * * * * * * * * * * //

dimensions      [0 1 0 0 0 0 0];


internalField   nonuniform List<vector> 
18854
(
(0 0 0)
(0 0 0)
(0 0 0)
(0 0 0)
(0 0 0)
(0 0 0)
(0 0 0)
(0 0 0)
(0 0 0)
(0 0 0)
(0 0 0)
(0 0 0)
(0 0 0)
(0 0 0)
(0 0 0)
(0 0 0)
(0 0 0)
(0 0 0)
(0 0 0)
(0 0 0)
(0 0 0)
(0 0 0)
(0 0 0)
(0 0 0)
(0 0 0)
(0 0 0)
(0 0 0)
(0 0 0)
(0 0 0)
(0 0 0)
(0 0 0)
(0 0 0)
(0 0 0)
(0 0 0)
(0 0 0)
(0 0 0)
(0 0 0)
(0 0 0)
(0 0 0)
(0 0 0)
(0 0 0)
(0 0 0)
(0 0 0)
(0 0 0)
(0 0 0)
(0 0 0)
(0 0 0)
(0 0 0)
(0 0 0)
(0 0 0)
(0 0 0)
(0 0 0)
(0 0 0)
(0 0 0)
(0 0 0)
(0 0 0)
(0 0 0)
(0 0 0)
(0 0 0)
(0 0 0)
(0 0 0)
(0 0 0)
(0 0 0)
(0 0 0)
(0 0 0)
(0 0 0)
(0 0 0)
(0 0 0)
(0 0 0)
(0 0 0)
(0 0 0)
(0 0 0)
(0 0 0)
(0 0 0)
(0 0 0)
(0 0 0)
(0 0 0)
(0 0 0)
(0 0 0)
(0 0 0)
(0 0 0)
(0 0 0)
(0 0 0)
(0 0 0)
(0 0 0)
(0 0 0)
(0 0 0)
(0 0 0)
(0 0 0)
(0 0 0)
(0 0 0)
(0 0 0)
(0 0 0)
(0 0 0)
(0 0 0)
(0 0 0)
(0 0 0)
(0 0 0)
(0 0 0)
(0 0 0)
(0 0 0)
(0 0 0)
(0 0 0)
(0 0 0)
(0 0 0)
(0 0 0)
(0 0 0)
(0 0 0)
(0 0 0)
(0 0 0)
(0 0 0)
(0 0 0)
(0 0 0)
(0 0 0)
(0 0 0)
(0 0 0)
(0 0 0)
(0 0 0)
(0 0 0)
(0 0 0)
(0 0 0)
(0 0 0)
(0 0 0)
(0 0 0)
(0 0 0)
(0 0 0)
(0 0 0)
(0 0 0)
(0 0 0)
(0 0 0)
(0 0 0)
(0 0 0)
(0 0 0)
(0 0 0)
(0 0 0)
(0 0 0)
(0 0 0)
(0 0 0)
(0 0 0)
(0 0 0)
(0 0 0)
(0 0 0)
(0 0 0)
(0 0 0)
(0 0 0)
(0 0 0)
(0 0 0)
(0 0 0)
(0 0 0)
(0 0 0)
(0 0 0)
(0 0 0)
(0 0 0)
(0 0 0)
(0 0 0)
(0 0 0)
(0 0 0)
(0 0 0)
(0 0 0)
(0 0 0)
(0 0 0)
(0 0 0)
(0 0 0)
(0 0 0)
(0 0 0)
(0 0 0)
(0 0 0)
(0 0 0)
(0 0 0)
(0 0 0)
(0 0 0)
(0 0 0)
(0 0 0)
(0 0 0)
(0 0 0)
(0 0 0)
(0 0 0)
(0 0 0)
(0 0 0)
(0 0 0)
(0 0 0)
(0 0 0)
(0 0 0)
(0 0 0)
(0 0 0)
(0 0 0)
(0 0 0)
(0 0 0)
(0 0 0)
(0 0 0)
(0 0 0)
(0 0 0)
(0 0 0)
(0 0 0)
(0 0 0)
(0 0 0)
(0 0 0)
(0 0 0)
(0 0 0)
(0 0 0)
(0 0 0)
(0 0 0)
(0 0 0)
(0 0 0)
(0 0 0)
(0 0 0)
(0 0 0)
(0 0 0)
(0 0 0)
(0 0 0)
(0 0 0)
(0 0 0)
(0 0 0)
(0 0 0)
(0 0 0)
(0 0 0)
(0 0 0)
(0 0 0)
(0 0 0)
(0 0 0)
(0 0 0)
(0 0 0)
(0 0 0)
(0 0 0)
(0 0 0)
(0 0 0)
(0 0 0)
(0 0 0)
(0 0 0)
(0 0 0)
(0 0 0)
(0 0 0)
(0 0 0)
(0 0 0)
(0 0 0)
(0 0 0)
(0 0 0)
(0 0 0)
(0 0 0)
(0 0 0)
(0 0 0)
(0 0 0)
(0 0 0)
(0 0 0)
(0 0 0)
(0 0 0)
(0 0 0)
(0 0 0)
(0 0 0)
(0 0 0)
(0 0 0)
(0 0 0)
(0 0 0)
(0 0 0)
(0 0 0)
(0 0 0)
(0 0 0)
(0 0 0)
(0 0 0)
(0 0 0)
(0 0 0)
(0 0 0)
(0 0 0)
(0 0 0)
(0 0 0)
(0 0 0)
(0 0 0)
(0 0 0)
(0 0 0)
(0 0 0)
(0 0 0)
(0 0 0)
(0 0 0)
(0 0 0)
(0 0 0)
(0 0 0)
(0 0 0)
(0 0 0)
(0 0 0)
(0 0 0)
(0 0 0)
(0 0 0)
(0 0 0)
(0 0 0)
(0 0 0)
(0 0 0)
(0 0 0)
(0 0 0)
(0 0 0)
(0 0 0)
(0 0 0)
(0 0 0)
(0 0 0)
(0 0 0)
(0 0 0)
(0 0 0)
(0 0 0)
(0 0 0)
(0 0 0)
(0 0 0)
(0 0 0)
(0 0 0)
(0 0 0)
(0 0 0)
(0 0 0)
(0 0 0)
(0 0 0)
(0 0 0)
(0 0 0)
(0 0 0)
(0 0 0)
(0 0 0)
(0 0 0)
(0 0 0)
(0 0 0)
(0 0 0)
(0 0 0)
(0 0 0)
(0 0 0)
(0 0 0)
(0 0 0)
(0 0 0)
(0 -4.83456e-05 0)
(0 -4.43767e-05 0)
(0 -4.25302e-05 0)
(0 -4.81258e-05 0)
(0 -3.78945e-05 0)
(0 -3.84138e-05 0)
(0 -2.53814e-05 0)
(0 -2.33326e-05 0)
(0 -3.23881e-05 0)
(0 -1.76302e-05 0)
(0 -1.45306e-05 0)
(0 -4.62726e-05 0)
(0 -4.26808e-05 0)
(0 -2.6607e-05 0)
(0 -2.30342e-05 0)
(0 -1.87069e-05 0)
(0 -2.02602e-05 0)
(0 -1.64482e-05 0)
(0 -1.2181e-05 0)
(0 -9.91151e-06 0)
(0 -1.03164e-05 0)
(0 -8.27207e-06 0)
(0 -3.72822e-05 0)
(0 -4.49077e-05 0)
(0 -4.76995e-05 0)
(0 -3.07083e-05 0)
(0 -2.65237e-05 0)
(0 -6.16377e-06 0)
(0 -8.12437e-06 0)
(0 -3.26652e-05 0)
(0 -2.00624e-05 0)
(0 -1.84834e-05 0)
(0 -4.74931e-05 0)
(0 -4.5767e-05 0)
(0 -2.40518e-05 0)
(0 -2.14543e-05 0)
(0 -3.74601e-05 0)
(0 -4.10814e-05 0)
(0 -2.61754e-05 0)
(0 -1.90605e-05 0)
(0 -1.82839e-05 0)
(0 -3.4004e-06 0)
(0 -2.86546e-06 0)
(0 -2.21203e-05 0)
(0 -9.6722e-06 0)
(0 -3.49331e-05 0)
(0 -3.24237e-05 0)
(0 -3.99314e-05 0)
(0 -4.31564e-05 0)
(0 -4.61217e-05 0)
(0 -4.76036e-05 0)
(0 -1.15496e-05 0)
(0 -7.81196e-06 0)
(0 -1.69778e-05 0)
(0 -2.7042e-05 0)
(0 -2.90012e-05 0)
(0 -4.7882e-05 0)
(0 -4.9035e-05 0)
(0 -4.25962e-05 0)
(0 -4.16955e-05 0)
(0 -3.68473e-05 0)
(0 -3.01882e-05 0)
(0 -2.83899e-05 0)
(0 -3.19664e-05 0)
(0 -2.34516e-05 0)
(0 -1.32091e-05 0)
(0 -8.48371e-06 0)
(0 -1.55745e-06 0)
(0 -0.000152988 0)
(0 -0.000158169 0)
(0 -0.000161567 0)
(0 -0.000156296 0)
(0 -0.000164733 0)
(0 -0.000159364 0)
(0 -0.000167626 0)
(0 -0.000162139 0)
(0 -0.000170385 0)
(0 -0.000164818 0)
(0 -0.000173192 0)
(0 -0.000167482 0)
(0 -0.000175981 0)
(0 -0.000181745 0)
(0 -0.000184593 0)
(0 -0.000178643 0)
(0 -0.000187294 0)
(0 -0.000181085 0)
(0 -0.000189901 0)
(0 -0.000183472 0)
(0 -0.000192521 0)
(0 -0.000185943 0)
(0 -0.000195276 0)
(0 -0.000188522 0)
(0 -0.000197921 0)
(0 -0.000191211 0)
(0 -0.000200941 0)
(0 -0.000194075 0)
(0 -0.000204379 0)
(0 -0.000197186 0)
(0 -0.000207697 0)
(0 -0.00020042 0)
(0 -0.000211073 0)
(0 -0.000202857 0)
(0 -0.000214666 0)
(0 -0.000207917 0)
(0 -0.00021862 0)
(0 -0.000211607 0)
(0 -0.000222851 0)
(0 -0.000215605 0)
(0 -0.000227403 0)
(0 -0.000219806 0)
(0 -0.000232193 0)
(0 -0.000224608 0)
(0 -0.000237255 0)
(0 -0.000229732 0)
(0 -0.000242559 0)
(0 -0.000234859 0)
(0 -0.000247829 0)
(0 -0.000240086 0)
(0 -0.000253785 0)
(0 -0.000245677 0)
(0 -0.000260067 0)
(0 -0.000252165 0)
(0 -0.000266758 0)
(0 -0.00025947 0)
(0 -0.000274415 0)
(0 -0.000266906 0)
(0 -0.000282202 0)
(0 -0.000274765 0)
(0 -0.000290182 0)
(0 -0.000282976 0)
(0 -0.000298566 0)
(0 -0.000291583 0)
(0 -0.000307568 0)
(0 -0.000300761 0)
(0 -0.000317126 0)
(0 -0.000310286 0)
(0 -0.0003272 0)
(0 -0.000319909 0)
(0 -0.000337877 0)
(0 -0.000330483 0)
(0 -0.000349111 0)
(0 -0.000342071 0)
(0 -0.000360802 0)
(0 -0.000353795 0)
(0 -0.00037277 0)
(0 -0.000365586 0)
(0 -0.000385 0)
(0 -0.00037764 0)
(0 -0.00039772 0)
(0 -0.00039057 0)
(0 -0.000411072 0)
(0 -0.000404819 0)
(0 -0.000424977 0)
(0 -0.000419249 0)
(0 -0.000439118 0)
(0 -0.000432994 0)
(0 -0.000453361 0)
(0 -0.000446586 0)
(0 -0.000467667 0)
(0 -0.000460096 0)
(0 -0.000482454 0)
(0 -0.000477217 0)
(0 -0.000497654 0)
(0 -0.000491621 0)
(0 -0.00051286 0)
(0 -0.000506513 0)
(0 -0.000528303 0)
(0 -0.000521857 0)
(0 -0.000544206 0)
(0 -0.000550142 0)
(0 -0.000566505 0)
(0 -0.000430848 0)
(0 -0.000333113 0)
(0 -0.0002686 0)
(0 -0.00022585 0)
(0 -0.000199351 0)
(0 -0.000538196 0)
(0 -0.000572108 0)
(0 -0.000588707 0)
(0 -0.000594069 0)
(0 -0.000610528 0)
(0 -0.000616217 0)
(0 -0.000632302 0)
(0 -0.000638425 0)
(0 -0.00065462 0)
(0 -0.000660712 0)
(0 -0.000677105 0)
(0 -0.00068329 0)
(0 -0.000699887 0)
(0 -0.000705981 0)
(0 -0.000722701 0)
(0 -0.000716511 0)
(0 -0.000739615 0)
(0 -0.000733126 0)
(0 -0.000756425 0)
(0 -0.000749837 0)
(0 -0.000773123 0)
(0 -0.00076712 0)
(0 -0.000790385 0)
(0 -0.000795763 0)
(0 -0.000813298 0)
(0 -0.00080839 0)
(0 -0.000831266 0)
(0 -0.000836245 0)
(0 -0.000853874 0)
(0 -0.000515427 0)
(0 -0.000858816 0)
(0 -0.000875662 0)
(0 -0.000851413 0)
(0 -0.000881192 0)
(0 -0.00089804 0)
(0 -0.000903319 0)
(0 -0.000920291 0)
(0 -0.000924694 0)
(0 -0.000941402 0)
(0 -0.000945701 0)
(0 -0.000961677 0)
(0 -0.000965929 0)
(0 -0.000981421 0)
(0 -0.000985077 0)
(0 -0.00100042 0)
(0 -0.000996917 0)
(0 -0.00101586 0)
(0 -0.00101221 0)
(0 -0.00103133 0)
(0 -0.00102701 0)
(0 -0.00104623 0)
(0 -0.00105112 0)
(0 -0.00106484 0)
(0 -0.00106063 0)
(0 -0.00107908 0)
(0 -0.00108239 0)
(0 -0.00109621 0)
(0 -0.00109941 0)
(0 -0.00111425 0)
(0 -0.0010934 0)
(0 -0.0011155 0)
(0 -0.00112958 0)
(0 -0.00113065 0)
(0 -0.00114444 0)
(0 -0.00114571 0)
(0 -0.00115919 0)
(0 -0.00115976 0)
(0 -0.00117314 0)
(0 -0.00117315 0)
(0 -0.00118616 0)
(0 -0.000425701 0)
(0 -0.00118564 0)
(0 -0.00119858 0)
(0 -0.0011985 0)
(0 -0.00121074 0)
(0 -0.00121007 0)
(0 -0.00122197 0)
(0 -0.0012209 0)
(0 -0.00123212 0)
(0 -0.00123094 0)
(0 -0.00124165 0)
(0 -0.00124214 0)
(0 -0.00125135 0)
(0 -0.00125132 0)
(0 -0.00126032 0)
(0 -0.00126015 0)
(0 -0.00126894 0)
(0 -0.00126856 0)
(0 -0.00127688 0)
(0 -0.00127581 0)
(0 -0.00128412 0)
(0 -0.00128512 0)
(0 -0.00129221 0)
(0 -0.00129065 0)
(0 -0.00129848 0)
(0 -0.00129643 0)
(0 -0.00130396 0)
(0 -0.00130581 0)
(0 -0.00131082 0)
(0 -0.00130849 0)
(0 -0.00131478 0)
(0 -0.00131198 0)
(0 -0.00131795 0)
(0 -0.0013205 0)
(0 -0.00132337 0)
(0 -0.00132041 0)
(0 -0.00132552 0)
(0 -0.0013221 0)
(0 -0.00132696 0)
(0 -0.00133017 0)
(0 -0.00133122 0)
(0 -0.0013276 0)
(0 -0.00133133 0)
(0 -0.0013273 0)
(0 -0.00133051 0)
(0 -0.00133418 0)
(0 -0.00133293 0)
(0 -0.00132884 0)
(0 -0.00133096 0)
(0 -0.00132645 0)
(0 -0.00132823 0)
(0 -0.00133233 0)
(0 -0.00132924 0)
(0 -0.00132475 0)
(0 -0.00132543 0)
(0 -0.00132053 0)
(0 -0.00132076 0)
(0 -0.00132511 0)
(0 -0.0013199 0)
(0 -0.00131533 0)
(0 -0.00131409 0)
(0 -0.00130926 0)
(0 -0.00130766 0)
(0 -0.00131185 0)
(0 -0.00130502 0)
(0 -0.00130051 0)
(0 -0.00129755 0)
(0 -0.00129265 0)
(0 -0.00128944 0)
(0 -0.00129364 0)
(0 -0.00128524 0)
(0 -0.00128071 0)
(0 -0.00127637 0)
(0 -0.00127149 0)
(0 -0.00126708 0)
(0 -0.00127111 0)
(0 -0.00126168 0)
(0 -0.00125729 0)
(0 -0.00125176 0)
(0 -0.00124697 0)
(0 -0.00124132 0)
(0 -0.00124545 0)
(0 -0.00123484 0)
(0 -0.00123032 0)
(0 -0.00122367 0)
(0 -0.00121874 0)
(0 -0.00121192 0)
(0 -0.00121623 0)
(0 -0.00120434 0)
(0 -0.00119959 0)
(0 -0.0011918 0)
(0 -0.00118657 0)
(0 -0.00117849 0)
(0 -0.00118312 0)
(0 -0.00116937 0)
(0 -0.0011644 0)
(0 -0.00115491 0)
(0 -0.00114949 0)
(0 -0.00113964 0)
(0 -0.00114441 0)
(0 -0.00112885 0)
(0 -0.00112366 0)
(0 -0.00111281 0)
(0 -0.00110712 0)
(0 -0.00109623 0)
(0 -0.00110125 0)
(0 -0.00108472 0)
(0 -0.00107927 0)
(0 -0.0010677 0)
(0 -0.0010619 0)
(0 -0.00107239 0)
(0 -0.00105543 0)
(0 -0.000346385 0)
(0 -0.00104251 0)
(0 -0.000181623 0)
(0 -0.00028464 0)
(0 -0.000201408 0)
(0 -0.000244008 0)
(0 -0.000532302 0)
(0 -0.000508917 0)
(0 -0.00117241 0)
(0 -0.00096983 0)
(0 -0.00016687 0)
(0 -0.000159119 0)
(0 -0.000689418 0)
(0 -0.000217497 0)
(0 -2.50556e-05 0)
(0 -2.4183e-05 0)
(0 -2.08222e-05 0)
(0 -2.32712e-05 0)
(0 -1.99715e-05 0)
(0 -2.23991e-05 0)
(0 -2.58945e-05 0)
(0 -2.50442e-05 0)
(0 -2.15749e-05 0)
(0 -2.42606e-05 0)
(0 -2.08228e-05 0)
(0 -2.35672e-05 0)
(0 -2.01724e-05 0)
(0 -2.2982e-05 0)
(0 -1.9555e-05 0)
(0 -2.25325e-05 0)
(0 -1.91861e-05 0)
(0 -2.22205e-05 0)
(0 -1.90053e-05 0)
(0 -2.20532e-05 0)
(0 -1.88608e-05 0)
(0 -2.20358e-05 0)
(0 -1.88191e-05 0)
(0 -2.20679e-05 0)
(0 -1.88709e-05 0)
(0 -2.21822e-05 0)
(0 -1.90686e-05 0)
(0 -2.25026e-05 0)
(0 -1.94388e-05 0)
(0 -2.30027e-05 0)
(0 -1.9964e-05 0)
(0 -2.36821e-05 0)
(0 -2.06446e-05 0)
(0 -2.44971e-05 0)
(0 -2.14915e-05 0)
(0 -2.54482e-05 0)
(0 -2.24978e-05 0)
(0 -2.65801e-05 0)
(0 -2.36045e-05 0)
(0 -2.79287e-05 0)
(0 -2.49818e-05 0)
(0 -2.94863e-05 0)
(0 -2.66518e-05 0)
(0 -3.13051e-05 0)
(0 -2.84417e-05 0)
(0 -3.32688e-05 0)
(0 -3.03592e-05 0)
(0 -3.52999e-05 0)
(0 -3.25982e-05 0)
(0 -3.77323e-05 0)
(0 -3.50893e-05 0)
(0 -4.03797e-05 0)
(0 -3.7676e-05 0)
(0 -4.3171e-05 0)
(0 -4.64014e-05 0)
(0 -3.25269e-05 0)
(0 -4.35916e-05 0)
(0 -2.70211e-05 0)
(0 -2.55898e-05 0)
(0 -2.70814e-05 0)
(0 -1.68533e-05 0)
(0 -2.58849e-05 0)
(0 -1.59716e-05 0)
(0 -1.9607e-05 0)
(0 -1.65777e-05 0)
(0 -0.000379496 0)
(0 -0.00118424 0)
(0 -0.00117084 0)
(0 -0.00118244 0)
(0 -0.00116871 0)
(0 -0.00117924 0)
(0 -0.00116601 0)
(0 -0.00117556 0)
(0 -0.00116246 0)
(0 -0.00117196 0)
(0 -0.00115806 0)
(0 -0.00116686 0)
(0 -0.00115281 0)
(0 -0.00116071 0)
(0 -0.00114675 0)
(0 -0.00115393 0)
(0 -0.00113973 0)
(0 -0.00114622 0)
(0 -0.00113162 0)
(0 -0.00113766 0)
(0 -0.0011224 0)
(0 -0.00112788 0)
(0 -0.00111209 0)
(0 -0.00111664 0)
(0 -0.00110007 0)
(0 -0.00110439 0)
(0 -0.00108608 0)
(0 -0.00109033 0)
(0 -0.00108241 0)
(0 -0.00106736 0)
(0 -0.00106395 0)
(0 -0.00104804 0)
(0 -0.00104464 0)
(0 -0.00102815 0)
(0 -0.00102477 0)
(0 -0.00100789 0)
(0 -0.00100436 0)
(0 -0.00098728 0)
(0 -0.000983571 0)
(0 -0.000990147 0)
(0 -0.000966243 0)
(0 -0.000962284 0)
(0 -0.000944979 0)
(0 -0.000940555 0)
(0 -0.000923225 0)
(0 -0.000918444 0)
(0 -0.000900649 0)
(0 -0.000895605 0)
(0 -0.00087753 0)
(0 -0.000872279 0)
(0 -0.000880497 0)
(0 -0.000854279 0)
(0 -0.00084879 0)
(0 -0.000830995 0)
(0 -0.000825477 0)
(0 -0.000841943 0)
(0 -0.000818817 0)
(0 -0.000834179 0)
(0 -0.000811191 0)
(0 -0.000825594 0)
(0 -0.00080257 0)
(0 -0.000788212 0)
(0 -0.000779881 0)
(0 -0.000793191 0)
(0 -0.000770958 0)
(0 -0.000783378 0)
(0 -0.000761628 0)
(0 -0.000749245 0)
(0 -0.000740275 0)
(0 -0.000751818 0)
(0 -0.000730874 0)
(0 -0.000741368 0)
(0 -0.000721064 0)
(0 -0.000730676 0)
(0 -0.000711496 0)
(0 -0.000701433 0)
(0 -0.000692374 0)
(0 -0.000701981 0)
(0 -0.000682917 0)
(0 -0.000673042 0)
(0 -0.000663277 0)
(0 -0.000653494 0)
(0 -0.000643077 0)
(0 -0.000652203 0)
(0 -0.00063169 0)
(0 -0.000622846 0)
(0 -0.000611288 0)
(0 -0.000618831 0)
(0 -0.00059874 0)
(0 -0.000591278 0)
(0 -0.000578662 0)
(0 -0.000571419 0)
(0 -0.000558705 0)
(0 -0.000604296 0)
(0 -0.000551568 0)
(0 -0.000538907 0)
(0 -0.000531889 0)
(0 -0.000519281 0)
(0 -0.00051221 0)
(0 -0.000499687 0)
(0 -0.00050631 0)
(0 -0.000487291 0)
(0 -0.000524374 0)
(0 -0.000493332 0)
(0 -0.000475316 0)
(0 -0.000468704 0)
(0 -0.000457498 0)
(0 -0.000450776 0)
(0 -0.000440086 0)
(0 -0.00111166 0)
(0 -0.00109447 0)
(0 -0.00111273 0)
(0 -0.00109753 0)
(0 -0.00111501 0)
(0 -0.00110024 0)
(0 -0.00111955 0)
(0 -0.00110163 0)
(0 -0.00111903 0)
(0 -0.00110174 0)
(0 -0.00111944 0)
(0 -0.00110132 0)
(0 -0.00111853 0)
(0 -0.00109982 0)
(0 -0.0011171 0)
(0 -0.00109698 0)
(0 -0.00111457 0)
(0 -0.00109329 0)
(0 -0.00111131 0)
(0 -0.00108885 0)
(0 -0.00110723 0)
(0 -0.00108505 0)
(0 -0.0011025 0)
(0 -0.00107968 0)
(0 -0.00109589 0)
(0 -0.00107124 0)
(0 -0.0010878 0)
(0 -0.00106219 0)
(0 -0.0010791 0)
(0 -0.0010529 0)
(0 -0.0010697 0)
(0 -0.00104299 0)
(0 -0.00106025 0)
(0 -0.00107508 0)
(0 -0.00103291 0)
(0 -0.00105085 0)
(0 -0.00102202 0)
(0 -0.00103954 0)
(0 -0.00100955 0)
(0 -0.00102621 0)
(0 -0.000996424 0)
(0 -0.00101281 0)
(0 -0.000983206 0)
(0 -0.000998638 0)
(0 -0.00104538 0)
(0 -0.000968812 0)
(0 -0.000983418 0)
(0 -0.000480561 0)
(0 -0.000433475 0)
(0 -0.00042317 0)
(0 -0.000953256 0)
(0 -0.00096763 0)
(0 -0.000416627 0)
(0 -0.000406676 0)
(0 -0.000937169 0)
(0 -0.000950576 0)
(0 -0.000914251 0)
(0 -0.000932781 0)
(0 -0.00040016 0)
(0 -0.000390735 0)
(0 -0.000396942 0)
(0 -0.000381417 0)
(0 -0.000992864 0)
(0 -0.00038734 0)
(0 -0.000371889 0)
(0 -0.000366432 0)
(0 -0.000356933 0)
(0 -0.000900058 0)
(0 -0.000915251 0)
(0 -0.000351987 0)
(0 -0.000342698 0)
(0 -0.000882752 0)
(0 -0.000897092 0)
(0 -0.000347341 0)
(0 -0.00033358 0)
(0 -0.000328841 0)
(0 -0.000320118 0)
(0 -0.00092963 0)
(0 -0.000911625 0)
(0 -0.000878705 0)
(0 -0.000893564 0)
(0 -0.000860209 0)
(0 -0.000875317 0)
(0 -0.000908003 0)
(0 -0.00089013 0)
(0 -0.000857137 0)
(0 -0.00087222 0)
(0 -0.000838901 0)
(0 -0.000853858 0)
(0 -0.000314843 0)
(0 -0.000306483 0)
(0 -0.000886415 0)
(0 -0.000867815 0)
(0 -0.000835001 0)
(0 -0.000848698 0)
(0 -0.000815513 0)
(0 -0.000829073 0)
(0 -0.000795428 0)
(0 -0.000808843 0)
(0 -0.000841521 0)
(0 -0.000821291 0)
(0 -0.000788336 0)
(0 -0.000800809 0)
(0 -0.000767622 0)
(0 -0.000779843 0)
(0 -0.000811965 0)
(0 -0.00079087 0)
(0 -0.000758668 0)
(0 -0.000769597 0)
(0 -0.000737463 0)
(0 -0.000748067 0)
(0 -0.000779281 0)
(0 -0.000757434 0)
(0 -0.000726363 0)
(0 -0.000735542 0)
(0 -0.000765562 0)
(0 -0.000743051 0)
(0 -0.000712741 0)
(0 -0.000720152 0)
(0 -0.000749504 0)
(0 -0.000726801 0)
(0 -0.000697512 0)
(0 -0.000704022 0)
(0 -0.000732533 0)
(0 -0.000709809 0)
(0 -0.000681302 0)
(0 -0.000687162 0)
(0 -0.000714836 0)
(0 -0.000692103 0)
(0 -0.000718757 0)
(0 -0.000695895 0)
(0 -0.000721552 0)
(0 -0.000698588 0)
(0 -0.000673093 0)
(0 -0.000675671 0)
(0 -0.00070017 0)
(0 -0.0006772 0)
(0 -0.000652861 0)
(0 -0.00065437 0)
(0 -0.000677851 0)
(0 -0.000654919 0)
(0 -0.00067745 0)
(0 -0.000654375 0)
(0 -0.000675931 0)
(0 -0.000652648 0)
(0 -0.000673306 0)
(0 -0.000650008 0)
(0 -0.000629447 0)
(0 -0.0006268 0)
(0 -0.000646789 0)
(0 -0.000623524 0)
(0 -0.000603736 0)
(0 -0.000600252 0)
(0 -0.000619222 0)
(0 -0.000595839 0)
(0 -0.000613831 0)
(0 -0.000577218 0)
(0 -0.000590682 0)
(0 -0.000607936 0)
(0 -0.000584864 0)
(0 -0.000601414 0)
(0 -0.000578245 0)
(0 -0.000594063 0)
(0 -0.000570832 0)
(0 -0.000585854 0)
(0 -0.000562574 0)
(0 -0.000547835 0)
(0 -0.00057672 0)
(0 -0.000553476 0)
(0 -0.000566782 0)
(0 -0.000543614 0)
(0 -0.00055628 0)
(0 -0.000533106 0)
(0 -0.000545204 0)
(0 -0.00056845 0)
(0 -0.000556851 0)
(0 -0.000533586 0)
(0 -0.000544717 0)
(0 -0.000521423 0)
(0 -0.000532025 0)
(0 -0.000300783 0)
(0 -0.000292673 0)
(0 -0.000580144 0)
(0 -0.0003378 0)
(0 -0.000924032 0)
(0 -0.001013 0)
(0 -0.000508648 0)
(0 -0.000518677 0)
(0 -0.000286829 0)
(0 -0.000278543 0)
(0 -0.000284803 0)
(0 -0.000270164 0)
(0 -0.000264413 0)
(0 -0.000255809 0)
(0 -0.000977357 0)
(0 -0.000260989 0)
(0 -0.00024646 0)
(0 -0.000241972 0)
(0 -0.00023239 0)
(0 -0.000236659 0)
(0 -0.000222663 0)
(0 -0.000218154 0)
(0 -0.000208778 0)
(0 -0.0002131 0)
(0 -0.000199538 0)
(0 -0.000194578 0)
(0 -0.000186678 0)
(0 -0.000495223 0)
(0 -0.000504684 0)
(0 -0.000190865 0)
(0 -0.000179029 0)
(0 -0.000173904 0)
(0 -0.000166855 0)
(0 -0.000696651 0)
(0 -0.000528124 0)
(0 -0.000513571 0)
(0 -0.000536981 0)
(0 -0.000521878 0)
(0 -0.000498461 0)
(0 -0.000506282 0)
(0 -0.000617385 0)
(0 -0.00107788 0)
(0 -0.000485269 0)
(0 -0.000630199 0)
(0 -0.000171283 0)
(0 -0.000545186 0)
(0 -0.0002954 0)
(0 -0.00029663 0)
(0 -0.000244816 0)
(0 -0.000211012 0)
(0 -0.000482835 0)
(0 -0.00049022 0)
(0 -0.00111253 0)
(0 -0.000712056 0)
(0 -0.000695732 0)
(0 -0.000718307 0)
(0 -0.000702311 0)
(0 -0.000724534 0)
(0 -0.000708869 0)
(0 -0.000730877 0)
(0 -0.000715077 0)
(0 -0.000737026 0)
(0 -0.000721156 0)
(0 -0.000742652 0)
(0 -0.000727212 0)
(0 -0.000747493 0)
(0 -0.000732748 0)
(0 -0.000752635 0)
(0 -0.000737146 0)
(0 -0.000757657 0)
(0 -0.000740608 0)
(0 -0.000717821 0)
(0 -0.000763098 0)
(0 -0.000722779 0)
(0 -0.000701681 0)
(0 -0.000466717 0)
(0 -0.0004737 0)
(0 -6.16891e-05 0)
(0 -6.0659e-05 0)
(0 -0.000704562 0)
(0 -0.000684446 0)
(0 -0.00113872 0)
(0 -0.00113066 0)
(0 -6.55852e-05 0)
(0 -6.46816e-05 0)
(0 -0.000450139 0)
(0 -0.000456708 0)
(0 -0.000480103 0)
(0 -0.000462678 0)
(0 -0.0004858 0)
(0 -0.000687088 0)
(0 -0.000667574 0)
(0 -6.97139e-05 0)
(0 -6.88827e-05 0)
(0 -0.000671077 0)
(0 -0.00065032 0)
(0 -0.00113816 0)
(0 -0.000409815 0)
(0 -0.000654274 0)
(0 -0.000633206 0)
(0 -7.4041e-05 0)
(0 -7.34606e-05 0)
(0 -0.00108448 0)
(0 -0.000637393 0)
(0 -0.000616189 0)
(0 -0.000693737 0)
(0 -0.000620834 0)
(0 -0.000599653 0)
(0 -0.00116759 0)
(0 -7.96201e-05 0)
(0 -7.8386e-05 0)
(0 -0.000604838 0)
(0 -0.000584254 0)
(0 -0.000589022 0)
(0 -0.000568917 0)
(0 -0.000572794 0)
(0 -0.00055358 0)
(0 -0.000557201 0)
(0 -0.00053849 0)
(0 -0.000988384 0)
(0 -0.000973108 0)
(0 -0.000563479 0)
(0 -0.000541919 0)
(0 -0.000523749 0)
(0 -8.46237e-05 0)
(0 -8.35728e-05 0)
(0 -0.000626316 0)
(0 -0.000990943 0)
(0 -0.000975602 0)
(0 -0.000526686 0)
(0 -0.000509293 0)
(0 -0.000505316 0)
(0 -0.000491636 0)
(0 -0.00049549 0)
(0 -0.00047832 0)
(0 -0.000482133 0)
(0 -0.000465192 0)
(0 -0.000461133 0)
(0 -0.000448399 0)
(0 -0.000452511 0)
(0 -0.00043615 0)
(0 -0.000440041 0)
(0 -0.000424094 0)
(0 -0.000427883 0)
(0 -0.00041236 0)
(0 -0.000416254 0)
(0 -0.000401279 0)
(0 -0.000405247 0)
(0 -0.000390759 0)
(0 -0.000394727 0)
(0 -0.000380651 0)
(0 -0.000630896 0)
(0 -0.00099278 0)
(0 -0.000977705 0)
(0 -0.000419492 0)
(0 -8.99788e-05 0)
(0 -8.91526e-05 0)
(0 -9.10068e-05 0)
(0 -0.000376344 0)
(0 -0.000366752 0)
(0 -0.000370926 0)
(0 -0.000357771 0)
(0 -0.000997391 0)
(0 -0.000979219 0)
(0 -0.000361672 0)
(0 -0.000348981 0)
(0 -8.27153e-05 0)
(0 -8.83867e-05 0)
(0 -0.000995521 0)
(0 -0.000979584 0)
(0 -0.000995793 0)
(0 -0.000979846 0)
(0 -0.000998562 0)
(0 -0.000979568 0)
(0 -0.000994999 0)
(0 -0.000978233 0)
(0 -8.19697e-05 0)
(0 -8.76299e-05 0)
(0 -0.000693221 0)
(0 -8.13494e-05 0)
(0 -8.71454e-05 0)
(0 -8.08491e-05 0)
(0 -8.70759e-05 0)
(0 -8.04639e-05 0)
(0 -8.69133e-05 0)
(0 -9.4869e-05 0)
(0 -9.37509e-05 0)
(0 -8.66873e-05 0)
(0 -9.36115e-05 0)
(0 -8.66792e-05 0)
(0 -9.37998e-05 0)
(0 -8.68634e-05 0)
(0 -9.4167e-05 0)
(0 -8.7186e-05 0)
(0 -9.47329e-05 0)
(0 -8.79269e-05 0)
(0 -9.53778e-05 0)
(0 -8.87931e-05 0)
(0 -9.64115e-05 0)
(0 -8.98369e-05 0)
(0 -9.78578e-05 0)
(0 -9.12819e-05 0)
(0 -9.94274e-05 0)
(0 -9.28731e-05 0)
(0 -0.000101295 0)
(0 -9.47486e-05 0)
(0 -0.000103448 0)
(0 -0.000110203 0)
(0 -0.00011261 0)
(0 -0.000105844 0)
(0 -0.000115272 0)
(0 -0.000108501 0)
(0 -0.000118314 0)
(0 -0.000111527 0)
(0 -0.000121634 0)
(0 -0.000114917 0)
(0 -0.000125356 0)
(0 -0.000102629 0)
(0 -0.000122375 0)
(0 -0.000118686 0)
(0 -0.000129506 0)
(0 -0.000122845 0)
(0 -0.00013407 0)
(0 -0.00012744 0)
(0 -0.000139081 0)
(0 -0.000132443 0)
(0 -0.000144464 0)
(0 -0.000151292 0)
(0 -0.000156966 0)
(0 -0.000150149 0)
(0 -0.000162889 0)
(0 -0.000156064 0)
(0 -0.000169019 0)
(0 -0.000162585 0)
(0 -0.000174918 0)
(0 -0.000168435 0)
(0 -0.00018118 0)
(0 -0.00017409 0)
(0 -0.000187616 0)
(0 -0.000180851 0)
(0 -0.000194473 0)
(0 -0.000188062 0)
(0 -0.000201868 0)
(0 -0.000164135 0)
(0 -0.000207259 0)
(0 -0.000352851 0)
(0 -0.000340502 0)
(0 -0.000353638 0)
(0 -9.65999e-05 0)
(0 -9.74834e-05 0)
(0 -0.000100769 0)
(0 -0.000344166 0)
(0 -0.000332222 0)
(0 -0.000443067 0)
(0 6.50393e-06 0)
(0 5.51675e-06 0)
(0 5.89712e-06 0)
(0 6.8204e-06 0)
(0 6.21786e-06 0)
(0 7.0771e-06 0)
(0 6.46584e-06 0)
(0 7.27444e-06 0)
(0 6.63976e-06 0)
(0 7.39484e-06 0)
(0 6.75678e-06 0)
(0 7.46723e-06 0)
(0 6.82527e-06 0)
(0 7.51689e-06 0)
(0 6.85154e-06 0)
(0 7.53745e-06 0)
(0 6.84066e-06 0)
(0 6.059e-06 0)
(0 5.75168e-06 0)
(0 -0.000335948 0)
(0 -0.000324165 0)
(0 -0.000320662 0)
(0 -0.000312464 0)
(0 -0.000316139 0)
(0 -0.000304035 0)
(0 -0.000307616 0)
(0 -0.000295169 0)
(0 -0.000298087 0)
(0 -0.000286148 0)
(0 -0.000288434 0)
(0 -0.000277522 0)
(0 -0.000558847 0)
(0 -0.00121909 0)
(0 -0.000993385 0)
(0 -0.000976688 0)
(0 -0.000274551 0)
(0 -0.000266356 0)
(0 -0.00026956 0)
(0 -0.000257941 0)
(0 -0.000103425 0)
(0 -0.000104266 0)
(0 -0.000431209 0)
(0 -0.000625928 0)
(0 -0.000356123 0)
(0 -0.000807726 0)
(0 -0.00072799 0)
(0 -0.000259731 0)
(0 -0.000249177 0)
(0 -0.000309883 0)
(0 -0.00048818 0)
(0 -0.000300379 0)
(0 4.78053e-06 0)
(0 -0.000190587 0)
(0 -0.000382563 0)
(0 -0.000744454 0)
(0 -0.000658779 0)
(0 -0.000750458 0)
(0 -0.000781159 0)
(0 -0.00102559 0)
(0 -0.000520567 0)
(0 -0.000757976 0)
(0 -0.000869048 0)
(0 -0.000914818 0)
(0 -0.000899422 0)
(0 -0.0010403 0)
(0 -0.00077332 0)
(0 -0.00122848 0)
(0 -0.000812102 0)
(0 -0.000788799 0)
(0 -0.000791855 0)
(0 -0.000768364 0)
(0 -0.000770171 0)
(0 -0.00074637 0)
(0 -0.000746981 0)
(0 -0.000722904 0)
(0 -0.000722257 0)
(0 -0.000697527 0)
(0 -0.000696031 0)
(0 -0.000670242 0)
(0 -0.000668754 0)
(0 -0.000693823 0)
(0 -0.0006622 0)
(0 -0.000691635 0)
(0 -0.000663085 0)
(0 -0.000688656 0)
(0 -0.000660421 0)
(0 -0.000685673 0)
(0 -0.000657202 0)
(0 -0.000683481 0)
(0 -0.000642702 0)
(0 -0.000643677 0)
(0 -0.000654064 0)
(0 -0.000682645 0)
(0 -0.000650787 0)
(0 -0.000679762 0)
(0 -0.000614266 0)
(0 -0.000616223 0)
(0 -0.000646275 0)
(0 -0.00067466 0)
(0 -0.000585669 0)
(0 -0.00058814 0)
(0 -0.000640307 0)
(0 -0.000668288 0)
(0 -0.000632808 0)
(0 -0.000660687 0)
(0 -0.00055787 0)
(0 -0.000560096 0)
(0 -0.000625463 0)
(0 -0.000624458 0)
(0 -0.000652396 0)
(0 -0.000530977 0)
(0 -0.000531905 0)
(0 -0.000615385 0)
(0 -0.000642919 0)
(0 -0.000604863 0)
(0 -0.000632288 0)
(0 -0.000503751 0)
(0 -0.00050366 0)
(0 -0.000500152 0)
(0 -0.000696253 0)
(0 -0.000593153 0)
(0 -0.000620967 0)
(0 -0.000660134 0)
(0 -0.00064903 0)
(0 -0.000609166 0)
(0 -0.000637458 0)
(0 -0.000597997 0)
(0 -0.000624975 0)
(0 -0.000604129 0)
(0 -0.000477738 0)
(0 -0.000475868 0)
(0 -0.000585353 0)
(0 -0.000611294 0)
(0 -0.000503235 0)
(0 -0.000475088 0)
(0 -0.00044367 0)
(0 -0.000447564 0)
(0 -0.000475612 0)
(0 -0.000449086 0)
(0 -0.000572085 0)
(0 -0.000597787 0)
(0 -0.000687889 0)
(0 -0.000422241 0)
(0 -0.000423117 0)
(0 -0.000709577 0)
(0 -0.000560195 0)
(0 -0.000584918 0)
(0 -0.000624926 0)
(0 -0.000611061 0)
(0 -0.000569914 0)
(0 -0.000596247 0)
(0 -0.000553648 0)
(0 -0.000581113 0)
(0 -0.000475549 0)
(0 -0.00039708 0)
(0 -0.000397594 0)
(0 -0.000565498 0)
(0 -0.000538119 0)
(0 -0.000565317 0)
(0 -0.000652615 0)
(0 -0.000517258 0)
(0 -0.000550067 0)
(0 -0.000371549 0)
(0 -0.000372903 0)
(0 -0.000594563 0)
(0 -0.000578494 0)
(0 -0.000527726 0)
(0 -0.000562552 0)
(0 -0.000516927 0)
(0 -0.000547322 0)
(0 -0.000399374 0)
(0 -0.000375947 0)
(0 -0.00040237 0)
(0 -0.00037925 0)
(0 -0.000352901 0)
(0 -0.000355481 0)
(0 -0.000381565 0)
(0 -0.000357064 0)
(0 -0.000330817 0)
(0 -0.000332091 0)
(0 -0.00037129 0)
(0 -0.000182613 0)
(0 -0.000542588 0)
(0 -0.00118494 0)
(0 -0.000381725 0)
(0 -0.00025102 0)
(0 -0.000240254 0)
(0 -0.000262172 0)
(0 -0.000503113 0)
(0 -0.000531313 0)
(0 -0.000131752 0)
(0 -0.000960739 0)
(0 -0.000958966 0)
(0 -0.000993084 0)
(0 -0.000104901 0)
(0 -0.000110504 0)
(0 -0.000111296 0)
(0 -0.000263549 0)
(0 -8.34576e-05 0)
(0 -0.000305027 0)
(0 -0.000305907 0)
(0 -0.000487757 0)
(0 -0.000513784 0)
(0 -0.00062331 0)
(0 -7.97405e-05 0)
(0 -7.51597e-05 0)
(0 -0.000943307 0)
(0 -0.000941238 0)
(0 -0.00101022 0)
(0 -0.000242008 0)
(0 -0.000231018 0)
(0 -0.000229525 0)
(0 -0.000220016 0)
(0 -0.000345337 0)
(0 -0.000345224 0)
(0 -0.000120933 0)
(0 -0.00058883 0)
(0 -0.000221308 0)
(0 -0.00021036 0)
(0 -0.000208969 0)
(0 -0.000199624 0)
(0 -0.000198164 0)
(0 -0.00018935 0)
(0 -0.000190642 0)
(0 -0.000180962 0)
(0 8.18623e-06 0)
(0 -0.00018193 0)
(0 -0.00051371 0)
(0 -0.000467517 0)
(0 -0.000494646 0)
(0 -0.000961977 0)
(0 -0.000311112 0)
(0 -0.000558375 0)
(0 -0.000286745 0)
(0 -0.000261494 0)
(0 -0.000280832 0)
(0 -0.00025542 0)
(0 -0.000274495 0)
(0 -0.000249006 0)
(0 -0.000267797 0)
(0 -0.000242206 0)
(0 -0.000260752 0)
(0 -0.000925855 0)
(0 -0.000923684 0)
(0 -0.000938841 0)
(0 -0.000920651 0)
(0 -0.000905723 0)
(0 -0.000902126 0)
(0 -0.000887039 0)
(0 -0.000916949 0)
(0 -0.000278216 0)
(0 -0.000279375 0)
(0 -0.000305996 0)
(0 -0.000280946 0)
(0 -0.000306078 0)
(0 -0.000282854 0)
(0 -0.000306621 0)
(0 -0.000284504 0)
(0 -0.000260321 0)
(0 -0.000262636 0)
(0 -0.000285255 0)
(0 -0.000264134 0)
(0 -0.000242013 0)
(0 -0.000244018 0)
(0 -0.000235171 0)
(0 -0.000253522 0)
(0 -0.000227943 0)
(0 -0.000246008 0)
(0 -0.000437966 0)
(0 -0.000475819 0)
(0 -0.000117754 0)
(0 -0.000117147 0)
(0 -0.000118409 0)
(0 -0.000884314 0)
(0 -0.000222322 0)
(0 -0.000224392 0)
(0 -0.000897802 0)
(0 -0.000912053 0)
(0 -0.000285032 0)
(0 -0.00100814 0)
(0 -0.000743159 0)
(0 -0.000251289 0)
(0 -0.000249742 0)
(0 -0.00047006 0)
(0 -0.000220507 0)
(0 -0.000238187 0)
(0 -0.000263423 0)
(0 -0.000255233 0)
(0 -0.000230299 0)
(0 -0.000247064 0)
(0 -0.000271708 0)
(0 -0.000263229 0)
(0 -0.000238833 0)
(0 -0.000254691 0)
(0 -0.000230525 0)
(0 -0.000246052 0)
(0 -0.0002699 0)
(0 -0.000260887 0)
(0 -0.000284574 0)
(0 -0.000275062 0)
(0 -0.000251744 0)
(0 -0.000265448 0)
(0 -0.000242452 0)
(0 -0.000255714 0)
(0 -0.000278463 0)
(0 -0.000268248 0)
(0 -0.00024581 0)
(0 -0.00025786 0)
(0 -0.000280037 0)
(0 -0.000269099 0)
(0 -0.000291045 0)
(0 -0.000279525 0)
(0 -0.000258011 0)
(0 -0.000267821 0)
(0 -0.000289102 0)
(0 -0.000276748 0)
(0 -0.000297681 0)
(0 -0.000284746 0)
(0 -0.000264256 0)
(0 -0.000271752 0)
(0 -0.000292234 0)
(0 -0.000278416 0)
(0 -0.000258485 0)
(0 -0.000264422 0)
(0 -0.000284128 0)
(0 -0.000269446 0)
(0 -0.000288961 0)
(0 -0.000273606 0)
(0 -0.000254683 0)
(0 -0.000293023 0)
(0 -0.000276928 0)
(0 -0.000296191 0)
(0 -0.000279358 0)
(0 -0.000298347 0)
(0 -0.000280775 0)
(0 -0.000299365 0)
(0 -0.00028106 0)
(0 -0.000299319 0)
(0 -0.000262944 0)
(0 -0.000280241 0)
(0 -0.00029822 0)
(0 -0.000278315 0)
(0 -0.000296011 0)
(0 -0.000275265 0)
(0 -0.000292722 0)
(0 -0.000313852 0)
(0 -0.000310327 0)
(0 -0.000288354 0)
(0 -0.000305698 0)
(0 -0.000328061 0)
(0 -0.000323249 0)
(0 -0.000299972 0)
(0 -0.000317422 0)
(0 -0.000315611 0)
(0 -0.000346233 0)
(0 -0.000293213 0)
(0 -0.000310504 0)
(0 -0.000285394 0)
(0 -0.000302465 0)
(0 -0.000328087 0)
(0 -0.00031981 0)
(0 -0.000345891 0)
(0 -0.000337442 0)
(0 -0.000310427 0)
(0 -0.000327868 0)
(0 -0.000355471 0)
(0 -0.000345532 0)
(0 -0.000317267 0)
(0 -0.000334757 0)
(0 -0.00036416 0)
(0 -0.000353346 0)
(0 -0.000258123 0)
(0 -0.000268633 0)
(0 -0.000323055 0)
(0 -0.000340981 0)
(0 -0.000372379 0)
(0 -0.000359117 0)
(0 -0.000327662 0)
(0 -0.000345807 0)
(0 -0.000259939 0)
(0 -0.000243777 0)
(0 -0.000378409 0)
(0 -0.000365446 0)
(0 -0.000331754 0)
(0 -0.000350693 0)
(0 -0.000385845 0)
(0 -0.000370327 0)
(0 -0.000405874 0)
(0 -0.000390636 0)
(0 -0.000354346 0)
(0 -0.000374076 0)
(0 -0.000410695 0)
(0 -0.000393764 0)
(0 -0.00035629 0)
(0 -0.000375732 0)
(0 -0.000413242 0)
(0 -0.00039528 0)
(0 -0.000432927 0)
(0 -0.000415031 0)
(0 -0.000375843 0)
(0 -0.000395384 0)
(0 -0.000435029 0)
(0 -0.000415109 0)
(0 -0.000455253 0)
(0 -0.000435003 0)
(0 -0.000394119 0)
(0 -0.000413784 0)
(0 -0.000454937 0)
(0 -0.000433633 0)
(0 -0.000391901 0)
(0 -0.000411999 0)
(0 -0.00045386 0)
(0 -0.000432518 0)
(0 -0.00023434 0)
(0 -0.000218816 0)
(0 -0.000428247 0)
(0 -0.000460344 0)
(0 -0.00050558 0)
(0 -0.00048939 0)
(0 -0.000443839 0)
(0 -0.000472065 0)
(0 -0.000518296 0)
(0 -0.000500135 0)
(0 -0.000453857 0)
(0 -0.000481187 0)
(0 -0.000526739 0)
(0 -0.000507108 0)
(0 -0.000461811 0)
(0 -0.000551511 0)
(0 -0.000531409 0)
(0 -0.00047449 0)
(0 -0.000390069 0)
(0 -0.000598633 0)
(0 -0.000112095 0)
(0 -0.000119118 0)
(0 -0.000112644 0)
(0 -0.000119573 0)
(0 -0.000112038 0)
(0 -0.000318839 0)