/*--------------------------------*- C++ -*----------------------------------*\
| =========                 |                                                 |
| \\      /  F ield         | OpenFOAM: The Open Source CFD Toolbox           |
|  \\    /   O peration     | Version:  v2012                                 |
|   \\  /    A nd           | Website:  www.openfoam.com                      |
|    \\/     M anipulation  |                                                 |
\*---------------------------------------------------------------------------*/
FoamFile
{
    version     2.0;
    format      ascii;
    class       surfaceVectorField;
    location    "350";
    object      Uf_0;
}
// * * * * * * * * * * * * * * * * * * * * * * * * * * * * * * * * * * * * * //

dimensions      [0 1 -1 0 0 0 0];


internalField   nonuniform List<vector> 
27882
(
(1.01069 -0.00717314 5.04878e-22)
(1.01169 -0.00795306 -3.39039e-22)
(1.01151 -0.00634383 -6.40183e-22)
(1.0006 -0.0658877 -8.35602e-23)
(1.00691 -0.0732144 2.94148e-21)
(1.01072 -0.0633032 6.83703e-25)
(1.00293 2.39698e-05 -2.84403e-22)
(1.00349 1.99906e-06 -1.58981e-22)
(1.00399 -2.53818e-05 5.12742e-22)
(1.00935 -0.00801058 3.66616e-22)
(1.00981 -0.00634232 -9.98976e-22)
(1.00958 0.00561822 8.29614e-23)
(1.01105 0.00642036 9.71462e-24)
(1.00933 0.00711471 8.08018e-23)
(1.00688 0.000122524 4.80431e-23)
(1.00755 0.000222768 1.30166e-22)
(1.0071 0.000166099 8.69332e-23)
(1.01533 -0.00527182 -5.99555e-24)
(1.01543 -0.00546733 1.67655e-22)
(1.0156 -0.00539721 5.87582e-23)
(1.02387 -0.0180193 -2.92539e-22)
(1.02418 -0.0185487 -1.00904e-21)
(1.02358 -0.018549 -1.73553e-22)
(1.00822 0.00474047 0)
(1.00966 0.00432477 0)
(1.00724 0.00389884 8.84482e-23)
(1.00632 0.00280238 -7.95999e-23)
(1.00765 0.00265138 -1.45282e-21)
(0.983242 -0.048811 2.03137e-22)
(0.991348 -0.0497901 4.50451e-22)
(0.988986 -0.0411207 -2.07632e-21)
(0.81312 -0.0394207 6.49462e-22)
(0.815381 -0.0782692 3.35573e-21)
(0.814325 -0.0782367 3.18821e-22)
(0.952589 0.0534268 8.06872e-22)
(0.965238 0.0538555 2.58372e-22)
(0.955373 0.0632017 1.29079e-21)
(1.0341 -0.0172675 2.69262e-21)
(1.03503 -0.0175012 1.10952e-21)
(1.03455 -0.0165575 6.36767e-22)
(1.01478 -0.0049112 6.47321e-24)
(1.01507 -0.00511459 -8.07207e-25)
(1.01483 -0.00513286 -2.2705e-23)
(1.01229 -0.00220536 -1.06682e-22)
(1.01214 -0.00210252 6.28845e-23)
(1.01216 -0.00224513 2.03944e-22)
(0.812471 0.00216295 8.21836e-22)
(0.815827 0.00715406 2.10299e-21)
(1.01116 0.001393 -1.17433e-22)
(1.01102 0.00133938 4.9827e-23)
(1.01452 -0.00474971 -8.49322e-23)
(1.01473 -0.00472967 0)
(1.01843 -0.0163954 -1.07103e-21)
(1.0187 -0.0166472 -1.2721e-21)
(1.0188 -0.0164199 -9.00008e-22)
(1.04127 -0.138216 -2.66056e-21)
(1.022 -0.152863 -9.45657e-21)
(1.02895 -0.133469 -1.68891e-21)
(1.21584 -0.139122 -9.86601e-21)
(1.21866 -0.132387 -7.22636e-21)
(1.21828 -0.13996 -2.30078e-22)
(1.00588 8.69562e-05 -2.15257e-24)
(1.00667 0.000130639 -9.04679e-24)
(1.00625 0.000142647 -1.37869e-22)
(1.0066 0.000182097 -2.29515e-22)
(1.007 0.000233778 -2.28307e-22)
(1.20849 -0.140897 1.64839e-20)
(1.19933 -0.130946 -7.39981e-21)
(1.08763 -0.274633 0)
(1.09406 -0.264776 0)
(1.10203 -0.279568 0)
(0.855225 0.324464 4.88158e-21)
(0.872529 0.330729 7.99349e-22)
(0.865914 0.313831 -7.3849e-21)
(0.92339 -0.0602422 -7.00612e-21)
(0.929626 -0.0649124 -1.25724e-21)
(0.920214 -0.0671798 8.12849e-21)
(1.04574 -0.117653 5.3863e-21)
(1.04307 -0.12231 -4.47039e-22)
(1.04093 -0.116911 1.10923e-21)
(1.00606 -0.103647 1.49199e-21)
(1.01408 -0.108015 7.66701e-21)
(1.01774 -0.0948441 3.42331e-21)
(0.835706 0.298045 -1.91708e-21)
(0.832835 0.307772 5.19453e-22)
(0.833653 0.298686 1.64861e-21)
(0.840846 0.315332 2.35612e-20)
(0.844666 0.327565 -4.64018e-21)
(1.02358 -0.0175995 2.01315e-22)
(1.02407 -0.0176084 5.61911e-22)
(1.1128 -0.174496 3.49662e-21)
(1.07956 -0.157452 0)
(1.05154 -0.158113 0)
(1.0126 0.0072449 -9.61455e-22)
(1.01406 0.00817011 -5.70824e-22)
(1.01238 0.00893006 7.92204e-22)
(0.997453 -0.0961638 2.68779e-21)
(0.991413 -0.110089 1.3601e-22)
(0.951188 0.04463 -1.17235e-21)
(0.93969 0.0540478 0)
(1.01247 0.00580001 -8.91829e-23)
(0.89187 -0.299313 -4.29465e-21)
(0.88645 -0.293942 4.94712e-21)
(0.895753 -0.29003 -2.29272e-22)
(1.01355 0.00223953 -3.782e-23)
(1.01347 0.00220504 -9.01328e-23)
(1.01335 0.00218964 5.20297e-23)
(0.884194 -0.130965 7.46215e-21)
(0.8868 -0.148863 -5.62055e-22)
(0.889765 -0.156779 -4.63271e-22)
(1.00343 0.0011813 5.32769e-23)
(1.00196 0.00208279 3.56625e-22)
(1.00376 0.00268356 -7.70178e-22)
(0.884623 0.0125835 -6.36708e-22)
(0.882425 -0.0107574 -5.46212e-22)
(0.888951 -0.0130671 -1.62687e-22)
(1.01192 -0.000396933 2.12236e-23)
(1.01182 -0.00054109 3.55968e-22)
(1.01182 -0.000405266 -4.26804e-22)
(1.00986 -0.00072584 0)
(1.00982 -0.00071333 9.43207e-23)
(1.0102 -0.000805836 0)
(0.837774 0.305543 -1.06946e-20)
(0.843454 0.311151 -5.4147e-21)
(0.838244 0.314573 -5.31926e-21)
(1.0031 4.63321e-05 1.69353e-21)
(1.00444 0.000667866 1.62523e-21)
(1.03092 -0.118441 1.91763e-21)
(1.02851 -0.113778 2.03892e-21)
(1.02575 -0.119157 5.03162e-22)
(0.0543433 0.243826 0)
(0.0262147 0.255697 -1.72659e-20)
(0.0521555 0.243238 -1.17293e-20)
(1.00712 -0.00386176 5.60602e-22)
(1.00764 -0.00511047 -9.41502e-22)
(1.0081 -0.00381783 5.246e-22)
(0.974275 -0.0464584 1.49884e-21)
(0.976615 -0.0569383 -3.02112e-21)
(0.848854 -0.372884 1.00762e-20)
(0.859261 -0.364595 0)
(0.89809 -0.390976 0)
(1.00587 -0.00372706 0)
(1.00699 -0.00261634 -4.15165e-22)
(1.00854 -0.0154802 1.52755e-21)
(1.00833 -0.0145784 -3.00419e-22)
(1.00769 -0.0153773 -1.05325e-23)
(1.14103 -0.131633 -3.84247e-21)
(1.14569 -0.129212 1.18829e-20)
(1.14571 -0.134827 8.46914e-21)
(0.977161 0.052903 -4.61813e-22)
(0.972554 0.0453672 -4.12132e-22)
(1.01191 0.000627181 -3.25383e-22)
(1.01182 0.000700166 -3.77588e-22)
(1.01214 0.000759159 -2.72818e-22)
(1.01824 -0.0160587 1.28348e-21)
(1.01803 -0.0162815 5.63259e-22)
(1.02627 -0.109353 0)
(1.02149 -0.109378 0)
(1.02431 -0.104784 1.81942e-21)
(1.01204 0.000546894 1.56899e-22)
(1.0117 0.000523637 3.11887e-22)
(1.00901 -0.00055216 -2.49265e-23)
(1.00956 -0.000709659 -2.86429e-22)
(1.00909 -0.000519021 -1.20761e-22)
(1.01209 -0.000239751 -9.79779e-23)
(1.01197 -0.000404599 3.28476e-22)
(0.870927 -0.345009 1.20682e-20)
(0.850913 -0.344771 8.33855e-21)
(0.592829 -0.205268 2.65606e-21)
(0.623674 -0.187049 1.41274e-21)
(0.597664 -0.181275 9.01713e-22)
(1.00803 -0.000426275 1.85038e-23)
(1.00893 -0.000574557 -2.03652e-22)
(0.793557 -0.049784 4.0634e-22)
(0.801776 -0.0502819 -1.8317e-20)
(0.745177 -0.0274379 1.45961e-20)
(1.0065 -0.000190729 -3.85071e-22)
(1.0058 -0.000123352 -1.25385e-22)
(1.00586 -0.000137381 0)
(1.01033 0.00113964 -4.97427e-25)
(1.01021 0.00110484 1.30713e-22)
(1.0104 0.00114486 3.85722e-22)
(0.928443 -0.0532651 -2.15178e-21)
(0.918947 -0.0539594 -1.06226e-21)
(1.01114 0.00138254 5.89611e-24)
(1.01129 0.00148292 -2.9637e-24)
(0.789994 -0.3487 -9.88603e-21)
(0.832333 -0.378359 1.85625e-20)
(1.0945 -0.314362 -1.19446e-20)
(1.08638 -0.300864 -3.77337e-21)
(1.10446 -0.303897 1.75787e-21)
(1.01279 -0.00515733 6.16409e-22)
(1.013 -0.0053313 -1.77631e-23)
(1.01279 -0.00532784 3.1818e-22)
(1.02069 -0.0155733 1.53033e-21)
(1.02027 -0.0157718 1.01854e-21)
(1.02042 -0.0159143 8.52472e-22)
(1.04873 0.0253257 -1.96729e-22)
(1.04274 0.0274746 0)
(1.04363 0.0196441 0)
(0.836214 0.295995 4.5976e-21)
(0.836321 0.291494 -3.92789e-22)
(1.00652 -0.211213 -1.85688e-20)
(1.02926 -0.224442 9.98776e-21)
(1.01661 -0.157055 8.73404e-21)
(0.822901 0.0664859 -1.20714e-20)
(0.823976 0.0815477 2.22793e-21)
(0.831738 0.105811 -1.86569e-21)
(1.00669 0.00513072 -2.0604e-21)
(0.887535 0.043571 -5.61405e-21)
(0.892732 0.0340033 -7.75197e-21)
(1.0952 -0.113052 0)
(1.09834 -0.110759 -6.34607e-21)
(1.0988 -0.11557 1.53778e-20)
(0.895874 -0.300117 -5.20345e-22)
(0.890512 -0.309047 -1.68976e-20)
(0.81452 0.032841 -8.16492e-22)
(0.825747 0.0560673 -2.6685e-21)
(1.02548 0.000798996 1.56805e-21)
(1.02739 0.00318259 1.44424e-21)
(1.02432 0.00381619 0)
(1.01117 -0.00129215 5.76168e-23)
(1.01133 -0.000954994 1.3133e-22)
(1.01106 -0.000873612 1.98351e-22)
(1.13227 -0.116261 0)
(1.13399 -0.11992 0)
(1.1289 -0.119603 0)
(1.055 -0.0229577 5.91153e-21)
(1.05432 -0.0212532 -6.18708e-21)
(1.02086 -0.0150461 -1.70407e-22)
(1.02121 -0.0154702 2.3074e-21)
(0.8804 -0.358292 3.51537e-21)
(0.885658 -0.336069 5.38207e-21)
(1.13441 -0.111955 8.94377e-21)
(1.12955 -0.112348 7.26838e-21)
(0.512618 -0.213768 -4.0221e-21)
(0.495879 -0.215981 -1.04473e-21)
(0.440874 -0.17449 -1.20386e-20)
(1.00879 -0.000509887 1.47732e-22)
(1.00915 -0.00049498 3.8167e-22)
(1.01005 -0.000555466 1.14017e-22)
(1.0905 -0.088891 0)
(1.09315 -0.0873257 -7.59365e-21)
(1.09304 -0.0914795 4.89534e-21)
(0.0836317 0.235323 0)
(0.053085 0.244206 1.8027e-20)
(1.0128 -0.00501139 2.27754e-22)
(1.01261 -0.00498826 3.38257e-22)
(1.00778 -0.000613529 -4.13591e-22)
(1.00785 -0.000646982 6.01402e-22)
(1.0078 -0.000620391 -1.95232e-22)
(1.01233 0.00187163 1.4004e-23)
(1.01217 0.00181401 -1.09539e-22)
(1.01234 0.00190642 -7.46503e-23)
(1.04575 -0.0858607 -5.17115e-22)
(1.04915 -0.0854913 1.03431e-20)
(1.04732 -0.0892131 9.10357e-21)
(0.842004 0.138516 4.25417e-21)
(0.830586 0.0960917 0)
(0.843071 0.111336 -8.74367e-21)
(1.01034 -0.00379817 -2.66366e-22)
(1.01042 -0.00387878 -1.33302e-21)
(1.0103 -0.00370377 -4.91483e-22)
(0.836785 0.298634 -1.87478e-21)
(0.838154 0.297259 5.54003e-22)
(1.02332 -0.0203823 5.67907e-22)
(1.0239 -0.0196495 1.70792e-21)
(1.02282 -0.0194867 3.25871e-22)
(1.01026 0.00113465 -1.81001e-22)
(1.01046 0.00117278 -2.17543e-23)
(1.00776 -0.000600828 2.5462e-22)
(1.00771 -0.000575941 1.0724e-22)
(0.774294 -0.0436193 -1.68658e-20)
(0.841348 -0.0684403 3.33007e-21)
(1.05129 -0.137082 -1.21217e-20)
(1.05403 -0.120514 8.26305e-22)
(1.03565 -0.117514 3.31776e-22)
(1.03343 -0.123088 6.30583e-21)
(0.514758 -0.201981 -1.97737e-20)
(0.571518 -0.24487 6.92091e-21)
(1.06492 -0.316158 -5.53279e-21)
(1.07196 -0.324545 -7.9267e-21)
(1.09123 -0.298398 -7.73937e-21)
(0.958408 -0.134229 0)
(0.967198 -0.149044 3.14521e-22)
(0.976309 -0.133066 0)
(1.01271 -0.00223726 0)
(1.01255 -0.00212753 0)
(1.0127 -0.00208069 -8.06785e-23)
(0.571735 -0.217865 -7.63216e-21)
(0.593154 -0.224696 1.19373e-21)
(1.00193 -0.00270967 4.65459e-22)
(1.00297 -0.00388953 -1.45892e-21)
(1.00355 -0.002246 5.21563e-22)
(1.00512 -5.00518e-05 -2.17334e-22)
(1.00514 -4.36909e-05 8.04906e-23)
(1.0042 -3.11073e-05 3.44727e-22)
(1.02368 -0.0214224 -6.82958e-22)
(1.0225 -0.0210493 -1.2947e-21)
(0.841426 -0.108066 -2.47555e-21)
(0.828797 -0.108585 -2.31666e-21)
(0.834604 -0.0965377 8.77053e-21)
(1.04192 -0.0864939 -5.09871e-21)
(1.04349 -0.0826609 -2.45745e-21)
(1.01103 0.000302915 3.06832e-22)
(1.01121 0.000272979 0)
(1.01094 0.000320105 1.77168e-22)
(0.818711 -0.135227 6.17483e-21)
(0.805604 -0.138317 -1.52526e-21)
(0.815252 -0.149461 3.88705e-21)
(1.01125 -0.00256554 1.1586e-22)
(1.01088 -0.00217062 -4.95065e-22)
(1.01078 -0.00278798 -3.29006e-23)
(1.00566 -5.53909e-05 0)
(1.00542 -5.89997e-05 1.76374e-22)
(1.00619 -3.93324e-05 0)
(0.989055 -0.251985 3.90395e-21)
(0.974775 -0.185706 -1.61053e-20)
(1.01104 -0.00167374 8.40666e-23)
(1.01138 -0.00160458 1.40046e-22)
(1.00928 -0.000449391 1.86481e-22)
(1.00942 -0.000438603 9.80621e-23)
(1.00926 -0.000403412 1.70631e-22)
(0.0157054 0.306516 0)
(-0.00450631 0.307635 0)
(0.0126305 0.307296 0)
(1.00897 -0.0162978 0)
(1.00933 -0.0154372 -2.51655e-22)
(1.01163 -0.000803047 -7.27656e-23)
(1.01169 -0.000711221 3.17693e-22)
(1.01159 -0.000756892 -2.64443e-22)
(1.00932 -0.00048457 0)
(1.00916 -0.000447924 -5.67853e-22)
(1.04607 -0.176541 -2.3037e-21)
(1.04858 -0.168773 7.54305e-22)
(1.03972 -0.172132 -1.00223e-20)
(0.0476873 0.276567 -5.58306e-21)
(0.0221164 0.273107 -2.27603e-20)
(1.03108 -0.108909 0)
(1.00597 -0.000285305 -6.00445e-22)
(1.0051 -0.000147362 0)
(1.00655 -0.000366345 0)
(1.01938 -0.0300326 -3.74849e-22)
(1.01853 -0.0289977 4.76487e-22)
(1.01797 -0.0303585 6.86118e-22)
(0.591919 -0.0333264 2.34722e-21)
(0.617157 -0.0332914 7.39982e-21)
(0.6482 -0.0577527 -5.78461e-21)
(1.01376 0.0022934 -2.30613e-23)
(1.01364 0.00230364 -1.0131e-22)
(1.00562 -0.000124872 1.96303e-22)
(1.00583 -0.000102501 -8.5711e-22)
(1.00627 -7.85338e-05 0)
(0.760779 0.0190794 8.62211e-21)
(0.788136 0.0267216 -5.73087e-21)
(0.757675 0.097726 1.53448e-20)
(1.01185 -0.00222623 -7.09106e-22)
(1.01155 -0.00235451 0)
(1.0116 -0.00192241 -4.36167e-22)
(0.938215 -0.135807 -3.7035e-24)
(0.930012 -0.139948 1.82539e-24)
(0.931602 -0.129789 1.70015e-21)
(1.09147 -0.116219 -9.87494e-22)
(1.0909 -0.111313 -5.53769e-21)
(1.00083 -0.00104349 1.66061e-21)
(0.999911 -0.00284225 7.60411e-22)
(0.869115 -0.149803 -2.13133e-22)
(0.877524 -0.173613 -1.48205e-21)
(0.886565 -0.158022 5.4936e-22)
(1.0556 -0.0701676 2.89117e-21)
(1.05811 -0.0693009 -6.08992e-22)
(1.05732 -0.0727132 -1.54585e-21)
(1.04513 -0.268901 1.87651e-20)
(1.035 -0.325524 -3.53935e-21)
(0.0398807 0.3049 -1.20501e-20)
(0.0173724 0.30436 0)
(1.08183 -0.0680142 1.02701e-21)
(1.08377 -0.0663574 0)
(1.08425 -0.0696156 -3.42519e-21)
(0.757398 -0.0402899 9.0954e-21)
(0.713868 -0.0215159 0)
(1.05092 -0.162657 2.04905e-21)
(1.04517 -0.158245 2.36464e-21)
(1.05271 -0.155529 -3.60123e-21)
(0.995737 -0.0584468 8.48152e-23)
(1.00003 -0.0498003 2.32869e-21)
(0.818032 -0.287511 7.17607e-22)
(0.819498 -0.273121 -5.97984e-22)
(0.833175 -0.282993 -3.93685e-22)
(0.107262 0.278755 0)
(0.125644 0.280603 0)
(0.144082 0.278194 0)
(-0.0693093 0.267796 0)
(-0.0622508 0.271882 0)
(-0.0623486 0.276975 3.57057e-21)
(1.02594 -0.00495797 2.95814e-22)
(1.02637 -0.0049808 5.3286e-22)
(1.02619 -0.00534571 -6.48351e-22)
(1.01544 0.0079348 2.35102e-22)
(1.01602 0.00629591 -2.49725e-22)
(1.01738 0.0077545 -4.05105e-22)
(0.886711 -0.106227 9.9944e-21)
(0.882819 -0.102829 1.22211e-20)
(0.930999 0.360515 -1.18863e-20)
(0.938389 0.381044 3.1698e-21)
(1.08757 -0.0906387 0)
(1.08765 -0.086491 7.83274e-21)
(1.0459 -0.1828 2.58609e-21)
(1.05308 -0.17868 6.5756e-21)
(1.03387 8.01297e-05 -2.32243e-21)
(1.03718 0.00228862 3.93549e-21)
(1.03699 -0.00172318 2.80099e-21)
(0.990518 -0.067585 2.36803e-21)
(0.565064 -0.368358 4.29053e-21)
(0.572368 -0.370786 3.21519e-21)
(0.517551 -0.357579 2.62894e-21)
(1.01015 -0.000600272 -4.92463e-23)
(1.01031 -0.000633405 9.68525e-22)
(1.0102 -0.000631576 1.30529e-21)
(0.0788835 0.223382 8.55072e-21)
(0.0498117 0.232403 -7.60273e-21)
(0.067421 0.221913 3.23066e-20)
(0.738289 -0.0361721 -5.50197e-21)
(0.797954 -0.0600269 9.51361e-21)
(0.862419 0.28663 4.03288e-21)
(0.884029 0.272828 3.117e-21)
(0.873305 0.287465 3.68583e-21)
(1.01263 7.96463e-06 -5.8593e-22)
(1.01234 -2.57703e-05 5.54759e-22)
(1.0127 -0.000177604 -2.64023e-22)
(1.0101 -0.000556006 -1.59199e-21)
(1.00999 -0.000560143 -4.7681e-22)
(0.657111 -0.390156 -4.23709e-21)
(0.663895 -0.394392 -5.69585e-21)
(0.703395 -0.40479 -1.33801e-20)
(0.0777985 0.277204 1.99494e-20)
(0.0605762 0.282141 3.14128e-20)
(0.82055 -0.113622 -4.73821e-22)
(0.825312 -0.153744 1.49943e-20)
(0.829512 -0.153776 -7.35699e-21)
(-0.0588016 0.25899 -1.0543e-20)
(-0.0618561 0.250782 -1.57373e-20)
(-0.0660962 0.261431 -1.75938e-21)
(1.0025 4.70163e-05 -1.91523e-22)
(1.00182 7.26375e-05 -3.8953e-22)
(1.0411 -0.126722 -6.04729e-21)
(1.03607 -0.127394 1.11136e-21)
(1.03916 -0.132394 -5.80352e-21)
(0.908168 -0.182815 6.18042e-22)
(0.904952 -0.184791 2.92117e-21)
(1.06537 -0.312265 1.87526e-21)
(1.04423 -0.330873 -5.09375e-21)
(1.00981 -0.00242859 -1.31553e-21)
(1.00988 -0.00253989 -9.88217e-22)
(1.00987 -0.00242635 -3.3806e-24)
(1.01277 -0.00483759 -3.65271e-22)
(1.01297 -0.00501069 -5.0473e-22)
(1.10511 -0.238458 -1.58276e-20)
(1.11456 -0.239813 -6.91624e-21)
(1.10734 -0.249395 -8.13934e-21)
(1.13963 -0.19329 2.49144e-20)
(1.16425 -0.19045 -6.76006e-21)
(1.03666 -0.00774743 1.42839e-21)
(1.03619 -0.00696465 4.26531e-21)
(1.00947 0.000975061 1.3492e-22)
(1.00952 0.00098306 -5.01683e-23)
(1.00937 0.000940271 9.7279e-23)
(1.01158 -0.0173682 3.96211e-22)
(1.01173 -0.016669 -8.54814e-22)
(1.01096 -0.0167228 -1.8618e-21)
(1.13617 -0.129565 -1.4209e-20)
(1.13623 -0.134855 -1.35482e-20)
(1.04136 -0.0107588 2.04869e-21)
(1.04227 -0.0114323 0)
(0.785 -0.309156 9.76396e-22)
(0.786919 -0.294915 -9.79572e-22)
(0.772286 -0.297615 8.14397e-24)
(1.01751 -0.00320047 4.17209e-22)
(1.01759 -0.00306007 2.12184e-22)
(1.01774 -0.00327447 6.59923e-22)
(1.02685 -0.104759 -6.16777e-21)
(1.01588 -0.116082 -1.15917e-21)
(1.00852 -0.0309311 6.23381e-22)
(1.01047 -0.0306526 1.43119e-21)
(1.00981 -0.0330924 1.27899e-21)
(0.118142 0.218023 0)
(0.110602 0.222807 0)
(0.930248 0.212068 -4.48792e-22)
(0.912034 0.233649 1.11591e-21)
(0.9483 0.206196 -2.03549e-21)
(-0.0754743 0.257476 -1.1236e-20)
(-0.0721777 0.263823 0)
(1.01741 -0.00337553 -2.95175e-22)
(1.01726 -0.00314989 -4.09626e-22)
(0.965331 -0.052239 -8.37587e-22)
(0.964542 -0.0578156 -1.72927e-21)
(0.960139 -0.0520813 0)
(1.13392 -0.107602 -6.43472e-21)
(1.11266 -0.102887 1.4798e-21)
(1.11146 -0.0486264 -5.65592e-21)
(1.00941 0.000903302 -1.05496e-22)
(1.00938 0.000868808 7.82793e-23)
(1.00951 0.000918818 -2.42214e-23)
(1.04009 -0.0115838 9.08255e-22)
(1.04043 -0.010806 3.83391e-21)
(1.03945 -0.0108006 -2.76891e-21)
(0.922144 -0.143278 4.3989e-24)
(0.913335 -0.146686 0)
(0.914845 -0.136614 0)
(1.02544 -0.00501622 -7.73039e-22)
(1.02561 -0.00464461 3.5989e-22)
(0.163734 0.198308 -9.01043e-21)
(0.132016 0.207325 0)
(1.00553 0.00012293 6.20947e-22)
(1.00616 0.000156655 -5.69039e-22)
(1.00547 0.000100541 -3.25731e-22)
(1.00941 0.00110733 -4.11774e-22)
(1.00976 0.000969463 -4.03192e-22)
(1.0097 0.00152212 4.80887e-23)
(1.04184 -0.189396 0)
(1.04815 -0.191832 0)
(1.12539 0.0604886 7.39526e-21)
(1.12353 0.0479388 1.82247e-21)
(1.13869 0.039161 2.26843e-21)
(1.01211 -0.00182259 5.6904e-23)
(1.01198 -0.00172529 0)
(1.0121 -0.00168628 0)
(1.01287 -0.00233412 -8.56913e-23)
(1.01273 -0.00236938 -4.28884e-23)
(0.114711 0.21335 -1.4204e-20)
(0.0956975 0.222165 5.77363e-21)
(1.01118 1.26393e-05 -5.41464e-22)
(1.01125 7.28517e-05 4.0791e-22)
(1.0114 8.8761e-05 1.71473e-22)
(1.0153 0.00975922 4.69049e-22)
(-0.0176755 0.26455 1.09644e-21)
(-0.0353736 0.264249 2.56654e-20)
(1.00411 6.46203e-05 -1.66991e-22)
(1.00372 4.35473e-05 2.28769e-23)
(1.00475 0.000107947 2.15035e-23)
(1.08551 -0.0935554 0)
(1.08303 -0.0964192 0)
(1.08749 -0.0960806 0)
(1.00911 0.000528117 4.30927e-23)
(1.00899 0.00125857 -8.94416e-23)
(1.00992 -0.00283415 0)
(1.00978 -0.00242064 0)
(1.01008 -0.00259007 3.2486e-24)
(1.01738 -0.0154016 0)
(1.01773 -0.0156145 0)
(1.01746 -0.0157501 0)
(1.01249 0.00193443 5.88859e-23)
(1.01233 0.0018417 1.00988e-22)
(1.01266 -0.000849117 5.58554e-26)
(1.01227 -0.000692761 9.16163e-23)
(1.01247 -0.000705073 -1.05015e-23)
(1.08359 -0.0912304 7.18358e-21)
(1.0081 0.000259691 6.99184e-24)
(1.00794 0.000235962 3.42448e-23)
(0.909282 -0.171564 -1.58941e-21)
(0.903569 -0.153844 0)
(0.917612 -0.161997 5.21106e-22)
(1.15636 -0.110827 -6.8616e-21)
(1.15618 -0.156025 0)
(1.01096 -0.000593495 5.01508e-22)
(1.01085 -0.000489098 2.04755e-22)
(1.01077 -0.000414471 -1.70735e-24)
(1.05277 -0.0713177 6.70818e-22)
(1.05363 -0.067794 2.63698e-21)
(1.03853 -0.197412 0)
(1.03438 -0.187989 0)
(1.11305 0.0730187 -2.12552e-21)
(1.10718 0.0769043 -2.08213e-21)
(0.961837 -0.0476477 -8.56465e-22)
(0.965041 -0.0731096 -7.0737e-22)
(0.9753 -0.0461658 -8.19984e-21)
(1.05544 0.0219758 3.68625e-21)
(1.05562 0.030825 2.27133e-21)
(1.13904 -0.0985449 -7.3952e-21)
(1.13937 -0.102028 4.80617e-21)
(1.1427 -0.0995483 1.07524e-20)
(0.617346 -0.382046 1.73196e-21)
(0.560444 -0.362556 -2.02847e-21)
(1.0111 -2.00157e-05 2.54137e-22)
(1.01098 -3.94253e-05 -9.63843e-22)
(1.0803 -0.286469 0)
(1.07644 -0.271785 0)
(1.07961 -0.0701017 9.94676e-22)
(1.07916 -0.0667872 6.43292e-23)
(1.052 -0.288389 -6.5049e-21)
(1.08413 -0.294796 1.76454e-21)
(1.00468 -7.30059e-05 -6.76098e-22)
(1.00553 -9.67591e-05 1.67308e-22)
(1.00962 -0.00174168 -9.73818e-23)
(1.00952 -0.001627 1.7003e-22)
(1.00953 -0.00173456 -8.97427e-23)
(1.01103 -0.000726093 1.48177e-22)
(1.01116 -0.000776041 3.83917e-22)
(1.0021 0.0369975 0)
(0.995499 0.0397499 -3.21404e-21)
(1.00256 0.04458 -1.82747e-21)
(0.00686433 0.264677 -3.65295e-21)
(-0.010041 0.274026 2.72877e-20)
(0.00449921 0.26691 1.34316e-20)
(0.904488 -0.150464 0)
(0.894949 -0.154561 0)
(0.896583 -0.143842 0)
(1.02268 -0.0136354 2.50497e-22)
(1.02226 -0.0137393 7.02745e-23)
(1.02234 -0.013261 -1.38148e-22)
(1.01302 -0.00244006 -3.19142e-23)
(1.01304 -0.0026025 7.75417e-23)
(1.01321 -0.00256233 9.64745e-23)
(1.002 0.0306689 0)
(1.00821 0.034006 0)
(0.945247 -0.131583 -3.59339e-22)
(0.953124 -0.126781 -2.80678e-22)
(0.946749 -0.1216 2.04004e-22)
(1.00305 2.52796e-05 3.05414e-23)
(1.00403 6.10661e-05 2.83687e-23)
(1.00341 4.64082e-05 4.26305e-22)
(0.802691 -0.291936 -2.23703e-22)
(0.817703 -0.303447 4.09965e-22)
(0.954726 -0.21763 6.18751e-22)
(0.958911 -0.228002 7.18293e-22)
(0.966308 -0.218124 -3.11168e-21)
(1.00981 -0.00173627 -1.26329e-22)
(1.0097 -0.00174165 7.27596e-23)
(1.00971 -0.00162613 -1.16448e-23)
(1.00767 -0.000298943 -2.10727e-22)
(1.00776 -0.000301349 2.0076e-22)
(1.0077 -0.000274312 -3.4369e-23)
(1.01503 -0.000720269 -8.83775e-23)
(1.01447 -0.000806614 -5.76872e-22)
(1.01442 -0.000426225 -4.20776e-22)
(1.01029 -0.00374987 1.10903e-21)
(1.01039 -0.00391395 4.51681e-22)
(-0.0481725 0.255271 7.27784e-21)
(-0.0547349 0.26541 -1.69151e-21)
(1.01167 -0.000938766 4.37931e-22)
(1.01171 -0.00104236 2.13766e-22)
(1.01169 -0.00103132 2.93873e-22)
(1.02644 -0.0541802 -1.69594e-23)
(1.03274 -0.0507853 2.97613e-22)
(1.02309 -0.0641146 -2.3737e-22)
(1.0111 -0.000866434 2.20626e-22)
(1.01089 -0.000634463 -3.85459e-22)
(1.00534 9.69935e-05 7.25243e-23)
(1.0062 0.000116428 -5.9048e-23)
(1.00514 7.37087e-05 -1.59298e-24)
(0.883209 -0.182341 0)
(0.892992 -0.177506 -5.32404e-22)
(0.892838 -0.188964 -7.06604e-23)
(1.01254 0.000144021 -1.71471e-24)
(1.01244 0.000280637 5.9352e-22)
(1.01214 0.00022427 2.64175e-22)
(1.08557 -0.326858 -2.14548e-20)
(1.10359 -0.329547 1.49749e-20)
(1.01343 -0.00100512 0)
(1.01327 -0.000863908 0)
(1.01328 -0.000986463 0)
(0.919319 -0.253202 0)
(0.905336 -0.201253 2.09571e-20)
(1.00425 -0.00470983 0)
(1.00292 -0.00557772 -4.08313e-22)
(1.00958 -0.000482471 -2.30064e-22)
(1.00952 -0.00042764 2.64742e-22)
(1.00989 -0.00185149 0)
(1.0099 -0.00174727 4.00431e-22)
(0.970575 -0.0525335 -8.26175e-22)
(0.966578 -0.0476191 -6.44219e-22)
(0.704318 0.22252 1.18588e-21)
(0.679754 0.187882 1.35982e-21)
(0.682319 0.207159 3.7807e-21)
(0.735573 0.261696 -1.74188e-21)
(0.730674 0.240664 -4.00017e-22)
(1.00972 -0.00051635 -3.7628e-22)
(1.00963 -0.000523319 -6.2916e-22)
(0.9445 -0.141206 -5.34309e-26)
(1.02675 -0.00520378 1.43257e-21)
(1.02664 -0.00476756 1.16817e-21)
(1.01049 -0.00512247 0)
(1.01043 -0.00493373 0)
(1.01042 -0.00514049 9.05659e-22)
(0.787471 -0.116264 1.97386e-21)
(0.796642 -0.12843 -4.02458e-21)
(0.799662 -0.112987 3.21535e-21)
(0.998547 -0.296616 1.05506e-20)
(1.04543 -0.314552 3.08984e-20)
(1.02055 -0.319268 3.84544e-20)
(1.01054 -0.00530754 0)
(1.01054 -0.00509484 0)
(1.01082 -0.000127586 0)
(1.01091 -0.00010006 0)
(1.01101 -9.27724e-05 3.38e-22)
(1.01602 0.00290116 1.96632e-23)
(1.0166 0.00295924 -2.9534e-22)
(1.01632 0.00331904 -1.25614e-22)
(1.01703 -0.0151478 5.77519e-22)
(1.0173 -0.015084 0)
(1.0273 -0.0320241 -2.3942e-22)
(1.02821 -0.031314 8.75174e-22)
(1.02852 -0.0326076 6.18133e-22)
(1.00828 0.000276526 -5.21557e-23)
(1.00856 0.000303445 -6.714e-23)
(1.01007 -0.00329827 0)
(1.00967 -0.00315096 8.25005e-22)
(1.03341 -0.017021 1.48976e-22)
(1.03374 -0.0179127 9.62558e-22)
(1.00758 -0.000296561 1.74371e-23)
(1.00764 -0.000325198 5.25193e-22)
(1.00471 -0.000148443 -2.64317e-22)
(1.00621 -0.00019602 -3.8398e-22)
(1.00521 -0.000151531 -2.10604e-22)
(1.0137 -0.00238628 -1.47954e-22)
(1.01353 -0.00239647 2.97584e-24)
(1.01355 -0.0022324 -6.85699e-24)
(0.725577 -0.0351898 -1.30961e-20)
(0.761552 -0.0561202 0)
(0.710133 -0.0330834 6.83576e-21)
(1.01523 -0.00503803 -7.87878e-24)
(1.01073 -0.000145898 0)
(1.01064 -0.000160218 0)
(1.0102 0.000881263 0)
(1.01013 0.000856727 -1.5485e-23)
(1.01011 0.000826279 0)
(0.958167 -0.132329 9.72239e-22)
(0.959736 -0.123073 -5.69907e-22)
(1.00779 -0.000605622 9.43338e-22)
(1.00782 -0.000601315 3.473e-22)
(1.00786 -0.000628237 -7.60784e-22)
(1.00771 -0.000581161 -7.33307e-23)
(1.00276 4.51396e-05 0)
(1.00202 -3.32746e-05 3.64181e-22)
(1.03524 -0.00955353 2.07119e-21)
(1.03597 -0.00958566 -2.86924e-21)
(1.03568 -0.0102267 2.01211e-21)
(1.01158 0.000641534 3.44078e-24)
(1.01179 0.000787674 0)
(1.00509 8.94771e-05 2.63702e-22)
(1.00471 8.50926e-05 -2.52328e-22)
(1.00545 9.00511e-05 6.92419e-22)
(1.00387 3.6906e-05 5.00457e-22)
(1.00335 4.6024e-05 -1.00445e-22)
(1.00432 4.32389e-05 -3.96398e-22)
(1.01647 -0.00147532 -2.23063e-22)
(1.01721 -0.00194579 -1.91024e-22)
(1.01726 -0.00110858 2.92227e-22)
(0.957384 -0.0178155 -1.4361e-21)
(0.950213 -0.051839 0)
(1.00859 -0.00041256 0)
(1.00679 -0.000321078 0)
(1.00597 0.000136603 2.26901e-22)
(1.00542 9.29645e-05 2.52294e-22)
(0.0658742 0.303206 -1.07773e-20)
(0.0482078 0.304914 0)
(0.0403019 0.304613 0)
(1.04361 -0.0234572 -2.1011e-21)
(1.04428 -0.022438 -1.72086e-21)
(1.04296 -0.0225501 -2.76993e-21)
(1.00543 1.43443e-05 -2.88366e-22)
(1.00576 -1.12002e-05 9.86456e-23)
(1.00495 2.15773e-05 5.82936e-22)
(1.00517 1.26376e-05 -1.79274e-22)
(1.00589 3.07081e-05 3.75924e-22)
(0.899901 -0.289352 5.93564e-22)
(0.896305 -0.290318 2.21801e-22)
(0.897497 -0.286769 6.23845e-22)
(0.95915 0.00319129 2.01468e-23)
(0.964332 -0.00330856 -1.02523e-21)
(0.968589 0.00362598 5.00614e-22)
(1.00945 0.000973581 9.53216e-24)
(1.00955 0.00101374 0)
(1.01783 -0.019133 -1.27863e-22)
(1.01779 -0.0165336 0)
(1.01523 -0.0172518 0)
(1.06714 -0.122562 1.29485e-20)
(1.05189 -0.143463 3.63078e-21)
(1.01215 -4.88754e-05 3.0647e-23)
(1.01228 -0.00012342 -4.72905e-23)
(0.986569 0.0517236 -9.95406e-22)
(0.980924 0.0600211 -4.84356e-22)
(1.01385 -0.002375 -4.66756e-24)
(1.01383 -0.00253804 2.70957e-23)
(0.759894 0.287058 2.55344e-21)
(0.779194 0.291535 2.35057e-22)
(0.778528 0.307479 1.02963e-21)
(0.929214 -0.149596 4.15589e-24)
(0.9764 -0.100614 -6.64106e-23)
(0.978784 -0.10611 9.75897e-22)
(0.971902 -0.10316 -2.36228e-22)
(1.04831 -0.114118 -1.38679e-21)
(1.04983 -0.11912 2.24302e-21)
(1.03782 -0.138989 -5.17583e-21)
(1.10125 -0.15567 0)
(1.01018 0.00113024 -1.79485e-22)
(1.01029 0.00116385 -2.05029e-23)
(1.01011 0.00112687 -1.45571e-22)
(0.89357 -0.297262 -2.37663e-21)
(0.889178 -0.305732 1.82679e-21)
(0.898301 -0.304899 -7.64639e-21)
(1.03537 -0.205118 -5.44749e-22)
(1.0268 -0.204785 5.18801e-22)
(1.03145 -0.21434 -3.49483e-21)
(1.00664 -0.00018623 0)
(1.00601 -0.000171427 9.40752e-23)
(1.00591 -0.000154487 0)
(0.981545 -0.0977826 1.31614e-22)
(0.974523 -0.0951549 2.45059e-22)
(1.03079 0.0019752 -2.46348e-21)
(1.03105 -0.00162844 -1.62894e-21)
(0.821473 -0.259152 -2.35261e-22)
(0.807208 -0.263012 -7.37637e-22)
(1.00926 -0.00191559 3.67973e-22)
(1.00936 -0.00203198 3.81592e-22)
(1.00928 -0.00199213 -2.70575e-23)
(1.01005 0.00110133 -1.27351e-22)
(-0.000640555 0.269971 -1.80246e-20)
(0.906732 -0.172933 -1.17065e-21)
(0.909668 -0.154586 -3.36558e-23)
(1.00911 -0.00039996 0)
(1.00925 -0.000376703 -2.20691e-22)
(1.00922 -0.000412597 2.97669e-22)
(-0.0198893 0.306629 6.16664e-21)
(-0.030603 0.304994 -2.76386e-20)
(-0.0206807 0.306401 6.53263e-21)
(1.00175 0.0251552 0)
(1.00686 0.0227664 0)
(1.00181 0.0200935 1.27321e-21)
(0.999448 0.00706506 -8.58016e-22)
(0.9995 0.00484297 -4.33662e-22)
(0.997148 0.00600418 -1.19956e-21)
(0.535767 -0.0285307 2.07645e-20)
(0.567579 -0.0323261 -1.90527e-21)
(0.592744 -0.056865 -1.20941e-20)
(1.00917 -0.00180243 -3.93091e-22)
(1.00924 -0.00183388 1.84273e-22)
(1.01299 4.31833e-05 6.89985e-23)
(1.01355 -0.000997177 6.07368e-24)
(1.01351 -0.00112191 0)
(1.00564 -2.61627e-05 -2.23527e-22)
(1.00497 -4.82253e-05 -8.35271e-22)
(1.0133 -0.0113179 -1.14269e-22)
(1.01297 -0.0112663 -1.60239e-23)
(1.01326 -0.0116497 -7.19989e-23)
(1.00901 0.00353299 4.59615e-22)
(1.00976 0.00357827 0)
(1.00916 0.00290621 2.50682e-22)
(1.02437 -0.0191123 -5.41076e-22)
(1.02471 -0.018588 6.08142e-22)
(1.01128 0.000110036 6.14388e-22)
(1.01131 0.000172508 9.89306e-25)
(1.01151 0.000219081 -5.94487e-22)
(1.01367 -0.0113941 -4.9435e-22)
(1.01338 -0.0110324 -5.60709e-22)
(1.02338 -0.013427 0)
(1.02302 -0.0136127 0)
(1.02353 -0.0137914 -1.72764e-22)
(0.879387 0.239854 -3.6082e-21)
(0.868226 0.190638 3.71924e-20)
(0.903315 -0.286056 -5.99576e-22)
(0.904361 -0.290228 1.56593e-21)
(1.01202 -0.00210419 -1.37583e-22)
(1.01208 -0.00249523 5.67049e-22)
(0.894332 -0.289903 -8.16227e-22)
(0.853782 0.17686 -7.39514e-22)
(0.847147 0.159834 6.89763e-21)
(1.009 -0.000411897 -3.29226e-22)
(1.00902 -0.000383679 0)
(1.05542 -0.0499585 -1.35797e-22)
(1.05361 -0.0489758 1.3549e-21)
(1.05539 -0.0480462 9.95002e-24)
(0.953764 0.0114077 -1.85825e-21)
(0.948323 0.00359937 -2.45195e-22)
(1.21112 -0.118939 0)
(1.20539 -0.111076 0)
(1.2149 -0.116492 3.76063e-21)
(0.858622 -0.100708 3.29135e-22)
(0.863395 -0.127087 1.88791e-22)
(0.87345 -0.112527 6.52649e-23)
(0.885137 -0.10131 -4.02105e-21)
(0.889801 -0.10879 3.67232e-21)
(0.894156 -0.0992079 2.19846e-21)
(1.01771 -0.00286103 -2.37872e-22)
(1.01744 -0.00279913 -1.82528e-22)
(-0.0457801 0.297467 -1.70295e-21)
(-0.0458627 0.293064 -1.49393e-20)
(-0.051 0.292053 -5.79219e-21)
(0.908997 -0.291995 4.54355e-21)
(0.899956 -0.315306 -6.46953e-21)
(0.883709 -0.293334 2.52011e-23)
(0.998197 -0.0285976 0)
(0.998881 -0.031159 6.67306e-22)
(0.996145 -0.0306294 0)
(1.0237 -0.0132765 0)
(1.02321 -0.0130965 -1.05062e-22)
(1.00003 0.00957371 2.63302e-22)
(1.00165 0.00796088 -8.70054e-22)
(1.01086 -0.00350446 5.66481e-22)
(1.01046 -0.00341572 -6.12475e-24)
(1.0106 -0.00308645 -7.10837e-22)
(1.01175 -0.000642109 -1.13131e-22)
(1.01173 -0.00069982 -3.07403e-22)
(0.91243 -0.156972 0)
(1.08898 -0.0946737 8.81396e-21)
(1.11078 -0.158573 -1.24715e-21)
(0.856139 -0.0524241 -4.31479e-22)
(0.856937 -0.077308 -1.37604e-21)
(0.868597 -0.066508 5.61149e-22)
(1.0712 0.0303586 -1.73458e-21)