/*--------------------------------*- C++ -*----------------------------------*\
| =========                 |                                                 |
| \\      /  F ield         | OpenFOAM: The Open Source CFD Toolbox           |
|  \\    /   O peration     | Version:  v2012                                 |
|   \\  /    A nd           | Website:  www.openfoam.com                      |
|    \\/     M anipulation  |                                                 |
\*---------------------------------------------------------------------------*/
FoamFile
{
    version     2.0;
    format      ascii;
    class       volScalarField;
    location    "500";
    object      p;
}
// * * * * * * * * * * * * * * * * * * * * * * * * * * * * * * * * * * * * * //

dimensions      [0 2 -2 0 0 0 0];


internalField   nonuniform List<scalar> 
18758
(
-0.110628
-0.358519
-0.0048943
-0.0986119
-0.226579
-0.369588
-0.406499
-0.000614704
-0.241372
0.00136728
-0.0383986
-0.402379
0.00860537
-0.0736742
-0.0304438
0.231145
-0.0938829
0.00942124
-0.0220944
-0.00990759
-0.13357
0.0163249
-0.402273
-0.236451
-0.339827
-0.000384826
-0.00180906
-0.265569
-0.377759
-0.2147
-0.0897516
-0.110644
0.0102002
-0.0351352
-0.123262
0.0212323
0.0104939
-0.0179547
-0.0238468
-0.102344
-0.0188252
0.0795268
-0.00858386
0.0425431
-0.273248
-0.00266856
-0.402468
-0.0319799
0.00344529
-0.00857612
-0.225792
-0.128235
-0.00488594
-0.036873
-0.271771
-0.377703
0.0104428
0.334141
0.0262656
-0.0777958
-0.119014
-0.40625
-0.196122
0.0504649
-0.0047053
0.026918
-0.09967
0.0101571
-0.0162706
-0.124186
-0.139936
0.0494002
-0.00880815
-0.336925
-0.00432768
0.0243574
-0.186824
-0.214155
0.0664667
-0.406987
-0.393344
-0.316927
-0.0812128
-0.359814
-0.181262
-0.080801
-0.392746
-0.194946
-0.394223
0.0237746
-0.359308
0.0267236
-0.403525
0.0816197
-0.39295
-0.401425
-0.176658
-0.00464687
0.0158318
-0.132637
-0.0216414
-0.355234
-0.13775
-0.107846
-0.108971
-0.2223
-0.159093
-0.206389
-0.0255139
0.056376
-0.401488
-0.798196
0.00117625
0.00936475
-0.342329
-0.384615
-0.355066
-0.0301085
-0.404953
-0.389318
-0.10449
0.0333814
-0.381326
0.121123
-0.234047
-0.267306
-0.350947
-0.279407
-0.397529
0.00700222
-0.0955729
-0.0125862
-0.130756
0.0686652
0.262134
0.0500496
-0.186483
-0.1048
0.015327
0.183826
0.0806044
-0.0186834
0.0146035
-0.373428
-0.0196744
-0.0236702
-0.210401
-0.141754
-0.0869645
-0.286209
-0.312344
-0.154204
-0.0809279
0.0152975
-0.395995
-0.0705809
-0.406687
-0.0312345
0.0289204
0.0177364
0.00353492
-0.0848136
-0.396923
0.0276403
-0.118781
-0.374599
-0.0231674
-0.385513
-0.229218
-0.363232
-0.390061
0.00964138
-0.40013
-0.257976
-0.0868062
-0.231858
-0.382389
0.0514475
0.173863
-0.0140924
0.00269741
-0.382364
-0.155349
-0.0126007
-0.0519905
-0.161464
0.021864
-0.384913
-0.00778639
0.0242814
0.0618852
-0.277274
0.00753379
-0.086467
0.0392431
-0.200356
-0.0133269
-0.239547
0.0118318
-0.00840242
0.218882
-0.0290915
-0.0587602
-0.176212
0.00861761
0.0374318
-0.146183
0.0151638
-0.125054
0.00784114
0.00885197
-0.112537
0.0264761
-0.0665511
0.113363
-0.396334
0.111055
0.287849
-0.00395506
-0.374129
0.00909273
-0.0252326
-0.156107
-0.20779
-0.273924
-0.14277
-0.15133
0.0201636
-0.0122416
-0.180388
0.0272417
-0.199661
-0.399482
-0.175282
0.00871282
0.0220869
-0.0120376
-0.00211563
-0.380815
-0.0835223
0.00586306
-0.309599
-0.155552
-0.0379324
-0.283288
-0.403229
-0.171522
0.0211576
-0.392945
0.118193
0.0212697
-0.388567
-0.0823985
0.11766
-0.0282344
-0.112119
-0.201
0.310324
-0.0621041
0.0453836
-0.0148296
-0.135333
0.0187726
-0.173295
0.00983399
-0.152883
-0.396633
-0.00377562
-0.0250336
-0.11681
-0.0239526
-0.0510546
-0.176549
-0.379444
-0.352629
0.0165441
-0.215741
-0.20014
-0.295251
0.0100029
-0.0153809
-0.0625515
-0.086177
0.0147511
-0.195581
-0.298834
-0.0858144
-0.132182
-0.402069
-0.0113281
-0.00496905
0.0130907
-0.395991
0.0964922
0.0596668
-0.209586
-0.0568304
-0.394508
-0.0213906
-0.0866336
-0.363654
-0.00243279
-0.113701
0.0478951
-0.0170533
-0.0540702
-0.191182
-0.0334979
0.021268
-0.407246
-0.0817092
0.0154262
-0.406292
-0.39219
-0.267174
0.0211917
0.00677392
-0.109146
-0.0369148
-0.0120965
-0.0155537
0.0737888
-0.227734
-0.194687
-0.0605705
-0.0788601
-0.00566145
0.054539
-0.0145219
0.017791
-0.27261
-0.0677596
-0.222169
-0.0962231
0.0995649
0.00683049
0.00437817
-0.0848415
-0.111372
-0.0124663
0.00828144
-0.0122464
0.0507094
0.0243208
-0.331758
0.0328121
0.0524413
-0.00940216
0.198436
-0.0152074
-0.24893
-0.155327
-0.0366812
-0.281618
-0.0988233
-0.095498
0.123237
-0.402021
-0.175149
-0.163264
0.00935428
-0.0171522
-0.365684
-0.377534
-0.00206901
-0.0111812
-0.149804
-0.0220758
-0.0808186
-0.36485
-0.101035
-0.0946048
-0.00212267
-0.396384
0.0314984
-0.0285385
0.0157127
-0.0239463
-0.117821
-0.0432867
-0.406902
0.0130918
-0.0277193
0.0156278
-0.371491
-0.0957411
-0.236594
0.0319106
-0.0856402
-0.0147889
0.0799427
0.0333888
-0.00346278
-0.322737
-0.124323
-0.243722
-0.393933
0.00507051
-0.198988
-0.126338
-0.11405
0.0010091
-0.0919835
-0.0138888
-0.0244791
0.00258407
-0.119171
0.0301529
0.0462082
-0.149259
-0.384822
-0.0152785
-0.220991
-0.119831
0.0208972
-0.0583482
0.0280655
0.00851272
-0.0543669
-0.134317
0.0493507
-0.431941
-0.10792
0.0243508
-0.0967334
-0.134216
-0.0990333
-0.388905
-0.108652
0.0127149
-0.00326796
0.00589953
0.0272754
-0.091318
-0.103734
-0.0720267
0.0486522
-0.0824223
-0.136745
-0.141008
0.0282151
-0.0762587
-0.394367
0.0313453
-0.0972744
0.00408355
0.0246788
-0.156328
0.0682
-0.0261122
-0.195121
-0.12645
0.0103698
-0.406298
0.0251946
0.0330266
0.262613
-0.402231
0.139172
-0.15181
-0.0720139
-0.136502
-0.362567
-0.076687
0.0500359
-0.235366
0.0104232
-0.0907962
-0.021599
-0.403654
-0.0834837
-0.358381
-0.0719155
-0.0897754
-0.00235793
-0.240844
-0.00852531
-0.171338
0.0161017
-0.189707
0.0189451
-0.101025
-0.0831211
0.0174184
0.0161906
0.00221506
-0.131364
-0.234556
-0.340438
-0.0960193
-0.0485863
-0.194242
0.0131574
0.0200503
-0.133188
0.0166919
0.0252502
-0.213642
0.00920109
-0.145777
-0.191285
0.0254735
0.0298788
0.081711
0.0313322
-0.0731458
-0.258865
-0.0496818
0.133028
-0.0287647
0.024193
0.189136
0.0553591
-0.0231637
-0.0906168
-0.383374
-0.0886576
-0.112165
-0.00128159
-0.0234769
-0.382138
-0.0225608
-0.336575
-0.175058
0.018167
-0.255469
-0.283659
-0.151525
0.00196068
-0.0656448
-0.117962
-0.0187508
-0.0139276
-0.0314311
-0.0333339
-0.0241397
-0.00135795
0.020137
-0.38097
-0.0563039
-0.380182
0.0336834
-0.245141
-0.363178
0.0189203
-0.00797113
-0.0535374
0.0114333
0.00918831
0.0683675
-0.0128861
-0.186217
0.173005
-0.00598468
-0.120458
-0.264674
0.143752
-0.234437
-0.190283
0.0820801
-0.0489353
-0.0743028
-0.13874
-0.0545132
-0.082919
0.0130416
-0.167524
-0.113205
-0.0342685
-0.172766
-0.406623
-0.0526916
0.0196574
-0.151692
-0.333758
0.0119036
-0.220869
0.0430534
-0.156379
0.00627003
-0.0136595
0.00208361
0.0090463
-0.245408
-0.153118
0.033538
-0.0973595
0.0611256
-0.100449
-0.233842
-0.107759
-0.342774
-0.0199639
-0.267716
-0.0840346
0.00288703
-0.102277
-0.132307
-0.161606
-0.0346455
0.0650883
0.00638642
-0.00461309
-0.131882
-0.181841
-0.262998
-0.124482
0.0390775
0.0117312
-0.139727
0.0164388
0.00361263
0.0681109
-0.0313993
-0.190822
-0.110643
-0.233983
-0.194357
-0.153083
0.0190106
0.0672485
-0.207119
-0.153239
-0.0813376
-0.35161
-0.140621
0.0343177
-0.0987201
-0.105097
0.00662865
-0.0125965
0.272305
-0.357486
-0.241789
0.00890894
-0.178156
-0.124086
-0.337381
-0.0087948
-0.401319
-0.406974
-0.391656
-0.0435422
0.0220438
-0.359963
0.0204116
-0.120866
-0.337163
-0.265518
-0.405968
-0.130527
-0.145466
-0.138176
0.0300748
0.0643939
-0.39067
-0.0788092
-0.408082
-0.102362
-0.0227366
-0.12332
0.0130093
-0.154149
-0.116506
-0.219085
0.0179586
0.0499123
-0.194427
-0.126028
-0.391053
-0.40326
-0.0986248
-0.0258708
-0.169354
0.0536434
-0.0138669
0.0226037
-0.0439004
-0.0906722
0.0248764
-0.115079
0.00726921
0.00687946
0.00771413
-0.2376
0.056422
0.0117158
-0.136156
-0.138041
-0.00607154
-0.317989
-0.0225944
-0.0158887
-0.145224
0.122592
-0.0496406
-0.00888297
-0.343018
0.144141
-0.0525829
-0.107126
-0.056184
-0.0846033
0.109888
-0.185504
-0.391543
-0.128593
-0.0122332
-0.139929
-0.262605
-0.00129524
-0.197609
0.0216876
0.00712185
-0.10853
0.00941782
-0.151886
-0.149329
-0.00807499
-0.399747
-0.0194858
-0.103218
-0.0723928
-0.00606984
-0.340635
0.00470565
-0.0219547
0.0215219
0.0229733
-0.266267
0.231645
-0.370798
-0.158946
-0.37028
-0.14225
0.0246994
-0.192332
-0.404236
-0.348686
0.216423
-0.246824
-0.0799427
-0.0531202
-0.269493
-0.0059138
-0.336045
0.0085782
-0.400886
-0.0361237
0.201716
0.0860511
-0.0238508
-0.379163
0.065512
0.00418741
-0.350585
0.00673913
0.00795146
-0.106019
-0.192195
-0.270418
-0.343754
-0.116295
-0.36773
0.0115085
0.021943
-0.182377
0.0248449
-0.301784
-0.13219
-0.0401657
0.0253991
-0.0498495
0.0308089
-0.0210776
-0.0713555
-0.299349
-0.237804
0.266793
-0.123904
0.0136068
-0.106778
-0.374845
0.007609
-0.114841
-0.0460345
-0.1425
0.0650313
-0.395954
0.00846658
-0.277091
0.011638
-0.14327
0.00350496
-0.0430255
-0.0492103
-0.00616305
-0.0154144
-0.00535567
-0.132858
-0.28296
-0.0789537
-0.341679
0.0350636
-0.100958
-0.0702943
-0.228893
-0.406278
-0.0786308
-0.0077107
-0.0538779
0.00723244
0.0355828
-0.0713423
-0.371137
-0.389298
-0.331756
-0.110357
0.24271
0.0717619
0.0119514
-0.327679
0.00737678
-0.347791
-0.0707511
0.0221391
-0.193204
-0.374707
0.0244029
-0.373048
-0.029437
-0.0558019
0.0374897
-0.110512
-0.37374
-0.302948
0.00781116
-0.00492423
-0.18626
0.0169627
-0.015429
-0.0731295
0.0186802
-0.117213
-0.101285
-0.142952
-0.380721
-0.122973
-0.121734
-0.045305
0.00910985
-0.0046849
0.00214473
-0.362669
-0.136598
-0.0855854
0.0256381
-0.0075592
-0.0499862
0.000135269
-0.110515
0.0467184
-0.293726
-0.137752
-0.116977
-0.163101
-0.0878341
-0.0146541
-0.265889
0.0115925
-0.406289
-0.266922
-0.403891
-0.366039
-0.0322624
-0.0715377
-0.277448
-0.38241
-0.404392
0.205492
-0.21392
-0.380982
0.00919912
-0.165545
0.16146
-0.0878871
0.00906131
-0.0170977
-0.110804
-0.133057
0.239736
-0.0411657
0.0327022
-0.0424987
0.124712
-0.426017
-0.0229152
-0.284137
0.0124003
0.0332226
-0.263496
0.00757728
0.0202212
-0.0224449
0.0139576
0.00867401
-0.00632859
-0.00922507
-0.116127
-0.0600551
-0.139165
-0.0117704
0.122106
0.0281851
-0.192221
-0.240996
-0.0176955
0.0128848
-0.0363615
-0.230754
-0.161325
-0.0766318
-0.307734
-0.0852364
0.0276135
0.0385678
-0.0841111
-0.394418
-0.10807
-0.00499528
-0.10098
0.012798
-0.0996668
-0.00733397
-0.329714
-0.395031
0.00588527
-0.0238906
-0.350633
0.0200746
-0.241735
-0.393619
-0.103228
0.0550346
0.0220817
-0.0075077
0.00853274
-0.383678
-0.366894
-0.226024
-0.0169213
-0.1998
0.00529483
0.0242903
-0.379445
-0.0120693
-0.228193
-0.00607435
0.0932482
0.0670965
0.0236701
0.00222726
0.0125946
-0.391039
-0.0258243
0.0219999
0.235518
-0.112371
0.0111289
-0.150062
-0.0608099
0.0115584
-0.00842883
0.00885523
-0.0140672
-0.393045
-0.0619547
0.0274937
-0.0946266
-0.0938732
-0.191847
0.0158523
-0.116136
-0.372358
-0.0382256
-0.145389
0.0221142
-0.0124534
0.0170585
-0.0678318
-0.0689488
-0.0823345
-0.0204925
-0.0687194
-0.0822058
-0.403619
-0.163198
0.0237504
0.00111476
-0.00722573
-0.152045
0.00408879
-0.391794
0.0208123
0.0155689
0.000750048
0.182602
-0.381442
0.0117334
-0.0428889
0.00680954
-0.135741
0.00342116
0.0333794
-0.142233
0.011503
-0.0127764
0.0203941
-0.231552
0.00283476
-0.0123732
-0.112687
-0.366072
0.170778
0.202665
-0.35816
0.0861427
0.0207975
0.017203
-0.285984
0.0334421
-0.133356
-0.127209
-0.113827
0.0721757
-0.0266069
0.00227314
0.00921716
-0.00449554
-0.268776
-0.159434
-0.0379399
0.00232616
-0.241024
-0.0983159
-0.408654
-0.228863
-0.0576477
0.0164714
0.00224531
-0.00482765
-0.106074
0.0162395
0.0026216
-0.387663
0.24971
-0.0671168
0.0173048
-0.129089
-0.0895989
0.0174226
0.0413351
-0.0541204
0.297354
-0.136301
0.005538
-0.035071
-0.105144
0.00401564
-0.0564596
0.00781244
-0.290472
-0.153964
-0.214408
-0.01414
-0.0951551
-0.376835
-0.0982654
-0.326079
-0.105685
-0.392577
0.0162187
0.0217079
-0.0277804
-0.196296
0.0220098
0.0791585
0.0579042
-0.102663
0.00976603
0.0103902
-0.024024
0.0114329
-0.0621803
-0.111425
-0.33127
0.0251461
-0.393696
0.128798
0.0114683
-0.0731859
-0.000600851
-0.188871
-0.0214719
0.0332418
-0.392918
-0.360638
-0.383794
-0.0293408
-0.376918
0.0331088
-0.119094
-0.392124
-0.00486321
-0.114017
-0.102709
-0.00479053
0.00824814
-0.186698
-0.0260927
0.0174112
-0.258934
-0.337315
0.00841803
-0.0852915
0.01153
-0.0562495
-0.158083
0.0115771
-0.389903
-0.0982996
0.0105699
-0.334535
-0.0889266
-0.141659
0.0203187
-0.0941458
0.00843302
-0.198192
0.0320464
-0.00167574
-0.382092
-0.000601902
-0.373369
0.0109522
-0.145143
-0.366865
-0.117342
0.0137858
0.0502224
0.0201964
0.0701992
-0.0531051
0.112014
-0.00529126
-0.407774
0.0114326
-0.0220509
-0.231704
-0.0578718
-0.0422023
0.00850725
-0.174561
-0.181451
-0.0250093
0.151233
0.0215214
-0.0132408
-0.377142
-0.00430935
-0.00147195
-0.00885294
-0.380786
-0.019155
0.00483514
-0.233562
-0.0568603
-0.277271
-0.0749889
-0.00455046
0.00658017
-0.356527
-0.0462905
0.0285826
-0.368942
-0.328625
0.00254346
-0.116046
-0.21232
-0.0216704
0.0389064
-0.163707
0.0167715
-0.0927357
-0.0209831
0.00867144
-0.343112
-0.404907
-0.197815
-0.00574162
-0.124072
0.00543897
0.323534
-0.144871
0.0203651
-0.12573
0.017345
0.118189
-0.0461146
-0.117834
-0.00109733
-0.0274014
-0.0994515
0.0172322
0.151274
-0.000726086
0.0250853
-0.367131
-0.195143
0.0524993
-0.0917376
-0.336808
0.0551158
-0.0329553
-0.142836
-0.140995
-0.0566672
0.0308335
0.0186701
0.0164538
-0.0265978
0.00513479
0.0137613
-0.0365418
-0.33243
0.00985973
-0.363195
0.00620267
-0.0616401
0.0116593
-0.00872121
0.0260045
0.0241638
-0.134493
-0.38362
-0.0342668
0.0190075
-0.379115
-0.0356198
-0.393857
0.129083
0.243588
-0.181635
-0.409183
-0.13602
-0.0355157
-0.0230185
0.00310256
-0.107769
-0.00876809
0.0176952
0.0292959
0.000560856
0.0209356
0.021835
-0.391976
-0.337224
0.0168768
-0.395698
-0.139668
-0.0474061
0.00687189
0.0421099
-0.120501
-0.0152927
-0.0603719
0.0127142
0.00924997
-0.0246419
-0.00054941
-0.137736
-0.0225113
-0.0212229
-0.0135622
-0.00304734
-0.0919327
-0.00496186
-0.0143814
-0.02542
0.0315569
-0.148697
-0.102176
-0.0817601
0.0173002
0.0383245
0.0208639
0.0165889
-0.11703
0.0278827
-0.0175454
2.0802e-05
-0.183359
0.00969499
0.0149096
-0.395781
0.0117523
-0.157062
-0.183523
-0.0243921
-0.390521
-0.118762
0.123007
-0.403888
-0.0725402
-0.0808915
-0.00869628
-0.227122
0.0108755
-0.279431
0.0238089
0.00607487
-0.267238
-0.0413286
-0.225312
0.292267
0.0140125
-0.298551
0.0167767
-0.263697
-0.133137
0.00749273
-0.00894383
-0.0192318
-0.137996
-0.039902
-0.251759
-0.0880427
0.016882
0.00688945
-0.0212014
-0.386699
-0.0746027
0.0121457
0.0147099
0.0144201
-0.0796962
0.14018
-0.019787
-0.013357
0.170788
0.0277917
-0.0467516
0.0758384
-0.144674
0.0114047
-0.0360209
0.195816
-0.0117057
0.0192416
-0.364636
-0.102658
-0.184329
-0.269639
-0.0062828
-0.380927
-0.413452
0.131028
-0.192134
0.0240729
-0.107778
-0.136223
-0.107347
0.00282036
-0.389927
-0.153922
0.0121754
-0.100903
-0.401661
0.00725893
0.0114938
-0.092622
0.011314
-0.286817
0.0505215
-0.0237505
0.0127157
0.0115352
0.248979
-0.0594983
-0.387305
-0.0951838
-0.112244
-0.165277
0.0209867
0.0244707
-0.299278
-0.379676
0.0349819
0.0129463
-0.240503
-0.0249556
-0.15208
-0.106497
-0.109024
0.0322544
0.030748
-0.265879
-0.00246565
-0.146645
-0.271682
-0.0144121
-0.131969
-0.150992
0.0878076
0.0280303
-0.416298
0.0104901
0.284867
-0.0053252
-0.119679
-0.0342669
-0.00393529
-0.379669
-0.0345889
0.029978
-0.0346124
-0.169357
0.0176438
-0.00521204
-0.402007
0.0199783
-0.0149027
0.0135459
-0.0434106
0.02479
0.0220486
0.0246926
0.0220766
0.108627
-0.0116494
-0.14744
-0.116825
0.0408305
-0.129884
-0.0605641
0.0746032
0.014307
0.00461867
-0.0244291
-0.109284
-0.118338
-0.0146627
0.0112476
0.0185491
-0.371393
-0.0051595
-0.233728
-0.132971
-0.124924
-0.381695
-0.215903
-0.142837
-0.0140389
-0.0957673
-0.298183
-0.382928
0.0212854
0.049944
-0.0811267
-0.0028601
-0.0787135
-0.140001
-0.148069
-0.0590368
-0.329814
0.030108
-0.00484064
-0.10855
-0.155492
0.00176898
-0.00479147
-0.0824809
0.0118071
-0.378555
-0.179239
-0.39177
-0.140749
-0.120566
-0.341025
-0.0196865
-0.22157
0.0196578
0.0315442
-0.0145028
-0.111189
-0.0148144
-0.00794108
-0.314209
-0.404994
-0.276943
-0.16827
-0.0186863
-0.0990716
-0.310483
-0.393954
-0.109154
-0.404052
0.0345627
-0.378764
-0.0590039
-0.265805
-0.1353
-0.0689176
0.01492
-0.00475063
-0.0584226
0.0235957
-0.115635
0.00100005
0.00111746
0.0249811
-0.234976
0.0496805
0.00368734
0.00432148
0.0315302
-0.138969
-0.0310672
-0.331389
-0.0341121
-0.167688
-0.00620072
0.0226579
-0.165284
0.00116618
-0.00525779
-0.122105
-0.0912912
-0.26714
0.0120106
-0.403173
-0.0342016
0.0226445
0.0250455
0.032488
-0.389744
-0.274851
-0.40227
0.00762195
0.0234027
-0.00557469
-0.250233
0.0260991
0.018874
-0.298935
0.0276216
-0.0222915
-0.120996
-0.0130432
0.0280346
0.018596
0.00404916
-0.00827614
-0.0279596
-0.00462807
0.044401
-0.122091
-0.107518
0.00487396
-0.394451
-0.0443504
-0.189276
-0.394492
-0.0579885
-0.395094
-0.261042
-0.00967652
-0.0903351
0.010365
0.00550582
-0.356142
0.0248594
-0.258992
0.079058
-0.0764359
0.0298755
0.0451091
0.0110236
-0.122883
0.0792879
-0.404459
-0.0246561
-0.210712
-0.0686198
0.00300478
-0.0986338
-0.0986231
-0.0081708
-0.379883
0.0239803
-0.085012
0.0126606
0.0530859
-0.104256
-0.150394
0.0197683
-0.117206
-0.356408
-0.0807379
-0.0680457
-0.0127942
-0.187918
-0.151853
0.0209437
-0.170915
-0.349534
-0.122887
0.0321156
-0.0335267
0.0115043
-0.0113765
0.0224583
-0.179957
-0.0708658
0.0184195
-0.326977
0.0189007
-0.00538419
0.0263267
-0.157043
0.0511094
-0.218135
-0.0672003
0.0442949
-0.291888
-0.0341296
-0.241504
-0.163572
-0.00273013
-0.0684131
0.0373453
-0.0286673
-0.0965199
-0.405348
-0.115272
-0.330471
-0.214902
0.0143468
-0.265742
0.0107701
-0.116882
0.0128501
-0.378455
-0.103452
0.0166966
-0.0127114
0.0173796
-0.0765213
-0.169369
0.00989386
-0.126562
-0.0353663
-0.0675753
-0.159977
-0.0223284
0.00565456
-0.0915435
-0.00230754
-0.112448
0.0127841
-0.33794
0.00967023
0.0148646
-0.110144
-0.00496176
0.00106011
-0.0243751
-0.155262
-0.126666
-0.216832
0.0518728
-0.000341488
-0.0551877
-0.0248384
0.0180312
-0.384606
0.00592397
-0.105096
-0.391289
-0.148723
0.0289054
-0.185548
0.00033807
0.0218593
0.236366
-0.279682
-0.183502
0.0116942
0.0283086
0.0964835
-0.122124
-0.00655319
-0.0500989
0.0147916
-0.0196821
0.00521344
-0.0241326
-0.123946
-0.00461907
-0.378069
-0.394897
-0.0287863
-0.00500712
-0.108498
-0.398807
-0.000885773
0.0285029
-0.39017
0.00942343
0.227853
-0.119743
-0.337026
0.0148161
0.0481117
-0.133327
0.0287216
-0.302914
-0.255372
-0.0104765
-0.0407026
-0.0899646
0.0190646
-0.0767087
0.0167046
0.0783079
-0.0197415
-0.0465501
-0.0046714
0.0135629
-0.224713
0.00708676
-0.388394
-0.0765743
0.0372601
0.036693
0.0107893
0.0123421
-0.389714
0.0121517
-0.253261
0.00967112
0.00262062
-0.147407
-0.11541
0.0015388
-0.00613925
0.0224454
-0.00581763
-0.0757211
-0.0781903
-0.160274
-0.0492619
0.0045876
-0.21517
-0.356126
0.0102395
-0.0835413
-0.116797
-0.0982549
-0.0162986
-0.348295
-0.00846996
-0.225411
-0.0684665
0.0209089
-0.0882477
-0.0131891
0.0231275
-0.0211197
-0.133011
0.0401072
-0.115137
-0.348682
-0.206088
-0.0493076
0.00842224
-0.106664
0.0195851
-0.346989
-0.00609721
-0.0811894
0.0755893
-0.0715252
0.0472476
-0.125593
-0.077888
0.011312
-0.349606
-0.275004
-0.00594849
-0.111474
0.0106989
-0.0376467
-0.011943
-0.39114
-0.301758
0.0172427
0.0113221
-0.116792
-0.0808152
0.00546062
0.0430979
0.0178554
0.00321653
-0.00297376
0.0521458
-0.401184
-0.378356
0.0169237
0.029386
-0.0317896
-0.0743814
0.0125103
-0.393927
-0.389773
-0.393232
0.0662931
-0.385459
-0.391095
0.0474075
-0.0817073
0.0133661
-0.0564498
-0.301321
-0.0262251
-0.00266182
0.000434958
-0.0680429
-0.00508402
0.0283398
-0.334944
0.0447875
-0.0771147
0.036838
0.0130453
-0.000513808
0.0107325
-0.22577
-0.386756
0.0025398
-0.0945192
-0.00800827
-0.242459
-0.00965187
0.050725
-0.194241
-0.196349
0.108852
-0.160507
0.166488
0.0252855
-0.0971725
0.0291892
-0.0812343
0.0105075
0.0116755
-0.175523
-0.176318
-0.116468
-0.100137
0.156805
-0.354977
-0.030542
-0.113366
-0.0353816
-0.390473
-0.120649
-0.135924
0.0292378
-0.00476573
-0.200049
-0.388851
0.0207937
-0.106774
0.0203108
-0.0559222
-0.00536209
-0.0131438
-0.0164361
-0.00782794
-0.163811
0.086524
-0.0872928
0.0352127
0.0277304
-0.00204253
0.00427487
0.00351961
0.0131358
0.0146163
-0.147661
-0.160053
-0.388612
-0.0200211
-0.354734
-0.143206
-0.343768
-0.359763
-0.145047
0.0111194
0.0494442
-0.11604
0.0176028
-0.0813612
-0.185085
-0.0211884
-0.000550101
-0.058742
-0.311975
0.020652
-0.390156
-0.0199499
0.0154912
-0.359306
0.023153
0.0885422
0.0121321
-0.117916
-0.0120693
0.0283081
-0.269036
-0.010433
0.0250406
0.00695581
-0.000829952
0.126075
0.0182239
-0.392722
0.0131258
0.0217771
-0.0080265
-0.389784
-0.0719477
0.0224199
-0.388429
0.0185706
-0.0113527
-0.0622562
-0.396376
0.0356845
-0.385672
-0.186996
-0.0566102
-0.153492
0.0112386
-0.0179027
-0.0651574
-0.0114628
-0.400138
-0.314773
-0.00634667
-0.0479401
0.0124446
-0.402661
-0.139287
-0.102904
0.020059
-0.192927
0.112331
-0.129737
-0.0561942
0.00825814
-0.0330018
0.0179488
0.00381442
-0.149185
-0.00568122
0.00394514
-0.114848
-0.370195
-0.115514
-0.389249
0.00829949
0.036815
-0.0154314
-0.0224648
0.0478807
0.000182643
0.0199818
0.0179997
0.0171536
0.0112709
-0.0491073
-0.000664969
-0.024853
-0.0015955
-0.398589
-0.377366
-0.0267292
-0.035489
-0.112635
0.0109681
-0.0834022
-0.117271
-0.0560487
-0.344148
-0.294423
-0.329534
-0.351509
-0.120287
-0.0178282
-0.0784289
0.0122166
-0.127656
-0.0452359
0.0138148
-0.0111035
-0.117962
-0.0107324
0.123197
-0.391267
-0.0108365
-0.0122539
-0.166175
-0.00115859
0.0100118
0.00293202
-0.0266277
-0.355233
-0.398313
0.0170829
0.0284112
0.0252973
0.0073539
0.0868952
-0.0156746
-0.311409
-0.253509
0.0211539
-0.39216
-0.0792879
0.0274537
-0.403509
-0.0112436
-0.0564043
0.00167051
-0.0138998
0.0041906
-0.389254
0.0255803
0.00966434
-0.0471933
-0.0262368
-0.0812777
0.00485107
-0.121505
-0.109232
0.0333648
-0.361742
-0.261156
-0.11135
-0.0767461
-0.106266
0.0181948
0.0152756
-0.0568622
-0.258412
-0.0578759
-0.12351
-0.168927
0.010578
-0.332466
-0.276494
-0.33712
0.0297075
0.0664551
0.0129392
-0.224754
0.15052
-0.250544
-0.241023
0.0129815
-0.0914921
0.0322409
-0.0162147
-0.310386
0.0335928
-0.0577727
-0.060256
-0.190529
0.0302084
0.0179233
0.0136922
-0.147211
0.00720119
-0.027074
0.0320472
0.0126828
-0.0122112
0.0420483
-0.00433721
-0.319277
-0.128912
0.0144425
-0.00328948
-0.0110724
-0.0465279
0.0661926
0.0206338
-0.323998
0.140195
0.000221083
0.00338149
-0.391643
-0.121063
0.00770125
-0.11159
0.119782
0.022329
-0.400693
-0.000785882
-0.173209
0.0117732
-0.380014
-0.23512
0.0108871
-0.093763
-0.251575
-0.0774049
-0.350824
0.0119156
0.0344071
-0.181049
-0.289298
-0.0560082
0.0740032
-0.0043939
0.0933927
-0.0343121
-0.127639
-0.124458
-0.108435
-0.0312363
-0.00250136
-0.113267
0.0107227
-0.278859
-0.0277322
-0.20126
-0.0120329
0.0115118
-0.0157034
-0.020707
0.00504338
-0.125543
-0.357663
0.00975062
-0.00639776
0.01574
-0.398832
0.000257272
-0.0219317
0.0120457
-0.100068
-0.402928
-0.00075702
-0.0116716
-0.0987977
-0.169067
0.0234666
-0.110074
0.0543555
0.000412501
-0.0789594
0.0553025
-0.295832
-0.332487
0.0343263
-0.380095
0.0056216
0.00771714
-0.0195928
-0.380914
0.0430205
-0.114341
-0.00112124
-0.256847
-0.100574
0.0111094
-0.0743681
0.0187669
-0.143578
-0.146214
-0.0824045
-0.26026
-0.104338
0.0145331
0.020654
0.0128479
-0.0549191
-0.208691
-0.0757628
0.0197349
-0.207041
-0.0201125
-0.379791
0.0300869
-0.385856
-0.0777651
-0.380447
-0.255511
-0.0237137
0.0343469
0.0289446
0.00620115
-0.240624
-0.0224094
-0.0894475
-0.340564
-0.00450262
-0.138414
0.0398499
0.0310622
-0.0709898
0.00996446
-0.0195641
-0.39012
-0.405049
-0.157519
0.0172422
0.000425964
0.010181
-0.0503204
-0.0347673
-0.0205551
-0.37219
-0.0685413
-0.0906218
-0.0308914
-0.0566663
-0.317494
-0.0502449
0.043834
-0.00312595
-0.401814
-0.0130577
-0.204532
0.0145126
0.0134451
0.0306216
-0.00652348
-0.00448893
-0.0253218
0.00229957
0.118648
-0.337248
-0.0933297
-0.161023
0.0353952
0.0205889
0.0188547
-0.201008
0.0276176
-0.0310712
0.0171368
-0.400617
-0.402359
0.00216418
-0.0338911
0.0112479
0.0321324
0.0210186
0.0212184
0.0178199
-0.291913
0.0349908
-0.0111335
-0.226986
0.00528115
-0.134042
-0.110565
-0.0672686
-0.199184
-0.0476453
0.0240329
-0.113157
-0.0120225
-0.0643874
-0.0500606
-0.00078489
-0.127578
0.0115993
-0.38464
-0.00978105
-0.0160523
-0.195354
-0.145276
-0.391136
0.000981447
-0.148356
-0.24235
0.0294071
-0.111664
0.00639454
-0.00399565
-0.010039
-0.101802
0.0679508
-0.301683
0.0226048
-0.0871787
-0.403256
-0.195113
0.02691
-0.218517
0.0985619
-0.110023
0.0453159
-0.0402045
-0.0479359
-0.133177
0.0316955
-0.0272485
-0.391683
-0.0113849
0.0685152
0.00153702
0.143668
-0.140416
-0.345778
-0.00738092
0.0214908
0.0251946
-0.0800306
0.0281227
-0.015289
-0.0590211
-0.391708
-0.0389267
0.0166424
0.0310322
-0.405018
-0.148061
-0.135828
-0.344581
0.01953
-0.374506
-0.00350114
-0.247078
-0.0185552
-0.0533014
-0.391214
0.0891281
0.0114372
-0.261744
-0.112187
-0.188803
-0.00349022
-0.12301
-0.115271
-0.0134533
-0.240952
-0.221158
0.0189123
-0.0327269
-0.112316
-0.00648052
0.00280065
0.00406423
0.0467196
-0.180637
-0.173223
-0.0587053
-0.174474
0.0197362
0.246317
0.123824
0.0251447
0.0702304
-0.0577266
-2.26012e-05
0.0128931
-0.384094
-0.404038
-0.15618
-0.0119555
-0.10321
0.0146528
-0.121705
0.00922658
-0.111151
-0.359737
-0.40674
0.178883
-0.0202958
-0.059719
-0.120826
-0.304825
0.020956
0.0210359
0.00615282
-0.346079
-0.103777
-0.215305
-0.38981
-0.0109054
0.0103988
-0.380584
0.102091
-0.19388
0.0161471
0.0146384
0.0352357
-0.340161
0.0411553
-0.079427
-0.00336455
0.0191815
0.00265889
-0.401377
-0.388065
0.0237712
-0.289541
-0.014851
-0.228076
0.0179112
0.0132152
-0.120345
0.0424069
0.0220576
0.0962325
-0.143322
-0.0727702
-0.229774
0.0123569
-0.12861
-0.347255
0.0363876
0.000872793
0.0383923
-0.351791
-0.0948638
0.111284
-0.125515
-0.00573825
-0.0203203
-0.0129549
-0.0559607
-0.341814
-0.377972
-0.058931
-0.333811
-0.145141
-0.354512
-0.112201
0.035499
0.00792505
-0.14125
-0.391579
0.00999012
-0.0369813
-0.129309
0.0236889
-0.133242
-0.299579
-0.128353
0.0227952
-0.0616279
0.0487199
0.0238843
-0.0137293
0.311371
-0.0153638
-0.0576029
-0.0565078
0.00817438
0.0212572
-0.406657
-0.0116699
-0.00697506
-0.104655
-0.229273
-0.0828412
0.0189568
-0.0569654
-0.316081
-0.121852
-0.0693039
-0.245548
-0.0901247
-0.180248
-0.106872
-0.024725
0.17225
0.155703
-0.00841186
-0.0138189
0.0166542
-0.0588251
-0.142466
-0.369524
0.011373
-0.113651
-0.161138
-0.31478
-0.403083
-0.154584
-0.129068
-0.145103
-0.121846
-0.131264
-0.366147
-0.0978694
0.033156
0.0041516
-0.381779
-0.0956041
-0.13636
-0.129716
0.00130237
-0.246328
-0.21328
0.0135754
-0.00224419
-0.0838907
-0.137161
-0.188991
-0.358255
-0.195413
0.00495862
-0.0111274
0.0122734
-0.388607
0.0929871
-0.064555
-0.048512
-0.397874
-0.230969
-0.15021
-0.0674283
-0.115068
0.00309766
-0.00367535
0.0298535
0.0160933
-0.394681
-0.227872
-0.116974
0.0463841
-0.293451
-0.110641
-0.00418694
-0.0424603
-0.37782
0.140304
0.00485404
-0.0525922
0.0133738
-0.324558
-0.00578184
0.0197774
-0.392381
-0.0756887
0.0381406
0.0357149
0.0032657
0.048493
-0.074824
-0.0238046
-0.012793
0.00428281
-0.0777715
-0.391864
-0.117878
0.0240109
-0.0157282
-0.370382
0.0193876
-0.346769
-0.365058
-0.00486749
-0.404679
0.0217487
-0.155529
-0.107267
0.0295145
0.0214029
-0.00317903
-0.0701356
-0.0510996
0.0050709
-0.136702
0.0136069
-0.389498
0.00938545
-0.398957
-0.404727
0.0953776
-0.0124342
-0.211973
-0.181611
0.204217
-0.146504
0.110204
-0.00220096
-0.122707
-0.0175516
-0.10769
-0.130967
-0.0646355
-0.125972
0.0139055
-0.227632
-0.143962
-0.115797
-0.197216
0.0139274
-0.168904
-0.144969
0.0111417
-0.217835
-0.123756
-0.335808
0.0181265
0.0866035
-0.00820265
-0.162933
-0.341386
-0.0548151
-0.326279
-0.136977
-0.0941421
-0.332432
-0.403027
-0.111114
-0.115997
-0.111473
-0.138836
-0.379589
-0.0874005
-0.359131
-0.390125
-0.0306588
0.0517704
-0.0590332
-0.152836
0.0108929
0.0139735
0.0214297
-0.0494664
0.0271761
0.0114616
-0.388813
-0.116437
0.0110114
-0.135763
0.0238111
0.00271495
-0.0372778
-0.17792
0.00844867
-0.158317
0.0201757
-0.0905033
-0.104662
-0.194141
0.0789842
0.0101888
-0.188733
0.0121456
0.0106252
0.0847981
-0.0357263
-0.382204
-0.21622
0.0180059
-0.0472571
-0.0914065
0.0208057
-0.175865
-0.145438
0.228676
0.00814967
-0.0922648
0.0252071
0.0111179
-0.372819
-0.401419
-0.0981259
-0.172503
0.0452492
-0.15625
0.0993661
-0.388019
-0.110258
0.0171725
-0.00312563
-0.26188
-0.203906
-0.389401
0.120237
-0.383337
0.0452393
-0.38806
-0.381036
0.0706811
-0.138805
0.00498
-0.339602
0.0125188
-0.381601
0.0953125
-0.128688
-0.391595
-0.353668
-0.344806
0.0548544
-0.369673
-0.100796
-0.131495
-0.397653
-0.0992168
-0.222079
-7.32694e-05
0.0815069
0.12672
-0.399849
0.0118742
-0.0184295
0.0610526
-0.136243
-0.377721
-0.12101
-0.104209
0.018385
-0.22302
-0.0107337
-0.203332
-0.110682
-0.327408
0.00214484
-0.299485
0.193664
-0.00104587
-0.282715
-0.0983138
-0.0537937
-0.239424
-0.254978
-0.395336
-0.102527
0.00596385
0.0116698
-0.236142
-0.101933
0.0238833
-0.342764
-0.00878878
-0.359993
-0.028059
-0.0262122
-0.112684
-0.327397
-0.0198628
-0.138072
0.0212011
-0.397903
-0.00793672
-0.119628
0.18575
0.205224
0.00557134
0.026782
0.0145943
-0.091648
-0.0720487
-0.223787
-0.0750826
-0.148182
-0.0577139
-0.0213641
-0.218984
-0.0769474
-0.00213159
0.218363
0.00702636
-0.395116
-0.00476191
0.167403
-0.381185
-0.0695974
0.01413
-0.325879
-0.027241
0.0209193
-0.114767
0.0110824
0.00531262
-0.282187
-0.0781417
-0.389865
0.0192574
-0.221874
-0.092586
-0.0075562
0.0215824
-0.0241439
-0.011775
-0.392818
-0.0953608
-0.0709486
-0.111545
-0.0690788
-0.393483
0.0103447
0.0397947
0.019413
0.0205573
-0.156029
-0.392339
-0.0463884
0.0332074
-0.116841
-0.0233775
-0.00553405
-0.340498
-0.167588
-0.00782225
0.0341674
0.00850023
-0.167614
0.001176
-0.00355081
-0.242303