/*--------------------------------*- C++ -*----------------------------------*\
| =========                 |                                                 |
| \\      /  F ield         | OpenFOAM: The Open Source CFD Toolbox           |
|  \\    /   O peration     | Version:  v2012                                 |
|   \\  /    A nd           | Website:  www.openfoam.com                      |
|    \\/     M anipulation  |                                                 |
\*---------------------------------------------------------------------------*/
FoamFile
{
    version     2.0;
    format      ascii;
    class       volScalarField;
    location    "50";
    object      nut;
}
// * * * * * * * * * * * * * * * * * * * * * * * * * * * * * * * * * * * * * //

dimensions      [0 2 -1 0 0 0 0];


internalField   nonuniform List<scalar> 
18758
(
9.6982e-05
0.000821965
0.00671714
0.00860169
0.0142428
0.0119665
0.00112667
0.00671904
0.000769708
0.000508071
0.00130134
0.00436533
0.00672117
0.00041025
0.00266939
2.40614e-05
0.000742848
0.00671983
0.004178
0.000430969
0.00321968
0.00672582
0.00738111
0.00058506
0.000377575
0.00671877
3.66416e-05
0.0136603
0.00585498
0.000119789
0.000579689
0.00597922
0.00672353
0.00224713
0.000542248
0.00672363
0.0067245
0.00317325
0.00260913
0.00067637
0.00303868
0.000479172
0.0067376
0.000605035
0.000185176
0.00671623
0.00776014
0.00114153
0.00060446
0.00673518
0.000225494
0.0143259
0.00671698
0.00142274
0.0138287
0.00150954
0.00672427
3.1173e-05
0.00387795
0.00040095
0.000149746
0.00154446
0.000513443
0.00119055
0.00671688
0.00672383
0.000695189
0.00672344
0.00362853
0.0142491
0.0139253
0.00190862
0.00673626
1.156e-05
0.00672713
0.0037685
0.000883855
0.0142408
7.46574e-05
0.00586571
0.00846419
0.000350499
0.000398531
0.0128699
0.000800668
0.000812403
0.00234584
0.000569288
0.000168125
0.00409138
0.0125412
0.00391893
0.00225281
0.000474367
0.00890463
0.00232167
0.000836551
0.00672856
0.00673183
0.00457992
0.000372453
0.0131033
0.000587757
0.00031342
0.0039654
4.60312e-05
0.00790199
0.0143674
0.00175111
0.00171345
0.00201776
7.14701e-06
0.00671902
0.0026824
0.00822068
0.00232223
0.00377381
0.00281658
0.00497078
0.0101625
0.000561232
0.00506962
0.00643583
2.09414e-05
0.00012366
0.000172546
0.000606644
0.00050431
0.00260655
0.00673651
0.000761656
3.23763e-05
0.000898941
0.00014757
2.17635e-05
0.000851609
0.000849927
0.000752626
0.00673155
7.19216e-05
6.74403e-05
5.1491e-05
0.00331795
0.00229142
0.00324839
0.00420967
0.00246632
0.00358461
0.000587226
0.00873748
0.000211104
0.00338908
0.000817592
0.0067258
0.00968877
0.000869528
0.00562655
0.00116766
0.0023688
0.00672621
0.00672587
0.000417861
0.00200563
0.0020803
0.000152213
0.00665886
0.00363832
0.00629071
0.000135362
0.0117627
0.00911616
0.00671997
0.00209368
0.0140863
0.0004483
0.000556614
0.00760507
0.0012571
7.4421e-05
0.00265357
0.00671878
0.000230525
0.00218291
0.00675769
0.00145764
0.00081826
0.00580984
0.00329236
0.00673343
0.0057133
0.000144232
0.000502339
0.00181322
0.000605202
0.000308519
0.000548969
0.000408649
0.000143804
0.00672281
0.0067364
7.83152e-05
0.00120713
0.00037895
0.000519425
0.00672044
0.00033246
0.000599226
0.00672596
0.00315465
0.000535656
0.00671984
0.000317654
0.00219317
0.000367219
8.28311e-05
0.00745431
7.78409e-05
2.53507e-05
0.0067216
0.0110701
0.00671992
0.00185752
0.000728498
0.00359785
0.000199149
0.0005936
0.000431341
0.00017208
0.00675493
0.000425484
0.0067241
0.00055537
0.00807452
0.000863989
0.00672141
0.00585504
0.00675477
0.00671635
0.00651135
0.000484642
0.00672469
0.000320985
0.00842269
0.00196563
0.00774306
0.000419459
0.00086371
0.0067237
0.00885481
0.000335239
0.00672313
0.00707557
0.000874883
0.000307193
0.00311671
0.00058635
0.000496678
2.6153e-05
0.000392463
8.477e-05
0.00679057
0.000587007
0.0067209
0.000515312
0.00059929
0.000641576
0.00171358
0.00672043
0.00201478
4.97781e-05
0.00206856
0.00149709
0.000469857
0.00751206
0.00251983
0.0034896
0.000210016
0.000208561
0.000173467
0.00158692
0.00591509
0.00068409
0.000472621
0.0039696
0.000262482
0.000305895
0.00610212
0.000259917
0.00780703
0.00674886
0.00671658
0.000160066
0.00757419
0.000560794
8.6082e-05
0.000445327
0.000623256
0.00980931
0.00431019
0.0023505
0.012061
0.0067163
0.0130582
0.000236108
0.0033729
0.000469246
0.000361951
0.00251034
0.00672327
0.00231049
0.00607593
0.0067246
0.00119618
0.00998483
0.000193379
0.00672134
0.00674973
0.00414139
0.00180859
0.00675432
0.00498549
0.000999627
0.000129547
0.00031187
0.000671302
0.000455204
0.000413606
0.000157992
0.00678826
0.00672598
0.000492103
0.000193293
0.000214366
0.00798135
0.000519241
0.00187538
0.00678761
0.00228357
0.0136327
0.00675547
0.00671986
0.00675503
0.000964978
0.000190003
0.00037791
0.00492469
0.00196702
0.00673793
2.40037e-05
5.58507e-05
0.000377408
0.000100807
0.00213527
0.000515923
0.000103834
0.00052278
0.000284209
0.00507026
0.00405706
0.0012366
0.00672037
0.000383441
0.000978474
0.00703515
0.00078961
0.00674865
0.000483992
0.00364784
0.000871075
0.00213836
0.00366893
0.000496312
0.000428185
0.00252464
0.00336141
0.00113268
0.00486412
0.00241251
0.000516648
0.00125379
0.00158817
4.19227e-05
0.00312574
0.00672401
0.00489476
0.000503776
0.00078152
0.00310236
0.000662612
0.0059941
0.000530832
0.00460239
0.00672016
0.0033793
0.00374096
4.12107e-05
0.00243785
0.00672596
0.000924164
0.00987694
0.000490429
0.00671937
0.00838875
0.00526861
0.0036249
0.00671899
0.000555285
0.00543214
0.000570937
0.000115426
0.00660407
0.00573494
0.0141282
0.000680966
0.00672124
0.00127971
0.00353059
0.00671997
0.000713909
0.000611402
0.000149505
0.000475284
0.000528307
0.00672196
4.5244e-05
0.0112061
0.00945865
0.00861304
0.000530399
0.00162078
0.00671985
0.00672421
0.0019787
0.000480684
0.000728244
0.000979691
0.000258934
0.000847389
0.00160571
0.000615233
0.00382879
0.000543941
0.000158488
0.00128338
0.00393889
0.00604084
0.00672229
0.00449911
0.00046054
0.00215321
0.00051722
0.000558958
0.0001655
0.00284329
0.00387568
0.00142994
2.34156e-05
0.00545211
0.000194765
0.00021783
0.000387267
0.000953868
0.000481745
0.000416994
0.00175433
0.000316868
0.00287294
0.000485872
0.00146184
0.00250221
0.000662906
0.00063488
0.00104824
0.000574926
0.00671608
0.000729816
0.0067359
0.0025466
0.00466294
7.45177e-05
0.00672119
0.00502313
0.000887166
0.00672162
0.00673073
0.00671899
0.00942689
0.00207663
0.00785669
0.0007275
0.00155036
0.000366743
0.00672581
0.00672614
0.0139901
0.0067312
0.00672225
0.000378142
0.00672024
0.000221189
0.000370561
0.00672234
0.00523931
0.000427048
0.0013776
0.000755901
0.00837937
0.00120021
0.000197726
0.000765204
0.0067219
1.58239e-05
0.00173875
0.001965
3.39758e-05
0.00260419
0.000568519
0.0059917
0.000862094
0.001959
0.00455889
0.0040713
0.00300424
7.97214e-05
0.00672139
0.00866159
0.000499589
0.000503755
0.00674455
0.000204987
0.0131292
0.00311798
0.00406843
0.00248166
0.00255165
0.00395726
0.00672961
0.00672632
0.00653701
0.00116574
0.00684856
0.00516192
0.000270905
0.00130299
0.00672094
0.00673417
0.00112029
0.00672233
0.00150282
0.000956216
0.00265963
0.000539738
2.40647e-05
0.0067207
0.0136536
0.0131205
0.000231735
0.000301125
9.70513e-05
0.000523508
0.0010166
0.000925727
0.0140725
0.00102163
0.000765797
0.00313313
0.00277816
0.000586364
4.75833e-05
0.000617991
0.00108816
0.00120333
0.00393197
0.000436549
0.000407692
0.00153163
0.000109075
0.00191698
0.00875002
0.0013468
0.005026
0.00671923
0.00672037
0.0132977
0.00931736
0.00279892
0.000459428
0.000347582
0.0104269
0.00355129
0.00339086
0.000508285
0.00493052
0.0140871
0.000605979
0.00321362
0.000637699
0.0142805
0.00265081
0.00235759
0.00134995
0.00291158
0.00671866
0.00376868
0.00057004
0.0139363
0.00834487
0.00279279
0.00672264
0.000567815
0.00672604
0.00672532
0.0010434
0.00262825
0.000462493
0.000660248
0.000144932
0.0142433
0.000226975
0.00672112
0.000459643
0.000201176
0.0144688
0.000701902
0.000570835
0.000443342
0.00312555
0.000456334
0.0107842
0.00176346
0.00675875
5.01518e-05
0.0131846
0.000142404
0.00672021
0.00280348
0.000275436
0.000394332
0.00673538
0.000692778
0.0020552
0.0021778
0.001179
0.00672403
0.00768224
0.00672632
0.000520319
0.00487788
0.000394881
0.00141174
0.000596913
0.00716386
0.000595309
0.00239521
0.00146087
0.0056066
0.0106986
0.0015059
0.00407391
0.00413369
0.000569816
0.00672592
0.00038565
0.000570595
0.000198123
0.00672161
0.000652363
0.000759117
0.014031
0.00649925
0.00116228
0.000497807
0.000408767
0.000827368
0.00180712
0.00676803
0.00672656
0.00171959
0.000572492
0.00672207
0.000578396
0.0067238
0.00674035
0.00671987
0.0141997
0.00162441
0.00672567
0.000577222
0.000510308
0.00672176
0.00209624
0.00392821
0.00673961
0.000399697
0.000207834
0.00153328
0.00142015
0.000456523
0.000195921
0.000381334
0.00940872
0.000412718
0.00953537
0.000533749
0.000578608
0.00171686
0.00243495
0.00675633
0.0141091
0.000516476
0.00671802
0.00669254
0.00672129
0.00671987
0.000631386
0.00671974
0.000141981
0.0143971
0.00673374
0.00164918
0.004772
0.000632599
0.0106401
0.00672031
0.01337
0.00106255
0.00356896
0.006734
0.00672721
0.000435451
6.86288e-05
0.00186073
0.000232294
0.0109508
0.000556515
0.00672203
0.000822739
0.00163025
0.000584067
7.39856e-05
0.000388692
0.000599049
0.000870875
0.000423797
0.00171583
0.000407281
0.00671996
0.000906836
0.0021486
8.33116e-05
0.000406465
0.00233014
0.00425854
0.00131203
0.00672442
0.000542278
0.00108336
0.00671997
0.000698787
0.000326086
0.000487988
0.000454292
0.00762271
0.00819844
0.00672243
0.00672412
0.00398316
0.00672383
0.000305853
0.000593009
0.00138606
0.00672241
0.000391095
0.00672865
0.00371004
0.00102151
0.00031924
0.000151023
4.04326e-05
0.000222473
0.00672263
0.000669867
0.00775478
0.0067231
0.000569824
0.00142169
0.0143298
0.000922362
0.00945773
0.00671993
0.000579718
0.00672587
0.000625907
0.00317422
0.00153862
0.00112079
0.00672111
0.00679084
0.00672125
0.0112059
0.000283742
0.000936282
0.013391
0.0030393
0.000728838
0.000891863
0.00082039
0.00565473
0.00090344
0.00672729
5.40192e-05
0.00672329
0.00309974
0.000869251
0.00297711
0.00663764
0.000462327
0.00394987
7.34933e-05
0.00116143
0.00499521
0.000352827
0.00671997
0.000518174
0.00095994
0.00672367
0.0141924
0.00914332
0.00672226
0.00286336
0.000683538
0.000426473
7.75764e-05
0.00590679
0.0101586
0.000251024
0.00671956
0.00673005
0.0143976
0.00334885
0.0036038
0.000941159
0.00317019
0.0106649
0.000467537
0.00055557
0.0124395
0.000599729
0.000535051
0.00154195
0.00671948
0.00671602
0.00672005
0.00254876
0.00266698
0.000446106
0.00672247
0.00672662
0.00107931
0.00514715
0.000632403
0.000607599
0.000176024
0.0144218
0.000580859
0.000785245
0.000446914
0.00390964
0.000421433
0.00415249
0.00604571
0.000541113
0.00650872
0.00528159
0.00248421
0.00100662
0.000164216
0.0123367
0.0055704
0.000131147
0.000201266
0.00659412
0.0067204
0.000778373
2.2979e-05
0.000427172
0.00672023
0.0032358
0.000675333
0.00788019
1.92708e-05
9.37271e-05
0.00560354
0.00169244
0.00034357
0.00036456
0.00231196
0.000218703
0.00672628
0.00140505
0.000260889
0.00672272
0.00672111
0.00134867
0.000563265
0.00671928
0.00177324
0.00673766
0.00666454
0.000444552
0.00557386
0.00675276
0.000127006
0.00672456
0.000898752
0.000749238
0.000289379
0.00672646
0.00231885
0.000126284
0.000638825
0.000889358
0.00355308
0.000464831
0.00383229
0.00276024
0.0103772
0.000238163
0.00019725
0.00672262
0.00280171
0.0067224
0.000628375
0.00673493
0.000357196
0.00961234
0.0067202
0.00387741
0.000575827
0.00367635
0.00840353
0.00316955
0.00067562
0.00189347
0.00672332
0.00673507
0.00671995
0.000438667
0.00110482
0.000212563
0.00152521
0.00847682
0.00673154
0.00620934
0.00653048
0.00592771
0.0143249
0.00671957
0.000376013
0.000934274
0.00673257
0.00499769
0.00672226
0.00832838
0.00209811
0.00672388
4.24816e-05
0.000675962
0.00671997
0.000391654
0.000406083
0.00672227
4.20105e-05
0.00671934
0.000309877
0.00928084
0.000508477
0.00673198
0.00046652
0.000539097
0.000322233
0.000606886
0.00063069
0.00374258
0.00107178
0.000542524
0.00672669
0.00676149
0.00672079
0.000753242
0.000422564
0.00074981
0.00445548
0.000912482
0.000601309
0.00326434
0.000737529
0.00587458
0.00672793
0.00131178
0.000149038
0.00672506
0.00321097
0.00672489
0.00334331
0.00672824
2.99656e-05
0.0126536
0.00672295
0.00152341
0.00671995
0.000598314
0.00672024
0.00435228
0.00130037
0.0067257
0.00676597
0.00672267
0.000241662
0.00672018
0.0039749
0.0107574
0.00131098
2.48101e-05
0.000139791
0.0130089
0.000131439
0.00672559
0.00673026
0.000627498
0.00446785
0.000611085
0.00058839
0.000618548
0.000570497
0.00334576
0.000425723
0.00135192
0.00672195
0.000288417
0.0144644
0.00024357
0.00671977
0.00775055
0.000736842
0.00181408
0.00123865
0.000448384
0.006723
0.00676187
0.00678379
0.000659895
0.00672261
0.0052773
0.0115492
4.19459e-05
0.000744346
0.00672996
0.00021363
0.00045362
0.00672178
0.000589216
0.0003766
4.67688e-05
0.000615528
0.00293085
0.00146762
0.000654318
0.00672036
0.000215094
0.00194028
0.000253062
0.000445132
0.000464719
0.00528865
0.00053473
0.0125466
0.00957908
0.000376732
0.000201813
0.00245316
0.00672277
0.00672606
0.00184015
0.000331285
0.00672345
0.000957305
0.000332173
0.000657067
0.00671979
0.00672002
0.00384442
0.00672587
0.000420845
0.00309864
0.000503597
0.00672382
0.00268297
0.000319215
0.00672295
0.000914777
0.00677229
0.000402476
0.0014882
0.00529125
0.0104283
0.000219017
0.0121522
0.00299007
0.000509608
0.00523489
0.00790692
0.0106303
0.00673966
0.00064843
0.000461517
0.00672238
0.00671911
0.00162545
0.00348596
0.00672073
0.000263326
0.000362267
0.00672003
0.000798931
0.00672289
0.00115794
0.000605665
0.00672325
0.011108
0.000762635
0.00671994
0.000387897
0.000176885
0.000604558
0.00672617
0.000449741
0.00262027
0.0142848
0.00576389
0.00673535
0.00394342
0.00671767
0.0125824
0.00672005
0.00044418
0.00667019
0.0137576
0.00292018
0.00164342
0.00672102
0.00102669
0.000825748
0.000436822
0.00671565
0.00118981
0.00672613
0.00373044
0.000243747
6.81532e-05
0.000250492
0.00671992
0.00143723
0.000467169
0.00218761
0.000221392
0.00616958
0.00568935
0.00708314
0.00672162
0.00673623
0.00481667
0.0125218
0.00513054
0.00619283
0.0140942
0.00118209
0.00666607
0.000871871
0.00671776
0.00671984
0.000705257
0.00150418
0.00672501
0.00796953
0.00794769
0.0067203
0.00895569
0.000435759
0.00452952
0.00291953
7.20913e-05
0.00672479
0.00382024
0.000376964
0.00672005
0.000428892
0.00271898
0.000919764
0.00393959
0.00374783
0.000436648
3.09475e-05
0.00202715
0.00521385
0.00248895
0.00672078
0.000281369
0.00142775
0.0140846
0.00671778
0.00317688
0.00443507
0.00672587
0.000199058
0.00671745
0.00234826
0.00648595
0.000323355
0.000626978
0.000556231
0.000486852
0.00179227
0.0014719
0.000509724
0.000585877
0.00127944
0.00539541
0.00672818
0.00672316
0.00191254
0.00671979
0.000330741
0.00072938
0.000364623
0.00671985
0.000910864
0.00299808
0.00112658
0.00672002
0.000299324
0.00228642
0.00662961
0.00682431
0.0117734
0.00110801
0.00672184
0.00242633
0.000743016
0.00399178
0.000206302
8.46932e-05
0.00738654
0.000944031
0.0102113
0.00232507
0.00401189
0.0067204
0.00982479
0.00462677
0.00672075
6.06706e-05
0.0047105
0.00672398
0.00672136
0.00160668
0.000514819
0.00672401
7.99436e-05
0.0124636
0.0014692
0.00671856
0.00198724
0.0108059
0.00679223
0.000451772
0.00672618
0.00671955
0.00386821
0.00672808
0.000604883
0.00371788
0.00427731
0.00554159
0.0067273
0.000422911
0.00672196
0.00466917
0.00310604
0.00512971
0.000721899
0.00280002
0.000197273
0.00149729
0.0031373
0.0067241
0.00672491
0.0103497
0.00444535
0.000429025
0.000128757
0.00912913
0.0067197
0.00672485
0.00979532
0.00672232
0.000154558
0.000406311
0.0020897
0.0111243
0.0128044
0.000292794
0.00197555
0.000843582
0.000459837
0.00673313
0.00104872
0.00672063
0.000280137
0.00672195
0.0058262
0.000711208
2.52212e-05
0.000105931
4.2117e-05
0.00672553
0.0079283
0.00672389
0.0140707
0.000589695
0.00671889
0.00673555
0.00515305
0.000448737
0.000138404
0.0139991
0.00078267
0.00538495
0.00671782
0.00456522
0.00218674
6.65422e-05
0.000335832
0.00672304
0.00672573
0.000758749
2.54137e-05
0.00470417
0.000386102
8.48621e-05
0.00482332
0.00150692
0.0010418
0.000530117
6.27871e-05
0.00109126
6.79158e-05
0.00675226
0.00672099
0.00358408
0.000451984
0.000453085
0.000720823
0.00672625
0.00286585
0.000112971
0.000122678
0.0141383
0.0067312
0.00966563
0.0109659
0.00053644
0.0067177
0.00779998
0.000654829
0.00672009
0.000714943
0.00730275
0.00154549
0.00672005
0.000423131
0.00672572
0.00270882
0.00032973
0.00383054
0.00672602
0.00672675
7.13562e-05
0.000940101
0.00312099
0.000539508
0.00690902
0.000251685
0.00672551
0.00673137
0.000257409
0.00191629
0.00535641
0.00431112
0.000267665
0.00377322
0.000749508
0.010377
0.00260983
0.00453576
0.00341906
0.0138515
0.00673535
0.0136535
0.000178406
0.00647436
0.0103961
0.000467893
8.85127e-05
0.00672811
0.000373346
0.00672031
2.19274e-05
0.00671661
0.000667478
0.00251945
0.0067267
0.00748224
0.00260084
0.00336921
0.00141065
0.00666713
0.00672146
0.00672219
0.00621593
0.00548797
0.00678126
0.0067224
0.00161471
0.00672204
0.0067237
0.00050169
0.00672358
0.000442756
0.00675708
7.4302e-05
0.0038661
6.33862e-05
0.00685945
0.00114553
0.000504521
0.0067324
0.0067204
0.0029629
0.00377601
0.00876304
0.00373832
0.00672588
0.00672903
0.00111408
0.00672155
0.000798492
0.000761258
0.0106844
0.0123737
0.00345414
0.00794276
0.00678525
0.00926634
0.00676149
0.0118943
0.000624622
0.00213133
0.000763018
0.00673321
0.00726726
0.000600252
0.000512485
0.000845506
0.00330402
0.00672711
0.00671723
0.0105246
0.000654012
0.0031747
0.00671651
0.000732495
0.00672222
0.00194762
0.00267319
0.00549594
0.00925501
0.0005904
0.000461075
0.00497676
0.000850393
0.00672218
0.00547568
0.0067774
0.00604086
0.00249795
0.00489765
0.000251515
0.00703797
0.000312816
0.000627829
0.00146193
0.000470597
0.00238339
0.00196811
0.00995995
0.00720636
6.67957e-05
0.0124803
5.87316e-05
0.000499431
0.000574441
0.000789841
0.00673272
0.000290256
0.000979055
0.00672151
0.00908311
0.00674018
0.00302699
0.00672318
0.0142592
0.000615828
0.00672042
0.00517896
0.0061553
0.000115363
0.000103608
0.000497538
0.0024088
0.00454896
0.00672045
0.00603181
0.000532579
0.000118178
0.00671624
0.0126819
0.000750349
0.0133475
0.0067201
0.00317522
0.000157357
0.00666316
0.00672214
0.00458126
0.00652256
0.0137984
0.00160189
0.00671923
0.00200205
0.00672123
0.0135652
0.000478617
0.00672144
0.000482148
0.00496235
0.00179842
0.00856745
0.00676936
0.00639358
0.00672134
0.00678002
0.00673002
0.00317057
0.00671522
0.00197032
0.000593093
0.000521673
0.00672052
0.00267347
0.0013967
0.0143291
0.00189121
0.000205131
0.00961472
0.0134977
0.00466652
0.00076904
0.00672019
0.00555051
0.000629494
0.000617184
0.00793627
0.000438631
0.000437346
0.00258768
0.000984579
0.00672203
0.0110331
0.000169068
0.00683353
0.00358023
0.000433662
0.00107594
0.0067188
0.000754542
0.000742018
0.0067296
0.00769417
0.00672225
0.000786564
0.0067202
0.000399617
0.00029411
0.000619547
0.000589207
0.000597719
0.000683476
0.000825167
0.000796651
0.00676525
0.0132427
0.000397452
0.00672577
0.000316058
0.000518477
0.00085184
0.00610456
0.0017802
0.00672337
0.00674899
0.00382803
0.00997396
0.00104127
0.00672136
0.00242223
0.00672234
0.00672175
0.000636636
0.0143981
0.00200696
0.00217346
0.0105659
7.16448e-05
0.00371894
0.00230101
0.013648
0.000374386
0.00671658
0.00108979
0.00280531
0.00298683
0.000767021
0.00177583
0.000638967
0.000396736
0.00010041
0.00427124
0.0093495
0.00672226
0.0105388
0.00672585
0.00142948
0.00982279
0.0067235
0.00555832
0.00672599
0.000940391
0.000518056
0.00671963
0.000983364
0.00234426
0.000761898
0.000258983
0.00140149
0.00672141
0.00520427
0.00673591
0.000488396
0.00044745
0.00060675
0.00672275
0.00492571
0.0111119
0.00671926
0.00672024
0.00193459
0.00041593
0.000623507
0.000817979
0.000796078
0.00672836
0.00117772
0.00239458
0.00159702
0.0121182
0.00672375
0.000309531
0.0106078
0.000569209
0.0057661
0.000456171
0.00676247
0.00672422
2.873e-05
0.000294952
0.000470467
0.00672494
0.0061726
0.000650092
0.000586453
0.00379275
0.00113449
0.00490461
0.00247203
0.00672043
0.0037079
0.0118099
0.00671724
0.00636447
7.55148e-05
0.000919372
0.0067287
0.0107268
0.00838551
0.00675305
0.00672883
0.00552346
0.00195755
8.7744e-05
7.34408e-05
0.000420333
0.0067251
0.00121862
0.000468111
0.00672753
0.0123562
0.000366513
0.00488702
0.000477678
0.000503045
0.00672169
5.66588e-05
0.00672335
0.000128761
0.00156941
0.0010609
0.00671594
0.00478096
0.000858859
0.00320969
0.0110369
0.000581989
0.00319695
0.00337082
0.00671986
0.00673355
0.0114106
0.00672583
0.000255861
0.00672139
0.00673533
0.00044222
0.013632
0.00672039
0.00672159
0.00430219
0.00160842
0.000725943
0.000865499
0.00374533
0.00123104
0.00671906
0.00054373
0.0129706
0.0020173
0.000832353
0.00807162
0.000637798
0.00209327
0.000470961
0.00673197
0.00353605
0.000767278
0.00672132
0.000584361
0.0041253
0.00616319
0.00381694
0.0109566
0.00301753
0.00185588
0.0130191
0.000520936
0.00115722
0.00671919
0.00986238
0.00672594
0.00050903
0.00673909
0.000434507
0.00054409
0.000528652
0.00130656
0.00254332
0.000815553
0.00672456
0.00648298
0.00487419
0.00672164
0.00259294
0.00671983
0.000447658
0.00629907
0.000151418
0.000497723
0.00190771
0.00272382
0.01338
5.24941e-05
0.00671976
0.000985039
0.00672076
0.00671891
0.00672685
0.000783243
0.00477613
0.00161917
0.00168073
4.77603e-05
0.00274917
0.000580009
0.00672017
0.000158818
0.00662613
0.00278514
0.00124369
0.0120521
0.00367755
0.00071966
0.000788398
0.00673296
0.000652119
0.00559115
0.00293282
0.0067259
0.0067259
0.000934289
0.00672036
0.00672708
0.000441169
0.0010967
6.25993e-05
0.00274763
0.00672052
0.00683998
0.00672049
0.000500259
0.0059302
0.00671761
0.000721683
0.00672884
0.0140613
0.00459366
0.000766734
0.00551649
5.60402e-05
0.000528377
0.00215001
2.96591e-05
0.00672244
0.000205941
0.00234739
0.000886795
0.00672471
0.00672177
0.000667754
0.000568646
0.0109904
0.000506455
0.000216076
0.000714192
0.00261156
0.000639422
0.00211616
0.0115336
0.0125709
0.00237331
0.00572501
0.00671556
0.00383998
0.00777138
0.00672264
0.0108017
0.00672285
0.000866415
0.00671595
0.00398344
0.00448389
0.00472637
0.000754584
0.000181798
0.000416274
0.00498155
0.00672403
0.00671613
0.00672048
0.00671889
0.00672547
0.00672335
0.0117111
0.00809667
0.00914986
0.00117208
0.00539695
0.000492754
0.0122968
0.00491502
0.000528787
0.00672211
0.00191702
7.74988e-05
0.00174602
0.00884325
0.00254148
0.00170333
0.00671728
0.00104844
0.00916988
0.00672193
0.00925854
0.00470983
0.00672191
0.010702
0.00642557
0.000385089
0.00672324
0.00848411
0.0067588
0.00471957
0.000413277
0.00674367
0.00672207
0.00423576
0.00671829
8.76132e-05
0.00567527
0.000420374
0.00672034
0.00672435
0.00672876
0.00337612
0.000507705
0.00214056
0.0116412
0.00672161
0.00675335
0.000368962
9.36204e-05
0.00229271
0.00958893
0.0144605
0.000876069
0.00822483
0.00672199
0.00339381
0.000476078
0.00675261
0.00825076
0.00826448
0.00671968
0.00147197
0.00508182
0.0023558
0.00237483
0.000706372
0.00672302
0.000483237
0.000216293
0.000604915
0.000829484
0.00672049
0.00237715
0.00562175
0.00672427
0.0103603
0.00671531
0.00672382
0.000621909
0.00136592
0.000585463
0.00951995
0.00672013
0.000196468
0.00388947
0.00354543
0.00248529
0.00672556
0.00672322
0.00672914
0.00672194
0.00672333
0.00154745
0.00298643
0.00285908
0.00672574
0.00224526
0.0102076
0.00284453
0.00206171
0.0128612
0.00672418
0.000454355
0.00679702
0.000667981
0.0120603
0.000252792
0.0121623
0.000699449
0.00372497
0.00551957
0.000743314
0.00536887
0.000359543
0.00114353
0.00672473
0.00526325
0.00271755
0.00674581
0.000321486
0.00558351
0.00674541
0.00639548
0.000251277
0.00671934
0.00440447
0.0067404
0.00313315
0.00903505
0.00251984
0.00672073
0.0045742
0.00672222
0.00133288
0.000171003
0.00152967
0.000334728
0.000177658
0.00672411
0.0107933
0.000916218
0.00515294
0.00576834
0.00674861
0.000648958
0.00672068
0.0020027
0.0017673
0.00954734
0.00384469
0.00671964
0.00155691
0.00228493
0.000734141
0.00673018
0.00290945
0.000513951
0.000180354
0.000865063
0.0129775
0.00054927
0.000905979
0.00955673
0.00301768
0.00672056
0.00118856
0.00978192
0.000695621
0.000366142
0.00273469
0.00671981
0.0003509
0.000231287
0.000546757
0.00672664
0.000241764
0.00673392
0.000345293
0.000229948
0.000503104
0.012702
0.00672029
0.000572911
0.000497427
0.00374651
0.000306828
0.00506785
0.00105875
7.07238e-05
0.000387394
0.00489726
0.00672633
0.00672483
0.000445736
0.00671865
0.00349186
0.00521479
0.00672129
0.00675571
0.000212513
0.00671584
0.000360999
0.0105253
0.0016221
0.00673589
0.0067495
0.000267813
0.000253312
0.0067225
0.00539803
0.000120504
0.00672782
0.00671771
0.010835
0.0107858
0.00671895
0.000480385
0.000226197
0.00672205
0.00395165
0.00352978
0.000304488
0.00672482
0.00246716
0.0140407
0.00672532
0.000777667
0.00752766
0.000511925
0.00375092
0.00672499
0.000662759
0.0112865
0.00792229
0.00113793
0.000587523
0.00146799
0.00068513
0.00247197
0.00457924
0.0106179
0.0102703
0.00226432
0.00307624
0.000632345
0.00428101
0.00031527
0.000941252
0.00259205
0.00675932
0.00672374
0.00564643
0.00436599
0.00672006
0.00058886
0.00747086
0.000432603
0.00672693
0.00672203
0.00158942
0.00109092
0.00115891
0.00672303
0.000692946
0.0062691
0.00671839
0.00413759
0.00074348
0.000533162
0.0067223
0.000595422
0.00173866
0.00104021
0.000442877
0.00041711
0.00876078
0.000427894
0.000158795
0.00518446
0.00672009
0.00408501
0.00139078
0.0115509
0.00101987
0.00124995
0.0067242
0.00824032
0.000678328
0.00673297
0.000796616
0.00191145
0.0143248
0.000470991
0.000814488
0.000174968
0.000516521
0.00672317
0.00672432
0.00672501
0.00122609
0.00849374
0.000674721
0.006722
0.000702414
0.0046864
0.0116105
0.00466709
0.0119222
0.000844187
0.0102735
0.00050385
0.000138083
0.00403944
0.00672561
0.00672011
0.0131532
0.00424115
0.000683992
0.00202999
0.00671549
0.00296929
0.000312909
0.00483185
0.000498962
0.00672141
0.00492976
0.00713014
0.00111879
0.00462225
0.0055341
0.00672489
0.0014248
0.00147401
0.00176787
0.00370241
0.00337543
0.000525903
0.00315943
0.00225037
0.00027088
0.000207252
3.62385e-05
0.000395626
0.00673654
0.00420629
0.00147016
0.00937192
0.00524077
0.00672043
0.00672984
0.00673995
0.00671559
0.00360933
0.00671934
0.00020886
0.00739853
0.000780401
0.00967186
0.000690393
0.00672446
0.00672252
9.72484e-05
0.00672395
0.00229499
0.00672076
0.00687624
0.00183778
0.00671963
0.00226882
0.00673424
0.00595561
0.00672591
0.00672124
0.00593066
0.000281542
0.00191544
0.00502259
0.000379895
0.00673055
0.00771823
0.00057308
0.000493871
0.000776203
0.00159056
0.00672186
0.0126243
0.00271664
0.000520328
0.00117508
0.006737
0.000354414
0.00672095
0.0114659
0.0067399
0.00575468
0.0144349
0.00049513
0.00232284
0.00671886
0.000567094
0.000262017
0.000355062
0.0104811
0.00671953
0.00673626
0.00674173
0.000125642
0.00123946
0.000499943
0.00672251
0.000779029
0.00690607
0.000751864
0.00672372
0.000142859
0.000559992
0.0040566
0.000936802
0.00197273
0.00151418
0.00913961
0.00566214
0.00231365
0.0108187
0.00675291
0.000534516
0.00560885
0.000135551
0.0143316
0.00644073
0.00435619
7.77604e-05
0.00672411
0.000412353
0.00672445
0.00190867
0.000469127
0.000368591
0.000289266
0.00672096
0.0006642
0.00190541
0.000334437
0.00058141
0.0132928
0.00672105
0.00192283
0.00686234
0.000260789
0.00529473
0.00108809
0.00955726
0.000580558
0.00672201
0.000170723
0.00390621
0.0127117
0.00672676
0.0124473
0.000639625
0.00677258
0.00030742
0.0022724
0.00672597
0.00258014
0.00645147
0.00672049
0.00179871
0.00671899
0.00263477
0.000580975
0.00051263
0.000925402
0.00745777
0.0067258
9.35488e-05
0.000324886
0.00216384
0.000921671
0.00091712
0.00310311
0.00672476
0.00736757
0.00826495
0.00284986
0.0067558
0.000679455
0.00672281
0.0118744
0.0067221
0.000500207
0.00605572
0.00327538
8.47195e-05
0.00356115
0.000657948
0.0084816
0.000483006
0.00672185
0.00672249
0.00672519
0.0130813
0.000664526
0.000523276
0.0100048
0.00277948
0.00672405
0.00774411
0.000366883
0.000375721
0.00672383
0.00559273
0.00524023
0.000423445
0.00291944
0.000665734
0.00676223
0.00672218
0.00671938
0.00814161
0.00826748
0.000927571
0.000258447
0.00140982
0.000490845
0.00672978
0.00672593
0.000582379
0.00262587
0.00650039
0.000569562
0.000146574
0.00100886
0.000256206
0.00281405
0.00061366
0.0132457
0.00239573
0.0067812
0.00288735
0.0130781
0.000319204
0.000142263
0.000592407
0.0060534
0.00475344
6.58501e-05
0.00134439
0.000459039
0.006612
0.000412847
0.0100336
0.00260813
0.00727563
0.000652443
0.00183787
0.00671968
0.000643139
0.0109609
0.00672563
0.000300866
0.0066611
0.00672223
0.000550693
0.000288891
0.000563733
0.00580613
0.000431256
0.00221492
0.00672234
0.00677603
2.40282e-05
0.00270252
0.000624428
0.000849238
0.0067192
0.00672386
0.00306264
0.00521889
0.00672723
0.000709576
0.000619532
0.00080172
0.00672096
0.000317039
0.0037391
0.0107205
0.00105563
0.00694621
0.000501335
0.000163154
0.000222677
0.00314563
4.6078e-05
0.000237967
0.00673721
0.00639342
0.00184588
0.00125499
0.000673281
0.0088281
0.0067244
0.00320796
0.000239482
0.000254281
0.00392873
0.000727419
0.0117034
0.000568984
0.0100366
0.000563941
0.00911423
0.00063095
0.00588024
0.00243477
0.0101882
0.00986999
0.000582227
0.00872385
0.00607822
0.00790671
0.0092725
0.00672052
0.00671684
0.000427224
0.000609397
0.00689102
0.00254809
0.000192696
0.00671784
0.00472953
0.00672443
0.00688902
0.000565171
0.0099462
0.00155968
0.00206101
0.000600029
0.00743979
0.00105375
0.0126725
0.00672648
0.0067251
0.000625466
0.00672358
0.00805707
0.000331298
0.0119868
0.00267946
0.00589365
0.0095633
0.00671556
0.000253316
0.00807492
0.000144222
0.00671778
0.00135241
0.00672052
0.0109194
0.00671597
0.00181226
0.00870999
0.000954445
0.000150085
0.000459954
0.0067178
0.00198508
0.000320661
0.00331833
0.00675821
0.00671909
0.000930993
0.00634401
5.22367e-05
0.00672521
7.21335e-05
0.00613044
0.00672234
0.00318054
0.00566031
0.00681963
0.00464974
0.00672141
0.000604736
0.0102874
0.00649467
0.00672344
0.00235144
0.000510664
0.000897095
0.00671873
0.0139317
0.00317465
0.00814357
0.00672024
0.00720659
0.00470536
0.000605037
0.00615609
0.000589576
0.000400457
4.37482e-05
0.0062766
0.000152459
0.00227148
0.00917936
0.00178737