/*--------------------------------*- C++ -*----------------------------------*\
| =========                 |                                                 |
| \\      /  F ield         | OpenFOAM: The Open Source CFD Toolbox           |
|  \\    /   O peration     | Version:  v2012                                 |
|   \\  /    A nd           | Website:  www.openfoam.com                      |
|    \\/     M anipulation  |                                                 |
\*---------------------------------------------------------------------------*/
FoamFile
{
    version     2.0;
    format      ascii;
    class       volScalarField;
    location    "700";
    object      ddt0(omega);
}
// * * * * * * * * * * * * * * * * * * * * * * * * * * * * * * * * * * * * * //

dimensions      [0 0 -2 0 0 0 0];


internalField   nonuniform List<scalar> 
18758
(
0.000290323
-0.109276
2.18161e-05
0.000362831
0.000184757
-3.98889e-05
-1.69334e-05
-6.70594e-05
0.000173687
0.000272046
-0.0650811
0.0559255
-0.136063
6.77471e-07
-1.56358e-05
-2.08877e-05
0.0441513
-2.58421e-06
-1.68102e-05
-0.000248365
-0.0216538
-0.00759607
-4.57508e-05
-2.75859e-05
0.0241428
-0.00749526
0.325439
-0.0055857
0.00212186
-0.0940856
-0.461209
0.571523
-6.19034e-05
0.375933
0.000258952
-0.0633413
-0.186403
0.000175538
-0.723186
3.34434e-05
0.023693
0.000238543
0.0124486
0.000169765
-2.19385e-05
-0.570565
0.000280102
0.00265021
-1.5246
0.000253116
-0.0378407
-0.482821
0.000336531
4.14693e-05
-0.00165105
-0.238665
-2.05585e-05
-0.000205733
0.00293435
-1.96334e-05
-2.24734e-05
0.000159358
0.149155
-0.461315
-2.24064e-05
1.36892
-9.34971e-06
-6.2202e-06
-0.00445515
-2.92802e-06
-0.542083
-0.0140804
-1.28754e-05
-0.000599334
0.00381303
-0.507123
2.28878
0.0273348
0.000238619
0.00764123
0.000764816
-0.572714
0.023148
-0.000996363
0.000287292
-0.00171663
0.000159735
-0.000720138
0.181613
-0.00164734
0.263522
-3.4136e-05
0.00111597
-1.63278
-1.33849e-05
-1.23655e-05
-2.77479e-06
0.00195517
-0.0119673
-1.15616e-05
-0.480112
-0.000921894
-6.31267e-06
-1.1609e-05
1.6734
-0.02979
0.00206799
0.215056
1.0134
0.224355
-2.00351e-05
-0.878019
-0.00025162
2.08243e-05
-0.000972263
-1.90277
0.00202411
-6.10332e-06
-3.96495
0.000410546
7.22243e-06
2.1342
0.00030098
9.68642e-06
-0.00448844
1.75366e-05
9.93789e-05
9.90686e-06
-0.000144913
0.636833
0.00249705
-1.55795e-05
0.000145589
0.426573
5.33042e-05
-1.03576e-06
1.0435
0.000248494
-0.00123239
0.00120776
-0.000847107
-0.0596975
0.00152506
1.59679
0.168502
0.00113976
1.25888
0.000810342
-0.0878602
-2.09378
0.84408
-0.234949
-1.50423e-05
0.000524561
0.0389863
0.0170602
0.00101405
-0.000410953
-0.000901034
-0.0772745
0.2356
2.4521e-05
-1.87089
1.22749
-0.676791
6.31931e-06
2.3169e-05
0.263195
0.710474
0.102272
-0.634451
1.9959e-05
0.00206703
0.0238481
0.4072
-1.44474e-05
-1.49636e-05
-0.000750544
0.565909
-9.44721e-06
-5.74155e-06
-3.42351e-05
-0.00121555
9.48682e-06
-0.939498
-1.65576e-05
-0.0981885
-0.000900363
-1.41851
-0.453894
-0.272434
-1.60166e-05
0.00231394
2.35026
-3.83401e-06
2.94751e-06
-0.0223731
-1.53889e-05
-0.862173
-1.35529e-05
0.000156994
-0.00174798
1.83588
-2.23409e-05
-2.29971e-05
-2.03907
-4.22302e-05
0.000609441
0.814514
0.264745
-9.05576e-06
0.00127137
0.000216922
-1.09014e-06
-0.000131774
-2.46436e-06
-2.42522e-05
0.00125998
-2.12461e-05
-0.00380685
2.60728
1.16743e-05
0.00152261
-0.000163126
1.70519
-0.0602891
0.00655196
-0.00237738
0.284287
-3.91983e-05
-0.00708628
0.00117439
0.129176
4.40736e-06
-1.54706e-05
1.60561e-05
0.00563443
-1.13208
-0.0223949
-3.34263e-05
-2.00942e-05
0.00444451
-0.00539603
-1.50752e-06
-6.22802
-0.0114387
-1.53744e-05
-1.22716e-05
-6.44891e-05
-1.36552e-05
-0.750869
0.000112788
-0.0705626
2.87665e-05
-9.0865e-05
-0.0618773
-1.12858e-05
-0.0107557
-2.45584e-05
-0.156862
-0.00045364
1.27491e-05
-1.75193e-05
0.00230977
0.148493
-0.418736
1.35506e-05
-0.0146361
-1.53297e-05
-1.1494e-05
-1.02494
0.701376
-1.06804e-05
-3.76876e-05
0.00203584
-0.000116015
0.000185468
-1.72489e-05
-1.07974e-05
-2.38432e-06
-1.2397e-05
-2.58996e-05
-2.0665e-05
0.916238
-1.57254e-05
-3.39273e-05
-1.55295e-06
-0.0016717
-1.27042e-05
-1.18956e-05
-1.70792e-06
-1.04365e-05
-1.86386e-05
-4.34824e-06
-6.83236e-06
-7.43942e-05
-0.050399
-4.40436e-05
-3.25425e-05
0.241233
9.22183e-05
7.78785e-06
8.21297e-06
-0.605628
-0.00812274
-5.72158e-06
0.0263555
-0.0381507
0.000186158
-0.188786
-2.0184e-05
-0.198926
-0.010903
0.00117245
0.00268146
-0.70762
-6.2011e-06
0.100164
-0.00403141
-1.06254e-05
0.00153455
-0.00121817
-4.72754
-1.45785e-05
-6.14801e-06
0.413741
-0.00793893
-1.7621e-05
-0.310598
0.00247947
-0.00189309
0.339847
-1.45222e-05
-1.62663e-06
-2.41263e-05
2.09808e-05
8.17411e-06
-0.000199464
-6.28959e-05
-4.11236e-05
2.40199e-06
-3.13974e-05
0.94905
-0.242213
0.000209892
0.115166
-0.11156
-1.54575e-05
0.000809192
-0.00157643
0.112177
-0.13108
-0.033886
-1.64819e-05
-0.608317
-0.287133
-0.00102103
-2.99004e-05
-0.00201612
-1.08947e-05
0.00013974
-0.00934139
2.57798
-0.0909496
0.028016
1.38518
-1.55104e-05
0.000223014
-7.87681e-05
0.00215776
-1.37011
-0.315
0.0425323
-0.499963
0.00912303
-0.0018678
-7.70847e-05
1.6388
0.000631336
-0.0217467
-0.093088
-1.27005e-05
-2.79801e-05
-0.00316207
-0.129177
-0.10539
-0.458048
-0.155551
-3.45839e-05
0.0805942
0.168738
-2.09433e-05
-1.09419e-05
-9.02572e-05
0.000248639
4.678e-06
-2.07597e-05
-1.61096e-05
-2.56149e-05
5.68082e-07
-2.27242e-05
-6.43551e-05
-0.406085
0.000376294
-0.605391
-0.59899
0.706699
-0.398571
9.03369e-05
-7.88268e-05
-3.19434e-05
0.023173
-1.38836e-05
-3.86898e-05
1.15179
0.00222827
-0.000513187
-4.07e-05
0.762401
-2.13757e-05
9.98281e-05
-5.09225e-06
0.536862
0.0947899
-0.122552
-6.27368e-06
0.321101
0.000803515
-2.32962e-05
0.000219622
-1.3733e-05
0.000779191
-8.73335e-06
-3.79968e-06
-0.711638
0.000391875
-3.89873e-05
-1.43948e-05
-7.74626e-05
-0.000137204
-0.712064
-0.0321234
-8.39129e-05
1.64338
-4.92622e-06
-0.000198186
-0.00221193
-2.25437e-05
-0.535109
-3.31082e-05
-0.000144861
1.88248e-05
-0.177015
-5.90583e-05
-1.72595e-05
-0.819248
-0.0142754
-1.70548e-06
0.000225143
-3.16298e-05
-2.22244e-05
1.36651e-05
-2.60503e-05
0.209559
0.160342
-1.53201e-05
0.00116177
0.973954
-0.000955642
-0.131888
-0.00996057
-0.112902
6.18178e-06
0.00106215
0.00285788
-0.000598634
-6.65723e-05
-0.0163417
0.00216097
-0.000910917
3.53987e-06
-1.64332e-05
-1.22297e-05
-2.27627e-05
-1.32182e-05
-2.55029e-05
-0.0619302
3.93834e-05
-4.02975e-06
0.000603578
-2.50836e-05
1.63443e-05
2.17136e-05
-5.3746e-05
0.00165964
-0.0302002
-3.95111e-05
-0.0210805
-6.82289e-05
0.000413143
-6.17478e-05
0.0649867
-0.705493
-2.28131e-05
-1.67751e-05
0.140734
0.412696
0.00836668
-3.67348e-05
0.0454296
0.959729
-1.54474e-06
-6.12869e-05
0.34068
-0.000153
0.000858297
0.00686191
0.000258064
0.00117358
-1.28824e-05
-1.1775e-05
-2.54559e-05
-4.39785e-05
-3.88219e-05
-2.35566e-05
-0.121604
-5.2891e-06
-0.0886357
1.51491
-1.70364e-06
-5.31279e-06
4.62645e-05
0.000229954
-0.000592328
-0.0341512
-1.12433e-05
-0.41476
-3.42478e-05
-0.000625584
4.85173e-05
-4.10228e-05
-9.40292e-05
-1.84175e-05
-1.71237e-05
0.0683925
-1.85906
-1.239e-05
-3.74677e-05
-1.11696e-05
0.251964
-5.41662e-06
-1.97727e-06
-2.61527e-05
-4.19575e-06
-3.17663e-05
4.39619e-05
-5.75067e-05
-2.19271e-05
0.00243283
-1.27309e-05
6.71269e-05
0.00222487
0.0206028
-0.000422706
0.000100498
-1.43605e-05
1.81465e-05
-1.4709e-05
0.000321053
-0.000555721
0.00692939
-8.14729e-06
0.75546
-1.46684e-05
0.000856862
0.000121967
-1.90061e-05
0.00114432
-2.85451e-06
-4.44264e-05
0.393267
2.1644e-05
5.92085e-06
0.013882
1.11209e-05
-1.74467e-05
-0.316578
8.32199e-07
-0.0804519
-0.00740482
2.75662e-06
2.00656e-05
-0.00109649
-0.000123123
-0.000569088
-1.44879e-05
-0.226021
0.799337
-0.100485
-1.2858e-05
0.408272
-3.17442e-06
-1.16311e-05
-1.49073e-05
6.35234e-05
-0.558016
-0.0433586
5.2974e-05
4.63896e-06
0.000375764
2.03493
0.0144284
-1.81891e-05
0.0572102
0.000100168
-0.997758
0.000187719
-0.00467933
-1.55219e-05
5.40068e-06
0.00218528
2.83519e-06
-1.51155e-05
-5.49987e-06
-1.53743e-05
0.000103846
-0.0156507
-0.0717178
0.361027
0.000293566
-1.58309e-05
-1.26509e-05
-1.15214e-05
-0.551916
-0.0351383
3.06948e-05
0.00167705
-0.103874
0.0739072
-1.31234e-05
-5.61442e-05
-0.000719023
-0.200661
-2.90353e-06
-0.00116811
-1.37949e-05
-3.07249e-05
0.000589044
-2.42886e-05
-1.70669e-05
0.000219555
-1.28573e-05
0.000242664
-0.0131173
0.00124653
-0.0977197
3.74185e-06
-3.40162e-05
-2.50911
-1.66636e-06
-1.94515
-0.103591
-1.45572e-05
1.13843
0.00033081
0.000116783
1.14474
0.00110202
0.0101527
0.397761
-0.000107202
0.56179
-5.11314e-06
2.54506
0.665812
-0.000734531
3.91137e-05
0.142594
8.67939e-05
-0.000396489
0.00801421
0.139268
-1.45526e-05
-0.163582
-1.27347e-05
0.00173386
0.00218697
1.37919e-06
0.000637814
2.06339
-0.0607772
-0.000551465
-6.7496e-05
-3.97913e-06
-2.88205e-05
-5.65654e-05
-0.000738377
0.0133493
-4.21189e-05
-3.85445
-2.61165e-05
-1.40715e-05
0.000241298
-5.06538e-06
0.0355684
-2.1166e-05
-1.51133e-05
-4.03723
-1.19612e-05
-1.82832e-05
-0.0580634
0.000941938
0.00037417
-1.6198e-05
-6.73819e-06
0.0022534
-7.13563e-06
-0.180455
8.45887e-05
-0.00017546
-1.84145e-05
-1.88995e-05
-3.36463e-06
0.298501
-5.02274e-06
-0.206153
-0.00469754
-7.88803e-06
-0.168279
-1.87141e-05
-0.00258417
-0.00051141
0.139535
7.36266e-05
0.036227
0.0750732
-3.54604e-05
-0.052942
-4.29251e-06
-0.000289545
-6.28134e-06
-1.83266e-05
0.884001
-0.0711444
-2.24326e-05
-8.51825e-06
-7.4705e-05
-1.8481e-06
-1.61789e-05
0.0197836
0.253868
4.56201e-05
-2.02854e-06
-4.28974e-06
-0.366005
-0.00529198
-0.192634
-1.25796e-05
0.0482905
-1.80597e-05
-8.27632e-06
0.000424064
0.0303518
-1.93167e-05
0.0016727
-0.0440286
0.00110675
0.0873089
-1.59469e-05
0.000138588
-1.89187e-05
5.92655e-06
0.000231888
-1.43795e-05
0.00221424
-2.34097e-05
0.540235
-1.18743e-05
9.27611e-05
0.00278173
-0.0608352
0.00176556
-3.54253e-05
-1.94303e-05
0.0283099
0.0516682
-0.0017158
-1.33459e-05
-1.27233e-05
-0.000595267
-0.793863
-0.0729555
3.60819e-05
-1.8181e-05
-4.45337e-05
-9.38461e-06
0.00024942
-1.58763e-05
1.19677e-05
-0.115693
-2.03568e-05
-1.63942e-05
0.0647482
-1.27595e-05
-0.0155998
-0.00128847
1.36295
-1.41449
-0.0105676
0.223996
-1.57836e-05
-1.24806e-05
-0.000110798
3.1018e-05
-1.72784e-05
4.19337e-07
7.2479e-06
-2.46252e-05
-0.0606312
0.00025378
-0.0334228
-0.000111858
-1.33418e-05
9.41565e-05
-0.000120305
0.00244219
-1.06848e-05
1.43933e-05
1.10939e-05
0.272408
1.89718
-0.0886117
1.96949e-06
0.00229862
2.61044e-05
0.081964
-0.748687
0.248999
-5.62087e-05
0.0032685
0.000109484
0.0896082
-1.39181e-05
-3.14378e-06
0.00245218
-0.0959405
-1.69913e-05
-0.029973
0.0339633
-1.99559e-05
-1.55504e-05
-2.37451e-05
-1.24729e-05
-1.34237e-05
-1.66173e-05
0.0005589
-1.55018e-05
-1.2868e-05
0.753617
0.127612
-1.60248e-05
-0.0258121
0.000575633
2.05215e-05
6.70918e-05
2.4415e-05
-3.25203e-05
-3.57005e-05
2.76575e-05
7.73234e-06
-1.82797e-05
-2.44727e-05
-1.49458e-05
0.916361
0.000206431
1.00493e-05
-7.95731e-06
-0.568346
-1.50274e-05
-3.61042e-06
-0.15819
-1.83564e-05
0.0010216
0.000235171
-1.53023e-05
-1.246e-05
3.53116e-06
-0.000281189
0.000907506
1.38527e-05
-0.00802724
0.00249542
0.00172489
0.301281
-3.87713e-05
-0.175486
-5.1112e-06
-0.00561887
-8.26298e-06
-1.10228e-05
0.000642286
-0.0642341
9.43408e-06
0.0105487
-0.0110834
-1.44677e-05
0.000496445
-3.92261e-06
-2.46014e-05
0.000136266
3.28572e-05
-1.24418e-05
-0.00700613
-1.11497e-05
-3.88883e-05
0.213002
6.20813e-05
-2.25725e-05
-1.25997e-05
0.960128
-7.54863e-06
-4.64173e-05
0.000501126
1.01346
-0.0708298
-0.041688
-0.156803
-1.33091e-05
-4.62329e-06
-1.47081e-05
0.116064
4.12099e-05
-1.06663e-05
1.61363e-05
1.32403e-05
-0.00373315
-1.4481e-05
-1.29093e-05
0.816551
-1.60876e-05
0.000555317
-0.43335
-4.52528e-06
-1.49607e-05
1.2261
-9.77434e-05
0.653344
-0.759818
-1.15092e-05
-1.58353e-05
-0.0225995
-1.2996e-05
2.61685e-05
-0.0980539
-1.59298e-05
-0.0239514
-2.24689e-05
-9.16031e-06
-1.59544e-05
-2.10721e-05
4.02643e-05
0.0234933
-2.91257e-05
-1.43865e-05
-0.0833268
0.0835136
0.000960139
-0.000124039
0.00113604
-0.939244
1.5973
-2.62759e-06
-0.827312
1.61601e-05
0.318238
0.668716
1.08598e-05
-0.000129763
-1.58372e-05
-0.181118
-1.35663e-05
-0.132928
6.24156e-05
1.86541
-0.00133755
6.81676e-06
-3.9147e-06
-1.50267e-05
-0.00250734
-0.00663713
-1.52871e-05
-0.0208389
-1.72112e-05
-1.95955e-05
-0.0193882
-1.75195e-05
-0.0047621
-1.3944e-05
5.28605e-06
-1.46084e-05
-1.14661e-05
-1.4913e-05
-1.34807e-05
0.000695719
-0.00031307
-0.000929615
0.000847209
1.61706e-06
-1.61677e-05
0.1477
-2.27932e-05
0.0462314
-2.50319e-05
0.0254455
0.000227736
-0.10365
-4.52104e-05
-5.36281e-05
-1.60008e-05
0.252164
-5.50736e-05
-0.102897
0.00061001
-2.26786e-05
0.000213742
-2.37196e-05
-1.19925e-05
-5.93208e-05
-3.43942e-05
0.0916356
-1.751e-05
-6.38627e-05
-1.22043e-05
3.82986e-06
0.280498
-0.000979795
-7.61851e-06
-1.38178e-05
-0.000143159
-1.16133e-06
-1.60753e-05
-9.797e-05
-1.10329e-05
-1.50462e-05
6.21284e-07
1.80173e-08
-0.00337513
0.00154473
1.62227e-06
8.80932e-06
-0.465834
-6.57507e-05
-0.0491442
2.51112
-2.04544e-05
-2.15402
-5.34526e-06
4.05861e-06
-8.6615e-05
-0.000118642
-0.0458645
-6.85554e-06
0.00094589
-0.0818336
-0.000218336
-0.386747
0.399588
0.188403
-0.000800573
-1.23107e-05
-1.4813e-05
0.222574
1.35266e-05
6.7876e-06
0.000609853
-0.00152564
8.78478e-06
4.01396e-06
-0.475862
6.44293e-05
-5.17777e-05
-0.000717953
1.73119e-05
-5.76305e-05
-1.40441e-05
8.6531e-05
-1.36494e-05
-0.0006291
-0.000126894
-1.71991e-05
1.01607e-05
0.0312952
-1.66051e-05
-1.74969e-05
-0.0897837
-3.98004e-06
9.4634e-06
-6.71876e-06
-2.20579e-05
-6.23729e-05
0.0669472
0.000947225
0.179179
-0.16094
-0.939391
-0.0182627
-6.11325e-05
-0.0551241
-0.0957119
-4.68818e-06
-1.24854e-05
-4.14004e-07
-1.3906e-05
-2.39257e-05
-6.16572e-05
0.00960897
-0.0360706
6.57778e-06
-3.62446e-06
-0.00186579
-0.000104344
-0.0292754
1.15948e-05
-1.17997e-05
-1.51217e-05
-0.0613494
-0.0473824
0.000551554
0.685493
-1.25483e-05
-1.49058e-05
0.00224852
-0.0005555
-1.45054e-05
0.00720477
1.13515e-05
-0.000177734
-0.176423
-0.000693054
-0.000508106
-7.63637e-06
-1.29144e-06
-2.36444e-05
-1.43184e-05
-0.0939163
0.00101475
0.28307
-0.0120027
-3.36329
6.83715e-06
-1.67257
0.193278
0.362501
-0.000556515
-0.00942215
0.000247772
0.00394923
0.00109937
-0.000811655
-2.46397e-06
-1.35339e-05
-5.35094e-06
-0.00182658
-1.26752e-05
-6.81454e-06
0.0111238
0.265401
-0.0691486
-0.0372326
0.00180332
-0.0873875
-0.00100456
-0.000152798
-1.70297e-05
0.253516
-0.0147544
-4.86547e-05
0.00054059
-0.607818
-0.728786
-0.060535
0.000812761
0.0017783
-4.78045e-06
0.736554
-1.61124e-05
-0.089027
0.0609738
-0.000842682
0.000396806
0.000824447
-1.635e-05
-1.28924e-05
-0.0274296
0.0158054
-0.00223962
1.28752e-05
-6.52764e-05
-7.59028e-05
-0.0622982
-6.64572e-05
-0.0461222
-1.82258e-05
-0.0667246
0.000893611
-0.000371202
-0.756927
0.00583
0.189677
-4.78101e-06
-0.000892625
0.247882
0.000389021
-2.08905e-05
0.258262
-0.0233976
-1.38412e-05
-2.24252e-05
-0.0661914
0.000198413
0.000222654
-0.0137562
-0.336683
7.28348e-05
0.000486329
-0.275029
0.000627332
-0.00013038
-0.000110016
0.0222234
-0.000366701
-1.90507e-05
-1.34675e-05
0.051265
-1.15936e-05
-4.4908
-4.09875e-06
-1.2591e-05
-0.0679986
0.000166444
-1.26945e-05
0.0184083
-3.4167e-06
-8.3051e-06
4.49585e-06
-1.42617e-05
-1.8529e-05
0.000565313
-7.3848e-05
-0.032589
-0.00154611
-0.0618155
0.469657
-7.63146e-05
-1.10492e-05
-1.22045e-05
0.279887
0.000151756
4.01496e-05
-0.0278512
0.000501704
-0.0382733
-2.73112e-05
-5.19297e-06
-1.1673e-05
-3.17012e-05
5.54588e-06
-8.88463e-06
-5.57409e-05
-2.53633e-05
-1.71511e-05
-0.00622346
0.00578869
-0.0589112
0.000222086
6.31535e-06
-8.52278e-05
1.71062
0.0720406
-0.224477
1.06302
-0.0996858
-0.0216658
0.186585
0.00030125
-0.00106556
0.0017876
-0.517262
-1.39869e-05
-0.0764617
-0.0334397
-0.00166396
-1.43485e-05
-0.251413
-1.41578e-05
-2.23952e-05
-6.1474e-05
0.000576645
-0.810174
-0.0206765
-1.46441e-05
-3.4276e-06
-1.05847e-06
-1.13507e-06
0.000745988
-1.79745e-05
0.296186
0.00249882
-0.000499358
1.02139e-05
-1.28721e-05
-1.46869e-05
0.0317009
0.28784
-3.11728e-05
2.86341e-05
-0.00161791
-1.243e-06
-1.62695e-05
-3.09152e-06
1.73794e-06
-1.7317e-05
1.95307e-05
3.48155e-06
-0.00860194
3.01262e-05
0.0317334
-6.7357e-05
-1.38725e-05
-0.00046826
0.000190634
0.193431
-1.60101e-05
0.00126854
0.0468436
0.0219013
-0.00105045
-0.00184543
0.17573
0.000301232
-0.00104651
-3.34782e-05
-1.63967e-05
6.95221e-06
-1.45977e-05
0.00199323
0.00104739
7.63011e-05
0.00224441
4.76099e-06
-6.76236e-05
0.0011577
0.381663
-2.68314e-06
0.00141015
-0.00429739
-0.000502161
0.0424161
3.22371e-05
-1.3335e-05
0.0730062
0.000452595
-1.40627e-05
-1.39324e-05
0.000500798
-1.0886e-05
-1.27904e-05
-7.79334
0.00268964
1.36234e-06
-5.65136e-05
6.97125e-05
-0.129822
7.61256e-05
0.675124
-0.225894
-1.62412e-05
-1.10629e-05
0.108493
0.0005201
-0.00160218
-2.23837e-05
-0.00462045
5.37392e-05
-1.3787e-05
-0.000193899
-0.00827979
0.00124734
0.630053
-0.182739
0.0010528
-0.0998498
0.0822347
-4.47004e-05
-0.127833
-0.324862
0.000186291
0.645158
-1.16495e-05
-0.00111442
0.00207519
0.00434329
-0.0029109
-0.274507
-0.000687631
-0.0106735
-1.4128e-05
-3.33595e-06
0.449387
-4.66092e-05
-1.36193e-05
-1.78776e-05
-7.55169e-06
2.20283e-05
-3.73958e-05
-1.29861e-05
-1.56358e-05
0.509553
1.80908
-1.47156e-05
0.000185493
-0.20809
-0.0432357
-4.24493e-06
-0.00582395
-0.205088
0.00183408
-6.08935e-06
-1.44416e-05
0.0331584
-1.35736e-05
0.00236958
0.0021263
-1.29394e-05
-0.00155691
0.48082
-4.63147e-06
-0.0649454
1.32774
0.158828
-3.27394e-05
-4.6791e-06
-1.62394e-05
1.54102e-05
-2.04249e-05
-0.0369178
0.20058
-1.05013e-05
-0.492288
0.389078
4.14426e-05
-1.25053e-05
-2.10483e-05
0.155236
-0.0313565
-0.0674368
0.00113521
2.86283e-05
0.554869
-0.0385545
-2.18022e-07
-1.55244e-05
0.00024469
0.00100557
0.0858396
-0.0223059
2.44102e-06
-0.224777
-0.0483326
0.00110984
-1.47276e-05
-1.37439e-05
-0.000159895
-1.38799e-05
-4.27917e-05
-1.27345e-05
-0.0856144
-0.0106627
-1.1003e-05
-1.39117e-05
0.000902697
-1.29755e-05
-1.59742e-05
-0.000193578
-0.00309892
-1.18756e-05
0.000255475
0.0682277
-0.00512092
0.00118039
0.00144549
0.000197759
-5.778e-05
0.000234611
1.80487e-06
-1.71515e-05
-2.9724e-06
-0.228066
0.00727878
-4.04328e-05
-0.000221131
8.57886e-06
0.00183136
-0.126018
-1.21203e-05
-3.03327
-2.1157e-05
-7.7586e-06
-0.000768515
-4.18784
0.000150983
-4.1256e-06
6.64218e-05
-0.0499219
-5.12368e-06
-0.0115549
1.8549
-1.22408e-05
0.00245142
0.214544
-9.86854e-06
-4.33386e-05
0.0336642
0.00277699
-1.50269e-05
-0.0645684
0.000111847
-1.59013e-05
-0.0939488
-0.00803499
-0.00546423
2.20405e-06
0.920801
-0.00153527
-1.01476e-05
0.00216736
0.000493584
0.000162664
0.0503548
-0.138738
-0.00777141
0.00386608
-0.0842964
-1.17893e-05
0.8053
-0.0541198
-0.00225194
-0.0276016
-6.65182e-06
0.245738
-7.65585e-06
-1.35466e-05
0.00193935
-4.4333e-05
-0.0559217
-0.0790868
-1.46533e-05
1.19231
-0.592736
0.330232
0.00042904
0.00280978
-2.68705e-06
0.000189309
1.23425e-05
-2.08411e-06
-0.0713635
-0.642267
0.605925
-0.397333
-0.0276116
0.0260655
-3.87568
-1.81765e-05
-0.000136641
-0.145408
0.0024492
-5.34779e-06
-1.35468e-05
-0.0472791
0.000644482
-2.06452e-05
-1.60774e-05
-1.42549e-05
-0.0670712
-1.38477e-05
0.0106329
-0.0650937
1.1327e-05
-0.101313
-2.0281e-05
0.0306298
-0.00865559
-0.0810421
-2.81647e-05
0.0622512
-7.72148e-05
-1.40876e-05
-3.82337e-05
-0.328022
0.000981523
-0.0616187
-7.10572e-06
-1.51035e-05
0.101753
0.0179566
-1.27924e-05
0.000271627
-0.0141726
1.0024
1.35346
-1.17597e-05
-3.94459e-06
-0.0748612
-2.37581e-06
-2.33217e-05
-8.64703e-05
-1.14595e-05
-1.50428e-06
-1.23228e-05
-1.56123e-05
7.78294e-05
-1.99548e-05
-0.00085661
0.000181111
2.48519e-05
1.08055
-0.567211
-0.000275707
-3.90478e-06
-1.73554e-05
-5.40907e-05
-1.6036e-05
-1.86759e-05
-1.20815e-05
-0.00179203
-1.13891e-05
-9.31499e-06
-0.000129252
0.00519522
0.0127177
-7.14556e-06
-0.00054006
-0.138127
-0.000108392
-0.000655125
0.00483536
2.5023e-05
-1.37422e-05
-0.00353173
-0.00412857
-6.59256e-05
-0.0910129
0.00520924
-1.74438e-05
0.0962474
-2.93454e-06
0.00169511
-0.158811
0.198272
-0.975846
-7.77125e-05
-1.93925e-05
0.623702
-0.000104924
0.110367
0.00470527
0.153375
-0.046846
-3.86576e-05
0.00126454
-1.42087e-05
0.00881339
0.000818752
0.475066
-1.27345e-05
-9.80307e-06
0.0235458
9.81499e-06
-0.0552563
-4.9272e-05
-0.0367895
-0.410818
0.00189405
-0.0696048
-0.459899
-2.5831e-05
-1.26381e-05
-1.41003e-05
-0.160856
-0.0655521
-2.1945e-05
-3.62976e-05
-1.92756e-05
-3.96603e-06
0.00366343
-2.75239e-05
-1.94862e-06
-0.28469
-1.60208e-05
-2.17825e-06
0.000149968
-4.69639
-0.698972
0.0418315
-1.25774e-05
-0.00236783
-0.00091629
0.000173756
-0.00199705
-0.0378611
-0.383721
0.000220465
-0.0042742
-4.2309e-06
0.00117305
0.00645342
0.00244598
0.321417
4.00048e-05
-0.00183333
1.17886e-05
-0.155704
0.0323896
-1.31865e-06
-5.60072e-05
9.62896e-06
1.54958e-05
0.577045
-1.09845e-05
-1.51118e-05
-1.15494e-05
1.20463e-05
-1.30642e-05
-5.31537e-05
-1.68392e-05
-6.71417e-06
-1.73168e-05
-2.07077e-05
0.0496659
-0.25897
-0.186188
1.048e-06
-5.02453e-06
-7.53218e-06
-3.12954e-06
-2.52e-06
-0.00175722
-4.61542e-06
-1.22897e-05
-1.74478e-05
-1.41457e-05
0.000585693
-2.32221e-05
-0.279384
-0.127098
0.00143894
-0.376842
-1.2814e-05
-0.533558
0.000217692
-0.00177662
-1.38014e-05
-0.00993131
-3.29283e-05
-1.221e-05
-6.51717e-06
0.00362368
0.00190871
-1.39345e-05
0.0168625
-0.000392668
-1.36631e-05
-0.171282
0.128563
-0.00126724
-1.03394e-05
-0.000110382
0.732839
0.000457109
-0.737131
-1.39518e-05
-3.71133e-05
-1.39407e-05
6.85533e-06
-0.000800599
-0.0632498
-0.00150929
-7.84216e-07
0.403447
-0.000634147
-0.000210633
-1.67557e-05
-0.000331706
0.426711
-4.29172e-05
-1.5745e-05
-0.000353726
-0.00918965
1.94446e-05
-4.48124e-06
4.85263e-06
-0.00132717
0.000130456
-0.0198711
-7.11977e-06
0.000178171
0.000360127
0.458746
-1.32673e-05
-2.35194e-06
-4.68768e-06
0.000654896
-3.58587e-06
-4.02456
-0.0385117
-0.00122702
-0.0491394
-1.83968e-05
0.192659
-8.6609e-06
-1.17827e-05
-0.0942062
0.0020791
-0.00743372
-0.0208904
-0.0328996
-0.000823658
0.000158575
0.00117898
-4.89816e-05
-0.44676
-1.07713e-05
-0.000123724
-0.81278
-1.47093e-05
0.0258064
-0.0688083
-0.0973555
-0.0959593
-0.0158649
-0.143392
-0.0453894
0.00175415
-0.000156015
0.00871907
-1.47383e-05
-5.59558e-08
-1.39493e-05
0.23243
-0.902323
0.0103036
-0.000288145
-0.000142349
-0.0168424
-1.4052e-05
0.0211833
-4.82545e-06
0.00125216
-2.10077e-05
-1.89181e-06
-0.000264705
0.00128097
0.0749404
-0.00120536
0.000421408
3.3636e-06
0.0108108
-0.449474
1.17624e-05
0.00238548
-0.027512
-2.29271e-06
0.00109232
-1.15816e-05
-0.102411
-0.000164154
1.10645
-2.03217e-05
-1.3395e-05
0.00026885
-0.0891935
1.71405
0.00209026
-0.179224
1.27648e-05
-1.06545e-05
-9.54564e-06
-2.59724e-05
-1.21618e-06
-1.75776e-05
2.2421
0.363119
-0.00197049
0.000100336
-2.77416e-05
-6.84726e-05
-1.62103e-05
-6.71512e-06
0.00178563
0.0491094
0.00553513
-4.24874e-06
-0.0447557
-1.06687e-05
0.00163846
7.05259e-06
0.00146733
-0.0144045
-0.136814
0.0491459
-1.57369e-06
-1.09671e-05
-1.48295e-05
-1.33966e-05
-1.37067e-05
-1.51721e-05
0.269079
-1.6396e-05
0.000202266
-2.85407e-05
-0.00179255
-2.17104e-05
0.222263
0.647757
0.00750669
-4.737e-06
-0.03603
-1.65121e-06
-0.102302
0.158395
0.000263732
-0.0113878
8.14262e-05
0.00202958
2.47732e-05
-9.48591e-05
0.000458363
-0.000365059
-0.00157282
0.371114
-0.0116457
0.000382567
0.000305952
-2.02496e-05
-1.42334e-05
0.38658
2.33118e-05
0.798689
1.294e-05
1.57975
-0.296699
-0.0174904
-5.16345e-05
-0.0352948
-5.94031e-05
-6.56769e-05
6.55829e-06
-0.000116068
0.00229617
-1.85228e-05
0.190794
0.0251084
-0.00114998
-2.0456e-05
2.63403e-05
-0.0664123
-0.0797832
-0.0662577
0.000122461
0.00348719
-0.156949
-0.0338
-1.44347e-05
-0.00189608
0.00401537
0.00220799
-0.237687
5.48523e-05
-0.000170538
-0.00507493
-1.93494e-05
-0.027751
0.00155799
-1.61277e-05
-0.00326328
0.00190617
-0.0875763
0.00025925
-0.000134231
0.000360506
-2.73263e-06
0.0024077
-1.15163e-05
-0.00441134
0.000330137
-0.729335
0.1081
0.00919101
-0.0714468
0.000323727
-0.41747
9.13271e-05
0.00356891
-0.0580316
0.287997
3.13092e-07
-1.75398e-05
-1.13169e-05
5.8128e-05
-1.21904e-05
-1.84482e-05
-0.595771
-1.40417e-05
-1.11516e-05
-0.000766585
-8.2203e-06
-4.51205e-06
0.000425409
0.619531
0.000285665
1.76795e-05
-1.21725e-05
0.000530173
-5.86228e-05
-1.36909e-05
-1.46164e-05
-4.91389e-06
0.344912
0.000161492
-0.037833
-0.000644146
-1.17657e-05
-2.14668e-06
-0.00919527
-0.00680578
-0.313298
0.00464203
-1.63817e-05
0.00118645
-1.40973e-05
0.000331849
0.0151142
0.0715749
0.0104979
4.68449e-05
1.05787e-05
-0.000173376
-0.253335
-0.0310117
0.0479443
0.000137602
1.26358e-05
-1.16906e-05
9.92748e-05
0.00449699
0.630404
6.59248e-06
-0.124348
-2.19166e-06
-4.69282e-06
7.85686e-05
-1.21895e-05
-0.0525768
-0.000301737
-0.0730411
-1.07722e-05
-0.0010469
0.00155754
-0.266955
1.05085e-05
0.000173353
-0.0110295
-0.051563
1.41018
0.342255
0.0493719
-6.31599e-05
0.000239203
0.000117278
0.00815022
0.194157
0.00178682
-1.2795e-05
-1.55125e-05
3.09186e-06
-1.12423
1.3975
-0.000169073
3.14014
5.84e-06
-1.32625e-05
-1.25082e-05
-0.00391984
0.00286313
-0.281641
-1.90336e-05
-2.96932e-05
0.000697043
-2.12941
-1.88724e-06
0.0461118
5.89485e-05
0.000760239
-0.758887
-1.40032e-05
0.761834
0.236098
-0.0342694
-1.13528
5.39516e-05
6.16375e-05
-0.000182493
-0.712835
-0.0504449
-8.62523e-06
0.784886
-0.0089733
-1.98484e-06
5.87422e-06
-0.566744
-4.89623e-06
0.22944
0.101208
9.44955e-05
-4.8289e-06
-0.000182768
0.000186844
0.75968
-1.11959e-05
-0.000825515
-6.38254e-05
0.003556
0.307164
-1.86869e-05
8.57303e-06
0.00105608
-0.000478832
-1.82458e-05
-7.38433e-06
-1.47136e-05
0.00230205
1.23539e-05
0.00405753
-1.89401e-05
-1.59795e-06
5.71084e-05
-9.08857e-05
-0.00136276
-7.02595e-05
0.191454
-0.037588
-0.173041
-1.47403e-05
-2.12682e-06
-0.297676
8.86821e-05
0.00174101
-0.559497
0.000997769
-0.0720668
0.116929
-2.88055e-06
-0.689312
-0.0685788
-2.73057e-05
-1.24541e-05
-1.8974e-05
-1.93012e-05
1.98426
-0.000597983
-1.39326e-05
0.600571
0.188658
-0.763197
-7.56141e-06
-3.59315e-06
-0.590333
-1.46351e-05
-1.42892e-05
-7.27394e-05
-1.40628e-05
-0.0046257
-4.75375e-05
0.169139
0.0210569
5.81146e-05
-0.210069
-0.00196311
-0.028701
0.0505937
-1.78876e-05
-0.000228864
-0.000398813
0.0692945
-0.209133
-0.0388674
-1.90298e-05
-1.65678e-05
0.00191133
-4.55782e-06
-0.0652315
0.116657
-1.39481e-05
-1.14494
6.32737e-07
-0.380212
0.000164207
-0.0233975
-3.22839e-05
0.378335
-2.87866
0.160334
0.832899
2.61614e-06
-0.0436846
-2.007
-2.90804e-05
0.479866
-1.75485e-05
-1.41675e-06
-1.1931e-05
-7.92301e-05
-0.000156434
-1.38064e-05
-1.309e-05
0.000747051
0.00163052
0.00203624
0.808949
0.00251914
-0.000401831
-6.44377e-06
0.00232441
7.84384e-06
-0.00134618
-1.53809
0.101665
-0.0693822
-8.54589e-05
5.60716e-05
-4.49085e-05
0.00366021
-8.95115e-05
-1.93307e-05
0.380508
0.628639
0.621509
0.00249507
-1.46497e-05
0.00198515
0.0425882
0.000214107
-5.17544e-06
-4.9396e-05
-8.91938e-05
0.00165106
-1.37319e-05
-0.0326708
-1.44718e-05
0.0107651
-3.27137e-06
-0.0260556
0.224249
-0.663301
2.24433e-06
-0.00253651
-9.73583e-06
8.13213e-07
0.00204195
0.467845
-1.32713e-05
-1.3092e-05
0.15019
-1.13313e-05
0.00249103
0.337724
-0.000650967
-0.0986865
-1.34679e-05
1.46803
0.000532935
-0.151294
-2.19395e-06
-3.4934e-05
0.513102
-1.30824e-05
-0.01571
-0.000214943
-4.26022e-05
-0.15063
-5.33232e-05
-1.70394e-05
-1.77129e-05
-1.38009e-05
-0.341815
0.367785
1.7145e-06
-0.0503822
0.00845011
-0.209576
-1.30326e-05
-0.0183867
-0.000694307
6.60876e-05
0.000527243
-1.45689e-05
0.481697
-1.46276e-06
0.304428
-2.24649e-06
6.4036e-05
-7.31279e-05
-1.50351e-05
-1.2692e-05
0.00125823
-1.00895e-05
-1.29145e-05
-0.0205008
2.85776e-06
0.00118468
0.000213116
-0.400893
0.0146741
-2.10253e-06
-0.00125439
-1.34955e-05
-1.53806e-05
-0.00019513
-0.137099
-0.226471
-0.0341778
0.0380782
-4.11456e-06
-6.84835e-06
1.79357e-07
-1.39284e-05
-1.63545e-06
-0.0673262
-7.23221e-06
-0.000167603
0.000701444
1.79042e-05
-0.042153
-2.52395e-05
-3.81465e-06
0.701423
0.0771153
-1.55461e-05
0.00101835
-7.60128e-05
-0.133936
-1.45546e-05
-9.96998e-05
0.538554
-9.01736e-05
-0.151866
-0.0176658
-1.20638e-05
-3.48175e-05
-0.000492413
-0.000293446
0.0025707
0.000752557
-0.272152
-7.18882e-05
0.00111799
-0.000230716
-0.107546
-2.91278e-05
0.551232
-0.0853293
-0.23586
0.271268
0.000108414
-1.48543e-05
-1.84121e-05
-0.00462065
0.0177906
-2.17899
0.0709875
1.62407e-06
0.0168362
0.000114622
0.509347
-1.26457e-05
0.00127277
5.0248e-05
-4.63427e-05
-2.77443e-05
-0.00260899
7.40695e-05
-1.71277e-05
-1.14473e-05
0.0023134
-3.68598e-05
-1.33067e-05
0.0196357
-2.62564e-05
-1.95936e-05
-6.09634e-06
-0.466922
0.000278772
-0.0740839
-0.000290024
-1.40162e-05
0.209194
-0.000232657
-0.00393493
-1.90663e-07
-1.79364e-05
1.45153
-0.102849
0.0587481
0.000149826
-0.000258294
0.848765
-0.00224946
0.00225108
-0.119471
0.362424
0.593809
-4.23435e-06
0.0699289
2.47437e-05
0.00244974
-0.484591
-0.000903121
-0.00121192
-2.83971e-05
-0.435216
0.00257885
-0.0303134
0.00148152
-1.40757e-05
-1.8863e-05
-1.14184e-05
-0.566234
-9.18298e-06
0.284589
0.00234053
-0.109465
-1.59306e-06
-1.89195
1.59552
0.0020052
-0.0533485
-2.77944e-05
-1.61983e-05
-1.4426e-05
4.86043e-06
-1.45769e-05
-0.000371268
0.418152
-1.43653e-05
-3.98791e-05
-0.0177043
-0.0133475
0.166535
-0.00045048
-0.000212054
-1.26978e-05
-0.788177
0.000244867
0.798957
0.00172805
-0.105504
-0.00110038
-0.00213044
1.052
-1.91243e-05
-1.82187e-05
0.784306
-0.0773864
-0.109879
-0.000242082
0.00202969
-9.08652e-06
0.00794371
-1.9591e-05
-0.0173952
-1.90861e-05
1.34349e-05
-0.0580638
-1.80307e-05
-0.00199382
-1.10444e-05
1.33992
-0.513601
0.0026769
0.000129741
0.474514
3.18071e-05
-2.24028e-06
0.337537
1.35958
-0.736522
-1.49854e-05
-2.07599e-05
0.461221
3.35627
0.391949
-1.32476e-05
-6.4801e-05
-1.57268e-05
-0.000119193
-2.12495e-05
-1.27802e-05
0.379544
-1.32832e-05
-0.828632
-0.000195853
-0.0277069
1.68152e-06
-0.742175
-0.864309
0.000595182
0.0322802
0.0780616
-1.17674e-05
0.00158274
2.27893
-1.41677e-05
-1.79837e-05
-6.46832e-06
0.404323
0.666386
-1.74432e-05
0.0394293
0.000956199