/*--------------------------------*- C++ -*----------------------------------*\
| =========                 |                                                 |
| \\      /  F ield         | OpenFOAM: The Open Source CFD Toolbox           |
|  \\    /   O peration     | Version:  v2012                                 |
|   \\  /    A nd           | Website:  www.openfoam.com                      |
|    \\/     M anipulation  |                                                 |
\*---------------------------------------------------------------------------*/
FoamFile
{
    version     2.0;
    format      ascii;
    class       surfaceScalarField;
    location    "200";
    object      phi;
}
// * * * * * * * * * * * * * * * * * * * * * * * * * * * * * * * * * * * * * //

dimensions      [0 3 -1 0 0 0 0];
oriented        oriented;


internalField   nonuniform List<scalar> 
27882
(
0.505274
-0.364679
-0.140586
0.486204
-0.260696
-0.225503
0.27142
-0.532162
0.260778
0.15548
0.349803
-0.227178
0.350876
-0.123682
-0.427111
-0.102019
0.529133
0.183208
0.191137
-0.374302
0.119222
-0.333134
0.213926
-0.341546
0.114382
0.250719
-0.374049
0.123344
0.340148
-0.544926
0.204783
0.587442
-0.260204
-0.327237
-0.382095
0.119984
0.262123
0.333157
-0.164805
-0.168342
0.102063
-0.431019
0.329029
-0.428789
0.146716
0.282154
0.194721
0.392722
-0.311192
-0.170725
0.381709
-0.279585
0.17115
0.145699
-0.316838
-0.428862
0.23146
0.197407
0.0529529
-0.101789
0.0488359
0.0867563
-0.513863
-0.335047
0.542211
-0.207158
0.101137
-0.0481841
0.12832
-0.0766867
-0.0516334
-0.257908
-0.0310986
0.289007
0.253806
-0.131524
-0.122281
-0.170314
0.0316939
0.138621
0.45643
-0.378749
-0.0776783
-0.182724
0.196747
-0.0140229
-0.0140289
-0.243879
0.30955
-0.190314
0.0486729
-0.112707
0.0640339
-0.171767
0.340441
-0.168662
0.273937
0.182496
-0.268191
-0.113894
0.179125
0.155363
0.0574176
-0.212781
0.401882
-0.476698
0.0748174
0.460928
-0.220015
-0.240913
-0.188491
-0.163645
0.352149
0.516038
-0.256919
-0.259117
0.466953
-0.335507
-0.13143
0.521
-0.362579
-0.158311
-0.220631
0.0460372
0.174594
-0.335507
0.147029
-0.174896
0.0303737
0.144524
-0.0386773
0.0097465
0.0289308
0.504323
-0.359615
-0.1447
0.568747
-0.228595
0.0660625
-0.0633915
-0.002671
0.179433
0.324899
-0.391466
0.164785
0.226695
0.0469964
-0.116026
0.0690297
0.378729
-0.258736
0.485879
-0.46107
-0.0247965
-0.162711
0.333876
-0.175925
0.15144
0.0244866
0.364388
0.121505
0.489028
-0.0783161
-0.410623
0.333974
0.132996
-0.0291702
-0.147749
-0.0749996
-0.0481618
0.123162
0.023776
0.46536
0.110842
-0.090991
-0.0198509
-0.0174803
0.40069
-0.38314
0.629931
-0.301194
-0.32873
0.0929944
0.160813
-0.545306
0.234114
0.00234148
0.0637211
0.0578992
0.0414115
-0.0993105
0.141466
-0.398467
0.257052
0.174222
-0.29139
0.117172
0.277236
-0.305329
0.0280946
-0.0325952
-0.150129
0.133693
0.0716936
-0.205386
-0.372278
-0.0851352
0.457415
-0.0908142
0.374921
0.14112
0.126089
-0.139394
0.0133052
-0.0446885
0.200052
-0.378618
0.00634156
-0.000490546
0.231709
-0.231214
-0.541278
0.259736
0.281556
-0.126039
0.0358452
0.0901942
0.196562
0.0520506
-0.138174
0.312402
-0.197926
0.168756
-0.119987
-0.00605191
-0.0691644
0.0526504
0.0165141
-0.350788
0.509731
-0.15882
0.128125
-0.150099
0.0219752
-0.0141445
-0.0245328
-0.25209
0.393614
0.520882
-0.0996043
-0.421229
-0.335919
-0.138978
0.474897
0.17123
-0.160258
-0.0109704
0.44233
-0.396422
-0.0459068
0.182625
-0.381184
0.198613
-0.113518
-0.107113
0.332703
-0.223412
-0.109284
0.318108
0.31183
0.428179
0.092756
0.076503
0.0343389
-0.313975
-0.114883
-0.140587
-0.0343088
-0.0430108
-0.0261537
-0.0258728
0.212624
-0.18675
0.44
-0.188893
-0.251099
-0.136736
0.441884
-0.305057
0.0292673
-0.104267
0.287919
-0.468003
0.1801
0.47535
-0.471642
-0.00366342
0.129535
0.203176
-0.0996206
-0.0318222
0.131443
0.170251
0.000979577
0.556758
-0.267107
-0.289637
0.0290196
0.0657742
-0.0947933
-0.344353
0.492789
-0.148421
0.54912
-0.386048
-0.163017
0.202462
-0.0687675
-0.20861
-0.332653
-0.505939
0.0738953
0.432067
0.00794467
-0.0112397
0.00329507
-0.21707
-0.174383
-0.501565
0.341759
0.159824
-0.420189
-0.0857289
-0.051565
-0.0843002
0.135866
-0.00323919
-0.000811237
-0.145551
-0.526059
0.274135
0.252016
-0.233445
0.246917
-0.0134668
0.0460209
-0.0752024
0.0291815
-0.135041
0.536924
-0.351489
0.480035
-0.128492
0.236682
-0.051204
-0.185479
-0.403231
-0.0631427
0.466391
-0.148428
-0.00737056
0.155799
0.129552
-0.00346214
0.430061
-0.142127
0.543639
-0.344312
-0.199325
0.191227
-0.179143
-0.0120824
-0.239523
0.213651
0.0090006
-0.00105592
0.163357
-0.159258
-0.00409897
0.105555
-0.0290517
-0.0262524
0.133887
-0.107634
-0.254455
-0.290467
0.009494
0.0497732
-0.059267
0.00361289
-0.00430372
0.000690828
-0.00341494
0.0043403
-0.000925361
0.0517888
-0.2579
0.20613
-0.37758
0.0984256
0.279167
0.144738
0.31619
0.143667
-0.0407081
0.150061
-0.0219357
0.0598305
-0.111395
-0.258579
-0.0213707
0.279954
0.231753
-0.0576913
0.0524636
0.00522765
0.353624
0.0303354
-0.383941
0.00888543
0.0184571
-0.0273426
0.0686073
0.0369476
-0.220874
0.0227368
0.198138
-0.549115
0.25103
0.298097
0.412104
-0.0584615
-0.02503
0.0495801
-0.02455
0.000802592
-0.00404179
0.524352
-0.377044
-0.147308
-0.00110954
-0.00504925
0.00615879
0.407709
-0.136262
-0.153269
0.15701
-0.00374116
-0.246566
-0.175102
0.0236941
0.188932
0.132171
-0.391058
0.258918
0.139399
-0.391436
0.0408263
-0.101624
0.0607977
0.103926
-0.0552529
0.230651
0.0450602
0.523469
-0.246177
-0.277284
-0.125126
-0.18141
0.306545
-0.068854
0.115851
0.140334
0.166336
-0.0420983
-0.0046782
0.0467766
0.421576
-0.318486
-0.103043
-0.273664
-0.105083
0.342563
-0.29243
-0.050128
0.0174616
-0.0316061
-0.219642
-0.024929
0.244572
0.000913753
-0.00432869
0.279785
0.141849
0.0894609
-0.182703
0.0932437
0.099465
0.123405
-0.222868
-0.541722
0.21969
0.322038
0.237097
-0.314464
0.077377
-0.124217
-0.0212971
0.145515
0.317452
-0.265637
-0.0228323
0.0402939
-0.496
0.0772711
0.418741
-0.196883
-0.251654
0.448549
0.163169
-0.103338
-0.132818
-0.103513
0.236334
-0.146725
0.427853
-0.281046
-0.401696
0.265048
-0.0265781
0.0354635
0.0900035
-0.361044
0.271066
-0.0371284
-0.000991261
-0.00325982
0.55628
-0.37661
-0.179656
-0.110332
0.142818
-0.0324854
-0.464974
0.268104
-0.129549
0.423307
-0.293737
0.102804
-0.328282
0.22549
0.168632
-0.50455
0.00316189
0.390465
-0.393505
0.03973
0.343007
-0.445023
-0.223211
0.447299
-0.224086
-0.161216
0.260682
-0.1726
-0.277498
0.450114
0.173366
0.0178636
0.0476256
0.115544
0.101251
-0.234067
-0.224427
0.402363
-0.177935
0.275468
0.00176987
-0.078402
0.12505
-0.0466479
-0.0135039
-0.0441873
0.342255
-0.252223
0.0599391
0.0683813
0.153559
0.00979969
0.210757
-0.187061
0.0615458
-0.412978
-0.482705
0.146226
0.336554
0.272596
-0.44518
0.0650969
-0.238309
0.173215
-0.0260229
0.00711497
0.0189079
-0.115744
-0.0340911
0.149836
-0.343789
0.264983
0.0788207
0.100181
0.324768
-0.424868
-0.160851
0.22595
-0.00580206
-0.172357
0.17816
-0.342489
-0.170305
0.512815
0.0501774
-0.040683
0.142863
-0.0480249
-0.0948379
-0.476947
0.342971
0.134055
-0.262022
-0.197515
0.459585
-0.208317
0.497292
-0.288965
0.372259
-0.1896
-0.00890023
0.00779069
0.513396
-0.250473
-0.262904
0.26994
-0.53145
0.26151
-0.172538
0.44515
0.463297
-0.073048
-0.390247
0.0922472
0.0290227
-0.121269
0.378344
-0.574483
0.196151
0.110735
-0.0528353
-0.396669
-0.028457
0.425233
-0.219602
0.0780733
-0.23898
-0.22901
-0.36165
0.435567
-0.100891
-0.375992
-0.103746
0.193209
0.127315
-0.00913218
-0.118182
-0.0418027
0.169118
0.0285076
-0.390137
-0.154229
0.0689623
-0.326843
-0.230178
0.357348
-0.127148
0.045772
-0.0971168
0.0513453
-0.0465739
-0.0427786
0.0893526
-0.354173
0.124019
0.0849658
-0.329121
0.244182
0.109999
0.367235
-0.477233
0.317881
-0.215067
0.216279
-0.0280382
-0.188236
0.493823
-0.150813
-0.417885
0.288356
0.160787
0.172378
0.19833
-0.460304
-0.311597
-0.175608
0.487288
-0.433663
0.380572
0.0531739
-0.090037
0.031496
0.0585409
-0.247753
0.353249
-0.268254
0.399108
-0.436079
0.0369717
-0.14439
-0.0279657
-0.153353
0.37836
-0.22496
0.274877
-0.439417
0.0969476
0.0933299
-0.292681
0.199359
-0.119823
-0.341236
-0.53564
0.259457
0.276202
-0.559723
0.263554
0.296187
0.211842
0.246798
-0.458629
-0.451085
0.226658
-0.438518
0.0878474
-0.455806
0.120766
0.0143273
-0.00466433
-0.00966299
0.116033
-0.233017
0.11699
-0.59695
0.338004
0.258979
-0.392367
-0.204551
-0.058013
-0.1199
0.177912
0.307941
-0.510124
0.202187
0.282033
0.241441
-0.164877
-0.235783
0.400669
-0.270776
-0.0431977
-0.0918794
0.42587
0.141609
0.237128
-0.406469
-0.0271196
-0.0985749
0.152416
-0.0538403
-0.131587
0.0743833
-0.153497
0.0791147
-0.0773258
-0.0929871
-0.0353958
-0.0773108
-0.620662
0.302237
0.318431
0.256316
-0.137148
-0.119168
-0.149288
0.126275
0.0230135
0.0408336
-0.423959
0.383197
-0.0957614
0.170146
-0.226131
-0.0324428
-0.00250651
0.05228
0.159059
-0.45832
0.299323
-0.302547
-0.00306415
0.445475
-0.248202
0.0602165
0.340533
-0.400713
0.0079616
-0.013828
0.0058664
-0.0423874
0.216007
-0.173617
0.412201
-0.293451
-0.118737
0.0357358
-0.0662456
0.0305098
0.447913
-0.288789
-0.170759
-0.366698
-0.0298776
0.120658
0.354724
-0.20285
0.317642
-0.114773
0.0387793
0.330242
-0.369011
-0.0846999
-0.248423
0.151711
-0.407234
0.255549
-0.299159
0.0963243
-0.17573
0.271774
-0.0960282
0.148002
-0.130631
0.14759
-0.205603
-0.0797054
-0.323513
0.136416
0.381516
0.0608156
-0.267316
0.327564
-0.0267581
0.170995
-0.144235
0.516349
-0.208404
0.104375
-0.0547695
-0.0496053
0.56139
-0.314801
-0.246588
0.133422
-0.155368
0.021947
-0.416937
0.0985083
0.0130216
-0.0070889
-0.00593266
0.1698
-0.208508
0.0387079
0.0975918
-0.317618
0.220027
-0.275104
0.0993867
0.298436
0.113779
-0.406758
0.304451
0.10233
0.137716
-0.473205
-0.137041
-0.126124
0.249531
0.58799
-0.335976
-0.252013
0.245809
-0.22909
-0.0167172
0.105682
-0.231805
-0.13967
0.227507
-0.019934
-0.20757
0.159084
-0.2842
0.17817
-0.00791704
-0.0162764
0.0239182
-0.123538
-0.02858
0.239339
-0.249917
0.208604
0.0413148
0.240725
-0.460738
-0.0273108
0.160733
-0.0146336
0.477932
0.0486838
-0.0847927
0.036109
-0.110552
0.331803
-0.523761
0.191963
0.31993
0.268062
0.377469
-0.394883
0.224204
0.318013
-0.0472486
-0.0545401
0.225416
-0.114731
0.408419
-0.293684
0.0913281
-0.0455556
-0.00327814
-0.0719997
0.264148
0.162275
0.277732
-0.283387
-0.145319
0.302119
-0.197421
-0.104689
-0.356598
0.153895
0.202712
0.458071
-0.297043
-0.161015
0.284242
0.264926
-0.376356
-0.0303886
0.265572
-0.408477
0.142957
-0.42084
0.10932
-0.53474
0.295012
0.239751
0.162757
-0.48944
0.326692
0.270406
-0.257288
-0.0131136
0.15438
-0.202722
0.0483417
-0.208365
0.186509
0.0218587
-0.0639869
0.13655
-0.0725631
0.0690642
-0.133051
-0.00147246
0.00592037
-0.00444791
0.208053
0.0159195
-0.136256
0.120337
-0.264315
0.476167
0.431876
-0.0355754
-0.396295
-0.405198
0.14828
0.159883
0.142247
-0.346679
0.215033
0.131654
-0.23419
0.037799
0.165518
0.0126526
0.393572
-0.292698
-0.100869
-0.371863
-0.202608
0.126304
0.0216977
0.284427
0.236661
0.211394
-0.0953573
0.562092
-0.289622
-0.272465
-0.013113
0.04403
-0.030917
-0.140377
0.228841
-0.20688
-0.352825
0.0578001
-0.0220642
0.133498
-0.140245
0.00674751
-0.505421
0.402731
0.102823
0.316773
0.141312
-0.252951
0.470966
-0.218005
0.160617
-0.189196
0.222236
-0.514592
0.292372
-0.357349
-0.178271
-0.19387
-0.0270033
-0.0119596
-0.196404
-0.0816858
0.384442
-0.244992
-0.312641
0.211948
0.100708
0.166376
0.0782159
-0.244585
0.0464939
-0.124491
0.0779974
-0.156729
-0.159122
0.315855
-0.608605
0.360166
0.248443
-0.0423072
0.226598
0.3355
-0.317478
0.356267
0.0286446
0.12069
0.295702
-0.416298
0.164533
0.0322144
-0.242267
-0.366335
0.261775
-0.095394
0.526122
-0.228802
-0.297287
-0.127401
0.15132
0.201866
-0.496383
0.294525
0.354209
-0.0885955
-0.020562
0.00784012
0.0127219
-0.182734
-0.327386
0.126101
0.375304
-0.501405
0.191085
0.0364251
-0.00990086
-0.294165
0.304082
0.287227
-0.433873
-0.464857
0.0822032
0.382679
0.504343
-0.325124
-0.179107
-0.110426
0.19089
-0.0804639
-0.00506347
0.0389586
-0.0338952
0.216352
0.0734665
-0.289798
0.233616
-0.115476
-0.118137
0.300988
-0.195305
0.101322
-0.0604952
0.354465
-0.349549
-0.00491632
0.0253999
0.117464
-0.0496344
0.404098
-0.511421
0.329936
0.181497
0.137994
-0.122074
-0.203237
0.253694
0.0139233
-0.26761
0.222909
0.0866545
-0.448284
0.225074
0.400921
-0.383391
-0.0175217
0.130097
0.299978
-0.513915
0.217837
0.296107
0.312
-0.120829
0.455398
-0.118512
-0.33684
0.431407
-0.310619
0.0785316
0.376905
0.0102087
0.335495
0.25483
-0.387446
0.13262
-0.316584
-0.157969
0.474592
-0.546478
0.367529
0.178954
0.127224
-0.134266
0.00704307
-0.151809
-0.374156
-0.25931
0.455234
-0.1959
0.365052
0.121032
-0.486082
0.238792
-0.248686
0.0277076
0.37322
-0.205281
0.436746
-0.20931
0.212702
0.356049
0.347385
0.0351095
-0.382493
-0.196993
0.0228321
0.174163
-0.134909
0.0823653
0.0525444
0.0183698
0.0165248
-0.0348946
-0.23743
-0.0124858
0.386991
-0.383709
-0.357693
-0.0591921
0.0242509
-0.0293143
-0.0202247
0.515871
-0.324492
-0.191373
0.509334
-0.144934
0.0870492
-0.294925
0.207882
-0.0214296
0.52521
-0.13692
0.484305
-0.0478666
0.0522448
-0.00437816
-0.136301
-0.191968
0.127463
0.00209
0.202774
0.313104
0.487198
-0.170412
0.110309
0.123309
-0.455695
0.258228
-0.129543
-0.258248
0.387831
-0.505509
0.216962
0.288673
-0.531713
0.310021
0.221697
0.0431466
0.299139
0.0800471
-0.442513
0.358499
-0.413432
0.0549341
0.268007
-0.44163
0.17363
0.323198
0.070379
0.195491
0.105498
0.493306
-0.118001
-0.16457
0.432584
-0.422728
0.10618
-0.249525
0.184217
0.0653129
0.342016
-0.135114
-0.206896
0.0734331
-0.230159
-0.251709
-0.129432
-0.0262869
-0.193354
-0.188543
0.231589
-0.0430424
0.243685
0.0100147
0.294132
0.100789
-0.394904
0.471238
-0.308471
-0.472621
-0.190395
0.273899
-0.0834879
-0.291937
0.101561
-0.00632494
0.0211796
-0.0148547
0.0127819
-0.05488
-0.247229
0.445609
-0.285947
0.285625
-0.192285
-0.0469671
0.0219371
-0.536374
0.246758
-0.280633
0.449266
0.357395
-0.347073
-0.432283
-0.11419
-0.132508
-0.254893
0.387427
0.449601
-0.155449
-0.120191
-0.192957
0.313162
0.434023
-0.00641998
0.157861
-0.376774
0.125107
0.343789
-0.47883
0.208485
-0.249251
0.0407672
0.0409082
-0.0225384
-0.420321
0.294846
0.125485
-0.215274
-0.286274
0.42719
-0.271945
-0.155209
-0.393655
0.134368
0.273045
0.117161
-0.390147
-0.407482
-0.42148
0.304835
0.116654
-0.522001
0.203495
0.31851
-0.306914
0.221898
0.0850274
0.234233
-0.318688
0.0844581
0.295136
0.132087
0.137232
-0.163988
0.479493
0.0574304
-0.403097
0.345676
0.151876
0.00168351
-0.207743
-0.337563
-0.233413
-0.298296
-0.155336
-0.170107
0.325442
-0.110241
-0.421887
-0.0120475
0.249153
0.0225405
0.22327
0.502576
-0.133313
-0.369234
-0.123617
0.390119
-0.26645
-0.0359454
0.225815
0.330956
-0.383742
0.235858
0.147885
0.504768
-0.204465
-0.300298
-0.519524
0.165951
0.353591
0.249395
0.276757
-0.210302
0.209816
0.0822943
-0.296712
0.214429
0.205184
0.136837
0.387329
-0.255126
-0.0897693
0.323999
-0.359822
0.45407
0.15772
0.302517
-0.460193
0.0056522
0.00867512
0.49278
-0.21696
-0.275815
0.276938
0.279356
0.248742
-0.38301
0.134305
0.498544
-0.354073
-0.144464
0.228307
-0.253234
0.279678
-0.16568
-0.113996
0.280662
0.163062
-0.44371
-0.174122
0.284193
0.0631935
0.0898033
-0.152997
0.297232
-0.210179
-0.273663
-0.159386
0.433132
0.246131
-0.410998
0.0546674
-0.226658
0.171996
-0.0134471
-0.0677676
-0.165673
0.428402
-0.311975
-0.116419
0.0850604
-0.349595
0.264569
0.254159
0.244393
-0.166866
0.155269
0.0115982
-0.33809
-0.181416
0.339549
-0.254454
-0.362109
-0.17426
-0.044014
-0.340711
0.384764
-0.0754368
-0.154107
0.229548
-0.117294
-0.169326
0.286626
0.483793
-0.213852
-0.314834
0.303148
0.125264
0.11907
0.222817
-0.341871
0.385392
-0.13661
0.182393
-0.481006
0.298662
0.42708
-0.103876
0.0571264
-0.111645
0.165779
-0.185963
0.0201857
0.00106211
0.00327819
-0.0160499
0.00972493
-0.391544
0.138603
-0.435129
0.484928
-0.0497955
0.00558231
-0.284678
0.339443
-0.0547636
0.195307
0.297478
0.18183
0.334522
0.244632
-0.367138
0.122539
-0.14663
0.0169598
-0.183588
0.16663
-0.131557
-0.373765
-0.0755679
0.367793
-0.459656
-0.443278
0.315381
0.127944
-0.462451
0.165423
-0.276411
0.149641
0.0022367
0.289703
0.136491
-0.426193
0.274255
0.149073
0.220766
0.113831
-0.0848107
-0.470757
0.190125
-0.0313422
0.425505
-0.0670055
0.368728
-0.12407
-0.331295
0.482832
-0.151523
0.298139
0.158685
-0.209889
0.157972
-0.404538
-0.119557
0.302828
-0.220519
0.210088
-0.224116
0.290837
0.160187
-0.451015
0.0500014
0.0405399
-0.0905413
-0.0079811
0.00650863
0.310745
-0.213151
-0.442019
0.269496
-0.30718
-0.0698635
0.254147
-0.199473
-0.220818
-0.0574157
0.278238
-0.00402679
-0.190475
0.194504
0.0296063
0.0407141
-0.0703202
-0.104267
-0.227644
0.331939
-0.362598
0.407848
-0.0452497
-0.0883046
-0.407686
0.177933
-0.0121519
-0.121574
-0.493858
0.204404
0.289485
0.0781517
-0.192069
0.11392
-0.167828
-0.128911
-0.0817114
-0.164437
0.246155
0.146963
-0.26714
-0.174187
-0.137446
-0.137646
0.448672
0.238577
0.103988
0.309367
-0.21976
-0.0896056
0.150368
-0.39992
0.249573
0.0820095
-0.175081
0.219867
0.137502
0.0228074
0.161886
-0.18469
0.30036
0.135841
-0.436194
0.379303
0.0700675
-0.449371
0.152352
0.228305
-0.313986
0.270002
0.0454994
0.485147
-0.310744
-0.174355
-0.113414
0.581337
-0.313001
-0.268334
-0.0166007
0.140985
-0.00191377
0.20723
-0.327287
0.120107
0.237641
-0.357565
0.119951
-0.0588694
0.214171
-0.1553
0.242269
-0.362461
0.120218
0.0754007
-0.360077
0.16655
-0.242883
0.0763387
-0.299
0.292512
-0.1237
-0.168802
0.336172
-0.346988
0.0108365
-0.26491
0.484606
0.0360761
0.435821
-0.135455
-0.0270672
-0.101662
-0.0762532
0.0572179
-0.0560102
-0.00120765
-0.291364
0.348802
0.126111
-0.419551
0.165588
-0.247293
-0.0735363
-0.0781819
0.151718
0.171189
-0.242501
0.0713186
0.10093
-0.393624
-0.000371841
-0.30908
0.309452
-0.446751
0.000950378
0.445809
0.254729
0.32661
-0.47277
0.311406
0.161393
0.187972
-0.191997
0.355545
-0.113255
0.319926
-0.234664
-0.085246
0.05866
0.0165581
-0.0752181
0.599377
-0.279446
-0.301421
0.145214
-0.335842
0.190647
-0.0897176
0.129564
-0.407287
0.277748
0.375119
-0.167834
0.256046
0.191255
-0.00188394
-0.0278729
0.0297568
-0.289617
0.455502
-0.16587
-0.27111
0.4007
-0.160976
-0.311766
-0.074539
0.121033
0.0812918
0.198387
0.407079
-0.283995
-0.123076
-0.456732
0.139165
0.317609
0.246989
-0.401114
0.154134
0.233688
0.0862555
-0.116505
-0.0104818
-0.481556
0.161511
-0.435091
-0.0125957
-0.0176024
-0.218443
0.236049
-0.340758
0.450759
0.480346
-0.284152
-0.196188
-0.100271
-0.235923
0.33623
0.0513865
0.195536
-0.286061
0.447664
0.498967
-0.330246
-0.16871
0.209905
-0.0188168
-0.129645
0.349529
-0.00134633
-0.129624
0.432172
-0.302446
0.0511087
-0.0815755
0.0304669
0.506934
-0.355859
-0.150995
-0.0664622
-0.00196529
-0.133053
-0.25439
0.16096
0.0169746
0.484242
-0.0523615
0.350704
-0.0145121
0.159314
0.212315
-0.371628
-0.155065
0.402062
0.0436743
-0.264488
0.287698
0.150633
-0.438272
-0.429853
0.293606
0.136288
-0.0134939
-0.277892
0.0105166
0.00240131
0.286378
0.17685
-0.46645
-0.450155
0.171563
0.278665
0.103476
-0.316947
0.213482
0.318823
-0.173589
-0.0849629
0.452771
-0.132227
-0.259895
0.392168
-0.409456
0.375364
-0.222944
-0.391041
0.267475
0.304054
-0.462957
0.179545
0.283454
0.0536403
-0.101665
0.035409
-0.208708
0.1733
-0.061125
0.0586187
-0.343411
-0.124196
0.467609
0.0261451
-0.0280291
-0.253137
0.394459
-0.141273
-0.0575594
-0.24647
-0.11012
0.287997
0.16752
0.266876
-0.440431
0.173626
0.501594
-0.323154
-0.17841
-0.415083
0.453842
-0.0387371
-0.263996
0.126562
-0.0915983
0.0434368
-0.0857254
-0.0491838
0.162274
-0.179873
-0.484288
0.315135
0.169158
-0.150022
-0.255837
0.405901
-0.234667
0.0461279
0.207751
0.0626586
-0.0814096
-0.119764
0.201175
-0.4462
0.0696042
-0.414337
0.138753
0.275604
0.183988
0.31499
0.00538973
0.0256519
-0.0310417
-0.162143
-0.0830442
0.245189
0.132716
0.44316
-0.457019
0.0139176
0.122702
-0.122154
-0.0141007
0.213494
0.266857
0.0112879
0.203283
-0.190452
-0.0128297
0.195134
-0.297919
0.102797
0.528783
-0.161547
0.499122
-0.155332
0.0589417
0.0449843
0.200102
0.0951753
-0.295262
0.326018
0.158647
-0.484654
-0.0613266
-0.115692
0.17702
0.151799
-0.131694
-0.264218
0.395965
-0.16401
-0.367439
-0.152937
0.410221
-0.25728
-0.244025
-0.16238
-0.133643
-0.257524
0.391212
0.238613
-0.399128
0.160598
0.155279
-0.386836
0.231581
0.0931903
0.253998
-0.347131
0.141329
-0.342229
0.200911
0.211242
-0.197128
-0.0141098
0.337634
-0.35647
0.0188671
-0.0855956
0.285714
-0.145106
-0.182786
0.327891
-0.0202215
0.0256112
0.0099572
0.371804
-0.281773
-0.16651
0.0505876
0.0490763
-0.0996638
0.318592
-0.297574
-0.0209997
-0.444277
0.264727
0.179563
0.448908
-0.160895
0.322701
-0.45962
-0.117949
0.307469
-0.189507
0.0170122
0.301597
-0.41811
0.453683
-0.0355537
0.126625
0.147291
0.338159
-0.196816
-0.108225
0.295569
-0.187325
-0.0364236
0.0950837
-0.0244115
0.240696
-0.52169
0.299441
0.22227
0.238108
0.127578
-0.365657
-0.159268
-0.157597
0.316865
0.21321
0.286479
-0.464375
0.177905
0.168354
-0.070126
0.28713
0.142068
-0.429117
-0.0809963
0.191307
0.196472
0.0134366
-0.398888
0.260511
0.138433
0.272047
-0.428458
0.156462
0.213546
-0.429343
0.215823
0.316296
-0.170589
0.143053
0.00418402
-0.147236
-0.0458525
-0.418981
0.0303148
-0.373725
-0.185154
0.120509
0.0174858
0.185441
0.0178425
0.309962
-0.206469
-0.345973
0.221161
0.124817
-0.150785
-0.235712
-0.0592087
-0.0707741
-0.15656
0.379867
-0.223277
0.0573789
0.0632396
-0.120618
-0.0250148
0.117262
0.268745
-0.393373
0.124644
-0.253001
0.184637
0.0683647
0.101351
-0.427265
-0.0339163
0.461192
0.192934
-0.175971
-0.164181
0.450668
0.372897
-0.224405
0.148972
0.101643
-0.294113
0.192487
-0.281715
0.322602
0.49682
-0.194529
-0.302287
-0.321312
0.455348
-0.133964
0.383424
-0.233036
-0.342197
0.412345
0.489649
-0.388841
-0.15164
0.418573
-0.157384
0.429481
-0.0829974
0.367255
-0.129124
0.279248
0.155742
-0.434976
0.186572
0.0246732
0.287422
-0.18617
0.094957
-0.383867
0.288912
0.137264
-0.108241
-0.0310454
-0.382386
0.257823
0.499407
-0.431119
-0.0682806
-0.290412
-0.108423
0.0690003
-0.039394
0.277114
-0.516812
0.239741
-0.317184
0.439118
-0.121907
-0.256171
0.196844
0.0593339
0.503267
-0.319267
0.328273
-0.1403
0.210493
0.104068
-0.314546
0.215175
0.109285
-0.324434
-0.0738992
-0.180459
0.254361
0.271752
0.122249
-0.393952
-0.0130206
-0.146112
0.414416
0.0849977
0.342529
-0.00486333
-0.195208
0.00711396
0.188095
0.0714203
-0.00409887
-0.000146765
-0.305296
0.14603
-0.291408
0.473849
-0.0869306
0.324731
-0.237759
-0.244455
0.369798
-0.125339
-0.405002
-0.0382394
-0.0672323
-0.188932
0.245731
-0.360461
0.199238
0.276133
-0.475364
0.17162
0.144849
-0.316466
-0.382112
0.138166
-0.214556
0.369866
0.422286
-0.0310748
-0.226209
0.288523
-0.186863
-0.221203
0.36919
-0.147986
0.108865
-0.43385
-0.467771
0.331043
0.136786
-0.0992341
-0.271978
0.371218
0.303684
0.139231
0.00382315
0.242365
0.0645407
-0.306896
0.321184
0.175641
0.000395251
0.0130402
-0.0134355
0.0434695
0.243954
-0.196047
0.493259
-0.297207
-0.00850497
0.0761932
-0.462186
0.00434014
-0.0522068
-0.315213
0.171424
0.495342
-0.241173
-0.0820626
0.292567
0.392589
-0.317188
0.117626
-0.352528
0.23494
0.0821323
-0.155669
0.358605
0.13106
-0.236041
0.129376
-0.0935304
-0.384183
-0.0308793
0.309255
0.138466
-0.447717
0.405696
-0.132602
-0.092384
0.181146
0.147129
0.234257
0.134496
0.316089
-0.0596011
0.453842
-0.31182
-0.141946
-0.419182
0.25987
0.333988
-0.162367
-0.120741
-0.270886
0.391681
-0.0466959
0.0972836
0.20767
-0.387638
0.18
-0.257067
0.0796374
0.177436
0.156112
0.291864
0.354087
-0.146387
-0.139137
-0.328577
0.3485
-0.230841
0.209695
-0.174284
0.335058
-0.0926852
0.255301
-0.0725682
-0.182728
-0.207286
0.0312244
0.176065
0.13359
-0.391154
0.257583
0.224337
-0.376832
0.152553
0.51199
-0.243252
-0.268734
0.177967
0.247746
-0.425634
-0.375929
0.154727
-0.0259423
-0.426993
0.453073
-0.183895
-0.124276
-0.125246
0.216109
-0.476801
0.137483
0.500525
-0.338302
-0.162212
-0.411432
0.090189
0.0296314
0.0158792
-0.0455106
-0.384289
-0.0508358
0.0676713
0.357834
0.232791
0.0178025
-0.25059
0.30188
-0.15089
0.1737
-0.250167
0.428217
-0.19976
0.486452
-0.286643
-0.139288
-0.178032
0.317331
0.124149
0.263287
-0.387414
0.184757
0.346133
-0.111854
0.298199
-0.103053
0.243744
-0.369608
0.125897
0.0590805
-0.22388
0.0852056
-0.163388
0.279671
0.222245
0.133323
0.272891
-0.436408
0.163571
0.266906
-0.438476
0.171581
0.384551
-0.25094
-0.137321
-0.264278
0.401648
-0.314332
-0.182046
0.204418
-0.31265
0.108247
0.152609
-0.285594
0.187881
0.292903
-0.480772
-0.107361
0.0432875
0.0640738
0.000832752
0.12663
-0.368769
-0.153996
0.483944
0.228294
-0.19037
-0.0379233
0.0191155
-0.28786
0.268759
-0.16154
0.0896398
0.0718999
-0.244259
-0.125516
-0.140966
0.266496
-0.0375369
0.0109588
-0.337908
-0.15644
0.494419
0.438922
0.319362
0.177941
-0.0917056
-0.204994
0.278041
-0.416501
0.138469
0.165643
-0.432738
0.104454
-0.185448
0.375027
-0.100892
-0.274131
0.425166
-0.282417
-0.14274
0.202103
0.0261923
0.0646802
-0.0192872
-0.0453929
0.00896444
0.0122152
-0.327582
0.192474
-0.317626
0.175177
0.142477
0.0928731
0.192143
-0.284979
0.212513
0.145113
-0.357626
0.209332
0.293946
0.52963
-0.219578
-0.310033
0.1724
-0.188256
0.0158587
0.310243
-0.376199
-0.0418915
-0.175882
0.00574169
0.00727987
0.165103
-0.237753
0.0726555
0.0414893
-0.33497
0.293489
-0.16567
-0.318612
-0.180693
-0.0763671
0.340978
0.0841955
0.250539
-0.337427
-0.0716893
0.372984
-0.129215
0.248069
0.0469775
-0.295038
0.52982
-0.199569
0.260601
-0.133962
0.234781
0.103256
-0.338023
-0.247374
0.428791
-0.181415
0.256181
-0.247565
-0.00860093
0.254479
-0.400868
0.146448
-0.0912502
0.380955
0.4195
-0.110241
-0.217402
-0.304269
-0.286409
-0.203189
0.489614
0.00167161
-0.223167
0.221507
0.432861
-0.165945
-0.136901
0.353747
-0.216843
0.0117333
-0.0946658
-0.325143
0.352338
-0.0271935
-0.0253629
-0.0991283
-0.420935
0.172732
-0.300357
0.341855
-0.037354
-0.0542441
-0.392261
0.301012
0.240619
-0.363674
0.123084
0.0934897
0.192146
-0.144388
-0.19591
0.288821
-0.172791
0.174471
0.270289
-0.251158
0.0943347
0.215033
0.237947
-0.0294611
0.295189
0.234459
-0.509402
0.185891
0.323538
-0.271612
0.308483
-0.0368651
0.19486
-0.357996
-0.0629391
-0.291017
0.508883
0.316314
-0.111879
-0.42203
0.272051
0.103174
0.271807
-0.371036
0.232669
-0.154514
0.0345888
0.0498505
-0.0844393
0.251933
0.133501
-0.223371
-0.157087
-0.290214
0.143902
0.254982
-0.398845
-0.167958
0.413339
-0.144579
0.177872
0.0821077
0.310482
0.17442
-0.212902
0.0384824
-0.0786374
0.326711
-0.156436
0.378682
0.446195
-0.0454495
-0.213532
-0.0954308
0.308985
0.155517
0.249297
-0.404782
0.382224
0.0363513
0.173345
-0.0128268
0.0424582
-0.16261
-0.258862
0.011148
-0.0518307
0.272791
0.140566
0.0242749
-0.0058178
-0.0526807
0.04361
0.00907071
0.0118034
0.0528767
0.132983
-0.0743331
-0.0586494
-0.0725187
-0.0145046
-0.320992
-0.338589
-0.183409
-0.132579
0.122637
0.00994255
-0.245448
-0.416826
0.246102
0.253105
0.133886
-0.386948
-0.135294
-0.0429234
-0.228685
-0.15551
-0.137494
-0.377083
0.0438634
-0.368348
-0.00892442
0.0611693
-0.158933
0.0888334
0.0700991
-0.436242
0.268344
0.167898
-0.132927
0.122715
0.0102117
0.203978
0.119078
-0.323055
0.420971
0.140286
-0.407771
0.2675
0.125449
0.270163
-0.395549
0.0568038
-0.0983488
0.123749
0.374941
-0.447987
0.222646
-0.0360699
0.179135
-0.0146014
0.00928743
-0.0163763
0.00469394
-0.00363183
-0.0435821
-0.153651
0.197237
-0.0351017
0.222119
-0.187015
0.20278
0.233048
0.00182149
0.255919
0.000276954
0.311403
0.097019
0.238623
-0.391558
-0.217128
-0.110447
-0.00122096
0.11049
-0.109269
-0.0120692
0.224493
-0.0617897
-0.336643
0.259766
-0.465042
0.405771
-0.0461841
-0.0611769
-0.27933
-0.114032
-0.170069
-0.314536
0.17526
0.255145
0.119885
0.43529
-0.419404
-0.0157219
-0.382249
0.0599452
0.322305
-0.28476
0.15926
-0.382794
0.0536116
0.329183
-0.343071
0.54657
0.30751
-0.160271
-0.147229
-0.291884
0.0940161
0.197871
-0.210992
0.0100766
-0.0148086
0.00473197
-0.228333
0.236115
-0.324135
0.0880162
-0.00763714
-0.0379404
0.0455776
-0.210861
0.178551
0.0323131
0.158584
-0.17765
-0.239162
0.416816
-0.161731
0.421502
0.253656
0.133301
-0.386913
-0.15916
0.426486
-0.267229
-0.220515
-0.243501
-0.190824
-0.274138
0.499005
-0.203113
-0.295879
0.0884648
0.02227
0.27152
0.117195
-0.38871
-0.163603
0.0251066
0.16783
0.16596
-0.22424
0.0582822
0.194776
-0.0223737
-0.307386
0.0988215
0.208578
0.198943
0.1039
0.283416
0.164231
-0.447646
0.105942
0.201577
-0.137895
-0.250535
0.388452
-0.26088
-0.148213
0.409134
0.19858
0.098655
-0.332662
0.48039
-0.14768
-0.0150935
0.0698562
-0.0547624
0.179025
0.277959
-0.456952
-0.141313
-0.268641
-0.166903
0.435545
-0.25195
-0.175634
0.427599
-0.124801
0.320975
-0.277105
-0.481864
-0.0810161
-0.176456
0.25748
0.255454
0.126056
-0.381487
-0.411061
0.139153
0.329032
-0.0667231
-0.0726706
0.269
0.0986926
-0.367676
0.3179
-0.403193
0.0852943
-0.0249741
-0.0910516
-0.113574
0.317553
-0.0640984
0.0123536
0.0517448
0.166146
0.0810253
-0.247165
0.450706
-0.291167
-0.1595
-0.426988
0.09438
-0.0456372
0.038
-0.171485
0.14345
-0.278943
0.393715
-0.0758143
0.236908
-0.173562
-0.0633434
-0.0692929
0.4858
-0.163099
0.47109
-0.184531
-0.286525
-0.167499
0.45978
-0.292235
0.380704
-0.256534
-0.278803
0.359175
-0.0803473
0.317649
0.132826
-0.45047
0.422556
-0.152251
-0.199407
-0.17694
0.129952
0.269602
-0.399496
0.525801
-0.193995
-0.202943
0.460886
-0.257942
0.049177
-0.385152
0.335976
0.236376
0.262641
0.401722
-0.146246
-0.427884
-0.00545011
0.433339
-0.0347912
0.0437084
-0.0582004
0.014492
0.0559235
-0.418521
-0.0550265
0.0896153
0.431779
-0.364106
0.205271
0.0326782
-0.00897233
-0.416243
-0.0815048
-0.176232
0.160188
0.0160461
-0.00904123
0.0169563
-0.00791505
-0.143391
-0.266743
0.410176
-0.200438
-0.096206
0.296647
-0.311055
0.114688
0.011588
0.252264
0.360907
-0.436549
0.075644
0.406796
-0.262851
-0.14342
0.448566
-0.361806
-0.0155797
-0.168006
-0.0651413
0.0944088
-0.00354606
0.0916581
-0.0881118
0.108443
-0.336059
-0.487711
0.279969
0.458559
0.497326
-0.344845
-0.152462
0.0994482
-0.332813
0.233373
-0.279071
0.394504
-0.115363
0.0436781
-0.0456298
0.180949
-0.135317
-0.0844712
0.38292
-0.118345