/*--------------------------------*- C++ -*----------------------------------*\
| =========                 |                                                 |
| \\      /  F ield         | OpenFOAM: The Open Source CFD Toolbox           |
|  \\    /   O peration     | Version:  v2012                                 |
|   \\  /    A nd           | Website:  www.openfoam.com                      |
|    \\/     M anipulation  |                                                 |
\*---------------------------------------------------------------------------*/
FoamFile
{
    version     2.0;
    format      ascii;
    class       volScalarField;
    location    "400";
    object      nut;
}
// * * * * * * * * * * * * * * * * * * * * * * * * * * * * * * * * * * * * * //

dimensions      [0 2 -1 0 0 0 0];


internalField   nonuniform List<scalar> 
18355
(
0.000964036
0.00670715
0.000672998
0.00670602
0.00625353
0.00780545
0.00679575
0.00622231
0.00689996
0.010359
0.00270418
0.000551158
0.000525032
0.00536674
0.00677378
0.00670692
0.00670642
0.00491804
0.000667688
0.00671804
0.00213451
0.00680779
0.00669249
0.00797954
0.00669256
0.00679182
0.00679584
0.00670927
0.00687258
0.00259065
0.009064
0.00124676
0.00676884
0.00669381
0.00688169
0.00678368
0.00392961
0.00677754
0.00237471
0.00680604
0.00682697
0.00259138
0.0066957
0.00670292
0.00670434
0.000424523
0.00672391
0.00672159
0.00858922
0.00681303
0.00682822
0.00181965
0.00681248
0.000636398
0.00672326
0.00672491
0.0068605
0.00588046
0.00679241
0.000596026
0.00669552
0.000794415
0.000647244
0.00679476
0.00110442
0.00680033
0.00308622
0.00329417
0.00669383
0.00680515
0.00679607
0.00672475
0.00126524
0.00407418
0.00636652
0.00669606
0.00577248
0.00669807
0.00679081
0.00641867
0.00354807
0.00415435
0.00669563
0.00293301
0.00119962
0.00686817
0.00688485
0.00158713
0.00672783
0.00149322
0.00563689
0.00210974
0.00444848
0.00681371
0.0111491
0.00679335
0.00671223
0.00678357
0.000949868
0.00681454
0.00110785
0.00678494
0.00681307
0.00667468
0.0033857
0.006709
0.00116878
0.0114022
0.002827
0.00670369
0.00683643
0.00687097
0.00167163
0.00307286
0.000500805
0.00216055
0.00677948
0.00334077
0.00440196
0.00352614
0.0081849
0.000604685
0.00518214
0.00133389
0.00269569
0.000390928
0.00679519
0.00671264
0.000803115
0.00681769
0.00671441
0.00187141
0.00674488
0.00099941
0.000906545
0.0067328
0.000651085
0.00888005
0.00671789
0.00223833
0.00335998
0.0065875
0.00672424
0.00181465
0.000913818
0.00676967
0.000773219
0.0067032
0.00165932
0.0201034
0.00670788
0.00400563
0.00678737
0.00668613
0.00669787
0.00671761
0.00671644
0.00686709
0.00672572
0.00673528
0.00417345
0.0067482
0.00670371
0.00639051
0.00354168
0.0069002
0.00119718
0.00115707
0.0068483
0.00341864
0.00687142
0.0011002
0.0068639
0.00794703
0.00687437
0.00681047
0.00686245
0.00667102
0.00460632
0.00185567
0.00686261
0.0062881
0.00681615
0.00671442
0.00372105
0.00681377
0.00688713
0.00144175
0.00671265
0.006797
0.000447623
0.000980028
0.00671032
0.00672393
0.00671723
0.000614077
0.00678703
0.00158321
0.00670879
0.00481539
0.00681181
0.00662208
0.00240301
0.00687829
0.00103313
0.0068067
0.00867124
0.00671442
0.00675888
0.00678777
0.00681223
0.00248559
0.00676096
0.0068039
0.00670823
0.00729026
0.00196578
0.00347217
0.00681072
0.00672977
0.00253572
0.00671017
0.00176783
0.00702294
0.00246334
0.0067447
0.00671291
0.00950409
0.000987613
0.00138502
0.00678738
0.00344596
0.0129418
0.00671421
0.00651143
0.00353661
0.00527592
0.000386156
0.00282275
0.00680113
0.00671449
0.0038666
0.00680039
0.00148658
0.00680827
0.00672151
0.0067171
0.00182121
0.00608646
0.00680323
0.00677184
0.00635399
0.000464069
0.00705093
0.00667064
0.00790993
0.00277582
0.00678152
0.00673195
0.00670965
0.0200547
0.00551336
0.0013047
0.00331766
0.00227057
0.00552448
0.00639261
0.000771941
0.00670972
0.00672302
0.00679268
0.00670809
0.006622
0.00328269
0.00670551
0.00681184
0.00256702
0.00672947
0.000796554
0.00499175
0.00285699
0.00681522
0.00205605
0.00670557
0.00168851
0.00679188
0.00177484
0.00679747
0.00221605
0.0146013
0.00676315
0.00435177
0.00426104
0.00681218
0.00651725
0.00681097
0.00671912
0.000819766
0.00681247
0.00641217
0.00363279
0.0152002
0.0017206
0.00112541
0.00660028
0.00227943
0.00681208
0.00328602
0.00261124
0.00435883
0.00753598
0.000678984
0.00674715
0.00657643
0.000644673
0.00182756
0.00674528
0.00672124
0.00671381
0.00184067
0.00108959
0.0180385
0.00700434
0.00264925
0.00305814
0.00516075
0.00669745
0.00680274
0.00345891
0.00674664
0.00146198
0.0068844
0.00787601
0.00671711
0.00557945
0.00672169
0.00680905
0.00645689
0.000479577
0.00113985
0.00151604
0.00578686
0.00681074
0.00673045
0.00674418
0.00666482
0.0114436
0.006734
0.0067684
0.0116239
0.00681479
0.00673866
0.000435156
0.00667578
0.00671545
0.00679274
0.00152387
0.00682309
0.00168781
0.00675877
0.0067685
0.00681666
0.000540444
0.0034763
0.0067516
0.00671987
0.00638937
0.00671441
0.00687775
0.00610175
0.00429506
0.00252672
0.00674213
0.0057748
0.000506592
0.00678106
0.00758527
0.00307701
0.00674204
0.00635763
0.00660167
0.0068195
0.00675336
0.00481576
0.00681429
0.00673879
0.00671643
0.00168203
0.00679674
0.00386639
0.00683737
0.00671592
0.00663336
0.00679249
0.00144469
0.0118158
0.00666224
0.00678324
0.000468517
0.00668267
0.00672589
0.00688264
0.00454626
0.00671343
0.00221996
0.00679672
0.00287404
0.00468843
0.00404762
0.00129984
0.000952751
0.00667876
0.0182148
0.00681402
0.00670558
0.00215483
0.00671247
0.00633959
0.00680809
0.00124293
0.00671253
0.00115625
0.00976767
0.00153576
0.0067724
0.00672139
0.00131393
0.00448973
0.00679799
0.00873553
0.00514519
0.00670463
0.00448828
0.00149859
0.00671928
0.00679132
0.00156409
0.00285437
0.00267509
0.00681505
0.00681286
0.00494397
0.0067897
0.00674024
0.00679751
0.00199309
0.0103553
0.00673708
0.00683383
0.00675284
0.000460467
0.00658175
0.00672795
0.00637868
0.00175747
0.00676122
0.000625327
0.000761621
0.0068142
0.00680656
0.00282922
0.000430056
0.0161628
0.00673377
0.00467444
0.00672757
0.00673905
0.0015711
0.00410585
0.00168533
0.00130405
0.00376366
0.00374345
0.00602
0.000445748
0.00418019
0.00284611
0.00681143
0.00673009
0.00680963
0.00673502
0.000834796
0.0121018
0.00120644
0.00450347
0.00681385
0.00681227
0.00678287
0.00659899
0.00677949
0.00676579
0.00671956
0.00164388
0.00671743
0.00677751
0.0171346
0.00179417
0.000611171
0.00681642
0.00685379
0.00162422
0.00681037
0.020135
0.000207387
0.00662309
0.00286921
0.00440642
0.005247
0.0037054
0.00471637
0.00163034
0.00680421
0.0122256
0.00680893
0.00123085
0.0173224
0.00301888
0.00679448
0.00544332
0.00670654
0.00140545
0.00118475
0.0100818
0.00418085
0.00681005
0.00676014
0.00807151
0.0140367
0.00847765
0.00373654
0.00661157
0.00675696
0.00297345
0.0067216
0.00663108
0.00217733
0.00636026
0.0136121
0.0122443
0.0051618
0.00123751
0.00163327
0.00672415
0.00672382
0.00475601
0.00649301
0.0067964
0.00671987
0.0066363
0.00671258
0.0120729
0.0064493
0.000994076
0.000472904
0.00672433
0.00304289
0.00100781
0.00671932
0.0168001
0.00674513
0.00194702
0.00169928
0.00680014
0.00150703
0.000840386
0.000913914
0.00685601
0.00669878
0.00510085
0.00274098
0.000929991
0.00671289
0.000889491
0.00671249
0.000239977
0.00691099
0.00678142
0.000480902
0.00654028
0.00495696
0.00685852
0.0026941
0.00677864
0.00728937
0.0181496
0.00362395
0.00703667
0.00686801
0.0020137
0.00681946
0.00358341
0.0123216
0.00669815
0.00598616
0.00681187
0.00685879
0.00350611
0.0199807
0.00679136
0.000945084
0.00677395
0.00280544
0.0123969
0.00670159
0.00671759
0.00284919
0.00153911
0.0176127
0.00126178
0.00681403
0.00671851
0.00680112
0.00412617
0.00680319
0.00679852
0.000989104
0.0019218
0.00677643
0.00282846
0.00265967
0.00325024
0.000536461
0.00674553
0.00108594
0.00804824
0.00673212
0.0133576
0.0047192
0.000749461
0.00767931
0.00679758
0.00680102
0.00686882
0.00498282
0.0018969
0.0067849
0.00529119
0.000967822
0.00681694
0.00462582
0.00680754
0.00488965
0.0202981
0.00730185
0.00707757
0.00648995
0.00135954
0.00510376
0.0029171
0.00672003
0.00230858
0.00749149
0.0065345
0.00158853
0.00677827
0.000964408
0.00675582
0.00681387
0.0207515
0.00686123
0.0021501
0.00562994
0.000922951
0.00673434
0.00671057
0.00378358
0.00254629
0.00671733
0.00678079
0.00143974
0.000614407
0.00406187
0.00682593
0.00139723
0.0114255
0.00676731
0.00609136
0.000516372
0.00675897
0.00604798
0.0067359
0.000683299
0.00672874
0.00681124
0.000498201
0.00400933
0.00333541
0.00412487
0.00671067
0.00828314
0.00672858
0.00670168
0.00676819
0.0067216
0.00200379
0.00166278
0.00139949
0.00687367
0.0160086
0.00675005
0.00595811
0.00516351
0.00679002
0.00674433
0.00270547
0.00678296
0.000584221
0.00672322
0.00670343
0.00673876
0.00678001
0.00671887
0.000683013
0.00389067
0.004199
0.00671712
0.00657032
0.00444323
0.00658924
0.00604991
0.00671311
0.000806748
0.00122839
0.00671709
0.00535804
0.0204386
0.00682195
0.00656197
0.00686254
0.012294
0.00291133
0.00672884
0.00505943
0.00241088
0.00606298
0.00683535
0.00283161
0.00834096
0.00111132
0.00290914
0.00671857
0.00957718
0.000877847
0.00120903
0.00671353
0.00453903
0.00679797
0.00680162
0.00674044
0.00688102
0.00670044
0.00630457
0.00658307
0.00675766
0.0066931
0.00682069
0.00681684
0.00108877
0.000994989
0.00676429
0.00253285
0.00681278
0.00681398
0.00678616
0.00672176
0.00568275
0.00669543
0.00671409
0.00687451
0.00681373
0.0066163
0.00680293
0.000472827
0.00221472
0.00348102
0.00671239
0.000431013
0.00670115
0.00669622
0.00680361
0.00348989
0.0042353
0.00680073
0.00674361
0.00670835
0.00352021
0.0066931
0.00354703
0.00672138
0.00681927
0.00673622
0.00415266
0.00441283
0.00671962
0.00681092
0.00677421
0.000779478
0.0111193
0.00300906
0.0068039
0.00668199
0.00613594
0.00612172
0.00315558
0.00687219
0.00756691
0.00681014
0.0107411
0.00678191
0.00675188
0.00677412
0.00903234
0.00676772
0.00337195
0.00690525
0.000449448
0.00128483
0.00690538
0.0067778
0.00686126
0.00676321
0.002697
0.000605033
0.00784432
0.00423485
0.00675533
0.00669552
0.00688835
0.00673257
0.00676593
0.00681288
0.00419712
0.00665273
0.00595806
0.00675333
0.00673418
0.00152622
0.00672012
0.000477473
0.00426037
0.00140761
0.000494182
0.00051336
0.00220724
0.00672662
0.00669641
0.00680748
0.00671706
0.00551394
0.00223019
0.000623627
0.00674142
0.00681233
0.00674663
0.00677188
0.00251346
0.00701651
0.00669871
0.00677222
0.00683331
0.0067391
0.00673427
0.00679294
0.000447823
0.00675631
0.00679906
0.00673987
0.00669829
0.00674346
0.006797
0.003888
0.00669785
0.00666887
0.00674424
0.00726833
0.000557295
0.0063458
0.00626009
0.00676538
0.00575593
0.00149226
0.00673198
0.00674501
0.00676437
0.00669282
0.00695057
0.0068732
0.0022204
0.0038769
0.00680645
0.00680211
0.00673322
0.0115665
0.00534507
0.00687202
0.00678354
0.00646999
0.00184107
0.00672945
0.000936903
0.00673257
0.00671101
0.00356299
0.00431225
0.00528933
0.0114362
0.000416253
0.00671804
0.00755526
0.00130326
0.00589582
0.00676431
0.00133705
0.00663156
0.000476079
0.00419462
0.00683224
0.00671842
0.00673598
0.00678707
0.0067236
0.00610425
0.00870162
0.00669467
0.00680912
0.00680837
0.00420574
0.00677634
0.00679694
0.00730892
0.00679145
0.00679974
0.00853257
0.000677657
0.000857674
0.00671294
0.00671636
0.00669987
0.00677137
0.00669407
0.00656249
0.00673232
0.0067457
0.00678069
0.00884024
0.00669821
0.00671996
0.000905418
0.00673806
0.00670413
0.0067256
0.00205391
0.00671382
0.00673571
0.00670034
0.00690839
0.00671056
0.00309171
0.000463763
0.00672132
0.000719753
0.00322799
0.000428139
0.00201443
0.00670919
0.00528595
0.00673539
0.00670305
0.00670582
0.00894057
0.0122537
0.00636289
0.00348895
0.00712816
0.0010428
0.0067929
0.000654815
0.00259557
0.00658785
0.00675724
0.00271443
0.00427369
0.00678835
0.00676608
0.000698478
0.00194241
0.00143849
0.00670525
0.000734769
0.00825231
0.006698
0.00206136
0.00361494
0.00675088
0.00296661
0.00995264
0.00669402
0.00430066
0.00288784
0.0155099
0.000671093
0.00677585
0.0068652
0.00679893
0.00123058
0.0065615
0.00680361
0.00686622
0.003154
0.00140954
0.00339673
0.0195506
0.00670284
0.0110301
0.00582637
0.00676885
0.00672992
0.00677723
0.00676844
0.00673507
0.00682021
0.000648873
0.00673068
0.0117955
0.00344595
0.00680403
0.00680737
0.000733118
0.00675969
0.00681072
0.0067933
0.00963652
0.00273237
0.00403533
0.00679986
0.0098119
0.00670283
0.00161581
0.00679483
0.00144962
0.00199816
0.0171515
0.00253459
0.00679792
0.00664306
0.00373978
0.006632
0.00669775
0.00672484
0.0026152
0.0123626
0.00669152
0.00281108
0.00683405
0.00331904
0.00672797
0.00672632
0.00679264
0.00556783
0.00675273
0.0014484
0.00136799
0.00655629
0.00048606
0.00214876
0.00505816
0.00725837
0.00677557
0.000591178
0.000623216
0.000443457
0.00672288
0.00677441
0.00679117
0.0162829
0.00685846
0.0067462
0.000754219
0.00680556
0.00679344
0.00682445
0.00587546
0.00672683
0.0183829
0.0129817
0.0017504
0.00670421
0.00677083
0.00109187
0.00677815
0.00705918
0.00681409
0.00678605
0.00517521
0.00660214
0.000462032
0.00680334
0.00675626
0.00525449
0.00681492
0.0068133
0.00212267
0.00174463
0.00958013
0.00673725
0.00680709
0.0155147
0.00766965
0.000936421
0.00680044
0.00393109
0.000438692
0.00676776
0.00582212
0.00669503
0.00842934
0.00367706
0.00678056
0.0067744
0.006769
0.0141562
0.00675337
0.00679184
0.00991251
0.00676607
0.00450538
0.00676333
0.00492191
0.00676155
0.00672032
0.00673826
0.00674942
0.00678202
0.00681423
0.0067687
0.00681888
0.00295339
0.00286852
0.00684739
0.00680132
0.00494808
0.00673534
0.0158458
0.00681305
0.00677981
0.00686648
0.00677349
0.00681679
0.00680046
0.00679687
0.00674839
0.0067735
0.00673757
0.0146448
0.00610916
0.00680403
0.0127013
0.00507344
0.00687815
0.00680819
0.00511561
0.0115392
0.00676336
0.00677676
0.00669472
0.00672031
0.000836441
0.00678651
0.00674976
0.000669839
0.00669939
0.00675364
0.00723221
0.00729709
0.00147545
0.000469661
0.015425
0.00676624
0.00873506
0.00327595
0.0067398
0.00670021
0.00681543
0.0067253
0.0021761
0.00170268
0.00666063
0.00689888
0.0206594
0.00166874
0.00384929
0.00774655
0.00671302
0.00162951
0.00679281
5.0116e-05
0.00209038
0.00670989
0.00775228
0.00670554
0.00432469
0.000473783
0.00677121
0.00629803
0.00268764
0.00415844
0.00680078
0.00576989
0.00672903
0.0117507
0.00672482
0.00674911
0.0101526
0.0067591
0.00673182
0.00591443
0.00264669
0.0067081
0.00671705
0.00413689
0.00591416
0.00680105
0.00678571
0.00676119
0.00346313
0.00672017
0.00479992
0.00498831
0.00674111
0.00292779
0.00681859
0.00663661
0.00708468
0.00670513
0.0055306
0.000674612
0.00681325
0.00681074
0.00656199
0.0201166
0.00679209
0.00670894
0.00671889
0.0052597
0.0014398
0.00675949
0.00670538
0.00673868
0.00669799
0.00671715
0.00676088
0.00289517
0.00649868
0.00222696
0.00680923
0.00608021
0.00676076
0.00689491
0.0101439
0.00193336
0.00671646
0.000835767
0.0069208
0.00670527
0.00858015
0.00680961
0.00153528
0.00671271
0.000486229
0.00679384
0.00673495
0.00671522
0.00484477
0.00162829
0.00681184
0.00122264
0.0067132
0.00679712
0.00670302
0.000498361
0.00685801
0.00670365
0.00680834
0.00454185
0.00672008
0.00679225
0.00675165
0.00680153
0.00681004
0.00673004
0.00638774
0.00676314
0.00414698
0.00153887
0.00675451
0.00462575
0.0034788
0.00672218
0.0067671
0.00689717
0.00677658
0.00358243
0.00264584
0.00312567
0.00313758
0.00681434
0.000946882
0.00047046
0.00673821
0.00679607
0.000814627
0.00659546
0.0197228
0.00670801
0.00677616
0.00677415
0.00680426
0.00673289
0.00285963
0.00670538
0.00726356
0.00677385
0.00660557
0.00679364
0.000532781
0.00677946
0.00306971
0.00678583
0.00680059
0.00838374
0.00904492
0.00669204
0.00364292
0.00235572
0.00675986
0.00145033
0.00678754
0.00340992
0.00741523
0.00188746
0.00544853
0.00733627
0.00462923
0.0067947
0.00203004
0.00677194
0.00790202
0.00665028
0.0068755
0.00675862
0.00469376
0.0013043
0.00672679
0.00674521
0.000630011
0.00682918
0.00670254
0.00892194
0.00170199
0.00670731
0.00116619
0.00670072
0.0051159
0.00186108
0.00672338
0.00673184
0.00676138
0.00226343
0.00673765
0.00295954
0.00672948
0.00672193
0.00671113
0.00493565
0.00679732
0.0067918
0.00681201
0.00106887
0.00297889
0.00674158
0.00672112
0.000598264
0.00672173
0.00669227
0.00186086
0.0017007
0.00553355
0.000479625
0.00676604
0.00198203
0.00677277
0.00192608
0.00927872
0.00677371
0.0068062
0.00675051
0.00336194
0.00673274
0.00804914
0.00235225
0.00669432
0.00679
0.00670779
0.00676859
0.0194654
0.00673448
0.00674946
0.00432524
0.00257696
0.00673553
0.006818
0.00321778
0.00920632
0.00681949
0.00679208
0.00671903
0.00672835
0.00358178
0.00151663
0.00681492
0.00672762
0.00680744
0.00679719
0.00674921
0.0173465
0.00681442
0.00680779
0.00672446
0.00177931
0.00670207
0.00669226
0.00319238
0.00680009
0.00267232
0.00678293
0.00673993
0.00783341
0.0083033
0.00216436
0.00570638
0.00680514
0.00680963
0.0209623
0.0067672
0.00317339
0.00676261
0.00874508
0.00667192
0.00321831
0.00673719
0.00398318
0.00126155
0.00768356
0.0191711
0.00677949
0.00138202
0.00681468
0.00680545
0.0210815
0.00511845
0.00671032
0.00670047
0.0037577
0.00477652
0.00672008
0.00680747
0.00676783
0.00676761
0.000706028
0.0142642
0.00681751
0.00690379
0.00205006
0.00389036
0.00662357
0.0067462
0.00401651
0.00302518
0.00670846
0.00678276
0.00392601
0.0067077
0.0067056
0.00679606
0.00386167
9.40536e-05
0.00328967
0.00680863
0.00681781
0.00247687
0.00673131
0.00252998
0.00123149
0.00587665
0.00668769
0.00616891
0.00669656
0.00672718
0.00580127
0.00677405
0.00681707
0.00671418
0.0081993
0.00670678
0.00542847
0.00678704
0.0067103
0.00671664
0.00681889
0.00615561
0.00234001
0.000935485
0.00675417
0.0173672
0.00688497
0.00673421
0.00673724
0.0108432
0.000517502
0.00674288
0.00674808
0.00680219
0.00677863
0.000467345
0.00556768
0.00681343
0.00678632
0.000470799
0.0189979
0.00680235
0.00672125
0.00126231
0.00361654
0.00521332
0.00572712
0.00672936
0.00171889
0.0070515
0.00853588
0.00698406
0.00557638
0.00671095
0.00679697
0.00686621
0.006787
0.00365581
0.00681895
0.00678201
0.00670844
0.00679917
0.00677335
0.00681637
0.00679405
0.00422244
0.00681062
0.00672965
0.00679998
0.00253728
0.0069531
0.00670904
0.00675107
0.000654858
0.00680308
0.00678907
0.00680187
0.00399759
0.00669272
0.00435927
0.00669594
0.00674092
0.00680817
0.0151558
0.0033623
0.00678102
0.00670512
0.00384662
0.00182151
0.0067086
0.00234426
0.00143288
0.00670598
0.000594249
0.00676447
0.00671285
0.00676099
0.00680674
0.00346389
0.00222731
0.0146713
0.00696117
0.00674785
0.00674197
0.00678728
0.002607
0.00561225
0.0052843
0.00671103
0.00672933
0.00671837
0.00110013
0.00679771
0.00679464
0.00678224
0.000478664
0.00669364
0.0161279
0.00670841
0.00689645
0.00678893
0.00265282
0.00670589
0.00364813
0.00557197
0.00664602
0.00674779
0.00317244
0.00675186
0.00686409
0.0195283
0.00551329
0.00670267
0.00671777
0.00657264
0.00671171
0.00681019
0.00542489
0.00680489
0.00680159
0.00200533
0.00553754
0.00331975
0.00648343
0.00681611
0.00670503
0.00670939
0.00689751
0.0032318
0.00672557
0.0105001
0.00680261
0.0203487
0.00205302
0.00678195
0.00676425
0.00675803
0.00166991
0.00679008
0.00661796
0.00680733
0.00679545
0.00572421
0.00667609
0.00664775
0.0068018
0.00678145
0.003726
0.0067447
0.00666978
0.00671229
0.00687663
0.00595574
0.00681283
0.0130668
0.00656875
0.00892483
0.00670934
0.0072663
0.00678191
0.00990434
0.0010007
0.00909044
0.00673958
0.00675665
0.0025544
0.00683401
0.0105456
0.00460895
0.00283801
0.00600201
0.015896
0.0173443
0.0038309
0.00665337
0.00671701
0.00669453
0.00536574
0.0067638
0.00681111
0.00412919
0.00670855
0.00650496
0.00345668
0.00817865
0.00673019
0.00749678
0.00669772
0.0067201
0.00679269
0.000719144
0.00681957
0.00460335
0.00682913
0.00680114
0.0137504
0.00671399
0.00643513
0.00675656
0.00673318
0.00899947
0.00638361
0.0147874
0.00676369
0.00104401
0.00394727
0.00671008
0.00679709
0.00699649
0.00670806
0.00672511
0.00383593
0.00671285
0.01388
0.00670767
0.000637189
0.000217875
0.00102144
0.00268362
0.00140709
0.00722796
0.006764
0.00424133
0.00671849
0.0108729
0.00681525
0.00442449
0.0159897
0.0167014
0.0023443
0.0112977
0.00671239
0.00835544
0.00668621
0.00217123
0.00670781
0.00669663
0.00282451
0.0067952
0.00671386
0.00680123
0.00679047
0.00238891
0.00957712
0.0018845
0.00599249
0.00683133
0.00537843
0.00673172
0.00677321
0.00679862
0.00686458
0.0114513
0.00681518
0.00670961
0.00193672
0.00595522
0.0126191
0.00100749
0.00672184
0.00379026
0.00360663
0.00673445
0.00675471
0.00350718
0.00671975
0.00154707
0.00231891
0.00673114
0.00667236
0.00671205
0.00688922
0.00159787
0.00680551
0.00675793
0.0040992
0.00677555
0.00673876
0.00712405
0.00216753
0.0144941
0.00325369
0.00163236
0.00311761
0.00672596
0.00639318
0.00679895
0.00670807
0.00430448
0.00693284
0.007449
0.00248333
0.00677916
0.000416229
0.010752
0.00680215
0.00666547
0.00694726
0.019805
0.00671555
0.00679493
0.00681565
0.00709793
0.00679254
0.00683037
0.0036915
0.00681397
0.00670807
0.00679206
0.0121871
0.00589471
0.00679494
0.00983182
0.0067856
0.006754
0.00369009
0.00674722
0.00672327
0.00680445
0.00137786
0.000582973
0.00681252
0.00663384
0.00042106
0.00680092
0.00680775
0.00383113
0.00679878
0.0118232
0.0144719
0.00343232
0.000858538
0.00487443
0.00676993
0.00670593
0.00931622
0.0068949
0.00224572
0.00680204
0.00670398
0.0130493
0.00278813
0.00670727
0.00672362
0.00196234
0.0070009
0.006686
0.00675745
0.0197389
0.00384983
0.00446946
0.00670122
0.00351611
0.00669478
0.00668294
0.0025186
0.00670836
0.0104986
0.00550739
0.00313404
0.000638754
0.00748816
0.000672608
0.00670848
0.00136714
0.0033181
0.00682521
0.00677721
0.00667877
0.00677797
0.00676643
0.00588069
0.00368251
0.00564454
0.0067332
0.000418134
0.0066988
0.00585658
0.000664018
0.00335603
0.000495541
0.00706944
0.0047201
0.010477
0.0203644
0.00671017
0.0142239
0.00133674
0.00670032
0.00675274
0.00154673
0.0122256
0.00679034
0.00671429
0.00678042
0.00676055
0.0208274
0.000427422
0.00667009
0.00672744
0.00670736
0.000458991
0.00192368
0.0157013
0.00673103
0.000664534
0.00681419
0.000893037
0.0158398
0.00686385
0.0067701
0.00679412
0.0150788
0.00671826
0.00670602
0.00675543
0.00668299
0.00665173
0.0123658
0.00649188
0.00681739
0.00671716
0.00289283
0.000422164
0.00147194
0.00670804
0.00679743
0.000455374
0.00219108
0.00678777
0.00527886
0.00229365
0.00450153
0.0201073
0.0038236
0.00241424
0.00614416
0.00855746
0.00678259
0.00681357
0.00222814
0.00308683
0.0067057
0.00671198
0.00669444
0.0017205
0.00057035
0.00672372
0.00671032
0.00679411
0.00107334
0.00697812
0.00668657
0.00672148
0.00671271
0.00696459
0.00228577
0.00680471
0.00680594
0.0201325
0.00672596
0.00327216
0.00281303
0.00177724
0.00661435
0.006776
0.00675103
0.00540044
0.00070494
0.00106562
0.012287
0.00284598
0.00671054
0.0120878
0.00674486
0.000940998
0.0197433
0.00697176
0.00671006
0.00358152
0.001079
0.00672968
0.00680542
0.0113475
0.00671904
0.00682349
0.0067936
0.00677756
0.00675768
0.00102036
0.000499402
0.00674551
0.00670933
0.000418036
0.00672807
0.00678713
0.00670767
0.00675361
0.00223319
0.00704852
0.00421097
0.00689027
0.00565567
0.00678336
0.00208542
0.000580431
0.00342067
0.000523501
0.00681944
0.00364239
0.0125506
0.00670745
0.00669117
0.00680602
0.00674415
0.00681361
0.00671725
0.00675786
0.0193614
0.0068271
0.00672193
0.00687068
0.00675717
0.00579331
0.00681461
0.018538
0.000552804
0.00708037
0.00380135
0.00691345
0.0068179
0.00675672
0.00549358
0.00670471
0.00594041
0.00683362
0.00681119
0.010835
0.00669624
0.00674302
0.00445746
0.00026241
0.00681469
0.00670453
0.000427748
0.00678466
0.00692333
0.00671215
0.00670718
0.00686714
0.00671742
0.00682148
0.000402738
0.00299924
0.00702592
0.00670329
0.00679957
0.006679
0.0105454
0.00674516
0.0014353
0.00671971
0.0175701
0.000482848
0.00675763
0.00043196
0.00678308
0.00423378
0.0065564
0.000748631
0.00704486
0.00369519
0.00395963
0.0130563
0.0068143
0.00197917
0.00673839
0.00360007
0.000492303
0.000760736
0.00680675
0.00176149
0.00837891
0.00863131
0.00675361
0.00355695
0.00968461
0.00986697
0.00674017
0.00126913
0.00676086
0.00330785
0.00680328
0.00683483
0.00682734
0.00691498
0.00681419
0.00585938
0.00226163
0.0133175
0.00693565
0.000500857
0.00846621
0.00672817
0.00873531
0.00171495
0.00675641
0.00671121
0.0137076
0.00680814
0.00675338
0.00671098
0.00139729
0.00669845
0.0067187
0.00118575
0.00678251
0.00681755
0.00670571
0.0067205
0.00453202
0.0067924
0.0211547
0.0070917
0.0066836
0.00679639
0.00191817
0.0111475
0.00680587
0.00681774
0.0114203
0.000585997
0.00671806
0.00328029
0.00669832
0.00670639
0.0036311
0.000445602
0.00670792
0.00679885
0.0111289
0.00583673
0.00235497
0.00707884
0.00675392
0.0112932
0.00678087
0.00377969
0.00349141
0.0067991
0.0143207
0.0012058
0.00478788
0.00708936
0.00273279
0.00675135
0.00672951
0.00672445
0.00189734
0.00499638
0.00671088
0.00136206
0.00950002
0.00110575
0.00679903
0.00416821
0.000646512
0.00680155
0.00332833
0.014947
0.00671941
0.00672416
0.00679297
0.000377821
0.00679945
0.00690796
0.00681108
0.00650632
0.00205185
0.012331
0.00675463
0.00672755
0.00292061
0.00680866
0.0074792
0.00676134
0.000634566
0.000515953
0.00670659
0.0067656
0.0158499
0.00214788
0.00434893
0.00669947
0.00671226
0.00685394
0.00674763
0.00672805
0.00671897
0.006815
0.00679178
0.00674532
0.00672612
0.00117601
0.00659037
0.00578567
0.00401811
0.00154041
0.00262683
0.00305258
0.00217724
0.000622095
0.00387077
0.00678771
0.00237398
0.00672576
0.0110792
0.00679267
0.00669462
0.00680196
0.0101146
0.00680645
0.00997345
0.00681581
0.0067059
0.00121871
0.00675103
0.00672659
0.00675203
0.00712717
0.000434372
0.00681366
0.00680035
0.00395895
0.0134887
0.00260217
0.0119218
0.00679981
0.00272635
0.00682082
0.0067617
0.00674822
0.0067018
0.00671286
0.00705195
0.00502641
0.00677187
0.00679017
0.000526592
0.000446577
0.000493462
0.00680468
0.00062154
0.00222102
0.00785616
0.00671114
0.00679782
0.00702412
0.00588316
0.0066919
0.00677003
0.00670239
0.00671458
0.000497425
0.00690751
0.000861631
0.00678989
0.00668629
0.00707048
0.00671787
0.00573441
0.0068309
0.00666058
0.00606318
0.00350897
0.00479458
0.0017921
0.0122627
0.00671003
0.00148822
0.0039157
0.00670736
0.00680942
0.0026616
0.00668654
0.0177092
0.0066383
0.0067986
0.00191421
0.00671014
0.00674693
0.00688985
0.00683482
0.00675458
0.00494774
0.00679388
0.00669933
0.00674574
0.00680121
0.00309825
0.00678233
0.000601285
0.00674372
0.00671576
0.00296136
0.00247954
0.0064786
0.00669299
0.00671873
0.00689621
0.00358605
0.011717
0.00218391
0.00606277
0.00529673
0.00671997
0.00390278
0.00671959
0.00684437
0.000496756
0.000412693
0.00172509
0.006707
0.00681056
0.00606059
0.00669658
0.00179202
0.00670317
0.00132658
0.00589316
0.000675767
0.00366478
0.00044592
0.00681605
0.00119148
0.0176932
0.0122246
0.00553211
0.00285701
0.0143713
0.00139559
0.00616295
0.00229158
0.00973237
0.00677531
0.0066999
0.00674535
0.00319229
0.00247821
0.00679776
0.0066267
0.00816324
0.00666996
0.00673441
0.000673222
0.00985997
0.000611098
0.00576383
0.0121323
0.00534593
0.000920622
0.00659201
0.00654494
0.00785027
0.00689607
0.0141879
0.00344445
0.00321698
0.00681928
0.00673326
0.00706369
0.00679301
0.0165835
0.00668851
0.00672327
0.00672259
0.00738719
0.0123014
0.00690352
0.00680692
0.00675727
0.00678463
0.0204452
0.00683726
0.00680084
0.00374359
0.0024418
0.00669823
0.000982619
0.0155543
0.0133499
0.00676708
0.00464644
0.00679326
0.00707136
0.0066972
0.00810047
0.00687051
0.000938081
0.00448113
0.00149202
0.000590078
0.00471527
0.00670114
0.00689186
0.00347854
0.00672202
0.00669928
0.00330969
0.00679931
0.00741283
0.00669587
0.00677533
0.00672828
0.00671739
0.00609075
0.00671526
0.00668547
0.00682091
0.00585227
0.0048854
0.00222141
0.00460766
0.00397043
0.000819678
0.00679342
0.00671877
0.000876867
0.0027541
0.00668547
0.00141303
0.00378039
0.00842212
0.00671625
0.00521451
0.00687649
0.00674573
0.00668682
0.00668634
0.00672263
0.00670703
0.0105828
0.00112863
0.00681268
0.0067121
0.00673397
0.00690216
0.00333796
0.0167572
0.00679439
0.00678043
0.00694143
0.0144622
0.00681431
0.00316403
0.00671778
0.00671524
0.00198296
0.00671885
0.00679301
0.00679366
0.00680042
0.0100815
0.00671278
0.00671541
0.00612336
0.0106064
0.00392008
0.00685858
0.00678043
0.00349035
0.0179602
0.00383579
0.00681586
0.00681748
0.0119553
0.00557421
0.00681053
0.00541366
0.00680016
0.00336874
0.00686229
0.00679837
0.00675277
0.00271095
0.002549
0.00674725
0.00672946
0.00678975
0.00670879
0.00634398
0.00685764
0.00672044
0.00667891
0.00679424
0.00668711
0.00674511
0.000934505
0.00675268
0.00692119
0.00382043
0.000480898
0.0067076
0.00477846
0.00217183
0.0036287
0.000614776
0.00679908
0.00682238
0.00530603
0.00671637
0.00678483
0.00693752
0.00677698
0.0181129
0.0148266
0.00108484
0.000583526
0.00672718
0.00219291
0.00771032
0.00674825
0.00676085
0.0079806
0.00594981
0.00670621
0.00670958
0.00464584
0.00679593
0.00057633
0.00463861
0.01618
0.00676418
0.0068127
0.00675002
0.00682292
0.0183176
0.00780081
0.0134351
0.00340305
0.00643068
0.0167868
0.00673907
0.00670474
0.00672489
0.00670777
0.00586909
0.00333601
0.00670183
0.00873871
0.00679934
0.00677953
0.00671727
0.00256077
0.00679553
0.0200051
0.00675186
0.00674732
0.00492749
0.00668598
0.0165346
0.00314264
0.00309041
0.0174863
0.00594929
0.00167061
0.0188503
0.00683368
0.0190627
0.00329117
0.00671522
0.00518246
0.00686882
0.0144676
0.020116
0.00682214
0.00656619
0.00694398
0.00672897
0.00671246
0.00414723
0.0182741
0.00626506
0.00680929
0.00676982
0.000680055
0.00667657
0.00103231
0.00113747
0.000872778
0.00668571
0.000448524
0.00682113
0.00577815
0.00115302
0.00509068
0.00855549
0.00993226
0.0130263
0.00669074
0.00087798
0.00678424
0.00668061
0.000484519
0.0067158
0.00558774
0.00671911
0.000954733
0.00674117
0.000539003
0.00668645
0.00669215
0.00917573
0.00307745
0.00346879
0.0140708
0.00605373
0.00668719
0.00602474
0.000651189
0.00387574
0.00054192
0.00671818
0.00345444
0.00681916
0.00160307
0.00673859
0.00681736
0.00671186
0.00429077
0.0022569
0.00681034
0.0136896
0.00678202
0.00678943
0.00365166
0.00154172
0.00671843
0.00776739
0.00680362
0.0202921
0.00678196
0.00307827
0.00671958
0.00245244
0.00671717
0.000994032
0.00347103
0.0055833
0.00670266
0.0068163
0.0128145
0.00669066
0.00661553
0.00598752
0.00677019
0.000936111
0.000646672
0.000646794
0.00678775
0.00670632
0.00671606
0.000688254