/*--------------------------------*- C++ -*----------------------------------*\
| =========                 |                                                 |
| \\      /  F ield         | OpenFOAM: The Open Source CFD Toolbox           |
|  \\    /   O peration     | Version:  v2012                                 |
|   \\  /    A nd           | Website:  www.openfoam.com                      |
|    \\/     M anipulation  |                                                 |
\*---------------------------------------------------------------------------*/
FoamFile
{
    version     2.0;
    format      ascii;
    class       volScalarField;
    location    "400";
    object      omega_0;
}
// * * * * * * * * * * * * * * * * * * * * * * * * * * * * * * * * * * * * * //

dimensions      [0 0 -1 0 0 0 0];


internalField   nonuniform List<scalar> 
18355
(
0.16093
0.0204346
0.231739
0.0210096
0.0345039
0.647777
0.0215458
0.0346139
0.0220192
0.400088
0.0254042
0.110178
0.118296
0.302728
0.021085
0.0202012
0.0210061
0.023689
0.151434
0.0225837
0.143345
0.0219183
0.020459
0.663476
0.0204694
0.0220341
0.0215873
0.0210151
0.0222108
0.0260877
0.732319
0.0456128
0.0203555
0.0200691
0.0210693
0.0221967
0.0265705
0.0222692
0.0265496
0.0218215
0.0221479
0.0259845
0.0200884
0.0204203
0.0204305
0.265842
0.0209901
0.0209791
0.667009
0.0212538
0.0208275
0.241776
0.0213077
0.100274
0.0212851
0.0226165
0.0211057
1.22738
0.0221261
1.22826
0.0200797
0.0725355
0.0996328
0.0213503
0.0558447
0.02062
0.0237475
0.0266499
0.0200216
0.572443
0.0209364
0.0212849
0.0380697
0.0244864
0.0522343
0.0200418
1.25243
0.0200522
0.0209079
0.0415852
0.023698
0.277814
0.0200325
0.0247796
0.045563
0.0217526
0.02226
0.0369236
0.0208695
0.0370007
0.411174
0.120005
0.319744
0.0212465
0.648446
0.0217753
0.0208568
0.0213923
0.059397
0.0218429
0.043248
0.0208773
0.0211982
0.019559
0.0239453
0.0202114
0.0554784
0.658409
0.0310447
0.0201564
0.0207256
0.0214101
0.0316126
0.0245146
0.321124
0.0273918
0.0208542
0.144645
0.0228942
0.0235388
0.616903
0.232618
0.3177
0.0417462
0.184532
0.288286
0.0215862
0.0210388
0.167719
0.0216648
0.0208605
0.247893
0.0212631
0.0636146
0.0764762
0.0208603
0.154077
0.614273
0.02119
0.130468
0.0249277
0.0408019
0.0209517
0.357014
0.0767556
0.021647
2.07746
0.0196055
0.0313107
0.315224
0.0210085
0.0234731
0.021359
0.0271874
0.0200995
0.0205826
0.0210522
0.0217411
0.0209586
0.0206812
0.0240425
0.0212688
0.0201646
0.0336693
0.0248893
0.347583
2.14168
0.187029
1.06753
0.0249061
0.0212812
0.0598616
0.0216111
0.567682
0.0211432
0.02211
0.0213296
0.019523
0.0225988
0.0285933
0.0218094
0.322475
0.0217959
0.0210378
0.223742
0.0211819
0.0218063
0.0363894
0.0213471
0.0216799
0.273345
0.0596591
0.0204628
0.0200509
0.0214077
0.351521
0.0205374
0.660388
0.0204437
0.217514
0.0211474
0.022953
0.0266974
0.0217254
0.218725
0.0215815
1.14838
0.021033
0.0203076
0.0212771
0.0215536
0.30839
0.022588
0.0218093
0.0196163
0.465964
0.0286538
0.024835
0.0215998
0.0209911
0.030196
0.0199736
0.0350712
0.0247007
0.0920065
0.0240594
0.0199938
0.625306
0.128099
0.0342024
0.0213658
0.0239654
0.365351
0.0199856
0.0347139
0.0391426
0.021968
0.274365
0.0243782
0.0218464
0.0204608
0.0225055
0.0215218
0.032785
0.0215779
0.0212908
0.0209822
0.320438
0.540277
0.0210101
0.0217861
0.563512
0.144704
0.0250007
0.0195287
0.0320951
0.024365
0.0217373
0.023988
0.0208064
0.311202
0.0879111
0.0547971
0.0281804
0.0272808
0.0418067
0.0341092
0.0643069
0.0207992
0.0212922
0.021862
0.0201554
0.0229477
0.0249624
0.0209764
0.021563
0.0289299
0.0208494
0.0652353
0.394996
0.0273114
0.0215807
0.0281123
0.0201447
0.0371807
0.021529
0.0295931
0.0218672
0.028866
0.274662
0.0203326
0.0391326
0.0227714
0.0235166
0.0325493
0.0213171
0.020036
0.0617746
0.021558
0.0406953
0.026591
1.1602
0.0373601
0.0558288
0.023235
0.0302111
0.0211879
0.0236896
0.0277817
0.039066
0.283965
1.88675
0.0210721
0.024198
0.0868278
0.0288162
0.0210676
0.0209706
0.0209943
0.042795
1.21943
3.29846
0.301899
0.0286791
0.0246292
0.3649
0.0196048
0.021559
0.0245813
0.0213676
0.0343312
0.0209456
0.419109
0.0202317
0.343728
0.021352
0.0217823
0.0235168
0.129654
0.258645
0.0329075
0.261459
0.0219007
0.0208784
0.0213588
0.0238784
0.413888
0.0209007
0.0214694
0.257032
0.0218406
0.0209016
0.148189
0.0235028
0.0209885
0.0212532
0.0305394
0.0222503
0.0304093
0.0200623
0.021461
0.0218034
0.590428
0.165392
0.0200391
0.0209374
0.0311421
0.0210022
0.0215141
0.415232
0.143125
0.0306981
0.0213422
0.0220164
0.118573
0.0220095
0.0326721
0.0237365
0.0202732
0.0315779
0.0313596
0.0217224
0.0213425
0.0237372
0.0214639
0.0232287
0.0214027
0.0637461
0.0215515
0.0232479
0.0208639
0.0209955
0.022843
0.0220867
0.0548064
3.75107
0.246547
0.0227565
0.143894
0.0270729
0.0213704
0.0208967
0.0371895
0.0213467
0.0316521
0.0214267
0.026047
0.335668
0.282783
0.211132
0.0582504
0.0195666
2.18308
0.0218451
0.0209662
0.147331
0.021317
0.0282863
0.0201775
0.0605879
0.021312
0.0582324
0.397851
0.0513794
0.0212689
0.0204665
0.0530226
0.0229012
0.0209994
0.380822
0.0673018
0.0209602
0.0377746
0.0548071
0.0204611
0.0220594
0.0314476
0.54828
0.0360096
0.0218392
0.0212307
0.0336826
0.0212887
0.0202028
0.0211314
0.194563
3.79673
0.0202573
0.0221581
0.0214922
0.138069
0.0313966
0.0200354
0.0281334
0.0352677
0.0214775
0.348745
0.0721865
0.0218336
0.021447
0.0349611
0.145109
1.17339
0.0202355
2.06858
0.0212341
0.0202508
0.0395218
0.0230442
0.0667573
0.0381973
0.0233907
0.0249458
0.0219285
0.143018
0.0230602
0.0271987
0.0218917
0.0202126
0.0217262
0.0202275
0.0708229
3.72785
0.0602832
0.024046
0.0215739
0.021889
0.0215021
0.0232666
0.0215637
0.020038
0.0213846
0.0371465
0.0204687
0.0215494
2.39922
0.980885
0.0884194
0.0216423
0.0220245
0.0315936
0.0218832
0.314581
0.302597
0.0238696
0.024861
0.0249648
0.0222619
0.0236411
4.19642
0.0318843
0.0219635
0.33818
0.0215787
0.332632
2.13321
0.0247292
0.0220017
4.21397
0.0209828
0.0556016
0.0459796
0.339571
0.0230549
0.0217031
0.0214642
0.453095
1.16365
0.317644
0.209551
0.0230656
0.0214539
0.0247888
0.0212989
0.0235955
0.133771
0.380609
3.67085
1.21223
0.0275914
0.0424385
0.032936
0.0209989
0.0211444
0.0288321
0.0239733
0.0215446
0.0212965
0.43484
0.0208416
1.22137
0.0250977
0.0660643
0.12753
0.0211507
0.024505
0.336882
0.0213797
3.48316
0.0212721
0.107694
0.0319637
0.0219423
0.0325132
0.0643281
0.0591797
0.0219185
0.0200067
0.0324467
0.0249157
0.0660424
0.0213731
0.073594
0.0208335
0.263249
0.0211588
0.0211703
0.20322
0.0271975
0.0344279
0.0210357
0.025245
0.0230499
0.416902
3.30645
0.0241727
0.0282203
0.0211537
0.0280001
0.0217506
0.0240042
3.74409
0.0204219
0.274343
0.0215427
0.0212544
0.0242433
0.312287
0.0223794
0.068019
0.0220181
0.0329162
0.435857
0.0196123
0.0209899
1.71792
0.036418
2.48537
0.0396007
0.0216855
0.0213023
0.0209799
0.0245012
0.0219918
0.0200995
0.0952471
0.263061
0.0211534
0.422127
0.505502
0.0245801
0.236874
0.0202191
0.154414
0.306197
0.0196787
0.449377
0.0355925
0.776619
0.420617
0.0210691
0.0209714
0.0215912
0.269317
0.0418627
0.0212913
0.0219478
0.0953463
0.0217962
0.0364358
0.0210727
0.0341391
2.79817
0.378135
0.0333122
0.336881
0.038133
1.1259
0.0248717
0.0209155
0.0267111
0.420527
0.0279367
0.0402526
0.0212792
0.127976
0.0215094
0.0217307
2.84398
0.0217258
0.0272591
0.0305384
0.0632616
0.0214686
0.0212909
0.0241689
0.0256998
0.0199686
0.0215843
0.0341844
0.109003
0.0232017
0.0212959
0.0395811
0.425282
0.0212276
0.257912
0.33098
0.0214691
2.21781
0.0200057
0.231642
0.0213496
0.0202969
0.203658
0.0232449
0.639897
0.023068
0.0212929
2.27251
0.0213464
0.0201378
0.021518
0.0209252
0.0278188
0.0351492
0.192882
0.0220793
3.54496
0.0227487
0.212473
0.380042
0.022089
0.0213515
0.0252547
0.0201387
0.0941939
0.0211889
0.0201157
0.0201375
0.0212786
0.0213697
0.282132
0.0244043
0.0407703
0.0226132
0.0241773
0.0237264
0.0259929
0.0716063
0.0204696
0.070778
0.0420341
0.0200065
0.32072
2.73843
0.0207766
0.0968397
0.0211685
0.359284
0.0327504
0.0196598
0.0327755
0.0261494
0.156993
0.0208489
0.0240263
0.280679
0.0727658
0.0711908
0.021366
0.326659
0.0655267
0.145528
0.0213724
0.0228255
0.0210168
0.0214837
0.0210643
0.0209795
0.020417
0.128441
0.0255341
0.0208904
0.0200606
0.0205387
0.0217929
0.0686059
0.0641322
0.0203279
0.0256977
0.0215188
0.0215439
0.0214537
0.0209468
0.0410476
0.0200565
0.0208832
0.0217842
0.0216155
0.0230493
0.021434
0.290982
0.11764
0.02428
0.0208652
0.139191
0.0201055
0.0200648
0.0214064
0.0654572
0.0240158
0.0212644
0.0201636
0.020453
0.0248738
0.020013
0.0256461
0.0211794
0.0217558
0.0210634
0.0227536
0.163151
0.020907
0.0218654
0.0211827
0.17647
0.338699
0.0263274
0.0219898
0.027035
0.0254281
0.0376368
3.93896
0.0217765
0.308703
0.0218841
1.16164
0.0221527
0.0202869
0.0200581
0.622522
0.0200303
0.0265185
0.0288816
0.166356
0.0408325
0.022288
0.0210186
0.0208439
0.0212146
0.0275514
0.0862759
0.418869
0.0398873
0.0215257
0.0200091
0.0225028
0.0210651
0.0208183
0.0217963
0.0407898
0.0244009
0.407457
0.0215203
0.0214359
0.0345748
0.0213046
0.145565
0.0402815
0.03903
0.124984
1.18376
0.0280448
0.0209864
0.0200178
0.0216767
0.0212803
0.542349
0.0414025
0.0914449
0.0203091
0.0215951
0.022979
0.020838
3.86625
0.0362113
0.0200611
0.0200663
0.0209786
0.0210721
0.0209104
0.0212494
0.247455
0.0199733
0.0220196
0.020316
0.020586
0.0210733
0.021465
0.0253565
0.0205807
0.0262914
0.0201547
0.21809
0.237399
0.0235327
0.514299
0.0227958
0.0218903
0.0568546
0.350225
0.0214252
0.0207469
0.0204726
0.025204
0.0219838
0.0279839
0.178023
0.0214999
0.0220178
0.0214799
1.17539
0.268609
0.022103
0.0205974
0.0241546
0.0372358
0.0211378
0.0591798
0.0208381
0.0199646
0.0243865
0.0629614
0.297068
0.34739
0.253196
0.0200469
0.0304297
0.065747
0.0247481
0.0212081
0.0662553
0.0238469
0.147259
0.0649617
0.0207294
0.0200566
0.0214768
0.0220148
0.0200597
0.487376
0.374506
0.0201111
0.0215238
0.021924
0.034219
0.0212476
0.0208703
0.029258
0.0218977
0.0209694
0.320206
0.0769424
0.0692822
0.0212671
0.0202399
0.0201277
0.0215267
0.0253457
0.0280998
0.020869
0.0206297
0.0226282
0.327821
0.0204614
0.021415
0.0579954
0.0209097
0.0207595
0.0213491
0.239714
0.0202211
0.0214443
0.0204646
0.0220893
0.0202302
0.025732
0.132987
0.0214155
0.15527
0.0284892
0.211722
0.0483518
0.0209905
0.0253137
0.0208426
0.0207443
0.0210024
0.460791
0.343103
0.0349647
0.026683
0.331185
0.0590294
0.0221028
0.0819128
0.0495903
0.023415
0.0200682
0.374391
0.0222259
0.0207385
0.0203931
0.393124
0.246297
0.27053
0.0207134
0.0781903
0.323777
0.0258582
0.0298338
0.0241267
0.0229513
0.0319125
0.336181
0.0227551
0.0222659
0.0247831
2.1164
0.283033
0.0212378
0.0213558
0.0210467
1.98558
0.0233728
0.0218781
0.266026
0.0257258
0.0363705
0.0240965
0.308267
0.0206776
1.15113
0.0220921
0.0200781
0.020986
0.0200035
0.020086
0.0208896
0.0217176
0.271084
0.0205282
1.15992
0.0262196
0.0216736
0.0207533
0.0740568
0.021193
0.0214975
0.0230058
0.790856
0.0482636
0.0232503
0.0215368
3.51149
0.0206731
0.0392363
0.0215198
0.236754
0.0306477
0.276903
0.0263827
0.0209991
0.0397018
0.848112
0.0388778
0.0205559
0.0213422
0.0341582
3.73952
0.0195699
0.0428396
0.0208768
0.0253722
0.0208601
0.0200427
0.0219485
0.0221461
0.0200312
0.036627
0.0361036
0.024506
0.120192
0.31275
0.0222237
0.310732
0.0201164
0.0942107
0.734269
0.163036
0.0200203
0.0219922
0.0214984
1.16577
0.0210298
0.0208372
0.0757271
0.021506
0.021525
0.022136
0.0220456
0.0212473
2.16101
0.336881
0.0527713
0.0207541
0.0214509
0.105784
0.0201026
0.0389281
0.0215714
0.0214839
0.0219943
0.023824
0.247077
0.0206329
0.0214731
2.0674
0.02157
0.0217962
0.0343315
2.10561
0.320457
0.0214271
0.0210565
3.55627
0.429048
0.157913
0.0206327
0.031642
0.193938
0.0203591
0.0390631
0.0227614
0.454529
0.0236765
0.0215315
0.0222064
0.0200192
3.49262
0.0214639
0.0204593
0.335703
0.0284799
0.275377
0.0199824
0.0226948
0.020052
0.019645
0.0202117
0.0221596
0.0216141
0.0218348
0.0200257
0.0217558
0.0419971
0.0260052
0.0237444
0.0206424
0.0234409
0.0210718
0.285078
0.0216073
0.0221038
0.0215793
0.0200639
0.0217969
0.0218147
0.0211487
0.0212263
0.0208316
0.0202202
0.692059
0.0909626
0.0212126
3.5311
0.0326774
0.021758
0.0216988
0.0221932
0.664494
0.0218026
0.0201061
0.0201032
0.0200283
0.274866
0.0212803
0.0202921
0.161027
0.0200152
0.0197376
0.0237212
0.0244183
0.0727967
0.1278
2.46669
0.0200476
0.719374
0.0253259
0.0212243
0.0204249
0.0242027
0.0212833
0.0294557
0.0499221
0.0229703
0.0219478
2.88124
0.0517549
1.63643
0.910241
0.344176
0.0775292
0.0204916
0.345221
0.228842
0.0201341
0.64683
0.0207103
0.0223678
0.128164
0.0207249
0.0457023
0.0253416
0.0228968
0.0218695
0.0420955
0.0213765
1.14511
0.0212373
0.0201816
0.663378
0.0197667
0.0222451
0.0218486
0.0459544
0.0212032
0.0214416
0.0230394
0.318617
0.0211779
0.0212745
0.0202277
0.0238351
0.0211786
0.0223685
0.292836
0.0209654
0.0256692
0.0217164
0.0236238
0.0235566
0.0209411
0.0219197
0.0843378
0.0215465
0.0217455
0.0244948
0.323953
0.0221764
0.0211257
0.0214225
0.0254851
0.0726906
0.0223654
0.021023
0.0209599
0.0205605
0.019629
0.0200603
0.0253935
0.033532
0.0472845
0.0215382
0.44488
0.0206495
0.0209779
3.91526
0.0405867
0.0199774
0.0635816
0.0211048
0.021021
0.448499
0.0217905
0.0392297
0.0197321
0.140323
0.0205135
0.0200138
0.0202536
0.254893
0.0805178
0.0215229
0.117388
0.0202345
0.0209082
0.0207389
0.132818
0.0212219
0.0206562
0.0218833
0.0227534
0.0212726
0.0214477
0.0208005
0.0217631
0.0215175
0.020841
0.0233457
0.0199925
0.120897
0.0549601
0.0202112
0.05517
0.0257079
0.0209335
0.020663
0.0219368
0.0207465
0.0281474
0.0245956
0.0394287
0.0392831
0.0216498
0.0629617
0.140833
0.0212159
0.0216971
0.071298
0.0231767
0.317647
0.0202188
0.0212483
0.0224517
0.0216009
0.0212228
0.0254741
0.0209502
0.0227269
0.021242
0.02329
0.0205467
0.109761
0.0213429
0.023994
0.0319607
0.0209933
0.46257
0.274734
0.0229785
0.0252121
0.0283402
0.0198645
0.0511772
0.0214309
0.0323329
0.199323
0.274844
0.0437313
0.0232598
0.0260305
0.0210114
0.0301453
0.0205325
3.49523
0.0320194
0.0214525
0.0208089
0.0534724
0.0375303
0.0212226
0.0212149
0.473797
0.0216111
0.0206466
0.777072
0.0468781
0.0201236
0.116031
0.0203106
0.0415742
0.0486616
0.0212662
0.0214319
0.0233195
0.14359
0.0207968
0.0260117
0.0214363
0.0212749
0.0208239
0.22342
0.0218112
0.0213469
0.0211282
0.105799
0.0262218
0.0208098
0.0197683
0.0913827
0.0211478
0.0204566
0.105629
2.7885
0.0219178
0.291588
0.0233484
0.042244
0.0221737
0.0497158
0.477703
0.0216932
0.020749
0.0203212
0.0242466
0.0211986
0.298041
0.202151
0.0205284
0.0221755
0.0203373
0.0200281
2.85685
0.0212064
0.0224475
0.0227788
0.0596805
0.021451
0.0216958
0.0246056
0.482659
0.0214738
0.0213587
0.0204481
0.0205719
0.023999
0.0407701
0.0215438
0.0211213
0.0212529
0.0210745
0.0203278
2.16014
0.0216937
0.0210536
0.0210953
0.0512329
0.0203748
0.0204591
0.0335521
0.0209209
0.0338737
0.0212504
0.0214325
0.306806
4.10067
0.194897
0.0357044
0.0233791
0.0217373
2.94725
0.0206454
0.0246178
0.0199958
0.792252
0.0195442
0.0241812
0.0214595
0.278391
0.0397332
0.0288474
3.20153
0.0223503
0.0535808
0.0217262
0.0219473
2.64165
0.0323245
0.0211752
0.0203021
0.0236314
0.0263811
0.0214225
0.0212594
0.0206418
0.0199251
0.187278
0.366014
0.0217246
0.0226365
3.02504
0.0943991
0.0230668
0.022283
0.0230815
0.0241877
0.0212147
0.0221574
0.0710502
0.0209095
0.0203263
0.0215143
0.0770765
0.435699
0.0253379
0.0215461
0.0215656
0.0265925
0.0213457
0.0257451
0.0402988
0.0384391
0.0229728
0.0786058
0.0201224
0.0212263
0.0218387
0.0199682
0.0215493
0.020852
0.0287348
0.0210096
0.37328
0.0213635
0.0207214
0.0204912
0.0266506
0.022382
0.0397717
0.0522339
0.0201498
3.02081
0.0227526
0.0205056
0.0197958
0.335215
0.350854
0.0198153
0.0208165
0.0207447
0.022147
0.169535
0.0415744
0.0219323
0.0220331
0.129895
3.25946
0.0219833
0.0212129
2.19014
0.0237577
0.258283
0.0231051
0.0211452
0.0520008
0.024677
4.10524
0.0258548
0.0794656
0.0204025
0.0209083
0.0217602
0.0215807
0.0237326
0.0216892
0.0215505
0.0207896
0.0217638
0.0215822
0.0217973
0.0213714
0.0229153
0.0219006
0.0213412
0.0208622
0.0318377
0.0231422
0.0209185
0.0215102
0.17275
0.0212168
0.0217226
0.0218675
0.116869
0.0204607
0.0351956
0.0227452
0.0201933
0.0210812
3.35509
0.0500767
0.0220257
0.0222942
0.0235035
0.0367629
0.0208682
0.0276204
0.0391214
0.0210567
0.0846463
0.0208261
0.0213325
0.0211836
0.0217988
0.0280152
0.0575948
3.63001
0.0251119
0.020201
0.0214977
0.0210954
0.0573644
0.0219503
0.253625
0.0208162
0.0213725
0.0213563
0.061733
0.0209474
0.0215742
0.0212553
0.125914
0.020469
2.47606
0.020429
0.0242776
0.0212825
0.0284498
0.0209934
0.023543
0.0688716
0.032993
0.0202113
0.0327895
0.0215071
0.0213574
2.36183
0.105077
0.0203216
0.0212469
0.0234166
0.0202498
0.0211269
0.0218643
0.0216981
0.0234907
0.0453894
0.0221803
0.0260031
0.0337712
0.0216404
0.0209996
0.0211757
0.0221795
0.0283752
0.0214276
3.81538
0.0206908
3.07181
0.0347182
0.020145
0.0207143
0.0206947
0.0832796
0.0215026
0.0232264
0.0214766
0.0206831
0.158163
0.0228591
0.0256531
0.021654
0.0214687
0.0227032
0.0212253
0.0228498
0.0213666
0.0219479
0.0219898
0.021832
0.676266
0.0266451
0.475966
0.0209994
0.0234739
0.0223567
0.290866
0.054614
0.771251
0.0223692
0.0199616
0.0374807
0.0209014
0.48977
0.0221406
0.0359219
0.0223861
3.36321
2.2774
0.0234459
0.0256215
0.0207494
0.0205315
0.0218902
0.0198949
0.021732
0.0230497
0.0207826
0.0251808
0.0417699
0.264919
0.0208877
0.0352606
0.0201079
0.0211863
0.0211198
0.0816544
0.0216765
0.055693
0.0216749
0.0211219
2.98406
0.0208749
0.0230895
0.0210421
0.0232568
0.768334
0.0261959
2.09752
0.0215174
0.0535915
0.022999
0.0211179
0.0211915
0.0301028
0.0238124
0.0212755
0.0227401
0.0213258
0.680087
0.0207335
1.13663
0.488246
0.057724
0.0253462
0.0898662
0.0248021
0.0198939
0.927083
0.0211852
1.13463
0.0218403
0.0227023
0.274639
0.276621
0.0269845
1.2487
0.0213828
0.234072
0.0196046
0.185182
0.0201638
0.023023
0.0361713
0.0215544
0.0207217
0.0219857
0.0212647
0.0316644
0.286021
0.0333114
0.308289
0.0206382
0.326921
0.0214392
0.0216654
0.021011
0.0211036
0.495183
0.0215941
0.0205626
0.0341683
0.0218062
0.344191
0.0660619
0.0212671
0.0405288
0.0330681
0.0208513
0.0214378
0.0239528
0.0203198
0.0484927
0.0286201
0.0224722
0.0226246
0.0204505
0.0211644
0.0501775
0.0219419
0.021448
0.0222728
0.0199198
0.0201277
2.26874
0.0273544
3.62352
0.0266081
0.0463468
0.0255796
0.0211122
0.0261901
0.0203923
0.0209826
0.222016
0.023793
0.0228316
0.0425554
0.0217368
0.289915
1.22928
0.0211193
0.0249723
0.0268654
2.51166
0.0203101
0.0203176
0.0216384
0.0264994
0.284449
0.0245577
0.0237212
0.0217822
0.0211692
0.0199375
0.262365
0.0232787
0.0227373
0.485953
0.021628
0.0228467
0.0242657
0.0214921
0.0212352
0.0210539
0.0476903
0.0853769
0.0218269
0.0228412
0.314658
0.0209166
0.0219324
0.0234423
0.0215912
0.334595
0.41362
0.268257
0.0700473
0.246761
0.0225774
0.020841
0.0290239
0.0227226
0.0269237
0.0210419
0.0201928
0.345696
0.258112
0.0210786
0.0207546
0.0279946
0.0382187
0.0230278
0.0199657
2.30969
0.0229245
0.0337484
0.0201465
0.0257079
0.0195843
0.0225383
0.0258669
0.021169
3.59395
0.0219805
0.0344098
0.0785701
0.252401
0.0705014
0.0211938
0.0527083
0.0242905
0.0241288
0.0222261
0.0227727
0.0214484
0.02257
0.306905
0.0228194
0.320172
0.0207853
0.205988
0.0202915
0.0219048
1.4105
0.0244522
0.20196
0.0235896
0.0221082
3.89105
2.38897
0.020862
3.04485
0.0359911
0.0207215
0.0198336
0.207049
3.00151
0.0204757
0.0202769
0.0212618
0.0202351
2.9943
0.327938
0.0195226
0.019784
0.0208593
0.252746
0.0422865
0.279277
0.020204
0.961411
0.0215541
0.0548356
2.07332
0.0239686
0.0205925
0.0205984
0.273984
0.0203398
0.021059
0.0202046
0.0243896
0.0229537
3.58567
0.0252358
0.0217935
0.0211915
0.0259853
0.194478
0.0424591
0.0211179
0.0208678
0.144437
0.043796
0.0220812
0.434785
0.0270562
0.0229776
2.88746
0.0227426
0.0261776
0.0218233
0.299774
0.0214155
0.021826
1.06874
0.0269166
0.0210496
0.0213506
0.0195911
0.0359368
0.0885457
0.0209736
0.0202702
0.0220547
0.0593104
0.0231979
0.0202023
0.0212415
0.0207291
0.0221079
0.038097
0.0214769
0.0209894
2.50691
0.0211046
0.721873
0.0299069
0.032532
0.0230722
0.0222203
0.0214769
2.45874
0.0699422
0.0595954
3.52538
0.0293091
0.0208711
3.35828
0.0202282
0.0643598
3.1279
0.0221672
0.0211259
0.0237463
0.0617467
0.0211924
0.0210501
2.92229
0.0212637
0.022235
0.0206568
0.0216214
0.0203401
0.062475
0.1159
0.0201374
0.0210238
0.346851
0.021184
0.0201218
0.0209983
0.0208316
0.147379
0.0227426
0.0231065
0.0222883
0.0219801
0.0202414
0.0328679
0.0944232
0.0261276
0.39175
0.0223979
0.02366
3.53021
0.0208843
0.0203682
0.0210783
0.020831
0.0218293
0.0197456
0.0221773
3.1503
0.021206
0.0210909
0.0226954
0.0208163
0.297422
0.0216768
2.14563
0.193235
0.0244465
0.0286183
0.342872
0.023699
0.0211727
0.0231226
0.0209501
0.0224897
0.0215425
0.0217277
3.3168
0.0202881
0.021324
0.0382477
0.333173
0.0217029
0.0208397
0.19052
0.022247
0.0262331
0.0213113
0.0208502
0.0209355
2.22543
0.0214401
0.38413
0.0451377
0.0212338
0.0208308
0.0210806
0.0240159
0.287052
0.0201469
0.0393569
0.0210954
2.11183
0.247354
0.0220981
0.170582
0.0215469
0.0231042
0.0235319
0.354648
0.0226486
0.0249267
0.0255632
0.418672
0.021642
0.0356996
0.0214489
0.042502
0.136879
0.173244
0.0209861
0.0290245
0.254579
0.529393
0.0228755
0.0238737
0.339339
0.335689
0.0208175
0.0489272
0.0211869
0.0242103
0.0214539
0.0223229
0.0222382
2.79852
0.0216082
0.0218071
0.0486451
0.418468
0.978115
0.111488
0.617456
0.0207843
0.303802
0.0522303
0.0210337
0.0211182
0.408169
0.0232838
0.0214861
0.0212437
0.0388316
0.0206976
0.0212554
2.86964
0.0214635
0.0217517
0.0210408
0.0214006
0.0225652
0.0204541
2.69614
0.0237029
0.0228033
0.0205182
0.0291166
1.2583
0.020928
0.0217361
0.291251
0.187583
0.0213531
0.0240531
0.0207088
0.0209333
0.0372355
0.164156
0.020934
0.021082
0.293778
0.0550762
0.28
0.0261042
0.0223002
0.411465
0.0207362
0.0245977
0.0239448
0.0205736
2.72938
0.312217
0.0349921
0.0258047
0.207546
0.0198385
0.0197774
0.022573
0.0336022
0.497729
0.0203339
0.0360873
0.82355
2.18168
0.0216338
0.0225102
0.328273
0.0209913
0.0240012
0.392195
0.0209601
0.0211889
0.0204861
0.29352
0.0208509
0.0238243
0.0218723
0.0337218
0.0276986
0.410269
0.0211796
0.0211287
0.0272509
0.0216749
0.0226725
0.0220994
0.0892654
0.109079
0.0209924
0.0213349
3.53918
2.56532
0.172989
0.020755
0.0213572
0.0226619
0.0215305
0.0212707
0.0214305
0.0217928
0.0218646
0.02067
0.0207651
0.0500101
0.0230955
0.0272605
0.153683
0.0544667
0.0433111
0.024565
0.048834
0.101905
0.0288422
0.0230755
0.0262676
0.0210679
1.0643
0.020043
0.0202773
0.0206929
0.491811
0.0209247
0.489239
0.021739
0.0201362
0.0454763
0.021167
0.021141
0.0211602
0.0263289
0.136744
0.0215968
0.0205727
0.0226807
1.00672
0.0428902
0.346002
0.0210409
0.0309167
0.0215043
0.0215358
0.0201899
0.0207227
0.0213566
0.0216812
0.0630967
0.0224431
0.0223469
0.108584
0.302397
0.118566
0.0208702
0.0816504
0.0308911
0.601648
0.02055
0.0210382
0.0218433
0.0517859
0.0197932
0.0213493
0.0207146
0.0203415
0.115919
0.0221601
0.0566361
0.021354
0.0197762
0.023885
0.0214305
0.356647
0.0211339
0.0242225
0.0217802
0.026395
0.0220546
0.0514296
0.346874
0.0212304
0.0426922
3.90789
0.0211177
0.0215276
0.037729
0.0197223
2.91477
0.0273601
0.0209529
0.049644
0.0200113
0.0218588
0.0214562
0.0206887
0.0202218
0.0221602
0.0206736
0.0207136
0.0215257
0.0217752
0.0424604
0.0200588
0.121059
0.0205346
0.020893
0.0268862
0.0418779
0.0220527
0.0197177
0.0211931
0.0223256
0.0402523
1.2631
0.0312604
0.0219348
0.0219622
0.0207555
0.0285326
0.0209288
0.0222684
0.930744
0.268946
0.0421037
0.0210772
0.0217344
0.0221562
0.0197252
0.0411442
0.0201245
0.0926288
0.0219884
0.175033
0.0260184
0.652917
0.0215497
0.0547539
2.60716
0.335809
0.192652
0.0252367
0.37188
2.38163
0.021872
0.0321925
3.68887
0.0204298
0.0207465
0.0213345
0.0242173
0.129913
0.0214582
0.0240804
0.600638
0.0195266
0.0214622
0.556559
0.989019
0.0916367
0.239502
0.503451
0.0221554
0.0580134
0.023098
0.0234077
0.603601
0.0223753
3.54358
0.0314853
0.0236181
0.0213944
0.022476
0.0223282
0.0205193
2.41853
0.0197877
0.0212431
0.0213087
0.13794
3.57934
0.0311467
0.0212453
0.022246
0.0204736
3.03507
0.0209825
0.0220199
0.0235278
0.0535956
0.0206957
0.0623399
2.10131
0.305498
0.0217412
0.223218
0.0205514
0.639501
0.0198253
0.0347678
0.0214976
0.0578723
0.0253164
0.250442
0.101371
0.0228212
0.022743
0.0273232
0.0239008
0.0210987
0.0207039
0.0245771
0.0217727
0.293575
0.0196456
0.0210591
0.0214285
0.0214003
0.266362
0.0207396
0.0201349
0.0214963
0.233964
0.0262136
0.0476839
0.0227737
0.0225339
0.0681229
0.0206083
0.0213106
0.059212
0.039397
0.020137
0.0361283
0.022929
0.308035
0.0212463
0.0513256
0.0214358
0.0212067
0.0202288
0.0201767
0.0211558
0.0210713
1.23493
0.0535627
0.0215477
0.0213186
0.0211252
0.0221592
0.0262163
3.29448
0.0215778
0.0296015
0.0237564
0.303909
0.0216031
0.0397131
0.0212944
0.0212541
0.0283116
0.0212165
0.0214405
0.0206594
0.020013
3.73233
0.021382
0.0207314
0.0371964
0.498863
0.0360567
0.0212519
0.0199109
0.0239863
2.09606
0.0232435
0.0217013
0.0215263
1.28651
0.0218635
0.0211167
2.61195
0.0207935
0.0247322
0.0227094
0.0215419
0.0201586
0.0467472
0.0258401
0.0206223
0.0212801
0.0213831
0.0208935
0.421115
0.022655
0.0213942
0.0197669
0.0220017
0.0201812
0.0212337
0.0660521
0.0206398
0.0238192
0.0235167
0.352737
0.0197202
0.0225216
0.0471758
0.0263422
0.148048
0.0209714
0.0215043
0.184166
0.0214006
0.0201448
0.344178
0.021408
2.6008
1.12654
0.058414
0.495474
0.0214137
0.0274268
2.26458
0.0212338
0.0200033
0.744509
0.546163
0.0208918
0.0201435
0.0227763
0.0207479
0.231337
0.0550761
1.13136
0.0214821
0.0216512
0.0212098
0.0211236
3.31113
0.471947
3.66804
0.0244835
0.0223925
2.75851
0.0213371
0.0208911
0.0226243
0.0209257
0.0218493
0.117525
0.019718
0.475165
0.0218981
0.0219902
0.0213923
0.0259785
0.020764
3.09986
0.0206781
0.0211905
0.0226764
0.0201623
3.44462
0.0245436
0.025233
2.19255
0.178606
0.0324515
3.21715
0.0213359
3.01125
0.026355
0.0207662
0.0223943
0.0217312
0.413284
3.06918
0.0214675
0.0232574
0.418011
0.021066
0.0205677
0.0236841
2.08812
0.407516
0.021502
0.0220361
0.0778005
0.0230211
0.0592345
0.058218
0.0580384
0.0201483
0.786054
0.021541
0.321307
0.0510034
0.0325602
4.07352
3.36497
3.54252
0.0203659
0.436318
0.0199611
0.0197757
0.288031
0.0197534
0.0222112
0.0211399
0.0548316
0.0206079
0.123476
0.0201655
0.0274173
0.479517
0.0257672
0.0247642
0.415153
0.0218133
0.0202417
0.021861
0.0771555
0.023889
0.123608
0.0214154
0.0257838
0.0217451
0.143185
0.0214179
0.0215589
0.0213673
0.130226
0.030176
0.021491
3.49804
0.0210722
0.0213705
0.0243109
0.349982
0.0213927
4.08913
0.0214812
2.83268
0.0214222
0.0386725
0.0209846
0.0454437
0.0214237
0.0537654
0.0245614
0.0365206
0.020892
0.0216989
3.30332
0.0203673
0.0241042
0.0273777
0.0200731
0.0613616
0.742078
0.109338
0.0221199
0.0197283
0.0211831
0.100356
0.0236102
3.98066
0.0239523
0.288408
0.0212127
0.554076
0.0205344
0.0321413
0.107829
0.0227241
0.137152
0.0234141
3.37671
0.163874
0.0207743
0.217277
0.0223208
0.0211352
0.0228576
0.0692341
0.0233589
0.161434
0.0240167
0.100332
0.0390658
0.0567054
0.0433046
0.335941
0.0214584
0.0215231
3.45255
3.42439
0.0327882
0.0234392
2.10272
2.69475
0.0212213
0.0214349
0.0212008
1.14498
0.0207101
0.0209397
0.0315389
0.0493472
0.0198236
0.0206124
0.0222221
4.0667
0.020503
0.0238578
0.0198228
0.110815
0.0219408
0.654524
0.0218333
0.020648
0.0213351
0.0202744
0.632983
0.0349554
1.32166
0.0213254
0.0280675
0.0202059
0.221556
0.147657
0.044801
0.0207938
0.0585773
0.020883
0.0215856
3.41074
0.021073
0.0242272
0.426808
0.0201503
0.100302
0.0207595
0.0198328
0.0215476
0.129721
0.020793
4.15965
0.0924824
0.08446
0.309302
0.0207091
0.392095
0.0565552
3.6421
0.0345432
3.29538
0.186895
0.0215676
0.0352308
0.0217101
0.0295386
0.0209303
0.0227475
0.0212033
0.0255798
0.165959
4.14838
0.0237804
0.0230176
0.276752
0.410945
0.0211978
0.0214544
0.36497
0.0337409
0.0204338
0.294731
0.0349893
0.0221481
0.0203863
0.0224092
0.382517
0.0216183
0.0507894
0.0195898
0.0550247
3.55527
0.0805911
0.02217
0.0214972
0.0211428
0.0212694
0.0214425
0.0247393
0.0223085
0.0215669
3.64896
0.0208334
0.0214844
0.0210583
0.308295
3.58829
0.0212459
0.0213197
2.37524
0.0204824
4.19665
0.0215187
0.021353
0.019717
0.0216156
0.0205935
0.0227045
0.0202352
0.326435
0.0218389
0.426024
0.0213522
0.171944
0.0214653
0.0243936
0.199352
0.196315
0.0212378
0.0214432
0.0357902
0.0197197
0.314813
0.402583
0.0224557
0.0207558
0.0212331
0.0203346
0.0471604
0.124288
0.0401499
0.421023
0.0392995
0.0214103
0.0211828
0.0205271
0.128422
3.08907
0.0221449
0.0211265
0.0208117
0.0268699
0.0213777
2.88905
2.63694
0.0299824
0.0202718
3.19708
0.115086
0.021441
0.311436
0.0216242
0.482412
0.0318018
0.0320048
0.0267343
0.279414
0.03119
3.54735
0.0208672
0.0205236
0.0206969
0.0203143
0.0215042
0.0278656
0.0205323
0.0253975
0.0200028
0.252547
0.0209663
0.029693
2.04372
0.0220967
0.0198048
0.0292661
4.22713
0.0212448
0.0206022
0.190599
3.97431
2.91908
0.0216306
0.0197264
2.9415
0.11419
0.0239928
0.0466952
0.0213736
0.0330394
0.0214844
0.116455
0.0206636
0.0209567
0.417673
0.0204207
0.0227175
3.40939
0.0511285
0.0206378
0.0216531
0.0207471
2.32519
0.0242613
0.0258794
0.0214243
0.0207834
0.110673
0.0290827
0.0211481
0.0212935
0.0197261
0.0227317
0.0206543
0.0226489
0.199838
2.77436
0.0231193
0.0365206
0.0208162
0.0447352
0.0212175
0.0215128
0.0207669
0.250172
0.0416334
0.0200235
0.0226802
0.559609
0.0345053
3.81504
0.044986
0.0212947
0.0207734
0.0277069
0.0223926
4.05525
0.0205195
3.54554
4.14047
0.0208993
0.0353103
3.16165
0.025539
1.03035
0.0993519
0.0216028
4.07298
0.0254541
0.0204047
3.49946
2.84401
0.0874317
0.021715
3.2281
3.00328
0.0213393
0.171909
3.28995
0.0213787
0.0207088
0.0218226
0.0200251
0.0215418
0.707285
3.78126
0.0214216
0.0230926
2.29563
3.49537
0.0336916
0.0588612
0.0210711
0.0258253
3.9853
0.0544912
3.41361
3.9958
0.0212543
0.021432
0.0210448
0.0219361
4.01535
3.18611
0.021039
0.0333175
1.52835
0.141113
0.0530657
0.0211305
0.0214788
0.0219459
0.29258
0.022193
0.0334695
0.030301
0.0220237
0.414199
0.0232888
0.0643415
0.130225
3.50947
0.0212154
0.0211959
0.0224893
0.0334882
0.2199
2.85177
0.0218759
2.06024
4.0371
0.0332518
0.0305771
3.63499
0.347186
0.320501
2.98007
0.0213269
0.174015
1.12273
0.0284717
0.0278264
0.117221
0.0224369
0.107
0.0232521
0.0207816
0.019982