/*--------------------------------*- C++ -*----------------------------------*\
| =========                 |                                                 |
| \\      /  F ield         | OpenFOAM: The Open Source CFD Toolbox           |
|  \\    /   O peration     | Version:  v2012                                 |
|   \\  /    A nd           | Website:  www.openfoam.com                      |
|    \\/     M anipulation  |                                                 |
\*---------------------------------------------------------------------------*/
FoamFile
{
    version     2.0;
    format      ascii;
    class       surfaceScalarField;
    location    "450";
    object      meshPhi;
}
// * * * * * * * * * * * * * * * * * * * * * * * * * * * * * * * * * * * * * //

dimensions      [0 3 -1 0 0 0 0];
oriented        oriented;


internalField   nonuniform List<scalar> 
14907
(
-1.27907e-05
-2.75548e-05
4.01561e-05
8.51783e-06
4.25289e-05
-5.11135e-05
-4.41999e-05
4.86468e-05
-4.91694e-06
3.42644e-06
2.47681e-06
-1.07324e-07
9.68696e-07
-8.68772e-07
-4.869e-05
-7.75525e-06
5.61895e-05
1.2359e-06
2.38867e-06
-3.69425e-06
-1.38492e-06
-1.00577e-06
2.33382e-06
-2.98524e-06
5.14101e-05
-4.90029e-05
-5.02648e-05
6.28587e-05
-1.174e-05
-5.91347e-07
8.96733e-07
-3.05768e-07
1.24521e-05
-2.81094e-06
-5.11403e-05
1.04961e-05
4.4342e-05
4.13787e-06
-2.94478e-05
2.9677e-05
1.28957e-06
-1.15447e-05
9.92352e-06
1.2456e-05
3.97442e-05
-5.19675e-05
-4.6519e-05
5.91844e-05
-8.39658e-06
8.28655e-06
5.65406e-07
3.85071e-05
-5.15384e-05
1.48207e-06
-1.14592e-06
-3.40799e-07
-6.1176e-05
6.52848e-05
-1.79724e-06
4.87228e-06
-5.03713e-06
6.88797e-08
-1.24306e-05
7.61691e-07
1.69296e-05
-1.7196e-05
7.11863e-05
-5.17089e-05
-3.59555e-05
4.4398e-05
9.98811e-07
1.29393e-05
-1.44324e-05
-4.32675e-06
4.25351e-05
-3.84841e-05
4.88004e-07
1.48714e-05
-1.57758e-05
7.99742e-06
3.60522e-05
-4.47878e-05
-4.67019e-07
-1.9963e-05
1.98576e-05
-6.05927e-05
1.62456e-05
4.40133e-05
-9.40336e-07
5.10607e-07
4.29597e-07
-5.77343e-05
8.34636e-06
-3.4147e-05
2.09069e-05
1.2458e-05
1.35839e-05
-9.5395e-07
-1.30659e-05
-6.87832e-05
5.38427e-05
2.71682e-06
1.21586e-05
-1.53968e-05
1.50404e-05
-1.32987e-05
-2.17891e-06
-1.60884e-05
-4.97948e-05
-7.68609e-06
1.80959e-06
5.70429e-06
6.83514e-07
7.95067e-07
1.32267e-06
1.09867e-05
-1.26031e-05
-2.30827e-06
3.47937e-06
3.59916e-05
-7.536e-06
-2.89843e-05
-9.82904e-07
8.68093e-07
8.47148e-06
-2.09099e-07
-8.62487e-06
-5.47562e-06
-9.72619e-06
1.48508e-05
8.74571e-06
-9.94784e-06
9.48931e-07
-1.94967e-05
1.16673e-05
7.30105e-06
1.63127e-05
1.08038e-06
-1.78813e-05
-6.02759e-06
1.29938e-05
-5.35684e-06
-6.19194e-05
4.46743e-05
-1.57057e-05
7.0414e-06
8.47494e-06
-1.55812e-05
-2.57751e-05
4.08004e-05
1.27528e-05
-1.04962e-05
7.98474e-06
-5.67558e-05
-3.23866e-05
3.97027e-05
1.49605e-05
-2.08819e-05
-1.02974e-05
-2.46948e-05
-4.82209e-06
-1.11452e-05
-5.33476e-05
3.1028e-06
5.01337e-05
4.59326e-05
-5.68674e-05
1.08361e-05
3.57626e-06
9.57303e-06
-5.04603e-05
5.64319e-06
9.30003e-06
7.56223e-06
-1.71706e-05
3.10939e-05
-3.21699e-05
2.72902e-07
2.7574e-05
-8.96224e-06
-1.88108e-05
1.51096e-07
1.58695e-06
-1.74595e-06
1.21549e-06
-8.01155e-07
-4.1684e-07
-3.9397e-05
5.77809e-06
3.29473e-05
3.00516e-05
-4.62245e-05
-4.19754e-07
2.50213e-05
1.04742e-05
-3.06547e-06
-5.36632e-07
3.55301e-06
1.98457e-05
-2.53907e-05
5.27013e-06
1.62446e-05
5.66993e-05
1.0001e-06
-3.64269e-08
7.38812e-07
4.57799e-05
-4.67021e-05
7.98897e-07
3.44408e-06
-4.33436e-06
-3.21495e-06
1.08778e-06
2.06657e-06
-6.92426e-06
-1.30553e-05
1.03457e-07
-1.09528e-06
3.63032e-05
-3.12923e-05
-5.65586e-06
-1.69934e-06
1.44913e-05
-1.31503e-05
4.36281e-06
2.28692e-05
-3.02591e-05
3.01012e-05
2.24113e-07
-6.1411e-05
2.96823e-05
3.15232e-05
2.03864e-06
-6.06645e-07
-1.46863e-06
9.00909e-06
-2.70175e-05
1.77004e-05
-1.50496e-05
-4.67302e-05
3.49827e-05
-4.51059e-06
-3.1242e-05
-7.60959e-07
8.57281e-07
-1.29043e-05
1.30235e-05
-8.80489e-06
2.01962e-05
-2.12325e-05
-4.57494e-05
1.23567e-05
3.27597e-05
-2.02594e-05
6.02699e-05
-4.01468e-05
3.75632e-05
-3.51828e-05
-2.93098e-06
-7.48576e-07
-7.21287e-06
-6.74701e-06
3.85529e-05
-3.23474e-05
2.99756e-06
-2.99756e-06
-2.30597e-06
2.16908e-07
2.02932e-06
1.10843e-07
2.68505e-06
-2.84948e-06
8.43397e-07
-3.09747e-05
-9.83623e-07
1.69372e-05
-1.6444e-05
-1.59595e-06
-1.09516e-06
2.61386e-06
1.31876e-05
2.56367e-05
-3.90904e-05
-5.72416e-05
3.68439e-05
4.77164e-07
-5.9088e-05
7.01865e-05
-6.37929e-05
3.20625e-06
-1.67751e-05
1.71495e-05
-1.47001e-05
-2.96576e-05
4.38608e-05
-1.2792e-06
1.14957e-05
-1.06692e-05
6.95827e-07
5.20229e-07
-9.71079e-06
1.86709e-05
-4.56335e-05
3.84996e-06
4.12522e-05
3.37187e-05
1.08595e-05
-4.48963e-05
3.90906e-05
-4.25765e-06
-4.2268e-05
-4.65988e-07
9.12912e-07
-4.47722e-07
3.15647e-05
-2.29179e-05
1.81432e-06
-3.25734e-06
2.78252e-05
-3.19043e-06
-2.51992e-05
4.34749e-05
-4.48545e-05
1.04505e-06
2.15842e-07
-2.58879e-06
1.42816e-05
2.14961e-05
1.73888e-06
-2.80619e-06
-2.49338e-06
-7.36134e-06
9.51465e-06
-3.66637e-06
1.97345e-06
5.60341e-05
-1.34191e-05
-4.29334e-05
3.63675e-06
-2.92066e-06
-3.1415e-06
-2.11011e-05
2.37633e-05
-1.14629e-06
4.88602e-07
6.57093e-07
7.27825e-07
-3.22591e-06
2.41333e-06
3.86904e-05
-4.60628e-05
3.4278e-06
-2.93765e-06
-5.99209e-07
-7.43743e-07
9.54812e-07
-2.11466e-07
2.1139e-05
1.324e-05
9.60358e-06
-1.06881e-06
9.72775e-07
1.03666e-06
-1.612e-05
2.34549e-06
1.34013e-05
4.37916e-05
-1.03357e-05
1.93997e-05
-2.46036e-06
-1.74323e-05
1.26667e-06
1.0766e-06
-2.39129e-06
5.23202e-05
8.63928e-06
-6.13449e-05
2.9131e-05
-4.42875e-05
2.04571e-06
-4.05444e-06
1.90748e-06
2.13206e-05
-8.27833e-05
6.17136e-05
3.84083e-06
3.30977e-05
6.28252e-07
8.39579e-06
-9.40511e-06
8.82104e-07
-4.84354e-05
4.69142e-05
-3.64339e-06
1.85881e-06
2.23439e-06
5.49823e-07
-2.09103e-06
1.50529e-06
-1.03225e-06
9.04778e-07
1.26945e-07
1.12739e-06
2.88655e-05
-2.99436e-05
-4.66343e-05
-4.49966e-07
3.99786e-07
-1.33176e-05
1.27455e-05
5.34813e-05
-7.6755e-06
1.6428e-07
3.15627e-06
-1.00988e-06
3.71324e-07
6.38395e-07
-2.27846e-07
8.42108e-07
-6.14526e-07
7.05789e-07
-3.50073e-06
2.68122e-06
5.54957e-05
-3.79263e-05
-1.79563e-05
-4.51033e-05
4.53769e-05
-2.62049e-05
2.72712e-05
-1.62226e-06
2.33101e-05
-2.69561e-05
-1.06008e-06
2.02563e-06
-1.012e-06
-8.15953e-07
-1.9434e-07
-3.70509e-07
-5.42778e-07
3.53058e-08
-1.06844e-06
5.40704e-05
-4.66056e-05
-8.10926e-06
-1.86264e-06
6.58694e-05
-6.38222e-05
-1.43874e-06
6.70633e-07
-1.30409e-06
-2.84078e-07
1.58342e-06
3.27971e-06
-2.91622e-06
-4.2674e-07
2.1354e-07
-4.46849e-06
4.15956e-06
6.66176e-07
2.00322e-07
-8.71577e-07
-5.07846e-06
2.97835e-05
-2.52211e-05
-1.39679e-06
1.54121e-06
6.96835e-06
-7.08965e-06
-1.8943e-07
1.22223e-05
-1.19915e-05
-4.76378e-07
-4.64092e-07
3.03196e-05
-2.12153e-05
-9.42223e-06
-1.28809e-05
9.96522e-06
-1.17128e-05
1.27417e-05
6.03698e-07
-1.07059e-06
2.01631e-06
4.4632e-07
-2.51566e-06
1.53804e-05
-3.37777e-05
1.7803e-05
8.94469e-07
-2.99939e-07
-5.95965e-07
2.06111e-05
-1.93719e-05
-1.89345e-06
-4.4353e-08
-9.14847e-07
9.57998e-07
7.0237e-06
1.20404e-05
2.39674e-06
-1.88707e-06
-5.84004e-07
-8.65964e-07
2.55091e-06
-4.685e-06
1.99382e-06
-1.5696e-06
9.72235e-07
5.84802e-07
2.02134e-05
-2.10791e-05
3.22629e-07
4.83766e-05
-5.63987e-06
-4.30429e-05
-4.09316e-05
-1.41639e-06
-5.64737e-06
-9.38153e-06
1.45162e-05
3.37895e-06
-2.75378e-06
-6.85994e-07
-6.88816e-06
2.17599e-05
6.55236e-05
-1.95498e-05
-4.64487e-05
-1.30001e-06
-7.0051e-09
2.11257e-05
-5.51415e-05
-8.72745e-06
6.40709e-05
6.64967e-07
-7.10218e-07
-3.05381e-05
3.90724e-05
-8.27397e-06
-8.67652e-06
8.54736e-06
4.28566e-07
-1.53985e-05
1.74738e-05
-2.2901e-06
-6.41662e-07
-9.46292e-07
8.9178e-06
9.27954e-06
-1.16741e-05
1.44366e-06
-2.55963e-06
-1.27883e-06
1.46138e-07
1.12021e-06
-1.69675e-07
-1.33365e-05
1.87266e-06
9.18808e-08
2.82495e-05
-5.72002e-06
-2.28634e-05
-5.78204e-05
6.35363e-05
-5.70859e-06
-8.92169e-07
-2.65618e-06
3.42057e-06
2.5367e-05
-6.76316e-05
4.23746e-05
-1.09421e-05
9.25339e-06
-1.77985e-06
1.39267e-05
-1.23492e-05
1.37428e-06
-1.88861e-07
-1.19898e-06
1.21175e-05
2.50063e-06
-2.08903e-06
-4.0647e-06
6.02747e-06
1.70132e-07
1.35548e-05
-1.42035e-05
-3.41815e-07
-1.72224e-06
2.00673e-06
1.09651e-05
3.53091e-05
-4.68241e-05
-1.79527e-06
2.88211e-06
-1.1551e-06
-7.41302e-06
3.69514e-05
-4.86263e-05
1.38633e-06
-1.38084e-06
-1.39236e-08
-6.03984e-05
5.87043e-05
3.24552e-05
-4.04119e-05
1.9351e-05
2.88736e-05
-7.39483e-06
7.68791e-06
-6.17458e-05
5.31092e-05
8.59543e-06
-4.09446e-06
-2.07281e-05
3.00996e-05
-3.42944e-05
1.12876e-05
2.23034e-05
-3.24187e-06
-2.47361e-05
2.74733e-05
4.20158e-05
1.31491e-05
2.22618e-05
-3.06578e-05
3.86931e-06
3.75019e-06
7.38917e-06
7.80351e-07
-4.69311e-05
-1.28032e-05
-4.80426e-05
1.40541e-05
-1.92959e-05
1.01548e-05
1.45161e-05
-1.59671e-05
5.92034e-05
-1.66371e-05
-4.31105e-05
-4.25894e-07
-7.68914e-06
3.02875e-05
-2.71147e-05
1.51376e-06
2.86117e-07
-4.03397e-05
-9.54645e-06
1.0559e-05
-1.32048e-06
1.23953e-06
1.25327e-07
-2.13168e-06
2.7443e-06
3.66904e-07
5.2569e-07
5.47549e-07
2.67483e-06
3.94201e-06
-2.94202e-06
-1.09144e-06
8.94281e-06
-7.93534e-06
-9.84365e-06
4.79547e-06
4.71878e-06
-2.30685e-06
-1.66901e-06
3.88716e-06
-7.15209e-06
-2.78642e-05
-3.61956e-05
4.9063e-05
2.3193e-05
-2.24643e-05
1.19809e-05
-1.82172e-05
-1.467e-05
-4.70174e-05
4.25773e-06
4.79019e-07
1.81713e-05
-3.35475e-05
1.49332e-05
4.06946e-05
1.65938e-06
-1.75566e-05
2.20126e-06
1.12297e-06
3.28922e-05
9.99296e-08
-1.39227e-06
9.34498e-07
-2.0679e-06
1.72899e-06
3.02833e-07
8.81917e-06
1.13086e-05
-3.2528e-05
2.87233e-05
6.26394e-05
-5.58609e-05
-6.64664e-06
-2.4824e-05
1.65039e-05
8.0176e-06
5.7292e-05
-5.37146e-06
-3.80491e-07
7.10112e-06
-2.54581e-05
3.51834e-05
-1.0109e-05
1.26999e-05
-3.63366e-07
-7.83907e-07
-5.79414e-05
3.0049e-06
2.2077e-06
-4.50933e-05
4.21772e-05
2.56796e-06
-4.98217e-06
-1.68189e-06
-2.84846e-05
-5.9525e-06
5.63158e-05
-5.47576e-05
-1.83678e-06
-1.13308e-05
1.43277e-06
4.89243e-06
-4.77955e-06
7.1624e-06
-1.75879e-06
-5.62217e-06
-4.99857e-07
1.72787e-06
-7.83146e-06
3.18627e-06
-3.78129e-05
1.13048e-06
3.96337e-05
5.21725e-05
-1.30117e-06
-2.7822e-06
2.36446e-06
-3.29511e-06
-3.60211e-05
3.88679e-05
-5.24966e-05
-8.90896e-07
-5.23497e-05
-1.32175e-05
6.55581e-05
4.29513e-06
2.3609e-05
4.94092e-06
1.24532e-05
-1.7902e-05
-9.88888e-06
2.88861e-07
9.3774e-06
2.53647e-06
-7.49226e-07
-1.84228e-06
1.3043e-06
-1.37505e-06
6.17201e-08
-1.67844e-05
1.17122e-05
-2.17611e-06
1.36959e-06
7.84912e-07
4.52216e-05
1.64394e-06
-4.73256e-05
-2.17927e-05
-3.40104e-06
-4.23986e-05
3.78282e-05
-4.95685e-07
-2.73805e-07
1.86948e-06
4.30393e-07
-2.3649e-06
1.52401e-06
-5.02126e-07
-1.03606e-06
-1.9234e-07
-6.8378e-05
4.61388e-05
2.39624e-05
-1.22888e-05
3.00343e-05
3.23737e-05
-2.71786e-05
1.08835e-05
-1.09512e-05
-2.15343e-07
1.26559e-05
1.30948e-06
-1.54953e-05
1.45234e-05
-1.3061e-06
-3.57211e-06
4.7067e-06
-1.13006e-05
1.77386e-05
1.68772e-05
9.27981e-06
-2.11182e-05
2.18307e-05
2.13111e-06
3.54644e-07
-1.39375e-07
-4.42452e-06
4.81281e-06
-2.17482e-05
1.69602e-06
6.6043e-09
2.49942e-05
-2.54171e-05
1.60068e-07
-1.02753e-05
-8.45494e-07
-5.59179e-08
9.10003e-07
4.54976e-05
3.15323e-05
-3.03586e-05
-2.6929e-05
3.00953e-05
-3.91281e-07
-4.82e-05
-2.82985e-06
-5.22796e-06
3.47634e-06
1.6075e-06
-1.60393e-06
4.03441e-06
-3.5195e-06
4.97911e-07
2.11077e-06
-1.5425e-06
-5.99529e-07
-8.69456e-06
1.32094e-05
2.88555e-07
-1.36068e-05
2.29228e-05
3.13677e-05
2.77112e-05
-2.76091e-06
-2.55694e-05
-1.12426e-07
8.5244e-06
5.41555e-07
-2.03257e-06
1.44739e-06
-3.38978e-05
8.13388e-06
2.00911e-05
1.37267e-05
-1.33354e-05
-6.51629e-07
3.54275e-05
1.26217e-05
-7.74429e-06
-5.12516e-06
-1.37556e-05
9.72631e-06
3.74375e-06
-5.67012e-05
1.52718e-05
4.10181e-05
6.16656e-06
-8.42246e-06
-3.09645e-06
-6.94925e-07
4.49105e-06
-6.0061e-06
2.16058e-05
-5.06128e-06
-1.71931e-05
1.4737e-06
-4.58637e-05
4.39709e-05
1.05778e-06
1.02976e-06
-1.09675e-06
3.04796e-06
-4.81055e-05
2.01837e-05
2.73213e-05
-8.64524e-07
-4.53288e-06
-7.53099e-05
2.57354e-05
4.97686e-05
-6.38098e-05
3.68064e-06
-2.37111e-05
-5.13773e-05
5.73864e-06
6.63376e-06
1.53763e-06
-1.18339e-06
-3.70308e-07
3.01509e-05
3.56158e-06
-3.42846e-05
-5.10722e-07
1.58055e-05
-1.50645e-05
-5.7015e-06
-1.12812e-05
2.90508e-06
-2.90508e-06
1.20365e-05
-1.19423e-05
-1.4346e-06
4.44009e-05
3.6069e-06
6.03787e-05
-5.51267e-06
-5.48563e-05
-9.11398e-07
1.67189e-07
5.88373e-05
-4.6478e-05
-1.1502e-05
-1.93499e-07
3.03003e-06
-2.89625e-06
-1.47095e-06
1.96926e-06
6.9081e-07
-3.79935e-06
-5.72381e-07
5.57033e-06
-5.10785e-06
-6.19473e-07
6.78351e-06
-1.98156e-07
-6.81291e-06
5.52669e-07
8.27618e-07
-3.73027e-05
1.22518e-06
3.59592e-05
1.82167e-05
-2.34556e-06
6.07311e-06
-6.07311e-06
2.06372e-06
1.58422e-05
-1.83159e-05
2.66761e-06
-9.40724e-06
6.54064e-06
-7.4527e-06
5.05153e-05
-4.26896e-05
2.6439e-06
7.97506e-06
-3.2385e-07
-7.24379e-07
-7.70507e-06
-2.31491e-07
4.20085e-05
2.51172e-05
-1.60647e-06
-5.36532e-07
2.13033e-06
-3.92231e-07
-5.23969e-07
-2.03821e-05
-1.24129e-05
-8.71701e-05
1.66772e-05
7.09019e-05
-7.83514e-07
4.1295e-07
2.03041e-06
6.16193e-05
4.3027e-06
2.01514e-06
-4.38287e-07
-8.84693e-07
-2.66935e-05
5.21506e-05
-9.45191e-06
9.1652e-06
1.09049e-05
-6.527e-05
5.47317e-05
4.97172e-05
-5.84449e-06
-4.42313e-05
-9.43699e-06
3.14636e-05
-5.64487e-05
-1.19682e-06
-1.14628e-06
1.88759e-06
1.66278e-05
-1.48637e-06
3.8814e-07
1.08681e-06
-6.98331e-07
-2.38079e-05
4.20228e-05
-4.58292e-05
1.23791e-06
-1.44984e-06
1.9891e-07
-4.7291e-05
1.69961e-06
4.51277e-05
2.43674e-06
4.43284e-06
2.56304e-06
1.27469e-05
1.37422e-06
-7.3657e-05
7.82921e-05
-4.50018e-06
-2.07911e-05
-6.58616e-05
-1.91081e-06
5.08457e-07
1.38169e-06
3.69529e-05
6.78843e-06
-2.24299e-07
-1.95399e-05
6.63646e-07
1.83797e-05
-8.74242e-07
2.82455e-07
1.38542e-05
-1.42134e-05
9.296e-07
-1.23094e-05
4.14508e-07
-5.81538e-05
6.57875e-05
-7.00466e-06
3.87069e-05
-9.12761e-07
1.39829e-06
-4.9508e-07
6.18033e-05
-7.4941e-06
-5.37531e-05
6.58398e-06
-6.67423e-06
-1.40782e-08
3.63217e-05
2.42129e-06
-3.9086e-05
-4.95132e-05
-7.7022e-06
-3.91453e-07
7.62617e-07
1.97742e-05
-3.71486e-06
-1.66735e-05
4.74832e-05
-2.85333e-05
-1.91288e-05
1.91228e-05
-6.87437e-06
-7.07156e-06
1.80487e-07
-8.51732e-07
6.71174e-07
5.44798e-05
-8.81028e-06
-4.60375e-05
6.39755e-06
1.29194e-05
2.22262e-06
1.2583e-05
-1.53827e-05
4.80276e-05
-5.19814e-07
-9.8113e-07
4.21918e-06
-2.43808e-05
-2.53294e-05
5.07083e-05
-2.57614e-05
1.56896e-05
3.25883e-05
-2.97843e-06
-3.00428e-06
-5.54209e-06
5.32698e-05
-4.75483e-05
-4.38669e-05
5.35404e-07
8.1527e-07
-1.71657e-07
-6.43723e-07
-4.86395e-05
6.00011e-07
-6.53677e-06
2.04274e-05
5.19172e-06
2.19965e-07
-5.58769e-06
-2.91152e-06
-4.97871e-09
-2.68149e-06
3.78409e-06
-1.25623e-06
-8.27524e-08
-8.51414e-06
-7.69375e-06
3.24787e-07
-9.61517e-07
-1.74464e-06
1.37436e-05
2.26564e-06
-3.9086e-05
3.6383e-05
4.55623e-05
-4.45084e-05
-1.78243e-06
2.44503e-06
-2.83961e-05
-2.01142e-05
-6.5723e-05
8.30454e-06
-4.49851e-06
2.57381e-07
4.16141e-06
5.16901e-05
-1.67675e-07
-5.55108e-05
-7.01007e-07
9.15669e-06
-1.11018e-05
-5.48611e-05
-1.74319e-07
5.64111e-05
2.48023e-06
-3.51274e-06
9.73485e-07
-2.31117e-05
4.84774e-05
5.20575e-05
1.02347e-05
6.46232e-07
2.50349e-07
4.23112e-06
-4.69192e-05
4.41991e-05
-4.77308e-05
6.0227e-07
9.68013e-06
-4.72874e-05
3.78822e-05
-8.85981e-08
-1.98988e-05
2.82823e-06
-6.61648e-06
3.08291e-05
-5.41181e-05
-4.63465e-05
-2.36408e-06
1.02182e-06
2.01016e-05
-1.95689e-05
-1.12794e-06
-8.26749e-07
-1.2885e-06
2.06999e-06
-2.95447e-05
2.18111e-05
2.88706e-06
-1.29874e-06
-1.39899e-06
-4.74214e-07
2.00725e-06
-1.57984e-06
3.67629e-05
-3.22752e-06
-3.38137e-05
7.6445e-06
3.95659e-05
-3.58505e-05
1.19846e-05
2.7015e-05
9.95734e-06
-4.28503e-05
3.21124e-05
7.65867e-06
-2.77091e-06
-5.02465e-06
-2.41509e-06
-8.57797e-07
4.07672e-05
-8.45553e-07
3.24902e-06
-1.01539e-06
1.37218e-05
-1.59518e-05
-9.30231e-06
9.01528e-06
6.26891e-07
-4.18483e-05
4.5548e-05
-4.03008e-06
4.89737e-05
-2.87793e-06
-4.65174e-05
2.89533e-05
1.47497e-06
-2.84868e-06
4.89014e-05
-4.64259e-05
3.31041e-07
-1.08569e-06
4.69602e-07
4.85014e-07
4.24355e-05
-4.94842e-05
-1.38412e-05
6.1563e-06
-2.92622e-05
1.50369e-05
1.37483e-05
-1.27525e-05
-1.70838e-05
-3.27206e-06
2.28686e-05
-1.91686e-05
2.07845e-05
2.84802e-06
3.59614e-06
-3.74414e-06
4.93407e-08
-1.92835e-06
-8.59286e-09
-5.89194e-08
-6.78588e-05
-5.42279e-06
7.32403e-06
4.12286e-05
-2.2247e-06
-4.55241e-05
4.97143e-05
9.82245e-06
7.24087e-07
-9.90754e-07
2.61957e-07
5.88704e-06
-6.05756e-06
-3.54676e-08
2.95995e-05
4.18125e-05
-3.89702e-05
-3.67195e-06
-1.11508e-05
1.30668e-05
2.09568e-06
1.93256e-05
-2.65113e-05
6.86826e-06
5.95614e-07
1.59373e-05
4.32544e-05
-1.11364e-06
2.42105e-07
5.73118e-07
-8.01077e-07
4.0743e-07
-9.05574e-07
9.62185e-07
-6.28186e-08
-3.5363e-06
2.36092e-06
-5.18731e-05
2.72984e-06
3.54126e-05
9.07745e-07
1.65958e-05
-1.78503e-05
3.55126e-06
-4.33001e-06
6.3317e-07
-7.71455e-07
-4.36503e-07
1.20438e-06
-9.50708e-07
1.34247e-07
1.10408e-06
6.83056e-06
-8.11444e-06
-3.52666e-08
2.84779e-05
-2.69345e-05
-1.00525e-06
-2.13848e-05
-1.0321e-06
-1.03405e-05
-1.56588e-05
4.04227e-07
2.8445e-05
-8.27494e-07
5.99378e-07
-6.47511e-06
2.4107e-05
4.72711e-05
-4.60864e-05
-6.96317e-08
9.71957e-06
-9.96337e-06
2.91388e-05
1.04981e-07
-7.52229e-07
4.85016e-06
-4.22941e-06
-4.26321e-06
-2.58652e-05
-5.14388e-06
5.27782e-06
-2.54714e-07
6.3731e-06
-6.21668e-06
-3.89109e-07
1.18803e-05
5.76564e-06
-3.56456e-05
2.61504e-05
8.93922e-06
1.19228e-05
-1.32836e-05
-9.23013e-06
2.26231e-05
-7.60844e-07
-2.87035e-06
1.73697e-06
-3.80084e-07
-1.3817e-06
4.14367e-06
1.62099e-06
-1.71024e-05
1.77045e-05
-3.84968e-07
1.96912e-05
-1.98783e-05
4.79663e-05
-3.62778e-05
-3.92591e-05
3.58569e-05
4.20239e-06
2.53328e-06
2.45911e-05
4.79705e-05
-4.65487e-05
-1.78294e-06
7.10226e-06
-4.3667e-06
1.54842e-06
2.41295e-06
-2.26137e-06
-1.83968e-07
-4.92436e-06
-3.20976e-05
3.67191e-05
1.47746e-05
4.8082e-06
-7.93215e-06
-2.51005e-05
4.21694e-05
-3.96524e-05
-2.91194e-06
-6.23732e-07
1.17022e-06
5.43752e-05
-5.31479e-05
9.28285e-07
9.22725e-07
-1.50942e-05
1.35763e-05
-2.25383e-06
-2.86905e-06
-5.31329e-05
-3.66485e-07
-6.26611e-07
-1.03274e-05
-6.63779e-06
1.65822e-05
4.33164e-05
3.08397e-07
-9.53861e-07
6.44745e-07
1.00244e-05
-5.89231e-07
-9.79931e-06
5.5982e-07
-2.85194e-05
2.82087e-05
-2.02293e-06
1.75894e-06
2.15602e-07
-4.97409e-05
2.3351e-05
2.6006e-05
9.73102e-08
8.43487e-06
-2.74312e-05
2.65231e-06
2.44325e-05
4.62755e-05
-3.72611e-06
-4.28675e-05
4.25927e-06
-4.25927e-06
5.39375e-06
-1.56946e-05
9.89461e-06
2.47518e-05
-5.65438e-06
-6.0446e-07
-1.98393e-07
-1.53635e-05
-1.17882e-06
-4.56463e-05
3.45838e-06
2.75029e-05
-3.9331e-06
-2.43051e-05
-2.7703e-06
5.40973e-06
1.07014e-05
-9.83757e-06
-1.22989e-06
4.64102e-05
-3.29243e-06
2.76525e-05
-1.76271e-06
-2.65333e-05
-3.17676e-05
3.40126e-05
-1.73083e-05
3.5229e-06
-3.62272e-06
3.03947e-05
-2.71504e-05
5.82764e-07
5.57821e-06
8.21887e-06
5.2162e-05
1.06835e-06
-1.16705e-05
8.35712e-05
-7.3772e-05
-9.28167e-06
7.3094e-05
-6.15575e-05
-1.13012e-05
-1.4683e-06
4.19565e-07
1.03812e-06
-4.8817e-05
6.00734e-05
1.03321e-06
-1.66568e-06
-3.32261e-06
-4.09062e-05
-3.38077e-05
3.40866e-05
-9.23615e-07
1.46222e-05
4.05754e-05
-5.32917e-05
8.1303e-07
-1.25276e-05
1.12806e-05
5.0072e-05
-4.01134e-05
2.43295e-06
7.29627e-06
-3.12201e-05
2.01401e-06
-1.52149e-06
-5.48359e-07
1.3056e-05
-9.54313e-07
1.5687e-06
-3.95171e-06
-4.25095e-05
6.40119e-05
-1.04588e-05
1.03935e-05
-9.91093e-06
1.11299e-05
-1.05769e-06
2.15343e-05
-2.75813e-05
7.46555e-05
-4.87512e-05
-9.48557e-06
1.44655e-05
-1.23932e-06
4.52188e-05
-4.42763e-05
-4.11104e-07
-1.01777e-06
8.76176e-08
9.29776e-07
-6.56072e-06
5.64847e-06
-1.54154e-05
-7.66626e-06
2.25188e-05
-3.02729e-06
-5.72973e-07
6.01766e-05
-1.01243e-05
-5.04912e-05
-3.28855e-06
3.10293e-06
9.54314e-08
-8.75289e-06
8.19817e-06
-5.51256e-06
-5.11118e-05
-6.74166e-08
-4.53048e-06
1.35792e-06
3.58887e-07
-1.11715e-06
3.38904e-07
-1.92755e-05
4.82309e-07
-1.19385e-06
7.05665e-07
1.18119e-05
2.40854e-05
-2.29454e-05
-1.68154e-06
-1.85934e-05
2.02344e-05
5.00308e-06
-2.73639e-05
-4.59151e-06
1.30463e-05
-1.92187e-05
2.33202e-05
-4.65615e-06
-5.03356e-05
1.97758e-05
-1.90906e-05
-1.28312e-06
-3.78232e-06
1.56614e-06
-1.7857e-06
-1.49657e-06
7.06587e-06
3.46835e-05
2.499e-05
2.04414e-06
1.54295e-06
-6.36851e-07
-9.1383e-07
7.97663e-07
-1.14989e-05
-7.55946e-06
-4.68286e-07
-1.8025e-05
1.85824e-05
1.52816e-05
-3.39266e-06
3.41009e-06
6.27726e-06
-5.92819e-05
5.4671e-05
6.27538e-05
-5.96419e-05
-3.11657e-06
7.92684e-07
-2.12038e-05
4.69964e-05
4.04029e-06
-9.38762e-07
4.44868e-07
-1.67647e-07
8.44001e-06
-8.52812e-06
1.01683e-06
5.20422e-07
-7.3318e-07
1.31869e-05
-1.00972e-05
-1.33154e-06
5.14977e-07
8.12368e-07
-9.46835e-07
8.54069e-07
9.20793e-08
6.88292e-07
-2.2084e-06
-2.54219e-05
5.63189e-06
-2.75113e-06
7.31829e-06
-2.98264e-06
1.11621e-06
-3.504e-06
2.50923e-07
3.1402e-06
1.74746e-07
2.44737e-05
-1.81721e-06
3.77398e-05
3.63285e-06
-4.8835e-07
-2.90798e-07
-4.48933e-05
4.93721e-05
-4.89256e-06
5.20063e-06
-1.5904e-07
-1.20016e-06
1.92057e-06
-7.44877e-07
-2.1573e-05
-1.66108e-05
3.79068e-05
5.4485e-05
-6.40908e-05
9.8087e-06
2.0457e-05
2.69567e-05
9.68598e-07
-1.41873e-05
1.28283e-05
3.98322e-05
3.49271e-05
-6.06027e-05
2.8948e-05
3.12506e-05
1.48149e-06
-2.00013e-06
1.00827e-06
-4.82758e-08
-4.57961e-05
2.51226e-06
-6.01973e-05
-4.06375e-07
8.94415e-07
2.52609e-06
-7.53964e-07
-1.80639e-06
4.02461e-05
3.99049e-05
-3.80861e-05
1.00012e-05
4.58074e-06
4.05785e-05
3.85949e-07
8.43546e-07
-9.68689e-06
9.25141e-06
9.47752e-07
-8.11228e-07
1.10647e-06
6.14217e-05
-6.80479e-06
4.78613e-05
1.06517e-06
-4.95687e-05
4.91593e-05
-4.61762e-05
1.32902e-05
-1.21193e-06
-1.25216e-05
9.86353e-06
-1.58064e-05
3.21496e-07
9.77368e-07
-5.07293e-05
-9.53791e-07
5.18402e-05
4.15255e-06
-4.21172e-05
3.86061e-05
-5.89283e-07
-3.01704e-06
3.4707e-06
-5.04527e-05
5.18543e-06
-2.17355e-05
5.2232e-07
2.0666e-05
2.26299e-06
-5.19096e-07
-1.76719e-06
-3.35394e-05
-2.70567e-06
-5.80461e-07
8.54528e-07
-2.74426e-07
1.7781e-07
8.32697e-07
2.10617e-06
2.14602e-05
4.40598e-05
-1.58796e-06
1.7104e-06
-1.48432e-07
-7.31549e-07
-6.35272e-08
7.94854e-07
3.72635e-06
-1.52056e-09
-3.85848e-06
-3.07638e-05
-7.74666e-07
2.46351e-06
1.29317e-06
-1.17416e-06
-1.22084e-07
6.24379e-06
-6.55459e-06
2.24063e-07
2.68948e-05
-2.70863e-05
-1.54961e-06
-2.2787e-05
5.72877e-05
-1.10501e-06
1.19314e-06
6.35181e-06
-2.23111e-05
4.16234e-07
-1.62545e-06
1.20026e-06
-3.12358e-07
-8.75931e-06
-7.21843e-07
-1.19762e-07
-1.4862e-06
2.87055e-07
4.24116e-05
2.81417e-06
4.77953e-05
-5.48814e-05
6.95702e-06
-1.26561e-06
-3.85352e-05
8.18382e-06
4.35815e-05
-2.7455e-05
-4.45171e-07
8.77318e-06
-8.63278e-06
-5.24597e-07
8.53632e-07
-3.31236e-07
-8.82045e-07
-3.72882e-07
1.24521e-06
-1.01641e-06
-4.63277e-07
-4.54377e-05
-2.80782e-06
-4.67221e-06
-2.65575e-06
7.13496e-06
-1.00035e-07
-3.53381e-06
3.6729e-05
-5.0413e-05
-7.55753e-06
-2.4211e-07
-3.44425e-07
2.89337e-05
2.34421e-07
-1.35195e-06
2.68099e-05
-2.4206e-05
-1.9378e-06
-3.12191e-06
-4.28936e-05
3.26279e-06
-8.15432e-06
-2.13309e-05
2.36915e-06
-3.37676e-06
-1.49614e-05
1.44422e-05
2.27986e-06
4.0992e-05
2.20082e-06
-4.31696e-05
1.17672e-05
3.01212e-05
-3.53442e-05
-6.56574e-08
-3.24695e-06
2.68552e-05
7.14431e-07
-3.7327e-05
3.7009e-05
7.73059e-06
-7.34049e-06
-6.62473e-07
-6.81763e-07
2.07824e-06
-1.13464e-06
9.87548e-07
1.44191e-07
-2.98585e-05
2.91689e-05
1.05141e-06
5.25167e-07
1.88589e-06
-2.50008e-06
8.32886e-07
1.65714e-06
1.24487e-06
-2.11194e-06
1.3164e-05
-7.41757e-07
7.32007e-07
-6.58061e-08
-6.66369e-07
-8.68011e-07
-4.49475e-05
4.19023e-05
-2.84958e-05
-1.40362e-05
1.60109e-05
1.16035e-06
-1.07683e-05
9.46457e-06
1.13325e-06
3.58794e-07
-1.50533e-06
1.36642e-05
-5.04481e-06
-3.31379e-05
2.71479e-05
1.02191e-07
1.6094e-06
-3.57385e-06
1.80568e-07
-4.83714e-05
2.46652e-06
-3.28337e-05
3.62395e-05
-2.07445e-06
3.58386e-05
-3.60107e-05
-1.94933e-07
-4.70935e-06
3.70148e-06
4.62235e-05
5.40458e-06
-7.44167e-06
5.57367e-06
-1.60095e-05
-1.82143e-06
1.50759e-05
2.53797e-05
-2.6014e-05
-4.8714e-05
-3.8971e-07
4.83816e-05
9.71111e-07
-5.65332e-07
-3.71925e-05
3.87734e-05
4.78301e-07
1.39507e-05
-2.14659e-07
-6.47566e-07
2.03329e-05
6.67302e-07
-2.02274e-06
1.31374e-06
-3.99214e-07
-1.33473e-06
1.37327e-05
-1.26694e-05
4.49518e-05
3.91336e-06
-4.92056e-05
-3.47859e-06
-1.82219e-05
4.65925e-07
-1.12606e-06
6.58447e-07
2.9877e-06
-2.9877e-06
-2.32043e-07
-9.06281e-07
-1.08513e-05
-5.05699e-07
-9.49843e-07
-4.54179e-07
1.39014e-06
1.38731e-05
-8.97044e-06
1.17247e-05
-1.79723e-05
1.455e-06
-1.77323e-06
2.21748e-06
4.35489e-07
-2.05361e-06
-4.699e-06
1.43283e-05
-4.47434e-07
9.25106e-07
3.4118e-06
-4.29544e-06
7.76932e-07
-1.22351e-06
1.34743e-05
-1.24953e-05
-7.52091e-06
5.16568e-06
2.27151e-06
-1.63487e-06
4.59952e-05
-4.50231e-05
-1.2873e-06
-1.49228e-05
-5.20026e-07
1.19666e-07
5.52582e-05
-5.51755e-05
1.24559e-06
6.70307e-06
-6.03445e-06
-8.9668e-07
-5.42453e-07
5.42453e-07
-4.42452e-06
1.58253e-06
6.6297e-07
-7.24411e-06
7.71765e-07
8.75508e-06
-1.81954e-06
-4.58301e-06
1.03972e-06
3.45254e-06
1.39359e-05
-2.1959e-07
-9.96836e-07
-3.13421e-05
5.61828e-07
3.00857e-05
3.97322e-07
-1.00385e-06
-4.85149e-05
4.23208e-05
-9.12304e-06
2.71663e-08
1.90158e-06
-8.44926e-07
-1.07599e-06
2.28697e-05
-2.66125e-06
-2.09168e-05
9.23342e-07
-2.02471e-07
9.37069e-06
-9.85011e-08
-3.86689e-05
1.79813e-05
2.0197e-05
-2.87444e-05
-1.39334e-05
4.486e-05
-2.56328e-05
2.14835e-06
2.83812e-05
8.09228e-06
-6.10038e-07
-4.66685e-06
2.49641e-06
-5.66313e-07
-1.97006e-06
-1.11791e-06
1.89296e-05
-1.82299e-05
1.77324e-07
-4.05742e-05
3.52326e-05
6.32934e-06
3.94958e-07
-9.759e-07
1.122e-05
-3.65839e-05
-5.12936e-05
5.2021e-05
-1.42247e-06
3.22785e-06
-3.81289e-06
-1.30626e-05
1.87298e-06
1.079e-05
1.17561e-06
-1.0055e-06
5.50006e-05
-7.37501e-06
3.40621e-06
4.1533e-06
1.69666e-06
-2.42957e-06
1.29678e-05
2.45882e-06
-6.5871e-08
2.90318e-06
-2.08467e-05
-1.87154e-05
4.2233e-05
-2.88706e-06
3.33004e-07
-1.20872e-06
8.67805e-07
-3.2238e-05
-5.79808e-06
3.77189e-05
3.16698e-05
3.17726e-05
5.66011e-05
-5.73248e-05
1.09836e-06
-1.43362e-05
5.51445e-07
4.96087e-05
2.85758e-05
3.51371e-05
1.88471e-06
2.491e-05
4.96631e-05
-4.53946e-05
-4.42628e-06
1.97166e-06
-5.04736e-08
1.37204e-05
7.9005e-06
-8.64393e-06
-4.47754e-06
-2.0608e-07
-3.72594e-06
-4.52997e-05
5.21773e-07
-1.48722e-06
5.06104e-06
-3.25261e-05
2.68105e-05
-7.24105e-07
-6.12584e-07
3.59985e-07
-3.17494e-06
4.57888e-07
-1.05066e-06
5.88397e-07
8.16095e-06
-5.23716e-06
-3.13988e-06
-3.47849e-05
-4.53138e-06
-2.30845e-07
7.74389e-07
-5.43622e-07
9.21409e-06
1.17259e-06
3.54952e-08
-1.86284e-06
2.57416e-06
-7.60354e-07
-4.78137e-07
-4.39778e-06
6.80713e-07
9.31209e-06
-1.36296e-05
1.5619e-05
-2.39945e-06
1.70749e-06
-1.21728e-05
3.20964e-05
7.27096e-07
-9.97177e-07
2.68722e-07
-2.67052e-05
-9.72138e-06
3.59266e-05
-7.89695e-07
-2.28858e-07
4.05511e-06
-1.99101e-05
-3.00452e-05
2.51974e-05
6.97196e-07
-7.4556e-07
-9.00924e-06
-4.32222e-05
-1.95305e-06
1.59543e-06
-1.13553e-05
-2.78012e-05
2.53863e-05
1.97213e-05
-3.78496e-05
-1.4761e-05
-5.99142e-07
3.26931e-06
-3.21144e-06
-7.89417e-06
1.03499e-05
4.65622e-05
-1.97562e-06
-4.53285e-05
3.24723e-05
-1.48392e-05
1.46e-05
-1.30582e-06
3.85854e-07
1.69219e-05
-6.60344e-07
-3.97993e-05
3.40821e-05
5.55209e-06
-1.07522e-05
-5.79762e-07
4.12983e-06
-4.08131e-06
-2.02303e-07
1.88082e-05
-1.86569e-05
-5.82289e-05
6.46425e-06
5.20019e-05
9.87201e-07
-2.61231e-07
1.73745e-05
2.86264e-06
-2.07424e-05
-4.17542e-05
5.39491e-06
1.05939e-06
-1.08747e-05
-7.92727e-07
-2.48922e-05
2.88419e-05
-5.18533e-07
-2.94785e-07
1.66232e-06
3.12781e-06
-4.87673e-06
-6.81133e-07
-2.73858e-07
3.82588e-05
1.49665e-06
-4.01267e-05
1.16103e-05
-1.32125e-05
6.37537e-07
1.35432e-06
-2.04026e-06
5.69305e-05
6.90336e-06
3.42301e-05
1.35864e-07
2.37084e-05
-2.69435e-05
2.72561e-06
-4.57327e-05
-6.65511e-06
-6.40234e-07
-1.26312e-05
3.78385e-05
1.75284e-06
-2.30424e-06
-1.38719e-06
1.00544e-06
3.74146e-07
5.40058e-06
-5.44349e-05
4.90787e-05
-1.37699e-06
2.82604e-05
-2.71903e-05
-4.41574e-05
2.00961e-07
-4.85713e-05
8.86602e-06
-1.69117e-05
-4.69951e-05
4.00653e-05
9.83884e-06
-2.10768e-06
-9.46711e-07
5.81133e-06
3.44663e-05
-5.5729e-06
-2.94003e-05
1.35558e-05
3.44201e-05
-4.80927e-05
-5.83468e-05
6.25718e-05
-3.89369e-06
-4.9212e-05
5.51614e-05
-4.51529e-06
2.12814e-05
-2.29584e-05
1.15281e-06
-1.06163e-06
5.3479e-07
5.8461e-08
-1.50361e-05
-6.57028e-05
-1.85971e-06
2.00727e-07
1.14637e-06
7.35295e-07
-4.59888e-05
4.44468e-05
-5.22657e-05
4.52821e-06
-1.67084e-06
6.31317e-05
8.17103e-07
-1.27079e-06
-1.86417e-05
7.98345e-06
7.74708e-06
-1.05686e-05
-8.40556e-06
9.63919e-06
-4.79527e-06
-8.58934e-06
6.42256e-07
-1.78862e-06
1.12407e-06
3.91623e-06
2.77348e-05
-3.1845e-05
-1.36608e-06
-4.81281e-06
-5.74397e-07
9.11006e-06
-8.80787e-06
3.33936e-05
-3.45195e-05
4.28989e-07
8.21343e-06
1.58423e-05
-2.44873e-05
1.16594e-05
6.0971e-06
-1.80033e-05
-6.29516e-07
5.24313e-06
4.68307e-07
2.80489e-06
-4.7808e-05
4.47484e-05
-1.41868e-05
1.10716e-05
2.70113e-06
-1.30726e-06
3.3959e-07
9.6063e-07
3.45626e-06
-6.38442e-06
5.27935e-06
-1.01404e-06
-4.36087e-06
1.14939e-05
-7.88235e-07
-1.10821e-05
-1.44381e-06
-8.79489e-06
-3.66671e-07
-4.55651e-05
4.55073e-05
-3.39177e-07
-2.25354e-05
1.84239e-05
2.21423e-10
-9.95608e-06
3.47951e-05
-3.31262e-05
-1.93036e-06
5.5283e-05
3.02179e-06
-5.85991e-05
-9.05928e-07
1.6857e-05
-1.55363e-05
-1.0149e-06
-3.34555e-05
1.44148e-06
8.66401e-07
9.63262e-07
-1.85253e-06
2.21719e-07
7.60576e-06
-7.95598e-06
-2.80825e-05
-2.58365e-06
2.48633e-05
-5.99449e-06
-3.52112e-09
5.79981e-06
-3.19378e-05
2.40935e-06
1.93254e-05
1.48005e-05
3.30648e-06
-4.41923e-07
-2.92883e-06
-1.19393e-05
7.4773e-07
-3.22431e-05
3.93801e-07
2.74547e-06
-6.55042e-07
9.81283e-07
-1.65419e-06
9.94144e-07
1.65303e-05
-6.19385e-06
-7.70873e-06
2.39787e-05
2.79288e-06
-4.56881e-06
-2.61983e-07
2.82245e-07