/*--------------------------------*- C++ -*----------------------------------*\
| =========                 |                                                 |
| \\      /  F ield         | OpenFOAM: The Open Source CFD Toolbox           |
|  \\    /   O peration     | Version:  v2012                                 |
|   \\  /    A nd           | Website:  www.openfoam.com                      |
|    \\/     M anipulation  |                                                 |
\*---------------------------------------------------------------------------*/
FoamFile
{
    version     2.0;
    format      ascii;
    class       volScalarField;
    location    "200";
    object      ddt0(omega);
}
// * * * * * * * * * * * * * * * * * * * * * * * * * * * * * * * * * * * * * //

dimensions      [0 0 -2 0 0 0 0];


internalField   nonuniform List<scalar> 
18355
(
-0.0991773
-2.38261e-06
-0.0130232
-2.06927e-06
0.00795577
-0.000924277
2.24424e-05
0.0115502
-2.86055e-06
-0.0263714
5.59669e-05
0.00418157
0.00339136
-0.278827
-2.13537e-06
-1.14474e-06
-2.13826e-06
0.00022035
-0.0127465
2.07316e-05
0.803425
-1.66109e-05
-5.52505e-07
-0.00240081
-4.14814e-07
2.49785e-05
1.61643e-05
-2.08276e-06
-3.50114e-06
8.39598e-05
-0.479042
-0.00224992
-4.23775e-06
-1.14765e-06
-3.37984e-07
-7.35458e-05
5.39839e-05
-7.91363e-05
7.4472e-05
2.77614e-05
-1.59588e-06
3.31046e-05
-1.7108e-06
-2.15984e-06
-2.03725e-06
0.000189193
-3.02204e-06
-2.78876e-06
-0.360766
-2.1531e-05
2.43381e-06
-0.159226
-2.26005e-05
0.0108994
-2.81605e-06
-1.08315e-06
4.74973e-06
-1.29608
1.20358e-05
0.0676674
-1.49792e-06
0.00491973
0.00991893
6.84433e-05
-0.0024877
3.12606e-06
-0.000149926
2.59435e-05
1.10342e-06
0.0111544
-6.64819e-06
-2.78045e-06
-0.00165646
0.000306986
0.185874
5.05315e-07
-1.73138
1.40088e-07
-5.98849e-06
0.149308
-0.000145624
0.0411186
8.41969e-07
-0.000250795
-0.000714237
3.57395e-06
-3.44737e-07
-0.000408398
1.66395e-06
-0.000435079
-0.283801
0.00604246
0.0259629
-2.21399e-05
-0.061143
-0.000128506
6.73573e-07
-1.80319e-05
0.00546949
-1.18697e-05
-0.000711648
-5.73529e-06
-1.85791e-05
-5.89124e-07
-0.000170576
-7.55407e-07
-0.00276
-0.144179
-0.000133691
-2.17626e-06
4.07343e-06
6.43248e-06
-0.000685147
-0.000225281
-0.00252887
-0.000474212
-4.87129e-06
0.160204
-6.99979e-05
-0.00012377
-0.0699621
-0.0105969
-0.253729
7.17739e-05
0.132413
-0.00180271
1.54044e-05
-1.99349e-06
-0.161236
-7.79877e-06
9.11572e-07
-0.190806
7.18842e-07
0.00580226
0.008551
9.64602e-07
0.000468458
0.0717579
-9.99793e-07
0.0341658
-0.000119845
0.00169467
-1.45794e-06
-0.810357
0.00818073
-2.62566e-06
0.0189622
-3.21764e-06
-0.000617842
-0.0586971
-2.07998e-06
-0.000126491
1.82513e-06
-0.000611296
-1.98934e-06
-7.8599e-07
-1.9258e-06
4.41807e-06
-1.77384e-06
-6.38765e-07
0.000213579
9.99176e-07
-2.09071e-06
-0.000362586
0.000301164
-0.0967587
0.0474103
-0.20539
0.195685
-0.000122317
2.81091e-06
0.0050824
4.42626e-06
-0.238489
6.03445e-06
-2.20819e-06
6.51855e-06
-8.84736e-07
-1.5712e-05
-0.000716529
2.09993e-07
-0.0897438
-1.09437e-05
-1.89773e-06
-0.0653337
-1.71753e-05
-3.87338e-08
-0.000734262
-2.22322e-06
9.62621e-06
-0.00323308
0.00554387
-1.84686e-06
3.65275e-06
-1.8612e-06
-0.0148345
1.61398e-06
-0.311139
-2.26657e-06
-0.254127
-1.54847e-05
0.000127334
0.000133486
-2.20405e-06
-0.217931
-5.62474e-06
0.0749876
-1.96773e-06
-4.67431e-06
2.97606e-05
-7.96307e-07
-0.0138952
0.000133605
6.32673e-05
-3.18004e-06
-0.161871
-0.000733844
1.06238e-05
-6.37239e-06
-2.81224e-06
-0.000243864
8.94782e-07
-0.000350215
0.000207824
-0.00985872
-4.16127e-05
1.69375e-06
0.0598544
1.16229
-0.00141193
1.65961e-05
-0.000172469
-0.0786326
1.09714e-06
0.000719741
0.0148364
-6.54709e-06
-0.000435191
5.09423e-05
2.57389e-05
-2.47964e-06
-1.47176e-05
-5.28465e-05
-0.00120998
-5.84222e-06
-2.79637e-06
-2.68916e-06
-0.0131019
-0.0121028
-4.4304e-06
1.44672e-05
0.00908066
0.00219286
0.000397259
-9.40528e-07
0.00309215
4.44496e-05
-1.8578e-06
-0.000107666
2.71713e-07
-0.051656
0.0858404
0.00496781
0.000375083
0.000118296
0.000538031
3.41234e-05
0.00643377
8.08703e-08
-2.91535e-06
-1.76857e-07
-2.70806e-06
0.00012416
1.57981e-05
-2.09623e-06
-3.43251e-06
0.000727495
6.24497e-07
0.00534835
0.0997702
0.000559414
-6.88092e-07
-0.000518423
-2.73214e-06
-0.000139297
-4.37573e-06
-0.000862006
-1.53639e-06
-0.000740119
-0.011382
-3.91762e-06
0.00207816
-6.75044e-05
-0.000452764
0.000795296
-3.01386e-06
3.42288e-06
0.00392763
-2.44958e-06
0.00263231
9.60511e-05
-0.611135
0.000277258
0.00485487
0.00019347
0.000750959
-1.63288e-05
2.06827e-05
0.000336404
0.00203726
-0.106688
0.00328879
-4.36369e-06
-0.000211484
0.0101429
-0.000605856
-4.23938e-06
-2.60237e-06
-2.48527e-06
0.00212659
-0.0246219
-2.85433
-0.0815786
0.000473667
-9.01652e-05
0.0113741
-2.8889e-06
-5.16425e-06
-9.53228e-05
-3.69341e-06
-0.00140889
-2.15569e-08
-0.0404517
-7.56968e-07
0.100104
-2.91138e-06
2.34665e-05
0.000221968
0.00359251
-0.39918
-0.00124785
-0.0789755
-1.07791e-06
1.82192e-06
-3.71402e-06
0.00014349
-0.0275215
2.12635e-06
-1.30064e-06
-0.105329
-4.41107e-06
2.19914e-06
0.00285876
1.98965e-05
-2.62615e-06
1.61701e-05
-0.000966571
-2.20922e-06
-0.000962919
-4.3186e-06
-1.53377e-06
-9.24374e-06
0.0173336
0.0268459
-3.73159e-06
-1.32752e-06
-0.00148737
-2.52688e-06
1.78267e-06
-0.306504
0.0284779
0.000603465
-3.56282e-06
-8.20234e-06
0.00385467
-3.70372e-05
0.00426409
2.10627e-05
-2.70696e-06
-0.00458136
0.00245121
-7.2845e-06
-1.8477e-06
0.000205165
-1.52558e-06
4.04535e-05
-1.8924e-06
-0.00334797
-4.2456e-05
-0.000102092
4.4011e-06
-2.6515e-06
9.88097e-05
5.95383e-06
0.00425471
-0.177617
-0.000218111
0.000123358
0.00320976
0.000133702
-2.66988e-06
1.48419e-07
0.00169363
-2.18471e-06
0.000530024
1.87808e-05
0.000414778
0.00728333
-0.13004
-0.325753
0.00539156
-4.06992e-07
0.465831
-1.18928e-05
-2.11367e-06
0.44328
-2.90235e-06
-0.000498578
3.83571e-05
-0.0022882
-2.69841e-06
0.00509919
0.262255
0.0044153
2.67788e-06
-3.26251e-06
0.00484661
-7.26549e-05
1.3669e-05
-0.0419322
0.0670701
-1.95869e-06
0.00180052
0.00435271
-3.17466e-06
3.05784e-05
-0.00105069
-0.444481
0.000774561
-3.46695e-06
-1.53586e-05
0.00120561
-1.89676e-06
-3.73611e-06
1.71822e-05
-0.0307893
-0.0999487
-2.74369e-06
5.63174e-07
-2.38209e-06
0.00357922
0.0017239
1.84849e-06
-0.000614166
-0.000221613
-1.63239e-06
-0.00413726
0.00498772
-1.26549e-05
-1.37111e-06
0.00055843
0.00223072
-0.533047
-3.37312e-06
-0.277977
-1.12241e-06
-3.48544e-06
0.000448419
-8.83197e-05
-0.00442979
-0.00166734
-0.000115751
0.000356615
-1.6797e-05
0.00289411
-8.08475e-05
0.000286916
-8.06259e-06
-3.70134e-06
-4.70699e-06
-3.83963e-06
0.0051811
-0.0799467
-0.00256082
0.000242447
1.55998e-05
-7.46088e-06
3.53208e-05
0.000190587
1.80977e-06
-6.10293e-06
-1.2766e-06
4.84046e-05
-2.77293e-06
1.61663e-06
0.432776
-0.309585
0.0108454
-7.22991e-06
3.05621e-06
-0.00108955
-1.4283e-05
-0.0741303
-0.0241888
-0.000185087
-0.000256843
0.00035689
-3.10975e-05
-0.000102204
0.791454
-0.000774565
-5.08044e-05
-0.010474
-1.40843e-06
-0.332442
0.499875
8.0841e-05
3.28899e-05
0.764697
-2.17314e-06
0.00501074
-0.00237421
0.00671091
-7.55729e-05
-4.37256e-06
-2.11226e-06
-0.0151613
-0.448847
0.0112436
0.144125
0.000157155
-2.1309e-06
-0.000258798
-2.86452e-06
-0.000162941
0.133274
-0.0817254
-0.399606
-0.0101724
-0.00062431
-0.00199864
-0.000728913
-3.12492e-06
1.01459e-06
5.98277e-05
4.56935e-05
-4.48166e-06
-2.78473e-06
0.187849
8.48011e-07
0.029579
-0.000231489
0.00542374
0.00483884
1.08475e-06
-0.000220809
-0.204613
-1.39731e-06
-1.44118
-2.02981e-06
0.0164961
-0.00080599
-1.69168e-06
-0.000597789
0.00628041
0.00561946
-1.44319e-06
2.21311e-06
0.00100727
9.35359e-05
0.00546969
-1.64127e-06
0.00470977
7.88348e-07
-0.0145926
-4.17376e-08
-6.77263e-06
-0.00190167
0.000521491
0.00650395
5.96098e-06
-0.000295122
-3.88977e-05
-0.031554
-1.69026
-6.71103e-05
0.00192153
1.12918e-06
-0.000525893
-6.77502e-06
-6.7126e-05
-0.0203553
-1.62774e-06
-0.152821
2.71733e-06
1.84975e-06
-0.000133627
-0.0695555
2.8903e-05
0.00366692
4.42196e-05
0.001025
0.134341
-3.26559e-06
-2.75405e-06
-0.227037
-0.000669077
0.300312
-0.00184833
1.74605e-05
-2.76686e-06
-7.23882e-06
0.000302784
5.25953e-06
-2.12109e-05
0.029876
0.77877
-6.06608e-06
-0.308837
-0.379481
7.11787e-05
-0.00847023
-3.98965e-06
0.302008
0.0137854
-6.42241e-06
0.0609343
0.00138295
-0.0136142
0.00312823
1.21766e-05
-5.202e-06
4.38729e-06
-0.173171
0.00221637
2.08793e-06
-4.0579e-06
0.0265093
-1.08827e-05
0.00167565
-7.91887e-06
0.00115906
-0.983184
-0.0153632
0.0155028
-0.0239576
-0.000729646
-1.77904
-0.000262635
-1.66342e-07
-0.000445725
-0.000458588
-5.09769e-05
0.0018047
2.42534e-06
0.525009
-2.35766e-06
1.67073e-05
0.146932
1.78274e-06
-0.000517918
0.00107979
0.00159809
7.20216e-07
-2.62925e-06
-0.000143565
-0.000345943
-4.70054e-07
4.22174e-05
-0.000709557
0.00834417
-9.73828e-05
-6.48639e-07
-0.000167584
0.244221
3.45006e-07
-0.0194109
-0.00772414
-1.65151e-06
-0.205693
-5.74698e-07
-0.00956147
-2.8116e-06
4.42972e-05
-0.00201393
-8.27247e-05
-0.562757
-8.64839e-05
-2.61268e-06
-0.133117
-2.82617e-06
-2.3606e-06
-1.18889e-06
-4.54092e-07
-0.00058218
-0.000431417
-0.354898
2.83482e-06
-1.52659
5.05845e-05
-0.0176858
0.15187
2.94125e-05
-3.62527e-06
-0.000304765
-4.93224e-07
0.00582204
4.9858e-07
-2.27952e-06
2.78653e-06
2.22135e-06
-1.63357e-06
-0.00819718
0.000257319
0.00236056
1.74331e-05
-0.000178964
0.000177076
0.000223536
0.100171
-2.14333e-06
0.00512288
-0.000145607
1.889e-06
-0.0460111
-0.524672
2.50184e-06
0.0840878
9.59053e-07
-0.105906
0.0010604
-4.96718e-06
0.00100859
-0.000368803
0.00432817
2.76074e-06
3.80132e-05
-0.00959823
0.0016918
-0.0111037
-1.76532e-06
-0.0120436
0.0037396
0.9714
-1.66682e-06
-3.57987e-05
8.52989e-06
-1.53999e-06
-3.8734e-06
-6.79454e-08
-1.91703e-06
0.0205181
-9.22232e-07
-4.32541e-07
-9.18462e-07
4.47965e-06
2.0888e-07
0.0015756
0.00401941
-4.95578e-06
-0.000342164
1.094e-05
1.2721e-05
2.76148e-05
-1.67313e-06
0.00139906
-4.86052e-07
2.94847e-07
2.12505e-07
-6.6971e-06
8.43647e-06
-9.81894e-05
-0.0132429
0.0125389
-8.06264e-05
6.07271e-07
0.00306606
-2.07244e-06
-7.62918e-07
-0.000120204
-0.0173096
0.000225189
-3.10136e-05
1.38978e-06
-2.04167e-06
0.000313013
1.30875e-06
0.000422743
5.26368e-07
-8.98086e-06
-3.4958e-06
-3.4587e-05
-0.251074
1.22971e-07
-1.39188e-05
-1.86595e-06
-0.00992832
0.00864324
0.000141502
5.62126e-06
0.000111768
-0.000249476
0.000813595
1.49308
-1.97513e-07
0.0129095
-1.45709e-05
-0.0345601
-6.3964e-05
-3.98977e-06
5.92986e-06
0.0058978
-5.64195e-06
0.000181669
0.000976689
0.00241299
-0.00175241
3.13854e-06
-6.50785e-07
5.51702e-07
2.06142e-07
0.000357255
0.00594918
-0.103844
0.00208496
1.04023e-06
1.78854e-06
-8.83009e-07
-2.96826e-06
-5.04721e-06
-1.03367e-05
0.00234607
0.000314786
-0.15731
1.15136e-06
-2.32723e-07
-0.000769329
-2.82349e-06
0.00226494
0.00197854
-0.00048099
0.00380332
0.0499818
0.000299655
-2.85492e-06
1.66833e-06
-2.87058e-06
-1.96886e-06
-0.000609448
0.00224706
0.00456382
-2.67845e-08
-6.1912e-06
4.71003e-05
-5.86961e-06
1.47519
0.0245365
-2.33319e-07
-6.60575e-06
-8.11513e-07
-3.74056e-06
2.23144e-06
1.61915e-05
-0.00105098
-3.28985e-06
-5.82971e-05
6.74915e-07
-3.95455e-07
-4.19176e-06
-1.57008e-06
0.000427706
-3.07274e-07
0.000307036
2.79702e-06
0.0228749
-0.0106947
0.000219616
-0.279364
-0.00012493
-5.00105e-06
0.00433235
-0.0180948
-2.34725e-06
-1.71903e-06
-3.27542e-07
0.00111815
-8.87602e-07
0.000317403
-0.0348665
-3.1943e-08
-3.83913e-05
9.23406e-07
0.012165
-0.060497
1.98913e-06
-8.93043e-07
8.62942e-05
0.000376314
6.39676e-07
0.00560003
-1.44093e-06
3.73641e-07
-8.59966e-05
0.199692
0.152327
-0.0748474
-0.0098904
3.65441e-06
0.000315434
-0.00223848
7.28011e-05
-5.90691e-07
-0.00224867
-0.000185208
-0.031916
0.451797
5.02028e-06
3.70121e-06
8.6798e-07
-4.03417e-05
4.08052e-06
-0.312073
-0.0631593
-1.98902e-06
4.68765e-07
4.58071e-07
0.00117338
-3.15488e-07
6.49624e-06
-0.0057933
-8.12798e-06
-3.06982e-05
-0.114253
0.00618755
0.00601271
-1.99273e-06
-3.88422e-07
-2.37726e-06
-0.000338549
0.000186762
-0.00104431
1.3459e-06
-1.4277e-06
0.000201139
-0.00484748
-6.67937e-07
-4.56042e-07
0.00509342
2.50935e-06
-8.41715e-07
-2.66926e-06
2.27971
-1.17736e-06
-1.04797e-08
-6.96934e-07
-5.86713e-05
7.46726e-08
-0.000189907
0.00376131
-4.30291e-07
-0.00457363
-0.000102302
0.000629328
0.00379799
-2.21029e-06
0.000151136
-4.13483e-07
-1.18851e-06
-2.06353e-06
0.0285449
-0.0211251
-0.000953055
6.14939e-05
-0.0754661
0.00483468
1.31864e-06
0.00613058
-0.00238597
-1.7185e-05
-3.02744e-06
-0.273181
-4.21846e-06
1.6061e-06
1.77828e-06
-0.0329193
0.827115
-0.471613
-1.9429e-06
0.00502631
0.0115271
0.000311155
0.000347871
-8.12731e-05
4.01629e-05
0.000908925
-0.160891
0.000116228
-4.04367e-06
4.2863e-05
0.535285
-0.0159221
-1.03931e-06
3.46393e-07
1.58012e-05
-0.0303491
0.000188948
3.05682e-05
-0.0681697
-0.000169543
-0.000802231
-6.64849e-05
-0.045691
-2.05082e-06
-0.000196602
-2.13417e-05
-7.22893e-06
-2.52371e-06
2.40827e-05
-5.62513e-06
2.03345e-06
-6.6935e-06
-0.013539
-8.8997e-07
0.225968
4.40426e-05
-9.50243e-07
-8.04921e-07
0.00625019
-8.94673e-07
8.3485e-06
0.000173606
-0.613524
-0.0134602
-9.76195e-05
-5.12765e-06
-0.0183396
-2.08208e-06
0.000604811
-4.89462e-06
-0.508357
0.000199798
0.0332435
-0.000417986
1.29087e-05
0.00178201
-1.20439
0.0272572
2.85343e-07
-2.73653e-06
0.0012542
-0.137494
-2.2827e-06
0.00255041
7.79856e-06
0.000367332
1.3699e-06
2.62609e-06
2.38011e-05
-2.53451e-05
-4.36187e-06
-0.000794254
-0.00153055
-0.000202303
0.0041803
-0.167206
-3.02792e-05
-0.0241996
-7.262e-06
0.00442566
-0.00919824
3.59533e-05
1.77825e-06
4.30213e-05
-4.77654e-06
-0.678147
5.70381e-06
-3.99159e-07
0.00535916
-1.23447e-06
-4.65587e-06
-1.64149e-06
-2.01939e-05
-1.49848e-06
0.430788
0.045289
0.00457964
-9.10299e-07
-1.77533e-06
-0.00921925
6.78978e-07
0.0282197
1.52563e-05
-4.61083e-06
-5.24444e-06
-0.000164566
-0.0141261
0.000105595
-1.04865e-06
-0.223274
3.0615e-06
-1.04601e-05
0.00115714
-0.0263463
-0.213877
-8.96618e-07
-4.52831e-06
-0.847259
0.0174313
-0.153218
6.66808e-05
0.000851858
0.00157303
-2.81038e-06
0.00114968
0.000112799
0.0175863
-0.000103322
-2.64764e-06
-5.96385e-05
-1.39999e-06
-0.0423183
-1.26986e-06
1.30007e-05
0.00553745
0.00060861
-0.102576
7.22267e-06
-6.28036e-05
-3.6658e-06
-3.43641e-06
-4.13319e-06
1.54471e-05
9.81126e-07
3.38877e-06
2.04618e-06
-7.25886e-06
0.00241975
0.000421059
0.00107854
-6.75098e-06
0.000178988
-3.28346e-06
-0.0244425
1.7257e-05
-5.33096e-05
4.85608e-06
-7.64163e-07
-3.46715e-07
-0.00052591
8.26356e-06
2.52284e-06
-4.35199e-06
-4.20304e-06
-0.145217
0.0836419
1.00273e-05
-0.142692
0.000958467
1.07512e-06
-3.26134e-06
-2.61375e-05
-0.105236
8.82584e-06
-7.13977e-06
-1.99132e-06
2.7744e-06
-0.264588
2.30409e-07
-3.0957e-06
0.00034351
2.18913e-06
7.84496e-08
0.00123948
0.00182546
-0.00255461
0.00332214
-0.148065
-7.7041e-07
0.796376
-0.000151451
1.6861e-06
-1.7771e-06
-0.000427054
-2.79082e-06
-0.000562985
0.00415314
0.000137101
1.94328e-06
0.0779078
0.0373345
-0.32878
-0.919332
0.00851152
-0.00228314
1.62137e-05
-0.0191598
2.19944
-2.74734e-06
0.900858
-2.03486e-06
-3.12647e-05
0.00288867
5.03137e-06
0.0443273
-0.000287421
-7.58621e-05
1.82955e-05
0.00241888
-2.06333e-06
-0.106957
-1.21391e-06
1.34461e-06
-0.142119
-5.64868e-07
-0.000172019
-3.39576e-06
0.0033599
-1.0671e-06
-1.23746e-06
-8.5515e-05
-0.0159638
8.97387e-06
-8.62566e-07
1.10697e-06
-0.00011612
3.86357e-07
-3.26845e-05
-0.135792
8.99948e-07
0.000133719
-9.24438e-06
-0.000177909
-0.00212715
-1.87129e-06
-4.65427e-06
0.00506627
1.29231e-05
-2.64591e-05
-0.000224474
-0.0657608
-3.64572e-05
-2.44786e-07
-3.10636e-07
9.75817e-05
-0.00262937
4.77754e-05
-1.93831e-06
8.24478e-07
1.62321e-07
-2.89041e-06
-3.59163e-06
2.25372e-05
0.00100027
0.00374054
-3.5606e-06
-0.301046
9.85582e-07
6.77762e-05
0.0503172
0.0018329
1.28774e-07
0.00589444
9.09014e-05
-1.99083e-06
0.0360721
2.07865e-05
0.000356828
2.69406e-06
0.00184119
1.79514e-05
1.60624e-07
8.41807e-07
-0.127415
-0.00215896
9.96204e-06
0.502451
5.23471e-08
5.90623e-06
-1.25454e-06
0.00282088
2.69223e-06
-1.96123e-06
-9.27363e-05
-6.56927e-05
-2.58704e-06
-1.91688e-06
-4.99583e-06
5.44808e-06
1.90379e-06
2.26117e-07
0.000187718
3.83472e-06
-0.114436
0.00473021
-2.2526e-07
0.00296012
1.34743e-05
-7.78021e-07
1.05303e-06
2.29443e-06
5.70036e-06
0.000297857
5.46408e-05
0.00265474
0.00360959
1.58804e-05
0.004242
0.000411393
1.78501e-06
1.05578e-05
0.00568135
4.15363e-05
-0.0592819
-3.28189e-07
-0.000237021
4.96732e-05
-0.00014208
1.23644e-05
0.000105189
-1.94799e-06
-0.000191249
1.85252e-07
-4.8096e-05
2.09523e-05
0.00146834
-1.19707e-06
2.99611e-05
0.000949541
3.59052e-06
0.0109435
-0.00312724
2.99519e-05
0.00039913
-0.000477511
9.96527e-06
-0.00202074
-1.8216e-06
0.00037012
-0.0716036
-0.18294
0.000928912
-0.000168058
8.77377e-05
-2.76301e-06
-0.000614349
-1.20676e-06
-0.028104
0.000861985
6.3791e-06
-5.3028e-06
0.00198564
-0.00177052
-3.86594e-07
2.35875e-06
-0.0102577
-7.15083e-07
-1.78782e-06
0.125622
0.00285306
-2.50251e-06
0.505543
4.47752e-07
0.00185982
0.00329055
-2.44558e-06
-1.80732e-07
-0.000161056
0.00447281
-3.50965e-06
-0.000231293
6.41688e-08
-2.65319e-06
6.49345e-07
-0.290374
-2.17475e-06
2.01315e-05
-1.34177e-05
0.0226831
-0.000227044
-3.7086e-06
4.31326e-06
0.00608249
8.61569e-07
-7.1366e-07
0.0163693
0.0166602
-4.22193e-06
-0.00237564
-0.000154624
0.00220496
8.48671e-05
0.00391777
0.011042
0.000208201
9.39288e-05
-8.81709e-07
-0.000141842
1.55127e-06
-0.0823603
-0.285399
1.79283e-07
-4.27437e-05
2.18241e-08
2.30622e-06
0.0988706
1.41288e-06
4.83902e-05
-6.18758e-05
0.00181906
2.24088e-07
-8.60152e-06
5.65162e-05
-0.00547219
-2.1395e-06
2.18932e-05
-4.24051e-07
-1.27727e-06
-0.000121426
0.00176298
1.07557e-05
9.31054e-08
4.73816e-06
1.25647e-05
-8.24492e-08
0.480317
1.54688e-05
-8.60454e-06
-7.844e-07
0.00362674
-4.69005e-07
-7.30237e-07
0.000467854
2.22265e-06
0.00770778
-2.20763e-06
-1.01027e-06
-0.0360661
0.23916
0.404218
0.00263643
5.76528e-05
9.03439e-06
-1.66138
-1.04385e-06
7.52705e-05
-3.32409e-06
0.0758858
-5.77334e-07
-0.000153161
4.27537e-07
-0.0119146
-0.00194147
-0.00687726
-7.72938
-4.05399e-05
-0.00264706
-7.35373e-06
1.10573e-05
0.242105
0.000934223
-5.5063e-07
7.10957e-07
-9.89444e-05
0.00010177
-2.7294e-07
1.61544e-06
-1.82462e-06
1.45703e-05
-0.00911206
-0.0487503
-9.26054e-06
-0.000856619
-0.0386558
-0.0744404
1.26575e-05
0.000113974
-5.5989e-05
3.44829e-05
-1.25479e-06
1.45611e-06
-0.00146159
-1.17425e-06
4.06864e-07
-4.91968e-06
-0.00662049
-0.0290551
-0.000142301
-4.26562e-06
-5.04182e-06
-0.000424646
-3.21206e-06
-0.000305531
-0.000483347
0.0231171
3.12595e-05
0.123253
-2.10535e-06
-5.55593e-07
-1.78723e-06
2.05509e-05
-6.72309e-07
9.4956e-07
-0.000288372
-1.97372e-06
0.0596107
1.23361e-05
-1.2573e-06
-1.12022e-06
-0.00238337
-7.13595e-06
0.00195345
0.00197482
4.11537e-06
-0.197995
3.50104e-06
-1.96333e-07
2.44694e-06
0.00326765
-0.039712
1.92742e-06
-4.5415e-06
-5.04186e-07
-8.11948e-07
0.000355162
0.0248731
-4.87672e-05
-4.55525e-05
0.00397491
-4.75646
-1.85988e-05
-9.93921e-07
-0.0171166
-5.3709e-05
-0.16128
0.000128109
8.96827e-07
0.00434791
0.00014053
0.255627
-0.000218914
0.0600229
-3.31372e-07
7.8826e-06
3.33355e-06
-2.6717e-06
-9.228e-05
-8.38722e-06
-1.39229e-06
-1.10573e-07
5.90683e-06
4.8001e-05
-0.000295354
5.96376e-05
-7.16561e-05
-1.91524e-06
-2.98588e-06
-3.6649e-06
0.00150692
-3.90414e-05
-1.39263e-06
1.04926e-06
-0.00628694
-1.96668e-05
0.000105815
1.31729e-05
-0.180522
-7.58246e-07
0.00145923
-6.92579e-05
-3.09776e-06
-9.48798e-06
0.208815
0.0710067
-1.96957e-05
-0.000268152
-8.27013e-05
0.000142184
1.85943e-08
-0.00056664
-0.000925172
-1.44183e-06
0.00667758
-5.74416e-06
-2.37438e-06
0.000155191
-2.60418e-05
0.000332973
0.0234521
-1.03734
0.000994829
-1.97121e-06
-2.20209e-06
6.41607e-06
-0.00424193
-1.01759e-05
-0.00102298
4.97947e-07
-2.18937e-06
-2.02046e-06
0.00511405
1.23556e-05
-2.71535e-06
-1.45053e-06
0.00308157
-7.33843e-07
0.09664
-7.96691e-07
0.00138858
1.85381e-05
0.00041909
-2.0986e-06
-4.27952e-05
0.163232
0.00590208
-2.96927e-06
0.00205927
9.63496e-07
6.05305e-06
0.212883
-0.0245091
1.2124e-07
-2.03518e-06
-1.35873e-05
9.2545e-07
-1.23374e-05
-1.66494e-06
-1.53634e-06
-0.000389255
0.00285557
-2.90608e-05
4.13725e-05
0.0034167
-4.43395e-06
-2.11015e-06
-6.58257e-07
-8.73404e-05
-0.000113739
-2.18643e-06
-0.00793105
-5.28396e-06
-3.59237
0.00109062
-1.81293e-06
5.02299e-06
5.0044e-06
-0.135978
-2.75884e-05
0.000179284
6.28409e-06
4.98079e-05
-0.0348439
-5.079e-05
0.00092899
-8.63662e-07
-4.59461e-06
-6.10848e-06
2.16957e-06
-4.77429e-05
-1.84466e-06
1.26439e-05
-1.70059e-05
1.13791e-05
-0.167809
0.000425211
-0.00668321
-2.22494e-06
0.000561504
-3.12858e-05
0.00941897
0.00462858
0.414999
8.07942e-05
-7.04592e-07
0.00166294
-5.45309e-07
-0.0334379
-4.8163e-06
0.00652176
-8.80021e-06
0.276829
0.513369
-0.0001039
0.00103186
-2.23313e-06
1.7009e-07
-1.6328e-06
9.17066e-06
-5.51962e-06
-8.30389e-05
-3.32857e-07
-0.000202509
0.00172145
0.0164092
2.01261e-06
0.00941543
-2.15857e-06
2.22235e-07
6.95325e-06
0.00467354
-3.18974e-05
0.00275941
-6.13287e-07
-1.4144e-05
-0.528059
4.6913e-07
0.000145737
-1.75312e-06
3.82184e-05
0.222199
-0.000277896
0.456668
-0.000359222
0.00449723
-5.77321e-05
-1.79394e-07
-1.09535e-05
-7.28053e-05
-1.24242e-05
-2.64571e-06
-1.45114e-05
-2.48634e-06
-0.161375
-1.47299e-06
-0.0130446
-0.0231733
0.00528404
-0.000287198
0.00530407
0.00236468
1.51456e-05
-1.53595
-1.89691e-09
0.192166
-8.68343e-06
-5.95041e-05
0.0148885
0.00253762
-0.00048398
0.0870588
-1.47197e-06
0.012901
-3.94597e-07
0.236715
-2.66647e-06
9.18971e-05
0.00537319
-0.000107736
-2.58094e-06
-1.89859e-05
-3.55233e-06
0.00172878
-0.00134796
-0.000454023
0.00438294
2.28293e-06
-0.290486
6.49006e-08
9.83232e-06
7.82421e-06
1.37724e-06
-0.0465178
5.5688e-06
1.37723e-06
0.00110591
-9.37737e-07
-0.0120569
0.00163201
-2.48172e-06
0.00111451
0.000522315
4.55132e-08
-2.66492e-06
-0.000108913
2.89208e-06
0.0029804
-0.000470403
8.74997e-05
8.7432e-05
-2.66592e-06
6.52809e-07
0.00354279
1.32469e-05
-2.483e-06
-9.27388e-06
-4.10889e-06
3.82819e-06
-0.228867
-0.000490825
-0.226135
2.10947e-05
0.00276699
0.000421947
-2.02681e-07
-0.000320908
7.5105e-06
-2.23882e-06
-0.0357474
-9.6245e-06
8.35723e-05
0.00230904
7.76579e-05
-0.00119672
0.0239379
-1.54376e-05
9.20197e-05
0.00203189
0.0398761
2.45528e-06
-2.38819e-05
5.35312e-08
-0.000412336
0.00106112
-0.000686254
-4.53573e-05
1.34495e-05
-6.78532e-07
-7.66392e-06
-0.134631
0.000192063
0.000341698
-0.0449783
8.67097e-07
-1.06655e-05
-5.72924e-05
-2.62202e-06
-1.35898e-06
-1.7092e-05
0.00255644
0.00671437
1.30391e-05
9.73868e-05
-0.000671507
-6.44752e-07
-2.16701e-06
-9.55826e-05
-2.80835e-06
0.00855889
0.0241766
0.00170959
0.00550325
-0.240587
-2.16595e-05
2.58767e-07
0.00431898
-0.000965588
-0.000383737
-6.80729e-06
-1.13881e-06
-0.0138747
-0.367496
-9.2655e-07
-3.13367e-06
-0.000606943
0.0364753
5.98754e-05
-1.02194e-06
0.386469
-4.36555e-05
0.00122515
-2.35025e-06
0.000442325
-2.61273e-06
6.93852e-05
-0.000251671
-5.82968e-07
1.47284
-9.53698e-06
0.000637896
0.0102276
0.0169707
0.00795168
-1.06484e-06
0.00378314
1.42237e-05
-0.000396841
1.15929e-05
-3.12804e-05
-4.42641e-06
-3.03544e-05
-0.0651565
-5.17043e-06
-0.048548
-3.15593e-06
-0.000430336
9.37032e-07
-7.50355e-06
-0.0498915
-1.06541e-05
0.000198188
-0.00163551
-5.20934e-06
-0.27526
0.347042
3.49967e-07
-1.86182
-0.00150505
-1.45056e-06
2.93903e-06
-0.385293
-1.16053
-3.81739e-06
2.00997e-06
-0.000220639
-9.11549e-08
-1.5449
0.000769972
-7.76096e-07
4.80407e-06
1.59258e-07
-0.00619912
0.00210478
-0.0120234
-3.92643e-06
-0.0201404
1.17438e-05
0.00253397
0.442521
-8.07382e-06
1.05946e-06
-2.02501e-05
-0.00504913
2.18171e-06
-1.76701e-06
1.43128e-06
0.000231329
-2.03034e-05
0.171049
-0.000241696
-5.78345e-06
-3.67734e-07
0.000163086
0.000976246
-0.000135917
-3.5159e-07
3.13208e-06
0.00307431
0.00262852
-5.8815e-05
0.247109
0.000254594
-5.49538e-05
0.0663069
-1.68867e-05
-0.000397559
-3.66476e-06
-0.148665
-1.99921e-06
-1.21866e-05
-0.246293
0.00021676
-1.58556e-06
-2.19118e-06
-2.79732e-06
-0.000790765
0.00770721
-2.52402e-06
1.92117e-06
2.40622e-05
0.00290649
-0.00155233
2.81904e-07
-1.71799e-06
-1.19867e-06
0.000522842
0.00168504
-2.90096e-05
-1.77837e-05
0.232884
-4.83931e-07
-0.794475
-0.000172479
-0.000876387
0.000159045
4.52187e-06
-1.91317e-07
-2.09649
0.00732167
0.00391536
0.395834
-0.000210328
2.57812e-07
-0.0379935
-4.39625e-06
0.00407075
-5.42936
0.000322357
-1.04696e-07
-9.80358e-05
0.0050799
1.19854e-06
-1.85069e-05
-0.416825
-2.43298e-06
4.87425e-05
0.000154315
2.10468e-05
-1.22145e-06
-0.000542068
0.00376806
3.71546e-06
-1.93293e-06
0.368247
1.30374e-06
-2.56527e-05
-2.19201e-06
-4.87689e-06
0.00353195
0.000343586
-7.37427e-05
-5.44363e-06
-9.86747e-06
1.1659e-05
0.00185842
0.00338218
2.74648e-06
-0.0212316
2.24088e-05
-0.000113209
0.292927
-4.48032e-07
-1.438e-06
-8.69212e-06
-3.12821e-06
-1.26814e-05
3.33784e-06
-2.17481e-05
-4.55115
7.60875e-07
-6.76603e-07
3.1452e-06
-5.67289e-06
0.00250712
-6.88809e-06
0.414908
-0.00650298
0.00011679
0.000356584
-0.0310894
-6.87258e-05
-1.88617e-06
0.000122457
-1.93463e-06
-1.74353e-06
-0.000165812
2.13932e-05
-0.00606832
6.76655e-07
-3.11986e-06
0.00160669
-0.014553
-7.29221e-06
6.50842e-08
-0.000108558
1.49136e-05
-0.00023934
-2.61174e-06
2.16807e-07
1.2125e-06
-0.310684
-1.12547e-05
-0.054925
0.00320156
6.07592e-05
5.40627e-08
-6.66979e-06
-7.66253e-05
-0.00620811
3.70387e-06
-0.000751805
-3.8933e-07
0.445491
0.00436762
2.17837e-06
0.0018949
-1.81769e-06
-6.21446e-05
1.58928e-05
-0.00914449
0.000381497
0.000367975
0.000395506
0.011726
1.70348e-05
-3.13281e-05
-1.22808e-07
0.000833706
0.00292714
-0.00436655
-1.88724e-05
-0.000560948
0.0158493
-0.130363
2.97043e-05
-0.000126766
6.69808e-05
-0.00145473
-3.05876e-06
0.00247149
-1.47947e-06
-0.000133569
5.74996e-06
2.465e-06
2.28985e-06
-2.31424
1.53013e-05
-9.50623e-07
0.00390586
0.0147318
-0.700188
0.00429185
-0.0597271
-2.52964e-06
0.0129964
0.00451142
-8.05735e-07
-6.80539e-08
-0.0328525
0.000131653
7.06145e-08
-1.76792e-06
-0.000349033
-1.60628e-06
-2.23954e-06
0.00534443
-4.51657e-06
-1.01031e-05
-1.70173e-06
-8.70254e-07
-2.30999e-05
1.64949e-05
0.215497
-0.000334033
0.000123349
-8.43218e-06
-0.000395969
0.0481768
-1.57728e-05
-3.76172e-05
0.00411512
-0.00382553
-2.21982e-06
-7.25252e-07
-1.51836e-06
-1.72349e-06
0.002651
0.00107388
-1.76197e-06
-5.92147e-06
0.0100853
0.287283
-0.100657
0.00107284
9.49035e-05
-0.0387844
4.10989e-06
1.80208e-05
-5.52423e-05
-7.32656e-06
0.00729369
-0.0928446
0.00138208
0.000755631
0.0141822
1.66952e-06
3.49577e-06
8.88919e-05
-0.000422386
0.243442
8.38374e-07
-0.00136075
0.779872
-0.0137121
-6.6247e-07
-2.33192e-05
-0.0140688
-1.5773e-06
-0.000173375
0.048442
-2.34707e-06
4.73358e-07
1.94209e-05
-1.64843e-05
-4.17841e-06
-1.00773e-05
7.82967e-06
0.00605363
-0.000286272
-0.000842614
-5.08378e-07
3.65679e-07
0.000517567
1.9051e-05
0.000693387
-8.57207e-07
0.00474115
0.0050126
-2.1348e-06
3.83024e-07
-1.30489
-0.0303342
-0.208562
-8.93603e-07
-2.00165e-06
-5.98347e-06
-2.09791e-06
-2.41112e-06
-1.31128e-07
0.000137558
-7.2908e-07
3.52273e-06
-3.00309e-06
0.00357431
0.000108629
-0.000155004
-0.176434
0.0047842
0.00264702
-8.71645e-05
-0.00391926
0.0149828
0.000369068
-5.72656e-05
-0.00033257
-2.00562e-06
-0.376387
-8.30822e-06
7.96529e-07
-4.77599e-06
-0.0410108
-1.61217e-05
-0.00149524
1.06101e-05
-2.62538e-06
-0.00218621
-1.00519e-06
8.94763e-07
-1.35285e-06
0.00323952
-0.670946
6.88288e-06
-7.18319e-06
-2.88201e-05
0.344691
0.00263856
-0.00763117
-4.44133e-06
0.0012152
-1.2503e-05
9.85802e-07
-1.87733e-07
-1.3943e-06
-2.04679e-06
0.00047842
0.0881303
4.81204e-05
1.473e-05
0.00465242
0.543962
0.0039826
-1.19263e-05
0.00541533
0.000738386
0.0489112
-7.85579e-07
-3.63315e-05
7.94118e-05
0.227763
-4.12532e-07
4.40399e-07
-1.62835e-06
1.30344e-06
0.00443891
-5.98198e-06
0.00248217
0.000197585
-2.43828e-07
-0.000351049
-2.08539e-07
-0.0393053
3.42011e-06
0.000185934
-3.99656e-07
-3.5984e-05
-4.06453e-06
0.00430036
-0.0103221
-1.63575e-06
-0.000986516
0.171605
-4.27353e-07
-1.28471e-06
0.00172059
2.19082e-06
0.0238864
0.00143462
2.27916e-06
0.00387337
2.92897e-06
-0.000489557
1.07663e-06
5.03787e-06
-1.62239e-06
-1.3879e-05
9.87253e-06
-1.47379e-06
-1.82542e-06
2.52225e-05
0.00262323
-5.13328e-06
0.00190614
-3.77678e-06
1.22203e-07
0.000226876
0.00220359
-2.05773e-05
2.7788e-06
-1.62146e-07
-5.15184e-06
0.00185271
-0.00059325
0.000727683
-1.34985e-05
-5.8076e-06
-2.56095e-06
0.000300278
-1.00864e-06
-1.77606e-06
-0.000370563
-0.0053714
0.00188329
-1.5777e-06
4.76881e-06
-1.35084e-05
3.07872e-06
-0.00232348
-2.47758e-06
0.00443564
-1.67429e-05
-0.00859271
-3.16326e-05
0.0162644
5.95839e-06
0.00486996
0.136883
0.000954564
0.0247642
-0.000293278
-0.0593007
-0.0351227
-7.64084e-06
0.000893111
-0.0741831
6.09833e-05
-1.00809e-06
-3.26922e-06
-0.000195659
-0.257493
-5.65179e-07
-0.000162211
0.102703
-7.6514e-07
6.11706e-07
-0.0166948
-0.373635
0.0030509
0.021108
-0.03486
-1.97896e-05
-3.29385e-05
0.000103817
0.000116236
-0.197444
-3.11753e-06
-0.00974221
-0.0124408
1.08786e-05
-6.71867e-06
8.68016e-05
8.18827e-05
1.16296e-05
0.261058
-5.89585e-07
-1.63548e-06
-2.17196e-06
-0.0774563
0.212563
0.00378472
1.03359e-05
6.80733e-05
4.1801e-06
-4.84597
2.61894e-06
-4.32205e-05
-0.000103831
-0.0164093
-1.61786e-06
0.00562427
0.507169
-0.0111558
2.08207e-05
-0.0530181
2.47537e-05
-0.429527
-1.53411e-06
0.00753088
1.4112e-06
0.00292441
0.000334586
0.241571
0.00795155
-4.5692e-05
-7.37554e-05
0.00230386
-0.000125719
-4.00212e-07
-1.62755e-06
8.72237e-05
2.72589e-05
-0.00446024
-3.2896e-07
3.53879e-06
-1.56924e-07
-8.55617e-07
-0.0207386
-2.37009e-06
-9.36454e-07
-8.49751e-06
-0.133829
-2.64862e-05
0.00344591
-5.53748e-05
-1.9203e-05
0.00607649
-1.73824e-05
-2.78844e-06
0.00565789
0.00200782
-9.10924e-07
-0.00134758
-4.33749e-05
0.00690266
-2.05201e-06
0.0175115
-4.56942e-05
2.20401e-06
3.70619e-07
-1.3571e-07
9.29857e-07
-1.0736e-06
-0.0257486
0.00482455
5.40231e-07
-2.5734e-06
-5.52291e-07
-4.47502e-06
0.000138052
-0.506708
-9.28988e-05
0.000620693
-7.61113e-06
0.0111864