/*--------------------------------*- C++ -*----------------------------------*\
| =========                 |                                                 |
| \\      /  F ield         | OpenFOAM: The Open Source CFD Toolbox           |
|  \\    /   O peration     | Version:  v2012                                 |
|   \\  /    A nd           | Website:  www.openfoam.com                      |
|    \\/     M anipulation  |                                                 |
\*---------------------------------------------------------------------------*/
FoamFile
{
    version     2.0;
    format      ascii;
    class       volScalarField;
    location    "200";
    object      omega;
}
// * * * * * * * * * * * * * * * * * * * * * * * * * * * * * * * * * * * * * //

dimensions      [0 0 -1 0 0 0 0];


internalField   nonuniform List<scalar> 
18355
(
2.41739
0.0204303
0.202943
0.0210093
0.0446745
0.0728483
0.0215906
0.0498259
0.0220161
0.386205
0.0257571
0.119693
0.126882
0.893744
0.0210864
0.0201953
0.0210057
0.0240437
0.156769
0.022501
0.274019
0.0218923
0.0204583
0.0734146
0.020469
0.0221076
0.0216288
0.0210138
0.0222138
0.0265433
0.615258
0.04195
0.0203403
0.0200683
0.0210869
0.0221119
0.0260163
0.0221898
0.027037
0.0218629
0.022151
0.0263615
0.0200863
0.0204167
0.0204268
0.251491
0.0209902
0.0209797
0.683715
0.0212344
0.020825
2.051
0.0212768
0.127308
0.021284
0.0225116
0.0211308
0.703373
0.0221947
0.450889
0.0200783
0.0819352
0.125128
0.0213665
0.0499187
0.0206215
0.0234724
0.0260481
0.0200239
0.600264
0.0209416
0.0212838
0.0358564
0.0249629
0.149029
0.0200437
0.453004
0.0200537
0.0209135
0.115991
0.0234416
0.0645068
0.0200347
0.0243716
0.0405514
0.0217277
0.0222851
0.0337425
0.0208737
0.0337392
0.942715
0.119401
0.0582436
0.0212299
0.372794
0.0217282
0.0208609
0.0212794
0.0650037
0.0218309
0.0385889
0.0208822
0.0211875
0.0195609
0.0236577
0.020206
0.049532
0.370056
0.0293351
0.0201508
0.0207485
0.0214108
0.0311296
0.02418
0.27466
0.0269777
0.0208597
0.125884
0.0228095
0.0233012
0.568264
0.202952
0.973363
0.0378876
0.1111
0.26645
0.0216264
0.0210391
2.44723
0.0216524
0.020865
2.04285
0.0212684
0.0723412
0.075736
0.0208627
0.163306
0.54517
0.0211916
0.128509
0.0244302
0.0352905
0.0209558
1.85823
0.0750535
0.0216487
0.430585
0.0196078
0.0309813
0.290519
0.0210072
0.0232405
0.0213427
0.0264452
0.0200968
0.0205818
0.021053
0.0217159
0.0209623
0.02068
0.0244492
0.0212745
0.0201588
0.0299065
0.025451
0.280595
0.464893
2.32733
0.250093
0.0244142
0.0212857
0.0670936
0.021584
0.728755
0.0211692
0.022113
0.0213304
0.0195251
0.0225068
0.0273734
0.0217818
0.256292
0.0217803
0.0210361
0.0339288
0.0211762
0.0217799
0.0330558
0.0213455
0.0217244
0.254735
0.0654483
0.0204586
0.0200532
0.0214074
0.277706
0.0205376
2.23445
0.0204394
0.92784
0.0211432
0.0230402
0.0272903
0.0216954
2.35596
0.02157
0.222935
0.0210314
0.0202944
0.0213053
0.0215587
0.0563776
0.0223411
0.0219641
0.0196182
0.760693
0.0274294
0.0244968
0.0215883
0.0209931
0.0286626
0.0199718
0.0322824
0.0251642
0.0400949
0.023294
0.0199931
0.54231
0.669834
0.0323071
0.0213597
0.0236698
0.313236
0.0199838
0.030101
0.0383666
0.0219368
0.258045
0.0242032
0.0219628
0.0204557
0.0224241
0.0215949
0.0309922
0.0215669
0.0212893
0.0209818
0.0580314
0.0670374
0.0210236
0.0216443
0.0654837
0.149776
0.0256998
0.0195303
0.0321835
0.024183
0.0217422
0.0231813
0.0208081
0.294662
0.248342
0.0589416
0.028073
0.027871
0.0351272
0.0319008
0.0714574
0.0208005
0.0212906
0.0218954
0.0201494
0.0230312
0.0246275
0.0209758
0.0215625
0.0301891
0.0208511
0.0633804
0.769332
0.02828
0.0215863
0.0277063
0.0201393
0.0342167
0.0215195
0.0282528
0.0218685
0.0276743
0.332559
0.0203187
0.0402879
0.0226775
0.0238245
0.0320745
0.0213179
0.0200381
0.0584567
0.0215598
0.0356199
0.0260934
0.231123
0.0348259
0.0604842
0.0234454
0.0313752
0.0211675
0.0235362
0.0276527
0.0401248
0.207097
0.27625
0.0210702
0.023865
0.102748
0.0282835
0.0210658
0.0209718
0.0209932
0.0453658
0.27543
0.432662
0.251393
0.0297975
0.0242067
0.0415176
0.0196055
0.0215484
0.0241684
0.0213633
0.0323959
0.0209672
0.465974
0.0202258
0.0951846
0.0213518
0.0218177
0.0237414
0.138389
2.20243
0.0310908
0.214784
0.0219168
0.0208833
0.0213548
0.0240951
0.39795
0.0209071
0.0214739
0.0546847
0.0218471
0.0209072
0.153016
0.0236325
0.0209877
0.0212602
0.0289822
0.0222614
0.0289047
0.0200541
0.0214651
0.0217939
0.399843
0.037386
0.020031
0.0209412
0.0341562
0.0210008
0.0214837
0.123448
0.0453836
0.032025
0.0213392
0.02198
0.127807
0.0219599
0.0339619
0.0235881
0.0202628
0.0305781
0.0321394
0.0217143
0.0213452
0.0240945
0.0214689
0.023319
0.0214022
0.0563194
0.0216049
0.0230481
0.0208648
0.0209944
0.0228813
0.0221312
0.0610049
0.507288
0.0367629
0.0227421
0.148437
0.0264421
0.0213704
0.0209174
0.0379588
0.0213449
0.0337869
0.0214608
0.026796
0.0467477
0.100534
2.24329
0.062444
0.0195693
2.72446
0.0218317
0.0209658
0.205619
0.0213163
0.0271248
0.0202802
0.0544007
0.0213113
0.0649509
0.271785
0.0548702
0.0212701
0.0204605
0.0569949
0.0228144
0.0210114
0.357118
0.168036
0.0209601
0.0386613
0.0612408
0.0204553
0.0221234
0.0298245
1.10499
0.0344265
0.0218472
0.0212046
0.0340091
0.0212915
0.0201978
0.0211467
0.0384011
0.479398
0.0202473
0.0221337
0.0214947
0.145474
0.0317746
0.0200351
0.0272713
0.0326003
0.0214718
0.282006
0.0816125
0.0218146
0.0214522
0.0333637
0.15091
0.575453
0.0202257
2.01005
0.0212361
0.0202405
0.0366382
0.0229248
0.0584822
0.0359036
0.0231646
0.0254986
0.0219014
0.149256
0.0229754
0.0270713
0.0218919
0.0202036
0.0217092
0.020218
0.0803328
0.453628
0.0539636
0.0244497
0.0215908
0.0218903
0.0214961
0.0234906
0.0214498
0.0200381
0.0213831
0.0343213
0.020463
0.0214187
1.89823
2.19542
0.10652
0.0216303
0.0219947
0.0299348
0.0218639
0.264008
0.231804
0.0236396
0.0245092
0.025338
0.0221922
0.023356
3.2355
0.0295935
0.0219204
0.415971
0.0215895
2.23062
2.59097
0.0245572
0.0220601
3.37509
0.020982
0.0616373
0.0423868
0.363419
0.022974
0.0216875
0.0214581
0.436522
0.658152
0.358363
0.449745
0.0232035
0.0214481
0.0243702
0.0212971
0.0233121
0.140846
0.768957
0.538414
0.134441
0.026894
0.0392187
0.0324263
0.0209984
0.0211468
0.0279094
0.0237311
0.0215347
0.0212949
0.133395
0.0208452
0.135011
0.0245742
0.0751942
0.135553
0.0211534
0.024179
2.39786
0.021378
0.790095
0.0212738
0.102124
0.0296232
0.0219441
0.0321814
0.0715862
0.0632184
0.0218869
0.0200095
0.0325327
0.0247445
0.075194
0.021372
0.0827528
0.0208368
0.226161
0.0211794
0.0211665
0.189224
0.0251328
0.0376091
0.0210616
0.0248685
0.0232824
0.449034
0.547701
0.0238326
0.0285026
0.021163
0.0275232
0.0217489
0.023693
3.73687
0.0204191
0.0495605
0.0215532
0.021256
0.0238369
0.266372
0.0224458
0.0639789
0.0219565
0.0334857
0.233813
0.0196129
0.0209891
2.24788
0.0331124
1.86839
0.0366849
0.0217118
0.0213005
0.0209857
0.0249767
0.0220231
0.0201518
0.108656
1.99645
0.0211503
1.18137
1.13687
0.0249033
0.208601
0.0202134
2.19003
0.351586
0.0196787
0.250489
0.0360876
0.316839
0.453555
0.0210738
0.0209819
0.021565
0.115114
0.0444888
0.021289
0.0219219
0.110066
0.0217813
0.0373158
0.0210823
0.0344718
3.12935
0.426758
0.0515501
0.411734
0.0344536
0.570891
0.02451
0.0209208
0.0262649
0.438885
0.0265492
0.0424995
0.0212797
0.429182
0.0215118
0.02176
2.71292
0.021696
0.0266417
0.0373391
0.0574162
0.0214692
0.0212901
0.0237732
0.0252854
0.0199647
0.0215341
0.0336769
0.140214
0.0230036
0.0212981
0.0360106
0.26302
0.0212254
0.398925
0.278604
0.0214636
1.6598
0.02
0.204155
0.021346
0.0203101
0.189416
0.0231727
1.03828
0.0228902
0.0212921
1.62751
0.0213428
0.0201328
0.0215228
0.0209303
0.027143
0.032301
2.22324
0.022067
0.810896
0.0228556
0.409298
0.735316
0.0221524
0.021348
0.0248676
0.0201489
0.105365
0.0211928
0.0201123
0.0201431
0.0212783
0.0213678
0.23111
0.0248791
0.0422118
0.0225375
0.0238454
0.0240813
0.0240177
0.243541
0.0204647
0.0801444
0.0380237
0.020006
0.777865
3.14431
0.0207778
0.349879
0.0211814
0.282372
0.0333456
0.0196619
0.0328895
0.025767
0.389304
0.0208504
0.0238663
0.449311
0.0667241
0.0463647
0.021364
0.346563
0.0730576
1.90093
0.0213711
0.0226899
0.0210144
0.0214864
0.0210619
0.0209995
0.0204138
0.398355
0.0256803
0.0208916
0.0200602
0.0205613
0.0218049
0.0624466
0.0717498
0.0203137
0.0252889
0.0215335
0.0215593
0.0214542
0.0209502
0.034937
0.020057
0.0208879
0.0217611
0.0216047
0.02289
0.0215269
0.255529
0.111447
0.0239175
0.0208695
0.145611
0.0201029
0.0200649
0.0215723
0.0466058
0.0244227
0.0214055
0.0201684
0.0204487
0.0254393
0.0200154
0.0262901
0.0211832
0.0217468
0.0210607
0.0226252
0.942471
0.0209125
0.0218424
0.0211851
0.175224
0.366749
0.0260463
0.0220221
0.0264906
0.0248278
0.0333158
2.17552
0.0217469
0.356273
0.0218597
0.119994
0.0220495
0.020275
0.0200694
0.369634
0.020037
0.0262531
0.0274008
0.165713
0.0382605
0.0223099
0.0210198
0.0208643
0.0212125
0.0274762
0.0976481
0.449201
0.0399343
0.0215254
0.0200118
0.0225451
0.0210622
0.02082
0.0217726
0.0421151
0.0247512
0.0647786
0.0215202
0.0214343
0.0339537
0.0213027
0.150523
0.0404449
0.0352842
0.131872
0.447775
0.0288874
0.0209876
0.0200206
0.0216636
0.0212818
0.608598
0.0438958
0.102314
0.0203023
0.0215846
0.0230811
0.0208399
1.87238
0.0654453
0.0200622
0.020069
0.0209606
0.021069
0.0209174
0.0212572
0.223454
0.0199813
0.0219557
0.0203108
0.0205883
0.0210706
0.0214677
0.025849
0.0205831
0.0251787
0.0201602
0.0324087
0.207565
0.0237655
0.240395
0.0225677
0.0218656
0.0631035
0.34608
0.0214275
0.020741
0.0204724
0.0258433
0.021957
0.0288563
0.03194
0.0215057
0.0220173
0.0214813
0.123414
0.249287
0.0220864
0.0205895
0.0239433
0.0348571
0.0211388
0.064031
0.0208399
0.019962
0.024015
0.119606
0.463288
0.298731
0.228186
0.0200503
0.0326282
0.0590652
0.0244771
0.0212049
0.0595364
0.0236289
0.201781
0.223236
0.0207532
0.0200607
0.0214776
0.0219167
0.0200631
0.240497
0.329197
0.0201075
0.0215308
0.0219437
0.0347055
0.0212436
0.0208653
0.0303064
0.0219231
0.0209155
0.235501
0.087766
0.0790613
0.0212686
0.0202345
0.0201231
0.0213723
0.0240916
0.0270982
0.0208722
0.0206258
0.0226631
0.354673
0.0204598
0.0214148
0.0613087
0.0209161
0.0207592
0.0213459
0.96915
0.0202146
0.021443
0.0204627
0.022499
0.020226
0.0250495
0.140478
0.0214151
0.16874
0.0274068
0.202727
0.050931
0.0209895
0.0250355
0.0208425
0.0207436
0.0210013
0.43252
0.413636
0.0309451
0.0261395
0.570431
0.0663963
0.0221378
0.0933529
0.0577161
0.0231679
0.0200598
1.19822
0.0221814
0.0207321
0.0203948
0.252576
1.99283
2.12365
0.020712
0.0877948
0.355272
0.024612
0.0308981
0.0241846
0.0230624
0.0323086
0.212221
0.0229234
0.0222193
0.0250811
2.56584
0.228349
0.0212331
0.0213623
0.0210655
0.331231
0.0235232
0.021925
0.58118
0.025027
0.0356674
0.0241762
0.306481
0.020677
0.121638
0.0220404
0.0200669
0.0209884
0.0200076
0.020075
0.0208944
0.0217123
0.228627
0.0205262
0.0975519
0.0257377
0.0216635
0.0207421
0.0847945
0.0211897
0.0215115
0.0230556
0.539424
0.0454991
0.023169
0.0215275
0.347523
0.0206725
0.0365644
0.021511
2.11479
0.0316555
0.326917
0.0255337
0.0210094
0.0335289
0.791883
0.0715705
0.0205585
0.021339
0.0350384
3.61212
0.0195726
0.0434006
0.0205663
0.0260545
0.0208635
0.0200436
0.0219806
0.0220876
0.0200239
0.0358826
0.0340103
0.0242233
0.129788
1.21876
0.0221595
0.321504
0.0201106
0.104842
0.316888
0.161182
0.0200198
0.0219232
0.0214908
0.493676
0.0210549
0.0208387
0.0858331
0.0215096
0.0215158
0.022144
0.0219983
0.0212494
2.59178
0.406326
0.0582482
0.0207537
0.0214547
0.12541
0.0201107
0.0654609
0.0215865
0.0214766
0.0219634
0.0234898
0.238306
0.0205308
0.0214686
2.13016
0.0215813
0.0217731
0.0351215
0.333739
0.154218
0.0214243
0.0210713
3.20108
0.437734
2.39829
0.0206605
0.0319819
0.188284
0.0203451
0.033631
0.0229305
0.422308
0.0236269
0.0215373
0.0221619
0.0200233
0.407665
0.0214595
0.0204837
0.366486
0.0279553
0.195569
0.019995
0.0226065
0.020043
0.0196445
0.0202043
0.0221029
0.0216119
0.0218535
0.0200317
0.0217507
0.0422533
0.0267448
0.0244352
0.0206196
0.0237464
0.0210686
0.330612
0.0216234
0.0220711
0.0215539
0.0200732
0.0218064
0.0211832
0.0211696
0.0212311
0.0208366
0.0202116
0.465422
0.307034
0.0212388
0.400806
0.0326198
0.0217289
0.0216844
0.0221293
0.498734
0.0217655
0.0201056
0.0200999
0.0200292
2.33998
0.0212758
0.0202806
0.186141
0.0200181
0.0197406
0.0235919
0.0238252
0.0652439
0.136138
1.66528
0.0200589
0.349272
0.0247448
0.0212296
0.0204217
0.0239981
0.0212824
0.0278196
0.0534174
0.0231719
0.0219244
2.78788
0.056858
2.05101
0.29358
0.370497
0.0695076
0.0204819
0.230248
0.801849
0.02013
0.435331
0.0207088
0.0222843
0.136183
0.020732
0.102721
0.0250577
0.0227882
0.021933
0.0386098
0.0213732
0.0612562
0.0212397
0.0201862
0.515438
0.0197582
0.0215546
0.0218286
0.047996
0.021205
0.0214423
0.0229245
0.316714
0.0212009
0.0212687
0.0202316
0.0235054
0.0211821
0.0222825
0.183072
0.0209738
0.0254527
0.0217003
0.0233507
0.0231634
0.0209416
0.0218943
0.09476
0.0215636
0.0216846
0.0242123
0.286753
0.0221832
0.0211272
0.0214228
0.0251
0.0649943
0.0224644
0.0210221
0.0209681
0.020563
0.0196313
0.0200514
0.025717
0.0290946
0.0500224
0.0215368
0.85438
0.0206474
0.0210664
3.29747
0.0426425
0.0199743
0.0702155
0.0212267
0.0210201
0.437586
0.0218264
0.0362203
0.0197368
0.145127
0.0205539
0.0200092
0.0202504
0.144994
0.0718782
0.0215391
0.192035
0.0202301
0.0209052
0.0207381
0.140647
0.0212228
0.0206563
0.0219104
0.0226677
0.0212721
0.0214498
0.0207984
0.0217319
0.0215265
0.020842
0.0236318
0.020005
0.963955
0.0609685
0.0202137
0.0498629
0.0252488
0.0209383
0.0206598
0.0219166
0.0207541
0.0277882
0.0243916
0.0425139
0.0423493
0.0216736
0.0706066
0.146945
0.0212209
0.0217367
0.081173
0.0230405
0.297681
0.0202141
0.0212182
0.0224385
0.0217069
0.0208281
0.0252486
0.0209504
0.0214528
0.0212392
0.0230277
0.020538
0.118608
0.0213506
0.0238282
0.0276054
0.0210167
0.421534
0.456741
0.0230097
0.0257237
0.0269374
0.0198736
0.0470388
0.0214331
0.0310494
0.606691
2.02753
0.0366053
0.0216023
0.0256363
0.0210031
0.0282846
0.0205251
0.34937
0.0278407
0.0214533
0.0208083
0.0466001
0.0348742
0.0212262
0.0212191
0.308625
0.0216195
0.0206472
0.117482
0.0506532
0.0201203
0.239874
0.0203126
0.0404771
0.0530841
0.0212663
0.0214307
0.0229075
0.125752
0.0207933
0.0252172
0.0214359
0.0212743
0.0208266
0.903943
0.0218142
0.021363
0.0211115
0.130669
0.0254213
0.0208061
0.019776
0.102658
0.0211505
0.0204558
0.10293
0.464971
0.021893
0.253091
0.0229634
0.0447013
0.022113
0.0541765
0.425025
0.0217049
0.0208054
0.020312
0.0238478
0.0212032
0.604201
0.486399
0.0205301
0.0221718
0.0203392
0.0200394
2.60651
0.0212111
0.022555
0.0226382
0.0553461
0.0214501
0.0216807
0.0244002
0.426262
0.021477
0.0213737
0.0204472
0.0205695
0.0236484
0.0428504
0.0215439
0.0211215
0.0212778
0.02108
0.0203201
2.73078
0.0217204
0.0210606
0.0210942
0.0563396
0.0203747
0.0204585
0.0321222
0.0209082
0.0382683
0.0212438
0.0214293
0.303422
4.12169
0.236377
0.0332625
0.0233954
0.0217885
2.87495
0.0206382
0.024451
0.0200063
0.0975574
0.0195461
0.0237876
0.0214589
0.7986
0.0368201
0.0320494
1.26603
0.0223583
0.0486737
0.021707
0.0219837
2.4944
0.0322121
0.0211775
0.0203042
0.0233422
0.0259032
0.0214226
0.0212815
0.0206335
0.0199436
0.177513
0.396468
0.0217071
0.022934
0.357664
0.960978
0.0228915
0.0220425
0.0228994
0.0240133
0.0212165
0.0221963
0.108157
0.0209118
0.0203285
0.0215063
0.10932
0.254404
0.0247455
0.0215431
0.0215925
0.0257069
0.0213418
0.0254911
0.0362887
0.0723557
0.0230102
0.299888
0.0201181
0.0212298
0.0218225
0.0199741
0.0215581
0.0208562
0.0342557
0.0210084
0.0750778
0.0213572
0.0207226
0.0204898
0.0250919
0.0224152
0.0416926
0.0483499
0.0201573
2.79165
0.0226946
0.0205039
0.019802
0.366414
0.224236
0.0198223
0.0208126
0.02072
0.0221937
0.166209
0.0873269
0.0219369
0.0219323
0.137413
0.680555
0.021959
0.0212148
0.267245
0.0234937
0.0939884
0.0233357
0.0211467
0.0573045
0.0258997
4.23176
0.0276475
0.534782
0.0204021
0.0209069
0.0217351
0.0215865
0.02343
0.0216761
0.0215437
0.0207904
0.0217339
0.0214991
0.0211726
0.0213877
0.0227556
0.0219149
0.0213377
0.0208088
0.033417
0.0232372
0.0209205
0.0215099
0.171707
0.0214017
0.0217261
0.0219256
0.966552
0.0204599
0.0360134
0.0225349
0.0201903
0.0210663
0.353881
0.0806716
0.02198
0.0215057
0.0234895
0.0341547
0.0208718
0.0265928
0.0381079
0.021056
0.0972895
0.0208254
0.0213307
0.0208798
0.0217315
0.027705
0.0650525
2.99644
0.0256635
0.0202008
0.0214976
0.0211127
0.0512781
0.0219161
0.327132
0.0208185
0.021369
0.0213542
0.0699197
0.0209516
0.0215649
0.0212492
0.134631
0.0204684
1.74733
0.0204284
0.0256269
0.0213138
0.0283832
0.0209925
0.0233188
0.542543
0.0360286
0.0202089
0.0335432
0.0215064
0.0213586
2.07793
0.570195
0.0203233
0.0212476
0.0231767
0.0202471
0.0211098
0.0218476
0.0216855
0.0238757
0.0489561
0.0221216
0.0255181
0.0345709
0.0216746
0.0209991
0.0211779
0.0224797
0.0272403
0.0214271
3.72242
0.0206658
2.58531
0.0357193
0.0201503
0.0207226
0.0207016
0.0848178
0.0215395
0.0234723
0.021489
0.0207517
0.573895
0.0226381
0.026309
0.0216449
0.0214617
0.0226163
0.0212305
0.0226408
0.0213653
0.0222464
0.0219495
0.0218608
0.417434
0.0245294
0.452179
0.0209982
0.0231363
0.0223833
0.317814
0.0561939
0.211156
0.0224702
0.0199752
0.0390269
0.0208897
0.449425
0.0221012
0.0416424
0.0224158
0.374814
1.95418
0.023367
0.0264364
0.0207473
0.0205333
0.0218727
0.0199099
0.0217138
0.02287
0.0207831
0.0248947
0.0425964
0.312262
0.0208934
0.0421807
0.0201045
0.0211899
0.0211386
0.0915897
0.0216462
0.0463337
0.0216869
0.0210822
2.70574
0.0208796
0.0233158
0.0210497
0.0233396
0.147871
0.0257236
2.31657
0.0213665
0.0548561
0.0228256
0.0211192
0.0211477
0.0267446
0.0238829
0.021275
0.0226357
0.0213241
0.43479
0.0207342
0.389709
0.234942
0.0624544
0.0250612
0.0862632
0.0246895
0.0199033
0.690483
0.0211884
0.0930479
0.0218371
0.0225736
0.333667
0.335578
0.0260695
0.125565
0.021382
0.30371
0.0196079
0.191657
0.0201574
0.0218386
0.0414677
0.021512
0.0207198
0.0219608
0.0212558
0.0330314
0.31448
0.0307776
0.344374
0.0206567
0.922573
0.0214384
0.0216423
0.0210078
0.0211191
0.45041
0.0215777
0.0205662
0.035134
0.0217933
0.360128
0.0603931
0.021267
0.0403601
0.0317614
0.020852
0.0214317
0.0239233
0.0203221
0.0529035
0.0271999
0.0225952
0.0226727
0.0204455
0.0211824
0.0552304
0.0219806
0.0214419
0.0222169
0.0198984
0.0201331
1.89037
0.026885
0.49048
0.0260054
0.0501314
0.0262058
0.0211119
0.0256998
0.020472
0.0209818
0.240909
0.0238674
0.0241793
0.0425054
0.0216803
0.264173
0.217699
0.0210783
0.0237411
0.0309092
3.1144
0.0203124
0.0203461
0.0216773
0.028305
0.340883
0.0243827
0.0234641
0.0218107
0.0211711
0.0199708
0.0801791
0.0235385
0.0219671
0.43744
0.0216254
0.0229043
0.0243687
0.0214922
0.0212374
0.0210206
0.0515933
0.0990695
0.0218584
0.0228768
0.287397
0.0209012
0.0219361
0.0233824
0.0215812
0.415582
0.387917
0.0466037
0.06658
0.957185
0.0226275
0.020844
0.0382529
0.0226236
0.0266638
0.0210296
0.0201876
0.353484
0.367795
0.0210784
0.0207518
0.026858
0.0731402
0.023035
0.0199765
2.72
0.0227701
0.0342287
0.0201411
0.0263361
0.0195867
0.0225495
0.0257704
0.021171
4.63653
0.0219449
0.0329774
0.0888407
0.308832
0.0758058
0.0211956
0.0581623
0.0240404
0.0241365
0.0221766
0.0216276
0.0214428
0.022602
0.26232
0.0227195
0.290509
0.0207822
0.203231
0.0202936
0.0218759
0.260011
0.0241449
0.200264
0.0227489
0.0220698
3.13016
2.70996
0.0208659
2.55182
0.0339554
0.0207206
0.019844
2.16077
2.62948
0.0204561
0.0202765
0.0212366
0.0202378
2.86409
0.288888
0.0195246
0.0197913
0.0208627
0.225386
0.0450034
0.334394
0.0201958
0.299655
0.0215555
0.0514231
2.32243
0.0239724
0.0205881
0.0205491
0.335326
0.0203432
0.0210582
0.0202091
0.0244118
0.0227443
3.92489
0.0249137
0.0217928
0.0211945
0.0257599
0.188407
0.0410157
0.0211191
0.0208599
0.149829
0.0466883
0.0219841
0.56307
0.0277927
0.0229712
2.71119
0.0226357
0.0257639
0.0218039
0.17938
0.0214174
0.0218033
2.28749
0.0266317
0.0210488
0.0213492
0.0195922
0.0367233
0.105074
0.0209752
0.0202701
0.0221112
0.0652495
0.0227106
0.0202018
0.021243
0.0207304
0.0230108
0.0397205
0.0214334
0.0209654
2.17228
0.021104
0.94927
0.0284406
0.0301373
0.0232148
0.0221572
0.021474
2.32865
0.0741685
0.0665517
3.92838
0.0279685
0.0208752
0.365854
0.0202207
0.0719757
2.10622
0.0230038
0.0211275
0.0234464
0.0697635
0.0211968
0.0210168
2.6994
0.0212636
0.0221665
0.0207287
0.0216259
0.0203295
0.0557927
0.124826
0.0201424
0.0210224
1.17611
0.0211882
0.0201398
0.0209972
0.0208272
0.13236
0.0231857
0.0230643
0.0222912
0.0219445
0.0202943
0.0350733
0.102866
0.025594
0.258408
0.0222812
0.0235862
3.88857
0.0208875
0.020367
0.0210641
0.0208273
0.0218088
0.019751
0.022069
2.26154
0.0212023
0.0210902
0.0227278
0.0208138
0.35186
0.0216606
2.4572
0.178742
0.0254442
0.0281981
0.328911
0.023798
0.0211686
0.0233557
0.0209503
0.0225388
0.0219857
0.0217591
0.360964
0.0202899
0.0213229
0.0379292
0.228405
0.0216851
0.0208424
0.185242
0.0223251
0.0283685
0.0213098
0.0208535
0.0209547
1.75441
0.0214463
0.226198
0.0473219
0.0214172
0.0208331
0.0210469
0.0238215
0.309926
0.0201524
0.0382889
0.0210952
2.45834
0.220133
0.0220297
0.170441
0.0215396
0.0230706
0.0233194
0.27554
0.0230116
0.0254848
0.0259046
0.420688
0.0216647
0.0361875
0.0214472
0.0421325
0.142443
0.169688
0.0209629
0.0286029
0.307156
0.539205
0.0229544
0.0235433
0.350619
0.348447
0.020814
0.0529371
0.0211829
0.0241643
0.0214654
0.0223434
0.0222552
2.19383
0.0216286
0.0217941
0.0528288
0.423374
0.540561
0.122269
0.570798
0.0207815
0.348999
0.0572925
0.0210424
0.0211196
0.412428
0.0233904
0.0214834
0.0212453
0.0352409
0.0206969
0.0212558
0.434591
0.0214574
0.0217329
0.0210399
0.0213996
0.0224686
0.0204832
2.59876
0.023819
0.0229683
0.020497
0.0290174
0.137211
0.0209134
0.0216931
0.322221
0.175749
0.0213509
0.0238209
0.0207083
0.0209342
0.0373484
0.162925
0.0209352
0.0210501
0.321398
0.274979
1.26938
0.0277548
0.0220691
0.38736
0.0207373
0.0243419
0.0236472
0.0205531
2.32678
1.21412
0.0352621
0.0271622
0.154996
0.0198495
0.0197828
0.0227134
0.0310971
0.581799
0.0203365
0.0327739
0.419389
0.351866
0.021626
0.0224165
0.264539
0.0209704
0.0237525
0.20303
0.0209618
0.0211929
0.0204693
0.266603
0.0208106
0.0238885
0.0219012
0.0362096
0.0277248
0.406582
0.0211773
0.0211294
0.0281378
0.021682
0.0242467
0.0220259
0.100234
0.119636
0.0209914
0.0213409
3.00853
0.332477
0.9784
0.0207549
0.0213558
0.0226788
0.0215307
0.0212712
0.0214312
0.020852
0.0218663
0.0206779
0.0207623
0.0499301
0.0231097
0.0268417
0.998353
0.060085
0.0459916
0.0246648
0.0466778
0.131632
0.0284723
0.023299
0.0260456
0.0210656
0.726391
0.0200684
0.020279
0.0206677
0.431904
0.0209112
0.424243
0.0217634
0.0201313
0.0421628
0.0211644
0.0211428
0.0211572
0.0265027
1.33934
0.0215825
0.0205522
0.0225632
0.357652
0.0457463
0.351844
0.0210302
0.0318946
0.0214741
0.0215343
0.0201929
0.0207217
0.021355
0.0223772
0.142023
0.0224056
0.0224327
0.117371
1.17351
0.12704
0.0208633
0.0929065
0.0313071
0.368754
0.0205493
0.0209627
0.021999
0.181174
0.0197969
0.021355
0.0207135
0.0203446
0.124426
0.0221578
0.0528155
0.0211047
0.0197795
0.0240768
0.0214312
0.662899
0.02112
0.0232068
0.0217697
0.0257528
0.0220224
0.0563546
0.347343
0.0212319
0.041091
0.732114
0.0211188
0.0215313
0.0392295
0.019728
2.69184
0.0287091
0.0209739
0.0544586
0.020013
0.0214313
0.0214689
0.0207126
0.0202223
0.0221063
0.0206672
0.0207128
0.021526
0.021838
0.0450896
0.0200532
0.135064
0.0205265
0.0208978
0.0266334
0.0415527
0.0220313
0.0197234
0.0211964
0.0223292
0.0399994
0.20301
0.0316802
0.0219002
0.0219322
0.020753
0.0280042
0.0209329
0.0222722
0.371143
0.246338
0.0445006
0.0210768
0.0217797
0.0221032
0.0197312
0.0428043
0.0201204
0.0893799
0.0219471
0.176647
0.0254462
0.369424
0.0215383
0.0579897
1.87663
0.41565
0.33125
0.0246508
0.39088
0.324475
0.0218449
0.032836
0.418231
0.0204662
0.0207461
0.0213328
0.0239048
0.346254
0.0214628
0.0239271
0.571663
0.0195284
0.0214624
0.297153
0.774709
0.100557
0.358394
0.460047
0.0220973
0.0517433
0.0230978
0.0233857
0.464278
0.0223829
3.7149
0.0410064
0.023454
0.0214054
0.0225993
0.0226983
0.0205532
1.76574
0.0197907
0.0212448
0.0213101
0.618346
3.94179
0.0319404
0.0212741
0.0223362
0.0204642
2.47341
0.0209781
0.0220099
0.0232555
0.0737778
0.0206953
0.0701366
2.44174
0.317103
0.0217391
0.214876
0.0205498
0.124402
0.019827
0.0401153
0.0215684
0.0637034
0.0255102
1.2532
0.12484
0.0228057
0.0225283
0.0321279
0.0238389
0.0210983
0.020703
0.0249194
0.0218371
0.332903
0.0196503
0.0210735
0.0214277
0.0213997
0.288503
0.0207375
0.0201326
0.0215119
0.0450509
0.0256026
0.0516963
0.0227217
0.0224438
0.0773415
0.0205665
0.0213085
0.0623692
0.0411996
0.020135
0.0327885
0.022774
0.35514
0.021247
0.0845893
0.0215707
0.0212103
0.0202291
0.0201752
0.0211589
0.021071
0.179396
0.0564629
0.021555
0.021317
0.0211241
0.0221604
0.0258831
0.355856
0.0215372
0.0293524
0.0238336
0.327895
0.0216219
0.0392631
0.0212929
0.0212543
0.0281881
0.021219
0.021445
0.0206761
0.0200705
0.422366
0.0213811
0.0207293
0.0332496
0.454006
0.0353283
0.0213763
0.0199022
0.0236285
2.33358
0.0230332
0.0216837
0.0215035
0.18208
0.0218468
0.0211275
2.52798
0.0207534
0.0243756
0.0227323
0.021532
0.0201658
0.0501058
0.025756
0.0206218
0.0212802
0.0214228
0.0208966
0.248115
0.022671
0.0213929
0.0197688
0.0219857
0.0201798
0.0212392
0.0744878
0.0206396
0.0238897
0.0235175
0.297928
0.0197246
0.0224603
0.0512682
0.0257339
0.186203
0.0209619
0.0214735
0.252401
0.0214001
0.0201693
0.362425
0.0214082
1.91714
0.994047
0.0644661
0.334197
0.0214123
0.0263943
1.77451
0.0212389
0.0200076
0.102588
0.347766
0.0208944
0.0201384
0.0227182
0.0207515
0.201191
0.0436679
0.99939
0.0214762
0.0216363
0.0212125
0.0211187
1.50465
0.115341
3.64564
0.0241589
0.0224513
2.31022
0.0213339
0.0208933
0.0225164
0.0209271
0.0218294
0.0472161
0.0197226
0.422635
0.0218166
0.0219078
0.0213913
0.025748
0.0207711
2.2424
0.020685
0.0211919
0.0226436
0.0201604
3.15883
0.0240832
0.0257568
2.86889
0.0422673
0.0300834
1.33968
0.0213257
3.02379
0.0260318
0.0207673
0.0223342
0.0217028
0.381404
2.6644
0.0214402
0.0231971
0.369307
0.0210633
0.0205714
0.0239203
2.07593
0.653793
0.0215164
0.0219616
0.0867789
0.0227682
0.0660196
0.0650016
0.0603826
0.0201462
0.384521
0.0215087
0.331799
0.0514024
0.0323132
3.83929
0.354289
3.84658
0.020365
1.05033
0.0199573
0.0197773
0.251032
0.0197602
0.0221565
0.0211423
0.0555267
0.020608
0.140835
0.0201637
0.0258045
0.430892
0.0254782
0.0243873
0.404042
0.0217974
0.0202422
0.021837
0.0883607
0.0241014
0.132472
0.0214154
0.0252134
0.0217518
1.81863
0.0214142
0.0215383
0.0213661
0.642798
0.0304564
0.0215048
3.75757
0.021088
0.0214153
0.0246751
0.155749
0.0213917
3.29259
0.0214381
2.60715
0.0214226
0.0403146
0.0209844
0.0487432
0.0214242
0.0540772
0.0242542
0.0398562
0.0208939
0.021721
0.356083
0.0203666
0.0239408
0.0268534
0.0200699
0.0555292
0.301871
0.137391
0.0220292
0.0197336
0.0211861
0.128771
0.0236907
4.57355
0.0237218
0.321661
0.0213422
0.440091
0.0205364
0.0298031
0.117533
0.0227553
1.1786
0.0235209
3.65036
0.1617
0.0207712
0.462523
0.0223236
0.0211344
0.022708
0.0769036
0.0233988
0.159842
0.0244163
0.111978
0.0409233
0.062511
0.0459711
0.291907
0.021451
0.0215237
3.70174
3.67157
0.0321072
0.0232943
2.06016
1.69514
0.0213762
0.0214293
0.0212018
0.407577
0.0207086
0.0209165
0.0312555
0.10006
0.0198269
0.0206137
0.0221593
1.99967
0.0205034
0.0239179
0.0198281
0.119888
0.0220129
0.812069
0.0218104
0.0206504
0.0213327
0.0202667
0.570402
0.0346912
0.194105
0.021323
0.0276271
0.0202055
0.206048
0.223755
0.0480028
0.0207908
0.0848142
0.0208858
0.0215745
0.356442
0.02107
0.0239114
0.272656
0.0201481
0.110312
0.02076
0.0198388
0.0215461
0.811586
0.0207814
3.90734
0.100973
0.244288
0.308821
0.0207085
0.588449
0.0626587
4.42641
0.0315179
3.59233
0.176203
0.0215572
0.0322597
0.021717
0.0281806
0.0210812
0.0227831
0.0212051
0.0250892
0.330825
3.35395
0.0238549
0.0230312
0.161608
0.403774
0.0211999
0.0214636
0.849008
0.0334956
0.0204102
0.248896
0.0345221
0.0221511
0.0203647
0.022331
0.316385
0.0216122
0.0557914
0.0195928
0.1692
4.60163
0.0720358
0.0222425
0.0214761
0.0211629
0.0212615
0.0214538
0.0245523
0.0224069
0.0215899
3.98586
0.0208353
0.0215338
0.0210559
0.303275
0.368362
0.0212489
0.0213441
3.09254
0.0204825
3.37212
0.0215198
0.0213539
0.0197221
0.0215874
0.0205928
0.0227342
0.0202906
0.280114
0.0217946
0.0904087
0.0213509
2.21592
0.0214652
0.0241493
2.15609
0.181827
0.0212391
0.0214432
0.031965
0.0197255
0.570954
0.413858
0.0224661
0.0207557
0.021235
0.0203228
0.0446961
0.29314
0.0359784
0.424455
0.0356653
0.0213798
0.0211851
0.0205285
1.02745
0.291074
0.022254
0.0211263
0.02081
0.0265166
0.0213767
2.94997
3.41426
0.0283817
0.0202727
3.57841
0.126574
0.0214412
0.0416714
0.0222878
0.505007
0.0323461
0.0326181
0.0269288
1.31268
0.0308534
5.12595
0.0208614
0.0205249
0.0206963
0.0203124
0.0214959
0.0273834
0.0204969
0.0249086
0.0200036
0.237901
0.0210749
0.028485
2.21692
0.022046
0.019808
0.0281015
4.01109
0.0212472
0.0206036
0.177656
0.738599
1.58213
0.0216181
0.0197317
2.93049
0.124459
0.0237496
0.0505196
0.0213746
0.032921
0.0214947
0.126085
0.020666
0.0210962
0.4183
0.0204192
0.0227418
0.334045
0.05065
0.0206406
0.0207852
0.0207447
3.25462
0.0238493
0.0255558
0.0214249
0.0207853
0.119402
0.0300533
0.0211446
0.0212922
0.0197324
0.0228472
0.0206501
0.0226849
0.185753
3.04455
0.0231874
0.0361055
0.0208148
0.0404691
0.0212193
0.0215246
0.0207689
0.236075
0.0393572
0.0200349
0.0226993
0.941359
0.0339551
3.31224
0.0483992
0.0212933
0.0207706
0.0277684
0.0223091
3.71073
0.0204983
3.83245
3.77097
0.0209011
0.0353777
0.310966
0.0252887
1.61412
0.108626
0.0216512
3.05242
0.0251573
0.0204723
3.78204
2.92933
0.0980195
0.0217143
0.602725
0.751298
0.0213371
0.171076
0.278431
0.0213779
0.0207082
0.0218033
0.0200181
0.0215473
0.10784
0.625619
0.0214204
0.0250857
2.5848
3.74726
0.0337602
0.0512827
0.0210704
0.0252831
0.757106
0.0493793
3.66494
3.039
0.0212546
0.0214424
0.0210435
0.0228029
2.00263
0.303579
0.0209647
0.0330179
0.332391
0.281886
0.0477762
0.0211325
0.0214842
0.0219206
0.243794
0.0222887
0.0334069
0.0284562
0.0219923
0.403116
0.0230191
0.050414
0.138106
0.362345
0.0212176
0.021199
0.0225132
0.0307133
0.203128
0.692135
0.0218555
2.21303
1.49214
0.0317609
0.0306346
0.481082
0.347488
0.311918
2.9225
0.0213242
0.197697
1.01137
0.0290296
0.0272176
0.127119
0.02252
0.116216