/*--------------------------------*- C++ -*----------------------------------*\
| =========                 |                                                 |
| \\      /  F ield         | OpenFOAM: The Open Source CFD Toolbox           |
|  \\    /   O peration     | Version:  v2012                                 |
|   \\  /    A nd           | Website:  www.openfoam.com                      |
|    \\/     M anipulation  |                                                 |
\*---------------------------------------------------------------------------*/
FoamFile
{
    version     2.0;
    format      ascii;
    class       surfaceVectorField;
    location    "750";
    object      Uf;
}
// * * * * * * * * * * * * * * * * * * * * * * * * * * * * * * * * * * * * * //

dimensions      [0 1 -1 0 0 0 0];


internalField   nonuniform List<vector> 
27284
(
(0.86639 0.143569 1.05407e-21)
(0.871542 0.133218 -1.59322e-21)
(0.86084 0.133663 -2.8892e-21)
(1.00905 0.000170857 1.35299e-22)
(1.00917 0.000173308 -1.13015e-22)
(1.00913 0.000174234 -4.99498e-22)
(1.1512 0.159317 0)
(1.146 0.165965 -4.86068e-21)
(1.14266 0.157378 -1.65205e-20)
(1.01068 0.00104307 0)
(1.01072 0.00113365 0)
(1.01077 0.00104174 -3.41598e-22)
(0.991031 -0.00599205 -6.85811e-23)
(0.990794 -0.0105437 1.27199e-21)
(0.99459 -0.00855778 7.95514e-22)
(1.03635 -0.105282 0)
(1.02218 -0.109279 1.96343e-22)
(1.03124 -0.120499 0)
(1.01511 0.000314313 -5.81575e-22)
(1.01476 0.000390033 6.25184e-22)
(1.01514 0.000598578 5.62943e-22)
(0.988093 -0.00327188 -6.92475e-22)
(0.992698 -0.00222777 -8.9667e-22)
(1.0048 5.28911e-06 0)
(1.00598 0.000122747 6.53303e-22)
(1.00519 7.88321e-05 0)
(1.03838 0.0780525 -3.62463e-22)
(1.03563 0.0681037 -1.02146e-23)
(1.02533 0.0784799 -1.20078e-21)
(1.0196 0.00744642 4.84636e-22)
(1.01885 0.00783597 -3.46637e-21)
(1.01949 0.00805129 1.39567e-21)
(1.12824 0.0578942 -1.51116e-20)
(1.12634 0.0571165 7.37824e-22)
(1.12645 0.0593178 1.01347e-21)
(1.13029 0.0591294 -3.81617e-21)
(1.13009 0.0565565 4.54674e-22)
(0.826932 0.0417531 8.91388e-22)
(0.831888 0.0632032 1.07544e-21)
(0.846236 0.0459539 -2.51504e-21)
(1.00718 0.000153947 -4.52483e-22)
(1.00767 0.000165382 5.55384e-22)
(1.00745 0.000144929 -2.0084e-24)
(1.00964 -0.000200659 0)
(1.00951 -0.000191039 -7.21512e-22)
(1.00964 -0.000186793 0)
(1.01064 0.000943434 9.02511e-22)
(1.01058 0.00102584 0)
(1.01958 0.011679 -2.33417e-21)
(1.01977 0.0121109 6.79458e-22)
(1.01913 0.0119978 -1.02112e-21)
(1.04605 0.181493 0)
(1.03835 0.182549 -2.53199e-21)
(1.0414 0.174782 1.75993e-21)
(1.00961 0.0015387 -6.99353e-23)
(1.00964 0.0020623 1.1461e-21)
(1.01 0.00168451 -4.72306e-22)
(0.755625 -0.0712241 -4.05551e-21)
(0.780898 -0.0639477 -4.27841e-21)
(0.75498 -0.0542289 -4.04466e-21)
(1.02254 0.0120194 -8.09329e-23)
(1.02216 0.0117771 7.28951e-24)
(1.02217 0.0122609 -5.82859e-23)
(1.00822 9.09376e-05 -6.69752e-22)
(1.00829 9.23308e-05 3.46696e-23)
(1.00821 9.68005e-05 5.70013e-22)
(1.05035 -0.0943348 -8.12599e-22)
(1.04615 -0.0876397 -5.27765e-23)
(1.00823 8.68445e-05 -1.15888e-21)
(1.00816 9.0485e-05 -4.62426e-22)
(1.01454 0.00102875 -8.93925e-23)
(1.01428 0.00131992 0)
(1.01469 0.00127905 0)
(1.01514 4.73573e-05 -6.84839e-22)
(1.01517 -0.000265039 2.77545e-22)
(1.01469 -8.59345e-05 4.17232e-22)
(1.01102 0.0019223 -4.70166e-22)
(1.01115 0.00199314 -9.6944e-22)
(1.01108 0.00203255 0)
(1.0031 -1.6429e-05 9.74472e-22)
(1.00452 -1.38877e-05 0)
(1.02118 0.0069943 4.54692e-21)
(1.02035 0.00719043 3.30948e-21)
(1.02092 0.00767784 4.85273e-22)
(1.00355 -0.215531 4.18465e-21)
(0.995359 -0.250946 -6.82094e-21)
(1.01779 -0.224868 -5.65047e-21)
(0.991219 -0.0135137 0)
(0.991369 -0.00969354 3.4503e-21)
(0.98756 -0.0112242 -1.3098e-21)
(1.01126 -0.000384743 1.72257e-22)
(1.01128 -0.0003972 9.15621e-22)
(1.0114 -0.000421599 3.29271e-23)
(1.00918 -0.000204092 8.3945e-23)
(1.00915 -0.000222775 8.04851e-22)
(1.00906 -0.000196997 1.81544e-22)
(1.00631 -6.88406e-05 0)
(1.00626 -8.26597e-05 0)
(1.00478 -7.30006e-05 0)
(1.01049 0.00275769 9.71577e-22)
(1.01065 0.00300562 4.78906e-22)
(1.01035 0.00311204 9.19564e-22)
(1.04216 0.0359144 1.16354e-21)
(1.04343 0.0357214 -3.0622e-21)
(1.04239 0.0347627 -4.94128e-21)
(1.01064 0.00238768 5.28381e-22)
(1.01025 0.00244457 -9.20426e-22)
(1.02207 0.00691696 1.85892e-21)
(1.02131 0.00615102 1.63802e-21)
(1.0168 0.0092599 1.39921e-22)
(1.01686 0.00942037 1.13628e-21)
(1.01668 0.00924085 2.32825e-22)
(1.01376 0.000198594 -4.25906e-23)
(1.01365 0.000219137 2.32782e-23)
(1.01205 0.000137463 1.88359e-22)
(1.01955 0.00671655 -1.00574e-21)
(1.00921 -0.000186106 3.74237e-22)
(1.00924 -0.000168839 -3.83192e-22)
(1.00912 -0.000162629 7.34697e-22)
(1.00894 0.000169961 2.47988e-22)
(1.00883 0.000167168 0)
(1.00891 0.000169156 0)
(1.00897 0.000166509 4.99944e-22)
(1.15564 0.0339556 -6.49275e-22)
(1.15239 0.0358136 1.91333e-20)
(1.1527 0.0324453 7.48119e-21)
(1.01072 0.00237569 -5.33637e-22)
(1.01082 0.00247317 -8.65834e-24)
(1.01079 0.00245995 8.38697e-22)
(1.01063 0.00227801 -7.16294e-22)
(1.01065 0.00229243 -6.25249e-23)
(1.01388 -0.167689 1.22155e-20)
(1.01157 0.000619052 -3.45177e-22)
(1.01165 0.000522671 1.43525e-21)
(1.01155 0.00072536 7.91407e-22)
(1.00661 -8.06533e-05 6.80022e-22)
(1.00594 -4.40707e-05 -3.28964e-22)
(1.00598 -3.18718e-05 5.75819e-22)
(0.621605 -0.0515052 1.29789e-21)
(0.609027 -0.00961068 1.29859e-21)
(0.603805 0.010929 3.51167e-21)
(1.01156 0.000501802 -7.56064e-22)
(1.01148 0.000749383 -9.33445e-22)
(0.967304 0.141588 -7.81096e-22)
(0.968519 0.147201 5.58048e-22)
(0.974521 0.14221 -6.72664e-22)
(1.01606 0.0034262 -1.65181e-22)
(1.01607 0.00327163 2.63833e-22)
(1.01585 0.00328397 3.155e-22)
(1.00956 0.000973984 -5.01667e-22)
(1.00905 0.00137551 -9.21185e-22)
(1.00597 -0.000105382 -3.37558e-22)
(1.00498 -4.65146e-05 -2.0626e-22)
(1.00503 -4.92933e-05 7.33214e-23)
(0.887718 -0.298947 -1.30501e-21)
(1.01476 0.000772175 1.00181e-21)
(1.01429 0.000901623 9.87282e-22)
(0.946309 0.014302 6.05663e-21)
(0.908778 0.0105318 -4.37715e-21)
(0.887664 0.0103271 1.62572e-21)
(1.00931 -0.000210407 1.92945e-22)
(1.10675 0.0764435 6.85745e-22)
(1.10795 0.0740264 -7.16514e-21)
(1.10488 0.0739759 -3.36313e-21)
(0.966916 0.133775 -1.98978e-22)
(0.96033 0.138723 1.28664e-21)
(1.01368 0.00214843 -8.65133e-22)
(1.01386 0.00187852 -6.85738e-25)
(1.0134 0.00172112 3.47352e-22)
(0.966407 -0.0070142 2.77183e-21)
(0.961644 -0.00446713 -1.27178e-21)
(0.967633 -0.00176384 2.00133e-21)
(1.00648 -8.69064e-05 -1.34515e-22)
(1.00716 -0.000113147 2.99083e-22)
(1.00697 -0.000119541 -7.5298e-22)
(1.02105 0.0204932 3.16646e-23)
(1.02169 0.0205982 -8.5827e-23)
(1.02124 0.0213355 1.58371e-22)
(1.04104 0.0362191 2.51611e-21)
(1.04201 0.0372829 3.59399e-22)
(1.00941 -0.000411625 3.05196e-22)
(1.00938 -0.000433125 9.99748e-22)
(1.00929 -0.000402001 4.62497e-22)
(1.04102 0.0995378 -1.01247e-22)
(1.05061 0.115123 0)
(1.0332 0.112996 1.22732e-22)
(1.01159 0.000530815 6.58276e-22)
(1.01173 0.000490176 3.29653e-22)
(1.01157 0.000560799 -1.07941e-22)
(1.01606 0.00352413 3.10489e-22)
(1.01626 0.00352229 -4.22381e-22)
(0.997242 -0.00198356 1.40403e-21)
(0.997738 -0.00503853 -1.66075e-21)
(1.00016 -0.00307223 2.39155e-21)
(1.02037 0.0146559 -3.90124e-21)
(1.02034 0.0138717 -1.18719e-21)
(1.01947 0.0142352 -3.05571e-22)
(0.998349 -0.0564203 -1.25387e-22)
(0.988574 -0.0607841 2.02547e-22)
(0.996372 -0.0511472 5.53877e-21)
(1.00945 -0.000361195 -2.70158e-22)
(1.00944 -0.000387708 -1.55902e-21)
(1.00933 -0.000351299 -1.38606e-21)
(0.908362 -0.284972 -6.08746e-21)
(0.890995 -0.309779 -6.4519e-21)
(1.00949 -0.000338566 6.4022e-22)
(1.0096 -0.000373082 1.31391e-22)
(1.01145 0.00056853 0)
(1.0116 0.000509178 9.88863e-22)
(1.00269 -0.0621864 6.24944e-23)
(1.00757 -0.0519756 -6.88828e-23)
(1.02029 0.0205134 1.17578e-22)
(1.02077 0.0197842 -2.32944e-22)
(1.03367 -0.0533941 -3.1341e-21)
(1.03028 -0.0634734 4.96416e-22)
(1.02452 -0.0569261 4.35905e-23)
(1.00953 -0.000424399 -1.43839e-21)
(1.01706 0.0205386 -3.14134e-23)
(1.01721 0.02137 -1.26263e-23)
(1.01643 0.0211157 -3.14615e-23)
(0.983711 0.0504755 6.96337e-22)
(0.98277 0.0538992 4.39755e-22)
(0.980547 0.0504473 5.60478e-22)
(1.00416 6.13447e-05 -2.70768e-22)
(1.00405 -1.79761e-06 7.12419e-22)
(1.00281 1.27395e-05 -3.98298e-22)
(1.00768 0.000276421 5.49981e-22)
(1.00658 0.000228096 0)
(1.00637 0.000213927 0)
(1.00367 0.0531342 5.1048e-22)
(1.00615 0.0526889 1.83833e-22)
(1.00527 0.0553057 1.20447e-22)
(1.01025 0.00128176 5.4007e-22)
(1.0102 0.0012328 -1.94189e-21)
(1.01015 0.00124753 -1.07549e-21)
(1.0023 0.0508337 1.31621e-23)
(1.00094 0.0533676 8.5927e-22)
(0.777457 -0.0373872 1.18461e-20)
(0.768245 0.0210835 0)
(0.837724 -0.0835277 7.92333e-21)
(0.868616 -0.0882062 4.16137e-21)
(0.862819 -0.0756024 7.07005e-21)
(1.04327 -0.045733 1.29997e-21)
(1.03997 -0.0420234 1.66512e-21)
(1.01173 0.000437769 -5.90226e-23)
(1.01177 0.000313823 1.26957e-21)
(0.931315 0.144069 0)
(0.950409 0.139182 0)
(0.936908 0.123146 2.4242e-22)
(1.01157 0.000861454 4.91939e-23)
(1.01125 0.000731357 -5.8727e-22)
(1.01147 0.00132719 1.55014e-21)
(1.00979 0.00124797 6.56298e-22)
(1.00977 0.00125719 -1.23952e-21)
(1.0097 0.00119116 9.60802e-22)
(1.01191 0.000914849 -4.77008e-22)
(1.01172 0.000511386 -2.07242e-22)
(1.04267 0.110978 -1.36613e-21)
(1.04032 0.115187 2.01796e-21)
(1.03846 0.109638 -9.48054e-22)
(1.02091 0.0110984 -7.33743e-23)
(1.0212 0.0112885 8.21584e-23)
(1.02095 0.0114393 1.40927e-22)
(0.985347 0.0478327 5.26334e-22)
(0.987453 0.0511202 -1.25476e-21)
(1.0113 0.000599231 5.91742e-22)
(1.0113 0.000632502 0)
(1.01182 0.000391813 -1.40988e-21)
(1.01167 0.000563493 -2.35802e-21)
(1.01068 -0.000545027 -9.14069e-24)
(1.01074 -0.000587769 4.15021e-23)
(1.01064 -0.000544485 -2.04674e-24)
(1.01972 0.0204491 -7.39232e-23)
(1.01903 0.0203321 -1.67821e-22)
(1.01951 0.0197286 -1.42543e-22)
(1.0098 -0.000220224 0)
(1.00966 -0.000220827 0)
(0.965149 -0.0127023 -3.09537e-21)
(0.971037 -0.00977166 0)
(0.910787 0.149374 -1.252e-22)
(0.927335 0.165408 0)
(1.02395 0.0475175 0)
(1.02254 0.0485068 3.13489e-22)
(1.02462 0.0492815 -1.72779e-22)
(1.00948 -0.000141043 -1.5074e-21)
(1.00959 -0.000144423 -1.06469e-21)
(1.00943 -0.000131021 8.29445e-23)
(1.00675 -0.000116691 -1.74631e-22)
(1.00675 -0.000127559 5.14732e-22)
(1.00449 -4.13201e-05 1.57563e-22)
(1.0032 -2.74587e-05 1.51533e-22)
(1.00446 -4.96207e-05 -4.64592e-23)
(1.01367 -0.000295595 1.2067e-21)
(1.01216 -0.00129907 6.38261e-22)
(1.01268 0.00110041 2.58171e-21)
(1.01695 0.0197187 3.45141e-22)
(1.01763 0.0199855 2.14365e-22)
(1.18567 0.0583059 4.88517e-21)
(1.18747 0.0597299 -6.58521e-21)
(1.18336 0.0538236 5.97777e-21)
(1.01027 0.0105037 -3.05639e-21)
(1.01051 0.0115562 1.90094e-22)
(1.01128 0.0107311 -3.24283e-22)
(1.01117 0.000618549 2.35895e-22)
(1.0113 0.000564594 2.12266e-22)
(1.00732 -0.0684006 1.18397e-21)
(0.995652 -0.0746482 -2.8318e-23)
(1.01999 0.0159048 1.24507e-22)
(1.01955 0.0158518 2.11879e-22)
(1.01979 0.0154105 -3.44758e-22)
(1.02238 0.0203547 -3.40984e-23)
(1.02249 0.0211091 3.90241e-22)
(1.03247 0.0878645 -3.6187e-21)
(1.04726 0.0871502 -3.45824e-23)
(1.15455 0.152836 6.96893e-21)
(1.15839 0.160885 0)
(0.768429 -0.0935844 -8.53885e-21)
(0.998848 0.0591018 -2.43336e-22)
(0.995826 0.0599487 -2.33311e-22)
(0.998233 0.0627963 -1.12612e-21)
(1.01409 -0.0733696 1.38266e-22)
(1.01417 -0.0616831 3.29564e-23)
(1.16279 0.0360951 -2.48927e-22)
(1.1641 0.0326224 -9.19728e-22)
(1.16614 0.0366254 6.1934e-22)
(1.01563 0.000201858 -8.88921e-22)
(1.01061 0.000846453 -1.38204e-22)
(1.0107 0.000861362 8.63478e-22)
(0.861846 0.153525 3.07811e-21)
(0.872961 0.15282 2.94638e-21)
(1.02149 0.00947982 3.08123e-23)
(1.02161 0.00975953 -3.22118e-23)
(1.02126 0.0096347 -8.04794e-24)
(1.00981 0.00123535 -8.91955e-24)
(1.00987 0.00130196 3.21504e-22)
(0.651879 -0.106815 -3.65907e-21)
(0.650737 -0.114915 0)
(1.01512 0.00504377 -3.68078e-22)
(1.01498 0.00486588 1.03566e-23)
(1.01518 0.00497749 2.24454e-23)
(1.07484 0.101304 0)
(1.07833 0.102084 2.943e-21)
(1.07506 0.104571 0)
(0.931033 0.0593003 1.69051e-21)
(0.935605 0.060635 2.90838e-21)
(0.930965 0.06517 0)
(1.01023 0.00117486 1.75253e-22)
(1.01029 0.00121188 7.1403e-22)
(1.01034 0.00120334 0)
(1.05046 0.186462 1.36563e-21)
(1.05343 0.178914 0)
(0.99227 0.0987119 -1.84496e-21)
(1.00416 0.103954 -5.31389e-22)
(0.992161 0.113838 1.52783e-22)
(1.0124 0.00082151 3.62427e-22)
(1.01253 0.000876333 1.4102e-22)
(1.01246 0.000962695 -7.60234e-23)
(0.808223 -0.072906 -4.60086e-21)
(0.811263 -0.0883123 1.48536e-21)
(1.03293 0.0295038 1.36868e-21)
(1.03355 0.0288912 -6.5933e-22)
(1.03372 0.0300505 1.52948e-21)
(1.02573 -0.0244082 -2.68733e-22)
(1.02906 -0.021409 -5.72785e-22)
(1.03009 -0.026581 1.68399e-22)
(1.01051 0.00209806 5.84984e-22)
(1.01044 0.00202799 -9.16258e-22)
(1.01045 0.00200287 -6.16439e-22)
(0.597628 0.152324 8.52371e-22)
(0.596545 0.110919 1.19286e-21)
(0.9306 0.0526027 1.43022e-22)
(0.924906 0.0574534 3.77781e-21)
(1.0139 0.000322511 -1.81305e-22)
(1.01439 0.000356602 -4.41666e-22)
(1.01426 0.000384223 5.50267e-23)
(0.882245 0.00488689 0)
(0.878215 0.00356724 -4.86947e-21)
(0.933181 0.0121661 0)
(1.01286 -0.00161871 3.40977e-24)
(1.01269 -0.00156916 -3.57347e-23)
(1.01271 -0.00155944 5.44107e-23)
(1.01487 -0.00190793 1.12544e-21)
(1.01507 0.000515433 1.38958e-23)
(1.04276 0.00429711 3.6641e-22)
(1.03469 -0.00173379 0)
(1.04206 -0.0166576 0)
(1.01097 0.00182289 -2.85434e-22)
(1.0109 0.0018589 -4.47677e-22)
(1.02299 0.0201727 9.3675e-23)
(1.02229 0.0197669 -3.12604e-23)
(1.01606 0.00020375 0)
(1.01568 -1.35434e-05 2.31235e-24)
(1.01545 0.000270149 2.57282e-22)
(1.02475 -0.00430594 5.6573e-22)
(1.02431 -0.00612998 7.7268e-23)
(1.02303 -0.00481515 5.71398e-22)
(1.00936 -0.000172157 -8.72988e-22)
(1.00927 -0.00015286 -3.49808e-22)
(1.00765 6.80483e-05 1.17367e-23)
(1.00777 7.42115e-05 3.04228e-23)
(1.00778 7.33256e-05 -3.0755e-22)
(1.01049 0.000826862 -1.29241e-21)
(1.01051 0.000723132 -8.45498e-22)
(1.00425 2.86317e-05 -1.25451e-21)
(1.005 -9.36306e-05 -2.45183e-22)
(1.01056 0.0021623 1.15479e-21)
(1.01059 0.00214716 1.69093e-22)
(1.00741 5.54712e-05 -2.50883e-23)
(1.00739 4.91538e-05 -4.78729e-22)
(1.01991 0.010658 -1.09263e-23)
(1.02025 0.0109614 1.33417e-21)
(1.02045 0.0105275 4.92745e-22)
(1.01505 0.00509874 -3.49531e-22)
(1.01526 0.00521154 5.11141e-23)
(1.00955 -0.00015527 -5.18567e-22)
(1.0094 -0.000139536 2.29462e-22)
(1.02668 -0.0116673 9.65258e-22)
(1.0251 -0.014051 7.467e-22)
(1.02376 -0.0114577 1.36474e-21)
(1.02132 0.0122543 0)
(1.02168 0.0129071 0)
(1.02225 0.0122689 -4.27064e-22)
(1.04124 0.0422997 8.83684e-23)
(1.04626 0.0465148 -4.87334e-23)
(1.04868 0.0380987 0)
(0.883368 0.00755134 -2.13888e-21)
(0.830054 -0.00091422 4.86195e-21)
(0.835805 0.135595 1.51433e-21)
(0.823004 0.136489 4.3884e-22)
(0.830397 0.124327 1.4654e-21)
(0.850282 -0.281391 -1.5625e-21)
(0.844794 -0.285696 -3.00678e-21)
(0.849123 -0.287824 -1.2832e-21)
(1.0321 0.0302785 -1.0427e-22)
(1.03202 0.0290399 -9.38659e-24)
(1.00479 -5.10062e-05 1.04884e-22)
(1.00484 -5.47848e-05 4.31794e-22)
(1.00341 -3.591e-05 3.1453e-22)
(1.07473 0.0972534 5.67369e-22)
(1.07107 0.0996733 -2.39722e-21)
(1.00432 -1.47622e-05 3.578e-23)
(1.00435 -3.02023e-05 -5.79406e-22)
(1.0029 -2.18105e-05 -9.13576e-22)
(1.02514 -0.111911 8.08982e-21)
(1.04362 -0.139081 2.59951e-21)
(1.00556 -9.08171e-05 1.11809e-22)
(1.0056 -8.77023e-05 -9.51629e-23)
(1.00416 -4.50331e-05 1.17125e-22)
(1.01328 0.00024386 2.12342e-22)
(1.01311 0.00024582 0)
(1.00442 -2.9464e-05 0)
(1.00542 -9.46295e-05 3.17377e-22)
(1.0113 -0.000944884 5.31473e-23)
(1.01139 -0.000971289 -3.93908e-23)
(1.01142 -0.00100109 6.73754e-24)
(1.03765 0.0132614 1.20663e-24)
(1.03846 0.0135352 1.88548e-21)
(1.03778 0.013916 -1.32705e-23)
(1.0076 0.0228053 1.22565e-22)
(1.00851 0.0238164 8.93447e-22)
(1.00696 0.0239716 -6.2908e-22)
(1.00411 -3.35895e-06 8.91175e-22)
(1.00413 6.85203e-06 -5.72592e-22)
(1.00278 -1.58382e-05 -6.7398e-24)
(1.03708 0.0370696 -1.27177e-21)
(1.0343 0.0440255 9.21526e-23)
(1.02207 0.0111033 1.97001e-23)
(1.0217 0.0109308 -4.99366e-23)
(1.02196 0.0107091 -3.43315e-23)
(1.01134 0.00239881 5.63294e-23)
(1.01145 0.00247746 1.26649e-21)
(1.0114 0.00236081 4.96668e-22)
(1.04046 0.0237821 -1.24018e-22)
(1.03629 0.0206992 3.10955e-22)
(1.04105 0.0182258 1.35782e-22)
(1.0119 0.000350935 1.48534e-22)
(1.012 0.000215212 0)
(1.00497 4.00042e-05 -5.15415e-25)
(1.00449 -1.86868e-05 2.18433e-22)
(1.00569 7.35715e-05 5.43584e-22)
(1.00113 0.0483148 -1.52066e-22)
(0.998529 0.0481641 -4.51149e-22)
(1.00012 0.0458268 3.49655e-22)
(1.01604 0.00105223 -1.06472e-22)
(1.01601 0.000937405 2.0725e-22)
(1.01587 0.00100286 -5.53051e-23)
(1.0157 -0.000446269 8.0568e-22)
(1.01519 -0.000538279 -8.86736e-22)
(1.15883 0.035134 -8.5842e-21)
(1.15941 0.0385119 -2.66839e-21)
(1.04536 0.10757 8.05285e-23)
(1.04657 0.113121 -1.30365e-21)
(1.00936 0.000161005 2.16018e-22)
(1.00923 0.00016078 2.25453e-22)
(1.00927 0.000152264 -6.28977e-22)
(1.01063 -0.000733181 -7.78162e-22)
(1.01067 -0.000715322 -6.96107e-22)
(1.01078 -0.00074426 -4.84965e-23)
(1.01531 0.000207077 0)
(1.01521 0.000179191 2.35039e-22)
(1.01533 0.000154546 0)
(1.18741 0.0647709 4.18009e-21)
(1.19262 0.0725165 -2.35098e-20)
(1.19312 0.0724618 -1.60767e-20)
(1.00712 -6.78347e-05 -3.42406e-22)
(1.0071 -9.62091e-05 3.06892e-22)
(0.832105 0.168579 3.34317e-21)
(0.836762 0.157275 -2.41308e-21)
(0.823655 0.159074 -2.63437e-21)
(1.0092 0.000167184 0)
(1.00929 0.000173021 0)
(0.807199 0.0301146 -3.63339e-21)
(0.826784 0.018166 2.42855e-22)
(1.01197 0.000339104 6.70262e-22)
(1.01179 0.000466334 1.40515e-22)
(1.01554 0.0122745 5.22367e-22)
(1.01608 0.0123505 1.11478e-22)
(1.01579 0.0118721 1.85854e-21)
(1.02311 0.00688849 1.45065e-22)
(1.02262 0.00761456 -9.1003e-22)
(1.00423 -2.66208e-05 2.24691e-22)
(1.00461 5.81193e-07 2.01154e-22)
(1.00538 3.93966e-05 2.58721e-22)
(0.848706 0.134367 0)
(0.842214 0.146466 0)
(1.02168 0.00835267 -4.11955e-23)
(1.02181 0.00814547 -3.23228e-23)
(1.02203 0.00840344 -1.03238e-22)
(0.855962 -0.278095 2.55142e-21)
(0.853655 -0.274074 3.30984e-21)
(1.01128 0.00240866 -1.89368e-23)
(1.01125 0.00230111 -4.65109e-22)
(1.01123 -0.000350848 -1.011e-22)
(1.01109 -0.000316879 8.0738e-22)
(1.01123 -0.000331658 7.73565e-22)
(1.01545 -0.000851175 2.62131e-22)
(1.01498 -0.00088966 2.73958e-22)
(1.01499 -0.000621521 2.67189e-22)
(1.01824 0.00872939 -4.65289e-23)
(1.01817 0.00850376 -2.9385e-23)
(1.01803 0.00857208 3.5952e-22)
(1.07921 -0.023383 5.70543e-21)
(1.07799 -0.0329689 -1.22307e-22)
(1.07143 -0.033586 -4.12622e-22)
(1.01734 0.00190548 4.63575e-22)
(1.01754 0.00261516 5.66804e-22)
(1.01828 0.00216892 -2.47329e-22)
(1.01712 0.00136844 -6.32888e-23)
(1.0165 0.00172657 7.35612e-22)
(1.01302 -0.001696 -3.95257e-23)
(1.01305 -0.00167502 -8.84092e-24)
(1.03581 -0.0512208 -1.05458e-21)
(1.00216 -0.075616 -9.53032e-21)
(1.0069 0.0212998 -2.28156e-21)
(1.00818 0.0214889 -4.06575e-22)
(1.04437 0.0274475 7.47266e-23)
(1.04375 0.0266159 2.31003e-21)
(1.04337 0.0275593 -4.54512e-23)
(1.02151 0.00857742 7.96236e-24)
(1.02133 0.00875961 -9.81328e-24)
(1.02173 0.00884822 -4.53461e-23)
(1.01077 0.00242752 2.22234e-22)
(1.01077 0.00241326 6.12963e-22)
(1.01086 0.00251388 1.08513e-21)
(1.02556 0.0463739 -3.60215e-22)
(1.0235 0.0457739 -1.90995e-22)
(1.0105 -0.000764934 1.78466e-22)
(1.01048 -0.000755216 -6.69976e-22)
(1.01036 -0.000736998 -1.63008e-22)
(1.0105 0.0537077 -2.98899e-22)
(1.00877 0.051959 6.68274e-23)
(1.01115 0.0511653 8.8531e-23)
(1.01696 -0.00988276 -8.96906e-22)
(1.01881 -0.0107353 -1.0875e-21)
(1.01811 -0.00865104 -8.78469e-22)
(1.01922 0.0297001 4.6405e-22)
(1.02087 0.0340426 -8.93319e-22)
(1.0153 0.0316803 -9.88266e-22)
(1.01506 0.00535321 -5.23722e-22)
(1.01537 0.00462464 -6.14736e-22)
(1.01609 0.00573337 0)
(1.01052 -0.000770588 3.45826e-22)
(1.01053 -0.000772278 0)
(1.0104 -0.000747874 -1.70847e-22)
(0.982162 0.0926672 3.60981e-22)
(0.992979 0.0862427 -2.73136e-22)
(0.892224 0.113932 3.43571e-21)
(0.881785 0.114207 4.45553e-22)
(0.886625 0.104707 3.87126e-21)
(0.998089 0.00809331 -1.47541e-21)
(0.997714 0.00576993 -2.76908e-21)
(1.00001 0.00665658 -9.24539e-23)
(1.01373 0.0014631 -4.42984e-22)
(1.01342 0.00121922 5.0467e-22)
(1.0134 0.00138816 5.17367e-23)
(1.0199 0.0211436 -2.42144e-23)
(1.05451 0.0439047 0)
(1.0461 0.0480278 1.70842e-23)
(1.0499 0.0556919 0)
(1.01064 -0.000794239 6.86297e-22)
(1.02779 -0.00941507 -3.2471e-22)
(1.03086 -0.011908 5.91553e-22)
(1.01814 0.0258105 2.41835e-21)
(1.02263 0.0270584 1.60214e-21)
(1.03228 0.00932296 0)
(1.0323 0.00874278 -8.13242e-22)
(1.03171 0.00898971 0)
(1.15873 0.0312579 -5.72804e-21)
(1.0512 0.0202739 2.0873e-21)
(1.05222 0.0204319 -2.34553e-21)
(1.05159 0.0193882 2.04296e-21)
(1.01679 0.000894383 6.56239e-22)
(1.0176 0.000913401 -4.62338e-22)
(1.00954 0.000172482 5.04779e-23)
(1.00944 0.000166925 -4.0295e-22)
(1.00941 0.000171163 -4.19929e-22)
(1.03691 0.0131033 -9.52532e-22)
(1.03753 0.0126511 3.71716e-22)
(1.01643 0.0005363 9.34986e-22)
(1.01604 0.000876545 -9.45418e-23)
(0.998582 0.0101426 -7.682e-22)
(0.999325 0.0122371 -1.29271e-21)
(1.00091 0.0107399 -1.30232e-21)
(1.02128 0.00831609 8.76077e-23)
(1.01611 0.00313965 -2.6284e-22)
(1.01613 0.00300553 -2.61147e-22)
(1.01591 0.00300744 1.69569e-22)
(1.01073 0.00229221 7.12075e-22)
(1.0107 0.00229723 -5.38768e-22)
(1.01063 0.00220299 1.72327e-22)
(1.07564 -0.0162592 5.29642e-22)
(1.0844 -0.010394 5.18581e-22)
(1.07405 -0.0473813 2.80494e-22)
(1.06733 -0.060393 5.90983e-22)
(1.06295 -0.05561 1.02233e-21)
(1.01206 0.000351746 -6.8061e-23)
(1.01224 0.000282851 -6.76503e-22)
(1.01225 0.000301925 -4.41321e-22)
(1.0135 0.00242083 -1.08558e-21)
(1.01406 0.00270748 -3.49749e-22)
(1.08312 -0.0312712 -3.71106e-21)
(1.14041 0.111464 -2.46867e-21)
(1.14535 0.110672 -1.37258e-20)
(1.14102 0.106881 -6.14347e-22)
(1.01534 -0.0110683 -4.43248e-22)
(1.01564 -0.00904623 -1.64127e-22)
(1.01121 -0.000883353 3.53047e-23)
(1.01121 -0.00090864 3.62234e-23)
(1.02676 -0.0120411 1.28414e-23)
(1.03008 -0.0117325 -2.85612e-22)
(1.02694 -0.00904012 -1.32374e-21)
(1.05088 0.0213371 -2.05634e-21)
(1.05028 0.0202952 -8.22227e-22)
(1.01359 0.000515822 1.40914e-22)
(1.01292 0.000413375 -3.98717e-22)
(1.01326 0.000507805 -2.26019e-22)
(1.01409 0.00496181 -5.04222e-22)
(1.01438 0.00613939 9.61239e-23)
(1.00946 0.000951056 3.3414e-22)
(1.00952 0.000985596 1.04763e-21)
(1.00943 0.000946169 6.99153e-22)
(1.04924 0.00689733 7.5172e-22)
(1.0434 0.0228156 1.89295e-21)
(0.987364 -0.0060721 3.27659e-23)
(0.985256 -0.0109885 9.68875e-22)
(0.982723 -0.00582822 1.2954e-21)
(1.04594 0.104185 1.97819e-22)
(1.04756 0.100622 3.39371e-21)
(1.04278 0.102036 1.01707e-21)
(1.06151 0.0329517 6.83787e-21)
(1.06197 0.0338278 1.09889e-21)
(1.06285 0.0328965 -1.81469e-21)
(1.02346 0.00598979 -1.20139e-21)
(1.02419 0.0070339 2.45601e-21)
(1.04006 0.000731043 -4.72594e-22)
(1.04068 -0.00316228 -2.57169e-22)
(1.03713 -0.001756 8.45954e-22)
(1.01792 -0.0200131 0)
(1.02169 -0.0222408 0)
(1.02059 -0.0180032 0)
(1.03839 0.119029 5.26264e-21)
(1.03408 0.118587 6.75688e-22)
(1.03595 0.123794 -5.24644e-21)
(1.00941 0.000920658 -3.91518e-23)
(1.0095 0.000956931 8.20537e-24)
(1.01631 0.00327219 -8.11897e-23)
(1.01517 -0.00121952 1.65725e-21)
(1.01574 -0.00117406 5.09387e-22)
(1.01519 -0.000874464 8.24923e-22)
(1.00964 -0.000146612 0)
(1.00968 -0.000149633 -4.59684e-22)
(1.00978 -0.000155564 5.30386e-22)
(1.01498 0.0121722 -8.04802e-22)
(1.01522 0.0127047 1.56432e-22)
(1.04493 0.0282668 -3.65783e-22)
(1.04536 0.027281 -1.73713e-22)
(1.01048 0.00161437 2.33339e-22)
(1.01059 0.00167516 3.23492e-22)
(1.01054 0.00157452 -2.71389e-22)
(1.01878 0.00872522 5.46725e-22)
(1.01893 0.00863451 3.08949e-22)
(1.01899 0.00888333 2.55187e-22)
(1.01497 0.027675 -1.2119e-21)
(1.01646 0.0260891 -3.0766e-21)
(1.01376 0.0259356 -1.20346e-21)
(1.01017 0.00114105 6.93329e-22)
(1.01012 0.0011449 1.72706e-22)
(0.963758 0.0815075 -2.93606e-22)
(0.96268 0.0862422 -1.24414e-21)
(0.959077 0.0822096 3.29787e-22)
(0.982847 0.234994 -8.03415e-21)
(0.955274 0.270773 4.75878e-21)
(1.01751 0.0244091 -1.08052e-21)
(1.01835 0.0228254 3.26578e-22)
(1.01614 0.0230386 -2.19949e-22)
(1.01847 0.00889689 0)
(1.01831 0.00896726 5.00044e-23)
(1.0101 0.00807968 2.59133e-22)
(1.01013 0.00939813 -8.03145e-22)
(1.01116 0.00846675 -5.37073e-22)
(1.0095 -0.000139983 7.06213e-22)
(1.0096 -0.000149294 -8.30989e-22)
(1.01006 0.0560237 1.9005e-22)
(1.00955 0.0589271 -1.49369e-22)
(1.0072 0.0571657 1.28449e-22)
(1.02184 0.00737201 3.00997e-23)
(1.02151 0.00735378 1.00278e-22)
(1.02162 0.00710924 9.93343e-23)
(1.00554 0.0206492 -1.64751e-21)
(1.00386 0.0200185 0)
(1.00419 0.0218602 6.97477e-22)
(1.0144 0.000274688 3.04875e-23)
(1.01363 0.000186476 -3.4111e-22)
(1.00666 0.0197564 -2.45886e-22)
(0.931795 0.0176454 2.1112e-22)
(0.926093 -0.0183762 4.78333e-21)
(1.01124 -0.000368442 -1.56113e-21)
(1.01111 -0.000351403 -4.93017e-22)
(1.06232 0.0654173 -3.05006e-21)
(1.06316 0.063446 -3.62055e-21)
(1.06449 0.0657543 -3.92126e-21)
(1.02136 0.0160534 1.05229e-22)
(1.02111 0.0165187 1.58717e-22)
(1.02089 0.0159674 3.27726e-23)
(1.01125 0.00354945 0)
(1.01051 0.00357341 3.5117e-22)
(1.01108 0.00450084 3.43317e-22)
(1.01467 -0.0219751 0)
(1.01511 -0.0179959 0)
(1.00679 0.00012817 -5.16279e-22)
(1.00644 0.000104912 -8.19086e-22)
(1.0106 -0.000748912 -4.48015e-24)
(1.01049 -0.000720483 -1.61009e-22)
(0.968601 0.0805889 -1.22091e-21)
(0.965087 0.0770483 -1.70215e-22)
(1.01862 0.00882018 2.79332e-22)
(1.01855 0.00856931 -6.17658e-24)
(1.02209 -0.0276538 3.9979e-22)
(1.04466 0.035509 2.03611e-21)
(1.04501 0.0343223 4.4616e-21)
(1.04604 0.0352906 2.08188e-21)
(0.872089 0.268584 -2.99187e-22)
(1.01636 0.06329 2.19658e-22)
(1.01357 0.0644402 3.78192e-22)
(1.01417 0.0614448 8.09585e-22)
(1.04986 0.105955 -3.05954e-21)
(1.01773 0.0122977 -5.58518e-22)
(1.01761 0.0128009 6.96119e-22)
(1.01717 0.0123277 2.33965e-22)
(1.01321 0.0294132 -1.31095e-21)
(1.01643 0.0297221 2.72312e-21)
(1.01144 0.000975024 5.93047e-22)
(1.01142 0.000985454 -6.91497e-22)
(1.01146 0.00086545 1.80385e-23)
(1.04867 0.0170451 -3.51427e-22)
(1.04788 0.0175204 -1.65344e-21)
(1.0479 0.0164861 5.51807e-22)
(1.0612 0.0315775 -2.01602e-21)
(1.06014 0.0326108 3.11344e-21)
(1.06177 0.0677501 -8.95086e-22)
(1.06037 0.065466 1.52732e-21)
(1.03112 0.0363489 -1.6605e-21)
(1.03748 0.0357096 -8.4805e-23)
(1.03335 0.0299608 2.46323e-21)
(1.19043 0.18217 4.94576e-21)
(1.18165 0.187612 5.14637e-21)
(1.194 0.191182 1.98114e-20)
(1.01142 0.00318715 2.196e-22)
(1.01149 0.00326461 -1.93082e-23)
(1.01142 0.00317575 4.78703e-22)
(1.00887 -0.00168972 -3.85091e-22)
(1.00792 -0.00127211 1.67812e-21)
(1.00819 -0.00240627 -1.65964e-21)
(0.967143 0.127674 7.31617e-24)
(0.967426 0.121346 -3.11332e-24)
(0.961504 0.124167 7.23515e-22)
(1.00996 0.00707658 -2.72017e-21)
(1.00888 0.00798175 1.35522e-21)
(1.01143 0.00318884 4.29113e-22)
(1.01135 0.00309392 -7.93474e-22)
(1.01061 0.0022566 0)
(1.01054 0.00217729 -9.11317e-22)
(1.01087 0.00224376 -4.04714e-22)
(1.01082 0.00225922 0)
(1.01076 0.00215582 0)
(1.08362 0.0524486 -4.3761e-21)
(1.08487 0.0511946 -3.32945e-21)
(1.08539 0.0530101 -2.32983e-21)
(1.18568 0.173087 0)
(1.19857 0.175497 5.27509e-21)
(1.14304 0.26753 -2.36969e-20)
(1.14449 0.284911 -3.93681e-22)
(1.16016 0.277024 -8.9925e-21)
(1.0245 0.0359267 -1.90474e-21)
(1.02661 0.0429079 -4.14616e-22)
(1.01904 0.0259304 9.27821e-22)
(1.03434 0.0280904 -4.35049e-22)
(1.03509 0.0275161 -2.97772e-22)
(1.03516 0.0288582 -5.53754e-22)
(1.06154 -0.0092089 -1.80921e-22)
(1.06605 -0.00250716 -5.19195e-22)
(1.06189 0.00019379 -4.53677e-22)
(1.01253 -0.00152554 -1.03988e-22)
(1.01238 -0.00146596 -2.21502e-23)
(1.01237 -0.00148289 3.70315e-24)
(1.02158 0.00788 0)
(1.02194 0.00789388 0)
(1.03343 0.0275415 -1.26874e-21)
(1.01808 0.00498497 -2.42961e-23)
(1.01833 0.00500878 2.04759e-22)
(1.01825 0.00518671 1.79023e-22)
(0.996193 0.0094983 1.77633e-21)
(1.00609 -5.0404e-05 0)
(1.0073 -0.000106201 0)
(1.09341 0.0404168 7.75059e-22)
(1.10005 0.0194844 4.0178e-21)
(1.09748 0.0424458 1.17744e-22)
(1.00996 -0.000246355 2.25255e-23)
(1.00993 -0.000230271 -2.56573e-23)
(1.01007 -0.000244418 -2.58484e-22)
(1.0175 -0.0815747 -4.71665e-23)
(1.02605 -0.0730295 3.69617e-22)
(1.01468 0.000566444 -1.39294e-22)
(1.01478 0.00063617 -5.1071e-22)
(1.01464 0.000617874 -2.79301e-22)
(1.01691 0.00926486 -1.48471e-22)
(1.01671 0.00906644 -3.97411e-22)
(1.01752 0.0133613 -1.70672e-21)
(1.01686 0.0134194 -8.18823e-22)
(1.01735 0.0140125 1.6729e-21)
(1.13847 0.0677625 3.30274e-21)
(1.13585 0.066345 5.45254e-21)
(1.13552 0.0695691 5.19924e-21)
(0.804281 0.125307 -1.75643e-22)
(0.810258 0.137789 -3.75588e-21)
(0.797067 0.138306 -5.38707e-21)
(1.00017 0.0139924 -1.10627e-21)
(0.997854 0.0135739 1.7756e-21)
(1.01849 0.0339197 8.03097e-22)
(1.02203 0.0294904 2.29928e-22)
(1.01877 0.0108848 1.77155e-22)
(1.01873 0.0106326 -5.51209e-22)
(1.01894 0.0108986 -4.61386e-22)
(1.01036 0.0013134 1.20422e-21)
(1.0103 0.00133346 1.65997e-21)
(1.01784 0.00495126 -5.25252e-22)
(1.01791 0.00478092 -2.44248e-22)
(1.01335 0.00751176 -4.30008e-23)
(1.01356 0.00866659 -1.32364e-22)
(1.0125 0.00781376 -4.21313e-23)
(1.05009 0.0751193 -8.29381e-22)
(1.03927 0.0918121 -8.23794e-22)
(1.01046 0.00146431 0)
(1.01049 0.00142686 -2.06552e-22)
(1.01038 0.00139532 0)
(1.01136 0.000613624 -6.52311e-22)
(1.01068 0.000482204 7.61075e-22)
(1.01146 0.000588281 6.59935e-22)
(1.04757 -0.000128122 0)
(1.04984 0.00509919 0)
(1.05143 -0.00237259 0)
(1.01929 0.0107739 -3.7248e-22)
(1.01951 0.0109965 1.75882e-22)
(1.01947 0.0107031 1.70318e-22)
(1.01053 0.00140381 -4.56105e-23)
(1.01047 0.00134807 -1.89486e-22)
(1.01058 0.00138289 1.20616e-21)
(1.14539 0.0927251 -5.91393e-21)
(1.14945 0.0911359 -6.7572e-21)
(1.1461 0.0884835 -7.70685e-21)
(1.01336 0.00668777 7.66778e-23)
(1.01418 0.00717401 7.77231e-22)
(1.01079 0.00227364 -6.72335e-22)
(1.01076 0.0022839 -1.57232e-22)
(1.01069 0.00218491 -8.76876e-22)
(1.0134 0.000889877 2.40087e-22)
(1.01342 0.00104568 -4.73784e-22)
(1.01375 0.0010592 -4.99735e-23)
(1.00308 0.0186059 0)
(1.00201 0.0199421 -1.07451e-21)
(1.01239 0.000524986 4.59972e-22)
(1.01139 0.000471232 -2.16121e-24)