/*--------------------------------*- C++ -*----------------------------------*\
| =========                 |                                                 |
| \\      /  F ield         | OpenFOAM: The Open Source CFD Toolbox           |
|  \\    /   O peration     | Version:  v2012                                 |
|   \\  /    A nd           | Website:  www.openfoam.com                      |
|    \\/     M anipulation  |                                                 |
\*---------------------------------------------------------------------------*/
FoamFile
{
    version     2.0;
    format      ascii;
    class       pointVectorField;
    location    "800";
    object      pointDisplacement;
}
// * * * * * * * * * * * * * * * * * * * * * * * * * * * * * * * * * * * * * //

dimensions      [0 1 0 0 0 0 0];


internalField   nonuniform List<vector> 
19270
(
(0 0 0)
(0 0 0)
(0 0 0)
(0 0 0)
(0 0 0)
(0 0 0)
(0 0 0)
(0 0 0)
(0 0 0)
(0 0 0)
(0 0 0)
(0 0 0)
(0 0 0)
(0 0 0)
(0 0 0)
(0 0 0)
(0 0 0)
(0 0 0)
(0 0 0)
(0 0 0)
(0 0 0)
(0 0 0)
(0 0 0)
(0 0 0)
(0 0 0)
(0 0 0)
(0 0 0)
(0 0 0)
(0 0 0)
(0 0 0)
(0 0 0)
(0 0 0)
(0 0 0)
(0 0 0)
(0 0 0)
(0 0 0)
(0 0 0)
(0 0 0)
(0 0 0)
(0 0 0)
(0 0 0)
(0 0 0)
(0 0 0)
(0 0 0)
(0 0 0)
(0 0 0)
(0 0 0)
(0 0 0)
(0 0 0)
(0 0 0)
(0 0 0)
(0 0 0)
(0 0 0)
(0 0 0)
(0 0 0)
(0 0 0)
(0 0 0)
(0 0 0)
(0 0 0)
(0 0 0)
(0 0 0)
(0 0 0)
(0 0 0)
(0 0 0)
(0 0 0)
(0 0 0)
(0 0 0)
(0 0 0)
(0 0 0)
(0 0 0)
(0 0 0)
(0 0 0)
(0 0 0)
(0 0 0)
(0 0 0)
(0 0 0)
(0 0 0)
(0 0 0)
(0 0 0)
(0 0 0)
(0 0 0)
(0 0 0)
(0 0 0)
(0 0 0)
(0 0 0)
(0 0 0)
(0 0 0)
(0 0 0)
(0 0 0)
(0 0 0)
(0 0 0)
(0 0 0)
(0 0 0)
(0 0 0)
(0 0 0)
(0 0 0)
(0 0 0)
(0 0 0)
(0 0 0)
(0 0 0)
(0 0 0)
(0 0 0)
(0 0 0)
(0 0 0)
(0 0 0)
(0 0 0)
(0 0 0)
(0 0 0)
(0 0 0)
(0 0 0)
(0 0 0)
(0 0 0)
(0 0 0)
(0 0 0)
(0 0 0)
(0 0 0)
(0 0 0)
(0 0 0)
(0 0 0)
(0 0 0)
(0 0 0)
(0 0 0)
(0 0 0)
(0 0 0)
(0 0 0)
(0 0 0)
(0 0 0)
(0 0 0)
(0 0 0)
(0 0 0)
(0 0 0)
(0 0 0)
(0 0 0)
(0 0 0)
(0 0 0)
(0 0 0)
(0 0 0)
(0 0 0)
(0 0 0)
(0 0 0)
(0 0 0)
(0 0 0)
(0 0 0)
(0 0 0)
(0 0 0)
(0 0 0)
(0 0 0)
(0 0 0)
(0 0 0)
(0 0 0)
(0 0 0)
(0 0 0)
(0 0 0)
(0 0 0)
(0 0 0)
(0 0 0)
(0 0 0)
(0 0 0)
(0 0 0)
(0 0 0)
(0 0 0)
(0 0 0)
(0 0 0)
(0 0 0)
(0 0 0)
(0 0 0)
(0 0 0)
(0 0 0)
(0 0 0)
(0 0 0)
(0 0 0)
(0 0 0)
(0 0 0)
(0 0 0)
(0 0 0)
(0 0 0)
(0 0 0)
(0 0 0)
(0 0 0)
(0 0 0)
(0 0 0)
(0 0 0)
(0 0 0)
(0 0 0)
(0 0 0)
(0 0 0)
(0 0 0)
(0 0 0)
(0 0 0)
(0 0 0)
(0 0 0)
(0 0 0)
(0 0 0)
(0 0 0)
(0 0 0)
(0 0 0)
(0 0 0)
(0 0 0)
(0 0 0)
(0 0 0)
(0 0 0)
(0 0 0)
(0 0 0)
(0 0 0)
(0 0 0)
(0 0 0)
(0 0 0)
(0 0 0)
(0 0 0)
(0 0 0)
(0 0 0)
(0 0 0)
(0 0 0)
(0 0 0)
(0 0 0)
(0 0 0)
(0 0 0)
(0 0 0)
(0 0 0)
(0 0 0)
(0 0 0)
(0 0 0)
(0 0 0)
(0 0 0)
(0 0 0)
(0 0 0)
(0 0 0)
(0 0 0)
(0 0 0)
(0 0 0)
(0 0 0)
(0 0 0)
(0 0 0)
(0 0 0)
(0 0 0)
(0 0 0)
(0 0 0)
(0 0 0)
(0 0 0)
(0 0 0)
(0 0 0)
(0 0 0)
(0 0 0)
(0 0 0)
(0 0 0)
(0 0 0)
(0 0 0)
(0 0 0)
(0 0 0)
(0 0 0)
(0 0 0)
(0 0 0)
(0 0 0)
(0 0 0)
(0 0 0)
(0 0 0)
(0 0 0)
(0 0 0)
(0 0 0)
(0 0 0)
(0 0 0)
(0 0 0)
(0 0 0)
(0 0 0)
(0 0 0)
(0 0 0)
(0 0 0)
(0 0 0)
(0 0 0)
(0 0 0)
(0 0 0)
(0 0 0)
(0 0 0)
(0 0 0)
(0 0 0)
(0 0 0)
(0 0 0)
(0 0 0)
(0 0 0)
(0 0 0)
(0 0 0)
(0 0 0)
(0 0 0)
(0 0 0)
(0 0 0)
(0 0 0)
(0 0 0)
(0 0 0)
(0 0 0)
(0 0 0)
(0 0 0)
(0 0 0)
(0 0 0)
(0 0 0)
(0 0 0)
(0 0 0)
(0 0 0)
(0 0 0)
(0 0 0)
(0 0 0)
(0 0 0)
(0 0 0)
(0 0 0)
(0 0 0)
(0 0 0)
(0 0 0)
(0 0 0)
(0 0 0)
(0 0 0)
(0 0 0)
(0 0 0)
(0 0 0)
(0 0 0)
(0 0 0)
(0 0 0)
(0 0 0)
(0 0 0)
(0 0 0)
(0 0 0)
(0 0 0)
(0 0 0)
(0 0 0)
(0 0 0)
(0 0 0)
(0 0 0)
(0 0 0)
(0 -4.74856e-06 0)
(0 -3.69422e-06 0)
(0 -4.61233e-06 0)
(0 -3.95113e-06 0)
(0 -4.23444e-06 0)
(0 -2.74628e-06 0)
(0 -3.03077e-06 0)
(0 -3.41887e-06 0)
(0 -1.62946e-06 0)
(0 -2.4642e-06 0)
(0 -6.15882e-07 0)
(0 -3.01661e-06 0)
(0 -7.84825e-08 0)
(0 -4.17256e-06 0)
(0 -2.2907e-06 0)
(0 -2.34068e-06 0)
(0 -1.94147e-06 0)
(0 -1.83414e-06 0)
(0 -4.48005e-06 0)
(0 -1.4963e-06 0)
(0 -1.22596e-06 0)
(0 -9.41545e-07 0)
(0 -1.16731e-07 0)
(0 -4.55278e-06 0)
(0 -3.67255e-06 0)
(0 -3.63489e-06 0)
(0 -2.90952e-06 0)
(0 -2.71222e-06 0)
(0 -8.45785e-07 0)
(0 -6.18879e-07 0)
(0 -2.60427e-06 0)
(0 -8.67161e-07 0)
(0 -1.57432e-07 0)
(0 -3.48213e-06 0)
(0 -1.9677e-06 0)
(0 -2.52118e-06 0)
(0 -3.3136e-06 0)
(0 -3.8408e-06 0)
(0 -2.96189e-06 0)
(0 -2.11828e-06 0)
(0 -5.48779e-07 0)
(0 -3.64534e-07 0)
(0 -1.47043e-06 0)
(0 -1.7149e-07 0)
(0 -2.81915e-06 0)
(0 -3.97594e-06 0)
(0 -3.00379e-06 0)
(0 -4.43815e-06 0)
(0 -3.80103e-06 0)
(0 -4.48355e-06 0)
(0 -3.67822e-07 0)
(0 -1.04107e-06 0)
(0 -1.36626e-06 0)
(0 -2.70827e-06 0)
(0 -2.75673e-06 0)
(0 -4.55563e-06 0)
(0 -3.52832e-06 0)
(0 -2.58104e-06 0)
(0 -4.88062e-06 0)
(0 -4.05402e-06 0)
(0 -3.9102e-06 0)
(0 -4.49928e-06 0)
(0 -2.9848e-06 0)
(0 -2.74596e-06 0)
(0 -2.70394e-06 0)
(0 -2.30052e-06 0)
(0 -1.72393e-06 0)
(0 -1.45606e-06 0)
(0 -9.8649e-07 0)
(0 -1.41999e-07 0)
(0 -8.745e-05 0)
(0 -0.000112806 0)
(0 -0.000127299 0)
(0 -0.0001304 0)
(0 -0.000133056 0)
(0 -0.00013526 0)
(0 -0.000136844 0)
(0 -0.000137905 0)
(0 -0.000138377 0)
(0 -0.000138242 0)
(0 -0.000137552 0)
(0 -0.000136237 0)
(0 -0.000134408 0)
(0 -0.000132127 0)
(0 -0.000129513 0)
(0 -0.000126529 0)
(0 -0.000123138 0)
(0 -0.000119166 0)
(0 -0.000114733 0)
(0 -0.000111766 0)
(0 -0.000110018 0)
(0 -0.000110412 0)
(0 -0.00010869 0)
(0 -0.000108992 0)
(0 -0.000107304 0)
(0 -0.000107521 0)
(0 -0.000105856 0)
(0 -0.000106 0)
(0 -0.000104349 0)
(0 -0.000104409 0)
(0 -0.000102774 0)
(0 -0.000102642 0)
(0 -0.000102762 0)
(0 -0.000101125 0)
(0 -0.000101045 0)
(0 -9.93777e-05 0)
(0 -9.92337e-05 0)
(0 -0.000100831 0)
(0 -9.89527e-05 0)
(0 -0.000100482 0)
(0 -9.73687e-05 0)
(0 -9.70316e-05 0)
(0 -9.5432e-05 0)
(0 -9.50695e-05 0)
(0 -9.34679e-05 0)
(0 -9.30313e-05 0)
(0 -5.41671e-05 0)
(0 -5.17356e-05 0)
(0 -5.33337e-05 0)
(0 -5.09719e-05 0)
(0 -5.23687e-05 0)
(0 -5.01975e-05 0)
(0 -5.16153e-05 0)
(0 -4.94876e-05 0)
(0 -5.10237e-05 0)
(0 -4.88257e-05 0)
(0 -5.03679e-05 0)
(0 -4.81805e-05 0)
(0 -4.97316e-05 0)
(0 -4.75455e-05 0)
(0 -4.91513e-05 0)
(0 -4.69376e-05 0)
(0 -4.85484e-05 0)
(0 -4.63968e-05 0)
(0 -4.79989e-05 0)
(0 -4.59175e-05 0)
(0 -4.74774e-05 0)
(0 -4.53803e-05 0)
(0 -4.69797e-05 0)
(0 -4.48851e-05 0)
(0 -4.64805e-05 0)
(0 -4.41705e-05 0)
(0 -4.60311e-05 0)
(0 -4.40656e-05 0)
(0 -4.56847e-05 0)
(0 -4.37157e-05 0)
(0 -4.53559e-05 0)
(0 -4.33699e-05 0)
(0 -4.50268e-05 0)
(0 -4.30485e-05 0)
(0 -4.47001e-05 0)
(0 -4.2716e-05 0)
(0 -4.43834e-05 0)
(0 -4.24459e-05 0)
(0 -4.41192e-05 0)
(0 -4.22137e-05 0)
(0 -4.38519e-05 0)
(0 -4.19539e-05 0)
(0 -4.35907e-05 0)
(0 -4.16938e-05 0)
(0 -4.58926e-05 0)
(0 -4.34031e-05 0)
(0 -4.15352e-05 0)
(0 -3.97303e-05 0)
(0 -3.98152e-05 0)
(0 -3.7911e-05 0)
(0 -3.80934e-05 0)
(0 -3.62151e-05 0)
(0 -3.60902e-05 0)
(0 -3.45687e-05 0)
(0 -3.4413e-05 0)
(0 -3.29608e-05 0)
(0 -3.28335e-05 0)
(0 -3.13957e-05 0)
(0 -3.13388e-05 0)
(0 -2.98709e-05 0)
(0 -2.98833e-05 0)
(0 -2.84375e-05 0)
(0 -2.85034e-05 0)
(0 -2.70969e-05 0)
(0 -2.7223e-05 0)
(0 -2.58257e-05 0)
(0 -2.59712e-05 0)
(0 -2.46193e-05 0)
(0 -2.47839e-05 0)
(0 -2.34745e-05 0)
(0 -2.36558e-05 0)
(0 -2.23746e-05 0)
(0 -2.25741e-05 0)
(0 -2.13309e-05 0)
(0 -2.15407e-05 0)
(0 -2.03428e-05 0)
(0 -2.05547e-05 0)
(0 -1.94022e-05 0)
(0 -1.96291e-05 0)
(0 -1.85212e-05 0)
(0 -1.87746e-05 0)
(0 -1.77132e-05 0)
(0 -1.79935e-05 0)
(0 -1.69662e-05 0)
(0 -1.72688e-05 0)
(0 -1.62648e-05 0)
(0 -1.65785e-05 0)
(0 -1.55733e-05 0)
(0 -1.59324e-05 0)
(0 -1.49282e-05 0)
(0 -1.53844e-05 0)
(0 -1.433e-05 0)
(0 -1.46621e-05 0)
(0 -1.37499e-05 0)
(0 -1.4119e-05 0)
(0 -1.32309e-05 0)
(0 -1.3683e-05 0)
(0 -1.27523e-05 0)
(0 -1.31267e-05 0)
(0 -1.23039e-05 0)
(0 -4.32854e-05 0)
(0 -3.13634e-05 0)
(0 -2.2757e-05 0)
(0 -4.4409e-05 0)
(0 -2.69353e-05 0)
(0 -1.68366e-05 0)
(0 -1.35244e-05 0)
(0 -2.10668e-05 0)
(0 -1.33262e-05 0)
(0 -1.66422e-05 0)
(0 -9.12353e-05 0)
(0 -9.09363e-05 0)
(0 -8.92427e-05 0)
(0 -8.88448e-05 0)
(0 -8.72405e-05 0)
(0 -8.76552e-05 0)
(0 -8.67052e-05 0)
(0 -8.82601e-05 0)
(0 -8.51412e-05 0)
(0 -8.45066e-05 0)
(0 -8.29363e-05 0)
(0 -8.22467e-05 0)
(0 -8.06641e-05 0)
(0 -7.99706e-05 0)
(0 -7.8392e-05 0)
(0 -7.76723e-05 0)
(0 -7.60872e-05 0)
(0 -7.53291e-05 0)
(0 -4.77139e-05 0)
(0 -7.37107e-05 0)
(0 -7.44125e-05 0)
(0 -7.29207e-05 0)
(0 -7.44643e-05 0)
(0 -7.20088e-05 0)
(0 -7.34668e-05 0)
(0 -7.0492e-05 0)
(0 -6.95449e-05 0)
(0 -6.80488e-05 0)
(0 -6.70786e-05 0)
(0 -6.56029e-05 0)
(0 -6.46155e-05 0)
(0 -6.31614e-05 0)
(0 -6.21521e-05 0)
(0 -6.07227e-05 0)
(0 -5.96783e-05 0)
(0 -6.10399e-05 0)
(0 -5.82798e-05 0)
(0 -5.72194e-05 0)
(0 -5.93078e-05 0)
(0 -5.58377e-05 0)
(0 -5.47735e-05 0)
(0 -4.22197e-05 0)
(0 -5.34118e-05 0)
(0 -5.23351e-05 0)
(0 -5.09877e-05 0)
(0 -4.99004e-05 0)
(0 -4.85646e-05 0)
(0 -4.7466e-05 0)
(0 -4.87172e-05 0)
(0 -4.62766e-05 0)
(0 -4.74192e-05 0)
(0 -4.50634e-05 0)
(0 -5.02605e-05 0)
(0 -4.3882e-05 0)
(0 -4.26961e-05 0)
(0 -4.15394e-05 0)
(0 -4.0367e-05 0)
(0 -3.92272e-05 0)
(0 -3.80748e-05 0)
(0 -3.69443e-05 0)
(0 -4.66082e-05 0)
(0 -2.86824e-06 0)
(0 -3.43361e-06 0)
(0 -3.16431e-06 0)
(0 -3.7685e-06 0)
(0 -3.49636e-06 0)
(0 -4.22637e-06 0)
(0 -3.84513e-06 0)
(0 -4.52301e-06 0)
(0 -4.1989e-06 0)
(0 -4.89887e-06 0)
(0 -4.58391e-06 0)
(0 -5.32689e-06 0)
(0 -5.00925e-06 0)
(0 -5.7994e-06 0)
(0 -5.46976e-06 0)
(0 -4.69359e-06 0)
(0 -5.15008e-06 0)
(0 -4.39711e-06 0)
(0 -4.85113e-06 0)
(0 -4.11812e-06 0)
(0 -4.58647e-06 0)
(0 -3.89055e-06 0)
(0 -4.34444e-06 0)
(0 -3.60526e-06 0)
(0 -4.13019e-06 0)
(0 -3.48384e-06 0)
(0 -3.95359e-06 0)
(0 -3.32458e-06 0)
(0 -3.7985e-06 0)
(0 -3.18753e-06 0)
(0 -3.67764e-06 0)
(0 -3.09736e-06 0)
(0 -5.05708e-06 0)
(0 -3.58545e-06 0)
(0 -3.02214e-06 0)
(0 -3.50969e-06 0)
(0 -2.94785e-06 0)
(0 -4.11817e-06 0)
(0 -5.17134e-06 0)
(0 -3.45234e-06 0)
(0 -2.91677e-06 0)
(0 -3.4199e-06 0)
(0 -2.89618e-06 0)
(0 -3.4148e-06 0)
(0 -2.90783e-06 0)
(0 -3.43883e-06 0)
(0 -2.95511e-06 0)
(0 -3.4876e-06 0)
(0 -3.01587e-06 0)
(0 -4.0089e-06 0)
(0 -2.58361e-06 0)
(0 -3.55882e-06 0)
(0 -3.09639e-06 0)
(0 -3.65449e-06 0)
(0 -3.19793e-06 0)
(0 -2.66386e-06 0)
(0 -2.78134e-06 0)
(0 -2.27527e-06 0)
(0 -2.40426e-06 0)
(0 -1.92413e-06 0)
(0 -2.05364e-06 0)
(0 -1.54083e-06 0)
(0 -1.7399e-06 0)
(0 -1.30806e-06 0)
(0 -1.46702e-06 0)
(0 -1.06837e-06 0)
(0 -1.21293e-06 0)
(0 -8.39516e-07 0)
(0 -9.87885e-07 0)
(0 -6.44674e-07 0)
(0 -7.93225e-07 0)
(0 -4.70857e-07 0)
(0 -1.60161e-06 0)
(0 -3.3188e-06 0)
(0 -9.18053e-07 0)
(0 -2.84679e-06 0)
(0 -2.43481e-06 0)
(0 -6.29133e-06 0)
(0 -3.58211e-05 0)
(0 -3.69277e-05 0)
(0 -4.96204e-05 0)
(0 -3.80721e-05 0)
(0 -3.46872e-05 0)
(0 -3.35849e-05 0)
(0 -3.24545e-05 0)
(0 -3.13733e-05 0)
(0 -3.02399e-05 0)
(0 -2.91873e-05 0)
(0 -4.84703e-05 0)
(0 -5.08865e-05 0)
(0 -4.90184e-05 0)
(0 -5.1397e-05 0)
(0 -4.94801e-05 0)
(0 -2.80628e-05 0)
(0 -2.8977e-05 0)
(0 -4.70996e-05 0)
(0 -4.75177e-05 0)
(0 -4.98645e-05 0)
(0 -4.78624e-05 0)
(0 -1.51206e-05 0)
(0 -1.54388e-05 0)
(0 -1.60799e-05 0)
(0 -1.64124e-05 0)
(0 -1.5674e-05 0)
(0 -1.66505e-05 0)
(0 -1.73768e-05 0)
(0 -1.75864e-05 0)
(0 -1.83092e-05 0)
(0 -1.8482e-05 0)
(0 -1.92148e-05 0)
(0 -1.93711e-05 0)
(0 -2.01178e-05 0)
(0 -2.03145e-05 0)
(0 -1.95006e-05 0)
(0 -2.04888e-05 0)
(0 -2.13502e-05 0)
(0 -2.15552e-05 0)
(0 -2.245e-05 0)
(0 -2.26609e-05 0)
(0 -2.35466e-05 0)
(0 -2.37654e-05 0)
(0 -2.46533e-05 0)
(0 -2.48691e-05 0)
(0 -2.58002e-05 0)
(0 -2.59949e-05 0)
(0 -2.49493e-05 0)
(0 -2.608e-05 0)
(0 -2.71383e-05 0)
(0 -2.72789e-05 0)
(0 -2.83618e-05 0)
(0 -2.85912e-05 0)
(0 -2.97047e-05 0)
(0 -3.00361e-05 0)
(0 -3.11776e-05 0)
(0 -3.16153e-05 0)
(0 -3.03703e-05 0)
(0 -3.20376e-05 0)
(0 -3.32888e-05 0)
(0 -3.37809e-05 0)
(0 -3.50348e-05 0)
(0 -3.55859e-05 0)
(0 -3.68539e-05 0)
(0 -3.74413e-05 0)
(0 -3.8706e-05 0)
(0 -3.93131e-05 0)
(0 -4.05708e-05 0)
(0 -4.11987e-05 0)
(0 -4.2479e-05 0)
(0 -4.31317e-05 0)
(0 -4.44516e-05 0)
(0 -4.51211e-05 0)
(0 -4.6481e-05 0)
(0 -4.71505e-05 0)
(0 -4.85385e-05 0)
(0 -4.92104e-05 0)
(0 -5.06133e-05 0)
(0 -5.13002e-05 0)
(0 -5.27409e-05 0)
(0 -5.34522e-05 0)
(0 -5.49631e-05 0)
(0 -5.56939e-05 0)
(0 -5.72661e-05 0)
(0 -5.80127e-05 0)
(0 -5.96077e-05 0)
(0 -6.03571e-05 0)
(0 -6.19579e-05 0)
(0 -6.27101e-05 0)
(0 -6.43066e-05 0)
(0 -6.50613e-05 0)
(0 -6.66327e-05 0)
(0 -6.74078e-05 0)
(0 -6.89647e-05 0)
(0 -6.97692e-05 0)
(0 -7.13198e-05 0)
(0 -7.21294e-05 0)
(0 -7.36516e-05 0)
(0 -7.44423e-05 0)
(0 -7.59954e-05 0)
(0 -7.67446e-05 0)
(0 -7.8344e-05 0)
(0 -7.90497e-05 0)
(0 -8.071e-05 0)
(0 -8.1404e-05 0)
(0 -8.31437e-05 0)
(0 -8.38412e-05 0)
(0 -8.56764e-05 0)
(0 -8.63666e-05 0)
(0 -8.44156e-05 0)
(0 -8.68938e-05 0)
(0 -8.89092e-05 0)
(0 -8.93639e-05 0)
(0 -9.13816e-05 0)
(0 -9.18098e-05 0)
(0 -8.96785e-05 0)
(0 -9.21009e-05 0)
(0 -9.42415e-05 0)
(0 -9.44732e-05 0)
(0 -8.23946e-05 0)
(0 -9.22106e-05 0)
(0 -9.4482e-05 0)
(0 -9.67521e-05 0)
(0 -9.66687e-05 0)
(0 -9.8977e-05 0)
(0 -9.88158e-05 0)
(0 -9.63994e-05 0)
(0 -9.8481e-05 0)
(0 -0.00010092 0)
(0 -0.000100506 0)
(0 -0.000102933 0)
(0 -0.000102477 0)
(0 -0.000100017 0)
(0 -0.000101892 0)
(0 -7.30684e-05 0)
(0 -0.000104422 0)
(0 -0.000103758 0)
(0 -0.000101181 0)
(0 -0.000102996 0)
(0 -0.00010562 0)
(0 -0.000104806 0)
(0 -0.000107409 0)
(0 -0.000106556 0)
(0 -0.000103874 0)
(0 -0.000105596 0)
(0 -0.000108235 0)
(0 -0.000107268 0)
(0 -0.000104557 0)
(0 -0.00010618 0)
(0 -0.000108851 0)
(0 -0.000107704 0)
(0 -0.000110335 0)
(0 -0.000109147 0)
(0 -0.000106441 0)
(0 -0.000107817 0)
(0 -0.000110491 0)
(0 -0.00010907 0)
(0 -0.000111637 0)
(0 -0.000110223 0)
(0 -0.000107498 0)
(0 -0.000108668 0)
(0 -0.000111349 0)
(0 -0.000109792 0)
(0 -6.11393e-05 0)
(0 -0.000106952 0)
(0 -0.000108064 0)
(0 -0.000110856 0)
(0 -0.000109137 0)
(0 -0.000111854 0)
(0 -0.000110156 0)
(0 -0.00010735 0)
(0 -0.000108389 0)
(0 -0.000110983 0)
(0 -0.000109277 0)
(0 -0.000106507 0)
(0 -0.000107442 0)
(0 -0.000110129 0)
(0 -0.00010827 0)
(0 -0.00011091 0)
(0 -0.000109 0)
(0 -0.000106183 0)
(0 -0.000106878 0)
(0 -0.00010963 0)
(0 -0.000107486 0)
(0 -0.00011016 0)
(0 -0.000108053 0)
(0 -0.000105313 0)
(0 -0.000105897 0)
(0 -0.00010873 0)
(0 -0.000106503 0)
(0 -0.000103698 0)
(0 -0.00010418 0)
(0 -0.000106912 0)
(0 -0.00010451 0)
(0 -0.000107142 0)
(0 -0.000104803 0)
(0 -0.000101765 0)
(0 -0.000102502 0)
(0 -0.000105101 0)
(0 -0.000102732 0)
(0 -0.000100165 0)
(0 -0.000100276 0)
(0 -0.000102897 0)
(0 -0.000100439 0)
(0 -4.98728e-05 0)
(0 -9.77805e-05 0)
(0 -9.79628e-05 0)
(0 -0.000102977 0)
(0 -9.52391e-05 0)
(0 -9.54273e-05 0)
(0 -3.9934e-05 0)
(0 -9.26241e-05 0)
(0 -9.28395e-05 0)
(0 -8.99374e-05 0)
(0 -9.01827e-05 0)
(0 -7.04526e-05 0)
(0 -8.71698e-05 0)
(0 -8.74236e-05 0)
(0 -8.68526e-05 0)
(0 -9.03401e-05 0)
(0 -8.75783e-05 0)
(0 -9.03933e-05 0)
(0 -8.76509e-05 0)
(0 -8.47718e-05 0)
(0 -8.48416e-05 0)
(0 -3.0782e-05 0)
(0 -8.7679e-05 0)
(0 -8.48856e-05 0)
(0 -8.19844e-05 0)
(0 -8.20615e-05 0)
(0 -7.91099e-05 0)
(0 -7.92396e-05 0)
(0 -8.7641e-05 0)
(0 -1.96099e-05 0)
(0 -7.62434e-05 0)
(0 -7.64202e-05 0)
(0 -7.33703e-05 0)
(0 -7.35697e-05 0)
(0 -7.65585e-05 0)
(0 -7.37361e-05 0)
(0 -7.06944e-05 0)
(0 -7.08886e-05 0)
(0 -7.66454e-05 0)
(0 -6.77997e-05 0)
(0 -6.80312e-05 0)
(0 -6.10915e-05 0)
(0 -6.49087e-05 0)
(0 -6.51641e-05 0)
(0 -4.17784e-05 0)
(0 -6.20112e-05 0)
(0 -6.22734e-05 0)
(0 -6.16929e-05 0)
(0 -6.53315e-05 0)
(0 -6.24589e-05 0)
(0 -3.0699e-05 0)
(0 -0.000109152 0)
(0 -5.93805e-05 0)
(0 -5.95887e-05 0)
(0 -5.20091e-05 0)
(0 -2.70487e-05 0)
(0 -2.80753e-05 0)
(0 -2.5957e-05 0)
(0 -4.55151e-05 0)
(0 -4.58328e-05 0)
(0 -3.31016e-05 0)
(0 -2.54432e-05 0)
(0 -6.54208e-05 0)
(0 -5.01757e-05 0)
(0 -5.65034e-05 0)
(0 -5.67299e-05 0)
(0 -7.31693e-05 0)
(0 -2.49842e-05 0)
(0 -2.39209e-05 0)
(0 -4.34845e-05 0)
(0 -4.37788e-05 0)
(0 -5.28265e-05 0)
(0 -1.98733e-05 0)
(0 -5.36413e-05 0)
(0 -5.38725e-05 0)
(0 -2.29812e-05 0)
(0 -2.19533e-05 0)
(0 -4.14229e-05 0)
(0 -4.16934e-05 0)
(0 -5.07725e-05 0)
(0 -5.10069e-05 0)
(0 -5.40196e-05 0)
(0 -5.11686e-05 0)
(0 -5.40783e-05 0)
(0 -5.12467e-05 0)
(0 -4.83488e-05 0)
(0 -4.84403e-05 0)
(0 -4.55512e-05 0)
(0 -4.56517e-05 0)
(0 -4.84336e-05 0)
(0 -4.56702e-05 0)
(0 -2.10302e-05 0)
(0 -2.00454e-05 0)
(0 -2.08443e-05 0)
(0 -3.93302e-05 0)
(0 -3.95818e-05 0)
(0 -4.19027e-05 0)
(0 -3.97728e-05 0)
(0 -3.90252e-05 0)
(0 -4.20502e-05 0)
(0 -3.99014e-05 0)
(0 -4.21342e-05 0)
(0 -3.99712e-05 0)
(0 -5.17859e-06 0)
(0 -5.77654e-06 0)
(0 -5.52274e-06 0)
(0 -6.14671e-06 0)
(0 -5.90609e-06 0)
(0 -6.5512e-06 0)
(0 -6.31129e-06 0)
(0 -6.98632e-06 0)
(0 -6.75573e-06 0)
(0 -7.45749e-06 0)
(0 -7.25847e-06 0)
(0 -7.96966e-06 0)
(0 -7.75102e-06 0)
(0 -8.49392e-06 0)
(0 -8.25961e-06 0)
(0 -3.77335e-05 0)
(0 -3.77957e-05 0)
(0 -4.29036e-05 0)
(0 -4.29537e-05 0)
(0 -9.06228e-06 0)
(0 -8.84215e-06 0)
(0 -5.04685e-05 0)
(0 -9.66972e-06 0)
(0 -9.47992e-06 0)
(0 -1.58283e-05 0)
(0 -2.49412e-05 0)
(0 -1.89604e-05 0)
(0 -1.94896e-05 0)
(0 -1.82083e-05 0)
(0 -1.03139e-05 0)
(0 -1.01614e-05 0)
(0 -1.10216e-05 0)
(0 -1.08906e-05 0)
(0 -1.18165e-05 0)
(0 -1.16793e-05 0)
(0 -4.2154e-05 0)
(0 -4.02126e-05 0)
(0 -4.02959e-05 0)
(0 -3.55505e-05 0)
(0 -3.56071e-05 0)
(0 -4.83307e-05 0)
(0 -3.69222e-05 0)
(0 -3.6579e-05 0)
(0 -1.76559e-05 0)
(0 -1.90666e-05 0)
(0 -1.8409e-05 0)
(0 -1.98383e-05 0)
(0 -1.91778e-05 0)
(0 -2.06659e-05 0)
(0 -1.99736e-05 0)
(0 -2.15489e-05 0)
(0 -2.08103e-05 0)
(0 -2.24237e-05 0)
(0 -2.16866e-05 0)
(0 -2.01137e-05 0)
(0 -2.09937e-05 0)
(0 -1.94739e-05 0)
(0 -2.02861e-05 0)
(0 -2.19148e-05 0)
(0 -2.12285e-05 0)
(0 -1.95984e-05 0)
(0 -2.05786e-05 0)
(0 -1.9015e-05 0)
(0 -1.99646e-05 0)
(0 -1.84522e-05 0)
(0 -1.93873e-05 0)
(0 -1.78709e-05 0)
(0 -1.88495e-05 0)
(0 -1.73318e-05 0)
(0 -1.83493e-05 0)
(0 -1.68756e-05 0)
(0 -1.78961e-05 0)
(0 -1.647e-05 0)
(0 -1.75023e-05 0)
(0 -1.61539e-05 0)
(0 -1.71714e-05 0)
(0 -2.04006e-05 0)
(0 -1.85804e-05 0)
(0 -1.82529e-05 0)
(0 -1.9713e-05 0)
(0 -1.93679e-05 0)
(0 -2.03897e-05 0)
(0 -1.59214e-05 0)
(0 -2.2887e-05 0)
(0 -2.08661e-05 0)
(0 -2.04786e-05 0)
(0 -6.39975e-06 0)
(0 -1.71655e-05 0)
(0 -1.64514e-05 0)
(0 -1.26629e-05 0)
(0 -3.75883e-05 0)
(0 -3.76973e-05 0)
(0 -3.33574e-05 0)
(0 -3.34093e-05 0)
(0 -2.20343e-05 0)
(0 -2.16155e-05 0)
(0 1.77541e-06 0)
(0 1.70396e-06 0)
(0 1.77354e-06 0)
(0 1.70079e-06 0)
(0 1.76827e-06 0)
(0 1.69747e-06 0)
(0 1.76106e-06 0)
(0 1.68797e-06 0)
(0 1.75012e-06 0)
(0 1.67353e-06 0)
(0 1.7473e-06 0)
(0 1.65664e-06 0)
(0 1.72443e-06 0)
(0 1.63449e-06 0)
(0 1.70731e-06 0)
(0 1.61223e-06 0)
(0 1.68546e-06 0)
(0 1.58853e-06 0)
(0 1.65939e-06 0)
(0 1.56097e-06 0)
(0 1.63338e-06 0)
(0 1.53148e-06 0)
(0 1.62157e-06 0)
(0 1.49437e-06 0)
(0 1.57038e-06 0)
(0 1.44483e-06 0)
(0 1.51777e-06 0)
(0 1.3615e-06 0)
(0 1.49673e-06 0)
(0 1.39167e-06 0)
(0 1.46404e-06 0)
(0 1.60082e-06 0)
(0 1.33247e-06 0)
(0 1.40892e-06 0)
(0 1.26358e-06 0)
(0 1.34643e-06 0)
(0 1.49274e-06 0)
(0 1.41808e-06 0)
(0 1.26952e-06 0)
(0 1.34261e-06 0)
(0 1.47639e-06 0)
(0 1.40188e-06 0)
(0 1.52718e-06 0)
(0 1.44775e-06 0)
(0 1.56707e-06 0)
(0 1.48442e-06 0)
(0 1.59577e-06 0)
(0 1.34982e-06 0)
(0 1.51206e-06 0)
(0 1.61942e-06 0)
(0 1.53339e-06 0)
(0 1.63515e-06 0)
(0 -2.35103e-06 0)
(0 -8.19849e-06 0)
(0 -0.000126043 0)
(0 -3.44678e-05 0)
(0 -3.40916e-05 0)
(0 -1.25248e-05 0)
(0 -1.35515e-05 0)
(0 1.71398e-06 0)
(0 -1.54567e-05 0)
(0 -1.47707e-05 0)
(0 -3.35675e-06 0)
(0 -3.50143e-05 0)
(0 -3.51461e-05 0)
(0 -3.47997e-05 0)
(0 -3.77151e-05 0)
(0 -3.51944e-05 0)
(0 -1.15437e-05 0)
(0 -2.32237e-05 0)
(0 -2.36347e-05 0)
(0 -2.28071e-05 0)
(0 -3.11564e-05 0)
(0 -3.12086e-05 0)
(0 -3.34067e-05 0)
(0 -3.12105e-05 0)
(0 -3.3348e-05 0)
(0 -3.11576e-05 0)
(0 -3.3235e-05 0)
(0 -3.10526e-05 0)
(0 -3.2643e-05 0)
(0 -3.27226e-05 0)
(0 -1.51283e-05 0)
(0 1.78885e-06 0)
(0 -1.56961e-05 0)
(0 -2.89767e-05 0)
(0 -2.8881e-05 0)
(0 -3.30734e-05 0)
(0 -4.86193e-05 0)
(0 -1.24091e-05 0)
(0 -1.14248e-05 0)
(0 1.66718e-06 0)
(0 -1.38294e-05 0)
(0 -5.27141e-06 0)
(0 -1.70555e-05 0)
(0 1.18846e-06 0)
(0 -9.36092e-05 0)
(0 -1.56407e-05 0)
(0 -2.19571e-05 0)
(0 -8.13204e-05 0)
(0 -1.44009e-05 0)
(0 -0.000106945 0)
(0 -9.45842e-05 0)
(0 -3.51775e-05 0)
(0 -3.27293e-05 0)
(0 -3.0304e-05 0)
(0 -3.03391e-05 0)
(0 -2.44428e-05 0)
(0 -3.19689e-05 0)
(0 -3.15662e-05 0)
(0 -3.73914e-05 0)
(0 -1.31421e-05 0)
(0 -4.53689e-05 0)
(0 -4.49776e-05 0)
(0 -4.69885e-05 0)
(0 -4.66069e-05 0)
(0 -4.86413e-05 0)
(0 -4.81409e-05 0)
(0 -5.0281e-05 0)
(0 -4.99054e-05 0)
(0 -5.19095e-05 0)
(0 -5.1416e-05 0)
(0 -4.94615e-05 0)
(0 -5.34674e-05 0)
(0 -5.40198e-05 0)
(0 -5.5578e-05 0)
(0 -5.61873e-05 0)
(0 -5.7737e-05 0)
(0 -5.83964e-05 0)
(0 -5.99163e-05 0)
(0 -6.06665e-05 0)
(0 -6.21156e-05 0)
(0 -6.29556e-05 0)
(0 -6.43216e-05 0)
(0 -6.51619e-05 0)
(0 -6.65676e-05 0)
(0 -6.74636e-05 0)
(0 -6.88493e-05 0)
(0 -6.97786e-05 0)
(0 -7.11636e-05 0)
(0 -7.21098e-05 0)
(0 -7.35099e-05 0)
(0 -7.44612e-05 0)
(0 -7.30525e-05 0)
(0 -7.54028e-05 0)
(0 -7.68483e-05 0)
(0 -7.78317e-05 0)
(0 -7.92987e-05 0)
(0 -8.03232e-05 0)
(0 -8.17878e-05 0)
(0 -8.28369e-05 0)
(0 -8.42971e-05 0)
(0 -8.53734e-05 0)
(0 -8.68386e-05 0)
(0 -7.63721e-05 0)
(0 -8.79219e-05 0)
(0 -8.93994e-05 0)
(0 -9.04782e-05 0)
(0 -9.19272e-05 0)
(0 -9.30149e-05 0)
(0 -9.4399e-05 0)
(0 -9.54757e-05 0)
(0 -9.68128e-05 0)
(0 -8.64154e-05 0)
(0 -9.78834e-05 0)
(0 -9.91864e-05 0)
(0 -0.000100276 0)
(0 -0.00010154 0)
(0 -9.65432e-05 0)
(0 -0.000102645 0)
(0 -0.000103869 0)
(0 -0.000104967 0)
(0 -0.000106159 0)
(0 -0.000107255 0)
(0 -0.000108438 0)
(0 -0.000107313 0)
(0 -0.000109567 0)
(0 -0.000108407 0)
(0 -0.000110626 0)
(0 -0.00011179 0)
(0 -0.000112802 0)
(0 -0.000111631 0)
(0 -0.000113729 0)
(0 -0.000114891 0)
(0 -0.000115738 0)
(0 -0.000116878 0)
(0 -0.000117673 0)
(0 -9.81042e-05 0)
(0 -0.000118769 0)
(0 -0.000119513 0)
(0 -0.0001184 0)
(0 -0.00012018 0)
(0 -0.000121265 0)
(0 -0.000121849 0)
(0 -0.000120742 0)
(0 -0.000122342 0)
(0 -0.000123423 0)
(0 -0.000123879 0)
(0 -0.00012491 0)
(0 -0.000125355 0)
(0 -0.00012427 0)
(0 -0.000125718 0)
(0 -0.000126781 0)
(0 -0.000127075 0)
(0 -0.000125934 0)
(0 -0.000127218 0)
(0 -0.000128365 0)
(0 -0.000128448 0)
(0 -0.000129585 0)
(0 -0.000129635 0)
(0 -0.000128416 0)
(0 -0.000129561 0)
(0 -0.000130796 0)
(0 -0.000130664 0)
(0 -0.000131898 0)
(0 -0.000131724 0)
(0 -0.000130436 0)
(0 -0.000131429 0)
(0 -0.000132719 0)
(0 -0.000132341 0)
(0 -0.000133597 0)
(0 -0.000133171 0)
(0 -0.000131873 0)
(0 -0.000132636 0)
(0 -0.00013392 0)
(0 -0.000133309 0)
(0 -5.49909e-05 0)
(0 -0.000134544 0)
(0 -0.000133888 0)
(0 -0.000132586 0)
(0 -0.000133124 0)
(0 -0.000134375 0)
(0 -0.00013356 0)
(0 -0.000132242 0)
(0 -0.00013263 0)
(0 -0.000133912 0)
(0 -0.000132941 0)
(0 -0.000134154 0)
(0 -0.000133165 0)
(0 -6.37724e-05 0)
(0 -0.000131912 0)
(0 -0.000132105 0)
(0 -0.000133323 0)
(0 -0.000132211 0)
(0 -0.000133382 0)
(0 -0.000132249 0)
(0 -0.000131046 0)
(0 -0.000131083 0)
(0 -0.00013221 0)
(0 -0.000130976 0)
(0 -0.000106021 0)
(0 -0.000132046 0)
(0 -0.000130735 0)
(0 -0.000129488 0)
(0 -0.000129321 0)
(0 -0.000130455 0)
(0 -0.000129011 0)
(0 -8.83489e-05 0)
(0 -0.000127818 0)
(0 -0.000127467 0)
(0 -0.000128628 0)
(0 -0.000127075 0)
(0 -0.000128177 0)
(0 -0.000126631 0)
(0 -0.00012547 0)
(0 -0.000125017 0)
(0 -0.000126143 0)
(0 -0.000124514 0)
(0 -6.34537e-05 0)
(0 -0.000125577 0)
(0 -0.000123941 0)
(0 -0.000122815 0)
(0 -0.000122239 0)
(0 -0.000123301 0)
(0 -0.000121589 0)
(0 -0.000120485 0)
(0 -0.000119826 0)
(0 -0.000118661 0)
(0 -0.000117997 0)
(0 -0.000119097 0)
(0 -0.000117285 0)
(0 -0.00011611 0)
(0 -0.000115424 0)
(0 -0.000116537 0)
(0 -0.000114675 0)
(0 -0.000113491 0)
(0 -0.000112725 0)
(0 -0.000111468 0)
(0 -0.00011069 0)
(0 -0.000111888 0)
(0 -0.000109828 0)
(0 -0.000108564 0)
(0 -0.000107672 0)
(0 -0.000106375 0)
(0 -0.00010548 0)
(0 -0.00010414 0)
(0 -0.00010332 0)
(0 -0.00010192 0)
(0 -0.000101084 0)
(0 -9.96814e-05 0)
(0 -9.87597e-05 0)
(0 -0.000117955 0)
(0 -8.07601e-05 0)
(0 -7.25352e-05 0)
(0 -0.000112531 0)
(0 -6.63625e-06 0)
(0 -7.15735e-06 0)
(0 -0.000127036 0)
(0 -2.61607e-05 0)
(0 -4.66292e-05 0)
(0 -2.3206e-05 0)
(0 -1.89896e-05 0)
(0 -1.18406e-05 0)
(0 -0.000110961 0)
(0 -1.49127e-05 0)
(0 -9.91114e-06 0)
(0 -9.73462e-05 0)
(0 -9.64256e-05 0)
(0 -2.79408e-05 0)
(0 -2.80079e-05 0)
(0 -0.000125716 0)
(0 1.82209e-06 0)
(0 -2.89529e-05 0)
(0 -4.45887e-06 0)
(0 -0.000104767 0)
(0 -1.23176e-05 0)
(0 -1.13301e-05 0)
(0 1.17182e-06 0)
(0 -2.40367e-05 0)
(0 -2.68079e-05 0)
(0 -2.67231e-05 0)
(0 -9.49951e-05 0)
(0 -9.40674e-05 0)
(0 -9.2597e-05 0)
(0 -9.16654e-05 0)
(0 -1.22568e-05 0)
(0 -9.00941e-05 0)
(0 -8.92302e-05 0)
(0 -6.55944e-06 0)
(0 -1.15864e-05 0)
(0 -2.56787e-05 0)
(0 -7.52798e-06 0)
(0 -8.07345e-06 0)
(0 -8.40172e-05 0)
(0 -8.36095e-05 0)
(0 -8.07226e-05 0)
(0 -8.02029e-05 0)
(0 -7.72869e-05 0)
(0 -7.67041e-05 0)
(0 -7.36948e-05 0)
(0 -7.30408e-05 0)
(0 -6.99468e-05 0)
(0 -6.91953e-05 0)
(0 -6.60386e-05 0)
(0 -6.52003e-05 0)
(0 -6.83936e-05 0)
(0 -6.43182e-05 0)
(0 -6.7535e-05 0)
(0 -6.33575e-05 0)
(0 -6.6555e-05 0)
(0 -6.23028e-05 0)
(0 -6.54763e-05 0)
(0 -6.11601e-05 0)
(0 -6.4333e-05 0)
(0 -6.20034e-05 0)
(0 -5.99424e-05 0)
(0 -6.31059e-05 0)
(0 -5.86692e-05 0)
(0 -6.18454e-05 0)
(0 -5.73451e-05 0)
(0 -6.05589e-05 0)
(0 -5.79958e-05 0)
(0 -5.59451e-05 0)
(0 -5.91412e-05 0)
(0 -6.36618e-05 0)
(0 -6.22443e-05 0)
(0 -5.76048e-05 0)
(0 -6.06937e-05 0)
(0 -5.60059e-05 0)
(0 -5.90929e-05 0)
(0 -6.37098e-05 0)
(0 -6.21694e-05 0)
(0 -5.75073e-05 0)
(0 -6.06371e-05 0)
(0 -5.59382e-05 0)
(0 -5.90787e-05 0)
(0 -6.36862e-05 0)
(0 -6.21509e-05 0)
(0 -5.7472e-05 0)
(0 -6.05675e-05 0)
(0 -6.51072e-05 0)
(0 -6.3589e-05 0)
(0 -5.89533e-05 0)
(0 -6.19686e-05 0)
(0 -5.7281e-05 0)
(0 -6.02877e-05 0)
(0 -6.47707e-05 0)
(0 -6.32334e-05 0)
(0 -5.86549e-05 0)
(0 -6.16793e-05 0)
(0 -6.61364e-05 0)
(0 -6.45223e-05 0)
(0 -6.00504e-05 0)
(0 -6.28356e-05 0)
(0 -5.83332e-05 0)
(0 -6.10806e-05 0)
(0 -6.55186e-05 0)
(0 -6.37249e-05 0)
(0 -5.92305e-05 0)
(0 -6.18833e-05 0)
(0 -5.73622e-05 0)
(0 -5.99796e-05 0)
(0 -6.44416e-05 0)
(0 -6.24631e-05 0)
(0 -5.80071e-05 0)
(0 -6.04185e-05 0)
(0 -5.59287e-05 0)
(0 -5.8243e-05 0)
(0 -6.25829e-05 0)
(0 -6.0427e-05 0)
(0 -5.59616e-05 0)
(0 -5.81669e-05 0)
(0 -6.24374e-05 0)
(0 -6.02274e-05 0)
(0 -5.58456e-05 0)
(0 -5.78985e-05 0)
(0 -5.34858e-05 0)
(0 -5.54698e-05 0)
(0 -5.97644e-05 0)
(0 -5.73235e-05 0)
(0 -5.30448e-05 0)
(0 -5.48931e-05 0)
(0 -5.06522e-05 0)
(0 -5.25004e-05 0)
(0 -5.66146e-05 0)
(0 -5.42382e-05 0)
(0 -5.01664e-05 0)
(0 -5.19108e-05 0)
(0 -5.5828e-05 0)
(0 -5.35108e-05 0)
(0 -4.96512e-05 0)
(0 -5.12538e-05 0)
(0 -4.74788e-05 0)
(0 -4.90742e-05 0)
(0 -4.53911e-05 0)
(0 -4.69849e-05 0)
(0 -5.72406e-05 0)
(0 -4.33668e-05 0)
(0 -4.4928e-05 0)
(0 -4.84712e-05 0)
(0 -4.63499e-05 0)
(0 -4.2855e-05 0)
(0 -4.41556e-05 0)
(0 -4.06923e-05 0)
(0 -4.18518e-05 0)
(0 -3.83991e-05 0)
(0 -3.94371e-05 0)
(0 -4.97652e-05 0)
(0 -3.60249e-05 0)
(0 -3.69911e-05 0)
(0 -4.03639e-05 0)
(0 -3.79234e-05 0)
(0 -3.4579e-05 0)
(0 -3.55403e-05 0)
(0 -3.22675e-05 0)
(0 -3.32685e-05 0)
(0 -3.00723e-05 0)
(0 -3.10517e-05 0)
(0 -4.11975e-05 0)
(0 -2.79279e-05 0)
(0 -2.885e-05 0)
(0 -3.19119e-05 0)
(0 -2.97485e-05 0)
(0 -2.67089e-05 0)
(0 -2.7677e-05 0)
(0 -2.4702e-05 0)
(0 -2.56981e-05 0)
(0 -2.28661e-05 0)
(0 -2.37914e-05 0)
(0 -4.16712e-05 0)
(0 -5.26996e-05 0)
(0 -2.11064e-05 0)
(0 -2.19243e-05 0)
(0 -3.49796e-05 0)
(0 -2.46031e-05 0)
(0 -2.26841e-05 0)
(0 -2.00752e-05 0)
(0 -2.0757e-05 0)
(0 -1.82965e-05 0)
(0 -1.8807e-05 0)
(0 -3.27165e-05 0)
(0 -6.7276e-05 0)
(0 -1.64432e-05 0)
(0 -1.68186e-05 0)
(0 -1.45819e-05 0)
(0 -1.49348e-05 0)
(0 -1.2894e-05 0)
(0 -1.32641e-05 0)
(0 -6.28754e-05 0)
(0 -5.88294e-05 0)
(0 -5.97039e-05 0)
(0 -5.56459e-05 0)
(0 -5.65408e-05 0)
(0 -5.24834e-05 0)
(0 -5.33976e-05 0)
(0 -4.9324e-05 0)
(0 -4.84132e-05 0)
(0 -5.02364e-05 0)
(0 -4.61361e-05 0)
(0 -4.70731e-05 0)
(0 -1.53295e-05 0)
(0 -1.36934e-05 0)
(0 -1.17422e-05 0)
(0 -1.22266e-05 0)
(0 -2.94235e-05 0)
(0 -2.89929e-05 0)
(0 1.8416e-06 0)
(0 -1.03062e-05 0)
(0 -1.08965e-05 0)
(0 -3.50766e-05 0)
(0 -4.29516e-05 0)
(0 -4.39186e-05 0)
(0 -2.69442e-05 0)
(0 -2.24372e-05 0)
(0 -2.36746e-05 0)
(0 -2.56355e-05 0)
(0 -2.57388e-05 0)
(0 -2.54707e-05 0)
(0 -0.000126645 0)
(0 -8.97369e-06 0)
(0 -9.6542e-06 0)
(0 -1.16053e-05 0)
(0 -1.04408e-05 0)
(0 -8.46673e-06 0)
(0 -9.32686e-06 0)
(0 -2.80143e-05 0)
(0 -2.57806e-05 0)
(0 -3.11173e-05 0)
(0 -2.85193e-05 0)
(0 -3.06226e-05 0)
(0 -2.7998e-05 0)
(0 -3.00667e-05 0)
(0 -2.74217e-05 0)
(0 -8.75868e-05 0)
(0 -8.67424e-05 0)
(0 -1.07621e-05 0)
(0 -7.35055e-06 0)
(0 -8.28595e-06 0)
(0 -2.53047e-05 0)
(0 -2.46562e-05 0)
(0 -2.45843e-05 0)
(0 -2.6581e-05 0)
(0 -2.4451e-05 0)
(0 -2.63782e-05 0)
(0 -2.42585e-05 0)
(0 -2.3539e-05 0)
(0 -2.36102e-05 0)
(0 -8.62573e-06 0)
(0 -1.22538e-05 0)
(0 -1.12506e-05 0)
(0 -1.32787e-05 0)
(0 -0.000125294 0)
(0 -0.000100114 0)
(0 -1.01343e-05 0)
(0 -1.08801e-05 0)
(0 -2.23399e-05 0)
(0 -2.21647e-05 0)
(0 -8.50433e-05 0)
(0 -8.41915e-05 0)
(0 -2.61125e-05 0)
(0 -9.31319e-05 0)
(0 -6.37073e-06 0)
(0 -7.37964e-06 0)
(0 -9.25408e-06 0)
(0 -8.40132e-06 0)
(0 -6.6524e-06 0)
(0 -7.69961e-06 0)
(0 -6.07245e-06 0)
(0 -7.04471e-06 0)
(0 -2.01824e-05 0)
(0 -4.43155e-05 0)
(0 -4.42896e-05 0)
(0 -4.64619e-05 0)
(0 -4.63971e-05 0)
(0 -4.85929e-05 0)
(0 -4.84805e-05 0)
(0 -5.06953e-05 0)
(0 -5.05308e-05 0)
(0 -5.27619e-05 0)
(0 -1.03663e-05 0)
(0 -1.02705e-05 0)
(0 -3.97475e-05 0)
(0 -4.07595e-05 0)
(0 -3.87966e-05 0)
(0 -0.000108311 0)
(0 -0.000107055 0)
(0 -0.00010933 0)
(0 -0.000108061 0)
(0 -0.000110307 0)
(0 -1.57484e-05 0)
(0 -2.1408e-05 0)
(0 -2.15099e-05 0)
(0 -8.58511e-05 0)
(0 -8.32777e-05 0)
(0 -8.15751e-05 0)
(0 -8.06532e-05 0)
(0 -7.89155e-05 0)
(0 -7.80072e-05 0)
(0 -7.62036e-05 0)
(0 -7.53416e-05 0)
(0 -7.35154e-05 0)
(0 -7.26772e-05 0)
(0 -1.76921e-05 0)
(0 -8.47533e-06 0)
(0 -9.04646e-06 0)
(0 -1.23373e-05 0)
(0 -2.79859e-05 0)
(0 -9.34243e-06 0)
(0 -9.84943e-06 0)
(0 -5.53528e-06 0)
(0 -6.3138e-06 0)
(0 -2.68275e-05 0)
(0 -8.62944e-06 0)
(0 -0.000126173 0)
(0 -7.73391e-06 0)
(0 -6.87858e-06 0)
(0 -5.51195e-06 0)
(0 -5.99242e-06 0)
(0 -4.65049e-06 0)
(0 -5.44184e-05 0)
(0 -4.04235e-05 0)
(0 -8.22725e-05 0)
(0 -7.08811e-05 0)
(0 -6.99989e-05 0)
(0 -9.64448e-06 0)
(0 -9.18564e-06 0)
(0 -1.00361e-05 0)
(0 -3.6228e-05 0)
(0 -7.04971e-05 0)