/*--------------------------------*- C++ -*----------------------------------*\
| =========                 |                                                 |
| \\      /  F ield         | OpenFOAM: The Open Source CFD Toolbox           |
|  \\    /   O peration     | Version:  v2012                                 |
|   \\  /    A nd           | Website:  www.openfoam.com                      |
|    \\/     M anipulation  |                                                 |
\*---------------------------------------------------------------------------*/
FoamFile
{
    version     2.0;
    format      ascii;
    class       surfaceVectorField;
    location    "200";
    object      Uf;
}
// * * * * * * * * * * * * * * * * * * * * * * * * * * * * * * * * * * * * * //

dimensions      [0 1 -1 0 0 0 0];


internalField   nonuniform List<vector> 
27907
(
(1.09478 -0.305102 2.36253e-20)
(1.10448 -0.298609 2.52238e-20)
(1.10326 -0.310799 -2.44997e-20)
(1.27252 -0.0279846 -2.6375e-20)
(1.22881 -0.024705 5.49199e-20)
(1.26338 -0.0256635 -6.75423e-20)
(1.01514 -6.26893e-05 1.20407e-21)
(1.01509 -0.000128618 -1.73886e-21)
(1.01503 -5.21283e-05 -3.17181e-21)
(0.632103 0.166638 3.41987e-20)
(0.651085 0.168573 3.09617e-20)
(0.614681 0.15139 2.52048e-20)
(0.177004 0.0369305 0)
(0.216115 0.0384525 0)
(0.170212 0.0349364 4.19322e-20)
(0.219917 0.0280954 1.36729e-20)
(0.186527 0.0267059 -7.9053e-20)
(0.231807 0.0280684 -1.56124e-20)
(-0.216965 -0.0101269 -1.37177e-21)
(-0.23564 -0.00447212 -7.46255e-21)
(-0.222073 -0.00996195 9.35578e-21)
(1.01202 -0.00471192 5.84009e-23)
(1.01235 -0.00471326 -2.66333e-23)
(1.01222 -0.00499888 8.73885e-22)
(1.24364 0.0326232 0)
(1.24351 0.0294783 -1.96222e-21)
(1.24663 0.0308752 -1.92383e-20)
(1.0176 -0.104015 5.36315e-22)
(1.01778 -0.107769 4.15222e-22)
(1.0209 -0.105053 -2.11356e-21)
(1.05641 -0.0382323 -1.06998e-20)
(1.0581 -0.0385557 -1.80951e-21)
(1.05696 -0.0400134 -4.2185e-21)
(0.160792 -0.0432314 6.91788e-20)
(0.154484 -0.0403873 4.88148e-20)
(0.257237 -0.0531165 2.75111e-21)
(1.00214 -0.000414671 4.03804e-22)
(1.00203 -0.000303139 1.36338e-23)
(1.00221 -0.00027668 2.6609e-23)
(1.09076 0.174988 0)
(1.09468 0.173126 0)
(1.09102 0.169905 0)
(1.04443 0.0122752 0)
(1.04518 0.0120139 3.18828e-21)
(1.04437 0.0113928 -6.0209e-21)
(0.601438 -0.5343 1.20808e-20)
(0.567589 -0.50684 -1.25256e-21)
(0.604737 -0.491231 4.8795e-21)
(1.113 0.0297558 6.04252e-21)
(1.11057 0.0292296 2.6192e-20)
(1.11244 0.0271984 8.34255e-21)
(1.00417 -0.00752262 2.21482e-22)
(1.00438 -0.00757173 2.77284e-22)
(1.00414 -0.00725285 -1.86134e-22)
(1.03669 -0.00421289 -2.93306e-21)
(1.03743 -0.00425205 -1.78655e-22)
(1.03709 -0.00361697 1.42809e-22)
(1.03021 -0.125934 -3.23139e-21)
(1.0267 -0.125713 1.95723e-21)
(1.02895 -0.122398 6.45477e-22)
(-0.0328472 0.0185264 -2.43933e-20)
(-0.064124 0.013447 5.24483e-20)
(-0.0393328 0.0179856 -4.54356e-20)
(1.00001 -0.0006982 -1.71196e-21)
(0.999997 -0.000998608 -1.35219e-21)
(1.00005 -0.000827906 -1.04369e-21)
(-0.0496028 -0.0124238 2.28336e-20)
(-0.0105117 -0.0156301 -5.59758e-20)
(-0.0535976 -0.013267 -5.25334e-20)
(1.24455 0.0746341 -1.17377e-20)
(1.23776 0.0718585 -1.00757e-20)
(1.1952 0.075435 -2.53002e-20)
(1.31367 -0.123906 -6.75346e-22)
(1.32252 -0.126874 1.09658e-20)
(1.32462 -0.120302 -3.32187e-20)
(1.01172 -0.00469513 0)
(1.01186 -0.00445341 -1.34241e-21)
(0.806923 -0.684444 -9.7178e-21)
(0.797134 -0.705727 1.35249e-21)
(0.774777 -0.685911 -8.25717e-21)
(0.137572 0.0240926 -4.11538e-20)
(0.177333 0.0261981 -1.71764e-20)
(0.145892 0.02527 -1.52733e-21)
(0.828279 0.0102747 -2.64759e-20)
(0.929786 0.00283236 -3.08314e-20)
(0.865658 0.00810177 -6.25355e-20)
(1.0969 -0.696161 -3.45807e-20)
(1.05587 -0.695781 -1.68638e-20)
(1.12779 -0.758935 -2.18979e-22)
(1.10811 0.0877564 3.29244e-22)
(1.11086 0.0895163 -1.44437e-20)
(1.11127 0.0861096 3.08319e-21)
(0.0997362 0.0246097 2.10601e-20)
(0.113262 0.0306844 1.98901e-21)
(0.122779 0.0318789 -2.26219e-21)
(1.00051 -0.000186799 -3.53265e-22)
(1.00043 -0.000175129 -7.55439e-22)
(1.00048 -0.000108574 -4.99549e-24)
(1.05148 -0.0105297 -5.28245e-21)
(1.05218 -0.00970037 2.50794e-21)
(1.05103 -0.00947026 1.23228e-20)
(1.16514 0.113875 1.61491e-20)
(1.16115 0.113394 0)
(1.16288 0.117787 -1.88363e-20)
(0.999394 -0.00268138 -5.64668e-21)
(0.999289 -0.00273378 3.53987e-21)
(0.999334 -0.00285007 -2.14538e-21)
(1.00022 -0.000249456 1.48681e-23)
(1.00017 -0.000200688 3.33424e-22)
(1.00018 -0.000260571 -1.11923e-21)
(1.03528 -0.0210185 2.27269e-21)
(1.03439 -0.0209744 -2.59272e-22)
(1.03496 -0.0218094 2.27718e-21)
(1.04146 -0.0244732 3.97077e-21)
(1.04188 -0.0235662 -3.00064e-22)
(1.04072 -0.0237426 4.86467e-21)
(1.1225 0.0258692 -1.23107e-20)
(1.12109 0.0233929 0)
(1.11948 0.0260982 6.69878e-23)
(1.03604 -0.0194662 3.78748e-21)
(1.03559 -0.0202485 0)
(1.03511 -0.0193011 0)
(0.938826 -0.0822379 0)
(0.938636 -0.0779145 1.41218e-20)
(0.942614 -0.0810571 -1.50028e-20)
(1.02159 -0.00663686 1.94485e-21)
(1.02159 -0.00695971 1.51715e-21)
(1.02203 -0.00681494 3.89627e-21)
(0.976096 -0.0924639 0)
(0.978466 -0.0944273 -5.30926e-21)
(0.979141 -0.091003 0)
(1.21022 -0.494245 -1.49906e-20)
(1.18815 -0.50055 -3.84608e-20)
(1.23783 -0.523723 -3.85444e-20)
(1.01304 -0.00136052 1.16768e-21)
(1.01317 -0.00122923 -5.89132e-23)
(1.01322 -0.00143852 1.11711e-21)
(-0.0485303 -0.012202 7.37363e-20)
(-0.0815562 -0.0101075 1.02541e-19)
(1.05119 -0.053818 0)
(1.05265 -0.0526552 0)
(1.0508 -0.0518837 3.94023e-21)
(1.01459 -0.103215 5.5094e-22)
(1.01744 -0.100933 -1.14722e-22)
(1.02145 -0.00524692 -1.93629e-21)
(1.02137 -0.00491443 -1.56837e-21)
(1.02099 -0.00506608 0)
(1.21675 -0.137809 -2.30157e-21)
(1.21914 -0.133754 -9.99606e-21)
(1.22248 -0.138676 -3.79873e-20)
(0.349403 0.0878763 1.02186e-20)
(0.338209 0.0850044 -7.85858e-21)
(0.396137 0.0936248 -4.4184e-20)
(1.01545 -0.00170475 1.8823e-21)
(1.01568 -0.00174662 1.99579e-21)
(1.0155 -0.00157845 -1.70393e-21)
(1.05463 -0.0379694 4.24859e-21)
(1.05573 -0.0367335 -1.42942e-21)
(0.0978644 0.020069 6.24663e-21)
(0.122888 0.0229239 -3.84663e-20)
(1.2067 -0.206314 -4.11614e-20)
(1.27981 -0.212442 7.99765e-21)
(1.30825 -0.224482 8.62708e-21)
(1.00027 -0.000243663 -4.26292e-22)
(1.00027 -0.00031287 1.2061e-21)
(0.521247 -0.363793 -1.04271e-20)
(0.539096 -0.33399 1.6966e-20)
(0.99393 -0.0239503 -4.27262e-22)
(0.994624 -0.0240166 2.55026e-21)
(0.994083 -0.0247609 3.85033e-21)
(1.10322 0.178433 -1.79138e-20)
(1.09847 0.175934 0)
(1.09863 0.18139 1.02193e-20)
(1.11817 -0.258381 2.83306e-20)
(1.11331 -0.263469 -2.59226e-20)
(1.12196 -0.263785 -1.38942e-20)
(-0.213945 -0.00991975 7.58425e-20)
(-0.194806 -0.0148998 7.60326e-20)
(1.20506 0.0146882 -7.87141e-21)
(1.20413 0.0183282 3.44036e-20)
(1.20804 0.0162067 2.1119e-20)
(0.970472 -0.0474064 4.66131e-21)
(0.97216 -0.0466236 0)
(0.970414 -0.0453942 1.91742e-21)
(1.01537 -0.00183557 9.69633e-23)
(1.01524 -0.00163104 1.5995e-21)
(0.994092 -0.00535856 -1.7536e-21)
(0.994263 -0.00497869 -3.52703e-21)
(0.994413 -0.00531949 3.05816e-21)
(1.12038 0.0315544 1.08018e-21)
(1.11774 0.0338694 -6.07564e-22)
(1.11744 0.0304934 -1.0258e-20)
(1.00058 -0.000178586 -3.28443e-22)
(1.00054 -0.000256357 2.21771e-22)
(1.03331 -0.0194854 -2.44096e-21)
(1.03246 -0.0196045 -2.28432e-21)
(1.03274 -0.018793 -4.71974e-21)
(0.309739 0.0835671 3.55238e-20)
(0.355984 0.0891152 -1.21913e-22)
(0.243241 0.0668543 -1.99799e-21)
(0.249695 0.0669356 4.74488e-21)
(0.20605 0.0605876 4.38819e-20)
(0.971782 -0.0276643 5.4337e-21)
(0.971668 -0.0289596 1.76239e-20)
(0.973001 -0.028367 -7.13889e-22)
(1.02151 -0.00557774 -1.70068e-21)
(1.02191 -0.00543213 1.98104e-21)
(0.151763 -0.327622 -4.98782e-21)
(0.17209 -0.273845 -2.2586e-20)
(0.111364 0.0354558 -3.52685e-20)
(1.01745 -0.00799924 5.2009e-22)
(1.017 -0.00793156 -6.22007e-22)
(1.01717 -0.00767129 3.3136e-22)
(0.996104 -0.0249976 -1.83134e-21)
(0.99551 -0.0249315 -3.80973e-21)
(0.995937 -0.0242899 2.41395e-22)
(1.23131 0.0910511 -3.38045e-21)
(1.23163 0.0870487 0)
(1.23561 0.0878544 0)
(0.202055 0.0411167 2.75126e-21)
(0.164331 0.0342844 3.47183e-21)
(0.193284 0.0390513 2.69357e-20)
(0.900868 -0.328028 4.20396e-21)
(0.91567 -0.324865 6.91514e-21)
(0.910976 -0.340906 -4.36149e-21)
(-0.0747393 -0.0259289 2.87995e-20)
(-0.0725726 -0.025107 2.85988e-20)
(-0.101699 -0.0234985 7.92783e-20)
(0.0438094 0.0112811 2.43855e-20)
(0.0419941 0.0100488 -6.23249e-21)
(0.0945303 0.0090336 -4.29474e-22)
(1.27928 -0.463649 6.78642e-20)
(1.26589 -0.471721 3.24411e-20)
(1.28272 -0.480863 3.33563e-20)
(1.10626 0.175487 -7.23393e-21)
(1.10699 0.180844 -1.30313e-20)
(0.153494 0.0215804 -1.94984e-20)
(0.185004 0.0235088 -1.68205e-20)
(0.188135 0.0240958 -2.49907e-20)
(1.22964 0.0947773 -3.47753e-21)
(1.23414 0.0960023 2.61462e-20)
(1.09937 -0.0218409 0)
(1.09931 -0.0244477 6.4402e-21)
(1.09696 -0.0223826 -1.33562e-20)
(0.473593 -0.170481 0)
(0.530223 -0.194167 0)
(0.723704 -0.253487 -5.07663e-20)
(1.20588 0.0114323 -3.16539e-20)
(1.20186 0.0136593 -1.33186e-20)
(-0.0657467 -0.0318704 6.78785e-20)
(-0.0757841 -0.032621 -4.16699e-20)
(-0.0490383 -0.0202062 -4.25639e-20)
(0.996903 -0.025126 3.41017e-21)
(0.9964 -0.0258302 1.0841e-21)
(0.125898 0.0202191 3.81395e-21)
(0.123061 0.0194266 -6.19041e-21)
(0.993316 -0.0238396 9.55296e-22)
(0.993867 -0.0232557 5.97973e-23)
(0.105908 -0.063624 -6.57848e-20)
(0.0943696 -0.0648924 -4.4488e-20)
(0.232461 -0.089031 -2.89779e-20)
(0.939042 -0.0866718 -8.13942e-21)
(0.934982 -0.0834542 0)
(0.0486449 0.0132779 7.60144e-21)
(0.0499517 0.0133906 1.33792e-20)
(0.0992602 0.0139719 -4.26408e-20)
(0.11427 -0.0653847 1.64394e-20)
(0.0308988 -0.0493177 -3.51733e-20)
(1.22845 0.0997028 4.59606e-20)
(1.22512 0.0946181 0)
(1.01786 -0.00808609 -3.06496e-21)
(1.01768 -0.00835635 1.9234e-22)
(1.0027 -0.0185621 1.42561e-21)
(1.00238 -0.0183555 1.6907e-21)
(1.00249 -0.0188895 -3.32329e-22)
(-0.00688705 0.0238999 -4.25324e-20)
(-0.0269924 0.0187663 8.4628e-22)
(1.04226 -0.127678 8.67976e-22)
(1.0395 -0.131347 1.09712e-20)
(1.03818 -0.126432 1.12276e-20)
(0.0968579 0.0175944 -6.72102e-20)
(0.0672447 0.0164412 1.30539e-20)
(0.0650377 0.0151846 2.17382e-20)
(1.16617 0.0589719 0)
(1.16282 0.0578075 0)
(1.16373 0.0615291 0)
(1.12286 -0.126758 -8.82569e-21)
(1.11843 -0.126394 0)
(1.12116 -0.122979 0)
(0.0773656 0.0184608 -1.56922e-21)
(0.0863276 0.0189312 2.04676e-20)
(1.13906 -0.684977 3.36914e-20)
(1.08999 -0.655464 7.48277e-21)
(0.967242 0.137013 0)
(0.948616 0.132753 0)
(1.01207 0.137421 1.60528e-20)
(0.208059 0.0430155 -3.39128e-20)
(0.246394 0.0453371 3.23453e-20)
(1.04394 -0.0347158 -1.96769e-21)
(1.04348 -0.0335148 2.44273e-21)
(1.04509 -0.0337026 4.36522e-21)
(0.964842 -0.0154359 -7.33587e-22)
(0.965633 -0.0141656 -6.33999e-21)
(0.963976 -0.0139637 -2.14153e-22)
(0.274584 -0.102407 6.76003e-20)
(0.127349 -0.0712516 6.56774e-20)
(0.57749 -0.941012 -4.98651e-20)
(1.01071 -0.00539338 -6.4973e-23)
(1.01061 -0.00512417 -7.41629e-22)
(1.01039 -0.00528749 -1.97623e-21)
(1.0098 -0.0359935 7.01573e-23)
(1.01081 -0.0360607 -4.38634e-22)
(1.0103 -0.0349987 -4.23116e-22)
(0.730773 0.0350826 6.14044e-20)
(0.735681 0.0366236 5.22059e-21)
(0.663765 0.0363036 9.80737e-20)
(-0.220471 0.00660874 -1.95714e-20)
(-0.24664 0.00565743 -6.18125e-20)
(-0.220136 0.00509388 -1.51112e-20)
(-0.192019 0.00299605 -4.39693e-21)
(-0.192612 0.00406318 3.512e-20)
(-0.165507 0.00380124 0)
(1.04435 0.0130624 -4.63523e-21)
(1.04363 0.0124877 1.52327e-21)
(0.015276 -0.0297734 2.26982e-20)
(0.0833077 -0.0346176 -5.87698e-20)
(0.0156083 -0.027711 -5.03485e-20)
(0.042955 0.0159476 6.27047e-21)
(0.00968801 0.0165895 7.67528e-20)
(1.12215 -0.051361 3.94155e-20)
(1.11976 -0.0493982 6.98875e-21)
(1.11898 -0.0528277 3.69784e-20)
(0.988111 -0.0122111 -1.2435e-21)
(0.987885 -0.0126171 1.467e-21)
(0.987535 -0.0121273 1.43719e-21)
(0.661398 -0.0394638 -2.96642e-20)
(0.618997 -0.0270979 -1.20288e-19)
(0.553723 -0.0180925 -7.72139e-20)
(0.614326 -0.65434 -1.08954e-20)
(0.655172 -0.632929 5.42124e-21)
(0.658325 -0.682257 -1.46507e-20)
(1.19092 -0.382548 0)
(1.19084 -0.395094 2.3239e-20)
(1.20118 -0.387848 4.68703e-20)
(1.23365 -0.486891 3.90554e-22)
(1.19925 -0.471762 6.60129e-20)
(1.27925 -0.0321395 -5.81987e-21)
(1.28752 -0.0332104 -2.71659e-20)
(1.27398 0.0310278 -1.23265e-20)
(1.27495 0.0335231 -3.94663e-20)
(1.27483 0.0297957 -5.5569e-20)
(0.0746207 -0.0570633 -3.45275e-20)
(0.0205083 -0.0407912 4.09691e-20)
(1.00286 -0.000151471 0)
(1.00309 -0.000141368 0)
(1.00381 -0.000230207 0)
(1.11512 0.0299664 -2.34917e-20)
(1.11334 0.0320211 -1.29033e-20)
(0.851284 -0.673464 1.26438e-20)
(0.820232 -0.643482 4.97622e-22)
(-0.0834489 0.00990232 -5.29625e-21)
(-0.0787337 0.00960732 2.84811e-20)
(0.938267 -0.224072 -2.89044e-21)
(0.928372 -0.225354 9.91536e-21)
(0.935907 -0.216296 -8.05278e-22)
(0.246798 -0.689729 7.16922e-20)
(0.22762 -0.767061 2.89353e-20)
(0.970668 -0.0646268 -1.66151e-20)
(0.969829 -0.0668721 -1.01242e-21)
(0.972357 -0.0663761 -3.00009e-21)
(1.23213 0.0827745 1.63332e-20)
(1.22758 0.0858377 0)
(1.12376 0.0277731 -1.09769e-20)
(1.1254 0.0255205 -1.14803e-20)
(1.00317 -0.018874 6.5979e-23)
(1.00299 -0.0182552 -3.4226e-22)
(0.794546 -0.266951 0)
(0.781656 -0.262189 0)
(0.785735 -0.278764 -2.8957e-20)
(0.892132 -0.319326 0)
(0.88677 -0.336593 0)
(0.958172 -0.456748 3.77092e-21)
(0.946332 -0.468988 4.54427e-22)
(0.967431 -0.469474 1.66956e-20)
(1.00505 -0.0313238 0)
(1.00565 -0.0318997 0)
(1.00483 -0.032109 2.24804e-21)
(1.13413 -0.187958 -3.95325e-20)
(1.07748 -0.172967 -3.93638e-20)
(1.03638 -0.0188707 2.95547e-21)
(1.03685 -0.0197808 8.10147e-21)
(1.03901 -0.00174137 3.85075e-21)
(1.03872 -0.00115756 2.90081e-21)
(1.03821 -0.00176534 -8.07275e-22)
(-0.132177 0.00927158 -1.79841e-20)
(-0.136356 0.00944873 1.2981e-20)
(-0.161788 0.00756943 5.9265e-20)
(0.269564 0.0234754 -1.00555e-20)
(0.295006 0.0311392 1.26151e-20)
(0.281099 0.0210392 1.70193e-20)
(1.10574 0.0857803 1.59231e-20)
(1.10502 0.0891515 1.54178e-20)
(0.674723 0.0538801 -1.10259e-20)
(0.650752 0.0499735 -3.29096e-20)
(0.612126 0.046822 -1.03415e-19)
(1.29032 -0.450724 1.79751e-21)
(1.27106 -0.446936 7.02719e-21)
(1.18382 0.156208 -4.17271e-21)
(1.13786 0.153671 -4.80262e-20)
(1.17668 0.159962 -5.52698e-20)
(1.09938 -0.026748 -1.36588e-20)
(1.09705 -0.0273548 -1.36349e-20)
(1.09941 -0.0293251 -1.89384e-20)
(0.999966 -0.000693787 -6.69549e-22)
(1.00002 -0.000946753 -2.24124e-21)
(0.999977 -0.000755102 -1.69347e-21)
(-0.043507 0.00730901 1.29364e-20)
(-0.0387224 0.0079374 4.17033e-20)
(-0.0751652 0.00693033 9.65849e-20)
(1.09008 -0.0435818 -5.49972e-21)
(1.08857 -0.0419103 1.07748e-20)
(1.08748 -0.044014 -1.86138e-20)
(-0.0337815 -0.0295002 1.04026e-20)
(0.00718481 -0.0321634 2.00956e-20)
(1.04986 -0.0547614 5.88076e-21)
(1.05166 -0.0556926 0)
(0.992705 -0.037992 2.14784e-21)
(0.99199 -0.0386595 -1.38353e-22)
(0.991744 -0.0374791 -1.50226e-22)
(0.999996 -0.000493613 -3.50492e-21)
(1.00001 -0.000240281 0)
(1.00001 -0.00025351 0)
(1.01118 -0.012901 1.82135e-22)
(1.01151 -0.0131383 6.46161e-22)
(1.01114 -0.0133164 -3.11165e-22)
(1.11428 0.173374 -8.33735e-21)
(1.11054 0.173588 -1.75767e-22)
(1.1128 0.17758 6.31337e-21)
(0.186735 -0.100758 0)
(0.255656 -0.127761 4.4335e-21)
(0.0863345 -0.0781124 5.97816e-20)
(0.993563 -0.0369118 1.39719e-21)
(0.993925 -0.0383316 2.94657e-21)
(1.12378 -0.252554 2.84285e-20)
(1.1152 -0.253008 2.13071e-20)
(0.787764 0.0164558 -1.96178e-20)
(0.735717 0.0212359 1.0909e-20)
(1.03812 -0.00552956 -8.77801e-22)
(1.03896 -0.00560199 -1.30125e-21)
(1.03834 -0.00626898 -5.46777e-21)
(0.515396 -0.042327 5.26926e-20)
(0.613311 -0.0579911 4.50236e-20)
(0.494886 -0.0428295 1.50516e-20)
(1.22264 -0.24381 4.14994e-20)
(1.21726 -0.248722 -6.75432e-20)
(1.21545 -0.240839 2.69034e-20)
(0.216669 0.025546 7.20052e-20)
(0.2567 0.0277224 -3.74683e-20)
(0.251706 0.0273154 3.51193e-20)
(-0.139842 0.013492 -4.36842e-20)
(-0.144443 0.0135221 1.21944e-20)
(-0.115797 0.0157696 -1.89966e-21)
(1.00401 -0.00751828 5.28123e-22)
(1.00424 -0.00779947 -5.46623e-22)
(0.34602 -0.139564 0)
(0.134098 -0.0814158 0)
(0.148193 0.0262864 2.02337e-20)
(0.152137 0.0268369 4.5895e-21)
(0.188549 0.0289537 0)
(1.11592 0.169748 0)
(1.11825 0.173799 0)
(1.26396 0.0774056 -1.8704e-20)
(1.2449 0.0789163 0)
(0.701269 0.0277193 -2.83289e-20)
(0.641791 0.0269289 9.7499e-20)
(0.728527 0.0265671 1.88653e-20)
(0.970614 -0.0488885 -4.45695e-21)
(0.968794 -0.0478836 1.42874e-20)
(0.806373 -0.258332 7.23987e-22)
(0.809112 -0.274594 0)
(1.03157 -0.0303115 2.25155e-21)
(1.03261 -0.0305189 1.59318e-23)
(1.03216 -0.0294558 2.75746e-21)
(1.00913 -0.00527325 -9.61557e-23)
(1.00884 -0.00513332 5.16757e-22)
(1.00908 -0.00496406 -9.24098e-23)
(-0.222626 0.00306092 7.20559e-20)
(-0.222713 0.000716082 -6.56502e-20)
(1.21713 0.156957 4.17118e-20)
(1.19277 0.153226 3.29271e-20)
(1.02588 -0.00471691 -2.04708e-21)
(1.02626 -0.00452352 -7.20964e-21)
(1.0264 -0.00500175 6.85062e-22)
(1.06733 0.00603196 5.69013e-21)
(1.06759 0.00735829 0)
(1.0688 0.00608648 0)
(1.23467 0.148102 -2.2649e-21)
(1.25238 0.146054 1.61371e-20)
(1.24766 0.153078 -4.9672e-21)
(0.997743 -0.0196015 8.35309e-22)
(0.997658 -0.0201777 2.15213e-21)
(0.998186 -0.0200054 -2.46621e-21)
(-0.225061 0.00684495 7.23482e-21)
(-0.197974 0.00738852 5.81403e-20)
(1.02067 -0.00615913 -1.3266e-21)
(1.02068 -0.00583433 4.47622e-21)
(1.02026 -0.00594051 -1.46874e-21)
(0.995779 -0.0175592 2.89668e-21)
(0.995986 -0.0180976 9.17773e-22)
(0.995434 -0.0181115 -1.06975e-21)
(0.945485 -0.225459 -9.80296e-21)
(0.938185 -0.233488 -1.56984e-21)
(1.27282 0.0273883 4.85055e-20)
(1.26886 0.0308551 3.81027e-20)
(1.01316 -0.0470572 -6.13651e-22)
(1.01332 -0.0484236 6.55187e-23)
(1.01208 -0.0479014 -4.49204e-22)
(1.10351 0.0837028 6.86148e-21)
(1.10643 0.082427 1.53435e-20)
(0.978327 -0.150858 -6.50215e-22)
(0.974665 -0.152915 -6.00726e-22)
(0.979592 -0.155218 1.9206e-21)
(1.20695 0.00849866 0)
(1.20934 0.00995161 0)
(1.03404 -0.126082 -6.15809e-21)
(1.03168 -0.130086 -4.9929e-21)
(1.22894 -0.239356 8.12877e-21)
(1.23171 -0.247083 2.09739e-20)
(1.00081 -0.00249837 -9.03003e-22)
(1.00073 -0.00235976 -3.66335e-22)
(1.00072 -0.00245234 -1.30892e-21)
(1.02112 -0.00642724 -1.20781e-21)
(1.02156 -0.00625189 -1.75314e-21)
(0.745499 -0.213588 7.20928e-21)
(0.753461 -0.226497 -9.62076e-21)
(0.761812 -0.214092 7.46918e-21)
(1.04827 -0.0555833 -3.45366e-22)
(1.04802 -0.0538176 6.24416e-21)
(1.07638 -0.127116 -8.73795e-22)
(1.07259 -0.12879 -2.71126e-23)
(1.07627 -0.13218 8.75323e-21)
(1.18572 -0.00201766 6.1951e-21)
(1.18676 -0.00456205 2.52594e-20)
(1.18859 -0.0013074 0)
(1.00207 -0.000516668 3.77873e-22)
(1.00224 -0.000519622 -6.48571e-22)
(0.977926 -0.146449 -5.45274e-21)
(0.982537 -0.148785 2.04934e-22)
(1.17034 0.0539987 1.32833e-20)
(1.17261 0.0514169 -3.70691e-21)
(1.1736 0.0553437 -4.18821e-21)
(0.999991 -0.000438044 8.08747e-22)
(0.999985 -0.000717184 3.67927e-21)
(-0.01242 0.0169584 1.944e-20)
(-0.0400713 0.0111686 4.99575e-20)
(-0.0151654 0.0187735 7.73063e-21)
(1.01137 -0.102252 0)
(1.01146 -0.105971 0)
(1.00457 -0.00759562 5.54698e-24)
(1.0048 -0.00763836 4.70219e-22)
(1.00454 -0.00729223 -5.70773e-22)
(1.12423 -0.130633 -1.76649e-20)
(1.12718 -0.127116 -1.77672e-20)
(0.994217 -0.0405175 7.89348e-22)
(0.995329 -0.0404444 -1.68995e-21)
(0.99453 -0.039486 3.688e-22)
(1.08125 -0.117725 7.9984e-21)
(1.08439 -0.117157 1.11188e-20)
(1.08393 -0.121389 -2.30126e-20)
(0.866822 -0.30384 8.41787e-21)
(0.860955 -0.291356 9.56849e-21)
(0.875699 -0.294708 2.44372e-20)
(0.0968214 -0.00238826 -5.86001e-20)
(0.0513362 -0.00237524 1.90731e-20)
(0.0500725 3.51297e-05 -4.3014e-20)
(0.85577 -0.312651 -9.03577e-22)
(0.871608 -0.315056 7.61145e-21)
(0.516111 -0.448453 1.17638e-20)
(0.540957 -0.478192 -2.9088e-20)
(0.550271 -0.439335 -2.79313e-21)
(1.01544 -0.00440616 7.47659e-22)
(1.01578 -0.0044743 -1.01104e-21)
(1.01557 -0.00465175 0)
(0.262541 0.0304444 -1.738e-21)
(0.213552 0.0279743 3.16816e-20)
(1.00462 -0.00785008 7.70843e-22)
(1.04316 -0.0355323 -6.13316e-21)
(1.04463 -0.0356727 -5.52163e-21)
(1.20876 0.113283 6.3059e-20)
(1.21296 0.111943 2.13099e-20)
(1.20891 0.109606 -1.98223e-20)
(-0.128987 0.00899836 4.34848e-21)
(-0.108536 0.0117418 -1.10014e-19)
(1.25591 -0.157041 0)
(1.26107 -0.156315 0)
(1.25901 -0.162027 -2.81671e-21)
(1.16811 0.0568062 0)
(1.16709 0.0527638 0)
(1.16296 -0.0590165 0)
(1.16265 -0.0546352 -1.21249e-20)
(1.15913 -0.0577422 0)
(0.987041 -0.209268 -2.19133e-22)
(0.992359 -0.213954 2.37771e-22)
(0.98491 -0.21699 -2.31824e-21)
(1.02531 -0.00223013 0)
(1.02524 -0.00186029 2.85691e-21)
(1.02568 -0.00210153 -3.69858e-21)
(1.18786 -0.00832886 -2.0831e-20)
(1.18937 -0.0108472 -6.02601e-20)
(1.19123 -0.0072147 7.20145e-21)
(0.993959 -0.00566602 7.16278e-21)
(0.993757 -0.00535221 -3.68495e-21)
(1.20398 0.00697972 -1.95578e-20)
(1.20795 0.00520237 0)
(-0.0505196 -0.0122933 2.00229e-21)
(-0.0577035 -0.00864818 1.64706e-20)
(-0.0837554 -0.00747713 1.62272e-21)
(1.22762 0.103369 1.63301e-20)
(1.23196 0.103818 7.79946e-20)
(1.00193 -0.00017908 -4.13363e-24)
(1.00191 -0.000287899 -6.18869e-22)
(0.997878 -0.0189795 -2.31129e-21)
(0.997347 -0.0191767 2.19808e-21)
(1.02541 -0.00262924 0)
(1.02489 -0.00237434 -4.02258e-21)
(1.01275 -0.00158129 1.12909e-21)
(1.01262 -0.00169569 0)
(1.01255 -0.00149327 1.12112e-21)
(0.781092 -0.0536719 1.12204e-19)
(0.700707 -0.0451445 4.67659e-20)
(1.1007 -0.0949554 5.17607e-21)
(1.09785 -0.095234 -3.03279e-21)
(1.09992 -0.0983213 -1.66015e-20)
(1.0091 -0.0129796 -1.40386e-22)
(1.00909 -0.0132773 -6.83458e-23)
(1.00942 -0.0131756 -2.07013e-22)
(1.28239 -0.254301 9.14169e-20)
(1.28847 -0.262445 0)
(1.29562 -0.254648 0)
(0.9145 0.134315 0)
(0.977858 0.140838 0)
(1.05503 -0.0212204 -4.38054e-21)
(1.0562 -0.0211838 -3.90475e-21)
(1.05518 -0.0201778 -3.39128e-21)
(0.702955 0.058091 5.13998e-20)
(0.746325 0.0617954 4.34961e-20)
(0.0640837 0.0290804 3.92019e-20)
(0.0768116 -0.121883 0)
(-0.0767842 -0.027528 -5.8126e-20)
(1.22661 0.107734 1.75145e-22)
(1.22324 0.103151 -1.02141e-20)
(0.999472 -0.00261507 -5.75336e-21)
(0.999436 -0.0025509 -2.43019e-21)
(0.043368 0.0121715 1.51719e-20)
(0.0465892 0.0128724 -3.84157e-21)
(0.0988151 0.0122344 -2.41429e-20)
(0.897816 -0.0838193 -1.92897e-20)
(0.89466 -0.0791691 1.52891e-20)
(0.900107 -0.0793102 2.37698e-20)
(0.99921 -0.00309445 -8.70067e-22)
(0.999203 -0.00320137 -5.00433e-22)
(0.999124 -0.00320975 2.28498e-21)
(0.512991 -0.0366366 4.73065e-21)
(0.40362 -0.0267373 -2.44747e-20)
(1.10118 -0.0217704 0)
(1.09931 -0.0198085 -3.77146e-20)
(0.894357 -0.0885372 -1.12611e-20)
(0.900155 -0.0883551 -2.98688e-20)
(1.04257 0.00647119 6.20874e-22)
(1.04265 0.00713894 -4.87086e-21)
(1.04333 0.00663191 -4.8796e-21)
(1.12855 -0.0567245 2.10656e-20)
(1.12566 -0.0561028 1.10324e-21)
(1.12803 -0.0535144 2.89163e-20)
(1.2666 0.101266 9.09082e-20)
(1.26859 0.0986276 3.09007e-20)
(1.26618 0.0970109 -9.33784e-21)
(0.48519 -0.460387 2.99366e-20)
(0.495927 -0.426124 5.01482e-20)
(1.07824 -0.119246 9.04498e-22)
(1.07826 -0.115316 -4.34752e-21)
(0.930012 -0.321819 -1.48314e-21)
(0.939006 -0.331702 -2.5626e-21)
(0.942464 -0.317886 -3.47692e-21)
(1.02818 0.00306618 -3.11787e-21)
(1.02864 0.00323922 1.82324e-21)
(1.15831 0.0414754 3.66761e-20)
(1.15946 0.0448668 -8.55793e-21)
(1.15555 0.0443459 1.13512e-20)
(0.999518 -0.00750079 0)
(0.999534 -0.00787483 0)
(0.999702 -0.00758192 3.11657e-21)
(1.18477 0.00160493 -1.8469e-21)
(1.18241 -0.00177681 6.64239e-21)
(1.00849 -0.101185 1.2845e-22)
(1.01137 -0.0990913 4.25447e-22)
(1.20539 0.115199 2.0572e-20)
(1.20883 0.117549 1.65189e-20)
(-0.28046 0.00204164 1.03607e-20)
(-0.298893 0.00352041 6.7335e-20)
(-0.281397 0.000307284 6.15722e-20)
(1.01513 -0.00437791 6.75673e-22)
(1.0153 -0.00420731 2.3166e-21)
(1.04274 -0.0312468 0)
(1.04407 -0.0314364 2.49816e-21)
(1.04311 -0.0323747 -2.21206e-21)
(1.03672 -0.478629 1.20315e-20)
(1.05684 -0.475104 -7.66434e-21)
(1.05055 -0.500376 -2.13569e-20)
(1.04233 -0.0301905 -2.25562e-21)
(1.04142 -0.0310468 0)
(1.06594 0.00609957 1.50283e-21)
(1.06688 0.00485445 -4.98472e-21)
(1.18415 -0.00847927 2.75164e-20)
(0.644617 0.0128156 -6.98529e-21)
(0.741705 0.00573998 -4.17692e-20)
(0.67436 0.0107078 -4.53188e-20)
(-0.194468 0.00184878 -3.48842e-21)
(-0.216809 0.00346338 4.53736e-20)
(1.00313 -0.0311336 -8.8912e-22)
(1.00376 -0.030731 2.36768e-22)
(1.00294 -0.0303115 -1.90377e-21)
(1.21402 -0.125566 -4.12543e-23)
(1.20945 -0.121417 -1.33573e-20)
(1.20879 -0.127958 -4.00882e-20)
(0.175284 -0.0205022 -3.76731e-20)
(0.0643749 -0.0389191 5.3388e-21)
(0.212114 -0.00302278 2.06016e-21)
(1.24951 -0.480336 -3.31178e-20)
(1.23863 -0.460453 -1.19079e-21)
(1.0111 -0.0532451 -2.24821e-22)
(1.00981 -0.0526432 4.28599e-22)
(1.01108 -0.0517021 0)
(1.02954 -0.00790776 1.54826e-21)
(1.03017 -0.00811481 -3.52937e-21)
(1.02997 -0.00749238 -5.43625e-21)
(1.07978 -0.0732952 -1.65395e-20)
(1.08196 -0.0732531 1.64437e-21)
(1.08066 -0.0705987 -5.05492e-21)
(1.10397 -0.0939548 4.73721e-21)
(1.10161 -0.0911143 3.69378e-20)
(1.00451 -0.0308556 1.09548e-21)
(1.00525 -0.0306865 1.45839e-21)
(0.161093 -0.039573 2.84274e-20)
(0.253465 -0.016122 -4.59397e-21)
(1.27782 -0.246486 3.92619e-20)
(1.27273 -0.25422 4.60706e-20)
(1.07263 0.259128 -1.49668e-21)
(1.04779 0.255975 6.07689e-20)
(1.0598 0.255937 1.43504e-20)
(-0.0913381 0.0099468 1.17428e-20)
(-0.00884819 -0.0133521 -6.43559e-20)
(1.02452 -0.00474223 0)
(1.02485 -0.00444233 0)
(1.02432 -0.00432163 2.20165e-21)
(1.0152 -8.02955e-05 2.30746e-21)
(1.01516 -1.72224e-05 3.95915e-21)
(0.99554 -0.226579 5.55544e-22)
(0.98905 -0.229614 0)
(0.995881 -0.234918 3.25765e-21)
(0.152383 -0.00144451 -6.03034e-20)
(0.15392 -0.00650111 -3.38244e-20)
(0.920973 -0.0475413 3.24027e-22)
(0.922818 -0.0443322 -4.5357e-21)
(0.924646 -0.0474429 0)
(0.921114 -0.31245 9.79164e-22)
(1.2092 -0.0244691 2.36689e-20)
(1.20853 -0.0212434 -3.58394e-20)
(1.20595 -0.0237285 1.80236e-20)
(1.07435 -0.0778144 -1.41959e-20)
(1.07706 -0.078149 1.12058e-20)
(1.07499 -0.0807539 1.18901e-20)
(0.00148114 0.0114447 2.69142e-20)
(1.03628 -0.00478436 0)
(1.03595 -0.00414505 0)
(1.10961 0.242198 2.3418e-22)
(1.11013 0.238379 -1.99697e-20)
(1.11578 0.244631 9.07913e-23)
(0.17978 0.0233295 -5.3602e-21)
(1.01289 -0.00148264 1.16163e-21)
(1.01286 -0.0012773 -9.07635e-22)
(0.464405 0.118 1.90485e-20)
(0.414596 0.108422 0)
(0.433149 0.11145 -2.67218e-20)
(0.965713 -0.168249 9.95386e-22)
(0.968736 -0.173154 8.27243e-22)
(0.962093 -0.173544 -1.90804e-22)
(1.03387 -0.0202623 -4.87875e-21)
(1.03416 -0.0193213 -2.34707e-21)
(1.06854 -0.110388 5.06436e-21)
(1.07244 -0.112552 9.43078e-21)
(1.07188 -0.107518 -8.91846e-21)
(1.19452 -0.060295 7.33248e-21)
(1.19409 -0.0560405 2.70684e-21)
(1.19054 -0.0596929 4.32887e-20)
(1.04855 0.00415432 -2.78222e-21)
(1.04811 0.00484835 3.0615e-21)
(1.04915 0.00484797 7.51822e-21)
(0.999278 -0.00301096 -1.6151e-22)
(0.999176 -0.00300284 -6.85496e-22)
(-0.263522 -0.00450534 -1.63964e-20)
(-0.261178 -0.0059898 8.63639e-20)
(-0.237965 -0.00556387 0)
(1.08396 0.262666 -1.02638e-20)
(1.09138 0.260922 -3.61714e-20)
(1.00201 -0.0135637 -1.14151e-21)
(1.00228 -0.0138553 -1.40007e-21)
(1.00199 -0.0139831 5.43049e-22)
(-0.25795 -0.00504892 -9.64935e-21)
(-0.264395 -0.00284646 -8.97985e-20)
(-0.272266 -0.0014371 -8.06813e-20)
(0.00711106 0.0140419 6.01516e-20)
(1.25057 -0.157498 0)
(1.2529 -0.152143 0)
(0.998312 -0.00799281 -1.01721e-21)
(0.99822 -0.00835933 -3.20519e-21)
(0.998107 -0.00795904 -3.06557e-21)
(1.00301 -8.73969e-05 0)
(1.16671 0.226683 2.08904e-21)
(1.16415 0.225897 -7.74993e-21)
(1.14721 0.227318 -5.59948e-20)
(1.05378 -0.0213673 0)
(1.05472 -0.0225563 0)
(1.02535 -0.00454059 2.69133e-21)
(1.02551 -0.00505694 -8.32369e-22)
(1.03035 -0.00926339 0)
(1.03051 -0.00968488 2.75656e-21)
(1.03097 -0.00922371 0)
(0.948057 -0.0178277 2.41326e-21)
(0.945876 -0.0174529 2.17712e-20)
(0.947143 -0.015341 -5.14132e-21)
(1.21158 -0.253999 -3.50245e-20)
(1.21964 -0.257128 -6.64036e-20)
(1.19525 -0.0635602 -3.0785e-20)
(1.19838 -0.0600618 -5.20501e-20)
(1.07887 -0.0757385 1.43575e-20)
(1.07731 -0.0732026 -4.71933e-21)
(1.09474 -0.0941489 1.939e-20)
(1.09497 -0.0973031 3.40011e-20)
(1.02275 -0.125257 0)
(1.02402 -0.12924 0)
(0.953253 -0.225119 -5.70119e-21)
(0.953008 -0.231976 1.95599e-21)
(1.02771 0.00292105 -3.92906e-22)
(1.02809 0.00260659 0)
(0.999999 -0.00073442 5.54383e-22)
(1 -0.000738802 -3.33223e-21)
(1.27447 0.0367735 -7.55462e-21)
(1.27429 0.0367128 2.0345e-20)
(1.07614 -0.202326 -2.57044e-20)
(1.07343 -0.208091 8.19589e-21)
(1.08031 -0.207035 9.29948e-22)
(1.2184 -0.128873 2.6929e-20)
(1.21837 -0.122862 -6.71613e-20)
(0.639023 0.176626 -2.9187e-20)
(0.611275 0.161758 -3.48026e-20)
(0.917701 -0.0479802 -2.03154e-20)
(0.920038 -0.051045 2.80012e-20)
(1.01298 -0.0456993 -1.962e-22)
(1.01422 -0.0461097 2.48179e-22)
(1.00453 -0.000223177 0)
(1.00501 -0.000203866 -8.92987e-23)
(1.00625 -0.000212459 -2.21618e-24)
(1.10533 0.240797 1.43813e-20)
(1.10848 0.246195 -2.15972e-20)
(0.517825 0.127698 3.10297e-20)
(0.501702 0.124492 2.19767e-20)
(1.02554 -0.00304935 -2.28528e-21)
(1.02595 -0.00287325 2.13903e-21)
(1.00499 -0.00765336 1.21643e-22)
(1.00522 -0.00767363 -4.30674e-22)
(1.00495 -0.00734183 -7.62237e-23)
(1.02557 -0.00341754 5.25891e-23)
(1.02512 -0.0031305 1.20068e-21)
(0.971247 -0.062594 -3.62759e-21)
(0.969113 -0.0632727 -2.55943e-21)
(0.980892 -0.204727 2.99769e-22)
(0.987913 -0.202419 9.9944e-22)
(1.30427 -0.120231 -3.96037e-20)
(1.30186 -0.126441 1.68683e-20)
(0.988748 -0.0121327 -1.94029e-21)
(0.988382 -0.0116052 -3.62794e-21)
(0.968356 -0.0145761 0)
(0.96966 -0.0147064 -4.62923e-23)
(0.968957 -0.0133598 0)
(1.02207 -0.0045904 -1.80346e-21)
(1.02239 -0.0043819 0)
(1.02193 -0.00423311 0)
(0.626011 -0.560622 8.29393e-21)
(0.588784 -0.578303 6.06027e-21)
(0.971631 -0.443541 0)
(0.950515 -0.442734 3.59392e-21)
(1.23206 -0.0254603 0)
(1.23437 -0.0275096 2.92176e-20)
(1.23125 -0.0288188 1.36237e-20)
(1.14159 -0.299711 0)
(1.13896 -0.309402 -3.4453e-21)
(1.15166 -0.304725 0)
(1.05253 -0.00393071 1.90071e-21)
(1.0521 -0.00291949 -1.97018e-21)
(1.05344 -0.00313007 -1.54754e-20)
(1.27163 0.0248557 1.18136e-22)
(1.26616 0.0246405 -9.81205e-21)
(1.27023 0.0220389 3.41808e-20)