/*--------------------------------*- C++ -*----------------------------------*\
| =========                 |                                                 |
| \\      /  F ield         | OpenFOAM: The Open Source CFD Toolbox           |
|  \\    /   O peration     | Version:  v2012                                 |
|   \\  /    A nd           | Website:  www.openfoam.com                      |
|    \\/     M anipulation  |                                                 |
\*---------------------------------------------------------------------------*/
FoamFile
{
    version     2.0;
    format      ascii;
    class       volVectorField;
    location    "250";
    object      cellDisplacement;
}
// * * * * * * * * * * * * * * * * * * * * * * * * * * * * * * * * * * * * * //

dimensions      [0 1 0 0 0 0 0];


internalField   nonuniform List<vector> 
18355
(
(0 -8.77007e-05 0)
(0 -0.00025562 0)
(0 -1.90935e-05 0)
(0 -8.75679e-05 0)
(0 -0.000511843 0)
(0 -0.000458807 0)
(0 -0.000468562 0)
(0 -0.000510468 0)
(0 -3.55004e-05 0)
(0 -0.000470679 0)
(0 -0.000220062 0)
(0 -8.48454e-06 0)
(0 -7.96866e-06 0)
(0 -0.000384385 0)
(0 -6.11757e-05 0)
(0 -0.000220056 0)
(0 -8.36713e-05 0)
(0 -0.0002645 0)
(0 -4.01938e-05 0)
(0 -0.000474159 0)
(0 -0.000148883 0)
(0 -0.000150037 0)
(0 -0.000173141 0)
(0 -0.000461232 0)
(0 -0.000167846 0)
(0 -0.000416044 0)
(0 -0.000469935 0)
(0 -0.000154159 0)
(0 -2.72781e-05 0)
(0 -0.000226213 0)
(0 -0.000471202 0)
(0 -0.000167117 0)
(0 -0.000292202 0)
(0 -0.000159983 0)
(0 -1.19799e-06 0)
(0 -0.000373401 0)
(0 -7.06567e-05 0)
(0 -0.000377217 0)
(0 -0.000226685 0)
(0 -0.00023161 0)
(0 -8.6327e-06 0)
(0 -0.000220583 0)
(0 -0.000168272 0)
(0 -0.000237797 0)
(0 -0.000246176 0)
(0 -2.22224e-06 0)
(0 -0.000238384 0)
(0 -0.000233321 0)
(0 -0.000474292 0)
(0 -0.000441169 0)
(0 -3.00304e-05 0)
(0 -0.000134092 0)
(0 -0.000444758 0)
(0 -6.5264e-05 0)
(0 -0.000117868 0)
(0 -0.000477402 0)
(0 -8.44665e-06 0)
(0 -0.000237302 0)
(0 -0.000416066 0)
(0 -8.90011e-07 0)
(0 -0.000167518 0)
(0 -1.79624e-05 0)
(0 -6.79591e-05 0)
(0 -0.00040185 0)
(0 -0.000147714 0)
(0 -3.36489e-05 0)
(0 -0.000132417 0)
(0 -7.14099e-05 0)
(0 -0.000154277 0)
(0 -0.000499474 0)
(0 -0.000412389 0)
(0 -0.000121779 0)
(0 -0.00017026 0)
(0 -0.000278557 0)
(0 -0.000531298 0)
(0 -0.000161975 0)
(0 -0.000235252 0)
(0 -0.000169011 0)
(0 -0.000407105 0)
(0 -0.000531873 0)
(0 -0.000135312 0)
(0 -0.000535176 0)
(0 -0.000161216 0)
(0 -0.000139713 0)
(0 -0.000103928 0)
(0 -2.22182e-05 0)
(0 -3.08675e-05 0)
(0 -9.351e-05 0)
(0 -0.000298782 0)
(0 -9.61347e-05 0)
(0 -0.000391965 0)
(0 -0.000154333 0)
(0 -0.000534475 0)
(0 -0.000442649 0)
(0 -0.000516222 0)
(0 -0.000390689 0)
(0 -0.000239034 0)
(0 -0.000386769 0)
(0 -4.69511e-05 0)
(0 -0.000161082 0)
(0 -0.000104823 0)
(0 -0.000399179 0)
(0 -0.000438839 0)
(0 -5.20075e-06 0)
(0 -0.000138772 0)
(0 -0.000228006 0)
(0 -0.000151639 0)
(0 -0.00051767 0)
(0 -8.49658e-05 0)
(0 -0.000202102 0)
(0 -1.16883e-05 0)
(0 -1.39769e-05 0)
(0 -0.000192091 0)
(0 -0.000142666 0)
(0 -5.13072e-06 0)
(0 -0.000172923 0)
(0 -0.000393664 0)
(0 -0.000534452 0)
(0 -0.000155864 0)
(0 -0.000130523 0)
(0 -0.000497927 0)
(0 -1.77979e-05 0)
(0 -0.000396445 0)
(0 -9.10665e-05 0)
(0 -0.000535056 0)
(0 -2.57157e-06 0)
(0 -0.00047156 0)
(0 -7.17555e-05 0)
(0 -8.42458e-05 0)
(0 -0.000152582 0)
(0 -0.000248206 0)
(0 -0.000137854 0)
(0 -0.000186089 0)
(0 -3.2363e-05 0)
(0 -0.000104781 0)
(0 -0.000313777 0)
(0 -3.8119e-05 0)
(0 -0.000507023 0)
(0 -3.81938e-05 0)
(0 -0.00015429 0)
(0 -9.04647e-05 0)
(0 -0.000523101 0)
(0 -0.000256644 0)
(0 -0.00012018 0)
(0 -0.000107448 0)
(0 -1.56008e-05 0)
(0 -1.93187e-06 0)
(0 -1.14477e-05 0)
(0 -0.000196021 0)
(0 -2.09818e-05 0)
(0 -0.000148828 0)
(0 -0.0001312 0)
(0 -0.000420399 0)
(0 -0.000509454 0)
(0 -0.000175651 0)
(0 -8.5247e-05 0)
(0 -6.59282e-05 0)
(0 -2.80059e-05 0)
(0 -0.000260305 0)
(0 -7.35925e-05 0)
(0 -0.000250455 0)
(0 -0.000189785 0)
(0 -0.000203948 0)
(0 -0.000516175 0)
(0 -0.000263765 0)
(0 -0.00047098 0)
(0 -1.5067e-06 0)
(0 -9.32895e-05 0)
(0 -0.000185389 0)
(0 -9.23363e-05 0)
(0 -1.19955e-05 0)
(0 -3.33593e-05 0)
(0 -2.1334e-05 0)
(0 -0.000477304 0)
(0 -5.50854e-06 0)
(0 -1.15944e-05 0)
(0 -1.70609e-05 0)
(0 -5.83565e-06 0)
(0 -8.28189e-05 0)
(0 -0.000136964 0)
(0 -2.37006e-05 0)
(0 -0.000466596 0)
(0 -0.000152782 0)
(0 -0.000175258 0)
(0 -0.000465748 0)
(0 -0.000439675 0)
(0 -3.6308e-05 0)
(0 -0.000102569 0)
(0 -5.08503e-05 0)
(0 -0.000474204 0)
(0 -2.65788e-06 0)
(0 -4.52927e-05 0)
(0 -0.000270893 0)
(0 -0.000188503 0)
(0 -1.3118e-05 0)
(0 -6.33627e-06 0)
(0 -3.71777e-05 0)
(0 -8.66647e-05 0)
(0 -0.000263519 0)
(0 -0.000389151 0)
(0 -0.000435048 0)
(0 -0.000290267 0)
(0 -0.000232282 0)
(0 -3.26891e-05 0)
(0 -9.03069e-05 0)
(0 -0.000141982 0)
(0 -0.000189343 0)
(0 -0.000176735 0)
(0 -0.000275737 0)
(0 -0.000424836 0)
(0 -0.000187802 0)
(0 -0.000464166 0)
(0 -0.00042869 0)
(0 -0.000424898 0)
(0 -1.09435e-05 0)
(0 -0.00048067 0)
(0 -0.000140251 0)
(0 -7.19713e-05 0)
(0 -0.000147329 0)
(0 -0.000259314 0)
(0 -8.61193e-05 0)
(0 -0.000158377 0)
(0 -9.19962e-05 0)
(0 -0.000367798 0)
(0 -0.000490456 0)
(0 -0.000491558 0)
(0 -0.000166179 0)
(0 -0.000507841 0)
(0 -9.18303e-05 0)
(0 -0.00016067 0)
(0 -0.000460213 0)
(0 -0.000135865 0)
(0 -0.000343294 0)
(0 -0.000164405 0)
(0 -0.000517193 0)
(0 -0.0004879 0)
(0 -9.31706e-05 0)
(0 -2.21698e-06 0)
(0 -5.8561e-05 0)
(0 -0.000426857 0)
(0 -0.000280877 0)
(0 -8.36103e-05 0)
(0 -0.000422801 0)
(0 -0.000155988 0)
(0 -0.000145568 0)
(0 -0.000109641 0)
(0 -0.000213188 0)
(0 -0.000465916 0)
(0 -0.000464049 0)
(0 -0.000428119 0)
(0 -0.000405848 0)
(0 -0.000466247 0)
(0 -1.48418e-05 0)
(0 -0.000371751 0)
(0 -6.91339e-06 0)
(0 -0.000363015 0)
(0 -5.99501e-05 0)
(0 -1.68324e-05 0)
(0 -0.000491179 0)
(0 -0.000238486 0)
(0 -1.58101e-05 0)
(0 -0.000511571 0)
(0 -4.6234e-05 0)
(0 -4.56312e-05 0)
(0 -0.000232949 0)
(0 -0.000462633 0)
(0 -0.00051886 0)
(0 -4.76546e-05 0)
(0 -0.000241497 0)
(0 -0.000114052 0)
(0 -0.000478015 0)
(0 -0.000207317 0)
(0 -0.000295394 0)
(0 -7.00356e-05 0)
(0 -0.000143349 0)
(0 -0.000177207 0)
(0 -0.000314828 0)
(0 -0.000307563 0)
(0 -8.86337e-05 0)
(0 -0.000498937 0)
(0 -0.000307631 0)
(0 -0.000186762 0)
(0 -0.000177358 0)
(0 -0.000199584 0)
(0 -8.79089e-05 0)
(0 -0.00013545 0)
(0 -0.000141824 0)
(0 -9.45221e-06 0)
(0 -0.000142848 0)
(0 -2.00769e-05 0)
(0 -0.000285015 0)
(0 -4.08913e-05 0)
(0 -0.000148415 0)
(0 -0.000485943 0)
(0 -0.000517716 0)
(0 -4.98299e-05 0)
(0 -0.000182064 0)
(0 -8.9411e-05 0)
(0 -0.000180579 0)
(0 -0.000521963 0)
(0 -6.69729e-05 0)
(0 -0.000349895 0)
(0 -7.98671e-05 0)
(0 -4.49739e-05 0)
(0 -0.000279823 0)
(0 -0.0003158 0)
(0 -0.000431634 0)
(0 -6.33177e-05 0)
(0 -4.68157e-05 0)
(0 -4.20159e-05 0)
(0 -0.000333193 0)
(0 -1.68232e-05 0)
(0 -0.000280496 0)
(0 -0.000396863 0)
(0 -7.16983e-05 0)
(0 -0.000177171 0)
(0 -0.00027457 0)
(0 -0.000236457 0)
(0 -0.000191195 0)
(0 -2.61445e-05 0)
(0 -1.59758e-05 0)
(0 -2.12588e-05 0)
(0 -0.000328705 0)
(0 -0.000308495 0)
(0 -8.83106e-05 0)
(0 -0.00053329 0)
(0 -1.67e-05 0)
(0 -0.00013999 0)
(0 -9.03243e-05 0)
(0 -0.000136137 0)
(0 -0.000156607 0)
(0 -1.07914e-06 0)
(0 -0.00054458 0)
(0 -0.00024346 0)
(0 -0.000537413 0)
(0 -2.56655e-05 0)
(0 -0.000228896 0)
(0 -0.000287966 0)
(0 -9.08015e-06 0)
(0 -9.61295e-05 0)
(0 -0.000152312 0)
(0 -0.000323519 0)
(0 -0.000187385 0)
(0 -0.00030435 0)
(0 -0.000136067 0)
(0 -0.000472394 0)
(0 -0.000474635 0)
(0 -0.000307287 0)
(0 -2.8184e-05 0)
(0 -1.67589e-05 0)
(0 -0.00017842 0)
(0 -0.000318701 0)
(0 -1.16232e-05 0)
(0 -0.000468816 0)
(0 -0.000202093 0)
(0 -0.00045562 0)
(0 -0.000143944 0)
(0 -1.35417e-05 0)
(0 -0.000147309 0)
(0 -0.000175824 0)
(0 -3.31858e-05 0)
(0 -0.00016313 0)
(0 -1.03638e-06 0)
(0 -0.000355078 0)
(0 -0.000170164 0)
(0 -0.000242815 0)
(0 -0.000484449 0)
(0 -0.000189609 0)
(0 -2.46054e-05 0)
(0 -0.000535503 0)
(0 -0.000359141 0)
(0 -0.000322057 0)
(0 -0.000139212 0)
(0 -9.34285e-05 0)
(0 -8.26829e-06 0)
(0 -0.00045844 0)
(0 -0.00036714 0)
(0 -6.15922e-05 0)
(0 -0.000266497 0)
(0 -0.000481308 0)
(0 -0.000513039 0)
(0 -0.000163486 0)
(0 -3.75538e-05 0)
(0 -0.000259197 0)
(0 -4.51331e-05 0)
(0 -0.000440177 0)
(0 -1.49511e-05 0)
(0 -0.000200804 0)
(0 -0.000424618 0)
(0 -0.000128431 0)
(0 -2.70164e-05 0)
(0 -0.000199686 0)
(0 -0.000297794 0)
(0 -0.000483507 0)
(0 -2.58282e-05 0)
(0 -8.00439e-06 0)
(0 -0.000355329 0)
(0 -0.000487333 0)
(0 -1.59741e-05 0)
(0 -0.000509402 0)
(0 -2.2157e-05 0)
(0 -2.16556e-07 0)
(0 -4.2209e-05 0)
(0 -5.53687e-05 0)
(0 -0.000322721 0)
(0 -0.00046371 0)
(0 -0.000277767 0)
(0 -0.000533381 0)
(0 -0.000493483 0)
(0 -9.96572e-05 0)
(0 -5.29859e-05 0)
(0 -3.77088e-06 0)
(0 -2.65557e-05 0)
(0 -0.000157626 0)
(0 -0.000146373 0)
(0 -0.000152767 0)
(0 -2.96901e-05 0)
(0 -0.000479173 0)
(0 -1.56218e-05 0)
(0 -0.000152639 0)
(0 -3.36241e-05 0)
(0 -3.24134e-05 0)
(0 -0.000510584 0)
(0 -4.58494e-05 0)
(0 -0.000247336 0)
(0 -0.000298762 0)
(0 -4.48238e-05 0)
(0 -0.000152584 0)
(0 -0.000437567 0)
(0 -0.000469755 0)
(0 -0.000509156 0)
(0 -0.000140107 0)
(0 -4.0959e-05 0)
(0 -2.67354e-05 0)
(0 -0.000290723 0)
(0 -0.000221524 0)
(0 -0.000151572 0)
(0 -0.000261021 0)
(0 -6.87826e-05 0)
(0 -0.00018205 0)
(0 -0.00043465 0)
(0 -4.44199e-05 0)
(0 -5.51267e-05 0)
(0 -0.000238137 0)
(0 -0.000449986 0)
(0 -0.000490769 0)
(0 -7.5838e-06 0)
(0 -0.000259002 0)
(0 -1.01303e-05 0)
(0 -2.09896e-05 0)
(0 -8.6349e-06 0)
(0 -0.000512938 0)
(0 -0.000182268 0)
(0 -0.000479985 0)
(0 -8.88733e-05 0)
(0 -0.000110899 0)
(0 -5.69261e-06 0)
(0 -1.83771e-05 0)
(0 -0.000150553 0)
(0 -5.1285e-05 0)
(0 -6.99975e-05 0)
(0 -7.33408e-06 0)
(0 -0.00036449 0)
(0 -0.000249732 0)
(0 -8.01464e-05 0)
(0 -3.38306e-05 0)
(0 -0.000257338 0)
(0 -8.10211e-05 0)
(0 -0.00014655 0)
(0 -0.000197673 0)
(0 -0.000165843 0)
(0 -0.00012801 0)
(0 -0.000280219 0)
(0 -0.000146902 0)
(0 -1.26597e-05 0)
(0 -0.000156391 0)
(0 -4.72253e-05 0)
(0 -0.000172554 0)
(0 -0.00024027 0)
(0 -0.000110563 0)
(0 -0.000247903 0)
(0 -2.02509e-05 0)
(0 -8.95133e-06 0)
(0 -0.000156567 0)
(0 -0.000266125 0)
(0 -0.000242337 0)
(0 -0.000176067 0)
(0 -0.000429283 0)
(0 -0.000275057 0)
(0 -0.000397507 0)
(0 -0.000150842 0)
(0 -6.73795e-05 0)
(0 -8.49006e-05 0)
(0 -0.000289241 0)
(0 -0.000395178 0)
(0 -6.44647e-05 0)
(0 -8.36644e-05 0)
(0 -6.87473e-05 0)
(0 -0.000150651 0)
(0 -1.9601e-05 0)
(0 -0.000148167 0)
(0 -0.000151886 0)
(0 -1.84766e-05 0)
(0 -2.06981e-05 0)
(0 -0.000397896 0)
(0 -0.000149901 0)
(0 -0.000305799 0)
(0 -0.000124822 0)
(0 -0.000106165 0)
(0 2.72316e-07 0)
(0 -0.000111413 0)
(0 -0.000371405 0)
(0 -0.000370785 0)
(0 -4.22766e-05 0)
(0 -9.30876e-05 0)
(0 -2.8052e-05 0)
(0 -5.67265e-05 0)
(0 -0.000222795 0)
(0 2.19304e-07 0)
(0 -0.000149233 0)
(0 -3.34048e-05 0)
(0 -0.000170719 0)
(0 -0.000300329 0)
(0 -0.000159856 0)
(0 -0.000109985 0)
(0 -0.000115382 0)
(0 -0.000529526 0)
(0 -0.000368682 0)
(0 -0.000295499 0)
(0 -0.00051632 0)
(0 -0.000287727 0)
(0 -0.000115828 0)
(0 -0.000136525 0)
(0 -0.000106408 0)
(0 -0.000383945 0)
(0 -0.000149214 0)
(0 -0.000483641 0)
(0 -9.27668e-06 0)
(0 -0.000248369 0)
(0 -0.000407762 0)
(0 -0.000166812 0)
(0 -0.000197626 0)
(0 -0.000235123 0)
(0 -0.000183757 0)
(0 -0.000410396 0)
(0 -0.000343942 0)
(0 -0.000134322 0)
(0 -0.000102022 0)
(0 -0.000538876 0)
(0 -0.000245365 0)
(0 -0.000251038 0)
(0 -0.000393814 0)
(0 -2.55141e-05 0)
(0 -7.7861e-06 0)
(0 -0.000181216 0)
(0 -0.000146007 0)
(0 -8.3971e-05 0)
(0 -7.0509e-05 0)
(0 -1.07251e-05 0)
(0 -3.89361e-05 0)
(0 -0.000158095 0)
(0 -0.000114279 0)
(0 -1.12381e-05 0)
(0 -0.000201768 0)
(0 -4.62011e-05 0)
(0 -5.45363e-05 0)
(0 -2.43197e-05 0)
(0 -0.000161514 0)
(0 -4.73838e-05 0)
(0 -5.53148e-05 0)
(0 -2.61859e-05 0)
(0 -4.15817e-05 0)
(0 -1.68893e-05 0)
(0 -0.000248509 0)
(0 -2.21173e-05 0)
(0 -2.85181e-07 0)
(0 -0.000312282 0)
(0 -1.35678e-05 0)
(0 -0.000505093 0)
(0 -0.000487667 0)
(0 -6.83328e-06 0)
(0 -0.000154001 0)
(0 -0.000480505 0)
(0 -0.000542987 0)
(0 -1.9934e-05 0)
(0 -8.64663e-05 0)
(0 -0.000369472 0)
(0 -1.32002e-05 0)
(0 -0.000173101 0)
(0 -0.000171887 0)
(0 -8.70416e-05 0)
(0 -2.09505e-06 0)
(0 -0.000217952 0)
(0 -0.000351312 0)
(0 -0.000200011 0)
(0 -1.43645e-05 0)
(0 -0.000102728 0)
(0 -1.40569e-05 0)
(0 -0.000462516 0)
(0 -0.000107952 0)
(0 -0.000473645 0)
(0 -3.68897e-05 0)
(0 -0.000509515 0)
(0 -1.58356e-05 0)
(0 -0.0002104 0)
(0 -7.7529e-05 0)
(0 -9.95955e-05 0)
(0 -6.38782e-05 0)
(0 -0.000157756 0)
(0 -0.000228027 0)
(0 -9.44349e-05 0)
(0 -0.000419792 0)
(0 -0.000273036 0)
(0 -0.000193857 0)
(0 -1.63537e-05 0)
(0 -0.00010636 0)
(0 -0.000146496 0)
(0 -0.000306859 0)
(0 -0.000270341 0)
(0 -0.000265073 0)
(0 -0.000218673 0)
(0 -1.38392e-05 0)
(0 -0.000245422 0)
(0 -8.78183e-05 0)
(0 -0.000285369 0)
(0 -1.21046e-05 0)
(0 -0.000510272 0)
(0 -4.24457e-05 0)
(0 -5.50679e-06 0)
(0 -0.000542943 0)
(0 -0.000444255 0)
(0 -0.000421489 0)
(0 -2.56764e-05 0)
(0 -0.000467563 0)
(0 -2.7484e-05 0)
(0 -0.000259749 0)
(0 -8.47898e-05 0)
(0 -0.000103479 0)
(0 -0.000156234 0)
(0 -4.14122e-05 0)
(0 -0.000433806 0)
(0 -4.26249e-05 0)
(0 -1.90634e-05 0)
(0 -0.000526814 0)
(0 -0.000495596 0)
(0 -0.000525122 0)
(0 -0.000102303 0)
(0 -0.000238922 0)
(0 -0.000146371 0)
(0 -0.000253166 0)
(0 -0.000164214 0)
(0 -0.000541188 0)
(0 -0.000509947 0)
(0 -2.62086e-05 0)
(0 -0.000251378 0)
(0 -8.90296e-05 0)
(0 -1.79976e-05 0)
(0 -0.000220976 0)
(0 -4.01852e-05 0)
(0 -1.81954e-05 0)
(0 -0.000160446 0)
(0 -0.000484815 0)
(0 -0.000108246 0)
(0 -6.91038e-05 0)
(0 -5.42103e-05 0)
(0 -0.000108014 0)
(0 -0.000154457 0)
(0 -0.000157832 0)
(0 -0.000345985 0)
(0 -0.000207805 0)
(0 -6.39897e-05 0)
(0 -0.000125259 0)
(0 -5.00785e-05 0)
(0 -9.20444e-05 0)
(0 -0.000511536 0)
(0 -0.000256095 0)
(0 -0.000522185 0)
(0 -5.21234e-06 0)
(0 -0.000111819 0)
(0 -8.6053e-05 0)
(0 -0.000167311 0)
(0 -2.0011e-05 0)
(0 -0.000107947 0)
(0 -1.14114e-05 0)
(0 -1.2872e-05 0)
(0 -0.000164146 0)
(0 -0.000256065 0)
(0 -0.000125392 0)
(0 -5.15447e-05 0)
(0 -8.48717e-05 0)
(0 -0.000109526 0)
(0 -0.000192681 0)
(0 -1.91177e-05 0)
(0 -0.000258288 0)
(0 -0.000160938 0)
(0 -9.42959e-05 0)
(0 -0.000102822 0)
(0 -2.73374e-05 0)
(0 -1.00537e-05 0)
(0 -0.000441888 0)
(0 -0.000520955 0)
(0 -0.000497757 0)
(0 -0.000216601 0)
(0 -0.000139492 0)
(0 -0.000150338 0)
(0 -0.000163092 0)
(0 -1.64445e-05 0)
(0 -0.000160477 0)
(0 -0.00018947 0)
(0 -0.000217301 0)
(0 -0.000255878 0)
(0 -7.0027e-05 0)
(0 -1.4187e-05 0)
(0 -0.000262196 0)
(0 -4.11619e-05 0)
(0 -0.000474068 0)
(0 -0.000392105 0)
(0 -0.000248605 0)
(0 -0.000498703 0)
(0 -0.000510244 0)
(0 -0.000279487 0)
(0 -1.97195e-05 0)
(0 -9.33055e-05 0)
(0 -0.000172222 0)
(0 -0.00048676 0)
(0 -2.02373e-05 0)
(0 -2.33699e-05 0)
(0 -0.000513216 0)
(0 -1.11743e-05 0)
(0 -0.000347575 0)
(0 -3.81675e-05 0)
(0 -8.92955e-06 0)
(0 -4.54743e-05 0)
(0 -0.000163174 0)
(0 -0.000517783 0)
(0 -2.0555e-05 0)
(0 -5.92727e-05 0)
(0 -0.000525576 0)
(0 -0.000124903 0)
(0 -0.00046347 0)
(0 -7.29896e-05 0)
(0 -0.000315111 0)
(0 -1.61898e-05 0)
(0 -9.13001e-05 0)
(0 -4.58031e-05 0)
(0 -9.41755e-05 0)
(0 -0.000438582 0)
(0 -0.000183228 0)
(0 -0.000262698 0)
(0 -1.75664e-06 0)
(0 -0.000228523 0)
(0 -0.000516446 0)
(0 -0.000477457 0)
(0 -6.555e-05 0)
(0 -0.000158811 0)
(0 -1.20088e-05 0)
(0 -0.000188264 0)
(0 -0.000125929 0)
(0 -1.7137e-05 0)
(0 -0.000282976 0)
(0 -0.000158264 0)
(0 -0.000231085 0)
(0 -0.000239249 0)
(0 -0.000464941 0)
(0 -0.000247973 0)
(0 -0.000465965 0)
(0 -0.000163916 0)
(0 -0.000237777 0)
(0 -3.57174e-05 0)
(0 -0.000152597 0)
(0 -0.00033453 0)
(0 -0.000326456 0)
(0 -5.59696e-06 0)
(0 -0.000158779 0)
(0 -8.84289e-05 0)
(0 -0.000235677 0)
(0 -7.35994e-06 0)
(0 -0.000182209 0)
(0 -0.000165474 0)
(0 -0.000323021 0)
(0 -0.000465047 0)
(0 -0.000255438 0)
(0 -0.000316878 0)
(0 -0.000226051 0)
(0 -0.000262946 0)
(0 -0.00026908 0)
(0 -0.000152965 0)
(0 -0.000287165 0)
(0 -0.000158616 0)
(0 -0.000161649 0)
(0 -0.000251022 0)
(0 -9.5082e-05 0)
(0 -0.000395959 0)
(0 -0.000256825 0)
(0 -0.000144485 0)
(0 -5.65359e-05 0)
(0 -3.72075e-05 0)
(0 -0.000305215 0)
(0 -5.57727e-05 0)
(0 -0.00019689 0)
(0 -0.000507787 0)
(0 -0.000392057 0)
(0 -0.000469837 0)
(0 3.85435e-08 0)
(0 -2.8379e-05 0)
(0 -0.000290639 0)
(0 -0.000144521 0)
(0 -0.000254064 0)
(0 -0.000362415 0)
(0 -0.000270447 0)
(0 -0.000145735 0)
(0 -0.000513443 0)
(0 -0.00014748 0)
(0 -5.43924e-05 0)
(0 -0.00036541 0)
(0 -1.11408e-05 0)
(0 -0.000170839 0)
(0 -3.11865e-05 0)
(0 -6.09033e-05 0)
(0 -3.32859e-06 0)
(0 -0.000254859 0)
(0 -4.61303e-05 0)
(0 -3.10841e-05 0)
(0 -0.000544461 0)
(0 -5.37055e-05 0)
(0 -7.74424e-05 0)
(0 -0.00015739 0)
(0 -2.47717e-05 0)
(0 -0.000239347 0)
(0 -0.000375635 0)
(0 -0.000129791 0)
(0 -4.23951e-05 0)
(0 -0.000473948 0)
(0 -0.000535506 0)
(0 -7.73212e-05 0)
(0 -8.22837e-05 0)
(0 -0.000203316 0)
(0 -9.89827e-05 0)
(0 -7.86049e-06 0)
(0 -5.13355e-05 0)
(0 -9.88105e-05 0)
(0 -1.78289e-05 0)
(0 -1.09009e-06 0)
(0 -0.000253057 0)
(0 -0.000250693 0)
(0 -0.000158796 0)
(0 -0.000105806 0)
(0 -2.89615e-05 0)
(0 -0.000497893 0)
(0 -2.9369e-05 0)
(0 -1.76377e-05 0)
(0 -0.000280941 0)
(0 -0.000150964 0)
(0 -0.000439217 0)
(0 -0.000383378 0)
(0 1.03529e-07 0)
(0 -0.000499357 0)
(0 -0.000170317 0)
(0 -0.00015602 0)
(0 -3.34248e-05 0)
(0 -0.000257729 0)
(0 -0.000305928 0)
(0 -0.000455144 0)
(0 -7.40034e-06 0)
(0 -0.000134118 0)
(0 -0.000370483 0)
(0 -0.000282488 0)
(0 -0.000206191 0)
(0 -0.000269257 0)
(0 -0.000184272 0)
(0 -0.000303249 0)
(0 -0.000203789 0)
(0 -0.00050461 0)
(0 -0.000223941 0)
(0 -1.8617e-05 0)
(0 -1.30954e-05 0)
(0 -0.000282652 0)
(0 -0.000493231 0)
(0 -0.000481899 0)
(0 -9.15936e-05 0)
(0 -2.65776e-05 0)
(0 -0.000454384 0)
(0 -2.05537e-05 0)
(0 -6.71927e-05 0)
(0 -0.000172924 0)
(0 -0.000492077 0)
(0 -2.64553e-05 0)
(0 -0.000257639 0)
(0 -0.000461198 0)
(0 -0.000190149 0)
(0 -0.000389882 0)
(0 -6.38712e-05 0)
(0 -0.000258895 0)
(0 -0.000319045 0)
(0 -2.63444e-05 0)
(0 -4.336e-05 0)
(0 -0.000341486 0)
(0 -7.76972e-05 0)
(0 -0.000202866 0)
(0 -5.07174e-05 0)
(0 -7.10227e-05 0)
(0 -0.000156354 0)
(0 -8.74021e-05 0)
(0 -0.000418884 0)
(0 -0.000517432 0)
(0 -0.000338565 0)
(0 -6.68206e-06 0)
(0 -0.000186229 0)
(0 -0.000345724 0)
(0 -0.000161691 0)
(0 -0.000349948 0)
(0 -0.000259386 0)
(0 -0.000157535 0)
(0 -0.0004023 0)
(0 -4.30085e-05 0)
(0 -0.000418526 0)
(0 -9.68333e-06 0)
(0 -0.000188542 0)
(0 -6.91131e-05 0)
(0 -0.000343434 0)
(0 -0.000190801 0)
(0 -0.000494527 0)
(0 -0.000472725 0)
(0 -0.000170434 0)
(0 -0.000192973 0)
(0 -0.000189054 0)
(0 -4.01486e-05 0)
(0 -0.000266288 0)
(0 -0.000421064 0)
(0 -0.000514368 0)
(0 -0.000478092 0)
(0 -0.00035316 0)
(0 -0.000338191 0)
(0 -3.33089e-05 0)
(0 -2.75697e-05 0)
(0 -3.44859e-05 0)
(0 -0.000245511 0)
(0 -0.000184945 0)
(0 -0.000275572 0)
(0 -0.000498555 0)
(0 -0.000511896 0)
(0 -0.000311126 0)
(0 -7.21809e-05 0)
(0 -0.000487179 0)
(0 -0.000310374 0)
(0 -0.000220416 0)
(0 -5.78926e-05 0)
(0 -5.70203e-05 0)
(0 -0.000315732 0)
(0 -0.000212825 0)
(0 -0.000100383 0)
(0 -0.000160354 0)
(0 -0.000235752 0)
(0 -8.18368e-05 0)
(0 -0.000230661 0)
(0 -0.000340834 0)
(0 -0.000235432 0)
(0 -9.55332e-05 0)
(0 -1.31638e-05 0)
(0 -6.13192e-05 0)
(0 -4.17177e-05 0)
(0 -7.97528e-05 0)
(0 -6.28534e-06 0)
(0 -4.55083e-05 0)
(0 -0.000163653 0)
(0 -0.000352557 0)
(0 -0.000322177 0)
(0 -0.000208291 0)
(0 -0.000134329 0)
(0 -0.000542608 0)
(0 -0.000374324 0)
(0 -0.000518105 0)
(0 -6.80546e-05 0)
(0 -0.000527202 0)
(0 -2.55307e-05 0)
(0 -0.000482737 0)
(0 -3.15139e-05 0)
(0 -0.000324064 0)
(0 -0.000347919 0)
(0 -0.000178774 0)
(0 -0.0002745 0)
(0 -7.40968e-05 0)
(0 -5.09296e-05 0)
(0 -3.96117e-05 0)
(0 -1.37655e-05 0)
(0 -0.000146553 0)
(0 -0.000102478 0)
(0 -0.00022547 0)
(0 -1.8245e-05 0)
(0 -0.000290377 0)
(0 -0.000501794 0)
(0 -0.000274765 0)
(0 -0.000189924 0)
(0 -0.000442708 0)
(0 -3.97575e-05 0)
(0 -0.00034756 0)
(0 -0.000252513 0)
(0 -7.22543e-05 0)
(0 -0.000215018 0)
(0 -2.51654e-05 0)
(0 -1.34266e-05 0)
(0 -0.000268045 0)
(0 -9.48253e-06 0)
(0 -0.000442807 0)
(0 -8.07471e-06 0)
(0 -0.000290454 0)
(0 -0.000230164 0)
(0 -0.000528536 0)
(0 -9.34958e-05 0)
(0 -0.000214052 0)
(0 -0.000193353 0)
(0 -2.02847e-05 0)
(0 -0.00021498 0)
(0 -0.000263436 0)
(0 -0.000121505 0)
(0 -0.000165827 0)
(0 -0.000263542 0)
(0 -8.97126e-05 0)
(0 -0.00016912 0)
(0 -0.000313452 0)
(0 -0.00016684 0)
(0 -1.96015e-05 0)
(0 -7.6575e-05 0)
(0 -0.000268387 0)
(0 -6.81082e-05 0)
(0 -9.67905e-05 0)
(0 -4.10734e-05 0)
(0 -3.32771e-05 0)
(0 -0.000257171 0)
(0 -0.000223533 0)
(0 -0.000491181 0)
(0 -0.000467951 0)
(0 -0.000322779 0)
(0 -0.000160414 0)
(0 -0.000145102 0)
(0 -1.60876e-05 0)
(0 -0.000219825 0)
(0 -7.90839e-05 0)
(0 -0.000146208 0)
(0 -0.000105775 0)
(0 -0.000271795 0)
(0 -3.80596e-06 0)
(0 -0.000125299 0)
(0 -0.000438255 0)
(0 -0.000521106 0)
(0 -0.000249917 0)
(0 -0.000500542 0)
(0 -0.000207555 0)
(0 -0.000100055 0)
(0 -3.55401e-05 0)
(0 -2.60404e-06 0)
(0 -7.71888e-06 0)
(0 -5.17527e-05 0)
(0 -9.88448e-06 0)
(0 -0.000276119 0)
(0 -0.000302059 0)
(0 -0.00018434 0)
(0 -0.000479576 0)
(0 -0.000122436 0)
(0 -0.000167188 0)
(0 -0.000209326 0)
(0 -0.00016114 0)
(0 -0.000405809 0)
(0 -1.31247e-05 0)
(0 -0.000279786 0)
(0 -0.000126668 0)
(0 -0.000315266 0)
(0 -0.000168087 0)
(0 -1.5838e-05 0)
(0 -6.06234e-06 0)
(0 -1.41401e-05 0)
(0 -0.000176287 0)
(0 -0.000473175 0)
(0 -0.000150711 0)
(0 -0.000359117 0)
(0 -6.43789e-06 0)
(0 -7.2049e-05 0)
(0 -1.9544e-05 0)
(0 -0.000186019 0)
(0 -0.000138936 0)
(0 -1.18229e-05 0)
(0 -0.000123867 0)
(0 -0.000145103 0)
(0 -2.96505e-05 0)
(0 -0.000360171 0)
(0 -3.3476e-05 0)
(0 -0.000215353 0)
(0 -3.0648e-05 0)
(0 -0.000109102 0)
(0 -0.000157857 0)
(0 -0.000495006 0)
(0 -0.000247498 0)
(0 -0.00014792 0)
(0 -8.54874e-05 0)
(0 -0.000382699 0)
(0 -2.56579e-06 0)
(0 -1.3104e-05 0)
(0 -0.000104803 0)
(0 -7.72738e-05 0)
(0 -0.00019856 0)
(0 -0.000131841 0)
(0 -3.43781e-05 0)
(0 -7.28491e-06 0)
(0 -0.000351615 0)
(0 -9.2351e-05 0)
(0 -0.000433622 0)
(0 -5.65192e-06 0)
(0 -0.000541107 0)
(0 -9.07413e-05 0)
(0 -6.91612e-05 0)
(0 -4.01027e-05 0)
(0 -6.79296e-06 0)
(0 -0.0002943 0)
(0 -0.000466516 0)
(0 -0.00024878 0)
(0 -0.000540805 0)
(0 -0.000173624 0)
(0 -4.17591e-05 0)
(0 -0.000481067 0)
(0 -0.000126032 0)
(0 -1.67999e-05 0)
(0 -0.000105223 0)
(0 -0.000250048 0)
(0 -0.000305454 0)
(0 -0.000512559 0)
(0 -0.000457651 0)
(0 -0.000128566 0)
(0 -0.000147028 0)
(0 -0.000166707 0)
(0 -9.96284e-06 0)
(0 -0.00024196 0)
(0 -0.000313169 0)
(0 -7.63151e-05 0)
(0 -0.00018997 0)
(0 -0.000129922 0)
(0 -0.00016842 0)
(0 -5.40538e-05 0)
(0 -0.000282904 0)
(0 -0.00048434 0)
(0 -0.00033251 0)
(0 -0.000256845 0)
(0 -0.00024635 0)
(0 -2.6317e-05 0)
(0 -0.000250435 0)
(0 -0.000477678 0)
(0 -2.64852e-05 0)
(0 -0.000149192 0)
(0 -0.000184311 0)
(0 -0.000150016 0)
(0 -0.000371756 0)
(0 -0.000214969 0)
(0 -0.000385746 0)
(0 -0.000244015 0)
(0 -0.000523121 0)
(0 -0.000512378 0)
(0 -0.000380935 0)
(0 -1.58862e-05 0)
(0 -4.82306e-05 0)
(0 -2.87426e-05 0)
(0 -0.000106803 0)
(0 -0.000120815 0)
(0 -0.000522768 0)
(0 -0.00045275 0)
(0 -0.000164667 0)
(0 -0.000169727 0)
(0 -0.000180191 0)
(0 -8.69769e-05 0)
(0 -0.000269037 0)
(0 -0.000272281 0)
(0 -4.11781e-05 0)
(0 -0.000163183 0)
(0 -5.86849e-06 0)
(0 -0.000140431 0)
(0 -0.000145289 0)
(0 -0.000162607 0)
(0 -1.65947e-05 0)
(0 -7.32271e-05 0)
(0 -2.71528e-06 0)
(0 -0.000440385 0)
(0 -9.38219e-05 0)
(0 -0.000195067 0)
(0 -0.000227361 0)
(0 -0.000500543 0)
(0 -0.000125382 0)
(0 -0.000107961 0)
(0 -4.44604e-05 0)
(0 -0.000258065 0)
(0 -3.20886e-05 0)
(0 -3.82913e-05 0)
(0 -0.000326596 0)
(0 -8.32633e-05 0)
(0 -0.000308859 0)
(0 -0.000444519 0)
(0 -0.000175649 0)
(0 -0.00023979 0)
(0 -2.31957e-05 0)
(0 -0.000160219 0)
(0 -0.000202967 0)
(0 -0.000437419 0)
(0 -0.000230224 0)
(0 -0.000111743 0)
(0 -8.75396e-06 0)
(0 -0.000388993 0)
(0 -0.000504222 0)
(0 -0.000165861 0)
(0 -0.000145931 0)
(0 -0.000411262 0)
(0 -0.000463975 0)
(0 -9.67602e-05 0)
(0 -0.00027742 0)
(0 -0.000143986 0)
(0 -0.000232536 0)
(0 -0.000524606 0)
(0 -5.94057e-06 0)
(0 -0.000294822 0)
(0 -9.05819e-05 0)
(0 -4.52587e-05 0)
(0 -5.49602e-05 0)
(0 -1.04486e-05 0)
(0 -0.000149695 0)
(0 -0.00045003 0)
(0 -0.000374467 0)
(0 -0.000270207 0)
(0 -0.000243704 0)
(0 -0.000105969 0)
(0 -0.000152209 0)
(0 -0.000113822 0)
(0 -0.000464853 0)
(0 -0.000304257 0)
(0 -5.45272e-05 0)
(0 -0.000145916 0)
(0 -0.00038857 0)
(0 -0.000308474 0)
(0 -0.000154651 0)
(0 -8.95556e-05 0)
(0 -1.75918e-05 0)
(0 -0.000234009 0)
(0 -0.000333889 0)
(0 -0.000410202 0)
(0 -3.17004e-05 0)
(0 -0.000398321 0)
(0 -0.000109311 0)
(0 -5.1558e-05 0)
(0 -0.000357935 0)
(0 -0.000166832 0)
(0 -0.000221031 0)
(0 -0.000100627 0)
(0 -0.000299071 0)
(0 -0.000210926 0)
(0 -7.16845e-06 0)
(0 -0.000169855 0)
(0 -0.000215196 0)
(0 -0.000515023 0)
(0 -4.42531e-05 0)
(0 -0.000174278 0)
(0 -0.000380517 0)
(0 -0.000371235 0)
(0 -7.29259e-05 0)
(0 -2.17057e-06 0)
(0 -2.65515e-05 0)
(0 -0.000160229 0)
(0 -4.99006e-05 0)
(0 -7.74666e-05 0)
(0 -0.000104558 0)
(0 -0.000542732 0)
(0 -0.000223736 0)
(0 -8.39401e-05 0)
(0 -6.29089e-05 0)
(0 -1.80459e-05 0)
(0 -0.000256211 0)
(0 -0.000170154 0)
(0 -0.00024844 0)
(0 -0.000460376 0)
(0 -0.000172056 0)
(0 -0.000226226 0)
(0 -0.00011196 0)
(0 -0.000242145 0)
(0 -0.000426814 0)
(0 -0.000212561 0)
(0 -7.06282e-06 0)
(0 -1.52113e-05 0)
(0 -0.000226154 0)
(0 -0.00034203 0)
(0 -0.000151736 0)
(0 -0.000111843 0)
(0 -0.000181143 0)
(0 -0.000354665 0)
(0 -0.000301472 0)
(0 -0.000197235 0)
(0 -0.000310584 0)
(0 -0.000258769 0)
(0 -0.000132194 0)
(0 -0.000391319 0)
(0 -3.25088e-05 0)
(0 -0.000241646 0)
(0 -0.000432663 0)
(0 -7.14505e-05 0)
(0 -0.000255082 0)
(0 -0.000377581 0)
(0 -3.37977e-05 0)
(0 -0.000395374 0)
(0 -5.50345e-05 0)
(0 -5.99202e-05 0)
(0 -0.000384955 0)
(0 -0.000389015 0)
(0 -0.000229307 0)
(0 -1.86298e-05 0)
(0 -1.88612e-05 0)
(0 -0.000194441 0)
(0 -0.000473447 0)
(0 -2.61415e-05 0)
(0 -0.000332533 0)
(0 -2.5933e-05 0)
(0 -0.000227795 0)
(0 -0.000262085 0)
(0 -0.000470527 0)
(0 -0.000332423 0)
(0 -0.000154207 0)
(0 -5.56515e-05 0)
(0 -0.000151913 0)
(0 -1.25353e-05 0)
(0 -0.000261292 0)
(0 -0.000349517 0)
(0 -0.000245721 0)
(0 -8.30204e-06 0)
(0 -4.88808e-05 0)
(0 -6.10634e-05 0)
(0 -0.000513716 0)
(0 -0.000431252 0)
(0 -0.000540479 0)
(0 -0.000526737 0)
(0 -0.000466105 0)
(0 -0.000297706 0)
(0 -0.000108315 0)
(0 -7.2386e-05 0)
(0 -0.000184804 0)
(0 -0.000181887 0)
(0 -6.92038e-05 0)
(0 -0.000533621 0)
(0 -0.000142187 0)
(0 -0.000461439 0)
(0 -1.68495e-05 0)
(0 -0.000359888 0)
(0 -0.000395361 0)
(0 -0.000107656 0)
(0 -4.72451e-05 0)
(0 -1.51838e-05 0)
(0 -0.000513261 0)
(0 -1.29919e-05 0)
(0 -0.000365122 0)
(0 -0.000434519 0)
(0 -0.000157348 0)
(0 -0.00015767 0)
(0 -0.00021346 0)
(0 -5.37201e-06 0)
(0 -4.28221e-05 0)
(0 -0.000218896 0)
(0 -0.000450918 0)
(0 -2.55493e-05 0)
(0 -0.000195706 0)
(0 -0.00010888 0)
(0 -0.000223296 0)
(0 -0.000462489 0)
(0 -2.71463e-05 0)
(0 -0.000125642 0)
(0 -7.92773e-05 0)
(0 -0.000486793 0)
(0 -0.000171255 0)
(0 -0.000330675 0)
(0 -9.979e-05 0)
(0 -7.29566e-05 0)
(0 -0.000117074 0)
(0 -0.000242127 0)
(0 -0.000390617 0)
(0 -1.39832e-05 0)
(0 -0.000460651 0)
(0 -0.000424903 0)
(0 -0.000106144 0)
(0 -9.71311e-05 0)
(0 -0.000336708 0)
(0 -7.44114e-05 0)
(0 -1.82768e-05 0)
(0 -0.000174732 0)
(0 -0.000154774 0)
(0 -0.000153519 0)
(0 -2.0763e-06 0)
(0 -8.67408e-05 0)
(0 -6.6756e-06 0)
(0 -0.000486841 0)
(0 -2.79638e-05 0)
(0 -0.000478271 0)
(0 -3.35754e-05 0)
(0 -0.000541928 0)
(0 -0.00031205 0)
(0 -7.37063e-05 0)
(0 -0.000285293 0)
(0 -0.000104938 0)
(0 -0.000187576 0)
(0 -0.000533616 0)
(0 -0.000339927 0)
(0 -0.0001843 0)
(0 -0.000393812 0)
(0 -0.000248875 0)
(0 -0.000140682 0)
(0 -4.64555e-05 0)
(0 -0.000188662 0)
(0 -0.000220661 0)
(0 -0.000119345 0)
(0 -0.000292236 0)
(0 -7.83451e-05 0)
(0 -0.000147224 0)
(0 -6.13522e-05 0)
(0 -0.00054143 0)
(0 -4.5999e-05 0)
(0 -0.000461948 0)
(0 -8.07398e-05 0)
(0 -7.71114e-05 0)
(0 -0.000103012 0)
(0 -2.51282e-05 0)
(0 -0.000271146 0)
(0 -0.000203082 0)
(0 -0.000373236 0)
(0 -0.000444172 0)
(0 -0.000287067 0)
(0 -2.52569e-05 0)
(0 -0.000222955 0)
(0 -0.000429322 0)
(0 -0.000200122 0)
(0 -2.68669e-05 0)
(0 -9.00056e-05 0)
(0 -0.000146053 0)
(0 -6.9624e-05 0)
(0 -0.00042693 0)
(0 -0.000374064 0)
(0 -0.000276009 0)
(0 -9.51108e-05 0)
(0 -0.000319732 0)
(0 2.02731e-07 0)
(0 -0.000169462 0)
(0 -1.61067e-05 0)
(0 -0.000494588 0)
(0 -0.000402285 0)
(0 -2.38509e-05 0)
(0 -0.000374699 0)
(0 -5.68201e-05 0)
(0 -0.000139094 0)
(0 -0.000454178 0)
(0 -5.29721e-06 0)
(0 -0.000109656 0)
(0 -7.79626e-05 0)
(0 -0.000492802 0)
(0 -0.000161887 0)
(0 -0.000517145 0)
(0 -2.25105e-05 0)
(0 -0.000402037 0)
(0 -0.000183934 0)
(0 -0.000125473 0)
(0 -0.000200463 0)
(0 -4.22717e-05 0)
(0 -5.02757e-05 0)
(0 -9.61273e-05 0)
(0 -0.000223134 0)
(0 -0.000103633 0)
(0 -0.000364979 0)
(0 -5.49416e-05 0)
(0 -0.000369765 0)
(0 -0.000371132 0)
(0 -8.51322e-05 0)
(0 -3.13882e-05 0)
(0 -0.000373462 0)
(0 -0.000142508 0)
(0 -0.000288814 0)
(0 -6.90948e-06 0)
(0 -0.000394438 0)
(0 -0.000339496 0)
(0 -0.000419208 0)
(0 -9.94824e-05 0)
(0 -5.82687e-05 0)
(0 -5.37495e-05 0)
(0 -0.000456017 0)
(0 -0.000128322 0)
(0 -0.000186064 0)
(0 -0.000240411 0)
(0 -0.000149833 0)
(0 -0.000133765 0)
(0 -4.43549e-05 0)
(0 -9.18194e-05 0)
(0 -0.000171323 0)
(0 -0.000384177 0)
(0 -0.000122478 0)
(0 -0.000116585 0)
(0 -0.000166657 0)
(0 -9.90558e-05 0)
(0 -0.000511888 0)
(0 -0.000466862 0)
(0 -0.000511086 0)
(0 -0.000178022 0)
(0 -0.000156274 0)
(0 -7.92353e-05 0)
(0 -8.5274e-05 0)
(0 -4.33947e-05 0)
(0 -0.000251322 0)
(0 -0.000350403 0)
(0 -0.000139917 0)
(0 -0.000537393 0)
(0 -0.000421936 0)
(0 -8.94617e-05 0)
(0 -8.19515e-05 0)
(0 -0.000130112 0)
(0 -0.000187587 0)
(0 -3.02865e-05 0)
(0 -8.6039e-05 0)
(0 -0.000218048 0)
(0 -4.05378e-05 0)
(0 -0.000362632 0)
(0 -7.30977e-05 0)
(0 -7.17736e-05 0)
(0 -0.000310253 0)
(0 -2.9923e-05 0)
(0 -7.60887e-05 0)
(0 -0.00034759 0)
(0 -0.000348516 0)
(0 -0.000454773 0)
(0 -1.4217e-05 0)
(0 -0.000509771 0)
(0 -0.000345511 0)
(0 -0.000347528 0)
(0 -1.26138e-05 0)
(0 -1.94164e-05 0)
(0 -0.000154498 0)
(0 -3.58181e-05 0)
(0 -2.40217e-05 0)
(0 -8.54945e-05 0)
(0 -0.000341958 0)
(0 -0.000241713 0)
(0 -0.000199662 0)
(0 -3.2635e-05 0)
(0 -0.000253225 0)
(0 4.78347e-07 0)
(0 -0.000258549 0)
(0 -0.000525664 0)
(0 -8.22461e-05 0)