/*--------------------------------*- C++ -*----------------------------------*\
| =========                 |                                                 |
| \\      /  F ield         | OpenFOAM: The Open Source CFD Toolbox           |
|  \\    /   O peration     | Version:  v2012                                 |
|   \\  /    A nd           | Website:  www.openfoam.com                      |
|    \\/     M anipulation  |                                                 |
\*---------------------------------------------------------------------------*/
FoamFile
{
    version     2.0;
    format      ascii;
    class       volScalarField;
    location    "250";
    object      p;
}
// * * * * * * * * * * * * * * * * * * * * * * * * * * * * * * * * * * * * * //

dimensions      [0 2 -2 0 0 0 0];


internalField   nonuniform List<scalar> 
18355
(
-0.0202597
0.00222824
0.0122189
-0.00376908
0.00274225
0.00563774
0.00312645
0.00295761
0.00124087
0.00199854
0.000345616
-0.0766152
-0.0773801
-0.0321885
0.000973652
0.00245486
-0.00362556
0.00193777
0.0320015
0.00315575
-0.013996
-0.0140017
0.00190809
0.0065964
0.00187453
0.00299161
0.00318446
-0.00352313
0.00117552
0.00129704
-0.0279173
0.00121797
0.00261184
0.00235154
0.000175273
0.00229836
-0.0310447
0.00249166
0.00174869
-0.0044386
-0.0109657
0.000812538
0.00237007
0.00219807
0.00220055
-0.101266
-0.00153841
-0.00153331
-0.036236
0.00265936
0.00208215
-0.070284
0.00271157
0.0187735
-0.0101974
0.00324752
0.00118424
-0.0499148
0.00303643
-0.107983
0.00236692
-0.048012
0.0156627
0.00294604
0.000321051
0.00206835
-0.0144094
-0.0301936
0.00231064
0.0025846
0.00243022
-0.0102426
0.000412336
0.00363424
0.00573677
0.00234398
-0.0381842
0.00236013
0.00239574
0.00560341
-0.0137786
0.00491428
0.00233077
-0.0112904
-0.00292613
0.0021917
-0.00171009
-0.00806893
0.000615223
-0.00731989
-0.0924989
-0.00684701
0.00599356
0.00268543
-0.00802935
0.00273659
-0.00021823
0.00277161
0.000384096
-0.0124464
-0.00345108
0.00231678
0.00264708
0.000158697
-0.0128365
0.00246019
0.000742474
-0.0128258
-0.0164454
0.00242841
0.00121149
0.00201771
0.00155381
-0.0111487
-0.059925
-0.00362721
0.00228442
0.00471172
-0.0114916
-0.015331
0.00521529
0.00899926
-0.0899014
-0.00507851
0.0061103
-0.0931106
0.0032162
-0.00373688
-0.0153115
-0.0135051
-0.000123639
-0.0631099
-0.00712499
-0.0145261
-0.00039931
0.000916356
0.0317962
-0.000131163
-0.00681368
-0.00845286
-0.024758
0.00493518
-0.000768093
-0.104235
-0.00106057
-0.0105405
-0.0895906
0.000197372
0.00166945
0.00208529
-0.00348529
-0.0154711
0.00301225
0.00435556
0.00238801
0.00182743
-0.00363031
0.00210899
-0.000787956
0.00182277
0.00139149
-0.00702204
0.0024296
0.00466735
0.00319637
0.00450397
-0.0954716
-0.0361849
-0.0162739
-0.0239541
0.00177789
-0.0160702
0.00225147
-0.0310604
0.000883307
-0.0105104
0.00196741
0.000131493
-0.0306088
-0.00738357
0.0021822
0.00405222
-0.0137667
-0.00351102
0.00490441
0.00268043
0.00198167
-0.00692791
-0.0117389
0.00326539
-0.0938337
-0.00145931
0.00221443
0.00241173
-0.0116121
-0.046347
0.00212996
-0.0356705
0.0022319
-0.0363802
0.00263482
0.00175475
0.00238085
0.00217791
-0.0344302
-0.0143793
-0.0137944
-0.00335684
0.00259501
0.00291162
-0.0089187
0.00715356
0.00317742
0.0031887
0.000180632
-0.0376864
-0.00696058
-0.0339167
-0.0138819
-0.00107064
-0.0170336
0.00225572
-0.00996134
0.00291202
0.00496468
0.00310917
0.00230272
-0.000477473
-0.00791083
-0.00166773
0.00290944
-0.01338
0.00477664
0.00228856
0.00482352
0.00505877
-0.0253681
-0.0991505
-0.0429322
0.00312945
0.00226761
-0.0302545
0.00309523
-0.0025907
-0.0139272
-0.0104749
-0.0019644
0.00709118
0.0066597
0.00261121
0.00292665
0.00826352
-0.0213949
0.00283269
0.000149063
0.00345576
-0.0418799
-0.00922456
0.0030547
0.000231626
0.0027815
-0.000325678
-0.00578038
-0.0489804
0.00285901
0.00615623
0.00454495
0.00525891
0.000326243
-0.0104746
0.00331882
0.00244609
0.00208342
-0.0347546
-0.0029979
-0.010128
0.00726178
0.000885317
0.0034098
-0.034899
0.00666105
-0.0090766
-0.00260226
0.00243311
-0.00895361
-0.0145445
-0.00609118
-0.0109917
-0.00653047
-0.00299601
0.00260194
-0.0330737
-0.0130405
0.00267141
0.00455977
0.000947266
0.00238478
0.00275327
-0.00975213
0.00479068
-0.0332771
-0.045765
-0.00978521
-0.00434913
0.00186402
0.00761057
0.00252697
-0.0401057
-0.0481685
-0.0312002
0.00386427
0.0216467
-0.00119942
0.00379875
0.0134044
-0.00220714
-0.00130838
-0.00138068
-0.00252667
-0.0583632
0.0170409
0.0526452
0.00445137
0.00702601
-0.0260021
0.00630832
0.000294651
-0.0144339
-0.0251045
-0.0116536
-0.0020457
9.42981e-05
0.00338435
0.00249145
0.00310216
-0.0104568
-0.00473084
0.00276579
-0.0625098
-0.0553486
-0.00296964
0.00354685
-0.00878382
0.000631702
-0.0114289
0.00374373
0.000809004
0.000580457
-0.00582659
0.00245005
-0.00999314
0.000792856
-0.0376656
0.00373135
-0.00224953
0.00290037
-0.00502445
-0.00827094
-0.00456576
0.0023871
-0.00572295
-0.0121797
-0.107637
0.0044169
0.00234155
-0.000903821
0.00422809
-0.00266631
0.00232539
0.00680357
0.00441659
0.00763552
-0.0109147
-0.0256478
-0.0736652
0.00261074
0.00319358
-0.0410899
0.00255567
0.00442152
0.00408097
-0.0121269
-0.0054074
0.00156953
-0.000138305
0.00398565
-0.0115927
0.00640214
0.00303574
-0.0165296
0.00206095
-0.00238255
0.00185998
0.00345754
-0.0394558
-0.0100035
0.00459959
0.00320444
-0.0178301
0.00412616
-0.010499
-4.49991e-05
-0.0351852
-0.0117954
0.00813435
0.00308588
0.00499311
0.00640309
0.00544558
-0.0568553
0.00157856
0.000114336
0.0129139
-0.01297
-0.00280384
-0.0138283
-0.0105711
0.00387989
0.000352971
0.000760255
-0.0105107
-0.0192443
-0.00190484
-0.0101256
-0.00377523
0.00232849
-0.00847077
-0.01204
0.00274105
0.00483616
-9.52921e-05
-0.00274507
-0.0352874
-0.0367658
0.00231306
-0.00474256
-0.00372653
-0.0397383
-0.0152677
-0.00952215
0.0025617
-0.0385046
6.70611e-05
0.00254592
0.00286075
0.00546814
-0.0142013
0.00254473
0.00222461
-0.00956009
-0.0624685
0.00423984
0.00238539
0.003691
-0.00997108
-0.0158484
-0.0516373
-0.0448661
-0.0140863
-0.000103746
-0.0160812
-0.0691172
-0.0657193
0.00253227
-0.0254763
-0.00670542
0.00254425
-0.00758217
-0.0129192
0.00616629
-4.45342e-05
-0.0163543
0.00409847
-0.014534
-0.0338801
-0.0111146
-0.0487422
-0.0107037
0.00252139
-0.020078
0.00253086
-0.0397734
-0.00158393
0.000872233
0.00239022
-0.00420541
-0.0102138
0.00296514
0.00163894
0.00286512
0.00222746
-0.0130746
-0.00885623
0.00228782
0.0028486
4.5427e-05
-0.03033
0.0152927
-0.0136674
0.00222392
-0.00406212
-0.0138252
0.00337611
0.0254382
0.00373196
-0.00933834
0.00462132
-0.0188816
-0.0217144
-0.131831
-0.00899105
0.00211481
-0.0176191
-0.00166872
-0.045772
0.00980916
-0.0440062
-0.00479013
-0.13127
-0.00305439
-0.0206011
0.00177331
-0.00463586
-0.0104942
-0.0198526
-0.0152251
-0.0131163
-0.0707762
-0.00280799
-0.00547543
0.00199951
-0.0148871
-0.0119329
-0.0107256
0.00348772
-0.0118157
-0.0280728
0.00268376
0.0153746
0.00449993
0.000778399
0.00212158
-0.00169333
-0.005277
0.00469827
0.00373621
-0.0149154
-0.0107141
0.00268704
-2.64742e-07
0.0124741
0.00407185
-0.0279886
-0.0738318
-0.0054631
-0.0105066
-0.0199739
-0.0129212
0.015847
-0.00515476
-0.00337103
-0.00858528
-0.0108907
0.00258892
0.00342711
0.00393966
0.00214654
0.00230972
-0.0375286
-0.0447538
-0.0251211
-0.0121203
-0.0511832
0.000106737
0.0269232
-1.31587e-05
-0.000436664
-0.0133263
0.00418759
0.00448984
0.0010137
-0.00817332
0.00248684
0.00373699
0.0430123
-0.0278331
0.00301163
0.00170132
-0.00317499
-0.0109569
-0.0279088
-0.0820491
0.00213423
0.00519912
-0.00769593
0.00172561
-0.0217441
0.00265864
0.00265441
-0.000229582
0.00282147
-0.0510705
-0.00294481
0.000271784
-0.00211199
-0.0105079
-0.00755671
0.00274987
-0.000550692
-0.00507636
-0.0109225
0.0025178
0.00324235
-0.00772173
0.000323274
-0.00431552
-0.0469284
-0.000605311
-0.0298565
-0.0305861
-0.000751374
-0.00673958
0.00255996
-0.00886956
-0.0065044
0.000209429
-0.00534562
-0.0375753
-0.0484225
0.00374616
0.00278556
0.00255247
0.00217826
0.00430832
-0.0561522
-0.00316087
-0.0268344
-0.00234083
-0.0132116
-0.0372705
0.00265635
-0.0399783
0.0332291
-0.0101491
0.00184911
-0.00749778
-0.0060357
-0.0349398
-0.0099606
-0.000512138
-0.0052677
0.0031705
0.00453944
-0.0621062
-0.00359755
-0.00430194
-0.00965783
-0.0055831
0.049367
0.00225977
-0.00543773
0.00461173
-0.000681949
-0.0161853
-0.0105079
-0.0203071
-0.00762472
0.00224516
0.00282617
0.00381342
0.0220776
-0.0173788
0.00132648
-0.00599387
-0.00271723
-0.00312148
-0.00466481
-0.0568202
-0.0154743
-0.0398147
0.00230896
0.0178671
-0.0121974
0.000209922
-0.0179526
-0.00948929
-0.0359904
-0.0176052
-0.0106305
-0.0358374
-0.0119631
0.00241612
-0.00816825
-0.000515924
-0.00486675
-0.00902074
-0.0603735
0.00176734
0.0120286
0.00368711
-0.00591824
-0.025608
-0.00509292
-0.0111124
-0.0087871
0.00239522
-0.0371931
-0.00687225
0.00241682
0.00251602
-0.00333449
-0.0126638
0.000577214
0.00266545
-0.0304076
0.00325517
0.00381013
0.00083794
0.00366803
-0.000687857
0.00224295
-0.0431066
-0.00434243
0.00233285
-0.0327271
0.0332655
0.00181559
-0.00167898
0.00146579
0.0044242
-0.049711
0.000139245
-0.0388945
-0.00587205
-0.00332124
0.00183226
-0.042474
-0.0144032
-0.00227013
0.00721674
-0.0125629
0.00156669
-0.0630514
-0.0121004
-0.0121921
-0.0269062
0.00272884
-0.00919172
-0.00164991
0.00027843
0.00217725
-0.00410344
0.00406314
0.00144632
0.00233983
0.00108041
-0.00884424
-0.00161371
-0.0611537
0.00260071
-0.00703444
-0.00510994
-0.00447703
0.00297581
-0.000914523
0.00640362
0.0023495
-0.000475757
0.00188694
-0.0132984
0.00282276
0.00296998
-0.0579243
-0.00385667
-0.0268095
-0.000335347
-0.07135
0.00240137
0.00235512
0.00302736
0.00726464
0.00177986
0.00297755
0.00254123
0.00220787
0.00356111
0.00229941
0.00482821
-0.0067317
-0.0124042
-0.00198482
-0.0266619
-0.0429033
-0.00038935
-0.0151177
0.000208199
0.0355326
-0.00328867
-0.0425012
-0.00733288
0.00430211
0.00409536
0.00607372
-0.125911
0.00219745
-0.00371649
-0.0151199
0.0154372
0.00213527
0.00257516
0.00221417
-0.00780674
0.00220817
-0.0431714
0.00317314
-0.0368822
0.00113461
-0.000526303
0.00135673
0.000424697
-0.00307384
-0.0493085
0.00150723
0.00287416
-0.0188237
-0.0187575
0.0023055
-0.00177162
-0.00233408
0.00210357
-0.0174305
-0.0285604
0.00389996
0.00625551
-0.0184296
-0.0151781
0.00340381
-0.0109313
-0.0653233
-0.0198945
-0.00579735
-0.017581
-0.103928
0.00492046
-0.00122202
0.00231492
-0.0200898
-0.00934462
0.00288579
-0.0519027
-0.034668
0.0025587
-0.0133786
0.00378245
0.00217231
-0.12755
0.00120556
0.00236245
0.00229754
0.0022356
-0.00185656
0.000507027
0.00288695
-0.0473636
0.00204765
0.00217138
0.00255609
0.00151777
-0.00152106
-0.0089738
0.00486562
0.00154418
0.0040744
0.00253912
0.00204488
-0.0115681
0.0024363
0.00444987
0.00275536
-0.0249114
-0.0353161
0.00127639
-0.00930321
0.00202855
0.00186311
0.00230117
0.0019239
0.00535328
0.00435514
-0.00856721
0.00250411
-0.0163952
0.0151846
0.00362593
0.00182348
0.00224035
0.00397128
-0.01077
-0.00450526
0.00189756
0.000981839
0.00224006
-0.0269112
-0.000195223
-0.00654567
0.00400666
-0.0517241
0.00239945
0.00351116
0.00146587
0.00432489
-0.00281998
0.0010663
0.00375876
0.0414351
-0.000782206
0.00105092
0.00240717
-0.0165392
0.00147986
0.00241842
0.0043168
0.00219805
0.00237746
-0.00834314
-0.00855569
-0.0434051
-0.00266734
0.002613
0.00455104
0.00333471
0.00272906
0.0048203
-0.000466793
-0.0186939
-0.00931534
0.00248704
0.00240375
0.00292948
0.0036401
0.00446218
0.000835055
0.00208168
0.00319902
0.00092181
0.00203654
-0.0137029
0.00302287
0.00070824
0.000396303
-0.0122545
-0.024941
0.00248003
-0.0155246
0.00206103
0.00308044
0.00247478
-0.0211723
-0.0350352
-0.0138477
0.0355614
-0.0222453
-0.0631681
-0.0141245
-0.00296215
0.0045224
0.00115025
0.000498064
-0.00356019
-0.000120254
-0.019673
0.00457888
-0.0321929
-0.007381
-0.035561
0.00342322
-0.000450934
0.0095795
0.00332082
0.0024005
-0.0216047
-0.0317991
0.00227245
0.00211455
0.002637
-0.0441554
-0.0704148
0.0008921
-0.0411224
-0.00572578
0.00386615
0.00688115
-0.00438069
0.00387653
-0.0488043
0.00538726
-0.000698025
-0.0325766
-0.000718436
-0.00669859
-0.00449918
-0.0025518
0.00163467
0.00281031
-0.0219304
0.00248464
-0.00444941
-0.00946224
-0.0220858
0.00501713
-0.00408693
0.00165255
0.00105248
0.0158535
-0.0195926
0.00235305
-0.000923222
0.00149448
0.00236799
0.000761856
-0.0116526
0.020587
0.00213777
0.015462
-0.0333391
-0.0212211
0.0022683
-0.00221051
-0.00281757
-0.00569424
0.00343107
-0.0333797
0.00960622
-0.0100863
-0.013592
0.0307972
0.00111516
-0.0086162
-0.0132669
-0.0752316
0.00728563
1.50379e-06
-0.0121018
0.00275784
0.00479543
-0.0220372
0.00148277
0.00167941
-0.0120255
-0.0512442
-0.0757649
0.000137332
-0.0157592
0.00038083
0.00443952
0.00071542
0.00239613
0.00333356
-0.0194374
0.00232667
0.004577
-0.00102918
0.00402126
-0.0403724
-0.0207827
-0.0185093
0.00260806
0.00238572
-0.0411122
-0.0435359
-0.0211832
0.00235427
0.0027592
-0.0125656
-0.0575278
0.000824714
0.00147086
-0.038737
-0.00898901
-0.0141343
-0.00921836
-0.0190875
-0.00858404
0.0157081
-0.0208486
-0.0247715
0.000471141
-0.0055087
-0.00808171
0.00232686
0.00208899
-0.00384126
-0.0126713
-0.0271172
0.0035696
-0.0992481
0.00044925
-0.0160765
-0.0120787
-0.00784503
-0.0171195
-0.0532282
-0.0281909
0.00494914
-0.0148987
0.00266525
-0.0339675
0.00373911
-0.0242776
0.00135
-0.0492259
-0.0613089
0.00261472
0.00584651
-0.000864907
-0.00053443
-0.00741466
-0.00393972
0.00326466
0.00198623
0.0395324
-0.0157321
0.00275848
-0.00149616
0.00418058
0.00418345
0.00200378
-0.0135269
0.00233758
0.000175167
0.00253802
0.00108865
-0.021691
-0.00858943
0.00202666
-0.0114361
-0.0154255
0.00522117
0.00248928
0.00270349
0.000944651
-0.00219951
-0.00286144
-0.00357688
0.00321004
0.00231578
0.00223442
-0.00930101
0.00257875
0.00146673
-0.00526681
0.00221684
0.00254191
-0.0180041
-0.00107679
0.00167798
0.0357753
-0.035813
0.00213043
-0.0202714
-0.0196844
-0.0105054
0.00297468
0.0023724
0.0023752
0.00237371
-0.0310607
-0.00261229
0.00257415
0.0385594
0.00232239
0.000102917
0.00236529
0.00252125
0.00134492
-0.0203938
-0.0150251
0.000158481
-0.0114086
-0.0225523
-0.00620555
0.00215372
0.00393092
-0.0100338
-0.0120898
-0.0127655
0.000135057
0.00179897
0.0548821
0.00976531
-0.0355618
0.0111448
-0.00254467
0.00297722
0.00275295
0.0320575
-0.022716
0.0024437
-0.0100057
0.000959519
-0.0218408
-0.0658757
0.00242968
0.000584016
-0.00635533
-0.0133502
0.00279471
0.00661668
-0.013154
0.0152603
-0.008394
0.00256483
-0.0125202
0.000116558
0.00302382
-0.0247019
-0.0176783
-0.00851463
-0.0118007
-0.0122872
0.00123835
0.00152331
-0.00250647
0.00261058
-0.0214712
-0.00686561
-0.021322
0.00467109
0.000152342
-0.0445543
-0.0146868
0.00352819
0.00325705
-0.00229617
-0.0256385
-0.0400139
-0.00486525
0.000850116
0.00403942
0.00226834
0.00279502
-0.00637545
-0.0136557
0.00454505
0.00175623
-0.00406992
-0.00431158
9.73021e-05
0.00165608
0.000131037
0.00235517
-7.07149e-05
0.00463349
-0.0164943
-0.0103403
-0.0304379
0.0024019
0.00144963
-0.0827776
-0.0603736
0.00226183
0.00441572
0.00146743
-0.00414263
0.00069445
-0.00519995
-0.0076933
0.00108316
-0.0107556
0.00279357
0.00232374
0.00248255
0.00383818
0.00212649
-0.00548327
-0.0142556
0.00248364
0.00265673
0.000564119
-0.0771068
0.00186387
0.00127449
0.00296334
-0.0124265
-0.00994807
-0.00916668
0.00186987
-0.000253624
-0.00792278
0.000969755
0.000726814
0.00203662
-0.0208332
-0.0235542
0.00258347
0.00478021
-0.0324067
-0.000625456
0.00242802
0.00176541
0.00246466
-0.038924
-0.041827
0.00445015
0.00404938
-0.00505637
-0.0561732
-0.0063654
-0.00607411
0.00322831
-0.0199621
0.00303613
0.00234862
0.00245588
0.00288178
0.00256875
0.00297806
0.00260415
-0.0439167
-0.00246058
0.000308924
-0.00291649
0.0031409
0.00277679
-0.0790834
-0.00109937
-0.0413244
0.00473993
0.00268199
-0.00147331
-0.0167416
0.00346223
0.00469774
-0.0134688
0.00122725
0.00337746
-0.0089687
-0.0206137
-0.0126965
-0.0576144
0.00641772
0.000445333
0.00474576
0.00200498
-0.0114264
0.00222434
0.0253096
0.00460693
0.00197515
0.0019894
0.00534277
-0.00110026
-0.00755228
-0.00520812
-0.0521308
-0.000515793
0.00127212
-0.00195429
-0.0531324
0.00243145
-0.0112829
0.00235667
0.00686041
-0.0454765
-0.00958146
-0.0150361
0.00297152
-0.00379017
0.00154757
-0.019346
-0.015055
-0.00990163
0.000120327
-0.0390056
-0.00988718
0.00296448
0.00243031
-0.00610592
-0.0197096
0.00156613
0.00125376
-0.030918
-0.00562197
0.00190867
-0.00369057
-0.0875059
-0.0260927
-0.0470902
0.00304438
-0.0538281
0.00287402
-0.0285885
-0.00549893
0.00311561
0.00137885
0.00256867
-0.0208939
-0.00611398
-0.0200155
0.00671607
0.00170537
0.00271732
0.00238884
0.002145
0.0461245
-0.00624825
-0.00389627
-0.019578
0.0119501
-0.0157125
-0.014404
-0.0408874
-0.00764181
4.05295e-05
0.00297902
0.0021822
0.00203784
-0.0220589
-0.0647769
-0.0024255
-0.00421425
0.00147588
0.00278906
0.00257752
0.00821153
-0.00549825
0.00259965
-0.00386017
-0.0421839
0.00218966
0.00188807
-0.01841
0.00264207
0.00572679
-0.00215908
-0.0150226
0.00255061
-0.1322
-0.0122302
0.000996996
0.00360303
0.00251089
0.0454834
0.00245046
-0.0440291
0.00212012
-0.0022865
0.000153767
-0.0196242
-0.0160621
-0.0480211
-0.000176347
0.0050418
0.0519739
0.00299695
0.00336945
-0.017755
-0.00717501
0.0415359
-0.0346168
-0.00765449
0.00236819
-0.0225387
0.00479172
-0.0138066
0.00138185
0.00244878
0.00141642
0.0311217
-0.00535017
-0.0152218
0.00306157
-0.0293955
-0.0153463
0.00294222
0.00313856
-0.024776
-0.0432708
-0.00869511
0.00275169
0.00134462
-0.00146392
0.00238168
-0.0128461
0.0017222
0.0462326
-0.0234593
-0.0107139
0.00195537
-0.0123479
-0.011908
-0.00582917
-0.00484451
0.00209308
0.00337195
-0.00146933
0.00239007
-0.00774123
-0.0263407
0.00143501
-0.000682312
-1.20117e-05
0.00341865
-0.00361757
0.00598453
0.0029631
0.000879781
0.00209536
0.00199876
-0.00773807
-0.0521362
0.000384651
0.00254844
0.0545357
0.00271579
0.00219317
0.00121037
-0.000654262
0.0409165
0.00127136
0.00170758
0.00269214
0.00276399
-0.0181902
0.00260393
0.00288515
0.00167246
-0.0393271
0.0422801
-0.0133212
-0.00702658
0.0405691
-0.0289424
0.00493419
-0.000715681
-0.00473423
-0.0274727
0.00295307
-0.139103
0.00275493
-0.00116279
0.00220348
0.00265205
0.00225264
-0.00404268
-0.0239985
-0.0138342
-0.0177217
0.000342683
-0.000460987
0.00282214
0.00260363
0.00293398
-0.0186381
-0.00926156
-0.0118813
0.00270288
0.00712191
0.00285993
-0.00149819
-0.0180275
0.0301005
0.00303491
0.00304933
0.00270344
-0.0338958
0.00188985
-0.043148
0.00262715
0.00254063
0.00229616
0.0545155
0.00217716
0.00266372
0.00305457
-0.00721613
-0.010002
-0.000663384
-0.00876372
0.00627582
-0.00494904
0.00739412
0.00205633
-0.0114617
0.00261644
0.000930727
-0.0402106
0.0101927
-0.0368391
0.00213112
0.00256185
-0.0113915
0.00126167
0.0117755
-0.0230381
-0.00156939
0.000218604
-0.0129779
-0.0123226
-0.0293829
0.00269521
-0.0173038
-0.00230271
-0.0129733
0.00186668
-0.00643894
0.00214462
0.00240904
0.00287406
-0.0482507
-0.00337535
-0.0298327
-0.00182719
0.00378347
0.00256325
0.00542488
-0.0179092
0.00194656
0.0232705
-0.00159207
0.00236382
-0.00929638
0.00324444
0.00246962
0.00238464
-0.0274359
-0.0214174
0.00257828
-0.0465584
-0.0174815
-0.0322573
0.00415769
0.0021434
-0.00377251
-0.00775063
0.00300418
-0.0216652
-0.0114029
-0.084547
0.00269619
0.0464734
-0.0628676
0.00240517
0.00237444
0.00234692
0.00882182
0.00282002
0.00113318
-0.0062867
0.00261286
-0.00178021
0.00276668
0.00356438
-0.0206662
-0.0123715
-0.0345484
-0.00568679
0.00268155
-0.0119401
0.00302497
-0.0191646
-0.00714023
-0.0152868
0.0039408
-0.0167712
-0.00314878
0.00221948
0.00307135
-0.00779532
0.000843737
-0.0128433
-0.00142963
0.00201448
-0.0521713
0.00224216
-0.0197094
-0.0301683
0.00472215
-0.00823045
0.0520833
-4.81129e-05
-0.00906818
0.0035515
0.00113467
0.00168118
-0.0281463
0.00135718
-0.0197682
-0.0184207
0.000429644
0.00435855
0.00412486
-0.0056841
0.00052935
0.00290057
0.00238805
-0.00713106
0.00131732
-0.0463697
0.00142267
0.00585973
-0.00111517
0.00265216
0.0531623
-0.000354319
0.000307522
2.65428e-05
0.00393025
-0.00921442
0.00458198
-0.00727399
0.00291838
0.000230398
-0.0241884
-0.00605708
0.00264585
0.00456423
-0.00620275
-0.00975741
-0.0319214
-0.0113539
-0.0158877
0.000670481
-0.0857847
0.0443323
-0.000236431
-0.00693543
-0.00397987
0.00259295
0.00128642
-0.0263878
-0.00723706
0.0158019
-0.0109578
-0.0190823
-0.000948062
-4.90136e-05
-0.0100643
0.00937037
-0.0121448
-0.00768474
0.000140981
-0.0107227
0.00244466
0.00318811
0.00501164
0.00267538
0.0011951
-0.0137906
-0.00177128
0.0071494
-0.00191991
-0.01092
-0.00166822
0.000604406
-0.0832656
-0.0152161
0.00289476
0.00272635
0.00148379
-0.0263675
-0.0011603
0.00194775
-0.0612295
-0.0260193
-0.0293196
-0.00141137
-0.00963086
0.00428397
-0.0199584
0.00107356
-0.014241
-0.00634938
0.00248375
-0.0527451
-0.013685
-0.00125493
0.00146224
0.00225904
0.000298814
-0.0451217
-0.00683147
-0.0145771
-0.0295869
0.000483404
0.00251054
-0.0194438
-0.00412446
0.00781997
-0.029256
-0.0556591
0.00521792
-0.00414922
0.00465014
0.00246869
-0.00291333
0.0030989
-0.00598904
0.00271925
-0.0134273
0.00283394
-0.0771863
-0.01427
0.00263513
0.00342551
0.00292919
0.0205782
0.00246674
0.00244914
0.00223755
0.00316462
0.00052859
0.00413293
-0.0298238
-0.00657574
-0.0076906
8.77276e-05
0.00180336
0.00149796
0.00311488
-0.0157651
-0.0222313
0.00354405
-0.00368494
-0.0110464
-0.00849193
0.00264753
-0.0647134
0.0181043
-0.00668459
0.00211748
-0.097563
0.00263739
-0.0101011
-0.00845766
-0.017736
-0.0214771
-0.0163242
0.00617126
0.000178396
-0.0884601
0.00334919
-0.000478393
0.00311118
0.00305062
-0.00351808
0.00215512
0.00243719
-0.0269399
0.00686773
-0.00527887
0.00135771
-0.008358
0.00193096
0.00328673
0.000118515
0.0272953
-0.0256098
-0.0418597
0.00241962
0.00493022
0.000169892
0.001273
-0.00399327
-0.00760879
-0.179413
-0.0241939
-0.0176496
0.0118861
-0.00631645
0.0100666
-0.0083136
-0.0422549
-0.0360769
0.00399807
0.00260235
0.00313909
-0.0117054
0.00327535
0.00307937
-0.0349137
0.00307589
0.00146592
-0.0914585
0.00236261
-0.0229528
0.0358076
-0.0332549
-0.0907501
0.00319053
-0.0294114
-0.0713359
0.0314925
-0.000436537
0.0555809
-0.000656426
0.000564603
0.00121443
-0.0727012
0.0541649
0.00265458
0.00247417
0.00290043
0.00260468
0.0492584
-0.0885917
0.000115056
0.00126083
-0.000634122
-0.0428441
-0.0605495
-0.00164199
0.00252101
-0.023654
-0.00256838
0.00130316
-0.000918242
-0.0106903
0.00225903
0.00276455
-0.00216085
0.00246083
-0.00497965
0.00258724
0.00318938
0.00283836
-0.128128
0.00430159
-0.0107262
-0.00758043
-0.0427345
-0.0524048
0.00748861
-0.0062385
0.00260924
-0.0129218
-0.0470427
0.00190343
-0.000749634
0.00415645
-0.00847504
0.0485153
-0.0313986
-0.00647192
-0.0240397
0.00462035
-0.00913955
-0.0156161
-0.0179026
-0.0413676
-0.00476319
-0.0116431
0.000241315
0.00974693
0.0198737
-0.00121397
0.00245787
-0.00543677
-0.0753051
0.00313359
0.00232858
-0.00883873
0.000928724
0.00289357
-0.0541978
0.00285
0.00264919
0.0298172
-0.00392381
-0.0252037
-0.018246
-0.00779691
0.001667
0.00254981
-0.0165535
0.0470015
0.00841045
-0.056575
-0.146574
-0.0187652
-0.000559916
0.0507053
0.00255747
-0.0584984
0.0538255
0.00294728
-0.00628681
-0.0231523
-0.0323286
-0.00625731
0.00263621
0.0501723
-0.0097317
0.00298724
0.00260815
0.0028561
0.00258721
-0.00111834
-0.0697143
0.00252939
-0.00369793
-0.0139186
-0.00613916
0.00138448
-0.00329633
0.00178419
-0.00561843
0.0029237
-0.0092765
0.000832982
-0.0236384
0.00142233
0.00739675
-0.0815604
-0.0310758
0.00736466
0.00284179
-0.00802512
-0.13937
-0.00103625
0.00215504
0.00224593
0.00152166
-0.0146191
0.00113349
0.00162711
0.0548959
0.00175271
-0.00400653
-0.00677922
0.0019405
-0.00306023
-0.0164579
0.017002
0.00828143
0.0028583
-0.0363877
0.0017805
0.00383211
-0.00258925
-0.00111145
-0.00257213
-0.00684159
0.00291383
-0.00473731
0.0541353
0.00234599
-0.0100055
-0.0199835
0.0433044
-0.017335
-0.000575131
-0.048765
0.0031982
0.00288242
-0.0110146
-0.000506796
0.000430718
-0.0403404
0.00135645
0.0453139
-0.0199143
0.00135281
-0.000545209
0.00265437
0.00304718
-0.00101646
0.0025333
0.0057604
-0.00436707
0.0121435
-0.0380519
0.000946475
-0.0532618
-0.0174215
-0.00867256
0.00345656
-0.0306548
0.00285634
0.00433928
0.00543706
-0.00434657
-0.00466586
0.00940084
-0.0156721
0.00358332
-0.00442616
0.0328254
0.00264578
-0.0014876
-0.00756334
-0.0105558
0.00376535
-0.0205242
-0.0107602
-0.0133215
0.00150131
-0.0668672
-0.00259748
-0.00591672
-0.00615801
-0.00618478
-0.00663049
0.0507102
-0.00467179
-0.0263548
-0.0271303
-0.00562615
0.0103322
-0.0196224
0.00306379
0.00131419
-0.0075232
-0.0204571
0.000131558
-0.00596382
-0.0455704
0.00364527
-0.0168854
-0.00910046
-0.00635085
0.000687726
-0.00948177
-0.0806072
-0.011983
-0.0154166
-0.00463688
-0.0134768
-0.0280427
0.00275613
0.0446804
0.0028081
-0.000182979
0.00266671
-2.21967e-05
0.00764949
0.00265587
0.00148317
-0.00355886
0.0103475
-0.0122619
-0.0360456
0.00048633
-0.00202332
0.00419488
-0.0285649
-0.00191263
0.00267181
-0.00668018
0.00139784
-0.0299996
0.00258967
0.00309126
0.0019051
0.00249073
-0.0374465
-0.028943
0.0026866
0.0264469
-0.0133044
-0.0329595
0.00257723
-0.00508672
0.00128387
0.00120035
-0.0017068
-0.0108659
0.00156358
0.00241821
-0.00496074
-0.0304438
-0.0421992
-0.0204805
-0.0273416
-0.0256998
0.00264885
-0.0115107
0.00186822
-0.0013745
-0.00679001
0.00273959
-0.0884898
0.00270636
-0.00677809
-0.00737871
0.00340415
-0.00068446
-0.0132382
-0.00303176
-0.00444565
0.00612781
-0.00217763
0.00270658
0.00112358
-0.0286734
-0.0450813
-0.00325212
-0.00748785
-0.0250245
-0.0163558
-0.0752822
0.000122362
-0.0118261
0.000634711
-0.0114642
-0.00931559
-0.0137299
0.000404046
-0.0115566
0.00223653
0.0013698
-0.00202341
0.00249434
0.00499533
-0.06878
-0.0189902
-0.0427599
-0.0033545
0.0107179
0.0168239
-0.0375137
0.00259529
-0.00409371
-0.00301874
-0.0754554
0.000216053
0.00234053
0.00270598
-0.0163732
0.00266029
-0.0125956
-0.00688247
0.0024285
0.00182219
-0.00300184
-0.00489829
-0.002781
0.00288619
0.0230584
-0.00133684
0.00267909
-0.0269361
-0.0193363
-0.0450605
-0.0246404
0.00210141
0.00650802
-0.000301775
-0.0188145
0.00256345
0.000624432
-0.0118827
0.00210883
0.00269367
0.00250568
0.00265211
-0.0173271
-0.020613
-0.044361
0.00266486
0.00739629
-0.058229
-0.00610172
0.00185187
0.00271316
0.00139288
0.00165921
0.00166545
-0.00762357
0.000710473
0.00243568
-0.0372736
0.000775039
0.00174387
0.00276735
0.00161634
0.00290334
-0.0135713
-0.0145798
0.00220711
0.00150604
-0.0259936
-0.0275606
-0.0291198
-0.0232363
-0.0228428
-0.00911742
0.00695561
-0.0891703
-0.00633419
-0.00916059
-0.0503078
0.00132678
0.0498768
0.00300053
0.00262108
-0.035602
0.00233372
0.0030061
0.0015598
0.000975763
0.00258358
-0.0254526
0.00275602
0.000585059
-0.0115939
0.00270296
-0.0409929
0.00151683
0.027024
0.00241377
-0.000493377
-0.0426337
-0.013156
-0.0125298
0.00123446
-0.00748843
0.000698702
-0.0166915
-0.0132604
-0.060063
-0.0197548
-0.0258991
0.00121256
-0.033994
-0.000768709
-0.0106843
-0.0796558
-0.07492
-0.0659987
-0.00526761
0.00241646
-0.0256622
0.00123966
0.0107955
0.00241395
-0.0050448
-0.0197374
0.0359195
-0.0289697
-0.0885309
-0.00163603
-0.0022945
0.00734001
-0.018078
-0.00230815
-0.0137335
-0.0072193
-0.0118374
-0.0223074
-0.0590246
0.00481639
0.00129076
0.000284784
-0.0102125
-0.0116607
0.00619719
-0.00857435
0.0040134
0.000808806
0.000138589
-0.0160421
-0.0296447
-0.0809893
-0.0781986
-0.00469413
-0.0309441
-0.0225594
-0.000829685
0.00270427
0.00324649
0.00418764
0.00044343
-0.0749222
0.00670515
-0.0383339
0.00129179
-0.00170639
0.0031796
0.00279215
-0.00610487
0.00165895
-0.00875837
-0.00954379
-0.0126745
-0.135448
0.00275622
0.0017493
-0.00182593
0.00265489
0.04756
0.00210624
0.00242904
-0.0211305
0.00699194
0.000624507
-0.00966007
-0.003818
-0.000237492
0.00294377
0.00301892
0.00278564
0.00330317
0.00178966
0.00302339
0.00304666
-0.0724883
0.00499886
-0.027237
0.0235226
-0.00887818
0.00269442
0.00299081
-0.00698438
-0.00422856
0.000668304
-0.000261628
0.00276945
0.00115474
9.64466e-05
0.00087476
-0.0147304
-0.0130835
0.00236111
0.00112855
0.00232374
0.00165973
0.0043854
0.0043049
-0.0364659
-0.0106626
-0.0287714
-0.00383414
0.0027803
-0.0111351
0.00472366
-0.0480331
0.00231538
-0.00531781
-0.0264082
-0.000521018
-0.0093547
0.000772978
0.0030788
-0.00492713
0.00229952
0.00234061
-0.00580035
-0.00509273
-0.00821871
-0.00268601
-0.00851206
-0.0111515
-0.00366033
0.000501825
-0.0389564
0.0552905
0.0027189
0.00444753
-0.00562505
-0.00635597
-0.00427908
-0.0162517
-0.0106949
-0.0096294
-0.000666057
-0.00824117
-0.00839638
0.00275833
0.00012617
-0.00167644
-0.0122163
0.00120083
0.00117934
-0.0185154
0.00467466
0.00300645
0.000131629
-0.0187377
0.014089
-0.0237791
-0.0168481
-0.0010608
-0.00913489
-0.0270384
0.00270585
0.0443788
0.00271915
-0.0321106
0.000429396
-0.0140484
0.00255303
-0.0282806
-0.00344738
0.00233683
-0.00946022
0.00285118
-0.00106826
0.00605335
0.000682916
-0.0133522
0.0016031
-0.0122522
0.00234738
-0.00591656
-0.0468261
0.00235679
-0.00642941
-0.00662462
-0.0839903
0.00108123
-0.0131099
-0.0389702
-0.0287039
0.0385875
0.00268702
-0.000116266
0.000164915
-0.0129773
0.00210519
-0.0011482
-0.00964909
0.0123417
0.00351623
-0.0698757
-0.0851859
-0.0142718
-0.00954898
-0.0340655
-0.00550296
0.00214325
-0.0054064
0.00425291
-0.00128263
0.00244404
-0.0112686
0.00279118
-0.00422177
0.00614674
-0.0010268
-0.0160288
-0.0164989
-0.00448137
0.00176478
0.0177846
0.00557874
-0.0720706
-0.032252
-0.00673606
0.0306644
-0.0110082
-0.00138595
0.00326202
-0.00175985
-0.0251404
0.0019418
0.00113669
-0.0076757
0.00131622
0.00105555
-0.0129761
-0.0439077
0.00281171
0.0358723
0.00230529
-0.00417294
-0.010404
0.00233643
-0.0231315
-0.016229
0.00181186
0.00682583
0.00214191
-0.00703961
0.0537672
0.0017778
0.0153818
-0.0401678
0.000690756
-0.0140551
0.00207082
-0.0197028
0.0554597
-0.000175459
0.00298032
0.00520884
-0.00267303
0.00198629
-0.00229092
0.0113529
-0.00966131
-0.00605391
0.000997485
0.00989005
0.00300564
-0.0593113
-0.0537817
0.00383938
0.00233072
-0.0960223
-0.000242663
0.000322908
-0.0015929
-0.032933
-0.116864
0.0479126
-0.124941
0.0021388
-0.0211458
0.000302047
0.00164273
-0.0515937
0.00119504
-0.0157308
-0.00572886
0.00190343