/*--------------------------------*- C++ -*----------------------------------*\
| =========                 |                                                 |
| \\      /  F ield         | OpenFOAM: The Open Source CFD Toolbox           |
|  \\    /   O peration     | Version:  v2012                                 |
|   \\  /    A nd           | Website:  www.openfoam.com                      |
|    \\/     M anipulation  |                                                 |
\*---------------------------------------------------------------------------*/
FoamFile
{
    version     2.0;
    format      ascii;
    class       volScalarField;
    location    "400";
    object      omega_0;
}
// * * * * * * * * * * * * * * * * * * * * * * * * * * * * * * * * * * * * * //

dimensions      [0 0 -1 0 0 0 0];


internalField   nonuniform List<scalar> 
18758
(
0.123486
5.65206
0.0214807
3.7762
6.14853
7.84562
7.91347
0.0217158
0.275412
0.0278945
0.0236689
8.79386
0.022047
0.169658
0.0231577
0.627257
0.0395031
0.0219423
0.021942
0.0311688
7.44348
0.022271
5.32962
0.693977
2.66404
0.0217199
1.74143
6.45285
9.05451
4.13219
0.0616405
5.45811
0.0221819
0.0227024
0.124881
0.0221721
0.0222265
0.0220157
0.022276
0.0423367
0.0220129
0.0267159
0.0216527
0.0262553
2.3327
0.0216212
5.17673
0.0239772
0.0274595
0.0216208
0.151997
4.96706
0.0215485
0.0234476
6.15296
12.0864
0.0222172
0.368592
0.0219458
0.191673
0.100789
6.82059
0.121088
0.0228857
0.0215578
0.0220119
0.0431038
0.0221776
0.0219359
4.81071
4.64122
0.0223445
0.0216272
14.1526
0.02169
0.0219408
0.251385
5.80363
0.0908334
5.03947
6.12138
5.35649
0.192882
7.52569
0.256994
0.0299104
22.0592
0.120056
6.28055
0.0219409
7.19348
0.0219468
12.5603
0.0271563
6.19629
11.2808
0.24881
0.021689
0.0218931
6.15208
0.0326895
6.57706
0.0820555
0.0474935
7.30753
3.41678
4.17821
6.00678
0.0226439
0.0223224
14.5639
10.6049
0.0217595
0.0220606
7.61959
10.9182
7.94442
0.0231561
6.60944
5.94181
0.037824
0.0219612
10.4439
1.37828
0.592875
2.20964
4.13582
0.598203
9.86593
0.0220502
0.0406806
1.59785
17.4703
0.0498514
4.81499
0.0239042
0.246032
0.0441116
0.0218908
0.078881
0.0913931
0.249363
0.0219774
14.4696
0.0220174
0.0220326
8.29701
6.44728
0.0604501
6.98896
4.33974
0.907851
0.0298921
0.0222707
5.31092
0.027947
5.97475
0.0239855
0.0221938
0.0222888
0.0218082
0.186936
17.2447
0.0221864
0.1006
8.95202
0.0219866
10.6811
0.241455
7.90532
5.37469
0.0219374
16.8299
6.36504
0.184559
0.676156
8.42894
0.0229849
0.0771874
0.022127
0.0217969
34.6321
0.679395
0.0216564
0.0251877
0.548607
0.0219155
9.02293
0.0216373
0.0219265
0.0501718
0.539166
0.0224292
0.0577695
0.0342008
0.123425
0.0318249
0.273944
0.0221487
0.021646
0.0740892
0.0239209
0.0370456
0.0858143
0.0220356
0.0337349
0.0862924
0.0222787
8.19653
0.0274817
0.0219296
0.0501539
0.0222299
0.036729
0.0774941
6.16048
0.08456
0.55433
0.0216365
7.92558
0.0219294
0.0226634
0.217859
6.72743
0.309069
0.0841794
0.0597883
0.0471387
0.0216144
0.0878206
0.0220055
0.122861
5.157
0.259699
0.0220636
0.0219165
0.021616
0.0216455
10.8863
0.0369167
0.0218349
1.08229
4.34494
0.0230132
6.82689
35.5597
0.25696
0.0221786
6.14782
0.0298606
0.0221531
10.04
0.0299577
0.030351
0.0225664
0.0412259
0.459108
0.690744
0.0358339
0.0872122
0.0216747
0.0682209
0.0220318
0.0848566
0.0270278
0.21586
11.0523
0.0216412
0.0225297
0.463965
0.0224618
0.0249573
0.0859365
9.21351
9.90925
0.02197
0.131885
25.9672
2.48543
0.0226239
0.0217483
0.0292357
0.0370959
0.0219695
18.4517
0.799669
4.3862
29.6512
5.33617
0.021635
0.0214734
0.0523421
6.80314
0.0256466
0.087579
0.121057
0.0292439
5.8707
0.021907
4.30136
7.67586
0.0216332
4.03358
0.0379475
0.0219626
0.033325
0.0919121
0.0228662
0.0221572
7.27671
4.43134
0.021925
8.96529
5.91488
0.279573
0.022017
0.0221355
3.2588
0.0229824
0.0216511
0.0217789
0.0230456
0.254664
0.0936214
0.0292122
0.0358968
0.0313193
0.0501225
0.0216594
0.0222784
0.575497
0.0566557
0.14068
3.81718
0.0260443
0.0223767
0.0221141
4.31011
4.1975
0.0216271
0.0219171
0.0216289
0.0237905
0.0446114
1.81196
0.0219609
0.0222159
0.0216114
0.826771
0.224481
0.195552
0.164564
0.0228828
0.515416
0.116057
0.037473
0.0315752
8.10362
6.00999
0.612389
0.0220477
0.0334214
8.63437
9.08777
0.0249999
0.0216392
0.0593799
0.0219721
0.0298201
8.15771
3.64619
0.106204
0.0305806
9.15737
0.0219954
0.0239064
0.0219009
0.0222824
0.103223
0.0240441
8.11672
0.282556
0.0224859
0.0219294
6.89488
0.103807
0.270354
0.0219942
0.0495984
0.021738
0.0261128
0.0219614
0.0216504
7.95776
7.45512
4.13895
19.6646
0.021916
0.232611
4.22509
0.0421155
0.0217539
3.85581
0.0217768
0.0220831
0.0217926
0.10675
0.021952
0.0261413
0.152371
10.0255
0.0217652
5.91666
0.0462768
0.0220234
0.0256569
0.0219663
0.0219188
0.0285414
0.0641536
0.0494643
24.2821
0.0392348
0.0220447
0.416681
5.90517
3.8262
5.44928
0.0986262
0.0225545
0.0216509
0.0218378
0.0222492
0.106039
0.0407536
0.0316442
0.0365123
0.029904
0.6222
0.0841073
0.0219597
0.0348515
5.848
0.022863
3.59922
0.0222235
0.022083
4.55015
0.0281832
0.0224605
0.457838
0.128469
0.0514828
9.01345
0.0219457
0.0226767
0.753531
7.75832
0.0362695
0.074527
0.177861
0.545633
26.2702
0.17348
0.0223153
0.152341
0.0220594
0.108119
0.0231426
11.0602
0.0487872
6.08944
0.0314942
0.0682998
0.0216341
0.715755
0.0216333
7.89468
0.0219054
0.382792
0.0220588
4.41744
0.0306675
0.02209
0.0218977
0.0217846
5.57436
9.59345
7.62757
0.0426033
0.0246313
0.0922953
0.0222702
0.0222873
5.09176
0.0218987
0.0220629
0.124142
0.0220418
0.0724619
0.0916327
0.0220583
0.02195
0.0280286
0.0227702
0.0285023
6.71261
0.0316461
0.0359267
0.0267515
0.022049
3.66735
0.0223583
0.0226497
3.52508
10.2369
0.0655156
4.0573
0.0252203
0.0226194
7.18412
0.0219661
8.68281
0.348229
0.0220839
6.73976
0.578652
0.0599949
0.0218695
0.0539808
4.67412
0.0220185
0.0218722
0.0232154
0.0228505
0.0220496
0.0217045
0.0222939
10.5136
0.0251269
8.86497
0.0219651
0.171098
7.84215
0.0220378
0.0216443
0.025083
0.0221296
0.022693
0.0233538
0.022114
0.116458
0.836453
0.0215474
4.75979
5.53367
0.0357243
0.150708
4.54028
0.0264862
0.0308751
0.0281081
4.77467
0.025031
0.043097
0.0220166
4.60267
0.0411434
0.226405
0.141453
7.67168
0.0249789
0.0219395
0.0597457
2.09092
0.0226303
0.49
0.0222548
5.38805
0.0227849
0.0217982
0.021781
0.0220478
5.4601
5.51289
0.0220079
0.312132
0.0307879
3.73163
7.00821
3.03
2.17953
0.0219139
6.8301
0.0567277
0.0219944
0.0441851
4.86435
5.40376
0.0226806
0.0225856
0.0220237
0.0215164
6.72244
0.114051
6.1698
4.51454
0.0220436
0.0221406
0.057072
0.022281
0.0218102
0.0233288
0.0230053
0.119585
0.0403011
0.23986
5.93882
0.0748804
0.0220656
0.0275653
0.127482
5.43743
0.0415412
9.71678
0.0528399
0.0220129
0.296101
5.04156
0.0224887
0.021646
0.152324
6.96366
0.268771
0.0220424
7.14786
27.9792
2.81529
0.0216144
6.98518
7.36236
22.2002
0.0240362
0.0221964
7.94809
0.0222945
0.190867
6.5889
0.242841
6.73499
0.0804734
4.79709
0.0657008
0.0221157
0.0225653
6.5036
3.76012
8.73341
3.83085
0.0219656
0.191525
0.0222771
0.0606928
0.0804458
0.141507
0.0220885
0.0252589
0.221342
4.63865
6.05546
10.3569
0.0387325
0.0327315
0.263037
0.0222533
0.0217142
0.021952
0.0256631
0.0641041
0.0220349
0.0754367
0.0218541
0.0220803
0.0219049
6.23995
0.0223436
0.0222695
0.053582
0.0519807
0.0215521
10.3893
0.0219738
0.0217106
0.0560922
0.0370309
0.0248283
0.0228902
7.88263
0.0361027
0.0348167
5.11088
0.0348278
3.8168
0.026045
0.116147
27.365
8.67791
0.0216384
4.71415
0.634073
0.021689
4.99018
0.0220655
0.0218922
0.0388137
0.0219504
0.114779
5.23139
0.0216313
23.467
0.0218871
0.0375575
3.79511
0.0215324
6.67089
0.023546
0.0219937
0.0219179
0.0219488
0.261177
0.0736225
11.6586
0.0770142
7.59091
0.0574341
0.0220369
0.239455
9.17806
3.12785
0.0764026
0.189406
0.0560675
0.0266277
0.260094
0.0227182
7.75333
0.0220351
6.00913
0.0227697
0.076388
0.0280681
0.0223509
9.01363
0.022585
0.0218172
4.5483
0.0235914
0.0219076
0.0424579
0.0917341
0.270333
3.55655
4.76864
5.50741
0.0221331
0.0222049
6.10637
0.0219909
1.10604
0.0860363
0.0237499
0.0220617
0.0329377
0.0219889
0.0219568
0.0285605
0.86414
0.239658
0.158708
0.0643168
0.0221334
0.0550293
8.34418
0.0218627
0.0809556
0.0238806
5.07078
0.0232797
5.70419
0.0220298
0.704083
0.0222766
0.0786677
0.021999
0.0253136
0.0299864
0.0215371
0.0216936
0.0215869
5.65298
32.0872
0.0319221
7.04779
0.0220188
0.0401497
0.0279626
0.285686
5.16001
0.0320144
0.0215459
0.232421
0.0218561
0.0220179
0.0279588
9.11657
9.76997
1.23866
3.03867
0.0744238
0.0229751
0.0219036
5.99822
0.0218954
3.22486
0.0274266
0.0221854
6.66252
8.16573
0.0220908
9.82159
0.0271037
0.095913
0.0991749
4.23341
8.10921
1.53968
0.021999
0.0215146
5.84622
0.0219789
0.0219341
0.0280158
0.0219965
5.43664
0.261105
0.057581
6.60341
0.0470906
0.120325
0.0237987
0.0219911
0.0215406
0.0217835
9.8736
7.70449
0.34849
0.0220576
0.0215393
0.0304553
0.021845
0.0393916
0.0257208
3.86501
5.49709
0.0750366
0.273631
0.386598
0.0218953
0.251251
0.0219068
5.22887
0.630309
5.80937
8.01433
0.0230513
0.0286383
5.32616
6.53955
6.34621
0.0455381
0.137441
5.99077
0.0220483
0.262204
1.59179
0.11123
0.0220424
0.0219798
0.0402624
4.61288
3.1034
0.0996194
0.0219675
0.024938
0.0289955
53.3502
0.0222891
0.711451
0.0218894
0.022758
0.22175
0.0218645
0.0220223
0.0232507
0.0270779
0.0219774
0.0226961
0.0216173
4.45729
2.21898
5.022
0.0216396
0.0501306
0.0220128
0.247768
0.265337
0.0372486
0.0218928
0.0228713
0.652879
0.125116
0.0287331
7.67682
0.107363
0.0219544
0.0220436
3.75558
6.36443
0.0636201
0.0216207
3.34553
0.0221264
0.0358575
0.0216708
1.69901
5.37383
0.0218611
0.0220321
3.76569
0.0219482
6.36633
8.84761
0.0544402
0.0222726
0.0221662
0.0216665
0.0220361
27.0619
12.1629
0.15095
0.02286
4.6558
0.0219504
0.0219278
8.44732
0.0217558
6.56039
0.0215184
0.0289297
0.0233392
0.0219309
0.021847
0.0221212
5.46596
0.0224874
0.0221941
0.157332
0.040492
0.0219728
0.0593677
0.0370684
0.0221264
0.292975
0.0219783
0.0372453
5.7548
0.084563
0.0219532
0.312412
0.082112
0.0916315
0.0266276
0.0593722
8.84966
0.0244294
0.0580841
0.0219485
0.0215962
0.0220079
0.041679
0.0368005
0.0434473
0.0218743
0.0273368
0.0572382
6.86426
0.262901
0.0219242
0.0217853
0.0228355
0.107305
0.0218157
8.99224
0.0219556
0.0219703
0.0217843
0.43726
6.54787
0.0221551
0.0235852
0.0218842
0.0883613
0.0218099
0.0219597
0.582231
0.0222704
0.0216007
0.0221322
0.151531
0.0217966
0.0218821
3.70156
12.7462
0.616521
0.0436792
6.56843
0.0504287
0.0219506
0.0219036
20.8998
0.0219611
0.064037
0.0785505
0.0410799
0.026763
0.0223576
0.0307133
0.0228685
0.0216275
0.229572
5.54021
0.043846
0.0217887
5.94624
0.0432303
7.29418
11.0015
0.0932463
0.0221414
0.0219407
0.0218733
0.0550351
0.0221279
0.0218448
7.26323
0.161915
0.0406802
0.0219047
0.0685867
0.325278
0.0220981
0.0264699
0.0363942
0.143467
0.0684438
0.0220336
0.0233757
0.0372149
0.021822
0.049825
0.022323
10.727
0.060022
0.131397
0.0217876
0.0370851
6.68652
3.72895
1.18372
0.0643421
10.125
0.0221311
0.0219518
0.0226806
0.0937063
0.0221698
0.0234562
0.0308705
0.0545526
0.0220035
0.021955
0.022028
0.022277
1.51515
3.83769
1.35705
0.0219953
9.4469
0.0297494
0.0221554
0.0315595
0.0218884
0.0905999
0.0229847
0.0219671
5.34339
36.4778
6.16066
0.0223764
26.0998
0.0219654
4.64927
5.45638
0.0215587
0.0565853
0.284272
0.0216271
0.0219639
6.20568
0.0222904
0.0220207
0.206365
2.16078
0.0220303
0.0308001
0.022151
0.0251058
0.124478
0.0221671
5.71193
0.0417427
0.0219607
1.8293
0.0610732
0.0756586
0.0222881
0.324177
0.0220673
5.7374
0.0219674
0.0217757
14.8228
0.0217049
6.45544
0.021966
0.0552309
8.14245
4.93932
0.0220054
0.0223579
0.0220296
0.0232719
0.0268171
0.0267322
0.021494
9.86112
0.0218829
0.0219814
0.152698
0.213739
0.0439549
0.0220298
5.10231
0.0872628
0.0223873
0.0353314
0.0219161
0.0217659
8.63182
0.021636
0.0217796
0.0218217
6.85447
0.0218204
0.0218454
5.95743
0.0251476
5.3997
0.031888
0.0215213
0.0218807
5.2875
0.0260127
0.0220081
8.04521
5.33172
0.0217944
4.36426
0.127593
0.0219389
0.0220258
0.332595
0.022221
4.49994
0.0335314
0.0220346
2.632
9.91518
0.244326
0.0218936
6.88846
0.0300368
0.400585
0.659854
0.0219101
9.25717
0.0220122
0.0319359
0.026114
4.58307
0.0216929
0.0223997
4.42421
0.0222731
0.0357005
0.0216995
0.0221148
5.97379
0.0927289
0.0252708
0.0357614
1.66105
0.022322
0.0233313
0.055179
0.121019
0.0253241
0.0219527
0.0219208
0.0221474
0.0225923
0.0218492
0.0339907
0.0275454
1.83016
0.0220102
9.45616
0.0219956
0.0281621
0.0219853
0.0363459
0.0221089
0.0219333
4.92119
5.72609
0.0240523
0.0220989
15.5417
0.0275962
14.7136
0.0367821
0.0712547
4.74057
10.2819
3.56479
0.0230502
0.022007
0.0218053
3.6553
0.0218287
0.0220242
0.155558
0.0218524
0.0221864
0.0220674
12.2042
1.68585
0.0221816
5.3668
5.21661
0.0239523
0.0219427
0.0222013
3.74371
0.0216908
0.0862142
0.0222883
0.0219859
0.0220847
0.0217635
0.0720894
0.0219814
0.0219067
0.0217873
0.0216295
0.36155
0.0216149
0.0218149
0.0221209
0.0219526
0.2764
3.27069
0.0599722
0.0226272
0.0220097
0.0221937
0.0222247
4.11128
0.0219397
0.0316449
0.0683875
4.50221
0.0219581
0.0219176
5.47172
0.0221263
0.107595
0.0836293
0.0224381
5.62307
3.75463
0.0310802
8.56776
0.0279973
0.109557
0.0214949
12.1385
0.0220517
7.53757
0.0220529
0.0218505
0.856268
2.325
0.448023
0.151657
0.0219076
7.13275
0.0221773
6.99283
0.0530197
0.0219353
0.0214971
0.021914
0.0519991
0.0621017
6.10204
0.0385521
0.0218975
0.0219434
0.0219321
11.2041
0.195021
0.0334761
0.0221463
0.0219083
0.0299203
1.07765
0.0219415
0.0328008
0.0687577
0.0219385
0.0238357
0.0231651
0.0579438
0.158719
0.024392
0.0785782
0.0215974
0.0220187
8.15053
0.0405628
0.0882946
0.877313
0.0216189
9.77625
15.9639
0.0507883
6.42905
0.0219368
5.19822
5.89901
0.0956194
0.0218008
9.58197
0.130146
0.0219982
0.037422
5.83495
0.022683
0.0219785
0.0397553
0.0222713
8.97755
0.0307613
0.0220682
0.0222821
0.0218809
0.0684988
0.0320896
9.18851
0.0856617
4.97034
0.07827
0.022261
0.0219394
0.664942
14.1971
0.0219746
0.0219058
0.161604
0.0221134
0.288623
4.78576
9.52024
0.0219551
0.0219864
7.26193
0.0217676
5.30677
0.580609
0.0217244
5.81096
0.0596398
0.0833638
0.0219736
16.5285
0.0220367
3.73247
0.0215124
0.046426
0.0228692
0.0216957
8.75336
0.0227267
0.0219794
0.0234005
4.87422
0.0220848
0.0216082
5.39687
0.0219081
0.021667
0.0221241
0.025154
0.0220622
0.022186
0.0279899
0.0221803
0.0264946
0.0215686
0.279849
7.01537
0.1354
4.94581
0.0277786
0.0264512
0.0218851
0.0218339
0.0221398
7.52912
4.41975
0.0219076
0.0222777
0.0219171
23.3555
0.0216016
0.292716
0.499772
3.69994
6.35242
6.90958
4.58406
0.0216446
3.87369
5.53628
5.81245
0.0262439
0.0221586
0.0397686
0.0216523
4.22123
0.113153
0.0591192
0.0268483
8.12574
0.0219963
0.0214914
4.75234
0.127434
0.0219989
0.0215308
0.0410543
0.022123
16.9261
5.19195
6.59373
3.62264
0.0723993
1.96633
0.0218373
0.269588
0.0221144
0.021959
0.0216575
5.39991
0.0221562
0.0218306
2.23671
5.10603
0.263428
0.136541
0.0229401
0.0392349
9.81477
11.607
5.27705
5.28576
0.121343
6.41988
0.22713
0.539835
0.0515219
0.0383662
0.0218871
0.0364205
0.0315497
0.0220553
5.37448
0.0218185
0.0219942
0.0220024
6.76642
0.0256812
0.0218163
0.0218461
0.0219686
0.135056
0.0899617
1.38604
0.0227264
5.89652
0.0215233
0.021921
0.0819029
0.0704142
0.0215081
3.71382
0.038857
5.72338
0.0219909
8.95351
0.0627612
0.0219264
0.0220627
0.0219561
6.04765
6.24007
10.08
0.0219867
0.0222708
0.0215827
5.67864
0.0283314
0.0220694
0.673324
0.0219373
0.0226111
4.48289
0.0216087
0.0219524
0.022075
0.0221362
0.0214874
0.0224684
0.0215226
0.0222632
0.0720721
0.039714
0.0218385
9.35431
0.0237867
5.68831
11.1941
0.0513655
5.84187
5.72257
0.0218144
0.0390923
0.0220311
0.021851
4.78285
0.0262699
6.52395
0.0274337
0.111942
0.0220984
0.0233128
0.0219139
3.70162
0.0436673
5.24079
0.0220709
0.121283
0.0286129
0.0218045
0.036041
0.0385587
0.0215541
8.60807
0.0221025
0.0382198
0.0220112
0.0306484
0.049906
0.205299
0.0266658
0.070636
8.5479
0.029913
0.037421
0.0216054
6.67548
0.0598353
0.0222715
0.0753596
6.05673
18.9625
0.0219732
0.0228948
0.022173
0.0215922
0.0219408
4.44485
0.028056
0.0220866
9.62602
0.0221177
0.0215955
0.0258407
5.3145
0.0221948
9.07948
3.81299
0.103744
7.42017
0.0226405
5.63557
0.488735
0.0216214
0.0285289
0.0220305
0.022362
0.0369893
8.33007
0.0564285
1.41952
0.396668
0.021908
6.73442
0.0219075
3.61835
0.022268
29.0363
3.66333
0.0221608
0.0217661
0.0222786
0.0318031
0.0835005
0.0219717
17.3813
0.0230242
0.0389842
0.0769479
0.0231003
0.0219251
3.8044
0.0217707
0.203984
0.0294511
21.9176
0.0221282
0.0218972
3.59992
0.0214709
0.021761
0.0225643
0.0606845
0.0495903
0.262027
0.0243661
0.0217676
0.0250841
0.022276
0.0225459
6.26459
0.0219453
0.0491388
6.35496
0.189277
0.0219503
0.0889913
0.0218747
0.0222087
0.427665
0.27768
0.0886969
0.0222394
0.0219502
0.0247445
0.0770839
0.0218955
0.0296709
0.0219048
0.0222497
0.0218456
0.0220397
3.68294
0.0215612
10.1979
5.63323
0.0251112
0.0216872
5.21871
5.80972
0.0218052
0.0219723
12.5194
0.0223307
0.0651326
0.23105
2.3668
0.0219157
0.0228419
0.0492366
0.0219813
7.53228
0.210563
0.0218141
0.0313013
0.0384079
0.0220926
0.306851
0.0221544
0.0508231
0.0229095
0.0248279
0.0215356
0.0219073
0.269706
0.0219818
6.83565
0.0595332
0.0220021
0.0219904
0.0219853
0.0218742
5.91602
0.0222717
0.195609
0.0219063
0.0218612
0.0564823
5.00455
0.0217721
0.0215606
0.021935
0.0225962
0.0299734
0.0300794
4.34912
0.0284234
0.0218426
0.155822
6.36225
0.0222841
0.0307589
4.59302
0.0355361
0.0224327
7.53298
0.0214875
6.98064
0.0399715
0.0220697
0.0699902
0.021872
0.0219234
0.0219262
3.54674
0.022022
1.09627
6.28799
0.513116
0.0291479
0.0219668
4.70137
0.0222778
26.9904
0.0217285
0.419655
0.0258728
0.0745621
0.0227052
3.85406
0.0288823
0.0222245
5.80507
6.23042
0.0215636
1.72449
0.0219899
0.0311827
0.0217465
32.497
0.625046
0.022327
0.0220431
3.97241
0.297639
0.0218571
0.0234972
0.0220332
0.0218097
0.0217171
0.0240775
6.03792
17.0774
0.0224925
0.213512
0.0236963
0.0584828
0.0220034
31.357
6.03006
9.35743
0.0227516
6.6915
8.09594
0.0249721
0.0301716
0.0218796
0.0468748
6.03749
0.0221842
0.0217175
0.0217706
0.0272277
0.0215893
0.0219836
1.38468
0.0231299
0.209826
0.0220331
0.0219719
0.0225208
0.0220448
0.187877
11.9123
0.0217912
0.0411297
0.0215472
6.04842
0.0218207
0.0243024
5.3483
2.61263
0.0262793
4.5239
0.417311
0.0220678
0.0615779
0.0221372
0.0321328
0.0222351
0.0219248
0.149661
0.11167
4.03725
0.101907
0.0350146
9.1633
0.0232817
0.0409679
0.022736
6.07725
3.71791
4.03004
0.0219491
0.021521
6.39982
5.65379
0.0221318
5.13189
0.0221402
0.0267866
0.0214979
0.0218829
0.021819
0.0218407
0.235999
0.0410455
0.0387483
0.0219743
0.0220202
0.0216468
0.0218273
0.0218168
0.0222627
0.0219311
4.25995
4.56842
5.4078
0.023648
7.76704
0.0556978
7.67765
7.87457
0.0558107
0.0221136
0.0222586
0.207302
0.0224337
4.20717
7.52821
0.0225878
0.0217025
0.0302679
5.18961
0.0219955
7.09665
0.0218566
0.0221026
7.96551
0.0219254
0.0288174
0.0221653
4.36735
0.0215854
0.0219399
0.253911
0.0216254
0.0220583
0.0219018
0.0217032
0.0690874
0.0219011
25.718
0.0220241
0.0222172
0.0214786
8.67554
0.0342679
0.0222346
6.21363
0.0220895
0.021562
0.260095
4.5811
0.0221246
7.6474
6.20651
0.0262781
4.52828
0.022112
0.0219686
0.0813098
0.0216762
5.41704
5.26429
0.0214943
0.0260027
0.021887
8.36622
0.722388
0.041998
0.0221451
0.469206
0.0365538
0.0501347
0.0267443
0.0220298
0.0225482
0.0219006
0.0218131
5.89263
0.0214561
0.0218146
0.0411412
8.97767
0.0708467
7.51375
0.0220155
0.042399
0.0218962
0.0219971
0.022094
0.0217655
0.0221536
0.0219126
0.0221031
0.0221726
0.0242108
0.0219928
0.0221547
0.0216873
9.38343
8.11244
0.0222033
0.0227571
4.2632
0.0222102
0.113792
4.96877
3.87279
7.8548
0.943268
7.78427
10.7459
7.18543
0.0217771
0.0299817
0.0218816
0.0504976
0.024579
0.0222236
0.0217947
8.74
0.0216354
0.0299729
11.5408
0.0215909
0.0217353
0.0786675
0.0217044
0.0219047
0.0218937
0.0221889
5.3337
8.9688
0.0220384
0.0219414
0.0220582
0.0228844
0.0435796
0.022884
13.6566
0.239236
0.0221942
5.53061
0.0312084
0.0219372
6.28685
0.0215978
0.0479203
0.0217756
0.0223943
0.0224196
5.37134
0.0219405
0.021963
0.0238721
0.0223189
0.0302325
0.021826
3.91177
0.0396544
0.0446267
12.4992
7.30049
0.10118
0.0319642
4.61839
0.0220113
0.0220038
0.0251451
4.88904
0.0490679
0.049692
7.46092
0.0219765
4.37753
0.274085
1.73159
0.0219992
0.0362227
0.0218773
0.136065
0.0336065
0.494148
7.18876
0.0220162
0.0354647
0.0278008
0.0219225
1.19618
0.0219641
0.0298381
0.159969
0.0914884
0.0219473
0.0222948
0.0222284
0.056272
0.0219514
0.0222005
0.0219582
0.0220796
0.0216661
0.0382074
0.0215494
1.05455
4.17328
0.022562
0.0217587
0.0215609
0.0428673
0.0347848
0.0221275
6.10119
0.0503502
0.0217736
0.0218177
5.98191
4.10725
0.0219386
0.194208
0.0350843
0.0220085
6.61222
0.0226693
0.0757409
0.0222339
14.4409
7.03761
0.0222563
0.0343196
5.06117
0.0347963
6.9873
0.0222394
0.0254942
4.47303
7.02002
0.0251697
0.0254741
0.0225668
0.0244626
0.0228844
6.21894
4.14066
3.7375
0.0235407
0.0219911
0.053826
0.0219082
0.281882
0.0247777
7.83156
0.02158
0.0221892
0.0217628
0.0219108
0.0218452
0.0737657
7.94556
0.0301009
0.0216238
0.0221057
11.1325
0.0235669
0.023794
0.0221557
0.0352533
6.22269
0.0217068
0.0218627
0.0384221
0.0834654
0.0221151
0.0405024
0.0223433
0.0237124
0.115734
0.0288197
7.15748
1.34063
0.0484077
10.8907
0.021857
0.021906
0.023076
7.73433
0.0233033
0.793274
0.0216987
4.97842
0.0354389
0.0218684
0.0298738
0.0223286
5.02928
0.0559103
0.0300357
0.280656
0.100315
0.0221516
0.0222005
0.0222283
0.024772
4.70118
0.0479679
0.0221059
0.208624
0.0218561
7.75214
0.0219469
6.80266
0.0288824
7.91165
0.566095
0.0588462
0.0219635
0.0220054
0.0218685
7.14597
0.0219942
0.0475739
4.81278
0.0215373
7.5719
0.0330283
0.0219524
0.0707028
0.0219128
0.0218382
5.77953
7.0707
5.78874
0.0218974
0.0217667
0.0227867
0.0242725
0.022942
0.0219539
10.8814
0.0696797
4.40149
0.0225276
0.0427162
2.42944
1.33489
0.0303436
0.021763
6.51212
0.0229266
4.61549
0.0218929
0.0220288
0.0219789
0.0217249
0.0215352
0.0222526
0.0217869
0.0370761
7.48225
0.0342483
4.3688
0.0251152
0.0222085
0.0221259
0.436963
0.0220235
0.0225059
0.0220462
5.2544
5.00851
0.0217827
0.0236704
0.021869
0.0219709
0.0222783
0.0220655
0.0218991
1.0302
0.0222651
0.0218048
0.140936
0.0218295
4.09273
0.0742898
0.0809641
0.203551
0.0240011
0.0220799
4.19631
0.0220707
0.0684064
0.0289281
0.0217929
0.0504008
0.0220664
7.30425
0.0216138
0.0218011
6.32269
0.0556191
10.644
0.0217541
0.0864569
0.168373
0.0318697
3.6169
0.0218813
0.0217496
0.0216223
0.0933362
0.0228153
0.791939
0.0220043
0.0386906
5.82805
0.212602
0.0220144
0.933182
0.025386
6.78428
0.0235789
0.0234399
0.0239517
5.26867
0.0219613
0.0223488
5.78025
0.0215673
0.0262719
0.021833
0.046849
5.00316
7.59884
0.0218632
0.0985652
0.0220015
0.358266
0.0220156
0.0224302
0.079065
26.5454
0.0396583
0.0219951
0.0254609
5.73976
0.0594463
0.0770363
7.2031
0.0220238
12.7091
0.0230925
0.182954
0.0217978
0.0250281
6.5492
0.0255333
0.0219182
0.488764
7.37322
6.71285
0.0217063
3.68189
0.457904
0.0216217
0.164259
8.93693
0.022278
0.0228695
4.83252
0.0215002
0.0224265
0.0218299
0.022067
0.113914
0.0848862
0.0341253
4.71326
0.0222709
0.0584428
0.0298353
0.0222228
0.0233178
0.0336978
0.0220017
0.0222271
8.72218
5.17245
7.6112
0.0216834
0.0367764
0.0221371
4.05552
0.0220949
0.0414456
8.14283
6.09335
0.0678801
0.0219679
3.83641
4.33314
0.753533
0.0219997
0.022127
0.0218359
7.53169
0.036978
0.156079
6.99474
0.0220605
0.0222113
5.60081
0.0288236
0.0923888
0.0221744
0.0218881
0.0219762
2.05746
0.0220282
0.0484409
0.021768
0.022113
0.0217943
5.3515
5.54693
0.0238286
0.588543
0.0230071
0.526819
0.0219101
0.0218982
0.0774955
0.0220701
0.0219213
0.0254787
0.107034
0.0286301
0.14219
0.0220463
0.0627067
6.59166
0.0221168
0.0220426
0.0220246
6.31148
0.0458886
0.0474373
0.0791445
0.0217792
0.0218666
0.142805
0.0256846
9.46337
9.23831
0.0360564
5.23372
4.14771
5.59423
0.0510842
0.0223279
0.0220008
0.267647
5.87507
0.0218732
0.0383083
4.8655
0.0221081
0.213005
1.78885
0.123661
0.0219199
0.0799571
0.0221436
0.0221063
0.0216302
0.87756
0.0221178
0.0497475
0.0364287
0.0219852
0.0221841
5.42056
0.0217862
0.0215988
0.0441593
0.673989
0.035634
0.0220236
0.0401891
4.33446
3.664
0.0278528
4.52452
0.0739691
0.12525
0.0598587
0.0221077
0.155404
0.0327694
0.0216579
0.0217282
0.0223795
0.0257226
0.286217
5.44056
0.0222182
2.01458
0.0781502
3.45077
10.4848
0.26958
4.1199
0.125103
4.18641
0.048359
5.41261
0.0532705
0.021975
0.0221331
7.88032
3.71063
0.109407
5.35847
0.0218228
5.62841
4.66333
0.0220371
0.0216495
0.0377642
0.0594467
4.89448
9.9043
0.117526
0.0218729
0.0218252
0.0222177
9.06854
0.0255382
3.86143
0.0245291
22.7603
0.202186
4.68308
0.0273689
4.02184
0.0218055
0.0215976
0.0258697
0.0221643
6.06265
0.143722
3.98419
0.0220669
5.82667
5.31485
0.0215509
0.0426298
5.53833
0.0436748
0.0218707
0.0261432
0.0219754
5.27974
0.0214622
0.0223734
6.33787
0.0287768
0.0492843
0.0278117
0.0218142
0.0222113
0.0421011
0.0220576
0.0216546
0.0218352
0.0295239
6.12586
3.35278
0.0219708
0.134038
6.14395
0.0221184
6.68643
6.34771
0.0221739
8.87814
0.022077
0.0902917
4.58744
0.0219622
0.0221669
0.022201
0.0762646
0.0260423
0.0218595
5.59103
0.0219838
7.4581
0.022041
6.07961
5.6352
0.0250408
0.0217444
0.165383
0.082963
0.156619
3.86041
0.0443785
0.0222043
4.13606
0.0224646
0.0726083
0.0664663
0.0298267
0.0638245
0.0218848
0.141468
4.95364
5.23697
0.123032
0.0218821
0.196818
4.27031
0.0222719
0.220337
0.0975266
1.3632
0.0219837
0.0250684
0.0215073
0.201043
7.87231
0.0777413
7.77515
0.0881252
0.0365605
5.2727
5.53398
5.01278
0.521118
9.31965
0.0656072
11.8979
0.0470833
6.96505
6.78043
0.0232818
0.0223488
0.026917
0.0599005
0.0219988
0.0262047
0.0222616
0.0241956
0.0220043
0.0218783
7.83957
5.44368
0.0222037
0.0517392
0.0221071
0.0217954
0.0237072
0.0815503
0.0234337
0.0941293
0.0222049
0.0439762
0.866352
0.107704
0.0463358
0.0219763
0.105517
0.0222202
0.0219243
0.639701
0.0228717
5.73011
0.18155
0.0219292
0.0243114
4.0801
0.0220776
0.100243
0.0584037
0.0601282
0.0265646
0.0370445
0.0220095
0.0221681
5.47889
7.53878
0.0349703
0.080114
0.0220447
4.71721
0.0256005
7.27725
0.0809636
0.0221117
0.0216836
7.34996
0.172101
6.57575
0.0281829
7.82977
0.0226805
5.84518
9.31866
0.0309753
0.154009
0.0218552
6.79865
0.0222438
10.5473
0.0288392
4.26241
5.6095
5.29748
5.3752
0.0363006
8.24635
0.157323
0.0487637
5.73778
3.6886
4.70823
0.0217148
0.0259249
0.0757233
7.11654
0.0218878
0.0217978
0.0298785
0.0630254
10.8623
0.0601269
0.0455708
0.021927
0.131771
0.0215514
0.189717
5.35365
0.935851
0.0217799
6.22889
0.0680599
0.0225957
5.2323
1.83997
0.0264915
4.82706
4.89103
4.76275
0.0570222
0.0218411
0.0290118
7.12648
0.0373505
0.0219768
7.04431
0.0215022
8.04527
0.0232181
0.0221672
4.32368
5.2266
0.021846
0.0517941
0.0219476
6.85271
0.021513
4.16625
0.158381
0.0423998
0.021909
0.0220039
0.0221611
0.0362632
0.0475382
0.131144
0.0287978
4.7993
0.0328505
0.025349
6.97238
4.11705
0.0216476
0.160095
0.0219662
6.04645
0.0221414
0.0432766
7.04838
0.0272811
0.0219261
5.24831
0.0223165
0.0222547
0.0469126
0.0222781
0.021896
7.42798
0.0565971
6.60456
0.0222785
0.128927
0.0748807
0.0216498
0.0219245
0.0235926
0.0218513
5.70244
2.56455
4.12239
4.38102
3.81147
5.90537
0.0219172
0.0220199
0.0219398
0.0221658
0.11475
6.70073
0.0305396
0.0248728
3.79007
0.0223094
0.0217848
3.32884
0.12434
0.0214774
0.0219632
0.0219035
0.207171
0.0217583
0.0219578
0.166325
0.034001
0.104134
0.0238381
5.49428
7.02387
0.0214692
0.0217266
5.72918
0.0341638
0.0251275
6.25388
0.0353353
0.125201
0.497769
0.0234985
0.454248
5.55887
0.0215459
0.0258277
4.96082
0.0252717
0.0220117
1.55361
0.0553866
0.0492634
0.0221893
0.352742
0.0239042
4.55201
0.0220465
0.0219751
0.0334264
0.0634608
6.8055
0.0356095
0.0219718
24.5637
4.88224
0.0240257
0.0770324
0.0220341
0.0219001
0.0217538
5.13944
0.02186
7.14464
0.257914
5.15665
6.52898
0.0353031
4.99112
0.0331506
6.89718
0.540886
0.116812
0.668167
0.0772437
0.0964939
5.90306
0.0501316
0.0220042
0.0220616
15.8911
0.0403127
0.0230048
0.0221854
6.86158
9.37443
0.0220948
4.01374
9.6009
0.057941
0.419248
0.0407772
0.0406738
0.0392184
0.102612
5.53543
0.0272775
0.203017
0.253894
0.0217634
0.105282
0.0281006
5.77375
0.0628729
0.0219589
0.258999
0.0654668
0.0767954
0.581261
0.0225344
5.38345
0.218639
10.5525
7.61764
0.0221836
0.0220141
0.0218919
5.05748
5.41729
0.0860765
0.154549
0.0218575
0.0217405
0.0226337
0.0700755
3.85713
0.0523997
7.29544
0.0757072
0.388885
0.843358
0.0217643
0.0533892
7.53198
7.17082
7.31861
4.62018
3.89468
0.0222511
4.73279
5.59041
5.39274
4.07709
0.0219351
5.87578
0.0225767
5.25825
0.0271842
12.1532
11.3484
3.88829
0.0221574
0.0219841
0.0740141
0.0238229
0.115405
0.0222723
0.049657
0.0490395
0.0218001
0.0220012
0.0340077
0.0219288
7.60555
0.0218858
0.0231912
5.83442
0.058813
5.03798
0.110306
8.34204
0.0219328
0.0219762
0.0222875
5.03998
7.91879
0.0220258
0.047491
7.74013
9.43789
0.0218872
4.43297
4.78469
0.0218142
5.17059
0.0219069
0.039534
0.0220123
0.0597256
0.0220726
0.142692
6.47161
0.0218636
0.0221593
7.95111
0.0356075
0.0217014
0.022109
9.42545
0.0218735
0.0222061
4.38515
10.9379
4.99026
0.0822964
0.0219289
4.69742
6.09078
1.05513
0.0221664
0.0793581
0.0585725
0.0219636
0.23257
0.0218193
0.0218384
0.0218387
0.0525817
8.01007
4.64259
0.0429342
0.146654
0.0218868
5.2964
0.0218272
0.0281408
0.0470272
0.0233566
0.0504198
0.0358948
0.0218755
0.120118
8.10248
0.0583674
16.9582
8.05898
0.0630659
0.0219787
0.0249202
0.241392
0.0296492
0.0221944
0.102326
7.12901
0.0217088
8.10642
0.0283058
0.021979
1.23591
7.00805
5.32068
0.0219715
0.0266408
0.0249659
0.0562471
0.0489764
0.0218775
0.0219802
0.116031
1.3213
5.86755
0.027271
0.0222933
0.0217473
0.167325
0.0220259
4.66883
0.0222728
0.0412907
7.57185
0.204308
7.4998
0.0220531
7.89148
5.19747
6.80006
0.0220036
0.0222543
0.049943
3.65378
0.0218257
7.76308
0.0218711
0.0215022
5.17479
0.022184
0.053337
0.0280189
0.0229209
0.0319071
0.0290701
0.069367
0.0470006
0.0374107
22.4634
0.176243
4.22617
0.0474058
0.0338295
0.056775
5.36652
0.173354
0.0276645
0.0220821
6.07659
0.0227566
1.05767
0.217963
0.529872
0.0216938
10.3715
0.0220582
2.11665
0.0226065
0.882919
5.06293
0.0501328
11.5749
4.00827
6.57493
4.4339
7.66824
0.0646459
0.0219375
0.0218065
1.05621
0.0218109
0.0219375
0.0220031
0.0408647
0.0233656
0.0340892
12.3471
4.48517
0.118895
0.0276007
0.0275055
0.0215819