/*--------------------------------*- C++ -*----------------------------------*\
| =========                 |                                                 |
| \\      /  F ield         | OpenFOAM: The Open Source CFD Toolbox           |
|  \\    /   O peration     | Version:  v2012                                 |
|   \\  /    A nd           | Website:  www.openfoam.com                      |
|    \\/     M anipulation  |                                                 |
\*---------------------------------------------------------------------------*/
FoamFile
{
    version     2.0;
    format      ascii;
    class       volVectorField;
    location    "300";
    object      ddt0(U);
}
// * * * * * * * * * * * * * * * * * * * * * * * * * * * * * * * * * * * * * //

dimensions      [0 1 -2 0 0 0 0];


internalField   nonuniform List<vector> 
9793
(
(0.0401415 -0.00463771 1.8119e-18)
(0.0333696 -0.0292752 2.37536e-20)
(0.0405232 -0.00747611 -4.62103e-20)
(0.00134469 -3.51384e-05 -1.86011e-19)
(0.115565 -0.00138777 -8.88262e-18)
(-0.00671369 -0.00220494 1.05573e-18)
(0.000415131 -1.32916e-05 1.52143e-18)
(0.000957474 -0.000357056 -1.21282e-18)
(0.00188629 0.00126121 3.42465e-19)
(0.127325 -0.0230069 3.40862e-18)
(0.00542507 0.0310122 -4.66686e-19)
(-0.056698 -0.0201042 -7.16714e-20)
(0.00189528 -3.01401e-05 -2.99666e-20)
(0.00295363 0.000332626 3.24954e-20)
(-0.000348575 -7.34314e-07 -1.23108e-19)
(0.00254712 -0.00029624 -3.72444e-19)
(0.00560267 7.86944e-05 -1.57212e-18)
(0.0060034 -5.21691e-05 7.06508e-20)
(0.0518456 -0.0315287 -3.32314e-19)
(0.00300142 -0.000131257 7.00156e-19)
(0.00389795 -0.0638798 -1.17333e-18)
(0.00769614 -0.00344573 1.05009e-19)
(-0.0404462 -0.0178294 1.28779e-19)
(0.000271973 -0.000583954 2.85936e-20)
(0.00523791 0.00226695 -6.49159e-19)
(0.00205931 -2.3566e-05 1.75291e-19)
(0.0025534 -0.00147714 -2.08854e-19)
(0.00302769 0.00151878 -5.55809e-19)
(0.0191301 0.0172991 8.46977e-18)
(0.00215777 0.00117191 -5.29044e-19)
(-0.0292316 0.00483389 7.5307e-19)
(-0.0361635 -0.0145741 4.46274e-20)
(-0.00260938 0.145457 -1.14768e-17)
(0.0003023 -3.05699e-06 -4.27039e-19)
(0.0236396 0.0167501 1.83794e-18)
(0.0481608 -0.074988 6.70645e-19)
(0.00086741 -9.30812e-06 -1.18648e-18)
(0.00731919 -0.00399452 4.53533e-19)
(0.000352061 -0.000802818 -4.00161e-19)
(0.00100024 1.61015e-06 4.42407e-19)
(-0.0271969 0.00742747 -1.31927e-18)
(-0.000297204 -1.98038e-07 -8.35179e-20)
(0.00194812 -1.24324e-05 -4.54021e-19)
(0.000674634 -1.40814e-05 1.06072e-18)
(0.0021421 -1.33965e-05 4.12633e-19)
(0.00203495 -2.18958e-05 -4.12013e-20)
(0.0215845 0.0184106 5.97499e-18)
(-0.0113477 0.0480628 6.85931e-20)
(-0.0335076 0.0980759 -4.11919e-19)
(0.000974885 -3.59466e-05 -1.98775e-19)
(0.0253479 0.0176373 2.59827e-18)
(0.0112065 0.0321696 -6.33771e-18)
(-0.00555963 -0.00493512 9.61494e-19)
(0.00245098 0.000591155 1.94015e-18)
(0.0499281 0.0430091 2.92021e-18)
(-0.105498 -0.121998 -1.87605e-20)
(0.000963636 0.000439305 3.54233e-20)
(-0.00981662 0.0451859 3.63969e-18)
(-0.041663 0.276317 1.31465e-17)
(0.00103788 -0.000722508 -8.76051e-19)
(0.000645361 -4.14971e-06 9.55081e-20)
(-0.00330256 -0.00649865 6.62244e-19)
(-0.0889535 0.187778 7.09344e-20)
(0.00157235 -1.23719e-05 3.48061e-19)
(-0.190716 0.280071 -1.49897e-17)
(-0.0178883 0.111345 -5.64403e-18)
(-0.0870451 0.19698 1.4237e-18)
(-0.0755225 0.172986 5.18641e-18)
(-0.0636468 -0.0139045 -1.84233e-19)
(0.00731492 0.0294134 -7.02961e-20)
(0.0518553 0.0386328 -1.25537e-17)
(5.91927e-05 -1.81538e-05 -4.82871e-21)
(0.001476 -0.000243434 1.21323e-18)
(0.0296478 -0.0165889 7.70604e-20)
(0.0282446 0.0170227 -2.5338e-18)
(-0.0426167 0.283301 -1.30423e-17)
(0.00135916 0.000464071 -5.71658e-20)
(0.00229395 -0.0025536 -1.85901e-19)
(-0.00126451 0.00497503 -5.91205e-21)
(0.0025955 0.00272912 1.2602e-18)
(-0.0265605 0.102182 -9.1548e-20)
(-0.00361142 0.00325346 -1.0396e-18)
(0.0184279 -0.0443205 5.71437e-20)
(-0.0202977 0.0187515 -1.50626e-19)
(-0.022992 0.0050821 3.9061e-18)
(-0.0177306 0.0374678 -5.89404e-19)
(0.00320344 0.00312434 6.32128e-20)
(0.00163723 0.00047893 5.28288e-19)
(-0.00294724 -0.00507164 9.04419e-20)
(-0.0054359 0.00150736 -1.56694e-18)
(0.0348936 -0.0210132 4.99804e-20)
(0.0211788 0.0987995 -6.54243e-18)
(-0.00105525 -0.000687973 5.37444e-19)
(-0.0385483 -0.00883419 8.59257e-20)
(-0.00267885 -0.00591597 -6.19447e-19)
(-0.0215848 0.0147828 5.13639e-21)
(-0.0681665 -0.123871 1.9725e-19)
(0.0246434 -0.0342557 -1.69796e-19)
(-0.000936272 -0.000641336 -6.40818e-19)
(-0.000494464 0.000304649 1.79634e-19)
(-0.000427452 0.000373706 -1.62971e-19)
(-0.00406371 -0.00191044 -7.33651e-20)
(0.000559087 -0.000582288 2.88264e-19)
(0.000565106 -0.000466972 3.07739e-19)
(0.00230188 -0.00206954 1.73168e-19)
(-0.0207001 0.00661129 -3.89149e-18)
(-0.00184645 -0.00474727 -1.60384e-20)
(0.000702815 5.96716e-06 -9.40624e-19)
(-0.00498079 -0.00449789 -8.76523e-19)
(0.0129869 0.0633414 1.08863e-18)
(6.7814e-05 -1.4116e-05 3.07197e-21)
(-0.0239238 -0.0602521 1.25105e-18)
(-0.0006801 0.000314053 4.17005e-20)
(-0.0793896 -0.247067 -2.98936e-18)
(0.0137695 0.031622 -3.00615e-18)
(0.00123609 0.000476541 -1.27949e-19)
(0.0172917 0.129469 4.24195e-18)
(0.0290265 0.0149323 -7.14811e-19)
(-0.00411664 0.00413244 9.56925e-19)
(-0.03543 -0.00585155 1.67566e-19)
(0.00749555 0.0683428 -3.47711e-19)
(6.96878e-05 -3.39733e-06 -3.09059e-20)
(0.000900952 9.75909e-05 9.67358e-20)
(-0.00770344 -0.00196937 3.47786e-19)
(0.003807 0.00118179 2.13513e-18)
(0.00120548 -0.0638277 -2.90138e-18)
(-0.00506851 0.0186925 7.15003e-18)
(-0.0214973 0.0329787 -4.57195e-20)
(-0.00143305 0.00604235 -3.43954e-19)
(0.00164226 -0.000370475 7.2637e-20)
(7.69521e-05 -8.40538e-06 -1.27462e-19)
(0.00160063 0.000500405 4.09817e-19)
(0.00162166 -0.00039631 -5.00987e-19)
(-0.00182481 -0.00431553 4.83623e-19)
(0.00167483 0.0010905 -1.68743e-19)
(0.00160323 0.000486644 -4.67378e-19)
(0.00193751 -9.69931e-06 -6.17946e-20)
(0.000697908 -1.35971e-05 3.51056e-19)
(-0.000151055 0.000291683 -3.79306e-20)
(0.00017782 -5.55321e-06 5.178e-19)
(0.00125986 8.03294e-05 -2.16414e-19)
(0.00526631 0.00105373 -8.16118e-20)
(0.000976504 -3.87787e-06 1.67464e-19)
(-5.07509e-05 0.000948468 -3.79115e-18)
(0.0033455 0.00063321 2.45145e-19)
(0.00442744 0.000867095 1.07409e-18)
(0.0290395 -0.019942 2.38105e-19)
(-0.000186506 0.000887892 -4.78251e-19)
(-0.00051179 -0.000810513 -5.71778e-20)
(-0.0696631 0.150247 8.56652e-18)
(0.0619421 -0.0428697 -2.94942e-18)
(8.18414e-05 -6.30129e-06 1.19787e-19)
(0.0667083 -0.041378 1.76918e-18)
(0.112773 -0.024502 4.20111e-18)
(-0.000380023 -0.000718905 -5.79019e-19)
(7.39635e-05 -3.85265e-06 5.53498e-20)
(0.000119242 5.02137e-06 1.44579e-19)
(0.00487252 0.000687566 9.3148e-19)
(-0.000313009 0.000647407 -8.31711e-19)
(0.00099144 -5.64542e-06 2.98187e-19)
(0.00128818 -0.000420609 7.67713e-19)
(0.00323136 0.00115578 -8.38137e-19)
(0.00140829 -0.00129749 1.14916e-18)
(0.0510611 -0.0362307 -9.52978e-20)
(0.0335412 -0.0177435 1.79085e-19)
(0.019298 -0.0659377 -9.06615e-19)
(-0.0166968 0.0447672 -1.30998e-19)
(0.012614 0.0023835 -1.31197e-18)
(0.00212554 -0.00144623 -2.16189e-19)
(-0.00225038 -0.00133988 1.08787e-18)
(-0.000585073 0.00145211 2.66942e-19)
(-0.0541778 -0.0236605 -7.11075e-20)
(0.0358557 -0.0184776 2.55441e-19)
(-0.0582806 -0.0628526 -1.73028e-18)
(0.00361688 0.00138581 2.06698e-19)
(0.051352 -0.0321433 4.73894e-19)
(0.0015688 0.000512926 -1.46826e-19)
(0.00036685 -0.000307679 1.36627e-19)
(0.000872807 -0.000493376 9.2376e-21)
(0.00862555 0.0106898 4.00164e-18)
(-0.195841 0.0106082 -2.58798e-19)
(0.00228297 0.00381035 2.0803e-19)
(-0.000425167 0.00057226 -7.33932e-19)
(0.00501396 0.00175374 -1.89282e-19)
(-0.0117054 0.281556 3.70805e-18)
(0.00117239 -0.000201304 -8.8579e-19)
(-0.0126592 0.0484141 8.81551e-19)
(0.000833184 -0.000461876 1.77137e-19)
(0.000809882 -6.37319e-05 -1.18081e-19)
(0.00162199 -0.00103769 8.07741e-19)
(0.003462 0.00158723 4.88683e-18)
(0.0018407 0.000116936 5.12374e-20)
(-0.0066205 0.0896816 3.61711e-19)
(-0.0133819 -0.0633957 -3.00464e-18)
(-0.0920965 0.175723 -7.55868e-18)
(0.00824994 0.0101719 -6.15956e-18)
(0.0494808 -0.0129386 -2.70279e-19)
(-0.00232602 0.000288919 -9.20624e-19)
(0.10589 -0.030168 2.99942e-18)
(0.000132387 -4.28815e-06 -3.96455e-19)
(0.0016725 0.00103717 3.66358e-19)
(0.0487456 -0.0439673 -8.36646e-19)
(-0.111094 -0.154001 1.83001e-20)
(0.00157802 -0.000336686 4.77454e-22)
(0.00152023 0.00051274 2.72033e-19)
(0.00175558 -0.00191025 1.25392e-20)
(0.0324084 -0.0705416 6.02232e-19)
(0.0015142 0.000951467 3.04509e-19)
(-0.0171951 0.0045836 6.30142e-19)
(0.00605157 0.00246783 1.92673e-18)
(0.0134196 0.0108267 -8.13927e-19)
(0.0232984 0.0645948 -7.54016e-19)
(-0.0710182 0.115581 -2.49558e-18)
(0.00290685 0.000705018 -2.33891e-18)
(0.0519767 -0.0149323 -1.29838e-18)
(0.000121372 5.71499e-06 5.14359e-19)
(-0.0015762 -0.00247776 1.05573e-18)
(-0.00656191 0.25183 -7.67246e-18)
(0.00175661 -0.00155241 -2.08043e-20)
(-0.0579189 0.0228305 -1.93651e-18)
(0.0361855 0.00942404 1.05795e-19)
(0.00185526 0.000291258 -3.70739e-20)
(0.00370605 0.00142143 -1.10215e-18)
(0.00179973 0.000107878 -1.10807e-19)
(-0.0227336 0.022698 2.06328e-20)
(0.0505913 -0.0375376 3.93057e-19)
(-0.00634886 -0.0031334 1.32195e-18)
(-2.66083e-05 -0.000680899 -2.66849e-19)
(0.0352891 0.0122162 -2.0828e-19)
(0.00924634 0.0254704 8.98213e-18)
(0.000476553 -0.000630222 1.80793e-21)
(0.000340163 -0.000456122 -1.37773e-20)
(0.00251657 0.00405204 2.67888e-18)
(9.86607e-05 -2.61049e-07 -7.37887e-20)
(-0.00180051 0.0231783 -2.76537e-18)
(-0.0728759 0.0468387 -3.435e-19)
(0.000520247 0.000264621 1.89582e-20)
(-8.37891e-05 0.000988409 -1.00434e-20)
(-0.0647103 -0.0982655 1.50398e-18)
(-0.00401396 -7.44585e-05 -6.00273e-19)
(-0.0151908 0.00575735 9.72286e-19)
(0.00264495 0.00111314 5.48151e-19)
(0.000415676 0.000910266 -1.63962e-19)
(-0.00995081 0.130618 7.21729e-18)
(0.000532264 0.00071849 2.27164e-19)
(-0.000700244 -0.000705839 -8.41432e-19)
(0.000978476 -0.000324945 9.7214e-19)
(0.00483903 -4.95179e-08 5.6272e-19)
(-0.000787497 -0.000784845 4.06573e-19)
(0.000345851 -3.83037e-06 7.36721e-19)
(0.00282029 -0.00165974 -3.37566e-19)
(0.00732539 0.00540995 3.4771e-18)
(0.014569 0.0290119 4.99839e-19)
(-0.00343438 0.020906 1.85221e-17)
(0.000144126 0.000580747 -8.93807e-19)
(0.00689841 -0.00681282 -4.59328e-20)
(-0.000332321 0.00104101 -2.56619e-20)
(0.00796251 0.00567909 -4.45136e-18)
(-0.00699805 0.003216 1.27642e-18)
(0.00114371 0.000991014 -3.14878e-19)
(-0.00919026 0.133984 -1.04782e-18)
(0.000566463 0.000799277 -2.14737e-19)
(0.0170078 0.0281755 4.56649e-18)
(0.000295353 7.58951e-07 -7.59831e-19)
(0.0131583 0.0030565 -2.02673e-18)
(0.000945401 -0.00112794 1.84081e-21)
(0.00100135 -0.000936509 -2.05562e-20)
(0.0143953 0.00997008 7.54218e-19)
(0.048684 -0.0485394 3.39814e-19)
(-0.00259906 -0.00386046 -2.66876e-19)
(0.000997788 0.00110417 7.07036e-19)
(0.000536957 -0.000397741 6.4172e-19)
(0.0124592 -0.00633338 7.67415e-19)
(0.00197237 0.000362338 1.86112e-19)
(0.0399475 -0.0179195 -8.27009e-20)
(0.0403826 -0.0203693 -1.42052e-19)
(0.00216992 -0.000370925 -1.55327e-19)
(-0.00369708 -0.0748635 5.98134e-18)
(0.00229519 4.05545e-05 -9.19392e-20)
(-0.00484025 0.0200564 2.85567e-18)
(0.00431039 -0.000273276 -9.06928e-19)
(0.000754996 -0.000648854 2.56167e-20)
(0.000486068 2.33322e-06 -1.81652e-18)
(0.000954258 -1.21689e-06 -7.34609e-19)
(-0.00591048 0.0177522 -7.26241e-18)
(0.00197219 0.000262184 -4.04847e-20)
(0.00260522 -0.00183848 -1.24973e-19)
(0.0111654 0.00416222 -6.52025e-19)
(0.000530789 -2.41239e-05 3.1834e-19)
(0.00157972 0.000476822 3.91113e-20)
(-4.83309e-05 0.000286443 4.10419e-20)
(0.00855929 0.137236 2.48404e-18)
(-0.00464443 -0.00340226 4.48429e-19)
(0.000866206 -8.19632e-06 -1.15141e-18)
(7.20207e-05 -4.22118e-06 -3.33502e-20)
(-0.00253854 -0.00403904 -5.87278e-19)
(0.00481392 0.000506285 1.07806e-18)
(0.0121146 0.00440208 2.22782e-18)
(0.00248651 1.16092e-05 -7.83363e-20)
(0.100648 0.0252945 1.83848e-18)
(-0.000212649 -0.000778235 9.64527e-19)
(-0.0404212 -0.00227483 -7.58897e-18)
(0.0244686 0.136461 -4.90868e-18)
(0.000690145 3.0441e-06 1.7437e-18)
(0.000569377 -2.41893e-06 2.70629e-19)
(0.000440653 0.00117675 4.02425e-19)
(0.0133791 -0.00696226 -3.44412e-19)
(0.0106627 -0.000129525 4.49615e-19)
(0.00372363 -0.000998991 7.26681e-19)
(-0.040215 0.0145392 4.78013e-18)
(0.00284822 2.87804e-05 4.76713e-19)
(0.000556996 0.00110917 1.99954e-19)
(0.0110521 -0.000624262 -6.07228e-19)
(0.00228044 -0.00298444 1.14577e-21)
(0.00243111 -0.0006689 -3.06803e-19)
(-0.00460872 0.00104088 6.164e-19)
(-0.0204689 0.0272548 1.14055e-20)
(0.00189159 0.000757708 -1.07182e-18)
(0.0120533 -0.004435 1.67302e-19)
(0.00596665 0.00281888 -5.11487e-19)
(0.00168832 0.000408689 8.88753e-19)
(0.0332993 -0.0168334 -2.39279e-19)
(0.0509764 -0.0243741 -1.20756e-18)
(0.0259127 -0.0171298 1.74285e-19)
(0.00141504 -0.001348 -5.61547e-20)
(-0.220803 0.0240445 -2.28643e-18)
(0.00537728 2.21296e-06 -2.05904e-18)
(-0.0474529 0.238347 1.37482e-17)
(0.0316324 0.0148862 -1.03958e-17)
(0.00077022 -0.000894616 8.81217e-19)
(0.00136909 0.00574545 -5.05505e-18)
(0.0324253 0.0126623 -4.41947e-19)
(-0.00309497 -0.00184127 -1.37713e-18)
(-0.0128933 0.00404864 -1.57267e-18)
(0.00765547 0.0349557 4.58473e-18)
(0.000977856 -0.000294613 4.35034e-19)
(0.00211017 -8.76008e-06 -3.92523e-19)
(0.000710618 0.000936271 -4.84139e-19)
(0.000216007 -1.55662e-06 7.79974e-19)
(0.00319767 0.00190503 1.38213e-19)
(0.0467508 -0.00720793 -1.2994e-18)
(0.00120976 -0.000477112 4.2013e-21)
(0.00128165 0.000387218 -9.0526e-19)
(0.104444 0.0216596 -2.80275e-18)
(-0.00392227 -0.000718293 -1.13388e-18)
(0.00246054 -0.00066605 8.18394e-19)
(0.0011637 -0.00138254 2.00553e-20)
(0.00611633 -0.00219896 -4.24833e-19)
(0.000916249 -0.000336361 6.09902e-19)
(0.0502503 -0.00871737 -1.23298e-18)
(0.00413448 0.000894519 -2.41796e-18)
(0.00179484 3.40226e-05 -6.21358e-19)
(0.00179291 -0.00232746 1.26718e-20)
(-0.00437337 -0.00126608 5.14314e-19)
(-0.064463 0.0100488 -1.98754e-18)
(0.00248334 0.000607839 8.78882e-20)
(0.00185008 -0.0228353 -1.4701e-20)
(0.000409084 -0.000392351 -1.15975e-19)
(0.0107694 0.0180714 2.09485e-18)
(0.0604989 0.0390008 1.16853e-17)
(-0.00908098 0.0504448 -2.12452e-18)
(0.0111859 0.0190292 -1.49779e-19)
(0.00540373 -0.00228103 3.74537e-19)
(-0.00266047 -0.00579362 -1.65387e-18)
(0.0521303 -0.018772 -1.4265e-18)
(0.00065367 -2.94191e-06 -3.57148e-19)
(-0.0124277 0.12443 -2.16663e-21)
(-0.00369144 0.00132431 -3.9664e-19)
(9.11637e-05 1.31032e-07 1.09116e-20)
(0.029455 0.118756 7.3656e-18)
(-0.0114392 0.0047964 6.8193e-19)
(0.0526557 -0.0255829 -8.49805e-19)
(0.00192823 6.99175e-05 7.4157e-19)
(-0.00192079 0.0247752 1.00097e-17)
(0.056663 -0.062474 2.19605e-19)
(0.00311894 0.00818087 -1.53471e-19)
(0.00132652 -0.000188219 7.84355e-19)
(0.00750289 0.14596 6.87172e-18)
(0.00493119 0.00930774 -1.81136e-18)
(0.0298126 -0.0174219 -2.31008e-20)
(0.00745421 -0.00615189 3.21188e-19)
(0.00268652 0.000722981 4.54209e-19)
(0.0178391 0.0389173 -3.84338e-18)
(0.00317933 6.32709e-06 -2.34251e-20)
(0.00609073 -0.0006231 1.47781e-18)
(0.00016131 -1.39453e-06 -1.60106e-19)
(0.00105834 1.13342e-06 -4.75479e-19)
(0.00277284 -0.00104966 -9.16602e-19)
(0.00256828 0.0007464 1.96214e-19)
(0.00723771 -0.00530974 1.46415e-19)
(-0.0668715 0.0101051 1.34303e-18)
(0.0034375 0.00136407 -1.40366e-18)
(-0.175698 0.118948 -8.81423e-18)
(-0.0477488 0.00839206 -1.94162e-19)
(0.0504911 -0.0206314 1.07216e-18)
(0.0073449 0.0255793 3.16635e-18)
(0.0182988 -0.016801 -1.76111e-19)
(0.000363995 -1.48426e-05 -8.22879e-19)
(0.000733062 0.000902661 7.27589e-19)
(0.0676917 0.00192625 -2.40484e-18)
(-0.0472939 0.017658 -1.35323e-18)
(0.00244764 0.00146197 7.64871e-20)
(0.00135044 0.00235171 6.05591e-19)
(0.114944 -0.0312563 1.43192e-19)
(0.000444471 -0.00048887 8.69871e-19)
(-0.0369985 -0.25212 -2.0299e-18)
(-0.000395331 0.00108588 -2.16685e-19)
(0.00772195 -0.00471955 -8.50019e-19)
(0.000322819 -0.000448613 1.99348e-19)
(0.0163271 0.00949726 -3.07787e-18)
(0.00134042 -0.000434686 -5.45308e-19)
(0.00571174 0.00988388 3.91942e-18)
(0.00813633 -0.0726214 1.20882e-19)
(0.00136649 0.00112181 1.92948e-19)
(-0.0393432 -0.0250971 -2.12243e-19)
(0.00924313 -0.00593359 -1.85055e-19)
(0.00474101 0.000844755 2.29476e-18)
(0.0100094 -0.00467722 -2.72497e-19)
(-0.00332732 0.000891998 1.30446e-19)
(-0.00199082 -0.00430716 6.09899e-19)
(0.00419832 0.00153986 -1.09438e-18)
(0.0389952 -0.0374959 -5.88145e-19)
(0.0023716 3.65e-05 -1.46876e-20)
(0.00261049 -0.000764599 6.575e-19)
(0.0100617 0.0346379 5.29586e-18)
(0.00271246 0.000812159 6.39621e-19)
(-0.00648057 0.00432415 -1.80246e-18)
(0.00536353 0.000415465 -6.99439e-19)
(0.00106672 -0.0012225 -1.16635e-18)
(0.00967436 0.0109794 -3.09965e-19)
(0.000806684 -1.25214e-05 -2.68383e-19)
(0.00254168 -0.000986567 -1.02673e-18)
(0.000113422 -0.000399252 5.16762e-19)
(-0.0140099 -0.0785949 1.71575e-19)
(0.00393348 0.000457663 -2.72582e-19)
(-0.00582369 -0.0856502 2.94476e-19)
(-0.00200768 -0.00172311 3.28579e-20)
(0.0568515 0.0437311 6.34414e-19)
(0.00165925 -8.52644e-06 5.15475e-19)
(-0.00286392 -0.00134031 -8.34846e-19)
(0.000580605 -5.88519e-06 4.72204e-19)
(0.00356865 0.00121675 1.52209e-18)
(-0.031388 0.29005 -1.29463e-17)
(-0.00225012 0.000734907 7.43533e-19)
(0.0612755 0.0341051 -3.9304e-18)
(0.00193266 -0.00105014 -1.01691e-18)
(0.000258069 0.00164382 6.60254e-19)
(0.00611866 -0.000156825 1.17407e-18)
(0.104038 -0.0680385 -4.3187e-18)
(-0.0323212 0.0052214 1.51251e-18)
(0.0554027 0.0517623 -7.43944e-19)
(0.0408781 0.0508993 -7.30093e-19)
(-0.00629467 -0.00410107 -1.241e-18)
(0.000672555 6.57925e-05 9.12997e-20)
(0.00165982 -0.029099 2.93618e-18)
(0.0104167 0.0103403 3.53294e-18)
(0.0156171 0.00815599 1.54431e-18)
(0.028283 -0.0387197 2.32655e-20)
(0.0555154 -0.0142712 9.39753e-19)
(0.00284149 2.60248e-05 1.8886e-19)
(0.00743311 -0.00380903 -1.25815e-19)
(2.35562e-05 0.0254819 -1.66917e-17)
(0.00106982 6.33633e-05 -7.6858e-21)
(-0.00509807 0.00240025 1.64584e-18)
(0.000805562 -8.86209e-06 3.02705e-20)
(0.000434182 -0.000666284 -4.05318e-19)
(0.000548185 -2.57663e-06 -5.22188e-19)
(-0.112899 -0.16421 -2.40846e-18)
(0.00664289 0.00972493 8.44416e-19)
(0.0115799 0.172866 1.18385e-18)
(0.000346676 -0.00081116 -4.56888e-19)
(0.0129762 -0.00856929 1.00322e-19)
(0.000299704 -0.000294766 -5.84553e-20)
(0.00029713 -3.10895e-06 -1.5262e-19)
(0.000179083 2.95955e-06 2.61023e-19)
(-0.00405156 0.00255401 -9.23057e-20)
(-0.000376789 -0.0289153 -3.31817e-18)
(-0.00194576 -0.00217606 -4.69892e-19)
(0.0066564 -0.00295834 2.60813e-19)
(7.91468e-05 -0.000679989 -8.33663e-19)
(0.00171036 -2.25944e-05 -5.07419e-19)
(-0.00618628 0.00658079 5.68845e-19)
(0.00166564 0.0634535 1.31071e-19)
(0.000529114 -2.22863e-05 7.19508e-19)
(0.000438648 6.31904e-05 2.50553e-21)
(0.0206853 0.159793 -2.146e-18)
(-0.0101573 0.0034491 6.97069e-19)
(0.00404048 0.00118903 1.88978e-19)
(-0.0859278 0.192408 7.69959e-18)
(0.0401771 0.0634108 1.87958e-18)
(0.000241125 -4.88005e-07 6.54645e-20)
(0.000288998 -4.48357e-07 4.26979e-19)
(0.00681149 -0.000840915 -1.50295e-18)
(-0.00713242 0.00552442 2.96704e-18)
(0.00241172 -0.0010759 3.11558e-19)
(0.0012451 -1.61269e-05 -2.31438e-19)
(0.00309536 -3.32812e-06 -2.49036e-19)
(-0.00274981 7.42603e-05 9.24398e-19)
(-0.000801788 0.0012508 1.19903e-18)
(0.000310793 0.000666952 5.92874e-19)
(0.0235338 -0.0214805 -4.84508e-19)
(0.0185958 0.0302466 5.79869e-18)
(0.000129702 3.1911e-06 -2.7898e-19)
(-0.0227441 0.304253 3.63398e-18)
(0.0206993 -0.00576359 3.17372e-19)
(-0.000696529 -0.000195194 2.31813e-19)
(-0.00410956 -0.00391311 2.41617e-19)
(-0.0020879 0.00453802 -5.87981e-19)
(-0.0305476 -0.0502054 -3.56376e-19)
(0.00422483 -0.000865027 -1.16248e-18)
(-0.065121 0.0136269 7.91058e-19)
(0.0010355 -0.000940529 -5.45397e-19)
(0.000253575 0.000907165 4.01657e-19)
(0.0106797 0.0275845 -5.15129e-18)
(0.00112453 -7.34276e-05 7.61359e-21)
(0.00662012 0.0166623 -9.55654e-18)
(0.0319872 0.0802442 5.37034e-18)
(0.0127687 -0.00493204 -2.43758e-19)
(-0.000707823 -6.18557e-05 6.60425e-19)
(-0.163371 0.0967866 5.90149e-19)
(-0.00911962 0.00398127 8.31933e-21)
(0.000610774 0.000536176 8.78037e-19)
(0.00178895 0.00176042 -6.14132e-20)
(-0.0100245 0.0252462 1.0151e-17)
(0.00123944 -0.000291404 2.51497e-20)
(0.000562881 0.000463672 -1.1108e-18)
(0.00199187 3.05619e-05 1.51838e-19)
(0.00093058 -0.000244827 -3.21898e-19)
(-0.00874111 0.12547 3.5677e-18)
(-0.00353109 0.0223944 -9.24635e-18)
(0.0191739 -0.00589991 -4.97449e-19)
(-0.00524975 -0.00366297 -4.21258e-19)
(0.00199359 0.00150892 -1.16715e-19)
(0.00161365 0.000559898 9.54441e-19)
(0.00246847 0.000528344 -1.54747e-19)
(7.18815e-05 -7.2401e-06 -1.49051e-19)
(0.00233891 3.22802e-05 -6.85467e-19)
(-0.0386204 -0.0382402 2.25308e-18)
(-0.00732885 0.0540085 8.83575e-19)
(0.000633704 -0.000410724 -6.62654e-19)
(0.00100139 -0.00745435 -4.52956e-19)
(0.0722822 0.00484184 3.1081e-19)
(0.000811184 -0.0013154 2.75675e-20)
(0.0170399 0.0138478 6.51658e-20)
(0.00352813 -0.0240353 -3.05888e-20)
(7.00761e-05 -9.71086e-06 -3.08101e-20)
(0.00599484 0.0329699 1.72183e-19)
(0.00923649 0.137254 -7.4199e-18)
(0.00204687 0.000334346 1.24147e-19)
(-0.0186913 0.0470147 -9.80269e-19)
(0.00088736 -0.000570761 -2.20573e-20)
(-0.0855352 -0.210034 -2.02039e-19)
(0.0102998 0.00464914 2.54587e-18)
(0.0630706 -0.0403324 -9.45454e-19)
(0.00146496 -0.000227639 -7.6744e-19)
(0.000264816 0.000787492 2.07818e-19)
(0.00524272 0.000928364 3.10124e-18)
(0.031308 -0.0124131 -2.74495e-19)
(-0.00217756 -0.00646102 2.97145e-18)
(-0.0760107 0.217129 -1.11086e-17)
(-0.0278375 0.104735 6.50532e-19)
(-0.261795 0.306255 1.2392e-18)
(0.00721005 0.0175351 9.79823e-18)
(-0.0463104 0.0228477 4.94796e-19)
(0.0164011 0.00698642 1.52955e-19)
(-0.000152051 -1.8078e-06 -4.59142e-19)
(0.00318636 0.0143773 -4.04658e-18)
(0.00045422 -0.00684975 -3.01123e-19)
(0.016813 0.106517 5.64786e-18)
(0.00230347 0.000119744 -7.98481e-19)
(0.0726442 0.026861 3.12795e-19)
(-0.000389673 -0.000304044 4.53062e-19)
(0.0343139 0.00971422 -1.89561e-19)
(0.000535314 4.61387e-06 7.34526e-19)
(0.0016726 0.0028484 1.63835e-18)
(0.00121308 0.000535376 -5.43323e-19)
(-0.02253 0.056416 1.71636e-17)
(-0.000289346 -0.000551074 6.94853e-20)
(0.000315733 7.12528e-07 -4.42951e-21)
(0.00337327 0.0036314 -2.54931e-18)
(0.00690256 0.00241856 -6.1797e-19)
(0.00728703 0.0103403 1.9303e-19)
(0.00144608 -0.000314983 4.84683e-19)
(0.00194135 -9.0419e-05 7.33711e-21)
(0.00120018 -0.00120142 -1.49165e-19)
(0.00136738 -0.0010737 9.4395e-20)
(0.0515072 -0.0314716 -1.171e-19)
(0.00126117 -5.16448e-05 3.60241e-19)
(0.0513705 -0.00837387 -1.12893e-18)
(0.0471326 -0.179751 2.3979e-18)
(0.00097851 -4.73125e-05 -1.03979e-19)
(0.000695689 5.64485e-06 7.42898e-19)
(0.0141018 -0.00909974 -4.28111e-20)
(0.00149957 0.00233566 1.47356e-18)
(0.0012585 3.10754e-05 3.00661e-20)
(0.0024232 -0.00237199 1.02439e-19)
(0.00195796 0.00852927 -1.59746e-19)
(0.00992047 0.00531102 -1.52437e-18)
(0.00196399 0.00370803 -2.49937e-18)
(0.00673631 0.00277905 2.08388e-18)
(0.000300824 0.000252228 9.1496e-19)
(-0.00332178 0.00483386 1.93263e-19)
(0.00466022 -0.00190113 -5.24243e-19)
(0.00860009 0.00523701 -3.64115e-18)
(0.00208169 -0.00281485 3.95804e-20)
(0.00658738 -0.00238339 -5.37522e-19)
(0.0488943 0.0117118 2.12851e-18)
(0.00114453 -0.00105839 -8.26919e-20)
(0.041917 -0.0359739 7.76149e-19)
(0.00376186 0.00880991 1.00445e-18)
(0.000407866 -1.37869e-05 1.98184e-19)
(0.00187995 -8.64048e-05 2.15838e-20)
(0.000668109 -0.000332699 -4.52866e-19)
(-0.00566053 -0.00450034 2.14258e-19)
(-0.00622909 -0.0055433 -7.81003e-19)
(0.000666778 0.000750039 -4.47864e-19)
(-0.00210962 -0.00283765 1.16357e-18)
(0.000159583 -0.000319651 9.74006e-21)
(0.00182886 0.000721773 1.98735e-20)
(-0.00264216 -0.00265235 -8.69315e-19)
(0.001168 -4.33473e-05 -4.92345e-20)
(0.00538557 -0.00720995 7.62691e-20)
(0.000170544 -9.39183e-06 -5.33657e-19)
(0.00190733 0.00289541 3.39487e-19)
(-1.69872e-05 -4.63843e-06 3.01744e-19)
(0.00251541 0.000840644 2.35342e-19)
(0.00441726 -0.00694306 -2.64803e-20)
(0.00221094 0.00390666 7.37405e-19)
(0.0033959 0.0153678 5.89228e-19)
(0.000502364 -2.36126e-06 -3.43971e-19)
(0.00103825 0.000388568 7.83438e-21)
(0.00190038 -4.2837e-05 2.31493e-20)
(0.00024686 0.000332867 2.45889e-19)
(-0.00131075 0.000327276 9.03324e-19)
(0.000202417 2.2126e-06 3.91448e-19)
(-0.00159121 0.000220046 -3.14031e-19)
(0.00168896 0.000296353 -2.54532e-19)
(0.00130241 -0.00103216 -1.63331e-20)
(-0.000403705 -0.00049227 -1.95066e-19)
(0.0149163 0.0128865 3.39222e-18)
(0.000367042 -1.30203e-05 8.75664e-19)
(0.000394972 7.95795e-07 6.31689e-19)
(0.00127255 0.000167539 1.26253e-19)
(0.0662578 0.0174581 4.2759e-19)
(0.00174748 -0.000113845 -1.42335e-19)
(0.000228705 -0.000502098 -7.7657e-19)
(0.00274284 0.029595 9.13877e-18)
(0.000833597 -0.000425569 -4.6254e-20)
(-0.00216484 0.00229421 -8.62521e-19)
(-0.0558981 0.0604852 -3.34871e-17)
(0.00487702 0.00288386 -9.5204e-19)
(0.00104984 -7.88512e-06 -1.14997e-18)
(0.000176081 2.4276e-06 -2.45577e-19)
(-0.0123389 0.0429854 -7.73857e-18)
(0.00071397 -0.000357246 -4.20077e-19)
(7.11093e-05 0.0273012 2.90158e-18)
(-0.188046 0.249604 2.43937e-17)
(0.023273 0.0178894 7.82903e-18)
(-0.0324218 0.0873864 -1.01921e-18)
(-0.00191179 0.00190362 -5.83337e-19)
(0.0016123 0.000145547 -3.13263e-19)
(0.0525055 -0.013352 -4.32647e-19)
(0.00369746 -0.00408925 -1.23788e-18)
(4.94594e-05 -0.000467661 -7.21335e-19)
(0.0226117 -0.0169623 3.39331e-19)
(0.0602971 0.0492658 2.61569e-19)
(0.0785408 0.0145479 4.12887e-18)
(0.00168528 -3.41365e-05 -2.61399e-21)
(-0.0105557 0.0273183 3.60251e-18)
(0.00159492 0.000171174 1.04694e-19)
(0.000913466 0.000142689 -6.21356e-20)
(-0.110892 -0.254512 3.29721e-18)
(0.0012152 -3.20817e-05 -5.33417e-20)
(0.0072985 -0.0433515 -4.38897e-19)
(-0.00627321 0.00256039 -2.32693e-19)
(0.0210424 0.0289471 1.53228e-17)
(0.00096276 0.000340804 -1.69371e-19)
(0.00864871 0.000881653 1.87454e-18)
(0.00405696 -0.00198613 3.24806e-19)
(-0.0306168 0.0519976 -1.37603e-17)
(0.0027433 -0.0377893 -1.35931e-18)
(-0.000601177 0.00135131 -7.99277e-19)
(-0.00570132 0.00182269 5.17509e-19)
(0.000432048 0.0107172 -7.80388e-18)
(0.00149821 0.000281271 5.66633e-20)
(-0.00828828 0.00293746 -1.14153e-18)
(0.00211332 0.0277931 -6.40376e-18)
(-0.29053 0.0829182 -1.21879e-18)
(0.00133271 -0.00013393 -1.72498e-19)
(0.0198644 0.0101573 -1.55554e-19)
(0.00414261 -0.00358451 -1.02733e-18)
(0.0434544 -0.0114602 7.43174e-18)
(0.0182705 0.00728211 2.44565e-19)
(0.0217955 0.146193 3.20347e-18)
(0.04234 -0.0196688 -2.59405e-19)
(0.00130633 0.00352267 1.65014e-18)
(-0.0167208 -0.0085024 6.93588e-19)
(-0.0343392 -0.0141395 1.32712e-18)
(0.000290397 -0.000115277 4.71833e-19)
(0.00170948 -6.84407e-05 5.71682e-20)
(0.000618912 9.70055e-07 -3.96141e-19)
(0.00118584 0.0056471 -4.86143e-19)
(-0.000153456 -0.000462104 -1.70282e-19)
(-0.117224 -0.119567 7.14191e-19)
(2.53354e-05 -0.000396203 -2.55959e-19)
(0.0468473 -0.0271637 2.47885e-18)
(0.00190044 0.00543498 1.32986e-18)
(-0.0285899 0.0264892 -1.08151e-19)
(0.00955776 0.029686 5.23395e-18)
(0.00247382 0.000616318 -6.84964e-20)
(0.0419901 0.0516242 -6.37476e-18)
(-0.0118419 -0.200175 2.0605e-18)
(0.00373976 0.000953396 -1.98395e-18)
(0.0370864 -0.0240296 2.88852e-18)
(-0.0149285 -0.00862134 -1.28636e-18)
(-0.0114825 0.0342725 2.74085e-17)
(-4.98618e-05 -0.000490302 -1.14651e-18)
(0.000730294 -0.000397927 -1.47842e-19)
(0.00833487 0.126314 -3.87472e-19)
(-0.000695528 -0.000900735 2.3451e-19)
(-0.00288462 -0.0327456 1.53151e-18)
(0.00128305 -9.71836e-06 -4.47693e-19)
(0.0493061 -0.0175908 -5.63467e-20)
(0.00113709 0.000116019 1.18887e-18)
(-0.00822995 0.0550979 4.14357e-19)
(0.0137484 0.110679 4.61432e-19)
(0.00181553 0.00348793 -4.63917e-19)
(-0.134697 0.0416239 7.5277e-18)
(0.00208129 3.3784e-05 -3.20917e-20)
(0.00353788 0.00391682 1.62974e-18)
(0.0093069 0.0175639 7.53027e-18)
(-0.0724292 -0.361413 2.28328e-18)
(-0.0342518 -0.32298 1.0585e-17)
(-0.00133592 0.00103129 -5.98094e-19)
(0.00125639 7.52857e-05 5.90442e-20)
(0.000216246 -0.000642416 2.13807e-19)
(0.0239188 0.0592845 6.59979e-19)
(0.106975 -0.000641525 -2.69214e-19)
(0.0024984 -1.3213e-06 5.29331e-19)
(-0.00945796 -0.00587879 -8.79191e-20)
(0.0153811 0.0191761 -6.38002e-20)
(9.16051e-06 -0.000586483 2.7294e-19)
(0.00050796 6.69823e-07 5.09485e-19)
(-0.00174252 -0.00494657 -1.96358e-19)
(0.0120197 -0.0408017 -7.99926e-20)
(0.00669552 0.0112116 -5.58437e-20)
(-0.00138277 -0.00111334 1.20379e-18)
(0.000209892 4.28697e-07 4.20114e-19)
(0.00112904 -0.000585537 -7.91963e-19)
(-0.0355189 0.0837958 -2.98312e-19)
(0.0726829 0.011074 -3.27433e-18)
(0.0150485 -0.0126246 -1.91423e-19)
(0.000407326 0.000397092 6.27483e-19)
(0.00149398 -3.32603e-06 -4.97595e-19)
(0.0639426 0.0100404 1.1489e-19)
(0.00196213 -5.79599e-05 -2.01674e-19)
(0.0471911 0.00968512 5.617e-18)
(0.0173863 0.0182069 3.14487e-19)
(0.0390365 -0.0379312 6.01681e-20)
(0.0193499 0.0640694 -1.17506e-18)
(0.0481456 -0.019085 2.27099e-19)
(0.00127881 -0.000210021 -1.07865e-18)
(0.00240588 0.00071373 -4.04066e-19)
(0.0051693 0.00544961 3.16393e-18)
(0.00296737 0.00316511 2.43858e-18)
(0.00898653 0.00552139 6.7105e-18)
(0.0026834 1.66757e-06 -4.03117e-20)
(-0.00887624 0.0285095 -2.98909e-18)
(0.052856 -0.0137603 4.51209e-19)
(0.000766942 -0.000202117 -1.43129e-18)
(-0.0260858 -0.177967 -2.4447e-18)
(0.00115491 -0.000546721 5.1389e-19)
(-0.0299003 -0.0660192 2.39757e-19)
(0.00227739 0.00154316 2.68562e-19)
(0.0333885 0.0560261 9.2943e-19)
(0.00448136 -0.00994613 3.48644e-19)
(0.0048226 0.00937871 6.73489e-19)
(0.000820953 1.49273e-06 -4.40169e-19)
(-0.00212351 0.00403761 -9.77982e-20)
(0.0142191 -0.000690328 -1.22779e-18)
(0.0374802 -0.0259494 -3.77111e-18)
(-0.0347741 -0.0186338 5.10866e-19)
(0.000905982 -0.0016539 -1.18038e-19)
(0.0182559 0.00711316 -4.98894e-19)
(0.00267182 -0.00287901 2.00199e-19)
(0.0067292 -0.00282787 1.02492e-18)
(0.00904155 0.000898485 2.5598e-18)
(-0.244218 0.042587 -7.49791e-18)
(0.00180883 -6.91895e-06 3.7193e-19)
(-0.00928003 0.035762 -2.44992e-17)
(0.00147178 -0.000150876 6.11703e-19)
(-0.00035919 0.0111807 3.61081e-18)