/*--------------------------------*- C++ -*----------------------------------*\
| =========                 |                                                 |
| \\      /  F ield         | OpenFOAM: The Open Source CFD Toolbox           |
|  \\    /   O peration     | Version:  v2012                                 |
|   \\  /    A nd           | Website:  www.openfoam.com                      |
|    \\/     M anipulation  |                                                 |
\*---------------------------------------------------------------------------*/
FoamFile
{
    version     2.0;
    format      ascii;
    class       surfaceVectorField;
    location    "650";
    object      ddtCorrDdt0(Uf);
}
// * * * * * * * * * * * * * * * * * * * * * * * * * * * * * * * * * * * * * //

dimensions      [0 1 -2 0 0 0 0];


internalField   nonuniform List<vector> 
27284
(
(0.0827458 0.0412311 -7.56843e-19)
(0.078394 0.0408175 8.7074e-20)
(0.0800509 0.0444038 2.64112e-19)
(7.28341e-05 -7.42105e-05 2.19453e-19)
(6.96777e-05 -7.88115e-05 2.17499e-19)
(7.46162e-05 -7.27735e-05 4.82473e-20)
(-0.0107176 -0.113875 -2.37074e-18)
(-0.00309336 -0.114589 -4.45088e-18)
(-0.00620723 -0.106406 -5.80805e-18)
(0.000171852 -1.94043e-05 6.7809e-20)
(0.0001732 -2.25405e-05 1.10924e-18)
(0.000168973 -2.20384e-05 8.09585e-19)
(0.00572567 0.0165992 3.47784e-19)
(0.00359166 0.0189895 7.00205e-20)
(0.00316615 0.0155999 2.98037e-19)
(-0.0580656 0.0133425 -2.56282e-19)
(-0.0551207 0.0166804 2.36425e-19)
(-0.0595482 0.0166189 -5.12097e-19)
(-0.000706212 -0.000954027 -1.40004e-19)
(-0.000525627 -0.000823053 -1.71071e-20)
(-0.000506289 -0.00104885 -1.77688e-19)
(0.00859705 0.0174314 7.29038e-19)
(0.00701036 0.0143108 -4.68306e-19)
(0.00010814 5.34329e-06 1.74827e-19)
(0.000108744 7.79468e-06 -7.10822e-19)
(0.000110541 5.0958e-06 -5.9069e-20)
(0.0293057 -0.0548252 -1.03769e-19)
(0.0257771 -0.0470979 -3.34133e-20)
(0.0356986 -0.044065 -7.79325e-19)
(-0.00713632 3.33412e-05 5.08134e-19)
(-0.00645428 0.000554874 -2.34931e-20)
(-0.00626357 -0.000281254 -6.83272e-19)
(-0.0386868 -0.0183828 1.02185e-17)
(-0.0369346 -0.017205 -1.00177e-18)
(-0.0365999 -0.0195062 4.35392e-18)
(-0.0405165 -0.0200911 3.81963e-18)
(-0.040899 -0.0174402 -3.01469e-18)
(0.0794544 0.0553967 1.66814e-18)
(0.0787572 0.0512383 1.93388e-18)
(0.0708573 0.055564 -1.95668e-18)
(0.000119624 4.4494e-06 -4.78628e-19)
(0.000122804 4.9529e-06 -1.33532e-19)
(0.000120454 7.32521e-06 1.65025e-19)
(4.68592e-05 -8.19501e-05 -1.86385e-19)
(4.74307e-05 -8.34163e-05 4.43024e-19)
(4.75692e-05 -8.92661e-05 1.03422e-19)
(0.000172092 -1.59971e-05 -8.35655e-19)
(0.000175174 -1.83971e-05 -9.49786e-19)
(-0.00205075 -0.00386821 -9.88892e-19)
(-0.00182037 -0.00441055 -3.63434e-19)
(-0.00142328 -0.00392628 -1.64744e-19)
(0.0643286 -0.0589253 1.3271e-18)
(0.0679118 -0.0539052 1.85452e-18)
(0.0622925 -0.0529061 -4.26401e-19)
(0.00214378 0.00203988 -4.42204e-20)
(0.00242802 0.00172216 1.55356e-19)
(0.00201056 0.00158392 -6.10665e-19)
(0.070239 0.100459 2.67443e-18)
(0.0497642 0.10389 8.9716e-18)
(0.0687525 0.100755 -2.60104e-18)
(0.000687333 0.000239807 6.33721e-20)
(0.00062638 0.000252341 5.97786e-20)
(0.000655496 0.000328823 8.98287e-20)
(5.26347e-05 -9.7515e-06 1.88821e-19)
(5.32909e-05 -1.68976e-05 -1.96239e-19)
(5.46513e-05 -2.00826e-05 -7.13977e-20)
(-0.0624501 0.00659955 -2.67151e-19)
(-0.057948 0.00767417 -2.25422e-18)
(5.16912e-05 1.73423e-07 2.93126e-19)
(5.21404e-05 -4.39802e-06 -7.82063e-20)
(-0.00174149 -0.000276333 -5.87031e-19)
(-0.00146637 -0.000247384 5.54813e-19)
(-0.00158638 -0.000506558 1.27174e-19)
(-0.00092645 -0.000825681 -1.66274e-19)
(-0.00114769 -0.000694386 -1.12006e-19)
(-0.000921912 -0.00057715 -8.04562e-20)
(0.000174428 -4.39973e-05 -5.25022e-19)
(0.0001731 -4.48619e-05 1.82966e-19)
(0.000174229 -4.53098e-05 1.65522e-19)
(0.000107157 4.13349e-06 5.71491e-19)
(0.000106577 6.12847e-06 7.68885e-19)
(-0.008118 -0.00128215 7.68281e-19)
(-0.00764005 -0.000645301 1.10648e-18)
(-0.00719118 -0.00148405 3.63628e-19)
(-0.0630311 0.0187208 -5.38964e-20)
(-0.0625148 0.0385603 -6.6762e-20)
(-0.0735268 0.0291917 -6.83289e-19)
(-0.0128726 0.0271013 -6.60536e-19)
(-0.0107183 0.0256553 4.76056e-19)
(-0.0103044 0.0283737 -7.6133e-19)
(-4.8129e-06 -3.07113e-05 1.054e-19)
(1.01286e-05 -1.04958e-05 -2.96394e-19)
(-1.66778e-05 -7.13796e-06 1.61477e-19)
(8.32447e-05 1.98588e-05 -5.27605e-20)
(8.27957e-05 3.25284e-05 -2.61091e-19)
(8.31047e-05 2.04174e-05 -1.60031e-19)
(8.4327e-05 -2.60091e-06 1.15419e-20)
(8.3353e-05 -3.16831e-06 2.50136e-20)
(8.03141e-05 -1.9307e-06 3.17215e-20)
(-0.000112974 0.00183369 -2.82712e-19)
(-1.24293e-05 0.00163874 4.81049e-19)
(8.1728e-05 0.00181296 3.29211e-19)
(0.00458327 -0.00414593 -1.13342e-18)
(0.00431734 -0.00433897 -1.37832e-18)
(0.00429533 -0.0039751 2.32712e-18)
(-0.000322265 0.00187795 -1.54885e-18)
(-0.000192914 0.00211097 5.77436e-19)
(-0.00857588 -0.00209459 -1.33932e-18)
(-0.00900859 -0.00101559 3.73052e-19)
(-0.000319637 -2.67178e-05 -3.72183e-19)
(-0.000409695 -6.20234e-05 -2.11582e-19)
(-0.000317286 -0.000103897 -5.04191e-19)
(0.000117871 -1.40721e-05 -1.57143e-20)
(0.000124429 -1.48024e-05 5.73217e-20)
(0.000132375 -8.10829e-06 -1.74512e-20)
(-0.00791568 0.000373177 1.94383e-19)
(8.2651e-05 5.82346e-06 -2.93591e-19)
(8.06986e-05 -9.20221e-06 -2.73798e-20)
(8.18229e-05 -5.2797e-06 -4.35758e-20)
(7.30016e-05 -7.21168e-05 3.68821e-19)
(7.63834e-05 -6.69831e-05 -3.6467e-20)
(7.79936e-05 -6.4208e-05 -3.45336e-19)
(7.16352e-05 -7.78327e-05 -3.22262e-19)
(-0.0770068 -0.00221103 2.10862e-19)
(-0.0729275 -0.00306879 -3.81707e-19)
(-0.0747913 0.000867791 -2.09353e-18)
(0.000173884 4.72178e-05 -1.01432e-19)
(0.000176382 3.42719e-05 2.38797e-19)
(0.000172443 4.9185e-05 6.05418e-19)
(0.000171165 6.00995e-05 -1.6016e-19)
(0.000174353 4.54148e-05 -4.89425e-19)
(-0.0667764 -0.0161705 6.04105e-19)
(0.000126304 0.000503165 -4.81258e-20)
(2.47363e-05 0.000468166 -1.85598e-19)
(0.00012685 0.000407235 -2.18666e-20)
(6.19869e-05 1.22185e-05 -8.14178e-19)
(6.25147e-05 9.06845e-06 5.93238e-19)
(5.82132e-05 9.4734e-06 -9.87071e-19)
(0.155131 0.130077 1.39537e-18)
(0.168101 0.0929296 4.94562e-19)
(0.172707 0.0792493 3.98117e-19)
(0.000125006 0.000634499 -1.02294e-19)
(0.000255992 0.000513466 -4.42231e-19)
(0.0655516 -0.00224696 -8.94499e-19)
(0.0678608 -0.00379006 -4.70603e-19)
(0.0641507 -0.00575583 -6.39172e-19)
(0.00024553 -7.53101e-05 1.56692e-19)
(0.000240037 -8.74844e-05 5.26472e-20)
(0.000240832 -6.72674e-05 -6.62289e-21)
(0.00179561 0.00235689 -1.84381e-19)
(0.00229695 0.00255893 7.97433e-19)
(6.35682e-05 3.20627e-06 -6.16251e-20)
(6.29356e-05 1.87407e-06 3.59282e-20)
(6.0943e-05 1.92549e-06 -9.65194e-20)
(0.00506906 0.0766569 -4.80506e-18)
(-0.00201183 -0.000274055 -1.06968e-18)
(-0.00182707 -3.66724e-05 -4.61449e-19)
(-0.030971 0.0209984 -1.51088e-18)
(-0.0361568 0.0250831 7.00878e-19)
(-0.0262669 0.0302202 1.29499e-19)
(8.25164e-05 1.74448e-05 -8.89918e-20)
(-0.0168892 -0.0302878 -1.57174e-18)
(-0.0180914 -0.0288136 2.54526e-18)
(-0.0160413 -0.0282318 2.98715e-18)
(0.0620763 -0.00011119 5.87784e-20)
(0.0657887 0.00219595 1.70981e-19)
(0.00178474 -0.000788508 1.22912e-19)
(0.00146896 -0.000807154 -1.37707e-19)
(0.00153508 -0.00054855 2.41181e-19)
(-0.000942619 0.0377858 3.87219e-19)
(0.0019633 0.0394222 -4.3604e-19)
(0.000910375 0.035368 2.05368e-19)
(4.61006e-05 8.75875e-06 1.01531e-19)
(4.72071e-05 1.19775e-05 6.57833e-20)
(4.37386e-05 8.62082e-06 7.15567e-19)
(0.00241296 0.00185248 -1.74856e-19)
(0.0024773 0.00161913 -5.47682e-21)
(0.00266971 0.00186715 -3.80011e-20)
(0.00480716 -0.00399584 -7.57212e-20)
(0.00484954 -0.00437917 -6.00632e-19)
(7.51749e-05 8.73229e-05 1.15037e-20)
(7.25632e-05 8.73611e-05 6.52415e-19)
(7.36156e-05 8.48139e-05 6.79411e-19)
(0.038726 -0.0846559 -3.61887e-19)
(0.023457 -0.11494 1.538e-18)
(0.0475315 -0.0852979 -2.09155e-18)
(-0.00011793 0.000102856 1.69167e-19)
(-0.000158001 0.000119608 2.28761e-19)
(-0.000111669 0.000114038 4.01167e-19)
(0.000247335 -6.77051e-05 -5.15389e-20)
(0.000245835 -8.47801e-05 1.39507e-19)
(-0.00821977 0.0195567 -1.84489e-19)
(-0.0102819 0.020411 9.35865e-20)
(-0.00971909 0.018145 -1.26262e-19)
(-0.000250675 -0.00669408 -3.93223e-20)
(-0.000815705 -0.00609464 -8.16181e-19)
(1.68206e-05 -0.00591833 -8.2132e-19)
(-0.0271304 0.0261754 7.47174e-19)
(-0.0261989 0.0322345 1.3337e-19)
(-0.0227116 0.0282673 5.02238e-18)
(8.04899e-05 7.81963e-05 -1.4661e-19)
(7.78625e-05 8.39046e-05 -1.10105e-19)
(7.89166e-05 7.6558e-05 1.24698e-19)
(-0.00698912 0.0791923 -1.42234e-18)
(-0.0044311 0.0696701 -5.24204e-19)
(8.17216e-05 7.01997e-05 -2.48155e-19)
(8.17438e-05 7.86385e-05 -3.13068e-20)
(-8.71834e-05 9.18054e-05 -5.87547e-19)
(-0.000118931 9.14596e-05 -4.22967e-19)
(-0.0316162 0.0235898 -7.01366e-19)
(-0.0275337 0.0199387 -4.12269e-19)
(0.00237965 0.00213909 -1.03209e-20)
(0.0021798 0.00189638 -1.04316e-19)
(-0.0372602 0.00239058 -1.75706e-18)
(-0.0417524 0.00525325 2.29756e-19)
(-0.0357746 0.0081987 9.37103e-19)
(7.71463e-05 8.91809e-05 -7.3475e-19)
(0.00226611 0.00351248 2.87341e-20)
(0.00261948 0.00346429 5.23371e-20)
(0.00248471 0.00381077 5.91105e-21)
(0.0212401 0.0135862 -2.06391e-19)
(0.0228056 0.0130493 -4.74691e-20)
(0.0219601 0.0148215 1.25924e-20)
(6.09689e-05 5.40894e-06 1.25483e-19)
(6.37491e-05 5.17885e-06 -5.88236e-19)
(5.82373e-05 2.22618e-06 3.86936e-20)
(0.000161133 1.20295e-05 1.50419e-19)
(0.000166821 7.01932e-06 -2.68035e-20)
(0.000160218 7.16951e-06 3.88583e-19)
(0.0175047 0.00460979 -1.25044e-19)
(0.0167523 0.00368505 4.27511e-20)
(0.0179233 0.00347798 -7.5349e-20)
(9.81726e-05 8.95245e-05 -1.94574e-19)
(9.9051e-05 7.31951e-05 1.34613e-18)
(9.62069e-05 8.98577e-05 1.25706e-18)
(0.0168589 0.00569192 -1.59311e-20)
(0.0181912 0.00558211 -8.29856e-21)
(0.0766806 0.184222 -3.27501e-18)
(0.0885362 0.110673 7.26003e-19)
(0.014363 0.1099 -1.78977e-18)
(-0.00128243 0.10638 1.11964e-18)
(0.0065699 0.106085 7.25218e-19)
(-0.038702 -0.00473627 -8.70607e-19)
(-0.0344926 -0.00126951 -4.06962e-19)
(-6.60998e-05 0.000446944 3.18073e-19)
(-0.000101519 0.00055327 -9.35234e-19)
(0.0976366 0.0362366 -2.73677e-19)
(0.101375 0.0199712 2.33207e-19)
(0.0931035 0.0361073 -5.31249e-20)
(0.00188529 0.000836472 2.41526e-19)
(0.00201813 0.00116278 8.70422e-19)
(0.00229602 0.000864392 2.72861e-19)
(0.00010843 0.000127437 1.41711e-19)
(0.00011257 0.000129348 3.83259e-19)
(0.000107802 0.000119512 4.79927e-19)
(0.00173402 0.000584138 1.52641e-19)
(0.00151023 0.000801468 -7.11351e-19)
(0.0280312 -0.0281686 -1.72123e-18)
(0.0307593 -0.0288041 1.40821e-18)
(0.0292494 -0.0257675 3.15395e-19)
(0.000416046 0.000315297 3.6813e-20)
(0.000466167 0.000307122 6.17568e-20)
(0.0004274 0.000368487 4.25053e-20)
(0.0195864 0.0136258 -2.91642e-19)
(0.0205448 0.0119675 -2.53577e-19)
(-5.50307e-05 8.25574e-05 -6.74151e-20)
(-5.42442e-05 8.41322e-05 -2.55591e-19)
(-0.000134966 0.00039722 3.26655e-19)
(-3.08065e-05 0.00037014 6.94836e-19)
(0.000105887 -3.48335e-06 1.20163e-20)
(0.000105974 -5.38183e-06 -4.194e-20)
(0.000105415 -1.10716e-05 3.57971e-20)
(0.00233839 0.00236785 1.12125e-19)
(0.00226174 0.00263516 4.17671e-20)
(0.00207767 0.00240445 7.11712e-20)
(4.47302e-05 -7.89455e-05 -4.3687e-19)
(4.56276e-05 -6.99932e-05 2.21137e-19)
(-0.00323213 0.0405826 -1.39838e-19)
(-0.00391968 0.0363716 2.26486e-19)
(0.0948591 0.0497948 5.99663e-19)
(0.0957779 0.0326096 -2.02093e-18)
(0.0110794 -0.00159192 1.60963e-18)
(0.0117372 -0.00136291 -2.28121e-18)
(0.0115133 -0.00217811 1.24215e-18)
(5.67696e-05 -8.81839e-05 -5.53958e-20)
(5.69388e-05 -8.65313e-05 -3.12608e-19)
(6.13566e-05 -8.22067e-05 -4.00802e-20)
(6.62632e-05 5.61516e-06 1.96204e-19)
(6.28989e-05 4.80341e-06 -5.68989e-19)
(3.94457e-05 9.45128e-07 7.14204e-20)
(3.75809e-05 4.82053e-07 -8.27308e-19)
(4.01123e-05 1.7797e-06 -2.65255e-19)
(-0.0120139 0.0082687 1.94579e-18)
(-0.012136 0.00978673 1.78727e-18)
(-0.0107271 0.00864814 3.31488e-19)
(0.00192375 0.00352355 -1.81698e-21)
(0.00205849 0.00321679 1.78991e-21)
(-0.0996968 -0.0442989 -1.06281e-18)
(-0.0949591 -0.0448793 -3.24712e-18)
(-0.0962165 -0.0380098 -1.65545e-18)
(-0.00342035 0.00794501 4.18961e-19)
(-0.00272429 0.00761588 3.93488e-19)
(-0.00333658 0.00720227 -5.17574e-19)
(-3.20285e-05 7.77923e-05 -8.21806e-20)
(-5.5158e-05 8.15644e-05 -6.57015e-20)
(-0.03691 0.0204532 -3.02783e-19)
(-0.0373021 0.027235 1.02786e-18)
(0.000880577 0.00168868 2.37465e-20)
(0.000773294 0.00185268 -1.56047e-20)
(0.00069973 0.00167335 2.37823e-20)
(0.00242102 0.00143111 3.16015e-19)
(0.00266354 0.00142537 -1.21245e-19)
(0.0492693 -0.05814 -1.80053e-18)
(0.0301313 -0.0777197 8.63936e-19)
(-0.0180637 -0.11075 -3.07886e-20)
(-0.0127948 -0.119888 2.41004e-18)
(0.0719579 0.250883 4.29479e-19)
(0.0210509 0.00513765 -2.64801e-19)
(0.0220296 0.00614798 3.70852e-20)
(0.0226363 0.00449742 1.79285e-20)
(-0.0416388 0.0160374 2.60017e-18)
(-0.0354974 0.014115 -2.29966e-18)
(-0.0825178 -0.00787834 8.58572e-19)
(-0.0835294 -0.00537039 -3.17625e-18)
(-0.0847647 -0.0100665 -5.11327e-20)
(-0.000915022 -0.00113036 1.60016e-19)
(0.000173236 -1.35107e-05 9.02278e-20)
(0.000170804 -1.35885e-05 -3.47287e-19)
(0.0866258 0.0417844 -4.48833e-19)
(0.0854731 0.0379247 -6.08106e-19)
(0.000468252 1.23466e-05 -4.88274e-20)
(0.000485445 3.59019e-05 1.19353e-19)
(0.000449653 5.2613e-05 6.28173e-20)
(0.000104702 0.000123093 -1.11177e-19)
(0.000108569 0.000134455 -4.77504e-19)
(0.129139 0.180358 -6.88379e-19)
(0.126714 0.185272 2.41893e-18)
(0.000224715 0.000141452 1.79911e-19)
(0.000224526 0.000139294 -2.02521e-20)
(0.000227927 0.000136278 1.13623e-20)
(0.00962145 -0.0362127 1.24749e-18)
(0.00808511 -0.0379053 1.45566e-18)
(0.0108116 -0.0379364 3.02913e-19)
(0.0384624 0.0337467 -2.85154e-19)
(0.0377397 0.0313481 -3.2908e-19)
(0.0407581 0.0320807 1.08516e-18)
(0.000100706 2.38117e-05 -1.48083e-19)
(0.000101756 4.16216e-05 -5.83955e-19)
(0.000105197 2.48674e-05 1.04589e-19)
(0.0657625 -0.0638641 1.92315e-18)
(0.0592236 -0.0624193 -9.45193e-19)
(0.080855 -0.00995447 7.65282e-19)
(0.0774364 -0.0291785 -8.15312e-19)
(0.0863329 -0.0205715 4.62724e-20)
(0.000168076 2.12454e-05 -4.07999e-20)
(0.000173113 2.1951e-05 -1.86189e-19)
(0.000169918 2.68557e-05 -1.59338e-20)
(0.0292429 0.107814 4.34508e-18)
(0.0302873 0.105475 -5.58862e-18)
(0.00440089 -0.00147011 2.17287e-18)
(0.00419216 -0.00155084 4.71404e-19)
(0.0044395 -0.00170392 -1.53414e-18)
(-0.0193041 0.00527057 6.15844e-19)
(-0.0190238 0.00211946 -2.54891e-19)
(-0.0220847 0.0036224 8.30522e-20)
(0.000146733 0.000133789 1.9249e-21)
(0.000148196 0.00012958 1.60301e-19)
(0.000141859 0.000142564 -2.58203e-20)
(0.18237 -0.0122367 3.15631e-18)
(0.182978 0.0114498 8.01725e-19)
(0.035972 0.0356812 3.86441e-19)
(0.0393685 0.0365661 -2.03264e-18)
(0.000145095 -2.14859e-05 -8.17877e-20)
(0.000141551 -2.60949e-05 1.22124e-20)
(0.00014853 -2.55368e-05 3.67566e-20)
(-0.0590966 0.0262665 -3.15062e-19)
(-0.0692957 0.0255172 -8.3375e-20)
(-0.0667767 0.0171049 -9.30646e-19)
(0.000129776 -7.21361e-05 -3.52133e-20)
(0.000120364 -7.91185e-05 5.85175e-21)
(0.000133247 -5.46265e-05 -2.56379e-21)
(-0.0134412 0.00796021 8.62392e-19)
(-0.0119369 0.00680109 -4.51568e-19)
(-0.023076 -0.0789781 -1.93597e-19)
(-0.0252535 -0.0822719 -1.76048e-19)
(-0.0303896 -0.0693728 3.17497e-20)
(0.000173585 -4.112e-05 1.59042e-19)
(0.000176855 -4.09323e-05 -1.37285e-19)
(0.00242272 0.00123147 5.8561e-20)
(0.00222877 0.00140525 1.00941e-19)
(-0.000717046 -0.00137039 1.37374e-20)
(-0.000795394 -0.00113119 3.50871e-19)
(-0.000505082 -0.00116494 -3.20458e-19)
(-0.00688139 -0.00401908 4.3016e-19)
(-0.00773513 -0.00309622 1.43979e-20)
(-0.00651059 -0.00268225 -1.34445e-19)
(7.90147e-05 -1.33177e-05 6.95278e-20)
(7.876e-05 -2.4135e-05 2.03651e-19)
(5.56857e-05 -4.99958e-06 4.4705e-20)
(5.6938e-05 -8.45369e-06 -7.78693e-20)
(5.40202e-05 -4.66696e-06 -2.9373e-19)
(0.000178011 -1.33598e-05 1.70175e-19)
(0.000178187 -8.51725e-06 -8.26386e-20)
(5.79505e-05 5.35145e-06 1.01471e-19)
(5.88115e-05 8.40736e-06 1.65258e-19)
(0.000148737 0.000123965 -1.73428e-19)
(0.000144117 0.000136067 -5.92535e-19)
(5.33822e-05 -1.47472e-06 -6.28308e-19)
(5.58698e-05 -4.68694e-06 1.78042e-19)
(-0.00329264 -0.0029937 6.54436e-19)
(-0.00326196 -0.0035755 3.7337e-19)
(-0.003821 -0.00331733 3.64588e-20)
(0.000222194 0.000145238 -3.79587e-19)
(0.000224513 0.000142898 1.82441e-20)
(5.38865e-05 -9.22294e-05 1.41278e-19)
(5.62618e-05 -8.92294e-05 1.63363e-19)
(-0.0126108 -0.00178752 3.95081e-19)
(-0.0131611 0.000236335 1.02012e-18)
(-0.0109624 -0.000202895 4.88494e-19)
(-0.00274786 -0.0054897 -2.18671e-19)
(-0.00244975 -0.00621649 7.30212e-19)
(-0.00337348 -0.00616142 -8.22157e-19)
(0.0100344 -0.0365135 1.65487e-18)
(0.0101793 -0.042845 -1.01633e-19)
(0.00375532 -0.0395129 -2.67552e-19)
(-0.0504607 0.0277446 -1.23341e-19)
(-0.0536972 0.0361866 5.31691e-20)
(0.0836768 0.0516174 -1.73468e-18)
(0.0852413 0.0548197 -6.44865e-19)
(0.081442 0.0545332 -1.65243e-18)
(-0.110921 0.0185154 3.50867e-18)
(-0.136603 0.0927865 3.29803e-18)
(-0.110142 0.02024 4.21638e-18)
(0.004677 -0.00136334 2.02264e-19)
(0.00438964 -0.00122313 4.26674e-19)
(5.52809e-05 -5.12384e-06 1.02933e-19)
(5.27436e-05 -5.00612e-06 2.53872e-19)
(4.77871e-05 -2.07045e-06 2.56168e-19)
(0.00822935 -0.0341836 -1.14317e-18)
(0.0109324 -0.0342218 1.74867e-18)
(4.31513e-05 -6.26067e-07 2.3072e-19)
(4.28585e-05 3.45933e-07 -2.98846e-19)
(4.45307e-05 1.07533e-07 -3.98986e-19)
(-0.066225 -0.0675585 -1.5157e-18)
(-0.0783177 -0.0336602 5.78531e-18)
(5.37331e-05 -6.67731e-07 8.16847e-20)
(5.40143e-05 -1.48103e-06 -2.94909e-20)
(5.48416e-05 -8.28473e-07 -2.13813e-20)
(0.000141892 -1.57956e-05 1.38551e-20)
(0.000149867 -1.47076e-05 -1.29584e-21)
(3.90694e-05 2.3163e-07 6.2937e-19)
(3.95348e-05 9.95393e-07 7.17257e-19)
(0.000114547 -5.34552e-06 1.98317e-20)
(0.00011546 7.25544e-06 -2.03732e-20)
(0.000115382 -6.09144e-06 -6.33645e-20)
(0.00119098 -0.00115609 4.0347e-19)
(0.00118884 -0.00123341 1.37846e-18)
(0.00127129 -0.00119567 -8.42374e-19)
(0.00365271 0.00818193 -3.32044e-19)
(0.00409482 0.00756558 -1.94736e-19)
(0.0043707 0.00858268 3.19424e-19)
(8.1832e-05 3.81336e-06 1.13042e-19)
(7.97503e-05 4.50966e-06 2.95261e-20)
(7.1643e-05 1.71886e-06 -2.6064e-19)
(0.0102147 -0.0302886 7.23273e-19)
(0.0149574 -0.031331 -1.50437e-18)
(0.000572634 0.000168485 1.19298e-19)
(0.0005251 0.000184615 -2.08404e-19)
(0.000546892 0.000125344 -2.51865e-19)
(0.00017746 -4.87037e-05 -7.03827e-19)
(0.000179124 -4.86774e-05 6.43037e-19)
(0.000175416 -4.81743e-05 5.78656e-21)
(0.00195173 -0.0258969 -7.89966e-19)
(0.00319453 -0.021481 -3.48519e-19)
(-0.001248 -0.0232608 -2.03157e-19)
(-0.00019476 0.000355351 -4.06526e-19)
(-0.000259504 0.000437663 -1.43745e-19)
(6.53487e-05 -2.49655e-06 -3.44861e-19)
(6.86821e-05 -2.43641e-06 9.11101e-20)
(6.6088e-05 -5.44645e-06 -6.99171e-19)
(0.0161578 0.00673043 1.26237e-19)
(0.0165898 0.00787426 1.9998e-20)
(0.0152883 0.00772612 -2.85125e-20)
(0.000134821 -0.000109493 -4.91394e-20)
(0.000127518 -0.000101655 2.64826e-20)
(0.000134259 -0.000103476 2.42642e-21)
(-0.00140452 -0.000844313 8.08613e-21)
(-0.00136006 -0.000550735 -5.26831e-19)
(-0.0796446 -0.00499001 4.35697e-18)
(-0.0789743 -0.00898097 -1.4909e-18)
(0.0257527 -0.0279347 -3.23928e-18)
(0.027205 -0.0308507 -2.7931e-19)
(6.3349e-05 -8.65366e-05 7.07327e-19)
(6.46348e-05 -8.49575e-05 2.36973e-19)
(6.20482e-05 -8.29263e-05 7.17809e-19)
(9.16808e-05 8.3681e-05 -4.91184e-20)
(0.000102112 9.49935e-05 9.16823e-20)
(0.000104718 9.23791e-05 -1.90574e-19)
(8.33581e-05 -2.6338e-05 4.85737e-20)
(7.89517e-05 -2.05929e-05 -2.08983e-19)
(7.79049e-05 -2.3063e-05 -1.50674e-20)
(-0.108889 -0.0519284 3.9018e-19)
(-0.0997106 -0.0585459 -2.57482e-19)
(-0.112016 -0.0611304 -1.71491e-18)
(6.4986e-05 1.54417e-05 -3.59113e-20)
(6.03841e-05 1.54249e-05 3.2811e-20)
(0.0927397 0.0500477 -2.11098e-19)
(0.0894035 0.0493421 -2.27022e-19)
(0.0907944 0.0527328 1.11201e-19)
(6.73424e-05 -8.30634e-05 -6.1298e-19)
(6.81636e-05 -8.10561e-05 5.04353e-19)
(0.0893123 0.0591299 3.74149e-19)
(0.0779055 0.0625082 2.3694e-20)
(-0.000241969 0.00030285 -5.92291e-19)
(-0.000147425 0.000293645 2.42294e-19)
(0.00152234 -0.00290726 -8.18423e-19)
(0.00117726 -0.00313576 -4.04376e-19)
(0.00113533 -0.00272868 -1.18301e-19)
(-0.00900415 -0.00297274 -2.10736e-18)
(-0.00797957 -0.00302361 5.40331e-19)
(8.77745e-05 8.29755e-07 8.62677e-20)
(8.91543e-05 4.8687e-07 -1.51202e-19)
(9.01785e-05 1.65004e-06 -5.67997e-19)
(0.0817211 0.0480279 4.19503e-19)
(0.0859191 0.0486199 4.99661e-19)
(0.000456283 -0.000111807 5.07238e-19)
(0.000456374 -0.000137506 3.87418e-19)
(0.000477798 -0.000131521 5.05137e-20)
(-0.0911604 -0.0220235 -9.32548e-19)
(-0.115055 0.0303352 -1.92089e-18)
(0.000177451 -5.05632e-05 2.86537e-19)
(0.000176235 -5.07814e-05 -4.88282e-19)
(-2.53608e-05 -6.55861e-05 3.03954e-19)
(-1.44538e-05 -7.80939e-05 -8.42569e-19)
(-3.3556e-05 -7.92197e-05 -5.47335e-19)
(-0.00127472 -0.000665254 -3.75443e-19)
(-0.00119273 -0.000468841 -6.23655e-20)
(-0.00101193 -0.000611424 3.58501e-19)
(0.000136754 0.00020625 -5.37652e-20)
(0.000154559 0.000187219 -1.9589e-19)
(0.000127466 0.000201187 -2.39818e-19)
(-0.0521789 -0.0222509 4.32236e-18)
(-0.0567042 -0.0189621 -4.82466e-19)
(-0.0501888 -0.014513 -7.96472e-19)
(0.000135531 -0.00253187 5.11611e-20)
(0.000557978 -0.00283732 1.01225e-19)
(-4.95213e-05 -0.00309054 -9.81948e-20)
(-0.000235922 -0.00221848 3.69104e-19)
(0.000254241 -0.00208685 2.85096e-19)
(0.000123542 -9.57337e-05 -4.49998e-21)
(0.00013883 -6.8188e-05 -8.70295e-22)
(-0.0651592 -0.129484 2.33905e-18)
(-0.0497007 -0.11188 -1.63379e-19)
(0.00310396 0.00888406 6.49996e-19)
(0.00308182 0.00788844 -9.92998e-20)
(0.00266491 -0.00318547 1.0395e-18)
(0.00262415 -0.00299805 1.59795e-18)
(0.00281116 -0.00305728 2.63993e-19)
(0.000451576 -8.16455e-05 3.32515e-20)
(0.000443777 -5.08464e-05 -8.9825e-20)
(0.000472298 -7.14865e-05 -1.53889e-19)
(0.00016288 8.26571e-05 3.45634e-19)
(0.000156463 9.70687e-05 -1.77126e-19)
(0.000160211 8.29093e-05 4.97105e-20)
(0.0103726 -0.00187715 2.56363e-20)
(0.0105418 -0.00114589 2.09582e-19)
(4.17512e-05 -2.4134e-05 6.42937e-20)
(3.67062e-05 -4.29948e-05 1.41437e-19)
(4.00242e-05 -3.2689e-05 1.54209e-19)
(0.0161169 0.00181309 1.43929e-19)
(0.0159174 0.00289653 4.53698e-19)
(0.0150634 0.00213775 3.89996e-19)
(-0.00661406 0.00279662 9.86282e-21)
(-0.00781956 0.0022495 -1.77651e-19)
(-0.00629191 0.00150154 -4.17388e-19)
(0.0168215 -0.0156189 4.10032e-19)
(0.0203262 -0.0177137 -5.36968e-19)
(0.0197113 -0.0136701 -3.04393e-19)
(0.00342944 -0.00252764 -3.39517e-19)
(0.00275212 -0.0025236 -8.21397e-19)
(0.00319249 -0.00328323 1.92742e-19)
(4.79862e-05 -5.36954e-06 -4.65309e-20)
(5.53811e-05 1.50199e-05 -1.12139e-19)
(5.07598e-05 4.86846e-06 2.60775e-19)
(0.0808507 0.00267111 7.57216e-19)
(0.0748372 -0.00612211 -1.55881e-20)
(0.0684588 0.0362058 -1.59501e-18)
(0.0701713 0.0396835 -1.53315e-18)
(0.0660888 0.0400193 -9.38131e-19)
(-0.00250837 0.0163203 3.82581e-18)
(-0.00379629 0.0171478 1.06028e-18)
(-0.00377212 0.0155459 3.63794e-19)
(0.000786672 -0.000785701 3.36981e-19)
(0.000723155 -0.000616872 -2.7874e-19)
(0.000891564 -0.000614634 -7.63151e-19)
(0.00259419 0.00234389 -2.87675e-20)
(0.00546267 -0.0509911 -3.48644e-19)
(0.0131612 -0.0441996 3.92854e-19)
(0.0130679 -0.0542207 6.5362e-19)
(4.34869e-05 -1.43738e-05 -3.72689e-19)
(-0.0115781 -0.00360854 -4.07058e-19)
(-0.0145788 -0.0035847 1.3519e-19)
(0.0144823 -0.0129068 1.18268e-18)
(0.0137149 -0.0167787 1.20024e-18)
(0.000843501 -0.000626993 -8.81667e-20)
(0.000785004 -0.000618413 -3.87914e-19)
(0.000807123 -0.000590469 -8.4022e-20)
(-0.080367 -0.000342884 -2.21829e-20)
(0.000915915 -0.00293544 4.51072e-19)
(0.000791449 -0.00302108 -1.07244e-18)
(0.000805513 -0.00284034 -1.68812e-18)
(-0.000440968 -0.00191908 3.80938e-20)
(-0.000717387 -0.00230797 -3.86505e-19)
(6.50105e-05 -8.7297e-05 -5.31335e-19)
(6.37824e-05 -8.76292e-05 -5.91078e-19)
(6.70797e-05 -8.39677e-05 6.6695e-20)
(0.00117577 -0.00109438 -5.41119e-19)
(0.00110152 -0.00112165 5.81103e-19)
(-0.000626929 -0.00164058 -1.73823e-19)
(-0.000235976 -0.00161406 1.93592e-19)
(-0.00151442 0.0155685 4.11752e-19)
(-0.00051259 0.0146326 -3.02143e-19)
(-0.00163768 0.0140086 -3.75771e-19)
(0.00043104 -8.94184e-05 -4.23448e-20)
(0.000235931 -9.87285e-05 5.86679e-20)
(0.000230773 -0.000109701 1.63781e-20)
(0.000231271 -9.12095e-05 4.4627e-20)
(0.000181526 6.64946e-06 -3.19634e-19)
(0.000179629 1.81863e-05 1.90556e-19)
(0.000180263 1.75864e-05 -7.53816e-19)
(-0.046435 -0.024335 3.51265e-19)
(-0.0528168 -0.0321624 1.52552e-18)
(-0.0601451 -0.0126475 -1.54454e-19)
(-0.0606326 -0.00705986 1.17436e-18)
(-0.0558061 -0.00552197 -2.34267e-20)
(-0.000243146 0.000105952 1.28891e-19)
(-0.000308494 0.000113795 -3.67622e-19)
(-0.000283145 7.26725e-05 -1.58664e-19)
(0.00211396 -0.000690243 4.05451e-19)
(0.0020359 -0.00109369 -4.53089e-20)
(-0.0624569 -0.0247862 2.99692e-18)
(-0.0299175 -0.0697451 -7.35697e-19)
(-0.0346285 -0.0714661 3.63322e-18)
(-0.0326996 -0.0665369 -1.34219e-19)
(-0.00642481 0.00424067 -1.11085e-19)
(-0.00552668 0.00334093 -1.78864e-19)
(0.000112965 -2.50867e-06 -2.13547e-21)
(0.000113057 -1.72109e-05 2.77439e-20)
(-0.0122428 -0.00153298 5.42574e-19)
(-0.0131629 -0.00380075 8.1077e-19)
(-0.0106024 -0.00331983 -7.25843e-20)
(0.00104379 -0.00304618 1.90945e-18)
(0.00102877 -0.00286157 4.19126e-19)
(0.000191909 -1.60321e-05 -2.93691e-20)
(0.000201583 -1.33789e-05 7.54946e-20)
(0.000198036 -1.50466e-05 -6.38807e-20)
(0.00349977 -0.00181164 -8.21873e-20)
(0.00421596 -0.00242924 -3.65031e-19)
(9.01845e-05 3.46576e-05 1.48041e-19)
(9.15405e-05 5.00623e-05 -8.09266e-19)
(9.11744e-05 4.38837e-05 -3.15289e-19)
(-0.0217976 -0.0724814 1.25817e-19)
(-0.0163988 -0.0822967 1.10804e-18)
(0.00773102 0.0197391 -2.6055e-19)
(0.00546568 0.0229227 -1.25688e-20)
(0.00943023 0.0229116 -3.0732e-21)
(0.0238148 -0.0267429 -2.66368e-18)
(0.0217896 -0.0259058 3.69924e-18)
(0.0242317 -0.0248187 -6.8799e-19)
(0.000396013 -0.00589468 3.92009e-18)
(0.000385506 -0.00612667 3.40967e-19)
(9.74418e-05 -0.00596362 1.43713e-18)
(-0.0100265 -0.00285367 7.43564e-19)
(-0.0094413 -0.00399186 -1.96857e-18)
(-0.0121551 -0.0159282 -7.66595e-19)
(-0.0150159 -0.0151003 4.50271e-19)
(-0.0124611 -0.0128633 -5.94693e-19)
(-0.0133557 0.00708621 1.09391e-18)
(-0.0162282 0.00645199 1.61018e-18)
(-0.0133794 0.00461409 -9.58369e-19)
(0.033093 -0.0294247 2.77168e-18)
(0.0345255 -0.0271186 1.15024e-18)
(0.036299 -0.0301316 2.28779e-18)
(8.95501e-05 2.00496e-05 -2.34493e-20)
(8.96346e-05 2.54281e-05 -7.44139e-20)
(0.000239295 -0.000106848 -1.03942e-19)
(-0.0017857 -0.000192708 1.10398e-18)
(-0.00189445 -0.000499944 5.62155e-19)
(-0.00157251 -0.000384981 5.49233e-19)
(6.17551e-05 -7.27756e-05 -1.02417e-19)
(5.73022e-05 -8.22195e-05 -2.90723e-19)
(5.72392e-05 -7.73468e-05 4.55082e-20)
(0.00181619 -0.00268245 -3.43811e-19)
(0.00196635 -0.00308378 3.49211e-19)
(0.0027226 -0.00338284 2.10294e-18)
(0.00249599 -0.00328512 4.16195e-19)
(0.000181852 -2.06745e-05 7.58494e-20)
(0.000181076 -2.71021e-05 -5.09561e-19)
(0.000181154 -2.58208e-05 2.51148e-19)
(0.000208546 0.000167234 -7.05098e-21)
(0.000231809 0.000144231 3.28708e-20)
(0.000222451 0.000168662 2.51857e-20)
(0.0116189 -0.0105074 5.27165e-20)
(0.00976724 -0.0105916 -7.85818e-19)
(0.0107984 -0.00898158 -6.70823e-19)
(0.000101743 8.88411e-06 3.98536e-19)
(9.77791e-05 2.38712e-05 -4.27639e-20)
(0.0393749 0.0142049 -3.02402e-19)
(0.0416273 0.0135432 1.93599e-20)
(0.0408656 0.0161357 -2.5336e-19)
(0.00605733 -0.324462 -5.14267e-18)
(0.0195086 -0.323305 -5.66651e-18)
(0.00816057 -0.010565 5.07601e-19)
(0.00643371 -0.0102589 -1.39505e-19)
(0.00764767 -0.00906407 6.38631e-20)
(0.000148392 0.000210757 5.34585e-20)
(0.000114895 0.000229751 1.75356e-19)
(-0.00499801 0.00855755 -3.64662e-19)
(-0.00410411 0.00824602 9.90425e-19)
(-0.00489008 0.00774118 7.40151e-19)
(6.48539e-05 -6.83982e-05 -2.37128e-19)
(6.52157e-05 -6.06453e-05 -6.95429e-20)
(0.017153 0.0014482 -4.55892e-20)
(0.0182655 0.000990821 7.71622e-20)
(0.0182621 0.00230978 5.21479e-20)
(0.000434504 -0.000193345 -5.44678e-20)
(0.000417305 -0.000176513 -1.06458e-19)
(0.000413072 -0.000200737 -6.49244e-20)
(0.00288911 0.00957601 -3.3475e-19)
(0.00268874 0.0104197 -6.82966e-19)
(0.00384823 0.0100801 -4.2749e-19)
(0.000111102 -1.97685e-05 -9.2053e-20)
(0.000111296 -1.23024e-05 -1.64418e-20)
(0.00228174 0.00925668 -1.83271e-20)
(-0.0124244 -0.118745 -1.50767e-18)
(-0.0122234 -0.103914 3.094e-18)
(-1.73643e-05 -4.90321e-05 7.10097e-19)
(2.26876e-06 -4.91155e-05 1.55975e-19)
(0.00506365 -0.0162836 -3.3724e-18)
(0.00435636 -0.0155933 -3.55616e-18)
(0.0041935 -0.0168985 1.79325e-18)
(0.00114563 0.00123625 1.53732e-20)
(0.00122686 0.00140298 -1.17008e-19)
(0.00104954 0.00137998 -1.56365e-19)
(0.00378131 0.000341394 3.64204e-20)
(0.00417449 0.000873766 -2.23381e-19)
(0.0045214 0.000217758 -4.71537e-19)
(-0.0129803 0.00979581 1.10746e-18)
(-0.0110444 0.00788223 1.08617e-18)
(0.000121035 5.40056e-06 -7.53573e-19)
(0.000120134 2.46672e-06 3.16446e-19)
(8.27711e-05 6.90087e-05 3.2977e-19)
(8.18084e-05 7.47289e-05 3.04836e-19)
(0.03773 0.0124438 -1.73108e-19)
(0.037099 0.0147999 1.66075e-19)
(0.000178799 0.000191835 -5.94606e-25)
(0.000195701 0.000167918 7.95614e-20)
(-0.0192034 0.00866274 1.58661e-18)
(0.0040546 -0.00449912 1.10703e-18)
(0.00377346 -0.00432848 1.98544e-18)
(0.00376489 -0.00467629 2.03158e-18)
(0.0404109 0.0455302 -4.41893e-18)
(0.0182619 -0.00253244 1.1827e-19)
(0.0194462 -0.00182158 8.16892e-19)
(0.0181969 -0.00134609 -1.9052e-19)
(0.0229576 -0.0289169 1.12614e-18)
(-6.21403e-05 -0.00362802 -9.58523e-20)
(0.000367843 -0.00398875 -1.06091e-19)
(0.000384232 -0.00345601 5.27398e-19)
(0.0135429 -0.0101969 -2.96995e-19)
(0.0122346 -0.0124006 4.73223e-19)
(0.00029093 0.000320438 1.55153e-19)
(0.000241812 0.00024917 -3.49528e-19)
(0.00020502 0.000324115 1.07592e-19)
(0.000855144 -0.00234857 1.18418e-19)
(0.000979121 -0.00232994 9.2842e-19)
(0.000881943 -0.00223131 -1.94925e-18)
(0.000330102 -0.0055811 3.5323e-18)
(0.00064252 -0.00573141 1.585e-18)
(0.00576297 -0.0169259 -2.89398e-18)
(0.00564514 -0.0158408 -6.97911e-19)