/*--------------------------------*- C++ -*----------------------------------*\
| =========                 |                                                 |
| \\      /  F ield         | OpenFOAM: The Open Source CFD Toolbox           |
|  \\    /   O peration     | Version:  v2012                                 |
|   \\  /    A nd           | Website:  www.openfoam.com                      |
|    \\/     M anipulation  |                                                 |
\*---------------------------------------------------------------------------*/
FoamFile
{
    version     2.0;
    format      ascii;
    class       volScalarField;
    location    "650";
    object      p;
}
// * * * * * * * * * * * * * * * * * * * * * * * * * * * * * * * * * * * * * //

dimensions      [0 2 -2 0 0 0 0];


internalField   nonuniform List<scalar> 
18355
(
0.00571787
0.00445964
-0.0416381
0.00344004
0.00774847
-0.000558656
0.00502753
0.00753049
0.00467375
-0.0037284
0.00931342
-0.0378925
-0.0371907
0.00692453
0.00457424
0.0039346
0.00348958
0.00843509
-0.029022
0.00618642
0.0253535
-0.00188367
0.00452254
-0.000938056
0.0045293
0.00662204
0.00509151
0.0036128
0.00457774
0.00999706
-0.0339615
0.0172962
0.00401373
0.00363976
0.000273465
0.00726626
-0.01675
0.00731744
0.0104182
0.00428204
0.000681214
0.00976131
0.00368594
0.00444352
0.00445889
-0.0275057
0.00447869
0.00445506
-0.0403856
0.00553684
0.00329746
-0.0102832
0.00559033
-0.00782548
0.000604576
0.00611782
0.00179059
-0.0313604
0.00678349
-0.012372
0.00366242
-0.0343922
-0.00525328
0.00411789
0.0183697
0.00320716
-0.00233382
-0.01629
0.00348974
-0.00588304
0.00518939
0.000563998
0.0146435
0.00902274
0.00548984
0.00355075
-0.0286508
0.00357143
0.00514798
0.00550815
-0.00181169
0.00320079
0.00351775
0.000208965
0.00445287
0.00409012
0.00403347
-0.00219362
0.00502169
-0.00123836
-0.0464015
0.0273301
0.0020688
0.00552288
-0.00725596
0.00423291
0.00471783
0.00418568
-0.0178833
-0.000828926
0.00401969
0.00513772
0.00546954
0.000245707
-0.00107927
0.00395235
0.0186094
-0.0106534
-0.00838244
0.00383862
0.00181689
0.00310292
0.0122645
0.00034875
-0.0180046
0.00772647
0.00510391
0.00444641
3.55377e-05
-0.00315787
-0.00596232
-0.040871
-0.0518418
-0.000953734
0.00375711
-0.0229165
0.00502731
0.00343217
0.00341281
-0.00155478
0.00475865
-0.0199128
0.00218665
-0.0264661
0.0112467
0.00508776
-0.0308559
-0.00329699
0.00222189
0.0280887
-0.0111364
0.00579257
0.00471404
-0.0167422
0.0120035
0.000817906
-0.00793336
0.000321222
0.0124076
-0.00170614
0.00361258
-0.00321621
0.00429338
0.00490924
0.00371201
0.00448147
0.00346228
0.00398553
0.00472649
0.00447851
0.00857194
0.00224842
0.0038586
0.0051998
0.00935576
-0.00104783
-0.00437292
0.00759684
-0.0145858
-0.010627
0.00270499
-0.0258795
0.00391572
-0.042316
0.00134463
0.000845714
0.00304118
0.000199243
-0.0136947
0.0037505
0.00423893
5.37551e-05
-0.00174072
0.00367944
0.00173295
0.00543783
0.00448729
0.000359185
0.00018604
0.00514099
-0.0248056
-0.0188332
0.00450859
0.00347389
0.000592005
-0.0245552
0.00334389
0.00339217
0.00447338
0.00504906
0.00539659
0.00779817
0.010581
0.00436176
0.00659979
-0.00209779
-0.0129354
0.00373619
0.00395583
0.00443826
0.00136173
0.00297804
0.0041019
0.0041078
0.000301511
-0.0486061
0.00431599
-0.0175236
-0.0017893
0.00468261
-0.0084233
0.00326257
-0.00355796
0.00444387
0.00463704
0.00466752
0.00332718
-0.000524498
0.00808332
0.0114993
0.0048285
-0.00155709
-0.0031373
0.00330184
0.0051121
0.00455386
-0.00959466
-0.0257332
-0.0229044
0.00417505
0.00449574
-0.0134253
0.00421375
0.0100711
-0.00181209
0.000487563
0.00426911
0.00317582
0.000102238
0.00518179
0.00414714
-0.00100611
-0.0322351
0.00437764
0.000234359
0.00399962
-0.022208
0.00122701
0.00461115
0.00476378
-0.00281912
0.00590957
-0.0191032
-0.028514
0.0109748
0.00619185
0.00599981
-0.0182162
0.00478172
0.000463963
0.00520301
0.00382029
0.00784176
-0.0181633
0.00377167
0.00060773
0.00942232
0.0050536
0.0031605
-0.0766428
0.00940967
0.00128481
0.00886085
0.00380054
-0.00400414
-0.00216399
0.005253
0.000746682
0.00492329
-0.00645165
0.00399127
-0.0248047
-0.00116011
0.00483019
0.00594582
0.00457529
0.00344447
0.00289655
0.000845056
0.00574266
-0.0182631
-0.0299471
-0.0063651
-0.0197519
0.00807238
0.00951215
0.00555057
-0.0206955
-0.0278384
-0.023983
0.00114435
-0.0516316
0.00481057
0.00836838
-0.00409117
0.00950481
0.00475181
0.00450381
0.00403954
-0.0361982
-0.0515527
-0.0953257
0.000389369
0.00962526
-0.0118239
0.000546657
0.000475842
-0.0021208
-0.0111907
-0.000293875
0.0109239
0.000166131
-0.0142124
0.00397888
0.00524647
0.000792361
0.00406643
0.00836284
-0.0332846
0.00753449
0.00941535
0.00176149
0.00166092
0.00505495
-0.000156564
0.00618376
-0.00555541
0.00507661
0.00262457
0.00122832
0.000822514
0.005143
-0.0309855
0.00607982
0.00415148
0.00489389
0.0064957
0.00156509
0.00710653
0.00334891
0.00264085
-0.000663994
-0.0130522
0.00189844
0.00329524
0.00462356
0.00584493
0.00399714
0.00386798
-0.000911489
0.00235127
0.00942588
0.000132276
-0.0098431
-0.0360739
0.00488405
0.00405829
-0.0213799
0.00396698
0.00567403
0.0063232
-0.000642706
0.00277887
0.00837947
0.00446586
0.00679295
0.000560528
0.0219551
0.00427286
-0.00400793
0.00320507
0.00410788
0.00771913
0.0051471
-0.0311918
-0.0220175
0.00120564
0.00474201
-0.0330307
0.00612439
0.000799032
-2.8974e-05
-0.0249156
0.000127753
0.00940336
0.00504049
0.00979331
0.000609349
0.00300344
0.00923877
-0.0151059
0.000181267
-0.121541
-0.00119022
0.00384317
0.0233652
0.000755792
0.00658831
0.000628095
0.019701
0.000759156
-0.0265375
0.00214478
-0.0195603
0.00398168
0.00447748
-0.0200798
-0.000417064
0.00490608
-0.00423618
0.00602388
0.00385327
-0.0253975
-0.0304546
0.00447858
0.00432315
0.00844478
-0.0528525
-0.011719
0.00114492
0.0056003
-0.0252332
0.00450272
0.00379878
0.0048697
0.00343247
-0.0210299
0.00394472
0.00417875
0.00109617
-0.0324199
0.00627932
0.00341324
0.00661446
-0.00450446
-0.00279548
-0.0227719
-0.0337538
-0.00195254
0.00444477
-0.0116719
-0.0326724
-0.0240021
0.00390349
-0.00139074
0.00224982
0.00392512
-0.00534036
-0.00107363
0.0230143
0.0139629
-0.0039039
0.00932045
-0.00224442
-0.0315349
0.000330497
-0.0279475
0.000365469
0.00386618
-0.00589085
0.00388315
-0.032506
-0.0273256
0.0206809
0.00876904
0.00414656
0.000702962
0.0044025
0.00806664
0.00416201
0.00314025
-0.000615025
-0.00498972
0.0044972
0.00414914
-0.0208945
0.00145882
-0.00572304
-0.00165276
0.00418136
0.0078009
-0.00178341
-0.000925201
-0.0486203
0.00810385
0.00200588
0.00905894
-0.00544151
-0.00816444
-0.011963
0.000543196
0.00691126
-0.0323182
0.00406966
0.00670929
-0.114021
-0.0238998
0.00424622
-0.01157
0.00376486
-0.0259953
0.0179718
0.00255008
0.000831388
-0.0056989
-0.00243239
0.00505584
-0.0260784
0.00350318
0.00495495
0.00792781
-0.00220704
-0.000401171
0.000366222
0.00815914
0.0258655
-0.050117
-0.0291521
-0.00358612
0.00919861
0.0161447
0.0133458
0.00442893
0.00300723
0.00930899
0.0085414
-0.00240647
0.000390517
0.00403438
0.00476129
-0.00578223
0.0086865
-0.0298057
-0.0354132
0.00292309
0.000935874
0.0028914
-0.000557439
-0.0382258
0.00289991
0.0281657
0.00127754
0.000665401
0.0135206
-0.0189352
-0.0144645
0.0043049
0.00342581
-0.0241286
-0.0244032
-0.0293584
0.000104261
-0.0347064
0.00478454
-0.0474843
1.77452e-05
0.00529807
-0.0339075
0.00443729
0.00554667
0.00149744
0.00309816
0.00492425
-0.0109976
-0.0953942
-0.0129943
0.00427389
0.00253564
0.00832392
0.000151309
-0.0129163
-0.000801457
0.00445691
0.000356484
0.00210769
0.00263606
-0.00846585
-0.000593309
0.00486634
0.0108079
0.00479479
-0.0311919
-0.00231469
0.000444318
0.00421802
-0.00257382
-0.000660871
-0.0226069
0.0137022
0.00379679
0.000315031
0.0051974
0.00906881
0.00240944
0.000647865
0.0133493
-0.0340223
0.00520537
-0.0648707
-0.056363
0.00821604
-0.0359053
0.00381478
0.00637767
0.00444188
0.0003538
-0.00593424
-0.0254652
-0.0152525
-0.0129562
0.00484451
0.00517577
0.00381825
0.0012966
-0.0352066
0.00432363
-0.0104834
0.0120566
-0.00135444
-0.0258297
0.00524595
-0.0261505
-0.10234
0.00621679
0.00561282
0.00570785
0.000897439
-0.0290985
0.00139655
0.00473286
0.00595469
-0.00878057
0.00473661
-0.0376703
0.00408751
0.00775984
0.00107908
0.00355134
-0.0698669
0.00379028
0.00603156
0.00541979
0.0104708
-0.00251191
0.000689181
-0.00729337
0.00361468
0.00322596
0.00413525
0.0143512
-0.00983185
-0.00464994
0.00454928
-0.00144974
-0.000752407
0.00424866
0.00617267
-0.0168775
-0.00254803
-0.00275712
0.00327922
-0.0443092
-0.000425735
0.000479319
-0.0330005
0.00166896
-0.0460409
-0.00479335
0.000649807
-0.0043868
-0.000304112
0.00379912
0.00166713
0.00475861
0.00665951
-0.00263336
0.00973339
0.00448246
-0.0364052
0.00656079
0.00661138
-0.0772343
0.00415236
1.69249e-05
0.00249241
0.00330134
-0.0324709
0.00224732
0.00373568
0.00363662
0.00421783
-0.000415812
-0.038885
0.00904464
-0.0240704
0.00613645
0.00829298
0.00824734
0.00442995
0.00631114
0.00450989
-0.0331341
0.000181108
0.00336302
-0.0552996
-0.107627
0.00278079
0.00687327
0.00223231
-0.00228053
-0.0304061
0.000246848
-0.0250723
0.00537091
0.00676489
0.00280831
-0.0224286
0.00495172
0.0164033
0.00498556
-0.000390771
0.0014572
-0.0380733
0.00754068
3.57189e-05
-0.0114607
0.00484604
0.00115409
0.00459905
0.00039958
0.00444291
0.00719211
0.00594123
0.00457895
0.00361052
0.00160719
0.00156551
0.016178
-0.0375726
0.00397664
0.00423119
0.00359882
0.00397235
0.00480942
0.0046473
0.00565404
0.00358986
0.0046752
0.00443149
-0.00141633
0.0079957
0.00393635
-0.0211668
0.0279108
-0.0122895
0.00469028
-0.0337749
0.00371277
0.00360936
0.00388161
0.00442347
0.00865007
0.00386895
0.00368049
0.00449125
0.00933575
0.00346297
0.00948336
0.00230926
-0.000815157
0.00444888
-0.0112379
-0.000397389
0.00476628
-0.00267519
0.00456801
-0.0339343
0.00177583
-0.0237781
0.0026874
0.00579824
0.00892039
0.00561271
-0.0117504
0.00428013
0.0040923
-0.002686
-0.00643281
0.00720406
0.00395296
0.00311743
-0.00650784
0.00310953
-0.0242936
0.00424784
-0.030602
0.0154988
0.0043738
0.0045856
0.000629297
0.00425076
-0.0284454
-0.0285177
-0.0116846
-0.017363
-0.00434445
0.00344443
0.00405769
0.00429315
0.00509093
-0.00420334
-0.0235065
0.00596133
-0.000462717
-0.00412204
-0.0020466
0.014283
0.000291249
-0.032189
-0.0185055
0.000461514
-0.0325084
-0.00611491
0.0110714
0.00460793
0.00346711
-0.00579568
0.00120889
-0.0106387
-0.0333533
-0.0323243
0.0040504
-0.00146315
0.00673337
0.00510791
-0.0128881
0.00594297
0.00358854
0.0032078
0.0036951
0.00452172
0.00507706
0.0048361
-0.0254105
0.00295304
0.00700318
0.00406325
0.00469329
0.00467172
0.00127316
0.00923797
0.00468422
0.00460922
0.00365822
0.00184556
-0.034386
0.00834956
0.00308072
0.00476983
-0.00916935
-0.0301187
0.00101072
0.00123037
0.00435953
0.00455107
0.0050094
0.00440111
0.0109946
0.0022659
0.0015471
0.0069607
-0.00254831
-0.00534304
0.00162765
0.00446569
0.00366733
0.00861676
-0.00733029
0.00339142
-0.0166369
0.00461467
0.00323622
-0.0125184
0.0111977
0.00215802
-0.00115705
-0.0239527
0.00348285
0.00353898
0.0225794
0.00879908
0.00436389
0.0217686
0.00810969
-0.0311659
0.010336
0.00156773
0.00350279
-0.00273849
0.00702686
0.00349148
0.00429539
-0.00171379
0.00375638
0.00169697
0.00181837
-0.027832
0.00450483
0.00480428
0.00412481
0.00523921
0.00417063
-0.00045595
-0.0269226
-0.02864
0.00120288
0.00399462
0.00377902
0.00381071
0.0045426
0.00515871
0.00507765
0.0043035
0.00460739
0.00181377
0.00452731
-0.000853821
-0.013087
0.00513194
0.00471891
-0.000431974
-0.0156341
0.00395837
-0.00226393
0.00453115
0.00399713
0.0040054
-0.00893967
-0.0316142
-0.000974252
-0.0296468
-0.0117305
-0.0264925
-0.0200647
0.00382432
0.00901473
0.00510102
0.00472159
0.00356157
-0.0138331
-0.0318283
0.0057527
-0.017625
0.00685927
-0.0303232
0.00518266
-0.0282213
0.00859618
0.00826649
0.0033665
-0.0662473
-0.0140285
0.00402543
0.0032632
-0.0414269
-0.0233448
0.00827259
0.00476697
-0.0329128
0.00415152
0.00455227
0.0108626
0.00567127
0.00661237
-0.0300233
-0.00143639
0.00688394
-0.0145767
0.00836119
-0.117212
-0.0369527
0.00452954
0.0024588
0.00491422
-0.0256637
0.0081992
0.00432505
0.00738814
-0.00962276
0.0151898
0.00587404
-0.00135449
0.0047463
-0.00350948
-0.00583317
0.00327721
0.00473263
0.00253676
0.00330098
0.0051052
-0.000320989
-0.0458918
0.00425897
-0.00567334
-0.0180754
-0.00647102
0.00373031
-0.0270884
0.00432244
0.00324949
0.0046261
-0.0331237
0.00871615
0.00116425
-0.00157824
-0.0636414
0.00475131
-0.00617179
-0.00136603
0.00827802
0.0111893
-0.00160387
-0.000891914
0.00487308
0.00540623
-0.0317992
0.0056082
0.00465986
-0.000301552
-0.0317027
-0.000458073
0.000222322
-0.017253
0.0003666
0.00955556
0.00503032
0.00343435
0.0051173
-0.00577217
0.00327379
0.0151628
0.0124118
0.00818508
-0.0321214
-0.0749058
-0.00515486
0.00151387
0.00330796
-0.0329301
-0.0196031
-0.0323446
0.00337642
0.00478426
-0.00092649
-0.0264061
0.00126616
0.00455686
-0.0324813
0.0012892
-0.00190805
0.00126555
-0.00547102
0.00139731
-0.119509
-0.0363839
-0.0263048
0.0047317
0.00275163
0.0149622
0.00324379
0.00592428
0.00434973
-0.000983404
-0.0107276
0.00835681
-0.0287201
0.000429445
-0.0028836
-0.00324488
0.00204269
-0.00400535
-0.032584
-0.0218936
-0.000504612
-0.00198194
0.00521115
-0.0109606
-0.0106843
0.0068885
0.00263505
-0.0301682
-0.0277889
0.00402719
0.00612167
0.00688504
-0.00845028
0.00340989
0.00329185
0.00570361
0.00292162
-0.0726153
-0.00265693
0.00373579
0.00212273
0.00596321
0.00140694
0.00291573
-0.0015156
0.003274
0.000287334
0.00382866
0.00701396
-0.00642586
0.00175367
0.00296565
-0.000172916
-0.0166117
0.00971154
0.00492803
0.00409917
0.00809776
0.00436641
-0.00536655
0.00451967
0.00567991
0.00400312
0.003148
0.00125953
0.00350665
0.00572555
0.00314729
0.0050931
0.00385079
-0.00291264
0.00662555
0.00585123
-0.0681316
-0.0234086
0.00415432
-0.00595465
-0.00593485
0.00425891
0.00599572
0.00328391
0.00373252
0.00342085
0.0042373
0.00459168
0.00396911
-0.0310416
0.00345283
0.000183691
0.00386124
0.00374225
0.0238292
-0.0323105
-0.0109638
0.000243554
-0.00728066
-0.0097988
0.00264285
0.00445879
0.00486217
0.000679075
-0.00234331
-0.0204715
0.00744548
0.00440788
-0.0760078
0.00788669
0.00129889
0.00316885
0.00286228
0.0252869
0.00373913
-0.0505067
-0.00726308
0.00375704
-0.00579176
0.00477656
-0.0075465
-0.0343778
0.00481773
0.00601618
0.00477646
-0.00140039
0.00659974
0.00597912
-0.000935692
-0.00451563
0.00149873
0.00370572
0.00472773
0.000183686
0.00374808
-0.0089814
-0.0206577
0.00151616
0.000681274
-0.000581163
0.00220782
0.00579034
0.00462568
0.00373288
-0.00808842
0.00223946
-0.0071686
0.000757332
0.00508613
-0.0247467
-0.00235007
0.00818253
0.00355192
0.00402231
-0.0096892
-0.0328254
0.00375586
0.00653751
0.00820292
-0.00191445
0.00705545
0.00242396
-0.000741147
0.00902752
0.0244365
0.00498952
0.00324444
0.00505411
0.00466914
0.000213589
0.00329834
0.00875484
0.00488105
-0.0209121
0.000472713
0.00369248
0.00471025
0.00296362
-0.00262522
-0.0369488
0.00325218
-0.0170445
0.00324304
0.0033134
-0.0132249
0.00380503
-0.00467296
0.00171667
-0.0336082
0.0037378
0.00330156
0.00403849
0.00181066
0.026259
0.0033937
0.0162732
0.0040073
0.00481149
0.00473197
-0.0357758
0.00280821
0.00475795
0.00406976
-0.000733701
0.000751527
0.00114885
0.00508247
0.00619943
0.00195346
0.00505902
0.00789136
0.00295399
0.00816265
-0.026628
0.00374106
0.0103701
-0.0171171
0.00472875
0.00471144
0.00444425
0.00481935
-0.0227171
-0.0223568
0.0108879
0.0110232
0.00376827
-0.036211
-0.0341633
0.00270263
0.00518972
-0.0292831
0.00810379
-0.00266411
0.00397408
0.00382349
0.00492044
0.00400882
0.00345874
-0.0241781
0.00396636
0.000529602
0.0043771
0.0081373
0.00375468
-0.03909
0.00429412
-0.0216649
0.00435715
0.00507256
-0.00853695
0.00347402
0.00635782
0.00934593
-0.00318269
0.00205396
0.0199609
0.00125484
-0.0134005
0.00352125
-0.0372293
0.00642628
0.000975622
0.0091806
0.00546128
-0.00186693
0.00362952
-0.0598964
0.00458206
0.00303386
0.00508986
0.00976238
0.012819
0.00193223
0.00315478
-0.0150033
0.00437655
0.00474175
-0.00700093
-0.0345424
0.00373737
0.0152341
0.00422043
0.00622147
-0.0320752
0.000909702
-0.00192212
0.00464485
0.0255821
0.00506029
-0.00752321
-0.0018537
0.000770187
0.0047645
0.00139707
0.00101175
0.00490575
0.00552408
0.0138266
-0.00801831
0.00509247
0.00197881
-0.0319616
0.00283432
0.00450298
0.0271012
-0.00705713
-0.00995591
-0.0233867
0.00471902
-0.0342998
0.00472784
-0.0268007
-0.0102156
0.00372217
0.00288767
0.0040332
-0.0078216
0.00265295
0.00164492
0.00682644
0.00462026
0.00705438
0.00425226
0.00305968
-0.0512553
0.00259513
0.00516149
-0.00615414
0.00934864
-0.00234204
-0.0021578
-0.0218058
-0.00926023
0.00452937
0.00489796
0.00420601
0.00438666
-0.00862751
-0.0387816
0.0050459
0.00350433
0.00592275
0.00487543
0.00405188
-0.118785
0.00354956
0.00526699
0.00362638
-0.0313412
0.00422929
0.00450346
-0.0125487
0.00478603
0.00971655
0.00475113
-0.00208961
0.00170639
-0.00875418
0.0101635
0.000994235
0.00472027
0.00656443
-0.106095
0.00468015
-0.0238559
0.00301943
-0.00888705
0.000235722
-0.0067948
-0.00256353
-0.0760507
0.0144934
0.00379249
-0.0953962
0.00713341
0.0205048
-0.00438333
0.00274273
-0.0754828
-0.0224864
0.00186003
0.00420318
-0.00874646
0.00923066
-0.000866622
0.0059191
0.00466488
0.0023674
-0.0379628
-0.0236694
-0.00271328
0.00371066
-0.0170901
0.0100829
0.0080221
0.0040217
-0.010113
-0.0230873
0.0014435
0.00477803
0.00463849
0.00432152
0.00423614
-0.00110409
0.00449509
-0.0323933
-0.0104492
0.00024265
0.00642201
-0.00122946
-0.000350028
0.00528823
0.000725722
0.00752016
0.00634942
0.00710426
0.00377809
0.00184282
-0.00993445
0.00241144
0.00435756
0.00478326
0.00364324
0.00355538
0.00373692
0.00433593
0.00462119
0.00433417
0.0040944
0.0026448
-0.0332201
-0.000158797
0.003604
-0.0558582
0.00442197
0.00416914
0.00195442
0.00169844
-0.0466379
0.00206479
0.00511249
0.00415104
0.00479155
-0.0329295
0.00723734
0.0041176
0.00707818
-0.0318349
-0.0895215
-0.00142272
0.00213358
-0.0569143
-0.0134752
0.000737209
0.00721823
0.00328694
-0.0270064
0.00434977
-0.0116618
0.0044755
0.00999513
0.00419563
0.00483754
0.00418215
0.00327042
-0.00989521
-0.00177246
-0.00407855
0.00476455
0.00611944
0.00416075
0.00354641
0.00415797
-0.00551264
0.00133191
-0.000319479
0.0041757
0.00955049
0.00429694
0.00432839
-0.00388139
-0.0365575
0.00379833
0.00380543
0.00661599
0.00301398
0.00449331
-0.0280757
0.00772985
0.00377188
0.00550718
-0.0855281
0.0115493
0.00485138
0.00368232
0.00347949
-0.00599149
0.00456635
0.00235994
0.0158504
0.00300195
-0.0265962
0.00510633
0.000269405
0.00351325
0.00661936
-0.0233935
0.00791106
-0.00753837
0.00510096
0.00375539
0.000630057
0.00560812
0.00954445
-0.00804922
0.00438295
0.00478291
-0.000851962
-0.000265399
-0.0295345
0.00484066
-0.00390297
0.00468361
-0.0329669
0.00449285
-0.0138726
0.00428162
0.00490231
0.00446687
-0.0281808
0.00363364
-0.01393
0.0100011
0.0066715
0.00377905
0.00974648
-0.00385874
0.00299315
-0.0626761
0.00747146
0.00423723
0.00108125
0.00822948
0.00403764
0.00553804
-0.0106439
-0.00663881
0.00484536
-0.0319445
-0.00439752
-0.0172034
0.00670954
0.00649912
0.00343987
0.00181894
0.0040341
-0.0110503
0.000612475
0.00349469
0.00412819
-0.100465
-0.0373033
0.00331879
0.00483156
0.00481151
0.00739685
0.00461356
0.00777001
0.00288685
0.0034851
0.00616141
0.00786475
0.00649677
-0.00608872
-0.000794047
-0.016354
0.00292254
0.00781175
0.000191715
0.00396399
-0.00549726
0.00267139
-0.00839691
0.00440593
0.00428904
0.00375435
0.00384622
0.00711481
0.00586163
-0.0128784
-0.00795578
0.00629139
0.00290955
-0.0328103
0.00359261
-0.00362663
-0.0128887
0.0108617
0.00228868
-0.0866536
-0.0275686
0.00202071
0.00648521
0.0049063
0.0046323
-0.0111513
0.00224762
-0.00567659
-0.00539544
0.00477913
0.00822121
0.0110847
0.00646349
0.00503518
0.00452793
0.00373301
0.0021108
0.00566401
-0.0338313
0.00655258
0.00948027
0.00423828
0.00474679
-0.0462978
0.00470747
0.0075421
0.00520033
0.0068714
-0.00465062
0.00822638
-0.117115
0.00378798
-0.0115767
-0.00962561
0.00256854
0.00477023
0.00420499
0.0024565
0.000822218
-0.014667
0.000295851
-0.00402606
0.00460944
-0.00749935
-0.0478629
-0.0173483
0.00419707
0.022092
0.00378628
0.00218044
-0.0308291
0.00205707
-0.00380448
0.00018029
-0.00574931
-0.00425842
-0.00361239
0.00108338
-0.0136675
0.000170051
0.00700963
0.000217717
0.0142597
0.0038375
0.00363601
0.0106242
0.0042633
0.00486257
-0.00175365
0.00494179
0.0093511
0.00434479
-0.00352607
0.00362753
0.0009155
-0.0252871
-0.00199062
0.00594861
0.0048197
0.0022288
-0.00540019
0.00565991
0.00469138
-0.0364349
-0.00966586
-0.0135321
0.0150528
0.00089714
0.0109433
-0.0134721
0.00509796
-0.00181533
0.0043262
0.00416061
-0.0346206
-0.00366269
0.00642513
0.0074774
0.00447182
0.000488752
-0.0322537
0.00297154
-0.00203252
-0.0126926
0.000877093
0.00361446
-0.00338122
0.00717229
-0.0399226
-0.015518
-0.0354504
0.00938577
0.00351648
0.00815801
0.00338581
0.00382821
0.00247095
0.00255562
0.00368127
-0.0158856
0.00418443
-0.0202188
-0.0149662
0.00474557
0.00457599
0.00470211
-0.102593
0.00416012
0.00333129
0.00650038
0.00440904
0.0032145
0.00491345
-0.0140319
0.00299096
0.00184927
0.00010997
0.000758529
0.00794527
0.00373085
-0.00510399
-0.00679202
0.00718545
0.00649895
0.000721457
0.0014519
0.00471361
-0.0390629
-0.0133547
0.00296384
0.00775868
-0.0217356
0.00477297
0.000906798
0.00252736
-0.00420094
-0.0351837
-0.0177799
0.00273986
0.0107443
-0.0320332
0.0071441
0.00457782
0.00436446
0.00372083
0.00758121
0.00548544
0.00392518
-0.01093
0.00686119
0.00288435
0.00495517
0.00275101
0.00585821
0.00636391
0.000178919
-0.116855
-0.010522
-0.0268979
0.00382303
0.0096311
0.000276273
0.00736553
0.006812
0.00188246
-0.0416387
-0.00885176
-0.0125569
-0.00387933
0.0070074
-0.00509867
0.00158262
-0.0316711
-0.0185235
0.0047513
0.00490622
0.00366059
-0.000386051
0.00717402
0.00141114
-0.0166765
0.00118683
0.00503498
-0.0300916
0.00418772
-0.00795077
-0.0547207
-0.0168203
-0.0311071
0.00363189
-0.0123514
0.00224964
-0.116149
0.00464321
-0.0522022
0.0130961
0.00469409
0.00202248
0.0102569
-0.0462962
0.00409961
0.00409199
0.00382021
0.00374768
-0.105883
-0.0216618
0.000179337
0.00200126
0.00455643
-0.025561
-0.0370382
-0.0053768
0.00384651
-0.0261239
0.00499685
9.55391e-05
-0.11977
0.000761825
0.00398788
0.00378711
-0.00500565
0.00421337
0.00297178
0.00371487
0.00648312
0.00794888
-0.0178389
0.00823515
0.000312661
0.00189148
-0.0237365
-0.0276604
0.0161531
0.00248014
0.00478028
-0.0336183
-0.0318867
0.00714111
-0.0316928
0.0107258
0.00234589
-0.0645823
-0.0143616
0.00473768
-0.00850968
0.000180556
0.0011455
-0.00300849
-9.30061e-05
-0.0234482
0.00307702
0.000299095
0.000393952
0.0105344
-0.0153265
0.00458179
0.00408979
0.00390846
-0.0428082
0.00367982
0.0040178
0.00128133
0.00461976
0.00394435
-0.0338348
0.00568777
0.00467551
-0.0585984
0.00361626
-0.0383828
-0.00928927
0.00170453
0.00787719
0.00493539
-0.00309278
-0.0307088
-0.00350808
-0.0363697
-0.0317206
-0.00936008
0.00461287
-0.0765396
0.00383226
-0.036772
-0.0987459
0.00391035
0.00246673
-0.00930387
-0.0303048
0.0025686
0.00471159
-0.038453
0.000866866
0.00410319
0.00343382
0.00599377
0.0040324
0.0143191
-0.0359461
0.00360744
0.00355019
-0.0765729
0.00260882
0.00255301
0.00368342
0.00513622
0.0247354
0.00402127
0.0017784
0.00459296
-0.00849919
0.002625
0.00971173
-0.0411495
-0.0164813
-0.042028
0.00423364
0.00290359
-0.0284885
0.00444765
0.00436819
0.00552097
0.00512915
-0.00230888
0.00180566
0.00715162
-0.0970606
0.00453709
0.00354741
0.00223949
0.00510196
0.00420192
-0.00349122
-0.118769
-0.0387924
0.00451736
-0.0214436
0.00108023
0.00466237
0.0043988
0.00705973
0.00391463
0.00331131
0.00387298
0.00403536
-0.0753279
0.00419004
0.00063237
-0.0173233
-0.0284243
-0.0040715
0.00453885
-0.0284607
0.00686958
0.00433959
0.000448009
0.00458845
0.000662892
0.000490602
0.00622535
-0.0334949
-0.0214762
0.0029466
0.00453003
0.004763
0.00657448
0.00392267
0.00362609
0.0158989
0.00337629
-0.120016
-0.027049
0.00690982
-0.0297413
-0.00390386
0.00226405
0.00832908
-0.0251436
0.00409553
0.00927892
0.00907229
-0.010434
0.00397296
0.0105159
-0.00239335
0.011521
-0.0339264
-0.036102
0.00467007
0.00992042
0.00668915
0.00650178
0.00685665
-0.00738229
0.0016595
0.000350665
0.00509663
-0.0399339
0.00442485
0.00471882
0.00293518
0.00248594
0.00227368
-0.0358147
0.0039516
-0.00984595
-0.0258642
-0.014879
0.00227013
-0.0321132
-0.00103562
0.00501105
0.00270524
-0.0247479
0.00522339
0.00261416
-0.0234952
0.00460351
-0.00330431
0.00129473
-0.00063846
0.00468303
0.000982132
-0.00561685
-0.000556942
-0.00285456
0.00312216
-0.000802548
-0.0119551
0.00372917
-0.081226
0.00425914
0.00718336
0.00409775
0.0108937
-0.0131292
0.00463112
0.00665985
0.00436488
-0.0385587
-0.000265705
-0.0183973
0.00463643
0.00412857
0.010934
-0.0315648
0.00417902
0.00476982
0.00509753
0.00675551
-0.0827844
0.00460801
0.0040859
-0.00712637
0.00476766
-0.0196649
-0.0135687
0.00410101
-0.0219026
-0.0721227
-0.0229619
0.00473648
0.0145509
0.00209704
0.00192819
0.00635763
-0.00408157
-0.0141977
0.00423276
0.00567647
-0.0356008
-0.0161487
-0.00592734
-0.0114265
-0.0278542
0.0047637
3.98264e-05
-0.00337086
0.00447891
0.00228924
0.00374351
-0.0221249
0.00416617
0.00223293
0.00256428
0.00730094
0.00990893
-0.00550326
0.00420161
0.00340033
0.00949952
0.00529337
0.00360796
0.00697004
-0.0317049
-0.032813
0.00369083
0.00204982
-0.0131058
-0.0277586
-0.027388
0.00461654
0.000209801
0.00457208
0.00063054
0.00102792
-0.000730825
0.000623865
0.000686537
0.00482007
0.00498165
-0.0102046
0.00799727
0.00804298
-0.0324498
-0.0250036
-0.0301285
0.00680095
0.00985043
-0.00485087
-0.0223022
0.00490724
0.00699016
0.00397824
-0.0248747
0.000446436
0.00417285
0.00412741
-0.00955057
0.0046222
-0.0111836
0.00277099
0.00377523
0.0175872
0.0041915
0.00319547
0.00428876
0.00367961
-0.00873718
0.0055996
0.00409795
-0.0112318
-0.0240233
-0.0309126
-0.00858739
0.00549736
0.00960924
0.00588222
-0.00450186
0.00372618
0.0047161
0.000152047
0.0036989
0.00416122
0.0049572
0.0048983
-0.0320148
-0.0844629
-0.0324946
0.00458448
-0.0251815
-0.0344286
-0.0130113
0.0044738
0.0041979
0.00288648
0.00709863
0.0024634
0.00198635
0.00472582
0.00423434
-0.0323072
0.00459227
0.00128716
0.00356876
0.00239716
0.00415496
-0.000598691
-0.00507
0.00400188
0.00291951
-0.00955203
-0.0143359
-0.0120981
-0.0254268
-0.00567265
0.00127799
0.0163396
-0.00331171
0.00243506
0.00120128
-0.0320636
0.00200187
-0.0475913
0.00691852
0.00507474
-0.0290002
0.00339606
0.00373941
0.00233321
0.00146988
0.0037622
-0.00991578
0.00419934
0.004684
0.00065961
0.00648348
-0.0291991
0.00260221
-0.0250751
0.00454015
0.00469384
-0.0241995
-0.0147938
-0.000854551
0.00188683
0.00193742
0.00457492
-0.0166354
-0.00896124
-0.0354569
-0.00586274
-0.00992058
0.00493135
-0.0199424
0.00466435
0.000773975
-0.0087577
-0.0222455
-0.0395513
0.00285197
0.0065692
-0.010017
0.00189952
0.00966075
0.00375333
0.0217795
-0.00588193
-0.036635
-0.0150456
-0.0116565
0.00541344
-0.0171012
-0.0187974
-0.0335115
0.00599107
-0.00213853
-0.0240976
-0.0318662
-0.00748498
-0.0351414
-0.0407114
0.00257231
0.00465667
0.00051363
-6.50475e-05
0.00763402
0.00151338
0.00788721
-0.00218824
0.000216508
-0.00246775
-0.0257761
-0.0269758
-0.0405388
0.00581935
-0.00411355
-0.00791102
0.0102138
0.00802179
0.00825554
0.00171887
0.00456786
-0.00864088
0.00496605
-0.0195474
0.0061325
0.00623845
0.00421329
0.00375222
-0.0161492
0.00245458
0.00131938
0.00112879
0.00404101
-0.0207092
0.00471126
0.00591129
0.00601354
0.00413309
-0.0999176
0.00333659
0.00695659
-0.0076408
0.0088439
0.00463275
-0.0241723
-0.111337
0.00257963
0.00603901
0.00263724
0.0037582
-0.00959233
0.00262711
0.00457574
0.00389874
-0.0418694
0.00903488
-0.0896038
-0.0149762
0.00201643
0.00776926
0.00451643
0.00378836
0.00345076
0.00469377
0.00857142
0.00646341
0.00286517
0.000154209
0.00547684
-0.00165492
-0.000469159
0.00257774
0.00488286
0.0038367
0.00633516
0.00165055
0.00940054
-0.0288484
0.000648703
-0.0124055
-0.0242041
0.00377316
0.000222542
-0.0121579
-0.0314428
0.00383953
0.00494196
-0.0110905
0.00291621
0.00106256
0.00547958
0.00392423
0.00329427
0.00408046
0.00395656
0.00276152
0.00296214
-0.00130382
-0.0158456
0.00161439
0.000402339
0.0037877
0.00456211
-0.021622
-0.0866086
0.00424916
0.00607604
0.00269312
0.00331623
0.00415807
-0.0156087
0.000438413
0.00094675
0.0102822
0.00157686
0.00160418
0.0042438
0.000170908
-0.0348621
9.8336e-05
0.00488413
0.0015851
0.00261646
0.0105627
0.00380824
0.000157583
-0.00605227
-0.113995
-0.00948184
-0.00375425
0.00561946
-0.00410948
-0.0104249
0.00530248
-0.0289319
0.00413368
-0.0162614
0.00455621
-0.00186228
0.00362155
-0.0256215
0.00731562
0.00470358
0.00095509
0.00453793
0.00445652
-0.00247157
0.00456098
-0.000772189
0.00238244
-0.000675836
0.00397313
0.00281542
-0.0338194
0.00472394
0.00234949
0.00397142
-0.0177089
0.00170649
-0.00122727
-0.0295898
-0.0150605
-0.0274956
0.00481849
0.00595345
0.00504921
-0.000372505
0.0030929
0.00243281
0.000839407
-0.0227325
-0.00145101
-0.0408314
-0.0142321
-0.00141748
0.00155404
-0.000902666
0.00303071
0.00305027
-0.00804275
-0.00919065
0.00436042
0.00377689
0.000173852
0.00384727
-0.0364407
0.00884619
-0.00280465
-0.00294009
-0.00349729
0.00353252
0.00447251
-0.056226
-3.12549e-06
-0.00242512
-0.0162204
0.00330819
-0.026892
9.2744e-05
0.0043157
0.00608129
0.0042294
-0.00923684
0.00257569
0.00177139
-0.00471489
0.00680618
0.00684857
-0.000451521
-0.0244282
0.00382284
-0.0893476
0.00480739
0.00365798
0.00081325
0.00391804
-0.0173113
-0.00414697
0.00944799
-0.109342
0.0023804
0.00380399
-0.094063
0.00445433
-0.0625288
-0.0225743
0.00459226
-0.00195015
0.00428834
-0.0155534
-0.0968727
0.00587829
0.00815036
-0.00612913
0.00413639
0.00469727
0.00689023
-0.0680696
-0.00253369
0.00304697
0.00687473
-0.00222578
0.00796585
-0.037254
-0.0354961
-0.0107174
0.00387786
-0.0139792
0.00595423
0.00245097
-0.0114956
-0.0217354
-0.00445803
-0.0740893
-0.0213239
0.00435646
-0.0858227
0.000496127
0.00243664
-0.023137
0.00188218
-0.00315406
0.00277064
-0.0106161
0.00470063
-0.0273711
0.00393453
0.0040264
-0.00377068
-0.0217729
-0.0156297
-0.0156573
-0.00902051
0.00410003
-0.00812932
-0.0253
0.00700839
-0.0318422
-0.000605034
-0.0143359
0.00107266
0.017565