/*--------------------------------*- C++ -*----------------------------------*\
| =========                 |                                                 |
| \\      /  F ield         | OpenFOAM: The Open Source CFD Toolbox           |
|  \\    /   O peration     | Version:  v2012                                 |
|   \\  /    A nd           | Website:  www.openfoam.com                      |
|    \\/     M anipulation  |                                                 |
\*---------------------------------------------------------------------------*/
FoamFile
{
    version     2.0;
    format      ascii;
    class       volScalarField;
    location    "900";
    object      k_0;
}
// * * * * * * * * * * * * * * * * * * * * * * * * * * * * * * * * * * * * * //

dimensions      [0 2 -2 0 0 0 0];


internalField   nonuniform List<scalar> 
18758
(
0.000174695
0.0027079
0.000144254
0.0413307
0.0675511
0.0799465
0.00885613
0.000145885
0.000211565
0.000156392
0.000152705
0.0553197
0.000148182
0.000205217
0.000152488
0.000196057
0.000170882
0.00014744
0.000148555
0.000158668
0.0268663
0.000149791
0.0439373
0.000570171
0.000703364
0.00014591
0.000247888
0.0677152
0.0532391
0.000599962
0.000183301
0.0341423
0.000149141
0.000151171
0.000192947
0.000149085
0.000149462
0.000148513
0.000149536
0.000172062
0.000148541
0.000154691
0.000145811
0.000154525
0.00043339
0.000145158
0.0425482
0.000152927
0.000156045
0.000145552
0.000186288
0.0683637
0.000144694
0.000152337
0.0653349
0.0182315
0.000149395
0.00018574
0.000148051
0.000206935
0.000173103
0.0103928
0.000188688
0.000150402
0.000144752
0.000147982
0.000172773
0.00014911
0.00014814
0.0671381
0.0631467
0.000149375
0.000145617
0.00101251
0.000145847
0.000148
0.000207634
0.0664438
0.000168636
0.0308351
0.0658085
0.00165325
0.000206767
0.0758335
0.000208644
0.000161194
0.0536676
0.000188487
0.0010794
0.000148
0.0727726
0.000148051
0.034672
0.000155064
0.0681722
0.0282987
0.000207007
0.00014587
0.000147461
0.0309491
0.00015965
0.0672006
0.00018423
0.000166938
0.0280756
0.000224362
0.0372668
0.0681588
0.000150461
0.00014935
0.035937
0.000930673
0.000146196
0.000148297
0.0540304
0.0232765
0.0293248
0.000152533
0.042675
0.0652252
0.000166
0.000148033
0.0822502
0.000232292
0.000218065
0.000361431
0.00143936
0.000313368
0.0283957
0.000148546
0.000171473
0.000243128
0.0163631
0.000163282
0.000463354
0.000151947
0.000206881
0.000172931
0.000147443
0.000166729
0.000168661
0.00018114
0.000148033
0.036965
0.000148581
0.000149009
0.024035
0.0276886
0.000183124
0.0612823
0.000933067
0.00976527
0.000160989
0.000149788
0.0531969
0.000158663
0.0378296
0.000152915
0.000148854
0.000149919
0.000146681
0.000205372
0.0369005
0.00014882
0.000173462
0.0603528
0.000148745
0.0819982
0.000191817
0.0798527
0.0450134
0.00014741
0.0402513
0.0676594
0.000205013
0.000518229
0.0648253
0.000150577
0.000166656
0.000148768
0.000146449
0.00943926
0.0040222
0.000146286
0.000156387
0.000748455
0.000147745
0.0271406
0.000145621
0.000147774
0.00016338
0.000276423
0.000149409
0.000182229
0.000159345
0.000188833
0.000159075
0.000195437
0.000148904
0.000145742
0.000165949
0.000152751
0.000162295
0.000182124
0.000148088
0.000159161
0.000184788
0.000149846
0.02617
0.000155958
0.000147357
0.000167564
0.000148929
0.00016252
0.000166827
0.0624361
0.000167612
0.00019442
0.000145371
0.0809794
0.000147358
0.000150491
0.000202752
0.028091
0.000203798
0.000184325
0.000173554
0.000163308
0.000145957
0.00018224
0.000147946
0.000188683
0.0438083
0.000208797
0.0001483
0.000147732
0.000145964
0.000145329
0.0795852
0.000163528
0.000146859
0.000270838
0.0406623
0.000151758
0.0565488
0.0182535
0.000207933
0.00014913
0.0669502
0.000156645
0.000148946
0.0816464
0.000161302
0.000156868
0.000150919
0.000167525
0.000287525
0.0002002
0.000162096
0.000168406
0.000147178
0.000180768
0.000148042
0.000181853
0.000155601
0.00020253
0.0172906
0.000145379
0.000150193
0.000195839
0.000150004
0.000156015
0.00018183
0.0762366
0.0243643
0.000148027
0.000183752
0.00295926
0.000365738
0.00014986
0.000147232
0.000158928
0.000163591
0.000148005
0.00367985
0.000263072
0.0505268
0.00775446
0.0459026
0.000145948
0.000144197
0.000164255
0.0680235
0.000153825
0.000168276
0.000187075
0.000158722
0.0631709
0.000148387
0.0174018
0.0774167
0.000145242
0.0648111
0.000160538
0.00014827
0.000160748
0.00018049
0.000151749
0.000148976
0.015922
0.0448567
0.000147462
0.0104767
0.0644136
0.000201028
0.000147949
0.000149419
0.0217856
0.000151663
0.000146172
0.000147413
0.000150768
0.00019242
0.000180628
0.000158864
0.000162831
0.000158667
0.000164122
0.000147025
0.000149844
0.000300589
0.000166626
0.000185429
0.0374296
0.000154088
0.000149265
0.000149986
0.0177793
0.0671266
0.000146047
0.000147277
0.00014605
0.000151789
0.000162622
0.000487281
0.000148011
0.000149093
0.000145554
0.000206007
0.000180043
0.000197846
0.000179768
0.000151727
0.000266451
0.000173818
0.000164679
0.000157486
0.0498612
0.0290913
0.00130183
0.000148166
0.000159881
0.00623064
0.0795252
0.00015369
0.000145971
0.000174725
0.000148597
0.00016162
0.0129868
0.0192301
0.000193359
0.000158211
0.0208755
0.000148322
0.000152718
0.000147683
0.000149557
0.000190045
0.000153463
0.0125344
0.000182325
0.000150687
0.000147471
0.0326213
0.000192623
0.000210473
0.000148307
0.000178445
0.000147132
0.000154188
0.000148044
0.000145437
0.0276208
0.0279789
0.000188523
0.0507761
0.000147376
0.000205465
0.0459984
0.000167725
0.000146164
0.0386609
0.000147271
0.000149256
0.000146425
0.00019061
0.000147929
0.000154419
0.000179072
0.0828591
0.000147318
0.0658483
0.000172363
0.00014799
0.000156923
0.000148166
0.000147292
0.000158154
0.000179288
0.000163439
0.0119384
0.000166718
0.000148158
0.000192425
0.0685433
0.0645976
0.043097
0.000190222
0.000149697
0.000145436
0.000146869
0.000148988
0.000193784
0.000170766
0.00016488
0.000160036
0.000161132
0.00354194
0.000184677
0.000148133
0.00016257
0.000933677
0.000150339
0.0195046
0.000151023
0.00014844
0.0321808
0.00015593
0.000150084
0.00028612
0.000193279
0.000164293
0.0281919
0.000148037
0.000149978
0.000202934
0.0520118
0.000159671
0.000172542
0.000206359
0.00136675
0.0111681
0.000205155
0.000149309
0.00018983
0.000148302
0.000194131
0.000151324
0.0361206
0.000178151
0.00240365
0.000164672
0.000185568
0.000145245
0.000632541
0.000145648
0.0239689
0.000147718
0.000196411
0.000148235
0.0295138
0.000162322
0.000148469
0.000147466
0.00014637
0.0586618
0.0222256
0.0509685
0.000172837
0.000155454
0.000180805
0.000149785
0.000149908
0.0685314
0.000147481
0.000148298
0.000187455
0.000148124
0.000171979
0.000180808
0.00014827
0.000147928
0.000155684
0.000150165
0.000159185
0.0548244
0.000165723
0.000159203
0.000156013
0.000148185
0.000346326
0.000149438
0.000150402
0.000336181
0.0254726
0.00018479
0.0311222
0.000153943
0.000150339
0.0309155
0.00014865
0.0264589
0.000193509
0.000148418
0.058413
0.000297731
0.000175245
0.000147425
0.000166147
0.0686291
0.000148547
0.000147762
0.00015267
0.000151697
0.000149089
0.000146005
0.000149956
0.0773314
0.000155398
0.0612568
0.000148024
0.000192085
0.00722625
0.000148084
0.000145682
0.000155256
0.000148764
0.000150019
0.000151183
0.000148682
0.000188256
0.000206523
0.000144768
0.0685527
0.0599522
0.000159016
0.000189738
0.000447326
0.000154537
0.000164782
0.000159372
0.0642929
0.000155268
0.000174744
0.00014817
0.0123143
0.000169163
0.000180056
0.000193094
0.00830475
0.00015511
0.000147949
0.000173851
0.000549347
0.000149867
0.000207871
0.00014912
0.0501734
0.00015023
0.000147373
0.000146351
0.000148168
0.0603696
0.0535879
0.000148372
0.000231362
0.000157516
0.0643859
0.0275918
0.0174594
0.00071176
0.000148571
0.0706621
0.000182034
0.000148022
0.000173395
0.0670501
0.0244294
0.000151065
0.000149947
0.000148146
0.000144521
0.0279561
0.000188057
0.0659401
0.0414332
0.000148531
0.000148845
0.000175585
0.000149862
0.000146687
0.000151142
0.000152115
0.000188666
0.000168838
0.000192751
0.0683611
0.000172955
0.000148282
0.000155483
0.000182136
0.068659
0.000173661
0.00585414
0.000171825
0.000148402
0.000219767
0.0635182
0.000149557
0.000146244
0.000171858
0.0707263
0.00019515
0.000148128
0.0250746
0.00799288
0.000801566
0.000145516
0.00487607
0.0144864
0.0506029
0.00015346
0.000149251
0.0541357
0.00014996
0.000201423
0.0326643
0.00020443
0.00940138
0.000184632
0.0381107
0.000179596
0.000148666
0.000149887
0.0334026
0.0559445
0.0127216
0.0195868
0.000148673
0.000201383
0.000149834
0.000173927
0.000185707
0.000184723
0.000148458
0.000153554
0.000203716
0.0672017
0.0360731
0.0115264
0.000165199
0.000159716
0.00020887
0.000149178
0.000146893
0.000147672
0.000157382
0.000183969
0.000148093
0.00018475
0.000146976
0.00014884
0.000147198
0.0676623
0.000149411
0.000149778
0.000174559
0.000172876
0.00014482
0.0222696
0.000148624
0.000147442
0.000171888
0.000159465
0.00015579
0.000150593
0.00371033
0.000159183
0.00016133
0.0619512
0.000161454
0.0456652
0.000154096
0.000188367
0.0487207
0.0229028
0.000146139
0.0646971
0.000366534
0.000145673
0.0375078
0.000148282
0.000147115
0.000167516
0.000147491
0.000175984
0.0673515
0.000145589
0.040659
0.000148452
0.000165843
0.0561237
0.000144664
0.0680151
0.000151668
0.000148639
0.000147682
0.00014767
0.000207535
0.000165814
0.0204762
0.000173274
0.0770059
0.000175372
0.000148107
0.000206054
0.014192
0.00109378
0.000166209
0.000197111
0.000182255
0.000156564
0.000207201
0.000150205
0.00338098
0.000148074
0.0054797
0.000151338
0.000166306
0.000155717
0.000149723
0.0365018
0.000149951
0.000146721
0.00154817
0.000151685
0.000147217
0.000171494
0.000179951
0.000208653
0.000993809
0.0395563
0.0427289
0.00014879
0.00014931
0.0289388
0.000147837
0.000286697
0.000185558
0.000152905
0.000148295
0.000160464
0.000147943
0.000148464
0.000160754
0.000274392
0.000192721
0.000171881
0.000169794
0.000148798
0.000178684
0.0613671
0.000147016
0.000186115
0.000153485
0.0668547
0.000151041
0.0593532
0.000148037
0.000406118
0.000149829
0.000182942
0.00014807
0.000156815
0.000163667
0.000144711
0.000147305
0.000145032
0.061272
0.0083378
0.00016458
0.0712734
0.000148434
0.00017034
0.000158705
0.000214042
0.0310898
0.000164764
0.000144903
0.000180707
0.000146976
0.00014843
0.000158813
0.0261074
0.0812193
0.000432186
0.0198525
0.000165948
0.000150631
0.000147658
0.00193693
0.000147138
0.0009621
0.000158678
0.000149172
0.0730615
0.0827819
0.000148493
0.0253919
0.000156321
0.000197374
0.000169659
0.0309844
0.0825164
0.000368456
0.000147818
0.000144728
0.068464
0.000148068
0.000148086
0.000159274
0.000148154
0.0599252
0.000212247
0.000175684
0.0696208
0.000172514
0.000192357
0.000153343
0.000147759
0.000144624
0.000146385
0.024604
0.0240845
0.000247244
0.00014827
0.000144847
0.000164282
0.000147225
0.000167672
0.000154029
0.000663434
0.070451
0.00018434
0.000210519
0.000267966
0.000147889
0.000205618
0.000147669
0.033773
0.000362309
0.0432439
0.0352201
0.000152259
0.000160929
0.000890844
0.0693138
0.0450367
0.000161496
0.000183623
0.0372653
0.000148172
0.000208671
0.000243149
0.000194997
0.000148128
0.000148343
0.000168935
0.04022
0.000346097
0.000170961
0.000147964
0.000156152
0.000156138
0.0203802
0.000149529
0.000241071
0.000147289
0.00015014
0.000198666
0.000147017
0.00014798
0.000151533
0.000155552
0.000147662
0.00015016
0.000145585
0.0352287
0.000547443
0.0340957
0.000146065
0.000162916
0.000148013
0.000207334
0.000209371
0.00016136
0.000147316
0.000151674
0.00021988
0.000190963
0.000159987
0.0284139
0.000194754
0.000148099
0.000148535
0.051807
0.00154343
0.000168857
0.000145284
0.0162794
0.000148744
0.000165048
0.000145873
0.000440865
0.0544004
0.000146919
0.000149024
0.00127838
0.000147983
0.0545827
0.0252816
0.000178878
0.000149249
0.000149037
0.000145848
0.000148081
0.0106783
0.0132678
0.00018624
0.000150669
0.0424943
0.000147722
0.000147757
0.0718645
0.000147025
0.070485
0.000144559
0.000156238
0.000151172
0.000147715
0.000147214
0.000148706
0.041923
0.000150137
0.000149234
0.000172954
0.000169176
0.000147642
0.000172713
0.000162397
0.000148741
0.000182803
0.00014767
0.00016129
0.0595564
0.00019415
0.000147817
0.000225522
0.000188697
0.000179488
0.000155165
0.000179388
0.030614
0.000153736
0.000175514
0.000147655
0.000146002
0.000147881
0.000174828
0.000162635
0.000174972
0.000148194
0.000158211
0.000182527
0.0207699
0.000208513
0.000147771
0.000146545
0.000150462
0.000175414
0.000146722
0.025942
0.000147648
0.000148013
0.000146541
0.000187677
0.0679561
0.00014895
0.000152875
0.000147063
0.0001859
0.000146573
0.000148075
0.00221846
0.000149784
0.000146135
0.000148791
0.000187751
0.00014648
0.000147735
0.0649294
0.017259
0.000196904
0.000161129
0.0673334
0.000163046
0.000147637
0.000147497
0.0127987
0.000148074
0.000179522
0.00018425
0.000168481
0.000154782
0.00015027
0.00015822
0.000150386
0.000145316
0.000199429
0.0685758
0.000163509
0.000146415
0.0460206
0.000173194
0.012797
0.00728738
0.000196572
0.000148862
0.000148256
0.000148132
0.000178846
0.00014876
0.000147201
0.0779347
0.000173203
0.000174132
0.000147492
0.000170458
0.000233939
0.00014853
0.000154772
0.000161914
0.000171769
0.000180557
0.000148193
0.00015213
0.000166612
0.000146659
0.000165243
0.000149123
0.00312235
0.000174033
0.00018928
0.00014734
0.000164564
0.0699966
0.0479465
0.000336667
0.000168873
0.0224237
0.000148785
0.000147657
0.000150616
0.000180394
0.000149064
0.000151381
0.000157614
0.000179035
0.000147848
0.000147527
0.000148936
0.000149832
0.000368641
0.0182324
0.000480854
0.000147865
0.0225289
0.00015651
0.000148952
0.000164652
0.00014809
0.000181326
0.000151035
0.000147994
0.0544995
0.00809064
0.065596
0.000150305
0.0118999
0.000147994
0.0400373
0.0575414
0.000145208
0.000178656
0.000215793
0.000145322
0.000147568
0.00900322
0.000150055
0.000147965
0.000196402
0.000625662
0.000148043
0.000162286
0.000148921
0.000155526
0.000190887
0.000149037
0.0621304
0.000172057
0.000147562
0.000491625
0.000167747
0.000182337
0.000149913
0.000238231
0.00014833
0.0666921
0.000147951
0.000146596
0.0641184
0.000145781
0.0674668
0.000147599
0.000172417
0.0486524
0.0702828
0.000148131
0.000149404
0.000148027
0.000151081
0.000156812
0.00015465
0.000144317
0.0115332
0.00014724
0.000148618
0.000187685
0.000180379
0.000163558
0.000148036
0.00930334
0.000181768
0.000149875
0.000158848
0.000147694
0.000147166
0.0598366
0.000145366
0.000146642
0.000147292
0.0708392
0.000147943
0.00014718
0.0658328
0.000155622
0.0377122
0.000164913
0.000144537
0.000147038
0.00214355
0.000157971
0.000147991
0.0577186
0.0416026
0.000146467
0.0430382
0.000188526
0.000148614
0.000148466
0.000191466
0.000149434
0.0260972
0.000159927
0.000148072
0.000713964
0.0367987
0.000207161
0.000147611
0.0277645
0.000157758
0.000187671
0.00388294
0.000147754
0.0234225
0.00014791
0.000157555
0.000158129
0.0674522
0.000145697
0.000150415
0.0265917
0.000149806
0.000158998
0.000145738
0.000148615
0.0375789
0.000179881
0.000153509
0.000164086
0.000553964
0.000149343
0.000151973
0.000173844
0.000191176
0.00015641
0.000147954
0.000147538
0.000148907
0.000150398
0.000146828
0.000159721
0.000156801
0.000520325
0.000147896
0.00836029
0.000148041
0.00016083
0.000147726
0.000160857
0.000148608
0.000147725
0.0373341
0.0590498
0.000153087
0.000148535
0.0416901
0.000156843
0.064446
0.000159423
0.000165651
0.038958
0.00965726
0.0534312
0.000152228
0.000148928
0.000146545
0.0489026
0.000147337
0.000147989
0.000174428
0.000147278
0.000149189
0.000148299
0.0174672
0.000600978
0.000149157
0.000425777
0.0685673
0.00015374
0.000147414
0.000148992
0.0644401
0.000147321
0.000194527
0.000149915
0.000147726
0.000149248
0.000146386
0.00018161
0.000148634
0.000148359
0.000147303
0.000145446
0.000251172
0.000145232
0.000147508
0.000149383
0.000148018
0.000210813
0.0156156
0.000167498
0.00014985
0.000148407
0.00014924
0.000149463
0.0474795
0.000147999
0.000159097
0.000166902
0.0440427
0.00014754
0.000147422
0.0566772
0.000148742
0.000175711
0.000180005
0.000149962
0.0602955
0.0610475
0.000157302
0.0159227
0.000158835
0.000195861
0.000144715
0.0065744
0.000148195
0.0019301
0.000148213
0.000147218
0.000789363
0.000284806
0.000204645
0.000171527
0.000147381
0.0572353
0.000149125
0.0720039
0.000174449
0.000147372
0.000144785
0.000148601
0.000171286
0.00016675
0.065942
0.000170456
0.000147652
0.000147401
0.000148583
0.0223027
0.000179275
0.000159335
0.000148895
0.000147391
0.000160679
0.000218607
0.000148716
0.00015945
0.000165526
0.00014798
0.000153528
0.000150916
0.000175216
0.000175082
0.000153605
0.000166553
0.000145792
0.000147954
0.0286141
0.000165841
0.000181606
0.000740736
0.000145346
0.0261028
0.00215034
0.000162966
0.0716936
0.000147706
0.0621487
0.067122
0.000189756
0.000146451
0.0836079
0.00019206
0.000147812
0.000167786
0.0487997
0.000150014
0.000147681
0.000164854
0.000149791
0.0255596
0.000157639
0.000149182
0.00014987
0.000147245
0.000165187
0.000166124
0.0261371
0.000189257
0.0370179
0.000174402
0.000149716
0.000147724
0.000251826
0.0280397
0.000148039
0.00014768
0.00019069
0.000149345
0.000212995
0.0649684
0.0232594
0.000148047
0.000148272
0.0740537
0.000146538
0.0685212
0.00022023
0.000147004
0.066378
0.000174492
0.000167834
0.000147833
0.00634407
0.000148086
0.000370647
0.000144455
0.000172515
0.000151731
0.000145879
0.0724662
0.000151323
0.000148238
0.000152167
0.0365313
0.000148428
0.000145192
0.0310708
0.000147729
0.0001469
0.000148728
0.000156512
0.000148284
0.000149177
0.000156151
0.000149137
0.000154496
0.000145728
0.000187978
0.0282229
0.000172996
0.0373217
0.000160347
0.000154525
0.000147422
0.000146742
0.0001492
0.0275462
0.0425302
0.000147954
0.000149837
0.000147539
0.0262198
0.000145134
0.000215226
0.000823965
0.0629667
0.0670526
0.0275109
0.0402763
0.000146863
0.0638
0.0383772
0.0607709
0.000154734
0.000148929
0.000172278
0.000145722
0.0530998
0.000190035
0.000175488
0.000157044
0.0276121
0.000147959
0.000144328
0.0667013
0.000191527
0.000148059
0.000144571
0.000173085
0.000148717
0.0339078
0.0116475
0.0330692
0.0499543
0.000183386
0.000566127
0.000148038
0.000210987
0.000148652
0.000147947
0.000146748
0.0345166
0.000148868
0.000147313
0.000604827
0.0379303
0.000205599
0.0001925
0.000150878
0.000165328
0.0240635
0.0205355
0.0628187
0.041324
0.000171738
0.0674741
0.00018087
0.000290215
0.000172852
0.00017192
0.000147443
0.000160862
0.00016545
0.000148217
0.0569795
0.000146987
0.000148026
0.0001479
0.0716046
0.000153953
0.000146622
0.00014719
0.000147926
0.000176669
0.000169705
0.000526398
0.000151308
0.030396
0.000144609
0.000147728
0.000181858
0.000167062
0.00014442
0.0608029
0.000170386
0.0615348
0.000147764
0.031503
0.000166741
0.000147689
0.000148292
0.00014804
0.0362347
0.0657254
0.0152074
0.000147728
0.000149023
0.000145005
0.0622197
0.000156387
0.000148317
0.000312057
0.000147932
0.00015026
0.0420373
0.000146264
0.000147834
0.000148354
0.000150025
0.000144597
0.000150622
0.000144491
0.000149154
0.000182969
0.000166429
0.000146777
0.0223191
0.000153244
0.0670093
0.0189607
0.000165408
0.0619872
0.0620957
0.000147276
0.00017089
0.000148045
0.000147228
0.00173875
0.000154729
0.0553051
0.000155248
0.000196904
0.00014861
0.000151087
0.000147319
0.0642757
0.000161832
0.0386656
0.000149163
0.000187286
0.000161128
0.000146502
0.000166995
0.000169602
0.000145007
0.0686365
0.000148572
0.000170464
0.000147901
0.000157549
0.000167006
0.000201649
0.000155143
0.000183044
0.00530442
0.000160842
0.00017119
0.000146146
0.0733134
0.000173325
0.000149793
0.00017565
0.00251747
0.0152608
0.000147942
0.000151288
0.000149079
0.000145686
0.000147982
0.0465835
0.000160067
0.000148436
0.0240087
0.000148681
0.000145099
0.000154286
0.0672601
0.000149022
0.0227676
0.0582014
0.000169992
0.0291122
0.000150981
0.0624313
0.000288481
0.000145167
0.000160967
0.000148479
0.000150241
0.000168296
0.014093
0.000178353
0.000401057
0.000200703
0.000147715
0.059748
0.000147284
0.0632302
0.000149771
0.0428231
0.0510737
0.000149006
0.000147127
0.000149846
0.000164645
0.000181899
0.000147629
0.016686
0.000152134
0.000172652
0.000173716
0.00015126
0.000147352
0.0230588
0.000146571
0.000203826
0.000157287
0.012123
0.000148763
0.000147649
0.0611117
0.00014423
0.00014623
0.000150253
0.000173531
0.000173398
0.00020981
0.000152534
0.00014642
0.000155403
0.000149578
0.000149669
0.0670704
0.000147539
0.000166949
0.0713923
0.000199802
0.00014788
0.000181823
0.000147811
0.000149338
0.000188028
0.000208268
0.000182077
0.000149559
0.000147858
0.000152938
0.000184343
0.000147653
0.000163232
0.000147698
0.000149307
0.000146823
0.000149024
0.0632918
0.000144782
0.072279
0.000423089
0.000154284
0.000145858
0.0645376
0.0552318
0.000147148
0.00014784
0.0770728
0.000149139
0.000164783
0.000183222
0.000634686
0.00014742
0.000150316
0.000170571
0.000147866
0.0756376
0.000199855
0.000147305
0.000159371
0.000164467
0.000148487
0.000186067
0.000148959
0.000163361
0.00015083
0.000154529
0.00014459
0.000147696
0.000211083
0.000147996
0.0762948
0.000184152
0.000148365
0.000148313
0.000147723
0.000147363
0.0648501
0.000149796
0.000195048
0.000147251
0.000147186
0.000172678
0.0707095
0.000146311
0.00014487
0.000147955
0.00014989
0.000160151
0.000160487
0.0273087
0.000161566
0.000146765
0.000194046
0.0653617
0.000149011
0.000162241
0.0404321
0.000164741
0.000149713
0.00311225
0.000144642
0.0277512
0.000173359
0.000148314
0.000186277
0.000147721
0.000147732
0.000148379
0.0546848
0.000148454
0.0072703
0.0646191
0.000339675
0.000162567
0.000147589
0.0640458
0.000149839
0.012961
0.000146346
0.0002668
0.000154002
0.00019001
0.000150071
0.0162668
0.000160123
0.00014945
0.0376042
0.0325487
0.00014489
0.0124277
0.000147754
0.000159264
0.000146942
0.00782562
0.000295859
0.000149138
0.000148249
0.06321
0.000185855
0.00014688
0.000151375
0.00014805
0.000146539
0.000146034
0.000152167
0.0264118
0.0294832
0.000149545
0.000178146
0.000153718
0.000183972
0.000147848
0.00802339
0.0368008
0.0233951
0.000150248
0.0719723
0.027306
0.000153233
0.000161001
0.000147394
0.000179665
0.0350848
0.000149429
0.000146018
0.000146401
0.000158065
0.000145029
0.000147868
0.000404514
0.000150801
0.000180251
0.000148493
0.000147646
0.000153676
0.000148145
0.000198625
0.0793199
0.000146384
0.000172048
0.000144947
0.0660278
0.000147316
0.000152431
0.0340158
0.000186453
0.00015427
0.0116162
0.000186289
0.000148341
0.000168165
0.000148706
0.000164583
0.000149525
0.00014738
0.000194345
0.000187891
0.0497652
0.000191761
0.000158739
0.00527918
0.000152786
0.000168741
0.000151232
0.0668045
0.0594514
0.0146696
0.000147907
0.000144489
0.0287427
0.0404143
0.000148787
0.0638508
0.00014885
0.000156924
0.000144349
0.000147779
0.000147661
0.000147382
0.000205052
0.000161105
0.000164203
0.000148044
0.000148053
0.000145336
0.000146699
0.000146588
0.000149727
0.000147462
0.0522198
0.0406116
0.0453281
0.000152161
0.033726
0.00017427
0.0768851
0.0310024
0.000174127
0.000148651
0.000149175
0.000181216
0.000149406
0.0554588
0.024171
0.000150196
0.000145757
0.000163859
0.0454525
0.000147821
0.0786687
0.000148099
0.000148567
0.0803619
0.000147714
0.00015619
0.000149026
0.0418658
0.000145872
0.000147966
0.000206153
0.000145772
0.000148259
0.000147587
0.00014578
0.000165617
0.000147658
0.00971668
0.000147991
0.000149398
0.000144511
0.0265263
0.00016207
0.000148918
0.0683101
0.000148464
0.000145603
0.000216238
0.000437374
0.000148752
0.0811856
0.0707185
0.000156477
0.0410438
0.000148638
0.000148337
0.000192675
0.000146295
0.0507395
0.0426657
0.000144408
0.000157935
0.000147548
0.0183331
0.00558287
0.000171564
0.000148889
0.000298342
0.000159579
0.000173511
0.000156807
0.000148049
0.00015074
0.00014767
0.000146687
0.0633003
0.000144062
0.000146688
0.000168943
0.0103601
0.000183415
0.0826524
0.000147944
0.000161945
0.000147936
0.000148683
0.000148695
0.000146357
0.000148951
0.000147517
0.00014857
0.000149075
0.000154479
0.000148026
0.000149279
0.000145809
0.0190202
0.0830298
0.000149522
0.000151248
0.0680822
0.000149346
0.000196025
0.0369365
0.00164411
0.0788461
0.00026147
0.0781264
0.00691724
0.0278437
0.00014764
0.00016044
0.000147505
0.000169172
0.000154217
0.00014945
0.000147212
0.0242605
0.000145883
0.00015671
0.0811241
0.000145595
0.000146882
0.00017445
0.000145808
0.000147632
0.000147512
0.000149642
0.0453455
0.0203286
0.000148087
0.000147991
0.000148264
0.000150424
0.000161741
0.000150703
0.00449583
0.000196009
0.000149243
0.0590302
0.000163753
0.000147909
0.0479274
0.000145711
0.000180444
0.000146343
0.000149539
0.000149388
0.0469947
0.000148011
0.000147572
0.000153715
0.000149763
0.000160873
0.000146896
0.0171171
0.000166629
0.000162511
0.0103135
0.074693
0.000190309
0.000164881
0.063079
0.000148206
0.000147853
0.000155679
0.0466603
0.000180964
0.00016852
0.0246395
0.000147664
0.00121626
0.000203689
0.000658126
0.00014797
0.000159821
0.000147395
0.000188572
0.000158217
0.000274107
0.0747461
0.000147936
0.00016385
0.000155901
0.000148073
0.000330516
0.000148026
0.000163309
0.000175988
0.000181151
0.000148011
0.000149962
0.000149483
0.00017301
0.000147474
0.000149684
0.000147977
0.000148398
0.0001463
0.000160657
0.000144676
0.00032178
0.0481533
0.000149708
0.000146489
0.000145506
0.000163336
0.000159268
0.000148753
0.0339711
0.000162686
0.000146454
0.000146563
0.0666057
0.0490418
0.000147395
0.000202879
0.000158995
0.000147911
0.0238268
0.000154735
0.000175667
0.00014952
0.0381023
0.073489
0.000149681
0.000165797
0.0398102
0.000162593
0.0192924
0.00014956
0.00015388
0.050975
0.0570686
0.000155574
0.000153676
0.000149817
0.000152625
0.000151792
0.0308043
0.0484119
0.0651062
0.000153416
0.000148032
0.000177559
0.000147673
0.000207013
0.000153898
0.0245274
0.000145854
0.000149196
0.000147341
0.000148313
0.000146809
0.00018331
0.0589078
0.000157761
0.000145393
0.000148591
0.0160963
0.000151701
0.000152418
0.000148956
0.000165505
0.0503904
0.000145808
0.000147625
0.000169098
0.000182201
0.000148661
0.000169396
0.000149398
0.000151956
0.000196979
0.000156386
0.0607589
0.000388714
0.000163287
0.0631606
0.000146889
0.000147629
0.000151147
0.0802628
0.000151077
0.00345544
0.000145859
0.0419743
0.000165419
0.0001473
0.000160045
0.000149143
0.0668007
0.000173558
0.00016108
0.000199267
0.000191012
0.000148934
0.00014929
0.000149487
0.000155145
0.0425491
0.000178514
0.000148588
0.000201994
0.000148118
0.079933
0.000148018
0.0733476
0.000160276
0.0816887
0.000317705
0.000165988
0.000148093
0.000147986
0.000146966
0.0742023
0.00014887
0.000176883
0.00597621
0.000144591
0.0258522
0.000158743
0.000147991
0.000188837
0.000147292
0.000148023
0.0381299
0.00788448
0.030552
0.000147639
0.000146355
0.000150222
0.000154544
0.000151439
0.000148421
0.0392223
0.000188763
0.0213974
0.000150462
0.000163774
0.000608232
0.000234298
0.000157385
0.000146529
0.0249209
0.000150733
0.0451407
0.000147609
0.000148024
0.000147903
0.000146339
0.00014458
0.000149909
0.000146394
0.000159703
0.0491856
0.000165483
0.045308
0.00015346
0.000149346
0.000148743
0.000201237
0.000148076
0.000150437
0.000148141
0.033776
0.00922238
0.000146371
0.000153669
0.000147331
0.000147941
0.000149842
0.000148281
0.000147624
0.000295901
0.000149098
0.000147275
0.000189607
0.00014693
0.0376898
0.000184911
0.000192266
0.000201382
0.000154105
0.000148402
0.0679323
0.000148526
0.000189009
0.000162242
0.000146748
0.000169012
0.000148301
0.0783998
0.000145613
0.000147558
0.0707492
0.000173785
0.0225872
0.000146155
0.000184468
0.000191012
0.000158359
0.0626243
0.000147034
0.000146434
0.000145708
0.00017192
0.000150356
0.000378224
0.000147895
0.00017084
0.0461617
0.000202547
0.000147995
0.000240975
0.000153529
0.0285248
0.000151488
0.000153083
0.000153867
0.0465247
0.000147949
0.000149853
0.0635683
0.000145623
0.00015442
0.000147108
0.000161969
0.0674334
0.0401885
0.00014749
0.000169731
0.000147913
0.000235659
0.000148032
0.000149673
0.00019293
0.00889306
0.000162531
0.000147802
0.000153867
0.0107883
0.000172161
0.000183305
0.0726275
0.000147989
0.0248831
0.00015766
0.000193209
0.0001478
0.000155074
0.0734521
0.000153646
0.000147344
0.000214083
0.0281331
0.0733829
0.000145955
0.0592439
0.000581119
0.000146419
0.000192407
0.0227747
0.000149841
0.000151758
0.0382393
0.000144462
0.000149415
0.000146678
0.000148596
0.000188226
0.000182217
0.000168255
0.0388852
0.00014979
0.000163636
0.000156553
0.000148913
0.000151143
0.000167873
0.000148074
0.000149473
0.0687003
0.0449182
0.024741
0.000146416
0.000166365
0.000148828
0.053109
0.000148526
0.000167206
0.0524914
0.0189492
0.000165407
0.00014845
0.00254711
0.0419496
0.000344697
0.000147848
0.000148749
0.000146877
0.0755503
0.00016625
0.000193855
0.0780052
0.000148443
0.00014935
0.0407233
0.000156114
0.00018118
0.000149105
0.00014756
0.00014804
0.000558489
0.000148479
0.000178395
0.000147078
0.000148643
0.000146446
0.0483747
0.042253
0.000151913
0.000228947
0.000150939
0.000328496
0.00014752
0.000147335
0.000184787
0.000148636
0.000147698
0.00015359
0.000174869
0.000160695
0.000187463
0.000148264
0.000179522
0.0672625
0.000148741
0.000149322
0.000148468
0.064745
0.000165839
0.000162284
0.000184739
0.000146844
0.000148206
0.000174063
0.000157136
0.00436284
0.0839014
0.000162056
0.048213
0.013744
0.0399052
0.000176371
0.000149239
0.000147834
0.000209252
0.06497
0.000147158
0.000162017
0.036724
0.00014861
0.000202792
0.000375719
0.000192406
0.000147751
0.000193082
0.000148872
0.000148601
0.000146552
0.000210217
0.000148786
0.00018139
0.00017076
0.000147715
0.000149171
0.0161417
0.000147188
0.000145237
0.000173117
0.000566519
0.000168352
0.000147987
0.000163098
0.0133062
0.0639831
0.000159852
0.0319106
0.000187144
0.000178886
0.00016835
0.000149141
0.000173104
0.000157912
0.000145837
0.000146983
0.000149269
0.000157072
0.000212613
0.0446989
0.000149405
0.0142678
0.000173897
0.000906338
0.0480301
0.000209773
0.0522949
0.000191683
0.0464746
0.000171808
0.0456897
0.000178834
0.000147974
0.000148547
0.0818854
0.0631877
0.000189634
0.0512052
0.000147018
0.0417314
0.0448109
0.000148083
0.000145369
0.000163782
0.000177358
0.0378275
0.0246248
0.000179935
0.000146931
0.000147401
0.000149402
0.0765626
0.000153619
0.0592104
0.000155227
0.0496644
0.000200485
0.0388662
0.00015929
0.0668676
0.000146672
0.000145187
0.000154296
0.000149031
0.0640806
0.000189248
0.0537033
0.000148589
0.0358728
0.0588179