/*--------------------------------*- C++ -*----------------------------------*\
| =========                 |                                                 |
| \\      /  F ield         | OpenFOAM: The Open Source CFD Toolbox           |
|  \\    /   O peration     | Version:  v2012                                 |
|   \\  /    A nd           | Website:  www.openfoam.com                      |
|    \\/     M anipulation  |                                                 |
\*---------------------------------------------------------------------------*/
FoamFile
{
    version     2.0;
    format      ascii;
    class       volVectorField;
    location    "900";
    object      U;
}
// * * * * * * * * * * * * * * * * * * * * * * * * * * * * * * * * * * * * * //

dimensions      [0 1 -1 0 0 0 0];


internalField   nonuniform List<vector> 
18758
(
(1.09926 -0.310546 2.76407e-20)
(1.29268 0.0296119 -7.5405e-20)
(1.01518 -0.000106692 7.38425e-23)
(0.370493 -0.0612202 7.5222e-21)
(0.249791 0.049681 -6.21121e-21)
(0.227491 0.0736913 8.13092e-20)
(-0.230619 -0.0104852 1.51914e-19)
(1.01239 -0.00497106 0)
(1.18971 0.0398127 0)
(1.01883 -0.105992 -1.10893e-21)
(1.05774 -0.0392112 1.30555e-20)
(0.150963 -0.0564146 0)
(1.00218 -0.000353768 -3.33846e-21)
(1.16224 0.0966973 4.46126e-20)
(1.0467 0.013169 6.299e-21)
(0.589057 -0.503953 6.46944e-20)
(1.11465 0.0176446 -1.48149e-20)
(1.00433 -0.00730833 -3.28337e-21)
(1.03791 -0.00381146 -3.17542e-21)
(1.02871 -0.12546 1.26743e-21)
(0.0497735 0.00717371 0)
(1.00002 -0.000599556 3.75093e-21)
(-0.0585694 -0.0291497 -2.67229e-20)
(1.17671 0.0541195 2.37727e-20)
(1.3544 -0.120132 0)
(1.01206 -0.00481994 0)
(0.784333 -0.686796 0)
(0.20901 0.0545312 1.63634e-20)
(0.964816 0.0456404 0)
(1.0749 -0.712143 1.00131e-19)
(1.12815 0.0565322 -2.38979e-20)
(0.114167 0.0067406 -2.21929e-21)
(1.00041 -0.000145057 1.52687e-22)
(1.053 -0.0101529 -6.82676e-21)
(1.15683 0.0531201 0)
(0.999283 -0.00258867 3.95973e-23)
(1.00016 -0.000198727 0)
(1.03553 -0.0211132 -2.32281e-21)
(1.04213 -0.0239216 8.61482e-21)
(1.12111 0.013902 7.70253e-21)
(1.03628 -0.0194706 0)
(0.939636 -0.0814321 7.77359e-21)
(1.02205 -0.00644924 -5.92945e-22)
(0.977637 -0.0940659 -1.02914e-20)
(1.20491 -0.516895 0)
(1.01331 -0.00128611 1.44027e-22)
(-0.0801003 -0.0270383 0)
(1.05188 -0.0532051 0)
(1.01659 -0.103538 9.72731e-22)
(1.02153 -0.00476714 -8.26632e-22)
(1.22854 -0.133089 -8.59309e-20)
(0.363901 0.032945 -2.49324e-20)
(1.01565 -0.00155361 -1.86576e-22)
(1.05617 -0.0378975 2.3803e-21)
(0.176806 0.0507793 -4.81664e-20)
(1.23909 -0.22541 0)
(1.00021 -0.000229755 -2.49134e-21)
(0.517988 -0.342334 1.16756e-19)
(0.994214 -0.0242782 8.10859e-21)
(1.16733 0.093288 3.1337e-20)
(1.11819 -0.26528 6.08298e-22)
(-0.215923 -0.0141279 -2.06239e-19)
(1.17874 0.0148886 -1.19923e-20)
(0.970928 -0.0477688 0)
(1.01549 -0.00162003 -3.03565e-22)
(0.994284 -0.00569317 -1.6923e-21)
(1.12 0.0192386 4.41587e-20)
(1.00047 -0.000191033 -1.55222e-21)
(1.03348 -0.0191371 -2.81196e-21)
(0.348333 0.0323962 4.36649e-20)
(0.280577 0.0275466 -1.13197e-20)
(0.972064 -0.0291765 0)
(1.0219 -0.00508976 8.75472e-22)
(-0.0257886 -0.0751303 -2.61465e-20)
(1.01753 -0.00784473 0)
(0.99592 -0.0249739 1.05548e-20)
(1.16961 0.0445962 2.29797e-22)
(0.254606 0.0419578 5.45758e-20)
(0.906194 -0.331692 0)
(-0.0943853 -0.0337932 -3.58652e-20)
(0.0254006 -0.0101628 -1.31338e-20)
(1.26745 -0.486287 5.56936e-20)
(1.16802 0.0902846 -2.01334e-20)
(0.184295 0.0707753 -2.10627e-21)
(1.16875 0.0450849 1.85667e-20)
(1.09848 -0.0250803 -3.64535e-20)
(0.505827 -0.187588 1.17841e-20)
(1.17898 0.0131925 -3.23472e-22)
(-0.063994 -0.0322917 8.56028e-20)
(0.996494 -0.0255853 -8.59526e-21)
(0.13716 0.0660053 5.50764e-20)
(0.993781 -0.0237707 -8.27959e-21)
(0.105069 -0.0717305 0)
(0.93728 -0.0850594 1.63699e-20)
(0.029516 -0.00557658 0)
(0.0629382 -0.057964 -1.75286e-20)
(1.16813 0.0452523 -2.7828e-20)
(1.01799 -0.00808922 2.80438e-22)
(1.00258 -0.0183945 5.34457e-21)
(0.0678821 0.00852913 7.51787e-23)
(1.04019 -0.128847 5.48109e-21)
(0.0752664 0.0579953 0)
(1.15075 0.0322956 0)
(1.1221 -0.124932 1.22802e-20)
(0.0891439 0.00489609 2.3508e-21)
(1.093 -0.683685 -9.05713e-20)
(0.948766 0.0510592 1.77621e-20)
(0.278036 0.0454151 -4.81969e-20)
(1.04474 -0.0341837 2.5156e-21)
(0.964834 -0.0151133 -1.30393e-20)
(0.132144 -0.0713198 0)
(0.458963 -0.651247 -6.21951e-20)
(1.01069 -0.00552093 -2.18837e-21)
(1.01051 -0.0369778 1.18148e-21)
(0.833512 0.0842338 3.78328e-22)
(-0.29004 0.00921752 -1.19807e-19)
(-0.176006 0.0145881 4.05383e-20)
(1.04617 0.0139834 6.23679e-21)
(0.0162269 -0.0422171 -2.70009e-20)
(-0.00136515 -0.00202219 -1.38482e-20)
(1.11906 -0.0512494 1.40777e-20)
(0.987883 -0.0117994 -5.53448e-21)
(0.599982 -0.0421708 4.39618e-20)
(0.638255 -0.64906 0)
(1.19025 -0.399125 9.75383e-21)
(1.20437 -0.496492 2.61021e-20)
(1.30366 0.0234273 4.84904e-20)
(1.19378 0.0559148 -2.66239e-20)
(0.0530809 -0.056323 2.98851e-20)
(1.0035 -0.00012322 -4.61573e-22)
(1.11637 0.0187074 1.75428e-20)
(0.814141 -0.666956 9.8524e-21)
(0.0152142 0.004704 4.59472e-20)
(0.933092 -0.222768 -8.3049e-21)
(0.207928 -0.70122 0)
(0.970888 -0.0669078 0)
(1.16976 0.0441493 0)
(1.12339 0.0147495 8.31516e-21)
(1.00299 -0.0183694 5.44465e-21)
(0.78484 -0.268233 4.12989e-20)
(0.891062 -0.327428 0)
(0.951386 -0.463629 -3.70823e-21)
(1.00528 -0.0326539 0)
(1.09193 -0.196141 7.33838e-20)
(1.03707 -0.0191553 0)
(1.0396 -0.0013664 0)
(-0.0175479 0.00909125 1.43133e-20)
(0.117148 -0.00555055 0)
(1.12603 0.0576127 1.0358e-20)
(0.739316 0.0747157 0)
(1.28053 -0.472316 -6.85404e-20)
(1.12343 0.0455641 0)
(1.09838 -0.0295802 2.71606e-23)
(0.999958 -0.000564576 -7.16159e-21)
(-0.0929202 -0.0113086 0)
(1.08871 -0.0438837 -1.21124e-20)
(-0.0184456 -0.0413986 5.67919e-20)
(1.0512 -0.0551075 0)
(0.992176 -0.0392353 0)
(1 -0.000206122 -4.37147e-21)
(1.0114 -0.0135719 0)
(1.16749 0.0854123 -3.23588e-20)
(0.148032 -0.0976674 0)
(0.993427 -0.0389638 0)
(1.11942 -0.260259 -2.51391e-20)
(0.877522 0.0532127 0)
(1.03935 -0.00552096 5.08838e-23)
(0.502052 -0.0644824 -8.84705e-20)
(1.22451 -0.252369 -6.30592e-20)
(0.269533 0.0767107 5.35211e-20)
(-0.210101 0.0169725 1.10988e-20)
(1.00426 -0.00747935 2.02024e-21)
(0.160087 -0.0895321 0)
(0.218978 0.0527679 2.99093e-20)
(1.16712 0.0834881 2.18179e-20)
(1.1769 0.0527931 -2.83035e-21)
(0.795069 0.0746168 1.02982e-19)
(0.969953 -0.0493845 0)
(0.799754 -0.265803 -3.11553e-20)
(1.03267 -0.0304747 2.02241e-21)
(1.00908 -0.00527427 0)
(-0.226953 0.0023151 -6.10071e-20)
(1.15416 0.0447966 -2.5838e-21)
(1.02652 -0.00442995 -3.73607e-21)
(1.07131 0.00496455 9.76117e-21)
(1.17486 0.0446129 0)
(0.997862 -0.0196159 -6.81381e-21)
(-0.276709 0.0117126 1.57195e-19)
(1.02083 -0.00565812 -8.17617e-22)
(0.995788 -0.0174753 0)
(0.939479 -0.227047 1.49758e-20)
(1.19417 0.0542038 -2.40302e-20)
(1.01306 -0.0489337 0)
(1.1242 0.0560513 0)
(0.976863 -0.153643 2.03237e-21)
(1.18184 0.0119779 1.34829e-20)
(1.03204 -0.128056 0)
(1.23449 -0.251641 2.60775e-20)
(1.00067 -0.00248765 -1.40621e-21)
(1.02172 -0.00608444 -1.74992e-21)
(0.752005 -0.217828 0)
(1.04907 -0.055181 -7.38162e-21)
(1.07579 -0.129692 1.82578e-20)
(1.17138 -0.00229234 0)
(1.0022 -0.000532756 3.65033e-21)
(0.978799 -0.149743 -3.70274e-21)
(1.15457 0.029488 -4.96306e-20)
(0.999963 -0.00043694 6.34517e-21)
(0.0578728 0.00718587 -1.97926e-20)
(1.01246 -0.10457 0)
(1.00473 -0.00733272 6.66461e-21)
(1.12638 -0.128052 1.34737e-20)
(0.994669 -0.0413219 2.54287e-22)
(1.0839 -0.118582 -1.40299e-20)
(0.864501 -0.297378 0)
(0.0354249 -0.0233392 0)
(0.8619 -0.31003 0)
(0.533 -0.448475 5.09377e-20)
(1.01582 -0.00430653 -2.40834e-22)
(0.252364 0.073807 -5.28778e-20)
(1.00462 -0.00750503 -1.70275e-21)
(1.04445 -0.0355838 -1.62164e-21)
(1.16625 0.0465698 -5.52648e-20)
(-0.000668003 0.0104471 0)
(1.27429 -0.159297 1.00271e-20)
(1.15277 0.0298617 4.71228e-20)
(1.15856 -0.0537982 0)
(0.987278 -0.2144 0)
(1.02566 -0.00203268 1.03035e-21)
(1.17468 -0.00642658 0)
(0.993975 -0.00584931 1.30186e-20)
(1.18229 0.0100553 0)
(-0.0837078 -0.0255148 -3.59703e-21)
(1.16808 0.0457867 4.61255e-20)
(1.002 -0.000272241 -7.76528e-23)
(0.997657 -0.0189296 9.47375e-21)
(1.02548 -0.00230518 -1.83518e-21)
(1.01283 -0.0015542 -2.99431e-22)
(0.681447 -0.0586241 0)
(1.10005 -0.0957906 1.35566e-20)
(1.00926 -0.0133358 1.12231e-21)
(1.29828 -0.272523 -4.83938e-20)
(0.923819 0.0510957 0)
(1.05648 -0.0211093 0)
(0.788244 0.0787204 -1.32052e-20)
(-0.0271922 -0.0148631 1.10064e-19)
(1.16775 0.0459466 -4.47757e-20)
(0.999379 -0.00235998 5.59524e-21)
(0.0257597 -0.00684031 1.45335e-19)
(0.89721 -0.0813725 0)
(0.999131 -0.00327179 2.04821e-21)
(0.445735 -0.0533449 6.32216e-20)
(1.0997 -0.0236762 4.18574e-20)
(0.897196 -0.0872235 0)
(1.04436 0.00733053 -1.24291e-20)
(1.12601 -0.0549113 -1.87632e-20)
(1.16987 0.0483279 -1.86414e-20)
(0.494488 -0.440454 -6.6057e-20)
(1.07988 -0.117529 1.20216e-20)
(0.933518 -0.32472 2.11766e-22)
(1.02863 0.00326955 2.97208e-21)
(1.14693 0.0238234 0)
(0.999664 -0.00832138 0)
(1.16902 -0.00145889 -1.00473e-20)
(1.0104 -0.10168 -1.24609e-21)
(1.16601 0.047046 -3.14801e-20)
(-0.353921 -0.00345828 -1.87966e-20)
(1.01553 -0.00418052 -3.31874e-23)
(1.04394 -0.0318606 2.62971e-21)
(1.04234 -0.486741 2.23815e-20)
(1.0428 -0.0309566 2.32621e-21)
(1.07014 0.00416422 -8.40201e-21)
(1.17166 -0.00570344 0)
(0.731733 0.026969 1.56076e-20)
(-0.189585 0.0111326 0)
(1.00337 -0.0316889 0)
(1.21849 -0.120604 3.22341e-20)
(0.0106146 -0.0225783 -1.32827e-22)
(1.24758 -0.486506 0)
(1.01084 -0.0536878 1.77228e-21)
(1.03043 -0.00745788 -1.4556e-21)
(1.08104 -0.0728735 1.63001e-20)
(1.10241 -0.0937418 3.94444e-20)
(1.00505 -0.0319528 0)
(0.0229824 -0.0536912 -1.28607e-20)
(1.28744 -0.26521 -1.75196e-19)
(0.852777 0.0654246 4.28579e-20)
(-0.0112119 0.00420031 -5.06037e-20)
(-0.0583519 -0.0293996 -3.32685e-21)
(1.02488 -0.00426615 1.51475e-21)
(1.01525 -7.29238e-05 0)
(0.992055 -0.231753 0)
(0.101767 -0.0256215 -9.99876e-20)
(0.922523 -0.0472781 -1.02694e-20)
(0.918517 -0.321129 -9.65887e-21)
(1.1945 -0.0121839 -6.02657e-20)
(1.07572 -0.0791961 0)
(-0.0083698 -0.00792659 -6.1327e-20)
(1.0371 -0.00414957 -7.24858e-22)
(1.10709 0.0888837 1.30105e-23)
(0.206633 0.0720612 5.64646e-20)
(1.01311 -0.00133389 0)
(0.360999 0.0244715 0)
(0.964792 -0.172444 -1.00049e-20)
(1.03439 -0.0195006 -2.1898e-21)
(1.0718 -0.110564 1.31692e-20)
(1.18973 -0.0503459 0)
(1.05062 0.00479039 1.05865e-21)
(0.999188 -0.003091 0)
(-0.277235 -0.0106238 1.79437e-20)
(0.90893 0.0761445 -1.99653e-20)
(1.00218 -0.0134139 3.97315e-21)
(-0.280641 -0.00563164 1.29756e-19)
(-0.00460461 -0.00543994 -1.03676e-19)
(1.26786 -0.15558 2.82842e-20)
(0.998285 -0.00868144 -8.6236e-22)
(1.00222 -7.3111e-05 -9.78353e-22)
(1.06959 0.059942 -1.67514e-20)
(1.05552 -0.0219665 0)
(1.02592 -0.00447229 6.17411e-21)
(1.03111 -0.00893538 -2.11943e-21)
(0.946903 -0.0181372 0)
(1.22159 -0.261677 0)
(1.19329 -0.0525756 0)
(1.0791 -0.0742078 9.78254e-22)
(1.09623 -0.0947051 -7.69957e-21)
(1.02451 -0.127669 5.99348e-22)
(0.948792 -0.227639 -1.66234e-20)
(1.02827 0.00281086 0)
(0.999989 -0.000423543 -4.37195e-21)
(1.19044 0.0558733 0)
(1.07706 -0.207954 2.18166e-20)
(1.22509 -0.120288 1.08239e-21)
(0.366417 -0.0679318 1.89501e-20)
(0.91929 -0.0494945 -3.80963e-20)
(1.01369 -0.0474569 0)
(1.00552 -0.000158305 7.03866e-22)
(1.1036 0.0899477 1.50826e-20)
(0.400755 0.0271439 1.84149e-20)
(1.02596 -0.00275998 1.95113e-21)
(1.00515 -0.00735379 -6.27553e-21)
(1.02575 -0.00305002 -9.16022e-22)
(0.970318 -0.0648294 2.04833e-20)
(0.984347 -0.206685 0)
(1.33727 -0.118623 -9.70007e-20)
(0.988446 -0.0114882 2.77453e-21)
(0.968961 -0.014666 8.89717e-23)
(1.02239 -0.00414251 -1.10566e-21)
(0.601802 -0.551671 0)
(0.952776 -0.451785 0)
(1.21948 -0.00553618 6.84538e-20)
(1.14341 -0.31125 3.46039e-20)
(1.05448 -0.00362166 1.96607e-20)
(1.19853 0.0528771 1.43645e-20)
(1.08746 -0.309403 2.96116e-20)
(1.11125 -0.0759529 -1.42931e-20)
(0.890745 -0.0962648 0)
(0.102263 -0.0512569 -2.58785e-20)
(0.0292425 0.00810475 5.48609e-21)
(1.17313 0.0445423 3.39318e-20)
(1.00211 -0.00252475 1.51362e-21)
(1.03508 -0.136472 -6.74244e-21)
(1.31339 -0.0247991 3.01798e-21)
(0.66487 0.0350474 0)
(1.02287 -0.0834446 1.38884e-22)
(1.02478 -0.00466533 -1.57915e-21)
(1.15532 -0.0285961 -3.51654e-20)
(1.03851 -0.00921052 0)
(1.09886 -0.0140102 -1.04362e-20)
(1.22357 0.0400718 -1.0299e-19)
(0.237473 -0.124005 -1.60644e-20)
(1.15001 0.0698335 0)
(1.02105 -0.124656 5.18449e-22)
(-0.338721 -0.00340132 8.16543e-20)
(0.989393 -0.0256909 0)
(1.04839 -0.0569614 7.90865e-21)
(1.00346 -0.0248138 1.63902e-21)
(1.04227 -0.0250511 -3.67563e-21)
(1.15151 0.0526082 -3.38388e-20)
(1.06256 -0.0398861 6.98263e-21)
(-0.265385 -0.00999996 -1.63483e-19)
(0.908698 -0.472937 2.28944e-21)
(1.04377 0.00676984 9.78725e-21)
(1.00199 -0.0129893 3.89994e-21)
(-0.201374 0.0174725 0)
(1.14884 0.0684595 -3.8297e-21)
(1.18754 0.0399964 0)
(0.989074 -0.0249883 0)
(1.11768 0.0472747 5.02146e-21)
(1.02972 -0.00755829 0)
(0.939584 -0.0739894 0)
(0.987817 -0.0122718 0)
(1.01523 -0.00432425 3.9832e-23)
(-0.125365 0.0120352 -1.90763e-20)
(0.0657063 0.00659758 -2.40539e-20)
(1.03409 -0.775685 0)
(0.352866 -0.135922 1.03405e-19)
(1.00567 -0.000442616 2.48786e-21)
(1.17278 0.0426629 2.53002e-20)
(0.152066 0.0145267 0)
(1.12795 -0.0568987 2.09577e-20)
(1.01096 -0.00577273 1.25956e-21)
(0.393856 -0.0666279 -4.1383e-20)
(1.02952 -0.0114656 -4.75172e-23)
(1.04036 0.000682768 -3.56126e-21)
(1.00931 -0.00559068 0)
(1.15296 0.0532283 -2.14124e-20)
(0.990834 -0.0131641 -5.36811e-21)
(0.974029 -0.0929839 -3.24594e-21)
(1.1396 -0.300983 0)
(0.621732 -0.0290513 9.52114e-20)
(1.03063 -0.00859187 8.80864e-22)
(0.23581 0.0475418 7.10484e-21)
(1.13265 -0.00433407 0)
(0.998503 -0.00852109 1.91332e-21)
(1.07759 -0.00494926 -5.22616e-21)
(0.992601 -0.0253916 0)
(1.00505 -0.0075498 3.36159e-21)
(1.07358 -0.0769461 -6.87496e-21)
(1.1454 0.0183813 1.57094e-20)
(0.955345 -0.223555 1.18853e-20)
(0.0966064 0.050667 0)
(1.12211 -0.0513472 0)
(0.996504 -0.00575395 1.22842e-20)
(1.02271 -0.478123 -1.32492e-20)
(0.642164 0.0470612 -2.84045e-21)
(0.588967 0.0219858 0)
(-0.219749 0.0164774 -4.54258e-20)
(1.1492 0.0575206 0)
(1.00818 -0.0524249 0)
(1.01496 -0.00418519 1.33974e-24)
(1.00907 -0.0129298 0)
(0.993779 -0.042226 -9.31911e-21)
(1.14882 0.0725963 0)
(1.12093 0.00645186 0)
(1.09412 0.0198451 1.70672e-21)
(0.964936 -0.165778 9.01155e-21)
(1.09973 -0.0280112 8.76978e-21)
(1.16321 0.0464287 -1.69797e-20)
(1.15247 0.0318506 4.8929e-21)
(0.992504 -0.0244456 -6.49268e-21)
(1.09362 -0.092661 4.78741e-21)
(-0.0657304 -0.0363676 -9.32262e-21)
(0.990165 -0.0568936 -4.89739e-21)
(0.256729 -0.122891 0)
(1.00346 -0.000104 -3.60864e-22)
(0.996748 -0.00183034 0)
(0.144428 -0.0240913 -1.22038e-20)
(0.950375 -0.10265 0)
(1.04474 -0.0278093 2.78091e-21)
(1.16894 0.0477581 1.5089e-22)
(1.15756 0.0516859 0)
(0.996309 -0.226583 0)
(0.0470009 -0.0616704 -3.0511e-20)
(0.995213 -0.02511 7.07846e-21)
(0.988347 -0.0523474 -1.6371e-20)
(0.540526 -0.496593 -3.77996e-20)
(0.0962304 -0.0483522 8.58724e-20)
(0.868973 -0.127161 2.64216e-20)
(1.16151 -0.156798 3.77025e-20)
(1.16371 0.0996121 -1.72018e-20)
(1.17641 0.0469167 -1.65009e-20)
(-0.246759 0.00666281 -5.5802e-20)
(1.16371 0.0937927 -1.52417e-20)
(0.971425 -0.0277837 -7.39977e-22)
(1.22537 -0.0531361 0)
(1.00951 -0.0373617 2.24847e-21)
(1.15001 0.0738641 0)
(1.04153 -0.0499856 2.46853e-21)
(0.101421 -0.0656751 0)
(1.11575 0.047906 -9.34661e-21)
(1.33635 -0.0297747 -5.35246e-20)
(1.09386 0.0186096 4.37869e-21)
(1.13199 0.0611149 3.41337e-20)
(1.01305 -0.00153371 0)
(1.17828 0.0546032 -2.64092e-20)
(1.02167 -0.00540997 1.05533e-21)
(0.0131204 0.00678711 0)
(1.00319 -0.0254434 0)
(1.15075 -0.400654 -4.77953e-20)
(0.999564 -0.00727134 3.37914e-21)
(1.02514 0.0690495 1.44411e-20)
(1.10098 -0.0133702 2.15185e-20)
(1.00012 -0.00623998 -2.33631e-21)
(1.00223 -0.0177529 0)
(1.00967 -0.00557864 -1.51047e-21)
(0.780535 0.0494261 0)
(-0.0435057 0.00833101 -1.59107e-20)
(0.863287 0.0839189 9.40193e-22)
(1.11779 0.0226334 -1.52235e-20)
(1.06753 0.0043649 -8.90294e-21)
(1.19116 -0.0455592 0)
(1.00001 -0.000451035 -3.12007e-21)
(1.00001 -0.000158697 0)
(0.359991 0.0337346 -3.48479e-22)
(1.00183 -0.0178719 0)
(0.996119 -0.00307524 0)
(1.19785 -0.0139125 9.2259e-20)
(1.00222 -0.00245773 3.15395e-22)
(1.15565 -0.158388 -2.04433e-20)
(1.18832 -0.0430606 0)
(0.995915 -0.00289332 0)
(0.991055 -0.0138444 -2.45109e-21)
(0.936536 -0.0936168 -2.49211e-20)
(0.989987 -0.0550786 -9.08094e-21)
(1.09113 -0.0447211 -1.9655e-20)
(0.792921 0.0727301 5.96808e-20)
(1.07236 0.0417919 0)
(0.876812 -0.127181 -9.62978e-22)
(1.04903 -0.085506 -6.13019e-21)
(0.99667 -0.00558719 0)
(0.390561 -0.742587 -2.55317e-20)
(0.965888 -0.0197863 3.37422e-21)
(1.04256 -0.0370039 -3.00911e-21)
(0.846185 -0.771851 1.2791e-20)
(-0.268655 0.00903572 0)
(1.12997 0.060251 2.14145e-20)
(1.01618 0.0563886 0)
(1.02201 -0.0855769 -7.53678e-22)
(1.04279 -0.0359296 0)
(-0.243709 0.0134437 2.06553e-20)
(1.0386 -0.00505427 0)
(-0.151348 0.0127792 -1.22489e-20)
(1.1375 -0.393459 5.18999e-20)
(0.999863 -0.00649056 0)
(0.75066 0.0766113 -5.03965e-20)
(1.19776 0.0548304 0)
(1.1563 -0.0256309 0)
(1.00864 -0.000466765 0)
(1.0761 -0.201066 0)
(0.392705 0.0297608 -1.95355e-20)
(1.03635 -0.020722 0)
(1.03078 -0.0180009 0)
(1.04786 0.0132742 -7.28905e-21)
(1.05051 0.00391292 0)
(1.04022 -0.0015996 0)
(1.01205 -0.000767906 0)
(1.00001 -7.26818e-05 0)
(0.746122 -0.0373469 0)
(1.07496 -0.0321151 2.2468e-21)
(0.869019 0.0538621 3.47624e-20)
(0.987658 -0.00974347 -5.91837e-21)
(1.2344 -0.0580982 4.81338e-20)
(1.26661 0.0332185 7.70953e-20)
(0.999567 -0.00813129 0)
(1.02114 -0.00604097 7.7744e-22)
(1.07274 -0.036212 0)
(1.00092 -0.00275728 3.98841e-21)
(1.01171 -0.0550648 -4.36497e-21)
(0.952383 -0.0410157 -7.50223e-21)
(1.03153 -0.030845 0)
(1.1737 0.0174274 2.98924e-21)
(0.637084 -0.564934 1.50799e-20)
(1.0173 -0.00196037 7.36065e-22)
(0.383782 0.0307224 0)
(0.13272 0.0419968 1.30787e-20)
(0.865605 -0.111802 -2.64304e-20)
(1.22373 -0.0497697 0)
(0.977569 -0.774287 0)
(0.937131 -0.0768203 0)
(1.07105 0.0404197 -2.1615e-20)
(1.09233 -0.0268236 -2.47404e-20)
(0.289173 0.0304796 -1.55327e-20)
(1.07326 -0.0327023 0)
(1.1108 0.0384719 3.12039e-20)
(1.00685 -0.0350118 7.63956e-22)
(0.103387 -0.123404 0)
(1.12691 -0.0212123 -1.82032e-20)
(0.976589 -0.436563 -9.53508e-21)
(1.16643 0.0358253 -3.83385e-20)
(-0.221896 -0.0106557 4.64421e-20)
(1.07202 -0.0351194 0)
(1.0003 -0.0279988 0)
(1.1582 -0.0468567 -4.53724e-20)
(1.34752 -0.135262 -2.21658e-20)
(1.00904 -0.0539529 -2.12442e-21)
(1.18373 -0.387008 -8.97911e-21)
(0.978521 -0.0322462 -5.20589e-21)
(0.849335 0.0527137 0)
(1.01461 -0.0563013 0)
(1.02961 -0.0132804 2.70614e-21)
(1.0099 -0.0058708 -1.88743e-22)
(1.00211 -0.00187706 -4.75123e-21)
(0.153968 0.0410425 -2.20898e-20)
(0.820286 0.052726 -2.76802e-21)
(0.987693 -0.0247216 0)
(1.18271 0.0757029 0)
(0.955854 -0.125653 0)
(0.535977 0.0121414 1.44122e-20)
(-0.0250036 0.0118417 0)
(1.10121 0.062427 0)
(1.28251 0.0317496 -9.44773e-20)
(1.03478 0.0043394 3.16099e-21)
(0.249382 0.0585622 0)
(1.12209 0.0569113 0)
(1.01633 -0.0332991 5.33814e-22)
(1.12226 0.0187297 -4.61308e-20)
(0.339107 0.0316309 -1.25637e-20)
(0.106085 -0.0242053 1.39725e-20)
(1.05262 -0.0112943 -7.16713e-21)
(0.955563 -0.0120383 -6.77704e-22)
(1.01318 -0.0351954 0)
(1.01496 -0.000294774 0)
(0.116975 -9.38903e-05 2.89328e-20)
(1.17103 0.0202345 -5.66062e-21)
(0.194849 0.050956 -1.82279e-20)
(0.126551 0.0122078 -3.01696e-20)
(0.982283 -0.0222506 -8.70994e-21)
(1.00078 -0.00264165 5.60839e-21)
(1.14704 -0.00622124 4.17067e-20)
(1.00002 -0.000411792 -1.02754e-20)
(1.01119 -0.0131578 -6.72612e-22)
(0.952741 -0.0394014 1.20037e-20)
(1.04798 0.0101799 -9.4783e-22)
(1.17623 0.0174249 -1.22506e-20)
(1.12471 -0.0202598 0)
(1.23186 -0.234106 -5.38376e-20)
(0.290384 0.0438056 -1.32301e-20)
(1.16288 -0.148589 2.18329e-20)
(0.999538 -0.00705136 0)
(0.951639 -0.0989915 -9.76327e-21)
(1.21191 -0.146403 3.09222e-20)
(0.337708 0.0361688 0)
(1.1087 0.0374465 1.7297e-21)
(1.28257 -0.378348 1.4694e-19)
(1.14932 -0.0511577 -6.49996e-22)
(0.986967 -0.0252733 3.2194e-21)
(1.18029 0.0745869 0)
(0.709837 0.0469852 0)
(1.01401 -0.0501777 1.36507e-21)
(1.02648 -0.00352319 0)
(0.650011 -0.294332 0)
(0.117116 0.0638142 4.90055e-20)
(1.23778 -0.244308 0)
(1.00223 -0.00181597 5.44816e-21)
(0.0116072 0.00698027 -4.78591e-20)
(-0.00152898 0.00324444 -4.72215e-20)
(1.35386 -0.141651 0)
(1.02171 -0.00445735 -1.07529e-21)
(-0.163251 -0.0171112 -2.3344e-19)
(-0.272881 -0.00789582 1.48033e-19)
(0.451684 -0.181768 0)
(1.06292 -0.0381707 -4.12482e-21)
(0.999367 -0.000561041 -1.0005e-20)
(0.860423 0.0847096 -4.08414e-20)
(1 -5.60928e-05 1.37335e-20)
(1.16606 0.0571806 0)
(-0.127701 0.0177921 -3.21378e-20)
(1.228 0.00210406 -5.0363e-20)
(-0.207982 -0.0133446 0)
(1.14851 0.0367177 3.29342e-20)
(0.0914471 0.0121809 -9.6892e-21)
(1.14763 0.0176088 0)
(0.990976 -0.0355441 0)
(0.9565 -0.0109891 0)
(-0.277296 0.010365 0)
(0.514941 -0.0180421 4.36785e-20)
(-0.290747 -0.00715212 -9.97084e-21)
(0.256753 -0.113006 2.07418e-21)
(1.03869 -0.00428279 3.10748e-21)
(1.16574 0.056211 -2.66922e-20)
(1.00001 -0.000353306 8.56528e-22)
(1.16133 -0.0564636 0)
(1.14472 0.0458859 1.62099e-20)
(1.2228 -0.136849 7.58888e-20)
(0.99994 -0.00632642 -1.40977e-21)
(0.970668 -0.0832346 0)
(1.17195 0.041495 8.46875e-21)
(0.35877 0.0276432 0)
(-0.26489 0.0111052 -3.69768e-21)
(-0.316222 -0.00340363 -1.19535e-20)
(1.11428 -0.077272 0)
(1.04416 -0.12834 9.64666e-21)
(1.16777 0.046294 1.49267e-20)
(0.96765 -0.0153821 2.46432e-20)
(1.02858 -0.00710778 -2.81944e-21)
(0.997152 -0.012768 4.63407e-21)
(1.06275 0.020271 0)
(1.13002 0.0575628 2.99992e-21)
(0.996054 -0.00583045 -7.1214e-21)
(1.14287 0.0448419 0)
(1.00784 -0.012574 0)
(1.00312 -0.000200914 -3.41978e-21)
(1.00557 -0.00735345 5.91003e-21)
(0.241163 0.050002 0)
(0.964737 -0.0168865 6.89985e-21)
(1.00002 -0.000323339 3.42355e-22)
(1.14444 -0.00750204 2.73147e-20)
(1.14617 -0.026333 -2.9467e-20)
(1.0175 -0.00210187 -5.85594e-22)
(-0.139147 0.00915302 2.38459e-20)
(1.03897 -0.00875024 4.01278e-21)
(1.02992 0.00266909 1.59696e-21)
(1.15426 -0.069909 3.57366e-20)
(0.887497 -0.137161 2.50042e-20)
(1.06869 0.00509556 0)
(1.02908 -0.0534951 0)
(1.31489 -0.378687 -1.59313e-19)
(0.864121 -0.117444 5.42616e-20)
(1.07024 -0.120684 2.59706e-20)
(0.738536 0.047594 0)
(1.07373 -0.119347 -8.77695e-21)
(0.44005 -0.0509842 0)
(0.907822 -0.0237033 -1.97439e-20)
(1.17315 0.0200983 -1.58936e-20)
(0.461316 -0.229287 6.21003e-20)
(0.0968635 -2.40717e-05 -3.46752e-20)
(1.02596 -0.00343731 0)
(0.30089 0.02797 0)
(1.18456 0.0568218 0)
(1.01267 -0.00375125 -1.61993e-23)
(0.0470039 0.0149855 0)
(0.998252 -0.00648226 -3.70213e-21)
(1.00601 -0.00734995 -2.27367e-21)
(1.1225 -0.0296563 -1.03335e-22)
(1.00418 -0.00695418 2.97305e-21)
(1.15229 -0.248244 0)
(0.32038 0.0339252 -6.0038e-21)
(1.02109 -0.00535496 -1.52427e-21)
(0.170294 -0.114606 0)
(1.03418 0.0041603 -5.67228e-21)
(1.11794 -0.0483312 0)
(0.539601 -0.0132605 0)
(1.01725 -0.00161457 -1.76433e-22)
(0.111528 0.0612168 5.42472e-20)
(1.01636 -0.0688369 0)
(1.03872 -0.0122973 -5.06758e-21)
(0.998053 -0.0176707 1.48149e-21)
(0.996875 -0.013066 -5.7037e-21)
(1.22111 0.0150868 0)
(0.737326 -0.209385 0)
(-0.249802 0.00794186 -2.99965e-20)
(1.16819 -0.147414 -4.66064e-20)
(0.16765 0.0704381 -3.17284e-20)
(1.14886 -0.0107421 1.5674e-22)
(0.996225 -0.00567498 6.1153e-21)
(1.17101 0.0434076 -1.56252e-20)
(-0.301145 -0.00737725 4.72641e-20)
(1.28248 0.0374942 1.26291e-19)
(0.752616 -0.233329 0)
(1.2166 -0.00274435 -6.86412e-20)
(1.11953 0.0600836 -2.47722e-20)
(1.07251 -0.0603423 -1.39512e-21)
(1.22492 0.0116807 0)
(1.02642 -0.0514733 -4.11357e-22)
(1.27463 -0.460082 0)
(1.00232 -0.00113928 9.46692e-22)
(-0.151374 -0.0233779 1.56051e-19)
(1.05407 -0.00966871 0)
(0.770015 -0.241296 0)
(0.931927 -0.0927483 0)
(1.04235 -0.0276478 -5.20323e-21)
(1.08287 0.0436529 0)
(0.955172 -0.00902267 0)
(1.01048 -0.0126608 0)
(1.34297 -0.0395644 0)
(1.0143 -0.0694772 0)
(1.00546 -0.00755628 -3.16254e-21)
(1.12299 0.00735917 -1.85983e-20)
(1.19199 -0.0609449 6.13183e-21)
(1.22184 0.0178547 -3.10633e-20)
(1.35707 -0.127894 2.85493e-20)
(0.955506 0.0520362 -2.33401e-21)
(-0.142326 0.0277189 0)
(1.00084 -0.00263764 0)
(0.999472 -0.000468716 0)
(0.0232702 0.00856689 4.6397e-20)
(0.99569 -0.00878766 -1.28078e-20)
(1.28703 -0.296206 0)
(1.15005 0.0379494 0)
(1.05943 -0.0386674 -1.09888e-20)
(0.995999 -0.00258469 1.42739e-21)
(1.06776 -0.11099 -7.44253e-21)
(0.99057 -0.00143825 9.23069e-21)
(1.03772 -0.0121941 -1.55731e-21)
(1.09084 -0.000700784 -2.70094e-20)
(1.2838 -0.286633 0)
(1.23595 -0.229146 0)
(0.65046 -0.312415 3.17584e-20)
(1.13478 -0.171637 9.88009e-21)
(1.00068 -0.00386457 -4.49337e-21)
(1.13061 0.0335021 0)
(0.824338 0.0779579 -1.05973e-19)
(1.00734 -0.0119209 0)
(1.14481 0.0477468 -1.62563e-20)
(1.06513 -0.0252685 7.4549e-21)
(0.318233 0.0333588 -2.96803e-20)
(0.956131 -0.043495 -2.20754e-20)
(-0.0210757 -0.0150826 -5.57258e-20)
(1.00241 -0.00100912 0)
(1.19156 0.0585252 0)
(1.00001 -0.000239689 1.65254e-21)
(1.15213 0.0259455 -1.57605e-20)
(1.01583 -0.0340052 1.48299e-22)
(1.06165 0.0193278 -2.09071e-20)
(1.07088 0.0369635 -2.93633e-22)
(1.01745 -0.00175618 0)
(1.02936 0.00269085 -5.70231e-21)
(1.01687 -0.00295859 -5.40328e-22)
(0.747365 0.0481516 0)
(-0.103217 0.000141571 6.89285e-20)
(1.09937 0.00949254 2.04541e-20)
(0.152134 0.0662571 0)
(0.986023 -0.0247588 2.38882e-22)
(1.11895 0.00791656 8.25534e-21)
(1.08839 -0.041581 2.62218e-20)
(1.18149 0.0435476 2.2494e-20)
(-0.0781318 -0.0355991 0)
(1.09942 0.0112092 -3.37461e-20)
(1.01959 -0.00195869 -8.2256e-22)
(0.995206 -0.44074 -1.93718e-20)
(1.00773 -0.0121847 0)
(0.985652 -0.0240354 0)
(1.08947 -0.0371447 2.23941e-20)
(-0.225105 0.013627 0)
(0.680415 -0.00868219 -1.04911e-20)
(1.25799 0.0402227 -6.24638e-22)
(1.0777 0.0601014 8.46926e-21)
(0.723665 -0.210593 8.52253e-21)
(0.948997 -0.0194803 -1.15327e-20)
(1.00704 -0.0270987 2.43939e-21)
(1.29648 -0.450956 6.62084e-20)
(1.00589 -0.00754572 6.0746e-21)
(1.3162 0.00220114 -2.33166e-20)
(1.0891 -0.0245888 7.10798e-21)
(0.999224 -0.00104504 0)
(0.40434 0.0519067 0)
(0.380179 0.078301 5.73753e-20)
(0.99703 -0.00181099 4.30476e-21)
(-0.238509 0.00898682 2.56077e-20)
(1.0496 -0.0880123 0)
(1.1306 0.105551 2.43533e-20)
(0.937012 -0.340685 0)
(1.01768 0.0581603 0)
(0.341515 0.0781629 -5.38237e-20)
(1.27992 -0.349828 0)
(1.00301 -0.000739923 4.30342e-21)
(1.01511 3.20326e-05 0)
(0.301367 0.0418017 0)
(1.00304 -0.0324631 0)
(1.03271 -0.0198228 6.65984e-21)
(1.09135 -0.0247358 2.3813e-20)
(1.00153 -0.0331861 0)
(0.768677 0.0473556 0)
(1.17655 0.0714652 -2.40077e-20)
(1.14932 -0.00766357 -3.58308e-20)
(0.0299657 0.0534081 -2.69794e-20)
(1.13484 -0.00590405 -1.0256e-20)
(1.15554 0.0532853 -3.38795e-20)
(1.06435 -0.0244602 0)
(1.00323 -0.00439201 0)
(1.01532 -0.00123998 -7.18492e-23)
(1.0103 -0.00707916 -1.16038e-21)
(-0.207666 0.0123649 5.07415e-20)
(0.100856 -0.00222894 0)
(1.18701 0.0902392 1.16315e-20)
(0.995781 -0.00237519 2.8352e-21)
(1.01934 -0.00177381 -1.95704e-22)
(1.07211 0.0381859 1.21683e-20)
(1.0172 -0.0227421 1.20881e-21)
(1.12415 -0.0320783 1.85612e-20)
(0.973673 -0.0884535 2.59444e-21)
(1.24165 -0.503203 -4.35944e-20)
(0.392255 0.036661 -2.78012e-22)
(1.14295 0.0429717 3.02865e-20)
(1.16794 0.0467941 -5.03073e-20)
(1.18818 0.0874295 0)
(1.03165 -0.0184154 0)
(1.2245 0.00857679 0)
(1.00747 -0.0275809 0)
(-0.0720199 -0.0351846 0)
(1.18628 0.0566178 4.40713e-20)
(-0.0181798 -0.0360202 -2.59754e-19)
(1.02922 0.0773199 0)
(1.04897 0.0100604 0)
(1.0912 0.00116304 1.78357e-22)
(1.17236 -0.680542 5.19506e-20)
(0.0203551 0.0511557 -7.41456e-20)
(0.0121749 -0.0395998 1.34138e-19)
(0.790881 -0.108715 0)
(1.21808 -0.149315 1.12234e-20)
(-0.214158 0.0189141 4.51496e-20)
(1.00211 -0.00219994 -3.28022e-22)
(1.16744 0.0465544 0)
(0.580377 -0.64328 0)
(1.14989 0.0764251 0)
(1.00221 -0.00212001 0)
(1.03458 -0.0206399 7.39361e-21)
(1.1245 -0.017376 0)
(0.112193 0.0126101 -1.67368e-20)
(0.343175 -0.67621 0)
(1.02689 -0.319242 -1.66354e-20)
(0.988685 -0.0081242 0)
(1.06098 0.0169115 -7.52151e-21)
(0.891072 -0.0608626 0)
(0.151343 -0.178876 -1.15167e-19)
(1.0413 -0.0269334 0)
(1.26184 -0.314877 1.47626e-19)
(1.00461 -0.0150413 0)
(0.98818 -0.0540491 8.67605e-21)
(1.24953 -0.0542106 -2.96004e-20)
(1.00723 -0.0115691 -2.25345e-21)
(0.998886 -0.00860191 -5.02321e-21)
(1.04268 -0.0510049 3.63053e-21)
(1.00643 -0.102497 -4.00122e-21)
(1.00353 -0.00434056 6.10139e-21)
(1.02683 -0.0506235 -7.13569e-22)
(1.02226 -0.00447078 -2.32864e-21)
(0.98748 0.055767 -4.93338e-21)
(1.19718 0.123527 -1.16449e-20)
(0.147339 -0.00419031 2.5261e-20)
(1.02545 -0.00411208 -1.76669e-21)
(0.875966 -0.211486 1.64573e-20)
(0.993239 -0.00304423 -1.91395e-21)
(1.17065 0.0440263 -1.71509e-20)
(1.19103 0.0378115 2.64006e-21)
(1.03411 -0.158431 6.80385e-21)
(1.00428 -0.0151037 0)
(1.05417 -0.00466254 -8.4154e-21)
(1.18238 -0.411926 0)
(1.16265 0.0361935 0)
(1.09447 -0.0267392 1.85271e-20)
(-0.100568 0.0145242 5.28637e-22)
(1.14828 0.0782738 0)
(0.993034 -0.0238928 0)
(0.982785 -0.0232122 1.76865e-20)
(0.464161 -0.035753 -1.3189e-20)
(-0.0821346 -0.0378998 -2.15519e-19)
(1.11836 -0.191573 3.23395e-20)
(1.01692 -0.00410906 3.05097e-23)
(1.10448 0.0698067 0)
(1.00083 -0.0036864 4.46341e-21)
(1.11483 -0.0481624 0)
(1.02091 -0.00762154 -4.95134e-22)
(1.33818 -0.153008 0)
(-0.0764486 -0.0124621 -7.19498e-23)
(1.00722 -0.00791673 3.74102e-22)
(1.0397 -0.000615555 -4.00759e-21)
(1.31057 0.0125762 -9.31225e-20)
(0.999972 -0.0288011 2.27283e-21)
(0.797132 0.0692112 2.67371e-20)
(-0.323503 0.00683812 0)
(1.12894 0.0365123 2.37662e-20)
(0.966279 -0.0143909 -1.2851e-20)
(0.999027 -0.00206421 0)
(1.02105 -0.00738876 4.70104e-22)
(1.00231 -0.000829682 -3.26509e-21)
(-0.312743 0.00478504 0)
(1.27312 -0.223918 0)
(1.22867 -0.128056 -4.50746e-20)
(1.0369 -0.0478944 3.41383e-21)
(0.0710059 0.0185008 1.82111e-20)
(1.00528 -0.000265436 -1.75025e-21)
(0.995806 -0.0167709 8.01842e-21)
(0.708829 0.0725924 7.20256e-20)
(1.02749 -0.0117065 0)
(0.295407 0.0529427 6.13856e-20)