/*--------------------------------*- C++ -*----------------------------------*\
| =========                 |                                                 |
| \\      /  F ield         | OpenFOAM: The Open Source CFD Toolbox           |
|  \\    /   O peration     | Version:  v2012                                 |
|   \\  /    A nd           | Website:  www.openfoam.com                      |
|    \\/     M anipulation  |                                                 |
\*---------------------------------------------------------------------------*/
FoamFile
{
    version     2.0;
    format      ascii;
    class       volScalarField;
    location    "1000";
    object      k;
}
// * * * * * * * * * * * * * * * * * * * * * * * * * * * * * * * * * * * * * //

dimensions      [0 2 -2 0 0 0 0];


internalField   nonuniform List<scalar> 
18355
(
0.00016203
0.0347416
0.000147394
0.000145617
0.000150464
0.000184326
0.000147553
0.000174404
0.000151222
0.0390383
0.000144976
0.0327083
0.00018454
0.000147959
0.000148741
0.000151918
0.013571
0.000146257
0.000148474
0.0454812
0.000154167
0.000149551
0.073708
0.000150496
0.000155921
0.000148888
0.000148375
0.000150919
0.0215372
0.000147895
0.000149116
0.000152417
0.000146235
0.000146821
0.00016861
0.000162729
0.000149879
0.000182541
0.000150737
0.000145127
0.000147972
0.00016844
0.000147429
0.0313928
0.000147937
0.00018362
0.000169995
0.000151983
0.00016775
0.000146389
0.000144994
0.000147366
0.000149832
0.060433
0.000148477
0.000148369
0.000191962
0.000148853
0.000458465
0.000184566
0.000146414
0.000178477
0.000146145
0.000162737
0.0366167
0.000161412
0.00854528
0.000157719
0.000148413
0.000149381
0.00017205
0.000149683
0.00018577
0.000146572
0.000174344
0.000147524
0.0399716
0.000152218
0.000159337
0.000147114
0.000147636
0.000255468
0.000153876
0.000164323
0.000148835
0.000184148
0.0301095
0.0453915
0.0198032
0.0679114
0.00024379
0.000148341
0.000148637
0.00014441
0.00597068
0.0704719
0.000147137
0.00015602
0.0587812
0.00856433
0.01146
0.0101085
0.000164352
0.00297581
0.00015127
0.000190567
0.0204061
0.000177294
0.000161465
0.000185953
0.000147676
0.000150425
0.000148899
0.000150632
0.0528113
0.000147857
0.000475808
0.0401759
0.000472621
0.000164275
0.0419199
0.00146353
0.000152118
0.000171833
0.000147132
0.000177907
0.000147338
0.000149721
0.00278452
0.000144426
0.000145035
0.0128114
0.000171885
0.000155785
0.000161353
0.00014969
0.000148065
0.000144957
0.000147734
0.000172923
0.0128922
0.0176761
0.000149602
0.00014765
0.000189997
0.000149256
0.000153813
0.0262826
0.000152569
0.025904
0.000149743
0.000149326
0.000167563
0.000431024
0.000183523
0.000149781
0.0122386
0.000470699
0.000149762
0.00017974
0.000155576
0.000153349
0.000156881
0.000156288
0.000217451
0.000274971
0.0610715
0.000166269
0.000205529
0.000146434
0.0218087
0.0664718
0.000144879
0.000144977
0.000151887
0.0249308
0.000177065
0.000148581
0.0015655
0.0472591
0.000166087
0.000205091
0.000158029
0.000147229
0.000225741
0.0260458
0.07357
0.000217045
0.000151352
0.0106644
0.000191141
0.000147517
0.000156128
0.00453429
0.000162642
0.000149502
0.0105597
0.000157778
0.000167085
0.000144974
0.000150893
0.00015233
0.0465791
0.0717053
0.0101956
0.000156673
0.000470856
0.05706
0.0646276
0.000166891
0.000148063
0.0001495
0.0448171
0.000149445
0.000146432
0.000246761
0.0183682
0.044701
0.00014895
0.000152399
0.000243874
0.000147678
0.000163729
0.000147952
0.0546091
0.000149013
0.0483137
0.0254131
0.0001714
0.000148056
0.000149807
0.000158767
0.000155068
0.0514392
0.000150503
0.00014884
0.000148642
0.000183835
0.000335202
0.0100956
0.000160789
0.000203716
0.000149372
0.000146504
0.000149185
0.0208173
0.0186643
0.000465048
0.000183164
0.000155464
0.000150902
0.000529464
0.000158356
0.0681139
0.000148745
0.0312245
0.0381475
0.000179745
0.000147932
0.000147525
0.000160725
0.00017394
0.0545733
0.000172632
0.000146655
0.000146395
0.000149735
0.000208907
0.000170374
0.000168725
0.000150485
0.0216255
0.000220935
0.00018937
0.000149101
0.0114224
0.000147197
0.000147854
0.000742474
0.00014669
0.000147514
0.000189416
0.000147258
0.0126529
0.000158196
0.00015252
0.000146891
0.0001662
0.0354968
0.000152462
0.000145648
0.000147961
0.000197507
0.0493085
0.000149759
0.000149847
0.0251336
0.000165389
0.000183477
0.000179808
0.000147884
0.000172731
0.000149904
0.000149773
0.000177408
0.000220768
0.000238829
0.000199699
0.000144496
0.000167232
0.000150985
0.000148454
0.00608739
0.000147471
0.0002104
0.000167956
0.000148588
0.000145095
0.00020506
0.00964632
0.061189
0.000148979
0.000156537
0.0282553
0.000146837
0.000335615
0.000158951
0.000158815
0.000256994
0.000144494
0.000316513
0.000148274
0.000161891
0.000148708
0.000183108
0.0349038
0.000149787
0.04121
0.00016424
0.000148203
0.000169291
0.000178907
0.00847633
0.0582214
0.00205409
0.000148686
0.000146102
0.0734806
0.000164234
0.000148694
0.000150068
0.000168704
0.000225292
0.000424198
0.0773502
0.000148551
0.000151993
0.000508039
0.000147646
0.000150319
0.000229059
0.00016728
0.000153699
0.0118759
0.000149822
0.000161981
0.000256732
0.00784798
0.000145605
0.000148196
0.000147727
0.000147156
0.000165208
0.000147157
0.000164824
0.000147743
0.000152931
0.000148568
0.000151022
0.000147513
0.000148463
0.000147396
0.000147382
0.000151435
0.000170591
0.0166652
0.000147943
0.0177073
0.000159352
0.0173509
0.000162458
0.000177525
0.000149351
0.0151993
0.000149719
0.000147891
0.000148796
0.000145471
0.0574092
0.000152878
0.000146764
0.000168994
0.000164572
0.000147684
0.000146832
0.0536975
0.000149383
0.000147239
0.000527774
0.00014726
0.000446287
0.0089383
0.000229412
0.0001535
0.000151267
0.0412575
0.0001496
0.000147453
0.000439327
0.000149776
0.000144878
0.0118771
0.000146537
0.0375403
0.000170846
0.000178721
0.0116209
0.000149678
0.000147455
0.0321966
0.000184152
0.0214542
0.00391079
0.000147775
0.000147295
0.000149201
0.00912279
0.000162172
0.0001486
0.000149816
0.00014937
0.000162314
0.000465908
0.000155746
0.000149089
0.00014982
0.000161961
0.000250292
0.0507254
0.0322602
0.0346232
0.000162837
0.000162192
0.0371645
0.000148879
0.000146733
0.000147955
0.000147909
0.000164813
0.000148029
0.000146366
0.00688311
0.00016258
0.000168516
0.0678026
0.00016323
0.0214156
0.00014769
0.000147446
0.000147727
0.000147675
0.000149878
0.000149862
0.000147923
0.0188851
0.000148976
0.00014475
0.00076767
0.000185953
0.000146792
0.000151463
0.00016441
0.000684772
0.000151543
0.000147164
0.00719396
0.000152027
0.0261088
0.000159361
0.00014723
0.00736732
0.000185988
0.000146122
0.0710929
0.0153125
0.0493329
0.000147218
0.000147062
0.000154551
0.000196691
0.000149506
0.0246042
0.00459869
0.012468
0.000208533
0.00014541
0.00017064
0.0364272
0.0704838
0.0513758
0.000148797
0.000155253
0.000155567
0.0506004
0.00974406
0.000250652
0.000149034
0.000147701
0.000148734
0.000162399
0.000147955
0.0243392
0.000156172
0.0537941
0.000148012
0.00014924
0.000147422
0.00015736
0.00015905
0.0002482
0.000147349
0.000189753
0.000428402
0.000161431
0.00014793
0.000152139
0.000162327
0.000149796
0.000161554
0.000167519
0.000161072
0.000184819
0.000150228
0.000146085
0.000147954
0.000149843
0.000165365
0.000153709
0.000178491
0.000147614
0.000150515
0.0167387
0.000144556
0.00015759
0.000149782
0.000182674
0.000152253
0.0573992
0.000149887
0.0103789
0.000154094
0.000152109
0.0373411
0.0168436
0.0619615
0.000161515
0.000152567
0.000147305
0.000147693
0.000192445
0.000168329
0.000158981
0.000169642
0.018087
0.000217777
0.000147377
0.066454
0.0258821
0.00015182
0.00014769
0.000157602
0.0662323
0.000160689
0.000149392
0.000163871
0.000183319
0.000168751
0.000156796
0.000329313
0.000155655
0.000187649
0.0252835
0.000269919
0.00805534
0.00016377
0.000180487
0.000157453
0.000148385
0.000151913
0.00014783
0.000182132
0.000186049
0.0297242
0.000170258
0.0448903
0.00919854
0.000163031
0.000152309
0.0267397
0.0840231
0.000145091
0.00017143
0.0114809
0.0485517
0.000155956
0.000145252
0.000155544
0.000156433
0.00016211
0.000182778
0.000147488
0.00978989
0.000151542
0.000153327
0.0528583
0.0001475
0.000159252
0.0506982
0.000147483
0.000150683
0.0704405
0.000146154
0.000189913
0.000144563
0.0114366
0.000161723
0.000169498
0.000159043
0.000154217
0.000195884
0.000153144
0.0273478
0.000183163
0.000148742
0.0281195
0.000169919
0.000349656
0.0174173
0.000117126
0.000241346
0.000147614
0.000145553
0.0145435
0.000152271
0.000162131
0.000149559
0.000157596
0.031949
0.0668818
0.000165451
0.0154767
0.000164515
0.000151728
0.000145279
0.000149483
0.000169667
0.000170357
0.000146635
0.0473726
0.000156999
0.000165266
0.000149856
0.0677827
0.0506811
0.000147928
0.0001451
0.000184388
0.000149609
0.000146119
0.0114771
0.000171209
0.000149498
0.000147665
0.000201465
0.000167724
0.000159811
0.000163838
0.000148422
0.0393716
0.000174221
0.000148928
0.000181775
0.0653038
0.000147554
0.0626805
0.0001456
0.000147501
0.000149422
0.000158588
0.049953
0.000163726
0.0276876
0.00015925
0.0418102
0.000181054
0.00015732
0.0420655
0.000148261
0.0861732
0.000151705
0.0269124
0.0344532
0.000148973
0.000457116
0.000153853
0.000154472
0.0734125
0.000165966
0.0451305
0.000146609
0.0586214
0.000147872
0.0305147
0.000149214
0.000155916
0.000161786
0.000146674
0.000145326
0.000175118
0.00674428
0.0390437
0.000147339
0.000340688
0.000156932
0.000146707
0.000148687
0.000155904
0.000197306
0.0817692
0.000162845
0.00014979
0.000155897
0.0505502
0.000155798
0.000147504
0.000146688
0.000156402
0.000160013
0.0178012
0.000147427
0.000228136
0.000162829
0.0164021
0.0477005
0.00844931
0.000145047
0.000177371
0.000147468
0.000149432
0.000158569
0.0120615
0.000146682
0.00014729
0.000147274
0.085455
0.00015132
0.000148885
0.000159896
0.000160003
0.0734832
0.0245078
0.000147384
0.000147943
0.0727148
0.000148916
0.0680223
0.0389714
0.0540938
0.000174407
0.00017796
0.00485079
0.00016209
0.000149014
0.000146538
0.0001484
0.000149256
0.000148642
0.000149346
0.0784733
0.00648119
0.000149144
0.000167503
0.00014623
0.00015182
0.000164127
0.00014848
0.00015355
0.000150873
0.000192677
0.000366949
0.000172726
0.0497047
0.000162701
0.00805567
0.000170729
0.0436157
0.074042
0.000174391
0.000422935
0.000221655
0.0174983
0.000147848
0.00014776
0.000147689
0.000156585
0.0466558
0.000146394
0.000149827
0.000181058
0.000146674
0.000162856
0.000162115
0.000149396
0.00301475
0.000148573
0.000147956
0.000203579
0.000145896
0.000193693
0.000187392
0.000148761
0.000151627
0.000146695
0.000165484
0.000146651
0.000151941
0.000165067
0.000147974
0.0749142
0.000148865
0.0774466
0.000154992
0.000192362
0.000147596
0.000181877
0.000163705
0.000149063
0.000148796
0.0784372
0.000147695
0.0174132
0.0199013
0.000150433
0.000148635
0.000148429
0.000145104
0.0122112
0.000147648
0.0808224
0.00791545
0.000165404
0.0383772
0.000147119
0.000147333
0.0622486
0.069661
0.00015271
0.000147902
0.00014772
0.000146472
0.00015253
0.000161546
0.000229407
0.000153809
0.0235881
0.000351627
0.00797741
0.000158115
0.000147894
0.0273841
0.0222567
0.000160015
0.000147621
0.000148722
0.0803188
0.000147993
0.0119123
0.000164915
0.000149656
0.000155991
0.00014599
0.000162582
0.000155887
0.000146693
0.000144587
0.000152228
0.0339653
0.000149434
0.000177332
0.0344842
0.000148613
0.000147264
0.000161569
0.0220563
0.000161438
0.0659539
0.000149671
0.000145044
0.0001514
0.0221359
0.000190219
0.000288837
0.000147763
0.000157128
0.000148269
0.0615073
0.000146065
0.00282282
0.000162206
0.0138884
0.000149209
0.000147281
0.000177861
0.00014758
0.0294074
0.00014872
0.00039314
0.000149681
0.000146437
0.000152267
0.000211327
0.0226422
0.000155323
0.00014991
0.000149706
0.000148707
0.000146609
0.000149861
0.000188233
0.00014958
0.0449903
0.000152152
0.0635848
0.00014813
0.000145235
0.000143103
0.0694828
0.0578015
0.000149924
0.031812
0.000148267
0.00757898
0.000149872
0.00019975
0.000147062
0.0510976
0.000147244
0.000155828
0.000148236
0.000147517
0.000149721
0.0553136
0.00146023
0.0351431
0.000158249
0.000156711
0.000153525
0.000147781
0.000145631
0.000146157
0.000151493
0.000192275
0.000149039
0.0159185
0.000184139
0.00014788
0.000149898
0.00788257
0.000192535
0.000151455
0.000153367
0.000158622
0.0229784
0.000175983
0.0856678
0.000177316
0.000182965
0.000173334
0.000147977
0.000147341
0.000181392
0.000161104
0.000147977
0.00786164
0.000156329
0.0177251
0.000149622
0.000184955
0.000158267
0.000173656
0.00015568
0.000148303
5.83221e-05
0.000148256
0.0148452
0.000148301
0.000148264
0.0636072
0.000161971
0.000157986
0.0756124
0.000147499
0.000167703
0.0246922
0.000147666
0.000168529
0.0289869
0.000150765
0.000147407
0.000148296
0.000153642
0.000153048
0.000183538
0.0427278
0.000152544
0.000155107
0.0305883
0.00014548
0.00796813
0.000154903
0.000151749
0.000253142
0.0108267
0.000146079
0.000147245
0.000152691
0.000146176
0.000145733
0.0749429
0.000149786
0.000158295
0.00014517
0.000163223
0.000146092
0.000170545
0.000212948
0.000151637
0.0485927
0.000147401
0.00015231
0.000147729
0.0455335
0.000156446
0.000146899
0.000147866
0.000148886
0.000147354
0.00018947
0.0543046
0.0231173
0.0437439
0.000149158
0.000149617
0.000182956
0.000148871
0.000146115
0.000249015
0.0472475
0.000152117
0.000148171
0.031616
0.000149461
0.000149172
0.0379682
0.000184638
0.0145127
0.000151113
0.000147857
0.0425343
0.000148944
0.000157788
0.000149435
0.000160739
0.000148013
0.00017766
0.000198849
0.000170027
0.000148578
0.0447957
0.000150269
0.00014693
0.000149211
0.000148321
0.000147576
0.000148723
0.033577
0.000149704
0.0138441
0.000149253
0.000158724
0.0730463
0.000146477
0.000187944
0.000151244
0.000146414
0.00015174
0.000183233
0.000148163
0.000147368
0.000148756
0.000147978
0.000176391
0.000145826
0.000149735
0.000156441
0.000148525
0.000159018
0.012457
0.0397732
0.00406319
0.0670595
0.000189227
0.000173486
0.0879826
0.0450175
0.000148579
0.000149243
0.000145444
0.000171666
0.0356004
0.000161333
0.000154323
0.000145241
0.000147759
0.000148975
0.000152005
0.0369982
0.0531769
0.00939759
0.000178909
0.000148598
0.000149534
0.000148961
0.0311771
0.00101362
0.000147699
0.000342112
0.000145687
0.000161467
0.000152216
0.00016277
0.0001609
0.000254024
0.000151253
0.000170407
0.00014594
0.000147153
0.000173859
0.000147373
0.000148294
0.000176556
0.0002176
0.000148768
0.00016651
0.000147378
0.000147988
0.000146555
0.000147773
0.028288
0.000157739
0.000151131
0.000148822
0.0463384
0.000171723
0.000148416
0.000157626
0.000160592
0.0197634
0.000220396
0.0611078
0.000200963
0.000178407
0.000193606
0.000199439
0.000170415
0.0345798
0.000145064
0.000147292
0.000147485
0.000171675
0.000149045
0.023444
0.000147338
0.000148966
0.0654863
0.000172966
0.000149616
0.000165949
0.000147521
0.000150823
0.000273169
0.000184978
0.000147537
0.000210814
0.000185932
0.0132366
0.0551702
0.000147962
0.0349526
0.000147338
0.00016767
0.000146927
0.000146747
0.0359297
0.000161901
0.00015202
0.000147756
0.0451401
0.000153839
0.0189902
0.040953
0.000149734
0.000145874
0.000152841
0.0328052
0.000182423
0.000169138
0.000158831
0.000219642
0.000147993
0.000149877
0.000147854
0.000148091
0.000151083
0.000163141
0.0849566
0.000178647
0.00019272
0.0295482
0.000147874
0.0144725
0.000185768
0.000162303
0.000149219
0.000147854
0.000147314
0.000147256
0.00014744
0.00941883
0.000183238
0.0612384
0.000178626
0.000186949
0.000149156
0.000187875
0.0575915
0.000161452
0.000155114
0.000146864
0.0662285
0.0361816
0.000176034
0.000193319
0.000148087
0.0118367
0.000150505
0.00015276
0.000168172
0.000169117
0.000146014
0.000182612
0.0500267
0.000149837
0.0145078
0.0550094
0.0763099
0.00930482
0.000162548
0.000306952
0.000163859
0.000162964
0.0410841
0.000147385
0.000159107
0.000147018
0.000149645
0.048241
0.000152215
0.0789029
0.000145914
0.000148794
0.0401849
0.000147789
0.0681024
0.000150662
0.000187369
0.000151775
0.000149165
0.0772561
0.000155313
0.000180779
0.000146967
0.000147292
0.000219965
0.000176774
0.000148317
0.000155998
0.000250504
0.000178469
0.000345002
0.000149722
0.000147555
0.000144682
0.000147517
0.000156875
0.000164365
0.00014543
0.0593256
0.000147219
0.000148201
0.000171232
0.0366117
0.000177608
0.000159342
0.000146233
0.000151056
0.00018113
0.00030455
0.000257561
0.0425206
0.000157346
0.000162874
0.000223283
0.00014841
0.000168542
0.045695
0.000147417
0.000211017
0.0336501
0.000256025
0.000266836
0.0714229
0.000183866
0.000148696
0.00282291
0.000155086
0.000170242
0.000181308
0.000147624
0.000188301
0.000147539
0.000148045
0.000173678
0.0114762
0.000159195
0.000147444
0.000164216
0.0322546
0.000166709
0.0145629
0.000147525
0.0326444
0.000146101
0.000170168
0.000184899
0.00014772
0.0268813
0.000147708
0.000146727
0.000148552
0.000148134
0.0747687
0.000184612
0.000149655
0.0662124
0.000148454
0.0165349
0.00014605
0.0193164
0.000161926
0.000184987
0.000152917
0.00014774
0.000145773
0.00014848
0.000227131
0.000175004
0.00014876
0.000169607
0.0145985
0.0776507
0.000170328
0.0438772
0.0502574
0.00014776
0.0276335
0.000146403
0.000218916
0.000147914
0.000148601
0.000149035
0.000176269
0.0218494
0.000220479
0.000182099
0.0471048
0.000190472
0.000184076
0.0423896
0.00014699
0.000172451
0.015303
0.000144753
0.000173376
0.0296035
0.00021151
0.000147369
0.0430001
0.000165323
0.0247767
0.00839841
0.000156551
0.000181939
0.000154802
0.000147636
0.000145081
0.0266859
0.000198737
0.000180287
0.000197335
0.000147197
0.0122525
0.000159337
0.000144402
0.000149774
0.000177993
0.000153099
0.000149386
0.000149778
0.000232091
0.000147137
0.000163465
0.0219923
0.000145719
0.000147108
0.00409705
0.000146792
0.00016136
0.000158469
0.000178188
0.00031971
0.000147716
0.000178441
0.000158967
0.00016916
0.000156965
0.00015385
0.000167933
0.000216319
0.000170081
0.0414742
0.000166884
0.000148895
0.000220423
0.0450149
0.00018299
0.000146323
0.000148267
0.000172128
0.000152509
0.0629552
0.000203213
0.000158402
0.0230714
0.000151996
0.000203703
0.0416297
0.000148144
0.000148748
0.000148374
0.000147776
0.00186368
0.000246878
0.00015513
0.000203578
0.000244168
0.000168482
0.000148762
0.000153381
0.000170921
0.000147466
0.000146967
0.00126425
0.000151175
0.000502987
0.000146658
0.000147842
0.000149798
0.00016805
0.00016125
0.000166385
0.000148758
0.00015147
0.0789779
0.0178547
0.000356667
0.000295376
0.000153917
0.00015013
0.0824474
0.000183286
0.0104793
0.000162875
0.000147287
0.000172317
0.000155309
0.000149775
0.0001464
0.000167764
0.000183428
0.0480787
0.000181982
0.000256031
0.00014908
0.000150926
0.000148561
0.000194179
0.0193435
0.000216403
0.000405884
0.000147309
0.0532091
0.000151414
0.000147644
0.000152751
0.00014894
0.000186788
0.000147838
0.000185119
0.000145693
0.000381789
0.000157945
0.022834
0.000150019
0.000148767
0.000155284
0.000146029
0.000187115
0.000436046
0.0803915
0.000172254
0.000145506
0.0833145
0.000163757
0.000147653
0.000167828
0.000146962
0.000153009
0.000144632
0.000187781
0.000153818
0.000177959
0.000172316
0.000146731
0.0696128
0.000145505
0.000155443
0.000149517
0.000152573
0.00014609
0.000148091
0.000160909
0.000149867
0.000154236
0.00014586
0.000152497
0.000297403
0.0329837
0.000149819
0.000170592
0.0734722
0.000147243
0.000148965
0.000158475
0.000193885
0.000148158
0.000175249
0.0119539
0.000151081
0.0637315
0.0299539
0.000147763
0.000150132
0.000166716
0.000144278
0.00302208
0.0470388
0.0425679
0.000151442
0.000159083
0.000144822
0.000306074
0.000156264
0.000193516
0.000149585
0.000179307
0.0132071
0.000183628
0.000152732
0.00708324
0.0152614
0.051715
0.000149652
0.000146657
0.0555608
0.000350644
0.000146599
0.000148574
0.000191929
0.000150023
0.000219837
0.000299735
0.000146151
0.000150124
0.0154118
0.000181137
0.000150893
0.000144332
0.000164749
0.000149323
0.000224911
0.000147184
0.000148933
0.000148107
0.000152544
0.000148359
0.000183378
0.000147032
0.000154559
0.0457072
0.0315296
0.030544
0.000147145
0.000168889
0.000183105
0.000148638
0.000153206
0.000168665
0.00014718
0.00015227
0.0284748
0.000164292
0.000147809
0.000148234
0.000147709
0.0142193
0.0626522
0.000146856
0.000149626
0.000147751
0.0001772
0.0327254
0.000151866
0.000174
0.000148865
0.00016544
0.000158781
0.000243314
0.00822978
0.000149429
0.000244402
0.0748798
0.000163245
0.000147684
0.00016348
0.000158897
0.000162246
0.000155398
0.000147843
0.000191489
0.000155481
0.000265166
0.000161746
0.000149174
0.000149516
0.0452201
0.000148849
0.000160476
0.000216889
0.00016107
0.0888389
0.0276017
0.00014758
0.000180007
0.000160221
0.000182929
0.00016235
0.000152228
0.000148351
0.0184038
0.000161498
0.000147977
0.000167706
0.000180399
0.000317051
0.0474131
0.000148329
0.00015577
0.000149148
0.000220069
0.000230214
0.000149183
0.00017242
0.00015447
0.000151393
0.000149189
0.0156976
0.000178106
0.000147792
0.000152641
0.0399021
0.000149717
0.000147927
0.000156516
0.000165253
0.00014797
0.000148988
0.00015235
0.0118964
0.000159658
0.000147648
0.000146807
0.000148562
0.000171152
0.000147882
0.000147487
0.000264943
0.085966
0.000147576
0.000149741
0.000176949
0.000161144
0.000169167
0.000149014
0.0168748
0.000147163
0.000150685
0.000159442
0.0841909
0.0233286
0.000191405
0.000169476
0.0570159
0.0192569
0.029563
0.0283425
0.000153274
0.000147789
0.000146113
0.000161373
0.000147305
0.000147756
0.000149005
0.000176596
0.000147613
0.031579
0.000161662
0.0670283
0.000148414
0.0611961
0.000148078
0.000156879
0.0001459
0.000150988
0.000160743
0.000252903
0.000149156
0.000146842
0.000154007
0.0646468
0.000147214
0.000168364
0.000149226
0.000162699
0.0118025
0.000178743
0.000478479
0.000158332
0.0002166
0.000148963
0.0476064
0.0115159
0.000147007
0.0731089
0.022398
0.000147541
0.000144919
0.000167776
0.000160241
0.000166968
0.000145801
0.0327625
0.000157988
0.000172534
0.000145774
0.000147525
0.0001575
0.0174426
0.00827859
0.0121087
0.000168327
0.0206917
0.00016061
0.0272081
0.000148406
0.000349187
0.000147658
0.000155802
0.000531904
0.000151196
0.000204592
0.000147533
0.000153329
0.0520118
0.0197436
0.000147594
0.000209457
0.000147868
0.0760083
0.000146574
0.0727163
0.0237035
0.000147841
0.0324506
0.000156597
0.042539
0.000147923
0.000155242
0.000150717
0.000173053
0.000148014
0.000225746
0.0001465
0.0654694
0.000185239
0.0662021
0.000148971
0.000145925
0.000263339
0.000152085
0.000157483
0.000147385
0.000167071
0.000153395
0.000147973
0.0158288
0.000148455
0.000147442
0.000149494
0.000148779
0.0407129
0.000162743
0.00014751
0.0414315
0.00049931
0.000193872
0.00014736
0.00017869
0.000454839
0.000147731
0.000156112
0.00014975
0.000148225
0.000147504
0.000148143
0.000156469
0.000159677
0.058891
0.00018555
0.000180867
0.000149836
0.000147556
0.0458441
0.000166047
0.000147352
0.000149735
0.0313299
0.0734617
0.000148048
0.0623094
0.000160924
0.00019842
0.000149842
0.0557941
0.000146138
0.000151938
0.000148565
0.000147031
0.000151602
0.0376715
0.000146144
0.062355
0.0002006
0.000356129
0.0104898
0.000148581
0.000148198
0.0422432
0.000166682
0.000167734
0.000147839
0.000192299
0.000149244
0.0724304
0.0421052
0.0371113
0.000148485
0.0701742
0.0491129
0.0577324
0.000191912
0.000153914
0.000179758
0.000147483
0.0002561
0.0713086
0.000160409
0.0422641
0.000146569
0.000148204
0.000167845
0.0120535
0.000161963
0.000254889
0.000147759
0.0678457
0.000168825
0.000163062
0.000146619
0.000164004
0.000179256
0.000148181
0.000167947
0.00016745
0.000225066
0.000145956
0.000147175
0.0526917
0.0455606
0.00015229
0.033728
0.000160787
0.00014786
0.0613518
0.0239915
0.000148561
0.000238372
0.000145989
0.000148577
0.000172445
0.0514877
0.000149498
0.0253885
0.000151915
0.000147658
0.0153247
0.000149283
0.000181389
0.000146831
0.000326506
0.000148104
0.016387
0.000146915
0.000163281
0.000148259
0.000155428
0.000178696
0.0746928
0.000162215
0.0524599
0.000160052
0.0576272
0.0809834
0.0376736
0.00014698
0.0212431
0.0797433
0.0140833
0.000248553
0.000149705
0.000146858
0.000148411
5.68017e-05
0.000147768
0.000148903
0.000274439
0.000149569
0.0317087
0.000151118
0.0333998
0.00014795
0.000149491
0.000193443
0.000145257
0.000176501
0.000147246
0.000167738
0.000181117
0.0192474
0.000146557
0.000147463
0.0778159
0.0603652
0.000149595
0.000159388
0.000164241
0.000150221
0.00789934
0.0470395
0.0758424
0.000194734
0.0279863
0.00849554
0.000219482
0.000147122
0.000146417
0.000150726
0.000147436
0.000158527
0.0260088
0.0625865
0.000148491
0.000152509
0.000151145
0.00491773
0.082567
0.000540499
0.000461499
0.000148558
0.00046196
0.0579361
0.000154744
0.0472595
0.000173327
0.000148887
0.0748166
0.0352045
0.0103309
0.000149321
0.00015104
0.000166894
0.000248899
0.000147081
0.000148463
0.00014958
0.000146669
0.000148198
0.0640069
0.000152351
0.000145778
0.0216374
0.000148602
0.0416939
0.000167934
0.041836
0.000254479
0.000147699
0.0817708
0.000171789
0.000222402
0.000150471
0.000159468
0.000147983
0.000150813
0.0172588
0.000202333
0.000174057
0.000150194
0.000147374
0.000171752
0.000151738
0.000148338
0.000155218
0.000147421
0.055037
0.00014784
0.0319291
0.0273555
0.000151393
0.000147718
0.0309694
0.000146965
0.000147017
0.000220363
0.000153332
0.00015229
0.000177164
0.000288405
0.0756574
0.000159819
0.000151547
0.000149441
0.0516798
0.0186604
0.000160816
0.000166287
0.000147299
0.000147841
0.000152683
0.00014674
0.000186744
0.000160823
0.000148306
0.000149269
0.00014854
0.00014755
0.000147977
0.000147279
0.00032766
0.0329369
0.0722838
0.000203959
0.0014917
0.000187797
0.000153753
0.0248611
0.0346315
0.0040204
0.000148525
0.000147215
0.000457688
0.00646078
0.000203601
0.00019858
0.0771056
0.000148536
0.000147539
0.0469907
0.000146761
0.000201143
0.000193666
0.000150624
0.013233
0.0461835
0.000149715
0.0157095
0.0301098
0.000173355
0.000209023
0.000149055
0.0136755
0.000245621
0.0725139
0.000146806
0.00016464
0.0171801
0.000147264
0.000169254
0.000147669
0.000171811
0.000148727
0.0289614
0.000125251
0.000148295
0.000152299
0.00014958
0.0371999
0.000168966
0.000148882
0.000149094
0.0326724
0.000147514
0.000152294
0.000175841
0.000190052
0.000150009
0.000166377
0.000162089
0.00014751
0.000201425
0.000148118
0.000147715
0.000158355
0.000147671
0.000162801
0.0663152
0.000223712
0.000147981
0.0592734
0.0136345
0.000185666
0.0141549
0.00016963
0.000152987
0.0430215
0.000157801
0.000152362
0.000166496
0.000169522
0.000148408
0.000146692
0.000148633
0.000207574
0.0380874
0.0753578
0.0610918
0.000146596
0.000154208
0.000175625
0.000176454
0.0464523
0.00014882
0.0457936
0.000149612
0.0196906
0.000145816
0.0424542
0.000150261
0.0631539
0.0288078
0.000185901
0.0558431
0.000164175
0.000146714
0.000166951
0.0113943
0.0622938
0.00015654
0.000149475
0.000147528
0.000148717
0.000159512
0.000149905
0.000151917
0.000146723
0.000177132
0.000148022
0.0718228
0.000149445
0.0462641
0.000146011
0.000204396
0.0619229
0.000150862
0.0014152
0.000148004
0.000156602
0.000148993
0.000149273
0.000147675
0.000187191
0.000185
0.000146984
0.000152487
0.000147936
0.0470473
0.000161496
0.000216883
0.000216384
0.000148054
0.000173822
0.000151315
0.000150754
0.00016167
0.000148618
0.000166986
0.068895
0.000148104
0.0635195
0.000155622
0.000147368
0.000146193
0.0271283
0.00014795
0.0764719
0.000177049
0.000149773
0.0136877
0.000189907
0.0168204
0.00015701
0.000153904
0.000148594
0.000174437
0.0451008
0.000148823
0.000166166
0.00014853
0.000189304
0.00036726
0.0191168
0.0687708
0.0438273
0.000157603
0.0166872
0.000148966
0.0483593
0.000213475
0.000156931
0.00023083
0.000180841
0.000145169
0.000162836
0.000147998
0.000146836
0.000152852
0.000147786
0.00174582
0.000264663
0.000203673
0.00497999
0.000148389
0.00223797
0.000148322
0.000147697
0.000169134
0.0598678
0.000146938
0.037031
0.000168244
0.000192466
0.0214522
0.000149488
0.000168654
0.0307742
0.00016218
0.000148215
0.000190199
0.000147898
0.000148766
0.000149574
0.000269989
0.0584778
0.000154991
0.000148585
0.0347902
0.0689691
0.000149279
0.000149534
0.00373811
0.0861322
0.000149293
0.000181456
0.000182468
0.000147194
0.000162481
0.000145979
0.0371112
0.00014774
0.0879794
0.0719046
0.0695878
0.000153861
0.000157757
0.000147611
0.000146531
0.0147456
0.000146874
0.0291201
0.0546678
0.000173879
0.000146786
0.000146197
0.000204489
0.00018674
0.000162661
0.0942588
0.000181721
0.00478519
0.000151773
0.0556968
0.000314664
0.000158168
0.000188139
0.0806081
0.0294436
0.000148453
0.00598566
0.000146234
0.000978028
0.000233845
0.000225726
0.000145507
0.0001666
0.000148619
0.000246391
0.0425786
0.000151327
0.000150774
0.0865532
0.0402512
0.000148241
0.0483884
0.0142697
0.00223482
0.000149386
0.0787014
0.000148931
0.0103844
0.000148663
0.000151253
0.000149316
0.000148095
0.029113
0.000236806
0.000146356
0.0386438
0.0191375
0.000144631
0.000146163
0.000161544
0.00016576
0.000189582
0.00016735
0.0285827
0.0495254
0.0523538
0.077726
0.000189865
0.000150966
0.000203455
0.000181756
0.0186544
0.00879621
0.0332812
0.00019114
0.000176152
0.000153539
0.018166
0.000169092
0.000179425
0.000149165
0.000154399
0.0590302
0.000148543
0.000157607
0.000196487
0.000152949
0.000169538
0.000148232
0.000151445
0.0678132
0.000182486
0.000146001
0.000154306
0.0440168
0.000240779
0.000163015
0.000287981
0.0150755
0.000168088
0.0002136
0.0417028
0.000150002
0.0468621
0.000191452
0.0164419
0.000148882
0.000144292
0.0175675
0.0274907
0.0316518
0.0765078
0.0438679
0.00016163
0.000184724
0.000152354
0.0353593
0.000148011
0.000148057
0.000171987
0.000179808
0.000177228
0.030354
0.000150612
0.000479969
0.0423979
0.000150396
0.000188322
0.000159453
0.000177877
0.000184836
0.000168727
0.0380817
0.0397869
0.0348028
0.000297832
0.000162199
0.000147886
0.000150877
0.000158808
0.000435913
0.0308109
0.0360823
0.0298759
0.000163354
0.000146754
0.000234181
0.000167742
0.0596064
0.000148552
0.0155864
0.000168861
0.0375496
0.000148517
0.0059242
0.00017466
0.000181818
0.0024035
0.000146842
0.0230172
0.0306091
0.000146729
0.000180114
0.0515902
0.000150045
0.00026417
0.000152824
0.000151495
0.000149697
0.0518226
0.000169605
0.000251654
0.000160498
0.0693983
0.000146688
0.000144508
0.000147174
0.000148295
0.000147549
0.0916345
0.000188773
0.0430682
0.000149353
0.000146915
0.0736003
0.000160166
0.0423861
0.000189672
0.000148626
0.000232667
0.000157092
0.000168139
0.0405215
0.000158037
0.0204567
0.000205709
0.000155467
0.000145349
0.000179123
0.000144685
0.000201183