/*--------------------------------*- C++ -*----------------------------------*\
| =========                 |                                                 |
| \\      /  F ield         | OpenFOAM: The Open Source CFD Toolbox           |
|  \\    /   O peration     | Version:  v2012                                 |
|   \\  /    A nd           | Website:  www.openfoam.com                      |
|    \\/     M anipulation  |                                                 |
\*---------------------------------------------------------------------------*/
FoamFile
{
    version     2.0;
    format      ascii;
    class       surfaceScalarField;
    location    "1000";
    object      meshPhi;
}
// * * * * * * * * * * * * * * * * * * * * * * * * * * * * * * * * * * * * * //

dimensions      [0 3 -1 0 0 0 0];
oriented        oriented;


internalField   nonuniform List<scalar> 
27274
(
-0.000257836
0.000364205
-0.000106569
-1.98695e-05
9.19274e-05
-7.20579e-05
-0.000498053
-0.000113862
0.000608927
0.000444948
-2.01822e-05
-0.000440116
0.000251446
0.000235649
-0.000488989
0.000113403
0.000121492
-0.000234948
-0.000334801
-0.000152238
0.000477958
-2.46046e-05
-0.000207662
0.00023219
0.000315257
0.000123374
8.02703e-05
-9.95554e-05
1.92851e-05
-5.667e-05
-0.000428984
0.000476873
7.13569e-05
2.97601e-05
-0.000101117
0.000226915
-9.39601e-05
-0.000132977
-0.000475072
0.000550099
-7.54077e-05
-0.000642455
0.000255795
0.000384459
0.000427286
-0.000274402
-0.000153286
-8.5256e-05
9.73281e-05
-1.20722e-05
0.000740234
-0.000382756
-0.000365994
-0.000127368
-0.000356654
0.000482372
1.56503e-05
8.79457e-05
-0.000103598
0.000334111
-2.07904e-05
-0.00031352
0.000586818
-0.00034985
-0.000237543
-9.97664e-05
9.8123e-05
1.64324e-06
-0.000180278
0.000430009
0.000147923
-0.000420636
-0.000276198
0.000387936
-0.000114811
-6.81309e-05
0.000410735
0.000340322
3.70333e-05
-0.000377453
-8.10938e-05
-2.85778e-05
0.000109671
0.000544718
-0.00068375
0.000137069
0.000526328
-1.49681e-05
-0.000513934
-0.000230679
0.000529824
-0.000300421
0.000426039
0.000304072
7.10461e-05
-2.83943e-05
-7.07688e-05
0.000261629
-0.000234457
-2.72361e-05
3.82285e-05
-0.000296227
7.13449e-07
0.000390104
-0.000158734
-4.5462e-05
0.000204183
-3.83458e-05
0.000378628
5.65353e-05
0.000432698
-0.000497525
-0.000543061
6.76172e-05
-0.000116845
-7.33789e-05
0.000190209
2.67202e-05
-0.000527619
-5.38384e-05
9.95883e-05
-4.575e-05
-2.82436e-05
-6.69961e-05
6.78878e-05
5.75401e-06
-0.000164497
0.000194383
5.13168e-05
-0.000245778
0.000425425
-0.000350861
-7.46592e-05
-0.000164631
-0.000123709
0.00028824
2.27829e-05
-0.000429638
0.000399857
-0.000240756
0.000464518
-0.000234247
0.000646366
-0.000546134
-0.000103858
8.01188e-05
-8.19676e-05
1.39099e-06
-0.000108393
3.401e-05
7.43823e-05
-0.00046479
0.000175034
0.00028497
-2.47168e-05
-1.85823e-05
2.79019e-05
0.000214296
-4.3913e-06
-0.000209952
-0.000247062
-0.000396974
-0.000110509
4.74322e-05
6.30768e-05
-0.000225666
8.31751e-05
0.000142472
0.000400322
-0.000384212
-0.000171671
-9.06287e-05
0.000262217
0.000586727
-0.000224847
-0.000370214
-0.000280991
0.000142457
0.000138468
9.05684e-05
-1.92115e-05
0.000226656
0.000137317
-0.000100742
5.29633e-05
4.77789e-05
0.000199293
8.96529e-05
-0.000288972
0.000405317
0.000337413
0.000248846
-0.000150885
-8.48057e-05
0.000235644
-3.03903e-06
-3.90187e-05
3.89187e-05
-8.79979e-05
-0.000137684
0.000137609
0.000365838
-0.00051085
0.000224898
-0.000249586
-0.00049108
0.000149191
-3.29402e-05
0.000121895
-8.89557e-05
0.000301718
0.000143378
-0.000446276
0.000390323
-0.000281307
-0.000109507
-0.000470575
0.000565656
-9.92425e-05
0.000373913
-0.000535971
0.000159186
-0.000137995
-2.11941e-05
-4.9532e-05
0.000383358
0.0001393
-0.00024459
0.000105231
-0.000398254
0.000119481
4.66649e-05
0.000180225
-0.00011069
5.90158e-05
5.1674e-05
-0.00010395
0.000119599
-0.000116423
3.53295e-05
9.26619e-05
-0.000112522
1.986e-05
-0.000165749
1.6676e-05
0.000149065
7.54682e-05
-0.000140567
7.08591e-05
-0.000389821
0.000315122
0.000526687
-0.000433212
-0.000106876
-0.000105382
0.000105382
-8.65727e-06
-9.11092e-05
0.000101714
0.000339941
-0.000445261
0.000346733
4.31238e-05
-0.000390408
-3.35098e-05
-7.4883e-05
-8.07183e-05
-1.37395e-05
9.44577e-05
-8.54893e-05
9.78328e-05
-1.23435e-05
-1.3726e-05
-7.27299e-05
8.64559e-05
-0.00019879
-0.000166214
0.000364883
3.77079e-05
-0.000150612
0.000112901
0.000154899
0.000300001
-0.000456553
0.000216248
-2.82329e-05
-0.000188046
4.32566e-05
4.45951e-05
-8.78517e-05
-0.000199201
0.000139572
5.96159e-05
0.000398449
-0.000249182
-0.000149486
8.75843e-05
8.28221e-05
-0.000210713
0.00058578
-0.000377049
-0.000314717
-0.000101232
0.000415848
-0.000217272
0.000365429
-0.000149212
-0.000461633
0.000146832
9.61136e-05
-0.000122472
2.63586e-05
7.45404e-05
1.11057e-05
-0.000103911
5.78633e-05
-8.41128e-05
2.62495e-05
8.271e-05
-0.000115651
-7.7027e-05
8.56609e-05
-8.63387e-06
9.28746e-05
-0.000291771
9.92229e-05
-1.89527e-05
0.000137597
-0.000129409
-8.19138e-06
-0.000156038
0.000456621
6.42884e-05
-0.000215212
0.000450229
-0.000352156
-9.79774e-05
-0.000101234
0.000554146
8.75854e-05
0.000117358
-0.000104325
-1.21853e-05
0.000166558
-6.78068e-05
-9.87528e-05
5.87947e-05
0.00045277
0.00023751
-0.000488594
5.73519e-05
8.16278e-05
-0.000138982
-0.000283482
8.12517e-05
0.000202128
-8.10664e-05
0.000427233
-0.000151785
-9.67046e-05
0.00024845
0.00010431
1.17981e-05
-0.000367587
0.000723952
-0.000358748
0.000331076
-0.000395043
0.000482073
-0.000683115
0.000199731
-0.000181488
-3.97686e-05
0.000221227
-6.7583e-06
-7.8731e-05
8.0909e-05
1.13522e-05
-9.22611e-05
0.000454183
-0.000505988
5.07117e-05
0.000236032
-0.00044834
-7.19479e-05
-6.78844e-05
0.000139832
7.89095e-06
-0.000456585
0.000448104
-0.000162636
0.00037186
-0.000209221
-8.72686e-05
0.000110866
-2.35971e-05
0.000483127
-0.000105458
-0.000378494
3.33703e-07
-8.76024e-05
0.000544007
-0.000467589
-7.84289e-05
-0.000342408
0.000197477
6.41092e-05
-4.72731e-05
-6.32358e-05
0.000240853
9.04487e-06
-0.000249964
5.81118e-05
-3.93805e-05
-2.05523e-05
-7.44436e-05
0.000131793
-6.20065e-07
-7.6407e-05
3.15315e-05
2.50654e-05
-6.4209e-05
0.0002565
-0.000192361
0.000423544
-0.000236935
-0.00018685
-0.000457452
0.000183454
0.000273435
0.00016894
-0.000308741
0.000139724
0.000294081
-0.000375643
-0.000195697
3.70254e-06
0.000191977
7.01187e-07
0.000104422
-0.000105123
-0.000126542
3.00921e-05
9.64498e-05
-0.000199888
-0.00011024
0.000310008
-2.90476e-06
-0.000143893
0.000146788
0.000381751
0.00014404
-0.000532587
-0.000139795
0.000127084
1.27116e-05
0.000108869
-4.22859e-05
-6.65829e-05
-0.000542671
0.000325504
0.000206164
0.00046955
-0.000533162
5.37682e-05
0.000289487
0.000137355
0.00010833
-6.77795e-05
-4.05505e-05
-0.000185941
-0.000115917
0.000301743
-0.000300739
0.000431695
-0.000134244
5.60766e-05
0.000110478
-0.000124466
8.52201e-05
3.92455e-05
0.000126141
-0.000222756
9.66171e-05
0.000112914
-0.000115826
0.000317761
4.41249e-05
-0.000362263
-0.000190366
-0.000242217
0.000422319
-9.15282e-05
0.000200454
-0.000108936
-9.60764e-05
-2.18457e-06
9.82609e-05
-0.000122007
1.09265e-05
0.00011108
-0.000181894
1.91118e-05
0.00016277
-0.000478139
0.000375466
0.000102624
1.91556e-05
-0.000104412
0.00023539
0.000577196
-0.000500606
-7.93741e-05
-0.0001006
0.000394173
0.000169276
-0.000107923
-6.13555e-05
5.44778e-05
0.000182264
-0.000236774
4.24716e-05
-0.000425629
0.000382591
2.19014e-05
-0.000127191
0.000105287
-8.11957e-05
0.000398565
0.000191136
0.000101043
-0.000292351
-8.27924e-05
-7.13065e-05
0.000388599
-0.000318354
0.000245524
-0.000429678
0.000183974
0.000118266
-1.30259e-05
-0.00010524
-3.15274e-05
-9.048e-05
-5.85933e-05
0.000102425
-4.3832e-05
-0.000179634
-0.000158157
0.000337575
-3.51435e-05
9.30068e-05
0.000134143
-5.48279e-05
-7.93157e-05
0.000121322
-3.53451e-05
-8.59775e-05
-0.000150744
0.000341684
1.52576e-05
-0.000384888
0.000449237
9.2994e-05
1.86608e-05
-0.000115872
9.72101e-05
-3.45702e-05
0.000487534
0.000559244
-0.000186621
3.08937e-05
0.000128288
-0.000186123
6.42609e-05
0.000121856
-8.52908e-05
0.000157533
-0.000374608
0.000428576
5.35523e-05
-0.000185873
0.00013246
5.34087e-05
-0.000656007
0.000513909
0.000140176
0.000267731
-0.000128504
0.000284079
0.000436897
-0.000112077
-1.44654e-05
0.000543444
-0.000121871
-0.00042243
0.000119488
-4.04793e-05
-7.90087e-05
-9.73429e-05
9.47416e-05
2.60129e-06
-7.72286e-05
-8.64206e-05
0.000163649
-0.000465654
0.000478354
6.42412e-05
1.5347e-05
0.000281671
0.000108118
0.000264397
-0.000419194
0.000154448
1.47583e-05
0.000104729
0.000459003
-0.0004538
-6.08659e-06
-0.00028814
0.000388473
-0.000103117
-0.000338698
3.45204e-05
0.000129434
-0.000179036
4.95945e-05
2.94257e-05
0.000109104
-0.000138535
2.91368e-05
0.000184488
0.000213659
-0.00013296
-6.31197e-05
0.000196068
-0.000476765
0.000157422
-0.000137267
0.000611553
-0.000483217
-0.000475199
-7.78494e-05
0.000552272
-1.37409e-05
-8.3602e-05
0.000159294
-2.99676e-05
-0.000129329
9.12163e-05
-2.8441e-05
-6.27754e-05
-3.15114e-05
0.000272294
0.000249518
0.000173746
-0.000395274
0.000322929
-4.79198e-05
-2.9138e-05
7.70578e-05
0.000267789
-0.000349328
1.62443e-05
0.000105078
0.000231672
-0.000467617
0.000234937
2.26319e-05
-0.000100583
7.79506e-05
3.81005e-06
-0.000148508
0.000144693
0.000184321
-0.000248595
0.000569873
-0.000487073
-8.44764e-05
-3.77231e-05
-3.02554e-05
4.49178e-05
-0.000127364
0.0003538
0.000261183
-0.00010832
-0.000152903
-3.27234e-06
0.000121538
-0.000196944
-8.66288e-05
0.000488071
-0.000216737
-0.00028325
-0.000401251
-0.000124829
0.000517653
0.000114708
-4.70357e-05
-6.93156e-05
-1.90658e-05
-0.000124836
0.00021009
-0.000198727
-1.13806e-05
9.09305e-05
0.000105592
-0.000196521
-0.000239381
-0.000204842
0.000443675
-4.55429e-06
6.75576e-05
-6.30034e-05
-5.5334e-05
-0.000126569
1.22497e-05
0.000203971
-0.000362554
0.000559041
-0.000198112
-0.000123196
0.000145094
-0.0006244
0.000149662
0.000129758
-0.000506565
0.000374675
-0.000140531
9.27287e-05
4.78014e-05
-2.52373e-06
-7.33347e-05
5.37499e-05
-6.65964e-05
-0.000430865
-5.60155e-05
0.000227881
-0.000171898
0.00047215
-0.000625474
0.000149429
-2.43091e-05
9.31262e-05
-6.88171e-05
-9.90273e-05
0.000366466
0.000206698
0.000179409
-0.000386153
5.34523e-05
-7.91973e-05
7.70783e-05
-0.00027707
9.94266e-05
-9.41876e-05
-5.23907e-06
-0.000387684
0.000490039
-6.08921e-05
-0.000594969
0.000107755
0.000487542
-0.000216854
3.38919e-05
0.000182939
8.28182e-05
1.62621e-05
-9.90804e-05
7.80976e-05
3.62799e-05
-6.08231e-06
-6.40029e-07
5.41809e-06
-0.000100479
-8.56479e-05
-8.78935e-05
0.000241963
-0.00015414
0.000292701
-4.7345e-05
-0.000245423
-6.30314e-05
0.000140782
-7.77525e-05
-0.000393224
0.000520664
0.000176332
-0.000542924
0.000437373
0.000105154
-1.11152e-05
2.77577e-06
9.79407e-05
-0.000160974
-5.46286e-05
-0.000141082
-0.000238577
8.48728e-05
0.000153691
-7.35689e-05
-0.000143306
0.000474556
-0.000429484
0.000182753
-5.66105e-05
-0.000501779
0.000440981
-0.000553538
0.000424342
1.02142e-05
0.000149077
0.000227806
-0.000636352
0.000405744
-0.000152036
9.18018e-05
-0.000208662
0.000366935
-0.000299451
-0.000147658
0.000449388
-0.000314819
8.1147e-05
-0.000144276
2.93066e-05
-7.59764e-05
4.66698e-05
3.33256e-05
0.000100818
0.000291439
-0.000474714
0.000181867
0.000345159
-0.00017631
4.01965e-05
-9.40349e-05
2.99695e-05
-0.000469707
0.000435886
0.000158157
-0.000128737
-0.000339901
-9.01642e-05
0.000429463
0.000135776
-0.000327753
0.000191878
3.16592e-06
0.000154985
3.397e-06
0.000456116
7.84766e-05
-7.77756e-05
-0.000432521
0.000536073
-0.000105223
-0.000275141
0.000123315
3.68593e-07
2.77561e-05
-3.94016e-05
0.000261117
7.24292e-05
-8.2584e-05
1.01548e-05
6.59763e-05
-9.92321e-05
3.32726e-05
-6.68098e-05
-5.76565e-05
0.000222395
8.06168e-05
-0.000303213
-1.58456e-06
-0.000423287
0.000424281
0.000296817
-0.000102526
-0.000280004
0.000108256
-3.59653e-05
-8.97836e-05
0.000125747
-0.000120074
1.84836e-06
0.000118225
4.45526e-05
0.00012472
0.000471693
-0.000241051
0.000273585
0.000306503
0.000124287
-9.00117e-05
-3.42753e-05
8.13036e-05
0.000112509
-0.00019381
0.000100227
0.000292793
-0.000395668
-0.000399884
0.000546231
-0.000147307
-0.000130268
-0.000108321
5.88559e-05
-0.000150393
-0.000105102
5.71822e-05
1.66971e-05
0.00010759
-0.000423842
0.0004395
-1.67383e-05
0.000158275
0.00026661
-0.000425858
-6.8912e-05
8.25957e-05
-1.36837e-05
8.88969e-05
0.000494677
-1.61038e-05
0.000474158
5.45011e-05
-0.000134003
7.94959e-05
-0.000132628
-0.000177787
0.000310234
0.000252471
-0.00040479
0.000151498
-6.40226e-05
9.33292e-05
7.6117e-05
-7.68999e-05
5.5569e-08
-0.000110825
-0.000132412
0.000243217
-0.000104522
-8.13549e-05
4.68982e-05
4.08318e-05
0.000345076
0.000129163
0.000104573
0.000392268
-0.000497737
0.000147771
0.000248436
-0.000397489
-2.4831e-05
-0.000448009
0.000468893
-5.25937e-05
0.000171344
-0.00011876
0.000368752
-0.000396894
0.000294922
-3.34186e-05
-0.000261616
-0.000399065
0.000545081
0.000444545
-0.000275826
-0.000169205
-0.000398367
-2.6934e-05
0.00038338
-6.80867e-05
0.000687957
-0.000221747
-0.000469814
0.000629746
-0.000338186
-0.000293276
0.000377965
0.000115601
-0.000496772
-0.000183044
0.000557354
-0.000438659
0.000276852
0.000161305
4.15818e-05
-0.000134449
9.28665e-05
6.33299e-05
-0.00010951
4.61805e-05
0.000625404
-0.000343546
0.000141955
-9.4524e-06
-0.000132505
-0.00017251
0.000332039
-0.000159608
0.000112476
-4.91457e-05
0.000317579
-0.000315645
-2.20434e-06
-3.37302e-06
0.000200244
-0.000196913
-0.000410289
-6.55508e-05
0.000137666
-2.74959e-05
-0.000110172
0.000388586
-2.22042e-05
8.00357e-05
-0.000407886
0.000117348
0.000122568
-0.000489692
0.000356384
-2.83634e-05
-9.17106e-05
0.000486789
-0.000281938
-0.000205527
2.20288e-05
-0.000110054
-0.000289188
0.00015008
0.000138996
-2.26317e-05
0.000317417
0.000546743
-0.000459902
-0.000362977
0.000389781
-9.65827e-05
9.77143e-05
-1.13173e-06
0.000379372
-7.46352e-05
8.96832e-05
-0.000441054
-0.000104962
0.000541808
9.22234e-05
-1.00704e-06
9.11732e-05
-8.86522e-06
-8.2308e-05
-0.000104286
0.00015878
-0.000361536
0.000198911
-0.000348642
8.82815e-05
1.1145e-05
5.4653e-05
-6.09937e-05
0.000606702
-0.000593306
-1.68924e-05
-7.19028e-05
-3.31993e-05
5.68661e-05
-7.5711e-05
1.59156e-05
-0.000108909
0.000427392
9.07252e-05
-7.15696e-05
-0.000369322
0.000499605
8.51241e-05
-1.26949e-05
0.000168508
0.000127906
-0.000296575
0.000165622
0.000109427
-0.000275146
9.61568e-05
-4.98365e-06
-0.000565322
0.000238117
0.00032709
7.80858e-05
0.000524991
0.000127148
-4.60792e-05
-8.10699e-05
-0.000131379
0.000244728
-9.47606e-05
-9.50264e-05
0.000132732
-4.44882e-05
-0.000435793
0.000478739
0.000290729
-0.000492384
-1.92249e-05
-0.000437908
0.000194847
-0.000106533
-8.83174e-05
-0.000263486
0.000170877
9.25673e-05
-0.000530636
0.000172521
2.72601e-05
1.65311e-05
-4.60625e-05
0.000450654
-0.00048644
-0.00022198
0.000111142
2.35776e-06
-7.12697e-05
0.000108422
0.000250155
-0.000358828
-0.000361025
0.000341372
-7.10473e-05
8.98949e-06
6.1625e-05
-4.21223e-05
0.000359411
2.17376e-05
0.000129468
-0.000151212
9.96998e-05
-1.68817e-05
-7.5611e-05
9.82429e-05
0.000122546
7.44452e-06
-0.000129992
-0.000120554
-9.9366e-05
0.000219911
-0.000141904
0.000245421
-0.000103538
9.21849e-05
7.40342e-06
0.000416416
-0.000541714
0.000122888
-0.000218655
-0.000309768
0.000519804
-0.000164763
0.000453085
0.000169524
-5.74421e-05
0.000174829
-0.000117395
-3.9407e-05
-0.000425288
0.000462907
7.01019e-05
1.84785e-05
-9.91968e-05
-0.000173139
-4.8854e-05
0.000132085
-1.93665e-05
0.000112028
8.02188e-05
-0.000200779
-1.11949e-05
-8.48815e-05
0.000462149
-0.000558498
9.37646e-05
0.000501025
0.000570662
-0.000469568
-0.000102794
0.000423712
-5.85017e-05
3.03832e-05
-4.47076e-06
-5.46344e-06
7.97053e-05
-0.000474995
2.62761e-06
0.00010406
-0.000106687
0.000585391
-0.000295592
8.56216e-05
0.000340527
-0.000438505
0.000126993
1.0601e-05
-3.32217e-05
-0.000110143
0.000143353
0.000257863
-0.000484336
-0.000496872
3.00678e-05
0.000465427
-0.000182715
0.000263709
-8.10191e-05
-7.44276e-05
-6.61035e-05
0.00049415
-0.000205159
0.000607951
-0.000424326
-0.000187407
-0.000130994
-0.000137794
0.000383117
2.38877e-05
8.48277e-05
-0.000108715
-0.000336901
-4.38833e-05
-0.00040753
0.000102918
-6.20238e-05
-4.08944e-05
0.000112473
-0.000145707
0.00052274
-0.000397688
-0.000134514
-0.00011069
4.34692e-06
0.000106343
-7.57447e-05
-5.84814e-06
8.15928e-05
-4.52437e-05
0.000119209
-7.39652e-05
-0.000466869
0.000419441
0.000258846
0.000345252
0.000411381
-0.000147342
0.000205986
-1.11132e-06
-0.000204899
-0.000402674
0.000397891
4.70771e-06
-0.000100023
9.54683e-05
7.08565e-05
0.000123986
0.000125558
1.63946e-05
-0.000165819
5.15582e-05
0.000114257
0.000474052
-0.000362233
0.000325875
-0.000157538
9.5961e-05
-8.48494e-05
-1.11117e-05
0.000100211
0.000106906
-9.61506e-06
-9.72915e-05
-0.000322605
-0.000175695
0.00049768
-0.000237764
0.000379963
-0.00014243
-0.000449874
0.000212647
6.29072e-05
2.63526e-05
-8.92598e-05
7.63723e-05
-9.00984e-05
2.74136e-05
-0.000193169
0.000418759
0.000123865
0.000396732
8.4489e-05
0.000110078
-0.000385541
0.000274828
-0.000195322
-6.82002e-05
-0.000412694
0.000490215
0.000117381
9.76576e-06
-0.000315211
-0.000134895
0.000111834
-1.5721e-05
-0.000152423
-0.000368022
0.00051969
-0.000119294
0.000568542
2.69881e-05
-8.62451e-05
-8.28301e-05
0.000282091
-0.000340671
0.000206682
0.000133834
-0.000129719
0.00015145
0.000431309
0.000103524
-0.00053891
-5.20962e-05
0.000189446
-0.000137377
0.000112895
-1.90369e-05
-9.38582e-05
0.000331022
1.04285e-05
-0.000341784
0.000107267
0.000460577
2.18148e-05
0.000326775
-0.00034873
0.00022913
0.000109125
-0.000338581
6.933e-06
-5.94e-05
5.09158e-05
-0.000324332
-2.04208e-05
0.000344522
-0.000283538
-7.76385e-05
0.000408247
0.000187612
-0.00015747
-3.01539e-05
-0.000416822
0.000410795
0.00010143
0.00045302
-1.18136e-05
7.82036e-05
-0.00023298
0.000309944
-0.000219916
0.000471493
0.000165796
0.000522656
-6.3185e-05
0.000298376
-0.000480187
0.000150565
-0.000363978
0.00043127
-8.10848e-05
0.000311116
-0.000142016
-0.000169077
-0.00024076
-0.000132895
0.000373526
-0.000182497
0.000156078
2.64066e-05
-0.000142377
0.000349018
6.61109e-05
-9.44746e-05
-0.0001605
0.000487293
-0.000328102
5.36989e-05
3.40311e-05
-0.000259256
0.000387375
-0.000128255
0.000297189
0.000128133
0.000104598
-0.000100791
9.40755e-05
0.000109813
-0.000127275
1.74613e-05
-0.000378977
0.000389025
0.000224887
0.000261123
-9.27681e-05
-0.000377554
-0.000612032
0.000594688
1.49209e-05
2.37388e-05
0.000177035
-0.000200811
0.000102365
0.000154554
-0.000257
-0.000314761
0.00012482
0.000189844
-5.12093e-05
0.000206376
-0.000155187
8.35366e-05
-0.000160481
-7.98247e-06
0.000168448
5.20598e-05
9.81187e-06
-8.36769e-05
-0.000108787
8.72315e-05
2.15556e-05
0.000152331
-7.7602e-05
-7.4731e-05
-0.000536063
7.78389e-05
0.000456825
-0.000152833
-0.000460131
0.000192484
0.000118643
-5.83889e-05
-5.41335e-05
0.000213578
-0.000341152
0.000185101
-0.000174617
-1.35716e-05
-0.000100237
0.000211589
-0.000111353
-5.39968e-06
0.000192997
-4.07978e-05
-0.000193717
-0.000173668
0.000278885
-0.000105245
-0.000122217
7.3899e-05
4.83172e-05
0.000408588
-0.000366003
0.000231571
-0.000237042
5.4426e-06
4.24138e-05
4.22871e-05
-8.47009e-05
0.000128363
-0.000125202
-0.000119197
1.53161e-05
0.000173114
-0.000188446
0.000174369
-4.4944e-05
-0.000386304
3.72218e-06
0.000382143
2.08748e-05
-6.05272e-05
-0.000393875
-5.09451e-05
0.000593438
-0.000162112
9.01639e-05
5.84276e-05
-0.000142523
8.40959e-05
6.5719e-05
4.2611e-05
0.000151043
-0.000109462
-7.58429e-05
-1.66016e-05
9.24444e-05
8.97411e-05
-8.90951e-05
-6.45958e-07
0.000125971
-0.000226208
-0.000406157
0.000131389
-9.51934e-05
9.52016e-05
-8.24662e-09
-0.000133091
0.000127563
5.52704e-06
-0.000379587
0.000180908
-6.75801e-05
-0.000113328
-1.87294e-05
8.86487e-05
-6.99193e-05
0.000140779
-0.000133304
-7.4766e-06
0.000302672
-0.000194449
-0.000436139
0.000148806
0.000274869
-4.89715e-05
0.000456911
-0.000275121
-0.00015885
0.000433408
-0.000174699
0.00040346
0.000251779
-0.000219928
-3.18935e-05
0.000542955
-0.000317644
5.22652e-05
3.54649e-05
-0.000182585
-0.000256563
-0.000276597
0.000406995
-0.00013067
8.70834e-05
-2.41763e-05
0.000471759
-0.000556692
8.19314e-05
-0.000150514
-0.000190313
-1.58538e-05
0.000122759
0.000620846
-0.000546585
-0.000514903
0.000278825
0.000235035
9.79339e-05
-0.000100129
2.19541e-06
-0.000327918
0.000119157
0.000189687
-0.00016334
0.000111219
-0.000372347
-0.000103974
6.02531e-05
4.37209e-05
-5.18165e-05
-0.000327502
-0.000259193
-8.32365e-05
0.000342251
-0.000179079
-0.000210621
0.000434767
-0.000224599
0.00019213
1.38284e-05
-0.000279051
0.000392019
-0.000112958
9.00739e-05
-8.97403e-05
-0.000237454
-4.44149e-05
0.0002818
-0.000512067
1.70757e-05
0.000492335
4.85864e-05
3.91436e-05
-8.773e-05
1.92264e-05
-0.00027857
-4.37402e-05
-4.8645e-06
6.8539e-05
-6.36746e-05
0.000147126
-2.01356e-05
0.000146137
0.000480183
-0.000245465
0.000502686
-0.000424578
-8.80526e-05
-8.17313e-05
5.98664e-06
0.000295205
-0.000273508
-0.000311642
-1.28946e-05
-1.11091e-05
0.00012914
-0.000122599
-0.000342549
0.000133502
-1.09579e-05
0.000129037
-0.00010017
-2.88681e-05
-0.000266509
9.82549e-05
-4.45561e-05
0.000115936
-0.000173385
0.00045454
-6.82567e-05
-0.00038684
-0.000155088
-0.000293023
0.000168999
-0.000139295
-0.000149992
8.25381e-05
0.000127531
0.000108876
0.000383321
-0.000496734
0.000129645
-1.98337e-05
0.000155569
-0.000335375
-0.000254192
-4.94207e-05
-3.39827e-05
5.45727e-05
-9.44458e-05
-8.18246e-05
-0.000325844
-0.00035927
-0.000108908
-0.000101146
0.000247115
-0.000146024
0.000130185
-4.05637e-06
-0.000518247
0.000111628
-7.54016e-05
-1.86247e-05
9.40263e-05
4.6459e-05
-8.15458e-05
-0.000408158
0.00048929
0.000571832
2.03946e-05
-0.000212976
-1.19715e-05
0.000224916
-0.000256111
0.000132312
-0.000394994
0.000113205
0.000205861
-0.000124556
0.000341123
0.000286867
8.1141e-05
1.48198e-05
-0.000154219
0.000305892
-0.00015177
0.000503647
-0.000414444
-9.00071e-05
2.45512e-05
0.000117817
-0.000142369
4.12849e-05
-8.35709e-05
-0.000392034
-6.11074e-05
0.000446477
3.36414e-05
9.53948e-05
-0.000338484
0.00030702
5.56942e-05
0.000561312
-4.08695e-05
-0.000361983
0.000231163
-0.000278357
4.71941e-05
9.92727e-05
-8.8846e-05
-1.04269e-05
0.000339066
-0.000116845
8.50551e-05
-4.26414e-05
0.000377098
-0.000253196
-0.000124058
-0.000132141
4.88281e-05
8.33127e-05
-8.66768e-05
-7.91439e-05
0.000359551
-0.000356238
1.47255e-05
0.000487543
-0.000383851
0.000158078
-5.9336e-05
-9.8743e-05
-0.000420291
-6.9732e-05
-4.0958e-05
-8.28958e-05
6.30262e-05
0.000534761
-0.000391152
-0.000144721
-2.91881e-05
9.15563e-05
-6.23682e-05
-0.000242033
-0.000155185
0.000396822
-0.000296157
3.68109e-05
-0.000140401
2.81851e-05
0.000112215
0.000219641
-0.000107066
-0.000112577
9.52064e-05
-6.92491e-06
-0.000186787
-0.000354764
0.00053293
-6.27121e-05
0.000128823
0.000549372
-0.000103306
-0.000447107
0.000124478
-3.44039e-05
0.000551145
-0.000299414
-0.000253437
-8.70164e-05
-0.000228415
-0.00029141
0.000400148
7.13784e-06
-0.000552945
0.000539253
0.000127467
-4.41733e-05
-0.000110926
-0.000320899
0.000183791
0.000137006
-2.50565e-05
0.000135294
5.48222e-06
-0.000128862
0.000409626
1.29686e-05
-9.52092e-05
8.22406e-05
-6.30011e-05
0.000422069
0.000513422
-0.000512476
0.000383333
-0.000274039
0.000384856
-0.000237978
-0.000147002
-0.000179833
0.000159685
2.01291e-05
-0.000113625
-2.67775e-05
0.000360937
-2.20652e-05
3.77987e-05
1.26616e-05
-0.000322829
-7.46831e-05
0.000397193
-7.50918e-05
-4.73808e-05
0.000215438
-0.000169151
-0.000469716
-0.000183434
-0.000374497
-0.000329277
6.18029e-06
-0.000395381
0.00024291
0.000152155
9.70799e-05
-4.48148e-05
-0.000112143
0.000580669
9.12647e-05
4.35612e-05
-0.000134828
0.00018643
-0.000131975
5.83239e-05
9.40056e-05
4.88619e-05
-9.41058e-05
-5.51212e-05
-4.56211e-05
-0.000412718
0.000296987
0.000101185
-0.000275841
0.000104514
0.000171218
0.000600683
0.000196559
0.000290656
-0.000488397
-0.000249509
-0.000146166
0.000395287
7.254e-05
-9.12694e-05
0.000309605
-0.000456457
0.000133522
-0.000447762
0.000351679
-2.37533e-05
7.0499e-05
-7.38009e-05
4.44523e-05
0.000396751
-0.000387993
-9.02484e-06
-0.000163417
-0.0003506
0.000315725
-0.000280225
-3.56453e-05
0.000338984
-0.00012562
-0.000107672
3.71193e-06
0.00010396
9.86747e-05
-5.54182e-05
0.000116626
0.000361717
-0.000483134
-0.000507501
0.000498079
8.81967e-06
-9.67459e-05
0.000381009
-0.000118305
9.91144e-05
1.919e-05
7.29405e-05
1.89869e-05
-0.000123473
0.00010491
1.85628e-05
-5.39827e-05
0.000151921
-0.000168656
0.000128463
4.01897e-05
-5.37267e-05
0.000140623
-8.68991e-05
-0.000343565
-0.000228944
0.000387015
-0.000513912
0.000101026
-0.000535101
-0.00038518
0.000482367
-9.76098e-05
0.000394377
-0.000296758
-0.000467108
-0.000126118
0.000128919
-2.80195e-06
-2.15468e-05
-8.38349e-05
8.00945e-05
-0.000444088
-0.000208219
0.000144018
6.4198e-05
0.000337369
-0.000221663
-0.000132584
0.000360596
9.33907e-05
0.000257465
-0.000280218
-0.00022592
-0.000242367
-0.000326372
-0.000359623
-0.000156033
-0.000122013
5.41284e-05
7.49185e-05
-0.000103359
0.000175636
1.74341e-06
-0.000177425
8.84571e-05
6.74924e-06
7.08582e-05
-0.00021278
-4.08537e-05
9.38169e-05
-0.000156021
-4.27213e-05
-2.67471e-05
-8.91267e-05
-0.000117428
0.000101964
1.5464e-05
0.000115384
-0.00026969
0.000113788
-8.93744e-07
9.94378e-06
-0.000170439
8.36268e-05
-8.84913e-05
-0.000438989
-8.86677e-05
0.000524347
-0.000444972
-0.000339893
-7.61834e-05
0.000407108
-0.000376204
-9.51925e-05
-7.98044e-05
0.000174994
0.000149628
3.7473e-05
-7.64404e-05
3.9506e-05
0.000197932
-0.000250037
5.20663e-05
0.000282737
-6.54648e-05
-0.000231674
-0.000193442
-8.75952e-05
0.000281185
-0.000138802
-1.7942e-05
-5.49778e-05
6.88129e-05
8.90718e-05
2.91221e-05
-0.000118196
-0.000480367
1.68671e-06
0.000476061
4.21684e-05
-3.39601e-05
-0.000179041
0.000386715
-0.000517216
0.000120937
0.000179964
-3.30565e-05
-0.000146918
0.000129264
-7.08358e-05
0.000173686
-0.000503043
0.00032834
-0.000103106
-0.00035606
0.000457815
-2.79953e-05
0.000534969
-0.000114293
-9.47449e-05
0.000209018
0.000287389
0.000188217
0.000414584
-0.000245294
-0.000169923
-0.000141749
0.000168436
-2.6691e-05
-0.000526776
0.000481036
4.57237e-05
0.000114245
-7.33904e-05
-4.0855e-05
0.000412806
-0.000574515
0.000159703
0.000105785
-8.90876e-05
0.000252869
-0.000408698
0.000155052
0.000186166
1.02063e-05
-0.000196411
0.000514773
-1.64516e-05
-0.00050173
-0.00027019
0.000138296
0.000131822
-7.43115e-05
0.000331635
8.99183e-05
-0.000319223
-0.000305547
0.000478243
1.74109e-05
9.68343e-05
-0.00041466
-0.000242978
-8.59955e-05
8.40716e-05
1.9239e-06
-7.77445e-05
-3.94748e-06
8.1692e-05
0.000198897
-0.000438729
2.56607e-05
-3.5167e-05
-0.000222718
0.00039415
0.000292719
-0.000436834
0.0001347
1.94922e-05
-9.48938e-05
0.000579665
-1.01319e-05
9.55424e-06
9.62301e-05
7.59764e-05
2.94053e-05
0.000282472
-4.05745e-05
0.000108085
-6.19871e-05
-4.60978e-05
4.88395e-05
-0.000104285
-0.000460604
0.000580442
-0.000122796
-7.54619e-05
-8.10792e-05
-3.63493e-05
-0.000228857
-5.01769e-05
0.000507441
-0.000388587
-0.000122311
0.000494903
7.40143e-05
0.000415481
0.000457279
-0.000118965
-0.000339545
-0.000147208
-0.000102734
0.000249915
7.5315e-05
-0.000118926
4.36108e-05
-0.000153725
-0.000281352
0.000434628
-7.61351e-05
9.07441e-05
-7.77756e-05
-0.000164098
4.82935e-05
0.000115799
2.79425e-05
-0.000230079
0.00020211
0.000314865
0.000109952
-0.000426744
5.1975e-05
-8.42318e-05
3.22568e-05
5.88025e-05
0.000252933
6.26612e-05
-7.72314e-05
0.000588758
-0.00011039
0.000544282
-0.000434534
-0.000112848
0.000105975
6.87254e-06
-0.000453796
-2.94292e-05
-7.45448e-05
0.000122224
1.94015e-05
4.04594e-05
-6.18209e-05
0.000252463
0.000132272
0.00010281
-0.000118158
-5.74676e-06
0.000274724
8.6005e-05
7.22644e-05
0.000224131
-0.00029672
-2.69468e-05
0.000291573
-0.00041745
0.000330593
7.27507e-05
0.000106963
0.000348986
-5.3599e-05
-4.66841e-05
0.000100283
-0.000115275
6.5919e-05
4.64398e-05
-0.000305458
-4.46818e-05
-5.48735e-05
-0.000484273
0.000373333
0.000562083
-9.39981e-05
0.000140394
-0.000272827
-7.67435e-05
-3.07042e-05
0.000107448
-0.000279107
-6.24563e-05
0.000341291
-0.000103641
1.56849e-05
8.79559e-05
6.66008e-07
0.000387973
0.000519103
-0.000258507
-0.000219551
-1.00086e-05
-8.51848e-05
0.000117742
-9.31909e-05
3.2173e-05
7.54118e-05
-0.000107585
-3.97917e-05
6.04432e-05
-0.000256524
0.000437433
9.68465e-05
-4.97047e-05
-5.39362e-05
-0.000207624
0.000564869
-0.000363195
-6.03085e-05
0.000149378
9.81891e-05
0.000107723
-8.82304e-05
-0.000159442
0.000100189
5.45509e-05
0.000196117
-0.000174074
-3.89104e-05
-7.20871e-05
-9.65721e-05
-0.000229303
0.000489766
-0.000262261
3.74493e-05
-9.10483e-05
0.00051475
-0.000100755
7.27167e-05
-0.000101905
4.90361e-05
-0.000530688
0.00039742
-0.000305345
-4.55617e-05
-3.88222e-05
0.000130084
2.94368e-05
-0.000105224
7.57874e-05
-0.000269815
-0.000149702
-0.000406088
0.000501489
-9.68902e-05
-0.000254494
-0.000311188
-0.000465778
-0.000364618
0.000469152
5.3165e-05
-1.51565e-05
-3.84411e-05
-0.000146796
0.000185216
-6.17295e-05
-0.000339408
0.000400196
-0.000129354
9.65526e-05
3.2801e-05
0.000503592
-0.000228724
-0.000275384
-8.29416e-05
-3.53631e-05
-0.000440667
0.000520291
-8.26189e-05
0.000386032
1.27614e-05
-0.000407323
-0.000149386
3.52248e-05
0.000114158
0.000109745
-6.52429e-05
-4.45021e-05
-0.000121297
1.96802e-05
0.000101616
0.000291881
-0.00051228
0.000219418
-3.96421e-05
9.86577e-05
-0.000529992
8.64139e-05
0.000116175
-4.82162e-05
-6.79583e-05
-0.00030497
0.000165371
-0.00018373
1.83477e-05
0.000474088
8.7319e-05
-6.9184e-05
0.000118046
0.000584007
-0.000461777
-0.000125574
-0.000229064
0.000301003
0.000382315
-0.000384447
9.37272e-05
0.000450912
-0.000547087
-7.95607e-05
8.50741e-05
9.4942e-05
1.68918e-05
-0.000152046
0.000121293
3.075e-05
0.000101936
-6.06383e-05
-4.12983e-05
0.000202631
-0.000174712
-0.000192515
-0.000214442
0.000406434
-0.000241082
-0.000216887
-5.66561e-05
0.000395013
-0.000346808
-9.05386e-05
0.00042133
-0.000112218
-0.000234412
0.000311006
0.000192965
-1.30134e-05
0.000151442
0.000397401