/*--------------------------------*- C++ -*----------------------------------*\
| =========                 |                                                 |
| \\      /  F ield         | OpenFOAM: The Open Source CFD Toolbox           |
|  \\    /   O peration     | Version:  v2012                                 |
|   \\  /    A nd           | Website:  www.openfoam.com                      |
|    \\/     M anipulation  |                                                 |
\*---------------------------------------------------------------------------*/
FoamFile
{
    version     2.0;
    format      ascii;
    class       volScalarField;
    location    "450";
    object      ddt0(k);
}
// * * * * * * * * * * * * * * * * * * * * * * * * * * * * * * * * * * * * * //

dimensions      [0 2 -3 0 0 0 0];


internalField   nonuniform List<scalar> 
18355
(
-0.00012874
-2.32245e-08
6.03146e-05
-1.19931e-08
-1.11673e-05
-0.000812637
3.2649e-07
-1.00457e-06
2.91552e-08
0.0006982
1.09714e-06
6.0325e-06
6.13868e-06
0.00206645
4.29233e-09
-4.25935e-08
-1.13019e-08
1.2421e-06
6.56345e-06
-1.02709e-06
-3.02335e-05
9.98886e-08
-1.70202e-08
-0.000249548
-1.65006e-08
6.13636e-07
3.4036e-07
-2.26425e-08
4.5799e-08
1.28452e-06
0.0053701
2.56219e-07
-4.42914e-08
2.45311e-08
2.42749e-08
-7.45099e-08
-7.4437e-07
-3.79814e-08
1.35262e-06
1.7224e-07
-2.73543e-08
1.17402e-06
1.64595e-08
-1.58082e-08
-2.06556e-08
-5.97181e-07
7.78613e-09
1.11617e-08
0.00560325
-1.55882e-09
3.2473e-08
-9.39251e-05
-6.15522e-08
-6.86121e-06
3.29188e-09
-9.44091e-07
5.58176e-08
0.00858021
6.33362e-07
-0.0072164
2.31931e-08
4.96351e-06
-6.19425e-06
-3.30033e-08
-2.81363e-06
8.87348e-09
4.83163e-08
-7.55819e-07
2.14125e-08
-0.00248294
1.42693e-07
4.98202e-09
2.55307e-08
1.5448e-06
0.000102952
2.81233e-08
0.00850074
3.13281e-08
1.34425e-07
9.84874e-05
8.42675e-08
-0.00179161
2.47608e-08
8.75284e-08
-2.78288e-06
3.97463e-08
-1.17088e-08
-2.24764e-06
-2.2707e-08
-2.10702e-06
0.00310453
-2.03802e-05
-0.00185313
1.79312e-08
-0.00519435
2.08115e-07
-2.37455e-09
-2.48867e-07
-5.12413e-06
1.35766e-07
-2.41305e-06
1.15736e-07
2.73327e-08
8.49194e-09
8.98745e-08
-4.34779e-08
-2.09014e-06
-0.00585669
-1.53661e-06
-2.20104e-08
3.70663e-08
1.90557e-08
8.65033e-07
1.60886e-07
1.36472e-05
5.49214e-07
1.06419e-07
-0.0014212
2.25172e-07
4.80681e-08
-0.00211873
7.29578e-05
0.0019081
-2.91593e-06
-0.00206501
2.04229e-06
3.4343e-07
-1.02081e-08
-0.000261242
7.4504e-08
-2.24321e-09
-7.38972e-05
2.81687e-08
1.7512e-07
-6.41765e-06
-4.20668e-08
3.46202e-06
-0.00392096
-2.18348e-08
-2.98852e-05
-4.01772e-07
-1.11983e-06
2.72619e-08
0.000214737
-6.35735e-06
-1.3733e-08
-0.0151608
1.22794e-08
1.01137e-06
0.00101416
-1.98467e-08
4.77723e-08
1.15492e-07
-7.46687e-06
1.66968e-08
-1.30489e-08
-7.94946e-09
3.02553e-08
2.83546e-08
-1.57289e-08
1.09476e-06
2.82198e-08
-2.9499e-08
-2.78905e-05
1.49204e-06
5.84361e-05
-0.0188096
-9.84628e-05
-0.0201938
-3.72764e-07
-4.6859e-09
-7.16852e-07
-1.27127e-08
0.00497387
1.29605e-08
-1.95748e-08
1.15137e-08
1.49517e-08
-1.34846e-07
-1.1396e-07
4.5021e-08
-2.10502e-05
9.98873e-08
-2.82813e-08
-0.000174759
6.21763e-08
-4.08003e-08
-1.82001e-06
-2.9497e-08
3.4825e-07
-1.23382e-06
-4.85238e-06
-3.51776e-08
-1.27834e-08
-3.28954e-08
-0.0002385
1.75842e-08
0.00124528
-2.71402e-08
0.00107347
9.36265e-08
1.67035e-07
1.50326e-06
2.45147e-08
-0.000103362
2.36662e-08
-0.0147366
-2.75479e-08
-2.09644e-08
-7.56174e-08
1.19997e-07
-0.00134449
-1.17408e-06
1.66064e-07
2.3563e-08
0.00410743
-8.38733e-08
-4.35512e-07
4.7578e-08
2.08938e-08
-1.35926e-06
-4.54439e-08
-2.04264e-06
-1.10732e-05
-3.11271e-05
6.204e-07
-3.81697e-08
-0.00325926
-1.6289e-05
6.24476e-09
-6.39495e-09
7.37144e-08
0.000411629
-4.7231e-08
-1.70729e-05
-3.70937e-05
-5.02566e-08
5.46261e-06
-3.21835e-07
1.37988e-07
-3.29893e-08
-1.14972e-07
3.47266e-07
-2.54875e-08
2.99771e-08
-2.91854e-09
-1.38058e-09
-0.00165861
-0.00260309
1.94352e-07
-2.21336e-07
-0.0023849
9.17389e-06
-9.05323e-06
1.23123e-08
1.66491e-05
-3.22096e-07
-7.00597e-09
6.54143e-07
-2.37744e-08
0.000881193
0.00020206
-4.87558e-06
-5.46172e-07
1.55449e-06
1.4304e-06
-4.26127e-05
-5.17332e-06
-2.60282e-08
-1.55993e-09
2.85908e-07
-1.27895e-08
-1.12441e-07
-4.48177e-07
-9.39565e-09
1.13203e-07
3.21346e-07
-4.09349e-08
-5.34285e-06
-0.00443721
6.61988e-07
1.30874e-07
6.16955e-07
-9.55216e-09
-2.45178e-06
-1.65335e-08
-8.91944e-08
-2.98138e-08
-6.90639e-08
-0.000425044
-3.47845e-08
-1.79066e-06
1.69985e-07
1.26304e-06
-2.58341e-05
7.31119e-09
-1.31859e-08
-5.0617e-06
1.14428e-07
-2.23603e-05
-7.30757e-07
-0.00281739
-2.69298e-06
-4.78521e-06
8.84775e-07
4.46558e-07
-7.66041e-08
-2.63055e-07
-5.22258e-07
-2.10331e-06
0.000497163
-0.0144179
-2.52081e-09
-4.64532e-07
-6.94523e-06
5.89709e-07
-2.77182e-09
1.36668e-08
-1.25395e-08
9.20081e-07
-0.00803352
0.000609618
0.000572239
1.05347e-06
-3.66173e-07
-0.000768796
-2.93683e-09
5.60249e-09
-3.49936e-07
-7.04609e-09
-2.36685e-08
2.68095e-08
-0.000224309
-5.02417e-08
-0.00165998
-1.5247e-08
1.46359e-07
6.86032e-07
7.24556e-06
-4.09879e-05
-3.5612e-08
0.000467517
2.52438e-07
-2.33252e-08
-5.99525e-09
7.10268e-07
0.00065314
-1.46809e-08
-3.07768e-08
-0.000876032
2.12982e-07
-2.50761e-08
8.67322e-06
5.23722e-07
-7.31876e-09
2.16515e-08
-1.11811e-07
-1.48879e-09
-1.09827e-07
-3.11831e-08
-2.91374e-08
1.33984e-07
-0.000915406
-0.000482151
-3.3765e-08
2.3864e-08
9.7113e-06
-1.54312e-08
-2.73438e-08
-0.000188863
-0.000535932
1.15172e-07
3.15462e-09
-5.74943e-08
6.41217e-06
6.81248e-08
-2.87802e-06
-2.62972e-07
-5.29707e-08
9.08472e-06
-3.61509e-07
1.22751e-07
-2.7646e-08
1.17301e-06
-3.17334e-08
1.13979e-06
-3.29874e-08
-2.07584e-06
2.77407e-07
3.95388e-08
1.41112e-08
-9.93814e-09
-2.90237e-07
1.28552e-07
3.25042e-06
-0.0192099
-0.000602202
4.00492e-07
9.39498e-06
-7.76464e-07
-1.34772e-08
4.62549e-08
-1.68907e-06
-2.92863e-08
1.20058e-06
2.94866e-07
1.86841e-06
-0.000990345
0.000421334
-5.79596e-05
-5.61845e-06
1.06376e-08
-0.00740054
1.27613e-07
-7.23209e-09
-4.29813e-05
-1.77039e-08
1.92148e-06
-8.29773e-08
-3.60607e-06
-1.50766e-08
4.39702e-07
-0.001771
-4.39933e-06
-6.59229e-08
-2.50861e-08
-4.51603e-06
2.17527e-07
-2.34345e-09
0.000379362
4.70117e-05
-5.63861e-09
-1.58e-06
3.30364e-06
-2.53569e-08
3.82403e-07
-5.50462e-08
0.00084442
-2.68434e-06
2.1734e-07
-1.33266e-07
-1.23496e-06
-2.39736e-08
3.40208e-08
4.025e-08
-2.2207e-05
-0.0233462
-4.07592e-08
4.58649e-08
-9.08164e-09
7.29431e-06
-2.21031e-06
-4.98104e-08
2.17989e-06
-2.11676e-06
-4.69295e-08
-0.000225282
4.93332e-06
8.95837e-08
-3.61351e-08
-2.48414e-06
6.99578e-06
0.0258555
-3.40683e-08
0.0166975
-2.45903e-08
-3.59201e-08
-2.94025e-06
1.75857e-07
-1.04379e-06
-7.38657e-08
2.47846e-08
1.6744e-06
9.18325e-08
8.76662e-06
2.55404e-07
-4.68858e-07
1.94499e-07
-1.90269e-08
-2.59727e-08
-2.19695e-08
5.26957e-06
-0.018509
-3.81052e-06
1.31241e-06
-2.93701e-08
2.07754e-07
-2.75678e-08
1.02741e-06
-1.68174e-07
4.15469e-08
-3.44701e-08
-2.50468e-06
-3.88963e-08
-2.10859e-07
0.0134046
0.0025725
-7.01409e-06
6.30665e-08
4.89439e-08
-6.97833e-08
1.01622e-07
0.000229498
-0.0059118
-2.01119e-07
2.19086e-07
-5.53998e-08
4.21079e-08
-1.34762e-07
-0.0221715
-1.07044e-06
6.36503e-08
-0.000177981
-1.9634e-08
7.25337e-05
-0.00886811
-3.42308e-07
3.17388e-07
-0.0213257
-1.16194e-08
-7.24895e-07
-1.01809e-06
0.00166713
2.66257e-07
-2.83027e-08
-4.43832e-08
0.00221235
0.0236411
0.00143835
-0.0035753
3.6749e-07
-4.41655e-08
6.90146e-08
-6.8465e-09
-5.53622e-07
-3.31016e-05
0.00254691
-0.0138016
-0.0023675
4.83405e-07
-7.88278e-07
8.76628e-07
3.85665e-09
-2.03155e-08
-3.41018e-06
-1.87746e-06
-1.2944e-08
-8.29242e-09
-0.00153027
-1.1064e-08
0.000239973
-6.75227e-07
4.84237e-06
6.46407e-06
-1.65531e-08
1.7062e-07
-5.71893e-06
-3.40476e-08
-0.00283688
-2.54439e-08
-1.85999e-05
-1.03702e-06
-2.42028e-08
9.80607e-07
-5.03836e-06
-5.84288e-06
3.51003e-08
6.10774e-09
-1.18869e-06
-3.48023e-07
4.8108e-06
-3.2908e-08
4.83002e-06
-1.54196e-08
-0.000552572
4.45636e-08
1.7029e-08
8.63467e-06
-1.18893e-05
-1.2258e-05
1.17703e-08
2.54688e-07
5.63306e-08
-0.000548344
-0.000473938
-3.21812e-07
-2.81801e-05
2.04881e-08
5.2443e-07
1.62594e-07
-2.84763e-07
-0.0117234
-1.92019e-08
-0.000534342
1.03355e-07
-5.00583e-09
-2.51921e-07
0.000273378
-1.59823e-07
-4.86781e-06
-2.48834e-07
-4.16889e-07
-0.000329866
-2.05739e-09
-4.67048e-09
0.00851499
-2.008e-06
0.0210412
-4.31588e-07
9.2761e-08
-1.29315e-08
1.48984e-07
1.53095e-06
3.0739e-07
-4.35064e-08
-1.00048e-05
-0.000111169
1.32077e-08
0.00212293
0.00109017
9.72424e-07
1.54339e-05
3.31916e-08
-7.53569e-07
0.000825774
1.56886e-08
0.000284853
-1.44361e-06
-0.0051935
-0.000470909
-5.99531e-08
1.58809e-07
-2.88628e-08
-0.000187403
8.1819e-07
-8.72462e-08
-6.54421e-08
-9.65835e-06
1.03336e-07
-1.42586e-06
1.88678e-07
-1.12424e-06
0.00204543
0.00161874
7.03927e-06
0.00145622
-2.03857e-06
0.00671005
1.94046e-07
2.06404e-08
4.09793e-07
-0.000332988
-1.81997e-05
6.84804e-07
-6.96344e-08
4.40886e-06
-8.8572e-09
1.54831e-07
0.0123927
-8.30984e-09
3.08934e-07
8.83139e-06
-4.79608e-06
-2.46474e-08
-1.17038e-08
-1.94676e-07
2.98277e-07
-5.613e-08
-1.92258e-07
9.63632e-07
-7.83118e-06
2.26428e-08
8.11849e-09
-2.54206e-06
-0.00111771
-7.58132e-08
0.000943292
-6.23315e-05
-4.54544e-08
0.0235331
-4.98615e-08
5.67382e-05
-2.96914e-08
-2.75806e-07
8.8083e-06
3.10286e-07
0.00176829
2.58413e-08
-1.26098e-08
0.0339726
-2.4825e-08
-9.53905e-09
-2.33213e-08
2.37189e-08
3.50527e-07
-1.94647e-06
-9.58492e-05
-2.33473e-08
-0.00568311
1.20062e-06
0.000656189
-0.00443967
4.03198e-07
2.78661e-09
2.4741e-07
2.17186e-08
7.00655e-06
6.64771e-09
1.77392e-08
5.14538e-08
-7.98485e-08
-3.3175e-08
3.05153e-05
1.38408e-06
-2.43611e-06
-1.01462e-06
-4.5286e-07
1.02397e-06
-2.76281e-06
0.000151547
-3.98914e-08
5.11315e-06
-2.76422e-06
-3.8898e-08
0.00115781
0.00108302
-2.18585e-08
0.000282232
4.35401e-08
4.92984e-05
-4.46548e-07
2.66385e-08
-1.13543e-06
3.98075e-07
0.000462577
-2.19319e-08
-2.92341e-07
0.0022212
-5.88352e-06
-5.7846e-05
-3.27085e-08
0.00118755
3.87362e-06
3.13306e-06
-3.32096e-08
-1.07416e-07
-1.20977e-07
8.8915e-08
-1.65338e-08
1.56406e-08
-1.48099e-08
0.000455096
1.23982e-06
-4.56547e-09
2.45487e-08
1.33633e-08
2.2179e-07
-4.36127e-06
3.83837e-06
-3.16298e-08
3.03402e-07
-3.34054e-09
-2.50322e-08
1.03956e-07
2.38913e-08
2.67722e-06
2.90873e-08
8.89824e-09
-3.49736e-08
6.756e-08
-1.46332e-06
-3.82652e-08
3.2795e-06
-2.59202e-05
-3.1333e-07
1.44835e-09
6.69004e-06
1.95684e-08
3.0321e-08
9.04212e-09
-0.000116338
1.19176e-06
-1.05805e-07
6.70427e-08
-3.22501e-08
1.54373e-06
1.67978e-08
1.30911e-06
2.27564e-09
1.26232e-07
-2.61423e-08
-1.01021e-07
0.000523026
1.77765e-08
8.07373e-08
-1.96165e-08
2.18034e-05
0.00177258
-5.23666e-07
3.16113e-07
-1.57672e-06
-9.74474e-07
1.11152e-05
-0.0250592
4.00999e-08
0.00113346
8.40499e-08
-0.006131
-2.41826e-07
-3.12602e-08
3.71466e-08
-0.00703197
7.9882e-08
-5.34192e-07
-3.55025e-05
9.17417e-06
-1.15897e-07
-7.48093e-08
-5.32883e-10
-1.30384e-08
-7.57882e-08
-4.64316e-07
2.26031e-06
0.000460654
-3.29235e-06
-2.15107e-08
1.37764e-08
6.20472e-08
-3.41846e-08
4.79833e-08
2.58742e-08
-2.68636e-06
1.11591e-06
-0.000300305
-1.93643e-08
-3.81948e-08
8.81291e-07
-1.19062e-08
7.11104e-06
-3.1852e-06
-2.22764e-06
9.32208e-06
-0.0073403
2.02591e-06
1.82308e-08
1.87778e-08
-3.68731e-08
-3.41076e-09
-0.00260571
5.39395e-07
7.15228e-06
-6.6894e-08
5.09e-08
1.19762e-06
7.09453e-08
-0.0246412
2.01819e-05
3.34997e-08
4.58084e-08
-1.20122e-09
-3.01155e-08
-5.29923e-09
1.99092e-09
6.24269e-06
9.8003e-08
-4.69016e-08
-6.37966e-08
7.4935e-09
-2.09051e-08
8.29195e-08
3.30115e-07
7.56182e-09
-5.27956e-06
5.48609e-08
-0.000921015
1.20584e-05
7.74032e-07
0.000978967
3.24271e-07
-5.04317e-08
3.425e-06
0.000461918
-9.55101e-09
-3.00434e-09
-1.61111e-08
2.2829e-06
-1.71115e-08
2.01276e-06
-2.15906e-05
9.23003e-08
2.92406e-07
-1.72756e-08
-0.00490501
0.000487269
-2.54646e-08
7.4048e-09
-1.91046e-06
-2.74496e-06
-3.57511e-08
-5.49161e-06
-7.51473e-10
-5.12464e-08
-3.33032e-07
-4.0231e-05
-0.00394154
0.000603459
6.33646e-06
8.72254e-09
5.43372e-06
-4.66011e-06
-1.73667e-06
-7.68937e-08
-4.63221e-06
-1.52135e-07
-3.96411e-05
-5.52184e-05
1.73062e-08
1.90721e-08
-2.29072e-08
-4.75218e-07
1.72445e-09
0.00103616
0.000349208
4.75126e-10
1.04831e-07
2.66708e-07
-8.2115e-07
-8.79335e-08
-1.49442e-07
3.66325e-05
2.24555e-07
2.26301e-08
0.000425533
-4.00354e-07
4.25032e-06
-2.22852e-09
-5.08756e-08
-4.10225e-09
4.43775e-07
-3.6203e-06
-1.79013e-05
-3.43272e-08
4.19136e-09
2.56974e-07
0.00128159
-2.64604e-08
-3.0933e-08
-5.84956e-06
-1.48897e-08
-2.61633e-08
-3.01955e-08
-0.000173204
-4.78732e-08
-3.65038e-08
-3.0024e-08
-3.16671e-07
-4.20293e-08
-4.9496e-07
8.48166e-06
-3.21911e-08
1.28698e-05
-1.11704e-06
6.77538e-06
-4.12124e-06
-1.45872e-08
-2.13811e-06
-5.5917e-08
-2.5082e-08
-1.63957e-08
8.39343e-05
0.000283873
-3.56583e-05
-7.3309e-07
0.00250291
3.97129e-06
1.71656e-07
9.94924e-07
2.01291e-05
-1.66897e-06
-3.56902e-08
0.00237926
-1.11707e-07
-1.07727e-08
6.78507e-09
-0.000703311
-0.000134895
7.66528e-05
-2.06471e-08
5.71861e-06
0.000937622
-3.97561e-06
2.71165e-06
6.07275e-07
1.28138e-06
-5.38175e-07
4.95228e-05
8.74506e-07
-1.19508e-07
9.48155e-07
-0.00860323
-6.55054e-07
-8.59305e-08
3.22627e-08
5.7606e-08
-0.0184287
4.95786e-07
2.25063e-07
0.00190319
-5.30809e-07
1.14883e-06
6.15807e-07
0.00108809
-7.40438e-09
-0.00544951
2.34038e-08
6.71389e-09
2.5675e-08
-6.37627e-08
-4.83617e-09
-2.56709e-08
1.37509e-07
0.00039791
6.11798e-09
-0.00441389
-6.50047e-07
-4.49993e-08
2.27345e-09
-8.48865e-07
-7.29361e-08
1.95396e-08
5.41418e-07
0.00540678
2.06175e-05
2.83855e-07
1.10181e-08
-0.0173839
-4.08833e-09
-3.02449e-06
8.73081e-09
2.12789e-05
2.88666e-06
-0.00147095
-2.01511e-07
-5.06065e-09
4.85439e-06
0.00315488
2.9473e-05
2.19041e-09
-2.70307e-08
-2.69834e-07
-0.0117821
2.44483e-08
-3.82526e-06
-1.16827e-06
1.92363e-06
-3.0954e-08
-3.70578e-08
2.40522e-07
2.49497e-08
-2.93593e-08
1.03642e-06
-6.51437e-08
-2.26575e-07
8.06097e-06
0.0013837
4.35279e-08
0.000886768
2.63861e-08
6.72897e-06
-0.00402498
9.96351e-06
-5.11062e-08
-2.98248e-07
1.28128e-08
0.0178879
-1.79572e-09
-4.68769e-09
5.53322e-06
9.80751e-08
-5.35696e-09
-6.24481e-09
2.90183e-08
2.26776e-08
-0.00928449
-0.00249102
-1.1221e-07
-2.66669e-08
-2.82794e-08
-1.15164e-05
3.17397e-08
-3.73038e-05
-4.97066e-08
6.65622e-09
-7.03409e-08
-7.47017e-07
4.16486e-06
-9.37256e-07
-4.27469e-08
0.0199982
1.17243e-07
3.25431e-08
-2.55899e-07
-0.0247647
-0.000421206
-4.19737e-08
1.89589e-07
-0.00224241
-0.000257529
-8.37619e-05
2.2398e-07
-5.49468e-07
7.31302e-06
-4.47003e-08
6.94053e-06
8.69141e-07
-1.746e-06
4.137e-07
-2.32251e-08
2.99354e-08
1.36467e-08
-0.00883502
-4.42581e-08
-2.63366e-08
0.00158607
7.98857e-07
0.00014968
1.98402e-08
1.61431e-07
-1.91663e-08
1.84461e-08
1.45444e-08
-6.86151e-07
-2.21537e-08
2.38743e-07
1.54212e-08
1.4767e-07
-3.7297e-06
1.87105e-06
9.2549e-07
-9.31581e-09
1.09876e-06
-3.70513e-08
0.000297635
-5.66579e-08
4.63118e-08
-1.6927e-08
4.49586e-08
2.10871e-07
-2.76271e-07
2.46299e-08
-1.44392e-08
8.70887e-08
-1.9102e-10
0.000806466
0.000227968
2.80723e-08
-0.0122409
-1.3721e-06
4.26771e-08
-3.54025e-08
2.50079e-08
0.00712568
-6.13459e-07
3.59055e-08
6.52135e-09
-2.7549e-08
-0.000126064
-9.79239e-08
-4.40689e-08
-2.63843e-06
1.25709e-08
1.33311e-08
3.70238e-06
3.73399e-06
-5.21659e-06
9.53972e-06
0.0326809
1.6049e-08
-0.00225844
-4.49436e-07
6.24303e-09
-1.98108e-08
-1.63584e-07
6.18948e-09
-8.42279e-07
-4.15077e-06
1.02247e-06
-5.11579e-08
0.0128607
-7.20755e-05
0.0104586
0.00499922
0.000732644
1.7099e-06
-1.38099e-07
0.00116966
-0.000302998
1.6191e-08
-0.00500508
-1.8066e-08
-1.14051e-08
6.87217e-06
-4.28098e-08
4.10882e-05
4.00907e-07
1.70402e-07
5.52629e-07
0.000159821
-3.75344e-08
-0.00459465
2.2037e-08
7.05978e-08
0.00649236
-5.7129e-10
-1.50863e-07
-4.79841e-08
-3.87763e-06
-3.05738e-09
-3.12919e-08
1.93401e-07
0.000430144
4.07709e-08
-9.83377e-08
7.81049e-08
-1.73305e-07
2.76536e-09
-1.02546e-08
-0.000103578
3.05599e-08
-4.32021e-07
6.18665e-08
-4.51605e-07
4.3063e-06
-6.86471e-10
-5.4762e-08
6.58732e-06
-1.37754e-08
-2.94616e-07
-4.34779e-07
0.00152344
3.50026e-07
-1.64877e-08
-2.89651e-08
-1.63772e-06
-6.80744e-06
5.58855e-07
-1.95852e-08
2.98013e-08
3.38858e-09
2.52838e-08
-2.37951e-08
1.00741e-06
-1.73703e-05
-3.9608e-06
9.26185e-08
0.00400843
-7.62458e-08
3.75333e-07
-0.018578
6.47126e-07
-5.44395e-08
-5.60965e-06
6.63899e-07
-1.92239e-08
-0.000149496
1.81639e-07
-2.85526e-06
-4.76785e-08
1.01729e-05
1.94632e-08
-5.41898e-08
-4.2635e-08
9.2615e-05
-3.81825e-06
7.69822e-09
-5.8726e-06
-4.35535e-08
-1.28174e-07
-2.57377e-08
6.40846e-06
-1.32054e-08
4.09297e-09
4.83025e-07
1.84371e-07
3.52369e-09
7.51068e-08
3.39517e-09
-3.89945e-07
9.33622e-08
-4.66776e-08
1.21135e-06
5.09107e-08
0.000285999
2.49888e-07
7.41029e-08
-5.85132e-05
-5.77209e-07
2.54823e-08
-8.48771e-08
-4.76377e-08
-6.24231e-08
-8.13226e-07
-3.4852e-07
-1.25125e-07
4.93989e-06
6.45316e-08
3.75812e-06
1.13033e-05
3.94411e-09
3.14622e-07
5.22037e-06
-1.54938e-06
0.0013801
-4.073e-08
4.10385e-07
-3.70519e-07
1.49272e-07
-1.15931e-06
-4.18147e-07
-2.1723e-09
-2.50494e-06
-8.1896e-08
-1.50784e-06
-1.69966e-07
5.57961e-06
-1.73027e-08
-2.89856e-07
4.32709e-06
1.45284e-07
-0.000433384
0.00249355
2.07101e-07
6.94514e-07
-7.27734e-07
-4.58368e-08
-1.51304e-06
7.04197e-08
-1.96113e-06
0.00187089
-0.000114101
-2.57963e-06
-4.32873e-06
-1.9241e-06
-1.27111e-07
-9.64924e-07
7.87222e-09
-0.0213277
-8.67487e-06
6.57515e-09
2.59603e-08
-4.898e-05
-3.16127e-07
2.00272e-08
-1.61991e-08
-0.00144697
-3.73248e-08
6.3914e-09
0.00313578
1.47754e-06
1.96657e-08
-1.08932e-05
1.97654e-08
0.000141448
2.01893e-06
1.21496e-08
-3.62409e-08
7.96465e-07
-2.16157e-05
-4.04791e-08
-5.16128e-07
-3.23004e-08
6.46277e-09
-1.80248e-08
0.00114221
-1.32505e-08
1.31665e-07
-6.91863e-08
-5.18219e-06
-5.57924e-07
-4.46694e-08
-3.89079e-08
7.5971e-06
-1.53333e-08
-1.68709e-08
-1.7464e-05
-0.0245834
-6.14468e-08
8.08792e-06
7.68196e-07
7.16324e-07
-1.60498e-07
2.36908e-08
-0.000121402
-1.97667e-06
3.72257e-07
-6.52861e-08
-2.11873e-07
7.80224e-10
0.00318962
0.00027912
-5.91519e-09
2.9526e-07
2.9834e-08
6.55894e-08
0.029252
2.02127e-09
5.86252e-07
6.11285e-09
4.23832e-06
-3.47322e-08
6.40184e-08
-3.53439e-07
-0.000811558
-2.79137e-08
1.56125e-07
4.21577e-09
-4.03353e-09
-1.93305e-07
7.15609e-07
-1.68519e-07
-3.99924e-08
1.27822e-07
-4.37762e-08
-6.56317e-08
-0.00719633
1.27527e-07
1.59411e-07
-4.10419e-08
2.5695e-06
2.04559e-09
-1.55762e-08
-2.20599e-06
-1.95604e-07
4.00017e-06
-9.42073e-08
-4.38597e-08
0.000800738
-0.0151258
-0.000258391
2.73335e-05
5.96577e-07
4.7561e-07
0.00146906
-8.16971e-08
-3.34165e-07
1.01847e-07
0.00371348
9.68901e-09
-1.65135e-07
-3.3028e-08
-0.00308705
-1.8876e-07
5.37841e-05
0.00172606
3.85441e-07
-2.19941e-06
6.77459e-09
3.03828e-07
0.00669637
-1.39073e-06
-1.28714e-09
1.62348e-08
-1.6486e-07
-2.09422e-06
-3.00479e-08
1.58118e-07
-8.43309e-08
-5.07212e-08
1.83841e-05
0.000732209
4.9593e-08
3.217e-06
-0.0377254
8.83979e-05
-1.50729e-06
-8.4982e-07
-1.17788e-07
-3.00103e-07
-8.91061e-10
-2.62831e-07
3.23941e-05
8.68979e-09
2.58335e-08
1.65431e-08
4.0401e-05
-0.000168553
-4.86567e-07
9.19397e-08
3.34223e-07
-2.58231e-07
-2.38963e-08
4.84056e-07
-2.43495e-06
-8.03694e-07
-7.4159e-09
0.000126634
-4.56088e-09
2.09909e-08
-6.34112e-08
-4.39924e-08
-3.33213e-08
-7.33637e-09
1.36203e-05
-1.96546e-08
-0.0014019
8.45052e-08
-2.23265e-09
6.05519e-10
3.57911e-06
3.03293e-07
2.38624e-07
-4.43699e-06
-2.16167e-08
0.0258847
2.03777e-06
5.64436e-09
-4.23893e-08
0.00151298
0.000727861
-3.55497e-08
-3.41335e-08
-1.1149e-07
-3.30489e-07
1.00234e-05
1.22287e-05
4.18714e-07
-4.50808e-07
8.5189e-06
0.000641996
1.3071e-07
-2.1139e-08
-0.0116917
-2.5747e-07
-0.000147018
8.33896e-07
-3.08224e-08
7.86602e-07
2.86869e-06
-0.0139652
3.53013e-06
0.000170152
2.3176e-09
-9.58106e-08
3.97254e-08
-2.63696e-08
-2.04648e-07
8.00599e-08
-4.23977e-08
-2.74981e-08
-3.76513e-07
-2.3595e-07
-3.9402e-07
-7.10077e-09
1.35516e-08
2.34813e-07
-2.25012e-08
-1.18725e-07
-1.22878e-06
1.33419e-06
9.05079e-09
-2.52729e-08
1.95964e-05
-2.81496e-08
-1.80915e-06
5.24376e-07
0.00011613
-1.41358e-08
-6.81823e-07
-9.7899e-07
5.09124e-08
-1.01427e-07
0.000144235
-1.52774e-05
-1.5392e-08
5.64133e-08
4.32035e-07
-2.53912e-06
3.51549e-09
-1.17588e-07
1.11308e-06
-2.51067e-08
-1.51229e-06
3.15892e-08
-2.48644e-08
-1.15794e-06
-3.65532e-07
-7.49674e-07
-5.79176e-05
-0.0065937
2.6629e-06
7.08231e-08
-3.21695e-08
1.27764e-08
7.19578e-06
-2.88993e-08
0.000507389
-2.13427e-08
-3.63372e-08
-3.11756e-08
4.30898e-06
-8.26686e-08
-3.56566e-08
-9.38438e-08
1.0288e-05
-1.45646e-08
0.0307534
2.50828e-09
1.95977e-06
-3.77489e-08
-5.38869e-07
-1.44217e-08
-2.30493e-07
7.04639e-05
9.40507e-07
6.61516e-08
-2.15914e-06
-2.66198e-08
3.5713e-09
-0.00341993
0.000340391
2.31519e-08
9.08066e-09
-1.65737e-06
-3.33063e-08
-9.83054e-08
-6.97423e-08
-4.38261e-08
1.01788e-06
1.42891e-06
5.8532e-08
-6.3446e-07
-4.40208e-05
3.62121e-07
-1.29889e-08
-2.47438e-09
-5.08925e-07
-1.10916e-06
-3.15918e-08
-0.0139188
-4.59848e-08
0.00198012
9.44266e-08
2.81676e-08
-3.14917e-08
-3.13656e-08
-0.000111657
7.20823e-09
1.09131e-06
3.43259e-08
-4.08036e-07
0.000747145
-1.16025e-06
-1.07353e-06
-4.42662e-08
4.45875e-09
-1.58439e-07
-4.83102e-09
-1.20161e-06
-3.24389e-08
-1.42018e-06
2.75175e-08
2.48677e-07
-0.0041141
-8.28774e-06
0.00250578
-1.74168e-08
3.79468e-06
4.42324e-07
0.0016925
-5.47939e-06
0.000145143
4.84035e-07
9.05681e-08
3.41569e-08
2.65848e-08
-0.00188874
-9.567e-08
-5.70005e-06
3.00171e-07
-0.00135707
0.00453583
3.31628e-07
-5.60559e-07
-3.49302e-08
-5.17233e-09
-7.11812e-08
-4.93576e-08
-1.75748e-08
8.13739e-09
-2.86e-08
2.39697e-07
-1.79483e-05
0.00122978
-1.30758e-08
-6.94874e-06
1.02943e-08
6.56294e-09
3.12163e-08
5.65932e-06
5.77965e-08
-4.41665e-05
-2.76985e-08
-2.26786e-07
0.0357523
5.37353e-09
1.05332e-06
6.00802e-08
1.06673e-06
0.000431259
-8.93755e-07
-0.0114866
4.70999e-07
-5.45269e-06
-1.05128e-07
-1.93787e-08
-3.23669e-07
1.30587e-06
4.48629e-08
8.66409e-09
-1.54744e-07
-2.34204e-08
-0.00200723
-5.89543e-09
-0.00821622
0.000958613
-5.27742e-06
3.93181e-07
-8.07099e-06
3.58658e-06
-5.3693e-08
0.00456227
5.54131e-09
-0.00485014
1.7557e-07
1.79712e-08
-0.00186979
-0.00104512
-1.3934e-07
0.00799407
-3.35751e-08
0.000802522
9.53646e-09
-0.000209826
-2.42009e-08
-3.70272e-06
-1.04478e-06
1.13392e-07
-2.17378e-08
1.17037e-07
-9.67605e-08
-1.3304e-06
0.00139299
-1.70653e-06
0.000628944
-2.30056e-08
0.00204914
-3.42841e-08
-5.17814e-07
-1.40418e-07
4.66828e-08
-0.0018287
-2.6557e-07
-3.92292e-09
-8.25518e-09
-5.94159e-08
0.00107034
-4.93001e-06
9.18449e-09
1.54904e-06
-2.12766e-06
-5.13019e-08
-4.08579e-08
4.79898e-07
3.73509e-09
1.72879e-06
-7.90588e-07
6.13709e-07
-2.77668e-07
-2.98634e-08
5.25484e-09
2.30704e-06
3.04593e-07
-4.15283e-08
-9.98918e-08
-5.32639e-08
3.60428e-08
0.0292957
4.86222e-07
-0.0109421
-7.62554e-07
1.49334e-06
1.26884e-06
-3.88732e-08
-7.26577e-07
-1.32006e-08
-1.16231e-08
0.000337333
5.60421e-08
4.5138e-06
-3.87094e-06
-3.58563e-07
-1.0959e-05
-0.00627737
-1.96022e-07
-7.08433e-07
4.14748e-06
-0.000986723
2.84534e-09
7.36824e-08
4.02968e-07
2.94351e-06
0.000896781
-2.31016e-07
-2.638e-07
2.18592e-07
-5.97576e-09
3.75541e-08
-0.00063973
1.23828e-06
-3.6126e-06
-0.00189243
-2.14643e-08
6.09218e-07
6.88476e-07
-2.5011e-08
1.84954e-08
-1.01559e-07
1.67188e-06
-6.51869e-06
2.44499e-07
-5.05639e-07
1.18079e-05
-2.0772e-07
-1.32504e-08
3.60191e-07
-3.73456e-08
-0.00236909
0.0006936
-0.00121609
-5.66086e-06
0.00113076
5.56308e-07
-5.90853e-09
4.51839e-05
2.9516e-06
6.06723e-07
-1.20753e-07
-4.20136e-08
0.00122179
0.000553047
-2.6089e-08
-3.15108e-08
-1.6245e-07
-3.85816e-05
-7.98304e-07
1.83149e-08
-0.0080026
-1.11278e-07
-9.05149e-07
-1.79667e-08
1.06763e-06
1.66552e-08
-4.08214e-07
6.53508e-07
-5.07164e-09
-0.00704795
-4.08159e-08
-2.41875e-06
-7.05191e-06
0.000831085
-7.39147e-06
-1.79042e-09
2.93383e-06
-3.50788e-07
2.09434e-08
-1.7611e-07
-1.32027e-06
1.45425e-08
4.55855e-07
0.000231283
-1.76583e-07
0.000291072
-3.8362e-08
6.14963e-06
1.27003e-08
-2.75366e-08
-0.00274505
-3.79559e-07
6.78848e-06
3.59186e-06
-9.07365e-08
-0.0184754
-0.00756978
1.1465e-09
0.028773
-3.68186e-08
-2.05132e-08
-4.78494e-08
-3.47085e-05
0.0301785
-7.92585e-08
-2.18063e-08
3.7181e-07
7.8255e-08
0.00263553
-1.10997e-05
1.54278e-08
-4.10943e-08
5.35376e-10
1.13749e-05
8.99135e-07
-0.000135064
-3.28377e-09
-0.00802991
-1.65742e-07
-4.78664e-06
-0.0111566
-1.63606e-08
-1.07524e-08
-9.08571e-08
-0.000988523
2.53216e-08
-2.5471e-08
6.96723e-08
-6.5145e-07
-1.35419e-06
-0.00750464
1.03227e-07
1.71495e-07
7.12449e-09
-4.74615e-07
7.62642e-06
4.82873e-07
-1.89859e-08
-1.56035e-07
1.02825e-05
1.03194e-06
-2.7205e-07
-0.00218511
1.76733e-06
3.51388e-07
0.0211459
-1.45069e-07
3.7489e-07
-4.51128e-08
0.000135937
6.44945e-08
6.36025e-08
0.00390399
-5.92421e-07
-2.45863e-08
-2.98364e-08
5.23493e-09
3.20752e-06
-5.60148e-06
2.05046e-08
-1.95095e-08
3.74299e-07
2.865e-06
3.51564e-06
-1.32115e-08
1.55979e-08
-2.22882e-09
2.28372e-06
1.94746e-07
-1.59697e-07
-1.82622e-08
0.00515611
-4.22589e-08
0.00178794
-1.37888e-06
-8.6739e-07
4.52749e-07
-9.55528e-08
-3.88642e-08
0.0248865
-6.84307e-06
3.32853e-06
-0.0060672
-1.22815e-06
4.61314e-09
-0.00285927
1.96741e-08
3.87108e-06
0.00370416
2.31332e-06
-1.66467e-08
-1.82389e-07
4.45966e-06
9.07163e-10
-8.85879e-08
0.0336399
5.97921e-09
4.91648e-07
-3.83499e-07
-2.82147e-07
-6.17848e-08
-3.1912e-06
6.31381e-06
8.85911e-11
-2.49638e-08
-0.00891556
-1.09467e-09
4.67605e-08
-1.70656e-08
-3.56988e-08
-4.74409e-05
1.91996e-06
3.25103e-07
1.40084e-08
-3.23026e-08
2.87166e-08
-6.43734e-07
5.0387e-06
-6.46538e-07
-0.000526889
2.83216e-07
3.82114e-07
-0.00586019
7.19146e-09
-1.00362e-09
-1.1989e-07
-5.79205e-08
7.9902e-08
-4.77212e-08
-7.45196e-07
0.00633573
-2.33246e-08
-3.91104e-08
1.56805e-09
4.99521e-09
0.000624229
1.13998e-08
-0.0109534
8.43561e-06
3.12224e-06
-9.27512e-07
0.000392228
5.00167e-07
-6.99511e-08
7.88056e-07
-3.48276e-09
3.25556e-07
1.22584e-06
1.15742e-07
-0.000543125
1.17056e-08
2.23961e-08
-3.08673e-06
-0.000235315
2.59629e-09
-5.5978e-09
7.87794e-06
6.80361e-07
3.51435e-06
-1.86423e-08
-2.76883e-09
-1.1915e-08
0.0271759
2.19009e-07
0.000317942
-3.70051e-06
4.45657e-08
-8.28036e-09
-3.02259e-07
-6.37324e-07
0.00130092
2.66383e-08
1.06111e-06
-3.55798e-08
-0.0105122
7.00054e-06
-6.66039e-07
8.03307e-06
-4.33615e-08
3.47225e-07
-1.7639e-06
-0.000252472
1.67023e-06
1.29838e-06
-9.25553e-07
0.000896549
3.74613e-08
4.04303e-06
-3.85329e-08
-8.98159e-06
1.05692e-05
6.46105e-06
-7.0772e-09
6.90663e-07
0.000835543
0.00465924
8.31739e-07
-1.38952e-07
0.00126816
0.0013259
-5.31011e-08
1.83812e-06
-7.41909e-08
5.04292e-07
2.05564e-08
-2.35046e-08
-2.01849e-08
0.0334298
3.11389e-08
-6.32548e-08
-8.8989e-07
5.46014e-05
0.00542509
9.07984e-06
-0.00176813
-4.39164e-08
0.00109371
-2.09629e-06
5.88673e-08
-1.95129e-08
0.00154783
7.87165e-07
-3.86143e-08
-3.97861e-09
-2.40861e-06
-1.28603e-08
7.63048e-09
-0.0305402
1.56861e-08
5.32089e-08
-2.3126e-08
-3.46374e-08
-1.01908e-07
-2.96029e-08
0.00676851
1.69643e-06
8.71707e-07
-6.14571e-08
9.62169e-07
0.00725384
3.53655e-08
3.19148e-09
0.00175992
1.6803e-05
-3.18034e-08
-3.20128e-07
-1.37477e-08
3.01445e-09
-1.39046e-05
9.50248e-06
5.07284e-09
-2.7329e-07
0.0019404
-1.82641e-05
0.00135159
-1.13248e-06
-7.17082e-07
0.000375406
-9.93631e-08
-3.82037e-07
-2.91999e-07
-5.63988e-08
0.0475663
-0.00105201
-1.91104e-06
-5.76573e-06
-0.00645038
-4.33866e-08
-4.188e-08
7.3464e-07
-1.80536e-06
-0.00238935
2.73429e-08
-1.15927e-06
-0.00249334
-0.0226553
-4.20209e-08
-9.36013e-08
-0.000214842
-2.57404e-07
1.8939e-07
-0.000567934
1.57184e-08
7.02082e-09
-1.61998e-07
2.27641e-05
-1.54629e-07
6.27691e-08
2.67844e-07
-6.31337e-08
9.72755e-07
0.000835807
-6.78411e-08
-3.54112e-08
1.30997e-06
-1.70555e-07
4.81699e-06
-6.8774e-07
7.71403e-06
7.50639e-06
-1.41819e-08
4.94814e-08
-0.00138427
-0.0303575
0.000549756
-2.00401e-08
-3.12088e-08
2.0848e-08
-3.33295e-08
1.90613e-08
-2.68658e-08
-4.85972e-06
-3.92356e-08
1.53722e-08
-3.43407e-08
-4.96058e-06
-5.02268e-07
7.00447e-07
0.000296241
-1.61834e-06
8.02774e-07
7.32968e-07
7.26677e-06
-6.8162e-06
-9.09541e-07
2.65337e-07
5.62398e-07
-4.12593e-08
0.0180203
-2.80328e-08
8.82172e-09
-5.96397e-08
-0.00151645
4.3423e-08
-0.000789067
1.94031e-07
2.79904e-09
-1.69669e-06
-6.41765e-08
-2.79958e-08
-6.55077e-08
2.61879e-06
-3.4255e-05
-2.64578e-07
-4.40094e-08
-1.13326e-07
-0.0171559
9.06072e-07
0.00122323
-1.36549e-07
-1.049e-06
-1.86155e-07
-2.62735e-08
7.17446e-08
-2.17367e-08
-3.14884e-08
2.35331e-06
-0.00102577
-3.59449e-07
-2.10348e-07
9.02232e-06
-0.00895126
7.70805e-06
6.2334e-08
-2.57928e-06
-2.42622e-07
-0.00739874
-1.30517e-08
-3.88316e-08
1.10393e-06
-3.19292e-05
3.97857e-08
5.29101e-08
-2.04034e-08
3.01298e-08
7.78189e-06
-4.02472e-09
-4.82937e-06
-1.89035e-06
3.2532e-08
1.99322e-06
-2.65216e-08
-0.00616924
-2.36811e-09
-1.354e-05
-5.917e-08
-7.16843e-07
-8.42966e-08
-1.18485e-06
0.00127333
-5.19668e-09
7.81176e-07
-0.0304886
-1.91554e-08
1.0153e-07
-1.04366e-07
9.31295e-09
0.0332434
3.86056e-07
1.26684e-07
1.81338e-06
-1.08357e-08
4.31339e-07
4.33158e-08
5.18198e-09
7.29361e-08
-4.89152e-08
-6.89437e-08
-1.75684e-08
-3.49219e-08
5.00387e-07
4.35349e-07
-2.66962e-08
-1.17655e-07
-4.07517e-08
1.22967e-08
-5.82335e-07
-3.78268e-06
1.48797e-07
-2.19582e-09
8.48076e-09
-1.16962e-09
-3.30242e-06
-0.00382117
-2.17975e-07
1.53663e-08
-5.92229e-08
-3.68067e-08
-9.93218e-07
2.24606e-08
-2.33589e-08
-0.00587347
-5.98825e-06
9.11678e-07
-2.63231e-08
4.32432e-07
-5.80416e-08
-1.06924e-09
5.62646e-06
5.97518e-09
-8.08106e-06
1.67792e-08
2.81029e-05
-6.37368e-07
-0.00266044
-2.27439e-07
-5.10966e-06
0.0349515
-0.00160437
0.000317361
-1.02393e-07
0.0011881
-0.0302278
-2.19114e-08
-1.4948e-07
-0.0240247
9.37742e-08
-2.10797e-08
1.97755e-08
1.2492e-07
0.000118502
8.01604e-08
-5.518e-09
-0.00403727
1.34614e-08
-2.84383e-08
-0.00278458
0.0152206
5.09163e-06
0.000518909
-0.0010636
-1.84945e-08
-3.88716e-06
-7.47143e-07
-1.10523e-06
-0.000559749