/*--------------------------------*- C++ -*----------------------------------*\
| =========                 |                                                 |
| \\      /  F ield         | OpenFOAM: The Open Source CFD Toolbox           |
|  \\    /   O peration     | Version:  v2012                                 |
|   \\  /    A nd           | Website:  www.openfoam.com                      |
|    \\/     M anipulation  |                                                 |
\*---------------------------------------------------------------------------*/
FoamFile
{
    version     2.0;
    format      ascii;
    class       pointVectorField;
    location    "450";
    object      pointDisplacement;
}
// * * * * * * * * * * * * * * * * * * * * * * * * * * * * * * * * * * * * * //

dimensions      [0 1 0 0 0 0 0];


internalField   nonuniform List<vector> 
18854
(
(0 0 0)
(0 0 0)
(0 0 0)
(0 0 0)
(0 0 0)
(0 0 0)
(0 0 0)
(0 0 0)
(0 0 0)
(0 0 0)
(0 0 0)
(0 0 0)
(0 0 0)
(0 0 0)
(0 0 0)
(0 0 0)
(0 0 0)
(0 0 0)
(0 0 0)
(0 0 0)
(0 0 0)
(0 0 0)
(0 0 0)
(0 0 0)
(0 0 0)
(0 0 0)
(0 0 0)
(0 0 0)
(0 0 0)
(0 0 0)
(0 0 0)
(0 0 0)
(0 0 0)
(0 0 0)
(0 0 0)
(0 0 0)
(0 0 0)
(0 0 0)
(0 0 0)
(0 0 0)
(0 0 0)
(0 0 0)
(0 0 0)
(0 0 0)
(0 0 0)
(0 0 0)
(0 0 0)
(0 0 0)
(0 0 0)
(0 0 0)
(0 0 0)
(0 0 0)
(0 0 0)
(0 0 0)
(0 0 0)
(0 0 0)
(0 0 0)
(0 0 0)
(0 0 0)
(0 0 0)
(0 0 0)
(0 0 0)
(0 0 0)
(0 0 0)
(0 0 0)
(0 0 0)
(0 0 0)
(0 0 0)
(0 0 0)
(0 0 0)
(0 0 0)
(0 0 0)
(0 0 0)
(0 0 0)
(0 0 0)
(0 0 0)
(0 0 0)
(0 0 0)
(0 0 0)
(0 0 0)
(0 0 0)
(0 0 0)
(0 0 0)
(0 0 0)
(0 0 0)
(0 0 0)
(0 0 0)
(0 0 0)
(0 0 0)
(0 0 0)
(0 0 0)
(0 0 0)
(0 0 0)
(0 0 0)
(0 0 0)
(0 0 0)
(0 0 0)
(0 0 0)
(0 0 0)
(0 0 0)
(0 0 0)
(0 0 0)
(0 0 0)
(0 0 0)
(0 0 0)
(0 0 0)
(0 0 0)
(0 0 0)
(0 0 0)
(0 0 0)
(0 0 0)
(0 0 0)
(0 0 0)
(0 0 0)
(0 0 0)
(0 0 0)
(0 0 0)
(0 0 0)
(0 0 0)
(0 0 0)
(0 0 0)
(0 0 0)
(0 0 0)
(0 0 0)
(0 0 0)
(0 0 0)
(0 0 0)
(0 0 0)
(0 0 0)
(0 0 0)
(0 0 0)
(0 0 0)
(0 0 0)
(0 0 0)
(0 0 0)
(0 0 0)
(0 0 0)
(0 0 0)
(0 0 0)
(0 0 0)
(0 0 0)
(0 0 0)
(0 0 0)
(0 0 0)
(0 0 0)
(0 0 0)
(0 0 0)
(0 0 0)
(0 0 0)
(0 0 0)
(0 0 0)
(0 0 0)
(0 0 0)
(0 0 0)
(0 0 0)
(0 0 0)
(0 0 0)
(0 0 0)
(0 0 0)
(0 0 0)
(0 0 0)
(0 0 0)
(0 0 0)
(0 0 0)
(0 0 0)
(0 0 0)
(0 0 0)
(0 0 0)
(0 0 0)
(0 0 0)
(0 0 0)
(0 0 0)
(0 0 0)
(0 0 0)
(0 0 0)
(0 0 0)
(0 0 0)
(0 0 0)
(0 0 0)
(0 0 0)
(0 0 0)
(0 0 0)
(0 0 0)
(0 0 0)
(0 0 0)
(0 0 0)
(0 0 0)
(0 0 0)
(0 0 0)
(0 0 0)
(0 0 0)
(0 0 0)
(0 0 0)
(0 0 0)
(0 0 0)
(0 0 0)
(0 0 0)
(0 0 0)
(0 0 0)
(0 0 0)
(0 0 0)
(0 0 0)
(0 0 0)
(0 0 0)
(0 0 0)
(0 0 0)
(0 0 0)
(0 0 0)
(0 0 0)
(0 0 0)
(0 0 0)
(0 0 0)
(0 0 0)
(0 0 0)
(0 0 0)
(0 0 0)
(0 0 0)
(0 0 0)
(0 0 0)
(0 0 0)
(0 0 0)
(0 0 0)
(0 0 0)
(0 0 0)
(0 0 0)
(0 0 0)
(0 0 0)
(0 0 0)
(0 0 0)
(0 0 0)
(0 0 0)
(0 0 0)
(0 0 0)
(0 0 0)
(0 0 0)
(0 0 0)
(0 0 0)
(0 0 0)
(0 0 0)
(0 0 0)
(0 0 0)
(0 0 0)
(0 0 0)
(0 0 0)
(0 0 0)
(0 0 0)
(0 0 0)
(0 0 0)
(0 0 0)
(0 0 0)
(0 0 0)
(0 0 0)
(0 0 0)
(0 0 0)
(0 0 0)
(0 0 0)
(0 0 0)
(0 0 0)
(0 0 0)
(0 0 0)
(0 0 0)
(0 0 0)
(0 0 0)
(0 0 0)
(0 0 0)
(0 0 0)
(0 0 0)
(0 0 0)
(0 0 0)
(0 0 0)
(0 0 0)
(0 0 0)
(0 0 0)
(0 0 0)
(0 0 0)
(0 0 0)
(0 0 0)
(0 0 0)
(0 0 0)
(0 0 0)
(0 0 0)
(0 0 0)
(0 0 0)
(0 0 0)
(0 0 0)
(0 0 0)
(0 0 0)
(0 0 0)
(0 0 0)
(0 0 0)
(0 0 0)
(0 0 0)
(0 0 0)
(0 0 0)
(0 0 0)
(0 0 0)
(0 0 0)
(0 0 0)
(0 0 0)
(0 0 0)
(0 0 0)
(0 0 0)
(0 0 0)
(0 0 0)
(0 0 0)
(0 0 0)
(0 0 0)
(0 0 0)
(0 0 0)
(0 0 0)
(0 0 0)
(0 0 0)
(0 0 0)
(0 0 0)
(0 0 0)
(0 0 0)
(0 0 0)
(0 0 0)
(0 0 0)
(0 0 0)
(0 0 0)
(0 0 0)
(0 4.86981e-06 0)
(0 4.45323e-06 0)
(0 4.2886e-06 0)
(0 4.84807e-06 0)
(0 3.8336e-06 0)
(0 3.80358e-06 0)
(0 2.45511e-06 0)
(0 2.38068e-06 0)
(0 3.28489e-06 0)
(0 1.63582e-06 0)
(0 1.27894e-06 0)
(0 4.66608e-06 0)
(0 4.30987e-06 0)
(0 2.72753e-06 0)
(0 2.34129e-06 0)
(0 1.9082e-06 0)
(0 2.06223e-06 0)
(0 1.67695e-06 0)
(0 1.24091e-06 0)
(0 1.01007e-06 0)
(0 1.04988e-06 0)
(0 6.46512e-07 0)
(0 3.72374e-06 0)
(0 4.51793e-06 0)
(0 4.80603e-06 0)
(0 3.11036e-06 0)
(0 2.70394e-06 0)
(0 6.28607e-07 0)
(0 8.31535e-07 0)
(0 3.19759e-06 0)
(0 1.89761e-06 0)
(0 1.68819e-06 0)
(0 4.78971e-06 0)
(0 4.61317e-06 0)
(0 2.44247e-06 0)
(0 2.18231e-06 0)
(0 3.78663e-06 0)
(0 4.14567e-06 0)
(0 2.68264e-06 0)
(0 1.94636e-06 0)
(0 1.86454e-06 0)
(0 3.47307e-07 0)
(0 2.93071e-07 0)
(0 2.11719e-06 0)
(0 7.95844e-07 0)
(0 3.44004e-06 0)
(0 3.2272e-06 0)
(0 3.99969e-06 0)
(0 4.33795e-06 0)
(0 4.64239e-06 0)
(0 4.80113e-06 0)
(0 1.17695e-06 0)
(0 7.96293e-07 0)
(0 1.72902e-06 0)
(0 2.74446e-06 0)
(0 2.93942e-06 0)
(0 4.82507e-06 0)
(0 4.93946e-06 0)
(0 4.29278e-06 0)
(0 4.20596e-06 0)
(0 3.72263e-06 0)
(0 3.05574e-06 0)
(0 2.897e-06 0)
(0 3.25923e-06 0)
(0 2.40779e-06 0)
(0 1.34553e-06 0)
(0 8.67964e-07 0)
(0 1.59191e-07 0)
(0 1.43469e-05 0)
(0 1.48213e-05 0)
(0 1.52027e-05 0)
(0 1.4719e-05 0)
(0 1.55607e-05 0)
(0 1.50658e-05 0)
(0 1.58899e-05 0)
(0 1.53808e-05 0)
(0 1.6203e-05 0)
(0 1.56822e-05 0)
(0 1.65192e-05 0)
(0 1.59834e-05 0)
(0 1.68333e-05 0)
(0 1.73745e-05 0)
(0 1.76941e-05 0)
(0 1.71335e-05 0)
(0 1.7998e-05 0)
(0 1.74099e-05 0)
(0 1.82905e-05 0)
(0 1.76786e-05 0)
(0 1.85826e-05 0)
(0 1.79537e-05 0)
(0 1.88868e-05 0)
(0 1.82383e-05 0)
(0 1.91786e-05 0)
(0 1.85328e-05 0)
(0 1.95059e-05 0)
(0 1.88443e-05 0)
(0 1.9875e-05 0)
(0 1.91806e-05 0)
(0 2.02351e-05 0)
(0 1.95272e-05 0)
(0 2.05978e-05 0)
(0 1.97959e-05 0)
(0 2.09796e-05 0)
(0 2.03227e-05 0)
(0 2.13958e-05 0)
(0 2.07106e-05 0)
(0 2.18396e-05 0)
(0 2.11313e-05 0)
(0 2.23161e-05 0)
(0 2.15725e-05 0)
(0 2.28151e-05 0)
(0 2.20717e-05 0)
(0 2.33387e-05 0)
(0 2.25998e-05 0)
(0 2.38851e-05 0)
(0 2.3127e-05 0)
(0 2.44274e-05 0)
(0 2.36622e-05 0)
(0 2.50386e-05 0)
(0 2.42406e-05 0)
(0 2.56853e-05 0)
(0 2.49073e-05 0)
(0 2.63689e-05 0)
(0 2.56516e-05 0)
(0 2.71511e-05 0)
(0 2.64103e-05 0)
(0 2.79455e-05 0)
(0 2.72093e-05 0)
(0 2.8758e-05 0)
(0 2.80451e-05 0)
(0 2.96106e-05 0)
(0 2.89193e-05 0)
(0 3.05256e-05 0)
(0 2.9852e-05 0)
(0 3.14982e-05 0)
(0 3.08208e-05 0)
(0 3.25219e-05 0)
(0 3.17971e-05 0)
(0 3.36035e-05 0)
(0 3.2868e-05 0)
(0 3.47403e-05 0)
(0 3.40401e-05 0)
(0 3.5923e-05 0)
(0 3.52262e-05 0)
(0 3.71342e-05 0)
(0 3.64212e-05 0)
(0 3.83728e-05 0)
(0 3.7642e-05 0)
(0 3.96608e-05 0)
(0 3.895e-05 0)
(0 4.1012e-05 0)
(0 4.03911e-05 0)
(0 4.2419e-05 0)
(0 4.18514e-05 0)
(0 4.38501e-05 0)
(0 4.32431e-05 0)
(0 4.52914e-05 0)
(0 4.46189e-05 0)
(0 4.67394e-05 0)
(0 4.59876e-05 0)
(0 4.8236e-05 0)
(0 4.77181e-05 0)
(0 4.97736e-05 0)
(0 4.91757e-05 0)
(0 5.13119e-05 0)
(0 5.06823e-05 0)
(0 5.28738e-05 0)
(0 5.22338e-05 0)
(0 5.44815e-05 0)
(0 5.50703e-05 0)
(0 5.67246e-05 0)
(0 4.30016e-05 0)
(0 3.31084e-05 0)
(0 2.65278e-05 0)
(0 2.21002e-05 0)
(0 1.92366e-05 0)
(0 5.38851e-05 0)
(0 5.72802e-05 0)
(0 5.89589e-05 0)
(0 5.94906e-05 0)
(0 6.11565e-05 0)
(0 6.17214e-05 0)
(0 6.33515e-05 0)
(0 6.3959e-05 0)
(0 6.55983e-05 0)
(0 6.62035e-05 0)
(0 6.78611e-05 0)
(0 6.8478e-05 0)
(0 7.01573e-05 0)
(0 7.07637e-05 0)
(0 7.24558e-05 0)
(0 7.18403e-05 0)
(0 7.41676e-05 0)
(0 7.35227e-05 0)
(0 7.58695e-05 0)
(0 7.52145e-05 0)
(0 7.75601e-05 0)
(0 7.6964e-05 0)
(0 7.9307e-05 0)
(0 7.98419e-05 0)
(0 8.16152e-05 0)
(0 8.11276e-05 0)
(0 8.34309e-05 0)
(0 8.39265e-05 0)
(0 8.57072e-05 0)
(0 5.15949e-05 0)
(0 8.62001e-05 0)
(0 8.7902e-05 0)
(0 8.54652e-05 0)
(0 8.84549e-05 0)
(0 9.0157e-05 0)
(0 9.06847e-05 0)
(0 9.24e-05 0)
(0 9.28398e-05 0)
(0 9.45295e-05 0)
(0 9.496e-05 0)
(0 9.65771e-05 0)
(0 9.70045e-05 0)
(0 9.85728e-05 0)
(0 9.89414e-05 0)
(0 0.000100494 0)
(0 0.00010014 0)
(0 0.000102055 0)
(0 0.000101685 0)
(0 0.000103617 0)
(0 0.00010318 0)
(0 0.000105121 0)
(0 0.000105619 0)
(0 0.000107001 0)
(0 0.000106574 0)
(0 0.000108436 0)
(0 0.000108774 0)
(0 0.000110166 0)
(0 0.000110494 0)
(0 0.000111987 0)
(0 0.000109877 0)
(0 0.00011212 0)
(0 0.000113536 0)
(0 0.000113652 0)
(0 0.000115038 0)
(0 0.000115175 0)
(0 0.00011653 0)
(0 0.000116596 0)
(0 0.00011794 0)
(0 0.000117951 0)
(0 0.000119259 0)
(0 4.25189e-05 0)
(0 0.000119216 0)
(0 0.000120516 0)
(0 0.000120499 0)
(0 0.000121738 0)
(0 0.000121662 0)
(0 0.000122868 0)
(0 0.000122751 0)
(0 0.00012389 0)
(0 0.000123761 0)
(0 0.000124848 0)
(0 0.000124908 0)
(0 0.000125835 0)
(0 0.000125842 0)
(0 0.000126746 0)
(0 0.000126719 0)
(0 0.000127613 0)
(0 0.000127585 0)
(0 0.000128422 0)
(0 0.000128325 0)
(0 0.00012916 0)
(0 0.000129247 0)
(0 0.000129969 0)
(0 0.000129826 0)
(0 0.000130609 0)
(0 0.000130416 0)
(0 0.000131169 0)
(0 0.00013134 0)
(0 0.000131854 0)
(0 0.000131635 0)
(0 0.000132264 0)
(0 0.000131997 0)
(0 0.000132595 0)
(0 0.000132836 0)
(0 0.000133138 0)
(0 0.000132854 0)
(0 0.000133366 0)
(0 0.000133034 0)
(0 0.000133522 0)
(0 0.00013383 0)
(0 0.000133949 0)
(0 0.000133597 0)
(0 0.000133973 0)
(0 0.00013358 0)
(0 0.000133904 0)
(0 0.000134259 0)
(0 0.000134149 0)
(0 0.00013375 0)
(0 0.000133965 0)
(0 0.000133524 0)
(0 0.000133706 0)
(0 0.000134105 0)
(0 0.000133811 0)
(0 0.000133371 0)
(0 0.000133445 0)
(0 0.000132963 0)
(0 0.000132992 0)
(0 0.000133418 0)
(0 0.000132912 0)
(0 0.000132464 0)
(0 0.000132347 0)
(0 0.00013187 0)
(0 0.000131719 0)
(0 0.00013213 0)
(0 0.000131462 0)
(0 0.000131018 0)
(0 0.00013073 0)
(0 0.000130246 0)
(0 0.000129933 0)
(0 0.000130348 0)
(0 0.000129522 0)
(0 0.000129072 0)
(0 0.000128648 0)
(0 0.000128162 0)
(0 0.00012773 0)
(0 0.00012813 0)
(0 0.000127198 0)
(0 0.00012676 0)
(0 0.000126216 0)
(0 0.000125737 0)
(0 0.000125181 0)
(0 0.000125592 0)
(0 0.000124542 0)
(0 0.00012409 0)
(0 0.000123433 0)
(0 0.00012294 0)
(0 0.000122267 0)
(0 0.000122698 0)
(0 0.000121517 0)
(0 0.000121042 0)
(0 0.000120271 0)
(0 0.000119747 0)
(0 0.000118947 0)
(0 0.000119411 0)
(0 0.000118044 0)
(0 0.000117547 0)
(0 0.000116606 0)
(0 0.000116062 0)
(0 0.000115087 0)
(0 0.000115565 0)
(0 0.000114017 0)
(0 0.000113496 0)
(0 0.000112421 0)
(0 0.00011185 0)
(0 0.00011077 0)
(0 0.000111273 0)
(0 0.000109627 0)
(0 0.00010908 0)
(0 0.00010793 0)
(0 0.000107348 0)
(0 0.000108401 0)
(0 0.000106709 0)
(0 3.44912e-05 0)
(0 0.000105422 0)
(0 1.75743e-05 0)
(0 2.82325e-05 0)
(0 1.96853e-05 0)
(0 2.4103e-05 0)
(0 5.3301e-05 0)
(0 5.09482e-05 0)
(0 0.000117886 0)
(0 9.7397e-05 0)
(0 1.569e-05 0)
(0 1.51467e-05 0)
(0 6.90875e-05 0)
(0 2.13742e-05 0)
(0 2.28576e-06 0)
(0 2.2051e-06 0)
(0 1.87694e-06 0)
(0 2.12006e-06 0)
(0 1.7974e-06 0)
(0 2.0384e-06 0)
(0 2.38052e-06 0)
(0 2.30096e-06 0)
(0 1.96114e-06 0)
(0 2.22767e-06 0)
(0 1.89071e-06 0)
(0 2.16293e-06 0)
(0 1.82993e-06 0)
(0 2.10849e-06 0)
(0 1.77221e-06 0)
(0 2.06727e-06 0)
(0 1.739e-06 0)
(0 2.03948e-06 0)
(0 1.72383e-06 0)
(0 2.02586e-06 0)
(0 1.71208e-06 0)
(0 2.02702e-06 0)
(0 1.71055e-06 0)
(0 2.03293e-06 0)
(0 1.71811e-06 0)
(0 2.04671e-06 0)
(0 1.73993e-06 0)
(0 2.08082e-06 0)
(0 1.77878e-06 0)
(0 2.13276e-06 0)
(0 1.83302e-06 0)
(0 2.20247e-06 0)
(0 1.90268e-06 0)
(0 2.28564e-06 0)
(0 1.98884e-06 0)
(0 2.38227e-06 0)
(0 2.09081e-06 0)
(0 2.49681e-06 0)
(0 2.20274e-06 0)
(0 2.63287e-06 0)
(0 2.34162e-06 0)
(0 2.78986e-06 0)
(0 2.50958e-06 0)
(0 2.97311e-06 0)
(0 2.6895e-06 0)
(0 3.17052e-06 0)
(0 2.88223e-06 0)
(0 3.37457e-06 0)
(0 3.10684e-06 0)
(0 3.61849e-06 0)
(0 3.35633e-06 0)
(0 3.88352e-06 0)
(0 3.61595e-06 0)
(0 4.16403e-06 0)
(0 4.48841e-06 0)
(0 3.09018e-06 0)
(0 4.20282e-06 0)
(0 2.53203e-06 0)
(0 2.37676e-06 0)
(0 2.50763e-06 0)
(0 1.50415e-06 0)
(0 2.43625e-06 0)
(0 1.42811e-06 0)
(0 1.80507e-06 0)
(0 1.49674e-06 0)
(0 3.7802e-05 0)
(0 0.000119085 0)
(0 0.000117737 0)
(0 0.000118913 0)
(0 0.000117529 0)
(0 0.000118597 0)
(0 0.000117262 0)
(0 0.000118234 0)
(0 0.000116909 0)
(0 0.000117876 0)
(0 0.00011647 0)
(0 0.00011737 0)
(0 0.000115945 0)
(0 0.000116754 0)
(0 0.000115336 0)
(0 0.000116073 0)
(0 0.000114632 0)
(0 0.000115299 0)
(0 0.000113818 0)
(0 0.00011444 0)
(0 0.000112893 0)
(0 0.000113458 0)
(0 0.000111858 0)
(0 0.000112329 0)
(0 0.00011065 0)
(0 0.0001111 0)
(0 0.000109247 0)
(0 0.000109688 0)
(0 0.000108861 0)
(0 0.000107351 0)
(0 0.00010699 0)
(0 0.000105394 0)
(0 0.000105033 0)
(0 0.00010338 0)
(0 0.000103018 0)
(0 0.000101324 0)
(0 0.000100946 0)
(0 9.92326e-05 0)
(0 9.88343e-05 0)
(0 9.95447e-05 0)
(0 9.70954e-05 0)
(0 9.66712e-05 0)
(0 9.49339e-05 0)
(0 9.44634e-05 0)
(0 9.2722e-05 0)
(0 9.22166e-05 0)
(0 9.04274e-05 0)
(0 8.98956e-05 0)
(0 8.80769e-05 0)
(0 8.75237e-05 0)
(0 8.84008e-05 0)
(0 8.57104e-05 0)
(0 8.51325e-05 0)
(0 8.33376e-05 0)
(0 8.27559e-05 0)
(0 8.44193e-05 0)
(0 8.20611e-05 0)
(0 8.36147e-05 0)
(0 8.12696e-05 0)
(0 8.27278e-05 0)
(0 8.03784e-05 0)
(0 7.8922e-05 0)
(0 7.80596e-05 0)
(0 7.94117e-05 0)
(0 7.71384e-05 0)
(0 7.84028e-05 0)
(0 7.61774e-05 0)
(0 7.49141e-05 0)
(0 7.39887e-05 0)
(0 7.51688e-05 0)
(0 7.30213e-05 0)
(0 7.40973e-05 0)
(0 7.20132e-05 0)
(0 7.30017e-05 0)
(0 7.1029e-05 0)
(0 6.99937e-05 0)
(0 6.90608e-05 0)
(0 7.0051e-05 0)
(0 6.80904e-05 0)
(0 6.70716e-05 0)
(0 6.60733e-05 0)
(0 6.50618e-05 0)
(0 6.40017e-05 0)
(0 6.49473e-05 0)
(0 6.28492e-05 0)
(0 6.19285e-05 0)
(0 6.07626e-05 0)
(0 6.15536e-05 0)
(0 5.95023e-05 0)
(0 5.87154e-05 0)
(0 5.74508e-05 0)
(0 5.66816e-05 0)
(0 5.54081e-05 0)
(0 6.00954e-05 0)
(0 5.46452e-05 0)
(0 5.33777e-05 0)
(0 5.2624e-05 0)
(0 5.13627e-05 0)
(0 5.06024e-05 0)
(0 4.93499e-05 0)
(0 5.00652e-05 0)
(0 4.81097e-05 0)
(0 5.18205e-05 0)
(0 4.87653e-05 0)
(0 4.69098e-05 0)
(0 4.61956e-05 0)
(0 4.50715e-05 0)
(0 4.43434e-05 0)
(0 4.32665e-05 0)
(0 0.000111843 0)
(0 0.000110116 0)
(0 0.00011196 0)
(0 0.000110432 0)
(0 0.000112197 0)
(0 0.000110712 0)
(0 0.000112663 0)
(0 0.00011086 0)
(0 0.000112618 0)
(0 0.000110876 0)
(0 0.000112663 0)
(0 0.000110837 0)
(0 0.000112575 0)
(0 0.000110688 0)
(0 0.000112433 0)
(0 0.000110405 0)
(0 0.00011218 0)
(0 0.000110037 0)
(0 0.000111854 0)
(0 0.000109593 0)
(0 0.000111445 0)
(0 0.000109213 0)
(0 0.000110972 0)
(0 0.000108676 0)
(0 0.000110309 0)
(0 0.000107829 0)
(0 0.000109499 0)
(0 0.000106921 0)
(0 0.000108627 0)
(0 0.000105989 0)
(0 0.000107683 0)
(0 0.000104994 0)
(0 0.000106735 0)
(0 0.000108198 0)
(0 0.000103983 0)
(0 0.000105794 0)
(0 0.000102891 0)
(0 0.000104661 0)
(0 0.00010164 0)
(0 0.000103322 0)
(0 0.00010032 0)
(0 0.000101978 0)
(0 9.89937e-05 0)
(0 0.000100558 0)
(0 0.000105225 0)
(0 9.75501e-05 0)
(0 9.90333e-05 0)
(0 4.74851e-05 0)
(0 4.25474e-05 0)
(0 4.15052e-05 0)
(0 9.59942e-05 0)
(0 9.74521e-05 0)
(0 4.07926e-05 0)
(0 3.97807e-05 0)
(0 9.43803e-05 0)
(0 9.57441e-05 0)
(0 9.20827e-05 0)
(0 9.39628e-05 0)
(0 3.90726e-05 0)
(0 3.81086e-05 0)
(0 3.87859e-05 0)
(0 3.71506e-05 0)
(0 9.99567e-05 0)
(0 3.77974e-05 0)
(0 3.61674e-05 0)
(0 3.5569e-05 0)
(0 3.45872e-05 0)
(0 9.0666e-05 0)
(0 9.22088e-05 0)
(0 3.40419e-05 0)
(0 3.30802e-05 0)
(0 8.89378e-05 0)
(0 9.03907e-05 0)
(0 3.35932e-05 0)
(0 3.21329e-05 0)
(0 3.16131e-05 0)
(0 3.07047e-05 0)
(0 9.36678e-05 0)
(0 9.18642e-05 0)
(0 8.85474e-05 0)
(0 9.00538e-05 0)
(0 8.66921e-05 0)
(0 8.82241e-05 0)
(0 9.1518e-05 0)
(0 8.97264e-05 0)
(0 8.64008e-05 0)
(0 8.79305e-05 0)
(0 8.45714e-05 0)
(0 8.60888e-05 0)
(0 3.01349e-05 0)
(0 2.92633e-05 0)
(0 8.93714e-05 0)
(0 8.75066e-05 0)
(0 8.41977e-05 0)
(0 8.55902e-05 0)
(0 8.22433e-05 0)
(0 8.36231e-05 0)
(0 8.02294e-05 0)
(0 8.15956e-05 0)
(0 8.4892e-05 0)
(0 8.28654e-05 0)
(0 7.95408e-05 0)
(0 8.08141e-05 0)
(0 7.7466e-05 0)
(0 7.87148e-05 0)
(0 8.19559e-05 0)
(0 7.98442e-05 0)
(0 7.65951e-05 0)
(0 7.7715e-05 0)
(0 7.44728e-05 0)
(0 7.55604e-05 0)
(0 7.871e-05 0)
(0 7.65236e-05 0)
(0 7.33882e-05 0)
(0 7.43322e-05 0)
(0 7.7362e-05 0)
(0 7.5108e-05 0)
(0 7.20478e-05 0)
(0 7.28137e-05 0)
(0 7.57778e-05 0)
(0 7.35035e-05 0)
(0 7.05449e-05 0)
(0 7.12203e-05 0)
(0 7.41005e-05 0)
(0 7.18224e-05 0)
(0 6.89427e-05 0)
(0 6.95514e-05 0)
(0 7.23477e-05 0)
(0 7.00674e-05 0)
(0 7.2761e-05 0)
(0 7.04673e-05 0)
(0 7.30604e-05 0)
(0 7.07561e-05 0)
(0 6.81789e-05 0)
(0 6.84555e-05 0)
(0 7.09324e-05 0)
(0 6.86259e-05 0)
(0 6.61645e-05 0)
(0 6.63325e-05 0)
(0 6.87074e-05 0)
(0 6.6403e-05 0)
(0 6.86816e-05 0)
(0 6.6362e-05 0)
(0 6.85421e-05 0)
(0 6.62008e-05 0)
(0 6.829e-05 0)
(0 6.59464e-05 0)
(0 6.38666e-05 0)
(0 6.36107e-05 0)
(0 6.56326e-05 0)
(0 6.32903e-05 0)
(0 6.12884e-05 0)
(0 6.09461e-05 0)
(0 6.28654e-05 0)
(0 6.05089e-05 0)
(0 6.23295e-05 0)
(0 5.86246e-05 0)
(0 5.99957e-05 0)
(0 6.17417e-05 0)
(0 5.94147e-05 0)
(0 6.10895e-05 0)
(0 5.87515e-05 0)
(0 6.03523e-05 0)
(0 5.80071e-05 0)
(0 5.95273e-05 0)
(0 5.71761e-05 0)
(0 5.56842e-05 0)
(0 5.86077e-05 0)
(0 5.62588e-05 0)
(0 5.76056e-05 0)
(0 5.52632e-05 0)
(0 5.65454e-05 0)
(0 5.42011e-05 0)
(0 5.5426e-05 0)
(0 5.77772e-05 0)
(0 5.66052e-05 0)
(0 5.42509e-05 0)
(0 5.53783e-05 0)
(0 5.302e-05 0)
(0 5.40939e-05 0)
(0 2.86547e-05 0)
(0 2.78075e-05 0)
(0 5.89608e-05 0)
(0 3.26024e-05 0)
(0 9.30484e-05 0)
(0 0.000102014 0)
(0 5.17262e-05 0)
(0 5.27421e-05 0)
(0 2.71911e-05 0)
(0 2.63259e-05 0)
(0 2.69843e-05 0)
(0 2.54507e-05 0)
(0 2.48517e-05 0)
(0 2.39551e-05 0)
(0 9.81832e-05 0)
(0 2.44972e-05 0)
(0 2.29862e-05 0)
(0 2.25203e-05 0)
(0 2.15336e-05 0)
(0 2.19794e-05 0)
(0 2.05353e-05 0)
(0 2.00719e-05 0)
(0 1.91103e-05 0)
(0 1.95551e-05 0)
(0 1.81627e-05 0)
(0 1.76587e-05 0)
(0 1.68444e-05 0)
(0 5.03658e-05 0)
(0 5.1324e-05 0)
(0 1.7271e-05 0)
(0 1.60577e-05 0)
(0 1.55395e-05 0)
(0 1.48146e-05 0)
(0 7.06371e-05 0)
(0 5.36987e-05 0)
(0 5.22239e-05 0)
(0 5.45952e-05 0)
(0 5.30648e-05 0)
(0 5.0692e-05 0)
(0 5.14839e-05 0)
(0 6.27051e-05 0)
(0 0.000108516 0)
(0 4.93573e-05 0)
(0 6.38876e-05 0)
(0 1.52643e-05 0)
(0 5.54252e-05 0)
(0 2.80833e-05 0)
(0 2.93943e-05 0)
(0 2.40812e-05 0)
(0 2.05094e-05 0)
(0 4.91073e-05 0)
(0 4.98552e-05 0)
(0 0.000111989 0)
(0 7.13681e-05 0)
(0 6.97149e-05 0)
(0 7.19897e-05 0)
(0 7.03681e-05 0)
(0 7.2608e-05 0)
(0 7.10183e-05 0)
(0 7.32374e-05 0)
(0 7.16332e-05 0)
(0 7.38474e-05 0)
(0 7.22359e-05 0)
(0 7.44051e-05 0)
(0 7.28368e-05 0)
(0 7.48834e-05 0)
(0 7.33852e-05 0)
(0 7.53927e-05 0)
(0 7.38193e-05 0)
(0 7.58911e-05 0)
(0 7.416e-05 0)
(0 7.18586e-05 0)
(0 7.64332e-05 0)
(0 7.235e-05 0)
(0 7.02195e-05 0)
(0 4.74721e-05 0)
(0 4.81792e-05 0)
(0 5.81063e-06 0)
(0 5.72151e-06 0)
(0 7.05021e-05 0)
(0 6.84726e-05 0)
(0 0.000114515 0)
(0 0.000113804 0)
(0 6.19863e-06 0)
(0 6.12172e-06 0)
(0 4.57895e-05 0)
(0 4.64548e-05 0)
(0 4.88273e-05 0)
(0 4.70588e-05 0)
(0 4.94033e-05 0)
(0 6.87302e-05 0)
(0 6.67623e-05 0)
(0 6.6091e-06 0)
(0 6.53953e-06 0)
(0 6.71053e-05 0)
(0 6.5012e-05 0)
(0 0.00011455 0)
(0 4.00566e-05 0)
(0 6.53994e-05 0)
(0 6.3275e-05 0)
(0 7.03894e-06 0)
(0 6.99438e-06 0)
(0 0.000109133 0)
(0 6.36852e-05 0)
(0 6.15473e-05 0)
(0 6.93913e-05 0)
(0 6.2003e-05 0)
(0 5.98675e-05 0)
(0 0.000117457 0)
(0 7.59063e-06 0)
(0 7.48414e-06 0)
(0 6.0377e-05 0)
(0 5.8302e-05 0)
(0 5.87695e-05 0)
(0 5.67434e-05 0)
(0 5.71219e-05 0)
(0 5.51859e-05 0)
(0 5.55392e-05 0)
(0 5.3654e-05 0)
(0 9.92756e-05 0)
(0 9.77278e-05 0)
(0 5.6209e-05 0)
(0 5.39891e-05 0)
(0 5.21574e-05 0)
(0 8.09076e-06 0)
(0 8.00051e-06 0)
(0 6.25426e-05 0)
(0 9.9535e-05 0)
(0 9.79803e-05 0)
(0 5.24442e-05 0)
(0 5.06893e-05 0)
(0 5.02992e-05 0)
(0 4.89078e-05 0)
(0 4.92857e-05 0)
(0 4.75514e-05 0)
(0 4.79253e-05 0)
(0 4.62121e-05 0)
(0 4.5815e-05 0)
(0 4.45135e-05 0)
(0 4.49155e-05 0)
(0 4.32591e-05 0)
(0 4.36372e-05 0)
(0 4.20211e-05 0)
(0 4.23867e-05 0)
(0 4.08116e-05 0)
(0 4.11857e-05 0)
(0 3.96645e-05 0)
(0 4.00441e-05 0)
(0 3.85708e-05 0)
(0 3.89486e-05 0)
(0 3.75159e-05 0)
(0 6.30535e-05 0)
(0 9.97222e-05 0)
(0 9.81938e-05 0)
(0 4.15731e-05 0)
(0 8.62476e-06 0)
(0 8.55643e-06 0)
(0 8.7125e-06 0)
(0 3.71062e-05 0)
(0 3.61017e-05 0)
(0 3.64972e-05 0)
(0 3.51567e-05 0)
(0 0.000100191 0)
(0 9.83475e-05 0)
(0 3.55232e-05 0)
(0 3.42289e-05 0)
(0 7.92842e-06 0)
(0 8.49342e-06 0)
(0 0.000100002 0)
(0 9.83841e-05 0)
(0 0.000100029 0)
(0 9.84098e-05 0)
(0 0.000100309 0)
(0 9.83805e-05 0)
(0 9.99465e-05 0)
(0 9.82441e-05 0)
(0 7.86706e-06 0)
(0 8.4309e-06 0)
(0 6.94302e-05 0)
(0 7.81761e-06 0)
(0 8.39499e-06 0)
(0 7.77957e-06 0)
(0 8.3996e-06 0)
(0 7.75245e-06 0)
(0 8.39474e-06 0)
(0 9.17481e-06 0)
(0 9.07676e-06 0)
(0 8.38312e-06 0)
(0 9.0738e-06 0)
(0 8.39235e-06 0)
(0 9.1025e-06 0)
(0 8.42001e-06 0)
(0 9.14835e-06 0)
(0 8.461e-06 0)
(0 9.21333e-06 0)
(0 8.54302e-06 0)
(0 9.28569e-06 0)
(0 8.63711e-06 0)
(0 9.39691e-06 0)
(0 8.74869e-06 0)
(0 9.54977e-06 0)
(0 8.89988e-06 0)
(0 9.71343e-06 0)
(0 9.06534e-06 0)
(0 9.90627e-06 0)
(0 9.25887e-06 0)
(0 1.01276e-05 0)
(0 1.07957e-05 0)
(0 1.10424e-05 0)
(0 1.03729e-05 0)
(0 1.13146e-05 0)
(0 1.06441e-05 0)
(0 1.16245e-05 0)
(0 1.09519e-05 0)
(0 1.1962e-05 0)
(0 1.12957e-05 0)
(0 1.2339e-05 0)
(0 1.00011e-05 0)
(0 1.20179e-05 0)
(0 1.16771e-05 0)
(0 1.27583e-05 0)
(0 1.20975e-05 0)
(0 1.32193e-05 0)
(0 1.25616e-05 0)
(0 1.37255e-05 0)
(0 1.30668e-05 0)
(0 1.42694e-05 0)
(0 1.4947e-05 0)
(0 1.55205e-05 0)
(0 1.48437e-05 0)
(0 1.61191e-05 0)
(0 1.54403e-05 0)
(0 1.67376e-05 0)
(0 1.60972e-05 0)
(0 1.73331e-05 0)
(0 1.66887e-05 0)
(0 1.79679e-05 0)
(0 1.72628e-05 0)
(0 1.86221e-05 0)
(0 1.79476e-05 0)
(0 1.93144e-05 0)
(0 1.8677e-05 0)
(0 2.00618e-05 0)
(0 1.62326e-05 0)
(0 2.05964e-05 0)
(0 3.459e-05 0)
(0 3.33299e-05 0)
(0 3.47644e-05 0)
(0 9.27049e-06 0)
(0 9.34315e-06 0)
(0 9.77834e-06 0)
(0 3.36683e-05 0)
(0 3.24481e-05 0)
(0 4.5073e-05 0)
(0 -7.86454e-07 0)
(0 -6.89059e-07 0)
(0 -7.26188e-07 0)
(0 -8.17308e-07 0)
(0 -7.57478e-07 0)
(0 -8.42311e-07 0)
(0 -7.81625e-07 0)
(0 -8.61489e-07 0)
(0 -7.98481e-07 0)
(0 -8.73091e-07 0)
(0 -8.09722e-07 0)
(0 -8.79957e-07 0)
(0 -8.1617e-07 0)
(0 -8.84573e-07 0)
(0 -8.18437e-07 0)
(0 -8.86298e-07 0)
(0 -8.17024e-07 0)
(0 -7.39647e-07 0)
(0 -7.10709e-07 0)
(0 3.27914e-05 0)
(0 3.1586e-05 0)
(0 3.12677e-05 0)
(0 3.03909e-05 0)
(0 3.07254e-05 0)
(0 2.94887e-05 0)
(0 2.98122e-05 0)
(0 2.85412e-05 0)
(0 2.87963e-05 0)
(0 2.75779e-05 0)
(0 2.77692e-05 0)
(0 2.66552e-05 0)
(0 5.56954e-05 0)
(0 0.000122559 0)
(0 9.97814e-05 0)
(0 9.80865e-05 0)
(0 2.63963e-05 0)
(0 2.55163e-05 0)
(0 2.57926e-05 0)
(0 2.46136e-05 0)
(0 9.93608e-06 0)
(0 1.00033e-05 0)
(0 4.27047e-05 0)
(0 6.27164e-05 0)
(0 3.48856e-05 0)
(0 8.09633e-05 0)
(0 7.2733e-05 0)
(0 2.47486e-05 0)
(0 2.36765e-05 0)
(0 3.07983e-05 0)
(0 4.8803e-05 0)
(0 2.91577e-05 0)
(0 -6.15978e-07 0)
(0 1.82586e-05 0)
(0 3.81525e-05 0)
(0 7.53575e-05 0)
(0 6.6684e-05 0)
(0 7.50309e-05 0)
(0 7.87783e-05 0)
(0 0.000103734 0)
(0 5.29316e-05 0)
(0 7.59616e-05 0)
(0 8.7543e-05 0)
(0 9.1853e-05 0)
(0 9.06939e-05 0)
(0 0.000104575 0)
(0 7.74815e-05 0)
(0 0.000123502 0)
(0 8.14334e-05 0)
(0 7.90535e-05 0)
(0 7.93945e-05 0)
(0 7.69935e-05 0)
(0 7.72121e-05 0)
(0 7.47781e-05 0)
(0 7.48791e-05 0)
(0 7.24175e-05 0)
(0 7.23946e-05 0)
(0 6.98684e-05 0)
(0 6.97627e-05 0)
(0 6.71316e-05 0)
(0 6.70252e-05 0)
(0 6.9581e-05 0)
(0 6.64055e-05 0)
(0 6.93971e-05 0)
(0 6.65329e-05 0)
(0 6.91256e-05 0)
(0 6.6292e-05 0)
(0 6.88446e-05 0)
(0 6.59854e-05 0)
(0 6.86344e-05 0)
(0 6.43709e-05 0)
(0 6.44211e-05 0)
(0 6.56794e-05 0)
(0 6.85618e-05 0)
(0 6.5365e-05 0)
(0 6.82958e-05 0)
(0 6.14753e-05 0)
(0 6.16208e-05 0)
(0 6.49358e-05 0)
(0 6.78081e-05 0)
(0 5.85596e-05 0)
(0 5.87577e-05 0)
(0 6.43582e-05 0)
(0 6.71881e-05 0)
(0 6.36218e-05 0)
(0 6.64401e-05 0)
(0 5.57255e-05 0)
(0 5.59005e-05 0)
(0 6.28098e-05 0)
(0 6.27961e-05 0)
(0 6.5619e-05 0)
(0 5.29857e-05 0)
(0 5.30306e-05 0)
(0 6.1895e-05 0)
(0 6.46767e-05 0)
(0 6.08468e-05 0)
(0 6.36167e-05 0)
(0 5.02141e-05 0)
(0 5.01557e-05 0)
(0 4.98978e-05 0)
(0 7.00166e-05 0)
(0 5.96773e-05 0)
(0 6.24851e-05 0)
(0 6.64275e-05 0)
(0 6.5317e-05 0)
(0 6.1304e-05 0)
(0 6.41585e-05 0)
(0 6.01857e-05 0)
(0 6.29072e-05 0)
(0 6.07252e-05 0)
(0 4.75652e-05 0)
(0 4.73264e-05 0)
(0 5.89175e-05 0)
(0 6.15343e-05 0)
(0 5.00595e-05 0)
(0 4.71922e-05 0)
(0 4.4056e-05 0)
(0 4.43878e-05 0)
(0 4.71862e-05 0)
(0 4.44807e-05 0)
(0 5.75858e-05 0)
(0 6.01781e-05 0)
(0 6.92285e-05 0)
(0 4.1805e-05 0)
(0 4.18328e-05 0)
(0 7.12748e-05 0)
(0 5.63926e-05 0)
(0 5.88851e-05 0)
(0 6.29137e-05 0)
(0 6.15192e-05 0)
(0 5.73768e-05 0)
(0 6.0029e-05 0)
(0 5.57407e-05 0)
(0 5.85062e-05 0)
(0 4.71191e-05 0)
(0 3.92422e-05 0)
(0 3.9232e-05 0)
(0 5.6885e-05 0)
(0 5.41786e-05 0)
(0 5.69172e-05 0)
(0 6.5703e-05 0)
(0 5.20799e-05 0)
(0 5.53829e-05 0)
(0 3.66464e-05 0)
(0 3.67176e-05 0)
(0 5.98619e-05 0)
(0 5.82447e-05 0)
(0 5.31341e-05 0)
(0 5.66396e-05 0)
(0 5.20465e-05 0)
(0 5.5106e-05 0)
(0 3.93424e-05 0)
(0 3.69507e-05 0)
(0 3.95696e-05 0)
(0 3.7207e-05 0)
(0 3.46038e-05 0)
(0 3.47888e-05 0)
(0 3.73667e-05 0)
(0 3.48772e-05 0)
(0 3.22916e-05 0)
(0 3.23506e-05 0)
(0 3.66793e-05 0)
(0 1.80995e-05 0)
(0 5.46118e-05 0)
(0 0.000119188 0)
(0 3.73156e-05 0)
(0 2.38172e-05 0)
(0 2.27227e-05 0)
(0 2.49523e-05 0)
(0 5.06553e-05 0)
(0 5.34945e-05 0)
(0 1.29739e-05 0)
(0 9.64676e-05 0)
(0 9.62864e-05 0)
(0 9.97499e-05 0)
(0 1.0295e-05 0)
(0 1.06262e-05 0)
(0 1.0688e-05 0)
(0 2.52768e-05 0)
(0 8.11912e-06 0)
(0 2.96934e-05 0)
(0 2.97155e-05 0)
(0 4.91093e-05 0)
(0 5.17306e-05 0)
(0 6.2756e-05 0)
(0 7.71863e-06 0)
(0 7.21322e-06 0)
(0 9.4696e-05 0)
(0 9.44838e-05 0)
(0 0.000101494 0)
(0 2.28544e-05 0)
(0 2.17381e-05 0)
(0 2.16343e-05 0)
(0 2.06232e-05 0)
(0 3.40476e-05 0)
(0 3.40919e-05 0)
(0 1.19157e-05 0)
(0 5.87766e-05 0)
(0 2.07063e-05 0)
(0 1.9599e-05 0)
(0 1.95068e-05 0)
(0 1.8516e-05 0)
(0 1.8417e-05 0)
(0 1.74808e-05 0)
(0 1.75635e-05 0)
(0 1.65897e-05 0)
(0 -9.50499e-07 0)
(0 1.66404e-05 0)
(0 5.17207e-05 0)
(0 4.70724e-05 0)
(0 4.98054e-05 0)
(0 9.65978e-05 0)
(0 3.01253e-05 0)
(0 5.622e-05 0)
(0 2.91878e-05 0)
(0 2.66199e-05 0)
(0 2.85874e-05 0)
(0 2.60031e-05 0)
(0 2.7944e-05 0)
(0 2.53518e-05 0)
(0 2.72638e-05 0)
(0 2.46614e-05 0)
(0 2.65485e-05 0)
(0 9.29203e-05 0)
(0 9.26972e-05 0)
(0 9.42389e-05 0)
(0 9.23873e-05 0)
(0 9.08691e-05 0)
(0 9.05022e-05 0)
(0 8.89692e-05 0)
(0 9.20105e-05 0)
(0 2.70052e-05 0)
(0 2.70559e-05 0)
(0 2.96621e-05 0)
(0 2.71472e-05 0)
(0 2.96084e-05 0)
(0 2.72709e-05 0)
(0 2.95991e-05 0)
(0 2.73682e-05 0)
(0 2.50081e-05 0)
(0 2.51703e-05 0)
(0 2.73796e-05 0)
(0 2.52517e-05 0)
(0 2.31015e-05 0)
(0 2.32294e-05 0)
(0 2.39473e-05 0)
(0 2.58146e-05 0)
(0 2.32141e-05 0)
(0 2.50521e-05 0)
(0 4.40991e-05 0)
(0 4.79127e-05 0)
(0 1.13333e-05 0)
(0 1.129e-05 0)
(0 1.13808e-05 0)
(0 8.87661e-05 0)
(0 2.11303e-05 0)
(0 2.12647e-05 0)
(0 9.00626e-05 0)
(0 9.1515e-05 0)
(0 2.72958e-05 0)
(0 0.000101279 0)
(0 7.4551e-05 0)
(0 2.43149e-05 0)
(0 2.42252e-05 0)
(0 4.73281e-05 0)
(0 2.246e-05 0)
(0 2.42588e-05 0)
(0 2.68237e-05 0)
(0 2.59927e-05 0)
(0 2.34589e-05 0)
(0 2.51639e-05 0)
(0 2.76683e-05 0)
(0 2.68078e-05 0)
(0 2.43288e-05 0)
(0 2.59411e-05 0)
(0 2.34856e-05 0)
(0 2.50641e-05 0)
(0 2.74877e-05 0)
(0 2.65724e-05 0)
(0 2.898e-05 0)
(0 2.80139e-05 0)
(0 2.56436e-05 0)
(0 2.70372e-05 0)
(0 2.46992e-05 0)
(0 2.6048e-05 0)
(0 2.83611e-05 0)
(0 2.73232e-05 0)
(0 2.50412e-05 0)
(0 2.62674e-05 0)
(0 2.85229e-05 0)
(0 2.74114e-05 0)
(0 2.96435e-05 0)
(0 2.84728e-05 0)
(0 2.62843e-05 0)
(0 2.72831e-05 0)
(0 2.94479e-05 0)
(0 2.81921e-05 0)
(0 3.03212e-05 0)
(0 2.90066e-05 0)
(0 2.69222e-05 0)
(0 2.76857e-05 0)
(0 2.9769e-05 0)
(0 2.83644e-05 0)
(0 2.63367e-05 0)
(0 2.69413e-05 0)
(0 2.89457e-05 0)
(0 2.74528e-05 0)
(0 2.94374e-05 0)
(0 2.7876e-05 0)
(0 2.59512e-05 0)
(0 2.98505e-05 0)
(0 2.82137e-05 0)
(0 3.01722e-05 0)
(0 2.84603e-05 0)
(0 3.03904e-05 0)
(0 2.86032e-05 0)
(0 3.04918e-05 0)
(0 2.86302e-05 0)
(0 3.04845e-05 0)
(0 2.67893e-05 0)
(0 2.85442e-05 0)
(0 3.03694e-05 0)
(0 2.8345e-05 0)
(0 3.01407e-05 0)
(0 2.80308e-05 0)
(0 2.98017e-05 0)
(0 3.19496e-05 0)
(0 3.15859e-05 0)
(0 2.93524e-05 0)
(0 3.11095e-05 0)
(0 3.33814e-05 0)
(0 3.28858e-05 0)
(0 3.0521e-05 0)
(0 3.22868e-05 0)
(0 3.21453e-05 0)
(0 3.52196e-05 0)
(0 2.98272e-05 0)
(0 3.15766e-05 0)
(0 2.90257e-05 0)
(0 3.07522e-05 0)
(0 3.33539e-05 0)
(0 3.25049e-05 0)
(0 3.5152e-05 0)
(0 3.42853e-05 0)
(0 3.15435e-05 0)
(0 3.33044e-05 0)
(0 3.61045e-05 0)
(0 3.50865e-05 0)
(0 3.22195e-05 0)
(0 3.3984e-05 0)
(0 3.69648e-05 0)
(0 3.58586e-05 0)
(0 2.62906e-05 0)
(0 2.73291e-05 0)
(0 3.27881e-05 0)
(0 3.45959e-05 0)
(0 3.77775e-05 0)
(0 3.64237e-05 0)
(0 3.32366e-05 0)
(0 3.50652e-05 0)
(0 2.64389e-05 0)
(0 2.48021e-05 0)
(0 3.83671e-05 0)
(0 3.70437e-05 0)
(0 3.3632e-05 0)
(0 3.55402e-05 0)
(0 3.9099e-05 0)
(0 3.75186e-05 0)
(0 4.11165e-05 0)
(0 3.95631e-05 0)
(0 3.58905e-05 0)
(0 3.7876e-05 0)
(0 4.158e-05 0)
(0 3.9856e-05 0)
(0 3.60659e-05 0)
(0 3.80215e-05 0)
(0 4.1814e-05 0)
(0 3.99864e-05 0)
(0 4.37913e-05 0)
(0 4.19698e-05 0)
(0 3.80113e-05 0)
(0 3.99739e-05 0)
(0 4.39767e-05 0)
(0 4.1954e-05 0)
(0 4.60047e-05 0)
(0 4.39485e-05 0)
(0 3.98249e-05 0)
(0 4.1796e-05 0)
(0 4.59445e-05 0)
(0 4.3782e-05 0)
(0 3.95739e-05 0)
(0 4.15864e-05 0)
(0 4.58087e-05 0)
(0 4.36463e-05 0)
(0 2.38366e-05 0)
(0 2.22637e-05 0)
(0 4.31234e-05 0)
(0 4.63578e-05 0)
(0 5.0912e-05 0)
(0 4.92851e-05 0)
(0 4.46988e-05 0)
(0 4.75439e-05 0)
(0 5.21988e-05 0)
(0 5.03735e-05 0)
(0 4.5714e-05 0)
(0 4.84697e-05 0)
(0 5.3056e-05 0)
(0 5.10843e-05 0)
(0 4.6524e-05 0)
(0 5.55555e-05 0)
(0 5.35395e-05 0)
(0 4.78783e-05 0)
(0 3.93646e-05 0)
(0 5.99402e-05 0)
(0 1.075e-05 0)
(0 1.14328e-05 0)
(0 1.07863e-05 0)
(0 1.14585e-05 0)
(0 1.07064e-05 0)
(0 3.14231e-05 0)
(0 3.14416e-05 0)
(0 0.00011586 0)
(0 1.9203e-05 0)
(0 1.93215e-05 0)
(0 2.12734e-05 0)
(0 1.93476e-05 0)
(0 2.11418e-05 0)
(0 1.92297e-05 0)
(0 1.75219e-05 0)
(0 1.7397e-05 0)
(0 1.90143e-05 0)
(0 1.72226e-05 0)
(0 1.87733e-05 0)
(0 1.70329e-05 0)
(0 1.55601e-05 0)
(0 1.53242e-05 0)
(0 1.67974e-05 0)
(0 1.4866e-05 0)
(0 1.36427e-05 0)
(0 1.31183e-05 0)
(0 1.42487e-05 0)
(0 1.25173e-05 0)
(0 1.90036e-05 0)
(0 1.13614e-05 0)
(0 1.07988e-05 0)
(0 1.19175e-05 0)
(0 1.02395e-05 0)
(0 1.14717e-05 0)
(0 4.14226e-05 0)
(0 8.50346e-05 0)
(0 1.20213e-05 0)
(0 1.19924e-05 0)
(0 1.08421e-05 0)
(0 9.11456e-06 0)
(0 8.61071e-06 0)
(0 9.71255e-06 0)
(0 8.12709e-06 0)
(0 0.000113731 0)
(0 7.46591e-05 0)
(0 7.08431e-06 0)
(0 6.72484e-06 0)
(0 7.71729e-06 0)
(0 5.7899e-05 0)
(0 3.70739e-05 0)
(0 3.83574e-05 0)
(0 3.93194e-05 0)
(0 1.47912e-05 0)
(0 0.00011207 0)
(0 3.76362e-05 0)
(0 3.85376e-05 0)
(0 7.72546e-05 0)
(0 2.45809e-05 0)
(0 2.12232e-05 0)
(0 1.97194e-05 0)
(0 8.9515e-05 0)
(0 5.58704e-05 0)
(0 4.92722e-05 0)
(0 4.79047e-05 0)
(0 4.96569e-05 0)
(0 4.82455e-05 0)
(0 4.99823e-05 0)
(0 5.98715e-05 0)
(0 6.80078e-05 0)
(0 3.91059e-05 0)
(0 9.30872e-05 0)
(0 4.22271e-05 0)