/*--------------------------------*- C++ -*----------------------------------*\
| =========                 |                                                 |
| \\      /  F ield         | OpenFOAM: The Open Source CFD Toolbox           |
|  \\    /   O peration     | Version:  v2012                                 |
|   \\  /    A nd           | Website:  www.openfoam.com                      |
|    \\/     M anipulation  |                                                 |
\*---------------------------------------------------------------------------*/
FoamFile
{
    version     2.0;
    format      ascii;
    class       surfaceVectorField;
    location    "450";
    object      Uf;
}
// * * * * * * * * * * * * * * * * * * * * * * * * * * * * * * * * * * * * * //

dimensions      [0 1 -1 0 0 0 0];


internalField   nonuniform List<vector> 
27284
(
(1.11705 0.185362 4.45036e-21)
(1.10709 0.176408 7.10668e-21)
(1.10394 0.189262 6.11074e-21)
(1.00912 1.47205e-07 -1.37004e-22)
(1.00924 -2.01655e-06 -1.40508e-22)
(1.00921 1.35853e-06 1.9183e-22)
(1.01015 -0.0339705 -2.47501e-21)
(1.01599 -0.0391681 -2.1615e-21)
(1.0175 -0.0306191 0)
(1.01093 0.000993364 0)
(1.01098 0.00107769 1.56631e-22)
(1.01102 0.000990276 2.57411e-22)
(1.01738 0.0245588 -1.7768e-23)
(1.01394 0.0267746 -3.83348e-21)
(1.01444 0.0220549 4.00832e-22)
(0.896799 -0.0369613 -7.63293e-22)
(0.895443 -0.0207934 -6.13271e-22)
(0.880213 -0.0375464 -6.0695e-22)
(1.01265 -0.00105486 1.87076e-22)
(1.01274 -0.000849121 6.46875e-22)
(1.01297 -0.00114892 2.89631e-22)
(1.02117 0.0268288 2.23696e-21)
(1.02012 0.0219437 -4.36954e-22)
(1.00498 1.12257e-05 -3.1248e-23)
(1.00617 0.00013216 0)
(1.00537 8.39986e-05 0)
(1.04916 -0.0724379 1.10482e-22)
(1.04911 -0.0594079 -3.7051e-22)
(1.0617 -0.0545413 0)
(1.00475 0.0135404 4.57356e-22)
(1.00588 0.0145004 -1.62808e-22)
(1.00608 0.0128684 -4.51049e-22)
(1.03211 0.0589762 9.19021e-21)
(1.03482 0.0590727 -8.16959e-21)
(1.03362 0.056425 5.95914e-21)
(1.02931 0.0583988 5.75962e-21)
(1.03059 0.0612417 3.76075e-21)
(1.04265 0.176366 0)
(1.05972 0.183621 -3.08046e-21)
(1.05286 0.16222 4.97694e-22)
(1.00737 0.000151732 3.06446e-22)
(1.00787 0.000159091 -3.45421e-22)
(1.00766 0.000146491 1.33231e-22)
(1.00965 -0.000306639 3.47637e-22)
(1.00951 -0.000307771 -4.03032e-22)
(1.00965 -0.000322175 -1.04969e-22)
(1.0109 0.000900511 -2.81941e-22)
(1.01084 0.000972341 0)
(1.01156 0.00574122 5.54415e-22)
(1.01176 0.00492134 1.22924e-21)
(1.01233 0.00541359 -3.19989e-22)
(1.10744 -0.0167172 -7.6493e-22)
(1.11379 -0.0121176 -4.74949e-22)
(1.10679 -0.00830907 -5.19044e-22)
(1.01588 0.00406544 4.05622e-23)
(1.0163 0.00373552 -6.09728e-22)
(1.01565 0.00345244 -2.79317e-22)
(0.917027 0.163945 -7.5266e-23)
(0.925761 0.160057 -2.91305e-22)
(0.925531 0.170301 -6.55934e-22)
(1.02416 0.0122029 -2.69389e-21)
(1.02365 0.0120117 6.04543e-22)
(1.02378 0.0126318 -5.39323e-22)
(1.00826 0.00012417 6.13036e-23)
(1.00834 0.000113511 6.36787e-22)
(1.00826 0.000105029 4.53051e-22)
(0.897851 -0.0503865 -2.82505e-22)
(0.909735 -0.0364974 -2.50552e-21)
(1.00827 0.000143953 0)
(1.0082 0.000130914 -9.96184e-23)
(1.0105 0.00182356 0)
(1.0108 0.00192638 0)
(1.01077 0.00147164 2.73045e-22)
(1.01233 -0.000919128 8.19742e-23)
(1.01203 -0.000784789 3.83407e-22)
(1.01212 -0.000560352 1.40436e-21)
(1.01128 0.00181072 -2.02821e-22)
(1.01141 0.0018882 4.59182e-22)
(1.01134 0.00191711 1.81995e-22)
(1.00327 -9.79827e-06 1.80008e-22)
(1.0047 -4.047e-06 3.71657e-22)
(1.00323 0.011285 -8.78949e-22)
(1.00395 0.0123518 5.92038e-22)
(1.00456 0.0108528 3.76607e-22)
(0.802082 -0.230268 -2.79621e-21)
(0.789101 -0.202867 -3.4894e-21)
(0.790901 -0.200405 -3.9042e-21)
(0.984225 0.0510977 5.84152e-22)
(0.987884 0.0506465 4.62827e-22)
(0.986603 0.0543626 -9.57691e-22)
(1.01125 -0.000330789 -4.3315e-22)
(1.01131 -0.00029679 -3.45559e-22)
(1.01139 -0.000305894 6.69823e-23)
(1.00926 -0.000219843 -1.35924e-22)
(1.00922 -0.000208458 -3.12378e-22)
(1.00913 -0.000207129 7.4538e-23)
(1.00642 -7.81881e-05 5.79025e-24)
(1.00637 -9.26399e-05 9.97833e-25)
(1.00488 -7.81929e-05 1.47902e-23)
(1.01186 0.00650499 0)
(1.01202 0.0062856 -8.73801e-22)
(1.01212 0.00662714 -7.29064e-22)
(1.04756 0.0245841 -1.02526e-21)
(1.04808 0.0242603 -1.06159e-21)
(1.04734 0.0240422 -2.26792e-21)
(1.0116 0.00639463 0)
(1.01169 0.00681454 0)
(1.00251 0.00996373 -1.76737e-21)
(1.0019 0.0117807 2.20304e-22)
(1.0157 0.00959652 -8.79375e-23)
(1.01555 0.0097617 1.76733e-22)
(1.01551 0.00943403 2.09031e-22)
(1.0139 0.000180824 2.40493e-22)
(1.0138 0.000198907 1.07913e-22)
(1.01221 0.000127142 -2.10101e-22)
(1.00353 0.0141535 -2.8857e-22)
(1.00928 -0.000232542 -2.68915e-22)
(1.0093 -0.000246104 -1.34493e-22)
(1.00918 -0.000230474 -4.08622e-22)
(1.00902 4.43832e-06 8.08824e-25)
(1.00891 7.51954e-06 -3.18869e-22)
(1.00899 8.58039e-06 0)
(1.00904 4.06587e-06 7.88946e-22)
(0.998394 0.0941091 -1.23389e-21)
(1.00213 0.092297 7.09073e-21)
(1.00169 0.0970181 0)
(1.01103 0.00234921 6.45991e-24)
(1.01113 0.00241855 -1.42808e-23)
(1.0111 0.0024326 1.13142e-22)
(1.01093 0.00228049 -4.94105e-23)
(1.01096 0.00226654 -3.68181e-23)
(0.821058 -0.247445 3.21735e-21)
(1.01238 0.00156708 9.59678e-23)
(1.01221 0.00146642 2.52805e-22)
(1.01226 0.00145236 -9.50101e-22)
(1.00667 -5.59527e-05 4.89773e-22)
(1.006 -2.65057e-05 6.34176e-22)
(1.00603 -1.29293e-05 -4.76671e-22)
(0.890813 0.264187 8.1735e-22)
(0.900767 0.258298 5.05803e-22)
(0.899688 0.271631 1.84744e-21)
(1.01248 0.0017108 8.55263e-22)
(1.01257 0.00164263 2.20183e-22)
(1.11625 0.0680233 2.59973e-21)
(1.12099 0.0660471 1.51634e-22)
(1.11481 0.061353 1.23569e-21)
(1.01644 0.0031836 3.98482e-22)
(1.01644 0.00301002 1.03259e-21)
(1.01622 0.00305979 -3.03645e-22)
(1.01538 0.00437398 4.47199e-22)
(1.0161 0.00475945 2.53708e-22)
(1.00604 -9.88459e-05 -2.62531e-22)
(1.00505 -4.26481e-05 -1.20521e-22)
(1.00509 -4.62038e-05 6.64539e-23)
(0.787619 -0.294636 6.40782e-21)
(1.0102 0.00177786 0)
(1.01031 0.00222067 1.95862e-22)
(0.965121 0.115499 0)
(0.952198 0.116228 0)
(0.954668 0.122359 1.45996e-22)
(1.00938 -0.000233487 -7.11436e-22)
(1.04257 0.0342554 -6.84358e-22)
(1.04268 0.0361428 8.24578e-21)
(1.04435 0.0349991 2.67919e-21)
(1.10954 0.0706602 1.06671e-21)
(1.11521 0.0763725 6.95576e-22)
(1.01652 -0.000859306 -5.50717e-22)
(1.01598 -0.000941944 -1.01316e-21)
(1.01594 -0.000587461 -1.53608e-22)
(0.990668 0.0727223 -1.9761e-23)
(0.992866 0.0770985 -1.11026e-21)
(0.994704 0.0715955 3.43267e-22)
(1.00649 -6.17446e-05 -2.28254e-22)
(1.00718 -8.02582e-05 -2.79976e-22)
(1.00698 -9.14756e-05 1.87254e-24)
(1.02748 0.0226455 -1.41591e-21)
(1.02809 0.0222337 -3.01861e-21)
(1.02818 0.0233126 5.46464e-23)
(1.04706 0.0249261 -3.36186e-21)
(1.04775 0.025225 -1.8756e-21)
(1.00947 -0.00023413 1.77387e-22)
(1.00944 -0.000243402 -5.06545e-22)
(1.00935 -0.000227223 -5.20458e-22)
(1.03134 -0.0887198 3.78727e-22)
(1.02422 -0.103078 -2.22627e-22)
(1.03813 -0.0957794 0)
(1.01138 0.000768768 -3.82006e-22)
(1.01146 0.000786614 1.82227e-22)
(1.01141 0.000815492 -3.59334e-22)
(1.01645 0.00329082 0)
(1.01664 0.00325964 0)
(0.994948 0.0442792 -4.54513e-22)
(0.991756 0.0442123 -2.27367e-22)
(0.993806 0.0413414 3.86816e-22)
(1.0135 0.00149569 3.26e-22)
(1.01281 0.00240862 2.03435e-21)
(1.01386 0.00240254 1.0824e-21)
(0.963816 0.0232799 -9.3277e-22)
(0.962072 0.0317063 -1.13081e-21)
(0.970482 0.0283356 -1.20015e-21)
(1.00953 -0.000225837 -7.86755e-23)
(1.0095 -0.000228764 8.88822e-23)
(1.0094 -0.000215742 -4.28751e-23)
(0.779892 -0.27746 3.23703e-21)
(0.762215 -0.246819 9.6442e-21)
(1.00956 -0.000230339 4.44113e-22)
(1.00967 -0.000239593 5.22912e-22)
(1.01129 0.000760885 0)
(1.01136 0.000725507 -3.84438e-22)
(0.956265 0.0184163 -7.89505e-22)
(0.966714 0.0145775 -7.09712e-22)
(1.02686 0.0232602 4.59556e-22)
(1.02675 0.0221979 5.29505e-22)
(0.954897 -0.0148096 7.1056e-22)
(0.944417 -0.0124114 1.09399e-22)
(0.955175 -0.00536255 9.23469e-23)
(1.0096 -0.000245786 1.36779e-21)
(1.02449 0.0261367 -1.02843e-21)
(1.02534 0.0266086 1.1191e-21)
(1.02457 0.027142 7.26684e-22)
(1.04031 0.062404 -1.355e-21)
(1.04268 0.0632881 -1.82577e-21)
(1.03996 0.0646056 9.96265e-22)
(1.00424 7.31348e-05 -1.4094e-21)
(1.00414 9.36715e-06 5.27926e-22)
(1.00288 1.71715e-05 2.26097e-22)
(1.00797 0.000291626 3.05748e-23)
(1.00688 0.00023886 7.86292e-24)
(1.00666 0.000220681 4.2886e-23)
(1.04438 0.0483297 -1.95253e-21)
(1.04443 0.0465584 -8.89509e-22)
(1.04594 0.0476049 -2.01926e-21)
(1.01041 0.00154702 7.52712e-23)
(1.01035 0.00146576 7.82941e-22)
(1.01031 0.00150648 4.95804e-22)
(1.04253 0.0488899 1.52978e-21)
(1.0441 0.0500809 1.75736e-22)
(0.926247 0.298972 -5.91343e-21)
(0.937557 0.309307 1.01217e-20)
(0.926435 0.138003 -6.56026e-22)
(0.928489 0.128451 -5.07736e-22)
(0.937036 0.135905 0)
(0.956371 -0.025076 1.07066e-21)
(0.96458 -0.0166825 1.03297e-21)
(1.01208 0.00138868 5.00206e-22)
(1.01215 0.00148845 3.8433e-22)
(1.10719 -0.0301367 0)
(1.10364 -0.0511679 0)
(1.10559 -0.0132942 -1.56026e-21)
(1.01622 0.00131012 -1.63282e-22)
(1.01646 0.00177345 3.42107e-22)
(1.01698 0.00145606 3.51884e-22)
(1.00998 0.00154048 -8.21113e-23)
(1.00997 0.00154424 -3.0075e-22)
(1.00989 0.0014694 7.30492e-23)
(1.01595 0.000942249 -5.38682e-22)
(1.01552 0.00117597 -1.46949e-22)
(1.07133 0.0250089 0)
(1.07389 0.0246116 0)
(1.07229 0.0272876 0)
(1.02195 0.0115529 1.51835e-22)
(1.02236 0.0117029 1.35394e-21)
(1.02207 0.0119939 1.17416e-21)
(1.03817 0.0610634 5.70816e-22)
(1.041 0.0598918 -8.89494e-22)
(1.0112 0.000753657 -1.6637e-22)
(1.01123 0.000785782 0)
(1.01195 0.00128707 -1.21015e-21)
(1.01199 0.00130387 -1.0579e-21)
(1.01082 -0.00060395 -8.87311e-24)
(1.01088 -0.000656613 2.68088e-23)
(1.01078 -0.000618194 -8.24093e-24)
(1.02638 0.023694 -1.41418e-23)
(1.02575 0.0241619 -2.25594e-21)
(1.02566 0.0232437 -3.86475e-23)
(1.0098 -0.000310809 0)
(1.00967 -0.000287008 7.21606e-22)
(0.985999 0.0741778 -7.48578e-22)
(0.988287 0.068678 9.1027e-22)
(1.10821 -0.000246451 0)
(1.10477 -0.0460929 -1.53843e-21)
(1.04522 0.0353145 1.48025e-21)
(1.0454 0.0362069 2.2309e-21)
(1.04626 0.0354663 -9.95662e-22)
(1.00949 -0.000324255 -2.11128e-22)
(1.0096 -0.000333304 -2.03169e-22)
(1.00945 -0.000314778 1.54962e-22)
(1.00682 -0.000106168 -2.06248e-22)
(1.00681 -0.000116454 2.06034e-22)
(1.00451 -3.52375e-05 1.18784e-22)
(1.00321 -2.46368e-05 1.14238e-22)
(1.00447 -4.22114e-05 -1.38039e-23)
(0.995451 0.0257855 -5.44707e-22)
(0.99472 0.0279377 3.80029e-22)
(0.997214 0.0269145 1.22322e-22)
(1.02367 0.0256054 -1.69841e-21)
(1.0244 0.0251378 -9.4725e-22)
(0.959867 0.0566876 6.43622e-22)
(0.964878 0.0566392 1.50178e-21)
(0.962797 0.0631179 1.98553e-21)
(1.00938 0.0295317 0)
(1.0108 0.0293964 0)
(1.00995 0.028194 5.7843e-23)
(1.0111 0.000746196 -3.58303e-22)
(1.01118 0.000720311 -1.59425e-22)
(0.947095 0.0127778 -7.67549e-22)
(0.943335 0.0226716 -2.87873e-21)
(1.02308 0.0188431 1.86592e-22)
(1.02254 0.0191896 -3.32815e-22)
(1.02247 0.018431 -1.07791e-21)
(1.02848 0.0216728 1.06005e-22)
(1.02908 0.0222422 1.60547e-22)
(1.03942 -0.0750091 3.39396e-22)
(1.02638 -0.0806159 8.80619e-21)
(1.00609 -0.0286343 7.72067e-22)
(1.00276 -0.0367018 -1.79774e-21)
(0.924733 0.283622 8.72779e-23)
(1.04794 0.0523395 7.35446e-22)
(1.04812 0.0544118 0)
(1.05027 0.0530405 -5.18021e-22)
(0.939546 0.00448786 -9.47242e-22)
(0.952278 0.00396443 -3.85472e-22)
(0.990251 0.0896882 -1.91123e-21)
(0.986667 0.0935562 -8.15807e-22)
(0.985699 0.0883335 4.5052e-22)
(1.01259 -0.00135472 -7.43941e-22)
(1.01086 0.000810966 -8.38562e-23)
(1.01095 0.000828494 -6.21932e-23)
(1.13197 0.194696 -4.99861e-21)
(1.13263 0.179636 -1.72511e-21)
(1.02245 0.00932728 1.38619e-21)
(1.02263 0.00964542 -1.41398e-22)
(1.0222 0.00956306 4.23748e-21)
(1.00999 0.00152819 0)
(1.01007 0.0016069 0)
(0.879372 0.267738 -2.26567e-21)
(0.881898 0.255692 -7.88819e-22)
(1.01546 0.00529655 4.19995e-22)
(1.01533 0.00511719 3.59042e-22)
(1.01553 0.00521045 4.6465e-22)
(1.05684 0.0200455 1.88971e-21)
(1.05533 0.0192244 1.92083e-21)
(1.05721 0.0185248 0)
(1.04389 0.106566 -5.86623e-22)
(1.04518 0.102371 -6.69374e-22)
(1.0487 0.106752 -6.21443e-22)
(1.01039 0.00131298 -2.05337e-24)
(1.01045 0.00138517 -5.31074e-22)
(1.01051 0.0013428 9.98567e-23)
(1.10653 -0.0235582 9.93414e-23)
(1.09951 -0.0188831 3.38044e-22)
(1.07376 -0.057922 5.4527e-22)
(1.06362 -0.0726412 0)
(1.07498 -0.0740897 0)
(1.01267 0.000864877 1.8742e-22)
(1.01281 0.000918108 1.37094e-24)
(1.01273 0.00102047 -1.24589e-22)
(0.926069 0.149615 9.37176e-22)
(0.916957 0.141794 -5.68863e-22)
(1.04049 0.0235967 1.34246e-21)
(1.0406 0.0230029 0)
(1.04117 0.0236321 9.86303e-22)
(0.989899 0.000814607 -6.64959e-22)
(0.991735 -0.00293593 1.50369e-21)
(0.986918 -0.00254392 -5.95705e-22)
(1.01079 0.00227288 1.89944e-22)
(1.01072 0.00219843 -1.19012e-22)
(1.01071 0.00220947 -1.33954e-22)
(0.91763 0.319147 -2.55104e-21)
(0.910278 0.304279 -2.21403e-21)
(1.03832 0.106312 0)
(1.0418 0.111355 0)
(1.01409 0.000284665 -1.10181e-21)
(1.01456 0.000311586 -5.68409e-22)
(1.01444 0.000337724 -1.47003e-21)
(0.908241 0.110872 -1.04541e-21)
(0.890637 0.109344 5.38259e-23)
(0.924972 0.101326 -4.95739e-22)
(1.01299 -0.00192093 -4.63328e-23)
(1.0128 -0.00187302 4.6224e-23)
(1.01286 -0.00182565 -2.46785e-23)
(0.993503 0.0247133 -6.70916e-22)
(0.996 0.023585 -1.08255e-22)
(0.960458 -0.112816 1.13339e-22)
(0.950126 -0.119089 5.77253e-22)
(0.948333 -0.100398 3.37572e-22)
(1.01122 0.00172041 -9.99223e-23)
(1.01117 0.00174639 -1.01292e-22)
(1.02893 0.0211104 -4.26191e-23)
(1.02797 0.0211678 6.9731e-22)
(1.01316 -0.00210889 8.13419e-22)
(1.01285 -0.00178796 8.06073e-22)
(1.01318 -0.00178303 -1.58699e-22)
(1.00696 -0.00667538 3.41843e-22)
(1.00562 -0.00571139 7.08219e-23)
(1.00711 -0.00482048 -6.61392e-23)
(1.00942 -0.000259048 0)
(1.00932 -0.000258179 -2.95142e-22)
(1.00769 7.60971e-05 0)
(1.00782 7.63471e-05 0)
(1.00783 8.46492e-05 0)
(1.01076 0.000788047 2.52072e-22)
(1.01077 0.000698141 2.1085e-22)
(1.00432 3.9863e-05 -1.66611e-21)
(1.00507 -7.5105e-05 -6.74639e-22)
(1.01084 0.00230847 2.00939e-22)
(1.01086 0.00232395 2.89319e-22)
(1.00746 6.8976e-05 0)
(1.00743 5.39786e-05 0)
(1.01012 0.00750773 -6.15797e-23)
(1.01004 0.0066232 0)
(1.00929 0.00718339 0)
(1.01539 0.00536974 3.78815e-22)
(1.0156 0.00546498 3.94023e-22)
(1.00956 -0.000335151 0)
(1.00941 -0.000315598 5.69856e-23)
(0.99987 -0.00521371 3.40026e-22)
(0.998624 -0.00294088 0)
(1.00115 -0.00276396 0)
(1.01039 0.00373346 -8.28004e-22)
(1.01067 0.00266894 -5.96589e-22)
(1.00947 0.00296062 -2.98212e-22)
(1.03271 -0.0445599 -3.68873e-21)
(1.03056 -0.0538331 3.36682e-21)
(1.02333 -0.0498901 3.15008e-22)
(0.921694 0.115648 5.89644e-21)
(0.876922 0.121336 0)
(1.09656 0.218861 -2.4977e-21)
(1.0908 0.234035 2.04849e-21)
(1.08005 0.219039 -2.417e-21)
(0.73402 0.230625 -6.63064e-22)
(0.753119 0.232129 5.13953e-21)
(0.738826 0.248688 -1.9701e-21)
(1.04033 0.024324 -6.18156e-22)
(1.03978 0.0236231 3.1485e-22)
(1.00482 -6.0332e-05 1.35212e-22)
(1.00486 -6.32268e-05 -5.46989e-22)
(1.00343 -3.91756e-05 -4.00166e-22)
(1.0563 0.0215981 2.28251e-21)
(1.05805 0.0211491 1.92713e-22)
(1.00434 -1.19996e-05 1.78653e-23)
(1.00437 -2.49071e-05 -2.99822e-22)
(1.00293 -2.00678e-05 1.0673e-22)
(0.838983 -0.250736 0)
(0.826959 -0.227337 -2.0609e-21)
(1.00561 -8.8666e-05 8.67318e-23)
(1.00564 -8.72705e-05 -7.26705e-23)
(1.00422 -4.53983e-05 9.08555e-23)
(1.01346 0.00021686 -4.28176e-23)
(1.0133 0.00022056 -8.36736e-22)
(1.00443 -2.57219e-05 1.79249e-23)
(1.00542 -8.63349e-05 0)
(1.01146 -0.00105138 -1.38366e-23)
(1.01155 -0.00105593 6.44269e-25)
(1.01157 -0.00111491 3.33891e-23)
(1.03901 0.0107558 5.49921e-21)
(1.03974 0.0108826 1.92862e-21)
(1.03926 0.0112698 -2.27101e-22)
(1.02174 0.03685 2.85199e-22)
(1.02299 0.0362435 -5.07832e-22)
(1.02274 0.0381609 -3.61869e-22)
(1.00423 2.02093e-06 1.51341e-23)
(1.00425 1.40701e-05 -1.22202e-22)
(1.00288 -1.31739e-05 -3.38586e-22)
(1.03405 -0.0361068 -1.1654e-22)
(1.0395 -0.0367099 -1.16082e-22)
(1.02337 0.0112019 -2.63276e-22)
(1.0229 0.0110796 1.21332e-21)
(1.02317 0.0107373 9.68428e-23)
(1.01161 0.00228206 2.48469e-22)
(1.01172 0.0023653 2.37664e-22)
(1.01166 0.00225612 -6.70041e-23)
(1.02436 -0.032064 -3.19585e-22)
(1.02525 -0.0268882 0)
(1.0203 -0.0294093 0)
(1.01185 0.00118972 -6.2509e-22)
(1.01189 0.00126291 -9.69504e-23)
(1.00503 3.623e-05 -2.42353e-22)
(1.00457 -2.37079e-05 5.49071e-22)
(1.00576 6.52484e-05 -9.20491e-22)
(1.04068 0.0492748 1.94706e-21)
(1.04003 0.0511484 8.52125e-22)
(1.03861 0.0496074 -5.02901e-22)
(1.01619 0.000886958 1.07149e-21)
(1.01615 0.000792526 1.52151e-23)
(1.01603 0.000845123 2.41973e-22)
(1.01191 -0.00105785 -4.98846e-22)
(1.01175 -0.000625195 -4.64958e-22)
(0.994521 0.0916466 -2.1993e-21)
(0.993844 0.0871422 -4.1712e-21)
(1.06936 0.0250041 6.91325e-22)
(1.0708 0.0226096 9.85891e-22)
(1.00942 1.81367e-06 -4.20507e-22)
(1.0093 1.39926e-06 -3.23491e-23)
(1.00933 1.21626e-05 6.10227e-22)
(1.01073 -0.000488396 2.64276e-22)
(1.01079 -0.00046146 2.59512e-22)
(1.01091 -0.000489595 2.69728e-22)
(1.0154 0.000184375 -2.85458e-22)
(1.0153 0.000162184 1.1322e-23)
(1.01541 0.000140328 -3.56483e-23)
(0.955001 0.0473886 -7.03083e-24)
(0.960254 0.0432937 1.62211e-22)
(0.954025 0.0391026 -8.15812e-24)
(1.00718 -3.70471e-05 2.25727e-22)
(1.00716 -6.31798e-05 2.92803e-22)
(1.14945 0.251901 9.1826e-23)
(1.13014 0.23377 5.85077e-23)
(1.12786 0.25535 1.15687e-21)
(1.00927 -1.95679e-06 -3.01773e-22)
(1.00936 -6.45251e-06 6.23189e-22)
(1.02492 0.188123 6.48393e-22)
(1.02514 0.168232 3.27249e-22)
(1.01175 0.00108269 4.35678e-22)
(1.01179 0.00112922 0)
(1.01571 0.00527638 4.76214e-22)
(1.01535 0.00518994 -2.51281e-22)
(1.01533 0.00558693 3.06209e-22)
(1.00188 0.00859172 -8.85719e-22)
(1.0033 0.00839421 3.116e-22)
(1.00436 -2.9325e-05 9.35408e-24)
(1.00474 -3.17386e-06 6.2546e-22)
(1.00551 3.62664e-05 4.61492e-22)
(1.10009 0.202795 -2.1383e-21)
(1.11281 0.217941 -1.01698e-22)
(1.02254 0.00799127 1.48225e-21)
(1.02266 0.0077457 -6.87812e-24)
(1.02293 0.00800816 2.20897e-21)
(0.717988 0.218047 -6.84631e-21)
(0.73454 0.207566 -4.54202e-21)
(1.01155 0.00227927 8.62742e-23)
(1.01151 0.0021733 -5.01805e-23)
(1.01114 -0.000389093 -1.54232e-22)
(1.011 -0.000398101 6.11683e-22)
(1.0111 -0.000415244 7.57536e-22)
(1.01207 -0.00125792 5.87832e-22)
(1.01199 -0.000965314 -6.17354e-22)
(1.01222 -0.00112459 -6.08278e-22)
(1.01849 0.00911193 6.34811e-22)
(1.01843 0.00883245 6.69185e-22)
(1.01823 0.00895251 1.36976e-21)
(0.966931 -0.0406315 2.40228e-21)
(0.955553 -0.0438086 -1.17763e-21)
(0.962823 -0.034492 -1.12122e-21)
(1.01516 -0.0035043 0)
(1.01595 -0.00381453 4.50397e-22)
(1.01524 -0.00429913 0)
(1.01445 -0.00314952 -4.16208e-22)
(1.01499 -0.00287904 0)
(1.01311 -0.00204169 -3.6869e-23)
(1.01319 -0.00198265 -1.67866e-23)
(0.857939 -0.248162 0)
(0.85361 -0.270721 3.69678e-21)
(1.02029 0.0372893 6.07356e-22)
(1.02093 0.035478 5.76131e-25)
(1.04678 0.0197852 -1.61319e-21)
(1.04626 0.019372 4.99857e-21)
(1.0462 0.0200108 2.56394e-21)
(1.02238 0.00826641 6.55548e-22)
(1.0222 0.00850227 1.28348e-21)
(1.02265 0.00855052 2.11077e-21)
(1.01107 0.00246618 0)
(1.01106 0.00248255 0)
(1.01115 0.00254852 9.08128e-24)
(1.04507 0.0342027 9.34383e-22)
(1.04409 0.0349495 0)
(1.0105 -0.000711479 -1.91781e-23)
(1.01046 -0.000746534 2.55325e-22)
(1.01035 -0.000706024 3.89828e-22)
(1.0457 0.044055 1.49201e-21)
(1.04443 0.0448756 3.44289e-22)
(1.04433 0.0432002 3.77865e-22)
(1.00567 0.00173736 -3.88636e-22)
(1.00444 0.000737591 -9.78932e-22)
(1.0063 0.000127746 9.39571e-22)
(1.04146 -0.0168404 -2.6036e-22)
(1.04634 -0.0205971 -1.39077e-22)
(1.04628 -0.0141306 2.04577e-22)
(1.0197 -0.00247032 -8.30857e-24)
(1.01866 -0.00259432 0)
(1.01962 -0.00348758 0)
(1.01053 -0.000676301 -2.71752e-22)
(1.01056 -0.000636427 0)
(1.01041 -0.000634565 0)
(1.08174 -0.0403358 2.19553e-21)
(1.07432 -0.0446667 -4.10665e-22)
(1.09174 0.149061 -1.56563e-21)
(1.08949 0.159326 0)
(1.08076 0.153394 1.7424e-21)
(1.00523 0.0437271 5.87942e-23)
(1.00277 0.0439842 -4.14095e-23)
(1.00394 0.041582 5.37553e-22)
(1.0145 -0.000638269 1.16658e-22)
(1.0142 -0.000440051 -2.57742e-23)
(1.01453 -0.000411707 -6.54445e-22)
(1.02708 0.0241407 0)
(1.01649 -0.0697687 1.02635e-21)
(1.02807 -0.0625887 -3.26097e-23)
(1.0252 -0.0761538 -2.9238e-23)
(1.01064 -0.000717116 -5.40357e-22)
(1.0016 -0.0072809 3.34176e-22)
(0.998702 -0.00800166 -6.87264e-22)
(1.03665 -0.0133649 -4.19229e-22)
(1.03672 -0.0182743 2.48156e-22)
(1.03344 0.0080258 1.63809e-21)
(1.03335 0.00750159 3.63231e-21)
(1.03283 0.00778071 1.76638e-21)
(0.994559 0.0972716 7.70315e-21)
(1.05035 0.0146924 3.13657e-21)
(1.05104 0.0148012 -2.77816e-21)
(1.0506 0.0141098 1.20932e-21)
(1.01396 -0.00279933 -7.87606e-22)
(1.01388 -0.00338185 -8.89477e-23)
(1.0096 -8.54562e-06 -2.69355e-22)
(1.00951 -5.52689e-06 -9.63946e-22)
(1.00948 -1.0909e-05 4.13904e-22)
(1.03831 0.0107116 0)
(1.03875 0.0102666 0)
(1.01349 -0.00245024 4.94348e-23)
(1.01393 -0.00234309 5.65228e-22)
(1.00724 0.0434424 -4.58055e-23)
(1.00944 0.042855 5.97067e-23)
(1.00821 0.0409206 0)
(1.0221 0.00799636 0)
(1.01646 0.00286238 5.49837e-22)
(1.01648 0.00271595 -1.09272e-21)
(1.01626 0.00274749 0)
(1.01103 0.00220113 -1.31579e-23)
(1.011 0.00222165 2.10331e-23)
(1.01094 0.00212918 1.07596e-23)
(0.974287 -0.0368874 2.86993e-21)
(0.971399 -0.0458624 2.88954e-21)
(0.943136 -0.0458639 3.98601e-22)
(0.932905 -0.0469685 3.26569e-22)
(0.94144 -0.0375124 2.01109e-21)
(1.01156 0.00069535 2.57473e-22)
(1.01162 0.000688108 -5.72163e-22)
(1.01162 0.000608814 3.4311e-22)
(1.01708 -0.000653382 4.02683e-22)
(1.01713 -0.00119691 3.88497e-22)
(0.947972 -0.0543729 -5.06055e-22)
(1.01388 0.00964338 -2.54047e-23)
(1.00941 0.00987235 5.08655e-23)
(1.01291 0.0135082 -1.05639e-21)
(1.00562 0.0035714 -1.0094e-21)
(1.00699 0.0026657 -1.59367e-22)
(1.01136 -0.000978116 7.31376e-24)
(1.01136 -0.00103358 1.24379e-23)
(1.00024 -0.00491315 -1.19438e-21)
(0.999623 -0.00794577 -5.10105e-22)
(1.00243 -0.006837 6.78609e-22)
(1.0502 0.0154822 6.85189e-21)
(1.04966 0.0147638 5.61767e-21)
(1.01389 0.000469361 2.46689e-21)
(1.01322 0.000379194 -1.17074e-21)
(1.01357 0.000475874 -1.38203e-21)
(1.01956 -0.00149296 1.1483e-23)
(1.02081 -0.00217424 -1.21509e-22)
(1.00961 0.00109344 -3.22659e-22)
(1.00967 0.00115851 3.72866e-22)
(1.00958 0.00110401 -1.03526e-22)
(0.968774 -0.102502 3.07715e-21)
(0.972147 -0.117239 3.53865e-22)
(1.02112 0.0289355 -1.69968e-22)
(1.01762 0.0324961 -8.96448e-22)
(1.02402 0.0344438 1.70533e-22)
(1.06774 0.0259922 1.4195e-21)
(1.06601 0.0263393 6.96874e-22)
(1.06777 0.0275999 6.90626e-22)
(1.05669 0.0222066 2.80843e-21)
(1.05686 0.0226046 6.56758e-21)
(1.0573 0.0222656 -2.45941e-21)
(1.00043 0.00882651 -5.99966e-22)
(1.00125 0.00702595 0)
(1.00166 -0.0210569 -1.03971e-21)
(0.998044 -0.0202562 -1.16476e-21)
(1.00099 -0.01728 -1.01251e-21)
(0.99584 0.00552187 -3.20632e-22)
(0.992976 0.00361444 -3.38059e-22)
(0.996778 0.00240931 -3.2088e-22)
(1.07627 0.0241492 -3.80271e-22)
(1.07768 0.026591 -3.88887e-22)
(1.07973 0.0234923 1.55303e-22)
(1.00955 0.0010306 -7.04234e-24)
(1.00964 0.00108118 -3.30314e-22)
(1.01667 0.00297902 -5.50071e-22)
(1.01122 -0.000229005 0)
(1.01128 -0.000694735 -1.40934e-22)
(1.01149 -0.000445866 0)
(1.00965 -0.00032836 0)
(1.00969 -0.000339013 1.80701e-24)
(1.00979 -0.000342826 3.15979e-22)
(1.01601 0.00536644 3.32866e-22)
(1.01618 0.00496966 6.0643e-22)
(1.04726 0.0201677 -1.5499e-21)
(1.04732 0.019577 -1.43711e-21)
(1.01077 0.00151643 8.83347e-23)
(1.01088 0.00156893 -1.94822e-23)
(1.01082 0.00147418 8.92989e-23)
(1.01919 0.00897583 -7.56065e-22)
(1.01938 0.00882154 -3.82622e-22)
(1.01944 0.00912794 -7.8137e-24)
(1.02848 -0.00423005 0)
(1.02603 -0.00424712 9.10916e-22)
(1.02735 -0.00230306 4.88966e-22)
(1.01033 0.0012424 2.70848e-22)
(1.01028 0.00127909 2.65691e-22)
(1.06391 0.0793332 -7.54561e-22)
(1.06773 0.0802544 -4.8373e-23)
(1.06455 0.0834411 -7.85943e-22)
(0.934107 -0.27841 -5.3863e-21)
(0.935607 -0.290193 -1.72826e-21)
(1.02392 -0.00410398 1.86361e-22)
(1.02172 -0.00363789 -8.28957e-22)
(1.02326 -0.00225378 8.27382e-22)
(1.01875 0.00927883 -5.38485e-24)
(1.01852 0.00941415 -7.44604e-22)
(1.00636 0.0295603 7.30345e-23)
(1.00803 0.0295766 -1.56376e-22)
(1.00699 0.0281876 -2.5958e-22)
(1.00953 -0.000315101 -5.20176e-22)
(1.00963 -0.000316673 0)
(1.04719 0.0446994 3.2523e-21)
(1.04873 0.0454861 -1.55004e-23)
(1.0475 0.0466857 8.9175e-22)
(1.02261 0.00689968 1.68253e-21)
(1.02226 0.00690335 -1.38177e-21)
(1.02234 0.00663139 -7.76455e-23)
(1.01917 0.0382383 -8.74324e-22)
(1.01801 0.0393578 -5.09003e-22)
(1.02016 0.0397149 1.21859e-23)
(1.01453 0.000248265 3.03105e-23)
(1.01376 0.000171737 -1.34721e-21)
(1.01855 0.037077 5.94655e-22)
(0.898835 -0.179911 5.68188e-23)
(0.894037 -0.168437 -4.93344e-23)
(1.01119 -0.000361935 -7.84801e-22)
(1.0111 -0.000348374 -9.02012e-23)
(1.05624 0.0293445 -2.79091e-23)
(1.05626 0.0293399 1.84556e-21)
(1.05627 0.0293806 6.05198e-21)
(1.02468 0.0178946 3.97704e-22)
(1.02471 0.0186425 1.75534e-22)
(1.02411 0.0181632 2.43489e-21)
(1.01941 0.00140164 -1.95022e-22)
(1.01995 0.0021857 0)
(1.02062 0.00139119 -4.0529e-22)
(0.995363 0.0090409 -1.07527e-21)
(0.998519 0.00737087 -3.33119e-22)
(1.00698 0.000127783 2.87306e-23)
(1.00663 0.00010502 1.76907e-22)
(1.01069 -0.000522219 0)
(1.01057 -0.00048836 0)
(1.06303 0.075579 -1.3036e-21)
(1.06015 0.0783169 -1.3541e-21)
(1.01897 0.00914123 -7.58347e-22)
(1.01892 0.00883027 -4.69453e-23)
(0.988666 0.0049179 -4.19165e-22)
(1.04862 0.0239667 1.23078e-21)
(1.04854 0.0233918 -1.52181e-22)
(1.04922 0.0236806 4.39838e-21)
(0.968856 0.0160783 1.31242e-20)
(1.05207 0.0422533 2.77624e-21)
(1.05253 0.0438502 1.17492e-21)
(1.0509 0.0431043 1.15632e-21)
(1.06705 0.0242 -2.8372e-21)
(1.01394 0.00518973 2.72596e-23)
(1.01439 0.00459593 -4.68665e-22)
(1.01445 0.005192 -5.33037e-22)
(1.0311 -0.00390835 -8.07129e-22)
(1.02929 -0.00676125 0)
(1.01241 0.00145197 -5.75821e-23)
(1.01224 0.00134945 -3.8925e-22)
(1.01227 0.0014073 -6.31131e-22)
(1.04822 0.0126119 0)
(1.04769 0.0130105 -3.04026e-21)
(1.04762 0.0122589 -6.2358e-21)
(1.05654 0.0215038 -1.08858e-20)
(1.05596 0.0219749 9.40636e-21)
(1.05636 0.0293368 -1.7305e-21)
(1.05621 0.0293839 -1.81624e-21)
(1.03836 -0.0334617 -1.92553e-22)
(1.03162 -0.041173 -1.93145e-22)
(1.03262 -0.0323695 -1.299e-21)
(0.960453 -0.0549405 -8.16076e-21)
(0.971026 -0.0599437 -2.89295e-21)
(0.927812 -0.0548709 1.48488e-22)
(1.01177 0.00310212 3.37716e-23)
(1.01184 0.00318267 6.13697e-23)
(1.01175 0.00310156 0)
(1.00899 0.00943558 -2.63278e-22)
(1.00954 0.0102029 -5.09483e-22)
(1.00852 0.0103449 7.59501e-22)
(1.10358 0.0719834 0)
(1.09784 0.0730951 0)
(1.1016 0.0784637 -1.03345e-21)
(1.00484 0.0296362 -8.87021e-23)
(1.00589 0.0310873 -4.16548e-23)
(1.01178 0.00306755 -7.89527e-23)
(1.01168 0.00301296 4.78437e-23)
(1.01091 0.00229047 -1.5145e-23)
(1.01084 0.00220979 -9.26493e-23)
(1.01116 0.00210547 9.5937e-23)
(1.01111 0.00212967 -9.65786e-23)
(1.01105 0.00202651 4.8012e-23)
(1.05894 0.0329802 3.41856e-21)
(1.0595 0.0334135 4.95853e-21)
(1.05877 0.0336541 0)
(0.977785 -0.0495023 -5.2686e-21)
(0.951187 -0.048691 1.68122e-21)
(0.587942 -0.0870263 7.73777e-21)
(0.592352 -0.102574 -3.888e-21)
(0.645839 -0.0927424 -8.02474e-21)
(1.04297 -0.0262231 -1.62067e-22)
(1.0454 -0.0339603 0)
(1.02421 -0.00626122 -1.98212e-22)
(1.04083 0.022262 3.45505e-21)
(1.04114 0.0216499 1.17297e-22)
(1.04155 0.0225044 2.86717e-21)
(0.984738 -0.0391537 9.73549e-23)
(0.98555 -0.046294 5.09353e-22)
(0.992897 -0.0397344 -4.18001e-22)
(1.01263 -0.0018285 4.6514e-23)
(1.01249 -0.00174652 1.76241e-23)
(1.01245 -0.00178659 -5.46465e-24)
(1.02238 0.00747331 -1.6101e-21)
(1.02278 0.00745664 -1.10996e-21)
(1.0401 0.022175 1.51167e-21)
(1.01853 0.00461927 0)
(1.01878 0.00461975 0)
(1.01871 0.00482055 -2.15534e-22)
(1.0065 0.0457889 -1.76086e-22)
(1.00621 -5.82573e-05 7.57153e-24)
(1.00742 -0.000119168 2.23537e-23)
(0.971125 -0.115966 4.57914e-21)
(0.951904 -0.117007 -1.41502e-21)
(0.961277 -0.133047 -2.13729e-21)
(1.00998 -0.000286341 0)
(1.00994 -0.000308508 0)
(1.01009 -0.000312555 0)
(0.924114 0.00152361 -1.4621e-22)
(0.933836 -0.00543664 -9.13864e-21)
(1.01488 0.000491609 4.16867e-22)
(1.01498 0.00055 0)
(1.01485 0.000532852 -8.03776e-22)
(1.0159 0.00971019 -4.58653e-22)
(1.01579 0.00937844 -1.91701e-22)
(1.01484 0.00405729 -5.57149e-22)
(1.01539 0.00413685 -1.74438e-23)
(1.01546 0.00345472 -1.04025e-21)
(1.01775 0.050631 4.64088e-21)
(1.02086 0.0516503 -1.1094e-21)
(1.02052 0.048064 2.27042e-21)
(1.06575 0.246861 -1.53089e-21)
(1.08482 0.25017 -2.88701e-21)
(1.07583 0.266484 -3.34427e-21)
(1.01126 0.0422099 9.19657e-23)
(1.0106 0.0446785 1.7859e-24)
(1.0462 -0.0180877 -1.6315e-22)
(1.04093 -0.0199776 4.43671e-22)
(1.01872 0.0121836 -8.62439e-22)
(1.01872 0.0117678 1.23038e-21)
(1.01905 0.012102 1.50141e-22)
(1.01052 0.00157896 -4.11254e-22)
(1.01046 0.00162636 -2.57523e-22)
(1.01827 0.0046127 1.56333e-21)
(1.01834 0.00441295 2.37111e-23)
(1.01997 -0.00117669 3.2207e-22)
(1.02122 -0.00163552 -4.9793e-22)
(1.02075 -0.000483458 2.98762e-22)
(1.03556 -0.0870972 3.0494e-22)
(1.04894 -0.0872217 3.931e-22)
(1.01062 0.00179911 0)
(1.01064 0.00174429 0)
(1.01054 0.00171216 1.74352e-22)
(1.01158 0.000645239 1.86466e-22)
(1.01092 0.000503167 -3.5151e-22)
(1.0117 0.000622972 -3.1517e-22)
(1.00277 -0.0370735 -4.71528e-22)
(1.00385 -0.0437256 2.5415e-22)
(0.996224 -0.0419054 1.99386e-22)
(1.01965 0.0117319 0)
(1.02 0.0119736 0)
(1.01994 0.0115429 0)
(1.01068 0.00169981 1.22865e-22)
(1.01063 0.00161594 1.28808e-22)
(1.01074 0.00165041 -3.15181e-23)
(1.00891 0.0262236 2.91748e-21)
(1.0051 0.0277956 3.22705e-21)
(1.00831 0.0302655 -1.94942e-21)
(1.01894 -0.000794712 4.58307e-23)
(1.01934 -0.00164626 5.11491e-22)
(1.01109 0.00215419 -9.45177e-23)
(1.01106 0.00217426 -1.82839e-23)
(1.01099 0.00207754 2.81867e-23)
(1.01351 -0.000393135 0)
(1.01388 -0.000413114 4.72089e-22)
(1.01381 -0.000598173 0)
(1.01643 0.0398817 1.16363e-22)
(1.01761 0.041711 -5.27846e-23)
(1.01273 0.000517456 -5.63308e-22)
(1.01175 0.000466554 -6.34828e-23)
(1.01174 0.00047141 -2.54313e-22)
(1.01478 0.0407645 4.13862e-22)
(1.0153 0.0384744 5.4292e-22)
(1.0115 -0.00103192 5.48354e-22)
(1.01154 -0.000975694 2.83868e-22)