/*--------------------------------*- C++ -*----------------------------------*\
| =========                 |                                                 |
| \\      /  F ield         | OpenFOAM: The Open Source CFD Toolbox           |
|  \\    /   O peration     | Version:  v2012                                 |
|   \\  /    A nd           | Website:  www.openfoam.com                      |
|    \\/     M anipulation  |                                                 |
\*---------------------------------------------------------------------------*/
FoamFile
{
    version     2.0;
    format      ascii;
    class       surfaceScalarField;
    location    "700";
    object      phi;
}
// * * * * * * * * * * * * * * * * * * * * * * * * * * * * * * * * * * * * * //

dimensions      [0 3 -1 0 0 0 0];
oriented        oriented;


internalField   nonuniform List<scalar> 
27907
(
-0.0825603
0.0642448
0.0183155
-0.0644924
-0.00918955
0.0736819
0.416204
-0.466601
0.0504072
0.016546
-0.00478432
-0.0117617
0.014598
-0.00621336
-0.00838467
-0.0120092
0.00517546
0.00683373
0.00988291
-0.00029991
-0.009583
-0.333676
0.422863
-0.0891825
0.0895202
-0.0787558
-0.0107644
-0.168932
0.0230263
0.145906
-0.0231117
0.183754
-0.160642
-0.00724082
0.00462285
0.00261796
0.0806288
-0.436883
0.35626
0.0895189
-0.108297
0.0187783
0.260281
-0.177116
-0.0831642
0.048948
-0.0291991
-0.0197488
0.033781
0.0934314
-0.127212
-0.0878109
0.369065
-0.281251
-0.121115
-0.136342
0.257458
0.145337
-0.121203
-0.0241344
0.00381523
0.000509308
-0.00432454
-0.430642
0.448783
-0.0181403
-0.00375804
0.00196179
0.00179624
0.06104
-0.0796632
0.0186232
0.025892
-0.0908406
0.0649486
-0.420518
0.0868469
0.0373274
0.00617462
-0.043502
-0.00237114
-0.00617454
0.00854568
0.0340147
0.0137409
-0.0477556
0.0761935
-0.0597814
-0.0164121
0.0934025
0.00979037
-0.103193
0.00087677
-0.00760217
0.0067254
0.474428
-0.461982
-0.0124439
-0.244241
0.12555
0.118691
-0.099648
0.0302501
0.0693979
-0.484352
0.293871
0.190482
0.557178
-0.334983
-0.222193
0.280926
-0.135892
-0.145033
-0.153029
0.243206
-0.0901768
0.0259615
-0.124724
0.0987629
0.274173
-0.189709
-0.0844632
0.159908
-0.139043
-0.0208652
0.174194
-0.340215
0.166023
-0.118158
0.158941
-0.0407833
0.0970402
-0.0739585
-0.0230816
-0.496537
0.261058
0.235486
-0.00222307
-0.00153497
-0.152569
0.192547
-0.0399774
-0.147915
-0.0210172
-0.203935
0.399424
-0.195486
-0.0895957
0.11419
-0.0245945
0.023098
-0.0179053
-0.0051927
-0.475834
0.0937618
0.382077
-0.194207
0.171095
0.00485247
-0.00722362
-0.0243415
0.0795999
-0.0552584
0.29944
0.257739
0.0433967
-0.0230638
-0.216545
-0.0169098
0.233455
-0.102567
0.0362788
0.0662886
0.0557996
-0.0858557
0.0300561
0.00833683
0.00154608
-0.114464
0.107888
0.00657602
0.188895
-0.0336882
-0.155206
-0.385869
-0.08996
0.345054
-0.190183
-0.154871
-0.0746885
0.133821
-0.059132
0.36453
0.109901
0.146991
-0.277875
0.130885
0.00372669
0.0193713
-0.0175605
0.0148794
0.00268114
-0.12185
0.224493
-0.102642
-0.379862
0.175929
-0.016654
0.0108155
0.00583852
0.150227
-0.377215
0.22699
0.208985
-0.00911431
-0.19987
0.0868851
-0.0653854
-0.0214997
0.00799404
0.00389015
-0.0118842
-0.0806778
0.0230456
0.0576322
0.00346042
-0.00151809
-0.00194233
-0.000434981
-0.000885379
0.00132036
0.077992
-0.0571629
-0.0208291
-0.0583819
-0.0441854
0.00411981
-0.00842882
0.004309
0.0864334
0.000451751
0.168421
-0.150044
-0.0183767
0.0187497
-0.0291915
0.0104418
-0.0953553
-0.0191086
0.0031578
-0.00237274
-0.000785059
-0.0473659
0.256352
0.00459939
-0.000479576
0.00204715
-0.218592
-0.00527793
0.00170109
0.00357684
0.140499
0.0194092
-0.00087393
-0.000651956
0.00152589
-0.00327382
-0.00200411
0.0766158
0.00981754
0.349319
-0.199089
0.121741
-0.260681
0.13894
-0.000754716
0.00456995
0.148204
-0.0214028
-0.126801
-0.00342091
0.00139944
0.00202147
-0.079939
-0.0243119
0.104251
0.0187544
-0.110826
0.092072
-0.00529513
0.0061719
0.0502129
0.0259806
0.0678148
-0.0455923
-0.0222225
0.0133157
-0.00532161
-0.162728
-0.0339084
0.196637
0.142303
-0.241963
0.0996602
0.00321664
-0.00649046
-0.016654
0.1974
0.216427
-0.413823
-0.152544
0.260704
-0.10816
-0.0511461
0.0420836
0.00906251
0.0147138
0.000370967
-0.0150848
-0.0108164
0.0114119
-0.000595541
0.128149
0.132132
-0.00168832
0.00211052
-0.000422195
-0.000182885
-0.000691045
0.0201481
0.111432
-0.13158
-0.270295
0.239158
0.0311379
-0.0199692
0.0270139
-0.0070447
-0.039446
9.69495e-05
0.0393491
0.0195508
-0.0757453
0.0561945
0.0634323
0.0336078
-0.0755627
0.0110703
-0.0627433
0.0762566
-0.0135133
0.00364296
-0.00194187
0.440547
-0.624885
0.184345
-0.0777694
0.11155
0.0610267
-0.0236993
-0.00175405
0.00226336
0.130343
-0.0530678
-0.0772756
-0.00946941
0.0302186
-0.199271
0.119483
0.0797884
-0.0818431
0.0164577
0.12546
-0.099498
0.276023
-0.15428
0.00259855
-0.0468954
0.0442969
-0.0749866
-0.00569118
-0.00625657
-0.0457597
0.0520163
-0.262207
0.237454
0.0247534
-0.0582394
0.0338979
0.225012
0.0491614
-0.186143
0.277221
-0.0910775
-0.001593
0.00130179
0.000291211
-0.00827134
-0.000689565
0.00896091
-0.0139104
0.107313
0.0242882
-0.0409944
0.0167063
0.0567475
0.0212445
-0.0502499
-0.00934408
0.0595939
0.186054
-0.0485339
-0.13752
-0.45884
0.457457
0.00138413
0.00424315
-0.00258829
-0.00165486
-0.000751347
0.154544
-0.153793
-0.002061
0.000372681
-0.198431
0.0458623
0.00338576
0.16628
-0.169665
0.486256
-0.299992
-0.186264
-0.193308
0.35575
-0.162441
-0.0956826
0.0733076
0.022375
0.0109251
-0.00639603
-0.00452907
-0.18398
0.187366
0.0844705
-0.0286709
0.0483833
-0.0143686
0.161808
0.0905838
-0.252391
0.022406
-0.00420358
-0.0182024
0.0684235
-0.0883479
0.0199245
0.00446574
0.00849482
-0.0129606
-0.0129695
0.0119091
0.00106045
-0.322273
0.234465
0.00708072
0.00384437
-0.00543527
0.010102
-0.00466676
-0.033707
-0.0619756
-0.00447517
0.0655152
0.0426329
-0.00909992
-0.0335329
0.17026
0.0186343
-0.0608637
0.0634622
-0.265788
0.145864
0.119925
0.263544
-0.460438
0.196899
0.0135544
-0.0135544
0.0154823
-0.0657321
-0.182522
0.34723
-0.164707
-0.0762335
0.157862
-0.0816281
-0.0119304
-0.0530523
0.0649827
-0.317065
0.23538
0.0816854
0.0130069
0.00170695
-0.217332
0.387256
-0.169921
-0.313165
0.182595
0.130571
0.0666062
0.0637372
-0.0741572
0.011414
-0.0309465
0.209248
-0.178301
0.0983116
-0.112222
-0.0477474
-0.0534849
0.101232
-0.115664
0.0203089
0.126665
0.018672
0.105444
-0.0370202
0.535093
-0.301266
-0.233824
-0.185688
0.359884
-0.027222
0.0741355
-0.0469135
-0.177378
-0.0210536
0.136134
-0.150244
0.0141097
0.0835404
-0.102985
0.0194442
-0.30127
0.381904
-0.12083
0.0730823
0.0775412
-0.105752
0.0282107
-0.529761
0.0709214
0.00518819
-0.000314485
-0.00487371
-0.171089
0.0231741
-0.162328
0.381248
-0.218918
-0.0884659
0.10722
0.0619797
0.148219
-0.210198
-0.119035
0.135757
-0.0167225
0.0527717
-0.0735244
0.0207526
0.00212691
-0.00177982
-0.000347092
-0.0246439
0.0774157
-0.0216305
0.041538
-0.0199075
-0.0908604
0.326659
-0.235795
-0.00459741
-0.00741178
0.206739
-0.200574
0.0378457
0.0938483
-0.0384735
-0.0553748
-0.000570129
-0.00102287
0.0192203
0.0583861
-0.0776063
0.104269
-0.0267273
-0.0792015
0.12178
-0.042578
-0.0837742
0.110563
-0.0267893
-0.358075
0.293826
0.0642507
0.0705506
-0.107725
0.0371743
0.245319
0.099735
-0.0220638
-0.0936005
0.00398147
-0.00318692
-0.000794554
0.0896201
-0.0130043
-0.00539057
-0.431488
-0.188103
-0.128961
-0.26313
-0.0949427
0.475786
-0.281927
-0.193852
0.0117798
-0.031749
0.165389
-0.10422
-0.0611696
-0.210248
-0.0741595
0.28441
0.0254339
-0.0851979
0.059764
0.0111997
0.0566152
-0.220495
0.0439296
0.176565
0.0450788
-0.0207906
0.00213378
-0.000820999
-0.00131278
0.078232
0.0113881
-0.277924
-0.206427
-0.000583719
-0.000611283
0.001195
0.126224
-0.00411373
-0.12211
-0.364806
0.0421205
0.322686
0.0237595
-0.00135355
0.0237914
0.144629
0.0906183
0.0356058
-0.0779696
0.201813
-0.123843
-0.0550518
-0.0630325
0.118084
0.078436
-0.0214984
-0.0569376
0.0148263
-0.0364568
-0.114329
-0.00470506
-0.0882285
0.0602234
0.0280051
-0.119136
-0.163454
-0.133429
0.0489396
0.0844891
-0.307411
0.335448
-0.0280355
0.103078
-0.0195376
-0.141552
-0.0295369
0.045997
0.0478513
0.0153506
-0.000712696
-0.0146379
-0.34021
0.249354
-0.038959
0.202865
-0.163906
-0.0703767
0.0720513
-0.00167458
0.162327
-0.201286
0.107991
-0.184225
-0.0324339
0.0260182
0.00927335
-0.0352916
-0.0120204
0.00120408
0.140166
0.0975061
-0.237672
0.0277256
0.0786373
-0.106363
0.0082964
0.000731767
-0.00902816
-0.0791296
0.0219667
0.21153
-0.179697
-0.0318335
-0.190166
-0.107474
0.297641
-0.176758
0.102921
0.0738378
0.0953254
0.070064
-0.221675
-0.0405319
0.00862891
-0.000332509
0.0840882
-0.0586543
0.0253923
0.0153612
-0.0407535
-0.00175405
0.0017584
-0.373327
0.193428
0.179901
0.0148613
0.40135
0.031641
-0.0961183
0.0644773
0.00546419
-0.00333728
0.152116
-0.112081
-0.040035
-0.0651829
-0.0840367
0.106134
-0.022097
-0.0553305
0.15353
-0.0981992
-0.0010187
-0.268535
0.14742
0.0801786
-0.0341801
-0.0459985
-0.00396308
-0.325501
-0.171028
-0.00515005
-0.0133221
0.0184722
-0.0899776
0.119513
-0.0295358
-0.121862
0.268854
-0.178278
0.0711254
0.107152
-0.079699
0.106691
-0.0269919
-0.220436
0.202939
0.0174972
-0.367921
0.0031152
0.0101897
-0.0120049
0.00181524
0.0553141
-0.0299218
-0.36734
0.216679
0.150662
0.00862049
-0.0105605
0.00194001
-0.00126324
-0.0610719
0.0802922
-0.291741
0.30537
-0.0136288
0.440554
0.0584333
-0.0715025
0.0130693
-0.0528097
-0.167685
0.135563
-0.318083
0.109018
-0.237574
0.128557
-0.12078
0.213339
-0.0925592
-0.0676607
-0.0206872
-0.111951
0.0322519
-0.0899775
-0.0867807
-0.00228057
-0.101939
-0.140034
0.0188314
0.00539495
0.0612113
0.174215
-0.29335
0.324806
0.16145
0.0284218
0.0478348
0.00608996
-0.0907391
0.0846491
-0.0557809
0.0835066
0.0156688
0.000877163
0.0600609
0.0920548
-0.218486
0.187539
0.428229
-0.589657
0.161437
0.0528881
0.0272905
0.019015
-0.024165
-0.385175
0.122047
-0.190895
0.398741
-0.207843
-0.283438
-0.101736
-0.117554
-0.0817174
-0.0986011
0.014827
0.0843737
-0.0584817
-0.0979979
-0.172297
0.256445
-0.138182
-0.118263
-0.38314
0.210446
0.172696
0.0449208
0.00402716
0.0508443
-0.0571008
0.0918854
-0.0270456
-0.0648398
0.031142
-0.0874539
0.0563119
-0.25243
0.196934
0.0554964
0.0642749
0.00931472
-0.0735896
0.0041217
-0.086682
0.0410449
0.0993964
-0.140441
0.0163633
-0.109434
0.0930704
-0.0051303
0.00134152
-0.00069679
-0.00064473
-0.0625615
0.0506311
0.3534
0.0871131
-0.440509
0.131195
-0.143111
0.0119156
0.00252329
-0.0622899
0.0597667
0.0306869
-0.00466871
0.00611219
0.140082
-0.146194
-0.2161
-0.157225
0.109878
-0.00804473
-0.101834
0.269391
-0.192469
-0.0769211
0.0340734
0.109049
-0.143123
-0.0602321
-0.0022678
0.0624999
0.00714861
-0.00763295
0.000484343
-0.0755111
0.093166
-0.0176548
-0.116912
-0.0231224
0.0133095
0.00204115
-0.263641
0.0299393
0.233702
0.0303978
-0.207775
0.125662
0.135914
-0.261575
-0.239936
0.086907
0.020312
-0.0919467
0.0716347
0.17141
0.00208682
-0.173497
0.00948602
-0.000865527
0.0718257
-0.0413044
-0.0305213
-0.189862
0.111893
-0.202374
-0.164965
-0.00146552
-0.0096889
0.0111544
-0.0914215
0.0159104
0.0353633
0.054157
-0.015857
-0.247784
0.0899398
0.0217487
-0.111688
0.117718
-0.307883
0.160444
-0.0277709
-0.132673
0.16387
0.0752879
-0.167103
-0.173103
-0.00630009
0.00838734
-0.00208724
0.00219968
0.00298852
-0.0636653
0.0266432
0.0370221
0.0219664
-0.260483
-0.232691
0.493182
0.00868929
0.0668539
-0.0755432
0.00116569
-0.00872406
0.00755836
0.0580372
-0.113089
0.398436
-0.201032
0.00634692
0.0093219
-0.14068
-0.13251
0.273191
-0.27898
0.181361
0.0976195
0.430371
-0.166822
0.0733524
-0.0530403
0.15302
0.113455
-0.266475
-0.154736
0.0365786
-0.0547066
0.0858486
0.00656623
-0.0237684
0.0172022
0.251501
-0.142482
0.00406706
0.010531
-0.0960675
0.13091
-0.0348426
0.0962079
-0.387947
-0.0300646
0.165128
-0.135063
-0.26771
0.140159
0.127551
0.190355
-0.139447
0.0841161
-0.0842704
0.117784
-0.0335132
0.0824848
-0.0770898
0.003145
-0.00101122
-0.0750473
0.0951955
-0.365689
0.200006
0.165684
-0.005517
-0.0648597
-0.0355515
0.0299368
0.00561462
0.00357895
0.0246449
-0.0282238
-0.00919805
-0.00377146
0.0267221
-0.0981154
0.0713933
0.217186
-0.176806
-0.0403794
0.191609
-0.358708
-0.360806
0.15056
-0.120946
0.182926
0.0642462
0.0289198
0.0241333
0.101368
-0.125501
-0.143349
0.145532
-0.00218283
-0.117051
0.0270731
0.0360106
0.0121478
-0.0669521
0.0548043
0.0243295
-0.173004
-0.0947051
-0.13627
0.13399
0.000778164
0.00237963
-0.215881
0.0299726
0.185909
0.00331407
0.00383454
0.428237
-0.414486
0.230027
-0.000918188
-0.00934584
0.010264
-0.120175
-0.0142975
0.134473
-0.163854
-0.0463445
0.210199
0.0673372
0.0110988
-0.0885638
-0.0110843
-0.0525041
0.0841451
0.00578681
-0.00214385
-0.161336
0.152222
0.193036
-0.0315935
-0.161442
0.0123389
-0.00182785
0.0064507
-0.0206712
-0.064281
0.0849522
-0.104671
0.100247
0.00442414
0.0846237
0.00489513
0.0670942
-0.0549464
-0.000365713
-0.0106892
0.0110549
-0.0720184
0.0901862
-0.212036
0.115562
-0.0313729
-0.0841889
-0.229991
0.0774483
0.0984911
-0.0342449
0.0762749
0.137105
-0.21338
0.00328046
0.00250635
0.109441
-0.0195009
-0.0738965
0.0764198
-0.141955
-0.00139422
0.00549433
0.0889229
-0.0944172
0.150291
-0.0395291
-0.0401341
-0.177448
-0.202411
0.00111181
0.000229709
0.255878
-0.130215
-0.0397752
0.0745112
-0.034736
-0.446646
0.143216
0.30343
0.0639061
-0.0681777
0.00427152
-0.110922
0.144996
-0.445161
0.281015
0.164147
-0.0727827
-0.187897
0.223343
0.207032
-0.0430356
0.00107391
0.0419617
-0.00255651
-0.000605046
0.00316156
-0.0252336
-0.0259125
-0.104502
-0.016496
0.120998
0.0425564
-0.163496
0.12094
0.0903023
0.0163886
-0.280566
0.515546
-0.234979
-0.418208
0.0313744
0.386834
0.0186826
-0.0154245
-0.00325809
-0.255473
0.182691
0.227926
0.117077
-0.345003
0.00861668
-0.0926534
-0.11401
0.467414
-0.0153093
-0.0893614
0.10342
-0.0131181
-0.0785267
0.306453
-0.120142
0.273162
-0.00276865
-0.108184
0.110953
-0.169473
-0.0464075
0.125651
-0.126403
0.044313
0.000765818
-0.00419492
-0.116776
0.120971
0.0778978
-0.0985689
0.00914844
-0.138935
0.129787
-0.26046
-0.105229
-0.0402951
0.0159798
0.0243153
-0.173508
-0.022818
0.196326
0.140012
-0.190309
0.050297
-0.0473295
0.0613738
-0.0140443
-0.0135177
-0.00211383
0.0156315
-0.0928381
0.0983324
0.0688522
-0.0354811
-0.0333711
0.12337
-0.117258
-0.0605612
0.00187267
-0.0153903
0.276732
-0.114923
0.000435761
-0.00802536
0.0075896
-0.0809041
0.0411289
-0.330229
-0.0331462
0.363376
0.044276
3.69587e-05
-0.00988238
0.0163848
0.0934936
-0.251734
-0.228798
0.48054
-0.0891925
0.0952825
-0.00316304
-0.0172677
0.0204307
0.091217
0.137732
-0.286902
0.149171
-0.207533
0.0304172
-0.168413
-0.0520234
0.0357185
-0.221861
0.466156
-0.446359
-0.0197872
0.0579821
0.0352984
-0.0287321
-0.17097
0.178301
-0.00733039
0.0344014
0.0139818
-0.277836
0.162292
0.115543
-0.0929768
0.105019
-0.0120424
-0.0694216
-0.00877739
-0.298633
-0.403017
0.109018
-0.170159
0.0611409
-0.519974
0.245507
0.274469
0.177657
0.0338731
-0.186685
0.0499812
0.136704
-0.102708
-0.163079
-0.0737819
0.0997762
-0.0259944
0.00636349
0.0385573
-0.171764
0.373464
-0.201696
-0.0160535
0.0206883
-0.00463477
-0.00573007
0.00280101
0.00292906
0.132246
-0.0435086
-0.0887371
0.0528731
0.0626887
-0.0139482
-0.0497171
0.0214006
-0.133245
0.12905
0.120027
0.0308366
-0.150864
-0.00866616
-0.00889433
-0.176841
0.00587152
-0.00838076
0.105959
-0.0975786
-0.267895
0.109015
0.15888
-8.80839e-05
-0.00399314
0.00408122
0.0681934
-0.127135
0.0589412
0.0795713
-0.028727
0.0688943
0.018186
-0.0870803
0.00841117
-7.43349e-05
-0.0678227
0.155801
-0.267174
0.111373
-0.10026
-0.0125315
0.112792
-0.0902748
0.0773684
0.0129064
0.0374894
0.0820402
-0.0624894
-0.220404
0.0526612
0.167743
0.0502317
-0.0390321
-0.191499
-0.00603909
0.197539
0.156863
0.120668
-0.27753
-0.185579
0.408925
0.381553
0.105588
-0.487136
-0.00681798
0.00367097
0.00314701
0.0435288
0.0067029
0.233574
-0.249431
-0.0576502
0.0740388
-0.0163886
0.141095
-0.108126
-0.0329686
0.0266119
-0.023033
-0.00230931
-0.000247198
0.000197289
0.058236
0.0609526
0.0160584
-0.077011
0.0244525
-0.19245
0.167999
0.00732094
-0.0134955
0.114843
-0.0165318
-0.0878237
0.238232
-0.150408
-0.12264
0.0479514
0.00077734
0.00815142
-0.00906961
-0.15037
-0.0938702
-0.159443
0.00522743
0.154215
0.235567
-0.0899692
-0.145598
-0.443788
0.0145726
0.429223
-0.00705629
0.00898223
-0.00192594
-0.0800019
0.0995445
-0.0195426
0.00311041
-0.0053481
0.00651379
0.146346
-0.242817
0.096471
0.250863
0.284232
-0.0188369
-0.102434
0.121271
-0.0708219
-0.35982
-0.326049
0.132743
-0.0275142
-0.159171
-0.148391
0.203572
-0.05518
0.0341061
0.127353
-0.0591597
-0.0440047
0.10344
-0.0594353
-0.00884567
0.0142725
-0.00542681
0.0964694
0.0037772
-0.326933
-0.119711
-0.0129323
-0.107243
-0.000586783
-0.0854545
0.0860413
0.0191862
-0.0149524
-0.00423387
-0.123559
0.115179
0.0751808
-0.0697433
-0.00543747
0.0286856
-0.126359
0.0976737
-0.0017556
0.23533
-0.0729917
0.0153414
-0.0354182
0.03858
-0.00316181
0.0322932
0.176955
0.0649305
-0.26444
0.199511
0.0643311
-0.0285307
-0.0358004
0.00117848
0.061439
0.424597
-0.0430406
-0.00110385
0.000407061
0.00255862
-0.00255862
-0.0862303
-0.00404454
0.20342
0.196006
0.00614514
-0.00602095
-0.000124189
-0.0108421
0.00841808
0.00242399
-0.0221108
0.141269
0.0301409
-0.447419
0.271516
-0.0462129
0.0450381
0.00117481
0.318492
0.157698
-0.0924793
0.0664884
0.0259909
0.00737258
-0.00693682
0.0658996
0.01631
-0.0822096
0.00196591
0.00644525
0.0216665
0.0857028
-0.107369
0.00514899
-0.00466504
-0.000483952
-0.115106
0.0308357
-0.233198
0.19843
0.0347674
0.0493335
-0.208776
0.0121588
-0.0122928
0.000133999
0.0261463
-0.00893092
-0.0172154
-0.000652377
-0.00659187
-0.00104108
0.140391
-0.0367302
-0.0557491
0.152955
-0.433521
-0.118412
0.0392109
-0.0190054
0.101967
-0.0829616
-0.0912897
0.00169403
0.089306
-0.419533
-0.118461
0.149908
-0.0314472
-0.0657606
0.0744499
0.00345635
-0.0195098
0.0118142
0.000344535
0.00818011
-0.0105679
0.00238783
-0.0765138
0.117559
0.0599124
0.0882914
0.0894653
-0.0112333
0.124783
0.131663
0.162037
0.134411
-0.296446
0.23123
0.0882493
-0.319479
-0.00627395
-0.134306
0.14058
-0.0830477
-0.343269
0.0665994
0.27667
-0.109027
0.090022
-0.168599
-0.158023
0.326624
-0.448698
-0.17618
-0.195105
0.401818
-0.20671
0.0113568
-0.00677688
-0.0045799
-0.0676242
0.209927
-0.411771
-0.0691171
0.480889
0.100086
-0.118923
0.00579789
0.114786
-0.120584
-0.308356
0.136595
-0.00837799
0.0020779
0.224067
0.0453252
0.159069
0.116968
-0.276036
0.00664597
-0.105082
0.0984363
-0.000637581
-0.085909
0.0865466
0.150548
-0.22811
0.147836
0.0802741
0.0102163
0.0649645
0.0679648
0.169846
-0.106303
-0.0635427
-0.0379325
0.00251427
0.106097
0.0637488
-0.015602
0.0219489
0.0196172
0.0197743
-0.008417
-0.0151533
0.0235703
-0.00871978
0.00166349
-0.218506
-0.00081885
0.0156982
-0.0836511
0.0146471
0.069004
-0.205035
-0.173681
0.378721
-0.0013125
0.00142048
-0.000107976
-0.151455
-0.181556
0.333011
-0.197163
0.403247
-0.206081
-0.101708
-0.0309951
0.132703
-0.465612
0.184365
-0.0842337
0.107392
-0.0231583
0.0155545
0.00363173
0.209811
-0.0105929
0.00217595
-0.17793
0.202383
-0.0290732
0.140505
0.00902272
0.0171236
-0.224274
0.397662
-0.173384
-0.00392717
0.000817255
0.00310992
-0.131978
0.160667
-0.0286889
-0.114109
0.266037
-0.151927
0.328407
-0.188361
-0.140045
-0.00436599
0.235597
-0.0788881
0.0475422
0.0313459
0.0251189
-0.0523409
0.00902695
-0.0120317
0.00300473
0.109108
-0.0126383
0.00580643
-0.000630968
0.120771
-0.0998569
-0.0209138
-0.143263
0.0675276
-0.0796222
0.0120945
0.00946763
-0.00128751
-0.00974105
0.0706937
0.029093
0.0450424
0.0241843
0.0677011
-0.0921445
0.114889
-0.022744
-0.108215
0.160643
-0.0524277
-0.0646655
-0.0142227
0.0613838
0.112478
-0.173862
0.0794441
-0.0226966
0.34683
0.122612
-0.469437
0.00467681
0.00146833
-0.0453119
0.170862
0.0791759
-0.0500828
0.114341
-0.117109
-0.0520301
0.20419
-0.15216
0.0622303
-0.0484894
0.181016
0.146254
-0.327268
0.0160422
-0.0899387
-0.167344
0.0353665
0.203639
0.123721
-0.0995877
0.107622
-0.102832
-0.00478991
-0.0289814
0.0765236
-0.0134722
0.0483519
-0.0575254
0.00917351
-0.000105525
0.00844435
-0.00833883
-0.269109
-0.232842
-0.000147123
-0.000956728
-0.0857659
-0.202576
0.288342
0.08108
-0.0730343
-0.00804575
-0.0795415
0.101208
0.0123055
0.171449
0.249303
-0.32783
-0.0695565
-0.108721
0.163174
-0.236994
-0.266639
0.15253
0.144068
-0.0306778
-0.11339
0.0667992
0.0142809
0.067957
0.035483
0.0401218
0.0242093
0.00435652
0.0919879
-0.0963444
0.432292
-0.236723
-0.195568
0.112011
-0.0195062
-0.092505
0.00246729
0.0401656
0.306677
-0.142731
-0.163944
0.0827246
0.0192424
0.0856942
0.0771694
-0.162863
-0.0160098
0.0174161
-0.0014063
0.0891397
-0.189066
0.0999264
-0.00182591
0.000977365
0.000848548
-0.118157
0.464991
0.0664139
-0.0379922
0.0959353
-0.507706
-0.0519357
-0.0545002
0.106436
-0.21811
0.130287
-0.151403
0.14513
0.0183056
-0.139218
0.120913
0.149195
0.279875
-0.120805
0.429731
-0.270899
-0.158827
0.00633897
-0.0493746
0.00720231
-0.00720231
0.151075
-0.10978
-0.0412948
-0.00587596
0.00194879
-0.215655
0.2139
-0.0270053
0.128373
0.182176
-0.0276317
-0.0827246
0.0364675
0.0462571
0.00155011
0.00191031
0.124691
0.0263846
0.235255
0.132044
-0.367296
0.0565295
0.0230417
0.13808
0.0507173
-0.266372
-0.0303445
-0.127927
0.158272
0.00996556
-0.0114311
-0.0264429
0.000458114
0.0259848
-0.0704356
0.0729887
-0.00255308
-0.0287139
-0.0427886
-0.0274386
0.0525575
-0.176432
0.0556527
0.295629
-0.212156
-0.0834726
0.0532111
0.0262331
0.204658
0.0131952
0.0678045
-0.0809997
0.0330337
0.126274
-0.159307
-0.424002
0.294543
0.129459
0.00590853
0.016981
-0.0228895
0.0182383
-0.0126754
-0.00556288
-0.222101
0.0118832
-0.00285629
0.131232
-0.122083
-0.0944517
0.113621
-0.0191695
-0.0205905
0.0808139
0.0401383
0.0136409
0.0509738
0.0260703
-0.0770441
0.530455
-0.326308
-0.204142
-0.454136
0.0535152
0.400631
-0.0100022
-0.00471585
0.0147181
-0.125956
0.266123
-0.139927
-0.137947
0.153061
0.228972
-0.0938705
-0.135101
0.0398853
-0.0462789
0.00639368
-0.0136125
-0.0664607
0.0800732
0.018337
0.00237296
-0.000655624
-0.00171734
0.0317296
-0.127797
0.0764601
-0.04621
0.165011
-0.079317
0.377967
-0.087951
-0.290013
0.17164
0.270995
-0.442629
-0.299727
-0.0914578
0.391189
0.0110423
-0.011408
0.00071089
-0.0839647
0.0624649
0.0214997
0.345187
-0.095884
0.361849
-0.126591
-0.114939
-0.129622
-0.148283
0.277906
0.0260481
-0.127756
-0.128191
-0.0265446
-0.0156973
0.00749343
0.0166833
-0.0241767
-0.0302895
-0.078738
-0.0419717
0.0699327
-0.027961
-0.0690913
-0.0148733
-0.139344
0.277077
-0.0799076
0.0152422
0.231206
0.0644236
-0.00357909
-0.030721
-0.05293
0.000554921
-0.0019013
0.00134638
-0.00950811
0.0588031
-0.049295
0.0439195
-0.192311
0.12062
0.0234479
-0.0705157
0.0262922
0.0442234
-0.00125825
0.0026669
-0.00140865
-0.00127292
-0.0985498
0.0624601
0.0360897
0.0826778
-0.0832646
-0.0102283
0.012101
0.343699
-0.457704
0.083236
0.0062293
-0.0364738
-0.00297217
0.102039
-0.00354762
0.449291
-0.257753
0.124699
0.00265393
-0.00516544
0.00655447
-0.00138903
-0.0170021
-0.023293
-0.0604276
0.0925107
-0.0320831
0.312014
-0.141566
-0.170448
0.021954
0.137855
-0.159809
0.122251
-0.105053
-0.0171984
-0.0122965
0.0114755
0.147678
-0.199708
-0.0521872
-0.0281749
0.0803621
-0.139142
0.305292
-0.166148
0.0235626
0.0550031
-0.0851995
0.0301964
0.161304
-0.304033
-0.345641
0.205861
0.139781
-0.075437
0.151712
-0.165194
0.0236425
-0.167139
0.398734
-0.231592
-0.123751
0.185135
-0.179718
0.051412
-0.00306006
-0.0750231
0.0917284
-0.0167054
-0.00931713
0.00862757
0.328993
-0.0103085
-0.0694889
0.0797975
0.317012
-0.162812
-0.1542
-0.0143154
-0.00244246
-0.0763134
-0.102134
-0.00262014
0.104754
-0.304308
0.165167
-0.168229
-0.0842002
-0.0210057
-0.0547396
0.101631
-0.0283824
-0.0732488
-0.109428
0.140265
0.00757097
-0.00104769
-0.00652328
0.0806977
0.021341
-0.170957
-0.0856434
0.23199
-0.0245329
0.000293777
-0.00266652
-0.0928382
0.00283926
0.089999
-0.437113
0.247211
0.189906
-0.0754871
0.0192764
0.0562108
0.243218
0.194113
-0.43733
0.10777
-0.136843
0.341883
-0.265074
-0.0768069
0.0548221
-0.0818301
0.027008
0.00241724
0.196969
-0.397396
0.20043
0.123762
0.153459
0.0689709
-0.0811888
0.0122179
0.221051
-0.0652494
-0.0106472
-0.0335828
0.04423
0.0129923
0.000643184
-0.0136355
-0.091692
0.104467
-0.0127745
-0.117181
-0.356997
0.0567445
0.300253
0.0938038
0.248081
0.248856
-0.367009
0.0114406
0.0588091
0.0207909
0.0584093
0.209406
-0.171056
-0.0383497
-0.00296272
0.00165022
-0.396731
0.136254
-0.17794
-0.135224
0.0161489
-0.0252488
0.135917
0.159985
-0.295901
-0.016478
0.0102646
-0.22399
0.402973
-0.178979
-0.000425433
-0.106818
0.107243
0.139121
-0.142269
0.293819
-0.151549
-0.289495
0.254769
0.0347272
-0.182705
0.425925
0.000740764
0.0111683
-0.203987
0.0401335
-0.196136
-0.227865
-0.00775039
0.0482257
-0.0404753
0.125249
-0.000550152
0.471382
-0.253029
-0.21835
0.110511
-0.103865
0.00823247
0.127902
-0.100506
0.346015
0.026066
0.210831
-0.109742
0.00760799
0.000919068
5.82973e-05
0.0715937
0.0168901
-0.0884838
0.148633
0.135711
-0.284344
0.0487252
0.0253136
-0.028457
-0.0735856
0.102043
0.115346
-0.0225254
-0.0928207
-0.135821
-0.0293725
-0.0205832
0.109626
-0.0890423
0.0599625
-0.200705
0.1043
0.0964049
-0.120844
0.0209874
-0.20375
0.292
0.141881
0.179719
-0.321599
-0.158687
0.336583
-0.177895
-0.00964023
-0.102146
0.111786
0.0781172
0.0576399
0.119181
-0.0132212
0.121717
0.14924
-0.270955
0.128898
-0.159242
0.022699
-0.00247627
-0.00774189
0.0102182
0.0412643
-0.0887911
0.271386
0.360542
-0.0906124
-0.269928
-0.115631
0.110038
-0.0457517
-0.0642859
-0.145031
0.0150295
-4.58451e-05
-0.0149836
0.317228
-0.18017
-0.137058
-0.124168
0.274194
0.0863493
0.0325027
0.0214618
-0.0539645
0.00158818
-0.00249976
0.000911577
0.176256
-0.47752
0.0228228
0.149574
-0.172397
0.190236
0.213013
0.0205167
-0.100058
0.46273
-0.2516
-0.211128
-0.186361
-0.0781995
0.26456
-0.0616272
0.0595406
0.00208658
-0.365179
0.461115
0.161526
-0.308694
0.147169
-0.409198
0.221498
0.187701
-0.105837
0.051893
0.0539444
0.436247
-0.280412
-0.155831
0.285186
-0.137469
-0.147716
0.00110032
0.0228183
-0.0239186
0.0174758
-0.0644348
0.046959
0.0388662
-0.0225324
-0.0760174
0.00101312
-0.00315852
0.0021454
0.112039
-0.081597
-0.0304418
0.180485
0.136744
-0.355845
0.100373
0.000273835
0.00692848
0.0370952
-0.223456
0.0336596
0.0841241
-0.0157075
0.10141
0.125976
-0.0999282
-0.122417
-0.0305851
0.153002
-0.085019
-0.127102
0.212121
-0.136026
0.0191148
0.176962
-0.205466
0.028504
0.240239
-0.43967
0.199434
0.0826944
-0.0276913
0.0187522
-0.00562989
-0.0131223
0.127129
-0.0226847
-0.104444
0.155474
-0.455197
-0.0510953
0.0404481
0.0293186
0.00600579
0.00348022
-0.00422875
0.00237312
-0.00787152
-0.0865802
0.262376
-0.460528
0.198153
-0.387005
0.135279
-0.0052229
0.419628
-0.414395
0.0203192
-0.455156
0.341933
0.113223
-0.242847
-0.0466477
0.00289004
0.00145307
-0.0043431
0.0323714
-0.105277
0.0956365
-0.196565
-0.159279
0.0955847
-0.0912282
-0.0783369
0.00924555
-0.227889
-0.217271
0.0875661
0.0713749
-0.101078
-0.0491663
0.057544
-0.0391602
-0.0183838
-0.099769
0.0843174
0.15125
-0.156687
-0.0375199
0.104683
-0.135678
0.425325
-0.210658
-0.214664
-0.00210015
0.0904225
-0.0883224
-0.17158
-0.0469052
-0.0313705
0.0580137
0.0215192
-0.0802113
-0.019046
0.0992573
-0.288201
0.147523
-0.0262783
0.125675
0.00019676
0.00194656
-0.00214332
-0.0165277
0.0117434
0.0650909
0.0185317
-0.0836226
-0.0974275
0.00458927
0.00125498
0.0137745
-0.192779
0.118964
-0.322714
-0.0349272
-0.164527
0.199454
-0.00432843
-0.0513962
-0.305601
-0.126181
0.116224
0.0547796
0.0863149
0.107716
-0.00324905
-0.452377
0.175196
0.277184
-0.475875
0.204773
0.271105
-0.144092
0.234676
0.110905
-0.476084
0.00199436
-0.0770174
-0.00828486
0.00169299
-0.0809883
0.0725601
0.00842826
-0.28499
0.199224
-0.0111882
0.0126826
-0.00149444
0.0954558
0.0267957
0.273887
-0.459667
0.185782
-0.07694
-0.0650147
0.449014
0.0178168
-0.466821
-0.0178258
-0.0867991
0.104625
0.0470404
-0.20185
0.15481
0.159237
0.152777
-0.00382484
-0.00142685
0.00525169
-0.0106892
-0.00024301
0.00309129
-0.00284828
0.15859
-0.219905
0.0613155
-0.0054544
-0.00809999
-0.118598
0.00617283
-0.00680008
0.000627248
0.00130577
-0.00513061
-0.459349
-0.112618
0.0920348
0.0591239
-0.0727364
-0.196871
-0.190814
-0.219207
0.410025
-0.00223943
-0.00258523
0.00482465
0.133834
-0.218853
0.323641
-0.126495
-0.197146
0.0278815
0.0571652
-0.0850467
-0.0314082
0.345472
-0.0966125
0.1298
0.0280438
-0.157844
0.450145
-0.138614
0.16405
-0.0254356
0.045428
0.0562032
-0.270886
-0.188779
-0.00451617
0.000932907
0.00358326
-0.136901
-0.261482
-0.214392
-0.0876121
0.0189038
0.0687083
-0.0852025
0.0992134
-0.0140109
0.0544942
-0.10643
0.376475
0.0766828
-0.0279577
0.161645
0.0990595
0.00446998
-0.288714
0.147149
-0.119567
0.313099
-0.19353
0.0470068
-0.00286562
-0.0441412
0.189144
0.217034
-0.406172
0.00178494
0.209902
-0.0764795
0.105165
0.0329816
-0.0424897
0.0196641
-0.0228272
-0.13657
-0.131325
0.141598
0.0828946
-0.197847
-0.147793
0.173551
0.00267378
-0.176224
-0.15797
0.049755
-0.0800922
-0.0342062
0.114298
-0.23503
-0.187061
0.422096
-0.00214242
0.163933
-0.3102
0.146269
0.296851
-0.171253
-0.125597
-0.079499
-0.0263383
-0.0267296
0.0732232
-0.0464936
0.0400559
0.0870729
-0.349087
0.471704
0.00517769
-0.00741712
-0.0974412
0.107669
-0.0102279
0.157846
0.122632
-0.1002
-0.0224324
0.140304
-0.289189
0.15668
-0.00101511
0.0392264
-0.0382113
-0.113007
-0.259764
0.140198
-0.129552
0.266876
-0.137323
-0.00262811
0.00012835
-0.154276
-0.119384
0.273661
0.319367
-0.200235
-0.119131
0.00297211
-0.171428
0.0328137
0.00120389
0.00281993
-0.00402382
-0.13939
0.0624497
-0.342864
-0.100918
-0.218424
0.408663
-0.00659177
0.172299
-0.145699
-0.0265997
0.155589
0.161423
-0.0384201
-0.00779278
0.00520895
-0.00608548
0.000876534
0.323803
0.112447
-0.00164191
-0.00663114
0.00827305
-0.085214
0.00500275
0.209177
0.0558452
-0.265022
-0.25355
0.142871
0.110679
-0.0475739
-0.0333302
-0.0385476
0.327913
-0.289365
0.057383
0.00977037
-0.0671533
0.109793
0.0195868
-0.368671
0.0833983
-0.0673561
-0.00523652
0.00330654
0.00192998
-0.0127682
0.263864
-0.102633
-0.16123
0.00773915
-0.00747361
-0.000265546
-0.116794
-0.0192317
0.018041
0.0253557
-0.0646457