/*--------------------------------*- C++ -*----------------------------------*\
| =========                 |                                                 |
| \\      /  F ield         | OpenFOAM: The Open Source CFD Toolbox           |
|  \\    /   O peration     | Version:  v2012                                 |
|   \\  /    A nd           | Website:  www.openfoam.com                      |
|    \\/     M anipulation  |                                                 |
\*---------------------------------------------------------------------------*/
FoamFile
{
    version     2.0;
    format      ascii;
    class       volScalarField;
    location    "1000";
    object      omega;
}
// * * * * * * * * * * * * * * * * * * * * * * * * * * * * * * * * * * * * * //

dimensions      [0 0 -1 0 0 0 0];


internalField   nonuniform List<scalar> 
18355
(
0.145196
0.0204518
0.183134
0.021011
0.0707306
0.0899082
0.021698
0.0838933
0.0223751
0.30692
0.0254851
0.10089
0.107316
1.06408
0.0211633
0.0202436
0.0210077
0.0238135
0.118289
0.0228173
0.123349
0.0219336
0.0204676
0.086913
0.0204779
0.0222339
0.0217211
0.0210143
0.0226573
0.0261582
0.783731
0.0426445
0.0204292
0.0201216
0.020878
0.0222553
0.0270074
0.0223449
0.0265993
0.0218514
0.0221474
0.0260433
0.0201398
0.0204349
0.0204457
0.283961
0.0209883
0.0209779
0.802601
0.021263
0.0209089
0.230472
0.021316
0.0909151
0.0212863
0.0228112
0.0209151
1.32575
0.022333
4.27633
0.0201328
0.0709352
0.0903346
0.0216663
0.0509837
0.0206625
0.0238152
0.0270904
0.0200841
0.521744
0.0209434
0.0212862
0.0365484
0.024647
0.178271
0.0201058
1.2374
0.0201187
0.0209147
0.140198
0.0237615
0.0716229
0.0200966
0.0248352
0.044809
0.0222657
0.0223835
0.0373039
0.0208737
0.0373594
1.10878
0.101249
0.0611908
0.0212568
0.419154
0.0221132
0.0208609
0.021657
0.0621527
0.0218559
0.0428328
0.0208831
0.0212072
0.0195623
0.0240078
0.0202538
0.0507284
0.460002
0.0317215
0.020205
0.0205896
0.0213619
0.0310548
0.0245667
0.955672
0.0273096
0.0208599
0.147767
0.0229362
0.0236041
0.571763
0.18486
1.10944
0.0421152
0.13058
0.457493
0.0217493
0.021042
0.152836
0.0216709
0.0208647
0.227233
0.0212709
0.0654489
0.0701516
0.0208639
0.119684
0.435271
0.0211943
0.110575
0.0251495
0.0393716
0.0209527
0.497768
0.0701394
0.0216476
4.20716
0.0196197
0.0308066
0.273653
0.021008
0.0235368
0.0216872
0.0280694
0.0201524
0.0206104
0.0210566
0.0222432
0.0209592
0.0207259
0.0241772
0.021277
0.0202111
0.0319384
0.0250548
0.129154
4.24642
0.159673
0.239114
0.0251214
0.0211387
0.0622333
0.0220212
0.803394
0.0209258
0.0221082
0.021292
0.0195301
0.022679
0.0285132
0.0223433
0.134139
0.0218072
0.0210365
0.038811
0.0211932
0.0222961
0.0364998
0.0213465
0.021826
0.312246
0.0623904
0.0204808
0.0201733
0.0214073
1.33766
0.0205955
0.190169
0.0204613
1.08333
0.0211575
0.023009
0.0267631
0.0222115
0.157489
0.0215851
0.225979
0.0210317
0.0204011
0.0216494
0.0215639
0.0630539
0.0230622
0.0223281
0.0196325
0.813361
0.028563
0.025108
0.0216037
0.0209901
0.0307488
0.0200469
0.0355453
0.032906
0.102015
0.0254003
0.0200796
0.450183
0.109819
0.0334184
0.0215914
0.0240303
0.0907897
0.0200667
0.0318677
0.0377766
0.0220019
0.354267
0.0245921
0.0223555
0.0204813
0.0225781
0.0219199
0.0322033
0.0215812
0.0212916
0.0209809
0.0616828
0.0753418
0.0210271
0.0221402
0.060881
0.130827
0.0375531
0.0195348
0.0738682
0.0245786
0.0217424
0.0259178
0.0208098
0.275181
0.381183
0.0578058
0.0287182
0.0272983
0.0378605
0.0354345
0.0666287
0.0208023
0.0212931
0.0219831
0.0202124
0.0230038
0.0252439
0.0209769
0.0215703
0.0292594
0.0208526
0.0632178
0.744428
0.0276169
0.0215917
0.0279725
0.0202
0.0378245
0.0215315
0.0294195
0.0218671
0.0287434
0.295989
0.0204155
0.0409662
0.0228118
0.0270081
0.0358915
0.0214384
0.0201469
0.0601847
0.0215666
0.0408858
0.0270432
0.678616
0.0383657
0.0589359
0.0233149
0.0304343
0.0211945
0.0238534
0.0282838
0.0408755
0.0517184
1.45898
0.0210688
0.0243786
0.0815126
0.028612
0.0210643
0.0209698
0.0209932
0.0435728
1.34334
3.47889
0.0459023
0.0289633
0.0248405
0.0873231
0.0196154
0.0215622
0.0247835
0.0213674
0.033518
0.0207479
0.497642
0.0202796
0.109342
0.0213527
0.0218099
0.0236041
0.11826
0.17062
0.0323125
0.0397073
0.0219229
0.0208828
0.0213587
0.024789
0.300094
0.0209054
0.0214828
0.179646
0.0218582
0.0209065
0.135238
0.0242683
0.0209872
0.0214157
0.0302726
0.0222553
0.0301357
0.0201806
0.021475
0.0218156
4.21361
0.116981
0.020141
0.0209388
0.0352633
0.0210007
0.0218466
0.281151
0.145043
0.0309921
0.0213428
0.0220534
0.108445
0.0233655
0.0881019
0.0238951
0.0203396
0.0360555
0.0373969
0.021732
0.0213532
0.0238621
0.0215595
0.0237652
0.0214022
0.0544927
0.021972
0.0233096
0.0209067
0.020994
0.022887
0.0223312
0.056152
3.74409
0.137884
0.0237115
0.129444
0.0276413
0.0213712
0.0207307
0.0388425
0.021346
0.0325079
0.0215604
0.0262354
0.0544348
0.290383
0.166218
0.060898
0.0195696
2.63048
0.0218581
0.0209666
0.124457
0.0213174
0.0312059
0.0204174
0.0543675
0.0213125
0.0605421
0.44944
0.0543005
0.021276
0.0204909
0.0559568
0.0229439
0.0210654
0.262268
0.356522
0.0209614
0.0393753
0.0561623
0.0204845
0.0220985
0.0310539
1.31963
0.0373598
0.0218573
0.0212369
0.0349513
0.0213644
0.0203222
0.0212307
0.196505
3.79879
0.0203246
0.0227828
0.0214959
0.126545
0.0361366
0.0201526
0.0313953
0.0358933
0.0214795
1.56584
0.0708689
0.0218461
0.0215442
0.0362007
0.133157
0.85942
0.02031
0.781553
0.02124
0.0203259
0.0405018
0.02309
0.0565866
0.0366506
0.0234573
0.0251189
0.0219444
0.130434
0.0231058
0.0276345
0.0219088
0.0202915
0.0217405
0.0203092
0.0700441
3.74638
0.0540325
0.0241836
0.0215938
0.0219064
0.0219682
0.0233533
0.0218722
0.0200917
0.0213843
0.0379103
0.0204908
0.021863
2.57404
0.209767
0.0828322
0.0216476
0.0226289
0.0311878
0.0218971
0.265192
0.195203
0.0240888
0.0249031
0.0251153
0.0222967
0.0237525
4.27257
0.0319322
0.0220242
0.252194
0.0216427
0.173589
2.52845
0.0249736
0.0220382
4.18875
0.0209827
0.0581695
0.0427694
0.0422757
0.0231
0.0217163
0.0214653
0.482765
0.928289
0.04078
0.464768
0.0231322
0.0214547
0.0248454
0.0212994
0.0236911
0.113733
0.789953
3.68039
0.555734
0.0278255
0.0401383
0.032169
0.0209968
0.021148
0.0291199
0.0239644
0.0215478
0.021297
0.127771
0.0208457
0.812647
0.0252216
0.0666356
0.116268
0.0211546
0.0245564
0.157112
0.0213792
3.5111
0.0212807
0.0909054
0.0319865
0.0219414
0.0318241
0.0665959
0.0615764
0.0225014
0.0200787
0.0336008
0.0251742
0.0669723
0.0213725
0.0715533
0.0208376
0.189743
0.0209491
0.0211701
0.177343
0.0263459
0.0373221
0.0208382
0.0252756
0.0264612
0.478394
3.49558
0.0243566
0.0580663
0.0209782
0.0278704
0.0217631
0.0241738
3.55247
0.0204341
0.113422
0.0215563
0.0211207
0.0243857
0.266112
0.0241232
0.0632706
0.0228623
0.0337439
0.389847
0.0196238
0.0209883
0.280041
0.0365572
2.68156
0.0379348
0.021709
0.0213025
0.0209888
0.024658
0.0220212
0.0203249
0.0840063
0.243783
0.0211524
1.21
1.30258
0.024685
0.200273
0.0203429
0.125632
0.0394247
0.019707
0.369669
0.0370259
3.29762
0.482096
0.0211669
0.0209841
0.0219829
0.0222333
0.0427435
0.0212974
0.0219819
0.0842732
0.0218076
0.0379815
0.0210883
0.0353365
3.13247
0.476041
0.173617
0.468702
0.0380975
1.24263
0.0249142
0.0209184
0.026669
0.466405
0.0279059
0.0408131
0.0212865
0.108451
0.0215129
0.0217554
3.10695
0.0220875
0.0271942
0.0348607
0.0596136
0.0214716
0.0212916
0.0243009
0.0257125
0.0200376
0.0231111
0.0331912
0.0969689
0.0232656
0.021452
0.0400184
0.446376
0.0212312
0.455364
1.2063
0.0214708
1.89943
0.0200932
0.181965
0.0213489
0.0205806
0.178703
0.0232938
1.32678
0.0231301
0.0212935
2.34391
0.0213457
0.0201875
0.0215277
0.0209276
0.0277042
0.03559
0.166847
0.0226613
3.55802
0.023199
0.45636
0.694165
0.0221284
0.0213518
0.0252852
0.0202361
0.0897523
0.0211942
0.0201758
0.0202987
0.0212853
0.0213692
0.255403
0.0245595
0.0428298
0.022866
0.0243333
0.0238507
0.0262143
0.3944
0.0204894
0.069459
0.0422486
0.0201012
0.792686
3.10269
0.020733
0.434304
0.0209977
0.108939
0.0336348
0.0196905
0.0338547
0.0261412
0.444255
0.0207982
0.0242063
0.466379
0.0652193
0.0591444
0.0213654
0.039589
0.0636374
0.121815
0.0213717
0.0229111
0.0211115
0.0214915
0.0210608
0.0207809
0.0204305
0.447011
0.0276201
0.0209545
0.020113
0.0204266
0.0218109
0.0624919
0.062468
0.0204154
0.0257098
0.0215367
0.0215628
0.0216813
0.0209477
0.0401938
0.0201154
0.0208869
0.0222654
0.02162
0.0230449
0.0230288
0.49872
0.097809
0.0244653
0.0208693
0.127461
0.0201638
0.0201242
0.0230313
0.0570661
0.0241534
0.0226925
0.0203305
0.0204704
0.0250444
0.0200739
0.0258373
0.0211845
0.0217669
0.02106
0.0228363
1.09398
0.0209103
0.0218786
0.0212439
0.126257
0.0423748
0.0267172
0.0220193
0.0277187
0.0255274
0.041292
4.35093
0.022305
0.040573
0.0218978
0.195948
0.0221819
0.0203684
0.0201035
0.375712
0.0200743
0.0269356
0.0480333
0.150339
0.0387329
0.0225138
0.0211017
0.0206563
0.0212178
0.0280313
0.0841263
0.493903
0.0420219
0.0215322
0.0200751
0.0226599
0.021062
0.0208204
0.0218096
0.0428434
0.025522
0.216857
0.0215262
0.0214372
0.0335069
0.0213048
0.133568
0.0423266
0.0391963
0.113664
4.26247
0.0280812
0.020985
0.0200859
0.021689
0.0212831
0.525748
0.0425089
0.0871453
0.0203553
0.0215989
0.0234748
0.0208404
4.40693
0.229938
0.0201271
0.0201317
0.0211623
0.0210686
0.0209153
0.0214118
0.253344
0.0199981
0.0220694
0.0203594
0.0205926
0.0210699
0.0214725
0.0255376
0.0205875
0.0264546
0.0203286
0.125134
0.204726
0.0236245
0.461044
0.0251944
0.0219187
0.0585167
0.31034
0.0214292
0.0208343
0.0204813
0.0272739
0.022564
0.0280405
0.0373934
0.0215101
0.0221289
0.0214834
0.517969
0.0374071
0.0227068
0.0206886
0.0241587
0.0383481
0.0211401
0.0617887
0.0208698
0.0200323
0.0245763
0.0618048
0.470925
0.0697245
0.260911
0.0201585
0.0446833
0.0578062
0.0247503
0.0212101
0.0583432
0.0240661
0.139805
0.0671772
0.0205867
0.0201709
0.0214803
0.0220189
0.0201848
0.472671
0.212781
0.0201548
0.021535
0.0219476
0.0353488
0.0212511
0.0209353
0.037797
0.0220285
0.0212562
0.0648606
0.0769205
0.070059
0.02127
0.0202838
0.0201769
0.0224161
0.025373
0.0289437
0.020873
0.0206955
0.0235666
0.0385639
0.0204733
0.0214155
0.0604372
0.0209148
0.0207616
0.0213484
0.204421
0.0202673
0.0214461
0.0204774
0.0245126
0.02027
0.0259758
0.121526
0.021416
0.118412
0.0290172
0.196998
0.051161
0.02099
0.0253076
0.0208449
0.020746
0.0210024
0.480981
0.271103
0.0337363
0.0271339
0.565099
0.0603835
0.0223412
0.0809721
0.0526034
0.0233993
0.0201994
1.17341
0.0222793
0.020867
0.020441
0.696483
0.216286
0.188407
0.0207144
0.0764405
0.0407375
0.025872
0.0298138
0.0241937
0.0234588
0.0327551
0.104291
0.0228251
0.0223218
0.024875
2.31763
0.275607
0.0212404
0.0211899
0.0211135
3.56841
0.0234435
0.0219107
0.580881
0.0259787
0.0349234
0.0241705
0.278325
0.0206793
0.381954
0.022122
0.0201696
0.0209851
0.0200312
0.0201935
0.0208942
0.0217279
0.223406
0.020577
0.674104
0.026622
0.0216878
0.0208672
0.0745637
0.0211945
0.0215144
0.0239505
0.763501
0.0458412
0.0232996
0.0215395
3.5487
0.0206747
0.0403223
0.0215219
0.18416
0.0304855
0.285783
0.0264602
0.0210652
0.0365223
1.22235
0.237418
0.0205645
0.0213415
0.0350938
3.56275
0.0195811
0.0451987
0.021283
0.025557
0.020864
0.0201639
0.0221845
0.0221757
0.0201203
0.035119
0.034973
0.0248177
0.110634
0.948867
0.0222548
0.0379542
0.0202278
0.08905
3.36143
0.144212
0.0201262
0.0228098
0.0215002
0.806549
0.0208303
0.0208922
0.0740887
0.0215148
0.0215273
0.0221416
0.0220715
0.0212515
2.64634
0.182252
0.0551229
0.0207561
0.021465
0.0920091
0.0201825
0.202234
0.021591
0.0214853
0.0220312
0.0238966
0.247206
0.0210042
0.0214753
0.781774
0.0215842
0.0218089
0.0351908
3.73677
0.125743
0.0214278
0.0210765
3.42031
0.470594
0.146259
0.020829
0.032456
0.179882
0.0204303
0.0382487
0.0228323
0.477047
0.0237331
0.0215536
0.022287
0.0200441
3.59341
0.0214656
0.0210182
0.0405859
0.0297641
0.0852126
0.0200042
0.0227338
0.0201422
0.0196687
0.0203144
0.0221658
0.0216258
0.0218558
0.0200548
0.0217674
0.0443433
0.0261961
0.026463
0.0208079
0.0235517
0.0210686
0.291024
0.0216275
0.0221855
0.0219795
0.0201183
0.0218139
0.0219957
0.0211705
0.0212339
0.0208364
0.0203158
0.548279
0.41299
0.0212443
3.60675
0.0338001
0.0222852
0.0217126
0.0222269
0.513872
0.0218997
0.0202013
0.0201487
0.0201368
0.161332
0.0212849
0.0203648
0.139503
0.0200898
0.019801
0.0255741
0.0274775
0.0630179
0.116509
2.57581
0.0199971
0.11024
0.0255653
0.0212316
0.0204379
0.0253383
0.0212849
0.0296319
0.0529174
0.0230505
0.0224999
3.13574
0.0446324
0.562634
0.63614
0.341205
0.0667234
0.0210491
0.169951
0.190335
0.0202029
0.114211
0.0207111
0.0224138
0.117124
0.0207514
0.312588
0.0253655
0.0229401
0.0220253
0.0493125
0.0213759
0.752348
0.0212417
0.0203601
0.534844
0.0198456
0.0230274
0.0218746
0.0486209
0.0212067
0.0214417
0.0230851
0.308163
0.0212034
0.0212781
0.0204417
0.0239546
0.0211835
0.0224143
0.0323305
0.020969
0.0260027
0.0217245
0.0237303
0.0245145
0.0209424
0.0219513
0.0811755
0.0215659
0.0217499
0.0248155
0.270978
0.0223202
0.0211284
0.0214232
0.0254543
0.0627522
0.0224173
0.0210234
0.0209634
0.0205687
0.019653
0.0201654
0.025471
0.0305576
0.0501183
0.0215447
1.0738
0.0206804
0.0213132
3.73426
0.0412508
0.0200531
0.0657909
0.0214484
0.0210215
0.47959
0.0218179
0.0400735
0.0197431
0.125481
0.0211506
0.0201111
0.0202929
0.0242088
0.0690674
0.0215409
0.101487
0.0202766
0.0209725
0.0207405
0.120828
0.0211046
0.0206587
0.0238919
0.0227928
0.0212742
0.0214544
0.0208
0.0217711
0.0215301
0.0208438
0.0234496
0.0200179
0.844941
0.0573002
0.0203913
0.0503703
0.0260641
0.0209355
0.0206985
0.022466
0.0207754
0.0287623
0.0248349
0.0407167
0.0404435
0.021672
0.0619519
0.125472
0.021223
0.0218353
0.0718412
0.0231737
0.275776
0.0202587
0.0221333
0.0249318
0.0233943
0.0217413
0.025789
0.0209514
0.0235577
0.0212459
0.023275
0.0211895
0.0996444
0.0213906
0.0241804
0.0311325
0.0210234
0.482741
0.459076
0.023551
0.0253845
0.0285313
0.0198897
0.0464377
0.0214375
0.0333579
0.620771
0.259764
0.0395401
0.0240982
0.0260278
0.0210157
0.0303293
0.020618
3.4913
0.0299964
0.0213735
0.0208092
0.0485229
0.0362343
0.021228
0.0212218
2.98095
0.0217196
0.0206496
0.106971
0.0477457
0.02019
0.101467
0.020333
0.0491817
0.0499693
0.0212686
0.0214332
0.0257249
0.116523
0.0207961
0.0262467
0.0214378
0.0212766
0.0208278
1.0919
0.0218144
0.0215245
0.0211323
0.0922758
0.0264793
0.0208091
0.0197801
0.087828
0.0211517
0.0204648
0.0902338
4.19728
0.0219494
0.482741
0.0248666
0.0432622
0.0231008
0.0520254
0.483344
0.0232192
0.0209461
0.0203722
0.0243832
0.0212049
0.621663
0.312264
0.0205368
0.0223101
0.0203627
0.0200651
2.97697
0.0212129
0.0225038
0.0228366
0.0521166
0.021453
0.0217031
0.0248463
0.488096
0.0215749
0.0215299
0.020486
0.0206116
0.0241332
0.0412355
0.0215581
0.0211226
0.0212841
0.0211736
0.0203743
2.53185
0.0217169
0.0210665
0.0210951
0.0526467
0.0203957
0.020467
0.0346715
0.0210093
0.0343696
0.0212525
0.0214333
0.0398873
3.80286
0.15782
0.0283456
0.0244113
0.0218568
3.28836
0.0206834
0.0248514
0.0200252
0.192771
0.0195489
0.0243023
0.021462
0.809992
0.0379967
0.0393335
3.42671
0.0225296
0.0479855
0.0217373
0.021977
3.02005
0.0334982
0.0211789
0.0203255
0.0237458
0.0263383
0.0214232
0.0212882
0.0206816
0.0199442
0.136906
0.300076
0.0217333
0.0235559
3.89524
0.606726
0.0230521
0.0227329
0.0231761
0.0243841
0.0212181
0.0235172
0.0902888
0.020912
0.0203509
0.0215165
0.0973494
0.155166
0.0255789
0.0215517
0.0216345
0.0266848
0.0213451
0.0257542
0.0402579
0.137896
0.0235428
0.421461
0.0201667
0.0212316
0.0218652
0.0199988
0.0216424
0.0208563
0.0529423
0.0210093
0.082961
0.0217116
0.0207352
0.0205212
0.0309176
0.0224231
0.0408521
0.052261
0.0203597
2.91263
0.0246384
0.0205607
0.0198099
0.040672
0.157728
0.0198296
0.0208155
0.0208591
0.0235016
0.150263
0.166421
0.023896
0.0220397
0.118962
3.47424
0.0220009
0.0212178
0.552065
0.0239146
0.068902
0.023197
0.0211481
0.0542254
0.024814
3.78797
0.0252908
0.554001
0.0204327
0.0209727
0.0222741
0.0216039
0.0238632
0.0216963
0.0215563
0.0207924
0.0217722
0.0230795
0.0221187
0.021672
0.0229759
0.0219223
0.0213407
0.0210608
0.0323003
0.0254935
0.0209205
0.0215156
0.133263
0.0226606
0.0232662
0.0220172
0.914499
0.0204687
0.036464
0.0227422
0.0203209
0.0210849
3.40102
0.0509657
0.0233899
0.0230041
0.0235633
0.0376538
0.0208721
0.0276102
0.0370543
0.0210573
0.0831277
0.0208267
0.021332
0.0217411
0.0218016
0.0286384
0.0488569
3.50638
0.0266466
0.0203526
0.0214978
0.0211107
0.0468964
0.021979
0.344877
0.0208199
0.0213718
0.0213557
0.0630052
0.0210107
0.0215802
0.0212579
0.114444
0.0204774
2.60228
0.0204539
0.0265557
0.0216673
0.0290111
0.0209935
0.023687
0.567594
0.0434871
0.0203552
0.0329757
0.0215121
0.0212922
2.77173
0.572303
0.0203445
0.0212496
0.0234016
0.0202877
0.0211318
0.0218928
0.0217132
0.0270097
0.0467355
0.0222076
0.0263945
0.0403931
0.0217279
0.0210007
0.0211793
0.0245388
0.0289021
0.0214273
3.61027
0.0208329
3.35713
0.0352808
0.0202583
0.0207364
0.0207163
0.0661141
0.0221247
0.0233181
0.0214919
0.0211192
0.573166
0.0228432
0.0275768
0.0216669
0.0214697
0.0227905
0.0212329
0.0228379
0.0213659
0.0241439
0.0220138
0.0218565
0.508971
0.0260413
0.48038
0.0209987
0.0249954
0.0225568
0.251868
0.0569931
0.109413
0.0224218
0.0199818
0.0385418
0.0210388
0.489086
0.0221877
0.0366513
0.0224265
3.47237
2.46842
0.0234986
0.027799
0.0207496
0.0205399
0.0219205
0.0199174
0.0217458
0.0231136
0.0207852
0.0256256
0.0422966
0.244962
0.0208923
0.148147
0.020158
0.0211914
0.0211374
0.0786039
0.021707
0.0499415
0.0217711
0.0213646
1.9015
0.0208789
0.0231764
0.0210444
0.0237778
0.0942993
0.0267167
2.24196
0.022406
0.0560354
0.0230845
0.0211203
0.0214633
0.0317372
0.0238312
0.0212774
0.0228305
0.0213254
0.521108
0.0207436
4.08196
0.15063
0.0605678
0.0253697
0.0777614
0.0284366
0.0199165
1.22274
0.0211898
0.518827
0.0218552
0.0227549
0.293849
0.289979
0.0270196
1.00445
0.0213823
0.238229
0.0196044
0.150901
0.0202175
0.0238073
0.037452
0.0219791
0.0207218
0.0220036
0.0212662
0.0321249
0.225632
0.0337067
0.340865
0.0204968
1.11085
0.0214408
0.021754
0.0211051
0.0209321
0.479984
0.0216034
0.0205758
0.0347817
0.0218307
0.0684777
0.060632
0.0212692
0.040656
0.0342046
0.0208542
0.0214378
0.0240115
0.0203541
0.0492867
0.0288396
0.02253
0.0226691
0.0204702
0.0209483
0.0513947
0.0219719
0.0214485
0.0223284
0.02003
0.0202918
1.54986
0.0272711
3.64866
0.0270356
0.0470674
0.0257639
0.0211129
0.0266741
0.0205414
0.0209825
0.0337347
0.0238185
0.023677
0.0448026
0.0235152
0.444413
0.25514
0.0213647
0.0252286
0.0271994
2.9295
0.0203436
0.0204218
0.0217289
0.0320372
0.0363784
0.0259187
0.0238802
0.0218063
0.0211726
0.0200964
0.191406
0.0233748
0.0238662
0.489063
0.0216406
0.0231844
0.0243389
0.0214925
0.0212393
0.0212754
0.0477332
0.0820512
0.0218529
0.0228847
0.679743
0.0210036
0.0219347
0.023495
0.0215979
0.205845
0.287489
0.0506696
0.0652814
1.11772
0.0228473
0.0208451
0.0989773
0.0235826
0.0268694
0.0210456
0.0202339
0.0611897
0.335286
0.0210795
0.0207539
0.0279778
0.22149
0.0235191
0.01993
2.83225
0.0230133
0.0349436
0.0201933
0.0258973
0.0195961
0.02257
0.0258784
0.0211725
3.4604
0.0220128
0.0356649
0.0756373
0.241215
0.069773
0.0211971
0.0539433
0.0245112
0.0254436
0.024036
0.0233876
0.0214496
0.0228186
0.197909
0.0229164
0.24218
0.0207848
0.194413
0.0203144
0.021932
0.552646
0.0246825
0.189399
0.0245724
0.0221535
3.7249
2.91228
0.020866
2.25618
0.0348844
0.020723
0.0198534
0.178546
1.66099
0.0205299
0.020312
0.0221426
0.0204436
3.31086
1.0924
0.0195291
0.0197962
0.0208633
0.252966
0.042897
0.293709
0.0202906
2.98383
0.021569
0.0547808
2.34541
0.0239477
0.0206862
0.0212058
0.296118
0.0203721
0.0210597
0.0204085
0.0253754
0.0229334
3.38593
0.0256188
0.0218073
0.0211959
0.0263541
0.179671
0.0396046
0.0211203
0.0209315
0.129462
0.0451392
0.0221048
0.466961
0.0271374
0.0230289
3.06223
0.0228318
0.0261675
0.0218469
0.0767015
0.0214217
0.0218393
0.217336
0.0273826
0.02105
0.02135
0.019601
0.0351122
0.0843227
0.0209728
0.0203045
0.0220916
0.0574667
0.0240756
0.0202214
0.0212449
0.0207446
0.0232127
0.039072
0.0214892
0.0211922
2.87536
0.0211049
1.25227
0.0305102
0.0325063
0.0231391
0.0240277
0.0214798
0.245748
0.0689039
0.0592597
3.26482
0.0298292
0.0208751
3.17625
0.0203447
0.0631187
3.37131
0.0232818
0.0211287
0.0238732
0.0626769
0.0211983
0.021273
1.37063
0.0212657
0.0242597
0.0211
0.0217224
0.0203953
0.0577926
0.10567
0.0203218
0.0210231
0.697582
0.0211896
0.0202062
0.0209978
0.0208306
0.120621
0.0238822
0.0231563
0.0226885
0.022012
0.0203258
0.0334433
0.0869917
0.026514
0.673471
0.0244599
0.0237149
3.26947
0.0208877
0.0203777
0.0210829
0.0208309
0.0218417
0.0197575
0.0221727
3.35068
0.0213742
0.021091
0.0227334
0.0208157
0.345154
0.0216845
2.65335
0.160641
0.0246456
0.0293341
0.291506
0.0248652
0.0211726
0.0232163
0.0209513
0.0225371
0.0224928
0.0217535
2.80238
0.0203093
0.0213262
0.0401405
0.152844
0.0217126
0.0208437
0.174962
0.0224893
0.0255112
0.0213113
0.0208543
0.0207408
1.70917
0.0214724
0.154524
0.0477294
0.021692
0.0208348
0.0212559
0.024811
0.220148
0.0203301
0.0372238
0.021096
2.54638
0.2435
0.0221015
0.156465
0.0215521
0.0231539
0.0235218
1.32874
0.0239411
0.025103
0.0257177
0.340512
0.0216641
0.0345625
0.0214507
0.0423933
0.121853
0.127833
0.02119
0.028797
0.252482
0.539405
0.0232627
0.0239896
0.0435475
0.0461051
0.0208173
0.0487725
0.0211875
0.0242669
0.0214684
0.0223538
0.0222647
0.329222
0.0216292
0.0218316
0.0510598
0.342717
0.788889
0.103605
0.568573
0.0207841
0.0378636
0.0548387
0.0210366
0.0211207
0.158511
0.0243343
0.0214895
0.0212468
0.0390377
0.0206995
0.0212578
4.15932
0.0214649
0.0217614
0.0210412
0.0214006
0.0226378
0.0210119
3.06124
0.0248779
0.0228727
0.0205957
0.0288856
0.939299
0.0211116
0.0217631
0.229524
0.154067
0.0213524
0.0242466
0.020711
0.0209348
0.0371259
0.146713
0.0209354
0.0212598
0.243041
0.326732
0.751748
0.0533712
0.02269
0.27761
0.0207732
0.0248413
0.0241191
0.0206807
2.25854
0.878047
0.0365115
0.0474856
0.159818
0.0198552
0.019791
0.022634
0.0340927
0.44769
0.0203622
0.0356284
0.156292
3.90776
0.0216454
0.022578
0.971144
0.0211137
0.0240554
0.374271
0.02096
0.0211944
0.0210391
0.438699
0.0210359
0.0238385
0.0218982
0.0456555
0.0276082
0.294514
0.0211809
0.0211306
0.0275008
0.0216938
0.0233849
0.022101
0.0856651
0.10142
0.0209923
0.0213439
3.42761
3.68688
1.12854
0.0207574
0.0213565
0.0231062
0.0215307
0.0212736
0.0214314
0.0223182
0.0218652
0.0206871
0.0207645
0.052272
0.0231379
0.028084
1.01889
0.057067
0.0448935
0.0246372
0.043785
0.0916069
0.0295396
0.0263351
0.0262555
0.0210659
0.981644
0.020238
0.020298
0.0208252
0.4834
0.0211086
0.480802
0.021761
0.0201949
0.0424878
0.0211679
0.021144
0.0211602
0.033348
0.133393
0.0216069
0.0206871
0.0227605
0.435274
0.0443744
0.0700919
0.021046
0.0312905
0.0215074
0.0215428
0.0203603
0.0207242
0.0213558
0.0219869
0.351295
0.024939
0.0241079
0.100711
0.534113
0.108974
0.0210335
0.0806682
0.0314456
0.373802
0.0205725
0.0212913
0.0223691
0.226952
0.0198014
0.0213581
0.0207159
0.0203714
0.10674
0.0224839
0.0560267
0.0222304
0.0197836
0.0248281
0.0214313
0.686214
0.0213983
0.0241043
0.0218031
0.0267835
0.0220962
0.0539323
0.0569903
0.0212337
0.0396808
4.13624
0.02112
0.0215368
0.0388709
0.0197278
2.83566
0.0296364
0.0209782
0.0515321
0.0201024
0.0226837
0.0212469
0.0205484
0.0203948
0.0222038
0.0207158
0.0207153
0.0215261
0.0219193
0.0441601
0.0201125
0.104422
0.0205688
0.0208965
0.0273586
0.0440933
0.022073
0.0197242
0.0211979
0.022717
0.0422671
0.256379
0.0317904
0.0219575
0.0219962
0.0207553
0.029241
0.0209306
0.0222683
4.0674
0.329949
0.0425388
0.0210786
0.0218472
0.0222003
0.0197324
0.0414573
0.0201811
0.0802101
0.0220134
0.136498
0.0263831
4.04039
0.0215602
0.0575667
2.76367
0.221967
0.350094
0.0253222
0.326618
3.462
0.0218959
0.032753
3.7755
0.0205454
0.0207486
0.0213363
0.0242755
0.19385
0.0214669
0.0244261
0.463229
0.0195326
0.0214649
2.49155
1.02312
0.0844646
0.349105
0.474879
0.0221934
0.0549377
0.023135
0.0234414
0.562839
0.022741
3.31314
0.0496179
0.0237786
0.0214258
0.0225333
0.024095
0.0211551
2.55173
0.019796
0.0212469
0.0213113
0.634612
3.38112
0.0862762
0.021282
0.0222945
0.0205053
3.33082
0.0210658
0.0221232
0.023625
0.0501858
0.0206982
0.0646154
2.32997
0.217516
0.0218663
0.0347698
0.0211951
0.539379
0.0198368
0.1353
0.0221008
0.0563424
0.0254337
0.594217
0.0923482
0.0228668
0.0227403
0.0262945
0.023957
0.0210992
0.0207055
0.0246846
0.0219182
0.0364523
0.0196421
0.0210689
0.0214295
0.0214002
0.0352823
0.0207397
0.0201593
0.0215444
0.0828563
0.0261615
0.049576
0.0228141
0.0226066
0.0697446
0.0212219
0.0213106
0.0612719
0.0406625
0.0201608
0.035663
0.0230185
0.0389613
0.0212488
0.295353
0.0220812
0.021213
0.0202457
0.020198
0.02116
0.0210721
0.180982
0.056486
0.0215593
0.0213184
0.0211255
0.0224403
0.0266291
3.40552
0.0220045
0.0316176
0.0237885
0.232807
0.0216239
0.041754
0.0212949
0.0212562
0.0281661
0.0212207
0.0214489
0.0207259
0.0202056
3.78986
0.0213814
0.0207314
0.0280424
0.488786
0.0359438
0.0218976
0.0200365
0.0240904
2.56907
0.0233431
0.0217102
0.0215319
0.250451
0.0218919
0.0211359
0.2082
0.0210088
0.0249881
0.0231385
0.0215446
0.0203673
0.0490611
0.0258538
0.0206489
0.0212827
0.0218733
0.0208966
0.363997
0.0231267
0.021394
0.0197743
0.0220211
0.0202034
0.0212416
0.0651299
0.0206669
0.0238382
0.0235771
1.736
0.01973
0.0225556
0.0489354
0.0267441
0.132509
0.0210649
0.0215072
0.182399
0.0214005
0.0201827
0.336136
0.0214126
2.78055
1.06686
0.0570561
3.30378
0.0214141
0.0274402
1.82025
0.0212417
0.0200393
0.384398
0.643001
0.0208949
0.0202077
0.022817
0.0213927
0.192296
0.0480132
1.06254
0.0214843
0.0216577
0.0212157
0.0212615
3.39237
0.117347
3.48899
0.0247074
0.0224392
2.69786
0.0213374
0.0208942
0.0228117
0.0209274
0.0218755
0.0391092
0.0197263
0.49105
0.0219031
0.0219883
0.0213921
0.0263365
0.0214252
3.35505
0.0206984
0.0211949
0.0227166
0.0201845
3.3261
0.0246417
0.025362
2.54644
0.0871637
0.0323037
3.41365
0.0215925
3.15294
0.0267549
0.0207823
0.0224254
0.0222305
0.26252
3.31908
0.021471
0.0232808
0.439751
0.0210633
0.0205821
0.0237826
2.49578
0.66609
0.0215187
0.0220359
0.0746457
0.02303
0.0584976
0.0580431
0.0601159
0.0201716
4.03285
0.0215441
0.322733
0.0533249
0.0337082
3.82192
2.98701
3.28096
0.020375
0.444294
0.0201056
0.019784
0.450809
0.0197644
0.0222381
0.0211434
0.0568755
0.0206334
0.106392
0.0201884
0.0325731
0.493596
0.026135
0.0250142
0.307214
0.0218375
0.0202579
0.021886
0.0772012
0.0239832
0.108258
0.0214157
0.026125
0.02176
0.123136
0.021418
0.0215661
0.0213666
0.666128
0.0306896
0.0215081
3.14375
0.0210848
0.0218492
0.0244279
0.166027
0.0213925
3.91003
0.0214962
3.04656
0.0214273
0.0400009
0.0209832
0.0471675
0.0214243
0.0558163
0.024796
0.0470767
0.0208955
0.0217196
3.02829
0.0203763
0.0244585
0.0279595
0.0201509
0.05771
3.03034
0.0966706
0.0221573
0.0197377
0.0211875
0.0904082
0.023681
3.65361
0.0241425
0.237586
0.0221264
0.702042
0.0205481
0.0319195
0.0993082
0.0227742
0.119428
0.0234899
3.01643
0.140887
0.0207735
0.181101
0.022751
0.021136
0.0229388
0.0702328
0.0234233
0.1401
0.0241535
0.0950163
0.0402344
0.0557174
0.0437889
1.4423
0.0214588
0.0215293
2.93772
2.97432
0.032808
0.0235829
2.54235
0.359741
0.0221124
0.0214358
0.0212054
1.09801
0.0207103
0.0210561
0.032576
0.0519007
0.0198339
0.0206171
0.0222526
3.9919
0.0205153
0.0238645
0.0198323
0.100951
0.0227178
0.371627
0.0218556
0.0206525
0.0213362
0.0205974
0.540946
0.033799
0.641388
0.0213249
0.0286834
0.0202257
0.206637
0.115363
0.0456031
0.0207936
0.0501206
0.0208864
0.0215908
3.30301
0.0210702
0.024286
0.385067
0.0201739
0.0942183
0.020809
0.0198425
0.0215552
0.112349
0.0208582
3.90229
0.0818042
0.353206
0.269269
0.0207111
0.607564
0.056193
3.51602
0.0343043
2.79791
0.157349
0.0215721
0.0346268
0.0217242
0.0299752
0.0216506
0.0228535
0.0212067
0.0259126
0.352103
3.99807
0.0238057
0.0235228
0.0809436
0.17943
0.0212029
0.0215247
0.754591
0.0350442
0.0209093
0.452859
0.0364924
0.0221488
0.0207996
0.0224711
2.85734
0.0216293
0.0525344
0.019603
0.0727285
3.3533
0.0685439
0.0222131
0.0219469
0.0211652
0.0212717
0.021458
0.0252389
0.0223594
0.021633
3.45928
0.0208377
0.0220963
0.0210561
0.261311
3.82794
0.021251
0.0210972
2.78309
0.0204905
4.09643
0.0215247
0.0213629
0.0197243
0.0216217
0.020618
0.022732
0.020319
0.152675
0.0218796
0.0675172
0.0213516
0.155621
0.0214653
0.0246186
0.177516
0.165634
0.0211605
0.021445
0.0392222
0.0197256
0.578379
0.327588
0.0224571
0.0207583
0.0212368
0.0203934
0.0460828
0.0369497
0.0398068
0.333098
0.0379908
0.0214232
0.0211866
0.020535
0.629422
1.51653
0.0222539
0.0211276
0.0208127
0.027342
0.021377
3.25529
2.78205
0.0304981
0.0203035
2.83677
0.104498
0.0214426
0.0690357
0.021919
0.664319
0.0324044
0.0325161
0.0284894
0.256618
0.0322396
3.20211
0.02103
0.0205317
0.0206989
0.0206842
0.0215059
0.0284879
0.0210611
0.0257102
0.0200912
0.271165
0.0221098
0.0294565
2.37583
0.0221317
0.019814
0.0299714
3.97255
0.0212518
0.0206072
0.156085
4.05104
0.514044
0.0225796
0.0197345
3.27421
0.105766
0.0240466
0.0487084
0.0213843
0.0322454
0.0215011
0.106891
0.020689
0.0216807
0.334477
0.0204289
0.0231208
3.15272
0.053104
0.020643
0.022161
0.0207469
2.55205
0.0243611
0.0262562
0.0214248
0.0207852
0.102394
0.0293918
0.0211474
0.0212941
0.0197326
0.0231859
0.020718
0.0227101
0.171356
3.17494
0.0233054
0.0382364
0.0209588
0.0423388
0.021221
0.0215305
0.0207688
0.2577
0.0392009
0.020055
0.0231302
0.433222
0.0359816
3.64864
0.0466027
0.021296
0.020773
0.0276208
0.0225866
3.8239
0.0205932
3.28584
3.90447
0.0209022
0.0368368
2.78267
0.0261315
1.16312
0.0918395
0.0225923
3.90853
0.0257825
0.0205011
3.12066
3.22192
0.083864
0.0217264
3.32515
0.729029
0.0213387
0.158173
3.30699
0.0213781
0.020711
0.0218461
0.0201249
0.021556
0.421601
4.19908
0.0214223
0.0242513
2.83144
3.14966
0.0327852
0.0528672
0.0210719
0.0320731
3.96492
0.0480581
2.98719
3.823
0.0212565
0.0214456
0.0210416
0.0223047
3.89887
1.90429
0.0212739
0.0346493
3.67908
0.0301441
0.0486602
0.0211335
0.0214884
0.02198
0.409302
0.0224522
0.0348079
0.030346
0.0220632
0.288716
0.0232742
0.0534197
0.118895
3.76383
0.0212193
0.0212015
0.0225359
0.0334246
0.201565
0.514502
0.0219048
2.25924
3.9834
0.0325385
0.0314342
3.682
0.0594418
0.264699
3.26632
0.0213275
0.36109
1.06355
0.0286932
0.0277185
0.1082
0.0227543
0.0978393
0.0233801
0.0214049
0.0200587
0.0215666