/*--------------------------------*- C++ -*----------------------------------*\
| =========                 |                                                 |
| \\      /  F ield         | OpenFOAM: The Open Source CFD Toolbox           |
|  \\    /   O peration     | Version:  v2012                                 |
|   \\  /    A nd           | Website:  www.openfoam.com                      |
|    \\/     M anipulation  |                                                 |
\*---------------------------------------------------------------------------*/
FoamFile
{
    version     2.0;
    format      ascii;
    class       volVectorField;
    location    "550";
    object      ddt0(U);
}
// * * * * * * * * * * * * * * * * * * * * * * * * * * * * * * * * * * * * * //

dimensions      [0 1 -2 0 0 0 0];


internalField   nonuniform List<vector> 
18758
(
(0.00273384 -0.00566708 -3.87665e-19)
(0.02429 -0.0293241 4.86772e-19)
(-8.52578e-06 5.91166e-06 -9.64031e-19)
(0.00187846 -0.00631094 5.03265e-19)
(-0.00398287 0.00689401 -3.8269e-19)
(2.66195e-05 -8.57848e-06 4.77749e-20)
(-6.99724e-05 -5.35112e-05 -7.80298e-19)
(-0.00160669 0.000189469 8.53586e-19)
(-0.00409438 0.00573585 1.63577e-19)
(-0.00501372 0.00412519 1.29265e-18)
(0.00950919 -0.0294093 -9.7013e-19)
(-0.0589065 -0.110513 -3.94276e-18)
(-0.0650562 0.020164 3.68803e-19)
(-0.000564628 -0.00101863 -2.00706e-18)
(-6.45175e-05 -1.89646e-05 -5.01063e-19)
(-2.885e-05 4.43027e-05 1.60043e-19)
(-0.0619036 -0.0747294 -1.40213e-18)
(-6.0828e-07 -5.06657e-05 1.39602e-20)
(-6.61298e-05 -1.20228e-05 1.34744e-18)
(0.00264435 0.00205814 -4.46949e-20)
(0.0659918 -0.0492313 -3.40996e-19)
(0.0855729 0.0232088 -8.39641e-18)
(2.58307e-05 -5.33292e-06 5.15167e-21)
(1.97216e-05 1.00481e-05 1.78602e-19)
(0.0972447 0.0227634 1.42505e-17)
(0.0813786 -0.0566331 1.03562e-18)
(0.010245 -0.029676 -1.89098e-17)
(-0.0606527 -0.048573 -3.6581e-18)
(0.017705 -0.0293664 3.76831e-19)
(0.0447488 -0.0337224 -2.59754e-19)
(-0.136044 0.604205 1.80555e-17)
(-0.00290864 -0.0468519 2.74258e-17)
(-0.0014284 0.000186291 6.61535e-20)
(0.124458 -0.00309734 -7.97513e-18)
(-0.00232872 0.00858225 -1.10424e-19)
(0.0400621 -0.0406101 -7.9269e-20)
(-0.0647824 0.00895713 1.65317e-18)
(-0.00252851 0.00746778 -3.63814e-19)
(0.00137714 -0.467891 -6.57903e-18)
(0.000448565 -0.000240865 9.06964e-21)
(-0.023242 -0.165137 -1.80481e-18)
(-0.00748516 0.00246837 -1.19313e-18)
(-0.0576299 -0.0534544 5.96371e-20)
(-0.00126815 0.000610965 -5.55915e-19)
(1.10537e-05 -1.9935e-06 5.43813e-19)
(-0.152367 0.587711 4.75026e-18)
(-0.00656096 0.00188509 1.01627e-18)
(0.0123095 -0.0335982 2.16393e-18)
(-0.0951157 0.232874 3.65818e-17)
(-0.00103827 -0.00577684 -1.78212e-20)
(0.00764763 -0.0377075 5.99623e-19)
(0.158314 -0.115655 1.47176e-18)
(-0.00194681 -0.00580103 -3.95937e-19)
(0.000364658 -0.00379657 -3.20591e-19)
(0.0531903 0.00250932 4.70651e-18)
(-0.0543771 0.0232183 -2.28271e-18)
(0.000166602 0.000347808 1.46117e-19)
(0.00250233 0.00171098 1.24314e-19)
(0.00777065 -0.0316373 1.18764e-18)
(0.00022322 0.000265929 -1.83833e-19)
(-7.89529e-06 9.19964e-08 7.69024e-20)
(-0.00106006 0.000754029 -3.4655e-19)
(0.00938926 0.0630289 -6.03568e-18)
(-0.179504 -0.302982 -9.09121e-19)
(-1.0363e-05 1.47382e-06 1.19338e-19)
(-0.0477527 0.102399 5.45167e-18)
(-1.96965e-05 -4.7798e-06 2.03419e-19)
(5.00647e-05 -7.0464e-05 2.79829e-19)
(-0.0649421 -0.0432328 3.88004e-18)
(8.20002e-06 -7.48895e-05 -1.15382e-20)
(0.200815 -0.103691 -2.95057e-18)
(0.0879653 -0.0650303 4.49491e-18)
(-4.69365e-05 9.36378e-05 8.26738e-20)
(0.00137919 0.00675634 6.46876e-21)
(0.0171502 0.0486928 -7.7984e-19)
(-0.141741 0.559463 -9.56404e-19)
(0.0605433 -0.0474706 3.66528e-18)
(-0.0668775 -0.0163461 1.21669e-18)
(-0.00523487 0.00513319 -7.57375e-19)
(-0.0618417 -0.0282654 -6.68067e-19)
(0.0316434 -0.00945282 -9.22743e-18)
(-0.0101967 -0.494792 8.44398e-18)
(-0.076312 -0.0300513 -3.10686e-19)
(0.00263928 0.0278531 1.43134e-20)
(-0.00249127 -0.000272611 1.50538e-19)
(0.0439021 0.00212768 4.85504e-18)
(0.00157635 -0.00151822 -1.80454e-18)
(0.00194678 0.00754593 1.53378e-19)
(0.0220398 0.0587065 1.30656e-18)
(0.0422628 0.00447472 -2.83277e-18)
(0.221859 0.0231141 -7.51305e-18)
(-2.3162e-06 3.99715e-06 9.8266e-22)
(0.0214137 -0.00527249 3.16635e-19)
(-0.098966 0.234593 -5.74321e-17)
(-4.80463e-05 9.06681e-05 2.33595e-19)
(-1.78133e-05 -2.96794e-06 -1.63677e-19)
(0.000112038 -0.000176227 -1.60009e-19)
(0.00958271 -0.0178966 -3.13555e-18)
(-0.0361552 -0.00792818 -3.1286e-18)
(-0.000105038 -0.000120056 1.02299e-19)
(-0.166885 0.582229 -2.60199e-17)
(0.0090811 0.00376321 7.17232e-19)
(4.26305e-05 -5.67962e-05 -2.45085e-19)
(-1.7455e-05 -6.7962e-06 6.73342e-20)
(-0.0352351 0.0925651 4.75069e-17)
(0.0701738 -0.0405497 5.60725e-19)
(0.0142895 -0.0330825 2.82567e-19)
(0.23836 0.0121154 -1.19884e-18)
(0.0787843 -0.0374298 -6.2098e-19)
(0.0508882 -0.0920884 -3.42624e-19)
(-3.71644e-05 2.32623e-05 -6.70903e-20)
(-0.200158 -0.324248 -1.15813e-18)
(-0.00452062 -0.00555071 -7.02011e-20)
(1.20875e-06 4.99935e-06 3.36364e-19)
(0.00956982 0.0029511 -1.11289e-18)
(0.0128549 -0.0953259 9.32676e-19)
(0.00790851 -0.0181273 5.8394e-18)
(0.00027385 -6.28645e-05 2.2686e-19)
(0.0932098 -0.103927 3.18857e-18)
(-0.00271105 -0.00167501 5.02561e-19)
(-2.18664e-05 1.50015e-05 -6.01974e-20)
(0.0541916 -0.0420599 -5.41734e-18)
(-0.00242803 -0.000712035 -3.60616e-19)
(1.0549e-05 -5.06733e-05 -4.67411e-19)
(-0.0241168 0.219346 -6.03056e-18)
(0.000814834 -0.0036962 -3.36871e-19)
(-0.000789956 0.000246516 -6.08567e-19)
(1.11264e-06 -5.73221e-05 6.82317e-19)
(0.0367387 -0.0453971 2.02604e-18)
(0.010101 0.133761 -1.24043e-17)
(0.0102626 -0.0311793 -4.35254e-18)
(-5.23106e-05 3.19951e-07 -5.21561e-20)
(-0.00714019 -0.00148307 -6.48331e-19)
(-0.0107192 0.0813954 1.23626e-17)
(0.000508282 -0.000324888 -2.31783e-20)
(-5.13382e-05 -2.12993e-06 5.28971e-19)
(-0.034323 -0.106148 -3.44515e-18)
(-0.00180626 -0.00120982 2.9021e-22)
(-0.0167324 -0.0809126 -5.26179e-18)
(0.0304529 -0.0112647 8.70822e-18)
(-0.00605553 -0.00598734 -5.04138e-19)
(-0.0180485 -0.177633 2.89886e-18)
(0.00829552 -0.0108761 -4.04565e-18)
(0.0706791 -0.0379712 1.36826e-18)
(-0.0175912 0.211781 7.17766e-20)
(0.013268 -0.00372241 1.80141e-17)
(-0.0506085 0.106394 -1.02467e-17)
(0.0331729 -0.0398251 -6.0751e-18)
(0.0141824 -0.028844 9.87899e-19)
(0.26605 -0.0180885 1.67427e-18)
(0.0612904 0.121089 5.83365e-18)
(-0.0198979 0.165261 -5.14742e-17)
(-5.10205e-05 -9.6142e-05 -2.24292e-18)
(7.13159e-05 0.00897047 -1.91169e-20)
(-0.0262101 -0.149476 -4.77964e-18)
(0.0876557 0.0462239 -4.76391e-19)
(0.0209691 -0.00602847 1.49601e-18)
(0.0394736 -0.0461958 -6.25889e-18)
(0.0126414 0.0269041 1.9496e-19)
(0.020402 -0.0312454 4.23632e-19)
(-0.0103789 -0.199567 6.22276e-18)
(5.18623e-05 -7.21381e-06 -1.72814e-20)
(-0.118381 0.296566 -1.80554e-17)
(-0.0413476 0.0984772 3.13664e-18)
(-0.110425 0.467715 1.78135e-17)
(0.000681138 -3.63658e-05 -3.67795e-19)
(5.5379e-05 -1.60527e-05 2.38253e-19)
(0.167501 -0.0930451 -5.75089e-18)
(0.0189273 0.136794 2.28633e-17)
(-0.0424642 -0.171325 1.19171e-17)
(-0.023011 0.18081 5.83776e-18)
(-5.14189e-06 3.60183e-06 8.59435e-19)
(0.019994 -0.0339867 -2.27871e-18)
(-0.00116811 -0.10281 5.14112e-19)
(0.0800777 -0.0357527 -4.05509e-19)
(-4.67209e-05 5.41149e-05 4.14665e-19)
(-4.3633e-05 9.33422e-05 2.48633e-19)
(0.0773316 -0.0445712 -7.57791e-18)
(0.123199 -0.00803198 1.40154e-17)
(0.000107141 -0.000363816 -6.77668e-18)
(1.36436e-05 -2.17786e-06 8.93677e-20)
(0.00221908 -0.00289904 -8.19447e-19)
(0.0513503 0.000505797 -1.04146e-17)
(0.000292928 -0.000663347 1.45863e-18)
(0.220373 -0.10808 3.99859e-19)
(1.26933e-05 -0.000113265 -1.63895e-18)
(0.0489028 -0.033843 -9.4248e-20)
(0.00835658 -0.0109 -8.96378e-19)
(-0.0834407 0.215578 9.1043e-18)
(0.0423695 0.235347 -3.12961e-18)
(-0.019011 0.158399 3.16878e-17)
(1.01359e-05 -0.000121401 3.47791e-18)
(-0.0381655 -0.0248406 1.0931e-18)
(0.097121 -0.0309425 2.37278e-18)
(2.60278e-05 6.98442e-05 -1.98363e-19)
(0.000178691 -0.000652201 -3.84098e-18)
(-0.019304 -0.0928545 4.71287e-18)
(-4.08081e-05 -8.80787e-05 -1.90124e-19)
(-0.0625927 0.184619 -1.50486e-17)
(1.79813e-05 -9.29645e-06 -6.92922e-19)
(-0.00204683 -0.00095704 -2.30419e-19)
(0.0418354 -0.0495303 -2.90213e-18)
(0.0797235 0.0612882 -6.01274e-19)
(-2.28533e-05 3.35665e-05 -7.05184e-19)
(-3.58424e-05 2.16946e-05 -2.12902e-19)
(-0.130994 0.311121 5.42056e-18)
(-2.22078e-06 9.3963e-05 4.52557e-19)
(-0.00113868 0.00950861 4.12649e-19)
(0.04321 0.121866 -1.53646e-17)
(-0.0118938 0.129624 7.7317e-18)
(2.70521e-05 -1.37627e-06 5.23913e-19)
(0.0221778 -0.00902044 -5.81767e-18)
(-0.00226015 -0.00143394 -4.55972e-19)
(-3.59912e-05 -0.00161353 3.3593e-19)
(0.00199262 0.00113954 4.12771e-20)
(0.000136887 -0.00017825 1.32997e-19)
(-1.47709e-05 -3.2022e-06 2.97366e-19)
(0.0212629 -0.00817495 6.58905e-18)
(3.38185e-05 -1.15723e-05 1.23888e-19)
(-0.00177227 -0.144294 -1.04489e-19)
(0.0970231 -0.0284223 -9.57271e-19)
(0.000184394 -0.000433971 5.21511e-19)
(0.00736233 -0.0111979 1.79217e-18)
(0.0413234 -0.0534126 4.58113e-18)
(0.0848228 0.0689792 2.26596e-19)
(0.0285261 0.00570404 -1.29317e-18)
(0.0240249 0.0501941 5.04497e-19)
(0.0384702 0.0118986 2.60595e-17)
(0.0589281 -0.150012 -6.71018e-19)
(-1.38632e-06 6.91007e-05 1.28271e-18)
(0.0800346 -0.060496 -5.56567e-18)
(0.012817 -0.00457012 -7.29755e-18)
(0.0836083 -0.0345399 8.11732e-19)
(-4.70783e-05 -1.99643e-06 -8.06471e-19)
(-3.40033e-05 -5.01597e-05 5.15389e-20)
(0.000310781 -0.000530651 2.72682e-19)
(-0.0249329 0.0603634 -1.15432e-18)
(-0.0818793 0.244809 1.95567e-18)
(-0.0217956 -0.107519 8.12402e-19)
(-0.00051281 3.13582e-05 -2.39316e-18)
(-4.39454e-05 1.22151e-05 -1.57658e-18)
(-0.0201009 0.0547831 4.69475e-19)
(-0.0151707 -0.0689243 -1.43301e-18)
(-6.67226e-06 -2.23061e-06 -3.82126e-19)
(0.271492 -0.0360435 -1.54467e-18)
(0.0339784 -0.0918461 -7.6908e-19)
(-1.97794e-05 -4.16945e-05 -5.43357e-20)
(-6.20527e-05 -6.18421e-06 -6.29112e-19)
(0.00151447 0.000116277 -8.82278e-19)
(-0.000114899 -0.000123254 -5.52718e-20)
(-0.0249298 0.197509 -2.05586e-17)
(-0.001062 -4.54563e-05 -3.43399e-19)
(0.0385749 -0.0228174 -1.07308e-19)
(0.000246581 -0.000697879 -4.78135e-19)
(4.10454e-06 -5.21791e-06 -1.91821e-20)
(-0.00511582 -0.124907 -1.2902e-18)
(0.000534996 0.000117806 5.48611e-19)
(0.0915505 -0.0687188 2.87951e-18)
(-9.93671e-06 -1.36639e-05 -3.02139e-20)
(0.0060104 -0.0571199 -2.83703e-20)
(-0.00359609 -0.00628619 1.30822e-18)
(2.20529e-05 -4.16296e-05 -2.96665e-19)
(-1.60302e-05 -4.01051e-05 5.25273e-20)
(-0.0372256 -0.0215657 -1.55797e-18)
(-0.0742504 0.00811008 1.49798e-18)
(-0.0824817 0.0341537 -4.90232e-18)
(2.58484e-05 -4.57009e-05 4.28355e-19)
(-0.0124026 -0.0760068 7.79802e-18)
(-3.81623e-05 -0.000102584 1.3936e-18)
(-0.000425921 -5.38223e-05 3.64373e-21)
(0.0569154 -0.141079 2.00445e-18)
(0.118516 -0.0728199 -6.01041e-18)
(-0.000389342 -8.39874e-05 1.33239e-19)
(2.55947e-05 4.29816e-05 -8.16778e-20)
(0.0023084 0.00112344 3.26398e-20)
(0.00178703 0.000928634 1.68918e-20)
(-0.00365304 -0.0033849 1.64919e-18)
(3.25996e-05 -1.57096e-05 -7.083e-20)
(0.00011001 -0.00197211 1.94572e-18)
(-0.000642214 -0.00100834 2.14979e-18)
(-5.99815e-05 -1.6355e-05 4.05893e-19)
(-5.24782e-05 3.80409e-07 -1.03767e-20)
(-3.24338e-05 -2.6596e-05 -3.58948e-18)
(-0.0396888 0.0978914 4.51156e-17)
(-6.5404e-05 -4.21287e-05 1.2997e-18)
(1.96066e-05 3.93554e-05 -3.5642e-19)
(6.20984e-06 -5.25438e-05 -2.91872e-20)
(-0.0112429 -0.0653858 1.39465e-18)
(-2.36533e-05 -3.01387e-05 3.09643e-19)
(-2.12989e-05 -2.19197e-05 -1.31498e-19)
(-2.71484e-06 -9.57265e-07 3.10251e-19)
(-2.10096e-05 -0.000473728 2.54833e-18)
(8.96419e-05 0.000329262 7.41063e-19)
(-3.57719e-06 7.15197e-06 3.61695e-20)
(8.41346e-06 5.4438e-06 6.26227e-19)
(0.00261903 0.000277296 4.52859e-19)
(0.0224119 0.0213611 9.8109e-19)
(-9.10901e-06 3.58711e-06 -4.10238e-19)
(1.48524e-05 6.13949e-06 -1.65219e-19)
(-0.02045 0.222755 -3.64509e-18)
(0.000196388 -0.00196101 -2.17474e-18)
(-5.9352e-06 1.69837e-05 6.71754e-20)
(-1.19262e-05 1.73727e-05 8.03186e-19)
(0.0236821 -0.087771 -2.0617e-17)
(-0.0254896 -0.0157174 1.44389e-19)
(1.09805e-05 1.16996e-05 -2.1851e-19)
(0.00414364 -0.0117332 -1.78872e-19)
(0.0753705 -0.0420509 -3.91253e-19)
(-0.00109537 0.00103128 1.9952e-19)
(-0.0477251 0.0319045 6.0712e-19)
(-3.54741e-05 -4.26347e-05 3.04668e-18)
(-0.0259458 0.0184647 -4.66652e-18)
(-0.0141441 -0.0873384 -8.0544e-18)
(-0.0135086 -0.0472242 -2.36614e-18)
(0.0185635 -0.0270941 -1.78012e-18)
(0.116529 0.00603485 -3.38919e-17)
(2.67145e-05 -2.26425e-05 4.97917e-20)
(0.0293934 0.0351919 -3.0602e-18)
(0.0453383 -0.0598252 -1.96257e-18)
(-1.09555e-05 -1.64149e-06 1.94921e-19)
(-0.0151303 -0.0442016 4.3859e-19)
(0.0090278 0.0262733 -6.34968e-19)
(0.248414 -0.0411089 -7.26622e-18)
(-5.91898e-05 -6.72192e-05 -1.28497e-20)
(3.25828e-05 -3.96574e-05 4.37698e-20)
(-0.00572644 0.130225 1.21291e-17)
(-0.00318358 -0.0617804 -2.75166e-19)
(-5.77523e-05 -5.29826e-05 2.51447e-19)
(-0.0350644 0.228107 1.97502e-17)
(-0.0198594 0.044033 9.50925e-19)
(-0.0104374 -0.00224736 -4.9757e-19)
(0.00346139 0.0769265 3.23651e-18)
(-5.90004e-05 -6.53415e-05 -2.65487e-20)
(0.000684737 8.30011e-05 -3.1412e-19)
(-1.06157e-05 -2.1296e-05 -3.96898e-19)
(2.13642e-06 1.7332e-06 8.24858e-22)
(0.000533675 -0.000455064 -5.60242e-22)
(-0.00356513 -0.000275682 1.96822e-19)
(-0.00168582 3.00953e-05 2.2432e-19)
(-6.18651e-05 0.00012943 -1.44196e-18)
(0.000502791 -0.000341385 -8.59968e-21)
(-0.000577452 -7.74038e-05 3.83217e-19)
(0.0856515 0.0770284 1.55088e-18)
(0.0481149 -0.0763673 -5.49749e-18)
(-0.00142122 -0.00126043 -1.22606e-19)
(0.0189606 -0.0128896 2.00864e-17)
(-0.0390887 0.0165432 5.39302e-18)
(-6.14894e-05 -4.98719e-05 -9.42905e-20)
(0.00386038 -0.00615124 -1.24725e-18)
(-0.033191 -0.0149255 4.66613e-19)
(0.0882774 0.033787 1.72906e-17)
(-0.0364939 -0.149504 -3.74564e-19)
(-0.0583539 -0.0941163 -6.07189e-18)
(2.0815e-05 -9.85405e-05 1.79553e-19)
(-0.0409554 0.229069 -2.37268e-17)
(-0.00643879 -0.308449 2.17135e-18)
(0.00186899 -0.0160189 6.36868e-19)
(-0.00054777 -0.000101433 4.75063e-19)
(-0.0102102 -0.000463867 5.23578e-19)
(0.0006586 -0.00163642 -1.18449e-18)
(-0.00113228 0.000392524 3.57284e-19)
(-0.0156515 -0.0996238 -4.44808e-18)
(0.0902086 -0.0356277 3.67838e-18)
(-0.0528705 -0.114145 9.41846e-19)
(0.0365173 0.0573323 -2.86611e-19)
(0.0986656 -0.0481372 -6.75376e-18)
(-2.51203e-05 -4.66654e-05 -3.08245e-20)
(0.00073794 -0.00303004 -7.18267e-19)
(0.00272898 -0.00307732 8.79276e-19)
(0.00739399 -0.0201132 5.91619e-20)
(-0.0893141 0.249969 -1.06423e-17)
(-0.0124839 -0.0995168 -6.77844e-18)
(0.0850042 -0.0392507 1.39093e-18)
(-0.117502 0.0386513 -5.63458e-18)
(-0.0191311 -0.16248 2.34125e-18)
(-0.0673437 -0.099325 -2.60283e-18)
(-1.06646e-07 -3.78034e-06 1.81832e-20)
(-0.0209163 0.0881173 3.33483e-17)
(0.0362862 -0.040931 3.86524e-18)
(-0.00924509 -0.0289715 2.05957e-19)
(-0.0603211 -0.0964122 -8.71906e-19)
(-2.12286e-05 -7.494e-06 1.17974e-19)
(2.29301e-05 9.98889e-06 -7.96545e-20)
(0.0837679 0.0270307 1.86208e-17)
(-0.0467326 -0.134607 -2.78422e-20)
(0.000696968 0.19616 8.51495e-18)
(0.0410047 -0.165276 -9.51304e-19)
(-0.0288271 0.221635 -1.34825e-17)
(-0.000566397 -1.426e-05 8.87574e-19)
(-0.0461715 -0.131073 9.40053e-18)
(0.0342987 -0.105148 9.49664e-19)
(-3.14089e-05 3.96351e-05 8.78223e-19)
(-0.000806788 -0.000874985 9.49184e-19)
(0.0021283 0.000277985 2.3997e-19)
(-0.000294646 0.00267926 -8.16061e-19)
(-1.61251e-05 1.44782e-05 2.9048e-19)
(0.000979406 -0.00164637 6.33256e-19)
(2.28797e-05 -5.23258e-05 2.65312e-18)
(-4.93779e-05 -1.55519e-07 -8.89049e-20)
(-1.99554e-06 -3.07521e-06 1.03117e-18)
(0.0015562 -0.00066921 -4.78175e-19)
(-0.0106147 0.00545021 2.28213e-20)
(-0.007184 -0.509336 -8.29806e-18)
(0.00276774 -0.00290388 5.08724e-18)
(-0.128977 0.580784 1.15369e-18)
(-0.118812 0.587431 -6.29483e-18)
(0.0236357 0.188449 -1.0353e-17)
(-0.00962629 -0.498179 1.74052e-19)
(0.027087 -0.0478453 6.18287e-19)
(0.0022334 5.62201e-05 -5.20468e-19)
(2.76514e-05 7.65105e-06 2.05719e-19)
(-0.0532555 -0.0662291 -4.33897e-19)
(-0.000880626 -0.000849205 9.23201e-19)
(-0.000477035 0.00014321 6.72643e-20)
(-0.0249081 -0.0552537 -8.07491e-19)
(0.00574602 -0.0203125 -1.77593e-18)
(-0.0127728 -0.0654151 2.20865e-18)
(0.000507638 0.000216618 4.91814e-20)
(0.0782083 0.0717723 -1.22589e-18)
(1.34353e-05 -1.85931e-06 -1.20806e-19)
(0.000150393 -0.00211091 3.06621e-18)
(8.75474e-06 6.03305e-05 3.76562e-20)
(-0.0279046 0.150904 -2.5545e-17)
(-0.0229204 -0.00271533 1.09004e-18)
(-0.0303101 -0.169433 -1.80268e-18)
(5.55532e-06 5.83586e-06 1.68347e-19)
(0.00873885 0.0805499 8.78307e-19)
(0.0202256 -0.00283431 -7.24169e-18)
(5.68736e-06 -2.39144e-05 -1.34957e-18)
(0.0002528 0.0025083 4.78353e-19)
(1.98859e-05 -3.03597e-06 -4.113e-19)
(0.0866683 -0.0388949 6.48222e-19)
(2.72365e-05 1.78206e-06 1.98442e-20)
(-7.05388e-06 5.79073e-06 1.00979e-18)
(-0.166737 0.531458 3.49661e-18)
(0.0030166 -0.00274428 -3.47929e-18)
(-0.000528872 0.000106782 2.51105e-18)
(-4.79247e-05 8.94713e-05 -4.86726e-19)
(-0.00129994 0.00059838 9.81685e-19)
(-0.003343 0.00107909 1.50818e-19)
(-0.192952 -0.369956 2.61148e-19)
(0.0118122 -0.0646412 -2.33768e-18)
(7.29801e-06 -4.95176e-09 -1.91819e-19)
(-0.0449952 0.098618 -1.5105e-17)
(1.0966e-05 6.83408e-05 -1.91234e-19)
(-0.00409974 -0.00042204 7.04716e-19)
(0.0363363 0.0116976 -2.40385e-17)
(7.11442e-05 1.28086e-05 3.23311e-19)
(-0.132557 0.621572 -1.60494e-17)
(8.57151e-06 4.92759e-07 -1.86858e-19)
(-0.00357675 0.00138338 -4.50933e-20)
(-1.08464e-06 5.42998e-06 2.22541e-19)
(-0.054175 -0.106297 1.16122e-18)
(0.00358856 0.000273615 -1.51259e-19)
(2.59653e-05 -5.35657e-05 -3.30124e-19)
(-0.0645896 0.242905 -9.9525e-19)
(-0.0214748 -0.0217762 -5.85257e-19)
(6.8035e-06 -5.89424e-05 7.1371e-20)
(0.000541549 -0.00301177 3.55729e-18)
(0.00204716 0.00315711 3.59491e-19)
(-2.71365e-05 3.50305e-05 2.29203e-19)
(2.15642e-05 6.66632e-06 -7.16732e-20)
(-1.29057e-06 -1.61245e-05 2.34188e-19)
(-0.153973 0.0453404 -5.71267e-19)
(0.0740366 0.0734624 2.11531e-18)
(-0.000162616 -0.000213121 3.8784e-19)
(-0.00280284 -0.0108919 -2.31017e-18)
(0.0923863 -0.0714508 5.37866e-18)
(0.0733772 -0.0443294 -5.27716e-18)
(0.0221802 -0.0211856 -8.81569e-19)
(0.0284003 -0.0942186 -1.45697e-19)
(0.0169384 -0.0378979 2.32929e-18)
(0.000189242 -0.000103749 -1.12634e-19)
(0.0238225 -0.045347 -3.5512e-18)
(-0.0237692 0.0479363 -1.36545e-18)
(-0.00454576 0.00995909 2.62376e-19)
(-0.00132692 0.000293789 -6.78243e-19)
(0.000885897 -0.154193 2.07865e-19)
(-0.0224199 -0.00427585 -4.77713e-20)
(-0.00677124 -0.00467495 -5.01999e-19)
(5.58145e-06 2.11654e-05 -6.22768e-19)
(-6.92294e-05 -4.94359e-05 -3.43419e-19)
(-2.9247e-05 -4.81124e-05 -4.42047e-19)
(7.33314e-05 1.13114e-05 5.67964e-19)
(-2.92289e-05 -5.07624e-05 3.38369e-19)
(7.79662e-05 8.6171e-06 2.82285e-19)
(-0.0407742 0.0699937 8.12574e-22)
(-1.45714e-05 -3.35251e-06 1.58246e-19)
(2.04775e-05 6.95254e-05 3.39757e-19)
(0.0192075 -0.000590368 -3.01213e-18)
(-5.33364e-05 -1.65502e-06 1.70524e-19)
(6.94415e-06 3.65497e-06 3.60595e-19)
(0.000412834 -8.43367e-05 -5.34505e-20)
(0.0018335 0.00274808 1.0018e-18)
(-0.0223057 -0.00101577 6.19363e-19)
(0.0662076 -0.0647386 4.51976e-19)
(-4.9303e-05 9.097e-05 5.807e-19)
(0.00030827 -0.0380409 3.27398e-19)
(-4.51454e-06 -5.45949e-06 -3.40099e-20)
(0.00256284 -0.00346446 4.9827e-18)
(0.0489133 -0.0209554 -3.35085e-18)
(0.0275506 0.110012 8.23572e-18)
(-0.130298 0.0244808 6.33881e-18)
(-1.888e-05 -3.75759e-06 -1.27804e-20)
(2.43236e-05 -9.53354e-05 1.60127e-18)
(0.0633613 0.087808 -8.72798e-18)
(-0.00528301 0.0844418 -4.37937e-18)
(-0.013634 0.000936873 1.08007e-19)
(0.000329469 0.000291671 4.71012e-20)
(0.015849 -0.0796536 -7.02841e-19)
(-0.0479525 0.107042 -8.94381e-19)
(3.19229e-06 -4.93808e-05 3.33366e-20)
(-4.79637e-06 -6.42719e-06 2.30656e-20)
(0.0457565 -0.216418 7.11607e-18)
(0.0018498 0.00141129 2.53447e-20)
(0.0315799 -0.0134621 -2.00096e-18)
(-0.0130752 0.00341891 -5.6064e-20)
(0.00069886 0.0029722 -7.0303e-19)
(-0.00352651 -0.0108735 2.14996e-18)
(-6.14426e-05 -1.16775e-05 -1.35337e-19)
(-5.00277e-05 6.91285e-05 3.06068e-19)
(-3.87325e-06 3.83952e-06 2.3503e-19)
(2.29939e-05 3.10142e-06 -1.87176e-19)
(1.70347e-05 6.02224e-05 -1.08624e-18)
(1.05953e-05 3.31117e-06 -2.40872e-19)
(-0.0193267 0.132751 -1.03374e-17)
(1.42811e-05 -4.08465e-05 -1.34415e-19)
(-0.0218971 -0.056733 2.15733e-18)
(0.0798501 -0.0575112 1.37514e-18)
(4.52017e-06 -5.59015e-05 -7.16294e-20)
(1.38519e-05 -3.85539e-05 4.54891e-20)
(-1.02867e-05 -2.02652e-07 -6.88525e-20)
(-0.00108179 -0.00367773 2.15381e-18)
(0.00819883 -0.00312224 1.41322e-18)
(0.0181138 -0.0681804 2.08039e-18)
(-0.000100879 -0.000118247 -1.56407e-20)
(0.0220133 0.236659 1.02705e-17)
(-0.00905916 0.00265861 5.3966e-20)
(-0.00361645 0.00978621 2.4432e-20)
(-0.000166299 0.000155324 -3.93803e-19)
(0.00124604 -0.000637635 1.78017e-19)
(0.0017852 0.000299585 6.56472e-19)
(-0.000225503 -0.000251482 3.41709e-19)
(-0.000200178 -0.000237638 -1.04401e-18)
(-0.0209204 0.223134 1.22777e-17)
(0.233211 -0.0890689 -1.3536e-18)
(-6.05411e-05 -1.1186e-05 -1.46482e-20)
(8.73013e-06 4.11889e-05 6.84223e-19)
(-4.28636e-05 -0.00043157 -5.34465e-18)
(0.168152 -0.0782143 4.94559e-18)
(7.62582e-06 5.56829e-05 1.31161e-19)
(0.000159323 -0.000203906 2.86692e-20)
(8.2544e-05 6.16664e-06 5.50446e-19)
(1.69883e-05 6.90972e-05 -2.56394e-19)
(1.27453e-05 3.20331e-05 7.02448e-19)
(-0.000121528 0.000126081 3.19865e-19)
(0.00148993 0.000195433 -4.24169e-20)
(-2.69131e-05 4.13753e-05 1.38789e-19)
(0.006792 -0.0343706 -2.58856e-19)
(-9.38733e-05 -0.000111368 -1.4126e-20)
(0.000643794 -0.000305563 -9.16782e-20)
(-0.0759667 0.0340202 -5.59699e-18)
(0.00854975 0.121442 -2.37203e-19)
(-0.00619595 -0.00239661 -5.64235e-19)
(-0.00086084 0.000146028 6.83056e-20)
(-0.000101904 -6.94315e-05 4.82286e-19)
(4.09767e-06 2.88996e-06 -6.61371e-19)
(-5.01982e-05 8.47397e-05 -3.66114e-19)
(-0.00210987 -0.00163942 -5.44026e-19)
(-0.00312602 -0.0423688 3.30566e-19)
(-0.0334774 -0.0426542 -6.6958e-20)
(4.98938e-05 -0.000423924 6.34059e-19)
(0.0964998 -0.0461442 -6.61794e-19)
(-9.43435e-05 -5.55753e-05 -6.02092e-19)
(0.00439771 -0.00636615 7.87282e-18)
(-0.000896357 0.000386677 8.30011e-19)
(6.46395e-06 -6.98423e-06 -1.5794e-19)
(0.0134562 -0.00554564 -7.50696e-19)
(1.54277e-05 -8.8521e-05 -1.74495e-20)
(2.29135e-05 3.27153e-06 -2.21161e-19)
(0.0087368 -0.0446668 1.08482e-17)
(-1.25382e-05 5.83301e-06 1.07847e-19)
(0.000143616 -0.000723907 4.7555e-18)
(0.0390521 0.0504312 -5.29054e-19)
(-1.87772e-05 1.23918e-05 2.35942e-19)
(-2.24282e-05 -0.000150282 5.02119e-19)
(-0.0451377 0.172717 7.61134e-18)
(0.000264795 -9.11859e-05 -5.95329e-19)
(-0.024763 0.088783 -5.38922e-21)
(-0.020588 -0.00146865 9.93293e-21)
(-2.20602e-06 -6.51862e-06 6.66151e-19)
(2.84051e-06 5.28628e-06 1.45806e-19)
(0.00299142 0.0247159 8.89185e-19)
(-0.00141265 0.00125666 5.92428e-19)
(0.00786282 -0.0039688 -1.18844e-19)
(-5.05195e-05 5.13745e-05 3.84138e-20)
(3.22108e-06 -0.230418 -1.49833e-18)
(0.100658 -0.0611899 -9.09815e-19)
(-0.00435902 -0.0525564 6.0509e-18)
(-5.99137e-05 -3.28034e-05 3.84305e-19)
(-0.0129404 0.220642 -9.64964e-18)
(2.92235e-05 5.85722e-05 2.01199e-19)
(2.46345e-05 -2.14072e-06 -2.00453e-20)
(-7.11511e-05 -7.26174e-05 1.68732e-20)
(-0.00397463 -0.00392676 6.1804e-20)
(-0.0721361 0.377103 -6.2273e-18)
(-0.0968887 0.0144964 9.99318e-18)
(0.000862527 -0.00091375 -6.28549e-19)
(0.000234886 -0.000626445 1.00091e-18)
(-0.00288049 -0.0011276 1.45431e-19)
(0.0982367 0.109096 -1.62507e-18)
(0.00368095 -0.0734961 -1.69516e-19)
(-8.45732e-07 7.25181e-06 4.36679e-20)
(0.00601612 -0.0132059 1.85246e-19)
(-0.000147044 -0.00223033 -2.31032e-19)
(-0.0709585 0.247879 -3.46779e-18)
(-0.00660545 -0.001925 2.93816e-19)
(-0.0163153 0.00172483 2.27446e-19)
(-6.03364e-05 -8.69553e-05 -4.58531e-19)
(-0.00465965 -0.00321878 -3.82292e-19)
(0.00342841 -0.0220661 1.42076e-18)
(-2.89106e-07 -7.47591e-06 -8.92655e-19)
(-6.16359e-05 -9.05281e-05 1.70464e-19)
(6.48717e-06 4.41034e-05 -9.34185e-20)
(-5.83964e-05 -3.22639e-05 6.43009e-19)
(-0.00495014 -0.00201785 -2.289e-19)
(0.00918168 -0.0504176 9.79573e-19)
(0.03467 -0.0230001 3.15943e-21)
(-0.0170554 -0.0236116 -7.53086e-18)
(-0.0150436 0.00422488 -9.11992e-19)
(0.0014949 0.00421054 2.68032e-19)
(-8.01186e-05 -8.09244e-05 -1.83128e-20)
(-5.70942e-05 4.20502e-05 -2.8965e-19)
(-0.0319981 -0.0587089 -1.74995e-18)
(0.0911766 0.029506 -2.1117e-17)
(0.000491811 -0.000150301 8.57881e-20)
(0.00615415 -0.0129223 2.91055e-19)
(-0.0193847 0.160495 3.50819e-17)
(-0.0192255 0.225839 9.63923e-18)
(1.88747e-05 -1.24779e-06 2.19034e-19)
(1.77193e-05 -9.02949e-08 6.70179e-20)
(0.00613006 0.0289771 -3.49687e-19)
(0.0560514 0.0067822 6.43642e-19)
(3.35653e-05 5.25521e-05 -6.88418e-20)
(-0.0351023 -0.00600871 2.96537e-19)
(-0.000182426 -8.67911e-05 -1.87756e-19)
(-4.44758e-05 1.20476e-06 5.40291e-20)
(0.00254512 -0.0047865 -1.40856e-18)
(1.07151e-05 -2.10896e-05 -3.56694e-19)
(-0.000186428 -0.00023299 -1.7842e-19)
(-0.00147856 0.00115344 9.67328e-19)
(-4.35279e-05 -5.44982e-05 9.12331e-20)
(-0.00055124 0.00216897 3.57139e-20)
(0.0142649 -0.0542103 1.51163e-19)
(0.0128709 -0.00638229 7.44601e-18)
(-0.00923162 0.237362 -1.52396e-18)
(-0.0003383 -0.00154008 1.87357e-19)
(3.59103e-05 4.79537e-05 7.96066e-20)
(0.068093 -0.0962557 1.15958e-17)
(0.000190469 -0.000204546 2.64425e-20)
(0.083264 -0.129551 -3.40308e-18)
(-0.00741769 0.160691 7.92966e-18)
(-0.000192223 -7.20164e-05 -4.35677e-20)
(-0.0341095 -0.0857489 1.80844e-18)
(-0.00202879 0.00231037 4.04291e-20)
(-0.00104707 0.000101693 6.65502e-19)
(-0.00511494 -0.119366 -3.0583e-18)
(0.00456727 -0.0851225 -9.95686e-20)
(-0.00451532 -0.0850827 -3.89338e-19)
(-0.10407 0.0161902 -4.37213e-22)
(-0.00120501 0.00113242 -1.05376e-19)
(-0.0233792 -0.0491646 -2.15418e-18)
(1.89077e-05 -5.03681e-05 2.14025e-20)
(0.00148666 0.0752749 3.90673e-18)
(0.0170313 0.197438 2.11952e-17)
(0.000866433 -0.0141777 -4.95818e-19)
(0.000396316 -0.00083904 1.81102e-19)
(-0.04296 -0.191171 -1.8977e-17)
(-0.000238034 -0.00206979 4.24162e-18)
(0.0337039 0.0121758 -1.36294e-18)
(0.074166 -0.0569007 -8.56826e-20)
(0.0202454 -0.276583 -4.87081e-19)
(-4.57404e-05 -9.28578e-05 -5.60573e-19)
(0.0137313 0.0408505 1.81536e-18)
(2.05877e-05 -7.47637e-06 2.88606e-19)
(0.00599004 -0.0144754 3.70033e-18)
(0.0200025 -0.0315796 -1.36544e-18)
(-3.53027e-05 4.33738e-06 5.70589e-20)
(-0.00342422 -0.00697111 6.89975e-19)
(0.0700738 -0.0422902 1.15676e-18)
(-0.047351 0.0901598 -7.37438e-20)
(0.00374264 0.00486425 3.11473e-19)
(0.00165742 0.000296428 9.57343e-20)
(2.19225e-05 7.34679e-05 -1.42101e-19)
(-0.000564745 -0.000157811 -7.51997e-19)
(0.00314255 -3.8274e-05 -1.4258e-19)
(0.00676214 -0.0113772 -1.4795e-18)
(0.00858957 0.0648968 6.59923e-19)
(9.94289e-05 6.69443e-05 8.37933e-19)
(0.0492341 -0.0965141 6.50939e-18)
(0.00154165 0.00368728 -2.89729e-19)
(-0.000396286 -1.6612e-05 -2.97629e-19)
(0.00151597 -0.0025463 -4.42318e-19)
(4.94739e-06 1.12855e-05 2.79254e-19)
(0.0117826 -0.00538955 1.52859e-20)
(-4.12729e-05 -1.54564e-05 7.35559e-19)
(-6.22644e-05 -3.37569e-05 -2.25012e-19)
(0.238895 -0.0821244 -3.68001e-18)
(-6.11211e-05 7.75505e-06 8.27691e-20)
(0.00046451 -0.00202245 1.1702e-18)
(-0.0728155 -0.0380887 1.23359e-19)
(0.0211273 -0.00355019 2.45679e-18)
(0.0204532 0.00302892 -2.9783e-18)
(4.16999e-05 -4.83891e-05 -2.56788e-19)
(-0.000369156 -0.0001336 2.84365e-20)
(-0.0251255 -0.0164176 1.11664e-18)
(-0.000271499 -0.000151099 1.55763e-19)
(0.0473243 0.022911 -1.65274e-18)
(0.000409084 -0.00170166 -7.2473e-18)
(0.00197617 0.00168011 -5.8898e-20)
(-0.000725876 -0.000646433 1.65174e-18)
(-0.000299538 0.000100518 4.80452e-20)
(2.88801e-05 6.4751e-05 3.20289e-19)
(0.117176 -0.129199 -2.32146e-18)
(5.16287e-06 1.69961e-05 -2.05862e-19)
(-0.13923 -0.0925411 -1.37549e-17)
(0.0465443 -0.0562099 1.97028e-18)
(9.85e-05 -0.000415059 8.19253e-18)
(0.270483 -0.0571711 -2.06866e-18)
(6.45156e-06 -8.75785e-06 2.79715e-20)
(-0.00870326 -0.00294 6.46577e-19)
(0.00338841 0.00449412 2.65329e-19)
(-0.0756918 -0.226994 4.34835e-19)
(0.000554967 -0.00145533 -1.50093e-17)
(-0.00397159 -0.0577191 -2.21877e-18)
(-0.0313842 -0.097844 5.25839e-18)
(3.41217e-07 3.81026e-07 7.21287e-20)
(-0.075551 -0.0175245 -4.99306e-20)
(-3.33322e-05 2.91313e-05 2.39998e-19)
(0.071194 -0.0560614 1.788e-18)
(-0.000312466 -0.000165368 -9.34594e-20)
(-0.000360367 -0.000287327 -1.49797e-18)
(0.102693 -0.0583371 -1.31783e-17)
(-0.065861 -0.0756816 3.95477e-19)
(-3.49548e-05 1.0417e-05 9.28329e-19)
(0.000157212 6.39196e-05 -3.86076e-19)
(-0.00140714 0.000491909 2.80439e-19)
(-2.81293e-05 5.83447e-05 -7.06165e-19)
(3.78873e-05 -5.28146e-05 1.05567e-18)
(-0.0148023 -0.143593 -6.51098e-19)
(0.0531763 0.148554 -2.69002e-17)
(0.000387567 -0.000186708 8.91633e-19)
(-2.35522e-05 5.03505e-05 -1.81475e-19)
(-3.68687e-05 2.34178e-05 7.60573e-19)
(-0.150679 -0.282252 1.97259e-18)
(-0.0939053 0.0249356 1.1333e-18)
(-0.0232142 0.0101694 -9.831e-20)
(-5.1775e-05 -4.87412e-05 -1.46387e-19)
(0.00149393 -0.0164871 -2.02308e-19)
(-0.000354287 -0.000276542 1.88851e-18)
(-0.000406891 -0.000116837 4.22767e-20)
(0.00283779 -0.00329922 -2.15946e-18)
(-0.0529675 -0.0252528 3.04532e-18)
(9.84853e-07 1.14247e-05 -3.14543e-19)
(0.00730266 -0.0125699 -2.48318e-18)
(0.0396424 -0.0753097 1.80924e-18)
(0.00195201 0.000753623 -5.1866e-20)
(-0.0241443 -0.0129214 -1.05953e-18)
(-3.00869e-05 -0.000171608 5.01986e-20)
(-0.00704721 -0.000692144 -3.12117e-19)
(2.41216e-06 9.36493e-06 9.20613e-20)
(0.00030539 -0.00019958 3.95287e-19)
(0.000373937 -0.003311 3.48289e-18)
(-0.000427077 2.74155e-05 4.56043e-19)
(0.00521127 -0.0220793 -6.24348e-19)
(7.78336e-05 3.60777e-06 -6.42507e-19)
(-0.0233772 0.0878267 5.07912e-18)
(-1.99943e-05 1.24536e-05 -2.41287e-19)
(0.000398782 -0.00185331 3.96562e-18)
(0.0145845 -0.0296415 1.26193e-18)
(-0.0573481 0.0653581 -2.96335e-20)
(0.00470804 -0.0145672 -1.06758e-18)
(2.56936e-05 5.56278e-06 4.28357e-20)
(-0.000264055 0.000106368 4.60389e-20)
(-0.0189721 -0.14066 -3.06802e-18)
(-0.00042676 -0.0193298 2.95938e-19)