/*--------------------------------*- C++ -*----------------------------------*\
| =========                 |                                                 |
| \\      /  F ield         | OpenFOAM: The Open Source CFD Toolbox           |
|  \\    /   O peration     | Version:  v2012                                 |
|   \\  /    A nd           | Website:  www.openfoam.com                      |
|    \\/     M anipulation  |                                                 |
\*---------------------------------------------------------------------------*/
FoamFile
{
    version     2.0;
    format      ascii;
    class       volScalarField;
    location    "550";
    object      omega;
}
// * * * * * * * * * * * * * * * * * * * * * * * * * * * * * * * * * * * * * //

dimensions      [0 0 -1 0 0 0 0];


internalField   nonuniform List<scalar> 
18758
(
0.0254403
0.120596
0.0216365
0.0254849
0.025071
0.0204835
0.0212852
0.0226468
0.0246072
0.0243057
0.177642
0.420418
0.676877
0.0224929
0.0212655
0.0211429
0.404396
0.0195439
0.0212566
0.0238231
0.347517
0.295127
0.0206021
0.0205371
0.354284
0.278135
0.697682
0.110408
0.0760727
0.226132
1.741
0.597046
0.0225422
0.804972
0.0254542
0.275668
0.675353
0.0251295
1.2371
0.019881
0.364813
0.0250094
0.359151
0.0214236
0.0214166
1.77905
0.0244381
0.0752829
3.57212
0.0254272
0.243866
1.75327
0.0254898
0.0236304
0.150804
0.418824
0.0205454
0.0236171
0.0671135
0.0205037
0.0216262
0.0213507
0.602397
2.00427
0.0216465
3.60338
0.0214579
0.019862
0.107663
0.0195617
2.03721
0.316912
0.0212146
0.0260547
0.0581216
1.70901
0.203237
0.39389
0.0247168
0.353447
0.0897322
1.24814
0.397492
0.0385417
0.0221673
0.125136
0.0246095
0.0266572
0.563018
0.124205
2.86325
0.0223483
0.0663316
3.75873
0.0212041
0.0207417
0.0196795
0.0509661
0.39031
0.0210909
1.77832
0.0283085
0.0198553
0.0207382
3.5735
0.268395
0.0761578
2.93238
0.184909
0.555377
0.021168
2.09599
0.0255694
0.0213511
0.0283717
1.84114
0.0492489
0.0203644
2.27302
0.0227955
0.021259
0.208957
0.0222479
0.0204793
2.20178
0.023731
0.0210814
0.0204804
0.132348
2.29685
0.0692059
0.0222794
0.0262404
3.64229
0.0199317
0.0213526
0.44156
0.0220543
0.146833
0.087017
0.0275646
0.438816
0.0417435
0.195262
2.19212
0.0480781
3.72241
0.117425
0.132214
2.44552
2.78321
2.21783
0.0215779
0.0255774
0.358234
0.31635
0.0657891
0.13676
0.0409194
0.182524
2.10554
0.0205786
4.04898
3.70455
1.71295
0.0206151
0.0205703
2.29777
2.38556
0.478853
2.56787
0.0217617
0.0842269
0.314124
0.185401
0.0210636
0.0212033
0.240118
0.593842
0.0219801
0.0197882
0.0237964
0.145609
0.0224114
2.38232
0.0213543
0.231982
0.0315343
3.91863
1.16339
2.23823
0.021345
0.0622476
0.149668
0.0196889
0.0223264
0.174432
0.0215676
3.88119
0.0207319
0.0218544
0.152211
0.100913
0.0211404
0.021171
4.29481
0.0209476
0.0259772
2.59839
2.11986
0.0212012
0.0673951
0.0221937
0.0220987
0.0230832
0.0196967
0.0214104
0.0662274
0.0201619
0.402464
0.141062
0.0208679
0.040626
0.153968
0.10577
0.27217
0.0605273
0.122906
2.12531
0.020926
0.277764
0.0476982
0.174346
0.0215655
0.0209842
0.0209382
0.0680057
3.15868
0.210074
0.0218789
0.0211808
0.0621968
0.122838
0.0214255
2.50424
0.223847
0.0209954
0.0206268
0.0211228
0.0210912
2.68515
0.0212576
0.168174
0.0210408
0.021016
0.242646
0.0205693
0.335091
0.021263
0.747725
0.0258645
0.0205003
0.0210067
0.0594516
1.50516
1.49645
0.0205096
0.138054
0.0215933
0.0213786
2.26222
0.783806
0.0213509
0.0208576
0.0215839
0.0229189
0.0252163
0.0200386
0.0222774
0.0224852
0.0206267
0.0223019
0.0212155
3.75046
0.021276
0.0208429
0.0195311
0.115915
0.0207202
0.0207258
0.0216059
0.0220365
0.0205206
0.0208969
0.0213005
0.021917
0.272331
0.0228606
0.0207279
2.18937
0.0236486
0.0208916
0.0209107
1.01345
0.280397
0.0197828
0.0322001
0.263708
0.0215048
0.321749
0.0212187
1.39905
0.163143
0.0818371
0.0747273
0.964092
0.0198328
0.889063
0.173376
0.0214646
0.0775349
0.039153
2.45355
0.0209661
0.0198393
2.16287
0.302005
0.0207279
2.31317
0.0531456
0.0292273
3.57136
0.0209607
0.0206448
0.0212474
0.0213332
0.0219598
0.0228621
0.0226873
0.0209943
0.021908
0.0218719
0.377438
1.01918
0.0218901
0.927364
0.404937
0.0207157
0.0311102
0.310153
0.366465
0.422352
0.173255
0.0213548
2.50724
1.10272
0.033103
0.0218669
0.0284072
0.0221858
0.0212789
0.199782
0.161942
0.410782
0.0710152
0.170351
0.0209944
0.0249705
0.0240993
0.051044
3.35008
1.39773
0.163145
0.283919
0.380758
0.234408
0.0210932
3.24941
0.123583
0.251955
0.403478
0.0210339
0.0205005
0.306233
0.410172
0.466605
2.22764
2.249
0.0219106
0.446799
0.58948
0.021153
0.0224117
0.0229522
0.0221997
0.021258
0.0223052
0.0214151
0.0227296
0.0214197
0.0211162
0.0286596
1.26916
0.0271194
1.61496
1.69731
2.47622
1.27434
0.115728
0.0215675
0.0205918
0.356048
0.0224055
0.0219081
0.34856
0.0494932
0.509507
0.0205952
0.372816
0.0213642
0.0237294
0.019745
3.89832
1.40199
0.424882
0.0212678
3.55947
0.0649213
0.0213827
0.0221001
0.0212397
0.162663
0.0212951
0.020862
1.81309
0.0274129
0.0219322
0.0211923
0.022578
0.023882
2.17958
0.0855049
0.0216606
3.5014
0.0197376
0.0231597
0.118283
0.0214028
1.75745
0.0216962
0.0240625
0.0215739
0.68444
0.0225345
0.0214092
2.80348
0.26524
0.0195348
0.0249705
0.0231684
0.0211429
0.0210546
0.0220965
1.68696
2.3761
0.0216496
0.0321115
0.194261
0.231912
0.355246
0.222138
0.362998
0.0202985
0.108266
0.0568388
0.0280334
0.0225049
0.4046
0.245975
0.0270104
0.0206441
0.0212834
0.0207225
0.0214012
0.0207164
0.0214195
0.47766
0.0217943
0.0196993
0.0637153
0.0221766
0.0216086
0.0198712
0.0229716
0.250477
0.433297
0.0209704
0.273857
0.0207549
0.0272172
0.13568
2.2618
0.417027
0.021258
0.0213655
2.35342
3.62791
0.0791312
0.0205611
0.410716
3.78272
0.0195273
0.0206078
2.08752
0.0231494
0.0905241
0.0741138
0.0226576
0.0319842
0.0206323
0.0210204
0.0222594
0.0209349
0.0208984
0.0216268
0.475924
0.0197915
0.522897
0.190379
0.0195326
0.0197913
0.0219896
0.025004
0.0275476
0.0845901
0.0210994
1.2505
0.0272663
0.0280463
0.0207426
0.0209706
0.0212809
0.0216663
0.021655
2.18382
2.4278
0.0206234
0.0208802
0.0219914
2.32365
0.0197553
0.0197154
0.021435
0.0197106
0.0208104
0.0207205
0.0225282
0.0211393
0.0702075
0.0210972
0.02
0.0926355
2.21075
0.0252716
0.0211257
0.0210846
0.0217305
0.0211895
0.0223321
0.215874
0.354255
0.0220092
0.443578
0.0210724
0.0320128
0.0211745
0.0207513
0.048479
0.0195664
0.0209951
0.65529
0.0215619
0.0223748
0.0689028
0.0210728
0.0213102
3.97836
0.0203464
0.497219
0.177967
0.0209698
0.0216115
0.0367962
0.0229388
0.0275815
0.0210479
0.991134
0.55625
0.364482
0.0206521
2.20837
0.0196829
0.0212228
0.0211124
0.0248848
1.60712
0.122455
0.0213116
0.0223408
0.022644
0.462398
0.241818
0.0210545
0.0339452
0.0237334
2.97016
0.0260668
0.0492808
0.0207458
0.0247167
0.0494826
0.0209773
0.0207484
0.019761
0.020683
0.0251351
0.0756203
0.154959
0.61778
0.0440083
0.02348
0.0211156
0.0205817
0.530699
0.335588
0.0198973
0.040844
2.16783
2.1849
0.0214124
0.0212527
0.0404177
0.339943
0.0196703
0.313705
0.0211861
0.0225489
0.0284384
0.0214595
0.0216625
0.0217232
0.0206645
0.0219066
0.079684
0.0479851
0.47827
0.0220128
0.0208262
2.12402
0.019735
2.27941
0.490324
0.0211984
0.396382
0.0225357
0.0212119
0.382807
0.314989
0.308044
1.58109
0.022789
0.572018
0.0198024
2.85656
2.42792
0.0315017
0.0211448
0.490078
0.0235772
0.0498249
0.123849
2.04767
0.021544
0.437296
0.0207945
0.0423724
0.0825392
0.0207615
0.0280921
0.18998
0.609022
0.0255522
0.022641
0.0197006
0.0218649
0.022236
0.0309111
0.0664643
0.0208741
2.19317
0.0233229
0.0213633
0.0253033
0.0197514
0.0501168
0.021202
0.020687
2.44848
0.0206072
0.022403
0.404884
0.0659867
0.0694351
0.0213857
0.0213468
0.0459089
0.0213345
0.35404
0.0235142
0.0233194
0.0221896
0.0213413
0.0196846
2.19131
0.0197513
2.29417
0.169151
0.0220306
2.74849
0.0205491
0.0278247
0.0252984
1.90677
0.0233998
0.447143
0.331908
0.0212549
0.403945
0.0202921
0.125086
0.0213557
0.021744
1.78613
0.40566
0.021183
0.0215428
0.0226161
0.0205366
0.0213795
0.396601
2.61007
0.0208048
0.0205258
0.0203034
1.92527
0.11191
0.194974
0.020655
0.0333178
0.0217378
0.0213698
0.0275099
0.392069
0.0210578
0.0420294
0.107002
0.0209791
0.254618
0.0213834
0.0261013
0.0210579
0.0204106
0.0250184
0.0213957
0.0512921
0.0213882
3.70723
0.021486
0.0236304
0.0729986
0.602551
0.0411441
0.0207231
0.0213312
0.34436
0.0406094
0.0464556
0.0208239
0.0210811
0.0260534
2.92794
0.403446
0.0207496
0.0211687
0.0219837
0.021515
0.021919
0.0211709
0.0211456
0.357754
0.0211944
0.021317
0.338848
0.0206409
0.239229
0.0819846
0.398691
2.34878
0.435169
2.55959
0.0211808
0.0210924
0.0230115
0.0207732
0.0210598
0.0205605
0.0207377
0.0218284
2.00478
0.13522
0.115338
0.021935
0.0210548
0.0275867
0.0283472
0.0519033
0.0214272
0.0221004
0.0203857
2.87589
0.124294
0.682008
0.0215572
0.0832089
0.120075
0.268023
2.84746
0.365127
0.022342
0.0223582
0.0200843
0.509715
0.0215313
0.0198703
0.0672143
0.402914
0.0211619
0.173689
0.398766
0.0212283
0.0211289
0.0212428
0.0211872
0.0212731
0.0227953
0.0276444
0.0212549
0.0215443
0.648333
2.80364
0.0212454
0.405592
0.242599
0.0220097
0.0214456
0.0208279
0.020274
0.0227149
0.0219877
0.0211382
0.0216635
0.0226198
0.0215302
1.46023
0.0253545
0.0209714
0.0211942
0.944203
0.0215561
0.0198602
2.42301
0.0210729
0.0309053
0.0250249
0.021326
0.020799
0.0205085
0.0241182
0.0382533
0.021131
0.442743
0.0542403
0.104023
0.322352
0.0219299
0.14556
0.0198021
0.243553
0.022056
0.0211121
0.152752
0.330396
0.0216276
0.137126
0.304613
0.0204285
0.0277383
0.0198609
0.0219186
0.0254529
0.0221624
0.0210875
0.134236
0.0210265
0.0208512
0.38772
0.0208002
0.0210568
0.0207976
0.983119
0.0212254
0.0212775
0.0273445
0.122758
0.476004
0.233485
0.46537
0.021035
0.0197287
0.021335
2.0205
0.0218033
0.0209121
0.0229165
0.0203435
0.119644
0.02156
0.0215061
0.111218
0.0211389
0.0652531
1.74061
0.0197257
0.0212473
0.218362
0.0228458
2.96188
0.943702
0.0205793
0.021401
0.826574
0.0206764
0.0229699
0.470308
0.0201048
0.363689
0.0212297
0.0211583
0.0212635
0.0281943
0.0222258
0.512492
0.0224492
0.0209779
0.485446
0.32921
0.0388244
0.025989
0.13185
2.99505
0.119475
0.0196736
2.83124
0.0215032
2.10405
0.612773
0.0208021
0.0239121
0.0215795
0.352071
0.0207626
2.27238
0.0207997
0.117459
0.136656
0.0206376
0.01969
0.0211898
0.159725
0.109444
0.0211877
0.647939
0.021505
0.0210567
0.359361
0.0212843
0.256538
0.0208061
0.0230651
0.0209506
0.020808
0.0209874
0.0207656
0.0724346
0.0267091
0.0296801
0.0295086
0.0217068
0.0212289
0.458113
0.021256
0.498581
0.0215372
0.397882
0.0250536
0.16244
0.0205276
0.020689
0.0210316
3.18213
0.0210467
0.495693
0.0481786
0.0213915
0.0250291
0.0212522
0.0206211
0.0230563
0.020837
0.432767
0.0211976
0.0224518
0.0211887
0.0225597
1.78992
0.593981
0.0213384
0.0208113
0.0213397
0.0216436
0.0211107
0.0227965
0.021826
0.0211803
0.0203158
0.0204833
0.193725
0.0880121
0.0213775
0.0203299
1.68847
0.022222
1.24426
0.131538
0.0217662
4.4969
0.0222329
0.0205597
0.021023
0.0229803
0.0354354
0.020395
0.0302032
0.472075
0.0284498
1.49174
4.798
2.16315
0.0286365
0.021507
0.0214153
0.532531
0.020322
0.0214162
0.0278609
0.182399
0.0210636
0.0206701
2.4012
0.023285
0.0221577
0.0221935
0.0231156
0.0281279
0.021408
0.0235362
0.0212008
0.0291027
0.0224811
0.0216734
0.0215974
0.526743
0.021707
0.0212384
0.480366
0.0196893
0.0209809
0.0213318
0.0220861
0.0215224
0.0639085
0.113004
0.530442
0.248376
2.31463
0.30099
0.0219359
2.03181
0.488747
0.0213328
0.0219742
0.021565
0.021417
0.0221456
0.0221338
0.0661634
0.102726
0.0213988
0.0202575
0.0386174
0.0224591
0.293908
0.0209868
0.0218835
0.021067
0.21813
0.475133
0.0275395
3.44795
0.0211051
0.0210774
0.0705815
0.0257375
0.0210615
0.0979174
0.0217013
0.0238433
0.34864
0.0794697
0.0286801
0.0214989
0.0216204
0.0217839
0.0206463
0.472714
0.0682479
3.15846
0.15981
2.51698
0.0216659
3.80167
2.7232
4.75094
0.117521
1.08607
0.0244833
0.347782
0.106129
0.0305341
0.0195445
0.0211612
0.0213625
0.0370465
0.0208099
0.0212494
0.0931731
2.08926
1.36812
0.405779
0.0808956
0.636405
0.0265014
0.0228586
0.021248
2.09619
0.201825
0.0205878
0.0276886
1.76086
2.64209
2.17161
0.0309245
0.0451022
0.0197387
2.73191
0.021702
0.467378
0.469103
0.0286358
0.132454
0.111026
0.0213911
0.0212262
0.456315
0.350134
0.194325
0.0216608
0.0212177
0.0232445
0.471253
0.0238959
0.359356
0.0217456
0.354635
0.332931
0.0245219
0.758333
0.0588813
2.17607
0.0197379
0.0319597
2.49811
0.0263623
0.0211581
0.651661
0.495587
0.02113
0.0212532
0.176429
0.0222125
0.0221582
0.344244
0.491016
0.0215063
0.0274432
0.846038
0.0280429
0.0228674
0.0227535
0.378274
0.0244887
0.0207379
0.0209904
0.386953
0.0207663
2.36264
0.0204381
0.0206653
0.396509
0.021513
0.0211081
0.133862
0.0196844
0.0230187
0.0204788
0.0210758
0.0214897
0.0874225
0.0213227
0.340404
0.152621
0.631738
4.47376
0.0235872
0.0205684
0.02077
2.49268
0.0248979
0.021182
0.339885
0.0294777
1.31899
0.0201231
0.0204268
0.0205798
0.0208146
0.0211866
0.0199064
0.0220447
0.0222094
0.0212948
0.292742
0.0239542
0.365453
0.0220343
0.0204826
0.024084
3.23395
2.86368
0.412124
3.02341
0.489608
0.09474
2.81128
0.0222039
0.0337337
0.0414244
2.51352
0.0209765
0.851812
0.220898
0.167879
0.0211816
0.434746
0.0210509
0.0212411
0.0210528
0.0287026
2.01393
0.31877
0.0215365
0.0195816
0.0204516
0.0201467
0.0279143
0.021338
2.78612
0.05925
0.0309242
0.0217415
0.0211397
0.0198688
2.20622
0.085185
0.0211412
0.0209376
0.132331
0.0201336
0.0213355
0.020313
0.0211614
0.0214742
0.0213216
0.0204973
0.233151
0.0228368
0.292705
0.0239139
0.0216125
0.24578
0.0215082
0.744859
0.0216202
0.0488162
0.0560409
0.393329
0.0325774
0.0865207
2.16048
0.0223607
0.0303354
0.0222915
0.0211697
0.0204944
0.0209386
0.0660936
0.0330204
0.0235088
0.064902
0.0204747
0.021391
0.0324316
0.587722
0.0196695
0.0405616
0.258271
0.119213
0.0866616
0.0218609
0.0215031
2.1483
0.0270454
0.0208541
0.0211216
0.12347
0.0205504
0.0206444
2.54894
0.0551449
0.0221981
0.022042
0.0216358
2.81342
0.0234403
2.37276
1.96808
0.0212253
0.0210136
0.829497
0.0298181
0.0244904
0.0221852
0.0265586
0.024576
0.020823
0.0235696
0.17361
0.0353603
3.31828
0.267378
0.0323439
0.489481
0.841291
0.0206744
0.458615
2.29985
0.0227292
4.57634
0.0215033
0.18627
0.0783007
0.510306
0.0259135
0.161616
0.0281922
0.327277
0.0210523
0.0198696
4.53087
0.0228636
0.0211389
0.0211814
0.0216168
0.0198465
0.0219086
0.0209876
0.0211705
3.93774
0.217039
0.0210871
0.0216133
0.837636
0.43383
0.0197128
0.199164
0.192571
0.042652
0.0213538
0.0209758
2.20761
0.0216512
0.048249
0.0862051
0.0206507
0.0240811
3.69676
0.0209209
0.478017
0.299413
2.61418
0.0218593
0.0209326
0.0212914
0.0211832
0.0211944
0.344857
0.0990733
0.020349
0.509722
0.431356
0.0219326
0.0215132
0.0211969
0.404211
2.22366
0.0384594
0.0334466
0.0228322
3.48064
0.406222
0.0205213
0.021069
0.0251904
0.0326434
2.00478
0.336737
0.0207084
0.659533
0.404731
0.0228435
0.0208659
0.0215315
0.0233129
0.0210183
0.0219523
0.0206326
0.107302
0.392363
0.0213401
0.0215162
0.0298951
0.0206619
0.0210808
0.0217381
0.343314
0.0205955
0.0225622
2.25884
0.172464
0.0684642
0.0825465
0.0217883
0.0215743
0.0218965
0.0204174
0.0210693
0.0218827
0.493295
0.0261366
0.0221235
0.0353721
0.0203661
0.130467
0.235531
0.021196
2.38447
0.020758
0.0224616
0.178225
2.62495
0.0232814
0.0231569
0.023335
0.0726133
0.0197207
0.334316
2.16631
0.0206244
0.0765582
0.403465
0.0213353
0.0222802
0.326052
0.0676464
0.0215513
0.386282
0.0238461
0.0211804
0.0744529
0.264698
0.141798
0.020769
0.331504
0.0320446
0.0198417
0.0441718
0.0274521
0.0214585
0.0365636
0.776468
0.215186
0.0324523
0.0431037
0.0206095
0.663396
0.360646
0.189027
0.263357
0.0213341
0.819075
0.0213323
0.0210235
0.0428706
0.0219752
0.0941005
0.357163
0.0215707
2.17568
1.57676
2.77595
0.026634
0.062558
0.0196732
0.0217179
0.0229808
0.0196478
0.480116
1.52304
3.7556
0.507583
0.106296
0.255217
2.59141
0.0211912
0.0224832
2.13571
0.0571355
0.0213324
0.0211288
0.775863
0.0531595
0.0255297
0.0212382
0.0214771
0.046739
0.0211322
0.0700894
0.363008
0.0198319
4.68903
0.0202452
2.15344
0.225883
0.522658
0.0221336
0.462175
0.0214324
0.0210767
0.0221462
2.38377
0.032444
0.525299
0.0215088
0.0211239
0.0810583
0.779346
0.0215642
0.129354
0.255318
2.35509
0.208772
0.0208575
0.0213511
0.471331
0.019664
0.0203162
0.0237676
0.021206
0.0214662
0.0208257
0.0211186
0.0236025
0.0211671
0.0289153
0.0275265
0.0209183
1.33062
2.51945
0.0244581
0.0202738
0.0212843
0.0393327
0.0213446
0.0212419
0.0213431
0.112479
0.0211351
0.022575
0.0229024
0.0566816
0.216031
0.0209086
0.0461026
0.101896
0.0254475
0.0637219
0.110357
0.0207158
0.0211916
0.0551868
0.0423883
0.0229639
0.591495
0.33955
0.0212896
0.353648
0.0219403
0.0627827
0.889953
0.794295
3.49955
0.0228074
0.0210687
0.252583
0.022587
0.812053
0.0282737
0.433254
2.1722
0.020666
0.0392154
0.0210629
0.0345705
0.0849578
3.05273
0.0210008
0.0213366
0.0741808
0.0216162
0.266086
0.0206233
0.44612
1.12961
0.0415763
0.424417
2.40756
0.0207733
0.0208945
0.0213387
0.493674
0.243989
0.021749
0.0225505
0.021777
0.0202834
0.0266884
0.0207962
0.0203962
0.560091
0.0216969
0.0203675
0.023279
2.57819
1.72191
2.59745
0.0215164
0.0641425
0.0231595
0.0246972
0.124082
0.837277
2.39466
0.0202613
0.0358818
0.0197097
0.0331642
0.0302157
0.0518568
0.450284
0.0217429
0.0829564
0.0202804
0.152736
0.368811
0.0203965
0.0223189
0.0220584
0.0220967
2.28968
0.0213195
0.0213578
0.0219371
0.0216213
0.020478
0.0223447
0.0212945
0.0216812
0.0213409
0.0211036
0.83542
0.425438
0.491893
0.0200617
0.0197192
0.0197781
0.0201316
0.019891
0.0345059
0.0198319
0.02061
0.0212482
0.0208525
0.0277971
0.0212543
1.7602
2.27892
0.0380205
2.17047
0.0215132
0.918319
0.0694324
0.237061
0.0205325
0.0701204
0.0220356
0.0213447
0.021351
0.0695244
0.0991515
0.0209145
0.0304773
0.0273314
0.0211633
0.0834767
0.419885
0.0300908
0.020893
0.0227127
0.0932322
0.0228768
1.70522
0.0209214
0.0220682
0.0213479
0.0227383
0.0279435
0.39508
0.0317894
0.0203693
0.364909
0.0258533
0.04642
0.0210535
0.0242222
4.43795
0.0206704
0.021732
0.0269203
0.193699
0.0198243
0.0210052
0.0204606
0.0310185
0.0213549
0.508717
0.0213502
0.0247665
0.0268588
3.87121
0.0206376
0.0204163
0.0197209
0.0286052
0.0202671
2.57649
0.592465
0.0301129
0.478638
0.0212745
0.348201
0.021388
0.0205811
0.0578277
0.0481099
0.177989
0.333579
0.316792
0.244835
0.0267013
0.0327375
0.0221921
0.52436
0.021354
0.0217896
0.586757
0.0216439
0.234307
0.177988
0.10919
0.480976
0.330292
0.774797
0.104574
0.0836658
0.0220208
0.0283619
0.0213507
0.020382
0.0210308
2.9956
1.99188
0.273196
0.024612
0.0234993
0.265791
0.0209322
0.0278829
0.0204148
0.0331636
0.0211999
0.0199108
0.0220734
0.0401914
0.35652
0.0296964
0.0267389
0.0204332
0.026441
1.27199
0.0202894
0.0517224
0.3839
0.019658
0.0614026
0.0205674
2.28389
0.0216418
0.909833
0.0218276
0.0214895
0.0244089
0.0498406
1.14899
0.0255901
0.168688
0.0224946
0.0213375
0.0213516
0.0215102
0.0203581
0.0213007
0.971953
4.56182
0.0285782
0.0210905
0.0246918
0.0228609
0.0215606
0.0214991
0.0879167
0.340452
0.343966
0.0212026
0.31311
0.0205565
0.0663249
0.0224606
0.0390038
0.280661
0.368048
0.323862
0.0199365
0.0213052
0.0209451
0.0211507
0.0213488
0.0211297
2.6023
0.0214814
0.0215996
0.0218131
0.0346726
0.0211285
2.17165
4.04505
0.301846
0.0213508
0.297397
0.0203465
0.359995
0.0924759
0.0220631
0.320776
0.0234766
0.0667621
0.0206933
0.0215193
0.0270121
0.043847
0.110675
0.421054
0.16948
0.147793
0.0298488
0.0220634
0.021188
0.658134
0.0230301
0.59017
0.0219455
2.0272
0.932951
0.439874
0.0222411
0.100993
0.0233131
0.0211064
0.0201619
0.0227333
0.0693334
0.0212425
0.398154
0.0342722
0.115669
0.0210816
0.024485
0.305922
0.470668
0.39519
0.0241153
0.0267891
0.686293
0.0883336
0.0216821
0.0437003
0.337052
0.0663158
1.54835
0.024596
0.0257593
0.223672
0.0198825
0.203755
0.0491997
0.0213371
0.309651
0.446983
2.37104
0.0232809
0.12904
0.0257979
0.0204164
0.0500264
0.0217908
0.207882
0.0204296
2.53398
2.57715
0.0685068
0.364084
0.118785
0.983332
0.0236753
0.0540419
0.347271
3.44704
0.0223705
0.0218623
0.0210249
0.0246827
0.0199207
0.021049
1.43044
0.021041
0.0206086
0.0286819
0.0218932
0.0198318
0.0271398
0.242371
0.064431
0.0212848
0.0213567
0.0272538
0.0222825
0.0210404
0.0209486
0.0203989
0.519619
0.024601
0.0772332
0.0260458
0.0212015
0.0198952
0.270166
0.161134
0.57578
0.0283276
0.021631
0.0324391
0.0209423
0.0265999
0.0894244
1.91282
0.0367826
0.0230501
0.0203015
0.026554
0.451593
0.406948
0.419868
0.0243021
0.0203608
0.0205941
0.0239004
0.069076
3.79281
0.0204621
0.443296
0.0198921
0.0210542
0.0884422
0.0208577
0.182516
0.0929795
0.437088
0.019831
0.0320786
0.0393062
2.5931
0.0203365
0.0214188
0.185338
0.117406
0.299731
0.431589
2.15152
0.0223096
0.200508
0.0244126
0.0253051
3.03797
0.0238773
0.020939
0.0215404
0.0200917
1.0507
2.83608
0.0241024
2.85692
0.0201465
0.0209502
0.0214889
0.142493
0.0529495
2.53932
0.0213866
0.0218387
0.0302348
1.4588
0.0203354
0.37192
0.0207011
0.0224751
2.53756
0.0208646
0.105748
0.770892
0.41616
1.86196
0.0212923
0.0232433
0.0226783
2.65282
0.039136
0.0213722
2.96767
0.233547
0.0196494
0.0224468
1.33206
0.0204317
2.19076
2.14952
0.024136
0.0197295
0.0236675
0.0239873
3.46954
0.0205687
0.0309859
0.0219806
1.37782
3.03407
0.0212312
0.0202002
0.16419
0.0253107
0.0214804
0.0210154
0.0208898
0.0515516
0.0227378
0.0950431
0.0217746
0.0216428
0.0208002
0.0224957
0.0228133
0.0223299
0.805507
0.336297
0.39234
0.0217569
0.020324
0.54276
0.0249114
0.0687367
1.39568
0.119485
0.390453
2.14602
0.0203126
0.658281
0.0907352
0.0221744
0.0208263
0.0213901
0.021374
1.07322
0.312872
0.021358
4.53734
0.587082
4.72453
0.0197736
0.0205837
1.40065
0.0208948
0.0214615
0.0239321
0.0210291
0.238451
0.022638
3.02874
0.377458
0.0208381
1.49264
0.0631229
0.39692
2.02059
0.0212793
0.0237992
0.0318479
0.463323
2.16838
0.159325
0.0217115
0.021391
0.0878734
0.0204315
0.382611
0.398372
0.0209316
1.07717
0.0203938
2.48072
0.0215184
0.332835
0.022102
1.58326
2.00239
2.45307
2.7101
0.0200779
0.669659
4.48835
0.0218212
3.1279
0.0217419
0.019974
0.0211925
0.0257865
0.0234552
0.0215077
0.0209837
0.0667055
0.039505
0.0417573
4.44062
0.053083
0.0271726
0.0220292
0.0538702
0.0201844
0.112399
1.50287
1.87741
0.388724
0.022152
0.0231876
0.0221936
0.0267902
0.0227044
0.0210641
2.20852
0.366069
4.10822
0.022022
0.0215227
0.0418076
1.94356
0.0216852
0.0204113
0.0220461
0.0224664
0.0384681
0.0212561
0.404829
0.0216874
2.87598
0.020572
0.218994
0.511294
1.47632
0.0200722
0.107134
0.0213521
0.0204043
0.06885
0.465275
0.0210053
0.0220027
2.42639
0.0212884
0.0537131
0.444193
0.026101
0.0885625
0.0214435
0.296932
0.0273318
1.39757
0.0203132
0.0206488
0.565073
0.0208157
0.331698
0.0238331
0.0275251
2.68827
0.0222157
0.0213896
0.0220236
0.0210306
0.698011
2.85284
0.0204078
0.436755
0.0324624
2.11809
0.0212002
0.0742611
0.326578
0.0256363
0.0275826
0.0213575
4.52314
0.0200011
2.57754
0.0203023
0.0206213
0.0232755
0.0215459
0.0206682
0.0573385
0.0228919
0.0210116
0.323717
0.0204447
0.0404575
0.0247504
0.933508
0.0279351
0.0205773
0.0311294
0.020975
0.0209474
0.0236345
2.26558
0.0900324
0.32395
0.322722
0.0203858
0.0211196
0.0212379
0.0209045
0.0202199
0.367453
0.0198529
0.0230246
0.211117
0.021996
0.257557
0.0214755
0.0203907
3.75323
1.91657
0.0215623
0.0474252
0.0239783
2.10616
0.0210503
0.022603
0.0553151
0.0214428
0.0686894
0.19694
0.0220218
0.022081
0.413474
0.0239515
0.051742
0.273842
0.639249
0.0231285
0.0229905
0.0324861
0.414598
0.0218367
0.50245
0.454736
0.463166
2.62742
0.0204361
0.0213622
0.0211618
0.311268
0.509158
2.23887
2.17578
0.0200562
0.0950453
0.0204428
4.58189
0.021186
0.0344262
0.108297
0.0218283
0.0219323
0.124141
0.0244253
0.0217015
0.0219154
0.0581157
0.0229392
0.0209278
0.0853123
0.02177
0.0217537
0.0211009
1.08734
0.0260425
0.391282
0.0269924
0.0227806
2.51333
0.0243287
0.0930036
0.0203892
0.021173
3.30287
2.23772
0.460377
0.0214836
0.0237201
4.46757
0.0963603
0.0968815
0.190189
0.0478187
0.0520572
0.0203705
0.817476
0.0206522
0.06414
0.555655
0.113828
0.113729
0.0221769
3.57941
0.0660709
0.343913
0.0359918
0.0210502
0.021335
0.0213209
0.606103
0.0205117
0.439925
0.0685229
0.363448
0.0202212
4.9779
2.59688
0.306188
0.402041
0.0221187
0.0216697
0.0210704
0.0249231
0.0213717
0.0247218
4.4498
0.0211783
0.0222077
2.2285
0.325382
0.184292
0.0251449
0.0290185
0.0207723
2.94191
0.0219279
3.14566
0.0396815
0.169735
0.0291673
0.111324
0.131591
0.0212762
0.0211835
2.48204
0.0743933
0.550188
0.151763
0.0431307
0.020804
0.062321
0.0214133
0.0876749
0.0213769
0.0224999
0.40115
0.0219733
0.111664
0.020552
3.31338
1.26865
0.0257205
0.0274715
3.23589
0.0251692
0.020292
2.87995
2.65747
2.79251
0.020891
0.0217559
0.700639
2.42096
3.59455
0.0214817
0.0228394
0.0215702
0.0251268
0.0217104
0.0206631
0.448106
0.0209376
2.18393
0.0232949
0.112531
0.0200702
2.01512
1.0501
0.115706
0.341719
0.48522
0.0206189
0.074394
0.915183
0.0208484
0.0216671
0.0213086
2.92272
2.33607
0.0214747
2.20119
0.0347487
0.0212376
3.28948
0.0226764
0.0646277
2.82103
3.73692
0.0211508
2.66647
0.0234203
0.0202712
2.29374
0.0391544
0.326016
0.389226
0.0269773
2.57074
0.137902
0.0256706
0.646715
1.90268
2.2853
0.0220292
0.0200318
0.0211108
0.0224207
0.351355
1.77043
2.34214
1.62909
0.0242868
0.020019
0.0209025
0.0236007
0.284769
0.0211976
0.380429
0.317307
0.0203738
0.0221699
2.23443
0.0573988
0.73938
0.311594
0.0213259
2.23357
0.333066
0.914985
0.0224064
0.0240354
0.0869009
0.021332
0.0226128
0.110521
0.0233693
0.136058
2.33228
0.0214699
0.100846
0.131041
0.0476448
0.037676
0.245106
0.24343
0.705351
0.0213529
0.778453
3.78216
0.0400884
0.0220256
0.0205246
0.021725
0.0215407
1.79312
0.0224201
2.22306
0.0224337
0.0212423
2.33986
0.221534
0.0202819
0.0211222
0.389111
0.406351
0.021374
0.0204501
0.0238445
0.0247959
0.203552
0.0624942
0.0205528
0.109498
0.0220085
0.39985
0.1522
0.367156
0.0212636
0.0579497
2.25876
0.362522
0.0219604
0.58878
0.252461
0.27175
0.0202203
0.0224388
2.1486
0.146901
0.0682876
2.74409
0.0214179
0.0623568
0.022625
0.051026
0.0706661
0.694319
0.144494
0.02538
0.0209348
0.0339823
0.345937
0.0213403
0.0371337
0.293707
0.0676451
0.0206644
1.25872
0.313822
0.0706538
0.0224926
0.0215381
0.0215062
0.0241849
0.0356706
2.17254
0.108796
0.0204312
0.0212924
0.345347
0.2368
0.0214397
0.301166
0.048676
0.0224323
2.45659
1.69075
0.020273
2.85368
0.514834
3.11111
2.84625
0.0207493
0.117415
0.133427
0.0219449
0.0228773
0.379596
0.33882
2.58193
0.0303724
0.0212935
0.0245158
0.801782
0.024191
1.41481
0.0197585
0.0216575
2.74776
0.353097
0.03232
0.0912892
0.060147
0.0228537
0.318162
0.0897921
0.217743
0.406885
0.0575857
0.0633267
0.0213108
0.0213072
0.0585266
0.297091
2.72639
0.884861
0.128226
0.289849
0.290942
0.028181
0.0209726
0.0217425
0.0686831
1.7453
0.0204746
0.0618862
0.55891
0.107569
0.371572
0.0408562
3.06842
0.0216484
0.0226779
0.464558
0.0330967
0.0217629
0.0223011
0.335558
0.029222
0.0597
0.0204062
0.021301
0.343581
0.38557
0.0221105
0.696956
0.333333
0.0819218
0.0222846
0.354094
0.0210403
3.26546
0.109282
2.74472
0.0215284
0.183539
0.0200551
0.0212997
0.557259
0.408887
0.0888359
0.0203983
0.217084
0.602956
1.27404
0.361759
0.0402652
0.0223151
1.48568
0.183484
0.0212215
0.0209431
0.415961
0.484255
0.348034
0.0253708
3.61563
0.0203674
0.0217667
0.677564
0.0675749
0.0211775
0.380054
0.0214221
0.0215067
0.0220501
0.0222174
0.522044
0.253636
0.0196401
0.0889615
0.020888
0.0322417
0.466832
0.0218557
2.09307
3.41503
0.206999
0.217102
0.0214652
3.28766
0.0224138
0.14728
0.0207375
0.136793
0.0314496
0.0244481
0.0214681
0.119494
0.061103
0.196494
0.267004
0.0218097
0.0202714
0.304487
0.140565
0.0302198
0.517402
0.023897
3.10608
0.0214683
0.193678
0.12941
0.442664
0.0202949
0.0551543
0.0524441
0.156338
0.0224765
0.0238139
0.0240271
0.0236009
0.0239849
0.0236869
0.023539
0.0210421
0.0953018
3.47381
0.442594
0.0243515
0.0212048
2.4602
0.348894
0.0212022
0.0632942
0.0233234
0.022742
0.67792
0.332863
0.0202512
4.53973
0.0214731
1.42851
0.209611
0.180747
0.0231696
0.0217695
0.0229357
0.0204461
0.0224033
0.3794
0.336222
0.0306604
0.41056
0.154983
0.02136
0.0449019
1.0764
0.0214944
0.0240073
0.182742
0.0235723
0.0556903
0.0234053
0.0238245
0.0472651
0.271489
0.0983219
3.39429
0.0246971
0.249885
0.0655038
0.67183
0.0654827
0.0268582
0.0210502
0.0240785
0.16141
0.391726
0.452421
0.0209744
2.35976
0.396918
0.334087
0.138257
1.05669
3.25277
2.40478
0.0197573
0.100384
0.0237075
0.196198
0.264954
0.357682
0.0211152
0.39593
0.0497363
0.127924
0.0210404
0.411653
0.0230744
0.186653
0.0226252
0.105938
0.172243
0.0247833
0.0208461
0.0217083
3.09135
0.0207647
0.688454
0.0608236
0.296372
0.0277535
0.455349
0.0703228
0.0212122
0.0206954
3.21292
0.0231885
0.0208493
0.021144
0.420685
4.52368
0.122366
0.0213832
0.036592
0.35984
0.467609
0.0434084
0.0209608
0.197939
0.272994
0.0261145
0.0233631
0.0208036
2.4398
0.020694
3.46465
0.329812
0.0403438
0.863752
0.137255
0.0202944
0.0226326
0.386814
0.0232482
0.0255005
0.0210895
0.0213344
0.398271
0.115196
0.0451598
0.0205089
3.81117
0.0609679
0.216654
0.0212033
0.0270795
0.0241947
0.149236
0.0212514
0.0526224
0.375563
0.0974741
0.0242579
0.0208168
0.0260378
0.0256549
0.0456403
0.0202238
0.0218851
0.0215417
0.0214925
2.71521
2.63943
1.1737
0.0387406
0.0219989
0.0196714
2.10353
0.586961
1.96228
0.0237838
0.105126
0.0212991
0.0217286
0.0761079
0.0207241
0.166035
0.021725
2.56972
0.0201975
2.89893
0.0214461
0.310798
0.346246
0.0405677
0.198153
0.0196689
2.30542
0.0203178
0.129392
1.54321
0.16173
0.0206095
0.392522
0.476075
0.0685515
0.107748
0.0292513
0.113361
0.0200725
0.0361074
0.0204021
0.340269
1.31419
2.35967
3.67212
0.0216939
0.306553
0.020929
0.0210765
0.39401
0.0201503
0.0210216
0.0210815
0.020999
0.229969
0.0223679
0.0230899
0.0219646
0.0212379
0.0210716
0.0224459
0.0239577
0.0214582
0.0310462
0.0357268
0.0249628
0.396628
0.0230843
0.0592546
0.555157
0.0344958
0.045545
0.10392
0.196815
0.0535523
2.08632
0.882833
0.336069
0.0203578
0.0208976
0.0234415
0.0199047
0.104329
0.0311695
0.0202104
2.92486
0.478615
1.32241
0.036347
0.0598516
0.0399064
0.021376
0.952295
0.119451
0.0222863
1.8962
1.96375
0.0215413
0.159741
0.596649
0.342454
0.120787
0.0629092
0.049973
0.0206716
0.0198648
0.0560644
0.364719
0.849123
0.0229398
0.0210993
1.44571
0.0299132
0.0230085
0.0198213
2.20747
0.0202616
0.0240212
0.0265351
0.0212878
0.0327005
2.88491
0.0208145