/*--------------------------------*- C++ -*----------------------------------*\
| =========                 |                                                 |
| \\      /  F ield         | OpenFOAM: The Open Source CFD Toolbox           |
|  \\    /   O peration     | Version:  v2012                                 |
|   \\  /    A nd           | Website:  www.openfoam.com                      |
|    \\/     M anipulation  |                                                 |
\*---------------------------------------------------------------------------*/
FoamFile
{
    version     2.0;
    format      ascii;
    class       surfaceVectorField;
    location    "800";
    object      Uf_0;
}
// * * * * * * * * * * * * * * * * * * * * * * * * * * * * * * * * * * * * * //

dimensions      [0 1 -1 0 0 0 0];


internalField   nonuniform List<vector> 
27274
(
(1.09563 0.0833981 2.66028e-22)
(1.09254 0.0815124 -1.13097e-20)
(1.0924 0.085465 4.39561e-21)
(0.161829 -0.0351945 1.5397e-20)
(0.167065 -0.0408248 0)
(0.142732 -0.030252 -4.02046e-21)
(1.00312 0.021561 -3.21703e-22)
(1.00289 0.0209474 7.40585e-22)
(1.00349 0.0211538 -4.57253e-22)
(1.01448 0.005182 0)
(1.01485 0.00524488 0)
(1.01476 0.00554254 0)
(1.04376 -0.00228718 0)
(1.04389 -0.00153859 0)
(1.04473 -0.00223291 7.40073e-21)
(1.1195 -0.0713785 1.04765e-20)
(1.12213 -0.0693976 8.34465e-21)
(1.12273 -0.0734524 -2.0686e-20)
(1.00364 0.00722054 6.38637e-22)
(1.00342 0.00698107 5.89554e-22)
(1.00361 0.00694356 0)
(1.15445 0.0261868 -5.53554e-20)
(1.15657 0.0228733 2.68256e-20)
(1.15258 0.0230854 -3.81177e-20)
(0.940573 -0.00917217 1.50214e-21)
(0.938134 -0.00994757 -1.47866e-20)
(-0.00809555 -0.0291871 1.19041e-20)
(-0.0225486 -0.024187 -3.20922e-20)
(-0.00282338 -0.0279023 0)
(1.02225 0.000888751 -5.58156e-22)
(1.02246 0.00116203 -5.50336e-22)
(1.02198 0.00107487 1.70767e-21)
(-0.22287 0.00140687 -1.27952e-20)
(-0.227582 0.000867279 1.68677e-20)
(-0.249769 0.00253368 7.02525e-21)
(1.19521 0.0200103 3.98254e-20)
(1.19742 0.0179083 1.83611e-20)
(1.19875 0.021635 8.85352e-21)
(0.986973 0.00472203 8.8438e-22)
(0.987228 0.00533942 9.28168e-22)
(0.98764 0.00467802 -3.69106e-21)
(1.02397 0.0354383 4.42315e-22)
(1.0248 0.0346766 -8.00974e-22)
(1.02353 0.034248 -1.74622e-21)
(0.986924 0.0680813 -1.58221e-21)
(0.985279 0.0697863 2.12883e-21)
(0.98456 0.0673214 0)
(-0.253395 0.0112462 9.99729e-21)
(-0.229526 0.0126556 -3.26884e-20)
(-0.244741 0.0107286 6.35019e-20)
(1.01478 0.0101022 -1.57465e-21)
(1.01521 0.0104186 1.84912e-21)
(1.01461 0.0104062 -7.84659e-22)
(1.00319 0.0342146 0)
(1.0037 0.035179 -2.11328e-22)
(1.00433 0.0342081 0)
(0.712817 -0.185374 1.31806e-20)
(0.72915 -0.184909 1.18835e-20)
(0.679764 -0.17786 -4.87742e-21)
(0.966995 0.0840399 -6.32443e-22)
(0.966981 0.0869222 -2.60887e-21)
(0.964047 0.0845493 -5.22258e-22)
(0.975107 0.0316014 2.49834e-23)
(0.974016 0.0305291 -4.30767e-22)
(0.973649 0.0321156 -8.29046e-21)
(0.0257257 -0.0283169 7.45475e-21)
(0.0649521 -0.0309354 -7.2993e-20)
(0.0464642 -0.0309361 -3.79103e-20)
(1.04363 -0.00294456 0)
(1.04297 -0.00229747 -6.15411e-22)
(1.0536 -0.0139223 4.80403e-21)
(1.05392 -0.0150966 -8.14056e-21)
(0.999161 0.00281136 2.87035e-22)
(0.999251 0.00287033 -3.65313e-21)
(0.999265 0.00268711 3.70702e-21)
(0.996394 -0.00139125 0)
(0.996205 -0.00120663 -2.88241e-21)
(0.94407 0.00316028 -1.84077e-21)
(0.942079 0.00332634 -2.41454e-22)
(0.943189 0.00125067 -1.56283e-21)
(-0.0352534 -0.0319254 1.22839e-20)
(-0.0213694 -0.07784 -3.47418e-20)
(-0.011991 -0.0555336 -1.19227e-20)
(0.993382 0.02282 -6.03018e-22)
(0.992549 0.0229369 5.76962e-21)
(0.993123 0.0238121 7.19292e-21)
(1.03665 -0.003536 0)
(1.03721 -0.00313271 -7.61114e-21)
(1.03733 -0.00378753 0)
(1.05054 -0.00489788 3.11853e-21)
(1.04973 -0.00512358 8.08071e-21)
(1.05051 -0.00593186 -6.15474e-21)
(1.01436 0.00978061 -3.31624e-22)
(1.0149 0.00978252 0)
(1.00923 0.000505731 -3.34662e-23)
(1.00946 0.000565607 2.49619e-22)
(1.00983 0.000688503 7.23606e-23)
(1.12559 0.131172 0)
(1.12926 0.135624 -1.54734e-20)
(1.13143 0.13048 1.10755e-20)
(1.09855 0.0822387 7.68473e-21)
(1.09825 0.0860387 4.64739e-21)
(0.956865 -0.00618633 -8.50845e-21)
(0.955132 -0.0053312 1.0803e-20)
(1.17354 0.263242 3.80505e-20)
(1.16473 0.267583 -2.36862e-20)
(1.16644 0.257122 -2.55837e-20)
(0.946082 0.00357207 5.59358e-23)
(0.944452 0.00549659 -1.73979e-21)
(1.02268 0.0014001 -4.30598e-22)
(1.02255 0.00167088 1.53918e-21)
(1.02302 0.00165075 -5.21361e-22)
(0.986644 0.00424429 6.27358e-21)
(0.986345 0.00488165 3.72294e-21)
(0.932102 0.310756 8.51757e-22)
(0.940893 0.318995 6.19332e-21)
(0.944168 0.305323 4.90309e-21)
(1.00334 0.0221719 3.16388e-23)
(1.00273 0.0219379 1.46482e-22)
(-0.119791 -0.0120305 -2.81966e-20)
(-0.100632 -0.017564 -2.44579e-20)
(-0.117856 -0.0111966 2.04169e-20)
(1.01508 -1.43829e-06 -2.91542e-21)
(1.01527 -2.77839e-06 -2.98584e-22)
(1.01425 0.000145119 -1.0603e-21)
(1.18083 0.259783 4.0265e-20)
(1.1796 0.270028 4.4979e-20)
(1.14014 0.078372 -9.90261e-21)
(1.14214 0.0757741 -1.45692e-20)
(1.14415 0.0796591 -1.3149e-20)
(0.935252 0.0239779 -3.04036e-21)
(0.933434 0.0220971 -2.56836e-21)
(0.936298 0.0212414 -6.78706e-21)
(1.13193 0.0772576 1.29909e-20)
(1.12943 0.0805398 -1.98555e-20)
(1.12781 0.0765853 -2.04287e-20)
(1.01408 0.0112328 6.09989e-22)
(1.0145 0.0115097 1.60063e-21)
(1.01428 0.0109863 -3.74866e-21)
(1.01958 0.00319296 1.22833e-21)
(1.01938 0.00294214 0)
(1.01978 0.00296516 -1.09641e-21)
(1.01592 0.0213991 -3.60231e-22)
(1.01596 0.0220298 -2.71163e-22)
(1.01532 0.0215245 -1.03578e-21)
(0.999994 0.000647174 -1.97315e-21)
(0.999972 0.000633356 1.6713e-21)
(0.999994 0.000416438 -1.75197e-21)
(0.28573 -0.0967225 1.26945e-20)
(0.309947 -0.101931 2.51775e-20)
(0.33433 -0.106847 1.34555e-20)
(1.00017 0.00502321 -1.03596e-21)
(1.00026 0.00514623 0)
(1.00022 0.00488272 0)
(1.00159 0.000296578 -5.11134e-23)
(1.0017 0.000296623 -4.27172e-23)
(1.00156 0.000172401 -4.88928e-22)
(1.03914 -0.0986227 -4.45241e-21)
(1.04176 -0.10127 4.93422e-21)
(1.03748 -0.102382 1.91631e-21)
(1.02324 0.0358801 -3.61357e-22)
(1.02438 0.0361684 -4.65813e-22)
(0.113168 0.431344 0)
(0.0993934 0.476976 0)
(0.145401 0.454361 0)
(1.21168 0.145391 -2.22245e-20)
(1.20993 0.140407 2.50131e-20)
(1.20528 0.144337 0)
(1.0137 0.01093 -1.59708e-23)
(1.01381 0.0115294 0)
(1.13751 -0.0345679 6.9428e-21)
(1.13917 -0.0315343 0)
(1.13524 -0.0313971 -1.66166e-20)
(1.01578 0.00948341 1.77216e-21)
(1.01571 0.00985818 -3.45423e-22)
(1.01619 0.00983478 4.47752e-22)
(1.01023 0.194944 0)
(1.00953 0.188284 1.48572e-22)
(1.01582 0.190751 -3.159e-21)
(-0.20028 -0.000397452 0)
(-0.220712 0.00110715 -3.95224e-20)
(1.08941 0.0798399 -1.0267e-20)
(1.09234 0.0779779 1.12168e-20)
(0.044189 0.166324 2.05994e-20)
(0.0702442 0.134375 1.89945e-20)
(0.046885 0.155453 -3.96949e-21)
(0.860034 0.0500408 -6.58694e-22)
(0.854643 0.0529535 -1.80968e-20)
(0.85502 0.0450822 3.15997e-20)
(0.996631 -0.00121886 -1.44661e-22)
(0.976322 0.0326602 -4.20885e-21)
(0.976594 0.0311258 -4.38207e-21)
(1.15395 0.106199 0)
(1.15683 0.102041 0)
(1.15205 0.102557 1.35904e-20)
(1.00008 0.000511798 0)
(1.00006 0.000440657 -5.44168e-22)
(1.00007 0.000415958 -8.0662e-22)
(1.2134 0.150569 7.79605e-21)
(1.21769 0.145022 -1.87088e-20)
(1.01114 0.0109352 -3.71249e-24)
(1.01076 0.0107774 -5.90739e-23)
(1.01093 0.011196 -3.14105e-23)
(1.15222 0.0296932 -6.97178e-21)
(1.15651 0.0296484 -1.43035e-20)
(1.00373 0.00745938 9.49624e-23)
(1.00387 0.00741842 -5.65768e-22)
(0.727524 -0.164428 -2.4729e-20)
(0.761516 -0.166856 2.00566e-22)
(0.694349 -0.157784 1.08537e-20)
(1.05056 -0.0031641 -2.03397e-22)
(1.05082 -0.00229152 2.2485e-21)
(1.05162 -0.00335194 -1.7182e-21)
(1.06086 -0.0184876 -4.11379e-21)
(1.06124 -0.0195332 -2.42824e-21)
(1.06205 -0.0187639 2.51486e-21)
(1.01552 0.0193119 -3.5411e-22)
(1.01534 0.018663 -1.5486e-21)
(1.01489 0.018923 -6.23181e-22)
(1.00321 0.00667106 -9.53757e-23)
(1.00319 0.00694807 9.65963e-22)
(1.22829 0.33982 2.35116e-21)
(1.23358 0.345404 -3.21804e-20)
(1.22374 0.350803 -8.30824e-20)
(0.967048 0.0806154 0)
(0.970309 0.082917 0)
(1.05596 0.179523 7.24786e-21)
(1.05885 0.184968 -2.82084e-21)
(1.06157 0.178776 9.73822e-21)
(0.999077 0.00277885 9.5317e-22)
(0.999075 0.0029701 -4.32752e-21)
(1.19313 0.0231259 -4.53527e-20)
(1.19155 0.0192615 0)
(0.427132 -0.0653922 5.50359e-20)
(0.443323 -0.0795036 -1.6277e-20)
(0.431924 -0.0721474 2.24016e-20)
(0.685655 -0.18464 0)
(0.744138 -0.19213 -5.35026e-21)
(-0.0476537 -0.00948398 2.65502e-20)
(-0.0432558 0.0175309 2.31084e-20)
(0.263323 -0.0882908 7.55279e-21)
(0.213192 -0.0788048 5.31587e-21)
(0.243431 -0.0839054 3.12172e-20)
(1.22262 -0.129925 8.58145e-21)
(1.21597 -0.130847 -6.9327e-20)
(1.21695 -0.123889 -1.43521e-20)
(1.01489 -2.45499e-05 8.94564e-22)
(1.01546 7.36123e-05 -1.8385e-21)
(0.999802 0.00445586 3.53613e-21)
(0.99976 0.00427229 1.38467e-21)
(0.999843 0.00425127 2.85093e-21)
(1.01879 0.000841839 -8.47238e-22)
(1.01909 0.000912304 0)
(1.01891 0.000704925 0)
(-0.0145524 0.0806758 -6.1953e-22)
(-0.0175607 0.0940429 -4.91927e-21)
(0.0066349 -0.0249538 8.1465e-20)
(-0.0097405 -0.0245517 8.31077e-20)
(1.0242 0.0164273 0)
(1.02454 0.0159671 -2.57113e-21)
(1.02489 0.0167268 3.27406e-21)
(1.06945 0.00143166 0)
(1.06995 0.00271647 -1.02066e-20)
(1.07105 0.001045 8.60795e-21)
(0.26313 -0.0928809 0)
(0.241998 -0.0892643 0)
(-0.197676 0.0142562 1.99901e-20)
(-0.188417 0.0135089 0)
(-0.173641 0.0179855 0)
(-0.0281499 0.160624 3.92672e-21)
(-0.0254202 0.171138 2.44969e-20)
(-0.0189857 0.1937 0)
(-0.208981 0.0116937 0)
(-0.218756 0.0105983 -1.27135e-20)
(-0.195304 0.0143479 0)
(1.08987 0.140629 -1.79951e-20)
(1.09606 0.139869 -5.44288e-21)
(1.09111 0.135641 -1.20264e-20)
(1.15266 -0.158733 0)
(1.12712 -0.161306 -2.14476e-20)
(1.18148 -0.162841 -1.9488e-20)
(1.04379 -0.00667002 3.38603e-21)
(1.0439 -0.00599794 5.40872e-21)
(1.04462 -0.00663024 -6.68407e-22)
(1.17422 -0.051036 -4.05872e-20)
(1.17338 -0.05511 -6.20594e-20)
(1.17794 -0.0534076 7.26688e-21)
(-0.270425 0.00196213 -1.88661e-20)
(-0.271448 0.00130387 -3.38944e-20)
(-0.298745 0.00188826 -8.39537e-20)
(1.11717 0.305497 2.83045e-20)
(1.11134 0.297866 1.92112e-20)
(1.12194 0.29516 -8.49414e-21)
(1.09877 0.0267046 6.84227e-21)
(1.10062 0.0280297 -2.85787e-21)
(1.10098 0.0252699 1.21637e-20)
(0.493168 -0.294859 -3.62001e-20)
(0.468686 -0.320201 -1.1125e-20)
(0.997202 0.0223149 -4.92332e-21)
(0.99778 0.022677 -5.65701e-22)
(0.997163 0.0231496 -1.9961e-21)
(0.949894 0.0143055 -4.41689e-21)
(0.95194 0.0140425 -8.6584e-21)
(0.951201 0.0161964 1.1964e-21)
(0.999026 0.00209171 -2.26126e-21)
(0.999002 0.0022475 6.47983e-22)
(0.998899 0.00216277 5.40423e-22)
(0.94836 0.0128078 0)
(0.947738 0.015017 1.26608e-20)
(0.359873 -0.101817 0)
(0.320743 -0.0901202 0)
(0.340007 -0.0978461 1.14742e-20)
(1.00261 0.00072028 1.68006e-22)
(1.00279 0.000792037 -3.08388e-22)
(1.00264 0.000938343 -3.61407e-22)
(0.0736989 -0.293255 3.01307e-20)
(0.0641466 -0.326533 -1.30196e-19)
(0.0497966 -0.317579 -1.06224e-19)
(0.758482 -0.170537 -5.48307e-20)
(0.695492 -0.162261 1.89295e-20)
(0.0795856 0.326724 0)
(0.0715436 0.354137 0)
(0.0518674 0.351724 0)
(1.08447 0.141928 1.09965e-21)
(1.08937 0.146721 -1.57951e-20)
(0.00815234 -0.0345335 -2.83574e-20)
(-0.0131072 -0.0301064 -5.10117e-20)
(1.33095 0.131658 5.83088e-21)
(1.33048 0.127373 0)
(1.33429 0.135507 0)
(1.05056 -0.00408839 7.26454e-22)
(1.04968 -0.00318715 2.71337e-21)
(1.15152 0.10862 0)
(1.15573 0.108792 0)
(1.02356 0.0161063 -1.04907e-21)
(1.02384 0.0168865 0)
(1.11294 0.314698 0)
(1.12358 0.312141 0)
(1.01581 0.0206269 0)
(1.0166 0.0211193 0)
(1.00001 0.00108667 -1.51382e-21)
(1.00001 0.00112948 4.99525e-22)
(0.999999 0.000874715 4.09931e-22)
(1.3518 0.245852 -4.55424e-20)
(1.34334 0.245207 -4.80478e-20)
(1.31455 0.224837 -1.88069e-20)
(1.01864 0.00102423 -8.34771e-22)
(1.01848 0.00075385 -7.29504e-22)
(1.01937 0.0033818 3.4055e-21)
(1.01977 0.00340056 2.49896e-21)
(1.14789 -0.0697303 -4.07315e-20)
(1.15983 -0.0655022 8.97816e-21)
(1.08489 -0.0654833 -1.1798e-19)
(1.1278 -0.00762179 -5.94608e-22)
(1.12511 -0.00874098 2.79103e-20)
(1.12565 -0.00599408 -5.50767e-21)
(1.06921 -0.000152955 -1.43169e-20)
(1.06796 0.00149444 -5.3499e-21)
(0.909456 0.189354 1.54865e-20)
(0.90777 0.180982 8.56168e-21)
(0.915794 0.183899 -2.04161e-20)
(1.00002 0.00108288 1.4987e-21)
(0.999999 0.00130564 -1.91049e-21)
(1.0206 0.0280328 0)
(1.02097 0.0275508 0)
(1.02157 0.0280373 0)
(1.02212 0.000637569 -2.39627e-23)
(1.02248 0.000668554 -2.03513e-21)
(0.992006 0.0136586 4.84932e-22)
(0.991295 0.0136546 7.70197e-22)
(0.991537 0.0145048 -1.40583e-21)
(1.15545 0.173791 1.03012e-21)
(1.14913 0.175839 4.18714e-20)
(1.15037 0.169722 -5.74328e-21)
(-0.0364839 0.13646 7.35197e-22)
(-0.0279092 0.151654 3.99661e-21)
(-0.0706417 0.0264045 1.52309e-20)
(-0.0657996 0.0413206 -2.52338e-20)
(-0.0710767 0.0224747 -1.30813e-20)
(0.997359 0.0449939 -4.58237e-22)
(0.996113 0.0460981 4.80053e-21)
(0.998135 0.0464615 3.12957e-22)
(0.997191 0.0216784 6.07965e-22)
(0.996616 0.0221013 -2.63373e-21)
(0.392784 0.0164813 -4.68919e-20)
(0.365618 0.0176039 0)
(0.379712 0.0426649 0)
(0.974141 0.0289451 6.45851e-21)
(0.973941 0.0274697 8.21088e-21)
(0.975271 0.0281836 1.51315e-22)
(0.912045 -0.000942135 -1.21427e-21)
(0.909864 0.00193265 1.99346e-21)
(0.908279 -0.001791 -2.66595e-20)
(0.425822 -0.078957 -8.4295e-21)
(0.443124 -0.0868026 1.17254e-20)
(0.417711 -0.0703582 -1.71251e-20)
(1.05933 0.0122931 6.65739e-22)
(1.05991 0.0113653 -7.39184e-21)
(1.06067 0.0126506 -3.36841e-21)
(0.43296 -0.0926715 -7.79268e-21)
(0.382705 -0.0628973 4.15676e-21)
(1.0429 0.00350884 1.1358e-21)
(1.0439 0.0035451 6.56869e-22)
(1.04328 0.00280395 -2.4686e-21)
(0.972906 0.0295377 5.70149e-21)
(1.12369 0.128094 1.92173e-20)
(1.12194 0.131754 0)
(0.132882 0.388241 0)
(0.0847474 0.386349 0)
(1.08103 -0.0803015 -1.3038e-21)
(1.0843 -0.0807165 -1.92905e-20)
(1.08188 -0.0836605 -1.7298e-20)
(1.00004 0.000490546 1.10923e-21)
(1.00004 0.000595805 -9.3974e-22)
(1.00001 0.000409767 0)
(1.13822 -0.0742654 6.97047e-21)
(1.19715 -0.0754829 -3.19443e-20)
(0.0996629 0.308768 -2.65767e-20)
(0.0707004 0.298993 9.05181e-20)
(1.00005 0.000565929 -4.61162e-23)
(1.00004 0.000415324 1.45883e-21)
(1.14661 -0.0304934 -1.65506e-20)
(1.14297 -0.0315376 0)
(1.146 -0.0341062 -1.03239e-20)
(1.00973 0.100757 6.10746e-22)
(1.00688 0.101984 3.46677e-22)
(1.0104 0.103823 1.06607e-22)
(1.04801 0.0640691 0)
(1.04912 0.0619676 0)
(1.0466 0.0621776 4.3454e-21)
(0.908355 0.0884348 -1.20915e-20)
(0.903323 0.0889148 -3.99019e-21)
(0.907629 0.0935968 4.79846e-21)
(1.06902 -0.00138088 -8.9024e-21)
(1.07046 -0.00153257 -1.63626e-21)
(1.0703 -0.154659 0)
(1.0664 -0.152478 0)
(1.07086 -0.150488 0)
(0.498211 0.699397 -1.44484e-20)
(0.523784 0.657095 2.56811e-22)
(0.467624 0.647954 -1.62697e-20)
(0.150139 0.0378906 -8.32591e-21)
(0.200011 0.043462 -4.98564e-20)
(0.261061 0.054766 -2.2906e-20)
(1.11906 0.0915719 3.37109e-21)
(1.12257 0.0886247 -1.06643e-20)
(1.11751 0.0874226 1.38814e-20)
(1.24666 0.0150167 -7.96643e-20)
(1.24964 0.0183218 8.66359e-21)
(1.24438 0.0183507 -5.33467e-20)
(1.01284 0.010859 4.90818e-22)
(1.01325 0.0108393 7.8153e-22)
(1.01313 0.0112402 1.56864e-21)
(-0.072012 -0.172616 -3.84766e-22)
(-0.0741982 -0.175966 1.28969e-20)
(-0.0760626 -0.162109 -1.87651e-20)
(-0.0166564 -0.0225774 5.90059e-20)
(-0.0404619 -0.0197002 1.93024e-20)
(-0.0505773 -0.0190285 -2.69561e-21)
(1.02138 0.00164949 0)
(1.02093 0.00171177 -8.93018e-22)
(1.021 0.00137873 0)
(1.02175 0.00168791 -4.83687e-22)
(1.02217 0.00166714 -2.33624e-22)
(1.02179 0.0013666 -1.05842e-22)
(0.9886 0.0663573 1.45983e-21)
(0.989444 0.0686713 -4.88972e-23)
(0.251075 -0.0280592 -2.76135e-20)
(0.239808 -0.0207726 6.97368e-21)
(0.228077 -0.0191459 -4.59827e-20)
(1.05769 -0.0593191 5.42998e-21)
(1.0601 -0.0598565 0)
(1.05927 -0.0572549 0)
(1.00009 0.00442383 -3.07527e-22)
(1.00016 0.004479 0)
(1.00011 0.00468151 0)
(1.34709 0.234479 -8.68011e-21)
(1.33434 0.241265 4.93924e-20)
(0.296562 0.149033 -7.2431e-20)
(0.58034 0.269323 0)
(0.428174 0.192955 3.29786e-20)
(0.657563 -0.11985 -3.65784e-22)
(0.67264 -0.128049 9.74361e-25)
(0.673688 -0.111068 -8.26663e-22)
(1.24449 0.0118393 -5.58462e-20)
(1.24917 0.011891 -2.24539e-20)
(1.0811 0.00881217 2.49904e-21)
(1.08141 0.0104856 -2.74828e-20)
(1.08308 0.00869746 -2.32064e-20)
(1.00493 0.0066356 -2.40393e-23)
(1.00517 0.0067943 -3.73318e-22)
(1.00508 0.00647786 -4.32654e-22)
(1.10226 -0.161283 2.08811e-22)
(1.1054 -0.158898 0)
(1.10672 -0.163476 -1.06429e-20)
(0.264608 -0.0206286 1.13729e-20)
(0.285178 -0.027513 1.01953e-20)
(0.285204 -0.0331048 1.23255e-20)
(0.154295 -0.0618228 4.23627e-20)
(0.184843 -0.0652994 0)
(0.203615 -0.0658804 -3.06686e-20)
(1.21256 -0.100191 -8.27541e-20)
(1.20724 -0.101668 -5.90406e-20)
(1.20862 -0.0965184 -2.52279e-20)
(0.938759 0.000765489 1.92658e-20)
(0.939857 0.00325457 7.21144e-21)
(0.936541 0.00314508 1.41651e-20)
(-0.259835 0.0102701 4.33468e-20)
(-0.272701 0.00991266 6.44427e-20)
(1.03989 -0.0954829 3.3024e-22)
(1.00357 0.0228683 -1.0386e-21)
(1.0031 0.0232256 -9.08975e-22)
(1.00375 0.0234839 -1.18341e-21)
(1.0688 -0.00272475 1.02983e-20)
(1.06769 -0.00129977 4.92195e-21)
(1.13471 -0.177432 -3.21882e-20)
(1.08137 -0.173623 2.41533e-20)
(1.10542 -0.178171 -3.37458e-20)
(0.893908 0.209958 1.06779e-20)
(0.892612 0.200734 1.35807e-20)
(0.883251 0.205594 1.86877e-20)
(0.976534 0.0340048 -4.34385e-21)
(0.975232 0.0351101 7.02095e-21)
(0.977158 0.0356982 0)
(1.2518 0.0166531 -4.3492e-20)
(1.2027 0.00891803 1.00155e-20)
(1.26999 0.0173328 -1.31175e-20)
(1.08108 0.00681436 1.20653e-20)
(1.07932 0.00860397 1.5275e-21)
(1.10596 -0.00872629 -1.26021e-20)
(1.10676 -0.00657823 -1.76996e-20)
(1.10846 -0.0091057 1.0987e-20)
(1.02167 0.00195346 0)
(1.05208 0.0185551 -4.10344e-22)
(1.05159 0.0175105 8.27917e-22)
(1.05288 0.0177893 4.63173e-21)
(0.942844 0.0415808 -1.80018e-21)
(0.939932 0.0410588 -1.57759e-21)
(0.941405 0.0444543 -1.04718e-20)
(0.20755 0.0883152 2.79166e-20)
(0.135525 0.0630135 6.91226e-20)
(0.084016 0.0500193 1.11583e-19)
(0.127006 -0.0551611 5.52295e-20)
(0.113773 -0.0539324 6.38346e-21)
(-0.266693 0.0042583 -3.6138e-20)
(-0.295944 0.00375561 0)
(-0.258338 0.00247788 0)
(0.994281 0.115736 -5.23664e-22)
(0.991911 0.112441 1.11868e-22)
(0.996258 0.111108 2.33943e-23)
(0.104866 -0.282535 1.06487e-19)
(0.0815052 -0.25688 1.39475e-19)
(-0.0355873 -0.00197339 3.33276e-20)
(-0.0567797 -0.00207735 -3.31467e-20)
(-0.0689876 -7.29819e-05 -7.06486e-20)
(-0.0205613 -0.0021517 2.68963e-21)
(-0.0369463 -0.00370751 -3.08064e-21)
(-0.049369 -0.00390766 2.73378e-20)
(1.10518 -0.0113905 1.14828e-20)
(1.10334 -0.00889726 1.29038e-20)
(1.01995 0.0284879 2.09786e-21)
(1.02051 0.0292083 0)
(1.04212 0.00332464 -9.26499e-22)
(1.04256 0.00414337 1.58114e-21)
(0.664014 -0.185176 1.1153e-20)
(0.641999 -0.186112 2.50604e-20)
(0.692098 -0.192118 -1.9137e-21)
(0.996834 0.0436025 -6.25666e-21)
(0.998556 0.0442623 -5.67778e-21)
(1.0126 0.0103971 -3.14496e-22)
(1.01241 0.0107441 -1.75871e-22)
(1.23239 0.329555 5.59452e-20)
(1.2234 0.334229 5.06887e-20)
(1.01639 -0.21051 4.39081e-20)
(1.03045 -0.20852 1.88413e-20)
(1.0279 -0.207445 1.09788e-20)
(0.636877 -0.177971 0)
(0.999119 0.00203411 0)
(0.999038 0.00198003 0)
(1.05802 0.0118584 -7.08515e-21)
(1.05852 0.0133637 1.86761e-22)
(1.25977 0.241307 2.32254e-20)
(1.25487 0.240057 2.85873e-20)
(1.26023 0.233066 -2.28924e-20)
(0.992768 0.0149606 6.21951e-21)
(0.993341 0.0150722 6.2765e-22)
(0.992999 0.0157314 5.71371e-22)
(1.05378 0.173175 -4.56255e-21)
(1.04977 0.179252 -1.20648e-21)
(1.02165 0.0270092 0)
(1.02048 0.0267246 -5.14431e-23)
(0.0713888 0.0320767 4.95552e-20)
(0.116141 0.038712 -4.77603e-21)
(0.984742 0.0339897 0)
(0.984037 0.0327733 3.14082e-21)
(0.98329 0.0341895 2.85394e-21)
(-0.0805504 0.00210296 0)
(-0.0949308 0.000795064 -3.6452e-20)
(-0.109197 0.000489418 -3.9239e-20)
(0.32659 -0.0233178 -8.79748e-22)
(0.346417 -0.03797 -3.54057e-20)
(0.349067 -0.0324308 -5.06708e-20)
(0.55743 -0.00654451 5.17553e-21)
(0.537385 -0.00940542 0)
(0.547757 0.0113258 9.39347e-20)
(1.01918 0.0291053 1.88786e-21)
(1.01915 0.0278688 1.42168e-22)
(1 0.000644481 5.08619e-22)
(0.999973 0.000836006 -1.86439e-21)
(1.06046 -0.0174739 -2.51715e-21)
(1.05971 -0.0181709 -2.77911e-21)
(1.02755 0.0890026 2.16254e-21)
(1.02798 0.0918622 2.21761e-21)
(1.03075 0.0898354 -5.51595e-22)
(-0.063321 0.00228157 3.3571e-20)
(-0.0447567 0.00151286 0)
(1.01339 0.0546987 -8.07776e-23)
(1.01282 0.0562089 -1.42381e-22)
(1.01485 0.0560218 -4.33315e-22)
(0.999298 0.00323919 1.78204e-21)
(0.999383 0.00326763 -6.6144e-21)
(0.99938 0.00309257 -3.65365e-21)
(1.00003 0.00441572 -2.30888e-21)
(1.00007 0.00423841 7.88229e-22)
(1.14209 0.307261 -5.39877e-21)
(1.14801 0.314544 -4.46472e-20)
(1.15252 0.304374 1.22136e-20)
(1.21021 -0.176937 -2.23727e-20)
(1.2029 -0.176693 0)
(1.20886 -0.18431 3.13025e-20)
(-0.268992 0.00732753 1.66163e-20)
(1.09676 0.02468 1.28532e-20)
(1.09614 0.0273792 -5.12246e-22)
(1.25059 0.0253058 1.9672e-20)
(1.24831 0.0300548 1.84272e-20)
(1.24523 0.0266082 4.24606e-21)
(1.03786 -0.00483555 7.34432e-21)
(1.03743 -0.00422489 0)
(1.01192 0.0112692 0)
(1.01217 0.0110172 6.94919e-22)
(1.0124 0.0114624 1.24865e-22)
(0.980257 0.0343584 1.55859e-21)
(0.981171 0.0328975 3.43358e-21)
(0.981793 0.0343237 4.50114e-21)
(0.30593 -0.0189819 1.69879e-21)
(0.301662 -0.0109476 1.62458e-20)
(1.29687 0.114044 1.35874e-20)
(1.26262 0.106621 6.97327e-20)
(1.2322 0.106481 -2.29121e-20)
(0.0619445 -0.0959167 5.60067e-20)
(0.081032 -0.115508 1.68402e-19)
(0.0601253 -0.128019 -9.29204e-20)
(1.07757 -0.0797471 2.1325e-20)
(1.07973 -0.0770658 2.816e-20)
(1.00973 0.09743 5.73318e-22)
(1.01331 0.0994854 -8.04954e-22)
(1.05235 0.0195247 -1.92548e-21)
(1.051 0.0191499 -8.02828e-21)
(0.230221 0.772676 -2.40055e-20)
(0.179938 0.854537 -1.91866e-20)
(0.296337 0.840552 -1.63859e-20)
(1.08107 0.00520604 -7.4299e-21)
(1.08289 0.00528404 -3.49996e-21)
(-0.00185705 -0.00366263 7.20935e-21)
(0.015589 -0.00415082 4.62337e-20)
(0.989394 0.0328596 -3.07349e-21)
(0.988548 0.0335399 -3.85878e-21)
(0.989735 0.0340748 5.61809e-21)
(-0.191726 0.00674949 -6.07202e-20)
(-0.207333 0.00700927 -4.03104e-20)
(-0.17931 0.00745462 -3.93473e-20)
(0.934099 -0.215354 -2.35952e-20)
(0.909274 -0.216555 -1.64652e-20)
(0.950819 -0.214772 -6.41607e-21)
(1.1466 -0.0264876 -1.40834e-20)
(1.14971 -0.0292211 1.17707e-20)
(0.998779 0.0271241 -2.57943e-21)
(0.99806 0.0274407 3.23418e-21)
(0.998192 0.0265466 -1.72061e-22)
(1.00575 0.000473925 0)
(1.00605 0.000477322 0)
(1.00528 0.00024856 0)
(1.08655 0.081681 1.19139e-21)
(1.08669 0.0780899 9.48472e-21)
(1.16114 0.101341 0)
(1.16542 0.100294 0)
(1.16456 0.104793 0)
(0.300203 0.113595 -1.00113e-19)
(0.38309 0.12998 -1.73162e-20)
(1.12986 -0.00932749 -1.34579e-20)
(1.1304 -0.00637693 -3.3511e-20)
(1.00795 0.00614649 -2.61403e-22)
(1.00779 0.00633728 4.62703e-22)
(1.00815 0.00646734 -1.02364e-23)
(1.01235 0.0100199 -3.91234e-22)
(1.01196 0.00989541 -9.47539e-22)
(1.01214 0.0096377 -1.43052e-21)
(0.999981 0.000812967 0)
(0.999989 0.000674078 0)
(0.999976 0.000932229 -1.39345e-21)
(1.25243 0.0215821 5.79263e-20)
(1.25472 0.0178347 4.19501e-20)
(1.08127 0.255999 8.4595e-21)
(1.08289 0.261866 6.52301e-21)
(1.07496 0.259198 -8.53286e-21)
(0.596753 -0.0386373 -3.38533e-20)
(0.576649 -0.0438025 4.23859e-20)
(0.590866 -0.0591551 -1.68267e-21)
(0.980812 0.050121 1.10526e-21)
(0.980898 0.0522083 6.01399e-21)
(0.982748 0.0508884 7.73778e-21)
(0.374896 -0.0994613 4.53128e-20)
(0.391976 -0.090169 -1.36804e-20)
(0.294108 -0.0467472 2.84589e-20)
(1.21768 -0.099669 1.89069e-20)
(1.21519 -0.105443 1.25375e-20)
(1.17472 -0.0470882 -2.7219e-20)
(1.17092 -0.0495164 -4.46111e-22)
(1.03629 0.0299887 -1.44704e-22)
(1.03623 0.028935 8.52858e-24)
(1.03742 0.0295652 -1.47553e-22)
(1.22891 0.0184282 3.87981e-20)
(1.28816 0.0211323 -6.31747e-20)
(1.01566 0.0199942 0)
(1.01618 0.0197289 -8.8014e-22)
(0.995692 0.00920757 4.17656e-21)
(0.995344 0.0094017 2.77129e-21)
(0.995679 0.00973029 -1.10381e-21)
(1.05156 0.825584 1.16971e-19)
(1.04349 0.777177 -2.8811e-22)
(1.0987 0.798769 7.23127e-20)
(1.00836 0.000640028 8.33327e-22)
(1.00865 0.000810081 5.05773e-24)
(1.00841 0.000508034 4.14857e-22)
(1.00385 0.00780671 -1.3529e-22)
(1.00362 0.00757558 -4.79506e-22)
(1.18118 -0.0414954 -3.21855e-22)
(1.17757 -0.043698 -1.31751e-20)
(1.18136 -0.0474938 -1.29793e-21)
(1.00259 0.0156662 0)
(1.00238 0.0160164 -1.41011e-21)
(1.00284 0.0161684 5.4903e-22)
(-0.0386915 0.0375913 -5.97447e-21)
(-0.0305858 0.0520578 1.36541e-20)
(-0.0277227 0.0435486 0)
(1.08105 0.0035182 -5.59046e-21)
(1.07951 0.0050338 4.95922e-22)
(0.927801 0.0130154 8.56388e-21)
(0.925107 0.0144959 -4.16247e-21)
(0.925707 0.0109846 -1.08081e-22)
(1.00801 0.000420949 -7.59018e-22)
(1.00819 0.000856542 5.85617e-22)
(1.1163 0.0936485 -1.43459e-20)
(1.12075 0.0945248 -1.88132e-20)
(-0.198761 0.000481601 4.49129e-20)
(-0.225797 0.000696004 -9.56936e-21)
(-0.215845 0.000243101 4.9958e-20)
(1.05145 -0.00488802 -4.40197e-21)
(1.01423 0.00492301 1.25426e-21)
(1.01414 0.00519603 0)
(0.989585 -0.00057006 -3.71977e-22)
(0.989065 -0.000280131 -1.08848e-20)
(0.989661 -5.19623e-05 1.94087e-21)
(1.16589 -0.0911089 2.74912e-20)
(1.16727 -0.0869855 3.59258e-21)
(1.16238 -0.0883503 -4.82687e-20)
(0.170791 -0.0650471 -6.52074e-21)
(0.162282 -0.0651135 2.43197e-20)
(0.142984 -0.0552525 -4.13102e-20)
(1 0.000752918 0)
(0.999983 0.00103572 -2.48977e-21)
(1.00002 6.62486e-05 -1.72403e-22)
(1.00001 4.13525e-05 -1.73359e-22)
(1.00002 4.75198e-05 7.8724e-23)
(1.00019 -0.210991 -1.05759e-20)
(0.999546 -0.21133 2.07685e-20)
(1.10058 0.13952 3.93992e-20)
(1.10251 0.135398 1.81299e-20)
(1.10531 0.139716 1.18101e-20)
(1.07472 -0.0805598 4.72476e-21)
(1.07145 -0.0817006 -2.15279e-20)
(1.07444 -0.0836504 3.97905e-21)
(0.632583 0.377194 -2.77727e-20)
(0.651541 0.397186 -1.56081e-20)
(0.619162 0.401621 0)
(0.995725 0.00867759 -1.71993e-21)
(0.996015 0.00901866 3.72503e-22)
(1.15852 0.0980172 -2.05558e-20)
(0.962813 0.0249365 -1.06272e-21)
(0.964403 0.0259437 -3.00611e-21)
(0.962573 0.0272458 -9.65002e-21)
(1.00003 8.9551e-05 0)
(1.00004 9.20533e-05 -1.99973e-22)
(0.648644 0.353361 1.48048e-20)
(0.618461 0.353629 -2.92444e-20)
(1.07375 -0.157266 0)
(1.06882 -0.159298 0)
(1.01676 -0.173058 1.1643e-20)
(1.02208 -0.171027 -1.24548e-20)
(1.01682 -0.168329 1.37782e-20)
(1.16485 -0.0945461 2.93419e-20)
(1.16962 -0.0935859 2.24586e-20)
(1.01854 0.00121171 7.85387e-22)
(1.01884 0.0012612 -6.72207e-22)
(0.645547 -0.107752 3.6432e-20)
(0.642774 -0.125218 0)
(1.043 -0.00681922 0)
(1.04217 -0.00638055 0)
(1.00198 0.0340718 0)
(1.00277 0.0331495 -7.35346e-22)
(1.31959 0.12487 0)
(1.32756 0.122963 0)
(0.999873 0.0209097 -1.79989e-21)
(0.999333 0.0206448 8.23536e-22)
(0.999825 0.02019 -1.71645e-21)
(1.2556 0.0248516 0)
(0.92415 0.299852 -4.51856e-21)
(0.91778 0.313098 -1.24367e-20)
(0.999847 0.00462826 1.83946e-22)
(0.999746 0.00466086 0)
(1.01666 0.00368547 -9.4926e-24)
(1.01663 0.00344468 7.66693e-22)
(1.01693 0.00357873 -8.69347e-22)
(1.24675 0.0335617 -1.74656e-20)
(1.25124 0.032349 3.62702e-20)
(0.294927 -0.0182561 7.03635e-21)
(0.110164 0.0387597 1.81701e-20)
(0.343635 -0.023259 3.92858e-20)
(-0.0128738 -0.00278223 1.72769e-20)
(0.00222404 -0.00164252 3.11578e-20)
(1.01708 0.0393974 -1.51923e-22)
(1.01633 0.0403192 1.97793e-21)
(1.01603 0.0389247 1.2143e-21)
(0.91393 0.087983 -2.56871e-20)
(0.910193 0.0831733 1.4659e-20)
(-0.126517 -0.0121224 0)
(-0.148819 -0.00606302 0)
(1.02942 0.00207953 6.2797e-21)
(1.02978 0.00245842 4.91015e-21)
(1.02915 0.00246364 5.37966e-22)
(1.21042 -0.170899 -2.34459e-20)
(1.22016 -0.177822 8.69404e-21)
(1.05737 -0.0200315 -6.09356e-21)
(1.05818 -0.019485 7.93092e-21)
(1.05706 -0.0191623 -1.50791e-22)
(0.960913 0.143777 -5.54217e-21)
(0.955173 0.142439 -5.75691e-21)
(0.959211 0.138033 -5.9993e-21)
(1.21175 -0.164626 -3.28673e-20)
(1.20051 -0.164072 2.58792e-20)
(1.01838 0.00138223 3.1859e-21)
(1.01824 0.00113581 1.71199e-21)
(0.525167 0.754162 -5.24544e-21)
(0.454511 0.742745 -1.13295e-20)
(1.0007 0.0325367 -1.07758e-21)
(1.00142 0.031861 0)
(1.00048 0.0314756 2.03159e-21)
(0.90133 0.195479 6.98263e-21)
(0.910748 0.198539 -1.78245e-22)
(1.00106 0.000266697 1.19305e-22)
(1.00097 0.000215555 -5.5207e-22)
(1.00097 0.000339344 5.7967e-22)
(1.07492 -0.0778944 1.13376e-20)
(-0.196365 0.000867438 -8.00479e-21)
(-0.218665 0.000990921 -1.83148e-20)
(-0.197664 0.00114471 0)
(0.999957 0.000184847 -1.27865e-21)
(0.999949 0.00017097 -7.99478e-21)
(0.999927 0.000227254 2.94813e-21)
(0.0972863 0.0934046 3.52389e-20)
(0.187604 0.119454 -2.38639e-20)
(1.10978 0.028014 -5.01852e-21)
(1.11044 0.0255019 3.10687e-20)
(1.11289 0.0277171 1.72363e-20)
(0.995223 0.00163752 -2.14261e-21)
(0.994936 0.00163363 8.24431e-22)
(0.995014 0.00198728 -4.9008e-21)
(1.1361 0.077634 5.72062e-20)
(1.13784 0.0818296 2.11697e-20)
(1.13895 -0.0374155 1.48974e-20)
(1.13513 -0.0372085 6.11176e-21)
(1.09263 -0.147197 0)
(1.06321 -0.141615 0)
(1.13793 -0.147597 1.79444e-20)
(0.335521 -0.107684 0)
(0.370944 -0.112453 0)
(0.389385 -0.116158 9.20346e-21)
(1.16282 -0.174684 -1.05727e-20)
(1.18004 -0.179056 -3.37929e-20)
(0.990261 0.0323737 -4.03258e-21)
(0.989175 0.0318357 -5.45181e-21)
(1.01583 0.00929208 7.76596e-22)
(1.01546 0.00929164 6.66432e-22)
(0.015049 -0.0137118 -1.95312e-20)
(-0.0219287 -0.00982955 -1.58e-20)
(-0.00444285 -0.0124835 -1.39869e-20)
(0.705386 -0.0746151 -3.11188e-20)
(0.691668 -0.0763551 -2.81864e-20)
(0.702665 -0.0882421 -7.28766e-21)
(0.999561 0.00413645 2.36396e-21)
(0.999629 0.00394986 1.26368e-21)
(0.999552 0.00395545 5.00828e-21)
(1.01098 0.052431 8.73488e-24)
(1.01133 0.0510968 -4.53951e-24)
(1.00966 0.0512232 1.74854e-23)
(1.01784 -0.17819 -4.41683e-21)
(1.01219 -0.174414 8.33015e-21)
(1.09872 -0.160649 3.14389e-20)
(1.10004 -0.164898 1.29474e-20)
(0.234943 0.684593 1.358e-20)
(0.31227 0.714314 -4.1737e-21)
(0.0359579 -0.0163115 2.14061e-20)
(0.0567116 -0.0159277 2.46377e-21)
(0.997878 0.00264811 -1.19781e-21)
(0.997906 0.00278214 -4.50574e-21)
(0.997723 0.00284983 -9.52191e-21)
(1.05787 0.0206005 -4.05242e-21)
(1.05727 0.0217685 1.10664e-20)