/*--------------------------------*- C++ -*----------------------------------*\
| =========                 |                                                 |
| \\      /  F ield         | OpenFOAM: The Open Source CFD Toolbox           |
|  \\    /   O peration     | Version:  v2012                                 |
|   \\  /    A nd           | Website:  www.openfoam.com                      |
|    \\/     M anipulation  |                                                 |
\*---------------------------------------------------------------------------*/
FoamFile
{
    version     2.0;
    format      ascii;
    class       surfaceVectorField;
    location    "550";
    object      Uf;
}
// * * * * * * * * * * * * * * * * * * * * * * * * * * * * * * * * * * * * * //

dimensions      [0 1 -1 0 0 0 0];


internalField   nonuniform List<vector> 
27882
(
(1.00334 -0.00102863 2.98321e-22)
(1.00337 -0.00259682 -1.09253e-22)
(1.00454 -0.00158156 -8.61126e-22)
(0.951941 -0.0221171 -2.19404e-21)
(0.951106 -0.0315482 -1.76847e-21)
(0.96202 -0.0267449 -2.4142e-21)
(1.00263 3.05704e-05 -2.69635e-22)
(1.00315 1.57446e-05 -1.51591e-22)
(1.00363 -8.02395e-06 1.60067e-22)
(1.00199 -0.00014744 4.49555e-22)
(1.00376 0.000482587 1.93884e-22)
(1.02144 -0.000663655 1.00388e-21)
(1.02254 -0.00158324 -1.03141e-21)
(1.02274 1.37819e-05 -1.1036e-22)
(1.00711 0.000135648 -3.76945e-25)
(1.00781 0.000247055 -2.14169e-23)
(1.00735 0.000183634 6.61709e-23)
(1.01579 -0.00456085 -9.92311e-24)
(1.0159 -0.00472806 -1.27165e-21)
(1.01603 -0.00464541 -3.41537e-22)
(1.02563 -0.0150856 2.78592e-22)
(1.02597 -0.0154093 7.22752e-22)
(1.0256 -0.0155042 -8.66833e-22)
(1.02042 6.99782e-06 9.95035e-22)
(1.02033 -0.00132955 1.15354e-21)
(1.01942 0.000450503 -6.6993e-23)
(1.01836 0.000646704 2.18486e-23)
(1.01848 -0.000467159 -1.27651e-21)
(0.953109 0.00209732 3.9554e-21)
(0.958433 -0.00492331 9.332e-22)
(0.964395 0.00285459 -8.47018e-22)
(0.868524 0.237921 2.46825e-21)
(0.858604 0.231203 -2.33987e-21)
(0.853434 0.210748 -3.52225e-21)
(1.03616 0.0692452 -2.93026e-21)
(1.04704 0.0587845 1.3422e-21)
(1.04565 0.0690698 2.05027e-22)
(1.0328 -0.0146446 -7.1553e-22)
(1.03353 -0.0148955 4.92545e-21)
(1.03317 -0.0141462 -3.64966e-21)
(1.01526 -0.00429479 -5.86975e-22)
(1.01554 -0.00444778 -9.52181e-22)
(1.01533 -0.00449663 1.41917e-23)
(1.01274 -0.00205566 -4.59625e-22)
(1.0126 -0.00197232 2.20737e-22)
(1.01263 -0.00211071 -1.92664e-22)
(0.882477 0.240799 4.34828e-21)
(0.878408 0.258582 -1.21219e-20)
(1.0118 0.00152466 -1.35715e-22)
(1.01164 0.00146884 4.58744e-23)
(1.01502 -0.00417986 4.18598e-22)
(1.0152 -0.00412283 5.50363e-22)
(1.01838 -0.0177263 -1.43981e-22)
(1.01844 -0.0184033 -3.52988e-22)
(1.01912 -0.0180061 -2.27896e-22)
(0.916687 -0.0919576 3.04689e-22)
(0.897851 -0.088688 -1.54677e-22)
(0.91363 -0.0737572 7.79421e-22)
(1.10048 -0.246662 -2.20919e-21)
(1.10317 -0.239159 6.94714e-21)
(1.09382 -0.240323 1.1194e-20)
(1.00607 9.36568e-05 1.06094e-22)
(1.00689 0.000141959 3.01238e-23)
(1.00641 0.000154508 -1.42316e-22)
(1.00678 0.000194959 -2.46765e-22)
(1.00718 0.000251993 -2.45466e-22)
(1.09906 -0.253451 -7.44522e-21)
(1.10983 -0.253234 2.81305e-21)
(0.919417 -0.234939 -3.05107e-21)
(0.930368 -0.232678 3.71015e-21)
(0.925279 -0.245295 -4.78009e-21)
(0.910085 0.306631 -1.62174e-21)
(0.897016 0.307529 1.19328e-20)
(0.91158 0.306878 3.185e-21)
(0.959914 0.039972 6.18226e-21)
(0.959275 0.0313988 9.38763e-21)
(0.951621 0.0400662 -4.83821e-21)
(0.99563 -0.0917162 5.7536e-21)
(0.990163 -0.0933463 2.3764e-21)
(0.9921 -0.0877163 1.20989e-21)
(0.927623 -0.058418 8.35327e-22)
(0.932699 -0.0698539 9.93307e-23)
(0.943054 -0.058915 0)
(0.864894 0.0372905 0)
(0.881939 -0.0420705 9.27984e-21)
(0.836679 0.0293156 2.39115e-20)
(0.918815 0.302739 -1.07951e-23)
(0.90662 0.299362 -8.4383e-21)
(1.02532 -0.0148408 1.2186e-21)
(1.0256 -0.0147782 5.87477e-22)
(1.06146 -0.303876 2.85193e-21)
(1.07264 -0.308075 8.91515e-22)
(1.0637 -0.318066 -4.08005e-22)
(1.02358 -0.00250084 2.24187e-22)
(1.02468 -0.00321647 2.13236e-22)
(1.02508 -0.00169053 5.51875e-22)
(0.926349 -0.0442091 -6.71097e-21)
(0.914144 -0.0529494 -8.40365e-21)
(1.02906 0.0691991 -3.61535e-22)
(1.02269 0.0802772 -4.24415e-22)
(1.02225 -0.00291057 -1.76287e-22)
(0.836705 -0.0527395 -2.77006e-21)
(0.803558 -0.0463114 3.03935e-20)
(0.812967 -0.125857 6.13639e-21)
(1.01468 0.00228943 8.02271e-24)
(1.01466 0.00226033 1.18716e-23)
(1.01448 0.0022953 2.5265e-23)
(0.880563 0.131481 5.74087e-22)
(0.873021 0.100383 1.3318e-21)
(0.878656 0.104741 4.63542e-21)
(1.01637 0.00227623 -2.69401e-22)
(1.01656 0.00362418 -2.92189e-22)
(1.01772 0.00255385 -5.61942e-22)
(0.948793 0.154658 -1.7149e-21)
(0.93338 0.155743 2.61112e-21)
(0.939652 0.138893 3.72808e-21)
(1.01225 0.000705086 4.80255e-22)
(1.01191 0.000735877 -2.15424e-22)
(1.01228 0.000996403 -1.74555e-22)
(1.01031 -0.000719199 2.12417e-22)
(1.01027 -0.000708456 -5.53793e-22)
(1.01064 -0.000800219 6.39445e-22)
(0.959421 -0.0528683 -8.63705e-21)
(0.998299 -0.131605 1.20751e-20)
(0.961561 -0.117504 -6.06648e-21)
(1.01522 0.00182425 0)
(1.01595 0.00120271 0)
(0.98376 -0.0824433 1.53496e-21)
(0.985102 -0.0772059 -1.04682e-22)
(0.979472 -0.079162 9.10532e-22)
(0.227043 -0.0929256 0)
(0.174499 -0.0700987 0)
(0.222223 -0.100021 -3.01091e-20)
(1.00434 0.0043803 1.1682e-21)
(1.00367 0.00314405 -7.91307e-22)
(1.00502 0.00312084 1.20999e-21)
(0.947418 0.0107777 2.13919e-21)
(0.939595 0.00238498 1.04215e-21)
(0.721455 -0.331431 1.75187e-21)
(0.748858 -0.33609 0)
(0.753173 -0.318758 0)
(1.00404 0.0059404 5.69759e-22)
(1.00543 0.00543605 -1.5924e-21)
(1.008 -0.0104468 5.31054e-22)
(1.00837 -0.00962517 0)
(1.00751 -0.00971054 -3.13494e-22)
(1.06039 -0.174508 -2.22717e-21)
(1.06654 -0.176861 7.59729e-21)
(1.06145 -0.181117 -8.28014e-21)
(1.05473 0.0474933 9.03696e-22)
(1.04502 0.0499138 -2.89198e-21)
(1.0114 0.000728348 -1.11964e-22)
(1.0114 0.000772129 -1.10873e-22)
(1.0117 0.000737979 -9.40512e-22)
(1.01839 -0.0170125 2.98083e-22)
(1.01767 -0.0173069 2.81589e-22)
(0.986464 -0.0725913 -1.48939e-21)
(0.982995 -0.0691047 -1.02195e-21)
(0.987983 -0.0677969 -2.4861e-22)
(1.01143 0.000671646 -3.74487e-23)
(1.01115 0.000736553 3.53408e-22)
(1.00948 -0.000556713 0)
(1.01002 -0.000707311 -1.37095e-22)
(1.00956 -0.000519128 8.35647e-23)
(1.01255 0.000625572 -1.19132e-22)
(1.01214 0.000436103 -3.14783e-22)
(0.881603 -0.308054 -1.51607e-20)
(0.886911 -0.300717 6.24338e-21)
(0.625716 0.261526 2.61411e-21)
(0.58302 0.212465 -8.64276e-21)
(0.626095 0.257475 2.42605e-21)
(1.00851 -0.000429684 0)
(1.00939 -0.000581639 -6.60539e-23)
(0.992461 -0.289878 -2.11988e-20)
(1.00486 -0.284523 -5.742e-21)
(0.951787 -0.27194 5.79936e-22)
(1.00633 -0.000278684 2.42057e-22)
(1.00565 -0.00019539 0)
(1.00572 -0.000211206 0)
(1.01031 0.00158041 2.1168e-22)
(1.01019 0.00152162 2.15432e-22)
(1.01036 0.00158372 -2.01e-22)
(0.968714 0.0391555 -1.79091e-21)
(0.962986 0.0489569 -2.1318e-21)
(1.01179 0.00155443 5.70317e-24)
(1.01196 0.00161678 -1.12643e-23)
(0.678244 -0.345967 7.10631e-21)
(0.687392 -0.333163 8.1887e-22)
(0.896697 -0.257679 4.7845e-22)
(0.902105 -0.248023 1.48229e-22)
(0.909848 -0.257805 2.08736e-21)
(1.01358 -0.00489184 3.16814e-22)
(1.01379 -0.00502878 -2.43631e-22)
(1.01361 -0.00506283 3.14493e-22)
(1.02549 -0.0211766 1.49203e-22)
(1.02558 -0.0206282 5.28531e-22)
(1.0247 -0.0208069 1.8764e-23)
(1.07162 -0.0447053 4.78522e-22)
(1.07283 -0.0379739 -1.71304e-22)
(1.06596 -0.040357 -1.19071e-21)
(0.886929 0.050285 0)
(0.840626 0.112023 -9.69773e-21)
(0.918912 -0.276703 0)
(0.926083 -0.26959 -2.92295e-21)
(0.93043 -0.278652 0)
(0.911862 0.247871 0)
(0.904466 0.264073 3.49645e-21)
(0.922872 0.253623 -3.87543e-21)
(1.02038 0.00132649 1.47379e-21)
(0.959376 0.165236 -1.12185e-22)
(0.965959 0.148989 1.41017e-22)
(1.0383 -0.122147 -6.25775e-21)
(1.04285 -0.122784 1.16461e-22)
(1.03966 -0.127233 -5.11372e-21)
(0.868491 -0.0613926 -2.11746e-20)
(0.862816 0.012801 -1.99627e-20)
(0.899998 0.240239 0)
(0.918254 0.234506 9.216e-22)
(1.04485 -0.0262263 -2.14976e-21)
(1.04727 -0.0280142 4.71362e-22)
(1.04761 -0.0247044 -7.0052e-22)
(1.01128 0.00233445 -4.55912e-22)
(1.01161 0.00206285 -7.70278e-22)
(1.01189 0.00277222 4.97834e-22)
(1.06747 -0.155091 9.69135e-21)
(1.06486 -0.15955 -1.55629e-20)
(1.06166 -0.154946 -1.0782e-20)
(1.04923 -0.0221316 9.8926e-21)
(1.04893 -0.0205368 8.67964e-21)
(1.02641 -0.0217154 -4.70227e-23)
(1.02539 -0.0219472 -5.07423e-22)
(0.87781 -0.300469 3.75015e-21)
(0.874645 -0.313447 -7.15769e-21)
(1.07248 -0.153308 -2.5249e-21)
(1.06818 -0.149254 1.23926e-20)
(0.420849 -0.371384 1.61999e-20)
(0.38679 -0.375582 6.22773e-21)
(0.363503 -0.36926 1.6783e-20)
(1.00924 -0.000501611 6.55583e-23)
(1.0096 -0.00048212 0)
(1.01049 -0.000538822 -2.98406e-22)
(1.05154 -0.0978415 1.00465e-21)
(1.05527 -0.0982447 -1.40037e-21)
(1.05251 -0.101716 -4.93114e-22)
(0.274457 -0.109943 4.04135e-20)
(0.223715 -0.0836233 0)
(1.01357 -0.00475481 -3.9323e-22)
(1.01341 -0.00475798 -4.86744e-22)
(1.00771 -0.00104747 -5.24287e-23)
(1.00779 -0.0011153 6.47144e-22)
(1.00775 -0.00106019 8.0654e-22)
(1.01324 0.0021175 7.77027e-24)
(1.01305 0.00206635 -5.53221e-23)
(1.01324 0.00213283 -6.10606e-23)
(1.0157 -0.0674635 -3.58737e-21)
(1.01867 -0.0692553 1.39558e-21)
(1.01493 -0.0708409 -6.11547e-21)
(0.903007 0.277728 -5.46944e-21)
(0.896432 0.276546 -1.86e-21)
(0.893614 0.284813 -3.23321e-21)
(1.01137 -0.00381626 0)
(1.01143 -0.00386708 -6.25013e-23)
(1.01129 -0.00372377 0)
(0.927439 0.0121017 0)
(0.961051 -0.0121322 8.44347e-21)
(1.01708 -0.0276668 1.61325e-21)
(1.01829 -0.0280317 3.29399e-22)
(1.01785 -0.0263998 6.5458e-22)
(1.01027 0.0015702 -4.91258e-23)
(1.01044 0.00163839 -2.39442e-23)
(1.00766 -0.00102187 -5.77723e-22)
(1.00762 -0.000973304 -3.53797e-22)
(0.971291 -0.292501 -1.29183e-20)
(1.0244 -0.30175 6.12456e-21)
(0.923528 -0.105872 2.70939e-22)
(0.933982 -0.0903977 -4.23907e-21)
(0.987909 -0.0848171 -9.48535e-22)
(0.982633 -0.0871701 1.35748e-21)
(0.447968 -0.368743 4.31525e-21)
(0.473489 -0.371768 -7.71055e-21)
(0.915215 -0.246399 5.95581e-22)
(0.908652 -0.234773 0)
(0.923921 -0.237702 -7.78358e-22)
(0.86618 -0.0424872 4.62223e-21)
(0.863507 -0.0615812 2.42192e-22)
(0.884026 -0.0553885 7.62695e-22)
(1.01313 -0.00202962 1.01047e-21)
(1.01297 -0.00194529 -4.84455e-23)
(1.0131 -0.00188165 2.60558e-22)
(0.665455 0.302123 2.68907e-21)
(0.61833 0.253774 -5.39318e-23)
(1.00621 0.0039591 2.27005e-23)
(1.00563 0.00234194 -3.35665e-23)
(1.00704 0.00274155 -6.02857e-22)
(1.00452 -5.88529e-05 4.42104e-23)
(1.00454 -5.75935e-05 7.44744e-23)
(1.00366 -3.75708e-05 -9.86534e-23)
(1.016 -0.0289881 2.19598e-22)
(1.01579 -0.0271437 -1.08874e-21)
(0.815158 0.0722262 -3.42236e-21)
(0.76864 0.0689015 -2.07245e-20)
(0.802749 0.0821223 -2.55815e-21)
(1.01251 -0.0656623 -1.0507e-21)
(1.01575 -0.0639053 -1.85517e-23)
(1.0104 0.000969156 3.12964e-22)
(1.01054 0.000897771 -3.89955e-22)
(1.01035 0.000934847 5.2618e-22)
(0.70417 0.0351784 -2.70261e-22)
(0.656298 0.0271988 1.02781e-21)
(0.67667 0.0149177 1.03875e-21)
(1.00985 0.00229886 -2.3158e-22)
(1.01035 0.00284714 7.98496e-22)
(1.00966 0.00305143 4.28419e-24)
(1.00513 -9.85731e-05 3.07411e-22)
(1.00491 -9.74443e-05 -7.02722e-23)
(1.00565 -9.94755e-05 -6.48355e-23)
(0.909615 -0.277366 -1.34049e-21)
(0.914016 -0.284059 1.4708e-21)
(1.01085 0.00265256 6.14093e-22)
(1.0108 0.00196379 -8.99004e-22)
(1.00848 4.85447e-05 -1.10477e-22)
(1.00861 7.52425e-05 -6.90232e-22)
(1.00847 9.96499e-05 -8.0278e-22)
(-0.0469945 0.0991021 0)
(-0.0395948 0.0863856 0)
(-0.0390436 0.081152 0)
(1.00786 -0.0112562 4.36239e-22)
(1.00867 -0.0110147 -1.32463e-22)
(1.01105 0.000240438 0)
(1.01128 0.000295798 1.09849e-22)
(1.011 0.000115756 -1.22043e-22)
(1.0085 4.34939e-06 1.19659e-21)
(1.00836 3.31021e-05 1.22327e-21)
(0.955191 -0.13676 -3.84371e-21)
(0.962354 -0.132292 -4.00763e-21)
(0.952768 -0.129263 -7.05646e-22)
(-0.0824912 0.198551 4.56158e-21)
(-0.0848702 0.195234 2.73585e-20)
(0.990357 -0.075369 3.58362e-21)
(1.00638 -0.0003189 -7.39281e-23)
(1.00547 -0.000170018 0)
(1.00695 -0.000416396 -3.18248e-23)
(1.02475 -0.0195488 1.20606e-21)
(1.02474 -0.0189368 -4.18398e-22)
(1.0242 -0.0192399 5.91343e-22)
(0.721816 -0.303382 2.6399e-20)
(0.751775 -0.304541 0)
(0.776877 -0.320125 0)
(1.01489 0.00227943 6.72753e-23)
(1.01472 0.00234938 2.50458e-23)
(1.00527 -0.000167113 2.81962e-22)
(1.00546 -0.00014965 0)
(1.00591 -0.000140021 0)
(0.865774 -0.314826 -8.52505e-22)
(0.873865 -0.322225 -7.83633e-21)
(0.861342 -0.331751 -4.37188e-21)
(1.00994 0.00123637 6.88794e-23)
(1.00989 0.00176645 4.50229e-22)
(1.01032 0.001569 1.28142e-22)
(0.902189 -0.025411 -6.16078e-22)
(0.89225 -0.0220822 2.68206e-21)
(0.902143 -0.0152758 -4.59123e-21)
(1.03302 -0.122186 9.89958e-21)
(1.03577 -0.117796 -1.34419e-20)
(1.00703 0.0054278 1.23943e-21)
(1.00511 0.00542608 0)
(0.846056 0.0832832 2.21508e-21)
(0.842723 0.0549272 -2.70093e-21)
(0.841535 0.0426329 4.3758e-21)
(1.03222 -0.0609203 -3.34303e-21)
(1.0348 -0.0615941 -4.77487e-21)
(1.03229 -0.0637778 5.15586e-21)
(0.922487 -0.25966 -3.13029e-21)
(0.90772 -0.256526 2.15142e-21)
(-0.0509464 0.111362 1.72602e-22)
(-0.0548575 0.116135 4.05573e-21)
(1.05622 -0.0730231 1.7529e-21)
(1.05909 -0.0726238 7.05342e-21)
(1.05771 -0.0759435 3.9202e-21)
(0.950608 -0.294419 -1.02311e-20)
(0.911992 -0.278019 -2.56723e-20)
(0.968687 -0.129137 2.16302e-22)
(0.967226 -0.122547 -5.7781e-22)
(0.974915 -0.125398 3.03973e-21)
(0.954617 -0.0130343 7.80406e-23)
(0.965911 -0.0104743 -3.39453e-21)
(0.569867 -0.179787 3.07761e-21)
(0.584401 -0.158459 4.86035e-21)
(0.620553 -0.159052 4.90345e-23)
(-0.0665433 0.20524 5.9361e-21)
(-0.0590381 0.198852 6.68581e-21)
(-0.0488654 0.205297 5.03822e-21)
(-0.0513165 0.159363 -2.27362e-20)
(-0.0589815 0.161748 -1.89859e-20)
(-0.0501372 0.147807 -6.56401e-20)
(1.02546 -0.00443048 -7.03916e-22)
(1.02585 -0.00445146 4.3917e-22)
(1.02569 -0.00477796 2.19163e-21)
(1.02493 -0.00449999 -1.63069e-21)
(1.02361 -0.00544349 -5.54276e-22)
(1.02528 -0.00623216 6.92838e-23)
(0.886437 0.162534 -2.23376e-21)
(0.885807 0.15686 1.51678e-21)
(0.804194 0.261596 -3.25782e-21)
(0.811728 0.269163 -1.36197e-21)
(1.04742 -0.0971336 0)
(1.05008 -0.0939277 9.2754e-21)
(0.949599 -0.140713 3.95431e-21)
(0.958983 -0.142573 3.86069e-21)
(1.04495 -0.0344965 -8.51121e-22)
(1.04789 -0.0373723 1.41056e-21)
(1.04373 -0.0378306 -7.70358e-22)
(0.942699 -0.016391 6.08026e-22)
(0.356087 -0.313259 1.2335e-21)
(0.375152 -0.29067 1.05655e-22)
(0.377391 -0.290755 -2.92627e-21)
(1.00928 -5.91885e-05 -1.87277e-22)
(1.00943 -9.21868e-05 -8.04064e-22)
(1.00932 -0.000100632 -1.27904e-21)
(0.266538 -0.0320163 -6.09936e-21)
(0.213681 -0.00129909 -2.43541e-20)
(0.243688 0.00132398 -6.15534e-20)
(0.926551 -0.296416 4.40263e-21)
(0.980636 -0.30766 -1.84852e-20)
(1.09755 -0.195094 3.56402e-21)
(1.12308 -0.243369 4.83368e-21)
(1.09688 -0.247297 4.7728e-21)
(1.01139 0.000461144 -4.41894e-23)
(1.01117 0.000598264 4.53612e-22)
(1.01132 0.000429978 -2.5028e-22)
(1.00923 -6.03572e-06 1.05482e-21)
(1.00913 -2.24016e-05 8.38671e-22)
(0.356256 -0.353774 5.08687e-21)
(0.356195 -0.341127 -1.95599e-21)
(0.371907 -0.347442 8.61736e-21)
(-0.0758643 0.202324 -1.44468e-20)
(-0.0782524 0.192667 -1.51213e-20)
(0.854265 0.217511 3.7291e-21)
(0.84136 0.178602 1.26232e-21)
(0.856727 0.197909 3.34582e-21)
(0.00850165 0.121198 2.93351e-21)
(0.00408685 0.136664 -5.37891e-20)
(-0.00853052 0.134436 -4.7362e-20)
(1.00224 5.03398e-05 0)
(1.0016 7.22473e-05 0)
(0.985804 -0.0954927 1.4598e-21)
(0.981575 -0.0923134 2.34171e-21)
(0.980376 -0.0983631 4.44461e-21)
(0.887705 -0.109302 0)
(0.892665 -0.110379 9.18466e-23)
(0.902307 -0.223723 1.4847e-21)
(0.893365 -0.232614 6.90729e-22)
(1.0107 -0.00305937 1.89038e-22)
(1.01081 -0.0031511 1.36671e-23)
(1.01077 -0.00311172 -3.50824e-22)
(1.01352 -0.00459229 1.32471e-24)
(1.01372 -0.0047256 -1.46137e-22)
(0.955568 -0.22277 0)
(0.961442 -0.22998 -4.25823e-21)
(0.94988 -0.231648 -5.8151e-21)
(1.0478 -0.300391 1.4048e-20)
(1.0534 -0.291169 2.92571e-21)
(1.03514 -0.00705722 2.00197e-21)
(1.03474 -0.00633507 0)
(1.00961 0.00128083 3.48953e-22)
(1.00963 0.00130814 -2.35725e-22)
(1.00949 0.0012437 0)
(1.00914 -0.0139318 -1.55022e-22)
(1.00978 -0.0135858 -5.25143e-22)
(1.00907 -0.0130434 -6.28376e-22)
(1.05844 -0.169136 7.83498e-21)
(1.05405 -0.172975 7.54206e-21)
(1.03911 -0.00990791 0)
(1.03987 -0.0105313 -1.75166e-21)
(0.467383 -0.223604 9.12981e-23)
(0.483315 -0.204971 1.28818e-22)
(0.448711 -0.206009 -2.36145e-21)
(1.01746 -0.00275295 -7.35234e-22)
(1.01753 -0.00264403 -2.8288e-22)
(1.01768 -0.00281876 -6.3354e-22)
(0.944748 -0.0764374 1.00389e-21)
(0.929888 -0.0795227 2.70914e-22)
(0.9957 -0.0203878 8.62722e-22)
(0.997364 -0.022067 -8.69722e-22)
(0.99462 -0.0228406 4.12417e-22)
(0.327128 -0.13473 1.71293e-20)
(0.318588 -0.122812 5.06701e-20)
(1.18016 -0.212792 6.89643e-21)
(1.16611 -0.226786 1.14723e-20)
(1.16452 -0.238591 -3.91189e-21)
(-0.0512624 0.167915 -1.30189e-21)
(-0.0410717 0.154014 4.76305e-20)
(1.01739 -0.00288878 1.32921e-21)
(1.01723 -0.00269856 1.75125e-23)
(0.989188 0.0072044 -8.74191e-22)
(0.98417 0.00480927 7.78418e-22)
(0.986042 0.0114571 -3.11976e-21)
(0.992707 -0.225513 2.04375e-21)
(0.984176 -0.236992 2.88445e-21)
(1.00277 -0.233996 2.58128e-21)
(1.0097 0.00103811 1.14771e-22)
(1.00968 0.000990077 -9.81869e-24)
(1.00981 0.00105415 1.10927e-22)
(1.03794 -0.0105177 1.65953e-21)
(1.03828 -0.00988412 -3.68758e-21)
(1.03743 -0.00981101 2.29311e-21)
(0.883258 -0.0183396 6.07551e-22)
(0.872843 -0.0137374 -1.03619e-20)
(0.882939 -0.00686557 -1.28051e-20)
(1.02499 -0.00448489 -3.69894e-21)
(1.02512 -0.00415971 -9.83898e-22)
(0.385722 -0.156102 -3.88301e-21)
(0.340989 -0.149841 -4.0063e-20)
(1.00553 0.000151592 -2.46857e-22)
(1.00617 0.000196358 -1.0477e-22)
(1.00548 0.000129968 -9.60897e-23)
(1.01046 0.00414723 -4.07227e-22)
(1.01055 0.00358588 -7.04807e-23)
(1.01106 0.00400679 4.08162e-22)
(0.942501 -0.143406 2.68049e-21)
(0.945594 -0.150555 2.86033e-21)
(1.10434 -0.109665 1.87357e-22)
(1.0964 -0.10084 0)
(1.09203 -0.112383 1.47054e-21)
(1.01254 -0.00170233 2.21381e-22)
(1.01241 -0.00162208 -4.00784e-22)
(1.01253 -0.00157242 0)
(1.01327 -0.0021005 4.12352e-22)
(1.01316 -0.00215352 1.01012e-21)
(0.333974 -0.0633299 -3.21327e-21)
(0.299982 -0.0661557 3.79784e-21)
(1.01017 -0.00143188 6.11791e-22)
(1.0103 -0.00147319 -1.22551e-21)
(1.0103 -0.00144309 -1.93248e-22)
(1.02653 -0.00385391 -5.77488e-22)
(-0.0867319 0.197824 -8.46383e-21)
(-0.0830113 0.191419 -1.12336e-20)
(1.00408 7.34651e-05 1.94552e-22)
(1.00369 4.95914e-05 0)
(1.00472 0.000119655 0)
(1.04376 -0.0983788 0)
(1.03974 -0.0996528 -1.00044e-21)
(1.04357 -0.102146 0)
(1.00984 0.00417348 -1.26527e-21)
(1.01055 0.00492232 -9.04731e-23)
(1.00955 -0.00310807 7.22568e-22)
(1.00974 -0.00284387 3.61619e-23)
(1.00983 -0.003189 6.78397e-22)
(1.01741 -0.0155849 3.23365e-23)
(1.01785 -0.0160328 0)
(1.01727 -0.0161891 0)
(1.01344 0.00216909 6.08192e-23)
(1.01326 0.0021029 6.56059e-23)
(1.01299 -0.000758364 0)
(1.01261 -0.000622598 0)
(1.01279 -0.00062635 5.39328e-22)
(1.04405 -0.095019 -4.40852e-22)
(1.00839 0.000292578 4.44113e-23)
(1.00821 0.000263975 3.13617e-24)
(0.863199 0.00952428 1.07562e-21)
(0.865709 0.0344974 1.05629e-21)
(0.865212 -0.000730663 -3.9608e-21)
(1.00134 -0.211491 -1.40196e-21)
(0.983309 -0.215066 -3.5616e-21)
(1.00968 0.000454604 -4.11649e-22)
(1.0097 0.000449618 1.1533e-22)
(1.00968 0.000612155 0)
(1.02938 -0.0603985 -1.11886e-22)
(1.03167 -0.0581078 -8.57836e-21)
(0.934616 -0.147625 -1.89019e-21)
(0.937615 -0.136526 -1.31437e-21)
(1.11305 -0.119156 1.73913e-22)
(1.11602 -0.105561 9.93943e-22)
(0.916712 -0.171788 1.76848e-22)
(0.911891 -0.166473 -2.45866e-22)
(0.925494 -0.164615 1.21984e-21)
(1.06903 -0.0507925 1.67151e-21)
(1.07712 -0.0497183 8.72432e-22)
(1.08919 -0.14547 -1.04803e-20)
(1.08609 -0.149232 1.47949e-20)
(1.09173 -0.150144 8.63316e-21)
(0.350465 -0.332368 -2.55179e-21)
(0.3425 -0.334626 -5.52626e-21)
(1.01004 -0.0013754 8.90921e-22)
(1.01005 -0.00142008 3.93101e-22)
(0.90799 -0.238688 -9.5108e-22)
(0.913994 -0.22585 -2.87746e-21)
(1.05308 -0.0737615 -8.95358e-22)
(1.05427 -0.0705003 0)
(0.896387 -0.211501 1.42531e-21)
(0.913028 -0.215025 -2.79928e-21)
(1.00437 -0.000103674 4.25583e-22)
(1.00521 -0.000140294 -4.14516e-22)
(1.01015 -0.0017286 -6.6855e-23)
(1.01004 -0.00161107 3.0691e-23)
(1.01006 -0.00172285 8.277e-24)
(1.00964 0.000450764 3.01526e-22)
(1.0097 0.000248047 -3.87379e-22)
(1.07723 -0.000240919 3.77015e-21)
(1.0792 0.00680299 1.14552e-21)
(1.08423 0.000306906 1.26288e-21)
(0.137858 -0.0517696 8.23339e-21)
(0.102265 -0.0306205 8.36387e-21)
(0.131773 -0.0567922 9.60115e-22)
(0.862301 -0.00923479 -3.37697e-22)
(0.850441 -0.00421352 8.10751e-21)
(0.861306 0.00336705 3.89804e-21)
(1.02347 -0.0117083 -2.42558e-22)
(1.02311 -0.0118557 1.01601e-21)
(1.02309 -0.0113967 -6.23618e-22)
(1.01342 -0.00217897 -8.92205e-22)
(1.01346 -0.00233886 3.96023e-23)
(1.01361 -0.00227161 2.41966e-22)
(1.07067 -0.000537711 -6.89147e-22)
(1.07516 -0.00579913 1.49726e-24)
(0.911126 -0.0281523 8.77217e-21)
(0.921104 -0.0309905 9.27551e-22)
(0.92054 -0.0221604 8.01407e-21)
(1.00293 4.06789e-05 -9.71593e-24)
(1.00389 8.77545e-05 0)
(1.00329 6.55441e-05 0)
(0.525239 -0.194708 0)
(0.556782 -0.201505 0)
(0.854539 -0.106858 -1.13124e-21)
(0.851561 -0.117854 -3.09247e-22)
(0.864079 -0.114885 -2.11678e-21)
(1.01032 -0.00171798 -1.89864e-22)
(1.01022 -0.00172829 -4.19535e-23)
(1.01021 -0.00161003 1.5166e-22)
(1.00722 -0.000578061 1.67444e-25)
(1.00729 -0.000599255 -1.10853e-23)
(1.00722 -0.000560988 2.87474e-22)
(1.01243 -0.00084113 8.7145e-22)
(1.01197 -0.000544715 7.07012e-22)
(1.01225 -0.000459037 3.81611e-22)
(1.01133 -0.00378095 0)
(1.01145 -0.00393031 -1.14655e-22)
(0.0311054 0.108937 1.93137e-20)
(0.0129895 0.104395 2.57183e-20)
(1.01101 0.000496911 4.89941e-22)
(1.0109 0.000618921 0)
(1.01073 0.000347332 1.30381e-22)
(0.974083 -0.0564617 -1.14913e-22)
(0.978785 -0.0670905 -1.17155e-22)
(0.965119 -0.0665055 2.20132e-21)
(1.00957 0.000472527 1.04115e-21)
(1.0096 0.000680381 4.36839e-22)
(1.00551 0.000103353 -7.90359e-23)
(1.00641 0.0001259 4.40814e-23)
(1.0053 7.90854e-05 7.23742e-23)
(0.816733 -0.0200451 7.15311e-22)
(0.829677 -0.0236844 -8.5985e-21)
(0.820389 -0.0345568 4.75731e-21)
(1.01145 0.000486155 9.82655e-23)
(1.01147 0.000537969 3.07861e-22)
(1.01121 0.000634274 -1.01964e-22)
(0.883205 -0.260788 3.13788e-21)
(0.892614 -0.27149 5.07893e-21)
(1.01368 -0.000876265 0)
(1.01352 -0.000754105 6.05693e-22)
(1.01355 -0.000865977 8.61194e-22)
(0.920158 0.350835 -6.54081e-22)
(0.906548 0.349676 4.34646e-21)
(1.00573 0.000918764 -2.3974e-23)
(1.00442 0.00178072 -2.07184e-23)
(1.00876 4.4463e-05 1.77931e-22)
(1.00871 9.85603e-05 6.52048e-22)
(1.01041 -0.00182966 -9.87914e-23)
(1.01041 -0.00172354 -9.58527e-23)
(0.99181 0.00293175 1.20787e-21)
(0.994161 0.00806583 1.86493e-21)
(0.78811 0.30597 -5.66913e-22)
(0.786691 0.297194 2.57007e-21)
(0.77181 0.311836 -1.65154e-21)
(0.785156 0.318827 1.63274e-21)
(0.808134 0.295303 -7.8278e-22)
(1.00888 2.16597e-05 0)
(1.00879 -1.52107e-06 0)
(0.902727 -0.0354032 4.76829e-21)
(1.0262 -0.00465678 9.15311e-23)
(1.02609 -0.00426532 -2.1998e-21)
(1.01247 -0.00506362 0)
(1.01246 -0.00495767 -2.20198e-22)
(1.01252 -0.00508293 4.67028e-22)
(0.620515 0.0577276 1.80214e-21)
(0.638757 0.0398077 3.30174e-21)
(0.665489 0.0599432 1.48335e-20)
(0.912624 -0.34485 -2.47199e-21)
(0.912816 -0.331505 6.61208e-21)
(0.901028 -0.335994 -6.04329e-21)
(1.01248 -0.00517935 4.55748e-22)
(1.01241 -0.00504085 0)
(1.00967 -0.00121661 0)
(1.00977 -0.00126694 0)
(1.00976 -0.00121995 -2.92486e-22)
(1.01796 0.000866042 2.09814e-22)
(1.01839 0.000351051 2.2071e-22)
(1.01876 0.00085699 3.40161e-22)
(1.01699 -0.0151292 -8.42471e-23)
(1.0175 -0.0150863 2.79643e-23)
(1.02756 -0.022711 3.63836e-21)
(1.02818 -0.0225895 6.51896e-22)
(1.02804 -0.0233647 8.07138e-22)
(1.00858 0.000314212 -8.80202e-24)
(1.00887 0.000347158 -6.23959e-23)
(1.00935 -0.00345444 -5.12934e-22)
(1.00924 -0.00300632 3.75904e-22)
(1.03225 -0.014393 4.10563e-21)
(1.03252 -0.0151115 -3.60322e-21)
(1.00715 -0.000557046 1.71117e-22)
(1.00722 -0.000599133 -2.8172e-22)
(1.00504 -0.000176641 0)
(1.00658 -0.000240439 3.24242e-23)
(1.00554 -0.000184553 0)
(1.014 -0.00205764 -2.94493e-22)
(1.01385 -0.00209281 -6.96731e-22)
(1.01386 -0.00192713 2.98471e-23)
(0.907725 -0.298877 -7.75979e-21)
(0.935812 -0.313614 -7.28537e-21)
(0.884444 -0.300638 -2.34019e-20)
(1.01567 -0.0043495 7.22372e-22)
(1.00955 -0.00116184 3.13362e-22)
(1.00957 -0.0011984 0)
(1.0107 0.00101536 -7.09617e-24)
(1.01062 0.00100333 -4.37566e-24)
(1.01059 0.000955675 -6.46664e-24)
(0.920307 -0.0394802 -3.53915e-21)
(0.928579 -0.0334546 -3.50722e-21)
(1.00766 -0.00103207 3.4621e-22)
(1.00767 -0.00102842 3.99604e-22)
(1.00774 -0.00108374 -4.58517e-22)
(1.00758 -0.000979082 3.07716e-22)
(1.00263 5.58651e-05 -4.44823e-24)
(1.00193 -2.53014e-05 -8.54911e-24)
(1.03382 -0.00854957 6.68787e-21)
(1.03448 -0.00859394 1.60595e-21)
(1.03421 -0.00914538 -2.19641e-22)
(1.0112 0.000782104 2.28221e-22)
(1.01146 0.000830993 8.34171e-23)
(1.00499 0.000115941 5.06211e-22)
(1.00462 0.000103918 4.67773e-23)
(1.00536 0.000116049 -1.51734e-22)
(1.00381 4.3825e-05 0)
(1.0033 5.01947e-05 0)
(1.00426 4.96331e-05 7.4281e-23)
(1.01269 -0.00187456 -6.92285e-22)
(1.01272 -0.00254929 6.95036e-22)
(1.01339 -0.00222788 -3.38746e-22)
(0.919113 -0.171617 8.59798e-22)
(0.909422 -0.178368 1.51659e-22)
(1.00902 -0.000394783 2.34181e-22)
(1.00717 -0.000317888 5.11544e-23)
(1.00613 0.000149026 2.42305e-22)
(1.00556 0.000101087 2.71258e-22)
(-0.0275781 0.0658066 4.51987e-22)
(-0.0334086 0.0717728 8.66246e-21)
(-0.0242849 0.0513487 4.03778e-21)
(1.03971 -0.0204318 -2.41833e-21)
(1.04032 -0.0197564 -8.4959e-22)
(1.03928 -0.0196642 1.30384e-21)
(1.00501 3.87393e-05 0)
(1.00534 1.48914e-05 3.46074e-22)
(1.00454 4.01524e-05 3.32295e-22)
(1.00475 3.66901e-05 7.82785e-25)
(1.00545 6.00285e-05 0)
(0.842304 -0.302992 -8.46561e-21)
(0.860801 -0.314583 5.19011e-21)
(0.861126 -0.291159 -7.55815e-21)
(0.991895 0.051902 3.98928e-22)
(0.986617 0.0441084 -5.01546e-22)
(0.995735 0.0432504 2.39386e-22)
(1.00959 0.00126212 2.95838e-25)
(1.00969 0.00132392 2.95871e-22)
(0.995776 -0.00615972 0)
(0.998226 -0.00571601 0)
(0.996595 -0.00348804 1.11324e-21)
(0.939189 -0.113622 2.62171e-24)
(0.919598 -0.119204 -5.26175e-22)
(1.01302 0.000796248 -7.11022e-22)
(1.01287 0.000468224 3.04226e-22)
(1.05725 0.0381615 3.0445e-22)
(1.06324 0.0449771 1.84794e-22)
(1.01413 -0.00202696 8.77794e-22)
(1.01414 -0.00218353 -1.34451e-22)
(0.780706 0.327138 1.31238e-21)
(0.79416 0.317982 4.93258e-22)
(0.776675 0.33524 -6.34137e-22)
(0.883855 -0.0296921 3.38753e-21)
(0.958181 -0.0302674 -7.02971e-22)
(0.955474 -0.035808 -1.16251e-21)
(0.952481 -0.0283867 -3.0764e-22)
(0.999555 -0.090531 7.12867e-21)
(0.997886 -0.0958416 -5.30403e-22)
(1.08049 -0.311219 -3.65892e-20)
(1.07936 -0.299799 2.9101e-20)
(1.01022 0.00155286 -2.43738e-24)
(1.01034 0.00160832 2.25283e-23)
(1.01019 0.00153722 1.5959e-22)
(0.868271 -0.325442 4.75468e-21)
(0.873637 -0.326046 4.88638e-21)
(0.85983 -0.324441 -9.52329e-21)
(0.92754 -0.151353 -8.0548e-22)
(0.921637 -0.14462 1.21484e-21)
(0.918219 -0.155215 9.50046e-22)
(1.00652 -0.000288101 0)
(1.00593 -0.000254053 2.15432e-22)
(1.0058 -0.000232871 0)
(0.963866 -0.0324843 3.26314e-21)
(0.96142 -0.025976 -6.42844e-22)
(1.04653 -0.0311731 6.08841e-22)
(1.04306 -0.031973 2.51636e-22)
(0.599559 -0.136774 -4.06042e-21)
(0.555178 -0.151999 -1.83285e-21)
(1.00984 -0.00195045 -3.94366e-23)
(1.00995 -0.00205929 -5.14359e-23)
(1.00987 -0.00203678 -6.34869e-23)
(1.01009 0.00150808 -2.28108e-23)
(-0.0865227 0.196167 9.77478e-21)
(0.895732 -0.141043 1.01478e-22)
(0.892696 -0.160229 0)
(1.00848 -0.00102271 5.00325e-22)
(1.00858 -0.00102956 9.97466e-23)
(1.00859 -0.00108002 -3.72371e-22)
(-0.0300275 0.0725686 0)
(-0.0164084 0.0576917 3.19331e-20)
(-0.0180632 0.0525313 0)
(1.0654 -0.00128397 -2.31998e-21)
(1.0639 -0.00593078 0)
(1.06043 -0.00190379 0)
(1.01263 0.0102343 -7.66267e-22)
(1.01088 0.009359 7.21898e-22)
(1.01065 0.0115374 -5.46216e-22)
(0.660512 -0.298843 7.63025e-21)
(0.694102 -0.302483 3.63764e-20)
(0.710983 -0.317402 -2.67198e-23)
(1.00973 -0.00184597 8.97061e-24)
(1.00981 -0.00186013 3.14966e-23)
(1.01168 0.000317628 -1.25712e-22)
(1.01378 -0.000861203 -3.35835e-22)
(1.01375 -0.000969323 3.79437e-22)
(1.00501 -3.64245e-05 -2.10748e-22)
(1.00437 -5.15568e-05 -1.1662e-22)
(1.01396 -0.0101016 -1.4976e-22)
(1.01366 -0.00995222 1.304e-22)
(1.01381 -0.0103615 -1.08633e-23)
(1.01271 0.00669899 -3.502e-23)
(1.01324 0.00599426 -8.63476e-22)
(1.01213 0.00602123 2.80965e-22)
(1.02621 -0.0157456 1.49663e-21)
(1.02627 -0.0153713 -1.79541e-21)
(1.01042 -0.00152369 -1.3747e-22)
(1.01054 -0.00155802 1.13706e-22)
(1.01058 -0.00153846 -6.80359e-23)
(1.01429 -0.0102543 0)
(1.0141 -0.00987411 0)
(1.02401 -0.0114893 0)
(1.02374 -0.0116538 -5.94997e-22)
(1.0242 -0.0117892 -2.07629e-21)
(0.847928 0.313746 -2.84995e-22)
(0.855357 0.321098 -1.53917e-22)
(0.822984 -0.280437 -1.62737e-20)
(0.830992 -0.307114 1.26055e-21)
(1.0099 0.000871256 5.55571e-23)
(1.00961 0.000927746 2.15155e-22)
(0.880851 -0.318375 -2.06969e-21)
(0.906116 0.27435 1.14734e-21)
(0.918757 0.266776 3.73728e-21)
(1.0084 -0.00101906 3.58726e-22)
(1.00838 -0.000979662 3.04455e-23)
(1.04143 -0.0445794 -3.68769e-21)
(1.04034 -0.0430787 0)
(1.04218 -0.0430377 -3.47966e-21)
(0.998343 0.0579714 -1.40546e-22)
(0.987368 0.0619272 1.67267e-22)
(1.12072 -0.237985 1.96204e-20)
(1.12923 -0.237358 2.37419e-20)
(1.12115 -0.230574 2.84219e-20)
(0.861239 0.125619 5.9342e-22)
(0.851732 0.105113 -1.09582e-21)
(0.855062 0.0919143 0)
(0.893195 0.0505441 -4.63679e-21)
(0.889288 0.0394232 -1.75687e-20)
(0.901358 0.0427064 -1.34534e-20)
(1.01762 -0.00247524 -7.69094e-22)
(1.01737 -0.00241598 5.46839e-22)
(-0.0114901 0.0702768 3.92758e-21)
(0.0068951 0.055326 -7.2246e-21)
(-0.00850594 0.0779231 -3.0122e-21)
(0.912405 0.338287 2.34472e-21)
(0.900322 0.301899 1.61352e-20)
(0.884717 0.334399 0)
(0.991049 -0.00997582 1.70132e-22)
(0.989332 -0.0121369 3.40589e-22)
(0.988201 -0.00932003 2.25249e-21)