/*--------------------------------*- C++ -*----------------------------------*\
| =========                 |                                                 |
| \\      /  F ield         | OpenFOAM: The Open Source CFD Toolbox           |
|  \\    /   O peration     | Version:  v2012                                 |
|   \\  /    A nd           | Website:  www.openfoam.com                      |
|    \\/     M anipulation  |                                                 |
\*---------------------------------------------------------------------------*/
FoamFile
{
    version     2.0;
    format      ascii;
    class       surfaceScalarField;
    location    "400";
    object      phi;
}
// * * * * * * * * * * * * * * * * * * * * * * * * * * * * * * * * * * * * * //

dimensions      [0 3 -1 0 0 0 0];
oriented        oriented;


internalField   nonuniform List<scalar> 
14907
(
-0.447452
0.315457
0.131998
-0.582289
0.361279
0.220997
-0.221422
-0.0269504
0.248346
0.59023
-0.590258
-0.038758
0.0165788
0.0221791
0.4284
-0.529503
0.101021
0.0747008
-0.0457911
-0.0289098
0.15479
-0.150775
-0.00401532
0.40133
-0.231878
-0.169444
-0.37224
-0.107905
0.480089
-0.011799
-0.000815602
0.0126146
0.0651526
0.525067
0.35548
-0.614172
0.258601
0.645808
-0.341998
-0.303949
0.229883
-0.118248
-0.11164
0.542016
-0.363515
-0.178449
0.310184
0.231882
-0.290479
-0.300971
0.591415
-0.258699
-0.188746
-0.0118371
0.069277
-0.05744
-0.387479
-0.143593
0.531224
0.110466
0.0580276
-0.168494
0.396715
-0.625526
0.228693
-0.546429
0.28442
0.261858
-0.336574
-0.24573
-0.262812
0.137515
0.125293
0.630881
-0.369461
-0.261309
0.265644
-0.152354
-0.113298
0.396081
-0.203123
-0.192942
-0.300443
0.201205
0.0992271
-0.170148
0.408917
-0.23876
0.000319285
0.00648016
-0.00679945
0.213952
-0.586311
0.129397
0.124951
-0.254351
-0.107542
0.234441
-0.126908
-0.305855
-0.240725
-0.298498
0.155347
0.143149
0.0849209
0.127341
-0.212263
-0.58025
0.274374
-0.0900705
0.146564
-0.0564982
0.0353495
-0.0471867
-0.229704
0.126702
0.102996
0.0632423
0.0114583
-0.148668
0.287152
-0.138504
-0.0213244
-0.0174337
-0.156206
0.239492
-0.0832889
-0.277934
0.207925
0.0699983
-0.114486
-0.0820069
0.196492
-0.0544307
-0.153668
0.208088
-0.172157
0.276923
-0.104769
-0.582828
0.114904
0.467928
-0.0772358
-0.196291
-0.0273693
0.160896
-0.133535
0.37354
-0.264956
-0.108596
-0.116538
-0.181963
0.433684
-0.00531417
0.309144
0.0869541
-0.170823
-0.107127
0.277327
-0.147944
-0.176963
0.149581
0.299106
-0.494826
0.195788
0.304263
0.14292
-0.447124
-0.225119
0.117568
0.0901065
-0.311557
-0.270723
0.210545
0.0601765
-0.145322
-0.110932
0.25624
-0.0882304
0.234262
-0.146035
0.0852409
-0.0782213
-0.00701982
-0.00269874
-0.00978903
0.0124877
-0.162444
0.349223
-0.186783
0.221107
0.152424
0.060013
0.136862
-0.285547
0.132563
-0.15543
0.022866
0.180553
0.0853686
-0.265939
0.495682
-0.211513
-0.00466192
0.0212406
0.415882
-0.219378
-0.196498
0.164962
-0.0957989
-0.069165
-0.0172336
0.0537662
-0.0365325
-0.182681
0.128247
-0.0614727
0.0401482
-0.134275
-0.139695
0.273949
0.242588
-0.128322
-0.114273
-0.255943
0.167704
0.523168
0.0817783
-0.604964
0.0943889
-0.29314
0.198727
-0.00806592
-0.0997295
0.107795
-0.328055
0.112735
0.215302
0.354386
-0.26
-0.153984
0.277873
-0.123895
-0.0321388
-0.029334
0.188874
0.0767619
-0.286323
-0.166272
-0.134182
0.139872
-0.286623
0.146751
0.489641
-0.198461
-0.291172
0.16242
0.158168
-0.32059
-0.193666
0.103589
-0.399645
0.126898
0.272762
0.394997
0.202018
0.113217
-0.127367
0.0141481
-0.136891
0.0516208
0.0852698
0.546968
-0.0238536
0.258873
-0.148952
-0.109927
-0.123436
0.132251
-0.00881665
-0.39271
0.309466
0.083213
0.158204
0.331442
-0.590725
0.203393
-0.241747
-0.267454
0.574239
-0.302143
-0.272175
-0.4662
0.326265
0.139947
0.2237
-0.135316
-0.0883935
-0.0134526
0.0107539
-0.203629
-0.0670949
-0.240616
0.438825
-0.198201
0.262037
-0.353136
0.0910892
0.157188
0.298291
-0.158417
0.00487871
-0.00329545
-0.00158329
-0.131974
-0.196105
0.0783282
0.0764611
-0.146938
0.285831
-0.138904
0.190353
0.188466
-0.37883
0.139952
-0.0267365
-0.270303
0.136013
-0.119268
-0.0315069
-0.22472
0.184151
0.0405614
-0.0111652
-0.112272
-0.16482
0.373112
-0.208286
0.0463316
0.118629
-0.366292
0.216476
0.149808
0.00338197
-0.0118923
0.00851028
-0.179517
0.0986236
0.0808918
-0.22466
-0.17497
-0.0973382
-0.0609135
0.158249
-0.0055684
-0.0019662
0.00753459
0.127985
-0.281986
0.0665394
-0.181026
0.0891306
-0.0971969
0.147322
-0.253624
0.10629
0.00901746
0.253011
-0.135259
0.249443
-0.114195
0.117222
-0.111594
-0.00562941
-0.236389
0.352653
-0.116289
-0.279867
-0.186327
0.137093
-0.0137352
-0.123361
0.445186
-0.222203
-0.222971
0.313786
-0.151362
0.23496
-0.132007
-0.102958
-0.364916
0.162313
0.202605
-0.00804189
0.529076
-0.521042
0.0109965
0.00140296
-0.0123993
-0.00124877
-0.00411669
0.00536543
0.581972
-0.305666
-0.276131
-0.195172
0.550562
0.245116
-0.114961
-0.130162
-0.0508778
0.355188
-0.136844
0.0395045
0.00218815
-0.00580807
0.00361991
0.0137926
-0.00331178
-0.0104809
-0.186632
0.0956918
0.0909379
-0.139137
-0.215358
0.354484
-0.192181
-0.172733
-0.141203
-0.135717
0.2769
-0.191592
-0.174708
-0.106636
-0.0023503
0.108986
0.0161981
-0.01401
0.0078035
-0.00673789
-0.00488764
0.00363884
0.129432
0.159208
-0.288656
-0.464138
0.283606
0.180446
0.0165029
-0.0486419
0.0680735
-0.0631482
-0.00492546
0.0238912
0.092423
-0.116316
0.0889246
-0.0380188
-0.0509056
-0.0178985
0.0128503
0.00504824
0.282098
-0.153197
-0.128917
0.0626381
0.0226026
0.104352
0.086108
-0.190466
0.109533
0.135577
0.00468436
-0.00436508
-0.102363
-0.151425
0.253774
-0.0901516
-0.134578
-0.120195
-0.109516
0.00151817
0.0033605
-0.111109
0.135492
-0.0243844
0.260342
-0.104867
-0.155482
0.000655953
0.0111993
-0.0118552
-0.112465
-0.129925
0.242388
0.0543577
0.0170908
-0.0714485
-0.264283
0.12901
-0.00925855
0.0202552
-0.0623267
0.0788294
0.167485
-0.0225485
-0.144938
0.00978679
0.0592879
-0.0690749
-0.132601
-0.0996892
0.232288
-0.219835
0.391355
-0.171546
0.367086
-0.562356
-0.28996
0.213813
0.0761395
0.0118714
0.105673
-0.117546
0.25575
0.00458983
-0.102413
0.327499
-0.225088
0.00904807
0.0590253
0.131895
-0.403391
0.451493
-0.0480745
0.00174048
0.0526172
0.413262
0.140566
-0.553638
-0.297924
-0.292622
0.590478
-0.528085
-0.00979294
0.537708
-0.0981533
0.10794
-0.6179
0.605989
0.0119352
-0.110295
0.00365834
0.088053
-0.0918884
0.00383527
-0.255565
0.140598
0.0246364
-0.135746
-0.120836
0.301474
-0.180659
-0.308443
-0.155846
0.464202
-0.178089
0.149828
0.0282587
0.477737
-0.203806
-0.273937
0.145141
0.0785494
0.237643
-0.116795
-0.120852
0.00925177
-0.098009
0.0887571
-0.112729
0.197649
-0.19279
0.15472
0.0380645
-0.225638
0.11453
0.111106
0.18075
-0.089079
-0.0916713
0.457602
-0.254909
-0.20268
0.144382
-0.0196218
-0.124761
0.366538
-0.145439
0.209157
-0.0593175
-0.00371594
0.0630332
-0.263716
-0.200502
0.207925
0.158605
0.189823
-0.216801
0.178338
0.0566166
-0.178234
-0.207854
0.386123
-0.733453
0.481846
0.251523
-0.0939524
0.242166
-0.148221
0.287852
-0.162606
-0.125245
0.225127
-0.364262
0.135148
0.143494
-0.284714
-0.231594
0.0962674
-0.390343
0.149755
-0.41549
0.245349
0.556951
-0.000803411
-0.55629
0.103686
0.155182
0.0858996
-0.270769
0.184853
-0.693003
0.402497
-0.328437
-0.214531
0.543005
-0.344027
0.18158
-0.130378
-0.0627328
0.1931
-0.0711877
0.0804393
-0.0951272
-0.0915065
-0.00864826
0.00930421
0.112137
-0.0882478
0.0215477
0.0943374
-0.115887
0.0742143
0.155665
-0.0207285
0.201819
-0.181093
-0.105723
0.0969046
0.00881835
-0.276511
0.182551
-0.227407
-0.165341
-0.398391
-0.335143
-0.163097
-0.126872
-0.378931
0.200718
-0.0919928
0.202459
0.258523
-0.0550158
-0.203515
0.189564
-0.521791
-0.00652035
-0.0927209
0.104591
-0.179066
0.087709
0.000343882
0.113969
-0.00957715
-0.0974143
0.106991
-0.220772
0.108306
0.167452
0.1204
0.196879
0.199052
-0.395919
-0.00254612
0.137534
-0.134996
0.0506726
-0.287084
0.177557
-0.0732111
0.261473
0.000626713
-0.262118
-0.107468
0.0104888
-0.00710683
0.00401231
-0.407406
-0.378487
0.245952
0.132518
-0.0756875
-0.0300361
-0.176938
0.197358
-0.302246
0.179201
0.272403
-0.451581
0.102917
-0.233307
0.0365605
0.0523643
0.0396283
-0.16257
0.122936
0.126747
-0.00952645
0.00867836
-0.591518
-0.175874
0.542882
0.177744
0.103532
-0.3354
0.101606
0.0791431
-0.364087
0.246396
0.117685
-0.116612
0.415808
-0.323089
0.402657
-0.0795744
-0.316211
0.195358
-0.241005
0.141718
0.0992864
-0.123399
0.186811
-0.0634165
0.0148242
-0.107807
0.0929827
-0.00698652
-0.00847644
0.0154628
-0.0586776
-0.118298
0.0232499
0.0341975
-0.0574477
0.222905
-0.407307
0.184449
0.163506
-0.166058
0.26009
0.37089
0.0136496
-0.013726
-0.115337
0.133625
-0.0182884
0.000173918
-0.0919705
0.0917962
-0.00737178
-0.175088
-0.293582
0.468543
0.224802
0.0337115
0.12256
0.226661
0.0941104
0.106534
-0.200654
-0.0881255
0.644598
-0.342955
-0.301646
-0.209407
0.141842
0.0675609
0.395501
0.1787
-0.587668
0.602497
-0.0149767
0.133941
-0.0859645
0.100788
0.587906
-0.344493
-0.243383
0.15537
-0.285305
0.304969
-0.166737
-0.138245
-0.209076
0.0856692
0.0147909
-0.0141902
-0.000600717
-0.167411
0.257176
0.32496
-0.341667
-0.232207
0.573722
-0.218161
0.308236
0.101371
0.0589179
-0.160293
0.145539
0.0219441
-0.0193153
0.113652
-0.00901015
0.106648
-0.0976383
-0.183487
-0.0575185
-0.234865
0.144705
0.113365
0.247297
-0.148203
0.278158
-0.129958
-0.59606
0.295046
0.13718
-0.0222005
-0.11498
0.00275088
0.258705
0.131996
-0.0830736
-0.119886
0.202957
0.223845
-0.0378976
-0.118376
0.156265
0.122387
0.120369
-0.203444
-0.129296
0.253526
-0.124243
-0.130425
-0.0623727
0.122589
-0.133755
-0.128148
-0.0812635
-0.0751163
0.231041
-0.155937
-0.387883
0.226242
0.161622
0.0575681
-0.0665786
0.131426
0.00566394
0.0119947
0.19095
-0.202951
0.167537
-0.0661708
0.146292
-0.367966
0.22161
0.184268
-0.448034
0.398397
-0.252158
-0.157
0.119095
0.00292025
0.0989327
-0.101853
-0.152728
0.245638
-0.0929178
-0.602005
0.33927
0.262706
-0.184485
0.125798
0.2999
0.297115
0.334098
0.253837
0.00612859
0.163758
-0.383612
0.186093
-0.414756
0.2287
0.00283056
-0.00839898
-0.201372
-0.261305
0.462641
-0.121409
0.0397334
0.0816746
0.110174
0.0270058
0.111203
0.021359
-0.0758713
0.0269734
0.0488978
-0.0105103
-0.109858
0.186512
-0.0766591
-0.0757377
0.01642
0.335627
-0.572756
0.237313
0.0371934
-0.209352
0.322382
0.274632
0.290636
-0.169992
-0.120662
0.247386
-0.0916651
-0.155723
-0.638161
0.22401
0.414144
0.205163
-0.11106
-0.0221518
0.0745347
-0.151889
0.548533
0.364282
-0.507687
0.0741105
-0.0861453
0.0120344
-0.0335152
0.050606
0.151656
-0.262597
-0.210453
0.414709
-0.204264
0.00171701
0.00608649
0.0246137
-0.146539
0.430043
-0.012922
-0.0652995
0.00382012
0.349517
0.128227
-0.316669
-0.28537
-0.450509
0.243253
0.207259
-0.17876
0.366848
-0.188061
-0.563957
-0.0237723
-0.361036
0.365042
0.0808177
-0.0585635
0.119795
-0.00617276
0.03041
-0.0242374
-0.583603
0.241576
-0.190502
-0.17359
-0.0843605
-0.0203948
0.104755
-0.246338
0.297444
-0.0511324
-0.0697884
-0.107588
0.147212
0.0939379
-0.222263
-0.21807
-0.168032
0.386034
-0.422936
0.212436
0.0957743
-0.0980345
0.00225996
-0.141351
0.0752403
-0.185104
-0.116961
0.25535
-0.138398
0.000640901
-0.0124399
-0.133167
-0.122404
-0.0621531
0.105585
-0.223838
-0.266452
-0.20705
0.473444
0.183923
0.120381
-0.0465077
-0.0738734
-0.193364
0.464863
-0.271542
0.132905
0.0578307
-0.190736
0.186896
-0.313362
0.126467
0.16247
-0.29177
-0.00632056
0.00051248
-0.099449
0.231427
-0.131974
-0.103109
-0.182759
0.28588
0.00603583
0.54622
-0.552409
-0.0115394
0.00411045
0.00742899
-0.177492
0.375313
-0.197793
-0.196937
0.0974891
0.258608
-0.154316
-0.104296
-0.182031
-0.0462283
0.0400554
-0.0393108
-0.51316
0.41846
0.0947295
-0.0240554
-0.179573
0.0857122
-0.238446
-0.504244
-0.499738
0.198969
0.300827
0.182549
-0.387573
-0.00410518
0.00976367
-0.0056585
0.194252
-0.39578
-0.469459
-0.148421
0.073602
-0.157986
0.0843817
-0.0735887
0.158858
0.166573
-0.0163728
-0.150203
-0.593237
0.295258
-0.0997016
0.185803
0.00336452
0.24711
-0.105392
-0.358926
0.186868
0.172057
-0.197732
-0.19017
-0.0985391
-0.0809792
0.212914
-0.20093
0.20515
-0.471619
-0.0731438
0.166212
-0.0930702
-0.25991
0.363444
0.0679557
-0.429031
0.169094
0.0685446
-0.225587
0.433641
-0.208122
-0.124377
0.037812
0.0865639
0.230839
0.0785983
0.258652
-0.452058
0.0115735
-0.0123891
0.539078
-0.255997
-0.283184
-0.13714
0.296325
-0.587442
0.200128
0.38725
-0.276041
0.159064
0.195749
-0.0539116
-0.361361
-0.151747
0.14654
-0.364717
-0.0890505
0.0784318
0.187057
-0.265499
0.0391678
-0.0264025
-0.0127655
-0.114026
-0.162492
-0.298028
-0.397879
0.599905
-0.12929
0.0211593
0.108129
0.159358
-0.309564
0.150166
-0.311986
0.208875
0.233232
-0.587583
0.354427
-0.311681
0.150321
0.161357
-0.0102811
0.122843
-0.112565
0.0488948
-0.0661286
0.195626
-0.129437
0.00505748
0.0266556
0.130955
0.116153
-0.328395
-0.264438
0.592779
-0.193968
-0.173651
0.367621
-0.168442
0.326072
-0.157655
-0.447498
0.52927
0.383793
-0.197385
-0.186369
-0.00988583
0.012904
-0.00853219
0.00656598
-0.378911
-0.259257
0.0566836
0.127459
0.00537395
-0.163229
0.157854
-0.165818
0.171193
0.254355
-0.0738102
-0.312051
-0.283134
0.595115
-0.100267
-0.0634215
0.163687
-0.000976599
0.0967506
-0.0447929
0.222689
-0.440732
-0.328298
0.159835
-0.339744
0.0933688
0.244989
-0.44643
0.0101918
0.000245069
-0.0104368
-0.0942734
-0.0821667
0.176435
-0.120732
-0.154739
-0.186938
0.341687
-0.300948
-0.264764
0.565665
0.252119
0.0732849
-0.325424
-0.173856
0.0988296
0.12784
-0.497247
-0.0113453
0.00724015
0.0271929
-0.0607081
-0.0160926
-0.0604211
0.0765136
0.0872197
0.0450308
-0.189497
-0.359808
0.135159
0.251499
-0.124872
-0.126629
-0.118955
-0.0558852
0.174836
-0.00234721
0.0106662
-0.00831898
0.00602336
0.0101747
0.205092
-0.123231
-0.081868
0.171381
0.4376
0.138825
-0.576458
-0.0989666
0.254329
-0.192051
0.167989
0.536912
-0.0993693
0.0010872
0.0127054
0.443574
0.113265
-0.198205
-0.209056
-0.227612
0.122046
0.105563
0.124744
-0.572206
0.226013
-0.0744577
-0.151555
-0.269264
0.155229
0.0941327
0.0519453
-0.14608
-0.0946362
-0.0834474
0.178079
-0.509877
0.500199
-0.0979853
-0.152543
0.250518
0.102835
0.131598
-0.156095
-0.0270907
0.12953
-0.042312
-0.00218123
-0.0838008
0.0859818
-0.284044
0.606281
0.134793
0.142127
-0.263812
0.142037
0.121761
-0.0729292
-0.213696
-0.27746
-0.289179
0.566521
-0.270858
0.122647
0.278932
0.157609
-0.436535
0.0746615
0.0458302
0.120741
0.0476584
0.0668031
-0.114463
-0.578705
0.354055
0.224666
-0.135859
0.214283
0.536457
-0.303256
-0.142672
-0.171784
0.314442
-0.0563225
-0.0194154
0.301246
0.233577
-0.534753
0.254682
-0.122209
-0.132478
0.149437
-0.0914097
0.196966
-0.42259
-0.132693
0.247765
-0.20329
-0.0444761
-0.236277
-0.0043487
0.00318954
0.00115914
-0.0777298
0.201085
-0.12336
-0.563624
0.322602
0.241064
-0.0271521
-0.0880158
0.115167
0.0146618
-0.210229
0.195549
-0.596927
0.304241
0.162248
-0.310492
0.148237
-0.192592
0.376562
-0.183957
0.334906
0.262109
-0.244525
0.115034
0.129486
0.0272794
0.224828
-0.0304508
0.0576437
-0.094649
0.241961
0.190414
-0.384367
0.144217
-0.297784
0.153565
0.161732
0.0340127
-0.11067
-0.088897
0.199563
-0.191841
0.382196
0.10804
-0.240441
0.132399
-0.172823
-0.186974
-0.0947777
0.22212
0.322335
-0.158094
-0.164245
-0.179696
0.0850539
0.403286
-0.217139
0.239813
-0.104155
0.185553
0.243926
-0.4295
-0.187003
-0.216072
0.403013
-0.00124579
0.0164746
-0.0152289
-0.25779
-0.192715
-0.0742182
0.0178954
0.387634
-0.205089
0.140981
0.136065
-0.277046
0.549054
-0.31292
-0.236198
0.235909
-0.129459
-0.106453
-0.302714
-0.284795
-0.188384
0.110651
-0.132394
0.329742
0.0800833
-0.107236
-0.219074
0.553131
0.087831
-0.0245889
0.28566
0.159538
-0.130895
-0.0781872
0.472252
0.170003
-0.642123
0.192672
0.108781
-0.0473428
-0.320689
-0.162443
-0.0820876
-0.415656
0.225996
0.189677
-0.0578051
0.0192834
0.0216189
-0.0409024
0.119129
0.106884
-0.229802
0.195024
0.0347743
0.100306
-0.119624
-0.149898
0.345704
-0.195821
-0.0508304
-0.0789714
0.129801
0.114292
0.125196
0.510142
-0.296228
-0.154857
0.0817113
-0.0833091
0.0811276
0.00790753
-0.0102548
0.0597106
0.0743313
-0.00785134
-0.0664801
-0.132038
-0.143765
-0.125385
0.269143
0.35357
0.291028
0.24934
-0.0858414
-0.198646
-0.0221288
-0.200375
0.0014037
0.19898
0.320381
-0.117483
-0.115189
0.232658
0.0264023
-0.121531
0.512096
-0.520171
-0.294362
0.151686
-0.141013
0.24905
-0.00600026
0.00385754
0.00214263
-0.222652
0.091747
0.104589
-0.204297
0.122276
0.129222
-0.0349026
-0.474912
0.00797517
0.513251
-0.270802
-0.242522
-0.183363
-0.231964
0.415279
0.215601
-0.0144006
0.0587322
-0.318643
0.00284116
0.0108084
0.196782
-0.0890285
-0.107754
-0.00739237
0.00139202
-0.631617
0.258079
0.373546
0.059069
-0.0866806
0.0276115
0.002664
-0.00105553
-0.00160849
0.147845
-0.0376715
-0.0175569
-0.182811
0.170956
0.0308613
0.000248441
0.144131
-0.050494
0.131684
-0.0811906
-0.300724
0.133965
0.298663
-0.111758
0.0704113
0.0152282
-0.0139595
-0.192712
-0.159884
0.352581
-0.0798964
0.153496
0.0207921
-0.00692735
-0.0138648
-0.34928
0.27626
0.072991
0.248858
0.186505
-0.435429
-0.261297
0.188363
-0.249665
0.135341
0.114315
-0.331748
0.284342
-0.0318808
0.221496
-0.189631
-0.0909187
-0.0383719
-0.0309038
0.0901915
0.221633
-0.547978
0.239449
-0.0127507
0.000858454
-0.0132063
-0.000293828
0.0135
0.177591
-0.187974
-0.170952
-0.397583
0.512492
0.196577
-0.111098
0.0267372
0.0961071
0.100673
-0.0520286
-0.0398599
-0.243607
-0.186472
0.435251
0.182654
-0.361358
0.178719
-0.273605
-0.221159
0.102009
-0.221222
0.11921
-0.225413
0.0409182
-0.00912498
0.00213834
0.270345
-0.506912
0.236591
-0.594873
0.264096
0.330633
-0.16602
0.156726
0.00929228
0.160888
-0.353583
0.1371
-0.217726
0.0806254
-0.0647416
0.085318
-0.0205768
0.171876
-0.269871
-0.0105293
-0.0260914
0.0366207
-0.00620242
-0.00119001
-0.273536
0.129761
0.185625
0.054554
0.0119671
-0.0665213
-0.011184
0.0176557
-0.00647164
0.051354
-0.147677
0.0963217
0.204463
-0.149603
0.0303342
-0.00818546
0.0586957
-0.0505104
0.0907058
0.0765635
-0.167271
-0.164447
-0.136301
-0.558513
0.21674
-0.28934
0.0911989
-0.00348999
-0.216017
-0.0137875
0.0658306
0.00519331
-0.0710242
-0.591594
0.263162
0.00290471
0.0118862
-0.00814271
0.107075
0.190642
-0.364283
0.242871
0.169455
-0.412328
-0.00100393
0.0405577
0.372829
0.189095
0.359911
0.206939
-0.113674
-0.0932718
0.00867389
0.000612949
-0.00928686
0.00268794
0.0085642
-0.0112522
0.0304994
-0.0317453
0.163752
-0.300914
0.206522
-0.140668
-0.0658562
-0.147809
0.0973142
-0.440633
-0.139627
0.169538
-0.470516
-0.584441
0.278862
0.0864427
0.00475613
0.382312
0.242981
-0.625328
0.371256
-0.180839
0.143767
0.0627527
-0.170583
-0.130698
-0.0473931
0.286394
0.257427
-0.543776
0.261367
-0.492217
0.231014
0.401497
-0.329255
-0.249436
0.160252
-0.0616302
-0.158201
0.540514
-0.18106
-0.162971
0.0680556
0.117678
-0.185738
-0.102675
-0.00762016
0.00630358
-0.0512418
0.0449382
0.410169
0.195825
-0.605909
-0.162677
0.105375
0.0573007
-0.0068461
-0.00636012
0.0142201
0.0249475
-0.133294
0.227227
0.00734578
-0.0132208
0.00587503
-0.00163621
-0.118474
-0.196083
-0.418149
-0.123429
-0.130206
0.219856
-0.102974
-0.116884
-0.00439965
-0.00804153
0.0124411
0.0955069
-0.563759
0.286242
0.426789
-0.585036
-0.00955237
0.0897818
-0.140613
-0.146256
0.309987
0.295523
0.267656
-0.563163
0.165492
0.179599
-0.345087
0.105006
0.0625276
0.226062
-0.553763
0.00660462
0.546947
0.122318
-0.217093
-0.14599
-0.301463
-0.282888
-0.168928
0.376388
-0.207449
-0.0387627
-0.0219455
-0.206895
-0.171608
-0.259565
0.107204
0.395451
-0.279744
0.113459
0.121589
-0.0145022
-0.107088
0.534984
0.229194
-0.119609
-0.109599
-0.331558
0.437863
-0.106301
-0.22862
0.128934
-0.0574524
0.0422858
0.0151665
0.303644
0.293371
-0.0566708
0.0629743
-0.0695746
0.214709
0.00270534
0.00796851
-0.0106739
-0.26268
-0.362934
0.138686
-0.0958115
0.218133
-0.0882733
-0.0744044
0.0828938
-0.00878379
-0.196388
-0.0290334
0.070025
0.00430615
-0.0771302
-0.0584324
0.135562
-0.254998
0.0960892
0.158908
-0.00997951
0.556045
0.0361456
0.111699
0.16734
0.297255
-0.464554
0.27558
-0.618584
-0.409225
0.207924
0.201311
0.614836
0.058231
0.117012
-0.175247
0.383848
0.213167
0.252522
0.0162693
-0.0810112
0.107923
-0.191375
-0.155256
-0.435093
-0.0445445
0.136397
-0.0918551
0.138942
-0.255743
0.0219334
-0.150378
0.253114
-0.102741
-0.056706
0.0262551
0.184462
0.182413
-0.113322
0.141135
-0.00934172
-0.0048879
0.0142295
0.105875
-0.242075
0.1362
-0.000645799
0.0108375
0.334973
-0.599409
-0.0523334
0.197485
-0.145152
0.502274
-0.567046
0.0647853
0.162598
-0.287989
-0.15459
0.313923
0.143462
-0.0493315
0.0241003
-0.106117
0.0820155
-0.24369
0.126201
0.117486
-0.00818932
-0.278255
-0.330102
0.608291
-0.0591456
0.0486163
-0.27643
0.113823
0.172217
0.187832
-0.360036
-0.092701
-0.0627291
-0.0206939
0.16004
-0.13935
-0.00929889
0.0030964
-0.156768
0.399645
-0.107831
0.0975462
-0.10022
-0.00245576
0.100361
-0.0345527
0.0822103
-0.293392
0.551424
-0.406032
-0.145415
-0.298987
-0.090128
0.0650596
0.0250682
-0.402794
0.499611
-0.0969355
-0.405952
0.297998
0.224995
0.198836
-0.423798
0.160196
-0.46249
0.211345
-0.410537
0.2547
0.276014
-0.131808
0.203158
0.19328
-0.39639
0.476429
-0.25046
0.117287
0.0791133
0.127819
0.0997576
-0.144305
0.400527
-0.206291
-0.00784264
0.0105479
0.314755
-0.129722
-0.18504
-0.0374326
0.0965015
0.129443
-0.0237717
-0.0120271
0.00869282
0.00333428
-0.0435174
-0.107371
0.150883
0.180412
-0.23275
0.00967389
-0.00462677
-0.00504713
0.080556
-0.191231
-0.0681213
0.0537775
-0.00598014
-0.0477977
0.169088
-0.0640844
0.565564
-0.469684
-0.12436
-0.103445
0.227796
0.00999404
-0.345922
0.0846258
0.00331124
0.00325839
-0.00656965
0.290996
-0.290729
-0.000269274
0.0696771
-0.0503937
0.0121432
-0.134583
-0.114649
-0.154623
-0.0132615
-0.000928684
0.146326
-0.185025
0.373498
0.507466
-0.03507
-0.101581
-0.138863
0.431696
0.119713
0.163998
-0.476073
-0.0809214
-0.0559247
0.132602
0.114782
0.163917
-0.495463
-0.179261
-0.166663
-0.113623
-0.136842
0.0520504
0.0683303
0.116692
-0.241566
0.175707
0.393194
-0.568985
0.167381
-0.236961
-0.120548
-0.0523134
0.17286
0.103291
0.152049
-0.205038
0.471028
-0.266002
-0.00385062
0.00716185
0.17769
-0.299538
0.121834
-0.000665789
0.247046
-0.0574052
-0.106349
0.209257
-0.171271
-0.144958
-0.00702676
0.00762861
0.0460833
-0.0380804
-0.00800294
0.00459626
-0.00140675
0.164549
-0.31729
0.152715
0.121917
0.107263
0.133067
-0.11204
-0.0210279
-0.184221
-0.301729
0.146999
0.587468
-0.137866
-0.104825
0.242689
0.359224
-0.475721
0.454761
-0.168319
-0.138443
-0.0766394
-0.00950643
0.0139731
-0.0651142
0.0511409
0.494357
-0.257567
-0.236811
0.309558
-0.138799
-0.170774
0.2745
-0.486
0.0794548
-0.266377
0.126003
-0.253464
-0.235506
0.48899
0.12722
-0.126973
-0.118431
0.0440322
-0.258008
0.213972
-0.393487
0.213091
0.180448
-0.224272
-0.190805
0.415093
-0.286247
-0.228236
0.514529
-0.152089
-0.089405
0.24149
0.00147859
0.00719527
0.241003
-0.115711
0.192508
0.389971
0.0909028
-0.00955624
0.000214495
-0.223429
-0.192209
0.226822
-0.513031
0.383599
-0.237432
0.059403
0.0106217
-0.1089
0.560313
-0.554217
-0.00631373
-0.358245
-0.273365
-0.139268
0.11857
0.0874756
3.83867e-05
-0.0875142
0.563474
-0.311762
-0.251677
0.628181
-0.353632
0.19985
-0.111595
-0.0882638
-0.159315
-0.132879
0.292208
-0.238293
0.128162
0.110126
-0.22088
0.155948
0.0649245
-0.101719
0.069697
-0.163975
0.468615
-0.22171
-0.24688
-0.0321599
-0.144352
0.176506
-0.00947024
0.0509387
-0.0414687
0.148069
-0.0252284
0.0100175
-0.14031
0.130291
0.0954797
-0.20713
0.11164
0.110866
0.289751
-0.606427
0.167633
0.151937
-0.319595
-0.0973588
-0.13126
0.215982
-0.119876
0.148244
0.16947
-0.31775
-0.195
0.336972
-0.141972
0.583588
-0.285569
-0.297921
0.283818
-0.142839
-0.00838781
-0.0979925
0.0774404
0.0205518
-0.203758
0.140263
0.063495
0.153044
-0.267698
0.304245
0.104237
-0.172245
0.0680048
0.164557
-0.303071
-0.159429
0.203449
0.0392765
-0.105621
0.0663437
0.107448
-0.213808
0.163068
-0.295478
-0.37762
-0.0419594
-0.0481687
-0.00513815
-0.0930155
0.0225373
0.44519
-0.467715
0.136009
-0.271747
0.130204
-0.152753
0.350285
-0.167622
0.501966
-0.272498
-0.229406
0.352367
-0.0704899
0.200692
-0.0545832
0.192836
-0.138267
-0.156082
-0.0822161
0.00510032
-0.00122781
-0.00387252
-0.146059
-0.129997
-0.315398
-0.0165485
0.00970241
-0.250275
-0.227308
0.477486
-0.0637097
0.0776826
-0.534975
-0.0173195
0.552175
0.113547
0.0917462
0.0399365
0.287732
-0.278015
-0.00973725
0.394171
0.163268
-0.557513
-0.313042
0.166765
0.258585
-0.11798
-0.140613
0.0685051
-0.00910222
0.163924
-0.273508
0.568934
0.00999029
-0.0642703
0.0542799
0.0596122
0.0951033
0.0966573
-0.16008
0.00731306
-0.00706803
-0.0296994
0.152287
0.663207
-0.309647
0.100178
-0.120573
0.170669
-0.31959
0.148923
0.00768421
0.0577804
-0.0654648
-0.228481
-0.137721
0.281196
0.523831
0.0821556
-0.00535643
-0.00618302
0.312774
0.350422
0.0443145
-0.265209
0.234253
0.131038
0.104869
0.0761142
0.110392
-0.157942
0.102054
-0.267226
0.0528496
0.214368
-0.296177
0.103844
-0.147367
-0.195116
0.0867775
0.108329
-0.189508
0.430192
-0.240698
0.162007
-0.223087
0.0610754
-0.347171
0.156665
0.017948
-0.016545
0.00663814
-0.0093226
-0.393595
0.17072
-0.00162838
-0.258905
-0.304676
-0.0732755
-0.130483
0.315417
-0.561985
0.246513
0.00174389
0.00335644
-0.208669
-0.351043
0.144139
0.125041
0.435071
0.0947401
-0.246834
0.107791
-0.24704
0.139246
-0.501642
-0.151226
0.652907
-0.141009
-0.252423
0.186004
-0.306005
-0.0991806
-0.0504229
-0.070898
0.162536
-0.0916404
-0.147574
0.294807
-0.147229
0.232836
-0.126958
-0.248991
0.147411
-0.149588
0.0683964
0.304672
0.148536
-0.12705
-0.136776
-0.135864
0.298101
0.205136
-0.0588144
0.139293
-0.230461
0.0911673
0.00392455
-0.505547
-0.505853
0.255586
0.0950424
-0.169792
0.0747461
-0.350012
0.181097
0.0900074
-0.0995852
-0.0895174
0.231545
-0.00256124
0.0965315
-0.0939705
0.135245
0.127587
-0.26283
0.46824
0.135926
-0.330938
0.0860197
-0.211143
0.125121
-0.11576
-0.0502614
0.197184
-0.421425
0.135481
-0.107391
-0.0728617
0.180251
-0.108342
-0.394607
0.129843
-0.557044
-0.0300252
0.587042
0.0116815
-0.0737624
0.0707005
0.00306177
-0.216182
0.101519
0.114657
0.00247923
0.012749
-0.105624
-0.0760915
0.181716
-0.111134
0.213143
-0.157345
0.0367951
-0.055433
-0.0923769
-0.0770421
0.214143
0.002936
-0.235771
0.0979018
-0.0571896
0.175851
-0.118664
0.128689
-0.287989
0.167447
-0.222045
-0.185663
0.343824
0.151059
0.0165942
-0.199278
-0.174434
0.37768
-0.203261
-0.0477562
0.0395706
0.241824
0.0729256
0.0263729
0.261341
-0.060039
0.0974053
-0.0373665
-0.372807
0.175061
-0.113894
0.21208
-0.0981891
-0.0789467
-0.215831
0.0838177
0.0378468
0.253146
-0.0183632
-0.0805745
0.0989365
-0.265157
0.122058
0.143098
-0.271406
-0.257393
0.528741
-0.0902833
0.204811
0.00109585
0.00216251
-0.0875095
0.0937868
-0.00627807
-0.19903
-0.143577
-0.0921976
-0.218994
0.508232
-0.289206
-0.370866
0.328579
0.0422887
-0.00778532
0.0866145
0.219288
0.2334
-0.508627
0.275162
-0.189247
0.0768776
0.112365
0.137256
0.154982
-0.292244
0.00173915
-0.173099
0.171355
-0.183604
0.355816
0.469331
-0.0490652
0.0469253
0.00213996
-0.148218
-0.153502
-0.293165
0.361104
0.198495
-0.0410582
-0.157442
-0.15134
0.315872
0.396959
-0.111278
0.43769
0.0913803
-0.0716236
-0.138828
0.261804
-0.123001
-0.268529
-0.326482
0.423935
-0.201268
0.0988768
0.0796109
-0.178488
-0.130339
-0.12466
0.0996752
0.11653
-0.216215
-0.144778
-0.162074
0.306856
-0.0942469
-0.0534305
-0.104391
0.311158
-0.162948
-0.251503
0.125108
0.126387
0.440412
-0.178939
-0.254581
0.487923
-0.0105171
-0.0633573
-0.104899
0.168253
-0.110254
-0.0848708
0.0649843
0.15487
0.0590116
0.10715
-0.166164
-0.167087
0.0596943
0.157588
-0.0707781
-0.0868123
-0.0870836
-0.0677757
0.0644917
-0.197793
0.0191437
0.00164831
0.160175
-0.318268
0.136148
0.157104
-0.293278
-0.288816
0.522491
-0.516093
-0.0409811
-0.0467661
0.154471
-0.107707
-0.122371
-0.412702
-0.0385442
0.00450743
0.00809074
-0.0125982
0.10384
-0.0774813
-0.0263589
-0.00319226
0.39731
0.0483564
0.150135
0.154259
-0.0532911
-0.100969
-0.205451
-0.243174
0.448602
0.0767404
-0.0715473
-0.024191
0.118825
-0.0946346
0.0388984
-0.0854062
0.118004
0.0979771
0.00221013
0.00649597
-0.00870612
-0.0642596
-0.10283
0.11012
-0.100103
0.00650744
-0.0109071
0.186315
-0.0783962
0.149023
-0.29941
0.146129
-0.0506569
-0.178985
0.366713
-0.187726
0.00909875
-0.00641084
0.089295
-0.234741
0.145442
0.0663054
-0.14995
0.0836419
0.392787
-0.213647
-0.179157
0.0861668
0.392125
0.105013
-0.497008
-0.000238283
-0.0125198
0.0127581
0.00504386
0.00405483
0.31717
0.26629
-0.583433
-0.00438556
0.008496
-0.109218
0.0924902
0.0167276
-0.0999622
-0.101931
0.201893
-0.111657
0.183797
-0.0721454
0.133453
-0.449025
0.155827
-0.00267445
0.00488456
0.291281
-0.126736
-0.0150538
0.0696075
-0.00667218
0.0111796
0.234742
0.33865
-0.573374
-0.0424674
-0.224774
0.291112
0.232281
0.108319
0.0695942
-0.145696
0.0760977
0.0936166
0.0666336
-0.567487
0.0264718
0.36574
-0.0682848
-0.154807
-0.150525
-0.126723
0.277242
0.0107811
0.491518
-0.199682
0.0765337
0.123141
-0.321143
0.241571
-0.467706
0.19415
-0.132557
0.00569342
0.130708
-0.136404
0.466296
0.0598414
-0.00606414
0.307931
0.386807
0.207113
-0.59383
0.0875769
0.117555
-0.0355217
0.10266
-0.0671388
-0.251488
0.260498
-0.223677
0.422529
-0.107008
0.133409
0.109354
-0.0779351
-0.0314197
-0.330233
0.177907
0.152329
-0.00995991
0.177338
0.0995913
-0.10473
-0.104344
-0.0101924
-0.000553512
0.0107459
0.220404
0.107301
-0.176182
0.0688789
-0.0128675
0.0030784
0.00254036
-0.0234363
0.0208958
0.333615
-0.542909
0.209402
-0.231557
0.232169
-0.094759
0.216804
0.0753764
-0.176576
0.101196
0.0387774
0.117947
0.242603
-0.00220098
0.0018831
0.000317844
-0.0735718
-0.11568
0.0788457
-0.0984682
0.159146
0.126676
-0.292758
0.519634
0.00440724
-0.114596
0.228698
-0.114102
0.491126
0.329868
-0.582001
0.252173
0.000910022
-0.00404686
0.00313681
-0.216553
-0.0778092
-0.30363
0.135608
0.211882
0.12509
0.114757
0.143821
0.551969
-0.0820174
0.14832
0.125545
-0.264403
0.0949472
0.146024
-0.24097
0.21895
0.239389
-0.458323
-0.0901854
-0.0461885
0.0522119
-0.118574
0.037652
0.164698
-0.0951098
0.0156141
-0.0162148
0.0968264
0.0560667
-0.152895
-0.428349
0.170543