/*--------------------------------*- C++ -*----------------------------------*\
| =========                 |                                                 |
| \\      /  F ield         | OpenFOAM: The Open Source CFD Toolbox           |
|  \\    /   O peration     | Version:  v2012                                 |
|   \\  /    A nd           | Website:  www.openfoam.com                      |
|    \\/     M anipulation  |                                                 |
\*---------------------------------------------------------------------------*/
FoamFile
{
    version     2.0;
    format      ascii;
    class       volVectorField;
    location    "400";
    object      U_0;
}
// * * * * * * * * * * * * * * * * * * * * * * * * * * * * * * * * * * * * * //

dimensions      [0 1 -1 0 0 0 0];


internalField   nonuniform List<vector> 
10042
(
(0.996633 0.0134463 -3.87052e-20)
(0.998558 0.0063718 3.95745e-20)
(1.04023 0.0159154 -1.00777e-20)
(1.00976 5.27717e-05 -3.88323e-20)
(0.464955 0.0756363 -6.7933e-20)
(0.999215 0.00581846 -7.22303e-20)
(0.54447 0.0149973 3.15655e-23)
(1.25066 0.00513993 -4.17177e-20)
(1.03292 0.0155345 2.68994e-20)
(1.00208 0.00595666 5.13727e-20)
(-0.274485 -0.0277288 -1.64124e-20)
(1.01497 6.2666e-05 0)
(1.01724 0.00249557 -4.6357e-20)
(1.01748 0.00101318 0)
(0.95878 0.0575667 -6.3728e-20)
(0.999793 0.00732704 -2.14335e-20)
(0.999765 0.00772492 -1.97394e-20)
(1.00004 0.000397376 0)
(0.996771 0.0130657 3.12805e-20)
(0.673724 0.287618 4.49975e-20)
(1.00495 0.00630793 -2.85791e-20)
(1.2771 -0.047636 0)
(1.01627 0.000525953 -6.22528e-20)
(1.01568 0.00487503 0)
(0.998622 0.00600452 -1.00401e-22)
(1.10535 0.024181 1.94686e-20)
(0.998808 0.00211836 0)
(0.995426 0.059156 0)
(1.02354 0.0241764 0)
(1.00357 0.0527255 -2.06424e-21)
(0.996563 0.00531218 7.84345e-20)
(-0.142515 0.00326513 6.00939e-20)
(1.00199 0.00560606 -5.94553e-20)
(1.02234 0.0480964 5.78284e-20)
(1.07556 0.0634538 0)
(1.01527 0.00501282 -7.9253e-20)
(1.1006 0.0283007 0)
(1.11801 -0.00419782 0)
(1.01493 0.00467645 7.37966e-20)
(1.00497 0.129072 2.34935e-20)
(0.645399 0.280162 -1.3148e-19)
(0.967668 0.0570626 -6.15631e-20)
(0.521563 0.0167329 -3.65821e-20)
(0.993261 0.0344337 0)
(0.471026 0.0773099 -3.2756e-20)
(1.17545 -0.0122745 0)
(0.976254 0.039061 5.40973e-20)
(1.20127 -0.0756356 -1.02322e-20)
(1.09205 0.041711 0)
(1.12321 -0.0687284 2.14928e-21)
(1.00047 0.000559076 0)
(1.04225 -0.00965472 -1.63686e-20)
(0.95798 0.0453206 0)
(1.05201 -0.0111093 4.629e-20)
(1.10015 0.0314272 0)
(0.99927 0.00608326 8.62648e-20)
(1.02449 0.024224 -1.81023e-20)
(0.976875 0.0377057 -4.24051e-20)
(1.02309 0.0465804 -5.03947e-20)
(0.960453 0.0455095 3.20824e-20)
(0.997594 0.00556409 0)
(0.997137 0.00769374 -7.60217e-20)
(1.07636 0.0669976 -3.39914e-20)
(1.03918 0.0162802 0)
(0.964757 0.0182212 1.47121e-19)
(1.02619 0.0458107 0)
(0.973041 0.0136764 3.96206e-20)
(0.725765 0.20154 -9.10214e-20)
(-0.210919 0.00669486 0)
(1.00153 0.028833 0)
(1.0507 -0.0120041 -5.86292e-20)
(0.628768 0.290691 1.3535e-19)
(0.991912 0.0341865 0)
(0.859964 0.0722452 -1.722e-19)
(0.974005 0.0100606 -1.09606e-19)
(1.01603 0.00516586 -5.74698e-20)
(0.364907 0.0545109 8.50035e-20)
(0.996587 0.0122274 0)
(0.898948 0.0947116 -7.43522e-20)
(0.429158 0.0366526 2.5285e-22)
(1.0889 0.040578 -2.85031e-20)
(0.634204 0.107925 5.37002e-20)
(1.00878 0.0387617 0)
(0.970546 0.0499157 -1.43182e-20)
(0.972772 0.0125468 6.87582e-20)
(1.00008 0.00159414 -1.01126e-19)
(0.997321 0.0151327 7.65527e-23)
(1.15685 0.292171 2.02274e-21)
(0.986077 0.0225138 3.43293e-20)
(0.997787 0.0152024 6.38942e-20)
(1.03692 0.0357494 4.57576e-20)
(0.655635 0.114285 -6.66768e-20)
(0.996477 0.0613493 0)
(1.0416 -0.00858784 1.50443e-20)
(1.00236 0.0510096 6.90504e-20)
(1.0176 0.0315954 -8.72272e-23)
(0.999861 0.0116296 5.04554e-20)
(1.01146 0.0302567 -6.01881e-21)
(1.00514 0.125024 0)
(1.02924 0.0219749 1.81577e-20)
(0.999993 7.78779e-05 4.38661e-20)
(1.17412 0.227015 0)
(1.17614 -0.00714195 4.08736e-20)
(1.0001 0.00174981 1.08507e-19)
(0.988857 0.0543497 5.56894e-21)
(1.0421 0.22098 6.08116e-20)
(0.994032 0.0126092 -4.40499e-20)
(0.999963 0.0120085 -5.22125e-20)
(1.00477 0.00596801 -2.6797e-20)
(1.02369 0.000743764 0)
(1.01102 0.00130727 5.50715e-20)
(1.00549 0.0228587 -3.30005e-20)
(1.04169 0.0886563 0)
(-0.233207 0.0142234 0)
(0.965825 0.0172091 -4.52027e-20)
(1.00262 0.0211597 -9.71335e-20)
(0.991174 0.00624503 -5.94142e-20)
(0.996434 0.0126271 -3.93699e-20)
(1.01824 0.0307822 -9.21274e-20)
(-0.0600058 0.0355172 -4.42053e-20)
(0.986248 0.0215776 2.90809e-20)
(1.29167 -0.000190144 8.01963e-20)
(0.996842 0.0379168 6.48311e-20)
(0.993856 0.00424657 0)
(1.17467 0.217861 0)
(1.00785 0.0394418 0)
(1.30359 0.0137903 -1.86968e-20)
(1.09161 0.0606778 -3.52491e-20)
(1.03457 0.216474 -7.77169e-20)
(0.998411 0.0160278 0)
(0.896114 0.100661 -8.1629e-20)
(0.979312 0.0216091 5.88741e-20)
(-0.217218 0.00606532 0)
(1.28053 0.0489583 0)
(1.02829 0.0222221 1.60872e-20)
(1.10976 0.196166 -2.46758e-20)
(-0.13769 0.0244733 2.42753e-20)
(1.03701 0.0373779 -5.22543e-20)
(1.20878 -0.0738209 -3.37153e-21)
(1.16372 0.301446 -1.85277e-20)
(0.982391 0.0551786 -6.85551e-22)
(0.990674 0.00618624 1.03498e-19)
(0.983565 0.0486632 4.4216e-20)
(1.22459 0.192615 -1.95575e-20)
(1.03877 -0.00332281 -4.65665e-20)
(1.00518 0.0223125 3.43863e-20)
(1.13586 0.163747 8.06279e-21)
(1.02821 0.00108613 3.81095e-20)
(1.01142 0.0313869 0)
(1.0133 0.0939032 1.1038e-19)
(1.03533 0.0140738 -9.44028e-22)
(1.00003 0.000156329 0)
(0.0965464 0.098252 -7.32507e-20)
(-0.0973816 0.0328939 -4.49514e-20)
(0.999525 0.001377 0)
(1.01717 0.00218938 9.24447e-20)
(0.951707 0.0123202 5.07569e-20)
(0.996847 0.0078168 6.4799e-20)
(1.10715 0.203596 -1.1999e-20)
(-0.0886617 -0.0138252 5.31197e-20)
(-0.248724 -0.040855 0)
(1.2499 0.0673104 1.50462e-20)
(0.995559 0.00644945 -6.88247e-20)
(1.03487 0.0149628 6.44507e-20)
(1.01279 0.0419209 0)
(0.980093 0.020532 5.50374e-20)
(0.943027 0.264152 0)
(0.174549 0.110887 7.68189e-20)
(-0.16155 0.00996449 7.21877e-21)
(-0.0673946 0.0354077 4.09155e-20)
(1.05079 -0.00515327 -3.04866e-20)
(1.00618 0.0129916 8.42771e-20)
(0.816372 0.152558 -4.37828e-21)
(0.67526 0.340641 3.11409e-19)
(0.904429 0.165466 -4.83322e-20)
(0.536395 -0.00277748 5.76426e-20)
(-0.259541 0.19483 -3.06653e-20)
(0.994937 0.0362847 0)
(0.71099 0.220522 -2.35618e-19)
(1.06709 0.117244 0)
(0.949189 0.0130211 1.16456e-19)
(-0.125096 0.00458214 -6.78355e-20)
(0.971881 0.0163005 0)
(1.08876 0.0620822 -3.02397e-20)
(0.967657 0.0540563 8.16054e-22)
(-0.0375603 0.0379401 0)
(1.28467 0.0886788 3.19867e-20)
(1.02342 0.0405832 0)
(-0.242134 -0.0588873 3.28891e-20)
(1.06247 0.0466189 5.61799e-20)
(0.721332 0.742731 0)
(0.981481 0.0480635 2.83439e-22)
(0.0962725 0.0986434 2.07921e-20)
(0.998356 0.18334 3.51845e-21)
(1.2314 0.0250427 2.36309e-20)
(1.15795 0.160566 0)
(1.08258 0.030543 0)
(0.994942 0.0116232 7.19455e-20)
(1.01681 0.00203049 1.31106e-23)
(1.03266 0.0670562 -3.71244e-20)
(0.8828 0.146745 0)
(1.02457 0.041126 0)
(1.00704 0.0229857 3.21147e-20)
(0.697922 0.363711 -1.01386e-19)
(0.971591 0.0149703 3.59406e-20)
(1.02006 0.0135438 -1.0545e-20)
(0.792441 0.782381 0)
(0.99927 0.00215328 -3.53891e-20)
(1.00003 0.000457475 0)
(0.999884 0.000752427 -1.52653e-20)
(1.31311 0.189562 7.84207e-20)
(1.01698 0.000324473 3.58699e-20)
(0.938522 0.252466 5.24499e-20)
(1.01925 0.45131 1.18453e-20)
(0.95365 0.0141669 -5.31188e-20)
(1.28877 0.09366 -3.74473e-20)
(0.977508 0.0089865 -9.29349e-20)
(1.00066 0.00866254 8.27109e-20)
(1.16497 0.148299 -4.95111e-21)
(1.01126 0.0150345 0)
(1.04534 0.0891393 2.28933e-20)
(0.950941 0.0208663 -5.5744e-20)
(1.1157 0.416912 1.71338e-21)
(1.12141 -0.006393 4.1242e-21)
(0.942229 0.0733802 5.69108e-20)
(1.10955 0.0191943 -1.93812e-20)
(1.31259 0.0376176 6.37233e-22)
(1.00389 0.021765 9.63961e-20)
(1.26262 0.0973797 0)
(1.05161 -0.0143496 4.98922e-20)
(1.03365 0.0148026 -5.65086e-20)
(0.807515 0.377843 -1.55328e-19)
(1.00573 0.0126585 -1.6809e-22)
(1.05044 -0.0152549 3.13974e-20)
(1.04107 0.0167891 3.10298e-20)
(1.01614 0.096191 2.92664e-20)
(1.01839 0.0153966 -5.43675e-20)
(1.01796 0.000621879 3.74039e-20)
(1.06365 0.0234904 -2.31003e-20)
(1.06691 -0.0291827 3.91006e-20)
(0.995474 0.00613379 0)
(0.995417 0.0378317 -6.79558e-20)
(1.0126 0.0403115 5.79545e-20)
(1.04045 0.0920544 -2.41504e-20)
(1.00298 0.0205198 3.45811e-20)
(0.996795 0.00544961 0)
(1.01432 0.00109468 2.53553e-22)
(0.989523 0.0567629 -5.17705e-21)
(1.05105 -0.00828059 0)
(1.00002 0.000296055 5.09858e-21)
(1.01669 0.0012838 -7.82369e-20)
(1.00211 0.0279231 0)
(0.992454 0.0834755 -6.69744e-20)
(1.12721 0.429005 0)
(1.24878 0.0733689 1.73738e-20)
(-0.21198 -0.0557289 -3.6236e-20)
(0.896522 0.169545 -7.99448e-20)
(0.920332 0.167365 -4.37807e-20)
(0.958126 0.0606472 -3.67835e-20)
(1.18769 -0.0111703 0)
(0.704345 -0.0199374 6.4943e-20)
(1.06143 0.0232873 0)
(0.994168 0.0121907 0)
(1.01775 0.000647074 0)
(1.03042 0.0663513 -1.14026e-22)
(1.01797 0.0147851 8.71811e-20)
(1.28818 -0.0533802 -4.79145e-21)
(1.06247 0.000188367 -1.19401e-20)
(0.997896 0.0159087 1.04149e-22)
(0.999926 0.000651609 0)
(0.872438 0.147427 0)
(1.05214 -0.00916043 0)
(1.03202 0.437108 0)
(0.91309 0.17138 9.13159e-20)
(1.19551 0.267349 2.15346e-20)
(1.06316 0.0488328 -3.71285e-20)
(1.06506 -0.0310833 0)
(1.01687 0.014278 5.15902e-20)
(1.08042 0.00508106 1.86809e-20)
(1.03984 -0.00315426 4.15424e-20)
(1.07055 0.120709 2.47599e-20)
(0.99066 0.0231277 3.02689e-20)
(1.1047 0.0276556 -1.01618e-20)
(-0.181924 0.0116745 4.29569e-20)
(1.01948 0.0132218 3.92719e-22)
(1.03652 0.019061 1.52087e-19)
(0.742557 -0.0241439 -5.56337e-20)
(1.18057 -0.00967241 0)
(1.02323 0.0393003 4.68969e-20)
(0.99732 0.00522207 -4.50491e-20)
(0.993428 0.0802616 7.0066e-20)
(0.542559 -0.00888948 5.25951e-20)
(1.17063 0.0747865 0)
(1.23157 0.18989 1.95781e-20)
(1.00039 0.000452403 0)
(1.01685 0.00173597 -9.53732e-20)
(1.00428 0.0224058 -3.72084e-20)
(1.03325 0.016366 3.24388e-20)
(1.31137 0.0301304 0)
(0.995006 0.0194853 0)
(0.997611 0.00591133 -1.61997e-21)
(1.00589 0.0143178 -6.30538e-20)
(0.977446 0.00775846 0)
(1.11669 -0.019818 0)
(0.966662 0.0680324 4.77116e-20)
(1.09066 0.25761 8.21057e-21)
(0.251631 0.0103541 5.91646e-20)
(0.961978 0.0427531 -1.68579e-19)
(0.801157 0.0539854 3.53587e-20)
(1.00283 0.0191703 3.31277e-20)
(1.0785 0.00549052 0)
(0.998631 0.00239382 0)
(-0.271318 0.00528141 7.12258e-20)
(1.18398 0.204509 -3.44087e-21)
(1.28255 0.258889 -2.27996e-20)
(-0.222152 0.225458 0)
(1.01688 0.00533752 -9.73508e-20)
(1.06292 -0.00116133 0)
(1.00201 0.0298292 -5.1713e-20)
(0.977433 0.0758257 -1.1421e-21)
(1.10923 0.0229556 0)
(1.00002 0.000899052 5.09984e-20)
(1.05611 0.132254 0)
(1.01139 0.00135914 -3.1481e-20)
(1.0182 0.000384899 -1.93064e-20)
(0.993602 0.0361382 0)
(1.09508 0.266264 0)
(0.999988 0.000201488 1.66038e-21)
(1.05966 0.0457429 -3.03062e-20)
(0.980422 0.0182714 6.62323e-20)
(0.969071 0.066328 0)
(-0.249151 0.0880182 2.70218e-20)
(1.00253 0.0198406 0)
(0.999423 0.00160608 0)
(1.00299 0.00200045 -4.68072e-20)
(1.03841 0.0151267 0)
(1.07624 0.167737 0)
(1.23421 0.0210536 -1.90878e-20)
(0.929256 0.172045 -2.41407e-20)
(1.19884 0.0749797 5.32711e-20)
(1.11871 -0.016444 0)
(1.08496 0.0604748 0)
(0.97954 0.0191064 -7.04277e-20)
(1.0177 0.000956091 0)
(1.04185 0.0341387 0)
(1.00002 0.000326294 -4.65427e-20)
(1.3484 0.0853504 0)
(0.991037 0.023769 1.99382e-21)
(1.02513 0.047009 -2.85485e-20)
(1.18744 -0.116597 -1.59806e-20)
(1.00637 0.0233695 -3.39474e-20)
(0.981616 0.0836939 5.62457e-20)
(0.970291 0.0527236 1.49632e-20)
(1.19548 -0.118032 -2.1271e-20)
(1.04179 0.0070131 2.09617e-20)
(0.943895 0.0705551 -4.53706e-20)
(1.03525 0.20839 2.38556e-20)
(1.05108 0.131284 2.93115e-20)
(1.03605 0.0638358 0)
(0.993911 0.0107339 -7.21524e-20)
(1.04158 0.0657737 0)
(1.14194 0.162935 0)
(1.05129 0.0113624 2.32505e-20)
(1.07794 0.161251 -1.31378e-20)
(1.00176 0.0100238 5.23795e-20)
(1.00568 0.01219 -4.49873e-20)
(1.00198 0.00993275 -4.70786e-20)
(0.978359 0.0838784 1.90607e-20)
(1.31049 0.275503 1.98869e-20)
(1.06458 -0.0156195 -4.19263e-20)
(1.00003 0.000766231 0)
(0.964277 0.0430187 5.13749e-22)
(1 8.2604e-05 5.67931e-23)
(0.999984 0.000420174 -1.80736e-21)
(0.6905 0.306909 0)
(0.994701 0.0112335 -4.47299e-20)
(1.02558 0.0093388 -4.89191e-20)
(-0.119698 0.0269033 0)
(1.00716 0.00839808 0)
(1.00416 -0.0125571 0)
(1.35282 0.0787542 -2.17713e-20)
(0.859973 0.0799769 2.25243e-19)
(0.444816 0.0108313 -9.62413e-20)
(-0.188305 -0.0526376 0)
(1.00648 0.114442 0)
(0.785217 0.373595 8.53926e-20)
(0.99922 0.00187023 3.03496e-20)
(1.12921 -0.0692819 -6.91649e-21)
(0.999999 0.00011351 -5.79449e-23)
(0.976186 0.0342763 0)
(1.24774 -0.161805 -2.0872e-20)
(1.0005 0.00579654 3.21895e-20)
(0.974858 0.0778554 7.09983e-20)
(0.561145 0.93504 -1.6721e-20)
(1.01585 0.000468898 4.64332e-20)
(1.0048 0.00659021 -1.02293e-22)
(0.772316 0.124269 -1.6243e-19)
(0.757884 0.686724 0)
(1.02552 0.0440607 0)
(1.02777 0.0019414 3.72787e-20)
(-0.147642 0.00848266 0)
(1.18406 0.21361 5.49029e-21)
(1.00623 0.0135035 -4.67589e-20)
(0.721122 0.185838 3.21427e-20)
(-0.0382522 0.0148601 -8.49173e-20)
(1.01177 0.0152559 0)
(1.00001 0.000521075 5.21343e-20)
(1.0217 0.0106164 1.0998e-20)
(0.999764 0.0176462 0)
(1.01817 0.00048268 4.02577e-20)
(1.01935 0.0124415 -5.64847e-20)
(0.929838 0.0542114 -9.24612e-20)
(1.1755 -0.00186631 0)
(0.97551 0.0357523 -4.59994e-20)
(0.419935 0.028939 2.25929e-20)
(1.01728 0.00086901 -2.11576e-20)
(0.995119 0.0186585 3.82634e-20)
(1.25666 0.302249 0)
(1.04547 0.0116669 6.97689e-20)
(1.02434 -0.0069241 0)
(1.17682 0.0755804 0)
(0.968483 0.0485681 1.18905e-19)
(1.02634 0.00704902 4.0796e-20)
(1.02722 0.00216464 -3.74927e-20)
(1.04406 0.360348 2.0411e-20)
(1.05194 -0.00618519 5.28116e-20)
(1.00176 0.115943 4.84215e-21)
(0.995878 0.0511567 0)
(-0.264647 -0.0328354 3.18583e-20)
(0.955894 0.0132718 1.71476e-21)
(1.12687 0.222105 2.8264e-20)
(0.962019 0.0568899 5.73147e-20)
(1.00339 0.00839662 0)
(1.00304 0.0218298 3.71488e-20)
(1.19046 0.392508 -5.35049e-20)
(1.00288 0.00822215 5.28029e-20)
(0.909246 0.0291429 0)
(0.9981 0.0229345 0)
(1.04083 0.00731608 -3.34369e-20)
(-0.121189 0.000438396 -5.76134e-20)
(1.08265 0.035982 0)
(0.990853 0.00766083 -5.07568e-20)
(1.01164 0.000845127 -3.79356e-20)
(-0.190876 0.0148588 2.37272e-22)
(0.999049 0.0168431 0)
(1.08451 0.037735 0)
(1.02576 0.0676646 0)
(1.01729 0.0148145 -5.7891e-20)
(0.591545 0.0468759 -4.60196e-20)
(0.429354 0.0155528 0)
(1.0056 0.00759518 -2.28755e-20)
(0.967793 0.0174185 0)
(1.06679 -0.0153499 4.27263e-20)
(1.01659 0.00150908 1.11396e-19)
(0.999967 0.00830916 1.15888e-20)
(0.9928 0.00322826 0)
(-0.191546 0.0148635 3.32387e-20)
(0.994275 0.00294959 1.81683e-21)
(1.01734 0.000422309 -4.55799e-20)
(0.969941 0.118553 -5.67513e-20)
(1.2663 -0.0141146 -1.6865e-21)
(1.15901 0.136153 7.02457e-23)
(1.00002 0.000353504 0)
(1.06929 0.111966 0)
(-0.0194855 0.00755449 7.02363e-20)
(1.12002 -0.0237712 -3.47189e-21)
(0.989298 0.00369594 0)
(0.994242 0.0102882 7.18955e-20)
(1.28038 0.0554557 0)
(1.04983 0.0112587 4.48151e-20)
(1.00331 0.00802037 0)
(0.897538 0.0825696 0)
(1.0346 0.0167925 -8.3632e-20)
(1.0189 0.0122037 3.60607e-20)
(0.948889 0.0225407 0)
(1.01927 0.00517968 4.10357e-20)
(0.952871 0.181284 6.26744e-20)
(0.993584 0.0129123 2.38996e-20)
(1.00268 0.00832524 0)
(-0.281784 -0.0249428 -5.28617e-20)
(1.00993 0.00582128 0)
(1.04903 -0.00548727 3.34467e-20)
(1.00068 0.00558054 -7.33485e-20)
(0.997061 0.0493924 0)
(1.05976 0.126981 0)
(1.00536 0.00742894 0)
(1.03728 0.015217 0)
(1.3229 0.280198 -4.12183e-20)
(1.00024 0.0556439 -3.61373e-20)
(0.299353 0.0612022 0)
(1.06018 0.0252678 -2.34981e-20)
(0.999999 0.000147341 -4.92343e-21)
(1.00001 0.000129269 -9.64349e-20)
(1.18183 0.243098 1.64423e-21)
(0.989708 0.0196253 -3.96108e-20)
(0.99077 0.00731367 4.20762e-20)
(1.0025 0.00230804 -4.81894e-20)
(1.05263 0.00926339 0)
(0.946977 0.102144 1.5165e-20)
(0.547974 0.0211457 4.23308e-20)
(0.998506 0.0167118 0)
(0.945721 0.177691 0)
(0.624794 0.752202 -1.0715e-19)
(1.11854 -0.027497 1.90237e-21)
(1.00002 0.000517128 0)
(0.992691 0.00597866 7.29203e-20)
(1.04464 0.00262694 -3.21103e-20)
(1.00007 0.00178398 3.65142e-21)
(1.00154 0.0179045 -3.47172e-20)
(-0.104767 0.172229 -2.91855e-20)
(-0.173078 0.0192407 -6.47954e-20)
(1.00045 0.00543033 -6.1914e-20)
(1.09211 0.0573503 3.74425e-20)
(1.09418 -0.0159348 1.30215e-21)
(1.09136 -0.015086 -2.16644e-20)
(0.972773 0.00943523 3.98876e-20)
(1.01308 0.00127051 6.07522e-20)
(1.33661 -0.0132426 0)
(1.05405 0.351771 0)
(0.662605 0.73426 7.90489e-20)
(1.02563 0.00712355 -4.81762e-21)
(1.04595 0.0030516 2.45079e-20)
(1.04427 0.0121625 -6.52076e-20)
(1.00699 0.00868249 4.50853e-20)
(-0.175265 -0.0449824 0)
(1.08006 0.12282 -3.92226e-22)
(1.05255 0.0106292 -5.0555e-20)
(1.02379 0.028424 9.46198e-21)
(1.00978 0.000627441 6.70808e-20)
(0.974975 0.00755649 2.86438e-20)
(1.3373 -0.00996653 -3.20127e-20)
(1.08415 0.0331791 0)
(0.998875 0.00186311 0)
(-0.221026 0.00799516 -3.6141e-20)
(0.745109 0.643865 4.23277e-20)
(0.989277 0.487057 0)
(1.05127 0.220378 2.57998e-20)
(0.999951 0.0079215 -1.14131e-20)
(1.02824 0.0234103 9.92347e-24)
(1.11973 -0.0915235 0)
(1.13237 0.151908 2.97857e-21)
(-0.119891 0.121544 -6.69369e-20)
(0.231197 0.121502 -7.13578e-20)
(0.942888 0.063127 1.30379e-21)
(0.90522 0.0269975 -8.68043e-22)
(1.00011 0.0015294 3.14609e-20)
(1.05923 0.0431907 0)
(0.968924 0.0179501 -9.10754e-20)
(1.00013 0.00171459 1.47638e-20)
(-0.257647 -0.0406387 3.06612e-20)
(1.01466 0.00116991 5.77483e-20)
(1.00246 0.0185479 3.33113e-20)
(1.16709 -0.0255945 -1.60429e-21)
(1.00005 0.00161625 2.86181e-20)
(1.29451 -0.0913245 -4.95772e-20)
(1.05807 0.0247291 -3.53777e-20)
(1.25461 -0.0101581 -1.97292e-21)
(1.02013 0.12257 4.36645e-20)
(0.999922 0.000655889 0)
(1.063 0.00610431 0)
(1.07829 0.0612491 0)
(1.08965 -0.0684378 1.44775e-20)
(1.05612 0.215473 -1.33008e-20)
(0.939017 0.314305 -3.53962e-20)
(0.999984 0.000196807 4.92998e-20)
(1.11979 -0.0735949 7.38087e-21)
(1.0346 0.0572976 -6.39228e-20)
(1.01624 0.0312483 4.20182e-20)
(1.00073 0.00304536 -5.83738e-20)
(1.04194 0.0356248 6.8818e-21)
(0.996065 0.00271805 0)
(0.941256 0.0664173 -4.75304e-20)
(1.16067 0.131588 1.57061e-21)
(0.836673 0.137087 1.77793e-20)
(0.998853 0.00148942 -7.5229e-20)
(0.999071 0.0574806 -5.5822e-22)
(1.00258 0.00213703 2.61008e-23)
(0.99062 0.0106024 5.83671e-21)
(0.772016 0.354253 2.25006e-20)
(1.00424 0.00544464 1.88689e-21)
(1.02112 0.0684937 0)
(1.27261 -0.0491014 0)
(1.01886 0.00502438 -8.4592e-20)
(1.13058 0.158915 -7.99636e-21)
(1.1349 -0.117494 0)
(0.997069 0.00513183 5.32731e-20)
(-0.045477 0.0380928 -4.80102e-20)
(1.14523 0.0229383 1.08588e-20)
(0.999979 0.00165329 6.35878e-20)
(1.28806 0.110992 -2.09429e-20)
(1.04312 0.0159309 0)
(1.00002 0.000375817 -5.24551e-20)
(0.979192 0.0133358 0)
(0.994066 0.00536107 0)
(0.999996 0.000110222 5.16969e-20)
(1.05996 0.0538305 0)
(0.973831 0.00725135 0)
(0.793172 0.601719 1.24642e-20)
(0.984756 0.055784 -6.14214e-20)
(0.993147 0.00626558 -8.86286e-21)
(1.02861 0.0426774 0)
(1.0644 0.127755 1.49237e-20)
(1.11958 0.0382473 0)
(0.993502 0.00392935 5.77265e-20)
(1.07267 0.00141922 0)
(1.02742 0.0235554 0)
(1.11426 -0.00627155 -1.68694e-20)
(0.980689 0.00747657 -5.51373e-20)
(1.01602 0.125766 -2.88732e-20)
(1.02632 0.00953412 5.13261e-20)
(0.943788 0.0147428 4.50555e-20)
(1.02658 0.00293567 0)
(1.00245 0.0102646 4.60946e-20)
(0.334057 0.0277164 1.42367e-20)
(1.02122 0.0108926 -1.17088e-20)
(0.776479 0.336141 6.72226e-20)
(0.992638 0.00370596 -6.84886e-20)
(1.05753 0.00678738 -1.95377e-20)
(1.01049 0.00553651 -3.21807e-20)
(1.12044 0.0191561 1.01381e-20)
(1.0006 0.00526927 -1.02778e-19)
(1.14922 0.0253755 0)
(1.02445 0.0382302 -5.25134e-20)
(1.28115 0.111963 6.73953e-20)
(0.999977 0.000528842 2.25098e-20)
(0.647883 -0.00376404 -3.46926e-20)
(1.02815 0.000665823 -2.4383e-20)
(0.968236 0.0632329 0)
(0.999962 0.000216116 1.3168e-20)
(0.97642 0.0097388 -1.30381e-22)
(1.00153 0.00962075 -9.47222e-20)
(1.0581 0.0547846 2.03554e-20)
(0.996165 0.00327892 5.83114e-20)
(0.639873 0.245946 0)
(0.55112 0.421265 -3.30606e-20)
(1.28673 -0.100696 -8.10774e-21)
(1.0717 0.0209933 -1.47189e-20)
(0.934996 0.166186 6.6578e-20)
(1.00851 0.0232762 0)
(0.973159 0.183952 8.44144e-20)
(1.17515 -0.0181399 1.76814e-21)
(1.00214 0.00551482 6.71816e-20)
(0.904282 0.0833154 -7.55753e-20)
(0.932755 0.328703 -1.22805e-19)
(-0.103502 0.117885 5.01767e-20)
(1.12845 -0.11929 -1.28129e-21)
(1.11264 0.278722 -8.62273e-20)
(1.08185 0.0629191 0)
(0.998954 0.0425812 0)
(1.00004 0.00114252 0)
(1.07695 0.00413359 2.15427e-20)
(1.06182 0.0505532 -1.74254e-20)
(1.08871 -0.0596876 4.39924e-21)
(1.0165 0.005042 1.17396e-19)
(1.04019 0.0612931 0)
(1.24236 0.0762779 0)
(1.00003 0.000137175 0)
(0.990486 0.0100404 -7.85401e-20)
(1.07478 6.9649e-05 -2.12377e-20)
(0.00147366 0.0664347 -4.73112e-20)
(0.970685 0.0616282 0)
(1.06634 0.107921 5.78949e-21)
(1.11469 -0.0961199 0)
(0.999948 0.000527067 0)
(0.41444 0.0360478 3.85318e-20)
(1.01642 0.00590965 2.42443e-20)
(1.00681 0.0144042 4.99181e-20)
(1.00547 0.0528092 -1.10843e-20)
(1.0348 0.0176514 3.39044e-20)
(-0.254202 0.00817619 -1.28343e-19)
(1.18309 -0.0337463 0)
(-0.0442061 0.0778055 0)
(1.0018 0.000816797 -5.3221e-20)
(1.23137 0.40881 -7.72713e-20)
(-0.0152023 0.042892 4.7403e-20)
(1.34254 0.0740885 4.2039e-20)
(1.08981 -0.0566556 0)
(1.18964 -0.0161484 0)
(1.26029 0.0910818 -4.863e-21)
(1.00297 0.190591 8.25866e-21)
(0.979995 0.0170368 6.70296e-20)
(0.997607 0.0235704 0)
(0.894303 0.0882332 0)
(-0.295681 0.00105049 9.18986e-21)
(1.01002 0.0234176 -9.07884e-21)
(0.967347 0.123051 -3.73763e-21)
(0.195041 0.0744652 0)
(0.99338 0.0139526 0)
(1.00329 0.0109133 4.84849e-20)
(1.01572 0.0320478 4.89552e-20)
(0.988532 0.0613558 5.03954e-20)
(1.00136 0.00974491 0)
(1.04298 0.00539861 0)
(1.17237 0.246858 0)
(1.03855 0.1363 0)
(1.04196 0.00565007 0)
(1.00075 0.00831954 -3.1918e-20)
(-0.234913 0.000765281 5.45531e-20)
(0.0335618 0.110007 -2.38226e-20)
(1.00787 0.0236755 0)
(0.989965 0.00361857 0)
(1.00049 0.000669133 0)
(0.999198 0.0175253 3.72924e-20)
(1.26247 0.314615 1.95853e-20)
(1.18118 -0.0401588 -1.30829e-21)
(0.99802 0.446521 6.93702e-21)
(0.986564 0.0539397 0)
(1.00328 0.011319 1.53667e-22)
(1.03511 0.0123047 0)
(0.947258 0.0109564 -5.89862e-20)
(0.997807 0.00523656 0)
(1.11786 0.00836231 1.23055e-21)
(0.966088 0.0403232 -1.47237e-20)
(0.149114 0.00502981 -1.02652e-19)
(0.99959 0.00832492 -4.59069e-20)
(1.00124 0.00395561 6.40303e-20)
(1.04587 0.179923 -5.28054e-20)
(1.00982 0.0224599 0)
(1.09981 -0.0396698 -8.30325e-21)
(0.870575 0.272649 9.17641e-20)
(1.06106 0.00680868 0)
(0.676741 0.558408 2.06839e-20)
(-0.0651163 0.0959652 0)
(0.997337 0.0425972 -3.67365e-20)
(1.00182 0.0185566 -3.58009e-20)
(0.653493 0.0454082 -2.71666e-20)
(-0.293939 -0.00958087 -1.49235e-20)
(0.984727 0.166962 -6.15716e-20)
(1.04206 0.0157741 2.44623e-20)
(1.22428 0.0156585 0)
(0.740049 0.398676 2.60103e-20)
(0.913607 0.0362873 -5.17151e-20)
(0.98089 0.0161709 -6.28925e-20)
(1.00282 0.00174209 0)
(1.0044 0.0058503 8.57001e-22)
(1.05134 0.441938 0)
(1.07028 0.0220187 0)
(0.765838 0.295561 7.42242e-20)
(1.00001 0.000404773 0)
(-0.248927 0.0663367 0)
(1.30493 0.263473 1.75857e-20)
(0.992748 0.00551147 0)
(0.997604 0.00867152 -7.17212e-20)
(0.653152 0.233541 -2.22689e-19)
(0.999216 0.00239191 1.23743e-19)
(1.01085 0.00557201 -4.12958e-20)
(1.00009 0.0919147 0)
(-0.154199 -0.0159351 -2.95576e-21)
(-0.0721717 0.123588 0)
(0.461692 0.0314858 1.21491e-20)
(1.0481 -0.00411272 -3.72376e-20)
(1.18037 0.0117449 -8.19229e-21)
(1.00356 0.182221 0)
(1.01449 0.00474229 5.90928e-20)
(1.00927 0.000400843 -3.20014e-20)
(0.999561 0.00115774 0)
(1.06326 0.428173 3.98827e-21)
(1.00015 0.00139468 5.18036e-20)
(0.993139 0.00675058 -7.25712e-20)
(1.17915 0.00803029 7.33408e-21)
(0.97407 0.0113354 0)
(1.15882 0.15133 -6.46985e-21)
(1.00093 0.000969488 1.50534e-20)
(0.998448 0.00300775 0)
(1.01167 0.0011293 -5.53972e-20)
(0.99901 0.00131906 3.64222e-20)
(1.27402 0.0447718 -1.31416e-21)
(1.00016 0.00156176 -5.80023e-20)
(1.00154 0.0268141 4.57928e-20)
(1.14377 0.0424018 7.84275e-21)
(0.924708 0.250361 -9.41997e-20)
(0.795549 0.514916 0)
(1.00002 0.00164191 0)
(1.20693 0.126807 0)
(-0.0156072 0.120127 2.34535e-20)
(0.329105 0.0552103 5.85109e-20)
(0.965861 0.0494335 -5.93548e-20)
(-0.232509 0.00924758 0)
(-0.102266 -0.0090179 0)
(0.993712 0.0136508 0)
(1.01697 0.00260638 8.80603e-20)
(0.981982 0.0526427 -4.98989e-20)
(0.945932 0.0352735 -7.26136e-20)
(-0.0625287 0.129639 -5.56645e-20)
(1.0281 0.0686587 4.29315e-20)
(1.00071 0.00282762 0)
(1.00013 0.00146936 0)
(0.0358867 0.109703 5.05602e-20)
(0.975192 0.176223 -7.12151e-20)
(1.0466 -0.00435027 4.0821e-21)
(1.00056 0.00235258 -6.90499e-21)
(0.989623 0.00477914 4.50906e-20)
(1.08563 0.160132 4.38558e-20)
(1.01031 0.00589864 3.71595e-20)
(1.00762 0.000608772 4.7216e-20)
(1.11076 -0.00447199 3.41506e-20)
(0.987723 0.0588617 -4.84166e-20)
(0.999654 0.000938662 0)
(1.02993 0.0190627 2.99352e-20)
(0.692135 0.627173 -4.67829e-20)
(1.03567 0.0197578 -3.45538e-20)
(0.992803 0.0592821 -2.96453e-21)
(0.99585 0.00253184 0)
(1.00017 0.0512784 -3.07041e-20)
(1.21672 0.206613 -2.0125e-20)
(1.00004 0.00180231 -3.00788e-20)
(0.975569 0.058066 -5.77749e-20)
(0.99746 0.0030376 5.93901e-21)
(1.07969 0.0305888 0)
(0.621531 0.549308 0)
(0.999999 9.88379e-05 -4.82835e-20)
(0.809073 0.494581 -4.14816e-20)
(1.04724 0.0864015 2.54906e-20)
(-0.0600748 0.129333 5.02533e-21)
(1.01587 0.000524604 -2.64993e-20)
(1.03515 0.0660021 6.4925e-22)
(1.10732 -0.00624685 -1.77414e-20)
(1.20505 0.131297 8.08859e-21)
(0.773653 0.137797 1.11596e-19)
(0.965916 0.0387701 4.68572e-20)
(1.02588 0.245822 3.35723e-20)
(0.952136 -0.0418694 0)
(0.960108 0.0253351 -1.3746e-20)
(1.01163 0.000644772 1.41282e-21)
(1.34998 0.0668644 2.09904e-20)
(0.997502 0.00223692 4.57839e-20)
(1.00002 0.000773701 -5.57262e-20)
(1.0149 0.0142172 -2.09292e-22)
(1.00003 0.000891591 -6.50821e-21)
(1.16041 0.0804291 0)
(1 1.50945e-05 0)
(0.999994 0.000103318 0)
(0.857795 0.268211 -5.34124e-20)
(1.01956 0.117297 0)
(1.01409 6.57761e-05 1.20393e-19)
(0.918857 0.122065 1.22237e-19)
(0.950949 0.0182497 1.44513e-19)
(0.376155 0.0245736 -2.5111e-20)
(1.06344 0.0189912 2.17354e-20)
(0.782211 0.574153 2.31458e-20)
(0.99996 0.0183402 -1.96338e-22)
(1.16867 -0.0198891 -1.22047e-21)
(0.982843 0.174702 1.02267e-21)
(0.112152 0.0895836 3.68776e-20)
(1.07104 0.0349234 -4.97769e-20)
(-0.195638 -0.0482735 0)
(1.00001 0.000413973 0)
(1.06849 -0.0219068 0)
(1.0019 0.00305207 1.34741e-20)
(0.999737 0.04101 -6.70774e-20)
(0.988767 0.0196875 8.36506e-20)
(1.24888 -0.0136379 -4.193e-21)
(0.853572 0.146967 0)
(1.10946 -0.0763469 9.22925e-21)
(-0.225475 -0.0334371 0)
(1.00065 0.0031931 5.55995e-20)
(0.882661 0.902303 0)
(1.06605 -0.0260177 -1.7785e-20)
(1.02419 0.0221762 6.17176e-20)
(0.866475 0.0684784 -8.73609e-20)
(1.10395 0.0531924 7.57526e-21)
(-0.0588437 0.104345 -4.53158e-20)
(0.997308 0.00878707 5.88417e-20)
(0.942472 0.101768 5.27643e-20)
(0.922061 0.237431 0)
(1.02358 0.0696161 0)
(0.826726 0.13937 -6.06213e-21)
(1.00001 0.000170216 -4.88778e-20)
(1.01598 0.00292296 0)
(1.00001 0.000156323 9.40571e-20)
(0.947726 0.476476 1.99105e-20)
(0.999134 0.00307087 2.13005e-20)
(1.00198 0.00608984 2.23643e-20)
(1.01386 0.0135625 -4.96279e-20)
(1.0108 0.00106805 -5.70872e-20)
(1.00222 0.0103125 1.00775e-22)
(1.00047 0.00864013 -5.46144e-20)
(1.02943 0.0445348 2.82245e-20)
(1.00408 0.0157379 3.41819e-20)
(0.999179 0.00213782 -3.94679e-20)
(0.956285 0.0108911 -5.17155e-20)
(1.00277 0.0947701 0)
(0.925254 0.120172 8.85724e-21)
(0.994106 0.00335636 0)
(-0.0452953 0.123601 -3.64592e-20)
(1.0034 0.0367433 6.74727e-20)
(1.24891 0.410377 -4.32418e-20)
(0.889663 0.153138 0)
(-0.153141 0.124013 0)
(1.10815 0.0999579 -1.03413e-20)
(1.06701 -0.0203225 -4.55279e-21)
(-0.165409 0.0150391 2.68466e-22)
(1.12218 0.0410268 0)
(0.98212 0.46693 2.86497e-21)
(0.474351 0.0408237 1.17006e-19)
(1.08744 0.154021 -2.72132e-20)
(1.00013 0.00163125 -2.86197e-20)
(1.00581 0.0137632 3.46062e-20)
(1.00539 0.0638428 -4.8956e-20)
(1.2242 0.203506 2.31316e-20)
(1.01457 0.0320459 0)
(-0.090702 0.0254996 1.66514e-22)
(1.00538 0.029551 3.37372e-21)
(0.892776 0.668539 -2.13318e-20)
(0.608496 -0.00258944 3.34485e-20)
(1.10765 -0.0935315 7.374e-21)
(1.05687 0.0264197 1.16913e-20)
(-0.0697408 0.0334473 0)
(-0.225422 0.12977 5.78929e-20)
(0.940924 0.0154196 1.6651e-20)
(0.993753 0.00467439 6.54168e-20)
(0.999955 0.000314816 -8.33956e-21)
(1.07267 0.00390677 0)
(1.01618 0.00280796 0)
(1.01282 0.00102273 -6.16361e-20)
(1.09738 0.206185 0)
(1.24207 -0.173032 -3.9359e-20)
(0.997566 0.00271311 3.78669e-20)
(1.01362 0.031491 -8.21924e-20)
(0.958443 0.0102343 -4.97209e-20)
(1.19712 0.385515 5.46054e-20)
(1.12688 -0.0934896 0)
(0.99951 0.00272732 1.70688e-20)
(1.04545 0.0823726 -6.82968e-20)
(1.21542 0.0873077 1.35175e-20)
(0.996877 0.0531787 0)
(1.00038 0.00732701 -8.40576e-20)
(-0.120586 0.0231376 4.80622e-20)
(0.985984 0.0436245 0)
(0.995487 0.0199355 0)
(0.794386 0.936375 0)
(0.996751 0.0795015 0)
(0.978594 0.00711609 5.75676e-20)
(-0.141394 0.00730419 1.71195e-21)
(0.305908 0.0477343 0)
(0.0190774 0.0492757 0)
(0.990953 0.0118467 0)
(0.97595 0.0610557 8.68758e-22)
(1.29779 0.0850905 2.24449e-20)
(1.01426 0.0141528 2.02452e-22)
(1.02341 0.0296076 4.53375e-20)
(0.999991 0.000213661 0)
(1.08053 -0.0351908 1.86641e-20)
(0.997856 0.00594616 8.18642e-20)
(1.001 0.000919009 0)
(1.05106 -0.0175016 -5.87852e-20)
(0.7844 0.11599 1.00614e-19)
(0.876231 0.430248 6.6993e-20)
(1.01027 0.0152325 -4.88995e-20)
(0.982009 0.0124152 6.15112e-20)
(0.997449 0.00175072 -8.95286e-20)
(1.02281 0.027511 2.22726e-20)
(0.983816 0.0509648 0)
(1.01516 0.00321291 4.67082e-20)
(1.25237 0.0898417 2.58709e-20)
(1.00046 0.121117 0)
(0.993066 0.0311934 -5.97514e-20)
(0.995794 0.00773517 1.10104e-19)
(1.01148 0.0141305 5.4876e-20)
(1.00297 0.00576589 8.63617e-21)
(1.03749 0.0429325 -4.3294e-21)
(-0.129823 -0.00776604 -2.21095e-20)
(1.10212 0.0214738 -2.05034e-20)
(1.02767 0.00134119 2.01624e-20)
(0.994129 0.0111757 3.61575e-20)
(0.843322 0.147656 0)
(0.062429 0.0988145 -7.33724e-20)