/*--------------------------------*- C++ -*----------------------------------*\
| =========                 |                                                 |
| \\      /  F ield         | OpenFOAM: The Open Source CFD Toolbox           |
|  \\    /   O peration     | Version:  v2012                                 |
|   \\  /    A nd           | Website:  www.openfoam.com                      |
|    \\/     M anipulation  |                                                 |
\*---------------------------------------------------------------------------*/
FoamFile
{
    version     2.0;
    format      ascii;
    class       volScalarField;
    location    "200";
    object      k_0;
}
// * * * * * * * * * * * * * * * * * * * * * * * * * * * * * * * * * * * * * //

dimensions      [0 2 -2 0 0 0 0];


internalField   nonuniform List<scalar> 
18758
(
0.000174511
0.00547558
0.000144235
0.0406351
0.0749157
0.0768902
0.0085954
0.000145869
0.000212358
0.000156605
0.00015276
0.0563412
0.000148172
0.000218277
0.000152223
0.000195835
0.0001714
0.000147467
0.000148445
0.000158874
0.0302996
0.000149794
0.0424749
0.00851878
0.000528119
0.000145893
0.000247111
0.073513
0.0600103
0.000451729
0.000186566
0.0379762
0.000149142
0.000150965
0.000202047
0.000149067
0.000149463
0.000148632
0.000149608
0.00017276
0.000148635
0.000154797
0.000145876
0.000154691
0.000358643
0.000145188
0.0408274
0.000153097
0.00015626
0.000145612
0.000185264
0.0736362
0.000144725
0.00015239
0.0706867
0.0115201
0.000149395
0.000185889
0.000147861
0.000221982
0.000173002
0.0100639
0.000189875
0.000150373
0.000144786
0.000148032
0.000173612
0.000149109
0.000148263
0.0724127
0.0697686
0.000149263
0.000145679
0.000792488
0.000145877
0.000147797
0.000217507
0.0742087
0.000168627
0.0297878
0.0614088
0.00115428
0.000221852
0.0746461
0.000219659
0.000161061
0.0533303
0.00018956
0.000978181
0.000147789
0.0715895
0.000147866
0.0373327
0.000155177
0.0629197
0.0305642
0.000217721
0.000145905
0.000147353
0.0352109
0.000159843
0.0665356
0.000187823
0.000166993
0.0317095
0.000262166
0.0470379
0.0762229
0.000150604
0.000149293
0.0392291
0.00095047
0.000146171
0.000148306
0.074929
0.0203441
0.0273318
0.000152281
0.0425709
0.0600599
0.00016595
0.000148013
0.0763637
0.000231132
0.000214448
0.000237287
0.00239089
0.000893357
0.0303889
0.000148434
0.000172101
0.000242496
0.0161005
0.000163397
0.000464693
0.000152035
0.000216244
0.000173717
0.000147331
0.000166813
0.000168633
0.000180975
0.000147895
0.0249576
0.000148669
0.000148871
0.0256045
0.0313326
0.000186316
0.0805998
0.000600632
0.0186753
0.00016086
0.000149791
0.0495281
0.00015857
0.037254
0.000153087
0.000148734
0.00014992
0.000146611
0.000220486
0.0384802
0.000148702
0.000173328
0.0662108
0.000148636
0.0782322
0.000190459
0.0786975
0.0413667
0.000147436
0.0427266
0.0738952
0.000219899
0.00529601
0.0746845
0.000150565
0.000166691
0.000148976
0.000146433
0.00782551
0.0132693
0.000146344
0.000155997
0.00348498
0.000147625
0.0240618
0.000145682
0.000147716
0.000163488
0.000491184
0.000149542
0.000184937
0.000159528
0.000189599
0.000159278
0.000193997
0.000148897
0.000145806
0.000165872
0.000152945
0.000162436
0.00018277
0.000148081
0.000159342
0.00018813
0.000149848
0.0300768
0.000156176
0.000147381
0.000167604
0.000148842
0.000162634
0.0001669
0.0594696
0.000167613
0.000193935
0.000145406
0.0778759
0.000147382
0.000150649
0.000215213
0.0306188
0.000200694
0.000187703
0.000173494
0.000163426
0.000146001
0.000182683
0.000148002
0.000189387
0.0418552
0.000222851
0.000148291
0.000147628
0.000146008
0.000145349
0.0730859
0.000163581
0.000146785
0.000284952
0.0491383
0.000151649
0.0775325
0.0201555
0.000221855
0.000149114
0.0621207
0.000156729
0.000148923
0.0781018
0.000161169
0.000156959
0.000150725
0.000167506
0.00090182
0.000199593
0.000162221
0.000168428
0.000147139
0.000183106
0.000148074
0.000182539
0.000155818
0.00021515
0.0159591
0.000145412
0.000150328
0.000194911
0.000150141
0.000155641
0.000182295
0.0744415
0.0223114
0.000147858
0.000182958
0.00728662
0.000451088
0.000150007
0.000147256
0.000158957
0.000163639
0.000147862
0.00639263
0.000242585
0.00790251
0.00943629
0.0441608
0.000146006
0.000144176
0.000164393
0.0650178
0.00015386
0.000168281
0.0001867
0.000158784
0.0587029
0.00014829
0.000506438
0.0758761
0.000145268
0.0638104
0.000160711
0.000148388
0.000160882
0.000180056
0.000151478
0.000148956
0.0153184
0.00457854
0.000147495
0.0101757
0.0595875
0.000198243
0.000148007
0.000149285
0.0050698
0.000151568
0.000146234
0.000147443
0.000150757
0.000191326
0.000180209
0.000158902
0.000162896
0.000158874
0.000164223
0.000146993
0.000149847
0.000783297
0.000166698
0.000184491
0.0392725
0.000154125
0.000149397
0.000149816
0.000458182
0.0644025
0.000146098
0.000147296
0.000146101
0.000151865
0.000162735
0.000392917
0.000148002
0.00014902
0.00014561
0.000205106
0.000179864
0.000195479
0.000179367
0.000151461
0.000389684
0.000173686
0.000164659
0.000157585
0.0506391
0.032618
0.00871347
0.00014816
0.000160071
0.0058817
0.0773777
0.000153931
0.000146029
0.000174905
0.00014853
0.000161472
0.0232775
0.0280892
0.000202132
0.000158422
0.0193416
0.000148124
0.000152912
0.000147474
0.000149655
0.000197468
0.000153475
0.0121436
0.000182127
0.000150503
0.000147512
0.0301146
0.000200986
0.000211434
0.000148114
0.000180075
0.000147165
0.000154276
0.000148015
0.000145465
0.0266635
0.032325
0.000222441
0.051693
0.000147352
0.000210889
0.0513238
0.000167727
0.000146139
0.0382962
0.000147344
0.000149112
0.000146406
0.000198484
0.000147931
0.00015459
0.000178723
0.0768664
0.000147349
0.0730595
0.000172909
0.00014804
0.000156608
0.000147956
0.000147312
0.000158214
0.000181189
0.000163553
0.0122106
0.000166698
0.00014818
0.000191547
0.0682739
0.0334389
0.0395917
0.000197587
0.000149817
0.000145461
0.000146802
0.0001489
0.000202471
0.00017126
0.000164716
0.000160205
0.000160999
0.00500212
0.000188278
0.000147931
0.000162619
0.000843151
0.0001504
0.0288263
0.000150848
0.000148444
0.0364554
0.000156079
0.000150177
0.000746065
0.000202444
0.000164421
0.0294178
0.000147832
0.000149982
0.000202277
0.0525294
0.000159756
0.000172479
0.000219615
0.00162631
0.00959654
0.000218489
0.000149196
0.000188405
0.000148289
0.000203037
0.000151551
0.0378679
0.00017972
0.00238582
0.000164496
0.000189695
0.000145269
0.00775038
0.000145711
0.0265852
0.000147507
0.000195433
0.000148241
0.00392995
0.000162207
0.000148454
0.000147384
0.000146349
0.055347
0.0234966
0.0726923
0.000173664
0.000155075
0.000180418
0.000149786
0.000149909
0.0744821
0.000147397
0.000148303
0.000186868
0.000148118
0.000171932
0.000180432
0.000148275
0.000147919
0.000155813
0.000150196
0.000159092
0.0763018
0.000164848
0.000159308
0.000156189
0.000148205
0.000344798
0.000149362
0.000150588
0.000348292
0.0223591
0.000188571
0.0147118
0.000154178
0.000150512
0.0277943
0.000148539
0.0251884
0.000192948
0.000148407
0.0785241
0.000653063
0.000175486
0.0001474
0.000166231
0.0707621
0.000148657
0.000147896
0.000152399
0.000151423
0.000148952
0.000146025
0.000149957
0.0704902
0.000155291
0.0673415
0.000148025
0.000190293
0.0130376
0.000148111
0.000145745
0.000155185
0.000148756
0.000150189
0.000151167
0.000148892
0.000189678
0.000204233
0.0001448
0.0717617
0.064862
0.000159097
0.000188398
0.000439306
0.000154635
0.000163944
0.000159203
0.0710346
0.000155167
0.000175545
0.000148083
0.0106923
0.000169353
0.000179792
0.000197814
0.00807203
0.000155035
0.000147732
0.000173835
0.000438775
0.000150008
0.000204587
0.000148982
0.0573499
0.000150425
0.000147467
0.000146327
0.000148162
0.0660039
0.0594585
0.000148184
0.000242014
0.000157717
0.0378053
0.0296908
0.00375606
0.00117066
0.000148505
0.0768541
0.000184704
0.000148083
0.000174238
0.0729175
0.0303166
0.00015087
0.000149926
0.000148166
0.000144518
0.0314031
0.000189906
0.071759
0.0465103
0.000148369
0.000148838
0.000176262
0.000149865
0.000146617
0.000151123
0.00015185
0.000190236
0.000169002
0.000191461
0.0765385
0.000172858
0.000148283
0.000155625
0.000181543
0.0760991
0.000174317
0.00388573
0.000171834
0.000148209
0.000239512
0.0402922
0.00014971
0.000146303
0.000171861
0.0700084
0.000193756
0.000148122
0.027634
0.0098302
0.000580952
0.000145575
0.0047243
0.0140038
0.049827
0.000153458
0.000149247
0.0721049
0.00014996
0.000216199
0.0317961
0.000200762
0.00911998
0.000188668
0.0430698
0.000181436
0.000148497
0.000149867
0.0302596
0.035258
0.0123262
0.0309229
0.00014856
0.000215948
0.000149835
0.000173875
0.000190614
0.000183877
0.000148444
0.000153695
0.000209317
0.0711978
0.0328546
0.0111211
0.000165186
0.000159907
0.000224832
0.000149106
0.000146941
0.000147751
0.000156843
0.000187603
0.000148123
0.000189168
0.000146918
0.000148721
0.000147211
0.0746921
0.000149348
0.000149778
0.000175161
0.00017311
0.000144854
0.0209252
0.000148546
0.000147399
0.000171818
0.000159579
0.000155412
0.000150839
0.00215807
0.000159265
0.000161476
0.0391966
0.000161598
0.0380766
0.000154096
0.000190294
0.0479634
0.0261896
0.000146196
0.0712209
0.00183858
0.000145669
0.0413046
0.000148288
0.000147123
0.000167564
0.000147516
0.000175724
0.0746177
0.00014565
0.0423272
0.000148392
0.000165788
0.0330534
0.000144687
0.0687689
0.000151909
0.000148607
0.000147616
0.000147742
0.000204574
0.000165735
0.017881
0.000173208
0.0738727
0.000175926
0.000148132
0.000213138
0.0136973
0.00248649
0.000166194
0.000195377
0.000184746
0.000156604
0.00020415
0.000150439
0.00259021
0.000148068
0.00528157
0.000151119
0.000166364
0.000155839
0.000149841
0.0456987
0.000149939
0.000146655
0.00138312
0.000151921
0.000147232
0.000172091
0.000179543
0.000205608
0.00072172
0.0257905
0.0407962
0.000148783
0.000149307
0.0321497
0.000147922
0.000273626
0.000189997
0.000152939
0.0001483
0.000160612
0.000147959
0.000148444
0.000160511
0.000243828
0.000191411
0.00017201
0.000169795
0.000148782
0.000180802
0.0728517
0.000146972
0.00019126
0.000153358
0.0737339
0.000151025
0.0556809
0.000148031
0.00203356
0.00014983
0.000185762
0.000148125
0.000156315
0.00016291
0.000144737
0.000147266
0.000145077
0.0593955
0.00889541
0.000164521
0.072044
0.000148248
0.00017081
0.000158603
0.000218007
0.0302523
0.00016469
0.000144933
0.000180451
0.000146925
0.00014825
0.000158692
0.0235108
0.0756347
0.000670903
0.00591913
0.000165817
0.000150604
0.00014749
0.00163231
0.000147147
0.00113378
0.000158484
0.000149165
0.0819635
0.0816997
0.000148496
0.0226676
0.000156491
0.000203217
0.000169683
0.0135126
0.0808119
0.000304858
0.000147814
0.000144705
0.0766643
0.000147904
0.000148223
0.0001591
0.000147991
0.0487327
0.000232808
0.000176302
0.0651429
0.000173041
0.000201244
0.000153211
0.000147765
0.00014465
0.000146356
0.0223057
0.0276755
0.000244692
0.000148274
0.000144871
0.000163539
0.000147231
0.00016771
0.000154196
0.000713344
0.0767365
0.000188598
0.000231143
0.000247815
0.000148021
0.000202597
0.000147509
0.0328128
0.00158523
0.0425397
0.0566569
0.000151988
0.000160685
0.000771877
0.0644894
0.0447654
0.000161538
0.000182902
0.0342506
0.000148166
0.000225294
0.000242001
0.000204202
0.000148122
0.000148472
0.00016913
0.0452767
0.000344659
0.000170957
0.000147998
0.000155687
0.000156176
0.0195537
0.000149656
0.000232262
0.00014724
0.00015017
0.000196036
0.00014698
0.000148029
0.000151755
0.00015577
0.000147671
0.000150399
0.000145644
0.0213436
0.000255034
0.0371584
0.000146123
0.000163018
0.000148038
0.000215812
0.000209844
0.000161544
0.000147272
0.00015141
0.000219077
0.000196067
0.000159839
0.0281402
0.000203547
0.000147903
0.000148366
0.0383816
0.00141674
0.000168884
0.000145328
0.00115243
0.000148731
0.000164974
0.000145935
0.000357827
0.0508126
0.00014691
0.000148892
0.001768
0.00014777
0.0746537
0.0227106
0.000180983
0.000149186
0.000149023
0.000145911
0.000148075
0.00895982
0.00833663
0.000185222
0.00015091
0.0469746
0.000147658
0.000147716
0.0793678
0.000147117
0.0783988
0.000144573
0.000156357
0.000151165
0.000147707
0.000147169
0.000148693
0.038428
0.000150238
0.000149228
0.000172812
0.000169383
0.000147672
0.000172613
0.000162527
0.000148733
0.000182604
0.000147679
0.000161474
0.0560805
0.000199179
0.000147869
0.000241427
0.000194667
0.00017905
0.000155376
0.000181742
0.0417001
0.00015386
0.000175996
0.000147731
0.000146012
0.000147932
0.000175155
0.000162744
0.000175834
0.000148114
0.000158071
0.000185101
0.019653
0.000224947
0.000147697
0.000146494
0.000150711
0.000175176
0.000146652
0.0232693
0.000147738
0.00014786
0.000146494
0.000187265
0.0645993
0.000148944
0.000152782
0.000147067
0.000190353
0.000146548
0.00014802
0.0045747
0.000149785
0.000146134
0.000148766
0.00018656
0.000146452
0.000147891
0.0442987
0.0103024
0.000196409
0.000161137
0.06606
0.000163188
0.000147716
0.000147428
0.0115005
0.000148024
0.000181488
0.000188255
0.000168559
0.000154899
0.000150102
0.00015843
0.000150581
0.000145357
0.000196899
0.0763257
0.000163639
0.000146389
0.0685994
0.000174032
0.0123948
0.00814191
0.000202337
0.000148838
0.000148191
0.000148105
0.000180984
0.000148736
0.000147145
0.0711316
0.000173643
0.000174333
0.000147432
0.000170444
0.000242859
0.000148512
0.000154962
0.00016206
0.000171646
0.000182813
0.000148232
0.000152209
0.00016661
0.000146635
0.000165341
0.000149236
0.00257363
0.00017401
0.000189122
0.000147416
0.000164531
0.0659463
0.041236
0.000300562
0.000168901
0.0199447
0.000148763
0.000147736
0.000150726
0.000179954
0.000149052
0.000151378
0.000157794
0.000181216
0.000147854
0.000147558
0.000148812
0.000149833
0.000250975
0.0283406
0.000924603
0.000147954
0.020394
0.000156546
0.000148946
0.000164521
0.000148147
0.000181112
0.000151254
0.000148013
0.0499876
0.0070728
0.0608024
0.000150104
0.0100692
0.000148011
0.044856
0.0526667
0.000145186
0.000180727
0.000237587
0.000145366
0.000147578
0.00744004
0.000149895
0.000148005
0.000193964
0.000455339
0.000148036
0.00016216
0.000148915
0.000155353
0.000196066
0.000149033
0.0565347
0.00017275
0.000147592
0.000400367
0.000167794
0.00018494
0.000149916
0.000244369
0.000148338
0.0745723
0.000147988
0.000146586
0.0555819
0.000145769
0.0639612
0.000147631
0.000172387
0.0657082
0.0710585
0.000148029
0.000149293
0.000148068
0.000151064
0.000156863
0.000154684
0.000144313
0.0111587
0.000147183
0.000148565
0.000186498
0.000180043
0.000163687
0.000148031
0.0126435
0.000182053
0.000149965
0.000158912
0.000147611
0.000147246
0.0687636
0.000145406
0.000146636
0.000147431
0.0673245
0.000147868
0.000147081
0.0727483
0.000155467
0.0396804
0.000164801
0.000144536
0.000147041
0.00371105
0.000157436
0.000148021
0.0740843
0.041765
0.000146438
0.0476209
0.000188313
0.000148507
0.000148317
0.000190739
0.000149433
0.00106477
0.00016012
0.000148066
0.000665049
0.038442
0.000213799
0.00014775
0.0310564
0.000157972
0.000187681
0.00764837
0.000147579
0.0266341
0.000147956
0.000157645
0.000157576
0.0706012
0.00014569
0.000150235
0.00337181
0.000149809
0.000159059
0.000145728
0.000148469
0.0354949
0.000179452
0.000153645
0.000164043
0.00103713
0.000149267
0.000152087
0.000174087
0.000198142
0.000156086
0.00014795
0.000147542
0.000148884
0.000150509
0.000146819
0.000159917
0.000156954
0.000399206
0.000147899
0.00505002
0.000148045
0.000160457
0.000147754
0.000161042
0.00014845
0.000147731
0.0421655
0.0551434
0.000153237
0.000148516
0.0295675
0.000156996
0.0554208
0.000159535
0.000165558
0.0436001
0.00936331
0.0501591
0.000151937
0.000148806
0.000146517
0.0436607
0.000147477
0.000148026
0.000174327
0.000147277
0.000149175
0.000148304
0.0157611
0.00138193
0.000149144
0.000403128
0.0751501
0.000153557
0.000147418
0.000148842
0.0543047
0.00014728
0.000199721
0.000149915
0.000147733
0.000149099
0.000146359
0.000184231
0.000148572
0.000148265
0.00014739
0.000145471
0.000246767
0.000145277
0.000147595
0.000149227
0.000147967
0.000233404
0.00156062
0.000167548
0.000149965
0.000148265
0.000149228
0.000149463
0.0521575
0.000147857
0.000159299
0.000166959
0.049152
0.000147565
0.000147438
0.0527507
0.000148733
0.00017546
0.000179908
0.000150089
0.0549528
0.0584429
0.000157389
0.015241
0.000158726
0.000204743
0.000144689
0.00749699
0.00014819
0.00175008
0.000148232
0.000147093
0.0109388
0.00027141
0.00020315
0.000171479
0.000147375
0.078473
0.00014911
0.0787033
0.000175076
0.000147385
0.000144753
0.00014854
0.000171266
0.000166819
0.07214
0.000170925
0.000147454
0.000147411
0.000148477
0.0194735
0.000178938
0.000159531
0.000148878
0.000147382
0.000160568
0.000216664
0.000148654
0.000159654
0.000165534
0.000147852
0.000153325
0.000150907
0.000175655
0.000175014
0.00015374
0.000166641
0.000145828
0.000148004
0.0263009
0.000165829
0.000181669
0.00701818
0.0001454
0.0230548
0.00215605
0.000163079
0.0803562
0.000147734
0.0416115
0.0673945
0.000196909
0.000146443
0.0778688
0.000198491
0.000147837
0.000167968
0.0477115
0.000150186
0.000147711
0.000164886
0.000149791
0.0256393
0.000157816
0.000149043
0.000149871
0.000147176
0.000165172
0.000165643
0.0231058
0.000195669
0.0405878
0.000174249
0.000149719
0.000147757
0.000234826
0.0190067
0.000148052
0.000147499
0.000189175
0.000149189
0.000237794
0.0398245
0.026866
0.00014799
0.000148069
0.0812892
0.000146549
0.0756117
0.000218216
0.000147044
0.0646147
0.000174598
0.000167778
0.000147915
0.006431
0.000148083
0.00037214
0.000144466
0.000173095
0.000151451
0.000145904
0.0761577
0.000151068
0.000148035
0.000152258
0.0412605
0.000148416
0.000145238
0.0290574
0.000147559
0.0001469
0.000148713
0.000156031
0.000148291
0.000149169
0.000156361
0.000149126
0.000154523
0.000145721
0.000187267
0.0315002
0.000172889
0.0421901
0.000159959
0.000154635
0.000147287
0.00014672
0.000149175
0.0312844
0.0473319
0.000148093
0.000149838
0.00014753
0.0238264
0.00014518
0.000218536
0.00110145
0.0556004
0.0627049
0.0295025
0.0453673
0.000146831
0.0300151
0.0395359
0.0565592
0.000154942
0.000148846
0.000172787
0.000145747
0.0101702
0.00019654
0.000175875
0.000157028
0.0265326
0.000147986
0.000144314
0.0441327
0.000197426
0.00014814
0.000144592
0.000173738
0.000148707
0.026701
0.0101617
0.029989
0.0484521
0.000187128
0.000636283
0.000147959
0.000214397
0.000148629
0.000147964
0.000146768
0.0381425
0.00014908
0.000147452
0.000435271
0.0365628
0.000202253
0.000197421
0.000151113
0.000165326
0.023294
0.0183999
0.0447397
0.0400496
0.000171662
0.0634794
0.000180583
0.000708968
0.000173091
0.000172055
0.00014731
0.000161045
0.000164942
0.000148233
0.0441282
0.000146991
0.000148114
0.000147976
0.0795572
0.000154105
0.000146595
0.000147096
0.000147976
0.000176405
0.000169676
0.00127568
0.000151048
0.0347961
0.000144626
0.000147659
0.00018304
0.000167115
0.000144426
0.0572449
0.000170871
0.0664475
0.000147792
0.032611
0.000166808
0.000147667
0.000148298
0.000147996
0.0329816
0.0706701
0.014458
0.000147725
0.000148968
0.000145049
0.0679232
0.000156587
0.000148315
0.000597852
0.000147842
0.000150461
0.0470428
0.000146262
0.000147879
0.000148349
0.000149876
0.00014457
0.000150436
0.000144505
0.000149019
0.000186584
0.000166393
0.000146755
0.0202777
0.000153147
0.074987
0.0171473
0.000165504
0.0578899
0.0674425
0.000147412
0.000171387
0.000148043
0.000147109
0.00252778
0.00015493
0.0759409
0.000155367
0.000205799
0.000148438
0.000151142
0.000147339
0.0527208
0.000161959
0.0375239
0.000149018
0.000186903
0.000160847
0.000146487
0.000167109
0.000169964
0.000145041
0.0750413
0.000148574
0.000170899
0.000147921
0.000157729
0.000167065
0.000213993
0.000155349
0.000186768
0.00323214
0.000160721
0.000171198
0.000146153
0.0822134
0.000173256
0.000149795
0.000175383
0.00152519
0.016507
0.000147989
0.000151299
0.000149075
0.000145721
0.000147765
0.052061
0.000159816
0.000148423
0.0227978
0.000148656
0.000145145
0.000154486
0.07481
0.000148938
0.0240866
0.0285064
0.00016998
0.0295399
0.000150772
0.0685155
0.00146784
0.000145198
0.000160677
0.000148308
0.000150041
0.000168533
0.0136004
0.000180355
0.000333309
0.000199452
0.000147516
0.0789791
0.000147296
0.0470679
0.000149772
0.0398516
0.0427017
0.000148986
0.000147216
0.000149848
0.000164563
0.000182839
0.00014765
0.0171205
0.00015184
0.000172754
0.000173619
0.000151477
0.000147343
0.0321611
0.000146574
0.000220519
0.000157505
0.011137
0.000148759
0.000147442
0.0450133
0.000144207
0.0001462
0.000150403
0.000173452
0.000173987
0.000213691
0.000152646
0.000146389
0.000155259
0.000149641
0.000149754
0.061929
0.000147516
0.000167009
0.0648098
0.000211375
0.000147897
0.00018198
0.000147838
0.000149334
0.00018801
0.000202692
0.000182359
0.00014956
0.000147883
0.000152938
0.000188528
0.000147801
0.000162533
0.000147497
0.000149481
0.000146804
0.000148887
0.0540368
0.000144817
0.0663143
0.000408795
0.00015449
0.000145897
0.0462508
0.0531214
0.000147189
0.000147921
0.0711561
0.000149238
0.000164821
0.000182684
0.00049702
0.000147433
0.000150291
0.000170566
0.000147941
0.0810491
0.000197202
0.00014744
0.000159516
0.000164502
0.000148471
0.000185457
0.000148938
0.000163463
0.000151059
0.000154559
0.000144611
0.000147509
0.000214369
0.000147983
0.0687389
0.000186912
0.00014822
0.000148177
0.000147745
0.0001472
0.0589091
0.000149796
0.00019287
0.000147264
0.000147159
0.000172648
0.0697912
0.000146281
0.000144908
0.000147739
0.000150128
0.000160084
0.000160399
0.0351528
0.000160901
0.000146759
0.000194506
0.0644703
0.000149086
0.000162129
0.0450282
0.00016467
0.000149936
0.00202574
0.000144611
0.0291208
0.000173594
0.000148315
0.000190677
0.000147863
0.000147674
0.000148323
0.0502428
0.000148329
0.00193986
0.0643225
0.00144296
0.000161868
0.000147599
0.036337
0.000149842
0.0120743
0.0001464
0.000246648
0.000154092
0.000194374
0.000150023
0.0205842
0.00015998
0.00014945
0.036393
0.0340223
0.000144929
0.00216697
0.000147772
0.000159424
0.00014703
0.00651099
0.000451403
0.000149164
0.000148202
0.0633744
0.000185308
0.000146873
0.000151453
0.000148079
0.000146525
0.000146042
0.000152259
0.0247275
0.0208239
0.000149625
0.000178042
0.000153384
0.000186603
0.000147872
0.00678273
0.0335045
0.0211078
0.000150211
0.066147
0.0242854
0.000153372
0.000160882
0.000147242
0.00017976
0.0357517
0.000149349
0.000146022
0.000146363
0.000157921
0.000145073
0.000147945
0.00040457
0.000150832
0.000179904
0.000148315
0.000147694
0.0001537
0.000148141
0.000198957
0.0745502
0.000146375
0.000172708
0.000144976
0.0726162
0.000147454
0.000152534
0.0373356
0.00021753
0.000154287
0.0138483
0.000185838
0.000148343
0.000168213
0.00014856
0.000164548
0.000149525
0.000147412
0.000199158
0.00019016
0.054323
0.000199905
0.000158771
0.00312237
0.000152509
0.000168868
0.000151044
0.0606316
0.0573125
0.0193853
0.000147904
0.000144501
0.0315352
0.0370263
0.000148763
0.0431067
0.000148826
0.000156941
0.000144349
0.000147928
0.000147696
0.000147521
0.000218325
0.000161239
0.000164252
0.000148055
0.000148069
0.000145352
0.000146674
0.000146576
0.000149729
0.000147507
0.0584389
0.0458205
0.041723
0.000152394
0.0576038
0.000174575
0.0779747
0.0541615
0.000174384
0.000148643
0.000149059
0.000180753
0.000149455
0.0133721
0.026202
0.000150399
0.000145746
0.000163395
0.046703
0.000147903
0.0715352
0.000148021
0.000148548
0.0803441
0.000147677
0.000156316
0.000149019
0.0447071
0.000145879
0.000147866
0.000202633
0.000145829
0.000148267
0.000147503
0.000145769
0.000165629
0.000147485
0.00855152
0.000148004
0.000149395
0.000144479
0.0236202
0.000162124
0.000148857
0.0620194
0.00014845
0.000145595
0.000231656
0.000422313
0.000148576
0.0741924
0.0792299
0.000156471
0.0462725
0.000148629
0.000148441
0.000197702
0.000146361
0.0484256
0.0435194
0.000144403
0.000157423
0.000147354
0.0173484
0.00779292
0.000172196
0.000148864
0.00101764
0.000159704
0.000174085
0.000156817
0.000148041
0.000150548
0.000147482
0.000146623
0.0673231
0.000144037
0.000146629
0.000169078
0.00965617
0.00018724
0.0745464
0.000147938
0.000162111
0.000148056
0.000148639
0.000148649
0.000146322
0.000148927
0.000147489
0.00014855
0.000149072
0.000154172
0.000148142
0.000149261
0.000145828
0.0177448
0.0802568
0.000149448
0.000151082
0.0632208
0.000149346
0.000205356
0.0401028
0.000267465
0.0805805
0.000261205
0.0817811
0.00491593
0.031046
0.000147593
0.000160347
0.000147316
0.000169174
0.000154246
0.000149449
0.000147336
0.0272798
0.000145942
0.000156798
0.0760539
0.000145634
0.00014696
0.000174284
0.000145799
0.00014749
0.000147473
0.000149473
0.0442856
0.0188654
0.000148106
0.000147876
0.00014827
0.000150626
0.000161862
0.000150948
0.00388991
0.000194207
0.000149232
0.0539048
0.000163644
0.000147837
0.0475291
0.000145752
0.0001806
0.000146312
0.000149773
0.000149552
0.0432498
0.00014782
0.000147594
0.00015346
0.000149789
0.000160761
0.000146792
0.0281771
0.000166599
0.000162654
0.00616394
0.0825655
0.000197904
0.000164788
0.0329275
0.000148056
0.000147894
0.000155479
0.0501034
0.000181442
0.000168525
0.0275831
0.000147687
0.000966648
0.000200455
0.00194051
0.000147993
0.000159979
0.000147233
0.00018761
0.000158257
0.000600618
0.0842809
0.000147954
0.000163784
0.000156098
0.000148188
0.000302969
0.000148023
0.000162814
0.000175787
0.000180843
0.000147929
0.000149963
0.000149484
0.000173024
0.00014748
0.000149513
0.00014798
0.000148387
0.000146363
0.000160838
0.000144705
0.000276227
0.0536527
0.000149821
0.000146508
0.000145508
0.000163473
0.000159438
0.000148729
0.0336602
0.00016281
0.000146417
0.000146562
0.0605362
0.0542343
0.000147408
0.000218749
0.000159122
0.000147977
0.0222915
0.000154763
0.000175449
0.00014952
0.0283588
0.0819633
0.000149681
0.000165842
0.0427013
0.00016262
0.0449869
0.000149561
0.000154064
0.0569118
0.0782628
0.000155453
0.000153756
0.000150051
0.000152635
0.000151515
0.0351212
0.0537845
0.0410215
0.000153113
0.000148172
0.000179299
0.000147529
0.000202656
0.000154111
0.0264613
0.00014585
0.000149194
0.000147359
0.000148253
0.000146795
0.000186913
0.0757679
0.000157976
0.000145447
0.000148572
0.0150298
0.000151962
0.000152645
0.000148949
0.00016548
0.0497174
0.000145795
0.000147778
0.000169437
0.000183292
0.000148657
0.000169662
0.000149305
0.000152213
0.000206342
0.000156543
0.0803477
0.000359122
0.000163313
0.055051
0.000146878
0.000147535
0.000151381
0.0750332
0.000151137
0.000865023
0.000145871
0.0449538
0.000165376
0.000147141
0.000159981
0.000149157
0.0735696
0.000173685
0.000160953
0.00019725
0.000198835
0.000148918
0.000149281
0.000149487
0.000154946
0.0468758
0.00017979
0.000148568
0.0002049
0.000148037
0.0754161
0.000147927
0.0671733
0.000160119
0.076982
0.00115135
0.00016605
0.000148042
0.000148013
0.000146961
0.0828721
0.000148747
0.00017829
0.0272129
0.000144614
0.0288678
0.000158921
0.000147959
0.000192719
0.000147312
0.000147946
0.0347849
0.00766565
0.0347979
0.000147452
0.000146318
0.0001504
0.000154264
0.000151434
0.000148416
0.0320166
0.000192567
0.000841198
0.000150408
0.000163907
0.000551837
0.000233222
0.000157582
0.000146547
0.0232755
0.000150987
0.0498515
0.000147406
0.000148036
0.000147965
0.000146397
0.000144601
0.000149757
0.00014637
0.000159823
0.0719823
0.000165532
0.0509065
0.000153634
0.000149339
0.000148717
0.000199878
0.000148085
0.000150355
0.000148154
0.0315883
0.00885565
0.000146345
0.000153321
0.00014716
0.000147989
0.000149844
0.000148286
0.000147461
0.000267628
0.000148968
0.000147403
0.000188574
0.000146821
0.0365288
0.000189412
0.00019726
0.000205246
0.000153792
0.000148402
0.0613762
0.000148731
0.000192326
0.000161584
0.000146727
0.000169006
0.000148293
0.0714148
0.00014567
0.000147583
0.0793028
0.000173983
0.0199705
0.000146131
0.000187572
0.000189371
0.000158557
0.0448497
0.000147038
0.000146462
0.000145766
0.000171858
0.000150314
0.00123167
0.000147962
0.000171304
0.0453136
0.000207817
0.000148041
0.000239723
0.000153546
0.0324468
0.000151567
0.000152752
0.000153621
0.0450542
0.000147973
0.000149868
0.0579284
0.000145626
0.000154522
0.000147069
0.000162032
0.0738301
0.0638514
0.000147634
0.000169753
0.000147981
0.000241996
0.00014805
0.000149908
0.000197063
0.00772099
0.000162683
0.000147858
0.000154052
0.0103879
0.000172074
0.000186546
0.0730183
0.000148033
0.0158952
0.000157671
0.00019125
0.000147737
0.000155023
0.0667558
0.00015369
0.00014737
0.000210437
0.032186
0.0824679
0.000145972
0.0562233
0.000393283
0.000146419
0.000190719
0.0235834
0.000149844
0.000151485
0.0219685
0.000144463
0.000149589
0.000146669
0.000148552
0.000190508
0.000183074
0.000167816
0.0437933
0.000149793
0.000163624
0.000156611
0.000148822
0.000151127
0.000167318
0.000148182
0.000149473
0.0739584
0.0428338
0.0282319
0.000146479
0.000166369
0.000148809
0.0584213
0.00014852
0.000167193
0.0694247
0.0180659
0.000165417
0.000148468
0.000274662
0.044578
0.000821477
0.000147925
0.000148727
0.000146799
0.0760594
0.000166235
0.000193848
0.0702542
0.00014865
0.00014935
0.0378039
0.000156212
0.000180843
0.000149088
0.000147363
0.000148049
0.000519962
0.00014836
0.000179842
0.0001471
0.00014862
0.000146424
0.046312
0.0388162
0.000152086
0.000224171
0.000151188
0.00143489
0.000147482
0.000147307
0.000189168
0.000148496
0.000147645
0.000153612
0.000174863
0.000160472
0.000186268
0.000148215
0.000181618
0.0673671
0.000148563
0.000149312
0.000148312
0.0647042
0.000165922
0.000162372
0.000188984
0.00014692
0.000148114
0.000173898
0.000156775
0.00287362
0.0792287
0.000162186
0.0486375
0.015124
0.0386458
0.000177813
0.000149133
0.000147829
0.000230771
0.0590468
0.000147093
0.000162177
0.0395626
0.000148607
0.000218374
0.000311992
0.000200962
0.000147659
0.000197478
0.00014878
0.000148604
0.000146547
0.000210022
0.000148976
0.000181876
0.000170237
0.000147716
0.000149157
0.0154121
0.000147302
0.00014529
0.000173955
0.00893568
0.00016853
0.00014803
0.000163238
0.0454414
0.051021
0.000159584
0.0583141
0.000191957
0.000178517
0.000168382
0.000149073
0.000172958
0.000157994
0.000145902
0.000147036
0.000149319
0.000156743
0.000238979
0.0426747
0.000149405
0.00404416
0.00017378
0.0006542
0.0503687
0.000229173
0.0580063
0.000198675
0.0516449
0.00017204
0.0439422
0.00018098
0.000148008
0.000148647
0.0764773
0.0360611
0.000196094
0.0481264
0.000146973
0.0657286
0.0493371
0.00014809
0.000145385
0.000163835
0.000178547
0.0420333
0.0224398
0.000179515
0.000146942
0.000147539
0.000149402
0.0758412
0.000153655
0.020747
0.000154864
0.050443
0.000200366
0.0438518
0.00015901
0.0593519
0.000146603
0.000145209
0.000154491
0.000149012
0.060137
0.000187971
0.0582249