/*--------------------------------*- C++ -*----------------------------------*\
| =========                 |                                                 |
| \\      /  F ield         | OpenFOAM: The Open Source CFD Toolbox           |
|  \\    /   O peration     | Version:  v2012                                 |
|   \\  /    A nd           | Website:  www.openfoam.com                      |
|    \\/     M anipulation  |                                                 |
\*---------------------------------------------------------------------------*/
FoamFile
{
    version     2.0;
    format      ascii;
    class       volScalarField;
    location    "200";
    object      omega;
}
// * * * * * * * * * * * * * * * * * * * * * * * * * * * * * * * * * * * * * //

dimensions      [0 0 -1 0 0 0 0];


internalField   nonuniform List<scalar> 
18758
(
0.119783
4.76255
0.0214739
4.86791
5.22636
5.69293
7.54951
0.0217111
0.258756
0.0278747
0.0237285
10.7298
0.0220465
0.183695
0.0230297
0.619377
0.0429532
0.0219438
0.0219277
0.0311184
9.10158
0.0222714
5.83305
4.64196
1.41501
0.0217155
1.74752
5.13104
9.02388
4.19451
0.0749981
6.11235
0.022182
0.0226934
0.139864
0.0221718
0.0222265
0.0220114
0.0222768
0.0461185
0.0220091
0.026604
0.0216471
0.0261801
2.1669
0.0216163
5.44368
0.0240358
0.0274168
0.0216161
0.136655
5.61958
0.0215447
0.0234942
5.03227
9.25719
0.0222172
0.379296
0.0219412
0.202042
0.0977196
6.44744
0.114316
0.0228041
0.0215539
0.0220134
0.0476379
0.0221776
0.0219302
5.55665
5.32095
0.0222994
0.0216224
14.4473
0.0216832
0.0219321
0.253774
5.26202
0.0895648
5.25576
6.55106
4.11821
0.201573
5.31582
0.263011
0.0305392
23.2359
0.113314
6.06324
0.0219304
5.12004
0.0219428
14.618
0.0270352
6.38925
13.1717
0.250255
0.0216824
0.0218962
7.25018
0.0326067
4.88497
0.0903613
0.0468296
7.66979
3.20277
5.6514
5.35251
0.0226605
0.0222968
16.6751
10.7141
0.0217567
0.0220216
7.18402
9.51213
7.93164
0.0230323
8.02876
5.9447
0.0382249
0.0219679
11.5132
1.41111
0.573195
1.83682
3.19798
1.36755
11.8603
0.0220442
0.0446316
1.59272
19.8994
0.0494849
4.87442
0.0238087
0.246613
0.048171
0.0218939
0.0784187
0.0900917
0.245646
0.0219432
13.6988
0.0220136
0.022014
10.6514
7.84886
0.0742404
6.51948
3.68274
4.99079
0.0304562
0.0222709
5.19796
0.0282675
6.96043
0.0240414
0.0221386
0.0222889
0.0218022
0.198597
19.6203
0.0221357
0.0970834
8.92121
0.0219729
12.1171
0.225035
5.72625
4.74665
0.0219388
19.1888
5.14758
0.19794
4.0804
8.09127
0.022902
0.0767135
0.0221212
0.021796
29.4796
4.91005
0.0216514
0.025317
3.17949
0.0219206
7.94154
0.0216321
0.0219353
0.0497747
0.909534
0.022385
0.0699505
0.0340513
0.115044
0.0317546
0.259357
0.0221484
0.0216408
0.0736195
0.0239725
0.0368699
0.0838354
0.0220349
0.0336004
0.0926064
0.0222789
8.89673
0.0274472
0.0219312
0.0493425
0.0221752
0.0365725
0.0769646
7.01981
0.0836044
0.551542
0.021631
5.85455
0.0219311
0.0226787
0.222896
8.46257
0.269161
0.0914189
0.0584649
0.0469009
0.0216102
0.0848738
0.0220078
0.114513
5.35156
0.269749
0.0220629
0.0219232
0.0216118
0.0216403
11.8777
0.036824
0.0218323
0.840555
5.64677
0.0230362
6.53949
38.4145
0.270015
0.0221784
6.4674
0.029747
0.022152
11.5457
0.0306338
0.030244
0.0225046
0.0414545
1.47174
0.671842
0.0357023
0.0859702
0.0216687
0.074505
0.0220298
0.0829965
0.0269919
0.221655
9.38564
0.0216357
0.0225419
0.453138
0.0224682
0.0250662
0.0833848
9.39311
9.73323
0.0219382
0.119416
22.0878
2.21876
0.0225749
0.0217412
0.0294041
0.0370096
0.0219364
19.6817
0.676915
3.71772
33.4593
5.77699
0.0216302
0.0214669
0.0515833
8.00195
0.0255501
0.0863007
0.109426
0.0293784
6.07002
0.0218937
0.909147
5.44575
0.0216282
5.58446
0.0377702
0.0219575
0.0332559
0.0851849
0.0228107
0.0221564
6.51758
3.15878
0.0219329
8.39315
6.03311
0.247605
0.022017
0.022125
3.45594
0.0230066
0.021646
0.0217723
0.0229958
0.230391
0.0866539
0.0293719
0.0358501
0.0312531
0.0496488
0.0216537
0.0222787
1.33363
0.0558964
0.127793
4.79009
0.0259336
0.0223328
0.0220797
0.852133
5.65372
0.0216225
0.0219188
0.0216244
0.0237022
0.0442156
1.03437
0.0219683
0.0221958
0.021607
0.817518
0.220706
0.166499
0.157758
0.0228609
0.744748
0.11285
0.0375239
0.0314606
9.91609
7.86548
4.69411
0.0220468
0.0333025
5.9383
9.21
0.0249977
0.0216343
0.0590811
0.0219608
0.0306165
7.65897
5.18194
0.127718
0.0305217
7.7266
0.0219821
0.0239568
0.0218879
0.0222864
0.119137
0.0241232
7.51526
0.278997
0.0224313
0.0219368
6.74077
0.124982
0.253127
0.0219822
0.0581594
0.0217308
0.0260019
0.021968
0.0216448
8.50251
8.01779
4.1388
21.7748
0.0219106
0.226123
5.15474
0.0423441
0.0217508
4.7081
0.0217702
0.0220615
0.0217914
0.122678
0.0219618
0.0260612
0.146098
10.9055
0.0217583
5.16681
0.0489128
0.0220226
0.0258994
0.0219544
0.0219207
0.028664
0.0696241
0.0489548
26.1491
0.0398351
0.0220428
0.405783
5.7931
4.90829
4.84934
0.116876
0.0225017
0.0216453
0.0218362
0.0221926
0.128165
0.0437527
0.033119
0.0363225
0.0305128
3.68796
0.0917459
0.0219509
0.0348329
5.49935
0.0227881
4.88694
0.0222123
0.0220823
6.69687
0.0280635
0.0224694
1.26103
0.142767
0.0508911
10.632
0.0219361
0.0225982
0.733583
9.50831
0.0360927
0.0716833
0.188042
2.2168
21.5614
0.185602
0.022276
0.133776
0.0220186
0.130232
0.0231615
13.0255
0.0574882
3.54872
0.0329501
0.0842459
0.0216291
4.33497
0.0216283
10.2461
0.0218917
0.370442
0.0220552
3.10698
0.031597
0.0220866
0.0219028
0.021783
5.56488
11.8914
7.26725
0.047288
0.0246876
0.0855942
0.0222703
0.0222875
5.62089
0.0219031
0.0220613
0.111605
0.0220409
0.0699577
0.0851026
0.0220569
0.0219592
0.0279154
0.0226893
0.028818
6.51432
0.0321012
0.0357933
0.0268047
0.0220469
3.72324
0.0223244
0.0226656
3.66245
9.37531
0.0804161
4.47263
0.0252091
0.0226348
6.73317
0.0219519
8.99648
0.33636
0.0220801
6.45548
1.13318
0.0599259
0.0218578
0.0532275
5.70743
0.0220141
0.0218662
0.0230955
0.0228007
0.0220318
0.0216988
0.022294
11.3279
0.0252897
8.81051
0.0219719
0.149266
7.18159
0.0220354
0.021639
0.0252353
0.0221292
0.0226476
0.0232719
0.0221081
0.111738
0.821849
0.0215437
5.69629
4.92014
0.0355415
0.13178
4.53492
0.0263731
0.0311973
0.0285654
5.36238
0.0251874
0.0487397
0.021978
7.46413
0.0425335
0.222428
0.141108
7.33682
0.0251229
0.0219211
0.0586308
1.18498
0.0225797
0.471475
0.0222104
5.74628
0.0227462
0.0217921
0.0217791
0.0220471
4.95146
5.75169
0.0219947
0.296055
0.030677
5.05221
8.25101
2.72726
1.99186
0.0218956
5.26328
0.0693875
0.0219634
0.0485889
5.54181
8.8074
0.022674
0.0225546
0.0219881
0.0215105
7.75974
0.110885
5.0721
5.39897
0.0220295
0.0221403
0.0590456
0.0222812
0.021805
0.0232485
0.0229116
0.113864
0.0418319
0.219958
5.39266
0.0718924
0.022062
0.0274562
0.117767
5.53359
0.0464568
7.58602
0.0523876
0.0219987
0.288739
5.11441
0.0224466
0.0216419
0.141835
5.01839
0.247306
0.0220417
9.7565
32.6805
1.59455
0.0216099
6.8121
6.75509
23.7421
0.0241215
0.0221964
7.56949
0.0222945
0.204246
6.95813
0.206042
6.39069
0.0903633
5.7674
0.070616
0.022073
0.0225387
5.77131
4.79058
8.11543
5.18388
0.0219512
0.204316
0.0222772
0.0592715
0.0940142
0.128834
0.022085
0.025182
0.215288
5.62377
5.37546
9.41511
0.0387451
0.0326538
0.277796
0.0222303
0.0217078
0.0219619
0.0255442
0.078498
0.0220334
0.0882594
0.0218543
0.0220749
0.0219065
5.20094
0.0223154
0.0222696
0.0557173
0.0526592
0.0215482
10.9045
0.0219618
0.0217038
0.0548819
0.0368688
0.0249208
0.0228848
5.56671
0.0359109
0.0347057
5.11189
0.0347253
4.74649
0.025986
0.112177
28.8338
10.0273
0.021634
5.40467
2.42651
0.0216839
6.05715
0.0220619
0.0218937
0.0398783
0.0219514
0.10986
5.46765
0.0216263
25.9083
0.0218721
0.0380309
4.68758
0.0215286
4.93751
0.0235254
0.021984
0.0219265
0.0219591
0.22519
0.0731929
10.6542
0.073894
5.41018
0.0588677
0.0220354
0.235942
8.22523
3.16521
0.0758439
0.163307
0.068693
0.0267675
0.223466
0.0226992
6.67073
0.0220344
5.84725
0.0227617
0.0758921
0.0279506
0.0223574
8.89701
0.0225577
0.0218133
2.40182
0.0235603
0.0219092
0.0457968
0.0851335
0.233965
1.69088
4.97602
5.32283
0.0221327
0.022205
7.90897
0.0219952
0.889776
0.0963979
0.0238149
0.0220605
0.0328792
0.0219892
0.0219474
0.0292976
0.745278
0.218563
0.144499
0.062482
0.0221324
0.0633682
8.02595
0.0218639
0.0951754
0.0239562
5.47171
0.0231996
6.01359
0.0220289
2.22409
0.0222766
0.08505
0.0219666
0.0252113
0.0302522
0.0215333
0.0216873
0.0215825
5.63519
30.0873
0.0334117
5.06968
0.0220048
0.043281
0.0282878
0.270826
5.60023
0.0335853
0.0215421
0.228175
0.0218565
0.022005
0.0283201
8.67529
10.3859
1.35618
3.32487
0.073606
0.0229259
0.0218818
4.56161
0.021897
2.05155
0.0278055
0.0221854
5.74598
6.55613
0.0220901
8.78106
0.0271546
0.119113
0.0979506
4.48688
6.29896
1.2433
0.0219978
0.0215021
5.42432
0.021945
0.0219283
0.0284849
0.0219617
5.3691
0.263219
0.0592684
4.99422
0.0495686
0.13573
0.023866
0.0219902
0.021537
0.021781
9.5948
9.33958
0.296426
0.0220565
0.0215354
0.0309472
0.0218266
0.0404173
0.0256531
3.40794
5.69886
0.0874319
0.292268
0.308553
0.0218896
0.214465
0.0218836
5.65445
1.92176
6.87718
7.90525
0.0229621
0.0293923
5.49247
4.99621
7.74712
0.0449358
0.126607
5.66249
0.0220475
0.275163
1.63304
0.133648
0.0220416
0.021975
0.0418213
5.53147
3.13521
0.0977154
0.0219742
0.0248496
0.0288744
52.3324
0.022294
0.641219
0.021894
0.0226852
0.189375
0.0218659
0.0220215
0.0232783
0.0270361
0.0219767
0.0226767
0.0216128
4.72684
0.31767
6.17489
0.0216348
0.0497596
0.0220132
0.246517
0.243804
0.0370775
0.021898
0.0228518
0.619059
0.12852
0.0292552
8.40077
0.130115
0.0219467
0.0220286
4.84826
6.15718
0.0623393
0.0216155
1.75172
0.0221255
0.0363426
0.0216647
1.02088
5.38751
0.021862
0.0220133
2.70409
0.021926
6.35148
7.52213
0.0630043
0.0222506
0.0221658
0.0216607
0.0220355
21.7533
8.93177
0.135346
0.0228673
5.43953
0.0219415
0.0219371
8.02169
0.0217495
5.38758
0.0215145
0.0288047
0.0232584
0.0219414
0.0218283
0.0221203
4.8736
0.0224945
0.0221941
0.156106
0.0422854
0.0219735
0.0578431
0.0368947
0.0221259
0.289135
0.0219777
0.0370651
6.19378
0.106341
0.021964
0.292886
0.101136
0.0849812
0.0265905
0.0678052
8.75161
0.0244989
0.0592172
0.0219587
0.0215923
0.022008
0.0468442
0.0366495
0.04932
0.021863
0.0276344
0.0696137
5.9973
0.273811
0.0219322
0.0217771
0.0228257
0.102505
0.021811
7.63149
0.0219647
0.0219383
0.0217758
0.427847
4.90442
0.022155
0.0236356
0.0218854
0.0979107
0.0218087
0.0219665
3.55989
0.0222705
0.0215963
0.0221302
0.136695
0.0217949
0.0218753
5.26992
9.87585
0.622299
0.043273
4.88686
0.050157
0.0219601
0.0219103
20.893
0.0219678
0.0696814
0.0890498
0.041971
0.0266676
0.0223134
0.0306388
0.0228257
0.0216222
0.196838
5.50424
0.0434254
0.0217868
6.35048
0.0477707
6.72653
7.52982
0.11639
0.02214
0.021922
0.0218314
0.0636276
0.022126
0.0218265
5.70959
0.15849
0.0451089
0.0219112
0.0666328
0.292463
0.0220949
0.026382
0.0362334
0.141684
0.0745425
0.0219971
0.023423
0.038154
0.0218213
0.0492034
0.0222786
10.7769
0.0588239
0.118682
0.0217808
0.0372078
4.99883
4.92275
0.826418
0.0628733
8.5771
0.0221294
0.0219616
0.0226987
0.0867298
0.0221696
0.023401
0.030767
0.0635839
0.0220024
0.0219565
0.0220127
0.022277
0.30646
5.69263
1.58875
0.0219995
7.86505
0.0296229
0.0221553
0.0330395
0.0218729
0.0848745
0.0230035
0.0219738
4.83886
31.1115
4.86442
0.0223452
21.2379
0.0219723
5.46339
4.97764
0.0215426
0.0643111
0.28425
0.0216219
0.0219635
11.0457
0.0222517
0.0220197
0.177596
1.21444
0.0220295
0.0316134
0.0221509
0.025279
0.128191
0.0221671
5.05169
0.0456537
0.0219617
1.0654
0.0599044
0.0816389
0.0222883
0.301479
0.0220277
5.29599
0.0219745
0.0217642
15.6728
0.0217004
4.89221
0.0219671
0.0544747
7.88561
5.7572
0.0219681
0.0223106
0.022028
0.0231956
0.0269881
0.0266519
0.0214896
9.26646
0.0218864
0.0219702
0.136386
0.208484
0.0435403
0.022029
11.6609
0.0839146
0.0223917
0.0351773
0.0219234
0.0217594
8.45277
0.0216306
0.0217684
0.021813
5.0287
0.0218106
0.021828
5.13577
0.0253167
6.0104
0.0333867
0.021516
0.0218819
4.08758
0.026012
0.0220091
7.62023
5.5031
0.0217925
5.23655
0.115463
0.0219227
0.022016
0.322139
0.0222215
1.729
0.0334182
0.0220338
1.46287
11.8228
0.240084
0.0218787
7.80955
0.029976
0.411011
4.07498
0.0219087
10.3095
0.022012
0.0318298
0.0260642
5.65107
0.021688
0.022355
2.64993
0.0222735
0.0355394
0.0216948
0.022069
5.92674
0.0858272
0.0251851
0.0359035
1.80573
0.0222928
0.0233749
0.0555678
0.130349
0.0255149
0.0219622
0.0219303
0.0221462
0.0226041
0.0218497
0.0338604
0.0276158
1.08732
0.022009
6.40232
0.0219605
0.0287734
0.0219855
0.0361842
0.0220643
0.021944
5.89758
4.69235
0.0241152
0.0220954
15.1784
0.0276666
15.5624
0.0366325
0.0713621
5.69477
9.82574
5.23684
0.0229951
0.0219887
0.0218039
5.02148
0.0218193
0.0220229
0.153381
0.0218333
0.0221865
0.022064
10.0872
2.12379
0.0221817
5.00131
5.60704
0.0240307
0.0219418
0.0221625
5.5121
0.0216845
0.108423
0.0222883
0.0219851
0.0220631
0.021755
0.0788281
0.0219699
0.0218938
0.0217807
0.0216236
0.308145
0.02161
0.0218087
0.0221009
0.0219602
0.299438
1.8404
0.0589115
0.0225716
0.0220041
0.0221939
0.0222254
5.1062
0.0219428
0.0315895
0.0674409
5.25788
0.0219588
0.0219244
5.47212
0.0221258
0.102948
0.0791361
0.0224469
4.91773
5.45054
0.0309588
7.61588
0.0283495
0.133
0.0214895
8.43015
0.0220503
7.1668
0.0220509
0.0218338
5.00351
2.21481
0.436704
0.139068
0.0219143
6.70621
0.0221772
5.36496
0.0553703
0.0219353
0.0214916
0.0218956
0.0515018
0.0613075
5.09058
0.0421766
0.0218921
0.0219426
0.021916
9.64771
0.189225
0.0333542
0.0221454
0.0219146
0.0303784
1.0712
0.0219214
0.0326942
0.0683935
0.0219428
0.0239015
0.0231267
0.0588562
0.156131
0.0244655
0.0781829
0.0215936
0.0220181
8.03692
0.0404276
0.084046
4.5648
0.0216139
8.77819
14.727
0.0506413
5.61457
0.0219481
5.17243
5.78488
0.113831
0.0218005
10.2664
0.136238
0.0219977
0.0394142
6.85881
0.0226358
0.021979
0.0395647
0.0222713
10.033
0.0306448
0.0220467
0.0222822
0.021884
0.0682654
0.033366
8.03307
0.104826
5.76492
0.0747018
0.0222613
0.0219501
0.580323
12.0115
0.0219774
0.021885
0.141949
0.0220929
0.314534
5.10394
9.42244
0.0219625
0.021973
5.53757
0.0217569
5.56146
0.53084
0.0217178
5.72528
0.059067
0.0820523
0.0219812
16.6776
0.0220353
3.78656
0.0215084
0.0491917
0.0228263
0.0216888
8.55609
0.0227019
0.0219676
0.023444
5.8507
0.0220813
0.0216034
4.74506
0.0219083
0.0216616
0.0221229
0.02508
0.02206
0.022186
0.0279221
0.0221802
0.0263829
0.0215643
0.270562
7.79375
0.133565
5.85156
0.028267
0.0263463
0.0218858
0.0218337
0.0221321
7.73558
5.28576
0.0219014
0.0222778
0.0219264
22.6514
0.0215969
0.278394
1.63828
5.50802
4.89159
8.67181
5.52099
0.0216391
4.79232
6.03936
4.72629
0.0261982
0.0221414
0.0439688
0.0216457
3.80396
0.123074
0.0597454
0.0270369
8.59087
0.0219974
0.0214851
5.21044
0.132573
0.0219684
0.021527
0.0459635
0.0221224
15.7033
6.44405
5.80542
5.18942
0.0830588
1.3586
0.0218269
0.262025
0.0221113
0.0219672
0.0216528
6.12825
0.0221536
0.0218205
1.72205
5.38154
0.231888
0.137999
0.0229531
0.0391569
10.4858
9.67116
5.24621
5.78943
0.119413
4.898
0.222388
1.19271
0.0525158
0.0422264
0.0218882
0.0362405
0.0326495
0.0220525
5.2832
0.0218094
0.0219656
0.0220056
5.4433
0.0255914
0.0218153
0.0218283
0.0219756
0.130098
0.0885983
2.06113
0.0227006
7.04158
0.0215194
0.0219296
0.0820102
0.0695497
0.0215041
5.4358
0.0424005
4.94178
0.0219908
10.6025
0.0620196
0.0219364
0.0220608
0.0219638
5.39609
5.03046
8.94724
0.0219857
0.0222124
0.0215785
4.98153
0.0282591
0.0220658
1.10975
0.0219449
0.0226262
5.34225
0.0216043
0.0219633
0.0220713
0.0221186
0.021482
0.0224179
0.0215186
0.0222201
0.0825516
0.0398744
0.0218385
7.83126
0.0238528
5.33569
9.3387
0.0506822
6.13071
4.96304
0.0218067
0.0426145
0.0220297
0.0218339
3.36596
0.0262231
6.41871
0.0273235
0.135266
0.0220575
0.023233
0.0219183
5.47991
0.0433654
5.72374
0.0220528
0.109806
0.0293713
0.0218039
0.0377589
0.041276
0.0215504
8.36303
0.0221017
0.0419225
0.0220101
0.0305329
0.0491531
0.210957
0.0266244
0.0819365
5.27093
0.0304208
0.0406534
0.0216011
5.82155
0.05836
0.0222717
0.0715356
3.34245
20.3475
0.0219786
0.0229206
0.022173
0.0215884
0.0219265
5.11935
0.0286649
0.0220827
10.098
0.0221149
0.021591
0.025792
5.43814
0.0221744
11.4555
4.56149
0.102445
8.3237
0.0226302
5.00502
2.17306
0.0216165
0.0292741
0.0220169
0.0223305
0.0392491
7.50659
0.0638989
0.836233
0.37765
0.0218888
6.4137
0.0219117
5.32898
0.0222681
29.8116
5.00496
0.0221601
0.0217597
0.0222789
0.0332661
0.08263
0.0219718
18.88
0.0229762
0.0427493
0.0737175
0.0231227
0.0219221
4.6161
0.0217596
0.21903
0.0293928
19.1889
0.022128
0.0218838
5.23881
0.0214628
0.0217573
0.0225762
0.059143
0.0521328
0.254248
0.0242684
0.0217587
0.0252476
0.0222767
0.0224855
4.93832
0.0219412
0.0483966
6.03996
0.197622
0.0219605
0.0845688
0.0218604
0.0222088
0.433554
0.234267
0.084912
0.0222395
0.0219607
0.0246763
0.0886007
0.0218814
0.0300459
0.0218875
0.0222524
0.0218459
0.0220223
5.49569
0.0215573
10.7405
5.48627
0.0251727
0.0216805
5.26729
6.59813
0.0217946
0.02198
13.8076
0.0222829
0.0647307
0.22251
1.29963
0.021923
0.0227652
0.0490098
0.0219868
5.55684
0.180004
0.0218067
0.0312608
0.0382835
0.0220889
0.298493
0.0221536
0.0505245
0.0229241
0.0249395
0.0215317
0.0218861
0.257989
0.021947
5.99559
0.0733491
0.0219961
0.0219878
0.021985
0.0218702
5.07295
0.0222718
0.168184
0.0219096
0.0218517
0.0555195
5.75158
0.0217688
0.0215567
0.0219233
0.0225799
0.0302468
0.0304274
7.04205
0.028555
0.0218429
0.141178
4.83111
0.0222365
0.0316355
5.39336
0.0360899
0.0224353
4.33564
0.0214819
8.59726
0.0444588
0.022066
0.0865188
0.0218658
0.021932
0.0219157
5.24984
0.0220164
2.3474
4.81997
2.24736
0.0293561
0.0219663
5.01706
0.0222781
23.9613
0.0217207
0.301398
0.025769
0.0937802
0.0226318
7.46153
0.0294125
0.0222246
5.98578
7.08317
0.0215595
2.72685
0.0219894
0.0311419
0.0217401
28.6623
0.882728
0.0222707
0.0220018
5.51306
0.289962
0.0218578
0.023415
0.0220312
0.0218091
0.0217098
0.0239837
5.22895
15.8676
0.0224354
0.211198
0.0235052
0.0723714
0.0220027
28.1888
5.42705
7.88893
0.0227063
5.20172
7.12485
0.0248853
0.0306386
0.0218781
0.0537125
6.68817
0.0221739
0.0217102
0.0217633
0.0275555
0.0215849
0.0219889
0.948766
0.0230466
0.204281
0.0220187
0.021974
0.0224583
0.0220434
0.16884
13.3039
0.0217907
0.0451439
0.0215435
5.11724
0.0218121
0.0242038
6.6525
2.61474
0.0261555
9.99757
0.40051
0.022067
0.0604824
0.0220901
0.0336507
0.0222351
0.0219293
0.148331
0.110205
5.09164
0.12241
0.0349423
5.32478
0.0231282
0.042081
0.0227323
5.12854
5.39077
8.31097
0.0219591
0.0215171
7.99474
5.07784
0.0221298
5.18743
0.0221385
0.0269545
0.0214937
0.0218762
0.0218137
0.0218306
0.242173
0.0408292
0.0385716
0.0219773
0.0220202
0.0216417
0.0218268
0.0218166
0.022263
0.0219378
5.04986
5.44747
4.78547
0.0236804
7.67741
0.0563863
5.4603
7.8079
0.0563605
0.022113
0.0222257
0.199498
0.0223741
4.02516
10.2507
0.0225987
0.0216982
0.0312424
5.25181
0.0219985
7.15335
0.0218457
0.0221
5.89253
0.0219352
0.0286931
0.0221652
5.32125
0.0215813
0.0219468
0.216616
0.0216208
0.0220564
0.0218758
0.0216984
0.068158
0.0219002
20.6372
0.0220224
0.0222173
0.0214728
7.50972
0.0342414
0.022178
5.16465
0.0220859
0.0215577
0.233357
4.82994
0.0220892
6.03597
5.55795
0.0264473
5.4455
0.0221114
0.0219636
0.102638
0.0216703
5.80963
5.47105
0.0214898
0.0260551
0.0218717
7.32811
3.98099
0.0456054
0.0221437
1.65722
0.0363961
0.052499
0.0269035
0.0220288
0.0225366
0.021898
0.0218089
5.832
0.0214505
0.021811
0.0424616
6.69981
0.0823257
6.93165
0.0220146
0.0421675
0.0218902
0.0219873
0.0220849
0.0217582
0.0221524
0.0219209
0.0221001
0.0221726
0.0242923
0.0219672
0.0221479
0.0216819
7.90797
6.32893
0.0221937
0.0227561
5.65198
0.0222103
0.136271
5.78802
0.354504
5.72287
0.832932
5.74976
8.78959
7.99756
0.0217693
0.0303552
0.0218682
0.049728
0.0246735
0.022224
0.0217878
9.67336
0.0216306
0.0298435
12.7854
0.021587
0.0217289
0.074941
0.0216992
0.0218798
0.0218825
0.0221667
5.15117
7.53996
0.0220359
0.0219471
0.0220565
0.0228479
0.0432956
0.0228892
13.4242
0.216021
0.0221944
4.99954
0.0325214
0.0219454
7.6959
0.021594
0.0553852
0.0217726
0.0223912
0.0223803
4.7159
0.0219352
0.0219634
0.023934
0.0223201
0.0306358
0.0218169
6.31596
0.0399435
0.04425
8.95188
5.65041
0.118688
0.0335619
4.92047
0.0219742
0.0220037
0.0253261
5.12051
0.0573476
0.0489112
10.2979
0.0219766
3.19854
0.238899
2.60653
0.022
0.0360547
0.021874
0.120563
0.033444
1.10432
5.87812
0.0220148
0.0356473
0.027691
0.0219168
0.911703
0.0219705
0.0305705
0.155908
0.0852101
0.0219545
0.0222949
0.0222287
0.055569
0.0219506
0.0221759
0.0219671
0.0220777
0.0216606
0.0380461
0.0215456
0.773713
5.10899
0.0225081
0.0217488
0.0215568
0.0425151
0.0346856
0.0221251
6.60041
0.0501749
0.0217651
0.0218177
5.53612
5.10428
0.0219386
0.208517
0.0349612
0.0220099
5.68789
0.0225977
0.0718448
0.0222341
13.4355
5.61645
0.0222563
0.0358885
5.65766
0.0347824
7.58331
0.0222396
0.0254352
5.01647
6.63512
0.0253465
0.025371
0.0225485
0.0244009
0.022836
7.21645
5.1037
5.16192
0.0233638
0.021969
0.0606651
0.0218837
0.230619
0.0248392
10.3491
0.0215759
0.0221893
0.0217558
0.0218995
0.0218455
0.083541
7.46228
0.030022
0.0216187
0.0221031
9.43085
0.023552
0.0238292
0.0221555
0.0362531
7.55608
0.021702
0.0218557
0.0410871
0.0832431
0.022114
0.0424245
0.0223053
0.0237017
0.13815
0.0287107
6.62215
0.857026
0.0473852
11.3154
0.0218577
0.02188
0.0230941
5.75147
0.023226
1.32124
0.0216936
5.44656
0.0362972
0.021863
0.0301388
0.0222709
5.48027
0.0557471
0.0305687
0.253169
0.119924
0.0221509
0.0222009
0.0222286
0.0249173
5.44601
0.0565151
0.0221026
0.195154
0.0218452
5.70862
0.0219537
5.31997
0.0294575
5.94187
1.78522
0.0581502
0.021969
0.0220061
0.0218696
5.6955
0.0219752
0.0549766
6.97243
0.0215335
9.61294
0.0329025
0.0219607
0.0884718
0.0219163
0.0218278
5.2233
6.78668
7.15306
0.0218936
0.02176
0.0227446
0.0243626
0.0229677
0.0219453
10.1897
0.0878847
1.44371
0.022532
0.0423681
2.10426
1.32592
0.0302373
0.0217527
5.5852
0.0229288
5.25757
0.0218809
0.0220269
0.0219839
0.0217172
0.0215313
0.0222145
0.0217852
0.0369606
7.16383
0.035779
5.14879
0.0250486
0.0222089
0.0221234
0.4225
0.0220233
0.0225068
0.0220433
4.66659
4.85313
0.0217806
0.0235191
0.0218625
0.0219774
0.0222785
0.0220618
0.0218998
0.887988
0.0222102
0.0217976
0.124415
0.0218203
5.30143
0.0879359
0.10199
0.194857
0.0240422
0.0220775
5.62971
0.0220627
0.0862796
0.0292196
0.0217803
0.0496026
0.0220647
5.80583
0.0216095
0.0217947
5.52866
0.0557884
9.12451
0.0217511
0.0923983
0.147883
0.0317588
5.25436
0.0218824
0.0217404
0.0216177
0.0911719
0.0227587
1.78236
0.0220063
0.0422557
6.89715
0.206139
0.0220154
0.907986
0.0252997
7.31182
0.0234988
0.0234165
0.0240137
5.42795
0.0219694
0.02235
5.32895
0.0215631
0.0261628
0.0218155
0.0466593
5.54621
7.42629
0.0218512
0.0973877
0.0220044
0.283245
0.0220158
0.0224315
0.0997029
21.374
0.0394211
0.0219963
0.0254033
5.42455
0.0578464
0.0847783
5.13217
0.0220226
10.4399
0.0229663
0.159951
0.021789
0.025168
6.39058
0.0254333
0.0219227
0.44937
7.50722
5.93421
0.0216991
5.38259
0.623956
0.0216171
0.14263
10.7099
0.0222783
0.0228134
4.79932
0.0214958
0.0223914
0.02183
0.0220598
0.1114
0.0836852
0.0359533
5.59193
0.0222713
0.0580812
0.0296991
0.0221659
0.0232394
0.0351186
0.0219746
0.0222273
8.54223
5.34381
9.4731
0.0216776
0.0378476
0.022136
5.1156
0.0220946
0.04158
7.83893
5.4978
0.067527
0.0219603
0.372565
5.31186
1.39001
0.0220022
0.0221248
0.0218327
5.32613
0.0378899
0.141363
6.26635
0.0220517
0.0222114
5.27856
0.028694
0.0858142
0.0221742
0.0218798
0.0219778
1.19483
0.0220217
0.0571743
0.0217536
0.0221099
0.021793
5.73666
4.9949
0.0237619
0.49285
0.023014
2.13989
0.0219182
0.021904
0.0895173
0.0220563
0.0219301
0.0253789
0.103258
0.0293578
0.126167
0.0220043
0.0690486
4.89989
0.0220838
0.0220167
0.0220152
4.82625
0.0453337
0.0469535
0.0901483
0.0217691
0.0218545
0.139671
0.0259028
7.51724
9.59445
0.0359146
5.01064
8.854
5.6499
0.0570361
0.022268
0.0219998
0.285315
5.33599
0.021875
0.0380816
5.78362
0.0221068
0.224214
1.32486
0.137201
0.0219267
0.100536
0.022127
0.0221058
0.0216254
0.872212
0.022114
0.0583461
0.0386844
0.0219842
0.0221841
5.02518
0.0217795
0.0215944
0.0485405
4.66421
0.0382404
0.0220224
0.0399028
6.9437
5.44127
0.0284611
6.33873
0.091091
0.118733
0.0585762
0.0220979
0.153337
0.032691
0.0216523
0.0217215
0.0223223
0.0259706
0.313984
5.14228
0.0222183
3.02301
0.0747621
2.70736
12.6161
0.283089
5.08429
0.133796
5.13759
0.0494581
5.10334
0.0626386
0.0219789
0.0220974
5.98194
4.96493
0.120243
5.45844
0.0218068
6.37009
5.2743
0.0220349
0.0216443
0.0375801
0.0630313
5.91656
9.67923
0.109739
0.021873
0.0218183
0.0222179
9.1225
0.0254353
4.30613
0.0246004
25.0151
0.181029
5.6797
0.0278557
5.59534
0.0217991
0.0215916
0.0258182
0.0221637
6.58205
0.126494
5.12845
0.0220598
6.48301
5.22239
0.021547
0.0422839
5.2247
0.0434077
0.021871
0.0262922
0.0219772
4.91602
0.0214568
0.0223128
6.41513
0.029483
0.0488855
0.02772
0.0218142
0.0221817
0.04173
0.022049
0.0216493
0.0218353
0.0303572
5.39977
3.44888
0.0219784
0.130969
6.05001
0.0221156
7.51313
6.36759
0.0221032
10.8206
0.0220733
0.0949324
5.0414
0.0219716
0.0221664
0.022177
0.0961087
0.0261766
0.02186
5.75706
0.0219475
7.56226
0.02204
7.12945
4.99849
0.0249596
0.0217379
0.151906
0.0784856
0.154874
5.6021
0.0442465
0.0221794
5.22727
0.0224692
0.0864073
0.0734778
0.0300158
0.0621521
0.0218755
0.12627
5.53153
5.74727
0.114785
0.0218811
0.198032
5.06345
0.0222719
0.208272
0.111591
1.21898
0.0219511
0.024969
0.0215029
0.204096
5.87966
0.0975875
5.8924
0.0847589
0.0389588
5.30875
4.87912
5.72804
0.90954
9.70471
0.0703186
12.4945
0.054787
5.02974
6.34597
0.0233209
0.0223084
0.0271057
0.0595236
0.021998
0.026181
0.0222617
0.024282
0.0220068
0.0218641
7.28695
5.37373
0.0222038
0.0509874
0.0221062
0.0217938
0.0236036
0.0781008
0.0234032
0.0900121
0.0221524
0.0435096
0.683265
0.100546
0.0460357
0.0219762
0.0990057
0.0222204
0.0219279
0.62487
0.0228507
5.3783
0.166011
0.0219385
0.0243418
4.52147
0.0220738
0.0948966
0.0568712
0.0597467
0.0265504
0.0370933
0.0220113
0.0221681
5.17863
9.25292
0.0360301
0.0779429
0.0220388
5.6962
0.0255369
6.25735
0.078572
0.022109
0.0216774
5.84949
0.16317
5.88276
0.0280652
6.02426
0.0226063
5.26948
9.48141
0.0308072
0.148586
0.0218557
7.33876
0.0221939
11.2926
0.0287148
5.31436
5.01619
4.97651
5.40414
0.0361057
8.05985
0.176425
0.0486901
4.96764
5.05128
5.29194
0.021711
0.0258158
0.0752813
8.71173
0.0218701
0.021789
0.0297598
0.0611113
11.1808
0.0585877
0.045022
0.0219367
0.117603
0.0215472
0.179001
5.32668
0.714592
0.0217792
6.81459
0.0677387
0.0225265
5.6976
0.686546
0.0267438
5.33933
5.0099
4.63913
0.0557751
0.0218401
0.0289603
5.96812
0.0377436
0.0219835
7.41752
0.0214972
6.25607
0.023252
0.0221555
5.67537
5.00357
0.0218344
0.0517945
0.0219578
8.32706
0.0215087
5.22839
0.156312
0.0424181
0.0219071
0.0220062
0.0221607
0.0387641
0.0558581
0.116501
0.0291949
6.25154
0.0343678
0.0253856
5.75341
3.95882
0.0216425
0.157647
0.0219326
5.18974
0.0220779
0.0431142
5.2446
0.0276944
0.021933
5.29119
0.0222809
0.0222551
0.046304
0.0222782
0.021895
5.59878
0.0689546
6.03257
0.0222788
0.114542
0.0921176
0.0216444
0.0219346
0.0236256
0.0218445
4.99382
0.698337
3.7564
5.60779
4.52523
5.10528
0.0219208
0.0220143
0.0219495
0.0221139
0.110124
7.60045
0.0305521
0.0248103
5.44693
0.0222561
0.0217745
2.1941
0.125653
0.0214717
0.0219688
0.0218775
0.209895
0.0217557
0.0219299
0.145671
0.0342207
0.118278
0.0239068
5.64351
5.32539
0.0214642
0.0217203
5.19743
0.0340746
0.0251519
5.38556
0.0361331
0.118325
1.89891
0.0234648
0.947473
4.91733
0.0215416
0.0257869
5.71179
0.0251645
0.0220132
2.66971
0.0550846
0.0579133
0.0221558
0.366425
0.0237991
5.22191
0.0220368
0.0219803
0.0334558
0.0623536
7.30249
0.0360487
0.0219418
25.5448
5.53179
0.0239677
0.0729659
0.0220321
0.0219021
0.0217457
5.41332
0.0218464
7.02322
0.223962
5.62237
5.82576
0.0354273
4.97942
0.0331514
7.2559
3.17216
0.107577
0.759863
0.073334
0.0940694
5.41149
0.051835
0.0220044
0.0220593
16.5488
0.0401495
0.023016
0.022147
5.6899
9.55261
0.0220939
4.56102
9.1373
0.0716591
0.949314
0.0405818
0.0404834
0.0435022
0.0998569
5.075
0.0276632
0.207894
0.232775
0.0217572
0.125772
0.0279987
5.51206
0.0665334
0.0219673
0.226284
0.0643662
0.0734616
0.572235
0.0225389
4.91069
0.196175
10.3771
5.77901
0.0221837
0.0220131
0.0218825
7.1569
4.95993
0.0837107
0.173127
0.0218456
0.0217336
0.0225624
0.0877838
4.68084
0.0524423
7.03515
0.073253
0.382946
1.05399
0.0217607
0.055281
9.05226
7.19678
5.5101
7.89435
5.57081
0.0222183
5.0257
5.80703
4.89263
4.90111
0.0219443
5.64091
0.0225851
5.04565
0.0274821
12.5554
11.9634
5.67908
0.0221566
0.0219828
0.0728689
0.0237516
0.117805
0.0222727
0.0489997
0.0485442
0.0217989
0.0220026
0.034575
0.0219319
8.80998
0.0218869
0.023052
5.81991
0.0725136
6.20904
0.116253
8.11802
0.0219252
0.0219818
0.022238
5.24924
7.76044
0.0220243
0.0504032
6.84465
9.47657
0.0218913
5.69746
5.06691
0.0218034
5.40274
0.0219108
0.0414237
0.0220111
0.058874
0.0220702
0.12702
5.74388
0.0218513
0.0221593
6.78382
0.0356973
0.0216943
0.0220989
9.81898
0.0218745
0.0221555
5.01112
9.27268
6.09333
0.0910825
0.0219309
5.05958
5.81601
0.909539
0.0221664
0.0997623
0.0703348
0.0219411
0.237244
0.0218072
0.0218144
0.0218205
0.0573471
6.57725
5.70326
0.0425941
0.166011
0.0218741
5.93593
0.0218105
0.0280306
0.0467543
0.023397
0.0523773
0.0362719
0.0218623
0.110636
6.50913
0.0580911
19.2969
8.03617
0.0617113
0.0219557
0.0250756
0.251347
0.0295472
0.0221945
0.113469
8.12813
0.0217036
6.29503
0.0290141
0.0219438
0.771255
5.90842
5.02634
0.0219781
0.0269015
0.0248782
0.0553046
0.0492122
0.0218674
0.0219662
0.113018
1.12205
4.97819
0.0275438
0.0222761
0.0217382
0.184308
0.022025
5.12581
0.0222731
0.0409866
8.16162
0.195933
5.81768
0.0220499
6.19805
4.65823
6.81205
0.0220026
0.0222089
0.0540361
7.24788
0.021826
6.17413
0.0218725
0.0214975
6.52118
0.0221841
0.0559478
0.0279192
0.0228488
0.0318584
0.0294439
0.0670035
0.0466406
0.0404496
23.3695
0.172533
5.66905
0.0472311
0.0346149
0.0564279
5.33896
0.188561
0.0277431
0.0220788
5.68547
0.0226763
1.70458
0.199682
0.679229
0.0216887
7.99768
0.0220548
2.11149
0.0225326
0.868244
5.51873
0.0497663
11.4208
5.38311
8.79874
5.28714
5.77646
0.0642984
0.0219476
0.0217945
0.756006
0.0218011
0.021927
0.0219845
0.0406013
0.0233921
0.034555
9.85139
8.59866
0.124954
0.027732
0.027402
0.0215781
0.0254377
0.223795
0.215652
4.71462
0.0218143
0.046092
0.0835039
0.0340771
0.112244