/*--------------------------------*- C++ -*----------------------------------*\
| =========                 |                                                 |
| \\      /  F ield         | OpenFOAM: The Open Source CFD Toolbox           |
|  \\    /   O peration     | Version:  v2012                                 |
|   \\  /    A nd           | Website:  www.openfoam.com                      |
|    \\/     M anipulation  |                                                 |
\*---------------------------------------------------------------------------*/
FoamFile
{
    version     2.0;
    format      ascii;
    class       volVectorField;
    location    "200";
    object      U;
}
// * * * * * * * * * * * * * * * * * * * * * * * * * * * * * * * * * * * * * //

dimensions      [0 1 -1 0 0 0 0];


internalField   nonuniform List<vector> 
18758
(
(1.10035 -0.305303 -3.22632e-20)
(1.25952 -0.0245612 0)
(1.01522 -0.000111959 -3.96417e-21)
(0.613414 0.142827 -1.4312e-20)
(0.192989 0.0320831 0)
(0.215681 0.0309935 0)
(-0.224613 -0.00947117 0)
(1.01222 -0.0048177 0)
(1.23962 0.0256718 0)
(1.01867 -0.105174 0)
(1.05716 -0.0392455 -1.6123e-20)
(0.187578 -0.0467538 -1.02746e-19)
(1.00214 -0.000325191 -8.07118e-22)
(1.10171 0.172035 -6.5181e-20)
(1.04499 0.0115084 1.46109e-20)
(0.594118 -0.508569 0)
(1.11293 0.0271372 -2.06874e-20)
(1.00421 -0.00740581 4.70126e-23)
(1.03728 -0.00438858 -5.58184e-21)
(1.0285 -0.124649 0)
(-0.0434952 0.0142318 0)
(1.00004 -0.000843445 -3.47498e-22)
(-0.0386657 -0.015368 2.82888e-20)
(1.2253 0.0622798 2.14593e-20)
(1.32 -0.122153 -4.96813e-20)
(1.01191 -0.00465405 6.85834e-22)
(0.794161 -0.690297 0)
(0.162713 0.0225786 0)
(0.88825 0.00827209 5.75918e-20)
(1.08752 -0.708409 -1.31147e-20)
(1.1135 0.0858702 3.88553e-21)
(0.0988809 0.0252104 3.68018e-20)
(1.00047 -0.000157687 0)
(1.0518 -0.010434 -1.13841e-20)
(1.16745 0.109031 0)
(0.999344 -0.00274714 7.40717e-23)
(1.00019 -0.000233514 0)
(1.03493 -0.0214263 -9.71209e-21)
(1.04143 -0.0242309 0)
(1.12186 0.0234826 3.30772e-20)
(1.03567 -0.0198547 0)
(0.939923 -0.0804398 -6.96451e-21)
(1.02182 -0.0069302 3.48069e-21)
(0.977726 -0.093071 -4.53456e-22)
(1.21155 -0.504853 -6.41418e-21)
(1.01319 -0.00136128 0)
(-0.0600144 -0.0132595 5.01296e-20)
(1.05142 -0.0531465 0)
(1.01643 -0.102726 1.01465e-21)
(1.02137 -0.00522158 -2.93248e-21)
(1.2186 -0.13581 1.14632e-19)
(0.349714 0.078343 -2.21501e-20)
(1.01564 -0.00172256 4.40546e-21)
(1.05557 -0.0379558 7.23643e-21)
(0.129972 0.0192909 1.94234e-21)
(1.27361 -0.216037 0)
(1.00025 -0.000263078 0)
(0.52078 -0.346689 -2.18085e-20)
(0.994199 -0.0242774 3.13242e-21)
(1.10986 0.177313 -5.93165e-21)
(1.11743 -0.260527 2.98895e-20)
(-0.209601 -0.0128175 0)
(1.20344 0.0122961 4.98861e-20)
(0.970953 -0.04662 -1.35503e-20)
(1.01546 -0.00179295 -3.33484e-21)
(0.994243 -0.00514669 1.21281e-20)
(1.11936 0.0301868 0)
(1.00054 -0.000201355 0)
(1.0329 -0.0194749 -4.15405e-21)
(0.331443 0.0778315 -6.12789e-21)
(0.231253 0.0560107 -2.70021e-20)
(0.972089 -0.0284469 -1.07667e-20)
(1.02172 -0.00555993 3.49224e-21)
(-0.0231854 -0.0832391 -2.32366e-19)
(1.01726 -0.00792946 1.94085e-21)
(0.995886 -0.0248765 -9.896e-21)
(1.23179 0.0786719 1.31686e-19)
(0.19459 0.0313677 0)
(0.909794 -0.330717 0)
(-0.0840133 -0.0269104 7.67262e-20)
(0.0601858 0.00976881 1.30007e-20)
(1.27662 -0.472679 -8.84003e-21)
(1.11513 0.176648 -2.33863e-20)
(0.180005 0.0252918 -9.48336e-22)
(1.23073 0.083877 7.70998e-20)
(1.09858 -0.0237085 5.64496e-21)
(0.561978 -0.1986 -8.85913e-20)
(1.20222 0.0100562 -4.95198e-20)
(-0.0654717 -0.0309753 -9.23198e-20)
(0.996466 -0.0254287 4.8773e-21)
(0.14107 0.0225413 7.06094e-20)
(0.993706 -0.0237942 0)
(0.130361 -0.0714219 -5.77131e-20)
(0.937581 -0.0840934 0)
(0.066688 0.0134129 -4.65488e-20)
(0.0824824 -0.0579179 5.62172e-20)
(1.22731 0.0863717 -9.94199e-20)
(1.01771 -0.00818963 -4.61356e-21)
(1.00249 -0.0186282 0)
(-0.0214368 0.017241 0)
(1.03983 -0.128059 0)
(0.0849339 0.0181909 3.1806e-20)
(1.16531 0.0552141 1.28066e-20)
(1.12026 -0.125538 3.05092e-20)
(0.0747522 0.0176957 -4.12939e-20)
(1.10341 -0.678046 0)
(0.961275 0.120317 -7.95695e-20)
(0.221434 0.036743 0)
(1.04413 -0.0342784 -9.00395e-21)
(0.964853 -0.0145617 -1.23181e-20)
(0.159327 -0.0737194 0)
(0.469711 -0.661238 1.88239e-19)
(1.01058 -0.0053145 -2.41195e-24)
(1.01028 -0.035974 0)
(0.717065 0.0347496 5.32545e-20)
(-0.220645 0.00542299 0)
(-0.16871 0.00344972 5.46807e-20)
(1.04452 0.0121507 9.72729e-21)
(0.0364976 -0.0323224 -1.151e-19)
(0.037891 0.0154137 1.01866e-19)
(1.11989 -0.0518016 0)
(0.98786 -0.0122661 -1.70699e-21)
(0.633067 -0.0294339 -1.50016e-19)
(0.645699 -0.654451 0)
(1.19442 -0.388404 0)
(1.20954 -0.483773 0)
(1.28407 -0.029471 5.25215e-20)
(1.26728 0.0253951 -2.01916e-20)
(0.0726417 -0.0547242 -3.19549e-20)
(1.00345 -0.000117781 -3.96092e-22)
(1.11484 0.0287464 -4.95221e-20)
(0.823848 -0.669773 -1.39672e-20)
(-0.0832865 0.00868138 5.08564e-20)
(0.934676 -0.221779 6.7215e-21)
(0.210393 -0.710576 3.08482e-20)
(0.970958 -0.0657577 1.25931e-20)
(1.22963 0.0761831 -7.73352e-20)
(1.12464 0.0246641 3.53275e-20)
(1.00291 -0.0185709 6.39219e-22)
(0.787774 -0.268982 0)
(0.894628 -0.326697 5.9394e-23)
(0.957866 -0.461629 6.85462e-21)
(1.00515 -0.0317678 -4.13574e-22)
(1.15604 -0.191296 -7.67729e-20)
(1.03646 -0.0195775 0)
(1.03887 -0.0019414 0)
(-0.128809 0.00691507 1.18636e-19)
(0.251626 0.0198559 4.90679e-20)
(1.10977 0.0857537 7.48514e-21)
(0.646647 0.0453761 -2.5704e-20)
(1.28541 -0.456908 6.76046e-20)
(1.15367 0.139572 0)
(1.09857 -0.0285618 2.08427e-20)
(0.999953 -0.000771748 0)
(-0.0531837 0.00650179 -5.54736e-20)
(1.08857 -0.0436847 3.71847e-20)
(-0.00157946 -0.0329792 1.22027e-19)
(1.05075 -0.0550271 0)
(0.992075 -0.0382726 0)
(1 -0.000321792 -3.44849e-21)
(1.01127 -0.013197 0)
(1.1222 0.171994 8.31144e-20)
(0.175771 -0.10395 0)
(0.993304 -0.038018 0)
(1.11833 -0.25569 -7.35547e-22)
(0.803477 0.0180406 0)
(1.03865 -0.00610384 1.14086e-20)
(0.549098 -0.0503192 0)
(1.21837 -0.244182 -6.40288e-20)
(0.24512 0.0294027 -7.57181e-20)
(-0.133497 0.0148552 5.75185e-20)
(1.00414 -0.00758626 -2.57954e-21)
(0.189778 -0.0951148 1.16942e-19)
(0.169327 0.0240158 2.72177e-20)
(1.12543 0.169773 -3.38335e-20)
(1.25002 0.064772 -8.3869e-20)
(0.699724 0.028491 5.77284e-20)
(0.96998 -0.048208 0)
(0.802475 -0.266564 0)
(1.03215 -0.0303501 4.73441e-21)
(1.00902 -0.00515578 0)
(-0.18472 0.000254817 5.56309e-22)
(1.18794 0.138979 0)
(1.02631 -0.00491232 -1.31769e-20)
(1.06831 0.00590976 0)
(1.2436 0.133907 0)
(0.997815 -0.019897 -2.4805e-21)
(-0.206966 0.00706362 5.77988e-20)
(1.02063 -0.00610845 -5.03328e-21)
(0.995727 -0.0178695 7.39639e-22)
(0.941191 -0.225973 1.26624e-20)
(1.26466 0.0242637 0)
(1.0128 -0.0479251 -1.78189e-22)
(1.10852 0.0822299 -7.10139e-21)
(0.977311 -0.152594 1.23237e-20)
(1.20507 0.00641676 0)
(1.03178 -0.127257 9.53902e-21)
(1.22759 -0.242864 5.92042e-20)
(1.00075 -0.00245326 -3.15597e-21)
(1.0215 -0.00655677 -2.83092e-21)
(0.754081 -0.219188 0)
(1.04863 -0.0550665 0)
(1.07494 -0.129239 0)
(1.18504 -0.00498107 0)
(1.00215 -0.000494801 -8.83795e-22)
(0.979241 -0.148742 -9.54722e-21)
(1.1726 0.0493252 7.3587e-20)
(0.999961 -0.000598916 -3.50142e-23)
(-0.0224042 0.0139398 4.47659e-20)
(1.01234 -0.103722 0)
(1.00462 -0.00748139 1.21276e-21)
(1.12438 -0.128464 0)
(0.994612 -0.040268 4.84962e-21)
(1.08298 -0.118382 -1.64691e-20)
(0.867547 -0.297123 1.86657e-20)
(0.0672194 -0.00287058 -3.03591e-22)
(0.865191 -0.309802 0)
(0.536775 -0.453052 4.63602e-20)
(1.01565 -0.00450314 0)
(0.234013 0.0318972 0)
(1.0045 -0.00765572 2.01258e-21)
(1.04387 -0.0356635 1.10444e-20)
(1.2124 0.102391 -4.93573e-20)
(-0.110061 0.00784193 -1.07952e-19)
(1.25828 -0.157759 1.06218e-20)
(1.16912 0.0502866 -4.45972e-20)
(1.16036 -0.05764 0)
(0.988259 -0.212839 0)
(1.02556 -0.00234246 -5.15769e-23)
(1.18755 -0.0108082 0)
(0.993944 -0.00539454 -3.47841e-21)
(1.20397 0.00411328 -3.32483e-20)
(-0.0613798 -0.0104835 0)
(1.22967 0.092011 -2.71272e-20)
(1.00199 -0.00025034 -4.54461e-22)
(0.997617 -0.0192573 -4.70616e-21)
(1.02537 -0.00262249 0)
(1.01269 -0.00160236 1.98328e-21)
(0.716683 -0.0478911 1.49043e-19)
(1.09931 -0.0962551 -6.62005e-22)
(1.00917 -0.0131946 -1.76738e-22)
(1.28724 -0.256895 1.51485e-19)
(0.940466 0.12197 8.03572e-20)
(1.05557 -0.0212446 0)
(0.696541 0.0525005 0)
(0.00135077 -0.0322178 0)
(1.22659 0.0941945 6.7335e-20)
(0.999431 -0.00263689 0)
(0.0616071 0.0122411 4.71092e-20)
(0.897586 -0.0807311 0)
(0.999207 -0.00317752 7.32275e-21)
(0.490084 -0.0380082 0)
(1.09989 -0.022161 1.43272e-20)
(0.897693 -0.0866485 4.27555e-20)
(1.04317 0.00632128 4.94666e-21)
(1.12693 -0.0560218 -2.37238e-20)
(1.26482 0.0857645 7.13943e-20)
(0.498051 -0.445441 6.16037e-20)
(1.07899 -0.117335 1.28938e-20)
(0.936824 -0.323227 1.18365e-22)
(1.02864 0.00298712 6.01553e-21)
(1.15851 0.0399046 -3.63062e-20)
(0.999606 -0.00763617 -7.45924e-22)
(1.18283 -0.00322507 0)
(1.01028 -0.100828 0)
(1.21055 0.105212 -5.57719e-20)
(-0.288602 0.000319892 -1.91163e-20)
(1.01535 -0.00436752 -1.46407e-21)
(1.04332 -0.0319946 -9.02943e-21)
(1.04991 -0.482455 0)
(1.04218 -0.0310953 -1.73085e-20)
(1.06725 0.00498994 0)
(1.18431 -0.00916318 -2.66886e-20)
(0.694865 0.0114486 -1.54255e-20)
(-0.185864 0.00240956 -7.91828e-21)
(1.00324 -0.0309176 -1.66168e-21)
(1.21008 -0.12473 3.37443e-20)
(0.126202 -0.0239275 5.88927e-20)
(1.25129 -0.471961 0)
(1.01061 -0.0526572 7.11933e-22)
(1.03003 -0.00807394 -3.20914e-21)
(1.08067 -0.0730757 -1.01133e-20)
(1.10177 -0.0943118 -1.74458e-20)
(1.00492 -0.0311357 0)
(0.162131 -0.0376925 2.2295e-20)
(1.27769 -0.251259 9.34543e-20)
(1.05482 0.252254 4.41995e-20)
(-0.0819757 0.00740278 -5.6198e-20)
(-0.0366311 -0.0144694 -2.80748e-20)
(1.0247 -0.00472796 -3.78615e-21)
(1.0153 -8.01383e-05 5.39735e-21)
(0.993194 -0.22997 -1.96678e-22)
(0.133007 -0.00497018 1.01535e-19)
(0.922733 -0.0463619 0)
(0.921827 -0.319954 0)
(1.20559 -0.024564 -3.75741e-20)
(1.07527 -0.0793084 -9.76613e-21)
(0.0289352 0.0110764 5.70207e-20)
(1.0365 -0.00472572 -1.29864e-21)
(1.12872 0.241374 2.13181e-22)
(0.198465 0.0265125 8.88095e-21)
(1.01298 -0.00139776 1.86599e-21)
(0.41763 0.102031 0)
(0.965526 -0.171354 0)
(1.03382 -0.0198577 4.32247e-21)
(1.0712 -0.110368 -1.59053e-20)
(1.19121 -0.0590508 1.79851e-21)
(1.0489 0.00409899 -6.4927e-21)
(0.999226 -0.00308763 -6.71814e-21)
(-0.257212 -0.00693879 0)
(1.08258 0.258471 -4.46455e-20)
(1.00208 -0.0137298 0)
(-0.26585 -0.00407232 -1.76904e-19)
(0.0340095 0.0130705 -1.27334e-19)
(1.25266 -0.154845 -9.01203e-20)
(0.998194 -0.00805736 -1.17856e-21)
(1.0022 -7.81718e-05 0)
(1.16227 0.215754 1.68182e-20)
(1.05464 -0.0221291 0)
(1.02572 -0.00495136 8.40477e-21)
(1.03065 -0.00955955 -4.42527e-21)
(0.946934 -0.0171872 0)
(1.21612 -0.253032 0)
(1.19404 -0.0616561 0)
(1.07868 -0.0743669 -1.33645e-21)
(1.09553 -0.0950657 -1.8938e-20)
(1.02432 -0.126807 0)
(0.95031 -0.226387 0)
(1.02827 0.00254997 0)
(0.999993 -0.000638343 3.59012e-21)
(1.2679 0.0289105 1.94597e-20)
(1.07635 -0.20567 0)
(1.21585 -0.12452 -9.06214e-22)
(0.611403 0.148255 0)
(0.919502 -0.0486039 0)
(1.01341 -0.0464621 -2.16303e-22)
(1.00549 -0.000152597 -2.5618e-22)
(1.12565 0.242831 2.88102e-22)
(0.471243 0.111896 4.07609e-20)
(1.02583 -0.00312526 0)
(1.00504 -0.00753806 0)
(1.02561 -0.00342751 0)
(0.970371 -0.0636841 4.62532e-21)
(0.985262 -0.205253 3.39913e-22)
(1.30581 -0.121549 9.8961e-20)
(0.988397 -0.0119638 0)
(0.968962 -0.0142909 1.08621e-20)
(1.02225 -0.00457475 -3.20336e-21)
(0.607488 -0.556584 0)
(0.958859 -0.449647 0)
(1.22928 -0.0281564 -2.75016e-20)
(1.14342 -0.304368 0)
(1.05294 -0.00387797 -1.19612e-20)
(1.26158 0.01914 -6.16499e-20)
(1.08869 -0.304529 2.35601e-20)
(1.11098 -0.0767989 -3.61303e-20)
(0.891318 -0.0957892 -2.17952e-20)
(0.13302 -0.0421664 0)
(-0.0837429 0.00783722 1.20595e-20)
(1.21337 0.131726 3.60415e-20)
(1.00208 -0.00232645 -4.95398e-22)
(1.03479 -0.135601 0)
(1.2785 -0.0547969 6.04531e-20)
(0.627801 0.0210512 1.85022e-20)
(1.0226 -0.082754 -5.53521e-21)
(1.0246 -0.00514905 -3.92008e-21)
(1.16066 -0.0307402 -1.08943e-20)
(1.03783 -0.00981671 -5.5827e-21)
(1.09853 -0.0116637 -1.45337e-20)
(1.14892 -0.0108315 5.36601e-20)
(0.530671 0.13668 3.20857e-20)
(1.12956 0.127888 -6.01456e-20)
(1.02088 -0.12381 4.05661e-21)
(-0.27469 0.00135074 -1.6544e-20)
(0.989396 -0.0255132 -1.15733e-20)
(1.04799 -0.0568189 0)
(1.00338 -0.0244909 8.16241e-22)
(1.04161 -0.0253193 -1.66578e-21)
(1.15605 0.100798 2.62937e-20)
(1.06201 -0.0399173 -1.04969e-20)
(-0.251059 -0.00790088 1.50683e-19)
(0.915256 -0.47199 1.76117e-21)
(1.04265 0.00579344 -1.55615e-20)
(1.00188 -0.0132804 0)
(-0.163425 0.00676292 5.43782e-20)
(1.13041 0.124513 4.70635e-20)
(1.23848 0.0282214 -3.55863e-20)
(0.989045 -0.0248637 9.98277e-21)
(1.10577 0.0665427 -1.38762e-20)
(1.02933 -0.0081745 -1.45897e-21)
(0.939822 -0.0729833 1.54912e-20)
(0.987813 -0.0127324 -8.51019e-21)
(1.01504 -0.00448037 -1.72873e-21)
(-0.160333 0.00315658 -1.1783e-19)
(-0.0113058 0.0151206 0)
(1.04647 -0.773803 -1.72245e-20)
(0.400938 -0.144047 -1.09911e-19)
(1.00558 -0.000447131 0)
(1.23026 0.0609954 -1.38733e-20)
(0.0845447 0.0357783 -5.9611e-20)
(1.12877 -0.0580121 2.69985e-20)
(1.01084 -0.0055505 2.10061e-21)
(0.633337 0.16608 -5.3433e-20)
(1.02905 -0.0120239 -1.05408e-22)
(1.03959 5.9511e-05 0)
(1.00925 -0.00545612 0)
(1.15852 0.10356 -5.75137e-22)
(0.990801 -0.0136214 5.82854e-22)
(0.974144 -0.0919741 0)
(1.13932 -0.294463 0)
(0.642137 -0.019501 2.33366e-20)
(1.03018 -0.00920813 0)
(0.175191 0.0325072 1.51009e-20)
(1.13714 0.000355632 0)
(0.99841 -0.00786007 -3.93582e-22)
(1.07559 -0.00358226 0)
(0.992586 -0.0252264 0)
(1.00494 -0.00772993 -5.64678e-22)
(1.07309 -0.0770388 0)
(1.15567 0.0310917 -2.22872e-20)
(0.956754 -0.222268 -6.17488e-21)
(0.109685 0.0444748 2.15128e-19)
(1.12307 -0.0519608 0)
(0.996482 -0.00480733 5.60443e-21)
(1.03008 -0.474296 4.02932e-20)
(0.687691 0.117147 5.22686e-20)
(0.832135 0.19974 0)
(-0.142573 0.0135455 -4.79786e-20)
(1.1455 0.107665 5.15396e-20)
(1.00796 -0.0513481 0)
(1.01477 -0.00432292 3.87969e-21)
(1.00899 -0.0128271 1.74269e-22)
(0.993693 -0.0411988 -1.2231e-20)
(1.12461 0.12998 5.64741e-21)
(1.12228 0.0137875 0)
(1.08866 0.0251162 8.25598e-22)
(0.965594 -0.164751 0)
(1.1 -0.0268566 2.89309e-22)
(1.21628 0.167369 3.55067e-20)
(1.16863 0.0543339 -7.26801e-21)
(0.99248 -0.0243364 -1.66829e-22)
(1.09295 -0.0930368 0)
(-0.0665126 -0.0349715 -7.03666e-20)
(0.990085 -0.0556506 -8.87983e-21)
(0.541972 0.155144 -5.90734e-20)
(1.00345 -0.000108691 4.71809e-22)
(0.996755 -0.000824593 7.4349e-21)
(0.322713 0.0170067 0)
(0.950735 -0.101653 -8.61676e-21)
(1.04408 -0.0280389 4.58507e-21)
(1.26445 0.0901374 6.63965e-20)
(1.17135 0.10681 0)
(0.997293 -0.224823 1.12004e-21)
(0.0648891 -0.0603906 2.30269e-19)
(0.995156 -0.0250075 0)
(0.988283 -0.0511479 -3.92891e-21)
(0.545077 -0.501436 -4.95021e-20)
(0.127268 -0.0374396 9.05954e-20)
(0.869838 -0.126943 -5.04628e-20)
(1.15729 -0.156453 -2.85941e-20)
(1.09879 0.176183 2.50802e-20)
(1.23189 0.16636 6.88114e-20)
(-0.226111 0.00322842 7.20284e-20)
(1.10657 0.17236 2.24632e-20)
(0.971441 -0.0270858 -6.76763e-22)
(1.22194 -0.0675637 -4.50975e-20)
(1.00929 -0.0363634 0)
(1.124 0.133128 0)
(1.04107 -0.0497805 4.77808e-21)
(0.126703 -0.064515 -1.24288e-19)
(1.10297 0.0662798 2.71192e-20)
(1.30225 -0.0599923 0)
(1.0887 0.0237846 0)
(1.1149 0.0954084 -5.02447e-20)
(1.01291 -0.00159716 -2.07475e-21)
(1.23606 0.059235 4.72885e-20)
(1.02147 -0.0058833 -3.70059e-22)
(-0.102752 0.00599837 1.60087e-20)
(1.0031 -0.0250848 -2.04993e-21)
(1.15461 -0.391899 -5.31975e-20)
(0.999555 -0.00644007 0)
(1.13923 0.233002 -2.76952e-20)
(1.10083 -0.0108595 -1.49745e-20)
(1.00015 -0.00555471 -4.12308e-21)
(1.00215 -0.018031 -1.40769e-21)
(1.00959 -0.00541814 9.97983e-22)
(0.839458 0.139589 4.00061e-20)
(-0.148291 0.00467119 0)
(0.744768 0.033166 0)
(1.11576 0.0341578 0)
(1.06471 0.00489921 1.2809e-20)
(1.19344 -0.0548293 8.19631e-20)
(1.00002 -0.000592923 0)
(1.00004 -0.000319486 0)
(0.339713 0.0740843 -5.36695e-20)
(1.00175 -0.0181519 -1.6077e-21)
(0.996119 -0.00202535 -5.20584e-21)
(1.20795 -0.0272407 8.53488e-20)
(1.00218 -0.00227334 3.95333e-22)
(1.15176 -0.157888 0)
(1.19127 -0.0518544 -4.42829e-20)
(0.995906 -0.00185236 -1.84106e-22)
(0.991023 -0.0143005 -2.14645e-21)
(0.936901 -0.0927076 -2.22977e-20)
(0.989928 -0.05386 1.30629e-20)
(1.09109 -0.0445035 -2.40492e-20)
(0.705389 0.0514805 9.28509e-20)
(1.06066 0.0403556 0)
(0.877708 -0.126903 7.08523e-22)
(1.04858 -0.0852124 0)
(0.996645 -0.00461611 2.78455e-21)
(0.395759 -0.751584 2.30552e-21)
(0.965911 -0.0191547 -9.52425e-21)
(1.04202 -0.0369936 0)
(0.858237 -0.775075 -3.33106e-20)
(-0.209476 0.00286868 0)
(1.11282 0.0925564 3.18864e-20)
(1.1196 0.204161 0)
(1.02175 -0.0848538 0)
(1.04223 -0.0359623 0)
(-0.186741 0.00565613 -2.4007e-20)
(1.03792 -0.00563649 -1.05497e-20)
(-0.171555 0.00408429 5.41276e-20)
(1.14129 -0.385326 7.13241e-20)
(0.999873 -0.00572846 0)
(0.667567 0.0544879 -9.1684e-20)
(1.2654 0.0201938 9.06362e-20)
(1.1622 -0.0275844 0)
(1.00856 -0.00044507 4.01372e-22)
(1.07534 -0.198977 0)
(0.413138 0.0934091 -4.56149e-20)
(1.03574 -0.0210806 0)
(1.03025 -0.0182927 -8.9979e-22)
(1.046 0.0116487 -1.71594e-20)
(1.04884 0.00327509 1.37069e-20)
(1.03944 -0.00217609 0)
(1.01191 -0.000773495 1.34114e-21)
(1.00003 -0.000154298 0)
(0.766854 -0.0310988 -1.99252e-20)
(1.07438 -0.0317833 0)
(0.792995 0.0180694 -3.57169e-20)
(0.987645 -0.0102128 -1.06648e-20)
(1.2286 -0.0729658 4.78693e-20)
(1.20747 -0.018867 0)
(0.999503 -0.00739858 1.68083e-21)
(1.02092 -0.00649512 7.64722e-21)
(1.07227 -0.0360345 0)
(1.00099 -0.00260716 -1.08288e-21)
(1.01147 -0.0540575 7.52584e-23)
(0.952448 -0.0398657 -1.35908e-20)
(1.03101 -0.0306603 0)
(1.19811 0.0181885 -1.23932e-20)
(0.643113 -0.569566 -1.33896e-20)
(1.01729 -0.00216293 -5.61351e-23)
(0.393012 0.0894245 -9.59009e-20)
(0.0764236 0.0162183 0)
(0.866468 -0.111613 2.45682e-20)
(1.22127 -0.0646223 5.65553e-22)
(0.99016 -0.773701 0)
(0.937398 -0.0758333 -2.6255e-20)
(1.06003 0.0387763 -1.52839e-20)
(1.09211 -0.0257627 2.23884e-20)
(0.241172 0.0585661 7.35512e-20)
(1.07262 -0.0324196 4.74443e-23)
(1.10161 0.0520376 1.19459e-20)
(1.00669 -0.0340529 3.24081e-22)
(0.250891 -0.0688825 -1.53405e-21)
(1.1297 -0.0194098 -2.39794e-20)
(0.982422 -0.433868 0)
(1.20195 0.0571292 0)
(-0.217063 -0.00990318 -6.19529e-21)
(1.07141 -0.0349181 0)
(1.00024 -0.0275471 -3.15338e-22)
(1.16089 -0.0504882 3.52566e-22)
(1.31492 -0.133763 9.89701e-20)
(1.00882 -0.052895 -6.98074e-22)
(1.18679 -0.376699 4.0097e-20)
(0.978523 -0.031505 0)
(0.864722 0.116585 5.00218e-20)
(1.01435 -0.0553346 0)
(1.02912 -0.0137572 0)
(1.00982 -0.00569222 0)
(1.00208 -0.0017249 0)
(0.0900723 0.0202421 0)
(0.839751 0.117313 -4.99993e-20)
(0.987695 -0.0245835 1.10922e-20)
(1.1499 0.193634 0)
(0.956259 -0.124723 0)
(0.778354 0.185837 5.57007e-20)
(-0.127411 0.00737323 2.82115e-20)
(1.17431 0.217833 0)
(1.28253 -0.0234971 0)
(1.0345 0.00375074 5.6052e-21)
(0.205994 0.0245787 5.82709e-20)
(1.10512 0.0818139 0)
(1.01602 -0.0324018 5.10354e-22)
(1.12247 0.0298471 0)
(0.314045 0.0715759 2.95624e-20)
(0.291247 0.00501424 -2.56579e-20)
(1.05146 -0.0115722 0)
(0.955606 -0.0112246 6.59517e-22)
(1.01292 -0.0342326 2.28347e-22)
(1.01499 -0.000322467 2.37233e-21)
(0.230947 0.0227431 4.73227e-20)
(1.19621 0.0241382 0)
(0.144674 0.0218858 -7.14186e-20)
(0.0559094 0.0299549 0)
(0.982285 -0.0221188 7.94842e-21)
(1.00086 -0.00255772 -4.14034e-21)
(1.1549 -0.00320631 2.79948e-20)
(1.00003 -0.000596033 1.94285e-21)
(1.01107 -0.012809 0)
(0.952782 -0.0382853 -1.11506e-20)
(1.04626 0.00894763 0)
(1.20157 0.0168338 1.70573e-20)
(1.12724 -0.0183414 2.22381e-20)
(1.22417 -0.226703 -2.82669e-20)
(0.235409 0.0401586 9.02237e-20)
(1.15863 -0.148742 -2.48946e-20)
(0.999528 -0.00621789 2.66216e-21)
(0.951914 -0.0980258 8.44897e-21)
(1.20371 -0.147489 -3.72867e-22)
(0.298252 0.0591831 -3.47237e-21)
(1.09947 0.0500455 0)
(1.30339 -0.36542 0)
(1.15129 -0.0538654 3.10597e-20)
(0.986946 -0.0250456 -1.1619e-20)
(1.15177 0.189625 0)
(0.86229 0.184479 0)
(1.01373 -0.0491943 -7.57458e-22)
(1.0263 -0.00394172 0)
(0.652884 -0.296985 9.05811e-20)
(0.121837 0.0212897 -3.19605e-22)
(1.23015 -0.235855 0)
(1.00219 -0.00167907 2.06226e-22)
(-0.103843 0.00655624 -1.05049e-19)
(-0.0677113 0.00371232 1.0431e-19)
(1.32227 -0.138638 -1.0658e-19)
(1.02156 -0.00489977 0)
(-0.162497 -0.0171737 1.25413e-20)
(-0.254976 -0.00502673 3.89269e-20)
(0.501702 -0.191783 1.12879e-21)
(1.06233 -0.0381889 1.16831e-20)
(0.999379 -0.00103855 0)
(0.745616 0.0319115 -5.13809e-20)
(1.00001 -0.000129868 -4.17106e-21)
(1.17856 0.13787 4.31661e-20)
(-0.144099 0.00548675 1.60434e-20)
(1.23816 -0.025646 6.00747e-20)
(-0.202749 -0.0123523 -4.19724e-20)
(1.16023 0.0640395 0)
(-0.00413526 0.0217426 2.19454e-20)
(1.15903 0.0297234 0)
(0.990926 -0.0347245 5.69811e-21)
(0.956494 -0.0102173 -4.19424e-21)
(-0.198097 0.00962198 6.48794e-20)
(0.75966 0.206251 2.67307e-20)
(-0.271925 -0.00441261 -3.13363e-20)
(0.544998 0.126652 6.06194e-20)
(1.03801 -0.00486959 1.10617e-20)
(1.18082 0.134705 -4.71567e-20)
(1.00002 -0.000467069 5.12968e-22)
(1.16278 -0.0606407 -4.28167e-20)
(1.14827 0.0808656 -3.77243e-20)
(1.21347 -0.139059 -8.30075e-20)
(0.999969 -0.00561487 0)
(0.970742 -0.0821918 1.84353e-20)
(1.22621 0.0613762 -6.87266e-20)
(0.355326 0.0806402 1.02022e-19)
(-0.186234 0.0109225 -3.83634e-21)
(-0.288148 -0.00141196 0)
(1.114 -0.0782249 -2.26226e-20)
(1.04378 -0.127625 0)
(1.22805 0.0997673 0)
(0.967671 -0.0149501 -1.20124e-20)
(1.02823 -0.00770797 3.40087e-22)
(0.997074 -0.0130096 0)
(1.05805 0.0192704 0)
(1.11528 0.0887162 -3.95171e-20)
(0.996026 -0.00496094 0)
(1.14548 0.0777485 -1.12986e-20)
(1.00777 -0.0126255 0)
(1.00308 -0.000188583 0)
(1.00547 -0.00755142 -8.18976e-22)
(0.186628 0.0281841 0)
(0.964771 -0.0163074 6.77159e-21)
(1.00002 -0.00041616 -4.02399e-21)
(1.15145 -0.00453756 2.74015e-20)
(1.15088 -0.026948 -3.77527e-20)
(1.01748 -0.00232477 2.56988e-21)
(-0.178549 0.0032447 1.81647e-19)
(1.0383 -0.00937215 7.11634e-21)
(1.02986 0.00234358 4.20009e-21)
(1.15439 -0.0733054 4.3224e-20)
(0.888401 -0.136797 0)
(1.06574 0.00575218 0)
(1.02874 -0.0529379 -5.37187e-21)
(1.32629 -0.362968 -1.3545e-20)
(0.865014 -0.117219 0)
(1.06949 -0.120313 -1.23883e-20)
(0.886534 0.186511 0)
(1.07299 -0.11907 2.46379e-20)
(0.676572 0.18338 -2.23441e-20)
(0.907937 -0.0228603 0)
(1.19902 0.0226441 1.35239e-20)
(0.504592 -0.240778 -1.89487e-19)
(0.205773 0.0161009 -6.46955e-20)
(1.02578 -0.00383834 0)
(0.259545 0.0601761 0)
(1.26412 0.0395814 0)
(1.0125 -0.00370077 1.9795e-21)
(-0.0581311 0.0114749 0)
(0.998242 -0.00553872 -1.12774e-20)
(1.00592 -0.00754581 0)
(1.1245 -0.0287786 2.27262e-20)
(1.00406 -0.00701245 0)
(1.14973 -0.243206 -6.20498e-20)
(0.27677 0.0577472 -3.57693e-21)
(1.02089 -0.00581172 5.18462e-21)
(0.19707 -0.120642 6.42784e-20)
(1.03393 0.00360589 -1.03316e-20)
(1.11887 -0.0487415 0)
(0.781626 0.219342 2.55237e-20)
(1.01726 -0.00177245 -2.72956e-21)
(0.106903 0.0194705 0)
(1.01607 -0.0680164 -2.05679e-21)
(1.03804 -0.0128932 8.95271e-21)
(0.997996 -0.0180561 9.99314e-21)
(0.996782 -0.0133363 -1.5424e-21)
(1.23921 -0.0140055 -1.0326e-19)
(0.739213 -0.210809 0)
(-0.209374 0.0036409 1.09125e-19)
(1.16371 -0.147656 6.79262e-20)
(0.170883 0.028838 -3.73185e-20)
(1.15638 -0.00907872 3.58764e-20)
(0.996201 -0.00477403 -5.44874e-21)
(1.22979 0.0683924 -2.62407e-20)
(-0.274045 -0.00442613 4.91564e-20)
(1.2747 -0.0202662 0)
(0.754964 -0.234658 -1.73225e-20)
(1.22822 -0.0248312 -8.28517e-20)
(1.09957 0.0839023 0)
(1.07214 -0.0604063 -1.96869e-21)
(1.2404 -0.0180149 -6.72287e-20)
(1.02604 -0.0508205 2.62952e-21)
(1.28933 -0.447702 -1.37709e-19)
(1.00227 -0.00105783 5.83101e-22)
(-0.150024 -0.0235107 0)
(1.05284 -0.00990274 4.17714e-21)
(0.772403 -0.242329 1.59242e-20)
(0.932295 -0.091885 2.29584e-20)
(1.04171 -0.0278574 0)
(1.00077 0.00128846 -5.33784e-20)
(0.955196 -0.00822358 1.23487e-21)
(1.01037 -0.0123891 -6.67795e-23)
(1.3104 -0.0671772 0)
(1.01403 -0.0686312 1.63394e-21)
(1.00536 -0.00775795 0)
(1.12483 0.015113 2.55903e-20)
(1.19155 -0.0690609 0)
(1.24134 -0.0125053 3.73088e-20)
(1.32428 -0.127913 0)
(1.05269 0.187563 -9.91026e-21)
(-0.108781 0.00961461 -1.34307e-20)
(1.00092 -0.00252984 2.95037e-21)
(0.999476 -0.00100676 0)
(-0.0896896 0.0074486 1.52715e-19)
(0.995624 -0.00851012 0)
(1.2792 -0.280261 0)
(1.16317 0.0669629 0)
(1.05887 -0.0386867 1.6823e-20)
(0.996 -0.00153906 9.82907e-21)
(1.06715 -0.110713 -2.85035e-21)
(0.99055 -0.00140012 0)
(1.03706 -0.0127953 -8.75027e-21)
(1.08882 0.00225235 -1.25835e-20)
(1.27589 -0.271403 1.30996e-20)
(1.22764 -0.221987 -1.06539e-19)
(0.653606 -0.315083 0)
(1.13186 -0.170383 -2.20249e-20)
(1.00076 -0.00368129 -2.89339e-21)
(1.13038 0.0529836 4.80139e-20)
(0.725031 0.0296995 -8.08243e-20)
(1.00727 -0.0120493 0)
(1.14705 0.0845251 -2.48203e-20)
(1.06429 -0.0251143 1.10176e-20)
(0.276453 0.0606366 3.97202e-20)
(0.956195 -0.0423763 1.04957e-20)
(0.0134607 0.00470374 5.64129e-20)
(1.00236 -0.000938042 -4.574e-22)
(1.26633 0.0299872 4.81972e-20)
(1.00002 -0.000310201 2.96952e-21)
(1.16763 0.0430428 0)
(1.01553 -0.033083 0)
(1.05721 0.0182567 2.02055e-20)
(1.061 0.0357161 0)
(1.01744 -0.00193126 1.92933e-21)
(1.02932 0.00238901 -8.59912e-21)
(1.01679 -0.00324469 0)
(0.800174 0.130815 0)
(-0.152312 -0.00210304 -6.03776e-20)
(1.09665 0.0146723 4.26152e-20)
(0.144542 0.0217305 7.52977e-20)
(0.986022 -0.0245695 -1.33678e-20)
(1.11977 0.0153981 0)
(1.08825 -0.0413368 -4.4731e-20)
(1.24078 0.0402491 3.53671e-20)
(-0.0678007 -0.0285302 -4.19647e-20)
(1.09642 0.0166641 -3.15104e-20)
(1.01957 -0.00215724 2.7312e-21)
(1.00124 -0.437643 0)
(1.00766 -0.0122549 0)
(0.985632 -0.0238835 1.32368e-20)
(1.08933 -0.0366908 2.05185e-20)
(-0.190483 0.00586822 0)
(0.682615 -0.00602456 0)
(1.27543 -0.0158308 -7.26988e-22)
(1.16426 0.213283 -1.68484e-20)
(0.72558 -0.212072 -8.20433e-21)
(0.949005 -0.0186173 1.37881e-21)
(1.0069 -0.0264572 -1.96533e-21)
(1.30658 -0.436293 6.90651e-20)
(1.0058 -0.00774611 -7.30526e-22)
(1.29574 -0.0419615 1.23755e-19)
(1.08868 -0.0235026 -2.01421e-20)
(0.99924 -0.0013971 0)
(0.370393 0.0525976 -5.62652e-20)
(0.327867 0.0354618 0)
(0.997033 -0.000856973 -8.46616e-21)
(-0.195372 0.0030203 -1.31996e-19)
(1.04914 -0.0876965 1.03332e-20)
(1.06668 0.140207 -7.7179e-21)
(0.940624 -0.339071 0)
(1.12329 0.207606 0)
(0.298585 0.0346316 6.34769e-20)
(1.2753 -0.332814 -5.89455e-20)
(1.00292 -0.000703548 0)
(1.01514 3.1716e-05 0)
(0.248474 0.0430224 -3.70006e-21)
(1.00291 -0.0316476 0)
(1.03214 -0.0201134 -4.1865e-21)
(1.09103 -0.0235908 -1.09468e-20)
(1.00142 -0.032377 0)
(0.862456 0.159321 -6.23634e-20)
(1.15552 0.179073 -4.16315e-20)
(1.15744 -0.00533915 -3.80876e-20)
(0.0686546 0.025633 3.86516e-20)
(1.13976 -0.00163026 0)
(1.16375 0.107458 0)
(1.06343 -0.0243439 0)
(1.00312 -0.00425438 1.28233e-21)
(1.01531 -0.00137279 2.49916e-21)
(1.0102 -0.00686241 -9.67533e-22)
(-0.190242 0.00445847 0)
(0.228137 0.017602 -4.69004e-20)
(1.12516 0.206625 -3.72091e-20)
(0.99578 -0.00133359 -1.10222e-20)
(1.01933 -0.0019478 2.63479e-21)
(1.06167 0.0371713 -4.47239e-22)
(1.0169 -0.0220386 2.22045e-21)
(1.12619 -0.0315046 2.54492e-23)
(0.973762 -0.0874214 0)
(1.24852 -0.489776 -1.64691e-20)
(0.377727 0.0748558 0)
(1.14685 0.0741908 -2.32442e-20)
(1.22781 0.11027 9.40579e-20)
(1.1299 0.206917 0)
(1.03111 -0.0187335 -3.95819e-21)
(1.23853 -0.0197763 6.71686e-20)
(1.00734 -0.026863 -9.67788e-22)
(-0.0600276 -0.0275264 0)
(1.26877 0.0365202 -3.48471e-20)
(0.000526711 -0.0241457 -2.05749e-22)
(0.908188 0.0228524 -7.46761e-20)
(1.04713 0.00886367 -3.45104e-21)
(1.08897 0.00433072 2.58131e-20)
(1.18587 -0.674729 7.25554e-20)
(0.0623358 0.026076 -8.5683e-20)
(0.0333852 -0.02825 1.42866e-19)
(0.791833 -0.109347 0)
(1.2092 -0.150085 0)
(-0.154815 0.00844667 -5.13778e-20)
(1.00207 -0.00202444 -5.3602e-22)
(1.22511 0.10159 1.35949e-20)
(0.587041 -0.649204 0)
(1.12004 0.136639 0)
(1.00217 -0.00195782 0)
(1.03399 -0.0209559 1.50493e-20)
(1.12714 -0.0149649 0)
(0.0283715 0.0266066 0)
(0.347264 -0.684586 3.74811e-20)
(1.02936 -0.315796 0)
(0.988671 -0.0085429 0)
(1.05699 0.0160092 0)
(0.891284 -0.0602056 0)
(0.167892 -0.193202 0)
(1.04066 -0.0271494 0)
(1.25816 -0.300748 -9.61154e-20)
(1.00453 -0.0153098 1.8412e-21)
(0.988152 -0.0528328 -8.67062e-21)
(1.24088 -0.0718036 0)
(1.00716 -0.0117162 0)
(0.998805 -0.00794512 0)
(1.04222 -0.0507969 8.77815e-22)
(1.00635 -0.101606 0)
(1.00342 -0.00426351 0)
(1.02641 -0.0500148 2.8025e-21)
(1.02211 -0.00492123 -6.72725e-21)
(1.08577 0.196162 0)
(1.08095 0.228746 0)
(0.275871 0.0304368 0)
(1.02527 -0.00456225 0)
(0.877694 -0.211235 1.47352e-20)
(0.993219 -0.00247224 7.35534e-21)
(1.23215 0.0711925 2.945e-20)
(1.23792 0.0230836 -3.799e-21)
(1.03389 -0.157316 -7.42429e-21)
(1.00419 -0.0153882 -5.27158e-22)
(1.05269 -0.00492164 0)
(1.18728 -0.401548 -4.42946e-20)
(1.19332 0.0615423 -4.26045e-20)
(1.09436 -0.0256161 -1.27519e-20)
(-0.151393 0.00530804 1.1088e-19)
(1.11552 0.136513 0)
(0.992959 -0.0238768 -5.87643e-21)
(0.982786 -0.0230371 0)
(0.705304 0.186152 2.43745e-20)
(-0.0822114 -0.0363323 -1.6786e-22)
(1.11615 -0.189518 0)
(1.01676 -0.00440496 0)
(1.16453 0.228682 1.49884e-20)
(1.0009 -0.00347782 3.37853e-22)
(1.11564 -0.0484114 5.67841e-20)
(1.02063 -0.00799685 -4.06586e-21)
(1.30901 -0.148344 0)
(-0.0389694 0.00580218 1.26215e-19)
(1.00716 -0.00803712 3.8514e-23)
(1.039 -0.00119743 6.80816e-21)
(1.29075 -0.0359627 0)
(0.999889 -0.0282987 -1.51548e-21)
(0.727882 0.0618632 -6.77286e-21)
(-0.243954 0.00762547 -2.13388e-19)
(1.12677 0.0568782 1.74098e-20)
(0.966289 -0.0138951 2.4821e-20)
(0.999081 -0.00216114 1.1649e-20)
(1.02078 -0.00780212 3.57203e-21)
(1.00226 -0.000768979 1.77092e-21)
(-0.250175 0.00237327 -1.39346e-19)
(1.30094 -0.213402 1.58567e-20)
(1.21881 -0.131542 -4.99425e-20)
(1.03643 -0.0475949 -3.99165e-21)
(-0.029853 0.0142549 0)
(1.0052 -0.000269784 -1.33317e-23)
(0.995734 -0.0171825 -7.89596e-22)
(0.617889 0.0291284 8.0667e-20)
(1.02705 -0.01219 5.6063e-21)
(0.245047 0.0344822 -1.15051e-19)
(1.01717 -0.00139816 -1.82646e-21)
(0.924432 -0.0956645 -3.4895e-20)
(0.953894 -0.0424368 -2.11516e-20)