/*--------------------------------*- C++ -*----------------------------------*\
| =========                 |                                                 |
| \\      /  F ield         | OpenFOAM: The Open Source CFD Toolbox           |
|  \\    /   O peration     | Version:  v2012                                 |
|   \\  /    A nd           | Website:  www.openfoam.com                      |
|    \\/     M anipulation  |                                                 |
\*---------------------------------------------------------------------------*/
FoamFile
{
    version     2.0;
    format      ascii;
    class       surfaceVectorField;
    location    "200";
    object      Uf_0;
}
// * * * * * * * * * * * * * * * * * * * * * * * * * * * * * * * * * * * * * //

dimensions      [0 1 -1 0 0 0 0];


internalField   nonuniform List<vector> 
27907
(
(1.09448 -0.305056 -7.04818e-21)
(1.10418 -0.298566 1.97723e-21)
(1.10297 -0.310754 -1.53651e-20)
(1.27244 -0.0263368 1.37968e-20)
(1.23328 -0.0233303 2.6751e-20)
(1.26422 -0.0241458 1.36158e-20)
(1.01527 -9.26701e-05 3.07615e-22)
(1.01521 -0.000158029 2.67087e-21)
(1.01515 -7.68872e-05 -2.35e-23)
(0.613286 0.147203 9.61942e-21)
(0.630856 0.150304 1.88566e-21)
(0.594215 0.131529 1.25491e-20)
(0.1819 0.0319706 1.42756e-20)
(0.219729 0.0333341 2.89293e-20)
(0.175567 0.0302847 5.57711e-21)
(0.223785 0.0308348 1.69795e-20)
(0.190643 0.0293595 -3.49119e-20)
(0.235665 0.030727 -1.51061e-20)
(-0.21723 -0.0113201 -3.14933e-20)
(-0.235943 -0.00560729 -7.30372e-21)
(-0.222392 -0.0111612 -6.33612e-20)
(1.01204 -0.00475702 5.33543e-23)
(1.01238 -0.00475901 -1.22156e-21)
(1.01225 -0.0050464 4.22947e-23)
(1.23914 0.027251 -1.33654e-20)
(1.23897 0.02442 7.57304e-21)
(1.2418 0.0256109 3.50665e-20)
(1.01741 -0.104124 -3.28193e-22)
(1.01758 -0.107871 -2.31137e-22)
(1.0207 -0.105167 -9.03316e-22)
(1.05638 -0.0386272 -1.51923e-20)
(1.05806 -0.0389633 3.41617e-21)
(1.05691 -0.0404053 -1.18003e-21)
(0.162513 -0.0451258 0)
(0.156243 -0.0422629 1.54004e-20)
(0.259689 -0.0550072 5.60654e-20)
(1.00214 -0.000415347 -4.14762e-22)
(1.00204 -0.000303719 9.39589e-22)
(1.00221 -0.000277247 -8.82775e-22)
(1.09984 0.174425 -1.01934e-20)
(1.10366 0.17219 -1.10386e-20)
(1.0997 0.169255 -1.01401e-20)
(1.04481 0.0118133 0)
(1.04555 0.0115477 -3.10749e-21)
(1.04474 0.0109284 0)
(0.601302 -0.534005 -3.22697e-20)
(0.567468 -0.506551 -1.89673e-20)
(0.604606 -0.490955 1.44018e-20)
(1.11392 0.0280453 1.6906e-20)
(1.11149 0.0275879 -1.02522e-20)
(1.11329 0.0255247 1.9103e-21)
(1.00416 -0.00749004 -7.47736e-22)
(1.00437 -0.0075409 -3.34633e-22)
(1.00413 -0.00722083 -3.51198e-22)
(1.03689 -0.00457316 -4.44327e-22)
(1.03763 -0.00461903 2.75484e-21)
(1.03729 -0.00398569 8.36182e-21)
(1.02997 -0.126031 2.63251e-21)
(1.02647 -0.125807 3.05298e-21)
(1.02871 -0.122498 2.96705e-21)
(-0.0326082 0.0156556 2.1348e-20)
(-0.0637508 0.0112081 -2.58522e-20)
(-0.0384834 0.0151496 3.93304e-20)
(1.00001 -0.000684129 -1.75514e-21)
(0.999996 -0.000981334 2.58338e-21)
(1.00004 -0.000812654 -1.06121e-21)
(-0.0501209 -0.0140354 -1.6265e-20)
(-0.0106455 -0.0172976 3.30072e-20)
(-0.0541169 -0.0148766 7.94807e-20)
(1.23788 0.0634847 -2.36763e-20)
(1.2312 0.0610938 -6.52952e-20)
(1.188 0.0646526 -3.82243e-20)
(1.31268 -0.122247 -2.44549e-20)
(1.32175 -0.125239 4.17373e-20)
(1.32387 -0.118573 -3.72319e-20)
(1.01174 -0.00474037 0)
(1.01189 -0.00449523 -5.81226e-22)
(0.806681 -0.684111 4.2979e-21)
(0.796907 -0.705403 -5.56683e-21)
(0.774551 -0.685564 8.60091e-22)
(0.144878 0.0214886 1.11515e-21)
(0.183286 0.023428 -3.13345e-20)
(0.152858 0.0224113 -6.69411e-20)
(0.839382 0.0117575 -1.79568e-20)
(0.941388 0.00417232 -2.52923e-20)
(0.877053 0.00953502 0)
(1.09614 -0.695718 -1.11353e-20)
(1.05515 -0.695283 -8.28005e-21)
(1.12719 -0.7585 0)
(1.11143 0.0858374 -3.76988e-21)
(1.11426 0.0874568 1.86733e-20)
(1.11449 0.0840427 -1.7618e-20)
(0.0870059 0.0212852 2.6314e-22)
(0.101039 0.0267576 0)
(0.109796 0.0278858 0)
(1.0005 -0.000186923 -1.52576e-22)
(1.00043 -0.000174932 1.39961e-21)
(1.00047 -0.000108422 1.10002e-21)
(1.05166 -0.010998 -1.09861e-20)
(1.05237 -0.010181 -4.45671e-21)
(1.05123 -0.00993982 7.13857e-21)
(1.16924 0.108148 -1.54666e-20)
(1.16533 0.107968 5.09263e-20)
(1.16732 0.112145 2.62707e-22)
(0.999392 -0.00269276 0)
(0.999287 -0.00275064 0)
(0.999333 -0.00286546 0)
(1.00022 -0.000248246 -6.03465e-22)
(1.00017 -0.000199341 -9.22938e-22)
(1.00018 -0.000258917 -5.96742e-22)
(1.03533 -0.0212549 -2.27384e-21)
(1.03444 -0.0212021 8.87109e-23)
(1.03501 -0.0220424 -2.35292e-21)
(1.04151 -0.0247659 -5.55106e-21)
(1.04193 -0.0238638 -5.86117e-21)
(1.04077 -0.0240285 -7.11233e-21)
(1.12321 0.0239564 -1.62943e-21)
(1.12176 0.0215381 1.61943e-20)
(1.12023 0.0242428 5.98805e-21)
(1.0361 -0.0197132 3.65197e-21)
(1.03565 -0.0204916 0)
(1.03516 -0.0195415 0)
(0.938737 -0.0822527 -7.38616e-21)
(0.938549 -0.0779318 -9.32283e-21)
(0.942523 -0.0810746 -7.49946e-21)
(1.02167 -0.00677234 -3.39939e-22)
(1.02167 -0.00709309 -6.06143e-22)
(1.02212 -0.00695637 -1.4049e-21)
(0.975968 -0.0925132 3.9121e-21)
(0.978332 -0.0944778 5.45004e-21)
(0.979011 -0.0910585 1.89317e-21)
(1.20962 -0.494121 0)
(1.18757 -0.500457 3.91877e-20)
(1.23716 -0.52358 4.35486e-20)
(1.01309 -0.00137952 9.03747e-22)
(1.01322 -0.00124775 1.61448e-21)
(1.01327 -0.00145968 0)
(-0.0490575 -0.0137872 7.58592e-21)
(-0.0823664 -0.0116732 3.70401e-20)
(1.05108 -0.0541252 0)
(1.05255 -0.052975 0)
(1.0507 -0.0521935 -7.37995e-21)
(1.0144 -0.103317 1.51907e-21)
(1.01726 -0.101044 -4.6537e-22)
(1.02155 -0.00539434 -1.12884e-21)
(1.02147 -0.00506399 -1.465e-21)
(1.02109 -0.00520775 -1.29227e-21)
(1.21594 -0.13753 2.15392e-20)
(1.21827 -0.133451 -8.58827e-21)
(1.22167 -0.138335 1.89184e-20)
(0.3389 0.0777647 1.27082e-20)
(0.328657 0.0750079 -7.10629e-20)
(0.384244 0.0828052 -4.07659e-20)
(1.01553 -0.0017647 4.39291e-22)
(1.01578 -0.00181296 1.88442e-21)
(1.01559 -0.00164064 0)
(1.0546 -0.038349 -1.47331e-20)
(1.05571 -0.0371275 2.41747e-22)
(0.106491 0.0177407 7.68993e-21)
(0.130796 0.0206383 2.49017e-20)
(1.21143 -0.207115 -3.00157e-20)
(1.2834 -0.212786 -6.46796e-20)
(1.31101 -0.224748 -5.08974e-23)
(1.00027 -0.000242842 -5.20355e-23)
(1.00027 -0.000311803 9.26215e-23)
(0.52117 -0.363532 2.05698e-20)
(0.539013 -0.333744 9.42464e-22)
(0.993894 -0.0239779 -6.03796e-22)
(0.994586 -0.0240514 2.85478e-21)
(0.994041 -0.0247981 5.04702e-22)
(1.11266 0.176936 1.14948e-20)
(1.1077 0.174745 3.48515e-20)
(1.10821 0.18023 2.08405e-20)
(1.11785 -0.258341 -2.88866e-20)
(1.11299 -0.26343 1.3689e-22)
(1.12164 -0.263743 -1.18195e-20)
(-0.21417 -0.0110961 7.19893e-20)
(-0.195026 -0.0161309 5.8685e-20)
(1.20301 0.0112891 1.04459e-20)
(1.20217 0.0147267 1.30955e-21)
(1.20585 0.0126767 4.82522e-21)
(0.97041 -0.0474873 2.84831e-21)
(0.972097 -0.0467062 3.1056e-21)
(0.970354 -0.0454748 3.05348e-21)
(1.01546 -0.00189418 1.58839e-21)
(1.01532 -0.00168582 -2.22778e-22)
(0.994087 -0.00527372 -2.86729e-21)
(0.994259 -0.00489928 6.7061e-22)
(0.994409 -0.00524034 -3.09905e-21)
(1.12129 0.0296152 -9.49642e-21)
(1.11874 0.0319687 -8.07286e-21)
(1.11835 0.0286372 1.18634e-20)
(1.00058 -0.00017894 -1.06143e-21)
(1.00054 -0.000256749 -1.65975e-21)
(1.03336 -0.0197071 -3.1882e-21)
(1.03251 -0.0198165 6.09228e-21)
(1.0328 -0.0190129 8.40775e-21)
(0.300396 0.0740326 6.24463e-20)
(0.344869 0.0789246 5.74739e-20)
(0.238683 0.0583672 8.00208e-21)
(0.244531 0.0583435 1.9011e-20)
(0.202354 0.0527478 3.61717e-20)
(0.971747 -0.0277302 0)
(0.97163 -0.0290293 8.86831e-21)
(0.972964 -0.0284345 8.93838e-23)
(1.0216 -0.00572264 7.78286e-24)
(1.02202 -0.00558526 3.72297e-21)
(0.152163 -0.328589 -2.93555e-20)
(0.172937 -0.275474 -2.58623e-20)
(0.111391 0.0338528 1.28921e-20)
(1.0175 -0.00808197 2.41216e-21)
(1.01704 -0.00801087 1.57304e-21)
(1.01722 -0.00775144 1.1465e-21)
(0.996064 -0.0250451 -3.01374e-22)
(0.99547 -0.0249754 8.83392e-22)
(0.995898 -0.0243302 -5.73165e-21)
(1.23088 0.0815796 0)
(1.23088 0.0778918 0)
(1.23467 0.078319 0)
(0.205107 0.0351273 -4.10274e-21)
(0.168712 0.0289061 -3.33037e-21)
(0.197006 0.0334689 -2.58135e-20)
(0.900647 -0.327899 3.60964e-21)
(0.915443 -0.324743 -1.84037e-20)
(0.910745 -0.340775 -8.18573e-21)
(-0.0749669 -0.0275628 -3.60769e-20)
(-0.0728531 -0.0267783 -5.7113e-20)
(-0.102072 -0.0250968 3.12427e-20)
(0.0440802 0.0106757 5.49809e-20)
(0.0422333 0.00935317 2.71528e-20)
(0.0959714 0.00833505 5.3585e-20)
(1.27887 -0.463715 -3.27776e-20)
(1.26535 -0.471759 -3.63144e-21)
(1.2827 -0.48108 -3.89253e-20)
(1.11548 0.173743 -3.28955e-20)
(1.11658 0.179066 1.21482e-20)
(0.158697 0.0235122 2.7921e-20)
(0.189624 0.0256042 4.21385e-20)
(0.192868 0.0260171 -6.9411e-21)
(1.22961 0.085214 -1.19801e-20)
(1.23382 0.0860021 -6.837e-20)
(1.09937 -0.0227935 -4.04797e-21)
(1.09928 -0.0253778 1.94979e-20)
(1.09697 -0.0233061 0)
(0.476069 -0.172309 -6.09643e-21)
(0.532718 -0.19604 -7.79268e-21)
(0.726469 -0.255376 -4.99254e-20)
(1.20375 0.0081927 0)
(1.19995 0.0103579 0)
(-0.0659835 -0.0328574 1.78162e-20)
(-0.0759385 -0.0335467 -1.46414e-19)
(-0.0494487 -0.0212704 -2.40199e-20)
(0.996861 -0.0251792 -4.08871e-21)
(0.996356 -0.0258866 2.72422e-22)
(0.131714 0.0219537 0)
(0.128691 0.0213525 9.6241e-21)
(0.993281 -0.0238651 2.3103e-21)
(0.993831 -0.0232739 -5.9924e-23)
(0.106798 -0.0649435 -3.0368e-20)
(0.0952439 -0.066242 2.73041e-20)
(0.233955 -0.0904513 2.87502e-20)
(0.938945 -0.0866838 -6.10723e-21)
(0.934894 -0.0834612 4.79817e-21)
(0.0490208 0.0129789 -2.49855e-22)
(0.0503158 0.0130271 -4.06885e-20)
(0.100823 0.0137068 -7.37085e-20)
(0.115188 -0.0667363 -5.04423e-20)
(0.0314942 -0.0506022 1.34283e-20)
(1.22883 0.0899153 -2.64944e-20)
(1.22542 0.0853783 2.59932e-20)
(1.01791 -0.00817199 -4.67423e-22)
(1.01773 -0.00844164 -1.29106e-21)
(1.00267 -0.0185713 -2.9104e-22)
(1.00234 -0.0183563 6.91335e-22)
(1.00246 -0.0189017 -1.89416e-21)
(-0.00689012 0.0204372 2.16206e-20)
(-0.0273949 0.0158717 2.12118e-20)
(1.04199 -0.127796 0)
(1.03924 -0.131456 0)
(1.03792 -0.126546 -4.24679e-21)
(0.103389 0.0191365 3.10736e-20)
(0.0742494 0.017943 -1.25838e-20)
(0.0723794 0.0165244 -8.62314e-21)
(1.16711 0.0547962 -3.9234e-21)
(1.16382 0.0538158 -2.47095e-20)
(1.16487 0.0573793 0)
(1.12234 -0.126976 -8.65542e-21)
(1.11793 -0.126608 1.26876e-20)
(1.12064 -0.123215 -7.54382e-21)
(0.0649598 0.0157824 -8.16711e-22)
(0.073131 0.0162122 2.17366e-20)
(1.13831 -0.684651 -6.43788e-20)
(1.08926 -0.655032 -2.36377e-20)
(0.951725 0.122092 -3.99434e-20)
(0.933457 0.118106 -1.80326e-20)
(0.9968 0.122276 -8.49374e-22)
(0.210661 0.0367316 3.5664e-20)
(0.247669 0.0389705 -6.11151e-20)
(1.04393 -0.0350073 -8.75718e-23)
(1.04347 -0.033805 -1.11326e-20)
(1.04508 -0.0340057 -1.20882e-20)
(0.964832 -0.0154834 8.78697e-22)
(0.965625 -0.014206 6.37188e-21)
(0.963968 -0.0140099 4.95007e-22)
(0.276208 -0.103957 0)
(0.128337 -0.0726789 0)
(0.577602 -0.941059 3.00911e-20)
(1.01072 -0.00544235 7.57152e-22)
(1.01062 -0.00517078 1.19445e-21)
(1.0104 -0.00533451 1.1301e-21)
(1.00975 -0.0361342 -2.17669e-22)
(1.01076 -0.036208 -3.148e-22)
(1.01026 -0.0351373 3.49901e-23)
(0.733568 0.0343195 -6.3401e-20)
(0.738019 0.0355194 -2.91044e-20)
(0.666208 0.0358414 -4.87525e-20)
(-0.214247 0.00628591 -2.67017e-20)
(-0.24055 0.00502088 0)
(-0.213642 0.00470935 0)
(-0.17868 0.00272559 2.54419e-20)
(-0.179568 0.00370989 2.73096e-20)
(-0.152973 0.00375479 5.26569e-20)
(1.04473 0.0126044 0)
(1.044 0.0120304 1.48357e-21)
(0.015493 -0.0315388 -1.16413e-20)
(0.0841898 -0.0364763 -2.91277e-20)
(0.01579 -0.0294918 1.03439e-20)
(0.0432223 0.0157932 4.98176e-20)
(0.00944651 0.0163707 4.64493e-20)
(1.12171 -0.0522089 -1.64996e-20)
(1.11936 -0.0502545 5.19495e-21)
(1.11857 -0.0536393 -4.30422e-20)
(0.988094 -0.0121318 -2.66666e-22)
(0.987867 -0.0125441 -1.85845e-22)
(0.987517 -0.0120512 8.82809e-22)
(0.669273 -0.040238 2.08172e-20)
(0.626826 -0.0278151 9.28979e-20)
(0.561103 -0.0189212 1.56235e-20)
(0.614184 -0.65403 1.2237e-20)
(0.655013 -0.632623 -1.24305e-20)
(0.658171 -0.681926 1.54852e-21)
(1.19066 -0.382588 3.76303e-20)
(1.19058 -0.395145 -1.78621e-20)
(1.20093 -0.387908 5.17823e-20)
(1.23299 -0.486897 0)
(1.19873 -0.471723 0)
(1.27854 -0.0302627 -5.83631e-21)
(1.28468 -0.0312974 0)
(1.26665 0.025168 -1.39028e-20)
(1.26776 0.0272603 -8.08767e-20)
(1.26785 0.0239583 -9.00709e-23)
(0.0754152 -0.0584428 6.72208e-20)
(0.0210403 -0.0420519 0)
(1.00286 -0.000151066 4.90678e-23)
(1.00309 -0.000141062 -6.95496e-22)
(1.00381 -0.000228964 4.3493e-23)
(1.11604 0.0281942 4.61904e-20)
(1.11432 0.0302806 1.42089e-20)
(0.851011 -0.673143 1.32201e-20)
(0.819981 -0.643171 6.97351e-21)
(-0.0828497 0.00810459 -2.5133e-20)
(-0.0785772 0.00779197 2.64529e-20)
(0.938067 -0.224001 -3.45385e-21)
(0.928182 -0.225279 7.28276e-21)
(0.935709 -0.21623 -5.61844e-21)
(0.24676 -0.689403 7.57264e-21)
(0.227593 -0.766723 5.52471e-21)
(0.970585 -0.0646868 1.45039e-22)
(0.969739 -0.0669341 1.39583e-21)
(0.972272 -0.0664446 -1.94167e-21)
(1.23106 0.0738715 1.58659e-20)
(1.227 0.0770091 0)
(1.12452 0.0258035 -1.60112e-20)
(1.12606 0.0235265 -1.68268e-21)
(1.00313 -0.0188923 -1.32214e-21)
(1.00295 -0.0182643 -3.17175e-22)
(0.794394 -0.266789 -1.20362e-20)
(0.781511 -0.262046 9.76583e-21)
(0.785606 -0.278596 5.23574e-20)
(0.89192 -0.319201 2.7489e-20)
(0.88656 -0.336454 3.88186e-21)
(0.957876 -0.456596 6.35325e-21)
(0.946031 -0.468822 2.4513e-21)
(0.967122 -0.469321 4.7606e-21)
(1.00501 -0.0314479 2.02866e-22)
(1.00561 -0.0320311 1.81634e-21)
(1.00479 -0.0322361 2.29393e-21)
(1.1395 -0.189059 0)
(1.08349 -0.174127 7.78614e-21)
(1.03645 -0.0191258 -4.94506e-21)
(1.03691 -0.020038 -2.14386e-21)
(1.03924 -0.00214192 5.96677e-22)
(1.03896 -0.00155882 0)
(1.03844 -0.00215951 -6.46271e-21)
(-0.120349 0.00728744 0)
(-0.124208 0.00751038 0)
(-0.149437 0.00585377 9.97338e-23)
(0.239892 0.0188912 -1.0888e-21)
(0.265454 0.0252918 -2.45714e-20)
(0.249766 0.0160244 1.67035e-20)
(1.10898 0.0839954 -1.39662e-20)
(1.10843 0.0873959 8.72909e-23)
(0.670331 0.048762 1.71757e-20)
(0.646961 0.0453932 -6.68536e-20)
(0.608163 0.0421041 -1.76146e-20)
(1.29001 -0.450909 -3.69388e-20)
(1.27051 -0.446949 -3.49686e-20)
(1.17102 0.140018 2.73356e-21)
(1.12338 0.137673 -3.72428e-20)
(1.1633 0.143741 4.60019e-20)
(1.09933 -0.0276564 9.67148e-21)
(1.09701 -0.0282326 -3.91442e-21)
(1.09934 -0.0302111 -1.70196e-20)
(0.999966 -0.000681355 -2.11225e-23)
(1.00002 -0.000931952 1.61575e-21)
(0.999977 -0.00074166 1.65778e-21)
(-0.0444343 0.00645169 -2.11048e-20)
(-0.0396146 0.00717448 1.38995e-20)
(-0.0764141 0.00613791 -3.71073e-21)
(1.08993 -0.0442721 1.30434e-20)
(1.08844 -0.0425838 -4.30766e-21)
(1.08732 -0.0446603 1.65469e-20)
(-0.0338604 -0.0312687 -6.22964e-21)
(0.00735127 -0.033956 -7.69633e-20)
(1.04975 -0.0550569 0)
(1.05154 -0.0559987 0)
(0.992651 -0.0381016 -4.37013e-21)
(0.991932 -0.0387716 1.17466e-21)
(0.991688 -0.0375823 1.5365e-22)
(0.999996 -0.000481686 1.73995e-21)
(1.00001 -0.000233754 1.72075e-21)
(1 -0.000246866 1.73809e-24)
(1.01117 -0.0129872 -3.10663e-22)
(1.0115 -0.0132279 9.18045e-23)
(1.01113 -0.0134034 -1.35035e-22)
(1.12336 0.171001 -7.96287e-22)
(1.11963 0.171535 4.40584e-22)
(1.12217 0.175285 1.38868e-20)
(0.18798 -0.102346 1.70714e-21)
(0.25727 -0.129414 7.46423e-20)
(0.0871573 -0.0795141 5.9305e-20)
(0.993506 -0.0370212 8.75695e-22)
(0.993869 -0.0384398 -1.78921e-21)
(1.12346 -0.252515 -1.58837e-20)
(1.11487 -0.252969 -6.7668e-21)
(0.798533 0.0179744 4.07273e-21)
(0.746268 0.0229188 5.49826e-21)
(1.0383 -0.00589378 0)
(1.03914 -0.00597339 0)
(1.03852 -0.0066294 -7.22907e-21)
(0.521598 -0.0436945 0)
(0.619805 -0.0592796 -5.97167e-20)
(0.500806 -0.0442485 0)
(1.22241 -0.243652 -2.10983e-20)
(1.21702 -0.248578 3.27486e-20)
(1.21519 -0.24068 -6.19678e-20)
(0.220847 0.0277631 -1.4883e-20)
(0.260457 0.0298582 3.59468e-20)
(0.255496 0.0296046 -2.95634e-20)
(-0.138246 0.0139958 2.98838e-20)
(-0.143024 0.0139474 5.62644e-21)
(-0.114636 0.0164544 2.64465e-20)
(1.004 -0.00748459 1.49766e-21)
(1.00423 -0.0077663 -9.99186e-22)
(0.347823 -0.141303 -1.9865e-23)
(0.135131 -0.0829158 1.75301e-21)
(0.155011 0.0231726 -9.83523e-21)
(0.1587 0.0234517 -5.73821e-21)
(0.19396 0.0255404 2.98221e-20)
(1.12482 0.167233 2.63244e-21)
(1.12742 0.171151 -1.52448e-20)
(1.25815 0.0659959 5.85039e-20)
(1.2381 0.0673295 4.69236e-20)
(0.709769 0.0293215 -2.74272e-20)
(0.650352 0.0287583 4.68239e-20)
(0.737324 0.028175 3.53721e-20)
(0.970548 -0.0489695 0)
(0.968732 -0.0479604 0)
(0.806225 -0.258176 -2.89473e-20)
(0.808963 -0.274432 -4.30479e-21)
(1.03156 -0.0305119 0)
(1.03261 -0.0307263 0)
(1.03215 -0.0296605 0)
(1.00913 -0.00531269 0)
(1.00885 -0.00516974 0)
(1.00908 -0.00500172 0)
(-0.215868 0.00225726 5.19945e-20)
(-0.215694 -0.00015728 3.14555e-20)
(1.20935 0.141507 2.75797e-21)
(1.1808 0.137343 1.30469e-22)
(1.02602 -0.00493994 -1.39603e-22)
(1.02641 -0.00475416 -3.06958e-21)
(1.02654 -0.0052296 -2.82535e-21)
(1.06776 0.00535178 -7.73744e-21)
(1.06804 0.00667396 -1.07354e-20)
(1.06924 0.00538839 6.97224e-21)
(1.22844 0.132781 0)
(1.25162 0.131553 -5.08253e-21)
(1.24642 0.13837 -2.05157e-20)
(0.997706 -0.0195853 -2.68481e-21)
(0.99762 -0.0201711 1.10922e-21)
(0.998148 -0.0199981 -5.65531e-21)
(-0.219177 0.00644283 -2.6183e-20)
(-0.192321 0.00735794 -2.85658e-20)
(1.02076 -0.00628502 1.26288e-21)
(1.02076 -0.00596309 -1.3714e-21)
(1.02034 -0.00606155 1.39517e-21)
(0.995748 -0.0175126 6.22775e-21)
(0.995953 -0.0180568 2.85218e-21)
(0.995402 -0.0180691 -7.56148e-22)
(0.945278 -0.225395 1.39756e-21)
(0.937978 -0.233412 -8.89588e-21)
(1.2654 0.0220213 6.76371e-20)
(1.26175 0.0251311 3.61981e-20)
(1.01308 -0.0472057 -6.57231e-24)
(1.01324 -0.0485722 -1.16468e-22)
(1.012 -0.0480477 1.87071e-22)
(1.10664 0.0820363 7.60879e-23)
(1.10948 0.0806202 4.93089e-21)
(0.978134 -0.150863 -1.20601e-21)
(0.974473 -0.152917 -5.45392e-21)
(0.979396 -0.155223 -3.30351e-21)
(1.20473 0.0054058 0)
(1.20701 0.00675172 -1.09506e-20)
(1.03379 -0.126188 -1.09806e-21)
(1.03143 -0.130182 2.2277e-22)
(1.22871 -0.239173 -3.73077e-20)
(1.23151 -0.246917 -3.8378e-21)
(1.00081 -0.00251109 1.1954e-21)
(1.00073 -0.0023705 2.5909e-23)
(1.00072 -0.00246327 0)
(1.0212 -0.00655803 -3.76055e-22)
(1.02164 -0.00639078 -3.00469e-21)
(0.745403 -0.213419 -1.5872e-20)
(0.753353 -0.226325 -8.60463e-21)
(0.761705 -0.213929 -4.12204e-21)
(1.04816 -0.0558673 1.86182e-21)
(1.04791 -0.0541023 0)
(1.07603 -0.127295 5.61373e-21)
(1.07225 -0.128958 -7.45231e-21)
(1.07592 -0.132343 5.27434e-21)
(1.18433 -0.00446553 1.04615e-20)
(1.18533 -0.00690912 7.63972e-21)
(1.18709 -0.00378449 -5.21364e-21)
(1.00207 -0.000517583 -1.27122e-22)
(1.00224 -0.000519927 3.62898e-22)
(0.977735 -0.146455 5.99086e-21)
(0.98234 -0.148795 4.5711e-21)
(1.17094 0.0498115 -3.63687e-21)
(1.17302 0.047229 -4.35811e-20)
(1.17413 0.0509851 4.09506e-21)
(0.99999 -0.00042935 3.00706e-23)
(0.999985 -0.000704869 9.93536e-22)
(-0.0148931 0.0142707 0)
(-0.0424308 0.00907275 0)
(-0.0169771 0.0159868 -1.8498e-20)
(1.01119 -0.10235 0)
(1.01128 -0.106063 0)
(1.00456 -0.00756698 -5.82952e-22)
(1.00479 -0.00761226 -3.71496e-23)
(1.00453 -0.00726388 2.93206e-23)
(1.1237 -0.130838 -1.7323e-20)
(1.12665 -0.127336 6.45213e-22)
(0.994155 -0.0406312 -1.44605e-22)
(0.995267 -0.0405614 2.25476e-21)
(0.994471 -0.0395988 5.28339e-21)
(1.08089 -0.117945 -1.08574e-20)
(1.08403 -0.117385 1.40316e-20)
(1.08356 -0.121599 1.37401e-20)
(0.866634 -0.303704 -2.2131e-21)
(0.860774 -0.29122 1.63394e-20)
(0.875506 -0.294578 1.69073e-20)
(0.0982876 -0.00370984 -4.80091e-20)
(0.0518651 -0.0036842 6.95377e-20)
(0.050573 -0.00124547 -9.75828e-20)
(0.855585 -0.312508 -1.38719e-20)
(0.871415 -0.314921 -3.42632e-20)
(0.516035 -0.448216 -3.87195e-20)
(0.540873 -0.477949 6.56971e-21)
(0.550179 -0.439086 2.38159e-20)
(1.0155 -0.00446475 -1.81619e-21)
(1.01583 -0.00453611 1.26596e-22)
(1.01563 -0.00471142 -1.50071e-21)
(0.266418 0.0332226 -2.06442e-21)
(0.217402 0.0307637 3.39054e-20)
(1.00461 -0.00782127 9.05293e-22)
(1.04314 -0.0358154 5.92284e-21)
(1.04461 -0.0359684 5.33228e-21)
(1.21139 0.104379 -3.11414e-20)
(1.21527 0.102712 2.08194e-20)
(1.21119 0.100847 0)
(-0.117521 0.00704332 -7.03445e-21)
(-0.0970884 0.00949556 0)
(1.25538 -0.156407 0)
(1.26057 -0.155629 -2.74669e-20)
(1.25854 -0.161397 -2.78504e-21)
(1.16891 0.0526211 4.53278e-21)
(1.16775 0.0487524 9.11656e-21)
(1.16199 -0.0598821 -2.26369e-20)
(1.16168 -0.0555755 -6.84567e-21)
(1.15821 -0.0586303 3.39684e-20)
(0.986807 -0.209238 1.65248e-22)
(0.992118 -0.213923 -3.12118e-22)
(0.984674 -0.216952 1.67529e-21)
(1.02549 -0.00246919 0)
(1.02542 -0.00210214 2.74374e-21)
(1.02586 -0.00234899 8.83934e-22)
(1.18636 -0.0105558 3.23289e-21)
(1.1878 -0.0129855 3.12204e-20)
(1.1896 -0.00949548 2.20597e-20)
(0.993953 -0.00557639 0)
(0.993752 -0.00526151 0)
(1.20189 0.00399296 -1.90768e-20)
(1.20565 0.00228321 0)
(-0.0510569 -0.0138727 -3.64913e-21)
(-0.0585114 -0.0102191 6.6286e-20)
(-0.0846405 -0.00880102 4.33438e-20)
(1.22834 0.093467 -1.42821e-20)
(1.23242 0.0935426 5.6231e-21)
(1.00194 -0.000179304 3.587e-22)
(1.00191 -0.000288734 8.2194e-22)
(0.997843 -0.0189564 -2.94786e-21)
(0.997312 -0.0191528 0)
(1.02558 -0.00286698 0)
(1.02506 -0.00260701 3.85955e-21)
(1.0128 -0.00160087 -1.04818e-21)
(1.01267 -0.0017157 -1.01292e-21)
(1.0126 -0.00151088 -1.06946e-21)
(0.789651 -0.0543649 -8.26383e-20)
(0.708619 -0.0459227 -2.89783e-20)
(1.10028 -0.0953293 9.38277e-21)
(1.09745 -0.0955987 2.28839e-20)
(1.09951 -0.0986751 8.26564e-21)
(1.00908 -0.0130409 -7.91927e-23)
(1.00908 -0.0133397 -8.02901e-23)
(1.00941 -0.0132425 6.69646e-23)
(1.28239 -0.254142 -7.17195e-20)
(1.28841 -0.262312 -2.28836e-20)
(1.29555 -0.254435 5.34213e-21)
(0.898663 0.119665 1.03882e-20)
(0.962041 0.125716 -2.39936e-21)
(1.05512 -0.0216704 0)
(1.05629 -0.0216483 0)
(1.05529 -0.0206361 -3.26059e-21)
(0.697839 0.0523246 1.39463e-20)
(0.741599 0.0561292 3.87449e-20)
(0.0660495 0.0270694 1.38574e-20)
(0.0788463 -0.124429 2.76583e-21)
(-0.0748828 -0.0292901 -1.0483e-19)
(1.22767 0.0975915 0)
(1.22429 0.0935661 0)
(0.99947 -0.00262032 -3.25982e-21)
(0.999434 -0.00255709 -2.67399e-21)
(0.0436221 0.0116481 -5.35109e-21)
(0.0469058 0.0124376 2.08784e-20)
(0.100377 0.0117441 -4.99078e-20)
(0.897746 -0.0837879 0)
(0.894596 -0.0791352 0)
(0.900042 -0.0792829 0)
(0.999208 -0.00312101 8.9949e-22)
(0.999201 -0.00322913 8.86419e-22)
(0.999122 -0.00323958 -2.57353e-21)
(0.519371 -0.0379595 0)
(0.409156 -0.028193 0)
(1.10117 -0.022751 -3.33316e-21)
(1.09934 -0.0207856 -3.52432e-20)
(0.894283 -0.0884983 0)
(0.900078 -0.0883238 0)
(1.0429 0.00601348 2.72048e-21)
(1.04298 0.00668013 -2.80871e-21)
(1.04366 0.00616938 0)
(1.12803 -0.0575417 0)
(1.12517 -0.0569157 -1.21597e-20)
(1.12753 -0.0543695 2.38978e-20)
(1.26461 0.0885028 2.75656e-21)
(1.2652 0.0855401 4.44041e-20)
(1.26403 0.084702 -2.30799e-20)
(0.485075 -0.460132 -6.27789e-20)
(0.495849 -0.425853 -5.06029e-20)
(1.07789 -0.119454 -2.06026e-21)
(1.07792 -0.115539 -3.58109e-21)
(0.929782 -0.321705 -3.33971e-21)
(0.938768 -0.33159 0)
(0.942227 -0.31778 9.16786e-22)
(1.02846 0.00275873 0)
(1.02893 0.00292443 4.27278e-22)
(1.1588 0.0381488 -1.76311e-21)
(1.16003 0.0413978 2.74095e-21)
(1.1562 0.0410183 6.2082e-21)
(0.999515 -0.00747407 8.92168e-22)
(0.99953 -0.00784024 1.57215e-21)
(0.999699 -0.00755442 0)
(1.18346 -0.000965853 -1.80396e-21)
(1.18114 -0.00419261 6.48742e-21)
(1.00832 -0.101278 -4.20832e-22)
(1.0112 -0.0991916 0)
(1.20826 0.106523 -2.7224e-20)
(1.21175 0.108429 9.92183e-21)
(-0.281396 0.00114871 -1.0261e-20)
(-0.299952 0.00256479 -6.6713e-20)
(-0.282267 -0.000574623 1.18055e-19)
(1.01518 -0.00443323 0)
(1.01536 -0.00426408 0)
(1.04274 -0.0315348 8.61857e-21)
(1.04408 -0.0317366 4.53058e-21)
(1.04311 -0.032664 -2.38055e-21)
(1.03637 -0.478515 2.15094e-20)
(1.05648 -0.475005 -1.84539e-20)
(1.05017 -0.50024 2.30493e-21)
(1.04234 -0.030477 2.27131e-21)
(1.04142 -0.0313235 6.06436e-21)
(1.06637 0.00543334 0)
(1.0673 0.00417723 0)
(1.18277 -0.0106639 3.33216e-21)
(0.655036 0.014158 1.35448e-20)
(0.752608 0.00710697 -2.07719e-21)
(0.684854 0.0119977 1.22529e-20)
(-0.180791 0.0015632 0)
(-0.203563 0.00279797 8.44001e-20)
(1.00308 -0.0312519 -1.10192e-21)
(1.00372 -0.0308488 -5.42157e-23)
(1.0029 -0.0304248 -1.18701e-21)
(1.21308 -0.125337 5.71633e-20)
(1.20849 -0.121244 3.02082e-20)
(1.20789 -0.12777 -1.65031e-20)
(0.145161 -0.0298946 -1.82602e-22)
(0.0550408 -0.0414085 -1.84936e-20)
(0.175422 -0.0105229 1.77655e-20)
(1.24887 -0.48039 -3.65419e-21)
(1.238 -0.460404 -1.39028e-22)
(1.01102 -0.0533868 3.07144e-24)
(1.00973 -0.0527828 4.78985e-22)
(1.011 -0.0518446 -6.50854e-23)
(1.02966 -0.00814893 1.50486e-21)
(1.0303 -0.00836234 -7.90677e-22)
(1.0301 -0.00774375 -2.55773e-21)
(1.07952 -0.0737057 -8.29854e-21)
(1.08169 -0.0736762 -1.79121e-21)
(1.08041 -0.0710276 -8.93634e-21)
(1.10354 -0.094345 -1.11395e-20)
(1.10119 -0.091514 -6.32473e-22)
(1.00446 -0.0309738 0)
(1.00521 -0.0308087 1.59702e-21)
(0.133642 -0.0523426 -1.46917e-20)
(0.217972 -0.0275588 -1.54482e-20)
(1.27785 -0.246279 5.51118e-21)
(1.27273 -0.254069 -6.38138e-20)
(1.06692 0.254896 0)
(1.03652 0.249874 0)
(1.04981 0.249987 0)
(-0.0900545 0.00823086 3.2243e-20)
(-0.00899532 -0.0149355 6.41147e-20)
(1.02465 -0.0049449 -1.98673e-21)
(1.02499 -0.00465398 -2.17813e-21)
(1.02446 -0.00452631 -2.10891e-21)
(1.01533 -0.000115067 -3.16518e-23)
(1.0153 -4.77189e-05 1.22049e-21)
(0.995295 -0.226542 -9.75439e-23)
(0.988809 -0.229571 7.9662e-22)
(0.995632 -0.234876 2.66877e-21)
(0.155023 -0.00271595 -5.50411e-20)
(0.156548 -0.00788094 5.41293e-20)
(0.920929 -0.0475605 -1.15398e-20)
(0.922772 -0.0443453 -1.46245e-20)
(0.924607 -0.0474574 3.03863e-22)
(0.92089 -0.312333 8.77917e-23)
(1.20692 -0.0260202 9.03705e-21)
(1.20624 -0.0229325 2.09447e-20)
(1.20378 -0.0253448 -1.08285e-20)
(1.0741 -0.0781758 1.38235e-20)
(1.07679 -0.0785228 -6.96208e-22)
(1.07472 -0.0811046 -8.2599e-21)
(0.00108372 0.0108825 3.29625e-20)
(1.03646 -0.00513558 -5.18235e-21)
(1.03615 -0.00449854 -2.95115e-21)
(1.126 0.242136 -2.61401e-20)
(1.12645 0.238246 -3.14307e-22)
(1.13169 0.243863 4.73959e-21)
(0.184352 0.0255728 -1.94568e-21)
(1.01294 -0.00150196 -1.25818e-22)
(1.01291 -0.00129405 8.86187e-22)
(0.443336 0.107203 6.60926e-21)
(0.395181 0.098356 -1.04902e-20)
(0.412635 0.101242 2.59828e-20)
(0.965519 -0.168233 -3.95812e-22)
(0.968533 -0.173137 -3.16019e-21)
(0.961897 -0.173518 -3.37564e-21)
(1.03392 -0.020487 -3.56482e-21)
(1.03422 -0.0195525 -6.68522e-21)
(1.06823 -0.110604 8.13745e-21)
(1.07211 -0.11277 -6.25323e-21)
(1.07156 -0.107753 7.65233e-21)
(1.19301 -0.0609891 1.04598e-20)
(1.19254 -0.0568209 6.27858e-20)
(1.18909 -0.0604301 1.3782e-20)
(1.04887 0.00365856 -1.01788e-20)
(1.04844 0.0043558 1.73319e-21)
(1.04949 0.00434631 -1.05229e-20)
(0.999277 -0.00303128 -5.53616e-23)
(0.999174 -0.00302759 3.77238e-23)
(-0.26449 -0.00573808 0)
(-0.262187 -0.00722493 0)
(-0.238917 -0.00684159 -4.25309e-20)
(1.08489 0.260571 1.14108e-20)
(1.09416 0.259261 -1.35413e-20)
(1.00199 -0.0135106 -2.57101e-21)
(1.00225 -0.0138074 -3.39011e-22)
(1.00196 -0.0139325 6.05298e-22)
(-0.258715 -0.00627233 -2.10982e-20)
(-0.265222 -0.00405328 2.4379e-20)
(-0.273076 -0.00260749 0)
(0.00679313 0.0136525 2.3185e-20)
(1.25002 -0.156916 -2.34679e-21)
(1.25231 -0.151515 0)
(0.998307 -0.00794467 -3.09209e-22)
(0.998213 -0.00830343 2.45964e-21)
(0.998103 -0.00790834 1.48656e-22)
(1.00301 -8.663e-05 0)
(1.16864 0.216772 8.085e-21)
(1.16303 0.215102 -1.61996e-20)
(1.13977 0.215246 -2.97758e-20)
(1.05387 -0.0218034 0)
(1.0548 -0.0229968 0)
(1.02549 -0.00475851 4.52521e-21)
(1.02565 -0.00527153 5.59866e-21)
(1.03047 -0.00950271 -2.4238e-21)
(1.03062 -0.00992197 -2.21298e-21)
(1.03108 -0.0094707 -2.03588e-21)
(0.948047 -0.0178854 -5.86463e-21)
(0.945866 -0.0175093 0)
(0.947135 -0.015397 0)
(1.21133 -0.253874 3.46319e-20)
(1.21942 -0.257 6.56472e-20)
(1.19377 -0.0641843 -1.49572e-20)
(1.1968 -0.060721 -6.1187e-20)
(1.07861 -0.0761325 -3.43672e-21)
(1.07706 -0.0736009 5.15711e-21)
(1.09436 -0.0945113 1.86145e-20)
(1.09458 -0.097648 -6.53314e-21)
(1.02253 -0.125347 5.31111e-22)
(1.02379 -0.129318 3.085e-21)
(0.953044 -0.22506 9.02958e-22)
(0.952795 -0.231914 8.04835e-21)
(1.02799 0.00262132 -3.02086e-21)
(1.02836 0.00230241 -7.06734e-23)
(0.999999 -0.000718228 -1.55042e-23)
(1 -0.000722056 -2.06483e-21)
(1.26757 0.0300491 -4.61272e-20)
(1.2672 0.030073 -1.3588e-20)
(1.07581 -0.202342 -2.62644e-20)
(1.0731 -0.208099 -1.33418e-20)
(1.07998 -0.207045 3.42505e-21)
(1.21748 -0.128602 -3.30192e-21)
(1.21739 -0.122603 -4.50019e-20)
(0.621792 0.157378 -5.74975e-21)
(0.593727 0.140723 1.46876e-20)
(0.917659 -0.0479931 3.97275e-21)
(0.91999 -0.0510582 -1.29372e-20)
(1.01291 -0.0458478 0)
(1.01415 -0.0462604 1.91374e-22)
(1.00453 -0.000223546 -1.4721e-21)
(1.00501 -0.000204613 -2.37945e-22)
(1.00625 -0.000213687 -1.75379e-22)
(1.12209 0.2411 -2.49078e-20)
(1.12401 0.246477 -5.38522e-20)
(0.495382 0.116353 -1.55441e-20)
(0.479991 0.113212 4.01826e-20)
(1.0257 -0.00328527 2.19462e-21)
(1.02611 -0.00311741 0)
(1.00498 -0.0076302 -9.49063e-23)
(1.00521 -0.00765356 -4.47849e-22)
(1.00494 -0.00731854 -7.08212e-22)
(1.02573 -0.00365144 -6.11332e-23)
(1.02528 -0.00335807 1.9449e-21)
(0.971161 -0.062655 2.60082e-21)
(0.969029 -0.0633368 7.85856e-21)
(0.980665 -0.204695 1.62761e-22)
(0.987681 -0.202393 8.05781e-23)
(1.30327 -0.118637 0)
(1.30105 -0.124972 -2.86241e-20)
(0.98873 -0.0120483 -1.94382e-21)
(0.988365 -0.0115196 -3.2992e-21)
(0.968338 -0.0146154 0)
(0.969639 -0.0147445 0)
(0.968944 -0.0133977 6.11597e-21)
(1.02219 -0.00475543 -1.75293e-21)
(1.02251 -0.0045547 2.0368e-21)
(1.02205 -0.00440001 -3.65965e-21)
(0.625871 -0.560322 -9.03804e-21)
(0.58866 -0.578012 -1.45204e-20)
(0.971336 -0.443401 -2.63877e-21)
(0.950229 -0.442582 -2.41372e-21)
(1.22887 -0.0265822 4.16661e-20)
(1.23113 -0.0284789 -2.89168e-20)
(1.22818 -0.0298123 2.83867e-22)
(1.1413 -0.299668 2.06132e-21)
(1.13867 -0.309363 1.26052e-20)
(1.15137 -0.304684 -4.06369e-20)
(1.05278 -0.00444021 -9.75959e-21)
(1.05236 -0.00342938 -2.72029e-21)
(1.05371 -0.00365152 -1.17885e-20)
(1.26417 0.0198465 9.62081e-21)
(1.25905 0.0197602 -8.05726e-20)
(1.26279 0.0174343 -5.12634e-20)
(1.08751 -0.297225 2.31168e-20)