/*--------------------------------*- C++ -*----------------------------------*\
| =========                 |                                                 |
| \\      /  F ield         | OpenFOAM: The Open Source CFD Toolbox           |
|  \\    /   O peration     | Version:  v2012                                 |
|   \\  /    A nd           | Website:  www.openfoam.com                      |
|    \\/     M anipulation  |                                                 |
\*---------------------------------------------------------------------------*/
FoamFile
{
    version     2.0;
    format      ascii;
    class       surfaceVectorField;
    location    "150";
    object      ddtCorrDdt0(Uf);
}
// * * * * * * * * * * * * * * * * * * * * * * * * * * * * * * * * * * * * * //

dimensions      [0 1 -2 0 0 0 0];


internalField   nonuniform List<vector> 
27274
(
(-0.00177912 0.00100646 5.09151e-19)
(-0.00174049 0.000960843 -4.02044e-18)
(-0.00181158 0.000959958 -9.56358e-19)
(0.0226124 -0.010218 -6.86932e-19)
(0.0200951 -0.0115982 -3.82836e-19)
(0.0207987 -0.00870787 8.67327e-19)
(-0.000382079 -0.000390985 -4.10563e-19)
(-0.000367283 -0.000354266 4.37301e-19)
(-0.000375525 -0.000371855 2.40135e-18)
(-0.000167837 0.000155507 9.82313e-20)
(-0.000162638 0.000175502 -1.76004e-19)
(-0.000174438 0.000164986 2.33671e-19)
(-5.87154e-05 0.000977785 -3.10657e-19)
(-0.000100201 0.00094882 7.17093e-19)
(-0.000105187 0.00101241 -2.59939e-18)
(-0.00936065 -0.00930669 1.59743e-18)
(-0.00856384 -0.00936954 -1.38515e-17)
(-0.00904817 -0.010183 -2.06987e-18)
(-0.0001812 4.16641e-05 8.64086e-19)
(-0.000180841 2.68806e-05 -1.57072e-19)
(-0.000179039 3.70829e-05 -7.00776e-20)
(0.00100479 0.000129857 1.61146e-17)
(0.00122195 -8.00952e-05 -3.43154e-19)
(0.000913367 -0.000140391 -3.14689e-18)
(0.000117127 -0.00164482 1.11337e-18)
(0.000120192 -0.00165989 -3.16829e-19)
(-0.0267098 -0.00897726 -6.2673e-19)
(-0.0257501 -0.00702189 8.44517e-19)
(-0.0243339 -0.00868436 7.05234e-18)
(5.9437e-05 0.000119232 1.64292e-19)
(5.10918e-05 0.000128366 -2.55111e-19)
(4.93216e-05 0.000115278 9.10211e-21)
(0.0213185 0.00325223 -1.54974e-18)
(0.0220358 0.00280466 1.1254e-17)
(0.0212568 0.00239521 -2.9532e-17)
(0.00491184 0.00123103 -2.76546e-19)
(0.00544662 0.00111278 3.66125e-18)
(0.00529592 0.00171579 7.52024e-18)
(-5.76973e-05 -0.000187578 2.43098e-18)
(-7.23956e-05 -0.000182506 -3.65119e-18)
(-6.04815e-05 -0.000162896 -3.18071e-18)
(-0.000822963 5.5638e-05 4.28808e-21)
(-0.000812918 0.000101059 2.49982e-19)
(-0.000792392 4.75212e-05 -2.37305e-19)
(-0.00104155 -0.000951459 -2.37623e-18)
(-0.0010543 -0.000973385 2.6458e-18)
(-0.00101962 -0.000995632 -3.97203e-18)
(0.00884694 -0.00128083 -8.67408e-19)
(0.00841577 -0.00168231 -1.47694e-17)
(0.00831833 -0.00138812 -2.88906e-17)
(-0.000285764 2.10109e-05 -6.32752e-19)
(-0.000297602 4.11729e-05 -5.40023e-19)
(-0.000294457 -1.92969e-06 9.0295e-19)
(-0.000639741 -0.000711739 3.10156e-18)
(-0.000658511 -0.000706684 2.5773e-21)
(-0.000645119 -0.00068725 3.672e-18)
(0.0587008 -0.0638143 2.50761e-18)
(0.0599542 -0.0603286 -1.55865e-18)
(0.0603887 -0.0633926 4.02139e-18)
(-0.00112675 -0.00120959 2.03086e-18)
(-0.00115457 -0.00120935 3.92924e-18)
(-0.00111388 -0.0012456 3.00764e-18)
(-0.000482601 -0.00119748 -6.46292e-18)
(-0.000456553 -0.00120541 3.34963e-19)
(-0.000484143 -0.00122101 -2.15188e-18)
(-0.0432088 0.00272201 6.77328e-18)
(-0.0402279 0.00274821 -1.18082e-17)
(-0.0418265 0.00176113 -4.25911e-18)
(-2.27509e-05 0.000993909 -8.82354e-19)
(-2.25041e-05 0.000937809 3.51429e-18)
(-0.00023173 0.00268237 9.33079e-19)
(-0.000244907 0.00290394 -2.60177e-19)
(-2.5181e-05 -0.000544788 -2.57971e-20)
(-2.57461e-05 -0.000521713 2.55814e-20)
(-1.95173e-05 -0.000487517 -8.8694e-19)
(1.39515e-05 -0.00078528 7.15992e-18)
(1.31745e-05 -0.000769808 1.12588e-18)
(-3.36974e-05 -0.00161166 -6.32745e-18)
(-3.65625e-05 -0.0016281 -1.17984e-17)
(-1.56852e-05 -0.00161694 -1.37543e-17)
(-0.0251997 -0.0853132 3.25607e-18)
(-0.0224624 -0.0962316 -9.60239e-18)
(-0.0217249 -0.090613 1.73076e-18)
(-0.000368487 -0.000540977 -1.13702e-19)
(-0.000374768 -0.000565387 8.65988e-19)
(-0.000388959 -0.000587822 8.26772e-19)
(0.000235896 0.000650563 -2.25738e-19)
(0.000198089 0.000665565 -1.37697e-18)
(0.000246035 0.000691986 -9.9784e-19)
(-0.000332884 0.00143351 4.06806e-18)
(-0.000255383 0.00142137 -9.71157e-19)
(-0.000286312 0.0015183 -4.01786e-18)
(-0.000277809 5.74324e-06 -7.55983e-20)
(-0.000277835 4.12902e-05 1.26234e-19)
(-0.000141858 -2.20171e-06 -2.95885e-19)
(-0.000133972 -4.84109e-06 1.6469e-19)
(-0.000132008 -4.04974e-06 7.70013e-20)
(-0.00321188 0.00163164 6.61413e-18)
(-0.00340705 0.00168068 4.0228e-18)
(-0.00324603 0.00179808 2.8125e-18)
(-0.00173752 0.00104863 -2.5031e-18)
(-0.00181916 0.00106388 3.873e-18)
(8.3702e-05 -0.00142284 -5.01026e-18)
(7.08012e-05 -0.0014545 3.60648e-18)
(-0.00763725 -0.00174476 -3.46084e-17)
(-0.00726829 -0.0019221 2.32037e-17)
(-0.00731062 -0.00149274 6.3559e-17)
(-3.54259e-05 -0.00158428 1.74282e-17)
(-6.2796e-05 -0.00160365 1.87556e-17)
(4.71193e-05 0.000139083 -2.21854e-19)
(3.98938e-05 0.000139571 4.1806e-20)
(3.70432e-05 0.000149529 -3.84976e-19)
(-5.87756e-05 -0.000198524 1.41802e-18)
(-6.94702e-05 -0.000197298 -4.43034e-19)
(-0.00228767 -0.00320823 -1.59048e-18)
(-0.00239541 -0.00330613 -3.9868e-18)
(-0.00241506 -0.00314007 2.0555e-18)
(-0.000395728 -0.000422415 -1.41649e-18)
(-0.000387318 -0.000405987 -1.67187e-18)
(-0.0432113 -0.0049336 -1.73072e-17)
(-0.0431082 -0.00622465 -1.70979e-17)
(-0.0415568 -0.00550314 -6.08631e-18)
(4.79214e-05 1.02904e-05 -2.69955e-20)
(4.80484e-05 1.10993e-05 -4.61182e-21)
(5.35813e-05 8.52367e-06 6.3886e-21)
(-0.00792457 -0.00161401 -3.82909e-17)
(-0.00788652 -0.00201271 -4.6912e-17)
(-0.00125928 0.0020687 -5.58986e-18)
(-0.00116432 0.00204081 -4.87211e-18)
(-0.00117886 0.00216337 -2.49648e-17)
(-0.000253023 -0.00169837 6.52018e-18)
(-0.000217105 -0.00170552 -2.95305e-18)
(-0.000228301 -0.00167082 7.67721e-18)
(-0.00133245 0.00176791 -1.17164e-17)
(-0.00145184 0.00176248 -2.92124e-18)
(-0.00139981 0.001653 1.02681e-17)
(-0.000309599 -6.5213e-05 3.9262e-19)
(-0.00030974 -4.40914e-05 -1.45468e-19)
(-0.000310167 -4.21595e-05 7.17022e-20)
(-1.36506e-05 0.000174804 -1.50295e-19)
(-7.8264e-06 0.000159442 1.12456e-19)
(-4.40441e-06 0.000163356 2.24335e-20)
(-0.000518134 -0.000194005 4.19804e-19)
(-0.000529513 -0.000200717 1.4462e-19)
(-0.000510473 -0.000228416 7.0261e-20)
(3.44495e-06 7.5471e-05 -7.26253e-19)
(-1.60467e-06 7.49466e-05 -1.77642e-18)
(1.52978e-06 5.47726e-05 -1.32072e-18)
(0.00765537 -0.0266218 5.27907e-18)
(0.00976542 -0.0279162 -5.16616e-18)
(0.0133826 -0.0286013 -3.42759e-18)
(-0.000107258 -0.000510921 -1.34633e-19)
(-0.000114765 -0.000500226 -1.89714e-19)
(-0.000103456 -0.000502586 2.2438e-18)
(-8.40054e-05 -1.83551e-05 1.64763e-18)
(-9.14899e-05 -1.73366e-05 -1.9584e-18)
(-7.16703e-05 -9.48459e-06 1.14105e-18)
(-0.0372616 0.00662698 -1.47681e-18)
(-0.0372394 0.00460958 -7.8684e-19)
(-0.0393259 0.00588127 -2.018e-18)
(-0.000819118 1.7508e-05 -1.04718e-19)
(-0.000837081 6.53879e-05 3.92225e-20)
(-6.67909e-07 -0.00319419 1.05656e-16)
(2.80583e-05 -0.00327155 2.30234e-17)
(4.31665e-06 -0.00317034 2.88356e-17)
(-0.00647653 0.00563842 -6.18483e-18)
(-0.00594944 0.0057657 1.66066e-17)
(-0.00603567 0.00525367 -2.09928e-17)
(-0.000301808 -8.48552e-05 3.40846e-19)
(-0.000314376 -8.91441e-05 1.23516e-19)
(-0.00217597 -0.00563858 -9.91613e-19)
(-0.00179334 -0.00529488 -4.70864e-18)
(-0.00231583 -0.0050682 -7.64643e-19)
(-0.000277614 0.00011518 2.60023e-19)
(-0.000285187 9.87816e-05 1.03852e-19)
(-0.000281845 0.000130832 -3.03537e-19)
(-0.00274122 -0.00140837 4.2065e-19)
(-0.00264441 -0.00130309 -6.84582e-19)
(-0.0027698 -0.00127159 -2.17327e-19)
(0.0215224 0.00388443 -2.41465e-18)
(0.0207246 0.00343791 5.49875e-19)
(-0.00169995 0.000911711 3.12166e-18)
(-0.00166741 0.000951805 5.10578e-18)
(-0.0311344 0.0151356 -7.4399e-19)
(0.0100053 -0.0621602 -1.18672e-18)
(-0.00709633 0.0605563 -7.94109e-18)
(-0.000387776 -0.00204957 -4.79954e-18)
(-0.000397035 -0.00208382 9.09753e-18)
(-0.000342977 -0.00206939 -4.35515e-19)
(1.25402e-05 -0.000798678 3.73576e-18)
(-0.00049622 -0.00118535 7.48873e-19)
(-0.000464742 -0.00116469 1.5622e-18)
(-0.00236365 0.00296323 6.78026e-18)
(-0.00221061 0.00308 4.53579e-18)
(-0.0022473 0.0028515 -8.5134e-18)
(5.24468e-06 1.68302e-05 -1.13271e-18)
(3.91863e-06 1.97353e-05 9.93157e-19)
(4.25048e-06 1.79372e-05 -2.07353e-19)
(-0.00687736 0.00538053 1.42917e-18)
(-0.00686986 0.00598542 -6.21106e-18)
(-0.000266436 -0.000179246 1.27628e-19)
(-0.000257004 -0.000179761 1.94774e-20)
(-0.000266302 -0.000187442 2.26534e-19)
(0.000766766 0.000336191 2.58596e-18)
(0.00105899 0.000445001 6.35997e-18)
(-0.000181574 4.63666e-05 7.51659e-19)
(-0.000178568 5.13037e-05 -7.27547e-19)
(0.0546225 -0.0431038 -4.74683e-19)
(0.051395 -0.0452769 1.13259e-18)
(0.0518287 -0.0418357 6.17206e-19)
(-0.000397462 0.00131845 -1.62803e-18)
(-0.000435297 0.00127175 -3.33321e-18)
(-0.000481136 0.00135945 -5.13822e-18)
(-0.001582 0.00340117 -4.36898e-18)
(-0.00171128 0.0035781 -1.88126e-18)
(-0.00181007 0.00335906 -2.16516e-18)
(-0.000471387 -0.000184823 1.19484e-19)
(-0.000459095 -0.000181863 -3.14589e-19)
(-0.00045899 -0.000209776 -6.60337e-20)
(-0.000176538 3.27678e-06 5.19688e-20)
(-0.000183745 7.3832e-06 -1.40521e-18)
(-0.00868788 -0.00548227 -1.38992e-17)
(-0.00997719 -0.00671128 2.05986e-18)
(-0.00802564 -0.00595628 1.63868e-17)
(-0.00107992 -0.00121447 -3.40829e-18)
(-0.00111862 -0.00116581 -1.32472e-18)
(-0.00321493 -0.00060652 3.12704e-18)
(-0.00333634 -0.000636159 1.97749e-18)
(-0.00324983 -0.000529116 -6.40544e-18)
(-3.63485e-05 -0.000564674 8.1023e-19)
(-3.50951e-05 -0.000580727 2.2519e-18)
(0.00465492 0.00150791 9.93062e-18)
(0.00457023 0.00110544 -3.80057e-18)
(0.108319 -0.0517631 6.94471e-18)
(0.100358 -0.0560887 8.63652e-18)
(0.0988072 -0.0470984 -5.77703e-18)
(0.0572463 -0.0682462 2.96663e-18)
(0.056314 -0.0646526 1.2774e-18)
(-0.0249215 -0.0790435 1.34281e-18)
(-0.0285983 -0.0734657 -1.1531e-17)
(-0.00458476 -0.0240133 -1.0044e-18)
(-0.0127381 -0.02172 2.62785e-18)
(-0.00855536 -0.0230604 3.92766e-18)
(0.0114194 -0.0338044 7.5546e-18)
(0.00945164 -0.0336597 -1.52291e-17)
(0.0104149 -0.0316932 -5.8506e-18)
(4.72057e-05 9.25365e-06 -6.96753e-20)
(4.44921e-05 1.06371e-05 1.44204e-20)
(-8.12677e-05 -0.000556479 -2.22565e-18)
(-7.36421e-05 -0.000552964 1.3593e-18)
(-6.98986e-05 -0.000536852 -2.77757e-19)
(4.86292e-05 6.29433e-05 -3.2325e-20)
(4.8786e-05 6.57249e-05 -4.45241e-19)
(5.10099e-05 6.24653e-05 -3.27636e-19)
(0.00216897 -0.0132626 1.15498e-17)
(0.000275212 -0.01428 2.33913e-18)
(-0.0444862 0.00361566 -4.98808e-19)
(-0.046197 0.00261207 1.08652e-17)
(-0.000450324 0.000405962 -2.35987e-19)
(-0.000437475 0.00043015 5.18987e-20)
(-0.000453995 0.000435338 -7.60953e-20)
(-0.0016128 0.00108412 1.40131e-19)
(-0.00158873 0.00102228 2.63627e-18)
(-0.00169613 0.00104965 1.7511e-18)
(0.00591058 -0.0254965 4.07141e-18)
(0.00259836 -0.0248243 3.73085e-18)
(0.00185454 -0.000591003 2.34809e-18)
(0.00168208 -0.000680009 -7.62509e-18)
(0.00191537 -0.000796563 -4.08931e-18)
(-0.0148182 -0.015867 1.72324e-18)
(-0.0178307 -0.00890812 -2.7623e-18)
(-0.00869918 -0.00151586 -5.38641e-18)
(0.00306102 -0.000830547 2.14469e-17)
(0.00335654 -0.000785331 7.28196e-18)
(0.00321117 -0.00110807 3.43424e-17)
(-0.00301135 0.000571931 9.44672e-18)
(-0.00307455 0.00072676 2.86045e-18)
(-0.00290348 0.000668442 1.00454e-17)
(0.0156086 -0.0494489 -8.20481e-18)
(0.0136016 -0.0523999 1.77616e-17)
(0.0144274 -0.0509749 -5.55808e-18)
(0.0002531 0.00122616 -2.851e-18)
(0.000195028 0.00117879 2.08902e-18)
(0.000188018 0.0012728 -8.10262e-19)
(0.00277436 -0.01053 -1.10964e-18)
(0.0024478 -0.0112305 1.30949e-17)
(0.00336366 -0.0111195 1.0899e-17)
(0.0250046 0.00101548 -3.16464e-18)
(0.025452 0.000844094 -3.56727e-17)
(0.0272501 0.000513131 -3.03271e-17)
(-0.00562407 -0.00312176 -6.33003e-18)
(-0.00548404 -0.00289508 -1.01156e-17)
(-0.00579078 -0.00283714 -8.95615e-18)
(-0.0013599 0.00031308 5.98995e-19)
(-0.00131417 0.000316633 -3.01197e-18)
(-0.00135354 0.000248392 3.37599e-18)
(0.000230426 -0.00327665 -4.36064e-18)
(0.000157799 -0.00323731 -6.88187e-18)
(-0.000370676 -0.000433716 -2.5588e-18)
(-0.000378849 -0.000451015 -3.1135e-18)
(-0.000381957 -0.000477159 -1.99261e-18)
(-0.000181176 -0.00154366 -3.59523e-18)
(-0.000176224 -0.00151146 1.33726e-18)
(-0.000209413 -0.00152361 4.37756e-18)
(-1.4405e-05 -0.000518789 -2.30074e-19)
(-1.64622e-05 -0.000538047 -1.55497e-19)
(-1.6775e-05 -0.000573883 3.35154e-18)
(-0.00016859 -0.0015634 -5.23908e-18)
(-0.00019507 -0.0015672 4.22877e-18)
(0.0284388 -0.0261811 -1.70265e-18)
(0.0256791 -0.0238637 -7.20962e-18)
(0.0254008 -0.0255165 -1.81929e-19)
(-0.000121802 -1.63624e-05 -1.383e-19)
(-0.000122964 -1.34775e-05 1.32551e-18)
(-0.000120745 -1.78229e-05 1.41376e-18)
(-2.06066e-05 -0.00350989 8.93896e-18)
(-6.03317e-05 -0.00364923 6.70347e-17)
(-4.40827e-05 -0.0038739 8.82202e-17)
(0.0568608 -0.043927 -3.16672e-18)
(0.0560143 -0.0415961 8.43834e-18)
(-6.51345e-06 -0.00322034 -5.11119e-18)
(-5.05872e-06 -0.00322968 -1.3718e-16)
(5.08123e-06 -0.00320874 -2.17927e-17)
(-0.00296704 0.000447949 6.529e-18)
(-0.00312313 0.000493872 2.99389e-18)
(-0.0270752 -0.0107542 -3.59111e-18)
(-0.0287971 -0.00919936 7.49723e-19)
(-0.0159557 0.016757 2.16268e-17)
(-0.0223156 0.0160009 1.79973e-18)
(-0.0190236 0.016309 2.35871e-17)
(-0.000365459 0.00137458 7.08938e-18)
(-0.000335861 0.00128861 6.91242e-18)
(-0.00247583 0.00278504 9.55603e-18)
(-0.00258142 0.00306197 2.92811e-17)
(-0.000442917 0.000377559 2.52036e-19)
(-0.000465466 0.000380343 -1.36195e-19)
(-0.00547501 -0.00337287 6.30636e-19)
(-0.00578883 -0.00333684 4.02196e-18)
(-0.000503752 -0.000190843 -5.28826e-19)
(-0.000519659 -0.000155271 -1.00092e-18)
(4.45934e-06 6.42045e-05 9.12952e-19)
(4.36734e-06 6.67125e-05 -1.85157e-18)
(2.26671e-06 6.39735e-05 -2.00176e-18)
(-0.012648 -0.000880931 -3.73043e-17)
(-0.00955172 -0.00121007 -1.54e-17)
(-0.0078189 -0.00033487 3.84715e-18)
(3.77866e-05 6.40004e-05 1.454e-19)
(4.68592e-05 5.22541e-05 3.47489e-19)
(-2.08956e-05 0.000184549 -7.23422e-20)
(-1.953e-05 0.000187399 -2.3843e-19)
(0.0123653 -0.0126112 -1.82203e-17)
(0.0132183 -0.0104243 2.40054e-17)
(-0.00751573 -0.00815675 -5.03566e-17)
(-0.00143266 -0.00222162 -3.10653e-18)
(-0.00168247 -0.00216328 8.12151e-18)
(-0.00149806 -0.00199969 6.69858e-18)
(-0.00164199 0.00114609 -5.26939e-18)
(-0.00155201 0.00111569 -1.87678e-18)
(-0.00161912 -0.00216731 -9.66214e-18)
(-0.00156099 -0.00212153 7.70047e-18)
(-0.00164619 -0.00209022 -7.09044e-18)
(5.63477e-06 6.41151e-05 5.86536e-19)
(5.66178e-06 5.67123e-05 9.21068e-19)
(-0.000680197 -2.76579e-05 -7.84791e-20)
(-0.000676148 3.34033e-06 7.35199e-20)
(-0.000694342 2.07285e-05 1.67553e-19)
(6.3754e-05 0.000113823 7.54456e-20)
(6.39222e-05 0.000121618 2.06684e-19)
(-0.00021441 -0.000132154 9.86929e-20)
(-0.000211294 -0.000164714 -1.617e-18)
(-0.000241339 -0.000176454 1.55647e-18)
(-0.00537659 0.00165391 -5.15515e-18)
(-0.00522074 0.0014029 -7.26389e-18)
(-0.00507396 0.00164814 -3.61331e-18)
(-0.0172169 -0.0272984 6.34944e-18)
(-0.0115966 -0.0199954 -7.9753e-18)
(-0.00348015 -0.0597841 -5.58267e-18)
(-0.00282211 -0.0532332 1.83909e-17)
(0.000400256 -0.0583207 -1.51057e-18)
(-0.000790898 -0.000837209 3.61395e-19)
(-0.000799419 -0.000866407 2.82382e-18)
(-0.000821166 -0.000821736 1.62908e-18)
(-0.00036528 -0.000398298 2.75489e-18)
(-0.000364267 -0.000422394 5.38536e-18)
(4.64924e-05 -0.00325518 1.10524e-17)
(5.10976e-05 -0.00334699 -2.45898e-17)
(1.55445e-05 -0.00330211 1.46747e-16)
(-0.000430787 -0.00119644 6.36465e-18)
(-0.000398666 -0.00117568 -2.06176e-18)
(-0.000421486 -0.00115288 3.20206e-18)
(7.06573e-06 -0.00182336 -7.6706e-18)
(-1.50465e-05 -0.00182956 -1.32826e-18)
(1.71577e-05 -0.00183181 8.26924e-18)
(0.116949 -0.0852214 4.15955e-18)
(0.107325 -0.0758012 -2.06884e-17)
(0.122861 -0.072373 -7.65974e-18)
(-0.0010413 0.000898687 3.4879e-18)
(-0.00107384 0.000906657 -7.56217e-19)
(-0.00108287 0.000877518 -1.19881e-18)
(0.115122 -0.091599 1.04459e-17)
(0.140849 -0.0916261 6.14107e-18)
(-0.000283761 0.000780232 2.18006e-18)
(-0.000314414 0.000810815 -3.25727e-19)
(-0.000265483 0.000806216 -1.58758e-19)
(-0.000430474 -0.00122771 4.32772e-18)
(-0.00309748 0.00163477 -4.83372e-18)
(-0.00319873 0.00155503 -3.45356e-18)
(-4.49177e-06 -0.00316533 2.31212e-17)
(-2.21972e-05 -0.0032418 -2.02541e-17)
(-0.0187821 -0.00266999 -3.1376e-18)
(-0.0180082 -0.00353754 -1.21947e-17)
(-0.0194346 -0.00358398 -1.38659e-17)
(2.89995e-06 2.82075e-05 -9.96097e-19)
(2.84181e-06 3.14581e-05 6.96297e-19)
(1.3259e-06 2.68662e-05 -1.94499e-18)
(0.0106174 -0.0145177 -1.21558e-17)
(0.0261546 -0.0154524 2.81284e-17)
(-4.23565e-05 -0.00317224 1.17233e-16)
(-6.63045e-05 -0.00319317 4.94516e-17)
(3.43926e-06 2.97661e-05 -3.93821e-21)
(2.55402e-06 2.5862e-05 -1.10431e-18)
(-0.000780773 -0.00562908 1.54469e-18)
(-0.00134475 -0.00560619 2.06997e-18)
(-0.00106772 -0.00614223 4.44247e-19)
(-0.00161227 -0.000526266 -1.91283e-19)
(-0.00160285 -0.000578585 1.72242e-18)
(-0.00165497 -0.000533642 1.11246e-18)
(-0.00136708 0.000418919 -1.66509e-18)
(-0.00134021 0.000446559 3.57334e-18)
(-0.00133271 0.000406407 8.83832e-19)
(-0.000857193 -0.00178353 1.51104e-17)
(-0.000837346 -0.00182781 -1.79247e-18)
(-0.000901639 -0.00180481 1.66245e-17)
(-0.00167106 0.00121875 3.75318e-19)
(-0.00176101 0.0011873 -3.85855e-18)
(-0.039874 -0.0249067 1.28332e-18)
(-0.0412207 -0.0231543 8.2168e-20)
(-0.0390673 -0.0232467 -1.05772e-18)
(0.000506305 -0.00362703 -1.27298e-17)
(0.000431016 -0.00374155 3.68692e-18)
(0.000367555 -0.00362152 -2.0408e-17)
(0.00945861 -0.00678875 2.84318e-17)
(0.00946213 -0.00681762 5.18115e-17)
(0.0103965 -0.00610408 -2.39922e-17)
(-0.00189028 0.00156874 6.93749e-19)
(-0.00177452 0.00163446 -7.36246e-18)
(-0.00179941 0.00147336 -6.91518e-18)
(0.0134962 0.0066025 -1.01662e-17)
(0.0134154 0.00768798 1.61535e-17)
(0.0123746 0.00676028 -1.92941e-17)
(-0.000289987 -0.000120713 -1.18249e-19)
(-0.000293144 -0.000102574 -5.53958e-19)
(-0.000298267 -0.000119276 -9.40256e-19)
(0.0128898 -0.210992 2.97185e-17)
(0.0122549 -0.206733 1.02934e-18)
(0.0206308 -0.19549 7.63178e-18)
(-0.0458802 0.00436801 -2.42478e-17)
(-0.0473991 0.00474598 -8.13122e-18)
(-0.0488851 0.0037001 1.56401e-17)
(3.97198e-05 0.000116756 -1.61348e-19)
(3.45564e-05 0.000116408 2.08667e-19)
(3.97001e-05 0.000104389 -6.21712e-20)
(3.9004e-05 0.000127119 8.37227e-20)
(4.13773e-05 0.000129019 1.47824e-19)
(4.17545e-05 0.000118743 1.05292e-19)
(-0.00103391 -0.000930792 -7.08569e-19)
(-0.00106588 -0.00090285 1.12061e-18)
(0.0536708 -0.00896013 3.58492e-19)
(0.0569885 -0.00697251 -1.01882e-18)
(0.0537529 -0.00638039 1.46239e-18)
(-0.0153265 0.00888354 1.90907e-19)
(-0.0152327 0.00771808 -9.50575e-20)
(-0.0142696 0.00839226 -1.3262e-19)
(-8.04192e-05 -0.000509934 -1.71107e-19)
(-8.44372e-05 -0.000505663 -2.9228e-18)
(-8.83564e-05 -0.000516923 5.38501e-19)
(-0.0155055 -3.92844e-05 2.13843e-17)
(-0.0166344 -0.0014065 8.18207e-18)
(0.015228 0.00390564 -6.63605e-18)
(0.0189184 0.00517378 9.53964e-18)
(0.0172996 0.00414011 -3.73632e-17)
(0.000324951 -0.00287211 2.86687e-18)
(0.000374229 -0.00283799 8.3803e-18)
(0.000322175 -0.0027988 1.14899e-17)
(0.013534 0.00564655 -4.27391e-18)
(0.0145067 0.00652259 7.55715e-18)
(-0.00176774 0.000574902 -2.15837e-18)
(-0.00172301 0.000544426 1.41095e-18)
(-0.00178901 0.000521677 -2.38177e-18)
(-0.000157345 6.21522e-05 7.72965e-19)
(-0.00015663 5.71053e-05 2.34398e-19)
(-0.000153614 5.80779e-05 1.79303e-19)
(-0.0282433 -0.0319677 1.07456e-17)
(-0.0270499 -0.0314088 -5.4337e-18)
(-0.0267093 -0.0332726 -1.5183e-18)
(0.0623904 -0.00667515 -1.95795e-18)
(0.0650823 -0.00897159 1.3044e-19)
(0.0600448 -0.0101934 3.4002e-18)
(-0.0272012 -0.0129876 -1.45174e-17)
(-0.0226367 -0.0152755 6.07274e-18)
(-0.0214334 -0.0143239 3.62808e-19)
(0.0100491 -0.0241234 -4.31388e-18)
(0.00842127 -0.0242509 -3.22534e-18)
(0.00910637 -0.0228534 4.23781e-18)
(-7.63889e-06 -0.00165807 -9.36309e-18)
(-3.21194e-05 -0.00164914 -1.27329e-18)
(-3.26867e-05 -0.00167218 -1.40935e-17)
(0.00930759 -0.00112174 -1.2959e-19)
(0.00827787 -0.000724639 -2.37084e-19)
(-0.0355892 0.0072355 1.70656e-18)
(-0.000416334 -0.00045542 -4.81563e-19)
(-0.000419615 -0.000469458 6.99183e-19)
(-0.000433348 -0.000487412 1.56838e-18)
(-0.00169019 0.00128186 3.51843e-18)
(-0.00160773 0.0012432 5.19103e-18)
(0.0106808 -0.0534254 1.32721e-18)
(0.0134696 -0.0539521 2.37358e-18)
(0.0114993 -0.0543584 4.89415e-18)
(-0.00161491 -0.00241279 1.77551e-17)
(-0.00155966 -0.00234021 -2.73521e-18)
(-0.00150769 -0.00242434 5.53907e-18)
(-0.000511813 -0.00120077 6.0177e-19)
(-0.000526923 -0.00122509 -2.56527e-18)
(-0.000525571 -0.00120485 3.97507e-18)
(-0.00856944 0.0235749 -3.16976e-17)
(-0.0238642 0.0235709 -7.14155e-18)
(0.000984419 0.0225476 -2.20714e-18)
(-0.00184008 0.000584694 1.44052e-18)
(-0.00175844 0.000639848 -6.66712e-18)
(-0.00270369 -0.000965067 3.45828e-18)
(-0.00249639 -0.000952051 -9.50995e-20)
(-0.00261873 -0.00118361 6.75683e-18)
(2.71685e-05 0.000132399 -1.51914e-19)
(-0.000889676 0.000814417 -4.7796e-18)
(-0.000865279 0.00082074 -3.47182e-18)
(-0.000903623 0.000823561 -1.35957e-18)
(-0.000522452 -0.00160313 5.57168e-18)
(-0.000525331 -0.00159933 -6.93192e-18)
(-0.000532492 -0.0015747 5.60646e-18)
(0.0130513 -0.000725553 -6.5296e-18)
(0.010694 -0.00176316 1.38961e-17)
(0.00917346 -0.00200521 2.31452e-17)
(-0.0312906 -0.011795 -7.57824e-18)
(-0.0329678 -0.0117289 -1.20338e-17)
(0.00403954 0.00151651 -5.50557e-18)
(0.00366856 0.00291894 3.55462e-17)
(0.00610007 0.0013972 -9.60229e-18)
(-0.00168172 -0.00084724 2.3092e-18)
(-0.00162055 -0.000884065 1.67394e-18)
(-0.00162699 -0.000793179 1.29325e-18)
(0.000107871 -0.00313536 -6.57893e-17)
(-3.39557e-05 -0.00323192 -1.5535e-16)
(0.0194653 -0.00148841 3.66944e-17)
(0.0206972 -0.00184527 -1.25164e-18)
(0.0215109 -0.00126503 1.43496e-17)
(0.0171522 0.0073071 -1.56299e-17)
(0.0179379 0.00772364 -2.90531e-17)
(0.019112 0.00695493 -8.74513e-18)
(-0.00291714 -0.00101821 5.63458e-18)
(-0.00281365 -0.000792316 -7.06248e-18)
(-0.000671638 -7.5719e-05 -5.67955e-20)
(-0.000678936 -4.49479e-05 2.78238e-20)
(-0.000264411 0.000755493 1.36027e-18)
(-0.00030609 0.000764343 2.03194e-18)
(0.0563615 -0.0714996 -1.79506e-18)
(0.0553715 -0.075283 -1.07218e-18)
(0.0530504 -0.0722239 -1.02775e-18)
(-0.000758346 -0.000870144 -2.32972e-18)
(-0.000757289 -0.000808303 1.16526e-18)
(-0.000278829 -0.000121588 -3.23063e-19)
(-0.000283509 -0.000138145 -1.27029e-19)
(-0.0089909 -0.00514614 -1.21239e-18)
(-0.00874637 -0.00522375 -1.01971e-17)
(0.0563085 -0.0452304 -1.38947e-18)
(0.0559361 -0.0412101 4.96001e-18)
(0.0504151 -0.0412884 -2.85466e-18)
(0.058621 -0.0706989 -1.26581e-18)
(-1.30644e-05 -0.000461285 -1.76208e-19)
(-1.51118e-05 -0.000495024 -2.68657e-18)
(-0.0010071 0.000894852 -1.66177e-18)
(-0.0010351 0.000873911 -1.57627e-18)
(-0.0131853 -0.00135212 3.92117e-17)
(-0.0122885 -0.000973092 -3.02825e-19)
(-0.0131264 -0.000614019 1.10968e-17)
(-0.000234363 -0.00015815 -2.82924e-19)
(-0.00023631 -0.000144564 6.6248e-19)
(-0.000244884 -0.000173691 7.30516e-20)
(-0.00308872 -0.000506317 -1.57314e-18)
(-0.00308051 -0.000691781 4.91482e-19)
(-0.00065763 4.5451e-05 -2.12275e-19)
(-0.000650146 -1.62719e-05 1.57193e-19)
(0.00921051 -0.00687933 -4.69491e-18)
(0.0093899 -0.00649583 -2.98909e-17)
(-0.000527924 -0.00104618 -2.09926e-18)
(-0.000507437 -0.00104616 2.15099e-18)
(-0.000527909 -0.00107245 -2.88089e-18)
(0.0183099 -0.00488629 -1.26786e-17)
(0.0192989 -0.00445083 -1.86318e-17)
(0.0193294 -0.00445882 7.70267e-18)
(0.0826509 -0.00966371 1.60151e-19)
(0.0793054 -0.0145839 -2.45469e-18)
(0.0862281 -0.013866 6.11874e-18)
(5.44667e-05 -0.00296558 -6.2121e-17)
(3.01525e-05 -0.00303176 3.37473e-17)
(-6.05149e-06 -0.00296965 1.16125e-17)
(-0.000676894 -0.000119602 1.24986e-19)
(-0.000659491 -0.000110139 1.41531e-19)
(5.4399e-06 7.51718e-05 5.11821e-18)
(3.6355e-06 8.15473e-05 3.0918e-19)
(-0.00144644 0.00322791 -3.16284e-18)
(-0.00134831 0.00341565 4.27885e-19)
(-0.00157065 -0.000131293 -1.80827e-19)
(-0.00161368 -0.000134143 -2.51401e-20)
(-0.00159942 -7.45314e-05 -3.78988e-19)
(0.0172155 -0.00529781 -3.65243e-17)
(0.016746 -0.00514883 1.61997e-17)
(-0.0010341 -0.000381547 -4.79009e-19)
(-0.00104775 -0.000393482 -7.97454e-19)
(-0.00104947 -0.000347047 1.30947e-19)
(-4.11127e-05 -0.000553433 3.0498e-19)
(-3.83111e-05 -0.00053365 1.30933e-19)
(-3.31884e-05 -0.000508442 -2.82837e-18)
(-7.63834e-05 -0.000517024 3.41118e-19)
(-7.29779e-05 -0.000499646 -3.82486e-18)
(-0.00637136 -0.0032813 1.27002e-18)
(-0.00651097 -0.00354008 -5.54583e-18)
(-0.00671717 -0.00323134 -2.11086e-17)
(-0.000571965 -0.0448999 3.30921e-18)
(-0.002118 -0.0440386 1.08572e-18)
(-0.00219857 -0.0465068 -5.34089e-18)
(0.00279023 0.00110174 -2.9463e-17)
(-0.00140855 0.000299746 -3.59898e-18)
(-0.00137852 0.000365568 6.96817e-18)
(0.0123322 0.00912047 1.2701e-17)
(0.01101 0.00938659 -3.87923e-18)
(0.0113525 0.00820731 3.20175e-18)
(0.000305275 0.000761361 9.64098e-19)
(0.000281089 0.000719426 6.38163e-19)
(-0.000283697 -0.000169759 9.23593e-19)
(-0.000284366 -0.000154471 -2.74069e-19)
(-0.000294515 -0.000159269 -2.54129e-19)
(-0.000536834 -0.00112725 1.74553e-18)
(-0.000512414 -0.00110087 4.31453e-18)
(-0.000530083 -0.00110412 2.94632e-18)
(0.0794842 -0.00782038 -2.29184e-18)
(0.0851056 -0.0060386 -3.23157e-18)
(-0.0330214 0.0165195 9.44623e-18)
(-0.0384206 0.0159529 -1.63316e-17)
(-0.039049 0.0133828 1.58667e-17)
(0.000866753 -0.00345275 3.48277e-17)
(0.000510698 -0.00351584 6.17066e-17)
(0.000258588 -0.00348698 2.08539e-17)
(-0.019478 -0.00155859 1.18747e-17)
(-0.0182017 -0.00182832 1.21332e-17)
(-0.00156411 -0.000511774 1.5994e-18)
(-0.00161129 -0.00045898 -4.06603e-19)
(-0.000906765 0.000805251 2.27046e-18)
(-0.000869871 0.00080338 -3.08166e-18)
(0.000350852 -0.00309616 -1.16107e-17)
(0.000357255 -0.00282124 -1.55761e-17)
(0.000865085 -0.0031121 5.0341e-18)
(-0.00190282 0.000608099 9.62361e-19)
(-0.00192668 0.000542905 5.77129e-18)
(0.0161481 0.00688263 6.25766e-17)
(0.0142524 0.00806467 1.15072e-17)
(-0.00052824 -0.000959835 -3.12321e-18)
(-0.000534486 -0.000974747 -9.21764e-19)
(-0.000540071 -0.000962748 2.22488e-18)
(0.0166574 -0.00367309 -6.76567e-18)
(0.0166639 -0.00333539 3.34613e-17)
(0.0157616 -0.00398344 -2.1559e-17)
(0.0425314 -0.0597999 -1.44651e-18)
(0.0374082 -0.0639502 -3.76413e-18)
(0.0378135 -0.0579762 2.7561e-18)
(-0.000525038 -0.00517379 6.5065e-18)
(-0.000321068 -0.00569609 -2.13787e-19)
(-0.000471345 -0.000638732 3.79097e-18)
(-0.000479841 -0.000662086 6.38771e-20)
(-0.000455324 -0.000624165 5.07304e-18)
(-0.000110639 -5.7716e-07 -7.38656e-19)
(-0.000109487 -2.13464e-06 9.55096e-19)
(-0.000112059 -2.13252e-06 4.44123e-19)
(-0.00173364 0.000870176 5.50243e-18)
(-0.00167675 0.000865701 4.0294e-18)
(-0.00218049 0.00328367 1.02965e-17)
(-0.00211463 0.00346824 -1.03508e-17)
(-0.0023803 0.00342428 -3.66285e-18)
(0.0156491 3.25277e-05 -3.71448e-17)
(0.0172427 0.000648953 3.40506e-19)
(-0.00137804 -0.00246476 -5.37361e-18)
(-0.00118269 -0.00224595 7.30783e-18)
(-0.000149768 -6.30804e-05 1.07974e-18)
(-0.000150692 -5.74107e-05 9.04106e-19)
(-0.000155245 -7.20826e-05 1.3353e-19)
(-0.000268721 -0.000121857 2.15471e-19)
(-0.000261571 -0.000134763 1.13849e-18)
(-0.000258626 -0.000120229 1.45669e-18)
(1.91784e-06 7.14514e-05 7.34558e-19)
(2.27667e-06 6.69645e-05 -2.83493e-19)
(3.77751e-06 7.71011e-05 -1.8875e-18)
(0.0133385 0.00878058 4.61339e-17)
(0.0144281 0.00854251 4.00633e-17)
(-0.00459514 -0.00187215 -1.67831e-18)
(-0.00466714 -0.00203012 1.5837e-18)
(-0.00443797 -0.00198244 -2.33933e-18)
(5.50986e-05 -0.00287023 -4.60238e-17)
(-8.70247e-06 -0.00293207 8.2614e-18)
(7.09507e-05 -0.00296109 -5.72112e-17)
(-0.000771369 -0.00113563 -2.97131e-18)
(-0.000799255 -0.00112638 1.50446e-18)
(-0.0007855 -0.00110105 -2.33364e-18)
(0.129844 -0.101833 8.02472e-18)
(0.134973 -0.104437 4.46298e-18)
(0.132498 -0.112574 -8.42878e-19)
(0.0116319 -0.0241596 3.6286e-18)
(0.010732 -0.0257578 6.87727e-18)
(0.0030708 -0.00967739 -5.76784e-18)
(0.00220417 -0.0100783 -5.84654e-19)
(-0.000804776 0.000553967 7.1184e-20)
(-0.000787417 0.000567889 1.06277e-19)
(-0.000806949 0.000589485 -1.84031e-18)
(-0.0233932 0.0280057 -3.15743e-18)
(0.00337153 0.0232643 2.14587e-17)
(-0.000487169 -0.000185728 -2.39452e-19)
(-0.000487411 -0.000152081 -2.39498e-19)
(-0.000179538 -0.000184547 -8.94542e-19)
(-0.000179397 -0.00016303 -2.3003e-19)
(-0.000183183 -0.000151144 -1.18179e-18)
(0.00543753 -0.0051348 3.54498e-17)
(0.0017033 -0.00645912 1.70244e-18)
(0.00324101 -0.00520594 1.58389e-17)
(-0.000114936 -7.01238e-06 -6.2842e-19)
(-0.000111319 -1.12331e-05 -1.32556e-19)
(-0.000125305 -6.38214e-06 -1.54809e-19)
(-0.000185266 5.74849e-05 9.68573e-19)
(-0.000184487 4.34838e-05 1.09042e-18)
(0.00448055 -0.00886435 2.57798e-17)
(0.00373632 -0.0091918 1.17916e-18)
(0.00444355 -0.00997536 3.20066e-18)
(-0.000273739 -5.50943e-05 2.11596e-19)
(-0.000279952 -6.73159e-05 9.9654e-19)
(-0.000280927 -8.39105e-05 1.92061e-18)
(0.00597256 -0.0330352 3.44033e-18)
(0.00428977 -0.0297811 -1.49592e-17)
(0.0048589 -0.0268697 5.57829e-18)
(-0.00197171 0.000634429 -7.64005e-19)
(-0.00188017 0.000675779 -2.75393e-18)
(-0.000155277 -0.00173713 7.26413e-19)
(-0.000148351 -0.00175049 -9.18209e-18)
(-0.000139271 -0.00173322 2.05755e-18)
(-0.000117303 -7.37449e-06 8.43619e-20)
(-0.000110814 -8.70954e-06 3.4433e-20)
(-0.00194719 0.00150642 1.36444e-17)
(-0.00197402 0.00162359 1.09573e-17)
(0.0247994 0.00220613 -3.4593e-17)
(0.0245697 0.00178726 2.46703e-17)
(0.0250377 0.00170816 -2.90236e-18)
(-0.000408553 0.00146898 5.87215e-18)
(-0.000159415 0.00015185 2.69213e-20)
(-0.000167277 0.000134909 -2.93176e-19)
(1.08076e-05 -0.000167702 2.92908e-18)
(8.44881e-06 -0.000160259 -2.39263e-18)
(4.79436e-06 -0.000170305 6.19197e-19)
(-0.00153115 -0.0188372 5.14124e-18)
(-0.000817771 -0.0178965 9.18319e-18)
(-0.00217089 -0.017858 8.23178e-18)
(0.000872899 -0.0184962 -2.59847e-19)