/*--------------------------------*- C++ -*----------------------------------*\
| =========                 |                                                 |
| \\      /  F ield         | OpenFOAM: The Open Source CFD Toolbox           |
|  \\    /   O peration     | Version:  v2012                                 |
|   \\  /    A nd           | Website:  www.openfoam.com                      |
|    \\/     M anipulation  |                                                 |
\*---------------------------------------------------------------------------*/
FoamFile
{
    version     2.0;
    format      ascii;
    class       volScalarField;
    location    "150";
    object      nut;
}
// * * * * * * * * * * * * * * * * * * * * * * * * * * * * * * * * * * * * * //

dimensions      [0 2 -1 0 0 0 0];


internalField   nonuniform List<scalar> 
18355
(
0.000543505
0.00629946
0.00621893
0.00672174
0.00326191
0.00108419
0.00671967
0.000510428
0.000969986
0.00727707
0.00673629
0.0050637
0.000376146
0.00564903
0.00288411
0.00094186
0.00191467
0.00672891
0.00288122
0.0130346
0.000640205
0.00167679
0.0124253
0.00363407
0.00204652
0.00672326
0.00672248
0.00105515
0.00834671
0.00406688
0.00455116
0.00264935
0.00672741
0.00673551
0.00027111
0.000553082
0.00140609
0.000130667
0.00104034
0.00673808
0.00539138
9.45192e-05
0.00576758
0.00413529
0.00679402
0.000128361
0.000443062
0.000828903
0.000436477
0.00672867
0.00672628
0.00595829
0.00672587
0.0120895
0.00672257
0.00672165
0.00188012
0.00300431
3.63436e-05
0.000223785
0.00672823
0.000806201
0.00672877
0.000246333
0.00625804
0.000605466
0.000919623
0.000263423
0.00672238
0.00180652
0.000315312
0.00672529
0.000186462
0.00672471
0.000511788
0.00671958
0.00616316
0.00245822
0.00182145
0.00625761
0.00671978
0.000279039
0.000629403
0.000261376
0.0067232
0.000335541
0.00615811
0.0131735
0.00807449
0.0113117
0.000427339
0.00679355
0.00672294
0.00672294
0.000236416
0.0124233
0.00551705
0.00151571
0.0122216
0.00138822
0.00176943
0.00154755
0.000338507
0.000918775
0.00327116
0.00049218
0.00209189
0.000117355
0.000829044
3.01331e-05
0.00472629
0.00114753
0.00672318
0.00119518
0.0123175
0.00671964
5.30135e-05
0.00661741
4.89115e-05
0.000310699
0.00826546
0.000457922
0.00285564
0.000344984
0.00507651
0.000112571
0.00522442
0.00672551
0.00047809
0.00672173
0.00672606
0.00133759
0.000805078
0.00177426
0.000173488
0.00672535
0.00373432
0.00673614
0.00604478
0.000205562
0.0027876
0.00818875
0.00178813
0.00477056
3.46008e-05
0.00190329
0.000589789
0.00412611
0.00204074
0.00396601
0.00361416
0.00171816
0.00032392
3.70087e-05
0.00264635
0.00672569
0.00131389
5.3519e-05
0.00672561
0.000737051
0.000593242
0.00104748
0.00033963
0.00167068
0.000991173
2.25797e-05
0.00571279
0.000422954
0.000280211
0.00672681
0.00771775
0.0122659
0.00673063
0.00673373
0.00100187
0.00328919
0.00244443
0.00672274
0.000423857
0.00203195
6.85176e-05
0.000270791
0.00121403
0.006719
0.000736865
0.0036704
0.0113285
0.000438217
0.000830308
0.00130124
0.00189123
0.00566002
0.00180635
0.00116722
0.000147425
0.00161961
0.00129832
0.00141732
0.000962149
0.00673255
0.00221683
0.00076737
0.0031346
0.0100638
0.000433012
0.000525748
5.00276e-05
0.0115552
0.011732
0.00105366
0.00358927
0.00322129
0.0132025
0.00187396
0.00672622
0.000336734
0.00740501
0.0130811
0.00672321
0.00188374
0.000384007
0.00651601
0.000245806
0.00394227
0.0059666
0.00203645
0.0100901
0.00356925
5.04865e-05
0.00352114
0.00672571
0.0019046
0.00070901
0.0104677
0.00139758
0.00672322
0.00672289
0.00010715
0.000615025
0.000207115
0.000880474
0.000259661
0.00420771
0.00672641
0.00186412
0.00223078
0.00219442
6.87048e-05
0.00267603
0.000583891
0.00227211
1.58062e-05
0.00132183
0.0129083
0.00239417
0.00634706
0.0118523
0.000628955
0.00372947
0.00673232
0.000606052
0.000281727
0.00306191
0.000776797
0.00671897
0.00672464
0.00672566
0.000273865
0.000162522
5.52385e-05
0.00130645
0.00264393
0.000402272
0.000544499
0.00258619
0.00142502
0.00606862
0.00672322
7.89649e-05
0.00672574
0.00671967
0.000455461
0.00672435
0.00275869
0.00143234
0.000756864
0.00672912
0.000458258
0.00616867
0.0025552
0.00672104
0.00649531
0.000596249
0.0110421
0.00672558
0.00672586
0.00745784
0.000323561
0.00263604
3.60614e-05
0.00672293
0.000298725
0.00139854
0.00672564
3.69176e-05
0.000847665
6.50814e-05
0.000580598
0.00672198
6.90415e-05
0.00354304
0.00282268
0.000984924
0.00606537
0.000267783
9.00348e-05
0.0067229
0.00672066
0.000260977
0.000386446
0.0119044
0.00235171
0.00035625
0.00324178
0.00677797
0.000622045
0.00193651
0.000305757
0.000601287
0.00672098
2.03039e-05
0.00309695
0.000160428
0.006722
0.00267226
0.00646715
0.0067257
0.00166425
0.000836492
0.00672308
0.000414594
0.000773655
0.0015452
0.0121274
0.000818631
0.00263404
0.0067288
0.0127424
8.86154e-05
0.00672309
0.00177589
0.000427688
0.000748238
1.75196e-05
0.0127668
0.00672294
0.00193154
6.13155e-05
0.00504251
0.0016035
0.000349961
0.00110326
0.00201151
0.000598282
0.00672581
0.000136327
0.000300789
0.000137449
0.00672059
0.00324469
0.00672676
0.00553708
8.80216e-05
0.00570108
0.00040092
0.00672615
0.000970962
0.00672288
0.00092583
0.00473008
0.00288681
0.00597368
0.00541212
0.00112702
4.81267e-05
0.00689167
0.00370283
0.00271185
0.000257599
0.0071936
0.00122887
0.000366705
0.00192659
0.00202349
0.00150155
0.00671975
0.00672318
0.00672354
0.0114964
0.0013388
0.00677291
0.000658286
0.000463229
0.00476769
0.00677918
0.0104456
0.00190683
0.00568549
2.36022e-05
0.00672303
6.12884e-05
0.00106175
0.000366492
0.000565288
0.00325898
0.00796853
0.006725
0.00672524
2.51506e-05
0.00672566
0.00672989
0.00138172
0.00672513
0.0072654
0.00173919
0.00311572
0.00162978
0.00159203
0.00672469
0.00528134
0.00115724
0.00707571
0.00107633
0.00672526
0.00671907
0.0017638
0.00514429
0.000183126
0.00276131
0.00672581
0.00207655
0.000111783
5.40513e-05
0.000529497
0.00204107
0.00672582
0.00108657
0.000470835
0.0114295
0.0065471
0.00372003
0.000111608
0.000133626
0.00613651
0.00408723
0.00672037
0.00672999
0.0035615
8.87309e-05
0.00672279
0.00677026
0.00101201
0.000103034
0.000433775
0.0113475
0.000101109
0.00233611
0.00448219
0.00501084
0.00467152
0.00671988
0.00672598
0.00672592
0.00672294
0.00931609
0.00244716
0.00672165
0.00034756
0.000226935
0.00672038
0.00264712
0.000121555
6.6253e-05
0.00106424
0.00546474
0.00117498
0.000796648
0.00411769
0.00196654
0.00549763
0.00111835
0.000214321
0.0067247
0.0129605
0.00543194
0.00854553
0.00530052
0.00593708
0.000742386
0.000643327
0.00179853
0.00344172
0.00390233
0.00183812
0.000143899
0.00672334
0.00172104
0.00781308
0.0124487
0.0125454
0.00227247
0.000562031
0.000614483
0.0100417
0.0015957
0.00047339
0.002169
0.00525229
0.00672284
0.000187427
0.00672282
0.00479434
0.000587314
0.0124207
0.00414771
0.0021309
0.0067282
0.000270591
0.000413731
0.000443961
0.00672198
0.000604936
6.47397e-05
0.00168916
0.00374278
0.000812866
0.00174557
0.00672577
0.000706878
0.00103712
0.00168342
0.000187263
0.00163447
0.00672416
0.00672849
0.00672588
0.000458754
0.00205309
0.000707016
0.00465798
0.00323857
0.00226294
0.00672038
0.000239904
0.00133318
0.000147654
0.000725696
0.0122592
0.00225086
0.000299237
0.000528707
0.000765411
0.0117301
0.00224454
0.00592472
0.00168042
0.00141604
0.00534184
0.00672866
0.00191508
0.000409083
0.000318167
0.000137668
0.00859449
0.000913777
0.00672118
0.0121606
0.00211971
0.002733
0.00672949
0.000233053
0.0108952
0.000599261
0.00672451
9.69088e-05
0.00018678
0.000273736
0.000302804
2.96932e-05
0.00167554
0.000477717
0.00275077
0.000531182
0.00130537
0.000127146
0.000111192
0.00128672
0.00672094
0.00267609
0.00430926
3.75578e-05
3.4176e-05
0.00502744
4.52683e-05
0.00878668
0.00157273
9.25318e-05
0.000890952
0.00358854
0.00684988
0.00673782
5.2891e-05
0.00215808
0.00471795
0.00050197
0.00672066
0.00165064
0.00177758
0.00174563
0.000450726
0.00615198
0.000285392
0.00102618
0.000715719
0.0105883
0.00519581
0.000398007
0.0122888
0.00672362
0.00179104
0.0128949
0.00671779
0.00060227
0.00672126
0.00246163
0.00168004
0.00145242
0.000299358
0.000924093
0.000663703
0.000656246
0.00438566
0.00268632
0.00450872
0.00291495
0.00149031
2.1469e-05
0.0022442
0.000130665
0.00041778
0.00535019
0.00672579
0.00454481
0.00072628
0.000840078
0.00672501
0.00127567
0.0032902
0.00718051
0.000448572
0.000894541
8.91305e-05
0.00114287
0.00672133
0.00672469
0.000656002
0.000140114
0.00676018
0.00455641
0.000465145
0.000323452
0.00681376
0.0128545
0.0102795
0.00377995
0.00673638
0.00128833
0.00672511
0.00672541
0.00304946
5.04727e-05
0.0015907
0.00672869
0.00140977
0.000445965
0.00179308
8.91568e-05
0.00306328
0.00911947
0.000933528
0.00214082
3.5862e-05
0.0121997
0.00671981
0.00689773
0.00672181
0.00672345
0.00174503
0.000209949
0.00986822
0.000729887
0.00347494
0.000384775
0.0116867
0.00010263
0.00128041
0.00793188
0.00309249
0.00723075
0.0026769
0.00423544
0.00644296
0.00225466
2.81926e-05
0.000821075
0.000529037
0.00694887
6.41885e-05
0.00908121
0.00672186
0.0122154
0.0051937
0.00586219
0.00351706
0.000537279
0.00169436
0.00672762
0.00672387
0.00116759
0.00129025
0.00382562
0.00671906
4.48983e-05
0.00123876
0.00672714
0.0067228
0.000409259
0.00050721
0.00766169
0.000714052
0.00679337
0.000699978
0.0119662
0.00059355
0.00592724
0.00672905
0.000594757
0.000979649
0.00130925
0.00542058
9.96116e-05
0.000138698
0.00145623
0.0083263
0.00118356
0.00671898
0.00251658
0.00549148
0.00210915
0.00139446
0.00310245
0.00671855
0.00523002
0.00676111
0.00709719
0.000995172
0.00505693
0.00046281
0.000614022
0.0107468
0.0030443
0.00672038
0.00583734
0.0110717
0.00218186
0.0129861
0.00811341
0.0108695
4.12619e-05
4.18595e-05
0.00251352
0.00148579
0.00672335
0.00672582
0.00291757
0.00188206
0.00672303
0.00178992
0.00825447
0.00041118
0.00263716
6.10049e-05
0.00671797
0.00110838
0.000410744
0.00672261
0.000683244
0.00161547
3.42895e-05
4.58564e-05
0.000337025
0.0102441
0.000121235
0.000891774
0.000123045
0.0128334
0.0133388
0.000908387
7.72755e-05
0.000822681
0.00243821
0.00528479
0.00672587
0.00671983
0.00167838
0.0132772
0.00672573
0.00672581
0.000341484
0.00671764
0.000218527
0.000228391
0.00672432
0.00212046
0.00473918
0.00543385
0.00138454
0.00672542
0.000219559
3.19265e-05
0.00243754
0.00296414
0.00672616
0.000115569
0.00671889
0.00133047
0.000128292
0.00622325
0.0114992
0.00278998
0.0127325
0.00200875
0.00192911
0.00672194
0.00276038
0.000437779
0.00672342
0.00239633
0.012857
0.00605246
0.00195302
0.0024861
0.00133506
0.00672185
0.00672244
0.00672559
0.00347846
0.00672723
0.012644
0.000547168
0.000317811
0.00520863
0.00673966
0.00673374
0.012025
0.0130808
0.000623955
0.00672129
0.00491059
0.00672584
0.00275931
0.000146536
2.77201e-05
0.000950112
0.00341009
4.84231e-05
0.00599747
0.0002392
0.00395875
0.00270312
0.00827949
0.000456407
0.00672192
0.00230439
0.0131703
0.00672285
0.00297499
0.000104472
0.00672526
0.000452517
0.00675223
0.0009363
0.000832346
0.0067175
0.00671913
0.00287734
0.00460629
0.00672447
0.00234661
0.00553202
0.00244881
0.00672357
0.000137621
0.00553322
0.00107298
0.012479
0.00151471
0.00672528
0.000846564
0.00229817
3.71575e-05
4.20937e-05
0.00675328
0.000279815
0.00327425
0.011909
0.00674269
0.00207308
0.000136211
0.00478479
0.00672371
0.00671832
4.23027e-05
0.0059474
0.0032211
0.00426501
2.80521e-05
0.00672535
0.0067246
0.000744556
8.31504e-05
0.00452965
0.000684615
0.00247954
0.00155514
0.00457575
0.00676083
0.00672596
0.000336494
0.00187017
0.0124155
0.00108577
0.0125677
0.00490358
0.00672591
0.000131615
0.0127668
0.00635368
0.001781
0.00719579
0.00470809
0.000478083
0.00138015
0.000245619
0.0064831
0.00708362
0.00673239
0.000767561
0.00672292
0.00535643
0.0067255
0.0123651
0.000506479
0.00826921
0.000229595
0.00175798
0.00101316
0.00672009
0.00672018
0.00671787
0.00106553
0.000219919
0.00385992
0.000568039
0.00027307
0.00672118
0.00130164
0.000386151
0.00144409
0.00106647
0.00106559
0.000282491
0.00439004
0.00132374
0.00625873
0.00275042
0.00207596
4.45924e-05
0.00647295
0.00590838
0.000404063
0.000178775
0.00514685
0.00107875
0.000395287
0.00349428
0.00180022
3.28776e-05
0.000225258
0.000355202
0.000510039
0.00672281
3.5842e-05
0.00392577
0.000707306
0.00343684
0.00672293
0.012571
0.00110232
0.00186356
0.00720599
0.00512554
5.88605e-05
0.00244868
0.00672994
0.000144492
0.0036413
0.00126831
0.00559771
0.00410017
0.00193021
0.00154098
0.00240802
0.012643
0.00268839
0.000596317
0.00644543
0.00673287
0.00106567
0.0022063
0.00136632
0.000381006
0.00159063
0.00671769
0.00672354
0.00149062
0.00673571
0.00672236
0.00811094
0.00672571
0.00187807
0.00672097
9.78203e-05
0.00672355
4.96267e-05
2.88513e-05
0.00285704
0.0103459
0.00671917
0.00144093
0.00445309
0.00910647
0.000491805
0.00671772
0.00672148
0.00254354
0.00615539
0.00042091
0.0100282
0.00268743
0.00500834
0.00672383
0.00153965
0.00265011
0.00207891
0.00674311
2.36544e-05
0.00894042
0.000958921
0.0036583
0.00384888
0.00672454
0.00672378
0.0096119
0.0011838
0.00685491
0.000992739
0.00394265
0.00873695
0.00205226
0.000222153
0.00672452
0.0015902
0.00552964
0.000358594
0.000273497
0.00152496
0.00672266
0.00446549
0.0012247
0.00671774
0.00674258
0.00323514
0.00601371
0.0029871
0.00675993
0.00186018
0.00179692
0.00243079
0.00132086
0.013318
0.00671754
7.10479e-05
0.00111764
0.00671765
0.000915947
0.00151969
0.00672254
0.00502105
0.0067228
0.00445836
0.00127831
0.00672286
0.00155504
0.000360901
0.00672261
0.000384779
0.00109489
0.0109332
0.0024713
0.00741614
0.000549649
0.000342152
0.00902748
0.0132955
0.00679512
0.00185227
0.00672175
5.05178e-05
0.0103516
0.000272545
0.000791911
0.0067253
0.00424913
0.00672295
0.00184766
0.00149046
0.00285658
0.000968182
0.000595187
0.00672276
0.00672482
0.00672325
0.00489593
0.000412581
0.0048715
4.79345e-05
0.00672223
0.000710219
0.00271668
0.000285031
0.00070474
0.000386488
0.00100458
5.324e-05
0.00674236
0.00671806
0.000198632
0.00672178
0.00672105
0.00120129
0.000612723
0.00672285
8.70026e-05
0.00672132
0.00541438
0.00672279
0.00635826
0.00441301
0.000465426
0.00119012
0.00245984
0.00966663
4.49245e-05
0.00672281
0.000251377
0.000971972
0.00389193
7.63449e-05
0.0114625
0.000253984
0.00266545
0.000689216
0.000509644
0.000140016
0.00681209
0.00672005
0.00672246
0.00591341
4.67322e-05
0.00199571
0.00245011
0.00500874
0.00233458
0.0127588
0.000455164
0.00151733
7.18177e-05
0.0067198
0.00110871
0.000256267
5.20955e-05
0.00672261
0.000282925
0.000239996
0.000600711
0.0121869
0.00672563
0.0055943
0.00672049
0.000148299
0.00671871
0.00671874
0.00669409
0.000150433
0.00117111
0.00411884
0.00940328
0.000820765
0.0022977
0.00464069
0.00672567
0.00673784
0.000640551
0.00562763
7.67282e-05
0.00134881
0.000293569
0.000542041
0.00595108
0.00235198
0.00519291
0.00393007
0.000967516
0.000109002
0.00869622
0.000543025
0.000763202
0.00569866
0.00672093
0.00529998
0.000217946
0.000110597
0.00672377
0.00672536
0.00672256
0.00671823
0.00671876
0.000385266
0.000149556
0.0121075
0.000610396
0.000427269
0.00205566
0.000532011
0.00963493
0.00284162
0.00162656
0.00671864
0.00482787
0.00911186
0.000213776
0.000867972
0.00470501
0.0018362
0.00176251
0.00067058
0.00120923
0.000121629
0.00674383
0.00144327
0.0103829
0.00672589
0.000544365
0.00282179
0.0121691
0.000378695
0.000481141
0.000623712
0.000100091
0.000103958
0.00760683
0.00514351
0.000310987
0.00678031
0.00672518
0.00765381
0.00289852
0.0128928
0.00672333
0.00679728
0.010961
0.00429953
0.00465021
0.00166965
3.11883e-05
0.00192546
0.00672355
0.0123539
0.00210579
0.00144087
0.00671868
0.0055285
0.000802739
4.10918e-05
0.0067228
0.000393091
0.000192827
0.00281962
4.52953e-05
0.00672546
0.00672254
0.00672145
0.00669716
0.00173628
0.00011004
0.00672118
0.0107648
0.00673224
0.00672251
0.000304336
0.00545334
8.39153e-05
0.00145171
0.00671789
0.00346975
0.000405563
4.11927e-05
0.00012343
0.00385989
0.00181876
0.000449016
0.0008304
0.00470713
0.00028511
0.0096526
0.00671869
0.00027668
0.00669451
0.00052947
0.00047235
0.0131663
0.00101354
0.00245888
0.00089882
0.000598881
0.00151387
0.000128227
0.00469125
0.000329256
0.0067461
0.00378135
0.000863737
0.00150384
0.000266038
0.00671919
0.000354695
0.00397904
7.63812e-05
0.00465085
0.00620314
0.00756838
0.00674555
0.000153316
0.000253345
0.00509605
0.00494157
0.00486216
0.00671833
0.00260913
0.0034833
0.0131108
0.00146244
0.00672524
0.0125228
0.0067228
0.00267252
0.00674036
0.00544668
0.000122671
8.95367e-05
0.000680185
0.00438557
0.00672282
0.00672766
0.000370542
0.000112391
0.00672231
0.00109308
0.00466757
0.0134509
0.00158067
0.0129006
0.00575812
0.00441155
0.00341313
0.00671952
0.000828666
0.00672187
0.00251287
0.00398513
0.00034205
0.00185046
0.000811201
0.000254478
0.00970036
3.30721e-05
7.30131e-05
0.00852361
0.00672071
0.00020477
0.00184655
0.00672089
0.000823144
0.00334706
0.000324447
0.00627965
0.0118774
8.82024e-05
0.00669475
0.00104767
0.000964346
7.62446e-05
0.00162041
0.00449976
0.00671949
0.0054856
0.000276343
3.48274e-05
0.000274254
0.00671901
0.00136555
0.000266176
0.0067146
0.00155197
0.000630312
0.00161626
0.00672425
0.00672581
0.000204864
0.00671983
0.000267894
0.00213743
0.00671995
0.00671988
0.000894509
0.00671789
0.000155211
0.00181591
0.000135735
3.90893e-05
0.00447013
0.00297085
0.0014099
0.000119271
0.000921836
0.00104189
5.9721e-05
3.07403e-05
0.000415776
0.00689981
6.42035e-05
0.00271886
0.000434136
0.0125745
0.00133028
0.00671781
0.00672271
4.66821e-05
0.00294293
0.00679137
3.07376e-05
0.0010285
0.0107985
0.00152528
0.000273313
0.0123131
0.00337085
0.00672225
0.00672239
0.00671945
0.000568662
0.00037405
0.00161919
0.000307476
0.000650377
0.000411887
0.00294873
0.00198348
0.000303287
0.0067219
0.00672067
0.00075725
0.00266877
2.56569e-05
0.00672179
0.00672019
0.00672571
0.000127349
0.000270894
0.000545307
0.00260476
0.00205288
0.0131571
0.00825702
3.99791e-05
0.000142319
0.000538093
0.00245963
0.0125967
0.000323185
0.00219787
0.00010184
0.00672029
0.000435489
0.000582984
0.00253872
0.00671787
5.80398e-05
0.00214399
0.00893202
0.000348376
0.000474337
0.00241072
0.00130582
0.00447752
0.00149563
0.00194519
0.00082497
5.53741e-05
0.00609308
0.0110019
0.00268945
0.00671973
0.000987396
0.00211943
0.000204527
0.00554932
0.0016049
0.00672036
4.33847e-05
0.000246052
0.00271517
0.00259971
0.00362047
0.00215931
0.00672501
0.000539125
5.20691e-05
0.0125552
0.000497343
0.00672483
0.0116743
9.44487e-05
0.00514169
0.000168119
0.00618624
0.00152338
0.00671985
0.000181971
0.00102703
0.000433669
0.000491757
0.00674012
0.00495488
0.00672415
0.00162152
0.00158219
0.00136738
0.00671775
0.00347313
0.00105056
0.00672599
0.00095492
0.00672336
0.00121017
4.36305e-05
0.0102514
0.00146295
0.00137595
0.0128196
0.00671827
0.0067233
0.000441732
0.00132643
0.00335754
0.000541381
0.00119935
0.00118595
0.0113101
0.00455772
0.00501032
0.00189949
0.00017318
0.00672137
0.00113756
0.0137121
0.00800726
0.00205405
0.00138344
0.00673801
4.32055e-05
0.000406176
2.92488e-05
0.00672509
0.000126834
0.00154149
0.00260849
0.00192671
0.00105257
0.00201158
0.00992837
0.00156771
0.00673859
0.00822559
4.26284e-05
0.00672267
0.00672236
3.05243e-05
0.0017574
0.000343712
3.90986e-05
0.00672282
0.0017501
0.00170125
0.00129757
0.00269839
0.00671424
0.000358591
0.00173006
0.000312683
0.00673037
0.00292115
0.0034303
0.00284547
0.00672263
0.000248288
0.00572148
0.000645924
0.0126707
0.00662744
0.00353842
0.00642589
0.000122688
0.00265798
0.00257217
0.00070712
0.00127265
0.00671807
0.000929129
0.00300672
0.000137002
0.00432093
0.00322436
0.00537239
0.00267393
0.0118634
0.00654443
0.00281687
0.00671995
0.00280299
0.00558704
0.000745967
0.000231306
0.00672325
0.000117409
0.0017613
0.000409826
0.000748733
0.00206489
0.000283852
0.0130947
0.000316071
0.00676565
0.000287027
0.000995233
0.000189395
0.000654456
0.00495423
0.00196265
0.000443335
3.77959e-05
0.000184582
0.00208996
0.00266625
0.0133279
0.00225451
0.00685196
0.000459291
0.000149934
0.0115827
0.00678344
0.00506583
3.64749e-05
0.000220971
3.73414e-05
0.000158792
0.000951869
0.00672289
0.00208314
0.000132415
0.00472432
0.000122459
0.00076056
3.58105e-05
0.00901207
0.00672225
0.000413444
0.00170365
0.000654703
0.000227396
0.00672376
0.000326203
0.000565594
0.000915506
0.00672355
0.00165656
0.00039857
0.00476979
0.00147394
0.00447755
0.00672541
0.00672047
0.00125439
7.76846e-05
0.00333987
0.00672302
0.00152124
0.00146002
0.000777306
0.00441617
0.00672569
0.00469007
5.03679e-05
0.0067214
0.00672094
0.000682944
0.0122946
0.00487264
0.00672555
0.00187075
0.00161272
8.60859e-05
0.0026208
0.00724345
0.00671807
0.00133678
0.000995403
0.0133581
0.00208254
4.06487e-05
0.00112841
0.0109857
0.00951154
0.00314985
0.00448136
0.000976535
0.00450491
0.00673451
0.000190847
0.00673343
0.00510881
0.00679894
5.14186e-05
0.00472855
0.00417792
0.000917403
0.011466
0.00456032
0.0119295
0.00349366
0.000691131
0.00672469
0.00132581
0.000166475
0.000393159
0.00234275
0.00672222
0.000946952
0.0120638
0.00671979
0.00114393
0.00672374
0.000367128
0.00203207
3.55913e-05
6.02027e-05
0.000442964
0.000385718
0.00276461
0.00958437
0.00113552
0.00671787
0.0124046
0.0105423
0.00502713
0.00673344
0.000422884
0.000735673
0.00042782
0.00671969
0.00520228
0.000230501
0.000371905
0.0067442
0.00671895
0.00180483
0.00316861
0.000980553
0.00218972
0.000587984
0.0036642
0.000189544
0.00272272
0.00365937
3.82844e-05
0.00671958
0.000655936
0.000359479
0.00103872
0.00026405
0.00496961
0.000861928
0.00896486
0.00173997
0.00671916
0.000135293
0.00672035
0.0122865
0.00672396
0.0110343
0.00473237
0.00482418
0.00527023
0.000759105
0.0074109
0.0059368
0.00068023
0.00114846
0.000175272
0.00672076
0.000288447
0.00671926
0.0114862
0.00055118
0.0101242
0.00673359
0.00672584
0.000203512
0.00227141
0.000279777
0.00594546
6.38534e-05
0.000936034
0.00424707
0.00643332
0.00276653
0.00672119
0.00253361
0.00233176
0.0103145
0.000377847
0.00671894
0.00709775
0.000102021
2.97335e-05
0.00679469
0.000252834
4.51033e-05
0.00435309
0.00125174
0.00240944
0.00672256
0.00671932
0.00389407
0.000664799
0.00148906
0.011589
4.27546e-05
5.41313e-05
0.00672584
0.00672091
0.0135409
0.00163435
0.00672165
0.00253505
0.00536284
0.0131643
0.0034228
0.0102565
0.000231545
3.30528e-05
0.00672586
0.0108201
0.00671821
0.00290668
0.00672217
0.00671785
0.000915566
0.00573753
0.00672343
0.0119279
0.000280586
4.25152e-05
0.00149013
0.00672234
0.0032975
0.0117491
0.00012218
6.07599e-05
0.00672605
0.00187011
0.00220989
0.0132871
0.00730983
0.0101676
0.0067299
0.0128725
0.00355181
0.0122186
3.38845e-05
0.000522403
0.000154418
0.00522517
0.000425994
0.0120414
0.00155429
0.0102691
0.00671766
0.00672306
0.000131395
0.00112072
0.000249427
0.000338363
0.00671969
0.0071185
0.00122023
0.00011695
0.00671917
0.000377452
3.8796e-05
0.00672318
0.00110382
0.000594844
0.000809544
0.00676306
0.00671988
0.0107975
0.00846119
0.000931739
0.00698877
0.000201877
0.00672125
0.00742754
0.00236819
0.00672284
0.000279183
0.00672509
0.00673396
0.00100056
0.0101349
0.00195459
0.00734745
0.00118765
0.00510681
0.00292667
0.00294257
0.00146943
0.00671818
4.25727e-05
0.00672283
0.00313656
0.00671706
0.000101852
0.00482756
0.000399271
3.86772e-05
0.0132473
0.00011613
0.00536468
0.00152531
0.0119767
0.00890519
0.00902122
0.00672123
0.00208175
0.00755935
0.00426792
0.000506876
0.00158463
0.00672238
0.00392712
7.5993e-06
0.00463016
0.00350065
0.000656832
0.0067249
0.00375257
0.00136409
0.00544673
0.00381556
0.00672472
0.000782779
0.00673888
0.0017999
0.00639957
0.000115482
0.000273464
0.00958159
0.00671922
0.00573894
0.0132965
0.0038883
0.00672508
0.000643838
0.000819193
0.00164262
0.00111933
0.00875288
0.0134108
0.000277601
0.00577387
0.00507274
0.000949306
0.00671807
0.00671971
0.00132529
0.0067195
0.000252572
0.00376158
0.00925546
0.00672208
0.00122744
0.00268867
0.000760929
0.00805774
6.48163e-06
0.000175316
0.00254571
0.00017185
0.0113867
0.000440574
0.0100504
0.000964089
0.00278569
0.011868
0.0088492
0.00152942
0.00672403
0.00140334
0.000432137
0.000387167
0.00674096
0.00281576
0.00672489
0.0067189
0.00672313
0.0106165
0.000991815
0.00672011
0.00244281
0.00672241
0.00714205
0.000576737
0.007362
0.000539389
0.00671954
0.0134446
4.54487e-05
3.39095e-05
0.00130386
0.00141691
0.00672111
0.00103191
0.00260368
0.000876529
0.000223143
0.00246187
0.00671955
4.62372e-05
0.00157564
0.00672285
0.000414889
0.00672109
0.0109491
0.00671993
0.00819679
0.0032262
0.000935741
0.00671974
0.003707
0.00672116
0.00678207
2.23443e-05
0.000863228
0.00119649
0.000256129
3.54769e-05
0.0132684
0.000345508
0.000899144
0.0020492
0.0100869
0.00923883
0.00685781
0.0016364
0.00651107
0.00504515
0.00118157
0.00675615
6.75774e-05
0.00157669
0.00291918
0.00257949
0.00672284
0.00483409
0.00471545
0.00672442
2.83942e-05
0.00761135
0.00782819
0.000189536
0.00195081
2.94095e-05
0.000952409
0.00477535
0.00617229
0.00321918
0.00672238
0.00679254
4.03672e-05
0.00116809
0.00011567
0.000209692
0.00776916
0.00672216
0.00657553
0.0118051
0.00671866
0.00149686
0.000285592
0.00274832
0.00129291
0.013579
0.00672541
0.00119469
0.00401502
4.38283e-05
3.92547e-05
0.00203895
0.00732821
0.000343166
0.0099716
0.00671816
8.21324e-05
0.00778669
0.00671943
0.00128741
0.00638782
0.000515646
0.00252923
0.00455931
0.000139214
0.0030813
0.00218232
0.00153064
0.00756582
0.000615587
0.00233077
0.00205181
0.00961116
0.00599665
0.00218
0.00013889
3.60123e-05
0.00162945
6.83824e-05
0.000108779
0.00672109
0.00134835
0.00338124
0.00672711
0.0017974
0.00672154
0.0017049
0.0122553
0.000607548
0.00672513
0.00373492
0.00442927
5.536e-05
0.00194075
0.00130268
0.00215815
0.00792856
0.00178318
0.000718925
0.000302801
0.000150699
0.004722
0.00675181
0.00672233
0.000119518
0.00725137
0.0129805
0.0119993
0.00671759
0.000526806
0.000261559
7.4675e-05
0.00893509
0.00672234
0.0127657
0.001925
0.00253615
0.00675975
0.007594
0.00123694
0.00419833
0.00373197
0.000480419
0.0109063
0.000105178
0.00671894
6.53892e-05
0.00209228
0.00421139
0.00121998
0.00163493
0.00671909
0.0023913
0.000931229
0.00672617
0.000983032
0.00672489
0.000655564
0.00672432
0.0121663
0.0067244
0.00926088
0.00673379
0.000875889
0.00593198
0.00106155
0.000752475
0.00672123
0.000717614
0.00252906
0.00672388
0.00460533
3.42305e-05
0.000100127
0.00674105
0.000709443
0.00574534
0.0128177
0.00106654
0.000270564
0.000441055
0.00485798
0.000841635
0.00290157
0.00122024
0.00012026
0.00672256
0.000215248
0.00668397
0.0067217
0.0120739
0.000510304
0.00608285
0.00672853
0.00263832
0.00672614
0.0126805
5.55759e-05
0.00672562
0.00469192
0.000335897
0.00183373
0.00179204
0.000686815
0.00672286
0.00038064
0.0134215
0.00672318
0.000327774
0.00281862
0.00206408
3.87907e-05
0.00954464
0.0105245
0.00209632
0.000487212
0.00746133
0.00233546
0.0097575
0.000299019
0.00123489
0.000327535
0.00124217
0.00672778
0.000142198
0.00672466
0.0065319
0.000758388
0.00489371
0.000434013
2.35104e-05
0.00129776
0.000844826
0.00672152
0.00060933
0.00672253
0.00672158
0.000609282
0.0116535
0.00610384
0.00689524
5.80131e-05
0.00192355
0.00327827
0.00285125
0.000455879
0.00423808
0.000172988
0.00340434
3.30345e-05
0.00523377
0.00672234
0.00672496
2.46604e-05
0.00482916
0.000928748
0.00672262
0.00691921
0.00537367
0.00179517
0.006725
0.000805522
0.0112162
0.00206023
3.26445e-05
0.000217889
0.00672931
0.00171926
0.00672581
0.0106849
0.00671996
0.00764715
0.0109765
0.0124939
0.000925764
0.000300251
0.00524624
0.0067217
0.0051153
0.00672487
0.00321107
0.0123076
0.000228629
0.00671838
0.00673857
3.35245e-05
5.48494e-05
0.000102738
0.00934726
0.000289114
0.000903056
0.002338
0.0114761
2.42393e-05
0.00172302
3.15632e-05
0.0128892
0.00777838
0.00275941
0.000840424
0.00672608
0.000745669
0.000402879
2.42044e-05
0.00672603
0.00045781
0.00672289
0.000128407
0.0122676
0.00298196
0.0013007
0.00785058
0.00845226
0.00319625
0.00923282
0.00432292
0.000673238
0.00672439
0.0133222
0.00672331
0.00150102
0.00672302
0.00277769
0.00672411
0.00362986
0.0035863
0.000172461
0.00673672
0.0102786
0.0034562
0.006715
0.00673714
0.000189089
9.57324e-05
0.00208982
0.000297675
0.00113727
0.0107304
0.0108541
0.01252
0.00210409
0.00101431
0.00138357
0.000210917
0.00365007
0.00557847
0.00547485
0.00145238
0.00174257
0.00104888
0.00324952
9.24479e-05
0.000261746
0.00672356
0.000693745
0.00546563
0.00672264
0.000514824
2.91337e-05
0.00114481
0.000716979
0.00318665
0.00161829
0.00990228
3.28841e-05
0.00674595
0.000702324
0.00414982
0.000725236
0.00172811
4.1926e-05
0.00519224
0.000468137
0.000559307
0.00877558
0.0013182
0.0086051
0.00201747
0.00672118
0.00672286
0.00672015
0.0076186
0.00573711
0.00616454
0.0103573
0.0108802
0.000228771
0.000564076
0.000851075
0.00738483
0.00422032
0.00672086
0.000941371
0.00036369
0.000173059
0.00500617
0.00116483
3.9304e-05
0.00757819
0.00388223
0.000560224
0.00685239
3.95949e-05
0.00020562
0.000742627
0.00638454
0.00782405
0.00859931
4.13841e-05
0.000819046
0.00486325
0.00269719
0.00147487
0.000389719
0.00440956
0.00669407
0.00321402
0.000118682
0.00673144
0.000400565
0.000678018
0.0117503
0.0067226
0.00138826
0.000248675
0.00624624
0.00672207
0.00445526
0.000183307
0.00243973
0.000601345
0.00650775
0.00918767
0.00525936
0.00672565
0.000293146
0.00991298
0.00262302
0.000417708
0.00260737
0.00187541
0.00672541
0.0124861
0.000502876
2.49551e-05
0.00154048
0.00824536
0.00674274
0.00671524
0.00672787
0.00672086
0.00671937
0.00916041
3.1346e-05
0.0076181
0.00672415
0.00648494
0.00980089
0.00151333
0.00993119
0.00149748
0.00678174
3.56792e-05
0.000298469
0.00136141
0.00658553
0.00174965
0.000546408
3.44327e-05
0.000412031
0.00672157
3.49182e-05
0.00671816
2.90447e-05
0.00271197
0.000543921
0.00673381
0.00397136
3.73562e-05
0.00672282
0.0103798
0.00672268
0.00625774
0.0124012
0.000469065
0.000735293
8.77339e-05
0.000702109
0.00682166
0.00676672
0.00512105
0.000297601
0.000557495
4.18513e-05
3.36013e-05
0.00220809
0.000430869
0.00018599
0.0030944
0.000806954
0.00732086
0.000617157
0.00504186
0.00211826
0.00672464
0.00185877
0.000200199
0.00779468
0.00672068
0.00278862
4.64996e-05
0.00546471
0.00304663
0.00672281
2.7824e-05
0.00829928
0.00332968
0.00672612
3.79127e-05
0.0122797
0.0010048
0.000225529
4.20749e-05
0.00969063
0.00103665
0.00107841
3.29354e-05
0.00062068
0.00125452
0.000511282
0.00672243
9.86655e-05
0.0118218
9.31666e-05