/*--------------------------------*- C++ -*----------------------------------*\
| =========                 |                                                 |
| \\      /  F ield         | OpenFOAM: The Open Source CFD Toolbox           |
|  \\    /   O peration     | Version:  v2012                                 |
|   \\  /    A nd           | Website:  www.openfoam.com                      |
|    \\/     M anipulation  |                                                 |
\*---------------------------------------------------------------------------*/
FoamFile
{
    version     2.0;
    format      ascii;
    class       volVectorField;
    location    "150";
    object      U;
}
// * * * * * * * * * * * * * * * * * * * * * * * * * * * * * * * * * * * * * //

dimensions      [0 1 -1 0 0 0 0];


internalField   nonuniform List<vector> 
18355
(
(1.09149 0.0834855 1.99433e-20)
(0.213078 -0.0166808 -8.38707e-21)
(1.00273 0.0207567 -2.14992e-21)
(1.01472 0.00538669 -4.41176e-22)
(1.04527 -0.00192834 0)
(1.11096 -0.0353307 -2.13974e-20)
(1.0035 0.00703385 8.62486e-22)
(1.14554 0.0235495 -2.19813e-20)
(0.939938 -0.0109964 2.29388e-20)
(0.101747 -0.0228548 6.07447e-21)
(1.02217 0.00115554 5.96977e-22)
(-0.326785 0.00578432 -8.35659e-20)
(1.1838 0.00963113 6.06599e-20)
(0.987198 0.00384206 0)
(1.02355 0.0356487 4.65195e-23)
(0.984218 0.0686397 0)
(-0.24392 0.0131947 -7.05288e-20)
(1.01479 0.0107463 -4.55692e-22)
(1.00301 0.0348987 0)
(0.479987 -0.0667525 7.82737e-21)
(0.964374 0.0848208 -2.38496e-20)
(0.97369 0.0312611 2.81857e-20)
(0.077071 -0.0760626 4.50173e-20)
(1.04464 -0.00239789 9.18031e-22)
(1.05814 -0.0151091 0)
(0.999075 0.00238713 3.02711e-21)
(0.996267 -0.000780085 2.34598e-21)
(0.943098 0.00184095 2.68836e-20)
(-0.0665737 -0.154213 3.2005e-20)
(0.99253 0.0223262 1.7851e-20)
(1.03755 -0.00356265 4.31404e-21)
(1.05243 -0.00494982 0)
(1.01459 0.0103119 2.45188e-22)
(1.00957 0.00058016 2.11114e-21)
(1.12792 0.132284 -2.14105e-20)
(1.09539 0.083546 -2.34603e-20)
(0.955972 -0.00718621 0)
(1.16379 0.271396 -5.89142e-20)
(0.944746 0.00308115 -2.80379e-20)
(1.0227 0.00164581 5.80237e-22)
(0.986617 0.00361026 1.37758e-21)
(0.930705 0.31048 0)
(1.0026 0.0214022 0)
(0.00836948 -0.0161773 -3.88906e-22)
(1.01501 3.68673e-05 9.05199e-23)
(1.1738 0.271566 8.88143e-20)
(1.13962 0.0759659 -4.69216e-20)
(0.934513 0.0214696 0)
(1.12723 0.0774313 2.96822e-20)
(1.01418 0.011688 9.1023e-23)
(1.01956 0.00292045 1.72409e-22)
(1.01541 0.0223824 6.82531e-22)
(0.999983 0.000236258 0)
(0.347206 -0.0676414 -1.48428e-20)
(1.00003 0.00536044 2.77304e-21)
(1.00152 0.000270659 3.15926e-22)
(1.09837 -0.0325161 0)
(1.02332 0.0365481 6.94173e-23)
(0.114649 0.433579 -1.3857e-19)
(1.21571 0.143924 0)
(1.01378 0.0117121 -9.55858e-23)
(1.12414 -0.0174914 1.63525e-20)
(1.01587 0.0100761 -6.98171e-22)
(1.00758 0.191509 -2.93486e-22)
(-0.311022 0.00542458 1.57719e-19)
(1.08937 0.0799136 -3.63479e-21)
(-0.0448372 -0.0898473 0)
(0.855473 0.0469269 0)
(0.996559 -0.000844854 5.83665e-21)
(0.975225 0.0314882 1.46402e-20)
(1.15362 0.102672 -3.16236e-20)
(1.00005 0.000330427 -2.91887e-21)
(1.22111 0.148522 0)
(1.01073 0.0111988 -1.23717e-21)
(1.14595 0.0270543 2.06158e-20)
(1.00366 0.00725093 -1.11152e-21)
(0.744208 -0.102326 6.71226e-21)
(1.05281 -0.00236524 2.68076e-21)
(1.06902 -0.0170821 0)
(1.01495 0.0196074 0)
(1.00322 0.00692474 -4.88785e-21)
(1.21431 0.359067 0)
(0.966413 0.0825923 1.50696e-20)
(1.05533 0.181953 -1.69321e-20)
(0.99896 0.00254483 1.85093e-21)
(1.18079 0.0110856 0)
(0.310901 -0.0832219 1.17802e-20)
(0.478059 -0.0647943 -6.58228e-21)
(-0.0654141 -0.155309 -2.81962e-20)
(0.302953 -0.0855723 2.94795e-20)
(1.12774 -0.0977724 5.81485e-21)
(1.01515 6.54028e-06 -1.84258e-22)
(0.999612 0.00444459 0)
(1.01886 0.000903186 0)
(-0.00634299 -0.163085 0)
(0.0371003 -0.0692827 -2.47365e-20)
(1.02452 0.0166076 -4.51649e-22)
(1.07158 0.00477102 0)
(0.313576 -0.0623094 -1.5208e-20)
(-0.18221 0.0143417 0)
(-0.0205438 -0.143466 0)
(-0.202679 0.0118898 0)
(1.09044 0.1393 0)
(1.12632 -0.131409 -3.04325e-20)
(1.04547 -0.00667826 3.44637e-21)
(1.14266 -0.0391826 2.62299e-20)
(-0.366783 0.00514253 0)
(1.1089 0.304984 4.75369e-20)
(1.09729 0.0292186 7.27584e-21)
(0.490556 -0.328913 -2.42501e-20)
(0.996967 0.0219524 -1.29117e-20)
(0.950567 0.0139532 -9.82572e-21)
(0.998853 0.00170309 1.01034e-20)
(0.948393 0.0132329 2.03258e-20)
(0.347111 -0.0456909 -1.18173e-20)
(1.00266 0.000840776 -5.0649e-21)
(0.0694112 -0.32589 -9.74764e-20)
(0.73579 -0.100944 -7.02019e-21)
(0.0743416 0.325644 0)
(1.08603 0.143844 -1.14514e-20)
(0.105132 -0.0272849 6.1756e-21)
(1.3683 0.136151 0)
(1.05211 -0.00298645 -2.72587e-21)
(1.15324 0.106225 0)
(1.02388 0.0167417 4.48281e-22)
(1.10896 0.315916 5.45248e-20)
(1.01581 0.0218353 -4.83471e-22)
(0.999996 0.000607931 0)
(1.32488 0.263114 -5.65524e-20)
(1.01859 0.000960379 0)
(1.01953 0.0031641 4.71018e-23)
(1.20858 -0.138798 -6.43262e-20)
(1.11866 0.000700243 0)
(1.07056 0.00390002 -3.0772e-21)
(0.906762 0.182228 -5.02428e-21)
(0.999991 0.000693369 5.29673e-21)
(1.02063 0.0285488 0)
(1.02223 0.000937839 0)
(0.991303 0.0129457 0)
(1.15173 0.175957 0)
(-0.0271295 -0.15355 2.22066e-20)
(-0.0517957 -0.192419 9.25604e-21)
(0.996275 0.0463368 -1.18272e-21)
(0.996593 0.0211898 1.58981e-20)
(0.378957 0.0104475 -9.84401e-21)
(0.97383 0.0276955 -1.87396e-20)
(0.910073 -0.0015682 0)
(0.267043 -0.114201 0)
(1.06055 0.0133236 0)
(0.244986 -0.124878 7.82201e-21)
(1.04417 0.00341381 0)
(0.973127 0.02889 -1.12739e-20)
(1.12294 0.130223 4.87053e-20)
(0.108242 0.386573 -1.2305e-19)
(1.09885 -0.0351602 -4.32862e-21)
(1.00003 0.000352848 -5.02023e-21)
(1.21288 -0.138912 -1.63014e-20)
(0.0830855 0.29489 -4.96039e-20)
(1.00003 0.000359712 2.82087e-21)
(1.12916 -0.01861 -9.70662e-21)
(1.00678 0.102521 8.43695e-22)
(1.0465 0.0632187 -6.16414e-21)
(0.904401 0.088422 -4.46705e-20)
(1.07166 0.00217426 6.97648e-21)
(1.08465 -0.0368938 -8.52356e-21)
(0.494587 0.650221 0)
(0.155795 0.0530513 -4.82832e-22)
(1.11764 0.0890852 -6.04176e-21)
(1.23254 -0.013947 -2.65652e-21)
(1.01288 0.0113884 -2.08311e-21)
(-0.0193918 -0.0804916 0)
(-0.0110404 -0.0614783 -2.54205e-20)
(1.02106 0.00162156 0)
(1.02185 0.00164826 -1.51663e-22)
(0.98696 0.0680278 0)
(0.237038 -0.00871312 -2.24847e-20)
(1.09329 -0.0357578 0)
(0.99995 0.00472342 -2.87834e-21)
(1.34154 0.264424 0)
(0.412565 0.197266 9.29644e-20)
(0.669504 -0.128226 7.6233e-22)
(1.22985 -0.0178165 5.33185e-20)
(1.08148 0.0128844 0)
(1.00499 0.0064302 0)
(1.08346 -0.0505759 0)
(0.256893 -0.0107138 1.01264e-20)
(0.24516 -0.0948935 -3.11349e-20)
(1.14011 -0.0784927 4.74047e-20)
(0.938443 0.00160226 6.15943e-21)
(-0.262101 0.0109908 -7.20302e-20)
(1.09905 -0.0331392 1.28282e-21)
(1.00301 0.022874 0)
(1.0708 0.00135669 -3.19661e-21)
(1.09541 -0.123331 0)
(0.885281 0.202775 4.10561e-20)
(0.975474 0.0345062 0)
(1.30241 -0.0584448 -1.96984e-20)
(1.08045 0.0117546 -2.19828e-21)
(1.104 0.000565485 9.9492e-21)
(1.02158 0.00179808 0)
(1.05241 0.0186617 -3.34199e-21)
(0.94038 0.0415908 2.51019e-20)
(0.120455 0.0630895 0)
(0.198422 -0.0871487 3.22635e-20)
(-0.420028 0.00346681 0)
(0.991633 0.113245 0)
(0.0859854 -0.291674 0)
(-0.0993331 0.0234759 8.57403e-20)
(-0.105077 0.0113304 -1.50885e-19)
(1.10241 -0.000696769 -1.75832e-20)
(1.01991 0.0293319 0)
(1.04334 0.00375424 0)
(0.43146 -0.0681363 -3.5725e-21)
(0.996643 0.0447142 0)
(1.01246 0.0110832 2.40798e-21)
(1.21541 0.348594 0)
(0.828877 -0.0393665 4.19422e-21)
(0.434603 -0.0692198 1.19009e-20)
(0.998952 0.00147779 -7.94837e-21)
(1.05933 0.0136304 -2.02861e-21)
(1.25862 0.255793 0)
(0.992763 0.0142397 9.07751e-21)
(1.04976 0.178777 2.00759e-20)
(1.0206 0.0278565 0)
(0.0796421 0.0451481 9.78331e-20)
(0.983378 0.0333436 -3.48258e-21)
(-0.122272 0.0205409 0)
(0.286536 -0.0186312 -2.18158e-20)
(0.54774 -0.0102449 0)
(1.01902 0.0292992 1.7655e-21)
(0.999978 0.000300781 0)
(1.06752 -0.0166616 -1.73079e-20)
(1.02694 0.0907394 1.03177e-21)
(-0.0922688 0.0231682 2.24189e-20)
(1.01265 0.0562501 1.48736e-21)
(0.999197 0.00292145 6.11499e-21)
(0.999899 0.00447608 -8.16748e-22)
(1.13912 0.316077 -9.88257e-21)
(1.09349 -0.09668 1.03223e-20)
(-0.298833 0.00645116 0)
(1.09484 0.0288285 1.57492e-20)
(1.23864 -0.00317917 7.46998e-20)
(1.03797 -0.00470345 1.32835e-21)
(1.01197 0.0116024 0)
(0.980382 0.0335851 -1.16368e-20)
(0.266194 -0.0108399 1.87378e-20)
(1.25856 0.105707 -2.53295e-20)
(0.0671676 -0.125116 0)
(1.09834 -0.0350835 -2.60351e-21)
(1.00875 0.0994291 -7.06297e-22)
(1.05195 0.0196495 -3.19142e-21)
(0.206166 0.79428 1.68815e-20)
(1.08187 0.00982434 0)
(-0.069031 0.0134795 1.8312e-19)
(0.988447 0.0331057 -1.27378e-20)
(-0.210478 0.0167781 9.45403e-23)
(0.641635 -0.0447086 0)
(1.13121 -0.0169413 1.04853e-20)
(0.997788 0.0267538 -9.78203e-21)
(1.0057 0.00039251 -3.5447e-21)
(1.08549 0.0801969 0)
(1.16361 0.0990723 -5.78725e-20)
(0.241177 0.100949 -5.47081e-21)
(1.12105 0.000302214 0)
(1.0078 0.00621971 0)
(1.01199 0.0102028 -9.61784e-22)
(0.999976 0.000407981 -5.28789e-21)
(1.23954 -0.0146151 0)
(1.07349 0.261907 1.32807e-20)
(0.588103 -0.05629 -7.56527e-20)
(0.980355 0.0511214 -9.84867e-21)
(0.151107 -0.14007 1.90416e-20)
(1.14134 -0.0826071 -2.94871e-20)
(1.14305 -0.0361908 -4.2356e-20)
(1.03627 0.0298793 -6.57453e-21)
(1.30556 -0.0522197 -5.35999e-20)
(1.0155 0.020402 0)
(0.995445 0.0094223 -4.67099e-21)
(1.0561 0.806037 -1.41366e-20)
(1.00846 0.000656236 1.46704e-21)
(1.00366 0.00752171 1.18084e-21)
(1.14809 -0.0350163 3.2343e-20)
(1.00232 0.0152521 0)
(-0.0214295 -0.232531 0)
(1.08105 0.00874655 -4.77633e-21)
(0.925946 0.0117859 -5.08857e-20)
(1.00813 0.000646972 0)
(1.11663 0.0928477 7.64053e-21)
(-0.298305 0.00813388 4.43709e-20)
(1.05299 -0.00412216 6.52219e-21)
(1.01429 0.0051711 0)
(0.989466 -0.000839354 1.99692e-20)
(1.12512 -0.0538784 3.19926e-20)
(0.234056 -0.0390189 1.57558e-20)
(0.999972 0.000438762 -8.18839e-21)
(1.00001 3.50042e-05 -8.01731e-22)
(0.769212 -0.0429969 9.79075e-21)
(1.10068 0.139386 9.62416e-22)
(1.09783 -0.0350335 3.18532e-20)
(0.627164 0.381114 0)
(0.995682 0.00907243 0)
(1.15869 0.0977847 3.6787e-20)
(0.962755 0.0254354 6.32167e-21)
(1.00002 6.0898e-05 0)
(0.626948 0.351271 -6.40105e-20)
(1.08301 -0.0375496 9.92571e-21)
(1.09044 -0.0152084 5.39392e-21)
(1.1241 -0.0561984 -1.77409e-20)
(1.01862 0.0012228 -5.25962e-22)
(0.65078 -0.127041 1.44456e-20)
(1.04368 -0.0071051 2.90535e-21)
(1.00196 0.034228 0)
(1.33272 0.120459 0)
(0.999265 0.0198193 4.79822e-21)
(1.24278 -0.00992297 1.33078e-21)
(0.916749 0.306011 0)
(0.999618 0.00478739 -1.1879e-20)
(1.01674 0.00340539 9.46693e-23)
(1.24214 0.00162325 0)
(0.283652 -0.0894355 5.55594e-20)
(-0.0619304 0.0225851 0)
(1.01586 0.0403608 -2.64093e-21)
(0.908813 0.0848004 -2.43413e-20)
(-0.00642927 -0.0126589 -1.47409e-22)
(1.02955 0.00235501 2.13996e-21)
(1.09714 -0.0990651 9.86747e-21)
(1.06523 -0.0196744 -9.81199e-21)
(0.95527 0.140793 1.73171e-20)
(1.09861 -0.0967026 0)
(1.01832 0.00127185 4.77238e-22)
(0.491203 0.706005 0)
(1.00021 0.0320785 -7.1651e-21)
(0.902671 0.192831 -1.83984e-20)
(1.00087 0.000256325 0)
(1.09798 -0.0350411 -1.75885e-20)
(-0.260038 0.0127153 2.61502e-20)
(0.999953 -0.000307894 0)
(0.147078 0.105651 0)
(1.10724 0.0294181 4.64386e-21)
(0.995011 0.00239311 0)
(1.13573 0.0777493 3.91052e-20)
(1.1237 -0.0197495 -8.82425e-21)
(1.11955 -0.141311 -3.82871e-20)
(0.379074 -0.0634792 0)
(1.11189 -0.121478 1.45375e-20)
(0.988832 0.0321256 1.24465e-20)
(1.01568 0.00973032 0)
(-0.0136852 -0.0579515 6.78962e-22)
(0.701912 -0.0861575 4.01587e-20)
(0.999397 0.0040319 -3.24761e-21)
(1.00968 0.0523568 0)
(1.08935 -0.0139789 -1.24927e-20)
(1.08257 -0.0489552 -7.62975e-21)
(0.261264 0.698112 -3.6718e-20)
(0.0288527 -0.066187 5.02055e-20)
(0.997729 0.00307891 -1.27865e-21)
(1.05792 0.0222891 -7.76856e-21)
(0.0467244 -0.180768 2.10652e-21)
(0.997684 0.0220565 6.18883e-21)
(1.01219 0.0545161 1.09445e-21)
(1.16136 -0.0894188 -5.57145e-22)
(1.10156 -0.00400965 -1.53841e-20)
(1.06211 0.00320354 -4.30525e-21)
(0.269602 -0.126481 3.83381e-20)
(0.999999 0.000410718 -7.1394e-21)
(0.823242 0.15794 -3.87824e-20)
(1.26162 0.262596 -7.97441e-20)
(-0.292163 0.00128052 0)
(1.0142 0.00483782 0)
(0.98486 0.0196616 -3.29666e-21)
(0.992885 0.0110775 6.46016e-21)
(1.02222 0.0180164 0)
(0.823884 0.246396 0)
(1.0228 0.0178675 0)
(1.10719 0.0999451 -2.62941e-20)
(0.993252 0.0108278 -3.16073e-21)
(1.03118 0.0718158 1.72804e-21)
(0.997795 0.00282802 4.12151e-21)
(0.941502 -0.00896921 -2.58334e-20)
(1.03213 0.0109129 -1.27824e-21)
(1.008 0.0357822 -2.50163e-21)
(1.0306 0.0120526 7.00463e-22)
(1.03065 0.0115948 0)
(0.994514 0.0651942 -4.05355e-21)
(0.561121 0.100743 4.69973e-20)
(0.0128153 -0.214207 0)
(1.02176 0.0276995 0)
(1.03755 -0.139216 3.7684e-20)
(0.940762 0.152558 -5.62006e-21)
(0.00880884 -0.208446 4.94877e-21)
(1.09447 0.00705402 2.30133e-22)
(1.17334 0.0527333 -1.78355e-20)
(0.978874 0.034353 1.01637e-20)
(1.09775 -0.146704 -2.99673e-20)
(0.957947 -0.00706434 0)
(1.00251 0.000691334 5.14582e-21)
(0.999086 0.00309732 -9.71592e-21)
(1.01669 0.00521664 5.51614e-23)
(0.345026 -0.0583174 0)
(1.05644 0.0454207 -8.87231e-21)
(1.01539 2.26292e-05 -9.84581e-23)
(1.12154 0.024316 -6.83562e-20)
(1.10305 0.0993035 2.35399e-20)
(0.997939 0.0229371 6.46012e-21)
(1.0295 0.00192214 -2.54215e-21)
(-0.0579144 0.0252359 -1.52048e-19)
(0.975983 0.0328347 -3.04513e-22)
(1.0152 0.0209041 0)
(0.139739 -0.689815 9.37567e-20)
(1.00279 0.0141429 4.74283e-21)
(0.0560272 -0.0991281 -1.03062e-19)
(-0.247306 0.00818918 1.88526e-19)
(1.15708 -0.0893193 -5.72831e-20)
(0.913736 -0.00302874 -2.04579e-20)
(1.04481 -0.00732245 -3.1875e-21)
(-0.267645 0.00955468 -5.5939e-20)
(1.00007 0.000409504 0)
(0.997996 0.0149797 1.32882e-20)
(0.198413 0.634134 -4.49893e-20)
(1.00001 0.000466157 -4.75817e-21)
(1.0208 0.00180849 1.89663e-23)
(-0.259786 0.0111326 -8.31594e-20)
(1.01112 0.0111655 1.23379e-21)
(-0.242593 0.01362 0)
(1.09264 -0.0241429 0)
(1.09525 -0.0349833 -2.33238e-20)
(-0.231038 0.0121208 -2.14755e-19)
(0.962831 0.0212345 2.16716e-20)
(0.998313 0.0146835 -9.65344e-21)
(0.797047 -0.0934996 1.51781e-20)
(1.10942 -0.0348209 8.4722e-21)
(-0.00291201 -0.0667094 0)
(1.12779 -0.133954 -1.73781e-20)
(0.993488 0.00990787 -4.95897e-21)
(1.00471 0.00640445 0)
(0.972738 0.0257537 0)
(0.920636 -0.0477584 0)
(0.943381 0.198571 2.18386e-20)
(1.00302 0.0361943 0)
(0.999998 0.000328414 9.78415e-22)
(0.995234 0.0434129 0)
(0.81548 0.166495 0)
(0.0648193 -0.199868 6.46649e-20)
(0.985483 0.103933 6.39526e-21)
(0.973682 0.0243254 -1.14238e-20)
(0.999989 0.000304112 7.35974e-21)
(1.09333 0.00853485 0)
(1.11859 -0.099121 -6.23692e-21)
(0.249055 -0.0417796 -1.97162e-20)
(-0.207791 0.017214 -1.06329e-19)
(1.05276 -0.148747 5.59551e-20)
(0.766938 0.127648 -1.47212e-21)
(0.837826 0.175343 -4.11463e-20)
(0.028471 -0.0220421 1.73928e-20)
(1.03969 0.00288625 5.32251e-21)
(1.00795 0.00873207 0)
(0.98972 -0.00131684 -8.67245e-21)
(1.02179 0.0267623 -2.51621e-24)
(0.809946 0.232347 -3.3648e-20)
(0.99594 0.00751272 -1.3338e-21)
(1.01536 -2.86166e-06 1.06266e-22)
(-0.198991 0.0115445 3.60086e-20)
(0.804573 0.164383 1.96961e-20)
(1.1315 0.0749492 -1.81133e-20)
(0.346497 -0.0905563 -2.30563e-22)
(0.754605 0.130251 7.44035e-20)
(0.236384 -0.00500388 0)
(1.01067 0.0262789 3.13906e-21)
(1.03135 0.0108383 4.76272e-21)
(0.993862 0.0200373 -1.09692e-20)
(1.00308 0.00657044 3.54546e-21)
(1 0.000230319 0)
(0.999989 0.000242898 -4.92963e-21)
(0.995537 0.00858103 2.56506e-21)
(-0.0629564 -0.18504 -1.06518e-21)
(1.01714 0.0403017 2.8476e-21)
(1.01821 0.00215751 0)
(1.36076 0.131283 8.01514e-20)
(1.22115 0.127607 0)
(1.00764 0.00871069 0)
(1.05157 0.00124185 1.12882e-20)
(0.916838 0.248193 0)
(0.999382 0.816344 -4.79814e-20)
(0.987376 0.0653651 0)
(1.02585 0.015365 -1.208e-21)
(1.11565 -0.139622 5.65933e-22)
(0.943272 0.0403692 -1.07488e-20)
(0.0692494 -0.138785 1.05646e-20)
(1.06543 -0.0208577 8.15446e-21)
(1.02226 0.0189062 3.37123e-22)
(-0.175349 0.00126547 1.76492e-19)
(1.22398 0.123718 -4.12649e-20)
(1.0138 0.00876519 0)
(-0.0273443 0.015549 5.23409e-21)
(-0.0375669 -0.182464 1.57158e-20)
(-0.0161011 0.034833 1.88705e-19)
(1.02162 0.0190667 0)
(1.02547 0.0148339 6.42361e-22)
(1.02458 0.0882234 -1.21467e-21)
(1.11887 -0.0522119 0)
(0.963465 0.0136685 0)
(0.142191 -0.134304 0)
(0.967713 -0.045341 0)
(1.07642 -0.138134 -4.26867e-20)
(1.34545 0.206366 -1.07996e-19)
(1.01693 0.0049661 2.54116e-23)
(1.09161 -0.0246443 3.98118e-21)
(0.280778 -0.0206324 0)
(0.0279361 -0.0681589 0)
(0.467324 -0.0518768 0)
(0.976969 0.0224507 3.9097e-21)
(0.978176 0.0985736 2.0643e-21)
(1.00217 0.101648 7.6881e-21)
(-0.00171851 -0.0408749 0)
(-0.202386 0.0107839 7.05964e-20)
(1.12913 -0.101785 1.35507e-20)
(0.984646 0.0340499 0)
(0.991844 0.0126957 0)
(0.998057 0.00091055 0)
(0.938744 0.202826 -2.20463e-20)
(0.995782 0.00825899 -2.44446e-21)
(0.858902 -0.0937061 -2.31205e-20)
(1.00041 0.104257 0)
(0.373764 -0.0492696 0)
(0.985071 0.0124076 5.4466e-21)
(0.995701 0.0420299 0)
(1.0057 0.000536048 1.79596e-21)
(0.861901 0.0478795 -2.78825e-20)
(1.0224 0.130033 -1.5121e-21)
(1.11526 -0.0969308 6.27511e-21)
(1.00177 0.0135097 -1.70328e-21)
(1.12823 -0.0409208 0)
(0.943249 0.825943 6.57568e-20)
(1.07859 -0.0142053 -1.80413e-20)
(0.998721 0.0268156 6.55275e-21)
(0.9395 0.0342019 -2.41787e-20)
(1.07606 -0.0202905 -1.69057e-20)
(1.00001 0.000447686 -3.03732e-21)
(1.09831 0.0473197 -8.16913e-21)
(1.10312 -0.00286467 2.27773e-20)
(1.07821 -0.013106 1.63272e-20)
(1.21317 0.171041 8.75986e-20)
(1.01022 0.0538312 2.13101e-22)
(1.01373 0.00833597 0)
(0.990369 -0.00121948 7.72951e-21)
(0.999972 -0.000194697 -2.37886e-21)
(1.11158 0.0939294 4.01919e-20)
(1.06143 0.00214867 0)
(1.12655 -0.0168 -1.77828e-20)
(1.01042 0.0253916 -3.10915e-21)
(1.04481 -0.0032359 0)
(0.394191 0.0648955 -5.82083e-20)
(1.018 0.00153516 -4.65027e-22)
(0.850196 -0.0340652 -1.44488e-20)
(0.959113 0.0146224 0)
(1.18116 0.23485 -1.98631e-20)
(0.92881 0.0124184 3.27495e-20)
(0.331859 -0.0591281 -9.51303e-22)
(1.04481 0.0258948 0)
(-0.0669806 -0.00101297 0)
(0.925552 0.0542696 -1.82642e-20)
(0.934852 0.0243607 1.6e-20)
(0.643302 -0.0473782 1.31247e-20)
(0.351685 0.0573646 6.06056e-20)
(0.926998 0.0938022 -6.45267e-20)
(1.07738 -0.0155517 -5.08369e-22)
(1.05517 0.0439297 -1.54403e-20)
(1.02171 0.0199951 -3.18789e-23)
(0.993012 0.0126323 5.93271e-21)
(1.09737 -0.0392945 1.14902e-20)
(1.13052 0.0886653 1.91855e-20)
(0.965849 0.142833 -7.33136e-21)
(1.0588 0.268519 1.12883e-20)
(-0.0569804 -0.18649 1.33494e-21)
(1.08507 -0.0314447 -8.21141e-21)
(1.00469 0.000522439 2.07861e-21)
(-0.0126333 0.0237258 -9.46781e-20)
(1.17055 -0.13724 1.15123e-20)
(1.052 -0.000623103 2.70636e-21)
(0.992552 0.0128175 -1.28282e-21)
(0.848167 -0.0279422 5.50143e-20)
(0.262918 -0.0793399 -1.23135e-20)
(1.0835 0.0835711 -3.71028e-21)
(1.00001 0.00127861 2.16182e-21)
(0.700044 0.0226972 -2.48235e-21)
(1.20618 0.170736 -7.72301e-20)
(1.12871 0.139904 0)
(0.871446 0.0430369 0)
(0.609725 0.760697 0)
(1.07169 0.00661041 0)
(1.15206 -0.0286486 0)
(0.145982 -0.00765657 0)
(1.10259 -0.0997422 0)
(1.32763 0.127122 0)
(0.824332 0.203846 2.22321e-20)
(1.12898 0.312486 0)
(1.07995 0.0158184 -1.83125e-20)
(1.00142 0.000336956 0)
(1.05278 -0.00111875 -5.60114e-21)
(0.993192 0.0215713 -1.36903e-20)
(0.40722 -0.00174015 -1.35051e-19)
(0.477358 -0.269448 1.60448e-20)
(0.254565 -0.0121397 0)
(0.581285 0.0984478 -4.28207e-20)
(-0.259885 0.00793924 1.07269e-19)
(0.00357742 -0.266358 3.09861e-20)
(0.712995 0.0147231 -2.49216e-21)
(0.983462 0.0714639 6.27484e-21)
(0.212128 -0.00865468 -9.88423e-21)
(0.603897 0.0746999 9.23044e-21)
(1.02262 0.00137077 1.02798e-21)
(0.545604 0.0649313 8.28051e-20)
(-0.032738 -0.0968271 2.2254e-20)
(1.12115 -0.0509634 0)
(0.989222 0.106006 7.03992e-21)
(1.01606 0.00386579 0)
(1.07068 0.00739298 -3.037e-21)
(1.07069 -0.00123042 0)
(1.075 -0.0209374 1.47283e-20)
(1.16896 0.00536496 -3.41333e-20)
(0.999608 0.0204338 0)
(-0.011491 -0.00172881 -4.31351e-22)
(0.992235 0.0661505 0)
(0.966164 0.0764415 0)
(0.012931 -0.0452136 -2.74415e-22)
(1.00856 0.023843 3.21768e-21)
(1.02008 0.135019 -3.5476e-22)
(0.500029 -0.0553507 -2.59882e-21)
(0.998132 0.0140109 6.81422e-21)
(1.04038 0.0438154 1.61918e-21)
(-0.101718 -0.0348586 7.40136e-20)
(1.00947 0.00296373 -2.10457e-21)
(1.12599 -0.0413696 0)
(1.01832 0.00150429 5.20868e-22)
(-0.00980568 -0.255531 5.01486e-20)
(1.07785 -0.0165283 0)
(1.09566 -0.0176897 2.08778e-20)
(0.960206 0.145032 0)
(1.05021 0.0694484 0)
(1.12034 -0.0507757 0)
(0.920642 -0.00527405 -2.18738e-20)
(0.22545 -0.124092 0)
(1.10006 -0.0346892 -2.95037e-20)
(1.0374 -0.000961529 0)
(-0.210226 -0.0127983 7.80134e-20)
(1.09575 -0.0188224 -1.91528e-20)
(0.541489 0.769457 8.69048e-21)
(-0.292255 0.0100006 9.57143e-20)
(1.34365 0.132564 -8.94426e-20)
(1.1234 -0.0962233 -6.37511e-21)
(0.996788 0.02061 -4.69713e-21)
(1.01754 0.00594069 -8.70616e-23)
(-0.0327258 -0.188536 -3.53066e-21)
(0.937228 0.0359312 0)
(1.10075 0.0463344 1.20691e-21)
(1.00001 0.000957906 0)
(1.08134 0.015033 1.84802e-20)
(1.08848 -0.146738 -7.41718e-20)
(0.628655 -0.129695 -1.37335e-20)
(1.11081 0.0976652 -2.86586e-20)
(-0.0711398 -0.00567976 0)
(0.8108 0.219355 0)
(1.01186 0.0684325 0)
(1.01629 0.0041228 1.6494e-22)
(1.00002 0.00117047 -3.96988e-21)
(1.12448 0.0241664 5.57619e-20)
(1.07711 0.255423 0)
(1.02696 0.00817224 0)
(1.05095 0.113036 9.23132e-20)
(0.992374 0.117683 5.6269e-21)
(1.09673 0.141769 1.38119e-20)
(1.01414 0.00010044 0)
(-0.0662746 0.014209 -2.25762e-20)
(-0.0900318 0.023223 2.76393e-20)
(0.991731 0.0220402 -4.67614e-21)
(1.02236 0.00180332 0)
(1.10696 -0.0354516 -1.70247e-20)
(1.00002 0.00086943 0)
(1.01425 0.00901425 5.80287e-22)
(0.0227925 -0.240105 1.38256e-20)
(0.546192 0.0817283 1.05625e-19)
(0.967165 0.0230941 2.90238e-20)
(0.993417 0.0132576 -1.52078e-20)
(1.09212 -0.034139 1.44043e-20)
(1.1268 0.0814208 -1.85099e-20)
(1.06932 -0.0184715 -9.42101e-21)
(0.712357 -0.0755518 -4.0064e-20)
(1.00855 0.0349009 0)
(0.293245 -0.0238696 0)
(1.11496 -0.0123138 3.17413e-20)
(0.982021 0.0308441 0)
(0.430788 0.14081 0)
(-0.0257978 -0.0590012 0)
(1.00334 0.00799626 0)
(0.700241 -0.134618 -1.34783e-20)
(1.01499 0.00524769 4.79725e-22)
(0.99842 0.0137972 -9.03429e-21)
(0.963541 0.0120749 0)
(0.827073 -0.00789265 0)
(-0.0690995 0.0250538 1.05127e-19)
(1.10561 0.0311722 -4.41467e-20)
(0.158849 -0.00995678 0)
(1.01026 0.138842 0)
(0.385196 -0.0630398 -1.33936e-20)
(1.37023 0.210726 -8.86035e-20)
(1.08053 0.0181311 -2.84643e-21)
(-0.278199 0.0065292 -1.16052e-19)
(0.984512 0.0207779 1.01356e-20)
(0.450282 0.0540325 0)
(1.05242 0.000670627 -1.47079e-20)
(0.303706 -0.090782 -1.64187e-20)
(0.217277 -0.0156466 2.73188e-20)
(0.995254 0.0389139 -1.5505e-20)
(0.126474 0.543228 0)
(1.02413 0.0828096 1.22331e-22)
(0.922057 0.0557543 5.63416e-20)
(0.79936 0.0853771 -6.16424e-20)
(0.654297 0.0790252 -5.2775e-20)
(-0.240574 0.0109609 0)
(1.0093 0.00954768 1.22055e-21)
(0.339901 -0.0621813 -6.42034e-21)
(0.98823 0.0113097 0)
(0.235981 -0.114258 7.9727e-21)
(1.04181 0.0041279 3.86354e-21)
(0.996206 0.105181 0)
(1.0758 -0.018662 0)
(1.01107 0.0134042 0)
(1.0139 0.000661522 3.21632e-22)
(1.10524 -0.0220648 3.62943e-20)
(1.10653 -0.133265 5.39612e-20)
(1.1835 -0.055976 0)
(1.0045 0.00606859 -2.96807e-23)
(0.14179 0.138955 -1.62685e-19)
(1.0791 0.0190609 2.07207e-21)
(1.01055 0.0132208 3.27095e-21)
(0.997884 0.00114082 -4.63038e-21)
(0.938681 0.0950693 1.94885e-20)
(1.13434 -0.053151 0)
(0.678312 0.0731335 -3.27311e-20)
(1.10256 0.0311627 1.23804e-20)
(1.0089 0.000479244 -1.48826e-21)
(1.03133 0.0957086 4.07625e-21)
(0.322982 -0.0414735 1.42477e-22)
(0.993448 0.103412 0)
(0.998579 0.0198617 0)
(1.01132 0.013771 1.79902e-21)
(1.03337 0.0980998 -4.16742e-21)
(1.09179 0.0256322 -1.32047e-20)
(0.000184684 -0.00524522 3.1205e-20)
(1.00839 0.022961 -1.49173e-21)
(1.14014 0.45515 0)
(0.891485 0.210459 -1.5785e-20)
(1.21605 -0.134654 -1.10826e-20)
(-0.022502 0.0336452 -1.13081e-19)
(-0.0447618 -0.0795759 5.84999e-20)
(1.01598 0.00289857 6.37558e-24)
(1.09431 -0.0339259 1.97232e-21)
(1.00318 0.0221941 0)
(1.01842 0.0444171 0)
(1.0812 0.0056733 0)
(-0.0391964 -0.112815 0)
(1.00748 0.00536482 -1.69513e-21)
(1.02111 0.0201481 3.29749e-23)
(1.01242 0.000487194 3.03274e-22)
(0.56018 0.05811 6.52181e-20)
(0.958029 0.0462221 2.26885e-20)
(1.038 -0.00129111 0)
(1.0424 0.127229 0)
(1.07983 0.0833289 -1.34463e-20)
(0.298632 -0.0975867 0)
(-0.352735 0.00592336 -6.94754e-20)
(1.00328 0.0108318 4.70454e-21)
(0.987648 0.00505584 0)
(0.250327 -0.0924699 -6.46424e-21)
(0.983382 0.0315628 3.70157e-21)
(-0.0943253 0.00838939 0)
(0.229958 -0.0218397 -4.85746e-21)
(-0.0828226 0.0225777 2.13128e-20)
(0.655813 0.337022 9.78193e-20)
(0.810094 0.43276 3.71043e-20)
(1.00931 -0.0684559 0)
(1.07717 -0.0181036 -1.05331e-21)
(0.999096 0.00137944 -5.88522e-21)
(1.0115 0.0116128 0)
(0.999842 0.03329 1.10869e-20)
(0.969687 0.0213581 -2.92877e-20)
(0.999363 0.00439287 0)
(0.96811 0.0211057 2.33905e-20)
(0.854223 0.0180967 -6.00671e-20)
(-0.0115647 -0.239664 1.24462e-20)
(1.03567 0.0308572 6.31063e-21)
(0.660586 0.170244 1.10035e-19)
(1.0092 0.00362242 0)
(1.01375 0.0678814 0)
(1.10025 0.103931 0)
(0.99995 0.00537824 -2.91211e-21)
(0.964505 0.0786063 5.742e-21)
(1.04126 0.0448893 4.882e-21)
(0.354387 0.00332596 8.20759e-22)
(0.0957865 -0.132827 7.09218e-20)
(1.15908 0.09057 0)
(-0.210923 0.0118841 1.05946e-19)
(0.830407 0.182893 2.28478e-20)
(0.000922187 -0.144191 0)
(1.08001 0.267209 -1.6927e-20)
(0.39374 -0.073452 0)
(-0.0686482 -0.00922855 -1.92222e-20)
(1.11675 -0.0114078 -5.13073e-20)
(0.894914 0.760397 -4.0509e-20)
(1.08295 -0.0317771 8.74924e-21)
(-0.291173 0.00867652 5.98927e-20)
(1.03444 0.00388455 -8.11046e-22)
(0.993127 0.010206 5.54885e-21)
(1.00309 0.00610754 0)
(1.07158 -0.000249837 0)
(0.452229 -0.0534171 -4.20373e-21)
(1.01242 0.0105666 0)
(0.999963 -1.73914e-05 -2.87919e-21)
(1.17015 0.015046 0)
(1.00701 0.00300068 0)
(1.00476 0.197303 2.11125e-21)
(1.00337 0.185057 0)
(1.00016 0.000519722 3.15838e-21)
(1.01748 -0.0599441 0)
(1.03709 0.000252522 2.36686e-21)
(0.987092 0.00464856 0)
(1.09084 -0.0344297 3.69643e-21)
(1.01559 0.0077859 1.02663e-21)
(1.24495 0.0748882 -5.37523e-20)
(0.447752 -0.273331 7.41784e-20)
(0.998502 0.0370703 4.35324e-21)
(1.04877 -0.00466798 4.85148e-21)
(1.01027 0.0128058 -4.58736e-21)
(0.926866 0.266323 2.16008e-21)
(1.00779 0.00589973 2.31482e-21)
(1.04473 0.052229 -2.48943e-21)
(1.33702 0.224559 6.50048e-20)
(0.988499 -0.000403052 -1.73266e-20)
(-0.00810428 -0.0612241 4.11068e-20)
(1.03588 0.0266479 -1.97806e-21)
(0.0350782 -0.0680194 -5.60804e-20)
(1.06108 -0.00737727 4.13941e-21)
(1.09567 -0.0354582 -6.51565e-21)
(0.99849 0.0123332 -3.0591e-22)
(1.09689 -0.035444 -1.0321e-20)
(1.09583 0.103266 -4.86968e-21)
(0.999193 0.00117011 8.93811e-21)
(0.999262 0.0380532 0)
(0.0228869 -0.0621274 6.0461e-20)
(0.9923 0.0137894 0)
(-0.317971 0.00958292 -4.97581e-21)
(-0.322716 0.0117759 0)
(0.979371 0.0495306 1.11029e-20)
(1.00097 0.00027248 3.24545e-21)
(1.00011 0.00565299 0)
(1.01911 0.00351768 1.90855e-22)
(0.0329186 -0.22889 -1.67524e-21)
(0.994012 0.0131404 1.65164e-20)
(0.0836717 -0.0743625 4.67216e-20)
(-0.00805177 -0.214615 -2.61824e-20)
(1.10109 0.133693 9.14391e-21)
(-0.0157526 0.0379367 -2.01462e-19)
(1.0093 0.000632273 6.03046e-23)
(1.00231 0.0194014 -8.93711e-21)
(-0.0565108 0.0221361 -9.80038e-20)
(-0.109994 -0.00539813 0)
(0.922754 -0.00751515 3.49705e-20)
(0.999865 0.00943404 1.89929e-21)
(0.99452 0.0204492 -7.82389e-21)
(1.01201 0.0111588 9.37306e-22)
(1.0505 -0.00765775 0)
(0.857064 0.170033 0)
(0.346858 0.366233 -2.50082e-20)
(1.04557 0.0699719 8.79069e-22)
(0.0872301 -0.140546 4.08522e-20)
(0.116331 0.145544 0)
(0.914003 -0.0356867 0)
(0.854184 0.0610322 -2.856e-20)
(1.03304 0.0168222 5.05785e-21)
(-0.310996 -0.008361 0)
(-0.0310747 -0.0761166 2.02145e-20)
(1.04516 0.125482 5.94658e-21)
(0.998741 0.0120849 -2.16096e-21)
(0.97664 0.0199688 -1.48553e-20)
(-0.00607437 -0.0235336 -4.66124e-20)
(0.995687 0.00782454 1.39491e-21)
(-0.00885791 -0.258173 0)
(0.823513 0.235779 0)
(1.00004 0.000499692 0)
(0.942602 0.0967676 -1.12671e-20)
(1.01525 0.000108197 2.95286e-24)
(1.1009 0.030025 -9.34457e-21)
(1.06405 0.0683014 -4.21551e-21)
(1.00681 0.00283361 0)
(1.01744 0.00163556 1.77963e-22)
(1.04927 -0.00746379 0)
(-0.0658285 -0.0186699 2.89785e-20)
(1.00013 0.000809353 5.929e-21)
(1.09365 -0.036586 4.29551e-22)
(0.0841069 -0.0184333 0)
(0.977359 0.0184799 -1.57096e-20)
(1.00232 0.0147273 0)
(0.821773 0.146616 3.71377e-20)
(-0.033151 -0.145072 6.62989e-24)
(1.09311 0.0120713 -2.56182e-20)
(-0.135186 -0.0333614 3.70506e-20)
(0.958559 -0.00517665 -1.14039e-22)
(1.01912 0.00327944 -2.54833e-22)
(0.938993 -0.00161285 3.25631e-20)
(0.193319 -0.00430679 -3.02234e-21)
(0.407614 0.155206 0)
(0.178625 0.0887311 0)
(1.00868 0.00044543 6.5357e-23)
(0.86553 0.0411819 2.54837e-20)
(1.00131 0.0319288 6.44538e-21)
(-0.165599 -0.0305969 -4.58082e-20)
(1.02322 0.00802695 0)
(1.02848 -0.0612487 0)
(0.849402 0.178893 0)
(0.0388136 -0.2196 0)
(1.00026 0.00113397 0)
(1.00447 0.00197191 -1.12239e-21)
(0.786777 0.438098 -4.33266e-20)
(0.996524 0.0193243 0)
(-0.0863231 -0.0144609 -4.87017e-20)
(1.03904 0.00347537 -8.03836e-21)
(0.181008 0.497669 -1.1867e-19)
(1.00003 0.000429462 3.78146e-21)
(1.01157 0.0102666 2.12533e-21)
(0.931838 0.0213449 0)
(1.11997 0.446625 -7.18289e-21)
(-0.192785 0.0170496 1.20327e-19)
(1.0253 0.0938033 5.80926e-23)
(1.04639 0.0200788 -6.86924e-21)
(0.961736 0.0199515 -2.35684e-20)
(1.03768 -0.000148364 -4.85049e-21)
(1.02713 0.00769172 -1.89509e-21)
(0.99998 2.04558e-06 3.05479e-21)
(1.18713 -0.0026468 5.77953e-20)
(1.00233 0.0468467 2.78339e-22)
(0.415632 -0.0581634 1.83345e-20)
(1.00749 0.0725867 -4.76024e-21)
(-0.133429 0.00940252 -4.31612e-20)
(1.03597 0.00380966 0)
(1.01896 0.00424562 -5.19952e-22)
(1.32459 0.189439 4.43141e-20)
(-0.106326 -0.00525063 1.52007e-19)
(0.777999 -0.140623 2.79015e-20)
(1.0138 0.0502215 0)
(0.310926 -0.085746 -2.40996e-20)
(1.03662 0.00334297 -1.04901e-21)
(-0.0104004 -0.11877 -2.9148e-20)
(0.961885 0.0234964 -2.3119e-20)
(1.23601 0.00966083 0)
(1.01516 0.0190379 1.26092e-21)
(0.0176609 0.0362031 0)
(1.00398 0.0189302 0)