/*--------------------------------*- C++ -*----------------------------------*\
| =========                 |                                                 |
| \\      /  F ield         | OpenFOAM: The Open Source CFD Toolbox           |
|  \\    /   O peration     | Version:  v2012                                 |
|   \\  /    A nd           | Website:  www.openfoam.com                      |
|    \\/     M anipulation  |                                                 |
\*---------------------------------------------------------------------------*/
FoamFile
{
    version     2.0;
    format      ascii;
    class       volScalarField;
    location    "950";
    object      k;
}
// * * * * * * * * * * * * * * * * * * * * * * * * * * * * * * * * * * * * * //

dimensions      [0 2 -2 0 0 0 0];


internalField   nonuniform List<scalar> 
18355
(
0.00275917
0.000136974
0.000237464
0.000140871
0.000148543
0.00365806
0.000146674
0.00016057
0.000151778
0.000506938
0.000159063
0.000202103
0.000203478
0.00292883
0.000142799
0.000135423
0.000140858
0.00015722
0.000232273
0.000152642
0.0365132
0.000148818
0.000136926
0.00277762
0.000137004
0.000149409
0.000146706
0.000140978
0.000152495
0.000160596
0.00834304
0.000174804
0.000137517
0.000134269
0.00014531
0.000148648
0.000159273
0.000148855
0.000161306
0.000149189
0.000151245
0.000159917
0.000134412
0.000136794
0.000136896
0.000228812
0.0001411
0.000140983
0.00633133
0.000144245
0.000142136
0.00140657
0.000144574
0.000231707
0.000143054
0.000152637
0.000145174
0.00188201
0.000149585
0.00946521
0.000134361
0.000194781
0.000229153
0.000145358
0.000184783
0.000140235
0.000153461
0.000159334
0.00013404
0.000117633
0.000142227
0.000143087
0.00016868
0.000159958
0.00369654
0.00013419
0.0024654
0.000134291
0.00014198
0.00368845
0.000153381
0.00260821
0.00013414
0.000154965
0.000178488
0.00014899
0.000153574
0.00017079
0.000140563
0.000170852
0.000625102
0.0184415
0.00202902
0.000144208
0.00501174
0.000147478
0.000140092
0.000145172
0.000195268
0.000148545
0.000176346
0.000141608
0.000143926
0.000130563
0.000153739
0.000135542
0.000184094
0.00507042
0.000165045
0.000134999
0.00014205
0.00014706
0.000164705
0.000154525
0.000244285
0.000158357
0.000141382
0.00428853
0.000151813
0.000153138
0.000322016
0.000237273
0.000475631
0.000176093
0.00422187
0.000238611
0.000146816
0.000141213
0.00473151
0.000147439
0.000140175
0.00197297
0.000143512
0.00019575
0.000216063
0.000140582
0.000234601
0.00254143
0.000142393
0.0293463
0.000156051
0.000240015
0.000140911
0.00140188
0.000216511
0.000146555
0.00718383
0.000131363
0.000164603
0.00238392
0.0001409
0.000152963
0.000145131
0.000178354
0.000134517
0.00013825
0.000141388
0.000148916
0.000140986
0.000139273
0.000157799
0.000143635
0.000135064
0.000198521
0.000160489
0.000466295
0.0108595
0.0299071
0.0276738
0.000156018
0.000146226
0.000193276
0.00014798
0.00430255
0.000145829
0.000150611
0.000146348
0.000130242
0.000151053
0.000159366
0.000149192
0.000398353
0.000148241
0.000141243
0.000344807
0.000143873
0.000149772
0.000169587
0.000143279
0.000147082
0.000231285
0.000194801
0.000137249
0.000134948
0.000143809
0.000249457
0.000139372
0.0326793
0.000137068
0.00189105
0.00014364
0.000154917
0.000162127
0.000148914
0.024383
0.00014668
0.0299482
0.000141209
0.000136987
0.00014443
0.000146906
0.000295446
0.000151886
0.000148658
0.000131548
0.00318242
0.000159356
0.000156176
0.000146886
0.000141243
0.000163809
0.000134071
0.000168939
0.000182342
0.000221994
0.000158485
0.000134295
0.00275781
0.000359017
0.000164522
0.000145621
0.000153789
0.000860239
0.000134242
0.000198709
0.000213378
0.000148897
0.000233715
0.000155305
0.000148777
0.000137289
0.000150804
0.000146643
0.000163031
0.000146688
0.000143054
0.000140905
0.000272069
0.000585699
0.000142969
0.000147508
0.000445213
0.000217873
0.000185191
0.00013027
0.000227486
0.000155292
0.000147481
0.000158184
0.000139681
0.00206599
0.00103107
0.00019138
0.000161888
0.000162968
0.000194649
0.000204651
0.000199074
0.000139626
0.000143093
0.000147628
0.000135054
0.000154984
0.000156456
0.000140635
0.000146847
0.00017231
0.000140429
0.000199671
0.00430251
0.000168474
0.000147138
0.000159492
0.000134938
0.000171629
0.000146057
0.000160195
0.000148654
0.000159566
0.00344962
0.000137244
0.00017597
0.000151465
0.000158925
0.000206966
0.000145128
0.000134743
0.000196267
0.000146856
0.000255826
0.000159357
0.00961207
0.000172708
0.000192212
0.000156016
0.000175022
0.000143917
0.000153821
0.000161306
0.000175988
0.000551501
0.000261435
0.000142106
0.00015526
0.000220932
0.000160292
0.000142038
0.00014093
0.000140919
0.000177422
0.000259174
0.000327431
0.000461405
0.000171135
0.000155581
0.000491771
0.000131251
0.00014646
0.000155504
0.000144061
0.000164587
0.00014459
0.00134173
0.000135836
0.00482199
0.000143503
0.000148926
0.000157146
0.000208671
0.0360493
0.000163155
0.000411554
0.000149064
0.000140685
0.000143951
0.000161338
0.000637539
0.000140924
0.000145363
0.000600608
0.000148686
0.000141043
0.000216047
0.000159071
0.000140912
0.000144961
0.000161068
0.000151918
0.000160806
0.000135434
0.000145299
0.000148359
0.00381088
0.00048157
0.000135145
0.000140724
0.000193405
0.000140983
0.000147502
0.000508073
0.000551583
0.00017664
0.000143803
0.000149098
0.000204551
0.000148579
0.000238223
0.000153967
0.000136494
0.000185538
0.000186429
0.000147912
0.000144158
0.000157269
0.000146278
0.000155135
0.000143756
0.000195656
0.000146725
0.000152552
0.000142649
0.000140967
0.000154382
0.000149195
0.000187608
0.00152971
0.000672501
0.000153907
0.000217946
0.000186261
0.00014372
0.000144196
0.000173811
0.000143291
0.000177916
0.000146027
0.000164013
0.000599841
0.000266413
0.0360372
0.000194035
0.000130711
0.000532255
0.000148528
0.00014057
0.0366016
0.000143062
0.000174935
0.000137281
0.000190435
0.000143029
0.00019194
0.00443022
0.00018845
0.000144246
0.000137436
0.000189784
0.000151785
0.000143271
0.000395471
0.000504461
0.000140514
0.000174361
0.000187935
0.000137359
0.000150299
0.000161735
0.000474703
0.000171943
0.000148722
0.000144222
0.00016968
0.000144537
0.000135969
0.000144254
0.000234668
0.00185608
0.000136285
0.000150985
0.000145164
0.000210378
0.000190193
0.000134891
0.000175621
0.000169632
0.000145185
0.000249925
0.00019499
0.000148435
0.000145998
0.000170732
0.000210743
0.00446614
0.000136054
0.0349872
0.000142895
0.000136253
0.000174891
0.000152067
0.000198431
0.000168554
0.000152838
0.000161323
0.000148838
0.000215545
0.000152133
0.000160386
0.000148868
0.000135817
0.000147716
0.000136004
0.000195256
0.00080815
0.000189693
0.000158408
0.000147544
0.000148896
0.000145855
0.000156038
0.000146259
0.000135503
0.000143705
0.000171969
0.000137396
0.000146169
0.0362342
0.0311624
0.000223459
0.000147269
0.0001505
0.000161919
0.000148664
0.00191519
0.000248883
0.000154119
0.000154964
0.000161868
0.000150062
0.000153475
0.0429466
0.000164073
0.000147911
0.00381988
0.000147032
0.0354697
0.000532541
0.00015602
0.00015007
0.044777
0.000140698
0.000190488
0.000175848
0.00602873
0.000152186
0.000147573
0.00014505
0.00356822
0.00335628
0.00563985
0.00413494
0.00015545
0.000144913
0.000155004
0.000143108
0.000153523
0.0338057
0.00173351
0.00115993
0.000286301
0.000166337
0.000172282
0.000166679
0.000141155
0.000142275
0.000169648
0.000157577
0.000146255
0.00014306
0.00561824
0.000140006
0.000291996
0.00015825
0.000194883
0.000206284
0.000142332
0.000154513
0.013771
0.00014366
0.00157814
0.000143494
0.00117811
0.000164011
0.000149227
0.000166575
0.000198053
0.0001954
0.000149768
0.000134089
0.000168161
0.000156373
0.000195224
0.00014348
0.000194694
0.000139947
0.000247652
0.000146602
0.000143431
0.000229171
0.000168513
0.000207748
0.000144765
0.000155428
0.000155978
0.0008222
0.000326281
0.000154728
0.000201023
0.000145336
0.000159059
0.000148161
0.000154388
0.037569
0.000136737
0.000607178
0.000146953
0.000145768
0.000154627
0.0016607
0.000152154
0.000203398
0.000149604
0.000168224
0.00492038
0.000131384
0.000140963
0.0216379
0.00016964
0.0360846
0.000169289
0.000148316
0.000143072
0.00014262
0.000159835
0.00014959
0.000136511
0.000255622
0.00615069
0.000143219
0.00049239
0.000447432
0.000157343
0.000235573
0.000136177
0.00097933
0.00616119
0.000132427
0.00519244
0.000171897
0.000291053
0.000558459
0.000143747
0.000142637
0.000147901
0.000425787
0.000176748
0.000144623
0.000148788
0.000252803
0.000148272
0.000172893
0.000143308
0.000170133
0.000440892
0.00327391
0.000261005
0.00277159
0.000171183
0.00137488
0.000154969
0.000140623
0.00015715
0.000370509
0.00017806
0.000174766
0.000144423
0.000293309
0.000145345
0.000148562
0.000389638
0.000148659
0.000157698
0.000202765
0.000196639
0.000144651
0.000142843
0.000154434
0.000155921
0.000134116
0.00014746
0.000168852
0.000237586
0.000152462
0.000145341
0.000173943
0.00463528
0.000143765
0.00254764
0.00024925
0.000145073
0.0262908
0.000134673
0.000239231
0.000143598
0.000137891
0.000228518
0.000152614
0.000486886
0.00015218
0.000142859
0.0240973
0.000143569
0.000134832
0.000145725
0.000140719
0.000158289
0.000169027
0.035336
0.000151499
0.00211768
0.000153842
0.00259518
0.00291173
0.000150362
0.000143909
0.000155413
0.000136524
0.000203634
0.000142541
0.000134714
0.000135754
0.000144436
0.000143575
0.000242991
0.000159206
0.000177736
0.000152962
0.00015528
0.000156794
0.000162289
0.00128583
0.000137346
0.000194707
0.000176155
0.000134474
0.00135695
0.000434624
0.00014176
0.00216649
0.000145354
0.00103351
0.000168075
0.000132256
0.000168563
0.000156612
0.00240094
0.000142535
0.000154581
0.00423596
0.000208797
0.000234952
0.000143539
0.00147725
0.000189752
0.000393818
0.000143487
0.000151689
0.000143294
0.000146139
0.000141916
0.000144726
0.000136735
0.00241977
0.000168511
0.000141175
0.000134211
0.000140466
0.000148555
0.000203994
0.000189459
0.000137228
0.000155973
0.000147038
0.000147296
0.000146258
0.000140824
0.000197294
0.000134246
0.000140297
0.000149405
0.000147069
0.000154191
0.000146849
0.00023859
0.0107663
0.000154917
0.000140149
0.000209124
0.000134612
0.000134299
0.000146653
0.000229817
0.000157894
0.000145356
0.00013599
0.000137141
0.000160626
0.000133982
0.000163489
0.00014244
0.000148099
0.000141833
0.000151497
0.000642697
0.000140575
0.000148558
0.00014349
0.000239769
0.005705
0.000158958
0.000149607
0.00018519
0.000159619
0.000197221
0.0361168
0.000149161
0.00589829
0.000148653
0.000267773
0.000148637
0.000136727
0.000135912
0.00522572
0.000135502
0.000159287
0.000196489
0.000219411
0.000171437
0.000154208
0.000142453
0.000143415
0.000143584
0.00016091
0.000206661
0.00187639
0.00017705
0.00014548
0.000134022
0.000155478
0.000141781
0.000140774
0.000148163
0.000177848
0.000164489
0.000624955
0.000145407
0.000144394
0.000168946
0.000143117
0.000211196
0.000177484
0.000172765
0.000213785
0.00907234
0.000166033
0.000141146
0.000134085
0.000147384
0.000142948
0.000228493
0.000176745
0.000202638
0.000136863
0.000146892
0.000154494
0.000141037
0.0341322
0.000297523
0.00013434
0.000135796
0.000143039
0.000141944
0.000141003
0.000144951
0.000232443
0.000134954
0.000148092
0.000136923
0.000137917
0.000142035
0.000145922
0.000163136
0.000137874
0.000168836
0.000135982
0.000459003
0.000234621
0.000157138
0.000283386
0.00015433
0.000148539
0.000189574
0.000680525
0.000144543
0.000140217
0.000137035
0.000177884
0.000150634
0.00016624
0.000313721
0.000146428
0.000148264
0.000144707
0.000270353
0.000346097
0.000151565
0.000139564
0.000158589
0.000172645
0.000142344
0.000195237
0.000140302
0.000133999
0.000155148
0.00739024
0.00457831
0.000645821
0.000232531
0.000134782
0.000221088
0.000196506
0.000160339
0.00014353
0.000197185
0.000153996
0.000251398
0.00905886
0.00014204
0.000134842
0.000144743
0.000148525
0.000134994
0.000296069
0.000464716
0.000134532
0.000146688
0.000149216
0.000170082
0.000144062
0.000142084
0.000198428
0.000147734
0.000142139
0.00065912
0.000203136
0.000197562
0.00014277
0.000135905
0.000134728
0.000145125
0.000162454
0.000183567
0.00014065
0.000139073
0.000153372
0.00230878
0.00013705
0.00014395
0.000193935
0.000141093
0.0001392
0.000143538
0.0167742
0.000135694
0.000144489
0.000137114
0.000155655
0.000135734
0.000157256
0.000213331
0.000143982
0.000237312
0.000161823
0.000224193
0.000185717
0.000140803
0.00016201
0.00014046
0.000139062
0.000140817
0.00215894
0.00403981
0.000202821
0.000159466
0.0024278
0.000190575
0.000149221
0.000205234
0.00020594
0.000155349
0.000135466
0.000491648
0.000149854
0.00014066
0.000138002
0.000250573
0.00777029
0.0319361
0.000138866
0.000197826
0.00622074
0.000165494
0.000170816
0.000154904
0.000154537
0.00016708
0.000861626
0.00015373
0.000149999
0.000157598
0.000739813
0.000241567
0.00014396
0.000146634
0.000143663
0.00028213
0.000156574
0.000149514
0.00225214
0.000157258
0.000171636
0.0001549
0.00251718
0.000138569
0.000267938
0.000149446
0.000135747
0.000141224
0.000135814
0.000135785
0.000140873
0.000147923
0.000246741
0.000138118
0.000273043
0.000158693
0.000147344
0.000141062
0.000201954
0.000143324
0.000146791
0.000155424
0.0109055
0.000200534
0.000152541
0.000146263
0.000288799
0.000138536
0.000174695
0.000146048
0.0264809
0.000171523
0.00466866
0.000157286
0.000143276
0.000230793
0.000484385
0.00032298
0.000137725
0.000143471
0.000169607
0.0359297
0.000130929
0.000180312
0.000140966
0.000162253
0.00014049
0.000134929
0.000148639
0.000149628
0.000135101
0.00017166
0.00016637
0.000156308
0.000209801
0.000501229
0.000149906
0.000459043
0.000136164
0.000202561
0.000285771
0.000220636
0.000134683
0.00014951
0.000145839
0.00565247
0.00014473
0.000140583
0.000197215
0.000146411
0.000146058
0.000151177
0.000149252
0.00014293
0.000523521
0.00504145
0.000188069
0.000139159
0.000145274
0.000281851
0.000136224
0.000460398
0.000147547
0.000145632
0.000148979
0.000154574
0.000225537
0.00014027
0.000145073
0.0304008
0.000147194
0.000148169
0.000169658
0.000290251
0.00085683
0.000144373
0.000143305
0.0259201
0.000344642
0.0107491
0.000141632
0.000166738
0.000221455
0.000137538
0.000194683
0.000153718
0.00227897
0.00015355
0.000146042
0.000148897
0.000135664
0.000307453
0.000144947
0.000139081
0.00466039
0.000190529
0.000355038
0.00013529
0.000151287
0.000135415
0.000131967
0.000135962
0.000150559
0.000146613
0.00014879
0.000135684
0.000148147
0.000179299
0.000164106
0.000162335
0.000139974
0.000156209
0.000141876
0.00334418
0.000147816
0.000148309
0.00014779
0.000135915
0.000148527
0.000145555
0.000144203
0.000143415
0.000141069
0.000135998
0.00344982
0.00169367
0.000144868
0.000304426
0.000168502
0.000149179
0.000147534
0.000149825
0.00297024
0.000148279
0.000136129
0.000134484
0.000134711
0.0239283
0.000144502
0.000136739
0.000244335
0.00013415
0.000133292
0.000167477
0.000170711
0.000205347
0.000214444
0.0293306
0.000135823
0.0108853
0.000156676
0.000143181
0.000136789
0.000161183
0.000143088
0.000161649
0.000186985
0.000154642
0.000151043
0.000386724
0.000231823
0.0361224
0.000269776
0.00262267
0.00021387
0.000139276
0.000250181
0.0191268
0.000134946
0.00933375
0.000138844
0.000150371
0.000207362
0.000140577
0.000385271
0.000155687
0.000151778
0.000148619
0.000210504
0.000143815
0.000267103
0.000142831
0.000136214
0.00256786
0.000133578
0.000148235
0.000148356
0.000183431
0.00014226
0.000144054
0.000152084
0.000704388
0.000144497
0.000144433
0.000136786
0.000153825
0.000142401
0.000150354
0.000407259
0.000141472
0.000157803
0.000147763
0.000153511
0.000158491
0.000140403
0.000148677
0.000199874
0.000147288
0.000147432
0.000156253
0.00319065
0.000148902
0.000141783
0.000143984
0.000162345
0.000204126
0.000151605
0.000140951
0.000141384
0.00013776
0.000131818
0.000135454
0.000158592
0.000194849
0.000184607
0.000146592
0.00272608
0.000139676
0.000148546
0.036781
0.000175266
0.000134189
0.000197709
0.000151255
0.000140934
0.00107244
0.000148927
0.000174251
0.000132638
0.000218528
0.00013954
0.000134743
0.000136017
0.000369825
0.000223465
0.000147033
0.0012751
0.000135809
0.000142436
0.000139019
0.00020681
0.000145531
0.000138445
0.000151339
0.000151461
0.000142914
0.000145675
0.000140323
0.000148399
0.000146703
0.00014036
0.000156
0.000135304
0.00555194
0.000189554
0.000136465
0.000582243
0.000157762
0.000140768
0.000139862
0.000150985
0.000140859
0.000161972
0.000155766
0.000228315
0.000229467
0.000148062
0.000189706
0.000219424
0.00014309
0.00014709
0.000198086
0.000155074
0.00300842
0.000135602
0.000143606
0.000151802
0.000148457
0.000142764
0.00015743
0.000140464
0.000151296
0.000143991
0.000154354
0.000139762
0.000200915
0.000144763
0.0001545
0.000189094
0.000143074
0.00303621
0.00447462
0.000155952
0.000162481
0.000160281
0.000134409
0.000182085
0.000145465
0.000167515
0.00253748
0.00240652
0.000198527
0.000153715
0.000164089
0.000142713
0.000162421
0.000138894
0.000287674
0.000189374
0.000147465
0.000140525
0.00036966
0.000167225
0.00014281
0.000143262
0.000271852
0.000147654
0.000138363
0.0148398
0.000181101
0.000134834
0.000511713
0.000136108
0.000211824
0.000183187
0.000142948
0.00014432
0.000156431
0.0273347
0.000140061
0.000157517
0.00014431
0.000142966
0.000139846
0.000896482
0.000148305
0.000145611
0.000143579
0.000289355
0.000157953
0.000140232
0.000133094
0.000203729
0.000142248
0.0001369
0.00191838
0.00991933
0.000148649
0.000239489
0.000156437
0.000177352
0.000150648
0.000185666
0.0042382
0.000147766
0.000142855
0.00013706
0.000154628
0.000142849
0.00250849
0.000304385
0.000137464
0.000148749
0.000136408
0.000135614
0.000405118
0.00014294
0.000151901
0.000151508
0.000202627
0.000144539
0.000147624
0.000155788
0.0046596
0.000146426
0.000145664
0.000137369
0.000138361
0.00015419
0.000175045
0.000147236
0.000142174
0.000145038
0.000143774
0.000137117
0.00053788
0.000148323
0.000143174
0.000141897
0.000185312
0.000136546
0.000136917
0.000169072
0.000142412
0.000188267
0.00014415
0.000144462
0.00032759
0.0480349
0.0323557
0.000198558
0.000157093
0.000147857
0.000369605
0.000139645
0.000155807
0.000135229
0.0154367
0.000130401
0.000154433
0.000144636
0.00099005
0.000169434
0.000205844
0.000330603
0.000149492
0.000183964
0.000147755
0.000149477
0.000494378
0.000168032
0.000142135
0.000136056
0.000153445
0.00016511
0.000144009
0.000145021
0.000139608
0.000135041
0.000237213
0.00356631
0.000147788
0.000151974
0.000351057
0.00646114
0.000154244
0.000150038
0.000152311
0.000154904
0.000142338
0.000150211
0.000250535
0.000140274
0.0001363
0.00014604
0.000290495
0.000267304
0.00015669
0.000146609
0.000146751
0.000157667
0.000143614
0.000156206
0.000173724
0.000133212
0.000155937
0.00188795
0.000134642
0.000142838
0.000148258
0.000135471
0.000146982
0.000140114
0.000233788
0.000140886
0.00346103
0.000145152
0.000139051
0.000137594
0.000207938
0.00015093
0.000175272
0.000187026
0.000136232
0.000336287
0.000162798
0.000138052
0.000133561
0.00380601
0.000252424
0.000133816
0.000140381
0.000140751
0.000149987
0.000222413
0.000186543
0.000151853
0.00014852
0.000211781
0.000335194
0.000149121
0.000142622
0.00026382
0.000153905
0.000521458
0.000154718
0.000142403
0.000187129
0.000189377
0.0486466
0.000197574
0.00347177
0.00013691
0.000142451
0.000149001
0.000146517
0.000153692
0.000147616
0.000146109
0.000139524
0.000148449
0.000147168
0.000145835
0.000145456
0.000151837
0.000149033
0.000143552
0.000141554
0.000181328
0.000167842
0.000140355
0.000145286
0.000235012
0.000145063
0.000148207
0.000148427
0.000835294
0.000136934
0.000171238
0.000151551
0.000135946
0.000143288
0.000305385
0.00019027
0.00014878
0.000147983
0.000153279
0.000171694
0.000140063
0.000158482
0.000174968
0.000141208
0.000208199
0.000140768
0.000143174
0.000142994
0.00014776
0.000161751
0.000227842
0.0251809
0.0001851
0.000136188
0.000144935
0.000143574
0.000198001
0.000148835
0.00228455
0.000139786
0.000143787
0.000143462
0.000192564
0.00014284
0.000146463
0.00014419
0.000214953
0.00013701
0.0338166
0.000137024
0.00016499
0.000144469
0.000162286
0.000140756
0.000153457
0.00364072
0.000214717
0.000136218
0.000186959
0.000145283
0.00014658
0.00477311
0.00350482
0.000136207
0.000142716
0.000155349
0.000135935
0.000143578
0.000148364
0.00014751
0.000158733
0.00018056
0.000149758
0.000158299
0.000206257
0.00014713
0.000140783
0.000142114
0.000156177
0.000161573
0.00014411
0.0387454
0.000140325
0.000357823
0.000169435
0.00013654
0.000140356
0.000140089
0.00023733
0.000145665
0.000155703
0.00014651
0.000140898
0.00337287
0.000152345
0.00017416
0.000147179
0.000145436
0.000151373
0.000143311
0.000152424
0.000143416
0.00015299
0.00014905
0.000148936
0.00452234
0.000165164
0.00402576
0.000140865
0.000169475
0.000149724
0.00602465
0.000191544
0.0132765
0.000152151
0.000134936
0.000173061
0.0001426
0.00500776
0.000149561
0.00020939
0.000150869
0.000308979
0.0359503
0.000152948
0.000173711
0.000139347
0.000137489
0.000148491
0.000134732
0.000147765
0.000152134
0.000139471
0.000158941
0.000168865
0.00570837
0.000140748
0.000285435
0.000134562
0.000142445
0.000143863
0.000198183
0.000146851
0.000300661
0.000148143
0.000143236
0.000336673
0.000140246
0.000155031
0.000142226
0.000155109
0.0144029
0.000162109
0.000599492
0.000144908
0.000190219
0.000152074
0.000141757
0.000143743
0.00018295
0.000165287
0.000143041
0.00015147
0.000143127
0.0039147
0.00013907
0.00223674
0.000255927
0.000193579
0.000155601
0.000250127
0.000170474
0.000134728
0.000649546
0.000142395
0.000267379
0.00014862
0.000151291
0.0040498
0.00343864
0.000157871
0.000311225
0.000143542
0.00605867
0.000131119
0.0351153
0.000135113
0.000152032
0.000205016
0.000146017
0.000139079
0.000149104
0.000144345
0.000181323
0.00273453
0.000166701
0.00229949
0.000141338
0.000639482
0.000144375
0.000147543
0.000143255
0.000145039
0.0051387
0.0001474
0.000138062
0.000168982
0.000148091
0.00406668
0.000200557
0.000142918
0.000176084
0.000168484
0.000140528
0.000144739
0.00015414
0.000136624
0.000182116
0.000160798
0.000152602
0.000153534
0.000137171
0.000146148
0.000184083
0.000149499
0.000144877
0.000150044
0.000134907
0.000135722
0.0365948
0.000158069
0.000671391
0.000159291
0.000180284
0.00016335
0.000142067
0.00016236
0.000138835
0.000140726
0.000303722
0.000165292
0.00015913
0.000179895
0.000148978
0.000237113
0.0301835
0.000143193
0.00016
0.000201965
0.00046574
0.000136468
0.00013813
0.000147243
0.000176124
0.00255518
0.000163578
0.000153813
0.000148743
0.000142044
0.000135248
0.000579946
0.00015597
0.000152537
0.0050025
0.000146776
0.000152011
0.000155534
0.000145002
0.000142781
0.000142753
0.000180209
0.000214847
0.000148961
0.000154439
0.000250687
0.000142326
0.000149363
0.000153055
0.00014666
0.00431034
0.00677911
0.000472461
0.000206228
0.000516618
0.00015081
0.000139831
0.000291276
0.000152318
0.000158023
0.000142986
0.000135309
0.00431111
0.000287105
0.000141404
0.000139495
0.000158913
0.000500595
0.000156233
0.000135075
0.000484452
0.000151946
0.000169636
0.000134888
0.00016385
0.000131068
0.000152987
0.000156917
0.00014205
0.0192744
0.000148952
0.000170124
0.000214436
0.00589355
0.000206223
0.000142204
0.000186216
0.000155114
0.000161047
0.000150144
0.00015002
0.000145234
0.000150544
0.00031982
0.000151681
0.000265929
0.000139899
0.000219383
0.000135961
0.000148647
0.000258699
0.000155411
0.000218699
0.000158648
0.000149424
0.0340815
0.000474424
0.000140068
0.000322385
0.000166392
0.000138835
0.000134071
0.0284264
0.000318698
0.000138791
0.00013621
0.000143797
0.000136796
0.000361504
0.000264453
0.000130224
0.000133329
0.000139981
0.000233538
0.000176638
0.0032779
0.000135769
0.000260968
0.000147327
0.000189647
0.000610122
0.000164546
0.000139347
0.000139914
0.00334822
0.000136692
0.000141218
0.000136542
0.00016504
0.000153271
0.0279978
0.000158945
0.000148399
0.000142396
0.000158387
0.000222461
0.000178785
0.000141707
0.000142024
0.000218985
0.000179291
0.000148467
0.00105246
0.000163972
0.000152192
0.000375155
0.000151482
0.000156505
0.000148229
0.000697689
0.000145235
0.000148358
0.0241596
0.000159994
0.000141149
0.000143289
0.000131112
0.00017957
0.000216845
0.000141003
0.000136084
0.000150148
0.000185504
0.00015559
0.000135094
0.000142772
0.000139155
0.000152774
0.000173533
0.000145444
0.000142337
0.000989259
0.000142004
0.000448898
0.000163551
0.000164637
0.000155392
0.000149951
0.000145022
0.000304769
0.000204879
0.000188281
0.0215207
0.000162715
0.000140133
0.000291959
0.000136204
0.00019008
0.000332374
0.000153317
0.000141813
0.000153731
0.000192201
0.000142734
0.000142715
0.000330911
0.00014284
0.000155527
0.000140728
0.000147624
0.000137292
0.000194714
0.000204027
0.000135962
0.00014104
0.000463752
0.00014264
0.000136707
0.000140826
0.000140585
0.0346941
0.00016704
0.000152344
0.000153412
0.000148973
0.000137509
0.000183237
0.000197139
0.000158465
0.000251537
0.000157562
0.000153384
0.0224729
0.000140127
0.000136249
0.000143278
0.000140457
0.00014838
0.000132833
0.000149789
0.000328872
0.000144694
0.000141815
0.000156242
0.000140529
0.00265046
0.000147433
0.000555827
0.000231242
0.000188233
0.000162692
0.000414194
0.000158891
0.000143086
0.000154668
0.00014045
0.000151367
0.000146308
0.000148598
0.000290238
0.000135878
0.000143721
0.000175201
0.00026211
0.000147605
0.000139785
0.000222352
0.000150131
0.000198974
0.000143011
0.000139919
0.000144149
0.0344623
0.000145956
0.000260039
0.000182507
0.000154802
0.000139696
0.000143241
0.000161904
0.00188099
0.000135997
0.000174998
0.000141808
0.000538002
0.000233394
0.000150071
0.000217952
0.000146097
0.000152442
0.000156206
0.000249145
0.000169543
0.000161436
0.000163862
0.00415514
0.000148047
0.000178422
0.000144573
0.000148097
0.000218619
0.000235351
0.000142313
0.00016079
0.00613293
0.00254327
0.000153217
0.000153891
0.00599746
0.00554146
0.00014028
0.000180967
0.000143275
0.000154535
0.000146258
0.000152797
0.000152022
0.000308627
0.000147788
0.000148079
0.000184878
0.00415545
0.00026741
0.000210774
0.000291603
0.000139812
0.00602769
0.000188125
0.000142201
0.000141788
0.00429653
0.000156957
0.00014514
0.000142577
0.000172582
0.000138627
0.000142784
0.00679791
0.000145428
0.000147966
0.000141086
0.000143849
0.000150965
0.000139058
0.000430341
0.00018885
0.000154059
0.000139094
0.00016218
0.000309498
0.000141972
0.000147114
0.00406785
0.000230099
0.00014343
0.000154629
0.000138704
0.000140381
0.000221735
0.000220055
0.000140419
0.000143271
0.00576301
0.00389753
0.000497013
0.000195259
0.000150171
0.000671012
0.000140772
0.000155765
0.000154279
0.000139487
0.000199272
0.000469542
0.000171403
0.000193406
0.0332714
0.000134102
0.000133305
0.00015286
0.000167406
0.000436121
0.000136473
0.000167481
0.0110869
0.000424952
0.000147006
0.000150786
0.000248577
0.00014275
0.000153758
0.00403452
0.000140828
0.000142563
0.000139252
0.000236866
0.00014148
0.000164867
0.000149106
0.000186108
0.000160514
0.00612725
0.00014313
0.000142235
0.000167778
0.000148269
0.000158307
0.000149975
0.000202843
0.000206492
0.000140763
0.000144426
0.0217777
0.000278849
0.00044187
0.000139063
0.000143345
0.000155291
0.000145282
0.000143079
0.000144045
0.000145525
0.000148531
0.000139617
0.000139619
0.000186784
0.000155352
0.000166528
0.00132599
0.000189721
0.000179259
0.000155919
0.000194817
0.000237989
0.000163052
0.000156324
0.00015723
0.000141689
0.00237797
0.000135991
0.000135778
0.000140347
0.00545599
0.000141956
0.00536465
0.000148456
0.000134886
0.000175418
0.00014296
0.000142311
0.000142907
0.000176071
0.000295697
0.000147452
0.000139481
0.000151283
0.00997318
0.000178674
0.00442887
0.000142984
0.000179591
0.000146333
0.000145682
0.000136216
0.000138873
0.000143353
0.000151186
0.00166834
0.000151528
0.000151772
0.000209761
0.000381087
0.000208363
0.000141643
0.000206263
0.000165302
0.0054569
0.000137902
0.000142577
0.000160801
0.00345422
0.000132446
0.00014462
0.000138822
0.000136604
0.000208727
0.000152901
0.000191145
0.000144874
0.000132236
0.000188414
0.000144021
0.0047516
0.00014414
0.000168984
0.000147928
0.000158809
0.000149227
0.000187188
0.00475888
0.00014247
0.000178807
0.0220112
0.000141685
0.000146631
0.000173473
0.000131998
0.000379398
0.00019384
0.000142729
0.000184777
0.000134381
0.000146452
0.000147935
0.000141826
0.000136495
0.000149655
0.000140727
0.000138757
0.000145217
0.000148298
0.000178657
0.000136259
0.000225545
0.000138312
0.000140394
0.00015992
0.000179039
0.000149428
0.000132131
0.000142447
0.000153825
0.000177444
0.0310782
0.000165706
0.000148816
0.000148855
0.000139443
0.000162524
0.000140678
0.000152471
0.00142515
0.000232771
0.000176117
0.00014137
0.000147686
0.000149635
0.000132268
0.000190299
0.000134761
0.000256994
0.000149023
0.000238333
0.000158203
0.00168486
0.000147148
0.000191636
0.032271
0.00394581
0.00324563
0.000155826
0.00405
0.000275183
0.000148496
0.000166915
0.000349575
0.000138881
0.000139011
0.000143836
0.000154124
0.000297794
0.000145928
0.00015523
0.00129207
0.000130247
0.000144604
0.000260928
0.00190686
0.000196534
0.00384454
0.0048868
0.000149652
0.000189979
0.000155414
0.000156478
0.000313206
0.000154279
0.0325391
0.000208956
0.000153664
0.000145701
0.000152501
0.000165992
0.000139565
0.0341825
0.000132346
0.000142822
0.000143255
0.00289453
0.026456
0.000218186
0.000145142
0.000151601
0.000138851
0.000364033
0.000143336
0.00014816
0.00015319
0.000242342
0.00013861
0.000195331
0.000587626
0.00113437
0.000148307
0.000332018
0.000139771
0.0071526
0.000132715
0.000273738
0.000151269
0.000185151
0.000163013
0.000494137
0.000225241
0.000151858
0.00015139
0.000204185
0.000153881
0.00014188
0.000138687
0.000157638
0.000148399
0.00193741
0.0001316
0.000142961
0.000144224
0.000143783
0.000542634
0.00013924
0.000134571
0.000146331
0.00051626
0.000163938
0.000183398
0.000151598
0.000150874
0.000198968
0.000139982
0.000143132
0.000195469
0.000175245
0.000134588
0.000167553
0.000151941
0.00397958
0.00014268
0.000209736
0.000150945
0.000143215
0.000135285
0.000134901
0.000142325
0.000141346
0.0296479
0.000190345
0.000146915
0.000143059
0.000142318
0.000152831
0.000158781
0.000311861
0.000146203
0.000195377
0.000165229
0.00559426
0.000147783
0.000176745
0.000143004
0.000142703
0.000160883
0.000142575
0.000145708
0.000140678
0.000135922
0.000384879
0.000143544
0.000139176
0.000204266
0.00425168
0.000214422
0.000148143
0.000134839
0.000154016