/*--------------------------------*- C++ -*----------------------------------*\
| =========                 |                                                 |
| \\      /  F ield         | OpenFOAM: The Open Source CFD Toolbox           |
|  \\    /   O peration     | Version:  v2012                                 |
|   \\  /    A nd           | Website:  www.openfoam.com                      |
|    \\/     M anipulation  |                                                 |
\*---------------------------------------------------------------------------*/
FoamFile
{
    version     2.0;
    format      ascii;
    class       surfaceScalarField;
    location    "950";
    object      meshPhiCN_0;
}
// * * * * * * * * * * * * * * * * * * * * * * * * * * * * * * * * * * * * * //

dimensions      [0 3 -1 0 0 0 0];
oriented        oriented;


internalField   nonuniform List<scalar> 
27284
(
-0.000120245
0.000199029
-7.88551e-05
0.000100328
-9.20476e-05
-1.12833e-05
-7.12095e-05
-5.97816e-05
0.000130966
6.43464e-05
-0.000101707
2.98605e-05
-1.13089e-05
-0.000211435
0.000221797
0.000221151
6.24911e-05
-0.000284361
-0.000136688
0.000217813
-8.26506e-05
-0.000220487
0.000208235
1.59656e-05
-2.15178e-05
-2.76435e-07
-0.000150898
0.000177572
-2.72167e-05
-0.000325914
0.000110551
0.00021454
-0.000123955
6.00903e-05
6.38435e-05
-4.38012e-05
-8.01735e-05
-8.70203e-05
-0.000158485
0.000245211
3.70576e-05
-3.65178e-05
-6.74947e-06
-5.51004e-05
7.44537e-05
-2.15201e-05
8.65009e-05
-3.11154e-05
6.61314e-05
-0.000273404
0.000206413
-7.67806e-05
-7.98464e-05
0.00015658
-0.000128211
-7.24584e-05
0.000199229
-9.96365e-05
0.000223765
-0.000124238
-5.54576e-05
0.00026219
-0.000208505
3.64588e-05
-7.3503e-05
3.27578e-05
-5.39685e-05
0.000274399
-2.73062e-05
5.99773e-05
-0.000199006
0.00027226
-7.51011e-05
-5.78459e-05
-0.000174062
0.00022937
0.000165002
-1.81161e-05
-0.000154418
1.17592e-05
-1.1095e-06
-0.00030537
0.000119204
0.000185602
-0.000122129
-0.000103535
0.000225564
-8.79489e-05
0.000247561
-0.000159916
6.95422e-05
9.816e-06
-8.08597e-05
-4.12756e-05
-3.71154e-06
4.3133e-05
-1.92951e-07
-1.6429e-07
2.23429e-07
-0.000169345
0.000229928
-6.1607e-05
-0.000111983
-8.36205e-05
0.000195365
2.38479e-05
-0.00019405
-0.000105144
-0.000200803
0.000270661
-0.000235306
-3.64609e-05
-2.00439e-05
-2.22148e-05
2.71961e-05
-0.00020734
-6.94498e-06
-4.29576e-05
4.80461e-05
-8.2472e-05
9.99972e-05
-2.06059e-05
1.49548e-05
-8.06338e-05
0.000103016
-2.23904e-05
0.000162163
2.36781e-05
-0.000190603
-2.15187e-05
0.000178959
0.000148705
-0.000271713
4.43633e-05
0.000224147
-1.21207e-05
5.98358e-06
4.19556e-06
-0.000126824
0.000208444
-8.16539e-05
-0.00022395
-5.10759e-05
9.30414e-05
-0.000166601
7.34894e-05
-0.000265998
8.22657e-05
0.000177667
8.40003e-05
-0.000213804
-3.42417e-06
1.54038e-06
1.03545e-06
0.000234676
-0.000273384
7.24888e-05
9.58833e-05
-3.36567e-05
-6.22309e-05
-5.01029e-05
-5.49705e-05
-7.06691e-05
0.000125597
0.000181796
-8.88516e-05
-0.000121517
4.07347e-05
7.96669e-05
-1.02623e-06
-0.000168566
0.000169373
1.15496e-05
-1.06722e-05
-2.92553e-06
3.99847e-05
0.000146475
-0.000187028
4.06155e-05
-0.000152796
-3.68562e-05
-5.36832e-06
4.06632e-05
0.000291349
-0.000195469
-9.65488e-05
0.000164418
-0.000213555
4.63592e-05
-0.000131499
-0.000139058
4.24286e-05
-0.000228918
0.000186156
-0.000284223
7.04899e-05
0.000212959
2.9043e-05
-0.000199337
0.000169596
-4.15326e-05
-6.52783e-06
4.63605e-05
0.000206521
2.81066e-05
3.64463e-06
-4.69049e-05
0.000200533
-3.8671e-05
-0.000179277
0.000207578
-0.000166341
0.000205698
0.00016878
-0.00024061
7.11695e-05
-4.49803e-05
0.000183327
1.62972e-05
-0.000200192
0.000232883
-0.000100109
-0.000132952
-7.17172e-06
-2.60618e-06
6.33675e-06
-4.18923e-05
1.85797e-05
1.31157e-05
-5.37613e-05
0.000186207
-0.000132677
-0.000174605
-1.47362e-05
0.000184933
0.0001422
-0.000196207
2.58287e-05
0.000185893
-0.000271884
0.000182838
8.89064e-05
-9.92388e-05
0.000267102
0.000247786
-0.000206421
-0.000308186
0.000117865
0.000189899
0.000124352
-4.63735e-05
-7.90126e-05
-0.000169968
5.23856e-05
0.000112688
3.89933e-05
8.41395e-05
2.42346e-05
-0.00014126
0.000116941
0.000205249
2.18577e-05
-0.000228307
0.000148153
8.45452e-05
0.000169489
2.79404e-05
4.37584e-05
0.000201146
9.30601e-07
-1.36446e-06
3.05178e-07
3.99918e-06
-0.000188779
0.000184284
-8.45969e-05
2.67656e-05
-0.000184089
0.000182824
-9.12615e-05
-0.00021703
0.00022887
-0.000116506
-0.000112545
-2.2272e-06
-5.45123e-05
5.46937e-05
-2.78397e-06
-1.4278e-06
-3.30593e-06
2.98031e-06
-1.35014e-06
3.19378e-05
-0.000186109
0.000153969
-1.97779e-05
0.000202534
-9.4614e-05
0.000116518
-2.19133e-05
-0.00023072
5.43003e-05
0.000175965
0.000211405
-4.49015e-05
3.14328e-05
-0.000211669
3.56049e-05
-0.000223122
0.000186713
0.000296347
-0.000150551
0.000129111
0.000161896
4.85135e-05
-0.000119744
0.000243814
0.000225212
-0.0001108
-0.000114596
-0.000162509
0.00019308
9.17234e-05
-8.08437e-05
-1.08874e-05
-0.000196623
6.45915e-05
1.3088e-05
-0.000201402
8.10954e-05
0.000259221
-0.000238183
-2.25215e-05
-4.63495e-05
-0.000128404
-0.000247737
0.000120876
-0.000248308
0.000163732
8.14211e-05
0.000178451
-8.08502e-05
-9.76648e-05
-6.19055e-05
0.000159981
-9.81532e-05
0.000149965
1.71535e-05
-0.000170908
-0.000153972
7.7153e-05
0.000168869
7.27176e-05
-0.00024205
6.74929e-05
2.37027e-06
-8.14813e-05
-0.000127936
-0.000144065
-5.12756e-06
0.000142
-0.000137149
4.14928e-05
0.000179222
-0.000221491
-0.000153997
0.000183341
-3.37179e-05
9.35006e-05
0.000143704
0.000118944
-0.000180942
5.08806e-05
-3.61241e-05
-2.42577e-05
-3.66371e-05
-6.29572e-05
9.95893e-05
-3.25282e-06
1.19009e-06
2.03967e-06
-0.00016485
0.000196565
3.58448e-06
-5.36556e-06
1.78959e-06
0.000154407
2.99819e-06
0.000118624
0.000177013
-0.000142373
4.42769e-05
9.6739e-05
-4.12032e-05
-0.000170723
0.000210967
-5.42405e-05
9.39603e-06
4.27726e-05
-2.53296e-05
-2.15711e-05
-1.35785e-05
6.91166e-05
1.67713e-06
-1.15777e-05
8.6049e-08
-0.000157193
1.71371e-05
2.04212e-05
0.000253329
-5.54225e-05
-0.000198585
-7.10315e-05
-0.000179778
-4.57083e-05
4.18627e-05
-4.35119e-05
-0.000177669
0.000220239
0.000274741
-7.01491e-05
-0.000205385
0.000108573
-0.000155833
4.66963e-05
4.41792e-05
-8.08203e-05
8.02799e-05
-0.000196064
0.000115719
0.000149452
7.32185e-05
-0.000222739
-0.000166291
0.000160837
-2.22914e-06
-1.87152e-06
2.59541e-06
8.83112e-05
9.00704e-05
-4.64501e-06
-4.22783e-06
5.64106e-06
-0.000112498
0.00026125
-8.07922e-07
-8.98874e-07
1.0886e-06
1.98167e-05
1.87314e-05
1.56257e-06
-6.42121e-06
1.67458e-06
-7.82808e-09
-1.69313e-06
0.000256726
-0.000133117
-0.000124301
6.81432e-05
0.000123818
-0.000192407
-4.97517e-06
-5.02128e-06
6.39583e-06
0.000147016
-3.90121e-05
-0.000221576
-1.79761e-05
0.000238128
3.34427e-05
-0.000167295
0.000128818
-0.000145268
0.000120103
2.4368e-05
0.000242406
-0.000201481
1.25651e-06
1.08717e-05
-1.66915e-05
5.06681e-05
-0.000200843
0.000149924
-0.00019197
3.84565e-05
0.000144688
-0.000192934
1.66508e-05
-8.15617e-06
9.98705e-05
0.000134633
-0.000110476
-0.000119309
9.5587e-05
2.06055e-05
4.1466e-05
6.39422e-06
-4.91128e-05
-7.2054e-05
8.60032e-05
-2.84305e-05
-7.84023e-05
0.000120978
-4.25872e-05
-8.72177e-06
-5.28296e-06
-0.000119902
0.000198393
-7.85308e-05
8.13955e-06
-0.000103009
-0.000295223
0.000207813
2.83256e-05
0.000211751
-3.84744e-05
-0.000227722
0.000265004
-0.000298792
0.000193076
9.31973e-06
8.72158e-07
-1.40186e-05
0.000197622
-0.000117408
-8.30354e-05
0.000272041
-0.000190982
-6.54323e-05
0.000214818
-0.000110608
0.000139444
-7.43644e-05
8.92976e-05
-1.65811e-05
-0.000146516
4.00494e-05
0.000104971
-0.000217205
0.000228307
-1.28984e-05
0.000224256
-0.000267969
4.33265e-05
0.000155391
-4.35062e-05
-0.000113169
5.3548e-05
0.000100575
-2.27351e-06
-1.04328e-06
0.000166099
-0.000278627
-0.000137983
0.00020566
-0.000143047
0.000166492
-2.37803e-05
0.000294341
-8.39167e-05
-0.000212446
0.000217486
-6.84018e-05
-0.000153592
9.25324e-05
0.000136094
-3.43651e-05
-7.12068e-06
4.03672e-05
-0.000134625
-5.24663e-05
0.00018687
1.32039e-05
-9.37741e-05
7.97745e-05
0.000285176
-0.000238331
-4.76349e-05
-4.59847e-05
0.000177234
-0.000132625
-7.36625e-06
-3.79926e-05
4.41738e-05
-6.27639e-05
0.000231197
0.000108784
-0.000221871
0.000113005
2.50384e-05
-0.000210671
0.000185257
-0.000146086
0.000171125
-2.68941e-05
-0.000162775
1.4874e-05
7.34551e-05
-8.87719e-05
-4.28618e-05
0.000171328
-0.000215664
0.000233746
5.01037e-05
-0.000258752
5.60111e-05
0.000201582
-8.8798e-05
3.13576e-05
-0.000149884
0.000118201
0.000148851
-9.64581e-05
-0.000135529
4.4181e-05
8.85567e-05
0.000134204
0.000121978
4.5322e-05
0.000102173
-0.000198282
1.56638e-05
0.000182273
0.000209184
-0.000251987
7.2175e-05
0.000173794
2.00494e-05
-0.000166033
0.000141097
0.000268476
-4.46273e-05
0.000180889
-0.000263181
8.17068e-05
0.000242401
-0.000211224
-3.35829e-05
-4.10562e-05
-8.1516e-05
-8.76006e-05
6.75144e-05
-0.000117841
5.03044e-05
-8.53451e-05
9.77247e-05
1.31603e-06
2.68423e-07
3.89562e-06
-9.1009e-05
8.63016e-05
-0.000123587
0.000154626
-5.88411e-05
5.25843e-05
-6.9062e-06
0.000141716
-0.000189208
-4.62868e-05
-0.000102255
0.00014405
4.0984e-06
-5.19723e-07
0.000190537
-4.20832e-05
-0.00014931
-0.000207265
0.00011293
9.42461e-05
0.000188378
-0.000128474
-6.00621e-05
-0.000203232
-9.61301e-05
-5.4175e-05
-0.000208581
0.000261405
3.8148e-05
-0.000220554
0.000181365
5.10938e-05
0.000100145
-0.000151316
9.4988e-05
-0.000145677
-0.000175402
-1.805e-05
-0.000181317
0.000197729
4.99362e-05
7.49179e-06
-5.92348e-05
0.000218012
-0.000257619
-0.00016551
2.21471e-05
-1.11099e-05
-0.000135199
0.000138924
1.59588e-06
0.000205341
-0.000208651
-0.00034943
0.000138771
0.000209955
-2.6451e-05
0.000172563
0.00018851
-0.000101004
-8.76073e-05
0.000296965
-5.56417e-05
-0.000346134
0.000141741
0.000203518
1.63416e-05
-0.000234966
-0.000265611
7.58123e-05
0.000189306
5.57875e-05
-7.62193e-06
0.000201355
-0.000140336
-6.12219e-05
-0.000212843
-3.40025e-05
0.000244638
0.000291387
-0.000157793
-0.000134021
-5.39523e-05
2.04882e-05
0.000152893
3.96497e-06
6.31763e-07
-8.1745e-06
7.62486e-05
-2.61394e-05
0.000131025
-0.000104972
0.000195211
-0.00021092
1.48799e-05
0.000189515
-5.87607e-05
-0.000132081
-0.000195937
0.000233106
1.10612e-05
1.95441e-05
-7.98458e-06
4.82355e-05
8.40157e-05
0.000104406
-0.000223295
0.000223042
-0.000179829
-8.47732e-05
0.000193592
-0.000109051
0.000257579
1.93474e-05
-0.000169298
0.000149758
-7.27101e-05
-7.73478e-06
-0.000244295
0.000250875
-0.000139445
-0.000210665
-0.000193707
0.000225839
-3.5504e-05
-0.000174169
-1.80186e-05
0.000192012
9.05396e-05
9.76471e-05
-0.000123794
9.75719e-05
-1.69521e-05
-7.24727e-05
8.901e-05
3.90185e-05
6.85359e-05
-0.000107567
0.000268909
-0.000150059
-0.000122055
0.000212554
4.83023e-05
-0.00026161
-0.000105112
0.000183661
-7.86467e-05
-0.000127469
-0.000138554
0.000102407
0.000162461
-0.000187602
0.000161197
-2.15972e-05
-0.000141692
0.000157661
9.92796e-05
4.73514e-05
-0.000146706
0.000106405
-6.73992e-05
-6.54589e-05
-6.61271e-05
0.000131573
6.78313e-05
-8.51898e-05
-0.000207953
3.3072e-05
0.000125973
-0.000159329
-5.72651e-06
-0.000185494
0.00019023
-4.57834e-06
3.66837e-06
7.458e-07
0.000229341
4.02207e-05
0.000174768
0.000233368
-8.40924e-06
-0.000228381
-0.000173598
1.20277e-07
-4.27128e-07
0.000170785
3.50737e-05
-0.000206329
-1.61826e-06
7.23122e-05
-7.27868e-05
-0.000279204
0.000115859
8.03495e-05
-8.16554e-05
-1.07749e-05
4.14014e-05
0.000227737
2.51221e-05
0.000228168
-0.000254359
-0.000123597
5.32747e-05
7.03014e-05
0.000114319
8.50158e-05
-0.000199379
0.000180802
-0.000165455
-1.72169e-05
8.46183e-05
-0.000262518
0.000211812
4.96047e-05
-0.000190441
1.15303e-05
1.3619e-05
0.000216272
0.000238394
-0.000215729
-2.40764e-05
-1.20916e-05
-0.00013939
-2.16733e-05
-0.000171746
0.00018909
-3.6623e-05
4.31593e-05
-1.74007e-05
4.7645e-06
-1.29663e-06
-3.49879e-06
-4.90019e-05
-0.000190031
0.000238224
2.0513e-05
0.000167311
-0.000191788
6.69003e-05
-0.000119732
5.28142e-05
0.000226654
1.06351e-05
1.64052e-05
-0.000156479
0.000135101
0.000211651
-3.00958e-05
-0.00018393
2.12821e-05
-0.000179427
-5.36101e-05
1.84016e-05
2.23643e-05
-0.000161113
0.000182032
3.66993e-05
7.23257e-06
-4.48136e-05
9.87521e-06
-5.46323e-05
0.000233314
-2.95235e-05
3.92437e-05
5.66362e-05
1.18696e-05
-9.11172e-05
7.87492e-05
-6.98099e-06
4.27982e-05
-0.000161459
-1.29044e-05
0.000169386
0.000272263
-0.000222709
-5.09861e-05
0.000108976
-0.000135232
6.75879e-06
-8.98356e-06
-3.53769e-07
3.16526e-05
-0.000199855
0.000167449
-7.82796e-05
8.96792e-05
-0.000344395
0.000204222
-0.000217249
0.000218677
-4.9198e-06
-0.00010518
-0.00015454
-0.000113266
6.94463e-05
-0.000163715
5.17395e-05
0.000110591
9.21486e-05
-8.90631e-05
-0.00018422
9.87661e-06
6.83033e-05
-8.38871e-05
1.37912e-05
0.000266191
5.02675e-06
0.0001375
-0.000233182
9.45743e-05
-0.000212449
-2.62872e-05
0.00023743
-7.53118e-06
4.55335e-05
-4.74269e-05
-0.000205059
0.000270383
-2.37719e-05
2.64258e-05
-9.57415e-06
0.000218661
2.07503e-05
-0.000240846
1.37631e-05
-9.71016e-05
-0.000199854
0.00020675
-7.18019e-06
-9.83142e-05
-0.000289206
0.000103485
0.000185182
4.10187e-06
5.44812e-06
-0.000129858
0.000262614
-4.55885e-05
2.18121e-05
0.000177881
-0.00020198
2.275e-06
0.000100289
-0.000102615
7.42535e-05
3.09995e-05
-0.000105259
-1.49612e-05
-7.65481e-05
-3.00911e-05
-0.000158671
0.00018709
0.000127455
-5.99666e-05
7.42661e-05
-0.000256014
0.000180176
5.31633e-06
6.4634e-05
8.93507e-08
-8.93503e-08
-0.000198176
0.000106508
9.15541e-05
-6.45486e-05
-0.000135314
-0.000158664
-0.000186337
0.000137038
7.92866e-05
0.000280132
-7.80366e-05
-0.000202759
0.000148903
-0.000155425
0.000273767
-0.000260116
-1.40386e-05
-8.36678e-05
0.000197932
-5.82973e-05
-0.000105777
0.00016398
9.7709e-07
-1.15094e-07
-5.76556e-05
-7.74525e-05
0.000135103
0.00023893
-0.000218347
0.000115424
-0.000133195
-0.000215811
0.000116062
-8.89109e-05
-4.28137e-06
0.000167557
9.71763e-05
4.00936e-06
-1.73991e-06
-2.26998e-06
-1.90587e-05
-0.000165242
-0.000109486
1.14815e-05
0.000166292
-7.80419e-05
-0.000184678
0.000125231
5.90276e-05
-0.000205274
9.11407e-05
0.000114036
-0.000263134
0.000196011
6.46722e-05
0.000130249
-7.47484e-05
-5.8189e-05
-9.24257e-05
-0.000174027
0.000208885
-0.000139783
-3.57465e-05
0.000173678
5.68814e-05
0.000120039
0.000144332
4.53329e-05
-1.601e-05
0.000124611
-6.72475e-05
-0.00010607
0.000108292
4.75066e-05
7.99334e-05
0.000294023
-5.14099e-05
-0.000243757
-4.86556e-06
0.000185343
0.000183076
5.87004e-05
-0.000241827
0.000176013
-9.37629e-05
-8.23849e-05
0.000186335
-0.000236109
-0.000260947
6.46578e-05
-0.000104102
0.000161742
-5.77551e-05
-5.45554e-06
2.75156e-05
-2.77816e-05
-5.90369e-05
-1.03845e-05
6.79183e-05
0.000162516
4.66847e-05
3.41504e-05
0.000101525
-2.72765e-05
-1.16872e-05
7.82206e-05
-6.89573e-06
1.59989e-06
1.84713e-06
5.21068e-05
1.17697e-05
-7.57536e-05
-8.69283e-05
-3.66864e-05
-8.65285e-05
0.000222818
8.45043e-06
3.93043e-05
-4.88927e-05
0.000260249
-9.40061e-05
6.65647e-05
0.000199508
-0.000257111
5.52643e-05
8.74586e-06
-8.71562e-05
7.88506e-05
-0.000133863
-0.000260857
3.77965e-05
8.08383e-06
-3.75732e-05
8.14592e-05
9.44162e-05
8.67883e-05
2.70805e-06
-8.95116e-05
-0.000150399
-8.1751e-05
0.000232141
-6.76279e-05
-4.99171e-06
7.08533e-05
9.99154e-05
0.000103486
-0.000203421
7.14987e-05
-1.53008e-05
-8.11409e-05
6.00495e-05
0.000119628
-0.00017986
0.000229323
-4.46349e-05
-0.000185409
4.12638e-06
-0.000204224
-0.000177213
0.000219326
-0.000171206
-0.000215109
-6.98974e-05
0.000142385
-0.000199124
0.000124464
-5.75829e-05
-3.79703e-05
-0.000185998
-0.000175066
7.87647e-05
9.61254e-05
-4.45269e-05
0.000237754
-0.000194269
-5.98422e-05
-8.97669e-06
6.71919e-05
0.000272546
-0.000139943
-0.000133693
-6.64678e-05
4.92316e-05
-0.000129017
7.97467e-05
-8.79721e-05
0.000118964
-0.000183836
0.000164568
-0.00021086
-6.33464e-05
0.000284952
-6.47845e-05
-0.000220863
-0.000235574
-4.90278e-05
-9.87939e-05
-0.000189474
0.000180872
-3.90657e-05
-8.76485e-05
0.000125536
-7.43908e-06
-3.1667e-05
3.84191e-05
-5.89544e-05
-0.00016129
0.000214316
-0.000189295
4.87487e-05
-9.11658e-05
8.21279e-05
-0.000122347
0.00018522
-0.000120903
-6.43383e-05
-0.000181537
6.15923e-05
7.6596e-05
0.00021568
4.20569e-05
-5.14187e-06
-4.5504e-06
-0.000166272
-1.72637e-08
3.40476e-06
5.9898e-07
8.18688e-05
4.40761e-05
-0.000125966
-4.54963e-05
0.000256933
2.40324e-05
-0.000211508
0.00018689
-0.000218532
-3.53384e-05
0.000253082
0.000232099
-2.10187e-05
-0.000211984
-0.00021945
4.58621e-05
0.000173185
-5.57687e-05
7.25441e-05
-1.67774e-05
6.73186e-05
0.000108799
-0.000176375
-0.000199131
0.000274512
-7.7371e-05
-8.01317e-05
-1.50877e-05
9.50969e-05
-3.01778e-05
-2.06858e-05
-0.000111088
8.57328e-05
-0.000143393
-0.00017946
0.000162538
1.66889e-05
0.000221337
7.13794e-05
-6.91674e-05
1.33967e-05
-0.000142686
4.73465e-07
7.69585e-05
8.9268e-05
9.23314e-05
-0.000180511
5.9956e-05
1.50532e-05
-7.53141e-05
-0.000225465
0.000186642
7.40385e-05
0.000197062
0.000229961
2.5197e-05
-0.000258159
0.000143165
-0.000185557
4.18589e-05
0.000160092
-1.62771e-05
7.59338e-05
-0.000173325
0.000119494
5.34021e-05
-0.000257461
2.86579e-05
-7.86451e-06
0.000234944
-0.000179569
0.000195312
0.000231911
-0.000165354
-0.000208664
-5.00824e-05
0.000258098
9.57194e-05
-0.00011248
0.000278519
-4.56146e-06
-8.34165e-05
-0.000212605
-1.77251e-05
0.000230133
-0.000295239
5.4818e-05
0.00023929
0.000194427
5.27571e-05
2.60068e-05
-0.000191165
-0.00016288
0.000181927
4.38553e-06
-0.000182691
0.000173972
-8.6168e-05
-0.000209754
-0.000217837
0.000272936
-5.59967e-05
-0.000245021
3.01251e-05
5.9132e-05
0.000166769
-0.000151488
-0.000128077
-4.70321e-05
-0.000120385
0.000162671
-0.000225515
1.27016e-05
-0.000208793
-6.26715e-05
0.000269885
-3.85153e-05
0.00012252
-8.40462e-05
-5.98296e-05
-5.34519e-05
0.000151247
-0.000150497
-0.000208981
0.000188622
-8.09332e-05
-0.000120518
0.000133504
-0.000197758
3.99687e-05
6.74378e-05
-0.000107412
-6.03141e-05
4.21566e-05
-0.000230429
5.89031e-05
0.000171373
-0.000117072
0.000184091
2.27625e-05
-6.01251e-05
-0.000172513
0.00019818
-9.02361e-05
0.000105173
-0.000163562
8.25634e-06
-2.66481e-06
8.4301e-06
-4.36133e-05
3.37931e-05
-0.000105497
-5.63189e-05
0.000161685
-7.67649e-05
-0.000102922
8.53953e-05
-0.000123955
-0.00016997
0.000131615
3.02933e-05
4.70944e-05
-0.000117797
0.000107992
-0.000159545
-4.8588e-05
0.000130435
2.1849e-08
2.52616e-08
0.000237031
-7.37295e-05
-0.000165997
4.18488e-05
-0.00011609
7.42241e-05
5.19181e-05
0.000151393
-0.000204758
0.00026645
-3.43453e-05
-2.1753e-06
8.33135e-07
-0.000213056
3.03547e-05
0.00018219
-0.000184848
5.7485e-05
0.000125999
-3.72397e-05
0.000207515
-0.000121605
5.61372e-05
0.000235163
-9.78997e-05
-0.000137662
-1.4576e-05
-7.99413e-05
2.88092e-06
-3.98589e-06
-5.45153e-08
-0.000155306
2.86279e-05
-0.000235481
0.000205573
5.97086e-05
0.000175091
3.64499e-05
5.20938e-05
-8.85464e-05
-9.01802e-05
2.70276e-05
5.98868e-05
-8.89143e-05
7.35588e-05
-0.000207438
0.00024366
-3.80583e-05
-5.59725e-06
1.92834e-06
-5.92271e-05
0.000213598
-0.000154836
-2.87397e-07
3.67921e-06
-4.17692e-05
-0.000123324
0.000224988
-0.000147825
-7.72844e-05
-3.37103e-05
-0.000142958
0.000175134
6.9821e-05
-0.000129398
5.94681e-05
-0.000183365
6.83582e-05
0.000114689
-3.43167e-06
-0.000141101
-0.000203601
0.000133823
6.97235e-05
0.000192613
2.34605e-05
0.000161737
0.000215745
-4.70128e-05
-0.000169006
0.00024926
9.10347e-06
-0.00025997
-0.000209537
3.79909e-05
0.000165555
-7.87472e-05
-0.000137839
-0.000194721
0.000264528
-0.000136301
0.000230555
-9.52944e-05
2.92369e-06
1.00912e-06
6.03175e-05
-0.000184884
0.00012443
0.000223172
-0.000127305
-9.58876e-05
0.000181432
5.30314e-05
5.96843e-05
0.000190762
-0.000250534
0.000242677
-0.000184955
-6.26211e-05
0.000246912
4.82041e-05
-0.000120428
7.22073e-05
4.53029e-06
-6.5082e-05
0.000144447
5.44939e-05
1.82033e-05
-7.55687e-05
5.71121e-05
1.89379e-06
8.40223e-07
-2.80455e-06
-0.000124195
-5.94377e-05
-0.000186071
0.000117647
6.82991e-05
1.62513e-05
6.81126e-05
-8.43709e-05
0.000168303
-0.000206065
0.000146071
2.62975e-05
-0.000174835
0.0001603
-1.20081e-05
4.29899e-06
-2.69457e-05
-0.000119042
-4.47023e-05
0.000143908
0.000275146
-0.00018726
-8.98573e-05
-0.000229049
0.000191126
3.6953e-05
-0.00012143
0.000181617
0.000219506
-7.9663e-05
2.27486e-05
0.0001643
-0.000189253
5.9785e-05
-0.000163992
1.80791e-05
7.84228e-05
-9.65099e-05
0.000191689
-4.90364e-05
-0.000155474
-2.23116e-05
0.000176743
0.00016483
2.61003e-05
-0.000163159
-3.7949e-05
0.000228637
-2.21651e-05
-0.000185523
-0.000137822
-3.69177e-05
0.000170313
-0.000211296
0.000233365
-2.26921e-05
-3.8048e-05
0.000205795
-0.000196764
0.000154628
-6.82806e-05
-7.403e-05
0.000142233
-8.73291e-05
-0.000177441
0.000185393
-7.66781e-05
-7.36433e-06
4.75671e-05
-0.000283596
0.000242639
3.93761e-05
3.31756e-05
0.00011196
-0.00014516
5.08002e-06
-7.33388e-07
-0.000260316
4.84862e-05
4.23795e-05
0.000138447
8.63329e-05
-0.000215158
-1.23232e-06
0.000212774
4.84747e-05
6.15449e-05
-0.000115673
-0.00012729
-9.81056e-05
0.000224939
-3.40078e-05
-0.000179562
8.4454e-06
-4.09598e-05
3.14992e-05
-1.28039e-05
-8.48256e-05
9.66193e-05
-1.88405e-05
-0.00019085
0.000209239
-1.24627e-05
-0.000154203
0.000271875
-0.000168925
-3.13468e-05
1.02507e-05
1.60882e-05
0.000152929
7.20545e-05
-0.000116612
0.000219057
-0.000264609
4.20729e-05
-1.78794e-05
0.000181894
-8.58765e-05
0.00022206
-0.000210384
0.000136621
7.37327e-05
7.91058e-06
-4.24796e-05
3.36487e-05
-0.000139888
8.00816e-05
0.000121957
-0.000215271
8.92295e-05
-2.37923e-06
6.13018e-07
-6.81713e-05
0.000110004
4.15363e-05
-0.000232192
0.000189861
0.000225342
-0.000166679
6.22304e-05
0.000208991
0.000131756
-9.043e-05
-0.00014284
-6.75728e-05
-0.000102447
0.000220206
4.91035e-05
4.69212e-06
-2.7979e-05
-3.71078e-05
3.63619e-05
-0.000178657
-6.98268e-05
-0.000190906
0.000133515
-0.000199718
0.000115993
-7.77251e-06
9.20106e-06
-6.06434e-06
8.86158e-05
-4.8652e-05
-0.000219447
-3.33014e-05
0.000251284
0.000167914
-0.000186651
0.000199601
9.72914e-05
0.000206397
-0.000258869
-0.000206918
-0.000181659
3.47856e-05
5.771e-06
-4.12902e-05
8.39761e-05
3.75823e-05
-0.000121587
0.00019341
-0.000236275
3.82662e-05
4.93285e-05
-5.95693e-05
8.32314e-06
-4.96738e-05
-8.72208e-06
5.71553e-05
0.000186018
-6.85121e-05
0.000196562
-0.000115997
5.08321e-05
6.51495e-05
6.29847e-05
-1.44642e-05
-0.000109413
0.000130499
-0.000204174
0.000266126
-0.000218553
0.000229624
2.30527e-05
4.95431e-05
0.000146743
-0.000197721
-0.000194968
0.000151975
-7.73018e-05
0.000128043
-0.000185407
7.44535e-05
-4.67344e-05
7.53393e-06
-0.000229235
0.00011668
-8.82536e-05
0.000106324
5.11443e-06
-6.9155e-06
7.71265e-07
-0.000140384
0.000176745
-3.7052e-05
-7.21673e-07
2.64979e-06
-3.00938e-06
8.69443e-05
-7.2485e-05
0.000140605
-7.08908e-05
2.10354e-06
-2.53172e-07
5.61138e-05
0.000207572
2.5199e-05
-2.92363e-05
0.000196311
-6.84119e-07
4.58706e-06
0.000144691
-0.000197457
5.24009e-05
-0.000188134
0.000130631
5.70472e-05
0.000236681
-0.000150274
-8.65281e-05
0.00021196
5.58814e-05
9.35868e-05
-0.000166515
-1.54841e-05
7.8763e-05
-6.35986e-05
0.000110457
-0.000117999
7.50296e-06
-7.75103e-05
-0.000148109
-2.96068e-05
0.000254368
-0.000134302
-0.000120593
0.000167043
-2.31874e-05
0.000219624
-0.000257965
3.60454e-05
9.98097e-05
-0.000275427
0.000171441
-4.8819e-07
2.05209e-07
2.82783e-05
6.85804e-05
-0.000170334
0.000251107
7.93351e-06
-2.24753e-05
2.92604e-05
-1.20744e-05
-3.92687e-05
3.3938e-05
2.67219e-06
-3.03208e-06
-2.69031e-07
-0.000265881
5.68914e-05
0.000207825
0.00011081
0.000125745
-2.22733e-05
0.000132688
-8.41681e-05
0.000182186
-0.000216713
-0.000285046
7.49157e-05
0.000208757
6.31718e-05
0.000220491
-0.000176843
2.90829e-05
1.7133e-05
0.000200546
-0.000256081
1.83775e-06
-4.07032e-05
3.72102e-05
-3.88136e-05
-0.000127473
0.000161516
1.0143e-05
-1.26742e-05
0.00028319
-6.91978e-05
-0.000211571
-4.79304e-05
0.000258414
-1.57453e-05
-7.36571e-05
8.84918e-05
5.20795e-05
6.44277e-05
-4.77591e-05
-0.000240714
0.000142319
-0.000119859
0.000167247
0.000115293
-2.85201e-05
-6.77647e-06
-3.9065e-05
7.17642e-05
-8.84321e-05
0.000264546
-5.36558e-05
-0.000261195
-1.36761e-05
8.45113e-05
-1.01072e-05
-5.35298e-05
6.23585e-05
0.000100905
-0.00026562
-3.8648e-05
3.18491e-05
-0.000163606
-0.000118941
0.000281924
0.000211601
-2.36889e-05
1.92635e-05
-0.00026561
8.73823e-05
0.000173914
0.00012041
0.000133265
4.96635e-05
0.00021214
-0.00026208
0.00013432
-0.000175697
-0.000294642
0.000194927
9.8599e-05
-3.90903e-05
2.67177e-05
-3.75305e-05
-0.000116471
7.73854e-05
-6.26345e-05
-0.000196145
0.000120521
7.543e-05
9.97232e-05
-0.000236932
0.000217794
-0.000144679
-0.000265565
5.55152e-05
5.2914e-05
0.000197071
-0.000251551
5.23914e-05
2.01504e-05
-1.13277e-05
3.62394e-06
-7.41046e-05
5.75261e-05
-0.00015354
-8.82561e-05
0.00023167
-0.000143629
0.00020667
6.51636e-05
-0.000273335
2.22689e-05
6.53739e-05
7.09036e-06
2.92224e-05
-3.69646e-05
-0.000151437
0.000268867
-3.82602e-05
3.01268e-05
-0.000129376
-6.69514e-05
7.68294e-05
-6.75246e-05
-5.22247e-05
-3.48792e-05
-2.91898e-05
1.07727e-05
1.13609e-05
-1.91986e-05
-1.64084e-05
5.59421e-07
1.101e-07
-9.3615e-07
-2.7366e-05
0.000242686
-8.4682e-05
0.000141597
-6.04807e-05
-8.11534e-05
0.000205138
-0.000170522
-9.33773e-05
0.000178358
-8.51093e-05
0.000295321
-0.000177261
-0.000120394
4.22684e-06
-4.00451e-05
3.43441e-05
1.70512e-05
-7.5388e-06
-0.000260214
7.58716e-05
0.000179774
-0.000194913
5.13687e-05
0.000140781
-0.000176207
0.000240209
-6.51758e-05
-0.000115734
0.000101193
3.35835e-05
-0.000154509
0.000101263
0.000191852
-0.000214629
0.000242102
-3.15154e-05
-0.00019176
-0.000155946
-8.4235e-05
-0.000176872
8.33831e-05
-0.000206908
4.35113e-05
-8.08293e-05
-4.72523e-05
0.000128053
2.51048e-05
-5.87639e-05
-4.73737e-06
0.000189622
-0.000185244
0.000184524
2.75902e-05
-3.58708e-05
-0.000244447
6.06749e-05
0.000182388
-9.3251e-05
2.33404e-05
6.07584e-05
-0.000274969
7.87334e-05
-9.65308e-05
0.000147443
-5.09898e-05
-4.39108e-05
0.000127855
1.11053e-05
-7.66668e-05
6.3942e-05
0.000197358
-2.23369e-05
0.000239543
-6.34192e-05
-0.000134367
-1.79545e-05
7.03437e-05
4.00749e-06
-0.000160566
-3.85715e-05
-4.10861e-05
8.70645e-06
-1.401e-05
4.53948e-06
7.19025e-06
-0.000169845
0.000128999
-0.000154114
0.000139102
-6.09178e-05
-4.3377e-05
0.000104284
-2.85663e-05
-5.59461e-06
3.3501e-05
2.96803e-05
-6.6381e-05
7.58747e-05
4.94589e-05
4.20713e-05
-9.52135e-05
-0.00017717
0.000251348
-3.39945e-05
-1.41501e-06
-0.000217803
8.9799e-05
-4.39472e-05
0.000207379
-0.000156914
-6.1022e-05
1.14205e-06
3.5927e-06
-6.79019e-05
-0.00022017
0.000138887
-0.000260531
0.000121218
4.5126e-05
0.000142861
0.000234895
-0.0002005
-3.54673e-05
-0.00016354
5.74128e-05
0.000108188
1.89764e-05
-0.000127729
-5.72985e-05
-2.44443e-05
-3.17957e-06
2.3831e-05
4.19502e-05
-7.23521e-05
-4.3083e-05
0.00018234
-0.000140442
9.57918e-06
-3.27382e-06
0.000207091
-0.000212235
0.000143343
-2.40114e-05
-0.000264385
4.18622e-05
0.000219829
-0.000270446
6.06699e-05
0.000208015
-0.000217281
0.000226561
0.000172686
-0.000261176
-8.27262e-05
6.50734e-05
-7.4359e-06
-5.16407e-06
8.50247e-06
-9.67712e-06
1.28595e-05
-5.54732e-06
-0.000275334
5.65408e-05
0.00013398
-0.000114778
2.03722e-05
0.000181211
-0.0002058
-0.000157934
5.20676e-05
-6.48512e-06
-3.50276e-05
-3.9988e-05
3.17776e-05
-0.000115126
-0.000309611
0.000202868
0.000106429
-5.13553e-05
-0.000122366
9.09225e-05
-1.78554e-05
-0.000104538
4.361e-05
4.82989e-06
-4.62566e-05
4.01792e-05
-8.65882e-05
-8.74015e-06
9.4567e-05
1.15626e-05
-0.000190823
0.00017904
-0.000296943
5.03698e-05
0.000245454
0.000205861
-0.000236782
-0.000172483
-0.000258179
0.000211606
5.92401e-05
-0.000154758
9.54787e-05
-0.000122781
-0.000187016
-2.17693e-08
2.17258e-06
-4.18727e-05
4.54726e-05
3.56575e-06
-0.000222291
-0.000201109
0.000272057
-7.23299e-05
-4.1034e-05
-0.00012195
-9.94995e-05
-9.31066e-06
-4.23722e-05
4.9789e-05
-3.95288e-05
-0.000227218
-4.31256e-05
-0.00021999
-0.000161522
0.000102867
5.85507e-05
7.28107e-05
-0.000196617
0.000121575
-0.00013834
-2.18218e-05
0.000157869
-0.000165651
0.000203374
-3.86952e-05
0.000135153
-0.000154488
0.000105509
-9.41694e-05
-1.24716e-05
1.80803e-05
-9.84553e-05
0.000130282
-3.18723e-05
-8.33669e-05
0.000124512
-4.11866e-05
-3.32723e-05
-6.95728e-05
5.00995e-05
-5.31858e-05
5.4866e-05
-7.72184e-06
-1.35668e-05
-5.8389e-05
7.11981e-05
-0.000144719
0.000192915
-0.000215246
4.34017e-05
0.000167463
-0.000154029
-2.43865e-05
-3.24645e-06
2.42243e-05
0.000145583
-7.96774e-05
6.38554e-05
-9.43819e-05
6.26226e-05
2.84034e-05
-0.00021746
3.77662e-05
0.00017396
0.00016894
-6.38634e-05
-0.000154745
-4.46071e-05
0.000117065
-7.67919e-05
0.000153856
4.78745e-05
-0.000205978
0.000242387
-0.000117849
-0.000124561
-1.45357e-05
1.84054e-05
-0.000236794
-6.81347e-05
-2.95303e-05
1.55615e-05
7.60811e-05
-9.25356e-05
-8.41226e-05
5.71159e-05
2.48766e-05
2.30359e-05
-0.000177019
0.000153689
4.64959e-05
7.79463e-05
-3.85148e-05
-0.000184417
-0.000170717
9.08238e-05
0.000122007
5.82038e-05
-0.000180423
0.000111637
-2.37107e-05
-8.79373e-05
-0.00018115
8.52782e-05
9.57889e-05
1.09978e-05
0.000135929
-0.000153377
-8.52276e-05
-0.000212728
2.83563e-05
0.000144714
-0.000176739
-5.56383e-05
-7.63417e-05
0.000127577
-0.000122583
-1.51599e-05
0.000130763
0.000160616
3.85305e-05
-0.000199632
1.91495e-05
-0.000221071
4.25683e-05
-0.000168596
-7.146e-05
-0.000119292
0.000190485
-0.000108863
-5.47313e-05
-0.000161611
4.31078e-05
0.00028943
-8.71955e-05
-0.000202966
0.000223082
4.40374e-05
-0.000268281
-3.84726e-05
4.48303e-05
-5.752e-05
0.000248182
-0.000202453
0.000230048
-2.83894e-05
-1.11378e-05
1.62292e-05
-8.09673e-06
-1.18507e-05
-6.11464e-07
-5.16932e-05
-6.43168e-05
9.3464e-05
0.000129667
-8.37094e-05
-0.000116059
-9.6877e-05
0.0001242
-3.14786e-05
8.18467e-05
-0.00012936
4.74779e-05
-5.61322e-05
-5.19926e-05
0.000201913
-0.000202149
-1.91553e-05
0.000220803
9.06314e-05
0.000106255
-0.000197377
-0.000243277
0.000161266
-2.07818e-05
1.66729e-05
6.99274e-05
-0.000110272
-0.000128919
0.000238003
-0.000202573
-0.000243636
5.81181e-05