/*--------------------------------*- C++ -*----------------------------------*\
| =========                 |                                                 |
| \\      /  F ield         | OpenFOAM: The Open Source CFD Toolbox           |
|  \\    /   O peration     | Version:  v2012                                 |
|   \\  /    A nd           | Website:  www.openfoam.com                      |
|    \\/     M anipulation  |                                                 |
\*---------------------------------------------------------------------------*/
FoamFile
{
    version     2.0;
    format      ascii;
    class       surfaceScalarField;
    location    "850";
    object      meshPhi;
}
// * * * * * * * * * * * * * * * * * * * * * * * * * * * * * * * * * * * * * //

dimensions      [0 3 -1 0 0 0 0];
oriented        oriented;


internalField   nonuniform List<scalar> 
27274
(
-0.000515724
0.000728486
-0.00021316
-3.9739e-05
0.000183855
-0.000144116
-0.000996461
-0.000227807
0.00121826
0.000886655
-4.0217e-05
-0.000877043
0.000501905
0.000470402
-0.000976113
0.000226815
0.000242995
-0.000469915
-0.000669124
-0.000304286
0.000955335
-4.92136e-05
-0.000415359
0.000464421
0.00063094
0.000246905
0.00016054
-0.000199111
3.85701e-05
-0.000112768
-0.000853723
0.000948933
0.000142714
5.95201e-05
-0.000202234
0.000453858
-0.000187932
-0.000265969
-0.000951835
0.0011022
-0.000151092
-0.00128474
0.00051149
0.000768791
0.00085479
-0.000548943
-0.000306654
-0.000170512
0.000194656
-2.41443e-05
0.00147683
-0.000763646
-0.000730303
-0.000254832
-0.000713566
0.000965094
3.13005e-05
0.000175891
-0.000207195
0.000668373
-4.15896e-05
-0.000627181
0.00117443
-0.000700182
-0.000475402
-0.000199533
0.000196246
3.28648e-06
-0.000359852
0.00085834
0.000295598
-0.000840628
-0.000553295
0.000777099
-0.000229991
-0.000136619
0.000823596
0.00068111
7.4114e-05
-0.00075542
-0.000162187
-5.71556e-05
0.000219343
0.00109025
-0.00136853
0.000274335
0.00104986
-2.98584e-05
-0.00102521
-0.000460767
0.00105823
-0.000600079
0.000849995
0.000606572
0.00014164
-5.66037e-05
-0.000141076
0.000523294
-0.000468945
-5.44759e-05
7.64647e-05
-0.000592514
1.42827e-06
0.000780924
-0.000317474
-9.09256e-05
0.000408373
-7.67464e-05
0.000757766
0.000112522
0.000861232
-0.000990358
-0.00108804
0.000135471
-0.000233694
-0.00014676
0.000380426
5.34592e-05
-0.00105565
-0.000107677
0.000199177
-9.14999e-05
-5.60739e-05
-0.000133003
0.000134778
1.15082e-05
-0.000329
0.0003888
0.000102643
-0.000491599
0.000851254
-0.000702056
-0.000149393
-0.000329294
-0.000247442
0.000576535
4.54731e-05
-0.00085752
0.000798045
-0.000479279
0.000924608
-0.000466281
0.00129231
-0.00109203
-0.000207664
0.000160503
-0.000164214
2.78665e-06
-0.000216785
6.802e-05
0.000148765
-0.000930348
0.000350332
0.000570469
-4.9359e-05
-3.71058e-05
5.57164e-05
0.000428585
-8.78245e-06
-0.000419896
-0.000494061
-0.000793822
-0.000221018
9.48642e-05
0.000126153
-0.000451346
0.000166356
0.000284954
0.00079905
-0.000766925
-0.000343367
-0.00018127
0.000524472
0.00117064
-0.000448571
-0.000738693
-0.000562017
0.000284934
0.000276954
0.000181137
-3.8423e-05
0.000453357
0.000274663
-0.000201484
0.000105926
9.55578e-05
0.000398644
0.000179329
-0.000578026
0.000812763
0.000675273
0.000498031
-0.000301791
-0.000169623
0.000471323
-6.06926e-06
-7.79207e-05
7.77326e-05
-0.000176001
-0.000275376
0.000274837
0.000730652
-0.0010203
0.000449836
-0.000499215
-0.000981472
0.000298177
-6.58805e-05
0.00024379
-0.000177911
0.00060271
0.000286422
-0.000891554
0.000780299
-0.000562377
-0.000218925
-0.000940606
0.00113053
-0.000198362
0.000747384
-0.0010712
0.000318373
-0.000275991
-4.23884e-05
-9.90884e-05
0.000766896
0.000278617
-0.00048921
0.000210475
-0.000797863
0.000239361
9.33356e-05
0.000360473
-0.00022138
0.000118031
0.000103348
-0.0002079
0.000239197
-0.000232846
7.0659e-05
0.000185324
-0.000225044
3.97201e-05
-0.000331502
3.33523e-05
0.000298134
0.000149948
-0.000279223
0.000141858
-0.0007804
0.000630866
0.00104708
-0.000861339
-0.000212466
-0.000210763
0.000210763
-1.73145e-05
-0.000182218
0.000203148
0.000678911
-0.00088929
0.000693213
8.62169e-05
-0.000780585
-6.70196e-05
-0.000149766
-0.000161436
-2.74789e-05
0.000188915
-0.000170978
0.000195665
-2.46869e-05
-2.7452e-05
-0.00014546
0.000172912
-0.000397611
-0.000332454
0.000729826
7.54161e-05
-0.000301226
0.000225804
0.000309226
0.000598911
-0.000911542
0.000432518
-5.64685e-05
-0.000376109
8.65131e-05
8.91902e-05
-0.000175703
-0.000398408
0.000279149
0.000119234
0.000796936
-0.000498388
-0.000298989
0.000175169
0.000165645
-0.000421682
0.00117223
-0.000754557
-0.000629857
-0.000202606
0.000832257
-0.000435435
0.00073233
-0.000299015
-0.000923884
0.000293852
0.000192227
-0.000244945
5.27171e-05
0.000148798
2.21684e-05
-0.000207418
0.000115727
-0.000168225
5.24989e-05
0.00016542
-0.000231302
-0.000154054
0.000171322
-1.72677e-05
0.000185764
-0.000583586
0.000198446
-3.79053e-05
0.000275197
-0.00025882
-1.63829e-05
-0.000311685
0.000912054
0.000128586
-0.000430453
0.000899238
-0.000703391
-0.000195958
-0.00020247
0.00110784
0.000175105
0.000234904
-0.000208845
-2.43887e-05
0.000333116
-0.000135614
-0.000197506
0.000116897
0.000900068
0.000472859
-0.000972779
0.000114704
0.000163257
-0.000277966
-0.000567013
0.000162517
0.000404291
-0.000162074
0.000854105
-0.000303588
-0.000193421
0.000496929
0.000208742
2.36144e-05
-0.000734844
0.0014472
-0.000717205
0.000658779
-0.000786141
0.000965345
-0.00136795
0.000399956
-0.000362992
-7.95407e-05
0.000442474
-1.35166e-05
-0.000157462
0.000161818
2.27043e-05
-0.000184522
0.000908708
-0.00101236
0.000101461
0.000472365
-0.000897281
-0.000143896
-0.000135769
0.000279665
1.57929e-05
-0.000913825
0.000896848
-0.000325402
0.000744006
-0.000418602
-0.000174537
0.000221731
-4.71942e-05
0.000965668
-0.000210789
-0.000756559
6.67406e-07
-0.000175205
0.00108601
-0.000933529
-0.000156567
-0.000685288
0.000394981
0.000128227
-9.45462e-05
-0.000126472
0.000481708
1.80899e-05
-0.00049993
0.000116152
-7.87242e-05
-4.10827e-05
-0.000148888
0.000263588
-1.24013e-06
-0.000152814
6.30199e-05
5.00881e-05
-0.000128427
0.000513036
-0.000384748
0.000847225
-0.000473946
-0.000373759
-0.000914973
0.000366931
0.000546903
0.000337933
-0.000617575
0.00027949
0.000587941
-0.000751046
-0.000391395
7.40507e-06
0.000383955
1.40237e-06
0.000208843
-0.000210246
-0.000253085
6.01843e-05
0.0001929
-0.000399813
-0.000220501
0.000620077
-5.80968e-06
-0.000287795
0.000293584
0.000762132
0.000287525
-0.00106328
-0.00027959
0.000254167
2.54233e-05
0.000217737
-8.45717e-05
-0.000133166
-0.00107986
0.000647662
0.000410169
0.00093442
-0.00106111
0.000106994
0.000579128
0.000274779
0.00021666
-0.000135559
-8.1101e-05
-0.000371864
-0.000231824
0.000603453
-0.000602076
0.000864256
-0.000268755
0.000112154
0.000220958
-0.000248932
0.00017044
7.8491e-05
0.000252287
-0.000445522
0.000193239
0.000225834
-0.000231659
0.000635463
8.82425e-05
-0.000724479
-0.00038032
-0.00048387
0.000843481
-0.000183057
0.000400909
-0.000217873
-0.000192153
-4.36914e-06
0.000196522
-0.000244014
2.18531e-05
0.000222161
-0.000363795
3.82244e-05
0.000325548
-0.000956857
0.000751389
0.000205366
3.83112e-05
-0.000208823
0.000470771
0.0011548
-0.0010016
-0.000158805
-0.000201125
0.000788021
0.000338554
-0.000215847
-0.000122712
0.00010896
0.000364545
-0.000473568
8.49969e-05
-0.000851775
0.000765633
4.38032e-05
-0.000254384
0.000210575
-0.000162376
0.000797039
0.000382296
0.000202099
-0.000584742
-0.000164775
-0.000142495
0.000776539
-0.00063624
0.000491248
-0.000859697
0.000368088
0.000236531
-2.60518e-05
-0.00021048
-6.30549e-05
-0.00018096
-0.000117186
0.00020485
-8.76639e-05
-0.000359316
-0.000316361
0.000675247
-7.02869e-05
0.000186013
0.000268287
-0.000109656
-0.000158631
0.000242645
-7.06902e-05
-0.000171955
-0.000301505
0.000683404
3.0503e-05
-0.000769528
0.000896742
0.000185646
3.73215e-05
-0.000231745
0.00019442
-6.91685e-05
0.000975461
0.00111637
-0.000372594
6.17877e-05
0.000256578
-0.000372245
0.000128521
0.000243712
-0.000170581
0.00031574
-0.000750788
0.000856592
0.000107039
-0.000371749
0.000264921
0.000106818
-0.00131356
0.00102901
0.000280662
0.000535498
-0.000257026
0.0005679
0.000873358
-0.000224155
-2.89308e-05
0.00108756
-0.000243898
-0.000845385
0.000238976
-8.09585e-05
-0.000158017
-0.000194686
0.000189483
5.20259e-06
-0.000154459
-0.000172843
0.000327301
-0.000931057
0.000956331
0.000128687
3.07441e-05
0.000563081
0.000216134
0.000528875
-0.000838513
0.000308941
2.95166e-05
0.000209459
0.000918187
-0.000907781
-1.21755e-05
-0.000577128
0.000778064
-0.000206536
-0.000678068
6.91098e-05
0.000258871
-0.000358077
9.91902e-05
5.88519e-05
0.00021821
-0.000277072
5.82735e-05
0.000368996
0.000427337
-0.000265928
-0.000126243
0.000392148
-0.000951195
0.000314043
-0.000274131
0.00122116
-0.000964971
-0.000950993
-0.0001558
0.00110523
-2.74819e-05
-0.000167204
0.00031859
-5.99355e-05
-0.000258659
0.000182433
-5.68819e-05
-0.000125551
-6.30229e-05
0.000544588
0.00049912
0.000347547
-0.000789958
0.000645303
-9.58396e-05
-5.82759e-05
0.000154115
0.000535524
-0.000698599
3.24887e-05
0.000210156
0.000463636
-0.000935817
0.000470151
4.52637e-05
-0.000201165
0.000155901
7.62007e-06
-0.000297014
0.000289385
0.000368669
-0.000497225
0.00114031
-0.000974648
-0.000169041
-7.52636e-05
-6.03625e-05
8.96124e-05
-0.000254754
0.000707671
0.000522402
-0.000216654
-0.000305826
-6.54468e-06
0.000243075
-0.000393922
-0.000173273
0.000974064
-0.00043259
-0.000565325
-0.00080094
-0.000249177
0.0010332
0.000229724
-9.42039e-05
-0.000138825
-3.81327e-05
-0.000249679
0.000420192
-0.000397465
-2.27618e-05
0.000181863
0.000211186
-0.000393048
-0.000478967
-0.00040985
0.00088772
-9.10856e-06
0.000135115
-0.000126007
-0.00011067
-0.000253142
2.45006e-05
0.000407963
-0.000724733
0.00111746
-0.000396022
-0.000246394
0.000290191
-0.00124819
0.000299158
0.000259831
-0.00101438
0.000750227
-0.000281061
0.000185457
9.56027e-05
-5.02954e-06
-0.000146146
0.00010711
-0.000133097
-0.000861089
-0.000112037
0.000455785
-0.000343813
0.00094462
-0.00125141
0.000298952
-4.86182e-05
0.000186252
-0.000137634
-0.000198032
0.000732836
0.000413589
0.000358975
-0.000772646
0.000106534
-0.000157846
0.000154171
-0.000554191
0.000198853
-0.000188375
-1.04781e-05
-0.00077445
0.000976535
-0.000121348
-0.00119253
0.000215971
0.000977188
-0.000433722
6.7786e-05
0.000365891
0.000165636
3.25243e-05
-0.000198161
0.000156388
7.26518e-05
-1.21441e-05
-1.27763e-06
1.08162e-05
-0.000200957
-0.000171295
-0.0001758
0.000483965
-0.000308303
0.0005854
-9.46898e-05
-0.000490847
-0.000126063
0.000281565
-0.000155505
-0.000787407
0.00104253
0.00035269
-0.00108659
0.000875352
0.000210455
-2.22006e-05
5.54411e-06
0.000195882
-0.000321949
-0.000109257
-0.000282165
-0.000477151
0.000169745
0.000307379
-0.000147142
-0.00028662
0.000943555
-0.00085399
0.000365514
-0.000113223
-0.00100161
0.000880193
-0.00110751
0.000849019
2.04285e-05
0.000298156
0.000455856
-0.00127343
0.000811939
-0.000304079
0.000183607
-0.000417331
0.000734593
-0.000599483
-0.000294115
0.000894887
-0.000626925
0.000162299
-0.00028856
5.86131e-05
-0.000151953
9.33395e-05
6.66512e-05
0.000201635
0.000582899
-0.00094946
0.000363753
0.000690432
-0.00035268
8.0393e-05
-0.00018807
5.9743e-05
-0.000936303
0.00086885
0.000316317
-0.000257476
-0.000679453
-0.000180241
0.00085848
0.00027158
-0.000655574
0.000383799
6.3319e-06
0.000309973
6.75477e-06
0.000906872
0.000156953
-0.000155551
-0.000865407
0.00107259
-0.000210536
-0.000550309
0.000246642
7.3619e-07
5.54384e-05
-7.86956e-05
0.000522232
0.000144858
-0.000165168
2.03096e-05
0.000132429
-0.000199171
6.67408e-05
-0.00013362
-0.000115313
0.000444828
0.000161247
-0.000606481
-3.17636e-06
-0.000848509
0.000850461
0.000593688
-0.000205071
-0.000560045
0.000216526
-7.19309e-05
-0.000179568
0.000251495
-0.000240147
3.69672e-06
0.00023645
8.91056e-05
0.000249442
0.000943976
-0.000482421
0.000545957
0.000611549
0.000248574
-0.000180023
-6.85505e-05
0.000162613
0.000225025
-0.000387633
0.000200654
0.000586173
-0.0007922
-0.000799929
0.00109268
-0.000294679
-0.000260534
-0.00021664
0.000117712
-0.000300787
-0.000210204
0.000114364
3.33943e-05
0.000215179
-0.000849405
0.000880749
-3.35433e-05
0.000316383
0.000532939
-0.000851308
-0.000137824
0.000165191
-2.73674e-05
0.000177894
0.00098991
-3.22139e-05
0.000948491
0.000109004
-0.000268011
0.000158995
-0.000265269
-0.000355591
0.000620495
0.000504567
-0.000809027
0.000302764
-0.000128045
0.000186658
0.000152308
-0.000153881
1.11187e-07
-0.000221659
-0.000264838
0.000486457
-0.000209045
-0.000162711
9.37964e-05
8.16635e-05
0.00068763
0.000257366
0.000209334
0.000785258
-0.0009964
0.000295949
0.000497528
-0.000796041
-4.95835e-05
-0.000894556
0.000936261
-0.00010519
0.000342696
-0.000237525
0.000736383
-0.000792577
0.0005899
-6.68435e-05
-0.00052328
-0.00079925
0.00109167
0.000889209
-0.000551727
-0.000338458
-0.000798361
-5.3978e-05
0.000767269
-0.000136269
0.00137285
-0.000442536
-0.000937647
0.00125976
-0.000676521
-0.000586679
0.000754312
0.000230692
-0.00099132
-0.000365297
0.00111233
-0.000877581
0.000553872
0.000322703
8.31643e-05
-0.0002689
0.000185735
0.00012666
-0.000219021
9.23609e-05
0.0012502
-0.00068677
0.000283911
-1.89049e-05
-0.00026501
-0.000345051
0.000664139
-0.000319243
0.000224951
-9.82913e-05
0.000635167
-0.000631306
-4.40871e-06
-6.74652e-06
0.000400518
-0.000393854
-0.000821098
-0.000131181
0.000275332
-5.4992e-05
-0.000220344
0.000777933
-4.43258e-05
0.000159777
-0.000816989
0.000235041
0.000244205
-0.000975606
0.000709992
-5.67268e-05
-0.000183421
0.00097349
-0.000563834
-0.000411022
4.37318e-05
-0.000218486
-0.000578433
0.00030019
0.000278021
-4.52677e-05
0.000634896
0.00109407
-0.000920311
-0.000723581
0.000776984
-0.000193165
0.000195428
-2.26346e-06
0.000759229
-0.000149206
0.000179366
-0.00088234
-0.000209982
0.00108386
0.000184447
-2.01407e-06
0.000182346
-1.77304e-05
-0.000164616
-0.000208575
0.000317566
-0.000723371
0.000397988
-0.000696002
0.000176563
2.229e-05
0.000109149
-0.000121799
0.00121439
-0.0011876
-3.38117e-05
-0.000143805
-6.63985e-05
0.000113722
-0.000151425
3.18297e-05
-0.000216727
0.000850343
0.00018145
-0.000143139
-0.000737571
0.000997731
0.000170248
-2.53898e-05
0.000337011
0.00025581
-0.000593146
0.000331235
0.000218848
-0.000550278
0.000192313
-9.9673e-06
-0.00113145
0.000476562
0.000654642
0.0001563
0.0010508
0.000254297
-9.21585e-05
-0.00016214
-0.000262768
0.000489474
-0.000189521
-0.000190054
0.000265465
-8.9093e-05
-0.000872644
0.000958741
0.000580775
-0.000983808
-3.8478e-05
-0.000876441
0.000389693
-0.000213065
-0.000176635
-0.000527
0.000341773
0.000185145
-0.00106165
0.000345159
5.44967e-05
3.3048e-05
-9.20803e-05
0.000901682
-0.000973258
-0.000443978
0.000222294
4.71553e-06
-0.000142539
0.000216881
0.000500394
-0.000717775
-0.000722592
0.000683258
-0.000142315
1.80063e-05
0.000123431
-8.42464e-05
0.000718824
4.34756e-05
0.000258938
-0.000302426
0.000199399
-3.37634e-05
-0.000151222
0.000196486
0.000245092
1.48891e-05
-0.000259985
-0.000241117
-0.00019874
0.000439839
-0.000283821
0.000490865
-0.000207085
0.00018437
1.48068e-05
0.000830944
-0.00108103
0.000245215
-0.000436721
-0.000618669
0.00103814
-0.000330257
0.000905735
0.00033888
-0.000114887
0.000349666
-0.000234795
-7.89409e-05
-0.000852036
0.000927322
0.000139163
3.69569e-05
-0.000198393
-0.000346292
-9.77116e-05
0.000264194
-3.8733e-05
0.000224056
0.000160443
-0.000401572
-2.23899e-05
-0.000169763
0.000924305
-0.00111704
0.000187529
0.000999829
0.00114222
-0.000939879
-0.000205755
0.000847004
-0.000116936
6.07429e-05
-8.93729e-06
-1.09438e-05
0.000159618
-0.00095128
5.25522e-06
0.000208119
-0.000213375
0.00117081
-0.000591187
0.000170344
0.000677554
-0.000872528
0.000253989
2.12022e-05
-6.64456e-05
-0.000220294
0.000286715
0.000515075
-0.000967462
-0.000992469
6.00578e-05
0.000929586
-0.000365441
0.000527436
-0.000162043
-0.000148855
-0.000132207
0.00098858
-0.000410437
0.00121394
-0.000847288
-0.000374236
-0.000261989
-0.000275705
0.000766547
4.77753e-05
0.000169655
-0.000217431
-0.00067348
-8.7641e-05
-0.000813928
0.000205836
-0.000124047
-8.17888e-05
0.000224954
-0.000291424
0.00104284
-0.000793384
-0.000268357
-0.00022138
8.69384e-06
0.000212685
-0.000151489
-1.16963e-05
0.000163186
-9.04874e-05
0.000238417
-0.00014793
-0.000932579
0.000837636
0.000516827
0.000689396
0.000822891
-0.000294731
0.000411984
-2.22271e-06
-0.000409811
-0.000806046
0.000796449
9.42324e-06
-0.000200045
0.000190936
0.000141713
0.000247972
0.000251117
3.27894e-05
-0.000331639
0.000103117
0.000228516
0.000944487
-0.000721728
0.000651737
-0.000315071
0.000191922
-0.000169699
-2.22234e-05
0.000200423
0.000213812
-1.92301e-05
-0.000194583
-0.000645728
-0.000351682
0.000996159
-0.00047561
0.00076006
-0.000284914
-0.000899894
0.000425366
0.000125814
5.27052e-05
-0.00017852
0.000152745
-0.000180197
5.48278e-05
-0.000386343
0.000838038
0.000247878
0.000794451
0.000169191
0.000220639
-0.000772801
0.000550862
-0.000390664
-0.000136407
-0.000826611
0.000981743
0.000234762
1.95315e-05
-0.000630523
-0.00026983
0.000223668
-3.1442e-05
-0.000305221
-0.000736939
0.00104063
-0.000238693
0.0011376
5.3842e-05
-0.000172066
-0.000165686
0.000564263
-0.000681415
0.000413411
0.000267696
-0.00025944
0.000302904
0.000862962
0.000207129
-0.00107829
-0.000104197
0.000378909
-0.000274766
0.000225789
-3.80737e-05
-0.000187716
0.000661888
2.08514e-05
-0.000683406
0.000214635
0.00092159
4.3648e-05
0.000653838
-0.00069777
0.00045815
0.000218196
-0.000677024
1.38701e-05
-0.000118837
0.00010186
-0.000648719
-4.08451e-05
0.000689097
-0.00056711
-0.000155246
0.000816303
0.000375235
-0.000314949
-6.03094e-05
-0.000833821
0.000819437
0.000202327
0.000908072
-2.37211e-05
0.000156869
-0.000466005
0.000619949
-0.000439526
0.000942253
0.000331615
0.00104529
-0.000126373
0.000595559
-0.00095844
0.00030113
-0.000723839
0.000857644
-0.000161272
0.000622337
-0.000284081
-0.000338219
-0.000481898
-0.000266002
0.000747636
-0.000365001
0.000312162
5.28144e-05
-0.000284892
0.000698375
0.000132222
-0.000188949
-0.000320795
0.000973916
-0.000655776
0.000107398
6.80622e-05
-0.000518651
0.000774964
-0.000256584
0.00059466
0.000256382
0.000209195
-0.000201581
0.000188151
0.000219626
-0.000254551
3.49227e-05
-0.000757741
0.000777834
0.000449721
0.000522187
-0.000185358
-0.00075442
-0.0012256
0.00119085
2.98793e-05
4.74781e-05
0.000354073
-0.000401626
0.000204748
0.000309136
-0.000514045
-0.000629588
0.000249665
0.000379729
-0.000102421
0.000412763
-0.000310383
0.000167073
-0.000320962
-1.59649e-05
0.000336895
0.000103879
1.95781e-05
-0.000166968
-0.000217575
0.000174463
4.31112e-05
0.000304664
-0.000155205
-0.000149463
-0.00107083
0.000155482
0.000912462
-0.000306047
-0.000921427
0.000385027
0.000237318
-0.000116778
-0.000108267
0.0004272
-0.000682375
0.000370357
-0.0003494
-2.71568e-05
-0.000200481
0.000423193
-0.000222713
-1.07997e-05
0.000386006
-8.16009e-05
-0.000387458
-0.000347394
0.000557864
-0.000210527
-0.000244433
0.000147798
9.66343e-05
0.000816846
-0.000731759
0.000463169
-0.000474111
1.08858e-05
8.48275e-05
8.45741e-05
-0.000169402
0.000256729
-0.000250406
-0.000238396
3.06332e-05
0.00034624
-0.000376903
0.000348744
-8.98893e-05
-0.000772541
7.44373e-06
0.000764201
4.16901e-05
-0.000120875
-0.000786863
-0.000101968
0.00118775
-0.000324224
0.000180328
0.000116856
-0.000285047
0.000168192
0.000131438
8.5222e-05
0.000302089
-0.000218926
-0.000151686
-3.32031e-05
0.000184889
0.000179482
-0.00017819
-1.29192e-06
0.000251952
-0.000452433
-0.00081252
0.000262841
-0.000190387
0.000190403
-1.64932e-08
-0.000266183
0.000255127
1.10541e-05
-0.000755494
0.000361818
-0.000135161
-0.000226658
-3.74587e-05
0.000177297
-0.000139838
0.00028156
-0.00026661
-1.49533e-05
0.000605444
-0.000388961
-0.000868805
0.000296447
0.0005475
-9.79035e-05
0.000913438
-0.000550043
-0.000317583
0.000866466
-0.000349318
0.000806702
0.000503594
-0.000439886
-6.37913e-05
0.00108645
-0.000635616
0.00010453
7.09297e-05
-0.000365276
-0.000513263
-0.000553334
0.000814202
-0.000261408
0.000174167
-4.83525e-05
0.00094357
-0.00111347
0.000163871
-0.000301061
-0.000380666
-3.17076e-05
0.000245518
0.00124273
-0.00109411
-0.00102969
0.000557567
0.000470009
0.000195868
-0.000200259
4.39081e-06
-0.00065389
0.000237609
0.000378226
-0.000326694
0.000222448
-0.000740493
-0.000207948
0.000120506
8.74417e-05
-0.000103608
-0.000654847
-0.000518389
-0.000166474
0.000684501
-0.000358192
-0.00042128
0.000869608
-0.000449236
0.000384273
2.76577e-05
-0.000558364
0.000784395
-0.000226017
0.000180148
-0.000179481
-0.000474912
-8.88307e-05
0.000563604
-0.00102152
3.40626e-05
0.000982054
9.71728e-05
7.82872e-05
-0.00017546
3.84527e-05
-0.000557145
-8.74803e-05
-9.729e-06
0.000137078
-0.000127349
0.000294254
-4.02715e-05
0.000292277
0.000960975
-0.000491273
0.00100155
-0.000845989
-0.00017545
-0.000163463
1.19733e-05
0.000590649
-0.00054724
-0.000623339
-2.57913e-05
-2.22262e-05
0.000258365
-0.000245286
-0.000685059
0.000267005
-2.19158e-05
0.000258075
-0.00020034
-5.77362e-05
-0.000533068
0.00019651
-8.9112e-05
0.000231878
-0.000346778
0.000909256
-0.000136541
-0.000773834
-0.000308916
-0.000583756
0.000338131
-0.000278618
-0.000300015
0.000165081
0.00025507
0.000217106
0.000764404
-0.000990414
0.000259291
-3.96676e-05
0.000311179
-0.00067084
-0.000508422
-9.82842e-05
-6.75718e-05
0.00010854
-0.000188891
-0.000163649
-0.000652172
-0.000719091
-0.000216781
-0.000202299
0.000494247
-0.000292058
0.00026045
-8.11513e-06
-0.00103395
0.000222701
-0.000150803
-3.72494e-05
0.000188053
9.29185e-05
-0.000163201
-0.00081685
0.000979232
0.00114504
4.08383e-05
-0.000425951
-2.39428e-05
0.000449831
-0.000512269
0.000264649
-0.000789681
0.000226315
0.000411738
-0.000249121
0.000682386
0.000573849
0.000162282
2.96397e-05
-0.000308461
0.000611829
-0.000303562
0.00100797
-0.000829443
-0.000180139
4.91024e-05
0.000235636
-0.000284738
8.25698e-05
-0.000167142
-0.000783762
-0.000122172
0.00089253
6.7283e-05
0.00019079
-0.000674435
0.000611727
0.000111483
0.00112353
-8.18121e-05
-0.000724608
0.000462384
-0.000556784
9.43994e-05
0.000198545
-0.000177692
-2.08538e-05
0.000678186
-0.000233709
0.00017011
-8.52827e-05
0.00075428
-0.000506445
-0.000248142
-0.000264282
9.7656e-05
0.000166625
-0.000173355
-0.000158289
0.000719036
-0.000712426
2.94509e-05
0.000975928
-0.000768373
0.000316157
-0.000118672
-0.000197486
-0.00083958
-0.000139464
-8.1916e-05
-0.000165791
0.000126052
0.00107005
-0.000782677
-0.000289586
-5.83762e-05
0.000183113
-0.000124736
-0.000484142
-0.00031042
0.00079377
-0.000592473
7.36406e-05
-0.000280803
5.63704e-05
0.00022443
0.00043929
-0.000214135
-0.000225158
0.000190413
-1.38498e-05
-0.000373023
-0.000708462
0.00106423
-0.000125424
0.000257645
0.00110016
-0.000206877
-0.000895402
0.000248955
-6.88078e-05
0.00110001
-0.000597626
-0.000505867
-0.000174061
-0.000456901
-0.000582675
0.000800066
1.42606e-05
-0.00110473
0.00107731
0.000254028
-8.80501e-05
-0.00022105
-0.000641826
0.000367599
0.000274022
-5.01132e-05
0.000270591
1.09645e-05
-0.000257417
0.000818184
2.59371e-05
-0.000190418
0.000164481
-0.000125991
0.000844047
0.00102577
-0.00102394
0.0007683
-0.000549264
0.000769854
-0.000476041
-0.00029406
-0.000359679
0.000319381
4.02597e-05
-0.00022725
-5.35552e-05
0.000721925
-4.41336e-05
7.53649e-05
2.52441e-05
-0.000645745
-0.000149387
0.000794496
-0.000150184
-9.47615e-05
0.000430951
-0.000338507
-0.000939983
-0.000366478
-0.000748232
-0.000658645
1.23623e-05
-0.0007908
0.000485839
0.000304323
0.00019416
-8.96295e-05
-0.000224299
0.00116137
0.00018253
8.71227e-05
-0.000269657
0.000372875
-0.000263959
0.000116648
0.000188012
9.77238e-05
-0.000188212
-0.000110242
-9.12421e-05
-0.000821868
0.000591474
0.000201478
-0.000551667
0.000209021
0.000342424
0.00120176
0.000393125
0.000581329
-0.00097685
-0.000498955
-0.000292295
0.000790461
0.00014508
-0.000182539
0.000617798
-0.000910881
0.00026642
-0.000895018
0.00070273
-4.73428e-05
0.000140514
-0.000147092
8.89048e-05
0.000793844
-0.000776322
-1.80578e-05
-0.000326
-0.000699448
0.000631519
-0.000560508
-7.12982e-05
0.000678038
-0.000251266
-0.000215344
7.42387e-06
0.00020792
0.000197349
-0.000110836
0.000233288
0.000723641
-0.000966475
-0.00101682
0.000997857
1.76707e-05
-0.000193492
0.000762527
-0.000236609
0.000198229
3.838e-05
0.000145881
3.79738e-05
-0.000246947
0.000209821
3.71256e-05
-0.000107966
0.000303844
-0.000337314
0.000256927
8.03797e-05
-0.000107454
0.000281247
-0.000173798
-0.000686987
-0.000458864
0.00077564
-0.00102641
0.000202132
-0.00107064
-0.000770917
0.000965435
-0.000195369
0.000789492
-0.000594123
-0.000934879
-0.000252238
0.000257839
-5.60392e-06
-4.30936e-05
-0.00016767
0.000160109
-0.000887776
-0.000416443
0.00028804
0.000128398
0.000672793
-0.000442069
-0.000264397
0.000721332
0.000186817
0.00051498
-0.000560488
-0.000452209
-0.000485214
-0.000652903
-0.000719186
-0.000312036
-0.000244026
0.000108257
0.000149837
-0.000206719
0.000351299
3.48709e-06
-0.000354876
0.000176914
1.34985e-05
0.000141722
-0.000425576
-8.17073e-05
0.000187634
-0.000312051
-8.54447e-05
-5.3494e-05
-0.000178253
-0.000234856
0.000203928
3.0928e-05
0.000230786
-0.00053942
0.000227576
-1.78749e-06
1.98875e-05
-0.000340877
0.000167254
-0.000176983
-0.00087567
-0.000176873
0.00104584
-0.000891101
-0.000679417
-0.000152273
0.000813661
-0.000752161
-0.000190384
-0.000159608
0.000349987
0.000298657
7.51512e-05
-0.000153257
7.92212e-05
0.000395892
-0.000500107
0.00010414
0.000563841
-0.000130528
-0.00046199
-0.000386906
-0.0001752
0.00056241
-0.000277623
-3.58336e-05
-0.000109803
0.000137436
0.000178144
5.82443e-05
-0.000236393
-0.000958229
3.36468e-06
0.00094956
8.44837e-05
-6.79201e-05
-0.000358082
0.000771113
-0.00103141
0.000241121
0.000359939
-6.6115e-05
-0.000293844
0.000258528
-0.000141672
0.000347486
-0.00100647
0.000656893
-0.000205885
-0.00071106
0.000914156
-5.59328e-05
0.00106876
-0.000228592
-0.000189495
0.000418048
0.00057352
0.000375599
0.000829153
-0.000490577
-0.000339843
-0.000283499
0.000336875
-5.33824e-05
-0.00105575
0.000964057
9.1634e-05
0.000228491
-0.000146781
-8.17101e-05
0.000825017
-0.00114824
0.000319173
0.000211569
-0.000178175
0.000505336
-0.000816799
0.000309861
0.000372331
2.04126e-05
-0.000392822
0.00103046
-3.2932e-05
-0.00100438
-0.00054037
0.000276587
0.000263639
-0.000148637
0.000663335
0.00018022
-0.000639844
-0.00061131
0.000956773
3.48217e-05
0.000193668
-0.000830291
-0.000486555
-0.000171991
0.000168143
3.84781e-06
-0.000155489
-7.89495e-06
0.000163384
0.000397974
-0.000877847
5.12521e-05
-7.0237e-05
-0.000445763
0.000788952
0.000582833
-0.000869866
0.000268223
3.89844e-05
-0.000189787
0.00116069
-2.02882e-05
1.91085e-05
0.00019246
0.000151953
5.88105e-05
0.00056499
-8.11555e-05
0.00021617
-0.000123974
-9.21956e-05
9.73392e-05
-0.000207847
-0.000921552
0.00116129
-0.000245686
-0.000150924
-0.000162158
-7.26985e-05
-0.000457933
-0.000100403
0.00101567
-0.000777799
-0.000244821
0.000990578
0.00014814
0.000829558
0.000913281
-0.000237611
-0.0006782
-0.000294431
-0.00020548
0.000499857
0.00015063
-0.000237852
8.72217e-05
-0.00030748
-0.000562763
0.000869342
-0.00015227
0.000181488
-0.000155551
-0.000328196
9.65867e-05
0.000231598
5.58915e-05
-0.000460215
0.000404272
0.000628827
0.000219576
-0.000852343
0.00010395
-0.000168464
6.45135e-05
0.000117605
0.000505923
0.000125336
-0.000154602
0.00117853
-0.000220977
0.0010895
-0.000869822
-0.000225696
0.00021195
1.37451e-05
-0.000909016
-5.88583e-05
-0.00014909
0.000244455
3.87679e-05
8.08185e-05
-0.000123527
0.000505022
0.000264591
0.000204371
-0.000234913
-1.14268e-05
0.000549482
0.000172022
0.00014454
0.000448295
-0.000593489
-5.37445e-05
0.000581448
-0.000830365
0.000657603
0.000144695
0.000213612
0.000696928
-0.000107198
-9.33682e-05
0.000200566
-0.000230195
0.000131598
9.27376e-05
-0.000610887
-8.93636e-05
-0.000109747
-0.000969452
0.00074736
0.00112451
-0.000188063
0.000280802
-0.00054568
-0.000153487
-6.14083e-05
0.000214895
-0.00055823
-0.000124917
0.000682593
-0.000207282
3.13697e-05
0.000175912
1.33335e-06
0.000776696
0.00103346
-0.000517322
-0.000439379
-2.00171e-05
-0.00017037
0.000235484
-0.000186382
6.4346e-05
0.000150823
-0.000215169
-7.92959e-05
0.000120483
-0.000513132
0.000875219
0.00019377
-9.94093e-05
-0.000107872
-0.000414063
0.00112643
-0.000724311
-0.000120617
0.000298756
0.000196387
0.000215445
-0.000176461
-0.000318593
0.000200161
0.000109008
0.000391339
-0.000347345
-7.76425e-05
-0.000144175
-0.000193145
-0.000458966
0.000980242
-0.000524919
7.48985e-05
-0.000182096
0.00102712
-0.000201057
0.000145433
-0.00020381
9.79634e-05
-0.00105953
0.00079339
-0.000610991
-9.1166e-05
-7.76447e-05
0.000260169
5.88735e-05
-0.000210448
0.000151575
-0.00053971
-0.000299449
-0.000811461
0.00100207
-0.000193614
-0.000509366
-0.000622828
-0.000929221
-0.000727067
0.00093566
0.000106643
-3.03956e-05
-7.68863e-05
-0.000293607
0.000370453
-0.000123498
-0.000679048
0.00080065
-0.000258708
0.000193105
6.56019e-05
0.0010074
-0.000457549
-0.000550882
-0.000165883
-7.07263e-05
-0.000879152
0.00103794
-0.000164833
0.000768893
2.54167e-05
-0.000811383
-0.000298775
7.04501e-05
0.000228318
0.00021949
-0.000130486
-8.90041e-05
-0.000242595
3.93604e-05
0.000203232
0.000583858
-0.00102474
0.000438901
-7.92841e-05
0.000197315
-0.00105743
0.000172395
0.000232349
-9.64323e-05
-0.000135917
-0.000610362
0.000330752
-0.000367472
3.66965e-05
0.000947454
0.000174513
-0.000138368
0.000236091
0.00116826
-0.000923777
-0.000251211
-0.000458168
0.000602053
0.000766371
-0.000770683
0.00018753
0.000902194
-0.00109464
-0.000159173
0.0001702
0.000189884
3.37837e-05
-0.000304093
0.000242586
6.15003e-05
0.000203873
-0.000121277
-8.25965e-05
0.000405306
-0.000349461
-0.000384883
-0.000428724
0.000812543
-0.000482205
-0.00043381
-0.000113259
0.000789666
-0.000693276
-0.000180404
0.000839435
-0.000223781
-0.000467485
0.000622205
0.000385944
-2.60277e-05
0.000302235
0.000793114
-9.77745e-06
-0.000120764
0.000130542
-0.000493579
0.000367281
0.000126246
0.000243793
0.000764693
0.000280087
-0.000762254
0.000134662
9.76868e-05
0.000352629