/*--------------------------------*- C++ -*----------------------------------*\
| =========                 |                                                 |
| \\      /  F ield         | OpenFOAM: The Open Source CFD Toolbox           |
|  \\    /   O peration     | Version:  v2012                                 |
|   \\  /    A nd           | Website:  www.openfoam.com                      |
|    \\/     M anipulation  |                                                 |
\*---------------------------------------------------------------------------*/
FoamFile
{
    version     2.0;
    format      ascii;
    class       volVectorField;
    location    "750";
    object      ddt0(U);
}
// * * * * * * * * * * * * * * * * * * * * * * * * * * * * * * * * * * * * * //

dimensions      [0 1 -2 0 0 0 0];


internalField   nonuniform List<vector> 
18758
(
(-0.00914567 0.00121871 -1.1901e-17)
(0.00562587 -0.00827233 1.50214e-17)
(5.99237e-05 -2.09074e-05 -8.49258e-20)
(-0.0369909 0.0715387 -5.58653e-18)
(-0.014027 0.0219402 -4.65316e-18)
(-0.0330185 -0.00725054 1.03343e-17)
(0.00946942 0.00103603 -5.179e-17)
(-0.000176637 -0.000148203 2.70847e-19)
(0.00165007 0.0181007 -1.01567e-17)
(-0.00277623 7.92781e-05 -3.03227e-19)
(-0.00147829 -0.00120674 -5.75447e-19)
(-0.00793002 0.00374562 -6.53266e-17)
(-0.000147764 8.99706e-06 3.39668e-19)
(-0.0355087 -0.0306217 6.61258e-18)
(0.00138212 -0.00164314 -7.56657e-19)
(-0.00381612 0.00950961 -1.69948e-17)
(-0.00473939 -0.00357333 1.5655e-17)
(-0.000209024 -4.62893e-05 9.29374e-19)
(0.000106198 -0.000697943 -1.54074e-18)
(-0.00335613 -2.36012e-05 7.13466e-20)
(0.0171623 0.00424401 -1.04185e-18)
(-3.47896e-06 6.40309e-05 2.0233e-18)
(0.00621339 0.00128886 6.36127e-18)
(-0.0107483 0.0366083 -1.39833e-17)
(-0.00232611 -0.0213522 2.2424e-19)
(-0.000177377 -0.000129852 6.75803e-19)
(-0.00695566 0.010784 -1.47346e-18)
(-0.0245629 0.0175588 -1.25308e-17)
(-0.0648057 -0.0155692 -8.77135e-18)
(-0.0118737 0.0112899 -2.52654e-17)
(-0.0126059 -0.0106794 1.99109e-18)
(0.0444159 0.0052309 1.92626e-18)
(-4.00346e-05 1.56287e-05 9.15752e-19)
(-0.000446124 -0.00131066 -4.32493e-19)
(-0.0246983 -0.00040257 4.67492e-18)
(-4.74437e-05 0.000727123 4.95421e-19)
(-1.32499e-05 2.016e-05 -5.07681e-18)
(-0.000643814 -0.000893967 9.22416e-19)
(-0.000805937 -0.00101837 4.00465e-18)
(-0.00502338 -0.00259257 4.17487e-18)
(-0.000593489 -0.000893742 1.72822e-18)
(-0.00173282 0.00181855 -2.62451e-17)
(-7.07855e-05 -0.00035295 -7.39842e-20)
(-0.00221533 0.0010067 -7.54637e-18)
(-0.0163309 0.00609205 -6.17935e-18)
(-2.43544e-05 -7.67888e-05 8.82717e-19)
(0.0073764 0.00102698 5.35563e-17)
(-0.00176066 -0.00102827 2.16253e-18)
(-0.00270544 0.000109854 1.02018e-18)
(-2.2386e-06 -0.000249588 -1.3003e-20)
(-0.00392559 -0.00752004 -2.15155e-17)
(0.0181714 0.019915 1.83906e-17)
(3.79739e-05 -6.06511e-05 -1.15836e-19)
(-0.00142282 -0.00119707 2.05026e-18)
(-0.0308458 0.01621 1.67395e-17)
(-0.0378081 -0.00471721 1.60138e-17)
(-1.86551e-05 2.41589e-05 -8.16713e-19)
(-0.00234507 0.00866238 -5.5676e-17)
(-0.000608 0.000884831 -9.99793e-18)
(-0.0390698 -0.028259 -2.61043e-18)
(-0.00838955 -0.000351281 1.74747e-18)
(0.00883428 0.00121816 6.23076e-17)
(-0.00168949 0.00715296 -2.12227e-17)
(-0.00111964 0.00132494 -9.44528e-18)
(3.43473e-05 -6.86932e-05 -4.7152e-19)
(-0.00014886 0.000170113 -3.057e-18)
(-0.00547835 -0.00322097 9.31272e-18)
(-4.71027e-05 2.05374e-05 6.37185e-19)
(-0.000564303 -0.000850951 -1.19904e-18)
(0.0179465 0.0192941 -1.8864e-17)
(0.0095051 0.0193551 2.11845e-18)
(-0.000679447 0.00150211 5.25702e-18)
(-1.25994e-05 -0.000271328 -2.79711e-20)
(0.00478855 0.00488741 -1.29347e-16)
(-0.000185923 -0.00037924 -2.15107e-19)
(-0.00062574 0.000838412 4.43021e-18)
(-0.0175728 0.0201457 6.33233e-17)
(-0.0107254 0.0223337 -9.36452e-18)
(-0.00591941 0.00492732 8.24447e-18)
(0.0070034 0.00285129 -2.33386e-17)
(-0.00602407 -0.00862559 -7.61647e-17)
(-0.0165008 0.00454212 -2.02521e-17)
(-0.0394994 -0.0260471 -3.31196e-18)
(-0.0323107 -0.0023343 1.76809e-17)
(-0.019288 0.0202765 1.07806e-17)
(-0.00221974 -0.00169523 3.65312e-18)
(-0.00311769 0.00290048 -3.32474e-17)
(-0.0014076 0.00666797 1.5301e-17)
(0.0050611 0.00105339 -9.6133e-18)
(-0.000659234 0.000840312 -5.44516e-18)
(-0.0366451 -0.00287862 -1.95708e-17)
(-0.000587299 0.00087882 8.56634e-18)
(0.00111652 0.00306782 6.62886e-18)
(-0.00179467 0.00187126 3.75938e-17)
(-0.0077947 -0.0103557 -6.52376e-18)
(0.00184961 0.00281268 -1.60114e-17)
(-0.0203931 0.0192129 -2.06343e-17)
(-0.000189669 -0.000393916 4.84712e-19)
(-0.000466907 0.000446694 4.15658e-19)
(0.017633 0.00532248 -1.95007e-18)
(-0.00347375 -0.000212003 -8.57428e-19)
(-0.0431376 -0.00230484 -3.40663e-17)
(-0.0114601 0.00218994 -1.96711e-17)
(-0.003797 -0.00228467 4.20826e-18)
(0.0472502 0.00357962 6.7498e-18)
(-0.0122051 0.0120393 1.37497e-17)
(0.0394405 0.0267238 1.42825e-18)
(-0.00607876 0.0235805 5.72286e-18)
(-0.00116679 -0.00104516 -2.98973e-18)
(-0.000322328 0.00168962 2.55958e-18)
(0.00135935 0.00260683 -2.03785e-17)
(0.00128348 0.00786939 2.09832e-16)
(-0.000206043 -3.38251e-05 -1.53182e-18)
(-0.00102471 0.000171566 -2.25427e-20)
(-0.0159588 0.0184231 2.24936e-17)
(-0.0438676 -0.00272982 4.61918e-17)
(-0.0663174 -0.00144647 4.77621e-17)
(0.0014854 -0.00162175 -3.42929e-19)
(0.00222909 0.00327295 -2.45256e-17)
(-0.00633932 -0.0106973 6.34677e-18)
(-0.0022913 -0.00149683 4.03198e-18)
(-0.000280939 0.000691883 -3.66646e-18)
(-0.0505292 -0.00855683 1.91771e-17)
(-0.00453694 0.0106772 -6.7557e-19)
(-0.0138478 0.00210761 5.2621e-17)
(-0.0149452 0.00813741 -4.25192e-18)
(0.017812 -0.00906989 1.25848e-17)
(0.007105 0.0268145 2.42063e-18)
(0.00168266 0.00293566 4.57742e-18)
(-0.00015222 -5.45881e-06 -4.9014e-18)
(-0.00502993 -0.00356513 2.65962e-17)
(-0.0067818 0.0103818 -6.6025e-18)
(0.0198385 0.00207193 9.93789e-18)
(-0.00447293 0.00306345 2.48021e-18)
(-0.00133604 0.0119222 4.74355e-17)
(-0.00158293 0.00116708 4.77317e-18)
(-0.0165736 0.0194539 -4.64771e-17)
(-0.00529022 -0.0024582 3.41164e-18)
(-0.000467815 0.000441336 -1.02928e-18)
(-0.00382885 0.00560593 1.15304e-17)
(-0.00568092 0.00507638 -1.86878e-17)
(-0.00830361 0.00667857 3.70878e-18)
(-0.000893508 0.000480529 8.60707e-19)
(-0.0434801 -0.00105984 -2.09312e-17)
(-0.000587403 -0.000900009 -1.98188e-18)
(0.000237653 -0.00077905 -1.34592e-18)
(-0.0254521 0.00508724 1.56869e-17)
(0.084898 0.0208853 -6.17384e-18)
(-0.0120141 -0.011341 8.7756e-19)
(0.0155363 0.0322868 -1.54096e-17)
(-0.0174509 0.00397023 -1.71829e-18)
(-0.0335964 0.0258148 -4.54452e-18)
(-0.00219249 -0.00162187 7.7449e-18)
(3.3522e-06 5.37691e-05 1.47713e-19)
(0.00384158 -0.0061518 4.89559e-19)
(-0.0020831 -0.00146865 -2.60259e-18)
(0.00419177 0.00330098 2.05441e-18)
(-0.00180169 -0.00100347 -4.67556e-18)
(-0.000994902 0.00089915 -6.30064e-19)
(-4.58265e-07 1.78007e-05 -1.47557e-18)
(-0.000393206 0.000111198 2.89774e-18)
(-0.0392218 -0.0226774 -3.97172e-19)
(0.0026837 0.00211461 -4.52522e-17)
(-0.00099034 0.000871004 2.74685e-18)
(-0.00823425 -0.000476036 1.08683e-17)
(-0.0614638 -0.015918 -7.55057e-19)
(1.74077e-06 -0.000767596 9.652e-19)
(-0.0404051 -0.00346768 -8.7539e-17)
(-0.0111141 -0.0044412 -3.76211e-17)
(-0.0284041 -0.0023237 3.83208e-17)
(-0.0213126 -0.00961525 1.57393e-17)
(-0.000212915 -4.89936e-05 -1.88867e-18)
(0.00222728 0.00205148 -2.41354e-18)
(-0.0219794 0.0189768 1.77134e-17)
(-0.0387883 -0.0212349 1.22032e-17)
(-0.0122794 0.0353506 1.82207e-17)
(-0.0459757 -0.00591279 -1.573e-18)
(-0.00115369 0.00133057 3.09857e-18)
(-0.00382339 0.00557071 -8.01898e-18)
(-0.000944579 -0.000829582 4.74373e-20)
(-0.000196663 4.59375e-05 8.94396e-20)
(-0.0341997 -0.000235509 -1.22049e-17)
(-0.0472102 0.0265978 3.77059e-18)
(4.61168e-05 -0.000303726 -4.46239e-19)
(-0.000530006 -0.00272479 -1.18148e-17)
(-0.0413976 0.0262991 4.00109e-18)
(-0.000486118 0.000600417 3.12688e-18)
(-0.0426304 -0.00376362 -3.5602e-17)
(-4.33182e-05 -0.000306122 -2.63566e-20)
(-0.00042941 0.000545499 -6.21509e-18)
(-0.00467467 0.00304048 -3.34536e-18)
(0.00725629 0.025307 -5.53723e-18)
(-0.00134955 -2.29688e-05 -1.49706e-18)
(-0.011136 -0.0110333 -1.83601e-18)
(-0.00354577 0.00141339 4.73647e-19)
(-0.000559548 0.00666719 5.7134e-19)
(-0.00341016 -4.77857e-05 -2.06662e-19)
(-0.0114296 -0.00495504 2.45408e-17)
(-8.73128e-05 0.000250251 2.42551e-18)
(-5.60247e-05 -0.000331206 -1.04014e-20)
(-0.00282763 0.00572554 -8.00946e-19)
(-0.00178023 -0.000966924 1.51929e-18)
(-0.00374255 -0.00100449 3.28703e-18)
(-0.00145023 0.00305203 -2.33181e-18)
(-0.000143838 1.12152e-05 3.16864e-19)
(-0.00347119 0.00134289 -5.4197e-18)
(-0.0103544 0.00380521 6.86891e-18)
(4.21054e-06 3.78957e-05 -7.96208e-20)
(0.0240491 0.00414142 -9.39682e-19)
(-0.00269523 0.00021689 -1.08233e-18)
(-0.000205767 -2.82534e-05 2.44665e-18)
(-0.00382187 -0.00231913 1.45868e-17)
(-0.00105094 0.000793693 1.2951e-18)
(-0.00350761 -0.00122703 1.1561e-18)
(-0.00494971 0.00496695 3.88304e-18)
(-0.00375748 -0.00398853 1.79738e-17)
(-0.00509686 0.00519421 7.96409e-18)
(-0.0030092 0.00926177 1.7846e-17)
(-6.87693e-05 -0.000241797 -1.61373e-19)
(-0.0334208 -0.00811636 4.29995e-18)
(-0.000208715 -2.92108e-05 -2.8943e-18)
(-0.00120443 -0.00103312 2.15648e-18)
(-0.0253714 0.0134913 -2.36243e-18)
(-0.025157 0.00593352 -1.38866e-17)
(-0.00683613 -0.0109499 -1.20185e-17)
(-0.0105395 0.00309314 -1.09843e-17)
(-0.00139715 -0.00165458 -3.8859e-18)
(-0.00496525 0.00188338 1.88355e-18)
(0.000130375 -0.000224245 -1.19602e-19)
(-0.000761468 0.00263843 2.13072e-17)
(-0.000149722 0.000160578 5.70258e-18)
(-0.000263856 0.00611885 -5.16376e-18)
(0.00738065 0.000345323 -2.42838e-17)
(-0.0221571 0.0198242 -3.75625e-19)
(-0.000147188 9.95086e-06 -1.01611e-18)
(-0.000461153 0.000567112 -9.87712e-19)
(0.000118894 -0.000224241 2.91778e-19)
(-5.35053e-05 -8.96161e-05 -1.71592e-18)
(-0.052149 -0.00842176 -1.56516e-17)
(-0.00298699 -0.00160166 -2.87292e-18)
(-0.000369476 0.00021381 2.65076e-18)
(-0.0155895 -0.00753915 6.18926e-17)
(0.0422648 0.0256799 -3.84414e-19)
(-0.000947278 -0.00130838 1.29663e-18)
(0.0171208 0.0346073 5.46998e-18)
(0.0172586 -0.00237278 1.03032e-16)
(-0.023065 0.0186745 -3.21654e-18)
(-4.10356e-05 0.000690047 2.67088e-18)
(-0.00694915 -0.00987284 -8.42663e-17)
(-0.00156203 0.00263869 -9.23949e-18)
(-7.68523e-05 0.000776095 -7.48384e-18)
(-0.038875 -0.00364763 3.14142e-17)
(-0.00225079 -0.00171704 -6.09337e-18)
(-0.00166234 0.0026503 -1.45977e-17)
(0.00084893 -0.00124094 -8.59397e-19)
(-0.00223733 -0.00155509 1.82945e-17)
(-0.0206629 0.031268 1.96741e-18)
(-0.0026329 0.00940729 -1.26562e-17)
(-0.0034762 -0.00115927 -2.54299e-18)
(-0.00619295 0.0044362 4.05985e-19)
(0.000408129 -0.000372904 2.3309e-19)
(-0.00853311 0.00122572 6.86841e-18)
(-0.000247433 0.000147003 -5.2744e-19)
(-0.00190069 0.0029601 -3.45255e-18)
(-0.00261368 0.000239661 -1.02634e-18)
(-0.0263765 0.0126973 -6.2046e-18)
(0.00358134 -0.00174234 -1.25624e-17)
(-6.74308e-05 -0.000234559 -4.67716e-19)
(-0.0010842 -0.00104195 2.16948e-18)
(-0.0103816 0.00646757 1.9036e-17)
(-0.00104679 -0.00102636 7.03172e-19)
(-0.000489621 -0.00262771 1.58034e-18)
(-0.00115164 0.00257361 -3.19017e-18)
(-0.0604239 -0.0202455 -4.79547e-17)
(-0.0677687 -0.00128528 -5.64219e-17)
(-0.0008496 0.000577906 9.27108e-19)
(-0.00306901 -0.00677068 9.8559e-18)
(0.136859 0.0582458 -2.26752e-17)
(-0.0160357 0.00384844 2.19615e-18)
(-0.00145724 5.26554e-05 -2.1099e-18)
(-6.65008e-05 -0.000503921 -2.07136e-19)
(-0.00242946 -0.00130181 -2.07e-18)
(-0.00292289 -0.00162356 -1.64682e-17)
(-0.000870923 0.000501997 6.53308e-19)
(0.118394 0.0847232 1.53844e-17)
(-0.0147076 -0.00684746 1.51122e-17)
(-0.0483084 -0.00674513 3.566e-18)
(0.0145558 0.000832605 -1.60526e-17)
(0.00604364 0.000731667 1.4212e-17)
(4.18917e-05 -0.000262187 2.43452e-19)
(6.31762e-05 -2.35793e-05 4.16298e-20)
(-0.00539597 0.0020103 -2.49353e-18)
(-0.011221 -0.00417999 -5.0692e-17)
(-0.000965674 0.00217084 4.39596e-18)
(-0.00591029 0.00459119 1.41472e-17)
(0.00235372 0.00185348 1.54767e-17)
(-0.00252979 -0.00121422 -4.25249e-19)
(-0.00337612 -0.00890759 5.68293e-17)
(9.01751e-05 -0.00066218 1.83955e-18)
(-0.0337624 -0.0261465 -5.36969e-19)
(-0.0311407 -0.00329948 -2.77385e-17)
(-3.47051e-05 -7.9161e-05 3.30163e-19)
(0.0278008 0.013826 1.42659e-18)
(-0.00386077 0.00184591 5.5851e-19)
(-0.000582596 -0.000862305 2.13281e-18)
(-0.00325413 -0.00101012 -7.75526e-18)
(0.000475414 -0.00222851 -1.85443e-18)
(0.000496154 -0.00157727 -9.37621e-19)
(-6.54846e-05 0.00076841 7.08573e-18)
(0.0121427 0.00103228 2.45342e-17)
(-0.053087 -0.0117345 -1.41671e-18)
(-0.000338971 0.000138802 -3.87866e-18)
(0.0122017 0.000905262 -1.66988e-16)
(-0.00477401 -0.00971521 8.23146e-17)
(-0.00634828 -0.0103961 -1.80631e-17)
(-0.000243588 0.000110968 1.7433e-18)
(-0.000101182 -3.21705e-07 6.29032e-18)
(-0.002289 -0.00570546 -6.16972e-18)
(-0.000954709 -0.00128055 -2.12155e-18)
(3.93001e-05 -0.000294015 6.15933e-19)
(-0.000137027 -0.000572505 2.48093e-19)
(-0.000354973 0.00191676 6.44225e-18)
(-0.0113782 -0.00394328 3.35384e-17)
(0.000573524 -0.00250828 1.17444e-17)
(-0.00244759 -0.00128108 -4.8101e-18)
(-0.00298066 -0.00152241 4.56268e-18)
(-0.00337102 0.000142442 -3.31791e-19)
(-0.00482035 0.00276174 3.03091e-18)
(0.000378669 -0.000355339 1.47514e-19)
(-4.33349e-07 4.93954e-05 4.7892e-18)
(0.00515924 0.0276177 -8.47655e-18)
(-0.00598918 -0.000273554 -1.19706e-17)
(-0.00304862 -0.00712954 -1.87914e-17)
(-0.0452821 0.0756997 7.7639e-18)
(-0.00100528 0.00221826 8.8756e-18)
(-0.00131927 -4.3765e-05 7.05073e-19)
(-0.000153561 1.26141e-06 9.00202e-19)
(-0.0358304 -0.0265662 5.15005e-19)
(0.0257412 0.0142581 1.44694e-17)
(0.000111828 -0.000241879 2.70479e-19)
(-0.00020605 -6.32082e-06 -3.56284e-18)
(9.77309e-05 -0.000243604 -1.48486e-19)
(-0.00151746 0.00119267 1.41387e-18)
(-0.00476138 0.00182762 -1.26884e-18)
(-0.00161321 -0.0197738 4.38924e-17)
(-0.000267173 0.000639194 3.46598e-18)
(-0.000328109 0.00159628 5.39653e-18)
(2.68769e-05 -0.000221667 8.78314e-20)
(-0.00390076 0.0101026 6.43559e-19)
(-0.00815121 0.00640394 -1.55294e-18)
(0.00699862 0.00134348 -6.09609e-17)
(-0.0103078 0.000153238 -5.11428e-18)
(-0.000163254 -0.00150821 1.49702e-19)
(0.00908492 0.023077 -1.89339e-17)
(-0.00881469 0.00141135 3.83464e-19)
(-0.00258075 -0.00168033 1.63967e-18)
(-0.00180671 0.00278623 -1.16028e-17)
(-0.00414123 0.00370141 4.1342e-18)
(-0.0091601 0.00614129 3.44482e-18)
(-0.0463804 0.0278156 3.46709e-18)
(-0.000155515 4.40907e-05 -3.8625e-18)
(-0.00360831 -6.85101e-06 -2.14056e-18)
(-0.0349508 -0.0201437 -7.27486e-17)
(-0.0588208 -0.0201861 4.43177e-17)
(-0.00224779 -0.000186611 2.48301e-19)
(2.50662e-05 -0.000277805 3.66447e-19)
(-0.00168543 -0.000296477 1.41834e-17)
(-0.000172103 -0.000777109 5.59672e-20)
(-0.00233273 -0.00199193 1.16385e-19)
(-0.0394869 -0.00909171 -1.54777e-17)
(-0.0735333 0.113696 8.37536e-19)
(-0.0257564 -0.013566 7.10006e-19)
(-0.00324683 0.000155179 1.23801e-18)
(0.00346183 -0.00210003 1.39028e-17)
(-0.000636671 0.00106172 -4.4568e-18)
(-0.00181745 -0.00093952 -1.63478e-18)
(-0.000659452 0.000595956 -2.99461e-18)
(-0.000850598 -0.00102463 -5.57955e-18)
(-0.021285 -0.00311296 1.14372e-17)
(-0.0015688 -0.0012663 -4.57006e-18)
(0.0115381 0.0011917 1.64237e-16)
(-0.00754351 0.00718487 -3.16427e-18)
(0.000809194 -0.00117815 -1.13136e-18)
(-0.000329802 0.000108045 -4.37936e-18)
(-0.0581836 -0.00233665 2.0819e-17)
(-0.0247184 -0.0128459 -3.06497e-18)
(0.00049829 0.0183508 2.47853e-18)
(-0.000611468 0.0010593 4.45917e-18)
(-0.00816302 -0.00896139 2.38693e-18)
(-7.42736e-05 -0.000491453 7.86633e-21)
(-0.00157423 0.0018174 2.00908e-18)
(-0.000294539 0.000714586 9.62699e-19)
(-8.21616e-05 -0.000237404 -4.69675e-19)
(-0.0645248 0.00166338 -1.16538e-17)
(0.025116 0.00466676 -4.83857e-18)
(-0.0121188 0.0130947 -7.72482e-18)
(-0.00120456 0.00262628 1.1402e-17)
(-0.000126901 1.36605e-06 -7.59648e-19)
(-0.0113768 0.0192735 -1.26108e-18)
(0.019966 0.010311 -6.10537e-18)
(-0.00222537 -0.00158709 7.34347e-19)
(-0.000211196 -4.4205e-05 -2.66767e-19)
(-0.0559038 0.0711656 -2.06346e-18)
(-0.000242431 -0.000635497 -7.04239e-19)
(0.000366727 -0.00084598 -5.42056e-18)
(-0.000203504 4.36522e-05 4.67599e-19)
(-0.0223552 -0.00276922 -2.80658e-18)
(-0.000315888 0.000553558 -8.23231e-18)
(-0.00219055 0.00109935 7.54826e-18)
(-0.00994134 -4.40325e-05 -3.51495e-18)
(-0.0538925 -0.012143 9.21839e-18)
(-0.000115714 -0.000553367 -3.05382e-19)
(-0.0156849 0.0217802 2.75044e-18)
(-0.00380035 -0.000704712 1.51837e-18)
(-0.00024674 0.000126858 -1.3793e-18)
(-0.00122747 -0.00231156 -5.85673e-18)
(-0.000630195 0.000944497 4.26637e-18)
(-0.00021046 -3.50057e-06 2.5238e-18)
(-0.00247094 -0.00121227 2.98107e-19)
(-0.0071475 0.000981557 1.15866e-17)
(-0.00475765 0.00260904 -4.49276e-19)
(0.0035372 0.00196113 -9.36961e-17)
(-0.00227605 -0.00149726 5.8416e-18)
(-0.000157669 0.000334525 2.81365e-18)
(-0.0098617 0.0064028 -1.64625e-17)
(0.0500554 0.0188598 8.66358e-18)
(-0.0217403 0.0222042 7.67517e-18)
(-0.0234908 -0.0088493 -2.38577e-17)
(-0.0222053 -0.00627378 3.13979e-18)
(-0.00141004 0.000157089 -2.82856e-18)
(-8.26615e-05 -0.000229354 2.91599e-19)
(-0.000358135 0.000211048 3.32657e-19)
(-0.00107225 0.000805341 5.16094e-18)
(-0.0253577 -0.0154227 4.42231e-18)
(-0.00435888 -0.00206865 -7.69249e-19)
(-0.00234339 -0.00475021 -1.99159e-17)
(-0.0036981 0.00178676 -6.763e-18)
(-0.00223132 -0.00163465 -8.01963e-18)
(-0.0527846 0.0169375 -1.12022e-17)
(-0.0113417 0.00288464 3.0535e-17)
(-0.000603367 0.000931154 -3.57592e-18)
(-0.00290225 -0.00148805 -4.69738e-19)
(0.00401753 0.00115884 2.19038e-17)
(-0.00140926 0.000757765 7.99256e-18)
(-0.0813188 0.109555 -2.96861e-22)
(-0.000105482 2.67698e-06 -8.10537e-19)
(-2.68698e-05 0.000647842 8.79693e-18)
(0.0755632 0.0517451 1.52157e-18)
(-0.00225496 0.00163771 6.88437e-18)
(-0.000968908 -0.00106373 1.66768e-18)
(-0.0223709 0.0301195 6.75148e-18)
(-0.0244164 0.000920018 -1.05157e-18)
(-0.00530637 0.00184343 4.31115e-19)
(0.00163509 0.00297024 1.74127e-17)
(-0.000628193 0.000855376 -7.87817e-18)
(-0.00130708 0.000828587 1.49026e-18)
(-0.00321938 0.00971431 -5.33635e-17)
(-0.00456238 0.00336602 4.78167e-17)
(-0.00224832 0.00329726 1.34171e-17)
(-0.0051056 -0.0035505 6.75914e-18)
(-0.0364122 -0.0327477 -6.07808e-18)
(-0.0512763 0.0157591 -2.47139e-18)
(-0.0648637 0.000150585 -1.68312e-17)
(-0.0364339 -0.0286244 -8.40154e-18)
(-0.000636625 0.0015229 6.28628e-18)
(0.0029368 -0.00491229 1.40893e-17)
(-0.00102773 0.000209251 9.7511e-19)
(-0.0263136 -0.0160734 -2.09952e-18)
(-0.00156643 -0.000876519 -2.18166e-19)
(0.000140729 0.00313872 -1.93864e-17)
(-0.00769579 -0.00931514 3.01579e-19)
(-0.00744025 -0.0207488 -3.19478e-17)
(-0.00230739 -0.00456169 1.80597e-17)
(-0.0147931 -0.011894 3.20478e-18)
(-4.23936e-05 -9.00515e-05 1.23395e-19)
(-0.00889462 0.0358907 -3.60122e-17)
(-2.69178e-05 -0.000289982 1.77902e-20)
(-0.00652076 0.00432389 9.85166e-20)
(-0.00067522 0.000611257 2.70611e-18)
(-0.0124077 0.00284606 4.78803e-17)
(-0.000221487 0.000316497 2.8385e-18)
(-0.00292671 -0.0122484 8.38214e-18)
(-0.00242339 -0.0019843 -4.16661e-18)
(-0.000191827 0.000442218 2.12289e-18)
(-0.00044928 0.000417934 2.15544e-19)
(-0.000205488 2.73557e-05 6.16189e-19)
(0.0458673 0.0153591 -6.50213e-18)
(-0.0360787 0.0048026 9.56878e-18)
(-0.0178142 0.0181155 1.13255e-17)
(-0.00558373 -0.0038925 -4.66495e-18)
(-0.000303704 -0.00252587 -4.81586e-18)
(0.000884423 -0.00191098 1.10778e-17)
(-1.59851e-06 3.58563e-05 -9.10587e-19)
(-4.45428e-06 2.88304e-05 -1.00231e-18)
(0.0165816 0.0210632 6.19863e-18)
(-0.000451569 0.000425806 1.09161e-18)
(-6.78753e-05 0.000479989 -1.83268e-18)
(0.00278645 0.00148114 -1.00509e-17)
(-0.000156906 3.39139e-05 2.2075e-18)
(-0.00513753 -0.00328826 -4.25199e-18)
(0.000724397 -0.00155038 -1.94257e-17)
(-6.19454e-05 0.000454291 -1.12934e-18)
(-0.000332706 0.000573666 1.37751e-17)
(-0.00195475 0.00190729 -4.74476e-18)
(-0.00139452 0.000768764 4.96253e-19)
(-0.0021261 -0.00147303 4.72613e-18)
(0.019931 0.0351384 1.60967e-17)
(0.00205924 -0.00744492 -3.18505e-18)
(-0.00226782 0.00320653 5.57562e-18)
(-0.00248642 -0.000739611 2.54693e-19)
(-0.000157849 0.000372398 1.51139e-18)
(-0.00274967 0.0120276 5.31771e-18)
(-0.000443745 0.00164962 -5.9138e-19)
(-0.00123509 -0.000999349 1.56769e-18)
(-0.00766813 0.0116798 -1.11597e-17)
(-0.05185 -0.00277882 1.84346e-17)
(-0.0138335 -0.0118622 -1.63412e-18)
(0.0163577 -0.00127004 8.3005e-20)
(-0.00230178 -0.000155445 1.05587e-18)
(-0.00119642 -0.00100644 -1.30541e-18)
(-0.0516573 -0.00397962 1.18899e-17)
(3.49233e-05 -0.000734726 -2.51126e-18)
(-0.0661415 0.000819773 -5.32405e-18)
(-0.0119235 0.00280772 -4.73058e-17)
(-0.000198009 0.000433649 -4.34243e-18)
(0.0216419 0.0341139 -1.84133e-17)
(0.00915421 0.0245109 3.14855e-17)
(-0.00171571 -7.60904e-05 -4.49845e-18)
(-0.000147637 -2.24218e-06 -6.40486e-19)
(-0.00576929 -0.000340529 -7.10021e-18)
(0.0224708 0.0177037 3.65338e-18)
(-0.000632155 -0.00090238 9.0403e-19)
(-0.000506506 -0.000786431 1.14293e-18)
(0.00134558 -0.00174413 -2.04052e-18)
(0.000435718 -0.00153195 6.28179e-19)
(0.000218358 -0.000815378 1.94289e-18)
(-7.26593e-05 -4.0029e-05 1.97831e-19)
(-1.95875e-06 1.30868e-05 7.43982e-19)
(-0.0583453 -0.0117756 -1.42438e-17)
(-0.00165241 -0.00148806 1.03398e-19)
(-0.0603796 -0.0143975 1.98666e-17)
(-0.00022595 0.000624492 3.95105e-19)
(0.00301875 -0.00615555 -6.53679e-18)
(-0.0253613 -0.00969774 -2.88064e-18)
(-0.000235254 0.000179258 2.73611e-19)
(-5.6165e-05 -0.000327669 3.65542e-20)
(-0.0017035 -0.00142659 -1.28082e-18)
(-0.00011143 0.000231291 3.35168e-18)
(-0.0014971 2.00993e-05 -4.21782e-18)
(-0.000906148 0.00170861 7.38609e-18)
(-0.000947482 -0.000797113 -2.20307e-19)
(-0.00323648 0.00720694 1.89864e-18)
(-0.00451359 0.0100753 2.82821e-17)
(4.63597e-05 -7.89362e-05 6.74116e-20)
(0.0215066 0.0185233 -6.1841e-19)
(-0.0367968 0.0146459 -4.06928e-17)
(-0.00198968 0.00330341 2.60367e-17)
(0.00322264 -0.00452329 -2.80401e-17)
(-0.00914196 0.0110557 1.4391e-17)
(-0.00163236 0.00186867 -2.60647e-18)
(0.00212435 -0.00709744 2.70586e-18)
(-0.00203674 -0.00168201 5.2364e-18)
(0.0092763 0.0198927 -1.25668e-17)
(-0.00163194 -0.00146573 1.46868e-19)
(-0.00574055 -0.00734865 -4.00649e-19)
(-0.00096099 0.000379147 1.18716e-19)
(-0.0288742 0.133006 -5.39124e-18)
(-0.00274293 -0.00108108 -1.65534e-17)
(-0.00846126 0.00593005 1.22048e-18)
(-0.0115012 0.0107569 1.41403e-17)
(0.00898037 0.0010113 -3.90094e-18)
(-0.00165718 -0.001429 -4.16509e-18)
(-0.000731712 0.000721309 -1.5066e-18)
(-0.00136962 -0.00130365 1.27422e-17)
(-0.00268338 -0.0185704 -2.95709e-17)
(-0.00145288 0.000120328 4.32676e-18)
(-0.0133541 0.00182867 -1.79648e-17)
(-0.000771832 0.00133541 -1.68156e-18)
(0.0439973 0.0250732 -8.83887e-18)
(-0.00154359 -8.53664e-05 -1.89554e-18)
(-0.000322295 -0.000689474 1.03644e-18)
(-0.000212292 2.20442e-05 -1.07163e-18)
(-0.000149883 3.33236e-05 2.61444e-18)
(-0.0310873 0.0170784 1.51228e-17)
(0.0450987 0.0240519 4.2183e-19)
(-0.000597931 0.00109229 -5.77727e-18)
(-0.0507502 -0.0152545 8.09635e-18)
(-0.00277648 0.00166179 2.31001e-18)
(-0.0144744 0.0278824 1.36841e-18)
(-0.0358614 0.00531148 -5.5194e-18)
(-0.0134109 -0.00776193 7.97328e-18)
(0.0270823 -0.00264881 4.02014e-17)
(0.000588714 -0.000600688 -9.80993e-19)
(-0.0173907 0.0183602 -7.25489e-18)
(-0.0105131 -0.0115564 5.1028e-18)
(-0.000958988 -0.000134424 -3.68956e-19)
(-0.0056486 -0.00296282 -1.06588e-17)
(0.0155688 0.0197326 -3.0917e-19)
(0.0928042 0.0547347 -2.11203e-18)
(-0.000488228 -0.0012851 -4.37664e-19)
(-0.000244141 0.00182976 1.25801e-17)
(-0.000995001 3.719e-05 1.50402e-18)
(5.00451e-05 -1.82117e-05 5.15472e-20)
(0.0770292 0.0121217 -1.66539e-19)
(-0.00452142 0.00737133 -3.91056e-18)
(-0.0266761 0.01768 -2.19998e-17)
(0.021802 0.00872866 3.16449e-18)
(-0.000528396 0.00124617 -1.19396e-18)
(-9.88194e-05 0.000249914 3.70849e-18)
(-0.00337627 0.000519278 -4.05895e-18)
(-1.22008e-06 3.88665e-05 -9.28822e-19)
(-0.000382709 0.000115712 -1.0864e-18)
(-0.000863049 0.00172486 4.44693e-18)
(0.00103183 -0.00161221 3.49809e-18)
(-0.0025605 0.00756459 2.42764e-17)
(-0.00281005 -0.00112965 2.07954e-17)
(-0.0104748 -0.00535306 -6.18367e-18)
(-0.00225399 0.0240432 3.75649e-18)
(-0.00482863 -0.00368518 -1.16094e-17)
(-0.000210589 0.000361191 -4.46021e-18)
(-0.00217617 0.00159538 -8.95848e-18)
(-0.00486585 -0.00635823 2.07323e-17)
(0.0109983 0.0229258 2.40477e-18)
(-0.00525149 -0.00724853 -8.44696e-19)
(-0.0202922 0.000571672 -5.97892e-17)
(-0.00171885 -0.0014592 -3.31672e-19)
(-0.000613522 0.00111827 2.1662e-18)
(-0.0488308 -0.014218 -4.25307e-18)
(0.0189917 0.00685885 -6.37645e-18)
(-0.00138498 -6.51083e-05 3.47516e-18)
(7.92125e-05 -0.000275925 8.97861e-19)
(-0.00289566 0.007284 2.91505e-18)
(-0.0386913 -0.00184938 -2.00473e-17)
(-0.0111015 -0.0052981 1.04662e-17)
(-0.000151448 2.43637e-05 -3.5658e-18)
(-0.0101728 0.00486417 -1.61656e-17)
(0.0186767 0.00142253 6.53107e-18)
(-0.00693096 -0.01971 2.52619e-17)
(1.08513e-05 -0.000232687 5.52478e-20)
(0.00647515 0.000886095 4.9625e-17)
(0.0118617 0.000977272 4.53781e-17)
(-0.00158259 0.00201104 3.02953e-17)
(-0.00153673 -0.00128558 6.21289e-18)
(4.90766e-06 0.000626016 2.6718e-18)
(-0.0299268 0.00918956 -8.65602e-18)
(-7.12492e-07 1.11599e-05 -7.08284e-19)
(-0.0344745 0.000513204 2.70785e-18)
(-0.0650074 0.00110106 2.85781e-17)
(0.00944601 0.00169222 -2.35757e-17)
(0.00835603 0.00114636 3.78721e-18)
(-0.0131208 0.000827247 5.03705e-18)
(0.00747563 0.00817242 3.72016e-19)
(-0.00696346 0.00144283 -1.55199e-17)
(-0.000892479 0.000993984 -2.16953e-18)
(-0.000206792 0.00182246 -9.23777e-18)
(-0.0218864 -0.00586767 -3.9027e-18)
(-0.0567902 0.0414962 3.50339e-18)
(0.0127338 0.000866125 -4.41761e-17)
(-0.0583166 0.106465 -1.19164e-18)
(7.78902e-05 -0.000734649 5.0923e-19)
(-0.0335807 0.00145186 1.34017e-18)
(-1.58819e-06 2.53229e-05 5.3487e-19)
(-0.00128632 -0.00175459 8.39714e-18)
(-0.0158779 -0.00286592 7.29648e-18)
(-0.00419815 -0.00707678 3.2049e-17)
(-0.000193748 0.000458382 3.64135e-18)
(-0.00191581 0.00115816 -1.13496e-17)
(-0.0118238 0.0178688 -2.78578e-17)
(0.0200832 0.0182498 1.32262e-18)
(-0.019453 -0.00660598 1.69288e-17)
(0.0132006 0.000518284 5.77914e-18)
(-0.00258882 -0.00173059 -8.28734e-18)
(-0.00347919 -0.000288738 -9.20374e-19)
(-0.0248276 0.019144 1.34954e-17)
(-0.000348238 0.00161809 7.78819e-18)
(-5.87135e-05 -0.000452109 -1.99487e-19)
(-0.000319866 0.000180133 -6.17551e-19)
(0.00115577 -0.00354373 7.86245e-18)
(-0.0134711 -0.0107919 2.005e-18)
(-0.00015611 0.000264608 6.11944e-18)
(-0.0149766 -0.0031774 -2.27212e-17)
(-0.000337247 0.000218675 -6.40835e-19)
(-0.000141599 -2.32484e-06 -2.87832e-18)
(-0.000206654 1.93555e-05 -1.6995e-18)
(-0.0163838 0.0210494 5.41335e-18)
(-0.000368698 0.00168915 -1.77581e-18)
(-1.13424e-06 2.3871e-05 9.47136e-19)
(-0.00337057 0.000230635 1.56478e-18)
(-0.00218228 -0.0004418 1.8972e-17)
(4.32037e-05 -8.58775e-05 -2.15176e-19)
(-0.0646161 0.00144025 9.34666e-18)
(-0.000152971 -0.000781359 -2.68084e-20)
(0.000405559 -0.000399966 1.09361e-19)
(-0.0018007 -0.00223409 1.35756e-17)
(-0.00252227 0.00308 -1.35527e-17)
(-0.000355559 -0.00262759 4.38124e-18)
(-0.00157186 -0.000545888 6.16109e-20)
(-0.0202862 -0.000515904 5.803e-17)
(-0.0021179 0.0033684 -2.32307e-17)
(-0.00348141 -0.000931462 4.20037e-18)
(0.020934 0.00556366 5.10001e-18)
(-0.00345922 -0.000996204 -2.11067e-18)
(-0.0588134 0.0603908 1.26012e-18)
(-0.000422252 0.00241958 -6.54831e-19)
(-0.00389371 0.00775106 -3.11816e-18)
(0.00171234 0.00183066 4.95051e-18)
(0.0778636 0.00839855 -2.30938e-18)
(8.53631e-05 -0.00026459 -4.81418e-19)
(0.0120107 0.0188033 -3.60514e-18)
(0.00060761 0.0315476 -1.06817e-17)
(-0.000129737 -0.000158331 -6.49534e-19)
(-0.022311 0.00915663 -2.24426e-18)
(-0.000181711 0.000421761 -1.89179e-18)
(-0.000204816 4.57916e-05 3.52352e-18)
(-0.00249519 -0.00126605 -5.86836e-18)
(-0.000208343 -5.63847e-05 9.1861e-20)
(-0.00864968 -0.00174883 1.44199e-17)
(0.00972507 0.0222459 1.68748e-19)
(-2.95924e-05 -0.000287054 1.09833e-20)
(0.00469443 0.0010679 4.22298e-17)
(0.000563698 -0.000583592 5.83715e-18)
(-0.00229123 -0.00147798 -7.05947e-18)
(-0.067043 0.0368568 -3.63175e-18)
(5.4637e-05 -6.42273e-05 2.71743e-19)
(-0.0409256 0.00243512 5.90545e-18)
(-0.00186457 -0.000100557 -8.11657e-19)
(-0.00031074 -0.000834614 -1.28372e-18)
(-0.000444226 0.000478302 -5.83186e-19)
(-0.000325015 0.000208375 4.17073e-19)
(0.010101 0.00552531 2.50495e-17)
(-0.00262916 0.0057791 -2.97881e-17)
(-0.0592564 -0.00100076 1.54586e-17)
(-0.00473631 -0.00385766 1.33745e-17)
(-0.0346022 -0.00769265 1.95374e-17)
(-0.00290805 0.000434929 4.21875e-18)
(-0.000152657 0.000299987 -9.09102e-18)
(-0.0139756 0.0193457 -6.29031e-18)
(0.0125732 0.000690833 5.91005e-18)
(0.023732 -0.00165133 -7.83568e-17)
(-0.00305278 0.00584448 -1.45037e-17)
(0.00678927 0.00218079 6.46207e-18)
(-0.00988805 -0.0129404 6.9776e-18)
(-0.00212352 -0.00124957 3.35269e-18)
(0.0104663 0.00457063 -2.23062e-17)
(-0.00150226 -0.000502913 3.95536e-19)
(-0.0174458 0.00388254 3.41807e-17)
(-0.000147562 1.13743e-05 -4.10579e-19)
(0.00584517 0.000997428 1.35231e-17)
(-0.000451125 -0.00135578 1.95586e-18)
(-0.00324083 0.00563174 8.77305e-18)
(-0.00192457 0.00199998 7.58195e-18)
(-0.000937409 -0.00102607 4.75496e-19)
(-0.0660428 -0.0139909 2.16168e-17)
(-0.000169207 0.00184436 1.11627e-18)
(-0.000365732 0.000146691 9.76236e-19)
(0.00304327 -0.021411 1.62164e-17)
(-0.00186186 -3.68335e-05 1.08812e-20)
(-0.000210678 1.73828e-05 6.17369e-19)
(-0.0045402 -0.00193997 -1.14115e-17)
(9.61468e-05 -0.00301152 2.76393e-17)
(0.0104482 0.0059657 -4.56138e-17)
(-0.00618577 -0.0196187 -1.03913e-17)
(0.0314837 0.00377593 -5.15573e-19)
(-0.0574354 -0.00367721 1.4211e-17)
(-0.000103587 0.00023674 -1.96656e-19)
(2.63488e-06 0.000573312 6.28595e-19)
(-0.0131005 0.0058999 1.60288e-17)
(-0.000230746 0.000112249 2.06617e-18)
(-0.0156358 -0.00581874 5.67374e-17)
(-0.0138136 0.00128995 2.22224e-18)
(-0.00149049 -0.00123162 -1.69271e-18)
(-5.1901e-05 0.000481202 3.36807e-18)
(-0.00323582 -0.00093087 -2.26198e-18)
(-3.36821e-05 0.000243796 -8.41553e-19)
(-0.000299209 -0.000808235 2.97643e-18)
(-0.00197815 -0.00272027 2.43995e-18)