/*--------------------------------*- C++ -*----------------------------------*\
| =========                 |                                                 |
| \\      /  F ield         | OpenFOAM: The Open Source CFD Toolbox           |
|  \\    /   O peration     | Version:  v2012                                 |
|   \\  /    A nd           | Website:  www.openfoam.com                      |
|    \\/     M anipulation  |                                                 |
\*---------------------------------------------------------------------------*/
FoamFile
{
    version     2.0;
    format      ascii;
    class       surfaceScalarField;
    location    "750";
    object      meshPhi;
}
// * * * * * * * * * * * * * * * * * * * * * * * * * * * * * * * * * * * * * //

dimensions      [0 3 -1 0 0 0 0];
oriented        oriented;


internalField   nonuniform List<scalar> 
27907
(
2.07627e-07
4.87522e-07
-6.94986e-07
4.26804e-07
-5.68244e-07
1.41564e-07
-1.41108e-06
-6.46299e-07
1.75708e-06
-3.35449e-07
6.3531e-07
-2.99496e-07
-3.47786e-07
5.34438e-07
-1.86609e-07
2.62485e-07
-5.21264e-07
2.58812e-07
3.45706e-07
-3.8587e-07
4.02356e-08
2.07203e-06
5.67099e-08
-2.23533e-06
1.8701e-07
4.43382e-07
-6.29709e-07
7.83707e-07
-1.35902e-06
5.78497e-07
2.30355e-06
-1.17206e-06
-1.12272e-06
-2.73278e-07
-2.10886e-07
4.84182e-07
-4.537e-08
1.41304e-08
1.73827e-08
-5.95693e-07
-2.29499e-07
8.286e-07
-4.67834e-07
-2.6821e-06
3.17247e-06
2.96158e-07
-6.13973e-07
3.18203e-07
-1.48856e-06
1.11045e-06
3.86198e-07
-2.37054e-06
6.74372e-07
1.64443e-06
3.73727e-06
-3.54219e-06
-1.92475e-07
-3.81883e-07
-8.40538e-07
1.22484e-06
2.30085e-07
-3.85184e-07
1.54945e-07
-1.62044e-07
-1.38241e-07
2.92385e-07
-3.1361e-07
5.08967e-07
-1.95348e-07
3.6061e-07
1.36835e-07
-4.97129e-07
6.92491e-07
-3.95496e-07
-2.96857e-07
-9.12226e-08
2.05443e-06
5.64673e-07
-3.17918e-07
-2.46848e-07
-4.04609e-07
5.26968e-07
-1.22336e-07
-4.47359e-07
5.78981e-07
-1.3157e-07
4.52278e-07
-4.82729e-08
-4.04249e-07
7.64321e-07
-1.22248e-06
4.64234e-07
-4.03667e-07
1.65828e-07
2.37845e-07
1.56916e-08
9.01642e-09
-1.82709e-08
9.07167e-08
-2.45652e-06
2.38118e-06
-3.48945e-07
8.87779e-07
-5.36274e-07
-3.51957e-07
-1.19788e-06
1.54549e-06
-1.10147e-09
-2.10952e-08
2.23246e-08
-5.62923e-07
2.77598e-06
-2.20894e-06
-2.5885e-06
1.06685e-07
2.49098e-06
-1.50205e-06
5.745e-07
9.35262e-07
-1.29122e-06
-1.76081e-06
3.05531e-06
-9.48589e-07
-6.94899e-07
1.64514e-06
3.88541e-06
-9.42342e-07
-2.96549e-06
-1.389e-06
-3.00842e-08
1.42162e-06
4.71535e-07
2.73168e-08
-4.98818e-07
1.241e-07
8.07667e-07
-1.05755e-06
8.80003e-08
-4.01603e-07
-1.40925e-06
-3.84444e-07
1.80029e-06
-7.59256e-07
1.54639e-06
-3.59132e-06
1.68968e-07
3.38098e-06
5.43816e-07
2.04929e-07
-7.48166e-07
-3.88631e-07
-1.37261e-07
5.25953e-07
1.06093e-06
-2.70058e-06
1.49764e-06
7.97254e-07
1.51551e-06
-4.1114e-07
6.534e-09
-5.9862e-07
2.98634e-07
3.00055e-07
-2.41233e-08
2.30511e-08
4.59211e-07
2.68268e-07
-2.08655e-06
2.5566e-06
-4.71844e-07
-1.00552e-07
8.35427e-07
-7.31697e-07
9.0071e-07
-2.83318e-07
-6.17099e-07
-7.08546e-08
4.16514e-07
6.66367e-07
1.35405e-07
-8.00278e-07
-9.18295e-07
2.03531e-06
-1.11408e-06
-1.15837e-06
2.09596e-06
-3.25957e-07
-2.3073e-06
2.62969e-06
-1.4008e-06
-8.59056e-08
1.49524e-06
-7.59919e-09
2.95246e-08
-3.1548e-06
4.02165e-07
2.75378e-06
-4.32998e-07
4.44248e-08
1.41268e-07
2.50621e-07
-3.91865e-07
-2.09366e-06
2.36323e-07
1.86015e-06
-2.0233e-07
-3.42155e-06
-1.8622e-07
4.2944e-07
-7.24891e-08
-3.30224e-06
3.13307e-07
2.94486e-06
1.97295e-06
-2.75391e-06
7.76696e-07
-1.5446e-07
7.60693e-07
-6.0534e-07
4.49534e-07
-4.25666e-07
-2.38457e-08
-5.68688e-07
8.51175e-07
-2.82454e-07
1.31271e-07
2.88855e-07
-4.20119e-07
-2.24877e-07
-2.45535e-07
4.70438e-07
3.01044e-07
1.9675e-07
-4.97746e-07
5.28009e-07
-6.26255e-07
-5.86343e-07
2.81327e-07
3.05045e-07
4.96126e-07
-6.49688e-07
-1.15434e-06
-6.08397e-07
1.77003e-06
-2.39485e-07
-2.51782e-07
4.91272e-07
-2.21554e-07
8.89384e-07
2.348e-07
1.45665e-07
-3.80408e-07
2.82424e-06
-8.5564e-07
-2.96716e-07
-2.89608e-07
-2.64744e-06
5.58352e-07
-1.4977e-07
-3.68974e-07
5.18739e-07
6.69219e-07
-1.6162e-06
-3.62234e-07
-1.42532e-07
5.04796e-07
2.48582e-07
-3.98363e-07
-2.43824e-07
7.40942e-07
-9.75348e-07
-2.3561e-06
3.1215e-06
-9.80458e-07
-2.16652e-06
4.11351e-07
-1.81718e-07
5.75654e-07
-1.21903e-06
6.45829e-07
5.75077e-07
-2.0188e-07
-3.73182e-07
-7.33588e-07
9.35016e-07
-1.98422e-07
-1.05913e-06
2.45564e-07
8.15188e-07
-2.46847e-07
-1.56818e-07
-8.23296e-08
5.34465e-07
-2.64115e-07
-2.89547e-07
5.53941e-07
-9.62972e-08
5.45829e-07
-2.07582e-06
2.64268e-06
-5.5798e-07
1.96966e-06
-9.48847e-08
-1.87192e-06
4.84454e-07
-2.35904e-07
4.24367e-08
-2.03674e-06
1.81268e-06
1.27902e-07
-2.63645e-06
4.99138e-07
2.13525e-06
1.98186e-07
2.82608e-07
-4.80686e-07
3.16815e-07
-3.52738e-07
3.58758e-08
-2.66078e-07
-1.60993e-07
4.2697e-07
-3.2395e-06
2.79458e-06
-3.39974e-07
5.15497e-07
-1.75509e-07
2.29744e-08
-3.85181e-07
-1.54365e-06
1.11578e-06
4.32565e-07
4.55723e-07
1.45689e-06
-1.91404e-06
5.15727e-07
-4.69439e-08
-4.68739e-07
-4.90512e-07
3.97347e-07
9.34707e-08
6.01798e-07
-3.30451e-07
-2.71283e-07
-1.437e-07
6.15295e-07
-1.59055e-07
5.85983e-07
6.65403e-07
-1.00843e-07
-5.64192e-07
6.25288e-08
-4.31499e-07
1.97932e-08
-3.57513e-09
-4.29311e-08
-1.00968e-06
-4.71582e-07
3.22846e-07
2.41634e-07
-1.40958e-07
-9.17481e-08
2.75681e-07
-8.49964e-07
5.74635e-07
3.97357e-08
3.26765e-07
-2.5992e-07
-1.16139e-06
1.4238e-06
4.79961e-08
7.13633e-07
-7.93919e-07
-7.01442e-07
3.00605e-07
2.79084e-06
9.07781e-07
-7.01345e-07
-2.06301e-07
1.18858e-09
-5.69821e-07
6.6336e-07
-4.93115e-07
-1.70405e-07
1.52662e-06
8.56042e-07
-2.38838e-06
-2.26346e-07
-3.72219e-07
1.05388e-06
-2.34171e-06
-3.34478e-06
-5.09617e-08
3.41078e-06
2.8952e-07
9.39858e-08
-3.83483e-07
-2.94084e-07
4.94691e-07
-2.00595e-07
1.18781e-06
-4.17226e-07
5.82523e-07
-9.06413e-08
-4.91768e-07
-2.3045e-07
5.3155e-07
4.77073e-07
-5.49455e-07
7.27667e-08
-8.6297e-07
1.72764e-06
-8.57166e-07
1.73303e-07
1.00125e-08
-2.16993e-07
1.54258e-07
2.56115e-07
-4.10359e-07
-1.79961e-06
1.20763e-06
5.99162e-07
-4.34749e-07
9.47873e-08
2.73861e-07
-1.6771e-06
2.83508e-06
-1.54662e-06
-1.2848e-06
-8.10533e-10
-8.63224e-08
8.1316e-08
2.50801e-06
-6.0219e-07
-1.93762e-06
3.28181e-07
3.38245e-07
-6.64285e-07
2.21659e-07
2.44581e-07
-4.66244e-07
1.12076e-06
1.71779e-06
2.17889e-07
6.83151e-07
-6.34176e-08
-3.83897e-07
3.64342e-06
-3.61703e-06
-2.61509e-08
-2.03511e-07
5.1972e-07
-3.16172e-07
-3.72441e-07
-2.72227e-07
6.44875e-07
-5.10307e-07
2.5556e-07
2.5478e-07
-1.66698e-07
-2.56373e-07
4.2237e-07
-1.1015e-06
-1.31321e-06
4.78074e-07
-2.56435e-07
-2.91937e-07
-1.75712e-07
4.67682e-07
6.96676e-07
-3.66399e-07
6.38066e-07
-2.77091e-07
2.02684e-07
-5.41377e-07
3.38773e-07
6.35561e-07
-1.55146e-06
3.30001e-07
5.77947e-07
8.52127e-09
-2.24791e-06
2.24111e-06
-1.6605e-06
2.02619e-07
1.35815e-06
1.33707e-07
9.20389e-08
5.00692e-07
-2.32582e-08
4.72085e-06
-1.53345e-06
-3.20578e-06
2.50067e-06
-6.58536e-07
-1.82859e-06
-7.49702e-07
5.28418e-07
2.219e-07
-5.13523e-07
-2.01e-06
2.51328e-06
-1.43847e-07
4.60753e-07
-3.62302e-06
1.68827e-07
3.41676e-06
-2.38761e-07
2.57507e-06
-2.34384e-06
7.59265e-07
-4.83309e-07
-1.62792e-08
6.82068e-07
2.15643e-06
-8.19145e-07
-1.33405e-06
8.37273e-07
3.57039e-07
1.14611e-06
-1.02758e-06
-1.17527e-07
5.55277e-07
-7.75511e-07
7.72544e-07
-1.15212e-06
2.88766e-07
-6.60992e-07
-1.01423e-07
6.06595e-07
-5.36582e-07
3.62837e-06
2.2632e-07
-8.20318e-07
3.6151e-07
4.58963e-07
-1.68096e-06
1.96192e-06
8.36383e-07
3.02575e-07
-1.13642e-06
8.74774e-07
-5.81951e-08
-8.14624e-07
-4.21517e-08
-2.42508e-08
2.34192e-07
9.13191e-07
8.77317e-07
4.86972e-08
-9.23246e-07
-8.85498e-10
1.51582e-07
1.46294e-07
-3.79162e-07
2.32703e-07
6.20517e-07
-1.37656e-06
-2.27581e-06
6.53011e-07
1.57229e-06
-7.9825e-07
-2.59426e-07
-2.50444e-06
1.71351e-06
7.94483e-07
5.84088e-07
3.44556e-07
-9.2668e-07
-5.19602e-07
-3.48832e-07
8.68566e-07
5.81593e-07
-2.83044e-07
-2.98532e-07
-6.65888e-07
1.46356e-07
-6.0897e-07
3.44516e-07
2.64799e-07
3.64932e-06
-1.70781e-06
-2.02339e-06
5.06846e-07
-2.44326e-07
-1.6518e-06
-1.04763e-07
-1.9634e-06
-8.31109e-08
-5.41889e-07
6.26088e-07
-1.44517e-07
4.34099e-07
6.77904e-07
-4.3964e-07
-2.38052e-07
-6.47972e-08
9.45224e-07
-1.12605e-06
-4.9329e-08
1.1781e-06
5.79409e-07
3.16895e-07
-8.95705e-07
2.55033e-06
1.58285e-06
-4.1525e-06
1.03074e-06
-2.31318e-07
-7.97666e-07
2.01698e-06
-2.34539e-06
8.81474e-07
-3.24608e-07
4.11446e-07
7.65178e-09
-4.1909e-07
3.81316e-07
-6.24271e-07
8.90616e-09
-3.3548e-09
2.27801e-06
-2.80243e-06
-2.28486e-06
4.80642e-06
-2.92842e-08
-9.51759e-07
8.60852e-07
5.73376e-07
-5.75961e-08
2.76392e-07
7.35143e-07
-1.00884e-06
2.27972e-06
-2.23356e-06
-8.02871e-08
6.79813e-07
-3.97341e-07
-2.82363e-07
-5.04941e-07
2.41114e-07
1.1649e-06
-2.13216e-06
9.7801e-07
3.42472e-08
5.48412e-07
-4.03316e-07
1.81537e-07
2.21745e-07
-2.51849e-07
6.3406e-07
1.34648e-06
-1.70156e-06
-1.72136e-07
-2.98015e-07
4.70178e-07
6.85539e-07
-1.26093e-06
5.76186e-07
-1.38527e-06
1.86992e-06
-4.90793e-07
2.93514e-07
-4.96985e-07
-1.39361e-06
2.45798e-07
-6.88084e-07
1.3744e-06
3.99133e-06
-1.26355e-06
-2.71246e-06
-1.41817e-06
1.26832e-06
1.53434e-07
1.63131e-07
-5.96191e-07
4.33568e-07
-1.87234e-07
-4.2142e-07
-5.14172e-07
1.10036e-06
-4.43406e-07
-3.68912e-07
8.12355e-07
5.44044e-06
-5.31339e-06
3.72947e-07
-1.07925e-06
7.10323e-07
-2.0523e-06
-5.71662e-07
2.5948e-06
-1.44625e-07
1.02159e-06
-8.44433e-07
1.46832e-06
4.33972e-07
-5.16166e-07
3.26923e-07
-3.76968e-07
5.00462e-08
9.37147e-07
2.60257e-06
2.60333e-06
-6.95467e-07
-1.89942e-06
1.3477e-07
3.95843e-07
-5.30717e-07
1.94963e-06
6.61288e-07
1.71672e-06
7.99456e-07
9.74894e-07
-4.94182e-07
5.72342e-07
-7.81682e-08
8.23101e-08
-3.48438e-07
-2.62411e-06
2.67098e-06
-5.43744e-08
-9.77974e-07
6.70845e-07
3.0794e-07
1.27341e-07
-1.95491e-07
1.18482e-07
-3.27495e-07
5.24305e-07
-7.38191e-07
-1.21999e-06
1.96264e-06
3.93107e-06
-3.88184e-06
-5.99301e-08
-4.28611e-08
-1.00859e-06
1.05523e-06
-8.6208e-07
1.1415e-06
-8.8751e-07
2.40788e-06
-2.73069e-07
4.00419e-07
3.12132e-07
3.67811e-07
6.55794e-07
-5.0294e-07
-1.52059e-07
8.5289e-08
4.99455e-07
2.70805e-07
-3.99373e-06
3.69988e-06
-1.92069e-06
2.91133e-07
9.93974e-07
-5.29881e-07
-4.63672e-07
2.85255e-07
2.96364e-07
-2.73596e-07
-1.25066e-06
1.52508e-06
4.07842e-07
-6.39412e-07
-1.7843e-07
8.19141e-07
1.51705e-06
-3.95077e-07
-1.11816e-06
-3.96991e-07
2.97674e-07
3.44271e-06
-1.2897e-07
5.09038e-07
-3.79122e-07
-2.28958e-07
-9.10901e-07
9.00694e-07
5.04417e-07
-3.47227e-07
-1.57099e-07
6.92081e-07
3.35206e-07
-1.02633e-06
-2.50173e-06
-6.5007e-07
7.37231e-08
-1.21583e-06
1.14556e-06
-9.75941e-07
2.30802e-08
9.5441e-07
1.66526e-06
1.12248e-06
-2.76818e-06
4.08001e-07
-1.80247e-06
-3.1229e-07
-9.664e-08
4.08931e-07
1.22672e-07
5.3421e-07
4.56543e-07
1.87134e-06
-2.35768e-06
3.81973e-07
-7.54942e-09
-3.74423e-07
-4.40522e-07
4.2348e-07
2.54669e-07
2.61284e-06
3.1391e-07
-2.96109e-06
-3.69106e-09
3.70132e-07
1.19155e-07
-4.88724e-07
2.48164e-06
-1.30474e-06
4.26456e-06
4.35199e-07
3.95744e-06
-1.48086e-06
-2.47842e-06
1.73601e-06
-1.64463e-07
-1.57008e-06
3.6969e-07
-6.41711e-07
-2.0299e-07
-7.71734e-07
-1.13794e-06
1.09918e-06
1.4081e-06
-6.70408e-07
3.99066e-07
-1.23717e-06
1.25511e-06
-4.95465e-07
4.72558e-06
7.02276e-07
2.44389e-07
-2.50932e-07
-6.0105e-07
5.00559e-07
1.00451e-06
-5.82966e-07
-4.2087e-07
-6.71259e-07
-3.06177e-07
1.8358e-07
-5.18727e-07
-1.33145e-06
1.05857e-06
7.97775e-07
1.36105e-06
2.19819e-08
-4.65822e-09
-4.34442e-08
3.45755e-07
-4.73823e-07
2.86905e-07
2.1764e-07
1.86415e-06
-4.17458e-06
-2.18561e-06
5.88087e-07
1.54655e-06
-2.21502e-06
4.05963e-06
1.14314e-06
-1.4006e-06
-5.20783e-07
1.10087e-06
3.04835e-07
3.87813e-07
2.66797e-06
-2.21437e-06
8.16157e-09
1.93368e-06
-1.939e-06
7.86798e-08
-3.72853e-06
3.61485e-06
6.39156e-07
-3.42573e-07
4.80657e-07
1.82589e-07
2.77783e-07
-7.64193e-07
4.87099e-07
9.48356e-07
-5.49571e-07
-3.98567e-07
9.78702e-07
1.66377e-06
-2.62709e-06
-4.9803e-07
6.04754e-07
-1.06386e-07
7.75998e-07
-5.68176e-07
-1.36751e-06
9.20553e-07
4.50285e-07
1.17328e-06
-6.02956e-07
-5.69762e-07
2.4224e-07
-2.70192e-07
-1.4794e-07
4.17931e-07
-2.7087e-07
-4.78317e-07
5.93137e-07
-6.31342e-07
-1.88987e-08
8.3425e-07
3.47433e-07
-1.17953e-06
6.47696e-07
-3.61135e-07
-2.86481e-07
-2.71827e-08
-4.67011e-07
-1.84703e-06
1.20388e-06
6.46433e-07
3.81902e-06
-3.56989e-06
-4.03983e-07
1.00927e-06
-6.02747e-07
-1.45246e-06
-2.02693e-06
3.48602e-06
-1.57389e-06
1.21287e-06
3.68551e-07
4.06956e-07
-6.09429e-07
2.02583e-07
2.03866e-07
3.20682e-07
-5.24302e-07
8.57114e-07
-7.18845e-08
-7.82173e-07
-8.86775e-07
1.28836e-06
-1.31535e-07
4.5846e-07
-1.9056e-06
2.50703e-06
-5.99233e-07
-1.69086e-06
1.60178e-08
-2.4839e-06
2.15183e-06
3.17382e-07
2.14658e-07
-2.79429e-06
-1.03554e-06
5.03281e-07
5.35443e-07
1.23024e-06
-1.8391e-06
6.16027e-07
-3.40668e-08
4.16041e-07
1.7803e-07
3.91161e-07
-5.69347e-07
1.23091e-06
2.77473e-06
2.47367e-06
-2.04956e-06
-4.59121e-07
2.45748e-07
2.13396e-07
-1.15725e-07
9.76427e-07
5.49635e-07
-3.62095e-07
-2.4662e-06
5.62851e-07
9.3243e-07
-1.13887e-06
2.12819e-07
3.55603e-06
3.60991e-07
-6.88449e-07
1.57236e-06
-8.82432e-07
-6.50655e-07
2.10695e-06
2.94052e-06
-2.09035e-06
-3.3188e-07
-9.32051e-08
4.25087e-07
3.36532e-07
-1.90299e-07
-1.72336e-07
-2.20633e-07
3.92544e-07
2.44974e-07
5.42281e-08
-6.89282e-08
-1.05407e-08
7.51264e-07
-5.51718e-07
-1.98643e-07
-5.01655e-07
2.41307e-07
2.60304e-07
-1.02187e-06
-3.93093e-07
-5.48955e-07
-1.56873e-06
7.22608e-07
-5.38637e-07
-3.26362e-06
3.23021e-06
2.65942e-08
1.06211e-07
3.32952e-06
-3.42346e-06
-1.8446e-07
-1.56895e-06
-4.60244e-07
-5.72885e-07
2.35867e-06
-2.47239e-06
1.10461e-07
2.16168e-07
-1.60265e-06
4.93219e-07
4.55378e-07
5.67167e-07
-2.8247e-07
-2.84653e-07
5.68638e-07
3.38448e-06
-4.24248e-07
7.64854e-08
-9.51241e-07
-2.11018e-07
1.16737e-06
2.67592e-06
-1.06855e-07
2.23356e-06
-1.09751e-06
-1.12429e-06
-5.77218e-07
-2.1512e-06
2.72847e-06
-1.58275e-06
3.0521e-07
1.21542e-06
-6.14209e-07
-3.34151e-07
9.51932e-07
6.24194e-07
6.31454e-07
-1.91647e-07
-2.10689e-07
-8.73524e-07
-6.66728e-07
-7.72821e-07
-1.63343e-06
2.40293e-06
4.66977e-07
-3.32305e-07
2.05085e-07
2.88854e-07
-4.93778e-07
-6.16722e-07
4.26066e-07
1.91201e-07
2.71631e-07
-4.38857e-07
9.50702e-07
-3.39925e-07
-6.07464e-07
-7.37505e-07
-1.34328e-06
2.08637e-06
2.34665e-06
4.9656e-07
1.11954e-07
2.1255e-06
-2.1592e-06
-3.41336e-07
-1.01314e-06
9.44918e-07
-1.33128e-06
8.18011e-07
5.19165e-07
1.51414e-06
1.15887e-07
-1.61958e-06
-5.05618e-07
1.19878e-06
-1.46516e-06
6.48401e-07
-2.94482e-07
-3.53369e-07
-7.95746e-07
1.56407e-06
-2.14134e-06
4.25057e-07
9.86482e-07
-2.35465e-07
4.70241e-07
1.14497e-06
-1.7761e-06
6.34679e-07
5.96041e-07
-3.91896e-07
-3.03155e-09
2.29871e-08
2.62299e-06
-4.36284e-07
2.96077e-07
1.40246e-07
9.03902e-07
-1.22694e-06
3.2431e-07
-1.80113e-06
2.55325e-06
-7.43027e-07
-4.66971e-07
6.30665e-07
4.51333e-07
-7.97794e-07
5.27936e-07
4.66431e-07
4.5993e-07
-3.97395e-07
-9.91529e-07
-1.76466e-06
-7.10651e-07
1.91286e-06
-1.19856e-06
-2.69063e-07
-4.78484e-07
2.67615e-07
1.42031e-06
-1.04877e-06
-3.711e-07
4.83942e-07
3.11913e-07
-7.95103e-07
2.64136e-07
-8.56796e-07
2.23891e-07
4.25151e-07
3.79307e-07
-1.29004e-07
-1.00346e-07
6.09243e-07
-2.17203e-06
8.07631e-08
2.39661e-07
-7.00354e-07
4.61445e-07
-1.03548e-07
-2.53499e-06
-2.51558e-07
-7.58252e-07
-1.95399e-06
1.51881e-06
4.41469e-07
-4.171e-08
5.0165e-07
-3.06397e-07
1.24554e-06
3.78001e-07
2.69815e-07
-2.79879e-07
1.80542e-06
1.24936e-06
-7.70804e-07
-4.72749e-07
-1.0593e-06
4.7253e-07
-3.35425e-07
3.45843e-06
-3.69538e-06
1.6263e-08
-2.86446e-07
-3.42054e-07
-2.15373e-06
5.01536e-07
-1.65392e-08
-4.84947e-07
-1.05245e-06
2.32761e-06
-1.30824e-06
3.40044e-07
2.1219e-07
-5.51539e-07
-1.21469e-06
-3.51453e-07
-5.74911e-08
-1.83387e-06
1.8389e-06
-3.40188e-06
2.39257e-06
-1.63042e-06
1.36221e-06
-3.29569e-07
6.10691e-07
-2.80851e-07
4.17633e-07
-3.6339e-07
-5.42365e-08
4.47398e-07
-2.49128e-07
-1.0982e-06
1.50514e-06
-3.99902e-07
-2.38677e-06
7.294e-07
1.67136e-06
8.22703e-07
-7.98328e-07
4.0754e-08
-4.28647e-09
-3.35729e-08
-1.69476e-07
2.23769e-07
-4.4878e-08
-2.61056e-07
-2.33608e-07
4.94716e-07
-1.50444e-06
-1.92238e-06
-2.42821e-06
2.40855e-06
1.62041e-08
-9.24025e-07
2.85857e-07
4.8944e-07
3.38323e-08
9.83089e-07
-4.98234e-07
-1.64258e-07
9.88504e-07
-2.45826e-06
2.79754e-08
2.72975e-06
-3.74211e-07
-1.43081e-06
7.8825e-07
6.43607e-07
-9.88432e-07
2.13764e-06
-7.91605e-07
-1.0013e-06
-5.21033e-07
5.55413e-07
2.53191e-06
-1.12626e-06
-1.3896e-06
7.94698e-07
6.26197e-07
-1.75099e-06
5.952e-07
1.15953e-06
1.38939e-06
-2.16613e-06
-4.36331e-07
1.63778e-08
4.20658e-07
-1.65324e-06
2.2859e-06
-6.30453e-07
2.3415e-06
-4.17978e-07
-1.91749e-06
-6.41686e-08
4.49503e-07
-3.85641e-07
3.50311e-07
-4.07866e-07
5.75793e-08
6.05197e-07
6.50263e-07
6.71545e-08
-4.51362e-07
3.84659e-07
-9.3074e-07
-9.13576e-07
2.2455e-06
4.44007e-07
-9.36323e-08
1.73695e-07
3.48096e-06
3.94691e-07
-2.20011e-07
-1.74675e-07
-1.56998e-07
6.58597e-07
1.82288e-06
-2.09091e-06
2.29127e-07
-2.36106e-08
-4.97303e-07
-5.14018e-07
-9.37795e-07
5.36179e-07
5.96702e-08
-8.15891e-08
-1.26286e-08
3.85734e-07
6.19522e-07
5.31446e-07
-3.68303e-07
-1.63045e-07
-2.32084e-06
-2.84495e-06
2.83145e-07
2.55933e-06
6.79669e-07
-3.33974e-06
-1.18106e-06
2.86163e-06
-3.05904e-06
-2.73019e-07
-2.19789e-07
-2.42429e-07
3.54395e-07
-1.69476e-07
2.94348e-07
2.72873e-07
1.59862e-06
2.05879e-07
-1.79564e-06
3.04977e-07
-3.68354e-07
3.37277e-08
2.30765e-06
-2.34239e-06
4.79626e-07
2.46049e-07
-7.25068e-07
-1.61188e-07
-2.53859e-06
4.62502e-07
-3.02951e-08
2.15436e-06
-4.77336e-07
-1.66882e-06
1.73802e-07
-6.00764e-07
3.93079e-07
1.10296e-06
-1.83675e-06
-7.38756e-07
1.47059e-06
-7.30499e-07
2.25692e-06
-2.24665e-06
-8.80864e-07
3.34496e-08
8.49312e-07
4.88495e-07
1.5092e-07
-3.94429e-06
1.95996e-07
3.62911e-06
-4.18401e-07
-7.23767e-08
4.90859e-07
1.74999e-07
2.44384e-07
-4.19374e-07
3.98717e-07
-1.05036e-06
6.52018e-07
6.55323e-07
-4.15045e-07
2.5598e-07
-4.28692e-07
-1.38201e-06
1.18221e-06
1.3695e-06
1.25573e-06
-1.73554e-06
4.87919e-07
2.95252e-07
-1.53966e-07
-3.62714e-07
1.97151e-06
1.46909e-06
-9.73411e-07
-4.88016e-07
-2.97165e-07
2.33399e-06
-2.04024e-06
-2.84687e-07
5.30149e-07
-2.45434e-07
1.50814e-06
-3.7806e-07
-1.12525e-06
-2.29306e-08
5.03479e-07
5.78796e-07
-8.6022e-07
2.831e-07
2.7668e-07
-3.47543e-07
1.80127e-06
-2.46999e-06
8.6284e-08
2.37584e-06
-8.92346e-07
1.19203e-06
-2.9704e-07
-4.97778e-07
-1.28663e-07
6.26571e-07
-1.95262e-06
3.71897e-07
2.2997e-07
9.27386e-07
-2.33992e-06
1.41844e-06
-2.77065e-07
-2.27673e-07
1.12789e-06
-1.91029e-06
7.86541e-07
3.45665e-06
-3.52624e-06
6.25557e-08
-1.56613e-06
-1.42067e-07
3.04745e-07
-3.89921e-07
2.79295e-08
1.80851e-07
2.40934e-07
-4.21755e-07
2.0032e-07
-4.77182e-07
-1.97207e-06
-4.9121e-07
6.16733e-07
2.07275e-09
-6.17525e-07
4.52882e-07
7.08555e-07
-1.16019e-06
-3.49825e-07
-2.66408e-07
3.19335e-08
3.85707e-07
6.44382e-07
-2.73553e-07
-4.33584e-07
5.52561e-07
-1.1883e-07
5.58332e-06
-2.74833e-06
-2.83364e-06
3.04859e-07
2.2214e-07
-3.42153e-07
1.18624e-06
-2.70157e-06
5.44496e-07
2.15306e-06
-3.26197e-07
-1.06863e-06
-3.98272e-07
-2.43079e-07
-1.93178e-07
-2.4708e-06
2.57789e-06
-1.64694e-06
1.98856e-06
-3.40406e-07
-1.78417e-07
2.18532e-06
-2.00905e-06
-8.40976e-07
1.26648e-06
-6.4404e-07
-3.67015e-07
-7.50956e-08
4.42118e-07
-8.26096e-07
-7.67333e-08
9.04732e-07
-4.14252e-07
-2.29642e-07
-2.72052e-07
2.06287e-06
9.37064e-09
-2.06817e-06
4.32298e-07
-5.59334e-07
1.07315e-06
-8.09006e-07
-2.60506e-07
-2.0395e-07
3.95575e-08
3.63742e-07
2.11055e-06
-1.63137e-06
8.94374e-07
-2.86497e-06
-3.26814e-07
3.20401e-06
-7.43968e-07
3.12314e-07
1.20119e-06
-6.32326e-07
1.5914e-07
4.73439e-07
-3.4051e-07
-1.29758e-07
4.70254e-07
-7.10858e-07
1.02371e-06
1.16949e-06
-2.25659e-06
1.55164e-06
-6.4637e-07
-7.93721e-07
3.40975e-07
4.53277e-07
-3.44243e-07
-1.20642e-07
4.64936e-07
6.24583e-07
8.53517e-07
4.97311e-07
-3.56273e-08
-4.6164e-07
-1.23675e-06
4.31646e-07
8.08017e-07
-2.4617e-06
4.9315e-07
-1.51098e-07
7.69367e-07
4.45642e-07
1.38556e-08
-4.59183e-07
-2.10273e-06
1.28692e-06
5.50467e-06
-2.15404e-06
-3.37495e-06
2.77714e-07
-6.37077e-07
3.59571e-07
2.78385e-07
-3.43367e-07
-1.40623e-08
2.75264e-07
2.28951e-07
-3.76908e-07
1.16034e-07
1.10767e-07
4.72355e-08
-5.44895e-07
-3.46552e-06
3.59381e-06
2.50253e-07
1.12063e-07
-3.62316e-07
-9.35488e-08
-3.52376e-07
4.45925e-07
2.26303e-07
-7.40182e-07
1.97783e-06
-8.373e-08
1.24224e-06
-1.66446e-07
-3.6749e-07
5.3404e-07
1.4961e-07
-1.4961e-07
2.63947e-07
3.8966e-07
-6.52065e-07
1.92818e-07
2.01879e-07
-6.00452e-07
7.89298e-07
-1.88278e-07
4.60976e-07
-1.84427e-07
-9.00353e-07
6.64416e-07
2.39138e-07
1.7217e-07
2.04897e-07
-3.77074e-07
3.24941e-07
-9.35838e-07
7.62075e-07
1.42648e-06
-2.18552e-06
-1.87714e-06
2.32014e-07
1.86452e-07
2.06033e-07
-3.92974e-07
1.54001e-07
-6.11391e-07
4.57975e-07
-4.05839e-07
-2.50252e-07
5.71182e-07
-3.3578e-06
6.33439e-07
-3.68096e-07
4.78008e-08
-2.61027e-09
-2.50079e-07
-8.74013e-07
9.18455e-07
-3.39412e-07
-5.75561e-07
-3.85857e-07
9.30294e-07
2.0656e-06
-2.9097e-07
-1.47448e-06
-1.30509e-07
1.60727e-06
6.00346e-07
1.51889e-07
-4.3521e-07
1.68753e-08
-2.31279e-07
4.17338e-07
4.01005e-07
-2.79771e-08
-3.73028e-07
-9.82838e-07
-3.8157e-07
1.10999e-06
-5.32512e-07
3.74474e-07
-6.2544e-07
-1.79714e-06
1.80795e-06
-3.51925e-06
3.43382e-06
7.32483e-08
-2.27905e-06
2.65391e-06
-3.9355e-07
3.06154e-06
-1.34122e-06
-1.6998e-06
-6.11774e-07
-1.11738e-06
2.18048e-06
-1.06583e-06
3.33228e-07
5.88971e-07
2.55421e-06
-2.16468e-06
-4.32122e-07
1.6178e-08
-4.49506e-08
-2.04942e-06
3.63335e-07
1.63647e-06
-2.27304e-07
-2.39936e-07
4.67283e-07
2.07555e-06
-1.03428e-07
5.19646e-08
-6.60766e-08
5.1912e-09
7.66971e-07
3.09867e-07
-1.2656e-06
8.62743e-07
4.06829e-07
-1.23144e-06
-2.7933e-06
-3.4048e-09
-3.28473e-07
1.25967e-06
-2.70363e-06
4.53639e-06
-4.29315e-06
-2.42266e-07
-1.01478e-06
4.08734e-07
6.07925e-07
-1.25305e-06
5.46301e-07
7.07244e-07
-6.54985e-07
2.51532e-08
1.7336e-06
-1.75415e-06
5.14776e-07
-1.74271e-08
-6.49692e-07
3.34819e-07
6.56147e-07
-9.88573e-07
-1.38373e-07
5.84369e-07
-6.87303e-07
1.0246e-06
5.66019e-07
1.57199e-07
1.55273e-06
-7.90886e-07
-4.89544e-07
2.71092e-07
2.18499e-07
-2.29908e-08
-3.4402e-07
3.27021e-06
4.83545e-07
-2.32897e-07
2.57986e-07
-6.01371e-07
3.43762e-07
1.79917e-06
-1.88347e-06
-3.33898e-08
4.39803e-07
-2.68878e-07
-1.70848e-07
-2.75471e-06
2.63895e-06
9.15857e-08
-1.87879e-06
3.4626e-07
1.48921e-06
-8.51175e-07
1.36171e-06
-5.05819e-07
-3.34413e-07
1.92545e-06
4.76935e-07
2.53106e-07
-7.29688e-07
9.64734e-08
-4.40666e-07
3.59112e-06
-2.68389e-07
-2.21111e-07
2.48974e-06
3.09608e-06
1.36846e-06
-2.47788e-07
6.18784e-07
-4.64156e-07
-3.83623e-06
4.24682e-07
3.29782e-06
4.54344e-07
-2.83797e-07
-1.70525e-07
-1.46762e-06
-4.38494e-07
1.9101e-06
2.99757e-06
-4.57953e-07
-2.53232e-06
2.51557e-07
-2.74055e-06
2.47658e-06
-2.83252e-06
5.41425e-07
2.75484e-08
-7.10144e-07
6.83101e-07
-5.94063e-07
-2.26125e-07
3.99474e-07
-3.37534e-08
-3.65711e-07
1.1782e-07
-8.2782e-07
-1.80287e-07
-3.40959e-07
-2.28276e-07
-8.96719e-07
1.1287e-06
-2.75226e-06
-6.60544e-07
-6.8782e-08
7.30255e-07
4.03903e-09
3.96967e-07
-5.49633e-07
1.16193e-07
8.26344e-07
-4.64648e-07
7.44223e-07
-4.65768e-07
-7.73463e-07
-3.53228e-07
1.13338e-06
-1.48551e-06
-1.26238e-07
1.61742e-06
6.52806e-07
-6.24797e-07
2.32957e-06
-1.31279e-06
-1.01278e-06
2.81666e-07
-5.12068e-07
1.45235e-07
-1.66124e-07
-6.31624e-09
-1.84551e-07
4.34582e-07
-2.45717e-06
1.28598e-08
2.68284e-07
5.58231e-07
-6.22191e-07
-8.07651e-07
2.39866e-06
-5.61321e-07
-1.82978e-06
2.07211e-07
3.71856e-07
-2.42432e-06
2.20246e-06
1.83628e-07
6.22977e-07
-2.44848e-07
2.36473e-07
-1.70036e-06
-1.51073e-06
-4.77453e-07
-8.47763e-07
-6.10087e-07
-3.50264e-07
9.61579e-07
-5.536e-07
-1.56092e-07
-5.24049e-07
4.57751e-07
3.23778e-08
-4.89735e-07
-4.07595e-07
1.63033e-07
2.4456e-07
5.67495e-07
8.22826e-07
-1.60832e-07
3.89779e-07
-3.26623e-06
1.92361e-06
1.33469e-06
4.67802e-07
1.27424e-08
-4.80464e-07
-6.36703e-07
-2.60622e-07
-1.84533e-06
6.80741e-07
-2.26937e-06
-1.89945e-07
8.8554e-07
-8.0934e-07
2.14354e-06
1.31617e-06
4.37761e-07
2.56436e-06
-7.3382e-07
1.79535e-06
-1.05171e-06
-1.40909e-07
6.08806e-07
5.57611e-07
-3.98271e-07
5.99012e-07
-3.2111e-07
-9.07558e-07
5.92374e-07
3.16016e-07
2.65348e-08
-7.47103e-07
7.03918e-07
-4.98975e-07
1.01115e-06
-5.07656e-07
5.35887e-07
-3.33116e-07
-5.35036e-07
2.29755e-06
-1.80233e-06
5.75648e-07
-9.11528e-07
2.45154e-06
-1.8415e-06
-6.00503e-07
3.61615e-07
-3.07385e-08
-3.30838e-07
-1.76068e-06
2.72346e-07
1.49017e-06
-3.85294e-07
8.33986e-08
3.01912e-07
1.12709e-07
4.5413e-09
-1.42728e-07
-4.58048e-07
4.91477e-08
-1.33391e-09
1.10917e-06
-8.86618e-07
-2.18957e-07
-1.19349e-06
-1.51101e-06
1.30943e-06
1.77189e-06
-2.40936e-06
1.16462e-06
1.2619e-06
-3.75625e-06
4.391e-07
4.09789e-06
-1.23555e-06
-2.50502e-06
3.62595e-06
-5.17124e-07
1.878e-07
1.5668e-07
6.94653e-08
-7.57594e-07
-9.26853e-07
1.69407e-06
1.71578e-07
2.82791e-07
-2.10241e-06
-3.55365e-07
1.38705e-06
-5.62674e-07
-4.38731e-07
1.65438e-06
-2.23501e-07
6.3003e-07
-4.05979e-07
-2.5905e-07
3.90327e-07
7.03694e-07
-1.45312e-06
3.64606e-06
-4.00577e-06
2.87478e-07
4.42121e-07
-4.6515e-07
1.97542e-06
-2.26521e-06
1.66868e-07
1.72186e-06
-1.27132e-06
-4.42679e-07
-3.11897e-07
-1.47196e-07
-3.44362e-07
5.35694e-07
-1.91291e-07
-4.07782e-07
-2.11916e-07
6.19898e-07
-4.16696e-07
5.36397e-07
-5.47375e-07
-4.65859e-08
-7.87664e-08
1.81609e-06
-1.56479e-06
-1.15981e-06
2.71023e-06
-2.5021e-07
5.31926e-07
-1.56181e-06
6.03374e-07
-4.42997e-07
-1.60254e-07
-1.78289e-06
1.20663e-06
5.84519e-07
-3.08461e-08
1.42887e-06
-1.38702e-06
-5.20463e-07
2.84642e-07
2.35864e-07
-2.62524e-07
-2.35967e-07
4.98534e-07
2.14512e-06
6.36135e-09
3.93123e-07
-8.86533e-07
-8.60988e-07
6.84897e-07
1.67864e-07
-8.47845e-07
-7.58477e-07
3.89591e-07
-3.49118e-07
2.44362e-07
-3.53315e-07
5.76008e-07
-2.22625e-07
-3.71693e-10
9.47353e-08
-1.31768e-07
6.89856e-07
-1.79081e-06
8.01104e-07
-3.04955e-07
4.98695e-07
-1.93754e-07
-2.11996e-06
-5.10327e-07
2.85214e-06
-2.44889e-06
-5.18683e-07
-4.83409e-07
2.46685e-06
-1.98829e-06
3.31876e-07
1.6238e-07
-4.93973e-07
-7.04064e-07
5.21722e-07
1.83967e-07
-1.03388e-06
-1.81811e-07
-2.75189e-07
4.57026e-07
-1.30659e-06
3.605e-07
1.65898e-07
7.24045e-07
4.55333e-07
2.00643e-06
4.15726e-07
-1.47986e-06
1.00631e-06
-2.93022e-06
2.33262e-06
3.89553e-07
1.80924e-06
-2.17079e-06
2.98404e-07
2.02619e-07
1.76717e-07
-3.69173e-07
-3.42965e-07
-4.03919e-07
7.48566e-07
8.63058e-08
-2.35561e-06
-3.68778e-07
3.93334e-06
-1.21028e-06
-2.48972e-06
2.15469e-06
3.25726e-07
-1.28466e-06
4.37708e-07
-1.32877e-06
1.54737e-06
-4.71154e-07
-5.14588e-07
2.32146e-07
2.82522e-07
9.67635e-07
-6.30531e-07
7.56771e-07
-1.73705e-07
-5.82196e-07
2.81397e-07
-6.22948e-07
-2.56102e-06
-2.84387e-07
-2.73963e-08
6.80695e-07
9.5112e-07
-2.52875e-06
-1.45885e-07
6.91904e-07
-4.33528e-07
2.03566e-07
-4.53143e-07
2.49588e-07
-5.63498e-07
1.91958e-07
3.71665e-07
-2.91627e-06
6.29089e-08
9.57695e-07
-1.68233e-06
-3.36727e-07
4.82682e-07
-1.45947e-07
-2.19141e-07
-2.20835e-07
4.39994e-07
-2.74905e-07
-4.34666e-07
-4.96792e-07
9.31541e-07
-3.63568e-07
-4.29682e-07
2.61636e-07
1.82396e-07
4.49418e-07
-1.69547e-08
-2.12794e-07
5.88118e-07
-1.73525e-07
-3.16587e-07
5.50022e-07
-7.98454e-07
-1.25578e-09
2.77498e-07
-9.70605e-07
1.28802e-06
-2.35208e-07
-1.80985e-07
4.15696e-07
-3.25528e-07
-1.10464e-07
4.91107e-07
2.254e-07
-7.16393e-07
-3.01391e-08
2.45869e-06
-2.42898e-06
-2.75747e-06
1.63891e-06
1.13554e-06
-3.76194e-07
-8.34491e-07
1.21117e-06
-1.76226e-07
3.57251e-07
1.95159e-06
4.52302e-07
4.10841e-07
-6.15121e-07
2.0438e-07
-2.49035e-06
1.16887e-07
2.34057e-06
-1.69581e-06
-6.00331e-07
-1.05195e-07
7.05947e-07
2.0132e-06
2.41943e-07
-1.71426e-07
-2.36597e-06
2.50126e-06
-1.84781e-06
-1.00608e-07
5.56146e-07
-1.39761e-06
-1.45321e-06
3.39963e-07
1.05381e-06
1.31286e-06
1.02047e-06
-3.42055e-06
-7.74509e-08
5.35598e-07
4.67807e-07
1.8113e-07
-6.47191e-07
1.97253e-07
2.9746e-07
2.48764e-07
-1.01001e-06
5.59549e-07
4.50748e-07
2.37905e-07
-2.52431e-06
2.29305e-06
-6.11747e-07
7.1038e-07
-2.6633e-07
-9.71757e-07
1.17402e-06
-2.00871e-07
-2.97028e-07
-2.22455e-06
-1.56791e-06
2.56086e-06
-5.63985e-07
2.33586e-07
9.91576e-08
-6.04478e-07
5.06871e-07
-1.17398e-06
-5.53125e-07
-2.67326e-07
4.34373e-07
-1.67026e-07
-4.62041e-07
1.01587e-06
-1.08383e-06
2.14714e-06
-7.96517e-08
-4.48358e-08
3.49121e-07
-2.03475e-07
-7.58886e-07
9.93165e-07
-2.33509e-07
-1.31416e-07
2.68768e-06
-2.63309e-06
1.72689e-07
-5.04015e-07
3.32053e-07
7.52629e-07
-7.04189e-07
-5.63491e-08
1.01503e-06
3.57865e-07
1.62762e-06
1.14685e-06
-2.78959e-06
-5.70724e-07
-6.65785e-08
6.37437e-07
-2.31023e-07
1.63492e-06
-1.41356e-07
-1.53056e-06
-3.11844e-06
3.08082e-06
-4.77719e-07
-1.09656e-07
5.87498e-07
1.12756e-07
-2.58886e-06
5.3389e-07
-3.21942e-07
-2.11819e-07
-2.62295e-07
4.21019e-07
-1.58496e-07
-4.16253e-07
-7.78276e-07
1.1997e-06
-1.88929e-06
-1.25757e-06
1.84642e-06
-5.85576e-07
3.23671e-06
-1.62597e-06
8.88416e-08
4.81529e-09
-1.12932e-07
-2.75577e-07
5.74281e-07
-4.65864e-07
-6.81574e-07
-1.42429e-06
2.11168e-06
2.04874e-07
2.34929e-07
2.824e-09
3.23769e-08
2.12042e-06
-2.36602e-06
-3.91326e-07
-1.50003e-07
-3.24547e-06
3.11909e-06
1.15692e-07
2.52822e-07
2.81668e-07
-3.57587e-06
8.52659e-08
3.35246e-06
1.35444e-06
-8.00572e-07
-5.53002e-07
-2.88641e-07
-2.92648e-06
5.05844e-07
2.4112e-06
1.10469e-06
1.13027e-06
-2.24485e-06
7.36375e-07
3.73818e-09
-4.42098e-07
1.85159e-07
7.03368e-07
-2.49674e-06
1.34504e-06
-1.36391e-06
-7.95615e-07
4.93373e-07
3.02444e-07
2.48951e-07
-1.21464e-06
-2.11023e-07
-1.58514e-06
1.74457e-06
-4.23835e-07
-5.89089e-07
1.19937e-06
-3.60611e-07
-5.94105e-07
-3.21663e-08
-3.15227e-07
-1.09341e-06
-3.21728e-08
-9.3846e-07
3.55786e-07
-2.72373e-07
-8.6415e-07
1.00882e-06
-1.39867e-07
-2.65781e-06