/*--------------------------------*- C++ -*----------------------------------*\
| =========                 |                                                 |
| \\      /  F ield         | OpenFOAM: The Open Source CFD Toolbox           |
|  \\    /   O peration     | Version:  v2012                                 |
|   \\  /    A nd           | Website:  www.openfoam.com                      |
|    \\/     M anipulation  |                                                 |
\*---------------------------------------------------------------------------*/
FoamFile
{
    version     2.0;
    format      ascii;
    class       surfaceVectorField;
    location    "750";
    object      Uf;
}
// * * * * * * * * * * * * * * * * * * * * * * * * * * * * * * * * * * * * * //

dimensions      [0 1 -1 0 0 0 0];


internalField   nonuniform List<vector> 
27907
(
(1.08206 -0.305658 7.67317e-21)
(1.09194 -0.299799 -3.64218e-21)
(1.09018 -0.311717 3.09493e-20)
(1.30999 0.0312132 -1.11639e-20)
(1.2858 0.0346706 1.02452e-19)
(1.30431 0.036736 9.91986e-20)
(1.01516 -0.000184676 -2.25464e-22)
(1.01509 -0.000236712 1.66939e-22)
(1.01505 -0.000149782 -1.97759e-22)
(0.294651 -0.0323937 2.24274e-21)
(0.322146 -0.0288438 3.40374e-22)
(0.286388 -0.0279227 -2.13866e-21)
(0.25308 0.0701346 8.23504e-22)
(0.290378 0.0745143 2.14299e-20)
(0.244054 0.0706459 -1.91056e-21)
(0.241077 0.0747017 -2.4257e-20)
(0.190336 0.0730016 4.4607e-20)
(0.260556 0.0775122 2.68705e-20)
(-0.215202 -0.0137313 -9.90603e-21)
(-0.230195 -0.00737933 -1.14094e-19)
(-0.220957 -0.0136401 -1.16894e-19)
(1.01173 -0.00501913 4.55647e-22)
(1.01208 -0.00502832 0)
(1.01192 -0.00532141 7.21845e-22)
(1.17265 0.0581424 7.80497e-21)
(1.17569 0.0567153 9.13934e-21)
(1.1754 0.0605879 8.51506e-21)
(1.01319 -0.103053 -5.93411e-22)
(1.01326 -0.106702 -1.37137e-21)
(1.01639 -0.104133 8.59181e-22)
(1.05362 -0.0393867 -1.43666e-21)
(1.05521 -0.0397628 4.27141e-21)
(1.05405 -0.0411185 1.88143e-21)
(0.12918 -0.0553506 -5.63593e-20)
(0.122967 -0.0537257 -1.33061e-20)
(0.214798 -0.0650934 0)
(1.00199 -0.000432549 0)
(1.00186 -0.000311434 0)
(1.00205 -0.000290546 1.71182e-21)
(1.13502 0.0426748 1.31639e-21)
(1.13385 0.0418824 2.95504e-22)
(1.1335 0.0434883 -1.54635e-20)
(1.04703 0.0107256 1.20116e-21)
(1.04779 0.0102928 -9.18869e-23)
(1.04677 0.0097614 -2.10663e-22)
(0.591197 -0.5148 -4.02897e-20)
(0.558437 -0.487483 -9.35075e-21)
(0.595058 -0.472871 6.03873e-21)
(1.10727 0.0109397 1.12745e-21)
(1.10568 0.0108127 5.19403e-21)
(1.10668 0.00938025 2.06916e-20)
(1.0039 -0.00716001 4.21357e-22)
(1.00409 -0.00716786 3.02092e-21)
(1.00387 -0.00692397 2.11343e-21)
(1.03668 -0.00516733 0)
(1.03743 -0.00525478 0)
(1.03713 -0.00463657 1.11964e-21)
(1.025 -0.124817 2.53067e-22)
(1.02142 -0.124511 -6.33299e-24)
(1.02383 -0.121189 -8.51756e-23)
(0.111106 0.00903757 1.86704e-23)
(0.0860321 0.00570395 5.68365e-21)
(0.106491 0.00895139 8.82915e-21)
(0.999999 -0.000363332 0)
(0.999984 -0.000532499 -3.58225e-21)
(1.00002 -0.000443085 2.09327e-21)
(-0.0624505 -0.0313683 1.40225e-20)
(-0.0254719 -0.0350476 2.41225e-20)
(-0.0648788 -0.0312336 -7.79564e-21)
(1.13721 0.0839385 -4.60922e-21)
(1.14019 0.0859851 -2.68241e-20)
(1.14008 0.0877239 -2.56707e-20)
(1.34184 -0.13311 2.29624e-20)
(1.34967 -0.137902 2.07643e-20)
(1.35283 -0.129178 -6.09889e-20)
(1.01141 -0.0050009 3.51204e-22)
(1.01157 -0.00473548 -2.10345e-21)
(0.788782 -0.664924 2.32976e-21)
(0.778618 -0.685406 3.59866e-21)
(0.757577 -0.665631 -5.931e-22)
(0.190455 0.0742371 -6.67999e-23)
(0.234452 0.0784617 -1.3878e-20)
(0.20247 0.0741206 4.24399e-21)
(0.905177 0.0437925 3.06761e-20)
(1.01017 0.0410762 1.49013e-20)
(0.93799 0.0404916 -3.96622e-21)
(1.06777 -0.681851 -7.81141e-21)
(1.02813 -0.680447 -5.78095e-20)
(1.09675 -0.742337 -3.3754e-20)
(1.11381 0.0367487 1.07316e-22)
(1.11484 0.0367459 -7.33017e-21)
(1.11434 0.0357604 1.55345e-21)
(0.169646 0.00529846 0)
(0.184908 0.00737793 7.4162e-21)
(0.188541 0.00716048 -4.31402e-21)
(1.00037 -0.000148381 -2.38709e-22)
(1.00031 -0.000134277 -2.35327e-22)
(1.00034 -8.34748e-05 -3.09604e-21)
(1.05095 -0.0124553 -2.78467e-22)
(1.05171 -0.0117392 -2.17746e-21)
(1.05061 -0.0114105 7.05019e-21)
(1.12433 0.0384335 -3.32755e-21)
(1.12414 0.0381 8.90916e-21)
(1.12391 0.0384552 -7.74424e-21)
(0.999258 -0.0015036 -6.93044e-22)
(0.999148 -0.00164145 -3.08464e-21)
(0.999199 -0.00174142 7.32058e-21)
(1.00015 -0.00017859 2.92649e-21)
(1.00012 -0.000139951 1.1193e-21)
(1.00012 -0.00018266 4.38504e-21)
(1.03416 -0.0216411 -3.46315e-23)
(1.03328 -0.0215922 0)
(1.0338 -0.022458 0)
(1.04001 -0.0253154 5.16979e-22)
(1.04049 -0.0243895 2.17681e-21)
(1.03934 -0.0245453 2.63486e-21)
(1.1129 0.00819724 0)
(1.11206 0.00667544 0)
(1.11105 0.00830314 -6.16381e-21)
(1.03499 -0.0200735 -6.65181e-22)
(1.03452 -0.0208934 -8.34331e-22)
(1.03408 -0.0199208 -7.73968e-22)
(0.93588 -0.0793631 0)
(0.935796 -0.075085 -1.59963e-20)
(0.939663 -0.0782896 0)
(1.0213 -0.00668476 0)
(1.02129 -0.00701952 0)
(1.02174 -0.00687244 1.10158e-22)
(0.97254 -0.0906514 -1.02032e-20)
(0.9748 -0.0926371 1.23481e-20)
(0.975584 -0.0893148 5.60489e-21)
(1.18373 -0.49604 2.83919e-21)
(1.16191 -0.500932 3.4355e-20)
(1.20914 -0.524969 -3.99193e-21)
(1.01295 -0.00138857 -1.03654e-21)
(1.01308 -0.00124903 -6.0184e-22)
(1.01312 -0.00146002 8.76842e-23)
(-0.0622424 -0.0319101 4.36265e-21)
(-0.093975 -0.0283772 -1.53051e-20)
(1.04787 -0.0543973 -2.55946e-22)
(1.04932 -0.0532897 3.24677e-21)
(1.04757 -0.0525117 2.10142e-22)
(1.01021 -0.102198 4.63568e-22)
(1.01312 -0.0999963 2.55373e-23)
(1.02121 -0.00530175 -9.65668e-23)
(1.02114 -0.00498085 0)
(1.02076 -0.0051133 -3.17816e-25)
(1.21844 -0.138211 2.68339e-21)
(1.22135 -0.133565 -2.73356e-20)
(1.225 -0.139409 -3.35853e-20)
(0.390407 0.0433852 7.4586e-22)
(0.384715 0.0445775 9.62872e-22)
(0.425101 0.0462122 5.8197e-21)
(1.01534 -0.00172557 -3.55892e-22)
(1.01557 -0.00178045 -3.30397e-22)
(1.0154 -0.0016112 4.23884e-22)
(1.05191 -0.0390623 -2.26017e-21)
(1.05305 -0.0379 -2.47237e-21)
(0.149316 0.0664022 3.62388e-21)
(0.17221 0.0727189 1.09749e-20)
(1.13756 -0.219903 -2.9915e-20)
(1.22844 -0.229983 -2.17087e-20)
(1.26587 -0.24333 -2.17154e-20)
(1.00019 -0.000178602 1.07006e-21)
(1.00019 -0.00022924 -5.43102e-23)
(0.515154 -0.346085 1.1149e-20)
(0.533167 -0.317064 1.85447e-20)
(0.992887 -0.0220763 0)
(0.993517 -0.0222406 0)
(0.992944 -0.022952 9.2268e-21)
(1.13336 0.0389982 7.85771e-21)
(1.13373 0.0404214 1.39025e-20)
(1.13487 0.039274 4.76406e-21)
(1.10814 -0.260386 1.75317e-20)
(1.10286 -0.265286 1.43653e-20)
(1.11153 -0.266066 -1.05951e-20)
(-0.211545 -0.0132147 5.11037e-20)
(-0.193151 -0.0190328 1.06401e-19)
(1.16644 0.0203153 1.06011e-20)
(1.16397 0.0224574 1.05843e-20)
(1.16728 0.0233842 2.31908e-20)
(0.968568 -0.0458952 3.64622e-21)
(0.970275 -0.045147 1.17767e-20)
(0.968576 -0.043845 -9.71397e-22)
(1.01526 -0.00184782 -8.53123e-22)
(1.01512 -0.00164703 -3.36853e-22)
(0.993889 -0.00501072 1.12146e-21)
(0.994074 -0.00472806 -1.22116e-21)
(0.994217 -0.00507021 3.33214e-21)
(1.11191 0.0115878 0)
(1.11044 0.0130417 -3.90992e-21)
(1.11008 0.0110788 0)
(1.00043 -0.000145743 -1.17267e-21)
(1.0004 -0.000207748 3.97013e-22)
(1.03228 -0.0200616 -4.77265e-22)
(1.03146 -0.0201721 -9.75794e-22)
(1.03179 -0.0193653 -4.7709e-24)
(0.361627 0.04175 -1.04187e-20)
(0.393561 0.0416067 -6.59163e-22)
(0.320058 0.0436136 -1.30135e-20)
(0.324023 0.041141 7.41674e-21)
(0.292304 0.0383747 -7.04419e-21)
(0.970654 -0.025596 3.7235e-22)
(0.970463 -0.0269726 -4.8987e-21)
(0.971827 -0.0263563 6.51654e-21)
(1.02126 -0.0056252 -2.08746e-23)
(1.02167 -0.00549524 -1.02416e-22)
(0.151188 -0.319125 2.4695e-20)
(0.170866 -0.269291 2.17564e-20)
(0.109687 0.0337612 1.42713e-19)
(1.01712 -0.00832544 3.72351e-22)
(1.01667 -0.00827813 1.64322e-21)
(1.01686 -0.00798132 2.74482e-22)
(0.994953 -0.0234163 4.63705e-21)
(0.994376 -0.0232427 7.55862e-22)
(0.994888 -0.0226055 5.15773e-21)
(1.13267 0.0554133 -7.33819e-21)
(1.13481 0.0553592 -1.4536e-22)
(1.1339 0.0575549 -2.45184e-22)
(0.281547 0.0664883 -4.19674e-21)
(0.247705 0.0593148 -1.86699e-20)
(0.272834 0.0670219 -2.04599e-20)
(0.889758 -0.320199 -3.79446e-21)
(0.904436 -0.317538 3.26205e-20)
(0.899286 -0.333156 1.13726e-20)
(-0.0770678 -0.0353407 -4.03677e-20)
(-0.0756473 -0.0351005 -2.7021e-20)
(-0.103507 -0.0327866 -1.30007e-19)
(0.00654171 -0.0219069 -1.18001e-20)
(0.00590799 -0.0231298 -4.09605e-20)
(0.0598127 -0.0253573 -2.58605e-21)
(1.25065 -0.470369 5.97071e-22)
(1.23828 -0.477341 2.98375e-20)
(1.24931 -0.485751 9.39905e-20)
(1.13223 0.0388679 -6.68192e-21)
(1.133 0.0377439 -1.24081e-21)
(0.148566 0.0745074 2.28828e-20)
(0.193415 0.0776004 -9.00716e-21)
(0.200072 0.0805743 2.38935e-20)
(1.13102 0.0545326 -7.38176e-21)
(1.13071 0.0565552 -2.25603e-20)
(1.0938 -0.0264767 -1.15633e-21)
(1.09366 -0.0287102 -1.0663e-20)
(1.09171 -0.0268638 -5.75741e-22)
(0.433575 -0.165664 8.51019e-20)
(0.490289 -0.18886 -1.35454e-20)
(0.675805 -0.247942 8.49819e-20)
(1.1685 0.018919 -2.11182e-20)
(1.16517 0.0183454 -1.07468e-21)
(-0.0606943 -0.0340645 3.94464e-21)
(-0.0707142 -0.0350905 0)
(-0.0419408 -0.0223839 0)
(0.995728 -0.023603 -1.83546e-21)
(0.995204 -0.0243164 -1.04336e-20)
(0.111051 0.0712732 0)
(0.103909 0.0692086 8.03128e-21)
(0.992332 -0.0219533 0)
(0.992838 -0.0213756 0)
(0.090835 -0.0648063 -8.44982e-20)
(0.0797754 -0.0662236 2.96182e-20)
(0.205673 -0.0886063 -5.1136e-20)
(0.935889 -0.0837343 -2.9903e-21)
(0.932024 -0.080373 0)
(0.00726551 -0.019905 0)
(0.00959271 -0.0201728 1.2706e-20)
(0.0619983 -0.0200548 -4.06996e-20)
(0.0988496 -0.0656687 0)
(0.023898 -0.0509543 0)
(1.12898 0.0540363 1.23014e-20)
(1.13083 0.0526005 0)
(1.01753 -0.00839075 -7.10541e-22)
(1.01733 -0.00870063 -6.66478e-22)
(1.00186 -0.0171998 -3.32943e-21)
(1.00155 -0.0169423 -3.30455e-21)
(1.00162 -0.017514 -2.13663e-21)
(0.132081 0.0124542 1.23717e-24)
(0.114887 0.00908855 -1.34775e-22)
(1.0369 -0.126754 1.12279e-21)
(1.03408 -0.130366 1.27411e-21)
(1.03287 -0.125482 4.955e-22)
(0.0740218 0.0665911 0)
(0.0331455 0.0623127 0)
(0.0342595 0.0609597 -2.26529e-21)
(1.13204 0.0277914 -2.11643e-21)
(1.13095 0.0267572 0)
(1.13066 0.0282274 0)
(1.11743 -0.126347 0)
(1.11293 -0.125881 0)
(1.11575 -0.122493 -1.06945e-20)
(0.150324 0.00377258 -3.38814e-22)
(0.153724 0.00363211 -6.31838e-22)
(1.10822 -0.672075 7.06248e-20)
(1.06206 -0.643099 2.54153e-20)
(0.99601 0.0581937 8.69859e-23)
(0.985478 0.0613671 5.80699e-21)
(1.04037 0.0559486 -4.4878e-21)
(0.288392 0.0655089 1.55807e-20)
(0.323686 0.0709315 1.58857e-20)
(1.0418 -0.035543 1.36392e-22)
(1.04143 -0.0343527 -1.65013e-21)
(1.04297 -0.0345775 0)
(0.964251 -0.0129676 -2.66905e-21)
(0.965094 -0.0116614 -6.55057e-21)
(0.963454 -0.0114662 0)
(0.24723 -0.100128 4.52133e-20)
(0.111455 -0.0706628 5.35639e-20)
(0.563158 -0.912858 2.51681e-20)
(1.01032 -0.00564063 -1.24559e-21)
(1.01024 -0.0053607 1.15877e-21)
(1.01 -0.00549727 2.36557e-24)
(1.00808 -0.0362372 1.49689e-21)
(1.00908 -0.0363586 1.31612e-21)
(1.00862 -0.035266 -3.04003e-22)
(0.894443 0.112125 -1.95214e-20)
(0.900873 0.113005 4.00496e-21)
(0.823854 0.111668 1.59088e-20)
(-0.334097 0.00712481 2.33791e-20)
(-0.362714 0.00547582 5.23495e-22)
(-0.33314 0.00605918 -6.82896e-22)
(-0.239095 0.0126656 -1.84684e-20)
(-0.244317 0.0131609 -2.02781e-20)
(-0.217165 0.0172325 -2.01953e-20)
(1.04707 0.0116429 -1.01977e-21)
(1.04613 0.0111139 3.38642e-21)
(0.0037503 -0.0419666 2.91004e-20)
(0.0624814 -0.0468565 2.89419e-20)
(0.00349115 -0.0408555 5.23639e-20)
(-0.000857912 -0.0162781 6.60641e-20)
(-0.0356954 -0.0140357 -7.62776e-20)
(1.1146 -0.0523227 1.61858e-20)
(1.11231 -0.0505928 5.9408e-21)
(1.11173 -0.053801 -1.66573e-21)
(0.987658 -0.00989573 -1.09176e-21)
(0.987391 -0.0102758 1.82968e-21)
(0.987045 -0.00973397 -1.09505e-20)
(0.609567 -0.0637881 5.07055e-20)
(0.570349 -0.0528582 9.45622e-20)
(0.503811 -0.045176 1.21804e-19)
(0.601902 -0.632775 -2.98357e-20)
(0.641914 -0.612452 6.92838e-21)
(0.644416 -0.660379 -6.74137e-21)
(1.17077 -0.388072 0)
(1.16963 -0.400175 0)
(1.18013 -0.394075 -1.1909e-21)
(1.20671 -0.490258 0)
(1.17407 -0.474285 0)
(1.31454 0.0245582 -5.17138e-20)
(1.31221 0.0255274 -4.97784e-20)
(1.17987 0.0837703 7.40812e-21)
(1.17586 0.085187 1.25238e-20)
(1.18117 0.0880792 -2.70696e-20)
(0.0616675 -0.0595368 1.06001e-19)
(0.0136923 -0.044214 1.34232e-19)
(1.00269 -0.000148134 4.69987e-22)
(1.00292 -0.000151614 -1.45299e-21)
(1.00365 -0.000230818 -1.90318e-21)
(1.10862 0.0109232 -1.55643e-20)
(1.10768 0.0122399 -6.65424e-21)
(0.831973 -0.655078 7.69622e-21)
(0.802486 -0.625359 7.4467e-22)
(0.0526668 0.00339997 5.46694e-21)
(0.0568849 0.00326314 1.14748e-20)
(0.930349 -0.218996 -7.45076e-21)
(0.920624 -0.219963 7.90518e-21)
(0.928306 -0.211363 -7.46239e-21)
(0.242056 -0.663895 -2.78824e-20)
(0.222996 -0.739499 0)
(0.968119 -0.0630907 1.32872e-22)
(0.967172 -0.0652875 -6.85532e-21)
(0.969736 -0.0649355 -2.46507e-21)
(1.13651 0.0556205 0)
(1.13528 0.0538371 -5.98728e-21)
(1.11379 0.00932141 -2.83802e-22)
(1.11471 0.00788199 -4.50072e-21)
(1.00229 -0.0175743 0)
(1.00215 -0.0169259 -2.48466e-21)
(0.786655 -0.256738 -1.1295e-20)
(0.774082 -0.252175 -3.30101e-20)
(0.778115 -0.268145 -9.08846e-21)
(0.881454 -0.311395 -1.68532e-20)
(0.875709 -0.328166 -1.52492e-20)
(0.941349 -0.448045 -2.60726e-21)
(0.92926 -0.459429 -3.00447e-21)
(0.949778 -0.46064 -8.75801e-22)
(1.00354 -0.0310625 -2.41454e-21)
(1.00412 -0.0317589 -4.47845e-21)
(1.00327 -0.0318643 -1.48976e-22)
(1.05406 -0.199734 -1.61807e-20)
(0.992078 -0.184405 5.18346e-20)
(1.03536 -0.0194901 -1.27434e-21)
(1.03576 -0.0204128 1.55997e-21)
(1.03926 -0.00300403 4.94589e-22)
(1.039 -0.00243011 -6.91097e-23)
(1.03844 -0.00298033 0)
(0.0026794 0.0136718 3.0722e-21)
(-0.00421471 0.0140825 3.62068e-20)
(-0.0196534 0.00901066 2.90313e-20)
(0.189028 0.00573559 0)
(0.208348 0.00792423 0)
(0.189419 0.00852097 6.22717e-21)
(1.11277 0.0367107 8.07967e-21)
(1.11327 0.0377296 2.07266e-21)
(0.833375 0.108173 -5.36359e-21)
(0.811292 0.107891 0)
(0.767141 0.103347 0)
(1.26055 -0.458099 -2.74703e-20)
(1.24548 -0.455229 -5.22753e-20)
(1.11218 0.0494133 0)
(1.10486 0.0482468 1.31223e-21)
(1.11147 0.0472819 8.61833e-21)
(1.09368 -0.0306845 -1.20614e-20)
(1.09163 -0.0311573 8.09027e-21)
(1.09365 -0.0329344 4.99259e-21)
(0.999973 -0.000389977 0)
(0.999998 -0.00054376 2.04532e-23)
(0.99998 -0.000420708 0)
(-0.0806775 -0.0223693 1.91116e-20)
(-0.0773277 -0.022147 1.26941e-20)
(-0.115861 -0.0210833 3.45965e-21)
(1.08501 -0.0455969 -5.40366e-21)
(1.08367 -0.0439826 -4.94794e-21)
(1.08258 -0.0459228 1.23696e-20)
(-0.0403547 -0.0398834 2.01172e-20)
(-0.00227786 -0.0422353 -6.52931e-21)
(1.04653 -0.0552981 -3.72106e-21)
(1.04823 -0.0562401 -3.28443e-21)
(0.99106 -0.0371407 -4.24657e-21)
(0.99029 -0.0378422 -4.97658e-21)
(0.990086 -0.0365264 1.27406e-21)
(0.999992 -0.000226679 -4.75247e-21)
(1 -0.000107071 0)
(1 -0.000117144 -2.3651e-21)
(1.01045 -0.0129937 0)
(1.01077 -0.0132855 1.4138e-21)
(1.01039 -0.0133854 0)
(1.13033 0.0377559 6.18417e-21)
(1.13102 0.0384406 6.60785e-21)
(1.13115 0.0372083 1.22214e-20)
(0.168572 -0.0981866 -4.69381e-20)
(0.233673 -0.124532 3.74446e-21)
(0.0764817 -0.0767001 2.52716e-20)
(0.991914 -0.0360623 3.04241e-21)
(0.992235 -0.0375254 0)
(1.11416 -0.254722 -1.9943e-22)
(1.10551 -0.254758 1.07379e-20)
(0.866142 0.0493614 -3.84763e-21)
(0.806549 0.0495802 -5.27871e-21)
(1.03802 -0.00650561 1.78e-23)
(1.03886 -0.00663007 -1.55331e-21)
(1.0382 -0.00721351 -7.17639e-23)
(0.455779 -0.0667774 -5.18984e-20)
(0.549653 -0.0805941 -3.67654e-20)
(0.434908 -0.0666905 1.00401e-21)
(1.21555 -0.253636 -4.65963e-20)
(1.20949 -0.258171 1.4968e-21)
(1.20834 -0.249847 7.66882e-22)
(0.241461 0.0810167 -2.99692e-20)
(0.303974 0.0862632 -2.74787e-20)
(0.295097 0.0836426 -2.89519e-20)
(-0.246423 0.00700655 -5.12592e-20)
(-0.250343 0.00616108 -2.36105e-20)
(-0.217752 0.00756657 1.82151e-21)
(1.00373 -0.00718595 -2.739e-21)
(1.00395 -0.00739265 -1.52943e-21)
(0.317497 -0.135496 -9.5824e-20)
(0.118213 -0.0799359 1.11924e-20)
(0.207477 0.0735082 3.94046e-21)
(0.214105 0.0723784 1.43171e-21)
(0.251126 0.077993 -1.2541e-20)
(1.12953 0.0382203 1.23306e-21)
(1.12973 0.0371047 -1.06611e-20)
(1.13569 0.0807988 2.06288e-20)
(1.13425 0.0823334 1.54783e-20)
(0.818046 0.0833346 -4.70961e-20)
(0.752462 0.0773674 4.43671e-20)
(0.842141 0.0804729 1.49996e-20)
(0.968626 -0.0474049 -1.07178e-22)
(0.966888 -0.0462901 0)
(0.798715 -0.248554 3.19488e-20)
(0.801076 -0.264604 1.49886e-20)
(1.02995 -0.0310626 5.52676e-22)
(1.03095 -0.0312615 5.14319e-23)
(1.03056 -0.0302105 6.71384e-23)
(1.00872 -0.00530355 -2.79825e-22)
(1.00844 -0.0051256 -1.44656e-21)
(1.00868 -0.00500004 -1.63164e-21)
(-0.314906 0.00290025 0)
(-0.313086 0.000312388 -4.01825e-20)
(1.11236 0.0487739 0)
(1.11286 0.0508394 -1.30696e-20)
(1.02566 -0.00501027 -3.90836e-22)
(1.02605 -0.00484619 -7.66619e-22)
(1.02617 -0.00529911 -1.1014e-22)
(1.06863 0.000440097 -1.25939e-21)
(1.06914 0.00152708 -3.74911e-21)
(1.06999 0.000254954 -3.16821e-21)
(1.11089 0.0533373 2.59605e-20)
(1.11085 0.0535773 7.87568e-21)
(1.11026 0.0512278 1.4125e-20)
(0.996878 -0.017804 -5.21806e-21)
(0.99677 -0.018399 6.0633e-22)
(0.997295 -0.0182528 3.51865e-22)
(-0.339797 0.00672826 -5.57406e-20)
(-0.311023 0.00845276 2.30343e-22)
(1.02042 -0.00619745 1.04722e-24)
(1.02043 -0.0058654 -2.41473e-23)
(1.02001 -0.00597099 9.8727e-25)
(0.995042 -0.0156558 -3.9547e-21)
(0.995211 -0.0161931 -3.39123e-21)
(0.994663 -0.0161586 -3.50188e-21)
(0.937416 -0.220735 1.30338e-20)
(0.92996 -0.228322 1.05648e-20)
(1.18383 0.0824333 7.96851e-21)
(1.17936 0.0802488 7.14178e-22)
(1.01092 -0.0473558 2.18959e-21)
(1.01103 -0.0487049 2.11e-21)
(1.00982 -0.0481543 2.45073e-22)
(1.11171 0.0365873 3.54485e-21)
(1.11226 0.035634 1.9471e-21)
(0.972681 -0.148096 -6.96317e-21)
(0.968948 -0.150044 5.46175e-21)
(0.97381 -0.152449 -6.72268e-21)
(1.17093 0.0175968 -5.10865e-21)
(1.17148 0.0203173 -2.34095e-20)
(1.02879 -0.125038 -7.41923e-22)
(1.02634 -0.128937 -2.68179e-22)
(1.22264 -0.249821 -3.33812e-20)
(1.22451 -0.258112 -8.0509e-20)
(1.00059 -0.00225451 3.04638e-21)
(1.00052 -0.00207887 -8.07686e-22)
(1.00051 -0.00214842 1.31555e-21)
(1.02086 -0.0064703 0)
(1.02129 -0.00630136 -1.27002e-22)
(0.739979 -0.202713 0)
(0.747437 -0.215663 -1.93119e-20)
(0.756012 -0.203668 0)
(1.04494 -0.0560941 0)
(1.04478 -0.0543453 0)
(1.07076 -0.12663 2.2011e-21)
(1.06697 -0.128268 5.09689e-22)
(1.07056 -0.13167 -7.09742e-21)
(1.1603 0.000657693 0)
(1.16179 -0.00106616 1.70495e-20)
(1.16245 0.00192427 6.29535e-21)
(1.00192 -0.000543311 0)
(1.0021 -0.000542271 0)
(0.972423 -0.143709 9.2913e-21)
(0.976936 -0.146179 4.13121e-21)
(1.13461 0.0268508 8.59368e-21)
(1.13605 0.026464 -2.42751e-20)
(1.13548 0.028047 -1.53149e-20)
(0.999993 -0.000244917 2.01485e-21)
(0.999984 -0.000410853 3.19662e-21)
(0.12078 0.00766418 4.21997e-21)
(0.0967027 0.00513647 4.60217e-21)
(0.12094 0.00934934 1.60531e-21)
(1.00709 -0.101195 2.01469e-21)
(1.00707 -0.104813 3.93744e-21)
(1.00427 -0.00715753 -2.92791e-21)
(1.00449 -0.00717906 -2.96318e-21)
(1.00426 -0.00688602 -4.19251e-21)
(1.11882 -0.130365 6.67329e-21)
(1.1219 -0.126736 0)
(0.992405 -0.0398297 4.58535e-21)
(0.993509 -0.0398491 9.86053e-22)
(0.992775 -0.0387743 3.77239e-21)
(1.07578 -0.117336 -6.01206e-21)
(1.07888 -0.116791 1.59993e-21)
(1.07838 -0.120961 1.06591e-20)
(0.857094 -0.295337 -1.01931e-20)
(0.851709 -0.282891 3.49976e-21)
(0.866132 -0.286621 -3.05417e-20)
(0.0652334 -0.0340443 -5.29392e-20)
(0.0219561 -0.0331275 3.12499e-20)
(0.0195288 -0.0311752 -3.98502e-20)
(0.845931 -0.303641 -3.57307e-20)
(0.861456 -0.306525 0)
(0.509003 -0.430032 -3.13535e-20)
(0.533027 -0.459487 7.10899e-21)
(0.542535 -0.421347 -3.84704e-20)
(1.01526 -0.00450452 5.68392e-22)
(1.01559 -0.00455981 1.11945e-23)
(1.01538 -0.00476515 -3.24036e-22)
(0.305069 0.0782294 -5.49044e-20)
(0.230064 0.0718748 -2.34518e-20)
(1.00431 -0.00738089 1.15945e-21)
(1.04098 -0.0363313 7.43035e-22)
(1.04238 -0.0365134 1.18413e-22)
(1.12518 0.0463081 1.24478e-20)
(1.12541 0.0477334 8.47232e-21)
(1.12641 0.0465549 0)
(0.00904191 0.0131153 -1.69943e-20)
(0.0210661 0.0183612 -9.78644e-21)
(1.26242 -0.163732 0)
(1.26855 -0.163681 0)
(1.2653 -0.169963 3.80492e-20)
(1.1331 0.0274166 1.22804e-20)
(1.13353 0.02567 1.56316e-20)
(1.1539 -0.0557737 6.85795e-21)
(1.15297 -0.051504 -1.13845e-20)
(1.14993 -0.0549953 2.49006e-21)
(0.979282 -0.206081 3.81695e-21)
(0.984388 -0.21088 -3.0299e-21)
(0.9769 -0.213625 -9.87922e-21)
(1.02518 -0.00277956 2.96939e-22)
(1.02513 -0.00246112 3.04292e-22)
(1.02556 -0.0026961 7.87119e-22)
(1.16415 -0.00363543 7.06622e-21)
(1.16648 -0.00523876 -2.03544e-20)
(1.16675 -0.00157651 -8.33074e-21)
(0.993726 -0.00522479 -1.33534e-21)
(0.993554 -0.004894 5.49987e-22)
(1.16987 0.0149096 3.35641e-20)
(1.17352 0.0158707 3.6025e-20)
(-0.0655967 -0.0330429 1.12424e-20)
(-0.0740765 -0.0302904 1.3195e-22)
(-0.0987142 -0.0268699 -4.10002e-20)
(1.12772 0.0534507 6.72595e-22)
(1.12734 0.0548624 1.04231e-20)
(1.00172 -0.00017629 -1.45559e-23)
(1.00173 -0.000295156 0)
(0.99704 -0.0171938 9.69185e-22)
(0.996514 -0.0173553 -3.28175e-21)
(1.02527 -0.00313603 -8.43478e-22)
(1.02475 -0.00289873 -4.06772e-22)
(1.01265 -0.00163287 0)
(1.01251 -0.00176078 0)
(1.01245 -0.00154989 1.05377e-23)
(0.725464 -0.0748518 -3.30564e-20)
(0.644553 -0.0683946 4.56018e-20)
(1.09508 -0.0947037 -6.35141e-21)
(1.09227 -0.0950369 -8.9341e-21)
(1.09436 -0.0980418 2.8494e-21)
(1.00838 -0.0126227 -5.36904e-23)
(1.00837 -0.0129127 2.99312e-21)
(1.00871 -0.0128856 7.60622e-22)
(1.27594 -0.272961 -5.37314e-21)
(1.2818 -0.282259 1.25138e-20)
(1.291 -0.275338 -4.61773e-20)
(0.943946 0.0596896 -7.00399e-21)
(0.999739 0.0553755 -3.9381e-21)
(1.0534 -0.0229133 3.58983e-21)
(1.05452 -0.0229794 -5.77116e-22)
(1.05365 -0.021929 1.06324e-22)
(0.857944 0.108123 -2.4993e-20)
(0.903406 0.113347 -1.04867e-20)
(0.0617904 0.0316064 4.4417e-20)
(0.0768535 -0.119811 -4.69651e-20)
(-0.0764423 -0.0255334 -5.08098e-20)
(1.12614 0.0527011 -1.1166e-20)
(1.12796 0.0515761 -1.059e-20)
(0.999352 -0.00137728 9.7288e-22)
(0.99932 -0.00130279 -2.81883e-21)
(0.00497388 -0.0208822 5.55659e-20)
(0.00725685 -0.0202548 3.98604e-20)
(0.0629662 -0.0220031 2.18588e-20)
(0.895044 -0.0794142 -2.0611e-20)
(0.89216 -0.0746304 1.63939e-20)
(0.897555 -0.0750984 1.80336e-20)
(0.999051 -0.0021589 -1.22412e-21)
(0.999022 -0.00232988 -3.39112e-21)
(0.998926 -0.00238043 -1.72617e-21)
(0.454706 -0.0620501 -9.4907e-21)
(0.350162 -0.0535937 4.04025e-21)
(1.09536 -0.0264624 7.17146e-22)
(1.09378 -0.0247801 -1.92844e-20)
(0.891448 -0.0838962 -1.19407e-20)
(0.897176 -0.0839733 -3.20505e-20)
(1.04395 0.00475774 1.30358e-21)
(1.04412 0.00544089 -1.07072e-21)
(1.04479 0.00485469 -2.41674e-21)
(1.12083 -0.0569512 -1.33114e-20)
(1.11801 -0.0564782 -3.3573e-22)
(1.12015 -0.0539294 -6.38926e-21)
(1.12402 0.0680679 2.70305e-20)
(1.12461 0.0706004 6.31279e-22)
(1.12634 0.0688752 -2.31948e-21)
(0.477651 -0.441069 -5.34132e-20)
(0.489335 -0.407196 1.19086e-20)
(1.07277 -0.118796 -5.71698e-22)
(1.07285 -0.114908 0)
(0.918714 -0.315062 4.42964e-21)
(0.927208 -0.325113 -4.80716e-21)
(0.931112 -0.311664 -1.70192e-21)
(1.02835 0.00186451 4.55781e-23)
(1.02883 0.00202524 6.76684e-22)
(1.13164 0.0191382 0)
(1.13164 0.0209301 -1.56618e-20)
(1.12996 0.0200541 0)
(0.999226 -0.00774604 -7.7807e-23)
(0.999223 -0.00805675 0)
(0.999396 -0.00783059 -4.49154e-21)
(1.15808 0.00285277 -2.11069e-20)
(1.15765 -0.000485801 -1.87562e-20)
(1.00426 -0.100082 3.78242e-21)
(1.00719 -0.0980848 -2.31008e-21)
(1.12487 0.045198 1.4325e-20)
(1.12427 0.0463052 -3.74292e-21)
(-0.354894 -0.0075698 4.52858e-20)
(-0.36863 -0.0030077 7.8389e-21)
(-0.35898 -0.00951165 -4.30686e-20)
(1.01495 -0.00449245 -1.36423e-22)
(1.01514 -0.00429229 2.83373e-22)
(1.04082 -0.0320872 7.91258e-22)
(1.04212 -0.0323103 1.62663e-21)
(1.04113 -0.0332156 -1.59909e-22)
(1.01651 -0.472153 0)
(1.03617 -0.469629 1.17829e-20)
(1.02923 -0.493717 1.07027e-20)
(1.04049 -0.0310273 7.11696e-22)
(1.03955 -0.0318576 -1.65947e-21)
(1.06734 0.000719654 3.01291e-21)
(1.06801 -0.000543341 1.26016e-20)
(1.16113 -0.00501279 1.85729e-20)
(0.674637 0.0150828 1.81532e-20)
(0.77385 0.0125056 -1.23658e-19)
(0.699687 0.0118392 -6.11518e-20)
(-0.237592 0.0109706 0)
(-0.264052 0.00850093 0)
(1.00165 -0.0306834 2.15518e-21)
(1.0023 -0.0302958 -1.85716e-21)
(1.00149 -0.0297787 5.92814e-22)
(1.21553 -0.123954 0)
(1.21021 -0.119216 1.06583e-20)
(1.20949 -0.126703 0)
(0.0962287 0.047459 -1.24048e-20)
(0.048355 0.0541585 -6.57252e-21)
(0.140286 0.0349937 1.63105e-21)
(1.22236 -0.485012 0)
(1.21336 -0.466057 2.24511e-20)
(1.00863 -0.0533557 -3.23845e-21)
(1.00737 -0.0527272 1.19e-21)
(1.00867 -0.0518436 -2.60708e-21)
(1.02921 -0.00820222 3.91074e-22)
(1.02984 -0.00844238 1.00085e-21)
(1.02967 -0.00782964 3.5638e-22)
(1.07489 -0.0736283 3.83456e-21)
(1.07697 -0.0735658 -5.22511e-21)
(1.07573 -0.0710353 1.25751e-20)
(1.09828 -0.0936471 6.08912e-21)
(1.09591 -0.0909148 0)
(1.00301 -0.0304785 -5.74464e-23)
(1.00377 -0.0304095 -4.37395e-21)
(0.0699643 0.0414725 1.24679e-20)
(0.123046 0.0310228 -3.52179e-21)
(1.272 -0.264256 3.59261e-22)
(1.26521 -0.271195 4.54193e-20)
(0.797317 0.0181145 -1.38739e-21)
(0.747688 0.0133122 -6.06249e-21)
(0.774186 0.0153996 -1.37187e-21)
(0.0491843 0.00342927 -3.65834e-21)
(-0.0258321 -0.0350707 -4.42489e-20)
(1.02429 -0.00496263 2.7724e-22)
(1.02464 -0.004714 2.25746e-22)
(1.02411 -0.0045725 -1.01939e-22)
(1.01523 -0.000225396 1.79932e-23)
(1.01521 -0.000146782 -1.66443e-22)
(0.987112 -0.22352 -3.45113e-21)
(0.980554 -0.226268 -6.74888e-23)
(0.987105 -0.231758 -3.62089e-21)
(0.118423 -0.0334673 -5.51631e-21)
(0.119763 -0.0374963 3.92953e-20)
(0.919274 -0.0442716 1.58e-20)
(0.921234 -0.0411383 -5.50392e-21)
(0.922947 -0.044321 6.03857e-21)
(0.910324 -0.305508 5.31022e-21)
(1.19014 -0.00878468 1.36239e-20)
(1.18788 -0.00610439 -1.58884e-20)
(1.18649 -0.00973111 3.46708e-20)
(1.06958 -0.0779995 2.78203e-21)
(1.07215 -0.0783449 -6.21366e-21)
(1.0701 -0.0808512 3.68166e-22)
(-0.0387135 -0.0204494 5.63059e-20)
(1.03621 -0.00567115 -1.89352e-21)
(1.03593 -0.00505475 1.17932e-22)
(1.05197 0.0228105 -2.92665e-21)
(1.07965 0.0225741 -3.47218e-21)
(1.03354 0.0230017 -3.00955e-21)
(0.183872 0.0755058 -2.39016e-20)
(1.0128 -0.00152196 -6.22398e-22)
(1.01276 -0.00131034 -1.49406e-22)
(0.415452 0.025504 -6.98541e-21)
(0.386162 0.0240085 -2.71558e-22)
(0.393042 0.0232327 -4.77416e-21)
(0.959573 -0.164894 1.2059e-21)
(0.962394 -0.169847 -1.66348e-21)
(0.955763 -0.170004 4.98139e-21)
(1.03281 -0.0208643 0)
(1.03315 -0.0199085 0)
(1.06326 -0.109953 4.68301e-21)
(1.06704 -0.112093 -6.57042e-21)
(1.06656 -0.107148 4.49049e-21)
(1.18652 -0.051386 0)
(1.18512 -0.0468465 0)
(1.18201 -0.0515149 0)
(1.04992 0.00177444 -2.07315e-21)
(1.04959 0.00251917 -2.51019e-21)
(1.05067 0.00235745 -3.62037e-21)
(0.999146 -0.00197171 9.2781e-21)
(0.999054 -0.00201502 1.85642e-21)
(-0.275626 -0.0104754 -6.29539e-21)
(-0.274867 -0.0122255 7.87686e-21)
(-0.249494 -0.013307 -1.6019e-21)
(0.832198 0.0196343 6.79816e-21)
(0.86022 0.0226364 3.95104e-21)
(1.00147 -0.0124714 -4.24879e-21)
(1.00172 -0.012725 2.68459e-21)
(1.00142 -0.0128272 -1.7412e-21)
(-0.264642 -0.00978842 -1.11965e-20)
(-0.271462 -0.0075501 -9.87004e-20)
(-0.275034 -0.00500943 -1.30789e-19)
(-0.0359044 -0.0178057 -3.76482e-21)
(1.25613 -0.163616 0)
(1.25951 -0.157623 0)
(0.998021 -0.00808717 1.326e-21)
(0.997913 -0.00835777 4.3095e-21)
(0.997825 -0.00802863 3.82932e-21)
(1.00284 -7.61928e-05 6.46522e-22)
(1.07769 0.0238323 0)
(1.07209 0.0252083 -4.29499e-21)
(1.03834 0.0252775 1.07632e-20)
(1.05219 -0.0229643 -4.95913e-21)
(1.053 -0.0241715 3.39608e-22)
(1.02513 -0.00482807 4.27974e-22)
(1.02528 -0.00530532 -9.02863e-23)
(1.02997 -0.00956222 1.42162e-21)
(1.03009 -0.00998472 3.57049e-22)
(1.03057 -0.00956369 5.2085e-22)
(0.947428 -0.0153064 -1.61856e-22)
(0.945283 -0.0149324 1.24368e-21)
(0.946563 -0.0128408 1.43786e-20)
(1.2031 -0.262967 2.73517e-20)
(1.21097 -0.267001 7.31265e-22)
(1.18811 -0.0547743 -4.12235e-22)
(1.19086 -0.0503123 1.92937e-20)
(1.07396 -0.0760062 -8.74196e-21)
(1.07252 -0.0735319 2.41621e-21)
(1.08924 -0.0939595 -1.66487e-21)
(1.08942 -0.0970697 -2.87338e-21)
(1.01762 -0.124013 1.92763e-21)
(1.01874 -0.127867 0)
(0.945248 -0.220635 1.58691e-20)
(0.944664 -0.227424 6.90101e-22)
(1.02788 0.00173153 -7.91497e-22)
(1.02825 0.0014332 -7.85919e-22)
(0.999987 -0.000343164 7.82731e-22)
(0.999988 -0.000336566 -4.51824e-21)
(1.17309 0.0878936 5.55634e-21)
(1.17164 0.0839389 5.83282e-21)
(1.06842 -0.202073 9.1832e-21)
(1.06547 -0.20777 8.6902e-21)
(1.07243 -0.206948 -2.34088e-21)
(1.22054 -0.12784 0)
(1.22062 -0.120878 0)
(0.294631 -0.0389462 1.7833e-21)
(0.261588 -0.0361144 3.49745e-21)
(0.916056 -0.0446212 -6.79467e-21)
(0.918235 -0.0477174 1.09591e-20)
(1.0108 -0.046018 1.96971e-21)
(1.01201 -0.0464602 0)
(1.00429 -0.000214114 5.02083e-22)
(1.00475 -0.000204257 -2.67872e-21)
(1.00597 -0.000207736 4.61551e-22)
(1.06516 0.0225294 4.67592e-21)
(1.02387 0.023794 8.99881e-21)
(0.44765 0.0264486 -6.93542e-21)
(0.441721 0.0274093 3.57282e-21)
(1.02539 -0.00350761 -1.01936e-22)
(1.0258 -0.00337658 -5.64532e-22)
(1.00467 -0.00716655 -3.61306e-21)
(1.00489 -0.00717707 -7.90175e-21)
(1.00465 -0.00687877 -3.17727e-21)
(1.0254 -0.0038451 2.34121e-22)
(1.02495 -0.00355705 8.91127e-22)
(0.968773 -0.0611039 2.50502e-21)
(0.966629 -0.0616719 -4.75684e-21)
(0.97334 -0.201363 1.73232e-21)
(0.980413 -0.199328 4.69955e-21)
(1.33157 -0.126959 -2.51488e-20)
(1.3266 -0.134793 0)
(0.988293 -0.00987316 2.80452e-22)
(0.987946 -0.00934291 -3.41692e-21)
(0.967787 -0.0120367 6.43033e-21)
(0.969083 -0.0121475 6.31008e-21)
(0.968438 -0.0107758 1.4099e-22)
(1.02185 -0.00470463 -2.53383e-24)
(1.02217 -0.00452791 6.78517e-26)
(1.02172 -0.00437051 7.04963e-24)
(0.614931 -0.540937 2.04023e-20)
(0.57843 -0.558004 2.27103e-21)
(0.955006 -0.435688 1.00812e-22)
(0.934429 -0.434155 1.35018e-21)
(1.21518 0.00226916 -2.12808e-20)
(1.21928 0.00133687 -4.4212e-20)
(1.21632 -0.00211246 1.03784e-20)
(1.12892 -0.303164 2.83036e-20)
(1.12555 -0.312597 1.00048e-20)
(1.13847 -0.308866 -8.54069e-21)
(1.05276 -0.00638731 -9.31608e-21)