/*--------------------------------*- C++ -*----------------------------------*\
| =========                 |                                                 |
| \\      /  F ield         | OpenFOAM: The Open Source CFD Toolbox           |
|  \\    /   O peration     | Version:  v2012                                 |
|   \\  /    A nd           | Website:  www.openfoam.com                      |
|    \\/     M anipulation  |                                                 |
\*---------------------------------------------------------------------------*/
FoamFile
{
    version     2.0;
    format      ascii;
    class       pointVectorField;
    location    "750";
    object      pointDisplacement;
}
// * * * * * * * * * * * * * * * * * * * * * * * * * * * * * * * * * * * * * //

dimensions      [0 1 0 0 0 0 0];


internalField   nonuniform List<vector> 
18874
(
(0 0 0)
(0 1.92329e-05 0)
(0 1.92329e-05 0)
(0 0 0)
(0 1.92329e-05 0)
(0 1.92329e-05 0)
(0 0 0)
(0 0 0)
(0 0 0)
(0 0 0)
(0 0 0)
(0 0 0)
(0 0 0)
(0 0 0)
(0 0 0)
(0 0 0)
(0 0 0)
(0 0 0)
(0 0 0)
(0 0 0)
(0 0 0)
(0 0 0)
(0 0 0)
(0 0 0)
(0 0 0)
(0 0 0)
(0 0 0)
(0 0 0)
(0 0 0)
(0 0 0)
(0 0 0)
(0 0 0)
(0 0 0)
(0 0 0)
(0 0 0)
(0 0 0)
(0 0 0)
(0 0 0)
(0 0 0)
(0 0 0)
(0 0 0)
(0 0 0)
(0 0 0)
(0 0 0)
(0 0 0)
(0 0 0)
(0 0 0)
(0 0 0)
(0 0 0)
(0 0 0)
(0 0 0)
(0 0 0)
(0 0 0)
(0 0 0)
(0 0 0)
(0 0 0)
(0 0 0)
(0 0 0)
(0 0 0)
(0 0 0)
(0 0 0)
(0 0 0)
(0 0 0)
(0 0 0)
(0 0 0)
(0 0 0)
(0 0 0)
(0 0 0)
(0 0 0)
(0 0 0)
(0 0 0)
(0 0 0)
(0 0 0)
(0 0 0)
(0 0 0)
(0 0 0)
(0 0 0)
(0 0 0)
(0 0 0)
(0 0 0)
(0 0 0)
(0 0 0)
(0 0 0)
(0 0 0)
(0 0 0)
(0 0 0)
(0 0 0)
(0 0 0)
(0 0 0)
(0 0 0)
(0 0 0)
(0 0 0)
(0 0 0)
(0 0 0)
(0 0 0)
(0 0 0)
(0 0 0)
(0 1.92329e-05 0)
(0 1.92329e-05 0)
(0 1.92329e-05 0)
(0 1.92329e-05 0)
(0 1.92329e-05 0)
(0 1.92329e-05 0)
(0 1.92329e-05 0)
(0 1.92329e-05 0)
(0 1.92329e-05 0)
(0 1.92329e-05 0)
(0 1.92329e-05 0)
(0 1.92329e-05 0)
(0 1.92329e-05 0)
(0 1.92329e-05 0)
(0 1.92329e-05 0)
(0 1.92329e-05 0)
(0 1.92329e-05 0)
(0 1.92329e-05 0)
(0 1.92329e-05 0)
(0 1.92329e-05 0)
(0 1.92329e-05 0)
(0 1.92329e-05 0)
(0 1.92329e-05 0)
(0 1.92329e-05 0)
(0 1.92329e-05 0)
(0 1.92329e-05 0)
(0 1.92329e-05 0)
(0 1.92329e-05 0)
(0 1.92329e-05 0)
(0 1.92329e-05 0)
(0 1.92329e-05 0)
(0 1.92329e-05 0)
(0 1.92329e-05 0)
(0 1.92329e-05 0)
(0 1.92329e-05 0)
(0 1.92329e-05 0)
(0 1.92329e-05 0)
(0 1.92329e-05 0)
(0 1.92329e-05 0)
(0 1.92329e-05 0)
(0 1.92329e-05 0)
(0 1.92329e-05 0)
(0 1.92329e-05 0)
(0 1.92329e-05 0)
(0 1.92329e-05 0)
(0 1.92329e-05 0)
(0 1.92329e-05 0)
(0 1.92329e-05 0)
(0 1.92329e-05 0)
(0 1.92329e-05 0)
(0 1.92329e-05 0)
(0 1.92329e-05 0)
(0 1.92329e-05 0)
(0 1.92329e-05 0)
(0 1.92329e-05 0)
(0 1.92329e-05 0)
(0 1.92329e-05 0)
(0 1.92329e-05 0)
(0 1.92329e-05 0)
(0 1.92329e-05 0)
(0 1.92329e-05 0)
(0 1.92329e-05 0)
(0 1.92329e-05 0)
(0 1.92329e-05 0)
(0 1.92329e-05 0)
(0 1.92329e-05 0)
(0 1.92329e-05 0)
(0 1.92329e-05 0)
(0 1.92329e-05 0)
(0 1.92329e-05 0)
(0 1.92329e-05 0)
(0 1.92329e-05 0)
(0 1.92329e-05 0)
(0 1.92329e-05 0)
(0 1.92329e-05 0)
(0 1.92329e-05 0)
(0 1.92329e-05 0)
(0 1.92329e-05 0)
(0 1.92329e-05 0)
(0 1.92329e-05 0)
(0 1.92329e-05 0)
(0 1.92329e-05 0)
(0 1.92329e-05 0)
(0 1.92329e-05 0)
(0 1.92329e-05 0)
(0 1.92329e-05 0)
(0 1.92329e-05 0)
(0 1.92329e-05 0)
(0 1.92329e-05 0)
(0 1.92329e-05 0)
(0 1.92329e-05 0)
(0 1.92329e-05 0)
(0 1.92329e-05 0)
(0 1.92329e-05 0)
(0 1.92329e-05 0)
(0 1.92329e-05 0)
(0 1.92329e-05 0)
(0 1.92329e-05 0)
(0 1.92329e-05 0)
(0 1.92329e-05 0)
(0 1.92329e-05 0)
(0 1.92329e-05 0)
(0 1.92329e-05 0)
(0 1.92329e-05 0)
(0 1.92329e-05 0)
(0 1.92329e-05 0)
(0 1.92329e-05 0)
(0 1.92329e-05 0)
(0 1.92329e-05 0)
(0 1.92329e-05 0)
(0 1.92329e-05 0)
(0 1.92329e-05 0)
(0 1.92329e-05 0)
(0 1.92329e-05 0)
(0 1.92329e-05 0)
(0 1.92329e-05 0)
(0 1.92329e-05 0)
(0 1.92329e-05 0)
(0 1.92329e-05 0)
(0 1.92329e-05 0)
(0 1.92329e-05 0)
(0 1.92329e-05 0)
(0 1.92329e-05 0)
(0 1.92329e-05 0)
(0 1.92329e-05 0)
(0 1.92329e-05 0)
(0 1.92329e-05 0)
(0 1.92329e-05 0)
(0 1.92329e-05 0)
(0 1.92329e-05 0)
(0 1.92329e-05 0)
(0 1.92329e-05 0)
(0 1.92329e-05 0)
(0 1.92329e-05 0)
(0 1.92329e-05 0)
(0 1.92329e-05 0)
(0 1.92329e-05 0)
(0 1.92329e-05 0)
(0 1.92329e-05 0)
(0 1.92329e-05 0)
(0 1.92329e-05 0)
(0 1.92329e-05 0)
(0 1.92329e-05 0)
(0 1.92329e-05 0)
(0 1.92329e-05 0)
(0 1.92329e-05 0)
(0 1.92329e-05 0)
(0 1.92329e-05 0)
(0 1.92329e-05 0)
(0 1.92329e-05 0)
(0 1.92329e-05 0)
(0 1.92329e-05 0)
(0 1.92329e-05 0)
(0 1.92329e-05 0)
(0 1.92329e-05 0)
(0 1.92329e-05 0)
(0 1.92329e-05 0)
(0 1.92329e-05 0)
(0 1.92329e-05 0)
(0 1.92329e-05 0)
(0 1.92329e-05 0)
(0 1.92329e-05 0)
(0 1.92329e-05 0)
(0 1.92329e-05 0)
(0 1.92329e-05 0)
(0 1.92329e-05 0)
(0 1.92329e-05 0)
(0 1.92329e-05 0)
(0 1.92329e-05 0)
(0 1.92329e-05 0)
(0 0 0)
(0 0 0)
(0 0 0)
(0 0 0)
(0 0 0)
(0 0 0)
(0 0 0)
(0 0 0)
(0 0 0)
(0 0 0)
(0 0 0)
(0 0 0)
(0 0 0)
(0 0 0)
(0 0 0)
(0 0 0)
(0 0 0)
(0 0 0)
(0 0 0)
(0 0 0)
(0 0 0)
(0 0 0)
(0 0 0)
(0 0 0)
(0 0 0)
(0 0 0)
(0 0 0)
(0 0 0)
(0 0 0)
(0 0 0)
(0 0 0)
(0 0 0)
(0 0 0)
(0 0 0)
(0 0 0)
(0 0 0)
(0 0 0)
(0 0 0)
(0 0 0)
(0 0 0)
(0 0 0)
(0 0 0)
(0 0 0)
(0 0 0)
(0 0 0)
(0 0 0)
(0 0 0)
(0 0 0)
(0 0 0)
(0 0 0)
(0 0 0)
(0 0 0)
(0 0 0)
(0 0 0)
(0 0 0)
(0 0 0)
(0 0 0)
(0 0 0)
(0 0 0)
(0 0 0)
(0 0 0)
(0 0 0)
(0 0 0)
(0 0 0)
(0 0 0)
(0 0 0)
(0 0 0)
(0 0 0)
(0 0 0)
(0 0 0)
(0 0 0)
(0 0 0)
(0 0 0)
(0 0 0)
(0 0 0)
(0 0 0)
(0 0 0)
(0 0 0)
(0 0 0)
(0 0 0)
(0 0 0)
(0 0 0)
(0 0 0)
(0 0 0)
(0 0 0)
(0 0 0)
(0 0 0)
(0 0 0)
(0 0 0)
(0 0 0)
(0 0 0)
(0 1.92329e-05 0)
(0 1.92329e-05 0)
(0 1.92329e-05 0)
(0 1.92329e-05 0)
(0 1.92329e-05 0)
(0 1.92329e-05 0)
(0 1.92329e-05 0)
(0 1.92329e-05 0)
(0 1.92329e-05 0)
(0 1.92329e-05 0)
(0 1.92329e-05 0)
(0 1.92329e-05 0)
(0 1.92329e-05 0)
(0 1.92329e-05 0)
(0 1.92329e-05 0)
(0 1.92329e-05 0)
(0 1.92329e-05 0)
(0 1.92329e-05 0)
(0 1.92329e-05 0)
(0 1.92329e-05 0)
(0 1.92329e-05 0)
(0 1.92329e-05 0)
(0 1.92329e-05 0)
(0 1.92329e-05 0)
(0 1.92329e-05 0)
(0 1.92329e-05 0)
(0 1.92329e-05 0)
(0 1.92329e-05 0)
(0 1.92329e-05 0)
(0 1.92329e-05 0)
(0 1.92329e-05 0)
(0 1.92329e-05 0)
(0 1.92329e-05 0)
(0 1.92329e-05 0)
(0 1.92329e-05 0)
(0 1.92329e-05 0)
(0 1.92329e-05 0)
(0 1.92329e-05 0)
(0 1.92329e-05 0)
(0 1.92329e-05 0)
(0 1.92329e-05 0)
(0 1.92329e-05 0)
(0 1.92329e-05 0)
(0 1.92329e-05 0)
(0 1.92329e-05 0)
(0 1.92329e-05 0)
(0 1.92329e-05 0)
(0 1.92329e-05 0)
(0 1.92329e-05 0)
(0 1.92329e-05 0)
(0 1.92329e-05 0)
(0 1.92329e-05 0)
(0 1.92329e-05 0)
(0 1.92329e-05 0)
(0 1.92329e-05 0)
(0 1.92329e-05 0)
(0 1.92329e-05 0)
(0 1.92329e-05 0)
(0 1.92329e-05 0)
(0 1.92329e-05 0)
(0 1.92329e-05 0)
(0 1.92329e-05 0)
(0 1.92329e-05 0)
(0 1.92329e-05 0)
(0 1.92329e-05 0)
(0 1.92329e-05 0)
(0 1.92329e-05 0)
(0 1.92329e-05 0)
(0 1.92329e-05 0)
(0 1.92329e-05 0)
(0 1.92329e-05 0)
(0 1.92329e-05 0)
(0 1.92329e-05 0)
(0 1.92329e-05 0)
(0 1.92329e-05 0)
(0 1.92329e-05 0)
(0 1.92329e-05 0)
(0 1.92329e-05 0)
(0 1.92329e-05 0)
(0 1.92329e-05 0)
(0 1.92329e-05 0)
(0 1.92329e-05 0)
(0 1.92329e-05 0)
(0 1.92329e-05 0)
(0 1.92329e-05 0)
(0 1.92329e-05 0)
(0 1.92329e-05 0)
(0 1.92329e-05 0)
(0 1.92329e-05 0)
(0 1.92329e-05 0)
(0 1.92329e-05 0)
(0 1.92329e-05 0)
(0 1.92329e-05 0)
(0 1.92329e-05 0)
(0 1.92329e-05 0)
(0 1.92329e-05 0)
(0 1.92329e-05 0)
(0 1.92329e-05 0)
(0 1.92329e-05 0)
(0 1.92329e-05 0)
(0 1.92329e-05 0)
(0 1.92329e-05 0)
(0 1.92329e-05 0)
(0 1.92329e-05 0)
(0 1.92329e-05 0)
(0 1.92329e-05 0)
(0 1.92329e-05 0)
(0 1.92329e-05 0)
(0 1.92329e-05 0)
(0 1.92329e-05 0)
(0 1.92329e-05 0)
(0 1.92329e-05 0)
(0 1.92329e-05 0)
(0 1.92329e-05 0)
(0 1.92329e-05 0)
(0 1.92329e-05 0)
(0 1.92329e-05 0)
(0 1.92329e-05 0)
(0 1.92329e-05 0)
(0 1.92329e-05 0)
(0 1.92329e-05 0)
(0 1.92329e-05 0)
(0 1.92329e-05 0)
(0 1.92329e-05 0)
(0 1.92329e-05 0)
(0 1.92329e-05 0)
(0 1.92329e-05 0)
(0 1.92329e-05 0)
(0 1.92329e-05 0)
(0 1.92329e-05 0)
(0 1.92329e-05 0)
(0 1.92329e-05 0)
(0 1.92329e-05 0)
(0 1.92329e-05 0)
(0 1.92329e-05 0)
(0 1.92329e-05 0)
(0 1.92329e-05 0)
(0 1.92329e-05 0)
(0 1.92329e-05 0)
(0 1.92329e-05 0)
(0 1.92329e-05 0)
(0 1.92329e-05 0)
(0 1.92329e-05 0)
(0 1.92329e-05 0)
(0 1.92329e-05 0)
(0 1.92329e-05 0)
(0 1.92329e-05 0)
(0 1.92329e-05 0)
(0 1.92329e-05 0)
(0 1.92329e-05 0)
(0 1.92329e-05 0)
(0 1.92329e-05 0)
(0 1.92329e-05 0)
(0 1.92329e-05 0)
(0 1.92329e-05 0)
(0 1.92329e-05 0)
(0 1.92329e-05 0)
(0 1.92329e-05 0)
(0 1.92329e-05 0)
(0 1.92329e-05 0)
(0 1.92329e-05 0)
(0 1.92329e-05 0)
(0 1.92329e-05 0)
(0 1.92329e-05 0)
(0 1.92329e-05 0)
(0 1.92329e-05 0)
(0 1.92329e-05 0)
(0 1.92329e-05 0)
(0 1.92329e-05 0)
(0 1.92329e-05 0)
(0 1.92299e-05 0)
(0 1.92319e-05 0)
(0 1.92322e-05 0)
(0 1.92333e-05 0)
(0 1.92328e-05 0)
(0 1.92338e-05 0)
(0 1.92319e-05 0)
(0 1.92363e-05 0)
(0 1.92333e-05 0)
(0 1.92327e-05 0)
(0 1.92328e-05 0)
(0 1.92346e-05 0)
(0 1.92328e-05 0)
(0 1.92339e-05 0)
(0 1.92383e-05 0)
(0 1.92335e-05 0)
(0 1.92361e-05 0)
(0 1.92338e-05 0)
(0 1.92353e-05 0)
(0 2.07549e-06 0)
(0 8.68902e-06 0)
(0 9.89393e-06 0)
(0 1.43403e-05 0)
(0 4.65537e-06 0)
(0 2.84712e-06 0)
(0 -9.81166e-07 0)
(0 9.86892e-07 0)
(0 7.27956e-06 0)
(0 -1.1011e-07 0)
(0 1.92285e-05 0)
(0 1.92303e-05 0)
(0 1.92333e-05 0)
(0 1.92324e-05 0)
(0 1.92328e-05 0)
(0 1.92351e-05 0)
(0 1.92327e-05 0)
(0 1.92331e-05 0)
(0 1.92364e-05 0)
(0 1.92328e-05 0)
(0 1.92332e-05 0)
(0 1.9233e-05 0)
(0 8.61605e-06 0)
(0 2.41803e-06 0)
(0 8.62599e-06 0)
(0 8.38904e-07 0)
(0 1.92338e-05 0)
(0 1.92331e-05 0)
(0 1.92325e-05 0)
(0 1.92328e-05 0)
(0 1.92333e-05 0)
(0 6.18543e-06 0)
(0 3.48388e-06 0)
(0 -9.10336e-07 0)
(0 1.76081e-06 0)
(0 3.00228e-06 0)
(0 9.64789e-06 0)
(0 5.7323e-06 0)
(0 1.40803e-05 0)
(0 4.11089e-06 0)
(0 -1.8422e-07 0)
(0 1.9231e-05 0)
(0 2.4474e-06 0)
(0 1.40612e-05 0)
(0 5.42147e-06 0)
(0 2.81809e-06 0)
(0 7.42705e-06 0)
(0 1.35209e-06 0)
(0 2.21899e-06 0)
(0 7.90422e-06 0)
(0 2.73571e-06 0)
(0 1.29023e-06 0)
(0 7.35044e-07 0)
(0 -0.00012044 0)
(0 -0.000123632 0)
(0 -0.000116033 0)
(0 -0.00011955 0)
(0 -0.000111895 0)
(0 -0.000115083 0)
(0 -0.000107601 0)
(0 -0.000110692 0)
(0 -0.000103231 0)
(0 -0.000106887 0)
(0 -9.87589e-05 0)
(0 -0.000100883 0)
(0 -9.41437e-05 0)
(0 -9.60574e-05 0)
(0 -8.96715e-05 0)
(0 -9.16624e-05 0)
(0 -8.53054e-05 0)
(0 -8.75154e-05 0)
(0 -8.09718e-05 0)
(0 -7.90917e-05 0)
(0 -7.511e-05 0)
(0 -7.65439e-05 0)
(0 -7.1373e-05 0)
(0 -7.24945e-05 0)
(0 -6.80197e-05 0)
(0 -6.69058e-05 0)
(0 -6.39547e-05 0)
(0 -6.48479e-05 0)
(0 -6.09455e-05 0)
(0 -6.16385e-05 0)
(0 -5.77501e-05 0)
(0 -5.84415e-05 0)
(0 -5.45503e-05 0)
(0 -6.27274e-05 0)
(0 -5.53528e-05 0)
(0 -5.13908e-05 0)
(0 -5.2315e-05 0)
(0 -4.81976e-05 0)
(0 -4.91104e-05 0)
(0 -4.49368e-05 0)
(0 -4.39565e-05 0)
(0 -4.09007e-05 0)
(0 -5.3289e-05 0)
(0 -4.17352e-05 0)
(0 -3.80406e-05 0)
(0 -0.000127033 0)
(0 -9.75944e-05 0)
(0 -3.93562e-05 0)
(0 -0.000104401 0)
(0 -3.86768e-05 0)
(0 -3.50784e-05 0)
(0 -3.56415e-05 0)
(0 -3.2034e-05 0)
(0 -3.25903e-05 0)
(0 -2.90553e-05 0)
(0 -2.95286e-05 0)
(0 -2.62504e-05 0)
(0 -2.58079e-05 0)
(0 -2.33565e-05 0)
(0 -2.29523e-05 0)
(0 -2.09469e-05 0)
(0 -2.13356e-05 0)
(0 -1.95513e-05 0)
(0 -2.06255e-05 0)
(0 -1.99989e-05 0)
(0 -1.87205e-05 0)
(0 -1.90866e-05 0)
(0 -1.80317e-05 0)
(0 -1.82221e-05 0)
(0 -1.72504e-05 0)
(0 -1.72647e-05 0)
(0 -1.61949e-05 0)
(0 -1.60524e-05 0)
(0 -1.47839e-05 0)
(0 -1.48457e-05 0)
(0 -1.33026e-05 0)
(0 -1.33625e-05 0)
(0 -1.1808e-05 0)
(0 -1.19665e-05 0)
(0 -1.05835e-05 0)
(0 -1.0851e-05 0)
(0 -9.73144e-06 0)
(0 -1.00617e-05 0)
(0 -9.11508e-06 0)
(0 -9.45683e-06 0)
(0 -8.57747e-06 0)
(0 -8.73758e-06 0)
(0 -8.21553e-06 0)
(0 -8.05249e-06 0)
(0 -7.92869e-06 0)
(0 -7.50368e-06 0)
(0 -7.08397e-06 0)
(0 -6.97091e-06 0)
(0 -6.36436e-06 0)
(0 -6.46888e-06 0)
(0 -5.73962e-06 0)
(0 -5.99412e-06 0)
(0 -5.27467e-06 0)
(0 -5.63989e-06 0)
(0 -6.46614e-06 0)
(0 -1.45301e-05 0)
(0 -7.52047e-06 0)
(0 -6.19342e-06 0)
(0 -6.88841e-06 0)
(0 -5.08803e-06 0)
(0 -1.57764e-05 0)
(0 -1.42251e-05 0)
(0 -6.86064e-06 0)
(0 -7.37245e-06 0)
(0 -7.45558e-06 0)
(0 -7.62994e-06 0)
(0 -7.66657e-06 0)
(0 -7.52876e-06 0)
(0 -7.64539e-06 0)
(0 -7.49307e-06 0)
(0 -7.71136e-06 0)
(0 -7.57794e-06 0)
(0 -7.99325e-06 0)
(0 -1.55632e-05 0)
(0 -1.39479e-05 0)
(0 -8.00507e-06 0)
(0 -8.4668e-06 0)
(0 -1.53747e-05 0)
(0 -1.35169e-05 0)
(0 -8.46214e-06 0)
(0 -9.10871e-06 0)
(0 -9.22149e-06 0)
(0 -1.49704e-05 0)
(0 -1.29814e-05 0)
(0 -9.9962e-06 0)
(0 -1.01922e-05 0)
(0 -1.42654e-05 0)
(0 -1.21992e-05 0)
(0 -1.09651e-05 0)
(0 -1.11241e-05 0)
(0 -1.02547e-05 0)
(0 -1.30224e-05 0)
(0 -1.10402e-05 0)
(0 -1.1446e-05 0)
(0 -1.02046e-05 0)
(0 -1.18912e-05 0)
(0 -1.12419e-05 0)
(0 -9.47841e-06 0)
(0 -1.16482e-05 0)
(0 -9.73601e-06 0)
(0 -9.08532e-06 0)
(0 -7.56149e-06 0)
(0 -1.10289e-05 0)
(0 -8.57688e-06 0)
(0 -6.71692e-06 0)
(0 -5.43442e-06 0)
(0 -8.49772e-06 0)
(0 -9.79384e-06 0)
(0 -7.01534e-06 0)
(0 -6.3255e-06 0)
(0 -4.02289e-06 0)
(0 -4.67003e-06 0)
(0 -2.15606e-06 0)
(0 -2.88433e-06 0)
(0 -7.33978e-07 0)
(0 -1.45899e-06 0)
(0 -5.93254e-08 0)
(0 -6.55654e-07 0)
(0 -2.16491e-07 0)
(0 -8.02666e-07 0)
(0 -1.20719e-06 0)
(0 -2.11087e-06 0)
(0 -5.83467e-06 0)
(0 -7.62907e-06 0)
(0 -3.2861e-06 0)
(0 -4.7252e-06 0)
(0 -8.38606e-06 0)
(0 -5.39905e-06 0)
(0 -6.25359e-06 0)
(0 -8.06051e-06 0)
(0 -4.90728e-06 0)
(0 -6.892e-06 0)
(0 -9.3082e-06 0)
(0 -1.08078e-05 0)
(0 -4.03049e-06 0)
(0 -6.85497e-06 0)
(0 6.66554e-07 0)
(0 -6.80252e-06 0)
(0 -3.54188e-06 0)
(0 -1.13396e-05 0)
(0 -1.21185e-05 0)
(0 -1.91188e-05 0)
(0 -1.66327e-05 0)
(0 -1.16643e-05 0)
(0 -1.19163e-05 0)
(0 -3.22975e-06 0)
(0 -7.39845e-06 0)
(0 -4.68271e-06 0)
(0 -4.60382e-06 0)
(0 -4.0058e-06 0)
(0 -3.89488e-06 0)
(0 -3.05412e-06 0)
(0 -2.91675e-06 0)
(0 -1.92091e-06 0)
(0 -1.92232e-06 0)
(0 -9.651e-07 0)
(0 -1.20561e-06 0)
(0 -3.59392e-07 0)
(0 -8.01838e-07 0)
(0 -1.10325e-08 0)
(0 -5.28262e-07 0)
(0 3.21918e-07 0)
(0 -1.84221e-07 0)
(0 7.45608e-07 0)
(0 3.19656e-07 0)
(0 1.25503e-06 0)
(0 9.77852e-07 0)
(0 1.88355e-06 0)
(0 2.01933e-06 0)
(0 1.65945e-06 0)
(0 2.52697e-06 0)
(0 2.20443e-06 0)
(0 3.02426e-06 0)
(0 2.5998e-06 0)
(0 3.35515e-06 0)
(0 2.88058e-06 0)
(0 3.60853e-06 0)
(0 3.12486e-06 0)
(0 2.23232e-06 0)
(0 2.49381e-06 0)
(0 3.40917e-06 0)
(0 2.79781e-06 0)
(0 3.73417e-06 0)
(0 3.17454e-06 0)
(0 4.14479e-06 0)
(0 3.59768e-06 0)
(0 2.48706e-06 0)
(0 2.92671e-06 0)
(0 4.00322e-06 0)
(0 3.31121e-06 0)
(0 4.35601e-06 0)
(0 3.61978e-06 0)
(0 4.62047e-06 0)
(0 2.5285e-06 0)
(0 3.82944e-06 0)
(0 4.79892e-06 0)
(0 3.9145e-06 0)
(0 4.94903e-06 0)
(0 3.93364e-06 0)
(0 5.08964e-06 0)
(0 4.03176e-06 0)
(0 5.22146e-06 0)
(0 4.13953e-06 0)
(0 5.26541e-06 0)
(0 3.01148e-06 0)
(0 4.13829e-06 0)
(0 5.22021e-06 0)
(0 5.59141e-06 0)
(0 4.1266e-06 0)
(0 6.46719e-06 0)
(0 -8.52358e-06 0)
(0 -5.39496e-06 0)
(0 -6.83358e-06 0)
(0 -3.83448e-06 0)
(0 -5.3089e-06 0)
(0 -2.53245e-06 0)
(0 -3.93752e-06 0)
(0 -1.2964e-06 0)
(0 -2.7107e-06 0)
(0 -2.25188e-07 0)
(0 -1.66233e-06 0)
(0 6.91966e-07 0)
(0 -6.6438e-07 0)
(0 1.6532e-06 0)
(0 2.89412e-07 0)
(0 2.55479e-06 0)
(0 1.10298e-06 0)
(0 3.3037e-06 0)
(0 1.86475e-06 0)
(0 3.97729e-06 0)
(0 2.58127e-06 0)
(0 4.61313e-06 0)
(0 3.22809e-06 0)
(0 5.18166e-06 0)
(0 3.79667e-06 0)
(0 5.67077e-06 0)
(0 4.36896e-06 0)
(0 6.17948e-06 0)
(0 4.95306e-06 0)
(0 6.64324e-06 0)
(0 5.22395e-06 0)
(0 7.08676e-06 0)
(0 5.97286e-06 0)
(0 7.51142e-06 0)
(0 6.41475e-06 0)
(0 7.84263e-06 0)
(0 6.58998e-06 0)
(0 8.18145e-06 0)
(0 7.14064e-06 0)
(0 8.54104e-06 0)
(0 7.56048e-06 0)
(0 8.86452e-06 0)
(0 7.92468e-06 0)
(0 9.16828e-06 0)
(0 8.17631e-06 0)
(0 9.44261e-06 0)
(0 8.44631e-06 0)
(0 9.68301e-06 0)
(0 8.54817e-06 0)
(0 9.95475e-06 0)
(0 9.08178e-06 0)
(0 1.02518e-05 0)
(0 9.3594e-06 0)
(0 1.04316e-05 0)
(0 9.42347e-06 0)
(0 1.06229e-05 0)
(0 9.80807e-06 0)
(0 1.0882e-05 0)
(0 1.01127e-05 0)
(0 1.12508e-05 0)
(0 1.0355e-05 0)
(0 1.13054e-05 0)
(0 1.048e-05 0)
(0 1.1488e-05 0)
(0 1.06278e-05 0)
(0 1.16299e-05 0)
(0 1.06121e-05 0)
(0 1.1746e-05 0)
(0 1.09428e-05 0)
(0 1.18877e-05 0)
(0 1.10832e-05 0)
(0 1.19845e-05 0)
(0 1.11245e-05 0)
(0 1.2087e-05 0)
(0 1.11891e-05 0)
(0 1.21907e-05 0)
(0 1.13097e-05 0)
(0 1.22684e-05 0)
(0 1.14355e-05 0)
(0 1.23557e-05 0)
(0 1.15695e-05 0)
(0 1.24446e-05 0)
(0 1.16794e-05 0)
(0 1.25027e-05 0)
(0 1.17452e-05 0)
(0 1.25013e-05 0)
(0 1.17673e-05 0)
(0 1.25098e-05 0)
(0 5.96163e-06 0)
(0 3.16317e-06 0)
(0 8.25978e-06 0)
(0 9.64642e-06 0)
(0 1.01832e-05 0)
(0 1.17945e-05 0)
(0 1.25701e-05 0)
(0 1.17944e-05 0)
(0 1.25587e-05 0)
(0 -1.3309e-06 0)
(0 1.1732e-05 0)
(0 -6.76305e-06 0)
(0 1.08827e-05 0)
(0 1.24113e-05 0)
(0 1.16081e-05 0)
(0 1.28309e-05 0)
(0 1.22596e-05 0)
(0 1.14285e-05 0)
(0 1.07002e-05 0)
(0 1.04787e-05 0)
(0 1.22385e-05 0)
(0 1.10668e-05 0)
(0 1.00834e-05 0)
(0 9.68032e-06 0)
(0 9.4225e-06 0)
(0 1.31483e-05 0)
(0 8.91633e-06 0)
(0 1.21044e-05 0)
(0 7.29708e-06 0)
(0 8.5445e-06 0)
(0 8.29894e-06 0)
(0 1.31943e-05 0)
(0 5.24442e-06 0)
(0 7.34054e-06 0)
(0 7.14263e-06 0)
(0 1.29775e-05 0)
(0 1.27612e-05 0)
(0 1.98369e-06 0)
(0 1.35235e-05 0)
(0 1.33656e-05 0)
(0 -2.26088e-06 0)
(0 6.11554e-06 0)
(0 6.00929e-06 0)
(0 1.40357e-05 0)
(0 1.38668e-05 0)
(0 1.45085e-05 0)
(0 1.42996e-05 0)
(0 -2.51003e-07 0)
(0 1.49175e-05 0)
(0 1.46868e-05 0)
(0 4.92639e-06 0)
(0 4.90492e-06 0)
(0 -1.08386e-05 0)
(0 -1.10115e-05 0)
(0 -4.50158e-06 0)
(0 -1.11124e-06 0)
(0 1.52602e-05 0)
(0 1.50155e-05 0)
(0 1.54736e-05 0)
(0 1.44048e-05 0)
(0 1.47203e-05 0)
(0 1.40643e-05 0)
(0 1.43777e-05 0)
(0 1.50003e-05 0)
(0 1.46612e-05 0)
(0 1.52435e-05 0)
(0 1.36766e-05 0)
(0 1.48921e-05 0)
(0 1.54465e-05 0)
(0 1.50585e-05 0)
(0 1.56051e-05 0)
(0 -3.31236e-05 0)
(0 -2.57525e-06 0)
(0 -7.92037e-06 0)
(0 -1.91822e-05 0)
(0 -1.6813e-05 0)
(0 -2.11702e-05 0)
(0 -2.53155e-06 0)
(0 -8.33624e-06 0)
(0 -9.54947e-06 0)
(0 -9.26063e-06 0)
(0 1.51656e-05 0)
(0 1.57282e-05 0)
(0 -7.64382e-06 0)
(0 -6.56834e-06 0)
(0 3.75752e-06 0)
(0 3.67094e-06 0)
(0 3.76829e-06 0)
(0 -2.14793e-05 0)
(0 -2.29421e-05 0)
(0 -1.43971e-06 0)
(0 1.82698e-06 0)
(0 -3.58303e-06 0)
(0 -9.05067e-06 0)
(0 1.45139e-05 0)
(0 -4.94346e-06 0)
(0 -2.84452e-06 0)
(0 1.52684e-05 0)
(0 1.58289e-05 0)
(0 2.45033e-06 0)
(0 2.34637e-06 0)
(0 -1.54303e-06 0)
(0 1.35303e-06 0)
(0 -2.32897e-05 0)
(0 -2.45177e-05 0)
(0 -3.27134e-06 0)
(0 -8.52541e-06 0)
(0 1.28025e-06 0)
(0 -2.3708e-07 0)
(0 1.53638e-05 0)
(0 1.58912e-05 0)
(0 2.09768e-06 0)
(0 5.20273e-06 0)
(0 -1.3789e-06 0)
(0 -1.2008e-05 0)
(0 2.25871e-06 0)
(0 5.35819e-06 0)
(0 1.05845e-06 0)
(0 9.62631e-07 0)
(0 -2.474e-05 0)
(0 -2.58699e-05 0)
(0 1.60779e-05 0)
(0 4.06863e-08 0)
(0 6.25352e-06 0)
(0 9.32324e-06 0)
(0 -1.96225e-06 0)
(0 -7.12832e-06 0)
(0 -1.39853e-05 0)
(0 -1.25301e-05 0)
(0 1.53889e-05 0)
(0 1.58898e-05 0)
(0 -1.96551e-05 0)
(0 -1.81916e-05 0)
(0 -1.06843e-05 0)
(0 -1.62952e-05 0)
(0 -2.41599e-05 0)
(0 -2.2151e-05 0)
(0 -3.03776e-05 0)
(0 -2.86535e-05 0)
(0 -3.72852e-05 0)
(0 -3.63918e-05 0)
(0 -4.52299e-05 0)
(0 -4.51361e-05 0)
(0 -3.56363e-05 0)
(0 -4.52921e-05 0)
(0 -5.44804e-05 0)
(0 -5.55455e-05 0)
(0 -6.41466e-05 0)
(0 -6.61255e-05 0)
(0 -7.39455e-05 0)
(0 -7.68506e-05 0)
(0 -6.84612e-05 0)
(0 -7.94905e-05 0)
(0 -8.71662e-05 0)
(0 -8.98048e-05 0)
(0 -9.72108e-05 0)
(0 -9.98168e-05 0)
(0 -0.000106985 0)
(0 -0.000109444 0)
(0 -0.000116212 0)
(0 -0.000118557 0)
(0 -0.000125157 0)
(0 -0.000127576 0)
(0 -0.000134216 0)
(0 -0.00013691 0)
(0 -0.000143561 0)
(0 -0.000102312 0)
(0 2.65301e-06 0)
(0 -8.24678e-07 0)
(0 -3.27115e-07 0)
(0 -4.73146e-07 0)
(0 1.05245e-05 0)
(0 1.37548e-05 0)
(0 -2.61016e-05 0)
(0 -2.70702e-05 0)
(0 -9.91015e-06 0)
(0 -2.4864e-05 0)
(0 -8.7235e-06 0)
(0 1.53485e-05 0)
(0 1.5829e-05 0)
(0 1.48126e-05 0)
(0 1.4917e-05 0)
(0 -1.78875e-06 0)
(0 -2.07725e-06 0)
(0 -1.63395e-06 0)
(0 -7.44345e-06 0)
(0 -3.47684e-06 0)
(0 -3.94349e-06 0)
(0 -2.74593e-05 0)
(0 -2.82382e-05 0)
(0 3.24648e-06 0)
(0 -8.21477e-08 0)
(0 -1.07995e-05 0)
(0 4.81025e-06 0)
(0 3.6579e-06 0)
(0 4.63072e-06 0)
(0 3.43817e-06 0)
(0 4.44238e-06 0)
(0 3.20863e-06 0)
(0 1.6326e-05 0)
(0 1.62474e-05 0)
(0 1.57196e-05 0)
(0 1.61241e-05 0)
(0 1.5579e-05 0)
(0 1.59722e-05 0)
(0 1.54036e-05 0)
(0 1.57934e-05 0)
(0 1.63279e-05 0)
(0 1.61538e-05 0)
(0 1.66548e-05 0)
(0 1.64854e-05 0)
(0 1.69482e-05 0)
(0 1.6785e-05 0)
(0 1.62959e-05 0)
(0 1.66006e-05 0)
(0 1.70603e-05 0)
(0 1.68828e-05 0)
(0 1.64005e-05 0)
(0 1.6699e-05 0)
(0 1.71384e-05 0)
(0 1.6971e-05 0)
(0 -7.45845e-06 0)
(0 1.793e-05 0)
(0 1.69759e-05 0)
(0 1.85976e-05 0)
(0 -2.86468e-05 0)
(0 -2.90244e-05 0)
(0 4.02134e-06 0)
(0 1.73755e-05 0)
(0 1.72138e-05 0)
(0 -0.000113466 0)
(0 -7.26283e-06 0)
(0 -7.19337e-06 0)
(0 3.73298e-06 0)
(0 5.98738e-07 0)
(0 1.67853e-05 0)
(0 1.70386e-05 0)
(0 1.74314e-05 0)
(0 1.72639e-05 0)
(0 -1.21508e-05 0)
(0 -5.36685e-06 0)
(0 -5.98081e-06 0)
(0 -2.92138e-05 0)
(0 -2.89662e-05 0)
(0 -2.84825e-05 0)
(0 -2.80837e-05 0)
(0 -2.75933e-05 0)
(0 -2.72716e-05 0)
(0 -2.69557e-05 0)
(0 -2.73067e-05 0)
(0 -2.6661e-05 0)
(0 -2.65951e-05 0)
(0 -2.60532e-05 0)
(0 -2.61194e-05 0)
(0 -2.50534e-05 0)
(0 -2.52718e-05 0)
(0 -2.37419e-05 0)
(0 -2.41728e-05 0)
(0 -2.3494e-05 0)
(0 -8.59134e-07 0)
(0 4.27568e-06 0)
(0 3.06025e-06 0)
(0 1.76284e-05 0)
(0 1.74603e-05 0)
(0 1.70827e-05 0)
(0 1.72686e-05 0)
(0 1.76297e-05 0)
(0 1.74326e-05 0)
(0 1.77662e-05 0)
(0 2.0789e-05 0)
(0 2.06713e-05 0)
(0 1.70606e-05 0)
(0 4.10886e-06 0)
(0 7.24022e-06 0)
(0 1.03509e-06 0)
(0 -2.24951e-05 0)
(0 -2.29221e-05 0)
(0 2.36382e-05 0)
(0 2.41473e-05 0)
(0 -6.85168e-06 0)
(0 -6.65669e-06 0)
(0 -4.63191e-06 0)
(0 -7.05211e-06 0)
(0 -5.3878e-06 0)
(0 -7.57314e-06 0)
(0 -6.07562e-06 0)
(0 -8.30184e-06 0)
(0 -6.81125e-06 0)
(0 -9.08539e-06 0)
(0 -7.59574e-06 0)
(0 -9.92222e-06 0)
(0 -8.39585e-06 0)
(0 -1.08233e-05 0)
(0 -9.23905e-06 0)
(0 -1.17812e-05 0)
(0 -1.34768e-05 0)
(0 -1.45231e-05 0)
(0 -1.27725e-05 0)
(0 -1.56035e-05 0)
(0 -1.38189e-05 0)
(0 -1.67542e-05 0)
(0 -1.48977e-05 0)
(0 -1.79595e-05 0)
(0 -1.60234e-05 0)
(0 -1.92666e-05 0)
(0 -1.72529e-05 0)
(0 -2.06314e-05 0)
(0 -1.86045e-05 0)
(0 -2.21148e-05 0)
(0 -2.00329e-05 0)
(0 -2.37212e-05 0)
(0 -2.15426e-05 0)
(0 -2.53002e-05 0)
(0 -2.31342e-05 0)
(0 -2.68213e-05 0)
(0 -2.4675e-05 0)
(0 -2.83157e-05 0)
(0 -2.61508e-05 0)
(0 -2.98768e-05 0)
(0 -2.77169e-05 0)
(0 -3.15737e-05 0)
(0 -2.94123e-05 0)
(0 -3.34306e-05 0)
(0 -3.12768e-05 0)
(0 -3.54909e-05 0)
(0 -3.34579e-05 0)
(0 -3.77317e-05 0)
(0 -3.22688e-05 0)
(0 -3.55768e-05 0)
(0 -4.00121e-05 0)
(0 -3.7691e-05 0)
(0 -4.2271e-05 0)
(0 -4.01316e-05 0)
(0 -4.47579e-05 0)
(0 -4.26313e-05 0)
(0 -4.7478e-05 0)
(0 -4.51666e-05 0)
(0 -5.02476e-05 0)
(0 -4.78589e-05 0)
(0 -5.32602e-05 0)
(0 -5.08284e-05 0)
(0 -5.65147e-05 0)
(0 -2.56949e-05 0)
(0 -1.63208e-05 0)
(0 -4.01538e-05 0)
(0 -4.96411e-05 0)
(0 -1.88393e-06 0)
(0 -7.36624e-06 0)
(0 4.10476e-06 0)
(0 2.94372e-06 0)
(0 1.87029e-06 0)
(0 1.71205e-06 0)
(0 6.47179e-07 0)
(0 1.8031e-05 0)
(0 3.95418e-06 0)
(0 7.99308e-07 0)
(0 -2.11875e-05 0)
(0 -1.21223e-05 0)
(0 -4.49953e-05 0)
(0 1.54117e-05 0)
(0 1.87787e-05 0)
(0 2.57865e-05 0)
(0 2.61738e-05 0)
(0 4.36692e-07 0)
(0 -6.17917e-07 0)
(0 -3.08104e-06 0)
(0 -6.20667e-06 0)
(0 -5.64524e-06 0)
(0 3.00122e-06 0)
(0 -3.46648e-07 0)
(0 -1.15627e-05 0)
(0 3.9409e-06 0)
(0 -1.76342e-06 0)
(0 2.68086e-05 0)
(0 2.66214e-05 0)
(0 2.72199e-05 0)
(0 2.65515e-05 0)
(0 2.60812e-05 0)
(0 2.60647e-05 0)
(0 2.49173e-05 0)
(0 2.48655e-05 0)
(0 2.33937e-05 0)
(0 2.30164e-05 0)
(0 2.32862e-05 0)
(0 -1.39717e-05 0)
(0 -1.38092e-05 0)
(0 2.17487e-05 0)
(0 -1.91152e-05 0)
(0 -2.58107e-05 0)
(0 -1.41086e-05 0)
(0 1.53039e-05 0)
(0 1.88038e-05 0)
(0 -3.3032e-05 0)
(0 2.10636e-06 0)
(0 -9.35671e-07 0)
(0 -2.67529e-05 0)
(0 1.478e-05 0)
(0 1.50101e-05 0)
(0 1.41705e-05 0)
(0 1.51885e-05 0)
(0 1.43074e-05 0)
(0 1.52853e-05 0)
(0 1.43685e-05 0)
(0 1.528e-05 0)
(0 1.34225e-05 0)
(0 1.43565e-05 0)
(0 1.52127e-05 0)
(0 1.42929e-05 0)
(0 1.51132e-05 0)
(0 1.59423e-05 0)
(0 1.58129e-05 0)
(0 1.49825e-05 0)
(0 1.56579e-05 0)
(0 1.63948e-05 0)
(0 1.6229e-05 0)
(0 1.68754e-05 0)
(0 1.67107e-05 0)
(0 1.60526e-05 0)
(0 1.65354e-05 0)
(0 1.71121e-05 0)
(0 1.69358e-05 0)
(0 1.63505e-05 0)
(0 1.67651e-05 0)
(0 1.72793e-05 0)
(0 1.71345e-05 0)
(0 1.65879e-05 0)
(0 1.69739e-05 0)
(0 1.74698e-05 0)
(0 1.73172e-05 0)
(0 1.77974e-05 0)
(0 1.75997e-05 0)
(0 1.71471e-05 0)
(0 1.74417e-05 0)
(0 1.69726e-05 0)
(0 1.72788e-05 0)
(0 1.76971e-05 0)
(0 1.75453e-05 0)
(0 1.79182e-05 0)
(0 1.77828e-05 0)
(0 1.73855e-05 0)
(0 1.76325e-05 0)
(0 1.80277e-05 0)
(0 1.78471e-05 0)
(0 1.74417e-05 0)
(0 1.7712e-05 0)
(0 1.80238e-05 0)
(0 1.79029e-05 0)
(0 1.75589e-05 0)
(0 1.7761e-05 0)
(0 1.80815e-05 0)
(0 1.79688e-05 0)
(0 1.76035e-05 0)
(0 1.78368e-05 0)
(0 1.81439e-05 0)
(0 1.80285e-05 0)
(0 1.77131e-05 0)
(0 1.79142e-05 0)
(0 1.81963e-05 0)
(0 1.80825e-05 0)
(0 1.78113e-05 0)
(0 1.79798e-05 0)
(0 1.82323e-05 0)
(0 1.81385e-05 0)
(0 1.78824e-05 0)
(0 1.80427e-05 0)
(0 1.82814e-05 0)
(0 1.81886e-05 0)
(0 1.79438e-05 0)
(0 1.80979e-05 0)
(0 1.83225e-05 0)
(0 1.82432e-05 0)
(0 1.8008e-05 0)
(0 1.81631e-05 0)
(0 1.79177e-05 0)
(0 1.80823e-05 0)
(0 1.82988e-05 0)
(0 1.82307e-05 0)
(0 1.80027e-05 0)
(0 1.81575e-05 0)
(0 1.83572e-05 0)
(0 1.82971e-05 0)
(0 1.80875e-05 0)
(0 1.82343e-05 0)
(0 1.84249e-05 0)
(0 1.8366e-05 0)
(0 1.81661e-05 0)
(0 1.83032e-05 0)
(0 1.80926e-05 0)
(0 1.82386e-05 0)
(0 1.80192e-05 0)
(0 1.81743e-05 0)
(0 1.83677e-05 0)
(0 1.8308e-05 0)
(0 1.8469e-05 0)
(0 1.8424e-05 0)
(0 1.82511e-05 0)
(0 1.83819e-05 0)
(0 1.85592e-05 0)
(0 1.85011e-05 0)
(0 1.83281e-05 0)
(0 1.8449e-05 0)
(0 1.82713e-05 0)
(0 1.83968e-05 0)
(0 1.8555e-05 0)
(0 1.85077e-05 0)
(0 1.83432e-05 0)
(0 1.84596e-05 0)
(0 1.82863e-05 0)
(0 1.84095e-05 0)
(0 1.82278e-05 0)
(0 1.83576e-05 0)
(0 1.85192e-05 0)
(0 1.84714e-05 0)
(0 1.86109e-05 0)
(0 1.85737e-05 0)
(0 1.84255e-05 0)
(0 1.8535e-05 0)
(0 1.83778e-05 0)
(0 1.84916e-05 0)
(0 1.86312e-05 0)
(0 1.85901e-05 0)
(0 1.84428e-05 0)
(0 1.85455e-05 0)
(0 1.83893e-05 0)
(0 1.84982e-05 0)
(0 1.86383e-05 0)
(0 1.85971e-05 0)
(0 1.84488e-05 0)
(0 1.85528e-05 0)
(0 1.86862e-05 0)
(0 1.86461e-05 0)
(0 1.85051e-05 0)
(0 1.86035e-05 0)
(0 1.84544e-05 0)
(0 1.85583e-05 0)
(0 1.86904e-05 0)
(0 1.86506e-05 0)
(0 1.85118e-05 0)
(0 1.86101e-05 0)
(0 1.84647e-05 0)
(0 1.85679e-05 0)
(0 1.8697e-05 0)
(0 1.8658e-05 0)
(0 1.85217e-05 0)
(0 1.86147e-05 0)
(0 1.847e-05 0)
(0 1.85661e-05 0)
(0 1.86952e-05 0)
(0 1.86504e-05 0)
(0 1.85121e-05 0)
(0 1.86001e-05 0)
(0 1.87245e-05 0)
(0 1.86766e-05 0)
(0 1.84526e-05 0)
(0 1.8789e-05 0)
(0 1.87443e-05 0)
(0 1.88453e-05 0)
(0 1.88037e-05 0)
(0 1.88933e-05 0)
(0 1.88529e-05 0)
(0 1.87583e-05 0)
(0 1.88101e-05 0)
(0 1.89302e-05 0)
(0 1.87093e-05 0)
(0 1.87689e-05 0)
(0 1.88594e-05 0)
(0 1.88265e-05 0)
(0 1.87332e-05 0)
(0 1.87892e-05 0)
(0 1.16966e-05 0)
(0 1.89708e-05 0)
(0 1.90018e-05 0)
(0 2.21973e-05 0)
(0 2.07025e-05 0)
(0 1.88807e-05 0)
(0 1.88396e-05 0)
(0 1.8722e-05 0)
(0 1.87856e-05 0)
(0 -8.45544e-07 0)
(0 -1.89288e-06 0)
(0 -1.10843e-05 0)
(0 1.86682e-05 0)
(0 1.87256e-05 0)
(0 -5.22891e-06 0)
(0 -4.39945e-06 0)
(0 1.51928e-05 0)
(0 1.47668e-05 0)
(0 1.45342e-05 0)
(0 1.40743e-05 0)
(0 1.38401e-05 0)
(0 1.33611e-05 0)
(0 -3.96678e-06 0)
(0 -4.00048e-06 0)
(0 -1.16882e-05 0)
(0 -1.28936e-05 0)
(0 -1.24583e-05 0)
(0 -1.39921e-05 0)
(0 -1.31273e-05 0)
(0 -1.49507e-05 0)
(0 -1.37715e-05 0)
(0 1.89272e-05 0)
(0 -4.05529e-05 0)
(0 -1.71106e-07 0)
(0 -3.21188e-06 0)
(0 2.18104e-05 0)
(0 2.03193e-05 0)
(0 2.78562e-05 0)
(0 2.88289e-05 0)
(0 1.85934e-05 0)
(0 1.86565e-05 0)
(0 1.87927e-05 0)
(0 1.8715e-05 0)
(0 1.38827e-06 0)
(0 1.85715e-05 0)
(0 1.86345e-05 0)
(0 1.87663e-05 0)
(0 1.86893e-05 0)
(0 1.90362e-05 0)
(0 1.90607e-05 0)
(0 -0.000140253 0)
(0 -3.56415e-05 0)
(0 -7.12521e-05 0)
(0 -9.17219e-05 0)
(0 1.31456e-05 0)
(0 1.26503e-05 0)
(0 1.56112e-05 0)
(0 1.94746e-05 0)
(0 1.88099e-05 0)
(0 1.87314e-05 0)
(0 1.54767e-05 0)
(0 -1.57213e-05 0)
(0 -1.45245e-05 0)
(0 -1.66185e-05 0)
(0 4.43998e-06 0)
(0 -2.04293e-06 0)
(0 -3.10438e-06 0)
(0 2.37769e-07 0)
(0 -3.93358e-06 0)
(0 -2.98915e-06 0)
(0 -4.49896e-06 0)
(0 1.88435e-05 0)
(0 1.87616e-05 0)
(0 1.88692e-05 0)
(0 1.8782e-05 0)
(0 1.88849e-05 0)
(0 1.87909e-05 0)
(0 1.8889e-05 0)
(0 -9.72913e-06 0)
(0 5.02514e-06 0)
(0 -2.83263e-05 0)
(0 -2.00251e-05 0)
(0 -6.22085e-05 0)
(0 1.64143e-06 0)
(0 -7.63058e-09 0)
(0 1.78466e-05 0)
(0 1.77652e-05 0)
(0 1.75591e-05 0)
(0 1.74713e-05 0)
(0 1.72308e-05 0)
(0 1.71353e-05 0)
(0 1.80824e-05 0)
(0 -0.000114826 0)
(0 2.15991e-05 0)
(0 2.01779e-05 0)
(0 -7.02238e-06 0)
(0 1.61839e-05 0)
(0 -6.86714e-06 0)
(0 -8.9322e-06 0)
(0 -8.48222e-06 0)
(0 -1.06797e-05 0)
(0 -1.01644e-05 0)
(0 -1.23321e-05 0)
(0 -1.17314e-05 0)
(0 -6.89125e-06 0)
(0 -1.73094e-05 0)
(0 -1.16534e-06 0)
(0 1.01553e-06 0)
(0 5.01025e-06 0)
(0 8.84521e-06 0)
(0 1.85284e-05 0)
(0 7.20197e-06 0)
(0 1.87876e-05 0)
(0 1.8886e-05 0)
(0 1.68642e-05 0)
(0 2.93555e-05 0)
(0 3.04766e-05 0)
(0 1.90885e-05 0)
(0 1.91081e-05 0)
(0 5.02352e-06 0)
(0 4.79288e-06 0)
(0 5.76447e-06 0)
(0 5.46434e-06 0)
(0 6.36396e-06 0)
(0 5.97009e-06 0)
(0 6.83779e-06 0)
(0 6.38928e-06 0)
(0 5.49617e-06 0)
(0 7.20011e-06 0)
(0 -1.64925e-05 0)
(0 -1.52702e-05 0)
(0 1.01662e-05 0)
(0 3.84108e-06 0)
(0 2.77593e-06 0)
(0 -4.37824e-06 0)
(0 -3.01451e-06 0)
(0 -1.73873e-06 0)
(0 -3.25835e-06 0)
(0 -3.82264e-06 0)
(0 1.84779e-05 0)
(0 1.86339e-05 0)
(0 1.86754e-05 0)
(0 1.70043e-05 0)
(0 2.07882e-05 0)
(0 1.89063e-05 0)
(0 1.67647e-05 0)
(0 1.71539e-05 0)
(0 -3.15366e-06 0)
(0 -4.21467e-06 0)
(0 -1.33593e-06 0)
(0 -4.01288e-07 0)
(0 2.7468e-07 0)
(0 8.13576e-07 0)
(0 1.24663e-05 0)
(0 1.19396e-05 0)
(0 1.29224e-05 0)
(0 2.09585e-05 0)
(0 2.01049e-05 0)
(0 6.74781e-06 0)
(0 7.49988e-06 0)
(0 2.15658e-05 0)
(0 -1.38107e-05 0)
(0 -1.45707e-05 0)
(0 -1.28922e-05 0)
(0 1.22647e-05 0)
(0 1.26729e-05 0)
(0 -2.84624e-05 0)
(0 -2.72458e-05 0)
(0 1.49261e-06 0)
(0 -1.59872e-05 0)
(0 -1.68961e-05 0)
(0 1.87732e-05 0)
(0 1.88739e-05 0)
(0 -2.5731e-05 0)
(0 1.91308e-05 0)
(0 1.91452e-05 0)
(0 1.91248e-05 0)
(0 1.91572e-05 0)
(0 1.91396e-05 0)
(0 -3.71074e-06 0)
(0 5.38322e-06 0)
(0 5.12475e-06 0)
(0 6.00726e-06 0)
(0 -1.71764e-05 0)
(0 -1.57492e-05 0)
(0 1.91682e-05 0)