/*--------------------------------*- C++ -*----------------------------------*\
| =========                 |                                                 |
| \\      /  F ield         | OpenFOAM: The Open Source CFD Toolbox           |
|  \\    /   O peration     | Version:  v2012                                 |
|   \\  /    A nd           | Website:  www.openfoam.com                      |
|    \\/     M anipulation  |                                                 |
\*---------------------------------------------------------------------------*/
FoamFile
{
    version     2.0;
    format      ascii;
    class       surfaceVectorField;
    location    "750";
    object      Uf_0;
}
// * * * * * * * * * * * * * * * * * * * * * * * * * * * * * * * * * * * * * //

dimensions      [0 1 -1 0 0 0 0];


internalField   nonuniform List<vector> 
27274
(
(1.10102 0.0820715 2.21826e-22)
(1.09782 0.0801424 -9.90617e-21)
(1.0977 0.0841982 -9.15882e-21)
(0.100933 -0.0105217 0)
(0.111482 -0.0138748 -7.30652e-21)
(0.083927 -0.00814006 0)
(1.00401 0.0222748 -8.83334e-23)
(1.00374 0.0215779 4.3605e-21)
(1.00436 0.0218241 2.29238e-21)
(1.01464 0.00465708 0)
(1.01499 0.00466589 -9.71027e-22)
(1.01494 0.00498126 0)
(1.04224 -0.00568104 -7.41484e-22)
(1.04255 -0.00489829 0)
(1.04335 -0.00579892 6.16904e-21)
(1.14777 -0.0696696 -1.23296e-20)
(1.14926 -0.0670033 1.82659e-20)
(1.15127 -0.0702818 -3.5741e-22)
(1.00403 0.00705317 -3.66642e-22)
(1.00381 0.00685799 9.32449e-22)
(1.00399 0.00678903 -5.19958e-22)
(1.16103 0.0263099 -2.40833e-20)
(1.16316 0.02328 -5.68161e-22)
(1.1594 0.0232903 -2.245e-20)
(0.940532 -0.0056852 -3.49204e-21)
(0.938091 -0.00643762 1.96518e-20)
(0.0118238 -0.00589121 4.07898e-21)
(-0.00637178 -0.00408967 -1.64374e-21)
(0.0131583 -0.00523169 1.89232e-21)
(1.02148 0.000713787 -6.23294e-22)
(1.02169 0.000926884 -3.80145e-21)
(1.02124 0.000877271 7.92594e-22)
(-0.225813 0.00462543 2.42601e-20)
(-0.231638 0.00468119 2.55679e-20)
(-0.252273 0.00709715 2.42426e-20)
(1.19868 0.0215915 4.23702e-20)
(1.20055 0.0197607 1.60863e-20)
(1.20178 0.0229202 7.74743e-21)
(0.987183 0.00506849 1.4775e-21)
(0.987455 0.00565627 0)
(0.987831 0.00499215 0)
(1.02596 0.0349111 -1.8583e-22)
(1.02675 0.0340272 3.04472e-21)
(1.02545 0.0337505 5.36732e-22)
(0.989216 0.0700763 -7.49684e-22)
(0.987577 0.0718257 -3.55728e-21)
(0.986792 0.0694022 -1.26047e-21)
(-0.257793 0.0203803 -9.69415e-21)
(-0.233425 0.0220913 -5.5314e-20)
(-0.248689 0.0199403 5.76451e-21)
(1.01529 0.00985442 -5.28748e-22)
(1.01575 0.0101129 0)
(1.01515 0.0102132 0)
(1.00468 0.0356821 3.87066e-22)
(1.00523 0.0366276 1.11334e-21)
(1.00582 0.0356115 2.92904e-21)
(0.643992 -0.0984163 1.70194e-20)
(0.658929 -0.104008 -3.76525e-21)
(0.601866 -0.0879683 2.03702e-20)
(0.969339 0.0864726 -3.0203e-21)
(0.969372 0.0893558 5.0842e-21)
(0.966352 0.0870462 -1.66254e-20)
(0.976228 0.0341277 8.51675e-22)
(0.975086 0.0330774 8.19833e-21)
(0.974782 0.0346924 8.14897e-21)
(0.0944852 -0.0165154 -5.53111e-21)
(0.128738 -0.0191704 5.39393e-20)
(0.112917 -0.0179174 5.71872e-20)
(1.04196 -0.00631384 -6.53858e-22)
(1.04136 -0.00548636 8.47923e-21)
(1.051 -0.0225904 -6.33715e-21)
(1.05115 -0.0243792 2.15907e-21)
(0.999229 0.00394407 -1.19594e-21)
(0.999319 0.00395991 -2.90529e-21)
(0.999323 0.00371205 -1.3382e-21)
(0.996383 0.000294094 1.58813e-21)
(0.996199 0.00044876 7.15945e-21)
(0.944281 0.00655399 3.26008e-21)
(0.942304 0.00674815 -2.87829e-20)
(0.943397 0.00466154 -1.05505e-20)
(0.0418725 0.166882 8.58371e-21)
(0.0485099 0.164791 1.52998e-20)
(0.0555755 0.16114 5.05455e-21)
(0.994244 0.0238527 8.47822e-22)
(0.993428 0.0240296 5.25091e-21)
(0.994035 0.0249614 5.2905e-21)
(1.03447 -0.00533961 2.95955e-21)
(1.03515 -0.00505136 6.12872e-21)
(1.03509 -0.00572773 5.24116e-24)
(1.04944 -0.0100603 -7.18765e-23)
(1.04838 -0.0101451 -2.46139e-23)
(1.04916 -0.0112815 -2.45463e-22)
(1.01486 0.00957786 -5.39486e-22)
(1.01539 0.00948285 5.37254e-22)
(1.0094 0.000500323 -5.1119e-23)
(1.00962 0.000564313 -1.95076e-22)
(1.00999 0.000683101 -8.50104e-23)
(1.13227 0.130617 -1.34544e-20)
(1.13609 0.13512 -1.71426e-20)
(1.13823 0.129844 2.22032e-21)
(1.104 0.0808713 -3.11131e-21)
(1.10372 0.0847631 3.57124e-21)
(0.95685 -0.00314527 -7.61279e-21)
(0.955147 -0.0022246 8.22905e-21)
(1.18333 0.267068 -5.00854e-20)
(1.17413 0.271508 1.56042e-20)
(1.17595 0.260648 -2.1432e-20)
(0.946327 0.00691426 3.67815e-20)
(0.944749 0.0089032 -2.03312e-21)
(1.02192 0.00110753 -2.46912e-21)
(1.02182 0.00133764 0)
(1.02227 0.00128961 0)
(0.986835 0.0046021 1.24069e-21)
(0.986562 0.0052629 6.68867e-21)
(0.935963 0.315595 3.48456e-21)
(0.94488 0.323937 1.01489e-21)
(0.94818 0.310079 -1.39922e-21)
(1.00426 0.022958 -2.21557e-21)
(1.00363 0.0226867 -3.26597e-21)
(-0.0765593 0.00351949 2.33713e-20)
(-0.0572537 2.83264e-05 2.27059e-20)
(-0.0784911 0.00376872 -1.668e-20)
(1.01469 -5.85786e-06 -7.53714e-22)
(1.0149 -2.84314e-06 -5.1006e-22)
(1.01385 0.000137918 0)
(1.19092 0.263536 -3.82587e-20)
(1.18959 0.274136 -1.51587e-20)
(1.14625 0.0769861 9.54236e-21)
(1.1482 0.0743361 -1.03536e-21)
(1.15034 0.0781862 4.17418e-21)
(0.935987 0.0274288 -2.32236e-20)
(0.934165 0.0255884 1.81215e-20)
(0.936991 0.0247093 -2.11115e-20)
(1.13799 0.0758187 0)
(1.13549 0.0791185 0)
(1.13384 0.0751574 1.06402e-20)
(1.01467 0.0112023 3.50664e-23)
(1.01509 0.011416 -3.35145e-22)
(1.01486 0.010891 1.85568e-22)
(1.01915 0.00261519 -3.54984e-22)
(1.01894 0.00242275 -1.5559e-21)
(1.01932 0.00243848 1.88549e-21)
(1.01708 0.0215961 -8.56104e-23)
(1.01716 0.0222368 -6.44429e-23)
(1.01647 0.0218113 -3.30899e-23)
(0.999989 0.000547193 -1.94744e-21)
(0.999973 0.00053323 3.556e-21)
(0.999992 0.000341955 5.8367e-22)
(0.272259 -0.0455129 1.95622e-20)
(0.295142 -0.0484371 5.1438e-20)
(0.313815 -0.051658 1.33386e-20)
(1.00041 0.00606398 0)
(1.00051 0.00616273 0)
(1.00045 0.00590547 -1.03007e-21)
(1.00176 0.000332423 -1.74561e-21)
(1.00189 0.000329864 -1.34855e-21)
(1.00172 0.000191282 -1.36588e-21)
(1.09982 -0.138673 0)
(1.10328 -0.13852 0)
(1.10135 -0.142338 0)
(1.02522 0.0354566 -8.17973e-22)
(1.02641 0.0356094 5.66926e-22)
(0.113466 0.437698 -9.7438e-20)
(0.0996442 0.483314 1.43959e-20)
(0.145718 0.460815 1.75097e-20)
(1.22177 0.142713 1.42857e-20)
(1.21963 0.13757 5.97306e-20)
(1.21497 0.141908 -2.57946e-21)
(1.01427 0.0109521 -3.9641e-22)
(1.01441 0.0115559 4.72231e-22)
(1.15263 -0.0319593 -9.37612e-21)
(1.15353 -0.0288247 2.48602e-21)
(1.14984 -0.0295698 1.32079e-20)
(1.01624 0.00898288 0)
(1.01621 0.00940187 0)
(1.01667 0.00928843 -4.57766e-22)
(1.01486 0.197519 0)
(1.01405 0.190707 0)
(1.02052 0.193155 2.32357e-21)
(-0.203846 0.00178097 5.9588e-20)
(-0.222677 0.00404857 0)
(1.09458 0.0784307 8.91355e-21)
(1.09759 0.0765048 -9.80141e-21)
(0.0376094 0.132407 2.2237e-20)
(0.0477111 0.122544 -2.56311e-21)
(0.0274854 0.106862 1.44909e-20)
(0.860977 0.0538164 8.40624e-21)
(0.855597 0.0567605 -8.43337e-21)
(0.855886 0.0488783 9.2278e-21)
(0.996625 0.000489012 9.22863e-22)
(0.977459 0.0351543 2.44047e-21)
(0.977668 0.0335925 -6.86683e-21)
(1.16078 0.104673 3.83524e-21)
(1.16354 0.100307 3.59995e-20)
(1.15868 0.101093 1.07542e-20)
(1.00008 0.000493622 0)
(1.00005 0.000416611 3.78351e-22)
(1.00006 0.000394355 0)
(1.22374 0.148147 1.53534e-20)
(1.22813 0.142151 1.27544e-20)
(1.01166 0.0111992 4.92619e-24)
(1.01126 0.0110451 6.40537e-23)
(1.01146 0.0114767 -1.18374e-22)
(1.15877 0.029555 1.22952e-20)
(1.1629 0.0296666 -3.72953e-20)
(1.00412 0.00727863 4.15815e-22)
(1.00426 0.0072215 -1.1686e-21)
(0.674391 -0.0887079 1.90666e-20)
(0.70902 -0.0899106 8.81473e-21)
(0.64496 -0.084012 9.2913e-21)
(1.04981 -0.00807179 -4.00242e-21)
(1.05026 -0.00712944 -3.8889e-21)
(1.05109 -0.00848714 6.75365e-21)
(1.06126 -0.030448 -6.06508e-22)
(1.06181 -0.0320865 3.42377e-23)
(1.06307 -0.0308541 -7.65113e-21)
(1.01656 0.0194974 -1.04455e-22)
(1.01635 0.0188453 -2.35023e-22)
(1.0159 0.0191775 -1.29057e-22)
(1.00359 0.00660166 3.78074e-22)
(1.00359 0.00686498 3.0725e-21)
(1.23902 0.347814 2.81351e-20)
(1.24437 0.353883 -4.92856e-21)
(1.23401 0.35899 1.9395e-20)
(0.96931 0.083073 -2.70151e-21)
(0.972653 0.0852719 1.56743e-20)
(1.06144 0.181167 0)
(1.06446 0.186709 0)
(1.06715 0.180357 6.93784e-21)
(0.999161 0.00395847 0)
(0.999169 0.00418487 4.2486e-21)
(1.19681 0.0243408 -3.24314e-20)
(1.1954 0.0209208 9.3019e-21)
(0.241441 0.0114935 -2.77884e-21)
(0.271874 0.00414682 -9.47403e-21)
(0.264694 -0.00016479 1.45288e-20)
(0.618054 -0.0884217 8.21045e-21)
(0.687125 -0.107885 3.79907e-21)
(0.0306875 0.172013 0)
(0.0375579 0.169293 2.09503e-21)
(0.278741 -0.0402535 3.48342e-21)
(0.23715 -0.0341945 -1.84801e-20)
(0.263948 -0.0375399 3.52302e-21)
(1.23322 -0.0783774 -1.10049e-20)
(1.23012 -0.0802286 2.08948e-20)
(1.22912 -0.0762117 -2.38053e-20)
(1.0145 -3.22098e-05 -3.99592e-24)
(1.01509 7.30285e-05 -2.08792e-21)
(0.99999 0.00559631 -1.9909e-21)
(0.999928 0.00540848 -2.09247e-21)
(1.00001 0.00535321 -2.11586e-21)
(1.01823 0.000805519 -1.19955e-21)
(1.01851 0.000858789 -7.58707e-23)
(1.01833 0.000695745 7.24927e-22)
(-0.00730316 0.149529 -1.01884e-20)
(-0.00757174 0.155721 1.59094e-20)
(0.0775561 -0.0145715 -6.05445e-20)
(0.0632582 -0.0129696 -3.13421e-20)
(1.02508 0.0149463 3.00437e-22)
(1.02537 0.0144073 -3.27418e-22)
(1.02577 0.0151499 2.22249e-21)
(1.073 -0.00452396 -1.97809e-21)
(1.07358 -0.00305411 8.9036e-21)
(1.07492 -0.00497449 -1.83894e-21)
(0.250139 -0.043605 -1.0078e-20)
(0.233711 -0.0414164 -1.03279e-20)
(-0.197923 0.0228916 0)
(-0.188544 0.022189 0)
(-0.173953 0.0267667 0)
(0.00493413 0.19266 0)
(0.00743577 0.190336 2.61401e-20)
(0.00290379 0.190027 0)
(-0.209834 0.0203865 3.84689e-20)
(-0.219769 0.0192684 0)
(-0.196152 0.0231598 0)
(1.09575 0.140819 1.15879e-21)
(1.10209 0.139942 5.40026e-21)
(1.09695 0.135674 3.91553e-22)
(1.14181 -0.0871319 2.52226e-20)
(1.11302 -0.0885414 -1.59367e-20)
(1.17318 -0.0889615 -5.44651e-21)
(1.04101 -0.0104156 -5.46747e-21)
(1.04136 -0.00969622 4.03463e-21)
(1.042 -0.0106174 -8.40575e-21)
(1.18708 -0.0385647 -3.17835e-21)
(1.18714 -0.0417367 1.66992e-20)
(1.1902 -0.0397117 8.82284e-22)
(-0.278927 0.00822717 4.98573e-20)
(-0.280769 0.00781664 3.02887e-20)
(-0.309976 0.00908031 -1.64314e-20)
(1.12475 0.310381 0)
(1.11881 0.302502 0)
(1.12973 0.299781 4.10294e-21)
(1.10491 0.0238232 -1.35191e-20)
(1.1068 0.0252573 -3.88593e-21)
(1.1073 0.0224333 -1.06216e-20)
(0.492695 -0.289357 3.54506e-20)
(0.468204 -0.314607 -3.56324e-20)
(0.998067 0.0231386 -6.69659e-21)
(0.998667 0.0235335 -3.56319e-21)
(0.998061 0.0240706 -4.3079e-21)
(0.950413 0.0175689 0)
(0.952447 0.0172485 8.3675e-21)
(0.951768 0.0194219 0)
(0.999066 0.00318276 4.39119e-21)
(0.999047 0.00337725 -2.54156e-21)
(0.998943 0.00336146 1.90207e-21)
(0.948864 0.0161053 0)
(0.948282 0.0183196 0)
(0.306277 -0.0514548 -1.5089e-21)
(0.269164 -0.0435804 -1.50488e-20)
(0.291028 -0.0482737 -5.68027e-21)
(1.00286 0.000744973 1.37296e-22)
(1.00303 0.000809257 6.58838e-22)
(1.00288 0.000964006 1.27271e-21)
(0.0735838 -0.287257 -4.93018e-20)
(0.0640853 -0.320463 9.08311e-20)
(0.0497569 -0.311612 1.6189e-20)
(0.702492 -0.0935781 4.87314e-21)
(0.642541 -0.0874733 2.78238e-20)
(0.0797456 0.332947 4.37395e-20)
(0.0716638 0.360351 1.95149e-19)
(0.0519909 0.357546 2.66718e-20)
(1.09023 0.142227 1.09292e-20)
(1.09531 0.147067 1.39926e-20)
(0.0311776 -0.00809714 3.15463e-20)
(0.0106349 -0.00625079 -1.92229e-20)
(1.34612 0.118618 4.66218e-20)
(1.35309 0.115616 2.28349e-20)
(1.35265 0.123656 2.35366e-20)
(1.04963 -0.00911955 -3.55118e-21)
(1.04873 -0.00791538 2.19326e-21)
(1.15833 0.107148 -1.02847e-20)
(1.1626 0.107284 -2.43461e-20)
(1.02442 0.0147121 1.77684e-21)
(1.02475 0.0154817 -1.86841e-21)
(1.12033 0.319819 0)
(1.13129 0.317264 0)
(1.01693 0.0208173 4.1912e-23)
(1.01777 0.0212129 0)
(1 0.00101049 -8.67133e-22)
(1 0.00105055 -5.69615e-21)
(0.999996 0.000794237 -3.00876e-21)
(1.3717 0.250525 6.1143e-22)
(1.36347 0.250808 5.06584e-20)
(1.33649 0.230342 -3.34729e-20)
(1.0181 0.000951207 -5.46624e-22)
(1.01794 0.000736147 -1.81845e-21)
(1.01898 0.00276449 2.94676e-21)
(1.01935 0.00277084 2.08732e-21)
(1.17728 -0.046232 5.27335e-20)
(1.19073 -0.0446288 -2.30767e-20)
(1.11891 -0.0457926 6.40201e-22)
(1.1383 -0.00829407 5.23074e-22)
(1.13581 -0.00979248 -2.45671e-20)
(1.13592 -0.00699583 -1.58122e-20)
(1.0727 -0.00634791 7.38017e-21)
(1.07124 -0.00441987 0)
(0.912386 0.192976 2.33145e-21)
(0.910619 0.184553 2.28495e-21)
(0.91877 0.187418 2.21318e-22)
(1.00001 0.00100572 3.00666e-21)
(0.999991 0.00124733 5.45714e-21)
(1.02219 0.0277382 1.17341e-21)
(1.02254 0.0271742 2.877e-21)
(1.02319 0.0276074 3.19242e-22)
(1.02134 0.000515005 -7.95807e-22)
(1.02168 0.000514682 4.92957e-22)
(0.992529 0.013875 0)
(0.991818 0.0138988 4.00977e-21)
(0.992076 0.0147801 4.24314e-21)
(1.16385 0.173998 -1.10853e-20)
(1.15734 0.17621 -3.14924e-20)
(1.15853 0.169855 -3.35062e-21)
(0.00444568 0.191119 0)
(0.00175824 0.194099 0)
(-0.0205618 0.181264 -4.43869e-21)
(-0.021011 0.181242 0)
(-0.0269127 0.179458 0)
(0.99918 0.046799 4.08987e-22)
(0.997941 0.0479482 -2.4241e-21)
(1 0.0482291 2.17225e-21)
(0.998038 0.0224166 3.6808e-21)
(0.997456 0.0229058 4.40729e-21)
(0.392843 0.0220099 6.21437e-20)
(0.365679 0.0232671 -1.31692e-19)
(0.37982 0.0482536 -1.33616e-19)
(0.975156 0.0314696 -7.50171e-22)
(0.974887 0.0299504 -8.79607e-21)
(0.976259 0.030611 -3.32417e-21)
(0.912186 0.00275596 -8.83279e-21)
(0.910069 0.00559278 8.60194e-21)
(0.908455 0.00191567 9.27752e-21)
(0.207708 0.0353359 0)
(0.249477 0.0244293 0)
(0.203346 0.0273284 9.04234e-21)
(1.06164 0.00799644 -1.33976e-21)
(1.06224 0.00696719 -7.6409e-21)
(1.06316 0.00832827 0)
(0.202795 0.0423169 0)
(0.143066 0.0408261 4.59621e-24)
(1.04245 0.000459428 -3.542e-21)
(1.04353 0.000355372 -2.17946e-21)
(1.04273 -0.000312896 -5.35396e-21)
(0.973919 0.0321332 -1.07676e-21)
(1.13029 0.127489 8.60268e-21)
(1.12855 0.131227 -9.02183e-21)
(0.1332 0.394438 -1.24586e-19)
(0.0849623 0.392657 -5.83485e-21)
(1.11884 -0.0958692 -4.71178e-21)
(1.1217 -0.0944742 -1.84609e-20)
(1.12126 -0.0985597 -1.77427e-20)
(1.00004 0.000454565 2.67716e-21)
(1.00004 0.000556368 3.68226e-22)
(1.00001 0.000374751 -9.2429e-22)
(1.1675 -0.0478874 -3.27854e-20)
(1.21531 -0.0475263 2.28249e-20)
(0.0999332 0.315071 -1.74772e-19)
(0.0709809 0.305111 -1.27699e-19)
(1.00004 0.00052861 2.93643e-21)
(1.00004 0.000381855 3.11533e-22)
(1.16002 -0.026509 1.44433e-20)
(1.1569 -0.0281021 0)
(1.16016 -0.0298356 9.01134e-21)
(1.01311 0.101848 -1.08739e-21)
(1.01022 0.103176 -2.08024e-21)
(1.01384 0.104936 8.97616e-22)
(1.0516 0.0628121 -5.99853e-21)
(1.05269 0.0605944 7.68989e-21)
(1.0501 0.0609117 -1.16661e-21)
(0.910117 0.091757 2.52927e-20)
(0.905074 0.092289 2.43763e-20)
(0.909446 0.0969326 1.22888e-20)
(1.07245 -0.00782614 -1.60068e-21)
(1.07424 -0.00803173 9.36368e-21)
(1.15436 -0.15497 -9.199e-21)
(1.15073 -0.155701 -2.08469e-20)
(1.15241 -0.151986 -2.02605e-20)
(0.499276 0.706393 1.51612e-20)
(0.524884 0.6639 0)
(0.468597 0.654768 -1.67222e-20)
(0.153095 0.0510087 -3.47433e-20)
(0.204319 0.0568151 4.91764e-20)
(0.26601 0.0675798 2.262e-20)
(1.12504 0.0902981 -4.70298e-21)
(1.12856 0.0872947 2.53675e-20)
(1.12345 0.0861252 8.85831e-21)
(1.24112 0.0142234 -2.56639e-22)
(1.24396 0.016379 2.19234e-21)
(1.23986 0.01713 2.15547e-20)
(1.0134 0.0109756 1.07628e-22)
(1.0138 0.0109105 -1.33453e-22)
(1.01371 0.01134 8.19112e-23)
(-0.0784637 0.200726 -2.70126e-23)
(-0.0748228 0.200125 -6.4893e-21)
(-0.0779884 0.199464 2.32938e-20)
(0.0566016 -0.0132845 -2.72698e-20)
(0.0351774 -0.0110985 1.98497e-20)
(0.0264638 -0.00947665 -2.21046e-20)
(1.02072 0.00137154 2.23688e-21)
(1.0203 0.0014377 -6.22307e-22)
(1.02034 0.00116668 0)
(1.02107 0.00139387 1.7949e-23)
(1.02147 0.00135309 -1.82515e-21)
(1.02108 0.00112719 1.76419e-22)
(0.990856 0.0683131 3.19789e-21)
(0.991775 0.0705402 1.58321e-21)
(0.141735 -0.0067059 0)
(0.124048 -0.00208927 0)
(0.116759 -0.00145711 0)
(1.08246 -0.0926419 4.14626e-21)
(1.0853 -0.0910104 2.31944e-20)
(1.08235 -0.0890806 4.74752e-21)
(1.00027 0.0054663 1.24783e-21)
(1.00035 0.00551008 8.20023e-22)
(1.00032 0.00573727 -2.36852e-21)
(1.36639 0.238032 0)
(1.35231 0.245467 4.94875e-20)
(0.296367 0.15776 -1.41592e-19)
(0.580924 0.278272 -5.2927e-20)
(0.428456 0.201719 -4.07533e-20)
(0.657177 -0.115048 3.58862e-22)
(0.672177 -0.123293 -7.10902e-25)
(0.6733 -0.106375 8.11937e-22)
(1.23908 0.012018 -5.98783e-20)
(1.2427 0.0114372 -2.29046e-20)
(1.0864 0.00400107 -2.97658e-21)
(1.08667 0.00586277 9.07571e-21)
(1.08862 0.00395663 -1.04888e-20)
(1.00525 0.00640825 0)
(1.00548 0.00657122 0)
(1.00539 0.00625759 0)
(1.17731 -0.142146 -1.94712e-20)
(1.1781 -0.139368 0)
(1.18062 -0.141022 -1.91378e-20)
(0.141743 -0.00304168 -5.42923e-22)
(0.158924 -0.00645011 1.63467e-20)
(0.16731 -0.0103325 -2.09372e-20)
(0.200554 -0.0296069 -1.78529e-20)
(0.225502 -0.0307037 -4.45377e-20)
(0.242593 -0.032099 -4.26384e-21)
(1.22297 -0.0646159 2.23576e-20)
(1.21993 -0.0666557 4.88389e-20)
(1.21954 -0.0632155 3.61484e-20)
(0.938969 0.00430767 -1.61596e-20)
(0.940048 0.00673026 -1.07403e-20)
(0.936823 0.00660868 7.55668e-21)
(-0.264655 0.0193071 0)
(-0.27717 0.0186814 0)
(1.09784 -0.135586 1.06709e-20)
(1.00453 0.0237308 2.9003e-21)
(1.00407 0.0241207 1.51715e-21)
(1.00475 0.0244175 1.29117e-21)
(1.07213 -0.00936813 -8.71654e-21)
(1.07087 -0.00766035 1.33562e-21)
(1.11569 -0.0979374 1.60434e-20)
(1.05765 -0.0965114 1.36257e-20)
(1.08169 -0.0985841 -1.54071e-20)
(0.896837 0.213904 0)
(0.895461 0.204591 -9.17643e-21)
(0.886027 0.209568 0)
(0.977707 0.0365178 4.7639e-21)
(0.976437 0.0377044 0)
(0.978385 0.0382344 1.0302e-21)
(1.28398 0.00316992 -2.76117e-21)
(1.25037 -0.00370489 -3.33862e-20)
(1.29448 0.00380353 -7.5874e-21)
(1.08647 0.00181191 5.77733e-22)
(1.08442 0.00369444 -1.57067e-20)
(1.11599 -0.0126764 -7.42986e-21)
(1.11647 -0.0102706 -2.8184e-20)
(1.11867 -0.0126561 -5.8777e-21)
(1.02102 0.00160121 2.61013e-21)
(1.05411 0.014981 -3.9497e-23)
(1.05351 0.0139112 7.07395e-21)
(1.05493 0.0141346 1.5441e-21)
(0.944 0.0448686 1.80843e-21)
(0.941078 0.0443794 1.03879e-20)
(0.942614 0.0477315 1.06519e-20)
(0.207818 0.0981288 3.05214e-20)
(0.135891 0.073209 9.02692e-20)
(0.0842329 0.0599102 7.68906e-20)
(0.178643 -0.0252932 0)
(0.165937 -0.023891 2.14483e-20)
(-0.249967 0.0106325 -1.53998e-20)
(-0.273594 0.00850544 3.32094e-21)
(-0.245353 0.00887446 -1.35267e-20)
(0.997633 0.117422 -4.01001e-21)
(0.995153 0.114196 8.82099e-22)
(0.999543 0.112697 -1.47238e-21)
(0.104872 -0.276581 2.53727e-20)
(0.0812981 -0.250763 0)
(-0.0446506 0.00454448 6.75114e-21)
(-0.0672076 0.00486158 -4.69957e-20)
(-0.0800833 0.0063659 3.74021e-20)
(-0.0250781 -0.00545711 6.89808e-20)
(-0.0416018 -0.00728492 -2.80228e-21)
(-0.0551523 -0.00659832 2.61867e-20)
(1.11555 -0.0156065 3.10704e-20)
(1.11322 -0.0132438 2.00861e-23)
(1.02153 0.0283286 0)
(1.02212 0.0289646 0)
(1.04164 0.000385858 0)
(1.04223 0.00113439 -1.20021e-21)
(0.597216 -0.0807298 -1.39404e-20)
(0.578103 -0.0720211 -1.00419e-20)
(0.638567 -0.0904249 -1.89335e-20)
(0.998588 0.045451 4.00639e-21)
(1.00035 0.0460025 -1.8305e-21)
(1.01313 0.0105194 1.58345e-22)
(1.01296 0.0109078 0)
(1.24358 0.337234 -1.41731e-21)
(1.23402 0.341672 1.64079e-20)
(1.06549 -0.190442 -2.55603e-20)
(1.09281 -0.194611 -6.32551e-21)
(1.10306 -0.19702 -7.31293e-21)
(0.558896 -0.0713752 3.89335e-21)
(0.999157 0.00301406 -4.77489e-22)
(0.999081 0.00302523 4.38302e-21)
(1.06019 0.00760926 -1.34105e-21)
(1.06084 0.00918502 -3.91989e-21)
(1.27522 0.24536 3.96769e-20)
(1.26967 0.243735 1.72182e-20)
(1.27581 0.23639 6.19648e-20)
(0.99334 0.0151951 3.43044e-21)
(0.99392 0.0152732 -1.27315e-21)
(0.993601 0.0159959 0)
(1.05913 0.174673 1.05217e-20)
(1.05507 0.18097 -8.81948e-22)
(1.02318 0.02652 1.10871e-21)
(1.02199 0.0264054 1.19153e-21)
(0.0710832 0.0455558 6.51742e-20)
(0.117128 0.0511394 -5.05042e-20)
(0.98599 0.0361874 4.55682e-21)
(0.985207 0.0349659 -3.51692e-21)
(0.984525 0.0364794 1.58011e-21)
(-0.0903959 0.0130247 0)
(-0.105742 0.0112524 -3.60426e-20)
(-0.120223 0.0111095 0)
(0.175777 -0.00168913 -3.92595e-21)
(0.202387 -0.00951953 6.83818e-21)
(0.194149 -0.00482203 -1.35384e-20)
(0.557448 -0.00146412 4.59913e-20)
(0.537492 -0.0042507 -2.10588e-20)
(0.547915 0.016345 9.08199e-20)
(1.02078 0.0290668 0)
(1.0207 0.0278054 0)
(0.999994 0.000545224 -5.38984e-22)
(0.999967 0.000733231 -1.96293e-21)
(1.06067 -0.0288589 4.124e-21)
(1.05949 -0.0299349 3.73584e-22)
(1.03109 0.0892787 -1.73081e-21)
(1.03159 0.0921705 -5.25762e-21)
(1.03438 0.0900071 -1.69611e-21)
(-0.0720578 0.013548 6.64711e-20)
(-0.0528786 0.0126409 0)
(1.01583 0.0553845 2.24056e-22)
(1.01527 0.0569477 -4.78112e-22)
(1.01735 0.0566367 2.69975e-22)
(0.999397 0.00438796 1.72061e-21)
(0.999477 0.00437603 0)
(0.999462 0.00415256 -3.80152e-21)
(1.00021 0.00547323 1.01407e-21)
(1.00024 0.00526061 6.36454e-21)
(1.1504 0.312398 0)
(1.15643 0.319957 0)
(1.16119 0.309502 0)
(1.2491 -0.108724 -2.70159e-21)
(1.24772 -0.110991 3.6795e-21)
(1.2459 -0.113442 1.63554e-20)
(-0.250777 0.01433 4.20754e-20)
(1.10286 0.0216591 7.39096e-21)
(1.10212 0.024439 -8.29906e-21)
(1.24573 0.0217862 1.72116e-20)
(1.24465 0.0260989 -2.74868e-20)
(1.24153 0.0237443 3.8027e-21)
(1.03535 -0.00691418 -2.51183e-21)
(1.03505 -0.00620853 -4.44047e-22)
(1.01247 0.0115051 6.17211e-24)
(1.01273 0.0112193 -2.97998e-23)
(1.01298 0.0116688 -2.75314e-23)
(0.98147 0.036731 -3.52785e-21)
(0.982357 0.0351941 -6.09609e-21)
(0.983017 0.0366569 -8.58716e-21)
(0.158358 0.00130348 -1.60129e-20)
(0.143266 0.00532716 -3.91765e-20)
(1.33283 0.101917 -1.30017e-20)
(1.3073 0.0955032 4.71063e-20)
(1.2813 0.0979208 -1.91937e-20)
(0.0612049 -0.0898356 5.60207e-20)
(0.0803426 -0.109068 -9.57605e-20)
(0.0598034 -0.121664 -1.18349e-21)
(1.11578 -0.0974819 3.59353e-20)
(1.11596 -0.0933986 1.64357e-20)
(1.01304 0.0984854 7.35155e-22)
(1.01672 0.100447 -2.05105e-22)
(1.05447 0.0159831 6.5291e-22)
(1.05299 0.0156562 -4.46367e-21)
(0.230692 0.779656 -1.71401e-21)
(0.180273 0.86147 -5.91323e-21)
(0.296898 0.847634 -2.52293e-20)
(1.08653 1.27482e-05 6.56831e-21)
(1.0886 0.000168987 -5.95495e-21)
(-0.00565678 -0.00660566 3.40286e-20)
(0.0132895 -0.0080938 4.76026e-20)
(0.990639 0.0348425 -4.32784e-22)
(0.989813 0.0355964 -4.56648e-21)
(0.991028 0.0360983 -1.24962e-21)
(-0.201395 0.0176276 -5.57264e-20)
(-0.216917 0.0175924 9.65329e-20)
(-0.188288 0.0185858 -4.21336e-20)
(0.969762 -0.173942 -1.97064e-20)
(0.950742 -0.169145 0)
(1.00592 -0.183946 -5.6423e-21)
(1.15931 -0.022894 2.94834e-21)
(1.16251 -0.024782 -1.03363e-20)
(0.999878 0.0284149 0)
(0.999174 0.0287822 -2.41353e-21)
(0.999255 0.0278016 0)
(1.00592 0.000464741 7.6786e-23)
(1.00621 0.000470326 0)
(1.00546 0.000246252 6.85215e-22)
(1.09165 0.0803364 -1.05445e-21)
(1.09176 0.0766438 1.69063e-20)
(1.16787 0.0995779 1.00822e-20)
(1.17219 0.0984534 1.75923e-21)
(1.1714 0.103056 0)
(0.300327 0.123133 -1.81139e-19)
(0.383326 0.139655 -9.22308e-20)
(1.1406 -0.00965477 -7.5479e-22)
(1.1407 -0.00672098 5.60855e-21)
(1.00821 0.00619628 2.60948e-22)
(1.00805 0.00637201 1.0795e-22)
(1.00842 0.00653446 -2.40165e-22)
(1.01286 0.01015 2.25348e-22)
(1.01245 0.0100615 -2.34051e-23)
(1.01262 0.00977038 7.93128e-23)
(0.999978 0.000721836 0)
(0.999985 0.000586211 1.22089e-21)
(0.99997 0.000835694 1.49833e-21)
(1.24667 0.0185128 4.74118e-22)
(1.24797 0.0152418 -6.17801e-20)
(1.08798 0.259433 1.77994e-20)
(1.08964 0.26548 2.8649e-21)
(1.08147 0.262724 8.91833e-21)
(0.596806 -0.0336262 -5.62759e-21)
(0.576631 -0.0387534 2.89085e-20)
(0.590842 -0.0541847 3.23099e-20)
(0.982535 0.0525423 3.72168e-21)
(0.982677 0.0546012 -8.91718e-22)
(0.984508 0.0532356 1.06563e-21)
(0.123188 0.081698 0)
(0.124483 0.0716532 6.50865e-21)
(0.0977476 0.0890856 1.17795e-20)
(1.22577 -0.0634357 -5.92329e-22)
(1.22533 -0.0671649 -4.33139e-20)
(1.18677 -0.0354049 2.01488e-20)
(1.18405 -0.0378643 -3.10343e-21)
(1.03827 0.0278634 -3.11106e-21)
(1.03813 0.0267656 6.54072e-23)
(1.0394 0.0273196 -1.45961e-22)
(1.27293 0.00502945 7.34274e-21)
(1.30161 0.00623036 4.45056e-20)
(1.01674 0.0201767 2.63117e-22)
(1.01725 0.0198259 2.24459e-22)
(0.996119 0.00958798 -5.93011e-21)
(0.995772 0.00973286 -5.3315e-21)
(0.996114 0.0100337 7.12194e-21)
(1.05361 0.834711 0)
(1.04576 0.786102 -1.11159e-20)
(1.10103 0.808112 0)
(1.00851 0.000645307 6.20803e-23)
(1.00878 0.000819213 -1.95231e-22)
(1.00856 0.000511866 -1.11428e-22)
(1.00425 0.00759909 -6.00423e-22)
(1.00402 0.00740053 7.94656e-22)
(1.19089 -0.029978 1.12567e-20)
(1.18846 -0.0322116 -4.57569e-21)
(1.19176 -0.0345737 -2.68872e-20)
(1.00322 0.0156388 -2.17349e-22)
(1.00303 0.0160167 5.0081e-22)
(1.00349 0.0162015 3.10097e-21)
(-0.0253371 0.159948 0)
(-0.0187081 0.163746 0)
(-0.0184525 0.155858 0)
(1.0866 -0.00188636 -2.24373e-21)
(1.08475 -0.000264824 3.11988e-21)
(0.928267 0.0165857 8.51563e-21)
(0.925617 0.0180788 -4.14691e-21)
(0.926158 0.0145903 6.94759e-21)
(1.00816 0.000426786 3.50551e-24)
(1.00833 0.000862572 2.9576e-22)
(1.12222 0.0924219 -4.46501e-21)
(1.12676 0.0933119 1.56763e-21)
(-0.208234 0.00443501 -6.60734e-20)
(-0.234395 0.00553618 -1.69315e-20)
(-0.225567 0.00499793 0)
(1.05055 -0.0102458 5.97313e-21)
(1.01439 0.00442755 3.4193e-22)
(1.01433 0.00472505 6.81429e-22)
(0.989606 -0.000196536 -2.67026e-21)
(0.989096 6.88514e-05 1.42335e-20)
(0.989699 0.000326367 6.10209e-21)
(1.19019 -0.0699513 -5.78112e-21)
(1.18994 -0.0666353 9.45102e-22)
(1.18685 -0.0689445 1.46107e-20)
(0.154871 -0.0274467 1.09101e-21)
(0.150501 -0.0278701 2.18094e-20)
(0.126977 -0.0218224 -1.23845e-20)
(0.999998 0.000662151 4.05435e-22)
(0.999979 0.00094556 0)
(1.00002 6.09251e-05 -2.54443e-22)
(1.00001 3.74653e-05 -3.76183e-24)
(1.00002 4.35891e-05 -2.28383e-22)
(1.03822 -0.186691 1.66229e-20)
(1.0262 -0.184427 -4.83955e-21)
(1.10673 0.139511 -3.77948e-21)
(1.10866 0.135264 -1.57908e-20)
(1.11159 0.139624 6.32835e-21)
(1.11378 -0.10012 -1.18553e-20)
(1.11139 -0.103011 -2.65616e-20)
(1.11553 -0.102637 -1.00549e-20)
(0.634104 0.383025 0)
(0.653201 0.403128 -1.58635e-20)
(0.620608 0.407606 0)
(0.996135 0.0091367 -3.68873e-21)
(0.996441 0.00944446 -9.50322e-22)
(1.16514 0.0963033 -8.63383e-21)
(0.963653 0.0278543 9.0616e-21)
(0.96527 0.0288134 4.81359e-22)
(0.963479 0.0301869 8.28773e-21)
(1.00002 8.28544e-05 -1.70907e-21)
(1.00004 8.60797e-05 -2.95277e-22)
(0.650218 0.359077 1.45879e-20)
(0.619914 0.359366 0)
(1.15757 -0.155035 2.57576e-20)
(1.1553 -0.158956 -1.51648e-20)
(1.13358 -0.192435 1.51814e-20)
(1.13433 -0.188954 -8.66516e-21)
(1.12941 -0.190031 -4.2434e-21)
(1.19061 -0.0725526 1.76866e-20)
(1.19357 -0.0705137 0)
(1.01801 0.00110117 1.66457e-23)
(1.01829 0.00113598 -4.43721e-22)
(0.645249 -0.102917 -3.47822e-20)
(0.642403 -0.120296 -4.53848e-20)
(1.04008 -0.0103597 2.01103e-21)
(1.03937 -0.00965842 4.57573e-21)
(1.00345 0.0355948 -2.91111e-21)
(1.00421 0.0346315 -8.60062e-22)
(1.34796 0.112531 0)
(1.35067 0.108686 1.06881e-20)
(1.0007 0.0214909 2.16942e-21)
(1.00015 0.0211893 1.95355e-21)
(1.00062 0.020676 -2.06765e-21)
(1.24984 0.0206232 0)
(0.927873 0.304589 9.03659e-21)
(0.921482 0.318016 3.42178e-21)
(1.00005 0.00577112 2.07329e-22)
(0.99995 0.00582926 0)
(1.01648 0.00303955 -1.64767e-21)
(1.01643 0.00283492 -2.62618e-21)
(1.01672 0.00294211 -1.11963e-21)
(1.24394 0.0292773 -4.83432e-21)
(1.24749 0.0273862 7.88859e-21)
(0.0941857 0.033961 2.40446e-20)
(0.0305126 0.0380713 -3.33223e-21)
(0.119853 0.0207682 7.90976e-21)
(-0.0204209 0.00311937 -3.64312e-20)
(-0.00414403 0.0051946 8.33288e-21)
(1.01906 0.039747 7.28406e-22)
(1.01833 0.040756 -3.87493e-22)
(1.01797 0.0393907 -3.65908e-22)
(0.915725 0.0912329 -2.17043e-21)
(0.911875 0.0864882 -1.43678e-21)
(-0.0802639 0.00288064 -2.07096e-20)
(-0.106398 0.00650545 -2.76655e-20)
(1.02847 0.00107032 3.77925e-21)
(1.02889 0.00135493 1.67312e-21)
(1.02827 0.00143152 1.69813e-21)
(1.24756 -0.105664 -1.05957e-20)
(1.25181 -0.106035 2.22385e-20)
(1.05546 -0.0329213 -5.41204e-21)
(1.05692 -0.0320094 -1.27483e-21)
(1.0551 -0.0313854 -1.69723e-21)
(0.964063 0.146368 -5.23749e-21)
(0.958251 0.145148 0)
(0.962247 0.140668 -7.44093e-21)
(1.24546 -0.100939 -1.77623e-20)
(1.23842 -0.103218 -1.35281e-20)
(1.01787 0.00123249 -1.58131e-21)
(1.01772 0.00104242 -9.20012e-22)
(0.52628 0.761391 5.29239e-21)
(0.455421 0.749893 1.02827e-20)
(1.00208 0.0340833 8.89046e-22)
(1.00278 0.0333573 -1.97428e-21)
(1.00181 0.0329933 -6.32748e-21)
(0.904221 0.199212 -9.67284e-21)
(0.913773 0.202208 8.28072e-21)
(1.00116 0.000308566 -1.01969e-21)
(1.00105 0.000247459 0)
(1.00105 0.000391477 1.16464e-21)
(1.11199 -0.0978711 1.58828e-20)
(-0.21073 0.00844304 -6.38342e-21)
(-0.233015 0.0086201 -1.42921e-19)
(-0.211955 0.00851128 -6.77381e-20)
(0.99996 7.42426e-05 -1.25187e-21)
(0.999952 5.82642e-05 1.10346e-22)
(0.999929 0.000111856 -1.48229e-22)
(0.0972718 0.102174 3.35891e-20)
(0.187328 0.128508 -5.53379e-20)
(1.1164 0.025745 4.43652e-21)
(1.11722 0.0231992 1.42148e-20)
(1.11962 0.0256062 -2.38385e-20)
(0.99535 0.0029905 -5.56466e-21)
(0.995053 0.00292276 0)
(0.995155 0.00327805 -5.64124e-24)
(1.14219 0.0762143 0)
(1.14392 0.0804158 0)
(1.15467 -0.0341526 -1.03882e-20)
(1.15103 -0.0348326 8.03865e-21)
(1.08243 -0.0817409 -2.97638e-20)
(1.05477 -0.0795787 -2.94109e-20)
(1.13004 -0.081927 9.74652e-21)
(0.304693 -0.0530869 1.28095e-21)
(0.332785 -0.055766 3.89081e-21)
(0.351156 -0.0579271 -2.09997e-20)
(1.14964 -0.096393 0)
(1.171 -0.099671 0)
(0.991484 0.0342807 4.85897e-21)
(0.990374 0.0337702 4.88278e-21)
(1.01628 0.00875912 -2.46208e-23)
(1.01592 0.00883238 0)
(0.0765657 -0.0166203 8.90696e-21)
(0.0440154 -0.011691 3.04348e-20)
(0.0583047 -0.0159397 -1.4597e-20)
(0.705174 -0.0700565 -2.26282e-20)
(0.691477 -0.0717427 8.76531e-21)
(0.702404 -0.0836535 -1.66572e-20)
(0.999718 0.00532588 -2.6092e-21)
(0.999767 0.00509087 -1.81978e-22)
(0.999693 0.0051279 -5.5339e-21)
(1.01329 0.0532952 7.96608e-23)
(1.0136 0.0519363 -1.71239e-23)
(1.0119 0.0521917 3.87666e-22)
(1.13923 -0.194898 -2.13639e-21)
(1.13358 -0.195258 1.46738e-20)
(1.17474 -0.144015 -2.63238e-20)
(1.17689 -0.145343 -2.73663e-20)
(0.235458 0.691454 -3.76011e-20)
(0.312899 0.721289 1.87366e-20)
(0.0961103 -0.0182428 -3.01984e-20)
(0.113451 -0.0197724 -4.2613e-21)