/*--------------------------------*- C++ -*----------------------------------*\
| =========                 |                                                 |
| \\      /  F ield         | OpenFOAM: The Open Source CFD Toolbox           |
|  \\    /   O peration     | Version:  v2012                                 |
|   \\  /    A nd           | Website:  www.openfoam.com                      |
|    \\/     M anipulation  |                                                 |
\*---------------------------------------------------------------------------*/
FoamFile
{
    version     2.0;
    format      ascii;
    class       volVectorField;
    location    "550";
    object      ddt0(U);
}
// * * * * * * * * * * * * * * * * * * * * * * * * * * * * * * * * * * * * * //

dimensions      [0 1 -2 0 0 0 0];


internalField   nonuniform List<vector> 
18355
(
(0.000301029 -0.000890177 -1.03574e-17)
(0.00763427 0.010852 -2.07485e-17)
(-3.2882e-05 5.52437e-05 5.84158e-18)
(-0.000245749 -7.41535e-05 5.46487e-19)
(6.95906e-05 -0.000299952 -9.63021e-20)
(0.00274966 0.014955 -7.53044e-18)
(-0.000120524 -7.86967e-05 3.93142e-19)
(-0.00371496 -0.000380213 1.21124e-17)
(-2.66447e-05 0.000750377 1.41184e-18)
(0.0505818 0.00512744 -3.78613e-17)
(-0.000285893 5.50133e-05 -6.23833e-19)
(-0.0337148 -0.00160134 -2.03958e-17)
(-0.00723505 -0.0033702 3.511e-18)
(5.36745e-07 -0.000236646 -1.89026e-18)
(0.000145274 3.73689e-05 2.31018e-18)
(0.000279066 0.000499833 -5.19848e-19)
(-0.00579443 0.0013546 -3.82008e-17)
(-0.000159069 6.47962e-05 -5.99824e-19)
(9.46467e-05 0.000409163 8.26827e-20)
(-0.111833 0.0880548 2.97491e-17)
(0.000325555 0.000549555 1.14149e-17)
(9.81357e-05 0.000541791 -7.82772e-18)
(0.0381905 -0.0127156 -6.02413e-18)
(5.50922e-05 -0.00031053 -1.50518e-18)
(0.000868852 -0.00142926 -2.63572e-18)
(-8.63097e-05 0.000251231 -1.29903e-18)
(-3.78269e-06 0.000562862 -5.38832e-18)
(-3.30263e-05 0.000551532 8.3195e-18)
(-0.0112196 0.0307721 2.05479e-17)
(1.26167e-05 6.30203e-05 5.22889e-18)
(-0.000232746 -0.000164275 -7.84668e-18)
(0.000384393 -0.000499194 -4.46322e-18)
(-0.000160656 6.48283e-05 -5.94843e-19)
(-0.000453677 6.82402e-06 -6.12765e-19)
(0.00161748 -0.00159153 1.80907e-18)
(0.00027585 -0.000945755 1.80687e-17)
(-1.62513e-05 0.000606273 1.28393e-17)
(0.00415311 0.00198244 -5.7077e-17)
(-4.26226e-05 0.000749445 -6.84949e-18)
(-0.000297938 3.55039e-05 2.46722e-18)
(6.91087e-06 -0.000246665 3.08836e-18)
(0.000166972 0.00139105 -2.06037e-18)
(-4.07255e-05 8.67979e-05 -4.40711e-18)
(0.0623632 0.00187729 7.75855e-18)
(-0.000564424 3.86948e-06 2.36753e-22)
(0.00447027 0.00211315 5.65956e-17)
(-0.000509529 -0.00211007 2.18075e-18)
(8.13872e-05 0.000746373 -7.87476e-18)
(-0.000151359 -0.00168097 5.38602e-18)
(-0.000124773 0.000116994 -1.60965e-19)
(-0.000346702 -6.74838e-05 -1.8056e-18)
(1.32886e-05 0.000231273 -8.95897e-19)
(-1.23973e-05 -0.000118335 3.1007e-18)
(0.016895 0.0262799 2.4553e-17)
(-9.19269e-05 0.000367846 -2.19112e-18)
(-0.00024093 9.68796e-06 -2.17547e-19)
(0.0357818 0.00824495 -1.19135e-18)
(0.000154622 4.66578e-05 2.56117e-18)
(-0.000137078 -0.000859763 -2.6674e-17)
(0.00487326 -0.00451989 3.96801e-17)
(-0.000116479 0.000134307 3.08351e-19)
(-0.00260933 0.00703037 -1.01065e-17)
(-0.000151238 -2.79052e-06 3.60384e-19)
(0.000943269 0.000536582 3.3361e-19)
(-0.0333148 -0.00203155 -2.75758e-17)
(0.000247356 -0.000848744 1.48106e-19)
(-0.0118978 0.0113592 -7.02171e-18)
(5.3307e-05 0.000613575 1.57256e-18)
(-1.18801e-06 0.00056579 1.02283e-17)
(9.64442e-05 0.000547021 3.88002e-18)
(0.000873469 -0.00283938 3.68047e-18)
(-6.3384e-05 -3.94822e-05 3.22296e-19)
(0.00539091 -0.0044628 -4.66613e-17)
(-0.00017166 0.000144019 1.84235e-19)
(-0.00323884 -0.000659169 3.67177e-17)
(-0.000122231 -9.35694e-05 -4.67659e-19)
(-0.0195866 0.037568 -4.3751e-18)
(0.000403014 -0.000385512 1.6358e-18)
(0.00233275 -0.00127394 1.71554e-17)
(-2.52081e-05 0.000219666 -2.44483e-19)
(-0.000111904 -5.07125e-05 -5.07644e-19)
(0.00369309 0.00553396 2.39772e-17)
(0.000299947 0.000534381 -1.21866e-17)
(0.00137864 0.000180768 8.63823e-18)
(-7.77846e-05 0.000290892 -8.73016e-19)
(-0.00682584 -0.00311469 8.69994e-18)
(-0.106376 0.0350983 -3.19496e-18)
(-0.113875 0.091819 7.2189e-18)
(-0.00827653 0.0244344 -1.8737e-17)
(0.0335207 0.0119715 9.19561e-18)
(-0.0349858 0.0281676 4.15558e-17)
(-0.000582557 3.67769e-06 -1.52617e-18)
(-7.72857e-05 0.000363603 -6.42293e-19)
(-0.000381392 4.8033e-05 1.90326e-19)
(-0.00140257 -0.0245185 3.43247e-17)
(0.0397648 -0.0121957 7.2215e-18)
(-1.97948e-05 -0.000219436 -1.48786e-18)
(0.000969896 0.000278756 7.08043e-18)
(0.0210113 0.0243499 -2.29224e-17)
(-0.000603254 0.000320168 -1.07117e-16)
(-0.000379587 -0.0131883 7.72381e-18)
(-0.0013808 0.000532946 4.8868e-17)
(0.00129157 -0.000739406 -1.53061e-17)
(0.00668941 0.0371935 -5.58966e-18)
(-1.55556e-05 -0.000499108 -5.89406e-18)
(-0.0107494 0.0103656 6.52369e-18)
(-0.0359747 -0.000210891 2.91665e-18)
(0.00239737 0.00238392 2.41379e-17)
(-0.000323521 0.000392174 1.85143e-17)
(0.000548957 -9.49382e-05 -1.02206e-16)
(-9.96741e-06 3.2101e-05 1.7812e-19)
(1.79775e-05 0.000686142 -4.68269e-18)
(-5.37491e-05 0.000258658 1.59636e-18)
(2.90052e-05 0.000694807 4.45473e-18)
(-0.00704639 0.0317554 3.21585e-17)
(-0.000246341 1.33323e-05 -1.78219e-19)
(0.000297984 -0.000402046 -9.00952e-17)
(-0.0214332 0.0394014 8.18919e-18)
(-0.00011264 -0.000846536 -6.05033e-17)
(0.00130527 -0.000618248 2.02752e-17)
(0.052264 0.00678005 3.05678e-17)
(0.0176158 -0.0139072 2.32691e-17)
(0.000360283 -0.000403843 1.38395e-19)
(0.00102689 -0.00280717 -1.37655e-17)
(-1.02328e-05 -0.000189458 3.6319e-18)
(0.0022844 0.00259234 4.72528e-18)
(-2.16466e-06 0.000217587 3.29503e-19)
(8.07842e-06 -0.00013106 -2.60305e-18)
(0.00707087 0.00433932 -2.73933e-17)
(-0.000380186 4.54274e-05 -3.36664e-19)
(-0.000345998 -8.35888e-05 2.01499e-18)
(0.0404081 -0.0075515 7.72339e-17)
(-0.00151714 0.00332841 -1.00529e-17)
(0.000998964 0.000229991 -6.55484e-18)
(0.00026751 0.000722379 2.09747e-18)
(-3.56169e-05 -0.000139798 1.86439e-18)
(0.000107626 0.00010964 -1.5719e-18)
(-0.000288992 5.72807e-05 5.54398e-19)
(1.08087e-05 -0.000240368 -2.80373e-18)
(0.00323588 -0.00118754 -4.23872e-17)
(-0.000854582 -0.00733498 3.76232e-19)
(-0.00498548 0.0107317 5.74143e-17)
(0.000186328 0.000514954 1.11879e-18)
(-3.53607e-06 -1.37263e-06 1.77657e-18)
(-0.000178243 -0.000105626 -5.23142e-18)
(6.79952e-05 0.000498719 -1.09112e-18)
(-3.35018e-05 0.000787136 -1.76729e-17)
(-0.127335 0.0396879 -3.06034e-19)
(0.000406114 -7.77625e-05 -6.17372e-18)
(-0.118927 0.0394916 -1.29872e-19)
(6.79777e-05 -0.000216097 -1.79992e-18)
(7.21549e-05 0.000540463 1.7097e-17)
(0.00150552 -0.00153826 -6.15623e-18)
(-8.53222e-05 -0.000805638 1.14289e-18)
(0.0152628 0.0123286 -1.99809e-17)
(-3.54932e-05 -5.17068e-05 3.8156e-18)
(0.0347236 -0.00520413 -1.55962e-17)
(-1.49477e-05 -0.000627584 3.13496e-17)
(-3.70785e-05 -5.20315e-05 2.3377e-19)
(-0.00396804 0.00700669 -5.30913e-17)
(0.000499389 0.000141867 5.65309e-19)
(0.000286681 -0.000325666 -3.34734e-18)
(0.000183883 0.000648164 -2.14783e-17)
(0.00109617 0.000254284 -1.5473e-17)
(0.0357131 0.0400254 1.78123e-17)
(-0.00180125 -0.000657445 -1.91063e-17)
(-0.0145372 0.0063159 -8.77565e-18)
(0.000270914 -0.00151944 2.56713e-18)
(-0.0121633 -0.0114048 -1.15852e-17)
(-0.000149962 0.000158611 -8.57993e-19)
(-0.0157376 0.141737 7.63653e-18)
(0.0404468 -0.012512 5.57884e-18)
(-0.000306459 2.51097e-05 -5.09003e-19)
(-0.000319771 4.29329e-05 -3.25731e-18)
(0.000280444 0.000471241 1.23473e-18)
(-0.0334099 0.0103042 1.51439e-18)
(0.0160312 6.34894e-05 -7.06297e-18)
(-7.36006e-05 0.000349237 -9.29218e-20)
(0.0133481 0.00369918 1.1964e-17)
(-0.0170369 -0.0042398 2.84466e-17)
(0.000108841 0.00028458 -2.05263e-17)
(-0.0131222 -0.0110595 -4.73725e-18)
(0.000589195 0.000635166 8.28831e-18)
(-0.000192084 -0.00012634 -4.59433e-19)
(0.0170751 0.0504392 2.57373e-17)
(-0.0441409 0.0123063 -3.18334e-19)
(0.0389042 -0.00062566 2.73617e-17)
(-0.0252866 0.0197696 -2.13786e-17)
(-6.40165e-05 0.000532681 -1.46896e-17)
(-0.00620785 0.000990478 3.19113e-17)
(0.0353758 0.00668108 8.84249e-18)
(-1.30617e-05 0.000159815 1.0526e-18)
(0.00114222 0.000192335 1.43675e-17)
(-0.00405718 0.0408858 -4.26559e-18)
(0.00017689 0.000781318 2.54004e-17)
(0.000123582 0.000559183 6.99169e-18)
(-0.000387305 -0.0281802 -5.52916e-17)
(0.000681954 0.000613869 -4.00025e-18)
(0.000331286 0.00279796 1.00141e-17)
(-0.000272813 2.36231e-05 3.21259e-18)
(0.000268676 -0.000270754 5.12228e-18)
(0.00010252 0.000769876 -1.4801e-17)
(-0.0116271 0.000586307 -5.88513e-17)
(0.0425225 -0.00120462 -1.10273e-17)
(-0.0222613 -0.00116507 -2.65826e-17)
(0.000495731 0.000277435 9.54002e-19)
(0.000187897 -0.000604086 5.75194e-17)
(-0.0233682 0.00524566 3.82667e-17)
(-0.0244106 -0.0038615 4.32572e-17)
(0.000585506 0.00280677 -2.70991e-17)
(9.78264e-05 0.000136097 2.09893e-19)
(6.0801e-05 -0.000214812 1.02974e-18)
(-0.113437 0.0956444 -4.87766e-17)
(0.000158497 0.000517277 -6.78986e-19)
(-0.000153792 0.000144266 3.79849e-19)
(0.00413564 0.00539479 -3.74324e-17)
(-0.0656466 0.0886738 -3.46587e-17)
(-0.11258 0.0914145 -1.50512e-17)
(-1.19761e-05 0.000204742 4.82945e-18)
(0.000402695 -0.000117523 -1.52306e-18)
(0.00898102 0.00276995 -5.03611e-17)
(-2.35702e-05 -0.000248304 -3.86094e-18)
(0.00129251 0.000168651 -2.76559e-18)
(8.17357e-05 0.00010338 -1.12678e-18)
(-0.0114278 0.00615898 6.48344e-17)
(0.000106588 0.000497195 -1.17515e-19)
(-0.0190801 0.00813989 -4.26263e-17)
(-0.0707041 0.0156258 -4.4503e-18)
(-0.000104166 0.000181231 7.53454e-17)
(0.000104078 0.000175138 1.24189e-19)
(-2.0333e-05 -0.00014133 -1.29115e-18)
(0.00209667 -0.00131308 -7.07002e-18)
(0.000458275 -8.60721e-05 -6.01544e-19)
(-0.0171757 0.00898101 -1.13383e-17)
(0.000268123 0.000246527 6.64122e-21)
(-8.85237e-05 0.000282619 9.30977e-19)
(-0.000100683 0.000339565 -2.162e-19)
(0.00293771 0.0029682 2.0286e-17)
(-0.0288398 0.0577249 1.17268e-17)
(-0.0152979 -0.000524442 2.67822e-17)
(-0.000220482 0.000385384 -1.82024e-17)
(-0.0101529 -0.0124723 1.329e-17)
(-0.000272927 -0.000218178 1.60625e-18)
(-0.000149457 0.000164493 3.76198e-19)
(0.000114894 0.000492024 1.53402e-18)
(-0.0682517 0.0102244 1.53836e-17)
(0.019942 -0.0127644 2.38845e-18)
(-0.000371143 -0.000228737 -7.73854e-17)
(0.0159299 0.0113268 2.05508e-17)
(0.000485716 0.000136084 -4.46907e-20)
(0.000262527 -0.000273201 -2.02756e-18)
(-0.000803709 -0.00194405 -2.71877e-17)
(0.000743843 0.000736703 -4.10175e-18)
(-0.0216361 -0.00321961 7.31967e-17)
(7.59848e-05 0.000462348 1.30633e-18)
(-0.0146618 0.00504002 2.85911e-17)
(-0.0942397 0.0991198 -9.62102e-18)
(-0.00431433 0.00642979 2.47788e-17)
(2.77696e-05 0.000232109 -1.29298e-18)
(-0.000377026 -3.46371e-06 -2.80657e-20)
(0.000268356 -0.000784005 1.87626e-17)
(0.000845411 -0.00325176 1.19325e-17)
(-0.0156267 -0.000492916 6.51974e-17)
(-0.00185247 0.00338783 7.99317e-18)
(-0.000261436 3.89444e-06 1.22527e-20)
(-0.000186929 0.000141901 2.00237e-19)
(-4.19791e-05 -0.000136877 3.76617e-19)
(-0.0122272 -0.0128692 4.76663e-17)
(0.00196983 0.00135465 8.58466e-18)
(-3.75996e-05 0.000143936 -1.45507e-17)
(0.000177171 0.000596331 3.34881e-18)
(-0.0463435 0.0505928 2.64389e-18)
(-0.0271068 0.019771 -4.21857e-17)
(-0.0100465 0.00957581 3.42816e-18)
(0.000154527 -0.000305236 1.14376e-18)
(-0.000692023 -0.034987 1.88454e-18)
(-6.49565e-06 0.000210612 2.64166e-19)
(2.98889e-06 -1.72857e-05 3.37382e-18)
(-0.00610109 0.00132417 5.07301e-17)
(-0.000447634 5.07968e-06 -4.27342e-19)
(-9.92935e-05 -0.000106287 -1.67779e-19)
(-0.0111967 0.00790465 -1.32601e-17)
(-6.51292e-05 -0.000189619 -2.69766e-18)
(-0.00628813 -0.0181931 9.0685e-18)
(0.000825064 0.000709977 4.31345e-18)
(3.28889e-05 0.000765367 -1.63561e-17)
(-0.00044657 5.33423e-06 -7.62388e-21)
(0.000384502 -0.00153176 3.4144e-18)
(-0.0345681 -0.000342436 -1.02709e-17)
(0.000396091 -0.000459488 1.33767e-18)
(-0.000283957 -6.87885e-05 4.93897e-19)
(8.58794e-06 -0.000153656 5.53523e-18)
(-0.00991148 0.0206897 2.64582e-17)
(0.0274291 0.017507 -2.0102e-17)
(-1.0059e-05 -0.000142359 2.02812e-18)
(-2.86566e-05 -5.03811e-06 3.26528e-19)
(-0.0825118 0.0917633 -2.92034e-18)
(0.00138551 -0.000936894 -1.58013e-17)
(0.0188192 0.010476 1.69427e-17)
(-0.000908214 0.000306641 -1.3875e-18)
(8.95182e-07 2.76839e-05 8.90696e-20)
(0.000721975 -0.00313918 3.72583e-18)
(6.49586e-05 0.000632655 1.76403e-17)
(-4.99202e-05 -8.23115e-06 -5.73722e-19)
(-0.000769578 0.000266951 2.40899e-17)
(0.035352 0.0428889 -1.10041e-17)
(0.075946 0.0320048 -5.82201e-18)
(-0.0105786 0.0219774 -6.79149e-18)
(-0.000380461 3.18647e-05 -2.43167e-18)
(0.000139644 0.000289323 1.31968e-17)
(-0.000107012 -0.000469664 5.01894e-19)
(8.5698e-05 0.000415491 -1.34529e-19)
(0.0145931 -0.0171095 -7.16e-18)
(-2.36453e-05 -6.39158e-05 -1.96202e-18)
(-0.0112155 -0.0133853 1.31855e-17)
(0.000110329 0.00132582 -5.45119e-19)
(-7.50269e-05 0.000385568 -4.79403e-18)
(-0.0003483 -0.000123983 -4.29574e-19)
(-0.00911646 -0.0129405 7.96283e-18)
(-0.075661 0.0224327 3.65108e-17)
(-0.0207546 0.00645074 -4.75225e-17)
(0.000145496 0.000255829 -8.44673e-19)
(0.000171847 0.000639221 1.86179e-17)
(0.063804 0.00146966 1.37429e-17)
(-0.000255083 -3.71856e-05 -1.22813e-18)
(-0.0292248 0.0518309 -2.65111e-17)
(0.00190165 -0.00193381 -3.7426e-18)
(0.000457991 0.000509532 1.17717e-18)
(-0.0343684 0.0490362 1.01172e-17)
(-0.000411531 2.53849e-05 1.84033e-18)
(-0.00191447 -0.00101894 -3.0247e-17)
(6.8837e-05 0.000397284 -1.07503e-18)
(0.000244584 0.000737601 -1.03388e-17)
(-0.000220957 1.25078e-05 5.12273e-19)
(0.0171787 0.00989591 -8.85853e-18)
(-0.0305224 0.00296799 -3.42211e-17)
(4.78946e-06 -0.000164739 -4.28764e-20)
(-0.0114624 -0.00100462 -1.27489e-16)
(-0.000776172 0.000456705 1.60255e-17)
(-1.37042e-05 0.000409921 4.69759e-18)
(-0.000166151 -0.0020007 -9.21441e-18)
(-0.00254024 0.00774327 2.2596e-17)
(0.0162848 0.0206901 -3.30637e-17)
(0.00281713 0.0321705 1.13487e-17)
(-0.00346884 0.0443471 9.73192e-18)
(7.11308e-05 0.000412839 -2.70701e-18)
(-0.000179239 -6.32322e-06 -5.53642e-19)
(0.023677 -0.0190087 -1.05502e-17)
(9.93277e-05 0.000364377 8.10946e-17)
(-7.42578e-05 0.000360207 -4.8926e-19)
(0.000214315 0.000301505 -4.95865e-20)
(0.0830319 0.0328279 -2.2119e-17)
(0.019404 0.0504855 1.03061e-17)
(-0.00101136 -0.00135965 2.8263e-17)
(0.0238258 -0.020029 -7.68584e-18)
(-4.16426e-05 0.000528758 -8.40639e-18)
(0.00026258 -0.000209507 9.06998e-18)
(-1.59146e-05 -6.92206e-05 -7.27125e-17)
(-8.97459e-06 3.81991e-05 -2.23672e-18)
(0.000238608 0.000260339 -3.49355e-21)
(-0.0307896 0.0111219 -3.14871e-17)
(0.000972114 0.00311562 2.74437e-17)
(0.000738288 -0.000101375 -1.51622e-18)
(-0.0828836 0.0314873 -3.66194e-17)
(-1.51556e-05 -8.78195e-05 3.16508e-18)
(-3.23342e-05 0.000605237 2.09872e-17)
(0.00920958 0.00351584 3.41617e-17)
(-0.0219211 -0.000434812 5.00027e-18)
(-0.000305305 -7.4073e-05 -3.30434e-19)
(1.75689e-05 8.75386e-05 -1.39388e-18)
(-5.17957e-07 -0.000221778 4.48334e-19)
(-1.3659e-05 -9.65991e-05 6.64161e-19)
(-0.000174623 0.000823117 -7.41464e-18)
(-1.93558e-05 -0.000128928 2.6449e-19)
(0.000608824 -0.00123372 2.14339e-18)
(8.46319e-07 -0.000212117 -5.97244e-18)
(0.000353012 -0.000133324 -4.43811e-19)
(-3.55714e-05 0.000515933 7.97152e-18)
(-3.06102e-05 0.000747897 3.61396e-19)
(-7.59507e-05 -0.000309976 3.30948e-18)
(0.000105962 0.000393964 1.91494e-18)
(-6.16235e-05 -0.000331536 7.54646e-19)
(-4.6193e-05 -0.000336278 1.23069e-18)
(0.000274505 0.00041745 -3.10916e-18)
(-0.000211072 0.00020448 -4.05518e-17)
(-0.0315451 0.0212027 -2.16801e-17)
(8.14732e-05 5.35872e-05 1.85701e-19)
(0.00994022 0.0242136 2.7571e-17)
(0.000401643 0.000620665 4.45688e-18)
(-0.0306894 0.0324021 1.36699e-17)
(0.000534783 0.0015914 -1.38754e-17)
(-0.00229769 -0.0038293 -9.01163e-19)
(9.63155e-05 0.000563026 -2.73793e-18)
(0.0227672 0.0160974 -7.54716e-18)
(-1.73426e-05 0.00057436 3.75398e-18)
(-0.000238729 1.44699e-05 3.78279e-19)
(-8.43697e-05 0.000320109 4.85435e-19)
(-0.000281224 -0.000150289 2.24891e-18)
(0.00977286 0.0289746 -2.24072e-17)
(0.000210488 -0.000354353 9.08982e-19)
(-0.000526573 7.53428e-06 6.38442e-19)
(-0.00165826 0.000677842 7.68075e-18)
(0.000609436 -0.00116966 5.00041e-18)
(2.7786e-07 8.48372e-05 3.03054e-18)
(-0.000261628 -2.35661e-05 4.33889e-19)
(-0.0150358 0.00915497 -9.39422e-18)
(9.17848e-05 0.000527304 -1.10357e-17)
(-1.90312e-05 0.000229052 -1.25489e-19)
(0.000473925 -0.00138146 1.03058e-16)
(-6.82472e-05 -0.000204029 2.89871e-18)
(-0.000752509 -0.000435843 5.95328e-17)
(-0.00380253 0.000607446 -6.96792e-17)
(-0.0305175 0.0127249 5.76645e-17)
(-1.46808e-05 0.000779744 2.96544e-17)
(-6.46618e-05 -0.000515519 3.79574e-19)
(-0.0339929 -0.000558358 5.96074e-17)
(-6.51146e-05 -4.08908e-05 -4.14469e-19)
(-3.79554e-05 -0.000245588 9.00088e-19)
(-0.000562835 -0.00125188 -4.84768e-17)
(-5.15846e-05 -7.86012e-05 9.49643e-19)
(-0.000269985 2.27687e-05 1.07678e-18)
(-0.00691578 0.00118115 -7.30989e-17)
(-0.00016374 0.000151094 2.01677e-19)
(-0.0295848 0.0035385 3.79437e-17)
(0.00671405 0.00319746 9.26006e-18)
(0.0171164 0.00322885 1.51143e-18)
(-0.00364556 0.000861449 2.78041e-17)
(7.19691e-05 0.000563789 -9.84613e-18)
(-5.36271e-05 -0.000241168 -1.83228e-18)
(-0.0316165 0.0476526 2.38008e-19)
(0.00374062 0.0145931 1.85451e-17)
(-0.0167395 0.145729 1.15621e-17)
(0.0061888 0.0324088 -1.38274e-17)
(-6.1108e-06 -0.000164188 3.53914e-19)
(-0.000179535 -0.000123388 8.66471e-19)
(4.91662e-05 0.000492344 -1.53192e-17)
(-0.0761593 0.0861903 3.24635e-17)
(0.000468686 0.000737818 6.11155e-18)
(0.000128322 0.000423806 -7.53167e-20)
(-4.52348e-05 -5.15076e-05 7.86332e-19)
(0.000142073 0.000526648 -2.1908e-18)
(-4.22483e-05 0.000652537 -4.3182e-17)
(0.000157504 -0.00026771 1.13863e-16)
(0.000445503 0.000342076 8.21024e-19)
(5.78844e-05 0.000450287 2.73315e-18)
(-2.14441e-05 -0.00012085 -2.44021e-18)
(0.000508979 0.00142237 8.9085e-18)
(-0.0386362 0.033261 -1.71994e-17)
(0.0246888 0.0192503 2.16244e-17)
(-0.0154221 0.00531302 2.78647e-17)
(0.0478254 -0.0035329 -6.19716e-18)
(-1.34967e-05 0.000585654 2.77042e-17)
(2.89533e-05 0.000670029 -2.31852e-17)
(0.0615588 0.00256159 2.02005e-17)
(-5.71398e-05 -0.000177509 1.19864e-18)
(-0.00020771 -1.26467e-06 -3.5219e-19)
(1.9823e-05 -0.000142416 -3.68245e-19)
(7.97936e-05 5.03817e-05 3.45087e-20)
(-0.000133084 0.000743913 1.36109e-18)
(-2.43216e-06 0.00020029 1.09198e-18)
(-0.000527929 6.61282e-06 -1.57089e-18)
(-0.000422114 0.000201353 7.70994e-17)
(-6.37643e-05 0.000601378 1.44109e-17)
(-0.000308339 -0.00186417 -1.5588e-17)
(0.0286648 0.0139481 -1.15516e-17)
(-0.000116918 0.000566288 -2.29469e-17)
(-0.0419794 0.00866824 1.05328e-17)
(2.71966e-05 0.000327169 -3.57362e-19)
(-5.59862e-05 -0.000310993 -4.19323e-18)
(5.05421e-06 -5.77981e-05 -1.10315e-18)
(-0.000120754 -2.30512e-05 5.10027e-20)
(-2.92117e-05 -3.74447e-05 -3.67397e-19)
(1.83882e-05 -0.000104645 1.87235e-19)
(-4.5587e-06 6.47062e-05 -2.73539e-18)
(-0.00464256 0.0232893 1.77651e-17)
(0.000151847 0.000220109 6.03041e-19)
(-0.000360463 -3.64617e-05 -6.05755e-19)
(0.0146885 -0.013972 1.69423e-17)
(0.00431025 -0.00563767 1.55941e-17)
(-0.000178744 -2.35266e-05 7.71748e-19)
(0.000324519 -0.000277318 2.70816e-18)
(0.000270717 0.000984427 -8.70797e-18)
(-0.00691377 -0.00112861 3.76465e-17)
(0.000275802 0.000475424 1.62487e-18)
(-2.38014e-05 -0.000273225 -1.07632e-18)
(0.0141861 0.0226729 3.27961e-17)
(9.75176e-05 0.000766067 8.77734e-18)
(-0.0544933 0.0479251 6.8845e-18)
(0.00198441 -0.00215298 8.57943e-18)
(9.77785e-06 -8.80682e-05 7.53464e-19)
(0.00078791 0.000260836 -1.42769e-16)
(0.00409875 -0.00599252 -2.61053e-17)
(-0.000198014 5.41189e-05 -1.19438e-19)
(-0.0163507 -0.0023066 7.56587e-17)
(-0.00208236 -0.00209103 5.60207e-18)
(-0.0101457 0.00786544 -1.49895e-17)
(1.17031e-05 -5.42267e-05 -1.04318e-18)
(-4.59976e-05 -0.000272699 3.01293e-18)
(0.000435389 -5.06932e-05 2.65602e-18)
(-0.00670866 0.0225601 2.94909e-17)
(-2.31776e-05 0.000433343 -2.89045e-18)
(-0.0548516 0.0519308 -2.02505e-18)
(-0.0705381 0.086624 -2.60708e-17)
(0.0119306 0.026489 -4.22188e-17)
(0.017825 -0.00180364 8.64659e-17)
(-0.000290924 -0.000154375 -4.02538e-19)
(0.00697481 0.00270328 -1.40569e-18)
(-0.0295043 0.0197295 -2.15033e-17)
(0.0383244 -0.0133375 9.34213e-18)
(-0.0575629 0.0545195 -1.50488e-17)
(4.01858e-05 0.00034762 -1.75569e-18)
(0.000372589 0.000449383 -1.36109e-18)
(0.000472141 0.000202377 -8.77931e-20)
(0.0593174 -0.00131748 -5.53948e-17)
(-0.00125474 0.000418727 -3.16277e-17)
(-0.0403685 0.0274238 -4.73681e-17)
(0.00011273 0.000488706 -3.91079e-18)
(1.30751e-05 -0.000239457 1.55475e-18)
(-2.42528e-05 0.000429549 2.16573e-18)
(0.000490327 0.000776818 -8.8499e-18)
(-4.21496e-06 0.00011374 9.76116e-19)
(-0.0357581 0.0510436 1.96172e-17)
(0.000509536 0.000216853 1.89052e-18)
(-0.0121259 0.0356809 -1.51102e-17)
(3.04599e-06 -0.000148893 -3.17304e-18)
(0.000146491 0.000505552 1.42113e-18)
(-0.000365963 -6.46731e-06 1.88949e-19)
(5.52815e-05 0.000623546 -1.01954e-17)
(0.00072579 3.71482e-05 3.54941e-18)
(-0.0372306 0.0354733 -4.12104e-17)
(-5.88515e-05 -0.000227855 -9.82194e-19)
(-0.00692401 0.0145668 -3.6942e-17)
(-0.00157993 0.00417585 3.60516e-17)
(0.00312987 9.93022e-05 7.57304e-18)
(2.33802e-05 0.000241667 2.13394e-18)
(9.56363e-05 0.000736311 -2.46655e-18)
(0.00371291 -0.000965461 3.21194e-17)
(-3.63783e-05 -8.75876e-05 -6.11867e-19)
(-0.000318729 -0.000310774 4.58623e-18)
(0.000674052 0.00312643 -5.12196e-18)
(0.00287358 0.00015574 -8.43676e-18)
(0.00575769 -0.0028572 -3.39613e-18)
(0.000225434 0.000296194 1.19288e-19)
(-0.000204857 4.70575e-05 -3.74466e-19)
(2.00983e-05 -9.64419e-05 -2.64499e-18)
(9.5579e-06 -0.000129704 -7.48633e-19)
(0.000412925 -0.00138295 1.13656e-18)
(0.000766159 -0.00013999 4.30429e-18)
(-0.00318469 0.00675833 -2.24684e-18)
(1.44203e-05 0.000321133 2.98087e-19)
(2.63004e-05 -0.000333453 7.57589e-19)
(0.115628 0.117675 -6.18333e-18)
(-0.000389701 2.42666e-06 -6.61286e-19)
(-2.57581e-05 0.000608685 -6.63699e-18)
(5.84042e-05 0.000585327 3.01451e-18)
(0.00496254 0.000691944 1.94475e-18)
(1.80999e-05 0.000757104 5.14325e-18)
(0.0143419 0.0272195 1.55021e-17)
(0.000165746 -0.000361657 -5.29245e-18)
(0.0467357 0.000195069 -3.98569e-17)
(9.64868e-05 0.00071738 -2.36133e-17)
(5.32616e-05 0.000731822 -7.4537e-18)
(-0.0979501 0.0995322 2.28564e-17)
(0.0805811 0.128785 -3.95896e-18)
(0.0162286 -0.00379599 3.27839e-17)
(0.00318859 -0.000198041 -1.38404e-17)
(0.000197182 -0.000354001 -4.39583e-18)
(2.91717e-05 -4.3584e-05 -6.70622e-19)
(-7.94323e-06 -0.000260794 7.12377e-18)
(0.0175557 0.0221014 -9.7241e-18)
(0.000200366 -0.00189354 -1.41805e-17)
(0.000499546 0.000472818 -2.44092e-18)
(0.00163028 0.00142401 6.43846e-18)
(-0.00433614 0.014868 -4.17311e-17)
(0.0435595 0.0354846 3.79476e-17)
(-0.000352686 -7.18684e-06 -6.39773e-19)
(-0.0161877 0.00533332 7.06313e-17)
(0.0576952 -0.0109273 4.29915e-17)
(0.000334863 -0.000319837 2.09364e-18)
(4.36778e-05 -0.00025667 -1.38614e-17)
(-2.44698e-05 0.000585181 -4.07839e-18)
(0.0381418 0.0111733 2.03818e-17)
(0.000335352 -0.000785465 -4.44478e-18)
(-8.30091e-05 -0.000112773 -7.7879e-18)
(-6.69454e-05 0.000397685 1.14496e-16)
(0.00535791 -0.00271909 -3.72616e-18)
(0.00180468 -0.00153047 -3.37551e-17)
(6.65165e-05 0.000633854 -1.62007e-17)
(-0.00265146 -0.000648204 5.86384e-19)
(0.000841771 0.000264376 -4.33489e-20)
(-0.0101027 0.00602252 -1.80892e-17)
(0.0220589 0.00513762 -1.59502e-17)
(-0.0359618 0.0458783 -3.3417e-17)
(0.0170055 -0.0174816 4.22171e-17)
(-6.68384e-05 0.00070886 5.94889e-18)
(0.0027562 0.002747 -2.75553e-17)
(0.000451972 0.00049668 -1.83934e-17)
(-0.000232957 1.47401e-05 -1.91115e-19)
(0.000358844 -0.000336547 -5.99107e-18)
(-1.13651e-05 2.80013e-05 -2.6883e-18)
(-0.000111651 -0.000133345 4.49248e-17)
(0.000454013 -5.37657e-05 -5.20068e-17)
(-0.0330072 0.0134657 4.15998e-18)
(-0.00020714 0.00013916 4.5368e-17)
(-0.0330488 -0.00231402 -2.7879e-18)
(-0.0167816 -0.0699448 -3.98468e-17)
(2.92047e-06 0.000432961 -8.00083e-17)
(0.000280933 0.000492983 -6.49106e-18)
(-0.00920794 0.00899478 2.14811e-17)
(0.00330281 0.00339738 -5.53766e-17)
(-0.000298326 4.59615e-05 2.8364e-19)
(-0.00012737 8.23105e-05 2.57134e-17)
(-0.00785515 -0.00630321 -8.36759e-18)
(0.0638017 -0.0344975 -1.96901e-17)
(0.000454456 0.000318901 1.02117e-18)
(-0.000311078 -0.000130082 -8.15575e-19)
(0.000810794 0.000236262 6.04319e-18)
(0.00128135 0.000125532 3.40865e-18)
(0.00364439 -0.00124246 -1.88275e-17)
(-0.00703466 -0.00111998 4.00115e-18)
(-2.91376e-05 -2.60732e-05 1.14991e-18)
(0.0431181 0.000565162 -1.85132e-18)
(0.000273982 0.000434503 3.16908e-18)
(0.000279909 0.000555221 -4.58636e-18)
(0.0588081 -0.00132341 3.11728e-17)
(-8.05928e-06 0.000289035 -1.05919e-19)
(0.00074198 7.48519e-05 -6.66918e-19)
(-0.067027 0.0599907 1.58222e-17)
(-5.50504e-05 -0.00024862 -3.70865e-18)
(0.000202019 -0.000276616 2.26585e-18)
(0.00267226 -0.016859 -1.51027e-17)
(-0.000382396 4.33294e-05 -2.57147e-19)
(-0.00637245 0.0152123 -3.77737e-18)
(-0.000408659 1.23002e-05 -3.59517e-19)
(-0.0137727 -0.0332507 4.11364e-18)
(0.00332958 -0.000256123 1.48128e-17)
(0.00414421 0.00373199 -4.40367e-18)
(0.0004803 0.000500149 -3.84393e-18)
(0.000327258 -0.000375476 9.64143e-18)
(-0.00681486 0.0212006 -3.68688e-17)
(-1.62521e-05 0.000786003 1.9022e-18)
(-0.110377 0.0527523 -5.55242e-19)
(0.0128965 0.0125508 -1.92159e-17)
(-0.000173581 -0.000123614 5.90307e-19)
(0.0536638 -0.00271179 -2.65057e-17)
(0.00457006 0.00387994 -3.08554e-19)
(-0.00218538 -0.000928311 6.5428e-18)
(-0.0172283 0.0023515 -2.81059e-17)
(0.0151994 -0.0120417 -6.40358e-17)
(-0.0336053 0.0307369 1.89547e-18)
(4.36017e-06 -3.03483e-05 2.54809e-18)
(-0.000255897 -0.000169027 -1.6251e-18)
(-0.00242724 -0.00593364 -1.74984e-18)
(9.18892e-05 0.000761793 -3.93194e-18)
(-0.000368319 -0.000282658 -7.84934e-18)
(-0.000114875 -0.000123535 -2.20148e-18)
(0.000449224 0.00053954 1.62159e-17)
(0.0482316 -0.00319654 7.38287e-18)
(0.0203811 -0.000771944 2.10499e-17)
(0.000532042 -0.00136845 -3.14405e-18)
(0.0704899 0.000286395 6.10993e-17)
(-0.000108235 0.000723725 -8.42671e-18)
(0.000309832 0.000167604 -1.23577e-19)
(-0.000322277 -0.000136224 1.4041e-18)
(-0.000119165 -0.000115551 6.35834e-18)
(-0.00186952 0.000622862 -1.67439e-18)
(0.00203319 0.00123369 -2.93245e-18)
(-0.000156547 -0.000266591 -1.31153e-18)
(0.0136838 -0.0121716 -6.19984e-17)
(0.000535579 0.000273955 -2.5974e-19)
(0.00140903 -0.000818041 5.94441e-18)
(-0.000598921 -1.47458e-06 -1.1445e-18)
(-0.0216237 -0.00237818 -4.50883e-17)
(-0.0164389 0.00876872 -4.39576e-17)
(3.30182e-05 5.35466e-05 -9.06807e-19)
(-0.000347535 2.57001e-05 -8.54661e-19)
(0.00561627 0.015113 -5.50427e-18)
(-6.90336e-05 -0.000118136 1.33639e-18)
(-0.0001883 4.05528e-05 5.97824e-20)
(-0.0311085 -0.0505563 6.07509e-18)
(-0.000193061 8.53715e-05 3.0481e-17)
(5.48515e-05 0.000534696 -1.51674e-18)
(-1.96804e-06 -0.00025947 6.30179e-18)
(0.0346031 0.0243008 -1.77438e-17)
(-1.34148e-05 -0.00174942 -1.58427e-17)
(0.00247364 -0.00146816 -2.03113e-17)
(6.82753e-05 0.000358656 -3.5326e-17)
(0.000109588 0.000394839 -5.33245e-19)
(-0.0276133 0.0228229 8.37634e-18)
(-0.000435564 0.00567744 -2.31717e-17)
(7.17659e-05 0.000453365 -2.58392e-18)
(-0.000202274 -7.39457e-05 -1.05486e-16)
(0.0398774 -0.0123987 1.70484e-17)
(-0.000116402 -9.51136e-05 1.30823e-18)
(0.0211821 0.000214077 -1.56412e-17)
(-0.000258285 -9.15721e-05 1.05697e-18)
(-6.57442e-05 -0.000231591 5.50732e-18)
(2.97663e-05 0.000442384 1.11335e-18)
(3.39954e-06 0.000555862 6.91901e-19)
(-0.0132326 0.00914863 -3.08681e-17)
(-0.000680768 0.000360708 -3.08405e-17)
(0.0204567 0.00693897 2.86574e-17)
(0.000734261 0.000172745 -2.18356e-18)
(-0.0879699 0.0563371 8.34084e-18)
(0.0190303 -0.00118763 -1.64984e-17)
(0.000378963 0.000429941 1.28452e-17)
(-0.0331395 -0.00227639 4.46556e-17)
(2.30881e-05 0.000139506 7.75297e-19)
(0.00581062 0.00430652 1.67452e-17)
(0.000352146 -0.000290885 -4.37151e-18)
(-0.116842 0.0289711 2.29561e-18)
(0.00352534 0.0118161 -3.6853e-17)
(0.000129119 0.00048652 4.04702e-19)
(-0.000263369 -0.001087 6.70883e-17)
(0.000412874 -3.38624e-05 -1.96918e-18)
(0.000147483 0.000711028 3.59641e-18)
(0.0116463 -0.00189753 9.37669e-18)
(-0.000145508 0.000267866 -1.5571e-17)
(-0.0332225 -0.000265654 -6.04324e-17)
(-0.000214817 8.06302e-05 1.12491e-20)
(0.0143479 0.027196 -2.32586e-17)
(8.64527e-06 -0.00024217 4.19331e-18)
(-0.127255 0.0590249 -4.79947e-18)
(2.19671e-05 -0.000205468 -1.27797e-18)
(0.000453201 0.000256212 -1.22814e-18)
(0.00345243 -0.000710393 1.5948e-18)
(-0.000141599 0.00017435 -2.82516e-19)
(-0.000531438 -2.71741e-05 -1.40918e-18)
(0.00339974 0.00728557 2.86368e-17)
(0.00745951 0.0311673 2.87086e-17)
(0.0496659 -0.0339879 -6.20351e-18)
(-0.000173312 -0.000111322 -7.75186e-19)
(8.39017e-05 -0.000254803 3.97907e-17)
(0.000383247 0.000354196 -1.36402e-17)
(-0.000150975 0.00016105 8.65103e-20)
(-2.85313e-05 0.000466265 -9.23664e-19)
(0.000258047 0.000585096 3.12299e-18)
(-0.0127478 0.0167007 2.42393e-17)
(0.00850933 0.000945531 -8.57362e-17)
(-0.00052071 0.000339255 5.68604e-17)
(-0.000464205 2.33545e-06 6.93305e-19)
(0.000521686 -0.000133097 1.01697e-17)
(-0.00477613 0.0288924 -1.6412e-17)
(0.000457798 0.000286598 5.34778e-19)
(-8.97231e-06 -6.86233e-05 1.78755e-18)
(-0.000120586 0.000187725 4.30202e-19)
(0.0005474 -0.000140237 -1.15729e-17)
(-5.4089e-05 0.000475574 8.81104e-18)
(0.0641791 0.000643945 -2.34613e-17)
(-1.79448e-05 0.000268767 -3.18886e-19)
(0.000178625 0.00500638 -2.96181e-17)
(0.000173709 0.000818471 1.09069e-17)
(0.0466265 -0.0117293 1.96299e-17)
(-0.00949609 0.0076442 -2.86523e-17)
(-0.0114532 0.00653446 -6.11362e-18)
(-0.000379745 -0.000106972 5.77459e-19)
(0.0149802 0.00295513 -1.31707e-17)
(-3.25892e-05 0.000130776 7.56146e-19)
(0.000187117 0.000174824 -2.92554e-19)
(0.00100608 0.000790701 -6.92637e-18)
(-0.00923967 0.00276774 3.71032e-17)
(-0.000292801 -5.95212e-06 -1.36268e-19)
(2.69242e-05 -1.333e-05 -2.36009e-19)
(-0.00051523 -1.18816e-05 3.46533e-19)
(0.0089177 0.00266638 4.06683e-17)
(0.000167727 0.000684642 9.96455e-18)
(-0.000183231 -0.000140897 -4.13264e-18)
(0.00081198 -0.000186454 -7.41416e-18)