/*--------------------------------*- C++ -*----------------------------------*\
| =========                 |                                                 |
| \\      /  F ield         | OpenFOAM: The Open Source CFD Toolbox           |
|  \\    /   O peration     | Version:  v2012                                 |
|   \\  /    A nd           | Website:  www.openfoam.com                      |
|    \\/     M anipulation  |                                                 |
\*---------------------------------------------------------------------------*/
FoamFile
{
    version     2.0;
    format      ascii;
    class       volScalarField;
    location    "550";
    object      p;
}
// * * * * * * * * * * * * * * * * * * * * * * * * * * * * * * * * * * * * * //

dimensions      [0 2 -2 0 0 0 0];


internalField   nonuniform List<scalar> 
18355
(
-0.088581
-0.193955
0.0117432
-0.00621672
-0.0316832
-0.133946
0.00711691
-0.148703
0.0805692
-0.22003
-0.0123528
-0.386029
-0.189976
0.0337205
-0.0113846
0.0284165
-0.485952
-0.00500983
0.011338
-0.162915
0.0465958
0.0436713
-0.247262
-0.0309037
-0.0411676
0.0195728
0.0254846
0.0766462
-0.154267
0.0243233
-0.0242795
-0.0381722
-0.00494591
-0.00220914
-0.136092
-0.0929105
0.0651997
-0.21983
0.0751849
-0.0128299
0.0343249
0.0209604
0.0119095
-0.229944
-0.00774026
-0.230597
-0.141392
0.083231
-0.127708
-0.004309
-0.010496
-0.00341818
0.0187802
-0.21849
0.014608
0.00639215
-0.100773
-0.0110299
0.404479
-0.236181
-0.00384568
-0.136183
-0.00624542
-0.0184519
-0.383934
-0.0858099
-0.126238
0.152292
0.0251919
0.0422433
-0.159198
0.00890021
-0.243555
-0.000592902
-0.148716
0.00702741
-0.226274
-0.0388621
-0.052779
-0.00330618
0.0074994
-0.334425
0.0445713
-0.0664633
0.0197787
-0.186777
-0.130775
-0.161995
-0.152885
-0.232428
-0.208571
-0.00780313
0.0162484
-0.0100111
-0.140408
-0.24831
-0.0136128
-0.0604638
-0.215534
-0.483671
-0.144703
-0.486064
-0.0955496
-0.225815
-0.0308979
-0.17085
-0.403621
-0.166544
-0.0922095
0.35706
0.0189536
0.0686985
0.0208062
0.0706792
-0.198603
0.00526587
0.476519
-0.224157
0.457928
-0.0919332
-0.221547
-0.361834
-0.0380411
-0.159347
-0.0129349
-0.170491
-0.00391487
0.0155633
-0.414551
-0.00985574
-0.0104768
-0.24506
-0.121949
-0.0592317
0.0832907
0.0153526
-0.00823605
-0.0124018
0.027411
-0.172919
-0.145466
-0.14754
0.018192
0.0194949
0.449666
0.0440203
0.107503
-0.121542
-0.0495061
-0.11844
-0.0316125
0.0444417
-0.130882
0.430329
-0.109874
0.010157
-0.243841
0.466674
0.0100092
-0.143145
0.000791292
-0.0370656
0.103443
-0.0605007
-0.147858
0.165683
-0.480554
-0.117849
-0.233112
-0.0029286
-0.134205
-0.25032
-0.0116437
-0.0122364
0.025635
-0.168031
-0.0784574
0.0149182
-0.406343
-0.470885
0.293289
-0.231298
-0.0728716
0.00464343
-0.168716
-0.164063
-0.236899
-0.198363
0.0808697
-0.485195
-0.0980824
0.0114794
-0.0594313
-0.227103
0.0978259
0.0415451
-0.276271
-0.0716392
-0.102326
-0.0120475
-0.0412452
0.0755895
-0.479644
-0.241409
-0.334351
0.0142009
0.479514
-0.435923
-0.380918
-0.100354
-0.00775733
-0.0309712
-0.158956
0.017801
-0.00259111
-0.324789
-0.166295
-0.158963
0.0208109
-0.0482939
-0.338831
0.0252641
-0.0601312
-0.00839802
-0.483647
0.0333087
-0.457651
-0.149306
0.371564
-0.00675635
0.0185748
-0.0511373
-0.0191823
-0.460456
-0.000178354
0.018731
0.0151162
-0.206803
-0.212915
-0.332829
-0.0896249
-0.237003
-0.0243728
-0.00186873
0.0364074
-0.149603
-0.374539
0.513737
-0.106923
-0.000926346
-0.0406739
0.166268
-0.073527
-0.385988
0.0278591
-0.476301
-0.168956
-0.144287
0.0177098
0.00172012
-0.0816128
-0.169828
-0.48328
-0.125045
0.00104484
-0.00231811
0.0177427
-0.23798
-0.11002
0.348621
0.0343981
-0.127124
-0.200899
-0.169046
-0.0246841
-0.283297
-0.00380512
0.0230401
-0.349935
-0.00100569
0.00718128
-0.17201
0.011962
-0.138293
-0.0724661
0.0921179
-0.000718537
-0.117285
-0.402445
-0.0388985
-0.00588268
0.0321388
-0.170313
-0.214122
0.0175229
0.00822717
-0.164298
-0.106633
-0.106162
0.238374
0.0228085
-0.164898
0.0552979
0.00822918
0.24959
-0.150212
-0.143808
-0.172514
-0.00984647
0.306228
-0.0291739
0.0125668
-0.364955
0.0162725
-0.240244
0.0365485
0.0161827
-0.00827225
-0.239727
-0.120467
-0.432556
-0.00321315
0.0998992
-0.230107
-0.0182778
-0.216218
-0.0473799
0.045849
-0.210538
-0.0096576
0.119789
0.0146223
0.0842318
0.00716545
-0.105867
-0.436535
0.0217289
-0.48525
-0.104401
0.0260293
-0.137288
-0.137199
-0.236139
-0.209832
-0.22815
0.0275263
-0.00610682
-0.263374
0.275106
0.0172462
0.0030525
-0.14608
-0.167269
0.214911
-0.260162
0.0220981
-0.0472373
0.50708
0.0181253
0.000178272
-0.212077
-0.0998626
-0.0497391
-0.120521
0.0143564
0.162911
-0.348715
-0.35957
-0.00585406
0.0333683
0.025857
-0.011131
0.138798
-0.0117313
-0.107573
0.0254856
-0.0215161
0.0221832
0.0790724
-0.0209296
0.00568655
-0.0193996
-0.0194318
0.0181113
0.357271
-0.1336
-0.00964829
-0.231654
0.0576364
-0.133066
-0.0895354
-0.176848
0.0379127
-0.232524
0.0633307
0.00543548
0.0189639
-0.0079454
-0.214534
-0.0467137
-0.00770985
-0.12153
-0.103203
0.0177823
-0.0181937
-0.464262
0.0411511
-0.00334987
0.292899
0.0110884
0.516286
-0.485415
-0.210394
0.104435
-0.0301103
-0.401121
0.00888386
0.0182654
0.277385
0.0121497
-0.0114525
-0.485137
-0.00105748
-0.438636
-0.0864109
-0.086761
-0.486503
0.0559521
0.0178507
-0.228583
-0.1312
-0.129852
-0.230598
0.0254372
0.00499809
0.0454096
-0.185075
0.0456681
0.0113149
0.010598
0.0194327
0.168056
0.503523
0.0220355
0.0445758
0.0181171
-0.0880067
-0.209471
-0.213767
-0.474008
-0.234885
0.213909
0.146659
-0.228756
-0.0272734
0.00187953
0.0319605
-0.0097443
0.156042
0.0229677
-0.00758332
-0.483826
0.176139
-0.132393
-0.23183
0.222752
-0.1641
0.00239938
-0.0202542
0.023038
0.00752791
0.0105099
0.018297
0.023163
-0.150135
-0.00445236
-0.00954647
-0.351736
-0.237963
0.00223154
-0.0384812
0.0556093
-0.382631
0.0255782
-0.0148736
-0.23003
0.0730549
-0.140417
-0.0470618
-0.0110506
-0.484252
-0.240081
-0.00458301
-0.392599
-0.146079
-0.482715
-0.01041
-0.014532
-0.016316
-0.165338
0.0560269
-0.130576
-0.187852
-0.229135
-0.37435
-0.00820411
-0.0843179
-0.172257
-0.24767
-0.182934
0.0414019
0.0304143
0.00568546
-0.240088
-0.486129
-0.21233
0.0318027
0.0268449
0.022867
0.0492004
0.0229349
-0.223033
0.00732557
-0.197522
0.0344057
0.0190575
0.00195003
0.146649
-0.0204069
-0.208796
0.0125551
-0.159564
-0.249098
-0.0660218
0.0165825
0.077063
-0.0603697
0.0136025
-0.0939852
-0.1019
-0.0657932
-0.242001
0.00239837
-0.00461423
0.0313265
0.0216755
-0.111476
-0.048777
-0.138896
0.00260782
-0.0312578
-0.0769126
-0.00941463
0.161013
0.0603641
-0.225576
0.0895094
-0.210907
-0.0335449
-0.233023
0.0881561
0.082555
-0.168675
-0.0809826
-0.413643
-0.0638971
-0.0454156
-0.0103293
0.0253771
-0.12853
-0.132243
0.0350579
-0.0966862
-0.149164
-0.140926
0.00306659
-0.426889
-0.249052
-0.0385895
0.0259065
0.162453
-0.228807
-0.0796797
0.0135854
0.275599
-0.23403
-0.137837
0.138682
0.0121435
-0.0612596
-0.172003
-0.202735
-0.212667
-0.372174
0.150802
-0.193295
-0.0717314
0.00655944
-0.0394012
0.0236776
0.439055
0.379747
-0.169702
0.346109
-0.384322
-0.133478
0.267241
0.0287883
-0.183887
-0.445362
-0.0126949
0.368302
-0.137751
-0.295962
0.0180755
-0.00764796
-0.0600276
-0.0588579
-0.0588062
-0.176889
0.0157832
-0.22585
0.020449
0.0457805
-0.241573
0.00466653
-0.0190673
-0.179002
0.0181288
-0.0294723
-0.286106
-0.00171613
-0.158063
-0.00962664
-0.134157
-0.0644896
-0.092332
0.0401337
-0.0417722
-0.164446
0.0977221
-0.124629
-0.112977
-0.0246525
-0.250647
-0.0926053
0.0549716
-0.476429
-0.346294
-0.208358
0.0193861
-0.00853999
-0.14515
0.0791216
-0.0964528
0.0134917
-0.0733729
-0.232921
-0.238588
-0.111121
-0.233083
0.15861
-0.000854647
-0.00779019
0.0134178
-0.124976
-0.112274
-0.0162533
-0.404596
0.0134142
-0.102981
-0.00747618
-0.389064
-0.462022
0.0251964
-0.0126055
-0.128816
0.0132866
-0.00496337
-0.136693
0.365243
0.0513199
0.0246626
-0.126217
-0.127466
-0.0526552
0.26816
0.0051158
-0.175148
-0.121281
0.0350118
0.414734
-0.251213
0.00795316
-0.239272
-0.00649156
0.0177383
0.056149
0.180047
-0.471472
-0.10242
-0.202219
-0.00928279
-0.151475
-0.383187
-0.0724098
-0.381703
0.0336144
-0.440604
-0.0392364
-0.124103
-0.190937
0.0198255
0.354592
-0.015253
0.0914405
-0.423125
0.300869
-0.404019
0.000520836
-0.212902
0.0311644
-0.129023
-0.0292859
0.0105946
-0.060686
-0.000315599
-0.00614079
-0.110882
-0.226698
-0.293852
0.00513076
0.49818
-0.070798
0.000264779
0.0229908
0.069901
-0.175236
-0.42896
-0.0980994
-0.00228585
-0.024543
-0.193556
0.0138473
0.0171467
-0.000439311
-0.0268793
-0.086035
-0.226129
0.0048179
-0.268842
0.0897393
-0.246755
-0.479471
-0.129017
-0.00774104
-0.0853168
0.0111976
-0.00592198
-0.0724474
-0.140006
0.00112517
-0.00979425
-0.00510776
-0.432958
0.0576345
-0.0251696
-0.0413285
-0.0756837
-0.238157
-0.40128
0.00943247
0.0330442
-0.238326
0.0334614
-0.368851
-0.195596
-0.453015
0.237162
0.0798812
-0.208746
-0.0626096
0.0205275
-0.00135611
0.015007
0.0490455
0.0172227
0.0505692
-0.355764
-0.137813
-0.0241297
0.281476
-0.00128032
-0.00254275
-0.100533
0.0149212
0.0470378
-0.0302419
0.458878
0.510741
-0.164095
-0.402199
0.151069
-0.127858
-0.118939
-0.157033
-0.33048
-0.123315
-0.207603
-0.144753
-0.478645
-0.0226804
0.0257626
0.00719682
-0.060123
-0.173389
-0.002655
0.0209691
-0.175552
0.000957248
-0.0162909
-0.0127077
0.0085331
-0.20031
-0.0245634
0.0336437
-0.129036
-0.00647748
-0.250535
0.392091
0.0163139
-0.0345803
0.000454397
0.0408451
0.000976146
-0.0345678
-0.376094
0.0330557
-0.257774
-0.0243005
-0.258176
-0.0465454
-0.115574
0.0177753
-0.0935821
-0.0957873
0.0205559
0.0153994
-0.26248
0.0258615
-0.463732
-0.453703
0.0356328
0.00704199
0.0144273
-0.0101069
-0.137914
0.0240068
-0.25707
-0.140988
-0.105389
-0.485412
-0.0019688
0.0122517
-0.428338
-0.334925
0.0964941
0.0154687
0.0221714
-0.00204155
-0.0356432
0.131157
0.384293
-0.0367763
-0.135026
0.500827
-0.164757
0.151679
-0.0216986
-0.2736
-0.138229
-0.0435989
0.0174229
0.0420807
-0.309902
0.0232101
-0.13373
0.142241
0.00991589
0.0659334
-0.00759439
-0.0961302
-0.057203
0.00110882
-0.00901354
-0.0344588
-0.237331
0.0095824
-0.0775743
-0.221025
0.0415127
0.0118934
0.165989
-0.146562
-0.0876673
-0.282503
0.0626011
-0.0101349
0.0806963
-0.183791
0.421895
0.49945
-0.00154525
0.143915
0.0133322
-0.280186
-0.0130742
-0.206758
0.135681
-0.137811
0.00929792
0.00350867
0.0960785
0.0197855
-0.237514
-0.0267538
0.366487
0.0099056
-0.00183895
0.0857041
-0.251405
-0.485591
-0.0177749
-0.0349521
0.057173
-0.0250442
-0.0164413
0.0208908
-0.195032
0.0112574
-0.156891
0.00377359
-0.371437
-0.024021
-0.00993196
-0.359985
-0.335065
-0.238978
-0.0011332
-0.130946
-0.0245537
-0.144631
0.0563269
-0.235392
-0.00362927
-0.48199
0.0100094
-0.0548018
0.0257688
0.0130545
0.0135937
-0.199363
-0.225268
-0.147171
0.154995
-0.0581514
-0.0376087
0.00780195
-0.00554982
-0.00167003
0.0232004
-0.245946
-0.0284993
-0.246351
-0.209529
0.0150552
0.0619552
-0.137853
-0.130948
0.0562506
-0.0395192
0.061837
-0.484564
-0.113826
-0.439293
-0.0815305
-0.116291
0.245217
0.0328471
0.00574998
-0.174144
0.0909206
-0.0232144
-0.22963
0.0771129
-0.485771
0.0100387
0.362545
0.175031
-0.164407
0.0305325
0.0251308
-0.371457
-0.025313
-0.244281
0.0420482
0.0254161
-0.383387
-0.0893352
-0.0530564
-0.419595
0.00211955
0.338049
-0.209334
0.024723
-0.0716181
-0.210605
0.0207287
0.00565251
-0.0253146
-0.0520819
-0.0522309
-0.113235
-0.171515
-0.0365464
0.0188756
-0.129008
-0.00683574
-0.486017
-0.0453437
-0.0340011
-0.236469
-0.483564
-0.00205233
0.0112314
-0.0502471
-0.00947291
-0.00593323
-0.2598
0.0140862
-0.051343
-0.00811431
0.264017
-0.00426604
0.360875
0.372225
-0.0352307
-0.224061
0.00545188
-0.0448572
0.00582832
-0.229622
0.0180049
0.00189998
0.0169165
-0.0153165
0.00940859
-0.173619
-0.469697
-0.405993
-0.485226
0.0133863
0.0564211
-0.0955781
0.0427486
-0.0128789
0.155787
-0.243729
0.00263559
-0.0246827
-0.272275
0.00859153
0.0131393
-0.149956
-0.131857
-0.166604
0.0787742
-0.0209292
-0.437547
0.0499501
0.165757
0.00973479
-0.0675271
0.0347883
-0.176784
-0.230426
-0.0901511
0.0139433
-0.481277
0.066873
0.00211266
0.00480041
0.0428148
0.020105
-0.0230686
-0.223404
-0.000121955
-0.237908
-0.026854
-0.0738078
-0.339157
5.57722e-05
-0.18786
0.0474419
-5.838e-05
0.0790595
-0.122769
0.0204805
-0.00905729
0.0123411
0.0339256
-0.109555
-0.00568478
0.0448865
0.0938595
0.0141043
-0.0124586
-0.461166
-0.14464
-0.207062
-0.258069
-0.169253
-0.164811
-0.32581
-0.16406
-0.00719274
0.0480695
-0.00709568
0.364653
-0.171532
-0.0104094
-0.0174456
-0.00964254
0.0066098
0.00891858
-0.0469553
-0.457029
-0.480383
-0.486805
-0.148455
0.0146374
0.00809276
0.012774
-0.399953
-0.389726
-0.0222563
0.515087
-0.00621963
-0.0933636
-0.0370062
-0.0537776
-0.0903489
-0.233188
0.0492129
0.360737
-0.00669085
0.00303819
-0.180912
0.0123627
0.00628013
-0.112024
-0.183692
0.0126081
0.114082
0.0116202
0.0344574
-0.000211573
0.027814
-0.231918
-0.00816558
0.0183813
0.0488935
-0.225113
0.382319
0.0241587
0.160344
-0.0887306
-0.485808
-0.23003
-0.44613
-0.23933
-0.0797168
-0.160171
-0.177341
-0.12454
-0.45343
-0.00812968
0.0115175
0.0175484
0.381578
0.036431
-0.35738
-0.0189242
0.0183169
-0.378738
-0.147874
0.0530458
0.285097
0.00799778
0.0711573
-0.350677
-0.0791149
0.0179461
-0.35375
-0.23575
-0.288268
-0.198549
0.0287265
-0.377279
0.00912283
-0.0793467
0.0027912
0.00163974
-0.200205
0.0954518
-0.0156639
0.0110236
-0.440217
-0.0118257
-0.235823
-0.243888
0.0145997
-0.0119641
0.0976483
-0.220892
-0.155753
-0.0944472
0.0517162
-0.185999
0.0341493
-0.0328239
-0.0228341
-0.0239237
0.075645
0.244112
-0.352378
-0.15335
-0.15917
-0.472663
0.00503572
-0.136869
-0.233718
0.213745
0.00944107
0.0270764
0.0121699
0.00337459
0.00428602
-0.356674
-0.231791
-0.221848
-0.153642
-0.16791
0.0203007
-0.174144
-0.471259
-0.00753385
-0.0597431
0.0014367
-0.480359
-0.142882
-0.192513
-0.151569
0.0369625
-0.143346
-0.0298594
0.0966361
-0.0974085
-0.0691422
-0.0134873
-0.122805
-0.45635
0.0120034
-0.291583
-0.478166
-0.305449
-0.362402
-0.0860018
-0.210384
0.146976
0.253378
-0.228797
-0.00973479
0.0294488
-0.0190083
0.00851113
-0.48343
-0.0335506
-0.264762
-0.00538477
-0.00739727
-0.172212
0.0167337
-0.476938
-0.030585
0.407942
-0.0460404
0.0224054
-0.248116
-0.0458168
-0.119771
0.00290786
-0.0182599
-0.166163
0.123446
0.0227994
0.0907292
-0.361526
-0.0878157
0.51005
0.0170296
0.0175556
-0.00958723
0.0198773
-0.0595099
0.0668429
-0.00697009
-0.460987
0.00930335
0.0203905
-0.157139
-0.240461
-0.109926
-0.0718329
-0.0013241
-0.0309612
-0.172779
0.502506
-0.256217
-0.432797
-0.0559435
-0.08802
-0.137934
-0.024439
-0.133994
-0.219082
0.00415741
-0.210502
-0.141025
-0.20132
-0.210909
-0.373571
-0.134177
0.0409242
-0.227931
0.0265098
-0.0909706
-0.212264
-0.000882832
-0.196751
-0.00129241
0.0351872
-0.126025
-0.486443
0.0625427
0.00554204
-0.0951434
-0.251082
0.294094
-0.139428
0.0195952
-0.133835
-0.0138504
-0.120252
-0.21447
0.0113808
-0.476683
-0.02221
0.00134408
0.0417389
-0.00330266
-0.283861
-0.125668
0.0172246
-0.28444
0.0239324
-0.485511
-0.0122765
-0.145828
0.204606
-0.175156
0.0978262
0.00936699
-0.00599767
0.00538919
-0.229424
-0.15417
0.00724471
-0.104545
-0.14642
-0.333142
-0.0865486
-0.161518
-0.246665
0.0100944
-0.354856
-0.000740072
-0.133922
0.00498179
0.0460205
-0.0281528
-0.17254
-0.258246
-0.168466
-0.208001
-0.469547
0.378999
-0.135892
-0.219599
0.00445357
-0.168305
-0.478872
-0.00931125
-0.124538
-0.236897
-0.208027
0.0123965
-0.153027
0.128579
-0.151553
-0.311094
-0.0686125
-0.144081
-0.0593453
-0.00172998
-0.00785512
-0.484204
-0.229225
0.195486
-0.224008
0.00450828
-0.259613
0.051936
-0.00780708
0.0535948
-0.1456
-0.0528283
0.0210095
0.0123542
-0.354268
0.0053957
-0.0592142
-0.368913
-0.00496233
0.0051033
-0.306713
0.00123443
0.136022
-0.0531339
-0.192039
0.492675
0.0163067
-0.0836947
-0.0722398
-0.0846658
-0.0705495
-0.0445404
0.324459
0.426468
-0.141126
-0.285771
0.3284
-0.0142016
-0.197143
-0.165747
-0.125788
-0.000724349
0.0212337
0.371031
-0.0328349
-0.239699
0.416199
-0.0796303
-0.159557
-0.0428073
-0.225801
-0.169398
0.0131654
0.00849505
0.014586
0.00504871
-0.226785
-0.228574
-0.0605385
-0.226667
-0.143205
-0.132434
-0.0253947
-0.0507292
-0.154962
0.00330507
0.00419157
-0.221073
-0.0382522
0.305589
0.000945751
0.00805862
0.0206217
-0.065701
-0.00278191
-0.116411
-0.0128188
-0.044523
-0.279248
-0.137963
0.491348
-0.398787
0.107551
-0.0362617
-0.266379
-0.18634
-0.133587
0.255729
0.0100594
-0.150258
0.0225702
-0.0344124
-0.000430662
0.291474
-0.116232
-0.252186
-0.180075
-0.209511
-0.00722478
-0.00105227
-0.0258868
-0.138198
-0.415302
-0.166377
0.51717
0.00505641
-0.404882
-0.0390534
0.00718734
-0.0221199
0.037806
-0.367005
0.0303378
-0.12549
-0.00523957
0.496871
0.154509
-0.123158
-0.0358466
-0.0284731
-0.0446864
-0.00542194
-0.165974
0.50912
-0.255217
-0.14895
-0.00843147
-0.254247
0.22347
0.0214668
-0.0710432
-0.0146673
-0.0522713
-0.00917795
-0.363963
-0.0424537
-0.171311
-0.144527
-0.00659949
-0.480317
-0.00805786
-0.0609295
0.0608304
-0.0462195
-0.00203203
-0.00498415
-0.0871192
0.0129024
-0.0398292
-0.00572182
-0.0356389
0.511614
-0.16522
0.0572602
-0.08877
-0.399202
0.00335364
0.0130282
-0.0168607
-0.135501
-0.00436775
-0.148632
-0.262501
0.0207664
-0.225299
-0.140884
0.025866
-0.0128913
-0.0708015
-0.00962133
-0.221302
-0.174071
-0.231704
-0.0436417
-0.0735927
-0.0121487
0.504282
0.0728332
0.393332
0.00857957
-0.198631
-0.484115
-0.102185
-0.0486779
-0.28676
-0.483469
-0.253103
0.0589334
-0.00670991
-0.478951
0.490112
0.000236523
0.024357
0.416692
-0.0146719
-0.21057
0.485821
-0.00354028
-0.014509
-0.267014
-0.122655
-0.0378355
-0.00785616
-0.101531
0.0583018
-0.227056
0.00926929
-0.0271936
0.0120245
-0.0337803
0.0178767
-0.212827
-0.0150019
0.0197012
-0.157508
-0.483392
-0.241395
-0.001364
-0.0582221
-0.0989645
0.0423679
0.0420337
-0.0960683
0.00308379
0.0168372
-0.236277
0.0505397
0.0248631
0.0359544
-0.0222375
-0.485937
-0.223175
-0.014782
-0.0334253
0.0074756
-0.0871255
-0.418151
0.0780393
-0.177973
0.0181997
0.0514897
-0.0580411
-0.218864
-0.484037
-0.00754249
-0.356774
-0.281422
-0.0701758
-0.00493939
-0.0749159
-0.0821805
0.0323643
-0.0120175
-0.0230473
-0.112895
0.0628899
0.491603
0.047791
0.0220535
-0.0312991
-0.167596
0.0303381
-0.00752448
-0.193767
0.159272
-0.266691
-0.153103
-0.0213722
0.399538
-0.336035
0.437252
0.0574159
0.0127358
0.0229501
-0.291463
0.202783
-0.0238153
-0.0407644
-0.139918
0.461284
-0.478741
0.014388
0.110304
0.0464966
-0.179337
-0.363483
0.00776597
-0.160854
0.0444857
0.0615472
0.00783443
-0.451639
-0.17126
0.0258149
-0.0496807
-0.236992
0.00900719
0.00860321
-0.0695702
0.294828
0.0273886
0.00907363
-0.0477018
-0.387901
-0.0842448
-0.0196065
0.00215933
-0.0249385
0.371806
0.0161903
0.0128254
-0.198489
-0.269016
0.00185429
0.015089
-0.101348
-0.0678787
0.0137443
-0.0282257
-0.146515
0.00297996
0.0147017
-0.0839294
-0.307079
-0.33476
-0.0480552
-0.10246
-0.456338
-0.152079
-0.401153
-0.233795
-0.0239142
0.0238515
-0.00935456
0.074183
0.0114839
0.026706
-0.00756058
0.0057555
0.00534322
-0.23086
-0.0936625
-0.229344
-0.0253714
-0.234142
0.0295773
-0.0523673
-0.00611002
-0.00255755
0.130772
-0.338436
-0.00693962
0.00297156
-0.0408272
-0.230074
0.00612555
-0.0995467
0.0222872
-0.0725043
-0.139187
0.211541
0.505443
-0.0111846
-0.208779
-0.0240322
-0.232428
-0.477247
0.002426
-0.246781
-0.155752
0.0123988
-0.0119979
-0.128299
-0.086713
-0.123589
-0.00438538
-0.396313
0.167719
-0.162564
-0.0072248
0.00471841
-0.0574514
-0.485064
-0.265912
-0.485356
-0.121456
-0.484341
0.0887728
-0.426619
-0.0264
0.454639
0.00627668
-0.0203587
-0.326874
0.0641978
-0.245674
0.00545625
-0.00993939
-0.476735
-0.288131
0.00498731
-0.389859
0.0083581
-0.245859
-0.000314912
-0.236422
-0.48486
-0.0231258
-0.200669
-0.0508329
-0.243924
0.0323585
-0.0135349
0.0353075
-0.163268
0.00915896
-0.327123
-1.83749e-05
-0.443322
-0.162374
-0.229651
0.00553943
-0.0065388
-0.16623
-0.0442128
0.159546
0.0101808
0.311828
-0.0267746
0.0266851
-0.139006
0.0234692
0.0125089
-0.0307994
0.0178768
-0.160467
-0.0717185
0.0045976
-0.241336
-0.277456
0.419965
-0.0189196
-0.201278
0.48115
-0.0203276
-0.0681849
-0.0326555
0.0209967
0.00583279
0.0366415
-0.0523984
-0.0710477
-0.440226
-0.0322616
-0.0654746
0.0127254
0.0136671
-0.169746
-0.0706632
0.0117772
-0.033981
-0.137672
-0.299752
0.0290375
-0.224737
0.0425077
0.455747
0.0211632
-0.459211
-0.00188013
-0.0349611
0.0105296
0.00254854
0.063572
-0.2431
-0.00386514
-0.248543
-0.218386
-0.0925661
-0.234636
0.0114411
0.0374776
-0.166945
-0.0165919
0.339283
0.0274733
-0.103757
-0.00488585
-0.343305
-0.243178
-0.141605
0.00503059
-0.396748
-0.48206
-0.209262
0.370124
0.108157
-0.216686
0.00302702
-0.216277
-0.236879
-0.0689353
-0.175167
0.000346503
0.026338
-0.0554132
-0.23794
-0.0146231
-0.162959
0.00619028
-0.350118
-0.0981435
0.144515
0.000265734
-0.091706
0.389786
0.0265882
-0.100726
-0.118885
-0.163948
-0.0155917
0.00579775
-0.233646
-0.320447
0.0105985
-0.483973
0.0728756
0.0157412
-0.475991
-0.209558
0.0230602
-0.345032
-0.00584134
0.00461788
-0.113416
-0.243256
0.00449834
-0.189831
-0.0163985
0.0207257
-0.485481
-0.0315596
-0.119803
0.00190441
0.475397
0.0236368
-0.485739
-0.00743902
0.240812
-0.0242309
0.105943
0.374356
-0.306778
0.227141
-0.334967
-0.0701134
-0.209097
-0.32057
-0.157547
0.00461384
-0.165896
-0.438418
-0.142065
-0.200349
0.0434336
0.00326582
-0.0263012
-0.382057
0.0249014
-0.0293373
-0.2015
0.00875604
-0.244615
-0.0135383
-0.227559
0.0147402
0.00854164
-0.153863
-0.00769327
-0.108851
0.00518532
-0.0245834
-0.203908
-0.146678
0.000320675
0.0128093
-0.296491
-0.483286
0.0158791
-0.0736202
-0.103285
-0.0128935
-0.484444
-0.290298
-0.345851
-0.220934
-0.483768
-0.183573
-0.161012
0.00286934
-0.000661596
0.0186603
0.00696169
0.0672324
-0.435313
-0.468508
0.0109549
-0.0375612
-0.0386941
-0.264335
-0.270014
-0.348045
-0.382773
0.0299935
-0.385835
-0.443873
0.0982865
-0.221186
-0.116199
-0.0265557
-0.241316
-0.136852
-0.135363
0.0210649
-0.0141118
-0.122759
-0.231751
-0.00107452
0.0223827
0.0081146
0.000472375
0.0266242
-0.457704
0.0180948
-0.00465243
-0.417381
0.0117205
-0.289179
-0.121754
-0.318681
-0.20296
0.00595293
-0.329329
0.368398
0.461557
0.0303725
-0.0733078
0.0122917
0.0738104
-0.485302
-0.156326
-0.182486
-0.0369293
0.00701518
0.360866
-0.0416755
0.0247742
0.114795
0.0119624
-0.241795
0.00662175
-0.18789
-0.323912
0.0703853
0.00653762
-0.264519
0.00435396
-0.0188578
0.196229
-0.00676376
-0.031934
-0.195194
0.452477
-0.368967
-0.0128216
0.0772084
-0.000128639
-0.294004
-0.146129
-0.00768113
-0.0728669
0.00938083
-0.0229929
-0.0343147
-0.0147995
-0.13828
-0.0694498
0.0254731
-0.026249
0.0225089
0.0109416
-0.023859
0.012503
0.397939
-0.129866
-0.314103
-0.311433
-0.188517
0.32112
-0.0289806
-0.482206
-0.146663
-0.189829
0.0246127
-0.0186801
0.455829
-0.381875
-0.272863
-0.281027
-0.273438
0.0108852
0.0206968
-0.176549
0.00161466
-0.138681
-0.216099
-0.037278
-0.472821
-0.171353
0.00848759
-0.485967
-0.221329
0.265942
0.454517
0.0378471
-0.165507
-0.342333
-0.23617
0.00174688
0.282853
-0.136807
0.00281379
-0.096723
-0.0203545
-0.140098
0.0187497
-0.437522
-0.359911
0.0363359
-0.0456165
0.0541798
-0.455155
-0.123497
0.0290153
0.0449769
-0.1719
0.018467
-0.0459112
-0.179999
0.445204
0.00177295
0.31772
0.24728
0.0133698
-0.118453
-0.0060378
0.0256373
-0.0579503
0.0175985
-0.0537309
-0.247752
-0.182838
0.0282912
-0.477633
-0.134516
-0.109981
-0.485136
-0.0949237
-0.0470343
-0.349769
-0.0561555
0.0919053
-0.119852
-0.0985805
-0.0247324
-0.0061519
0.0107157
-0.281764
-0.208624
-0.388494
-0.218993
0.000594614
0.105818
-0.187117
-0.0920765
-0.351772
0.00762869
-0.158277
-0.00100855
-0.4613
-0.0151364
-0.236381
0.0690979
-0.477665
-0.209366
-0.171371
-0.266836
0.12668
0.0013427
0.292719
-0.484608
-0.469538
-0.0699822
0.0599504
0.00506975
0.0338468
-0.0849871
0.0213415
0.0200793
0.00117919
-0.140178
0.0274441
-0.239432
0.00803765
-0.230191
-0.00960384
-0.157804
-0.479759
0.0489542
-0.223226
0.0126423
-0.0552797
-0.020064
0.0221375
0.0168407
0.407672
-0.212628
-0.00321224
0.093689
0.0330152
-0.161297
-0.0888358
-0.322959
-0.196781
0.0362569
-0.122327
-0.0354346
0.0308787
0.222433
0.0238002
-0.103418
-0.472949
0.0146824
-0.232934
0.0593254
0.0109074
-0.00589448
-0.296145
0.0291951
-0.304346
-0.0305996
0.0204739
-0.134616
-0.196015
-0.234908
-0.0571559
0.0239291
0.0156268
-0.164763
-0.173577
0.0184364
-0.113586
0.0449913
-0.097035
0.464738
-0.149546
-0.446646
-0.465937
-0.0103627
-0.14081
-0.0189402
-0.232983
-0.338404
-0.071319
-0.331866
-0.125576
-0.0107462
0.0812113
0.0278457
-0.00822185
0.0412185
0.0267267
-0.295391
0.0503506
-0.122322
-0.254158
0.00905556
-0.366482
0.0181504
0.0172676
-0.124907
-0.280724
-0.0151183
-0.419939
0.295489
-0.117963
-0.485322
-0.032643
-0.131759
-0.220374
0.0664872
-0.012742
0.446885
0.0321882
0.00864792
0.00859498
0.304616
-0.480188
-0.0532419
0.0237863
-0.18241
-0.477596
0.0574048
0.0161085
-0.283534
-0.255236
0.00510917
0.326535
-0.226321
0.00987253
-0.0563028
-0.00621484
-0.171563
0.00784836
-0.424851
-0.435964
-0.414941
-0.0350567
0.164921
-0.0213645
-0.000222778
-0.138382
0.00342215
-0.233716
-0.196289
-0.179661
0.00171417
-0.0106857
0.455698
-0.129252
0.249255
-0.322692
-0.199852
-0.229389
-0.0432114
-0.41114
0.28069
-0.0607851
0.406622
-0.361049
-0.158504
0.0289872
-0.484817
-0.00450344
-0.215738
-0.21184
0.306573
-0.00597686
-0.118626
0.015508
-0.270298
-0.158672
-0.0347471
0.0165818
-0.419442
-0.20193
0.00890009
-0.246232
-0.143191
-0.231891
0.0144936
-0.351779
0.0182451
-0.135713
0.0166029
-0.0371007
0.00794525
0.0329312
-0.227018
-0.145347
-0.00878552
-0.14557
-0.486141
-0.00742978
-0.010247
0.0566035
0.106077
-0.106085
-0.124127
-0.468007
-0.220401
-0.408468
-0.395013
-0.114806
0.0615955
-0.13836
-0.221946
-0.486079
-0.176781
-0.20093
-0.133914
-0.0993391
-0.0358022
-0.485808
-0.00689022
-0.34927
0.0224976
0.00645409
-0.424308
0.0144602
-0.0170198
0.361213
-0.0345814
-0.120663
0.0246712
-0.0397147
-0.232125
0.346646
-0.0142076
0.0101975
-0.416874
-0.138581
-0.0556653
0.507864
-0.144174
-0.127473
-0.182797
-0.453731
0.0662709
-0.256843
-0.125565
-0.146996
0.0230863
-0.00951057
-0.134507
-0.484921
-0.464564
-0.431729
-0.173287
0.0115074
-0.159707
0.0371852
-0.47108
-0.0230247
0.00910129
-0.114741
-0.17443
-0.198569
-0.428367
0.049198
0.398317
-0.237011
-0.030044
-0.16208
-0.00726695
0.140451
-0.236717
-0.117407
-0.231805
-0.425341
-0.142337
0.499688
-0.0958021
0.0316589
-0.0381782
-0.069602
-0.29673
-0.375755
-0.422716
-0.25927
0.124316
-0.00102357
-0.210481
-0.117858
-0.31175
0.0135917
-0.434721
-0.137118
-0.328041
0.0106044
-0.17711
-0.178146
-0.109581
-0.25479
-0.0151298
-0.157511
-0.175711
0.00101612
-0.194683
-0.257949
-0.0358049
-0.21959
-0.0377403
-0.0443395
0.0148744
-0.183108
-0.133751
0.288797
-0.0707234
-0.464843
-0.00886994
-0.00781937
0.00980643
0.00693044
0.00590712
-0.32361
0.363263
-0.24565
0.0220442
-0.00803551
-0.442873
-0.071703
-0.170151
-0.131252
-0.00303512
0.477348
0.145441
-0.0916514
-0.301751
-0.0592655
-0.475785
0.460657
0.116936
-0.00758409
0.347773
-0.00855412
0.376583
-0.370922
-0.185236
-0.00260279
-0.393495
0.43619
0.0223003
-0.15863
0.0233618
-0.367183
-0.417789
0.0349957
0.0112876
0.104386
-0.114428
-0.00521343
-0.01707
0.0358978
-0.43205
0.104177
0.485073
0.46058
-0.303812
-0.220804
-0.222323
0.0100627
-0.168356
-0.476181
0.100884
0.00376354
-0.0489834
0.0204863
-0.483309
-0.183881
-0.330516
0.0104954
-0.114004
0.517213
-0.482591
-0.154202
0.0219181
0.34132
-0.137091
0.00463103
0.0214193
0.476548
-0.17937
-0.0645474
-0.137939
0.436172
-0.452904
-0.0852138
0.0727446
0.440283
-0.124446
-0.00110942
0.026532
0.010282
0.000945813
-0.211847
0.271344
0.0711445
-0.486866
-0.150376
-0.0115076
-0.191825
0.331675
0.125905
-0.0765651
-0.0119827
-0.00352157
0.510573
0.393457
-0.0839576
0.00126708
0.388129
-0.334707
-0.214591
-0.129487
-0.0494377
-0.0107931
0.0226209
0.00791713
-0.0842569
-0.438798
-0.137515
0.0310434
0.358007
0.0245027
-0.292293
0.0594527
-0.173536
0.0715903
0.0827271
-0.0843459
-0.242119
0.00484852
-0.00767161
-8.7571e-05
-0.16531
-0.0478754
-0.25358
-0.167304
-0.0826438
0.00461034
-0.0774853
-0.043769
0.025373
-0.430237
-0.00780395
-0.164835
-0.472122
-0.190274
-0.0652982
0.0352193
0.013846
0.0239118
0.00401854
-0.14367
-0.29315
-0.473373
-0.453876
0.471306
0.369717
0.0748148
-0.301777
-0.125525
-0.0914012
0.0330129
-0.0175824
-0.131484
-0.0282523
-0.0140915
-0.1775
-0.217923
-0.32474
-0.249417
-0.222281
0.00915946
0.0163928
-0.0366409
-0.078152
-0.174074
0.0167728
-0.12011
0.453205
0.486803
-0.113915
0.0437368
0.432713
-0.0754213
-0.247226
0.0470265
-0.00494606
0.0164856
0.0317777
0.0149743
-0.201679
-0.217671
-0.149364
-0.16424
-0.154092
-0.00328412
-0.0979634
0.0683018
0.00749386
-0.0702925
-0.423827
-0.220775
-0.00253167
0.419505
0.00194183
-0.142887
0.0691251
-0.0726143
0.0228883
-0.158481
-0.124679
-0.210883
-0.482087
-0.319906
-0.305367
-0.473579
-0.321126
-0.288744
-0.0100561
-0.27497
-0.00538502
-0.479915
0.0235391
0.40051
0.00920267
-0.169551
0.0328096
-0.00155823
0.0378848
0.00341197
0.501654
-0.0181281
0.000834485
-0.00890931
-0.00538448
-0.000746357
-0.0422826
0.0234965
-0.267417
-0.133373
0.0127773
-0.165826
0.0263511
0.00163103
-0.169545
-0.237606
0.0141944
-0.0826121
-0.00511939
-0.00706141
-0.339663
-0.0261367
0.106986
-0.228996
-0.228635
-0.47338
-0.35739
-0.248749
-0.485209
-0.478377
-0.235077
-0.312148
-0.0366584
-0.312303
0.0203107
0.0140385
-0.173517
-0.0585647
0.513193
-0.0247294
-0.112673
-0.103229
0.43974
-0.164494
-0.113537
-0.0452141
0.00453447
-0.108068
0.0258681
-0.00292599
0.438732
-0.0282192
-0.307924
-0.364873
-0.214286
-0.0222817
-0.217136
0.0543766
-0.4846
0.443114
0.0011914
-0.330061
-0.238059
-0.132382
-0.109383
-0.0907258
-0.170899
-0.159845
-0.050777
-0.475799
-0.145403
0.134313
-0.27686
0.0350931
-0.134272
0.0268807
-0.00729153
-0.0230575
0.410692
-0.209335
0.37909
-0.233322
0.020865
0.210109
0.501728
-0.0030368
-0.265372
-0.00971301
0.50732
-0.18429
-0.2798
-0.228648
-0.246912
0.000446406
-0.0312884
0.0231221
-0.474664
-0.111873
-0.0362979
0.0110207
-0.00933596
0.00341057
-0.021104
-0.0410078
-0.167131
0.0650898
-0.0613094