/*--------------------------------*- C++ -*----------------------------------*\
| =========                 |                                                 |
| \\      /  F ield         | OpenFOAM: The Open Source CFD Toolbox           |
|  \\    /   O peration     | Version:  v2012                                 |
|   \\  /    A nd           | Website:  www.openfoam.com                      |
|    \\/     M anipulation  |                                                 |
\*---------------------------------------------------------------------------*/
FoamFile
{
    version     2.0;
    format      ascii;
    class       surfaceScalarField;
    location    "350";
    object      meshPhi;
}
// * * * * * * * * * * * * * * * * * * * * * * * * * * * * * * * * * * * * * //

dimensions      [0 3 -1 0 0 0 0];
oriented        oriented;


internalField   nonuniform List<scalar> 
14470
(
0.00203888
-0.000639458
-0.00140082
0.000258443
0.000170241
-0.00272553
0.0027093
8.30108e-06
0.000126705
0.000169193
-0.000295898
0.000554927
-0.000594067
2.86123e-05
0.00080339
-0.000805446
2.20318e-06
-0.000563121
0.00111369
-0.000550482
0.000112206
0.000304554
-0.000416756
0.00225766
-0.000382383
-0.0018798
-8.15523e-05
-0.00081697
0.000883904
-0.00088581
0.000791759
1.8064e-05
0.00216148
-0.00221144
-0.000819412
0.000376997
0.000442312
-0.00320273
0.00230768
0.000878993
0.0016519
-0.00201263
0.000359824
0.00121295
-0.00121019
-2.37649e-06
-0.00267641
0.000852178
0.00181541
0.000456803
-0.000384348
-7.24522e-05
-0.00100945
0.002129
-0.00118535
-0.00130512
-0.00147028
0.00274469
-0.000183033
0.000183033
7.21983e-05
-0.000358147
0.000285947
0.000364692
-0.000252483
-0.000529449
-0.00029007
-0.000375799
0.00150816
-0.00113259
-0.00215623
0.000666639
0.00147095
0.000221017
-0.00031549
7.60629e-05
0.000787511
-0.0018506
0.000965627
-0.000241183
-0.000724314
0.00023168
9.58037e-05
-0.000327484
-0.000781229
0.00070496
7.63564e-05
0.00246596
-0.0024453
-3.16903e-05
-0.000466927
-0.00193514
0.00238667
-0.000200602
-0.000181183
0.000247748
0.000775322
0.000607171
-0.00138239
-0.00154389
-0.000208425
0.00175084
-0.000189476
-0.00102498
0.00121395
-0.000236023
-0.000307889
0.000543907
-0.00163251
0.00114273
0.000489962
9.63791e-06
0.000956132
0.000395984
0.000216482
-0.000612419
-0.000141555
0.000372973
-0.000231411
-6.32011e-06
0.000215921
0.000308569
0.00197712
-0.00229032
0.000339978
0.00194332
-0.00228968
-0.000203788
-0.000169167
0.000372955
2.87676e-05
-0.00016766
0.000138734
-0.000608198
0.00227943
-0.00168783
-0.000148949
-0.00253842
-0.00101232
0.00178782
-0.000522415
0.000194411
0.00167948
-0.00116857
-0.000510531
0.000473945
-0.000446267
-0.00140645
0.000959582
0.00044688
0.000451163
-0.000324457
-0.0022505
-5.34083e-05
0.00226595
-8.03003e-05
-0.000948018
0.00102876
0.00143852
-0.00206159
-0.00016766
0.00138876
-0.000256054
-0.00113305
-0.000388044
0.000746375
-0.000358305
0.00258238
-0.00261108
1.98945e-05
-0.00185257
0.000327502
0.00152524
-0.000120037
0.000647505
-0.000625515
6.41099e-05
0.00218794
0.000169042
0.000171439
-2.27333e-05
0.00155333
-0.00153136
-0.000138412
-0.0016095
0.00174652
-0.000596597
0.000178563
0.00041806
0.0026855
-0.00117691
-0.00151143
-7.36829e-05
-0.000493132
0.000566801
-0.000249568
0.000447183
-0.000197613
0.0013797
-0.00132963
-5.0098e-05
0.000479315
-0.000736244
0.000256973
0.000336746
-0.00042359
7.71008e-05
-0.000851955
0.00103336
-0.000181383
0.000670718
-0.000270655
-0.000400042
-0.00265763
0.000684509
0.0019691
-0.000442277
0.000452326
-1.24951e-05
-5.68751e-05
-0.000795063
0.000354306
0.0001025
0.00107658
0.000136758
-0.0016307
0.000361114
0.0012692
-0.00168365
-0.00062618
-6.19633e-05
0.000688204
-0.000516315
7.5319e-05
-0.00140427
0.00116972
0.000235323
0.00029618
-0.000532211
0.000223774
-0.000611795
-0.000313209
-0.000100059
0.000413267
-2.50644e-05
0.00044716
-0.000422076
-0.000564959
0.000539921
0.000711249
-0.00120128
0.000490226
-0.000436263
0.000294715
-0.00262941
0.000500673
0.00211733
-0.000205004
0.000684368
-0.00106926
2.75464e-05
0.00104194
0.00167728
-0.000294605
-0.00138312
3.96981e-05
0.000502286
0.000291013
0.000267904
-0.000558938
0.000344867
0.00133486
0.001151
-0.00129059
0.000139325
-0.00214499
0.00244835
0.000873767
-0.000678852
-0.000194843
0.000537014
-0.000253742
-0.000283258
0.00127931
0.000100359
0.00212623
-0.00200283
-0.000171932
-0.00219262
-0.000471526
-0.000157106
-0.000492022
0.000479714
-8.27628e-06
0.000375372
-0.000303174
0.000111531
0.000293049
-0.000404581
0.000266307
7.02268e-05
-0.000336533
0.000672431
0.00200949
-0.000559616
0.00175825
-0.00120952
-0.000773258
0.0021742
-0.00140339
-0.0020115
3.71109e-05
0.00196695
-0.000121347
-0.000298609
0.000419956
-0.00188865
0.00223952
-0.000354236
0.000322869
0.000416189
-0.000739029
-0.00136082
-4.26736e-05
0.000721312
-0.000664132
-5.71347e-05
-0.000144209
-0.00110519
0.00124987
0.00181841
-0.0020286
-0.00217731
0.000284101
0.00122003
-0.000420364
-0.00079937
-0.000181259
0.000412939
-0.000816352
0.00116247
-0.000345749
-0.00126223
0.000446285
-0.00177405
-3.78692e-06
0.00177632
-0.00309616
0.00100013
0.00206953
0.000159126
0.00187827
-0.00165032
-0.000126241
0.00177524
-0.00178259
0.00155451
0.000227802
0.000343885
0.000354752
-0.000698582
1.85541e-05
-0.000691878
0.000673452
-0.0017509
0.000975585
0.000351931
-2.2974e-05
0.00114978
-0.000432124
-0.000717409
0.00053507
-0.000389747
-0.000145315
-0.0011754
-0.00275577
0.000840502
0.00191013
-0.000166114
-0.00115622
0.00132295
-0.000159
-0.00022748
0.000386481
0.000205636
0.000320589
-0.000526212
0.00226314
-8.58206e-05
0.000171626
-0.000376609
-0.00156151
-0.00155556
8.3724e-05
-0.000560462
0.00226573
-0.00172812
-0.000398603
0.000522174
-0.000123568
-6.26533e-05
0.0017392
-0.00103222
-0.00114527
-0.00232416
0.00217935
0.000141112
-0.000436552
0.000630614
-0.000194043
-5.14285e-05
-0.00115843
0.00251632
5.70333e-05
-0.000163272
-0.000617885
-0.00176135
-0.000396311
0.00215347
0.00129292
-0.000122531
-0.00157693
-0.000198283
-0.00218352
0.000853397
-7.83226e-05
0.000393564
-0.000315238
0.000565171
-0.00243163
0.00185853
0.000291799
0.000378948
0.00123641
-0.00109495
-0.000142019
0.000247744
-0.00220116
0.00194772
-0.00197437
0.00220278
-0.000282458
-6.80107e-05
0.000797235
-0.000748565
-0.00148844
-0.00127141
-0.00028212
0.000439391
-0.00015727
0.000484586
-0.000303339
-0.000181246
0.000275815
-0.000778503
0.000502634
-0.00202604
0.00201525
0.000764667
3.89094e-05
-0.000793712
0.000349639
0.000444113
0.000561662
-0.000132856
-0.000428803
-0.00298278
0.00223346
0.000741265
-0.000396138
-0.00130895
0.0017043
0.000605525
0.000268303
-0.000362787
-0.000267547
-0.00109262
0.00204829
-0.00171408
-1.03478e-05
-0.00183028
0.00183343
0.000100409
0.000508454
0.000212935
0.000164047
-0.000413613
0.00024604
0.000238549
0.00121647
-6.57962e-05
-0.00222683
0.000472828
0.00174811
-7.73538e-05
0.000286565
-0.000209213
-0.000474729
7.90569e-05
0.000395671
0.00143652
-0.0013946
-4.23569e-05
-0.00192458
-0.000324324
0.00223431
-0.000142401
0.00171688
-0.00157516
-0.000355347
-4.21005e-05
0.000397448
0.00223202
-0.000948556
-0.00134445
-0.00113467
0.0019794
-0.00117243
0.00124875
-8.52421e-05
-0.000886729
-0.00130359
0.00218747
-0.00075596
-0.00106236
0.00179875
0.00146044
-0.000313377
-0.00114693
0.00193148
-0.00149826
-0.000434136
0.000153669
-0.000460105
0.000306436
-0.00244716
0.0005248
0.00191951
-0.00130464
0.00145334
-0.000148648
0.00205392
-0.0018114
-0.000465115
-0.00157211
0.00203523
0.00063653
-0.000471114
-0.000165408
0.00109866
0.000404405
0.000130671
-0.00188214
0.00191743
-0.000101165
-0.000462788
-0.000133788
-0.000346978
-0.00128411
0.00152805
-0.00173791
0.000209345
-0.00162664
-0.00158748
-0.000465689
0.000809633
0.0012159
-0.00178506
0.000941554
-0.000185155
-0.000756444
-0.000150565
-0.000918442
0.00150439
-0.00228493
0.00036003
2.60734e-05
-0.000386106
-0.00039107
0.000949558
-0.000558543
-0.000409662
0.00112106
0.00273662
-0.000652248
-0.00209473
-0.000218027
0.00129894
-0.00108036
-0.00102152
-2.51189e-06
0.00102379
0.000790305
-0.00081358
2.32528e-05
7.21372e-06
0.000783076
0.000286708
0.000178351
-0.000465062
0.000727007
0.000366711
-0.00109331
-0.000142615
0.00167055
-0.000693389
-0.00115882
-9.06248e-05
-0.000384104
-0.000150448
-0.00213955
0.00226448
0.0002559
0.000420992
-0.000154685
0.000676707
0.00148973
0.00106636
-0.00105658
-1.81468e-05
-0.000335654
0.000731698
-0.00286268
0.00251894
0.000336347
-0.00014219
-0.000359391
-0.00019652
-0.00078397
0.000980867
-7.08931e-05
0.000965469
-0.000894178
-0.00216828
0.000967636
-0.00136445
-0.00137218
6.75769e-05
0.00112403
2.18831e-05
-0.00114579
-0.00162507
0.00140712
0.000217131
-0.00230334
-0.00124817
0.000716368
0.000531942
-0.000350921
-3.38188e-05
0.00038474
-0.000792396
0.0022704
0.000421577
0.000514424
-0.000936043
0.000116317
0.000363843
0.00130302
-0.000112004
-0.00120131
0.000652193
-0.000404661
-0.000368089
0.000329814
-0.00223916
4.27851e-05
0.00219318
0.000102349
-0.000538885
-0.000438424
0.000662802
-0.000224343
0.00153788
-0.00128891
-0.00028768
-0.000466083
0.00167049
-0.000648295
0.00028043
0.000367895
0.000260181
0.000231216
-0.000726037
0.000720467
-3.25478e-06
-0.000236007
-0.000223803
0.000303449
-1.1725e-05
-0.000426682
0.000430951
-0.000509269
-0.00141561
-9.71485e-05
0.00151214
-0.000621029
0.000337932
0.000283109
-0.000876261
-0.000121124
0.00099778
-5.45015e-05
-0.000357973
0.000301961
5.60109e-05
-0.000532127
-0.00167349
0.000111576
-0.000294866
0.00018329
0.000457136
-5.02398e-05
-0.000420159
-0.00108017
5.82602e-05
0.000105738
-0.000284655
0.000178917
-0.000336997
0.000747261
-0.000410279
-0.00035595
0.00110092
-0.000373503
0.0017738
-0.00177911
0.00114839
-7.14982e-05
0.000191811
0.00173864
-0.000203093
-0.00207283
0.00225985
0.00138724
-0.00217367
0.000781844
0.000331275
0.000305266
0.000731752
-0.00110773
-0.00137862
0.000901282
-6.4524e-06
4.6908e-05
-4.83884e-05
-0.000518156
-0.00141736
-6.5033e-05
0.00038876
-0.000459105
-0.0022887
-0.000410043
0.000162035
0.000248006
-0.00258067
0.000688106
0.00184902
0.000150053
0.00223093
-0.00239682
0.000274079
9.39649e-05
-0.000477708
-0.00235382
6.53567e-05
0.000360167
-0.000375237
1.50694e-05
0.000516427
-0.00031078
-0.000821532
0.000464519
0.00035698
0.000248899
0.0012052
-0.00145501
-0.00121863
0.00105308
0.000278156
-0.0012909
0.00115106
0.000139976
-0.000442788
4.41862e-05
-0.00215889
1.00901e-05
0.000349097
0.000313744
-0.00168731
0.000112415
0.00157511
0.00262699
-0.000654316
-8.20382e-05
-1.15517e-05
0.0023227
0.000131649
-0.000507016
-0.000741014
0.000170241
0.000288004
-0.00191643
0.00218642
-0.000273097
-0.000827777
-0.000143804
0.000971397
0.00244135
8.23223e-05
0.00173132
-0.00181564
0.000107768
0.000838533
-0.000946609
-8.67814e-05
0.000967593
-0.000880735
0.00210764
-0.00259079
-0.00202974
-1.57749e-05
0.00203778
-0.0013522
0.00160009
-0.00040674
-0.000321747
0.000728519
-0.000307298
5.32607e-06
0.000301972
-0.00205829
-0.000673254
0.00013006
-0.0021801
0.000293633
0.00154753
-0.00185344
-0.000345853
6.37331e-05
-0.000255888
0.000367465
-0.000402184
0.000501979
-9.97937e-05
-0.00207323
-8.67153e-05
0.00213394
0.00078006
-0.000866775
-0.00100358
0.000175624
0.000547605
-0.000313811
-0.000233791
0.0012161
-0.000511621
-0.000704111
-0.000177689
-0.00199191
0.00214611
9.67723e-05
0.00209622
-0.00221375
-0.00178881
0.00206862
0.00107881
6.99132e-05
-0.000319638
0.00215433
-0.00183846
0.000368351
-4.87985e-05
-0.00031955
0.00137693
-0.001899
0.000512529
0.00239859
-0.00294306
0.000514665
0.000969079
-0.000260985
-0.000708088
-0.000195631
-0.000214414
-0.000220013
-0.000242759
0.000374013
-0.000591509
0.000554954
-0.000263951
-0.00120084
-0.000378658
0.00157923
0.00035249
-0.00011978
-0.000232709
-0.000491622
0.00028753
0.000204095
-0.000168163
0.000454871
9.15747e-05
0.00144285
-0.00153494
-0.000818611
-0.000813782
0.000663466
-0.000644788
0.000124444
-0.000437658
0.000275311
0.000201619
0.000731642
-0.000933568
0.000137829
-0.000383426
0.000236063
-0.00010368
-0.0013123
-0.000406898
-0.00185752
0.00224657
-0.00248453
0.00218736
0.000248194
-0.00213262
0.00180928
-0.00207838
0.00176056
0.000290497
-4.1346e-05
4.1346e-05
-0.000112728
0.000481081
-0.00090259
-1.54741e-05
0.000945379
-0.000929632
-0.00151991
0.0013631
0.000156984
0.000232249
0.000636748
-0.000868843
0.00164152
-0.00183906
-0.0011069
0.00146767
0.000359739
1.10643e-05
-0.000370804
-0.000544088
0.000200747
0.000343339
-0.000630698
-9.82077e-05
0.000728761
0.000147375
0.00106917
0.00255229
-0.0001844
0.00141376
-0.00132266
0.000312719
0.00238713
0.000414453
0.00024799
-0.000662423
0.000705192
-0.00110355
0.000272034
0.000288932
-0.000508927
-0.000542897
0.000831761
-0.000288831
-0.000757635
0.000194573
-6.67974e-05
-0.000335386
-0.000884243
0.0009917
-0.00122282
0.000121379
0.00106532
0.0026653
-0.00250317
-0.000176154
-0.00073201
4.02421e-05
0.000698103
-0.000283629
-0.00205628
-0.000393488
-0.00028256
-0.00020906
-0.000115323
-0.00114506
-0.00147178
0.00110813
0.000352338
0.000371816
-0.000266078
0.000487053
0.00136311
-0.000956157
-0.00224871
-0.00106746
-2.78257e-05
0.0018667
-0.000499831
0.00204587
-0.00148729
0.00052597
-0.000833708
0.000307716
-0.000551548
0.000477851
0.000321573
-0.00136505
0.00104375
0.00116162
0.000274444
0.00193041
-0.00094834
-0.00101868
0.00229383
-6.0731e-05
-0.00224409
-0.00026968
-0.000394399
0.00105892
-0.00103115
0.00254965
-0.00259323
4.66797e-06
-0.00125799
0.00123905
1.0007e-05
-0.000751431
-0.000654988
0.000894761
1.45115e-05
-0.000909494
-0.00119964
0.00152153
0.000106871
-0.000334351
-0.00124065
5.71879e-05
-0.00251757
0.000571276
0.000339136
-0.000610667
0.000271537
0.00091281
0.000979747
4.18876e-05
-0.000392809
0.000217097
0.000344569
0.00180246
-0.0018196
-0.00236513
0.000110558
0.00224346
-0.000645254
0.00202809
0.00138076
-0.000845851
0.00237811
0.000653822
-0.000385934
0.000127944
-0.000145566
-0.000502708
0.0012944
0.00210373
-0.00213523
2.83303e-05
0.00101381
-0.0011576
0.00100642
-0.00119637
0.000150339
-0.00044895
0.000161915
0.00122657
-0.00044671
-0.000148602
-0.00133234
-1.56344e-05
0.000532078
0.000259932
0.00182184
-0.00208494
-0.00232669
0.000562396
-0.00206634
0.000887953
-0.00030829
0.00264592
-0.00063734
-0.00203
-0.00213012
-0.000102269
0.00222059
-0.00201848
-6.46578e-07
-0.00106658
0.00104297
-7.25303e-06
-0.000213616
-0.00154484
0.00175738
0.00171068
-0.00151975
0.000653976
-0.000850184
-0.000286538
0.000283739
-0.000137718
-0.00045771
0.000102362
6.42995e-05
0.00123697
-0.00130158
-0.000630202
8.73277e-05
-0.00038629
2.83169e-05
-0.00214263
9.6134e-05
0.000872939
0.000334697
0.000779091
-0.00217335
0.00183488
0.000984159
-0.00126925
0.000180942
-0.00233999
0.00177451
0.00056146
0.000349015
-0.000903712
0.000554745
0.000766652
-0.000887433
-0.000232253
0.00166863
-0.000105303
-0.00157205
0.000139883
0.0010995
-0.000528885
0.000771686
-0.000242841
-0.000404431
-0.000389243
0.000266376
0.000501568
-0.000719211
-0.00105473
-0.00127195
0.000166536
-0.00108681
0.000920154
-0.000345907
0.00017674
-0.000617126
0.000280113
0.000355692
0.00073914
-0.00109528
6.5313e-05
0.0016424
-0.00170967
-0.000485086
0.000906641
0.000656516
-0.000364689
0.000395837
0.000487169
-0.000882708
0.00161274
-0.00222264
0.000607652
-0.00295318
0.000999908
0.00192888
-0.000305989
0.000459661
0.00257008
-0.00244809
-0.000133147
-0.000440307
0.000789986
0.00078159
-0.000237297
-0.000544183
0.00215423
0.00035264
-0.000221156
0.000652116
-0.00131809
0.00145644
-0.000138404
-0.000295179
-0.000152274
0.000447447
0.00232325
-4.16242e-05
0.000218048
0.00021274
-0.000430786
0.000347842
-0.000665137
0.000317367
0.00180194
-0.000151038
-0.000365151
0.000645613
-0.00234082
-0.000301451
0.000256258
0.000291352
0.000297966
-0.00187176
0.00156373
-0.00235896
0.00220573
0.000138327
-4.44434e-06
0.000788977
-0.00243334
0.00227441
-0.000387098
-0.0018109
0.00230177
0.000856888
-0.00231931
0.00144382
-0.000258577
-0.00133243
0.00158999
-0.00227583
0.00216172
-0.00197723
0.00118686
-0.000722628
-0.000464119
0.00240002
-0.000955497
-0.00144571
-0.00135962
0.000536417
0.000707289
-0.00127737
-0.000937806
0.0014346
7.47128e-05
0.000285026
-0.000543537
0.000714457
-0.000170941
-0.00111385
0.00146894
0.000790204
-2.89482e-05
0.00173857
-6.66409e-05
0.00200015
-0.00193615
-0.000152563
0.00118232
-0.00204177
0.000195347
0.000306634
0.00227819
-0.000195199
-0.000150237
0.000269947
0.000206265
0.000134217
-0.000340481
-0.000307246
0.000523761
0.00115056
-2.64002e-05
-0.000224546
1.9811e-05
0.00016512
-0.000665388
0.00238072
-0.00171988
-0.000707521
0.000701281
-7.50595e-06
-0.000451343
-0.000484798
-0.00192243
3.36762e-06
-0.00104019
0.00133136
-0.000291189
-7.33411e-05
-0.00155904
0.00163071
-2.85948e-06
0.000362888
1.54345e-05
0.000432074
0.000340818
-0.000171776
8.80695e-05
-0.000311064
6.81024e-05
-0.000698443
0.000291731
0.000519175
0.00155646
-0.00208382
-0.000513576
-0.000874676
0.00138917
-0.000346674
0.000312855
-0.00155985
0.00184665
-0.000306387
0.000657446
-0.000351008
-0.00245126
0.00240155
4.24695e-05
7.08202e-05
-9.93509e-05
-3.87437e-06
0.00227431
0.000434964
0.00053649
-0.000848912
0.000312499
-2.00902e-05
-0.000440016
-0.00150374
0.000135168
0.00185455
-0.000876206
0.000120752
-0.000525943
-0.000210589
0.00092707
-0.000275981
0.000494033
0.000230549
-0.0012559
-0.000363391
0.00047786
-0.000193241
0.000827771
0.000205626
-0.000228528
-5.3014e-05
0.000269204
0.00110232
-0.00177179
1.99463e-05
0.00204745
-0.00208153
-0.000423947
0.00107831
-0.00129297
-5.31331e-05
0.00128727
0.00064616
0.000303271
-0.0020174
0.00103893
-0.000290657
-0.00176185
0.00204887
0.000376527
0.000898199
-0.00127436
0.000734812
-0.000710898
-2.38822e-05
-0.000312121
-0.000543563
0.000855864
0.00239077
-0.00017538
-0.000174469
0.000294563
-0.000779304
0.000374903
-0.00014171
0.00228565
-0.00214855
0.00213779
-9.01938e-05
0.000215887
-0.000946333
-0.00111287
-0.000495182
-0.00049276
-0.000286525
0.00156499
-0.00170774
0.000330676
-0.000637018
0.000836017
-6.74384e-05
-0.000768462
0.000916867
0.000231216
-0.00114813
-0.00131866
0.00115654
0.000162212
0.000129486
0.000242331
-0.00167986
2.84966e-05
0.000283999
-0.000735419
-0.000400684
0.000248522
0.000152164
-0.000435609
-0.00026281
-0.000387905
-3.66999e-06
0.000391583
0.000250995
0.000530724
-0.000762021
0.00212258
-0.00102441
-0.000361997
5.46989e-05
0.00149192
-0.00111496
-0.000301291
0.000113172
-0.000548764
-0.0002904
5.27316e-05
-0.000289744
0.00106999
8.07041e-05
0.000796415
-0.000743015
-5.31778e-05
-0.000609163
-0.000395372
0.00100423
0.000143387
-0.000339023
-0.0002818
0.000490787
-0.000208984
-0.000650075
0.00154872
0.000822677
-2.60055e-05
9.39247e-05
0.00096774
0.000656163
-0.000189573
-0.000466579
0.00138094
0.0019953
-0.0014838
-0.000332874
-0.00180332
-0.00214134
0.000276166
0.0018614
-4.03958e-05
0.00109958
-0.000308021
0.000486371
0.000642836
-0.00030489
0.000400939
-0.000137439
-0.000263499
-0.00168984
0.00156233
0.00109244
-0.00123534
0.000162872
-0.000458062
0.000346257
-0.000612217
0.000265954
0.0017782
-0.00178503
4.55591e-06
-0.00102734
7.12928e-06
0.00102061
0.0010195
-0.00148607
0.000355346
-2.85614e-06
-0.000615704
0.00114163
0.00183242
-0.000590962
-0.000230592
-0.000304807
0.000643953
0.000101551
-0.000383347
0.000523758
4.39191e-05
0.00140408
0.000603566
-0.000300745
-0.000302792
0.000243684
0.00121676
0.000706934
-0.000198411
-0.00122024
0.000707399
0.000861343
-0.000628914
-0.000368925
-0.00109605
0.00146483
-0.000127491
-0.00258412
0.00186584
0.000710477
-6.19659e-05
0.00223741
-0.00122896
0.000263202
0.000966057
-2.55111e-05
-0.000152452
-0.000688817
-0.000539791
0.000918853
-0.000605694
-0.000313021
0.000167635
-0.000731974
0.000564393
-0.000119112
-2.69526e-05
0.000131008
-6.06065e-05
-0.000473449
0.000519789
-0.00226792
0.000384643
0.00188011
0.0020271
-0.000102147
-0.00193228
-0.000497743
-0.000139443
-0.00183568
-0.00103305
0.000921799
-8.56526e-05
0.000898749
-0.000549663
-4.38514e-05
0.000176216
-4.39969e-05
0.000815125
-0.000567112
-1.72656e-05
-0.00194918
0.00193241
-0.000267333
-0.000133349
3.61117e-05
-0.00121433
0.00117883
0.000892522
-0.00090472
1.21866e-05
-0.000109046
0.000749539
-0.000401622
0.00202727
-0.000623893
-0.00146792
-0.00183926
0.00126079
-0.000157528
0.00098534
-0.000901794
0.00227219
0.000101668
-0.00123557
0.00107636
0.000159643
0.000120318
0.000412249
-0.000532611
0.000842095
-0.00191958
-0.000998664
0.000696311
-0.000481917
-0.000214398
-0.00126864
-0.000356991
-0.000241922
0.000245552
0.000450745
7.24609e-05
-0.00221346
0.00106976
-0.00076796
-0.00124525
0.00172026
-0.00125205
0.00240777
-0.000169525
0.000618551
7.76769e-06
-0.000626321
0.000265319
-0.000266131
0.000455337
-0.000189203
-0.0017376
0.00199443
5.37912e-05
-0.00208904
0.00240205
-0.00021423
-0.0022158
0.00198354
-0.000380645
-0.00160514
0.00173329
0.000665403
-0.00165026
0.00130288
0.000256998
0.000207821
-0.000464826
-0.00126439
0.00130116
-0.000981449
0.00027649
0.000380061
-0.00132559
0.00106377
-0.000146944
0.00210713
0.000156845
0.000398477
-0.000174138
-0.000224339
0.000113152
0.00165904
3.72124e-05
0.000858684
-0.000964536
-0.000450959
0.000618639
-0.00032591
0.000283809
-0.000655606
-0.00197104
-8.11644e-05
-0.00230793
0.000191164
0.000674375
0.00128956
-0.00134316
0.000689929
2.74577e-05
-0.000717285
3.35432e-05
0.00183517
-0.00187171
0.000486911
-0.000910479
-7.92005e-05
0.00185489
0.0022144
-0.000114896
-0.00081306
0.000501098
-0.000378575
-0.000100134
0.000478712
-0.000977523
0.000867134
0.00011069
0.000292964
0.00194847
-0.00163536
0.00199315
-0.000380948
0.000610449
-0.000940313
0.000329992
-0.00123297
0.000727249
0.000186931
-0.000914048
0.000479514
-0.00262673
0.00210998
-9.86465e-05
-0.00236049
-0.000324206
0.000394433
0.000176008
-0.000229412
-0.000979066
3.14969e-05
-0.000126476
0.000844044
-0.000717612
0.000221488
-0.0001328
0.000466096
0.00123107
-0.00170229
0.00029603
8.61813e-05
-0.000382206
0.000207026
-0.000482522
4.6908e-05
-0.000320276
0.000444718
0.000518138
-0.00112761
-0.000716332
9.02043e-05
0.000874857
-0.00101886
-0.00191792
0.00183244
3.54367e-05
-0.000414008
0.000337717
0.000105171
-0.00229765
0.000103826
0.00218824
-0.00175017
0.00220968
-0.00113162
0.00128094
-0.000149285
-0.000349483
0.000323958
2.55246e-05
-4.81239e-05
0.00133227
0.00218913
-0.00214944
0.0012431
-0.0021533
-0.00247191
-0.00196842
-0.00128812
-0.00130162
6.31719e-05
-0.00045107
-0.00125855
0.000127002
-0.00175671
0.00154203
-0.00171503
0.00165946
2.70323e-05
-0.000298936
0.000432373
-0.000852534
0.00181388
-0.0014548
0.000898714
-1.74153e-06
0.00225407
0.000118472
0.000689506
-0.00208664
0.00139609
-0.000354092
0.000395979
-0.000535652
-0.000312534
0.00084794
0.00181938
0.000281149
0.000134811
-6.29124e-05
-0.0010089
0.00108937
-0.00145845
0.000610668
-0.000305666
-0.000304988
-0.000411899
0.00010264
0.000309259
-0.00277605
0.00037666
0.00238421
-0.00100568
-0.000274879
0.000414957
-0.000140082
0.000746596
-0.000964218
-0.000944924
0.000913672
-0.000715781
0.00101749
-0.000371406
0.000104421
-1.00737e-06
-0.000111663
0.000906704
-0.000896932
-5.27508e-05
-8.64034e-05
-0.000457685
7.25103e-05
0.000634685
1.73449e-05
8.57577e-05
-0.000248592
4.56375e-05
0.00161483
-0.00142175
0.00123539
0.000186442
7.67513e-05
0.00194229
0.00136765
-0.0014654
-0.000754968
0.000956283
-0.000308235
-0.000278551
0.000586776
-0.00125565
-0.00135641
0.000287673
0.002335
0.000169212
-0.000210448
0.00246774
-0.00027268
0.00127789
0.000185429
-0.00146716
-0.0018932
0.00188612
-1.05012e-06
-0.00102977
-0.00167324
-0.000645821
0.00121628
-0.000570053
-0.000853637
0.00022274
-7.868e-05
0.00115777
-0.000833552
-0.000401674
-0.00115152
-0.00178104
0.000361628
-0.000215863
-0.000145765
0.000359605
0.000597873
-0.0009574
0.00217833
0.000194199
0.00116427
-0.000509988
-0.000654445
0.000170651
-0.00035191
0.000355239
-0.00200953
2.73311e-05
0.000122993
0.00209192
-0.00223341
0.000626975
-0.000843763
0.000216865
-0.00102137
0.000376032
-0.000300368
-0.00183671
-0.00130958
-0.000333409
0.00164271
-0.00228693
0.00174851
0.00047925
-0.0014915
-0.000216765
9.40316e-05
0.00033857
0.00043737
-0.000775884
0.00206806
-0.000794001
0.000550436
-0.000612347
-0.00203981
0.00193914
8.0172e-05
-4.76091e-05
0.000828542
-0.000780865
-0.00226731
-0.00016208
0.00238284
0.00193031
-0.000214435
0.000121458
0.00199475
-0.00212083
6.14771e-05
0.00150342
-2.76078e-05
-0.000501334
0.000401392
-0.000195128
-0.00124951
0.00120294
0.000709895
0.000454147
0.00139295
-9.34417e-05
0.00241238
0.000406055
-0.000276567
-6.89472e-05
0.000140327
0.00103841
-0.00117818
-0.00177118
-0.000404005
0.00216698
-0.00142982
-0.000270285
0.000401239
-0.000130955
-0.00206249
0.00216755
-0.00018029
-0.00224958
8.58353e-05
-0.00155361
0.000158999
0.00139453
-0.000890162
-0.00126464
0.00215053
0.000234804
0.000193223
-0.000422185
-0.00190987
0.000296452
0.000361054
0.000478224
-0.000182187
-0.000395449
9.955e-05
7.52363e-05
-0.000618803
0.000171663
0.000189965
7.26868e-05
0.000606756
-0.000885104
0.000278331
-0.000489444
0.000235713
-7.67022e-05
7.44768e-05
-4.57653e-06
0.00185987
-0.000495007
0.00198137
-0.00154272
0.000330805
0.000530725
-0.000173737
0.00229001
0.000196614
0.000258728
-0.000907108
0.00107353
-0.000873132
0.000112237
0.000761105
-0.00239602
0.00204038
0.000352115
0.000296836
-0.000612819
0.000315998
0.000266666
-0.000330939
6.42738e-05
-0.000125492
0.000424534
-0.000299042
-0.0011222
0.00132927
-0.000207023
0.00140961
-0.00131221
-9.71516e-05
0.000157763
-0.000584351
0.000216445
0.000305732
-0.00236825
0.000314476
0.00201803
0.000102279
-0.000412054
0.000309771
-0.000329865
-0.000475479
-0.000670145
-6.142e-05
0.000731599
2.84551e-05
0.000429189
-0.000457623
-0.000426838
0.000605434
0.00177664
-0.000370447
-0.00206873
0.00165741
0.000410191
8.15777e-05
-0.00143339
-0.00034442
0.00141541
-0.00107015
0.000214498
0.000232689
0.000250965
0.000188426
-0.000541322
-0.00134178
0.00183137
0.000333118
-9.99629e-06
-0.000323122
0.000220335
0.00159237
-0.000854516
0.000284114
-0.000592365
-0.000489544
0.00060981
0.00021782
-0.000707442
0.00203235
-0.00195471
-0.00106855
-0.00125503
-0.000175599
0.00143082
0.00174322
-0.001736
-0.000534268
0.000197053
8.09966e-05
-0.00110982
0.00101693
-0.000333278
-0.000172093
0.00050538
0.00036563
-5.28167e-05
-0.000440059
-4.66781e-05
0.00205711
-0.000961757
0.000700387
0.00026146
-1.31912e-05
-0.00056741
0.000898424
1.69685e-06
-0.00144872
0.00144498
0.000481175
-0.000235133
-0.000373433
0.00055987
-0.00018643
-0.000298646
0.000701277
-0.000402611
0.00124947
0.000226547
2.38421e-05
-0.000263995
0.00156033
-0.00156084
0.00021872
-7.42503e-06
-0.00242945
0.0020286
0.000312039
0.000834739
-0.000107335
0.00106456
-0.00144991
0.0020613
-0.00220737
-8.75439e-05
-0.00133956
0.00142733
-0.00029197
0.00039461
0.00161015
-0.00141862
-0.000191626
-0.000197002
0.00203815
-0.00184375
-0.000173689
0.000519943
0.00263145
-0.0025835
0.000306126
-7.06525e-05
-0.00192163
0.000137259
0.00202454
0.000552237
0.00114079
-0.00169418
0.000302794
-0.000303809
1.01533e-06
-0.000814609
-7.40014e-05
0.0003388
-5.68212e-06
-0.00066944
0.000176294
8.33747e-05
0.00198123
-0.000165299
-0.0014734
0.000202616
0.00127096
1.35608e-05
0.000126054
-0.00204222
0.00188481
-0.0022556
-0.000225532
0.00246328
-0.000271503
-0.000234063
0.000505575
0.00128559
-0.000134268
0.00160443
-0.00157344
-0.00112835
0.000935494
-0.000760036
0.000244016
0.00041216
0.00250644
-0.00183752
-0.000461236
0.000877478
0.00226784
-0.00174367
0.00115595
-0.000452552
0.000507324
-5.47742e-05
0.000856015
-2.31658e-05
-0.000832653
-0.000879596
0.00176559
-0.00210197
-0.00216695
0.00212708
2.11111e-05
-0.000291154
0.000398025
-0.000201254
-0.000402543
0.000603777
0.000476346
0.000338812
0.000194894
-0.000314674
-0.00172801
-1.96572e-05
-0.000389532
-0.0017549
-0.000536517
-0.00191546
-2.19952e-05
-0.000302211
-0.000139552
0.00150661
0.000628117
0.000294279
-0.000922156
0.000110253
-0.00146335
-0.000487598
0.00229872
-0.00181829
-0.00175345
0.000395314
-0.000527639
-1.07778e-05
0.000580343
0.00157233
0.00074994
-0.000797484
0.000380448
0.00214221
-0.000296942
0.000169777
-0.000529103
-0.000193775
-0.00131092
-0.00134235
-0.00147762
-0.000551416
0.000453105
-0.000205579
-0.00018987
0.000179538
0.00114398
0.000396026
-0.000173705
-0.000222321
0.00187653
0.000170757
-0.00207651
0.00126348
-0.00019339
-0.00148247
0.00154602
0.000458588
0.000248426
0.000280691
-0.00236716
-0.00017505
-0.00113142
-9.30539e-05
0.00122429
-0.000871762
-0.000165685
-0.000908429
0.00107406
-0.000279655
0.000981874
-0.000585716
0.00030996
-0.000645561
-0.00059225
0.000509725
8.25386e-05
-0.000453156
0.00206333
-4.5136e-05
0.000578736
-0.000533674
-0.000354826
0.000380897
-0.00163876
0.00147543
0.00016339
0.000179919
0.000450719
0.000775588
0.000143436
0.00213861
-0.00249276
0.000339444
0.00151808
-0.00140877
-0.00107771
6.46964e-05
-0.000233182
0.00208034
-0.00121833
-0.00188893
-0.00134183
-0.00176464
0.00169567
0.000206089
0.00215713
-0.00237943
0.00242845
-0.00188978
-0.000542194
0.00213977
0.000466557
-0.000209563
0.000269836
-0.00157957
0.00162248
2.7669e-05
-0.00165189
0.000679967
0.00234759
-0.000444668
-0.00192909
0.00229686
-0.00224578
-5.48171e-05
-0.00112552
-9.39436e-05
0.00121962
-0.000398885
0.000684338
-0.000285408
-8.61393e-05
0.000704689
0.000933287
-2.64564e-05
0.000816233
-0.000392685
0.000319019
-0.000299579
0.000459266
-0.000159684
-0.000914935
-0.000510369
0.00142539
0.000238873
0.000168797
-0.00040767
-0.00107464
0.000524653
0.000550073
-0.000108095
-0.00115386
0.000290242
-0.00157275
0.00175541
-0.000183966
-0.000226374
-0.000238172
0.000464548
-0.000375871
0.000105586
-0.00103142
0.0003089
0.000442554
0.00241509
-0.000193264
-0.00207052
0.00215604
-9.12707e-05
-0.000586527
0.00116198
0.000224033
-0.000340481
0.000116448
-0.00021974
-0.00127836
0.00149783
0.00207626
0.000129431
-0.000108284
-0.000526676
0.000251791
-0.000784108
0.000482966
0.000301214
0.00168111
-6.05707e-05
-0.00119754
0.000641361
-0.00076788
0.000275953
-0.00114465
0.000869055
-0.00141998
-0.000218492
-0.000326438
0.000428714
-0.000253879