/*--------------------------------*- C++ -*----------------------------------*\
| =========                 |                                                 |
| \\      /  F ield         | OpenFOAM: The Open Source CFD Toolbox           |
|  \\    /   O peration     | Version:  v2012                                 |
|   \\  /    A nd           | Website:  www.openfoam.com                      |
|    \\/     M anipulation  |                                                 |
\*---------------------------------------------------------------------------*/
FoamFile
{
    version     2.0;
    format      ascii;
    class       volScalarField;
    location    "450";
    object      ddt0(omega);
}
// * * * * * * * * * * * * * * * * * * * * * * * * * * * * * * * * * * * * * //

dimensions      [0 0 -2 0 0 0 0];


internalField   nonuniform List<scalar> 
18758
(
0.00097718
-0.385495
-2.98169e-06
0.388649
-0.290973
-0.557617
-0.0772978
-2.68016e-06
-0.0515208
2.95529e-05
1.05718e-05
0.56618
-1.7995e-06
0.00619286
-4.4148e-05
-0.1216
0.000782046
-3.06735e-07
-1.68194e-06
5.02783e-05
0.303951
9.52581e-09
0.184034
1.81146
-4.23826
-2.80812e-06
0.170656
-0.380026
0.0248899
6.12339
0.00364217
0.280132
-7.6269e-07
-8.67018e-06
0.00585889
-2.17301e-07
-5.38054e-07
3.03879e-06
2.52329e-06
0.000827937
2.44587e-06
-3.38021e-06
-1.37676e-07
2.11746e-05
14.7453
-2.07248e-06
0.111461
2.16313e-05
3.34348e-05
3.50313e-07
-0.0327171
0.0447068
-9.2609e-07
9.16087e-06
-0.332279
-1.88441
-5.33075e-07
-0.0658451
-4.03832e-06
0.00449026
-0.000964222
-0.0822686
-0.000751837
-2.42477e-05
-9.86243e-07
1.10195e-06
0.0010618
-8.50046e-07
2.00486e-06
0.111334
0.145722
-1.6291e-05
2.95253e-07
-5.48056
-1.5841e-06
-6.10522e-06
0.0106872
-0.208376
-0.00429276
0.0843999
0.149488
19.3253
0.00413972
-0.539886
0.0242482
7.9752e-05
0.38858
-4.97458e-06
-0.0480129
-7.32475e-06
-0.488026
-3.59649e-06
0.479587
8.12892e-08
0.0767789
0.464496
-0.022663
-1.46722e-06
-8.10745e-07
0.120686
2.08761e-05
-0.386083
0.00262905
-0.00019444
0.227421
0.794484
0.845559
-0.238193
8.79191e-06
-6.9447e-06
0.495542
-0.331276
-2.56527e-06
-1.19333e-05
-0.182617
-0.398953
0.0260141
-4.30256e-05
0.4099
0.0190366
-1.23043e-05
1.22922e-06
0.374285
0.179533
0.158825
6.66123
-0.582187
0.963381
0.490696
-3.69475e-06
0.000892824
0.17126
0.499425
-0.000214191
0.00418982
-1.54619e-05
-0.0055562
0.00101125
-1.18011e-06
-0.00124225
-0.00779126
0.0114224
-1.35832e-05
-0.247472
2.03369e-06
-3.55747e-06
0.561956
0.417404
0.00369389
-0.166041
-36.2636
1.1101
6.63421e-05
-2.70968e-07
-0.0187428
3.11413e-05
0.29545
1.98105e-05
-2.13057e-05
-4.28234e-08
-3.57508e-06
0.00562479
0.545727
-1.86995e-05
0.000172566
0.000205961
-1.72769e-06
0.481481
-0.0871062
-0.58672
-0.136817
-2.64654e-07
0.564572
-0.353658
0.00539136
1.2617
-0.157362
-2.22594e-05
-0.000446354
5.47375e-06
-1.90814e-06
-1.49121
0.741695
9.4043e-07
-2.18385e-05
0.227713
-8.19827e-08
-0.293406
-1.11147e-07
1.37029e-06
0.000139528
0.452387
-4.8453e-06
0.00322986
-2.88443e-06
-0.00192754
3.99323e-05
0.164623
-8.98688e-07
9.55257e-08
0.00315191
2.17299e-05
-2.32129e-05
-0.000397839
-1.76103e-06
2.52565e-05
0.00209507
-1.39877e-07
-0.3846
2.15402e-05
-3.19417e-07
-0.000192874
-1.87074e-05
-2.44277e-05
0.0109314
0.274447
0.00915391
0.141723
-1.30989e-06
-0.555297
-3.0151e-07
9.88263e-06
0.00283093
0.386402
-0.164082
0.0023766
-0.00048705
0.000767878
8.82483e-07
-0.000693954
1.58641e-06
-0.00515482
0.0848915
-0.0126169
-1.81574e-06
6.10328e-08
1.05177e-06
-2.55886e-06
0.338803
-3.68836e-05
-2.68953e-06
-2.88332
0.778763
-2.04215e-06
-0.140159
-0.117832
0.0288253
-1.65288e-07
0.116308
4.42926e-05
-4.77558e-07
0.508546
8.97816e-05
4.001e-05
-1.99046e-05
-4.35779e-05
0.227833
0.052745
-1.50416e-05
0.00048153
-1.17338e-06
0.00186579
-6.6747e-07
-0.00058595
2.49434e-05
0.00487236
-0.457179
-1.74146e-06
8.01221e-06
-0.00707393
5.91774e-06
-1.98944e-05
-0.00060626
0.0736675
-0.0367611
-1.40791e-05
-0.002947
1.36716
20.3024
-4.89184e-06
5.81301e-07
1.09187e-05
-4.30295e-05
-1.30962e-05
2.08958
0.935398
-1.42197
3.61424
0.164666
8.99427e-07
-3.03129e-06
-0.00346688
0.406169
2.64615e-05
0.000884074
-0.00427826
1.44562e-05
0.0782175
-1.22825e-06
-0.139978
-0.558328
-2.25828e-06
0.488421
0.000358345
2.02047e-06
5.23611e-06
-0.00227056
-2.37715e-05
-3.85186e-07
-0.189478
-2.49563
1.96671e-06
-0.123637
0.0549036
0.0378188
3.65271e-07
-4.97758e-06
0.0132138
-1.54393e-06
8.90169e-07
7.23159e-07
-7.03351e-06
-0.183111
-0.00279554
1.12994e-05
-1.62063e-05
3.15844e-05
0.000975054
-1.09626e-06
-4.7725e-09
0.340101
-3.52494e-05
0.00923037
0.358363
6.39843e-07
-6.1656e-06
-9.92441e-06
-0.12461
0.338932
1.03023e-06
-4.14632e-07
1.10727e-06
-1.36533e-05
0.000187444
-0.139739
1.5194e-06
-4.98992e-06
6.54714e-07
-0.310663
0.00862195
-0.0683892
-0.000573005
-1.49099e-05
-0.0212155
0.0016262
-5.69565e-05
-1.06815e-05
0.526577
0.460255
0.648328
-1.47236e-06
8.11563e-06
-0.675427
0.0524259
2.54655e-05
8.29398e-07
-0.000230886
-1.26855e-06
0.00011929
-0.0686234
0.141279
0.00653978
1.33188e-05
-0.394675
-7.32712e-06
2.09849e-05
-7.36748e-06
4.07558e-06
0.00538222
1.10951e-05
-0.134197
0.0205025
-1.70633e-05
1.89039e-06
-0.00154532
0.00651063
-0.106402
-7.21529e-06
0.00214492
4.79662e-07
-8.49032e-06
1.18401e-06
-2.00566e-06
0.164657
-0.213489
2.16016
0.44821
-3.32283e-06
-0.00412932
0.307136
-3.58336e-05
-2.61628e-06
0.347599
6.2003e-07
-4.77026e-06
-2.07614e-06
0.00551052
2.71125e-06
3.87022e-05
-0.00105864
0.319449
4.53231e-07
-0.243257
0.000579258
7.5552e-09
5.22841e-06
-7.14746e-06
-2.62015e-07
1.09553e-05
0.00147392
0.000539381
0.934856
4.48729e-05
-6.09026e-07
-0.0117665
0.00869988
0.0701421
-0.131707
0.00583126
-7.87094e-06
-1.99642e-06
-2.12007e-06
-1.72143e-05
0.00679211
0.000667582
0.000247041
6.82389e-05
7.49898e-05
0.151251
0.00246173
-5.83513e-06
-1.97258e-05
-0.102526
-1.58306e-05
0.120714
-1.67344e-06
-3.71247e-07
0.52429
6.38136e-06
5.31351e-06
0.17709
0.00567463
-0.00126735
0.414433
-6.48455e-06
-2.19477e-05
0.0754328
0.516909
0.00012666
-0.000754086
0.00546406
0.062958
-1.3813
0.00444125
-1.36951e-05
-0.00431376
-1.28305e-05
0.00686123
1.59402e-05
0.487118
0.00219826
-1.31869
0.00021775
0.004432
-2.38222e-06
1.683
1.969e-07
0.559392
-7.58233e-06
0.0543795
-1.49968e-06
-0.205499
0.00013545
-1.74217e-06
-8.03342e-08
-2.16742e-06
0.150261
0.632108
-0.1709
0.00106789
-2.56801e-05
-0.00235412
-1.6685e-07
1.162e-07
0.00901082
-3.65014e-07
-7.94027e-07
-0.0026256
-1.66833e-06
-0.00108499
-0.00228449
-6.46084e-07
2.15896e-06
1.1068e-05
-1.95699e-05
3.42239e-05
-0.113387
-0.000100831
6.69914e-05
2.32895e-05
-7.78441e-07
0.0074569
-8.93345e-06
1.11479e-05
5.4747
-0.251941
0.00414323
0.107892
2.14962e-05
1.03471e-05
-0.108751
-1.74818e-06
0.113851
0.00963229
-1.83189e-06
-0.127595
0.440199
-0.000143374
-4.36417e-06
-0.000171054
0.150413
2.84544e-06
1.88478e-06
-4.40018e-05
-2.20805e-05
-3.0189e-06
-2.72466e-06
3.13705e-08
0.276033
1.21259e-05
-0.0143
1.92708e-06
-0.0141635
-0.0939809
-9.06465e-07
-9.98867e-08
1.35504e-05
-9.78514e-07
-2.30667e-06
-1.71349e-05
5.68482e-06
-0.00161246
-0.486889
-4.95092e-07
0.132685
-0.2008
-3.36441e-05
-0.00230747
0.602647
-6.77683e-06
-0.000106501
4.40157e-05
0.100735
1.19135e-05
0.00128156
-1.36416e-05
3.28164
0.000229383
0.00939533
0.000314447
-0.0696557
1.19877e-05
-9.40511e-06
-0.00045149
3.67261
-5.77718e-06
-0.252396
-1.65335e-05
0.331841
1.43427e-06
8.95927e-07
-2.29214e-06
-1.59849e-06
-0.180812
0.241529
-7.48504e-06
-0.00166826
8.80136e-05
0.247776
0.280752
-0.0315171
-0.425036
-3.56589e-06
-0.426641
0.00334205
-7.18134e-06
0.00105882
0.0967712
0.667733
-7.92776e-06
-3.56751e-06
-1.02577e-05
-2.39375e-06
0.334012
-0.000934127
-0.326216
0.25804
-6.34161e-06
-9.36325e-07
0.000442799
4.79353e-08
-3.34329e-06
-1.76462e-05
-3.49681e-05
-0.000954598
0.000265608
-0.0317235
-0.220806
-0.00058957
-1.62721e-06
7.93501e-06
0.0064515
-0.0835354
0.00109496
-2.82036
-0.000244675
-7.74165e-06
-0.00439196
-0.298622
-4.62138e-06
1.12034e-06
0.0344531
-0.454096
0.0170097
-1.51551e-06
0.575277
2.04627
-3.83566
4.38296e-07
-0.0352981
-0.143865
0.367143
1.26447e-05
-5.4269e-08
-0.167016
1.55396e-08
0.0065545
0.13448
-0.0517702
-0.0747942
0.00325335
0.319238
0.00146693
-1.61233e-05
-3.0957e-06
-0.196793
0.373961
-0.139113
0.20198
-1.76126e-06
0.00643516
1.13713e-09
-0.000500505
0.00399697
-0.00599838
-1.72705e-06
-2.05997e-06
-0.00274928
0.201316
-0.175465
-0.227309
-4.91128e-05
1.45102e-05
0.0319047
-7.36261e-06
7.10104e-07
3.2757e-06
-9.47165e-05
0.00407694
-1.30298e-07
0.00393372
-1.48577e-06
-3.57028e-06
-5.29232e-07
-0.315904
-5.58908e-06
-2.38797e-07
0.000476331
7.54619e-05
-6.39094e-07
0.15017
-1.44469e-06
-6.63038e-07
-0.000427531
-1.11407e-06
-2.37574e-05
1.22065e-05
14.5819
-4.54934e-05
8.81623e-06
-0.281372
3.24735e-06
0.406523
-6.9938e-05
-0.0012968
0.342205
0.386996
1.10762e-06
0.136052
1.05649
-2.79814e-06
0.228115
-1.48406e-06
-6.16025e-07
0.000150316
-3.92778e-07
-0.000515081
-0.0305479
1.21593e-08
0.511702
-2.80271e-06
1.25293e-05
0.350654
-6.73058e-07
-0.414856
1.218e-05
-7.29391e-07
1.24157e-06
3.2628e-06
-0.0102875
-0.000335005
-0.279394
-0.000111559
-0.525138
0.00029727
-2.04859e-07
0.0123053
-0.256127
-0.261968
0.00162376
0.0690581
0.0032636
2.13633e-05
-0.00630067
7.627e-06
6.60074
-1.65615e-06
-0.0313556
-9.71449e-06
0.00120461
6.56086e-06
5.94414e-06
0.008075
-2.70141e-06
-2.94552e-06
-2.23091
9.44933e-06
-4.04472e-07
0.000751977
-0.00172051
-0.0084845
1.2038
0.490225
0.00977722
-9.89973e-07
-8.02222e-08
0.433941
2.36626e-06
-0.879264
0.00342089
1.09287e-05
-5.03588e-07
8.37824e-06
5.87683e-07
-4.99855e-07
9.248e-05
1.66496
-0.0595958
0.0715377
-0.000332506
-1.05852e-06
0.00224111
-0.143555
-1.08801e-06
0.00428009
2.20809e-06
0.0180706
-1.57921e-05
0.103835
-1.78597e-06
0.413975
-8.16498e-08
0.0019591
-8.06478e-06
-8.2966e-05
-9.7342e-05
-5.84033e-07
-7.01873e-07
-5.83905e-07
0.116188
-0.614334
0.000244492
-0.479945
-7.33879e-06
0.000665892
2.94809e-05
-0.049839
0.160596
0.000276917
-7.79834e-08
0.00838812
-1.44993e-06
-6.80745e-06
3.19063e-05
-0.110583
0.236818
-0.349952
0.0433617
0.00635255
-1.56816e-05
-9.84084e-06
38.7717
-5.89552e-07
-0.190799
2.79393e-05
-4.53559e-09
-0.235185
-0.512717
-3.39968e-07
-0.284036
2.25361e-05
0.00604928
0.00144313
0.0947236
-0.543991
-1.8779
-2.12197e-06
-3.53272e-06
-0.197416
-1.34108e-05
1.62856e-06
4.50308e-05
-1.40767e-05
0.0380276
0.000512781
0.000370313
-0.342158
0.000551021
0.00580533
3.08139e-07
-1.31939e-06
-1.30385e-06
-2.36381e-06
-0.0613881
0.470836
-0.00714011
-4.62966e-07
-2.42184e-07
-6.80647e-05
-4.99044e-06
0.000140198
4.96804e-05
-36.4906
-0.0771766
0.00369229
0.00156335
-0.00526605
2.16015e-06
0.0287472
-1.01564e-05
0.141193
0.751478
0.334281
-0.0993182
-3.46352e-05
9.41865e-05
13.9566
-0.325299
0.419381
-0.000902496
0.00870813
-0.048547
-1.52043e-06
0.0180603
-0.0863158
0.00694247
-1.62074e-06
2.72786e-06
0.000271087
0.229174
0.00500581
0.00543062
1.94649e-06
-7.1562e-05
-2.0462e-05
-0.160729
5.4914e-06
0.0537312
-3.79067e-09
-2.03163e-05
0.0100445
-9.01782e-07
7.74284e-08
1.93717e-05
2.54667e-05
-1.27682e-06
6.99384e-06
5.81856e-07
0.348471
-0.0402137
0.373067
9.5333e-07
0.0011798
6.83756e-07
0.00456894
0.0214058
5.4687e-05
2.73424e-07
-1.4392e-05
0.397083
0.00284102
5.92281e-05
0.219916
0.00710696
-5.44005e-06
-6.91339e-06
0.434433
-0.0624737
0.000170959
-9.40085e-07
-0.0393895
-1.0057e-06
4.28101e-07
-5.1481e-07
0.266198
0.0170022
-9.92641e-07
-3.61743e-06
-0.368019
-1.0651e-05
-0.0733484
-0.38395
0.00229201
-6.49528e-06
-1.5587e-07
-3.16031e-07
-1.95814e-06
-1.58624
0.148551
-0.0182426
1.38601e-05
0.163225
-4.21694e-06
1.59278e-06
-0.197263
6.75526e-07
-0.338463
-9.58086e-07
3.72731e-06
-1.49481e-05
2.32441e-06
-6.42134e-06
-1.13487e-06
-0.134601
5.03478e-06
-4.62608e-08
0.0112061
0.000328733
-2.45404e-07
-0.0005413
-2.67395e-05
-1.15241e-06
0.0174241
-1.24997e-06
2.93616e-05
0.137086
0.00682556
3.25739e-06
0.00304593
0.00551746
-0.00113961
2.44041e-05
0.00233444
-0.00706358
1.9604e-05
0.000221474
3.39734e-06
-1.59245e-07
1.93399e-07
0.00112275
-2.71459e-05
0.00133612
-6.00321e-07
2.25907e-05
0.00323785
-0.226443
0.00563462
1.14646e-06
-3.71161e-06
1.15684e-05
-0.00197434
-3.21603e-06
-0.393201
3.24633e-06
-1.32245e-05
-3.77428e-06
0.130572
-0.350971
-7.77148e-07
4.63546e-07
-7.02065e-07
0.00330064
-1.809e-06
1.25681e-06
0.197937
-2.05038e-07
-5.32568e-07
-9.86255e-07
0.0029885
-2.10402e-06
2.05882e-06
0.389667
-1.52431
0.121464
0.00278914
-0.375909
-0.000304645
3.00518e-06
5.90703e-07
-0.0836846
8.3039e-07
0.00148759
0.00330707
0.000104672
4.63321e-06
-1.30552e-05
1.46715e-05
1.28918e-06
-1.12351e-06
-0.0392374
-0.109673
-5.34116e-05
-2.18893e-06
-0.0337255
0.00106746
-0.1293
-7.99808
0.00756459
-1.04476e-06
-5.57215e-06
-2.87482e-06
0.0023117
-1.20046e-06
-6.39713e-06
-0.35574
0.0669962
0.000893036
5.05725e-07
-0.000257376
0.00455713
-1.70994e-06
-2.83486e-05
-8.72944e-06
-0.0147829
0.00177487
-9.55962e-06
1.05929e-05
0.000103664
-1.68186e-06
-9.94233e-05
-7.83842e-06
18.3007
-0.00044976
0.00219363
7.00387e-07
-3.61883e-05
-0.362562
0.44257
1.70688
-0.000394951
-0.455123
-1.14962e-06
3.32901e-06
7.78277e-06
-0.00276046
-6.61771e-08
-6.42645e-06
6.403e-05
0.00241462
-1.26128e-06
-2.88773e-08
-2.38709e-06
-1.08945e-07
-0.0235469
0.20062
0.459321
2.17953e-06
-0.438182
8.46524e-06
-7.82111e-07
0.000255114
-3.47942e-06
-0.00159272
1.51476e-05
2.08137e-06
-0.122231
-1.60006
-0.265001
-9.68251e-06
-1.44939
1.82123e-06
0.279413
-0.113936
-3.47553e-06
0.00212246
0.0029581
-1.09331e-06
-1.3149e-06
4.98855
-1.12136e-05
-1.89006e-07
-0.0343736
-1.56632
-1.88722e-06
0.000111574
-8.02433e-07
9.88448e-06
0.00169901
-7.39757e-07
-0.149905
0.000866214
-1.42529e-07
-3.72738
-0.000127451
0.0019271
-6.25457e-08
0.00478696
-1.04143e-05
-0.192693
1.93888e-06
-3.25937e-06
0.268257
-2.93986e-06
-0.332638
-9.81446e-08
-0.000342611
-0.124777
0.0491291
-1.35178e-05
-1.68249e-05
-2.31522e-07
-2.10466e-05
2.64458e-05
8.24667e-06
-1.85896e-06
-0.118426
-4.05945e-07
-1.1269e-06
0.00319743
-0.00380961
-5.80154e-05
-1.84245e-06
2.82391
-0.00130291
3.85331e-06
-9.28989e-05
3.84535e-07
7.18833e-07
-0.074684
-1.38206e-06
-3.36967e-06
1.19857e-06
-0.401536
-1.67746e-07
-6.91914e-06
-0.265695
1.03893e-05
0.137029
0.000225294
-2.1802e-06
-7.76857e-07
-0.409421
-7.90624e-05
1.00214e-06
-0.181723
0.0683807
-2.20593e-06
0.334298
0.00609875
-2.49412e-06
-4.70448e-06
-0.00169553
-1.87059e-07
-0.217253
-1.24861e-05
-1.69978e-06
-3.08251
0.492729
-0.00206195
-5.14746e-07
0.299061
-1.96152e-06
0.14452
0.3023
-3.71374e-06
0.389704
1.77358e-07
1.01564e-05
-9.11046e-05
0.223669
-2.8742e-06
-1.36292e-05
-0.199794
3.08942e-09
-7.93311e-05
-3.03509e-06
-1.77694e-05
0.0407486
-0.00153335
1.77192e-06
-3.09804e-05
-0.673713
-7.88363e-06
1.24129e-05
-7.78235e-05
0.00388164
-2.5868e-06
2.40982e-06
2.07875e-06
-9.98433e-07
6.96894e-06
-1.20654e-06
-2.45564e-05
2.38087e-05
-1.80204
-1.32827e-06
3.56858
-1.08091e-05
4.34906e-05
-3.51818e-07
-2.94721e-05
-1.78595e-05
3.0266e-06
0.219473
-0.197053
1.90734e-05
-1.72835e-06
0.278194
2.32522e-05
0.260055
2.74931e-05
-0.00658523
0.226022
-0.0906578
0.629219
-2.55487e-05
-3.36365e-06
-1.89611e-06
0.476098
8.08682e-07
-2.40336e-07
0.00317701
-5.87339e-06
-9.20838e-08
-1.26644e-06
-0.581174
0.0684194
-5.07806e-07
-0.176093
-0.0188937
-1.41907e-06
-2.14423e-06
-1.51845e-05
0.564727
-1.02351e-06
0.00628031
-7.38918e-08
-1.25241e-06
-4.72965e-06
-3.42919e-06
0.0021199
-1.16171e-06
-1.1585e-06
7.01281e-07
-1.45918e-06
0.00617748
-9.45076e-07
9.42544e-07
-4.39756e-06
1.13813e-06
0.0141066
-0.0489447
-0.000404599
-8.67634e-06
-3.40025e-06
-8.61398e-08
-8.21435e-08
0.378753
-1.19756e-06
4.07439e-05
0.00115463
0.1751
-4.47016e-07
1.38701e-06
0.0156918
-9.50007e-07
-0.000512123
-0.00132996
6.39344e-06
-0.160901
0.644702
5.15651e-06
-0.250539
3.24212e-05
0.00641124
-1.47259e-06
-4.96275
-1.40245e-06
-6.24759
-6.42431e-07
-7.12161e-06
1.92428
-6.25073
-0.00480995
0.0519357
1.08541e-06
-0.16486
-5.80217e-07
-0.434963
0.000548757
-1.10017e-06
-1.64532e-06
-4.44981e-06
-0.000252426
-0.000630638
-0.306249
0.000788845
-4.33758e-06
-2.38201e-06
-2.61684e-06
-0.451811
0.00106945
4.12423e-05
-9.09976e-07
9.59649e-07
4.98715e-05
-0.313547
-4.5872e-06
1.05541e-05
0.00149975
-8.61568e-07
-5.43309e-06
8.30968e-07
0.00014604
-0.0135731
2.06192e-05
-0.000457843
5.44866e-07
-5.38705e-09
0.000798415
-9.35507e-05
-0.00157893
1.67818
-4.43877e-07
-0.282312
0.549399
-0.000416612
-0.247312
3.31406e-06
-0.23009
0.0354978
0.00571285
-2.0573e-06
0.258763
0.00465348
-5.34616e-07
0.000371644
0.349468
-2.96052e-06
-2.2302e-07
-7.07885e-05
-1.84233e-07
0.28472
-1.49869e-06
-4.99834e-06
-6.62744e-08
-6.24055e-07
0.00378664
0.000124696
-0.323631
0.00569662
0.327129
-0.00104606
-2.66316e-09
2.90313e-06
0.111791
-0.250666
6.76854e-07
-9.8168e-06
-0.00293402
-4.64845e-06
0.00843641
-0.327422
0.141545
1.38316e-06
-7.6594e-06
-0.445169
-2.73869e-06
-0.0518728
-0.280289
6.84194e-07
0.0376707
-0.000304846
-0.0203685
3.30715e-06
0.4245
-1.45522e-06
0.00604435
-1.41148e-06
0.000613925
-2.06298e-05
-1.79974e-06
-0.082536
-1.35569e-05
-7.20843e-06
1.09334e-05
0.253714
-1.77368e-06
-8.08539e-07
-0.174383
-2.45088e-06
4.61461e-07
-1.11409e-06
-7.5208e-05
-8.22091e-07
2.47069e-08
-2.9614e-06
2.21124e-08
3.58282e-05
-7.88742e-07
0.00166014
0.28805
-0.0068061
0.164675
2.50531e-05
3.91826e-07
-1.73225e-06
-1.48592e-06
-1.27889e-06
0.189286
0.309425
2.2012e-06
-9.75039e-08
1.78474e-06
-2.41905
-7.17338e-07
0.0160991
0.0276843
0.640731
-0.302927
0.434005
0.287703
-1.1825e-06
-0.114579
0.134391
-0.211536
1.91295e-05
-5.55693e-06
0.000891831
-1.71523e-06
-0.838773
0.00362298
3.98145e-05
2.03242e-05
0.158399
8.91768e-07
-2.79748e-06
-0.260976
0.00265789
-6.26489e-06
-1.26846e-06
0.00110837
-9.62234e-07
-0.259812
5.96655
-0.216223
0.579769
0.0031543
-0.550161
-2.91703e-07
-0.00990421
-1.44183e-06
2.24273e-06
5.35176e-07
0.295085
6.69307e-06
5.44222e-07
2.36927
0.106752
-0.110521
0.00120921
1.51352e-05
-5.54908e-05
0.21842
-0.566265
-0.170132
0.178666
0.00865687
-0.319098
0.00343889
0.274288
0.000113172
0.000781931
-1.51869e-06
-8.00347e-05
8.88092e-05
-7.74476e-07
0.073939
-3.62144e-06
-5.36569e-06
1.95277e-06
-0.360586
-1.71092e-05
-1.77463e-06
-7.21777e-06
2.40648e-06
-0.00159024
-0.00151982
0.472372
-1.42522e-05
0.33518
-7.84266e-07
1.13402e-06
0.000109081
0.000505159
-1.49171e-06
0.660573
0.000785521
-0.242262
-3.73452e-07
0.414523
-0.000219352
2.15989e-06
-7.76734e-07
1.61785e-06
-0.163323
-0.33811
-0.297593
-2.04239e-06
-1.69604e-05
-5.74552e-07
-0.228401
-1.71658e-05
-1.6434e-06
1.10981
1.00176e-06
1.1731e-05
0.291695
-4.33487e-07
3.28482e-06
-1.63637e-06
-4.44239e-06
-1.55654e-06
-1.60661e-05
-1.62608e-06
-1.60282e-05
0.003167
-4.04156e-05
-1.38764e-06
-0.430475
2.6508e-06
-0.177166
-0.52249
-6.2185e-05
0.10454
-0.241399
1.15171e-06
0.00080863
-1.42026e-06
-7.10044e-06
-0.236077
2.12948e-05
-0.103384
8.04862e-06
0.00737256
-1.55314e-05
-1.45494e-05
6.00237e-07
0.574908
0.000335594
0.164707
-3.21691e-06
-0.00963696
9.02422e-05
-1.80082e-06
0.00031467
0.000565206
1.80547e-07
-0.109156
-2.50572e-07
0.00081182
-7.74586e-07
1.79329e-05
-0.000171752
0.00427225
1.91939e-05
0.00329245
-17.6285
5.57924e-05
0.000588875
-3.06619e-07
-0.212916
-0.000517166
-1.38609e-08
-0.00129258
-13.2389
-3.18466
1.8079e-06
4.07418e-06
-6.66466e-07
6.68168e-07
-8.30374e-06
0.161346
6.74508e-05
-1.82897e-06
0.155451
-1.4164e-06
-5.8502e-07
2.0745e-05
-0.0627141
-4.99667e-06
0.626793
0.247352
0.00649348
0.245629
-8.88093e-06
-0.21499
0.156249
-2.11737e-06
9.31089e-05
-6.86738e-06
-1.03913e-05
0.000441139
-0.204672
0.00205906
1.69608
0.102023
-9.20609e-06
-0.123953
4.86481e-07
0.549136
-1.63314e-07
0.155384
0.466227
-7.66087e-07
6.92837e-07
2.37392e-07
0.000227008
-0.000276596
-7.06121e-07
-4.25797
-2.42396e-05
0.000721863
-0.00115767
1.57807e-05
-2.84171e-06
0.175149
-2.88958e-06
0.00582565
4.33862e-05
-0.813741
-1.24008e-06
-7.3826e-06
0.542189
-3.40436e-06
-2.71116e-06
8.68734e-06
-0.000552364
0.000552931
-0.00519935
-1.25202e-05
-3.41319e-06
1.08125e-05
2.50658e-06
-1.23921e-05
-0.273475
-3.13075e-06
-0.000235304
-0.0620514
0.00404415
2.69191e-06
-0.00172283
-4.19097e-06
-3.66061e-08
0.222006
0.0601443
-0.00135846
-3.04349e-07
2.94105e-06
-5.87189e-06
0.00344597
5.12943e-09
-7.42821e-05
-8.55108e-06
7.36287e-06
-1.26247e-06
-2.62602e-06
0.629297
-1.05118e-06
0.22958
-0.202379
2.77598e-05
-1.39252e-06
-0.182066
0.260689
-3.16179e-06
3.23567e-06
0.421998
-9.48199e-06
0.00171921
0.00306177
1.07318
1.53146e-06
-2.02607e-05
-0.000187609
2.18472e-06
-0.52089
-0.0943344
1.1818e-06
8.72512e-06
-6.36375e-05
-1.76953e-06
-0.0125085
-8.62056e-07
-0.000330883
1.43793e-05
1.65915e-05
-1.38749e-06
-1.00205e-05
-0.0251592
-1.13948e-05
-0.18968
0.0036563
-3.43252e-06
-2.11657e-06
-6.85564e-07
-3.69339e-06
-0.183202
-7.21514e-08
-0.0297754
9.72491e-08
-4.27819e-06
-0.000384616
0.0159143
-2.6252e-06
-5.5307e-07
-6.98192e-06
6.81953e-06
5.31671e-06
1.72899e-05
0.672261
-9.54599e-05
-1.3327e-06
0.0105612
-0.342181
-1.07059e-05
0.000126178
0.299685
2.54471e-05
9.4807e-06
-17.7343
-1.78374e-06
0.432674
0.000957976
-1.51958e-06
0.0046161
1.92488e-06
9.99659e-07
-1.08926e-06
0.632149
-3.29745e-06
0.0675664
-0.33488
0.340821
-9.2795e-05
-1.20258e-06
-0.3813
5.26195e-08
-0.94008
-8.43388e-07
-0.0130934
-2.10333e-06
0.00551284
-2.10277e-05
0.319511
6.43929e-05
-3.7915e-07
0.0902206
0.200269
-5.01128e-07
0.036069
-7.93682e-07
9.2199e-06
5.22396e-07
-1.13212
-0.430658
-1.48045e-05
-1.36447e-05
0.526601
-0.00634502
-1.12533e-06
-1.09312e-05
-5.22449e-07
-1.73797e-06
-2.17229e-06
-1.29647e-05
-0.21736
-1.51395
-1.16692e-05
-0.0006225
-7.04636e-05
0.00359856
-6.02378e-07
-0.93952
-0.144273
-0.433594
-3.11688e-06
-0.321475
-0.281455
-1.44243e-06
4.35019e-05
-2.65506e-06
0.00150692
0.187135
-2.63939e-06
-2.3272e-06
-3.41124e-06
3.14174e-05
-8.57338e-07
2.53242e-06
-0.0708663
-1.84827e-05
-0.00318268
-7.3861e-06
4.69099e-07
-9.40482e-06
-1.37549e-06
-0.00381353
0.454309
-2.13154e-06
0.000887698
1.42074e-07
-0.289875
1.39224e-06
-1.33966e-05
0.286375
-3.44301
7.57897e-05
1.60468
0.0758646
-5.72056e-07
-0.000373366
-1.79668e-05
0.000258429
-4.30674e-07
7.88034e-07
0.000636584
1.41007e-05
0.404054
0.0063879
-0.000482757
0.552664
-5.25664e-05
0.00016097
-7.47137e-06
-0.204225
0.661484
0.553447
2.39757e-06
-1.58161e-06
0.290902
-0.121435
-8.898e-07
-0.239819
-8.92357e-07
2.04742e-05
-1.64124e-06
2.15069e-06
7.55272e-07
7.01216e-07
0.00149511
-0.000150162
-6.00915e-05
7.52029e-07
5.22067e-07
-2.59101e-06
-1.59204e-06
-1.66742e-06
-1.36153e-07
1.75199e-06
0.236893
0.257282
-0.123941
1.92821e-05
-0.108544
1.80839e-05
-0.579299
-0.0987077
2.69056e-06
-1.07042e-06
-1.14517e-05
0.000938026
-1.46278e-05
-0.82703
0.513654
1.06226e-05
-3.03416e-06
7.55816e-05
0.0233076
1.60331e-06
0.0500096
-4.22601e-07
-1.70446e-06
-0.587329
1.75257e-06
-3.71297e-06
-6.92598e-07
0.395414
-2.79502e-07
1.80967e-07
0.0535682
7.49938e-07
-6.896e-07
-9.06411e-06
-2.88046e-06
0.000284779
-3.0477e-06
-1.4398
-9.54501e-07
-1.19541e-07
-1.99644e-06
-0.33905
-1.68278e-05
-1.7672e-05
-0.224407
-1.68154e-06
-5.1314e-07
-0.00166825
-0.0332177
-1.47982e-05
-0.389725
-0.233033
1.88313e-05
0.282264
-1.05833e-06
1.53192e-06
0.00558564
5.103e-07
0.140617
0.06999
-1.45508e-06
-6.50153e-05
-7.86073e-06
-0.274857
0.248457
0.000800307
-7.77099e-07
0.117401
4.64453e-05
0.000532783
1.80901e-05
-2.07107e-06
-7.40048e-06
-3.4359e-06
-2.99101e-06
0.0749863
-2.57392e-06
-2.74713e-06
0.000208516
-0.54551
0.0032539
-0.135334
-1.90006e-06
-0.000421945
2.00111e-06
-6.91422e-07
-1.1445e-06
-3.32262e-06
-6.82119e-07
1.43845e-06
-1.60198e-06
-6.60506e-07
-7.72292e-06
-3.80629e-06
-9.64029e-07
-2.81689e-06
-0.405684
-0.528539
-2.56428e-06
-7.20806e-06
0.255639
-4.89402e-07
0.00677496
0.331318
-0.0552648
-0.587744
-2.52059
-0.558051
-22.1046
0.286138
6.02334e-07
2.68826e-05
-7.25944e-06
-0.000279784
1.38478e-05
-2.59942e-07
9.83442e-07
0.302474
7.00511e-07
1.07159e-07
0.421151
8.06233e-07
3.92994e-07
-0.00126828
-2.76484e-06
-1.0083e-05
-4.53736e-06
-5.74419e-06
0.000992774
-0.39785
-1.03891e-06
1.46672e-07
-6.74273e-07
3.83135e-06
-0.000192868
1.42262e-05
3.60797
0.0304782
-2.4157e-07
-0.123757
0.000213341
1.269e-06
0.441932
7.98669e-07
0.00171238
-2.49056e-06
8.69648e-06
-2.99917e-06
-0.131935
-4.94447e-06
-6.1356e-07
-7.21281e-06
1.7248e-06
2.94857e-05
-4.84082e-06
0.240259
-2.26263e-05
-0.000116962
3.88105
-0.405455
0.00579575
0.000271255
-0.443901
-1.4724e-05
-5.7897e-08
9.86845e-06
0.0309389
0.0019676
-0.000239781
1.2894
-5.61054e-07
7.81281
-0.0702136
-0.519108
7.45015e-07
-0.000175925
-3.38934e-06
-0.0060211
0.000257021
0.322412
-0.297193
-7.95546e-07
-1.08607e-05
-0.000150377
1.8521e-06
-1.13585
1.85519e-06
3.6871e-05
-0.0018845
-0.0020185
9.60257e-07
2.28142e-08
-2.59453e-07
-0.000325581
-1.74219e-06
-6.5456e-06
2.66295e-06
-1.48543e-06
8.66217e-07
0.000434633
-1.3401e-06
-2.60344
0.309034
-9.48162e-06
-2.24547e-06
-3.33502e-07
-3.86317e-05
6.38076e-05
-1.06505e-06
0.157209
0.00265386
-3.64445e-06
-1.88301e-06
-0.0982489
0.363681
-1.09971e-06
0.00565627
6.74742e-05
1.15072e-06
-0.249474
-9.06206e-06
-0.00130165
-3.48835e-07
-0.43593
-0.358051
-3.05531e-07
0.000271769
0.133561
-1.68279e-05
-0.0559934
-2.45368e-07
6.13492e-06
0.120712
-0.157306
1.43157e-05
-3.66274e-06
6.08605e-06
-5.87627e-06
-2.20431e-05
-0.0583779
0.336604
0.314157
-6.28832e-05
-1.93482e-06
0.00186283
-1.03716e-05
0.17829
2.99196e-05
0.525702
-6.05633e-07
-5.42798e-07
5.2672e-07
-9.71501e-07
-1.25592e-06
0.00298042
-0.206334
9.03736e-06
-4.51386e-07
-1.45425e-06
-0.465794
1.439e-05
2.05941e-05
-7.14028e-07
0.000134069
0.435517
-3.05742e-06
1.99259e-06
0.000539939
7.61021e-05
-3.47875e-07
0.000371462
-1.18699e-05
1.49385e-05
0.00719711
1.73592e-05
-0.181692
-2.64032
0.00787825
0.162097
-1.06353e-06
-9.86383e-06
1.64382e-05
-0.487362
-1.49492e-05
0.0384678
-3.02332e-06
0.0966866
9.67105e-05
-4.17325e-06
5.49817e-06
-1.53648e-05
0.0312125
-0.000182938
5.64178e-05
-0.0572001
0.0065644
-8.36952e-07
-7.77326e-08
-4.17298e-07
5.69262e-06
0.153796
0.00210493
-1.51762e-06
0.00652167
-4.10257e-07
-0.507217
7.09555e-07
-0.324685
7.09355e-05
-0.513891
0.695207
0.00116332
4.81745e-07
8.8662e-07
-9.01726e-07
-0.348976
-3.60915e-06
0.00182885
0.10423
-1.39179e-06
1.2014
4.31113e-05
1.43703e-06
0.00491081
2.2325e-07
-2.88764e-07
-0.130671
-0.0570465
0.429328
-3.97208e-06
-3.26072e-06
8.5953e-07
-3.4805e-06
3.86703e-06
-2.9017e-07
-0.126169
0.00494084
-0.2306
-7.52255e-07
-1.21128e-05
5.68469
0.0831807
2.86899e-05
-2.41256e-06
-0.250162
1.37012e-05
0.131559
-7.03234e-06
-1.12429e-06
2.27315e-06
-7.42003e-07
-1.46979e-06
-1.08774e-05
-2.19771e-06
0.000214473
-0.160973
0.000256902
0.221235
7.85158e-06
-7.86872e-08
-1.29703e-06
-0.105428
3.14843e-07
-2.5759e-06
-1.27915e-06
-0.155364
-0.0298245
-2.38908e-06
-6.12756e-05
-4.42481e-06
2.46828e-06
4.55915e-08
-1.45285e-06
-2.16977e-06
-0.223553
-1.9023e-05
1.23476e-06
-0.00417702
-4.82351e-06
1.13686
0.00403807
0.00635864
-0.00258637
-1.45121e-05
-1.01565e-06
0.26374
4.28646e-06
0.00495719
-7.85782e-05
-3.93651e-06
-0.000269861
-1.58736e-06
-0.344657
6.55272e-07
4.53243e-07
-0.257806
-9.40016e-05
-0.450897
-2.69442e-06
0.00204138
-0.0134488
2.67491e-05
0.526102
-9.28762e-07
-1.83515e-06
6.14221e-07
-0.00101985
-1.92484e-05
-0.294881
1.30991e-06
0.0007854
0.350956
-0.00189837
1.14418e-06
-0.455335
-6.26873e-06
0.258184
-9.10208e-06
-2.61763e-05
-7.15665e-06
0.47474
2.16052e-06
7.80011e-07
-0.10195
-2.15717e-07
-1.22342e-06
-5.98242e-06
-1.16456e-05
0.0537847
-0.12998
4.2534e-07
0.00123362
1.70718e-06
-0.00851549
5.96561e-07
9.38648e-06
0.00620589
-1.47355
5.44865e-07
5.77099e-07
4.8249e-06
-0.0699748
-0.000479569
0.0023739
-0.504377
-1.0147e-07
-0.736805
-7.16502e-06
-0.00930909
3.07391e-07
1.36087e-05
-0.0179888
-1.22649e-05
7.16523e-07
0.172354
0.0990236
-0.174314
-2.04258e-06
0.674396
0.0123154
-6.92733e-07
-0.0150884
0.451838
2.86943e-08
-2.41727e-05
0.256197
-1.25023e-06
-1.31191e-06
-1.49123e-06
-7.48937e-07
-0.000545265
-0.000422269
0.000236379
0.229743
2.15584e-08
-0.00680977
-3.70657e-05
-2.07347e-05
-1.99344e-05
0.000149979
-4.32e-06
-3.50007e-07
-0.0771732
0.0789738
0.648278
6.48379e-07
0.000147637
-9.9832e-07
0.381537
-1.53838e-06
-5.25266e-05
-0.144857
-0.145495
0.000421413
9.20241e-08
-0.0681049
0.403213
1.13585
1.38457e-06
-1.03787e-06
-2.65567e-06
-0.55626
0.000109743
0.0068491
-0.165284
4.38235e-06
-6.55231e-07
-0.0228193
-2.5047e-06
-0.00222524
-4.80491e-07
-5.615e-06
4.67269e-07
-0.992465
-3.28951e-06
0.00220295
-1.54314e-06
-1.57433e-06
-2.08652e-06
0.143653
-0.105098
-1.79298e-06
-0.913672
1.5031e-05
0.474723
1.1779e-06
5.66396e-07
0.00369947
-5.99839e-06
1.50619e-06
-6.45258e-06
-0.00103516
9.0453e-05
-0.00819105
-1.40761e-05
0.00172834
-0.398094
-1.37356e-05
-6.25485e-06
-4.62364e-06
-0.343009
-0.000134925
-0.00166951
0.00360428
-8.31716e-07
-9.2628e-07
-0.00315679
-4.02766e-06
-13.5256
0.156223
-1.4228e-05
-0.035886
0.849768
0.0603516
0.00156657
-1.97779e-05
-1.97148e-06
0.010737
-0.121281
-9.31606e-07
-7.664e-07
0.349497
-4.49791e-07
0.00961892
3.46711
0.005281
1.03703e-08
0.00572208
-4.70456e-06
-1.51397e-07
-6.9662e-07
-0.264254
5.31532e-06
0.00204149
0.000286661
-1.60623e-06
-2.57519e-07
-0.0927169
7.81104e-07
-7.55343e-08
0.00104405
1.60826
0.000489934
-2.5971e-07
-3.65089e-05
0.0449661
0.579535
6.81712e-05
0.0968633
0.0048187
0.000671775
-0.000871021
-1.67872e-06
0.0108258
-0.000866479
-1.80863e-07
5.28196e-07
-1.43782e-05
5.47534e-06
0.0138467
-0.0167673
-4.83359e-07
0.0875038
-0.000782563
-15.1893
0.586141
-0.00539697
0.322104
0.00323655
0.338496
0.000162272
-0.0221849
0.00248749
1.39322e-06
-6.7957e-06
-0.489229
0.303517
0.00397413
0.418194
-5.5681e-06
0.00310132
0.124101
-1.2711e-06
-2.49324e-06
-6.07114e-05
0.000987217
0.230576
-0.0449752
0.00850154
-1.7583e-06
1.4748e-06
-3.63844e-07
0.0223977
-1.47391e-05
-0.00153524
-2.21002e-05
0.486173
0.00903241
0.325239
4.73392e-05
0.366712
-3.66773e-06
-1.60052e-06
1.87727e-05
-5.66074e-07
0.174184
-0.00882893
0.430311
-4.20925e-07
0.175721
-0.0517989
-1.43911e-06
-3.23475e-05