/*--------------------------------*- C++ -*----------------------------------*\
| =========                 |                                                 |
| \\      /  F ield         | OpenFOAM: The Open Source CFD Toolbox           |
|  \\    /   O peration     | Version:  v2012                                 |
|   \\  /    A nd           | Website:  www.openfoam.com                      |
|    \\/     M anipulation  |                                                 |
\*---------------------------------------------------------------------------*/
FoamFile
{
    version     2.0;
    format      ascii;
    class       surfaceScalarField;
    location    "400";
    object      meshPhi;
}
// * * * * * * * * * * * * * * * * * * * * * * * * * * * * * * * * * * * * * //

dimensions      [0 3 -1 0 0 0 0];
oriented        oriented;


internalField   nonuniform List<scalar> 
27907
(
-6.05985e-05
-0.000142302
0.000202913
-0.000124972
0.000166427
-4.14528e-05
0.000185923
8.75157e-05
-0.000235013
9.77214e-05
-0.000185098
8.73779e-05
0.000102086
-0.000156866
5.478e-05
-7.70557e-05
0.000153033
-7.59771e-05
-0.000101444
0.00011326
-1.18162e-05
-0.000528563
-1.41216e-05
0.000560442
-5.42538e-05
-0.000128629
0.000182891
-0.000216993
0.00037748
-0.000160246
-0.000561312
0.000286458
0.000275649
8.02751e-05
6.19479e-05
-0.000142223
8.29848e-05
-3.66593e-05
-2.59623e-05
0.000164104
6.33085e-05
-0.00022739
6.9822e-05
0.000406063
-0.000474717
-8.64702e-05
0.000179403
-9.29317e-05
0.000368783
-0.000273105
-9.55369e-05
0.000686538
-0.000196505
-0.000479451
-0.000609827
0.00058156
3.10529e-05
0.000107504
0.000236606
-0.000343954
-6.72902e-05
0.000112677
-4.53867e-05
5.33841e-05
4.65205e-05
-9.83092e-05
9.21328e-05
-0.000149522
5.73899e-05
-0.000105291
-3.99605e-05
0.000145254
-0.00020295
0.000115934
8.70188e-05
2.3811e-05
-0.000532714
-0.000164034
9.23057e-05
7.17287e-05
0.000118786
-0.000154702
3.59161e-05
0.000131123
-0.000169683
3.85608e-05
-0.000131859
1.40598e-05
0.0001178
-0.00019572
0.000315108
-0.000119324
0.000118598
-4.87198e-05
-6.98779e-05
1.81233e-05
1.02702e-05
-1.85814e-05
-1.80089e-05
0.000486013
-0.000466678
9.76087e-05
-0.00024758
0.000149994
7.8572e-05
0.00026651
-0.000343918
-1.46116e-06
-2.23919e-05
3.0483e-05
0.000121899
-0.000602786
0.000483149
0.00057471
-2.34834e-05
-0.000549433
0.000382198
-0.000145777
-0.000236288
0.000274052
0.000377875
-0.00064959
0.000267267
0.000195474
-0.000462535
-0.000679215
0.00016705
0.000519982
0.000386894
8.38437e-06
-0.000395033
-0.000138122
-7.99899e-06
0.000146122
-3.22227e-05
-0.000206704
0.000265041
-2.58528e-05
0.000117986
0.000360788
9.81765e-05
-0.000458364
0.000210164
-0.000426883
0.000587203
-2.71918e-05
-0.000550553
-0.000158221
-5.96246e-05
0.000217862
0.000114052
4.02817e-05
-0.000154333
-0.000169
0.000422395
-0.000233206
-0.000193769
-0.000366679
0.000120705
-1.91819e-06
0.000175738
-8.76606e-05
-8.80754e-05
-2.94421e-05
3.45095e-05
-0.000134462
-7.85443e-05
0.000488326
-0.000597649
0.000110737
2.79903e-05
-0.000231509
0.00020354
-0.000262554
8.2595e-05
0.000179975
2.0781e-05
-0.000122225
-0.000189985
-3.85865e-05
0.000228592
0.000245264
-0.00054157
0.00029674
0.000187872
-0.000339028
6.96644e-05
0.000493341
-0.000562082
0.000354704
2.1601e-05
-0.000376167
-8.3713e-06
3.47537e-05
0.000675903
-8.6592e-05
-0.000586297
0.00012709
-1.30378e-05
-4.14657e-05
-7.3562e-05
0.000115028
0.000544031
-6.15406e-05
-0.000481991
3.36697e-05
0.000562609
8.93101e-05
-0.000123948
3.46384e-05
0.000654973
-6.29492e-05
-0.000581358
-0.000462097
0.000645145
-0.000181393
4.46078e-05
-0.000219658
0.000175058
-0.000131887
0.00012489
6.99704e-06
0.00016578
-0.000248112
8.23442e-05
-3.85651e-05
-8.48612e-05
0.000123426
6.60493e-05
7.21193e-05
-0.000138168
-8.82711e-05
-5.76803e-05
0.000145953
-0.000146914
0.00017492
0.000172164
-8.25987e-05
-8.95653e-05
-0.000143242
0.000187858
0.000290313
0.000153752
-0.000443781
7.0274e-05
7.38737e-05
-0.000144147
6.32178e-05
-0.000253181
-6.88418e-05
-4.27086e-05
0.00011155
-0.000661289
0.000200962
8.71272e-05
8.50374e-05
0.000620084
-0.000130261
4.3958e-05
0.000108311
-0.000152268
-0.000188841
0.000456297
0.000106373
4.18585e-05
-0.000148231
-7.29483e-05
0.000116907
7.038e-05
-0.000213613
0.000192155
0.000472176
-0.00074195
0.000231911
0.000512688
-0.000120411
5.31212e-05
-0.000162197
0.000344235
-0.000181885
-0.000168876
5.92835e-05
0.000109593
0.00020196
-0.00025642
5.44957e-05
0.000301935
-6.9919e-05
-0.000231947
7.25243e-05
4.60735e-05
2.40247e-05
-0.000155883
7.7217e-05
8.4674e-05
-0.000161889
2.82486e-05
-0.000160135
0.000493551
-0.000624354
0.000131992
-0.000515298
2.47548e-05
0.000490709
-0.000142168
6.92198e-05
-2.03524e-05
0.000564127
-0.000509787
-3.64351e-05
0.000645603
-0.000122295
-0.000521575
-5.81186e-05
-8.2873e-05
0.000140993
-9.29212e-05
0.000103435
-1.0514e-05
7.80613e-05
4.72306e-05
-0.000125292
0.000481974
-0.000411004
9.9874e-05
-0.000151433
5.15593e-05
-6.74634e-06
0.00011312
0.000419272
-0.000301827
-0.000117275
-0.000104922
-0.000336583
0.000442211
-0.000151407
1.37817e-05
0.000137626
0.000142974
-0.000115756
-2.72171e-05
-0.000176282
9.68003e-05
7.94847e-05
4.21078e-05
-0.000180227
4.65712e-05
-0.000171541
-0.000194253
2.94427e-05
0.000164814
-1.83576e-05
0.000126669
-2.18762e-05
3.43125e-06
4.37295e-05
0.000251933
0.000116979
-9.37838e-05
-7.02488e-05
6.83226e-05
4.43543e-05
-8.00802e-05
0.000246962
-0.00016685
-1.1657e-05
-9.58709e-05
7.09106e-05
0.000317822
-0.000388422
-1.38593e-05
-0.00020579
0.000202564
0.000179756
-7.18123e-05
-0.00066646
-0.000264907
0.0002047
6.02142e-05
-3.46494e-07
0.000166136
-0.000193402
0.000143727
4.96785e-05
-0.000368369
-0.000207014
0.000577125
6.64544e-05
0.000109285
-0.000222069
0.000498022
0.000533194
8.00426e-06
-0.000538771
-8.50532e-05
-2.76111e-05
0.000112664
8.64009e-05
-0.000145334
5.89335e-05
-0.000302049
0.000106393
-0.00017079
2.65778e-05
0.000144214
6.75834e-05
-0.000155853
-0.000139099
0.000160319
-2.12179e-05
0.000219024
-0.000437336
0.000218601
-7.81001e-05
-4.37707e-06
8.71226e-05
-4.53147e-05
-7.52351e-05
0.00012055
0.00046551
-0.000310609
-0.000154549
0.00012772
-2.78456e-05
-7.02704e-05
0.000431628
-0.000703358
0.000385545
0.000318821
2.53533e-07
2.65417e-05
-2.59004e-05
-0.000655549
0.000156285
0.00050588
-9.16189e-05
-9.42251e-05
0.000185858
-6.50287e-05
-7.1752e-05
0.000136781
-0.000276503
-0.000425734
-6.35064e-05
-0.000199031
1.85894e-05
0.000112535
-0.000621116
0.000619249
4.53013e-06
5.9763e-05
-0.000152614
9.28514e-05
0.000108992
7.96579e-05
-0.000188642
0.00014982
-7.50251e-05
-7.47948e-05
4.85751e-05
7.4667e-05
-0.000123242
0.000317077
0.000377905
-0.000140266
7.52381e-05
8.57109e-05
5.15879e-05
-0.000137299
-0.00019417
0.000102565
-0.000186182
8.08947e-05
-5.94438e-05
0.000158793
-9.93481e-05
-0.000170143
0.000415751
-9.62771e-05
-0.000168619
-2.00076e-06
0.000527181
-0.000523308
0.000517694
-6.4979e-05
-0.000434942
-6.49521e-05
-4.47105e-05
-0.000145877
6.78073e-06
-0.000751296
0.000241917
0.000516123
-0.000505601
0.00013293
0.000373192
0.000218401
-0.000153807
-6.45901e-05
0.000117878
0.000462347
-0.000577988
4.22133e-05
-0.000135134
0.000625885
-2.87264e-05
-0.00058715
5.43273e-05
-0.000587008
0.00053451
-0.000220525
0.00014047
4.75221e-06
-0.000199001
-0.000543165
0.000207064
0.000337106
-0.000211439
-9.05387e-05
-0.000328096
0.000294485
3.36848e-05
-0.000158585
0.000221823
-0.000217503
0.000325155
-8.45131e-05
0.000193512
4.27161e-05
-0.000265465
0.000232387
-0.00063089
-3.89298e-05
0.000239524
-0.000105551
-0.000133965
0.000432251
-0.000501847
-0.000236275
-8.55069e-05
0.000321914
-0.000246433
1.64186e-05
0.000230046
7.00873e-05
3.11815e-05
-6.69424e-05
-0.000261061
-0.000242737
-1.35068e-05
0.000256277
3.9747e-07
-7.5132e-05
-4.28628e-05
0.000110936
-6.8073e-05
-0.000171755
0.000382167
0.000669026
-0.000193711
-0.0004656
0.000227959
7.40341e-05
0.000626167
-0.00042751
-0.000197585
-0.000164225
-9.68826e-05
0.000261205
0.000151499
0.000101699
-0.000253184
-0.000170834
8.31428e-05
8.76912e-05
0.000194183
-4.26733e-05
0.000178188
-0.000100744
-7.74435e-05
-0.000696916
0.000321355
0.000388341
-0.00014878
7.17247e-05
0.000482301
2.50168e-05
0.000469433
2.38366e-05
0.000155691
-0.000179519
4.24486e-05
-0.000127502
-0.000198204
0.000128585
6.96252e-05
1.78773e-05
-0.000260578
0.000317397
1.38782e-05
-0.000331211
-0.0001678
-9.18136e-05
0.000259658
-0.000361164
-0.000220737
0.000588014
-0.000291365
6.54809e-05
0.000225915
-0.000431522
0.000501951
-0.000251346
9.27855e-05
-0.000120875
-2.24794e-06
0.000123123
-0.000110059
0.000180447
-3.32628e-05
1.41868e-05
-0.000521749
0.000642013
0.000330756
-0.000685089
7.85417e-06
0.000260388
-0.000242926
-0.000168315
1.69091e-05
-7.68984e-05
-0.000204366
0.000281387
-0.000611713
0.000596332
2.14328e-05
-0.000199361
0.000116542
8.28224e-05
0.000147704
-7.04849e-05
-0.000257162
0.000472433
-0.000214357
-1.00397e-05
-0.00016075
0.000116756
-5.24075e-05
-6.43489e-05
7.26829e-05
-0.000182735
-0.000301865
0.000381342
5.05571e-05
8.75247e-05
-0.000138081
-0.000195969
0.000360502
-0.000164465
0.000306955
-0.000414013
0.000108353
-8.61919e-05
0.000145956
0.00035217
-6.16238e-05
0.000197042
-0.00039294
-0.00060307
0.000190506
0.000413978
0.000389177
-0.000347073
-4.19862e-05
-4.74959e-05
0.000173717
-0.000126216
5.48095e-05
0.000123379
0.000144618
-0.000308735
0.000129235
0.000107537
-0.000236758
-0.000660442
0.000649748
-0.000101468
0.000294196
-0.000192674
0.000477951
0.00013306
-0.000606763
4.06791e-05
-0.000287076
0.000233739
-0.000405228
-0.000124314
0.000148159
-9.6051e-05
0.000110755
-1.47037e-05
-0.000183069
-0.000497891
-0.000607026
0.000162373
0.000445914
-3.93277e-05
-0.000115561
0.000154892
-0.000451664
-0.000154042
-0.000343344
-0.000161645
-0.000274909
0.000144836
-0.000167746
2.29103e-05
-2.41513e-05
0.000102213
0.000631141
-0.000642353
1.30443e-05
0.000284179
-0.00019473
-8.94253e-05
-3.74117e-05
9.49703e-05
-5.75585e-05
9.59883e-05
-0.000153667
0.000189302
0.000312838
-0.000501328
-0.00068701
0.000681503
1.03871e-05
1.15523e-05
0.000272148
-0.000283468
0.000240085
-0.000316848
0.000213776
-0.000580441
8.02212e-05
-0.000117633
-9.15185e-05
-0.000107839
-0.00018963
0.000145599
4.40342e-05
-4.13399e-05
-0.000146727
-4.29891e-05
0.000626497
-0.000576399
0.000250895
-3.74724e-05
-0.000288378
0.000153788
0.000134624
-8.37847e-05
-8.70486e-05
7.68534e-05
0.000350648
-0.000427405
-0.000118862
0.000183507
5.11659e-05
-0.000234651
-0.000410407
0.000107065
0.000303593
0.000116607
-4.90925e-05
-0.000557822
3.71662e-05
-0.000146603
0.000109442
6.72219e-05
0.0002404
-0.000244752
-0.000148051
0.000101935
4.61162e-05
-0.000199275
-9.6596e-05
0.00029594
0.000539929
0.000138739
-2.05688e-05
0.00033993
-0.000319163
0.00027968
-6.60725e-06
-0.000273039
-0.000278408
-0.000185745
0.000465362
-9.05989e-05
0.000398999
9.17521e-05
2.83932e-05
-0.000120145
-3.54031e-05
-0.000154221
-0.000111146
-0.000456319
0.000571312
-0.000112225
2.21805e-06
0.000110007
0.000129384
-0.000123767
-7.44298e-05
-0.000580465
-6.97507e-05
0.000653595
4.07944e-06
-0.000107561
-3.46397e-05
0.000142204
-0.000546772
0.000290635
-0.000673143
-7.0129e-05
-0.000712731
0.000269517
0.000446191
-0.000470941
4.4748e-05
0.000426352
-0.000108168
0.000187833
5.82197e-05
0.00022149
0.000307674
-0.000295869
-0.00039075
0.000186505
-0.000112325
0.000349092
-0.000364431
0.000143942
-0.000569821
-8.59512e-05
-7.60997e-05
7.72322e-05
0.00017555
-0.000146103
-0.000290689
0.000168831
0.000121896
0.000195198
8.89964e-05
-5.34155e-05
0.000151138
0.000374763
-0.000297829
-0.000200284
-0.000341816
-2.71923e-05
5.53695e-06
5.25359e-05
-9.94956e-05
0.000136667
-8.4185e-05
-6.38654e-05
-0.000275294
0.000612249
0.00065525
-0.000178023
-0.000466836
0.000332387
-0.000601229
-0.000310936
0.000382152
0.00015076
-0.000318509
-8.93164e-05
-0.00011363
-0.000611441
0.000507505
-2.1092e-06
-0.000497327
0.000499678
-1.23908e-05
0.00058174
-0.000560646
-0.000186456
9.9987e-05
-0.000140164
-5.32329e-05
-8.04692e-05
0.000221579
-0.000141098
-0.00027714
0.000160629
0.000116522
-0.000184102
-0.000309593
0.000494894
0.000145382
-0.000176433
3.10551e-05
-0.000226382
0.000165799
0.000377355
-0.000253168
-0.000124042
-0.000336505
0.000172921
0.000163633
-7.11574e-05
7.90193e-05
4.3247e-05
-0.000122266
7.89632e-05
0.000139442
-0.000286257
0.000290005
9.30579e-06
-0.000236019
-9.82771e-05
0.000334427
-0.000189772
0.000105829
8.39457e-05
7.96655e-06
0.000136871
0.000500338
-0.000325335
-0.00017461
-0.000611176
0.000575192
0.000112349
-0.000280168
0.000167873
0.00026445
0.000374266
-0.0006362
0.000387214
-0.000296424
-9.05482e-05
-0.000119213
0.000178562
-5.93469e-05
-5.9302e-05
-9.33917e-05
0.000152695
-0.000233437
1.95646e-05
0.000213897
0.000249579
-0.000361737
3.86455e-05
-0.000134696
0.000456202
-0.000599083
0.00014396
0.000436993
-4.12679e-06
0.000589629
-0.000512102
-7.53128e-05
-4.80761e-05
0.000624512
0.000286003
-0.000138696
-0.000147276
-0.000302033
0.000454234
-0.000151669
1.00089e-05
-0.000122234
-5.1878e-05
-0.000113997
0.000165879
-0.000186443
-0.0004152
-0.000605447
0.000498431
0.000134876
-7.21874e-05
-6.26882e-05
3.15519e-05
-0.000264959
-0.000159335
0.000105087
0.000591534
-0.000134283
-0.000229986
0.000282783
-5.27163e-05
-0.000618349
-6.35947e-05
0.000193375
-0.000440661
0.000247469
0.000150972
-0.000487187
-0.000584818
0.000414573
9.75071e-05
2.73839e-05
-0.000124891
-9.86639e-05
5.58011e-05
5.00717e-05
6.41405e-05
-0.000114212
-7.18932e-05
-7.32331e-05
8.86119e-05
1.31673e-05
-0.00021672
0.00015935
5.73787e-05
0.000147251
-7.08249e-05
-7.64262e-05
0.000281125
0.000108146
0.000148911
0.000430689
-0.000209902
0.000156488
0.000634676
-0.000625612
-5.09951e-06
-1.64346e-05
-0.000506421
0.000525058
5.61783e-05
0.000478705
0.000127283
0.000158741
-0.000539281
0.000565585
-2.51688e-05
-6.01546e-05
0.000447301
-0.000144074
-0.000133053
-0.000166467
8.29152e-05
8.35523e-05
-0.000100995
-0.000607636
0.000124535
-2.24488e-05
0.000252945
5.5908e-05
-0.000308755
-0.000600314
2.38098e-05
-0.000488178
0.000240361
0.000248295
0.000136064
0.000509313
-0.000643901
0.000470978
-8.24498e-05
-0.000327716
0.000166913
9.05421e-05
-0.000257405
-0.000181161
-0.000183221
5.57674e-05
6.09892e-05
0.000238077
0.000181306
0.000167005
0.000352518
-0.000518095
-0.000136265
9.69409e-05
-6.00803e-05
-8.46171e-05
0.000144698
0.000179746
-0.000124028
-5.57149e-05
-7.92895e-05
0.000127865
-0.000259514
9.31615e-05
0.000166383
0.000189174
0.000344472
-0.000532767
-0.000469036
-0.000100848
-3.02652e-05
-0.000574527
0.000541245
8.58369e-05
0.000275522
-0.000255927
0.000340225
-0.000207706
-0.0001324
-0.000340124
-2.59015e-05
0.000366241
0.000145456
-0.000344652
0.000373023
-0.000188602
8.57317e-05
0.000102874
0.000219868
-0.000367234
0.00050441
-0.000117673
-0.000272902
6.90631e-05
-0.000137905
-0.000301176
0.000469057
-0.000167298
-0.000173147
0.000113847
3.75018e-06
-5.16027e-06
-0.000585984
0.00012816
-8.69667e-05
-4.11928e-05
-0.0002553
0.000347146
-9.17189e-05
0.00041227
-0.000579879
0.000168923
0.000135958
-0.000183449
-0.000126324
0.000223954
-0.000153064
-0.000135284
-0.00013504
0.000116683
0.000232026
0.000414128
0.000186048
-0.000498456
0.000313005
7.8659e-05
0.000140561
-7.86122e-05
-0.000410492
0.000303157
0.000107376
-0.000139882
-9.01356e-05
0.000230047
-7.25996e-05
0.000236724
-6.50573e-05
-0.00012354
-0.000111314
6.26051e-05
4.87086e-05
-0.000168178
0.000565437
-2.09202e-05
-6.94157e-05
0.000203084
-0.000133652
2.53285e-05
0.000621958
6.83918e-05
0.000207157
0.000494384
-0.00038213
-0.000111417
1.22477e-05
-0.000147288
7.52426e-05
-0.000305145
-0.000110734
-7.90356e-05
6.32246e-05
-0.000403109
-0.000324049
0.000200651
0.000123454
0.000273378
-0.000137954
9.79956e-05
-0.000581869
0.000625076
-4.76022e-06
8.37795e-05
8.12876e-05
0.000510351
-0.00014677
4.84138e-06
0.000141933
0.000247803
-0.000549657
0.000305693
-9.86985e-05
-6.16165e-05
0.000160319
0.000300856
8.65891e-05
1.50504e-05
0.000470722
-0.000480755
0.0008004
-0.000565417
0.000483752
-0.000412254
9.64582e-05
-0.000178654
8.21972e-05
-0.0001227
0.000106765
1.59346e-05
-0.000131184
7.30661e-05
0.000274632
-0.000373957
9.94519e-05
0.000472463
-0.000144391
-0.000327488
-0.000235346
0.000228767
-5.67015e-05
5.74485e-06
5.34773e-05
3.89413e-05
-4.98091e-05
1.01375e-05
7.66106e-05
6.8556e-05
-0.000145166
0.000352501
0.000450862
0.000535672
-0.000531264
-3.58646e-06
0.000265615
-8.20863e-05
-0.000254097
-1.6225e-05
-0.00028391
0.000144063
4.69497e-05
-0.000282263
0.000542516
-6.15354e-06
-0.000623675
8.58361e-05
0.0004052
-0.00022285
-0.000182239
0.000259348
-0.000559819
0.000205326
0.000260466
0.000152742
-0.000162781
-0.000492383
0.000221479
0.000271216
-0.000229656
-0.000180783
0.0004756
-0.000161239
-0.000314033
-0.000300728
0.000469293
0.000127795
-4.79338e-06
-0.000123002
0.00043137
-0.000596228
0.000165209
-0.000561951
0.000100701
0.000462232
1.86099e-05
-0.000130322
0.000111713
-0.000102879
0.000119783
-1.69044e-05
-0.000156433
-0.000167553
-1.9559e-05
0.000131554
-0.000111992
0.000252725
0.000247949
-0.000535903
-0.000130383
2.75045e-05
-2.90593e-05
-0.000589107
-0.000115959
6.46394e-05
5.13193e-05
4.59274e-05
-0.000192692
-0.000453262
0.000514011
-5.63496e-05
6.9215e-06
0.000145822
0.000150137
0.000261306
-0.000148908
-8.13244e-05
9.65977e-05
1.55131e-05
-0.00011152
-0.000179125
-0.000155952
0.000108098
4.78541e-05
0.000501659
0.000608115
-6.08419e-05
-0.000544203
-0.000104362
0.000511423
0.000200245
-0.000477519
0.000491101
4.40879e-05
7.62827e-05
9.03455e-05
-0.000132754
3.89413e-05
-8.63821e-05
-8.00835e-05
-0.000389608
-4.99447e-05
0.000440037
-8.93996e-05
0.00010799
-7.71124e-06
-0.000529702
0.000538231
-0.000139205
-7.1411e-05
0.000210629
4.72163e-05
0.000589453
-0.00010789
5.32109e-06
-0.000530493
0.000118115
0.000412878
-6.9697e-05
0.000232245
-0.0001556
-0.000282937
0.000473002
0.000200897
-0.000399917
0.000199217
-0.000529932
0.000529825
0.000250713
-9.50506e-06
-0.000241185
-0.000142459
-4.3997e-05
0.000584816
-2.86503e-05
-0.000539549
0.0001228
2.12425e-05
-0.000144042
-5.13788e-05
-7.17558e-05
0.000123135
-0.000115224
0.00030347
-0.000188213
-0.000189664
0.000120261
-7.4366e-05
0.000124438
0.000389013
-0.000228865
-0.00026316
-0.000311309
0.000433188
-0.000121565
-8.66595e-05
4.5194e-05
8.88173e-05
-0.000477899
-0.000351959
0.000234089
0.000117983
7.22048e-05
-0.000567428
0.000496959
8.3552e-05
-0.000155553
7.2001e-05
-0.000399891
0.000100647
0.000299376
6.68813e-06
-0.000146847
-0.000164457
0.000245
-8.05258e-05
-8.11488e-05
0.00010193
-0.000441141
0.000585263
-2.03936e-05
-0.000563003
0.00025072
-0.000333991
8.33314e-05
0.000145925
3.77165e-05
-0.000183638
0.000502828
-0.000108932
-6.73459e-05
-0.00023606
0.000598943
-0.000362224
8.10757e-05
6.66296e-05
-0.000289739
0.000492928
-0.000202391
-0.000690773
0.000707638
-1.26533e-05
0.00045736
4.12322e-05
-0.000199635
0.000234614
-1.85603e-05
-5.31055e-05
-7.07483e-05
0.000123854
-5.86145e-05
0.000139692
0.000474897
0.000117883
-0.000176232
-5.92139e-07
0.000176833
-0.000129021
-0.000201602
0.000330732
0.000101995
7.77527e-05
-9.38196e-06
-0.000113318
-0.000187022
7.9465e-05
0.000126911
-0.000161688
3.47799e-05
-0.00074671
0.000371841
0.000377414
-8.94925e-05
-6.52094e-05
8.60113e-05
-0.000297378
0.00065603
-0.000132083
-0.000521965
8.30101e-05
0.000271803
0.000116893
7.14084e-05
5.67513e-05
0.000496495
-0.00051309
0.000440275
-0.000531495
9.1304e-05
4.35279e-05
-0.000532129
0.000490145
0.000127863
-0.000192047
9.52361e-05
0.000107829
2.20629e-05
-0.000129892
0.000234455
2.17499e-05
-0.00025618
0.000121627
6.73895e-05
7.98616e-05
-0.000506766
-2.29552e-06
0.000509784
-0.000175751
0.00022582
-0.000292465
0.000221397
7.11316e-05
6.69952e-05
-1.28509e-05
-9.59138e-05
-0.000553112
0.00044373
-0.000242582
0.000452198
5.09217e-05
-0.000501989
0.000212147
-8.24496e-05
-0.000317306
0.000185013
-4.65471e-05
-0.000138457
9.98794e-05
3.80591e-05
-0.000137938
0.000205378
-0.000295477
-0.00027729
0.000529205
-0.000437474
0.000182319
0.000230852
-9.91075e-05
-0.000131727
0.00010102
3.54019e-05
-0.000136421
-0.000149115
-0.000202707
-0.000145942
1.04548e-05
0.000135489
0.000345591
-0.000120435
-0.000225074
0.000595225
-0.000119176
4.31942e-05
-0.000219417
-0.000130284
-4.05053e-06
0.000134336
0.000533516
-0.000325475
-0.000840602
0.00033416
0.000512858
-8.12014e-05
0.000186334
-0.000105131
-8.17484e-05
0.000100507
8.89652e-06
-0.000195607
-6.69759e-05
0.000110223
-5.61045e-05
-5.3558e-05
-1.38478e-05
0.000159775
0.000551226
-0.000569103
-7.32417e-05
-3.28032e-05
0.000106045
2.7485e-05
0.000103529
-0.000131014
-6.63922e-05
0.000181226
-0.000482727
2.10817e-05
-0.000308855
4.88154e-05
0.00010778
-0.000156594
-3.55832e-05
3.55832e-05
-7.49924e-05
-0.000110555
0.000185559
-5.66479e-05
-5.93108e-05
0.000174532
-0.000229249
5.47257e-05
-0.000135264
5.41158e-05
0.000246769
-0.000181332
-6.54024e-05
-5.05432e-05
-6.01703e-05
0.000110713
-8.8525e-05
0.000255485
-0.000187004
-0.000351103
0.000539133
0.00050223
-6.18565e-05
-5.42165e-05
-5.98115e-05
0.000114028
-4.45898e-05
0.000177359
-0.000132767
0.000119237
7.29782e-05
-0.000166369
0.000555282
-0.000179747
0.000104766
-6.04973e-05
4.19841e-06
7.05845e-05
0.000246866
-0.000248115
9.19007e-05
0.000156249
0.000112282
-0.000270484
-0.000521851
7.35091e-05
0.000408942
3.62395e-05
-0.00044495
-0.000172956
-4.37543e-05
0.000127753
-4.95281e-06
6.7324e-05
-0.000121541
-0.000117817
8.21978e-06
0.000109597
0.000272047
0.000105441
-0.000312318
0.000150234
-0.000108059
0.000180749
0.000466639
-0.000468521
0.00060864
-0.000590889
-1.27758e-05
0.000511931
-0.000597844
8.83943e-05
-0.000545322
0.000242316
0.000303599
0.000158733
0.00024057
-0.000468798
0.000229112
-8.9789e-05
-0.000158289
-0.000696057
0.00058605
0.000117045
-1.6445e-05
4.42044e-05
0.00062683
-0.000112124
-0.00050347
6.67301e-05
7.04415e-05
-0.000137171
-0.000542253
2.71505e-05
-4.17985e-05
4.91866e-05
-4.02207e-06
-0.000208124
-8.42726e-05
0.000348685
-0.000236754
-0.000111839
0.00018476
0.00041223
1.00034e-06
9.65068e-05
-0.000227516
0.00049401
-0.000569406
0.000542205
3.07958e-05
0.000286703
-0.000115302
-0.000171344
0.000362087
-0.000157689
-0.000204353
0.000129652
-6.42083e-06
-0.000442027
0.000449267
-0.000151056
5.11463e-06
0.000187966
-9.40513e-05
-0.000184095
0.000278276
4.04599e-05
-0.000170742
0.000193304
-0.000287223
-0.000164329
-4.55698e-05
-0.000437371
0.000224971
0.000143546
-7.94749e-05
-6.40712e-05
6.75469e-06
0.000101074
-0.000500998
-0.00014192
6.83588e-05
-7.53298e-05
0.000175694
-0.000100361
-0.000462581
0.000472772
8.29144e-06
-0.000129001
7.88626e-05
5.01386e-05
0.000598145
-0.000575186
-1.99387e-05
0.000585179
-0.000108573
-0.000465546
0.000226959
-0.000361236
0.000134408
9.76322e-05
-0.000565779
-0.000139067
-7.38147e-05
0.000212897
-2.83115e-05
0.000129331
-0.00060085
7.86975e-05
6.48493e-05
-0.000334482
-0.000409463
-0.000368515
6.68485e-05
-0.00017878
0.000134193
0.000554839
-6.07043e-05
-0.000477441
-0.000133435
8.33514e-05
5.00833e-05
0.00038901
0.000116299
-0.00050479
-0.000576654
8.77309e-05
0.000491285
-5.75278e-05
0.000625561
-0.000565576
0.00063567
-0.000121859
-8.00764e-06
0.000206444
-0.000198428
0.000173506
6.6024e-05
-0.000117363
9.91657e-06
0.000107447
-3.40391e-05
0.000239448
5.29306e-05
0.000100103
6.25974e-05
0.000246437
-0.00030897
0.000593853
0.000190754
1.98658e-05
-0.000210611
-1.18668e-06
-0.00011663
0.000160924
-3.40115e-05
-0.000241236
0.000135693
-0.000215389
0.000134931
0.000193577
8.79783e-05
-0.000281485
0.000391304
3.31524e-05
-0.000424109
-0.000189753
0.000181752
-0.000590945
0.000334292
0.000257429
-8.26152e-05
0.0001502
-0.000133694
0.000142812
6.20551e-06
5.405e-05
-0.000127292
0.000489493
-2.52915e-06
-7.83124e-05
-0.000162914
0.000176524
0.000228786
-0.000544413
0.00012745
0.000418249
-6.07209e-05
-0.00010896
0.000644176
-0.000587946
-4.92645e-05
-0.00018246
7.17294e-05
-6.26543e-05
0.000452134
0.000458817
0.000122274
0.000218063
0.000175031
0.000100552
-0.000275552
0.000161066
4.53837e-05
0.000153653
-0.000133501
-9.44538e-06
0.000142949
0.000119672
-4.78734e-05
-7.1799e-05
-0.000237298
-0.000206843
4.70797e-05
-0.000114056
0.00070929
-0.000417523
-0.000290398
-0.000137198
-3.73705e-06
0.000140938
0.000175226
7.15741e-05
0.000453017
-0.000165863
0.000500963
4.20572e-05
-0.00024659
0.000226163
-0.000478847
-0.000292844
-8.46379e-05
-0.000489553
0.000168734
-0.000412043
0.000243594
4.13276e-05
-0.000178522
-0.000163065
0.000116525
-0.000175096
9.38963e-05
0.000262389
-0.000171072
-9.12804e-05
-1.09199e-05
0.000317519
-0.000300506
0.000129457
-0.000261574
0.000132177
-0.000157145
9.77021e-05
0.000146844
-0.000633674
0.000493259
-0.000155489
0.000247424
-0.000565723
0.000426736
0.000139609
-0.000106125
9.02124e-06
9.71039e-05
0.000478345
-7.37602e-05
-0.000404345
0.000113181
-2.44977e-05
-8.86829e-05
-0.000113225
-3.90078e-06
4.16973e-05
0.000133855
-4.14776e-05
1.08805e-06
-0.000305176
0.000244931
6.02893e-05
0.000290095
0.000367496
-0.000232963
-0.000311692
0.000464901
-0.000223968
-0.000240594
0.000542267
-5.44337e-05
-0.000511241
0.000201352
0.000415271
-0.000599888
0.000151429
-5.49695e-05
-7.59773e-05
-3.36852e-05
0.000177135
0.00021822
-0.000395133
-5.03871e-05
-8.30472e-05
0.000509604
8.644e-05
-0.000349765
0.000142183
0.000112398
-0.000422645
6.48568e-05
-0.000182692
0.000117841
7.61039e-05
-0.000114669
-0.000163532
0.000340861
-0.000501706
0.000552969
-4.02699e-05
-0.000128988
0.000135681
-0.000542412
0.000550882
-4.03389e-05
-0.000436212
0.00032417
0.000112376
9.16332e-05
4.32424e-05
0.000101037
-0.000157155
5.61194e-05
0.000119305
6.19991e-05
-0.000181301
0.000121263
-0.000155899
0.000159901
1.36092e-05
2.12997e-05
-0.000492075
0.000377126
0.000279139
-0.00065379
7.34e-05
-0.000156014
0.000483501
-0.000176617
0.000129701
4.69187e-05
0.000438906
-0.00029494
-0.000143619
7.44671e-06
-0.000341089
0.000333831
0.000152651
-8.34768e-05
-6.91741e-05
7.70549e-05
6.92595e-05
-0.000146314
-0.000482753
-1.86892e-06
-0.000115494
0.000241392
0.000234498
-0.000176584
-4.31832e-05
0.000219806
0.000221125
-0.000113576
0.000101706
-7.17245e-05
0.000103646
-0.000168945
6.53012e-05
3.04124e-07
-8.55253e-05
0.000106843
-8.91789e-05
0.000226715
-0.000100568
8.94449e-05
-0.000146274
5.68295e-05
0.000509923
0.000123054
-0.000616658
0.000532822
0.000127916
0.000116574
-0.000593399
0.000478295
-9.70632e-05
-4.74979e-05
0.000144563
0.000200964
-0.000148583
-5.23697e-05
0.000284054
5.33756e-05
8.07939e-05
-0.000134169
0.00034924
-9.61911e-05
-4.6145e-05
-0.000201416
-0.000104242
-0.000460818
-0.000133002
0.000469849
-0.000325267
0.000456495
-0.000367085
-6.25269e-05
-0.000511994
0.000609028
-8.2898e-05
-5.9461e-05
-5.18527e-05
0.000108464
9.77429e-05
0.000115038
-0.000212771
-1.90092e-05
0.000520489
4.99198e-05
-0.000540212
0.000236355
0.000597323
-0.000516403
-7.78991e-05
0.000344142
-0.000117059
0.000369397
-0.000429307
0.000138098
0.000151002
-6.81098e-05
-8.28915e-05
-0.000260138
0.000170388
-0.000218454
5.01628e-05
0.000168298
-8.02428e-05
0.000177994
0.000550559
6.05032e-05
7.96336e-06
-0.000197708
-0.000229579
0.000608987
4.28589e-05
-0.000201957
0.000126631
-5.98018e-05
0.000133124
-7.33217e-05
0.00016521
-5.62688e-05
-0.000108939
0.000463124
-1.00468e-05
-0.00021871
0.000387713
9.83542e-05
-0.000141015
4.26618e-05
6.43297e-05
6.48216e-05
-0.000129151
8.0759e-05
0.000126366
0.000144537
-0.000270893
0.000105803
0.000125063
-7.68332e-05
-5.35501e-05
-0.000249423
9.49966e-06
6.13935e-05
-0.000169446
5.06363e-05
9.23383e-05
-0.000149262
0.000217679
6.90283e-07
-6.04953e-05
0.000255604
-0.000337926
6.89009e-05
5.30184e-05
-0.000121919
9.54393e-05
3.23558e-05
-0.000143159
-6.57195e-05
0.000208893
6.84056e-06
-0.000555372
0.000549356
0.000490122
-0.000287793
-0.000201716
0.000107444
0.000238017
-0.000345418
5.07759e-05
-0.000103183
-0.00044039
-0.000102749
-0.000120454
0.000180385
-5.99278e-05
0.000620566
-2.92722e-05
-0.0005869
0.000445926
0.000174786
3.06244e-05
-0.000205402
-0.000560175
-6.71261e-05
3.89127e-05
0.000535563
-0.000571057
0.000469531
2.54852e-05
-0.000153897
0.000387887
0.000467761
-0.000110098
-0.000345603
-0.000331762
-0.000258344
0.000547199
2.25832e-05
-0.000156082
-0.000131914
-5.10037e-05
0.000182929
-5.79484e-05
-8.73858e-05
-3.85504e-05
0.000293826
-0.000162696
-0.000131104
-5.16697e-05
0.000548451
-0.000496241
0.000176903
-0.000205903
7.72816e-05
0.000277864
-0.000335224
5.74466e-05
7.3642e-05
0.000550904
0.000298384
-0.000481338
0.000165214
-6.84102e-05
-2.80111e-05
0.000171185
-0.000143159
0.000295129
0.000138354
7.8539e-05
-0.000127606
4.90674e-05
0.00012513
-0.000274361
0.000253675
-0.000525645
1.96206e-05
1.3033e-05
-0.000102397
5.9688e-05
0.000219733
-0.000287302
6.76045e-05
2.34602e-05
-0.000473556
0.0004628
-5.00542e-05
0.000146241
-9.6183e-05
-0.000296024
0.000278938
2.29501e-05
-0.000272146
-9.62067e-05
-0.000301454
-0.000214369
0.000521953
0.000167311
1.95174e-05
-0.000186825
6.78664e-05
-0.000515564
4.4658e-05
0.000481261
0.000486274
-0.000476092
0.000139872
3.21056e-05
-0.000171975
-2.67974e-05
0.000613677
-0.000156425
9.43525e-05
6.20735e-05
7.69567e-05
-0.000123409
4.64519e-05
0.000107662
0.000200604
-0.000308198
0.000491547
0.000286705
-0.000418663
0.000132719
-0.000592719
0.000298134
-9.3208e-05
-5.6031e-06
5.48313e-05
8.08935e-05
-0.000168552
0.000135587
0.000170978
0.000358064
-0.000528129
-6.01109e-05
-6.88902e-05
-4.08523e-06
-4.58191e-05
-0.000481439
0.000537427
0.000114795
4.39993e-05
0.000639859
-0.000612359
-2.30199e-05
-7.42029e-05
-8.26627e-05
0.000498786
-1.1666e-05
-0.000470096
-0.000384941
0.00022759
0.000157441
7.86414e-05
0.000662233
-0.000114657
-0.00054566
-0.000267672
-0.000273181
0.000543767
-0.000287721
-1.42467e-06
0.000128599
-5.39319e-05
-0.000161967
0.000575506
-0.000325401
0.00033305
0.000232487
-0.000144116
-8.83681e-05
-6.54115e-05
0.000321136
5.91144e-05
0.000443438
-0.000493799
0.000119926
0.000166831
-0.000338033
0.000101876
0.00022615
1.21131e-05
9.18523e-05
0.000345938
9.1984e-06
0.000268736
-0.000104508
8.00105e-05
0.000221692
-0.000257632
3.59781e-05
0.00059827
-0.000527117
-6.95407e-05
0.000206786