/*--------------------------------*- C++ -*----------------------------------*\
| =========                 |                                                 |
| \\      /  F ield         | OpenFOAM: The Open Source CFD Toolbox           |
|  \\    /   O peration     | Version:  v2012                                 |
|   \\  /    A nd           | Website:  www.openfoam.com                      |
|    \\/     M anipulation  |                                                 |
\*---------------------------------------------------------------------------*/
FoamFile
{
    version     2.0;
    format      ascii;
    class       volVectorField;
    location    "900";
    object      U_0;
}
// * * * * * * * * * * * * * * * * * * * * * * * * * * * * * * * * * * * * * //

dimensions      [0 1 -1 0 0 0 0];


internalField   nonuniform List<vector> 
18758
(
(1.0172 0.00749118 8.07466e-22)
(1.01265 0.0680596 3.08482e-23)
(1.00354 -2.77172e-05 -4.95217e-22)
(1.01857 0.00732403 -7.60903e-22)
(1.0107 -0.0145584 0)
(1.00682 0.000214965 -4.83902e-23)
(1.01643 -0.00479272 4.24961e-21)
(1.02706 -0.0185798 6.68595e-21)
(1.01179 -0.0137002 9.03639e-22)
(1.01393 -0.0132803 7.93187e-22)
(1.03839 0.0413296 1.20198e-22)
(1.0129 -0.0334888 1.00435e-20)
(1.02914 -0.0733249 -7.47623e-22)
(1.03698 -0.0135392 7.81989e-21)
(1.01589 -0.00459016 2.42383e-23)
(1.0131 -0.00209337 7.22092e-22)
(1.013 -0.0893127 2.27359e-20)
(1.01099 0.00150782 1.14057e-23)
(1.01568 -0.00438485 2.67241e-21)
(1.01193 -0.0148925 -4.09343e-22)
(0.9652 0.122678 6.60493e-22)
(0.969071 -0.102384 -1.18561e-20)
(1.00628 0.000153285 5.54423e-24)
(1.00615 0.000171354 3.1079e-23)
(0.966231 -0.10491 6.35551e-21)
(0.901216 0.038334 -7.90287e-21)
(0.908271 -0.302265 -8.09109e-21)
(1.09574 -0.0832425 4.45756e-21)
(1.0531 -0.0201364 -3.41201e-21)
(0.982865 0.109991 6.35673e-22)
(0.803909 -0.281339 9.36087e-21)
(0.91115 -0.316542 1.52697e-20)
(1.02668 -0.0177626 -6.95255e-21)
(0.842099 -0.0968534 1.65326e-23)
(1.00789 -0.0145079 0)
(0.998636 0.110478 8.21467e-22)
(1.0391 -0.0748621 1.64629e-21)
(1.00904 -0.0136533 0)
(0.882452 0.305158 2.25257e-20)
(1.01291 0.00370204 0)
(0.959332 0.090782 -7.84587e-21)
(1.01734 -0.0142256 -4.55943e-22)
(1.05462 -0.0643383 2.3784e-21)
(1.01341 -0.00203491 0)
(1.0109 -0.000689477 -1.39133e-21)
(0.798714 -0.243999 0)
(1.01724 -0.0131037 0)
(1.05946 -0.0196634 3.63e-21)
(-0.0148139 -0.276928 -4.39703e-20)
(1.02075 0.00412325 -3.80533e-22)
(1.04626 0.0439361 -4.8064e-22)
(0.219751 0.109197 8.19102e-22)
(1.02155 0.00319079 0)
(1.01656 -0.00510605 7.92345e-22)
(1.0097 -0.0600496 -8.10083e-21)
(1.02451 -0.0636337 3.95623e-22)
(1.01061 -8.44982e-05 7.06115e-22)
(1.01243 -0.0142174 4.98844e-22)
(1.06129 -0.0232647 0)
(1.01054 4.94908e-05 -3.07854e-22)
(1.01026 -0.000548799 9.34913e-22)
(1.013 -0.00199253 -3.61588e-22)
(0.91962 0.309406 6.1762e-21)
(0.966314 -0.158742 1.84621e-22)
(1.00977 -0.000504233 -1.07856e-21)
(0.670476 -0.169516 -8.2624e-21)
(1.00675 -0.000205085 4.87144e-22)
(1.00951 0.00109888 7.9517e-22)
(1.09198 -0.0879254 -5.93189e-21)
(1.01101 0.00159784 0)
(0.21511 0.127665 -8.77686e-22)
(0.751315 0.0306368 -3.03533e-20)
(1.01414 -0.00493462 -1.08794e-21)
(1.00952 -0.0251811 0)
(0.962378 -0.0623918 0)
(0.816705 -0.266682 -9.1186e-21)
(0.737743 0.217186 0)
(1.00744 -0.178153 0)
(1.01322 -0.0143011 0)
(1.04894 -0.0864645 -5.95066e-21)
(1.03791 -0.0388938 0)
(0.874262 0.302932 -1.96586e-20)
(1.02961 -0.148666 0)
(0.988714 -0.049331 1.32267e-22)
(1.01619 -0.00231823 1.70192e-22)
(1.02369 -0.0577108 -1.72461e-20)
(1.05311 -0.0143458 0)
(1.00782 -0.0258107 1.94901e-23)
(0.905593 0.310689 6.03385e-21)
(1.02659 -0.0604802 1.71647e-20)
(0.314202 0.188485 2.11961e-20)
(1.01019 -0.000487799 8.7751e-22)
(1.05081 -0.040797 -1.53728e-21)
(-0.000400752 -0.278134 2.15971e-20)
(1.01401 -0.00472803 0)
(1.00848 -0.000820527 -2.39568e-22)
(1.01211 0.00255353 1.48613e-22)
(1.05479 -0.029177 -5.61977e-21)
(0.965523 -0.203468 9.1782e-21)
(1.01194 -0.00351938 5.83419e-23)
(0.814418 -0.241216 4.27206e-21)
(1.00061 -0.012736 -1.75823e-21)
(1.00957 0.00110527 -3.8465e-22)
(1.00842 -0.000783597 0)
(0.661652 -0.162707 -1.59073e-21)
(0.945619 0.118489 -1.45012e-24)
(1.05745 -0.0187541 1.33498e-21)
(0.26652 0.161662 -3.76826e-20)
(0.779153 0.245323 -2.44166e-21)
(0.988046 0.135108 -1.23579e-21)
(1.01353 -0.00203004 1.37266e-21)
(0.893123 -0.105738 -2.83528e-20)
(1.02365 -8.95365e-05 9.21391e-22)
(1.00506 -5.59631e-05 -4.74291e-22)
(1.00039 -0.0110385 8.59533e-22)
(1.19883 -0.133108 -1.40224e-20)
(1.0553 -0.0294237 0)
(1.01033 0.000411164 0)
(1.17716 -0.0913008 -2.07333e-20)
(1.01798 -0.00121916 1.74095e-22)
(1.00594 -0.000118086 0)
(0.75995 0.253232 0)
(1.01654 -0.00187655 -1.62051e-22)
(1.00951 -0.000306108 1.18865e-21)
(0.0396008 -0.229119 0)
(1.01611 -0.00503914 -9.32518e-23)
(1.01272 -0.0012754 -6.81142e-22)
(1.00946 -0.000302882 -1.26725e-21)
(1.04138 0.0090379 2.15244e-21)
(0.00058403 -0.224604 -4.06261e-20)
(1.05973 -0.02207 -1.35328e-21)
(1.00701 -0.000322149 0)
(1.03518 -0.0330969 0)
(0.239521 -0.185253 2.84693e-21)
(1.01317 0.00395959 3.69881e-23)
(1.00631 -0.000172653 0)
(0.895611 0.172622 -4.00747e-20)
(1.01633 -0.00091935 1.75186e-22)
(1.12865 -0.0247932 0)
(1.03918 -0.0366664 -8.72342e-21)
(1.02568 -0.00104843 -1.84108e-21)
(1.00222 0.134392 4.13099e-21)
(1.05521 -0.030755 0)
(0.772183 0.260789 0)
(0.0476736 -0.227659 0)
(1.05867 -0.036518 8.87719e-21)
(0.586156 -0.176669 4.91833e-21)
(1.0422 -0.00129262 5.04066e-22)
(1.02952 0.050022 -3.59733e-22)
(0.584223 0.248411 1.7581e-21)
(0.066455 -0.201323 -5.48142e-22)
(-0.0672694 -0.261895 -4.03799e-20)
(1.02643 -0.00376151 -7.54118e-21)
(1.00564 -0.0126593 6.14829e-24)
(0.960948 0.0535736 0)
(0.802585 -0.357118 1.05973e-21)
(1.05067 -0.0398928 -2.64623e-21)
(1.03678 0.0120824 -1.43549e-21)
(0.978437 -0.0415282 -1.39924e-21)
(1.02526 0.0625702 4.72375e-23)
(0.683733 0.380977 1.55195e-21)
(1.01026 -0.000345719 1.97771e-22)
(0.0691833 -0.2813 -1.81861e-21)
(0.572358 -0.172477 2.83029e-21)
(0.801663 -0.185433 2.07885e-21)
(1.01075 0.000735349 0)
(1.01018 -0.000327856 9.55308e-23)
(0.525328 0.379845 3.3381e-21)
(0.0208924 -0.219711 3.63325e-20)
(0.970476 0.0589975 -7.27544e-21)
(-0.0644864 -0.277238 1.8425e-20)
(1.00261 5.32806e-05 2.98454e-22)
(1.05402 -0.0153679 2.81801e-21)
(0.892461 0.175548 -9.10589e-22)
(0.803998 0.252951 2.33695e-21)
(1.01123 -0.00315252 9.16413e-25)
(1.01407 -0.00466729 3.15865e-22)
(0.968776 0.0249658 7.22592e-21)
(0.879497 -0.0808489 3.39946e-22)
(1.03657 -0.00500967 1.89619e-21)
(1.00885 0.00083657 7.54783e-22)
(1.01427 -0.00563138 8.00243e-22)
(1.0124 -0.0561966 -3.93141e-23)
(1.04192 -0.00751449 -9.86483e-21)
(0.4815 0.320852 6.71913e-21)
(1.01799 -0.00227567 -7.18473e-21)
(0.969923 0.117091 -4.47686e-22)
(1.01298 0.00874887 0)
(0.0252503 -0.275527 3.98566e-20)
(0.831311 -0.13922 0)
(-0.0738316 -0.263152 6.08148e-20)
(1.01782 -0.00234025 3.12869e-21)
(1.06878 -0.0651407 -2.3786e-21)
(0.700631 -0.0104946 -1.16639e-21)
(1.00887 0.000892656 -2.38699e-22)
(1.04023 -0.00782244 6.66675e-21)
(1.14842 -0.0251906 0)
(1.02593 -0.00359549 -5.49607e-21)
(0.0362377 -0.269322 -3.26691e-20)
(1.00541 0.000137093 -3.46638e-22)
(1.01607 -0.00108422 1.29072e-21)
(1.03516 0.0191811 0)
(0.895413 -0.0722939 0)
(1.01293 -0.0016725 1.41104e-21)
(1.01365 -0.00217764 -1.60696e-21)
(0.0859467 -0.278555 1.16441e-20)
(1.01099 -0.00127876 -1.08805e-21)
(1.00627 -0.014279 1.25787e-21)
(0.0386858 -0.208455 0)
(-0.046949 -0.234064 2.06016e-20)
(1.00391 7.44406e-05 -3.66323e-22)
(1.0486 -0.0368889 0)
(1.0169 -0.000856859 -7.8788e-22)
(1.01451 -0.000550138 -1.01934e-21)
(1.01352 -0.0132178 -1.73457e-22)
(1.01215 0.00264284 -2.23594e-22)
(1.01334 -0.000699935 1.40436e-21)
(1.04985 -0.0375563 2.63388e-21)
(1.00752 0.000307325 -2.171e-22)
(0.987935 0.142197 -5.06025e-21)
(0.714636 0.00607706 1.85072e-21)
(1.01213 0.000187955 0)
(1.0551 -0.0306416 -2.80672e-21)
(1.03857 0.0239016 0)
(0.896103 -0.0809199 0)
(0.887274 0.101837 0)
(0.955071 -0.0614424 -1.96332e-21)
(1.03421 -0.0706591 -1.35198e-20)
(0.647255 0.389918 -3.5304e-21)
(1.01089 -0.00124885 -7.66235e-22)
(0.888444 0.0433273 -8.39812e-21)
(1.05814 -0.0356062 -2.06183e-20)
(0.809344 0.236485 1.98222e-21)
(1.00579 -0.000157528 3.585e-22)
(1.01069 -0.00155186 2.69394e-22)
(1.01228 0.000365587 6.73619e-22)
(0.989169 -0.0929041 2.21288e-22)
(-0.0344219 -0.274411 -2.36223e-20)
(1.17389 -0.0273947 0)
(1.02367 -0.0125042 0)
(1.01396 -0.00236197 0)
(0.989649 -0.0868628 9.26217e-22)
(1.11155 -0.0264278 1.46693e-23)
(1.00347 3.21226e-05 8.98678e-22)
(0.526226 0.276395 0)
(1.09338 0.076517 0)
(1.01083 -0.0015303 -2.98325e-22)
(1.00815 -0.00067187 5.97227e-22)
(1.01059 0.00133348 -6.5382e-22)
(1.01193 -0.00355215 0)
(-0.0579091 -0.281545 -3.44657e-20)
(1.01359 -0.00128015 -3.44897e-22)
(0.957774 0.0956799 0)
(1.01269 0.000482933 2.7519e-24)
(1.00547 0.000117442 -3.62519e-23)
(1.17328 0.015904 3.1858e-21)
(1.0106 0.000452657 5.82979e-22)
(0.677627 0.0262203 8.9079e-21)
(1.01407 -0.000850901 0)
(0.803021 0.0829455 -1.74441e-20)
(1.02341 0.00144786 1.10626e-21)
(1.0097 -0.000309677 -3.2155e-22)
(1.01094 -0.00158317 3.50479e-22)
(1.06504 -0.0646163 5.81752e-21)
(0.94849 -0.266262 2.6965e-21)
(0.935395 -0.264521 2.89435e-21)
(1.00979 -0.00031804 0)
(1.12036 -0.019675 7.89132e-22)
(1.02681 -0.00360607 3.84558e-21)
(1.01304 -0.00525938 2.57627e-22)
(1.19247 -0.148051 0)
(0.424547 -0.0429011 0)
(1.01307 -0.00521043 -2.57428e-22)
(1.01066 -0.00113531 0)
(1.01052 0.00517327 1.42669e-22)
(1.01402 -0.0127644 0)
(1.04013 -0.0268946 -1.12551e-21)
(1.00794 0.000368581 2.39668e-22)
(1.01482 -0.000102204 0)
(1.0364 -0.0138329 -5.1161e-21)
(1.00809 -0.000646484 0)
(1.00632 -0.000200642 0)
(1.0144 -0.00210666 -1.25842e-21)
(0.488382 -0.180274 3.22674e-21)
(1.01619 -0.00462437 -2.94667e-21)
(1.01056 -0.00112363 1.04727e-21)
(1.0099 0.00100723 0)
(1.10497 -0.0226018 -4.9781e-22)
(1.00847 -0.000772457 0)
(1.00841 -0.000765331 0)
(1.0027 9.60738e-06 -1.00117e-21)
(1.03615 -0.00721971 0)
(1.01063 -0.000136128 0)
(1.00495 3.01084e-05 1.18e-21)
(1.00372 7.75544e-06 0)
(1.00986 0.0021412 0)
(0.885928 0.0862243 0)
(1.00916 -0.000406166 -2.04191e-21)
(1.00552 0.000112331 0)
(0.128516 -0.180085 1.73953e-20)
(1.04563 -0.0160529 6.43739e-21)
(1.00549 -3.65027e-05 0)
(1.00556 -3.31471e-05 0)
(0.892788 0.278053 3.39767e-22)
(1.04856 -0.0174536 -3.03621e-23)
(1.00888 0.000840667 5.15011e-22)
(1.02188 0.0146813 0)
(0.927632 0.126371 -2.16117e-22)
(1.01295 -0.00227324 -7.54869e-22)
(1.01576 -0.0620199 4.89709e-22)
(1.01457 -0.00212921 4.55522e-22)
(0.9127 -0.277492 -5.11035e-22)
(1.13816 -0.0178318 0)
(1.08438 -0.0342023 1.32936e-21)
(1.0518 -0.0215479 0)
(0.860183 -0.101936 -1.87528e-23)
(1.00947 0.00104946 0)
(0.899478 0.282379 5.55735e-21)
(1.03858 0.0394472 0)
(1.00688 -0.000228712 0)
(1.08206 -0.0363239 0)
(0.983 -0.0430474 1.14954e-21)
(0.639613 0.229257 -3.04623e-21)
(1.01052 -0.00194551 -3.17246e-22)
(1.00942 0.00104622 3.82422e-22)
(-0.031236 -0.229357 -2.6665e-20)
(0.907495 0.172008 -2.25358e-21)
(1.00954 -0.000997221 0)
(0.00324362 -0.24243 0)
(0.996124 -0.0795569 9.73543e-22)
(1.02654 -0.00863449 0)
(0.161192 -0.181317 -3.1636e-21)
(1.01044 -0.00182163 3.58302e-22)
(1.01066 0.000620844 -1.23264e-21)
(1.01423 -0.000906889 0)
(1.00539 -4.57561e-05 -1.80314e-24)
(1.01507 -0.00837033 0)
(1.01711 -0.0032381 -6.42033e-22)
(1.02789 -0.0186707 -4.01984e-21)
(1.01117 -0.00138976 -3.63695e-22)
(1.01516 -0.00850758 1.8535e-22)
(1.02476 -0.0122451 5.53017e-21)
(0.654354 -0.184867 3.19633e-21)
(0.891058 0.278997 -3.09686e-22)
(1.01591 -0.000539251 -4.59824e-22)
(0.897228 0.27778 4.96079e-21)
(0.960638 -0.231498 7.9127e-21)
(1.00942 -0.000973328 -6.68845e-22)
(1.05521 -0.027065 3.58566e-21)
(1.05001 -0.0270544 0)
(0.981108 -0.116798 -8.95097e-21)
(1.0428 0.0663132 7.04648e-21)
(1.14864 -0.0787559 8.0745e-21)
(1.0179 -0.00205509 6.22983e-24)
(-0.0456858 -0.271213 0)
(0.825202 0.206052 0)
(1.02565 0.00911498 -2.82203e-21)
(1.02489 -0.0119428 -3.44026e-21)
(1.02456 -0.0100064 0)
(1.01386 -0.00015076 -5.13343e-22)
(1.01332 -0.00171889 0)
(1.16044 -0.0182437 -1.88058e-21)
(0.690925 0.0376335 6.29377e-22)
(1.06871 0.00435161 6.21384e-21)
(0.941166 -0.0658938 1.80992e-22)
(0.683512 0.0159161 0)
(1.0108 -0.00160194 -3.26721e-22)
(1.04905 -0.0198204 0)
(1.01382 -0.00528113 -8.59171e-22)
(1.056 -0.0289185 0)
(-0.0297065 -0.280568 2.64434e-20)
(1.1967 -0.111041 1.30254e-20)
(0.833366 0.232298 -1.66712e-21)
(1.03561 -0.140834 1.22765e-22)
(0.972184 0.105292 -6.28327e-21)
(1.15323 -0.0906992 -7.39323e-21)
(1.00497 0.000101565 3.48904e-24)
(0.783036 -0.151875 7.47681e-22)
(1.03849 0.00159679 0)
(1.05347 0.0102066 6.6531e-23)
(1.06825 -0.0278766 -6.58788e-21)
(1.00749 -0.000265877 0)
(1.00622 0.000174321 -3.58347e-23)
(0.975049 -0.106824 7.33087e-21)
(1.04876 0.0278765 0)
(0.865771 -0.153486 0)
(1.17125 -0.155617 -7.74542e-21)
(0.00939936 -0.241672 0)
(1.02423 -0.0126374 -3.41738e-21)
(0.975446 -0.00508766 0)
(1.00669 0.13439 1.2506e-21)
(1.01328 -0.0021316 -3.66396e-21)
(1.03462 -0.0141461 -5.03839e-21)
(1.01344 -0.0110028 3.78424e-24)
(1.0114 -0.00318045 1.03044e-21)
(1.00586 -0.000123771 4.49541e-22)
(1.01358 5.34362e-05 0)
(1.01981 -0.00198488 1.92774e-21)
(1.00504 -0.000135372 0)
(1.00365 -6.81664e-06 0)
(1.01142 0.00217842 3.58221e-22)
(1.02512 -0.0423769 0)
(0.839832 0.293737 0)
(1.05571 -0.0211805 -8.92829e-21)
(0.80314 -0.322421 0)
(0.790461 -0.323603 1.48557e-20)
(0.161318 -0.192228 -3.57748e-20)
(0.823603 0.283076 0)
(1.05437 0.00356231 -2.68405e-22)
(1.01032 0.00203101 0)
(1.00607 0.000176443 1.99657e-22)
(1.04769 -0.0557059 0)
(1.03409 -0.0144458 4.34266e-22)
(1.02289 -0.0128892 2.49234e-21)
(0.931652 0.319904 -7.22835e-21)
(1.05647 -0.0293542 -1.07959e-21)
(1.05513 0.0653448 -1.79824e-21)
(1.01057 0.000340025 0)
(0.70545 -0.249384 0)
(1.01083 -0.000659303 0)
(1.04591 -0.0166523 -8.4697e-21)
(1.00885 0.000832996 -3.72467e-24)
(0.0941829 -0.259206 0)
(0.924949 -0.278604 0)
(1.01423 0.0949591 -4.59878e-21)
(1.00375 1.62173e-05 0)
(0.12257 -0.184212 -5.46984e-21)
(1.05342 -0.0426964 6.77795e-21)
(1.01424 -0.000694333 -7.54487e-22)
(1.01095 -0.00257615 1.0264e-21)
(1.00389 6.28472e-05 -4.4919e-22)
(0.838897 0.217788 -1.57715e-22)
(1.00366 2.18599e-05 2.05742e-22)
(1.00502 4.19875e-05 -1.13833e-21)
(0.81805 -0.191427 7.05078e-22)
(1.05653 -0.0211444 -1.80146e-21)
(1.0234 -0.0130091 0)
(1.01392 -0.00445446 0)
(1.02459 -0.018114 1.63072e-21)
(1.02687 -0.0253378 3.77915e-21)
(0.677288 0.0849262 0)
(1.06235 0.0827072 8.20596e-22)
(1.00305 6.85757e-05 1.65702e-22)
(0.728679 -0.160834 -3.87757e-21)
(1.00887 0.000847474 3.25867e-22)
(1.01805 -0.00352728 0)
(1.03754 -0.0698708 -1.65939e-20)
(1.01628 -0.000251073 2.73239e-21)
(0.786127 -0.283009 6.1018e-21)
(1.00297 0.000111247 -1.47888e-22)
(1.02624 -0.026174 -5.90577e-21)
(1.00347 6.42575e-06 5.8613e-23)
(1.17462 -0.107904 0)
(1.00935 0.0031867 -6.93526e-22)
(1.0195 -0.00198774 5.55265e-22)
(-0.0361672 -0.266627 -2.74241e-20)
(1.05211 -0.00992468 4.39083e-23)
(1.01011 0.00115676 2.57503e-23)
(1.04829 -0.0199025 -4.64549e-21)
(1.00833 -0.00531037 0)
(1.01304 -0.00181975 -1.41408e-21)
(1.00497 8.85002e-06 5.52366e-22)
(1.01354 -0.000504323 0)
(0.96203 -0.246758 2.33834e-21)
(0.535671 0.269384 -4.33669e-20)
(1.02748 -0.00628659 0)
(1.05113 -0.0318683 0)
(0.676082 0.0355994 -2.59638e-21)
(0.974959 0.0238532 0)
(0.896129 0.190195 1.56233e-20)
(1.1161 0.0668397 1.07086e-21)
(0.903982 0.209982 -1.31217e-20)
(1.01026 0.000392484 0)
(1.05618 -0.00123805 5.33127e-22)
(0.996001 -0.0845504 -1.38973e-21)
(1.01314 -0.0376116 0)
(1.02587 -0.0176238 0)
(0.966304 0.161448 0)
(1.04421 -0.0195435 -2.08502e-22)
(1.02508 -0.00287909 5.11812e-22)
(1.006 -5.09305e-05 -5.30627e-22)
(1.01641 -0.00491056 -4.79873e-21)
(1.00858 -0.000820018 -1.53998e-22)
(1.01612 -0.000252926 2.57701e-21)
(1.00853 -0.000795416 -6.05149e-22)
(1.01579 -8.34571e-05 1.16854e-21)
(0.984925 -0.0655282 6.84603e-22)
(1.00358 1.2287e-07 0)
(1.0087 0.000795114 2.58612e-22)
(1.05594 -0.044717 1.65564e-20)
(1.00712 -0.00030466 3.11641e-22)
(1.0033 8.73144e-06 2.99535e-22)
(1.0125 0.00343412 2.39462e-22)
(1.00886 -0.00499789 0)
(1.04054 -0.0215892 -5.68155e-23)
(0.973093 0.144438 -7.74539e-22)
(1.01106 -0.00133539 4.05376e-22)
(1.05293 0.031199 0)
(1.00618 0.000127043 0)
(1.05472 -0.022209 -1.25577e-20)
(1.01381 -0.0238312 9.58521e-22)
(0.579918 0.260779 -2.95793e-20)
(1.04488 -0.144667 -1.44844e-21)
(1.01355 -0.000850512 1.3945e-21)
(1.01812 -0.0019941 0)
(0.536162 0.259461 2.8319e-20)
(0.189341 -0.190374 4.15178e-21)
(1.02627 -0.0132975 -1.16507e-21)
(1.01056 0.00011786 -1.30956e-21)
(1.06145 0.0951973 0)
(0.505406 -0.183824 -4.06004e-21)
(1.01003 0.00105055 -1.91136e-23)
(1.00682 0.000168012 2.34442e-24)
(0.560599 0.380632 2.65805e-21)
(1.01376 -0.0140219 1.65359e-22)
(1.03775 -0.0341137 9.59148e-21)
(1.02369 -0.0149288 0)
(1.01031 -0.00266329 -8.00785e-22)
(1.05059 -0.0325008 3.48302e-21)
(1.00825 -0.000704395 -8.10405e-22)
(1.01096 -0.00289231 0)
(1.01085 -0.000476223 0)
(1.00517 8.82423e-05 1.4609e-23)
(1.01082 -0.00119474 5.21413e-22)
(1.01062 -0.000620385 1.3794e-21)
(0.909801 -0.277152 -8.75734e-21)
(1.00805 0.000583766 -4.641e-22)
(1.06772 0.0470259 -1.81656e-21)
(0.702796 0.105799 1.3576e-20)
(1.01025 0.00120532 -5.21025e-24)
(1.00814 0.000615849 4.80955e-22)
(1.00266 -9.6848e-07 2.86056e-22)
(1.04471 -0.0230374 -2.87244e-21)
(1.0069 -0.00228991 9.32032e-22)
(1.04388 0.0982837 -6.24943e-22)
(1.01206 -0.00361818 -2.32988e-22)
(0.845781 -0.137094 6.6381e-22)
(1.02827 -0.0382181 1.69813e-21)
(1.01216 -0.0361428 3.38756e-23)
(1.01108 -0.000637635 0)
(1.0115 0.0018659 7.24758e-22)
(1.01035 0.00138325 0)
(1.02728 -0.0072329 0)
(1.02714 -0.00688365 0)
(0.262957 -0.0440189 -5.99579e-20)
(0.452773 0.332605 -2.91838e-21)
(1.008 -0.000612854 -5.88789e-22)
(1.01072 -0.00117656 1.79338e-22)
(1.03537 -0.00693006 1.17835e-20)
(0.541532 0.377736 -9.75702e-21)
(1.00895 0.000864343 5.25534e-22)
(1.01241 0.00280222 -1.41416e-24)
(1.01573 -0.00011025 2.71374e-21)
(1.00869 0.000782942 6.72114e-22)
(1.0104 -0.00108082 -3.62627e-22)
(1.01092 -0.000575881 0)
(1.01451 -0.0107978 2.91625e-22)
(1.01298 -0.00193695 0)
(1.06358 -0.0222145 -5.93443e-22)
(1.01208 -0.00358553 2.17605e-22)
(1.01314 0.00423147 0)
(1.02872 -0.11264 0)
(0.611963 0.26479 4.19789e-20)
(1.02222 -0.00453645 5.26277e-22)
(1.01294 -0.00125547 0)
(1.01161 -0.00344234 1.03828e-23)
(1.00255 -3.1566e-05 4.7644e-22)
(1.01407 -0.00403529 0)
(1.01725 -0.0007452 -1.97351e-22)
(1.05146 0.0426947 2.6269e-23)
(1.06723 -0.0141376 9.01638e-22)
(1.03638 -0.00612034 8.14002e-21)
(0.91812 0.163122 2.45492e-21)
(1.0115 -0.0033643 -7.50805e-23)
(1.05562 -0.0276058 3.39595e-21)
(1.01285 -0.00149752 7.04333e-22)
(1.00535 0.000108506 -9.65808e-23)
(1.05713 -0.0355673 1.21495e-20)
(1.01092 0.00162255 0)
(1.00506 8.05167e-05 -2.67944e-22)
(0.900543 0.300757 -1.04085e-20)
(1.00369 -3.51138e-06 1.20446e-21)
(1.04051 -0.00851727 -1.17734e-20)
(0.939605 -0.0579434 -5.81077e-21)
(1.00523 -3.52105e-05 0)
(1.01712 -0.00304598 -1.52149e-21)
(0.0769547 -0.266627 -8.68493e-21)
(1.01037 0.000434053 -5.84778e-22)
(0.967857 -0.0623693 0)
(1.03262 -0.0189824 6.82252e-22)
(1.00477 3.54043e-05 5.86303e-22)
(1.00341 -5.39605e-06 -6.44053e-23)
(0.990826 -0.0458187 1.0241e-21)
(1.02288 -0.0200039 0)
(1.00793 -0.00129559 0)
(1.01114 -0.00306767 2.23077e-22)
(0.801919 0.172977 -2.7383e-21)
(0.925244 0.179081 -3.62868e-21)
(0.924323 0.216038 0)
(1.0084 -0.000743719 -4.25265e-22)
(0.172284 -0.161594 -1.86985e-20)
(1.0086 0.000744894 0)
(1.00386 5.9884e-05 -3.59683e-22)
(1.01239 -0.00372273 0)
(1.02151 -0.000240817 0)
(0.827055 -0.157248 -4.94352e-22)
(1.04684 -0.123287 1.12793e-21)
(1.01272 0.00114711 7.31597e-22)
(1.04082 -0.00734641 1.23442e-20)
(1.01758 -0.00189457 -1.75142e-22)
(0.628014 -0.0910299 1.55102e-20)
(1.08416 0.0726463 2.6267e-22)
(1.01155 -0.00149581 1.75271e-21)
(1.02161 0.0179211 -8.57665e-22)
(1.04455 -0.017643 -3.0318e-21)
(-0.0408858 -0.275279 2.78677e-20)
(1.03599 -0.03211 0)
(1.02805 -0.0178277 0)
(1.00946 -0.00100482 -2.60772e-22)
(1.02156 -0.00153672 0)
(1.05773 -0.0297208 4.81913e-21)
(1.00492 3.42823e-05 6.18134e-22)
(1.00955 -0.00100842 5.64182e-22)
(1.00889 0.000844156 -3.64444e-24)
(1.00901 -0.000897427 -5.11573e-22)
(1.03621 -0.0287514 2.82933e-21)
(1.06477 0.0593333 1.90083e-21)
(0.971366 0.0922562 0)
(0.907584 0.307774 2.04273e-20)
(1.02443 -0.0186865 5.21992e-22)
(1.00801 -0.00680707 0)
(1.01238 -0.00376809 0)
(1.00779 -0.000568123 0)
(1.0769 0.0460286 2.49283e-21)
(0.97548 -0.113431 8.91884e-21)
(1.01269 0.00370385 -2.942e-22)
(1.05501 -0.0305256 -1.04883e-20)
(-0.0614091 -0.256424 -2.20877e-20)
(0.236904 -0.0707584 0)
(1.00312 1.55439e-05 4.77917e-22)
(1.0043 0.000128852 -1.68234e-22)
(0.984164 -0.0482913 -1.28891e-21)
(0.86458 0.102011 -1.13344e-20)
(1.00865 0.000770385 0)
(1.04376 -0.0327263 -5.28582e-23)
(1.01238 -0.00422983 0)
(1.0053 -7.09026e-05 0)
(1.05389 -0.0245806 -6.40155e-21)
(1.01419 -0.000644925 5.16768e-21)
(1.02759 -0.00663989 0)
(1.01346 -0.0027035 5.16016e-22)
(1.00824 -0.000666887 0)
(1.01189 -0.00290284 -8.18495e-22)
(1.06051 0.071936 -2.48853e-21)
(1.0567 -0.0346991 -1.37946e-21)
(0.855104 -0.198376 1.21369e-20)
(1.01471 -0.000779746 -1.02326e-21)
(1.01052 -0.00109526 -4.3319e-22)
(1.21554 -0.111277 -2.37186e-21)
(1.01246 0.00292583 1.45746e-22)
(1.1625 -0.103421 3.22658e-20)
(0.901429 -0.281994 8.66511e-21)
(1.01235 -0.00426084 -3.39025e-24)
(0.932732 0.24569 2.25976e-20)
(1.01354 -0.00430434 0)
(1.0134 -0.00138172 -3.76212e-22)
(0.859362 0.178336 -2.41719e-20)
(0.893125 0.184141 4.56911e-22)
(0.90182 0.176672 8.22225e-22)
(0.960596 -0.257978 1.40652e-21)
(1.02267 -0.0190554 0)
(0.923874 -0.315673 -5.12282e-21)
(1.00793 0.000557557 2.02688e-24)
(0.870493 -0.144836 1.01995e-20)
(0.179262 -0.181122 3.71135e-20)
(1.02497 0.00620811 1.88698e-21)
(1.01288 0.000726536 -1.40429e-21)
(0.985078 0.0952219 0)
(1.04376 -0.0170848 5.34529e-21)
(0.958142 -0.00885351 0)
(0.883151 0.17207 0)
(0.893674 0.0163965 -5.24525e-21)
(1.02503 -0.00371896 -3.46271e-21)
(0.906769 -0.268317 0)
(1.00507 0.000115208 0)
(1.05507 -0.0303817 -5.29103e-21)
(1.05242 -0.017644 -3.23686e-21)
(1.00605 -7.23546e-05 2.92225e-22)
(1.04666 -0.0300013 -6.40274e-21)
(0.746047 0.225367 -5.31111e-21)
(0.974778 -0.0700133 0)
(1.00769 -0.0192219 -5.9859e-22)
(1.01425 -0.0110829 0)
(1.00884 0.000866725 -2.82845e-22)
(1.02547 -0.0118404 0)
(1.00987 0.00293814 -3.52985e-22)
(1.01541 0.00797562 -1.8569e-21)
(0.964034 -0.0806508 9.97146e-22)
(1.01082 -0.0010238 8.01677e-22)
(1.21715 -0.136033 1.83233e-21)
(1.0084 -0.00628728 -8.86958e-22)
(1.01288 -0.00513454 3.75039e-22)
(1.05212 -0.0185666 -1.11475e-20)
(1.00813 0.000535178 0)
(1.00459 0.025696 5.73748e-22)
(1.01428 -0.00220108 8.61252e-22)
(1.00912 -0.000912104 -3.24365e-22)
(0.522597 0.29213 0)
(1.00785 -0.000570141 1.96804e-22)
(1.01452 0.000166311 0)
(1.07164 -0.0712556 0)
(1.05192 -0.0422458 0)
(1.05691 -0.0502314 -2.87923e-20)
(1.01835 -0.0015465 2.86091e-21)
(1.01328 -0.00530162 0)
(1.05688 -0.0538203 -1.30838e-21)
(1.01361 -0.00551826 1.20121e-22)
(0.864563 0.0830229 1.40231e-20)
(1.04619 -0.0146032 2.20963e-22)
(1.01336 -0.0146119 -2.86014e-22)
(1.03257 -0.0128783 3.7781e-22)
(1.01247 -0.00481936 -3.79826e-22)
(1.00878 0.000850094 -1.23543e-22)
(0.578022 0.386369 1.21379e-21)
(1.0082 0.000566664 -9.64747e-23)
(0.846141 0.421493 0)
(1.03374 0.0322716 0)
(1.03688 -0.00576097 0)
(0.21472 0.138892 -2.56951e-21)
(1.00599 0.000145588 1.14599e-22)
(1.02541 -0.00628692 0)
(1.00877 -0.0189001 1.23078e-22)
(0.515709 0.242872 9.68266e-21)
(1.04675 -0.0132437 0)
(1.04792 0.060846 9.20199e-22)
(0.970894 -0.0348147 7.62268e-21)
(1.0039 5.19164e-05 3.01788e-22)
(1.06195 -0.087683 -2.62368e-21)
(1.00702 -0.000142963 -5.8609e-22)
(0.888993 0.16243 -1.48872e-21)
(1.0136 -0.0055485 -1.18017e-22)
(1.02716 -0.00920991 4.67693e-21)
(0.301503 -0.0764649 4.85583e-21)
(1.0786 -0.0426754 6.23925e-21)
(1.01384 -0.00220497 1.41535e-21)
(1.01586 -0.00824936 0)
(1.02541 -0.0183133 -1.63986e-21)
(1.00886 -0.000445171 1.04204e-21)
(1.01812 -0.00151721 0)
(1.00458 0.105293 6.404e-21)
(0.249399 0.0470089 4.38784e-20)
(1.01139 5.24952e-05 0)
(1.00871 -0.000417129 3.51526e-22)
(1.00704 -0.000148245 -6.03256e-22)
(0.66196 0.0733015 0)
(1.03893 -0.123089 -1.59302e-21)
(1.02472 -0.031339 -1.29328e-21)
(1.00824 -0.000675103 2.30195e-22)
(1.02893 0.0173725 -3.01686e-22)
(1.0267 -0.00926313 -2.5071e-21)
(1.01325 -0.00534768 0)
(1.05557 -0.022142 7.21804e-21)
(0.988106 -0.171164 0)
(1.01162 -0.00140856 -8.72352e-22)
(1.05507 -0.0305806 1.14435e-20)
(0.983262 0.136481 -5.53619e-22)
(1.01124 0.0051976 1.13333e-22)
(1.0483 -0.0144605 -3.0021e-24)
(1.01954 -0.0037253 3.72296e-23)
(1.03371 -0.0330485 2.33142e-21)
(1.01158 -0.00128105 0)
(1.01075 0.000602314 3.14609e-22)
(1.04825 -0.0208936 4.41928e-21)
(1.01285 -0.00518724 -3.91002e-22)
(1.05728 -0.0289936 5.13064e-22)
(1.01594 -0.000313177 3.76949e-21)
(0.319823 -0.186289 0)
(1.00767 -0.000335836 -7.72997e-23)
(1.04643 -0.015326 -3.8369e-21)
(1.05545 -0.0209893 3.33298e-21)
(0.99244 -0.0714394 -2.71165e-21)
(1.05505 -0.0304995 9.87834e-21)
(1.00566 0.000172865 0)
(1.01238 -0.0047084 5.18951e-22)
(0.930564 0.0376435 -4.24751e-21)
(1.03299 0.0186301 7.08049e-22)
(0.963021 -0.0130924 0)
(1.00898 -0.00119619 -7.58041e-23)
(1.01174 -0.00346584 -2.19458e-23)
(1.01065 -0.026275 4.8012e-22)
(0.0563113 -0.266149 -1.34248e-20)
(1.07191 -0.0679292 5.27173e-21)
(1.0112 -4.87058e-05 0)
(1.01372 -0.00247406 -1.44119e-21)
(1.02111 -0.013401 2.08343e-21)
(1.01582 -0.00801633 -3.98765e-22)
(1.01328 -0.00309536 5.47573e-22)
(1.01355 -0.00415292 0)
(1.00495 -1.60951e-05 -2.58393e-22)
(0.919328 0.20202 4.27424e-21)
(1.0143 -0.00227734 0)
(1.01737 -0.00318894 1.51179e-21)
(0.947483 0.0225151 0)
(1.00841 -0.000759763 6.74896e-22)
(1.06043 0.0883217 -5.15092e-21)
(1.06138 -0.0938119 -2.44108e-21)
(0.621421 -0.111712 -1.98567e-20)
(0.710994 0.197105 -3.9495e-21)
(0.957604 0.141618 -5.09111e-21)
(0.250212 0.0390014 -7.50079e-20)
(1.0138 -0.00416986 -1.32096e-21)
(1.01186 -0.00355629 0)
(1.01343 -0.0116942 2.03972e-22)
(1.01149 3.88314e-05 6.67577e-22)
(1.01172 -0.00185298 -8.90993e-24)
(1.00633 -7.58316e-05 0)
(1.00561 3.12807e-05 0)
(1.02542 -0.0114278 2.2307e-21)
(0.980751 -0.136576 0)
(1.01387 -0.0280072 -5.92717e-21)
(1.00432 0.124005 -4.28009e-23)
(1.0104 -0.00209515 -3.60673e-22)
(1.01156 -0.00318974 0)
(1.0298 -0.0391072 -6.26303e-22)
(1.02316 -0.041466 -1.09265e-21)
(1.06072 -0.058707 2.56236e-21)
(1.00312 2.26372e-05 0)
(1.01545 -0.00103061 -1.03796e-23)
(1.01082 0.000585498 3.07796e-22)
(0.0538401 -0.142035 0)
(0.757556 -0.00030206 1.49469e-21)
(0.906607 0.286213 0)
(1.00592 -0.000165613 -3.14796e-22)
(1.0568 -0.0157837 -3.84834e-21)
(1.04941 0.00432067 -1.00937e-22)
(1.04536 -0.019817 3.36875e-24)
(0.0269814 -0.26734 4.08577e-20)
(1.01617 -0.109184 -5.69803e-21)
(1.01536 -0.0117099 0)
(1.01011 0.00612957 3.27299e-22)
(1.01337 0.00457308 0)
(0.855264 -0.0755194 -1.85704e-21)
(1.01922 -0.00881923 -9.8136e-22)
(1.00817 0.000680629 -4.26671e-22)
(1.07494 -0.0360824 1.78249e-21)
(0.779195 -0.0573907 -1.72027e-20)
(1.01355 -0.00359458 3.66385e-22)
(0.946228 0.0793629 -1.74996e-21)
(1.01342 0.0899556 -6.19222e-22)
(1.0147 -0.00199596 5.7743e-22)
(1.01279 -0.00375147 0)
(1.01488 -0.00172111 0)
(1.01149 -0.00278333 0)
(1.01599 -0.00499794 1.04615e-21)
(1.01015 -0.00737306 8.92062e-22)
(1.04454 -0.0309616 -1.14568e-21)
(1.01499 -0.00540673 5.21799e-22)
(1.01907 -0.0090282 1.04779e-21)
(0.888863 0.290341 -3.61637e-21)
(0.051528 -0.146366 0)
(1.01541 -0.00432613 -2.11252e-21)
(0.951213 0.190881 0)
(0.954445 -0.0275801 -6.89807e-22)
(1.01509 -0.00769742 0)
(1.01355 0.00125762 -9.13747e-23)
(1.01172 0.000143904 -1.16867e-21)
(1.00764 0.000255347 -9.33981e-24)
(1.01409 -0.00902777 2.90982e-23)
(1.01511 -0.00762006 -3.93512e-23)
(1.00439 4.73843e-05 -3.13691e-22)
(1.02684 -0.00756363 0)
(1.01034 -0.00686965 0)
(1.02069 -0.00842851 0)
(0.323926 -0.0604236 -8.89838e-21)
(1.03966 -0.0278084 -2.93082e-21)
(1.00509 1.18706e-05 -5.93012e-22)
(1.01158 -0.00255105 3.53341e-22)
(0.886171 -0.304304 0)
(1.02556 -0.00384728 5.59899e-21)
(1.0083 0.000727988 0)
(0.560988 0.281588 3.5726e-21)
(1.01191 -0.00182698 0)
(1.04958 -0.0323848 6.83154e-21)
(1.04749 -0.0210673 0)
(1.01754 -0.00290804 -1.54431e-21)
(1.00885 -0.00111841 1.72058e-22)
(1.00907 -0.000307037 6.77542e-22)
(1.01086 -0.0146057 -5.39968e-23)
(1.06129 -0.0312412 0)
(1.00463 -2.48021e-06 0)
(0.936766 0.162875 1.93945e-20)
(1.06403 -0.0590607 -2.53307e-21)
(1.06062 -0.00252552 -5.27874e-22)
(1.03165 -0.16399 -1.01943e-20)
(1.02093 -0.0128064 0)
(1.0064 -0.0523536 -1.97637e-21)
(1.00802 0.000588722 -4.65367e-22)
(1.03664 0.114042 0)
(1.03669 -0.00683338 -4.37553e-21)
(1.01131 -0.00276272 5.32498e-22)
(1.00519 -0.0212488 9.05092e-22)
(1.16225 0.012036 -5.72431e-21)
(1.01402 -0.00629538 -2.42559e-22)
(0.866061 0.212813 -4.85656e-22)
(0.804587 0.0394345 1.80882e-20)
(1.00615 0.000174409 3.63296e-22)
(1.05329 -0.0238817 0)
(1.00841 0.000766115 -4.99179e-22)
(1.01364 -0.000533761 -9.41125e-22)
(1.03713 -0.0295838 1.96259e-21)
(1.01454 -0.00760984 0)
(1.00757 -0.000249667 0)
(1.02436 -0.0181855 -7.88174e-22)
(1.01127 -0.00173037 0)
(1.01071 -0.00102112 0)
(0.916093 0.0980344 -3.04199e-20)
(1.01125 -0.000727421 -7.41424e-22)
(1.0117 -0.00194238 -3.74764e-22)
(1.00888 -0.00114432 -1.62177e-22)
(0.391486 -0.0588867 0)
(1.01167 -0.00244611 -1.11545e-21)
(1.01429 0.000401473 0)
(1.0434 -0.0312517 6.06809e-21)
(0.88425 -0.0857374 0)
(0.829131 -0.0779072 2.2263e-21)
(1.18414 0.000514743 0)
(0.918886 -0.278222 4.15789e-21)
(1.01106 -0.00298243 1.18725e-22)
(1.0084 0.000648938 1.62096e-22)
(1.01775 -0.00284189 0)
(0.865476 0.0235369 -1.01327e-20)
(1.00386 -5.00937e-05 -1.02157e-21)
(1.01031 -0.00194464 -3.74137e-22)
(1.03809 -0.0166751 -2.67547e-21)
(1.01066 0.000499716 -4.38834e-24)
(0.907894 0.157004 1.91421e-21)
(1.02044 -0.00900801 0)
(1.02326 -0.0055637 3.12767e-21)
(0.809911 0.00584656 -2.88448e-21)
(1.01302 -0.00373423 4.99444e-22)