/*--------------------------------*- C++ -*----------------------------------*\
| =========                 |                                                 |
| \\      /  F ield         | OpenFOAM: The Open Source CFD Toolbox           |
|  \\    /   O peration     | Version:  v2012                                 |
|   \\  /    A nd           | Website:  www.openfoam.com                      |
|    \\/     M anipulation  |                                                 |
\*---------------------------------------------------------------------------*/
FoamFile
{
    version     2.0;
    format      ascii;
    class       surfaceScalarField;
    location    "450";
    object      meshPhiCN_0;
}
// * * * * * * * * * * * * * * * * * * * * * * * * * * * * * * * * * * * * * //

dimensions      [0 3 -1 0 0 0 0];
oriented        oriented;


internalField   nonuniform List<scalar> 
27284
(
0.000480799
-0.000795828
0.000315304
-0.000399378
0.000366781
4.51466e-05
0.000284857
0.000239142
-0.000523905
-0.000258207
0.000408731
-0.000120087
4.50744e-05
0.000842993
-0.000882912
-0.000879443
-0.000248532
0.00113074
0.000546657
-0.000871524
0.000330212
0.000879708
-0.000829534
-6.34899e-05
8.55365e-05
1.09896e-06
0.000600144
-0.000705827
0.000108289
0.00130262
-0.000441935
-0.000857539
0.000495908
-0.000240406
-0.000255423
0.000175234
0.000320746
0.000346706
0.00063145
-0.00097694
-0.000147285
0.000145098
2.68149e-05
0.000216349
-0.000292195
8.45311e-05
-0.000346629
0.000124626
-0.000264196
0.00109171
-0.000824438
0.000307146
0.000319408
-0.00062638
0.000510764
0.000288419
-0.000793851
0.0003981
-0.000894125
0.000496426
0.000222553
-0.00105227
0.000836809
-0.000145503
0.000293397
-0.000130648
0.000214726
-0.00109194
0.000108929
-0.000239041
0.000791244
-0.00108197
0.000298138
0.000231427
0.000694935
-0.000916721
-0.000663103
7.24114e-05
0.000618533
-4.67744e-05
4.41209e-06
0.0012204
-0.000476405
-0.000741711
0.000485894
0.000411834
-0.000897503
0.000352051
-0.000991038
0.000640111
-0.000274235
-3.87271e-05
0.000318947
0.000161218
1.44982e-05
-0.000168463
7.45701e-07
6.34975e-07
-8.61951e-07
0.000677457
-0.000920057
0.000246516
0.000448638
0.000335075
-0.000782778
-9.5412e-05
0.000776354
0.000420276
0.000802699
-0.00108381
0.000942065
0.000146062
8.08614e-05
8.95685e-05
-0.000110028
0.000828744
2.71334e-05
0.00016787
-0.000187683
0.000326882
-0.0003964
8.24127e-05
-5.9032e-05
0.000322544
-0.000412082
8.95648e-05
-0.000646846
-9.43834e-05
0.000760324
8.58431e-05
-0.000713353
-0.000591836
0.00107657
-0.000175618
-0.000887908
4.69037e-05
-2.31411e-05
-1.62312e-05
0.000506566
-0.000832625
0.000326165
0.000885523
0.000202093
-0.000372142
0.000666342
-0.000293952
0.00107189
-0.000331066
-0.000716861
-0.000334918
0.000851562
1.32571e-05
-5.96196e-06
-4.00977e-06
-0.000936111
0.0010862
-0.00028831
-0.000383539
0.000134629
0.000248927
0.000195774
0.000219956
0.000282769
-0.000502568
-0.000727195
0.000355387
0.000482457
-0.000161743
-0.000316239
4.10398e-06
0.000674107
-0.000677423
-4.46506e-05
4.12943e-05
1.13069e-05
-0.000160168
-0.000586913
0.000748577
-0.00016269
0.000612097
0.00014386
2.09526e-05
-0.000158641
-0.0011589
0.000777512
0.000384125
-0.000648415
0.000842303
-0.000182747
0.00053045
0.000559534
-0.000169806
0.000916253
-0.000744924
0.00113582
-0.000281761
-0.000851344
-0.000115542
0.000792961
-0.000674298
0.000162077
2.54762e-05
-0.00018087
-0.000823866
-0.000112128
-1.42251e-05
0.000183127
-0.000791354
0.000152694
0.000713805
-0.000826053
0.000666415
-0.000825005
-0.000672892
0.000959459
-0.000283783
0.000175614
-0.000734564
-6.52947e-05
0.000801822
-0.000932277
0.000400754
0.000532207
2.84374e-05
1.03559e-05
-2.51226e-05
0.000166833
-7.3987e-05
-5.22268e-05
0.00021533
-0.00074598
0.000531398
0.00069631
5.87457e-05
-0.000737192
-0.000569547
0.000785668
-0.000102941
-0.000741075
0.00108639
-0.000730608
-0.000355287
0.00039586
-0.00106541
-0.000980844
0.000817298
0.00122672
-0.000469096
-0.000755876
-0.000492996
0.000183828
0.000313315
0.000677238
-0.000208659
-0.000449045
-0.000154609
-0.000333503
-9.69735e-05
0.000565211
-0.000467921
-0.000823396
-8.77049e-05
0.000915914
-0.00059315
-0.000338506
-0.000669709
-0.000110263
-0.000173181
-0.000795914
-3.62549e-06
5.31421e-06
-1.18833e-06
-1.60316e-05
0.000756328
-0.000738798
0.000332129
-0.000104993
0.000735974
-0.000731012
0.000363203
0.000863639
-0.000915967
0.000466251
0.000450829
8.74322e-06
0.000213908
-0.000214558
1.07787e-05
5.52984e-06
1.27211e-05
-1.1456e-05
5.1942e-06
-0.000127682
0.000745119
-0.000615611
7.92285e-05
-0.000811587
0.00037847
-0.000466092
8.76566e-05
0.000923031
-0.000217211
-0.000704031
-0.000836462
0.000177655
-0.000125203
0.000842863
-0.000142687
0.000894446
-0.000748424
-0.00118813
0.000603108
-0.000513554
-0.000643819
-0.000194068
0.000479003
-0.000972028
-0.000901534
0.000443482
0.000458734
0.000647743
-0.000769517
-0.000366903
0.000323382
4.35511e-05
0.000785498
-0.000258576
-5.25144e-05
0.00080523
-0.000324233
-0.00104211
0.000957456
9.05386e-05
0.000184892
0.000511993
0.000989456
-0.000482775
0.000997466
-0.000657761
-0.000327069
-0.000714092
0.000323523
0.000390804
0.000247597
-0.000639823
0.000392577
-0.000598179
-6.8498e-05
0.000681805
0.000615932
-0.00030864
-0.000672054
-0.000289499
0.000963559
-0.000271287
-9.52862e-06
0.000327525
0.00051121
0.000575619
2.05514e-05
-0.000568981
0.000549772
-0.00016517
-0.000713713
0.000881777
0.000613936
-0.00073098
0.000134446
-0.000373532
-0.000574073
-0.000475704
0.000723706
-0.000206067
0.000145981
9.8542e-05
0.00014655
0.000251832
-0.000398363
1.26957e-05
-4.64449e-06
-7.9568e-06
0.000658661
-0.000784313
-1.40834e-05
2.10904e-05
-7.03303e-06
-0.000619914
-1.20639e-05
-0.000475548
-0.000709783
0.000566598
-0.000176236
-0.00038491
0.000164064
0.000680217
-0.000840713
0.000212093
-3.67358e-05
-0.000170933
0.000100824
8.6322e-05
5.42955e-05
-0.000276718
-6.62795e-06
4.58671e-05
-3.4308e-07
0.000626788
-6.87685e-05
-8.14074e-05
-0.00101363
0.000221798
0.000794596
0.000285212
0.000721814
0.000179535
-0.00016439
0.000173422
0.000707754
-0.000877366
-0.00109707
0.00027998
0.000820092
-0.000431873
0.000619822
-0.000185765
-0.000176719
0.000323284
-0.000320975
0.000783841
-0.000462664
-0.000596553
-0.000292257
0.000889009
0.000666676
-0.000644545
8.5713e-06
7.1962e-06
-9.96689e-06
-0.000353398
-0.000360435
1.80191e-05
1.64013e-05
-2.18572e-05
0.000447747
-0.00103973
3.12483e-06
3.47567e-06
-4.20977e-06
-7.99657e-05
-7.62076e-05
-6.0199e-06
2.47388e-05
-6.51558e-06
3.04404e-08
6.58753e-06
-0.00103208
0.000534894
0.000499664
-0.000272735
-0.000495625
0.000769564
1.99341e-05
2.0115e-05
-2.56241e-05
-0.000584812
0.000155158
0.000889632
7.21748e-05
-0.000956314
-0.000133328
0.000668914
-0.000513614
0.000578008
-0.000477853
-9.69699e-05
-0.000961046
0.000799095
-5.01053e-06
-4.33458e-05
6.6517e-05
-0.000202916
0.000804522
-0.000600638
0.000777721
-0.000155841
-0.000586128
0.000770056
-6.63928e-05
3.26255e-05
-0.000399496
-0.000538744
0.000442063
0.000477665
-0.000382135
-8.23809e-05
-0.000161936
-2.49768e-05
0.000191848
0.000292897
-0.000349666
0.000115584
0.000313621
-0.000483932
0.000170355
3.37713e-05
2.04612e-05
0.000479349
-0.000793167
0.00031395
-3.24328e-05
0.000412445
0.00117608
-0.000827822
-0.000112453
-0.000838815
0.000153871
0.000910693
-0.00105993
0.00119436
-0.000771586
-3.73027e-05
-3.48846e-06
5.61138e-05
-0.000790188
0.00046942
0.000333894
-0.00109391
0.000768152
0.000261173
-0.000857512
0.000442677
-0.0005565
0.000292962
-0.000351687
6.52879e-05
0.000583708
-0.000159585
-0.000418137
0.000871816
-0.00091604
5.17486e-05
-0.000892865
0.00106713
-0.00017253
-0.000618022
0.000173006
0.000450173
-0.000212999
-0.000399929
8.87559e-06
4.07164e-06
-0.000660983
0.00110882
0.000552102
-0.000823553
0.000573918
-0.000668333
9.53477e-05
-0.00118373
0.000337383
0.000854226
-0.000868094
0.000273116
0.000613377
-0.000370543
-0.000544463
0.000134045
2.777e-05
-0.000157419
0.000539563
0.000210292
-0.000749339
-5.22074e-05
0.000370748
-0.000315308
-0.0011337
0.000947137
0.000189254
0.000183522
-0.00070732
0.00052916
2.87389e-05
0.000148252
-0.000172328
0.000249816
-0.000920296
-0.000434996
0.000887169
-0.000451846
-0.000100149
0.000842665
-0.000741192
0.000583099
-0.000683152
0.000107395
0.000651706
-5.87884e-05
-0.000290273
0.000350934
0.000167232
-0.00068223
0.000858749
-0.000929638
-0.000199319
0.00104097
-0.000225358
-0.000810783
0.000355198
-0.000125987
0.0006018
-0.000474873
-0.000592186
0.000383818
0.000545642
-0.00017779
-0.000354723
-0.000539715
-0.000490355
-0.000180335
-0.000406399
0.000793339
-6.26899e-05
-0.000729441
-0.000841054
0.001015
-0.000290824
-0.000700553
-7.99606e-05
0.000662785
-0.000562669
-0.00106893
0.000177693
-0.000720545
0.00104811
-0.00032536
-0.000962095
0.00083924
0.00013373
0.000162991
0.000323705
0.00034889
-0.000270093
0.000471422
-0.000201245
0.00033757
-0.000386429
-5.11959e-06
-1.04457e-06
-1.53988e-05
0.000359708
-0.000340985
0.000496223
-0.000621223
0.000237513
-0.000212299
2.78644e-05
-0.000565724
0.000755116
0.000184503
0.000407624
-0.000574247
-1.60979e-05
2.04158e-06
-0.000760082
0.000167866
0.000595585
0.000829386
-0.000451906
-0.000377142
-0.000755273
0.00051493
0.000240766
0.000812525
0.000384249
0.000215708
0.000830459
-0.00104077
-0.000151744
0.000877838
-0.000721734
-0.00020443
-0.00040068
0.000605411
-0.000378513
0.000580498
0.000705638
7.19292e-05
0.000723205
-0.000787484
-0.000195785
-2.93908e-05
0.000232348
-0.000871971
0.00103025
0.000663318
-8.88626e-05
4.42789e-05
0.000539833
-0.000554741
-6.40208e-06
-0.000824085
0.000837582
0.00139653
-0.000554738
-0.000839038
0.000105339
-0.000687917
-0.000754114
0.000404068
0.000350444
-0.00118131
0.000221381
0.00138347
-0.000566478
-0.000813423
-6.55899e-05
0.000943007
0.00106282
-0.000303328
-0.000757563
-0.000218623
2.98649e-05
-0.000806759
0.000562215
0.000245235
0.000856015
0.000136711
-0.000983962
-0.00116542
0.00063108
0.000535955
0.000217841
-8.29665e-05
-0.000611817
-1.57115e-05
-2.50576e-06
3.22199e-05
-0.000300602
0.000104635
-0.00052449
0.000420203
-0.000782453
0.000845466
-5.96504e-05
-0.00075673
0.00023461
0.000527319
0.000779948
-0.000927745
-4.3976e-05
-7.76936e-05
3.11753e-05
-0.000188326
-0.000336095
-0.000417627
0.00089617
-0.000894924
0.000715539
0.000339751
-0.000775993
0.000437146
-0.0010261
-7.75079e-05
0.000678111
-0.000599988
0.000290953
3.09311e-05
0.000976843
-0.00100323
0.000557164
0.000841988
0.000769714
-0.000898904
0.000140994
0.00069888
7.23096e-05
-0.000769245
-0.000363084
-0.000391532
0.00049556
-0.000390589
6.69101e-05
0.000286134
-0.000351273
-0.000156079
-0.000274153
0.000430278
-0.00106975
0.000596176
0.000486558
-0.000849182
-0.00019294
0.00104489
0.000420495
-0.000734782
0.000314615
0.000509958
0.000554199
-0.000406716
-0.000647458
0.000748569
-0.000642767
8.64141e-05
0.000565591
-0.000629706
-0.00039744
-0.000189557
0.000587263
-0.000425634
0.000269604
0.000261817
0.000264486
-0.000526256
-0.000267655
0.0003363
0.000831245
-0.000132464
-0.000504402
0.000638296
2.282e-05
0.000739094
-0.000758246
1.78642e-05
-1.43073e-05
-2.90941e-06
-0.000921999
-0.000161737
-0.000699909
-0.000938896
3.38392e-05
0.00091884
0.000694411
-4.63906e-07
1.651e-06
-0.000680562
-0.000139765
0.000822168
6.35202e-06
-0.000283954
0.000286011
0.00111244
-0.000461893
-0.000327453
0.000333686
4.43344e-05
-0.000165796
-0.000912548
-0.000100448
-0.000912274
0.00101695
0.000494461
-0.000213132
-0.000281251
-0.00045701
-0.000339879
0.000797051
-0.000724082
0.000662477
6.79198e-05
-0.000333759
0.0010526
-0.000849173
-0.000198914
0.000760034
-4.60143e-05
-5.47763e-05
-0.000870028
-0.000950377
0.000859315
9.59413e-05
4.80891e-05
0.000554894
8.64341e-05
0.000684683
-0.000755432
0.000147172
-0.000173443
6.99228e-05
-1.86932e-05
5.08398e-06
1.37264e-05
0.000196528
0.000762269
-0.00095549
-8.19473e-05
-0.000668284
0.000766296
-0.000267638
0.000478989
-0.000211285
-0.000903457
-4.23755e-05
-6.53937e-05
0.000623707
-0.000538269
-0.000844204
0.000120065
0.000733812
-8.51266e-05
0.000717603
0.000215845
-7.40769e-05
-9.00766e-05
0.000644873
-0.000728602
-0.000143272
-2.82401e-05
0.000174994
-3.96906e-05
0.000219561
-0.000936276
0.000118453
-0.000156978
-0.000226549
-4.69146e-05
0.00036014
-0.000311158
2.72493e-05
-0.00016704
0.000644102
5.14525e-05
-0.000675645
-0.0010861
0.000887312
0.000203091
-0.000436232
0.000540978
-2.61812e-05
3.48183e-05
1.37242e-06
-0.00012614
0.000796448
-0.000667358
0.000309535
-0.000354505
0.00137565
-0.000815702
0.000873625
-0.000879185
1.97784e-05
0.000423064
0.000621813
0.000453134
-0.000277833
0.000653474
-0.000206549
-0.000441448
-0.00036426
0.000352179
0.000740496
-3.96334e-05
-0.000268972
0.000330492
-5.43362e-05
-0.00106182
-2.00556e-05
-0.000547679
0.000928722
-0.000376562
0.000853046
0.000105533
-0.000953632
3.0258e-05
-0.000182986
0.000190585
0.000819808
-0.00108127
9.47854e-05
-0.00010537
3.81737e-05
-0.000870196
-8.25855e-05
0.000958904
-5.59436e-05
0.000394686
0.000798794
-0.000826534
2.86987e-05
0.000391332
0.00115949
-0.000414776
-0.000742251
-1.58628e-05
-2.10339e-05
0.000518536
-0.00105033
0.000182325
-8.6897e-05
-0.000709047
0.000804622
-9.10468e-06
-0.000401358
0.000410668
-0.000297011
-0.000123996
0.000421029
5.91245e-05
0.000302602
0.000120084
0.000633268
-0.00074685
-0.000509892
0.000239898
-0.00029577
0.00101834
-0.000716956
-2.15373e-05
-0.000263752
-3.44761e-07
3.44761e-07
0.000793319
-0.000426359
-0.000366487
0.000261431
0.00054822
0.000633629
0.000744403
-0.000549249
-0.000317467
-0.00111952
0.00031197
0.000810275
-0.000593721
0.000619498
-0.00108747
0.00103341
5.57648e-05
0.000334467
-0.000791275
0.000233277
0.00042326
-0.000656219
-3.80596e-06
4.48539e-07
0.000230578
0.000309758
-0.000540302
-0.000958895
0.000876303
-0.000459748
0.000530572
0.000862217
-0.000463702
0.000362801
1.73332e-05
-0.000668294
-0.000387645
-1.56876e-05
6.80798e-06
8.88278e-06
7.61731e-05
0.000660537
0.000444936
-4.70546e-05
-0.000665476
0.000312304
0.000735896
-0.000499046
-0.000235235
0.00082146
-0.000364743
-0.000456366
0.00105496
-0.000785716
-0.000259412
-0.000522287
0.000299784
0.000233195
0.000369858
0.000697575
-0.000837228
0.000558535
0.000142684
-0.000694281
-0.000226113
-0.000477364
-0.0005758
-0.000180851
6.37459e-05
-0.000496432
0.000269199
0.000424501
-0.000433389
-0.00019052
-0.000320313
-0.00117751
0.000205919
0.00097606
1.94912e-05
-0.000742146
-0.00073016
-0.000234121
0.000964403
-0.000704913
0.000375477
0.000329928
-0.000747169
0.000946855
0.00103701
-0.000257526
0.000416815
-0.000647633
0.000231268
2.17552e-05
-0.000109721
0.00011078
0.000231671
4.0732e-05
-0.000266428
-0.0006483
-0.000186242
-0.000135736
-0.000406096
0.000109105
4.60033e-05
-0.000307908
2.74922e-05
-6.3642e-06
-7.38084e-06
-0.000210617
-4.75288e-05
0.000306103
0.000347761
0.000146766
0.000344676
-0.000887309
-3.2998e-05
-0.000153449
0.00019093
-0.00103709
0.000374599
-0.000266822
-0.000805028
0.00103763
-0.000223161
-3.49847e-05
0.000348636
-0.000315511
0.000535622
0.00104697
-0.000151733
-3.2234e-05
0.000149814
-0.000326232
-0.000378139
-0.0003472
-1.08337e-05
0.000358092
0.000598979
0.000325628
-0.0009244
0.000266053
1.9628e-05
-0.000278644
-0.000399486
-0.000413729
0.000813326
-0.00028739
6.14948e-05
0.000319343
-0.000240503
-0.000479107
0.000720229
-0.000919507
0.000178953
0.000743472
-1.64943e-05
0.000816179
0.000709304
-0.000877658
0.000686314
0.00085975
0.000279402
-0.000571339
0.000799013
-0.000497929
0.000230363
0.000152183
0.000745301
0.000702044
-0.000315869
-0.000385527
0.000178602
-0.000953736
0.000779212
0.000235183
3.52606e-05
-0.000263972
-0.00109651
0.000563054
0.000537937
0.00026132
-0.000196995
0.000516239
-0.0003191
0.000351882
-0.00047585
0.000734879
-0.000657947
0.000841887
0.000252862
-0.001142
0.000259681
0.000885557
0.000944849
0.000195287
0.000393647
0.000757402
-0.000723068
0.000154996
0.000347854
-0.000498124
2.90481e-05
0.000123661
-0.000149997
0.000238837
0.000653563
-0.000868516
0.000758216
-0.000195309
0.000367231
-0.000325744
0.000485361
-0.000740447
0.000483329
0.000257195
0.000725748
-0.000246244
-0.000306417
-0.000867048
-0.000169061
2.04883e-05
1.81606e-05
0.00066563
6.9295e-08
-1.33666e-05
-2.35229e-06
-0.00032749
-0.000176313
0.000503881
0.000181623
-0.00102578
-9.62771e-05
0.000847068
-0.00074872
0.0008733
0.000141227
-0.00101142
-0.000931281
8.43529e-05
0.000850458
0.000879404
-0.000183706
-0.000693833
0.000223076
-0.000290178
6.71101e-05
-0.000269245
-0.000435315
0.000705286
0.00079648
-0.00109706
0.000309264
0.000317421
5.97571e-05
-0.00037661
0.000120198
8.23903e-05
0.000444113
-0.000342862
0.000573476
0.000720532
-0.000652705
-6.7e-05
-0.000886496
-0.000285801
0.000276671
-5.35871e-05
0.000570345
-1.896e-06
-0.000307983
-0.000357244
-0.000369559
0.000722428
-0.000236667
-5.94312e-05
0.000297355
0.000903637
-0.000748367
-0.000297928
-0.000792928
-0.000927054
-0.000101624
0.00104062
-0.000570855
0.000739838
-0.000166902
-0.000637652
6.42297e-05
-0.000299628
0.000690824
-0.000476282
-0.000212855
0.00102951
-0.000114604
3.16946e-05
-0.000947389
0.000719288
-0.000782661
-0.000935384
0.00066644
0.000833886
0.000200105
-0.00103129
-0.0003825
0.000447399
-0.00110797
1.82454e-05
0.000333658
0.000848792
7.07617e-05
-0.000918969
0.00117748
-0.000218667
-0.000954505
-0.000778332
-0.000211192
-0.000103864
0.000764939
0.00064974
-0.000725685
-1.76088e-05
0.000733229
-0.000698474
0.000343572
0.000836352
0.000870144
-0.00109013
0.00022361
0.000985355
-0.000121193
-0.000238618
-0.000672818
0.000603559
0.000510188
0.00018759
0.00048009
-0.000648535
0.00090009
-5.07084e-05
0.000833648
0.00025019
-0.00107792
0.000154119
-0.000490266
0.000336305
0.000239353
0.000213839
-0.000607484
0.000604258
0.000837291
-0.000755775
0.00032359
0.000481817
-0.000540759
0.000800957
-0.000159869
-0.000269741
0.000429632
0.000242281
-0.000169337
0.000920849
-0.000235405
-0.000684871
0.000468221
-0.000736688
-9.1764e-05
0.000242087
0.000689253
-0.00079062
0.00036105
-0.000420853
0.000654437
-3.30332e-05
1.06729e-05
-3.29003e-05
0.000170209
-0.00013185
0.000422479
0.000225539
-0.000647523
0.000308159
0.000413053
-0.000341711
0.000495993
0.000689474
-0.000533897
-0.000122929
-0.00018844
0.000471335
-0.000430699
0.000636484
0.000194361
-0.000521769
-8.42374e-08
-9.71633e-08
-0.000959635
0.000299068
0.000670934
-0.00016741
0.000464395
-0.000296923
-0.000207159
-0.000604133
0.000816917
-0.00106022
0.000136569
8.4158e-06
-3.22414e-06
0.000853239
-0.000121574
-0.000729598
0.000738046
-0.000229545
-0.000503151
0.000148393
-0.000826941
0.000486384
-0.000224536
-0.000943129
0.000392634
0.000552012
5.76228e-05
0.000316145
-1.10929e-05
1.5366e-05
2.10153e-07
0.000621267
-0.000114891
0.00094482
-0.000825124
-0.000239404
-0.000702153
-0.000145797
-0.000208372
0.00035418
0.000355558
-0.000107138
-0.000235785
0.000351322
-0.000290602
0.000832335
-0.000977401
0.000152663
2.15349e-05
-7.41424e-06
0.000237081
-0.000855118
0.000619645
1.12793e-06
-1.44396e-05
0.000166701
0.000492237
-0.000899807
0.000591205
0.000309085
0.000134649
0.000570983
-0.000699578
-0.000279693
0.0005183
-0.000238228
0.000730181
-0.00027227
-0.000456885
1.3394e-05
0.000562986
0.000813998
-0.000535057
-0.000278778
-0.00077157
-9.37914e-05
-0.00064658
-0.000863285
0.000188179
0.000676384
-0.00099933
-3.64869e-05
0.00104208
0.000845873
-0.000153393
-0.000668387
0.000311315
0.000544672
0.000777631
-0.00105679
0.000546328
-0.000924275
0.000381985
-1.14381e-05
-3.94834e-06
-0.000241213
0.000739238
-0.000497579
-0.00089125
0.000508398
0.000382914
-0.000733791
-0.000213713
-0.000238035
-0.000760794
0.000999078
-0.000967957
0.00073947
0.000250424
-0.000987474
-0.00019283
0.000481743
-0.00028885
-1.77859e-05
0.000255487
-0.0005776
-0.000217904
-7.18281e-05
0.000298168
-0.000225307
-7.40015e-06
-3.28349e-06
1.09623e-05
0.000494667
0.000236782
0.000744915
-0.000471001
-0.000273467
-6.50069e-05
-0.000272458
0.000337491
-0.000670669
0.000821134
-0.000583383
-0.000104915
0.00069805
-0.000635103
4.66041e-05
-1.66732e-05
0.000107198
0.000473667
0.000178952
-0.000576121
-0.0011031
0.000750916
0.000360314
0.000922123
-0.000769425
-0.000148816
0.000485616
-0.000726396
-0.000881147
0.000318933
-9.01569e-05
-0.000651673
0.000751143
-0.000239378
0.000656651
-7.23075e-05
-0.000313657
0.000385994
-0.000764382
0.000195531
0.000620171
8.89937e-05
-0.00070505
-0.000657322
-0.000104083
0.000653286
0.000152003
-0.000912152
8.84186e-05
0.000743063
0.00054869
0.000147032
-0.000677368
0.000845194
-0.000933905
9.07732e-05
0.000151621
-0.000820086
0.000783655
-0.000615948
0.000273375
0.000296396
-0.000569487
0.000350011
0.000711641
-0.00074134
0.000306625
2.97857e-05
-0.000192279
0.00113626
-0.000972321
-0.000157762
-0.000132675
-0.000447757
0.000580498
-1.96684e-05
2.83704e-06
0.00104124
-0.000194021
-0.000168877
-0.000553765
-0.000345321
0.000872014
4.99415e-06
-0.000862559
-0.000195925
-0.000248801
0.000467462
0.000509838
0.000393059
-0.000900999
0.000136179
0.000719122
-3.29399e-05
0.000159766
-0.000122834
5.05364e-05
0.000334935
-0.000381399
7.52588e-05
0.000762961
-0.000835747
4.98455e-05
0.000616721
-0.00108986
0.000677333
0.000124733
-4.07975e-05
-6.40182e-05
-0.000612239
-0.000288501
0.00046449
-0.000877181
0.0010596
-0.000168406
7.13016e-05
-0.000725414
0.000343517
-0.000896135
0.000840876
-0.000546095
-0.000294695
-3.08695e-05
0.000165775
-0.000131281
0.000559582
-0.000320348
-0.000492083
0.000869304
-0.000360445
9.30884e-06
-2.39792e-06
0.000272709
-0.000440059
-0.00016647
0.000930407
-0.00076112
-0.000898845
0.0006648
-0.000249497
-0.000837561
-0.000532699
0.000365488
0.000570876
0.000270086
0.000412771
-0.000887491
-0.000192315
-1.83888e-05
0.000112597
0.000149384
-0.000144701
0.000711895
0.000279268
0.00076381
-0.000535158
0.000798341
-0.000463667
3.11767e-05
-3.69096e-05
2.43266e-05
-0.000354453
0.000194601
0.000873419
0.00013257
-0.00100005
-0.000669612
0.000744286
-0.00079397
-0.000386988
-0.000826943
0.00103703
0.000832171
0.000727553
-0.000135904
-2.25496e-05
0.000161363
-0.000335984
-0.000150364
0.000486456
-0.000777093
0.000948985
-0.000153718
-0.000192967
0.000233143
-3.25765e-05
0.000194419
3.41264e-05
-0.000223633
-0.000745514
0.000277505
-0.000796382
0.000464007
-0.000203339
-0.000260612
-0.000251585
5.79032e-05
0.000437991
-0.000519722
0.000812971
-0.00106338
0.000873062
-0.000918723
-9.22188e-05
-0.000197743
-0.000585677
0.000788903
0.000777639
-0.000606196
0.000311048
-0.000512359
0.000742099
-0.000298003
0.000182413
-2.94044e-05
0.000911852
-0.000463966
0.000352963
-0.000425238
-1.97395e-05
2.66905e-05
-2.97216e-06
0.000559794
-0.000704824
0.000147742
2.78469e-06
-1.02004e-05
1.16038e-05
-0.000343607
0.00028657
-0.000563286
0.000283965
-8.21699e-06
9.89181e-07
-0.000224695
-0.000830896
-0.000100866
0.000116586
-0.000782901
2.64308e-06
-1.76934e-05
-0.000581658
0.000793147
-0.000210476
0.000750025
-0.000520806
-0.000227445
-0.000946534
0.000600981
0.00034602
-0.000843967
-0.00022249
-0.000379118
0.000674379
6.10988e-05
-0.000310772
0.00025105
-0.000442007
0.000472166
-3.00238e-05
0.000309921
0.00060077
0.000120052
-0.00102128
0.000538936
0.000483978
-0.000667101
9.26742e-05
-0.000880831
0.00103454
-0.000144575
-0.000397599
0.00109621
-0.000682723
1.88805e-06
-7.93045e-07
-0.000110929
-0.000271524
0.000679182
-0.0010007
-3.1587e-05
8.94424e-05
-0.000116476
4.80424e-05
0.000153344
-0.000132518
-1.03473e-05
1.17421e-05
1.04217e-06
0.00106597
-0.000228086
-0.000833147
-0.000443098
-0.000502856
8.91285e-05
-0.000530981
0.000331678
-0.000729478
0.000867744
0.00114282
-0.000300406
-0.00083675
-0.000253207
-0.00088352
0.000705953
-0.000116067
-6.83347e-05
-0.000798237
0.00101929
-7.17538e-06
0.000158877
-0.000145203
0.000154432
0.000507134
-0.000642543
-4.05103e-05
5.05698e-05
-0.00113816
0.000278133
0.000845477
0.000191495
-0.00103272
6.20533e-05
0.000290386
-0.000348754
-0.000208329
-0.000257724
0.000190837
0.000964437
-0.000570301
0.000477134
-0.000665809
-0.000461235
0.000114095
2.64968e-05
0.000152584
-0.000282733
0.00034852
-0.00105345
0.000213665
0.00104425
5.38625e-05
-0.00033284
3.9573e-05
0.000209663
-0.000244163
-0.000401456
0.00106072
0.000150854
-0.000124253
0.000654005
0.000475382
-0.00112693
-0.000850237
9.51689e-05
-7.73391e-05
0.00105988
-0.000349102
-0.000694033
-0.000483758
-0.000535346
-0.00019783
-0.000844956
0.00104398
-0.000535071
0.000700566
0.00118237
-0.000782378
-0.000395732
0.000155891
-0.000106553
0.000150132
0.000465909
-0.000305512
0.000247329
0.000786386
-0.000483218
-0.000302412
-0.000399796
0.000949769
-0.000868215
0.000576523
0.00106011
-0.000221716
-0.000210626
-0.000784667
0.00100119
-0.000209567
-8.06021e-05
4.53894e-05
-1.45234e-05
0.000292444
-0.000226934
0.00061608
0.000352435
-0.000925224
0.000573623
-0.000826533
-0.000260566
0.00109263
-8.77193e-05
-0.000257375
-2.76933e-05
-0.00011412
0.000144389
0.000602755
-0.00107014
0.000149415
-0.000117626
0.000518701
0.00026844
-0.000303617
0.00027013
0.000208923
0.000139609
0.000116271
-4.29199e-05
-4.52413e-05
7.63924e-05
6.52801e-05
-2.16438e-06
-4.25944e-07
3.62364e-06
0.000109648
-0.00097196
0.000339562
-0.000566525
0.000241978
0.000324688
-0.000817523
0.000679539
0.0003738
-0.000713986
0.000340703
-0.00119378
0.000716341
0.000486636
-1.64964e-05
0.000156289
-0.000133999
-6.78774e-05
3.00177e-05
0.00104053
-0.000303585
-0.000718753
0.000770797
-0.000202621
-0.000557302
0.000707887
-0.000965125
0.000261881
0.00046331
-0.0004051
-0.000133892
0.000615588
-0.000409271
-0.000775571
0.00086876
-0.000980054
0.000127527
0.000766816
0.000629356
0.000336984
0.000708033
-0.000333788
0.000828277
-0.000174193
0.000323368
0.000189039
-0.000512302
-0.000100421
0.000235058
1.89277e-05
-0.000757508
0.000740433
-0.000736487
-0.000110142
0.000140052
0.000983816
-0.00024424
-0.000734153
0.000376571
-9.426e-05
-0.000245305
0.00109367
-0.00031309
0.00038643
-0.00059027
0.000204122
0.000175686
-0.000511553
-4.38381e-05
0.000302693
-0.000252231
-0.000793335
8.89013e-05
-0.000953037
0.000251141
0.000530228
7.18184e-05
-0.000281377
-1.59863e-05
0.000640446
0.000150624
0.00016048
-3.40023e-05
5.40745e-05
-1.7493e-05
-2.77487e-05
0.00067734
-0.000514785
0.000613743
-0.000555177
0.000243688
0.00017352
-0.000417167
0.000111505
2.18337e-05
-0.000130733
-0.000118744
0.000262299
-0.000299559
-0.000196992
-0.000167657
0.000379668
0.000703889
-0.00100842
0.000136369
5.65547e-06
0.00087051
-0.000357447
0.000175054
-0.0008271
0.000625703
0.000238917
-4.4825e-06
-1.4097e-05
0.000271626
0.000880336
-0.000551931
0.00103574
-0.000481773
-0.000180201
-0.000570522
-0.000945183
0.000806719
0.000142678
0.000654487
-0.000229766
-0.000430148
-7.5466e-05
0.000507935
0.000231263
9.75155e-05
1.2692e-05
-9.50219e-05
-0.000167491
0.000289216
0.000171965
-0.000727848
0.000560544
-3.82152e-05
1.30461e-05
-0.000826931
0.000847949
-0.000570277
9.55152e-05
0.00106021
-0.00016788
-0.000881487
0.00107839
-0.000241878
-0.000830013
0.000880943
-0.000918925
-0.000689537
0.00104289
0.000326376
-0.000256624
2.97691e-05
2.06893e-05
-3.4067e-05
3.73395e-05
-4.95489e-05
2.14132e-05
0.00109992
-0.000225917
-0.000536763
0.000459723
-8.16838e-05
-0.000726522
0.000825041
0.000631913
-0.000208344
2.57622e-05
0.000139107
0.000155958
-0.000123905
0.000461355
0.00123288
-0.000807969
-0.000423816
0.000204675
0.000487692
-0.000359129
7.05401e-05
0.000418177
-0.000174452
-1.88664e-05
0.000180686
-0.000156906
0.000341883
3.45e-05
-0.000373288
-4.62346e-05
0.00076307
-0.000715974
0.00118544
-0.00020114
-0.000979982
-0.000825338
0.000949131
0.000689475
0.00103069
-0.000844172
-0.000236966
0.000619035
-0.000381922
0.000488881
0.000744541
8.42666e-08
-8.41274e-06
0.000163605
-0.000177627
-1.44515e-05
0.000900655
0.00080327
-0.00108686
0.000289022
0.000160325
0.000484623
0.000395575
3.64028e-05
0.000165755
-0.000194658
0.000158554
0.000911485
0.000172887
0.000882122
0.000646794
-0.000411906
-0.000234459
-0.000291711
0.000787402
-0.000486831
0.000554233
8.75406e-05
-0.000632923
0.000660307
-0.000810733
0.000154223
-0.000538247
0.00061616
-0.00041717
0.000372405
4.93017e-05
-7.14041e-05
0.000393924
-0.000521275
0.000127522
0.000333579
-0.000498224
0.000164801
0.00013443
0.000281154
-0.000196241
0.000208482
-0.000214769
3.02251e-05
5.33069e-05
0.000229484
-0.000279729
0.000577753
-0.000770392
0.000857429
-0.000173027
-0.000668248
0.000614714
9.76687e-05
1.30103e-05
-9.69474e-05
-0.000581129
0.000314457
-0.000251897
0.000375944
-0.000249363
-0.000113282
0.000882348
-0.000153302
-0.000705895
-0.000676088
0.000255556
0.000617129
0.000177856
-0.000466819
0.000306174
-0.000621248
-0.000193406
0.000831773
-0.000967961
0.000470591
0.000497405
5.7132e-05
-7.45221e-05
0.000958388
0.000271339
0.000117421
-6.14091e-05
-0.000300135
0.000365162
0.000330469
-0.000224223
-9.78096e-05
-9.21962e-05
0.000708531
-0.000615171
-0.000186012
-0.000311834
0.00015621
0.000748224
0.000682902
-0.000363318
-0.000488585
-0.000233015
0.000722556
-0.000446583
9.48501e-05
0.000351777
0.000724992
-0.000341304
-0.000383369
-4.41042e-05
-0.000543771
0.000613936
0.000340098
0.000849047
-0.000112971
-0.000576995
0.00070448
0.000221815
0.000304356
-0.000508762
0.000492499
6.08761e-05
-0.000524775
-0.000640049
-0.000153549
0.000795547
-7.58642e-05
0.00088067
-0.000169497
0.000675619
0.000284667
0.000475178
-0.000758762
0.000435652
0.000219029
0.000644217
-0.000172476
-0.00115692
0.000348296
0.000810932
-0.000891118
-0.000175872
0.00107145
0.000150248
-0.000175034
0.000229395
-0.000989885
0.000814551
-0.000926028
0.000114188
4.34888e-05
-6.33705e-05
3.16674e-05
4.58689e-05
2.36753e-06
0.000206781
0.000257277
-0.000373275
-0.000517838
0.000334599
0.000463927
0.000386675
-0.000495717
0.000125672
-0.000327488
0.000517588
-0.000189969
0.000221553
0.000207564
-0.000806163
0.000807275
7.65068e-05
-0.000881858
-0.000362797
-0.000425419
0.0007901
0.000968525
-0.000646104
8.32573e-05
-6.58839e-05
-0.000276244
0.000441098
0.000515733
-0.000951756
0.000814524
0.000973855
-0.000232322
-0.000465238
0.000278462
0.000614923
-0.000898211
2.00316e-06
-8.75295e-06
0.000751604
-0.000185699
0.000251451
-0.000446047
0.000194635