/*--------------------------------*- C++ -*----------------------------------*\
| =========                 |                                                 |
| \\      /  F ield         | OpenFOAM: The Open Source CFD Toolbox           |
|  \\    /   O peration     | Version:  v2012                                 |
|   \\  /    A nd           | Website:  www.openfoam.com                      |
|    \\/     M anipulation  |                                                 |
\*---------------------------------------------------------------------------*/
FoamFile
{
    version     2.0;
    format      ascii;
    class       volVectorField;
    location    "800";
    object      ddt0(U);
}
// * * * * * * * * * * * * * * * * * * * * * * * * * * * * * * * * * * * * * //

dimensions      [0 1 -2 0 0 0 0];


internalField   nonuniform List<vector> 
18758
(
(-0.00956919 0.000976747 -4.29885e-18)
(0.00976995 -0.00618673 -7.7092e-18)
(-8.13475e-06 -2.73467e-05 6.80012e-20)
(-0.0548061 0.0561327 -3.48578e-18)
(-0.0109059 0.0214968 -8.27321e-18)
(-0.0304408 -0.00379326 -3.02845e-18)
(0.008967 0.000559682 1.12652e-16)
(-0.000224576 -0.000172527 1.18559e-18)
(-0.00233341 0.0184454 -6.12828e-18)
(-0.00292583 2.65005e-05 4.07259e-19)
(-0.00152586 -0.00132637 -7.32609e-18)
(-0.00950088 0.00182143 -8.1373e-17)
(-0.000199985 7.20108e-06 -1.81032e-18)
(-0.0308235 -0.0384374 -7.19577e-18)
(0.00159091 -0.0016761 -1.5923e-18)
(-0.0042204 0.0102693 4.75292e-17)
(-0.00457775 -0.00468291 -1.84198e-17)
(-0.000246994 -2.90602e-05 4.95494e-19)
(0.000160611 -0.000758948 1.05244e-18)
(-0.00352581 -7.16223e-05 4.52284e-20)
(0.0236281 0.00328088 -1.03061e-17)
(-9.14953e-06 8.859e-05 2.20427e-18)
(0.00425987 0.000118848 -5.8794e-17)
(-0.0195219 0.0344453 3.78633e-17)
(-0.00197518 -0.0198795 4.71057e-17)
(-0.000231255 -0.000153393 -6.00551e-19)
(-0.00751726 0.0120734 -1.28046e-18)
(-0.0211194 0.0188173 -3.27212e-17)
(-0.0605949 -0.0142444 -3.5729e-17)
(-0.0119558 0.0111225 -8.24297e-17)
(-0.0113216 -0.0135035 -7.30543e-18)
(0.0459224 0.0037007 -9.63691e-18)
(-7.07145e-05 1.7083e-05 -8.83936e-19)
(-0.000367847 -0.00143242 -3.20283e-19)
(-0.0254719 -0.00520156 1.97663e-17)
(-5.89589e-05 0.000764766 -7.21227e-18)
(-3.32546e-05 2.36537e-05 -1.31375e-19)
(-0.000645071 -0.000947001 -1.49497e-18)
(-0.000805196 -0.00108801 -8.81784e-19)
(-0.00507464 -0.00372334 -4.55303e-18)
(-0.000591852 -0.000943624 -1.20746e-18)
(-0.00183277 0.00182589 -9.88197e-18)
(-8.86839e-05 -0.000359257 -1.4362e-19)
(-0.00234279 0.000986425 6.34683e-18)
(-0.0167182 0.00808487 2.35295e-17)
(-8.83789e-05 -7.80412e-05 -9.09441e-19)
(0.00532453 -4.46864e-05 7.48889e-17)
(-0.00183785 -0.00112325 -2.91887e-18)
(-0.00285077 5.7694e-05 1.15272e-18)
(-1.83965e-05 -0.000257917 2.19876e-19)
(-0.00384992 -0.00739401 -5.81689e-18)
(0.0162778 0.0174978 8.98938e-19)
(-1.44312e-05 -6.37745e-05 -6.86833e-19)
(-0.00146545 -0.00131304 2.8317e-19)
(-0.0271341 0.0175551 1.92667e-17)
(-0.0387744 -0.00448363 3.3053e-17)
(-3.94213e-05 2.76064e-05 -2.91589e-18)
(-0.00258279 0.00932107 2.48594e-17)
(-0.000655703 0.000915335 -4.2387e-18)
(-0.0350743 -0.0368512 -6.94704e-18)
(-0.00869229 -0.000595901 1.10123e-18)
(0.00831968 0.000702939 -9.11538e-17)
(-0.003712 0.00673129 -2.67531e-17)
(-0.00118502 0.0012861 -4.35488e-18)
(-1.89654e-05 -7.05996e-05 8.41211e-19)
(-0.000160032 0.000165123 -3.48691e-19)
(-0.00541072 -0.00446785 4.69429e-18)
(-7.98827e-05 2.18911e-05 2.52538e-18)
(-0.000564562 -0.000899638 -3.10394e-19)
(0.0164734 0.0168574 -2.23178e-18)
(0.0108977 0.0173337 -8.33525e-18)
(-0.000721826 0.00149486 2.12628e-17)
(-2.8386e-05 -0.000278943 -3.81433e-20)
(0.0075209 0.0239516 2.67099e-17)
(-0.00021428 -0.000401025 -1.06777e-19)
(-0.000698151 0.000852555 -3.62959e-18)
(-0.0220326 0.0166871 -2.42368e-18)
(-0.00798883 0.0214156 -7.38798e-20)
(-0.0063724 0.00510068 3.78268e-18)
(0.00620648 0.0016068 2.04187e-16)
(-0.00777724 -0.00926216 4.03074e-17)
(-0.0201507 0.00314318 -2.04385e-17)
(-0.0359819 -0.0347071 -5.27525e-18)
(-0.0304119 0.00135788 -6.95999e-17)
(-0.0237592 0.0165303 2.47354e-17)
(-0.00231867 -0.00205505 -1.03897e-17)
(-0.0054108 0.00226437 3.67975e-17)
(-0.00332891 0.00629583 4.16663e-17)
(0.00511042 0.000754638 5.00803e-18)
(-0.000724495 0.000843617 3.46743e-19)
(-0.0359576 0.000618734 -1.72298e-17)
(-0.000627997 0.000909507 5.11523e-18)
(-0.000142013 0.00250774 5.48013e-18)
(-0.00189632 0.00188034 3.52311e-18)
(-0.00891998 -0.0113615 -4.17164e-17)
(0.000977654 0.00229058 -7.3025e-18)
(-0.0246327 0.0152316 -8.37926e-18)
(-0.000218394 -0.00041568 9.21074e-20)
(-0.00050809 0.000480787 -1.5607e-18)
(0.0238065 0.0042554 7.5466e-18)
(-0.00364334 -0.000265366 8.6619e-19)
(-0.0434626 0.000904151 9.11332e-19)
(-0.0125353 -0.000135551 5.78587e-18)
(-0.00397741 -0.00233604 -1.70526e-17)
(0.0485135 0.00255893 4.40128e-18)
(-0.0142279 0.0130454 6.74331e-17)
(0.0393778 0.0192105 -1.38362e-17)
(-0.00402699 0.0223984 2.19715e-18)
(-0.00119461 -0.00113051 5.40792e-19)
(-0.000339598 0.00170164 8.23522e-18)
(4.0993e-05 0.00221315 1.64924e-17)
(-0.00500981 0.0045286 -9.11095e-17)
(-0.000263232 -5.86478e-05 1.21741e-18)
(-0.00107645 8.58664e-05 7.69354e-19)
(-0.00562479 0.0229851 1.87984e-17)
(-0.0487559 -0.00292632 3.02932e-17)
(-0.0665979 -0.000737293 5.95085e-17)
(0.00169362 -0.00164017 3.48506e-18)
(0.00121235 0.00160032 -3.78997e-18)
(-0.00785051 -0.011909 2.01931e-17)
(-0.00255166 -0.00171265 2.14913e-17)
(-0.000301127 0.000767158 9.82885e-18)
(-0.0506645 -0.00815595 1.10624e-16)
(-0.00511643 0.0116737 9.16044e-18)
(-0.0142519 0.00186828 -2.49852e-17)
(-0.0175153 0.00246289 -2.01385e-17)
(0.0206572 -0.0070551 -2.38097e-17)
(0.00118195 0.0281896 5.45297e-18)
(0.000760842 0.00226784 -9.09872e-18)
(-0.00021514 -5.81587e-06 -2.06512e-18)
(-0.00489048 -0.00472288 1.4941e-17)
(-0.00813477 0.0115454 4.71337e-18)
(0.0261889 0.00137549 -1.10589e-17)
(-0.00479415 0.00314457 -6.00393e-18)
(-0.00150606 0.0129152 -2.83376e-17)
(-0.00167786 0.00112471 -6.98019e-19)
(-0.0209359 0.0162009 -4.03965e-18)
(-0.00538048 -0.00363371 -1.93884e-18)
(-0.000513162 0.00047185 1.33949e-18)
(-0.00419975 0.00589962 -9.28661e-18)
(-0.00611024 0.00527829 -7.75786e-18)
(-0.00909569 0.00682425 -1.01954e-18)
(-0.000948933 0.000412619 2.07802e-18)
(-0.0469451 -0.00281521 1.92306e-17)
(-0.000585019 -0.000950236 -2.20059e-18)
(0.000309704 -0.000844202 4.72942e-19)
(-0.0173512 0.00473878 2.40846e-17)
(0.0757552 0.0180835 1.36132e-17)
(-0.0105824 -0.0140652 8.83102e-18)
(0.0246534 0.0326971 -1.1413e-18)
(-0.0168174 0.00213708 1.39102e-18)
(-0.0301932 0.0175325 1.38572e-17)
(-0.00231136 -0.001945 1.7182e-18)
(-7.46263e-06 7.45247e-05 5.77609e-18)
(0.00185883 -0.00690944 4.11723e-18)
(-0.0022025 -0.00167894 2.90482e-18)
(0.00335533 0.00177359 1.45658e-17)
(-0.00188319 -0.00109724 1.67065e-18)
(-0.00105036 0.000851479 -1.0712e-17)
(-3.82825e-06 3.00721e-05 6.94607e-19)
(-0.000440193 7.08735e-05 4.02052e-18)
(-0.0363976 -0.0309588 -1.60384e-19)
(0.00137487 0.00207774 1.0855e-16)
(-0.00104667 0.000818793 5.30143e-18)
(-0.00851148 -0.000712531 5.57636e-19)
(-0.0571323 -0.0146596 -7.39474e-18)
(5.31564e-05 -0.00082978 3.94271e-19)
(-0.042109 -0.00347639 2.86873e-17)
(-0.0110808 -0.00488966 2.6846e-17)
(-0.0244078 0.00155081 5.37223e-18)
(-0.0261191 -0.0103746 4.76957e-17)
(-0.000250419 -3.2561e-05 3.1018e-18)
(0.000846675 0.0020195 -1.43837e-16)
(-0.0185874 0.0197942 -5.92556e-18)
(-0.0362117 -0.0293098 2.53676e-18)
(-0.0205943 0.0328979 -2.35816e-17)
(-0.0395471 -0.00203744 1.8196e-17)
(-0.00122048 0.00129059 5.7433e-18)
(-0.00419505 0.00587016 3.08364e-17)
(-0.00097254 -0.000901681 2.29239e-19)
(-0.000256408 3.16661e-05 2.26183e-19)
(-0.0374912 -0.00042482 4.03077e-17)
(-0.048087 0.0188558 -1.13221e-17)
(5.05806e-05 -0.000328146 2.66267e-20)
(-0.000271571 -0.00301836 -4.35525e-18)
(-0.0475475 0.0195537 -1.82896e-18)
(-0.000530038 0.000649838 6.33104e-18)
(-0.047611 -0.00389734 1.95688e-17)
(-6.29786e-05 -0.000310425 -3.27817e-20)
(-0.000468062 0.000609803 2.93771e-18)
(-0.00501809 0.00311376 2.17542e-17)
(0.00193031 0.0266944 -4.41425e-18)
(-0.00141793 -0.000113762 1.27893e-18)
(-0.00974669 -0.0135876 -1.17563e-18)
(-0.00374951 0.00141837 6.31418e-18)
(-0.00249938 0.00648219 -2.23248e-17)
(-0.00357688 -9.35441e-05 6.90985e-19)
(-0.011301 -0.0053448 -1.4941e-17)
(-0.000120526 0.00025469 2.19489e-18)
(-7.38743e-05 -0.000337094 8.42138e-20)
(-0.00305845 0.00607083 -3.17634e-17)
(-0.00186212 -0.00105903 -5.01149e-18)
(-0.00392737 -0.00108209 -7.15841e-18)
(-0.00273369 0.00266926 -1.25809e-18)
(-0.00019426 9.03307e-06 -2.09047e-18)
(-0.00366775 0.00135148 -4.31968e-18)
(-0.0117068 0.00171113 1.9248e-17)
(-2.9807e-06 5.43644e-05 -5.18242e-18)
(0.02963 0.00336397 -1.84099e-18)
(-0.00284026 0.000168093 -4.09532e-19)
(-0.000245643 -9.06783e-06 2.76673e-18)
(-0.0039985 -0.00238223 3.80831e-18)
(-0.0011074 0.000733337 4.12919e-18)
(-0.00368649 -0.00130421 2.90383e-18)
(-0.00531597 0.00519645 1.6849e-17)
(-0.00592185 -0.0043945 -4.0273e-18)
(-0.00549233 0.00543329 -1.21364e-17)
(-0.00333061 0.00995891 -3.79595e-17)
(-0.000105824 -0.000247602 -4.00685e-19)
(-0.0302604 -0.00450252 2.17158e-17)
(-0.00024865 -9.83004e-06 -1.31092e-18)
(-0.0012369 -0.00111735 -1.02903e-18)
(-0.0286699 0.00880823 1.46202e-17)
(-0.0168416 0.00571287 -5.49735e-18)
(-0.00634622 -0.010517 -5.85211e-18)
(-0.0117618 0.000946942 -5.48743e-18)
(-0.00184773 -0.00171564 -1.11448e-17)
(-0.00525588 0.00188992 4.29175e-18)
(0.000119482 -0.000260673 -1.33868e-19)
(-0.00194977 0.00237805 2.37175e-17)
(-0.000159407 0.000161306 -9.44963e-19)
(-0.0020977 0.00596403 1.48298e-17)
(0.00518544 -0.000552534 6.6314e-18)
(-0.0265115 0.0155809 4.16734e-18)
(-0.000199562 8.62488e-06 2.03858e-18)
(-0.000498216 0.000621972 -6.23953e-20)
(9.71034e-05 -0.000258962 1.7e-19)
(-0.00011789 -9.28129e-05 -5.61523e-19)
(-0.0524021 -0.00778681 -8.21217e-17)
(-0.00317106 -0.00169155 1.56652e-17)
(-0.000420553 0.000200104 -2.75661e-18)
(-0.0140672 -0.00701692 -7.96084e-17)
(0.0405321 0.0184761 5.28537e-18)
(-0.000924935 -0.00143821 1.56582e-18)
(0.0256567 0.0348259 -3.18509e-18)
(0.0137615 -0.00105772 -8.78949e-17)
(-0.0272088 0.0143065 -3.45799e-19)
(-5.09731e-05 0.000738593 1.40815e-18)
(-0.00835101 -0.0104215 -8.58492e-18)
(-0.00166485 0.00271412 2.27696e-17)
(-9.24633e-05 0.000791758 4.28085e-18)
(-0.0404794 -0.00362299 1.84551e-17)
(-0.00235508 -0.00209401 1.8203e-17)
(-0.0017715 0.00272953 -3.06289e-17)
(0.000995342 -0.00130727 -3.35265e-18)
(-0.00252751 -0.0017399 -4.78225e-18)
(-0.0271838 0.0268864 2.43924e-18)
(-0.00289632 0.0101193 -1.67699e-18)
(-0.0036509 -0.00123608 -2.81398e-18)
(-0.00668354 0.0045392 -4.62191e-18)
(0.000440609 -0.00042744 -1.43737e-18)
(-0.00940787 -0.000535124 1.26875e-18)
(-0.000275417 0.000114874 -7.46789e-19)
(-0.00312253 0.00252081 1.21818e-17)
(-0.00275525 0.000190409 1.88551e-18)
(-0.0295578 0.00785185 -1.64065e-18)
(0.000199343 -0.0020219 -2.01131e-17)
(-0.0001131 -0.000240666 -4.98117e-20)
(-0.00110682 -0.00112463 3.24902e-19)
(-0.0113027 0.00641993 -1.80979e-18)
(-0.00106753 -0.00110654 3.18205e-18)
(-0.000242551 -0.00290781 1.67317e-18)
(-0.00239447 0.00227097 -3.29895e-17)
(-0.0579288 -0.021266 7.67922e-17)
(-0.0676482 -0.000787373 -4.14297e-17)
(-0.000901224 0.000526616 5.40181e-18)
(-0.00307271 -0.00660601 -2.63442e-17)
(0.116836 0.0599251 -6.28937e-18)
(-0.0178055 0.0067301 2.80633e-17)
(-0.00153134 -3.56856e-05 1.62839e-18)
(-5.37357e-05 -0.000529504 -3.60405e-22)
(-0.0025804 -0.00141512 -6.07616e-18)
(-0.0031137 -0.00171482 -1.35537e-17)
(-0.000925618 0.000441659 -1.42422e-18)
(0.0913179 0.0854397 5.7187e-18)
(-0.0139804 -0.00732436 -7.76504e-17)
(-0.0659123 -0.0220211 1.10798e-17)
(0.0203068 -3.73281e-05 1.16761e-17)
(0.00390056 -0.000265615 -6.97297e-18)
(4.08583e-05 -0.000282406 -5.32641e-19)
(-2.50491e-06 -3.06473e-05 -5.30249e-20)
(-0.00571097 0.00201028 -2.93378e-18)
(-0.0132225 -0.0044942 -4.2031e-17)
(-0.00102447 0.00219443 1.08611e-17)
(-0.00637019 0.00473499 -2.03712e-18)
(0.00122211 0.00217751 -2.93847e-18)
(-0.00267687 -0.00131316 2.67593e-18)
(-0.00511107 -0.0096663 -5.50446e-17)
(0.000138593 -0.000718902 -5.46267e-18)
(-0.0455471 -0.0389355 3.10371e-18)
(-0.0286962 0.00039577 8.4432e-17)
(-9.77197e-05 -8.09426e-05 1.2982e-18)
(0.0242143 0.00927279 -3.00634e-18)
(-0.00409423 0.00187294 3.38786e-18)
(-0.000584875 -0.00091159 3.5457e-19)
(-0.00343454 -0.00108026 -1.09711e-18)
(3.11051e-05 -0.00202424 1.02539e-17)
(0.000668109 -0.00168275 -1.27539e-19)
(-7.73568e-05 0.0007917 -2.63482e-18)
(0.0103166 0.000411618 -7.99504e-17)
(-0.070227 -0.0275722 -7.9812e-18)
(-0.000375488 0.000183057 -2.55835e-18)
(0.0107679 0.000392758 8.93934e-17)
(-0.00624812 -0.0106602 3.89196e-17)
(-0.00604532 -0.0101817 -1.07244e-17)
(-0.000264698 8.99256e-05 -6.28156e-18)
(-0.000171407 4.0372e-07 2.48898e-18)
(-0.00701737 -0.0156205 -9.39954e-19)
(-0.00093531 -0.00140355 1.04599e-19)
(3.86196e-05 -0.000316551 3.1975e-20)
(-0.000124315 -0.00059807 1.67394e-19)
(-0.000373116 0.00190955 -3.18139e-18)
(-0.0113969 -0.0045104 -6.05091e-17)
(9.7898e-05 -0.00223892 -2.09726e-17)
(-0.00259416 -0.00139265 -4.87322e-18)
(-0.00316304 -0.00161201 -8.41302e-18)
(-0.00353972 0.000103715 -5.60835e-20)
(-0.00514285 0.0028144 4.24533e-18)
(0.000410604 -0.000409863 1.2238e-19)
(-3.77731e-06 7.14098e-05 -2.63269e-18)
(-0.000843958 0.0293921 -2.11297e-17)
(-0.00622585 -0.000384818 4.2177e-19)
(-0.00302122 -0.0069551 -6.23142e-18)
(-0.0640945 0.0594097 -4.30432e-18)
(-0.00106565 0.00224988 -4.56958e-18)
(-0.0013841 -0.000135293 -1.6724e-18)
(-0.000236477 1.6238e-07 8.89909e-19)
(-0.0479958 -0.0398494 -1.16509e-17)
(0.0210721 0.00946708 1.59676e-17)
(0.000105044 -0.000274407 6.48216e-20)
(-0.000250668 1.04427e-05 -1.31403e-18)
(9.79777e-05 -0.000274249 1.25297e-19)
(-0.00160567 0.00115064 1.16539e-17)
(-0.00504094 0.001838 -1.91615e-18)
(-0.00147401 -0.0188239 -1.40036e-16)
(-0.000289086 0.000719395 3.8684e-19)
(-0.000357317 0.00162286 2.13602e-18)
(1.29994e-05 -0.000234402 1.03602e-19)
(-0.00437727 0.0109132 -2.09858e-17)
(-0.00890136 0.00653084 1.67282e-19)
(0.00600696 0.00239106 -1.69237e-17)
(-0.0106908 -0.000223038 -8.15199e-18)
(-3.45646e-05 -0.0016468 -2.38349e-18)
(0.00428297 0.0250103 -2.39292e-17)
(-0.00923541 0.00120185 3.33747e-18)
(-0.00278977 -0.00180356 5.6486e-18)
(-0.00192248 0.00288417 1.77354e-18)
(-0.00537983 0.00192747 3.58732e-17)
(-0.00178304 0.00572466 5.24251e-18)
(-0.0536418 0.0207893 -4.21697e-18)
(-0.000195391 3.20432e-05 -6.09179e-18)
(-0.00378702 -4.98169e-05 3.58732e-19)
(-0.03109 -0.0203609 7.4182e-17)
(-0.0561362 -0.0213245 -8.31891e-17)
(-0.00238317 -0.000236894 -5.98221e-19)
(2.28425e-05 -0.00029568 -1.45438e-19)
(-0.00230709 -0.000550919 2.29125e-18)
(-0.000135265 -0.000829217 4.07738e-19)
(-0.00236526 -0.00244912 1.79955e-18)
(-0.033538 -0.0069532 3.1955e-18)
(-0.0912949 0.093881 4.10547e-18)
(-0.0240757 -0.018739 9.16277e-18)
(-0.00341512 0.00010943 2.00595e-18)
(0.000188753 -0.00249568 2.43198e-17)
(-0.000684469 0.00108397 6.26019e-18)
(-0.00190659 -0.00103174 5.55478e-18)
(-0.000710727 0.000580365 -1.04485e-18)
(-0.00085527 -0.00109711 -2.93373e-18)
(-0.0217851 -0.00716101 2.22393e-18)
(-0.00161894 -0.00139889 2.5254e-18)
(0.01016 0.000624707 -9.22048e-17)
(-0.00831647 0.00742755 9.46044e-19)
(0.000949647 -0.00124045 1.52405e-18)
(-0.00036448 0.000150435 2.25039e-18)
(-0.0609215 -0.00192969 -7.98356e-18)
(-0.0231389 -0.0178214 -1.11557e-17)
(-0.00356864 0.018414 2.15244e-17)
(-0.000653338 0.00108598 -8.10007e-18)
(-0.00709153 -0.0109268 4.72238e-18)
(-6.38104e-05 -0.000514486 2.41174e-19)
(-0.00166742 0.0018281 7.12173e-18)
(-0.000312389 0.000787141 -7.4718e-18)
(-0.000129584 -0.000244938 5.74313e-20)
(-0.0611774 0.00204186 -1.15318e-17)
(0.0305149 0.00379352 -8.9843e-19)
(-0.012683 0.0146211 -2.24145e-17)
(-0.00364287 0.00227241 -3.81221e-17)
(-0.000201265 2.27151e-06 6.89126e-19)
(-0.0156982 0.016992 3.65796e-18)
(0.0240836 0.00873479 -6.29816e-18)
(-0.00252113 -0.00176535 -2.38599e-17)
(-0.000267676 -7.10952e-05 -8.73217e-19)
(-0.0749277 0.0525331 5.6555e-18)
(-0.000238082 -0.000658854 5.77232e-19)
(0.000454673 -0.000917762 4.70281e-19)
(-0.000264317 2.76954e-05 -5.65373e-19)
(-0.0227553 -0.00700891 5.41902e-19)
(-0.00034224 0.000633251 -1.1543e-17)
(-0.00231908 0.00108449 3.36731e-18)
(-0.0102943 -0.000399538 1.29876e-17)
(-0.053103 -0.012287 -1.02185e-16)
(-0.000106158 -0.00057867 7.82681e-19)
(-0.0124378 0.0211573 -4.81357e-18)
(-0.00420084 -0.00147198 -6.16522e-18)
(-0.000271977 0.000100498 3.36825e-18)
(-0.00108148 -0.00264196 -2.12606e-18)
(-0.000678375 0.000960675 -5.11832e-18)
(-0.000253352 2.08171e-05 3.53889e-18)
(-0.00260746 -0.00131675 -5.45473e-18)
(-0.00794009 -0.000508579 -5.28611e-18)
(-0.00505903 0.00265395 5.18756e-18)
(0.00356267 -0.0111568 -2.27876e-17)
(-0.00255421 -0.00171451 -3.43247e-18)
(-0.000167858 0.000296043 -3.50787e-18)
(-0.0107473 0.00638901 7.27765e-18)
(0.0424086 0.0150037 6.64535e-18)
(-0.0357318 0.00811715 1.18809e-17)
(-0.0284613 -0.009446 -7.4927e-17)
(-0.0218806 -0.0107573 -8.92623e-18)
(-0.00148347 7.19198e-05 -3.15078e-18)
(-0.000128586 -0.000237261 7.66277e-20)
(-0.000406731 0.000197937 2.5894e-18)
(-0.00113051 0.000743659 8.20486e-20)
(-0.0233271 -0.0205891 2.22647e-18)
(-0.00446987 -0.003019 4.09471e-18)
(-0.00187908 -0.00545798 3.03124e-18)
(-0.00391868 0.00181871 -4.96984e-18)
(-0.00235202 -0.00197531 -6.61934e-18)
(-0.0531099 0.00877737 -7.3868e-18)
(-0.0125428 0.000586037 -1.25266e-17)
(-0.000647419 0.000954417 -1.05387e-17)
(-0.00307943 -0.00157854 1.36614e-17)
(0.00407689 0.000918189 5.24062e-17)
(-0.0014795 0.000699275 8.98644e-18)
(-0.0993266 0.0886241 1.20668e-17)
(-0.000192926 3.16399e-06 -2.56576e-19)
(-2.88894e-05 0.000601292 1.58173e-18)
(0.0655177 0.0452621 -2.87238e-18)
(-0.00238348 0.0016452 -1.27298e-18)
(-0.000979492 -0.00114432 5.29063e-19)
(-0.0285664 0.025555 -9.83594e-18)
(-0.0253684 -0.00378439 -1.80944e-17)
(-0.00561272 0.00183632 4.39613e-18)
(0.000854851 0.00239033 -1.7071e-17)
(-0.00067875 0.000882555 -3.77762e-19)
(-0.00137907 0.000760439 -1.04652e-18)
(-0.00356753 0.0105008 1.22712e-18)
(-0.00607336 0.00145159 1.22382e-16)
(-0.00241304 0.00343691 -2.79128e-18)
(-0.00524549 -0.00364867 -6.93009e-18)
(-0.031312 -0.0408812 -7.91018e-18)
(-0.0544675 0.00778743 -2.1986e-18)
(-0.0664141 0.000128685 2.72452e-18)
(-0.0322776 -0.0366938 1.33816e-17)
(-0.000676751 0.00152005 -7.81163e-18)
(0.00261852 -0.00439199 2.69964e-17)
(-0.00108125 0.000121144 -2.14981e-18)
(-0.0241654 -0.0214501 -5.26163e-18)
(-0.00163303 -0.000962958 1.13592e-18)
(-0.000975683 0.00255603 1.78746e-17)
(-0.00655816 -0.0111986 -6.49062e-18)
(-0.0046671 -0.0205525 -2.764e-17)
(-0.00186063 -0.00527493 -3.22258e-18)
(-0.0133127 -0.0151649 -2.8798e-19)
(-0.000106338 -9.24947e-05 -7.72792e-19)
(-0.0175258 0.0341364 -9.47661e-18)
(-4.33064e-05 -0.000295757 9.59611e-20)
(0.00135522 0.00426764 -7.26546e-18)
(-0.000725862 0.000593568 2.57832e-18)
(-0.0131119 0.00241303 5.05604e-17)
(-0.000244352 0.000272903 -2.21828e-18)
(-0.0151759 -0.0222654 -3.62564e-18)
(-0.00247064 -0.00246179 -1.18788e-17)
(-0.000218872 0.000406503 -3.7511e-18)
(-0.000490708 0.000456476 1.72112e-19)
(-0.000264995 8.57021e-06 -1.02812e-18)
(0.0398923 0.0103417 2.41159e-18)
(-0.0274735 0.00440143 -3.11531e-18)
(-0.00728118 0.0227582 -1.99095e-17)
(-0.00538422 -0.00518074 6.20849e-19)
(-6.04088e-05 -0.00277494 -4.19398e-19)
(0.000393876 -0.00168951 -1.39604e-17)
(-8.28314e-06 5.00555e-05 1.1738e-18)
(-5.37293e-06 4.55627e-05 1.29978e-19)
(0.0151871 0.018589 2.42615e-18)
(-0.000493255 0.0004645 -1.63983e-18)
(-7.4551e-05 0.000430473 5.65896e-18)
(0.00171628 0.00186562 1.41089e-17)
(-0.000202699 2.29261e-05 6.27383e-18)
(-0.00527376 -0.00339769 4.44768e-18)
(0.000118027 -0.00132906 1.81001e-17)
(-6.75078e-05 0.000405964 -6.39288e-18)
(-0.000361923 0.000652185 2.89819e-18)
(-0.00207246 0.00192312 1.09328e-17)
(-0.00147192 0.00070793 -1.35448e-18)
(-0.00225702 -0.00168944 1.1918e-17)
(0.0281069 0.0343273 -1.27696e-17)
(0.003114 -0.00758544 9.53937e-19)
(-0.00242232 0.00334994 1.24521e-17)
(-0.00261515 -0.000817308 -2.70881e-18)
(-0.000175227 0.000335603 -8.20272e-19)
(-0.00287476 0.0130261 1.86776e-18)
(-0.000475552 0.00165937 -2.42572e-18)
(-0.00127529 -0.00108579 9.82987e-19)
(-0.00941023 0.0147574 -3.88833e-18)
(-0.0562908 -0.00270676 7.39501e-17)
(-0.012344 -0.0149592 6.83863e-18)
(0.00929357 -0.00955354 -4.35977e-18)
(-0.00242323 -0.000208385 -8.21916e-19)
(-0.00123031 -0.00109013 -3.51375e-19)
(-0.0559802 -0.00375155 -8.33728e-17)
(8.60263e-05 -0.000795173 3.30292e-19)
(-0.0640165 0.00125289 -4.30717e-18)
(-0.0125981 0.0023689 -2.36313e-17)
(-0.000225104 0.000393661 2.70025e-18)
(0.0298074 0.0328361 1.41867e-17)
(0.00390758 0.0264315 2.57299e-17)
(-0.00237401 -0.000352823 -2.57068e-18)
(-0.000231108 -4.90451e-06 7.6969e-19)
(-0.00600048 -0.000446706 7.93547e-18)
(0.0190882 0.0143428 -7.52375e-19)
(-0.000633035 -0.000952864 9.43742e-19)
(-0.000506677 -0.000827981 -1.0964e-18)
(0.00156279 -0.00178406 1.47115e-18)
(0.000601225 -0.00163981 2.47192e-18)
(0.000289549 -0.000885904 -3.71087e-19)
(-0.00014878 -4.22392e-05 4.05721e-19)
(-3.56612e-06 2.15635e-05 7.2097e-20)
(-0.0577736 -0.0122879 9.46037e-18)
(-0.00169752 -0.00168704 -2.23529e-18)
(-0.055556 -0.013577 -2.28265e-17)
(-0.000238015 0.000709973 -1.08219e-18)
(0.00279403 -0.00560047 2.04347e-17)
(-0.0193978 -0.00806341 -1.40038e-17)
(-0.000259393 0.000145467 1.41332e-18)
(-7.52884e-05 -0.000332544 -1.35772e-20)
(-0.00175668 -0.00161002 5.85405e-18)
(-0.000146254 0.000226343 3.03116e-18)
(-0.00157253 -6.85609e-05 7.57619e-19)
(-0.000959693 0.00168302 2.29125e-17)
(-0.000975324 -0.000870692 3.78247e-19)
(-0.00521496 0.00652266 1.97647e-17)
(-0.00500027 0.0108897 -6.01586e-18)
(4.76868e-06 -8.80655e-05 1.24464e-19)
(0.0185485 0.0155017 -3.38517e-18)
(-0.0324178 0.0157438 3.07209e-17)
(-0.00214128 0.00345366 -3.82588e-18)
(0.00286756 -0.0039781 -4.85404e-17)
(-0.0102061 0.0129047 -5.11508e-18)
(-0.00172488 0.00188063 -5.09586e-18)
(0.0031213 -0.00721792 -4.35336e-18)
(-0.00210783 -0.00199804 -9.80566e-18)
(0.0103431 0.0180648 -2.86766e-18)
(-0.00167198 -0.00165487 1.80911e-18)
(-0.00490529 -0.00880746 6.36266e-18)
(-0.00101752 0.000303443 -1.74467e-21)
(-0.038044 0.124561 1.05793e-19)
(-0.00308428 -0.00156834 -4.68872e-18)
(-0.00919391 0.00599594 3.21824e-18)
(-0.0141957 0.00846537 -4.52542e-18)
(0.00857742 0.000566698 -1.96535e-18)
(-0.00169781 -0.00160702 -2.25172e-18)
(-0.000786272 0.000701788 9.48944e-18)
(-0.0018505 -0.00140225 1.22052e-18)
(-0.00270841 -0.0179625 2.419e-18)
(-0.00152773 3.38535e-05 -9.48506e-19)
(-0.0139522 0.00145082 2.87563e-17)
(-0.000821625 0.00132046 2.56437e-19)
(0.04085 0.0188908 1.48845e-17)
(-0.00161945 -0.000174985 -3.30347e-18)
(-0.000321699 -0.000720037 -1.17199e-18)
(-0.000271467 1.23165e-06 2.8527e-19)
(-0.000195277 2.38968e-05 -2.71435e-18)
(-0.0265846 0.0174973 7.35226e-18)
(0.0421619 0.0176725 -9.99538e-18)
(-0.000643881 0.00112153 2.58434e-18)
(-0.0502371 -0.0254278 -1.10486e-18)
(-0.00294894 0.00168319 2.4814e-19)
(-0.0269111 0.0143202 -1.04875e-17)
(-0.0272315 0.00510896 -6.29674e-18)
(-0.0161447 -0.018218 1.62513e-18)
(0.0281685 0.00027565 6.9538e-17)
(0.000651927 -0.000658304 3.10627e-19)
(-0.0140908 0.0196324 1.33246e-17)
(-0.00901063 -0.014006 4.06855e-18)
(-0.00100523 -0.000224555 1.68904e-18)
(-0.00564893 -0.00423604 3.38892e-18)
(0.0147115 0.0176839 -8.10713e-18)
(0.081388 0.0482869 4.27593e-18)
(-0.000416277 -0.00140463 -1.45905e-18)
(-0.000265388 0.00183179 1.82882e-17)
(-0.00104468 -5.2657e-05 -4.12255e-20)
(-2.2238e-05 -2.2652e-05 -2.03764e-19)
(0.0698581 0.00963351 9.19553e-18)
(-0.0065492 0.00643789 -1.05641e-17)
(-0.0231327 0.0187393 1.73854e-17)
(0.0264108 0.00731544 -1.45251e-18)
(-0.000563262 0.0012788 8.16228e-18)
(-0.000132942 0.000250519 3.36489e-18)
(-0.00408237 -0.000138941 8.74782e-18)
(-4.39005e-06 5.77217e-05 -5.34977e-18)
(-0.000430478 7.78447e-05 -3.2467e-18)
(-0.000914863 0.00170164 -6.39323e-18)
(0.00122714 -0.00167717 -2.28927e-18)
(-0.00460981 0.00697431 -2.32238e-17)
(-0.00312091 -0.00162368 -8.37636e-18)
(-0.010314 -0.00584966 7.55873e-17)
(-0.000751675 0.0226282 1.18235e-17)
(-0.00494996 -0.00371783 2.76239e-17)
(-0.000233803 0.000317371 -1.29552e-18)
(-0.00229377 0.00159873 -3.03932e-18)
(-0.00482234 -0.00633162 -1.99261e-17)
(0.0104034 0.0207766 -7.37754e-18)
(-0.00440613 -0.00862251 8.01114e-18)
(-0.0210749 0.000777743 5.56873e-17)
(-0.00214225 -0.00159005 -9.99655e-18)
(-0.00065711 0.00113945 -2.51906e-18)
(-0.0483411 -0.0240361 -1.24799e-18)
(0.00442194 -0.000370446 -8.68782e-18)
(-0.00145485 -0.000155391 -2.78253e-18)
(8.88308e-05 -0.000305763 -6.27009e-20)
(-0.00318537 0.00778348 3.12633e-17)
(-0.0382414 0.00155051 -1.20099e-18)
(-0.0109705 -0.00581124 3.56776e-17)
(-0.000193299 1.60636e-05 3.24152e-18)
(-0.0021668 0.00460862 2.96565e-17)
(0.0235743 0.000912497 1.02163e-17)
(-0.00619404 -0.0187823 -3.09478e-18)
(-5.01383e-06 -0.000243019 5.27114e-20)
(0.00655662 0.000516684 2.23974e-17)
(0.0102114 0.000377842 1.51403e-17)
(-0.00337456 0.00248224 -5.16542e-17)
(-0.0015816 -0.00142279 2.3674e-18)
(3.13011e-06 0.000684927 2.47144e-18)
(-0.0205221 0.0144037 -3.92396e-17)
(-1.28163e-06 1.88497e-05 -3.90423e-18)
(-0.0357121 -0.00586664 8.53839e-19)
(-0.063301 0.00183964 -8.90716e-19)
(0.00849609 0.00306148 1.55884e-17)
(0.00798018 0.000674043 1.29437e-17)
(-0.0139438 -0.00181486 -8.023e-18)
(0.0134749 0.00705204 -2.7314e-18)
(-0.00785002 -8.803e-06 2.64855e-17)
(-0.00095256 0.00094891 -1.84594e-18)
(-0.000220033 0.00182592 -1.62786e-17)
(-0.0268073 -0.00628472 -6.0856e-17)
(-0.0722409 0.0222634 2.67279e-18)
(0.0110003 0.000311642 7.98182e-17)
(-0.0794414 0.0891872 2.12584e-18)
(0.000132033 -0.000797634 2.29736e-19)
(-0.0349368 -0.00479585 -4.59766e-18)
(-2.79873e-06 3.69051e-05 -1.66379e-19)
(-0.00175387 -0.00181825 9.57928e-18)
(-0.0160623 -0.00606721 1.37133e-17)
(-0.00413425 -0.00697626 1.096e-17)
(-0.000220989 0.00042252 -3.14587e-18)
(-0.00202084 0.00113467 -9.08306e-18)
(-0.0158885 0.0155044 -4.75659e-18)
(0.018069 0.0155078 2.74486e-18)
(-0.0243594 -0.00725187 2.24468e-17)
(0.0109556 0.000117461 -2.4278e-17)
(-0.00280739 -0.0018464 -1.47963e-17)
(-0.0036521 -0.000342152 1.30253e-18)
(-0.0290006 0.0144158 1.60529e-17)
(-0.000373318 0.00163531 -7.42138e-18)
(-5.28192e-05 -0.000472944 -8.68558e-19)
(-0.000349272 0.000234305 2.40554e-20)
(0.00160866 -0.00367673 3.09904e-18)
(-0.0121923 -0.0137713 -9.1933e-18)
(-0.000164851 0.000228824 -5.16991e-18)
(-0.0150778 -0.00622593 2.11397e-18)
(-0.000388114 0.000222469 -4.24843e-19)
(-0.000205178 -3.2476e-06 5.46607e-18)
(-0.000254233 3.62352e-05 -2.37563e-18)
(-0.01318 0.0210722 1.1639e-17)
(-0.000394055 0.001696 -5.32962e-18)
(-9.73834e-06 3.3127e-05 -1.68905e-19)
(-0.00403032 -0.000417232 1.24457e-17)
(-0.00272923 -0.000794332 -1.81854e-17)
(-3.14803e-06 -9.44167e-05 -3.47439e-19)
(-0.0607149 0.00160456 7.22005e-18)
(-0.000114939 -0.000834612 5.8337e-19)
(0.000441963 -0.000456873 -2.1287e-18)
(-0.00218877 -0.00222504 1.65707e-17)
(-0.00270333 0.0031994 3.15002e-19)
(-9.88738e-05 -0.00289082 -1.36034e-18)
(-0.00164751 -0.000629326 3.04331e-20)
(-0.0202891 -0.00114628 -3.71832e-17)
(-0.00228978 0.00352218 -3.73702e-19)
(-0.00365932 -0.00100517 2.36371e-18)
(0.00618965 -0.00162766 7.70002e-18)
(-0.0036404 -0.00106823 6.50817e-18)
(-0.0761711 0.0411412 9.81859e-18)
(-0.000459262 0.00245979 8.16246e-18)
(-0.00598673 0.00692426 1.21742e-17)
(0.000213247 0.001209 -8.15638e-18)
(0.0708799 0.0065612 -4.12687e-18)
(8.54749e-05 -0.000294438 -2.79771e-19)
(0.0121746 0.0176644 1.70059e-17)
(-0.00679571 0.0319938 6.90344e-18)
(-0.000184369 -0.000173752 5.00419e-20)
(-0.0149716 0.00877539 2.1151e-17)
(-0.000201603 0.000373619 -1.16607e-18)
(-0.0002528 6.35194e-05 -2.9475e-18)
(-0.00279081 -0.00164967 2.77868e-19)
(-0.000246967 -4.25981e-05 -1.54916e-18)
(-0.00883942 -0.002036 -2.40789e-17)
(0.00951108 0.020152 4.4986e-18)
(-4.88813e-05 -0.000291319 -1.46498e-21)
(0.00378954 0.000833678 -6.80349e-17)
(0.000625264 -0.000641779 -2.00505e-18)
(-0.00254854 -0.00170844 3.18615e-18)
(-0.0830026 0.0155717 -7.27926e-18)
(1.24115e-05 -7.5602e-05 1.42224e-20)
(-0.0399068 0.00610445 -2.67891e-17)
(-0.00195592 -0.000172555 3.50933e-18)
(-0.000282978 -0.00088429 -2.31701e-19)
(-0.000485514 0.000533295 1.96558e-18)
(-0.000352524 0.000263727 1.44988e-18)
(0.00841832 0.00709401 6.12329e-18)
(-0.00284414 0.00612433 -2.22362e-17)
(-0.0622756 -0.000981965 -3.38716e-17)
(-0.00483481 -0.00388077 -3.65096e-17)
(-0.0335781 -0.00442028 2.65937e-18)
(-0.00360403 -0.000125331 1.33718e-18)
(-0.000159515 0.000262719 4.96457e-18)
(-0.0182888 0.0165957 -3.40857e-17)
(0.0103579 0.000229122 9.96586e-18)
(0.0255103 0.00238781 -4.99488e-17)
(-0.00331247 0.00619677 4.5917e-18)
(0.00565912 0.00316173 2.42117e-17)
(-0.00811968 -0.015303 -9.31773e-18)
(-0.00224268 -0.00137751 2.54567e-18)
(0.00908567 0.0059895 -7.55738e-17)
(-0.00157057 -0.00059183 1.63805e-19)
(-0.0171607 0.00390921 6.34524e-18)
(-0.000192867 6.44021e-06 -1.49348e-18)
(0.00590312 0.000647702 3.01993e-17)
(-0.000369698 -0.00148547 1.98257e-18)
(-0.00352549 0.00594905 1.86569e-17)
(-0.00204645 0.00203072 7.12389e-18)
(-0.00095051 -0.00110182 1.31358e-19)
(-0.0617552 -0.0122927 8.72032e-17)
(-0.000181873 0.00184853 -1.69322e-18)
(-0.000414531 0.000117887 -3.40941e-18)
(0.00490502 -0.0209 2.89842e-17)
(-0.00195354 -0.000107813 -4.23913e-18)
(-0.000253818 3.76683e-05 -2.99327e-19)
(-0.00470326 -0.00292038 1.38741e-17)
(-0.000301045 -0.00280914 -7.46387e-18)
(0.00875954 0.00779166 3.43392e-18)
(-0.00547264 -0.0184909 -3.06252e-17)
(0.022654 -0.00370072 8.07741e-18)
(-0.0599809 -0.00241252 -1.50971e-17)
(-0.000139627 0.000235178 8.12791e-19)
(2.67743e-06 0.000636042 3.23721e-18)
(-0.00536391 0.00560199 -3.26407e-17)
(-0.000247959 0.000127447 -1.65103e-18)
(-0.0149568 -0.00533022 -2.63494e-17)
(-0.0147482 -0.00148206 -1.32216e-18)
(-0.00153979 -0.00135759 8.67025e-18)
(-5.68886e-05 0.000431717 -4.02507e-18)
(-0.00340947 -0.00100212 -3.36573e-18)
(-3.41151e-05 0.000287539 -1.86793e-19)