/*--------------------------------*- C++ -*----------------------------------*\
| =========                 |                                                 |
| \\      /  F ield         | OpenFOAM: The Open Source CFD Toolbox           |
|  \\    /   O peration     | Version:  v2012                                 |
|   \\  /    A nd           | Website:  www.openfoam.com                      |
|    \\/     M anipulation  |                                                 |
\*---------------------------------------------------------------------------*/
FoamFile
{
    version     2.0;
    format      ascii;
    class       volScalarField::Internal;
    location    "800";
    object      V0;
}
// * * * * * * * * * * * * * * * * * * * * * * * * * * * * * * * * * * * * * //

dimensions      [0 3 0 0 0 0 0];


value           nonuniform List<scalar> 
18758
(
0.00265253
0.00166919
0.115654
0.00175192
0.00138812
0.00127303
0.000937356
0.08668
0.0024367
0.0106902
0.0172518
0.00123065
0.110853
0.0038491
0.0217389
0.00189514
0.00725992
0.0805433
0.0301955
0.00852642
0.000845987
0.107296
0.00119117
0.00172281
0.00209157
0.0875485
0.00107769
0.00121708
0.00159642
0.00122234
0.00517601
0.000785044
0.114756
0.0213261
0.00356127
0.0724607
0.115738
0.0295999
0.0255153
0.00725161
0.0300609
0.0135175
0.0492116
0.0118639
0.00173988
0.0882855
0.000971961
0.0150904
0.0123502
0.0572047
0.00351158
0.0014268
0.0792635
0.0187355
0.00116521
0.00178364
0.113968
0.0022215
0.0286314
0.00373933
0.00298057
0.000938196
0.00389425
0.0183481
0.0689843
0.0462422
0.00811731
0.089357
0.0342849
0.00117807
0.00112069
0.0227214
0.0540195
0.0010689
0.0620697
0.0270365
0.00261274
0.00112202
0.00332652
0.000897984
0.00116667
0.00141638
0.00274746
0.00130366
0.00263439
0.0117241
0.0013489
0.00394703
0.000869106
0.0332346
0.00111844
0.028041
0.00133623
0.013345
0.00124892
0.00101496
0.00276657
0.0522877
0.0373344
0.000874214
0.00844774
0.00124781
0.00411645
0.00529793
0.000747232
0.00140736
0.00169608
0.00137657
0.0217636
0.0241286
0.00118503
0.000833687
0.0844288
0.0293221
0.00143273
0.000802968
0.000894845
0.0214592
0.00129648
0.000997627
0.00872759
0.0249721
0.00132288
0.0012808
0.00179135
0.00196776
0.00172943
0.00198578
0.00120002
0.114624
0.00616913
0.00145025
0.000834179
0.00550072
0.000934248
0.0138332
0.00274398
0.00703394
0.0442893
0.00281698
0.0025908
0.00188978
0.0284277
0.00156469
0.0236904
0.0289344
0.0007627
0.000948909
0.00511209
0.00148144
0.00150366
0.00155729
0.0119479
0.107092
0.00106279
0.0122552
0.00119472
0.0147473
0.0232539
0.0979723
0.0509491
0.0025913
0.0011464
0.025555
0.00307337
0.0013059
0.0304397
0.00138412
0.00228456
0.00114909
0.00110978
0.0660141
0.00128593
0.00117835
0.00255328
0.00189384
0.00148568
0.0143707
0.00372885
0.0266387
0.0884555
0.00081076
0.00157678
0.0487793
0.012219
0.00223203
0.0378296
0.000936758
0.0593306
0.0381613
0.00462092
0.00223506
0.020389
0.00539743
0.00596614
0.00349005
0.00811472
0.00260431
0.110471
0.0578532
0.00361243
0.0176044
0.00811497
0.0037651
0.101522
0.00687853
0.00430313
0.119875
0.000863652
0.0112473
0.0761929
0.00506346
0.0232702
0.00576961
0.00355639
0.00114496
0.00297178
0.00173827
0.0657636
0.00134282
0.0732581
0.0174638
0.00253841
0.000806072
0.00203108
0.00431309
0.00629993
0.00489364
0.0426059
0.00417708
0.0410704
0.00396406
0.00105922
0.00239436
0.100388
0.0412154
0.0489813
0.0861708
0.00156418
0.00702363
0.0433009
0.00200267
0.00166248
0.0167821
0.00162426
0.000708453
0.00246277
0.0873994
0.00125374
0.00915479
0.0600825
0.00144939
0.00884532
0.00878063
0.0200675
0.00715006
0.00204987
0.00149003
0.0061564
0.00344003
0.0395683
0.00554937
0.059818
0.00453093
0.0118219
0.00208601
0.000858746
0.0727877
0.0215977
0.00197559
0.0215282
0.014198
0.00452594
0.00162984
0.000775844
0.0305564
0.00420224
0.00078049
0.00149987
0.0189185
0.0424872
0.00846649
0.00788835
0.0276953
0.00102517
0.00209755
0.00162748
0.000783436
0.0011787
0.0520192
0.0843957
0.0042681
0.00128368
0.0124754
0.0037818
0.00363556
0.00983666
0.00102584
0.0311229
0.00186732
0.0010894
0.0954763
0.00114715
0.0061985
0.0315484
0.0102342
0.00450955
0.0179401
0.0646321
0.00096533
0.00219237
0.0476913
0.000819179
0.0011424
0.00211222
0.0544234
0.10494
0.00166608
0.0194047
0.0508769
0.0289724
0.0189298
0.00227819
0.0040896
0.00916434
0.00678258
0.0084499
0.00450624
0.0392966
0.0964656
0.00192288
0.00434665
0.00317919
0.00162659
0.0105274
0.0213579
0.10906
0.00176179
0.00132103
0.0457308
0.0771502
0.0469563
0.013562
0.00548943
0.00204023
0.0336845
0.0256578
0.0541192
0.00168102
0.00209619
0.00271445
0.00311541
0.0209017
0.00191778
0.00321959
0.00797592
0.00704886
0.00133607
0.000871731
0.00211369
0.0976664
0.00834473
0.00171256
0.0013117
0.0131462
0.0510516
0.00475214
0.0295505
0.00884738
0.00169458
0.00190827
0.00333724
0.00871194
0.00099516
0.0294611
0.0162754
0.0303939
0.0272472
0.00384683
0.0139071
0.000856683
0.00208626
0.0187847
0.0505609
0.000904548
0.00390464
0.00190623
0.0302875
0.00504955
0.04187
0.0129244
0.0195865
0.0579268
0.000793087
0.00065206
0.000986094
0.00127954
0.105361
0.0025269
0.00107959
0.00621999
0.0731419
0.00204537
0.0357781
0.0278884
0.0833957
0.00301648
0.0322428
0.0127637
0.00320532
0.00118539
0.0348209
0.00111776
0.00627552
0.0640596
0.0127573
0.0318761
0.0722531
0.00911987
0.00441433
0.00558844
0.000581532
0.00595509
0.0449469
0.00169778
0.00120703
0.00165732
0.00107157
0.00377309
0.020534
0.0661237
0.0547779
0.0213361
0.0040188
0.00652571
0.00902684
0.00698824
0.0103857
0.00193898
0.00363419
0.0251955
0.00897105
0.00100169
0.0176109
0.00201776
0.101772
0.0740269
0.000913559
0.00881336
0.0211581
0.00225782
0.00347838
0.00369079
0.00115141
0.0211418
0.017415
0.00160967
0.00118563
0.00695602
0.00373293
0.00334299
0.00198425
0.000746453
0.00374013
0.0233576
0.00317585
0.0283934
0.00374436
0.017652
0.00122726
0.00530416
0.00196589
0.00971865
0.00493332
0.0856578
0.0014961
0.0568109
0.000652945
0.0295569
0.00173184
0.0672921
0.0019211
0.00896564
0.0783787
0.0435716
0.0747928
0.00167412
0.000717654
0.00113809
0.00722677
0.0125496
0.00377046
0.107926
0.101453
0.00119472
0.0406607
0.0523338
0.0036499
0.101871
0.00439331
0.00439904
0.0471127
0.0350481
0.00875328
0.0205244
0.00997568
0.00160084
0.0100625
0.00765555
0.0114607
0.0435559
0.00101056
0.0225882
0.0171128
0.00116966
0.000973698
0.00510721
0.00147933
0.0109924
0.0200941
0.00107929
0.0326249
0.00064628
0.00225141
0.0653387
0.00145544
0.00168521
0.0042795
0.098055
0.00457573
0.00132647
0.0249912
0.0331328
0.0188992
0.0167372
0.0213247
0.102887
0.110365
0.00139487
0.0136045
0.00112643
0.032139
0.00314961
0.00168132
0.0526354
0.0631046
0.0135229
0.0754801
0.0176107
0.0127403
0.0269467
0.00382107
0.00146371
0.0719999
0.00128528
0.00109677
0.00744723
0.00271637
0.00101071
0.0114915
0.0111641
0.0104947
0.000698489
0.0146832
0.00588721
0.028625
0.00130797
0.00720049
0.00216502
0.00317674
0.000765943
0.0146995
0.0313755
0.0058042
0.00199831
0.0192872
0.00194934
0.0236238
0.00131661
0.0179951
0.0399726
0.0722396
0.107133
0.00100312
0.00130169
0.0297256
0.00216908
0.00817568
0.0017051
0.000776761
0.00186685
0.0016475
0.0268596
0.00127532
0.00541842
0.0284669
0.0061521
0.00102377
0.00083458
0.0227148
0.0164178
0.0239359
0.0940175
0.000885143
0.00395796
0.00100051
0.000938141
0.0250024
0.0822271
0.00548497
0.0776895
0.0489019
0.0152197
0.018343
0.00378197
0.00744497
0.0025739
0.00114672
0.00464015
0.0670491
0.0096115
0.00301752
0.00116332
0.00705384
0.00135723
0.00645015
0.028389
0.00254814
0.00131016
0.0198267
0.0453024
0.00270749
0.00120007
0.00236669
0.0904124
0.000829167
0.000817719
0.00188902
0.0563473
0.000772523
0.000949253
0.0012546
0.0130492
0.0740544
0.00160536
0.103628
0.00250861
0.000697583
0.00264048
0.00090384
0.00407615
0.000796879
0.00430701
0.0235423
0.0202172
0.000827339
0.00193871
0.000892821
0.00179428
0.0307696
0.00228828
0.101835
0.00506005
0.00385491
0.0036798
0.0768879
0.0125801
0.00251626
0.00113721
0.000867892
0.000729727
0.00662167
0.00648733
0.00243907
0.0239356
0.0380797
0.0434436
0.0132075
0.00457373
0.039152
0.00414821
0.0546159
0.108552
0.0780365
0.0011025
0.0223564
0.113175
0.00535355
0.00666057
0.0502426
0.00065857
0.0235092
0.0320956
0.00468746
0.00643865
0.0115606
0.0188376
0.00142639
0.00696967
0.00712656
0.00158158
0.00738106
0.00245418
0.011142
0.00355619
0.00101417
0.000758974
0.0489101
0.00126451
0.00211467
0.0757403
0.000720012
0.0601518
0.0728917
0.00719739
0.0876509
0.00340219
0.00109744
0.0577384
0.000988616
0.0281822
0.0082272
0.00198673
0.0717712
0.00095022
0.0143973
0.0278913
0.0432802
0.0350384
0.00235373
0.00269121
0.000714487
0.00405531
0.0010337
0.00577323
0.046459
0.00264419
0.000720284
0.00153947
0.00365897
0.00265939
0.00502805
0.0115238
0.00213803
0.0161812
0.00147213
0.0967549
0.00086791
0.015248
0.00399096
0.00931333
0.0195243
0.00173146
0.0181256
0.0516181
0.00208275
0.013611
0.0730757
0.00644877
0.00442069
0.00202054
0.00168736
0.00148745
0.000814392
0.0849227
0.060776
0.000825037
0.0447181
0.00150436
0.00380847
0.0141944
0.0495741
0.00736695
0.0375326
0.0280613
0.00924094
0.00180771
0.00205892
0.00230238
0.00405913
0.0774483
0.00439884
0.0015795
0.0467416
0.00384108
0.0142273
0.000904445
0.016444
0.00106479
0.0969462
0.00160962
0.116419
0.00473618
0.0231811
0.0143615
0.0104877
0.069698
0.0317763
0.0770864
0.00156815
0.000845166
0.00883751
0.000965631
0.0259229
0.00679104
0.0126214
0.00198995
0.000809047
0.00790072
0.0560482
0.002004
0.0495256
0.0293376
0.0111994
0.000829615
0.00131529
0.00184013
0.00166254
0.00223846
0.0169823
0.03361
0.00148812
0.0724323
0.00187176
0.0111503
0.0721658
0.00124021
0.00127482
0.0631139
0.000757083
0.010665
0.00395888
0.00304881
0.00138183
0.00130724
0.0016477
0.107471
0.107042
0.00116753
0.0303407
0.031388
0.0107293
0.0250628
0.00140368
0.00254723
0.00532071
0.00106775
0.00677066
0.00287534
0.0149879
0.0801895
0.0926111
0.0764105
0.000767037
0.000751091
0.00260425
0.0503605
0.0559567
0.00996917
0.032566
0.00672815
0.0123885
0.00143373
0.0012676
0.00419542
0.00216342
0.00222935
0.0319101
0.00231296
0.0319698
0.00098121
0.00226144
0.00116281
0.00165708
0.0162732
0.00884938
0.00117393
0.00100791
0.00127813
0.00515041
0.00289055
0.000948846
0.0993466
0.00236792
0.00106298
0.00356884
0.100584
0.0285469
0.00703279
0.000903317
0.0008812
0.00309405
0.0381519
0.0131219
0.00837477
0.000613602
0.0193462
0.00189739
0.0448422
0.0156665
0.00241312
0.049274
0.0540285
0.0132612
0.0111415
0.0817277
0.0173794
0.0520546
0.00144761
0.00259345
0.000911531
0.0492081
0.0046144
0.0412838
0.00235964
0.00244248
0.00623746
0.0432241
0.0193931
0.00166025
0.0026712
0.00958822
0.000836773
0.00408444
0.0221182
0.0244092
0.00221876
0.000685665
0.00429048
0.0635686
0.00171438
0.0740101
0.00790519
0.0375224
0.00203201
0.000919812
0.0646982
0.0259084
0.00187025
0.0273484
0.00135433
0.000835905
0.00487573
0.0232135
0.0609522
0.0430543
0.074578
0.000815731
0.00177889
0.00283728
0.0191335
0.000977189
0.0881126
0.0355978
0.0010206
0.0392742
0.00126599
0.070777
0.00826096
0.0117305
0.0400569
0.0311407
0.0751836
0.00105311
0.0205057
0.0791283
0.00263999
0.00660159
0.0756791
0.0048961
0.00754553
0.056825
0.00160337
0.075198
0.00531415
0.000916529
0.00365052
0.0358911
0.00254329
0.00420643
0.00435638
0.0118473
0.00458679
0.00196849
0.0139021
0.0053542
0.0410547
0.0485007
0.0612649
0.0071692
0.00515171
0.00500694
0.0320492
0.011206
0.00499413
0.00100622
0.0025511
0.035061
0.0474515
0.0140019
0.00291546
0.0492921
0.000911978
0.0436038
0.0244921
0.0474556
0.00188793
0.00105841
0.106774
0.0164524
0.0656111
0.00373757
0.0730999
0.0288388
0.00178134
0.105644
0.038456
0.0690957
0.00246828
0.0715496
0.0316878
0.00137348
0.00162303
0.00134415
0.00630643
0.00108885
0.00516042
0.0430994
0.0401921
0.00094093
0.0251219
0.00466266
0.00415063
0.00658183
0.0114069
0.0210917
0.00835711
0.0181226
0.0692552
0.00189704
0.00123873
0.00535529
0.0830073
0.00139894
0.00645498
0.000832934
0.000771576
0.00345797
0.0736765
0.0840005
0.102755
0.00393465
0.0662417
0.0300358
0.00109538
0.0022525
0.00671673
0.0458988
0.00399542
0.00255951
0.0759989
0.0087675
0.00718614
0.00267391
0.00528081
0.0219016
0.0164013
0.00759582
0.0679699
0.00442939
0.0220049
0.000983367
0.00506145
0.003235
0.0358578
0.00730378
0.00115276
0.001546
0.00209728
0.00389935
0.000848245
0.0769881
0.0450301
0.0205139
0.0039721
0.060069
0.0132049
0.00633392
0.00406548
0.0751212
0.0716336
0.0251169
0.105994
0.00246171
0.00161907
0.00186298
0.0466099
0.000758457
0.00738187
0.0981151
0.00938691
0.109036
0.00399259
0.0177311
0.0365587
0.000876703
0.000733193
0.00107948
0.0205759
0.00064529
0.0326247
0.000766354
0.000912339
0.112415
0.00471014
0.0023132
0.0586785
0.08203
0.000778897
0.0219716
0.0589988
0.00241681
0.00186495
0.069838
0.00906449
0.0979323
0.0134646
0.00237414
0.0986246
0.00103867
0.00731256
0.0732294
0.00189852
0.00367591
0.00450517
0.0864207
0.00225523
0.0223506
0.00108299
0.0350014
0.0488768
0.00142001
0.0765319
0.000972903
0.0722622
0.00523179
0.00137138
0.00125842
0.0233866
0.0164125
0.0526748
0.0167375
0.00899991
0.00862557
0.0761129
0.000781414
0.0449312
0.0313976
0.0031156
0.00243049
0.00470213
0.0933924
0.0010657
0.00440046
0.0209117
0.00771717
0.0400707
0.0368871
0.00132315
0.0622165
0.0371352
0.0339274
0.00101376
0.0328495
0.0409871
0.00101592
0.0121267
0.000901078
0.00876414
0.0720118
0.0693845
0.00191556
0.0117852
0.0413119
0.00135235
0.000819294
0.0608744
0.000864894
0.00313618
0.0268276
0.0268718
0.00211737
0.0812677
0.0019035
0.00713839
0.0776698
0.00191868
0.00108422
0.00224122
0.0268775
0.000839429
0.0087708
0.00180462
0.00147698
0.0266898
0.000701104
0.053648
0.0062661
0.0104951
0.00115551
0.0730791
0.0209474
0.0017361
0.0902
0.00649727
0.074468
0.0215616
0.000781761
0.00389662
0.0115548
0.00796287
0.00151492
0.0245208
0.0154004
0.00641058
0.00334879
0.012271
0.0303735
0.0405653
0.0691275
0.0210079
0.0669723
0.00648518
0.00999999
0.00182691
0.063614
0.00175176
0.0263877
0.00912941
0.074825
0.00651107
0.0206013
0.0363536
0.000873915
0.00104721
0.0141434
0.0728352
0.000984073
0.00952415
0.00145357
0.00589855
0.00286938
0.000885473
0.000742744
0.0011101
0.0161683
0.0290823
0.0651839
0.00157277
0.035591
0.048944
0.00227907
0.0307731
0.0843755
0.0479562
0.000661382
0.00173866
0.0756962
0.00083725
0.000941754
0.0117628
0.0806093
0.0185201
0.00111309
0.0367415
0.00343793
0.0947189
0.0627567
0.0258518
0.0518167
0.00431673
0.0272078
0.0316381
0.0387803
0.0725565
0.00228534
0.064861
0.0358579
0.0208927
0.0292054
0.00226556
0.00166105
0.00481863
0.0196877
0.0271476
0.086061
0.077202
0.000908678
0.0234266
0.00903748
0.00351655
0.000881326
0.0884314
0.0526797
0.00107026
0.0828952
0.00266114
0.00411685
0.0219512
0.000977134
0.00109328
0.00767658
0.000933303
0.0125409
0.00352802
0.0596465
0.000657177
0.082577
0.00109697
0.0522105
0.0404026
0.00175236
0.00103039
0.0021795
0.00224303
0.0501799
0.00142427
0.0691529
0.00113722
0.00535271
0.0741492
0.053775
0.0337908
0.00598651
0.00426415
0.0010686
0.00681213
0.0315425
0.0791023
0.0212539
0.000722599
0.00257384
0.00653291
0.0780931
0.0419844
0.00960162
0.00129876
0.0318352
0.00801327
0.00401039
0.0274789
0.0155844
0.0176167
0.00461862
0.00232427
0.0150129
0.0030112
0.0488384
0.0655006
0.000822074
0.00628384
0.00435952
0.00178093
0.0558496
0.00044018
0.000636016
0.00427441
0.00117128
0.0407354
0.0014351
0.00112558
0.00290414
0.084221
0.00107714
0.00313474
0.0747361
0.00792667
0.00115484
0.019863
0.0710164
0.00777237
0.0970607
0.000890743
0.00683293
0.0254257
0.0861549
0.0456325
0.00282213
0.00677119
0.000744544
0.00425934
0.000723365
0.00436966
0.0885215
0.039657
0.00195673
0.00149675
0.030752
0.0326292
0.00282938
0.0240355
0.00212072
0.00134052
0.000645719
0.0258841
0.0260938
0.00116469
0.0480211
0.00109207
0.00207832
0.03649
0.00127017
0.00539824
0.00215859
0.031679
0.000725084
0.0846615
0.000844897
0.0742146
0.00470875
0.0194146
0.0522628
0.0013222
0.0177655
0.0306129
0.0160854
0.000932247
0.0685086
0.0640259
0.00100214
0.028143
0.0404206
0.0759454
0.0122448
0.0515677
0.0768185
0.00910052
0.0679938
0.00900966
0.0454381
0.00233446
0.000770407
0.00248904
0.00102348
0.00935291
0.0123823
0.040016
0.0671957
0.0227378
0.000828869
0.000854402
0.0322442
0.106627
0.0383365
0.00130939
0.0705217
0.00222043
0.00188208
0.000939815
0.000919717
0.000845004
0.000905268
0.0376922
0.00141117
0.000839982
0.00103463
0.0113877
0.0243291
0.0067521
0.0757951
0.00213919
0.00330359
0.00445463
0.0110178
0.000805434
0.040555
0.081048
0.00135247
0.00302205
0.0262478
0.0498975
0.00641498
0.0699957
0.00121196
0.00107125
0.000839525
0.000943376
0.00437295
0.00184452
0.0315351
0.00162474
0.0660682
0.0345551
0.0406548
0.000713304
0.0195203
0.0352657
0.00155013
0.000955481
0.0020048
0.00259642
0.0186809
0.00587068
0.00076513
0.000774918
0.00145243
0.00106509
0.00269468
0.0010406
0.00170058
0.00176315
0.00681927
0.00686409
0.0412028
0.00556783
0.00892023
0.0518899
0.00156643
0.0988977
0.0265968
0.0465915
0.00120735
0.0114909
0.062284
0.0327054
0.0360134
0.00289371
0.00341926
0.00193123
0.0160878
0.000797162
0.0659903
0.0354949
0.00411351
0.00265768
0.076716
0.0010439
0.00700523
0.000963504
0.0714148
0.000954197
0.00360595
0.0379166
0.0520778
0.0284843
0.000907946
0.000777263
0.000723642
0.101967
0.0204189
0.0598972
0.00102207
0.00893246
0.0606122
0.00186546
0.028407
0.0167806
0.000777671
0.0381283
0.0334021
0.0607571
0.0960149
0.065358
0.0184638
0.0845368
0.0246123
0.00443374
0.00730492
0.0634148
0.000734661
0.0151941
0.00105988
0.000675333
0.00446153
0.00106565
0.001022
0.0387946
0.00716166
0.0696075
0.0365684
0.00175174
0.010796
0.00151185
0.0102133
0.00362299
0.0248196
0.0148344
0.0576256
0.00119193
0.00546315
0.00100969
0.0208604
0.00283336
0.00756713
0.0717292
0.00896538
0.00705176
0.0542332
0.00120408
0.061352
0.00731327
0.0694718
0.00656602
0.00413404
0.0019245
0.0110951
0.00453219
0.00167277
0.0101766
0.00784766
0.0438673
0.00119766
0.00571736
0.0918397
0.00417725
0.00162053
0.000763314
0.036428
0.0177554
0.0998686
0.0559249
0.0233066
0.000917171
0.00910368
0.0578234
0.000708703
0.0705231
0.0664295
0.0112912
0.00107225
0.0234051
0.000627842
0.00197797
0.00295145
0.000801457
0.0203198
0.00102149
0.0019082
0.0768595
0.00983588
0.02587
0.0193715
0.00732867
0.000880208
0.00540021
0.0019061
0.00226334
0.0264209
0.00125508
0.0561364
0.00133233
0.089958
0.00114863
0.00152353
0.0665734
0.0380732
0.0846161
0.00891947
0.00403329
0.0731987
0.000892501
0.015408
0.00745742
0.00435737
0.0162488
0.11305
0.00180546
0.0451193
0.00225958
0.00872647
0.000716879
0.0984285
0.032683
0.00127039
0.0732768
0.0642718
0.0216719
0.00481157
0.00715433
0.00194123
0.0101585
0.0486842
0.013437
0.0189567
0.0198172
0.00102758
0.104473
0.00563634
0.00117904
0.00255376
0.0326021
0.00385097
0.095901
0.0762618
0.00207846
0.0018757
0.00396632
0.0966175
0.0347188
0.0121933
0.00419284
0.0265409
0.0101559
0.0341031
0.0229756
0.0649403
0.0222329
0.000987978
0.0526298
0.00153989
0.000836409
0.0132247
0.0381124
0.00133542
0.000997793
0.107597
0.0310439
0.00135298
0.0213795
0.00412466
0.00221704
0.00195506
0.0416756
0.0186875
0.0059083
0.0330162
0.00113512
0.00268458
0.034257
0.00667179
0.00793189
0.0677303
0.00138104
0.0622254
0.00412974
0.0179744
0.0108726
0.0925396
0.0312488
0.00180622
0.0284799
0.00115103
0.00481978
0.0276204
0.0287849
0.0715555
0.0393625
0.00103053
0.101513
0.00233986
0.0619179
0.104974
0.00556016
0.00121148
0.0612804
0.051487
0.0193561
0.0180037
0.00767314
0.00699909
0.000875166
0.00987117
0.0731547
0.00258785
0.00104044
0.021139
0.00842001
0.000831568
0.00788971
0.0219932
0.00165177
0.0647484
0.00076645
0.00700346
0.0595206
0.00423313
0.031904
0.0342083
0.0314798
0.00123094
0.0259631
0.00184544
0.000878584
0.00147424
0.0107464
0.0749245
0.00144001
0.0897837
0.000720067
0.0429016
0.00239628
0.0118602
0.00434219
0.0179039
0.00142775
0.0105522
0.0977081
0.000897059
0.000608727
0.0548937
0.00201949
0.0747591
0.00671448
0.0379002
0.000763598
0.00188097
0.0209149
0.0230453
0.000823036
0.0017589
0.0672725
0.0145027
0.0541317
0.0689554
0.0558448
0.0105106
0.000909774
0.00124466
0.0194447
0.00236568
0.0140963
0.00495786
0.0673877
0.000791214
0.000836113
0.000867939
0.0135855
0.00109228
0.000627997
0.0127109
0.00903265
0.0390247
0.00549205
0.000804089
0.0225993
0.0563611
0.0556862
0.0109685
0.0798723
0.0293982
0.0019259
0.014659
0.00224748
0.0231271
0.0607475
0.102419
0.0740101
0.00230078
0.00104412
0.0829285
0.00660464
0.0575231
0.00103876
0.0335344
0.0107471
0.000578751
0.00113022
0.00854099
0.00131159
0.00169295
0.0413596
0.00446011
0.0226028
0.00821524
0.109901
0.0553937
0.00322149
0.00365482
0.000904488
0.00335168
0.00670719
0.00158336
0.0154035
0.00761267
0.0213945
0.00101144
0.000982609
0.00128628
0.0321383
0.0828646
0.000646862
0.000857472
0.0665413
0.00134175
0.0703594
0.0107307
0.072908
0.0316528
0.0287237
0.0262904
0.00212593
0.00538618
0.00695696
0.0249022
0.0436975
0.0860532
0.0632204
0.0777987
0.100316
0.0554389
0.000759873
0.000789686
0.000896498
0.0134038
0.00161589
0.00451213
0.00105848
0.0017123
0.00458042
0.0766918
0.021409
0.00228011
0.0199932
0.00186806
0.000729992
0.0161497
0.0797377
0.00833215
0.0008438
0.0479723
0.00117752
0.03117
0.0737247
0.00113557
0.0342229
0.00871115
0.0953253
0.000841897
0.0471123
0.0275616
0.0021355
0.0478266
0.0478196
0.0298675
0.0722446
0.00349169
0.0322023
0.000800628
0.0724716
0.0822644
0.0594505
0.000603174
0.00806462
0.0204456
0.000933772
0.0609101
0.0471792
0.00240755
0.000860019
0.0227984
0.00122233
0.00113427
0.0110105
0.000801463
0.0801497
0.0316434
0.0036197
0.0400374
0.000971049
0.000841667
0.0663426
0.0117415
0.0333669
0.000718487
0.00163963
0.00682995
0.0719389
0.00245247
0.00575626
0.00573833
0.0118691
0.0958866
0.0213725
0.0309995
0.0515871
0.00129065
0.0739061
0.0551735
0.00619295
0.00119557
0.00439874
0.0011445
0.0724612
0.00497093
0.0317499
0.0266181
0.0243367
0.0541737
0.0724202
0.0397846
0.0720614
0.0978734
0.0137582
0.030226
0.0222275
0.101692
0.000753921
0.00118738
0.0217717
0.0185893
0.00118201
0.0990231
0.00342757
0.000791741
0.00223978
0.00112879
0.00176696
0.00108174
0.00137615
0.000770654
0.0320842
0.00733507
0.0352602
0.00531984
0.0102124
0.0817705
0.0327457
0.000727536
0.0481917
0.00813489
0.00111251
0.050199
0.0393974
0.00387462
0.0629792
0.0324353
0.101692
0.021942
0.000861127
0.000768804
0.0637858
0.0275173
0.0513655
0.0159784
0.005247
0.0180675
0.00101636
0.0022208
0.0793456
0.00100587
0.00808191
0.0317096
0.00119221
0.0569607
0.00474699
0.0613642
0.0216402
0.0213034
0.000949878
0.0208403
0.0741696
0.0131621
0.0185642
0.00904205
0.0400809
0.00140813
0.00675748
0.00512644
0.00134771
0.00116606
0.00358234
0.00785007
0.00137811
0.023462
0.0672774
0.0124276
0.000874398
0.00552432
0.00542762
0.000588537
0.0704072
0.00149218
0.00247921
0.00169064
0.0420926
0.00617844
0.0368008
0.00261179
0.00674187
0.00221215
0.00117259
0.0712644
0.00776134
0.00983867
0.0309817
0.0016318
0.0313324
0.0084509
0.00254594
0.00420869
0.0244696
0.0956691
0.0786056
0.00536128
0.0765206
0.0179901
0.0383956
0.0729068
0.0416819
0.00487865
0.0855877
0.00186556
0.000941586
0.0175163
0.0462698
0.0477153
0.00522509
0.00627778
0.0634489
0.000803331
0.0047525
0.0546806
0.0808775
0.00107555
0.00093927
0.0729203
0.00225543
0.00649518
0.0407417
0.000672531
0.103817
0.00398206
0.0943093
0.00146351
0.00117946
0.0915274
0.00770039
0.000821691
0.00930153
0.00160957
0.0978548
0.0118871
0.000932078
0.00141982
0.0119857
0.0117926
0.017302
0.0121886
0.0154369
0.000968333
0.000973869
0.00145269
0.0133294
0.0276192
0.00558661
0.0270515
0.00244198
0.0143876
0.000800734
0.0431817
0.0950724
0.033436
0.0338864
0.0695746
0.00427863
0.00146893
0.00824497
0.0556244
0.0711778
0.000726662
0.0134966
0.0125908
0.0914866
0.00769668
0.00112356
0.0607881
0.0301985
0.00717865
0.00379606
0.0603789
0.00621608
0.0171053
0.0137798
0.00332219
0.00873736
0.00127734
0.00194032
0.00470915
0.001482
0.0668218
0.029124
0.0195438
0.00118312
0.0140902
0.00198033
0.0824027
0.000802973
0.00789762
0.0389637
0.00755778
0.0203595
0.000756385
0.00533172
0.00929168
0.00181826
0.00329089
0.0807456
0.0792401
0.083617
0.0122914
0.000870022
0.0055903
0.0646875
0.002526
0.0314548
0.00108576
0.0238172
0.0010138
0.0101292
0.00110325
0.00221764
0.00394256
0.0267765
0.0415493
0.064051
0.00115061
0.0283323
0.00534279
0.00159411
0.0870086
0.000876443
0.00690739
0.0329
0.00488519
0.0628915
0.0316436
0.000931562
0.000740121
0.000676658
0.0323811
0.0558038
0.0173024
0.0131475
0.0159362
0.0283701
0.00148954
0.00537731
0.00155364
0.0207161
0.00506515
0.00184835
0.00140135
0.00854291
0.0442184
0.000702666
0.0169624
0.000881716
0.0352492
0.068697
0.0364436
0.0407047
0.086333
0.0229373
0.0727644
0.00557017
0.00151087
0.00769518
0.000865956
0.0122195
0.0833973
0.0714764
0.00168506
0.0455689
0.0208891
0.0650662
0.00107193
0.000914103
0.0709035
0.0136519
0.0390391
0.0373747
0.0978056
0.0573293
0.0350824
0.0016705
0.0198659
0.0341239
0.00239554
0.039341
0.00162163
0.00396672
0.00348374
0.00272051
0.0140729
0.0542122
0.0011974
0.0249804
0.00482953
0.00959154
0.0385199
0.00481415
0.0742165
0.000860628
0.0455345
0.0250682
0.00108771
0.0052464
0.00075427
0.0834902
0.00370739
0.00225878
0.00666228
0.00138728
0.0695484
0.0443389
0.0459696
0.00380244
0.014036
0.00181587
0.0375696
0.00652246
0.00111606
0.00174998
0.0417464
0.00162728
0.0109246
0.000781691
0.0153128
0.014877
0.013358
0.00178144
0.0318081
0.0180918
0.000996626
0.0474046
0.0100383
0.0398376
0.00512304
0.00109136
0.00134623
0.0289306
0.00295536
0.0361513
0.00236882
0.0421966
0.0197848
0.00501565
0.000757357
0.00650479
0.0518992
0.0116445
0.000760643
0.00393056
0.00414328
0.00103244
0.0671404
0.00171129
0.103953
0.00227745
0.032854
0.0124834
0.00113127
0.0108909
0.0550182
0.00211285
0.000772732
0.00120068
0.0512793
0.000985511
0.00194822
0.0357639
0.00231966
0.000734144
0.0897168
0.0141417
0.00137418
0.0652005
0.0156142
0.0720147
0.0254186
0.00320728
0.00394519
0.00772939
0.0010728
0.0887008
0.00348381
0.00860083
0.0203051
0.013343
0.00780433
0.0273196
0.0814965
0.00146614
0.00099465
0.000622649
0.0401181
0.00762056
0.075837
0.000941589
0.0922289
0.00667638
0.000750824
0.00095851
0.00441017
0.0278237
0.0023344
0.000840875
0.00180337
0.0452132
0.0645473
0.0327569
0.00108935
0.00762758
0.00232233
0.00115285
0.0253135
0.0912035
0.000860895
0.00835184
0.00397209
0.0796175
0.034773
0.0323064
0.00194784
0.0258131
0.00577424
0.130778
0.0705182
0.074517
0.00117377
0.000854611
0.0124626
0.0019888
0.0170622
0.00206312
0.0369234
0.0457648
0.00403311
0.0250041
0.0380495
0.0131995
0.00320327
0.00945148
0.00277905
0.0183379
0.00481506
0.00107157
0.023457
0.0833225
0.0260267
0.000815689
0.00610567
0.00464352
0.00403578
0.0400249
0.030862
0.00242542
0.0110624
0.00136116
0.00104191
0.0064286
0.000878171
0.0012603
0.000945449
0.00526684
0.0194918
0.0985279
0.00206983
0.000946105
0.0462077
0.00603898
0.000863331
0.0593316
0.00201845
0.00166081
0.00340633
0.0376659
0.00392947
0.0237985
0.0638076
0.0351674
0.00132728
0.0248331
0.00480373
0.00715733
0.0856343
0.0854325
0.000830553
0.0358817
0.0557878
0.00581637
0.00165555
0.00766714
0.0566197
0.00551088
0.00156
0.00117597
0.0095317
0.00153702
0.00363701
0.0022768
0.00428748
0.0243379
0.00198833
0.00676976
0.0362218
0.0397058
0.0200211
0.0117002
0.0021107
0.000827914
0.0958204
0.00176733
0.00381648
0.00188162
0.00104813
0.00235777
0.000961612
0.00278442
0.000964307
0.00608728
0.000857603
0.00542309
0.0354727
0.0221083
0.00122267
0.00191438
0.00335346
0.00172998
0.0389441
0.00151316
0.000859835
0.0694056
0.0742484
0.00590462
0.00452021
0.000875134
0.000806145
0.00284178
0.0913943
0.0315341
0.0774537
0.00137486
0.0116514
0.00196278
0.0132457
0.00104914
0.00223544
0.000736173
0.0104375
0.00115888
0.0413823
0.0773129
0.0113039
0.0809404
0.00115907
0.00343132
0.00093026
0.0252309
0.000819893
0.00141587
0.0857368
0.00532579
0.000810031
0.00481703
0.0910084
0.0112321
0.0582959
0.000892262
0.0727085
0.019665
0.00117224
0.00888931
0.00387154
0.00739983
0.0823994
0.021315
0.00611885
0.0249869
0.0403234
0.068925
0.00885923
0.000808571
0.00106709
0.0394588
0.00253726
0.000828562
0.0682165
0.0015571
0.00082204
0.100072
0.00128592
0.0532795
0.00306326
0.00129401
0.0303175
0.0498196
0.0179163
0.00352264
0.0128138
0.0751203
0.00114675
0.0246687
0.00116543
0.0822066
0.00105074
0.000799563
0.0116459
0.0378252
0.0025454
0.00432479
0.00223395
0.000970516
0.00486737
0.0215597
0.00085239
0.0171075
0.00384498
0.00479256
0.00775581
0.00442186
0.0346006
0.00248474
0.00137534
0.00120706
0.00302837
0.0369793
0.00252337
0.000776323
0.0997852
0.00230925
0.00326867
0.00173885
0.0246016
0.0110977
0.0556921
0.00265057
0.00114935
0.00477863
0.00114433
0.003785
0.00724148
0.000789462
0.000847171
0.000870999
0.00190214
0.000714385
0.00420303
0.00136433
0.00507779
0.00103815
0.0010649
0.0165837
0.0223476
0.0107345
0.00510041
0.0739818
0.0115986
0.0924253
0.0129476
0.0223265
0.0347398
0.00112709
0.00109348
0.0980468
0.00557754
0.0611283
0.0827889
0.0149298
0.0041721
0.0149406
0.00324341
0.0218718
0.00595513
0.00187995
0.00334977
0.00460093
0.0737535
0.00330844
0.0753919
0.0617893
0.00134196
0.0164091
0.000938576
0.0025608
0.0432492
0.0146183
0.00142513
0.0587442
0.00357546
0.00387465
0.00405774
0.0110489
0.00785676
0.0340562
0.0935239
0.000868763
0.0012063
0.00768591
0.00447458
0.0261047
0.000796766
0.0123248
0.000999026
0.00341533
0.0716184
0.0583222
0.00118268
0.0026493
0.000703428
0.00850709
0.00113379
0.0176847
0.000812497
0.00150992
0.0078331
0.00208699
0.0739095
0.0014871
0.0223009
0.00131548
0.00857305
0.000860142
0.000986751
0.000863591
0.000818022
0.00663291
0.00149834
0.00278064
0.0058399
0.000824843
0.00186346
0.000825488
0.0810439
0.0110774
0.00327737
0.00116939
0.0329626
0.0315353
0.00751853
0.00443044
0.00146989
0.00468125
0.00585235
0.0422473
0.00305609
0.0477377
0.00256636
0.00137988
0.00192692
0.086912
0.00142766
0.00451565
0.102193
0.000811217
0.00217526
0.0109461
0.000813151
0.000856419
0.000971656
0.00449841
0.0506545
0.00892865
0.00118515
0.0076243
0.0384922
0.00139381
0.0458589
0.00119779
0.0166811
0.0235671
0.00138613
0.000882662