/*--------------------------------*- C++ -*----------------------------------*\
| =========                 |                                                 |
| \\      /  F ield         | OpenFOAM: The Open Source CFD Toolbox           |
|  \\    /   O peration     | Version:  v2012                                 |
|   \\  /    A nd           | Website:  www.openfoam.com                      |
|    \\/     M anipulation  |                                                 |
\*---------------------------------------------------------------------------*/
FoamFile
{
    version     2.0;
    format      ascii;
    class       volScalarField;
    location    "550";
    object      ddt0(k);
}
// * * * * * * * * * * * * * * * * * * * * * * * * * * * * * * * * * * * * * //

dimensions      [0 2 -3 0 0 0 0];


internalField   nonuniform List<scalar> 
18355
(
7.38318e-09
-0.00208455
1.00861e-07
-1.0341e-09
9.33351e-08
-1.96958e-06
-7.68799e-09
-1.56822e-07
-4.71271e-09
-0.00232329
1.16004e-08
0.0015662
-2.45003e-07
-1.16112e-08
-9.19739e-08
-6.83036e-08
0.000102635
1.38406e-08
5.44721e-08
0.0111852
-8.87942e-08
5.5741e-08
-0.00235996
9.30543e-08
2.51162e-07
1.61293e-08
-3.52717e-10
6.17818e-09
-0.000121099
1.04413e-07
4.31001e-08
1.49741e-07
1.48882e-08
3.81645e-09
-1.37065e-07
3.25814e-08
-1.2169e-08
1.80375e-07
-4.12488e-09
5.37604e-09
-8.65479e-09
3.13379e-07
1.08047e-07
-0.00178045
2.47677e-08
6.47724e-07
4.25169e-08
2.67569e-09
2.20941e-07
1.9714e-08
-9.35584e-09
1.25809e-08
-1.58206e-09
-0.00323201
9.49208e-09
1.18168e-08
-2.91439e-06
-9.0019e-08
1.65892e-07
2.50423e-07
2.30112e-08
-8.27487e-07
5.98374e-09
9.67392e-08
0.00162744
-8.6965e-10
-0.000603932
-4.61112e-08
-8.00093e-10
6.47475e-08
-7.99279e-08
1.1313e-09
1.00747e-07
3.30192e-08
-1.65655e-07
-9.7084e-09
-0.00118443
1.48924e-07
3.26264e-07
2.53238e-08
-8.84554e-09
1.52833e-05
-6.16783e-08
-1.49094e-08
1.48428e-08
-1.94596e-07
-0.00274144
0.0107857
-0.000481469
-0.00425053
9.97024e-06
2.42364e-08
1.32031e-08
1.85061e-08
-0.000352225
-0.00218076
-4.91221e-08
1.95614e-07
-0.00324788
-2.5949e-05
-0.00105978
-6.78624e-06
-1.75131e-07
-0.00552643
9.17422e-08
-1.80072e-06
0.00110266
3.34968e-07
7.65219e-08
7.76832e-06
1.07187e-07
1.70941e-08
1.28699e-08
1.12247e-08
-0.001767
9.92412e-09
4.68923e-06
-0.000901343
2.55719e-06
-1.24532e-08
-0.00250061
-0.00804963
1.45115e-07
1.1825e-07
-4.80229e-08
6.85399e-07
1.06209e-08
-2.15143e-09
-0.00161156
1.69894e-08
-1.07809e-08
-0.0181658
-2.19629e-07
1.92322e-07
-6.95011e-08
-1.13685e-09
-5.68675e-08
1.35295e-08
2.96318e-09
1.21642e-07
-0.0012861
-0.000715666
2.24371e-09
9.75713e-08
-3.32545e-06
7.14706e-08
-8.80613e-08
-0.00502974
1.4944e-07
-0.0077513
9.26456e-08
6.87832e-08
9.98956e-09
2.53772e-06
-1.80428e-06
2.20064e-10
-0.0134638
3.29651e-06
3.28973e-10
-8.78653e-07
-8.78393e-08
-9.05607e-08
6.56692e-08
2.04652e-07
-7.50144e-06
2.57331e-05
-0.000271706
-1.62606e-07
-3.24517e-06
2.59374e-08
0.000102696
-0.00189872
7.09465e-09
4.90887e-09
-7.37945e-08
-0.00178043
-2.57923e-07
1.19849e-08
0.00328682
-0.00014282
1.27026e-06
-3.66473e-06
1.53996e-07
-1.88168e-09
-6.44297e-06
-0.00185412
-0.00412209
-4.92162e-06
7.39012e-09
3.93602e-05
-2.82459e-06
1.07934e-07
2.03886e-07
-0.00668902
4.66887e-07
5.74831e-08
0.00704539
1.54139e-07
-7.91616e-08
3.1338e-09
8.68292e-08
-7.28695e-09
-0.0009439
-0.00388738
0.000897622
-9.72052e-08
3.32394e-06
0.00213261
0.00279498
-9.30854e-08
-5.21918e-08
8.87827e-08
0.00879945
1.95905e-08
2.72019e-08
-7.43472e-06
0.0226715
0.0089953
1.16483e-08
1.44934e-07
8.80889e-05
2.64724e-09
-7.49876e-08
-5.69835e-08
-0.000178683
8.1537e-08
0.00138677
-0.00193124
1.14089e-05
-4.80386e-08
-2.30211e-09
3.27383e-07
-9.87522e-08
0.00144153
-9.89579e-08
1.56374e-08
1.37861e-08
1.01531e-06
-0.00562174
0.00092506
8.28985e-08
7.54538e-06
4.64344e-08
2.94196e-08
7.17154e-08
-0.00193787
0.00267709
8.70445e-06
-1.80348e-06
-8.07291e-08
8.61952e-08
2.69314e-06
1.59577e-07
0.00312908
9.04749e-08
0.000783421
0.025035
-8.37935e-07
1.16192e-07
2.05216e-08
-1.08878e-08
8.11e-08
-0.00078864
-2.53381e-07
1.36453e-08
2.75299e-08
-9.52027e-10
1.75928e-06
-1.80708e-07
-6.86458e-06
6.10109e-10
0.000651709
-1.04049e-05
-1.79119e-06
-8.97228e-08
0.00451409
1.81276e-08
-4.84363e-08
-0.0010534
8.00438e-09
-1.04876e-08
-1.27294e-06
2.42223e-08
0.000750174
1.60115e-07
-3.49795e-09
9.93302e-09
-1.35836e-07
0.00147374
1.50613e-07
3.13474e-09
-4.70541e-09
-3.17158e-06
-0.00298366
-2.02864e-09
6.57601e-10
0.0233974
-7.84424e-08
-1.83913e-06
9.31756e-06
-4.50947e-08
-7.9571e-08
4.6392e-08
1.13273e-09
2.6271e-06
-4.5833e-06
0.000100777
-3.33329e-06
1.2343e-08
2.3971e-06
6.96752e-08
6.55545e-08
0.0224681
8.86374e-08
3.7181e-08
-2.68878e-07
1.22826e-08
-1.13391e-08
1.27931e-05
-0.00343621
0.00235766
-6.66823e-08
-3.01146e-08
-0.00144163
1.48493e-09
-0.0067361
3.62479e-07
2.90428e-07
0.00217105
1.11627e-08
1.24901e-05
8.83105e-08
-6.92115e-08
6.94691e-09
-1.62938e-06
0.00122728
-7.3356e-10
-0.00103993
2.85078e-08
-2.61478e-09
1.94871e-07
-9.42801e-07
-0.0128532
-0.00249451
-0.00847895
9.36961e-08
7.464e-09
-0.000911929
1.8676e-06
1.46824e-08
-7.18061e-08
0.000414885
-7.74149e-06
8.74057e-06
-0.00107915
4.52025e-09
1.01733e-07
8.5349e-06
1.08469e-07
-8.82957e-08
7.90214e-06
-1.38153e-07
1.86323e-07
-0.00182299
-1.2542e-09
6.66494e-07
4.79245e-05
0.000750803
1.73788e-09
9.21607e-08
-3.52048e-08
-4.50878e-08
1.23907e-06
-4.66635e-08
1.62657e-07
-3.85602e-08
-1.27458e-07
5.24129e-09
-5.24821e-09
8.99795e-10
2.29503e-08
-1.5578e-08
-1.03805e-08
-7.35457e-08
3.83451e-06
0.00207101
-6.32843e-08
-0.00951386
-2.69282e-07
0.00217786
7.49141e-08
-1.45297e-08
7.19809e-08
-0.0131628
-1.6719e-08
1.00197e-08
1.51861e-08
-1.18866e-08
-0.0027146
-2.61721e-08
2.47394e-08
-7.30127e-08
3.1153e-08
1.11112e-07
1.59852e-09
0.00130162
6.52932e-08
2.06695e-08
-1.01504e-06
1.10792e-08
7.27808e-06
7.82567e-06
-6.47571e-06
-4.17668e-10
8.66024e-08
0.00162719
1.17147e-09
7.29112e-10
5.31696e-06
1.92373e-10
4.32749e-09
8.68813e-05
3.11394e-08
0.00127016
-1.20379e-07
-6.30606e-07
5.30332e-05
3.25864e-08
-6.94232e-09
0.00109322
-1.96556e-06
0.0003851
-0.0187719
-4.5332e-08
-2.9828e-09
7.01576e-08
0.0160664
-3.68594e-07
4.91266e-08
6.80047e-10
2.56946e-08
-5.00089e-08
5.3641e-06
-1.322e-07
7.46512e-08
-1.42819e-09
8.29343e-08
0.000214502
-0.00296555
0.000818083
-0.016204
-3.73533e-08
-1.66948e-07
-0.00214195
7.10037e-08
1.98409e-08
-3.13811e-09
-6.32233e-08
8.13951e-07
-3.08958e-08
2.50556e-08
-3.61676e-05
-3.07137e-07
2.03022e-07
-0.00423727
4.33768e-08
-0.00179598
4.90802e-08
-7.11904e-09
8.63908e-08
-5.63283e-09
3.2495e-10
-2.40276e-09
-4.15741e-08
-0.000654055
-7.13623e-08
-1.61434e-09
-0.0032365
8.58784e-07
1.88569e-08
1.39292e-07
3.15359e-07
0.00498164
-6.20945e-08
-4.77331e-08
-0.0165323
2.19682e-09
0.00073043
3.86966e-07
-4.57074e-08
-2.7188e-05
8.91624e-07
1.63088e-08
0.00341794
-0.00101057
0.000516118
-4.13181e-08
-4.43804e-08
-1.24533e-07
-3.59293e-06
3.50382e-08
0.000891946
0.0162112
-0.0110313
-0.000682023
-1.35589e-08
-4.91506e-08
-0.00172016
-0.00209776
0.00269451
8.19812e-08
-1.2052e-07
-1.01137e-07
-0.00237409
-2.52742e-05
4.8127e-05
7.94147e-08
-1.36925e-08
4.97512e-09
1.72864e-08
-3.86839e-08
0.00205733
-8.98779e-08
-0.00135883
4.41561e-08
4.06765e-08
2.21272e-08
-1.23326e-08
-1.1146e-07
0.000241852
-8.5733e-09
-2.13927e-06
0.0002538
2.77223e-07
1.16186e-07
-1.52761e-10
3.64174e-07
-5.11633e-10
6.12468e-08
-1.08504e-07
2.52481e-07
3.60032e-07
-8.57376e-08
1.59756e-08
-2.67967e-09
-9.77962e-10
1.65168e-08
1.86613e-07
-8.30013e-07
5.70975e-08
8.95872e-08
0.0107498
7.18875e-09
6.278e-07
2.43856e-08
7.2817e-07
5.6762e-10
-0.00281461
-9.80749e-10
-0.00118834
-2.70088e-08
5.41821e-09
0.024447
0.0124061
0.00715436
2.99491e-07
-1.93821e-08
-4.36789e-08
-1.79176e-08
-3.64139e-06
6.05998e-08
-1.96584e-07
-5.45024e-07
-0.000771194
-1.11483e-05
8.2177e-09
0.00269341
-0.0145133
1.42603e-07
-1.14354e-08
2.99479e-07
-0.00409389
4.9104e-10
2.47374e-09
1.85549e-06
6.32575e-07
-6.51258e-08
-5.05435e-08
2.36677e-05
1.87221e-07
-1.07542e-06
-0.00190814
0.00398661
-0.0276646
3.42706e-07
-9.35228e-07
1.47714e-07
8.84332e-09
1.43912e-07
1.01985e-07
-2.77906e-06
2.88329e-05
-0.0018501
5.36919e-06
0.00176021
0.00316519
-6.52927e-07
-7.4041e-08
-0.00180911
0.00395079
7.21657e-09
3.60818e-06
-0.000748037
-0.0129015
-1.33042e-07
-1.19433e-08
1.86795e-07
2.14131e-07
3.58603e-07
-1.20064e-07
9.54434e-08
-0.00131926
-7.39475e-08
-6.44922e-08
-0.00257398
8.45031e-08
1.672e-07
0.00446227
-1.69475e-08
-9.22829e-08
0.000740456
2.06801e-08
-2.15821e-06
7.8715e-09
0.00174476
2.92403e-07
-1.09601e-07
-4.31311e-07
-9.27762e-08
-3.23177e-06
-9.38952e-09
-0.00441307
-1.79141e-06
5.27666e-08
0.000221952
-1.09852e-07
7.24766e-05
0.000277833
7.4927e-06
-9.06006e-05
9.56874e-08
-1.44691e-08
-0.000879978
-2.09876e-09
5.7085e-08
1.59654e-09
1.48747e-07
-0.016702
-0.00579755
1.06887e-07
0.000509646
3.57188e-07
-1.18066e-07
-1.19892e-08
2.51702e-09
-6.83822e-08
-2.22083e-07
-2.23637e-08
-0.00329758
-1.19296e-07
-1.30322e-07
2.37198e-08
0.00313257
0.00128624
1.03117e-07
2.83976e-09
-1.97407e-06
4.17713e-10
1.39247e-08
0.00198269
-9.44119e-06
4.87616e-08
-1.11321e-08
-5.24327e-06
1.97214e-07
3.70077e-07
2.00545e-06
1.85291e-08
-0.00163188
-5.93071e-07
9.03976e-08
-1.33334e-05
-0.00172364
-1.24136e-08
-0.00663004
-2.40423e-09
-2.41475e-08
3.11631e-08
1.04527e-07
0.00109203
4.28604e-08
-0.00211912
-4.92418e-08
0.00160618
-0.00225456
1.45303e-07
0.00170242
9.2938e-08
0.00311194
1.43314e-07
-0.00397315
-0.00204188
5.75993e-08
4.0659e-07
-1.18946e-07
-3.48438e-08
0.00384065
1.26992e-06
0.00173922
2.66398e-08
-0.0029412
1.25253e-08
-0.00763436
8.47747e-08
-9.74785e-08
3.14074e-07
3.99446e-08
-9.75676e-10
-6.74771e-07
-0.00739727
0.00111509
-3.42576e-09
1.61767e-06
1.39183e-07
4.08582e-08
4.28443e-09
-6.0033e-08
-2.72652e-06
0.00442186
5.85562e-08
3.09649e-09
-4.46203e-09
-0.00191169
-1.0709e-07
8.54493e-08
3.90863e-08
-1.33767e-07
9.37413e-08
0.000308633
8.41772e-08
-6.86765e-05
5.2316e-07
-0.00220758
0.000490029
-0.000415701
-1.03333e-08
-4.91795e-07
1.06378e-07
-9.51332e-08
1.66455e-07
-0.00102565
1.17012e-08
-3.93357e-08
-3.17971e-09
0.00358304
9.71634e-10
5.26397e-08
-1.03878e-07
5.39216e-08
-0.00431965
0.00124378
-1.49162e-08
-1.32637e-08
-0.00415294
8.83748e-08
0.00295025
-0.00216185
0.00159718
-2.89006e-06
1.70074e-06
0.00767912
3.31013e-07
1.1611e-08
3.20373e-08
8.27917e-08
5.71395e-08
1.33823e-08
5.4971e-08
-0.00133006
0.000537931
-7.99531e-08
1.02745e-08
1.89661e-08
-1.15972e-07
-8.82615e-08
9.13752e-09
-5.44677e-08
-1.02686e-07
2.37477e-06
2.01561e-06
-7.88551e-08
0.00192177
-3.41651e-07
-0.000136267
6.72177e-08
0.00648139
0.00255282
-6.11327e-07
-3.08599e-05
-9.77863e-06
0.000269846
4.42262e-08
-4.30398e-08
-4.19941e-09
2.12218e-07
0.0179945
2.56579e-08
-1.68057e-09
-2.96449e-07
8.18871e-09
-9.57041e-08
1.37771e-07
1.98133e-09
0.0091152
5.28098e-08
-1.12404e-08
-5.49863e-06
4.45357e-10
1.04052e-06
-4.35411e-06
5.82501e-08
1.21114e-07
4.00902e-08
2.98176e-07
1.39998e-08
-9.73345e-08
0.00086642
-7.54183e-09
-0.000612994
-5.89241e-08
-0.00119579
2.13814e-07
-3.48148e-06
-4.19441e-08
-1.15587e-06
-1.49471e-07
1.11574e-08
5.11287e-08
-0.000611614
1.50454e-09
0.000343289
0.000521939
7.74278e-09
7.42728e-09
7.83215e-09
-1.33043e-08
0.00122671
-1.00716e-08
-0.00141186
-0.000205943
-2.15636e-08
2.94299e-05
8.54691e-09
9.00069e-08
0.00245322
0.00234539
-7.5661e-09
-2.75285e-08
9.69044e-08
2.95033e-08
1.35489e-07
8.29521e-08
1.42505e-05
-1.148e-07
0.000505989
-3.44952e-07
0.0139454
-4.39258e-08
-2.09218e-08
0.000940188
-0.000316478
-5.60416e-08
-4.18956e-08
7.6806e-08
0.00215731
-3.46811e-08
0.00208003
1.42122e-06
8.13379e-10
-6.81239e-08
2.53797e-08
6.11439e-08
-4.65355e-08
8.1652e-09
4.76607e-09
1.26892e-07
-0.00139739
1.89294e-09
-1.43166e-07
-0.00211508
7.78918e-08
2.0141e-08
-2.52702e-07
-0.000113582
9.00586e-08
0.000556181
-1.11057e-08
-1.12152e-08
-3.27396e-09
-0.00167008
1.39177e-05
2.02504e-06
5.16345e-09
1.63346e-08
8.39959e-08
0.000527877
-2.66226e-08
0.00820093
-1.15143e-07
0.0011277
3.78247e-09
4.21007e-09
2.92986e-06
8.00148e-08
-0.000971971
6.67495e-08
1.74305e-06
7.18505e-10
2.77886e-08
-5.30626e-09
1.40074e-05
0.000389963
-1.56563e-07
4.79446e-08
3.64763e-08
5.61517e-08
-2.27312e-08
-1.3375e-09
5.20517e-08
-2.12929e-08
0.00273598
-1.0537e-07
0.00263041
5.13394e-08
-1.58393e-08
-0.000237299
0.00247766
-0.00821764
-8.59381e-08
-0.00264377
5.7099e-08
-0.000716859
4.20471e-08
-6.70846e-07
2.08508e-08
0.000260569
8.70765e-08
-4.97684e-08
-3.3476e-09
1.08705e-07
-5.10421e-10
-0.00102589
-0.0136316
-0.00110189
-2.85578e-08
2.23154e-07
-9.41362e-08
-2.99456e-09
4.38291e-09
1.99877e-08
-6.30669e-08
9.81328e-07
7.69458e-08
-0.000580039
2.85535e-07
-2.82274e-08
2.72687e-08
-0.000720224
-3.79306e-06
-2.51903e-09
-8.43477e-08
7.85418e-08
0.000421037
-8.18255e-07
0.00333889
-2.25154e-07
-1.84789e-06
-3.30586e-07
-5.36612e-09
9.02247e-08
-2.2606e-07
-1.1391e-07
4.71415e-08
-0.015396
-1.26835e-07
0.000129004
-2.44123e-08
2.80958e-05
3.78391e-07
1.68851e-07
-6.21243e-08
-3.21944e-09
9.34451e-05
2.76748e-08
9.25698e-05
1.19168e-08
-9.22014e-10
0.00271178
8.10831e-08
2.86086e-07
0.00461105
5.67503e-08
-5.06375e-06
-0.00169866
-1.37544e-09
-1.90035e-07
-0.00200208
-4.31158e-08
8.61277e-08
2.25127e-08
1.80385e-07
7.45781e-08
-1.85154e-06
0.0248694
1.41993e-07
-1.15048e-07
-0.00418222
6.04934e-09
-3.04267e-05
2.14143e-07
-9.51451e-08
-0.000109656
-8.11614e-06
2.11067e-08
2.02337e-08
5.54474e-08
-1.70278e-08
3.40376e-09
-0.0119583
-1.1414e-09
3.09033e-07
-1.28358e-08
-1.96293e-06
1.75821e-08
9.00566e-06
-2.99043e-05
1.26341e-07
-0.00295765
-3.80213e-09
-1.08023e-08
6.90501e-08
-0.0027071
-9.49948e-08
3.80302e-09
-3.4403e-08
-1.04421e-07
1.00711e-07
-1.17865e-06
0.0010741
0.00114529
-0.000180744
7.09801e-09
3.91916e-08
-1.51956e-06
8.19691e-08
-2.6744e-08
9.7875e-06
-0.00174499
-1.12058e-07
1.62822e-08
0.000893251
1.81819e-09
6.96198e-09
-0.000597627
-2.02421e-06
0.0186708
-9.97086e-10
-3.21663e-08
0.0014396
3.4399e-08
5.64912e-09
1.9799e-09
2.29588e-07
-3.14744e-09
-2.55277e-08
7.74233e-07
-1.07471e-07
1.25222e-08
-0.000512604
1.22657e-08
3.61516e-09
7.75022e-08
1.39932e-08
6.58151e-08
-7.17924e-08
0.000353272
-8.13643e-08
-0.0120333
-7.18857e-08
1.6521e-07
0.00279517
1.37461e-08
-1.77727e-06
-6.63879e-09
1.4249e-08
5.9081e-09
-1.75434e-06
-1.56232e-08
-3.71545e-08
1.22491e-08
3.64758e-08
-7.12308e-07
6.22265e-09
5.06524e-08
1.7657e-08
1.11251e-08
-2.27167e-07
0.000191185
0.000692281
0.00822485
-0.0135467
-1.29038e-06
1.42306e-07
-0.00299403
0.0104896
2.72715e-08
6.23999e-08
-8.53845e-09
1.1684e-05
0.0178913
-1.7136e-07
-1.13509e-07
-1.55711e-08
8.18019e-08
5.47255e-09
1.04049e-07
0.00155421
0.000147393
3.90304e-05
-6.72007e-07
1.216e-08
2.14694e-09
1.0716e-08
0.00140152
-0.00112405
2.22137e-08
2.6581e-06
6.08869e-11
6.08381e-08
1.36083e-07
-5.49572e-08
5.49429e-08
6.8976e-05
-5.17901e-09
3.66377e-06
1.0523e-08
3.82764e-09
2.47172e-07
-1.36588e-08
1.07327e-08
-8.20941e-07
1.37551e-06
1.23521e-08
-1.72451e-06
-1.54961e-08
-7.3885e-09
2.89127e-08
2.40434e-09
-0.00663444
-1.42868e-07
-6.65749e-08
4.26078e-08
-0.00283268
-1.8154e-05
-9.73234e-10
3.8952e-08
8.84259e-08
0.000104727
-9.08912e-06
0.00196997
-5.03008e-06
-3.78539e-07
-3.28161e-06
-3.11076e-06
7.40106e-09
0.00106848
-1.1124e-08
4.26011e-09
7.41913e-08
-1.55692e-05
7.88902e-08
0.00152578
-2.25625e-08
5.24761e-08
0.00282334
3.33503e-08
5.06247e-08
4.27536e-08
-1.36349e-08
6.47302e-09
9.16533e-05
-2.78292e-06
-3.23963e-08
-0.000123745
1.08702e-06
0.000783396
-0.000342762
-2.66057e-08
0.00157226
-1.18437e-08
2.26997e-07
5.85997e-09
1.01535e-08
-0.00224123
-3.36494e-07
-1.3932e-07
1.06899e-07
0.0015049
-1.1746e-07
-0.0150152
-0.0150182
-7.63531e-10
-2.37808e-08
-9.25726e-08
2.52293e-05
4.93327e-06
-1.81175e-07
3.71548e-08
3.24525e-06
-4.999e-09
-7.13896e-09
4.30964e-08
1.29774e-08
-1.52766e-09
5.8947e-08
-0.00085966
-4.73141e-07
-2.83886e-06
0.000765408
1.33682e-08
0.00145485
1.01762e-06
1.06339e-07
3.4146e-09
-4.31466e-08
1.32383e-09
4.1982e-09
3.78249e-09
0.000764842
1.41822e-06
-0.00356938
-4.50581e-07
-9.06565e-07
4.48151e-08
-1.17398e-06
0.000937299
-5.95998e-10
1.76272e-07
4.75167e-09
-0.000267653
-0.000696106
3.61766e-07
-3.44989e-06
-9.41763e-10
-0.00125593
-7.89648e-08
1.60135e-08
-1.05213e-07
-2.11048e-07
-2.40347e-08
-1.74782e-06
0.00148628
3.2244e-10
0.000788322
0.000911985
0.00190525
0.000733275
-6.27172e-08
0.000324184
7.24944e-07
-1.42356e-06
-0.00249169
-4.45242e-08
-2.34166e-07
5.54816e-09
1.48277e-09
0.000348317
1.16775e-07
-0.000474277
9.1299e-09
2.55454e-08
0.0160855
1.18996e-07
0.00155417
-9.22338e-08
-6.74175e-06
8.60837e-08
3.74248e-09
-0.00253127
2.23111e-07
-1.36575e-06
4.4686e-09
-2.52964e-08
-1.15375e-05
3.93998e-06
-4.70777e-09
-3.85865e-09
-4.39536e-05
-6.39207e-07
2.43217e-06
-1.72207e-09
-3.47952e-08
2.32656e-09
4.91654e-08
2.22094e-07
1.67616e-07
-7.84067e-09
0.00145884
8.6548e-08
-1.21861e-08
1.8969e-07
-0.00112009
-5.98406e-07
1.80368e-07
1.93115e-08
9.03319e-08
-2.55439e-07
4.98827e-07
2.4158e-05
0.00714489
2.51057e-07
-1.82404e-08
-9.93633e-06
5.38773e-08
-1.1828e-07
-0.00287132
4.18517e-09
-8.04071e-07
-0.00533914
0.000106724
-0.000819521
0.00328106
-1.8459e-06
8.39192e-08
-0.0185325
-7.67442e-08
-1.20483e-07
-1.6714e-07
2.36335e-08
1.2309e-08
1.139e-08
5.02544e-08
-3.59301e-07
4.37505e-05
3.39701e-08
-3.54961e-09
-5.35357e-08
0.000110753
1.2351e-06
0.000563484
5.31488e-08
-0.0035484
-2.53959e-08
-5.80178e-07
2.25449e-07
1.09197e-07
0.000649552
1.77157e-08
9.47331e-09
7.2966e-08
-2.84386e-08
0.000714395
-1.94893e-06
-1.01544e-09
0.000622132
-5.32914e-10
0.000202379
-2.66946e-08
-0.000443823
1.18198e-08
3.64821e-06
-9.73499e-09
9.48859e-08
3.43433e-09
3.56851e-08
-4.40583e-06
6.99203e-08
6.49545e-09
-2.149e-07
-0.00129037
0.00289448
-1.21315e-07
0.00754908
-0.0137078
9.90002e-08
0.00161819
2.00464e-08
-6.84282e-06
1.65459e-08
3.92102e-08
7.56677e-08
-4.3722e-08
-0.0131631
-8.99678e-06
1.17659e-07
0.0011417
9.49404e-06
-7.53808e-06
-0.0027284
1.44195e-08
-2.60278e-07
0.000173098
-1.66867e-09
-3.32097e-07
-0.0155051
-1.4479e-06
9.69288e-08
0.00170319
-2.03863e-06
0.000217048
-0.01044
3.62893e-08
-1.60602e-06
1.68294e-07
1.8663e-08
-1.05189e-08
0.000513661
2.01863e-06
2.04195e-06
1.31594e-06
-9.15765e-10
-0.0146164
-4.74368e-07
1.00945e-08
3.90803e-08
-5.74156e-07
7.55565e-08
3.20338e-09
-5.91606e-10
0.000289175
1.87094e-09
-1.52552e-07
0.00141663
8.97722e-09
3.64556e-09
-0.00859714
5.08624e-09
-6.94605e-08
3.04271e-07
3.77338e-07
1.16778e-06
1.17149e-07
-5.40059e-07
1.72567e-07
3.77566e-07
3.09258e-08
-6.71857e-08
1.36108e-06
2.80957e-06
-3.67932e-08
0.000991447
3.50541e-06
-1.03061e-07
-2.82224e-06
0.0153527
-1.75994e-06
1.67916e-08
-8.60149e-09
1.17063e-05
1.16453e-07
-0.00694019
4.62816e-06
1.00617e-07
-0.000180284
-1.75534e-08
-2.27992e-06
0.0244953
9.41611e-08
7.12176e-09
5.04224e-09
9.28198e-09
-0.0121348
-1.39097e-05
1.74312e-07
-2.41668e-06
-4.12577e-05
1.80377e-07
-3.725e-08
1.75143e-07
1.70229e-07
1.0029e-08
1.62721e-08
-0.0021579
1.34913e-07
-4.12795e-06
2.66971e-08
-2.18585e-09
-8.89205e-10
3.01102e-07
-1.62564e-07
-1.06162e-08
-9.70032e-08
9.3574e-08
0.000586065
0.000866723
4.15566e-06
0.00150893
-8.9682e-09
6.07097e-08
-0.000428476
-1.7639e-07
0.00299552
-4.17329e-07
9.56604e-08
8.85247e-08
-9.07027e-08
5.57248e-08
1.57672e-08
-3.51611e-07
-1.847e-06
-0.000713498
-3.00429e-07
-0.00142029
-8.92025e-08
-1.10951e-07
6.39811e-08
-4.01604e-06
0.00098664
-6.62196e-06
7.68745e-06
8.54928e-08
0.0020956
1.39654e-07
-5.28733e-09
-1.31919e-07
8.20569e-08
-0.000635966
5.98371e-09
-2.06126e-06
6.77514e-09
4.35932e-07
-5.42384e-08
0.00033022
6.89269e-08
6.05642e-08
2.26826e-07
1.09876e-08
-9.9297e-07
-4.46833e-06
-0.00154497
5.00846e-08
-1.4534e-08
-0.00184547
-7.46986e-08
8.73176e-08
1.63602e-07
-3.96591e-08
9.04171e-08
2.51818e-09
-0.000639309
-7.55117e-08
5.01156e-08
-4.408e-08
3.06502e-09
0.000643798
-1.35419e-08
1.83393e-07
-1.22507e-08
-3.05011e-09
2.07265e-08
-3.89979e-08
9.73587e-08
-1.29499e-09
-9.65857e-08
6.83983e-09
-9.0244e-08
1.68164e-06
0.0240315
3.64635e-08
-1.41168e-07
0.00355769
3.62263e-09
1.08432e-08
-1.78786e-07
-4.06036e-06
-3.50029e-08
-1.31314e-07
-0.00414214
-5.36734e-08
-0.00364285
0.00106542
6.75744e-08
-1.21467e-07
-1.41451e-07
2.59072e-08
-0.00121469
0.0174831
-0.00242335
8.83415e-08
1.68883e-07
3.05079e-08
1.02768e-06
-8.85814e-08
1.36253e-05
1.04161e-09
-1.55958e-06
0.000115626
-1.73156e-06
1.57383e-07
0.0108044
0.000148493
-0.000788759
2.70822e-08
1.32157e-09
0.000429542
-8.0474e-07
2.95414e-08
-4.63866e-09
2.73236e-05
-1.23214e-07
-1.41179e-06
-4.92981e-07
2.04321e-08
-1.21648e-07
-0.00290883
-1.50769e-06
1.30622e-07
1.28815e-08
-6.16158e-08
-8.60589e-09
-6.715e-06
7.76429e-08
-2.26243e-08
8.52984e-08
1.27314e-07
1.75662e-09
-5.60928e-08
-4.1072e-08
-8.26301e-08
0.00443079
0.000601656
-0.000753823
4.00534e-08
-1.73154e-07
-1.5191e-06
7.57e-08
-6.73686e-08
-1.5099e-07
3.77936e-09
-9.31433e-08
-0.0144212
-8.8949e-08
8.83164e-08
8.06004e-08
3.79662e-08
5.11515e-05
-0.00358169
-3.48586e-08
5.91118e-08
-2.6339e-09
-4.78328e-07
0.00133544
8.08764e-09
2.46795e-07
1.56551e-08
4.14338e-07
2.82808e-07
-8.39467e-05
1.75018e-05
-9.76984e-08
-0.000313971
0.000618176
-4.57051e-08
-3.31815e-09
2.98763e-09
9.64185e-08
-1.88656e-07
-1.03834e-07
3.77816e-08
-2.91007e-06
-5.6942e-08
-1.42138e-07
-1.44869e-07
4.96506e-08
-1.05103e-08
0.00923304
8.64371e-08
2.56583e-09
-7.49576e-06
-1.76337e-07
-0.000495639
0.000656513
1.13761e-08
-4.95643e-06
-0.000335717
3.95748e-06
-7.04439e-08
-9.63386e-08
-3.37192e-09
-0.0122504
-3.25923e-08
4.22293e-08
8.47577e-08
-1.04911e-06
-1.35043e-06
0.00073355
3.57861e-09
-1.02131e-07
6.64661e-08
-1.10362e-05
0.000128195
3.60742e-09
7.67654e-08
-8.83292e-08
3.48275e-10
3.34041e-09
0.000401807
-4.48031e-09
7.59374e-08
5.34102e-08
-0.0142568
8.28101e-10
-5.75551e-10
1.30616e-07
1.09274e-06
9.52302e-08
5.56411e-09
3.59073e-08
-0.0375816
5.5732e-08
-3.76451e-08
4.47065e-08
5.73629e-08
1.02545e-05
-3.11511e-08
-2.80151e-08
0.00210754
-0.000255526
4.5333e-08
-4.82131e-10
-7.64596e-07
2.40678e-07
2.12324e-06
-1.95289e-08
-0.000787986
3.67638e-09
-5.85425e-08
9.90492e-08
0.00218092
0.00153536
-4.85378e-06
-1.5029e-07
0.0016016
-0.000625381
0.0283923
-0.00590348
-1.21772e-07
8.99114e-08
-1.69457e-08
-1.52022e-08
8.75789e-08
5.36221e-08
2.42909e-08
1.30494e-06
7.27548e-08
-0.00163306
6.72026e-08
-0.00414694
5.86068e-08
-0.00309719
1.01657e-07
-6.75563e-08
4.45855e-09
-1.12115e-07
-3.79905e-08
7.04514e-05
-8.75478e-08
3.01002e-08
-8.47421e-08
-0.00396255
-2.49284e-09
-1.24483e-07
3.47947e-09
-1.23973e-07
0.000285023
9.05565e-06
-3.42472e-06
-4.55728e-08
-4.2608e-06
-6.77125e-08
-0.0026383
7.62082e-05
2.66796e-09
-0.0026648
-0.000267185
1.09332e-07
9.26659e-09
-1.14209e-07
4.62457e-08
-1.20582e-07
1.30046e-08
0.00146558
-2.12982e-07
1.39074e-08
1.69475e-08
4.60743e-09
2.43874e-07
2.8884e-05
-9.64957e-05
8.6493e-06
1.09617e-08
0.000358671
-1.75194e-07
-0.00206718
3.83321e-08
-1.72529e-06
-4.75351e-10
-1.00801e-07
-6.80858e-05
1.16446e-08
9.41922e-07
8.46671e-08
-1.23446e-07
0.000620584
-0.0157393
5.00302e-09
0.000420807
-2.12588e-09
-0.00283756
3.21476e-08
-0.0043345
0.000416868
3.23617e-08
-0.00222046
-4.89436e-08
-0.00141654
-1.68515e-08
-1.15383e-07
-8.73519e-09
2.84875e-08
7.79595e-10
-2.72416e-05
1.78063e-08
0.00216608
-9.4959e-07
-0.00408778
5.02564e-08
8.94988e-10
0.00150879
1.55096e-07
-5.59415e-08
1.03787e-07
3.9345e-06
-1.23072e-07
1.0343e-07
0.000736497
1.06851e-07
-2.41111e-08
-2.01083e-09
6.48664e-08
-0.000690983
-1.872e-07
4.44037e-09
-0.00143045
4.14083e-05
-7.07587e-06
3.04042e-08
8.58974e-08
2.91841e-06
-3.01229e-08
1.20208e-07
8.46468e-09
-1.19413e-08
-3.43964e-09
5.38257e-08
-4.16873e-08
1.91172e-07
0.002054
-1.1657e-06
-1.84543e-06
-5.1475e-10
-3.39948e-08
0.0136498
2.73084e-07
-1.00008e-08
4.96848e-08
-6.87418e-05
0.00137415
9.88001e-08
-0.00339395
-1.0108e-07
1.69983e-06
-1.28042e-09
0.00149375
2.04454e-08
1.26357e-07
1.00104e-08
3.74851e-09
2.6976e-09
-0.00117402
1.9608e-08
-0.00194058
-3.66733e-07
-3.7487e-05
-0.0163929
1.09387e-08
5.455e-08
0.0173371
-1.29354e-07
-1.11602e-05
-4.30066e-08
-2.98117e-06
-8.1672e-08
0.00286528
-0.00148124
-0.000746482
4.55536e-08
0.00331381
-0.000710143
-0.00226874
-2.92162e-05
-3.89347e-08
4.63593e-07
6.48811e-08
-0.000199563
-0.00374485
2.14431e-07
-0.00135755
1.0912e-08
-5.30554e-09
2.85127e-07
-0.0108383
-1.0129e-07
-0.00175063
3.73594e-09
-0.0021354
-1.36339e-07
-2.73088e-07
9.63906e-09
1.17734e-07
-1.57053e-05
-6.04587e-09
-1.32544e-07
3.99515e-08
-8.05392e-06
1.67044e-08
2.61426e-10
-0.002814
0.00153334
-9.79258e-08
0.000573068
-1.69939e-07
-3.24358e-08
0.000364498
-0.0019745
3.02545e-09
-0.000140507
7.24173e-09
6.43671e-08
-3.61709e-07
-0.00199989
-5.02783e-08
0.0139619
-1.34329e-07
9.51904e-08
4.56262e-05
5.39588e-08
-1.53484e-06
6.65937e-09
2.41933e-06
-2.14125e-08
4.85237e-05
-6.51852e-09
-2.66948e-07
5.27488e-08
-2.12246e-08
8.20691e-06
0.00169362
-2.06625e-07
-0.00745369
2.01742e-07
-0.00179256
-0.00421682
-0.0011217
2.02254e-08
-0.00170086
0.00506706
-6.73965e-05
-0.000106577
5.64086e-08
3.02955e-08
3.85662e-08
-0.00391679
8.04398e-08
6.46773e-08
0.00699424
1.35216e-09
-0.000939039
-1.26096e-07
-0.00118216
1.09247e-07
1.46922e-09
-3.52245e-06
2.6296e-08
-7.31439e-07
9.04961e-08
-8.67064e-08
3.14743e-07
-0.000270136
1.67133e-08
1.04686e-07
0.00145574
-0.000592516
-4.22128e-10
1.4033e-08
2.37803e-08
-1.23127e-07
-2.16772e-05
0.000952256
0.00321191
3.20202e-07
0.000550763
0.0175405
-1.03919e-05
3.14924e-09
2.02466e-08
-4.72735e-08
-9.72086e-09
8.38907e-08
0.00100193
0.000914499
9.72679e-09
-8.82421e-08
1.35008e-07
-0.000111003
-0.0100055
-0.0213061
-0.000723731
1.01814e-07
-0.00440686
0.00191751
-2.36167e-08
-0.00287808
-4.58169e-07
-3.58554e-08
-0.00369671
-0.00426229
-0.000615804
4.83992e-09
-1.25015e-07
-9.42914e-10
6.61793e-05
4.6564e-08
1.03488e-07
1.72491e-09
8.28496e-09
-1.04593e-09
0.00155587
-8.93871e-08
1.14379e-08
0.00104663
1.11333e-08
0.0010091
6.97214e-08
0.00153466
-0.000203456
3.00416e-09
0.00307124
-6.17932e-06
-4.22488e-06
-8.03771e-09
1.72919e-07
-1.13158e-08
1.72598e-08
0.000229095
-5.24575e-06
9.53126e-08
9.09716e-08
-8.19323e-09
4.28045e-06
-1.26929e-08
-1.47746e-09
1.27541e-08
-2.04888e-08
-0.00232807
3.71271e-09
0.0130619
0.0015934
5.75163e-09
2.95545e-10
0.000613843
2.08258e-08
5.51601e-09
-6.28314e-06
-1.20948e-07
-1.06789e-07
1.39583e-07
-4.75359e-07
0.00361353
-1.22906e-07
4.81605e-09
-7.05348e-08
0.000977276
-0.000307606
-2.18413e-09
2.06961e-07
9.44955e-08
4.0327e-08
-9.23952e-08
-3.14201e-08
-1.01974e-06
2.21699e-07
1.13683e-07
-7.01408e-08
4.05162e-09
1.06753e-07
3.92522e-08
2.02614e-08
2.08302e-06
-0.00597951
-0.00791117
2.10133e-06
0.0125451
-2.29035e-06
-1.1363e-07
0.000518128
-0.00277162
0.0133688
-4.66703e-09
2.72858e-08
1.02759e-06
0.00443561
2.84179e-06
1.06954e-06
-0.0111506
1.01574e-08
4.41856e-08
-0.000668171
1.07609e-08
-5.39607e-06
4.18705e-07
1.23692e-07
0.000199967
0.0137597
9.8657e-10
-0.000184496
-0.00207121
-1.46441e-06
-2.11281e-06
7.87828e-08
0.0292076
1.72889e-05
-0.00446845
7.08234e-09
-1.01763e-06
0.00114393
3.43009e-09
-1.74962e-07
3.68094e-08
-1.34121e-07
7.12503e-08
0.00103654
0.000422484
8.309e-08
1.55911e-07
4.59028e-08
0.00111639
-1.46597e-07
8.18416e-08
7.01167e-08
0.0202905
7.63595e-08
1.54368e-07
5.94959e-07
-2.47824e-06
-7.82086e-08
6.68763e-06
1.00652e-06
-3.10637e-08
-4.68629e-06
-4.26132e-08
-3.54695e-08
2.59913e-07
-4.64477e-08
4.53494e-07
-0.00212549
-1.59725e-05
-2.51215e-08
-0.000404697
0.00189381
-9.94065e-07
0.000114031
-1.5702e-07
1.71029e-07
0.00175607
2.58375e-07
7.71539e-09
6.53659e-08
-1.20967e-06
5.92817e-08
7.75686e-09
1.03199e-08
1.31917e-05
-0.00251541
0.00374522
-0.00335444
1.03201e-08
-1.58277e-08
2.44565e-07
4.16293e-06
0.0018086
5.82918e-09
0.0133256
-7.88628e-08
0.000512577
1.71341e-08
-0.00192119
5.23259e-09
0.000508847
-0.00229954
-9.17848e-07
5.24627e-05
2.0034e-07
1.23436e-08
2.06081e-08
2.8941e-06
0.00340568
1.25185e-07
-8.05836e-09
3.54199e-09
9.33603e-08
8.34647e-08
-8.33154e-10
-8.22517e-08
3.91814e-08
-5.60808e-07
-2.13306e-08
-0.00352198
2.19589e-09
-0.00269166
-1.88615e-08
-5.73804e-06
-8.56031e-05
9.64199e-09
0.000536929
-1.13678e-08
-6.05535e-08
-1.03607e-07
3.27769e-09
1.1542e-07
2.4402e-05
8.38813e-07
2.77523e-08
2.48055e-08
-1.36908e-08
0.00621007
8.69786e-08
7.10044e-07
-6.6172e-06
-1.18704e-09
-5.23246e-07
1.23809e-07
-1.93346e-08
-6.91205e-08
-2.22048e-10
-1.11819e-07
0.000665572
-9.27092e-09
-0.00324185
-3.20103e-08
9.86048e-08
9.35318e-09
0.0013185
-2.09307e-08
0.0017046
1.41177e-06
-1.40101e-09
0.0020967
5.14158e-08
-0.0160835
2.37245e-07
-9.72233e-08
1.26387e-08
8.45945e-08
0.0234194
1.53481e-08
1.20243e-07
4.89002e-08
-2.03193e-06
1.57395e-06
-0.000533644
0.00215251
0.00270971
-8.1125e-08
0.000395605
-1.04367e-07
-0.00260636
7.71577e-06
1.35928e-07
3.1084e-05
-1.43329e-06
-1.29712e-08
3.82937e-07
-2.48799e-08
-1.19794e-08
-7.02188e-08
6.10679e-08
0.00367906
3.46307e-05
-5.21592e-06
-0.00431678
8.63997e-09
0.00596308
-1.60676e-09
-4.34516e-08
-1.12691e-07
0.000466798
-3.79218e-08
0.00143764
-4.11365e-07
-3.52321e-06
-7.04332e-06
6.5917e-08
4.38984e-08
-0.00215164
-1.04948e-07
-8.44054e-08
1.88296e-06
7.39893e-09
7.13524e-09
1.26882e-09
-5.45325e-06
-0.0004554
-4.96602e-08
1.52177e-10
-0.00187814
0.00042696
-1.13279e-08
3.51219e-10
-0.00305007
-0.00198244
-3.32839e-08
-1.02938e-05
-1.10032e-07
7.35161e-08
4.07761e-07
5.76509e-09
0.0185671
-5.5114e-09
0.00326693
0.00264063
0.00310075
-1.09345e-07
1.3094e-08
7.39214e-09
2.57963e-08
0.000866438
4.4151e-08
-0.00118149
-0.000120913
9.21216e-09
8.24541e-09
-2.26867e-08
-3.25835e-05
-5.51506e-06
-6.81421e-07
-0.00247678
1.38465e-07
0.0130105
1.47506e-07
0.00222722
4.05442e-06
2.41009e-07
1.1869e-05
0.00391173
0.00122052
1.09066e-07
-2.868e-05
1.86684e-08
0.00210017
1.31716e-05
-2.19257e-06
-4.84139e-10
-2.55727e-08
1.30405e-08
6.07935e-05
0.00348841
1.20072e-07
-5.5036e-08
0.00362839
-0.00232833
6.04244e-08
-0.0015832
-0.000496407
-0.0304622
3.44177e-09
0.00355429
1.52087e-08
0.00113264