/*--------------------------------*- C++ -*----------------------------------*\
| =========                 |                                                 |
| \\      /  F ield         | OpenFOAM: The Open Source CFD Toolbox           |
|  \\    /   O peration     | Version:  v2012                                 |
|   \\  /    A nd           | Website:  www.openfoam.com                      |
|    \\/     M anipulation  |                                                 |
\*---------------------------------------------------------------------------*/
FoamFile
{
    version     2.0;
    format      ascii;
    class       volVectorField;
    location    "550";
    object      U_0;
}
// * * * * * * * * * * * * * * * * * * * * * * * * * * * * * * * * * * * * * //

dimensions      [0 1 -1 0 0 0 0];


internalField   nonuniform List<vector> 
18355
(
(1.10054 0.0785712 -4.83816e-21)
(0.0928376 -0.0162878 -1.22634e-20)
(1.00454 0.0223116 -6.39962e-21)
(1.015 0.00462905 0)
(1.04269 -0.005908 -2.71382e-21)
(1.14468 -0.0663336 5.69084e-20)
(1.00412 0.0070235 -4.33421e-22)
(1.15621 0.0191927 -2.53082e-20)
(0.939287 -0.00517561 -3.87538e-20)
(0.0323191 -0.0112273 -6.75411e-20)
(1.02156 0.000283252 0)
(-0.260096 -0.0110287 0)
(1.19124 0.0122448 6.60184e-20)
(0.98755 0.00599783 0)
(1.02667 0.0336617 5.49609e-21)
(0.989588 0.0706197 -4.0972e-21)
(-0.268583 0.0118645 0)
(1.01563 0.00978731 0)
(1.00606 0.0358945 3.42547e-21)
(0.593599 -0.0857237 9.95043e-21)
(0.970649 0.0883204 4.90803e-21)
(0.976128 0.0351624 4.88953e-23)
(0.14831 -0.0305256 -3.71206e-23)
(1.04195 -0.00624519 0)
(1.0502 -0.0231084 0)
(0.999369 0.004394 6.35601e-22)
(0.996231 0.000582624 -9.17648e-21)
(0.943345 0.00759011 -1.66547e-21)
(0.0519507 0.215501 2.27601e-20)
(0.994442 0.0250427 1.10301e-20)
(1.03515 -0.00622103 0)
(1.04882 -0.0106682 -7.23e-21)
(1.01541 0.00937095 -2.7993e-21)
(1.00998 0.000538253 -3.97257e-22)
(1.14067 0.125125 -2.63123e-20)
(1.10453 0.0784482 1.20492e-20)
(0.955567 -0.00188449 -6.29229e-23)
(1.1935 0.264037 8.64762e-20)
(0.945105 0.0087265 0)
(1.02212 0.000769899 2.11853e-21)
(0.986939 0.00587911 -1.28663e-21)
(0.95028 0.323289 0)
(1.00449 0.0229779 6.08205e-21)
(-0.0333472 -0.0063632 0)
(1.0146 -3.46977e-05 1.68697e-21)
(1.20423 0.263184 -1.01928e-19)
(1.14849 0.0694467 -5.42245e-20)
(0.936114 0.0274107 0)
(1.1364 0.0711934 0)
(1.01517 0.0108758 1.51742e-21)
(1.01928 0.002365 -3.39403e-21)
(1.01735 0.0214984 -4.88213e-22)
(0.999991 0.00056677 -2.42938e-22)
(0.294474 -0.0408825 -2.03392e-20)
(1.00061 0.00628153 2.04249e-21)
(1.00192 0.000304359 -1.54349e-22)
(1.0988 -0.145581 6.63345e-22)
(1.02655 0.0345636 3.48303e-21)
(0.116551 0.466906 -1.26938e-19)
(1.22719 0.12577 -9.98609e-20)
(1.01478 0.0109921 5.44144e-22)
(1.14576 -0.0302395 -4.13747e-20)
(1.01658 0.00895957 1.00818e-21)
(1.02261 0.194721 -5.99557e-21)
(-0.243368 -0.0140507 0)
(1.09815 0.0750234 3.98493e-21)
(0.0511007 0.178447 0)
(0.858342 0.0570648 2.09706e-20)
(0.996513 0.000651729 -7.55579e-21)
(0.977748 0.0353655 0)
(1.16333 0.094385 5.43789e-20)
(1.00007 0.000475284 -1.93374e-21)
(1.23334 0.129441 4.12606e-20)
(1.01177 0.0111613 5.44555e-23)
(1.15617 0.0226249 -6.97087e-20)
(1.00429 0.00726206 -1.64555e-21)
(0.650163 -0.0682132 3.3979e-20)
(1.04998 -0.008103 7.57696e-21)
(1.06075 -0.0304959 0)
(1.01666 0.0188108 0)
(1.00383 0.00688241 -1.70465e-21)
(1.26017 0.354847 4.44765e-20)
(0.97254 0.0859734 0)
(1.07103 0.181412 6.88708e-21)
(0.999266 0.00453837 -1.57499e-21)
(1.18852 0.0131694 3.01648e-20)
(0.206068 0.0192613 -1.61439e-20)
(0.607168 -0.0878548 -9.03855e-21)
(0.0387446 0.222152 -1.6092e-20)
(0.277653 -0.033907 1.00275e-20)
(1.21206 -0.0614285 7.67805e-20)
(1.01476 -6.7834e-05 -6.45019e-22)
(1.0001 0.00580267 -8.03994e-21)
(1.01839 0.00034825 0)
(-0.00574188 0.165455 0)
(0.117249 -0.0278305 4.76593e-20)
(1.02567 0.0146095 -1.77186e-21)
(1.07239 -0.00456143 0)
(0.256164 -0.0379355 -4.11915e-20)
(-0.19666 0.0138689 -4.16531e-20)
(0.00472577 0.252581 0)
(-0.220514 0.010892 0)
(1.10344 0.135084 1.47103e-21)
(1.12691 -0.063926 4.77419e-20)
(1.04158 -0.0107071 -5.25641e-21)
(1.17731 -0.038524 0)
(-0.318855 -0.00528568 0)
(1.1381 0.30563 0)
(1.10454 0.0216101 -2.93901e-21)
(0.48377 -0.30139 -2.29643e-19)
(0.998876 0.0241883 0)
(0.951762 0.019305 8.8456e-21)
(0.999096 0.00385803 -4.4194e-21)
(0.949504 0.0186862 0)
(0.274648 -0.0418403 3.23701e-22)
(1.00305 0.000826112 4.90589e-22)
(0.0692121 -0.291882 -5.9854e-21)
(0.645297 -0.0705759 -6.98993e-20)
(0.0758199 0.358279 0)
(1.09932 0.140026 3.39507e-20)
(0.0418294 -0.0122701 5.69076e-20)
(1.36962 0.0837975 0)
(1.04905 -0.00857323 7.71261e-21)
(1.16325 0.097758 -4.05435e-20)
(1.02504 0.0147586 1.70436e-21)
(1.13919 0.317288 -3.3236e-20)
(1.0177 0.0208773 7.49206e-22)
(1.00002 0.00107465 8.04382e-22)
(1.40049 0.233743 1.89376e-19)
(1.01816 0.000433117 -1.23586e-21)
(1.01929 0.00259279 6.91375e-21)
(1.1812 -0.0455126 -9.33121e-20)
(1.13203 -0.0100388 3.12046e-20)
(1.07095 -0.00536457 0)
(0.918355 0.191588 2.15888e-20)
(1.00002 0.00122751 8.15663e-22)
(1.02307 0.026813 -2.85765e-21)
(1.02158 4.3279e-05 0)
(0.99234 0.0150108 0)
(1.16898 0.166331 4.34106e-20)
(0.00335025 0.253498 1.74944e-20)
(-0.0260595 0.235684 -5.63709e-20)
(1.00012 0.0475918 0)
(0.998418 0.0234324 0)
(0.379353 0.0375687 7.31771e-20)
(0.976077 0.0317182 1.56275e-20)
(0.910171 0.00551053 -2.10409e-20)
(0.160338 0.0545923 -7.52756e-21)
(1.06182 0.0073132 0)
(0.138571 0.0645986 8.7247e-21)
(1.04294 -0.000190665 5.30608e-21)
(0.975483 0.0328622 -2.9811e-22)
(1.13558 0.123401 0)
(0.109722 0.419725 -1.12982e-19)
(1.11774 -0.0957809 2.42948e-21)
(1.00004 0.000506145 -3.61054e-21)
(1.19526 -0.0444828 3.30363e-20)
(0.0845282 0.326101 0)
(1.00005 0.000515598 0)
(1.15206 -0.0286408 0)
(1.01505 0.103202 4.08994e-22)
(1.05264 0.0601382 1.05085e-20)
(0.910184 0.0960221 0)
(1.07186 -0.00766958 0)
(1.16251 -0.15504 -2.08168e-20)
(0.505595 0.686144 3.21595e-20)
(0.180978 0.0538495 5.17497e-20)
(1.12728 0.0830587 3.78376e-20)
(1.22489 0.000314174 0)
(1.0139 0.0108263 0)
(-0.0871639 0.215393 5.35618e-20)
(0.0809667 -0.0253016 -2.80262e-20)
(1.02057 0.000907878 0)
(1.02132 0.000859571 -2.28505e-22)
(0.992308 0.0698312 0)
(0.103281 -0.0104415 0)
(1.079 -0.0907404 1.55363e-20)
(1.00047 0.00587475 -4.28641e-21)
(1.39402 0.231288 -5.25454e-20)
(0.405829 0.19682 -1.08195e-19)
(0.665346 -0.108637 -7.5439e-22)
(1.22339 -0.00182592 0)
(1.08544 0.0036552 2.36376e-20)
(1.00557 0.00659028 0)
(1.18671 -0.131718 -2.90502e-20)
(0.124734 -0.0129571 2.2225e-20)
(0.250117 -0.0337293 -3.74273e-20)
(1.20394 -0.0547288 6.27731e-20)
(0.938711 0.00755666 -2.72323e-20)
(-0.288322 0.00929551 -4.1331e-20)
(1.09478 -0.14382 0)
(1.00502 0.0243838 0)
(1.0706 -0.00844001 8.85751e-21)
(1.06515 -0.0724081 2.73649e-20)
(0.897485 0.213946 0)
(0.978308 0.038165 -9.35636e-21)
(1.27864 -0.0269628 -1.73681e-20)
(1.08401 0.00242533 -2.07534e-20)
(1.11337 -0.0128198 3.89291e-20)
(1.02108 0.00104839 0)
(1.05408 0.014141 -4.88129e-21)
(0.943434 0.0470023 0)
(0.118738 0.0659694 2.87954e-19)
(0.215118 -0.0300567 2.38111e-20)
(-0.295574 -0.00370801 0)
(1.00053 0.11521 4.39515e-22)
(0.0854503 -0.260882 -2.15268e-20)
(-0.0911492 -0.00839685 1.3255e-22)
(-0.0567618 -0.030754 4.96772e-20)
(1.11134 -0.0146594 -4.49795e-20)
(1.02248 0.0277689 0)
(1.04222 0.000297917 6.07775e-21)
(0.565294 -0.0693952 5.83768e-20)
(1.00039 0.0459742 0)
(1.01346 0.0106244 -3.37056e-22)
(1.25993 0.343059 0)
(1.05539 -0.198926 1.59196e-20)
(0.551495 -0.0672303 0)
(0.99916 0.0036583 0)
(1.06058 0.00781546 0)
(1.29589 0.231866 3.67383e-22)
(0.993935 0.0162216 -1.2408e-21)
(1.06498 0.178603 0)
(1.02299 0.026136 0)
(0.0882065 0.0461499 -2.5942e-19)
(0.986072 0.036484 0)
(-0.133715 0.00279869 0)
(0.147828 -0.00946433 -2.01669e-20)
(0.547818 0.0121133 0)
(1.02158 0.0278314 1.55129e-21)
(0.999999 0.000719065 0)
(1.05931 -0.0292098 -7.84154e-21)
(1.0348 0.0896952 1.0361e-20)
(-0.101817 0.00501673 1.27058e-19)
(1.01743 0.0555952 0)
(0.999546 0.00480134 3.81521e-21)
(1.00039 0.0057107 4.85888e-21)
(1.17177 0.31482 -4.48789e-20)
(1.24077 -0.0824934 1.99244e-20)
(-0.214948 0.00198444 0)
(1.10182 0.0212542 2.24198e-21)
(1.22842 0.00650891 3.70719e-20)
(1.03527 -0.00740711 6.42413e-21)
(1.01303 0.0112712 -2.31274e-22)
(0.983113 0.036989 0)
(0.122512 -0.00522706 -1.30493e-20)
(1.34485 0.0612125 2.56815e-20)
(0.0660838 -0.0960885 -8.19442e-20)
(1.11415 -0.0956689 4.37465e-21)
(1.0169 0.0998698 -5.14235e-22)
(1.05373 0.0151972 -4.72779e-21)
(0.210727 0.83613 -1.55641e-20)
(1.0855 -9.28611e-05 0)
(-0.0239855 -0.0308263 1.01023e-19)
(0.991266 0.0358108 -4.7951e-21)
(-0.233262 0.0100495 1.83728e-19)
(0.935812 -0.184279 0)
(1.15335 -0.0255944 2.63856e-20)
(1.00009 0.0288537 6.63885e-21)
(1.00612 0.000408073 4.01909e-22)
(1.09417 0.075501 -3.46571e-20)
(1.17275 0.0902944 4.37936e-20)
(0.24405 0.104027 -2.03074e-19)
(1.13496 -0.00995135 1.11385e-20)
(1.00847 0.00643789 3.0197e-22)
(1.01292 0.00980763 -7.56409e-22)
(0.999986 0.000845858 -4.36484e-21)
(1.22874 -8.42212e-05 4.71793e-20)
(1.09687 0.262714 0)
(0.587113 -0.0345298 1.36792e-19)
(0.984442 0.0537636 8.97241e-22)
(0.136245 0.135776 0)
(1.2066 -0.0545364 -3.86265e-20)
(1.17565 -0.0363161 5.8751e-21)
(1.0389 0.0268433 -4.68676e-21)
(1.28065 -0.0250803 1.57367e-20)
(1.01727 0.0194987 0)
(0.996199 0.0100884 -1.19163e-20)
(1.09093 0.844245 -5.05069e-20)
(1.00891 0.000649117 2.36936e-22)
(1.0043 0.00755943 -1.86596e-21)
(1.1784 -0.0316633 0)
(1.00359 0.0164028 -1.11113e-21)
(-0.0231853 0.215971 0)
(1.08432 -0.0012891 6.29877e-21)
(0.926871 0.0181318 4.83449e-20)
(1.00859 0.000641822 1.1833e-22)
(1.12647 0.0868205 -4.42643e-20)
(-0.254355 -0.010639 -5.08864e-20)
(1.04963 -0.00995695 9.28551e-21)
(1.01459 0.00445835 0)
(0.989439 0.000638084 -1.53239e-20)
(1.17994 -0.0620343 9.16589e-20)
(0.152708 -0.0256096 4.37678e-20)
(0.999987 0.000899949 0)
(1.00002 4.76492e-05 9.02064e-22)
(1.00564 -0.190832 0)
(1.11379 0.134446 -9.83995e-22)
(1.11108 -0.101632 0)
(0.63902 0.407318 0)
(0.996412 0.0096764 -8.44165e-23)
(1.16794 0.0893328 -2.04845e-20)
(0.964772 0.0300827 -5.6776e-21)
(1.00003 8.43282e-05 0)
(0.637935 0.376882 0)
(1.16621 -0.156535 -4.95269e-20)
(1.14955 -0.21031 -2.14248e-20)
(1.18232 -0.0637746 -4.9778e-20)
(1.01822 0.000727192 0)
(0.646703 -0.106931 0)
(1.0398 -0.0107297 0)
(1.0049 0.0354108 -1.83044e-21)
(1.3724 0.0700733 0)
(1.00097 0.0217271 3.28563e-21)
(1.23071 0.00245216 4.5478e-20)
(0.935594 0.319212 -2.25631e-23)
(1.00014 0.00603336 0)
(1.01666 0.00291032 -1.206e-21)
(1.23069 0.00928347 0)
(0.0325093 0.0379269 4.52452e-22)
(-0.049606 -0.0113795 -8.81459e-20)
(1.01941 0.039354 1.5578e-21)
(0.914395 0.0921518 2.16421e-20)
(-0.0468349 -0.00542797 -3.05629e-22)
(1.02872 0.000830967 4.36112e-21)
(1.23886 -0.0791462 -1.8186e-20)
(1.05489 -0.0313271 2.02879e-20)
(0.965201 0.146054 1.2411e-20)
(1.23419 -0.0779367 -1.18226e-21)
(1.01794 0.000810688 1.16557e-21)
(0.503278 0.742412 5.36643e-20)
(1.00299 0.0335952 0)
(0.914706 0.202761 1.0393e-20)
(1.00118 0.000318482 -1.51138e-21)
(1.11142 -0.0989415 1.25982e-20)
(-0.254361 -0.00423276 9.26858e-21)
(0.999948 0.000207149 3.14657e-22)
(0.134715 0.105755 0)
(1.11564 0.0218893 1.75483e-20)
(0.995229 0.00329078 -1.0071e-20)
(1.14481 0.0712624 4.51795e-20)
(1.14653 -0.0333061 7.83991e-20)
(1.0804 -0.0614245 -2.73779e-20)
(0.321997 -0.0466787 3.14699e-20)
(1.12562 -0.0703028 2.4714e-20)
(0.991544 0.0348997 0)
(1.01636 0.00863462 -1.4247e-21)
(0.0941872 -0.034487 -2.48105e-20)
(0.698782 -0.0682881 0)
(0.999854 0.00557941 -2.5221e-21)
(1.01416 0.0520094 -9.20674e-22)
(1.15649 -0.215991 -3.35633e-23)
(1.1852 -0.134711 -2.86775e-22)
(0.26646 0.737235 0)
(0.126068 -0.0391864 4.57693e-20)
(0.998088 0.00470679 -1.01616e-20)
(1.06042 0.0172014 -1.41137e-20)
(0.0465475 -0.149271 -2.07678e-21)
(0.999589 0.0242202 4.23561e-21)
(1.01688 0.0538932 1.17976e-23)
(1.21144 -0.0456974 -5.2622e-20)
(1.11043 -0.0194325 6.41105e-21)
(1.06126 -0.00424067 0)
(0.047709 0.0638891 -1.76829e-20)
(1.00001 0.000659452 0)
(0.831638 0.171256 -3.52171e-20)
(1.30032 0.23809 4.71133e-20)
(-0.232245 -0.00295867 0)
(1.01446 0.00415944 2.28404e-21)
(0.986526 0.0231068 -2.78598e-21)
(0.993771 0.0124973 -3.6186e-21)
(1.02358 0.0161211 -2.59091e-21)
(0.836766 0.262035 0)
(1.02413 0.0159361 -3.24696e-21)
(1.11748 0.0943742 2.38521e-20)
(0.994103 0.012133 2.69156e-21)
(1.03762 0.0699977 5.83404e-21)
(0.998109 0.00454179 4.48456e-21)
(0.941007 -0.00320666 1.89423e-20)
(1.03243 0.00885107 2.76443e-21)
(1.0111 0.0359923 8.29507e-22)
(1.03104 0.0100144 -1.4652e-21)
(1.03101 0.00963016 5.93837e-22)
(0.999812 0.0663449 0)
(0.564194 0.123175 9.43414e-20)
(-0.0854339 0.186813 1.88508e-20)
(1.0241 0.0258532 0)
(0.944006 -0.0670652 6.57639e-20)
(0.951249 0.158858 4.24109e-21)
(-0.0894734 0.197665 -3.19052e-20)
(1.10079 -0.00459127 4.86002e-21)
(1.17979 0.0475944 -2.09175e-20)
(0.981635 0.0377938 2.13021e-21)
(1.02738 -0.0604798 0)
(0.95755 -0.00183048 6.30046e-23)
(1.00289 0.000685343 -5.4924e-22)
(0.999447 0.00495551 -8.39301e-21)
(1.01681 0.00445138 0)
(0.283903 -0.0411501 4.12865e-20)
(1.06141 0.0412498 0)
(1.01497 -7.56235e-05 1.01016e-21)
(1.1316 0.0172045 -6.15937e-20)
(1.11325 0.0939242 -1.48755e-20)
(0.999909 0.0250696 0)
(1.0286 0.000386838 0)
(-0.0649359 0.0083492 -5.80972e-20)
(0.978678 0.0365475 2.11549e-21)
(1.01703 0.020045 1.63608e-22)
(0.137055 -0.651606 -6.58749e-21)
(1.00397 0.0151046 2.02226e-21)
(0.0532801 -0.0675721 2.01131e-19)
(-0.2714 0.00646635 2.71205e-20)
(1.21096 -0.0473584 7.0251e-20)
(0.913716 0.00390353 6.35327e-22)
(1.04076 -0.0111872 4.98125e-21)
(-0.225143 -0.0135067 4.2292e-20)
(1.00011 0.000596856 -1.39548e-21)
(0.999222 0.0163652 -3.36119e-21)
(0.202553 0.671739 0)
(1.00003 0.000704086 0)
(1.02033 0.00113512 1.12616e-21)
(-0.285782 0.00937069 4.75272e-20)
(1.01216 0.0110292 -1.52006e-22)
(-0.239592 -0.00464588 -1.70744e-20)
(1.09382 -0.0553772 0)
(1.08889 -0.0947743 -3.19807e-21)
(-0.253629 0.0110282 7.52959e-20)
(0.96456 0.0259867 2.24481e-20)
(0.999533 0.01595 -8.91037e-22)
(0.714119 -0.0786872 0)
(1.14161 -0.0679641 -1.24892e-20)
(-0.0896038 0.214709 -2.18087e-20)
(1.1295 -0.0634336 2.65134e-20)
(0.994276 0.0110235 1.43921e-21)
(1.00529 0.00652382 -1.77057e-21)
(0.974889 0.0298997 1.74648e-20)
(0.993128 -0.151106 0)
(0.956874 0.206211 -3.8012e-21)
(1.00615 0.0371141 -3.71562e-21)
(1 0.000471606 6.12082e-22)
(0.998887 0.0449235 7.01402e-21)
(0.824065 0.180286 -1.93632e-21)
(0.0656301 -0.168579 -5.67053e-20)
(0.993409 0.106235 3.9161e-21)
(0.975704 0.0284961 -1.12634e-20)
(1.00001 0.000656486 3.68316e-21)
(1.09945 -0.0026738 -8.36889e-21)
(1.21653 -0.0652865 9.5067e-21)
(0.169178 -0.0277527 -4.40659e-20)
(-0.229999 0.0098448 5.9798e-20)
(0.975755 -0.05459 -4.02401e-21)
(0.772766 0.143146 -5.99159e-20)
(0.847366 0.188284 1.20797e-22)
(-0.00686772 -0.0084726 -7.94861e-20)
(1.03848 2.16957e-05 -1.05478e-22)
(1.00877 0.00908731 1.68528e-22)
(0.989651 0.000113849 -4.20096e-21)
(1.02406 0.0248897 0)
(0.821468 0.248251 -2.94565e-20)
(0.996567 0.00807072 -4.46181e-21)
(1.01491 -9.87669e-05 -4.58736e-24)
(-0.214636 0.0103978 4.13844e-20)
(0.812817 0.178737 3.34731e-20)
(1.14055 0.0686308 -1.31013e-21)
(0.313819 -0.037841 -3.53964e-20)
(0.760572 0.146345 -3.52439e-20)
(0.100597 -0.00795704 0)
(1.01301 0.0263367 -2.32574e-22)
(1.03164 0.00882737 -4.74571e-21)
(0.995561 0.0225326 -2.59902e-21)
(1.00369 0.00650201 2.77303e-21)
(1.00001 0.000324123 -1.27031e-21)
(1.00001 0.000530675 -4.1064e-21)
(0.996234 0.00917879 -2.24952e-21)
(-0.0246811 0.234174 0)
(1.02068 0.0391224 -1.37746e-21)
(1.01793 0.00172914 7.49804e-22)
(1.34578 0.0806334 9.50338e-20)
(1.22932 0.109737 -4.4825e-20)
(1.00846 0.00909785 -8.81098e-23)
(1.04976 -0.00391093 1.45145e-20)
(0.932571 0.259231 -1.38566e-20)
(1.02484 0.850431 5.78843e-20)
(0.992516 0.0671415 0)
(1.02681 0.0133558 0)
(1.06795 -0.0621725 5.32231e-20)
(0.946255 0.0455976 -1.17379e-20)
(0.15646 0.155343 2.91095e-20)
(1.05421 -0.0328389 -1.86525e-20)
(1.02371 0.0170161 3.20744e-21)
(-0.185145 0.00048519 0)
(1.23101 0.10585 0)
(1.01451 0.00795123 0)
(0.0153817 -0.0308487 8.43558e-20)
(-0.0117748 0.245124 5.57847e-21)
(-0.0242704 0.0304976 -1.11059e-19)
(1.0231 0.0172246 1.64688e-21)
(1.02636 0.0128735 0)
(1.0322 0.0872738 -1.04456e-20)
(1.17589 -0.0681602 -4.2416e-20)
(0.964643 0.0185954 -4.29747e-22)
(0.152878 0.135712 0)
(1.04312 -0.156011 0)
(0.99801 -0.0647651 -5.36005e-20)
(1.36054 0.159847 -2.42823e-20)
(1.01701 0.00423754 -1.3165e-21)
(1.09123 -0.0560584 0)
(0.165269 -0.0232184 0)
(0.112829 -0.0283974 6.29345e-21)
(0.441255 -0.0682589 0)
(0.978861 0.0264776 0)
(0.985665 0.101257 -5.73038e-21)
(1.01033 0.102624 -3.27434e-22)
(0.0314869 -0.0132396 0)
(-0.219708 0.00963971 0)
(1.21439 -0.0601393 -7.63489e-20)
(0.987473 0.037113 0)
(0.992862 0.0146322 0)
(0.998216 0.00304452 0)
(0.952455 0.210799 -1.05282e-21)
(0.996454 0.00881772 6.11436e-21)
(0.779507 -0.0851478 7.52895e-21)
(1.00882 0.105403 -7.5087e-22)
(0.308717 -0.0473864 0)
(0.986141 0.0155659 -4.80218e-21)
(0.999221 0.0435749 -6.79296e-21)
(1.00609 0.000556073 -1.14997e-21)
(0.864847 0.0576507 0)
(1.03316 0.13031 -1.69984e-22)
(1.21517 -0.0680731 -4.73977e-20)
(1.00287 0.0143511 -4.4166e-21)
(1.16862 -0.0511121 0)
(0.977384 0.872291 4.3263e-20)
(1.07466 -0.0313286 -3.2296e-21)
(1.00105 0.028822 -2.06631e-22)
(0.942022 0.0397751 8.4156e-21)
(1.06759 -0.038791 -2.33041e-20)
(1.00002 0.000702886 0)
(1.10603 0.0411531 -1.01368e-20)
(1.11254 -0.0176404 2.78003e-20)
(1.07477 -0.0295419 0)
(1.22968 0.152671 0)
(1.01484 0.0534379 1.11789e-21)
(1.0144 0.00752743 0)
(0.990301 4.18215e-05 3.7435e-21)
(0.999971 0.000164128 0)
(1.12146 0.088148 0)
(1.06026 -0.00525581 1.09699e-20)
(1.14822 -0.0280554 0)
(1.0127 0.0255228 0)
(1.04198 -0.00712039 0)
(0.0501092 0.20393 1.65713e-20)
(1.01766 0.00112177 0)
(0.848615 -0.023543 0)
(0.960322 0.0196719 -1.7841e-20)
(1.20708 0.222881 -5.2264e-20)
(0.929805 0.0186398 -1.59408e-20)
(0.270025 -0.0403626 -6.40261e-20)
(1.04717 0.0222478 0)
(-0.0840512 0.000999645 0)
(0.929324 0.060429 0)
(0.936686 0.0302872 1.48037e-20)
(0.919981 -0.17621 0)
(0.0104125 0.210433 -1.88269e-20)
(1.08299 0.0587083 0)
(1.07236 -0.0326996 -1.65748e-20)
(1.05994 0.0398091 -1.12403e-20)
(1.02327 0.0181436 -2.5688e-21)
(0.994006 0.0143194 0)
(1.13921 -0.109603 -2.06158e-20)
(1.14009 0.0821068 2.24227e-20)
(0.976216 0.147444 4.58155e-21)
(1.08194 0.271103 1.59026e-20)
(-0.0215783 0.236176 5.4833e-20)
(1.15207 -0.167794 4.50403e-20)
(1.00505 0.000523823 -9.82536e-22)
(0.0086043 -0.0143683 5.14146e-20)
(1.13064 -0.0488462 4.37721e-20)
(1.04969 -0.00599516 1.18233e-20)
(0.993531 0.014583 -1.07574e-21)
(0.846961 -0.0172296 0)
(0.240581 -0.0311028 -5.02173e-20)
(1.09234 0.079022 1.42663e-20)
(1.0001 0.0021304 0)
(0.701252 0.0401243 -7.15682e-20)
(1.22276 0.153547 0)
(1.14202 0.132705 7.02082e-20)
(0.874164 0.0522858 4.4952e-20)
(0.625783 0.800144 -5.15249e-21)
(1.07289 -0.00228635 0)
(1.17735 -0.0255474 0)
(0.0244419 -0.0068732 0)
(1.23362 -0.0736329 -4.3373e-20)
(1.36965 0.0784775 0)
(0.835105 0.218197 4.6155e-21)
(1.16044 0.31186 4.58726e-20)
(1.084 0.00725258 -2.39851e-20)
(1.00181 0.000377883 0)
(1.05034 -0.00668112 -3.16774e-20)
(0.995067 0.0241884 -1.19058e-20)
(0.407264 0.0247065 -3.44604e-21)
(0.472147 -0.242682 0)
(0.127101 -0.0144774 0)
(0.584136 0.120588 0)
(-0.201347 -0.0178611 -1.04585e-19)
(-0.034223 0.096879 0)
(0.713748 0.0315464 4.72855e-20)
(0.989052 0.073485 6.517e-21)
(0.0797396 -0.0109979 0)
(0.725914 0.0454076 -1.62011e-19)
(1.02201 0.000473097 0)
(0.54772 0.0883432 -8.17589e-20)
(0.0344243 0.234889 -3.38633e-20)
(1.17459 -0.0353241 -8.51901e-20)
(0.997513 0.108047 3.83176e-21)
(1.01607 0.00330125 0)
(1.07191 -0.0012063 4.09705e-21)
(1.06978 -0.0115616 -2.03915e-20)
(1.06568 -0.0389241 2.02873e-20)
(1.18013 0.00672551 3.89175e-20)
(1.00138 0.022342 -1.80607e-21)
(-0.0703281 0.000349619 0)
(0.997556 0.0675264 5.92271e-21)
(0.971842 0.0798307 1.58361e-20)
(0.0434101 -0.0141446 1.47313e-22)
(1.0107 0.0243963 1.09469e-21)
(1.03111 0.13561 -9.7846e-21)
(0.492104 -0.0778992 -6.73317e-21)
(0.99929 0.0151694 8.5236e-22)
(1.0446 0.0406471 -6.55493e-21)
(0.0228913 -0.0389381 -6.3899e-20)
(1.00997 0.00283861 2.04819e-22)
(1.16763 -0.0530845 0)
(1.01795 0.00105771 1.60349e-21)
(-0.0331594 0.173165 0)
(1.07242 -0.0343205 2.33531e-20)
(1.10143 -0.042235 -5.67551e-21)
(0.97064 0.150088 0)
(1.05699 0.0663419 -7.00109e-21)
(1.17463 -0.0657984 4.36657e-20)
(0.920406 0.00124972 0)
(0.159088 0.0878832 -2.14765e-21)
(1.12132 -0.0891008 -1.929e-20)
(1.03555 -0.00357055 0)
(-0.109279 -0.00659338 1.67308e-22)
(1.10155 -0.0445339 6.70692e-21)
(0.555948 0.809068 -2.19219e-20)
(-0.315059 0.00548681 -1.91954e-19)
(1.32383 0.0848506 -9.24574e-20)
(1.21136 -0.0640006 -4.58912e-20)
(0.998533 0.0227907 -3.51889e-21)
(1.01769 0.00507136 -2.20329e-21)
(-0.0137337 0.245179 -1.06338e-20)
(0.939908 0.0415119 -1.04851e-20)
(1.10858 0.0400597 4.52038e-21)
(1.00005 0.00158473 6.31695e-21)
(1.0855 0.00623958 3.04286e-20)
(1.01696 -0.0506812 0)
(0.53752 -0.0525465 3.66577e-20)
(1.12094 0.0918807 8.52026e-21)
(-0.0945356 -0.00310475 2.05153e-20)
(0.821794 0.234817 2.23219e-21)
(1.01766 0.0680326 1.90816e-23)
(1.01631 0.00351834 1.32375e-21)
(1.00011 0.00193474 0)
(1.13475 0.0172887 8.86678e-20)
(1.09993 0.255719 0)
(1.027 0.00673171 4.20165e-21)
(1.20722 0.078603 0)
(1.0015 0.119699 8.15898e-22)
(1.11004 0.137103 -5.03796e-20)
(1.01386 5.22618e-05 1.61642e-21)
(-0.0235012 -0.0300235 -1.13654e-19)
(-0.100604 0.00647766 3.1692e-20)
(0.993606 0.0248233 1.09917e-20)
(1.02182 0.000973374 -2.86414e-22)
(1.13895 -0.0734321 0)
(1.00005 0.00141916 -5.47036e-21)
(1.01496 0.00813685 -8.43894e-22)
(-0.0577402 0.100034 1.29865e-20)
(0.54893 0.105093 -1.00522e-19)
(0.969041 0.0276299 5.05566e-21)
(0.99448 0.0149845 -8.62788e-21)
(1.13379 -0.146464 2.8669e-20)
(1.13611 0.0751252 0)
(1.06023 -0.0323603 -8.54158e-21)
(0.709568 -0.0581922 -3.65848e-20)
(1.01159 0.0350515 1.52966e-21)
(0.184331 -0.0268936 0)
(1.13131 -0.0281875 1.0285e-20)
(0.984559 0.0342396 -6.03171e-21)
(0.433923 0.167111 1.20828e-19)
(0.0708712 -0.0251238 0)
(1.00402 0.00802767 -2.40782e-21)
(0.598483 -0.0553106 -3.67088e-20)
(1.01524 0.00450545 -3.6169e-23)
(0.999563 0.0148511 0)
(0.96456 0.016988 -9.7387e-21)
(0.826802 0.00380875 0)
(-0.0813308 0.0129537 0)
(1.11377 0.0237775 -2.72918e-20)
(0.0375874 -0.00890437 0)
(1.02143 0.140145 3.36179e-21)
(0.354393 -0.0329143 0)
(1.39375 0.162947 -9.86168e-20)
(1.08489 0.00993079 -4.04864e-22)
(-0.214709 -0.0163603 1.29846e-19)
(0.986263 0.0242506 -8.84334e-21)
(0.565079 0.0213055 7.69053e-20)
(1.05044 -0.0046987 -1.28477e-20)
(0.164131 0.0266262 5.13395e-22)
(0.0951559 -0.0154462 -3.98792e-20)
(0.998521 0.0406722 3.34208e-21)
(0.128553 0.579568 0)
(1.03131 0.0817657 -3.86684e-21)
(0.925776 0.062065 -9.13083e-21)
(0.945124 0.0527179 0)
(0.65738 0.0989556 7.2392e-20)
(-0.202977 -0.0149804 6.95951e-20)
(1.01021 0.00973768 -1.03643e-22)
(0.281627 -0.0408625 3.55523e-20)
(0.989168 0.0137923 -7.47215e-21)
(0.213284 0.0711616 0)
(1.04078 0.000960819 -3.00529e-21)
(1.00467 0.106798 1.48498e-21)
(1.06835 -0.0364153 0)
(1.01229 0.0133686 1.74175e-22)
(1.01383 0.000553366 0)
(1.1206 -0.0484834 -1.68381e-20)
(1.07118 -0.0652608 -4.11672e-20)
(1.21577 -0.0344027 8.24644e-20)
(1.00506 0.00614186 6.53665e-22)
(0.144028 0.168815 -7.789e-20)
(1.08334 0.0111245 2.72484e-21)
(1.01177 0.0133146 6.55865e-23)
(0.99806 0.00318111 -4.23048e-21)
(0.94531 0.100568 1.68715e-20)
(1.18316 -0.0526147 0)
(0.808624 0.0405867 -3.57928e-20)
(1.1104 0.0238025 0)
(1.00933 0.000453144 3.00157e-22)
(1.03968 0.0944739 -1.17406e-21)
(0.241284 -0.0382639 1.94664e-22)
(1.00162 0.105146 2.53925e-21)
(1.00027 0.021834 0)
(1.01257 0.0136879 -2.97263e-22)
(1.04196 0.0968012 -1.18941e-21)
(1.09828 0.0177494 -3.33794e-20)
(-0.0725697 -0.00276924 4.05801e-20)
(1.01045 0.0235694 -4.64502e-22)
(1.18226 0.467184 -4.45114e-20)
(0.904403 0.22157 0)
(1.18673 -0.0446477 -8.41446e-20)
(-0.0321642 0.0301812 -6.64623e-20)
(0.047372 0.192879 0)
(1.0159 0.0024792 -2.2147e-21)
(1.08866 -0.0876433 3.13221e-21)
(1.00513 0.0236899 -3.116e-22)
(1.02231 0.0431025 0)
(1.08407 -0.00512119 0)
(0.0399954 0.229503 -2.9806e-20)
(1.00808 0.00556133 1.13393e-22)
(1.02272 0.0183505 0)
(1.01249 0.000409761 1.13312e-21)
(0.683642 0.0249162 -7.10825e-20)
(0.961385 0.0505441 5.99002e-22)
(1.03604 -0.00397622 0)
(1.05348 0.125964 0)
(1.08856 0.0789674 0)
(0.288378 -0.0356366 0)
(-0.301312 -0.00674533 6.94128e-20)
(1.00416 0.0112156 0)
(0.988086 0.00715535 8.42262e-21)
(0.252408 -0.0326094 0)
(0.985978 0.0348128 6.1245e-21)
(-0.0338865 -0.0345638 -7.93603e-20)
(0.116427 -0.0197643 -1.39214e-20)
(-0.0875316 0.000173787 9.54465e-20)
(0.667288 0.361327 -5.61715e-20)
(0.829508 0.455915 1.53177e-20)
(1.0064 -0.12 0)
(1.07061 -0.0363798 1.44835e-21)
(0.999292 0.00352128 0)
(1.01258 0.0114065 2.74563e-22)
(1.00272 0.0347958 0)
(0.971423 0.0258023 -2.10331e-20)
(0.999851 0.00583256 -2.66203e-21)
(0.969845 0.0256491 1.55559e-20)
(0.983673 -0.0191247 0)
(-0.00786106 0.228987 1.15145e-20)
(1.03843 0.0278439 2.45281e-21)
(0.666906 0.190957 1.09174e-19)
(1.00974 0.00353896 -2.84066e-22)
(1.01949 0.0673604 6.24306e-22)
(1.11072 0.0987703 0)
(1.00052 0.00633705 2.21298e-21)
(0.970389 0.0821022 -1.80891e-20)
(1.04562 0.0416763 0)
(0.353938 0.0307634 1.08448e-19)
(0.0951461 -0.103115 -6.82609e-20)
(1.16771 0.0825901 3.97816e-20)
(-0.173918 -0.0178088 -5.37677e-20)
(0.840214 0.19644 4.11297e-20)
(0.0767315 0.179229 1.47448e-20)
(1.10435 0.267992 -1.24924e-20)
(0.520094 -0.049109 -4.09177e-20)
(0.0200447 -0.0447325 1.68815e-20)
(1.13338 -0.0260801 1.64624e-20)
(0.925711 0.801076 -5.20064e-20)
(1.15658 -0.169254 -4.37296e-20)
(-0.31451 0.00431731 -1.55234e-19)
(1.03361 0.00179936 4.54167e-21)
(0.993946 0.0114442 -1.10302e-20)
(1.00367 0.00602923 -8.75648e-22)
(1.07114 -0.010609 9.25306e-21)
(0.728943 -0.124896 -3.77613e-20)
(1.01337 0.010086 0)
(0.999954 0.00038667 0)
(1.17944 0.0150667 0)
(1.00749 0.00310486 -1.69682e-22)
(1.02021 0.200916 -3.71712e-21)
(1.01776 0.188372 4.06698e-21)
(1.00024 0.000759558 0)
(1.03518 -0.128068 -1.42423e-20)
(1.03549 -0.00227633 -3.72302e-21)
(0.987496 0.00687935 -1.16499e-21)
(1.13811 -0.148084 -1.67813e-20)
(1.01607 0.0067837 -3.20955e-21)
(1.24092 0.0607355 -5.59067e-20)
(0.442826 -0.246205 0)
(1.00167 0.0385538 -2.72273e-21)
(1.04532 -0.00945303 0)
(1.01145 0.0129462 -1.48391e-23)
(0.943992 0.277392 -1.23987e-21)
(1.00842 0.00609707 0)
(1.04986 0.0489814 -4.58022e-21)
(1.35627 0.180913 1.15921e-19)
(0.988512 0.00131314 -1.45273e-20)
(0.0995729 -0.0407226 -3.61891e-20)
(1.03814 0.0236442 0)
(0.130012 -0.0378689 -2.60564e-20)
(1.05675 -0.0159236 0)
(1.12172 -0.128384 1.31479e-20)
(0.999475 0.0130329 -7.53436e-21)
(1.0956 -0.1058 -1.32554e-20)
(1.1062 0.0983323 1.23268e-20)
(0.999359 0.0032903 0)
(1.00252 0.0393862 -2.65488e-21)
(0.123045 -0.0413777 3.98422e-20)
(0.993424 0.015794 -1.49512e-21)
(-0.332399 0.00384195 0)
(-0.327878 0.0039326 0)
(0.983297 0.0523278 4.04907e-21)
(1.00131 0.000330736 3.34139e-21)
(1.00071 0.00645786 0)
(1.01892 0.00294341 9.26618e-22)
(-0.06252 0.110232 0)
(0.995083 0.0147002 1.32416e-20)
(0.165688 -0.0410017 9.84475e-20)
(-0.0092621 0.242443 0)
(1.11376 0.12866 -1.14496e-20)
(-0.0255827 0.0406976 6.87444e-20)
(1.00974 0.000591641 6.14828e-22)
(1.00399 0.0209639 0)
(-0.0417736 -0.0137559 5.29747e-20)
(-0.0172423 -0.0394168 7.40325e-20)
(0.92244 -0.0010526 0)
(1.00066 0.0096171 1.4185e-21)
(0.996266 0.0229048 1.21081e-20)
(1.01302 0.0108017 3.30496e-22)
(1.04599 -0.0129178 3.83558e-21)
(0.866811 0.18187 0)
(0.352331 0.397032 -8.92818e-20)
(1.05224 0.0671513 -7.88084e-21)
(0.146547 0.154283 1.602e-20)
(0.118405 0.175596 0)
(1.10835 -0.20465 -3.4678e-20)
(0.857828 0.0713096 1.99995e-20)
(1.03409 0.0143593 1.052e-21)
(-0.161945 -0.00811586 5.56238e-20)
(-0.0805092 0.211141 -2.89074e-20)
(1.05601 0.124079 0)
(0.999688 0.0127289 8.15505e-21)
(0.978298 0.0240783 0)
(0.085704 -0.050093 0)
(0.996333 0.00839436 0)
(-0.0371618 0.163817 0)
(0.835686 0.25102 2.38806e-20)
(1.00007 0.000738519 7.53955e-21)
(0.949296 0.102022 0)
(1.01493 2.50624e-05 -4.24391e-21)
(1.10858 0.0225651 -2.34528e-20)
(1.07121 0.0644091 5.68102e-21)
(1.00729 0.00293878 2.24826e-22)
(1.01714 0.00127819 -1.36539e-21)
(1.04489 -0.0124024 0)
(-0.0501572 -0.00645458 0)
(1.00021 0.00120794 -3.61824e-21)
(1.0769 -0.0941549 0)
(0.00883453 -0.0104567 5.68354e-21)
(0.978919 0.0225441 -1.38075e-20)
(1.00355 0.0157907 0)
(0.829622 0.159815 0)
(0.0984495 0.191772 0)
(1.09931 0.00174444 9.30054e-21)
(-0.00216095 -0.0340711 3.27757e-20)
(0.958302 4.79841e-05 -1.45026e-20)
(1.0189 0.00272965 -1.61295e-21)
(0.939002 0.00432187 -3.13523e-20)
(0.0592664 -0.00712467 0)
(0.411252 0.181865 7.86354e-20)
(0.180221 0.118599 0)
(1.00912 0.000426597 -7.38295e-23)
(0.868162 0.0507412 -5.25275e-20)
(1.00409 0.0333076 0)
(-0.027081 -0.0309369 -4.0928e-20)
(1.02336 0.00679238 0)
(1.04814 -0.127547 1.24841e-20)
(0.859376 0.19136 2.94391e-20)
(-0.0673878 0.141418 2.51828e-20)
(1.00041 0.00164691 -1.143e-21)
(1.00485 0.00198092 0)
(0.80535 0.46219 3.11569e-20)
(0.998183 0.0214933 0)
(-0.0681424 -0.00531015 0)
(1.03796 0.000732785 2.21541e-21)
(0.18446 0.531443 0)
(1.00005 0.000624361 -2.35838e-21)
(1.01252 0.00997341 3.53495e-22)
(0.933305 0.0273581 -5.26963e-21)
(1.1603 0.458793 -8.81669e-21)
(-0.21551 0.0158755 1.38334e-19)
(1.03335 0.0929501 -2.89301e-21)
(1.04802 0.0162931 1.01785e-20)
(0.963327 0.0247887 0)
(1.03596 -0.00276361 0)
(1.02711 0.00628579 0)
(0.999979 0.000284447 2.78492e-21)
(1.1953 0.00382285 0)
(1.00633 0.0474121 2.28152e-21)
(0.394649 -0.0500267 -2.52879e-20)
(1.01351 0.0725893 0)
(-0.0719352 -0.030762 4.11158e-20)
(1.03507 0.00151632 0)
(1.01885 0.00360022 0)
(1.33332 0.143766 1.48386e-19)
(-0.0186788 -0.0411854 4.6068e-20)
(0.670824 -0.0578536 -1.86816e-20)
(1.01815 0.0494631 -2.38042e-22)
(0.233915 0.020404 1.81448e-20)
(1.03562 0.000950218 1.79617e-21)
(0.00689109 0.22866 -2.96316e-20)
(0.963774 0.0282706 6.80286e-21)
(1.22757 0.0144561 0)
(1.01682 0.0181835 -7.9963e-22)
(0.0148549 0.0332465 5.85344e-20)
(1.00564 0.0202888 0)