/*--------------------------------*- C++ -*----------------------------------*\
| =========                 |                                                 |
| \\      /  F ield         | OpenFOAM: The Open Source CFD Toolbox           |
|  \\    /   O peration     | Version:  v2012                                 |
|   \\  /    A nd           | Website:  www.openfoam.com                      |
|    \\/     M anipulation  |                                                 |
\*---------------------------------------------------------------------------*/
FoamFile
{
    version     2.0;
    format      ascii;
    class       volScalarField;
    location    "550";
    object      ddt0(omega);
}
// * * * * * * * * * * * * * * * * * * * * * * * * * * * * * * * * * * * * * //

dimensions      [0 0 -2 0 0 0 0];


internalField   nonuniform List<scalar> 
18355
(
5.61311e-05
-0.0432639
7.46466e-06
1.16332e-06
1.11577e-05
-0.00464278
2.23991e-07
-0.000549408
7.4064e-07
-0.179344
1.57605e-06
0.0939643
0.000121951
-8.95824e-07
-5.77702e-06
-1.17154e-05
0.166819
1.95251e-06
8.05386e-06
-0.216671
-1.43524e-05
1.34821e-05
-0.0647698
1.14278e-05
0.000136116
1.29313e-06
-4.79411e-08
4.14694e-06
-0.420225
9.68933e-06
3.68182e-06
3.58079e-05
2.09261e-06
2.6714e-06
0.000173505
4.91662e-05
-3.26643e-06
-0.000514552
-1.64751e-06
1.16742e-06
-4.10562e-07
-0.00375185
8.11238e-06
-0.50636
4.15679e-06
-0.00176638
0.00031814
4.13339e-06
0.000476219
2.26818e-06
5.51128e-07
2.53452e-06
-9.99518e-08
-0.40794
1.1676e-06
1.81165e-06
-0.00658455
-5.69306e-06
-0.00145684
0.00315303
2.34936e-06
-0.00191418
1.42632e-06
0.000522614
0.0619621
3.62918e-05
-1.32521
-0.000177902
-1.34902e-07
1.30807e-05
0.000599394
2.89944e-07
0.00285502
3.03707e-06
-0.00047674
1.49049e-07
-0.0693501
3.22571e-05
0.00022538
2.77943e-06
1.88763e-07
0.00109958
-1.6673e-05
0.000828535
1.21385e-06
8.16531e-05
0.278766
-0.203435
-0.39581
-0.303126
0.286211
3.85477e-06
1.25677e-06
2.4791e-06
-0.187356
-0.100708
-1.99383e-06
5.50236e-05
-0.385375
0.0344161
-0.932705
0.0809968
7.68577e-05
-0.273117
2.00849e-05
-0.00437165
0.309138
0.00017561
-2.88793e-05
0.269596
9.01721e-06
8.96831e-06
9.9782e-07
5.09735e-06
-0.415207
1.89024e-06
0.0102205
-0.0918186
-0.00703773
0.000152236
-0.168646
6.59959
3.0235e-05
0.000612653
-1.93914e-06
-0.0207001
2.41175e-06
-2.16387e-07
1.26625
2.22311e-06
4.21774e-07
-1.05818
-0.000636546
5.37546e-05
0.000551668
7.1255e-09
-2.34438e-06
1.54467e-06
-4.12265e-07
0.00098522
-0.532618
-0.146203
5.01379e-06
7.86124e-06
-0.0290547
1.53619e-05
9.57508e-05
-2.65397
2.4799e-05
-2.78479
6.58879e-06
1.5608e-05
0.000270505
-0.011301
-0.00435328
1.49734e-07
-1.63327
0.00337269
1.36078e-07
-0.0022248
2.94513e-05
-7.64857e-06
-2.75842e-05
6.6521e-05
-0.0226037
0.104339
-0.433567
-0.000168908
0.000152455
2.63694e-06
0.11797
-0.127831
1.40897e-06
1.10301e-06
-1.41953e-05
-0.14892
-0.000559873
1.18309e-06
0.17261
-0.28169
-0.00361018
-0.0191266
1.82737e-05
7.84834e-07
-0.00556808
-0.117424
-0.167367
-0.00648867
1.23455e-05
0.184138
-0.00634113
8.83155e-06
6.18113e-05
0.181135
0.000496418
1.19246e-05
-1.47946
2.21577e-05
-0.000380248
1.12489e-06
1.21713e-05
1.53577e-06
-0.459024
-0.193618
1.11711
-0.000718697
-0.00192562
0.146658
0.25777
-0.00036324
-2.10663e-06
5.03027e-06
-0.180757
6.97453e-06
2.79486e-06
-0.00414189
0.70494
-0.211837
7.72608e-07
2.3855e-05
0.030254
4.67548e-07
0.00102383
-1.70307e-06
-0.392696
1.4093e-05
0.0723618
-0.0409798
0.115427
-1.79225e-06
-1.11001e-07
0.000223948
-7.13869e-06
0.0505996
-1.01292e-05
1.43745e-06
1.37017e-06
0.0148791
-0.890013
1.45271
-3.38411e-05
-0.025134
5.37681e-06
2.93731e-06
1.33282e-05
-0.188554
0.856339
0.0280793
-0.00448329
-3.21238e-05
1.18343e-05
0.00132274
2.08713e-05
0.304433
1.47264e-05
0.109793
0.465543
-0.00224322
1.19923e-05
2.55251e-06
6.11205e-05
0.000733595
-0.438579
-0.000618219
1.90673e-06
2.82132e-06
6.99616e-08
0.0436624
0.00206734
-0.0140771
5.86649e-06
-2.10608
-0.00671209
-0.00420755
-5.4696e-06
0.293882
2.15076e-06
-2.88928e-06
0.101905
2.30332e-06
-8.43523e-08
-0.00314464
1.83598e-06
-0.229168
2.55534e-05
9.3492e-07
2.50733e-06
-0.000166823
0.104981
3.62112e-05
1.65604e-06
-4.8933e-07
-0.00749217
-0.247326
-1.21771e-07
1.49396e-07
0.553302
0.000206071
-0.00446478
-0.0576852
-2.79685e-06
0.000605807
1.91129e-05
2.61367e-07
-0.162481
-0.00897165
-0.210632
-0.00786185
2.00839e-06
0.00233459
1.5762e-05
8.43275e-06
0.074754
6.31106e-06
0.00637091
-0.00632899
1.20476e-06
5.85823e-07
-0.0109585
-6.8788
0.156092
-4.50151e-06
-6.97965e-06
-0.65904
-1.42428e-07
-3.37359
0.000255709
0.00180729
-0.0505669
1.70067e-06
0.0314129
1.13205e-05
-0.00169247
1.31909e-06
-0.00431691
0.126459
-5.06619e-08
-0.500096
-0.00012729
4.25525e-08
0.000424587
-0.00219664
1.07188
-0.452637
-0.592959
1.45461e-05
1.39167e-06
0.0422562
-0.00649683
1.30452e-06
-6.24423e-06
0.659085
-0.0129723
0.00817824
0.110732
5.26063e-07
1.64771e-05
0.0277585
9.27066e-06
-7.05001e-06
0.0144039
-0.000423744
4.46233e-05
-5.35458
-3.89661e-08
0.00428759
0.0511829
1.508
1.6308e-06
1.02988e-05
-2.60075e-06
-1.54388e-06
-0.00339546
-1.58072e-06
0.000285458
-2.96571e-06
-2.0146e-05
6.07339e-07
6.45713e-07
-8.66873e-07
5.50444e-06
-1.06186e-06
-1.02427e-06
-9.10361e-06
0.0277625
1.62591
-2.35411e-06
0.0797528
5.63648e-05
1.37026
-8.53676e-05
0.000460863
1.98349e-05
-0.271794
-3.70582e-06
1.88439e-06
1.45407e-06
4.01223e-07
-0.426856
1.51353e-06
4.14768e-06
-0.000316856
0.000142211
1.00556e-05
1.95093e-08
0.0146141
1.41377e-05
2.47069e-06
0.000504512
9.15014e-07
0.0487696
0.150508
-0.0541664
-0.000177897
1.93649e-05
0.0849299
2.89661e-07
-3.07827e-07
0.0228796
1.93905e-07
1.0358e-06
0.186192
3.01546e-06
0.122136
-0.000372638
-0.00156173
0.141791
5.85622e-06
-2.95054e-07
-0.0522427
-0.00442017
0.226239
-2.95687
-3.17966e-06
6.97555e-07
1.5214e-05
0.250684
-0.00280264
7.10931e-06
2.29189e-07
9.36526e-06
-0.00521595
0.0182014
-0.000360217
1.39622e-05
-5.32267e-08
-7.70918e-05
-0.0848391
-0.278051
0.110334
-0.0675735
0.000552543
0.000357077
-0.316096
2.62461e-06
2.28105e-06
-4.54018e-07
-2.6639e-06
-0.00730935
-1.74032e-06
4.31924e-06
0.047828
-0.00242247
0.000272779
-0.300673
0.000750333
-0.220168
5.16557e-06
-9.72678e-07
7.12738e-06
4.27983e-07
1.36629e-07
-2.76346e-07
-2.47046e-06
-0.162861
-4.71788e-06
1.25933e-06
-4.56771
0.0047932
2.00999e-06
2.13347e-05
-0.000297664
-0.198519
-6.93376e-06
-1.93537e-06
-0.577598
1.05767e-05
-1.01522
0.000286551
-1.44064e-06
0.00410271
0.0049049
2.20357e-06
0.323632
-0.304979
-0.195216
-1.32217e-06
-1.75174e-06
-1.87044e-05
-0.00813493
9.70596e-06
-1.8584
0.344903
-0.0505456
-0.919444
3.31711e-07
-0.000312487
-0.155271
-0.0860752
-0.487714
1.32375e-05
-5.06575e-05
1.91538e-05
-0.241036
0.0829257
0.213055
1.4457e-05
-6.10009e-07
4.61783e-07
-0.000160004
-2.2793e-06
0.00896597
0.000336677
-0.446641
3.44303e-06
9.40812e-06
2.64528e-06
-1.97397e-05
0.000831616
-0.331493
-3.20648e-07
-0.0053434
-0.0833436
0.00018964
1.1809e-05
3.54635e-06
0.000302516
8.15856e-08
-1.47993e-05
-0.00041232
0.000154181
0.00392457
-9.07708e-06
2.19074e-06
-2.16397e-07
-9.77857e-08
0.000162998
4.6028e-05
-0.0019524
5.91723e-06
1.16217e-05
-0.0529273
1.80499e-06
0.00240427
3.41084e-06
0.00271001
2.17848e-06
-0.407533
1.76391e-06
-1.95966
-3.84032e-06
2.6004e-06
0.448892
0.80641
-0.132521
0.000216115
3.5483e-06
-1.27398e-06
-1.54738e-06
-0.00917252
1.79368e-05
8.39203e-05
0.00193611
-0.170127
-0.014513
2.22678e-06
0.17757
-1.05415
2.52639e-05
-1.07822e-06
0.00141184
-0.306869
4.7062e-05
4.01858e-07
6.60246e-05
0.00415117
0.00058666
-0.000108196
0.191167
4.87654e-05
-0.00255548
-0.388721
4.22911
-11.5292
0.000800027
0.0167388
1.97993e-05
1.64411e-06
2.64322e-05
9.42603e-06
0.0330795
-0.270638
-0.101041
-0.00224423
0.0753413
0.835587
-0.00408819
-1.28374e-05
0.00864777
-0.0380187
1.28472e-06
0.105491
-1.14691
-2.36499
0.000138148
5.75938e-07
4.82044e-05
7.44173e-05
0.000303989
-0.000632408
7.45439e-06
-2.41801
-1.05918e-05
-6.46447e-06
-0.22596
6.80502e-06
0.001239
-0.446165
-1.38033e-06
-8.72983e-06
0.139854
2.95223e-06
-0.00542554
1.52824e-06
0.412701
0.000211963
-0.000412297
0.00108165
-1.10564e-05
-0.00763466
3.16586e-05
-3.14169
-0.00430666
2.37975e-06
-0.585382
-0.000408312
0.0145265
0.267817
0.771006
-0.112513
7.14312e-06
2.50938e-07
-0.339135
3.40329e-06
-2.89802e-05
4.80078e-07
1.99165e-05
-0.0993469
0.204824
0.000574825
-2.73369
0.00494144
-1.92304e-05
5.94365e-07
5.28662e-07
-0.000366872
0.00143996
-9.60503e-07
-1.34
-0.00054349
0.000168449
2.15764e-06
0.297339
0.0431127
9.15464e-06
1.13287e-06
-0.00464825
2.36503e-07
2.10728e-06
2.90159
0.118483
1.0728e-05
-9.96233e-07
-0.0123186
0.000294097
0.000278124
-0.0127941
4.90501e-06
-0.199588
-0.00123958
1.7651e-05
-0.185355
-0.135008
-3.49951e-08
0.234435
1.08281e-06
-1.29877e-06
6.20637e-06
0.000125819
-0.0111407
-9.84503e-05
-0.161407
5.40992e-05
-0.282498
0.767446
1.97605e-05
0.0580747
1.10593e-05
-0.0299911
2.37951e-05
-0.44122
-0.0441216
1.11068e-05
-0.00657171
-1.96682e-05
-1.65335e-05
0.0863923
-0.000274782
0.105428
2.69887e-06
-0.416002
3.44401e-07
-2.33154
4.1751e-06
0.000554629
0.000244384
3.49715e-06
1.79538e-06
-0.0015995
0.382941
0.820887
6.52372e-07
0.00443
2.00256e-05
3.60483e-06
4.57186e-07
0.000169435
-0.00623052
-0.000833942
-7.14062e-05
5.65388e-06
4.42208e-07
-0.366412
-6.75685e-05
6.4817e-06
3.48652e-06
-2.54463e-06
-2.58799e-05
-3.11025
6.9173e-06
-0.0155939
0.000248907
-2.17911
-0.188628
-1.26816
7.67923e-07
-0.00133528
8.46569e-06
-7.44035e-06
2.99409e-05
-0.607703
1.91425e-06
-1.03429e-06
1.26111e-06
-0.0148281
1.13766e-06
2.75129e-06
4.11052e-05
4.74193e-05
-0.162897
0.209812
-5.19482e-07
-1.3823e-06
-0.196992
1.55288e-05
0.318588
-0.113521
0.0780894
0.0264694
0.0163684
0.0800819
0.000255067
7.16687e-07
2.94509e-06
1.20398e-05
1.18032e-05
1.24365e-06
1.31957e-05
0.0697591
-1.84212
-4.98784e-06
-0.00364853
2.68367e-06
-1.96698e-05
-5.89833e-05
1.05033e-06
-8.66467e-06
-1.06261e-05
-0.0536206
0.0144018
0.000425123
0.125539
-0.000798853
-1.36785
0.00108294
-0.131202
0.377822
-0.00154874
-0.0322564
-0.000702332
0.235252
1.43246e-07
-2.87962e-06
5.47299e-07
7.64932e-05
0.13115
2.73503e-06
-1.64178e-07
-0.000203307
1.88425e-06
0.000410059
0.00122508
4.52571e-07
0.11209
1.64413e-06
-5.4675e-07
-0.0133516
1.27212e-06
0.00280977
0.18818
9.82221e-06
2.44901e-05
3.43917e-06
2.20263e-05
2.02481e-06
-9.76684e-06
0.302528
-5.4751e-07
0.0925229
-2.52926e-06
0.0837748
8.69829e-05
-0.00864771
-2.46157e-06
-0.00298217
-5.35265e-06
7.65376e-07
9.01806e-06
0.162012
1.36048e-07
0.335587
0.317486
6.97818e-06
1.3452e-06
1.01143e-06
4.08319e-07
3.55978
-1.35235e-06
0.153623
-1.28054
0.000212279
-0.298756
3.09198e-06
6.38845e-06
0.166912
0.293564
-5.42251e-06
-1.32289e-06
7.35623e-06
2.88777e-06
3.87299e-05
2.5452e-05
-0.0277072
-1.62023e-05
-1.17922
-0.00152654
0.706387
3.9142e-05
-1.75408e-06
-0.227578
-0.0261129
0.000400534
-2.56599e-06
1.17867e-05
0.4631
-2.00506e-06
0.28891
-0.00488007
2.2744e-07
7.28743e-06
3.48376e-06
-7.21453e-05
5.03519e-06
1.92092e-06
1.60156e-06
3.36013e-05
-0.450489
3.8047e-07
-0.000700894
-0.238343
1.08549e-05
1.3036e-06
0.00277074
-0.548851
-6.43867e-05
0.0424602
9.42083e-07
4.55648e-07
-6.37406e-06
0.00479477
-0.318499
0.000203
3.04659e-06
0.000118183
1.00614e-05
-0.0207498
-9.92593e-07
0.221456
0.000126902
3.76204
6.55228e-07
1.58961e-06
0.00422984
5.79819e-06
-0.649163
1.92463e-06
0.0611605
2.00916e-07
2.8466e-06
-9.21046e-06
-0.0282839
0.104858
-8.74377e-06
4.78494e-06
7.37399e-06
2.38774e-06
-9.08095e-07
-1.40788e-07
2.78741e-05
4.83956e-07
-0.400961
-1.70765e-05
0.250804
3.4094e-07
2.00871e-07
1.42448
0.297355
0.247359
-8.72727e-06
0.472302
5.82305e-07
-1.53102
1.2786e-05
0.0221631
2.44978e-06
-0.301452
6.12036e-06
3.87084e-06
-1.99682e-07
8.69278e-06
8.00906e-08
-0.475037
-3.04007
-0.0350455
6.54847e-05
8.86572e-05
-1.1388e-05
6.1723e-07
1.71795e-06
2.82301e-06
-2.59603e-06
0.00741892
3.17401e-06
-1.67095
0.00219349
-1.34347e-06
9.66291e-06
-1.61081
-0.00922376
1.29035e-05
-7.55754e-06
0.000942293
0.128511
-0.00180468
-0.0577833
-0.000958302
-0.00457879
0.00158265
-5.59481e-07
7.06338e-06
-0.000429878
0.000604647
2.07211e-07
-0.80656
-0.000138405
0.0525217
6.80351e-07
-0.0530369
0.000259847
0.000393714
1.14249e-05
-1.81719e-07
-1.18676
5.11553e-07
-1.89933
1.38431e-06
-4.44292e-10
0.249818
-7.01754e-05
0.000168273
0.0134012
5.70908e-06
0.0383616
-0.492347
-5.90404e-07
-0.00115526
-0.364823
-5.89155e-06
7.189e-06
5.20701e-07
3.87718e-05
1.57104e-05
-0.00443758
0.424865
3.8904e-05
-2.65921e-05
-0.299728
2.04797e-06
0.0938789
8.49064e-05
-8.04135e-06
0.506287
-0.0129538
3.04022e-06
1.50462e-06
1.28455e-05
-2.23213e-07
1.39993e-06
0.198332
-8.51404e-09
0.000198929
5.52059e-07
0.0122621
2.33422e-06
-0.0764141
0.0787648
2.4384e-05
-0.189822
6.48755e-07
6.66006e-06
7.6377e-06
-0.210858
0.000545139
1.62741e-06
-1.82468e-06
-7.18097e-06
7.44702e-06
-0.00291376
-0.058094
0.259816
-0.374383
7.77755e-07
1.06069e-05
-0.00377489
1.27706e-05
-9.84422e-07
-0.0352157
-0.259423
-1.91805e-05
-2.84264e-08
-0.278155
4.30954e-07
6.87269e-07
-0.127602
-0.00487162
0.584968
4.13954e-06
-2.094e-06
0.113275
5.54148e-06
-1.56012e-05
4.20892e-07
0.000122419
-4.02306e-07
0.000416281
0.00378329
-0.000400521
1.37692e-06
-0.44359
2.59138e-06
1.56249e-06
6.74501e-06
1.13552e-06
5.20075e-06
-4.2026e-06
-0.0520143
-6.66164e-06
0.0240765
-3.9451e-06
2.45861e-05
0.370153
2.32858e-06
0.024599
5.6333e-06
2.31924e-06
3.54351e-06
-0.00467549
-6.22258e-07
-1.02188e-06
1.26179e-06
2.60521e-06
-0.00168288
1.69441e-06
1.43706e-05
4.08964e-05
1.24257e-06
-0.00121327
0.409522
-0.156202
0.174501
0.123967
-0.00355235
0.000377521
0.132493
-0.0963401
1.99779e-06
1.09564e-05
7.7268e-07
0.00559361
0.119248
2.1799e-06
-1.54803e-05
1.01131e-07
8.14407e-06
8.49312e-07
1.64582e-05
-0.0855762
-0.406602
0.149845
-0.00145041
1.213e-06
4.88335e-07
1.04004e-06
0.114614
-0.0579603
-3.93379e-07
0.0273047
1.27102e-06
-1.24834e-05
3.2416e-05
0.000211068
5.95592e-06
-0.301762
6.13164e-06
-0.0664423
1.90181e-06
1.6587e-06
0.00186356
-6.88048e-07
1.80127e-06
-0.00180085
-0.0215828
1.24486e-06
0.0125225
-7.38507e-07
-7.59418e-07
2.87195e-06
-5.1708e-07
0.121737
-0.00028165
-7.19049e-06
7.47895e-06
-0.174884
0.115415
5.40696e-08
-0.000133866
-3.42029e-05
0.0160576
-0.049892
0.0869821
0.0334659
-0.00116489
-0.00753886
-0.0068818
0.00165616
0.121751
6.44592e-07
4.67778e-07
5.55679e-06
0.164749
1.32654e-05
0.169162
-1.32297e-06
1.00368e-05
0.271391
-9.28121e-05
1.58763e-05
-0.00134175
-1.37144e-07
2.6856e-06
0.0306025
0.0020546
-2.03136e-06
-0.271922
0.00447732
0.550657
-0.48154
-1.84086e-06
0.0789336
-2.88874e-07
0.00224861
1.4372e-06
1.69278e-06
-0.0692721
-0.000638728
-2.12204e-05
1.03562e-05
0.113346
-1.6888e-05
-0.109559
0.0840892
6.59921e-08
-7.54376e-07
-6.22423e-05
-0.0298649
-0.00218385
-0.000507019
0.000905262
-0.00843502
-4.58614e-07
1.84223e-06
1.14045e-07
-2.53182e-07
-3.0023e-06
-0.000716973
0.0919341
-0.000992846
-0.00698708
0.134918
2.16057e-06
3.01123
0.00450936
-0.000551924
5.67673e-07
-2.88674e-06
1.52283e-07
1.66954e-06
1.44836e-06
1.43305
0.00162212
-0.374946
-0.000983468
-0.00281574
1.05205e-05
-0.00262802
-0.126259
-3.77331e-06
3.96087e-05
2.02747e-06
-0.445354
0.00842851
0.00233205
-0.00832538
-7.99497e-08
-0.63883
-5.55464e-06
2.5302e-06
-0.000426261
-0.00070761
-8.71182e-07
-0.00417166
0.0864997
1.86311e-07
0.817336
-0.362138
0.365925
1.46184
4.44488e-05
0.228299
0.00290004
0.0116242
-0.210523
-1.21684e-06
-0.000229828
-3.23501e-07
3.48252e-07
-0.262181
3.2513e-05
0.182978
1.88187e-06
2.21114e-06
0.0179444
1.10561e-05
-0.329492
-7.22206e-06
0.134492
1.41688e-05
2.0832e-07
-0.0066246
9.96379e-05
-0.00339139
1.34463e-06
-1.22025e-06
-0.00932503
-0.028843
-8.39654e-08
-5.09161e-06
0.034361
-0.00143025
0.0248866
-6.64419e-08
-2.12144e-06
1.50014e-06
3.05675e-06
8.87196e-05
-8.3107e-05
1.03145e-06
-0.00103886
6.12797e-06
-4.38768e-07
0.000552514
-0.42429
-0.008912
4.35517e-05
2.75359e-06
1.69463e-05
-0.000326454
-0.000820025
-0.064971
0.790679
0.000126296
6.11473e-06
-0.00475605
9.75252e-07
0.000328038
-0.176892
1.52312e-06
-0.000332623
-2.82301
0.020468
-2.1292
0.375978
-0.00439859
1.21673e-05
-2.35992
0.000113878
-0.000432726
0.00282181
3.43189e-06
0.00195128
3.40713e-06
3.90103e-06
-0.00108597
0.154787
0.00109149
6.44501e-07
0.000761748
-0.538651
0.00547927
-0.0025868
3.9979e-06
-0.00144502
-1.0012e-06
0.000750058
0.00246598
9.73578e-06
0.153752
-3.80973e-07
1.73673e-06
9.9726e-06
-2.6449e-07
0.216969
-0.00517888
6.24558e-08
0.0591386
7.53523e-08
0.166041
-8.52138e-07
-0.506145
-0.00089769
0.013441
2.22642e-05
9.23427e-06
1.55412e-06
3.55843e-06
-0.0440312
-0.00498554
1.21577e-06
-0.000612337
-0.39824
0.459777
-0.000462673
-0.101039
0.176322
9.96453e-06
0.087037
2.499e-06
-0.0122479
2.44957e-06
5.33181e-06
3.1379e-06
0.000493173
-2.36852
-0.00871412
0.00176884
0.0256764
-0.271238
0.0594758
-0.167056
1.58154e-06
0.000666389
0.266032
1.03751e-06
-0.00101615
-0.00144744
-0.0087788
6.66411e-06
-0.333806
-0.00482874
-0.553255
-4.29226
1.58984e-05
-0.0160555
3.50437e-05
3.1966e-06
6.85305e-07
0.0917635
-0.00424369
0.0717118
-0.00850569
8.337e-07
-2.12887
-0.000656291
2.15131e-06
1.26863e-05
-0.00165207
1.61456e-05
2.48658e-07
3.12513e-08
-0.0528825
7.64382e-07
0.000225657
0.266556
1.97297e-06
8.7265e-07
-8.32612
1.87567e-06
-4.33464e-05
0.00019367
0.00316744
0.00158753
1.01826e-05
-0.0014942
3.50419e-05
-0.00413912
1.52957e-05
-3.77387e-06
-0.00664984
-0.0155919
0.000309566
-0.203199
0.0481733
-7.08301e-06
0.00617287
-0.106546
-0.00429285
2.52714e-06
-2.73761e-07
0.0806036
3.7629e-05
0.251641
-0.0190707
4.93076e-06
-0.355026
4.55119e-06
-0.00997786
0.40971
1.09386e-05
1.07468e-06
7.89822e-07
1.86819e-06
-3.87751
0.252061
3.92741e-05
-0.00857033
-0.172412
-2.25519e-05
-1.26592e-06
3.59092e-05
0.00047249
2.24583e-06
1.75144e-06
-0.181582
1.80813e-05
-0.0213883
2.6775e-06
7.00797e-07
8.54311e-08
3.57549e-05
-0.000495356
-6.04418e-05
-5.83434e-06
1.46864e-05
0.28577
0.523982
0.00222073
1.59363
-4.11673e-06
6.74409e-06
0.273901
0.000157854
0.812942
0.000487857
7.03395e-06
-0.00022785
-5.44054e-05
4.85022e-06
2.42438e-06
0.00113805
-0.00444663
-0.292107
-0.000135782
-0.41813
-6.04098e-06
-1.57945e-05
1.46524e-06
-0.0101042
0.339765
-0.0111189
0.041759
6.83946e-06
0.149083
2.01613e-05
5.05089e-07
-2.46592e-05
1.32827e-05
0.242269
-8.94156e-08
-0.00547597
1.87432e-06
-0.00360098
0.000144352
-2.82298
6.65737e-06
2.23948e-06
9.97463e-05
1.79856e-06
-0.00294262
-0.00562638
0.128304
-0.000236821
2.66607e-07
0.19656
0.0013962
6.85762e-06
0.000433489
-1.6944e-06
1.91747e-05
1.55232e-06
0.320786
-3.85403e-06
-1.94548e-06
-4.21874e-05
1.226e-06
-0.394308
4.17723e-07
4.5305e-05
-2.12299e-06
8.35843e-06
2.95776e-06
-9.17102e-07
-4.89209e-05
-1.6648e-07
-9.83711e-06
1.74536e-06
-7.13163e-06
0.016438
0.762736
1.33836e-05
-0.00040723
0.328687
1.63557e-06
1.0859e-06
0.000271711
-0.0100631
-5.12834e-07
-0.00076233
-1.02791
-3.8573e-06
-0.37393
-1.44212
5.87874e-06
-1.25276e-05
0.000554016
3.06287e-06
0.28459
0.137737
-0.219115
1.40171e-05
3.11341e-05
2.83248e-06
0.00278904
-0.000439641
-0.00216712
2.6089e-07
0.00396548
0.222086
-0.00419341
2.67028e-05
3.23567
0.238596
-0.248816
7.33809e-06
1.27219e-06
-0.270743
-0.00165808
2.86446e-06
-3.38024e-07
-0.0570376
-1.17213e-05
0.00872078
-0.00494595
2.52318e-06
-1.25958e-05
-1.58439
-0.00356015
1.50619e-05
2.38228e-06
0.000514147
-2.72465e-07
-0.0520329
5.565e-06
-5.81717e-07
1.01743e-05
3.92902e-05
5.51711e-07
0.00178393
-1.7173e-06
6.68766e-05
-0.406866
0.0577385
-0.506711
3.6169e-06
-8.31997e-05
-0.00433643
1.05664e-05
-1.65512e-05
-0.000470323
1.6304e-06
-1.70719e-05
0.0213626
-0.000217161
7.56466e-06
9.1222e-06
-1.36104e-07
0.0540117
-0.387349
-1.64772e-06
4.6506e-06
6.37589e-07
-0.00122543
0.120375
6.82938e-06
0.00112075
1.35867e-06
-0.000144855
0.000170075
0.101153
0.197847
-7.55268e-06
0.0380898
0.201348
-0.000110558
1.57836e-06
0.000562223
-1.30305e-06
-0.00166811
-1.19896e-05
4.03424e-08
-0.00762521
3.73153e-05
-0.00041482
-0.00200073
1.11989e-05
4.03362e-07
-0.0643307
1.54205e-05
-3.47829e-06
0.00362079
-0.00225772
0.488874
-0.661237
-6.75505e-07
0.173182
-0.791739
-0.0120723
-0.000848943
-1.6855e-05
1.46726e-08
-6.47302
-8.44634e-05
2.69275e-07
0.000417988
-0.00253969
-0.00369142
-0.0814395
7.16647e-07
-2.50682e-06
1.39275e-05
-0.0210917
0.0843388
8.31833e-07
0.00028386
-1.2818e-05
4.53419e-06
7.65989e-07
0.379542
-0.00013934
6.24641e-06
1.28717e-05
0.107307
2.22563e-07
8.07517e-07
1.96705e-05
-0.00814014
9.74421e-06
8.55566e-07
1.10975e-05
-1.35885
1.12938e-05
-2.0365e-06
3.64332e-06
1.67705e-06
0.111629
-1.6029e-06
-1.50741e-06
-0.270416
0.39934
5.68745e-06
1.58141e-07
-0.00175499
0.000145008
0.00335397
-4.27369e-07
-0.173591
1.70774e-06
-4.56883e-06
-1.52215e-05
0.555697
0.181408
-0.005819
-0.000449838
0.0562072
-0.203339
-0.163164
0.112444
-1.88616e-05
7.9432e-06
-1.24627e-07
0.00053125
6.24281e-06
3.81918e-06
2.92334e-06
0.0037361
7.35884e-06
-0.479924
-6.68069e-05
-0.317309
1.01075e-06
-0.226205
1.15962e-05
1.39501e-05
1.51893e-06
-1.62735e-05
3.28302e-05
0.0211197
-6.55283e-06
2.64075e-06
-8.59077e-06
-0.308109
4.79241e-07
-0.000411561
2.02806e-07
-0.000664547
-0.213384
-0.0618956
-0.00759492
-0.00033708
-0.0160835
-3.47143e-06
-0.210877
0.291263
1.51461e-06
-0.0808421
-0.26631
8.8711e-06
1.45796e-06
-0.000325121
1.4506e-05
-0.000340111
2.30378e-06
0.108215
0.000199206
0.000477789
2.39291e-06
1.52626e-06
0.000113404
-0.0436378
-4.38886
0.0500488
-0.000182172
0.159361
0.000268361
0.553392
8.84965e-07
-0.00389691
8.91012e-07
-6.86055e-06
-3.65648
8.75283e-06
0.027481
7.49737e-06
-1.93338e-05
-0.168288
-3.10817
1.50134e-06
1.84231
7.37838e-07
-0.0455405
3.04306e-06
-0.206082
0.109519
-1.36789e-07
-0.0635464
1.50325e-05
-0.291331
-1.53598e-06
-1.65388e-05
4.35773e-06
0.00101584
8.35234e-07
0.023433
2.27366e-06
0.0770437
-0.00293067
-0.311088
4.47809e-06
1.43136e-06
4.74259
2.40846e-05
0.000158667
7.59179e-06
-0.00954134
-1.71658e-05
9.9111e-06
0.143947
1.42205e-05
-1.28516e-06
9.58912e-07
1.06618e-05
-0.245609
-0.000251329
1.48793e-06
-0.347368
-0.143381
0.0557046
9.83802e-07
0.00186802
0.0016279
-1.55097e-06
1.90065e-05
2.03452e-06
-4.70593e-07
6.5366e-07
5.2476e-06
4.82165e-06
6.25077e-05
0.113514
-0.0239116
0.030619
4.23721e-08
-1.86391e-06
0.00505886
0.000194314
-3.88944e-07
4.89091e-06
-3.00061
0.262506
1.07522e-05
-0.370004
-0.00088939
-0.0228453
-6.05184e-08
0.03218
2.82304e-06
2.90613e-05
1.21915e-06
1.67006e-06
9.69758e-06
-0.340908
2.42066e-06
-0.157607
0.0172785
0.200363
-0.729147
1.27361e-06
5.30163e-06
0.0436031
0.00021766
0.0340336
-2.93629e-06
-0.0069702
-5.71325e-06
0.369456
-0.297741
0.170706
4.25482e-06
0.312893
-0.477683
-0.456215
0.192268
-2.45037e-05
0.00184352
6.31968e-06
-0.190165
-0.185906
9.91371e-05
-0.263976
2.12296e-06
-1.39098e-07
0.00164753
-1.24126
0.000167873
4.3215
1.24525e-06
0.124119
-0.00047273
-0.000683769
2.43912e-06
0.000244589
0.242338
-3.2153e-07
-0.000419859
-7.39183e-05
-0.00575033
1.47814e-06
6.57554e-07
-0.210786
-0.0645118
-1.77954e-05
0.00989234
0.00161263
-1.69259e-06
-0.329059
-0.473778
3.75418e-07
-0.0405331
1.73494e-06
5.03269e-06
-0.00097736
-0.2345
-2.13787e-06
0.0808253
-1.86631e-05
7.79805e-06
0.0112867
4.11841e-06
-0.00374948
1.60041e-06
-0.000885571
-1.15406e-06
0.0149855
4.41207e-07
0.00139862
5.0385e-07
-2.15766e-05
-0.00051238
0.316936
-0.000832731
0.388422
7.91148e-05
-0.469594
0.0718732
-0.146819
1.90446e-06
-0.287352
0.00557323
-0.200001
0.261825
1.47834e-05
2.67282e-06
9.09245e-07
-0.145422
6.27742e-06
2.62922e-06
-0.191672
3.56628e-07
-0.384092
-1.50719e-05
0.00977464
1.09169e-05
3.56528e-07
-0.00826395
3.90504e-06
-0.00181728
6.5955e-06
0.000429866
0.0016335
-0.00187625
2.15936e-06
8.33147e-06
0.355958
-0.511776
1.02808e-07
4.31288e-05
-0.000139603
-1.33489e-05
0.0458693
-0.149048
0.437502
-0.00513722
0.0900839
0.322267
-0.018336
1.65296e-06
2.44518e-06
-7.20322e-06
-5.57711e-08
0.000967607
0.207555
-0.183866
1.21819e-06
-6.60768e-06
1.72632e-05
-2.06631
0.211698
0.00374991
0.160942
1.60414e-05
0.22244
0.10363
-8.46962e-06
-0.188
-0.00107501
-1.39355e-06
-0.120547
0.193624
-1.11911
3.8454e-07
-1.56396e-05
4.50157e-05
-0.389286
3.90246e-06
1.41639e-05
3.89304e-07
2.22366e-06
-1.25948e-07
-0.0406671
-1.67829e-05
2.1322e-06
0.285865
1.23797e-06
-0.19649
-4.30235e-05
-0.0951641
-0.279742
1.1889e-06
0.547083
0.161201
-0.0907066
3.53192e-06
4.33697e-05
-8.36601e-08
1.19674e-05
0.187555
-0.0123793
0.00132525
8.60895e-06
2.51467e-07
0.125999
3.39867e-06
8.27295e-08
4.09942e-05
-1.00964e-06
-0.227353
1.09566e-06
0.00593807
-0.0380586
4.88703e-06
9.45794e-07
-0.377111
2.00193e-06
-1.76769e-07
-0.176096
-1.83562e-05
-1.22164e-05
0.00149393
0.00265073
0.434494
5.2268e-05
1.59168e-06
-4.58936e-06
-0.0938228
-0.0107503
-3.5187e-06
0.000129936
7.15641e-06
-2.56663e-08
-8.60525e-06
-1.4751e-06
-0.0375616
0.000114688
1.37864e-05
-3.996e-06
4.74224e-07
8.96832e-06
2.52545e-07
1.53732e-06
0.00981761
-0.0773543
-0.135581
0.00395086
0.303386
-0.27998
-1.39586e-05
0.136414
-3.31936
0.327895
-3.63438e-07
9.30075e-07
-0.000744359
9.49557
0.0109259
0.0264131
0.142795
1.2354e-06
2.87747e-06
-0.372813
1.88367e-06
-0.0126156
-0.00187623
1.25972e-05
0.293871
0.0189228
2.35762e-07
-0.183542
-0.302827
0.0140747
0.0275885
1.30425e-05
1.18067
0.00773043
-0.178852
1.64964e-06
-0.0112196
0.639691
1.93562e-06
-0.000503374
7.59401e-07
-0.000192367
1.11541e-05
0.191861
-1.21795
9.83844e-06
2.60195e-05
1.13555e-05
0.113589
-0.000388074
1.55193e-05
1.36147e-05
0.216984
5.37383e-06
2.4782e-05
0.00700219
-0.0227504
-7.25267e-06
-0.00637832
0.000232437
-1.7282e-06
-0.0108993
-1.32026e-06
-2.3347e-06
0.000139779
-2.75562e-06
0.000420926
-0.134648
-0.00638667
-1.46037e-06
-0.470734
0.453533
-0.00165408
0.198939
-0.000462866
3.39825e-05
-0.00573749
0.000135964
-9.28735e-06
0.000322755
-0.000789595
9.64725e-07
1.67395e-06
1.226e-06
0.00897658
-0.115749
0.362708
-0.404846
2.02826e-06
-0.000131058
0.0010133
0.0281453
0.0222277
1.09139e-06
-0.186649
-7.35302e-06
0.269165
1.70648e-06
-0.307928
4.75741e-06
-0.472397
-0.0699633
-0.00204219
-0.151831
0.00103669
1.80694e-06
0.00436051
0.0446937
-0.165638
1.95728e-05
-4.3899e-07
1.3305e-06
1.50737e-05
-1.15903e-05
-1.29783e-07
-1.07545e-05
3.3512e-06
-0.0015785
-1.31038e-06
-0.158224
4.91219e-07
-0.214033
-2.42496e-07
-0.0141198
-0.428772
7.04873e-06
0.0278708
-1.61223e-07
6.39802e-06
-7.4183e-06
2.05235e-07
9.85564e-06
-0.198585
0.00433986
2.81218e-06
9.55188e-06
-1.00231e-06
-0.414488
-6.04921e-05
0.00526261
0.0012006
-2.00618e-07
-0.00128202
1.98405e-05
1.90486e-07
0.000808048
8.39402e-08
0.000744474
-0.313949
-1.35732e-08
-0.223469
3.12476e-05
7.41072e-06
1.72411e-06
-0.104775
-1.58484e-06
0.350157
0.00822877
-9.55643e-08
0.663929
0.00101063
0.0573967
0.000106353
-1.5098e-05
1.27178e-06
0.000484663
0.354575
1.31829e-06
0.000162211
7.85101e-06
-0.00580436
0.0111264
-0.115611
0.0389012
-0.0872623
0.00062623
0.099481
-7.37641e-06
-0.200535
-0.188809
2.03639e-05
0.0181716
-0.00328473
1.41147e-07
0.000271322
-1.52713e-06
5.42825e-08
-1.32843e-05
4.89888e-06
4.79673
0.0242795
-0.0110887
1.38562
1.26347e-06
2.69812
3.20796e-07
-2.57394e-06
-0.000390391
-0.0495024
-1.68121e-06
0.109799
0.0051618
-0.00871602
-0.170311
4.78545e-06
0.000338873
-0.339114
-0.00135836
-4.83932e-06
-0.124484
4.3244e-07
1.06055e-06
3.20572e-07
-0.0350337
-0.494725
1.06957e-06
7.71966e-08
-0.0894318
-0.391629
-1.15154e-06
2.17365e-07
-4.59309
0.293004
-2.35409e-07
0.273267
0.00288621
5.20589e-06
0.000359968
1.53779e-06
0.1338
4.72652e-07
0.0182242
0.117452
0.232965
-1.56664e-05
0.000145639
-5.98792e-07
2.67321e-06
0.111387
3.58252e-06
-0.818593
-0.482802
0.0014007
1.64036e-06
-5.90106e-07
0.0246441
0.015932
0.00167537
0.244311
0.00150824
-0.333757
2.17048e-05
0.169311
0.0662313
0.000114791
-0.192987
0.511997
-0.709541
1.50718e-05
0.000425473
2.39196e-06
0.844985
-0.103471
-0.334039
1.85636e-06
-3.11416e-06
1.27029e-06
-0.0284877
0.0849047
2.02627e-05
-7.28391e-06
0.0215174
-0.130772
9.21286e-06
-0.221448
-0.281423
-3.68488
4.34071e-07
0.494278
1.28014e-06
-0.292927
1.28455e-06
1.87657e-05
6.04038e-07
8.3209e-06
-0.789106
-0.33762
2.61191e-07
-0.112393
0.137222
1.9206e-06
-3.91292e-07
0.00112087
-0.004464
-0.00672222
0.000223996
-0.0335759
-0.213528
0.144236
0.360796
-0.00754563
8.98036e-06
-0.0137831
0.00271397
0.0113267
0.36192
-0.0894703
-0.00845422
-0.00163575
-1.15487e-05
0.135847
0.00505356
-0.286958
1.98795e-07
-3.00533e-05
0.235487
1.28111e-06
-3.19816e-05
0.0440237
-1.13328e-05
-0.000337498
1.39976e-05
1.53079e-06
-0.272233
0.224435
-8.467e-07
-4.61718e-05
-0.138257
-0.0771502
0.000432833
0.00396356
-0.238617
3.15402e-05
-0.0086467
0.102077
2.56227e-06
-0.272484
-0.00839933
-0.23369
1.89093e-07
2.86656e-06
1.01133
0.0590327
0.126834
0.089844
0.303796
-0.00195917
-0.00273836
-7.51627e-06
0.0931993
-5.87271e-07
9.45534e-07
-0.00106057
-0.000202681
0.00277401
0.146362
1.14581e-05
-0.0262498
-0.289156
1.02807e-05
-0.00425085
-1.20189e-06
-0.223499
0.00311942
-0.00036073
-0.295901
0.109536
0.131004
-0.00518026
-4.53847e-05
1.09117e-06
1.44762e-05
5.03611e-05
-2.01329
0.0951753
0.109163
-0.409871
-0.000143965
3.49081e-06
-0.100552
-0.000215318
0.0397515
1.21475e-06
0.430602
0.000261163
-0.0880031
1.23506e-06
0.66199
0.000190187
-0.00366443
-5.58183
-1.62885e-06
-0.441959
-0.113667
3.47271e-06
0.00121586
-0.227956
7.73572e-06
-0.344259
4.3914e-05
1.38606e-05
2.12916e-08
-0.486349
-0.000161402
-0.0959042
9.07302e-05
-0.199655
2.26202e-07
2.15989e-06
4.39169e-06
1.4734e-06
6.88791e-07
0.194836
-0.102198
-0.237407
1.17718e-07
6.9263e-08
0.0165539
6.84519e-05
0.0615609
-0.00769032
2.92128e-06
-0.021101
-3.19682e-06
-0.000383998
-0.159138
0.000114599
0.148942
0.220385
-7.74593e-06
7.01658e-07
0.0656483
1.20145e-06
0.220268
0.211535
-0.00876615
3.05127e-06
0.140628
-0.104077
-3.06268e-06
-0.340782
-1.17282e-08
0.0346904
0.215332
-3.20165e-05
-1.11005e-05
-0.000363552
-0.000174002
3.77951e-06
-3.61261e-07
-2.55667e-07
-0.0390561
-0.00021067
-0.00602702
-0.00373176
-0.0792993
-1.00309
0.00216245
9.31995e-06
-0.0116369
-0.285558
1.56381e-05
6.58647e-06