/*--------------------------------*- C++ -*----------------------------------*\
| =========                 |                                                 |
| \\      /  F ield         | OpenFOAM: The Open Source CFD Toolbox           |
|  \\    /   O peration     | Version:  v2012                                 |
|   \\  /    A nd           | Website:  www.openfoam.com                      |
|    \\/     M anipulation  |                                                 |
\*---------------------------------------------------------------------------*/
FoamFile
{
    version     2.0;
    format      ascii;
    class       surfaceScalarField;
    location    "300";
    object      meshPhi;
}
// * * * * * * * * * * * * * * * * * * * * * * * * * * * * * * * * * * * * * //

dimensions      [0 3 -1 0 0 0 0];
oriented        oriented;


internalField   nonuniform List<scalar> 
27284
(
0.000120219
-0.000198992
7.88403e-05
-0.000100119
9.19778e-05
1.12999e-05
7.12051e-05
5.97776e-05
-0.000130957
-6.43692e-05
0.000101855
-2.99217e-05
1.13141e-05
0.000211387
-0.00022153
-0.000220535
-6.23064e-05
0.000283588
0.000137091
-0.000218438
8.29596e-05
0.000220623
-0.000208164
-1.59827e-05
2.15395e-05
2.76706e-07
0.000150824
-0.000177414
2.7203e-05
0.00032567
-0.000110477
-0.000214341
0.00012395
-6.00876e-05
-6.38405e-05
4.37992e-05
8.017e-05
8.69678e-05
0.000158363
-0.000245038
-3.70895e-05
3.65477e-05
6.7551e-06
5.42867e-05
-7.33036e-05
2.11994e-05
-8.64524e-05
3.10846e-05
-6.60385e-05
0.000273012
-0.000206005
7.67713e-05
7.98362e-05
-0.000156561
0.000128336
7.25188e-05
-0.000199364
9.96039e-05
-0.000223691
0.000124197
5.53931e-05
-0.000262553
0.00020853
-3.65096e-05
7.35925e-05
-3.2817e-05
5.38522e-05
-0.000273742
2.72751e-05
-5.99344e-05
0.00019862
-0.000271625
7.49439e-05
5.78784e-05
0.000174071
-0.000229723
-0.000165133
1.80464e-05
0.000154228
-1.17724e-05
1.11076e-06
0.000305168
-0.000119111
-0.000185436
0.000121962
0.000103366
-0.000225232
8.79563e-05
-0.000247582
0.000159933
-6.88074e-05
-9.71694e-06
8.00268e-05
4.04488e-05
3.63613e-06
-4.22579e-05
1.87066e-07
1.59289e-07
-2.16236e-07
0.000169399
-0.000229975
6.17702e-05
0.000111908
8.35737e-05
-0.000195231
-2.38422e-05
0.000194478
0.000105077
0.000200698
-0.00027074
0.000235652
3.64959e-05
1.98483e-05
2.20019e-05
-2.70128e-05
0.000207233
6.8087e-06
4.21305e-05
-4.71043e-05
8.20454e-05
-9.94529e-05
2.06082e-05
-1.48454e-05
8.06314e-05
-0.000103014
2.23898e-05
-0.000161979
-2.36411e-05
0.000190385
2.14938e-05
-0.000178672
-0.000148569
0.000269695
-4.41272e-05
-0.000222653
1.17713e-05
-5.80772e-06
-4.07339e-06
0.000126785
-0.00020838
8.16294e-05
0.000221747
5.05085e-05
-9.3004e-05
0.00016653
-7.34639e-05
0.00026541
-8.20513e-05
-0.00017732
-8.40534e-05
0.000213972
3.32536e-06
-1.4955e-06
-1.00575e-06
-0.000234603
0.000272396
-7.22099e-05
-9.58818e-05
3.36562e-05
6.22301e-05
4.91179e-05
5.49662e-05
7.06637e-05
-0.000125588
-0.000181734
8.88146e-05
0.000121107
-4.06007e-05
-7.93801e-05
1.02598e-06
0.000168526
-0.000169335
-1.12082e-05
1.03644e-05
2.83836e-06
-3.99422e-05
-0.000146304
0.000186779
-4.05858e-05
0.000152704
3.60857e-05
5.25542e-06
-3.97956e-05
-0.000290899
0.000195187
9.6319e-05
-0.000164204
0.000213048
-4.62021e-05
0.000131202
0.000138656
-4.24243e-05
0.000228908
-0.000186127
0.000283923
-7.04153e-05
-0.000212609
-2.89827e-05
0.000198989
-0.000169131
4.06655e-05
6.39133e-06
-4.53796e-05
-0.000206456
-2.80977e-05
-3.56934e-06
4.59464e-05
-0.000200154
3.86385e-05
0.000179096
-0.00020716
0.000166206
-0.000205566
-0.000168484
0.00024028
-7.10165e-05
4.40523e-05
-0.000183281
-1.62935e-05
0.000200103
-0.000232875
0.00010011
0.000132945
7.14868e-06
2.60266e-06
-6.31735e-06
4.17343e-05
-1.85103e-05
-1.30657e-05
5.37622e-05
-0.000186225
0.000132679
0.000174256
1.4708e-05
-0.000184547
-0.000142198
0.00019619
-2.58242e-05
-0.000185881
0.000271798
-0.00018278
-8.88798e-05
9.91852e-05
-0.000266746
-0.00024719
0.000205754
0.000307647
-0.000117582
-0.000189513
-0.000123734
4.61377e-05
7.86396e-05
0.000169704
-5.2303e-05
-0.000112516
-3.88045e-05
-8.37009e-05
-2.42304e-05
0.000141234
-0.000116918
-0.000205282
-2.18697e-05
0.000228464
-0.000148142
-8.45451e-05
-0.00016931
-2.78978e-05
-4.37463e-05
-0.000200653
-9.09361e-07
1.33301e-06
-2.98076e-07
-3.99772e-06
0.0001887
-0.000184202
8.33831e-05
-2.6368e-05
0.000184027
-0.000182766
9.12264e-05
0.000216863
-0.000228714
0.000116431
0.000112519
2.18968e-06
5.36188e-05
-5.37525e-05
2.70347e-06
1.38692e-06
3.19542e-06
-2.87768e-06
1.30477e-06
-3.19256e-05
0.000186247
-0.000153926
1.97707e-05
-0.000202506
9.46115e-05
-0.000116515
2.19127e-05
0.000230548
-5.42554e-05
-0.000175839
-0.000211115
4.4823e-05
-3.13893e-05
0.000211361
-3.5576e-05
0.000222986
-0.000186641
-0.000296107
0.000150388
-0.000128721
-0.00016156
-4.85107e-05
0.000119737
-0.000243772
-0.000225155
0.000110776
0.000114578
0.000162216
-0.000192819
-9.17204e-05
8.08412e-05
1.08871e-05
0.000196901
-6.45067e-05
-1.30924e-05
0.000201349
-8.10742e-05
-0.000258902
0.000238066
2.25108e-05
4.62789e-05
0.000128202
0.000247659
-0.000120837
0.000248056
-0.000163645
-8.13364e-05
-0.00017843
8.08404e-05
9.76524e-05
6.18884e-05
-0.000159937
9.81269e-05
-0.000149791
-1.71594e-05
0.000170734
0.000153955
-7.71441e-05
-0.000168506
-7.26288e-05
0.000241672
-6.73055e-05
-2.36341e-06
8.12609e-05
0.000127896
0.000144018
5.12322e-06
-0.000141836
0.000137043
-4.13925e-05
-0.000178418
0.000220831
0.000153559
-0.000182885
3.3615e-05
-9.34785e-05
-0.000143667
-0.00011891
0.000180891
-5.07167e-05
3.5965e-05
2.42451e-05
3.66365e-05
6.29562e-05
-9.95876e-05
3.18465e-06
-1.16504e-06
-1.99593e-06
0.000164802
-0.000196307
-3.52824e-06
5.28197e-06
-1.76211e-06
-0.000154421
-3.00677e-06
-0.000118547
-0.000176883
0.000142257
-4.42486e-05
-9.66374e-05
4.11033e-05
0.000170118
-0.000209966
5.32182e-05
-9.21921e-06
-4.26868e-05
2.52451e-05
2.15487e-05
1.35498e-05
-6.90294e-05
-1.667e-06
1.15308e-05
-8.5857e-08
0.000156756
-1.71284e-05
-2.03522e-05
-0.000253022
5.53804e-05
0.000198443
7.103e-05
0.000179684
4.49626e-05
-4.11463e-05
4.32693e-05
0.000176663
-0.000218883
-0.000274463
7.00854e-05
0.000205197
-0.000108466
0.000155692
-4.6654e-05
-4.41785e-05
8.08192e-05
-8.02636e-05
0.000196021
-0.000115696
-0.000149402
-7.31947e-05
0.000222668
0.000166207
-0.000160695
2.15477e-06
1.80905e-06
-2.50504e-06
-8.83008e-05
-9.00592e-05
4.53535e-06
4.12858e-06
-5.50329e-06
0.000112414
-0.000260979
7.83791e-07
8.71795e-07
-1.05596e-06
-1.96978e-05
-1.87325e-05
-1.51182e-06
6.21331e-06
-1.63438e-06
7.63563e-09
1.65242e-06
-0.000256528
0.000132992
0.000124209
-6.81115e-05
-0.000123766
0.000192245
5.00291e-06
5.04903e-06
-6.43174e-06
-0.000146847
3.89675e-05
0.000221768
1.80027e-05
-0.000238335
-3.33058e-05
0.000166918
-0.000128264
0.000145122
-0.000119973
-2.43462e-05
-0.000242683
0.000201712
-1.25275e-06
-1.08456e-05
1.6644e-05
-5.06627e-05
0.000200857
-0.000149936
0.00019151
-3.83661e-05
-0.00014432
0.000192912
-1.66648e-05
8.1559e-06
-9.98676e-05
-0.00013461
0.000110459
0.000119719
-9.58021e-05
-2.06386e-05
-4.06275e-05
-6.26635e-06
4.81327e-05
7.20591e-05
-8.60323e-05
2.84106e-05
7.84001e-05
-0.000120974
4.2586e-05
8.47486e-06
5.13455e-06
0.000119882
-0.00019835
7.85175e-05
-8.14001e-06
0.00010336
0.00029502
-0.000207684
-2.83573e-05
-0.000211679
3.84044e-05
0.000227274
-0.000264551
0.000298628
-0.000192943
-9.35719e-06
-8.75004e-07
1.40753e-05
-0.000197583
0.000117382
8.29234e-05
-0.000271646
0.000190612
6.541e-05
-0.000214743
0.000110467
-0.000138981
7.35052e-05
-8.82388e-05
1.63809e-05
0.000146571
-4.0073e-05
-0.000104993
0.000215828
-0.000226892
1.28272e-05
-0.000223705
0.000267681
-4.3244e-05
-0.000155161
4.34345e-05
0.000113023
-5.3476e-05
-0.000100404
2.2264e-06
1.02136e-06
-0.00016594
0.000278395
0.000137893
-0.000205613
0.000143004
-0.000166509
2.37677e-05
-0.000293978
8.38023e-05
0.000212029
-0.000217356
6.83717e-05
0.000153482
-9.24894e-05
-0.000135975
3.3631e-05
6.96734e-06
-3.94954e-05
0.000134621
5.24752e-05
-0.000186878
-1.31002e-05
9.30298e-05
-7.91175e-05
-0.00028349
0.000236793
4.73594e-05
4.60686e-05
-0.000177614
0.000132847
7.21035e-06
3.7195e-05
-4.32356e-05
6.26093e-05
-0.000230708
-0.000108761
0.000221828
-0.000112979
-2.50264e-05
0.000210588
-0.000185196
0.000146594
-0.000171942
2.70287e-05
0.000162647
-1.47597e-05
-7.28835e-05
8.80702e-05
4.19571e-05
-0.000170766
0.000215061
-0.000232835
-4.98737e-05
0.000258665
-5.59971e-05
-0.000201542
8.87951e-05
-3.13604e-05
0.000149839
-0.000118211
-0.000148678
9.63658e-05
0.000136722
-4.45638e-05
-8.89376e-05
-0.000134093
-0.000121853
-4.52766e-05
-0.00010203
0.000198206
-1.56582e-05
-0.000182202
-0.00020903
0.000251388
-7.20064e-05
-0.000173392
-2.00117e-05
0.000165786
-0.00014083
-0.000267454
4.44946e-05
-0.000180791
0.000262873
-8.16123e-05
-0.000241558
0.000210835
3.36093e-05
4.09143e-05
8.12592e-05
8.75052e-05
-6.75106e-05
0.000117835
-5.03016e-05
8.47068e-05
-9.69658e-05
-1.28418e-06
-2.62017e-07
-3.86355e-06
9.02559e-05
-8.55574e-05
0.000123542
-0.000154629
5.85677e-05
-5.23191e-05
6.87407e-06
-0.000142033
0.000189541
4.62159e-05
0.000102098
-0.000143825
-4.03432e-06
5.11351e-07
-0.000190877
4.21563e-05
0.000149567
0.000207227
-0.000112909
-9.42285e-05
-0.000188375
0.000128464
6.00564e-05
0.000203121
9.60727e-05
5.38715e-05
0.000206853
-0.000259993
-3.81427e-05
0.000220187
-0.000180934
-5.10846e-05
-0.000100125
0.00015129
-9.48327e-05
0.000145444
0.000174941
1.80994e-05
0.000181789
-0.00019789
-4.91037e-05
-7.3703e-06
5.82776e-05
-0.000217776
0.000257273
0.000165377
-2.21432e-05
1.10706e-05
0.00013491
-0.00013861
-1.58769e-06
-0.000204538
0.000207773
0.000349363
-0.000138742
-0.000209887
2.6381e-05
-0.000172349
-0.000188472
0.000100983
8.75866e-05
-0.000296394
5.55469e-05
0.000345863
-0.000141582
-0.00020338
-1.62462e-05
0.000233752
0.000265468
-7.57596e-05
-0.000189215
-5.48355e-05
7.49239e-06
-0.000201396
0.000140376
6.12334e-05
0.00021289
3.403e-05
-0.000244794
-0.000291132
0.000157649
0.000133897
5.35012e-05
-2.03671e-05
-0.000152795
-3.90189e-06
-6.22182e-07
8.08414e-06
-7.54223e-05
2.61342e-05
-0.000130997
0.000104954
-0.000194969
0.000210697
-1.48647e-05
-0.000190058
5.89226e-05
0.000132421
0.000195778
-0.000232756
-1.10708e-05
-1.95614e-05
7.82151e-06
-4.72483e-05
-8.39915e-05
-0.000104372
0.000221908
-0.00022172
0.000179795
8.47357e-05
-0.00019351
0.00010902
-0.000257448
-1.93478e-05
0.000169303
-0.000149776
7.26977e-05
7.72089e-06
0.000243841
-0.000250483
0.000139408
0.000210633
0.000192781
-0.000225152
3.52528e-05
0.000174128
1.80151e-05
-0.000191758
-9.05411e-05
-9.76502e-05
0.000123774
-9.7552e-05
1.67961e-05
7.18302e-05
-8.81601e-05
-3.90166e-05
-6.85325e-05
0.000107562
-0.000268212
0.000149571
0.000121807
-0.000211857
-4.83511e-05
0.000261572
0.000105082
-0.000183623
7.86242e-05
0.000127405
0.000138455
-0.000102101
-0.000162177
0.000187466
-0.000161005
2.15683e-05
0.000141406
-0.000157375
-9.92679e-05
-4.73451e-05
0.000146686
-0.000106399
6.7396e-05
6.54551e-05
6.61232e-05
-0.000131565
-6.71765e-05
8.44272e-05
0.000207818
-3.30295e-05
-0.000125795
0.000159137
5.7475e-06
0.000186008
-0.000190831
4.48115e-06
-3.58894e-06
-7.29816e-07
-0.000229287
-4.01869e-05
-0.000174531
-0.000233008
8.39786e-06
0.000228134
0.00017352
-1.1638e-07
4.14167e-07
-0.000171046
-3.51312e-05
0.000206702
1.59619e-06
-7.13101e-05
7.18349e-05
0.000278792
-0.000115693
-8.04992e-05
8.20104e-05
1.08696e-05
-4.14142e-05
-0.000227689
-2.50791e-05
-0.00022765
0.000253759
0.000123592
-5.32724e-05
-7.02983e-05
-0.000114299
-8.50038e-05
0.00019936
-0.000180784
0.000165439
1.70466e-05
-8.37597e-05
0.000262209
-0.000211162
-4.9535e-05
0.000190152
-1.1511e-05
-1.35975e-05
-0.00021587
-0.000238204
0.000215638
2.40135e-05
1.20839e-05
0.000139354
2.16207e-05
0.000171339
-0.000188849
3.66057e-05
-4.31196e-05
1.73862e-05
-4.68919e-06
1.27525e-06
3.4431e-06
4.88764e-05
0.000189951
-0.000237465
-2.04722e-05
-0.000167137
0.00019144
-6.68972e-05
0.000119727
-5.28118e-05
-0.000226307
-1.06421e-05
-1.63648e-05
0.000156109
-0.000134777
-0.000212403
3.02306e-05
0.000184362
-2.12637e-05
0.000179264
5.33702e-05
-1.83295e-05
-2.22594e-05
0.000161031
-0.000181938
-3.5947e-05
-7.0855e-06
4.39065e-05
-9.87231e-06
5.46145e-05
-0.000233416
2.95406e-05
-3.92431e-05
-5.66353e-05
-1.17653e-05
9.03067e-05
-7.80272e-05
6.83681e-06
-4.19102e-05
0.000161105
1.28761e-05
-0.000169104
-0.000272273
0.000222602
5.09745e-05
-0.00010885
0.000135045
-6.58438e-06
8.75628e-06
3.45152e-07
-3.17137e-05
0.000200184
-0.000167779
7.76319e-05
-8.89136e-05
0.000344204
-0.0002041
0.000216906
-0.000218277
4.9124e-06
0.000105129
0.000154458
0.000113261
-6.94432e-05
0.000164145
-5.18848e-05
-0.000110888
-9.13946e-05
8.83642e-05
0.000184348
-9.8724e-06
-6.74847e-05
8.29201e-05
-1.36332e-05
-0.000266036
-5.02258e-06
-0.000136557
0.000231518
-9.39552e-05
0.00021263
2.62759e-05
-0.000237323
7.52931e-06
-4.55241e-05
4.7417e-05
0.000204841
-0.000269951
2.37604e-05
-2.64102e-05
9.5698e-06
-0.000218002
-2.06756e-05
0.000240076
-1.37637e-05
9.70195e-05
0.000199781
-0.000206695
7.17777e-06
9.82552e-05
0.000289025
-0.000103374
-0.000184993
-3.98129e-06
-5.28034e-06
0.000129598
-0.000262189
4.55366e-05
-2.17631e-05
-0.000177755
0.000201251
-2.27483e-06
-0.00010028
0.000102608
-7.42515e-05
-3.09986e-05
0.000105256
1.48307e-05
7.59096e-05
3.01584e-05
0.000158926
-0.000187436
-0.000127447
5.99631e-05
-7.4235e-05
0.000255874
-0.000180195
-5.30561e-06
-6.47986e-05
-8.64895e-08
8.64896e-08
0.000198132
-0.000106481
-9.15297e-05
6.43887e-05
0.000135003
0.000158594
0.000186316
-0.000137429
-7.95768e-05
-0.000280012
7.80251e-05
0.000202774
-0.000149458
0.000155944
-0.000271591
0.000258346
1.3966e-05
8.36551e-05
-0.000197892
5.82863e-05
0.000105756
-0.000163953
-9.54624e-07
1.12504e-07
5.76537e-05
7.74506e-05
-0.000135097
-0.000239109
0.000218624
-0.000114991
0.000132722
0.000215743
-0.000116026
8.91908e-05
4.27076e-06
-0.000167449
-9.70292e-05
-3.9354e-06
1.70787e-06
2.22835e-06
1.90497e-05
0.000165176
0.000109515
-1.15556e-05
-0.000166273
7.80331e-05
0.000184805
-0.00012532
-5.90744e-05
0.000205236
-9.11249e-05
-0.000114015
0.000262911
-0.000195679
-6.46309e-05
-0.000131044
7.52961e-05
5.85865e-05
9.24093e-05
0.000173864
-0.000208736
0.000139862
3.57237e-05
-0.000173536
-5.68286e-05
-0.000119925
-0.0001446
-4.5416e-05
1.59481e-05
-0.000124129
6.72342e-05
0.000106063
-0.000108282
-4.77719e-05
-8.03361e-05
-0.000293155
5.13061e-05
0.000243184
4.86558e-06
-0.000185294
-0.000183011
-5.86802e-05
0.000241741
-0.000175991
9.37496e-05
8.23733e-05
-0.000185529
0.000235746
0.000260076
-6.46982e-05
0.000104077
-0.000161703
5.77445e-05
5.45217e-06
-2.74983e-05
2.77636e-05
5.81254e-05
1.02195e-05
-6.68462e-05
-0.000163042
-4.67361e-05
-3.38749e-05
-0.000101522
2.72758e-05
1.15416e-05
-7.72513e-05
6.90845e-06
-1.59976e-06
-1.85412e-06
-5.18501e-05
-1.17137e-05
7.53951e-05
8.69248e-05
3.66848e-05
8.59629e-05
-0.000221495
-8.27891e-06
-3.8499e-05
4.79029e-05
-0.000259846
9.3949e-05
-6.65698e-05
-0.000198963
0.000256691
-5.51754e-05
-8.74562e-06
8.71539e-05
-7.88443e-05
0.000133853
0.00026106
-3.78032e-05
-8.07862e-06
3.75537e-05
-8.14477e-05
-9.44029e-05
-8.6785e-05
-2.70795e-06
8.95085e-05
0.000150327
8.17133e-05
-0.000231993
6.67488e-05
4.92437e-06
-6.99054e-05
-9.99135e-05
-0.000103479
0.000203427
-7.1277e-05
1.52572e-05
8.01209e-05
-6.00497e-05
-0.000119625
0.000179834
-0.000229152
4.45935e-05
0.000185254
-4.12504e-06
0.000204144
0.000177204
-0.000219289
0.000171085
0.000214987
6.98175e-05
-0.00014228
0.00019873
-0.000124458
5.75801e-05
3.79417e-05
0.000185779
0.000175072
-7.87691e-05
-9.61341e-05
4.45438e-05
-0.000237823
0.000194599
5.90039e-05
8.8465e-06
-6.62253e-05
-0.00027193
0.000139698
0.000133434
6.55634e-05
-4.92275e-05
0.000129006
-7.97398e-05
8.79694e-05
-0.00011896
0.000183762
-0.000164513
0.000210662
6.32512e-05
-0.000283169
6.44987e-05
0.000220473
0.000235809
4.90364e-05
9.88485e-05
0.000189045
-0.000180516
3.89046e-05
8.73161e-05
-0.000125032
7.28761e-06
3.10248e-05
-3.76315e-05
5.89031e-05
0.000161099
-0.000214101
0.000189334
-4.87594e-05
9.20561e-05
-8.17599e-05
0.000121827
-0.000185206
0.000120894
6.43324e-05
0.000181516
-6.15822e-05
-7.65758e-05
-0.000215322
-4.19868e-05
5.14816e-06
4.56223e-06
0.000166214
1.72996e-08
-3.35065e-06
-5.89635e-07
-8.18635e-05
-4.40733e-05
0.000125958
4.52843e-05
-0.000256036
-2.40271e-05
0.000211425
-0.000186847
0.000218156
3.52902e-05
-0.00025262
-0.000231745
2.09874e-05
0.000211627
0.000219169
-4.57831e-05
-0.000172912
5.57683e-05
-7.25435e-05
1.67773e-05
-6.72459e-05
-0.000108707
0.000176178
0.000198805
-0.000274067
7.72058e-05
7.96614e-05
1.49967e-05
-9.45184e-05
3.006e-05
2.0604e-05
0.000111072
-8.57305e-05
0.000143392
0.00017947
-0.000162525
-1.66862e-05
-0.000220782
-7.11765e-05
6.91669e-05
-1.33966e-05
0.000142521
-4.73508e-07
-7.69495e-05
-8.92571e-05
-9.23332e-05
0.000180519
-5.93882e-05
-1.4914e-05
7.46167e-05
0.000225322
-0.000186631
-7.38292e-05
-0.000196541
-0.000229473
-2.51336e-05
0.00025755
-0.000143362
0.000185806
-4.19162e-05
-0.000160024
1.6117e-05
-7.51884e-05
0.000173498
-0.000119615
-5.34586e-05
0.000256986
-2.86082e-05
7.85064e-06
-0.000234492
0.000179535
-0.000195313
-0.000231385
0.000164968
0.000209271
5.01631e-05
-0.000258124
-9.56892e-05
0.000112303
-0.000278105
4.56131e-06
8.34141e-05
0.00021253
1.77188e-05
-0.000230071
0.000294744
-5.47915e-05
-0.0002389
-0.000194434
-5.27603e-05
-2.59904e-05
0.000191222
0.000162661
-0.000181682
-4.37627e-06
0.000182414
-0.000173642
8.60184e-05
0.00020963
0.000217831
-0.000272798
5.59952e-05
0.000245064
-3.01253e-05
-5.90002e-05
-0.000166398
0.000151353
0.000127916
4.69615e-05
0.000120206
-0.000162425
0.000225417
-1.26972e-05
0.000209141
6.28153e-05
-0.000270822
3.85111e-05
-0.000122504
8.40361e-05
5.9827e-05
5.34496e-05
-0.000150906
0.000150215
0.000208926
-0.000188592
8.09159e-05
0.000120486
-0.000133445
0.000197632
-3.99674e-05
-6.74356e-05
0.000107409
6.02985e-05
-4.21454e-05
0.000230359
-5.88846e-05
-0.000171319
0.000116959
-0.000183964
-2.25975e-05
5.9556e-05
0.000172476
-0.00019802
9.02219e-05
-0.000105154
0.000163528
-8.28666e-06
2.67742e-06
-8.25343e-06
4.27e-05
-3.30768e-05
0.000105477
5.63079e-05
-0.000161652
7.67718e-05
0.000102923
-8.53857e-05
0.000123941
0.000169605
-0.00013132
-3.0227e-05
-4.7091e-05
0.000117789
-0.000107838
0.000159321
4.85847e-05
-0.000130426
-2.11328e-08
-2.4377e-08
-0.000238217
7.41262e-05
0.000166711
-4.18468e-05
0.000116084
-7.42205e-05
-5.18934e-05
-0.000151212
0.000204463
-0.000266005
3.42421e-05
2.11092e-06
-8.08719e-07
0.000212994
-3.03455e-05
-0.000182118
0.000185386
-5.76616e-05
-0.0001264
3.72981e-05
-0.000207806
0.000121599
-5.61341e-05
-0.00023513
9.7874e-05
0.000137624
1.44585e-05
7.93272e-05
-2.78159e-06
3.853e-06
5.27069e-08
0.000155182
-2.85957e-05
0.000235049
-0.000204981
-5.96842e-05
-0.000175023
-3.64494e-05
-5.20931e-05
8.85453e-05
8.94692e-05
-2.69002e-05
-5.93709e-05
8.81678e-05
-7.28995e-05
0.000206727
-0.000242897
3.79709e-05
5.41364e-06
-1.86357e-06
5.91274e-05
-0.000213226
0.00015453
2.82709e-07
-3.62016e-06
4.18718e-05
0.000123643
-0.000224886
0.000147778
7.7252e-05
3.38339e-05
0.00014347
-0.000175818
-6.98185e-05
0.00012939
-5.94671e-05
0.000183449
-6.83935e-05
-0.000114751
3.35981e-06
0.000140825
0.00020358
-0.000133809
-6.9717e-05
-0.000192612
-2.34592e-05
-0.000161726
-0.000215703
4.70144e-05
0.000168998
-0.000248922
-9.09866e-06
0.000259706
0.000209051
-3.78994e-05
-0.000165178
7.84954e-05
0.00013712
0.000194577
-0.000264178
0.000136184
-0.000230507
9.53614e-05
-2.86935e-06
-9.90481e-07
-6.02989e-05
0.000184818
-0.00012439
-0.0002231
0.000127266
9.58573e-05
-0.000182178
-5.3192e-05
-5.96625e-05
-0.00019069
0.000250438
-0.000242591
0.00018475
6.25736e-05
-0.000246659
-4.82019e-05
0.000120423
-7.22037e-05
-4.46243e-06
6.41006e-05
-0.000144423
-5.44833e-05
-1.80243e-05
7.48234e-05
-5.65363e-05
-1.85629e-06
-8.23646e-07
2.74984e-06
0.000124278
5.94793e-05
0.000186028
-0.000117618
-6.82871e-05
-1.62509e-05
-6.81108e-05
8.43688e-05
-0.000168556
0.000206401
-0.000147577
-2.65034e-05
0.000176259
-0.00016021
1.17278e-05
-4.19596e-06
2.69162e-05
0.000118934
4.4697e-05
-0.000143891
-0.000275616
0.000187625
8.99931e-05
0.000229128
-0.000191162
-3.69539e-05
0.000121394
-0.000181569
-0.000219671
7.96481e-05
-2.26341e-05
-0.000163462
0.000188468
-5.97711e-05
0.000163963
-1.80781e-05
-7.84186e-05
9.65051e-05
-0.000191961
4.91045e-05
0.00015575
2.235e-05
-0.000177068
-0.000165072
-2.61382e-05
0.000163123
3.79477e-05
-0.000228563
2.21581e-05
0.000185444
0.00013744
3.68235e-05
-0.000169906
0.000211085
-0.000233199
2.26713e-05
3.81051e-05
-0.000206091
0.00019655
-0.000154273
6.8274e-05
7.40231e-05
-0.00014222
8.73414e-05
0.000177649
-0.000185347
7.66619e-05
7.32795e-06
-4.73284e-05
0.000283508
-0.000242478
-3.93456e-05
-3.31718e-05
-0.00011195
0.000145145
-4.94698e-06
7.13519e-07
0.000260062
-4.84486e-05
-4.23201e-05
-0.000138398
-8.63113e-05
0.000214936
1.23107e-06
-0.00021252
-4.83173e-05
-6.13537e-05
0.0001153
0.000127122
9.7998e-05
-0.000224664
3.3994e-05
0.000179505
-8.26444e-06
4.00844e-05
-3.08183e-05
1.26801e-05
8.4039e-05
-9.56973e-05
1.88366e-05
0.000190865
-0.000209218
1.24577e-05
0.000154133
-0.000271583
0.00016881
3.13845e-05
-1.02643e-05
-1.61084e-05
-0.0001529
-7.20456e-05
0.000116683
-0.000218665
0.000264143
-4.19788e-05
1.7906e-05
-0.000182171
8.58743e-05
-0.000221504
0.000210357
-0.000136606
-7.37222e-05
-7.74508e-06
4.15926e-05
-3.2938e-05
0.000139879
-8.00763e-05
-0.000121308
0.000214297
-8.87802e-05
2.33527e-06
-6.01556e-07
6.81683e-05
-0.000109999
-4.15234e-05
0.000232108
-0.000189862
-0.000225262
0.00016662
-6.21687e-05
-0.000208701
-0.000131326
9.01244e-05
0.000142818
6.75649e-05
0.000101968
-0.000219063
-4.8244e-05
-4.61165e-06
2.78356e-05
3.68997e-05
-3.62549e-05
0.000178106
6.97591e-05
0.000190763
-0.000133537
0.000199688
-0.000115972
7.76651e-06
-9.19718e-06
6.06297e-06
-8.8613e-05
4.86505e-05
0.000218987
3.32352e-05
-0.000250689
-0.000168161
0.000186915
-0.000199152
-9.7075e-05
-0.000205977
0.000258497
0.000206657
0.000181606
-3.4097e-05
-5.65752e-06
4.04847e-05
-8.39704e-05
-3.75799e-05
0.000121579
-0.000192623
0.000235474
-3.8155e-05
-4.84175e-05
5.84955e-05
-8.17338e-06
4.87777e-05
8.56193e-06
-5.61068e-05
-0.000185959
6.84522e-05
-0.000196342
0.000115991
-5.08297e-05
-6.51462e-05
-6.29253e-05
1.44623e-05
0.000109399
-0.000130595
0.000204384
-0.000266435
0.000219486
-0.000229159
-2.30072e-05
-4.96291e-05
-0.000147067
0.00019805
0.00019529
-0.000152236
7.79132e-05
-0.000128032
0.00018538
-7.44356e-05
4.57658e-05
-7.37726e-06
0.000228913
-0.000116454
8.82486e-05
-0.000106318
-4.95818e-06
6.70523e-06
-7.46874e-07
0.000140585
-0.000177007
3.71035e-05
6.98458e-07
-2.55823e-06
2.91022e-06
-8.62896e-05
7.19303e-05
-0.000140606
7.08885e-05
-2.06119e-06
2.48131e-07
-5.60998e-05
-0.000207465
-2.5184e-05
2.9279e-05
-0.000196611
6.63752e-07
-4.44436e-06
-0.000144762
0.000197472
-5.24058e-05
0.000188366
-0.000130796
-5.71208e-05
-0.000236625
0.000150244
8.65038e-05
-0.000211049
-5.56705e-05
-9.34102e-05
0.000166317
1.53384e-05
-7.80119e-05
6.30268e-05
-0.000110449
0.000117989
-7.5024e-06
7.74959e-05
0.000147811
2.95458e-05
-0.000254062
0.000134143
0.000120415
-0.000168972
2.34625e-05
-0.000219379
0.00025766
-3.59898e-05
-9.95748e-05
0.000274782
-0.00017107
4.73627e-07
-1.98942e-07
-2.79626e-05
-6.81825e-05
0.000170568
-0.00025063
-7.91865e-06
2.25029e-05
-2.93011e-05
1.2088e-05
3.84661e-05
-3.32347e-05
-2.59546e-06
2.9454e-06
2.61423e-07
0.000264588
-5.66148e-05
-0.000206486
-0.000110776
-0.000125717
2.22714e-05
-0.000132677
8.32201e-05
-0.000182115
0.000216622
0.000283149
-7.44251e-05
-0.000206774
-6.27557e-05
-0.000218448
0.000177342
-2.91585e-05
-1.70988e-05
-0.000199934
0.000254548
-1.8001e-06
3.98637e-05
-3.64294e-05
3.87449e-05
0.000127247
-0.000161248
-1.01147e-05
1.26345e-05
-0.000282736
6.91174e-05
0.000211417
4.79104e-05
-0.000258187
1.55688e-05
7.28568e-05
-8.75015e-05
-5.20781e-05
-6.44259e-05
4.77438e-05
0.000240486
-0.000142204
0.000119664
-0.000166978
-0.000115288
2.8519e-05
6.64857e-06
3.82793e-05
-7.09358e-05
8.74411e-05
-0.000263735
5.34897e-05
0.000261047
1.35137e-05
-8.35078e-05
9.92842e-06
5.26019e-05
-6.12574e-05
-0.000100713
0.000265448
3.78383e-05
-3.11679e-05
0.000163474
0.000118731
-0.000281472
-0.000210877
2.3596e-05
-1.92717e-05
0.000265134
-8.72626e-05
-0.00017361
-0.00012029
-0.000133172
-4.96282e-05
-0.000211994
0.000261898
-0.000133993
0.000175203
0.000294593
-0.000194774
-9.84964e-05
3.90691e-05
-2.67044e-05
3.75263e-05
0.000116458
-7.66727e-05
6.20704e-05
0.000196091
-0.000120477
-7.54018e-05
-9.95392e-05
0.000236713
-0.00021731
0.000144268
0.000265849
-5.56389e-05
-5.28896e-05
-0.000197387
0.000251195
-5.23909e-05
-2.01502e-05
1.13901e-05
-3.64413e-06
7.33812e-05
-5.69438e-05
0.000153388
8.82353e-05
-0.000231625
0.000143598
-0.00020715
-6.53375e-05
0.000274162
-2.20086e-05
-6.45746e-05
-6.94774e-06
-2.86304e-05
3.62247e-05
0.000151087
-0.000268169
3.74854e-05
-2.95099e-05
0.000129349
6.69381e-05
-7.61803e-05
6.75218e-05
5.22224e-05
3.48785e-05
2.91804e-05
-1.07655e-05
-1.13585e-05
1.92202e-05
1.64259e-05
-5.42937e-07
-1.06848e-07
9.08985e-07
2.73324e-05
-0.00024227
8.46804e-05
-0.000141583
6.04743e-05
8.11458e-05
-0.000205484
0.000170856
9.33577e-05
-0.000178316
8.50911e-05
-0.000295548
0.000177385
0.000120548
-4.13805e-06
3.92056e-05
-3.3614e-05
-1.69845e-05
7.50999e-06
0.000259954
-7.58118e-05
-0.000179575
0.000195298
-5.13986e-05
-0.000141003
0.000176113
-0.000240148
6.51565e-05
0.00011572
-0.000101178
-3.35796e-05
0.000154887
-0.000101242
-0.000191926
0.00021431
-0.000241785
3.14702e-05
0.000191753
0.000155578
8.42318e-05
0.000176839
-8.33653e-05
0.000206841
-4.35018e-05
8.08241e-05
4.72492e-05
-0.000128045
-2.51044e-05
5.87631e-05
4.73214e-06
-0.000189363
0.00018512
-0.00018443
-2.75683e-05
3.51292e-05
0.000243831
-6.05371e-05
-0.000181846
9.28873e-05
-2.32394e-05
-6.05099e-05
0.000274429
-7.86438e-05
9.65188e-05
-0.000147425
5.09835e-05
4.39076e-05
-0.000127846
-1.10023e-05
7.596e-05
-6.3308e-05
-0.000197188
2.22801e-05
-0.000238835
6.34903e-05
0.000134388
1.79543e-05
-7.03431e-05
-4.01479e-06
0.00016084
3.77924e-05
4.02625e-05
-8.53076e-06
1.35994e-05
-4.39986e-06
-6.97896e-06
0.000169509
-0.000128633
0.000153517
-0.000139941
6.0916e-05
4.33756e-05
-0.000104281
2.79736e-05
5.47751e-06
-3.27972e-05
-2.97017e-05
6.58168e-05
-7.51792e-05
-4.95114e-05
-4.20994e-05
9.52601e-05
0.000176608
-0.000251043
3.39656e-05
1.41241e-06
0.000217503
-8.98972e-05
4.39864e-05
-0.000207547
0.000156999
5.99418e-05
-1.12444e-06
-3.53629e-06
6.78988e-05
0.000219741
-0.000137812
0.000259107
-0.000120339
-4.52618e-05
-0.000143318
-0.000234765
0.000200451
3.54524e-05
0.000163528
-5.74075e-05
-0.000108001
-1.89492e-05
0.000127542
5.70413e-05
2.44552e-05
3.18302e-06
-2.38299e-05
-4.19267e-05
7.24549e-05
4.31873e-05
-0.000182789
0.000140764
-9.55727e-06
3.26645e-06
-0.000206696
0.00021198
-0.000143175
2.39806e-05
0.000263483
-4.17327e-05
-0.000219589
0.000269494
-6.04871e-05
-0.000207272
0.000217068
-0.000226133
-0.000172658
0.000261127
8.19141e-05
-6.44015e-05
7.41832e-06
5.15404e-06
-8.48661e-06
9.38901e-06
-1.24612e-05
5.3846e-06
0.000275355
-5.65183e-05
-0.000133982
0.000114769
-2.0337e-05
-0.000180914
0.00020545
0.000157901
-5.20576e-05
6.49107e-06
3.50588e-05
3.9129e-05
-3.10873e-05
0.000115026
0.000309188
-0.000202527
-0.000106205
5.14029e-05
0.000122485
-9.01922e-05
1.77079e-05
0.000104535
-4.36088e-05
-4.73323e-06
4.53312e-05
-3.93647e-05
8.57708e-05
8.65495e-06
-9.36535e-05
-1.15595e-05
0.000190781
-0.000179002
0.000297001
-5.03891e-05
-0.000245518
-0.000205703
0.000236578
0.000172413
0.000256961
-0.000210561
-5.92325e-05
0.00015474
-9.54663e-05
0.000122739
0.000186876
2.11368e-08
-2.11021e-06
4.10454e-05
-4.45627e-05
-3.56204e-06
0.000222099
0.000201639
-0.000272667
7.24012e-05
4.02234e-05
0.000121341
9.94156e-05
9.13665e-06
4.15981e-05
-4.88579e-05
3.94161e-05
0.000226124
4.30938e-05
0.000220191
0.000161498
-0.000102847
-5.85402e-05
-7.27908e-05
0.000196606
-0.000121444
0.000139781
2.20234e-05
-0.000159656
0.000165479
-0.000203038
3.86613e-05
-0.000135259
0.000154882
-0.000104684
9.34504e-05
1.23715e-05
-1.79289e-05
9.8444e-05
-0.000130267
3.18684e-05
8.33578e-05
-0.000124498
4.11818e-05
3.31678e-05
6.93392e-05
-4.93816e-05
5.24649e-05
-5.38826e-05
7.58422e-06
1.33755e-05
5.75806e-05
-7.0187e-05
0.000144676
-0.000192958
0.000214452
-4.31434e-05
-0.000167326
0.000153923
2.44904e-05
3.26231e-06
-2.43131e-05
-0.000145931
7.89524e-05
-6.32384e-05
9.42395e-05
-6.24987e-05
-2.83948e-05
0.000217074
-3.76934e-05
-0.000173649
-0.000168914
6.38524e-05
0.000154265
4.45339e-05
-0.000116893
7.66649e-05
-0.000153033
-4.76293e-05
0.000204818
-0.000242307
0.000117809
0.000124518
1.43358e-05
-1.83856e-05
0.000236509
6.80061e-05
2.94271e-05
-1.54074e-05
-7.53026e-05
9.16176e-05
8.29549e-05
-5.62852e-05
-2.4529e-05
-2.30106e-05
0.000176867
-0.000153523
-4.64935e-05
-7.79422e-05
3.8453e-05
0.000184096
0.000170695
-9.08115e-05
-0.000121922
-5.8159e-05
0.000180287
-0.000111633
2.371e-05
8.79348e-05
0.00018112
-8.52636e-05
-9.57719e-05
-1.10063e-05
-0.000135848
0.000153271
8.52016e-05
0.000212691
-2.82613e-05
-0.000144429
0.000176282
5.5535e-05
7.62134e-05
-0.000127416
0.000122713
1.51775e-05
-0.000130751
-0.000160844
-3.85892e-05
0.000199935
-1.90394e-05
0.000220077
-4.23524e-05
0.000168524
7.1752e-05
0.000119886
-0.00019126
0.000108853
5.47272e-05
0.000161562
-4.31033e-05
-0.000289352
8.71494e-05
0.000202694
-0.000222901
-4.40104e-05
0.000268093
3.76976e-05
-4.39161e-05
5.74971e-05
-0.000248089
0.000202323
-0.000229964
2.83636e-05
1.09363e-05
-1.59415e-05
7.96297e-06
1.15137e-05
5.94256e-07
5.16907e-05
6.43138e-05
-9.34335e-05
-0.000129624
8.36971e-05
0.000116045
9.71379e-05
-0.000124402
3.15468e-05
-8.18404e-05
0.000129351
-4.74744e-05
5.5596e-05
5.18898e-05
-0.000201714
0.000202011
1.91447e-05
-0.000220591
-9.06053e-05
-0.000106215
0.000197374
0.000242749
-0.000161267
2.07821e-05
-1.65384e-05
-6.93607e-05
0.000110277
0.000128861
-0.000238272
0.00020233
0.00024339
-5.80439e-05