/*--------------------------------*- C++ -*----------------------------------*\
| =========                 |                                                 |
| \\      /  F ield         | OpenFOAM: The Open Source CFD Toolbox           |
|  \\    /   O peration     | Version:  v2012                                 |
|   \\  /    A nd           | Website:  www.openfoam.com                      |
|    \\/     M anipulation  |                                                 |
\*---------------------------------------------------------------------------*/
FoamFile
{
    version     2.0;
    format      ascii;
    class       surfaceVectorField;
    location    "300";
    object      Uf_0;
}
// * * * * * * * * * * * * * * * * * * * * * * * * * * * * * * * * * * * * * //

dimensions      [0 1 -1 0 0 0 0];


internalField   nonuniform List<vector> 
27284
(
(1.17299 -0.023548 0)
(1.19651 0.00178669 0)
(1.19311 0.00413079 0)
(1.00852 -0.000120901 -6.89208e-22)
(1.00863 -0.000125075 -1.45715e-23)
(1.00861 -0.000143499 -4.70537e-22)
(0.90961 0.0530276 -3.67497e-22)
(0.908621 0.0437445 -1.82116e-21)
(0.917262 0.0472598 -8.48415e-22)
(1.01038 0.00104693 3.84566e-22)
(1.01044 0.00113954 9.61672e-22)
(1.01048 0.00104751 6.98331e-22)
(1.03708 0.0122593 0)
(1.03646 0.0172513 0)
(1.0327 0.0140468 0)
(0.917045 0.0597653 3.58057e-22)
(0.928052 0.0689782 0)
(0.90765 0.0706404 -8.62624e-22)
(1.01048 -2.4233e-05 4.28911e-22)
(1.01063 -7.13827e-05 2.05283e-22)
(1.01056 -0.000360568 -4.0099e-22)
(1.04176 0.0105544 2.28341e-22)
(1.0359 0.00787539 -1.72859e-22)
(1.00444 -8.45165e-07 2.06828e-23)
(1.0056 0.000110891 0)
(1.00482 6.57765e-05 0)
(0.96547 -0.0911969 1.04326e-22)
(0.975985 -0.0783972 1.04831e-22)
(0.984365 -0.0921756 2.35209e-21)
(1.00603 0.0222136 9.30328e-23)
(1.00758 0.0223468 8.68376e-23)
(1.00674 0.0209109 -2.22755e-22)
(1.02254 0.117158 -1.41582e-20)
(1.02622 0.11523 1.22997e-20)
(1.02256 0.112778 -9.05632e-21)
(1.01864 0.118784 7.62136e-22)
(1.02263 0.121274 -6.07412e-21)
(1.12409 0.0235378 -1.84253e-21)
(1.11357 -0.0197619 2.07295e-21)
(1.12358 0.00575424 4.60537e-21)
(1.00677 0.000125721 6.30558e-24)
(1.00726 0.00012594 1.42301e-22)
(1.00706 0.000115271 -6.23562e-23)
(1.00928 -0.000407003 3.61209e-22)
(1.00914 -0.000409084 6.75743e-22)
(1.00927 -0.000439396 2.00426e-22)
(1.01034 0.000945309 -8.05647e-22)
(1.01028 0.00101537 -7.84521e-22)
(1.00655 0.0103879 -3.51082e-23)
(1.00604 0.00959026 3.38103e-22)
(1.00702 0.00941711 1.99127e-22)
(0.974058 -0.0438912 2.86298e-21)
(0.980494 -0.0508545 -1.14994e-21)
(0.982323 -0.0414679 -2.05437e-21)
(1.01685 0.00100639 -2.38279e-22)
(1.01686 0.000506603 -3.39834e-22)
(1.01618 0.000818178 6.83607e-22)
(1.03259 0.196094 1.57842e-21)
(1.0396 0.186716 1.14942e-21)
(1.04497 0.197574 0)
(1.02414 0.0123968 -1.38891e-21)
(1.02365 0.0122303 -9.76213e-22)
(1.02383 0.0128077 -1.03246e-21)
(1.00769 0.00014094 -1.50304e-22)
(1.00776 0.000130915 3.24576e-22)
(1.00768 0.000117828 1.81473e-22)
(0.906594 0.0481004 2.74684e-21)
(0.922402 0.0479311 1.79746e-21)
(1.0077 0.00016292 -3.06269e-22)
(1.00763 0.00014606 0)
(1.00953 0.00412962 1.59871e-22)
(1.00974 0.0038586 1.50491e-22)
(1.00945 0.00364683 3.64306e-22)
(1.01038 0.000296458 1.71965e-22)
(1.01034 0.000656389 2.78179e-22)
(1.01051 0.0005561 -1.57775e-22)
(1.01072 0.00192266 -3.3918e-22)
(1.01085 0.00201808 3.83318e-22)
(1.01076 0.00203618 0)
(1.00279 -1.54434e-05 -1.20784e-22)
(1.00418 -1.26499e-05 -2.54447e-22)
(1.0034 0.0215174 1.16821e-22)
(1.00473 0.0218113 -1.69772e-22)
(1.00416 0.0203392 -1.56116e-22)
(0.783814 0.136094 0)
(0.791682 0.180186 0)
(0.782441 0.147318 0)
(1.01478 0.0610815 3.74386e-22)
(1.01691 0.0585714 0)
(1.01837 0.0617314 7.73612e-23)
(1.01098 -0.000479562 -1.83301e-22)
(1.01106 -0.000450677 -1.0182e-23)
(1.01116 -0.000455722 3.35802e-22)
(1.00898 -0.000492116 0)
(1.00897 -0.000475569 -2.94176e-22)
(1.00887 -0.000465252 0)
(1.00652 -8.43067e-05 -4.06381e-24)
(1.00646 -9.91097e-05 0)
(1.00491 -8.14184e-05 2.42585e-23)
(1.01336 0.00628722 2.5798e-23)
(1.01326 0.00605139 3.59322e-22)
(1.01357 0.00619482 1.88428e-24)
(1.04055 0.0237352 8.06179e-23)
(1.04093 0.0238853 -4.75823e-21)
(1.0407 0.0234713 2.55545e-21)
(1.01318 0.00639868 1.94766e-22)
(1.01356 0.00660125 9.01103e-23)
(1.00196 0.0209577 1.72063e-22)
(1.00268 0.0228532 -9.02479e-23)
(1.01481 0.0107241 -3.46694e-22)
(1.01464 0.0109903 1.38652e-21)
(1.01452 0.0106063 -2.6881e-22)
(1.01374 0.000221212 6.13873e-22)
(1.01362 0.000238426 -6.78389e-23)
(1.01202 0.000150819 1.70552e-23)
(1.00549 0.0234779 0)
(1.00899 -0.00050426 0)
(1.00901 -0.000514724 0)
(1.00889 -0.000488628 0)
(1.00842 -0.000115551 -1.32527e-22)
(1.00832 -0.000112763 0)
(1.0084 -0.000133433 -2.79052e-22)
(1.00844 -9.43151e-05 -5.36171e-22)
(1.00679 0.182227 -2.34344e-21)
(1.00967 0.178274 -1.4722e-20)
(1.01216 0.183472 -1.23181e-20)
(1.01042 0.00231714 1.53844e-22)
(1.01051 0.00239893 -2.88958e-23)
(1.01048 0.00240215 -4.28555e-23)
(1.01032 0.0022415 -1.27381e-22)
(1.01035 0.00223448 -3.44981e-22)
(0.775255 0.0826842 6.24246e-22)
(1.01226 0.00131012 -1.81615e-22)
(1.01209 0.00130118 -4.52082e-22)
(1.01202 0.00121513 -7.61721e-22)
(1.00652 -8.71693e-05 -2.34001e-22)
(1.00585 -5.16301e-05 5.04195e-22)
(1.00589 -3.69437e-05 -1.4585e-22)
(1.04122 0.363496 -1.08591e-20)
(1.06049 0.349789 -4.03898e-21)
(1.05385 0.3608 1.63291e-20)
(1.01253 0.00141611 4.5316e-22)
(1.01244 0.00127613 2.85657e-23)
(1.07334 -0.0397243 1.95993e-21)
(1.07087 -0.0461862 1.14033e-22)
(1.065 -0.0393954 1.3068e-21)
(1.0161 0.00333609 2.06512e-21)
(1.0161 0.0031675 -7.72922e-22)
(1.01588 0.00320113 1.22505e-21)
(1.01685 0.00153396 4.56486e-26)
(1.01766 0.00120448 -2.23628e-22)
(1.0061 -0.000108394 -2.30724e-22)
(1.00508 -4.81917e-05 -1.17655e-22)
(1.00513 -5.12885e-05 -3.17715e-22)
(0.74064 0.238409 -8.58554e-21)
(1.00934 0.00438319 -7.66803e-22)
(1.00971 0.00450965 2.06287e-22)
(0.981696 0.222197 1.43263e-20)
(0.976481 0.225706 -1.04868e-20)
(0.984752 0.230191 0)
(1.0091 -0.000517796 0)
(1.01325 0.0735843 2.01255e-22)
(1.01551 0.0763697 1.27698e-20)
(1.01698 0.0722473 9.21587e-21)
(1.07456 -0.0308732 -1.25244e-22)
(1.08152 -0.0371182 6.09862e-22)
(1.01403 -0.00305494 -1.00525e-22)
(1.01352 -0.00278343 4.22241e-22)
(1.01387 -0.00257431 4.31468e-22)
(1.03307 0.070824 5.97176e-25)
(1.0372 0.0721908 -1.28241e-21)
(1.03495 0.0671201 1.55889e-21)
(1.00638 -8.01353e-05 -3.73895e-22)
(1.00707 -0.000104239 2.35541e-22)
(1.00687 -0.000110166 -6.79809e-23)
(1.0286 0.0206966 1.27366e-21)
(1.02897 0.0203129 8.0506e-22)
(1.02919 0.0210846 7.9006e-23)
(1.04015 0.0236827 3.01069e-21)
(1.04034 0.0241957 -4.86983e-22)
(1.00928 -0.000468671 -1.30836e-22)
(1.00926 -0.000457284 2.84558e-22)
(1.00916 -0.00044628 1.31384e-22)
(0.95964 -0.0854221 -2.75687e-22)
(0.947914 -0.0937768 1.68412e-22)
(0.959482 -0.0972089 -5.24683e-24)
(1.0107 0.00074178 -1.47898e-23)
(1.01081 0.000791649 -7.9758e-22)
(1.01077 0.000788035 -4.57267e-22)
(1.0161 0.00343629 1.63996e-21)
(1.01629 0.00342418 9.995e-22)
(1.01757 0.0501039 0)
(1.01536 0.0518893 0)
(1.01504 0.0489106 0)
(1.00443 0.00540117 0)
(1.00467 0.00663499 0)
(1.00565 0.00565623 0)
(1.00056 0.0582746 -4.0537e-23)
(1.00673 0.066792 2.37537e-21)
(1.00814 0.0556897 -4.4798e-21)
(1.0093 -0.000495408 7.44187e-23)
(1.0093 -0.000481077 4.47655e-22)
(1.00919 -0.000469931 7.22933e-22)
(0.731901 0.222862 -4.28311e-21)
(0.74737 0.243841 -8.16692e-21)
(1.00932 -0.000514834 -4.21781e-22)
(1.00944 -0.000525087 -4.96554e-22)
(1.01059 0.000700783 8.34996e-22)
(1.01063 0.000693205 3.01308e-22)
(0.99134 0.0610635 4.92566e-22)
(0.996136 0.0501776 -6.87615e-22)
(1.02826 0.0212249 -8.02662e-22)
(1.02799 0.020463 1.33002e-21)
(0.966808 0.0376218 3.14544e-21)
(0.962635 0.0461751 1.19301e-21)
(0.97377 0.0447363 1.27916e-21)
(1.0094 -0.000495457 -1.29149e-22)
(1.02743 0.0236959 -3.65874e-22)
(1.02814 0.0238273 1.28997e-21)
(1.0278 0.0243522 1.15549e-21)
(1.05149 0.0325124 2.79865e-22)
(1.05293 0.0309914 -1.61025e-22)
(1.05306 0.0334055 2.71153e-22)
(1.00391 5.82176e-05 1.1261e-21)
(1.00381 -3.71711e-06 -4.72189e-22)
(1.0026 9.97517e-06 -4.27794e-22)
(1.00743 0.000285598 -2.37393e-22)
(1.00633 0.000235808 2.94008e-22)
(1.00612 0.000214998 -2.49822e-22)
(1.04349 0.0263263 -1.2299e-21)
(1.04258 0.0259839 2.29541e-21)
(1.04334 0.0253172 0)
(1.00972 0.00171117 1.12082e-22)
(1.00966 0.00163575 4.76063e-23)
(1.00963 0.00166553 -3.00956e-25)
(1.04341 0.0273401 -3.42266e-23)
(1.04455 0.0267289 -1.28326e-21)
(0.95798 0.139879 0)
(0.974823 0.0813611 0)
(1.02745 0.164888 -1.3516e-21)
(1.02278 0.155066 1.0924e-21)
(1.03549 0.156674 -2.17927e-24)
(0.960439 0.0278804 -9.94296e-22)
(0.969787 0.0288689 -9.59298e-22)
(1.01193 0.00131062 3.45725e-22)
(1.01215 0.00140934 5.95948e-22)
(1.0278 -0.171436 -2.39143e-22)
(1.013 -0.159207 -1.10413e-20)
(1.0346 -0.14964 -3.3275e-22)
(1.01611 -0.0014535 -3.37535e-22)
(1.01673 -0.00125381 1.38991e-22)
(1.01671 -0.00188492 3.54227e-22)
(1.00936 0.0016169 -6.37281e-24)
(1.00936 0.00160644 -3.32721e-24)
(1.00928 0.00154634 -8.82021e-24)
(1.01548 -0.00155724 -6.66147e-22)
(1.01548 -0.00112772 -3.64182e-22)
(1.01695 0.00833016 -2.21548e-22)
(1.01627 0.00474436 9.45533e-22)
(1.01993 0.0070373 -1.52266e-22)
(1.02196 0.0118505 -9.37239e-22)
(1.02238 0.0119798 -9.45819e-22)
(1.02214 0.012275 1.21775e-22)
(1.04969 0.0333201 3.13116e-22)
(1.04977 0.0311487 0)
(1.01048 0.000668558 8.40036e-23)
(1.01054 0.000705004 2.67813e-22)
(1.01176 0.00126851 3.38117e-22)
(1.01173 0.00120401 -1.00792e-22)
(1.01107 -0.00070284 -6.50704e-24)
(1.01112 -0.000765478 -2.98334e-23)
(1.01101 -0.000713879 -2.78795e-23)
(1.02804 0.0216228 7.85984e-22)
(1.02773 0.0220509 2.73953e-21)
(1.02744 0.0214225 2.91392e-21)
(1.00943 -0.000410644 -3.30947e-22)
(1.00929 -0.000372693 -3.47946e-22)
(1.03077 0.0749927 -4.80484e-23)
(1.02891 0.0697903 2.28551e-23)
(1.04098 -0.179656 -2.69008e-21)
(1.01733 -0.193538 1.2943e-21)
(1.03838 0.0248093 4.43149e-21)
(1.03855 0.0247773 2.03827e-22)
(1.03845 0.024697 1.95916e-21)
(1.00914 -0.000500953 4.00102e-22)
(1.00925 -0.000532982 3.42446e-23)
(1.0091 -0.000507681 -4.88047e-23)
(1.0069 -0.000120855 1.27583e-22)
(1.00689 -0.000127822 -4.07907e-22)
(1.00441 -3.93295e-05 7.53914e-23)
(1.00312 -2.63844e-05 -5.24423e-22)
(1.00437 -4.70029e-05 1.42108e-23)
(1.00655 0.037284 2.45587e-22)
(1.00726 0.0393769 -9.74959e-22)
(1.00839 0.0369257 5.24931e-23)
(1.02672 0.0235306 -2.25974e-22)
(1.02707 0.0230194 -3.56171e-22)
(0.943505 0.168987 -2.68342e-21)
(0.948607 0.165217 4.46497e-21)
(0.950423 0.17265 3.74349e-21)
(1.01854 0.0320463 -8.56347e-22)
(1.01946 0.0312531 5.69582e-22)
(1.01823 0.0308136 -5.49428e-22)
(1.01038 0.000637144 -4.23364e-22)
(1.01043 0.000629169 -4.35836e-22)
(0.980922 0.0631369 2.39115e-21)
(0.986943 0.0739599 -1.60382e-21)
(1.0244 0.0184255 8.84306e-22)
(1.02405 0.0188122 3.06392e-21)
(1.0238 0.0181844 8.97454e-22)
(1.02914 0.0199088 3.37378e-21)
(1.02964 0.0202521 -2.07791e-21)
(0.971437 -0.0794749 3.36979e-21)
(0.961033 -0.0756544 -2.38768e-22)
(0.912131 0.0600506 -3.20429e-22)
(0.903481 0.0574191 -2.41321e-21)
(0.970998 0.193437 0)
(1.04656 0.0249514 -3.72071e-22)
(1.04798 0.025055 -1.08861e-23)
(1.0474 0.0234482 -6.89815e-23)
(0.971202 0.0620981 -8.6127e-21)
(0.979317 0.0532258 3.89299e-22)
(0.995245 0.182248 -5.43988e-21)
(0.993414 0.188356 -3.8576e-21)
(0.989349 0.183204 -1.29121e-20)
(1.01024 -7.43156e-06 -2.03619e-22)
(1.01031 0.000850045 0)
(1.0104 0.000873736 -4.90676e-22)
(1.1255 -0.049035 0)
(1.14748 -0.0464877 4.95721e-22)
(1.02224 0.00967754 2.09987e-22)
(1.02243 0.00998763 -1.93362e-21)
(1.02201 0.00990232 9.66081e-23)
(1.00937 0.00161928 3.56776e-23)
(1.00945 0.00168321 0)
(1.01663 0.373219 -1.39188e-20)
(1.02376 0.352006 6.68236e-21)
(1.01498 0.00552554 -8.12016e-22)
(1.01485 0.00534075 7.03365e-22)
(1.01506 0.0054239 6.75922e-22)
(1.00604 0.0323545 6.78845e-23)
(1.00346 0.0344812 -1.05814e-22)
(1.00331 0.0305128 2.32884e-22)
(1.09013 0.0479834 -1.46002e-22)
(1.08709 0.0444115 0)
(1.09293 0.0431266 2.40251e-23)
(1.00967 0.00149221 0)
(1.00973 0.00156614 -2.69045e-22)
(1.00978 0.00152485 -4.24217e-23)
(0.966591 -0.0452785 9.16176e-22)
(0.969499 -0.0365328 2.24091e-21)
(0.994309 -0.100564 -5.06371e-21)
(0.982628 -0.100322 2.04093e-21)
(0.987459 -0.112576 1.84467e-22)
(1.01229 0.000905583 -9.46389e-23)
(1.01244 0.000957347 2.13503e-21)
(1.01236 0.00107352 9.15413e-22)
(1.03431 0.175948 1.23031e-22)
(1.02079 0.173645 -7.92569e-22)
(1.03694 0.0213729 7.83477e-23)
(1.03706 0.0210728 2.85119e-22)
(1.03734 0.0214828 2.5057e-22)
(0.999553 0.0217595 -5.94988e-22)
(0.99757 0.0182888 6.35636e-22)
(0.994905 0.0225266 -5.1277e-22)
(1.01017 0.00222994 -1.90165e-23)
(1.0101 0.00215389 7.23975e-23)
(1.01009 0.00217186 6.6652e-23)
(0.954897 0.201431 -1.53868e-20)
(0.989796 0.275761 0)
(1.08704 0.0531853 -6.32342e-23)
(1.09397 0.0523305 2.06154e-22)
(1.01387 0.000326645 1.73505e-21)
(1.01435 0.000364614 2.35771e-22)
(1.01422 0.000387151 2.3161e-21)
(0.957677 0.224838 0)
(0.949563 0.224415 -4.13286e-21)
(0.952866 0.217937 0)
(1.01316 -0.00218412 0)
(1.01298 -0.00211644 -6.30113e-23)
(1.01304 -0.00209334 0)
(1.00448 0.037892 -5.0367e-22)
(1.00572 0.0352934 1.57604e-22)
(0.922557 -0.0214204 -1.5271e-22)
(0.915655 -0.0171135 0)
(0.921071 -0.00137061 4.81336e-22)
(1.01066 0.00182865 3.85019e-23)
(1.0106 0.00184167 -3.36848e-22)
(1.02935 0.019453 2.3736e-21)
(1.02865 0.0195904 1.37142e-21)
(1.0107 -0.00120748 -4.19323e-22)
(1.01078 -0.000908244 0)
(1.01096 -0.00119817 3.99741e-22)
(1.00303 0.0029077 -1.22044e-21)
(1.00317 0.00481161 -2.37366e-22)
(1.00455 0.00380423 -3.94396e-22)
(1.00912 -0.000536667 0)
(1.00902 -0.00051987 2.78572e-22)
(1.00713 7.60051e-05 2.50974e-22)
(1.00726 7.58179e-05 -3.60195e-23)
(1.00726 8.4963e-05 3.51586e-22)
(1.0102 0.000818618 -3.81177e-22)
(1.01023 0.000729439 9.82771e-22)
(1.004 2.48696e-05 -3.36189e-22)
(1.00473 -9.05321e-05 6.04001e-22)
(1.01022 0.0022605 -1.14064e-22)
(1.01023 0.00228015 -1.10239e-22)
(1.0069 6.85183e-05 2.64761e-22)
(1.00687 5.20337e-05 2.17045e-22)
(1.00656 0.0132356 -1.48542e-22)
(1.00583 0.0125391 -3.29604e-22)
(1.00559 0.0136795 -1.81186e-22)
(1.01489 0.00561621 1.4165e-22)
(1.01511 0.00569995 -1.39173e-21)
(1.0092 -0.00049913 0)
(1.00905 -0.000472686 -2.15097e-22)
(1.00038 0.00990684 -3.29164e-22)
(1.00155 0.0124876 -3.02581e-22)
(1.00298 0.0102824 -2.94525e-22)
(1.00377 0.00995603 -1.72254e-22)
(1.00312 0.00884816 1.38966e-22)
(1.00242 0.010167 -4.14388e-22)
(0.982271 -0.0469713 -5.50537e-21)
(0.971461 -0.0517439 6.00258e-22)
(0.972854 -0.0425451 1.24319e-21)
(0.96493 0.226762 5.35545e-21)
(0.962726 0.233625 0)
(1.15056 0.00404007 0)
(1.12703 0.00333456 -7.69958e-21)
(1.18087 0.0358661 1.41456e-21)
(0.885247 0.252422 0)
(0.894652 0.256441 2.2045e-21)
(0.884178 0.261939 0)
(1.03678 0.0217043 -2.16192e-22)
(1.03654 0.0212647 1.57617e-21)
(1.00474 -6.58225e-05 -2.57594e-22)
(1.00479 -6.83144e-05 -2.40248e-22)
(1.00335 -4.11146e-05 7.54745e-23)
(1.00893 0.0342286 -2.29408e-22)
(1.0089 0.0307807 2.43817e-22)
(1.00405 -1.74763e-05 -3.48246e-22)
(1.00408 -3.03861e-05 -2.63689e-23)
(1.00269 -2.3456e-05 3.77715e-22)
(0.769277 0.0237529 -4.91913e-21)
(0.763926 0.0532758 -4.70549e-21)
(1.00567 -8.96828e-05 1.41442e-22)
(1.0057 -8.71988e-05 4.44545e-23)
(1.00423 -4.52889e-05 1.13908e-22)
(1.01325 0.000247582 -6.74052e-23)
(1.01307 0.000250687 0)
(1.00433 -2.96177e-05 4.79819e-22)
(1.00533 -9.25759e-05 7.13476e-22)
(1.01169 -0.001232 -1.25228e-23)
(1.0118 -0.00124583 0)
(1.01181 -0.00130617 0)
(1.03752 0.0118337 3.51151e-21)
(1.03816 0.0120186 -1.35362e-21)
(1.03767 0.0122996 5.60285e-21)
(1.02972 0.0312313 4.21094e-22)
(1.03019 0.030324 -1.99243e-21)
(1.03076 0.031645 3.19915e-22)
(1.00385 -1.32992e-05 0)
(1.00388 -1.28089e-06 1.21545e-22)
(1.00256 -2.00033e-05 0)
(0.991049 -0.0411964 -1.83439e-21)
(0.991211 -0.0490925 -8.40876e-22)
(1.02328 0.0114753 1.05304e-21)
(1.02283 0.0113646 0)
(1.02305 0.0110347 0)
(1.01104 0.00244288 1.3036e-21)
(1.01115 0.00254095 2.59539e-22)
(1.01109 0.00242686 2.61534e-22)
(0.992008 -0.02744 1.53074e-21)
(0.997543 -0.0245732 -2.9675e-22)
(0.992551 -0.0220238 -2.93235e-22)
(1.01159 0.00123322 6.23991e-23)
(1.01175 0.00134216 -3.3514e-23)
(1.00454 2.62453e-05 0)
(1.00409 -2.94594e-05 -1.04982e-22)
(1.00524 5.39096e-05 -1.29406e-22)
(1.04319 0.0284618 1.2327e-21)
(1.04404 0.0292103 2.56417e-22)
(1.04276 0.0295391 3.02557e-22)
(1.01602 0.00113798 -8.29208e-22)
(1.01599 0.00103964 1.62818e-21)
(1.01584 0.0010794 0)
(1.0101 0.000746267 -3.19861e-23)
(1.01032 0.000983282 2.21052e-22)
(1.00131 0.181763 1.81458e-20)
(0.997463 0.177133 1.4634e-20)
(1.0169 0.0114371 -6.8506e-22)
(1.01401 0.00924369 -4.92172e-23)
(1.00881 -7.63185e-05 -1.23412e-24)
(1.00869 -7.81683e-05 0)
(1.00872 -4.47401e-05 2.98816e-22)
(1.0106 -0.000705934 -1.33268e-22)
(1.01064 -0.000708027 2.87086e-22)
(1.01078 -0.000735115 0)
(1.01532 0.000282316 0)
(1.01523 0.000242074 0)
(1.01536 0.000236082 -9.70146e-22)
(0.931382 0.164705 8.47298e-22)
(0.933771 0.156137 -5.7154e-21)
(0.924688 0.158375 -3.31373e-21)
(1.00704 -7.77588e-05 1.49423e-23)
(1.00702 -9.86484e-05 -2.30441e-22)
(0.995297 -0.103063 9.47748e-23)
(1.05957 -0.0652731 -2.19654e-23)
(1.02429 -0.0744681 8.10124e-21)
(1.00866 -0.000103188 5.24232e-22)
(1.00875 -0.000131447 -2.80474e-23)
(1.12201 0.0522745 0)
(1.12897 0.0686874 0)
(1.01141 0.00115552 -6.55266e-22)
(1.01144 0.00112598 2.27568e-22)
(1.01056 0.00559557 -3.03542e-22)
(1.01009 0.0060017 4.38845e-23)
(1.01055 0.00628466 -3.33623e-22)
(1.00048 0.0204487 -6.13701e-22)
(1.00143 0.0193397 0)
(1.00394 -4.46299e-05 -2.53957e-22)
(1.0043 -2.41186e-05 4.36602e-22)
(1.00506 7.40312e-06 7.56229e-22)
(1.17654 0.00736212 0)
(1.1214 -0.029874 -1.05427e-22)
(1.02226 0.00839905 2.25179e-21)
(1.02237 0.00817499 3.58019e-21)
(1.02265 0.00843773 6.68991e-22)
(0.87685 0.246541 7.86022e-22)
(0.88724 0.24032 0)
(1.01097 0.00242464 -1.03832e-22)
(1.01094 0.00231378 2.00703e-22)
(1.01085 -0.000546381 2.03403e-22)
(1.0107 -0.000567283 5.77492e-22)
(1.01079 -0.000587584 1.03177e-21)
(1.0108 5.52193e-05 4.0621e-22)
(1.01101 0.000178358 -4.16748e-22)
(1.01096 -0.000126706 -5.55212e-22)
(1.01817 0.00951436 1.42916e-21)
(1.0181 0.00921001 -9.25052e-22)
(1.01788 0.00935995 2.10724e-23)
(0.952573 0.0122217 6.42051e-24)
(0.944153 0.0156829 1.9323e-21)
(0.954688 0.0201524 2.08792e-21)
(1.01083 -0.00323187 3.87806e-22)
(1.01104 -0.00401023 0)
(1.01028 -0.00365029 2.2934e-22)
(1.01066 -0.00261792 3.69788e-22)
(1.01126 -0.00293675 -3.53545e-22)
(1.01328 -0.00229231 0)
(1.01335 -0.00226488 0)
(0.765904 -0.0337293 -7.61361e-21)
(0.782565 -0.0129521 -7.32967e-21)
(1.02899 0.032227 1.23572e-21)
(1.0288 0.0308015 2.43732e-21)
(1.042 0.0206948 -1.93372e-21)
(1.04176 0.020244 -6.02021e-21)
(1.04151 0.0206533 3.0694e-21)
(1.02211 0.00865612 -8.90681e-22)
(1.02194 0.00887463 0)
(1.02239 0.00894057 0)
(1.01045 0.00242227 1.09379e-22)
(1.01044 0.00243459 2.06356e-22)
(1.01053 0.00250632 -4.1856e-23)
(1.03817 0.0247276 -1.00849e-21)
(1.03816 0.0248674 6.72966e-22)
(1.01043 -0.000818494 3.78977e-22)
(1.0104 -0.00084855 -1.15655e-23)
(1.01028 -0.000804355 1.19345e-22)
(1.04149 0.0250375 4.42512e-22)
(1.04167 0.025791 -6.91069e-23)
(1.04089 0.0255942 -4.3773e-21)
(1.01103 0.00841212 3.83452e-22)
(1.0093 0.00894939 7.57251e-22)
(1.01004 0.00702309 -1.13288e-22)
(1.01173 -0.0298829 -3.96998e-22)
(1.01052 -0.0350636 -9.5939e-22)
(1.01668 -0.0322728 1.41942e-22)
(1.01409 -0.00564529 -7.07847e-23)
(1.01334 -0.00492594 1.09235e-22)
(1.01322 -0.00618195 -3.86391e-22)
(1.01046 -0.000792518 3.80641e-22)
(1.01049 -0.000765936 1.22093e-22)
(1.01033 -0.000750361 -9.71332e-24)
(1.00455 -0.0994534 1.63838e-21)
(0.999922 -0.0897222 1.85157e-22)
(1.16065 0.0149263 1.24987e-21)
(1.18038 0.0220376 1.4043e-21)
(1.15968 0.0311481 -4.4447e-21)
(1.02354 0.0437712 2.67302e-22)
(1.02218 0.045275 -7.50352e-23)
(1.02151 0.043147 -9.23277e-23)
(1.01211 -0.00132368 -1.03614e-22)
(1.01207 -0.00103739 -1.0748e-22)
(1.01234 -0.00123445 1.80893e-22)
(1.02863 0.0218076 -1.74462e-21)
(0.954462 -0.0468575 -1.31683e-21)
(0.965509 -0.054172 -3.11472e-21)
(0.955225 -0.0619514 -3.65788e-21)
(1.01059 -0.000835091 -2.61582e-22)
(0.999676 0.00746695 -6.59693e-22)
(0.997133 0.00941437 -7.84021e-22)
(1.01235 -0.0253584 -5.9419e-24)
(1.00751 -0.0268829 -6.80832e-23)
(1.03268 0.00891679 -1.93521e-21)
(1.03263 0.00842448 2.39421e-21)
(1.03213 0.00866191 1.12953e-21)
(1.00425 0.187691 9.70768e-21)
(1.04693 0.0175452 3.95284e-21)
(1.04762 0.0178783 -1.96648e-21)
(1.04738 0.0170351 -2.0301e-21)
(1.01064 -0.00206492 -3.85935e-22)
(1.01019 -0.00220275 0)
(1.00899 -0.000127782 7.11319e-22)
(1.00889 -0.000103181 6.62887e-22)
(1.00887 -0.000135723 9.1149e-23)
(1.0369 0.0117397 4.71642e-22)
(1.03735 0.0113838 4.25039e-22)
(1.01064 -0.00161983 -8.08603e-22)
(1.01101 -0.00194795 2.28082e-22)
(1.02455 0.0423918 3.93331e-22)
(1.02559 0.0408293 -2.56674e-22)
(1.0238 0.0403156 -1.31827e-22)
(1.02182 0.00838503 -2.7152e-21)
(1.01613 0.00303319 -7.91105e-22)
(1.01615 0.00289285 0)
(1.01592 0.00290386 -7.88799e-22)
(1.01043 0.0022007 -2.29153e-22)
(1.0104 0.00221036 7.80891e-23)
(1.01033 0.00211735 -1.64582e-22)
(0.958696 0.00980441 -1.34566e-21)
(0.951354 0.00365968 -1.32757e-21)
(0.935663 0.0219605 -8.39485e-21)
(0.929306 0.0277992 -1.85048e-21)
(0.941717 0.0297471 -1.58375e-21)
(1.01084 0.000794133 -3.47638e-22)
(1.01092 0.000853884 2.59743e-22)
(1.01083 0.000754522 1.98408e-23)
(1.01457 -0.00329644 -4.17613e-22)
(1.01414 -0.0036715 -4.02901e-22)
(0.933086 0.0107988 4.8351e-22)
(0.954888 0.0811792 1.46627e-21)
(0.952166 0.0855857 1.59528e-21)
(0.958087 0.085524 4.10821e-22)
(1.01246 0.00978587 -1.37128e-22)
(1.01244 0.00783013 6.00186e-22)
(1.0116 -0.0011482 5.58374e-24)
(1.01159 -0.00120142 1.13998e-23)
(1.00228 0.00919758 2.27914e-22)
(0.999262 0.00867083 -1.70583e-21)
(1.00226 0.00632075 3.58629e-22)
(1.04656 0.018287 8.57784e-23)
(1.04623 0.0174192 8.10738e-21)
(1.01359 0.000496688 9.44695e-22)
(1.01292 0.000403414 2.21342e-22)
(1.01327 0.000502388 -1.61896e-22)
(1.01487 -0.00509382 2.31716e-22)
(1.01521 -0.00639362 3.4491e-22)
(1.00896 0.00122967 6.2848e-23)
(1.00902 0.00129416 1.08659e-22)
(1.00894 0.0012349 9.55373e-23)
(0.930413 -0.022314 -2.42405e-21)
(0.926432 -0.0410646 -1.62799e-22)
(1.0464 0.0131686 -1.23862e-21)
(1.0476 0.0192384 1.20542e-21)
(1.05135 0.0139303 1.33777e-23)
(1.01885 0.0136442 -1.53028e-21)
(1.01962 0.0160109 -1.24298e-21)
(1.02134 0.0135219 -8.60044e-22)
(1.04969 0.0278638 -5.05569e-21)
(1.04949 0.0283736 0)
(1.0503 0.0283185 -9.4021e-21)
(0.999568 0.0216742 -1.43291e-22)
(0.998947 0.0196628 -1.02003e-21)
(0.986844 -0.00152911 1.68343e-21)
(0.98553 0.00203015 5.92125e-22)
(0.989307 0.00142699 1.0756e-21)
(1.00703 0.0197598 2.66452e-23)
(1.00342 0.0209508 3.24981e-22)
(1.00501 0.0172037 1.31338e-21)
(1.01603 0.00139804 2.24092e-22)
(1.01925 -0.000491414 -5.14846e-22)
(1.0155 -0.00309756 5.70648e-22)
(1.0089 0.00116748 -1.13047e-22)
(1.00899 0.00122331 -1.21484e-22)
(1.01634 0.00316119 -6.95439e-22)
(1.01045 0.00178025 -7.00514e-22)
(1.01011 0.00157468 -5.44267e-22)
(1.01037 0.00137382 -4.4175e-22)
(1.00931 -0.000564206 2.78295e-22)
(1.00934 -0.000557596 -5.01995e-23)
(1.00944 -0.000581864 5.04642e-23)
(1.01106 0.00523567 1.95644e-22)
(1.01069 0.00487755 7.34493e-23)
(1.04222 0.0211733 1.36861e-21)
(1.04253 0.0207286 -1.72265e-21)
(1.01019 0.00154788 0)
(1.0103 0.00161591 -3.14765e-22)
(1.01025 0.001517 0)
(1.01891 0.00932475 -1.41758e-21)
(1.0191 0.00915443 -1.37189e-21)
(1.01918 0.00947501 -6.16189e-22)
(1.00884 -0.0122623 -1.03048e-21)
(1.00728 -0.010195 4.27582e-22)
(1.01041 -0.0104509 0)
(1.00962 0.00141713 7.87112e-23)
(1.00958 0.00145528 3.2189e-23)
(1.07276 0.0182049 -4.17189e-22)
(1.07458 0.0146466 -9.0696e-22)
(1.07656 0.0188543 -5.54087e-22)
(0.828195 -0.251286 7.72947e-21)
(0.848535 -0.27416 -5.56513e-22)
(1.00624 -0.00796634 1.17592e-21)
(1.00549 -0.00590515 -1.64335e-21)
(1.00799 -0.00666045 -6.02156e-22)
(1.01846 0.00967544 -2.04619e-22)
(1.01822 0.00984281 1.1207e-21)
(1.01641 0.0336958 -3.31853e-22)
(1.01762 0.0328064 -8.7219e-22)
(1.0161 0.0323716 4.34504e-22)
(1.00919 -0.00054701 4.91012e-22)
(1.00929 -0.000568237 -5.85326e-22)
(1.04204 0.0244865 2.87494e-21)
(1.0425 0.0237329 -8.34625e-22)
(1.04299 0.0245116 0)
(1.02231 0.00737503 -1.87197e-21)
(1.02196 0.00735317 -1.89405e-21)
(1.02204 0.00710681 -5.63454e-23)
(1.02888 0.0331811 -1.38908e-21)
(1.02894 0.0342362 -1.22259e-21)
(1.03026 0.0336341 6.72803e-22)
(1.01437 0.000300846 -4.86628e-23)
(1.01362 0.000209233 5.88837e-22)
(1.02786 0.0327447 -6.37592e-22)
(0.882763 -0.0484703 -9.61479e-23)
(0.880909 -0.0120119 -1.3514e-21)
(1.01091 -0.000513193 -9.76546e-22)
(1.01081 -0.000499596 -3.44915e-22)
(1.03291 0.0349975 2.09323e-21)
(1.03404 0.0354937 -1.92948e-22)
(1.0328 0.0365829 -1.33843e-23)
(1.02551 0.0173777 -2.39652e-22)
(1.02567 0.0180036 0)
(1.02508 0.0176839 2.09784e-21)
(1.01759 -0.00328484 -7.70204e-22)
(1.01865 -0.00319845 -3.71119e-22)
(1.01832 -0.00423044 4.38771e-23)
(1.00965 0.0223857 -1.31667e-22)
(1.01003 0.0186077 -6.31953e-23)
(1.00638 0.00010848 2.47663e-22)
(1.00604 8.5105e-05 -2.9707e-22)
(1.01057 -0.00071322 -6.63004e-24)
(1.01044 -0.000682252 -2.54374e-22)
(1.06884 0.0179237 -8.71523e-23)
(1.07069 0.0212226 1.09893e-22)
(1.01869 0.00951159 -1.47538e-21)
(1.01862 0.00918144 0)
(1.00205 0.0254844 -1.4075e-21)
(1.04142 0.0240111 -1.97383e-21)
(1.0417 0.0236857 -1.41724e-22)
(1.04194 0.0241984 1.39369e-21)
(0.926748 -0.311537 5.12862e-21)
(1.04059 0.0222058 7.91896e-22)
(1.04147 0.0218565 -3.57496e-22)
(1.04117 0.0226926 1.42225e-21)
(1.01558 0.0145677 6.5417e-22)
(1.00851 0.00761857 -3.08249e-22)
(1.00838 0.00669387 -2.56752e-22)
(1.00907 0.00704699 2.49445e-22)
(1.01078 -0.0145663 -8.07254e-22)
(1.00694 -0.014492 3.15803e-22)
(1.01203 0.0011403 1.06941e-22)
(1.01181 0.00110868 7.17658e-23)
(1.01194 0.00115801 -1.65136e-22)
(1.04557 0.0150403 -1.52308e-21)
(1.04496 0.0152811 -1.24793e-20)
(1.04509 0.0145761 8.03371e-21)
(1.04996 0.0270382 2.1018e-22)
(1.04899 0.0272338 -9.37546e-21)
(1.03168 0.0346439 -2.38268e-21)
(1.03292 0.03366 -8.68528e-23)
(0.993182 -0.0431573 -4.16122e-22)
(0.984976 -0.0412837 -2.32911e-22)
(0.993489 -0.0350916 -2.6826e-22)
(0.869779 0.0617333 2.59534e-21)
(0.870698 0.0526235 -3.36977e-21)
(0.861812 0.0580088 3.66464e-21)
(1.01115 0.00312041 -2.07505e-22)
(1.01123 0.0032046 0)
(1.01114 0.0031199 0)
(1.01435 0.0103395 -3.47137e-22)
(1.0153 0.0103736 1.04375e-21)
(1.01484 0.0111962 -5.09215e-22)
(1.07472 -0.0243434 0)
(1.0744 -0.0176441 0)
(1.08067 -0.0205885 -1.01022e-21)
(1.0154 0.0344294 3.25079e-22)
(1.01694 0.0349131 -2.43955e-22)
(1.01116 0.00310766 -4.80656e-22)
(1.01106 0.00302445 -1.2318e-22)
(1.01029 0.00224523 -1.73437e-23)
(1.01023 0.00216374 -1.36242e-22)
(1.01056 0.00215871 6.31922e-22)
(1.01051 0.00216718 -4.14439e-22)
(1.01046 0.00206097 1.36695e-22)
(1.04496 0.050938 0)
(1.04653 0.0518389 0)
(1.04478 0.0527008 0)
(0.877993 0.0654478 -8.92216e-22)
(0.869211 0.0712968 1.23061e-21)
(0.630114 0.073522 -3.77113e-21)
(0.61244 0.0639188 -4.29756e-21)
(0.672388 0.0503709 -1.53172e-20)
(1.00243 -0.0436435 3.28459e-21)
(0.995983 -0.0518213 -5.49536e-22)
(1.00427 -0.00951345 -1.8402e-22)
(1.03731 0.0206892 -4.15103e-21)
(1.03761 0.0203736 -1.57357e-23)
(1.03774 0.0209752 -3.44472e-21)
(0.964945 -0.00146968 6.56517e-22)
(0.959188 -0.00782066 0)
(0.969213 -0.00794147 -7.52952e-22)
(1.01281 -0.00205077 -4.88094e-23)
(1.01268 -0.00197084 2.81957e-23)
(1.01264 -0.00198628 2.63609e-23)
(1.02209 0.0079044 4.53588e-22)
(1.02248 0.00791197 2.08283e-21)
(1.03686 0.0204984 -1.82211e-21)
(1.01818 0.00489029 0)
(1.01844 0.00491601 1.49004e-21)
(1.01836 0.00509767 3.18841e-22)
(1.02551 0.0443086 2.21826e-22)
(1.0063 -6.32578e-05 -3.42676e-24)
(1.00756 -0.000130888 -2.2823e-23)
(0.887506 -0.0538764 6.46108e-22)
(0.874492 -0.0382645 0)
(0.869644 -0.0580195 0)
(1.00961 -0.000378535 6.93384e-22)
(1.00957 -0.000409141 -9.59538e-23)
(1.00972 -0.000418487 5.43331e-22)
(0.960453 0.0664951 -2.05198e-22)
(0.959511 0.0567041 -4.17068e-22)
(1.01464 0.000559607 3.4526e-22)
(1.01474 0.000633584 -2.56534e-21)
(1.0146 0.000598374 -3.00227e-21)
(1.01512 0.0107759 -1.01421e-21)
(1.01492 0.0104069 -8.5504e-22)
(1.00825 0.00577839 -6.78226e-22)
(1.00893 0.00522527 -1.1096e-22)
(1.00819 0.0047479 -4.72266e-22)
(0.998151 0.118864 -8.57177e-21)
(1.00293 0.117352 0)
(0.999468 0.11357 -4.10816e-21)
(1.13561 0.0402768 8.46366e-21)
(1.09982 -0.000502186 3.3096e-21)
(1.07402 -0.00318513 1.98428e-20)
(1.0263 0.0393992 -9.51915e-23)
(1.02724 0.0412956 3.25865e-22)
(1.01066 -0.0414991 -1.16644e-21)
(1.0082 -0.0358979 4.61897e-22)
(1.01882 0.0128749 -6.97584e-22)
(1.01875 0.0124237 2.34415e-21)
(1.01916 0.0127209 1.02444e-21)
(1.00981 0.00174617 1.28004e-22)
(1.00977 0.00178072 5.59139e-23)
(1.01792 0.00486213 -1.1731e-21)
(1.018 0.00467571 0)
(1.01431 -0.00504167 -4.61602e-23)
(1.01452 -0.00630081 -1.49047e-22)
(1.0154 -0.00532751 0)
(0.947895 -0.0868917 -5.18083e-22)
(0.955793 -0.108155 -2.22405e-23)
(1.00992 0.00193259 0)
(1.00993 0.00189563 3.59425e-23)
(1.00984 0.00185584 0)
(1.01116 0.000686152 -4.2241e-22)
(1.01051 0.000529837 0)
(1.01129 0.000661493 0)
(0.988304 -0.013213 1.91675e-22)
(0.984213 -0.0178142 1.35436e-21)
(0.981653 -0.0115015 -1.799e-23)
(1.01971 0.0122273 1.06928e-24)
(1.0201 0.0124354 6.90207e-22)
(1.01997 0.0119908 2.7056e-22)
(1.00996 0.00186323 -1.11828e-22)
(1.0099 0.00178693 -8.39961e-23)
(1.01 0.00182454 -1.4586e-22)
(0.966771 0.100741 -6.35795e-22)
(0.964569 0.105749 -5.43049e-22)
(0.970058 0.105356 1.01813e-20)
(1.01391 -0.00412947 -4.50464e-23)
(1.01329 -0.00469171 2.59015e-23)
(1.01049 0.00217818 -6.91785e-22)
(1.01045 0.00218587 -6.47893e-23)
(1.01039 0.0020877 0)
(1.01155 -0.000627056 0)
(1.01181 -0.000830604 0)
(1.01159 -0.000846608 2.57861e-22)
(1.02823 0.0353464 -5.0906e-22)
(1.02966 0.0359656 -7.64812e-22)
(1.0124 0.000529318 -1.88772e-22)
(1.0114 0.00047465 -2.52921e-22)
(1.0114 0.000479377 4.15295e-22)
(1.02761 0.0366955 5.08094e-22)
(1.02688 0.0350028 -3.37023e-22)
(1.01159 -0.00113356 1.21763e-22)
(1.01166 -0.00108191 0)
(1.01175 -0.00111051 0)