/*--------------------------------*- C++ -*----------------------------------*\
| =========                 |                                                 |
| \\      /  F ield         | OpenFOAM: The Open Source CFD Toolbox           |
|  \\    /   O peration     | Version:  v2012                                 |
|   \\  /    A nd           | Website:  www.openfoam.com                      |
|    \\/     M anipulation  |                                                 |
\*---------------------------------------------------------------------------*/
FoamFile
{
    version     2.0;
    format      ascii;
    class       volVectorField;
    location    "300";
    object      cellDisplacement;
}
// * * * * * * * * * * * * * * * * * * * * * * * * * * * * * * * * * * * * * //

dimensions      [0 1 0 0 0 0 0];


internalField   nonuniform List<vector> 
18758
(
(0 0.000270382 0)
(0 0.000211646 0)
(0 1.69989e-05 0)
(0 0.000269456 0)
(0 0.000227618 0)
(0 3.7627e-06 0)
(0 7.52535e-05 0)
(0 7.25095e-05 0)
(0 0.000225002 0)
(0 0.000219022 0)
(0 0.0002032 0)
(0 0.00033928 0)
(0 0.000229991 0)
(0 4.94534e-05 0)
(0 7.60449e-05 0)
(0 4.17061e-05 0)
(0 0.000338206 0)
(0 1.19103e-06 0)
(0 7.38419e-05 0)
(0 0.000116921 0)
(0 0.000340227 0)
(0 1.06247e-06 0)
(0 3.32158e-06 0)
(0 8.62967e-06 0)
(0 9.3565e-07 0)
(0 8.53862e-06 0)
(0 0.000247827 0)
(0 4.4459e-05 0)
(0 1.81222e-05 0)
(0 0.000217651 0)
(0 0.000105326 0)
(0 0.000244908 0)
(0 7.33644e-05 0)
(0 1.82386e-06 0)
(0 0.000233845 0)
(0 0.000214906 0)
(0 0.000226964 0)
(0 0.000231447 0)
(0 0.000190935 0)
(0 1.39921e-05 0)
(0 0.00020413 0)
(0 0.000212315 0)
(0 0.000189705 0)
(0 0.000276092 0)
(0 2.09136e-05 0)
(0 0.000106615 0)
(0 0.000210176 0)
(0 2.09001e-05 0)
(0 -1.81254e-07 0)
(0 0.00026347 0)
(0 0.000202359 0)
(0 1.05289e-05 0)
(0 0.000262417 0)
(0 0.000164068 0)
(0 4.24145e-06 0)
(0 0.000230092 0)
(0 0.000192209 0)
(0 0.000118134 0)
(0 2.29967e-05 0)
(0 0.000188755 0)
(0 2.03392e-05 0)
(0 0.000274084 0)
(0 0.000163983 0)
(0 4.75653e-05 0)
(0 1.8182e-05 0)
(0 2.0984e-07 0)
(0 2.98534e-05 0)
(0 6.93265e-05 0)
(0 4.6193e-05 0)
(0 2.39803e-06 0)
(0 1.07246e-05 0)
(0 8.67798e-06 0)
(0 0.000107896 0)
(0 0.000100487 0)
(0 9.90582e-05 0)
(0 0.000102557 0)
(0 0.000142162 0)
(0 0.000335983 0)
(0 0.000221448 0)
(0 0.000186307 0)
(0 9.34584e-06 0)
(0 0.000192677 0)
(0 0.000336304 0)
(0 9.53081e-05 0)
(0 0.00028924 0)
(0 5.03203e-06 0)
(0 2.83385e-05 0)
(0 0.000101155 0)
(0 0.000163987 0)
(0 4.92614e-06 0)
(0 9.59111e-06 0)
(0 1.0339e-05 0)
(0 1.07513e-05 0)
(0 -2.57133e-07 0)
(0 0.000105759 0)
(0 0.00010884 0)
(0 9.61872e-06 0)
(0 2.12367e-05 0)
(0 0.000336217 0)
(0 0.00014855 0)
(0 0.000103718 0)
(0 0.000123583 0)
(0 6.75112e-05 0)
(0 0.000106362 0)
(0 4.1938e-07 0)
(0 0.000340423 0)
(0 1.97597e-05 0)
(0 9.38769e-06 0)
(0 0.000147982 0)
(0 0.000306671 0)
(0 3.67666e-05 0)
(0 4.69243e-05 0)
(0 0.000295338 0)
(0 2.52933e-05 0)
(0 0.000126045 0)
(0 4.10845e-05 0)
(0 2.2396e-05 0)
(0 0.000169512 0)
(0 3.79114e-05 0)
(0 0.000295679 0)
(0 3.23984e-05 0)
(0 0.000143508 0)
(0 0.000290518 0)
(0 0.000195562 0)
(0 -5.61186e-07 0)
(0 0.000161244 0)
(0 0.000267236 0)
(0 0.000194106 0)
(0 1.41757e-05 0)
(0 -1.44425e-06 0)
(0 2.17064e-05 0)
(0 1.67543e-05 0)
(0 5.9098e-05 0)
(0 1.95941e-06 0)
(0 1.19056e-05 0)
(0 3.19904e-05 0)
(0 0.000138904 0)
(0 0.000290461 0)
(0 3.06609e-05 0)
(0 1.0062e-05 0)
(0 0.000298077 0)
(0 0.000292645 0)
(0 2.09024e-05 0)
(0 0.000147281 0)
(0 -6.83819e-07 0)
(0 1.35206e-05 0)
(0 4.57503e-07 0)
(0 1.43105e-05 0)
(0 0.000206351 0)
(0 2.50427e-05 0)
(0 -1.41912e-06 0)
(0 -1.32135e-06 0)
(0 5.17131e-05 0)
(0 0.000239195 0)
(0 0.000201365 0)
(0 7.51866e-05 0)
(0 1.14228e-05 0)
(0 1.35522e-05 0)
(0 0.000103102 0)
(0 0.00020858 0)
(0 2.03839e-05 0)
(0 0.000220466 0)
(0 -9.87355e-07 0)
(0 6.7017e-07 0)
(0 0.000108964 0)
(0 0.000183213 0)
(0 0.00021688 0)
(0 1.86078e-05 0)
(0 -1.40397e-06 0)
(0 0.000340648 0)
(0 -1.30212e-06 0)
(0 1.17544e-05 0)
(0 1.79407e-05 0)
(0 2.33486e-06 0)
(0 0.000151841 0)
(0 0.000184562 0)
(0 0.00010188 0)
(0 7.65787e-06 0)
(0 2.17879e-06 0)
(0 4.21518e-05 0)
(0 5.22757e-05 0)
(0 0.000152505 0)
(0 4.73239e-06 0)
(0 3.78994e-05 0)
(0 2.61041e-05 0)
(0 3.8504e-05 0)
(0 0.000219882 0)
(0 0.000157934 0)
(0 -1.87308e-07 0)
(0 0.00010815 0)
(0 -1.37342e-06 0)
(0 3.85422e-05 0)
(0 4.60307e-05 0)
(0 0.000132347 0)
(0 3.18045e-05 0)
(0 4.02216e-05 0)
(0 3.10363e-05 0)
(0 5.15292e-05 0)
(0 -2.37253e-08 0)
(0 1.33432e-05 0)
(0 0.000241496 0)
(0 1.35197e-05 0)
(0 0.000108687 0)
(0 3.19552e-05 0)
(0 3.95548e-05 0)
(0 -8.63373e-07 0)
(0 0.000249913 0)
(0 0.00023703 0)
(0 -1.45975e-06 0)
(0 -1.49887e-06 0)
(0 9.67871e-06 0)
(0 1.18413e-05 0)
(0 0.000245122 0)
(0 0.000270339 0)
(0 0.000119809 0)
(0 1.12348e-05 0)
(0 7.09952e-06 0)
(0 1.19963e-05 0)
(0 4.91192e-06 0)
(0 0.000209269 0)
(0 0.000133393 0)
(0 0.000234307 0)
(0 2.19478e-05 0)
(0 1.40893e-05 0)
(0 0.000107096 0)
(0 2.24692e-05 0)
(0 0.000101154 0)
(0 3.79142e-06 0)
(0 1.93578e-05 0)
(0 0.000246338 0)
(0 9.16681e-06 0)
(0 1.42868e-05 0)
(0 0.000152077 0)
(0 2.6864e-05 0)
(0 6.71203e-05 0)
(0 0.000238457 0)
(0 8.22127e-05 0)
(0 -2.6465e-07 0)
(0 3.14847e-05 0)
(0 7.89142e-05 0)
(0 4.19153e-05 0)
(0 8.30601e-05 0)
(0 3.05147e-05 0)
(0 1.33381e-05 0)
(0 2.48177e-05 0)
(0 1.97815e-05 0)
(0 6.2375e-05 0)
(0 0.00012633 0)
(0 0.000195165 0)
(0 0.00015241 0)
(0 -1.23514e-06 0)
(0 0.000274163 0)
(0 1.12968e-05 0)
(0 0.000240044 0)
(0 1.50408e-06 0)
(0 2.84835e-05 0)
(0 0.00018502 0)
(0 8.7363e-06 0)
(0 7.64182e-06 0)
(0 0.000216014 0)
(0 0.000293783 0)
(0 0.000201215 0)
(0 6.30043e-05 0)
(0 4.70547e-05 0)
(0 7.53248e-05 0)
(0 7.75367e-05 0)
(0 0.000205043 0)
(0 2.96405e-05 0)
(0 5.08777e-05 0)
(0 0.000181083 0)
(0 4.131e-05 0)
(0 6.3045e-06 0)
(0 0.000177872 0)
(0 0.00024031 0)
(0 2.65186e-05 0)
(0 0.000120333 0)
(0 4.99754e-05 0)
(0 5.26021e-06 0)
(0 0.000272448 0)
(0 5.06798e-05 0)
(0 0.000120522 0)
(0 1.60528e-05 0)
(0 3.25076e-05 0)
(0 9.44771e-07 0)
(0 7.39233e-05 0)
(0 0.000236497 0)
(0 3.95124e-06 0)
(0 2.95148e-05 0)
(0 0.000116016 0)
(0 0.000110217 0)
(0 9.59993e-06 0)
(0 4.52858e-05 0)
(0 0.000192307 0)
(0 1.93995e-05 0)
(0 1.16192e-05 0)
(0 0.000202484 0)
(0 2.45627e-05 0)
(0 7.00145e-06 0)
(0 7.24727e-06 0)
(0 -1.04512e-07 0)
(0 3.77607e-05 0)
(0 2.95005e-05 0)
(0 3.09014e-05 0)
(0 0.000178558 0)
(0 0.000183417 0)
(0 5.09005e-05 0)
(0 0.00031935 0)
(0 0.000341135 0)
(0 0.00027585 0)
(0 0.000233532 0)
(0 3.27856e-05 0)
(0 7.9807e-05 0)
(0 2.99076e-05 0)
(0 3.1749e-05 0)
(0 1.74951e-05 0)
(0 1.5287e-06 0)
(0 6.23556e-05 0)
(0 0.000172979 0)
(0 1.41763e-05 0)
(0 2.98579e-05 0)
(0 3.26493e-05 0)
(0 0.000100687 0)
(0 2.66122e-05 0)
(0 9.50316e-05 0)
(0 6.41257e-05 0)
(0 -1.48779e-06 0)
(0 9.89409e-06 0)
(0 0.000196494 0)
(0 -4.86819e-07 0)
(0 8.18937e-05 0)
(0 0.000305219 0)
(0 2.34435e-06 0)
(0 9.05086e-05 0)
(0 0.000186153 0)
(0 8.24818e-06 0)
(0 2.83091e-05 0)
(0 0.000140926 0)
(0 0.000243346 0)
(0 7.05781e-05 0)
(0 0.000254105 0)
(0 0.000138676 0)
(0 7.53183e-05 0)
(0 6.0393e-05 0)
(0 0.000178371 0)
(0 0.000289455 0)
(0 0.000175879 0)
(0 0.000335005 0)
(0 0.00019128 0)
(0 2.5332e-05 0)
(0 0.000182348 0)
(0 4.15355e-07 0)
(0 0.00028873 0)
(0 3.85691e-05 0)
(0 3.61803e-05 0)
(0 -7.77811e-07 0)
(0 0.000209922 0)
(0 0.000172365 0)
(0 7.46452e-05 0)
(0 0.000306087 0)
(0 0.000267925 0)
(0 0.000273952 0)
(0 3.03815e-05 0)
(0 0.000135004 0)
(0 0.000284663 0)
(0 0.000102883 0)
(0 0.000133474 0)
(0 6.73751e-05 0)
(0 3.38457e-05 0)
(0 0.000151575 0)
(0 2.28656e-05 0)
(0 -3.3698e-07 0)
(0 3.9579e-05 0)
(0 0.00015597 0)
(0 6.49546e-05 0)
(0 0.00020554 0)
(0 3.96592e-05 0)
(0 1.04651e-06 0)
(0 1.88616e-07 0)
(0 1.37265e-05 0)
(0 0.000193442 0)
(0 0.000282446 0)
(0 3.7181e-05 0)
(0 8.25272e-06 0)
(0 8.58164e-07 0)
(0 0.000286454 0)
(0 0.000323597 0)
(0 4.22725e-05 0)
(0 -6.16348e-07 0)
(0 7.73204e-05 0)
(0 0.000339749 0)
(0 0.000308466 0)
(0 4.11989e-05 0)
(0 5.39898e-05 0)
(0 0.00012869 0)
(0 0.000281395 0)
(0 3.11422e-05 0)
(0 0.000267137 0)
(0 4.11048e-05 0)
(0 1.14513e-05 0)
(0 1.4481e-05 0)
(0 0.000189591 0)
(0 7.12492e-05 0)
(0 0.000199703 0)
(0 2.57414e-05 0)
(0 0.000116641 0)
(0 0.000115884 0)
(0 -6.92199e-07 0)
(0 0.000201299 0)
(0 1.68884e-05 0)
(0 0.000199091 0)
(0 7.06951e-06 0)
(0 0.000191674 0)
(0 5.52158e-05 0)
(0 8.2489e-05 0)
(0 0.000145369 0)
(0 2.41083e-05 0)
(0 0.000310957 0)
(0 0.000187962 0)
(0 6.16388e-05 0)
(0 2.11017e-05 0)
(0 3.75898e-05 0)
(0 4.21631e-05 0)
(0 1.56092e-07 0)
(0 7.76279e-05 0)
(0 0.000290338 0)
(0 1.23066e-05 0)
(0 2.30137e-06 0)
(0 1.03111e-05 0)
(0 5.30693e-06 0)
(0 0.00027942 0)
(0 8.52575e-06 0)
(0 0.000155929 0)
(0 9.49595e-06 0)
(0 2.02981e-05 0)
(0 0.000105977 0)
(0 2.47927e-05 0)
(0 8.06169e-05 0)
(0 9.99065e-05 0)
(0 7.87396e-05 0)
(0 7.29647e-05 0)
(0 4.46799e-05 0)
(0 0.000180042 0)
(0 1.29696e-06 0)
(0 1.05645e-07 0)
(0 4.06937e-05 0)
(0 0.000245679 0)
(0 3.95368e-06 0)
(0 8.71477e-06 0)
(0 0.000108306 0)
(0 1.37684e-06 0)
(0 7.38664e-05 0)
(0 1.60421e-05 0)
(0 4.01802e-05 0)
(0 0.000205941 0)
(0 4.02589e-05 0)
(0 -3.42552e-07 0)
(0 0.000186778 0)
(0 4.02389e-06 0)
(0 3.4868e-05 0)
(0 0.00024214 0)
(0 3.49834e-05 0)
(0 2.45396e-05 0)
(0 2.73499e-06 0)
(0 7.51772e-05 0)
(0 9.06744e-06 0)
(0 5.69683e-05 0)
(0 3.5491e-05 0)
(0 0.000134528 0)
(0 8.07405e-06 0)
(0 0.000233965 0)
(0 2.11018e-05 0)
(0 0.000231982 0)
(0 0.000159798 0)
(0 1.74781e-05 0)
(0 8.10448e-05 0)
(0 8.57288e-05 0)
(0 7.54775e-05 0)
(0 0.00021073 0)
(0 0.000320799 0)
(0 0.000299283 0)
(0 3.37943e-05 0)
(0 7.78912e-05 0)
(0 0.000130341 0)
(0 7.33007e-06 0)
(0 0.000128444 0)
(0 3.6014e-06 0)
(0 0.000245476 0)
(0 1.75036e-05 0)
(0 3.31499e-05 0)
(0 9.62712e-06 0)
(0 1.75363e-05 0)
(0 1.51354e-05 0)
(0 1.93385e-05 0)
(0 0.000240925 0)
(0 0.000319127 0)
(0 0.000340828 0)
(0 0.00025049 0)
(0 0.000199093 0)
(0 8.22873e-07 0)
(0 2.69865e-05 0)
(0 8.29593e-06 0)
(0 7.75262e-06 0)
(0 6.26681e-05 0)
(0 9.41491e-06 0)
(0 3.63796e-05 0)
(0 8.48317e-06 0)
(0 1.9657e-06 0)
(0 0.000256032 0)
(0 0.00018973 0)
(0 0.000186577 0)
(0 6.95971e-07 0)
(0 3.15074e-06 0)
(0 7.72666e-07 0)
(0 2.30561e-05 0)
(0 0.000116691 0)
(0 1.02559e-05 0)
(0 0.000253927 0)
(0 0.000281102 0)
(0 3.6618e-05 0)
(0 0.000132765 0)
(0 0.000178877 0)
(0 6.82593e-06 0)
(0 4.16043e-06 0)
(0 0.000245321 0)
(0 1.68699e-05 0)
(0 0.000331192 0)
(0 4.44113e-05 0)
(0 0.000312532 0)
(0 0.000137366 0)
(0 3.19422e-06 0)
(0 4.57413e-05 0)
(0 1.26003e-05 0)
(0 4.11774e-05 0)
(0 0.0001429 0)
(0 0.000178428 0)
(0 0.000145932 0)
(0 0.000106457 0)
(0 6.85448e-05 0)
(0 8.77308e-05 0)
(0 0.000244019 0)
(0 0.00018611 0)
(0 0.000198661 0)
(0 5.97099e-05 0)
(0 5.9059e-05 0)
(0 1.41335e-06 0)
(0 2.48084e-05 0)
(0 0.00011397 0)
(0 0.000241469 0)
(0 4.60882e-05 0)
(0 1.75125e-05 0)
(0 4.48823e-05 0)
(0 9.92623e-06 0)
(0 2.85408e-06 0)
(0 3.48402e-05 0)
(0 0.000231592 0)
(0 0.000240282 0)
(0 0.000127621 0)
(0 3.87017e-05 0)
(0 2.35183e-05 0)
(0 0.000141984 0)
(0 1.35116e-05 0)
(0 6.68216e-05 0)
(0 7.41292e-06 0)
(0 0.00029866 0)
(0 0.000268799 0)
(0 0.000167086 0)
(0 1.09831e-05 0)
(0 8.51158e-05 0)
(0 0.000293994 0)
(0 0.000306528 0)
(0 0.000190312 0)
(0 4.38326e-05 0)
(0 0.00030178 0)
(0 0.000168253 0)
(0 2.44408e-05 0)
(0 0.000269714 0)
(0 1.13638e-05 0)
(0 1.43971e-05 0)
(0 4.738e-06 0)
(0 4.33478e-06 0)
(0 0.000306026 0)
(0 1.83783e-05 0)
(0 4.0507e-05 0)
(0 0.00010559 0)
(0 2.79703e-05 0)
(0 4.56813e-05 0)
(0 -1.78795e-08 0)
(0 0.000166878 0)
(0 0.000251369 0)
(0 0.000175205 0)
(0 2.09204e-05 0)
(0 1.56343e-05 0)
(0 9.59204e-05 0)
(0 8.25923e-05 0)
(0 0.000145522 0)
(0 0.000181132 0)
(0 0.00021207 0)
(0 0.000303505 0)
(0 0.000230638 0)
(0 0.000140419 0)
(0 -4.39732e-08 0)
(0 2.71944e-05 0)
(0 9.0612e-06 0)
(0 0.000129892 0)
(0 0.000256335 0)
(0 0.00010723 0)
(0 6.13273e-05 0)
(0 0.000250067 0)
(0 3.90269e-05 0)
(0 0.000294187 0)
(0 5.64737e-05 0)
(0 0.000187142 0)
(0 4.53778e-05 0)
(0 0.000321429 0)
(0 3.96523e-05 0)
(0 -4.08784e-07 0)
(0 5.78838e-05 0)
(0 0.000311811 0)
(0 0.000187714 0)
(0 0.000254743 0)
(0 2.58778e-05 0)
(0 2.22593e-05 0)
(0 0.00019245 0)
(0 4.59437e-05 0)
(0 0.000174975 0)
(0 5.69458e-05 0)
(0 0.000178389 0)
(0 8.88141e-06 0)
(0 0.000305202 0)
(0 0.000312565 0)
(0 0.000239923 0)
(0 0.000133914 0)
(0 0.000109013 0)
(0 0.000314384 0)
(0 5.63473e-07 0)
(0 1.74581e-05 0)
(0 2.34328e-05 0)
(0 -1.34668e-06 0)
(0 1.13829e-06 0)
(0 6.11177e-06 0)
(0 2.56373e-06 0)
(0 9.76082e-05 0)
(0 0.000237549 0)
(0 2.56769e-05 0)
(0 0.000178931 0)
(0 0.000171232 0)
(0 1.17256e-05 0)
(0 2.77336e-05 0)
(0 4.53016e-06 0)
(0 5.76246e-05 0)
(0 0.000279724 0)
(0 0.00012075 0)
(0 0.000279604 0)
(0 0.00017715 0)
(0 1.52145e-05 0)
(0 0.000324958 0)
(0 0.000271427 0)
(0 0.000235586 0)
(0 3.84631e-05 0)
(0 1.14085e-05 0)
(0 3.92003e-05 0)
(0 0.00033043 0)
(0 0.000174894 0)
(0 0.00014154 0)
(0 0.000286667 0)
(0 0.000272973 0)
(0 0.000138894 0)
(0 4.63207e-06 0)
(0 4.81818e-06 0)
(0 7.43095e-05 0)
(0 8.35148e-05 0)
(0 0.000243881 0)
(0 4.46304e-05 0)
(0 4.98963e-08 0)
(0 -5.23568e-07 0)
(0 0.000172784 0)
(0 0.000243946 0)
(0 0.000341128 0)
(0 4.07383e-05 0)
(0 0.000123168 0)
(0 0.0001634 0)
(0 3.96876e-05 0)
(0 5.26119e-05 0)
(0 0.000334142 0)
(0 1.23007e-05 0)
(0 2.37964e-05 0)
(0 1.74994e-05 0)
(0 3.52904e-05 0)
(0 4.11075e-05 0)
(0 0.000143458 0)
(0 0.000248325 0)
(0 0.000110972 0)
(0 0.000126862 0)
(0 3.35203e-05 0)
(0 7.25098e-05 0)
(0 0.000202881 0)
(0 0.000160755 0)
(0 9.29922e-05 0)
(0 0.000245943 0)
(0 4.05347e-05 0)
(0 0.000239265 0)
(0 0.000183759 0)
(0 3.01322e-05 0)
(0 3.55598e-05 0)
(0 1.14952e-05 0)
(0 3.56521e-05 0)
(0 0.00018028 0)
(0 2.62463e-05 0)
(0 0.000106089 0)
(0 0.000271253 0)
(0 0.000275939 0)
(0 1.02463e-05 0)
(0 7.85895e-06 0)
(0 3.34439e-05 0)
(0 0.000171809 0)
(0 4.6588e-05 0)
(0 0.000160076 0)
(0 0.000239417 0)
(0 3.64081e-05 0)
(0 0.000115715 0)
(0 5.70946e-05 0)
(0 0.000191801 0)
(0 2.97426e-05 0)
(0 1.95752e-05 0)
(0 3.66548e-05 0)
(0 1.46614e-05 0)
(0 1.35854e-05 0)
(0 4.26941e-05 0)
(0 1.01243e-05 0)
(0 1.37971e-05 0)
(0 0.00030279 0)
(0 0.000110856 0)
(0 4.35686e-05 0)
(0 3.51066e-05 0)
(0 0.000309005 0)
(0 0.000195763 0)
(0 4.80239e-06 0)
(0 0.000273646 0)
(0 6.14717e-05 0)
(0 0.000163418 0)
(0 0.000163166 0)
(0 6.35442e-05 0)
(0 5.32498e-06 0)
(0 0.000280364 0)
(0 3.90441e-05 0)
(0 0.000122871 0)
(0 7.66374e-05 0)
(0 0.000180198 0)
(0 3.22268e-05 0)
(0 0.000205938 0)
(0 4.43406e-06 0)
(0 0.000235073 0)
(0 0.000174629 0)
(0 6.31373e-05 0)
(0 4.60097e-05 0)
(0 6.36492e-05 0)
(0 0.000317924 0)
(0 0.000124387 0)
(0 0.000322127 0)
(0 6.46276e-05 0)
(0 0.000174933 0)
(0 2.59702e-05 0)
(0 0.0003367 0)
(0 4.11213e-05 0)
(0 2.22829e-05 0)
(0 0.000176442 0)
(0 2.5164e-05 0)
(0 0.0002688 0)
(0 5.33133e-05 0)
(0 6.12529e-05 0)
(0 3.75637e-05 0)
(0 0.000166163 0)
(0 3.53602e-05 0)
(0 0.000186786 0)
(0 2.45485e-05 0)
(0 5.73005e-06 0)
(0 1.57886e-06 0)
(0 2.80821e-05 0)
(0 3.64189e-05 0)
(0 1.92746e-05 0)
(0 0.000242502 0)
(0 2.50202e-05 0)
(0 5.90801e-06 0)
(0 0.000192205 0)
(0 0.000200537 0)
(0 0.000323404 0)
(0 0.000121198 0)
(0 9.49914e-05 0)
(0 0.000156598 0)
(0 9.81952e-05 0)
(0 -1.51632e-06 0)
(0 0.000278053 0)
(0 0.000232683 0)
(0 4.66022e-05 0)
(0 8.96882e-05 0)
(0 0.000122331 0)
(0 0.000281329 0)
(0 9.93431e-05 0)
(0 2.56424e-05 0)
(0 0.000232751 0)
(0 3.89124e-05 0)
(0 4.76623e-05 0)
(0 0.00019967 0)
(0 0.000144669 0)
(0 1.91658e-05 0)
(0 5.47655e-05 0)
(0 5.80136e-05 0)
(0 2.68743e-05 0)
(0 0.000293068 0)
(0 4.04727e-06 0)
(0 9.41488e-05 0)
(0 0.000155892 0)
(0 0.000125672 0)
(0 0.000232557 0)
(0 5.56363e-05 0)
(0 3.92625e-05 0)
(0 2.90451e-05 0)
(0 7.20058e-05 0)
(0 4.59593e-05 0)
(0 7.80733e-06 0)
(0 0.000176387 0)
(0 0.00013909 0)
(0 0.000145252 0)
(0 6.66246e-05 0)
(0 7.36815e-05 0)
(0 4.67846e-05 0)
(0 7.03969e-06 0)
(0 0.000275849 0)
(0 0.000163118 0)
(0 1.88884e-06 0)
(0 0.00013173 0)
(0 0.000309056 0)
(0 2.62115e-05 0)
(0 1.9039e-05 0)
(0 1.58284e-05 0)
(0 0.00026659 0)
(0 -1.50778e-06 0)
(0 0.000220448 0)
(0 0.000120384 0)
(0 2.43878e-05 0)
(0 1.18125e-05 0)
(0 2.52587e-06 0)
(0 9.10732e-05 0)
(0 6.47141e-05 0)
(0 3.26255e-05 0)
(0 0.000222253 0)
(0 8.11817e-05 0)
(0 1.59342e-05 0)
(0 0.000305885 0)
(0 3.0325e-05 0)
(0 0.000109805 0)
(0 2.33152e-05 0)
(0 0.000221677 0)
(0 8.15364e-05 0)
(0 0.000229857 0)
(0 4.47875e-05 0)
(0 0.000101866 0)
(0 9.28331e-05 0)
(0 0.000304957 0)
(0 1.64255e-06 0)
(0 7.49676e-05 0)
(0 0.000214055 0)
(0 4.85876e-06 0)
(0 0.000149391 0)
(0 0.000249348 0)
(0 0.000234728 0)
(0 1.16805e-06 0)
(0 0.000138276 0)
(0 0.000150961 0)
(0 1.97939e-05 0)
(0 6.11566e-05 0)
(0 0.000229122 0)
(0 8.14244e-05 0)
(0 5.79613e-06 0)
(0 5.09627e-05 0)
(0 2.46137e-05 0)
(0 0.00022718 0)
(0 0.000263509 0)
(0 5.27332e-05 0)
(0 6.41219e-05 0)
(0 3.82608e-05 0)
(0 5.05281e-05 0)
(0 3.82445e-05 0)
(0 3.64504e-05 0)
(0 4.41017e-05 0)
(0 0.000106389 0)
(0 0.000187044 0)
(0 0.000118556 0)
(0 1.64093e-05 0)
(0 2.22887e-05 0)
(0 0.000294216 0)
(0 4.57315e-05 0)
(0 1.86333e-05 0)
(0 0.000222679 0)
(0 9.02002e-05 0)
(0 0.000236963 0)
(0 4.5988e-05 0)
(0 0.000183091 0)
(0 4.41325e-05 0)
(0 0.000212678 0)
(0 7.62258e-06 0)
(0 2.95627e-05 0)
(0 0.000181482 0)
(0 0.000161708 0)
(0 9.25578e-06 0)
(0 1.54067e-05 0)
(0 2.86197e-05 0)
(0 6.55888e-05 0)
(0 3.08827e-06 0)
(0 5.56202e-05 0)
(0 0.000196784 0)
(0 3.65248e-05 0)
(0 0.000169487 0)
(0 6.24626e-05 0)
(0 0.000241874 0)
(0 0.000316553 0)
(0 0.000247992 0)
(0 5.97682e-05 0)
(0 0.000111621 0)
(0 5.80631e-06 0)
(0 0.000230821 0)
(0 0.000242295 0)
(0 4.67093e-05 0)
(0 0.000107965 0)
(0 0.000319954 0)
(0 2.90908e-05 0)
(0 0.000332472 0)
(0 0.000182281 0)
(0 3.59899e-05 0)
(0 4.35437e-05 0)
(0 4.05744e-05 0)
(0 1.85786e-05 0)
(0 0.000190921 0)
(0 4.95344e-05 0)
(0 0.00015905 0)
(0 0.000166298 0)
(0 8.49333e-05 0)
(0 6.19885e-05 0)
(0 0.000130306 0)
(0 9.983e-05 0)
(0 9.61952e-06 0)
(0 0.0001021 0)
(0 3.41476e-05 0)
(0 0.000101936 0)
(0 0.000149877 0)
(0 0.000123159 0)
(0 -6.90173e-07 0)
(0 0.000262975 0)
(0 0.000101912 0)
(0 5.4059e-05 0)
(0 0.000239302 0)
(0 0.000123044 0)
(0 4.81629e-05 0)
(0 0.000324592 0)
(0 1.13714e-05 0)
(0 0.00034419 0)
(0 2.7507e-05 0)
(0 0.000219242 0)
(0 7.97013e-05 0)
(0 6.974e-05 0)
(0 0.000198689 0)
(0 0.000344379 0)
(0 1.75124e-06 0)
(0 9.01678e-05 0)
(0 0.000323087 0)
(0 0.000196199 0)
(0 1.64724e-05 0)
(0 0.00028483 0)
(0 0.000166144 0)
(0 -1.16332e-06 0)
(0 0.000110216 0)
(0 2.10049e-05 0)
(0 -1.23577e-06 0)
(0 2.67642e-05 0)
(0 2.18115e-05 0)
(0 0.000304243 0)
(0 0.000232265 0)
(0 0.000250946 0)
(0 8.66454e-05 0)
(0 0.000239153 0)
(0 0.000178957 0)
(0 4.17673e-05 0)
(0 0.000248469 0)
(0 0.000129223 0)
(0 4.66153e-06 0)
(0 3.21917e-05 0)
(0 3.22802e-05 0)
(0 8.8871e-05 0)
(0 0.000158618 0)
(0 0.000169459 0)
(0 0.000177152 0)
(0 0.000282368 0)
(0 2.49741e-05 0)
(0 4.85582e-05 0)
(0 0.000344326 0)
(0 4.84582e-05 0)
(0 4.77646e-06 0)
(0 0.000175879 0)
(0 5.35524e-05 0)
(0 9.05081e-05 0)
(0 0.000180143 0)
(0 9.03059e-05 0)
(0 0.000183739 0)
(0 5.5327e-05 0)
(0 0.000287358 0)
(0 9.4158e-05 0)
(0 4.36393e-05 0)
(0 0.00019303 0)
(0 6.49047e-05 0)
(0 0.000340412 0)
(0 1.92763e-05 0)
(0 0.000344361 0)
(0 1.34304e-06 0)
(0 0.000337365 0)
(0 3.97041e-05 0)
(0 0.000213699 0)
(0 0.000186633 0)
(0 0.000194953 0)
(0 5.83694e-05 0)
(0 5.27797e-06 0)
(0 3.38664e-06 0)
(0 0.000329095 0)
(0 9.80424e-05 0)
(0 7.15659e-06 0)
(0 3.0905e-05 0)
(0 1.73517e-05 0)
(0 0.000101248 0)
(0 0.000140086 0)
(0 0.000243766 0)
(0 0.000339426 0)
(0 0.000180464 0)
(0 0.000122503 0)
(0 0.000159156 0)
(0 4.82677e-05 0)
(0 4.35359e-05 0)
(0 0.000284372 0)
(0 0.000165912 0)
(0 0.000100679 0)
(0 0.000241316 0)
(0 0.000192253 0)
(0 9.56889e-05 0)
(0 0.000208325 0)
(0 0.000123287 0)
(0 9.03204e-05 0)
(0 0.000162521 0)
(0 0.000178352 0)
(0 3.09804e-06 0)
(0 1.1018e-05 0)
(0 1.51505e-05 0)
(0 0.000161055 0)
(0 6.85479e-05 0)
(0 0.000241442 0)
(0 8.60821e-05 0)
(0 0.000130636 0)
(0 6.90697e-05 0)
(0 -8.73152e-07 0)
(0 1.85872e-05 0)
(0 0.000179466 0)
(0 0.000192158 0)
(0 8.0342e-05 0)
(0 0.000316621 0)
(0 0.000173438 0)
(0 3.8644e-05 0)
(0 0.000317849 0)
(0 0.000286399 0)
(0 7.09264e-05 0)
(0 -1.05566e-06 0)
(0 1.56276e-06 0)
(0 0.000141084 0)
(0 6.46481e-05 0)
(0 5.18035e-05 0)
(0 0.000342112 0)
(0 0.000156185 0)
(0 1.56691e-05 0)
(0 3.69407e-05 0)
(0 0.00017186 0)
(0 2.26706e-05 0)
(0 3.51432e-05 0)
(0 -7.24251e-07 0)
(0 3.39237e-05 0)
(0 0.000233953 0)
(0 0.000142281 0)
(0 5.19579e-05 0)
(0 0.000284387 0)
(0 5.53032e-05 0)
(0 3.51313e-05 0)
(0 0.000162847 0)
(0 0.000154681 0)
(0 0.000239121 0)
(0 6.1567e-05 0)
(0 0.000169155 0)
(0 0.000343119 0)
(0 4.73405e-05 0)
(0 5.93702e-05 0)
(0 0.000324205 0)
(0 3.22598e-05 0)
(0 2.47621e-05 0)
(0 1.05859e-05 0)
(0 6.0078e-05 0)
(0 0.000242718 0)
(0 0.00029257 0)
(0 1.53451e-05 0)
(0 0.000341739 0)
(0 0.000227973 0)
(0 4.2955e-05 0)
(0 1.14428e-05 0)
(0 0.000231323 0)
(0 4.37785e-05 0)
(0 0.000324939 0)
(0 0.000154127 0)
(0 4.72458e-05 0)
(0 1.009e-05 0)
(0 5.31516e-05 0)
(0 5.9649e-05 0)
(0 0.000240083 0)
(0 9.55513e-05 0)
(0 6.85873e-05 0)
(0 1.54392e-05 0)
(0 6.78998e-05 0)
(0 0.000121099 0)
(0 0.000237657 0)
(0 1.50337e-05 0)
(0 2.76219e-05 0)
(0 0.000125472 0)
(0 0.000148455 0)
(0 3.08046e-05 0)
(0 0.000323459 0)
(0 4.22936e-05 0)
(0 2.26751e-06 0)
(0 0.000135878 0)
(0 0.000146477 0)
(0 3.16765e-05 0)
(0 0.000297666 0)
(0 0.000134545 0)
(0 6.43852e-05 0)
(0 0.000184845 0)
(0 0.000249192 0)
(0 0.000237087 0)
(0 5.11473e-05 0)
(0 0.000156042 0)
(0 6.32153e-06 0)
(0 2.5996e-05 0)
(0 8.18634e-05 0)
(0 0.00018403 0)
(0 0.000323999 0)
(0 5.7587e-05 0)
(0 5.19111e-06 0)
(0 0.000304809 0)
(0 2.33411e-05 0)
(0 0.0001872 0)
(0 -9.97553e-07 0)
(0 1.19789e-05 0)
(0 -1.01605e-06 0)
(0 6.37425e-06 0)
(0 8.34701e-05 0)
(0 0.000207042 0)
(0 0.000193658 0)
(0 2.04494e-05 0)
(0 0.000155411 0)
(0 1.82587e-06 0)
(0 0.000112461 0)
(0 0.00016897 0)
(0 0.000118965 0)
(0 0.000105893 0)
(0 1.04167e-05 0)
(0 0.000259249 0)
(0 2.41847e-05 0)
(0 8.88634e-05 0)
(0 0.000215038 0)
(0 1.24323e-05 0)
(0 0.00034288 0)
(0 0.000301203 0)
(0 0.000289201 0)
(0 5.39422e-05 0)
(0 2.16481e-05 0)
(0 2.16901e-05 0)
(0 2.10547e-06 0)
(0 4.74665e-05 0)
(0 0.000110955 0)
(0 -6.62319e-07 0)
(0 -1.25755e-06 0)
(0 5.63663e-05 0)
(0 7.60923e-05 0)
(0 3.51552e-05 0)
(0 -7.6803e-07 0)
(0 4.81299e-05 0)
(0 0.000322011 0)
(0 0.000306108 0)
(0 0.00013839 0)
(0 9.90537e-06 0)
(0 1.92083e-05 0)
(0 5.47235e-05 0)
(0 0.000106626 0)
(0 0.000341832 0)
(0 0.000308591 0)
(0 2.83259e-06 0)
(0 0.00017964 0)
(0 0.000192616 0)
(0 0.000139352 0)
(0 0.000316033 0)
(0 2.37231e-07 0)
(0 0.000164317 0)
(0 6.85843e-05 0)
(0 0.000177954 0)
(0 0.000188106 0)
(0 9.71376e-05 0)
(0 0.000197509 0)
(0 9.63989e-05 0)
(0 7.33309e-07 0)
(0 3.64854e-05 0)
(0 0.000166656 0)
(0 1.37047e-05 0)
(0 4.44774e-05 0)
(0 3.72159e-05 0)
(0 0.000308452 0)
(0 0.000342181 0)
(0 0.000117963 0)
(0 1.25757e-05 0)
(0 2.1062e-06 0)
(0 0.00024762 0)
(0 0.000275617 0)
(0 9.41304e-06 0)
(0 0.000318139 0)
(0 0.00025159 0)
(0 2.98093e-05 0)
(0 0.000201529 0)
(0 3.73667e-05 0)
(0 8.97174e-05 0)
(0 8.58349e-05 0)
(0 0.000196439 0)
(0 9.98638e-05 0)
(0 0.00022891 0)
(0 0.000156429 0)
(0 0.000191071 0)
(0 0.00011079 0)
(0 3.17608e-05 0)
(0 0.000128463 0)
(0 0.000125906 0)
(0 0.000222505 0)
(0 0.000280308 0)
(0 0.00013988 0)
(0 0.000260724 0)
(0 2.92822e-05 0)
(0 5.69164e-05 0)
(0 0.000183139 0)
(0 0.000162365 0)
(0 3.55388e-05 0)
(0 9.09308e-06 0)
(0 0.000278758 0)
(0 0.000159971 0)
(0 3.91704e-06 0)
(0 0.000343073 0)
(0 -6.38383e-07 0)
(0 6.66161e-05 0)
(0 0.000118752 0)
(0 0.000105351 0)
(0 1.28075e-05 0)
(0 5.05198e-05 0)
(0 0.000246234 0)
(0 0.000157987 0)
(0 5.91487e-05 0)
(0 8.63509e-05 0)
(0 1.0562e-06 0)
(0 0.000110258 0)
(0 8.89884e-05 0)
(0 0.000239496 0)
(0 0.000243118 0)
(0 6.86792e-05 0)
(0 0.000241136 0)
(0 0.000264723 0)
(0 4.15167e-05 0)
(0 0.000192531 0)
(0 1.30123e-05 0)
(0 0.00016902 0)
(0 0.000273952 0)
(0 0.000186455 0)
(0 0.000212386 0)
(0 -1.58415e-08 0)
(0 1.1367e-05 0)
(0 0.000334875 0)
(0 2.61301e-06 0)
(0 0.000328473 0)
(0 7.11017e-05 0)
(0 1.11969e-05 0)
(0 0.000285039 0)
(0 0.000169339 0)
(0 2.67014e-05 0)
(0 -2.0989e-07 0)
(0 0.000147629 0)
(0 0.000220439 0)
(0 0.000196713 0)
(0 1.52633e-05 0)
(0 0.000101572 0)
(0 0.000333026 0)
(0 0.000131319 0)
(0 2.6252e-05 0)
(0 2.28075e-06 0)
(0 2.65934e-05 0)
(0 4.80915e-05 0)
(0 1.65318e-05 0)
(0 5.12762e-05 0)
(0 5.89358e-06 0)
(0 0.000174732 0)
(0 5.04358e-05 0)
(0 0.000269708 0)
(0 3.22383e-05 0)
(0 1.03841e-05 0)
(0 3.26995e-05 0)
(0 0.000308267 0)
(0 0.000190533 0)
(0 0.000112034 0)
(0 6.0575e-05 0)
(0 4.61311e-06 0)
(0 0.000110392 0)
(0 6.04064e-06 0)
(0 0.00016191 0)
(0 0.000159568 0)
(0 4.89143e-05 0)
(0 4.11423e-05 0)
(0 0.000111249 0)
(0 0.000240072 0)
(0 3.54036e-05 0)
(0 2.87073e-05 0)
(0 0.000181932 0)
(0 0.000305192 0)
(0 4.28931e-05 0)
(0 3.89146e-05 0)
(0 1.55618e-07 0)
(0 5.13825e-05 0)
(0 9.37182e-07 0)
(0 0.000274118 0)
(0 6.29106e-08 0)
(0 5.07658e-05 0)
(0 1.53182e-05 0)
(0 8.86738e-06 0)
(0 0.000267686 0)
(0 0.000163664 0)
(0 5.2598e-05 0)
(0 1.90486e-06 0)
(0 0.000284874 0)
(0 9.6258e-05 0)
(0 7.14326e-06 0)
(0 8.39313e-05 0)
(0 0.000203823 0)
(0 9.50557e-05 0)
(0 0.00012504 0)
(0 5.87688e-05 0)
(0 4.22552e-05 0)
(0 0.0001282 0)
(0 0.000198739 0)
(0 0.000281012 0)
(0 4.91319e-05 0)
(0 0.000306453 0)
(0 2.36557e-05 0)
(0 2.04674e-05 0)
(0 8.45703e-06 0)
(0 6.66325e-06 0)
(0 0.000127577 0)
(0 1.31369e-05 0)
(0 0.000102037 0)
(0 -1.27169e-06 0)
(0 0.000269339 0)
(0 9.46875e-05 0)
(0 0.000123853 0)
(0 1.03835e-05 0)
(0 9.8138e-05 0)
(0 0.000133743 0)
(0 2.30213e-05 0)
(0 2.75131e-05 0)
(0 0.000274733 0)
(0 0.000243663 0)
(0 0.000250856 0)
(0 1.07775e-05 0)
(0 3.39429e-05 0)
(0 -7.819e-07 0)
(0 4.55867e-05 0)
(0 6.8094e-05 0)
(0 0.000174302 0)
(0 0.00022288 0)
(0 6.06778e-05 0)
(0 0.000154209 0)
(0 5.84009e-05 0)
(0 0.000159988 0)
(0 0.000215158 0)
(0 0.000100257 0)
(0 0.000121569 0)
(0 2.14201e-05 0)
(0 5.90298e-05 0)
(0 -1.33725e-06 0)
(0 0.000230077 0)
(0 2.81136e-05 0)
(0 0.00032712 0)
(0 0.000226072 0)
(0 0.000204499 0)
(0 0.000332925 0)
(0 4.17746e-05 0)
(0 0.000251086 0)
(0 -8.7037e-07 0)
(0 2.71202e-05 0)
(0 8.27537e-06 0)
(0 2.32776e-05 0)
(0 0.000331996 0)
(0 0.000156887 0)
(0 0.000318724 0)
(0 9.02188e-05 0)
(0 0.000144282 0)
(0 0.000140627 0)
(0 6.62099e-05 0)
(0 -7.04787e-07 0)
(0 0.000137654 0)
(0 0.000103914 0)
(0 4.57514e-05 0)
(0 0.00019476 0)
(0 1.32702e-05 0)
(0 9.25406e-05 0)
(0 0.000151598 0)
(0 9.55736e-05 0)
(0 7.2284e-07 0)
(0 0.000146728 0)
(0 0.000161213 0)
(0 0.000283429 0)
(0 0.000217596 0)
(0 0.00029322 0)
(0 3.36979e-05 0)
(0 1.43094e-05 0)
(0 0.00023377 0)
(0 2.54065e-05 0)
(0 0.000157282 0)
(0 9.50786e-05 0)
(0 4.0989e-06 0)
(0 0.00020055 0)
(0 4.56044e-05 0)
(0 2.25098e-05 0)
(0 0.000145788 0)
(0 0.000151095 0)
(0 1.6019e-06 0)
(0 1.70094e-05 0)
(0 0.000318786 0)
(0 0.000140578 0)
(0 1.37338e-05 0)
(0 9.30206e-05 0)
(0 1.79114e-05 0)
(0 5.05125e-05 0)
(0 2.86943e-05 0)
(0 4.18378e-05 0)
(0 0.000163478 0)
(0 0.000128867 0)
(0 1.72842e-05 0)
(0 0.000315667 0)
(0 1.83809e-07 0)
(0 1.3008e-05 0)
(0 6.32424e-05 0)
(0 2.791e-05 0)
(0 0.000309998 0)
(0 9.6441e-07 0)
(0 0.000318936 0)
(0 0.00030961 0)
(0 4.21415e-05 0)
(0 2.30513e-06 0)
(0 0.000215538 0)
(0 3.7945e-05 0)
(0 0.000173545 0)
(0 4.14549e-05 0)
(0 2.70566e-05 0)
(0 4.2519e-05 0)
(0 0.000154472 0)
(0 3.45271e-05 0)
(0 0.000193952 0)
(0 0.000218187 0)
(0 0.000124665 0)
(0 8.93081e-05 0)
(0 5.83149e-05 0)
(0 0.000122225 0)
(0 0.000168555 0)
(0 8.60153e-05 0)
(0 0.000138279 0)
(0 0.000315913 0)
(0 0.0002701 0)
(0 0.000115725 0)
(0 0.000103462 0)
(0 4.18621e-05 0)
(0 0.000141743 0)
(0 0.00017264 0)
(0 0.000208216 0)
(0 0.000181269 0)
(0 0.000104622 0)
(0 0.000279259 0)
(0 8.38137e-06 0)
(0 1.69855e-05 0)
(0 0.000133723 0)
(0 1.164e-05 0)
(0 0.000270324 0)
(0 0.000187032 0)
(0 0.000288316 0)
(0 0.00018201 0)
(0 5.45786e-05 0)
(0 0.000133207 0)
(0 0.000319942 0)
(0 0.000314293 0)
(0 7.17703e-05 0)
(0 0.00023174 0)
(0 0.000165183 0)
(0 0.000159708 0)
(0 0.0002398 0)
(0 0.000147183 0)
(0 3.144e-05 0)
(0 0.000233209 0)
(0 5.29011e-05 0)
(0 8.32811e-06 0)
(0 1.97984e-05 0)
(0 0.000188202 0)
(0 5.5869e-05 0)
(0 3.28479e-05 0)
(0 0.000314638 0)
(0 3.81708e-05 0)
(0 1.0221e-05 0)
(0 2.9964e-07 0)
(0 0.000108242 0)
(0 2.26701e-05 0)
(0 0.000317616 0)
(0 0.000131341 0)
(0 7.02368e-05 0)
(0 0.000185618 0)
(0 2.49412e-05 0)
(0 8.13576e-05 0)
(0 0.000310792 0)
(0 3.83738e-05 0)
(0 8.2595e-05 0)
(0 0.000285129 0)
(0 9.81499e-07 0)
(0 0.000303299 0)
(0 3.65557e-05 0)
(0 0.000138098 0)
(0 0.000119897 0)
(0 5.24482e-05 0)
(0 4.86374e-05 0)
(0 4.92834e-05 0)
(0 0.000240231 0)
(0 0.00026036 0)
(0 0.000204212 0)
(0 0.000306507 0)
(0 0.0002292 0)
(0 0.000318537 0)
(0 0.000100023 0)
(0 2.87095e-06 0)
(0 0.000167744 0)
(0 1.37107e-05 0)
(0 2.03386e-05 0)
(0 0.000136796 0)
(0 0.000232014 0)
(0 0.000142518 0)
(0 0.000162931 0)
(0 2.71405e-05 0)
(0 8.41082e-05 0)
(0 0.00018617 0)
(0 0.000176874 0)
(0 6.66262e-05 0)
(0 2.93595e-06 0)
(0 0.000109667 0)
(0 4.5377e-06 0)
(0 4.28114e-05 0)
(0 3.17745e-05 0)
(0 2.30332e-05 0)
(0 0.00026851 0)
(0 5.14022e-05 0)
(0 1.89418e-05 0)
(0 0.000165779 0)
(0 0.000119297 0)
(0 1.26235e-06 0)
(0 0.000317115 0)
(0 7.29336e-05 0)
(0 0.000304146 0)
(0 2.08179e-05 0)
(0 0.000182809 0)
(0 0.00020932 0)
(0 4.36125e-05 0)
(0 2.60657e-05 0)
(0 0.00014832 0)
(0 0.000105582 0)
(0 0.000236328 0)
(0 0.000302706 0)
(0 6.48782e-05 0)
(0 6.29626e-05 0)
(0 9.35217e-05 0)
(0 0.000320806 0)
(0 0.000121916 0)
(0 8.7215e-05 0)
(0 0.000172389 0)
(0 1.80446e-05 0)
(0 -8.17988e-07 0)
(0 9.65851e-06 0)
(0 1.48072e-05 0)
(0 1.44586e-05 0)
(0 9.60833e-06 0)
(0 0.000281885 0)
(0 0.000340255 0)
(0 0.000243711 0)
(0 0.000183466 0)
(0 6.99793e-05 0)
(0 7.89923e-08 0)
(0 5.74967e-05 0)
(0 0.000333344 0)
(0 7.56259e-06 0)
(0 0.000127857 0)
(0 0.000110027 0)
(0 2.5016e-06 0)
(0 6.71858e-05 0)
(0 8.93294e-06 0)
(0 1.9427e-05 0)
(0 -5.55148e-08 0)
(0 0.000150481 0)
(0 0.000165249 0)
(0 0.000151441 0)
(0 0.000319183 0)
(0 1.97118e-05 0)
(0 8.80139e-06 0)
(0 6.74659e-05 0)
(0 0.00015088 0)
(0 2.93554e-05 0)
(0 0.000165899 0)
(0 9.86531e-05 0)
(0 4.39745e-05 0)
(0 4.35231e-05 0)
(0 9.39232e-05 0)
(0 0.000277 0)
(0 0.000183069 0)