/*--------------------------------*- C++ -*----------------------------------*\
| =========                 |                                                 |
| \\      /  F ield         | OpenFOAM: The Open Source CFD Toolbox           |
|  \\    /   O peration     | Version:  v2012                                 |
|   \\  /    A nd           | Website:  www.openfoam.com                      |
|    \\/     M anipulation  |                                                 |
\*---------------------------------------------------------------------------*/
FoamFile
{
    version     2.0;
    format      ascii;
    class       volScalarField;
    location    "300";
    object      k;
}
// * * * * * * * * * * * * * * * * * * * * * * * * * * * * * * * * * * * * * //

dimensions      [0 2 -2 0 0 0 0];


internalField   nonuniform List<scalar> 
18758
(
0.000174065
0.00138837
0.00014798
0.000173656
0.000163894
0.000139551
0.000143334
0.000151757
0.000162321
0.000161124
0.000868769
0.00705793
0.000643159
0.000151282
0.000143143
0.000141861
0.00730616
0.00013062
0.000143024
0.000153591
0.00542419
0.000819387
0.000140539
0.00013948
0.00511246
0.000354198
0.00593961
0.000225668
0.000194124
0.00271286
0.00065192
0.00805038
0.000151402
0.03427
0.000165179
0.00244934
0.000762174
0.000163989
0.000536631
0.000135115
0.00608298
0.000163645
0.00655112
0.00014578
0.00014493
0.000693828
0.000161595
0.000195263
0.0292582
0.000170878
0.000975399
0.0246909
0.000170458
0.000156371
0.00020276
0.000453264
0.00013951
0.000153316
0.000192491
0.000139244
0.000146928
0.000145268
0.00725872
0.00535507
0.00014728
0.0560565
0.000147048
0.000133137
0.000226021
0.000130791
0.0245454
0.000948325
0.00014307
0.000157341
0.000207917
0.000701193
0.0239712
0.00708529
0.000162668
0.00693813
0.000192149
0.000519979
0.0070094
0.000176727
0.000150287
0.000197771
0.000156058
0.000158137
0.00843321
0.000196604
0.0300287
0.000153254
0.000184729
0.0289325
0.000142958
0.000139053
0.000132419
0.000181982
0.00762694
0.000142269
0.000765235
0.000160707
0.000133072
0.00013902
0.0552322
0.00639643
0.000195244
0.0302195
0.0272771
0.00112949
0.000142029
0.00984173
0.000167731
0.000146436
0.000160852
0.000315374
0.000181183
0.000137929
0.000356309
0.000153991
0.000145211
0.0232567
0.000150908
0.000138138
0.0386445
0.000156433
0.000143805
0.000138151
0.000213114
0.0323982
0.000192781
0.00015362
0.000160678
0.0346109
0.000135477
0.000146091
0.0142814
0.000150186
0.000234311
0.000191906
0.000173372
0.00361967
0.000174969
0.0263265
0.0383337
0.00017678
0.0533111
0.000207371
0.000946006
0.000403937
0.0319661
0.0313726
0.000146363
0.000165374
0.00658997
0.00880865
0.000184609
0.000213692
0.000178797
0.0012186
0.0131799
0.000139452
0.0276916
0.0528989
0.00363349
0.000139746
0.000139344
0.0123375
0.0327058
0.00655019
0.0288574
0.000148554
0.000197759
0.00382601
0.0223894
0.0001424
0.000142875
0.000224305
0.0245107
0.000149106
0.000132263
0.000155923
0.000202492
0.000150812
0.000646578
0.000143593
0.00308331
0.000169688
0.0285877
0.0149684
0.0304001
0.000143522
0.000198216
0.0283897
0.000131456
0.000150537
0.000247799
0.000146185
0.0284557
0.000140763
0.000148679
0.000219168
0.0131132
0.000141815
0.000142061
0.0276665
0.000142415
0.000167312
0.0316155
0.031035
0.000144097
0.000185859
0.000150521
0.000149909
0.000152332
0.00013264
0.000144532
0.000185385
0.000136701
0.00293218
0.0299901
0.000141982
0.000174308
0.00022032
0.0160335
0.0062983
0.000218372
0.000194907
0.0139464
0.000142181
0.000313724
0.000176672
0.0186816
0.000148262
0.000140717
0.000142399
0.000221791
0.0304829
0.000264228
0.000148782
0.000142164
0.00021344
0.000222583
0.000145758
0.000500472
0.000259688
0.000140793
0.000138256
0.000143099
0.000142325
0.028897
0.000145121
0.00426459
0.000142987
0.000144241
0.000282271
0.000139525
0.00234027
0.000142901
0.00759975
0.000168183
0.000138449
0.000140881
0.00019603
0.0180672
0.0136412
0.000138574
0.000229229
0.000146491
0.000145662
0.000388307
0.0297545
0.000145489
0.000141509
0.000151543
0.000151964
0.000158468
0.0001356
0.000150768
0.000151266
0.000138242
0.00015374
0.000142361
0.0487077
0.000143225
0.000141313
0.000130267
0.000218664
0.000138945
0.000138948
0.000146939
0.00014941
0.000139377
0.000141992
0.000144944
0.00014924
0.00651227
0.000157597
0.000141035
0.0413646
0.000154435
0.000142167
0.000142219
0.00137624
0.00047944
0.000132218
0.000222745
0.00701681
0.000146016
0.000317903
0.000142389
0.00676061
0.000240259
0.000203932
0.00019306
0.0342932
0.000132836
0.00292417
0.000228919
0.000147029
0.000201744
0.000176148
0.000395224
0.000140688
0.000132894
0.0314806
0.00441335
0.000139607
0.0373259
0.000200117
0.000186891
0.0326901
0.000140619
0.000139956
0.000142677
0.00014612
0.000149567
0.000153419
0.000151883
0.00014282
0.000149296
0.000148752
0.0341856
0.00132586
0.000149215
0.00246423
0.00711158
0.000139432
0.000165586
0.000985945
0.00305718
0.00424982
0.000256337
0.000143584
0.0333826
0.00568093
0.000174574
0.000148723
0.000186031
0.000150006
0.000145054
0.000255686
0.0274883
0.00490006
0.000299069
0.0245468
0.000140795
0.000157206
0.000156622
0.000182694
0.0297561
0.000300343
0.0108822
0.000284289
0.00525045
0.000266769
0.000144592
0.0553651
0.000208835
0.000625032
0.0057122
0.000142385
0.000139301
0.00128018
0.00528844
0.00443543
0.000408118
0.0375928
0.000148916
0.0070692
0.000788259
0.000141941
0.000151029
0.000152337
0.000151033
0.000145594
0.000150432
0.000144171
0.000157067
0.000145855
0.000143104
0.000164679
0.000505077
0.000160164
0.000841593
0.000853791
0.0378376
0.000975318
0.000209544
0.000146798
0.00014006
0.006709
0.000151018
0.000148889
0.0143357
0.000182016
0.000349743
0.000139717
0.0333028
0.000144462
0.000154624
0.000131889
0.0281368
0.00921416
0.00460358
0.000144564
0.0320738
0.000183677
0.000144119
0.000149951
0.000144429
0.00742604
0.000144933
0.000141629
0.00184696
0.000160513
0.000148991
0.000142758
0.000151445
0.000155055
0.0159374
0.000250998
0.000148211
0.0566958
0.000131827
0.00015531
0.000193706
0.000143695
0.000659237
0.000147965
0.000155396
0.000147437
0.000289455
0.000153517
0.000144113
0.0324681
0.00052091
0.000130323
0.000157212
0.000152999
0.00014183
0.0001435
0.000150898
0.0254498
0.0310637
0.000147314
0.000168709
0.0220831
0.000230051
0.00669141
0.000259313
0.00617558
0.000137328
0.000206882
0.000205195
0.000162145
0.000151262
0.00327197
0.00027956
0.000171234
0.000139996
0.00014336
0.000139005
0.000143678
0.000138965
0.000143801
0.00414452
0.000149471
0.000131505
0.000182521
0.00015259
0.000147556
0.000134862
0.000152021
0.000290573
0.00513564
0.000142595
0.000879551
0.000142141
0.000160481
0.000205744
0.0358599
0.000283407
0.000142991
0.000143662
0.0321995
0.0328081
0.000232493
0.000139582
0.000276894
0.0492761
0.000130244
0.000140905
0.00523494
0.000152366
0.0001934
0.000228495
0.000152964
0.000168693
0.00013834
0.000141895
0.000152597
0.000142985
0.000141946
0.00014697
0.00520279
0.000132101
0.000295244
0.0242087
0.000130317
0.000132106
0.000150611
0.000157676
0.00016183
0.000252339
0.000142346
0.0188711
0.000162363
0.000161921
0.000141187
0.000142064
0.000144207
0.000147483
0.000147388
0.0455346
0.000729912
0.000138175
0.000141716
0.0001492
0.015905
0.000132
0.000132934
0.000144029
0.000131569
0.000140957
0.000140972
0.000151221
0.000141828
0.000194177
0.000142275
0.000136376
0.000234393
0.0392173
0.000165583
0.000144175
0.000142407
0.000148331
0.000142528
0.000151935
0.000265717
0.00093894
0.000149263
0.00933493
0.000142273
0.00016647
0.000144326
0.000140968
0.000177448
0.000130813
0.000143252
0.00706546
0.000147446
0.000150714
0.000251747
0.000143557
0.000143277
0.0281844
0.000137793
0.00573048
0.000353921
0.000142707
0.000147697
0.000173752
0.000152375
0.000162165
0.000142198
0.00643545
0.00772904
0.00572751
0.000138513
0.0416189
0.000131364
0.000144403
0.000142316
0.00016677
0.00892367
0.000244959
0.000144278
0.000150561
0.000152904
0.0323469
0.000266836
0.000141208
0.000246083
0.00015472
0.0312273
0.000160402
0.000221252
0.000139663
0.000165424
0.000182648
0.000142633
0.000139728
0.000132043
0.000139013
0.000158355
0.000229652
0.00346525
0.00674927
0.000221591
0.00015516
0.000142405
0.000137876
0.000207048
0.0023564
0.000135411
0.000174979
0.0317364
0.044958
0.000145631
0.000145068
0.000179202
0.00642853
0.000131276
0.00116166
0.000143666
0.000155642
0.000162461
0.000144894
0.000147422
0.000147206
0.000138533
0.00014843
0.000234494
0.000177308
0.00411898
0.000149637
0.000141173
0.000335307
0.000133183
0.00037098
0.0048951
0.000143819
0.0145096
0.00015196
0.000144741
0.0143132
0.00393467
0.00406504
0.0234204
0.000151919
0.00726624
0.000132177
0.0512236
0.0386957
0.000172243
0.000143545
0.00591632
0.000154332
0.000191495
0.000476564
0.00053024
0.000145915
0.00742252
0.000141191
0.000176458
0.000196416
0.00014096
0.000163512
0.0261676
0.00520823
0.000156227
0.000151519
0.000131525
0.000148727
0.000151498
0.0001694
0.000226298
0.000141836
0.000326699
0.000154279
0.000145555
0.000157532
0.000131807
0.000727943
0.00014228
0.000139069
0.000499243
0.000138037
0.000151133
0.00542725
0.000184057
0.000183644
0.0001438
0.000145472
0.000184946
0.000145346
0.00666599
0.000154025
0.000152684
0.000150187
0.000145288
0.000131393
0.0113297
0.000131809
0.0319244
0.000225977
0.00014933
0.0278527
0.000139493
0.000175461
0.000155726
0.025874
0.000153692
0.000332116
0.00758555
0.000144795
0.00602223
0.000135757
0.000336527
0.000145523
0.000148062
0.0372913
0.00526586
0.000142151
0.000146925
0.000151577
0.000138192
0.000143733
0.00376301
0.0334686
0.000141378
0.00013805
0.00013585
0.0211282
0.000246604
0.000270706
0.000138473
0.000246059
0.000148033
0.000145624
0.000160823
0.00754911
0.000141222
0.000175678
0.000275881
0.000147325
0.000371507
0.000144113
0.000160432
0.000141225
0.000138262
0.000157425
0.000145742
0.000183474
0.000143575
0.0383865
0.000146521
0.00015434
0.000193346
0.00358671
0.000175715
0.00014103
0.000145189
0.00713637
0.000256398
0.000185906
0.000139623
0.000142241
0.000157436
0.0261672
0.00601186
0.000141052
0.000142093
0.00014916
0.000146665
0.000148204
0.000142552
0.000144313
0.00635719
0.000142252
0.000143362
0.00725766
0.000138454
0.000266375
0.000214696
0.034401
0.000377749
0.00506474
0.0345051
0.000142572
0.000142371
0.000152357
0.000141312
0.000141283
0.000138962
0.00014066
0.000148556
0.000448204
0.000204903
0.000268912
0.000154348
0.000141856
0.000163166
0.000164189
0.000189966
0.000145795
0.000150264
0.000138092
0.0320495
0.0298917
0.00338309
0.000148097
0.000197703
0.000209935
0.000356416
0.0264054
0.00927122
0.000150533
0.000158818
0.000137052
0.0242604
0.000146461
0.000132808
0.000196189
0.00987253
0.000142267
0.0046861
0.00037516
0.000142446
0.000142281
0.000142532
0.000144216
0.000143282
0.00015225
0.00016305
0.000143394
0.000146584
0.00951935
0.0329847
0.000142939
0.00327242
0.000207723
0.000149969
0.000145203
0.000141638
0.000137918
0.000152142
0.00014993
0.000143912
0.000147485
0.000151363
0.000146341
0.0356592
0.000158806
0.000142929
0.000144384
0.000806069
0.000146084
0.000132753
0.0234176
0.000141364
0.00016748
0.000157454
0.000143412
0.000139485
0.000138127
0.000154131
0.000170536
0.00014417
0.00496603
0.000191649
0.000206468
0.00934049
0.000148923
0.00019644
0.000132177
0.000279512
0.00014947
0.000143401
0.000209684
0.000293748
0.000147663
0.00262683
0.000488832
0.000138382
0.000161525
0.000132801
0.000149336
0.000159063
0.000150763
0.000142913
0.00029377
0.000141037
0.00014157
0.00788299
0.000141607
0.000141284
0.000139503
0.0346644
0.000144659
0.000144865
0.000162599
0.0247419
0.00556793
0.000273301
0.00595331
0.000142068
0.000131664
0.000143486
0.000595216
0.000149785
0.000141168
0.000152677
0.000137723
0.000304651
0.000146697
0.000145749
0.0221083
0.000142254
0.000183436
0.000802728
0.000131644
0.000143324
0.0242883
0.000151895
0.0366464
0.0010468
0.000137832
0.000144313
0.00480429
0.000138615
0.000152806
0.00422532
0.00013588
0.00813297
0.000142451
0.000143921
0.000143167
0.000164204
0.000151147
0.00893775
0.000154185
0.000140762
0.00264918
0.00761374
0.000171028
0.000167273
0.000269884
0.028255
0.026283
0.000131297
0.02823
0.000147986
0.00730918
0.00932893
0.000141582
0.000160293
0.000146852
0.006902
0.000139699
0.0236209
0.000141582
0.0291863
0.000199793
0.000139894
0.000131574
0.000142586
0.00403133
0.000301035
0.000143731
0.006745
0.000146291
0.000141227
0.00853261
0.000143059
0.000231493
0.000140049
0.000153155
0.000140544
0.000140111
0.000140835
0.000139765
0.000208303
0.000170676
0.000163652
0.000166034
0.000147938
0.000142694
0.00571083
0.000142616
0.00901027
0.000145454
0.00715093
0.00015772
0.00177974
0.000139337
0.000140521
0.000141063
0.0332396
0.000143951
0.00437145
0.000192609
0.000143599
0.000157059
0.000142579
0.000138125
0.000153193
0.000141597
0.00633692
0.000143845
0.000150862
0.000143591
0.000151505
0.0271713
0.00724333
0.0001454
0.000139552
0.000145576
0.000147488
0.00014196
0.000155381
0.000148648
0.000142506
0.000137457
0.00013889
0.000212071
0.000193229
0.000145573
0.000137598
0.000678381
0.000148823
0.00165546
0.0303994
0.000148197
0.0273148
0.000153414
0.00013938
0.000142498
0.000152531
0.000200126
0.000138221
0.000166594
0.0053002
0.000206275
0.000310001
0.0560739
0.0468897
0.000163112
0.00014583
0.000144414
0.00407735
0.000137583
0.000145999
0.000162654
0.000317399
0.000143561
0.000140097
0.0348384
0.000153359
0.00014932
0.00015589
0.000153286
0.000208017
0.000144405
0.000154034
0.000143763
0.000165769
0.000151396
0.000147564
0.000147592
0.00635219
0.000147625
0.000142735
0.00449435
0.000131619
0.000142828
0.00014502
0.000149758
0.000146902
0.0128837
0.000207138
0.00511973
0.00471402
0.0114543
0.00475223
0.000148162
0.000965492
0.00425244
0.00014529
0.000149145
0.000146662
0.000144467
0.000150017
0.000148501
0.000222063
0.000244897
0.000146111
0.000135502
0.000173928
0.000151232
0.00538208
0.00014281
0.000148926
0.000142005
0.000272006
0.00329507
0.00016267
0.0404332
0.0001423
0.000142117
0.000197776
0.00016725
0.000141817
0.000234032
0.000148093
0.000159834
0.00687176
0.000210733
0.000165494
0.000146117
0.000148187
0.000148236
0.000138848
0.00426885
0.000205859
0.033406
0.000262166
0.000542518
0.000147825
0.0278782
0.0271272
0.0532766
0.000197526
0.00228928
0.000161625
0.000837725
0.000208737
0.000168024
0.00013058
0.000142617
0.000145584
0.000171626
0.000139561
0.000144401
0.000245617
0.00446616
0.00144187
0.00370278
0.00019196
0.00586994
0.000170657
0.000154629
0.000142777
0.00990366
0.000251197
0.000140644
0.000163297
0.000586739
0.0326961
0.0330421
0.000169034
0.000188304
0.000131722
0.0369056
0.000147601
0.00481852
0.00051942
0.000162801
0.000206729
0.000209414
0.000144209
0.000143174
0.00645818
0.000311344
0.000210967
0.000147926
0.000143917
0.000153584
0.00536233
0.000163449
0.00428974
0.000148074
0.00487039
0.000800693
0.000155075
0.000308733
0.00021302
0.0444202
0.000131725
0.000171963
0.024542
0.000160637
0.000141947
0.00168476
0.00600945
0.000142369
0.000142571
0.00233833
0.000150922
0.000149464
0.00189118
0.000321446
0.000145308
0.000161187
0.000141191
0.00016311
0.000151971
0.000151779
0.00481705
0.000154849
0.000140565
0.000141332
0.000263718
0.000139257
0.000388311
0.000137
0.000138545
0.00409659
0.000146692
0.000142384
0.000250462
0.000131382
0.000153014
0.00013786
0.000142243
0.000144735
0.000191145
0.000145126
0.00490369
0.000202684
0.006613
0.0295648
0.000154499
0.000137811
0.000139261
0.0264381
0.000157793
0.000143616
0.00517691
0.000166709
0.00184613
0.000136577
0.000136804
0.000137814
0.000141325
0.000144608
0.000133973
0.000148222
0.000149826
0.000143104
0.000657512
0.00018994
0.00412368
0.000148843
0.000137947
0.000162899
0.0549522
0.0274714
0.00757663
0.0423661
0.00404013
0.000247419
0.0279373
0.000149663
0.000174788
0.000176453
0.0357677
0.000141126
0.00123285
0.000707251
0.000227864
0.000142667
0.00594804
0.000141693
0.000142529
0.000144312
0.000162645
0.0155666
0.000301788
0.000145764
0.000131009
0.000138642
0.000134809
0.000174254
0.000143384
0.0292861
0.000191535
0.000198197
0.000148215
0.000142399
0.000133665
0.0450739
0.00173244
0.000143901
0.000142385
0.000773342
0.000134688
0.000143466
0.000135977
0.000144395
0.00014459
0.000145998
0.000137985
0.000282452
0.000152312
0.000278859
0.000163295
0.000146753
0.000155338
0.000145817
0.0154921
0.00014685
0.000178093
0.000796669
0.0036046
0.000172169
0.000216344
0.0477172
0.000150967
0.00016431
0.000152611
0.000142351
0.000138685
0.000140471
0.000235811
0.000172223
0.000154217
0.000222848
0.000138427
0.000145519
0.0001708
0.0018847
0.000131271
0.000173801
0.000241943
0.000198269
0.00209969
0.000149317
0.0001463
0.0334919
0.000170165
0.000139842
0.000142346
0.000204918
0.000137628
0.000138425
0.00065605
0.000187157
0.000150638
0.000148215
0.000146314
0.027271
0.000153736
0.0377618
0.0236091
0.00014269
0.000141748
0.00485673
0.000167318
0.000171953
0.000150175
0.000182589
0.000164562
0.000139629
0.000153318
0.000238186
0.000175413
0.0325235
0.00496753
0.000167571
0.00394393
0.00598402
0.000140619
0.00667776
0.02103
0.000153721
0.060201
0.000146808
0.000223497
0.000198193
0.00288203
0.000181177
0.000242227
0.00016186
0.005949
0.000141774
0.000132843
0.0310848
0.000152552
0.000142309
0.000142168
0.000147261
0.000134611
0.000148827
0.000141247
0.000142487
0.0362324
0.0238426
0.00014237
0.000147343
0.000252207
0.00573656
0.000131555
0.000240136
0.000272171
0.000177189
0.000145487
0.000140759
0.0454889
0.000147328
0.000186916
0.000201106
0.000138537
0.000171086
0.0351464
0.000142198
0.00566736
0.0163139
0.0240224
0.000148585
0.000142175
0.000143148
0.000144725
0.000142252
0.00468549
0.00909307
0.000137636
0.000254769
0.00503544
0.000150269
0.000145869
0.000142205
0.00649972
0.0436438
0.000221049
0.000215809
0.000152285
0.0369602
0.00349549
0.000138693
0.000142299
0.000158122
0.0001678
0.00053279
0.00556032
0.000140437
0.000290994
0.00371067
0.000160277
0.000139907
0.000145977
0.000152849
0.00014172
0.000149052
0.000138368
0.000220413
0.00314702
0.000144679
0.000146447
0.000166463
0.000138598
0.000142424
0.000147694
0.00538968
0.000137956
0.000151977
0.0343052
0.000232055
0.000233708
0.000191949
0.000147284
0.000145618
0.000149261
0.000137564
0.000141362
0.000149071
0.00100636
0.000178468
0.000149919
0.000189815
0.000137949
0.0012836
0.000947914
0.000143535
0.000402929
0.000140821
0.000151205
0.000219706
0.00212836
0.000156446
0.000153427
0.000153425
0.000221459
0.000132017
0.00121038
0.0448023
0.00013817
0.000196845
0.00762169
0.00014497
0.000150525
0.00618478
0.000193694
0.000146589
0.00423108
0.000154925
0.000142436
0.0113885
0.000123511
0.00030659
0.000140863
0.0154657
0.000165228
0.000133558
0.000183856
0.000162939
0.00014666
0.000228664
0.00145345
0.00455903
0.000198917
0.00023128
0.000138037
0.0318828
0.00418475
0.000234703
0.000280039
0.000145065
0.00693093
0.000145143
0.000141705
0.00017789
0.000149149
0.000352535
0.00459482
0.00014665
0.0449268
0.00764359
0.0324594
0.000161026
0.000193597
0.000131287
0.000146704
0.00015289
0.000131112
0.00275536
0.00323463
0.039153
0.000235966
0.00024935
0.00495734
0.00190107
0.000143809
0.000153128
0.0234083
0.000187862
0.000145226
0.000142221
0.00313011
0.000204192
0.000159048
0.000142747
0.000145878
0.00031911
0.000142449
0.000224282
0.00419655
0.000134427
0.0262039
0.000137103
0.027095
0.000252369
0.0124013
0.000150545
0.00400792
0.000145934
0.000142522
0.000150011
0.0383955
0.000171341
0.00274495
0.000146224
0.000142428
0.000883408
0.0322421
0.000146574
0.000204517
0.000274167
0.0441653
0.0254546
0.000140331
0.000145421
0.00532306
0.000131228
0.000137777
0.000154919
0.000143704
0.000147194
0.000140091
0.00014206
0.000154516
0.000142057
0.000162448
0.00017273
0.000141571
0.0292458
0.0349815
0.000155825
0.000135617
0.000143041
0.000198908
0.000143543
0.000142698
0.000144608
0.000194016
0.000143664
0.000155844
0.000152111
0.000256377
0.00466108
0.000141032
0.000231022
0.0002366
0.000158715
0.000217625
0.0002677
0.000140996
0.000142686
0.000217321
0.000206014
0.000158008
0.00610616
0.00818484
0.000143028
0.023109
0.000149368
0.000201943
0.00569154
0.00693719
0.0294579
0.000152061
0.000141328
0.00883379
0.000153098
0.00452398
0.000195121
0.00284393
0.0291373
0.000140248
0.000172396
0.000141884
0.000229899
0.000206537
0.0314692
0.000141455
0.00014487
0.000236
0.000147671
0.0107774
0.000140053
0.00555725
0.00880751
0.000177104
0.0147377
0.0358044
0.000140917
0.000140871
0.000143956
0.00163317
0.00191808
0.000148063
0.00015464
0.000148297
0.000135693
0.000177301
0.000141203
0.000136769
0.000172102
0.000147741
0.00013652
0.000156371
0.00119697
0.00382124
0.021081
0.000145771
0.000214827
0.000163523
0.000156317
0.000196518
0.00540531
0.0375665
0.000139584
0.000208519
0.00013156
0.000169011
0.000202642
0.000185167
0.00217
0.00014934
0.000212213
0.000137332
0.00322189
0.00593869
0.000136814
0.000150636
0.000152087
0.000152565
0.0396851
0.00014452
0.000144561
0.00014896
0.000147754
0.00013879
0.000150738
0.000143117
0.000147569
0.000143389
0.000141671
0.0031206
0.00699959
0.022217
0.000135298
0.000131944
0.000132787
0.000135698
0.000132968
0.000168556
0.000132539
0.000138089
0.000142798
0.000139849
0.000162333
0.000142581
0.00332309
0.0062201
0.000172611
0.0204991
0.000145925
0.000869851
0.000226621
0.000176504
0.000139673
0.0131321
0.000150088
0.000144073
0.000145191
0.000220229
0.000208002
0.000140348
0.000203411
0.000162909
0.000142708
0.000221646
0.00663008
0.000162562
0.000140777
0.000153521
0.00404746
0.000163262
0.000595401
0.000140427
0.000148778
0.000144386
0.000152971
0.000171928
0.00435186
0.000164762
0.000136922
0.0306368
0.000209895
0.000199847
0.000141227
0.000154286
0.0403076
0.000140534
0.000147872
0.000160898
0.00181041
0.000134274
0.000142862
0.00013819
0.000164084
0.000145742
0.00716298
0.000145275
0.00015637
0.000161838
0.0356712
0.000138752
0.000136921
0.000131681
0.000164595
0.000135572
0.000874681
0.00244804
0.000162765
0.00564626
0.000142886
0.0297987
0.000145375
0.000137831
0.000218652
0.000192104
0.000233108
0.00568507
0.000299955
0.000226485
0.000169079
0.000168622
0.000149968
0.000144971
0.000144793
0.000147713
0.000277409
0.000147334
0.00488727
0.00308059
0.00246693
0.00392748
0.00591501
0.00638226
0.00680621
0.000193211
0.000149671
0.000206561
0.000144266
0.000137079
0.000141472
0.0323435
0.0183738
0.00425231
0.000156131
0.000153962
0.00450867
0.000140486
0.000200663
0.00013672
0.000171821
0.000142211
0.000132981
0.000150003
0.000173069
0.0203265
0.000162145
0.000161379
0.000137774
0.000186185
0.000332887
0.000137252
0.000198584
0.014015
0.000131189
0.000182477
0.000137721
0.0423119
0.000146653
0.0194922
0.000148544
0.000145765
0.000161514
0.000211011
0.0278172
0.000202401
0.00364484
0.000151129
0.000144762
0.000145095
0.000145033
0.00013681
0.000143199
0.0280138
0.0266864
0.000177841
0.000142948
0.000158889
0.000154152
0.000145937
0.000146072
0.000202884
0.00426909
0.00726758
0.000144558
0.00418976
0.000137738
0.000186367
0.000151086
0.000173066
0.000287145
0.00781766
0.00662933
0.000133167
0.000144396
0.000140476
0.000142499
0.000144317
0.00014215
0.0274458
0.000146147
0.000146404
0.000148382
0.000168481
0.000141723
0.04537
0.0282793
0.00611135
0.00014536
0.000287955
0.000136669
0.00732229
0.00514825
0.000149211
0.0061342
0.000154015
0.000187331
0.000140696
0.000145773
0.000160577
0.000183663
0.000213452
0.00147043
0.000238053
0.000209563
0.000179244
0.000149664
0.000143637
0.0025666
0.000153013
0.011816
0.000149572
0.0435691
0.0103529
0.00535627
0.000150325
0.000289142
0.000153789
0.000144515
0.000135999
0.000151576
0.000190027
0.000142689
0.00732908
0.000209018
0.00021438
0.000141412
0.000158743
0.000299369
0.00517951
0.00558652
0.000155827
0.00017515
0.0125103
0.000266128
0.000147663
0.000181365
0.00564921
0.00018873
0.00262763
0.000157121
0.000159179
0.000252299
0.000133882
0.00520415
0.000179057
0.000144106
0.000575455
0.00380749
0.0243513
0.000156284
0.000212946
0.000178534
0.000136885
0.000184338
0.00014964
0.000233548
0.000141365
0.0182292
0.0354927
0.00748567
0.00427686
0.000199467
0.00948144
0.000154642
0.000211514
0.00494604
0.0318618
0.000150783
0.000148232
0.000141858
0.00015973
0.000134175
0.000141278
0.00624886
0.000141592
0.000138548
0.000162593
0.000148506
0.000132499
0.000226357
0.00925459
0.000182629
0.000145559
0.000144727
0.000161565
0.000150271
0.000141519
0.000140544
0.000136569
0.00659197
0.000156906
0.000242078
0.000156958
0.000143511
0.000132866
0.000284346
0.000227695
0.000292514
0.000182414
0.000147243
0.000170515
0.000140561
0.000159298
0.00143149
0.0238789
0.000201801
0.000152704
0.000137455
0.000160755
0.00564641
0.00358678
0.00296241
0.000156267
0.000137935
0.000137957
0.000155312
0.000251001
0.0284489
0.000138112
0.00399154
0.00013285
0.000143088
0.000209466
0.000140389
0.0120408
0.000211248
0.00406637
0.000133374
0.000174884
0.000173763
0.0279416
0.000137808
0.000145401
0.000243092
0.00660217
0.0154864
0.00101137
0.018235
0.000149196
0.000214191
0.00015663
0.000209605
0.0320647
0.000165982
0.000140886
0.000145621
0.000135247
0.000405768
0.0453019
0.000155404
0.0500473
0.00013588
0.000141005
0.000145653
0.000233124
0.000211153
0.0504511
0.000143686
0.000148558
0.000168044
0.00106486
0.000136565
0.00364983
0.000140584
0.000157562
0.0151574
0.00013991
0.0174273
0.00649731
0.00655934
0.0349845
0.000144394
0.000153306
0.000152421
0.0333992
0.0002053
0.000145262
0.0334462
0.000384025
0.000131138
0.000151053
0.00696553
0.000136882
0.0403834
0.00668088
0.000155987
0.000131743
0.000154225
0.000159404
0.0413914
0.000137804
0.00017211
0.000149649
0.00151422
0.0331389
0.000142649
0.000136399
0.000217218
0.000156335
0.000144664
0.00014296
0.000140055
0.000184301
0.000152085
0.00127049
0.000148876
0.000148462
0.000141277
0.000150934
0.00016195
0.0001516
0.00617316
0.00579137
0.00721219
0.000148031
0.000136437
0.00170947
0.000160798
0.000187546
0.00586743
0.000203071
0.00424376
0.00915127
0.000135999
0.000654169
0.000379687
0.00015014
0.000140146
0.000143693
0.000143607
0.0278824
0.0045509
0.00014448
0.0591156
0.00363273
0.0264581
0.000132661
0.000138735
0.00121325
0.000140118
0.000145685
0.000164009
0.000141826
0.000241563
0.000155437
0.0317001
0.00239976
0.000141571
0.0090771
0.000213798
0.000432826
0.000415007
0.000142956
0.000154269
0.00016891
0.0184044
0.000418604
0.000395828
0.000147884
0.000143775
0.000201584
0.000136898
0.000351806
0.0138629
0.000140503
0.000412953
0.000137201
0.0371765
0.000145455
0.00560918
0.000149836
0.0261657
0.000312109
0.0353743
0.0332594
0.000135126
0.00160789
0.0270553
0.000148458
0.0316166
0.000148051
0.000133433
0.000143568
0.000159458
0.000153792
0.000145613
0.000141088
0.000220436
0.000174437
0.000181664
0.0615159
0.000187373
0.000162492
0.000149313
0.000194414
0.000136282
0.000193984
0.000830245
0.0284872
0.00549039
0.000150695
0.000153064
0.000150178
0.000217334
0.000151771
0.000141273
0.0387576
0.00805898
0.027455
0.00015754
0.000145595
0.000177853
0.0262094
0.000147107
0.000136659
0.000150041
0.000150826
0.000173917
0.000143327
0.00499163
0.000147381
0.0280107
0.000138583
0.000455215
0.00395095
0.00282445
0.000135463
0.000191569
0.00014499
0.000137445
0.000198322
0.00545424
0.00014157
0.000149306
0.0350396
0.000144178
0.000188589
0.000713842
0.000156936
0.0120083
0.000145446
0.0158917
0.000162385
0.000346844
0.000136339
0.000140562
0.025984
0.000140069
0.00587192
0.000154449
0.00016282
0.019875
0.000150217
0.000143778
0.000149477
0.000141424
0.0149489
0.0322911
0.000137378
0.00473394
0.000279603
0.000164007
0.000143801
0.000256446
0.000757997
0.000159375
0.000161598
0.000143884
0.0537955
0.000133625
0.0286121
0.000136223
0.00013992
0.000153652
0.000145844
0.000138482
0.000205554
0.000152639
0.000141562
0.00402257
0.000137972
0.00018219
0.000157072
0.000820641
0.00019372
0.000140105
0.000164672
0.000141058
0.000140476
0.000154072
0.0203593
0.000914092
0.00395277
0.0065784
0.000136489
0.000143719
0.000144857
0.000140277
0.000135619
0.000343656
0.000133125
0.000155296
0.00021208
0.000149857
0.000276894
0.000144726
0.000136568
0.0285846
0.0286398
0.000146059
0.000176165
0.000164527
0.000731342
0.000141527
0.000151282
0.0036296
0.000145518
0.000695206
0.000250127
0.000149366
0.000149751
0.0146288
0.000153904
0.000187736
0.000674931
0.0120335
0.00015322
0.000160487
0.000170099
0.0155303
0.000147837
0.0134138
0.00807171
0.0179666
0.0325364
0.000139406
0.000144044
0.000142237
0.000902211
0.0032948
0.00036127
0.0469566
0.000135298
0.00201992
0.000139792
0.0553703
0.0001433
0.000174098
0.000211055
0.000148715
0.000148337
0.000195423
0.000156726
0.000147799
0.000148823
0.000198034
0.000152752
0.000140697
0.00129914
0.000148132
0.000148127
0.000143614
0.00284029
0.00017544
0.00456731
0.00016118
0.000152283
0.0331683
0.000155712
0.000218195
0.000137248
0.000142286
0.0493577
0.0397093
0.00380261
0.000145027
0.000153421
0.0620904
0.000219022
0.000205797
0.000750335
0.000984462
0.00267892
0.000136348
0.00361206
0.000140341
0.000188442
0.000146363
0.000195402
0.000195185
0.000151439
0.0291723
0.000197247
0.00666786
0.000221027
0.000141636
0.000143319
0.00014417
0.000271779
0.000137392
0.000394664
0.000191501
0.00737624
0.000135688
0.0237282
0.0478865
0.00592262
0.00390995
0.000149905
0.000147192
0.000142103
0.000159931
0.000144165
0.000155292
0.046772
0.000144001
0.000150261
0.0443946
0.00593777
0.00442291
0.000156161
0.000164977
0.000139758
0.0319659
0.000148965
0.0383679
0.000175085
0.000569738
0.000161607
0.000192941
0.0286923
0.000142886
0.00014233
0.0341404
0.00103774
0.00181816
0.000212098
0.000178632
0.000141704
0.000225327
0.000143885
0.000247419
0.000143608
0.000151121
0.00384017
0.00014924
0.000192947
0.00013762
0.0501878
0.00419832
0.000181308
0.000163002
0.0316177
0.000161035
0.00013613
0.0327446
0.0491987
0.0329967
0.000140053
0.000148146
0.00708602
0.0506666
0.0326714
0.000145756
0.000151197
0.000146123
0.000158045
0.000147807
0.000138425
0.00806555
0.000140808
0.0235763
0.000152635
0.000277452
0.000135509
0.0454716
0.000417563
0.000199355
0.00561313
0.00349054
0.000138661
0.000201353
0.0279974
0.000139773
0.000147528
0.000144968
0.0318177
0.0338676
0.000144558
0.0397343