/*--------------------------------*- C++ -*----------------------------------*\
| =========                 |                                                 |
| \\      /  F ield         | OpenFOAM: The Open Source CFD Toolbox           |
|  \\    /   O peration     | Version:  v2012                                 |
|   \\  /    A nd           | Website:  www.openfoam.com                      |
|    \\/     M anipulation  |                                                 |
\*---------------------------------------------------------------------------*/
FoamFile
{
    version     2.0;
    format      ascii;
    class       volVectorField;
    location    "300";
    object      U_0;
}
// * * * * * * * * * * * * * * * * * * * * * * * * * * * * * * * * * * * * * //

dimensions      [0 1 -1 0 0 0 0];


internalField   nonuniform List<vector> 
18758
(
(1.01672 -0.00861477 -1.02763e-21)
(1.02554 -0.0583546 1.23552e-22)
(1.00359 -1.94453e-05 0)
(1.01556 -0.00928698 -5.10971e-22)
(1.00674 0.00698902 -1.69292e-21)
(1.00713 0.000202057 7.22987e-24)
(1.01517 -0.00492717 1.12904e-22)
(1.02151 -0.0178164 -6.87357e-22)
(1.00655 0.00525202 0)
(1.00507 0.00277168 -4.81917e-21)
(1.00462 -0.0467019 -3.36303e-22)
(0.832093 -0.160389 -3.33513e-21)
(0.942358 0.0346455 0)
(1.03294 -0.0174398 3.40276e-21)
(1.01466 -0.0046096 -7.0748e-23)
(1.01218 -0.00195016 0)
(0.821811 -0.118267 1.12519e-20)
(1.01153 0.00161462 1.55563e-23)
(1.01447 -0.00438256 8.35888e-23)
(1.01759 -0.0122527 -6.4652e-22)
(1.06795 -0.108923 -3.98607e-21)
(1.20088 -0.0908299 1.91629e-20)
(1.00656 0.000142584 -6.38168e-23)
(1.00637 0.000214424 -5.93519e-22)
(1.18152 -0.0883419 -2.26169e-20)
(1.14752 -0.245693 0)
(0.849179 0.307045 2.8495e-20)
(0.926454 -0.0922119 2.48415e-21)
(1.05325 -0.116957 -5.76701e-21)
(1.03897 -0.0851319 0)
(0.84569 0.296556 9.15592e-21)
(0.830291 0.262049 -4.08655e-20)
(1.02158 -0.0171263 7.02016e-22)
(1.02003 -0.0895303 0)
(1.00919 0.00960562 -1.7874e-21)
(1.02656 -0.0918417 0)
(0.934535 0.0253849 0)
(1.00889 0.00796027 1.84099e-22)
(0.901206 -0.28218 1.65952e-20)
(1.01498 0.00319154 0)
(0.895835 -0.187731 0)
(1.00141 0.000264818 -8.16358e-22)
(0.890586 -0.0510987 6.57951e-22)
(1.01193 -0.000340666 0)
(1.01015 -0.000661525 0)
(0.840445 0.285782 4.36641e-21)
(1.00257 -0.000713045 0)
(1.03944 -0.118222 0)
(0.0115063 0.267325 2.6493e-20)
(1.0118 -0.0080261 1.15824e-21)
(0.996179 -0.0536936 6.09994e-22)
(0.830713 -0.283033 0)
(1.01073 -0.00784991 5.35935e-22)
(1.01116 -0.0136854 2.84856e-21)
(1.14171 -0.107087 0)
(0.954357 0.0329307 -9.92838e-22)
(1.01112 5.66517e-05 8.88388e-22)
(1.01748 -0.012259 1.17852e-21)
(1.03343 -0.110439 -2.04431e-21)
(1.01108 -1.5252e-06 -7.79772e-22)
(1.0095 -0.000514705 0)
(1.01208 -0.000183599 -5.16148e-22)
(0.790749 -0.255979 -1.01735e-20)
(0.710562 -0.216004 -1.16488e-21)
(1.00901 -0.000469082 -6.51586e-23)
(0.716055 0.00148617 0)
(1.0066 -0.00017173 8.63863e-22)
(1.00966 0.00127672 -4.77925e-22)
(0.923258 -0.0853148 -2.31027e-21)
(1.01156 0.00165692 -2.71284e-23)
(0.788223 -0.272057 2.18898e-20)
(1.15936 -0.28056 3.09722e-20)
(1.01292 -0.00456599 6.26953e-22)
(1.01581 -0.0105597 -1.30066e-21)
(1.01424 0.0463186 -7.44702e-21)
(0.840386 0.299857 -1.10762e-20)
(0.937331 0.12998 1.68735e-20)
(0.811132 -0.0191495 0)
(1.00483 0.00430719 4.54748e-21)
(0.886521 -0.0241531 -5.29444e-22)
(1.1002 -0.101823 1.44247e-20)
(0.897345 -0.280673 -4.63971e-21)
(0.812449 -0.0452686 0)
(1.00834 0.0136658 0)
(1.01132 -0.00142251 2.59244e-22)
(1.12945 -0.0997066 -2.75813e-21)
(1.05359 -0.0227088 -1.11854e-22)
(1.01599 -0.0096286 5.9449e-22)
(0.813758 -0.273085 9.172e-21)
(1.12867 -0.0955461 0)
(0.42975 -0.0821661 1.53034e-20)
(1.00937 -0.000458414 0)
(1.09193 -0.0825252 1.49715e-21)
(0.0204882 0.259309 0)
(1.01281 -0.00437387 -6.11429e-22)
(1.00832 -0.000639735 -4.89038e-22)
(1.01306 0.0023981 -2.23863e-22)
(1.05137 -0.0864997 4.72906e-21)
(0.823993 -0.00445419 -2.93145e-21)
(1.01088 -0.00326377 0)
(0.835253 0.287999 3.1341e-21)
(1.0233 -0.010876 -3.122e-21)
(1.0097 0.00132922 -4.64033e-22)
(1.00828 -0.000623002 4.46574e-22)
(0.734051 -0.00191985 -3.70402e-20)
(1.08006 -0.0877276 1.47319e-22)
(1.04442 -0.119667 2.74208e-21)
(0.473104 -0.103124 0)
(1.02862 -0.0584868 -2.46131e-20)
(1.02383 -0.162999 0)
(1.01258 -0.00194454 0)
(0.696866 -0.238186 -2.31967e-21)
(1.00824 -0.0073727 -3.37754e-21)
(1.00521 -5.15791e-05 8.37919e-22)
(1.02373 -0.0117125 6.20761e-23)
(0.855657 -0.152113 2.90551e-21)
(1.04787 -0.0852011 -7.31427e-21)
(1.01054 -0.000140963 0)
(0.844678 -0.188434 -3.67494e-21)
(1.01144 -0.00310938 8.31171e-22)
(1.00606 -6.41779e-05 2.00153e-22)
(0.919371 0.118809 4.07917e-20)
(1.01143 -0.00192934 -2.59471e-22)
(1.00974 -0.000639219 4.3789e-22)
(0.068183 0.290845 -2.0532e-20)
(1.01187 -0.013954 -1.24577e-21)
(1.01187 -0.000670404 -9.9485e-22)
(1.00969 -0.000648784 0)
(1.06659 -0.166517 -1.79883e-20)
(0.0804683 0.230696 -1.30435e-20)
(1.03821 -0.112217 4.00914e-21)
(1.00644 -0.000276881 0)
(1.01462 -0.0316163 0)
(0.534179 0.0726534 0)
(1.01538 0.00317093 0)
(1.00626 -0.000132959 0)
(0.760917 0.276627 -2.51611e-21)
(1.0121 -0.00248581 -1.0933e-21)
(0.953274 -0.157095 5.80765e-22)
(1.09629 -0.103018 -2.27194e-22)
(1.0063 -0.00766905 3.34648e-21)
(0.917645 -0.192077 7.93399e-22)
(1.05831 -0.0700117 -1.30872e-21)
(0.995439 -0.014281 6.0425e-21)
(0.0860356 0.286018 2.94137e-20)
(1.08212 -0.0650493 2.20545e-20)
(0.675682 0.0188488 1.24319e-20)
(1.06779 -0.152646 0)
(1.0126 -0.0498723 -2.89964e-22)
(0.876796 -0.317178 3.28957e-21)
(0.173093 0.246455 7.5284e-22)
(-0.0351399 0.219723 -2.59548e-21)
(1.0253 -0.00503854 0)
(1.0127 0.0103889 -1.42234e-23)
(0.889377 -0.172249 0)
(0.969604 0.350483 0)
(1.08929 -0.0827578 0)
(1.07111 -0.171233 1.75148e-20)
(1.02076 0.0172374 1.45096e-21)
(1.01569 -0.0589519 -1.24528e-22)
(0.57828 -0.327997 6.77997e-21)
(1.01071 -0.000745753 0)
(0.0146969 0.198155 0)
(0.690048 0.0156191 4.10476e-20)
(0.848 0.273551 7.68308e-22)
(1.0118 -0.000272462 7.1074e-22)
(1.0106 -0.000725551 0)
(0.680083 -0.365151 1.44065e-20)
(0.106752 0.240201 0)
(0.850563 -0.21914 1.4353e-20)
(-0.0584205 0.20564 0)
(1.00263 6.24725e-05 4.45088e-22)
(1.05131 -0.126916 3.45311e-22)
(0.883942 -0.156377 0)
(1.0525 -0.152521 1.17453e-20)
(1.01066 -0.00215933 -7.54258e-22)
(1.01289 -0.00431649 -1.52694e-22)
(1.144 -0.210521 1.6126e-20)
(1.08459 -0.110995 1.12098e-20)
(1.03546 -0.00769444 -2.9782e-21)
(1.00896 0.00112253 0)
(1.01412 -0.0141455 0)
(1.13723 -0.10863 -1.20097e-20)
(1.04075 -0.011516 2.26123e-22)
(0.836991 -0.342446 -3.16529e-21)
(1.01718 -0.00297092 -5.30022e-22)
(1.04559 -0.0875601 0)
(1.0187 -0.0269335 0)
(0.0514827 0.249571 -4.31223e-20)
(0.845756 0.24827 -1.26751e-21)
(-0.0482886 0.208123 2.52713e-20)
(1.01698 -0.00302871 4.64671e-22)
(0.961883 -0.0715682 0)
(1.0021 0.166762 -3.88919e-21)
(1.00917 0.00121988 0)
(1.03877 -0.0115936 0)
(0.939232 -0.16751 2.29363e-22)
(1.02485 -0.00482042 6.60301e-22)
(0.0725102 0.244848 3.50655e-20)
(1.00547 0.000127147 -2.18553e-22)
(1.01015 -0.00172754 0)
(1.07096 -0.179806 0)
(1.03613 0.124875 0)
(1.01204 -0.00156413 -3.35123e-22)
(1.01269 -0.0020936 0)
(0.0384706 0.201179 4.04038e-22)
(1.01166 -0.000497477 1.24072e-21)
(1.01088 0.0110315 2.22544e-21)
(0.138331 0.239078 -1.39902e-20)
(0.00528898 0.207183 0)
(1.00397 7.10655e-05 -4.69035e-22)
(1.08719 -0.0882923 -1.1534e-20)
(1.01004 -0.00231236 -9.21844e-22)
(1.01298 -0.00308664 0)
(1.01698 -0.0121621 -1.2482e-21)
(1.01319 0.00247255 1.76087e-22)
(1.01246 -0.00070612 2.34583e-23)
(1.0872 -0.0860186 1.54384e-20)
(1.00787 0.000294776 2.60174e-22)
(0.939839 -0.172832 -9.64303e-22)
(1.03357 0.127318 0)
(1.01187 -0.00132412 2.12651e-22)
(1.05552 -0.0693976 2.23663e-21)
(1.0655 -0.184321 5.36667e-21)
(1.00571 0.139454 0)
(0.935481 0.0231088 1.68335e-22)
(1.02174 0.0533132 7.1214e-21)
(1.13204 -0.0839946 -1.30965e-20)
(0.594546 -0.328487 -5.37671e-21)
(1.0115 -0.000540559 5.09977e-24)
(1.13684 -0.252218 0)
(1.07952 -0.0655293 -1.05781e-20)
(1.0826 -0.177459 2.18546e-21)
(1.00573 -0.000127825 -9.07029e-22)
(1.0099 -0.00151392 3.63992e-22)
(1.01221 -0.00149318 8.85105e-22)
(0.96216 0.0377781 6.25773e-21)
(-0.0131326 0.279347 0)
(0.924007 -0.178598 0)
(1.02097 -0.0127689 -4.37244e-22)
(1.01297 -0.00230607 2.13622e-22)
(0.969297 0.0339271 0)
(0.965348 -0.144807 0)
(1.00342 2.83488e-05 1.22831e-21)
(0.86785 -0.333199 0)
(0.998157 -0.233056 1.19269e-20)
(1.01004 -0.00150273 -6.63417e-22)
(1.00813 -0.000437833 4.51919e-22)
(1.01359 -0.000366908 3.78113e-22)
(1.01087 -0.00326835 0)
(-0.0550653 0.213022 0)
(1.01193 -0.00101196 -1.53608e-21)
(1.04282 -0.0354295 0)
(1.01226 -0.00170219 -9.01235e-22)
(1.00564 0.000109077 -1.08892e-22)
(0.923047 -0.21171 0)
(1.01157 -0.000120643 7.11509e-22)
(1.15403 -0.292205 3.40491e-20)
(1.01319 -0.000901759 0)
(0.917515 -0.311248 3.27646e-21)
(1.00932 -0.00849672 -1.92393e-21)
(1.00997 -0.000657897 -4.6958e-22)
(1.01015 -0.00156251 1.2151e-21)
(0.964435 -0.0674044 7.66241e-22)
(0.606702 0.0665503 1.54288e-21)
(0.630365 0.126047 4.34177e-22)
(1.01009 -0.00069536 0)
(0.962364 -0.15585 1.2828e-22)
(1.02572 -0.00491729 1.00833e-21)
(1.01108 -0.00425718 0)
(0.82368 -0.173585 0)
(0.97406 -0.205508 0)
(1.01115 -0.00436615 0)
(1.01128 -0.000549125 6.89972e-22)
(1.01945 0.00711612 0)
(1.01681 -0.0120316 1.28796e-21)
(1.02565 -0.0333107 0)
(1.0083 0.000351517 -2.94677e-22)
(1.01331 -0.00353994 1.83566e-21)
(1.03218 -0.0176057 -2.01909e-21)
(1.00806 -0.000446318 -9.13375e-22)
(1.00579 -0.000155411 0)
(1.01344 -0.00218084 2.28223e-22)
(0.655325 0.0302049 3.17185e-20)
(1.01495 -0.00472383 -2.03074e-22)
(1.01111 -0.000568034 -1.86014e-21)
(1.01034 0.00102952 1.13658e-23)
(0.973742 -0.14379 0)
(1.00834 -0.000645989 0)
(1.00828 -0.000632863 0)
(1.00266 7.5731e-06 -1.36836e-21)
(1.03443 -0.0101141 -1.98317e-21)
(1.01096 3.09089e-05 0)
(1.00493 5.52485e-05 -3.12957e-22)
(1.00373 2.2849e-05 0)
(1.01559 -0.000470073 1.14785e-21)
(0.923284 0.0431846 0)
(1.00831 -0.00038609 -1.07292e-22)
(1.00571 0.000140577 6.22876e-22)
(0.122471 0.302626 0)
(1.04217 -0.0235175 -9.74622e-22)
(1.00559 -1.41073e-05 0)
(1.00565 -8.45354e-06 1.34852e-21)
(0.879906 -0.326368 -7.72496e-21)
(0.974452 -0.00929359 -5.88585e-22)
(1.00901 0.00116047 6.80538e-22)
(1.0219 -0.0167558 -1.51305e-22)
(1.08722 -0.081113 0)
(1.01219 0.000106151 0)
(0.962804 0.0404078 1.1382e-21)
(1.01361 -0.00224615 -2.57701e-22)
(0.684851 0.22985 0)
(0.949676 -0.167018 -2.37921e-22)
(0.986046 -0.116546 -4.43928e-22)
(1.05717 -0.114084 0)
(1.01149 -0.0815051 -2.42212e-20)
(1.00959 0.00135702 0)
(0.859615 -0.350627 1.00007e-20)
(1.06327 -0.201815 0)
(1.00672 -0.000187831 0)
(0.986153 -0.111297 1.29674e-21)
(1.01651 0.014711 -2.25349e-21)
(0.866871 -0.302925 -3.43632e-21)
(1.00973 -0.00178644 4.40766e-22)
(1.00955 0.00130641 -4.64512e-22)
(0.0309873 0.21584 0)
(0.88223 -0.0963529 0)
(1.00967 -0.000693451 0)
(0.024164 0.293382 3.94761e-20)
(0.974492 0.0224671 0)
(1.00134 -0.0020592 1.96098e-21)
(0.474707 0.0881333 -1.75263e-20)
(1.00965 -0.0016703 -4.24745e-22)
(1.01188 -0.000179941 -8.05708e-25)
(1.01336 -0.000978255 0)
(1.00556 -5.02143e-05 8.14407e-25)
(1.01382 -0.0095838 1.15212e-21)
(1.00881 -0.000720639 9.83673e-22)
(1.02201 -0.0182722 0)
(1.01176 -0.00046167 6.07855e-22)
(1.01398 -0.00945177 1.04106e-21)
(1.02184 -0.0128289 -8.84508e-22)
(0.76664 -0.0896752 0)
(0.897452 -0.330068 3.88233e-22)
(1.01247 -0.00251483 0)
(0.861977 -0.339476 1.47002e-20)
(0.826092 0.0526201 -2.3501e-21)
(1.00953 -0.000676709 1.40548e-21)
(1.05439 -0.0494099 0)
(0.963869 -0.00757015 0)
(1.18306 -0.0752697 -1.07584e-20)
(0.90393 -0.154792 0)
(0.905156 -0.137717 5.23517e-21)
(1.01713 -0.0027181 6.90725e-22)
(-0.021336 0.271222 0)
(0.904393 -0.311753 1.27807e-20)
(1.00803 -0.030535 -3.65467e-21)
(1.02204 -0.0126224 1.04118e-21)
(1.0019 0.000232716 0)
(1.0139 -0.00324246 8.84674e-22)
(1.01191 -0.000563553 2.64761e-22)
(0.93533 -0.17748 3.54306e-22)
(0.994605 0.159654 0)
(0.892678 -0.116679 2.53462e-22)
(1.03216 0.0712953 0)
(0.961944 0.200239 0)
(1.01 -0.0015725 -4.23381e-22)
(1.04535 -0.0307318 2.8112e-21)
(1.01466 -0.0147011 5.01533e-22)
(1.04513 -0.0885296 1.10353e-21)
(-0.00860595 0.270457 -2.94914e-20)
(0.868673 -0.155439 -2.48298e-21)
(1.09625 -0.246088 1.9805e-20)
(0.881954 -0.00264533 0)
(0.906555 -0.183788 2.24807e-21)
(0.895082 -0.136353 -4.91877e-21)
(1.00511 9.60427e-05 2.1704e-22)
(0.796447 -0.0184551 2.55956e-20)
(1.07195 -0.157498 0)
(0.984733 -0.030488 -4.40269e-22)
(0.880921 -0.10187 0)
(1.00735 -0.000228824 0)
(1.00645 0.000215104 -3.94207e-22)
(1.19599 -0.0845183 0)
(0.888844 -0.142027 0)
(0.952045 0.216788 0)
(0.811915 -0.174394 0)
(0.0390792 0.288403 -3.62452e-20)
(1.02138 -0.0130149 3.41551e-22)
(0.838071 -0.188336 -3.38507e-21)
(1.00304 -0.153027 1.43876e-21)
(1.01234 -0.00200014 9.61822e-24)
(1.03016 -0.0173411 -4.12966e-21)
(1.01638 -0.0120476 -6.7732e-23)
(1.01381 0.00187244 0)
(1.00599 -7.63758e-05 -1.11747e-21)
(1.01433 -0.00331623 -1.1412e-21)
(1.01909 -0.00270521 0)
(1.00448 -0.000108255 0)
(1.00362 -1.56234e-05 0)
(1.01347 -0.00121923 1.23492e-21)
(1.00287 -0.0216934 -3.47721e-21)
(0.902693 -0.283635 -1.11685e-20)
(1.05675 -0.0345619 -6.07303e-21)
(0.84814 0.275242 0)
(0.84549 0.2794 -5.80641e-21)
(0.20291 0.279883 3.13391e-20)
(0.910295 -0.283182 9.16839e-21)
(1.04915 -0.157643 3.61473e-21)
(1.01484 -0.000621333 -1.13446e-21)
(1.00632 0.000208966 -4.0425e-22)
(0.888691 -0.0661209 -2.60337e-22)
(1.02946 -0.0174621 0)
(1.02033 -0.0128119 -3.45318e-22)
(0.740107 0.193971 -4.03385e-21)
(1.04155 -0.0870431 9.74475e-22)
(0.974289 -0.0809781 2.05399e-21)
(1.01162 -4.66845e-05 0)
(0.756573 -0.0689225 1.23892e-20)
(1.01009 -0.000630775 0)
(1.04213 -0.0244881 0)
(1.00903 0.00122536 4.72434e-22)
(0.147441 0.218151 9.48554e-21)
(0.645484 0.162953 0)
(0.900701 -0.180848 0)
(1.00376 3.27789e-05 0)
(0.412249 0.108691 0)
(1.09422 -0.0769206 1.21512e-20)
(1.0134 -0.00077272 9.19381e-23)
(1.01435 0.00165175 0)
(1.00394 5.59986e-05 3.57454e-24)
(1.1152 -0.254284 -4.21104e-21)
(1.00372 2.53284e-05 -5.26501e-22)
(1.00498 6.37979e-05 -2.12951e-21)
(0.842858 0.267163 -8.28155e-22)
(1.05836 -0.0345106 9.29161e-21)
(1.02069 -0.0130319 5.23261e-22)
(1.01276 -0.00411659 0)
(1.02017 -0.0164202 -1.66214e-22)
(1.01774 -0.0208591 0)
(0.669962 -0.302451 6.1554e-21)
(0.992757 -0.0951249 1.22307e-21)
(1.00312 7.13463e-05 -2.23337e-22)
(0.74561 -0.00912327 1.17244e-20)
(1.00908 0.0012475 -2.52989e-23)
(1.0083 -0.000855499 1.00972e-21)
(1.12987 -0.0825143 -1.2205e-20)
(1.0159 -0.000456413 -1.49903e-22)
(0.845818 0.293427 -3.47577e-21)
(1.00305 0.00011474 0)
(1.01685 -0.0207258 5.49453e-23)
(1.00352 1.38894e-05 8.65247e-23)
(0.876383 -0.14463 -2.53056e-21)
(1.0171 -0.00076125 0)
(1.01878 -0.00269327 0)
(-0.0190976 0.287547 6.60419e-23)
(0.976586 -0.0166476 5.93139e-22)
(1.01057 0.00118681 1.28647e-23)
(1.04411 -0.0304917 2.79115e-21)
(1.01547 0.00241274 0)
(1.01213 -0.00170499 0)
(1.00507 -4.94762e-07 -7.92931e-22)
(1.01271 -0.000564987 0)
(0.627391 0.046421 -4.42397e-21)
(0.203914 0.0786558 4.88941e-21)
(1.0258 -0.00786818 0)
(1.02928 -0.0567749 -4.65952e-21)
(0.947086 0.221104 -1.38537e-20)
(1.13542 -0.206539 0)
(0.919118 -0.0551731 -1.1677e-20)
(0.987356 -0.227112 -4.91033e-21)
(0.912887 -0.0883163 4.56319e-22)
(1.01018 -4.20004e-05 7.56701e-22)
(1.04693 -0.150239 -3.61561e-21)
(0.968777 0.0251531 3.24646e-21)
(1.00804 -0.0110413 -3.31959e-21)
(1.02112 -0.016705 0)
(0.936273 -0.190714 -2.79957e-21)
(0.987505 -0.00576791 -5.6138e-22)
(1.00557 -0.00583375 9.28e-22)
(1.00611 -3.06617e-05 0)
(1.01513 -0.00501966 -1.16108e-22)
(1.00848 -0.00070309 1.03276e-21)
(1.01574 -0.00044138 1.22086e-22)
(1.00844 -0.000688451 9.11101e-22)
(1.01545 -0.000188464 -2.02546e-22)
(0.97308 0.0703022 0)
(1.00363 -9.24889e-06 0)
(1.00897 0.00113248 4.28546e-25)
(1.09667 -0.0724913 -7.08305e-21)
(1.00652 -0.000258238 -2.10818e-21)
(1.00336 1.08121e-05 2.71506e-24)
(1.01456 0.00337939 0)
(1.01512 0.00180136 0)
(0.988141 -0.00184846 2.14908e-22)
(1.05163 -0.138503 4.36309e-21)
(1.01163 -0.0005082 0)
(0.988842 -0.0470593 0)
(1.00639 0.00011881 6.36601e-23)
(1.05456 -0.0366094 0)
(1.11432 -0.138265 2.04151e-20)
(0.152353 0.161183 -1.0559e-20)
(0.874762 -0.013959 0)
(1.01267 -0.000857599 -1.92245e-22)
(1.01737 -0.00267019 -5.61932e-22)
(0.1811 0.110185 0)
(0.476424 0.0938078 1.09563e-21)
(0.998127 0.00138652 -6.17802e-23)
(1.01135 1.94312e-05 -4.10493e-22)
(0.970748 -0.109172 -1.50855e-21)
(0.640304 0.0346035 -1.62191e-20)
(1.01047 0.00108989 5.73145e-24)
(1.00707 0.000162542 -5.17833e-23)
(0.726366 -0.405166 3.58062e-21)
(1.01713 -0.0122304 0)
(1.09558 -0.107862 -1.35099e-20)
(0.998969 0.00424402 -1.17503e-21)
(1.01508 0.00214994 -9.87607e-22)
(1.02707 -0.0563538 4.0573e-21)
(1.00824 -0.000467871 4.59221e-22)
(1.01042 -0.00192901 1.30685e-21)
(1.01001 -0.000462134 -1.5463e-22)
(1.00539 9.4351e-05 0)
(1.01148 -0.000528765 1.20549e-21)
(1.00987 -0.000587839 -2.31934e-22)
(0.869909 0.217967 4.91652e-21)
(1.00811 0.000660142 -5.76574e-22)
(0.965637 -0.0691438 -3.98327e-22)
(0.949682 0.190165 3.08189e-20)
(1.01072 0.00125343 1.85565e-23)
(1.00821 0.000714403 6.02148e-22)
(1.00268 -3.48494e-06 0)
(1.03586 -0.0331819 0)
(1.02112 -0.0174642 1.28145e-21)
(0.997802 -0.103849 -1.91486e-21)
(1.01098 -0.00340191 6.09083e-22)
(0.840826 0.235913 2.44668e-21)
(1.00731 -0.0250565 1.66932e-21)
(1.00922 -0.0106809 4.29089e-21)
(1.01139 -0.000677792 -5.84525e-22)
(1.01289 -0.00106447 0)
(1.01417 -0.00023676 0)
(1.02535 -0.00884453 -1.87677e-21)
(1.02532 -0.00846904 8.60029e-22)
(0.11533 0.316549 2.87192e-20)
(0.844975 -0.361437 4.10954e-21)
(1.00796 -0.000415111 -4.65754e-22)
(1.01131 -0.000567367 0)
(1.03366 -0.00965047 3.92468e-21)
(0.63135 -0.327573 -1.14986e-20)
(1.00912 0.00126678 4.34212e-22)
(1.01353 0.00255971 -1.05157e-22)
(1.0154 -0.000198181 0)
(1.00894 0.00113383 2.10212e-22)
(1.01092 -0.000553293 1.27206e-21)
(1.01128 -0.000688876 0)
(1.01593 -0.0114543 0)
(1.01208 -0.00180327 0)
(1.02909 -0.114094 -9.59486e-22)
(1.011 -0.00339039 -1.67437e-21)
(1.01579 0.00339884 -3.80295e-23)
(0.919511 -0.0027216 -6.56237e-21)
(0.14816 0.182591 1.44829e-20)
(1.00648 -0.00292935 -1.4027e-21)
(1.01186 -0.000776999 0)
(1.01071 -0.00285611 6.55518e-22)
(1.00257 -2.91511e-05 7.00238e-22)
(1.01296 -0.00374187 -2.4604e-22)
(1.01202 -0.003038 0)
(0.99725 -0.0575 1.41381e-21)
(0.952686 -0.0350639 -2.114e-21)
(1.03498 -0.00891582 2.05197e-21)
(1.07207 -0.177804 0)
(1.01065 -0.00273228 6.78599e-22)
(1.05572 -0.0511184 0)
(1.01192 -0.00054251 1.0287e-21)
(1.00541 0.000111785 -4.93724e-22)
(1.07897 -0.068569 0)
(1.01148 0.0016455 4.00864e-23)
(1.00527 8.95944e-05 3.14386e-22)
(0.860896 -0.270844 2.01768e-20)
(1.00374 6.45686e-06 1.45349e-21)
(1.03883 -0.0124786 2.13346e-21)
(1.04138 0.06472 0)
(1.0053 -1.5293e-05 -4.12141e-22)
(1.01611 -0.00364783 -2.81225e-22)
(0.110822 0.226789 0)
(1.01049 -0.000123381 0)
(0.980037 0.082498 2.28416e-21)
(0.985607 0.00459489 -1.78612e-21)
(1.00473 1.40734e-05 -4.02829e-22)
(1.00347 6.47925e-07 -9.50822e-23)
(1.01005 0.010039 0)
(1.01862 -0.0164815 0)
(1.02048 -0.0183379 0)
(1.01056 -0.00210846 7.15936e-22)
(0.917004 -0.315249 -1.68382e-20)
(1.05317 -0.212963 6.91738e-21)
(0.888945 -0.102356 -1.13884e-20)
(1.00839 -0.000533953 0)
(0.154267 0.30123 0)
(1.0089 0.00100712 4.7344e-22)
(1.00392 5.56328e-05 4.57775e-22)
(1.01129 -0.00356932 0)
(1.0084 -0.00519912 0)
(0.839102 0.256938 2.28469e-22)
(0.901129 -0.0226779 0)
(1.01349 -0.00214168 9.28601e-22)
(1.03957 -0.0111328 5.50278e-21)
(1.01117 -0.00246278 -2.91761e-22)
(0.680719 -0.214421 0)
(0.97073 -0.0972281 1.42517e-21)
(1.01076 -0.00143111 -2.71224e-22)
(1.02469 -0.0190048 2.65069e-22)
(1.03985 -0.0253804 -1.793e-21)
(-0.0215615 0.279608 7.54053e-23)
(1.01619 -0.0320495 0)
(0.99494 0.00416342 -4.81484e-22)
(1.00949 -0.000808879 -5.98471e-22)
(1.00767 -0.00424161 0)
(1.03492 -0.088016 4.33658e-21)
(1.00488 8.05839e-06 4.22723e-22)
(1.0096 -0.000804542 6.2231e-22)
(1.00905 0.00122451 0)
(1.00909 -0.000605892 0)
(1.02024 -0.0305551 8.88322e-22)
(0.998297 -0.0780296 0)
(1.04406 -0.0413172 4.47245e-23)
(0.83211 -0.247163 -2.55337e-20)
(0.99692 0.00721521 4.78724e-22)
(1.0147 0.00376078 0)
(1.01126 -0.00360577 5.77854e-22)
(1.00782 -0.000294211 8.86469e-22)
(0.951293 -0.0721808 -2.4765e-22)
(1.18628 -0.0790054 2.15396e-20)
(1.01497 0.00341391 8.49979e-23)
(1.05069 -0.0718852 0)
(-0.0246169 0.220676 2.43237e-20)
(0.114499 0.317296 2.0585e-20)
(1.00315 1.26826e-05 6.51182e-22)
(1.00446 0.000134129 2.079e-22)
(1.01181 0.017056 3.3087e-21)
(0.996737 0.0131571 0)
(1.00898 0.00100591 -1.57817e-22)
(0.962965 0.00118374 -2.54476e-21)
(1.01112 -0.00364098 1.44641e-21)
(1.00473 -3.96074e-05 4.2076e-22)
(1.05188 -0.0420432 0)
(1.01337 -0.000724215 8.25205e-23)
(1.02582 -0.00826375 0)
(1.01203 0.000229001 1.97033e-21)
(1.00817 -0.000564567 -1.05002e-21)
(1.0133 0.00131731 1.07245e-21)
(1.00165 -0.0859676 4.35558e-22)
(1.07612 -0.068939 9.17509e-21)
(0.916403 0.260157 7.43818e-21)
(1.0126 -0.00292876 1.74887e-21)
(1.0111 -0.000547305 -7.4665e-22)
(0.852284 -0.177193 -4.41817e-21)
(1.01368 0.00266897 1.74056e-22)
(0.831209 -0.18761 3.5427e-21)
(0.885699 0.243864 -9.7943e-21)
(1.01111 -0.00358116 -2.35749e-21)
(0.741421 0.250472 4.03074e-21)
(1.01198 0.00150789 0)
(1.0119 -0.000853633 -5.54625e-22)
(0.778717 0.281259 -8.64248e-21)
(0.887833 -0.134616 0)
(0.882372 -0.131513 0)
(0.609035 0.0405999 7.97892e-22)
(1.01885 -0.0159886 0)
(0.80876 0.247141 -2.41125e-20)
(1.00799 0.000582626 5.37203e-22)
(0.858859 -0.0330042 -1.26147e-20)
(0.203489 0.283823 -2.84664e-20)
(1.00744 -0.0276765 0)
(1.01263 -0.00193125 0)
(0.860934 -0.224322 -1.95099e-20)
(1.03908 -0.0242917 1.51681e-21)
(1.05712 0.00478959 -3.50317e-21)
(1.07013 -0.192151 0)
(0.779199 -0.228256 -3.4917e-22)
(1.02394 -0.00490012 0)
(0.880023 0.125595 1.16706e-20)
(1.00513 0.000105759 -5.73196e-22)
(1.0484 -0.0745912 0)
(1.05478 -0.122702 4.4492e-22)
(1.0061 -6.68484e-05 -9.4971e-26)
(1.02847 -0.0450645 -3.23331e-21)
(0.970628 0.0833544 -1.01163e-20)
(0.967853 0.0812275 1.31833e-21)
(1.01816 -0.0107039 3.88393e-21)
(1.01614 -0.0116611 0)
(1.00912 0.00121768 -3.46986e-22)
(1.02254 -0.0127121 -1.32633e-21)
(1.0163 -0.000976608 -3.76775e-22)
(1.01644 -0.0268232 0)
(0.994522 0.0589538 -5.18891e-21)
(1.01163 -0.000502933 0)
(0.847298 -0.162461 0)
(1.01473 0.00303588 0)
(1.01107 -0.00402625 -2.90937e-21)
(1.05086 -0.0293598 -7.27697e-21)
(1.00825 0.000739855 0)
(1.03909 -0.00295059 0)
(1.0133 -0.00223155 0)
(1.00922 -0.000607625 0)
(0.847088 -0.329023 -2.56514e-21)
(1.00783 -0.000352314 -4.51229e-22)
(1.01378 -0.00367074 9.53596e-22)
(0.88911 -0.0394876 7.60851e-22)
(1.09413 -0.0791711 -1.67344e-20)
(1.10415 -0.0707403 -3.8241e-21)
(1.0177 -0.00214157 4.10037e-22)
(1.01128 -0.00469125 1.55915e-21)
(0.983148 -0.0623753 0)
(1.01167 -0.00519142 -7.17745e-22)
(0.976493 0.0446515 0)
(1.04361 -0.0216679 3.82093e-21)
(1.01725 -0.0122975 -1.35704e-21)
(1.02863 -0.0154281 1.34372e-21)
(1.01113 -0.00338169 0)
(1.00909 0.00114617 -3.15001e-22)
(0.664005 -0.367427 3.76996e-21)
(1.00832 0.000795369 0)
(0.265758 -0.0328129 0)
(1.06945 -0.19529 -5.91753e-21)
(1.03561 -0.00859802 6.64058e-21)
(0.658003 -0.209174 -2.54627e-20)
(1.00605 0.000150596 -5.80662e-22)
(1.0034 -0.00325102 -1.46356e-21)
(1.01799 -0.0110826 -1.26061e-21)
(0.59837 -0.370267 1.31522e-20)
(1.04491 -0.0199122 -3.63264e-21)
(0.986777 -0.0755619 -1.60622e-21)
(0.875939 -0.118246 -1.98845e-22)
(1.00397 6.07823e-05 3.94995e-22)
(0.88579 -0.0192213 0)
(1.00707 -9.44095e-05 1.79104e-21)
(1.06258 -0.174122 -1.08478e-21)
(1.01155 -0.00518383 0)
(1.02476 -0.0107788 -8.45917e-22)
(0.822005 -0.127044 -4.92376e-20)
(0.886992 -0.0773471 0)
(1.01287 -0.00215265 0)
(1.01457 -0.00807119 6.86004e-22)
(1.02058 -0.0168529 0)
(1.00913 -0.000425537 1.73566e-21)
(1.01747 -0.00210445 -3.88063e-23)
(0.925268 -0.161184 -2.83119e-22)
(0.0968211 0.22859 -5.60513e-20)
(1.01201 -0.00106572 -1.87553e-21)
(1.00899 -0.000418569 -5.86876e-22)
(1.00708 -0.000108929 9.26903e-22)
(0.645235 -0.320032 -7.11849e-21)
(0.903483 -0.0129126 0)
(0.98906 0.016482 5.1755e-22)
(1.00818 -0.000542589 5.58003e-22)
(1.01856 -0.0227194 0)
(1.02433 -0.0107663 -8.00249e-22)
(1.01119 -0.00461185 -2.43314e-21)
(1.05626 -0.0365379 0)
(0.814716 -0.0415927 0)
(1.01083 -0.00134066 5.30298e-22)
(1.05372 -0.0725038 -1.2255e-21)
(1.00406 -0.131341 -8.10495e-23)
(1.01876 0.00631811 -3.12278e-22)
(0.982043 -0.0115531 0)
(1.01846 -0.00463071 4.15091e-22)
(1.01411 -0.0299471 8.09389e-23)
(1.0108 -0.00122132 0)
(1.01071 -0.0001595 0)
(1.04331 -0.0320087 0)
(1.01103 -0.00389307 9.96282e-22)
(1.03851 -0.0897979 0)
(1.01554 -0.000492516 0)
(0.580694 0.0589958 0)
(1.00735 -0.000243297 0)
(1.04357 -0.0227693 -1.18338e-21)
(1.04823 -0.114747 2.84614e-22)
(0.961569 0.0671853 -5.52981e-21)
(1.04538 -0.073648 0)
(1.0059 0.000198699 2.28238e-22)
(1.01115 -0.00329131 0)
(0.888987 -0.172252 0)
(1.01578 -0.0261872 6.32527e-22)
(1.0505 0.00604248 0)
(1.00861 -0.000761835 8.52616e-22)
(1.01075 -0.00308406 -5.78839e-22)
(1.01525 -0.011175 -1.26887e-21)
(-0.0347053 0.136264 -8.65855e-21)
(0.878936 -0.0588808 0)
(1.01182 -0.000964267 2.62433e-21)
(1.01274 -0.00235692 -2.85221e-22)
(1.01908 -0.0126508 9.96511e-24)
(1.0145 -0.0078158 0)
(1.01215 0.000654615 -2.06153e-21)
(1.01244 -0.00383506 0)
(1.00503 3.12581e-06 -1.94849e-21)
(0.891697 -0.0688685 8.89097e-21)
(1.0133 -0.00230917 -6.55228e-23)
(1.01634 -0.00382607 0)
(0.885502 -0.161699 -3.19348e-21)
(1.00843 -0.00048754 1.00079e-21)
(1.00087 -0.24358 -8.72734e-21)
(0.930672 -0.0489361 -6.03529e-21)
(0.728015 -0.16236 0)
(0.875916 -0.289436 -1.9635e-21)
(0.898554 -0.222409 9.63637e-21)
(0.0834049 0.249673 5.15075e-20)
(1.01268 -0.00384132 3.03045e-22)
(1.01083 -0.00320939 0)
(1.01663 -0.0120605 7.62349e-23)
(1.01184 -0.00107113 -8.783e-22)
(1.0109 -0.00176938 -5.40266e-22)
(1.00641 -4.13006e-05 1.22401e-21)
(1.00569 7.82998e-06 2.336e-21)
(1.02262 -0.0123646 1.85549e-21)
(0.740927 -0.200914 1.44172e-21)
(1.11722 -0.133749 -5.71939e-22)
(1.0026 -0.120813 0)
(1.01266 0.00626264 -1.26391e-21)
(1.01061 -0.00291014 0)
(1.00659 -0.026498 -1.21001e-21)
(1.00372 -0.0197701 1.29175e-21)
(0.974219 -0.0649049 2.85628e-22)
(1.00317 2.17746e-05 0)
(1.012 -0.00290167 0)
(1.01058 -9.97387e-05 7.72181e-22)
(0.0441655 0.285232 -7.82546e-21)
(1.07393 0.0903728 -4.85397e-21)
(0.845532 -0.280661 -1.00223e-20)
(1.00582 -0.000141399 9.13364e-22)
(1.04607 -0.125886 1.53359e-20)
(1.05588 -0.159057 4.43512e-21)
(0.981478 -0.00579431 8.27509e-23)
(-0.0462811 0.142838 8.75487e-21)
(0.77724 -0.206041 0)
(1.01627 -0.0113604 0)
(1.02083 0.00707541 0)
(1.01624 0.00335773 -6.62758e-24)
(1.08766 -0.12063 1.3051e-20)
(1.01766 -0.00895732 -4.66311e-23)
(1.00824 0.000626003 5.50284e-22)
(0.994309 -0.103487 0)
(0.946335 -0.267281 0)
(1.0125 -0.00331307 -1.45273e-22)
(1.04703 -0.0136496 0)
(1.01205 -0.101347 0)
(1.01375 -0.00216609 1.07039e-22)
(1.01172 -0.00354469 2.16087e-22)
(1.01397 -0.0019523 5.51606e-23)
(1.01154 -0.00163575 8.07752e-22)
(1.01473 -0.00496364 0)
(1.01222 0.00171724 1.5177e-21)
(1.02412 -0.0427349 -5.02426e-22)
(1.01372 -0.00506065 1.86807e-22)
(1.01754 -0.00908755 4.51561e-23)
(0.909958 -0.262387 1.17392e-20)
(0.0312839 0.297798 -4.25055e-21)
(1.01422 -0.0042596 -2.93851e-22)
(0.951094 -0.196811 -3.23213e-21)
(1.17459 -0.165032 -9.66794e-21)
(1.01298 -0.00950033 -1.84874e-21)
(1.01312 -0.00254251 8.19543e-22)
(1.01199 -0.00119558 1.10694e-21)
(1.00796 0.000251105 0)
(1.01513 -0.0116963 -1.48677e-21)
(1.01276 -0.0092453 2.51704e-21)
(1.00441 2.88781e-05 1.66324e-21)
(1.02487 -0.00912412 0)
(1.01235 0.00115188 1.45431e-21)
(1.01896 -0.00898571 -5.70299e-23)
(0.866562 -0.157624 2.41037e-20)
(1.02408 -0.0336464 3.94325e-22)
(1.00515 -1.62796e-05 0)
(1.01162 -0.00155628 -3.92968e-22)
(0.897907 0.293011 0)
(1.02443 -0.00507517 -6.88582e-22)
(1.00837 0.000676425 6.2588e-22)
(0.580967 -0.370586 0)
(1.01108 -0.00172098 0)
(1.02609 -0.0533249 1.85612e-21)
(1.04203 -0.0318529 0)
(1.01657 -0.00358637 1.74185e-22)
(1.00857 -0.000725495 0)
(1.00933 -0.00057456 0)
(1.01788 -0.0121389 -2.58573e-21)
(1.07486 -0.0530711 4.47326e-21)
(1.00472 -4.0085e-06 -8.96558e-22)
(0.899717 -0.23746 -6.41639e-21)
(0.97198 -0.0690426 -4.31998e-21)
(1.04009 -0.148641 0)
(0.755795 -0.164227 7.20471e-21)
(1.01899 -0.0122268 -9.80852e-24)
(0.979076 0.0420994 -1.10452e-21)
(1.00808 0.000633604 2.91402e-22)
(0.981096 -0.116628 0)
(1.03512 -0.00977454 -6.88358e-21)
(1.01117 -0.00160654 -1.55973e-21)
(1.12292 -0.146397 0)
(0.910451 -0.21316 0)
(1.01061 -0.00527516 2.12799e-21)
(1.09501 -0.270685 -2.05608e-21)
(1.14124 -0.273816 -3.33401e-20)
(1.0062 0.000172246 9.4517e-22)
(1.05089 -0.0402402 7.81249e-21)
(1.00849 0.000720038 -6.5697e-22)
(1.0128 -0.000588013 -2.89136e-23)
(1.02004 -0.0320273 -6.21515e-22)
(1.0089 -0.00402365 0)
(1.00742 -0.000204464 -1.10342e-21)
(0.992194 0.0105127 -1.71091e-21)
(1.01046 -0.00169668 -3.56643e-22)
(1.01143 -0.000507295 6.9138e-22)
(0.872531 0.113577 -8.1737e-21)
(1.01159 -0.000635193 5.31836e-22)
(1.01087 -0.00186395 0)
(1.00862 -0.00074302 -1.00532e-21)
(0.923808 -0.175288 9.30096e-21)
(1.01173 -0.00155477 0)
(1.01175 -0.00219259 0)
(1.02261 -0.0411646 -1.85779e-21)
(0.973036 0.154486 0)
(0.993104 0.190648 0)
(0.927168 -0.199797 6.92516e-22)
(0.86496 0.182691 -1.45226e-20)
(1.01052 -0.00199069 0)
(1.00858 0.000953057 0)
(1.0168 -0.00354862 0)
(0.76695 -0.230353 7.42062e-24)
(1.00396 -6.00417e-05 -8.68001e-22)
(1.01007 -0.00112259 1.21339e-21)
(1.03249 -0.0213162 -3.78812e-21)
(1.01034 -8.77782e-06 -7.55149e-22)
(1.04553 -0.160816 3.196e-21)
(1.01872 -0.00939539 -1.62576e-22)
(1.02182 -0.0067855 0)
(1.11862 0.0533738 -3.75364e-21)
(1.01197 -0.00348282 5.34467e-22)
(1.09698 -0.0750953 7.93407e-21)
(0.833266 0.295898 -5.11336e-21)
(1.0086 0.000955193 0)
(1.01355 -0.00492664 -2.09828e-22)
(0.944754 -0.0333971 1.48458e-20)
(1.01659 -0.0119483 1.31667e-21)
(0.279856 0.27314 0)
(0.900838 0.302431 -4.88469e-21)
(1.00772 -0.000270885 -4.40981e-22)
(1.01902 -0.00472593 8.48812e-22)
(0.932823 0.0673934 9.31586e-22)
(1.00822 -0.000594045 -6.30671e-22)
(1.03348 -0.0214638 2.44517e-21)