/*--------------------------------*- C++ -*----------------------------------*\
| =========                 |                                                 |
| \\      /  F ield         | OpenFOAM: The Open Source CFD Toolbox           |
|  \\    /   O peration     | Version:  v2012                                 |
|   \\  /    A nd           | Website:  www.openfoam.com                      |
|    \\/     M anipulation  |                                                 |
\*---------------------------------------------------------------------------*/
FoamFile
{
    version     2.0;
    format      ascii;
    class       volScalarField;
    location    "200";
    object      nut;
}
// * * * * * * * * * * * * * * * * * * * * * * * * * * * * * * * * * * * * * //

dimensions      [0 2 -1 0 0 0 0];


internalField   nonuniform List<scalar> 
9793
(
0.00172186
0.0228177
0.00161526
0.00671266
0.0353954
0.00455504
0.00689865
0.00673075
0.00679785
0.0387641
0.00128631
0.00162721
0.00672112
0.00705516
0.00699911
0.00700168
0.00705326
0.00727736
0.00449585
0.0070481
0.00338554
0.00309396
0.0126691
0.00671067
0.00688103
0.00673673
0.00711207
0.0068678
0.00148261
0.00679767
0.00293313
0.0115705
0.0077605
0.00697422
0.00147552
0.00351217
0.00695481
0.00308837
0.0067711
0.0068233
0.00302696
0.0070056
0.00685626
0.00690846
0.00685979
0.00676322
0.00135813
0.0114043
0.0181348
0.00670877
0.00120008
0.00115023
0.00400027
0.00681467
0.0102068
0.00383205
0.0067368
0.000741013
0.00616649
0.00676711
0.00694165
0.0038851
0.00800817
0.00681781
0.0275129
0.00678311
0.00853881
0.0142381
0.00153082
0.00151189
0.00699497
0.00690381
0.00674439
0.0162965
0.00121113
0.00555837
0.00674011
0.00713824
0.00706779
0.00689957
0.00706993
0.00706584
0.0221348
0.00932719
0.00281294
0.0115051
0.00694151
0.00674508
0.0044525
0.00710808
0.0234967
0.0434747
0.00680155
0.0130169
0.00401486
0.00819746
0.00398032
0.023184
0.00678242
0.00674158
0.00673728
0.00701589
0.00675014
0.0067416
0.00710809
0.00311653
0.004759
0.00692585
0.00432447
0.0109463
0.00692214
0.00372864
0.0067273
0.00342292
0.00113872
0.00674071
0.00985167
0.00121163
0.00714594
0.012304
0.0112346
0.00703429
0.00674224
0.00437744
0.00532416
0.00362282
0.00274143
0.011562
0.00712189
0.00673176
0.00696205
0.00674522
0.00673445
0.00702295
0.00679271
0.00674977
0.00685381
0.00688726
0.00672616
0.0067098
0.00673941
0.00688155
0.00675781
0.00676804
0.00712704
0.00749966
0.0138734
0.0067704
0.00676731
0.0431896
0.0349688
0.00695651
0.0357101
0.040221
0.006755
0.00701625
0.00685364
0.00688219
0.00674751
0.00675191
0.00673643
0.00686772
0.00692135
0.00304621
0.0167958
0.0036666
0.0114824
0.00245416
0.00705834
0.00691973
0.00679582
0.0124217
0.0176941
0.00983181
0.00574285
0.00338336
0.00674944
0.00669388
0.00674389
0.0046121
0.0282073
0.00507937
0.00675103
0.00687942
0.00382595
0.00674122
0.000959585
0.00674304
0.00674321
0.00692382
0.00585319
0.00671442
0.0189186
0.00363526
0.0121668
0.00416325
0.00259648
0.00688785
0.0403917
0.00672601
0.00679137
0.00282145
0.00400009
0.00672941
0.0067549
0.00696063
0.00367881
0.00683937
0.00291632
0.00450241
0.00233733
0.0173096
0.0186624
0.00681334
0.00369737
0.00684623
0.00694332
0.00155782
0.00692465
0.0115277
0.00157841
0.00674136
0.00532885
0.00671429
0.0109172
0.00275774
0.00452277
0.0067458
0.00146258
0.00159447
0.00671723
0.00670424
0.00481354
0.00676072
0.00213249
0.0116747
0.0067246
0.00677934
0.00319891
0.00698787
0.00320313
0.00698404
0.00677663
0.00779816
0.00676504
0.00676718
0.00672854
0.0068851
0.00678243
0.00694633
0.00626776
0.00384851
0.00125743
0.00260796
0.00675631
0.00271693
0.0067895
0.0037023
0.00491153
0.00679979
0.0119155
0.00677136
0.00121411
0.0069724
0.00227436
0.00678679
0.00676604
0.00223317
0.00282676
0.00554317
0.00680373
0.00676256
0.00198087
0.00674314
0.0221941
0.0220059
0.00673198
0.00388898
0.00672922
0.00265359
0.00688766
0.00673143
0.00696736
0.00680545
0.00207417
0.0067409
0.00638367
0.0027641
0.00676453
0.00675587
0.00672565
0.00805184
0.00527936
0.00698338
0.00696663
0.0070226
0.0047285
0.00264305
0.00671585
0.00357458
0.00675532
0.0141065
0.0124732
0.00694869
0.00692679
0.00678693
0.0018953
0.00273601
0.00689027
0.0135894
0.00678067
0.00678278
0.00251949
0.00559135
0.0068311
0.00704434
0.0112107
0.00680392
0.00211737
0.00445937
0.00677137
0.017454
0.0033067
0.0144853
0.00683598
0.0230471
0.00439109
0.00656602
0.00136327
0.00683049
0.00478495
0.00130815
0.00698293
0.0032296
0.00115722
0.00672352
0.00684559
0.00678401
0.00686242
0.00688091
0.00157192
0.00674591
0.00676282
0.00325991
0.00698469
0.00699028
0.00683635
0.00405372
0.00672661
0.0030058
0.00502748
0.00676615
0.00684507
0.00701903
0.0148454
0.00681508
0.00208413
0.00670207
0.00226474
0.0181403
0.00104848
0.00201346
0.00405227
0.0070805
0.00428179
0.00692499
0.0123866
0.00699414
0.00677289
0.0129289
0.00353651
0.00561404
0.00676647
0.00178978
0.00351732
0.00594168
0.00673394
0.00781724
0.00606522
0.0144721
0.00268296
0.00681212
0.00597885
0.00672431
0.00408058
0.00698135
0.0068692
0.00712453
0.00681185
0.00294891
0.0148354
0.00569375
0.031628
0.0147432
0.00405933
0.00185685
0.0111802
0.0068298
0.0067834
0.0188244
0.0144422
0.00699305
0.00553987
0.0028977
0.00676339
0.00330413
0.00678496
0.00284583
0.00675245
0.00189701
0.00674525
0.00596604
0.00377525
0.00684134
0.0106948
0.00696855
0.0047444
0.00693186
0.00695377
0.00553508
0.00749561
0.00285221
0.00672607
0.00683137
0.00105016
0.0068067
0.00479724
0.00447545
0.00689937
0.00399951
0.00675916
0.00683575
0.0067357
0.0062285
0.00733517
0.00916362
0.00692129
0.0202086
0.00693586
0.00695101
0.00696824
0.00648529
0.00509123
0.00688242
0.0156689
0.00695158
0.00679876
0.00411393
0.00291546
0.00275802
0.0143856
0.0185269
0.00399789
0.00671919
0.00206297
0.0033848
0.00196532
0.0226923
0.0242035
0.00677094
0.00698981
0.00181648
0.00674646
0.00710476
0.0067433
0.00675241
0.00696194
0.0031417
0.00521162
0.00159459
0.00676266
0.00195707
0.00668901
0.00694647
0.00695354
0.00706311
0.00227119
0.00694544
0.0069705
0.00677084
0.00675764
0.00447038
0.0112337
0.00677972
0.00671865
0.0106393
0.00367021
0.00498889
0.00652573
0.0196
0.00697082
0.0069762
0.00382266
0.00442906
0.0068379
0.00688078
0.00683592
0.00691269
0.00679479
0.00676185
0.0119342
0.00116583
0.00685958
0.00491981
0.00150664
0.00675477
0.00527063
0.0070732
0.00370112
0.0068886
0.0062722
0.00684483
0.00677468
0.00141199
0.0067402
0.00413276
0.0142316
0.00204162
0.00675313
0.0345349
0.00413177
0.0067272
0.00680611
0.00121326
0.00676884
0.00672292
0.00671481
0.00676297
0.00702613
0.00203343
0.00174043
0.00477385
0.00680592
0.00678769
0.00680069
0.00689744
0.00671841
0.003139
0.000898699
0.00677211
0.00707
0.0263252
0.00680896
0.0111091
0.00210114
0.00689253
0.00104108
0.00197837
0.00674338
0.000835599
0.00673835
0.00351689
0.00290092
0.00925456
0.00673661
0.00677121
0.00705325
0.0248091
0.00707754
0.00605734
0.00760525
0.030471
0.00334067
0.0119503
0.00185724
0.00700536
0.00547795
0.00706167
0.0115382
0.00682196
0.0204664
0.00674669
0.0144572
0.0069285
0.00546926
0.00677937
0.000893066
0.00676304
0.00686008
0.00489429
0.0039845
0.00513037
0.00674616
0.00673188
0.00679856
0.00678943
0.0051283
0.00670774
0.0244132
0.00326812
0.00670856
0.00691489
0.00179091
0.00562128
0.00673938
0.00601128
0.00582504
0.00299731
0.00447939
0.00360423
0.0067089
0.00713485
0.00427363
0.00351963
0.0060208
0.00377991
0.0266657
0.00679015
0.00289317
0.00616379
0.00690328
0.00673377
0.00672831
0.0071463
0.0071806
0.00676637
0.00701806
0.00668408
0.00679445
0.00701531
0.00671247
0.00283952
0.00669198
0.00543173
0.00698953
0.00680817
0.00305195
0.00485162
0.00533833
0.00695731
0.00674312
0.00673424
0.00671372
0.00682781
0.00689966
0.0068597
0.00675631
0.00679112
0.00676101
0.00203966
0.00684068
0.00695899
0.00674412
0.020838
0.00671062
0.00675401
0.00128495
0.00672569
0.00684789
0.00102522
0.00687947
0.00690619
0.00695985
0.000734355
0.00672995
0.00155234
0.0317015
0.0160332
0.00843309
0.00684132
0.00674896
0.0237702
0.00720565
0.00674493
0.0118143
0.0193261
0.0347842
0.00673632
0.00110111
0.00674904
0.00674189
0.00372294
0.00671288
0.00604036
0.00758311
0.00109956
0.00673893
0.00324969
0.00463465
0.000739509
0.017917
0.00679304
0.00724021
0.00594742
0.00674939
0.00437734
0.00155452
0.0245893
0.00673282
0.0119968
0.0072134
0.0160212
0.0101332
0.00993186
0.0208442
0.00692017
0.00264646
0.0153704
0.00671162
0.00671249
0.0069593
0.00702976
0.00674771
0.00357799
0.00673607
0.0232637
0.00484795
0.0121631
0.00129224
0.00680584
0.00471398
0.00718746
0.00554286
0.00831726
0.00276445
0.000860524
0.00674872
0.0067203
0.0110953
0.00681533
0.0176218
0.00672967
0.0217955
0.00674609
0.0113466
0.0116501
0.00691944
0.0405839
0.00673803
0.00480982
0.00270509
0.00298571
0.00296671
0.00685231
0.00675626
0.00677021
0.0147922
0.0030139
0.00689849
0.00320367
0.011572
0.00675897
0.00671778
0.00703283
0.00612831
0.00475334
0.00683796
0.00685117
0.00674984
0.00798699
0.0265475
0.00890878
0.00671769
0.00671194
0.0219917
0.00671285
0.00683098
0.0016717
0.0226673
0.0108246
0.0208354
0.0067434
0.00680289
0.00448364
0.0050359
0.00343213
0.0067135
0.00109073
0.0241023
0.00673724
0.00542982
0.00674736
0.00592693
0.00609034
0.0117005
0.00254224
0.00795339
0.00674394
0.00785267
0.00647847
0.0206211
0.0155954
0.00683104
0.00173272
0.00699935
0.00332812
0.00339185
0.0218821
0.00694678
0.00089769
0.00673645
0.00590024
0.00678295
0.0066957
0.0069611
0.00671436
0.040844
0.00671288
0.00356257
0.00696616
0.00698461
0.00674922
0.00136499
0.00696592
0.00502648
0.00674959
0.00671941
0.0228992
0.0067102
0.00348305
0.00674508
0.00948292
0.00684477
0.00625453
0.00690481
0.000589394
0.00684931
0.0068267
0.00670796
0.0191441
0.0222773
0.00580541
0.0303708
0.0234895
0.00681274
0.00445562
0.0242859
0.00680269
0.011043
0.0116471
0.00130601
0.00124899
0.00373502
0.0232988
0.00417378
0.0104593
0.0242944
0.00370179
0.00682145
0.0232312
0.00418028
0.00687584
0.00288555
0.00671304
0.00698419
0.00479277
0.00690412
0.0068293
0.00505477
0.0120418
0.00327986
0.00391746
0.0157111
0.00670939
0.00685963
0.0138081
0.00315499
0.00431605
0.00681633
0.0075005
0.00674797
0.00679748
0.010571
0.00676247
0.00373491
0.023357
0.0226128
0.00695776
0.00645957
0.0143971
0.00324012
0.0215888
0.0261778
0.00688033
0.0188431
0.00647155
0.00673287
0.00677531
0.0069438
0.00703499
0.0431243
0.00701637
0.0104554
0.00707202
0.00154492
0.00560795
0.00384169
0.00780756
0.00696833
0.00159825
0.00723004
0.00682185
0.00136345
0.00758834
0.00265796
0.00696331
0.006783
0.0229331
0.00329765
0.00904197
0.00668875
0.0066801
0.00717345
0.00709484
0.00470296
0.00129614
0.022666
0.00198134
0.0116025
0.0068325
0.0021822
0.00297693
0.00421216
0.00329331
0.00674492
0.00674976
0.00345885
0.00193529
0.0330047
0.00673323
0.0166595
0.0155712
0.00689712
0.00287833
0.00502699
0.00549269
0.00682196
0.00558407
0.016954
0.00722553
0.00673563
0.00809529
0.00685103
0.00671095
0.00673418
0.0260986
0.00664009
0.00604268
0.00637217
0.00354468
0.00238952
0.00165743
0.00862353
0.00821823
0.0102111
0.00682702
0.00681858
0.0051134
0.00781849
0.00687657
0.0217215
0.0199196
0.0047878
0.00679644
0.0124049
0.00957964
0.00682052
0.0215048
0.00673098
0.0212546
0.000975697
0.00672371
0.00308434
0.0241491
0.00670607
0.00679425
0.00679205
0.0184729
0.00748542
0.00206586
0.00164565
0.0071814
0.00599977
0.0359524
0.014705
0.0069556
0.00672263
0.0433604
0.0102864
0.00672998
0.00680274
0.00686394
0.00599209
0.00684785
0.00597076
0.00323451
0.00678033
0.00418838
0.0127679
0.00629011
0.00698494
0.00253512
0.0234644
0.00680931
0.0071691
0.0118832
0.00543062
0.00679711
0.00514619
0.00673132
0.003892
0.0124085
0.00720438
0.00685572
0.0118791
0.00477551
0.00960539
0.00672726
0.00715912
0.00417453
0.00652949
0.0224872
0.00704535
0.00693155
0.00207722
0.00687952
0.00751208
0.00614166
0.00672647
0.00109398
0.00681401
0.00671051
0.0115902
0.00673686
0.0242709
0.00359915
0.00673194
0.00603189
0.00716365
0.00530661
0.00124457
0.00671439
0.0063066
0.00673119
0.00672424
0.0028249
0.00640708
0.00671932
0.00680347
0.00673226
0.00680027
0.000763131
0.00427394
0.00683643
0.0069182
0.00698193
0.00535092
0.00678808
0.00677478
0.00671773
0.00671271
0.0115903
0.00268181
0.00672433
0.0030805
0.00705034
0.0102776
0.00999169
0.00533213
0.006797
0.006729
0.000925096
0.00305521
0.00679016
0.0068547
0.0141863
0.00229703
0.00672868
0.0067064
0.00101672
0.00139704
0.00672147
0.0117029
0.00184373
0.00684189
0.0053672
0.00792874
0.00681105
0.00205088
0.00736435
0.00698617
0.00395646
0.00799477
0.00755923
0.00671291
0.00674939
0.00669794
0.00670082
0.00214958
0.00674042
0.0017997
0.0016476
0.00669534
0.00522189
0.00365352
0.00697984
0.00664341
0.00671587
0.00474702
0.0155558
0.00670392
0.00678745
0.0113045
0.00630112
0.00680331
0.00791773
0.00673956
0.00680241
0.00673015
0.00677241
0.00914047
0.00698339
0.00226883
0.0134174
0.00671535
0.00673764
0.0067095
0.00111817
0.00671769
0.00254766
0.00674608
0.00673175
0.00664422
0.00672374
0.00563103
0.00674635
0.00672864
0.0125843
0.0189888
0.00677377
0.00675285
0.00671535
0.0203354
0.00176824
0.00671498
0.0132528
0.0250983
0.00699246
0.00596496
0.0157167
0.0028957
0.0121771
0.00257424
0.00619045
0.00672773
0.0025314
0.00118606
0.00672817
0.0139761
0.040126
0.00672143
0.039833
0.0395269
0.00706105
0.0136371
0.00672439
0.00408304
0.00138475
0.00671814
0.022717
0.00673621
0.00280191
0.00152411
0.00671932
0.0104026
0.00622763
0.00679466
0.00471105
0.00529279
0.00894039
0.0412563
0.00681002
0.0040227
0.0401162
0.00672468
0.00568705
0.00672986
0.0136847
0.0195075
0.0075633
0.00695405
0.00535592
0.0320759
0.0435927
0.00569815
0.0067221
0.00672785
0.0421752
0.00396555
0.0167487
0.00339794
0.00325197
0.00607112
0.00677233
0.00689289
0.00698441
0.00328465
0.00678
0.00700857
0.0136961
0.00297537
0.00671933
0.00293605
0.00268454
0.00305072
0.0336231
0.00166756
0.0271367
0.000521472
0.00672861
0.000708819
0.000675383
0.012454
0.0137439
0.00677298
0.000840205
0.0207498
0.00138292
0.00230291
0.0126244
0.0150284
0.00672783
0.00616742
0.00557818
0.0067239
0.000933575
0.00674781
0.00701091
0.00671728
0.00675501
0.00680586
0.00676276
0.00344879
0.00618579
0.0234349
0.00436079
0.0217948
0.00673294
0.00605985
0.00680593
0.0437497
0.0146725
0.00672611
0.00132914
0.00700522
0.00670655
0.00671977
0.00672174
0.00673961
0.000616631
0.00680606
0.0177435
0.00694615
0.00671353
0.0138105
0.00686811
0.00552286
0.00671431
0.0067798
0.00429706
0.000957363
0.0143174
0.00167533
0.0246196
0.00680005
0.00600938
0.00696125
0.00538259
0.00256184
0.000891917
0.0356229
0.00672878
0.00135779
0.00494873
0.0168377
0.0418119
0.00520034
0.041428
0.0318782
0.00694881
0.00144515
0.00677531
0.00194856
0.00506595
0.000848332
0.00219714
0.00673865
0.0409171
0.00935212
0.00680304
0.00467645
0.00554128
0.00637323
0.00709009
0.00638649
0.0149612
0.00672521
0.00382232
0.00362526
0.0068499
0.0050475
0.0058158
0.0138722
0.00672459
0.0117653
0.00557762
0.00675832
0.00672634
0.00258922
0.00373431
0.0397902
0.00554471
0.00692682
0.00241458
0.00116966
0.00492362
0.00678241
0.0134239
0.00645732
0.00671276
0.00970403
0.0125143
0.00695044
0.00671788
0.00635102
0.00257887
0.00155332
0.00671296
0.0094747
0.00718089
0.00144636
0.00906067
0.0055422
0.00672666
0.000963474
0.0067252
0.00672011
0.00672634
0.000853772
0.038937
0.00724121
0.00688403
0.00584441
0.00520066
0.0163641
0.00376343
0.00696954
0.00624693
0.00672994
0.00355014
0.0284436
0.0224512
0.00672811
0.000879477
0.00671015
0.00671679
0.00707794
0.00541318
0.00150742
0.00672467
0.00887238
0.0141816
0.0365482
0.00539167
0.00679524
0.00680322
0.00156116
0.00671425
0.00679309
0.00163569
0.00681196
0.00674449
0.00426473
0.00336965
0.00674523
0.0360414
0.00258573
0.00703392
0.00512659
0.0082131
0.00498089
0.0292014
0.0067367
0.00672825
0.00678947
0.00673216
0.00678554
0.00678053
0.00668058
0.00100548
0.00680625
0.00680856
0.00678429
0.0070564
0.00325083
0.00169166
0.00507479
0.0351757
0.00672622
0.00535276
0.00703717
0.00106337
0.00677958
0.0418036
0.00676523
0.00681303
0.00668027
0.0440159
0.0042618
0.00954118
0.0409307
0.00492856
0.00678115
0.00672878
0.00674136
0.0075178
0.00680575
0.0053425
0.00479024
0.00680449
0.0018595
0.00932013
0.00417331
0.000954272
0.00683853
0.00512309
0.00673994
0.00672305
0.00671165
0.00673126
0.0137763
0.0011433
0.00672834
0.0179356
0.00357097
0.00671983
0.00230204
0.00671899
0.0016129
0.00684032
0.0067183
0.00198503
0.00681727
0.00693162
0.00263013
0.0016778
0.000896239
0.0048489
0.006727
0.00374801
0.042645
0.00573681
0.00323816
0.00601452
0.00678796
0.00674584
0.0143105
0.00686342
0.0028527
0.00780742
0.0152737
0.00680859
0.00447506
0.00683632
0.00557591
0.00173484
0.00535255
0.0017708
0.00521157
0.00556858
0.00437587
0.0115
0.00281296
0.00671822
0.00603331
0.000749811
0.00393639
0.00136647
0.00680474
0.00609299
0.00672682
0.00797901
0.0226224
0.00183989
0.00682226
0.00164224
0.00705218
0.00373915
0.00679253
0.00672973
0.0067229
0.0068277
0.00173061
0.00722721
0.00446524
0.00505916
0.00676349
0.00679903
0.00177234
0.00672412
0.00673895
0.00578004
0.0111501
0.00781694
0.00678118
0.00678174
0.00676677
0.011118
0.00453505
0.0116471
0.00680609
0.00176647
0.0067897
0.00686174
0.00280435
0.0061176
0.00377332
0.00613485
0.00674412
0.00672327
0.00347267
0.0015073
0.00616345
0.00530992
0.0221298
0.00685272
0.00398227
0.00522057
0.00684056
0.00679699
0.00492113
0.00480519
0.00672277
0.00672534
0.00671091
0.00968302
0.00330016
0.0193087
0.00681502
0.00640695
0.0171098
0.0126128
0.0172132
0.0060901
0.00202995
0.0203309
0.00682105
0.0146468
0.00568869
0.000715417
0.00673608
0.00983705
0.00405735
0.00668214
0.00287252
0.00757486
0.00398117
0.00681945
0.010738
0.00672388
0.0190145
0.00646165
0.0067352
0.00568201
0.00682282
0.00560917
0.00299753
0.00675625
0.00671624
0.00672323
0.00685842
0.00673322
0.00583026
0.0283096
0.0100011
0.00682482
0.00705098
0.00522392
0.00677362
0.00675133
0.000659333
0.00262554
0.00478313
0.00671655
0.00578185
0.00376461
0.00606
0.00992533
0.00333672
0.00671502
0.00671471
0.00604657
0.0134689
0.00685507
0.00673069
0.000968015
0.000935576
0.00207272
0.0193009
0.00674716
0.00685237
0.00684807
0.00677406
0.00626028
0.00925283
0.017557
0.00350948
0.00672898
0.0197525
0.00590716
0.00683276
0.00697167
0.00546126
0.0069977
0.00375346
0.00673673
0.00675934
0.00677524
0.00672199
0.00674299
0.00677462
0.00250737
0.0113945
0.00361598
0.00667841
0.00673647
0.00671469
0.00557983
0.00675798
0.00948346
0.00530713
0.00525373
0.00546074
0.0178938
0.00672665
0.00300605
0.0172946
0.00672358
0.00674345
0.0231562
0.00678892
0.00672509
0.00671625
0.0395393
0.00488885
0.00138057
0.00571813
0.00357804
0.00700836
0.0067113
0.00671736
0.00674348
0.00252966
0.00672595
0.00656752
0.00205551
0.00676783
0.0102726
0.00715761
0.00214339
0.00607522
0.00595985
0.005481
0.00681915
0.00671354
0.00683145
0.00680296
0.00675796
0.00990046
0.00670761
0.00264461
0.00672717
0.00687444
0.0395288
0.00673041
0.00324507
0.000815407
0.00675271
0.000990886
0.0067274
0.00679195
0.00672401
0.00587578
0.00671914
0.00676454
0.00678173
0.00681912
0.00444355
0.00680856
0.0067074
0.00564834
0.00672271
0.00672568
0.00672869
0.00673402
0.00671132
0.00671456
0.00676658
0.00672149
0.00673998
0.00508374
0.00292291
0.00691331
0.00681725
0.000977819
0.0128711
0.00683702
0.00685999
0.00671724
0.00695352
0.00674868
0.00685016
0.0143891
0.0130603
0.0067126
0.00349276
0.021212
0.00683974
0.00669363
0.00495181
0.00677913
0.0179494
0.00679224
0.0011944
0.00256599
0.0106861
0.00290893
0.0154729
0.00671554
0.00672556
0.00688535
0.00234252
0.00159972
0.00372593
0.00416967
0.0151246
0.00673329
0.0437396
0.0010815
0.00861282
0.00670994
0.00168696
0.00164737
0.00676869
0.00672903
0.00701937
0.00357091
0.00306994
0.00471391
0.00265648
0.004128
0.00930562
0.00674492
0.00678539
0.00672315
0.0111433
0.00634168
0.00694851
0.0237258
0.00832722
0.0077064
0.00673593
0.00701048
0.00673439
0.00516093
0.0067218
0.0046127
0.0017994
0.00311674
0.00188832
0.00675639
0.0168645
0.00257252
0.000807733
0.0224765
0.0214176
0.00673074
0.0067237
0.00672569
0.00635827
0.00673731
0.00670671
0.00673245
0.00172714
0.00309754
0.018694
0.0070286
0.00445863
0.00992568
0.00144341
0.0167872
0.00397525
0.00219538
0.00334226
0.0135637
0.0190571
0.00671214
0.00671232
0.00673787
0.00320036
0.00347
0.0010408
0.00687932
0.00674086
0.00679007
0.0087781
0.00672526
0.00678166
0.0067294
0.00150378
0.00672466
0.00672565
0.00671887
0.00271838
0.00255832
0.00218241
0.00324716
0.0067856
0.0271097
0.00550149
0.00684063
0.00671578
0.00654012
0.0143483
0.00684459
0.00685235
0.0354269
0.00677454
0.00672639
0.00673136
0.00684348
0.00258379
0.00671414
0.0068177
0.00672387
0.00683476
0.00677149
0.00673489
0.00671009
0.00675997
0.00681762
0.00927909
0.00671719
0.00670992
0.00142379
0.00178667
0.00227486
0.00098629
0.00672403
0.00628689
0.00671403
0.00540257
0.006723
0.0120386
0.00676805
0.0067223
0.00670734
0.0101659
0.00460569
0.00673111
0.00230807
0.00677585
0.00671241
0.00678283
0.00681528
0.0034211
0.00673681
0.00531632
0.00677967
0.00910919
0.00253301
0.00682404
0.00501413
0.00670988
0.0067361
0.00672366
0.00380282
0.00695672
0.00548646
0.0029606
0.00184316
0.00605241
0.00271078
0.0054703
0.00676976
0.00671375
0.0374634
0.00956136
0.00671152
0.00264728
0.00677591
0.00673255
0.0135609
0.0067386
0.00677446
0.00642674
0.0014064
0.0101765
0.0068045
0.00672635
0.00451924
0.00672868
0.0069213
0.00236426
0.00678198
0.00488443
0.00257607
0.00289953
0.00673563
0.00428303
0.00672238
0.00679521
0.00862107
0.00680145
0.0067226
0.00216119
0.00672385
0.00511261
0.00681946
0.00399375
0.0070586
0.0147774
0.00395712
0.00686791
0.00118255
0.0214273
0.00679151
0.00760765
0.00686459
0.0067733
0.00682059
0.00674646
0.00704677
0.00815357
0.00578135
0.00677409
0.00702821
0.00683376
0.00669617
0.00674073
0.00680773
0.00530925
0.00670576
0.00679325
0.00634269
0.00684714
0.00299923
0.00672023
0.005909
0.00135793
0.00548621
0.00670293
0.0118449
0.010628
0.00476505
0.0025007
0.00103454
0.00674045
0.00456056
0.0144378
0.0200715
0.012827
0.0121878
0.0123762
0.0067837
0.0188769
0.00474979
0.00684477
0.00473576
0.0050276
0.0175814
0.00692188
0.00324667
0.0048531
0.00675824
0.00160609
0.00680073
0.00682727
0.0124883
0.00214401
0.00675173
0.00674139
0.00678989
0.00318645
0.00676279
0.00675059
0.00672463
0.00671593
0.00672715
0.00378901
0.00569831
0.00672179
0.00683171
0.00215611
0.00789058
0.0229262
0.00678157
0.00676739
0.00345864
0.00676782
0.00672472
0.00671189
0.0278519
0.00677759
0.00164961
0.00672106
0.00685078
0.00671022
0.0067907
0.00584285
0.00578073
0.00671118
0.00688292
0.0193875
0.00575774
0.00489574
0.0121997
0.00680671
0.00217712
0.00672863
0.00669423
0.0067553
0.00671644
0.00672681
0.00673398
0.00684332
0.00494178
0.00677854
0.0127912
0.0205426
0.00679319
0.00630964
0.00169344
0.00518494
0.00672477
0.00671455
0.00691463
0.00677343
0.0230807
0.00672518
0.00678684
0.00669662
0.0067311
0.00674417
0.0067137
0.000589755
0.00673678
0.00673164
0.0248704
0.00672079
0.00671323
0.00675553
0.00364615
0.00673766
0.00668969
0.00672755
0.00679809
0.0150963
0.00856079
0.00673306
0.0102598
0.00670759
0.0067615
0.00702085
0.0120933
0.0162172
0.00670935
0.00556265
0.00674779
0.00673829
0.00676163
0.00672393
0.0170144
0.0221309
0.00679615
0.00523643
0.008851
0.00670949
0.00674455
0.00691096
0.00199696
0.0253492
0.00679811
0.00287405
0.0147431
0.00673441
0.00705765
0.0115361
0.00296023
0.00685793
0.0067336
0.00689393
0.00677608
0.0067224
0.0165608
0.00674072
0.0154023
0.0123023
0.00547082
0.00703396
0.0187045
0.00743133
0.00588045
0.00868957
0.00933558
0.00267912
0.00672812
0.00688157
0.019091
0.00670629
0.00526407
0.0067287
0.00672896
0.00668833
0.00670235
0.00673205
0.0155647
0.00686061
0.0138328
0.0117007
0.000926758
0.00819626
0.00670128
0.00672311
0.00461623
0.0125313
0.00672397
0.0184614
0.007847
0.00671831
0.00672242
0.0174593
0.00673058
0.00742235
0.0132015
0.00672725
0.0217692
0.00552597
0.00382934
0.00203591
0.00673361
0.0067153
0.00282848
0.00183991
0.00678851
0.0039066
0.00669092
0.00757277
0.00672593
0.0108101
0.00674532
0.00684151
0.00185183
0.00670875
0.0206085
0.0067355
0.00671408
0.00678894
0.0154995
0.00674243
0.00672864
0.0197878
0.0021259
0.0123455
0.00683685
0.00671243
0.00379944
0.0192621
0.0170535
0.00236273
0.00277077
0.00321837
0.00685482
0.0067408
0.00647079
0.00590311
0.00678564
0.00670758
0.00614967
0.00701081
0.0067262
0.00667836
0.00684715
0.00671254
0.00692315
0.00676614
0.00544578
0.016717
0.0074301
0.00595058
0.0196117
0.00672713
0.00672294
0.0047766
0.00157654
0.00676272
0.00683396
0.00672047
0.00675343
0.00672987
0.00139257
0.0067948
0.00613689
0.00672463
0.00676591
0.0115008
0.00160502
0.00685798
0.0067589
0.00672802
0.0228078
0.0137389
0.00683795
0.00670776
0.00793719
0.00672624
0.00673166
0.00673012
0.000674233
0.00671194
0.00672326
0.00469354
0.00671269
0.00117027
0.0070526
0.00673707
0.00675869
0.0188132
0.00583628
0.020018
0.0193702
0.00706233
0.00687909
0.00678291
0.00671987
0.00745578
0.00674647
0.019029
0.0126567
0.0037486
0.0028255
0.0172416
0.00675249
0.00855826
0.00702621
0.0332556
0.00789999
0.00672629
0.00673469
0.00594886
0.00672471
0.00522951
0.0220985
0.00600754
0.00678094
0.00675952
0.0067197
0.00529131
0.00700814
0.0142941
0.00672172
0.00686932
0.00617131
0.00676744
0.0130646
0.00576526
0.00673098
0.00682926
0.0066902
0.00679837
0.015
0.00275239
0.00672345
0.00674606
0.0067333
0.0183494
0.00672177
0.00504764
0.00106414
0.00352537
0.0311399
0.00517767
0.0126826
0.00672291
0.00309655
0.006801
0.00675696
0.00488196
0.0093786
0.00671026
0.00676942
0.00606001
0.00679862
0.00698165
0.020459
0.00680746
0.00678253
0.00617095
0.00106377
0.00674397
0.00670301
0.00136547
0.00825984
0.00262124
0.00326376
0.00801672
0.0227984
0.00670949
0.00525987
0.00462244
0.00269063
0.0143942
0.0077359
0.0263397
0.00954856
0.0228705
0.00671659
0.00670875
0.00673789
0.00677822
0.00848911
0.00671924
0.00132404
0.0069049
0.0069938
0.00681712
0.0222048
0.00671498
0.010044
0.00525577
0.00744825
0.00414877
0.00488306
0.0107908
0.0066824
0.00156484
0.00676524
0.0104104
0.00683857
0.0018366
0.00807281
0.00486094
0.0139541
0.0067223
0.0122003
0.00706354
0.00585781
0.00677607
0.0189554
0.00686248
0.00671866
0.00672439
0.01403
0.00682812
0.00702829
0.00648385
0.00552025
0.00312816
0.00670581
0.00673043
0.0139484
0.00264879
0.0183503
0.00364693
0.00676309
0.011303
0.0244138
0.00135758
0.00672684
0.00636986
0.0141705
0.00672356
0.00708003
0.00669331
0.0145252
0.0226429
0.018856
0.00630404
0.00671851
0.00671936
0.00643261
0.00669882
0.00738258
0.00703576
0.00521974
0.00673515
0.00151017
0.00703585
0.00687007
0.00825568
0.0158987
0.00978464
0.00824692
0.00770757
0.00764412
0.00352505
0.00673117
0.0137317
0.00671444
0.00228813
0.017564
0.00698946
0.014567
0.0067061
0.00678042
0.00674152
0.0067177
0.00672913
0.00675689
0.00668755
0.00652899
0.00705569
0.0067296
0.00457323
0.0067406
0.00689358
0.00671864
0.0176588
0.00688205
0.00350369
0.00649292
0.00673295
0.00670635
0.00669112
0.0211322
0.00677528
0.0102661
0.0297042
0.00689441
0.00674472
0.00396685
0.00386733
0.00635184
0.00673361
0.00671514
0.00696361
0.00348664
0.00493875
0.00627781
0.00665214
0.00729351
0.00631527
0.00701408
0.00467093
0.00675013
0.0019076
0.00671168
0.0147668
0.00673715
0.00671658
0.00672085
0.00675828
0.00675216
0.00671298
0.00673393
0.00671606
0.00706557
0.00636011
0.00641747
0.00694594
0.00508434
0.0059221
0.00671803
0.00671552
0.00346687
0.00499617
0.00734686
0.00671171
0.00698617
0.00670855
0.00672499
0.0143017
0.00672929
0.00671005
0.00109836
0.0047971
0.000936608
0.00672575
0.00364053
0.00682402
0.00337252
0.000160017
0.00687226
0.00617433
0.00671799
0.00670659
0.00759917
0.00670557
0.00130514
0.00300123
0.00159845
0.00704966
0.0129011
0.00694253
0.00674695
0.00695566
0.00671625
0.0029899
0.000949625
0.00671992
0.00953386
0.00641635
0.00668484
0.00672352
0.00674307
0.00233099
0.00300565
0.00688783
0.0183847
0.0120748
0.00677119
0.0162177
0.00677628
0.00774585
0.00396912
0.00626614
0.00541282
0.00668362
0.0118388
0.00163592
0.00671687
0.0192743
0.0136317
0.00209007
0.00667746
0.00166686
0.00671051
0.00671687
0.0225098
0.0286258
0.00671458
0.00701344
0.00809796
0.006744
0.00700317
0.00672682
0.00552639
0.0135066
0.00491861
0.00681058
0.0161085
0.0053949
0.0113613
0.00947316
0.00688247
0.0177445
0.00670899
0.0186375
0.00393206
0.00693679
0.0142581
0.0068597
0.00625811
0.00673385
0.0262374
0.00674926
0.00694656
0.00669931
0.00679944
0.00672769
0.00684406
0.0277154
0.020236
0.00671034
0.0279463
0.0189027
0.00670528
0.0067062
0.0124002
0.0117209
0.00730783
0.0084852
0.0117109
0.00670905
0.00676909
0.0143629
0.00748115
0.0129275
0.00444737
0.00670887
0.00676528
0.00699657
0.00669797
0.00672246
0.00147565
0.00671508
0.0159085
0.00671884
0.00673454
0.00179936
0.00668526
0.00169855
0.0277636
0.00677244
0.00671973
0.00672019
0.00518013
0.00667744
0.00672607
0.00225681
0.0089181
0.00450893
0.00692235
0.00176663
0.00670859
0.00690347
0.00672592
0.011293
0.0114847
0.0114941
0.0123954
0.00212651
0.00693588
0.000769887
0.00672014
0.00703696
0.00667899
0.00669435
0.00801964
0.00671888
0.0125653
0.0185274
0.00599499
0.0140942
0.00739233
0.0149181
0.0073752
0.00671651
0.0113926
0.00501469
0.0102738
0.00675331
0.00671044
0.00669912
0.0025622
0.013133
0.00688625
0.021675
0.00671132
0.0372739
0.00670963
0.0142064
0.0120923
0.00671774
0.00709761
0.00687544
0.0274922
0.0228848
0.00679539
0.0066799
0.00634501
0.00774229
0.0113365
0.00681462
0.00692425
0.0116372
0.018991
0.0067238
0.00703993
0.00672888
0.00705173
0.00685783
0.00831782
0.00670463
0.00702062
0.00989084
0.00672329
0.00671774
0.0129403
0.0107242
0.00680137
0.00683955
0.00644404
0.00670737
0.00672078
0.00877417
0.0225042
0.00678082
0.0069806
0.00672082
0.00672032
0.00672173
0.00673784
0.0103165
0.0182459
0.00806473
0.00977783
0.00670499
0.00758721
0.00670616
0.00700967
0.0060911
0.00697664
0.0124684
0.00671612
0.0129391
0.00683147
0.0106948
0.014142
0.00690889
0.00670888
0.00180174
0.00157405
0.00364195
0.0196189
0.0107083
0.0107318
0.0070137
0.0067158
0.0124554
0.0067165
0.0119185
0.00672449
0.0112382
0.00194769