/*--------------------------------*- C++ -*----------------------------------*\
| =========                 |                                                 |
| \\      /  F ield         | OpenFOAM: The Open Source CFD Toolbox           |
|  \\    /   O peration     | Version:  v2012                                 |
|   \\  /    A nd           | Website:  www.openfoam.com                      |
|    \\/     M anipulation  |                                                 |
\*---------------------------------------------------------------------------*/
FoamFile
{
    version     2.0;
    format      ascii;
    class       volScalarField;
    location    "200";
    object      omega_0;
}
// * * * * * * * * * * * * * * * * * * * * * * * * * * * * * * * * * * * * * //

dimensions      [0 0 -1 0 0 0 0];


internalField   nonuniform List<scalar> 
9793
(
0.0734791
0.256159
0.0730396
0.0210195
1.57869
0.0228261
0.0220457
0.0208046
0.0216558
1.68306
0.0484538
0.347001
0.0210724
0.0210786
0.0231242
0.0208731
0.0218954
0.0225301
0.326512
0.0210735
0.0596943
0.0239155
0.283672
0.0195988
0.0221786
0.0211843
0.0211389
0.0209858
0.0423723
0.0216461
0.0340656
0.266102
0.213844
0.0220564
0.0470792
0.0748987
0.0226724
0.0238739
0.0209051
0.0211344
0.0337992
0.0231495
0.0222768
0.0221631
0.0222949
0.021395
0.0452996
0.272965
0.719812
0.0209894
0.0481927
0.0535894
0.0231471
0.0217302
1.56061
0.0648769
0.021451
0.0774221
0.291485
0.0208856
0.0218414
0.0232038
0.517087
0.0219649
1.58776
0.23906
0.507254
0.686375
0.271922
0.0483282
1.64243
0.0208211
0.0211443
0.249825
0.0527731
0.23774
0.0214468
0.0205063
0.0217809
0.0211437
0.242257
0.0218271
0.256333
0.2465
0.0305615
0.279327
0.0213764
0.0214447
0.0226304
0.0221341
0.257369
2.01764
0.0204883
0.290599
0.0228981
0.230054
0.0849262
0.257556
0.0204337
0.0202763
0.0202591
0.0217939
0.0204697
0.0204479
0.0204222
0.0303183
0.0224627
0.0218985
0.0228018
0.248967
0.0209914
0.0608843
0.0214261
0.105789
0.0533881
0.0214564
0.279274
0.051262
0.0221736
0.2818
0.243853
0.022447
0.021353
0.0231167
0.0221859
0.0607493
0.0345188
0.280217
0.0225632
0.0211698
0.0213688
0.0214548
0.0211702
0.0220346
0.0216048
0.021445
0.0223315
0.021976
0.0214174
0.0200001
0.0213409
0.0220497
0.0212387
0.0203017
0.0213376
0.0220137
0.238659
0.0203102
0.0204324
2.0466
1.81005
0.021359
1.82861
1.79034
0.0204018
0.0219137
0.020743
0.02194
0.0202699
0.0211839
0.0208069
0.0209823
0.0205523
0.148124
0.250673
0.0639348
0.272801
0.0275442
0.0209503
0.0212723
0.0212351
0.38053
0.251364
0.3276
0.0220865
0.191121
0.0214542
0.0195922
0.0211894
0.0279395
3.22898
0.0226054
0.020287
0.0220653
0.12643
0.0211285
0.0980887
0.0211826
0.0213275
0.0205628
0.022095
0.0213374
0.726476
0.0598277
0.683656
0.0276037
0.179277
0.0211344
1.7859
0.0200795
0.0215974
0.106869
0.0832903
0.0211764
0.021458
0.0201813
0.0694489
0.0203786
0.027311
0.0229772
0.0317988
0.695338
0.741214
0.0217694
0.328406
0.020631
0.0214459
0.142838
0.0201536
0.805509
0.0692612
0.0213892
0.0221949
0.0213393
0.271117
0.118526
0.022864
0.0203952
0.0679307
0.0426407
0.0196384
0.0195988
0.0226639
0.0202397
0.038966
0.793564
0.0213987
0.0211454
0.082283
0.021522
0.0271294
0.0210001
0.0211041
0.221972
0.0211037
0.0204144
0.0207886
0.0219223
0.0204502
0.0218845
0.0219039
0.0248646
0.0508892
0.0367806
0.0210505
0.0247078
0.0212046
0.0252312
0.022922
0.0203077
0.222467
0.0211219
0.0508355
0.0217387
0.028031
0.0198066
0.0197687
0.0317658
0.105076
0.0221652
0.0203262
0.0201244
0.0284578
0.0214106
0.256842
0.256276
0.0211798
0.0634331
0.0213792
0.0366649
0.0218293
0.0196769
0.0223459
0.0210021
0.0344426
0.021385
0.021891
0.0267022
0.0211379
0.0214489
0.0214068
0.257122
0.0223166
0.0227917
0.0214325
0.0220104
0.0224352
0.0273256
0.0212543
0.252928
0.0204189
0.464403
0.331036
0.0223421
0.0221314
0.0203153
0.02928
0.0257158
0.0217226
0.454684
0.0217748
0.0203024
0.0259237
0.0220568
0.0216334
0.0217196
0.275651
0.0211545
0.0274211
0.0230483
0.0210408
0.250624
0.249065
0.242533
0.0199657
3.29022
0.0226065
0.37227
0.0606431
0.0202735
0.0234094
0.0587242
0.0215789
0.0255301
0.0561953
0.0207591
0.0221428
0.021568
0.0211857
0.0210568
0.0963885
0.021183
0.02102
0.223869
0.0215656
0.0208481
0.0199425
0.0229064
0.0207768
0.235949
0.0223044
0.0214117
0.0217967
0.0217591
0.441871
0.0216916
0.0331001
0.019604
0.0354312
2.04201
0.10356
0.0370228
0.0227766
0.0226943
0.368408
0.0218872
0.230342
0.0215271
0.0202947
0.346855
0.0252541
0.514624
0.0214156
0.0411274
0.0748923
0.0232773
0.0211069
0.237381
0.0260367
0.244964
0.0247459
0.0216489
0.325611
0.0212847
0.0228139
0.0219414
0.0214132
0.0211623
0.0216916
0.0242429
0.444364
0.0219291
2.00314
0.309174
0.317478
0.0427722
0.213595
0.021056
0.0215655
1.89493
0.295299
0.0210491
0.0220121
0.128117
0.0201202
0.106271
0.0211669
0.024289
0.02009
0.0335589
0.0211747
0.0265794
0.0654243
0.0203956
0.254861
0.0255565
0.0224441
0.0256354
0.0213506
0.0222588
0.0220303
0.0828454
0.0213533
0.0216666
0.0558001
0.0216175
0.0228741
0.0226133
0.0204643
0.0288255
0.0212003
0.0216753
0.0200158
0.0519391
0.0217044
0.0635506
0.0213116
0.709769
0.0231989
0.021419
0.0225465
0.0219323
0.18224
0.0211021
2.10805
0.0206785
0.021252
0.0228112
0.126891
0.0355635
2.07064
0.706546
0.0231456
0.0212722
0.0370938
0.0287112
0.0327144
0.256543
0.447875
0.0216626
0.023955
0.0415362
0.0213619
0.0221234
0.0213384
0.0204594
0.0222363
0.0894771
0.0267186
0.218096
0.0204877
0.02975
0.0195734
0.0218781
0.0215685
0.0218593
0.0372911
0.0214178
0.0232728
0.0201105
0.0214404
0.0233737
0.246985
0.0212608
0.0212698
0.297338
0.0240353
0.022311
0.430995
0.714782
0.0216979
0.0221453
0.0230159
0.0234185
0.0217003
0.0225551
0.0221917
0.0212278
0.0212317
0.0210673
0.208311
0.055875
0.0207565
0.147136
0.0357096
0.0203458
0.0223563
0.0218477
0.0594778
0.0218159
0.484989
0.020326
0.0211133
0.0467797
0.0213157
0.0321576
0.367686
0.0282782
0.020333
2.00525
0.0238611
0.0205579
0.0212823
0.0454294
0.0209688
0.0205441
0.0212766
0.0209584
0.234854
0.0387715
0.0346936
0.0225654
0.0212389
0.0210899
0.0215595
0.0209064
0.0212929
0.0506642
0.106231
0.0201551
0.0232973
2.12533
0.0213813
0.25311
0.0342856
0.020789
0.0513493
0.243407
0.0214041
0.13801
0.0196928
0.0926284
0.0262792
0.420411
0.021122
0.0210852
0.0218947
0.262607
0.0228261
0.383873
0.231195
1.69223
0.0329098
0.614313
0.0326621
0.0231525
0.0294972
0.0230181
0.223788
0.021684
0.690925
0.019984
0.281319
0.0221725
0.0221683
0.0210636
0.131945
0.0200532
0.0208893
0.022697
0.023386
0.0272859
0.0211566
0.0212766
0.021354
0.0213272
0.463511
0.0209854
0.442523
0.108759
0.0209977
0.0219926
0.0304923
0.0220151
0.021331
0.0219643
0.0233173
0.0262595
0.0224862
0.0233858
0.0205027
0.0220845
0.0225335
0.0254517
0.0219625
0.0230852
0.729401
0.0213706
0.0892807
0.0254719
0.0221677
0.0212879
0.0207329
0.0228072
0.0232542
0.0210937
0.0211805
0.0195464
0.0211198
0.0211559
0.0211808
0.0242988
0.0198847
0.0221696
0.0222434
0.0216497
0.0239754
0.0225619
0.0304181
0.0225203
0.0210328
0.0212983
0.0205392
0.0201101
0.0210767
0.0201784
0.0210018
0.0213821
0.0200346
0.0345672
0.0211577
0.0224038
0.02137
0.695314
0.0210418
0.0200825
0.0473681
0.0196748
0.0216244
0.138346
0.0222006
0.0226058
0.0214676
0.0784737
0.0207454
0.0441553
1.64293
0.400386
0.318091
0.0215527
0.0213817
0.443099
0.0222323
0.0200426
0.219556
0.689862
2.1748
0.0213097
0.0490688
0.0213841
0.0213624
0.0990706
0.0211955
0.0442732
0.0248509
0.0552622
0.0210186
0.0243778
0.0224179
0.135847
0.940029
0.0212052
0.0234056
0.0265986
0.0209881
0.0231621
0.0446743
3.07946
0.0210952
0.261151
0.0222605
0.398465
0.23763
0.276912
0.308311
0.0212333
0.0279822
0.516353
0.0210425
0.0211674
0.0223581
0.0220785
0.0200189
0.0737202
0.0200029
0.442294
0.0233216
0.285777
0.0482063
0.0215848
1.63209
0.0698238
0.0221098
0.385513
0.0272764
0.0601935
0.0200338
0.0196645
0.217166
0.0213656
0.911386
0.0209899
0.315576
0.020527
0.261448
0.23488
0.0212192
2.10298
0.0214278
0.0227811
0.0342443
0.135741
0.132769
0.0202103
0.0205488
0.0201195
0.386355
0.171072
0.0228979
0.0245862
0.267316
0.0200771
0.0210012
0.0222103
0.0447739
0.025637
0.0214481
0.0210085
0.0208453
0.295448
2.12088
0.193886
0.020546
0.0209374
0.694737
0.0211806
0.365898
0.0414554
0.442379
0.2537
0.311621
0.0208998
0.0215896
0.0239533
0.0224767
0.0257323
0.0212263
0.0488837
0.436227
0.0204697
0.0527334
0.0208322
0.055411
0.0217649
0.26207
0.0254301
0.023284
0.0211117
0.0227369
0.153535
0.42574
0.519571
0.0214599
0.0347646
0.0213677
0.0232808
0.0247606
3.26512
0.0245468
0.0601432
0.0208844
0.0268862
0.0211747
0.0199114
0.0220605
0.0209658
1.86153
0.0211545
0.0234819
0.0225945
0.0217905
0.0200033
0.0527566
0.0217359
0.0223095
0.0209182
0.0210121
0.321219
0.0210541
0.0572067
0.0204894
0.247151
0.0209932
0.0408312
0.0212167
0.121935
0.0217204
0.0214039
0.0208947
0.308664
0.32042
0.0576207
2.65382
0.680124
0.0213473
0.0238421
0.261946
0.0201199
0.225186
0.21898
0.0522788
0.183275
0.0232628
0.321622
0.023961
0.134348
0.259503
0.0232176
0.0217297
0.321958
0.361847
0.0242567
0.0243236
0.0212105
0.0226669
0.0316784
0.0210509
0.0200853
0.0225397
0.267715
0.0342257
0.0231402
0.392834
0.0209133
0.0202051
0.280083
0.08599
0.0322384
0.0220627
0.17239
0.0205603
0.0200946
0.297795
0.0200192
0.0230562
0.321653
0.319792
0.0213766
0.0609625
2.27858
0.0531967
0.426905
3.18327
0.0225257
0.740814
0.0218724
0.0208716
0.0213859
0.0217876
0.0215074
2.36277
0.0222848
0.297729
0.0216458
0.0409146
0.0220636
0.0321991
0.0245085
0.0215823
0.0413909
0.0212552
0.0201211
0.0762596
0.0240238
0.029955
0.0214709
0.020192
0.321884
0.102143
0.0210453
0.0195661
0.0195518
0.0212042
0.0224912
0.389153
0.0751683
0.424508
0.0336125
0.218486
0.021581
0.0287589
0.0252527
0.0243701
0.179868
0.0211239
0.0210352
0.0644754
0.0348982
2.99448
0.0210756
0.406705
0.289374
0.0243759
0.0357668
0.0236968
0.54075
0.0215611
0.0252572
0.302111
0.0232103
0.0210885
0.189087
0.0217865
0.020515
0.0210086
2.69263
0.0218627
0.025449
0.048268
0.0349836
0.025959
0.0347519
0.240537
0.245776
0.263314
0.0201562
0.021608
0.0223547
0.0246379
0.0213841
0.672635
0.304853
0.0237138
0.0416117
0.260936
0.34957
0.0216465
0.311989
0.0212657
0.320071
0.0573299
0.020638
0.136459
0.446441
0.0208675
0.0215347
0.0214442
2.99168
0.048172
0.0282694
0.0444321
0.203917
0.091308
2.87488
0.287604
0.0213882
0.0213991
2.27203
0.336127
0.021102
0.0213141
0.0202175
0.0219734
0.0216641
0.0249985
0.0818872
0.0213041
0.024054
0.496308
0.0218237
0.0216425
0.025293
0.688474
0.0216174
0.0237456
0.284557
0.0221051
0.0202009
0.0222122
0.0209365
0.0229851
0.249802
0.267225
0.0219017
0.283654
0.0258899
0.212914
0.0213634
0.0227326
0.0227733
0.0218745
0.318793
0.0217802
0.0223119
0.0282808
0.0222913
0.0228187
0.0252966
0.0212342
0.0910931
0.0215746
0.0210543
0.466225
0.0211009
0.739955
0.0268841
0.0209891
0.0560103
0.0232817
0.0306914
0.0606046
0.0202343
0.0494151
0.0209956
0.0213889
0.139701
0.369951
0.020252
0.0215532
0.0207069
0.0217932
0.0623345
0.0226033
0.021581
0.0221447
0.0224703
0.0222953
0.0213102
0.0203372
0.02097
0.0211954
0.386249
0.0248332
0.0200546
0.0357388
0.022154
0.34234
0.238479
0.0304834
0.0215297
0.0212549
0.0576387
0.0239514
0.021453
0.0217832
0.277122
0.26552
0.0213737
0.0198465
0.0529668
0.050315
0.0196452
0.148339
0.0380466
0.0214855
0.0221338
0.0265375
0.021725
0.0296268
0.3161
0.0220958
0.0628348
0.0282009
0.196337
0.0198478
0.0213735
0.0198689
0.0198489
0.277048
0.0210968
0.0357968
0.0445424
0.0198559
0.0222166
0.03027
0.021639
0.0217851
0.0213898
0.0225638
0.479864
0.0198638
0.0215522
0.216377
0.0223965
0.0217163
0.0232127
0.0211147
0.0217473
0.0212068
0.0215331
0.0221306
0.0216965
0.12764
0.65545
0.0198654
0.0214372
0.0198632
0.073194
0.0210221
0.0253267
0.0213178
0.0202146
0.0291251
0.0204495
0.0285052
0.0214239
0.020464
0.267603
0.419055
0.0217633
0.0216233
0.0209682
0.421175
0.0698712
0.0213915
0.294721
0.737546
0.0220532
0.140194
0.292151
0.0248641
0.250149
0.0390942
0.0443567
0.0212145
0.0296876
0.0918569
0.0204133
0.283858
2.66522
0.0213915
2.65399
2.62719
0.0239641
0.265909
0.019857
0.027409
0.0453635
0.0212544
0.320483
0.019863
0.0371748
0.0647043
0.0198516
0.566852
0.021941
0.0219573
0.0316841
0.0240244
2.88326
2.11675
0.0202481
0.0247838
2.66402
0.0207385
0.0247146
0.0208456
0.266614
0.699074
0.0224362
0.0217186
0.0248435
2.96446
2.37222
0.0280839
0.0198701
0.0209228
2.12574
0.0301828
0.41055
0.0235263
0.0235665
0.0259637
0.020158
0.0224048
0.0244629
0.023634
0.0209559
0.0243172
0.267681
0.0593641
0.0209813
0.827365
0.0248582
0.0592133
3.00618
0.0418323
0.728569
0.251123
0.0198761
0.0978186
0.105909
0.387773
0.279424
0.0212822
0.118284
0.318908
0.0435174
0.026583
0.253441
0.286468
0.02109
0.0254168
0.0245791
0.0212331
0.0558462
0.0212991
0.0220236
0.0206419
0.0198942
0.0218555
0.0213902
0.0232496
0.0252999
0.437621
0.0245037
0.320607
0.0208599
0.02599
0.0216482
2.17259
0.514179
0.021204
0.0455577
0.0218091
0.0202274
0.0213023
0.0201955
0.0210849
0.0690367
0.0217154
0.264598
0.0213725
0.020957
0.296158
0.022512
0.0219726
0.0211413
0.0212866
0.02892
0.0556279
0.376909
1.41646
0.692777
0.0215919
0.0218797
0.0218544
0.0244149
0.038928
0.0635527
1.98289
0.0209935
0.0435182
0.0224837
0.26072
2.55821
0.0247068
2.54799
1.94977
0.0227226
0.0416283
0.0209757
0.040641
0.0230484
0.0735096
0.0397011
0.0198823
2.53065
0.248975
0.0217923
0.0230875
0.0221333
2.18934
0.0214427
0.0218892
0.449505
0.0208386
0.101743
0.0271117
0.0239646
0.0224124
0.022005
0.603127
0.0211609
0.386697
0.0245468
0.0213249
0.0207506
0.0418371
0.0230319
2.05712
0.022596
0.0245301
0.0261326
0.0646337
0.0233136
0.0213598
0.260409
0.0218014
0.0204381
0.0372107
0.228808
0.024417
0.0205341
0.0223721
0.125728
0.0616091
0.0211668
0.235386
0.0212282
0.101183
0.0356969
0.0221822
0.0211312
0.0817233
0.0209769
0.0207667
0.0213806
0.0662313
2.04515
0.0325703
0.0243045
0.0219384
0.0222879
0.299445
0.0302348
0.021763
0.0218476
0.0210519
0.0574144
1.924
1.92644
0.0212444
0.123755
0.0202238
0.0201793
0.0226748
0.0222353
0.0410659
0.0213617
0.0390673
0.308118
2.85059
0.0244002
0.0215684
0.0216201
0.0396486
0.0206267
0.0212838
0.0361574
0.0215771
0.0212849
0.0225979
0.0243451
0.020093
2.8828
0.0378977
0.0240051
0.0238769
0.0333834
0.0235695
2.01636
0.0213842
0.0212736
0.0215459
0.021064
0.0215205
0.0209559
0.967951
0.074862
0.0216824
0.022103
0.0212583
0.0239738
0.0235819
0.0519613
0.0224237
2.85902
0.0213167
0.0221322
0.0212925
0.0665322
0.0215409
2.5612
0.021526
0.0216131
0.0195604
2.2832
0.0238382
0.0360009
2.06158
0.0222702
0.0215329
0.0211452
0.0214239
0.0304544
0.022034
0.0253211
0.315434
0.0216795
0.061315
1.74216
0.0242358
0.087468
0.0216266
0.0238853
0.0210082
0.0203972
0.0202366
0.0213681
0.239312
0.0822817
0.0208633
0.669896
0.0588878
0.0212627
0.0660981
0.0203685
0.0359532
0.0222171
0.0210327
0.0772121
0.0215678
0.0226478
0.0254205
0.0557647
0.0628928
0.0223288
0.0209887
0.0229713
2.26562
0.0496814
0.0338334
0.0262319
0.0215143
0.0214323
0.308063
0.0218336
0.0300299
0.0365805
0.472034
0.0215417
0.033177
0.02157
0.0220541
0.0347142
0.0304325
0.0341588
0.0224078
0.0221344
0.0265549
0.369408
0.0430768
0.0204375
0.0251317
0.0732772
0.0242371
0.0409622
0.0217572
0.0219542
0.0213538
0.0261996
0.692907
0.0566638
0.0215544
0.0817885
0.0240087
0.0274359
0.0215724
0.0213565
0.0213709
0.0201289
0.0517588
0.0232797
0.022979
0.0224234
0.0213821
0.0215222
1.07054
0.0214185
0.0214126
0.0220143
0.513604
1.13482
0.0214954
0.0211866
0.0215192
0.153262
0.022408
1.62986
0.0215493
0.0483755
0.0215069
0.0217642
0.0408267
0.0218842
0.0319244
0.0218891
0.0214571
0.0203845
0.0232135
0.14713
0.0219576
0.0222952
0.32265
0.021649
0.0227877
0.0223499
0.0217355
0.0212674
0.0223366
0.199629
0.020782
0.0208492
0.0209563
0.138031
0.025303
0.366055
0.0216125
0.0218814
0.679214
0.273094
0.244392
0.0258023
0.0310653
0.277701
0.0216047
0.301315
0.0221402
0.0965759
0.0209949
0.0389032
0.0264856
0.0195709
0.0248523
0.0240935
0.0227991
0.0199888
0.382017
0.0209167
0.264416
0.0218425
0.0214082
0.022036
0.0200387
0.0220564
0.176245
0.0213756
0.0211491
0.0211494
0.0217017
0.0213885
0.0443609
0.69311
0.276779
0.0215987
0.0209329
0.0242489
0.0215252
0.02135
0.0844306
0.0371506
0.0225237
0.021327
0.0493842
0.0234916
0.0513715
0.351991
0.0234915
0.0203381
0.0212927
0.0291478
0.521142
0.0215336
0.0212364
0.0246682
0.122415
0.0403574
0.572871
0.0213254
0.0240656
0.0238432
0.0200212
0.0219549
0.092679
0.408411
0.0720934
0.0212837
0.669427
0.0219556
0.0215802
0.0244645
0.022185
0.0244349
0.0360481
0.0212536
0.0215128
0.0213634
0.0209046
0.0200517
0.0211622
0.0265642
0.181623
0.0419873
0.0195624
0.0200665
0.0212797
0.022084
0.0213633
0.0398566
0.0222368
0.0222865
0.0222316
0.2523
0.0212639
0.0242725
0.734351
0.0213157
0.0213014
1.89789
0.0212375
0.0213712
0.0212349
2.4754
0.0357504
0.0414765
0.0220383
0.0684522
0.0207765
0.0201656
0.0204484
0.0212738
0.0353821
0.0212824
0.021772
0.0396915
0.0213906
0.0799255
0.0238054
0.0308398
0.0219331
0.0434592
0.0294333
0.0215635
0.0211417
0.022026
0.0216502
0.0213529
0.118872
0.0209758
0.0415031
0.021184
0.0216574
2.18243
0.0210822
0.113178
0.0657216
0.0213252
0.0933395
0.021164
0.0218909
0.0212635
0.0220174
0.020755
0.0213666
0.0213348
0.0214111
0.533836
0.0215833
0.0209714
0.02205
0.0208243
0.0212235
0.0212256
0.0214323
0.0205259
0.0213143
0.0212959
0.0213807
0.0212776
0.0222438
0.140035
0.0214426
0.021965
0.100369
0.160029
0.0207671
0.0277959
0.0209906
0.0213383
0.0213106
0.021497
0.510964
0.19712
0.0211214
0.0232898
0.317349
0.0216792
0.17314
0.331478
0.0200605
0.74801
0.0215414
0.0324605
0.0253793
0.224304
0.0940859
0.472725
0.0210006
0.0211203
0.0203098
0.026118
0.0613936
0.0230186
0.0611626
0.469481
0.0213842
2.37953
0.0271082
0.022456
0.0204241
0.034666
0.0340629
0.0213297
0.0210407
0.0205031
0.0243044
0.0242033
0.0246286
0.0241222
0.0244577
0.507713
0.0210944
0.0212758
0.0211704
3.03427
0.02443
0.0244671
2.60182
0.549561
0.204403
0.0210595
0.0242436
0.0212406
0.0317188
0.0213627
0.0224852
0.0331735
0.0244407
0.0668247
0.0199057
0.241978
0.0335177
0.0720692
0.319931
0.689771
0.0211333
0.0213525
0.0213439
0.518019
0.0214276
0.0208942
0.0213503
0.0314094
0.127263
0.255216
0.0241104
0.0474854
0.50951
0.0394262
0.239821
0.0499591
0.036361
0.0349925
0.634885
0.261661
0.0211218
0.0211355
0.0211544
0.115941
0.0658922
0.0448297
0.0208977
0.0212595
0.0212518
2.76824
0.0211926
0.0212104
0.0210709
0.036833
0.0209662
0.0211727
0.0203548
0.0254778
0.0760695
0.0287181
0.0239916
0.0215594
2.22497
0.0290524
0.0201487
0.0213315
0.151226
0.279312
0.0216666
0.0217189
2.51583
0.0211742
0.0210175
0.0209849
0.0214726
0.195727
0.0210112
0.0216496
0.0211292
0.0218088
0.0212665
0.0211591
0.0210679
0.0212649
0.0213824
0.336162
0.0212536
0.0207033
0.192965
0.0481944
0.0265788
0.0513917
0.0209949
0.0446389
0.0212943
0.0302154
0.0210971
0.625991
0.0211429
0.0212432
0.0201501
0.509417
0.0245517
0.021218
0.0710304
0.0212367
0.0201531
0.0212426
0.0220251
0.0283757
0.0209839
0.418457
0.0215029
0.0286917
0.0368714
0.0213899
0.0304456
0.0210109
0.0206274
0.021202
0.0880245
0.0267692
0.0352305
0.0383095
0.075607
0.0260034
0.0626423
0.0245972
0.0213417
0.0198157
2.56012
0.575841
0.0209886
0.0336866
0.0209737
0.0210356
0.370638
0.0205414
0.0213143
0.0427781
0.0513421
0.515868
0.0213308
0.0210477
0.109122
0.0209616
0.0204296
0.0654993
0.0212255
0.077674
0.0708796
0.162435
0.021345
0.0226188
0.0211383
0.019954
0.0254432
0.0216802
0.0214096
0.0330212
0.0207063
0.107011
0.0213993
0.0228168
0.0238384
0.520944
0.0243909
0.0218148
0.157369
0.322199
0.0212677
0.41801
0.0217499
0.0212994
0.0213717
0.0210103
0.024039
0.0284088
0.493834
0.0211881
0.0241351
0.0219031
0.0197597
0.0210572
0.0213155
0.0248983
0.0208279
0.0212031
0.0220137
0.0214872
0.303523
0.0213736
0.0221482
0.050062
0.0223195
0.0202328
0.156723
0.356755
0.253778
0.106617
0.0531745
0.0205776
0.0224479
0.642876
0.841582
0.273771
0.225918
0.122803
0.0215272
0.281139
0.426255
0.0216048
0.326399
0.0222401
0.592353
0.369817
0.118431
0.0222981
0.0210417
0.0475061
0.0212962
0.0214035
0.019498
0.0465048
0.0213611
0.0214333
0.0211652
0.113534
0.0211137
0.0210835
0.0212434
0.021011
0.0210285
0.32166
0.0220502
0.020973
0.0214211
0.0300323
0.34373
0.648959
0.02132
0.0211546
0.0232594
0.0213098
0.0210057
0.0211354
1.95256
0.0212516
0.0367474
0.0211487
0.0215194
0.0203273
0.0213582
0.487855
0.351982
0.0205465
0.0217552
0.261695
0.286933
0.0479922
0.53347
0.021349
0.0301105
0.0211219
0.0197464
0.0211218
0.0201695
0.0210787
0.0212591
0.0217299
0.950723
0.0200448
0.388624
0.608474
0.0199319
0.0323859
0.0417007
0.0221762
0.0211402
0.021216
0.0214357
0.0210765
0.323742
0.0198378
0.0211301
0.287921
0.0211137
0.0213129
0.0209891
0.30161
0.0213922
0.0213768
0.666127
0.0206912
0.0206142
0.0211103
0.145234
0.0212645
0.0196274
0.0211105
0.0200686
0.596232
0.0314303
0.0210467
0.0413899
0.0197943
0.0212787
0.0223817
0.223484
0.897664
0.0200484
0.0239513
0.0213365
0.021163
0.0211247
0.0211081
0.25462
0.32467
0.021319
0.0221529
0.0267051
0.0209673
0.0210833
0.0244368
0.0291413
0.683684
0.0213367
0.0244114
0.487126
0.0211384
0.0239872
0.626265
0.080991
0.020778
0.0209699
0.0211449
0.0211526
0.0209837
0.240225
0.0210684
0.491006
0.383775
0.0220474
0.0239778
0.254074
0.0213249
0.178203
0.0752755
0.238861
0.0255295
0.0211956
0.0224443
0.269501
0.0208314
0.036254
0.0209724
0.0200787
0.0200848
0.0201397
0.0211461
0.630032
0.0216931
0.361188
0.247543
0.0628551
0.547492
0.0197771
0.0213807
0.0230227
0.393208
0.0211815
0.763116
0.0252412
0.0200567
0.0209444
0.242638
0.0209457
0.0267202
0.150686
0.0210588
0.293636
0.0220708
0.0469021
0.0613949
0.0213971
0.0206054
0.0374111
0.0663983
0.0212248
0.023558
0.0201889
0.0225343
0.0208894
0.114887
0.0210208
0.0204463
0.114741
0.0201281
0.281184
0.0214168
0.0211848
0.0211685
0.618663
0.0209966
0.0209129
0.782081
0.0610963
0.401642
0.0215665
0.0201444
0.0361555
0.792588
0.397407
0.610812
0.0239152
0.0242733
0.0216407
0.0212887
0.0244881
0.0219788
0.0211352
0.0203988
0.0333492
0.0244319
0.0209391
0.0196194
0.0215982
0.0205913
0.0215495
0.0235302
0.133031
0.720895
0.0259833
1.09586
0.366273
0.0206539
0.020955
0.0223751
0.0369839
0.0202706
0.0216488
0.0209222
0.0210266
0.0211565
0.0465637
0.0213015
0.0403706
0.0212731
0.0209104
0.333766
0.0385447
0.0217106
0.0209303
0.020874
0.687017
0.24073
0.0215609
0.0202406
0.0217077
0.0209497
0.0212472
0.021023
0.0810266
0.0210003
0.0208661
0.228407
0.0204878
0.0642701
0.0239987
0.0210437
0.0213376
0.269546
0.0474165
0.435394
0.784011
0.0238434
0.0223485
0.0218124
0.0212503
0.0270863
0.0208652
0.732637
0.468097
0.023052
0.0597174
0.255955
0.0208967
0.323061
0.0246235
1.95167
0.0210953
0.0208089
0.0208329
0.0219691
0.0210876
0.064567
0.429276
0.0368875
0.0211982
0.0209582
0.0208712
0.0828164
0.0246918
0.395853
0.0208939
0.0214806
0.0351038
0.0210612
0.275689
0.0557339
0.0208988
0.0214216
0.0197313
0.0212392
0.279881
0.14519
0.0208772
0.0210679
0.0206856
0.250024
0.0211594
0.02403
0.117603
0.191936
1.98457
0.21927
0.598216
0.0212529
0.0283371
0.0216194
0.0210971
0.0232308
0.0304353
0.0204749
0.0211319
0.0398266
0.0212821
0.0205592
0.322813
0.0200213
0.0211065
0.0375316
0.151857
0.0200978
0.0202121
0.0457418
0.0555854
0.0372096
0.203649
0.023908
0.694218
0.0209798
0.153306
0.0585017
0.0699349
0.482611
0.0252973
0.693821
0.0344739
2.97108
0.0206182
0.0210163
0.0202453
0.0212701
0.0297914
0.0207882
0.0495724
0.0206229
0.022116
0.0213584
0.450781
0.0213237
0.182941
0.0247041
0.0259249
0.142391
0.0983485
0.269148
0.0197171
0.0387516
0.0212647
0.263229
0.0214611
0.0653327
0.0352477
0.0329448
0.531128
0.0208136
0.388448
0.0239442
0.0289829
0.0214271
0.789391
0.0215896
0.0208998
0.0212129
0.0321724
0.0215293
0.0323668
0.0362915
0.0272234
0.05516
0.0208447
0.0200716
0.771113
0.0357385
0.304682
0.0329977
0.0209135
0.221875
0.442847
0.0477229
0.0206994
0.0362872
0.241577
0.020794
0.0242679
0.0197983
0.383236
0.427446
0.281269
0.0371497
0.0208184
0.0206784
0.0218937
0.0201858
0.0227596
0.0241041
0.0223504
0.0204292
0.0775713
0.0224259
0.0214773
0.0247354
0.414259
0.0435722
0.0208999
0.0277807
0.0243671
0.302198
0.0208142
0.268987
0.0213064
0.0352933
1.85279
0.0219247
0.590575
0.0204156
0.0198812
0.0208404
0.0208479
0.020668
0.0208816
0.0197733
0.173196
0.0239468
0.021012
0.218496
0.0209082
0.0216243
0.0206546
0.558465
0.021094
0.0233078
0.0359276
0.0343237
0.0209076
0.019785
0.596915
0.0212179
0.320218
1.84484
0.0216186
0.021828
0.0344703
0.022368
0.0436056
0.0202036
0.0206503
0.0226671
0.0286903
0.0234689
0.0403668
0.0346715
0.0222895
0.0218489
0.0255907
0.0223699
0.0325298
0.0229448
0.0205577
0.384912
0.0320254
0.0212854
0.0209329
0.0209348
0.020905
0.0206586
0.0210195
0.0207621
0.0223303
0.0377639
0.0234832
0.0213517
0.0235769
0.0249563
0.0205979
0.0207282
0.463402
0.022543
0.024351
0.0205793
0.0219316
0.0205536
0.020041
0.432915
0.0213475
0.0210651
0.0161273
0.038148
0.0390033
0.0209004
0.10783
0.0215473
0.0755746
0.102512
0.0220258
0.0457905
0.0206989
0.0203124
0.551539
0.0208461
0.049607
0.134077
0.0905193
0.0240311
0.386613
0.0215633
0.020874
0.022163
0.020663
0.202971
0.01278
0.0208821
0.316167
0.0921916
0.0197266
0.0206835
0.0348029
0.0162943
0.388323
0.0266325
0.259077
0.322619
0.0212476
0.621968
0.278676
0.0355042
0.0813773
0.0311514
0.235281
0.0197668
0.382888
0.186013
0.0198321
0.878108
0.463249
0.176684
0.0196337
0.0160633
0.0204128
0.0206857
2.02464
0.709514
0.0206946
0.0215554
0.147762
0.0198004
0.0286762
0.0208198
0.0476221
0.375547
0.0224879
0.0215377
0.288482
0.0395601
0.388872
0.34096
0.0209985
0.270869
0.0210277
0.315156
0.0260955
0.0204492
0.492147
0.0216391
0.0268085
0.0213623
2.01476
0.0211104
0.0213777
0.020241
0.0213841
0.0205107
0.0218047
2.57532
0.651643
0.0205997
1.9838
0.401043
0.0203319
0.0205618
0.326472
0.0306975
2.54751
0.333026
0.394871
0.0205653
0.0212131
0.387176
0.0247949
0.373112
0.0304584
0.0206322
0.0212463
0.0210127
0.0198131
0.0206037
0.0375299
0.0205836
0.250472
0.0209105
0.0213637
0.0614378
0.0197719
0.0368902
0.69878
0.0208747
0.0207991
0.0209619
0.0299463
0.0196332
0.0201856
0.0909786
0.0878302
0.0364308
0.0217999
0.0332017
0.0205323
0.0212038
0.0212536
0.419121
0.366733
0.0879014
0.399503
0.0316875
0.205486
0.070045
0.0210228
0.0241076
0.0196438
0.0196428
0.026815
0.0208295
0.353696
0.259517
0.024274
0.669651
0.0275979
0.472411
0.303274
0.0200654
0.357475
0.0237518
0.286969
0.0213364
0.0204643
0.020126
0.029867
0.446952
0.27405
0.446531
0.0209679
2.46416
0.0205875
0.401229
0.393335
0.0204863
0.0236984
0.0210682
0.672512
0.323323
0.0217337
0.0196255
0.0347998
0.0237409
0.371683
0.0215218
0.0212783
0.335235
0.263754
0.0205336
0.0202177
0.0207129
0.0238058
0.0215752
0.315824
0.0207145
0.0221864
0.253576
0.0213429
0.020859
0.236447
0.347837
0.0215167
0.0214958
0.0217726
0.0205966
0.0205099
0.162808
0.447814
0.0209192
0.0256542
0.0208425
0.0213628
0.0213524
0.0211334
0.342167
0.439149
0.0301289
0.0666073
0.0207631
0.0235772
0.0208454
0.0215971
0.0619742
0.0217491
0.367183
0.0207399
0.387308
0.0214773
0.276634
0.379278
0.0205867
0.0208411
0.0452009
0.0382536
0.230143
0.31428
0.352122
0.341383
0.0241349
0.0211911
0.0626098
0.0207734
0.12749
0.0199881
0.27598
0.0303895
0.02086
0.0216721
0.0208971
0.0322291
0.291095
0.0212125
0.342976
0.0236472
0.0462572
0.0204788
0.0246457
0.283793
0.0204509
0.659511
0.0948499
0.0201996
0.361026
0.167623
0.0917018
0.0204676
0.358436
0.0210203
0.0202339
0.033871
0.0204732
0.272829
0.0200197
0.0208348
0.0205212
0.0238017
0.0518553
0.020756
0.365029
0.0197542
0.0251555
0.0290302
0.0213116
0.440168
0.344266
0.03233
0.0819478
0.0213865
0.0205378
0.920125
0.0204971
0.0203853
0.0209625
1.83681
0.216118
0.0459025
1.89063
0.0201154
0.0210358
0.02125
0.0377941
0.0206715
0.0546698
0.0176453
0.0212413
0.0360361
0.0407173
0.257326
0.0204118
0.0204932
0.0238797
0.0213379
0.573406
0.328576
0.0203401
0.0249648
0.0207068
0.441518
0.0875077
0.0211861
0.188179
0.0209792
0.0213324
0.0197794
0.0214076
0.0841116
0.0449458
0.020444
0.394379
0.0365084
0.0198237
0.438523
0.0206105
0.0208903
0.275544
0.0204064
0.317999
0.019826
0.028146
0.445449
0.0197665
0.0201034
0.0209699
1.50832
0.0251011
2.22213
0.382372
0.0276355
0.0236721
0.324826
0.0205025
0.640247
0.0327113
0.0206447
0.260332
0.683577
0.312843
2.0902
0.206081
0.0203968
0.386874
0.159637
0.260232
0.0923976
0.0204738
0.0203546
0.0207482
0.472846
0.0203226
0.020151
0.0484262
0.0345302
0.0213088
0.0203703
0.0208717
0.0202948
0.0207223
0.298847
0.020828
0.259097
0.292848
0.0330162
0.023856
0.0206314
0.0204251
0.380588
0.17866
0.476348
0.341229
0.0205049
0.0206774
0.0398943
0.0915814
0.287634
0.020438
0.122132
0.35683
0.0199657
0.0346713
0.0291949
0.0201431
0.0209421
0.0210026
0.0214614
0.020101
0.110335
0.438117
0.0209853
0.273146
0.0213694
0.0336045
0.0209059
0.0213419
0.0292082
0.306518
0.0263843
0.0203439
0.0198276
0.020305
0.0203026
0.362505
0.0336583
0.0553053
0.0613467
0.0525066
0.0690308
0.0203356
0.0317025
0.189731
0.0212466
0.280085
0.0226589
0.0197662
0.122261
0.501528
0.022701
0.0374385
0.280403
0.562711
0.0304393
0.0202795
0.0239199
0.0207121
0.230935
0.020676
0.0534414
0.193627
0.0367748
0.198015
0.0332818
0.0289974
0.0304996
0.0209821
0.0203657
0.0210341
0.0208548
0.243523
0.0206227
0.0206327
0.0241452
0.0216829
0.0201926
0.0582091
0.242125
0.281367
0.0202203
0.233248
0.117096
0.143839
0.0212204
0.020401
0.0233944
0.0201685
0.299115
0.024912
0.0202913
0.0304927
0.0205739
0.365547
0.0524085
0.0206089
0.645824
0.19219
0.0203624
0.323493
0.357049
0.168723
0.021159
0.0455634
0.388688
0.0196396
0.0205029
0.240926
0.0272835
0.0209814
0.443621
0.0210855
0.0204247
0.0205205
0.0203561
0.249626
0.0201773
0.0203897
0.317778
0.0324818
0.0204969
0.0208052
0.262556
0.091973
0.0224704
0.0303571
0.0203921
0.694449
0.0554595
0.0216218
0.0202192
0.508482
0.330385
0.02342
0.0201197
0.276045
0.0240199
0.0202032
0.709718
0.0209273
0.11178
0.0204688
0.190787
0.198332
0.156868
0.0280955
0.0204216
0.0426611
0.0212
0.0270879
0.120338
0.0201546
0.203475
0.0202047
0.358802
0.0206955
0.0203581
0.0199843
0.0204551
0.0202363
0.0201149
0.056458
0.0215005
0.0662414
0.022387
0.019732
0.0228655
0.0214329
0.0205494
0.251371
0.020275
0.0210941
0.284261
0.0210516
0.238907
0.0238175