/*--------------------------------*- C++ -*----------------------------------*\
| =========                 |                                                 |
| \\      /  F ield         | OpenFOAM: The Open Source CFD Toolbox           |
|  \\    /   O peration     | Version:  v2012                                 |
|   \\  /    A nd           | Website:  www.openfoam.com                      |
|    \\/     M anipulation  |                                                 |
\*---------------------------------------------------------------------------*/
FoamFile
{
    version     2.0;
    format      ascii;
    class       volScalarField;
    location    "200";
    object      ddt0(k);
}
// * * * * * * * * * * * * * * * * * * * * * * * * * * * * * * * * * * * * * //

dimensions      [0 2 -3 0 0 0 0];


internalField   nonuniform List<scalar> 
10042
(
-0.000165432
-0.000157776
3.90817e-06
-3.70429e-08
-9.1768e-09
0.00182929
0.000113747
0.00309012
1.6095e-08
9.6063e-07
0.000138485
-0.000811049
1.06266e-06
3.95285e-07
7.86301e-08
4.11479e-07
0.000435819
-0.000566391
4.70616e-07
-1.34336e-06
1.06244e-06
-8.72537e-05
-4.31138e-08
-0.00235923
3.60728e-08
-3.53877e-07
-4.58305e-06
2.131e-08
0.00137186
-0.00206914
-1.77142e-07
1.11277e-06
2.44896e-08
1.78738e-08
0.00471314
0.00417476
-4.56271e-09
-3.48573e-08
-9.66927e-08
-4.03853e-07
-0.00163051
2.04377e-08
2.4776e-06
-0.00384227
-4.11881e-08
7.81515e-08
-1.41394e-08
7.59178e-08
2.85494e-06
2.59083e-06
1.44213e-06
-2.8357e-08
0.00055507
4.4104e-07
0.0239953
0.020981
1.0428e-06
0.000884531
-3.7702e-08
2.67296e-08
7.46357e-06
0.0164292
2.02757e-06
0.00167385
0.000417997
5.42321e-07
-1.36698e-06
-5.99612e-05
-2.41991e-08
2.22977e-05
2.16911e-06
-5.38162e-07
-1.86303e-08
-3.4733e-08
5.19322e-07
4.81719e-06
0.000554678
-1.725e-08
0.000561623
4.63729e-07
-0.00928498
-0.00207664
-3.22408e-08
-6.48409e-09
-5.96454e-06
8.10506e-05
-1.29531e-06
1.70611e-06
-1.00879e-07
0.000264687
8.00956e-07
1.01422e-07
4.24126e-06
-2.19245e-05
9.62412e-05
-2.2032e-07
-0.0001859
-1.34864e-06
-0.00222023
-9.86511e-09
7.88641e-07
1.11087e-05
-4.17614e-07
9.67394e-07
5.98634e-07
-3.27674e-07
-0.00992306
4.66927e-07
-9.19819e-05
-3.22453e-07
-8.6118e-08
-0.000315268
-1.82708e-05
0.00329936
0.000186081
-3.18685e-08
4.2599e-06
-1.02429e-07
0.000684008
-3.38204e-08
2.57728e-08
0.0172767
0.0222958
-3.82403e-08
0.000418603
-8.40342e-08
-7.04934e-08
0.030032
5.0782e-06
-1.49872e-06
-9.06443e-08
3.78396e-07
-1.74678e-07
2.90419e-07
-0.000297965
-3.95818e-06
-1.27431e-06
-0.0266133
2.97625e-07
-0.00419216
1.55524e-06
-3.19694e-08
-0.0245726
1.52223e-08
7.75821e-07
-4.12032e-08
1.32015e-06
-2.5781e-08
-1.07567e-06
0.00674916
4.44397e-07
-4.26299e-08
3.89569e-07
1.1769e-06
3.13629e-05
7.62056e-07
4.15493e-06
0.0137057
-2.49645e-08
-4.02439e-07
4.71313e-08
4.27736e-07
-5.89587e-06
-1.1319e-07
1.98799e-07
0.00730394
-4.45609e-08
1.05629e-06
0.00462564
1.70166e-08
3.41596e-05
-0.00256383
0.0182311
1.50499e-08
4.44451e-07
0.0244141
6.73876e-09
-4.21915e-08
3.28018e-07
-2.32395e-08
2.63769e-07
5.91606e-07
-1.61538e-08
-2.37722e-08
-0.000571706
7.84331e-07
-4.5897e-07
2.93386e-08
3.61232e-05
1.35357e-08
-0.00390584
1.04775e-06
-1.06076e-07
6.19113e-07
0.0258516
9.85171e-08
0.000801914
-4.8065e-05
0.00457304
-1.206e-08
8.6227e-06
4.9056e-07
-2.2255e-05
5.01456e-08
-0.00345239
-2.96563e-07
-0.000469931
1.1609e-06
-1.02519e-07
2.60996e-07
1.129e-06
3.76772e-08
0.000546752
-4.72008e-05
3.03064e-08
-0.000568701
2.15121e-08
0.000913692
-1.86081e-08
7.52042e-06
0.0116916
2.04257e-05
0.014505
-0.000327907
-2.69039e-08
2.03846e-06
-8.67786e-07
-1.18331e-06
-1.56125e-06
-3.84579e-07
-5.92382e-08
-6.02687e-08
7.92372e-07
-1.40817e-07
7.82025e-09
0.00358482
-1.03982e-06
-0.000279312
6.7778e-07
-0.00183007
8.63285e-05
1.56133e-07
2.36262e-08
4.2753e-06
0.00389285
-8.4243e-09
-0.000212336
6.45247e-07
4.10146e-07
8.0211e-09
5.62787e-07
-1.28134e-07
0.00226211
0.0131554
-1.02212e-06
-9.31934e-07
3.08766e-08
-1.16076e-06
0.00212521
-2.86806e-08
0.000551814
-2.39273e-08
-2.56478e-08
-1.00829e-08
1.07084e-06
0.00881783
0.00037008
0.000143681
-2.27183e-07
-1.34116e-07
8.75082e-09
-2.03843e-05
6.04245e-09
1.51115e-05
-1.04889e-06
0.000222509
2.50839e-07
-3.21082e-08
-2.39076e-07
0.0134191
2.22781e-08
0.00306501
0.00135249
2.0598e-07
-2.09115e-07
0.0358886
0.00012379
-3.43691e-09
-6.03217e-05
-4.48793e-08
9.8056e-07
9.31487e-06
1.08493e-08
0.00410673
0.000602203
6.0173e-07
0.0066319
-1.16968e-06
8.24442e-09
2.60986e-08
3.50861e-07
1.02323e-05
3.17793e-08
0.000130602
6.03353e-05
0.0172475
-5.29137e-09
3.94726e-06
0.00194556
0.00428631
1.24125e-08
2.70096e-07
-1.97898e-07
5.89174e-07
1.12558e-05
-8.28699e-05
-7.35369e-09
-0.000633129
-0.000713185
-3.02336e-08
6.98498e-08
5.88895e-06
0.000141261
-0.00118122
-0.000787473
1.09111e-08
-1.5339e-05
2.66368e-07
-1.05145e-06
9.42167e-07
-3.16756e-07
-1.52091e-07
-0.000349344
1.83485e-08
-0.000830648
-2.29042e-05
0.0016703
-0.00115361
-1.51349e-07
0.00585793
9.99538e-07
1.1158e-06
2.15688e-08
-9.85281e-08
7.31949e-09
-5.87269e-08
-4.2144e-08
-2.3697e-08
-1.79955e-06
0.000297699
1.42714e-07
0.000170639
-3.28956e-06
6.92846e-07
0.0260822
-8.02194e-06
-8.54038e-07
-2.13803e-08
9.92596e-05
8.68137e-09
-2.7885e-07
-2.68643e-08
1.99559e-07
-0.00202723
0.00503714
2.31295e-07
-2.31793e-08
-1.84143e-06
-1.32689e-06
0.0397974
2.81833e-08
4.84529e-08
-2.64136e-08
8.1047e-08
2.38084e-05
-2.41978e-07
0.000312011
-4.24924e-05
0.00124017
5.94978e-06
-2.15409e-07
-1.71497e-05
-2.55177e-06
2.31656e-07
1.4009e-06
-3.71077e-08
-9.94072e-09
-2.6656e-08
4.53633e-07
1.00984e-09
-1.06369e-06
0.0369966
1.72248e-07
5.65595e-05
0.00385213
0.0160663
-3.98184e-08
0.00409162
-1.88017e-07
1.17241e-06
-2.57926e-08
0.0485524
3.82022e-06
0.0255454
0.00419438
6.73136e-07
1.12681e-06
1.87218e-06
3.68915e-05
-9.38508e-07
-0.00348588
8.51809e-07
0.00142643
2.16876e-07
-0.0017324
5.55186e-07
9.35235e-07
0.0380766
1.05472e-08
5.81582e-07
-5.21165e-08
0.0032679
-7.2977e-08
-2.15949e-08
2.10605e-06
1.0845e-07
5.36384e-07
-0.00324256
-2.77735e-08
1.10474e-06
1.50523e-07
-1.92987e-08
9.05018e-07
0.0038007
1.85831e-06
2.30226e-07
-0.039154
0.000498883
1.07566e-08
0.0253745
3.51299e-09
5.59099e-06
-2.65427e-07
2.71531e-05
7.59746e-06
0.000162959
-0.00286838
-5.24603e-06
0.00237607
-1.95376e-08
0.000101067
0.014944
0.014208
1.35539e-06
-4.76166e-08
-6.18762e-08
0.000121321
0.0256286
-2.46465e-08
-3.48343e-07
3.02573e-08
-4.84633e-08
-4.42786e-07
-9.95932e-08
3.57139e-07
1.6583e-08
-6.67795e-06
2.05035e-07
5.86462e-06
4.50726e-05
-2.48741e-06
1.89795e-07
0.0346992
-0.00414439
0.0050485
2.66274e-08
5.58347e-07
8.72447e-08
0.0154221
2.41072e-09
-2.93012e-05
2.39171e-07
-0.00208066
-3.23545e-08
5.55545e-07
-4.31723e-07
6.45784e-05
-0.00535377
1.22974e-08
-1.70675e-08
2.80308e-07
-0.00836263
-2.84686e-08
-3.64286e-05
1.47676e-06
1.4833e-06
3.84336e-07
-4.02825e-05
0.00312187
0.000371156
-1.06123e-07
3.19972e-08
0.00251066
-0.00395078
8.86453e-07
0.00369851
-6.93572e-08
-0.000600916
8.52391e-07
9.6826e-07
5.4269e-07
-0.00047976
1.76511e-07
-4.34746e-08
-2.64494e-07
0.00453992
-2.71683e-08
2.06862e-05
-1.76056e-08
-7.06759e-08
1.47872e-07
9.48329e-07
0.00418412
-3.42567e-07
2.83426e-07
0.0035088
-5.9505e-05
6.28195e-06
-3.3203e-07
4.91989e-07
-0.000691203
1.45652e-05
-2.22676e-07
2.63189e-08
1.25588e-06
-2.4293e-07
-1.47895e-07
0.00292463
-7.77028e-08
0.00655292
-2.52339e-08
-2.4831e-06
-5.35232e-06
0.0406955
-2.73215e-08
6.42535e-07
-8.54625e-09
-3.10324e-08
0.00448733
1.77664e-08
0.0003971
9.08856e-07
-8.81816e-09
-1.12045e-06
-0.00016777
0.000254552
2.39959e-05
-2.00357e-08
1.61636e-08
-2.36521e-08
6.43826e-07
2.33026e-05
-2.87307e-07
0.0213926
-1.7794e-07
4.26441e-08
-0.00863713
6.16268e-07
3.77577e-05
2.54376e-08
-1.3123e-08
-0.00406764
-0.00147533
-3.88972e-06
0.000821977
5.5401e-09
7.18177e-07
1.19655e-07
-1.27769e-08
3.60049e-07
2.9933e-07
-2.07264e-07
5.92664e-08
0.0412939
2.03652e-07
-0.00332423
-1.14787e-08
5.04595e-07
-4.35287e-09
8.98445e-06
0.000480791
-2.38447e-08
-2.56094e-08
-0.000795647
-3.40399e-06
7.14248e-09
0.00186783
-2.17992e-08
-0.00019445
-2.83282e-08
-8.02234e-08
-3.30042e-08
0.000181824
1.1374e-09
-3.48563e-07
-2.01422e-07
0.0024409
4.20509e-08
3.50173e-07
8.05831e-08
8.79672e-05
-4.68082e-08
-3.99916e-08
-2.95099e-08
-4.86059e-08
5.91713e-07
-6.05594e-09
-5.73651e-07
1.46974e-07
0.00429619
-0.00394205
-0.00618409
-9.45163e-07
4.77349e-07
-1.96134e-08
0.00184172
-1.76897e-07
-0.0011639
-0.00342005
-0.00602955
-7.44522e-05
-0.0049691
1.27354e-08
-1.80332e-07
-0.000336954
4.83718e-05
2.08638e-06
1.62314e-06
6.67707e-08
-0.00247664
-8.36063e-09
-1.39954e-07
2.03122e-07
-2.77952e-08
3.31223e-08
0.000603469
2.07502e-07
-3.33752e-07
0.0403569
-1.47077e-07
0.00260358
-1.64555e-06
1.76938e-07
-5.93944e-06
-6.2401e-08
-0.000597313
2.33061e-07
2.23371e-07
-0.000688677
-7.75492e-08
3.98633e-08
-2.03929e-07
2.09698e-09
4.4789e-09
-0.0038302
0.00484128
0.00788356
5.57922e-08
-1.1115e-07
3.27082e-08
-0.00286055
-6.1831e-07
5.59065e-07
-8.31833e-10
-6.69791e-08
-0.00534998
3.72112e-06
-0.000118453
-9.65177e-07
-3.38726e-08
0.00806494
6.80347e-07
-4.76886e-06
-1.69584e-06
0.00161767
0.0196074
-0.00462544
-2.04619e-08
6.77626e-08
2.88564e-07
0.00123137
-3.47035e-08
5.3128e-07
2.0302e-07
1.63687e-08
-2.42067e-05
5.89932e-07
0.000255355
0.00487997
-1.39535e-08
-3.90382e-08
-1.91739e-08
-0.0001061
-3.08997e-08
-0.00354794
-5.49001e-07
2.39373e-05
-8.48421e-08
2.88582e-07
-2.72211e-08
-4.79452e-08
-1.46736e-07
3.95205e-09
4.10677e-09
2.59275e-07
3.94855e-05
5.19666e-07
-0.00717683
8.33512e-09
1.26061e-05
0.00132616
-1.16231e-07
0.00802765
-5.18109e-10
-3.96217e-07
3.85955e-06
-3.83961e-08
0.00156691
1.89588e-07
-7.97404e-07
1.78224e-07
0.00744137
2.72991e-07
0.000579112
1.1071e-06
-7.84618e-08
-0.00348433
0.0026283
-1.46143e-06
-2.45883e-08
1.56247e-06
4.82162e-08
0.000364865
3.46636e-05
0.00032226
-2.46197e-05
4.32104e-08
-9.42414e-08
4.24878e-07
-1.53666e-07
1.08956e-05
0.000377378
-8.55489e-06
4.17539e-09
7.83719e-07
-1.25901e-07
-2.29904e-07
6.48332e-09
-0.00274641
1.50828e-07
-2.53782e-07
-0.00346305
-3.45773e-08
1.59982e-06
1.06196e-06
-2.51124e-08
-0.00334605
1.08968e-06
-2.86093e-07
-2.13796e-07
-2.28126e-08
-3.36476e-08
0.0204281
2.32252e-07
2.43534e-07
5.2489e-07
0.0164241
-2.05944e-07
9.08801e-07
-1.23459e-05
2.56356e-07
1.13742e-06
1.10311e-08
1.4172e-06
-3.95457e-07
1.88435e-07
5.38634e-07
-3.84117e-08
3.48505e-07
6.27047e-07
-8.83938e-08
5.11205e-08
0.00034755
4.86007e-09
-3.66443e-08
-1.73069e-08
-2.30054e-08
-0.000162243
4.50178e-06
-1.45045e-06
-7.25314e-05
0.00054655
-1.54974e-07
0.000227885
-0.000101216
-6.12177e-08
-3.57002e-07
-1.92909e-08
0.00427316
0.00167528
5.82417e-07
-1.57546e-08
-2.18998e-06
4.67674e-05
0.0393464
4.14395e-07
0.00453688
-1.04712e-06
-0.00590189
9.64711e-07
1.06825e-07
1.10143e-06
-0.00543411
0.000264614
2.23294e-07
0.0420341
0.000652277
-0.00327327
0.00281424
-3.56554e-07
0.000235197
0.000910078
1.51279e-06
0.00533618
-7.06701e-08
0.0417693
-1.26626e-06
-0.00331169
-9.62743e-08
-4.35969e-05
-4.16937e-08
-1.10782e-06
2.48789e-08
-1.34209e-07
-3.69188e-08
0.0010733
6.55661e-09
6.06657e-09
-0.00802951
-8.59111e-08
7.76631e-07
2.53992e-07
0.000213585
-1.22635e-07
2.76591e-07
-4.88416e-07
-3.853e-07
-1.32036e-07
5.72224e-07
2.94215e-09
-0.0398646
0.000662541
2.26095e-06
8.06834e-08
0.0142304
-1.51258e-08
1.23027e-06
-0.000366213
1.10762e-05
-1.53473e-07
-2.74479e-08
-3.92494e-07
3.62034e-08
0.0007932
-6.68654e-06
3.66322e-08
0.00848011
5.97103e-08
-5.86523e-08
-0.00165213
-2.29466e-08
2.33829e-08
0.00571365
-5.24139e-09
0.00205922
2.99195e-07
-6.07579e-05
7.88873e-07
-5.5993e-06
7.59142e-06
-2.1013e-07
0.00677692
0.00777444
-2.21154e-08
8.51828e-07
0.000148369
-0.0449874
0.000286091
-3.96028e-07
7.97612e-08
-1.79198e-05
-2.47921e-07
1.84104e-06
-0.00410488
4.84758e-07
-2.36333e-08
9.53284e-07
0.0092841
0.00151981
-2.33643e-08
-1.98822e-08
-3.49598e-07
9.14314e-08
0.000937994
-0.00521816
2.2418e-07
5.78382e-07
0.00560616
3.39237e-07
-7.48622e-08
0.00830333
-5.36324e-07
0.000363864
1.44762e-06
5.99876e-08
5.46925e-08
3.2242e-06
7.22224e-05
1.64362e-06
4.23553e-07
-0.00165191
0.00213209
0.0200177
5.58063e-07
-4.86227e-07
0.0128253
1.11193e-06
0.00417295
8.19466e-07
-1.96153e-07
2.4767e-07
0.0189734
0.000133477
4.92204e-07
5.59592e-07
1.22275e-06
-4.17029e-07
1.47347e-06
4.75178e-07
-3.63446e-07
3.69945e-08
9.62554e-07
-2.90015e-07
-3.46613e-08
0.0206873
1.01559e-08
5.12406e-08
-3.46145e-06
6.58203e-07
-0.00247228
-5.02036e-08
-7.95561e-07
0.0226698
6.67729e-07
-8.58552e-08
1.08654e-06
-0.00354731
8.88066e-08
4.6476e-08
6.23332e-07
0.000892008
1.01054e-08
4.64279e-07
1.9238e-07
-1.99734e-06
4.33164e-07
0.020217
4.50847e-07
-0.00109278
-1.19539e-07
2.39698e-06
1.06418e-07
1.79172e-07
-1.81451e-07
-0.00349985
-1.02965e-05
-1.63849e-07
7.43078e-08
-0.000272078
1.32924e-05
9.8636e-06
1.77744e-07
-0.0038284
9.83435e-08
-4.77847e-06
1.32902e-06
7.7819e-07
3.88154e-07
-2.81108e-08
-1.01005e-06
-0.00428165
-0.000405922
-7.022e-07
-5.11642e-07
6.95076e-07
2.81381e-05
-3.12793e-08
5.7611e-08
1.29157e-06
2.33659e-08
-3.08634e-08
-0.0030316
-3.31879e-07
0.00103909
-1.17519e-07
8.78082e-08
1.97263e-07
2.51629e-06
1.90611e-07
1.71653e-06
-0.00206545
-2.8988e-08
-5.08637e-07
0.00109674
-3.49055e-07
-5.92316e-07
-5.59392e-08
0.00257516
-0.00183195
6.33614e-08
0.00339499
-1.33585e-06
-2.07458e-07
0.000719136
1.49268e-07
-2.87483e-07
-2.15019e-08
-8.51016e-09
1.02167e-08
0.0214747
-1.74018e-06
0.00229449
0.00359502
-0.000879447
1.63483e-05
-0.00206296
4.88138e-07
-0.0015265
3.5812e-08
7.33452e-07
3.23567e-08
7.55142e-09
-5.46477e-07
0.0112761
0.00225036
-1.73796e-07
-0.00689825
1.48276e-08
-0.000127594
8.31877e-08
4.97436e-07
-8.19876e-07
-2.26758e-05
-0.0069975
-3.17585e-08
1.2492e-08
7.52261e-06
2.64205e-06
2.89177e-06
-3.19968e-06
-0.00464966
-7.51991e-07
0.00168789
0.00260919
-1.54703e-08
-6.18231e-09
-3.31077e-09
6.40409e-07
-1.23053e-07
3.29206e-07
-6.32639e-08
-1.58477e-06
-6.12776e-07
-6.40192e-07
-4.96234e-07
-0.00314241
-0.001493
-2.79335e-08
-0.00593603
3.95837e-07
1.26695e-06
5.00209e-06
8.17154e-05
-1.31479e-08
8.5161e-07
9.86877e-06
-8.39149e-09
3.23036e-06
-0.00437158
1.22547e-07
-5.77909e-09
-3.48841e-07
-0.00145779
0.00441975
1.37583e-07
0.00421103
8.55713e-09
-9.07593e-08
3.55033e-05
3.80393e-07
-1.03759e-07
1.37293e-08
-4.72713e-07
1.6812e-06
-0.000300127
-1.48529e-07
-7.79403e-07
-2.85851e-08
-7.89746e-07
-3.74576e-08
0.00263405
-8.13501e-09
-8.32786e-07
0.0191591
-0.00295985
-5.2601e-08
-0.0040532
-2.8177e-08
-0.00357272
6.22115e-07
1.99985e-06
1.98245e-08
-0.00683515
-0.000116456
-0.011444
-8.44648e-08
0.000352353
-0.000851301
0.000344035
8.65119e-07
-0.000782991
-3.94301e-07
0.00106049
-0.00114693
2.60798e-06
2.75352e-05
-0.000513197
0.0033994
0.0432877
-5.57902e-06
-0.00108823
4.82316e-08
-4.09414e-07
-0.000919754
-1.81493e-07
-2.4828e-08
-0.00195575
1.676e-07
-4.23265e-08
3.56305e-07
0.000193534
2.66255e-06
1.55794e-07
0.000540403
9.55838e-07
-0.000237936
2.51146e-07
3.49819e-08
-4.69024e-07
0.00494876
-0.00198894
9.56929e-07
-0.000203991
-4.71481e-07
-1.16002e-06
1.01021e-06
-0.00418263
1.65047e-06
-1.02262e-07
0.00382986
0.00251585
-3.30155e-07
7.51371e-07
-6.46019e-08
9.40614e-07
0.000110442
3.5161e-07
-0.00260547
6.00752e-05
-1.88419e-08
2.42913e-07
8.52276e-09
0.00187314
3.66111e-08
-2.15868e-06
-0.000197473
8.35612e-08
-5.92546e-07
2.78523e-08
1.0717e-06
3.14458e-08
3.59665e-06
1.68953e-06
1.23638e-05
0.000409495
-4.55277e-07
8.23125e-07
-0.000688309
-5.42312e-07
-7.49702e-07
-5.43611e-08
-6.72495e-08
0.00997698
0.000262267
-8.91439e-07
1.94622e-05
-2.2865e-07
-0.00185579
-7.52738e-08
7.344e-07
4.29451e-06
1.3113e-08
2.39856e-06
0.000408078
-7.24516e-07
9.91286e-10
-0.00245841
-9.41868e-07
5.17296e-07
0.00149108
-1.46988e-05
-0.00102599
7.70871e-09
-1.61855e-08
0.00119125
-1.34705e-07
0.00145974
-0.000191006
3.93499e-05
0.000240178
-4.49345e-07
-7.99751e-07
-9.35507e-06
8.8981e-05
-3.45819e-07
5.68065e-06
4.05236e-09
-1.61896e-08
2.02791e-06
2.39399e-07
-4.98138e-07
1.31019e-06
5.52684e-07
8.14278e-07
4.4054e-07
-1.2542e-08
1.11434e-08
-0.00128042
8.16462e-07
0.000350057
-1.53812e-07
7.50654e-07
4.45526e-08
-7.9546e-09
-0.0014618
5.78323e-09
0.00188939
0.000360992
4.12362e-07
0.00116608
8.95916e-07
-0.00206449
-2.19526e-08
0.00303296
3.38952e-06
2.87862e-05
4.47657e-07
-3.35755e-07
-7.87609e-08
0.00425679
5.48722e-07
-0.000582192
1.00275e-06
-1.77288e-07
0.00222824
-1.43821e-08
0.00767438
-1.77148e-08
-0.00431517
-4.37732e-07
4.50504e-08
3.3795e-08
0.00293054
1.25966e-08
3.08143e-07
2.06582e-08
2.57567e-08
1.39971e-08
1.86832e-06
0.00341852
-1.19882e-07
6.61987e-07
1.03659e-07
-1.40189e-08
-4.26857e-08
0.00154552
0.0409165
5.7372e-07
-2.67307e-07
-3.8772e-08
1.96491e-07
5.99787e-07
5.64461e-07
5.5074e-08
0.00157895
0.0390539
-0.001622
-2.77056e-08
5.18586e-09
-2.3185e-08
4.02131e-07
3.261e-08
2.99143e-07
5.6733e-09
-9.45369e-08
2.32345e-05
-1.50761e-07
-2.49218e-05
0.000597764
0.00619971
-1.57188e-06
-3.22258e-09
-4.18539e-07
0.0136122
1.18016e-07
9.02483e-07
-1.29379e-07
4.51503e-08
-2.29898e-07
-3.97558e-08
0.00139084
2.94e-07
-0.000332817
0.00213651
9.38513e-07
-1.33504e-07
6.09735e-07
-0.00197277
5.24231e-07
1.2011e-06
-9.70754e-08
1.07371e-06
-4.66466e-08
6.24605e-07
-0.0156714
-0.000216827
2.85909e-07
-7.314e-09
0.0149527
5.222e-07
8.56046e-07
-1.31093e-07
-0.000848338
-9.64151e-08
6.08789e-07
-0.00119003
0.0189269
1.35303e-06
7.21593e-08
-1.91811e-07
-5.329e-08
7.807e-08
2.97445e-05
0.000779606
0.00188639
1.32211e-08
0.00203752
-1.42554e-08
-0.00608574
0.000651315
8.39087e-09
0.000367559
0.000183093
-1.04881e-07
6.50638e-05
1.01899e-06
-6.32487e-07
0.00158545
1.60132e-08
0.0370537
-2.64916e-06
0.0351011
-1.1208e-05
1.32076e-06
-2.64514e-07
5.71791e-07
1.82453e-07
3.71455e-08
-1.04325e-07
2.19329e-07
-0.000120306
1.39352e-07
1.09161e-06
-0.000327722
0.00867658
1.24857e-06
-1.29895e-05
1.42219e-07
0.0283931
3.53193e-08
0.000610611
4.34887e-05
0.00698978
1.38367e-05
0.00312899
-0.010391
1.74691e-08
-5.88338e-07
1.88118e-09
-2.1586e-05
2.18365e-08
0.00202091
5.19566e-07
0.0133973
7.32115e-07
3.51764e-07
-4.1185e-08
2.41099e-08
1.7807e-08
-0.000747265
0.000691966
0.00462061
3.40895e-07
-7.88323e-08
5.27389e-07
-1.4645e-07
-8.19685e-08
8.73422e-09
0.000916817
0.00188559
1.1596e-07
6.68521e-07
-0.000124077
7.24293e-07
-0.00041022
0.0039873
-5.07364e-08
0.000711873
3.38957e-08
0.014375
-1.19547e-08
0.000110039
4.60219e-08
9.68941e-06
4.33513e-05
0.000622652
0.000110799
0.00799381
2.99552e-06
1.15923e-06
1.02751e-06
-1.57368e-06
0.00399364
-0.000920932
-3.55208e-06
6.90926e-07
0.0491751
-0.000118664
-0.00201538
1.18687e-06
0.0141776
-6.52211e-07
1.06011e-06
0.000142133
-7.94209e-07
-5.41413e-07
3.25458e-08
3.32746e-08
7.15293e-08
7.29836e-08
2.65823e-07
-0.000165356
1.42596e-07
-0.000952953
-3.74846e-08
-1.52621e-06
-0.00127123
0.00123803
-8.40253e-09
2.20875e-07
0.000640223
0.000624213
-9.17075e-07
0.0014288
0.0318945
0.00160787
-5.36359e-08
9.90091e-07
5.78122e-07
1.78026e-08
4.54338e-06
-0.00159912
-0.000842179
1.01353e-06
-5.35512e-07
-9.88754e-09
-0.0317114
0.000407821
1.40298e-06
0.000722925
-2.9097e-09
-1.03689e-07
3.61426e-07
0.016419
4.41471e-07
-2.75017e-08
5.48967e-09
3.64115e-07
0.000825362
0.000716008
2.0351e-07
1.27129e-07
0.00338487
3.15359e-07
0.000785512
-1.24769e-07
9.63971e-07
-4.19109e-08
1.02747e-06
-5.68316e-06
-5.84398e-08
3.63435e-07
-3.26258e-07
8.27765e-05
2.78709e-06
1.0574e-06
1.90659e-07
3.50808e-07
1.75087e-07
0.0032747
1.13233e-06
4.4552e-07
1.20211e-07
0.000658715
-8.57106e-08
0.000323864
3.21802e-07
9.18358e-07
8.35342e-08
-6.058e-09
3.90213e-05
9.35304e-07
-0.00636264
-1.05575e-07
-1.4861e-08
0.000979389
4.33145e-08
-0.00199903
-3.37647e-06
6.3187e-08
3.27145e-07
-0.00012894
-2.53925e-09
-0.00141242
1.59174e-08
0.00039995
-2.87828e-05
-0.000302315
3.83303e-07
-9.1998e-09
-2.38136e-08
-1.14119e-07
6.0714e-07
-2.42034e-08
-6.99986e-07
-1.7902e-09
-9.21659e-08
4.61844e-07
-7.37247e-08
7.984e-07
-4.36479e-08
-1.33581e-05
2.37808e-08
-0.0437056
1.41161e-07
1.83548e-08
0.000257393
-5.7789e-08
-0.0294412
-0.0024227
-4.57541e-07
3.45433e-07
1.19069e-06
-0.000208301
6.41137e-08
0.00103101
8.89343e-07
7.75477e-07
0.0111367
2.60449e-07
0.0371651
1.11971e-08
0.00040846
2.57908e-08
0.0142718
0.0326416
-0.00143682
1.56415e-07
4.3096e-07
7.43139e-10
3.9945e-07
0.00048162
-2.68978e-07
3.10133e-09
1.31205e-06
-3.43624e-08
0.0215156
-0.0014221
1.52489e-07
2.7733e-07
-2.34596e-09
7.01249e-07
2.73161e-07
-3.03548e-09
1.52156e-07
-0.000190586
0.0362837
4.36353e-05
3.80645e-07
2.46382e-07
3.31976e-07
2.83507e-06
0.00934398
3.27938e-06
-0.011544
0.000128421
3.58847e-07
4.78457e-07
2.30327e-06
-5.0885e-08
4.76203e-07
-1.9439e-05
3.27355e-07
-0.0010402
3.27757e-07
0.00155937
2.16488e-07
2.30536e-07
1.99312e-06
3.58327e-07
4.36405e-07
-5.10096e-08
7.06721e-07
0.000972734
1.65893e-06
5.74113e-06
-6.20823e-07
0.0073652
0.000404445
5.71253e-07
-7.90898e-07
-4.63067e-08
6.94643e-08
5.5117e-07
0.000127774
8.58884e-09
6.87502e-07
3.01238e-08
-1.15951e-06
7.7003e-07
-5.96559e-07
0.00138061
1.36477e-07
3.85689e-07
0.00534861
4.04964e-07
5.88138e-07
0.000750917
6.6522e-08
0.0152438
-5.89741e-08
-4.4395e-08
1.64419e-07
-1.17711e-05
6.21464e-08
0.0022791
2.03986e-07
9.28926e-08
-0.0118905
-0.000401889
0.0212807
2.44261e-05
-0.00496575
6.76432e-07
3.48335e-08
3.52e-07
-0.0020171
8.59615e-07
-0.00368563
3.78805e-07
8.87269e-07
2.29493e-05
0.000126545
-4.16641e-08
0.00759527
0.000876696
1.03428e-09
6.65016e-07
-4.62312e-08
2.32721e-07
0.00207102
0.000106771
-7.26802e-09
-1.01155e-07
2.44405e-08
0.00319622
1.84225e-07
0.000735134
1.05339e-06
1.47755e-07
-7.41855e-09
1.12371e-07
-0.0249651
8.86104e-05
6.03865e-12
-0.041732
7.5913e-05
3.05431e-07
0.00314198
9.01628e-08
4.52167e-08
-5.0239e-08
-1.86798e-07
-1.08878e-07
6.41476e-07
-1.54689e-07
3.44711e-07
-1.78971e-07
1.61796e-06
3.52816e-07
-0.00432236
9.51189e-07
-9.76793e-08
-0.0195255
2.76819e-08
1.39534e-06
5.50368e-06
2.41145e-09
0.000955721
-2.87971e-08
1.70984e-06
0.0340395
-4.89931e-08
-0.00769922
-0.00220291
-1.62733e-07
7.60907e-09
3.65283e-07
0.00216582
3.73866e-08
0.00147398
0.00147176
-3.40582e-07
7.94621e-07
1.2634e-06
0.000544192
-1.03163e-08
-0.0015572
1.66955e-07
9.28317e-06
-0.00122623
-1.28506e-06
-0.00481608
-5.07269e-07
3.04034e-06
0.000107469
-2.26244e-07
-2.55393e-08
9.51973e-07
3.25228e-07
1.3158e-06
3.31404e-08
-3.23966e-08
0.000348509
7.46257e-07
0.000559349
-6.8599e-05
-8.71599e-08
-0.000946294
-3.80979e-08
7.81391e-06
3.92134e-08
6.87378e-07
5.58353e-06
0.00219446
0.00866778
1.05436e-06
6.28222e-07
0.00277458
-1.51322e-07
-6.85074e-09
-2.87737e-08
3.06737e-08
-1.90842e-07
5.8209e-07
-1.92546e-08
0.00752323
6.34684e-07
1.03814e-07
-7.79628e-08
-2.12852e-08
-2.08353e-08
-0.00168778
2.95829e-07
7.86885e-06
-4.44301e-07
0.00323533
8.90869e-08
-3.49482e-08
6.78191e-08
2.06173e-06
2.90335e-07
2.83889e-05
7.44446e-05
0.00169808
6.36488e-07
1.69576e-07
-3.94041e-08
-9.13835e-10
-2.13076e-07
0.000931967
-5.77614e-07
1.5517e-07
-0.0120674
-1.47096e-07
3.2612e-07
0.000178475
-0.00540976
0.00863589
3.75891e-06
0.00138294
-0.0131141
-2.89263e-08
2.75606e-07
-9.86567e-07
-0.00181598
9.31026e-07
0.00111658
1.5476e-06
-2.05546e-07
-7.81727e-08
0.000461918
8.02223e-07
5.09992e-09
-1.24823e-05
-1.05515e-07
3.99586e-07
-0.00173302
-0.0119535
-8.74999e-07
6.89608e-07
-5.26904e-07
1.94104e-06
0.0185292
-1.03356e-08
4.64626e-09
1.23804e-08
0.000362459
1.98148e-11
5.34597e-07
0.0116273
0.000302443
5.43567e-08
-2.30357e-07
1.08329e-07
-1.58186e-07
-2.54874e-08
-3.76229e-06
9.59503e-06
2.29236e-07
-3.83157e-06
0.000637517
0.0167376
-6.72719e-08
-5.92794e-07
-2.79768e-07
-1.12082e-08
-8.94166e-08
-8.43858e-08
-3.34449e-07
-0.00670045
0.00244335
-3.34946e-07
-3.34277e-08
-6.19737e-07
-7.06541e-07
0.0145944
-2.14813e-06
0.0118524
0.00149601
3.58979e-06
-5.2792e-07
-5.15821e-08
3.33222e-07
-4.24678e-08
-6.22075e-07
0.000513852
-1.80588e-07
4.91423e-07
-0.0344905
0.00895028
0.000935495
-0.0161633
-5.26486e-05
0.00166593
1.42629e-08
-6.96955e-07
0.004935
0.000558495
-2.75085e-07
1.01281e-06
-8.31566e-07
-3.14265e-07
-3.18646e-07
0.00992549
1.91389e-07
1.25581e-07
-0.00920193
4.49929e-07
0.00339685
-2.03003e-08
-5.1334e-08
-1.10659e-06
-0.0317349
6.81195e-05
0.00261108
5.04406e-07
0.00955797
1.11527e-06
-1.00808e-09
0.00533504
-3.72085e-08
4.1358e-07
-1.29175e-07
1.88233e-07
0.0471134
-0.00254325
0.00118432
-2.43665e-06
0.00131723
-0.000835262
-0.009879
-8.42268e-08
-6.37614e-07
-0.0040011
-5.14552e-09
-1.10134e-07
4.71987e-07
-2.6448e-07
0.00238035
-1.23975e-09
0.00361587
6.49107e-05
2.68247e-08
0.0202244
-6.14637e-07
-2.31485e-08
-1.4682e-07
6.01752e-08
-1.00999e-08
-4.38105e-08
-7.46759e-08
0.00213346
-6.02591e-07
-8.23826e-09
1.63123e-07
1.16612e-06
1.39291e-05
-4.32687e-09
-9.71038e-07
-2.35337e-05
0.00164313
-3.13421e-08
-1.29053e-07
-8.90465e-08
7.74252e-08
-2.05218e-07
6.31297e-08
-0.00565305
-0.00017794
-6.42998e-08
2.74419e-07
-1.10637e-08
-1.2758e-06
0.00170554
-5.4107e-07
0.00109298
-0.0092341
1.3252e-08
-9.17516e-07
0.000170146
0.000195922
8.28182e-07
-3.88752e-08
-1.04222e-07
0.00695587
-6.193e-06
0.00168453
7.54396e-07
-0.00309197
1.66095e-06
0.00343931
0.000177537
0.00197791
-6.58433e-06
0.0186395
0.000111585
0.000724565
-1.54227e-07
0.000763658
-3.12706e-07
-0.00612396
3.46747e-07
4.16505e-07
6.74671e-08
-0.000417215
-0.00209852
-8.67169e-08
-4.7353e-07
0.000457074
-0.00482489
-0.0117074
-5.88076e-09
-3.19469e-07
-1.58274e-07
6.30585e-07
-6.80742e-07
1.15837e-06
0.00785882
0.00260025
6.00044e-07
-1.08059e-07
-8.74143e-07
-5.91277e-08
-1.2811e-07
-0.000465768
2.1263e-07
5.24524e-07
-1.04038e-07
0.000461991
1.87842e-06
0.000124064
-1.63644e-07
0.000304492
-0.0131934
8.89124e-07
-0.00139486
0.022472
-0.014178
0.011094
-3.85278e-08
-1.90422e-07
2.22514e-06
-1.30872e-07
-6.22909e-07
2.93663e-07
-6.03648e-07
-1.26704e-06
1.04246e-06
-1.8252e-08
-0.000390346
1.2592e-06
3.1726e-05
-1.06629e-06
-0.00568897
-0.000811332
5.51388e-06
0.000660158
0.027081
-4.33873e-05
-0.0106185
0.0310207
-1.9195e-08
2.99692e-08
-2.279e-05
-1.33159e-06
0.0106347
-4.75281e-09
7.96603e-07
0.0138497
-3.23114e-08
-7.43369e-08
-8.93604e-07
8.05419e-07
-0.0018774
-2.09379e-07
9.81758e-07
-2.15984e-07
0.00249613
-3.17144e-08
0.0228562
0.000925237
0.00252198
0.0163603
3.24549e-08
3.8867e-08
-6.27101e-07
-2.00964e-07
7.62886e-05
0.000103576
4.52545e-06
0.000895419
-5.43073e-08
-7.49809e-07
5.65828e-07
-1.65703e-07
0.000678094
5.61302e-08
9.11161e-07
0.000762915
0.00124431
-3.68057e-07
-3.99689e-08
-7.48525e-07
0.0230663
5.69431e-07
3.20132e-05
-7.26529e-05
0.00126812
0.00527219
-3.4625e-07
-2.49117e-07
4.45615e-08
-8.00723e-07
0.00065869
-1.66236e-08
3.21249e-05
6.63762e-09
-5.96893e-07
-0.000312088
1.14808e-06
-0.000599036
-2.08015e-08
-5.41802e-07
7.62913e-08
-0.00212522
-2.37388e-08
3.10681e-07
0.000618992
-3.13377e-07
-3.1047e-07
1.25529e-06
0.0374209
6.10571e-07
1.25103e-05
6.31671e-08
-0.00203619
-0.00424123
1.92661e-05
-4.07946e-07
-2.97313e-08
-4.66426e-07
-4.83401e-07
0.00305353
0.000842458
0.00113414
0.014428
-1.16845e-07
-3.92981e-05
4.27409e-08
-0.00296471
-2.63982e-07
-0.00398691
-0.00226116
-2.8755e-07
-9.10407e-06
-1.29681e-08
0.000604656
1.11849e-06
5.47883e-08
2.56018e-05
-1.56054e-07
4.32775e-09
2.45677e-07
-1.12663e-08
6.05633e-07
0.0116288
-4.55098e-07
-5.53614e-08
2.56276e-06
-1.93073e-08
-8.63518e-07
2.19063e-07
-6.74666e-09
-1.40591e-07
0.00047815
-1.81883e-07
-5.95548e-08
3.28687e-07
2.79298e-07
-2.29322e-07
0.0206349
0.00218648
-2.52106e-07
1.01585e-07
8.76308e-07
3.38561e-05
-7.33733e-08
-6.42465e-07
3.67247e-07
-1.58246e-05
-6.65205e-08
3.60413e-07
-0.00227411
-4.78879e-07
0.0001426
-3.06214e-08
-5.24613e-08
-2.99366e-08
-2.64244e-08
-6.17147e-08
-1.82889e-07
0.0151857
0.00257933
-5.12341e-08
5.35895e-07
2.81866e-07
-0.000773606
-4.20998e-07
4.67474e-06
-1.62593e-07
3.72121e-07
-8.33924e-05
-1.36926e-06
0.00265549
2.04297e-05
-3.60038e-08
-7.63098e-07
0.00786757
1.48903e-07
0.0204379
-0.00236063
-5.03541e-08
0.000484412
0.00589239
-0.0022122
2.13741e-05
6.84189e-05
-4.94392e-07
-1.37096e-08
0.00108535
-4.22501e-07
-6.83268e-07
1.99074e-07
-3.49745e-09
4.54903e-09
-0.0221616
-6.46695e-09
1.78468e-06
0.000675686
1.78075e-07
-3.01454e-07
0.00633495
-1.22499e-08
5.84366e-06
3.46281e-08
8.05886e-05
-0.0023967
0.000457613
-8.31461e-09
3.28621e-08
1.73378e-07
0.00149357
-0.00173528
0.000772481
-0.00801833
3.04e-06
-1.58357e-07
1.19431e-05
0.000743763
-2.12426e-08
-3.57805e-07
6.4262e-08
-4.01147e-08
0.00652799
9.1163e-06
-1.49015e-07
-0.00143522
1.83634e-08
-1.43634e-07
2.51864e-08
-1.60672e-07
-5.55305e-08
-0.00298445
-4.08577e-08
0.000476621
9.85626e-08
3.03708e-07
-7.3576e-07
-7.56215e-07
-2.31183e-08
-1.41868e-07
1.05299e-06
-6.0807e-08
6.56381e-05
0.000229743
3.48194e-06
-3.38974e-08
6.53461e-06
8.35838e-07
3.80045e-07
-6.05547e-09
-4.11293e-08
-3.94414e-08
-0.0163409
-0.00258907
5.25946e-08
3.47976e-07
-0.0122447
-6.2361e-07
-0.000105466
-5.45316e-07
-4.62802e-08
-4.86506e-07
-5.06292e-06
0.000365505
0.00556372
0.0115774
-9.11182e-08
2.06597e-06
-4.76275e-06
3.19441e-07
-3.88027e-08
-1.81077e-08
8.97079e-07
9.752e-07
-0.0493066
0.0118728
9.89488e-07
-1.11764e-09
-2.27868e-07
-4.17449e-09
3.80824e-07
-4.04622e-07
3.25335e-05
1.955e-07
-0.00120703
8.89731e-07
1.42108e-07
-1.1386e-07
6.89789e-07
-1.13855e-06
0.00800749
-5.5146e-08
-7.6655e-08
-2.26641e-07
-1.7738e-07
-0.003633
1.708e-07
-6.92608e-07
-1.31764e-06
-7.09938e-08
0.019529
-0.00919453
7.31714e-07
6.16714e-08
-5.42167e-07
-0.00397014
-0.000601216
-4.41941e-08
-3.89299e-08
0.000935839
-5.72793e-08
-1.8328e-07
-0.000456236
-9.95992e-08
0.0001088
-0.00227348
-0.000459702
1.2724e-06
1.58244e-07
2.40943e-08
8.79347e-07
-4.8787e-08
1.13818e-07
-0.00506091
0.00801384
2.7954e-06
2.72771e-07
1.08268e-09
2.34287e-07
0.0104336
2.37527e-07
2.32449e-07
-7.15962e-09
4.10843e-08
-1.85814e-08
-2.09596e-05
5.95821e-07
7.3664e-08
4.44765e-07
1.41986e-07
-2.52852e-08
-6.93303e-07
-0.000326605
3.11152e-05
1.07859e-07
3.36647e-07
7.66183e-09
1.955e-07
0.000669308
-1.24962e-08
0.000674871
-0.00133311
-5.53306e-08