/*--------------------------------*- C++ -*----------------------------------*\
| =========                 |                                                 |
| \\      /  F ield         | OpenFOAM: The Open Source CFD Toolbox           |
|  \\    /   O peration     | Version:  v2012                                 |
|   \\  /    A nd           | Website:  www.openfoam.com                      |
|    \\/     M anipulation  |                                                 |
\*---------------------------------------------------------------------------*/
FoamFile
{
    version     2.0;
    format      ascii;
    class       volVectorField;
    location    "800";
    object      ddt0(U);
}
// * * * * * * * * * * * * * * * * * * * * * * * * * * * * * * * * * * * * * //

dimensions      [0 1 -2 0 0 0 0];


internalField   nonuniform List<vector> 
18758
(
(-0.00968238 0.000686605 -4.53917e-18)
(0.00250607 -0.00447276 2.62775e-18)
(0.000368204 -2.8451e-05 -7.80257e-21)
(-0.0629595 0.0485987 4.22738e-18)
(-0.0132066 0.0217105 4.64225e-18)
(-0.0304817 -0.00448322 -3.69769e-18)
(0.00907845 0.000555412 -5.84931e-17)
(1.7465e-05 -0.000187135 -6.63891e-19)
(-0.00284679 0.0183314 2.9762e-18)
(-0.00287672 -0.00010564 -1.5656e-18)
(-0.00137546 -0.00141481 -5.68066e-18)
(-0.0100174 0.00189545 1.66319e-17)
(-6.65813e-06 5.85932e-06 -2.70468e-18)
(-0.0279882 -0.0412913 -8.94364e-18)
(0.00180069 -0.00161378 1.11639e-18)
(-0.00448772 0.0102087 3.84589e-17)
(-0.00420826 -0.00503947 -2.59096e-17)
(-9.41075e-05 -3.67375e-05 1.43142e-18)
(0.000366831 -0.000758691 2.19673e-20)
(-0.00348731 -0.000221587 3.10753e-19)
(0.0254073 0.00301306 1.53976e-18)
(4.84098e-06 9.65095e-05 3.67864e-18)
(0.00459125 -0.000604474 -3.6757e-17)
(-0.0209867 0.0346138 -7.99093e-18)
(-0.000630362 -0.0213935 -2.48487e-17)
(3.03381e-05 -0.000168608 1.35308e-18)
(-0.0072977 0.0118206 -4.49023e-18)
(-0.0234075 0.0188248 -1.02088e-18)
(-0.0566106 -0.0118506 -4.52677e-17)
(-0.0133558 0.0148368 -2.9912e-17)
(-0.0104072 -0.0143681 1.34091e-17)
(0.0455307 0.00283044 5.19372e-18)
(1.42053e-05 1.71209e-05 -4.54965e-19)
(-0.000162272 -0.00146459 -4.18299e-18)
(-0.0254665 -0.00687965 -1.26328e-17)
(-4.37385e-05 0.000755883 -2.22092e-18)
(2.12394e-05 2.44275e-05 2.97518e-19)
(-0.000483399 -0.00098523 -9.01051e-19)
(-0.00063892 -0.00113771 3.64053e-18)
(-0.00476257 -0.00409611 1.15426e-17)
(-0.000427656 -0.000979627 -5.9072e-19)
(-0.00182226 0.00170006 1.57448e-17)
(0.000125311 -0.000361038 7.07987e-20)
(-0.00230478 0.000862642 4.53751e-19)
(-0.0159457 0.00397792 1.1188e-17)
(0.000248152 -7.8671e-05 5.269e-19)
(0.00566732 -0.000852415 6.1766e-18)
(-0.00171067 -0.00122532 8.48605e-19)
(-0.00280873 -7.10766e-05 -5.57512e-19)
(0.000196929 -0.000257398 1.03568e-19)
(-0.00346214 -0.0076862 1.2534e-17)
(0.0137316 0.0166985 -1.70483e-17)
(0.000278578 -6.52206e-05 -3.73399e-20)
(-0.00130946 -0.00139689 3.19723e-18)
(-0.0289682 0.0176299 -7.60855e-18)
(-0.0430705 -0.00688404 -5.78851e-18)
(1.50108e-05 2.82622e-05 3.02271e-19)
(-0.00270196 0.00935054 2.13783e-17)
(-0.000594017 0.000876623 8.77876e-19)
(-0.0325825 -0.0400934 -6.1274e-18)
(-0.00874927 -0.000915383 3.08655e-17)
(0.0083861 0.000728399 3.59076e-17)
(-0.00396976 0.00638281 -2.42519e-17)
(-0.00115423 0.00117693 2.38328e-18)
(0.000281 -6.942e-05 1.53756e-19)
(-0.000133484 0.000128446 -6.86102e-18)
(-0.00505609 -0.00487878 -1.19294e-17)
(1.27571e-05 2.17832e-05 -2.28317e-18)
(-0.000388333 -0.000916645 8.16784e-19)
(0.0143026 0.0158284 1.61751e-17)
(0.00954945 0.0168363 7.88926e-18)
(-0.000694205 0.00140992 -8.37736e-18)
(0.000187153 -0.000278357 -2.82536e-19)
(-0.00183647 -0.0279217 -1.07071e-16)
(2.6123e-06 -0.000415426 2.8814e-19)
(-0.000635402 0.000799908 2.85233e-18)
(-0.0230314 0.0158304 -4.42452e-17)
(-0.00992135 0.0216412 2.73101e-17)
(-0.00654016 0.00495856 -7.16751e-18)
(0.00644649 0.00167038 7.90611e-17)
(-0.0089274 -0.0110839 -1.20684e-17)
(-0.0171272 0.0034029 3.15749e-17)
(-0.0337279 -0.038031 5.30071e-18)
(-0.0318624 0.0010847 -7.82909e-18)
(-0.0247681 0.0154833 -8.9991e-18)
(-0.0021329 -0.0022197 1.45249e-17)
(-0.0072043 0.00250621 4.28458e-17)
(-0.00357041 0.00596156 2.66351e-17)
(0.00508018 0.00063728 2.52508e-17)
(-0.000646988 0.000785394 -2.05909e-18)
(-0.0375205 0.000480739 -2.20056e-17)
(-0.000550751 0.000867987 -2.1263e-18)
(-0.000514057 0.00255497 -2.76648e-17)
(-0.00189252 0.00176117 -3.24546e-17)
(-0.0109377 -0.0125409 1.42485e-17)
(0.000576356 0.00218447 -2.39589e-17)
(-0.0255424 0.0141232 4.87018e-18)
(6.4495e-07 -0.000430361 -1.22857e-20)
(-0.000417493 0.000455941 4.51027e-18)
(0.025459 0.00390313 -6.60751e-18)
(-0.00359897 -0.000431109 -1.65896e-19)
(-0.0452334 0.00136377 4.97016e-18)
(-0.0124751 -0.000942664 -1.88997e-18)
(-0.0038619 -0.00253653 -2.24956e-17)
(0.0479213 0.00190362 -8.88275e-19)
(-0.0152377 0.0132053 2.07854e-17)
(0.0369841 0.0175661 4.63721e-18)
(-0.00631245 0.0227197 -2.68219e-17)
(-0.00103797 -0.0011987 3.22842e-18)
(-0.000329579 0.00160519 1.65254e-18)
(-0.000438802 0.00211306 4.45898e-17)
(-0.0040674 0.0133646 7.49718e-17)
(-1.85987e-05 -7.56156e-05 -6.83795e-19)
(-0.000976675 -2.7188e-06 4.28453e-18)
(-0.00545511 0.0219627 2.9146e-18)
(-0.0494206 -0.00253938 5.75553e-17)
(-0.0656552 -0.00070328 -5.86277e-17)
(0.0019011 -0.00157156 -3.21821e-18)
(0.00105012 0.0016125 2.22392e-17)
(-0.0106836 -0.0129971 -1.30682e-17)
(-0.00241591 -0.00188309 2.18028e-18)
(-0.000260778 0.000739471 1.91128e-18)
(-0.0514678 -0.0109742 -1.65657e-17)
(-0.00565859 0.0115078 5.1759e-18)
(-0.0149176 0.00104258 6.32471e-18)
(-0.0159714 0.00470989 -1.46124e-17)
(0.0145421 -0.00534448 -4.22286e-17)
(0.00103046 0.0285409 8.47663e-18)
(0.000348273 0.00249716 2.29712e-17)
(2.01875e-05 -5.90806e-06 -1.54217e-18)
(-0.00451434 -0.00509976 7.69324e-18)
(-0.00798971 0.0114534 4.42738e-18)
(0.0281495 0.00113634 -4.69163e-18)
(-0.00483671 0.00300647 -1.48345e-17)
(-0.00153274 0.0131987 1.21489e-17)
(-0.00164971 0.00100313 -2.59999e-18)
(-0.0218698 0.0153442 4.48479e-17)
(-0.00508323 -0.00402803 6.42648e-18)
(-0.000409443 0.000445529 -1.87907e-18)
(-0.00433369 0.00583942 -2.27854e-17)
(-0.00626342 0.0051353 1.24e-17)
(-0.0093193 0.00671456 1.85493e-18)
(-0.000857601 0.000331632 2.93947e-18)
(-0.0496057 -0.00239792 9.39817e-17)
(-0.000418228 -0.000984602 -2.50457e-18)
(0.00051005 -0.000847575 -2.04389e-19)
(-0.0154177 0.00445164 1.61493e-17)
(0.0696573 0.0163957 -3.12518e-18)
(-0.00962648 -0.0148909 -4.99909e-18)
(0.0243427 0.0317372 7.9919e-18)
(-0.0191939 0.00304199 -2.87655e-17)
(-0.0220207 0.01448 -3.8568e-18)
(-0.00213481 -0.00210535 2.12989e-18)
(4.36512e-05 8.13469e-05 3.4423e-18)
(0.000134814 -0.00833992 1.5806e-18)
(-0.00204883 -0.00180897 -2.69332e-18)
(0.00330637 0.00184689 3.05219e-18)
(-0.00175957 -0.00120056 2.7571e-18)
(-0.000987142 0.000757652 5.28407e-19)
(7.5279e-06 3.5021e-05 -4.99132e-19)
(-0.000281311 3.54095e-05 -4.78168e-19)
(-0.0345205 -0.0342987 5.10122e-18)
(0.000675069 0.00184365 1.01113e-16)
(-0.000986487 0.000727238 2.57417e-19)
(-0.00855201 -0.00102436 -2.74448e-17)
(-0.0534135 -0.0124754 4.53547e-18)
(0.000241178 -0.000833794 -6.5284e-19)
(-0.0433868 -0.00497404 5.87743e-17)
(-0.0111218 -0.005442 2.0208e-17)
(-0.0249978 0.0010618 4.34159e-17)
(-0.0279779 -0.00968256 -3.32698e-17)
(-0.000101175 -3.96376e-05 -1.25141e-18)
(0.00016379 0.0019635 -1.09815e-17)
(-0.0208566 0.0197697 1.88857e-17)
(-0.034508 -0.0325941 -1.11575e-17)
(-0.0227928 0.0328729 1.26567e-17)
(-0.0369262 -0.00335324 3.44689e-18)
(-0.00118996 0.00117993 1.82533e-19)
(-0.00429117 0.00580352 1.31447e-17)
(-0.000826948 -0.000964073 2.3485e-19)
(-2.8314e-05 1.84823e-05 1.96574e-20)
(-0.0370668 -0.000512267 1.3195e-17)
(-0.0424911 0.0162468 9.55082e-19)
(0.000261284 -0.000327141 2.07266e-18)
(1.46014e-05 -0.00307403 2.66374e-18)
(-0.0499806 0.0177172 1.16452e-17)
(-0.00045636 0.000622593 -3.13822e-18)
(-0.0480556 -0.00360295 -3.35303e-17)
(0.000155287 -0.00030795 1.13394e-19)
(-0.00041813 0.00058665 -7.67553e-19)
(-0.00506115 0.00297394 2.09783e-17)
(0.00163531 0.0270278 -2.09711e-18)
(-0.00132884 -0.000217222 1.07132e-19)
(-0.00881764 -0.0143501 5.128e-18)
(-0.00375402 0.00127505 5.59148e-18)
(-0.00275613 0.00618033 1.52374e-17)
(-0.00353855 -0.000245388 1.62691e-18)
(-0.0113392 -0.0059167 -3.51547e-17)
(-2.76322e-05 0.000248728 4.77235e-19)
(0.000144852 -0.000338359 -4.73231e-20)
(-0.00313594 0.00602269 4.12489e-17)
(-0.00174141 -0.0011615 3.75932e-18)
(-0.00386364 -0.00125592 5.22429e-18)
(-0.00280783 0.00238308 -1.66693e-17)
(4.57927e-06 7.32533e-06 1.11328e-18)
(-0.00368414 0.00121201 -3.52302e-18)
(-0.0117269 0.000893767 -9.92085e-18)
(2.96925e-05 5.99083e-05 -2.84789e-18)
(0.0311842 0.002967 -2.66127e-18)
(-0.00279743 3.1048e-05 1.09123e-18)
(-9.01149e-05 -1.47193e-05 1.64879e-18)
(-0.00389078 -0.00258454 3.96545e-19)
(-0.00104065 0.000633852 9.45509e-18)
(-0.00363964 -0.0014723 -3.76779e-18)
(-0.00542088 0.00508285 -7.99846e-18)
(-0.00613936 -0.00632833 5.3575e-17)
(-0.00559253 0.00531959 4.97969e-18)
(-0.00339866 0.00996346 -2.4713e-17)
(0.000139023 -0.000251529 -1.9245e-19)
(-0.0299652 -0.00545699 -4.43613e-17)
(-9.29264e-05 -1.61389e-05 -1.3044e-19)
(-0.00108261 -0.00118722 -3.82868e-18)
(-0.0294733 0.00728372 1.53624e-17)
(-0.0149901 0.00563307 -1.38808e-17)
(-0.00589501 -0.0112954 3.56975e-18)
(-0.0117528 0.000185917 8.13289e-18)
(-0.00176203 -0.00186244 -8.21505e-18)
(-0.00531115 0.00172567 -8.69484e-19)
(0.00033616 -0.00025951 4.55908e-19)
(-0.00203508 0.00217049 -2.17434e-17)
(-0.000132307 0.000127853 4.03366e-18)
(-0.00233827 0.00567842 -1.0212e-17)
(0.00546912 -0.00154631 5.9122e-17)
(-0.0275882 0.014398 -7.87319e-18)
(-1.37195e-05 7.44296e-06 1.86257e-18)
(-0.000427799 0.000595715 1.70623e-18)
(0.00031528 -0.00025875 5.4039e-20)
(0.00021751 -9.4838e-05 5.31313e-19)
(-0.0530647 -0.0106206 4.40239e-17)
(-0.00306023 -0.00185903 6.6575e-18)
(-0.000254996 0.00017195 -1.60996e-18)
(-0.0143569 -0.00817494 -4.54776e-17)
(0.0368211 0.0168967 2.82114e-19)
(-0.000737448 -0.0014951 4.95551e-19)
(0.0256618 0.0335159 -7.54409e-18)
(0.00400453 -0.00574468 1.26178e-18)
(-0.0282518 0.0129964 -9.11672e-18)
(-4.18785e-05 0.0007343 -6.99623e-19)
(-0.0102641 -0.0124007 -3.42828e-17)
(-0.00164187 0.00256316 -1.66918e-17)
(-6.96693e-05 0.000776473 1.95562e-18)
(-0.0414347 -0.00552797 -2.25934e-17)
(-0.002166 -0.00226331 -2.44617e-17)
(-0.00176263 0.00258129 1.58458e-17)
(0.00120184 -0.00127476 -3.39651e-19)
(-0.00239426 -0.00190723 -1.19455e-17)
(-0.0291092 0.0260999 2.77932e-17)
(-0.00316173 0.0101519 1.71707e-17)
(-0.00357875 -0.00142584 8.27663e-18)
(-0.00684442 0.00439684 -4.34195e-19)
(0.000624459 -0.000416645 -2.81033e-19)
(-0.00931699 -0.00116282 5.83197e-18)
(-0.000193179 7.59078e-05 9.49197e-19)
(-0.00320729 0.00222811 6.7394e-18)
(-0.00271385 6.13366e-05 -1.69343e-18)
(-0.0303296 0.00623859 -3.77454e-17)
(-0.00216684 -0.00233639 7.22008e-17)
(0.000165573 -0.000244489 3.93291e-19)
(-0.000956143 -0.00118782 5.40778e-19)
(-0.0115702 0.00627541 2.30032e-17)
(-0.000920764 -0.00116745 -1.73735e-19)
(3.77994e-05 -0.00295918 1.63603e-18)
(-0.00243704 0.00201421 1.65059e-17)
(-0.0562585 -0.0177459 4.4989e-17)
(-0.0664299 -0.000610971 5.62193e-17)
(-0.000813621 0.000448961 -8.30484e-18)
(-0.00270724 -0.00681833 -8.99999e-18)
(0.100503 0.0624225 -4.02917e-18)
(-0.0181058 0.00226102 -5.75461e-18)
(-0.00144741 -0.000145959 2.7222e-18)
(0.00013634 -0.000531501 2.47328e-19)
(-0.00245838 -0.00155415 -5.42762e-18)
(-0.0030038 -0.00187845 -5.82672e-19)
(-0.000834987 0.00036301 -1.45234e-18)
(0.0720373 0.0864627 1.47745e-17)
(-0.0139854 -0.00772817 1.5173e-17)
(-0.0732981 -0.0288972 1.85256e-17)
(0.0238296 -0.000159682 -1.31262e-18)
(0.00422691 -0.00120209 -4.72022e-17)
(0.000237266 -0.00028079 1.75428e-19)
(0.000363634 -3.01748e-05 6.78186e-20)
(-0.00576477 0.00183894 1.44786e-18)
(-0.0130498 -0.00657998 3.19219e-17)
(-0.00102519 0.00209292 9.32127e-18)
(-0.00653942 0.00459122 -3.14805e-18)
(0.00110739 0.0020898 1.33147e-17)
(-0.00256924 -0.00145519 4.71108e-18)
(-0.00679373 -0.0113159 1.33097e-18)
(0.000341804 -0.000719481 -1.18869e-18)
(-0.050708 -0.0445599 4.36925e-18)
(-0.029861 4.70322e-05 1.80971e-17)
(0.000234871 -8.20024e-05 -1.50408e-19)
(0.0216685 0.00706888 -2.48853e-18)
(-0.00412293 0.00172833 6.44976e-18)
(-0.000407728 -0.000940075 -7.32306e-19)
(-0.00335172 -0.00124127 -3.63588e-18)
(5.54206e-05 -0.00207889 -3.04651e-17)
(0.000914752 -0.00167205 1.46721e-18)
(-5.40371e-05 0.000777235 -2.85722e-18)
(0.0105305 0.000214321 5.18038e-18)
(-0.0776141 -0.034587 -1.69273e-17)
(-0.000278019 0.000172366 5.01453e-18)
(0.0111139 0.000271467 1.15896e-16)
(-0.00818997 -0.0121028 1.36449e-17)
(-0.00556813 -0.010903 -1.24066e-17)
(-0.000186778 5.71323e-05 1.06861e-17)
(8.69369e-05 6.81567e-07 1.35968e-18)
(-0.00721469 -0.0192138 -8.95009e-18)
(-0.000750427 -0.00146196 -2.23836e-19)
(0.000251781 -0.0003152 -8.29826e-19)
(6.67947e-05 -0.000602546 -1.14228e-18)
(-0.000361766 0.00181332 5.55864e-18)
(-0.0114493 -0.00503448 -2.36382e-17)
(0.000203939 -0.0023108 3.86965e-17)
(-0.00247246 -0.00153183 9.36051e-18)
(-0.00305193 -0.00177976 -9.30124e-18)
(-0.00349487 -5.20156e-05 1.68314e-19)
(-0.00518593 0.00267189 -7.75809e-18)
(0.00059725 -0.000400783 1.01637e-18)
(7.47081e-06 7.91553e-05 9.20545e-20)
(-0.00130997 0.0291992 -3.38532e-17)
(-0.00624289 -0.000621318 -1.0669e-17)
(-0.00263051 -0.00717172 2.64414e-17)
(-0.0724206 0.0512844 -9.20955e-18)
(-0.00106931 0.00214423 -1.21841e-17)
(-0.00129261 -0.000236836 -2.40694e-18)
(6.78909e-05 -3.0055e-07 3.32052e-19)
(-0.0533166 -0.0456719 1.51301e-18)
(0.0180096 0.00717862 3.06262e-18)
(0.000305076 -0.000273316 -4.74204e-20)
(-9.67945e-05 5.37158e-06 6.74544e-19)
(0.000285838 -0.000273126 7.65251e-19)
(-0.00157587 0.00102973 -2.79264e-18)
(-0.00509186 0.00167772 -1.664e-18)
(0.000763878 -0.0193806 -9.75068e-17)
(-0.000247433 0.000691304 -2.09021e-19)
(-0.000330022 0.00155149 -2.04057e-18)
(0.000223846 -0.000231609 -3.90047e-19)
(-0.00466134 0.0108718 -2.13268e-17)
(-0.00910676 0.00641426 -1.10631e-18)
(0.00566831 0.00244313 -4.88741e-17)
(-0.0108265 -0.000564953 -3.39428e-18)
(0.000175957 -0.00166851 -2.7203e-19)
(0.00418773 0.0250926 2.57666e-17)
(-0.00934672 0.00092535 1.09211e-17)
(-0.00266333 -0.00196517 -8.91516e-19)
(-0.00194789 0.00276032 -1.56714e-18)
(-0.00576988 0.00200602 -1.63039e-17)
(0.000137307 0.00587629 1.09064e-17)
(-0.0548209 0.0188908 -7.58993e-18)
(-5.06339e-05 2.34202e-05 -3.22596e-19)
(-0.00375332 -0.000222078 7.99953e-19)
(-0.0349771 -0.0161939 5.59691e-17)
(-0.0544249 -0.0178074 -6.01086e-17)
(-0.00229501 -0.000372043 -8.90319e-19)
(0.000219604 -0.000294108 5.31407e-19)
(-0.0022498 -0.000757769 -1.24209e-17)
(4.86328e-05 -0.000839567 -2.3005e-18)
(-0.00213357 -0.00262282 -2.39734e-18)
(-0.0374839 -0.00540026 -3.05819e-17)
(-0.0975307 0.0841075 1.4011e-17)
(-0.022913 -0.0205703 5.70876e-19)
(-0.00337259 -3.62927e-05 -7.44223e-19)
(-0.00218279 -0.00287677 -3.71079e-17)
(-0.000636828 0.00102806 9.53582e-18)
(-0.00178514 -0.00113509 -3.5294e-18)
(-0.000614426 0.000528183 8.16558e-18)
(-0.000694777 -0.00114769 -3.54129e-18)
(-0.0213742 -0.00863795 1.55842e-17)
(-0.00147066 -0.00149206 -6.19037e-18)
(0.0104828 0.000513759 -1.41458e-16)
(-0.00853765 0.0073432 -4.68427e-19)
(0.00115055 -0.00121429 -3.60107e-18)
(-0.000264908 0.000140449 2.13817e-18)
(-0.0604156 -0.00186458 1.35022e-17)
(-0.0220313 -0.0196076 -1.14632e-18)
(-0.00411436 0.0182911 6.28608e-18)
(-0.000607588 0.00103209 -1.02606e-17)
(-0.00633167 -0.0114852 -4.70509e-18)
(0.000131645 -0.000516465 -4.34298e-19)
(-0.00164711 0.0017012 -8.099e-18)
(-0.000286856 0.000763243 1.57212e-18)
(0.000151042 -0.000250229 -3.73608e-19)
(-0.0596404 0.00206354 -6.56679e-17)
(0.0320059 0.00332717 3.74077e-18)
(-0.0121101 0.0138296 3.38848e-18)
(-0.00453251 0.00262364 -5.32028e-19)
(8.94403e-05 1.84986e-06 -1.50293e-20)
(-0.0165223 0.0163552 2.55215e-18)
(0.0248343 0.00801555 9.99106e-18)
(-0.00239256 -0.00193299 -2.17155e-17)
(-2.27484e-05 -8.93705e-05 -1.89312e-19)
(-0.0829542 0.0436834 -6.16574e-18)
(-5.30793e-05 -0.000668731 6.15282e-19)
(0.000640931 -0.000904987 8.78131e-19)
(-2.95993e-05 1.3474e-05 -3.44523e-19)
(-0.0225615 -0.00856027 1.12423e-17)
(-0.000304665 0.000613972 1.93643e-18)
(-0.00225175 0.000943627 -4.91487e-18)
(-0.0104072 -0.000742576 1.68889e-17)
(-0.0543809 -0.0134442 7.13462e-17)
(0.000101784 -0.00058325 4.77815e-19)
(-0.0144376 0.0212523 4.18973e-20)
(-0.00406345 -0.00178135 1.43498e-17)
(-0.000199122 6.69408e-05 -7.70363e-18)
(-0.000825763 -0.00273708 3.26301e-19)
(-0.000629057 0.000905877 -1.74008e-18)
(-9.89392e-05 1.51386e-05 -4.02546e-18)
(-0.00249761 -0.00144865 -2.90377e-20)
(-0.007841 -0.00104951 1.68396e-17)
(-0.00512175 0.00251038 1.56029e-17)
(0.00206908 0.00518221 -1.39948e-17)
(-0.00242056 -0.00188742 1.49898e-17)
(-0.000131493 0.000241998 1.46787e-18)
(-0.0110079 0.00624206 -6.22924e-20)
(0.0357046 0.0145553 2.46362e-18)
(-0.0438355 0.00128443 -2.87117e-17)
(-0.0301675 -0.00885286 7.59678e-17)
(-0.0211872 -0.012242 -1.1193e-17)
(-0.00140224 -3.9298e-05 -3.58104e-18)
(0.000147063 -0.000242676 8.53965e-20)
(-0.000255791 0.000175602 7.39531e-19)
(-0.00106788 0.000643304 -2.17061e-18)
(-0.0220314 -0.0224439 -2.90966e-18)
(-0.00419312 -0.00335028 -2.14583e-18)
(-0.00144528 -0.00562747 2.74897e-19)
(-0.0039434 0.00167239 -8.35127e-18)
(-0.00217414 -0.0021403 -2.61395e-18)
(-0.0487752 0.00571289 9.37576e-19)
(-0.0125278 -0.000218812 3.13594e-18)
(-0.000590253 0.000899291 -6.53243e-18)
(-0.00297662 -0.00173924 4.26006e-18)
(0.00412146 0.000460755 5.7127e-17)
(-0.00143145 0.000555566 -1.3887e-18)
(-0.105727 0.0780511 -1.1779e-17)
(0.000130292 3.38305e-06 2.79331e-19)
(-2.2026e-05 0.000557945 -2.88557e-19)
(0.0594532 0.0419459 3.58449e-19)
(-0.00237844 0.00151892 1.21469e-18)
(-0.000818962 -0.0011999 1.66381e-18)
(-0.0303801 0.0246819 -1.32982e-17)
(-0.025477 -0.00550987 2.7086e-18)
(-0.00566949 0.00166719 8.00086e-21)
(0.000456184 0.00270639 -6.60928e-17)
(-0.000614524 0.000842487 2.17388e-18)
(-0.00132295 0.00066148 -5.85056e-18)
(-0.0038018 0.0103212 2.13474e-17)
(-0.00630364 0.00152208 -6.86816e-17)
(-0.00242036 0.00334321 -1.95001e-17)
(-0.0051056 -0.00392226 -1.83449e-17)
(-0.0282529 -0.0438499 1.72737e-17)
(-0.0546231 0.00473734 -1.24327e-17)
(-0.0651048 8.47613e-05 2.38732e-17)
(-0.029637 -0.0396623 -1.31779e-17)
(-0.000651777 0.0014373 4.16991e-18)
(0.00278369 -0.00420106 -1.41793e-17)
(-0.000983255 3.00086e-05 -4.20631e-18)
(-0.0227908 -0.0233949 3.39062e-18)
(-0.00150836 -0.00105648 -1.28726e-18)
(-0.0013252 0.00288778 4.03941e-17)
(-0.00577551 -0.0117207 1.66065e-18)
(-0.00706802 -0.0167711 2.44733e-17)
(-0.00143632 -0.00544976 -1.30039e-18)
(-0.0122724 -0.0161681 -1.38424e-17)
(0.000228676 -9.40031e-05 -3.87652e-20)
(-0.0190854 0.0343375 -2.02632e-17)
(0.00017216 -0.000295866 1.22334e-20)
(0.00356604 0.00427177 -2.99984e-17)
(-0.000634352 0.00053929 -5.48419e-18)
(-0.0133952 0.00213075 4.40701e-17)
(-0.000184273 0.000236483 5.61238e-18)
(-0.020394 -0.0262661 1.37491e-17)
(-0.00224548 -0.00264406 6.96325e-18)
(-0.00014368 0.000376635 -2.80536e-18)
(-0.000400421 0.000433949 1.14017e-18)
(-3.09118e-05 -6.62754e-06 4.0855e-19)
(0.0346536 0.00893028 -1.3625e-18)
(-0.0259873 0.00431441 5.46747e-18)
(-0.00707612 0.0216033 3.58895e-18)
(-0.00498781 -0.00558936 -2.50175e-17)
(0.000232987 -0.0028152 1.57972e-18)
(0.00035452 -0.00172537 -2.92017e-17)
(1.50809e-05 5.47368e-05 -1.92774e-18)
(-1.30993e-05 5.23221e-05 -3.64384e-18)
(0.012417 0.0180042 -5.45306e-18)
(-0.000401466 0.000441966 -7.325e-19)
(-5.69177e-05 0.000386143 -5.1241e-18)
(0.00159035 0.00181605 -8.19363e-18)
(-3.39646e-05 1.47698e-05 3.37589e-19)
(-0.00514731 -0.00366914 2.2811e-18)
(0.000158579 -0.00143392 3.05097e-17)
(-5.08155e-05 0.000361331 4.99854e-18)
(-0.000313034 0.000632522 -6.33511e-18)
(-0.00207642 0.00180734 -1.63863e-17)
(-0.00139433 0.000578092 3.87314e-18)
(-0.00209789 -0.00182552 -1.1741e-17)
(0.02801 0.0333337 2.22866e-17)
(0.00368724 -0.00744655 1.68303e-19)
(-0.00247436 0.00320737 2.67792e-17)
(-0.00252116 -0.000950857 1.91082e-18)
(-0.000120916 0.000280168 -2.61048e-18)
(-0.00326103 0.0134063 -4.87452e-18)
(-0.000460673 0.00158815 -7.66536e-18)
(-0.00112136 -0.00115845 -1.14172e-18)
(-0.00780764 0.0155644 -1.55406e-17)
(-0.0559631 -0.0027265 1.53455e-17)
(-0.0113399 -0.0158843 1.22392e-17)
(0.00497725 -0.0124273 6.39884e-18)
(-0.00235199 -0.00034636 2.63562e-19)
(-0.00107819 -0.00116074 1.08842e-18)
(-0.0557597 -0.00377969 4.55358e-20)
(0.00028874 -0.000797361 1.81975e-19)
(-0.0626135 0.00121792 -2.89757e-17)
(-0.0128424 0.00207815 -1.8349e-17)
(-0.000148932 0.000360061 -4.18735e-18)
(0.0296745 0.0322326 -1.94638e-17)
(0.00379646 0.0266836 -3.2775e-17)
(-0.00232399 -0.000569913 2.25821e-17)
(0.000113967 -6.65948e-06 3.47953e-19)
(-0.0060205 -0.0006804 1.08129e-19)
(0.0163612 0.0127837 1.61997e-17)
(-0.000474187 -0.000994224 2.15438e-18)
(-0.000343151 -0.000854457 7.90286e-19)
(0.00179382 -0.00172364 -1.27381e-18)
(0.000847033 -0.00163271 5.63913e-19)
(0.000485509 -0.000890274 -5.31798e-19)
(0.000224574 -4.37778e-05 -4.87939e-19)
(-4.52708e-06 2.59686e-05 3.45186e-18)
(-0.0582975 -0.0137086 4.92731e-17)
(-0.00152733 -0.00179346 4.92715e-18)
(-0.0520902 -0.0112186 -3.07015e-17)
(-0.000213639 0.000690555 5.48948e-20)
(0.00301573 -0.00534031 2.0709e-17)
(-0.0255617 -0.005909 -1.49809e-17)
(-0.000183114 0.000105183 -7.10083e-19)
(0.000141944 -0.000333886 9.85356e-20)
(-0.0015855 -0.00171382 -3.56034e-18)
(-4.95313e-05 0.000216976 -4.0689e-18)
(-0.00148787 -0.000178474 -3.39832e-18)
(-0.000958489 0.00157182 1.42054e-20)
(-0.000831113 -0.000933507 -3.20105e-19)
(-0.00544681 0.00612529 2.35653e-18)
(-0.00525716 0.0108575 -2.14078e-17)
(0.000279229 -8.55637e-05 -6.30168e-20)
(0.0159146 0.0141403 9.72959e-18)
(-0.0332558 0.0157957 -1.62809e-17)
(-0.00215079 0.00337667 -1.17158e-17)
(0.00297424 -0.00378928 1.07099e-17)
(-0.0133983 0.0166575 -7.25349e-19)
(-0.00171122 0.00175607 7.04911e-18)
(0.00367217 -0.00707897 -3.47308e-18)
(-0.00191507 -0.00214505 9.91845e-18)
(0.00884367 0.0174772 6.33365e-18)
(-0.00149861 -0.00175829 -3.85183e-18)
(-0.00426702 -0.00920718 1.03731e-17)
(-0.000925712 0.000216157 1.06403e-18)
(-0.0422707 0.120448 -3.22702e-18)
(-0.00294168 -0.00179316 2.92894e-17)
(-0.00939479 0.00585553 -8.20888e-20)
(-0.0146142 0.0077004 1.01824e-17)
(0.00862689 0.000562886 2.50428e-17)
(-0.00152636 -0.00170721 -1.08007e-19)
(-0.000706027 0.000636148 -1.08248e-18)
(-0.00176455 -0.00156312 -3.44854e-17)
(-0.00104371 -0.0200419 -8.62957e-18)
(-0.00144569 -7.78031e-05 1.9857e-18)
(-0.0142677 0.000796468 -2.46221e-17)
(-0.000784271 0.00123763 -4.8403e-19)
(0.0383214 0.0175126 8.27297e-18)
(-0.00153403 -0.000286027 -9.35887e-19)
(-0.000142263 -0.000736491 1.24983e-18)
(-3.56609e-05 -1.50467e-05 2.31254e-19)
(-3.03433e-05 1.72618e-05 -6.48578e-18)
(-0.027484 0.0175234 -1.04941e-17)
(0.039503 0.0168266 -7.27717e-18)
(-0.000592604 0.00106484 4.53369e-19)
(-0.0493678 -0.0297792 3.02632e-18)
(-0.00306763 0.00149732 -1.3007e-17)
(-0.0339583 0.00772428 -3.31446e-18)
(-0.0259277 0.00514877 -1.26416e-17)
(-0.0153569 -0.0219254 1.79143e-17)
(0.0242303 0.000765953 -1.76655e-17)
(0.000839135 -0.000641214 -9.25201e-19)
(-0.0169381 0.019822 -2.33466e-17)
(-0.00804635 -0.0147187 -6.6912e-18)
(-0.000889472 -0.000309357 -9.21719e-19)
(-0.00531367 -0.00465629 8.88002e-18)
(0.0126195 0.0168758 1.64782e-18)
(0.074059 0.0450822 5.89854e-18)
(-0.000212877 -0.00143907 -8.80577e-19)
(-0.000261771 0.00174426 -1.23554e-17)
(-0.000938446 -0.000143646 -1.56054e-18)
(0.000355843 -2.18005e-05 -9.02288e-20)
(0.0645406 0.00859448 1.15792e-17)
(-0.00677974 0.00597778 1.49768e-18)
(-0.0249684 0.0187721 -1.06365e-17)
(0.0274331 0.00664433 5.00226e-18)
(-0.000527151 0.00122198 5.90267e-18)
(-3.78119e-05 0.000242964 6.67765e-19)
(-0.00395961 -0.000432385 -2.23739e-17)
(2.34063e-06 6.43618e-05 -4.95985e-18)
(-0.000264189 4.39087e-05 1.25598e-18)
(-0.000899627 0.00158507 1.14933e-18)
(0.00145557 -0.0016352 -8.13831e-19)
(-0.00486572 0.00658943 -1.55292e-19)
(-0.00296716 -0.00184854 -1.72276e-17)
(-0.0102909 -0.00636702 4.30854e-17)
(-0.00334254 0.022842 5.52652e-18)
(-0.00479648 -0.00398361 2.33719e-17)
(-0.000168867 0.000281079 -6.59962e-18)
(-0.00227429 0.00148149 -5.76058e-18)
(-0.00454697 -0.00659328 -5.09183e-18)
(0.00771357 0.0206776 -5.20855e-18)
(-0.00377968 -0.00899274 3.1821e-18)
(-0.0230256 -0.00169757 -7.97759e-17)
(-0.00204281 -0.00175788 -1.48701e-17)
(-0.000606826 0.00107784 -6.12305e-19)
(-0.0475481 -0.0281951 1.02535e-19)
(-0.00376251 -0.00347953 -1.37087e-17)
(-0.00136372 -0.000260397 1.27432e-18)
(0.000285414 -0.000304606 -8.5742e-19)
(-0.00330988 0.00777394 6.31637e-17)
(-0.0397247 0.00120566 4.66953e-17)
(-0.0109478 -0.00632171 3.63884e-17)
(-3.90039e-05 1.00912e-05 6.19847e-18)
(-0.000144808 0.00476144 2.1967e-17)
(0.0266693 0.000758622 -1.49886e-18)
(-0.00553055 -0.0196019 2.04437e-17)
(0.000209451 -0.000240519 9.69437e-20)
(0.00626443 0.000447725 7.10004e-18)
(0.010469 0.000228006 8.35396e-17)
(-0.00492376 0.00208409 2.59587e-17)
(-0.0014285 -0.00151381 9.69253e-18)
(-5.18916e-07 0.000695034 -4.09157e-19)
(-0.0197111 0.0126174 -1.6859e-17)
(-1.68361e-06 2.30835e-05 -2.8272e-18)
(-0.0358067 -0.00845072 -1.17023e-17)
(-0.0621668 0.00180512 9.17232e-18)
(0.00803879 0.00321486 1.14688e-17)
(0.00794589 0.000686333 -7.20884e-17)
(-0.0138119 -0.00272402 3.77143e-18)
(0.0147342 0.00666542 2.85726e-18)
(-0.0077813 -0.000546225 -3.58165e-18)
(-0.000895437 0.00085813 6.59029e-18)
(-0.000219366 0.00174061 1.17037e-17)
(-0.0285955 -0.00587733 4.46464e-17)
(-0.0797897 0.0132014 1.15101e-17)
(0.0112739 0.000142308 -9.22067e-18)
(-0.0873562 0.0803632 1.04548e-17)
(0.000334108 -0.000797222 -3.05726e-19)
(-0.0350791 -0.00722427 -5.63432e-18)
(-2.90079e-07 4.09824e-05 -4.38232e-20)
(-0.00168767 -0.00199203 -1.72403e-18)
(-0.0156838 -0.00716616 2.76936e-18)
(-0.00379177 -0.00727067 -4.33291e-17)
(-0.000147284 0.000390698 4.16512e-18)
(-0.00200205 0.00100493 4.07554e-18)
(-0.0166728 0.0148428 1.40073e-17)
(0.0159069 0.0142493 -8.95068e-18)
(-0.0263964 -0.00696135 -1.14726e-17)
(0.0109016 -6.99652e-05 -4.27746e-18)
(-0.00267871 -0.00201274 -2.54079e-18)
(-0.0036076 -0.000506613 -2.60917e-19)
(-0.0300874 0.0130815 -1.88943e-18)
(-0.000332386 0.00156601 -1.07776e-17)
(0.000131105 -0.000473895 6.98433e-19)
(-0.000280843 0.000218624 2.24872e-19)
(0.00194462 -0.00362457 -7.57738e-19)
(-0.0112607 -0.0147006 2.22251e-18)
(-0.000147153 0.000185948 1.0798e-17)
(-0.0146822 -0.00726193 5.87164e-18)
(-0.000233664 0.000204881 -2.93456e-19)
(3.30842e-05 -4.01006e-06 -1.64561e-18)
(-8.72197e-05 3.10048e-05 2.0974e-18)
(-0.0156086 0.0211747 -1.41011e-17)
(-0.000369278 0.00160392 5.11686e-18)
(2.2232e-05 3.62027e-05 9.16244e-19)
(-0.00392656 -0.000794587 2.24243e-17)
(-0.00263827 -0.00101993 -3.10118e-17)
(0.000288209 -9.1291e-05 1.41141e-19)
(-0.0591109 0.00156789 7.18128e-17)
(7.29074e-05 -0.000843716 -1.67746e-18)
(0.00060834 -0.000447335 2.63333e-18)
(-0.00211751 -0.00234634 1.14796e-17)
(-0.00273575 0.00308366 -1.04556e-17)
(0.000183844 -0.00293494 1.19261e-18)
(-0.00154516 -0.000731762 -2.75445e-19)
(-0.022408 0.000274703 5.33723e-17)
(-0.00229363 0.00342523 2.71766e-17)
(-0.0035815 -0.001176 2.20409e-19)
(-0.00212252 -0.00463735 1.2516e-17)
(-0.00356247 -0.00124161 2.11684e-18)
(-0.0837192 0.032083 9.04892e-18)
(-0.000478281 0.00234809 -2.71721e-17)
(-0.00623413 0.00648862 -4.83704e-18)
(-0.000705734 0.00115901 -1.64903e-17)
(0.0655844 0.00578379 -1.63025e-17)
(0.000275368 -0.000293372 -1.93874e-19)
(0.0108365 0.016486 -3.19802e-18)
(-0.00776086 0.0322168 -4.29581e-17)
(9.96374e-05 -0.00018344 3.14137e-19)
(-0.0133073 0.00875852 9.88407e-18)
(-0.000155147 0.000332918 -3.72716e-18)
(-8.36121e-05 5.82253e-05 2.30731e-18)
(-0.00264619 -0.00185205 4.1408e-18)
(-9.77792e-05 -4.98058e-05 -1.16558e-18)
(-0.00886895 -0.00240014 3.78474e-18)
(0.00732832 0.0199381 7.80861e-18)
(0.000169842 -0.000290992 -7.85914e-20)
(0.00298692 0.000852602 3.33824e-17)
(0.000805817 -0.000625722 1.91487e-18)
(-0.00241106 -0.00187946 -8.24855e-18)
(-0.090445 0.00619347 1.13727e-17)
(0.000287592 -7.40981e-05 -7.81573e-20)
(-0.0413905 0.00605507 4.01708e-17)
(-0.00187787 -0.000288779 5.12284e-19)
(-0.000109997 -0.000900337 -2.61456e-18)
(-0.00041068 0.000506163 -3.81924e-18)
(-0.000282782 0.000248491 -5.30954e-18)
(0.00798605 0.00676411 2.92044e-17)
(-0.00290354 0.00607473 -1.89849e-17)
(-0.0615134 -0.00101366 -8.22628e-18)
(-0.00467588 -0.00415607 -2.63573e-17)
(-0.0339957 -0.0048988 -2.96988e-17)
(-0.00359435 -0.000370654 1.08671e-17)
(-0.000142566 0.000219158 -1.42311e-17)
(-0.0191829 0.0158652 2.85356e-18)
(0.0103089 3.60102e-05 1.7168e-17)
(0.0206466 0.00152626 4.26573e-17)
(-0.00340473 0.00614595 -2.13268e-17)
(0.00530641 0.00318774 3.74668e-17)
(-0.00705981 -0.0159621 3.81751e-19)
(-0.00211717 -0.00150131 6.53962e-18)
(0.00849524 0.00581607 -2.33925e-18)
(-0.00146276 -0.000693751 -6.75307e-20)
(-0.0207342 0.00337164 -1.35516e-17)
(-2.44362e-05 2.77984e-06 -8.6873e-19)
(0.00561165 0.000553169 -5.14824e-17)
(-0.000160417 -0.00151926 2.09419e-18)
(-0.00364778 0.00588156 -1.18184e-17)
(-0.00204637 0.00191503 5.2766e-18)
(-0.000791668 -0.00115522 -3.12758e-18)
(-0.0582371 -0.00987202 6.14087e-17)
(-0.000183117 0.00176232 8.49938e-19)
(-0.000248854 8.73395e-05 -5.88207e-19)
(0.00392092 -0.0180702 1.18362e-18)
(-0.0018835 -0.000215748 1.64021e-18)
(-9.97848e-05 3.21803e-05 -1.96419e-18)
(-0.00444873 -0.00326621 5.35217e-18)
(-0.000167597 -0.00286116 -3.24392e-18)
(0.00832918 0.00730634 -4.86414e-17)
(-0.00562917 -0.0216258 8.97658e-18)
(0.0160943 -0.00624908 -6.08765e-18)
(-0.0597016 -0.00228881 -1.18403e-17)
(-3.94648e-05 0.000227045 2.10198e-18)
(6.73128e-07 0.000642121 -4.33818e-19)
(-0.00345282 0.00576262 -1.10347e-17)
(-0.000207295 0.000100603 -2.10395e-18)
(-0.0160232 -0.00788335 1.17837e-17)
(-0.0146518 -0.00243011 -6.37052e-19)
(-0.00138424 -0.00144758 7.43626e-18)
(-4.58305e-05 0.000387366 -3.20887e-18)
(-0.00332995 -0.00116108 -1.15521e-18)
(-3.79393e-05 0.000266389 -7.3333e-18)