/*--------------------------------*- C++ -*----------------------------------*\
| =========                 |                                                 |
| \\      /  F ield         | OpenFOAM: The Open Source CFD Toolbox           |
|  \\    /   O peration     | Version:  v2012                                 |
|   \\  /    A nd           | Website:  www.openfoam.com                      |
|    \\/     M anipulation  |                                                 |
\*---------------------------------------------------------------------------*/
FoamFile
{
    version     2.0;
    format      ascii;
    class       volScalarField;
    location    "950";
    object      omega;
}
// * * * * * * * * * * * * * * * * * * * * * * * * * * * * * * * * * * * * * //

dimensions      [0 0 -1 0 0 0 0];


internalField   nonuniform List<scalar> 
18355
(
0.0337483
5.37123
0.0218831
0.0216627
0.0223514
0.0770223
0.0219578
0.0567753
0.023301
5.33842
0.0215228
6.67721
0.0952237
0.0219735
0.0220832
0.0236156
6.93026
0.0217352
0.0220223
4.4875
0.0255288
0.0223727
5.73085
0.0223579
0.024615
0.022146
0.0220714
0.023091
5.18641
0.0219416
0.0219768
0.0230306
0.0217365
0.0217968
0.052684
0.0347661
0.0225391
0.161086
0.0229846
0.0215393
0.021973
0.082614
0.0218839
7.98379
0.0217736
0.1695
0.0501282
0.0238002
0.0446928
0.0217556
0.021556
0.0218332
0.022277
5.7366
0.0220863
0.0220735
0.106604
0.0221078
3.6694
0.130517
0.0217612
0.0618876
0.0217185
0.0428328
6.06143
0.0327176
10.9991
0.032191
0.0220775
0.0223019
0.0605247
0.0222568
0.139561
0.0217972
0.0568924
0.0219539
5.90535
0.0229903
0.0269558
0.021812
0.0219698
0.77793
0.0253168
0.0453062
0.0221381
0.0934778
4.77244
4.45878
4.893
6.15208
0.337279
0.021835
0.0221094
0.0214811
21.9406
5.539
0.0217756
0.0252411
5.48334
6.10021
5.27415
6.42647
0.0419942
3.46061
0.022561
0.106159
9.90617
0.133594
0.0309505
0.357793
0.021915
0.0227878
0.0221477
0.0229089
4.98926
0.0220036
4.70884
5.89852
4.49462
0.042127
5.11839
3.17537
0.0229327
0.0600827
0.0217759
0.144435
0.021829
0.0222617
6.67294
0.0214876
0.0215629
5.75449
0.0461998
0.0250377
0.0417565
0.0222575
0.0219236
0.0215206
0.0219499
0.0770928
4.40842
2.56302
0.0223629
0.0219147
0.410216
0.0222593
0.0255722
6.94146
0.0233661
6.8794
0.022196
0.0222831
0.0495691
3.71679
0.0727583
0.0222699
5.55526
3.67757
0.0222675
0.0666103
0.0268456
0.0243751
0.0299254
0.0253615
0.213492
2.04035
9.84891
0.0420845
0.207195
0.021769
2.02954
5.35287
0.0215262
0.0215308
0.0235978
7.19598
0.0532765
0.0221015
4.06358
23.8988
0.0781521
0.205187
0.0270259
0.0219122
0.246113
6.79939
6.23484
0.226619
0.0233568
8.01887
0.10347
0.0218867
0.0251975
3.6195
0.0479298
0.0223412
5.83001
0.0267165
0.0371112
0.0215339
0.0227208
0.0240791
13.2615
6.02413
23.9552
0.0283739
3.42782
4.91454
5.00421
0.0366521
0.0219283
0.0221401
4.17687
0.0222965
0.0217706
0.711679
3.75219
4.21239
0.0221551
0.0233061
0.545749
0.0219411
0.0439024
0.0219063
8.50602
0.0221762
4.80535
6.89897
0.120757
0.021928
0.0222738
0.0265205
0.0260547
4.94509
0.0227386
0.022139
0.0221102
0.191234
0.576033
30.0711
0.0302896
0.203773
0.0220295
0.0217809
0.022234
8.90592
8.13304
3.14029
0.0716802
0.0267199
0.0227282
6.92697
0.0272018
5.12233
0.0220997
4.89263
4.43227
0.0668276
0.0219361
0.0219132
0.0317429
0.0662597
16.2059
0.0479435
0.0218275
0.0217704
0.0222632
0.228437
0.0806671
0.105994
0.0227626
10.7991
0.244094
0.101274
0.0221835
5.76778
0.0218169
0.0219899
9.40115
0.02181
0.0219521
0.103386
0.0219013
4.42095
0.0269814
0.0242779
0.0218288
0.0421032
5.88967
0.0230651
0.0216697
0.0219847
0.13264
4.7932
0.022267
0.0222792
4.12893
0.0445007
0.0727856
0.238826
0.0219952
0.0617903
0.0225245
0.0222689
0.209934
0.225135
0.320784
0.14139
0.021497
0.087402
0.0224553
0.0220216
6.1788
0.0219007
0.230355
0.0816075
0.0221021
0.0215886
0.210477
26.6589
5.10089
0.0221516
0.029103
9.27525
0.0216652
0.58792
0.0265508
0.0331214
0.404593
0.0214997
3.12887
0.0219839
0.0443969
0.0221226
0.0716409
5.44737
0.0222708
19.4203
0.034549
0.022043
0.0485869
0.0628919
4.54984
5.67636
2.78868
0.0220845
0.0217124
5.51135
0.0635303
0.0221175
0.0225337
0.348977
0.244487
4.20143
5.70694
0.0220961
0.0232173
3.32082
0.0219108
0.0226454
0.280368
0.036991
0.0237845
23.5354
0.0222756
0.046055
0.654874
31.7582
0.0216646
0.0219879
0.0219611
0.0217855
0.06552
0.0217846
0.0398025
0.0219652
0.0241905
0.0220989
0.0231776
0.0217875
0.0220159
0.0217785
0.0217746
0.0232732
0.128067
2.02208
0.0219043
5.36996
0.0346088
1.96545
0.0312562
0.0729813
0.0222866
5.35601
0.0224586
0.0220085
0.0221325
0.0216349
5.44801
0.0239187
0.0216685
0.0422654
0.0392564
0.0219111
0.0216605
5.19109
0.0222967
0.0218218
4.9755
0.0219055
3.40061
8.24695
0.279787
0.025245
0.022548
5.30236
0.0222454
0.0219275
4.41
0.0222692
0.0215284
8.44263
0.0217903
5.20409
0.0407789
0.058275
6.98636
0.0224236
0.0219291
5.60124
0.0760342
2.06096
3.43835
0.0219725
0.0219217
0.0222414
3.29812
0.0435086
0.0220529
0.0222748
0.0222802
0.0493169
3.64779
0.0272662
0.022202
0.0222754
0.0307969
0.356376
4.82997
4.89877
6.39732
0.0523354
0.046925
6.23841
0.0219839
0.0218349
0.0219847
0.0218993
0.0633903
0.0220169
0.0216181
6.7055
0.0501872
0.0460469
6.29269
0.0545793
8.62416
0.021882
0.0217795
0.0219269
0.0219752
0.0222834
0.0222812
0.0220008
2.57155
0.0221487
0.0215349
1.98698
0.133506
0.0218437
0.0227358
0.0561505
10.8992
0.0233621
0.0217707
4.7388
0.0237862
7.86898
0.0267954
0.0217959
6.52828
0.133047
0.0217289
5.30141
3.15852
5.99948
0.0217965
0.0217581
0.0255918
0.127192
0.0223585
9.1449
2.55677
5.213
1.43182
0.0216265
0.040211
4.66656
5.52877
5.16606
0.0221197
0.026638
0.0268249
5.18914
5.99539
0.365127
0.0221831
0.0219498
0.0221241
0.0443077
0.0220059
5.23816
0.0271315
5.14122
0.0219662
0.0222289
0.0219116
0.0314107
0.0317859
0.349465
0.0219209
0.0999466
4.64139
0.0289318
0.0219363
0.0239142
0.0295489
0.0222719
0.0318455
0.0375016
0.0287101
0.140097
0.0226166
0.0217251
0.0219895
0.0222787
0.0405245
0.0237583
0.0623157
0.021874
0.0223575
2.74938
0.0215107
0.0323936
0.0224717
0.146973
0.0240527
5.41933
0.0224078
33.627
0.0258786
0.0238809
4.44322
2.67342
10.7039
0.028953
0.0237277
0.0218069
0.0219511
0.10464
0.0469822
0.0329191
0.0786225
2.64549
0.217163
0.021927
5.40046
6.56193
0.0228494
0.0219474
0.032294
5.92773
0.0318619
0.0222161
0.0601814
0.130384
0.0542292
0.0301624
3.56789
0.0250291
0.0976622
8.6061
0.437187
5.73182
0.0557969
0.163204
0.0265918
0.0220781
0.0228821
0.0219354
0.321225
0.369421
5.67014
0.122344
5.23607
6.03311
0.0550202
0.0238901
7.08397
10.7548
0.0215349
0.132654
7.5162
7.81004
0.0274178
0.0216116
0.0249633
0.0253386
0.0292383
0.0849252
0.0218986
33.2456
0.02335
0.0247953
5.14155
0.0218677
0.0322774
5.27774
0.021936
0.0227925
5.24859
0.0217567
0.100017
0.021509
4.57821
0.02914
0.0392314
0.0333235
0.025068
0.124139
0.0247864
5.69292
0.0716994
0.0219193
10.3798
0.0396797
3.59339
7.55704
0.892443
0.322207
0.0219125
0.0216396
3.3591
0.0240273
0.0323983
0.0222392
0.0266926
6.39331
6.68111
0.0410727
21.8881
0.0610711
0.023429
0.0216135
0.0222291
0.0436287
0.0787795
0.0216897
10.6878
0.0288879
0.0444199
0.0219951
5.12907
4.95968
0.0219442
0.0215405
0.076354
0.0222463
0.0217258
3.68212
0.134267
0.0223473
0.021947
0.144052
0.0446587
0.0272923
0.0608192
0.0220082
4.44748
0.0497038
0.0221534
0.348503
5.29807
0.0219574
6.61739
0.0216599
0.0219387
0.022331
0.0346297
5.13924
0.0340225
7.49377
0.0323751
4.03687
2.10396
0.0265228
5.46865
0.0219986
9.64987
0.0228242
6.14154
5.21109
0.0221508
4.4829
0.0249654
0.0261789
10.8673
0.077965
5.05679
0.0218119
5.55807
0.0219569
4.7136
0.0220706
0.0273015
0.0290333
0.0218032
0.0216131
0.0502481
4.01302
7.55104
0.0219282
2.46463
0.0262882
0.0218096
0.0221172
0.0279224
0.13376
10.6877
0.0328685
0.022043
0.0268967
4.79489
0.0271575
0.0219039
0.0218005
0.027451
0.0293582
19.1008
0.0218625
0.760539
0.0484915
6.21502
5.9559
10.0975
0.0215869
0.0541067
0.0218837
0.0222967
0.0272029
7.81077
0.0218328
0.0218076
0.0217829
10.1232
0.0232896
0.0219447
0.0327127
0.0309701
6.39547
8.21849
0.0219308
0.0219723
6.21882
0.02215
5.07965
4.82019
4.98797
0.185102
0.218963
2.84395
0.0294413
0.0221643
0.0217883
0.0220081
0.0222624
0.0221097
0.0222936
8.88063
14.7724
0.0221977
0.0890492
0.0217676
0.0234938
0.0386359
0.0220865
0.0249848
0.022882
0.461128
2.99617
0.0610718
4.89897
0.0499048
14.2641
0.0843944
3.98087
5.2653
0.0505001
4.20918
0.23349
7.00758
0.021794
0.0219685
0.0219776
0.0254991
4.20402
0.0217665
0.0222764
0.0798988
0.0218344
0.0436461
0.0409805
0.0222173
2.36249
0.0218953
0.021972
0.152285
0.0216923
0.165763
0.387171
0.0220936
0.0227112
0.0218111
0.0618431
0.0218271
0.0234466
1.08422
0.0219816
5.56004
0.0221074
5.72613
0.0242708
0.10518
0.0219569
0.0681857
0.0376184
0.0221712
0.0221025
5.71431
0.0219429
8.69969
7.85162
0.0227462
0.0221123
0.0220794
0.0215743
3.3
0.0219483
5.93955
12.6593
0.0441877
7.6148
0.0218273
0.0218848
5.12922
5.12491
0.024489
0.0220032
0.0219242
0.0217783
0.0230213
0.0438835
1.09783
0.0247858
9.1388
2.64567
2.66846
0.0331356
0.021869
10.789
2.02482
0.0328862
0.0219603
0.0221023
5.55921
0.0220115
4.01409
0.0635145
0.0222529
0.0280832
0.0216217
0.0325116
0.0263908
0.0218375
0.0215192
0.0229072
7.63961
0.0222224
0.0542873
6.10997
0.0220718
0.0219045
0.0453255
8.5637
0.030363
5.16954
0.022447
0.0215665
0.0234241
9.07159
0.389273
1.82243
0.0218775
0.0308492
0.0219846
5.13591
0.021661
2.37744
0.0471002
2.58366
0.0221915
0.0219221
0.216405
0.0219143
9.56853
0.0219511
3.27445
0.0222562
0.0217768
0.0240548
0.590792
4.95196
0.0263272
0.0223846
0.0224447
0.0219187
0.0216834
0.0222809
0.110421
0.0223515
4.29701
0.0237216
4.96727
0.0218414
0.0215923
0.867916
5.11455
6.56289
0.0224839
4.3604
0.0218645
12.3869
0.0225027
0.182805
0.0218073
6.90426
0.0218752
0.026361
0.0220485
0.0218914
0.0222617
5.41195
2.07327
4.2667
0.0334993
0.0254632
0.0245039
0.0219903
0.0216701
0.0217569
0.0233335
0.157195
0.0220297
28.2683
0.105384
0.0220004
0.02253
8.44939
0.105216
0.023385
0.0243724
0.0330446
5.1701
0.0521912
10.2462
0.0540707
0.0712206
0.159908
0.0219824
0.0218601
0.080034
0.0413741
0.0218152
4.93312
0.0286441
5.04383
0.0223657
0.342103
0.0336753
0.0627904
0.027312
0.0220588
1.07853
0.0219191
22.5304
0.0220057
0.0220527
4.96334
0.0308842
0.0260723
10.7402
0.0218609
0.0961211
9.11539
0.0219436
0.0700931
7.32427
0.0228948
0.0218639
0.0219325
0.0238392
0.023855
0.0728611
4.39434
0.02305
0.0264601
4.56507
0.0216078
7.33748
0.024192
0.0233319
0.626628
6.84758
0.0217459
0.0219018
0.0236788
0.0217
0.0216782
7.21265
0.0222707
0.0262185
0.0215984
0.0547574
0.0217283
0.118008
0.947402
0.0227291
4.88656
0.021937
0.0235526
0.0218923
5.14768
0.0283365
0.0218673
0.0219973
0.02212
0.0218737
0.104248
5.53902
8.72678
9.13095
0.0221837
0.0224146
0.0716333
0.0221383
0.0216672
1.67194
5.42545
0.0237063
0.0219072
8.79242
0.0222262
0.022186
4.11557
0.0776799
3.34102
0.023213
0.0218657
4.90198
0.0221642
0.0324872
0.0222224
0.0285147
0.0219769
0.0730126
0.173949
0.039764
0.0221013
10.4889
0.0227088
0.0218719
0.0221333
0.0220098
0.0219164
0.0220691
5.63354
0.0223938
5.49969
0.0222252
0.0274208
5.22768
0.0218055
0.287882
0.0232196
0.0217959
0.0236081
0.0722488
0.022038
0.0218191
0.0221275
0.0219638
0.0528009
0.0216905
0.0224362
0.0290886
0.0220935
0.0318645
11.1046
3.96877
2.82499
7.15577
0.101565
0.0625128
8.15541
4.11302
0.0218688
0.022258
0.0216368
0.125684
4.81281
0.038148
0.0253471
0.0215951
0.0218966
0.0221593
0.0232118
25.9379
17.0936
9.5579
0.0664652
0.0221041
0.0222361
0.0221565
6.5412
2.51962
0.0218045
2.49279
0.0216715
0.0317799
0.022933
0.0404626
0.0311525
0.479337
0.0232167
0.121693
0.0216464
0.0219038
0.0821654
0.0219254
0.0220643
0.0532868
0.220154
0.0221291
0.0753167
0.0219271
0.0219744
0.0218007
0.0219514
5.78462
0.0298698
0.0230879
0.0221285
4.92969
0.149851
0.022076
0.0321016
0.0299556
5.08497
0.801293
5.33322
0.191235
0.0575165
0.113903
0.142589
0.0785676
5.08631
0.0215859
0.0219116
0.021907
0.15222
0.0221849
9.98228
0.0217736
0.0221528
5.01065
0.0548054
0.0224028
0.0766998
0.0219526
0.0230232
0.736822
0.300115
0.0219462
0.646793
0.129494
22.4156
5.55118
0.021999
6.46345
0.0219238
0.064587
0.0218685
0.0218419
5.24794
0.0444714
0.0235631
0.0219053
4.82184
0.0249622
5.73046
6.44934
0.022263
0.0216483
0.0246119
5.64132
0.221744
0.0389046
0.033129
0.228267
0.0219779
0.0224093
0.0218026
0.0218942
0.0231904
0.0548595
8.69599
0.0665776
0.110194
5.1444
0.0220022
2.41297
0.12961
0.0497619
0.0221929
0.0219837
0.0219147
0.0219186
0.0219443
24.6268
0.15482
5.69412
0.0667088
0.0940377
0.0222127
0.0983633
6.06081
0.0236134
0.0247652
0.0218589
11.9667
4.07701
0.0924677
0.110611
0.0219789
5.04296
0.0227017
0.024557
0.0378775
0.079031
0.0216499
0.0707336
4.82806
0.0222776
26.8356
20.2628
5.38935
24.7122
0.0354833
0.49526
0.0562272
0.0533326
5.51681
0.0218189
0.0331134
0.0216854
0.0222514
6.61043
0.022882
5.72087
0.021702
0.0218928
4.99187
0.0219199
15.3316
0.0227749
0.390447
0.0231294
0.0221854
5.95395
0.0244032
0.0649359
0.0218745
0.0217681
0.224385
0.202141
0.0220606
0.0282323
0.765882
0.0572895
2.39261
0.0222619
0.0219491
0.0215257
0.0219182
0.0256285
0.0562136
0.0216364
5.58741
0.0218721
0.0220438
0.0593456
7.01263
0.169276
0.0276731
0.0217682
0.0224945
0.0800425
2.05231
1.19596
11.8453
0.0257588
0.0362275
0.237333
0.0218741
0.0538959
4.86112
0.0219411
0.212725
4.16408
0.362167
0.411346
5.21552
0.075521
0.0220919
2.84876
0.0265623
0.0400715
0.155715
0.0218679
0.111323
0.0218684
0.0219704
0.0495472
7.47763
0.034457
0.0219434
0.0408878
8.7418
0.0822418
3.10643
0.0219156
4.18611
0.0216572
0.0760603
0.111365
0.0219022
5.37191
0.0218115
0.0218401
0.0220591
0.0219447
5.39247
0.0766825
0.0222527
5.16088
0.0220818
6.07144
0.0216664
8.52869
0.047317
0.239666
0.0246562
0.0219017
0.0216826
0.0220717
0.285091
0.117786
0.0221293
0.040435
3.83714
5.41743
0.039883
3.93688
6.59935
0.0219039
8.47687
0.0217884
0.221813
0.0220051
0.0220742
0.0220195
0.0687269
6.74463
0.225561
0.0988014
4.90034
0.409019
0.257312
4.9924
0.0218721
0.0758567
8.07174
0.0215378
0.0488651
6.1721
0.213327
0.0218855
4.14091
0.0662024
7.11331
6.3188
0.0266481
0.218438
0.024619
0.021868
0.0215901
4.83677
0.172806
0.263064
0.161513
0.0219074
5.64061
0.0344608
0.0215061
0.022463
0.0631338
0.0238824
0.022216
0.0222691
0.918664
0.0218962
0.0422639
10.6182
0.0216841
0.0218918
3.96458
0.0218508
0.0433359
0.0263857
0.128266
2.25557
0.021911
0.0573544
0.0274474
0.0768371
0.0270398
0.024699
0.0948949
0.864298
0.0500776
6.33663
0.0837696
0.0221254
0.239198
4.76882
0.0718691
0.0217818
0.0220531
0.127989
0.0229751
6.63608
0.680153
0.0278656
2.24346
0.0233937
0.192922
4.44072
0.0219598
0.0221278
0.0220711
0.0219922
2.81852
0.403208
0.0247927
0.193097
0.296006
0.0470053
0.0220693
0.0236958
0.0587775
0.0219381
0.0218688
2.13588
0.0226562
4.45193
0.0218195
0.0219991
0.0222725
0.0704112
0.0381484
0.0395526
0.0220851
0.0229696
5.59321
1.98472
2.83397
3.25644
0.0256857
0.0224529
5.89943
0.0906028
4.84405
0.0537002
0.0218753
0.0543488
0.0266231
0.0223292
0.0217931
0.0928494
0.0724965
5.57541
0.0838796
0.369897
0.0221824
0.022959
0.0219191
0.112203
10.0288
0.209122
3.36577
0.0218567
4.8479
0.0227357
0.0219712
0.0240707
0.0221527
0.774515
0.0219557
0.0786161
0.0216788
2.98052
0.032767
10.61
0.022406
0.022013
0.0243579
0.0217139
0.0942669
3.78108
5.95233
0.054389
0.0216359
6.17958
0.0581838
0.0219194
0.0665361
0.0217453
0.023798
0.0215235
0.879726
0.0246857
0.0710923
0.0526564
0.021768
13.5297
0.0216379
0.0249285
0.0223703
0.0237086
0.0217473
0.0219355
0.0299253
0.0222817
0.0250883
0.0216938
0.0237814
1.99167
4.24305
0.0224964
0.0405612
5.53511
0.0219166
0.0221569
0.0308812
0.110977
0.0219468
0.0582148
6.25986
0.023068
6.22652
5.52455
0.0219358
0.0225678
0.0594988
0.0214668
2.85789
4.14346
5.41757
0.0229671
0.0276289
0.0214947
2.06434
0.0285235
0.450618
0.0222428
0.138916
8.40349
0.0733934
0.0234101
5.69705
7.38806
5.34914
0.0224159
0.0217618
6.87266
2.68628
0.0218079
0.0221016
0.37118
0.0225243
0.246723
1.9738
0.0217396
0.0225618
6.14133
0.0663702
0.0225774
0.0214969
0.042099
0.0222949
0.273255
0.0218729
0.0221119
0.0219537
0.0230086
0.0220678
0.105372
0.0217512
0.0257948
4.39963
4.76928
9.01408
0.0218226
0.078784
0.0717486
0.0220796
0.0247482
0.0383967
0.0219078
0.0238506
6.17224
0.0552913
0.0219363
0.0219957
0.0217799
5.26993
5.94794
0.021732
0.0222782
0.0219864
0.0535383
5.96804
0.023701
0.0769655
0.0221425
0.0620266
0.0267574
0.352477
10.8036
0.0222937
0.781837
5.40978
0.0404921
0.0218285
0.0410194
0.0283455
0.0435484
0.0264985
0.0218143
0.102545
0.0272184
1.54962
0.04193
0.022217
0.0222857
4.05397
0.0221267
0.0234262
0.222754
0.042764
6.32232
6.28323
0.021791
0.284101
0.685284
0.323657
0.0445955
0.0237974
0.0220655
6.55281
0.0452804
0.0218378
0.070891
0.067619
2.23401
5.39059
0.0220648
0.0280833
0.0222321
0.227401
0.914028
0.0221875
0.0600918
0.0258912
0.0233279
0.022189
9.30069
0.0713647
0.0219359
0.0236657
6.41795
0.0222614
0.0220108
0.0260349
0.0714232
0.0219549
0.0221611
0.0235142
8.20528
0.0298001
0.0218298
0.0218298
0.0218994
0.120841
0.022
0.0219441
0.389366
6.07843
0.0218679
0.0222645
0.0532688
0.0287939
0.0896175
0.022134
2.69392
0.0219053
0.0228641
0.0287913
5.77288
11.6879
0.431281
0.0400547
5.21299
2.70125
9.52387
5.79207
0.0244276
0.0219324
0.0216946
0.0414582
0.0218812
0.0219383
0.0219167
0.181928
0.0218794
7.84312
0.0313855
6.24538
0.0218913
5.29434
0.0219693
0.0275649
0.0216953
0.022997
0.0406789
0.629091
0.022203
0.0218458
0.0248736
5.7713
0.0219076
0.0382782
0.0221938
0.0381776
5.41785
0.231774
3.82464
0.0306517
0.233881
0.0221372
5.10712
9.8923
0.0218828
5.7264
2.17858
0.021892
0.0215232
0.045604
0.0304974
0.0433826
0.0216974
6.47274
0.0328319
0.060974
0.021616
0.0219564
0.0259257
5.57649
5.74708
5.47541
0.0418956
5.55238
0.0390642
10.6015
0.0219463
2.68666
0.021974
0.0268747
1.90112
0.0232069
0.211466
0.0218723
0.0245393
6.00211
7.04254
0.0219659
2.13893
0.0220025
5.93742
0.0217999
6.37122
4.95765
0.0218214
5.89578
0.027237
5.9261
0.0219711
0.0263409
0.0228899
0.0854063
0.0220228
0.437463
0.0218037
5.71061
0.0868667
6.37905
0.0221262
0.0216952
0.381297
0.0230689
0.0317043
0.0218768
0.0867877
0.0245124
0.0219538
2.45908
0.0220254
0.021937
0.0222771
0.0220986
4.21605
0.0386684
0.0219541
6.07098
3.93031
0.529837
0.0216898
0.090416
3.48146
0.0218421
0.0257921
0.0223542
0.0220473
0.0219518
0.021982
0.0270853
0.027866
5.07145
0.337971
0.236755
0.0222776
0.0219541
4.18184
0.0335988
0.0219226
0.0223267
4.79702
5.29317
0.021965
6.2968
0.0388989
0.549071
0.0222785
5.20472
0.021753
0.0228188
0.0221009
0.0218864
0.0234623
6.77117
0.0217365
5.22386
0.173335
3.71225
4.92137
0.0221028
0.0219929
4.87041
0.0664276
0.0968364
0.0219794
0.107397
0.0222301
5.20723
5.92678
3.78997
0.0220654
5.2973
12.0755
5.60519
0.494165
0.0256942
0.12794
0.021862
0.404548
5.93777
0.0283185
4.38892
0.0218188
0.0220432
0.0693318
5.86129
0.0400466
0.35524
0.0219886
8.87532
0.0387207
0.0515656
0.021821
0.0406417
0.286057
0.0220395
0.0378943
0.0404877
0.244749
0.0215829
0.0219016
5.05396
5.61774
0.0238387
4.86821
0.0393725
0.0219973
8.00131
9.20776
0.0220981
0.510811
0.0217073
0.0220666
0.0457703
5.20056
0.0223196
4.70961
0.0235033
0.0219185
5.24054
0.0221675
0.0668036
0.0218559
2.50082
0.0220282
5.22435
0.0217784
0.0551636
0.0218553
0.0276115
0.213417
5.32355
0.0490498
8.63985
0.0281002
5.76662
8.22303
4.28027
0.0218691
9.83954
10.8814
3.42409
0.335204
0.0224242
0.0218477
0.0219496
9.01342
0.0219331
0.0220469
0.434842
0.0222411
8.64481
0.0230423
5.73187
0.0219363
0.0222301
0.111426
0.0215557
0.0528236
0.0218541
0.0737637
0.0950163
2.15066
0.0218123
0.021889
5.46523
13.3036
0.0222444
0.030165
0.0345551
0.0226064
6.97931
5.59174
5.34954
0.149454
4.82338
2.90092
0.222167
0.0218992
0.0217898
0.0228862
0.0219412
0.0329175
6.94093
6.84047
0.0220901
0.0237721
0.0226593
4.65779
7.40268
7.73549
2.42566
0.0220564
2.39751
5.08138
0.0264918
4.87583
0.0474725
0.0221038
6.09769
3.81372
7.72629
0.0222071
0.0230025
0.0429954
0.442906
0.0218193
0.0220278
0.0222428
0.0218294
0.0220424
6.14669
0.0238943
0.0216924
8.93906
0.0221058
6.15031
0.0414599
5.98031
0.358517
0.0219802
5.63877
0.144321
0.959401
0.0227595
0.0278593
0.0220164
0.0230108
6.49993
0.147448
0.07871
0.0224417
0.0219318
0.139757
0.0232495
0.022064
0.0273458
0.0219342
5.14706
0.0219999
4.96559
9.01986
0.0233606
0.0219823
8.86001
0.0218671
0.0216795
1.24793
0.0245573
0.0236699
0.0837324
1.8736
5.42803
0.0337118
0.0234791
0.0222943
5.25908
2.20433
0.0234551
0.0340829
0.0218723
0.021808
0.0239063
0.021718
0.285456
0.028623
0.0220001
0.0222309
0.0220948
0.021888
0.0218434
0.0219041
2.57682
4.05375
8.16996
0.353459
1.61223
0.419512
0.0247632
5.14163
4.01819
2.31947
0.0220941
0.0216754
3.69717
5.56647
0.414037
0.223093
7.43636
0.0220966
0.0219211
4.51039
0.0218442
0.141696
0.141861
0.022505
10.0458
4.11921
0.0222611
11.3799
7.03094
0.161044
0.71109
0.0221905
3.12424
0.54292
6.51819
0.0218523
0.065377
2.02825
0.0219158
0.039123
0.021732
0.0505183
0.0220882
6.36965
0.753497
0.0220062
0.0231838
0.0223849
4.92286
0.0425798
0.0221365
0.0222097
4.63301
0.0219094
0.0231865
0.113971
0.438207
0.0225219
0.0814856
0.0491046
0.021947
0.145662
0.0219391
0.0219585
0.0264556
0.0219686
0.0296818
5.35552
0.242552
0.0220034
13.6646
3.02479
0.285071
7.13541
0.039461
0.0234377
5.66437
0.0260651
0.0241478
0.0462946
0.0760494
0.0218804
0.0217272
0.0221106
0.476921
5.17116
5.57393
5.81324
0.0218229
0.0259874
0.0775109
0.160384
5.38292
0.0221382
4.68173
0.0223679
7.65554
0.0215725
5.77073
0.0227089
15.7673
7.10634
0.0915797
5.191
0.0587315
0.0218363
0.0847913
5.39826
15.66
0.0260798
0.0223623
0.0219562
0.0220955
0.0290863
0.0222868
0.0236087
0.0218195
0.0597187
0.0220119
5.86
0.0222243
5.14175
0.0216818
0.156748
9.49701
0.0230002
2.09804
0.0220191
0.0272438
0.0221559
0.0222003
0.0219102
0.374465
0.210375
0.0218032
0.0242675
0.0219702
4.61296
0.0305192
0.489675
0.22416
0.0219773
0.049233
0.022636
0.0229178
0.0464934
0.0221075
0.0550944
9.18714
0.0220324
5.41106
0.0274557
0.0218796
0.0217264
10.865
0.0219957
5.39885
0.182206
0.022269
2.86412
0.116968
5.77382
0.0255957
0.0251858
0.022103
0.0630078
4.34553
0.0221365
0.0457545
0.0220536
0.0957733
3.03557
2.39474
6.1918
21.9017
0.0295055
2.27624
0.0221484
5.09665
0.524111
0.0263047
0.458305
0.0659086
0.021577
0.0484205
0.0220072
0.0217666
0.0243202
0.0219383
2.57334
1.97522
0.154723
4.19136
0.0220767
3.48161
0.0220623
0.0219724
0.0433549
5.13129
0.0217383
5.4608
0.0976153
0.105699
6.76845
0.0222207
0.0460918
6.787
0.0442379
0.021956
0.391894
0.0219603
0.0221303
0.0222416
2.04056
10.7701
0.0255461
0.0221024
4.93521
11.0315
0.0222854
0.0222355
3.80083
6.39398
0.0222474
0.334565
0.120479
0.0218773
0.0294813
0.0217036
4.82653
0.0219847
9.42775
6.19267
5.45984
0.0248379
0.0322935
0.0218022
0.0218006
2.87745
0.0218427
9.77814
5.46276
0.0790023
0.0218487
0.0216938
0.729995
0.305169
0.0521655
7.79616
0.0933865
3.59561
0.02295
4.83998
2.59854
0.0264616
0.371443
5.71871
5.41818
0.0220324
7.049
0.021741
1.5093
0.2957
1.15801
0.021633
0.0417334
0.0221067
1.04617
3.78272
0.0226258
0.0228951
9.83108
4.80888
0.0219723
5.34533
3.4412
3.07647
0.0222158
5.51957
0.0221521
6.46614
0.022113
0.0226487
0.022206
0.0219732
8.95806
0.320963
0.0217235
4.00557
5.45477
0.0215384
0.0216934
0.0418728
0.0668832
0.0953055
0.0490127
26.4066
4.85555
4.83738
5.88596
0.0954618
0.0230724
0.1526
0.1135
5.11301
3.18907
5.86593
0.0997121
0.0514502
0.0245364
5.50497
0.0876513
0.639383
0.0221853
0.0255936
11.2207
0.0220961
0.0291619
0.513291
0.0241056
0.0425659
0.0219863
0.0231076
6.4759
0.356025
0.0216415
0.0255931
11.1502
0.277868
0.0299813
1.82932
3.08382
0.0441973
0.203458
4.76054
0.0225843
5.64381
0.100959
2.9056
0.0221459
0.0214726
1.96277
4.7902
5.12125
6.8294
3.60434
0.0402498
0.0843766
0.0239377
4.78171
0.0218821
0.0220291
0.0452075
0.0766189
0.102477
6.138
0.0228428
4.89096
5.76095
0.022311
0.0962647
0.0232759
0.204335
0.13048
0.0411761
6.09722
5.15332
4.09543
1.98666
0.0322008
0.0219571
0.0225825
0.0272429
1.35663
7.25188
5.48073
9.83543
0.0524197
0.021802
0.296634
0.040353
5.06468
0.0220977
11.1733
0.0575633
6.36163
0.0220941
2.34367
0.0934083
0.0675544
3.0794
0.0217253
4.53481
5.59772
0.021818
0.0875251
5.33768
0.0223807
0.4254
0.0231693
0.0229959
0.0222585
5.20834
0.0466377
1.63849
0.0284435
7.84972
0.0217529
0.0215196
0.0218788
0.022065
0.0219584
7.96576
0.386327
5.77101
0.0222114
0.0217755
6.88397
0.0282592
3.55913
0.0945341
0.0219125
1.08536
0.0305752
0.0374265
6.49446
0.0263014
38.0932
0.732626
0.0276489
0.0216231
0.28139
0.0215364
0.694162
9.39193
0.216653
0.0217914
7.35951
0.362048
0.0219839
3.05826
0.0221309
6.19184
5.1863
0.0281517
0.0250809
0.073965
0.0388988
0.0222297
0.0216392
0.021977
20.1088
0.0252671
2.43154
0.686367
11.5181
0.51957
0.117897
0.0219851
0.211485
7.892
0.0249299
0.0218672
0.023864
0.0222264
9.00684
0.0835785
5.7574
0.0220027
2.55812
2.67265
4.92416
7.54276
0.0219869
3.04081
1.9495
0.0219743
0.022281
1.90822
4.65802
0.0262968
0.305268
3.5465
6.87494
0.0291079
0.022884
0.431029
0.0424583
0.0231556
0.027466
0.0221214
0.0774246
5.89824
0.0598615
0.0228014
10.8765
0.147898
0.0216492
0.207548
0.207264
0.0736256
0.0505567
0.0216611
0.021799
2.28532
3.19851
0.0402398
0.0218342
4.41741
0.453756
0.519639
2.01313
0.0234524
0.0216555
0.0220985
0.022204
0.0292749
4.81827
0.094196
0.0223841
0.116248
0.0220701
5.53237
0.0230983
4.36269
0.0228429
1.13192
0.0500958
5.22032
0.0219486
0.021949
0.0218018
3.6231
0.0260396
5.19758
3.93107
0.0525563
0.0221738
0.0273995
0.0307731
0.0222451
5.73665
0.0216024
4.85319
5.03479
0.926215
0.0280162
0.0219768
0.0222774
0.0220218
0.0222332
0.0932676
7.84163
5.76645
22.4257
0.824709
2.51891
0.0235283
0.320897
0.0699899
0.0493263
0.0219747
0.0216535
0.221492
0.0229914
0.0216475
5.20506
0.635289
0.447057
6.18044
3.99701
0.0220998
0.0221277
0.0227368
0.0408304
4.33417
0.0220609
0.0456138
0.512422
1.21685
0.0438778
0.0221309
0.357538
0.0270655
6.17732
0.0220655
0.0217297
0.0219947
0.0219726
0.0227114
5.70941
0.495931
0.0923762
0.141404
0.0909068
0.0218499
0.0487259
0.0226824
0.0221027
0.0268057
6.21185
6.0489
0.0218146
0.331921
0.0218585
0.0566803
0.0232499
0.028062
0.0221043
0.0887979
0.0561962
5.35578
10.3214
8.15052
10.1269
23.4596
5.13488
1.05039
0.0217188
5.82245
0.0217188
6.91247
0.0257949
4.39966
0.0220929
0.088056
0.0220493
0.0217632
0.024305
0.0219751
1.69114
0.0216616
0.0219383
0.0216381
0.0217052
0.0218029
0.029674
0.022127
5.15466
0.0494502
0.0219618
4.2698
0.022039
0.0218553
0.0668073
6.42068
0.038667
0.0285714
0.0217665
0.0216056
5.03289
0.022188
0.0255921
0.156345
5.99019
8.99181
5.18135
5.95526
4.8431
18.1402
5.05564
8.23486
0.0737497
4.09277
0.0222269
0.022019
0.0734894
0.0257784
2.50532
0.0221307
0.0444173
0.0480344
0.386838
0.0854557
0.038797
0.0233632
0.021986
0.0472074
0.0220607
0.0217191
0.412411
0.0222508
5.0585
5.4497
0.10357
0.0217875
5.16857
0.0231969
5.25516
0.461073
0.0218367
8.58198
6.04274
0.064019
0.0692217
0.0307268
2.83151
4.21518
0.0236249
19.5326
0.0534569
0.0402172
5.60875
0.0221186
11.9705
0.0220386
0.0220655
0.0218275
2.04433
0.2554
0.340634
5.10606
0.0250564
0.0459536
3.21172
0.021791
6.33691
0.0216877
2.00941
4.47745
10.8187
0.120304
12.0991
0.0219627
0.0221708
0.0238893
6.34184
0.0462851
0.0224123
0.0219589
0.0214659
0.0218894
0.063929
0.173796
0.0821671
0.17603
0.0596626
0.0220047
5.18579
0.0296422
2.24219
0.0226264
0.0217477
0.02256
0.0222321
0.0374446
0.320238
4.79097
0.545084
6.16348
0.446913
0.0218203
1.99908
0.0215151
0.0220004
0.0229277
0.0217617
0.0305817
0.0219879
0.0677625
0.0218235
2.35103
0.0222781
0.022437
0.0217563
4.40782
1.03932
0.0911207
0.0215538
4.88825
0.14687
0.0809367
5.12893
0.057488
2.91138
0.02207
1.9618
0.197878
0.0300613
2.25189
0.0325935
0.0413392
0.696128
0.028187
16.8781
0.101473
5.92435
4.62805
0.0427883
0.0289609
0.0219637
5.11458
0.0220063
3.10872
0.0219155
0.0218946
0.0215242
0.0308774
6.59998
0.0238678
0.0219175
0.0221142
0.0440622
6.23638
0.101446
2.64544
0.2139
0.0686491
0.0219893
0.0600137
0.0221847
0.0228462
7.05408
0.0317322
0.0382386
0.117801
9.03826
0.154841
0.0425748
0.0697223
0.06403
0.0244371
11.3815
0.0222166
7.22948
0.0250885
14.3683
0.0956538
7.78523
6.27778
0.0951348
4.75657
2.13947
0.150715
0.303114
0.0938213
0.614934
0.0220295
0.0820804
0.0543409
10.6165
0.0230826
4.18682
6.85524
0.0215059
0.0217617
6.15677
0.0223211
0.0219167
0.0216227
14.4384
2.20037
6.53151
0.0266986
1.99942
0.759991
9.31898
1.77953
0.0785398
0.0220341
24.7633
3.10099
2.01136
0.425688
0.0219593
0.0218345
0.0220142
0.0221125
1.61587
0.139641
4.28203
0.0875211
0.0221436
0.0219601
0.0222877
0.0313875
12.5931
0.0236803
10.7996
4.09868
0.0529051
0.022121
4.9257
0.183357
2.56473
0.0219387
20.6114
0.0961483
0.0221551
5.59306
4.32967
0.0230689
0.0217644
0.0221043
0.0222557
0.021986
0.164485
0.0574974
0.332496
0.0423749
0.0225553
0.0303445
0.0220871
0.0257224
0.0219582
8.20114
15.8918
0.0347822
0.0220205
4.87739
0.0216871
0.18125
0.531054
8.90637
4.40117
6.36734
0.0220597
0.0222973
0.0221246
0.237729
0.0226049
3.72867
0.0252835
0.0218936
0.021993
0.160797
0.179449
0.0220742
4.43729
0.0743815
3.58524
10.4486
0.0221159
0.725722
4.00706
0.193729
0.0222877
0.02198
0.133726
1.40204
19.8631
0.0231419
7.81436
0.0217452
0.0830702
2.34877
0.177169
0.0217249
8.02878
5.23544
6.08247
7.72156
0.0222766
0.022187
0.0869073
0.157194
0.0418633
0.0229596
4.40797
0.0233841
6.80665
4.30781
0.0218839
8.95598
0.0218466
0.0860877
6.82611
0.0831385
0.0573914
2.36
0.0239994
10.9944
0.0219746
1.26671
6.02628
3.4471
12.6693
0.0242737
0.0537669
0.0217054
5.78444
0.0229611
0.0217353
0.0473048
0.0530414
0.0487075
23.2901
4.96425
4.32236
0.212995
0.030593
0.0386145
0.0262615
0.0332369
28.9675
0.0232394
0.391569
0.0227893
5.12903
0.601894
0.0222169
0.0221642
0.0421775
28.5539
0.0429333
0.0216158
0.0218844
0.0298426
0.0263963
0.0282808
0.02531
5.00597
0.0239338
4.14871
0.073632
0.0219291
0.0712015
0.0710256
0.040502
0.0218462
0.0220688
4.74336
4.25638
5.27959
0.041581
0.0457712
0.0528565
0.0474249
0.0219187
0.0235514
3.74256
0.0482101
0.0238206
4.29019
5.93995
0.220245
5.4371
0.0777205
0.0226366
6.00841
0.0650724
4.59497
0.0219146
5.13433
0.0484283
0.0320911
6.14316
0.0399942