/*--------------------------------*- C++ -*----------------------------------*\
| =========                 |                                                 |
| \\      /  F ield         | OpenFOAM: The Open Source CFD Toolbox           |
|  \\    /   O peration     | Version:  v2012                                 |
|   \\  /    A nd           | Website:  www.openfoam.com                      |
|    \\/     M anipulation  |                                                 |
\*---------------------------------------------------------------------------*/
FoamFile
{
    version     2.0;
    format      ascii;
    class       surfaceScalarField;
    location    "600";
    object      phi;
}
// * * * * * * * * * * * * * * * * * * * * * * * * * * * * * * * * * * * * * //

dimensions      [0 3 -1 0 0 0 0];
oriented        oriented;


internalField   nonuniform List<scalar> 
27274
(
0.131882
0.031396
-0.163278
0.00495129
-0.00337744
-0.00157385
0.229015
-0.309991
0.0809774
-0.320222
0.517287
-0.197055
0.289208
-0.243825
-0.0453824
0.136766
-0.126991
-0.00977518
0.360911
-0.417427
0.0565221
-0.16657
0.0804915
0.0860784
-0.143498
0.153158
-0.00125202
0.000544574
0.000707447
0.433806
-0.212043
-0.221757
-0.00956115
0.0107021
-0.00114099
-0.0368074
0.0941094
-0.057302
0.217713
0.0935954
-0.311308
-0.0577303
0.283621
-0.225889
0.0345498
0.147853
-0.182403
-0.00876347
-0.00263824
0.0114017
0.0405589
0.248081
-0.288634
-0.296031
0.249551
0.0464812
0.0531464
-0.0374381
-0.0157083
-0.118638
0.165133
-0.0464951
-0.0374749
-0.144243
0.181718
-0.00221344
-0.00471456
0.006928
0.256638
0.0325717
-0.223907
-0.0247021
0.372728
0.0386983
-0.411424
-0.422243
0.171303
-0.156717
0.165052
-0.00833536
-0.0102667
0.000471725
0.00979494
-0.215168
-0.0584986
0.273668
0.139419
-0.268693
0.129276
-0.272225
0.109561
0.162665
-0.292181
0.332747
0.209108
-0.529469
0.32038
-0.0517169
-0.0796887
0.131406
0.166447
-0.0345649
-0.215751
0.0824064
0.06675
-0.110788
0.0440383
-0.200088
0.043371
0.419988
-0.310168
-0.109815
-0.0239914
0.241705
-0.0975017
0.071865
0.0256367
0.308962
-0.079945
0.00236772
-0.000810963
-0.00155676
-0.525032
0.363288
0.161762
0.0827076
-0.0159576
-0.127514
0.151919
-0.0244049
0.0629284
0.106318
-0.169246
0.129487
-0.154246
0.0247585
-0.479289
0.210967
0.268327
-0.416256
0.0843811
0.331882
0.188263
0.128942
-0.317202
0.286739
0.171004
-0.457743
0.00675117
-0.0154517
0.00870053
-0.08046
0.384342
-0.303879
-0.461297
0.487151
-0.0258438
0.0743881
-0.127279
0.0528908
-0.197053
0.139324
-0.0231145
0.0146367
0.00847781
-0.0468862
0.118597
-0.0717103
-0.241308
-0.237977
0.146407
-0.15631
0.00990329
0.0616431
-0.35491
0.293273
-0.00564192
-0.118138
0.12378
-0.000485359
-0.00907579
-0.142237
0.173633
-0.00926507
0.00743989
0.00182518
-0.11928
0.123891
-0.00461111
-0.237706
0.161939
-0.199414
-0.137619
0.105052
0.0325672
0.560131
-0.320334
-0.239795
-0.105471
0.0585844
0.40039
-0.283818
-0.116567
-0.0865232
-0.0800466
0.0628843
0.298032
0.039409
-0.0202321
-0.0191769
0.284617
-0.245789
-0.0388264
0.0258382
0.159121
-0.184959
0.183046
0.156353
-0.339397
-0.339033
-0.0783877
0.0710153
0.0152863
-0.0863017
-0.171709
0.053071
-0.126295
0.0107543
0.115541
0.0554994
0.317231
-0.0919201
0.0551128
-0.00224741
0.0119001
-0.00965265
0.0289511
0.0241954
-0.0119245
0.0016578
0.00944938
0.00437191
-0.0138213
-0.062422
0.112897
-0.050475
-0.441226
-0.0837807
0.480439
-0.165517
-0.314919
-0.298236
-0.119341
0.417585
-0.0107082
0.0107082
-0.00491751
0.00270407
-0.360767
0.24528
0.115489
0.213356
-0.216837
0.00348102
0.0128242
-0.00607305
-0.00750769
0.008619
-0.00111131
-0.0102487
0.0118234
-0.0015747
0.0107216
-0.0082969
-0.00242468
-0.176042
0.1216
0.0544424
-0.0878405
0.0490568
0.0387837
0.303164
-0.223054
-0.0801093
-0.0650851
0.116707
-0.0516223
-0.0121968
0.0124393
-0.000242491
-0.0270842
-0.0629988
0.0900829
-0.00419647
-0.11761
0.121807
-0.0376448
0.0171954
-0.317446
0.11291
0.204538
0.159879
-0.207742
0.0478629
-0.435697
0.0651416
0.370557
-0.0136089
0.173488
0.00915517
0.00507669
-0.0142319
-0.411552
0.549465
-0.137901
-0.0104542
0.0120266
-0.00157244
0.0206711
0.0187379
-0.01465
0.0142237
0.000426336
-0.146814
-0.0292277
-0.000544795
-0.000707226
0.0413572
0.0481531
-0.0895103
0.210625
0.0739919
-0.102803
-0.0348164
-0.142422
-0.218342
-0.0899879
0.0629038
-0.154203
0.342469
0.280716
0.194656
-0.475373
0.0411096
-0.083983
0.0428734
-0.41391
0.115685
-0.30719
-0.109059
0.0806768
-0.0690231
-0.0116538
-0.0229468
0.130593
-0.107646
0.192382
0.0209742
0.0793702
-0.109699
0.030329
-0.171525
0.452242
-0.193349
0.00831424
0.185037
0.27454
0.159272
-0.217311
-0.049058
0.26637
0.0601626
-0.12296
0.0627971
-0.000594696
-0.00965396
0.0081379
0.00224546
-0.0103834
-0.21599
-0.0394352
0.255426
-0.26731
-0.0501353
-0.0253132
0.0204182
0.004895
0.258604
-0.108241
-0.150363
-0.157544
0.0430778
0.114466
0.006067
0.00324168
-0.00930867
-0.130919
0.209518
-0.078598
0.00960824
-0.00354124
-0.141952
-0.12059
0.262542
0.114362
0.0414925
-0.0932094
-0.0153134
-0.00780109
0.108501
-0.133971
0.02547
0.0351439
0.424908
-0.460051
0.0652519
0.0154249
-0.00450202
-0.010148
0.350213
-0.315068
-0.149116
0.0402379
0.108878
0.00562447
-0.123054
0.11743
-0.0302825
0.191187
-0.160904
-0.138523
0.0179559
0.120567
0.219956
-0.0275733
-0.0494237
0.102891
-0.053467
0.030051
0.0106961
-0.0407471
-0.00596669
0.0116414
-0.00567471
-0.175723
0.145713
0.03001
0.113171
-0.0510971
-0.0620736
-0.345472
0.320961
0.0245154
-0.011961
0.00756447
0.00439651
0.000621942
-0.00277713
0.00215519
0.00047989
-0.381117
0.380645
-0.369437
-0.0188628
0.388306
-0.158432
0.192982
-0.000855832
0.00420943
-0.0033536
0.141163
-0.148693
0.00753002
-0.361866
0.0233633
0.338505
0.0944333
-0.0533237
-0.0100305
-0.0130006
0.0230311
0.0431967
0.0124473
-0.055644
0.060989
0.0521817
0.199311
-0.201151
0.00183971
-0.442638
0.370088
0.0725575
0.103142
-0.0479806
-0.0551619
-0.00292424
0.00640093
-0.00347669
-0.00375247
0.0128053
-0.00905282
-0.0376749
0.105865
-0.0681899
-0.0311146
-0.135091
0.166205
-0.0115502
0.00278675
-0.0352985
-0.185192
-0.140171
0.325365
0.190347
0.0296087
-0.0329939
-0.03375
0.0667439
0.111053
-0.0746209
-0.0364325
-0.284125
0.128194
0.155932
-0.10197
0.0369351
0.0650346
0.177969
0.0213426
0.170412
-0.154265
-0.0161466
-0.368951
-0.273734
0.107849
0.165885
-0.181733
0.0335995
0.148134
-0.0025479
0.00612663
-0.00357873
-0.0084247
0.00467223
-0.0103304
0.00221191
0.00811849
0.170268
-0.199791
0.0295232
-0.000370846
-0.0100833
-0.00199664
0.00428805
-0.0022914
-0.0011026
-0.00122529
0.00232788
0.150659
0.0197532
-0.385704
0.192356
0.0820299
-0.22398
-0.047846
0.0276884
0.0201576
-0.243932
0.0279427
0.0849295
-0.430396
0.0959705
-0.0249552
0.0249176
-0.0788272
0.0539096
-0.018895
-0.365912
-0.0697853
0.0845133
-0.215432
-0.0417428
-0.0503613
0.0921041
-0.028117
-0.274229
0.302347
0.0110198
-0.137315
0.234135
-0.225819
-0.000599412
-0.00536728
0.120938
-0.260202
0.139265
0.00267788
-0.00535328
0.0026754
-0.0038281
-0.00415208
0.00798019
-0.0435896
0.0358035
0.0077861
-0.160665
-0.225038
-0.189306
0.476046
-0.168909
0.194747
-0.152547
-0.013469
0.166016
0.0043301
-0.00165222
-0.14507
-0.0638246
0.208895
0.339693
0.0735289
-0.41322
0.0283985
-0.390262
-0.051833
-0.0338511
0.0856841
-0.115956
0.0694402
0.046516
-0.0103304
0.154893
-0.159089
0.0708485
-0.116578
0.0457293
-0.0348774
-0.240828
-0.416138
0.156014
0.260129
0.118084
-0.240478
0.122394
-0.00552193
0.00169382
-0.0472147
0.0846946
-0.0374799
-0.00217638
-0.00331083
0.00548721
0.132653
-0.0241521
-0.140555
0.14618
-0.149023
-0.12471
-0.027359
-0.00507463
0.0324337
0.204672
-0.0267028
6.29082e-05
-0.0011655
-0.28595
0.0621122
0.223838
-0.0117131
0.00511851
0.00659456
-0.079441
0.0487348
0.0307063
-0.0798244
-0.0692913
0.129009
0.124629
-0.253636
-0.488978
0.444099
0.0448939
-0.162769
0.0205319
-0.0260684
0.106961
-0.0808925
-0.0153996
0.0128517
0.103164
-0.126111
0.129348
-0.416048
0.286708
0.280513
-0.381524
0.101017
0.077151
-0.352689
0.275539
-0.112893
0.0617963
0.0661937
0.0189714
-0.0851651
-0.0469299
0.044516
0.00241383
-0.2352
0.213429
0.0217712
0.00889684
-0.00189622
-0.00700062
-0.0949689
0.057294
-0.104155
0.0390698
-0.241539
0.0136377
0.227902
-0.0576629
-0.0443067
-0.160015
0.343064
-0.436578
0.157553
0.279027
-0.0587389
-0.0125809
0.0713198
-0.575179
0.313454
0.26174
0.307941
-0.245052
-0.134876
0.078058
0.0568184
-0.264934
-0.0480494
0.312986
-0.00358419
0.0103732
-0.00678902
0.173349
0.0313233
-0.177673
0.130536
0.0471376
-0.29641
-0.278753
-0.136601
-0.0391216
-0.00465905
-0.00721532
0.0118744
-0.0615986
0.0931737
-0.413385
-0.127639
0.283393
-0.155754
0.0599399
-0.110371
0.0504314
0.00603405
-0.00700542
0.000971377
-0.345565
0.422716
0.400854
-0.462229
0.0613764
0.0625107
-0.0375931
-0.158993
0.0879716
0.0710214
-0.101537
0.130984
-0.0294471
-0.0603783
0.0387897
0.0215886
-0.253141
-0.183436
0.0789836
-0.04108
-0.161598
0.202678
-0.000896034
0.401751
-0.0217281
-0.0386502
-0.100373
0.0509496
0.0459362
-0.0960802
0.0501441
0.112738
-0.052798
-0.299611
-0.11429
-0.0148443
0.058041
-0.126053
-0.179839
-0.0891192
-0.20691
-0.0898088
0.0425941
0.339245
-0.112729
-0.226514
-0.0420448
-0.0671355
-0.0303662
0.2414
0.239042
-0.398616
0.122544
0.27608
-0.0807859
-0.0357919
0.00457709
-0.00193292
-0.00264417
-0.00174738
-0.00024926
0.255622
-0.0134364
-0.242185
-0.000639113
-0.137884
0.00224545
0.000122272
0.347261
-0.139255
-0.208005
-0.0614038
-0.0545524
0.17392
-0.189475
0.0155553
0.13517
-0.0412086
-0.0939615
-0.102679
0.0412751
-0.419038
0.119438
0.0438681
-0.0138171
0.180237
0.0992965
-0.279533
-0.0368255
0.116196
0.533413
-0.357657
-0.175749
0.0311161
0.00862468
0.000843225
-0.00946791
-0.390459
-0.0139875
0.404447
0.000133464
-0.0101639
-0.158742
0.182151
-0.0234093
-0.388585
0.236359
0.152226
0.013552
-0.141066
0.024144
0.122263
0.084137
-0.0498894
-0.0342476
-0.0051332
0.0177289
-0.0125957
-0.076199
0.0432051
-0.0586315
-0.227318
0.257611
-0.195964
0.00152868
0.00261107
-0.00413975
-0.0786861
0.0480479
0.0306382
0.404768
-0.251804
-0.152962
0.170835
0.0297455
-0.20058
-0.0435211
0.0894573
0.0696157
0.0335268
-0.0362725
0.00891352
0.00631962
-0.00479094
-0.253461
-0.0361352
0.289597
0.23879
-0.208376
-0.0304134
0.00310706
-0.00525784
0.00215078
0.30411
-0.191199
-0.205316
0.0602468
0.0939692
-0.0282708
-0.0656985
-0.155195
0.138539
0.016656
0.254198
-0.0326418
-0.221556
0.000449949
0.00412715
0.266977
0.210979
-0.477956
0.0832923
-0.0944406
0.0111483
0.045507
-0.0872499
-0.00954752
0.00954752
-0.30552
0.398704
0.27051
-0.163798
-0.106711
-0.351029
0.290523
0.0605069
0.370978
-0.198879
-0.172096
-0.0900385
0.0680431
0.0219955
0.219962
0.151018
-0.0996894
0.149682
-0.0499928
-0.233453
-0.117574
0.0517754
0.135767
-0.187542
0.136406
-0.389867
0.0365888
-0.180087
-0.121196
0.267773
-0.146575
0.017053
-0.218132
0.20108
0.308238
-0.265998
-0.0422377
0.284803
0.0234366
-0.023901
-0.16531
0.189211
-0.0479768
0.0111544
0.0368224
0.00190094
-0.00860026
0.00669932
0.0806558
0.153481
-0.0471244
0.0576116
-0.0104872
-0.134499
0.0461846
0.0883149
0.0102289
-0.00832797
-0.148839
-0.0281718
0.177011
0.134736
-0.0791371
-0.0555993
-0.097628
0.215713
-0.0434932
0.0765848
-0.0330916
-0.12366
-0.437333
0.025792
-0.0170096
0.356704
0.382704
-0.15487
-0.227827
-0.0120054
0.00687219
0.00044352
-0.183845
0.183402
0.458531
-0.0952286
-0.0161607
-0.116196
0.132357
-0.148044
0.0483542
0.130251
0.17386
0.180784
0.166478
-0.00235126
-0.000391235
0.00274249
-0.122186
-0.314215
-0.0261422
0.282103
-0.383574
0.101474
-0.00377551
0.00159913
0.0069975
-0.00979881
0.00280131
0.0522996
0.0416696
-0.0210641
-0.13648
0.177113
0.00439984
-0.00905889
0.27111
0.289024
-0.235614
-0.106702
0.342319
-0.0154748
-0.0207977
-0.366674
-0.0869822
0.453658
-0.329484
-0.0516279
-0.00379312
-0.0077571
0.298805
0.10159
-0.00126463
0.00988931
0.139703
-0.129383
-0.0103208
-0.142325
0.144206
-0.00188083
-0.0032187
0.0102162
0.015654
0.179766
-0.195419
-0.335812
0.1002
0.0141609
-0.0355963
0.0214354
0.123621
0.013145
-0.0039418
-0.047399
-0.0404416
0.347043
-0.209253
-0.137789
-0.344002
-0.0986286
-0.265757
0.157516
-0.0280467
-0.0349998
0.0630465
0.0518772
0.0622672
-0.114144
0.0125414
0.23701
-0.443892
0.388563
0.0553304
-0.223334
-0.0205975
0.0172044
0.0660879
-0.00377912
0.00688617
0.205127
-0.149403
-0.0557231
-0.141552
-0.124205
-0.285837
0.39819
-0.112353
-0.176432
0.0275928
0.107862
-0.0707269
-0.0371352
-0.00121227
0.00724632
-0.00891566
-0.0027974
-0.0570816
0.0595009
-0.00241936
0.0592005
-0.0766623
0.0174618
0.0664929
0.0185637
-0.0850566
3.42791e-05
-0.000845242
-0.193041
-0.0655602
0.258603
-0.405242
0.27595
0.129298
-0.270698
-0.193089
0.273747
-0.0850138
0.0568172
0.0281966
0.369333
-0.219656
-0.149676
0.181251
-0.00922542
0.00171773
-0.0362143
0.0534187
0.143039
0.0184579
-0.00900852
0.0706607
-0.0114602
-0.00440304
0.0014788
-0.210792
-0.073554
0.284348
0.163609
0.127766
0.183206
-0.310971
0.109709
-0.448736
0.0117324
-0.455624
-0.475144
-0.406649
0.153509
0.00111748
0.0105469
-0.0116644
0.0559189
0.199704
0.396286
-0.281695
-0.114582
-0.0497116
0.0910689
0.123333
-0.0845168
-0.0388162
-0.319269
-0.0859684
0.154969
-0.236448
0.08148
-0.0988473
0.0223535
0.0764939
0.00771737
-0.0664563
0.0233517
-0.181783
0.0567433
0.214937
-0.271677
0.036738
-0.19692
0.0151866
-0.00834754
0.0131284
-0.0047809
-0.0351185
-0.401067
0.20219
-0.000103336
0.00657416
-0.00647082
0.068466
0.054867
0.106326
0.2667
-0.373019
0.00186237
-0.0015381
-0.00032427
-0.00846361
-0.00119917
0.00966278
0.000417416
0.00182229
-0.00223971
-0.195375
-0.20569
0.267092
-0.210346
0.0038677
-0.156414
-0.101565
0.111807
-0.0102417
-0.136219
-0.0806827
0.216901
-0.00200099
0.0108978
-0.0693852
0.0413385
0.0210819
-0.0682062
-0.0283957
0.0887086
-0.0603129
0.136883
0.245829
0.0148965
0.124807
-0.00657165
-0.000681469
0.00725312
-0.00429557
0.0118493
-0.025799
0.0139497
0.212082
-0.277551
0.0654693
0.126029
0.0370822
-0.163111
0.0332797
-0.156333
0.000655427
-0.00104346
0.000388037
0.00605604
0.00466554
-0.0881898
0.0257679
-0.124901
0.245839
0.0244173
-0.241727
0.377025
-0.0869247
-0.2901
-0.04978
0.101657
-0.228176
-0.178471
-0.033314
0.0474749
-0.10707
0.14035
-0.00888278
0.0180379
-0.295043
0.22795
0.0670939
-0.275162
0.051829
-0.426072
-0.0628909
-0.119397
0.000116536
-0.0234372
-0.11937
0.142807
0.0649615
0.0429006
-0.26924
0.381518
-0.112275
0.124004
-0.0675229
-0.0564807
0.0131887
0.0362482
-0.0494369
-0.157497
0.176662
-0.0191642
0.303413
-0.174403
0.211398
-0.126548
-0.0848498
0.183423
-0.167759
-0.0156631
0.487309
-0.249955
-0.237353
0.131333
-0.164767
0.0334347
-0.00453569
-0.173328
0.015831
-0.0436504
-0.0469208
0.0905712
-0.0344804
-0.294372
0.400705
-0.197335
-0.500422
0.109962
-0.147839
0.0112375
0.187966
0.0662327
-0.116072
0.0892064
-0.299997
0.134109
0.12253
0.0107818
0.266805
0.142233
-0.40903
0.0198764
0.0792118
-0.0990883
0.186079
-0.19639
0.0103113
-0.0565238
-0.0437593
0.100283
-0.172102
-0.00557189
-0.0146943
0.00268893
-0.262919
0.0876886
0.175231
0.00431947
-0.00431947
0.132419
0.0284943
-0.160914
-0.0907383
0.153667
-0.0616111
-0.0178299
0.00854486
-0.0393023
-0.0264547
0.065757
0.139817
0.0368447
0.193606
-0.193162
-0.395213
0.19984
0.211037
0.11171
-0.322745
-0.135979
0.0780807
0.0578979
0.152544
-0.12809
-0.0244546
-0.0444803
0.133175
-0.0886942
-0.107685
0.0711597
0.0365254
0.00925539
-0.0486699
0.105547
-0.056877
-0.35612
0.506007
-0.149873
0.000949591
-0.00209948
0.00114989
-0.00682723
0.0498218
-0.0429946
0.143056
-0.228557
0.0855013
0.23856
-0.0275224
-0.0581343
0.0780108
0.00987774
-0.00550583
-0.134981
-0.0277879
-0.276352
-0.137761
0.414115
-0.0820087
0.0258775
0.0561312
-0.0971751
0.0535247
-0.144235
0.0645466
0.10251
0.0119182
-0.114429
-0.0392048
-0.00894912
0.0481539
-0.164091
-0.0527453
0.0637587
0.0344258
-0.0981845
0.000942441
-0.00114558
0.000203137
-0.0612803
-0.0413986
-0.0416557
0.0994898
-0.0572304
-0.0422595
0.0321264
-0.0839594
0.147287
-0.185502
0.0382158
-0.402171
-0.0591159
-0.102733
-0.319158
0.103992
-0.00340804
-0.0219052
0.0199261
0.0141822
-0.0341084
0.00398215
-0.00483799
-0.00962871
-0.0383481
-0.00629119
0.0087539
-0.00246271
0.00534447
-0.0060596
0.000715133
-0.0699591
-0.0120495
-0.0350621
0.182915
-0.00138205
-0.00226452
0.00364657
0.00824285
0.0300458
-0.0382887
0.207949
0.0251684
-0.0483583
0.0231898
-1.10932e-06
0.00859935
-0.00859824
0.0563529
0.0157686
-0.0721214
0.0828282
0.122299
-0.108474
0.402504
-0.294021
-0.19416
0.0300696
-0.213305
0.184404
0.0289012
0.156433
0.0269894
-0.0631228
-0.0597358
0.122859
0.0783051
0.260941
0.00344422
-0.00344422
-0.190625
0.166724
0.143404
0.0173515
-0.160755
-0.000261394
0.000916821
-0.218107
-0.0972113
0.31532
-0.147927
0.12449
0.0301246
-0.0182752
-0.238704
-0.097105
0.0265782
0.183466
-0.210043
-0.000206334
0.00169605
-0.00148971
-0.114534
0.416665
-0.302119
0.0432807
0.0807229
-0.152224
-0.00941252
0.00449775
0.00491477
0.186612
-0.0467947
0.130222
-0.142623
0.0124014
0.09069
-0.194574
0.0478
0.146774
0.0126049
-0.11417
-0.110563
0.00607453
0.104488
0.012871
-0.00326273
0.113795
-0.124081
0.0102858
0.148558
-0.271988
0.123432
0.00452254
-0.00465699
0.000134451
0.148161
-0.0179388
0.00466337
0.0144035
-0.00551206
-0.0088914
0.0402883
-0.09
0.0421702
-0.0807584
-0.186551
0.138396
0.230741
-0.369131
-0.0095316
0.00106799
0.104713
0.106685
-0.027475
0.158808
0.442778
-0.305293
-0.137482
-0.0538639
-0.000313017
-0.0567685
-0.0157526
-0.0141028
0.0298554
0.00184347
0.000459687
0.00385979
-0.0327425
-0.0522713
0.13548
-0.186282
0.0508024
-0.38212
0.273654
0.166429
-0.128637
0.112476
0.110378
-0.0441842
0.32881
-0.201172
-0.127635
0.0348463
-0.0741486
0.136613
0.033655
-0.0373933
-0.454615
0.442413
0.0122218
0.00192527
0.00197884
0.180953
-0.239451
-0.329026
-0.125793
0.0137318
0.112061
0.169415
-0.474706
-0.105996
0.372702
-0.00647848
0.000730516
0.00574797
0.0363228
-0.226442
0.177031
0.0494106
-0.252569
0.36428
-0.0514548
0.114096
-0.0626411
-0.0340618
-0.120184
-0.023154
0.182275
-0.0204945
-0.0581915
-0.214038
0.231092
0.00357499
-0.0101466
-0.128172
0.0189788
0.109193
0.103209
0.154026
-0.257235
0.0309735
-0.0157901
-0.0151834
-0.0030798
0.000302669
0.255705
-0.402497
0.146797
-0.0342545
0.0185019
0.236614
0.280681
-0.331703
0.0930011
-0.244386
0.108167
-0.0833686
-0.0164161
0.0997847
-0.000498942
-0.00306342
0.00356236
-0.0347866
-0.123955
5.60305e-05
0.000886411
0.0322585
0.109663
-0.141922
0.00455536
-0.0194365
0.0148811
-0.0756608
0.0472652
-0.162103
-0.0233991
-0.00677654
0.110304
0.160206
0.0147762
-0.0306493
0.0158732
-0.0735868
0.00518153
-0.00742894
0.00304015
0.00191114
0.0759891
0.171086
-0.247074
-0.0144413
0.0272615
-0.0128202
0.166447
-0.193895
0.0274486
0.00176203
0.130658
-0.024421
0.0576957
-0.0332747
0.020735
-0.0613411
0.0406061
-0.00401506
0.0084149
-0.392691
0.287576
0.105121
-0.0084703
-0.00622402
-0.144099
0.319831
-0.175732
-0.00260256
0.0154735
0.0411971
0.16573
-0.206926
-0.212937
0.105868
-0.172624
0.00486499
-0.344519
0.189261
0.155262
0.198404
-0.49908
0.300694
-0.0258071
-0.109419
0.135226
0.0701387
-0.0241851
0.080538
-0.442546
0.0985506
0.00772152
-0.00863447
0.000912956
-0.185043
0.0229404
-0.240159
-0.104356
0.11025
0.266776
0.0645052
0.0740993
-0.138604
0.0562209
0.0531582
-0.109379
0.0239951
-0.0484161
0.111899
-0.146686
-0.157752
0.366873
0.137166
-0.171616
0.0344499
-0.00560396
0.0106806
-0.130109
-0.329227
0.2165
0.337625
-0.14836
-0.0364908
0.173657
-0.0171785
-0.147118
0.164297
0.000245037
0.00319918
-0.31788
0.0997752
-0.0512098
0.07394
-0.0227301
0.0494051
0.0616484
0.0500982
-0.0569255
0.000760924
-0.000343507
-0.00402908
-0.00523599
-0.112856
-0.284489
0.397354
0.0279494
-0.153681
0.125732
0.123772
0.236038
-0.198601
-0.0374357
-0.195317
0.171407
0.0239108
0.00933652
-0.00933763
-0.315458
-0.0669948
0.382461
-0.16483
-0.23038
-0.498785
0.214829
0.283973
0.0387712
0.111781
0.0524706
-0.164251
0.249961
-0.101401
0.102464
0.0402752
-0.142739
0.0278588
-0.16284
-0.00706197
0.0152206
-0.00815864
-0.00285282
-0.00934394
0.366102
-0.227874
-0.138224
0.170154
0.130918
-0.301072
0.00574332
-0.156992
0.00248231
-0.00158514
-0.00089717
0.00158175
-0.00495919
0.00130769
0.0020706
-0.00337828
-0.0613334
0.0396053
-0.0430148
-0.0175135
0.0605283
0.0806766
-0.0417323
-0.0389443
0.0139882
-0.419315
0.0534029
-0.117328
0.275885
-0.0956465
0.167215
0.0514469
-0.218662
0.145775
0.258995
-0.0592262
0.0270048
0.0312209
-0.0582257
-0.00288168
-0.00782647
-0.242488
0.000949897
-0.0190329
-0.0349368
0.0539697
0.100071
0.317467
-0.417527
-0.0686951
0.204175
-0.121534
-0.0265095
0.298652
-0.379109
-0.0283042
-0.14132
0.167899
0.00575052
0.0146677
-0.00768472
0.00437388
0.0922523
-0.143018
0.0507654
0.00299606
-0.00701112
0.0857514
-0.0192585
0.00085968
0.00658021
-0.0616105
0.080582
0.0449105
-0.017222
0.0015961
-0.00327215
0.00167604
-0.121336
-0.00683501
0.0558182
-0.0426295
-0.101898
0.0532282
0.00717789
0.00722558
0.220092
-0.301582
0.0814915
0.11359
0.33286
-0.449208
0.116354
-0.0229569
0.0568944
-0.032832
-0.0240624
0.365448
-0.476502
0.092675
0.383827
0.0974028
-0.00433233
-0.0930704
-0.233672
0.398284
-0.164602
-0.0881235
0.0824816
0.0160575
-0.134196
-0.534047
0.310331
0.223718
-0.0741765
0.057298
0.0168785
0.190397
-0.2815
0.0911042
0.26375
-0.110569
0.0591143
-0.268454
-0.100829
0.36929
-0.0489781
0.088172
-0.039194
-0.0120058
0.0319319
0.283866
-0.109666
-0.174199
-0.243355
0.170275
0.0730808
-0.350631
0.110477
-0.102188
0.0680656
0.0341219
-0.270987
0.400344
0.0615854
0.150221
-0.211806
0.035482
0.0542169
-0.0896989
-0.137024
-0.157028
0.294052
-0.00355758
-0.000250812
0.00380839
-0.202248
-0.0640052
0.266255
0.00270289
0.00361673
0.2373
-0.0201631
-0.217137
0.0831076
-0.128294
0.0451863
-0.236734
0.329164
-0.0924285
0.00205127
-0.114112
0.11206
-0.150685
0.0291511
-0.349615
-0.0696997
0.170141
0.113726
-0.005834
0.00227642
0.234862
-0.262978
-0.00735787
-0.00552323
0.0128811
-0.00929952
0.0126258
-0.00332627
-0.168878
-0.0663217
0.296333
0.237086
0.302175
0.0821695
0.388216
-0.0621875
-0.326022
-0.00104402
-0.00543446
0.104093
-0.35666
0.00845272
-0.00574983
0.0076683
0.00303985
-0.0147092
0.102681
0.00215475
-0.00242754
0.000272787
-0.398121
-0.13133
0.226841
0.08436
-0.311199
-0.000797791
0.00074909
0.000847015
0.0646052
-0.175168
0.132563
0.223999
-0.35656
-0.145891
0.273658
-0.274375
0.0725929
-0.241706
0.169114
0.0755382
-0.101546
0.0260078
-0.005785
-0.0184235
0.0242085
0.167812
-0.166377
-0.00143514
-0.0103485
0.010577
-0.00285547
0.0386619
-0.0850328
0.0463709
0.122703
-0.0430017
-0.0797015
-0.278421
0.248356
0.030066
-0.00573725
1.78699e-05
0.00571938
0.00681172
-0.0395188
0.141983
-0.325664
0.088933
-0.276657
0.109996
0.166662
0.00340973
0.00169303
-0.00510276
0.141158
-0.00399574
-0.00541678
-0.0332213
-0.525298
0.3412
0.184099
-0.0596875
0.124193
0.188078
0.176568
-0.364632
-0.0523312
0.164231
-0.218592
0.122954
0.0956383
-0.400834
0.167174
-0.105563
-0.281089
0.386662
0.255581
-0.182987
0.00327715
-0.0027454
-0.000531751
-0.091996
-0.306602
0.3986
0.0114267
-0.000131952
0.000676526
-0.0969617
-0.179695
0.0599007
-0.324832
-0.0721161
-0.0223245
-0.0103401
0.00304306
0.007297
0.146444
-0.171912
0.0254688
0.000984379
-0.000453004
-0.000531375
-0.236162
0.112502
0.0810324
0.124182
-0.155297
-0.00216555
0.000783501
0.0210097
0.00996389
0.0106171
-0.00421124
-0.00640587
-0.445123
0.047021
-0.0168864
-0.188716
0.288014
-0.000380231
0.00136461
-0.353125
0.129731
0.223398
-0.0493817
-0.0247948
0.0941019
0.00640081
-0.00744483
-0.103211
-0.291527
0.394741
0.138036
0.310991
-0.449016
-0.0600465
0.0170317
-0.327681
0.0614715
0.26621
0.0033425
-6.5346e-05
0.0693171
-0.262356
0.0109364
-0.0253777
-0.175083
-0.111188
-0.270331
-0.0288572
0.135175
-0.086278
0.0350682
-0.00987242
0.00336074
0.00651168
0.151678
-0.165147
0.165074
0.0788725
-0.243946
-0.17081
0.186464
-0.0815897
0.216757
0.112056
-0.0588425
-0.41766
-0.110972
0.0731678
0.0378043
0.280534
-0.130827
-0.149707
0.00876671
0.0142562
-0.023023
0.00887071
-0.163303
0.154433
-0.000800687
0.003283
0.214827
0.0781244
-0.292949
-0.290555
0.39461
-0.10405
-0.0394812
0.0882831
-0.0488019
-0.00202348
0.00147908
0.000544399
0.0179028
-0.0382381
0.0203354
-0.194684
-0.0190794
0.213764
0.0114602
0.000439877
-0.0628595
0.277689
0.0126236
-0.00548478
-0.00713885
0.138686
0.0675917
0.0224183
-0.0900099
-0.171123
0.327479
-0.00165087
0.00241179
0.0907361
0.230642
-0.321376
-0.115234
-0.103358
-0.215715
-0.17287
0.333109
-0.235588
-0.0975192
0.277818
0.209492
0.0103192
-0.019202
0.0442663
0.0404315
-0.0846978
-0.0052207
-0.00638585
0.0116065
0.066517
0.0561863
-0.194317
0.169531
0.024786
0.148232
-0.178514
-0.469823
0.150185
0.319644
-0.409895
0.104385
-0.424562
0.31004
-0.167273
0.0374582
-0.0864362
0.251193
-0.209994
0.00664208
-0.00416329
-0.00247879
-0.055966
-0.0589545
0.114921
0.348708
-0.216143
0.156184
0.029895
0.00616069
0.00646294
-0.0767605
-0.0592181
-0.0566362
0.168417
0.147603
0.0435846
0.110871
-0.125259
0.0143879
-0.00195477
-0.00801063
0.0099654
0.0930269
-0.118834
0.025146
-0.0169032
-0.0198399
-0.128853
0.115854
-0.120106
0.00425171
-0.0383915
-0.0229419
0.146369
0.221559
0.101549
-0.323106
-0.109728
0.0466051
-0.085011
-0.0246881
0.298219
-0.0719177
0.0284245
0.0428283
0.0871916
-0.13002
0.0066962
-0.00762268
0.000926482
0.147437
0.133098
-0.0234626
-0.102708
0.019339
-0.120152
0.0165895
0.103563
0.168551
-0.0425222
0.388488
-0.19955
-0.188938
0.0492274
-0.250534
0.209657
0.0408782
0.00251266
0.00412942
0.220478
-0.223541
0.00306361
0.172774
-0.00282445
0.00159916
-0.0299879
0.169067
-0.194306
0.0252399
0.031241
0.21491
-0.308618
0.0937098
-0.000828324
-0.0461016
-0.000226789
-0.000157584
0.000384372
0.0900532
0.0592671
-0.0834017
0.0241346
-0.000553207
0.000326418
0.169569
0.027627
-0.197196
-0.0963189
-0.210443
-0.04009
0.0311791
0.152229
-0.183407
-0.156022
0.212012
-0.0559897
-0.020176
-0.0712567
0.0394978
0.0317589
-0.0779204
-0.163785
-0.022436
-0.140139
0.162575
0.0147019
-0.322513
-0.137143
0.459672
0.000750476
-0.00904738
0.186771
0.0505294
-0.145601
0.207187
0.0390031
0.047426
-0.0864291
0.00561844
-0.00572178
-0.10972
0.427466
-0.317733
0.342006
-0.217262
0.0612409
0.0848084
0.255302
-0.340106
0.477305
-0.170395
-0.306902
0.0153717
-0.0404888
0.0251171
-0.239446
0.506423
-0.187063
0.0181547
-0.284713
-0.113895
-0.0664241
0.0714971
-0.00507297
-0.392428
0.0980628
-0.00159249
-0.0419971
-0.0311639
0.0253789
-0.154028
-0.0893254
-0.00189243
0.00358288
-0.00169045
-0.326613
-0.115926
-0.179035
-0.0242225
0.203258
-0.0638969
-0.210099
0.273997
0.000614948
-0.000976389
0.000361441
-0.0774921
-0.400288
0.400502
-0.00020273
0.123069
0.226619
-0.349686
-0.240297
0.191871
0.0484269
-0.0851202
-0.227523
0.312645
-0.0839183
-0.050958
0.000481519
-0.00098046
0.00316838
0.00927087
-0.00176213
0.00391688
0.0716955
0.27872
-0.350413
0.0423379
-0.213148
-0.109444
0.111495
0.209345
0.00273782
-0.266671
-0.0864512
-0.0390519
0.049748
-0.000257
-0.000820856
0.00107786
-0.133434
0.142305
-0.0741899
-0.136252
-0.00121438
-0.00452286
-0.325691
-0.208353
-0.304163
0.375861
-0.0132796
0.0080589
-0.00217116
-0.0401653
0.0299614
0.00883537
-0.287255
0.00659727
-0.0078619
-0.0707367
-0.140647
0.211384
-0.126666
0.0416802
0.0849858
-0.379003
0.287009
0.156723
-0.175443
0.0187198
-0.287361
0.146382
0.140979
0.0881866
0.0465498
0.11789
-0.0502979
0.111258
0.0369024
0.348102
0.0769487
-0.425047
-0.00476307
0.00692638
-0.00216331
-0.0838938
-0.123848
-0.411618
0.0113413
-0.426824
0.426836
0.019271
0.201207
-0.217403
-0.110276
0.0760182
-0.278265
-0.0439987
0.00840244
0.0212105
-0.215893
0.0266954
-0.26113
0.0674481
0.193683
-0.0219682
-0.00121285
-0.000810629
0.174707
-0.387154
0.212459
0.00292193
0.0548534
-0.0577753
-0.0235652
-0.135014
0.158579
0.384048
-0.20933
0.0978958
-0.188634
-0.117041
-0.00407202
0.121113
-0.401765
0.135156
0.26661
0.385283
-0.220033
-0.165248
-0.0929646
0.38892
-0.295952
-0.136912
-0.158131
-0.096907
0.120988
-0.0240813
0.42789
-0.146355
-0.281527
0.096688
-0.240612
0.143925
-0.122837
0.122198
-0.0708644
0.41897
-0.115668
0.00356091
-0.0109188
-0.00990737
0.0144627
0.0312949
-0.0292598
0.0446315
-0.0260969
-0.0912921
-0.0288601
0.0165672
-0.0437621
0.0271949
-0.0229249
0.0510902
-0.0281653
-0.00795633
0.409331
-0.401356
-0.188761
0.240208
0.164561
-0.399461
0.234908
0.0136064
0.0275949
-0.0412013
-0.0244481
0.0532408
-0.0287927
-0.13814
0.106952
0.0311883
0.170315
-0.362555
0.0720057
-0.271141
0.207245
-0.101151
-0.304472
0.405627
0.15649
0.0823002
-0.0443518
0.0313513
-0.00768323
-0.00771638
-0.00821375
-0.00158506
0.0135769
0.0820424
-0.0956193
0.37474
-0.351375
-0.387391
0.516179
-0.128785
-0.092834
-0.288049
0.380885
-0.0100681
-0.055458
0.09094
-0.310687
0.201783
0.108907
-0.00613622
0.00383983
0.00229639
0.280258
-0.140753
-0.0240138
0.254332
-0.144771
0.106943
-0.131631
0.0246874
0.0212882
-0.162041
0.0877707
-0.0487676
-0.151108
0.127543
0.0429236
-0.41298
0.0904865
-0.40307
0.281727
0.121354
0.0968594
-0.0366967
0.0994756
-0.368713
0.325246
0.161913
-0.122332
0.0254252
0.0434594
-0.10503
0.0615708
0.288352
-0.381313
0.0195227
-0.0809106
0.0613879
0.270774
-0.374177
0.103406
0.2039
-0.227892
-0.381198
0.0904885
0.290715
-0.247817
0.19876
0.050546
-0.0269336
-0.0236124
0.119245
0.031813
-0.151058
-0.195792
0.0304828
-0.177943
0.107206
-0.00243722
-0.0410853
0.0112704
0.0298149
-0.398166
0.191271
0.206895
-0.104667
-0.0219993
0.137714
0.00786234
-0.00116614
0.0219356
0.0491711
-0.0711067
-0.000186706
-0.000603021
0.000789727
-0.0583677
-0.128379
-0.102917
0.115522
0.10754
-0.0513193
0.0397034
0.0706745
0.00784444
-0.0102058
0.00236134
-0.285991
0.408545
-0.119717
-0.263854
-0.120645
-0.208581
0.0334525
0.00235092
-0.0864513
0.000135111
-0.0105408
0.0104057
-0.171333
-0.0946627
-0.16236
0.23835
-0.00178301
-0.00104143
0.0200119
0.0818732
-0.101885
0.2046
-0.0275685
0.0573472
-0.0448999
0.371937
-0.116228
0.137264
-0.150873
0.0386194
0.0484852
-0.0871046
-0.0344389
0.0738908
-0.0394519
-0.224339
-0.107361
-0.0410852
-0.0492936
0.0903788
-0.110168
0.0812142
0.0289535
-0.00983166
0.00399681
0.00583485