/*--------------------------------*- C++ -*----------------------------------*\
| =========                 |                                                 |
| \\      /  F ield         | OpenFOAM: The Open Source CFD Toolbox           |
|  \\    /   O peration     | Version:  v2012                                 |
|   \\  /    A nd           | Website:  www.openfoam.com                      |
|    \\/     M anipulation  |                                                 |
\*---------------------------------------------------------------------------*/
FoamFile
{
    version     2.0;
    format      ascii;
    class       volVectorField;
    location    "250";
    object      ddtCorrDdt0(U);
}
// * * * * * * * * * * * * * * * * * * * * * * * * * * * * * * * * * * * * * //

dimensions      [0 1 -2 0 0 0 0];


internalField   nonuniform List<vector> 
18758
(
(-0.00766387 -0.00335094 -1.04104e-18)
(-0.0547444 -0.0353266 -1.64105e-19)
(-0.000423543 -7.39039e-06 9.13797e-19)
(-0.00810164 -0.00231619 -2.0482e-18)
(-0.0060898 0.00279248 -4.07815e-20)
(0.000562626 5.53887e-05 9.38316e-21)
(-0.000220999 0.000319853 -1.07069e-18)
(-0.00333316 0.00209156 1.79504e-18)
(-0.00561483 0.00216753 2.13946e-19)
(-0.00549948 0.000914969 -3.3926e-19)
(-0.0528533 0.00589503 -3.67104e-21)
(-0.00581332 0.193817 4.92407e-18)
(-0.0364199 -0.00375043 -3.27099e-19)
(-0.00277754 -0.0014262 1.32864e-18)
(-0.000182279 0.000292303 9.91468e-19)
(-7.96589e-05 9.44299e-05 1.71498e-18)
(0.00646194 0.196673 8.29186e-18)
(0.00112004 5.66603e-05 -1.63808e-21)
(-0.000172363 0.000273549 -1.36783e-18)
(0.00333955 0.00394364 1.92365e-18)
(-0.036642 0.00518887 -3.32717e-19)
(0.066775 -0.0481167 2.46922e-17)
(0.000523007 4.252e-05 -2.30629e-20)
(0.000242362 8.89428e-05 9.96627e-20)
(0.0688042 -0.0498298 -4.06925e-17)
(0.0393418 -0.0930311 3.7885e-19)
(-0.0123819 0.0292257 -1.49653e-18)
(-0.0988762 -0.0172724 -8.64906e-19)
(-0.0055079 -0.0442934 -1.41335e-18)
(-0.0555725 -0.0740907 1.82862e-20)
(-0.155975 0.533982 -5.89156e-18)
(-0.0164211 0.0316149 -3.08282e-19)
(-0.00304083 0.00200652 1.72986e-19)
(0.0714077 -0.0710509 1.19559e-18)
(-0.00603233 0.00433593 3.12059e-19)
(-0.0615322 -0.0506434 -1.2309e-19)
(-0.0370351 -0.00883443 -3.14757e-19)
(-0.00562757 0.00377164 1.53324e-19)
(0.089857 -0.0713833 -1.07233e-18)
(0.00309553 0.000205953 -1.6077e-20)
(-0.00704845 0.127109 3.90333e-18)
(-0.00613017 -0.0010968 -4.91498e-19)
(-0.00165865 0.144615 -9.40762e-19)
(0.00160119 0.000556915 -5.22383e-19)
(1.84146e-06 3.03237e-05 -3.8269e-19)
(-0.144509 0.485905 -3.35289e-17)
(-0.00533176 -0.00114098 3.19809e-19)
(-0.012732 -0.0444518 3.34987e-19)
(0.094398 0.062246 1.38507e-17)
(-0.00723288 0.000645277 -3.85505e-19)
(-0.0555218 0.0200457 2.71946e-19)
(0.34027 0.00215329 -1.12994e-18)
(-0.00707684 0.00168125 1.15061e-18)
(0.00197456 -0.00328692 -7.66285e-20)
(0.0415663 -0.0418739 -9.55475e-19)
(-0.0314106 -0.00199749 1.69574e-19)
(-0.000797825 -0.000666218 -1.90646e-19)
(0.00316807 0.00349272 -1.52474e-18)
(-0.0163051 -0.0402551 1.92909e-18)
(-0.000890186 -0.000666143 1.34979e-19)
(2.24768e-05 3.54648e-05 1.37381e-19)
(0.00166465 0.000207573 -7.07928e-19)
(0.0901319 0.062467 2.545e-18)
(0.0231082 -0.0440028 1.42739e-18)
(2.98937e-05 3.05293e-05 -4.5314e-19)
(0.0844314 -0.0666807 3.3412e-17)
(5.86112e-05 -2.68652e-05 4.57293e-21)
(-0.000343019 0.00083732 -1.26458e-19)
(-0.101232 -0.00878021 -8.1978e-18)
(0.00116991 0.000109297 2.00682e-21)
(0.318364 -0.0186335 -4.32761e-19)
(0.0462591 -0.0992162 5.42859e-19)
(-1.44319e-05 0.000222921 -1.00305e-18)
(0.0025668 0.0101219 -5.07967e-19)
(0.033878 0.045749 1.02551e-18)
(-0.159723 0.52828 1.08017e-17)
(0.0320965 -0.0660395 -1.87923e-18)
(0.0291698 0.173045 1.0062e-18)
(-0.00599518 0.00130344 4.87969e-19)
(0.0104496 0.135455 2.71536e-18)
(0.0193807 -0.0359982 5.35776e-19)
(0.0554411 -0.108837 -4.24194e-20)
(0.0235911 0.174707 -7.00406e-19)
(0.0112003 0.0319588 -2.69411e-19)
(0.00140372 0.00262305 8.39403e-19)
(0.035921 -0.0360403 -2.57708e-17)
(-0.000664179 -0.00477647 3.75413e-18)
(0.00343778 0.0109125 1.01729e-18)
(0.0856327 0.0478313 -7.62443e-19)
(0.0359504 -0.0334729 2.96405e-17)
(0.195882 -0.0701773 1.9435e-17)
(-3.28082e-05 1.82446e-05 -1.0722e-18)
(0.0140552 -0.0263023 -4.31736e-19)
(0.0991972 0.0546099 -4.80095e-18)
(-1.89062e-05 0.000211736 -5.95097e-19)
(0.000152915 -0.000154039 1.0205e-19)
(0.00184861 0.000231853 1.86066e-20)
(-0.00566323 -0.0280296 5.71939e-18)
(0.0221555 0.180165 -2.39704e-18)
(5.47729e-05 0.000325749 4.34128e-19)
(-0.164204 0.521051 6.53495e-17)
(0.0104665 0.00513813 -4.85459e-20)
(-0.000312048 0.0008749 -1.75927e-19)
(0.000143389 -0.000148676 2.9786e-20)
(0.0852951 -0.0706927 1.15037e-17)
(-0.0376516 0.0042639 -1.94138e-19)
(-0.00975309 -0.0457624 1.10841e-18)
(0.228193 -0.0544934 8.41303e-18)
(0.045034 -0.0612787 -4.52349e-19)
(0.0313366 0.00462038 -1.64625e-19)
(-0.000102811 9.85631e-05 -5.62729e-19)
(0.0104664 -0.00579329 -3.00552e-19)
(0.0074245 -0.00113348 2.02576e-20)
(-0.000234924 -3.93245e-05 4.37938e-19)
(0.0108673 0.00422776 1.07908e-19)
(-0.0358502 -0.0962592 -6.45402e-18)
(-0.00739902 -0.0271843 -3.38826e-18)
(-0.00127475 -0.000357853 4.34576e-21)
(0.00451542 -0.139865 -1.82338e-18)
(0.000177056 0.00408898 2.43769e-19)
(-0.000107917 -4.18462e-05 2.27277e-19)
(0.0286387 -0.0625893 -5.22579e-19)
(0.000914002 0.0029704 -1.49967e-19)
(-0.00034022 -0.00042432 -1.20185e-18)
(-0.000147063 0.183031 -1.20846e-17)
(0.00235191 -0.0030753 -1.41467e-19)
(0.000779569 0.000286073 3.24171e-19)
(-0.000322586 -0.00042016 1.36397e-18)
(0.003061 -0.0698654 -3.77287e-18)
(-0.00872076 0.213384 -1.85104e-17)
(-0.0137711 -0.0411641 -3.78414e-18)
(0.000149172 -1.65508e-06 -7.13285e-20)
(-0.0118469 0.00282534 2.86505e-18)
(0.193754 -0.0826699 1.03833e-17)
(0.00324842 -4.21642e-05 -3.39967e-21)
(-1.86409e-05 -2.49817e-05 7.03331e-20)
(-0.0229937 -0.0940419 -7.25452e-19)
(-0.000166086 0.00288522 -6.02727e-19)
(-0.0717326 -0.0796899 4.14713e-18)
(0.0172085 -0.036536 5.6962e-18)
(0.0080652 -0.00168234 -1.03289e-19)
(-0.0629958 0.0356214 -5.96225e-19)
(-0.00185498 -0.0203347 2.00697e-18)
(0.0386842 -0.0603708 -7.70025e-19)
(-0.00477061 0.191002 8.36882e-18)
(0.00859243 -0.0177223 4.86196e-18)
(0.0861891 -0.0721644 -1.1899e-17)
(0.00326176 -0.0624555 -3.68047e-18)
(-0.0535148 -0.00895542 -3.42761e-20)
(0.119654 -0.181046 -5.93706e-20)
(-0.0123758 0.207298 -3.18208e-18)
(-0.0181193 0.222462 -8.2117e-18)
(-0.000798024 -0.00037252 5.45295e-19)
(-0.00509068 0.00565409 -6.67266e-20)
(-0.00400203 0.14991 -6.67986e-18)
(0.17167 -0.0363975 -6.23145e-19)
(0.0130215 -0.0259256 -2.32964e-18)
(0.00576286 -0.0720807 2.88872e-19)
(0.0203881 0.0273375 8.43424e-19)
(-0.0579759 -0.017146 -2.75633e-19)
(-0.222808 -0.43243 -2.51576e-18)
(-0.000159461 -0.000616219 5.81507e-19)
(0.075493 0.0682254 -5.05216e-18)
(0.085446 -0.0780162 -1.98558e-17)
(-0.0445535 0.275621 8.64014e-18)
(-0.00151897 -0.000847345 1.86773e-19)
(-0.000209077 -0.000592868 -8.46418e-19)
(-0.0597763 -0.333768 1.08591e-17)
(-0.00908801 0.211507 2.3248e-17)
(-0.0156749 0.173733 -2.66469e-18)
(-0.0401842 0.226744 9.96247e-17)
(-0.000370021 -9.63706e-06 -8.86899e-19)
(-0.00626601 -0.0493651 3.08926e-19)
(0.00596426 -0.0552507 -1.59338e-20)
(0.0449092 -0.0587984 -6.66523e-19)
(0.000327374 0.000525344 6.4157e-19)
(-2.86917e-05 0.000215665 -8.19609e-19)
(0.0366805 -0.0835485 5.77856e-18)
(0.0681042 -0.0705732 3.00387e-18)
(-0.00103676 -0.00140288 4.82944e-19)
(-9.33834e-05 0.000677382 -1.11057e-19)
(0.0034996 -0.00205741 8.11967e-20)
(0.0388366 -0.0418732 -9.38523e-18)
(-0.00120152 -0.00216245 -2.37314e-18)
(0.0335603 -0.263658 -3.19911e-19)
(-0.000345039 4.59526e-05 4.22162e-19)
(-0.0496899 -0.088214 -1.34852e-19)
(0.00927834 -0.00842385 -3.75485e-20)
(0.118763 0.0400517 3.65958e-17)
(0.124897 0.0567448 -1.32296e-19)
(-0.0171938 0.229028 -7.24385e-18)
(-0.000338612 5.96358e-05 -8.12579e-19)
(-0.0600887 -0.00385366 1.15418e-18)
(0.0645421 -0.0557874 -5.04832e-19)
(0.000353899 0.000588495 1.91673e-19)
(-0.00136333 -0.00196015 1.99766e-18)
(-0.081943 -0.0930343 -9.28556e-18)
(-0.00076585 -0.000345738 1.16513e-18)
(0.131714 0.0283594 -2.37406e-17)
(-0.000184209 7.46204e-05 1.32819e-21)
(-0.00213881 0.00123472 7.16487e-19)
(0.0049046 -0.0754581 1.127e-18)
(0.0884929 0.0304346 -2.12505e-18)
(-7.79483e-05 7.42385e-05 -3.02042e-20)
(-0.000106734 0.000107548 -9.69339e-19)
(0.0918123 0.0507982 -1.25089e-18)
(-0.000123724 -0.00101298 -1.48028e-19)
(-0.00585765 0.005269 -4.40509e-19)
(-0.0106285 0.208886 -1.13085e-17)
(-0.00132737 0.218353 9.16977e-18)
(-0.000242873 3.41806e-05 -1.22363e-20)
(0.0120819 -0.0289944 -1.00389e-17)
(-0.0025802 0.0014629 -5.8021e-19)
(0.00334918 0.000512203 7.38361e-20)
(0.00256918 0.00273669 1.14698e-18)
(0.00194895 0.000291792 -1.13942e-20)
(-0.000104106 3.3072e-05 4.88187e-20)
(0.0121917 -0.0277415 9.06352e-18)
(0.000583937 8.20223e-05 -6.63873e-20)
(-0.0313029 0.0592561 4.95463e-18)
(0.0677122 -0.0524282 -1.26623e-18)
(-0.00135069 -0.000854514 6.5665e-20)
(-0.00313231 -0.0199475 6.57818e-18)
(0.00340634 -0.0767101 -6.70615e-19)
(0.0945312 0.0355577 1.89773e-18)
(0.00824284 -0.0307193 7.72487e-19)
(0.0403164 0.0450177 -2.62118e-18)
(0.0394353 -0.0264024 2.83981e-18)
(-0.181253 -0.406775 1.59163e-17)
(-0.000120608 -0.000929749 -5.78943e-19)
(0.0380506 -0.0975237 -2.76151e-19)
(0.00741802 -0.0179372 -5.16531e-19)
(0.0465508 -0.056835 -8.47218e-19)
(-1.19624e-05 -1.91963e-05 -1.32722e-19)
(5.12013e-05 0.000115408 -5.77384e-19)
(-0.00144243 -0.00101942 -3.42943e-19)
(-0.000195235 0.0768152 1.70044e-18)
(0.0659887 0.0888768 -1.99391e-17)
(-0.0479131 -0.0855446 -6.58832e-18)
(-0.00145752 0.00129411 4.17429e-18)
(-0.000119205 0.000121628 1.88683e-18)
(0.00143391 0.0692112 -1.2659e-18)
(-0.0616651 -0.0668247 -5.17548e-18)
(-0.000501982 6.12555e-06 2.57514e-19)
(0.108206 -0.205093 -9.90593e-19)
(-0.01897 -0.116952 -5.84862e-18)
(3.51811e-05 0.000105385 -5.42018e-19)
(-1.90291e-05 -0.000120666 -5.02453e-20)
(-0.0017233 -0.00193094 3.18779e-19)
(5.62938e-05 0.000346054 8.29635e-20)
(-0.0381047 0.202361 -1.31519e-16)
(0.000544022 0.00093625 3.98241e-19)
(0.0179047 -0.029367 -6.08588e-20)
(-0.00168081 -0.000960856 9.24494e-19)
(0.000513578 1.94627e-05 -9.84935e-22)
(0.0635037 -0.0638278 2.60926e-18)
(-0.00123117 -0.000816507 -3.16402e-19)
(0.0443555 -0.101979 4.76423e-19)
(-0.000131621 3.96852e-05 -1.42935e-19)
(-0.152518 -0.277647 -8.55057e-18)
(0.00747236 -0.000408618 -2.76386e-19)
(-0.000326217 -0.000468645 -1.17661e-18)
(2.73927e-05 0.000102067 1.13766e-18)
(-0.0570991 -0.00127651 -1.55897e-18)
(-0.147668 0.162472 -3.60039e-18)
(-0.155084 0.201789 8.9054e-18)
(-0.000289156 -0.000493129 1.08909e-18)
(-0.0609984 -0.0753262 1.89947e-18)
(-0.000799139 -0.000419859 -1.03841e-18)
(-0.000301651 0.000323053 4.27256e-20)
(-0.0244634 -0.143708 -4.62356e-18)
(0.0456286 -0.109298 9.56851e-20)
(-0.000248887 0.000288381 6.40683e-20)
(-0.000262863 -0.000682249 -1.21484e-19)
(0.00742456 0.00123784 -1.24952e-20)
(0.00231414 0.00243599 -9.30083e-19)
(-0.00879433 -0.00183953 1.68279e-18)
(0.000611913 9.59632e-05 4.31518e-20)
(0.00364104 0.000724736 1.82884e-19)
(-0.00288342 -0.00127653 8.4829e-18)
(-9.10607e-06 -0.000112873 -6.56057e-20)
(0.000137005 -3.32533e-06 -2.33753e-19)
(-0.000150274 0.000114557 1.89247e-18)
(0.0927922 -0.0836776 1.19147e-17)
(-0.000205774 0.000301419 2.44145e-18)
(-0.000243667 -0.000624334 3.25763e-19)
(0.000884248 0.000152135 1.61417e-20)
(-0.0536961 -0.0644082 2.55473e-18)
(0.00013515 -0.000168098 1.45164e-20)
(0.000133272 -0.000158343 4.8473e-21)
(-0.000435183 4.75011e-06 -2.15558e-19)
(-0.00139629 -0.00134665 -8.8924e-20)
(-0.000783358 -0.000594252 -5.81826e-19)
(-0.000563084 3.24138e-05 9.26681e-20)
(-0.000433954 2.62269e-05 6.1721e-20)
(-0.00181572 -0.0033128 -4.55947e-19)
(0.00453921 -0.0263379 -7.95402e-19)
(-5.16625e-05 1.38318e-05 1.04908e-18)
(0.000217783 6.50293e-05 -3.14049e-20)
(0.00129096 0.176329 -1.08213e-17)
(-0.00275897 -0.00373766 -2.25818e-18)
(-0.000490239 -2.476e-05 -2.03834e-19)
(-0.000482095 -2.5311e-05 -2.22497e-19)
(0.11643 0.0299497 -5.92037e-18)
(-0.00626974 0.0527324 -4.90877e-21)
(-6.08345e-05 0.000689245 4.77649e-20)
(-0.0137469 0.00782558 3.2973e-19)
(-0.0402096 0.00445065 1.90746e-19)
(0.00201717 4.00598e-05 1.5355e-19)
(-0.0299825 0.00226545 6.14179e-19)
(-0.00016087 0.000114054 -9.49933e-19)
(-0.102846 0.201854 1.46874e-18)
(-0.0752038 -0.0896413 1.5465e-17)
(-0.0470248 -0.0431478 -3.10735e-18)
(-0.00358164 -0.0425709 -2.89488e-19)
(0.073313 -0.0677819 6.96518e-18)
(-0.000213792 0.000874195 4.49737e-20)
(0.11528 0.0532673 1.49916e-18)
(0.00622366 -0.08535 -7.76363e-20)
(7.85497e-05 -2.82847e-05 -4.31823e-20)
(-0.0469527 -0.0394969 1.54e-18)
(0.0166652 0.02805 -1.16298e-18)
(0.100989 -0.188317 -2.48131e-18)
(0.000110288 0.000181901 9.23909e-19)
(-0.000254712 0.000843956 -6.04175e-20)
(-0.00638083 0.215378 5.91516e-18)
(0.00780547 -0.0349267 -3.56153e-20)
(-1.38916e-06 -0.000348258 -1.28273e-20)
(0.00934086 0.167429 1.91027e-17)
(-0.00376472 0.0586703 -4.17912e-19)
(0.00840211 -0.004628 1.64995e-19)
(0.238779 -0.0642384 -4.24379e-18)
(0.000109893 0.000169557 2.53964e-19)
(-0.00135878 -0.000949853 -5.00239e-20)
(-0.000138773 4.25911e-05 -4.61972e-19)
(-0.000252009 -4.62676e-05 2.30483e-19)
(0.00112918 9.6774e-06 6.70269e-19)
(-0.0012094 0.00279145 -4.40134e-19)
(-0.00354404 0.00186736 -8.57229e-19)
(1.91688e-05 -0.00119614 -4.46118e-19)
(0.00104504 0.000141573 6.94469e-19)
(-0.00162581 0.00109052 -9.04467e-19)
(0.0732144 0.0687696 3.41104e-19)
(0.123142 0.0310748 -3.34913e-19)
(-0.000574214 0.00257829 -1.59747e-19)
(0.112782 0.0436972 1.08378e-18)
(0.0283144 0.144809 2.23078e-18)
(-5.02104e-06 -0.000322411 -2.50407e-19)
(-0.00245963 -0.0119036 -3.6066e-18)
(0.000647868 0.0618602 3.98433e-19)
(0.0710193 -0.0415586 5.22924e-18)
(-0.0713283 0.06857 -6.56459e-19)
(-0.0925193 -0.0574558 8.0417e-18)
(-0.000335167 2.79023e-05 1.32754e-19)
(0.000521506 0.163265 5.18271e-17)
(-0.136894 -0.338387 6.32893e-18)
(0.00468439 -0.0124306 -3.62872e-20)
(-0.00160782 0.00100464 -3.28452e-19)
(0.00783549 -0.00535217 1.51246e-19)
(0.00318805 0.00123883 -7.89407e-20)
(0.00122544 0.000582438 4.35436e-19)
(-0.0778357 -0.101303 2.88661e-18)
(0.0568904 -0.05901 -1.05939e-18)
(-0.0665406 0.0952468 5.13834e-18)
(0.0541991 0.0453428 1.47718e-18)
(0.0606804 -0.0660529 1.91475e-18)
(4.41513e-05 0.000114931 -2.14933e-19)
(-0.0031324 -0.00562508 -6.64327e-18)
(0.00401505 -0.00214617 -9.80108e-20)
(-0.00900574 -0.0287653 -4.34362e-18)
(0.0704892 0.0778081 1.1285e-17)
(-0.0254971 -0.0854045 -1.61255e-19)
(0.0448524 -0.0542173 4.64228e-19)
(-0.124578 0.109099 5.52371e-19)
(-0.0152711 0.109876 3.87499e-18)
(-0.0776788 -0.0537456 -6.59189e-18)
(0.000474677 1.41384e-05 -6.29102e-22)
(0.0879929 -0.0647667 -2.61953e-18)
(0.00563846 -0.0647884 5.39421e-18)
(-0.0362646 0.0427699 -6.66392e-20)
(-0.0569974 0.113889 -1.07837e-18)
(5.17917e-05 -3.5585e-05 -2.56879e-20)
(0.000266587 8.80735e-05 7.76416e-20)
(0.0676618 -0.0451644 3.1055e-18)
(-0.0669358 0.0930091 -3.07517e-18)
(0.0670726 -0.0046883 5.54281e-19)
(-0.0316083 -0.149543 1.4533e-18)
(0.00214759 0.179029 1.31309e-19)
(-0.00157066 0.00125327 -4.66148e-18)
(-0.00622724 0.197837 2.78551e-19)
(0.0294052 0.00372206 8.84372e-19)
(-8.74588e-05 9.89785e-05 -2.28612e-18)
(-0.00295488 -0.000834604 9.31192e-18)
(0.00283004 0.00150827 5.85225e-19)
(0.00355234 -0.00170161 5.98712e-19)
(-0.000120406 -4.14982e-05 2.56555e-20)
(0.00315046 0.00159087 1.37641e-20)
(-0.00040819 -7.09062e-05 3.96586e-19)
(0.000103358 -3.52363e-06 7.58236e-20)
(-0.000530183 6.24377e-06 6.36772e-19)
(-0.00283437 -0.00157304 -9.2494e-21)
(-0.0124862 0.0134341 -2.0881e-19)
(-0.0485783 -0.264845 -2.20481e-17)
(-0.000776134 -0.00752051 2.50691e-18)
(-0.166698 0.367148 3.46122e-18)
(-0.158602 0.376227 1.58019e-17)
(-0.0177642 0.201528 7.46716e-18)
(-0.093829 -0.308406 7.24822e-18)
(-0.00600372 -0.0660077 -1.26647e-19)
(-0.00206264 -0.00276702 -5.06108e-19)
(0.000310269 7.80469e-05 -3.56091e-20)
(-0.00693226 0.153029 1.50803e-18)
(-0.00304229 -0.000660584 -2.85884e-19)
(-0.00132958 0.00152976 1.44561e-18)
(-0.00949787 -0.068471 8.99716e-19)
(-0.0108026 -0.0277815 1.574e-18)
(0.0225456 0.000724292 -1.6682e-19)
(-0.00109888 -0.000876224 -1.54289e-19)
(0.0645266 0.070635 -3.00776e-19)
(1.32381e-05 3.4171e-05 9.38555e-20)
(-0.00294527 -0.0039012 -8.64132e-18)
(0.000118618 0.000663118 1.1828e-19)
(0.141044 0.00516155 -7.56101e-18)
(-0.10185 0.168452 2.32061e-18)
(-0.0635463 0.060819 -2.56854e-19)
(-0.000445215 2.62814e-05 3.52824e-19)
(0.250093 -0.0515325 1.98128e-18)
(0.0151837 -0.0224749 8.56938e-19)
(-0.000142241 2.86031e-05 -5.47504e-19)
(0.00315476 -0.00219777 3.09435e-19)
(-0.000177924 3.31992e-05 -1.54599e-19)
(0.0453719 -0.0528226 -1.62603e-20)
(-0.00030854 2.93194e-05 1.95684e-19)
(-0.000573501 2.9804e-05 3.3995e-20)
(-0.117359 0.39924 -7.52902e-18)
(-0.000359295 -0.00759621 1.01859e-18)
(-0.00146143 0.00147863 -1.74328e-18)
(-3.06338e-05 0.000202469 1.73335e-19)
(-0.00259445 0.00268085 1.16935e-18)
(-0.00538016 0.00434284 -3.07774e-18)
(-0.031337 0.0727279 -4.7679e-20)
(0.0096458 -0.0385632 -1.7279e-18)
(0.000270085 1.10891e-05 7.0466e-20)
(0.0846854 -0.064716 -2.6688e-17)
(0.000158503 0.000665366 -3.05433e-20)
(-0.00150249 0.00324334 -6.92233e-19)
(0.0379749 -0.0249307 -2.56677e-17)
(-0.000203031 -5.77557e-05 7.95148e-19)
(-0.145612 0.503488 -1.93654e-17)
(0.000254931 1.59388e-05 -1.209e-19)
(-0.00555849 0.00490004 2.92534e-18)
(-0.000429354 -8.16288e-06 2.21948e-19)
(-0.0420624 -0.0682735 2.5322e-18)
(-0.00224398 -0.00473044 -2.15799e-19)
(-0.00039838 -5.82119e-05 7.28664e-19)
(0.0404544 0.118748 1.08846e-17)
(-0.0166309 0.0536075 5.14593e-19)
(0.000940123 0.000161391 -1.42693e-20)
(-0.00339185 -0.00540284 8.50671e-18)
(-0.00107574 0.00426297 2.60091e-20)
(-8.10852e-05 8.208e-05 1.2855e-18)
(-0.000539932 -2.32509e-05 -1.35984e-19)
(-0.000168383 1.55798e-05 -5.83908e-19)
(-0.210298 0.194242 3.77047e-19)
(0.0322295 -0.107922 6.5916e-18)
(-0.00112627 -0.000258068 1.45101e-18)
(-0.0133161 -0.0117047 -7.97002e-18)
(0.0540956 -0.0820584 3.9812e-19)
(0.0336919 -0.082106 -6.12712e-19)
(0.00756056 -0.222604 3.22901e-18)
(-0.0318332 -0.121123 3.1452e-18)
(0.00770146 -0.210987 -3.6585e-18)
(-0.00132423 -0.000101986 -3.54292e-19)
(-0.00770794 -0.0623118 -1.14347e-19)
(-0.00557282 0.0642649 3.4536e-19)
(-0.00325535 0.0162164 -2.92268e-19)
(-0.00281564 0.00220292 2.39142e-18)
(-0.0231 0.0505455 -3.75416e-18)
(0.0148804 0.0230014 1.40894e-19)
(0.00777088 -0.00245139 1.9102e-20)
(-0.000514714 -3.25861e-05 7.0301e-19)
(-0.000213336 0.000331751 2.64478e-18)
(0.000130882 -0.000197581 -3.5187e-20)
(-0.000199221 -5.07651e-05 -2.48353e-18)
(0.000117433 -0.000188344 1.27406e-20)
(-0.00017201 -3.88371e-05 2.422e-18)
(-0.0295655 0.0184025 -3.53272e-19)
(-0.000300905 -1.66714e-05 3.61584e-19)
(0.000276882 0.000555955 8.2791e-20)
(0.0162049 -0.0199161 -2.42736e-18)
(0.000141644 1.4863e-06 3.28327e-19)
(-0.000442363 -6.67096e-06 1.12138e-20)
(0.0030283 0.000707208 -4.14391e-20)
(-0.000873221 0.00399919 -9.69074e-20)
(0.0170618 0.0191675 8.45912e-20)
(-0.0372266 0.00207649 -9.33051e-20)
(-4.57169e-06 -0.00109562 2.36986e-19)
(-0.0501813 0.0344811 6.67207e-19)
(0.000582533 1.42438e-05 8.3698e-21)
(-0.0014882 -0.00791564 1.23878e-17)
(0.0255423 -0.0549604 -2.9841e-18)
(-0.00714443 -0.0825515 -2.02563e-18)
(-0.158202 0.0978382 -1.34636e-18)
(-0.000107101 3.87806e-05 6.99667e-19)
(-0.000343293 1.4606e-05 -1.81328e-18)
(0.0318849 -0.0944688 3.08026e-18)
(0.212798 -0.0719569 -7.57083e-18)
(0.0004592 0.0124887 7.37916e-20)
(-0.0009213 -0.000774405 -4.31315e-19)
(0.00531673 -0.0472825 2.15287e-18)
(0.091397 -0.0793753 6.4386e-18)
(0.000908922 0.000137478 -3.76357e-21)
(0.000632261 1.70767e-05 -6.53839e-21)
(-0.195691 -0.452962 8.86675e-18)
(0.0023665 0.00314279 -3.53376e-19)
(0.0166766 -0.0390768 4.90366e-18)
(0.00286476 0.0118251 1.89087e-18)
(0.00347465 -0.00283838 5.85331e-20)
(-0.0141848 -0.0110881 1.83125e-18)
(-1.60108e-05 -0.000131621 8.30156e-20)
(0.000371606 0.000414209 -1.3319e-19)
(-5.21706e-05 1.66699e-05 8.36827e-19)
(0.000349552 3.87533e-05 -1.265e-19)
(-0.000212436 -0.000833502 4.83932e-19)
(2.54701e-06 2.69966e-05 1.15284e-18)
(0.0222593 0.00525372 3.02465e-18)
(-0.000162653 0.000420036 -1.07454e-20)
(0.0219436 -0.000693578 -3.31776e-20)
(0.0447587 -0.0721762 3.62995e-19)
(0.00096762 0.000141302 -3.32656e-21)
(-0.000155922 0.000449544 -4.16563e-20)
(-0.000264477 -9.10627e-06 -4.39378e-20)
(-0.00591472 -0.00459253 -1.29007e-19)
(0.00914424 -0.00177861 -1.74193e-19)
(0.01245 -0.0406084 4.08515e-18)
(3.80179e-05 0.000301606 -8.88978e-19)
(0.109399 0.0835688 -1.31976e-19)
(-0.0119201 0.00919061 -1.9932e-19)
(-0.00213098 0.0155814 1.08523e-19)
(0.000288548 -0.000498454 -2.65734e-19)
(-0.00267191 -0.00116945 1.34663e-19)
(-0.00160908 -0.00231716 4.95473e-19)
(-0.00124742 -0.000134115 3.11681e-18)
(-0.00118743 -0.000154925 -2.66454e-18)
(0.0247061 0.134119 -2.29614e-17)
(0.0385721 -0.268181 1.31785e-19)
(-1.32175e-05 -0.000103204 1.03544e-19)
(-0.000191564 -0.000762449 9.71372e-20)
(-0.00136727 -0.00124807 -5.34447e-19)
(-0.0490286 -0.316263 -1.40296e-17)
(8.74488e-05 0.000705502 -1.47291e-19)
(0.00208822 0.000185069 -2.32477e-20)
(-0.00016903 -3.0953e-05 -1.05442e-18)
(0.000236728 0.000569532 -2.98644e-19)
(-0.000275159 -0.000511164 1.76812e-19)
(0.000220855 -0.00052764 1.00791e-19)
(0.00206274 0.00129051 1.39502e-18)
(-7.63743e-05 8.62815e-05 -1.29644e-18)
(-0.0188253 -0.0423118 -9.26005e-19)
(3.71415e-05 0.000285868 4.04582e-19)
(0.00360979 1.04742e-06 9.72409e-21)
(-0.0632423 0.0787963 -5.13241e-19)
(-0.0325898 -0.0773222 -6.3546e-18)
(0.00661276 -0.00319824 -5.77464e-19)
(0.000665868 0.000483674 -7.26037e-20)
(0.000123454 0.000463428 -5.65997e-21)
(-0.000389262 -1.08759e-06 6.65292e-21)
(-7.148e-05 0.000198263 -1.12785e-18)
(-0.000336768 0.00353815 -5.55389e-19)
(0.0189093 0.00232079 2.00145e-21)
(-0.0214188 0.0849715 2.79852e-18)
(-0.00120843 -0.0013791 -3.06566e-18)
(0.00670925 0.0397909 -1.70872e-18)
(0.000151077 0.000468564 1.2156e-19)
(-0.00208871 -0.0125794 -3.47894e-18)
(0.0010571 0.000292567 -5.33079e-19)
(-8.82773e-05 7.35846e-05 -2.3892e-19)
(0.00719335 -0.0194772 -2.36154e-18)
(0.0011755 0.000169687 -5.88193e-21)
(0.000327511 3.90941e-05 -6.01418e-20)
(-0.0681053 0.122007 1.07613e-18)
(-0.000419893 -9.47101e-06 -7.53501e-19)
(-0.00148864 -0.00203012 1.63773e-18)
(0.0533369 0.0385225 -2.57743e-19)
(-0.00046301 -1.94326e-05 1.69273e-19)
(-0.000308049 0.000155651 -2.87397e-18)
(0.133178 0.0164476 4.40384e-19)
(-0.00133204 -0.000276242 3.78574e-19)
(-0.0288571 0.026763 1.86281e-21)
(0.00892739 0.0309069 -7.70134e-20)
(-0.000598496 -1.10837e-06 -6.93242e-19)
(-0.000438663 -7.2336e-06 3.16044e-20)
(0.0101108 0.0286981 9.68308e-19)
(-0.00254756 0.00381245 1.59804e-18)
(0.00883887 -0.0025695 -1.81261e-20)
(0.000331252 0.000485362 -4.85237e-19)
(-0.156449 -0.346205 -5.24867e-18)
(0.0054267 0.0412473 2.93125e-18)
(0.0181395 -0.189259 -1.20259e-17)
(3.24641e-07 -0.000150313 -1.02454e-19)
(-0.0045634 0.178796 -3.30037e-18)
(0.000337591 0.000466387 -2.24782e-20)
(-0.00022066 3.31148e-05 3.92549e-19)
(2.04111e-05 0.000222909 5.79528e-20)
(-0.00500171 0.00335264 -3.74188e-19)
(0.013965 0.194576 2.18086e-18)
(-0.0973274 0.0746856 -1.27619e-19)
(-0.00186744 -0.00168406 -1.22699e-18)
(-0.00124115 -0.00202219 6.7509e-18)
(0.000873501 0.00378276 1.34174e-19)
(0.0668425 0.0705976 1.59447e-18)
(0.0031912 -0.0433121 -1.04631e-18)
(-1.59558e-05 6.78888e-05 -2.94994e-20)
(-0.016356 0.00769763 5.11904e-19)
(-0.003473 -0.00371345 -4.71707e-18)
(0.0442782 0.107948 -8.62196e-18)
(-0.0114579 0.00200583 -1.65676e-19)
(0.0098606 -0.00733558 1.07298e-19)
(0.000124147 -0.000371454 9.06974e-20)
(-0.00432213 0.00400485 2.01631e-19)
(-0.0143745 -0.0278559 2.59843e-18)
(-0.00060247 -3.07468e-06 -8.02936e-19)
(0.000121761 -0.000390708 -1.12668e-19)
(4.9058e-05 0.000687348 1.94607e-19)
(-1.78528e-05 -0.000237496 1.01658e-19)
(-0.00938647 0.000828889 6.17139e-19)
(0.00862686 -0.0323501 1.037e-19)
(0.016146 -0.0267515 5.59746e-20)
(-0.0347971 0.0932668 -4.8005e-19)
(0.00904737 -0.00819538 9.60185e-21)
(-0.00203366 0.0044485 1.88424e-19)
(2.03079e-05 0.000237064 -8.31055e-19)
(-5.05552e-05 -0.000109356 2.62573e-20)
(0.0227616 -0.00170452 -4.19131e-21)
(0.0702687 -0.0442902 4.86208e-18)
(0.0032364 0.000486408 3.28633e-20)
(-0.00538412 -0.0208705 2.90537e-18)
(-0.00850066 0.225693 -1.67621e-17)
(0.0223941 0.140269 -6.56318e-18)
(-0.00015331 1.92972e-05 4.50368e-19)
(0.000337285 2.64285e-05 2.36338e-19)
(0.0150225 0.031838 -3.91596e-19)
(0.0130492 -0.194278 4.74478e-18)
(0.000381063 0.000457164 5.18022e-20)
(0.011086 0.0549001 -4.0083e-19)
(-3.64584e-05 0.000429507 -6.5835e-19)
(0.000107263 1.55113e-06 -4.80423e-20)
(-0.00270491 -0.00930002 5.66667e-18)
(-0.000149164 2.44939e-05 5.33478e-19)
(-0.0011885 -0.000239513 -4.00063e-19)
(0.00240564 0.000366888 9.98825e-19)
(4.44796e-05 -0.000136049 -1.92909e-20)
(0.00311308 -0.00120327 -1.68559e-19)
(0.0108387 -0.0345489 -1.43125e-18)
(0.00602901 -0.019809 1.02999e-17)
(0.0464733 -0.00114217 -3.82062e-18)
(0.0033557 0.000162522 -2.22946e-19)
(-0.00029654 -0.000563897 -4.79934e-20)
(-0.00250832 -0.121874 1.20204e-17)
(0.00220643 0.000244494 2.36952e-20)
(-0.00831473 -0.150308 4.83956e-19)
(0.0113898 -0.0076076 -1.07629e-18)
(-4.93724e-05 0.000462368 1.10096e-19)
(-0.0186365 -0.079909 5.41203e-19)
(0.00399011 0.000290634 1.29761e-20)
(0.000747085 0.000753044 -1.3032e-19)
(-0.00401211 -0.108995 -3.7266e-18)
(0.0100438 -0.045094 -1.49037e-21)
(0.00663033 -0.046772 1.34849e-20)
(-0.172434 0.165063 -1.81334e-18)
(-0.00221683 0.0035383 -1.57279e-18)
(-0.0123231 0.0193327 -1.26691e-19)
(-0.000204494 0.000386176 -2.63711e-19)
(0.0896711 -0.0587738 6.17061e-18)
(-0.0170685 0.196342 5.54879e-18)
(0.00383544 -0.011188 1.32862e-19)
(-0.00184132 -0.0011465 -6.0594e-19)
(-0.0251024 0.142431 2.57707e-18)
(-0.00342834 -0.00339781 1.95934e-18)
(0.0345987 0.00689072 -1.56059e-19)
(0.03656 -0.0492398 -4.30329e-21)
(-0.0704616 -0.192721 5.872e-19)
(-0.000746348 -0.000261276 -2.75139e-18)
(0.00138383 0.100937 -8.1981e-19)
(-0.000195992 6.27001e-05 3.19224e-19)
(-0.00658086 -0.0219805 1.35317e-18)
(-0.00431466 -0.0471678 -2.41065e-18)
(-0.00044433 -2.73107e-05 4.93981e-19)
(-0.0111383 -0.00659004 2.28229e-18)
(0.0381575 -0.0627675 1.33295e-18)
(-0.0352487 0.0237931 4.48739e-19)
(0.00493022 0.00726581 -2.13544e-18)
(0.00224802 0.00147634 -4.92974e-19)
(0.000308029 0.000599071 -3.3429e-20)
(-0.00170076 0.000866888 -1.5855e-19)
(-0.00246728 -0.0038538 7.58063e-19)
(0.00806819 -0.008834 1.0314e-20)
(0.0325614 0.0649412 -4.46908e-18)
(-0.000532042 -0.000548989 -1.79336e-19)
(-0.0247018 -0.115158 -3.21209e-18)
(-0.00166333 0.00423018 8.48669e-21)
(-0.000296713 0.000409469 1.44486e-19)
(-0.0017915 -0.00587798 4.97201e-18)
(-1.11634e-07 0.000411008 -1.92077e-19)
(0.0124714 -0.00836051 8.15314e-21)
(-0.000140576 0.000116663 1.20367e-18)
(-2.24533e-05 -0.000252077 -7.23704e-20)
(0.062972 -0.233312 3.33844e-19)
(-2.50449e-05 -9.37658e-05 3.15732e-20)
(0.0035903 0.00109581 5.77565e-20)
(-0.022978 0.104874 7.15497e-19)
(0.0151113 -0.0238666 3.51534e-18)
(0.0201334 -0.0180873 4.88246e-18)
(-0.000331477 -4.06622e-05 -5.79967e-19)
(-0.000190659 0.000185595 1.23993e-19)
(-0.0411538 -0.00278835 -2.37812e-19)
(-5.95926e-05 8.44619e-05 4.96913e-20)
(0.0186626 -0.191158 -1.96694e-18)
(-0.0022523 -0.00364218 -4.23003e-18)
(0.00253137 0.00351802 -1.49801e-19)
(-0.00257177 -0.000431705 2.83875e-19)
(-0.000253184 0.000658832 -1.23133e-19)
(0.00036621 0.000543144 -3.40319e-20)
(-0.129054 -0.380233 -2.46808e-17)
(1.29843e-05 0.000437586 1.0414e-19)
(-0.286745 -0.385225 6.53322e-18)
(0.00855377 -0.081127 -6.16649e-20)
(-0.00114719 -0.00144784 -4.19843e-18)
(0.285768 -0.0378061 1.79249e-17)
(-9.72154e-05 9.29531e-05 4.10757e-19)
(0.00789429 -0.00384835 -1.52964e-19)
(0.00443032 0.00687866 -1.98084e-19)
(0.0775092 0.140052 3.50426e-18)
(-0.00181163 -0.00354029 -6.56756e-18)
(0.0215573 0.00185507 1.33683e-19)
(-0.00119185 0.183443 2.5199e-18)
(9.8864e-05 2.97881e-05 1.71821e-19)
(-0.00771758 0.105434 -7.78263e-19)
(-0.00046341 -5.45516e-05 8.67453e-20)
(0.0347592 -0.0477143 -7.20055e-19)
(-9.42361e-05 7.52416e-05 -2.16064e-19)
(-0.00150698 0.000118182 1.88002e-18)
(0.15954 -0.0901175 -4.61538e-18)
(-0.0495766 0.108357 3.60622e-19)
(-0.000116683 0.000111908 -6.28718e-19)
(0.000341993 0.000543053 -6.39325e-19)
(-0.00285944 0.00252461 -1.65673e-18)
(-0.000201202 -0.000360589 3.09013e-19)
(-0.00032295 -3.10018e-05 -2.51126e-18)
(-0.0305985 0.0911494 -5.74538e-19)
(0.143662 0.0379805 1.02638e-17)
(-0.000835844 -0.0010652 5.04646e-19)
(-0.000204225 -0.000358865 4.08062e-19)
(-0.000456938 -5.6545e-05 3.15959e-19)
(0.00263725 0.0979402 3.29565e-19)
(-0.0852279 0.0819425 6.07475e-19)
(0.0115396 -0.0109058 2.21303e-21)
(2.57925e-05 -0.000132231 -3.69868e-20)
(-0.0149027 0.013359 1.16974e-19)
(-0.00147643 0.000189786 3.55704e-19)
(-0.000239488 0.000207271 -2.95169e-19)
(-0.00102666 -0.00800571 -3.13077e-18)
(0.0224882 0.188604 9.25656e-19)
(-2.10207e-05 6.15189e-05 -1.88699e-18)
(-0.00407753 -0.021279 -6.66059e-18)
(0.0187704 -0.0463407 1.70566e-20)
(0.00667152 0.00101918 2.99419e-21)
(-0.0141877 0.024567 5.19195e-20)
(-0.000472471 0.00013073 -1.85524e-18)
(-0.0112947 0.0037195 -3.39261e-18)
(-1.98954e-05 5.63227e-05 4.89086e-19)
(-0.00160318 -0.000137877 -8.65231e-19)
(-0.00381131 -0.00558622 -3.61843e-19)
(-0.00035178 0.000457653 2.30555e-20)
(-0.0125525 -0.0290843 3.59384e-18)
(-0.000199054 -3.77889e-05 -4.57202e-19)
(0.1468 -0.0912414 7.42983e-18)
(0.000162119 -1.56447e-05 -8.09493e-20)
(-0.00243218 -0.00381667 2.315e-18)
(-0.00784516 -0.0420502 2.23736e-18)
(-0.0341815 0.014993 2.47973e-18)
(-0.00791862 -0.0213262 -2.42333e-18)
(0.000316191 6.36969e-05 7.19072e-20)
(-0.000216327 0.000689512 2.79378e-19)
(0.00484784 0.161383 6.32933e-18)
(-0.0161928 0.0171372 -1.55393e-19)
(0.0320296 0.0093868 8.16436e-20)
(0.000217663 -2.74646e-05 -1.88113e-19)
(8.12705e-05 0.000386133 -1.46562e-20)
(0.00173541 0.0103117 -1.9727e-19)