/*--------------------------------*- C++ -*----------------------------------*\
| =========                 |                                                 |
| \\      /  F ield         | OpenFOAM: The Open Source CFD Toolbox           |
|  \\    /   O peration     | Version:  v2012                                 |
|   \\  /    A nd           | Website:  www.openfoam.com                      |
|    \\/     M anipulation  |                                                 |
\*---------------------------------------------------------------------------*/
FoamFile
{
    version     2.0;
    format      ascii;
    class       surfaceScalarField;
    location    "250";
    object      meshPhiCN_0;
}
// * * * * * * * * * * * * * * * * * * * * * * * * * * * * * * * * * * * * * //

dimensions      [0 3 -1 0 0 0 0];
oriented        oriented;


internalField   nonuniform List<scalar> 
27882
(
-0.00032306
-0.000758061
0.00107294
0.00016998
-0.000849995
0.000676142
8.32862e-05
-2.13299e-05
-9.65101e-05
-0.00111181
0.000779724
0.00298983
-0.00016779
-0.00283421
1.44637e-05
-1.79323e-05
2.53815e-07
0.00264139
-0.00246226
-0.00023532
0.0028899
-0.00113906
-0.00176105
0.000189254
0.00279053
-0.00259136
0.000139514
0.00244605
-0.000622521
-0.000162944
0.000781151
0.000112651
-0.00183445
0.00171951
-0.00111362
0.0032051
-0.00209996
-0.000123208
-0.00222031
0.00233053
0.00298816
-0.00068475
-0.00236908
-0.000460896
0.00143645
-0.00105254
0.00181332
-0.0017028
-7.01768e-06
7.01768e-06
0.00106377
0.00186541
0.00334993
-0.00286605
-0.000500271
-2.48936e-05
-0.00197997
0.00199898
-0.00120678
0.000272131
0.000934548
1.27224e-05
-2.12738e-06
2.82691e-05
-1.60754e-06
-3.29898e-05
-0.00053375
-0.000673119
-0.000259698
0.00124689
-0.000987385
0.00181824
-0.00288163
0.00106299
0.000385943
0.0012323
-0.00161933
0.000540456
-0.00162323
0.00108177
3.95332e-05
-0.000689904
0.000647705
0.00145323
0.000908354
-0.00236184
0.00293541
-0.0011181
0.000695308
0.00218453
0.000947431
2.04573e-05
-0.000967983
0.00293664
-0.000959681
-0.00198535
0.000823555
-0.000787364
0.00160249
-0.00272423
0.00275671
-0.00294506
0.00249801
0.000446764
-4.16106e-05
-1.77474e-05
5.79179e-05
-7.65442e-05
0.000717697
-0.000641051
0.00303988
-0.00262381
-0.000423392
9.96489e-05
-0.000721308
0.000619432
0.000212386
0.00133621
-0.00156535
4.70782e-05
0.000424782
-0.000578914
-0.000148091
0.00219869
-0.00205104
0.000962654
0.00207001
-0.000791297
0.00179379
-0.00100361
0.000963256
-0.000761051
-0.000202212
-0.000301579
-0.000737326
0.00103088
0.000164058
-0.000790736
-0.00147384
0.000266829
0.00120693
-0.00105297
0.000743076
-0.000243411
0.00240186
-0.0021725
0.00112475
-5.23366e-05
-0.00107263
0.000626218
0.0025671
0.000299303
0.000450761
-0.000762475
0.00263715
0.000699158
-0.000772158
-0.00107257
0.00184348
-0.000603379
0.000888753
0.00031528
-0.000526351
0.000125807
-0.00134238
0.00153772
0.00340521
-0.00145686
-0.00203684
0.00140234
0.000634103
0.000380119
-0.000168649
0.000122911
0.000652677
-0.000775623
-0.000418772
0.00020415
0.000147005
-1.22594e-05
0.000218609
-0.000213394
0.00168844
-0.00130366
-6.7932e-07
-6.79618e-06
-0.000939933
-0.000534008
-0.00145337
0.00126217
0.000191009
0.00296966
-0.00108327
-0.00193111
-0.00275772
0.000868944
0.00187955
-0.00171175
-0.000699157
0.00240661
0.0024477
-0.000994921
-0.00267224
0.00226834
0.000402908
0.00153153
-0.00175793
0.000224582
-0.00241058
-0.00061269
0.000710032
0.000845839
0.000512207
-0.00135859
-0.00226492
-0.000680322
-6.74679e-05
0.00159733
0.00251786
-0.00146305
-0.00105772
-0.000214804
0.00157127
-0.00137162
0.000860488
-0.0014555
0.000594719
-0.0010479
0.00239492
-0.00241836
-0.000347221
0.0021166
0.0012879
-0.00039851
0.00125871
0.00166766
-0.000704857
-0.000962857
0.000300486
-2.23509e-05
-0.000390301
0.00144301
5.50873e-05
-0.00149874
0.00078478
0.000178478
0.00216091
0.000762141
0.00071673
-0.00107872
0.000311747
-4.06487e-05
3.87235e-05
8.04525e-07
0.00115163
0.000583674
-0.00173673
0.000252481
0.00158668
-0.00184084
-0.00277523
0.000253914
0.00248519
-0.00167784
0.00152941
-0.000587894
-0.00157362
0.00215586
0.00019957
-0.000218917
-0.000382155
0.00104706
-0.000708983
0.000831854
-0.00157421
0.0015448
0.000838309
-0.00163061
0.000425111
0.00124254
-0.00311373
0.00118472
0.00192671
0.000582937
-0.00265366
0.0020655
-0.00166868
0.000523112
0.00106313
-0.00167095
-0.000366188
-0.00229561
-4.99319e-05
0.00233076
-0.000109197
-8.62155e-05
0.000152398
-0.00219812
0.00160503
0.00126413
-0.00204244
0.000777522
-0.000883444
0.00203345
0.000147751
-0.000762325
0.000601328
0.00203802
-0.00139138
-0.000647204
0.00146881
0.000227545
-0.00171107
2.34568e-05
0.000196642
-0.000272189
-0.000990215
-0.00168255
-0.00159749
0.00136744
0.000782678
-0.00112663
0.000321147
-0.000565862
0.000836629
-0.000270765
-0.00234444
0.00208723
-0.000158275
-0.00132679
0.00146635
-0.000283739
0.00104536
-0.00187691
0.00129929
0.00057699
-0.000782706
0.000655726
0.00102046
-5.25845e-05
0.000219285
-0.000255047
0.00125882
0.0010499
-0.0023139
-0.00109845
0.000323398
0.000775017
-4.80974e-05
5.66971e-06
0.000236463
3.77928e-07
-0.000289246
-0.00224015
0.00267463
-0.000434125
0.00117963
-0.00176498
0.00056794
0.00127805
-0.0019213
0.000642274
-0.000827681
0.00167288
0.000404674
-0.00271624
0.000229863
-0.00131941
0.00108698
0.00125504
0.000536649
-0.00179307
-0.000524031
-0.00259109
-0.000816582
0.000250723
0.00100141
0.000583365
-0.00158595
-4.34581e-05
-0.000665557
-0.00190042
0.000810744
0.001089
-0.000816091
0.00064878
-0.0019189
0.000780804
0.00113788
0.000767653
-0.000161695
-0.000605955
0.000698398
-0.00074095
4.25505e-05
0.00273874
-0.00160951
-0.00115133
-0.00122446
0.00302989
-0.00181878
-0.000582038
0.000505501
0.000480799
0.00188817
-0.000218677
0.00166095
-0.00137176
-0.000505649
0.00164243
-0.00256877
0.000921489
-0.000649909
0.0011167
0.000513291
-0.00163
0.00100604
-0.00118438
0.000159742
0.000544019
-0.000843701
0.000299677
-0.00081381
0.000770315
-0.000566884
0.00234629
-0.00178074
-0.000197616
0.000818204
-0.000632844
-0.000102443
0.0010902
-0.000495581
-0.000973367
0.0014689
-0.000612327
-0.000170377
0.000346371
0.00156809
-0.00191423
0.000486396
0.000198838
-0.000685237
4.7254e-06
5.19813e-05
0.000960064
0.000663812
-0.00162469
1.16814e-05
-1.16814e-05
0.00318814
-0.00200579
0.00218612
-0.000591071
-0.00162776
0.00245387
-0.000338972
0.00128009
-0.000302862
-0.000977434
-0.000160781
0.00110811
-0.00135323
0.00288236
-5.5242e-06
-0.000189945
0.000188004
-0.00278332
0.00238212
0.000386781
0.00132344
-0.00019895
0.00235966
-0.00208076
-0.000964438
0.00191973
-0.000955492
0.000885483
0.00100904
-0.00194528
0.000241968
-0.000934717
0.00106882
0.00146145
-0.00253886
0.0005593
0.00022547
0.00210647
-0.00251963
0.000411725
7.31542e-05
0.000625244
-0.00135827
0.00218762
0.00263349
-0.000744535
-0.00189125
0.0027539
-0.00231549
-0.000439786
-3.97353e-05
0.000129638
-9.6032e-05
-0.00194527
-0.000470136
0.00240173
0.00120383
-0.0018983
0.000693581
0.000750019
0.00195908
0.000859533
-0.000300248
3.03237e-05
-7.02378e-05
2.81588e-05
-0.00121966
0.00109686
0.000110493
-0.000758276
-0.000613834
-0.00244649
0.00246242
-1.80111e-05
-0.00124867
0.000265635
0.000898401
-0.000600446
-0.00115325
0.000814578
-0.000270567
0.00228722
-0.00075683
-0.00155813
-0.0021925
-0.000662936
0.000437775
1.51985e-06
3.25517e-05
-4.80421e-05
0.00179854
-0.000351602
-0.00144767
-0.000165222
-0.00106655
-0.0023588
0.000522933
0.00182005
0.00284411
-0.000759616
-0.00209555
-3.80687e-05
-3.66116e-06
-0.000704872
0.000320465
0.000271432
0.0015791
-1.88036e-05
-2.36892e-06
-0.000860161
0.000219727
0.000638548
0.00216741
0.000584206
-0.00131164
0.00115607
0.000138926
-0.000742944
0.00199642
-0.00141116
0.000652487
-0.00219576
-0.000252436
-8.60887e-05
2.72669e-06
8.25106e-05
0.000811462
-0.00252815
0.00124704
-0.000277158
-0.000970125
0.00150198
-0.000385322
0.000896996
0.00136163
-0.00111758
0.000857706
-0.000840234
0.00184041
0.00124193
0.00194417
0.00023783
-5.62051e-05
-0.000389234
0.00116119
-0.000837736
-0.00108964
-0.000238435
0.0025365
-0.000796179
-0.00174257
0.00087179
-0.000674127
-0.000197668
0.00119247
-0.00179957
0.000606346
-0.00165133
-0.00129028
0.00291619
0.00197854
-0.00117649
-0.000889606
0.00167895
0.000854576
-0.00188312
0.00115873
0.000723158
5.45903e-05
-7.28376e-05
-3.09988e-06
-0.00109487
-0.00082431
0.000527117
-0.00163636
0.0011088
-0.000702609
-0.000660442
0.00129382
0.000882155
-0.0011937
0.000265023
-0.000918664
0.000226425
0.000681875
-0.00094195
-0.00187236
0.000686339
-0.000199947
0.000321122
-0.00161953
0.00127958
3.74935e-05
-2.76217e-06
-3.50642e-05
-0.00130401
0.000199183
3.05963e-06
-8.28597e-06
3.15327e-06
-0.00118432
0.00181477
-0.000630986
-0.000580735
-0.000214396
0.000782671
-0.000490841
-0.000962708
-0.000495419
0.000586711
-0.000186346
0.000205217
0.00262244
0.00200945
-0.0020723
-0.000974931
-0.000173656
-0.00115871
0.000392408
0.00178731
0.000844002
-0.000874188
0.00195799
-0.00108452
-0.00208283
0.00120782
-0.00107177
7.66673e-05
-0.000606008
-0.00194372
0.000313246
0.00233615
0.000114564
-0.00247664
-0.00172754
-0.000305115
0.00203216
-0.000863829
0.00119082
-0.000327096
-0.000152902
0.00246421
0.00211864
-0.000920063
-0.00122801
0.000109658
-8.9606e-05
-2.12397e-05
0.000734316
0.00209475
-0.00146682
0.0026033
-0.00114193
1.36376e-07
-2.14252e-05
-0.00064354
-0.00172999
0.00176193
-0.00189559
0.00107549
-0.000240924
0.000200743
-0.000275164
-5.49936e-06
-0.00130549
-0.00042219
0.00164447
0.000144091
0.000759045
-0.000903176
0.00190338
0.000668702
0.00142236
-1.20542e-05
-3.61695e-06
1.48489e-05
-0.00069034
0.00184804
0.00125638
-0.000462951
-0.000836433
0.000826193
-8.18639e-07
3.60119e-05
0.00252492
-0.000799005
-0.00174245
0.000775094
-0.000334944
-1.21187e-05
7.57519e-05
-8.27695e-05
-7.59997e-06
4.16397e-05
-5.20615e-05
0.00096378
-0.000828117
-0.000146252
-1.26285e-05
-7.37731e-05
-2.59808e-05
0.000215737
-6.48843e-06
2.75464e-05
-0.000946273
0.000353941
0.000592339
-0.00252498
0.000186945
0.00233063
-3.79558e-05
-0.000143923
0.000149625
0.00012311
-0.000193134
0.00303106
-0.00154249
-0.00148821
-0.000599452
-0.000128839
0.000724245
0.000108762
-0.000118994
-0.00195592
0.00176793
0.000177963
0.000730848
-0.00231095
-0.00167072
0.000310801
0.00280049
-0.00218548
0.000290697
-0.00167479
0.00126769
0.0009069
-0.00217487
-0.000718359
0.0023959
-0.000674805
-0.00172263
0.00143869
-0.000898999
-0.000822606
0.000842981
8.22844e-06
-0.000202396
0.000188041
-0.000732339
-0.00136903
0.00210145
0.000818544
0.000705903
-0.00152488
-0.00043393
0.000193512
0.000169806
0.00158467
0.00080964
-0.00123608
0.00287392
0.00182556
-0.00104498
0.00152727
-0.000483384
-0.00110393
0.000201795
-0.000351954
-1.7319e-06
4.43956e-05
0.00165989
-0.00117758
-0.000515301
-0.000582036
0.000836544
-0.000254506
-0.002502
0.000834278
0.0016651
0.000418271
0.00194594
-0.00237642
-0.00121214
0.000474267
0.000737846
0.000325098
0.001141
-0.000790023
0.00018058
-0.000758636
-0.000202473
6.18877e-05
0.00261504
-7.71045e-05
-0.00255186
-0.00145166
0.0006191
0.000822933
-0.00255497
0.0014054
0.00224613
-0.000722878
-0.00154856
-0.00029839
0.0028951
0.00306474
-0.000781892
-0.00230394
0.00174388
5.32131e-05
0.00110823
0.00192183
0.00172703
-0.000560408
-0.00227488
-0.0014728
0.00172369
0.000881434
0.000755485
-0.00197704
0.000632363
0.00134253
0.000133105
-0.000736401
-0.000239315
-0.000737184
0.000976422
6.49695e-05
-0.00116103
0.00109406
-0.00114682
-0.000528708
0.00167474
-0.00139089
0.00233807
-0.000816362
0.000628234
0.000188128
-0.00257836
-4.09246e-05
0.00261958
0.00274256
-0.000813081
-0.00193912
0.00048937
0.00255385
-0.00194257
0.00235026
-0.000957911
-0.00165535
0.0025984
0.00151759
-0.000198844
-0.0007066
-0.00265336
0.000336865
1.2406e-05
-0.00103022
0.00101548
0.000962901
0.00149719
-0.00246359
-0.00263389
-2.03401e-05
-0.00110609
0.00150158
-0.00205
0.000542776
-0.00246632
-0.000328166
0.000880843
-0.00176568
0.000110731
0.00198736
-0.000724035
0.003169
-0.00192921
-0.00119045
-0.00116974
0.00235848
0.000860238
-0.000143869
-0.00177417
0.000626519
3.02472e-06
-1.57596e-06
-0.0012332
0.000460203
0.000772946
-0.00060167
-0.000616468
-0.000139118
0.000751398
0.00098386
-0.000973727
-0.000289194
-0.00019439
-2.78644e-05
2.07901e-05
-0.000757087
0.00102913
-0.000967057
-0.00176068
0.000374541
0.00138275
-0.000293433
-0.00143461
0.000254597
-0.00245358
-0.00148823
0.00255445
-0.00197686
0.00103842
-0.0015766
-7.83668e-05
-0.00163907
0.00171045
-0.0008659
0.00302424
-0.00217399
0.000176369
0.00129103
-0.00148129
-0.000207364
0.000184427
0.000949576
-0.00192326
0.00220094
-8.9043e-05
-0.00216466
-1.054e-05
0.000139876
-1.01009e-05
5.32735e-05
-6.51907e-05
0.00078482
-0.000214982
-0.00057792
0.001022
0.00142737
-0.00245582
-0.00273905
0.000862065
0.00187735
-0.00143575
-0.000771819
0.00220334
0.00270635
-0.00120682
-0.0014995
0.00175421
0.000951747
-9.46812e-05
-0.000634043
0.000728728
-0.000230777
0.00170711
-0.000769448
-0.000938333
0.00075432
0.000200633
1.67473e-05
-3.24579e-05
1.04567e-05
-4.74268e-05
-0.000675681
-0.0022198
0.00213232
-0.00106007
-0.0017875
0.00281989
-0.000375075
0.00265894
-0.000942318
0.0018217
0.000393644
0.00206421
-0.00246595
0.000554777
-0.000781325
-0.000222977
0.00196698
0.000371355
-0.000410409
-0.000791848
-0.00173934
-3.75936e-06
-0.000123219
0.000121981
-0.00062909
-0.000230854
0.000859932
-0.000815322
-0.000933483
-6.57812e-05
3.98897e-05
-0.000724974
-0.000487194
-0.0014156
-0.000259165
0.00167413
0.000227413
0.000369995
-0.000714471
-0.00130935
0.00147154
2.97404e-05
-8.53798e-06
-3.07734e-05
0.00140199
0.00176558
3.56385e-05
-1.03647e-05
-4.05467e-05
7.23836e-05
-0.000104338
0.00159953
-0.00216752
-0.0018465
0.000407135
-0.00237291
0.00043348
0.00197768
-0.000713296
-0.00190304
0.00260989
-0.00240748
0.00270641
-0.000307547
-0.00160908
6.5573e-05
0.00154339
-0.00279369
0.00258956
0.000198938
1.67864e-07
1.87468e-06
-5.51348e-06
-0.000580567
0.000121943
-0.000131155
-0.000747785
-0.000713923
0.00114116
0.00135182
-0.000956923
-0.000479648
-0.00166143
0.00256974
-5.553e-06
2.38462e-06
-6.25573e-05
-0.00235238
5.1461e-06
-0.000108456
7.0946e-05
0.00127451
0.000711955
0.000997686
-0.000375729
-0.000630608
0.000175356
0.00197847
0.000837472
-0.000653812
-0.000183664
-0.000737172
0.000604269
1.34398e-05
-1.19099e-05
-2.19145e-06
-0.000540096
0.00203644
0.00299601
-0.00116962
-0.00184391
-0.000972319
-0.000360864
6.53261e-05
-0.000154769
6.42201e-05
-4.25205e-05
0.0003051
-0.000359821
-0.00231891
0.000782216
0.00153546
-0.000437181
-0.000743241
0.00118042
-0.00229623
0.00254351
-0.000268452
-7.06005e-05
-0.00148938
0.00155717
-0.00179201
-0.000842019
0.000294178
0.000985726
-0.000687785
-0.000244744
0.000932788
0.00170356
-0.00117695
-0.000908837
0.000221933
-9.88303e-05
-0.000564023
0.00065053
0.000735964
0.000970447
-0.00082579
0.00189123
-0.00243269
0.00053723
-0.00186576
0.00255196
-0.000184359
-0.00067715
0.00134082
0.000473868
-0.00182285
0.00236612
-0.0019756
-3.301e-05
0.000166231
-0.000161903
-0.000726922
-0.00176938
0.000598985
-0.00129055
0.000646885
0.000418746
0.000843468
0.000981389
-0.000422513
0.0008728
-0.000597638
-0.00210064
-0.000630695
0.00271812
9.90038e-05
-0.000134345
-2.82936e-06
-5.10981e-05
-8.30355e-05
0.000128007
-0.00105112
-0.00047684
0.0015274
-0.000339268
0.000196613
7.28791e-05
-1.81806e-05
-7.85979e-05
-5.45401e-05
6.75137e-05
-1.39736e-05
0.00142185
0.00155753
0.00178727
-0.000454504
-0.00233796
0.000353197
0.00146289
0.000777504
-0.000617591
-2.87294e-06
2.54636e-06
-5.32246e-07
-0.00105352
0.00206403
-0.00101406
1.92874e-05
0.0010277
-0.00104732
-0.00097431
7.92034e-05
0.000895124
0.000857077
-0.00204889
-0.000482771
-0.000325835
0.00052363
-0.00196683
-0.000926496
0.00048932
-0.000624208
-0.000203066
-0.000712288
0.000909287
0.00019568
-0.000811447
0.00328234
-0.00122972
-0.00205536
-0.000669755
9.73375e-07
-3.7298e-06
2.79778e-07
-0.000563283
-0.000968113
0.00153135
-0.00308568
0.00231408
0.000666077
-0.00149434
0.000914632
-0.00112545
0.000109001
-0.00143144
0.00147525
-0.00154864
-0.000286532
-0.000954186
-0.0022678
0.00180268
0.00043434
-8.18763e-05
0.000288158
-0.000322812
3.49378e-07
9.91347e-06
-1.44988e-05
0.00230456
-0.00143614
0.000454806
-0.000141089
-0.00139203
-0.000321869
0.00171259
-0.000152993
-4.58811e-06
0.000150107
-0.00225007
0.00263574
0.000836878
-0.002629
9.56131e-07
-1.32503e-05
-0.00015954
-3.40595e-07
-1.6345e-06
6.5995e-05
-0.000213185
-0.00201754
0.00222395
-0.000262475
-0.00193836
0.00219164
-0.00272242
-7.56043e-05
0.00224159
-0.00201507
0.00180914
0.000296297
-0.00159129
-0.00097754
0.00256343
-0.000573519
0.00246122
0.00134881
-0.00130561
-6.01211e-05
0.000177792
0.000598151
-0.000174085
0.00259598
-0.000388114
-0.0022302
0.000182848
0.00239011
0.000123341
-0.000846767
0.00072343
-0.00154811
0.000583548
0.000828713
0.000199074
0.00135193
0.000674983
0.00183444
0.000894134
-0.00138975
2.89492e-05
-0.000157913
-3.89845e-05
4.09083e-07
0.000316501
0.000457
5.83774e-05
-0.000114513
-0.00180008
0.00136979
0.000403611
0.000167886
0.00116109
-0.00274029
0.00232197
0.000402551
0.000380173
-0.001793
0.00071924
-0.000125877
0.00232715
-4.29434e-05
-5.82849e-06
-0.00140337
-0.000847532
0.0022486
-0.00121247
0.000238184
-0.000405275
-0.00193346
0.00232034
-0.00142913
0.00125333
0.000734606
0.0015394
-0.00231158
7.61849e-06
4.26763e-05
-0.00192749
0.00227731
-0.000394738
-0.000310566
-0.000339113
-0.00215694
0.00249107
-0.00018545
0.000776168
-0.000594367
-0.000970196
-0.0014864
0.00244326
-0.00228711
-0.000402571
0.00268769
-0.00140148
0.00209877
-0.00135742
-0.000621629
0.000172828
-5.8792e-05
2.05398e-05
2.86696e-05
0.000722336
-0.00156352
-2.06201e-05
1.94934e-05
-1.42927e-05
1.06219e-05
-0.00276964
0.00229005
0.000478898
-0.000126544
7.11492e-05
-0.00250704
0.000551058
0.00228745
-0.00132794
3.39846e-05
-0.000169284
0.000106019
-0.00215831
0.000600163
0.00150277
0.000230434
0.000676602
-0.000541228
-0.000569632
-0.00215769
0.00271529
0.000130452
-0.00068226
0.000547563
-1.8051e-05
7.37329e-05
-7.34741e-05
-8.9488e-05
6.52939e-05
0.00152828
0.000987237
0.00254939
-0.000645512
-0.00191221
0.0017129
-0.00198392
0.000549902
0.00160331
-0.00249574
0.00020321
0.000677541
0.000271148
0.00117113
-0.000882171
-0.000331834
-0.000362538
-0.000583727
1.84444e-05
-0.000113351
8.93744e-05
-4.28306e-05
3.0282e-05
-0.0019487
-0.000196686
0.00210299
-0.000219178
-0.000707884
0.000920166
-0.00181168
-0.000709282
0.000791971
0.00133894
-0.00213317
-0.00111589
0.00129882
-0.000196976
0.00187672
-0.00138397
-0.0016718
0.00208952
-0.000417638
0.00060179
0.00267399
0.000955956
-0.00124263
0.000206124
-0.00175792
-0.000207941
0.00261152
-0.00103581
-0.00158284
0.000163343
0.00223831
-0.000983696
0.000361591
0.00196791
-0.00234227
-0.00188238
0.000555566
0.00129134
0.000939039
-0.00116695
-0.000802754
-0.0010445
0.00184579
6.20212e-05
-9.7146e-05
-0.000587725
-0.00132541
-0.000104255
0.000128386
-0.00158097
0.00101129
0.000531734
-0.00231936
0.00199527
0.000318199
-0.00305036
0.0025557
0.000488712
-9.02188e-07
3.81843e-05
-0.000393538
-0.00196628
0.00231666
0.00331534
-0.00230598
-0.00102495
0.000132631
-0.00211688
0.000908901
-0.000255051
-0.000700707
0.000228836
-0.00248355
-0.000996479
-7.35556e-05
-0.000953567
-0.00106915
0.0020211
-0.000415102
-0.000325847
0.000638806
-0.000515463
8.10918e-07
1.89863e-05
-7.40391e-06
-2.68297e-06
6.44604e-06
-0.00270257
-0.000922559
-2.96452e-05
0.00095091
9.60083e-05
-8.29179e-05
0.000690938
-0.000561529
-0.0023183
-0.000250126
0.00253866
0.000139281
0.00203771
-0.000851753
-0.0011891
0.000391505
-0.000251696
-0.00213353
-0.00148362
-0.0002035
-0.000551234
-0.000587802
0.00109466
-0.00017115
0.00144792
-0.000465969
-0.000913691
0.00163505
-0.00156583
0.0017859
-0.000221447
-0.00182939
0.00233571
-0.00115477
0.000729727
0.00130768
-7.16339e-06
-3.30301e-05
-0.00169691
0.000303638
-0.00169662
-5.19369e-05
-0.00229519
0.00136374
0.000173159
-0.00155082
-0.00112529
0.00131003
0.00136438
1.12281e-05
3.06177e-07
-0.000361873
0.000604688
0.00193908
0.00254193
0.000392877
-0.000158116
0.000168028
-1.8667e-05
-0.00111024
0.000796524
0.000313669
0.000631376
-0.000726052
0.000680779
0.00205379
-0.00024374
-0.00107528
-0.000521799
0.00208963
0.000531456
0.00207202
0.00185065
-0.00234928
0.000495023
0.00295335
-0.000875016
-0.00207966
-0.00166582
0.00146484
0.000200767
-0.00270257
0.00207723
0.000596
0.00143998
0.000347067
-0.00178798
4.01793e-05
-1.97593e-05
0.000872368
-0.00182739
-0.000663899
-4.12741e-05
0.000173835
-0.000162208
0.00228756
-0.000367071
-0.00192405
0.00174336
-0.00268224
0.00322558
-0.00173166
-0.00150085
-0.00239365
-0.000361212
-0.000128291
0.00271815
-0.00224808
0.000159127
-0.00179523
0.00285251
0.000391165
0.00168404
-0.00207842
0.00172494
-0.000426213
-0.00132086
-0.0013134
0.00212968
-0.00229805
0.00238691
0.00232838
-0.00138202
-0.000950631
-0.000145911
0.000131159
7.3724e-06
-3.00936e-05
4.03369e-05
-1.02892e-05
-0.0019611
0.00145629
-0.000882543
-0.000725756
0.000824666
0.000237564
0.000664227
-0.000949505
-0.00231377
-1.92082e-05
-0.000935833
0.000952574
-0.00136111
0.000442758
-0.00141094
0.00193841
-0.000231595
-0.00174793
-0.00267655
0.00029036
0.00236583
-0.002331
0.000993045
0.00133533
-0.0025379
-7.24551e-05
0.00258171
-0.000924359
-4.5679e-08
-0.00230944
4.29364e-05
0.00225962
-0.000461455
-0.000110548
-0.00232205
0.00241769
0.00169332
0.000508322
-0.00222655
0.000101791
2.23435e-05
0.000528565
-2.0202e-05
-0.000132115
0.00115193
-0.000592985
-0.00233717
-0.000575551
0.00127841
-0.000702875
-3.45189e-05
-3.22699e-05
0.00233624
-0.000404471
0.00168075
0.00153759
0.00110666
-0.00186829
0.000761653
-0.00214327
-0.000168512
0.00230513
0.0025003
-0.000445038
-0.00087916
0.000389156
0.000489846
-1.35392e-05
1.39348e-05
-8.01458e-06
0.000978329
-0.00100019
-7.82813e-05
-0.000271531
0.000321529
0.0014328
0.00151784
-0.000208967
-0.00235622
0.0011705
0.00120973
-0.00239837
0.000766242
-0.00110974
0.000343447
-9.74488e-05
0.00107923
0.00128382
0.00265651
-0.000914031
-0.00176343
-0.00258626
0.00107919
-0.000205588
-0.000898653
8.1052e-05
0.00180711
-0.000627146
0.000845105
-0.00041354
0.000910706
-0.000497166
0.0012238
-0.000116312
-0.00112234
0.000852614
0.000201308
-0.000358708
0.000252887
-0.00199212
0.000382923
0.00217334
-0.001384
0.000354122
0.0019466
-0.00231028
-0.000280428
0.000941304
-0.000700208
-0.00168703
-0.000268736
0.00194575
-0.00111115
0.00226474
-0.00285766
-0.00182876
-0.000173224
0.00108304
-0.000212164
-0.00181355
0.00295208
-0.000774444
-0.00217827
6.96527e-05
3.88222e-05
0.000133443
0.000943381
-0.00108262
-0.00254058
0.00177999
0.000716481
0.00271571
-0.00167125
0.000777185
0.000220626
0.000129313
0.000561078
-0.000701676
0.00168181
-0.0022274
-0.00235831
3.41118e-05
-0.00174646
-0.00120928
0.000320963
0.000794275
-0.00104487
0.000257865
0.000786975
4.18168e-05
0.000289756
-0.000407862
-0.00212916
0.00191894
-0.00273004
0.00208607
-0.00105599
0.00192676
-6.03897e-06
1.79473e-05
-0.000342685
0.00201433
0.000889868
-0.00061036
-0.000280923
-0.00185989
0.000163619
0.00244838
-0.000601405
-0.0010677
0.0011019
-8.85791e-05
-0.00106914
-0.00136766
0.00239974
0.00218867
-0.00132819
-0.000654476
0.000461149
-0.00103532
0.00117628
3.05652e-05
-0.000483965
0.00171693
-0.00130448
0.00290794
-0.000955292
-0.00197398
0.000658139
0.00197626
-0.00163211
0.000133265
-0.00236303
0.00190679
0.000405987
-0.000231112
-0.000603067
-0.00143391
-0.000595699
-0.00161468
0.000306238
-0.000259519
0.00114875
-0.000930015
-0.00133273
-0.000303954
0.00215109
-0.000966062
-0.00118706
0.00112388
0.000701393
-0.0013408
0.00107779
0.0002611
-0.000910055
0.000496518
0.00197904
0.000248484
-0.00227552
-0.00204288
0.00203655
-0.00291821
-0.00128217
0.00114997
-0.0011756
-9.936e-05
0.00120789
4.13617e-05
0.000163301
-0.000233987
-0.00011548
-2.83367e-05
0.000122578
0.000843493
0.0018596
-0.000474868
0.00187682
0.00117922
-0.00116031
0.00124839
0.00170246
-8.78521e-05
-0.000424674
0.000507095
-0.00216743
0.00177072
0.000355495
0.000253441
-0.00184878
-0.00152146
0.00253734
-0.0024923
0.00166781
0.000822231
-8.28695e-06
2.65747e-05
-0.000517152
0.00228618
-0.00178428
0.000675948
-0.000557923
-0.000712996
-0.000250366
0.000963351
0.00217746
-0.00262029
0.000440653
0.00271668
-0.000139634
-0.000124928
0.000207438
-0.000967627
0.000806736
-0.00157681
0.000948
-0.000819688
-0.000227411
0.00204993
0.000635646
-0.00268757
-0.00229341
-0.000418443
0.00269288
6.35359e-06
-9.68351e-05
1.01039e-06
-4.4373e-05
-0.00103346
0.000872584
-0.00236049
0.00255642
-0.000215686
-0.000263589
0.000256369
-3.26994e-06
-0.00222042
0.0015043
0.000714615
0.00262081
-0.0020568
0.00159781
0.000407157
-6.17772e-05
5.86845e-05
-0.00255354
0.000503306
0.00204186
0.00148242
-0.00125617
-0.00222593
0.0018678
0.000309423
-0.00145151
-0.000140603
0.00150021
0.00229497
-0.000364492
-0.00195823
0.0029189
-0.00179934
-0.0011577
0.00259183
-0.000800238
-0.00180626
0.000884076
0.00165724
-0.00254617
0.00143056
0.000488378
-0.00195119
-0.00241487
3.94757e-05
-0.00280432
0.00236006
0.000443023
0.000234576
-0.000947584
0.00217077
-0.00115366
-0.000903026
0.000717303
-0.00115213
0.00088904
0.000262946
0.00199054
0.000744687
-0.00274932
-8.44004e-05
-0.00116055
0.0012321
-0.000100044
-0.00119716
-4.00573e-06
-6.3867e-07
-0.0027354
0.000440825
0.00228086
0.00262124
-0.000642258
-7.34137e-05
-1.94044e-05
7.33892e-05
-0.00271994
0.00230834
0.000607402
0.00197081
-0.00256783
0.000369542
0.0021759
0.00113724
-0.000371079
-0.00237646
0.000903993
-3.03459e-06
8.52186e-05
-0.00010239
-0.00215411
0.00248221
-0.000352568
-0.00267988
0.00211364
0.000565119
-0.00198073
-0.000234081
1.1121e-05
0.000214652
0.000833007
0.00102331
-0.00120676
0.00136445
-0.000234639
0.00224991
-0.000777828
-0.000356686
0.00203404
-0.00066835
-0.00154794
0.00216646
-0.00114939
8.6754e-05
0.00101866
0.00113411
-0.000247255
-0.000912169
-0.000638913
-0.00224025
-0.0014366
0.00184911
-0.000413863
9.3913e-05
-5.13771e-05
-0.00114459
-0.000197801
-0.000706921
-0.000985141
0.00172039
-0.000777383
0.00282572
0.000613623
0.00227531
-0.00059227
-0.00211508
0.00269732
-0.000170357
0.00147541
-0.00270763
-0.00229952
-0.00229383
0.000335082
0.00193304
0.0012122
-0.001351
0.000138503
-0.00175722
0.000572398
-0.00165292
-0.000981928
0.00261539
0.000482843
-0.0024077
0.00192298
0.000144417
-4.40107e-05
5.997e-05
-2.65792e-05
0.000867495
0.00116698
-0.000252298
9.61849e-06
0.000253
-0.000491022
-0.00183301
-0.00328698
0.00101439
0.00225463
-0.000287697
-0.000198196
0.00014017
-0.000657648
0.000513004
0.00109091
-2.02648e-06
-0.00113743
0.000433121
0.0012703
0.00140714
0.000189543
-0.000682337
-0.000641584
-0.00135003
9.61781e-05
-0.00121587
1.72854e-05
0.000273329
4.55157e-05
-0.00222126
-0.0011054
0.00116227
-6.96243e-05
-0.00140064
0.00228052
-0.00120981
-0.000987304
0.00160516
-0.000300164
-0.00130742
0.00056237
0.00125184
-0.00176932
0.00144608
-0.00175098
9.83245e-05
4.39159e-05
-0.000149153
0.00135713
-0.00207044
4.74979e-06
-0.00167067
0.000102253
-2.39968e-05
-0.000118108
0.00166823
0.000157959
-0.00186411
-0.000718212
-0.00146166
0.00217244
0.000109079
0.00055544
-0.000994994
0.00242458
-0.00231511
0.00253695
-0.000242312
-0.00223333
0.00243225
-0.000225756
-0.00257761
0.00208038
0.000495241
-0.00189347
0.00222783
-0.000386484
-0.00131079
0.000769274
-4.46844e-05
0.000136194
-0.000529944
0.0019297
-0.00115841
0.00315196
-0.00199446
0.00275532
0.000763808
-0.000206109
-0.000634237
-0.00204447
0.000666126
0.000195312
-0.0029908
0.000913384
0.00202879
0.00212117
0.000590504
-0.00272044
0.000307996
-0.000896906
-0.00231477
0.00158867
-0.00152929
-0.000233393
4.53854e-05
-4.2214e-05
-9.73387e-06
-0.00194743
0.00230285
-0.000356334
-2.3243e-05
0.00142775
0.00191911
0.00035682
0.000487819
0.00248176
-0.00105986
-0.00101281
-0.0022903
-0.00201971
0.000270641
0.00174828
0.000268214
-8.4241e-05
-0.000546016
-0.000938242
0.00142653
-0.0025713
0.00214408
0.000418589
-0.000574713
0.000221075
-0.00165868
-0.00223147
0.0026793
-0.000460559
-0.000504451
0.000640153
-0.000527391
-0.000179172
0.000706559
-0.00215224
0.00094085
-8.47535e-05
1.3446e-05
6.61134e-05
0.000158945
0.000206647
-6.32029e-05
-0.00153205
0.000968723
-0.000516061
0.00104236
-0.000194369
0.00112374
-0.0026741
0.000338958
-0.000492885
-0.000432253
-0.00186798
0.000527395
0.00130473
0.0019331
-0.000826482
0.000539097
-0.00123735
-0.000402064
-0.00048554
-0.000970275
3.93647e-05
-0.000175093
-9.82117e-05
0.000108751
-1.45775e-05
0.000154604
-0.0021285
0.00188327
0.00148191
-0.00248046
-0.00230361
0.00222275
-0.00119003
0.00230939
9.96377e-05
0.000269147
-0.000442123
-0.000249874
-0.00107629
0.000154445
-0.00210129
-0.00210492
0.0016199
0.000430784
-0.000852944
-0.000299318
-0.00158247
-4.4058e-05
0.00158323
-0.00067335
0.00241641
-0.00175153
0.00138396
-0.00111845
-0.000162882
-0.00144823
-0.00153093
0.000925976
-0.000568057
-0.00133486
0.00104469
0.00110435
0.000206376
-0.00244973
-0.00152392
0.00261137
-0.00109228
-0.000903201
0.00219901
-0.0012992
0.00261818
-0.000601111
-0.00203693
-0.00200345
-6.87592e-05
0.00202428
0.000377867
0.00154563
-0.00192792
0.00133854
-0.00121523
-0.000208888
-0.000291904
-0.00172775
0.000461257
-0.000354198
-0.000222429
0.00174399
0.00191948
-0.00213893
-0.000658563
-0.000195151
0.000738788
0.000131678
0.000688773
-0.000831608
-3.92989e-05
0.00107267
-0.00122906
0.00055305
0.00067598
4.11386e-06
-1.52543e-05
0.00167119
-0.00136843
-0.00176811
0.00255312
-0.000788435
-0.000879819
0.0013736
0.000950618
0.0010401
0.000209955
-0.000908791
0.000177589
0.000683037
-0.00279144
0.00228998
0.00048675
0.00164832
-0.00121875
-0.000451315
0.00209225
-0.000246694
-0.0020846
0.000351631
-0.00266245
-0.00211783
-0.000284521
0.00237304
-0.00205553
-0.000173395
-0.00109884
-0.000769393
0.00109161
-0.00270359
0.00246588
-0.00125032
1.76222e-05
0.0011716
-0.00110601
3.74883e-05
0.00105764
0.000532892
0.00206522
-0.00204196
0.00154559
0.000443836
0.000178778
-0.000559122
-0.00227888
-0.000332128
0.00259895
0.00208628
0.000565605
-0.0007113
0.000827327
-0.000128275