/*--------------------------------*- C++ -*----------------------------------*\
| =========                 |                                                 |
| \\      /  F ield         | OpenFOAM: The Open Source CFD Toolbox           |
|  \\    /   O peration     | Version:  v2012                                 |
|   \\  /    A nd           | Website:  www.openfoam.com                      |
|    \\/     M anipulation  |                                                 |
\*---------------------------------------------------------------------------*/
FoamFile
{
    version     2.0;
    format      ascii;
    class       surfaceVectorField;
    location    "250";
    object      Uf_0;
}
// * * * * * * * * * * * * * * * * * * * * * * * * * * * * * * * * * * * * * //

dimensions      [0 1 -1 0 0 0 0];


internalField   nonuniform List<vector> 
27882
(
(1.00218 0.0159932 -8.20941e-22)
(1.0007 0.0158386 -5.82535e-22)
(1.00168 0.0141484 -1.15394e-21)
(0.985311 0.107407 -1.90995e-22)
(0.971962 0.109917 -1.13395e-21)
(0.975746 0.0947487 -1.90073e-22)
(1.00151 0.000141644 2.68172e-23)
(1.00192 0.000179584 -7.22912e-22)
(1.00245 0.000208555 -5.69134e-22)
(1.00342 0.0181078 -1.47018e-22)
(1.00375 0.0160974 -3.02964e-22)
(1.01909 -0.00113347 2.28667e-22)
(1.02035 -0.00101206 2.01779e-23)
(1.01943 -1.7113e-05 -2.95744e-23)
(1.00961 -0.000313146 -4.5068e-23)
(1.0106 -0.000339364 -6.33935e-23)
(1.00978 -0.000313466 -1.15351e-22)
(1.01905 -0.00522564 -1.47038e-21)
(1.01923 -0.00541921 4.63834e-21)
(1.01934 -0.00524012 6.89523e-22)
(1.03286 -0.0116227 -3.32796e-21)
(1.0332 -0.0116196 3.42039e-21)
(1.03315 -0.0119105 -2.07929e-21)
(1.01792 -0.00134107 0)
(1.01871 -0.00212934 0)
(1.01698 -0.00162152 1.64174e-22)
(1.01605 -0.00211162 1.53512e-22)
(1.01682 -0.00266203 3.06867e-23)
(1.02093 0.0998943 0)
(1.01033 0.0953103 0)
(1.0209 0.0856548 3.41018e-23)
(1.04812 0.00413995 0)
(1.03827 0.039772 6.22024e-21)
(1.05431 0.0407942 2.44619e-21)
(1.00582 0.0455395 3.34871e-22)
(1.01105 0.0414187 -2.11865e-21)
(1.01258 0.0493039 -6.13101e-22)
(1.03655 -0.00957878 2.69035e-21)
(1.03709 -0.00972726 1.58811e-21)
(1.03675 -0.00921845 1.1196e-21)
(1.01839 -0.00505475 0)
(1.01874 -0.00515863 0)
(1.01852 -0.00530265 -6.24235e-22)
(1.01496 -0.00258054 -2.36296e-21)
(1.01478 -0.00248396 5.45704e-22)
(1.01482 -0.00266321 -2.29659e-21)
(1.05665 -0.0349265 -2.98194e-22)
(1.04276 -0.0378377 0)
(1.01328 -0.00369372 -1.11971e-24)
(1.0131 -0.00349118 3.84324e-24)
(1.01807 -0.00496779 -1.72743e-21)
(1.01827 -0.0048292 -9.19754e-22)
(1.02795 -0.0212534 5.74398e-22)
(1.02835 -0.0221369 2.0749e-21)
(1.02899 -0.0212669 1.21563e-21)
(0.975155 0.110115 -5.41546e-22)
(0.983023 0.112919 1.6793e-21)
(0.98287 0.103901 -1.03546e-21)
(0.994483 -0.259103 1.74973e-20)
(1.00242 -0.255455 9.86603e-21)
(0.994842 -0.251612 0)
(1.00812 -0.00019843 -6.26423e-24)
(1.00947 -0.000256617 -1.84194e-23)
(1.0104 -8.74476e-05 -2.90464e-22)
(1.01087 -8.07775e-05 -2.28486e-22)
(1.01154 -3.74972e-05 -1.86443e-22)
(0.987602 -0.262356 -9.59817e-21)
(0.99472 -0.266785 1.53043e-20)
(0.84172 -0.166216 0)
(0.852543 -0.167891 -1.83232e-21)
(0.843725 -0.178064 0)
(0.91937 0.128668 3.05486e-22)
(0.926359 0.129021 5.22042e-22)
(0.921717 0.123229 -4.80438e-21)
(1.00151 0.093368 -2.96777e-22)
(0.99634 0.0844986 2.73987e-21)
(0.992021 0.0982464 8.21359e-21)
(0.974144 -0.0594958 -1.4886e-21)
(0.967779 -0.0587226 1.67212e-21)
(0.97221 -0.0540607 -3.24761e-22)
(0.944214 0.139078 -9.35616e-22)
(0.933445 0.130779 1.3806e-23)
(0.940271 0.116787 1.28286e-23)
(0.78273 -0.0565291 -6.35667e-21)
(0.801465 -0.129598 -9.30349e-21)
(0.747732 -0.0594281 2.45177e-20)
(0.906448 0.127162 1.81302e-21)
(0.916382 0.136288 1.3899e-21)
(1.03255 -0.0116732 -1.04528e-21)
(1.03257 -0.0114212 -4.28144e-21)
(0.925712 -0.276102 -4.98861e-21)
(0.933242 -0.283463 1.49624e-20)
(0.92337 -0.287573 3.34995e-22)
(1.02165 -0.000882152 6.8309e-23)
(1.02288 -0.000565881 -4.19123e-22)
(1.02201 0.000392615 1.1652e-21)
(0.961518 0.144006 -1.38826e-22)
(0.954762 0.160739 -1.17843e-23)
(0.999565 0.0417805 -1.01248e-22)
(1.00114 0.0505385 -9.07511e-22)
(1.0211 -0.00189821 -1.97637e-22)
(0.696127 -0.210577 4.15084e-21)
(0.697001 -0.198436 1.06018e-22)
(0.707718 -0.213515 -3.40742e-21)
(1.01808 -0.0107042 -1.82203e-23)
(1.01883 -0.0105126 2.95344e-23)
(1.01806 -0.00998113 1.84215e-22)
(0.899554 0.16567 5.03172e-22)
(0.905739 0.189165 1.0774e-21)
(0.889304 0.192406 -3.87421e-21)
(1.01374 -0.00227654 -5.46311e-22)
(1.01307 -0.00126336 -5.35296e-22)
(1.01447 -0.00137323 -2.16868e-22)
(1.02629 -0.00278312 8.95123e-21)
(1.01541 0.0259646 2.2753e-21)
(1.03331 0.0280445 1.59269e-21)
(1.00713 -0.00185823 -1.77366e-23)
(1.00737 -0.00170975 -3.51205e-22)
(1.00774 -0.00212376 -5.16851e-23)
(1.0118 -0.000979687 1.18847e-22)
(1.01182 -0.00093992 1.66012e-22)
(1.01215 -0.00108891 -1.50766e-22)
(0.89626 -0.147854 1.07159e-20)
(0.940491 -0.220049 1.89575e-23)
(0.896415 -0.204611 5.71892e-21)
(1.01309 -0.00304864 4.81914e-22)
(1.01407 -0.00297883 2.78108e-22)
(0.966391 -0.0452409 2.22689e-21)
(0.970039 -0.040611 7.8305e-22)
(0.963476 -0.0399283 -1.5006e-21)
(0.313347 -0.27929 0)
(0.262386 -0.268925 0)
(0.300157 -0.283029 0)
(1.00818 0.015986 -1.68871e-21)
(1.00696 0.0166663 -1.02331e-21)
(1.00718 0.0148173 -1.61544e-21)
(1.03242 0.100557 0)
(1.01986 0.115115 -7.49171e-22)
(0.460972 -0.309259 3.59347e-21)
(0.501765 -0.301837 -1.38256e-21)
(0.500795 -0.289457 0)
(1.00984 0.0171265 -1.62811e-21)
(1.00913 0.015243 -2.0702e-22)
(1.01334 -0.0174959 9.9971e-23)
(1.01337 -0.0164534 6.24233e-23)
(1.01255 -0.0170128 -3.65659e-22)
(0.999201 -0.171684 3.91327e-21)
(1.00428 -0.176929 -1.54641e-20)
(0.997162 -0.178506 -1.03034e-20)
(1.01536 0.0373473 -5.31583e-22)
(1.0087 0.0348006 3.77062e-21)
(1.01025 0.00812428 2.75098e-22)
(1.0101 0.00792539 4.58307e-22)
(1.01016 0.008186 4.22671e-22)
(1.02766 -0.0202932 -4.37447e-22)
(1.02694 -0.021023 -6.12672e-22)
(0.973603 -0.0367235 2.03169e-21)
(0.971603 -0.0315483 5.17554e-22)
(0.977144 -0.0326238 2.07444e-21)
(1.01048 0.00839564 -6.62818e-22)
(1.01039 0.00809492 -2.60376e-22)
(1.01086 -0.000811064 0)
(1.01139 -0.00100325 7.66809e-22)
(1.01098 -0.00075979 0)
(1.00679 -0.00200091 5.87277e-22)
(1.00663 -0.00156026 -3.57789e-22)
(0.806245 -0.223573 -3.24553e-21)
(0.807684 -0.223964 1.17851e-20)
(0.642601 0.313132 -5.25617e-22)
(0.59289 0.292297 8.65023e-21)
(0.61975 0.305681 -3.03994e-21)
(1.0099 -0.000623904 8.10831e-22)
(1.0107 -0.000842147 0)
(0.963504 -0.335071 -8.35866e-21)
(0.9731 -0.333047 -1.43052e-21)
(0.963055 -0.34306 3.99501e-21)
(1.00458 -0.000532546 -2.77255e-23)
(1.00389 -0.000405146 0)
(1.00403 -0.000424664 0)
(1.01829 0.00209185 -3.10253e-25)
(1.01796 0.00213994 -2.05721e-23)
(1.01837 0.00234906 3.74399e-23)
(1.0102 0.0874583 -2.05228e-21)
(1.00916 0.10197 -4.21238e-21)
(1.01361 -0.00381109 0)
(1.01344 -0.00400281 0)
(0.422548 -0.32933 1.76664e-21)
(0.422247 -0.319192 4.62022e-22)
(0.81244 -0.180182 2.54334e-21)
(0.821022 -0.172576 -5.3054e-22)
(0.824937 -0.184433 -1.2939e-21)
(1.01648 -0.00632239 -1.16356e-21)
(1.01678 -0.00647469 1.14819e-21)
(1.01655 -0.00656793 -1.17641e-21)
(1.03905 -0.0233025 4.57623e-22)
(1.03905 -0.022342 -1.74451e-21)
(1.03773 -0.0229284 -6.61752e-22)
(1.09293 -0.0615558 4.93113e-22)
(1.09582 -0.0543136 -1.2378e-21)
(1.08754 -0.0551003 3.9581e-22)
(0.811629 -0.0467741 5.28886e-21)
(0.7536 0.0178288 8.24116e-21)
(0.888243 -0.226534 3.05692e-21)
(0.899183 -0.222612 1.19948e-21)
(0.897669 -0.234053 5.62196e-21)
(1.05311 -0.0956044 9.56779e-22)
(1.04265 -0.106409 4.37073e-21)
(1.0446 -0.129955 1.6126e-21)
(1.01707 -0.000592227 -6.56541e-22)
(1.01675 -0.0378499 -8.42424e-22)
(1.03458 -0.0282703 -2.35887e-21)
(1.00279 -0.108788 -4.14343e-21)
(1.00728 -0.111593 -1.54969e-20)
(1.00205 -0.114609 -2.55801e-20)
(0.698939 -0.218902 1.29785e-21)
(0.693585 -0.197508 -2.90314e-21)
(1.06067 -0.0654462 -4.02249e-22)
(1.06069 -0.087458 2.60959e-21)
(1.06606 -0.0328251 -9.91071e-22)
(1.06875 -0.0357337 -1.24257e-22)
(1.06995 -0.0315734 -4.82064e-22)
(1.01097 -0.00201401 8.78367e-22)
(1.01023 -0.00224896 6.45829e-22)
(1.01106 -0.00278328 2.45054e-22)
(1.01673 -0.156261 -5.87317e-21)
(1.01141 -0.159747 -3.11122e-21)
(1.01098 -0.153155 -1.15791e-20)
(1.04919 -0.0167114 4.73964e-21)
(1.04909 -0.0153195 5.346e-21)
(1.04062 -0.0239877 -1.05709e-21)
(1.03907 -0.0246272 1.08196e-21)
(0.820247 -0.210999 -1.16418e-22)
(0.804343 -0.220668 -2.5891e-21)
(1.02245 -0.157379 3.04997e-20)
(1.02011 -0.150863 7.09462e-21)
(0.267893 -0.379691 1.62662e-20)
(0.247233 -0.378848 -2.22468e-21)
(0.238847 -0.385906 1.35989e-20)
(1.01114 -0.000624146 3.5633e-22)
(1.01144 -0.000620246 -3.18674e-21)
(1.01232 -0.000706966 -8.64978e-22)
(1.0273 -0.090089 -1.18043e-21)
(1.03099 -0.0920525 2.57318e-21)
(1.02674 -0.0940674 -6.07342e-21)
(0.357825 -0.286917 -2.61568e-20)
(0.317328 -0.276311 2.44484e-20)
(1.01642 -0.00612971 3.32678e-22)
(1.01622 -0.00617645 3.11728e-22)
(1.00609 -0.00217665 2.62576e-22)
(1.00618 -0.00232444 1.62217e-22)
(1.00621 -0.00220871 2.22563e-24)
(1.01626 -0.00660597 -1.07681e-22)
(1.01596 -0.00618622 -2.81454e-23)
(1.01576 -0.00649496 -6.24389e-23)
(1.00421 -0.0447125 2.96575e-21)
(1.00657 -0.0476929 1.31257e-21)
(1.00198 -0.0477174 5.69052e-21)
(1.01999 -0.150745 -3.32981e-21)
(1.02938 -0.115224 7.84524e-22)
(1.01149 -0.125786 -3.79399e-21)
(1.01324 -0.0061891 2.35545e-23)
(1.01336 -0.00611948 -3.40172e-22)
(1.01311 -0.00603752 4.76095e-22)
(0.86069 -0.0859885 9.48239e-21)
(0.90238 -0.110807 1.81666e-21)
(1.02925 -0.0342159 8.47502e-22)
(1.03076 -0.0344206 3.92828e-22)
(1.02998 -0.0325502 5.51348e-22)
(1.01816 0.00185222 -1.34605e-22)
(1.01861 0.00201615 2.10972e-23)
(1.00596 -0.00212332 8.96116e-24)
(1.00598 -0.00201189 -5.5178e-23)
(0.952016 -0.339582 -1.30759e-20)
(0.95858 -0.32615 1.16927e-21)
(0.969262 0.114501 5.09738e-21)
(0.969068 0.105561 -2.04085e-22)
(0.969479 -0.0493963 -1.68613e-21)
(0.96305 -0.049249 1.72432e-21)
(0.28784 -0.381573 -7.27097e-21)
(0.295767 -0.373296 -6.93068e-21)
(0.901681 -0.19877 6.49256e-22)
(0.902168 -0.187746 -7.58082e-22)
(0.91302 -0.196792 5.50122e-22)
(1.03887 -0.0838649 -1.52181e-21)
(1.04472 -0.0871066 4.08522e-22)
(1.04395 -0.0798013 -4.29219e-22)
(1.01545 -0.00250364 -1.26335e-21)
(1.01524 -0.00241125 2.4002e-21)
(1.0154 -0.0023137 1.86474e-23)
(0.68269 0.32743 -7.0264e-24)
(0.656818 0.322536 -6.74767e-24)
(1.00761 -0.0248766 6.13101e-24)
(1.00916 -0.0242674 -2.01442e-22)
(1.0079 -0.0230291 -1.51768e-22)
(1.00189 2.26485e-05 2.35241e-23)
(1.00189 1.24612e-05 1.7161e-22)
(1.00112 1.65993e-05 4.61497e-22)
(1.02817 -0.0359718 0)
(1.02763 -0.033887 8.37447e-23)
(0.723859 0.127584 -3.6707e-21)
(0.67367 0.130044 -7.56104e-21)
(0.717036 0.139228 -8.4015e-21)
(1.002 -0.0415731 -5.38459e-21)
(1.00585 -0.0415129 -5.0928e-21)
(1.01191 0.00845079 7.70853e-22)
(1.0117 0.00856452 3.32382e-22)
(1.01156 0.0081545 -6.84623e-23)
(0.594373 0.105928 3.88583e-21)
(0.553495 0.11071 4.53289e-21)
(0.560664 0.090408 8.12631e-22)
(1.01232 -0.000505835 1.0384e-22)
(1.01262 -0.0012943 -2.21563e-22)
(1.01355 -0.000697739 -3.47756e-22)
(1.00241 -0.000143255 1.85224e-22)
(1.00223 -0.000147499 0)
(1.00293 -0.000173388 0)
(0.88011 -0.222718 9.59557e-22)
(0.878769 -0.23188 -6.30493e-22)
(1.01178 -0.00174721 -3.90674e-22)
(1.01076 -0.00140862 8.3229e-22)
(1.00478 0.00186483 0)
(1.00483 0.00197036 -8.14537e-22)
(1.00484 0.00201341 0)
(-0.0100883 -0.122132 -3.17148e-21)
(0.00351952 -0.137062 8.89648e-21)
(0.000197036 -0.141953 -9.08065e-21)
(1.01357 -0.0184426 1.75134e-22)
(1.01419 -0.0177502 -7.08187e-23)
(1.00692 -0.000936618 4.52489e-22)
(1.00681 -0.00105596 -1.12009e-22)
(1.00656 -0.000802433 -3.56048e-22)
(1.00475 0.00173063 -4.59305e-22)
(1.00474 0.00178487 5.15913e-22)
(0.914781 -0.0864446 2.45425e-22)
(0.923424 -0.0849769 3.18589e-21)
(0.915304 -0.0784272 -2.32429e-22)
(-0.0694367 0.0332741 0)
(-0.06758 0.0278568 -1.20902e-20)
(0.976184 -0.0411379 -3.85952e-22)
(1.0064 -0.000550655 -9.20235e-22)
(1.00545 -0.000351393 -2.68713e-22)
(1.00687 -0.000699201 -2.15438e-22)
(1.03503 -0.00941922 0)
(1.03557 -0.00918161 1.16479e-21)
(1.03509 -0.00874224 0)
(0.735222 -0.34485 1.44359e-21)
(0.770709 -0.346153 -1.37197e-20)
(0.778393 -0.342656 -4.19989e-21)
(1.0182 -0.0115411 6.58075e-23)
(1.01742 -0.0109368 7.45872e-24)
(1.00293 -0.000313171 -7.14117e-23)
(1.00307 -0.000303752 6.81644e-23)
(1.00354 -0.000343536 0)
(0.81981 -0.258826 -1.11529e-21)
(0.826902 -0.265502 -2.78265e-21)
(0.815953 -0.27499 -1.25464e-21)
(1.01053 -0.000220727 -7.84484e-23)
(1.01143 -0.000427803 -4.22326e-22)
(1.01064 -0.000796767 3.98485e-22)
(0.907695 0.0501127 -3.1587e-21)
(0.89912 0.0580274 -3.0255e-21)
(0.912289 0.0610741 7.93297e-21)
(0.997612 -0.10644 6.38109e-21)
(1.00225 -0.103516 8.21262e-21)
(1.00582 -0.025053 -1.18459e-22)
(1.00722 -0.0266019 0)
(0.991143 0.221763 0)
(0.976324 0.237431 1.39393e-21)
(0.980601 0.220931 -9.18717e-22)
(1.02289 -0.045495 -1.5732e-21)
(1.02502 -0.0471597 0)
(1.02172 -0.0480374 5.64742e-21)
(0.900409 -0.212563 -1.64267e-21)
(0.889973 -0.202721 7.14315e-22)
(-0.0197684 -0.107173 -1.06178e-20)
(-0.0199079 -0.10165 0)
(1.04174 -0.0665762 2.09699e-21)
(1.04494 -0.0672761 -5.29146e-21)
(1.04225 -0.0701308 -1.09239e-20)
(0.94117 -0.342619 -9.05069e-21)
(0.938273 -0.34719 1.58516e-20)
(0.931046 -0.0843981 1.40489e-21)
(0.932682 -0.0777324 -2.02295e-21)
(0.938928 -0.0836051 1.44473e-21)
(0.997788 0.103848 0)
(1.00003 0.0886085 -3.35566e-22)
(0.388005 -0.103084 2.07412e-21)
(0.405016 -0.0836323 -1.56895e-21)
(0.420156 -0.104368 1.97795e-21)
(-0.0689222 0.0484557 -1.17734e-20)
(-0.0653903 0.0361329 -4.85176e-21)
(-0.0658333 0.0541734 -8.11389e-22)
(-0.0167022 -0.0430746 -2.78566e-20)
(-0.0250554 -0.0368981 3.24169e-21)
(-0.0104557 -0.0617329 -1.61011e-20)
(1.02834 -0.00233448 1.99321e-21)
(1.02871 -0.00230273 -8.37693e-22)
(1.02864 -0.00262856 0)
(1.02381 -0.00114771 -5.61514e-22)
(1.02382 -0.00250489 1.86784e-22)
(1.02517 -0.00179109 -6.55902e-23)
(0.88989 0.135704 -1.52881e-20)
(0.9037 0.133675 6.94768e-21)
(0.717861 0.245593 1.02131e-21)
(0.733379 0.245954 0)
(1.02301 -0.0875836 7.11896e-21)
(1.02716 -0.085716 -1.65812e-21)
(0.906798 -0.0881698 2.77887e-22)
(0.915768 -0.0934189 -2.57836e-21)
(1.06436 -0.0434292 7.32079e-22)
(1.06733 -0.0474601 8.98911e-22)
(1.06223 -0.0472916 1.05741e-21)
(0.99585 0.119101 1.48427e-22)
(0.397292 -0.109998 1.64225e-20)
(0.437659 -0.062439 1.58404e-20)
(0.454368 -0.0636525 6.65218e-21)
(1.00484 0.00184173 -8.6056e-24)
(1.00484 0.00181182 6.78602e-22)
(1.00485 0.00167536 3.16909e-22)
(0.397217 -0.272535 -1.86213e-20)
(0.351197 -0.260284 -1.00735e-21)
(0.386719 -0.264245 1.06862e-20)
(0.927408 -0.345517 2.89597e-21)
(0.939295 -0.33466 -1.02429e-20)
(1.05736 -0.273222 -4.43693e-21)
(1.08115 -0.305954 -5.94643e-21)
(1.05029 -0.310977 -1.98706e-20)
(1.01173 0.0100632 0)
(1.01204 0.0100272 -1.31072e-22)
(1.01209 0.0105363 -2.552e-22)
(1.00484 0.00201455 -1.05973e-21)
(1.00483 0.00186137 -7.81115e-22)
(0.293302 -0.224456 2.52624e-20)
(0.315246 -0.188146 -1.38914e-21)
(0.29286 -0.218504 1.76102e-20)
(-0.0697684 0.0420942 0)
(-0.0653227 0.0195444 0)
(1.02823 0.0721693 -1.86588e-21)
(1.02834 0.109043 -1.14178e-20)
(1.01231 0.106799 -7.34973e-21)
(0.0665258 -0.121018 -9.05636e-21)
(0.0532059 -0.0986033 -1.97362e-20)
(0.0419316 -0.0954595 -3.09904e-20)
(1.00125 0.000133056 7.08484e-22)
(1.00068 0.000127681 7.03072e-22)
(0.962595 -0.0589761 -2.73006e-22)
(0.959677 -0.0538314 4.00721e-22)
(0.955917 -0.0594668 1.61803e-21)
(0.850627 -0.0947057 -2.20765e-21)
(0.849385 -0.096805 1.6333e-21)
(0.902382 -0.176601 -2.9804e-21)
(0.891236 -0.179024 1.00605e-21)
(1.01171 -0.00679163 2.77199e-22)
(1.01193 -0.00688778 6.10947e-22)
(1.01181 -0.00696917 1.40019e-22)
(1.01633 -0.00590759 3.05074e-26)
(1.01661 -0.00605884 -1.90726e-21)
(0.879882 -0.168359 2.84815e-21)
(0.882329 -0.176923 2.39065e-21)
(0.871028 -0.174052 -4.59999e-21)
(0.918735 -0.269171 1.13209e-20)
(0.928944 -0.266646 8.38249e-22)
(1.03748 -0.00366082 -3.79351e-21)
(1.03708 -0.0030685 -3.41462e-22)
(1.01638 0.000974918 -2.22453e-25)
(1.01649 0.00115337 2.12516e-22)
(1.01616 0.00107212 -8.20178e-23)
(1.016 -0.0207131 -5.60774e-23)
(1.01648 -0.0200289 -4.86637e-22)
(1.01553 -0.0197614 4.99335e-22)
(1.00028 -0.165749 -4.40698e-21)
(0.994057 -0.167 8.39858e-21)
(1.04113 -0.00589954 -7.18936e-21)
(1.04182 -0.00639663 2.38229e-21)
(0.338902 -0.0918305 3.44095e-22)
(0.348802 -0.0791272 0)
(0.34652 -0.0516854 0)
(1.02023 -0.00217972 1.7071e-21)
(1.02025 -0.00203732 2.71912e-21)
(1.02046 -0.00219691 9.98123e-22)
(0.922752 0.112004 0)
(0.923644 0.134185 2.45716e-22)
(1.00532 -0.0313755 -4.52616e-23)
(1.00719 -0.0325854 9.17203e-23)
(1.0049 -0.0339248 5.67139e-23)
(0.401042 -0.298992 7.47819e-21)
(0.400631 -0.295215 -3.65204e-20)
(1.15326 -0.266058 3.93162e-21)
(1.13339 -0.283452 -7.07463e-21)
(1.12968 -0.279737 -6.71407e-21)
(-0.0213818 -0.0260251 -1.45768e-20)
(-0.0040421 -0.055381 7.58699e-21)
(1.02019 -0.00236527 -3.46656e-21)
(1.01999 -0.00218323 1.21026e-21)
(1.01594 0.0424088 -1.97841e-21)
(1.00938 0.0424784 -1.73827e-21)
(1.01466 0.0482497 -3.18226e-21)
(0.973416 -0.211358 -2.08125e-21)
(0.961782 -0.218267 -3.62167e-21)
(0.978406 -0.222067 -2.15512e-23)
(1.01547 -0.000462972 -2.33323e-22)
(1.01528 -0.000550457 -2.18531e-22)
(1.01556 -0.000627257 3.70118e-23)
(1.04017 -0.00637332 -4.31318e-22)
(1.04042 -0.00587482 -6.1711e-21)
(1.03968 -0.0058197 -3.63607e-21)
(0.892047 0.0665782 -3.14583e-23)
(0.884425 0.0771352 0)
(0.89808 0.079542 8.18727e-21)
(1.0279 -0.00245497 2.30131e-21)
(1.02795 -0.00213957 2.366e-21)
(0.452878 -0.307509 3.60572e-20)
(0.406493 -0.304427 2.76467e-20)
(1.0098 0.00025481 5.91585e-22)
(1.01076 0.000319934 -1.06731e-22)
(1.00974 0.000200976 -1.60211e-22)
(1.00984 0.00963577 -3.28661e-22)
(1.00939 0.00919106 1.10889e-21)
(1.01005 0.00915509 5.08575e-22)
(0.899141 -0.0878456 -1.98133e-21)
(0.899559 -0.0965655 2.54867e-21)
(1.10774 -0.138069 0)
(1.10252 -0.127552 0)
(1.09439 -0.137412 0)
(1.01469 -0.00213443 5.8891e-22)
(1.01451 -0.0020396 -5.5446e-24)
(1.01466 -0.00196693 -5.57618e-22)
(1.01563 -0.00257647 -8.05711e-22)
(1.01549 -0.00266415 -2.47621e-21)
(0.448441 -0.281647 -8.76842e-21)
(0.4141 -0.280735 -3.15822e-20)
(1.00459 -0.00347928 -2.75722e-22)
(1.00454 -0.00374266 4.83439e-22)
(1.00444 -0.00341666 -4.48865e-23)
(1.02417 0.000199943 -5.48316e-22)
(-0.0665491 0.0367069 -6.71959e-21)
(-0.0601253 0.0231818 1.20516e-20)
(1.00737 0.000159901 4.01052e-22)
(1.0067 0.000112617 3.07397e-22)
(1.00837 0.000279471 1.70047e-22)
(1.01886 -0.0871619 -7.56452e-21)
(1.01449 -0.0868922 -9.97391e-21)
(1.01695 -0.0910951 -7.85888e-21)
(1.00963 0.0102486 -1.08358e-21)
(1.01047 0.0102131 -1.04153e-21)
(1.01195 -0.0152546 -1.17126e-22)
(1.01119 -0.0147379 -1.19027e-22)
(1.01177 -0.0144704 -1.36145e-22)
(1.02584 -0.0189476 0)
(1.02658 -0.0192719 -7.76403e-22)
(1.02594 -0.0197782 0)
(1.01648 -0.00706624 9.72348e-24)
(1.01674 -0.00670593 8.23604e-23)
(1.01521 -0.00088496 1.12312e-21)
(1.01485 -0.000733975 7.38186e-24)
(1.01505 -0.000727281 -1.33484e-21)
(1.02081 -0.0836855 8.00859e-21)
(1.01138 -0.000442521 2.63871e-23)
(1.01131 -0.000415461 9.89044e-23)
(0.922443 0.228574 -2.79851e-21)
(0.938795 0.210837 3.38985e-21)
(0.934769 0.224117 1.03374e-21)
(0.985546 -0.202011 1.96432e-21)
(0.968928 -0.199871 5.86119e-22)
(1.00538 0.00574465 5.00024e-22)
(1.00548 0.00543033 1.37405e-22)
(1.00574 0.00579203 0)
(1.02036 -0.0439215 -6.72289e-22)
(1.02334 -0.0427176 2.11862e-23)
(0.889851 -0.0890087 3.45922e-22)
(0.896677 -0.0788146 -6.94255e-22)
(1.11332 -0.149296 3.34381e-21)
(1.12067 -0.137487 -5.98907e-21)
(0.888918 -0.138428 4.24924e-22)
(0.889889 -0.130455 -1.97179e-23)
(0.898797 -0.136962 -2.30037e-21)
(1.08823 -0.0678098 -4.12766e-23)
(1.09748 -0.0687636 -6.86852e-22)
(1.04379 -0.157903 -1.38328e-20)
(1.03853 -0.160315 6.63168e-21)
(1.04402 -0.164252 0)
(0.350467 -0.154425 -1.15198e-21)
(0.35938 -0.158573 -1.39525e-21)
(1.00463 -0.00328131 -3.79011e-22)
(1.00471 -0.00356378 -1.34711e-22)
(0.82991 -0.165725 -1.81098e-22)
(0.839655 -0.15541 -1.1468e-22)
(1.03835 -0.0661371 -1.06351e-21)
(1.04062 -0.0634143 6.77668e-21)
(0.903025 -0.166382 5.57684e-22)
(0.913637 -0.174551 1.46544e-21)
(1.00211 -0.000214912 2.44578e-23)
(1.00292 -0.000289643 -3.8989e-23)
(1.01144 -0.00263736 -1.45637e-22)
(1.01128 -0.00248914 -9.801e-22)
(1.01129 -0.00268404 1.51947e-22)
(1.00533 0.00611493 2.68255e-22)
(1.00504 0.00565646 1.01214e-21)
(1.11464 -0.0120118 2.16887e-21)
(1.11966 -0.00464465 1.71326e-22)
(1.12281 -0.0144525 -8.35331e-22)
(0.225112 -0.258771 0)
(0.185338 -0.245149 -1.92311e-20)
(0.211191 -0.2607 0)
(0.870868 0.0833417 -4.82767e-21)
(0.845189 0.0888155 5.3569e-22)
(0.868412 0.0954954 -4.4849e-21)
(1.02931 -0.00994933 2.19997e-23)
(1.0291 -0.0103009 0)
(1.02886 -0.00982171 -1.1111e-21)
(1.01583 -0.00265398 1.94161e-23)
(1.01589 -0.00286136 1.49484e-21)
(1.01607 -0.00274787 -1.42441e-21)
(1.10674 -0.0098768 1.52155e-21)
(1.10979 -0.0176817 2.24329e-21)
(0.915818 0.0429475 -1.13774e-24)
(0.925386 0.0355776 -3.66906e-23)
(0.928804 0.0450991 -3.88005e-23)
(1.00398 0.000184625 -1.0218e-23)
(1.0052 0.00036335 3.95797e-22)
(1.00454 0.000259555 0)
(0.364401 -0.0938403 0)
(0.373154 -0.123005 0)
(0.825091 -0.0166069 0)
(0.817963 -0.0264762 0)
(0.831745 -0.0285985 -3.39888e-21)
(1.01171 -0.00251904 -2.836e-22)
(1.01154 -0.00258811 1.25719e-22)
(1.01154 -0.00237755 2.14203e-22)
(1.00456 -0.00144835 0)
(1.00457 -0.00150913 0)
(1.00449 -0.00141729 0)
(1.01109 0.0120595 -7.3426e-22)
(1.0116 0.0121505 4.41814e-22)
(1.01127 0.0114771 -7.54698e-22)
(1.01316 -0.00625125 -6.95489e-22)
(1.01338 -0.00633964 -1.87857e-22)
(0.101664 -0.146285 7.51883e-20)
(0.0803938 -0.142742 6.24223e-21)
(1.00766 -0.00108737 7.82696e-22)
(1.00804 -0.00110169 4.35256e-22)
(1.00757 -0.000886955 3.26031e-22)
(0.968483 -0.0729315 5.40588e-21)
(0.969261 -0.0823734 2.43227e-22)
(0.960826 -0.0773907 8.93002e-23)
(1.00527 0.00651689 -7.70096e-22)
(1.00567 0.00651768 3.36201e-23)
(1.0066 -0.000130835 1.57057e-23)
(1.00791 -0.000217217 -7.33468e-24)
(1.00647 -0.000140574 -3.94781e-23)
(0.751064 0.053177 2.77396e-21)
(0.796149 0.0646004 -5.00472e-21)
(0.772629 0.0494995 0)
(1.01144 0.00967204 -3.93495e-22)
(1.01115 0.00929768 -3.92468e-22)
(1.01138 0.00922232 -3.56218e-22)
(0.799749 -0.179054 2.37094e-21)
(0.804917 -0.19169 1.19521e-21)
(1.016 -0.000975458 -8.32054e-22)
(1.01585 -0.000837326 0)
(1.01585 -0.000977591 0)
(0.819759 0.0997125 -6.821e-21)
(0.825968 0.132903 -1.3826e-20)
(1.01027 -0.0235309 -1.88572e-22)
(1.01049 -0.0253544 8.40129e-22)
(1.00485 0.00196784 4.21755e-22)
(1.00486 0.00211557 -7.32328e-22)
(1.01184 -0.00267752 8.95398e-22)
(1.01184 -0.00248837 0)
(1.01651 0.0366139 -2.82196e-22)
(1.02218 0.0408226 1.58971e-21)
(0.732279 0.307188 -6.13982e-21)
(0.738183 0.303051 2.42757e-21)
(0.706615 0.327479 -2.19225e-21)
(0.718125 0.317381 1.33491e-21)
(0.760224 0.2807 -1.86339e-21)
(1.00485 0.00198132 8.74112e-22)
(1.00482 0.00183483 3.25347e-22)
(0.904002 0.0388984 9.48261e-22)
(1.02905 -0.00243139 1.41615e-22)
(1.0289 -0.00210291 1.53161e-21)
(1.01494 -0.00814466 -2.53213e-22)
(1.01489 -0.0081053 -1.99815e-22)
(1.015 -0.00821973 -4.334e-22)
(0.54362 0.151966 -2.81353e-21)
(0.548436 0.129072 -2.85151e-21)
(0.579933 0.143641 -8.31682e-23)
(0.802819 -0.252408 0)
(0.805543 -0.242551 -3.38656e-21)
(0.79607 -0.241454 0)
(1.015 -0.00819824 4.11174e-22)
(1.01488 -0.00806319 -1.5696e-23)
(1.00474 -0.00274789 2.00916e-23)
(1.00472 -0.00289868 -6.99305e-24)
(1.00467 -0.00266647 -3.50307e-23)
(1.02494 -0.0204771 -6.89041e-23)
(1.02499 -0.0223116 -1.05761e-23)
(1.02685 -0.0214074 -5.13553e-23)
(1.02513 -0.0185714 7.55088e-22)
(1.0257 -0.0182333 9.85687e-22)
(1.03404 -0.012636 -1.40638e-21)
(1.03438 -0.0128876 -4.30145e-21)
(1.03398 -0.0131748 6.5599e-22)
(1.01148 -0.000490053 0)
(1.012 -0.000544875 -1.66131e-23)
(1.0127 -0.0157471 0)
(1.01205 -0.0161206 7.36999e-23)
(1.03614 -0.00943621 -4.40069e-21)
(1.0364 -0.00991181 2.31953e-21)
(1.00455 -0.00138451 4.8966e-23)
(1.00463 -0.00147873 -8.24296e-23)
(1.00486 -0.00033589 -2.76018e-22)
(1.00634 -0.000507407 3.30641e-22)
(1.00524 -0.000380282 -2.35587e-22)
(1.01651 -0.00237461 3.49719e-22)
(1.01634 -0.00245728 0)
(1.01632 -0.0022345 0)
(0.914496 -0.346787 3.0188e-20)
(0.914523 -0.340298 2.64744e-21)
(0.897632 -0.348456 2.43695e-20)
(1.01886 -0.00497094 0)
(1.00476 -0.00259646 7.00671e-23)
(1.00479 -0.00280431 4.74938e-23)
(1.01256 -0.00220965 8.3402e-23)
(1.01272 -0.00215793 2.49915e-23)
(1.0125 -0.00205333 2.25603e-23)
(0.920892 0.0269076 -3.858e-22)
(0.932103 0.0295869 3.1724e-21)
(1.00589 -0.00215906 -8.87201e-24)
(1.00582 -0.00217203 3.95277e-23)
(1.00595 -0.00228353 0)
(1.00582 -0.00203431 -5.81997e-23)
(1.00351 0.0001798 -6.26438e-24)
(1.00263 2.9187e-05 3.79085e-22)
(1.03652 -0.00493448 -7.2054e-21)
(1.03707 -0.00494363 -3.71309e-21)
(1.03691 -0.00538931 -6.75552e-21)
(1.00995 0.00769691 -4.56674e-24)
(1.00994 0.00780001 1.65138e-23)
(1.00731 0.000504178 -2.56131e-22)
(1.00692 0.00042416 -5.53029e-22)
(1.00787 0.000552248 -2.63201e-22)
(1.00617 0.000211375 1.01245e-21)
(1.00547 0.000182762 -1.92746e-22)
(1.0069 0.000257215 5.46042e-22)
(1.01038 0.0132836 5.6425e-22)
(1.00993 0.013904 9.97881e-22)
(1.00964 0.0127792 4.74761e-22)
(0.886859 -0.145209 8.3503e-22)
(0.880437 -0.138767 -4.27958e-21)
(1.01097 -0.000501334 1.45627e-21)
(1.00907 -0.000398888 1.5601e-21)
(1.01005 -5.06187e-05 4.80754e-22)
(1.00908 -7.50921e-05 1.872e-22)
(0.000869009 -0.156428 1.02071e-20)
(-0.0016748 -0.150742 1.39702e-20)
(0.00914692 -0.171397 -4.55103e-21)
(1.04159 -0.0139495 2.67683e-21)
(1.04206 -0.0135375 2.352e-21)
(1.04128 -0.0133635 -2.40364e-21)
(1.00379 0.000398586 -2.59787e-22)
(1.00422 0.000431141 -6.31465e-22)
(1.00339 0.00034394 2.4764e-22)
(1.00345 0.000347319 7.33663e-23)
(1.00418 0.000482352 -4.7688e-22)
(0.753311 -0.233005 -2.58184e-21)
(0.755296 -0.241323 -8.91922e-21)
(0.739559 -0.244022 8.73412e-21)
(1.07221 0.0152371 -3.33218e-21)
(1.07007 0.0277793 2.54958e-21)
(1.06841 0.0167384 2.98205e-22)
(1.0163 0.000836804 0)
(1.01656 0.000921346 0)
(1.01888 0.0205146 0)
(1.01681 0.0180154 -1.39406e-22)
(1.02023 0.0174075 0)
(0.960557 0.115222 2.15733e-22)
(0.966434 0.120699 1.86665e-22)
(1.007 -0.00244312 9.67232e-22)
(1.00637 -0.00202937 2.31498e-22)
(1.01843 0.0335145 0)
(1.02153 0.0399511 0)
(1.01665 -0.00230071 8.09266e-22)
(1.01668 -0.0025093 3.01209e-22)
(0.701287 0.325114 2.22708e-21)
(0.722275 0.299282 0)
(0.686034 0.332402 -4.31213e-21)
(0.887376 0.0536814 -4.27513e-21)
(0.964388 0.0194994 0)
(0.958936 0.0150227 7.99543e-22)
(0.959038 0.0238601 1.42935e-21)
(0.978232 -0.060184 -2.30088e-21)
(0.97467 -0.0646519 2.71077e-22)
(0.939532 -0.292328 -3.21559e-21)
(0.941676 -0.280676 1.15006e-20)
(1.01802 0.00162873 -1.50871e-23)
(1.01831 0.00152851 2.44756e-23)
(1.01789 0.00139923 1.22451e-22)
(0.766163 -0.239684 -3.99599e-21)
(0.774605 -0.238849 1.81538e-21)
(0.782592 -0.223537 7.09441e-21)
(0.881681 -0.0896175 -1.61727e-22)
(0.878478 -0.0802315 -9.16002e-22)
(0.870782 -0.089519 1.4107e-21)
(1.0049 -0.00056756 0)
(1.00437 -0.000482325 1.84484e-23)
(1.00417 -0.000453709 0)
(0.969417 0.0144762 7.58095e-22)
(0.970331 0.0222185 2.85708e-21)
(1.06701 -0.039593 -2.98537e-22)
(1.06252 -0.0398731 -7.27747e-22)
(0.422707 -0.0649532 -2.20661e-21)
(0.395687 -0.0578859 -5.45434e-22)
(1.01085 -0.00340262 7.27899e-24)
(1.01103 -0.00354078 5.6933e-23)
(1.01088 -0.00359494 6.32373e-22)
(1.01771 0.00170701 -1.7558e-22)
(-0.0669064 0.0310862 -2.60998e-20)
(0.851525 -0.114335 4.50176e-23)
(0.853647 -0.122798 -6.93953e-22)
(1.00503 -0.00260206 2.40631e-23)
(1.005 -0.00262881 -1.08903e-22)
(1.00508 -0.00274936 -3.33637e-23)
(0.0186377 -0.152657 1.20591e-20)
(0.0387695 -0.168506 3.27913e-20)
(0.0330731 -0.17259 0)
(1.10039 -0.00854228 2.16709e-22)
(1.09651 -0.0135627 0)
(1.09408 -0.00732619 2.23193e-22)
(0.998778 -0.0246253 1.496e-22)
(1.00065 -0.0249847 0)
(0.999708 -0.0266721 0)
(0.657267 -0.343371 1.75342e-20)
(0.700742 -0.344615 5.14386e-21)
(0.700471 -0.343151 4.80967e-21)
(1.01066 -0.00328011 -1.9388e-23)
(1.01081 -0.00321899 2.5225e-22)
(1.01145 0.0101349 7.93814e-22)
(1.01612 -0.000943631 -1.55153e-22)
(1.01608 -0.00107652 -7.6791e-22)
(1.00237 7.07001e-05 -4.75686e-22)
(1.00177 3.93287e-05 -6.51127e-23)
(1.01924 -0.0137536 4.43348e-22)
(1.01883 -0.0137304 -6.2215e-22)
(1.01922 -0.0141732 -5.82804e-22)
(1.01243 0.0096187 -5.51526e-22)
(1.01201 0.00910244 9.96093e-23)
(1.01173 0.00962521 -8.5023e-22)
(1.03349 -0.0116423 7.70115e-21)
(1.03326 -0.0113942 4.94383e-22)
(1.00451 -0.00398771 4.65917e-23)
(1.00447 -0.00428754 -6.31446e-23)
(1.00432 -0.00394859 8.64735e-23)
(1.01968 -0.013771 4.29834e-22)
(1.01928 -0.0133908 7.11811e-22)
(1.02961 -0.00947966 -5.19141e-22)
(1.02948 -0.0097165 2.01623e-22)
(1.02989 -0.00964156 1.48693e-21)
(0.786899 0.272495 0)
(0.793289 0.279128 2.7529e-22)
(0.749125 -0.223423 -2.12678e-21)
(0.769901 -0.216418 1.98584e-21)
(1.00998 -0.000150553 1.42269e-22)
(1.01055 0.000298198 2.38917e-22)
(0.753754 -0.255736 -3.93208e-21)
(1.01176 -0.181584 -3.33984e-21)
(1.02327 -0.171502 1.10265e-21)
(1.00505 -0.00259661 -3.97359e-23)
(1.00497 -0.00250462 1.09928e-22)
(1.03718 -0.0339348 1.35129e-20)
(1.03669 -0.0322468 -8.80809e-21)
(1.03837 -0.0328181 -2.12761e-21)
(1.07348 0.00194819 -8.6556e-22)
(1.07494 0.012969 -8.99982e-22)
(1.01457 -0.262709 9.82309e-21)
(1.02035 -0.266141 1.58379e-20)
(1.0211 -0.258782 4.60432e-21)
(1.02459 0.180409 -4.22283e-21)
(1.00706 0.203695 -1.54922e-21)
(1.01456 0.1842 2.09954e-21)
(0.91651 0.129385 1.62358e-21)
(0.914285 0.122786 -4.65276e-22)
(0.936009 0.124276 -2.51245e-21)
(1.0203 -0.00181935 6.84121e-22)
(1.02004 -0.00181235 1.12239e-21)
(0.0507522 -0.159396 -1.93693e-20)
(0.0756715 -0.176309 1.73323e-20)
(0.0563236 -0.154272 -3.25191e-20)
(0.788015 0.0436793 1.58954e-21)
(0.752706 -0.0177982 4.88947e-21)
(0.754208 0.017463 -1.99055e-22)
(0.998558 -0.0232993 0)
(0.997744 -0.0256015 -3.93453e-22)
(0.99609 -0.0235785 5.24826e-22)
(1.02969 -0.00920517 1.00434e-22)
(1.02926 -0.00932849 -5.82974e-22)
(0.996927 -0.0240937 6.76659e-23)