/*--------------------------------*- C++ -*----------------------------------*\
| =========                 |                                                 |
| \\      /  F ield         | OpenFOAM: The Open Source CFD Toolbox           |
|  \\    /   O peration     | Version:  v2012                                 |
|   \\  /    A nd           | Website:  www.openfoam.com                      |
|    \\/     M anipulation  |                                                 |
\*---------------------------------------------------------------------------*/
FoamFile
{
    version     2.0;
    format      ascii;
    class       volVectorField;
    location    "750";
    object      cellDisplacement;
}
// * * * * * * * * * * * * * * * * * * * * * * * * * * * * * * * * * * * * * //

dimensions      [0 1 0 0 0 0 0];


internalField   nonuniform List<vector> 
9793
(
(0 0.0275511 0)
(0 0.000295618 0)
(0 0.0274749 0)
(0 0.00485175 0)
(0 0.0283275 0)
(0 0.0217209 0)
(0 0.00144537 0)
(0 0.00930374 0)
(0 0.0236789 0)
(0 0.0282974 0)
(0 0.0288631 0)
(0 0.0233512 0)
(0 0.00434753 0)
(0 0.00360677 0)
(0 0.000247305 0)
(0 0.00340482 0)
(0 0.00855287 0)
(0 0.0086636 0)
(0 0.0269339 0)
(0 0.00352775 0)
(0 0.024965 0)
(0 0.0252582 0)
(0 0.00733223 0)
(0 4.3191e-05 0)
(0 0.0170616 0)
(0 0.00357977 0)
(0 0.00329187 0)
(0 0.00846586 0)
(0 0.0281892 0)
(0 0.0234712 0)
(0 0.0225795 0)
(0 0.00724335 0)
(0 0.0120744 0)
(0 0.000433707 0)
(0 0.0281532 0)
(0 0.0252455 0)
(0 0.00102367 0)
(0 0.0251375 0)
(0 0.0111397 0)
(0 0.0012441 0)
(0 0.0223784 0)
(0 0.000450122 0)
(0 0.00223598 0)
(0 0.00142254 0)
(0 0.00181231 0)
(0 0.00303138 0)
(0 0.0282247 0)
(0 0.0056374 0)
(0 0.0213014 0)
(0 0.00546403 0)
(0 0.0281917 0)
(0 0.0287795 0)
(0 0.0223627 0)
(0 0.0234598 0)
(0 0.0286124 0)
(0 0.0244766 0)
(0 0.0187917 0)
(0 0.0292421 0)
(0 0.0214519 0)
(0 0.0108089 0)
(0 0.000797635 0)
(0 0.0228621 0)
(0 0.0215923 0)
(0 0.00270295 0)
(0 0.0285572 0)
(0 0.0120289 0)
(0 0.0214321 0)
(0 0.021265 0)
(0 0.0232258 0)
(0 0.0287997 0)
(0 0.0285512 0)
(0 2.53261e-05 0)
(0 0.0158258 0)
(0 0.000471237 0)
(0 0.0281585 0)
(0 0.0213254 0)
(0 0.0191662 0)
(0 0.000177466 0)
(0 0.0106927 0)
(0 0.00909256 0)
(0 0.0122233 0)
(0 0.0111766 0)
(0 0.000238793 0)
(0 0.00600055 0)
(0 0.0223197 0)
(0 0.00576065 0)
(0 0.00921856 0)
(0 0.019521 0)
(0 0.0224649 0)
(0 0.0117688 0)
(0 0.000408568 0)
(0 0.028687 0)
(0 0.00519139 0)
(0 0.00708314 0)
(0 0.0227628 0)
(0 0.00612 0)
(0 0.0245321 0)
(0 0.000298977 0)
(0 0.00508894 0)
(0 0.00414714 0)
(0 0.0040573 0)
(0 0.012351 0)
(0 0.00565847 0)
(0 0.00552008 0)
(0 0.000219078 0)
(0 0.022107 0)
(0 0.0224119 0)
(0 0.000984935 0)
(0 0.0222337 0)
(0 0.00538332 0)
(0 2.66131e-05 0)
(0 0.0243301 0)
(0 0.016737 0)
(0 0.0249086 0)
(0 0.0287277 0)
(0 0.0192462 0)
(0 0.0115809 0)
(0 0.0280868 0)
(0 0.0112927 0)
(0 0.00697752 0)
(0 0.00549974 0)
(0 1.00071e-05 0)
(0 0.0179213 0)
(0 0.0218084 0)
(0 0.0249895 0)
(0 0.0248087 0)
(0 0.0289314 0)
(0 0.00587198 0)
(0 0.0108077 0)
(0 0.0149288 0)
(0 5.15734e-05 0)
(0 0.019625 0)
(0 0.0153069 0)
(0 0.0133011 0)
(0 0.0231625 0)
(0 0.0198492 0)
(0 0.00225016 0)
(0 0.00143193 0)
(0 0.01617 0)
(0 0.000697363 0)
(0 0.0174367 0)
(0 0.0165916 0)
(0 0.00284854 0)
(0 0.00405745 0)
(0 0.00373464 0)
(0 0.00390147 0)
(0 0.000116108 0)
(0 0.00414783 0)
(0 0.00514766 0)
(0 0.0287591 0)
(0 0.0276702 0)
(0 5.75408e-05 0)
(0 0.0277314 0)
(0 0.0282055 0)
(0 0.00503701 0)
(0 1.86745e-05 0)
(0 0.000324752 0)
(0 0.0163127 0)
(0 0.00406496 0)
(0 0.00281369 0)
(0 0.00959967 0)
(0 0.00832873 0)
(0 0.00294439 0)
(0 0.0267151 0)
(0 0.000312222 0)
(0 0.0251249 0)
(0 0.00575025 0)
(0 0.0269205 0)
(0 0.003175 0)
(0 0.0117866 0)
(0 0.016991 0)
(0 0.0152729 0)
(0 0.000286492 0)
(0 0.0154285 0)
(0 0.0249091 0)
(0 0.0268564 0)
(0 0.0199314 0)
(0 0.000157605 0)
(0 0.0162123 0)
(0 0.0278934 0)
(0 0.0295333 0)
(0 0.0265954 0)
(0 0.00415157 0)
(0 0.0167848 0)
(0 0.0208438 0)
(0 0.01536 0)
(0 0.0292535 0)
(0 0.0160343 0)
(0 0.0176976 0)
(0 0.00301508 0)
(0 0.0250031 0)
(0 0.00985003 0)
(0 0.0210976 0)
(0 0.024492 0)
(0 0.0214291 0)
(0 0.0278327 0)
(0 0.0275171 0)
(0 0.0109885 0)
(0 0.0281314 0)
(0 0.000618877 0)
(0 0.0229399 0)
(0 0.0264897 0)
(0 0.0245985 0)
(0 0.0146109 0)
(0 0.020238 0)
(0 0.000168531 0)
(0 0.0251106 0)
(0 0.00360936 0)
(0 0.0220442 0)
(0 0.026056 0)
(0 0.0278313 0)
(0 0.0209057 0)
(0 0.0214887 0)
(0 0.0237385 0)
(0 0.0275315 0)
(0 0.000319578 0)
(0 0.0124098 0)
(0 0.0207132 0)
(0 0.00021022 0)
(0 0.022481 0)
(0 0.0279303 0)
(0 0.0183393 0)
(0 0.0250872 0)
(0 0.0092711 0)
(0 0.00599284 0)
(0 0.0266405 0)
(0 0.0219029 0)
(0 0.00501609 0)
(0 0.0280052 0)
(0 0.0286639 0)
(0 7.68443e-05 0)
(0 7.34773e-05 0)
(0 0.026745 0)
(0 0.000511104 0)
(0 0.0289153 0)
(0 0.0223582 0)
(0 0.015515 0)
(0 0.0160432 0)
(0 0.024404 0)
(0 0.0117182 0)
(0 0.0218219 0)
(0 0.00377694 0)
(0 0.0153156 0)
(0 0.0121142 0)
(0 0.0154071 0)
(0 0.00506114 0)
(0 0.00889934 0)
(0 0.0161082 0)
(0 0.00517049 0)
(0 0.000532399 0)
(0 0.0230715 0)
(0 0.0271027 0)
(0 0.0286556 0)
(0 0.0289284 0)
(0 0.0142751 0)
(0 0.0250595 0)
(0 0.0169545 0)
(0 0.02717 0)
(0 0.0208308 0)
(0 0.00362874 0)
(0 0.00593026 0)
(0 0.0158098 0)
(0 0.0285991 0)
(0 0.000363802 0)
(0 0.0270485 0)
(0 0.000123839 0)
(0 0.000162433 0)
(0 0.0277693 0)
(0 0.0264011 0)
(0 0.0219547 0)
(0 0.00371246 0)
(0 0.00250549 0)
(0 0.0261427 0)
(0 0.0188343 0)
(0 0.000451076 0)
(0 0.000371475 0)
(0 0.0149755 0)
(0 0.0246373 0)
(0 0.00494685 0)
(0 0.0289639 0)
(0 0.0158217 0)
(0 0.000168065 0)
(0 0.000774689 0)
(0 0.00125202 0)
(0 0.028952 0)
(0 0.0183682 0)
(0 0.0229485 0)
(0 0.0270675 0)
(0 0.00230026 0)
(0 0.0201633 0)
(0 0.0161014 0)
(0 0.0117493 0)
(0 0.0218006 0)
(0 0.00100923 0)
(0 7.30668e-05 0)
(0 0.0131537 0)
(0 0.0250815 0)
(0 0.0271508 0)
(0 0.00598423 0)
(0 0.0264213 0)
(0 0.00513147 0)
(0 0.0135159 0)
(0 0.0114988 0)
(0 0.00073085 0)
(0 0.00115233 0)
(0 0.00393698 0)
(0 0.0262057 0)
(0 0.0263826 0)
(0 0.0153415 0)
(0 0.0133705 0)
(0 0.00329875 0)
(0 0.00383235 0)
(0 0.0263704 0)
(0 0.0229854 0)
(0 0.0222684 0)
(0 0.0116599 0)
(0 0.0058788 0)
(0 0.0149534 0)
(0 0.0261918 0)
(0 0.026219 0)
(0 0.0137807 0)
(0 0.000435079 0)
(0 0.0272704 0)
(0 0.000400203 0)
(0 0.000191889 0)
(0 0.029517 0)
(0 0.025112 0)
(0 0.0216524 0)
(0 0.0280768 0)
(0 0.00267251 0)
(0 0.0275445 0)
(0 0.0280078 0)
(0 0.0122297 0)
(0 0.0217532 0)
(0 0.0288842 0)
(0 0.00833487 0)
(0 0.00197719 0)
(0 0.0225899 0)
(0 0.0006419 0)
(0 0.00870146 0)
(0 0.02761 0)
(0 0.0163304 0)
(0 0.0135625 0)
(0 0.0263205 0)
(0 0.0118718 0)
(0 0.00332769 0)
(0 0.000134368 0)
(0 0.02483 0)
(0 0.00876176 0)
(0 0.0276288 0)
(0 0.0250449 0)
(0 0.0199522 0)
(0 0.0222885 0)
(0 0.0121848 0)
(0 0.0148595 0)
(0 0.0232599 0)
(0 0.0249831 0)
(0 0.000141227 0)
(0 0.0283243 0)
(0 0.0285359 0)
(0 0.0292116 0)
(0 0.0283707 0)
(0 0.0246041 0)
(0 0.0137158 0)
(0 0.0274548 0)
(0 0.000800554 0)
(0 0.00599712 0)
(0 0.011368 0)
(0 0.000466845 0)
(0 0.0113803 0)
(0 0.0215219 0)
(0 0.0272953 0)
(0 0.0198375 0)
(0 0.0289402 0)
(0 0.0253966 0)
(0 0.0189714 0)
(0 0.0145132 0)
(0 0.0118958 0)
(0 0.0278289 0)
(0 0.000231933 0)
(0 0.0251818 0)
(0 0.0231063 0)
(0 0.0202136 0)
(0 0.00518855 0)
(0 0.0251292 0)
(0 0.000229344 0)
(0 0.00101399 0)
(0 0.0033702 0)
(0 0.0233411 0)
(0 0.0250972 0)
(0 0.0149377 0)
(0 0.0246241 0)
(0 0.0291903 0)
(0 0.00668042 0)
(0 0.0273503 0)
(0 0.0287098 0)
(0 0.000272549 0)
(0 0.00103362 0)
(0 0.0224687 0)
(0 0.0280676 0)
(0 0.00656197 0)
(0 0.00386326 0)
(0 0.0255384 0)
(0 0.0259554 0)
(0 0.00244866 0)
(0 0.0250881 0)
(0 0.0164097 0)
(0 0.0252194 0)
(0 0.00233338 0)
(0 0.0277463 0)
(0 0.0161022 0)
(0 0.0278849 0)
(0 0.024798 0)
(0 0.0036889 0)
(0 0.00747029 0)
(0 0.0164808 0)
(0 0.0251835 0)
(0 0.0166894 0)
(0 0.011255 0)
(0 0.0222054 0)
(0 0.00398994 0)
(0 0.0264871 0)
(0 0.00493122 0)
(0 0.0224552 0)
(0 0.0288401 0)
(0 0.0229483 0)
(0 0.0206581 0)
(0 0.0252114 0)
(0 0.00283148 0)
(0 0.0278857 0)
(0 0.00255719 0)
(0 0.0223756 0)
(0 0.0020067 0)
(0 0.00818169 0)
(0 0.00377607 0)
(0 0.00830768 0)
(0 0.0119526 0)
(0 0.0205033 0)
(0 0.00139173 0)
(0 0.0119193 0)
(0 0.000938508 0)
(0 0.0244714 0)
(0 0.0211236 0)
(0 0.010832 0)
(0 0.0284675 0)
(0 0.00313206 0)
(0 0.0172092 0)
(0 0.0252337 0)
(0 0.0258358 0)
(0 0.0226673 0)
(0 0.0287323 0)
(0 0.0207106 0)
(0 0.0222001 0)
(0 0.0123613 0)
(0 0.025123 0)
(0 0.027815 0)
(0 0.0276339 0)
(0 0.000236112 0)
(0 0.00965547 0)
(0 0.00331917 0)
(0 0.0163338 0)
(0 0.0288995 0)
(0 0.0183469 0)
(0 0.0116075 0)
(0 0.0177774 0)
(0 0.00557274 0)
(0 0.000583042 0)
(0 0.0246607 0)
(0 0.0278321 0)
(0 0.0205028 0)
(0 0.00570148 0)
(0 0.0261022 0)
(0 0.000117725 0)
(0 0.000519261 0)
(0 0.000136207 0)
(0 0.0113248 0)
(0 0.0249752 0)
(0 0.0122623 0)
(0 0.0162521 0)
(0 0.00227641 0)
(0 0.0036586 0)
(0 0.0205754 0)
(0 0.00555124 0)
(0 0.0023106 0)
(0 0.0117953 0)
(0 0.0116849 0)
(0 0.0214384 0)
(0 0.0251456 0)
(0 0.0216304 0)
(0 0.0207025 0)
(0 0.000276906 0)
(0 0.000266707 0)
(0 0.0252427 0)
(0 0.0207598 0)
(0 0.0225856 0)
(0 0.0018133 0)
(0 0.00269324 0)
(0 0.0112696 0)
(0 0.0171624 0)
(0 0.0146756 0)
(0 5.70022e-05 0)
(0 0.0286173 0)
(0 0.000343895 0)
(0 0.0210477 0)
(0 0.0268401 0)
(0 0.00461624 0)
(0 0.021972 0)
(0 0.0108463 0)
(0 0.024184 0)
(0 0.0156242 0)
(0 0.023979 0)
(0 0.00278495 0)
(0 0.0154791 0)
(0 0.0286885 0)
(0 0.0172103 0)
(0 0.0283796 0)
(0 0.0111959 0)
(0 0.0262525 0)
(0 0.00453556 0)
(0 0.0292405 0)
(0 0.0211954 0)
(0 0.00701183 0)
(0 0.0164088 0)
(0 0.0291791 0)
(0 0.0122818 0)
(0 0.00673011 0)
(0 0.00664797 0)
(0 0.0120497 0)
(0 0.0119617 0)
(0 0.0289556 0)
(0 0.0267598 0)
(0 0.0219358 0)
(0 0.0160701 0)
(0 0.0143897 0)
(0 0.0222467 0)
(0 9.40382e-05 0)
(0 0.00584789 0)
(0 0.0240411 0)
(0 0.0292179 0)
(0 0.00262249 0)
(0 0.0146918 0)
(0 0.0281373 0)
(0 0.0195138 0)
(0 0.00494094 0)
(0 0.0251591 0)
(0 8.49401e-05 0)
(0 0.0288939 0)
(0 0.0204258 0)
(0 0.018819 0)
(0 0.0295026 0)
(0 0.00022833 0)
(0 0.0247947 0)
(0 0.0270794 0)
(0 0.0200048 0)
(0 0.0150187 0)
(0 0.0149198 0)
(0 0.00865376 0)
(0 0.000580861 0)
(0 0.013954 0)
(0 0.0215389 0)
(0 0.0123587 0)
(0 0.0286785 0)
(0 0.0284196 0)
(0 0.0238188 0)
(0 0.0275593 0)
(0 0.000427103 0)
(0 0.0283919 0)
(0 0.0144571 0)
(0 0.00561986 0)
(0 0.0229675 0)
(0 0.0202827 0)
(0 0.00179134 0)
(0 0.00484178 0)
(0 0.000932003 0)
(0 0.0261026 0)
(0 0.014197 0)
(0 0.0294729 0)
(0 0.00200212 0)
(0 0.000474839 0)
(0 0.026424 0)
(0 0.0262205 0)
(0 0.0278886 0)
(0 0.0160119 0)
(0 0.0157059 0)
(0 0.0192884 0)
(0 0.0189115 0)
(0 0.0270584 0)
(0 0.00633783 0)
(0 0.00978489 0)
(0 0.0254162 0)
(0 0.00582821 0)
(0 0.000994152 0)
(0 0.026185 0)
(0 0.0255028 0)
(0 0.0173704 0)
(0 0.0229706 0)
(0 0.0191745 0)
(0 0.0271741 0)
(0 0.0266544 0)
(0 0.0263231 0)
(0 0.00577216 0)
(0 0.0111238 0)
(0 0.0244588 0)
(0 0.0271085 0)
(0 0.0227219 0)
(0 0.024981 0)
(0 0.0180863 0)
(0 0.0195209 0)
(0 0.0266029 0)
(0 0.0278265 0)
(0 0.0014722 0)
(0 0.0162183 0)
(0 0.00853987 0)
(0 0.0132221 0)
(0 0.0134931 0)
(0 0.0152402 0)
(0 0.00627765 0)
(0 2.79962e-05 0)
(0 0.0147809 0)
(0 0.00620842 0)
(0 0.00821918 0)
(0 0.0247279 0)
(0 0.000810745 0)
(0 0.0260814 0)
(0 0.000450514 0)
(0 0.0231788 0)
(0 0.0245122 0)
(0 0.0267733 0)
(0 0.0284302 0)
(0 0.00082011 0)
(0 0.0138805 0)
(0 0.0162964 0)
(0 0.00644135 0)
(0 0.00173407 0)
(0 0.000277747 0)
(0 0.00182144 0)
(0 0.0131352 0)
(0 0.019626 0)
(0 0.00194603 0)
(0 0.0279718 0)
(0 0.00103852 0)
(0 0.000861165 0)
(0 0.0183182 0)
(0 0.0200949 0)
(0 0.00927787 0)
(0 0.00227788 0)
(0 0.0289011 0)
(0 0.000272349 0)
(0 0.019134 0)
(0 0.0294762 0)
(0 0.0172428 0)
(0 0.0015411 0)
(0 0.000134138 0)
(0 0.0292707 0)
(0 0.00863661 0)
(0 0.0289232 0)
(0 0.028605 0)
(0 0.0109504 0)
(0 0.0120896 0)
(0 0.0190141 0)
(0 0.0189654 0)
(0 0.00975395 0)
(0 0.00783056 0)
(0 0.00211419 0)
(0 0.000223215 0)
(0 0.0204865 0)
(0 0.0282839 0)
(0 0.0167975 0)
(0 0.0291977 0)
(0 0.0188164 0)
(0 0.0179599 0)
(0 0.0248314 0)
(0 0.00833291 0)
(0 0.0159445 0)
(0 0.00578388 0)
(0 0.0285592 0)
(0 0.01344 0)
(0 0.0262355 0)
(0 0.0242202 0)
(0 0.0295051 0)
(0 0.0230666 0)
(0 0.0166247 0)
(0 0.00577526 0)
(0 0.0283027 0)
(0 0.0129018 0)
(0 0.0210975 0)
(0 0.0288791 0)
(0 0.0293942 0)
(0 0.0143817 0)
(0 0.00483259 0)
(0 0.00793049 0)
(0 0.0107663 0)
(0 0.00471627 0)
(0 0.0116802 0)
(0 0.00435862 0)
(0 0.00958876 0)
(0 0.0230636 0)
(0 0.013707 0)
(0 0.00977645 0)
(0 0.00879938 0)
(0 0.000646033 0)
(0 0.0102493 0)
(0 0.00195464 0)
(0 0.0245422 0)
(0 0.00195551 0)
(0 0.00956305 0)
(0 0.0274118 0)
(0 0.00611637 0)
(0 0.0287597 0)
(0 0.0225655 0)
(0 0.0287417 0)
(0 0.0161729 0)
(0 0.0247328 0)
(0 0.0200784 0)
(0 0.0230741 0)
(0 0.0292385 0)
(0 0.00200907 0)
(0 0.000259232 0)
(0 0.00564193 0)
(0 0.0191604 0)
(0 0.0231649 0)
(0 0.00319266 0)
(0 0.00441187 0)
(0 0.00648624 0)
(0 0.00562781 0)
(0 0.00551964 0)
(0 0.00948477 0)
(0 0.0293763 0)
(0 0.004149 0)
(0 0.0265767 0)
(0 0.0283409 0)
(0 0.0252087 0)
(0 0.0253686 0)
(0 0.00162307 0)
(0 0.0066311 0)
(0 0.00233382 0)
(0 0.0111306 0)
(0 0.0261586 0)
(0 0.00188816 0)
(0 0.0226751 0)
(0 0.00505805 0)
(0 0.00216869 0)
(0 0.0111046 0)
(0 0.0135677 0)
(0 0.0161083 0)
(0 0.0191923 0)
(0 0.0196996 0)
(0 0.000698497 0)
(0 0.0102052 0)
(0 0.0122616 0)
(0 0.0282211 0)
(0 0.00399888 0)
(0 0.00663403 0)
(0 0.00423436 0)
(0 0.0198906 0)
(0 0.00890682 0)
(0 0.0201498 0)
(0 0.02823 0)
(0 0.00951111 0)
(0 0.00533253 0)
(0 0.00443142 0)
(0 0.0110247 0)
(0 0.0226396 0)
(0 0.0270863 0)
(0 0.0261581 0)
(0 0.0271874 0)
(0 0.00682227 0)
(0 0.0291636 0)
(0 0.00989598 0)
(0 0.00579711 0)
(0 0.0159911 0)
(0 0.00993644 0)
(0 0.0155296 0)
(0 0.0243391 0)
(0 0.00519227 0)
(0 0.0247506 0)
(0 0.0103992 0)
(0 0.0153605 0)
(0 0.00166757 0)
(0 0.00428144 0)
(0 0.0103702 0)
(0 0.0138506 0)
(0 0.0202927 0)
(0 0.027596 0)
(0 0.00748617 0)
(0 0.0249861 0)
(0 0.0263361 0)
(0 0.0294843 0)
(0 0.000918199 0)
(0 0.0292052 0)
(0 0.0107456 0)
(0 0.0283866 0)
(0 0.0165689 0)
(0 0.000747374 0)
(0 0.00054072 0)
(0 0.0043014 0)
(0 0.0286617 0)
(0 0.00939474 0)
(0 0.0255635 0)
(0 0.00104763 0)
(0 4.8368e-05 0)
(0 0.00184683 0)
(0 0.0277427 0)
(0 0.00045787 0)
(0 0.0263941 0)
(0 0.0114286 0)
(0 0.0116289 0)
(0 0.00440114 0)
(0 0.00878055 0)
(0 0.024658 0)
(0 0.00594181 0)
(0 0.00461022 0)
(0 0.000733975 0)
(0 0.0161423 0)
(0 0.000383529 0)
(0 0.0235162 0)
(0 0.0221151 0)
(0 0.0195114 0)
(0 0.00472454 0)
(0 0.00394713 0)
(0 0.00451575 0)
(0 0.0157017 0)
(0 0.0290104 0)
(0 0.0196675 0)
(0 0.0190053 0)
(0 0.0269452 0)
(0 0.00062526 0)
(0 0.00195924 0)
(0 0.00558818 0)
(0 0.00574488 0)
(0 0.027657 0)
(0 0.0285448 0)
(0 0.0252504 0)
(0 0.00425087 0)
(0 0.0204777 0)
(0 0.00860652 0)
(0 0.000468494 0)
(0 0.0254587 0)
(0 0.0231631 0)
(0 0.00436458 0)
(0 0.0265619 0)
(0 0.00122779 0)
(0 0.0248524 0)
(0 0.00752642 0)
(0 0.015335 0)
(0 0.0287659 0)
(0 0.00026623 0)
(0 0.00167025 0)
(0 0.0263253 0)
(0 0.00451231 0)
(0 0.0284029 0)
(0 0.0226909 0)
(0 0.0108905 0)
(0 0.00479875 0)
(0 0.00188722 0)
(0 0.00494485 0)
(0 0.0259833 0)
(0 0.0288668 0)
(0 0.00238555 0)
(0 0.00409463 0)
(0 0.00692853 0)
(0 0.0018955 0)
(0 0.0115444 0)
(0 0.00182884 0)
(0 0.0251342 0)
(0 0.00421275 0)
(0 0.00409988 0)
(0 0.00999404 0)
(0 0.0158369 0)
(0 0.0286678 0)
(0 0.0241939 0)
(0 0.00981599 0)
(0 0.0294583 0)
(0 0.00184182 0)
(0 0.021272 0)
(0 0.0225709 0)
(0 0.0103231 0)
(0 0.0195938 0)
(0 0.000457229 0)
(0 0.0076187 0)
(0 0.02936 0)
(0 0.00957558 0)
(0 0.0116262 0)
(0 0.00174346 0)
(0 0.0266466 0)
(0 0.023108 0)
(0 0.028833 0)
(0 0.0105006 0)
(0 0.0127137 0)
(0 0.0282995 0)
(0 0.00181921 0)
(0 0.00186182 0)
(0 0.0284588 0)
(0 0.0080229 0)
(0 0.0277891 0)
(0 0.00948765 0)
(0 0.00280273 0)
(0 0.00427211 0)
(0 0.0253601 0)
(0 0.00165844 0)
(0 5.9128e-05 0)
(0 5.18277e-05 0)
(0 0.00305563 0)
(0 0.0106534 0)
(0 0.0271063 0)
(0 0.0285223 0)
(0 0.00996824 0)
(0 0.0278127 0)
(0 0.00581683 0)
(0 0.018409 0)
(0 0.0248512 0)
(0 0.0228531 0)
(0 0.0271049 0)
(0 0.0284798 0)
(0 0.015509 0)
(0 0.0140125 0)
(0 0.0252773 0)
(0 0.0280596 0)
(0 0.0294565 0)
(0 0.0141058 0)
(0 0.0108324 0)
(0 0.00515166 0)
(0 0.00111791 0)
(0 0.028823 0)
(0 0.0275808 0)
(0 0.0272176 0)
(0 0.00188511 0)
(0 0.027713 0)
(0 0.00471957 0)
(0 0.0129548 0)
(0 0.0145798 0)
(0 0.00419255 0)
(0 0.0221677 0)
(0 0.00605811 0)
(0 0.013132 0)
(0 0.0290624 0)
(0 0.0222102 0)
(0 0.0282372 0)
(0 0.0149696 0)
(0 0.0287552 0)
(0 0.0249504 0)
(0 0.0275146 0)
(0 0.00637171 0)
(0 0.0125281 0)
(0 0.00624935 0)
(0 0.00192653 0)
(0 0.0224557 0)
(0 0.0260398 0)
(0 0.0106644 0)
(0 0.000833639 0)
(0 0.0198737 0)
(0 0.00446368 0)
(0 0.0276294 0)
(0 0.0153278 0)
(0 0.00461748 0)
(0 0.0117151 0)
(0 0.0226704 0)
(0 0.00434128 0)
(0 0.0156136 0)
(0 0.00405938 0)
(0 0.029158 0)
(0 0.00767991 0)
(0 0.0251498 0)
(0 0.0096915 0)
(0 0.00520369 0)
(0 0.0219933 0)
(0 0.00219477 0)
(0 0.029363 0)
(0 0.0156738 0)
(0 0.0267295 0)
(0 0.0265575 0)
(0 0.004393 0)
(0 9.66678e-05 0)
(0 0.0294193 0)
(0 0.00484487 0)
(0 0.0114122 0)
(0 0.0149291 0)
(0 0.0293167 0)
(0 0.0173488 0)
(0 0.0141495 0)
(0 0.0186392 0)
(0 0.00169031 0)
(0 0.0230926 0)
(0 0.0218067 0)
(0 0.0278134 0)
(0 0.0258916 0)
(0 0.0186597 0)
(0 0.0206629 0)
(0 0.0174918 0)
(0 0.0245794 0)
(0 3.31245e-05 0)
(0 0.0250103 0)
(0 0.0194788 0)
(0 0.0228018 0)
(0 0.01396 0)
(0 0.00612166 0)
(0 0.0246434 0)
(0 0.00262104 0)
(0 0.0247003 0)
(0 0.0115273 0)
(0 0.0246045 0)
(0 0.00547884 0)
(0 0.0123059 0)
(0 0.0171738 0)
(0 0.00599569 0)
(0 0.0193937 0)
(0 0.00409871 0)
(0 0.0158776 0)
(0 0.013047 0)
(0 0.0244904 0)
(0 0.0223313 0)
(0 0.00430008 0)
(0 0.0118547 0)
(0 0.00112962 0)
(0 0.026685 0)
(0 0.0187094 0)
(0 0.00174552 0)
(0 0.0281458 0)
(0 0.0144128 0)
(0 0.0290326 0)
(0 0.0221388 0)
(0 0.00929555 0)
(0 0.0197936 0)
(0 0.0147232 0)
(0 0.0179885 0)
(0 0.020668 0)
(0 0.00311854 0)
(0 0.0162633 0)
(0 0.013682 0)
(0 0.0283877 0)
(0 0.0241875 0)
(0 0.00379759 0)
(0 0.0151615 0)
(0 0.0126751 0)
(0 0.0154816 0)
(0 0.026111 0)
(0 0.0215932 0)
(0 0.00397898 0)
(0 0.0221665 0)
(0 0.00846806 0)
(0 0.0243303 0)
(0 0.0292816 0)
(0 0.0242328 0)
(0 0.0186346 0)
(0 0.0011785 0)
(0 0.0150861 0)
(0 0.025854 0)
(0 0.0187702 0)
(0 0.000538077 0)
(0 0.0107518 0)
(0 0.00764245 0)
(0 0.0119092 0)
(0 0.024678 0)
(0 0.000598332 0)
(0 0.0288619 0)
(0 0.0103955 0)
(0 0.0173916 0)
(0 0.00440166 0)
(0 0.028731 0)
(0 0.0218312 0)
(0 0.015072 0)
(0 0.0291205 0)
(0 0.0243813 0)
(0 0.00227043 0)
(0 0.0219148 0)
(0 0.00527369 0)
(0 0.0290809 0)
(0 0.0164326 0)
(0 0.0013723 0)
(0 0.0291794 0)
(0 0.0275529 0)
(0 0.000145949 0)
(0 0.00863621 0)
(0 0.0281061 0)
(0 0.0203638 0)
(0 0.0244532 0)
(0 0.00797386 0)
(0 0.0236272 0)
(0 0.025037 0)
(0 0.0119007 0)
(0 0.0142198 0)
(0 0.0235576 0)
(0 0.00815019 0)
(0 0.00481028 0)
(0 0.00136236 0)
(0 0.0187603 0)
(0 0.00141058 0)
(0 0.00137432 0)
(0 0.0291296 0)
(0 0.0149037 0)
(0 0.0227849 0)
(0 0.026673 0)
(0 0.0013683 0)
(0 0.0247984 0)
(0 0.0197871 0)
(0 0.000147253 0)
(0 0.0245298 0)
(0 0.0110114 0)
(0 0.0222748 0)
(0 0.0145396 0)
(0 0.00141917 0)
(0 0.0222713 0)
(0 0.00567575 0)
(0 0.0198943 0)
(0 0.0238661 0)
(0 0.0105606 0)
(0 0.0151962 0)
(0 0.0241271 0)
(0 0.0149724 0)
(0 0.0218598 0)
(0 0.00174197 0)
(0 7.76744e-05 0)
(0 0.0284044 0)
(0 0.0212968 0)
(0 0.00141212 0)
(0 0.0186186 0)
(0 0.00141974 0)
(0 0.0284678 0)
(0 0.0113483 0)
(0 0.0251363 0)
(0 0.00375619 0)
(0 0.00366522 0)
(0 0.0168406 0)
(0 0.0054898 0)
(0 0.0283951 0)
(0 0.019318 0)
(0 0.00574122 0)
(0 0.00399102 0)
(0 0.0105399 0)
(0 0.00306673 0)
(0 0.00370969 0)
(0 0.0103471 0)
(0 0.00982782 0)
(0 0.0273665 0)
(0 0.0102623 0)
(0 0.00750961 0)
(0 0.0180459 0)
(0 0.000296808 0)
(0 0.00418202 0)
(0 0.00519051 0)
(0 0.0261207 0)
(0 0.00543257 0)
(0 0.0241525 0)
(0 0.0163194 0)
(0 0.0146522 0)
(0 0.023248 0)
(0 0.0289844 0)
(0 0.0051513 0)
(0 0.00409534 0)
(0 0.0294116 0)
(0 0.0143209 0)
(0 0.0294774 0)
(0 0.0295332 0)
(0 0.000654565 0)
(0 0.00530944 0)
(0 0.00131878 0)
(0 0.0277207 0)
(0 0.0280481 0)
(0 0.011972 0)
(0 0.00435554 0)
(0 0.00128547 0)
(0 0.0287429 0)
(0 0.0278455 0)
(0 0.00134447 0)
(0 0.0211033 0)
(0 0.022231 0)
(0 0.00279941 0)
(0 0.0282968 0)
(0 0.0276084 0)
(0 0.0294583 0)
(0 0.029303 0)
(0 0.00286001 0)
(0 0.0271754 0)
(0 0.0293399 0)
(0 0.00836356 0)
(0 0.0279476 0)
(0 0.00977036 0)
(0 0.00535625 0)
(0 0.0203078 0)
(0 0.00313741 0)
(0 0.0138194 0)
(0 0.0280869 0)
(0 0.0293888 0)
(0 0.0292843 0)
(0 0.028313 0)
(0 0.00139677 0)
(0 0.0110785 0)
(0 0.0292229 0)
(0 0.0151451 0)
(0 0.00967042 0)
(0 0.0249218 0)
(0 0.0244203 0)
(0 0.0278837 0)
(0 0.0026816 0)
(0 0.00164215 0)
(0 0.000909434 0)
(0 0.0241569 0)
(0 0.0118583 0)
(0 0.000899231 0)
(0 0.00894626 0)
(0 0.0254168 0)
(0 0.0112617 0)
(0 0.0293803 0)
(0 0.0248088 0)
(0 0.0252735 0)
(0 0.0295203 0)
(0 0.0264176 0)
(0 0.0181485 0)
(0 0.0240244 0)
(0 0.00137345 0)
(0 0.0294405 0)
(0 0.0294702 0)
(0 0.0131832 0)
(0 0.00398322 0)
(0 0.0182569 0)
(0 0.0294122 0)
(0 0.00471093 0)
(0 0.0278696 0)
(0 0.0262343 0)
(0 0.0038793 0)
(0 0.00483517 0)
(0 0.0136516 0)
(0 0.0278759 0)
(0 0.0277955 0)
(0 0.013941 0)
(0 0.0292269 0)
(0 0.0176653 0)
(0 9.51352e-05 0)
(0 0.00733543 0)
(0 0.00124443 0)
(0 0.0219443 0)
(0 0.0194248 0)
(0 0.0244498 0)
(0 0.0281087 0)
(0 0.00977958 0)
(0 0.000557564 0)
(0 0.00459451 0)
(0 0.0101924 0)
(0 0.0282546 0)
(0 0.0233169 0)
(0 0.0287874 0)
(0 0.0196433 0)
(0 0.0141023 0)
(0 0.0279721 0)
(0 0.0128582 0)
(0 0.0036213 0)
(0 0.00547657 0)
(0 0.00357221 0)
(0 0.0147587 0)
(0 0.028538 0)
(0 0.0238118 0)
(0 0.00202932 0)
(0 0.00908256 0)
(0 0.00981812 0)
(0 0.00901562 0)
(0 0.00200799 0)
(0 0.0256091 0)
(0 0.0105369 0)
(0 0.0183789 0)
(0 0.014768 0)
(0 0.0292588 0)
(0 0.0110733 0)
(0 0.0294118 0)
(0 0.019272 0)
(0 0.02278 0)
(0 0.0252316 0)
(0 0.0141107 0)
(0 0.027632 0)
(0 0.0239999 0)
(0 0.0293485 0)
(0 0.0291554 0)
(0 0.00337805 0)
(0 0.0277896 0)
(0 0.0261002 0)
(0 0.00212659 0)
(0 0.0293714 0)
(0 0.0279882 0)
(0 0.0294402 0)
(0 0.0276329 0)
(0 0.00129637 0)
(0 0.0276838 0)
(0 0.0122996 0)
(0 0.0287941 0)
(0 0.0202957 0)
(0 0.0291922 0)
(0 0.028727 0)
(0 0.00134251 0)
(0 0.029502 0)
(0 0.0126803 0)
(0 0.0242704 0)
(0 0.0273221 0)
(0 0.0254571 0)
(0 0.0293363 0)
(0 0.00660625 0)
(0 0.024697 0)
(0 0.0144542 0)
(0 0.00946266 0)
(0 0.0249847 0)
(0 0.020863 0)
(0 0.00133507 0)
(0 0.0262699 0)
(0 0.0250924 0)
(0 0.0201098 0)
(0 0.0136658 0)
(0 0.0117259 0)
(0 0.0278399 0)
(0 0.0184262 0)
(0 0.00847304 0)
(0 0.0226118 0)
(0 0.0242197 0)
(0 0.0292564 0)
(0 0.0201872 0)
(0 0.00101031 0)
(0 0.026066 0)
(0 0.0285718 0)
(0 0.0273687 0)
(0 0.0193945 0)
(0 0.00386822 0)
(0 0.0248289 0)
(0 0.00522617 0)
(0 0.00303086 0)
(0 0.00376413 0)
(0 0.000989452 0)
(0 0.00653961 0)
(0 0.0197192 0)
(0 0.0274053 0)
(0 0.0276707 0)
(0 0.00946692 0)
(0 0.00493011 0)
(0 0.00313435 0)
(0 0.0283311 0)
(0 0.00321677 0)
(0 0.0257189 0)
(0 0.0137534 0)
(0 0.0290371 0)
(0 0.0118692 0)
(0 0.00817205 0)
(0 0.0159905 0)
(0 0.0292173 0)
(0 0.0293326 0)
(0 0.00347007 0)
(0 0.00115621 0)
(0 0.0254019 0)
(0 0.0261928 0)
(0 0.00511138 0)
(0 0.0199863 0)
(0 0.000277223 0)
(0 0.0250109 0)
(0 0.0134893 0)
(0 0.0245022 0)
(0 0.0274939 0)
(0 0.0273721 0)
(0 0.0149684 0)
(0 0.0293808 0)
(0 0.00368315 0)
(0 0.00341193 0)
(0 0.0135756 0)
(0 0.0259652 0)
(0 0.0280919 0)
(0 0.015353 0)
(0 0.00330758 0)
(0 0.00681545 0)
(0 0.0295425 0)
(0 0.0276807 0)
(0 0.0224641 0)
(0 0.0230205 0)
(0 0.0279202 0)
(0 0.00698807 0)
(0 0.0184161 0)
(0 0.0265826 0)
(0 0.0223226 0)
(0 0.017196 0)
(0 0.0241138 0)
(0 0.000619047 0)
(0 0.00244299 0)
(0 0.0294863 0)
(0 0.0288492 0)
(0 0.000794276 0)
(0 0.0274358 0)
(0 0.0033003 0)
(0 0.027406 0)
(0 0.0278626 0)
(0 0.0178537 0)
(0 0.0152615 0)
(0 0.0222052 0)
(0 0.0139668 0)
(0 0.0217996 0)
(0 0.0116666 0)
(0 0.028482 0)
(0 0.028597 0)
(0 0.0235369 0)
(0 0.00243757 0)
(0 0.0180293 0)
(0 0.000336478 0)
(0 0.0245482 0)
(0 0.0268238 0)
(0 0.0258561 0)
(0 0.0293497 0)
(0 0.0151081 0)
(0 0.0243565 0)
(0 0.00647337 0)
(0 0.0289529 0)
(0 0.0220906 0)
(0 0.0292962 0)
(0 0.0216257 0)
(0 0.022725 0)
(0 0.00010226 0)
(0 0.0292371 0)
(0 0.0268843 0)
(0 0.00312537 0)
(0 0.0291721 0)
(0 0.0240856 0)
(0 0.0220009 0)
(0 0.0143084 0)
(0 0.0189203 0)
(0 0.00337991 0)
(0 0.00253747 0)
(0 0.0276594 0)
(0 0.0213276 0)
(0 0.0236519 0)
(0 0.0268435 0)
(0 0.0283284 0)
(0 0.0269639 0)
(0 0.0289827 0)
(0 0.0219739 0)
(0 0.0274852 0)
(0 0.0132989 0)
(0 0.00492669 0)
(0 0.00374622 0)
(0 0.0168546 0)
(0 0.000284385 0)
(0 0.0289268 0)
(0 0.0100181 0)
(0 0.0175989 0)
(0 0.0227812 0)
(0 0.0126247 0)
(0 0.0264897 0)
(0 0.00462701 0)
(0 0.026472 0)
(0 0.00219464 0)
(0 0.0114676 0)
(0 0.0272927 0)
(0 0.0220438 0)
(0 0.00142245 0)
(0 0.0260987 0)
(0 0.0269461 0)
(0 0.029133 0)
(0 0.0247417 0)
(0 0.0123436 0)
(0 0.024466 0)
(0 0.02939 0)
(0 0.015549 0)
(0 0.0288658 0)
(0 0.0283762 0)
(0 0.0216497 0)
(0 0.0193626 0)
(0 0.006702 0)
(0 0.0217998 0)
(0 0.0278533 0)
(0 0.00339137 0)
(0 0.0142527 0)
(0 0.0219032 0)
(0 0.0287252 0)
(0 0.0215179 0)
(0 0.0240077 0)
(0 0.0263286 0)
(0 0.0282575 0)
(0 0.0266171 0)
(0 0.0263166 0)
(0 0.0255185 0)
(0 0.0276648 0)
(0 0.0113608 0)
(0 0.0238586 0)
(0 0.00532345 0)
(0 0.0280093 0)
(0 0.0293205 0)
(0 0.0268972 0)
(0 0.0280208 0)
(0 0.0240132 0)
(0 0.0242325 0)
(0 0.0158253 0)
(0 0.00783659 0)
(0 0.0194924 0)
(0 0.0267198 0)
(0 0.0217361 0)
(0 0.0274007 0)
(0 0.000701361 0)
(0 0.0276594 0)
(0 0.0225936 0)
(0 0.0163217 0)
(0 0.0148474 0)
(0 0.00121493 0)
(0 0.0267085 0)
(0 0.0131347 0)
(0 0.0259847 0)
(0 0.0259218 0)
(0 0.0193229 0)
(0 0.0217453 0)
(0 0.0293405 0)
(0 0.0155901 0)
(0 0.0184274 0)
(0 0.0245673 0)
(0 0.0190922 0)
(0 0.0282554 0)
(0 0.0213725 0)
(0 0.0169158 0)
(0 0.0215394 0)
(0 0.00357139 0)
(0 0.024107 0)
(0 0.0284038 0)
(0 0.0219947 0)
(0 0.0265768 0)
(0 0.0215675 0)
(0 0.0217788 0)
(0 0.0236799 0)
(0 0.0241549 0)
(0 0.0282441 0)
(0 0.0247594 0)
(0 0.00416914 0)
(0 0.0048496 0)
(0 0.02484 0)
(0 0.029382 0)
(0 0.022361 0)
(0 0.0257938 0)
(0 0.00409944 0)
(0 0.0216821 0)
(0 0.024109 0)
(0 0.0260953 0)
(0 0.022501 0)
(0 0.0180027 0)
(0 0.0248447 0)
(0 0.0226081 0)
(0 0.00858345 0)
(0 0.00957959 0)
(0 0.00938266 0)
(0 0.00872984 0)
(0 0.0269014 0)
(0 0.00717084 0)
(0 0.0225481 0)
(0 0.0226968 0)
(0 0.0203123 0)
(0 0.00510124 0)
(0 0.00179174 0)
(0 0.0281639 0)
(0 0.0249442 0)
(0 0.0020678 0)
(0 0.0222681 0)
(0 0.0089924 0)
(0 0.0218256 0)
(0 0.0294102 0)
(0 0.0128564 0)
(0 0.00312371 0)
(0 0.0145732 0)
(0 0.000136741 0)
(0 0.0260257 0)
(0 0.00816056 0)
(0 0.0242321 0)
(0 0.00127746 0)
(0 0.0120861 0)
(0 0.0107568 0)
(0 0.00196307 0)
(0 0.0244563 0)
(0 0.0179873 0)
(0 0.0243016 0)
(0 0.00134352 0)
(0 0.0241083 0)
(0 0.0290323 0)
(0 0.0190757 0)
(0 0.011171 0)
(0 0.0131147 0)
(0 0.0217376 0)
(0 0.0174309 0)
(0 0.014974 0)
(0 0.0187747 0)
(0 0.0128114 0)
(0 0.0221705 0)
(0 0.00309837 0)
(0 0.0275103 0)
(0 0.0218038 0)
(0 0.0185419 0)
(0 0.0294378 0)
(0 0.028701 0)
(0 0.0217668 0)
(0 0.0114625 0)
(0 0.015364 0)
(0 0.0260175 0)
(0 0.0160921 0)
(0 0.0115297 0)
(0 0.0247933 0)
(0 0.00433438 0)
(0 0.0102286 0)
(0 0.0180649 0)
(0 0.0173097 0)
(0 0.019751 0)
(0 0.0152974 0)
(0 0.0224353 0)
(0 0.0293797 0)
(0 0.0288342 0)
(0 0.0195358 0)
(0 0.0179882 0)
(0 0.00123925 0)
(0 0.00122048 0)
(0 0.00174212 0)
(0 0.0248676 0)
(0 0.00858014 0)
(0 0.0105926 0)
(0 0.0254737 0)
(0 0.0153466 0)
(0 0.0192957 0)
(0 0.0243172 0)
(0 0.0216305 0)
(0 0.000983737 0)
(0 0.0257747 0)
(0 0.000890466 0)
(0 0.0212163 0)
(0 0.0162209 0)
(0 0.0213024 0)
(0 0.0193108 0)
(0 0.0102903 0)
(0 0.00216583 0)
(0 0.0165239 0)
(0 0.0268706 0)
(0 0.0036735 0)
(0 0.00568063 0)
(0 0.000117805 0)
(0 0.00232476 0)
(0 0.0101843 0)
(0 0.0252472 0)
(0 0.0188903 0)
(0 0.00321728 0)
(0 0.0260167 0)
(0 0.0262242 0)
(0 0.0255973 0)
(0 0.00189651 0)
(0 0.0147104 0)
(0 0.0260267 0)
(0 0.0224066 0)
(0 0.0145771 0)
(0 0.017423 0)
(0 0.0273366 0)
(0 0.0176263 0)
(0 0.0154021 0)
(0 0.00610288 0)
(0 0.0289468 0)
(0 0.00579276 0)
(0 0.0275988 0)
(0 0.0243936 0)
(0 0.0254361 0)
(0 0.0029846 0)
(0 0.00331338 0)
(0 0.00540494 0)
(0 0.01708 0)
(0 0.0237935 0)
(0 0.0148839 0)
(0 0.0245943 0)
(0 0.0286843 0)
(0 0.0196044 0)
(0 0.0084105 0)
(0 0.0141583 0)
(0 0.0275912 0)
(0 0.0249907 0)
(0 0.0147715 0)
(0 0.028726 0)
(0 0.0218446 0)
(0 0.00996755 0)
(0 0.00254756 0)
(0 0.0233779 0)
(0 0.0187882 0)
(0 0.00857137 0)
(0 0.00761281 0)
(0 0.0240197 0)
(0 0.0143256 0)
(0 0.0200448 0)
(0 0.0284196 0)
(0 0.0138913 0)
(0 0.0253263 0)
(0 0.0291824 0)
(0 0.0182381 0)
(0 0.022945 0)
(0 0.0140936 0)
(0 0.00311121 0)
(0 0.0142247 0)
(0 0.0246425 0)
(0 0.00805788 0)
(0 0.0191168 0)
(0 0.0190462 0)
(0 0.0198473 0)
(0 0.0283334 0)
(0 0.0224087 0)
(0 0.00697861 0)
(0 0.0253693 0)
(0 0.00902891 0)
(0 0.0143111 0)
(0 0.0147593 0)
(0 0.0181453 0)
(0 0.00614445 0)
(0 0.0103078 0)
(0 0.0183733 0)
(0 0.0142961 0)
(0 0.0168296 0)
(0 0.0245003 0)
(0 0.0258204 0)
(0 0.0133736 0)
(0 0.00269138 0)
(0 0.0198735 0)
(0 0.0035236 0)
(0 0.00114545 0)
(0 0.0161942 0)
(0 0.0109856 0)
(0 0.00986315 0)
(0 0.0177809 0)
(0 0.0200209 0)
(0 0.0195776 0)
(0 0.00362776 0)
(0 0.00980922 0)
(0 0.0240613 0)
(0 0.00455188 0)
(0 0.0221826 0)
(0 0.00169049 0)
(0 0.0211701 0)
(0 0.00192572 0)
(0 0.0239159 0)
(0 0.0220686 0)
(0 0.0231004 0)
(0 0.0259941 0)
(0 0.00399817 0)
(0 0.0264621 0)
(0 0.0146467 0)
(0 0.0106828 0)
(0 0.0136325 0)
(0 0.00163596 0)
(0 0.025963 0)
(0 0.0275841 0)
(0 0.0240916 0)
(0 0.0234076 0)
(0 0.0140906 0)
(0 0.00453765 0)
(0 0.0292023 0)
(0 0.022063 0)
(0 0.00166607 0)
(0 0.00496653 0)
(0 0.0262163 0)
(0 0.0265376 0)
(0 0.0187638 0)
(0 0.0133549 0)
(0 0.0017283 0)
(0 0.000620093 0)
(0 0.00062684 0)
(0 0.000486792 0)
(0 0.000586273 0)
(0 0.000573259 0)
(0 0.0188873 0)
(0 0.0150619 0)
(0 0.0183329 0)
(0 0.0133313 0)
(0 0.0294301 0)
(0 0.000525489 0)
(0 0.000452203 0)
(0 0.0289639 0)
(0 0.0194991 0)
(0 0.00449607 0)
(0 0.0141531 0)
(0 0.000459151 0)
(0 0.0157115 0)
(0 0.0287298 0)
(0 0.0142347 0)
(0 0.0248792 0)
(0 0.0222502 0)
(0 0.0227445 0)
(0 0.0270719 0)
(0 0.00130398 0)
(0 0.00175285 0)
(0 0.0235927 0)
(0 0.0291543 0)
(0 0.00421119 0)
(0 0.0196979 0)
(0 0.0145303 0)
(0 0.0147631 0)
(0 0.0152559 0)
(0 0.0226027 0)
(0 0.0185554 0)
(0 0.00749626 0)
(0 0.0167173 0)
(0 0.0260347 0)
(0 0.0251044 0)
(0 0.000184406 0)
(0 0.000765274 0)