/*--------------------------------*- C++ -*----------------------------------*\
| =========                 |                                                 |
| \\      /  F ield         | OpenFOAM: The Open Source CFD Toolbox           |
|  \\    /   O peration     | Version:  v2012                                 |
|   \\  /    A nd           | Website:  www.openfoam.com                      |
|    \\/     M anipulation  |                                                 |
\*---------------------------------------------------------------------------*/
FoamFile
{
    version     2.0;
    format      ascii;
    class       volScalarField;
    location    "750";
    object      omega;
}
// * * * * * * * * * * * * * * * * * * * * * * * * * * * * * * * * * * * * * //

dimensions      [0 0 -1 0 0 0 0];


internalField   nonuniform List<scalar> 
9793
(
0.0224378
13.9471
0.0219417
2.52349
0.0222597
0.188043
0.080676
4.77062
0.0221615
13.5607
0.0221966
0.0221873
0.0219193
1.54497
0.0218018
0.0268052
0.0520341
0.0219363
2.13451
0.021567
0.0216457
0.0222917
2.50579
4.96066
1.63654
0.0267318
0.022099
0.022262
0.0215776
0.0771029
6.9262
0.346878
0.0220116
0.0219477
0.021869
0.0284375
0.0247847
0.0251534
1.44958
0.0304493
0.066761
8.39975
3.79388
0.0222717
0.0219631
0.022043
5.34056
0.0222843
0.0217717
0.0219433
0.0281893
0.0218524
0.0369243
0.0222686
0.0332623
2.10226
0.0219274
0.0878592
0.0217754
0.0222914
0.027286
0.0963511
0.0219546
0.035026
0.0219629
0.0220865
23.0968
0.0242416
0.0253021
2.97936
0.0220012
0.103974
4.28993
3.60901
3.85108
0.0222625
0.0462965
10.3945
0.0219829
0.0222705
0.0495853
2.08373
0.0502288
0.0239795
0.0253215
0.22456
0.0222611
0.0673097
1.45216
0.0932197
1.7246
1.05471
1.21302
0.0407023
3.62179
0.0219137
4.32529
0.0494357
0.0246976
0.0222685
1.28233
0.0350932
2.01118
0.0219681
3.13874
10.2289
3.71189
0.02188
0.021987
0.0222835
0.0222335
2.04531
3.25923
6.70296
0.0219778
0.0221124
0.0247106
0.0220509
1.77494
0.0220288
2.68772
0.0716579
6.1166
0.0415061
0.0248194
0.0220348
0.0590781
5.44424
0.186698
0.202257
0.0239484
0.021813
0.0223276
0.0234627
0.027351
0.150841
0.57734
0.0247567
0.0222736
0.0592285
2.21865
0.0276101
0.0219626
0.0551006
5.17629
0.565731
0.0220356
4.15217
0.0218102
0.0220294
0.0220694
16.8234
0.0242469
0.0220919
0.0219296
1.14824
0.0553299
0.02195
0.481674
0.0219343
0.063179
0.0240495
0.0216519
0.355927
0.0221567
8.73317
1.91082
0.0223595
0.0218809
0.0222173
0.0219782
5.78906
27.3008
1.67709
0.0219133
0.172412
0.132085
0.725719
0.0219685
0.0241833
3.48388
6.57518
0.0789895
0.0220358
0.0220735
0.0218745
6.66065
4.15429
19.7921
2.13444
0.0220125
24.524
0.416272
0.0256033
0.0218367
0.0233766
1.9971
0.0216037
0.0219349
0.0222039
0.0220233
0.0216519
0.0292439
0.0253128
1.65925
0.0219384
0.0279467
0.0223604
0.0223918
0.461399
0.0568515
2.37564
0.0216414
2.63592
0.0240036
0.0442149
0.0218126
0.146938
0.0221213
0.0513746
0.0527087
0.0216534
1.45836
1.76078
0.0390329
0.0219028
0.050142
1.78353
0.0503666
0.0511289
1.49048
0.13696
0.0417158
0.0357156
0.386621
0.0216366
4.24406
5.72361
0.0216093
0.0222223
8.05086
0.0219215
0.0222313
0.107298
0.118308
0.0220775
0.0242319
0.0289578
0.038109
0.0243175
0.0219744
0.0436372
2.82403
0.0216497
1.68642
0.022262
0.0221699
0.0216694
2.04029
0.021979
1.91144
2.58397
0.0221032
0.022131
2.38724
0.021867
0.0222397
0.0218412
2.36298
0.27019
0.0250585
0.423431
0.0820588
1.93319
3.71816
0.022372
17.2915
0.0222643
1.79441
8.29372
1.44891
2.79386
0.134557
0.0239855
0.0465605
0.024893
0.0218824
0.0224972
0.443533
0.0269072
0.0221395
0.0222838
0.0216389
0.0216919
0.0216514
2.29366
0.0218714
0.0217924
0.0219064
0.0219208
4.99314
0.536781
0.0656542
0.0229631
0.0555068
0.0220291
3.69015
12.683
0.0219732
2.95433
0.0332177
0.0219579
21.7298
3.87321
0.0220193
0.0458042
13.6551
0.0221803
0.0344629
0.021793
0.0222712
1.94154
0.0411868
0.0219562
0.0220223
0.022828
0.165185
3.34653
0.0219451
0.0218742
0.0217776
6.40006
5.19127
8.08867
0.0216246
0.0434536
0.0353655
2.04566
0.0662868
0.0216444
0.0217032
0.0217782
0.0450662
0.0220961
7.55336
0.0220882
0.0217891
2.21667
2.17933
2.32714
0.0217742
1.28491
0.0247051
4.19104
6.52225
1.56979
0.0236362
0.0314884
0.674538
1.58866
1.978
0.0267899
0.0222634
0.0254697
0.0217377
0.0218562
0.0220779
0.0220812
0.022292
8.91312
0.0222065
0.059353
0.0300995
6.18448
0.0216406
0.0240616
5.32262
0.511583
1.64334
0.064481
0.0217917
0.0237127
0.0219447
0.417936
0.021571
2.24377
0.154183
0.0810673
6.28094
1.96331
0.0221373
0.0219012
1.03224
0.370715
0.0219368
5.45738
0.0221313
0.0221756
6.79892
0.0216397
0.0892628
0.0216446
1.93435
0.0220936
0.0221709
2.265
0.0970478
0.0544137
0.0256116
0.0220745
0.0218514
5.53299
0.0492064
0.0215928
0.0221946
0.0345264
0.0354845
0.0542949
6.36218
0.0221956
0.0219449
0.349033
0.022081
2.4533
0.703514
0.0220653
0.0220163
0.022451
0.0221163
0.0217647
1.29574
0.0517825
4.00906
0.0293685
0.023607
0.0417044
0.0248565
1.62766
0.0264934
0.0222678
0.0242606
0.465216
0.0219669
0.0219383
0.0219999
0.021574
0.0219865
0.0218117
0.0220445
0.0221576
0.0229226
0.0248618
0.106573
0.0220102
1.46238
0.0257982
0.204475
4.65434
0.0218866
2.36475
0.0786659
0.0218417
0.0215747
0.0219696
3.13207
0.083278
0.0215709
0.0221207
0.0221972
0.069099
0.148735
10.2982
0.0219762
0.0219304
0.0319524
5.98211
1.41448
0.0238105
0.0234598
1.7502
8.74298
0.257513
0.022225
0.0218011
1.56497
0.0219182
0.130013
6.84671
0.0215815
0.238115
0.0269083
1.28671
0.0218517
1.8719
0.260581
0.0262982
1.89963
0.0219158
1.81412
0.0220948
0.0218972
0.0222231
0.0219499
3.24662
0.0219092
0.0217501
0.0229087
0.0216323
0.021802
0.0456978
0.0228281
0.0343602
0.0220337
0.022038
4.05426
0.0763273
0.0237592
1.72754
0.0244326
0.0222222
0.0219835
0.0217643
10.3421
0.0217429
0.0220692
7.24777
8.17226
0.038924
0.0219265
0.0222841
0.0221643
0.0222409
1.61842
0.0222315
2.47867
0.0244146
1.892
0.022262
16.5743
0.0222472
0.212502
0.0219243
0.0876993
3.97633
0.0221034
8.442
0.0219151
0.0222182
0.0216353
4.36724
1.7052
0.0219776
0.0276743
0.0217422
1.70891
0.0218812
0.0442732
1.78809
0.0254711
0.0220264
0.0459537
0.0222451
0.0222222
0.0217938
0.100049
0.0219558
1.86131
0.0220516
0.0221118
0.0390282
0.0761812
1.98555
0.0217799
15.8919
0.0218968
0.191849
0.0219284
0.0223191
0.021914
0.0220495
0.0222682
0.206224
0.0418548
8.55907
0.104022
0.0356071
0.0343455
5.36332
0.0237491
1.57533
3.55642
0.245814
9.60678
5.68556
0.169827
0.0222306
3.3891
0.0387191
0.0222091
0.329744
0.0222509
0.437631
0.0358027
0.205314
0.0279935
1.84188
3.99867
0.0367701
0.187466
0.022216
0.622862
0.0229681
0.0219267
0.0220843
0.0239221
0.0456987
1.43593
0.265491
4.12638
0.0234633
0.0234902
1.27145
0.350888
0.0231987
0.0595466
0.0224161
4.92169
2.35192
0.0220592
0.0659245
0.298433
4.07811
0.0219578
0.0259332
7.14444
0.0286317
7.25622
0.0915351
6.13988
0.0257483
0.0238513
0.0219346
0.021929
0.369009
0.0222842
0.619872
0.122602
0.0792141
0.0222596
0.0222238
0.0239102
0.0222725
0.0218348
0.0219226
0.0954309
3.23371
1.67973
0.0222797
0.307191
0.0219505
4.15006
0.0458783
0.0476168
0.0347041
0.239417
0.0217537
0.0220602
0.0433879
0.021918
0.0221151
0.0583172
1.29492
0.0216511
0.274218
1.5166
0.0244973
1.836
1.58875
0.0218286
0.0533413
0.0274641
0.0220054
0.0216298
0.103583
1.49924
4.14481
0.0219845
0.0220168
0.021675
0.0251627
0.0228558
0.0238474
0.600018
0.0455997
0.0221514
5.40064
0.0293444
0.0338712
0.0220717
17.0605
0.0238375
0.0219182
0.0805786
2.114
0.0216029
0.0220506
0.0219505
0.025765
0.0217495
0.0374626
0.545662
0.0221978
0.0995648
0.0229841
0.0220199
2.67435
2.92336
0.446446
0.0220747
0.0216184
4.9051
0.0260958
3.78506
0.0215798
0.0219178
5.93338
2.29507
0.029526
0.0965926
0.0642603
0.0219
0.0222717
0.0219612
3.18581
0.0220571
0.0222928
1.46458
0.027803
0.267464
0.033332
0.0219363
2.59708
0.0222681
0.0219231
0.0219504
0.0306863
3.36248
0.0221618
0.0219724
0.0219167
0.021906
0.0219426
0.0219464
12.0069
0.0317183
0.0228526
0.0221097
0.0317894
0.059274
0.0267711
0.0288742
0.0222839
0.0216683
0.0233231
2.05505
2.21483
0.0234577
4.02404
0.0222153
0.0253068
0.900272
2.21134
0.0217942
0.0221803
0.363268
0.0500314
0.0219074
0.0222486
1.9248
0.0222681
0.066695
0.0220114
0.620901
0.0222475
0.0223084
0.022127
0.0306331
0.0222199
0.0246113
0.0263944
0.172536
0.0218662
0.0219971
0.0222498
0.0218926
0.0221973
0.0220434
0.0303765
0.0221114
0.0510491
1.76325
0.042037
0.0611267
0.0222018
0.0217933
6.04134
3.7971
0.0216199
1.77368
6.60697
0.0216247
0.0219681
0.0218846
0.0922112
0.0529106
2.4262
0.0218602
0.0250331
0.0218616
0.0223194
0.0222909
0.0837081
0.0221715
0.228089
0.022093
0.0580176
0.0218955
0.0231667
0.0219252
0.0391672
0.061988
6.12876
2.53301
1.74208
0.0467182
0.0219189
2.9173
3.75584
0.0603026
0.0220823
0.0220846
1.98149
0.0218779
3.04837
0.0216565
0.0295177
0.0222586
0.0222698
0.0218001
8.23631
3.12729
2.80119
0.0741009
4.82449
0.0219543
2.64618
10.2616
0.0222705
0.0220976
0.021735
3.99151
0.0215731
4.53517
0.0327401
0.132638
0.0222752
0.817182
7.04289
1.74511
0.0295065
0.0314556
0.0220407
19.2365
0.0215597
0.639934
0.200487
0.0687187
9.55504
3.11017
0.0239452
0.0233869
0.021949
0.0998058
4.8203
5.06052
0.0217492
3.8865
0.0263299
0.117214
0.127817
1.31474
1.35255
0.0217003
0.0261655
0.030349
0.02439
0.0242334
2.38244
0.0221968
11.3519
0.0218099
0.0216752
0.0758904
0.106272
3.93038
0.0226509
21.0422
12.3671
0.641106
0.0271763
0.022233
0.0226522
0.022227
0.0219296
0.722652
2.97774
0.0221854
0.0219298
0.0316968
1.71664
0.0257777
0.021929
0.433849
0.0219437
0.0222749
0.0215701
0.0591041
0.02203
0.0251545
4.20293
0.0592559
0.0223015
4.15378
0.132484
0.0219401
0.0231856
0.0332163
0.0222624
0.0219652
0.0217613
12.3209
3.3348
0.0222243
0.0348255
0.036793
0.607842
0.0219652
2.89756
0.0218643
0.0217568
0.734466
0.238168
0.0628671
0.0220574
0.0218999
5.17187
1.33236
0.265927
2.83124
0.0221025
0.0241195
0.0220155
7.43566
0.0243025
3.18963
0.0227725
0.0219417
0.023869
0.0216958
0.0218774
0.0637652
0.0217868
2.8263
0.0218425
0.0222205
0.0215923
0.0251167
1.60394
2.67735
0.0515863
4.89963
0.0219805
0.0359262
0.0234549
7.50092
0.0219251
0.0216799
2.29508
0.0347625
0.0330233
0.0221114
0.223546
8.24328
2.19923
0.0221584
0.0348087
0.956804
0.0314723
0.73594
0.114903
0.0785044
0.0217809
0.022629
0.0599296
0.0770714
0.0219876
0.102254
0.0217427
0.0221829
0.022282
0.021776
0.0219202
0.0219907
0.808382
0.0256316
0.0229631
0.0454612
0.0217574
0.0219333
0.0377635
2.58828
0.0860753
0.0596292
2.14638
0.0222339
10.1458
0.029278
5.26703
0.0608665
0.0222018
0.0221403
0.0235298
9.56894
1.72722
0.0499089
0.150946
0.0216644
0.0219241
0.022248
0.022201
6.88327
0.0255795
0.0219977
0.145758
0.305349
5.41225
0.0227562
2.14163
0.0568879
0.0395181
0.0320748
0.450625
0.230757
0.0222552
1.37841
0.268288
0.0393076
2.06816
0.044209
0.0222649
0.0222638
0.0219245
0.0231862
0.0274144
21.3936
0.0494576
0.0218712
0.278843
0.0220035
3.97956
3.33928
0.0219571
28.0992
0.0218327
0.0217649
0.0221178
1.37136
13.6314
0.0477933
0.0315939
0.0217714
0.466952
0.0222313
0.0306846
0.0220904
0.0221705
0.0219368
4.72627
0.0228376
0.0427254
0.0289497
0.0222115
0.350626
0.126217
0.0341254
0.0253187
0.02384
1.70153
2.19872
0.0219885
0.0217731
0.0219866
0.0225965
4.65357
12.2315
0.191929
0.0256081
0.0217922
8.87513
4.82528
0.0222175
22.7026
0.0217184
0.0806959
12.804
0.0217487
5.63645
8.54983
0.119082
5.60158
5.14256
0.0218629
0.022712
2.45895
1.39363
0.0225828
4.50213
0.0248681
0.0219204
0.0222738
0.0232737
0.0392467
0.0251632
0.312047
5.75837
0.239293
0.0346083
0.0220789
0.0589995
2.17593
0.0217687
3.60798
0.0468776
0.0222199
0.0246012
0.0222415
0.0222241
0.0317602
2.29545
0.02259
0.0217957
5.18688
1.33285
0.0684826
0.0222613
0.0547225
0.0219346
0.0219313
3.62994
7.06279
0.0219213
0.0214933
2.42469
4.04979
0.0475281
0.0222887
9.75987
0.02279
0.0219283
0.0243098
0.0219322
0.0216582
0.0216276
9.41162
0.246811
0.0258897
1.64852
0.044392
1.31277
7.8542
1.84951
0.151743
0.0219542
0.0222386
0.0223721
0.0219923
0.0741109
0.0218836
0.111428
0.0289163
3.40979
0.0220466
1.39297
0.0369221
4.97379
0.0219248
1.73997
0.0299976
0.168161
0.237423
0.0307981
0.0216243
8.39408
0.054507
1.19476
0.0216153
4.79354
0.0220263
4.1264
0.454152
0.043547
0.0219294
0.0220892
1.61292
6.41192
0.0317068
0.0216179
2.39376
0.0832199
0.04391
2.38002
0.0784321
0.0219439
3.15586
0.0219271
0.0330033
0.0216526
7.54019
0.0216572
0.023907
0.302298
3.6037
0.0222218
0.0652019
0.0245118
0.0792663
0.0218817
0.311597
0.0235521
0.0633002
0.0219601
0.0219851
1.90682
0.0285392
4.23098
3.78674
5.06618
0.0227917
0.0216703
0.0217706
0.0255925
0.0361888
0.0309382
5.38588
0.0235374
1.56978
0.0419112
0.022281
0.0219533
0.0676752
0.365606
7.91221
0.0219211
1.50403
0.0218646
4.7934
1.44322
0.0458629
0.0219965
0.021744
0.0424115
1.44312
0.0242752
0.0222687
0.0241197
0.0438
0.0230854
1.42419
2.02962
3.82711
0.0221561
0.0262351
11.0914
0.0221865
0.063411
0.0218183
0.743969
0.0363938
0.0219519
0.0433691
0.186078
0.0220301
1.85072
0.0219245
0.130044
0.240692
0.422397
0.302078
0.0221662
0.0222322
17.5856
0.022181
0.039824
0.0803208
0.0235423
0.0215504
10.7074
0.0250947
0.422097
0.0237198
0.0667305
0.0225613
0.422047
0.0253706
0.0246158
2.01919
1.1663
0.0220886
0.022273
0.160457
1.95028
1.93478
0.770958
0.0294516
0.0219274
0.0218138
1.64352
0.0221383
5.06833
0.0951163
2.12561
0.022107
0.0217246
0.0217992
0.0421788
0.0470425
3.66087
1.3555
0.722188
0.214286
0.0216091
2.5157
0.0230369
0.062729
0.022981
0.0395447
0.0622517
0.0219319
0.0215798
0.0632772
0.0216436
0.038875
0.0722066
3.24411
3.87504
0.0380718
1.61336
0.0217542
0.0216656
0.0220737
0.200769
0.0617963
0.0457205
0.10775
2.90669
0.0395353
0.150706
0.0218238
0.0221784
17.3865
0.0219392
0.284563
0.0214739
0.0218764
1.91861
0.331078
0.0218708
0.0771415
0.511423
3.19246
2.04797
0.0250147
0.0666026
0.04866
3.62036
0.0220741
4.47885
5.91313
0.0238565
0.0263019
0.0216203
0.47569
0.0218012
0.0219841
1.38751
0.0222462
0.0215769
0.186956
0.0587073
1.33427
1.32019
3.29808
1.64639
0.0216713
0.0219217
0.0218776
0.022205
8.14674
0.0220902
1.64136
0.0230159
4.0688
0.0246599
0.0221486
0.0216869
0.0222708
0.0304365
0.0220728
0.0215392
0.308374
0.0218304
0.0511346
0.0225064
6.26801
0.0247287
0.0220792
0.0220303
0.0517969
0.0219074
0.0217655
0.0220882
0.0222146
0.0249514
0.0218676
0.0233925
0.0319981
3.16912
5.24403
4.08312
2.39263
0.0217742
0.0220046
0.0219298
0.0214366
0.0219373
0.0217414
0.205015
0.0218745
0.0222518
0.0220683
0.0220423
0.0219535
7.26528
0.0245426
0.0219715
20.7744
0.0428794
0.0217167
8.73449
6.88381
0.0220191
0.425612
0.688222
0.0220618
0.0467484
0.0241058
0.0215619
0.0274281
0.0221116
0.0405435
0.0220121
0.0222473
0.0217524
25.4205
0.0287934
0.0458389
0.0220321
0.0222653
4.0499
0.025986
0.0220353
0.0238258
0.02418
0.0222519
0.227721
14.1412
0.889295
1.36078
0.227793
0.0376075
0.0222598
10.4007
0.151337
0.0227663
0.0581011
0.0222932
0.0219129
0.0222463
2.54235
0.0462599
0.0219979
0.0220411
0.172105
0.0217363
0.42017
0.0219786
1.85475
0.214388
4.47831
0.0220798
0.0233009
0.0322223
0.035657
0.0222792
0.0390452
0.0883597
5.77867
0.0220492
0.509494
9.2465
0.0215821
1.70232
0.0436935
0.353642
0.101778
0.0219275
0.0277682
0.0399653
0.0216901
0.0250314
0.0215482
4.61549
1.43271
0.0326954
0.0218299
0.141513
0.0760872
2.75444
0.289874
0.0233596
0.0281721
0.0219502
0.0219479
0.040029
0.0517925
21.1668
0.0218257
0.473051
0.0227077
9.35827
0.16602
2.05109
0.0216051
0.02303
2.03636
1.78422
0.0434557
1.86816
0.0230744
0.263735
0.021914
0.0218695
2.55084
0.748792
0.0252137
0.0220936
0.0747696
2.1618
0.192956
0.0658452
0.0217792
0.0220133
0.0217213
2.3634
4.2161
0.0217651
0.0443153
1.6053
0.0720665
0.260825
1.52712
6.00839
1.87202
0.0217816
0.0229818
1.50049
0.0218965
0.0494833
1.55096
10.6607
0.0235112
0.0306247
4.8982
0.655529
2.00991
4.50309
1.55751
1.30082
0.0221105
0.0216286
0.021991
0.0226807
22.0595
0.0558129
0.371958
0.360444
0.0565169
0.0219627
0.979345
0.0217247
0.0304317
0.0219223
0.0409457
8.60943
1.71422
0.0220709
0.0216123
0.0391957
4.43979
0.174465
7.85832
0.0452264
0.0220752
0.083732
0.0214729
0.0974736
0.0324685
0.0219236
4.34876
0.176
0.48804
0.0566286
0.0222599
0.0216026
4.49988
0.0254756
0.0216292
0.0221451
0.0222559
0.021688
5.36948
9.09878
1.86975
1.43253
6.7054
0.0243227
0.021945
2.57159
0.0244372
0.0884192
6.08205
0.0218678
4.7342
2.72346
0.0585964
0.0340362
0.836105
0.0231384
1.82483
0.0373428
1.83463
0.0218323
0.0228914
0.0408824
3.22932
0.108176
0.0687185
4.62083
1.82594
0.0733795
0.150427
3.27069
0.024189
0.384859
16.6099
0.03573
0.0631045
2.72006
0.0321434
0.0368688
0.0221031
0.0362727
0.0386206
0.0552056
0.0220879
8.16049
0.164666
1.65
4.68644
2.05421
0.0397675
1.5937
8.20558
0.0218485
2.32626
2.65093
8.14666
0.027801
0.0244237
1.43037
8.3494
0.0216232
0.236775
0.0217567
0.0219109
4.1738
0.0256486
2.20209
1.3598
1.8382
8.14032
0.0216262
0.0348026
0.0220037
0.0218456
0.117409
0.0555276
0.0264935
2.75924
1.74597
0.0222731
0.0261947
1.33975
0.0235517
0.379375
0.0486501
1.35089
1.3377
0.364526
8.70041
6.3041
1.69483
1.3401
1.64077
0.0318825
0.0253354
0.114341
0.117086
1.58159
7.96866
0.0221318
0.0227747
5.60892
2.2142
0.0248816
4.57418
0.0219428
0.853877
4.18669
4.07197
0.0219234
1.50327
1.50944
0.0267584
0.0346635
4.96085
4.35162
4.22785
3.43293
0.0220074
4.91297
1.49883
0.0409371
0.21113
0.109323
0.0217392
0.0265216
3.41095
2.12454
0.0245214
0.0221716
1.35811
0.0886923
1.73241
0.0719371
2.11441
1.35618
0.0219917
10.8041
0.0222852
0.030476
0.0220857
0.02188
0.0217087
0.0369219
0.26903
0.0214977
12.5848
0.0714048
6.01941
8.5441
1.88009
0.0219096
4.076
1.54851
1.91722
0.0343938
0.0219309
2.5421
0.380323
1.90109
0.0565431
0.0235744
0.0216919
3.42771
5.31868
0.0334282
12.7165
0.0315093
0.0222062
1.27745
0.0552913
18.4143
0.0219227
0.0300583
1.5409
4.20683
1.37353
0.217755
1.35101
1.59398
4.90548
0.0220473
8.82079
0.0476014
0.0218509
0.0215673
0.0219449
4.92635
0.0502399
1.34752
1.44339
0.0369992
0.155129
0.0803326
2.45171
0.277218
5.30121
4.67381
1.29215
0.0869463
0.0216633
1.00046
0.0569411
0.11855
1.27181
2.4503
1.69652
0.022095
0.0240931
0.0492685
0.0220589
0.0219745
0.0275659
1.35923
0.0291274
0.0257293
1.25821
0.0724693
0.288509
3.27495
1.38011
0.397427
1.7385
4.41701
2.1225
0.0630386
0.0308621
0.0221357
1.32668
0.102378
0.206327
0.0641144
0.0617526
0.0214533
0.165218
5.68233
0.0269364
0.0215899
0.0231936
2.71016
0.0218786
0.0220253
0.0609865
1.42448
0.0288085
0.0551719
0.174366
0.0307535
0.0579387
0.0218766
0.0219821
0.0407189
0.209012
0.022264
0.0310188
0.281034
6.43589
0.0221493
11.5249
0.0218933
1.38123
0.023342
0.0234935
0.0215572
0.166896
0.0344734
5.67014
13.133
0.0688339
0.0221619
0.0220058
5.09192
2.07419
0.0218784
0.228223
1.49386
0.0515624
0.0783242
0.0214359
0.0226774
0.0219306
1.29363
0.0417225
0.0220498
6.4067
0.0223799
0.0589154
0.237978
0.0217406
0.0962706
0.058615
18.8401
0.0224554
0.0264176
0.0235136
0.0532839
0.0214107
0.0219125
5.29159
0.300713
0.0724262
0.0219442
1.73224
0.0223955
0.0223827
0.0219575
0.404085
6.09024
0.0237326
9.78041
1.12867
0.0624603
2.89532
3.59892
4.98218
6.07112
0.0521522
0.0626235
0.199819
0.0472524
0.0219505
0.0304495
0.029506
8.42398
0.0220787
2.9917
0.0219791
0.428301
0.0875408
0.0228015
0.0231911
6.27491
14.7512
5.33616
1.45424
0.0218157
0.0670562
4.14223
0.0259929
9.1511
0.0411419
0.110276
1.49942
0.0348158
0.0219926
0.117802
0.138969
0.0219282
1.37558
0.636086
0.0217147
0.0222393
0.0221211
0.022009
7.05447
0.0220745
0.0467513
0.0220245
0.0224554
0.0328345
0.0219416
1.31078
0.0803315
0.0221592
0.0216351
0.103785
0.0233524
0.0565363
7.01114
4.47349
0.052347
0.269694
0.0407376
0.0215995
0.12709
11.3547
0.0375992
1.34859
5.8449
0.0764158
0.0383342
0.0285404
0.0648158
0.0379451
5.16044
0.0221131
0.0221675
0.021876
2.19903
8.36464
0.0359269
0.103984
0.0218886
0.0269692
0.10589
0.24455
0.0219343
0.0588618
1.72662
0.0896437
0.0219914
0.0219464
19.8473
4.96805
0.0219392
0.522361
0.0305798
0.182463
0.343459
0.0218672
2.79127
0.0290274
0.0220246
2.42076
0.186962
0.0219286
0.0221623
0.238097
0.0217837
0.0220406
0.153453
0.0424143
0.0460875
5.78169
0.0251576
0.0419319
1.66264
0.0218535
8.72074
4.26379
0.0250337
0.0585392
0.166189
0.0219806
0.14741
0.0214718
1.87084
1.49559
0.0220031
6.49022
7.22201
0.0219576
0.021948
0.56455
0.0381884
1.42424
1.39927
0.0220955
0.0424345
4.51366
0.0227369
0.0473412
0.067355
0.0337533
2.74205
0.18938
0.0235785
0.204886
4.59649
0.0461414
2.75669
0.0219126
0.0215544
0.0222674
0.0427691
4.4123
0.0220655
0.033387
13.0018
2.60728
0.0222176
0.0295653
1.91091
1.36484
0.0222246
8.8682
0.0330399
0.0834581
0.0339014
0.0230681
0.0258019
0.021977
0.0219637
5.67064
0.0219335
0.052802
0.0219832
4.34822
0.0235616
0.0243132
0.0215963
0.023768
0.0219828
0.0406275
5.08293
1.67776
0.0374547
0.0429418
0.0219672
0.0317705
0.0499762
1.91039
5.24553
0.0218333
0.679955
0.0220231
2.4044
1.25964
4.89438
0.0218311
0.103461
0.0680819
5.68784
0.23061
0.0218628
2.15686
0.328241
0.0382506
4.08591
0.0222326
0.0220065
0.0394286
3.001
0.0219349
6.60392
0.0343618
1.86123
0.0902882
0.0224732
1.85573
0.0279121
0.0221307
0.248704
0.0219386
2.73569
10.0934
0.150304
0.0277472
0.156567
0.0219433
0.0970872
0.0433044
9.26028
0.0220336
0.0216413
0.0266939
0.0292302
0.0421183
1.61419
3.29535
0.0362443
0.233889
0.0218188
2.93667
5.99896
0.171383
0.0219307
0.0222602
0.0234074
2.36968
0.0220771
0.0262312
2.01874
0.0797075
0.0219979
0.266334
0.0745956
0.0219885
0.0249923
0.111852
1.60264
0.0670794
0.0424026
1.77467
1.33118
0.607
0.0265168
0.0221337
0.0242909
0.0248404
0.129014
0.0544801
0.0273934
0.0733981
4.76621
0.0242209
0.0219964
4.54742
0.280717
1.53614
0.173215
0.0255864
0.0238322
0.02362
0.0217731
0.0219057
0.0421525
0.0215629
0.022988
0.0220251
0.0229195
0.0235161
0.0219504
0.0386916
0.0362292
0.0221082
0.0219398
0.022119
0.022785
0.0223649
0.262406
0.0220583
0.023516
1.37842
0.0217116
0.0231967
0.0222722
0.0270563
4.44522
10.8966
2.483
2.57043
2.49601
0.188261
0.0218831
0.056574
0.0220101
0.592205
0.0233134
0.0293071
0.0221946
0.0517026
0.0219606
0.030365
0.0217909
2.19998
0.150554
0.0220784
4.00213
2.3278
0.0221987
0.0897891
0.0219535
0.0216043
6.71106
0.0221432
0.0622563
0.176667
0.0221054
0.0215647
0.0688187
1.56374
0.0251941
0.0234463
1.34586
0.0219463
3.87863
0.0480092
7.43238
0.0216777
1.42958
0.021939
0.0221806
0.213133
0.0556043
2.28062
1.64731
5.93692
2.46342
0.146943
0.128326
0.022046
0.133054
0.0220808
0.0218249
0.0955203
0.0219156
0.0219845
0.0216119
0.0216174
0.0545638
4.10968
1.37651
0.353221
2.43887
0.0235379
0.0305452
0.0228889
0.0227431
0.0704866
0.0220471
0.0217968
0.0218218
0.023669
0.023233
0.192494
0.0794253
0.0447667
0.0221088
0.0550495
0.0565209
1.95249
4.70397
0.0246205
0.0380719
0.0220889
11.199
1.43993
0.0219274
0.0219339
0.0243184
0.0222129
1.3178
0.256923
4.16178
0.0221405
3.09728
0.0221089
2.59126
0.0482194
0.021814
0.0277736
4.47478
0.0270664
0.0275158
0.0296142
0.0765501
3.94163
0.0218364
0.0219159
0.0278651
0.161887
0.0218799
1.89004
3.18844
0.0219721
0.0214292
5.72955
0.0627397
0.0219308
4.13911
13.6958
1.89492
3.35508
0.0276872
1.93895
0.0220709
4.27085
2.77206
0.794003
0.0626172
0.0237906
5.16055
0.0248635
0.0218724
0.021452
1.22115
0.0216414
5.45531
0.0228024
0.0221718
0.0250393
1.38469
0.0237573
0.0227648
0.0220735
9.24801
3.94085
10.6612
1.40829
0.0409926
0.0219355
0.0242496
0.313666
0.113554
0.0219881
0.0480345
0.392625
4.2177
0.021959
4.05225
4.31468
0.0373868
0.0220629
0.0237163
0.0219545
0.0217527
0.0219435
0.0220317
0.0223342
0.0990874
0.0220953
0.118692
0.0226209
0.0226763
4.68251
0.06664
0.0236982
0.022756
2.09086
0.0215729
0.0229436
0.0258757
0.0218183
3.35078
0.0306854
0.0227299
0.0447419
0.0219619
0.0269818
0.021925
0.133131
0.0218282
0.0219274
6.06524
0.0237261
0.17188
0.0322578
0.0238367
0.0788314
0.0214136
0.022088
0.0226301
4.69519
0.0238675
0.0219288
1.91528
0.0219969
0.0216301
0.0218852
0.616095
0.0321568
0.131638
0.033771
0.0308731
0.0503808
0.0237601
0.0268946
0.0479516
2.17489
0.0222633
0.0281439
0.021812
0.237865
0.185658
0.0219049
0.0290676
2.64546
0.0300066
0.0215587
7.57177
0.0256817
0.0805148
2.24977
0.0281376
0.0219172
0.0288106
0.0219295
0.0245421
0.0219063
0.0232919
0.0257414
0.02197
0.022068
0.0320856
0.0221713
0.0852372
0.0219168
0.0237952
0.0219514
0.0296506
1.43326
0.0220849
0.0220043
0.0978479
0.0233204
0.021958
0.291767
5.17387
2.85653
0.0220784
0.0243341
0.0345041
0.0222447
0.0221249
0.0328013
0.180537
0.0215378
0.0526333
0.0219777
0.0218949
0.0217721
0.0215305
0.0228873
0.0417225
0.0329647
0.0266962
1.58607
0.0240881
0.0279019
0.0217346
1.94406
3.68906
2.15791
0.0220564
0.0449743
0.0277943
0.0220315
0.02212
0.0412952
1.41631
2.30983
0.0220031
0.0274045
7.68078
0.0228079
0.16445
4.1928
1.51988
0.0289615
0.0220041
0.0373986
0.042606
0.127779
10.7186
7.69564
1.46503
0.0227049
0.0221737
0.0219457
0.0960535
0.0219262
0.021694
0.0366436
0.0219317
0.0218906
0.0218789
0.0528228
0.0219723
0.0217822
0.0219727
2.30515
0.0215606
0.0220411
0.0221065
0.0227294
0.021939
0.0732697
0.0663668
6.79772
0.0216175
0.0280499
0.10813
5.43258
2.28797
0.0222364
0.0222753
0.0525909
0.0980204
0.025662
0.380645
0.0219359
3.63042
0.0222781
1.31735
0.0227843
0.021937
0.0436186
0.0219575
0.0220742
0.0227251
0.668499
0.0243234
0.0224838
0.0221782
0.0219755
0.0385891
0.0220898
0.0219203
0.0257771
0.100288
0.0241969
0.0219747
1.33528
5.8648
0.0219998
1.75022
0.0221429
0.0302542
0.0715901
0.191542
0.0233824
0.0229587
0.0220848
0.262024
0.0281138
0.0222319
0.0219168
0.0232095
0.33964
0.0222322
0.0342003
0.0237959
0.0352567
0.0513306
0.0366768
0.0871036
3.57097
0.0248568
0.0220385
6.32846
0.306806
0.0219308
0.0214927
0.0220644
0.0219797
0.0219312
0.0238321
0.0216805
0.0220795
3.69037
1.35738
0.0318224
0.0219548
2.71305
0.0237847
0.0217052
6.24285
0.0238918
0.0216615
0.022095
0.0220373
0.0362561
0.0220672
0.0538329
0.0219296
0.0217865
0.0219592
0.0315566
0.0347165
0.0218981
0.054974
1.37287
0.023225
0.0219017
0.0615319
0.0217259
0.0220152
0.0218727
0.030055
0.0220518
4.18937
0.0223464
0.251556
3.1107
0.0538576
0.0234723
0.0222963
0.0220545
0.0219431
0.029164
0.148961
0.106106
0.0218177
0.0239359
4.75135
0.0216127
0.163338
0.0219653
0.0234231
0.0303225
0.0609854
0.0219568
0.033396
0.028035
0.0578464
1.27534
6.92242
0.0219384
0.0219273
0.0328549
0.0229725
0.0226458
0.0480515
0.0228051
0.0969048
0.0217868
0.0699242
0.0221059
0.0805046
0.0548125
1.34022
5.02711
0.0219241
0.0375747
0.889151
0.187017
0.0216061
0.0218744
0.117321
0.0219461
0.0219526
0.0217507
0.0215223
0.0696537
0.0709337
19.7822
0.0220197
0.0436892
0.022255
0.0215967
0.0230324
1.60513
0.164714
0.0219392
0.0221372
0.021852
7.32423
0.0220092
0.0219442
0.0224944
0.0219592
0.0430039
0.0218363
1.74922
0.0219857
0.0227321
0.0223786
0.0219226
0.0217531
0.0220068
10.2575
0.021787
0.0219582
0.210856
0.0219062
0.0220435
0.0221115
0.0221559
0.05181
0.02193
0.021976
2.44767
0.0237449
0.0220379
0.0222794
0.0215588
1.41515
0.0230318
0.0222312
0.0219251
0.0259631
0.0219693
4.87968
0.0217983
0.0220104
5.48936
0.0219769
0.059635
0.0222011
0.0214187
0.0215296
0.0308723
0.0369286
0.0218665
0.0222862
0.0242013
0.0219193
0.0221111
0.0221156
0.0219428
0.0218334
0.021928
5.73064
0.0219601
0.0218512
1.82963
0.0219569
0.0266273
0.113237
1.38966
0.0218291
0.0220871
0.0219612
0.0216441
0.023006
0.0380476
0.0239514
0.0369628
0.0217801
0.0257261
0.0220068
0.0214796
0.0285153
0.0566043
0.0235653
0.0295015
0.0220259
0.0219604
0.0221201
2.00404
0.0237504
0.0220112
3.59271
0.0231762
2.47438
0.0220642
0.0219368
0.0217464
1.38354
0.0219622
0.0248838
0.0230782
0.0220733
0.0219674
0.022089
0.0220357
0.0243542
0.0219232
0.0390022
0.0222478
0.0380952
0.0215307
0.0216394
0.0240545
7.7656
0.0221482
0.0220493
0.0226339
0.0219386
0.0242038
1.9239
0.0227903
0.027185
1.81059
1.024
0.0227385
0.022886
0.141933
0.0884924
0.0233264
0.0221145
0.0219647
3.56997
0.0228059
5.74803
0.021718
0.0215436
0.0221051
0.022039
0.0232611
0.0215905
0.0219877
0.0222651
0.0586413
0.0238941
0.0226289
0.0216394
0.344126
0.0625285
0.0215226
0.022105
0.0235407
0.022239
0.0220584
0.0216022
1.29901
0.0216177
0.0219567
0.0655019
0.0215902
1.96175
0.021826
0.0440235
0.0276567
0.0219703
0.0215543
0.0219305
0.0223473
0.022044
0.0218798
0.0216283
3.05809
1.49341
1.773
0.0216201
4.34627
0.0219947
0.0548525
0.0219297
0.0219319
0.0221092
5.29396
0.0219509
0.0219194
0.022126
0.0219897
2.84643
0.0219434
1.66953
0.0214556
0.022649
2.26537
4.58653
0.0219827
0.0219595
0.0267489
0.0220161
0.132682
0.0217577
0.484125
0.0217793
0.0350715
0.0221391
0.0218241
0.0219467
0.0219846
0.0232509
0.0219019
0.0307738
0.0350783
0.115417
0.0218325
2.94296
0.021905
12.3538
0.0219223
5.11262
0.979807
0.0217548
0.0219205
0.0216121
0.0218858
0.0220437
0.0221757
0.0215982
0.0226522
0.021448
0.0830876
0.0221112
1.38
0.0215885
0.0215515
0.0219329
0.021929
0.0228028
3.42742
0.0231977
2.65356
0.0215838
0.0221189
0.0351162
0.0215896
0.13323
0.0232543
0.0219359
0.0390295
0.0215107
0.0219717
0.0224303
0.0217666
0.0287627
0.0394524
0.0216479
0.0221124
0.0220458
5.8111
0.0235065
0.0216285
4.24732
0.0514384
0.0216362
0.0219235
0.142213
0.0229718
0.0214476
3.56594
0.218951
0.0229834
0.0214551
0.0222399
0.0349218
0.0215743
0.168055
0.0216272
0.0217056
0.0405895
0.0515066
0.0216203
0.0216321
0.0215437
0.0217467
0.0217579
0.0413121
0.0219708
0.0217666
0.0221115
0.0218506
2.64938
0.0222722
2.60646
0.0263554
0.0277607
0.0221421
1.54626
0.0219296
1.68944
0.0215741
0.0219615
0.456725
0.0219737
0.0228066
0.0216647
0.0247337
0.0217262
0.027035
0.0216088
2.27903
0.0222023
0.0216091
0.0215494
0.0215808
0.0970802
0.021794
3.40753
0.0219227
0.0247945
0.0215046
0.0220166
0.214658
0.022
0.10489
0.0218248
0.0230575
0.0221734
0.0221329
0.0224413
0.0219405
0.0219825
0.256863
0.0215783
0.0219494
0.0225887
0.0220568
0.0220538
0.0323312
0.0219757
0.0219236
0.0218675
0.0216368
0.0217684
0.0219959
8.90142
0.178807
4.42917
0.0214429
0.023759
0.0221258
0.0263901
0.111061
0.235464
0.0316063
0.0215802
0.0219794
0.0220893
0.0221438
0.0221144
0.021918
1.99803
0.0498752
0.0219288
1.36523
0.0221369
5.40319
0.0219638
0.0218999
0.0218098
0.0216008
0.0214873
0.0219111
0.0216683
0.0218091
0.0422062
0.0231011
0.0219306
1.6906
0.0215717
0.0228924
0.0219865
0.021649
0.0219341
0.277212
0.0218048
6.11433