/*--------------------------------*- C++ -*----------------------------------*\
| =========                 |                                                 |
| \\      /  F ield         | OpenFOAM: The Open Source CFD Toolbox           |
|  \\    /   O peration     | Version:  v2012                                 |
|   \\  /    A nd           | Website:  www.openfoam.com                      |
|    \\/     M anipulation  |                                                 |
\*---------------------------------------------------------------------------*/
FoamFile
{
    version     2.0;
    format      ascii;
    class       volVectorField;
    location    "300";
    object      cellDisplacement;
}
// * * * * * * * * * * * * * * * * * * * * * * * * * * * * * * * * * * * * * //

dimensions      [0 1 0 0 0 0 0];


internalField   nonuniform List<vector> 
18355
(
(0 1.21046e-06 0)
(0 -1.92389e-06 0)
(0 4.78079e-06 0)
(0 5.36358e-07 0)
(0 3.1303e-05 0)
(0 2.02924e-06 0)
(0 3.29942e-06 0)
(0 8.39275e-07 0)
(0 1.75288e-06 0)
(0 -1.92447e-06 0)
(0 3.08054e-05 0)
(0 -1.92523e-06 0)
(0 -5.65588e-07 0)
(0 8.65852e-06 0)
(0 6.5861e-06 0)
(0 1.30083e-06 0)
(0 -1.9236e-06 0)
(0 5.0067e-06 0)
(0 3.91111e-06 0)
(0 -1.72644e-06 0)
(0 4.7743e-07 0)
(0 2.60999e-06 0)
(0 -1.91615e-06 0)
(0 3.23176e-05 0)
(0 2.73894e-05 0)
(0 -1.38049e-06 0)
(0 3.69261e-06 0)
(0 1.81944e-06 0)
(0 -1.88567e-06 0)
(0 4.63256e-06 0)
(0 4.00164e-05 0)
(0 2.80084e-05 0)
(0 4.697e-06 0)
(0 -3.3365e-06 0)
(0 -7.43146e-07 0)
(0 1.11492e-06 0)
(0 2.93878e-06 0)
(0 -1.73068e-06 0)
(0 1.87787e-06 0)
(0 3.01067e-05 0)
(0 8.60071e-06 0)
(0 -1.72e-06 0)
(0 4.80483e-06 0)
(0 -1.92331e-06 0)
(0 3.20617e-07 0)
(0 -1.74609e-06 0)
(0 1.32498e-07 0)
(0 1.10458e-06 0)
(0 4.65918e-07 0)
(0 5.2916e-06 0)
(0 1.46865e-05 0)
(0 6.58924e-06 0)
(0 -4.79875e-07 0)
(0 -1.90511e-06 0)
(0 -2.0526e-06 0)
(0 -2.82977e-06 0)
(0 3.32922e-06 0)
(0 6.36162e-06 0)
(0 -1.92345e-06 0)
(0 -1.49401e-06 0)
(0 5.09711e-06 0)
(0 2.16002e-06 0)
(0 5.21092e-06 0)
(0 -1.11949e-06 0)
(0 -1.92487e-06 0)
(0 1.45094e-06 0)
(0 -1.92438e-06 0)
(0 -6.86404e-07 0)
(0 3.25103e-06 0)
(0 2.67284e-06 0)
(0 -6.26121e-07 0)
(0 -1.99937e-06 0)
(0 -1.53666e-06 0)
(0 4.02843e-06 0)
(0 7.72499e-07 0)
(0 3.92155e-06 0)
(0 -1.83493e-06 0)
(0 2.62151e-05 0)
(0 2.03231e-05 0)
(0 6.77666e-06 0)
(0 2.42896e-06 0)
(0 -1.8712e-06 0)
(0 5.74502e-07 0)
(0 -1.04143e-06 0)
(0 -8.11213e-07 0)
(0 -4.88472e-07 0)
(0 -1.91593e-06 0)
(0 -1.69733e-06 0)
(0 -1.89581e-06 0)
(0 -1.90654e-06 0)
(0 -1.37089e-06 0)
(0 3.95527e-07 0)
(0 -3.56517e-06 0)
(0 1.98933e-05 0)
(0 -1.92329e-06 0)
(0 -1.91806e-06 0)
(0 1.20101e-05 0)
(0 1.44816e-05 0)
(0 -1.90988e-06 0)
(0 -1.92341e-06 0)
(0 -1.9219e-06 0)
(0 -1.92353e-06 0)
(0 -5.78128e-07 0)
(0 -1.70258e-06 0)
(0 3.48297e-05 0)
(0 1.66101e-08 0)
(0 -1.92376e-06 0)
(0 -1.73932e-06 0)
(0 4.76558e-06 0)
(0 -1.90085e-06 0)
(0 4.57915e-06 0)
(0 1.95564e-06 0)
(0 -5.00803e-07 0)
(0 1.84063e-06 0)
(0 -1.90832e-06 0)
(0 -3.5032e-06 0)
(0 -1.92366e-06 0)
(0 -1.8356e-06 0)
(0 -1.92326e-06 0)
(0 -6.31721e-07 0)
(0 -1.92393e-06 0)
(0 -1.84241e-06 0)
(0 2.70023e-05 0)
(0 -6.78444e-07 0)
(0 1.16762e-05 0)
(0 -1.76015e-06 0)
(0 6.77005e-06 0)
(0 -1.20959e-06 0)
(0 -1.88779e-06 0)
(0 1.8053e-05 0)
(0 1.38082e-05 0)
(0 -1.75978e-06 0)
(0 3.18118e-06 0)
(0 1.51007e-05 0)
(0 -1.29667e-06 0)
(0 -1.06923e-06 0)
(0 7.36186e-06 0)
(0 3.19608e-05 0)
(0 6.58999e-06 0)
(0 -1.32703e-06 0)
(0 -1.92155e-06 0)
(0 -1.91102e-06 0)
(0 2.55769e-06 0)
(0 4.63773e-06 0)
(0 -1.90178e-06 0)
(0 2.90163e-06 0)
(0 3.57678e-07 0)
(0 -1.91466e-06 0)
(0 1.55642e-05 0)
(0 -1.91367e-06 0)
(0 2.67931e-05 0)
(0 2.72066e-06 0)
(0 -6.75699e-07 0)
(0 -1.92328e-06 0)
(0 3.74015e-06 0)
(0 -6.31565e-07 0)
(0 -1.74824e-06 0)
(0 -1.92322e-06 0)
(0 -7.5873e-07 0)
(0 1.65465e-06 0)
(0 5.79198e-07 0)
(0 3.4142e-06 0)
(0 -3.73955e-07 0)
(0 1.52184e-05 0)
(0 -8.16941e-08 0)
(0 -1.9205e-06 0)
(0 -1.92143e-06 0)
(0 3.6914e-07 0)
(0 -1.37264e-06 0)
(0 4.64121e-06 0)
(0 -1.59745e-06 0)
(0 -1.91982e-06 0)
(0 2.57684e-05 0)
(0 2.81188e-05 0)
(0 1.3768e-06 0)
(0 -1.92308e-06 0)
(0 8.42418e-06 0)
(0 -2.59368e-06 0)
(0 -1.88053e-06 0)
(0 -1.92002e-06 0)
(0 -1.74529e-06 0)
(0 -1.3632e-06 0)
(0 9.5389e-06 0)
(0 5.04034e-06 0)
(0 -6.81352e-07 0)
(0 -1.92271e-06 0)
(0 -1.90886e-06 0)
(0 -1.07867e-06 0)
(0 1.56671e-06 0)
(0 -1.92372e-06 0)
(0 3.70128e-06 0)
(0 4.83876e-06 0)
(0 1.57841e-05 0)
(0 -1.71456e-06 0)
(0 -1.44375e-06 0)
(0 2.39062e-06 0)
(0 -1.78495e-06 0)
(0 1.00059e-05 0)
(0 5.40939e-06 0)
(0 2.65022e-05 0)
(0 1.48349e-05 0)
(0 1.07453e-06 0)
(0 -1.92007e-06 0)
(0 -1.91208e-06 0)
(0 -1.92329e-06 0)
(0 1.26945e-07 0)
(0 -1.92362e-06 0)
(0 -1.92406e-06 0)
(0 -1.92094e-06 0)
(0 5.74929e-06 0)
(0 7.08179e-06 0)
(0 2.66972e-05 0)
(0 -1.69496e-06 0)
(0 2.64444e-06 0)
(0 4.27572e-06 0)
(0 -1.86382e-06 0)
(0 -1.19666e-06 0)
(0 -1.7258e-06 0)
(0 -5.59006e-07 0)
(0 1.57449e-05 0)
(0 -1.83926e-06 0)
(0 6.04224e-06 0)
(0 -9.94776e-07 0)
(0 7.48924e-06 0)
(0 -1.92267e-06 0)
(0 2.96749e-06 0)
(0 -1.92738e-06 0)
(0 -1.92229e-06 0)
(0 -1.83562e-06 0)
(0 6.90044e-06 0)
(0 -5.36923e-07 0)
(0 2.12311e-05 0)
(0 1.23093e-06 0)
(0 -1.92707e-06 0)
(0 3.15183e-06 0)
(0 -2.54245e-06 0)
(0 -2.95832e-06 0)
(0 -1.77974e-06 0)
(0 -1.50682e-06 0)
(0 -1.92329e-06 0)
(0 5.08101e-06 0)
(0 -1.4051e-06 0)
(0 4.10379e-05 0)
(0 4.44879e-06 0)
(0 2.80973e-06 0)
(0 -1.92298e-06 0)
(0 -1.85731e-06 0)
(0 -1.92342e-06 0)
(0 4.0877e-06 0)
(0 6.80363e-07 0)
(0 1.43286e-05 0)
(0 -1.92324e-06 0)
(0 1.00658e-05 0)
(0 -1.91992e-06 0)
(0 3.04784e-06 0)
(0 -1.93505e-06 0)
(0 -1.18363e-06 0)
(0 1.53009e-06 0)
(0 4.09056e-06 0)
(0 -2.4589e-06 0)
(0 1.53301e-06 0)
(0 -7.43723e-07 0)
(0 -1.91898e-06 0)
(0 2.89552e-06 0)
(0 2.82174e-06 0)
(0 3.71863e-06 0)
(0 -6.95133e-07 0)
(0 -1.43086e-06 0)
(0 -1.5988e-06 0)
(0 -1.80792e-06 0)
(0 1.88464e-06 0)
(0 -1.90718e-06 0)
(0 -1.15937e-06 0)
(0 1.17122e-07 0)
(0 9.26694e-06 0)
(0 -1.7852e-06 0)
(0 6.86894e-06 0)
(0 6.25526e-06 0)
(0 -1.919e-06 0)
(0 -1.55296e-06 0)
(0 4.00982e-06 0)
(0 -6.67673e-08 0)
(0 4.39614e-06 0)
(0 -1.92199e-06 0)
(0 1.0477e-05 0)
(0 8.85081e-07 0)
(0 -1.41866e-06 0)
(0 2.59313e-07 0)
(0 -1.9244e-06 0)
(0 2.72245e-05 0)
(0 -3.95439e-07 0)
(0 8.33888e-06 0)
(0 -1.65524e-07 0)
(0 -1.9195e-06 0)
(0 -7.16417e-07 0)
(0 -2.6637e-07 0)
(0 -1.26521e-06 0)
(0 -6.24968e-07 0)
(0 4.12132e-06 0)
(0 -1.88647e-06 0)
(0 5.98366e-06 0)
(0 -6.58164e-07 0)
(0 2.43339e-06 0)
(0 -3.54532e-07 0)
(0 -1.8794e-06 0)
(0 -2.46934e-07 0)
(0 -2.02894e-07 0)
(0 -2.73216e-07 0)
(0 1.71078e-05 0)
(0 -1.76759e-06 0)
(0 3.68827e-05 0)
(0 3.85903e-06 0)
(0 -1.84896e-06 0)
(0 4.64312e-06 0)
(0 -1.44529e-06 0)
(0 -1.71784e-06 0)
(0 -3.11831e-06 0)
(0 2.06743e-06 0)
(0 -1.42508e-06 0)
(0 -1.92318e-06 0)
(0 -1.92296e-06 0)
(0 5.02134e-06 0)
(0 -2.74296e-07 0)
(0 -1.92333e-06 0)
(0 3.33218e-05 0)
(0 -1.51159e-06 0)
(0 2.3202e-05 0)
(0 -7.01749e-07 0)
(0 -1.4601e-06 0)
(0 1.51134e-05 0)
(0 -1.92157e-06 0)
(0 3.86035e-06 0)
(0 -1.35715e-06 0)
(0 -2.90227e-06 0)
(0 4.28958e-06 0)
(0 -1.92752e-06 0)
(0 -4.20554e-07 0)
(0 -1.92115e-06 0)
(0 3.56023e-06 0)
(0 5.82579e-06 0)
(0 2.0447e-07 0)
(0 2.09668e-06 0)
(0 -1.73393e-06 0)
(0 -1.9013e-06 0)
(0 -1.68804e-06 0)
(0 3.16397e-06 0)
(0 4.87735e-06 0)
(0 -1.91944e-06 0)
(0 -1.66829e-06 0)
(0 -3.7444e-06 0)
(0 3.29031e-06 0)
(0 -3.15189e-07 0)
(0 -6.82913e-07 0)
(0 -1.92327e-06 0)
(0 -1.91735e-06 0)
(0 2.92176e-06 0)
(0 1.23881e-05 0)
(0 -1.92343e-06 0)
(0 4.57734e-06 0)
(0 3.27288e-06 0)
(0 -1.33656e-06 0)
(0 6.09029e-06 0)
(0 1.91815e-05 0)
(0 -1.92254e-06 0)
(0 -3.12739e-07 0)
(0 -1.44106e-06 0)
(0 -1.84996e-06 0)
(0 -1.92329e-06 0)
(0 -9.72652e-07 0)
(0 5.05924e-06 0)
(0 6.82446e-06 0)
(0 1.04452e-05 0)
(0 -1.6738e-06 0)
(0 1.07572e-05 0)
(0 1.78871e-07 0)
(0 6.85629e-06 0)
(0 2.48596e-06 0)
(0 2.66019e-06 0)
(0 1.83088e-06 0)
(0 2.01818e-05 0)
(0 4.65806e-06 0)
(0 1.8916e-05 0)
(0 1.93672e-05 0)
(0 1.63757e-06 0)
(0 -1.83366e-06 0)
(0 -1.89841e-06 0)
(0 7.73514e-06 0)
(0 -1.7742e-06 0)
(0 -9.26963e-07 0)
(0 -1.88829e-06 0)
(0 7.19515e-06 0)
(0 -4.53675e-07 0)
(0 2.65474e-06 0)
(0 -1.75985e-06 0)
(0 3.11568e-06 0)
(0 -3.18199e-06 0)
(0 -1.82022e-06 0)
(0 3.1248e-06 0)
(0 -1.90671e-06 0)
(0 5.95058e-06 0)
(0 1.11546e-06 0)
(0 2.4481e-06 0)
(0 2.78116e-07 0)
(0 4.47942e-06 0)
(0 3.4427e-05 0)
(0 -1.92737e-06 0)
(0 2.56164e-06 0)
(0 6.69392e-06 0)
(0 -1.92314e-06 0)
(0 3.90839e-06 0)
(0 -1.92338e-06 0)
(0 -1.92329e-06 0)
(0 -1.31787e-06 0)
(0 4.92592e-07 0)
(0 3.5815e-05 0)
(0 -1.92435e-06 0)
(0 -2.37792e-06 0)
(0 4.65252e-06 0)
(0 -1.92387e-06 0)
(0 6.14415e-07 0)
(0 2.41844e-05 0)
(0 -1.92363e-06 0)
(0 4.05301e-06 0)
(0 -1.92719e-06 0)
(0 8.67801e-06 0)
(0 6.85486e-06 0)
(0 -1.92331e-06 0)
(0 2.62841e-06 0)
(0 4.45953e-06 0)
(0 -1.81188e-06 0)
(0 2.25837e-06 0)
(0 -1.57087e-06 0)
(0 -1.7023e-06 0)
(0 7.03826e-06 0)
(0 4.82796e-06 0)
(0 2.96903e-06 0)
(0 -1.57096e-06 0)
(0 -1.27825e-06 0)
(0 3.82993e-06 0)
(0 -3.89173e-07 0)
(0 2.61265e-06 0)
(0 -1.48841e-06 0)
(0 -1.92356e-06 0)
(0 3.21518e-07 0)
(0 3.15235e-06 0)
(0 -6.64753e-07 0)
(0 7.33534e-06 0)
(0 -1.40982e-06 0)
(0 -1.91824e-06 0)
(0 -1.935e-06 0)
(0 -1.79897e-06 0)
(0 -1.52365e-06 0)
(0 -1.45848e-06 0)
(0 -1.92314e-06 0)
(0 2.91779e-05 0)
(0 4.82995e-06 0)
(0 8.33022e-06 0)
(0 7.85672e-06 0)
(0 -1.66016e-06 0)
(0 5.48257e-06 0)
(0 1.10888e-06 0)
(0 -1.92345e-06 0)
(0 -1.50934e-06 0)
(0 3.94577e-07 0)
(0 -1.90206e-06 0)
(0 -1.56396e-06 0)
(0 -1.92312e-06 0)
(0 5.16384e-06 0)
(0 2.00478e-05 0)
(0 4.7529e-06 0)
(0 1.86523e-06 0)
(0 -3.43779e-07 0)
(0 -5.35266e-07 0)
(0 6.00253e-06 0)
(0 -1.89833e-06 0)
(0 5.15364e-06 0)
(0 1.10617e-05 0)
(0 -1.82953e-06 0)
(0 -1.45802e-06 0)
(0 5.2239e-06 0)
(0 2.48379e-05 0)
(0 -1.56375e-06 0)
(0 -1.92039e-06 0)
(0 1.45893e-06 0)
(0 1.32995e-05 0)
(0 -1.73487e-06 0)
(0 1.15641e-06 0)
(0 -1.88341e-06 0)
(0 2.31447e-05 0)
(0 1.00344e-05 0)
(0 -1.92353e-06 0)
(0 -1.45921e-06 0)
(0 3.00272e-06 0)
(0 -1.91898e-06 0)
(0 -1.91999e-06 0)
(0 -1.92733e-06 0)
(0 9.71633e-06 0)
(0 1.34579e-05 0)
(0 1.32518e-06 0)
(0 1.09771e-08 0)
(0 3.01319e-06 0)
(0 -1.89797e-06 0)
(0 -1.52555e-06 0)
(0 -1.75649e-06 0)
(0 -1.85342e-06 0)
(0 3.22433e-06 0)
(0 9.14105e-06 0)
(0 -1.92074e-06 0)
(0 -1.91823e-06 0)
(0 -1.8689e-06 0)
(0 3.68812e-06 0)
(0 3.82917e-07 0)
(0 5.49469e-07 0)
(0 -1.92229e-06 0)
(0 -1.92384e-06 0)
(0 -1.42849e-06 0)
(0 2.93006e-06 0)
(0 6.50281e-06 0)
(0 3.56959e-07 0)
(0 -1.32621e-06 0)
(0 5.70229e-06 0)
(0 -1.79181e-06 0)
(0 4.44687e-07 0)
(0 -1.90308e-06 0)
(0 6.3776e-06 0)
(0 2.69226e-06 0)
(0 -2.83741e-06 0)
(0 -6.20278e-07 0)
(0 -1.77253e-07 0)
(0 -1.3907e-06 0)
(0 3.4582e-06 0)
(0 4.63282e-07 0)
(0 -1.92004e-06 0)
(0 1.46707e-05 0)
(0 4.10638e-06 0)
(0 1.11884e-06 0)
(0 1.6533e-05 0)
(0 2.68509e-07 0)
(0 3.16869e-06 0)
(0 5.73084e-06 0)
(0 1.47338e-05 0)
(0 -1.5754e-06 0)
(0 3.18564e-06 0)
(0 2.58779e-06 0)
(0 8.26398e-06 0)
(0 -2.31292e-07 0)
(0 3.23145e-07 0)
(0 1.98847e-05 0)
(0 1.95466e-06 0)
(0 5.02632e-06 0)
(0 3.29343e-05 0)
(0 -1.48047e-06 0)
(0 1.20199e-05 0)
(0 -8.60177e-07 0)
(0 2.55952e-06 0)
(0 -1.67941e-06 0)
(0 9.91018e-07 0)
(0 -1.90854e-06 0)
(0 1.14737e-05 0)
(0 -1.92329e-06 0)
(0 4.85399e-07 0)
(0 1.08045e-06 0)
(0 -1.26025e-06 0)
(0 -1.48321e-06 0)
(0 -1.88815e-06 0)
(0 1.5425e-05 0)
(0 6.28756e-06 0)
(0 9.35439e-06 0)
(0 6.26898e-06 0)
(0 1.67276e-06 0)
(0 6.88738e-08 0)
(0 -6.85275e-07 0)
(0 -1.60784e-06 0)
(0 -1.9073e-06 0)
(0 1.31478e-07 0)
(0 -3.02205e-06 0)
(0 -1.92112e-06 0)
(0 -1.78348e-06 0)
(0 2.57724e-05 0)
(0 6.38235e-06 0)
(0 -8.66239e-07 0)
(0 -1.91054e-06 0)
(0 1.37491e-06 0)
(0 7.58065e-07 0)
(0 -1.61656e-06 0)
(0 -1.5488e-06 0)
(0 -8.35893e-07 0)
(0 -4.79791e-07 0)
(0 -1.92062e-06 0)
(0 1.41016e-05 0)
(0 2.72998e-08 0)
(0 -1.92348e-06 0)
(0 -1.47504e-06 0)
(0 -1.85154e-06 0)
(0 -1.57333e-06 0)
(0 -1.76737e-06 0)
(0 9.47776e-06 0)
(0 -3.23298e-06 0)
(0 2.56332e-05 0)
(0 4.64047e-06 0)
(0 -1.89554e-06 0)
(0 -1.89685e-06 0)
(0 -1.92252e-06 0)
(0 -1.81809e-06 0)
(0 -1.92431e-06 0)
(0 -1.9226e-06 0)
(0 -1.58171e-06 0)
(0 1.20489e-06 0)
(0 -1.92319e-06 0)
(0 -1.90492e-06 0)
(0 3.11562e-05 0)
(0 -1.83919e-06 0)
(0 -1.92222e-06 0)
(0 -1.82858e-06 0)
(0 2.93931e-07 0)
(0 5.35638e-08 0)
(0 1.42618e-05 0)
(0 1.6503e-05 0)
(0 1.72298e-05 0)
(0 -1.66959e-07 0)
(0 4.6695e-06 0)
(0 -1.92329e-06 0)
(0 1.54991e-06 0)
(0 7.18369e-07 0)
(0 -1.92185e-06 0)
(0 4.80605e-06 0)
(0 -2.96031e-07 0)
(0 -1.85274e-06 0)
(0 4.50301e-06 0)
(0 6.33676e-06 0)
(0 -1.91966e-06 0)
(0 -4.04825e-06 0)
(0 4.94232e-07 0)
(0 1.41413e-05 0)
(0 -1.92252e-06 0)
(0 1.52364e-05 0)
(0 7.74745e-06 0)
(0 -7.46808e-07 0)
(0 2.84309e-06 0)
(0 8.85879e-08 0)
(0 7.6695e-07 0)
(0 -1.90673e-06 0)
(0 3.68001e-06 0)
(0 3.62536e-05 0)
(0 -1.92335e-06 0)
(0 7.66657e-06 0)
(0 -1.9216e-06 0)
(0 -1.93696e-06 0)
(0 -1.81888e-06 0)
(0 -1.35803e-06 0)
(0 4.68529e-06 0)
(0 5.47366e-06 0)
(0 -1.9211e-06 0)
(0 1.04463e-06 0)
(0 3.0471e-06 0)
(0 7.86764e-07 0)
(0 9.2797e-06 0)
(0 -1.7888e-06 0)
(0 -1.8697e-06 0)
(0 1.98875e-07 0)
(0 -1.92328e-06 0)
(0 -1.63661e-06 0)
(0 2.17026e-06 0)
(0 8.69565e-07 0)
(0 6.63081e-07 0)
(0 2.21393e-06 0)
(0 -1.57244e-06 0)
(0 2.0458e-05 0)
(0 -1.88274e-06 0)
(0 1.55283e-08 0)
(0 -6.56057e-07 0)
(0 -7.2325e-07 0)
(0 -1.92016e-06 0)
(0 -1.92792e-06 0)
(0 4.66276e-06 0)
(0 2.85398e-05 0)
(0 2.40947e-06 0)
(0 6.62927e-07 0)
(0 3.5122e-06 0)
(0 -1.92193e-06 0)
(0 -1.84256e-06 0)
(0 2.78653e-06 0)
(0 6.06675e-06 0)
(0 1.23876e-06 0)
(0 3.53603e-07 0)
(0 2.03179e-05 0)
(0 -1.63749e-06 0)
(0 4.82918e-06 0)
(0 -1.91921e-06 0)
(0 3.53152e-06 0)
(0 3.22857e-06 0)
(0 -1.89367e-06 0)
(0 -1.92034e-06 0)
(0 3.1979e-06 0)
(0 -1.85974e-06 0)
(0 7.51421e-07 0)
(0 4.26512e-06 0)
(0 3.13014e-06 0)
(0 -9.91768e-07 0)
(0 -1.92966e-06 0)
(0 3.61839e-06 0)
(0 -1.92382e-06 0)
(0 -4.15964e-07 0)
(0 -1.88158e-06 0)
(0 -1.86289e-06 0)
(0 8.94613e-06 0)
(0 -1.92448e-06 0)
(0 4.87867e-06 0)
(0 -1.90808e-06 0)
(0 2.48256e-05 0)
(0 -1.91965e-06 0)
(0 -1.92364e-06 0)
(0 2.81036e-06 0)
(0 -1.92424e-06 0)
(0 1.62304e-06 0)
(0 3.76959e-07 0)
(0 -1.89546e-06 0)
(0 -1.73025e-06 0)
(0 -1.92415e-06 0)
(0 3.8803e-06 0)
(0 -1.90679e-06 0)
(0 7.08082e-06 0)
(0 -1.89593e-06 0)
(0 2.69065e-05 0)
(0 3.75446e-07 0)
(0 1.63796e-05 0)
(0 5.05207e-06 0)
(0 -5.86172e-06 0)
(0 4.76151e-06 0)
(0 -1.72726e-06 0)
(0 -1.81723e-06 0)
(0 4.53575e-06 0)
(0 -1.92277e-06 0)
(0 9.04186e-06 0)
(0 4.79795e-06 0)
(0 9.49081e-07 0)
(0 -8.76016e-08 0)
(0 -3.07332e-07 0)
(0 -1.90052e-06 0)
(0 3.89e-06 0)
(0 -2.53876e-06 0)
(0 1.02578e-06 0)
(0 -1.91282e-06 0)
(0 4.02847e-07 0)
(0 4.69369e-06 0)
(0 5.30249e-06 0)
(0 9.18341e-07 0)
(0 5.8205e-06 0)
(0 -1.92329e-06 0)
(0 4.7135e-06 0)
(0 -1.88379e-06 0)
(0 -1.46675e-06 0)
(0 -1.76671e-06 0)
(0 -1.92702e-06 0)
(0 -1.9234e-06 0)
(0 -8.55951e-07 0)
(0 7.34121e-06 0)
(0 4.81277e-06 0)
(0 4.67863e-06 0)
(0 1.09484e-05 0)
(0 -1.92078e-06 0)
(0 2.22126e-06 0)
(0 9.07026e-06 0)
(0 -4.5978e-06 0)
(0 -1.90419e-06 0)
(0 1.42723e-06 0)
(0 3.64308e-05 0)
(0 -1.1442e-07 0)
(0 1.46014e-06 0)
(0 -1.90458e-06 0)
(0 -1.92438e-06 0)
(0 3.11218e-06 0)
(0 8.44371e-06 0)
(0 -1.90856e-06 0)
(0 3.16557e-06 0)
(0 -1.91971e-06 0)
(0 -1.92296e-06 0)
(0 -1.92543e-06 0)
(0 -1.8672e-06 0)
(0 -1.86685e-06 0)
(0 -1.65363e-06 0)
(0 1.5667e-05 0)
(0 -5.31888e-07 0)
(0 4.36419e-06 0)
(0 3.72983e-06 0)
(0 3.04853e-06 0)
(0 -3.36765e-06 0)
(0 2.9502e-06 0)
(0 -1.8714e-06 0)
(0 -1.92209e-06 0)
(0 8.90682e-06 0)
(0 -1.77173e-06 0)
(0 -2.6862e-06 0)
(0 2.31084e-06 0)
(0 1.78356e-07 0)
(0 -2.09713e-06 0)
(0 6.25497e-07 0)
(0 6.09638e-06 0)
(0 -1.90652e-06 0)
(0 -1.92328e-06 0)
(0 -5.45621e-07 0)
(0 -1.92382e-06 0)
(0 -1.50205e-06 0)
(0 -1.92231e-06 0)
(0 -1.62855e-06 0)
(0 -1.72065e-06 0)
(0 -1.91763e-06 0)
(0 3.29497e-06 0)
(0 -1.9186e-06 0)
(0 -6.41604e-08 0)
(0 -1.93645e-06 0)
(0 2.93194e-05 0)
(0 7.01711e-06 0)
(0 1.58873e-06 0)
(0 1.58737e-05 0)
(0 -1.33171e-06 0)
(0 4.05005e-06 0)
(0 6.54812e-07 0)
(0 -1.99893e-07 0)
(0 -6.53653e-07 0)
(0 -1.18508e-06 0)
(0 -1.06142e-06 0)
(0 -3.00348e-06 0)
(0 -1.61806e-06 0)
(0 3.4479e-05 0)
(0 8.45264e-06 0)
(0 9.77739e-07 0)
(0 3.56579e-06 0)
(0 -1.47158e-06 0)
(0 -1.90295e-06 0)
(0 3.19543e-06 0)
(0 3.06727e-05 0)
(0 4.54273e-06 0)
(0 -1.61623e-06 0)
(0 2.40129e-06 0)
(0 4.87626e-06 0)
(0 -1.85829e-06 0)
(0 8.43297e-06 0)
(0 -1.91896e-06 0)
(0 1.03188e-05 0)
(0 -1.91708e-06 0)
(0 2.34108e-05 0)
(0 2.36904e-06 0)
(0 3.91972e-06 0)
(0 5.45503e-06 0)
(0 2.55158e-07 0)
(0 -4.81914e-07 0)
(0 3.19652e-06 0)
(0 -1.91719e-06 0)
(0 6.21121e-06 0)
(0 -1.93284e-06 0)
(0 -1.92469e-06 0)
(0 1.91059e-06 0)
(0 -2.9634e-06 0)
(0 -1.82532e-06 0)
(0 1.12157e-05 0)
(0 -1.92078e-06 0)
(0 5.95123e-06 0)
(0 -1.91453e-06 0)
(0 -1.92224e-06 0)
(0 -5.40298e-07 0)
(0 -1.92153e-06 0)
(0 -2.93088e-06 0)
(0 4.74116e-06 0)
(0 -1.92251e-06 0)
(0 -1.91908e-06 0)
(0 8.67125e-07 0)
(0 1.42653e-06 0)
(0 4.67483e-06 0)
(0 4.19814e-06 0)
(0 3.07588e-05 0)
(0 -1.38968e-06 0)
(0 -1.91767e-06 0)
(0 2.78394e-06 0)
(0 -1.89654e-06 0)
(0 -1.92322e-06 0)
(0 -1.16477e-06 0)
(0 -7.5546e-07 0)
(0 1.53605e-05 0)
(0 -1.92363e-06 0)
(0 -1.57984e-06 0)
(0 -2.78027e-08 0)
(0 3.55687e-06 0)
(0 3.90613e-06 0)
(0 -1.91531e-06 0)
(0 5.72728e-06 0)
(0 -1.9223e-06 0)
(0 -1.65055e-06 0)
(0 -1.32157e-06 0)
(0 -6.60198e-08 0)
(0 -2.55494e-07 0)
(0 4.19025e-06 0)
(0 2.80318e-06 0)
(0 -1.20046e-06 0)
(0 7.91452e-06 0)
(0 3.17504e-05 0)
(0 -1.92326e-06 0)
(0 -2.89608e-06 0)
(0 8.43509e-06 0)
(0 -1.92489e-06 0)
(0 4.15155e-06 0)
(0 4.14244e-06 0)
(0 -1.4018e-06 0)
(0 -1.89241e-06 0)
(0 7.01758e-06 0)
(0 -1.92097e-06 0)
(0 3.13713e-06 0)
(0 1.18766e-05 0)
(0 1.62124e-06 0)
(0 -1.92339e-06 0)
(0 -1.90044e-06 0)
(0 -1.92191e-06 0)
(0 -1.97888e-06 0)
(0 -5.53815e-07 0)
(0 3.95925e-06 0)
(0 -1.9218e-06 0)
(0 1.72422e-05 0)
(0 -1.60991e-06 0)
(0 -1.44074e-06 0)
(0 -1.91634e-06 0)
(0 -4.55714e-06 0)
(0 -3.49822e-06 0)
(0 -1.87262e-06 0)
(0 4.77412e-06 0)
(0 -1.92336e-06 0)
(0 2.86315e-05 0)
(0 -1.92373e-06 0)
(0 -1.11337e-06 0)
(0 3.64277e-06 0)
(0 1.03045e-06 0)
(0 -1.87835e-06 0)
(0 -1.92384e-06 0)
(0 1.05448e-06 0)
(0 1.45258e-05 0)
(0 2.60741e-06 0)
(0 3.48621e-05 0)
(0 2.12955e-05 0)
(0 4.97279e-07 0)
(0 -7.05512e-07 0)
(0 3.01368e-06 0)
(0 -1.86954e-06 0)
(0 1.77606e-06 0)
(0 -1.92091e-06 0)
(0 2.90262e-05 0)
(0 9.31669e-06 0)
(0 -1.83898e-06 0)
(0 -1.91901e-06 0)
(0 -1.84766e-06 0)
(0 3.76125e-06 0)
(0 -1.90999e-06 0)
(0 2.95203e-05 0)
(0 -1.92224e-06 0)
(0 2.45748e-06 0)
(0 -1.36286e-06 0)
(0 6.89658e-06 0)
(0 -1.92534e-06 0)
(0 4.71504e-06 0)
(0 2.75043e-06 0)
(0 5.28537e-06 0)
(0 4.75449e-06 0)
(0 4.8688e-07 0)
(0 -1.89547e-06 0)
(0 -1.65933e-06 0)
(0 -1.91485e-06 0)
(0 -8.25199e-07 0)
(0 1.72284e-05 0)
(0 3.17054e-06 0)
(0 7.1792e-07 0)
(0 -1.9145e-06 0)
(0 -3.8143e-06 0)
(0 1.53711e-06 0)
(0 -1.44389e-06 0)
(0 2.73857e-05 0)
(0 -1.92329e-06 0)
(0 -1.06764e-06 0)
(0 1.42579e-06 0)
(0 2.43754e-06 0)
(0 -1.92228e-06 0)
(0 1.57727e-06 0)
(0 1.40528e-06 0)
(0 3.57563e-06 0)
(0 -7.89294e-07 0)
(0 -1.92484e-06 0)
(0 4.40264e-06 0)
(0 -1.90825e-06 0)
(0 7.89344e-06 0)
(0 3.44818e-06 0)
(0 -1.8569e-06 0)
(0 8.33022e-06 0)
(0 4.61243e-06 0)
(0 -7.39012e-08 0)
(0 -1.27522e-06 0)
(0 2.97988e-05 0)
(0 -1.73726e-06 0)
(0 -2.2632e-07 0)
(0 -1.92314e-06 0)
(0 3.03142e-06 0)
(0 -1.89488e-06 0)
(0 -9.36402e-07 0)
(0 -4.27555e-07 0)
(0 2.46979e-07 0)
(0 4.48547e-06 0)
(0 -1.8501e-06 0)
(0 1.92986e-05 0)
(0 -1.92328e-06 0)
(0 7.23792e-06 0)
(0 5.00964e-06 0)
(0 -1.92114e-06 0)
(0 6.8929e-06 0)
(0 2.02722e-05 0)
(0 -1.89428e-06 0)
(0 4.98018e-06 0)
(0 -1.78834e-06 0)
(0 -1.92332e-06 0)
(0 5.94466e-06 0)
(0 -1.57077e-06 0)
(0 -1.9233e-06 0)
(0 1.77487e-06 0)
(0 4.68348e-06 0)
(0 1.86984e-05 0)
(0 1.68584e-05 0)
(0 9.04908e-06 0)
(0 3.55731e-06 0)
(0 -1.13104e-06 0)
(0 2.98009e-05 0)
(0 5.46863e-07 0)
(0 -1.90846e-06 0)
(0 -3.83496e-06 0)
(0 -1.92335e-06 0)
(0 2.41442e-05 0)
(0 5.20499e-06 0)
(0 -1.61537e-06 0)
(0 -1.92337e-06 0)
(0 -5.05862e-06 0)
(0 4.14262e-06 0)
(0 9.12878e-06 0)
(0 1.06711e-05 0)
(0 6.59429e-07 0)
(0 -1.85189e-06 0)
(0 -2.94438e-08 0)
(0 2.12102e-05 0)
(0 1.50687e-06 0)
(0 -1.59757e-06 0)
(0 2.12332e-06 0)
(0 -1.82209e-06 0)
(0 -1.91514e-06 0)
(0 2.96497e-05 0)
(0 -1.92242e-06 0)
(0 4.16505e-06 0)
(0 7.01891e-06 0)
(0 4.97916e-06 0)
(0 -1.9225e-06 0)
(0 1.40493e-07 0)
(0 -2.2534e-06 0)
(0 2.19924e-06 0)
(0 6.91562e-06 0)
(0 4.8153e-06 0)
(0 -1.10343e-07 0)
(0 -1.9281e-06 0)
(0 -1.92397e-06 0)
(0 -1.92074e-06 0)
(0 -8.37116e-07 0)
(0 2.76051e-06 0)
(0 5.06225e-06 0)
(0 3.49465e-06 0)
(0 1.6664e-05 0)
(0 -1.9185e-06 0)
(0 -1.92312e-06 0)
(0 1.90933e-06 0)
(0 1.81636e-05 0)
(0 -1.92431e-06 0)
(0 -2.71842e-06 0)
(0 -9.078e-07 0)
(0 -1.91013e-06 0)
(0 2.16968e-06 0)
(0 -1.23566e-06 0)
(0 1.64624e-06 0)
(0 1.50504e-05 0)
(0 -1.92671e-06 0)
(0 4.40427e-06 0)
(0 -8.15947e-07 0)
(0 -2.63261e-06 0)
(0 1.40305e-05 0)
(0 8.31616e-06 0)
(0 -4.25547e-07 0)
(0 -1.31071e-06 0)
(0 8.11419e-06 0)
(0 -2.57307e-06 0)
(0 -1.92024e-06 0)
(0 2.11794e-06 0)
(0 -2.17295e-06 0)
(0 -6.02668e-07 0)
(0 7.10852e-06 0)
(0 4.8207e-06 0)
(0 1.02044e-05 0)
(0 -1.82124e-06 0)
(0 3.83678e-06 0)
(0 -1.76024e-06 0)
(0 9.83869e-06 0)
(0 1.05071e-05 0)
(0 -1.91782e-06 0)
(0 -1.02475e-06 0)
(0 -1.8488e-06 0)
(0 1.42355e-06 0)
(0 -8.45027e-07 0)
(0 1.18481e-06 0)
(0 2.92648e-06 0)
(0 3.35842e-06 0)
(0 8.46899e-06 0)
(0 -4.20099e-06 0)
(0 6.60843e-06 0)
(0 4.81348e-06 0)
(0 9.95439e-07 0)
(0 2.27868e-06 0)
(0 -2.38532e-07 0)
(0 -2.27791e-06 0)
(0 -3.06525e-07 0)
(0 -1.93227e-06 0)
(0 -1.8925e-06 0)
(0 -1.65449e-06 0)
(0 -1.84097e-06 0)
(0 7.4172e-08 0)
(0 -4.9064e-07 0)
(0 -1.87525e-06 0)
(0 -1.61691e-06 0)
(0 -1.09919e-06 0)
(0 3.02459e-06 0)
(0 9.41296e-07 0)
(0 -1.83878e-06 0)
(0 -1.65628e-06 0)
(0 -9.253e-07 0)
(0 1.51141e-06 0)
(0 8.0711e-06 0)
(0 4.94083e-06 0)
(0 -5.72836e-06 0)
(0 1.29581e-05 0)
(0 -1.91872e-06 0)
(0 -1.91917e-06 0)
(0 -1.92329e-06 0)
(0 1.23278e-06 0)
(0 -2.66372e-06 0)
(0 -6.8864e-07 0)
(0 -3.13116e-06 0)
(0 -1.92454e-06 0)
(0 -1.86701e-06 0)
(0 2.25564e-05 0)
(0 -1.92331e-06 0)
(0 9.46826e-07 0)
(0 2.93386e-06 0)
(0 2.88133e-05 0)
(0 -8.57853e-07 0)
(0 3.03022e-06 0)
(0 -1.57994e-06 0)
(0 1.39423e-06 0)
(0 -1.82335e-06 0)
(0 -3.76307e-06 0)
(0 -3.35203e-06 0)
(0 -1.36851e-06 0)
(0 3.19431e-06 0)
(0 -3.11602e-06 0)
(0 4.49192e-06 0)
(0 -8.41831e-07 0)
(0 -4.05796e-06 0)
(0 -1.7202e-06 0)
(0 2.91935e-06 0)
(0 8.6485e-06 0)
(0 3.73251e-06 0)
(0 6.74364e-06 0)
(0 -1.80272e-06 0)
(0 4.83419e-08 0)
(0 1.70865e-06 0)
(0 4.44423e-06 0)
(0 -1.92305e-06 0)
(0 -1.84979e-06 0)
(0 3.66429e-06 0)
(0 -7.42322e-07 0)
(0 5.43229e-06 0)
(0 -1.92299e-06 0)
(0 -1.89209e-06 0)
(0 -1.92332e-06 0)
(0 -1.40559e-06 0)
(0 7.85413e-06 0)
(0 2.97345e-07 0)
(0 -4.03872e-07 0)
(0 -1.57087e-06 0)
(0 -1.92651e-06 0)
(0 1.20122e-06 0)
(0 3.69505e-06 0)
(0 4.70642e-06 0)
(0 -1.84825e-06 0)
(0 3.04816e-06 0)
(0 -1.92329e-06 0)
(0 1.82333e-05 0)
(0 2.91949e-06 0)
(0 -1.92057e-06 0)
(0 5.68536e-07 0)
(0 2.70263e-06 0)
(0 -1.74331e-06 0)
(0 3.47846e-06 0)
(0 1.8527e-06 0)
(0 -1.8637e-06 0)
(0 -1.86606e-06 0)
(0 4.31098e-06 0)
(0 -1.83222e-06 0)
(0 -1.41329e-06 0)
(0 -1.92327e-06 0)
(0 -1.88726e-06 0)
(0 7.89526e-06 0)
(0 -1.92465e-06 0)
(0 3.38884e-06 0)
(0 -1.47585e-06 0)
(0 4.40611e-06 0)
(0 3.2025e-06 0)
(0 -1.92368e-06 0)
(0 -1.39203e-06 0)
(0 2.83913e-06 0)
(0 4.59783e-06 0)
(0 -1.92636e-06 0)
(0 1.54208e-06 0)
(0 -1.76666e-06 0)
(0 -1.80832e-06 0)
(0 -3.81986e-07 0)
(0 1.56929e-05 0)
(0 8.14541e-07 0)
(0 -1.81817e-06 0)
(0 -1.83123e-06 0)
(0 7.32885e-06 0)
(0 -7.60555e-07 0)
(0 -9.23753e-07 0)
(0 8.30864e-06 0)
(0 1.09622e-05 0)
(0 2.81615e-05 0)
(0 1.81345e-05 0)
(0 1.6426e-06 0)
(0 -1.55632e-06 0)
(0 -1.87816e-06 0)
(0 9.23348e-07 0)
(0 3.84327e-07 0)
(0 -1.93562e-06 0)
(0 -2.37931e-06 0)
(0 -1.91404e-06 0)
(0 -1.40928e-06 0)
(0 -1.48754e-06 0)
(0 -4.37199e-06 0)
(0 7.22488e-06 0)
(0 3.71765e-06 0)
(0 -3.64842e-06 0)
(0 -1.66782e-06 0)
(0 -1.92329e-06 0)
(0 -1.70441e-06 0)
(0 -1.90873e-06 0)
(0 8.81704e-07 0)
(0 1.70344e-07 0)
(0 2.70385e-06 0)
(0 -6.96261e-08 0)
(0 -1.92699e-06 0)
(0 -2.50342e-07 0)
(0 1.36336e-05 0)
(0 -3.55068e-06 0)
(0 -1.91889e-06 0)
(0 -1.90936e-06 0)
(0 -1.44991e-06 0)
(0 6.08519e-07 0)
(0 8.37266e-06 0)
(0 -1.92175e-06 0)
(0 6.94419e-06 0)
(0 8.76983e-07 0)
(0 6.69305e-06 0)
(0 -1.65072e-06 0)
(0 1.86385e-05 0)
(0 3.00359e-06 0)
(0 -1.9262e-06 0)
(0 3.56846e-07 0)
(0 -1.92327e-06 0)
(0 -1.91782e-06 0)
(0 -1.91712e-06 0)
(0 -1.92329e-06 0)
(0 4.08024e-07 0)
(0 -1.45547e-06 0)
(0 -1.6012e-06 0)
(0 -1.5627e-06 0)
(0 -1.92294e-06 0)
(0 8.71784e-06 0)
(0 -7.1902e-07 0)
(0 3.15768e-05 0)
(0 -1.48677e-06 0)
(0 -1.92534e-06 0)
(0 3.2765e-05 0)
(0 -1.91696e-06 0)
(0 1.4383e-06 0)
(0 -8.7591e-07 0)
(0 -1.70095e-06 0)
(0 4.277e-06 0)
(0 -1.91451e-06 0)
(0 6.66661e-06 0)
(0 -1.9041e-06 0)
(0 1.22952e-05 0)
(0 -2.41298e-06 0)
(0 -1.91368e-06 0)
(0 2.42543e-05 0)
(0 3.43407e-06 0)
(0 4.03477e-06 0)
(0 1.78797e-05 0)
(0 -5.75792e-07 0)
(0 -1.8682e-06 0)
(0 4.22282e-06 0)
(0 -1.37767e-07 0)
(0 -1.86567e-06 0)
(0 6.84177e-06 0)
(0 -1.92301e-06 0)
(0 -1.06889e-06 0)
(0 3.95994e-06 0)
(0 1.20686e-05 0)
(0 4.91481e-06 0)
(0 1.65449e-05 0)
(0 -1.55772e-06 0)
(0 9.38985e-08 0)
(0 -1.92502e-06 0)
(0 4.65781e-06 0)
(0 2.88283e-06 0)
(0 -7.32058e-07 0)
(0 -1.92384e-06 0)
(0 -1.81798e-06 0)
(0 1.18614e-05 0)
(0 -3.0046e-06 0)
(0 3.46173e-05 0)
(0 -9.90937e-08 0)
(0 -1.9227e-06 0)
(0 -1.89746e-06 0)
(0 -1.89419e-06 0)
(0 1.8688e-05 0)
(0 2.35936e-07 0)
(0 1.72376e-07 0)
(0 3.26482e-05 0)
(0 -8.56935e-07 0)
(0 -1.92278e-06 0)
(0 -2.26108e-06 0)
(0 -1.20268e-06 0)
(0 -1.84472e-06 0)
(0 -1.34669e-06 0)
(0 -1.44143e-06 0)
(0 -1.91858e-06 0)
(0 2.08564e-06 0)
(0 3.87463e-06 0)
(0 -1.68719e-06 0)
(0 4.74622e-07 0)
(0 7.95594e-06 0)
(0 -1.73535e-06 0)
(0 5.5604e-06 0)
(0 -7.43614e-07 0)
(0 -1.96662e-06 0)
(0 6.22008e-06 0)
(0 2.97285e-06 0)
(0 -1.9233e-06 0)
(0 -8.96638e-07 0)
(0 3.80483e-06 0)
(0 -3.88693e-07 0)
(0 -1.9235e-06 0)
(0 -1.72828e-06 0)
(0 -1.9206e-06 0)
(0 4.85999e-06 0)
(0 -1.89787e-06 0)
(0 1.8697e-05 0)
(0 -1.53306e-06 0)
(0 -1.13695e-06 0)
(0 4.62299e-06 0)
(0 -1.93578e-06 0)
(0 2.18727e-05 0)
(0 2.08879e-06 0)
(0 4.50773e-06 0)
(0 6.12528e-06 0)
(0 -1.91832e-06 0)
(0 2.584e-06 0)
(0 -1.01846e-06 0)
(0 -1.92078e-06 0)
(0 3.17897e-06 0)
(0 -1.92378e-06 0)
(0 1.58302e-05 0)
(0 -1.90182e-06 0)
(0 -1.43928e-06 0)
(0 -1.83892e-06 0)
(0 7.54008e-07 0)
(0 4.80698e-06 0)
(0 1.19114e-06 0)
(0 -1.00655e-06 0)
(0 -1.46597e-06 0)
(0 -1.72077e-06 0)
(0 -2.15972e-06 0)
(0 5.50785e-06 0)
(0 -1.92018e-06 0)
(0 -1.916e-06 0)
(0 8.64122e-06 0)
(0 -1.68605e-06 0)
(0 -1.82363e-06 0)
(0 4.68754e-06 0)
(0 -1.92328e-06 0)
(0 4.45919e-07 0)
(0 3.95871e-07 0)
(0 -2.01977e-06 0)
(0 5.33616e-06 0)
(0 2.85846e-05 0)
(0 -3.74967e-07 0)
(0 -1.78464e-06 0)
(0 -6.15965e-07 0)
(0 -1.0812e-06 0)
(0 -1.9304e-06 0)
(0 -1.902e-06 0)
(0 -1.84983e-06 0)
(0 -1.92369e-06 0)
(0 5.83832e-06 0)
(0 -1.34017e-06 0)
(0 -1.9348e-06 0)
(0 9.09333e-06 0)
(0 3.06289e-06 0)
(0 -1.78864e-06 0)
(0 -1.16342e-06 0)
(0 4.74863e-06 0)
(0 -1.88198e-06 0)
(0 -1.67463e-06 0)
(0 -1.87827e-06 0)
(0 -1.80934e-06 0)
(0 4.31808e-06 0)
(0 -1.83547e-06 0)
(0 1.30294e-05 0)
(0 5.7808e-06 0)
(0 -3.82302e-08 0)
(0 -1.92522e-06 0)
(0 -1.29622e-06 0)
(0 -1.88756e-06 0)
(0 -1.22768e-06 0)
(0 5.20143e-06 0)
(0 -1.76542e-06 0)
(0 -8.69231e-07 0)
(0 -6.99468e-07 0)
(0 2.52485e-06 0)
(0 1.42223e-06 0)
(0 9.36817e-06 0)
(0 -2.12238e-07 0)
(0 5.5985e-07 0)
(0 -1.87943e-06 0)
(0 6.30957e-06 0)
(0 -9.12614e-07 0)
(0 -1.92355e-06 0)
(0 -3.178e-06 0)
(0 6.36223e-06 0)
(0 -1.7938e-06 0)
(0 -3.5504e-06 0)
(0 -1.35181e-06 0)
(0 2.0287e-05 0)
(0 -1.69038e-06 0)
(0 -1.92278e-06 0)
(0 4.40319e-06 0)
(0 7.33182e-06 0)
(0 1.141e-05 0)
(0 -1.60226e-06 0)
(0 4.00352e-06 0)
(0 3.61787e-06 0)
(0 -1.78684e-06 0)
(0 -1.9147e-06 0)
(0 2.0585e-07 0)
(0 -1.92311e-06 0)
(0 -1.76709e-06 0)
(0 6.70371e-06 0)
(0 -1.0906e-06 0)
(0 -1.68253e-06 0)
(0 2.73981e-06 0)
(0 -1.54198e-06 0)
(0 3.12056e-06 0)
(0 -1.84374e-06 0)
(0 3.38318e-05 0)
(0 -1.85888e-06 0)
(0 -1.91166e-06 0)
(0 6.05783e-06 0)
(0 -1.72361e-06 0)
(0 7.01985e-06 0)
(0 -1.30359e-06 0)
(0 -1.21922e-06 0)
(0 4.06028e-06 0)
(0 -6.14878e-06 0)
(0 -1.65144e-06 0)
(0 -3.41915e-06 0)
(0 -1.68387e-06 0)
(0 -1.53122e-06 0)
(0 1.29831e-05 0)
(0 -1.30231e-06 0)
(0 -1.79071e-07 0)
(0 1.67476e-07 0)
(0 1.19648e-05 0)
(0 1.74087e-05 0)
(0 -7.50468e-07 0)
(0 -2.36915e-06 0)
(0 5.85824e-06 0)
(0 -1.65726e-06 0)
(0 2.38946e-05 0)
(0 -1.92464e-06 0)
(0 4.08434e-06 0)
(0 8.87699e-09 0)
(0 7.9854e-07 0)
(0 -1.58653e-06 0)
(0 -9.23006e-07 0)
(0 1.42154e-06 0)
(0 6.74367e-06 0)
(0 1.37263e-05 0)
(0 -1.91669e-06 0)
(0 -1.89551e-06 0)
(0 -1.92309e-06 0)
(0 -1.87891e-06 0)
(0 3.17104e-07 0)
(0 1.45472e-05 0)
(0 -1.91463e-06 0)
(0 -4.96174e-07 0)
(0 -1.9224e-06 0)
(0 -1.53828e-06 0)
(0 4.79203e-06 0)
(0 3.48095e-07 0)
(0 4.44878e-07 0)
(0 1.58367e-05 0)
(0 -1.17603e-06 0)
(0 -1.77337e-06 0)
(0 3.36089e-06 0)
(0 -1.92368e-06 0)
(0 -3.06732e-07 0)
(0 -1.42582e-06 0)
(0 5.38526e-06 0)
(0 2.81771e-06 0)
(0 2.93347e-05 0)
(0 1.1147e-06 0)
(0 -1.92399e-06 0)
(0 -5.19131e-07 0)
(0 -1.92351e-06 0)
(0 4.52882e-06 0)
(0 -1.92346e-06 0)
(0 2.39276e-05 0)
(0 2.10377e-06 0)
(0 2.67589e-06 0)
(0 3.32004e-06 0)
(0 -1.84512e-06 0)
(0 7.04762e-06 0)
(0 2.51767e-06 0)
(0 -2.21268e-06 0)
(0 -1.92322e-06 0)
(0 -7.50335e-07 0)
(0 -1.90936e-06 0)
(0 1.58298e-05 0)
(0 2.1119e-05 0)
(0 2.50058e-05 0)
(0 3.09514e-06 0)
(0 2.63537e-07 0)
(0 -1.92375e-06 0)
(0 -1.91431e-06 0)
(0 3.28342e-07 0)
(0 4.7187e-06 0)
(0 -1.91127e-06 0)
(0 -1.59772e-06 0)
(0 4.7238e-06 0)
(0 -1.53337e-06 0)
(0 1.41804e-05 0)
(0 9.82721e-06 0)
(0 8.96791e-06 0)
(0 -1.8478e-06 0)
(0 3.45813e-06 0)
(0 -1.30888e-07 0)
(0 7.24681e-07 0)
(0 8.34595e-06 0)
(0 -1.91681e-06 0)
(0 3.73841e-06 0)
(0 1.35576e-05 0)
(0 3.31406e-06 0)
(0 6.66783e-06 0)
(0 -4.82291e-06 0)
(0 6.47774e-06 0)
(0 6.71873e-06 0)
(0 3.31541e-07 0)
(0 2.70527e-06 0)
(0 1.57574e-06 0)
(0 4.24857e-06 0)
(0 -1.92281e-06 0)
(0 -1.04918e-06 0)
(0 2.72543e-06 0)
(0 8.18836e-06 0)
(0 -1.91804e-06 0)
(0 -3.2803e-06 0)