/*--------------------------------*- C++ -*----------------------------------*\
| =========                 |                                                 |
| \\      /  F ield         | OpenFOAM: The Open Source CFD Toolbox           |
|  \\    /   O peration     | Version:  v2012                                 |
|   \\  /    A nd           | Website:  www.openfoam.com                      |
|    \\/     M anipulation  |                                                 |
\*---------------------------------------------------------------------------*/
FoamFile
{
    version     2.0;
    format      ascii;
    class       volScalarField;
    location    "300";
    object      ddt0(k);
}
// * * * * * * * * * * * * * * * * * * * * * * * * * * * * * * * * * * * * * //

dimensions      [0 2 -3 0 0 0 0];


internalField   nonuniform List<scalar> 
18355
(
-7.0387e-08
-0.00287509
-1.52454e-09
4.79897e-08
1.02743e-07
-5.36926e-07
1.91024e-08
2.57453e-07
-1.74532e-08
-0.000567095
2.61891e-09
0.000206066
9.08477e-07
-2.32054e-08
5.29331e-08
9.76708e-08
-0.0002481
5.43652e-08
1.32069e-07
-0.00571669
7.36122e-08
9.50642e-08
0.00180555
1.05707e-07
1.67275e-07
8.90408e-09
-4.35391e-10
1.87092e-08
0.00117363
-1.57376e-08
9.16638e-08
1.20854e-07
5.11581e-08
5.86963e-08
2.22347e-08
-7.03215e-08
-6.42107e-09
2.27569e-07
1.71676e-08
1.10464e-09
-2.18743e-08
1.44418e-07
1.99646e-09
0.000826992
5.13255e-08
2.01948e-07
-1.62885e-07
3.62974e-08
-1.29977e-07
5.26288e-08
1.304e-08
1.00878e-07
-1.79157e-11
-0.00370573
2.98153e-08
2.43107e-08
-4.8981e-06
5.11457e-08
2.53111e-06
5.24901e-07
5.09266e-08
5.61071e-09
5.10917e-08
-1.43464e-07
0.000344281
-7.38379e-08
-0.000795754
1.98792e-08
-5.91065e-10
8.0492e-08
3.84647e-08
4.95844e-09
1.8266e-07
3.42723e-08
2.14037e-07
1.76146e-08
-0.0121983
9.9029e-08
2.20206e-08
8.75429e-08
2.06372e-08
-0.00029977
7.25105e-08
4.08168e-08
1.06119e-08
8.91503e-07
-0.00184039
-0.005596
0.00103483
-0.0019873
2.82328e-05
5.39098e-08
2.30071e-08
1.43808e-08
0.00131901
0.00188344
3.65898e-08
-2.55112e-08
-0.00341427
-0.000103645
0.000294306
-0.000151652
-5.09078e-09
-0.00550195
1.42752e-07
1.28454e-06
-0.000331676
4.92564e-07
-1.00886e-07
-1.57077e-05
-2.33373e-08
4.15788e-08
4.55214e-09
3.62407e-08
-0.00457047
3.36013e-08
5.19611e-07
-0.0116968
-9.53621e-07
-2.41701e-07
-0.000614748
-0.023057
1.05607e-07
-3.04067e-08
3.8945e-08
2.33932e-07
9.533e-08
-3.36602e-09
0.000785345
1.26806e-08
1.40797e-08
0.00132371
-1.61895e-07
-1.28882e-08
9.01251e-09
-3.9123e-10
7.3486e-08
1.76645e-09
-7.20534e-08
4.33426e-07
0.000216437
0.000504288
1.47583e-07
-3.44372e-08
-1.05073e-05
7.07673e-08
-9.64739e-08
0.00484295
-3.08703e-08
0.00883595
5.35352e-08
7.49658e-08
-1.38293e-07
2.05986e-06
-2.46143e-06
2.79888e-09
0.000868863
-4.0723e-07
2.17728e-09
1.22816e-07
-1.63807e-08
-8.41755e-08
-1.13037e-07
-1.52314e-08
-8.92736e-06
2.00595e-05
-0.00193562
1.10232e-08
3.17612e-06
4.89837e-08
-0.00335547
0.00209233
4.18531e-09
4.00302e-09
9.17797e-08
-0.00270963
-2.31059e-06
2.26518e-08
-0.00109151
-0.00127833
3.32241e-06
3.38993e-06
-9.31616e-08
1.67674e-08
1.63725e-06
-0.00288899
-0.000395166
6.71824e-06
1.73005e-08
-0.000230394
-4.76448e-06
3.12673e-08
-6.85162e-09
-0.00916495
-3.46716e-07
9.40991e-08
-0.0127581
-8.14219e-08
-1.84739e-07
1.14759e-09
-7.36766e-08
5.65214e-08
-0.00136003
-7.93263e-06
4.71482e-06
-6.57418e-09
1.42524e-06
-0.000481683
0.000488056
-1.78761e-07
8.90381e-08
4.22924e-08
-0.00502692
1.54651e-07
4.64924e-08
-0.000163611
0.000593102
-0.00518837
-1.13487e-09
-3.35482e-08
1.65011e-05
-7.3026e-08
2.9998e-08
8.23242e-08
-0.00152386
8.71298e-08
-0.000514392
-0.00273018
1.58929e-05
9.3239e-08
-5.05306e-10
5.27007e-08
-1.06166e-08
-0.000694223
7.8228e-08
1.33938e-08
2.30847e-08
9.28482e-08
0.000292827
0.000274939
-1.09743e-07
1.03628e-06
1.06783e-07
4.41061e-08
9.62143e-08
-0.00216318
-0.00961619
-3.06764e-06
-2.56238e-06
7.38361e-09
-7.10852e-08
5.43532e-06
-8.83084e-08
0.000333457
9.28791e-08
-0.000389604
-0.000332772
1.47358e-07
4.6183e-08
5.60933e-08
-9.62389e-08
4.41262e-08
-0.00177539
-1.40887e-07
1.78397e-08
4.21287e-08
2.02099e-09
1.39386e-06
-6.26723e-07
-2.72914e-06
1.22907e-07
0.00428531
8.78995e-06
1.02792e-06
-4.3828e-08
-0.00529029
9.16091e-08
-4.02275e-09
-0.0103277
4.76499e-08
1.45411e-08
1.04874e-06
-4.87443e-08
-0.000590541
-7.90327e-08
1.34165e-08
5.20943e-08
-1.29455e-07
0.000119909
1.13008e-07
5.19359e-08
6.04128e-09
1.78702e-06
-0.00273842
-1.30358e-09
2.54123e-09
0.000162686
6.0954e-08
-2.90811e-06
1.02689e-05
9.73588e-10
1.45998e-07
6.48442e-08
4.43324e-09
-9.00962e-06
-3.292e-06
-0.000912908
2.23196e-06
1.12241e-08
2.14671e-06
1.43618e-07
1.30399e-07
0.00950974
-4.414e-08
7.92256e-06
-5.81948e-07
2.51978e-08
3.07407e-08
2.4096e-06
0.00205514
-0.000743261
1.05649e-07
1.81407e-08
0.0009712
9.5696e-09
-0.000232068
7.66479e-08
-4.06918e-07
0.000174696
9.83221e-09
1.95098e-05
1.13757e-07
1.11143e-07
1.91465e-08
-2.81388e-06
-0.00011985
5.35867e-10
-0.000917869
-6.56309e-08
1.01305e-08
-2.31289e-07
-3.58042e-08
-0.0050826
-0.00444027
-0.00742768
8.90311e-08
5.62111e-08
0.00272672
-1.35287e-08
2.09795e-08
1.11444e-07
0.000678927
2.79143e-06
1.05501e-06
0.0028625
2.55684e-08
-8.90555e-08
-5.46681e-06
-1.76778e-08
9.25676e-08
6.30646e-06
-2.02307e-07
3.50218e-08
0.00565087
1.17206e-10
9.37388e-08
-1.70533e-05
7.44516e-05
5.19744e-08
-1.71061e-08
-4.66253e-08
5.58106e-08
1.41351e-06
5.29026e-08
-1.46807e-07
-4.3355e-08
-2.20174e-08
2.28438e-08
-1.30038e-08
-2.21336e-08
1.46469e-07
-1.43785e-08
-1.69518e-08
9.38042e-08
8.37043e-06
-0.00080532
7.26856e-08
-0.0118812
9.67771e-08
-0.00153865
-1.31887e-07
3.39016e-07
1.00835e-07
-0.00200394
-4.21563e-09
3.26198e-08
1.61668e-08
4.34476e-08
-0.00406113
-1.21586e-07
4.83592e-08
2.06427e-08
3.30409e-08
-3.99022e-09
8.14074e-09
-0.00104176
8.67656e-08
9.67679e-08
5.37652e-06
-3.96418e-08
-1.07016e-05
-0.000156457
-1.38223e-06
-8.64668e-09
1.47362e-07
0.000299216
4.72187e-09
-6.1692e-08
-3.05418e-06
3.53726e-09
2.10303e-09
-0.000243364
3.70763e-08
-0.000110443
-8.14696e-07
-2.54235e-06
-0.000183957
5.67263e-08
-5.67728e-08
-0.0129418
-6.08223e-07
-0.00423574
0.000366342
-2.71007e-08
1.76616e-08
5.97169e-08
-0.00817104
2.2242e-07
1.38379e-07
4.20311e-09
1.4189e-07
2.83704e-07
-3.50295e-06
4.16899e-08
5.44708e-08
1.22897e-10
-1.22232e-07
1.50807e-06
-0.00298541
-0.000388998
-0.000586954
-8.07275e-08
3.71277e-07
0.000479698
4.24184e-08
1.32386e-08
6.72601e-09
6.41294e-08
-2.75794e-08
1.47788e-08
4.97711e-08
-0.00010114
-6.36214e-08
-2.06854e-07
-0.00261933
5.56044e-08
-0.00243096
1.14371e-07
-1.78506e-08
-5.51318e-08
2.30832e-08
2.57132e-09
-3.57703e-09
5.34553e-09
0.00064225
1.05043e-07
1.52017e-08
0.00414426
-2.59755e-08
8.81407e-09
7.50593e-08
1.74227e-07
-0.0052338
1.03573e-07
2.1495e-08
0.00342862
6.47291e-08
0.000835563
7.9695e-08
6.08018e-08
-1.36031e-06
-1.44431e-07
4.90987e-08
-2.62643e-05
0.000423694
-0.0011023
5.99698e-08
2.64787e-08
-2.24132e-08
1.62552e-06
3.78258e-08
0.00278191
-0.0085638
-0.01122
-0.000387298
4.01442e-08
-8.04261e-07
-0.00361703
0.00212144
-0.00603168
3.45038e-08
8.32817e-08
1.2441e-08
0.000993099
-0.000148994
3.33902e-05
9.17461e-08
-6.74259e-08
1.10768e-08
-9.98462e-08
9.0125e-09
-0.0148458
-3.78412e-08
-0.00488483
-5.59478e-08
1.51625e-07
4.70413e-08
1.27089e-08
1.767e-07
-8.75476e-06
-3.70775e-08
9.20151e-07
-0.0082723
-1.30421e-07
4.96539e-08
6.22695e-08
-1.62872e-07
1.86019e-09
-9.65515e-08
-2.17405e-07
-1.20811e-07
5.20446e-07
9.61614e-08
4.94425e-08
5.41598e-09
-1.63962e-10
-2.5659e-07
4.74621e-08
1.04452e-08
1.10123e-07
1.07819e-07
-0.00970183
1.49242e-08
2.60878e-07
3.95627e-08
2.82766e-07
2.40912e-08
-0.00385685
-8.75892e-08
0.000715587
4.79113e-08
3.97659e-08
-0.000565522
-0.0100811
0.00778256
-1.27699e-07
-1.20735e-07
6.35995e-08
-6.01782e-08
-2.66333e-06
1.49251e-07
4.24149e-09
1.37751e-06
0.000607167
6.65056e-06
4.80266e-08
-0.00100066
0.00943456
9.07527e-08
-6.42796e-08
-5.55559e-07
-0.00164411
-1.59404e-07
2.17105e-09
2.53114e-06
4.16367e-07
5.8142e-09
4.65866e-09
-4.81384e-05
-2.57489e-08
1.05861e-06
-0.00181514
-5.69985e-05
0.0249784
2.41013e-07
-9.81089e-07
-9.05475e-08
2.48945e-08
9.11313e-08
-3.02971e-08
-2.43587e-06
-1.15178e-05
-0.00308542
6.40848e-06
0.00054272
-0.00146819
2.86548e-06
9.38409e-08
-0.00264807
0.00081129
1.54351e-09
1.14181e-05
0.000191139
0.015024
3.65028e-08
3.73247e-08
-2.42169e-08
1.72771e-09
-1.30439e-07
6.05754e-07
-3.49124e-08
0.00145653
9.50367e-08
7.98009e-08
0.00086705
8.98068e-08
-3.65837e-09
-0.00627927
-4.64609e-08
-6.24501e-08
0.00273864
3.91957e-08
8.29661e-07
8.63793e-09
-0.000847375
-1.39362e-07
-5.57496e-07
1.08639e-07
-1.01217e-07
1.42201e-06
-1.23021e-08
0.0110209
-2.10772e-06
7.17275e-08
0.00164332
-6.296e-07
-1.92086e-05
-0.000452605
-0.000778282
1.381e-05
-4.39281e-08
4.13066e-08
0.00032501
6.21097e-08
-8.83754e-08
6.64897e-09
-9.02329e-08
-0.0025939
-0.00779298
-2.2848e-07
0.00105949
-1.57605e-06
5.65135e-08
3.91244e-08
5.28162e-09
1.11378e-07
-2.05331e-07
2.04545e-08
0.00892725
1.28162e-08
8.83324e-08
5.86871e-08
0.00022788
-0.000826881
-2.32801e-08
3.87476e-09
-9.61109e-07
2.60508e-09
5.05856e-08
-0.000737674
5.36088e-06
5.86041e-08
-6.69025e-08
-5.86544e-06
2.5869e-08
4.47125e-09
1.31144e-06
1.41641e-07
-0.0038753
-1.92093e-07
7.57578e-08
-3.9168e-05
0.0020418
1.63828e-08
-0.0089875
4.78208e-08
-4.41969e-08
3.52214e-08
-4.41472e-07
-0.000930514
-7.64567e-08
-0.00201608
-1.19517e-07
-0.00576467
-0.000438658
-9.51757e-08
0.000518226
-7.60867e-09
-0.00038905
7.9249e-08
-7.89611e-05
-0.00284683
1.36256e-07
4.07504e-06
-1.58167e-08
4.47902e-08
0.00515191
3.68678e-06
0.000334328
2.18155e-08
-0.00385775
-5.96888e-08
0.00932428
3.78758e-08
2.3628e-10
-1.26241e-07
4.30567e-08
4.6266e-08
-6.76903e-07
-0.0150258
0.00770779
1.92205e-08
3.11463e-07
-9.27149e-08
3.97805e-08
1.38751e-08
4.26586e-08
2.14711e-06
0.00231179
-8.57323e-08
8.77252e-08
-8.51327e-08
-0.0042981
1.16133e-08
-4.4302e-08
4.68472e-08
-2.1092e-07
-1.13816e-07
0.00160732
7.98882e-08
-7.34911e-05
3.75466e-08
0.00403981
-0.000998466
-0.000707302
3.31993e-08
-2.1368e-06
1.84459e-08
7.9007e-08
-7.84562e-08
8.36135e-05
2.10935e-08
6.27043e-08
4.46137e-08
0.000739471
9.96499e-08
7.60761e-08
-2.08276e-08
-1.78671e-07
-0.00124257
-0.000235932
-7.98064e-09
-2.32281e-08
-0.000589139
7.82127e-08
0.000877755
-0.00299356
-0.000768235
-4.04036e-06
3.1438e-06
-0.0140675
-1.57723e-07
-4.5892e-09
3.99319e-08
1.16748e-07
4.89559e-08
2.37003e-08
5.21968e-08
0.0107767
-0.00286645
-4.00809e-08
9.51436e-08
3.3645e-08
4.64544e-08
7.20302e-08
2.80536e-08
6.23982e-08
-6.45609e-08
-7.36367e-06
-1.51015e-06
2.37685e-09
0.000389193
2.29161e-08
-0.000581711
2.13532e-07
-0.00420595
0.00208878
-1.45783e-07
0.000551418
2.42518e-05
-0.000467866
1.66693e-08
-3.07275e-08
2.37932e-08
-8.58429e-09
-0.00314389
4.63021e-08
-1.50903e-09
6.48861e-07
2.64453e-08
-8.06169e-08
-2.69501e-07
7.05039e-09
-0.0131991
5.86568e-08
-2.36277e-08
-5.8951e-06
5.35528e-08
8.83161e-07
-1.01494e-05
1.3379e-07
1.32463e-07
3.15854e-08
1.00259e-07
2.04051e-08
-7.59743e-08
-7.03972e-05
4.50599e-09
0.00278581
-4.45032e-08
0.00266416
1.04875e-07
-4.42449e-06
-2.25435e-08
-3.26248e-06
-5.02497e-09
-4.2739e-09
1.37387e-07
0.00294746
-6.56683e-08
-0.000485244
-0.000514616
1.27154e-07
1.92101e-08
2.98088e-08
1.97926e-08
-0.000151392
-6.03117e-08
0.00267415
-0.000867115
2.41687e-08
-0.000758033
6.18542e-08
-2.49816e-08
-0.00068587
0.00193919
-1.47127e-08
1.89331e-08
-4.70648e-08
4.46828e-08
1.54395e-07
-1.72655e-07
-1.04609e-05
-8.30341e-08
0.000748794
2.81438e-07
-0.000199702
1.09483e-08
-3.25987e-08
0.00136693
-0.00249665
-2.3424e-09
-1.92137e-08
1.99971e-08
0.00284847
1.16011e-08
-0.00063245
3.13369e-07
3.67759e-09
4.0389e-08
4.58882e-08
-8.78617e-08
-1.1761e-07
2.8513e-08
1.50656e-08
1.53076e-07
0.00132303
4.96291e-09
-2.48303e-06
-0.00023914
1.15448e-08
-4.31753e-08
-4.84633e-07
0.000668151
-1.15466e-07
0.00253992
1.53006e-09
1.7394e-08
2.14847e-09
-0.00233745
-2.40917e-05
-1.96787e-06
7.30355e-08
2.1753e-08
1.14385e-07
0.00233326
2.70574e-08
-0.0130374
4.5093e-07
0.000577803
8.23199e-09
3.40888e-08
4.44181e-06
-6.02289e-08
0.00132851
3.61901e-08
1.08259e-05
3.24844e-09
4.04791e-08
4.46216e-08
2.0454e-06
-0.000345495
-2.71661e-08
-7.98089e-08
5.75421e-08
6.55546e-08
1.8473e-08
-1.42157e-09
1.14717e-06
1.39398e-07
-0.00613044
5.47824e-08
0.000892723
2.08136e-08
2.49342e-08
-0.00069147
0.0017749
-0.00955982
9.56847e-08
-0.00184434
2.51488e-08
0.00161722
6.50284e-08
1.53905e-06
8.5956e-08
-0.00125548
-1.8196e-08
-1.1636e-07
1.14609e-08
1.99585e-09
1.36151e-09
-0.00516788
0.000405215
-0.00423885
1.3713e-08
1.1339e-08
-8.96769e-08
2.50752e-08
5.12061e-08
3.67982e-08
1.02326e-07
8.73898e-07
3.50341e-08
0.0012855
7.65924e-07
1.8151e-08
4.38296e-08
0.000690534
-2.55813e-06
9.67072e-08
-9.30344e-08
-1.36493e-07
-0.000363517
-6.37893e-07
-0.000322114
-2.29924e-06
-1.72264e-06
8.10104e-07
5.66753e-09
6.1169e-08
6.06193e-07
-5.20823e-08
1.9298e-08
-0.0120231
5.84712e-08
-0.00027856
1.38463e-07
-3.1043e-07
2.51473e-07
9.48631e-08
2.65207e-08
1.32917e-08
-0.000912935
-4.18815e-08
0.000618779
-1.2041e-08
1.34846e-08
0.000655232
-1.22828e-07
4.50467e-08
0.0050375
1.04343e-07
-5.18425e-06
-0.00134564
-6.87685e-08
-2.65627e-07
-0.00130971
1.15797e-07
6.49746e-08
-3.95863e-08
-2.72817e-09
-1.15582e-07
-2.21676e-06
-0.00140535
1.45048e-07
3.38892e-08
0.0011485
3.8727e-08
-0.000124353
1.13683e-07
-7.85752e-08
-0.000243297
-1.66196e-05
4.25234e-08
-4.18155e-08
-1.13757e-07
5.0847e-08
5.00567e-08
0.00323911
5.49815e-10
5.53667e-08
3.36819e-08
2.51935e-06
4.69321e-08
5.89096e-06
2.06874e-05
1.21655e-07
-0.00118743
2.04712e-08
-1.1905e-07
1.06681e-07
-1.17684e-05
1.7267e-09
2.95799e-08
1.32793e-08
2.99861e-08
2.02215e-08
1.08246e-06
-0.00122264
-0.000318796
-0.00102697
3.18889e-09
4.70323e-08
-3.4177e-06
3.75742e-08
2.96263e-08
-7.61584e-05
0.00164202
4.7414e-08
-4.00991e-08
0.00147873
6.90417e-09
1.08433e-09
-0.00474169
-8.49936e-07
-0.000146638
1.10667e-08
-2.66721e-08
-8.50582e-05
8.9015e-09
-1.31062e-08
5.84942e-09
-1.11807e-07
1.38637e-09
3.63645e-07
1.93972e-06
-6.58311e-07
2.59771e-08
-0.00106971
3.50729e-08
2.9364e-08
-1.44704e-08
-1.10022e-08
-6.32023e-08
-3.80065e-08
-0.0130034
1.14634e-07
-0.0070894
-5.9505e-08
-8.54756e-08
0.00186376
2.90941e-08
7.64747e-07
1.1046e-07
2.85075e-08
4.67171e-08
-1.45374e-06
2.85116e-08
7.05068e-08
1.44212e-08
-5.80966e-08
-9.09017e-07
5.06919e-08
9.94429e-08
-5.3855e-08
2.72923e-08
1.70479e-07
-0.000457235
-0.00532704
-0.0142819
0.00369889
1.04196e-06
1.12637e-07
0.00860783
-0.00418577
5.22098e-08
4.92643e-08
4.45057e-08
7.6426e-06
-0.00535095
4.5132e-08
-2.90231e-08
2.5125e-08
1.04072e-07
1.04795e-08
-8.74504e-08
-0.00135753
-0.00174254
-0.000172154
2.72047e-07
2.25756e-08
8.12184e-09
6.31799e-09
1.46417e-05
-0.000982518
-2.05322e-08
-1.87767e-06
4.93745e-08
-9.16006e-08
1.37897e-07
-7.49335e-08
-9.98742e-08
-5.74657e-05
1.04301e-07
1.66154e-06
3.78811e-08
3.46172e-08
1.33957e-07
-3.13336e-08
2.60199e-08
-8.45541e-07
4.36508e-06
1.32401e-08
2.71958e-06
-2.40624e-08
-1.79684e-08
2.82874e-08
-6.48475e-08
-0.0145444
5.30993e-08
1.02847e-07
5.25932e-09
-0.000908102
3.00132e-06
1.84971e-08
2.23624e-08
-1.10055e-07
-0.00031485
-1.5804e-05
-0.00111884
4.24456e-06
-2.75324e-06
9.91506e-07
2.62079e-06
-1.88641e-07
-0.000237465
2.99134e-08
-3.87665e-08
-5.84886e-08
7.98681e-06
8.52029e-08
7.34489e-05
-1.19166e-08
1.36915e-07
0.000681855
1.08215e-08
5.97081e-08
2.42813e-06
1.38941e-08
3.06823e-08
2.79093e-05
-1.28931e-06
-3.90485e-08
0.000235941
-9.80888e-08
0.000737128
-0.00549001
-2.61753e-09
0.000288213
-1.08857e-08
-5.36887e-08
1.70691e-08
1.70497e-08
-0.00257455
2.33048e-07
3.00295e-09
7.00203e-08
-0.000144397
-1.51206e-08
-0.00657672
-0.0044711
1.60682e-09
2.83146e-08
-2.70187e-08
-0.0134934
-6.79784e-07
-4.33771e-07
-1.96977e-07
9.58325e-06
3.82781e-09
-8.42614e-08
1.06347e-08
-3.92371e-08
3.24099e-08
4.41476e-07
0.00895917
2.94356e-07
8.31677e-07
-0.000382136
3.69449e-08
-0.000105008
-1.29615e-07
1.74009e-07
6.65938e-09
-1.54502e-08
-3.9618e-08
3.54636e-08
3.20155e-08
-0.000131969
3.96878e-07
-0.0030855
3.10305e-07
8.59336e-07
1.3652e-07
1.02759e-06
-0.00154001
8.30336e-08
-3.81171e-08
3.83847e-08
-0.00196448
-0.00451415
-3.46616e-08
4.27799e-07
5.90073e-09
0.000221389
-7.20083e-08
-3.56071e-08
-3.40035e-07
3.42041e-07
2.10498e-08
-1.15826e-06
-0.000555037
3.5482e-09
0.000896089
-0.00179976
0.00264194
-0.000158465
-2.38318e-07
0.000623989
5.03425e-07
-3.1084e-06
0.000173186
6.70398e-08
8.76205e-08
1.10645e-08
5.9006e-09
-0.00107583
1.6196e-07
0.00297365
5.18853e-08
5.56994e-08
-0.00592453
2.41748e-08
-0.00131345
-6.46991e-08
-1.52632e-05
-9.10156e-08
-4.02625e-09
0.00177618
1.18205e-07
-1.11865e-06
1.78799e-08
-8.05636e-09
-1.47673e-06
3.79496e-06
2.67881e-08
1.4744e-08
3.12535e-05
-2.40815e-06
-1.99026e-06
-6.91486e-10
-2.96182e-08
1.58485e-08
-7.75935e-08
-1.51132e-09
1.933e-07
4.85834e-08
-0.00136436
-1.26621e-08
3.05768e-08
7.37788e-08
0.00151844
-1.11829e-06
-8.10262e-08
3.48707e-08
1.35727e-07
6.5887e-07
-1.35776e-06
-3.41545e-05
0.00232373
2.95709e-08
-2.39243e-07
-1.42848e-05
4.1875e-08
-4.31093e-08
-0.00145607
3.32023e-08
1.16874e-06
0.00678228
7.53342e-05
-3.33221e-05
0.00071547
-4.18615e-07
2.23946e-08
0.00560963
1.64144e-08
-6.6977e-07
1.04066e-07
1.15451e-07
1.1668e-06
7.20321e-08
-5.40898e-08
-1.93635e-07
-0.000201171
-1.76014e-07
2.1685e-08
-1.78668e-07
0.00172742
1.68114e-06
-0.000238338
-7.28908e-08
0.000446836
2.23375e-08
5.4991e-07
9.01964e-07
6.2454e-08
-0.000406385
-1.84883e-08
2.00875e-08
5.09539e-10
1.12742e-07
0.00297629
-1.37542e-06
3.04459e-10
0.00253926
1.81564e-08
-0.000321609
3.41569e-08
0.000586493
-8.16794e-08
1.34939e-06
-9.60434e-09
8.95787e-08
5.01059e-08
1.41764e-08
5.8389e-06
-4.16457e-07
1.75565e-08
-2.90062e-07
0.000491379
0.00203561
-6.79056e-07
-0.00374114
-0.00506189
8.20983e-08
0.000199228
2.8364e-08
8.39393e-06
3.74622e-08
-6.95611e-09
4.23541e-08
2.26475e-07
0.00796301
3.84081e-07
4.65814e-07
-0.000728043
-1.6623e-05
-1.31005e-06
-0.00114342
-2.16208e-09
3.02264e-07
-0.000387702
1.44376e-08
-2.08258e-07
-0.00484586
1.32997e-06
-1.89848e-08
-0.00588008
1.34912e-06
0.00101759
0.00105565
-1.32182e-07
-2.50485e-06
-5.18084e-08
1.15688e-07
3.33594e-08
-0.00037972
1.93964e-06
1.30854e-05
1.93184e-06
1.54158e-08
0.000953885
3.50637e-07
2.05374e-08
6.79257e-08
2.08655e-07
-1.1347e-07
-3.59572e-09
1.05765e-09
-0.000788661
8.70535e-11
1.89258e-08
-4.48257e-05
4.94284e-08
-3.86466e-10
0.00209358
3.57414e-08
-4.64163e-07
3.84723e-08
-7.63551e-07
2.28614e-06
1.63403e-08
-2.5387e-06
-7.96248e-08
1.20007e-07
-1.31793e-07
-1.01044e-07
-7.75723e-06
-1.07081e-05
-1.1041e-07
0.00156487
1.74183e-06
3.08236e-08
7.14172e-06
-0.00560263
-1.07911e-06
3.10049e-08
3.0114e-08
7.85565e-06
1.73986e-07
-0.00885913
1.41282e-06
-1.17662e-07
0.000445615
-1.13543e-07
3.07634e-06
-0.00153771
1.08407e-07
1.42642e-08
2.99544e-08
3.415e-08
-0.00221663
-1.60915e-05
-4.27276e-08
3.08484e-06
0.000154014
5.99099e-08
-5.36314e-08
1.91166e-09
-1.66834e-08
5.14883e-08
-2.6078e-10
-0.0101498
5.69559e-08
1.16034e-06
1.95788e-08
2.61216e-08
2.83962e-09
-1.68352e-07
7.03541e-09
-1.21179e-07
5.203e-08
-7.50973e-08
0.00321469
-0.000205129
9.76718e-07
0.0015441
-3.31062e-08
-7.51768e-08
0.00309723
8.36155e-07
-0.00130994
-4.53082e-07
-6.46422e-09
8.41805e-08
8.99022e-09
-6.75281e-08
2.92361e-08
-7.12854e-07
-1.99022e-06
0.00196884
6.94518e-07
-6.80645e-05
7.63056e-08
7.23309e-08
3.5608e-08
-1.88084e-06
-0.000414636
2.93854e-06
-1.3113e-05
5.86395e-08
0.000336617
6.14462e-08
2.27459e-08
-2.91519e-08
7.07195e-08
-4.29617e-05
-6.17171e-08
-1.60852e-06
5.13424e-08
4.39984e-07
1.55378e-08
0.00868404
-6.92734e-08
-2.28238e-08
1.2872e-07
5.14844e-08
8.55318e-07
-1.46751e-06
0.00252952
1.21827e-07
4.3252e-08
0.00239873
6.57474e-08
-5.2417e-08
-3.38107e-07
2.68836e-08
-1.14957e-07
1.72177e-08
-0.000493654
-9.69906e-08
2.78788e-07
-2.55e-08
6.94726e-08
-0.00166731
4.41464e-08
-2.96982e-08
-1.10928e-09
-1.20972e-07
4.06369e-08
1.05691e-07
-1.12271e-07
-2.36473e-09
-9.36606e-08
5.08986e-08
-7.93682e-08
-4.43277e-06
0.00211479
4.53187e-08
-7.44566e-07
-0.000445413
3.49662e-08
6.66961e-09
-6.14078e-08
-1.93659e-06
1.10335e-07
1.15102e-07
-0.00151947
1.08751e-07
-0.00377939
0.00202963
-6.8832e-08
2.97425e-08
-1.25147e-07
2.26679e-08
-0.0105728
-0.00286401
0.000395852
-7.97196e-08
-8.60798e-08
6.48522e-09
3.60993e-06
6.53913e-08
6.98064e-06
4.37882e-09
-1.97115e-06
-0.000330095
-3.14878e-06
-1.072e-08
0.00464588
-0.000347072
0.0019784
4.13354e-08
6.62348e-08
-0.00155307
2.21534e-06
2.5852e-08
2.62648e-09
2.70283e-06
2.22041e-08
1.69216e-05
3.62544e-06
4.40842e-08
2.90652e-08
-0.000234009
-1.0601e-06
3.9719e-08
2.25969e-08
-1.02637e-07
4.11885e-09
8.91242e-06
-1.93792e-08
-6.45491e-08
1.09022e-07
1.6668e-07
3.58238e-08
7.35533e-07
2.07755e-08
1.40669e-08
-0.00628979
-0.000428337
0.00154811
8.80852e-08
9.45688e-08
-3.10221e-06
8.73741e-09
8.09158e-08
-3.82218e-07
3.46267e-08
7.50383e-08
-0.00730984
1.00591e-07
-4.92498e-08
-2.469e-08
5.88326e-09
-0.000230142
-0.00340738
3.05156e-08
-6.0933e-08
2.40918e-08
-2.06621e-06
-4.6944e-05
4.75984e-08
-6.35572e-09
9.64116e-09
7.11572e-08
-1.09335e-08
3.23263e-05
-0.000194796
7.82035e-08
4.22508e-05
0.00299948
1.14316e-08
4.68989e-08
-3.46938e-08
-1.17713e-07
1.66071e-07
-1.44746e-08
-6.59835e-09
-4.526e-06
1.41267e-08
3.72575e-06
4.10948e-08
1.40949e-07
-7.82145e-08
-0.00375024
9.23379e-08
8.90465e-08
6.36212e-06
2.83452e-07
0.00316421
0.00118656
-2.20117e-08
2.08438e-05
-0.000460321
-3.92831e-06
-1.04236e-08
7.12219e-08
2.6394e-08
0.0289531
-1.75247e-07
-8.37889e-09
-1.06645e-07
-1.81672e-08
2.64465e-06
-0.000935098
3.0629e-08
1.56318e-08
4.76511e-08
3.62942e-06
0.000976561
1.32006e-08
8.99017e-08
5.46343e-08
8.58576e-08
1.25465e-08
-0.000542912
3.63207e-07
-5.9678e-08
-1.16948e-07
-0.0067563
3.80719e-09
2.70916e-08
-1.01193e-07
2.34376e-06
-3.33269e-08
1.03507e-08
-1.15783e-07
0.00607132
-1.11962e-07
-1.33476e-08
2.0524e-08
5.07762e-08
1.50148e-05
1.6055e-08
-1.7273e-08
-0.000358189
0.00325519
1.08696e-07
3.02121e-09
-1.33765e-06
-1.24152e-07
3.18974e-07
-6.70942e-08
0.000450744
3.64896e-08
1.16659e-07
-1.16882e-07
0.0030625
4.77633e-05
-5.66954e-06
-3.31658e-07
-0.00103608
0.000764183
-0.00681496
-0.0149435
-4.0428e-08
-3.62587e-08
5.07229e-08
-5.12557e-08
-2.05544e-08
-7.20232e-08
5.80037e-08
-5.60531e-07
9.74243e-08
0.000834506
-9.77536e-08
-0.00272577
3.00039e-08
0.000363767
-1.66634e-08
-8.72609e-08
5.11854e-08
6.79971e-08
2.55135e-07
7.79154e-05
8.30429e-08
5.23517e-09
-9.22421e-08
-0.00160338
2.75621e-10
-3.21626e-07
-4.11078e-09
1.42911e-07
-0.000822412
1.84363e-05
-4.27346e-07
-1.25124e-07
8.4517e-06
-4.36688e-08
0.000233846
-0.00036011
3.01201e-08
0.0016808
0.000200862
1.21049e-08
2.04643e-09
2.13237e-07
-1.03525e-07
1.03913e-07
4.93728e-08
0.00010034
-2.28774e-07
6.16053e-08
3.76743e-08
3.29676e-08
1.4225e-08
-0.000286401
0.00114432
-0.000187197
-1.04081e-07
-0.000363537
1.19034e-07
0.00582772
-3.8743e-08
2.06682e-06
2.63127e-08
4.58597e-08
-0.000614484
7.97017e-08
3.03942e-06
8.51013e-08
1.40636e-09
-0.00123041
0.0151282
3.20754e-08
0.00292291
2.72649e-08
0.00150057
3.15032e-08
-0.0013457
-0.000356144
-1.37183e-08
-0.00232132
-9.57274e-08
0.00178922
-3.62204e-08
-4.94772e-08
1.23664e-07
-3.18104e-08
2.68668e-08
-5.77796e-06
2.34969e-08
-0.00152676
6.03857e-07
-0.00353854
-1.31806e-08
5.33331e-08
0.00211311
1.62717e-08
-2.72126e-08
1.72926e-08
5.43898e-06
-4.22512e-08
-2.91729e-08
-0.000249387
8.60488e-08
-2.09998e-08
-7.68103e-08
1.3113e-07
-0.00474521
5.46258e-08
3.25504e-08
0.00155097
-0.00111327
1.61813e-05
2.7914e-08
3.6255e-07
1.07312e-06
-1.60629e-08
-1.06272e-07
-8.30432e-08
2.93799e-08
2.24465e-08
-4.33246e-08
-1.09072e-07
-8.41556e-08
-0.000783787
-3.47192e-06
3.6714e-06
1.18889e-09
-1.19334e-08
-0.00380138
-4.48051e-07
-3.09881e-08
-7.14078e-08
0.00459423
0.00271195
-2.12341e-08
-0.00447185
2.43084e-07
-7.06297e-06
5.03751e-10
-0.000989313
3.77625e-08
1.39313e-07
1.89399e-08
3.33172e-08
8.26622e-08
0.00175649
4.65489e-08
0.00192416
2.16348e-06
-2.79901e-05
-0.00486169
2.05737e-08
-3.77846e-08
-0.00553389
-1.17762e-07
-1.10262e-05
-1.74165e-08
-6.63007e-06
9.65145e-08
0.00139858
0.00164455
-0.00303516
1.37042e-08
-0.00011835
-0.00128664
-0.00455876
9.48376e-06
5.4132e-07
2.97897e-07
9.57585e-08
-5.37622e-06
0.000146828
-1.0136e-07
-0.00429375
2.76661e-08
6.45493e-09
-2.47674e-07
0.000601593
-1.8318e-09
-0.000647033
2.86148e-08
0.0129986
-3.90584e-07
-2.06605e-07
3.83195e-08
-1.73562e-07
2.29581e-05
5.5447e-09
-2.54051e-07
-4.71562e-08
7.56857e-06
-4.84562e-10
-1.44653e-10
0.000207862
0.00125487
6.13077e-08
-0.000482334
-3.74649e-09
1.30424e-08
-0.00206336
-0.0017164
1.95053e-08
9.086e-05
5.07271e-08
8.39973e-09
-3.3323e-07
0.00155117
1.2576e-07
-0.00779299
-6.16299e-10
-4.90451e-08
-0.000247398
-5.33992e-08
-1.33218e-06
2.1432e-08
-5.56338e-07
1.87235e-08
-0.000266193
7.21017e-08
-3.30224e-08
2.95624e-08
2.81327e-08
1.68339e-05
0.00265502
-2.99268e-07
0.0146702
-9.22269e-08
-0.0049376
0.0107645
-0.00432873
-5.66698e-09
-0.00246048
0.00275686
1.4597e-05
8.64864e-07
1.01239e-07
3.80175e-09
-3.87648e-08
-0.0650837
-5.25619e-08
-3.07365e-08
-0.000473252
5.83368e-09
0.00182059
2.30287e-08
-0.0142447
7.24861e-08
5.76352e-09
5.06249e-07
4.63239e-08
-1.05311e-06
5.28058e-08
-4.82302e-08
1.17035e-07
0.000280492
2.13441e-08
-2.82105e-09
0.00295788
-0.00175192
-6.64403e-11
-1.18164e-07
-6.68906e-08
3.16118e-08
-0.00011329
0.00171265
0.00145277
1.60744e-06
-0.000388135
-0.00673503
9.67939e-06
3.4376e-08
2.68275e-08
1.18715e-07
1.11684e-08
-6.33523e-08
-0.000303802
-0.00204587
2.2341e-08
-8.09051e-08
4.41225e-08
0.000288564
0.00540655
-0.020223
0.00422899
5.60857e-08
0.00102873
-0.00079217
3.94191e-08
-0.00124086
-3.16696e-07
-5.97468e-08
0.000493621
0.00192854
-0.000329255
-3.63395e-09
1.32947e-08
1.33276e-07
5.10966e-05
8.21859e-08
8.99732e-08
6.56485e-09
3.68677e-08
1.90678e-09
-0.00182839
6.98795e-08
4.93701e-08
-0.000393979
1.91886e-08
0.00159003
-9.14893e-08
0.00116018
1.82942e-05
2.81428e-08
0.00216212
4.08897e-06
-3.13117e-05
1.32271e-07
-8.78235e-08
2.70377e-08
2.86711e-08
-0.00035029
8.41716e-07
5.23595e-09
-5.53759e-08
1.294e-08
8.10769e-06
-1.10371e-07
1.78509e-08
2.98173e-08
-2.2274e-08
0.00136613
2.55806e-08
-0.0073145
0.000416533
6.31746e-08
2.66905e-08
0.00159041
-2.51798e-09
9.52568e-09
-8.26037e-06
2.46625e-09
-6.85365e-08
4.3589e-07
2.31751e-06
0.000656692
-6.52903e-08
4.48622e-08
1.1365e-07
0.00180929
0.000324565
7.59053e-08
-4.56822e-07
4.33881e-09
-4.22121e-09
-8.20865e-08
3.24314e-08
-9.01071e-07
-1.14907e-07
5.50849e-08
-5.75109e-08
2.39373e-08
3.71781e-08
-8.7848e-09
-4.91039e-08
8.33084e-06
0.00384877
0.0106911
1.42668e-08
-0.0100257
-3.3832e-05
-5.71597e-08
-0.000385092
0.00553724
-0.00970102
2.69646e-09
2.23177e-08
2.5619e-06
-0.0305669
-6.67554e-06
-8.79839e-09
0.00611598
2.05607e-08
-7.48546e-08
-0.00495717
2.10771e-08
-4.10627e-06
1.6235e-06
2.26189e-08
-0.000433117
-0.0034107
4.00462e-09
-2.00111e-05
-0.000178604
-9.82925e-07
1.03496e-05
7.89263e-08
0.00180495
-2.70333e-06
-0.00214598
2.23477e-08
-1.83287e-06
-0.000138222
4.67942e-08
-4.38714e-07
3.89984e-08
4.49235e-08
1.24438e-07
-0.000260297
0.000118956
-1.52322e-08
3.76991e-09
5.63194e-08
-0.000245601
4.869e-08
9.59286e-08
4.96205e-08
-0.00438417
-6.01183e-08
2.26644e-10
-4.21424e-07
-8.79453e-06
1.15305e-07
8.33868e-06
-1.76035e-06
-1.61488e-08
-6.2419e-06
1.02222e-07
-4.79019e-08
8.62397e-09
-1.17594e-08
-1.22915e-07
0.00186396
5.28052e-06
-9.52442e-10
-0.00174678
-0.000478921
-2.07037e-06
-0.000325006
-5.02943e-07
3.6888e-08
0.00086431
2.20326e-08
3.7728e-09
-2.84025e-07
2.86648e-07
3.59063e-08
4.06385e-08
1.75398e-08
-7.03942e-07
-0.00197251
-0.000190593
-0.00361786
2.70029e-08
8.50439e-08
-5.6477e-08
6.31909e-07
0.000934121
1.59636e-08
-0.00581996
1.03836e-07
-0.000543056
5.06919e-10
0.00104927
2.50531e-08
-0.00196395
-0.00177883
1.00736e-06
0.00209374
-5.00877e-07
1.65721e-08
1.32471e-07
-0.00017835
-0.000507963
-1.01473e-07
6.101e-09
2.99078e-08
6.15131e-08
-1.18133e-07
-1.73758e-09
8.70247e-08
2.61266e-08
6.73767e-08
2.72445e-09
0.00067376
8.23537e-09
6.01856e-05
4.79937e-08
1.30747e-06
-0.00200878
1.12129e-07
-0.013406
2.57586e-08
-1.06005e-07
-4.97845e-09
-3.39973e-09
4.51298e-10
-3.94416e-05
1.12975e-06
8.38856e-08
-4.61426e-10
-3.01001e-08
-0.00638053
-1.13962e-07
-2.56344e-05
6.74786e-06
6.56581e-09
-1.62645e-07
1.06554e-07
1.23234e-07
-4.39284e-07
1.05248e-08
3.59059e-07
-0.00247713
3.09033e-08
0.000373577
-8.95091e-09
2.32153e-09
5.26381e-08
0.00086419
-4.61372e-09
0.00279992
7.6494e-07
-3.29446e-10
-0.00053091
1.12719e-06
-0.00187312
2.04388e-08
4.72743e-08
2.51639e-08
3.68718e-08
-0.00207432
1.26818e-08
-1.12021e-07
-6.44066e-09
-6.13313e-06
-1.74882e-06
0.000529061
-0.00195908
-0.00188158
-7.6784e-08
-6.15106e-05
-1.36949e-09
0.000319546
6.30844e-05
-9.67188e-08
6.88342e-06
-8.06148e-07
1.4445e-08
-2.17223e-08
1.25692e-09
6.8141e-08
9.20652e-08
-6.50987e-08
0.00132828
-7.74243e-06
-6.23646e-06
-0.00634124
2.2355e-08
0.00638757
3.5094e-08
-6.6844e-09
-2.16032e-08
0.00227238
2.37851e-08
5.15236e-05
-7.78089e-07
-4.27082e-06
-0.000374666
-4.64214e-08
-2.45397e-07
-0.000292879
-7.99081e-09
4.76275e-08
-8.0939e-06
-5.79618e-08
1.38188e-08
5.28411e-09
1.07662e-05
-0.00172308
-1.20061e-07
1.20772e-08
-0.00318649
-0.00225523
9.99574e-10
1.62631e-09
0.0117153
0.00224945
1.32206e-07
-1.62614e-05
6.13971e-07
-2.96857e-08
-1.34665e-07
5.3258e-08
-0.00517078
2.43014e-08
0.000516586
-0.00189675
-0.000819047
-7.51446e-08
-2.86141e-08
-2.12364e-08
2.61566e-08
-0.000355151
8.34808e-09
0.0011242
-0.00552491
9.59328e-08
2.01076e-08
4.79943e-08
1.34889e-05
-6.30235e-07
-2.24291e-06
0.00696666
6.18381e-07
-0.00069069
8.20721e-09
0.000185867
4.22985e-06
-1.86153e-08
-1.95508e-05
0.000777034
0.00143088
5.39526e-08
-8.12597e-06
5.14024e-08
-0.00935311
3.54578e-06
-7.49669e-05
4.91033e-08
1.41449e-07
2.30572e-08
-2.126e-05
-0.00187704
1.1426e-07
1.13199e-07
0.00248233
-0.00276289
1.32453e-07
0.00187542
0.000312313
-0.000806217
-3.10875e-11
0.00126747
6.13873e-09