/*--------------------------------*- C++ -*----------------------------------*\
| =========                 |                                                 |
| \\      /  F ield         | OpenFOAM: The Open Source CFD Toolbox           |
|  \\    /   O peration     | Version:  v2012                                 |
|   \\  /    A nd           | Website:  www.openfoam.com                      |
|    \\/     M anipulation  |                                                 |
\*---------------------------------------------------------------------------*/
FoamFile
{
    version     2.0;
    format      ascii;
    class       surfaceScalarField;
    location    "300";
    object      meshPhi;
}
// * * * * * * * * * * * * * * * * * * * * * * * * * * * * * * * * * * * * * //

dimensions      [0 3 -1 0 0 0 0];
oriented        oriented;


internalField   nonuniform List<scalar> 
27274
(
0.000322451
-0.000455494
0.000133276
2.48369e-05
-0.000114909
9.00724e-05
0.000620815
0.000141904
-0.000759034
-0.000556639
2.52455e-05
0.00055036
-0.000315841
-0.000295995
0.000614134
-0.000141801
-0.000151916
0.000293776
0.000417763
0.000189979
-0.000596676
3.07669e-05
0.000259668
-0.000290347
-0.000393339
-0.000153938
-0.000100338
0.000124444
-2.41063e-05
7.14727e-05
0.000540822
-0.000601309
-8.91961e-05
-3.72001e-05
0.000126396
-0.000283689
0.000117468
0.000166245
0.000591332
-0.000684722
9.38589e-05
0.000804064
-0.000320202
-0.000481178
-0.000533708
0.000342744
0.000191451
0.00010657
-0.00012166
1.50902e-05
-0.000924286
0.000477879
0.000457046
0.000159006
0.000445289
-0.000602245
-1.9563e-05
-0.000109933
0.000129498
-0.000417329
2.59695e-05
0.000391605
-0.000731968
0.00043636
0.000296321
0.000124708
-0.000122654
-2.05405e-06
0.00022645
-0.00054021
-0.000185451
0.000527292
0.000343638
-0.000482603
0.000142835
8.50216e-05
-0.00051243
-0.00042458
-4.6204e-05
0.000470906
0.000101367
3.57223e-05
-0.000137089
-0.000678601
0.000851819
-0.000170785
-0.000662055
1.88257e-05
0.000646378
0.000289456
-0.000664878
0.000376952
-0.000532036
-0.000379643
-8.89876e-05
3.55825e-05
8.86966e-05
-0.000327083
0.000293109
3.40499e-05
-4.7809e-05
0.000370451
-8.89819e-07
-0.000486554
0.000198418
5.68275e-05
-0.000255229
4.78384e-05
-0.000472376
-7.12521e-05
-0.000545165
0.000626786
0.000675971
-8.41687e-05
0.000146048
9.17192e-05
-0.000237748
-3.33114e-05
0.000657652
6.72979e-05
-0.000124485
5.71875e-05
3.57826e-05
8.48512e-05
-8.60956e-05
-7.19253e-06
0.000205622
-0.000243051
-6.41652e-05
0.000307307
-0.000530933
0.000437879
9.31704e-05
0.000205862
0.000154691
-0.000360437
-2.84582e-05
0.000536614
-0.00049942
0.000302508
-0.0005839
0.000294446
-0.000808231
0.000682951
0.000129853
-9.97019e-05
0.000102005
-1.73057e-06
0.000135491
-4.25126e-05
-9.2978e-05
0.000578361
-0.000217806
-0.000354713
3.09075e-05
2.32437e-05
-3.49064e-05
-0.000267935
5.49037e-06
0.000262498
0.000309156
0.000496834
0.000138136
-5.92902e-05
-7.88459e-05
0.000282095
-0.000103974
-0.000178099
-0.000500074
0.000479945
0.000214681
0.000113335
-0.000327923
-0.000732272
0.000280625
0.000462025
0.000351211
-0.000178057
-0.000173074
-0.00011321
2.40144e-05
-0.000283479
-0.000171744
0.000125928
-6.62041e-05
-5.97237e-05
-0.000248929
-0.000111985
0.000360946
-0.00050578
-0.000420904
-0.00031038
0.000188636
0.000106024
-0.000294606
3.79522e-06
4.87095e-05
-4.86133e-05
0.000110002
0.000172112
-0.000171925
-0.000457062
0.000638212
-0.000281227
0.00031209
0.000612693
-0.000186205
4.11755e-05
-0.00015237
0.000111195
-0.00037861
-0.000179919
0.000559955
-0.000488947
0.000352356
0.000137166
0.000588241
-0.000707028
0.000124037
-0.000466559
0.000668459
-0.000198982
0.000172493
2.64925e-05
6.18664e-05
-0.000478843
-0.000174124
0.000305736
-0.00013154
0.000495538
-0.00014866
-5.83408e-05
-0.00022532
0.000138362
-7.37697e-05
-6.45925e-05
0.000129938
-0.000149499
0.000145529
-4.41619e-05
-0.000115827
0.000140653
-2.48251e-05
0.000207196
-2.0846e-05
-0.000186341
-9.56306e-05
0.000177954
-8.81077e-05
0.000484626
-0.000391851
-0.000664831
0.000546771
0.000134956
0.000131727
-0.000131727
1.08216e-05
0.000113887
-0.000127199
-0.00042504
0.000556907
-0.00043447
-5.40358e-05
0.000489144
4.18873e-05
9.36038e-05
0.000100898
1.71743e-05
-0.000118072
0.000106862
-0.000122291
1.54293e-05
1.71575e-05
9.09123e-05
-0.00010807
0.000248518
0.000207795
-0.000456169
-4.71357e-05
0.000188268
-0.000141129
-0.000194532
-0.00037678
0.000573299
-0.00027036
3.52974e-05
0.000235097
-5.40707e-05
-5.57439e-05
0.000109815
0.000248998
-0.000174463
-7.45192e-05
-0.000498589
0.000311794
0.000187047
-0.000109479
-0.000103526
0.000262505
-0.000729839
0.000469807
0.000392624
0.000126284
-0.000518782
0.000270412
-0.000454777
0.000185689
0.000575918
-0.000183191
-0.000120142
0.000153091
-3.29482e-05
-9.32353e-05
-1.38961e-05
0.00012998
-7.23291e-05
0.000105141
-3.28118e-05
-0.000103388
0.000144565
9.62838e-05
-0.000107076
1.07923e-05
-0.000116107
0.000364752
-0.000124029
2.36908e-05
-0.000171998
0.000161762
1.02393e-05
0.000195803
-0.000573045
-8.03734e-05
0.000269054
-0.000562924
0.000440448
0.00012247
0.000126541
-0.00069285
-0.000109528
-0.000146049
0.000129842
1.51613e-05
-0.000208197
8.47586e-05
0.000123441
-7.419e-05
-0.000571606
-0.000298319
0.000613693
-7.16912e-05
-0.000102037
0.000173731
0.00035456
-0.000101627
-0.000252815
0.000101579
-0.000535394
0.000189694
0.000120855
-0.000310497
-0.000129803
-1.46848e-05
0.000459947
-0.000905971
0.000448998
-0.000417665
0.000498264
-0.000599732
0.000849864
-0.000248503
0.000226871
4.97131e-05
-0.000276548
8.44787e-06
9.84137e-05
-0.000101136
-1.41902e-05
0.000115326
-0.000567152
0.000631823
-6.3329e-05
-0.000294015
0.000558515
8.99329e-05
8.48541e-05
-0.000174787
-9.84132e-06
0.000569375
-0.000558808
0.000203035
-0.00046425
0.000261207
0.000109086
-0.000138582
2.94964e-05
-0.000605853
0.000132243
0.00047459
-4.17129e-07
0.000109503
-0.000683304
0.000587256
9.85108e-05
0.00042707
-0.000246883
-8.01479e-05
5.90914e-05
7.90448e-05
-0.000301185
-1.13105e-05
0.00031257
-7.25643e-05
4.91761e-05
2.56615e-05
9.30562e-05
-0.000164745
7.7508e-07
9.55087e-05
-3.93542e-05
-3.12726e-05
8.02925e-05
-0.000320756
0.000240542
-0.000529378
0.000296125
0.000233538
0.000572351
-0.000229549
-0.000342128
-0.00021101
0.000385634
-0.000174528
-0.000368487
0.000470636
0.000244644
-4.62862e-06
-0.000239996
-8.76483e-07
-0.000130527
0.000131403
0.000158178
-3.76152e-05
-0.000120562
0.000249942
0.000137846
-0.000387651
3.63115e-06
0.000179876
-0.000183496
-0.000476934
-0.000179946
0.000665355
0.000174744
-0.000158854
-1.58896e-05
-0.000136086
5.28574e-05
8.32287e-05
0.000683863
-0.00041018
-0.000259905
-0.000591675
0.000671767
-6.77784e-05
-0.000361595
-0.000171579
-0.000135413
8.47244e-05
5.06881e-05
0.00023257
0.000144985
-0.000377425
0.000374257
-0.000537326
0.000167066
-7.00959e-05
-0.000138098
0.000155582
-0.000106525
-4.90569e-05
-0.000157657
0.000278409
-0.000120755
-0.000141151
0.000144791
-0.000397912
-5.52538e-05
0.000453598
0.00023784
0.000302616
-0.000527702
0.000114419
-0.000250586
0.00013618
0.000120095
2.73071e-06
-0.000122826
0.000152509
-1.36582e-05
-0.000138851
0.000227384
-2.38916e-05
-0.000203479
0.000596576
-0.000468465
-0.000128049
-2.39445e-05
0.000130514
-0.000294314
-0.000719695
0.000624166
9.8984e-05
0.00012605
-0.000493954
-0.000211598
0.000134906
7.66955e-05
-6.80852e-05
-0.000227787
0.000295913
-5.29853e-05
0.000531021
-0.000477338
-2.73772e-05
0.000158991
-0.00013161
0.000101676
-0.000499135
-0.000239126
-0.000126411
0.000365735
0.000104283
8.94534e-05
-0.000487537
0.000399363
-0.00030644
0.000536288
-0.000229629
-0.000147832
1.62824e-05
0.00013155
3.94093e-05
0.0001131
7.32416e-05
-0.000128032
5.479e-05
0.000224482
0.00019764
-0.000421857
4.39293e-05
-0.000116258
-0.000167679
6.85349e-05
9.91447e-05
-0.000151653
4.41814e-05
0.000107472
0.000188594
-0.000427495
-1.90885e-05
0.000481583
-0.000564317
-0.000116804
-2.33261e-05
0.000144841
-0.000121513
4.31655e-05
-0.000608806
-0.000698716
0.000233165
-3.8617e-05
-0.00016036
0.000232659
-8.03279e-05
-0.000152324
0.000106614
-0.000196093
0.000466284
-0.000537508
-6.71585e-05
0.000232342
-0.000165575
-6.67611e-05
0.00081622
-0.000639411
-0.000174428
-0.000334664
0.000160629
-0.000355566
-0.000546703
0.000140097
1.80818e-05
-0.000677929
0.000152016
0.000526975
-0.00014936
5.05991e-05
9.87609e-05
0.000121679
-0.000118427
-3.25162e-06
9.65292e-05
0.000108019
-0.000204548
0.000582488
-0.00059839
-7.99467e-05
-1.91014e-05
-0.000352871
-0.000135448
-0.000330577
0.000524106
-0.000193114
-1.84479e-05
-0.000130912
-0.00057381
0.000567295
7.60939e-06
0.000358276
-0.000482977
0.00012822
0.000421419
-4.29578e-05
-0.000161791
0.000223794
-6.19927e-05
-3.67833e-05
-0.000136385
0.000173173
-3.6421e-05
-0.000230866
-0.000267371
0.000166209
7.89041e-05
-0.0002451
0.000599525
-0.000197984
0.000171496
-0.000764056
0.000603701
0.000592815
9.71074e-05
-0.000688964
1.71762e-05
0.000104502
-0.000199119
3.74597e-05
0.000161662
-0.00011402
3.55512e-05
7.84692e-05
3.94051e-05
-0.000340509
-0.000311871
-0.000217172
0.000495832
-0.000405126
5.98997e-05
3.64225e-05
-9.63222e-05
-0.000335335
0.000437408
-2.03054e-05
-0.000131347
-0.000289009
0.000583354
-0.000293109
-2.82898e-05
0.000125728
-9.74383e-05
-4.76265e-06
0.000185638
-0.00018087
-0.000230494
0.000310859
-0.000710636
0.000607398
0.00010533
4.7205e-05
3.78646e-05
-5.62265e-05
0.000159293
-0.000442515
-0.000326528
0.000135419
0.000191155
4.09042e-06
-0.000151922
0.000246319
0.000108347
-0.000610243
0.000270956
0.000354129
0.000501347
0.000155978
-0.000646824
-0.000142852
5.85561e-05
8.63167e-05
2.38335e-05
0.000156053
-0.000262608
0.000248405
1.42254e-05
-0.000113653
-0.00013198
0.000245632
0.000298827
0.000255725
-0.000553879
5.69286e-06
-8.4447e-05
7.87543e-05
6.91722e-05
0.000158222
-1.5315e-05
-0.000255014
0.000454921
-0.0007016
0.000248607
0.000153997
-0.000181371
0.000780617
-0.000187117
-0.000161327
0.00062983
-0.000465839
0.000175663
-0.000115911
-5.97516e-05
3.16409e-06
9.19136e-05
-6.73312e-05
8.30862e-05
0.000537421
7.0032e-05
-0.000284904
0.000214909
-0.000587869
0.000778755
-0.000186076
3.03864e-05
-0.000116408
8.60213e-05
0.000124005
-0.000458935
-0.000257971
-0.000223927
0.000481952
-6.69799e-05
9.92841e-05
-9.63792e-05
0.000346441
-0.000124283
0.000117734
6.54884e-06
0.00048642
-0.000613266
7.61786e-05
0.000741223
-0.000134228
-0.000607305
0.000271105
-4.23708e-05
-0.000228708
-0.000103523
-2.03277e-05
0.000123851
-9.72537e-05
-4.5187e-05
7.54163e-06
7.90045e-07
-6.70968e-06
0.000125601
0.000107062
0.000109882
-0.000302499
0.000192701
-0.000366019
5.92041e-05
0.000306893
7.87876e-05
-0.000175974
9.71889e-05
0.000488872
-0.0006473
-0.000220452
0.000677173
-0.000545515
-0.000131168
1.38325e-05
-3.45866e-06
-0.000122423
0.000201213
6.82918e-05
0.000176368
0.000298238
-0.000106097
-0.000192125
9.19734e-05
0.000179155
-0.000598538
0.00054163
-0.000228415
7.07556e-05
0.000630231
-0.000553964
0.000690967
-0.000529691
-1.27678e-05
-0.000186347
-0.000283763
0.000792582
-0.000505332
0.000190054
-0.000114745
0.000260812
-0.0004563
0.000372297
0.000185198
-0.000563869
0.000394966
-0.00010144
0.000180354
-3.66332e-05
9.49705e-05
-5.83372e-05
-4.1657e-05
-0.000126022
-0.000364414
0.000593533
-0.000227385
-0.000431104
0.000220207
-5.02456e-05
0.000117544
-3.77133e-05
0.000590915
-0.000548428
-0.000197703
0.000160926
0.000425814
0.000112954
-0.00053806
-0.000169672
0.000409565
-0.000239771
-3.95754e-06
-0.000193739
-4.283e-06
-0.000575424
-9.80956e-05
9.72194e-05
0.000539786
-0.000669012
0.000131302
0.000343859
-0.000154115
-4.61321e-07
-3.4729e-05
4.92894e-05
-0.000326531
-9.05365e-05
0.00010323
-1.26935e-05
-8.27191e-05
0.000124408
-4.16184e-05
8.35122e-05
7.20706e-05
-0.000278217
-0.000100852
0.000379301
1.97346e-06
0.000527182
-0.000528332
-0.000371142
0.000128196
0.000350145
-0.000135378
4.49573e-05
0.000112231
-0.000157186
0.000150092
-2.31046e-06
-0.000147781
-5.56917e-05
-0.000155903
-0.000588424
0.000300681
-0.000341464
-0.000382572
-0.000155359
0.000112515
4.28441e-05
-0.000101611
-0.000140612
0.00024222
-0.000124579
-0.000363936
0.00049181
0.000499834
-0.000682752
0.000184109
0.000162843
0.000135408
-7.35755e-05
0.000188004
0.000131377
-7.14777e-05
-2.08714e-05
-0.000134487
0.000527515
-0.000546968
2.08318e-05
-0.000198453
-0.00033429
0.000533896
8.614e-05
-0.000103245
1.71047e-05
-0.000110775
-0.000616312
2.01304e-05
-0.000592761
-6.81301e-05
0.000167512
-9.93755e-05
0.000165929
0.000222426
-0.000388149
-0.000316598
0.000507555
-0.000189979
8.00283e-05
-0.000116661
-9.49174e-05
9.58786e-05
-6.92522e-08
0.000138498
0.000165472
-0.000303945
0.000130653
0.000101694
-5.86228e-05
-5.10397e-05
-0.00043198
-0.000161687
-0.000130262
-0.00048858
0.000619975
-0.000183795
-0.000309004
0.00049439
3.10556e-05
0.000560353
-0.000586292
6.57339e-05
-0.000214154
0.000148433
-0.000461152
0.0004965
-0.000368762
4.17857e-05
0.000327108
0.000496322
-0.000677932
-0.000556031
0.00034499
0.000211627
0.000495839
3.35234e-05
-0.000478329
8.49465e-05
-0.000861665
0.000277852
0.000588477
-0.000786641
0.000422401
0.000366359
-0.000473055
-0.000144631
0.000621759
0.00022918
-0.000697566
0.000548031
-0.000345886
-0.000201538
-5.19738e-05
0.000168051
-0.000116077
-7.91623e-05
0.000136888
-5.77256e-05
-0.000782918
0.000430102
-0.000177446
1.18156e-05
0.000165633
0.000215576
-0.000414936
0.00019946
-0.000140594
6.14321e-05
-0.000397451
0.000395004
2.75873e-06
4.21703e-06
-0.000250351
0.000246182
0.000511827
8.17817e-05
-0.000172085
3.43704e-05
0.000137717
-0.000484631
2.77616e-05
-0.0001001
0.000507259
-0.000145917
-0.000153303
0.000612282
-0.000445689
3.54543e-05
0.000114638
-0.00060956
0.00035301
0.000257349
-2.79126e-05
0.000139369
0.000361694
-0.000187713
-0.00017385
2.82979e-05
-0.000396899
-0.000681381
0.000573172
0.000456837
-0.00049063
0.000120728
-0.000122143
1.41467e-06
-0.000473256
9.33e-05
-0.000112104
0.000549186
0.00013068
-0.00067467
-0.000115279
1.25879e-06
-0.000113966
1.10815e-05
0.000102885
0.000130364
-0.000198487
0.00045132
-0.000248305
0.000437816
-0.000110352
-1.39313e-05
-6.82749e-05
7.61627e-05
-0.000754942
0.000738269
2.10214e-05
8.98784e-05
4.1499e-05
-7.10422e-05
9.45437e-05
-1.98767e-05
0.000137176
-0.000538533
-0.000113406
8.94619e-05
0.000461418
-0.000624211
-0.000106405
1.58686e-05
-0.000210821
-0.000160025
0.000371033
-0.000207141
-0.000136859
0.000344109
-0.000120196
6.22956e-06
0.000705027
-0.000296975
-0.000407904
-9.71575e-05
-0.00065327
-0.000158936
5.75994e-05
0.000101338
0.000164279
-0.000306019
0.000118451
0.000118785
-0.000165918
5.53247e-05
0.000541891
-0.000595331
-0.000363223
0.000615077
2.39717e-05
0.000546081
-0.000243563
0.000133168
0.000110399
0.000329302
-0.000213562
-0.000115688
0.000662522
-0.000215418
-3.40283e-05
-2.06233e-05
5.74405e-05
-0.000562661
0.000607334
0.000277411
-0.000138898
-2.9472e-06
8.90871e-05
-0.000135481
-0.000312574
0.000448363
0.000450134
-0.000425632
8.84243e-05
-1.119e-05
-7.67066e-05
5.2716e-05
-0.000449832
-2.71732e-05
-0.000161842
0.000189022
-0.000124625
2.11022e-05
9.45138e-05
-0.000122804
-0.000153184
-9.30579e-06
0.000162492
0.000150657
0.000124175
-0.000274821
0.000177343
-0.000306709
0.000129392
-0.000115231
-9.25427e-06
-0.000523273
0.000680689
-0.000154431
0.000273119
0.000386944
-0.000649358
0.000205289
-0.000567167
-0.000212261
7.17928e-05
-0.000218508
0.000146725
4.90028e-05
0.000528885
-0.000575622
-8.88545e-05
-2.30981e-05
0.000123996
0.000216374
6.10546e-05
-0.000165164
2.42082e-05
-0.000140035
-0.000100252
0.000250916
1.39937e-05
0.000106102
-0.000577355
0.000697704
-0.000117153
-0.000627528
-0.000710756
0.000584847
0.000128014
-0.00052898
7.29919e-05
-3.79381e-05
5.57985e-06
6.79778e-06
-9.90955e-05
0.000590582
-3.28451e-06
-0.000130075
0.000133359
-0.000732025
0.000369639
-0.000107793
-0.000428574
0.000551804
-0.000158743
-1.32514e-05
4.15293e-05
0.000137686
-0.000179201
-0.000322075
0.0006049
0.000623569
-3.77355e-05
-0.00058416
0.000228365
-0.000329597
0.000101263
9.30344e-05
8.26292e-05
-0.00061725
0.000256248
-0.000759957
0.000530489
0.000234303
0.000163745
0.000171974
-0.000478164
-2.98596e-05
-0.000106035
0.000135894
0.000422012
5.48962e-05
0.000509924
-0.000128648
7.75297e-05
5.1118e-05
-0.000140599
0.000182143
-0.000652958
0.00049669
0.00016803
0.000138362
-5.43365e-06
-0.000132928
9.46808e-05
7.31018e-06
-0.000101991
5.65546e-05
-0.000149011
9.24565e-05
0.000584119
-0.000524572
-0.000323508
-0.000431513
-0.000514366
0.000184216
-0.000257522
1.38936e-06
0.00025616
0.000502104
-0.000496134
-5.87056e-06
0.000125028
-0.000119335
-8.85724e-05
-0.000154986
-0.00015695
-2.04936e-05
0.000207274
-6.44482e-05
-0.000142822
-0.000593168
0.000453157
-0.000407718
0.000197095
-0.000119951
0.000106062
1.38896e-05
-0.000125264
-0.000133633
1.20188e-05
0.000121614
0.000402161
0.000219001
-0.000620383
0.000297069
-0.000474728
0.000177948
0.000562231
-0.000265758
-7.86339e-05
-3.29408e-05
0.000111575
-9.54654e-05
0.000112623
-3.42686e-05
0.000241472
-0.000522383
-0.000154532
-0.000493569
-0.000105104
-0.000137078
0.000480163
-0.000342237
0.000244111
8.5237e-05
0.000513141
-0.000609478
-0.000146727
-1.22073e-05
0.000393921
0.000168586
-0.000139793
1.96513e-05
0.000189744
0.000458186
-0.000646972
0.000148932
-0.000709852
-3.37703e-05
0.000107912
0.000103456
-0.000352343
0.000425833
-0.000258352
-0.000167296
0.000162155
-0.000189322
-0.000536795
-0.000128855
0.000670688
6.51337e-05
-0.000236858
0.000171754
-0.000141118
2.3796e-05
0.000117323
-0.000414451
-1.30569e-05
0.0004279
-0.000133779
-0.000574326
-2.72264e-05
-0.000407823
0.000435228
-0.000286873
-0.000136626
0.000423876
-8.64784e-06
7.40791e-05
-6.35131e-05
0.00040575
2.55472e-05
-0.000431028
0.000354712
9.72046e-05
-0.000511163
-0.000234523
0.000196844
3.76936e-05
0.000521001
-0.000513211
-0.000126695
-0.00056446
1.48321e-05
-9.78177e-05
0.000291315
-0.000387563
0.000275766
-0.000591298
-0.000207336
-0.000652976
7.89277e-05
-0.00037483
0.000603141
-0.000188205
0.000458794
-0.000543732
0.000102179
-0.000388641
0.00017741
0.000211208
0.000300283
0.000165741
-0.000465856
0.000228123
-0.000195099
-3.30086e-05
0.000177685
-0.000435588
-8.26387e-05
0.000118093
0.000201326
-0.000611285
0.000411544
-6.71236e-05
-4.25389e-05
0.000323692
-0.000483641
0.000160122
-0.000370886
-0.000159917
-0.00013075
0.000125991
-0.000117594
-0.000137266
0.000159095
-2.18267e-05
0.000474489
-0.000487099
-0.000281636
-0.000327002
0.000116085
0.000472564
0.000761366
-0.000739796
-1.85603e-05
-2.96797e-05
-0.000221343
0.000251065
-0.000127993
-0.000193248
0.000321336
0.000393348
-0.000155987
-0.00023724
6.40099e-05
-0.000257963
0.00019398
-0.000104421
0.000200619
9.97902e-06
-0.000210581
-6.5146e-05
-1.2278e-05
0.000104711
0.000135984
-0.000109039
-2.69445e-05
-0.000190417
9.7004e-05
9.34151e-05
0.000672707
-9.76843e-05
-0.000573329
0.000190131
0.000572382
-0.000240441
-0.000148208
7.29861e-05
6.76669e-05
-0.000267117
0.000426656
-0.000230855
0.00021777
1.69216e-05
0.000125267
-0.000264429
0.000139163
6.74983e-06
-0.000241255
5.10033e-05
0.000242174
0.000216907
-0.000348317
0.000131443
0.00015277
-9.23736e-05
-6.03964e-05
-0.000511991
0.00045858
-0.000289523
0.00029636
-6.80461e-06
-5.30172e-05
-5.28588e-05
0.000105876
-0.00016046
0.000156508
0.000148997
-1.9142e-05
-0.000216354
0.000235516
-0.00021796
5.61796e-05
0.000483736
-4.66095e-06
-0.000478564
-2.61042e-05
7.569e-05
0.000494227
6.34584e-05
-0.000739305
0.000202635
-0.000112702
-7.30334e-05
0.000178151
-0.000105118
-8.21487e-05
-5.32637e-05
-0.00018879
0.000136817
9.48036e-05
2.0752e-05
-0.000115555
-0.000112176
0.000111369
8.07448e-07
-0.000157423
0.000282692
0.000507307
-0.000164122
0.000118992
-0.000119002
1.03083e-08
0.000166364
-0.000159454
-6.90881e-06
0.000478499
-0.000226121
8.44696e-05
0.000141652
2.34117e-05
-0.000110811
8.73991e-05
-0.000175976
0.000166632
9.34585e-06
-0.000378221
0.000242985
0.000546365
-0.000186514
-0.000344377
6.13656e-05
-0.000572595
0.000344721
0.000199033
-0.000543107
0.000218722
-0.000505169
-0.000314791
0.000274964
3.9875e-05
-0.00067638
0.000395721
-6.53314e-05
-4.43311e-05
0.00022809
0.000320521
0.000345459
-0.000508318
0.000163193
-0.000108854
3.02203e-05
-0.000589051
0.000695068
-0.000102317
0.000188134
0.000237888
1.98173e-05
-0.000153449
-0.000772422
0.000680028
0.000644849
-0.000349248
-0.000294368
-0.000122417
0.000125162
-2.74426e-06
0.00041087
-0.000149262
-0.000237925
0.000204215
-0.000139053
0.00046924
0.000129967
-7.53164e-05
-5.46511e-05
6.4874e-05
0.000410011
0.000324282
0.000104138
-0.000428212
0.000223792
0.000263501
-0.000543948
0.000280996
-0.000240203
-1.72882e-05
0.000348297
-0.000489313
0.000140998
-0.000112592
0.000112175
0.000296933
5.55403e-05
-0.000352396
0.000643953
-2.14728e-05
-0.000619209
-6.0733e-05
-4.89295e-05
0.000109663
-2.40546e-05
0.000348511
5.46752e-05
6.08062e-06
-8.56738e-05
7.95932e-05
-0.000183909
2.51697e-05
-0.00018268
-0.000598105
0.000305732
-0.000628302
0.000530598
0.000110021
0.000102164
-7.48329e-06
-0.000368445
0.000341369
0.000389854
1.61314e-05
1.3859e-05
-0.000161108
0.000152951
0.000428908
-0.00016688
1.36975e-05
-0.000161297
0.000125213
3.60852e-05
0.00033323
-0.000122819
5.5695e-05
-0.000144898
0.0002167
-0.000568276
8.53314e-05
0.000483625
0.000194173
0.00036702
-0.000210767
0.000174216
0.000187594
-0.000103171
-0.000159411
-0.000136257
-0.00047957
0.000621497
-0.000162057
2.47922e-05
-0.000194416
0.00041911
0.000317778
6.24214e-05
4.29146e-05
-6.89383e-05
0.000118057
0.000102281
0.000405957
0.000447531
0.000137165
0.000126474
-0.000309004
0.00018259
-0.000162418
5.06092e-06
0.000647165
-0.00013939
9.4252e-05
2.32809e-05
-0.000117533
-5.80707e-05
0.00010168
0.000508969
-0.000610144
-0.000711374
-2.5373e-05
0.000266259
1.49666e-05
-0.00028119
0.000320241
-0.000165447
0.000494715
-0.000141797
-0.000257275
0.000155662
-0.000426101
-0.00035838
-0.000101426
-1.85248e-05
0.000192886
-0.000382593
0.000189821
-0.000628165
0.000516906
0.000112247
-3.06884e-05
-0.000147268
0.000177957
-5.16062e-05
0.000104464
0.000488955
7.62159e-05
-0.000556885
-4.2052e-05
-0.000119244
0.000423308
-0.000384122
-6.92856e-05
-0.000698349
5.09582e-05
0.000451376
-0.000288773
0.000347736
-5.8958e-05
-0.000124091
0.000111057
1.30336e-05
-0.000424186
0.00014617
-0.000106319
5.33017e-05
-0.000471336
0.00031647
0.000155055
0.000165177
-6.10351e-05
-0.000104141
0.000108347
9.89304e-05
-0.000450228
0.000446043
-1.84068e-05
-0.000607346
0.000478197
-0.000197598
7.41701e-05
0.000123429
0.000527408
8.7165e-05
5.11975e-05
0.00010362
-7.87828e-05
-0.000667565
0.000488296
0.000180649
3.64851e-05
-0.000114445
7.79603e-05
0.000302632
0.000194032
-0.000496191
0.00036977
-4.59622e-05
0.000175502
-3.52315e-05
-0.000140269
-0.000274514
0.000133813
0.000140704
-0.000119008
8.65614e-06
0.000233364
0.000443244
-0.00066588
7.83902e-05
-0.000161029
-0.000683575
0.000128552
0.000556337
-0.000155597
4.30049e-05
-0.000692393
0.000376139
0.000318361
0.000108742
0.000285446
0.000364847
-0.000501023
-8.91563e-06
0.000690691
-0.000673612
-0.000160586
5.56365e-05
0.000139674
0.000401378
-0.00022989
-0.000171371
3.13211e-05
-0.00016912
-6.85285e-06
0.000160991
-0.000511848
-1.62107e-05
0.000119011
-0.000102801
7.88887e-05
-0.000528555
-0.00064126
0.000640057
-0.000477263
0.000341228
-0.000480738
0.000297269
0.00018362
0.000224821
-0.000199634
-2.51647e-05
0.000142031
3.3472e-05
-0.00045157
2.76054e-05
-4.73121e-05
-1.58562e-05
0.000403641
9.33753e-05
-0.000496633
9.38648e-05
5.9226e-05
-0.000269219
0.000210653
0.000585052
0.000229137
0.000467768
0.00041169
-7.72754e-06
0.000494795
-0.000304004
-0.000190422
-0.00012135
5.60185e-05
0.000140003
-0.000725072
-0.00011408
-5.44511e-05
0.000168534
-0.000232998
0.000164941
-7.29061e-05
-0.000117509
-6.10773e-05
0.000117632
6.89015e-05
5.70264e-05
0.000518018
-0.000372843
-0.000127061
0.000345001
-0.000130721
-0.000214153
-0.000749
-0.000245811
-0.000363465
0.000610734
0.000312438
0.000183026
-0.000495014
-9.0675e-05
0.000114087
-0.000387203
0.000570804
-0.000167003
0.000560437
-0.000439998
2.98544e-05
-8.86184e-05
9.27803e-05
-5.55655e-05
-0.000495197
0.00048426
1.12634e-05
0.00020551
0.000440839
-0.000394708
0.000350321
4.45615e-05
-0.000423976
0.000157108
0.00013459
-4.63992e-06
-0.00012995
-0.000123343
6.92727e-05
-0.000145292
-0.000450697
0.000601824
0.000631674
-0.000619873
-1.09764e-05
0.000120932
-0.000475201
0.000147881
-0.000123893
-2.39875e-05
-9.11756e-05
-2.37336e-05
0.000154342
-0.000131138
-2.32035e-05
6.74762e-05
-0.000189896
0.000210815
-0.000160574
-5.02359e-05
6.71592e-05
-0.000175782
0.000108625
0.000430113
0.00028501
-0.000481728
0.000642047
-0.000126095
0.000667811
0.000480266
-0.000601435
0.000121699
-0.000490191
0.000368858
0.000582415
0.000157649
-0.00016115
3.50246e-06
2.69335e-05
0.000104794
-0.00010049
0.000557117
0.000260248
-0.000180003
-8.02404e-05
-0.000422531
0.000277456
0.000166046
-0.000450843
-0.000116768
-0.000321924
0.000350364
0.000281069
0.000301619
0.000407625
0.000450335
0.000195412
0.000152514
-6.76597e-05
-9.36481e-05
0.000129199
-0.000219586
-2.17965e-06
0.000221818
-0.000110571
-8.43654e-06
-8.85555e-05
0.00026592
5.10671e-05
-0.000117271
0.000195023
5.34009e-05
3.3434e-05
0.000111409
0.000146785
-0.000127455
-1.933e-05
-0.000144315
0.000337301
-0.000142234
1.11718e-06
-1.24308e-05
0.000213066
-0.000104534
0.000110614
0.000551732
0.000111422
-0.000659017
0.000553382
0.000424425
9.51238e-05
-0.000508462
0.000471327
0.000118992
9.97568e-05
-0.000218746
-0.000186944
-4.68252e-05
9.54122e-05
-4.93434e-05
-0.000247467
0.000312607
-6.50964e-05
-0.000354016
8.19811e-05
0.000290047
0.000241782
0.000109486
-0.000351451
0.000173486
2.24303e-05
6.87306e-05
-8.60404e-05
-0.000111341
-3.64032e-05
0.000147747
0.00060403
-2.12078e-06
-0.000598671
-5.24876e-05
4.24562e-05
0.000223832
-0.00048282
0.000645656
-0.000150975
-0.000224967
4.13227e-05
0.000183656
-0.000161577
8.85437e-05
-0.000216825
0.000627935
-0.000409852
0.000129437
0.000446978
-0.000574796
3.49641e-05
-0.000668201
0.000142853
0.000118421
-0.000261249
-0.00035936
-0.000235366
-0.000518987
0.00030704
0.000212695
0.000177187
-0.000210547
3.3364e-05
0.000656133
-0.000599084
-5.6947e-05
-0.000142807
9.1738e-05
5.10688e-05
-0.000518313
0.000721255
-0.000200508
-0.000132231
0.00011136
-0.000317057
0.000512396
-0.000194415
-0.000232763
-1.27609e-05
0.000245568
-0.000640235
2.04628e-05
0.000624021
0.000337872
-0.000172944
-0.000164848
9.29153e-05
-0.000414671
-0.000111945
0.000397435
0.000381472
-0.000597074
-2.17636e-05
-0.000121043
0.000515944
0.000302295
0.000107494
-0.00010509
-2.40488e-06
9.71806e-05
4.93435e-06
-0.000102115
-0.000248275
0.000547655
-3.21233e-05
4.40083e-05
0.000277115
-0.000490563
-0.000367544
0.000548341
-0.00016909
-2.43652e-05
0.000118617
-0.000721122
1.26033e-05
-1.19428e-05
-0.000120288
-9.49705e-05
-3.67566e-05
-0.000353147
5.07262e-05
-0.000135106
7.74839e-05
5.76223e-05
-6.11946e-05
0.000130728
0.000573954
-0.000723295
0.00015299
9.43274e-05
0.000101349
4.54366e-05
0.000285646
6.26255e-05
-0.000630988
0.00048317
0.000152084
-0.000616396
-9.21948e-05
-0.000519115
-0.000573892
0.000149287
0.000426068
0.000183969
0.000128387
-0.000312322
-9.41433e-05
0.000148657
-5.45134e-05
0.000192315
0.000351966
-0.000543739
9.51689e-05
-0.00011343
9.72194e-05
0.000205127
-6.03683e-05
-0.000144753
-3.49049e-05
0.000287397
-0.000252461
-0.00039399
-0.000137609
0.000534055
-6.49688e-05
0.00010529
-4.0321e-05
-7.35031e-05
-0.000316213
-7.83382e-05
9.60468e-05
-0.000732243
0.000137582
-0.0006784
0.000541627
0.00014106
-0.000132469
-8.59068e-06
0.000564291
3.67865e-05
9.3181e-05
-0.000152759
-2.42183e-05
-5.04766e-05
7.71539e-05
-0.00031536
-0.000165232
-0.000129977
0.00014954
7.26309e-06
-0.00034373
-0.000107604
-9.04082e-05
-0.000280417
0.000371208
3.37341e-05
-0.00036512
0.000525993
-0.000416618
-9.17112e-05
-0.000134255
-0.000438056
6.69987e-05
5.83551e-05
-0.000125354
0.000143659
-8.21536e-05
-5.78706e-05
0.000382043
5.58523e-05
6.85919e-05
0.000603523
-0.000465248
-0.000699867
0.000117022
-0.00017544
0.000340937
9.59294e-05
3.83802e-05
-0.000134309
0.000349301
7.8163e-05
-0.000427148
0.000129551
-1.96061e-05
-0.000109945
-8.30599e-07
-0.000483863
-0.000652039
0.000322545
0.000273925
1.25107e-05
0.000106481
-0.000147175
0.000116487
-4.02162e-05
-9.42645e-05
0.000134481
4.98685e-05
-7.56998e-05
0.000320395
-0.000545908
-0.000120877
6.21308e-05
6.74203e-05
0.000259372
-0.000705845
0.000453908
7.53867e-05
-0.000186725
-0.000122711
-0.000134653
0.000110288
0.00019878
-0.000124933
-6.80698e-05
-0.000245403
0.000217804
4.86882e-05
9.01066e-05
0.000120712
0.000285541
-0.000609913
0.000326616
-4.68116e-05
0.00011381
-0.000646865
0.000126601
-9.08958e-05
0.000127381
-6.11724e-05
0.000663083
-0.000496596
0.000381072
5.68641e-05
4.85274e-05
-0.000162604
-3.6796e-05
0.00013153
-9.47343e-05
0.000337335
0.000187157
0.000509501
-0.000629206
0.000121558
0.000317377
0.000388115
0.000585621
0.000456469
-0.000587305
-6.64826e-05
1.8939e-05
4.80575e-05
0.000183518
-0.000231552
7.71114e-05
0.000423946
-0.000499898
0.000161693
-0.000120691
-4.10013e-05
-0.000629504
0.00028589
0.000344227
0.000103677
4.42039e-05
0.000553824
-0.000653895
0.00010382
-0.000483953
-1.60036e-05
0.000510516
0.000186734
-4.40313e-05
-0.000142699
-0.000137181
8.15537e-05
5.56276e-05
0.000151622
-2.46004e-05
-0.000127021
-0.000364884
0.000640409
-0.000274318
4.95526e-05
-0.000123322
0.000666062
-0.000108615
-0.000145218
6.02702e-05
8.49479e-05
0.000380396
-0.000206727
0.000229676
-2.2936e-05
-0.000592522
-0.000109151
8.648e-05
-0.000147557
-0.000728033
0.000575646
0.000156515
0.000286564
-0.000376589
-0.000476125
0.000478863
-0.000116843
-0.000562034
0.000681904
9.92438e-05
-0.000106137
-0.000118678
-2.11148e-05
0.000190061
-0.000151619
-3.84382e-05
-0.000127421
7.57979e-05
5.16229e-05
-0.000253127
0.00021825
0.000241213
0.000268684
-0.000509294
0.00030163
0.000271351
7.06935e-05
-0.00049313
0.000432732
0.000113334
-0.000527565
0.000140614
0.000293388
-0.000388494
-0.00024122
1.62676e-05
-0.000190275
-0.000499272
6.11091e-06
7.54778e-05
-8.15888e-05