/*--------------------------------*- C++ -*----------------------------------*\
| =========                 |                                                 |
| \\      /  F ield         | OpenFOAM: The Open Source CFD Toolbox           |
|  \\    /   O peration     | Version:  v2012                                 |
|   \\  /    A nd           | Website:  www.openfoam.com                      |
|    \\/     M anipulation  |                                                 |
\*---------------------------------------------------------------------------*/
FoamFile
{
    version     2.0;
    format      ascii;
    class       volScalarField;
    location    "300";
    object      nut;
}
// * * * * * * * * * * * * * * * * * * * * * * * * * * * * * * * * * * * * * //

dimensions      [0 2 -1 0 0 0 0];


internalField   nonuniform List<scalar> 
18355
(
0.000529694
0.00655138
0.00602813
0.00672063
0.00306904
0.00117692
0.00671958
0.000536536
0.0009731
0.00701907
0.00673561
0.00541811
0.000422236
0.00557805
0.00287491
0.000935995
0.00190538
0.00672782
0.00287283
0.0140948
0.000632666
0.00167042
0.0132784
0.00345942
0.00176333
0.00672359
0.00672243
0.00105188
0.00930361
0.00396537
0.00443051
0.00241462
0.00672628
0.00673494
0.000263943
0.00054435
0.00140711
0.000122305
0.00103585
0.00673736
0.00534838
9.17377e-05
0.00560265
0.00383884
0.00679113
0.00012048
0.000443911
0.000827523
0.000431649
0.00672757
0.00672559
0.00588649
0.00672588
0.0140842
0.00672227
0.00672185
0.00069583
0.00291321
3.58288e-05
0.000210668
0.00672737
0.000864277
0.00672767
0.000238293
0.00666837
0.000589246
0.000878747
0.000262997
0.00672234
0.00178563
0.000309827
0.0067253
0.000175138
0.00672479
0.000533064
0.00671952
0.00868182
0.0022093
0.00144852
0.00618413
0.00671961
0.000254826
0.000624728
0.000252122
0.00672348
0.000372784
0.00497206
0.0141036
0.00893228
0.0137424
0.000732216
0.00679076
0.00672287
0.00672266
0.000281874
0.0131999
0.00548941
0.00134717
0.0138603
0.00135891
0.00206541
0.00152419
0.000326343
0.000840426
0.00301867
0.000695661
0.00223554
0.000110938
0.000796765
3.00423e-05
0.0045739
0.00114835
0.00672351
0.00119102
0.0135532
0.0067196
5.49826e-05
0.00963632
4.84832e-05
0.000301281
0.00801
0.000286227
0.00262678
0.00033552
0.00506222
0.000106301
0.00514795
0.00672556
0.000614322
0.00672136
0.00672531
0.000873932
0.000798212
0.00157339
0.000169718
0.00672542
0.00362464
0.00673545
0.00581695
0.000194543
0.00324441
0.00822918
0.00177298
0.00457183
3.47824e-05
0.00190448
0.000590277
0.00307294
0.0019126
0.00254086
0.00351088
0.0017173
0.000309647
3.68989e-05
0.00103514
0.00672571
0.000886515
5.28136e-05
0.00672562
0.000825455
0.000578845
0.00102105
0.000335825
0.00146953
0.00102396
2.34572e-05
0.00587108
0.000417749
0.00031291
0.00672616
0.00934961
0.0128551
0.00673006
0.00673305
0.000992531
0.00340208
0.000872774
0.00672264
0.000539046
0.00209461
6.87717e-05
0.000307824
0.00111598
0.00671912
0.000915617
0.00386571
0.0133475
0.00076554
0.000829677
0.00129793
0.000669144
0.00550817
0.0015784
0.00190908
0.000144029
0.00161624
0.000582861
0.00128123
0.000884714
0.00673204
0.00212993
0.000761315
0.00327458
0.0120829
0.000463055
0.00051879
5.13308e-05
0.0115593
0.0117535
0.000953106
0.00354218
0.00315658
0.0133419
0.00188368
0.00672568
0.000318883
0.00883542
0.0134231
0.00672358
0.00178968
0.000362717
0.00631654
0.00023659
0.00394428
0.00604155
0.00202284
0.010192
0.00366636
5.05391e-05
0.00347235
0.00672574
0.00153188
0.000693273
0.0105651
0.00136926
0.00672353
0.00672288
0.000101231
0.000533243
0.000224185
0.000844552
0.000285535
0.00405567
0.00672601
0.0018531
0.00223809
0.00177685
7.13414e-05
0.0010572
0.000571354
0.00218296
1.5795e-05
0.00119094
0.0126073
0.00238207
0.00654341
0.0122055
0.000716956
0.003689
0.00673244
0.000591484
0.0002795
0.00315978
0.000779827
0.00671937
0.00672432
0.00672569
0.000305903
0.000153658
5.57423e-05
0.00130566
0.00222921
0.000686668
0.000731561
0.00253053
0.000718649
0.00601436
0.00672287
8.31656e-05
0.00672561
0.00671962
0.00060479
0.00672647
0.00362428
0.00128775
0.000755487
0.00672889
0.000447764
0.00655629
0.00233912
0.00672001
0.00652989
0.00112974
0.0114976
0.00672562
0.00672586
0.00886873
0.000314309
0.00112349
3.61527e-05
0.00672249
0.000291779
0.00140255
0.00672564
3.67492e-05
0.000964985
0.000314214
0.0011758
0.00672171
6.89493e-05
0.00339532
0.00280458
0.000787604
0.00580424
0.000295057
8.77951e-05
0.00672274
0.00671971
0.000275341
0.000452517
0.0117914
0.00233112
0.000353148
0.00304174
0.0067765
0.00053737
0.00154522
0.000299733
0.000673425
0.00672067
2.05749e-05
0.00307701
0.000157165
0.00672208
0.00109933
0.00680158
0.00672568
0.00165302
0.000812651
0.00672263
0.000412896
0.000836929
0.0016997
0.0141636
0.000939272
0.0026709
0.00672772
0.0131224
8.92368e-05
0.00672314
0.00175675
0.000999294
0.000920342
1.74468e-05
0.013104
0.00672256
0.00183437
6.45652e-05
0.00489959
0.00159355
0.000513464
0.000980126
0.00180225
0.000891563
0.00672583
0.000134631
0.000285634
0.000144483
0.00671955
0.00318301
0.00672771
0.00545244
8.62524e-05
0.00567459
0.000393904
0.00672692
0.000947615
0.00672264
0.000923845
0.00477214
0.00286796
0.00600182
0.00547877
0.00111591
4.82883e-05
0.00433355
0.00362143
0.00360688
0.000253881
0.00456175
0.00111238
0.000378675
0.00191825
0.00237943
0.00150258
0.00671972
0.00672339
0.00672225
0.0137068
0.00129252
0.00677068
0.000657814
0.000449214
0.00463605
0.00677768
0.0105125
0.00192114
0.00563637
2.35655e-05
0.00672469
6.56859e-05
0.00104749
0.000561036
0.00056465
0.00306447
0.00838307
0.00672501
0.00672747
2.50264e-05
0.00672568
0.00672932
0.00138213
0.00672501
0.00760328
0.00107059
0.000880506
0.00160905
0.0015801
0.00672638
0.00752651
0.00121845
0.00928427
0.00118823
0.00672562
0.00671917
0.00176001
0.00751359
0.000179667
0.00276143
0.00672582
0.00207243
0.000110619
5.58769e-05
0.000521626
0.00204846
0.00672583
0.000995391
0.000720267
0.0120369
0.00674883
0.00323159
0.000110474
0.000131501
0.00574619
0.00398195
0.00672098
0.00672987
0.00351624
8.74526e-05
0.00672197
0.00676806
0.000991298
0.00010141
0.000426454
0.0135802
0.000100206
0.00241367
0.00445084
0.0049948
0.00449973
0.0067197
0.00672599
0.00672594
0.00672237
0.00917981
0.00241548
0.00672121
0.000309276
0.000224859
0.00672102
0.0024811
0.000118442
5.19971e-05
0.00105628
0.00543417
0.00143504
0.000794705
0.00510378
0.00152773
0.00543807
0.00108247
0.000207879
0.0067239
0.0125675
0.00573888
0.00870692
0.00522393
0.00590746
0.000724484
0.0013136
0.00179895
0.00288071
0.00703765
0.00264972
0.000120407
0.00672209
0.00106541
0.00799379
0.0131445
0.0144115
0.00225818
0.000552771
0.000607029
0.0100444
0.00156897
0.00071752
0.00214954
0.00505545
0.00672292
0.00018249
0.00672216
0.00695344
0.000574408
0.0139348
0.00405101
0.00213312
0.0067285
0.000269163
0.000402324
0.000745393
0.0067233
0.00093113
6.86443e-05
0.001302
0.00366607
0.000816987
0.0012819
0.00672579
0.0006827
0.000930881
0.00131646
0.000177104
0.00160433
0.00672334
0.00672843
0.00672586
0.00045062
0.00186866
0.000779458
0.00462016
0.00307068
0.00699849
0.00672007
0.000239522
0.00132896
0.000138073
0.000723699
0.0139019
0.00219337
0.000281404
0.00052453
0.000765315
0.0130645
0.00667933
0.00568176
0.00130686
0.00136894
0.00530617
0.00668521
0.0013287
0.000404096
0.000311674
0.000131969
0.00863931
0.000949972
0.00672103
0.0119002
0.0013456
0.00255761
0.00673116
0.000233963
0.0132166
0.000583754
0.00672466
9.65025e-05
0.000174589
0.000265197
0.000301051
3.05224e-05
0.00149928
0.000606602
0.00280421
0.000612022
0.0011416
0.000125211
0.00010479
0.00119371
0.00672099
0.00244446
0.00416329
3.73263e-05
3.33625e-05
0.00515637
4.52322e-05
0.00919367
0.00209081
9.27796e-05
0.000882966
0.00378027
0.0070091
0.00673708
5.27979e-05
0.00180295
0.00285306
0.00049008
0.00671957
0.00150819
0.00153994
0.00128401
0.000508846
0.00591129
0.000273289
0.00101161
0.000711614
0.0107052
0.00513391
0.000386719
0.0144257
0.00672519
0.00173169
0.0129795
0.00671788
0.000925761
0.00672094
0.00335131
0.00126169
0.00109971
0.000293694
0.000898853
0.00131341
0.000657465
0.0025347
0.00119874
0.00443235
0.00292027
0.00107542
2.13693e-05
0.00228625
0.000152916
0.000675996
0.00518612
0.00672441
0.00495622
0.000728538
0.000825301
0.00672509
0.00118482
0.00276803
0.00807983
0.000437918
0.00096984
8.74567e-05
0.00112987
0.0067202
0.00672482
0.000659929
0.000134447
0.00675844
0.00424109
0.000456891
0.000313799
0.00681094
0.0125846
0.0103902
0.00369637
0.00673569
0.00125862
0.00672519
0.00672448
0.00310015
5.03264e-05
0.00158423
0.0067303
0.00091689
0.000439328
0.00140672
8.9217e-05
0.00306
0.00936377
0.000902381
0.00213112
3.52201e-05
0.0127377
0.00671975
0.00763618
0.00672066
0.00672474
0.00173749
0.000209103
0.00999383
0.000716516
0.00354764
0.000374588
0.011993
6.43662e-05
0.0011939
0.00835742
0.00303571
0.00723922
0.00249535
0.00312072
0.00654014
0.00224792
2.80455e-05
0.000802847
0.000527083
0.00681776
6.39808e-05
0.00945598
0.00672231
0.0140189
0.00509746
0.00354537
0.00339168
0.00052688
0.00126985
0.00672745
0.00672312
0.00096322
0.00185956
0.00231574
0.00671909
4.51064e-05
0.00115805
0.00672721
0.00672279
0.000406477
0.000831748
0.00780394
0.00069743
0.00679124
0.000680134
0.0128871
0.000577614
0.00567734
0.00672858
0.000579591
0.000932569
0.001243
0.00534339
0.000111084
0.000135859
0.000971862
0.00848853
0.00102702
0.0067181
0.000885715
0.00535957
0.00207485
0.00124113
0.00320178
0.0067189
0.00517918
0.00676071
0.00720611
0.000984944
0.00499975
0.000449114
0.000598541
0.0131781
0.00326413
0.0067209
0.00583093
0.0134357
0.00217522
0.012733
0.00828328
0.010921
4.05012e-05
4.10583e-05
0.00566357
0.00112409
0.00672375
0.00672562
0.00291249
0.00187945
0.00672296
0.00178572
0.00734768
0.000694014
0.00258334
5.97909e-05
0.00671813
0.00109082
0.000401385
0.0067223
0.000678671
0.00156703
3.43709e-05
4.72372e-05
0.000336517
0.010527
0.000119155
0.00140393
0.000117095
0.0123002
0.0129943
0.000889204
7.90329e-05
0.000937771
0.00249434
0.00525089
0.00672638
0.00671964
0.00146055
0.0132075
0.00672523
0.00672581
0.000366351
0.00671788
0.000211591
0.00022091
0.00672434
0.00536554
0.00466137
0.00539906
0.000859002
0.0067242
0.00022394
3.19234e-05
0.00242986
0.00276911
0.00672641
0.000112393
0.00671928
0.00129487
9.46269e-05
0.00622879
0.0120033
0.00274478
0.0131536
0.0017478
0.000942219
0.0067224
0.000861463
0.000425136
0.00672381
0.00240118
0.0130809
0.00583407
0.002003
0.00258353
0.00132834
0.00672195
0.00672206
0.00672472
0.00306351
0.00672898
0.0129935
0.000743847
0.000307763
0.00540917
0.006739
0.00650524
0.0118776
0.0128951
0.000624631
0.00672064
0.00473464
0.00672544
0.00252157
0.000144193
2.76964e-05
0.000927636
0.00398916
4.83185e-05
0.00815995
0.000239083
0.00392844
0.00277812
0.00974495
0.000446882
0.00672228
0.00227344
0.0126768
0.00672211
0.00374458
0.000102111
0.00672527
0.000447827
0.00675073
0.000900184
0.000810436
0.0067177
0.00671878
0.00264784
0.00440868
0.00672452
0.000827333
0.0053
0.00241926
0.00672557
0.000135462
0.00725964
0.000990521
0.0126698
0.00151499
0.00672449
0.000846456
0.00239917
3.73991e-05
4.31837e-05
0.00675216
0.000278489
0.00325511
0.0121391
0.00674102
0.00510903
0.000133771
0.00316457
0.00672379
0.00671823
4.1565e-05
0.00567015
0.00311297
0.00416943
2.79508e-05
0.00672537
0.00672435
0.000740654
8.62793e-05
0.00460341
0.00066706
0.00240706
0.0015506
0.00449805
0.00675901
0.00672597
0.000387038
0.00183648
0.0132243
0.00106748
0.0124809
0.00485152
0.00672487
0.000156509
0.0128274
0.00683671
0.00175857
0.00584087
0.00463573
0.000615471
0.00137778
0.000267876
0.00637553
0.00712425
0.00673478
0.000753154
0.00672247
0.00518866
0.00672554
0.0142622
0.00066863
0.00814067
0.000228726
0.00150277
0.000982184
0.00671986
0.00671923
0.00671796
0.00105263
0.000222491
0.00374529
0.000570021
0.000276632
0.00672057
0.00129929
0.000598013
0.00163504
0.00105588
0.00103716
0.000276493
0.00447062
0.00105624
0.00639805
0.000906885
0.00120091
4.38781e-05
0.00648733
0.00580444
0.000456508
0.000175173
0.00508625
0.00109385
0.00039106
0.00350693
0.00178887
3.25603e-05
0.000224456
0.000358105
0.000502863
0.00672233
4.06017e-05
0.00390311
0.000779444
0.00339019
0.00672241
0.012453
0.00101481
0.00152391
0.00704903
0.00507771
5.89061e-05
0.00252444
0.00667307
0.000137583
0.00367146
0.00126056
0.00550773
0.00406058
0.00177462
0.00148645
0.00114489
0.0127985
0.0024414
0.000584395
0.0048038
0.00673222
0.00104708
0.00191941
0.0013275
0.000520845
0.00158179
0.0067177
0.00672545
0.00143131
0.00673403
0.00672129
0.00715717
0.00672573
0.00151971
0.00671996
9.81981e-05
0.00672284
5.01386e-05
2.77791e-05
0.00267245
0.0104002
0.00671916
0.00139423
0.00443742
0.00882854
0.000482194
0.00671781
0.00672088
0.00250035
0.00598981
0.000550912
0.0101143
0.00287321
0.00518733
0.00672409
0.00154172
0.000898203
0.00206283
0.00674138
2.35984e-05
0.0088138
0.000947253
0.00364101
0.00396724
0.00672456
0.00672404
0.00965212
0.00122824
0.00855402
0.000992482
0.00394481
0.00906069
0.00204026
0.000222595
0.00672457
0.00127633
0.00555459
0.0003701
0.0002937
0.00106007
0.00672256
0.00463313
0.00122983
0.0067178
0.00674602
0.00324588
0.00572385
0.0029261
0.0100608
0.00183875
0.00210651
0.00237099
0.00118002
0.0129715
0.00671781
6.80643e-05
0.00111948
0.00671792
0.000913324
0.00123261
0.00672155
0.00496243
0.00672296
0.00435058
0.000997836
0.00672184
0.00154868
0.000357573
0.0067224
0.000376678
0.00112222
0.0109284
0.00593839
0.00598671
0.000733346
0.000339073
0.00823758
0.0129641
0.00679334
0.00185095
0.00672052
5.07431e-05
0.0122868
0.000264376
0.000774904
0.00672423
0.00421439
0.00672305
0.00175692
0.00164083
0.00298532
0.0009578
0.000666023
0.00672268
0.00672482
0.00672353
0.00523739
0.000389159
0.00488016
4.76641e-05
0.00672113
0.000699764
0.00247236
0.000274233
0.000687394
0.000482874
0.000998905
5.32374e-05
0.00674167
0.006718
0.000189575
0.00672288
0.00672114
0.000948485
0.00105929
0.00672304
8.49316e-05
0.00672224
0.00536867
0.00672305
0.00616407
0.0060478
0.000453461
0.00117732
0.00243777
0.00955689
4.44832e-05
0.0067223
0.000250866
0.000928163
0.00392817
7.99357e-05
0.0112431
0.00028414
0.000847071
0.00124406
0.000885473
0.00013353
0.00711026
0.00671916
0.00672399
0.00564576
4.64042e-05
0.00198711
0.00264772
0.00504622
0.00232862
0.0125795
0.000467637
0.00151399
7.2087e-05
0.00671979
0.00110654
0.000246248
5.04495e-05
0.00672368
0.000291436
0.000230139
0.000612
0.0143467
0.00672549
0.00598176
0.00672112
0.000142441
0.00671903
0.00671912
0.00677054
0.00014769
0.00114387
0.00405604
0.00969486
0.000802801
0.00229456
0.00439244
0.00672569
0.00673627
0.000641829
0.0080149
7.35961e-05
0.00103667
0.000289264
0.00102083
0.00596738
0.00228677
0.00516676
0.00386569
0.000967449
0.000108475
0.00818575
0.0006062
0.0012654
0.00589158
0.00672097
0.00340503
0.00021528
0.000109694
0.00672385
0.00672543
0.0067241
0.00671814
0.00671866
0.000410025
0.000139141
0.0139432
0.000669847
0.000538904
0.00204441
0.000699234
0.00941897
0.00291025
0.00148996
0.00671867
0.00499872
0.00884735
0.000199002
0.00164307
0.00473438
0.00228356
0.00171896
0.000670883
0.00101265
0.000116653
0.00674227
0.00119055
0.0105158
0.0067259
0.000543386
0.00302886
0.012101
0.000402925
0.000468728
0.000533569
9.85805e-05
0.000104487
0.007204
0.00506908
0.000304473
0.00677905
0.00672519
0.00783129
0.00267937
0.0130763
0.00672237
0.00679502
0.0130067
0.00420747
0.00493102
0.00162111
3.15998e-05
0.00184286
0.00672366
0.0131951
0.00182949
0.00113536
0.00671895
0.00553172
0.000990838
4.05212e-05
0.00672196
0.000391115
0.000207529
0.000899245
4.66185e-05
0.00672552
0.00672328
0.00672107
0.00636082
0.00150082
0.000107241
0.00671999
0.010483
0.0067343
0.0067215
0.000298328
0.00526976
8.0136e-05
0.00125097
0.00671805
0.00332136
0.000441564
4.1661e-05
0.000139167
0.00398117
0.00151888
0.00043676
0.000627856
0.0046326
0.000276176
0.0096398
0.00671859
0.000373838
0.00391059
0.000658819
0.000680855
0.012771
0.00109154
0.00243196
0.00122079
0.000590084
0.00105476
0.000120166
0.00465527
0.000374562
0.00674522
0.00369528
0.000869533
0.00148948
0.000261965
0.00671914
0.000344271
0.004012
7.63463e-05
0.00532025
0.00589055
0.00579081
0.00674393
0.0001461
0.000254441
0.00495977
0.00509104
0.00485281
0.00671865
0.0025784
0.00345202
0.0131011
0.00127822
0.00672533
0.012695
0.00672234
0.00269716
0.00673864
0.00698294
0.000121459
8.49612e-05
0.00068065
0.00434791
0.00672178
0.00672905
0.000464137
0.000106562
0.00672239
0.000963833
0.00497489
0.0129532
0.00105603
0.0121225
0.00555325
0.00437439
0.00369262
0.00671975
0.000824305
0.00672198
0.00249806
0.00388459
0.000350298
0.0010227
0.000988706
0.000251081
0.00985917
3.31439e-05
6.98664e-05
0.00837829
0.00672154
0.000195042
0.00186681
0.00672042
0.000816039
0.00323083
0.000441177
0.00605465
0.0123994
8.65631e-05
0.00825751
0.000687113
0.000934615
7.35363e-05
0.00149682
0.00446125
0.00671854
0.00559932
0.000311223
3.44564e-05
0.000305147
0.00671922
0.00080886
0.000260607
0.00671447
0.00154543
0.00069506
0.00154391
0.00672441
0.00672581
0.000199223
0.00672039
0.000257799
0.00229581
0.00671913
0.00672047
0.00056344
0.00671796
0.000152698
0.00148494
0.000127512
3.89821e-05
0.00433713
0.000863877
0.00123607
0.000114454
0.000892538
0.00101219
5.97895e-05
3.02259e-05
0.000412377
0.00717632
6.40208e-05
0.00267078
0.000823912
0.0139644
0.00121144
0.00671804
0.00672175
4.67738e-05
0.00272588
0.00741441
3.04308e-05
0.00098168
0.0105088
0.00147567
0.000315266
0.012754
0.00334373
0.00672235
0.00672191
0.00671939
0.000490055
0.000484563
0.00148733
0.000358416
0.000331371
0.000405458
0.00288885
0.00182209
0.000295906
0.00672179
0.00672152
0.00129757
0.00251489
2.52013e-05
0.00672231
0.00671994
0.00672572
0.0001219
0.000263102
0.000535343
0.00254794
0.001971
0.0130708
0.0066195
4.00171e-05
0.000258237
0.000528973
0.0023892
0.0127575
0.000354872
0.00274736
0.00010136
0.00649358
0.000444772
0.000571699
0.00247157
0.00671813
5.66624e-05
0.00121392
0.00899543
0.000387057
0.000700211
0.00237343
0.00129266
0.004388
0.00165302
0.00207138
0.00106429
5.63322e-05
0.0059875
0.0112034
0.00252522
0.00671958
0.000964045
0.00211098
0.000213104
0.00540669
0.00128142
0.00671945
4.31858e-05
0.000245276
0.00187608
0.00253494
0.0035618
0.00186629
0.00672403
0.000686189
5.18691e-05
0.0130292
0.000511062
0.00672348
0.0123499
9.36209e-05
0.00490389
0.000161936
0.00620288
0.00145951
0.00671948
0.000171954
0.000997996
0.000460337
0.00050467
0.0067382
0.00511089
0.00672285
0.00147825
0.00158224
0.00132124
0.00671778
0.00343477
0.000979371
0.006726
0.000926024
0.00672236
0.00117528
4.44961e-05
0.0111477
0.00145659
0.000950452
0.0120577
0.00671819
0.00672359
0.000429588
0.00162201
0.00332383
0.000575594
0.000690965
0.00117683
0.0138154
0.00493133
0.00481672
0.00186156
0.000165352
0.00672099
0.00262135
0.0129301
0.00765017
0.00198414
0.0012188
0.00673721
4.35925e-05
0.000402152
2.96801e-05
0.00672509
0.000118904
0.00156057
0.000895685
0.00180829
0.000794518
0.00202818
0.0100801
0.00156817
0.00673669
0.00816395
4.22802e-05
0.00672302
0.00672236
3.12426e-05
0.00172428
0.000500908
3.90013e-05
0.00672229
0.00171274
0.000934148
0.00113598
0.00255389
0.00671414
0.000345115
0.00173027
0.000388352
0.00673266
0.00285464
0.00340091
0.00261334
0.00672189
0.000259832
0.00570634
0.000634321
0.0136699
0.00677221
0.00340553
0.00634258
0.000117831
0.000937018
0.00254134
0.000699586
0.00103063
0.00671799
0.00092848
0.00305075
0.00013355
0.0041794
0.0031643
0.00536576
0.00266896
0.0140256
0.00661182
0.0027393
0.00671976
0.0010145
0.00593462
0.000752477
0.000222469
0.00672357
0.000114433
0.0014292
0.000578201
0.000748149
0.00202746
0.000297095
0.0131148
0.000307803
0.00676517
0.00027811
0.000952317
0.000183081
0.000639617
0.00493235
0.00096584
0.000436773
3.77653e-05
0.000179817
0.00209163
0.00259438
0.0126999
0.00222856
0.00685063
0.000903734
0.000147673
0.0113158
0.00798982
0.00508388
3.61358e-05
0.000238594
3.72858e-05
0.000154599
0.000926955
0.00672213
0.00140428
0.00013137
0.00470428
0.000117837
0.000848246
3.56508e-05
0.00916483
0.00672172
0.000409829
0.00169876
0.00100853
0.000263885
0.00672379
0.000326733
0.000558194
0.00091159
0.00672356
0.00172576
0.000424092
0.00458929
0.00142247
0.00434706
0.00672542
0.00672019
0.00117963
7.72206e-05
0.00322868
0.00672312
0.00146828
0.00129461
0.000756369
0.00438299
0.00672638
0.00460702
5.03052e-05
0.00672076
0.00672149
0.00055261
0.0121895
0.00481518
0.0067256
0.00106442
0.00127515
8.33979e-05
0.0025699
0.00715653
0.00671799
0.00132305
0.00094835
0.0127668
0.002262
3.97185e-05
0.000974537
0.0109768
0.00946089
0.00292267
0.00629133
0.000952971
0.00435323
0.00673284
0.000186734
0.00659077
0.00491209
0.00679615
5.00027e-05
0.00465811
0.00389884
0.000878694
0.0136929
0.00449937
0.0127243
0.00341732
0.000667971
0.00672358
0.00130626
0.000163983
0.000380786
0.00230342
0.00672313
0.000922514
0.0137434
0.00672028
0.000980621
0.00672384
0.000354699
0.00285112
3.53955e-05
5.95223e-05
0.000431771
0.000514245
0.00269932
0.00941825
0.00114846
0.00671791
0.0133063
0.0101075
0.00489598
0.00673294
0.000416901
0.00071849
0.000420262
0.00671902
0.00555574
0.000232371
0.000372063
0.00674312
0.00671884
0.00151777
0.00321816
0.000630606
0.00217041
0.000590441
0.0037276
0.00018592
0.00280857
0.00361304
3.81265e-05
0.00671943
0.000639181
0.000320805
0.00104288
0.000281078
0.00491886
0.000844022
0.00910426
0.000953812
0.00671905
0.0002666
0.00672008
0.0132492
0.00672411
0.0132924
0.0048105
0.00482209
0.00531238
0.000734175
0.00723003
0.0058621
0.000664282
0.00115239
0.000165658
0.00672046
0.000280501
0.00671959
0.0111316
0.000690283
0.0133983
0.00673623
0.00672459
0.000603582
0.00212179
0.000284077
0.00576354
6.39634e-05
0.000912316
0.00408587
0.00650277
0.00272363
0.00672188
0.00246699
0.00232854
0.0106238
0.000366142
0.00671883
0.00691073
0.000109548
3.02695e-05
0.00679236
0.000245911
4.44336e-05
0.00432496
0.00118402
0.00235035
0.00672157
0.00671923
0.00377635
0.000653698
0.00126089
0.0115562
4.16523e-05
5.25032e-05
0.00672586
0.00672122
0.0132426
0.00110565
0.00672278
0.00246566
0.00378661
0.0130477
0.00339415
0.0135649
0.00022681
3.30729e-05
0.00672586
0.0108343
0.00671825
0.00269802
0.00672219
0.00671785
0.000913072
0.00553617
0.0067228
0.0124062
0.000332453
4.41277e-05
0.00154389
0.00672234
0.00324894
0.0131298
0.000118029
6.04118e-05
0.00672621
0.000730533
0.00217908
0.0129495
0.00708255
0.0089056
0.00673167
0.0124731
0.00373135
0.0141934
3.47349e-05
0.000522685
0.00014395
0.00518122
0.000685008
0.0134806
0.00126957
0.0106766
0.00671793
0.00672274
0.000125889
0.000743417
0.000241645
0.000509594
0.00671957
0.00584818
0.0010059
0.000115085
0.00671932
0.000364284
3.80436e-05
0.0067229
0.000971439
0.000595374
0.000917429
0.0067617
0.00672041
0.0109493
0.00885037
0.000916298
0.00714049
0.000197747
0.00672066
0.00745348
0.00243875
0.00672257
0.000277133
0.00672401
0.00673682
0.000925047
0.0101517
0.00193504
0.0102929
0.00116503
0.00494525
0.00294211
0.00287664
0.00114354
0.00671844
4.27528e-05
0.00672197
0.00315107
0.00665445
0.000100781
0.00475889
0.000398661
3.90506e-05
0.0130315
0.000115123
0.00403897
0.00126851
0.0142481
0.00749758
0.00915183
0.00672222
0.00226787
0.00753273
0.00457458
0.000730206
0.00157875
0.0067233
0.00386436
4.45117e-05
0.00447358
0.00344283
0.000441277
0.00672491
0.00357857
0.00133264
0.0076915
0.0037699
0.00672473
0.00163439
0.00673777
0.00115802
0.0062783
0.000111526
0.000273192
0.00875933
0.00671958
0.00554666
0.0130464
0.00398209
0.00672519
0.000627692
0.00079449
0.00159656
0.00110048
0.00904254
0.0129237
0.000306728
0.00589706
0.00775354
0.000999387
0.00671804
0.00671996
0.00131048
0.00671955
0.000247691
0.00397629
0.00906683
0.00672201
0.00119194
0.00253995
0.000487101
0.00702094
0.0001339
0.000213504
0.0025332
0.000178403
0.0113576
0.000434848
0.0100543
0.000900612
0.00273406
0.013332
0.00653701
0.00113319
0.00672422
0.0013753
0.000426026
0.000513397
0.00668256
0.00277895
0.0067249
0.00671903
0.00672288
0.0104184
0.000984271
0.00671935
0.00260336
0.00672243
0.00739838
0.00057799
0.00774493
0.000677558
0.00671942
0.0127957
4.5199e-05
3.39283e-05
0.00129731
0.00123196
0.00672054
0.00103656
0.00263869
0.00149685
0.000213184
0.00237458
0.00671967
4.62632e-05
0.00152626
0.0067223
0.000413452
0.00672186
0.01117
0.0067198
0.0110615
0.00351645
0.000932613
0.00671958
0.00376818
0.00672214
0.00678077
2.15477e-05
0.000845811
0.00116527
0.000249798
3.55641e-05
0.0127185
0.000335342
0.000897034
0.00202666
0.0103595
0.00862352
0.00685641
0.00110366
0.00630893
0.00502684
0.00114939
0.00675456
6.5038e-05
0.00127495
0.00288175
0.00251054
0.00672251
0.00472421
0.00469406
0.0067266
2.83276e-05
0.00527031
0.00612633
0.000190463
0.0054241
2.89766e-05
0.000926944
0.00489187
0.00428925
0.00680876
0.00672235
0.00679047
4.04794e-05
0.00102191
0.000115574
0.000201707
0.00680589
0.00672214
0.00626899
0.0126244
0.00671902
0.00145703
0.00031725
0.00261362
0.00132037
0.0129227
0.00672542
0.00131018
0.00389961
4.32549e-05
3.9529e-05
0.00202786
0.00926692
0.000315976
0.0126627
0.00671842
8.18079e-05
0.00626109
0.00671918
0.00102761
0.00630687
0.000526396
0.00252178
0.00480498
0.000169901
0.00302421
0.00203465
0.00153276
0.0078545
0.00061748
0.00230875
0.00202238
0.0113157
0.00574653
0.00204214
0.000130618
3.60968e-05
0.00162042
6.84154e-05
0.00010834
0.00672156
0.000722388
0.00335638
0.00672824
0.00148106
0.0067216
0.00123392
0.0129089
0.000947674
0.00672498
0.0038626
0.0048609
5.35067e-05
0.00195609
0.00101788
0.00196294
0.00835069
0.00148999
0.000722046
0.000288855
0.000143522
0.00465674
0.00675124
0.00672239
0.000125928
0.00722549
0.0124385
0.0140624
0.00671784
0.000525433
0.000253055
7.1668e-05
0.0093452
0.00672241
0.0124362
0.0019046
0.00264208
0.00675852
0.00735845
0.00123572
0.00432083
0.00381211
0.000587923
0.0111668
0.000102909
0.00671935
6.51991e-05
0.00207817
0.00451687
0.00115362
0.00163377
0.00671899
0.00237047
0.000896399
0.00672617
0.000973966
0.00672539
0.000704564
0.00672401
0.0134317
0.00672441
0.00903088
0.00673214
0.00141579
0.00606298
0.00105948
0.00231788
0.00672063
0.00069947
0.00248179
0.00672395
0.00448062
3.34914e-05
9.46927e-05
0.00673915
0.000709709
0.00566559
0.0141498
0.000991189
0.000274611
0.000797423
0.00489623
0.000830755
0.00269237
0.00121134
0.000119514
0.00672251
0.000207219
0.00676142
0.00672094
0.0130375
0.000503485
0.00589331
0.00672722
0.00280703
0.00672607
0.0122813
5.39546e-05
0.00672562
0.00482755
0.000394019
0.00187265
0.00151214
0.000676997
0.00672274
0.000383371
0.0136101
0.00672344
0.000318481
0.00278899
0.000671718
3.89031e-05
0.00920804
0.0100319
0.00229329
0.000474951
0.00706308
0.0022678
0.00961165
0.00030924
0.00116112
0.000315832
0.00114486
0.00672687
0.000139488
0.00672437
0.00648108
0.000751418
0.00470571
0.000435571
2.38646e-05
0.00070026
0.000545223
0.00672147
0.000551228
0.0067217
0.00672155
0.000611167
0.0119007
0.00613779
0.00727202
5.93034e-05
0.00105153
0.00340251
0.00278273
0.000454642
0.00411154
0.000168626
0.00336106
3.37416e-05
0.00509915
0.00672244
0.00672497
2.43292e-05
0.00500171
0.000902949
0.00672248
0.00703907
0.00554268
0.00179566
0.00672511
0.000768285
0.0116814
0.00205238
3.17492e-05
0.000206519
0.00673159
0.00125014
0.00672471
0.0124259
0.00671974
0.00765438
0.0103715
0.01213
0.000905071
0.000301141
0.00527299
0.00672199
0.00560791
0.00672591
0.00311888
0.0143616
0.000216017
0.00671869
0.0067368
3.21769e-05
5.31291e-05
0.000103167
0.00847572
0.000303293
0.000907172
0.00219367
0.0115791
2.40206e-05
0.00144297
3.18142e-05
0.012046
0.00810107
0.00273047
0.000810761
0.00672526
0.00173432
0.000631136
2.34895e-05
0.00672526
0.00045167
0.00672283
0.000146067
0.0105798
0.00277268
0.00128032
0.0079098
0.0085632
0.00318933
0.00911945
0.00388669
0.00058358
0.0067246
0.0125668
0.0067237
0.002222
0.00672302
0.00259442
0.00672412
0.00354676
0.00332038
0.000407908
0.00673503
0.0102432
0.00349571
0.00671463
0.00673544
0.000184755
9.37429e-05
0.000815561
0.000291628
0.00131945
0.0109592
0.0110745
0.0116951
0.00104863
0.00101287
0.00127235
0.000201964
0.0036823
0.00823046
0.00551555
0.00178357
0.00101256
0.00101934
0.00328406
8.97079e-05
0.000280061
0.00672364
0.000681396
0.00539101
0.00672246
0.000502178
2.97178e-05
0.00111401
0.000715081
0.00313986
0.00156894
0.0131462
3.19257e-05
0.00674452
0.000689983
0.00403872
0.000304909
0.00124313
4.16018e-05
0.00558882
0.000467788
0.001138
0.00903672
0.00131734
0.00864723
0.00137542
0.00696948
0.00672301
0.00671969
0.00533425
0.00585183
0.00641605
0.00982088
0.0073388
0.000221856
0.000707779
0.000842977
0.00761781
0.00418207
0.00672058
0.000886685
0.000400477
0.000163042
0.00530994
0.00116501
3.8937e-05
0.00734468
0.00364282
0.000752494
0.00685121
3.92165e-05
0.000197319
0.000735125
0.006018
0.00819757
0.00804828
4.20724e-05
0.000797072
0.0047187
0.00255806
0.00127354
0.000384681
0.00473341
0.00706746
0.0032483
0.000116404
0.00673083
0.000622016
0.000672898
0.0119208
0.00672247
0.00145881
0.000238626
0.00664766
0.00672204
0.0072676
0.00017203
0.00105884
0.000481828
0.00658804
0.00993934
0.00538722
0.006726
0.000293785
0.0100453
0.00254165
0.000614069
0.00235904
0.00179352
0.00672546
0.0143856
0.000502575
2.48681e-05
0.00126977
0.00811954
0.00674067
0.00671501
0.00673016
0.0067209
0.00671926
0.00833252
3.12672e-05
0.00736273
0.00672419
0.00639721
0.00940383
0.00127035
0.00595092
0.00148433
0.00678074
3.62022e-05
0.00029769
0.00105691
0.00689195
0.00146304
0.000575775
3.35205e-05
0.000409733
0.00672038
3.41772e-05
0.00671773
2.86858e-05
0.00291686
0.00107434
0.00673263
0.00426069
3.71438e-05
0.00672261
0.0104327
0.00672278
0.00667752
0.0121608
0.000460985
0.000722938
8.576e-05
0.000697094
0.00682087
0.00676523
0.00514725
0.000411489
0.00055933
4.18182e-05
3.33918e-05
0.00239014
0.000618705
0.000174915
0.00308035
0.00105581
0.00730084
0.000614556
0.00499319
0.00188806
0.00672475
0.00190978
0.000189923
0.00821724
0.00672026
0.000875069
4.64403e-05
0.00559042
0.0031127
0.00672242
2.76922e-05
0.00641988
0.00328568
0.00672612
3.79018e-05
0.0133156
0.000970782
0.000393007
4.22651e-05
0.00935182
0.000981335
0.00108025
3.39884e-05
0.000625948
0.00122275
0.000507313
0.00672255
9.55603e-05
0.0142043