/*--------------------------------*- C++ -*----------------------------------*\
| =========                 |                                                 |
| \\      /  F ield         | OpenFOAM: The Open Source CFD Toolbox           |
|  \\    /   O peration     | Version:  v2012                                 |
|   \\  /    A nd           | Website:  www.openfoam.com                      |
|    \\/     M anipulation  |                                                 |
\*---------------------------------------------------------------------------*/
FoamFile
{
    version     2.0;
    format      ascii;
    class       volVectorField;
    location    "200";
    object      cellDisplacement;
}
// * * * * * * * * * * * * * * * * * * * * * * * * * * * * * * * * * * * * * //

dimensions      [0 1 0 0 0 0 0];


internalField   nonuniform List<vector> 
18758
(
(0 -0.00432392 0)
(0 -0.00278825 0)
(0 -0.000298226 0)
(0 -0.00428296 0)
(0 -0.011178 0)
(0 -4.63195e-05 0)
(0 -0.00912726 0)
(0 -0.0134923 0)
(0 -0.0111735 0)
(0 -0.0112589 0)
(0 -0.00265291 0)
(0 -0.0066215 0)
(0 -0.0119775 0)
(0 -0.0137534 0)
(0 -0.00881518 0)
(0 -0.00495791 0)
(0 -0.00653785 0)
(0 -1.41942e-05 0)
(0 -0.00857698 0)
(0 -0.013083 0)
(0 -0.00730371 0)
(0 -0.0150955 0)
(0 -4.09994e-05 0)
(0 -0.000107198 0)
(0 -0.0150966 0)
(0 -0.0150467 0)
(0 -0.0120839 0)
(0 -0.0147241 0)
(0 -0.0149342 0)
(0 -0.00287699 0)
(0 -0.0142304 0)
(0 -0.0121408 0)
(0 -0.0134172 0)
(0 -0.0150922 0)
(0 -0.011104 0)
(0 -0.00282904 0)
(0 -0.0120552 0)
(0 -0.0110847 0)
(0 -0.0131166 0)
(0 -0.000164449 0)
(0 -0.00262183 0)
(0 -0.0115064 0)
(0 -0.00241009 0)
(0 -0.00523466 0)
(0 -0.00171695 0)
(0 -0.014205 0)
(0 -0.0114834 0)
(0 -0.014909 0)
(0 -0.0151065 0)
(0 -0.00412009 0)
(0 -0.00263396 0)
(0 -0.0150419 0)
(0 -0.00407915 0)
(0 -0.0122365 0)
(0 -0.0150677 0)
(0 -0.011922 0)
(0 -0.00271958 0)
(0 -0.013008 0)
(0 -0.0148834 0)
(0 -0.00265934 0)
(0 -0.00150791 0)
(0 -0.00514608 0)
(0 -0.0135338 0)
(0 -0.0147669 0)
(0 -0.00131857 0)
(0 -0.0151029 0)
(0 -0.000981569 0)
(0 -0.000850119 0)
(0 -0.0147073 0)
(0 -2.85082e-05 0)
(0 -0.015041 0)
(0 -0.0150476 0)
(0 -0.00893704 0)
(0 -0.0136219 0)
(0 -0.0140809 0)
(0 -0.014257 0)
(0 -0.0137783 0)
(0 -0.0063737 0)
(0 -0.0112693 0)
(0 -0.00235936 0)
(0 -0.015015 0)
(0 -0.0130944 0)
(0 -0.00641119 0)
(0 -0.01403 0)
(0 -0.00563873 0)
(0 -0.0150583 0)
(0 -0.0144571 0)
(0 -0.0136461 0)
(0 -0.0135286 0)
(0 -0.0150582 0)
(0 -0.0150502 0)
(0 -0.00115129 0)
(0 -0.0149881 0)
(0 -0.0151069 0)
(0 -0.00874279 0)
(0 -0.00351215 0)
(0 -0.000114376 0)
(0 -0.0148741 0)
(0 -0.00637014 0)
(0 -0.00804398 0)
(0 -0.0142366 0)
(0 -0.0133689 0)
(0 -0.000826757 0)
(0 -0.00339365 0)
(0 -0.0151016 0)
(0 -0.00738236 0)
(0 -0.0149203 0)
(0 -0.0150512 0)
(0 -0.0136832 0)
(0 -0.0101544 0)
(0 -0.00493391 0)
(0 -0.0147746 0)
(0 -0.00901521 0)
(0 -0.000581193 0)
(0 -0.0133391 0)
(0 -0.0147936 0)
(0 -0.0148604 0)
(0 -0.00232568 0)
(0 -0.0148282 0)
(0 -0.00589213 0)
(0 -0.000798412 0)
(0 -0.0137683 0)
(0 -0.00571494 0)
(0 -0.0034265 0)
(0 -0.0151087 0)
(0 -0.0122932 0)
(0 -0.00510984 0)
(0 -0.00342502 0)
(0 -0.0149905 0)
(0 -0.0151131 0)
(0 -0.0148965 0)
(0 -0.000870437 0)
(0 -0.0142432 0)
(0 -0.0150938 0)
(0 -0.00013996 0)
(0 -0.000890431 0)
(0 -0.0138618 0)
(0 -0.00581411 0)
(0 -0.0148602 0)
(0 -0.015008 0)
(0 -0.00901165 0)
(0 -0.00449152 0)
(0 -0.0148482 0)
(0 -0.0137031 0)
(0 -0.0151093 0)
(0 -0.0149339 0)
(0 -0.0151015 0)
(0 -0.0149841 0)
(0 -0.00270495 0)
(0 -0.014939 0)
(0 -0.0151129 0)
(0 -0.0151125 0)
(0 -0.0118857 0)
(0 -0.0109716 0)
(0 -0.00257839 0)
(0 -0.0145421 0)
(0 -0.0149802 0)
(0 -0.0149968 0)
(0 -0.0139437 0)
(0 -0.00273687 0)
(0 -0.0149814 0)
(0 -0.00389101 0)
(0 -0.0151106 0)
(0 -0.0151003 0)
(0 -0.0141581 0)
(0 -0.00250971 0)
(0 -0.00381172 0)
(0 -0.0149927 0)
(0 -0.0151129 0)
(0 -0.00673886 0)
(0 -0.0151124 0)
(0 -0.000206376 0)
(0 -0.0149415 0)
(0 -2.67426e-05 0)
(0 -0.0136294 0)
(0 -0.00787545 0)
(0 -0.00863946 0)
(0 -0.0150511 0)
(0 -0.0150897 0)
(0 -0.0133946 0)
(0 -0.0006423 0)
(0 -0.0124663 0)
(0 -0.0150633 0)
(0 -0.0138496 0)
(0 -0.0149352 0)
(0 -0.00832634 0)
(0 -0.00291306 0)
(0 -0.0129215 0)
(0 -0.0151065 0)
(0 -0.0141435 0)
(0 -0.0151127 0)
(0 -0.00823731 0)
(0 -0.0146718 0)
(0 -0.0138565 0)
(0 -0.000385035 0)
(0 -0.0137575 0)
(0 -0.0148627 0)
(0 -0.0117601 0)
(0 -0.0151055 0)
(0 -0.000171518 0)
(0 -0.00366929 0)
(0 -0.014999 0)
(0 -0.0140604 0)
(0 -0.00408944 0)
(0 -0.00524558 0)
(0 -0.01511 0)
(0 -0.0063029 0)
(0 -0.0110571 0)
(0 -0.0151131 0)
(0 -0.0151134 0)
(0 -0.00012733 0)
(0 -0.0149804 0)
(0 -0.00373452 0)
(0 -0.00881864 0)
(0 -0.0128508 0)
(0 -0.000133333 0)
(0 -0.0018424 0)
(0 -0.0149761 0)
(0 -6.04767e-05 0)
(0 -0.00271081 0)
(0 -0.0138327 0)
(0 -0.00376545 0)
(0 -0.0148356 0)
(0 -0.0149953 0)
(0 -0.0140884 0)
(0 -0.000258383 0)
(0 -0.0140672 0)
(0 -0.0150667 0)
(0 -0.0149882 0)
(0 -0.00620197 0)
(0 -0.0150426 0)
(0 -0.0149246 0)
(0 -0.0136147 0)
(0 -0.000761244 0)
(0 -0.00416098 0)
(0 -0.00384291 0)
(0 -0.0143035 0)
(0 -0.015107 0)
(0 -0.0148645 0)
(0 -0.0127366 0)
(0 -0.00566755 0)
(0 -0.0142814 0)
(0 -0.0148546 0)
(0 -0.000194389 0)
(0 -0.0149422 0)
(0 -0.0149612 0)
(0 -0.00407406 0)
(0 -0.00324937 0)
(0 -0.00267368 0)
(0 -0.00815443 0)
(0 -0.015112 0)
(0 -0.00535799 0)
(0 -0.00013072 0)
(0 -0.00384885 0)
(0 -1.83907e-05 0)
(0 -0.0148956 0)
(0 -0.00255882 0)
(0 -0.015048 0)
(0 -0.00241727 0)
(0 -0.0127215 0)
(0 -0.00910321 0)
(0 -0.00351732 0)
(0 -0.0042002 0)
(0 -0.0146558 0)
(0 -0.0145096 0)
(0 -0.0144889 0)
(0 -0.0036004 0)
(0 -0.0148663 0)
(0 -0.0119607 0)
(0 -0.00993954 0)
(0 -0.0148018 0)
(0 -0.0150662 0)
(0 -0.00989493 0)
(0 -0.00588265 0)
(0 -0.000310919 0)
(0 -0.0127698 0)
(0 -0.0142808 0)
(0 -6.45699e-05 0)
(0 -0.00892462 0)
(0 -0.0137364 0)
(0 -0.00314429 0)
(0 -0.000803714 0)
(0 -0.00541483 0)
(0 -0.0150989 0)
(0 -0.00891746 0)
(0 -0.00578306 0)
(0 -4.76875e-05 0)
(0 -0.0148607 0)
(0 -0.00359528 0)
(0 -0.00344185 0)
(0 -0.000140522 0)
(0 -0.0134305 0)
(0 -0.00273046 0)
(0 -0.000276249 0)
(0 -0.000162558 0)
(0 -0.00276998 0)
(0 -0.000281875 0)
(0 -0.000857168 0)
(0 -9.02578e-05 0)
(0 -0.0151063 0)
(0 -0.0142352 0)
(0 -0.000514393 0)
(0 -0.000541108 0)
(0 -0.0133147 0)
(0 -0.00234073 0)
(0 -0.000624673 0)
(0 -0.00677686 0)
(0 -0.0074446 0)
(0 -0.00514577 0)
(0 -0.011836 0)
(0 -0.00559716 0)
(0 -0.0144741 0)
(0 -0.01487 0)
(0 -0.0148233 0)
(0 -0.0149384 0)
(0 -0.015094 0)
(0 -0.000762596 0)
(0 -0.0133993 0)
(0 -0.0149978 0)
(0 -0.00101695 0)
(0 -0.0148113 0)
(0 -0.0139617 0)
(0 -0.0149268 0)
(0 -0.00515439 0)
(0 -0.000785374 0)
(0 -0.0151133 0)
(0 -0.000113016 0)
(0 -0.00502625 0)
(0 -0.0151083 0)
(0 -0.0142729 0)
(0 -0.00879082 0)
(0 -0.0150918 0)
(0 -0.00489859 0)
(0 -0.00255818 0)
(0 -0.00264111 0)
(0 -0.000640504 0)
(0 -0.011809 0)
(0 -0.0036445 0)
(0 -0.0135364 0)
(0 -0.00650735 0)
(0 -0.0117794 0)
(0 -0.0128011 0)
(0 -0.0146735 0)
(0 -0.0133111 0)
(0 -0.0058376 0)
(0 -0.0133574 0)
(0 -0.00629027 0)
(0 -0.0048985 0)
(0 -0.0147249 0)
(0 -0.00232136 0)
(0 -0.0150997 0)
(0 -0.00439678 0)
(0 -0.0147996 0)
(0 -0.00815408 0)
(0 -0.0151097 0)
(0 -0.0128216 0)
(0 -0.01271 0)
(0 -0.0127498 0)
(0 -0.00869244 0)
(0 -0.00902384 0)
(0 -0.00522598 0)
(0 -0.0148713 0)
(0 -0.0138338 0)
(0 -0.00430152 0)
(0 -0.0140737 0)
(0 -0.0138612 0)
(0 -0.00426969 0)
(0 -0.0144381 0)
(0 -0.0125409 0)
(0 -0.0148591 0)
(0 -0.0151074 0)
(0 -0.0148039 0)
(0 -0.0135581 0)
(0 -0.0145442 0)
(0 -0.00264646 0)
(0 -0.0147926 0)
(0 -1.27992e-05 0)
(0 -0.0151027 0)
(0 -0.0149905 0)
(0 -0.00249605 0)
(0 -0.00424551 0)
(0 -0.00120622 0)
(0 -0.000102572 0)
(0 -0.0150967 0)
(0 -0.00433781 0)
(0 -0.00567704 0)
(0 -0.0147964 0)
(0 -0.015109 0)
(0 -0.0127963 0)
(0 -0.00665944 0)
(0 -0.0100699 0)
(0 -0.00505348 0)
(0 -0.0136399 0)
(0 -0.0126534 0)
(0 -0.00507707 0)
(0 -0.000760976 0)
(0 -0.00912224 0)
(0 -0.00931571 0)
(0 -0.000584161 0)
(0 -0.000213689 0)
(0 -0.00256427 0)
(0 -0.0141888 0)
(0 -0.0129906 0)
(0 -0.0146302 0)
(0 -0.0141213 0)
(0 -0.0141273 0)
(0 -0.0151093 0)
(0 -0.0129673 0)
(0 -0.0149641 0)
(0 -0.00272101 0)
(0 -8.79972e-05 0)
(0 -0.0024381 0)
(0 -0.0136274 0)
(0 -0.0127235 0)
(0 -0.0137815 0)
(0 -0.0148447 0)
(0 -0.00974165 0)
(0 -0.00260662 0)
(0 -0.0146622 0)
(0 -0.00166368 0)
(0 -0.0142645 0)
(0 -0.000514699 0)
(0 -0.0151045 0)
(0 -0.0144937 0)
(0 -0.00442973 0)
(0 -0.00017285 0)
(0 -0.0150922 0)
(0 -0.0149887 0)
(0 -0.00207708 0)
(0 -0.00499771 0)
(0 -0.000110683 0)
(0 -0.0135448 0)
(0 -0.000128577 0)
(0 -0.000290022 0)
(0 -0.0141929 0)
(0 -0.0146472 0)
(0 -0.0127768 0)
(0 -0.00843305 0)
(0 -0.0133549 0)
(0 -0.0138246 0)
(0 -0.0147986 0)
(0 -0.0129881 0)
(0 -1.60933e-05 0)
(0 -0.0151034 0)
(0 -0.000496135 0)
(0 -0.00368011 0)
(0 -0.0150645 0)
(0 -0.00497209 0)
(0 -0.0141961 0)
(0 -1.71448e-05 0)
(0 -0.0138421 0)
(0 -0.000279214 0)
(0 -0.0147948 0)
(0 -0.00281076 0)
(0 -0.00913557 0)
(0 -0.0151075 0)
(0 -0.00239214 0)
(0 -4.84935e-05 0)
(0 -0.0144169 0)
(0 -0.0103732 0)
(0 -0.00441738 0)
(0 -0.000410411 0)
(0 -0.00141581 0)
(0 -0.0145033 0)
(0 -0.015054 0)
(0 -0.0123534 0)
(0 -0.0146427 0)
(0 -0.0138593 0)
(0 -0.0150474 0)
(0 -0.00312277 0)
(0 -0.0149505 0)
(0 -0.00308644 0)
(0 -0.00217127 0)
(0 -0.0149562 0)
(0 -0.0142952 0)
(0 -0.0139701 0)
(0 -0.0133718 0)
(0 -0.00273214 0)
(0 -0.00619299 0)
(0 -0.00890879 0)
(0 -0.000582742 0)
(0 -0.00925491 0)
(0 -0.00389938 0)
(0 -0.00459498 0)
(0 -0.00379836 0)
(0 -0.00304762 0)
(0 -0.0116276 0)
(0 -0.000369139 0)
(0 -0.000402384 0)
(0 -0.0149929 0)
(0 -0.000921367 0)
(0 -0.000259384 0)
(0 -0.000227426 0)
(0 -0.010305 0)
(0 -0.00612276 0)
(0 -0.00726688 0)
(0 -0.00640622 0)
(0 -0.00258155 0)
(0 -9.99926e-06 0)
(0 -0.0146224 0)
(0 -0.0150357 0)
(0 -0.015062 0)
(0 -0.0145707 0)
(0 -0.00225781 0)
(0 -0.00827192 0)
(0 -0.0150575 0)
(0 -0.0150939 0)
(0 -0.00380043 0)
(0 -0.00265911 0)
(0 -0.0129359 0)
(0 -0.0151003 0)
(0 -3.80235e-05 0)
(0 -9.38409e-06 0)
(0 -0.0149623 0)
(0 -0.0129127 0)
(0 -0.0150077 0)
(0 -0.00374974 0)
(0 -0.00499578 0)
(0 -0.0146308 0)
(0 -0.00341544 0)
(0 -0.00745681 0)
(0 -0.00111643 0)
(0 -5.1877e-05 0)
(0 -0.00608989 0)
(0 -0.00144875 0)
(0 -0.00604355 0)
(0 -0.000552626 0)
(0 -0.00964611 0)
(0 -0.0138278 0)
(0 -3.84673e-05 0)
(0 -0.000568338 0)
(0 -0.000268955 0)
(0 -0.014357 0)
(0 -0.013024 0)
(0 -0.0130349 0)
(0 -0.00813867 0)
(0 -0.0141572 0)
(0 -0.0141749 0)
(0 -0.0139276 0)
(0 -0.00450657 0)
(0 -0.002516 0)
(0 -0.0027244 0)
(0 -0.0124395 0)
(0 -0.0123727 0)
(0 -0.0150983 0)
(0 -0.0149453 0)
(0 -0.00297506 0)
(0 -0.00598892 0)
(0 -0.0133499 0)
(0 -0.0150001 0)
(0 -0.000548192 0)
(0 -0.000117537 0)
(0 -0.00264187 0)
(0 -0.000423474 0)
(0 -0.00558249 0)
(0 -0.00442149 0)
(0 -0.0124719 0)
(0 -0.00464379 0)
(0 -0.0148819 0)
(0 -0.00804874 0)
(0 -0.000158833 0)
(0 -0.014496 0)
(0 -0.015064 0)
(0 -0.00872036 0)
(0 -0.0051899 0)
(0 -0.00807998 0)
(0 -0.000189251 0)
(0 -0.00793359 0)
(0 -0.00589866 0)
(0 -0.00973802 0)
(0 -0.00243463 0)
(0 -0.0134101 0)
(0 -0.0104653 0)
(0 -0.0079825 0)
(0 -0.0147455 0)
(0 -0.0051262 0)
(0 -0.000144458 0)
(0 -0.0149275 0)
(0 -5.62853e-05 0)
(0 -5.40529e-05 0)
(0 -0.0104935 0)
(0 -0.000324004 0)
(0 -0.0137952 0)
(0 -0.0140343 0)
(0 -0.000495252 0)
(0 -0.00825438 0)
(0 -0.0151055 0)
(0 -0.00228001 0)
(0 -0.0115208 0)
(0 -0.0022264 0)
(0 -0.000311521 0)
(0 -0.000270936 0)
(0 -0.014001 0)
(0 -0.0134354 0)
(0 -0.012982 0)
(0 -0.00772013 0)
(0 -0.0127884 0)
(0 -0.0104238 0)
(0 -0.00305903 0)
(0 -0.00365924 0)
(0 -0.015106 0)
(0 -0.000329123 0)
(0 -0.000118766 0)
(0 -0.00806502 0)
(0 -0.00392482 0)
(0 -0.0141626 0)
(0 -0.014567 0)
(0 -0.00406602 0)
(0 -0.0137807 0)
(0 -0.00580792 0)
(0 -0.0147066 0)
(0 -0.0128964 0)
(0 -0.00378897 0)
(0 -0.00685079 0)
(0 -0.0142393 0)
(0 -0.0151078 0)
(0 -0.0142464 0)
(0 -0.00873894 0)
(0 -0.00509139 0)
(0 -0.00387741 0)
(0 -0.0148286 0)
(0 -0.000332983 0)
(0 -0.005189 0)
(0 -0.00056206 0)
(0 -0.00444821 0)
(0 -0.0141918 0)
(0 -0.0129597 0)
(0 -0.000102868 0)
(0 -0.0105246 0)
(0 -0.00864106 0)
(0 -0.0105486 0)
(0 -0.00816246 0)
(0 -0.00270581 0)
(0 -0.00961343 0)
(0 -0.0150988 0)
(0 -0.000205207 0)
(0 -0.014822 0)
(0 -0.0151126 0)
(0 -0.0150998 0)
(0 -7.96081e-05 0)
(0 -3.2039e-05 0)
(0 -0.014012 0)
(0 -0.00320104 0)
(0 -0.000310835 0)
(0 -0.00227082 0)
(0 -0.00899864 0)
(0 -0.000608307 0)
(0 -0.0146479 0)
(0 -0.00193627 0)
(0 -0.0124183 0)
(0 -0.00523717 0)
(0 -0.00334414 0)
(0 -0.00507773 0)
(0 -0.0130066 0)
(0 -0.0149174 0)
(0 -0.00570832 0)
(0 -0.00872154 0)
(0 -0.00569011 0)
(0 -0.0148203 0)
(0 -0.000134862 0)
(0 -0.0148198 0)
(0 -0.00599633 0)
(0 -0.00905669 0)
(0 -0.0138302 0)
(0 -0.00531914 0)
(0 -0.00528743 0)
(0 -0.0138542 0)
(0 -5.3067e-05 0)
(0 -5.50798e-05 0)
(0 -0.0145157 0)
(0 -0.0133616 0)
(0 -0.0121491 0)
(0 -0.000557864 0)
(0 -0.0151034 0)
(0 -0.0151084 0)
(0 -0.0126539 0)
(0 -0.00392104 0)
(0 -0.00679158 0)
(0 -0.0141919 0)
(0 -0.0137171 0)
(0 -0.0133888 0)
(0 -0.0148283 0)
(0 -0.0115637 0)
(0 -0.00622501 0)
(0 -0.00015869 0)
(0 -0.0148245 0)
(0 -0.0149434 0)
(0 -0.000654999 0)
(0 -0.01451 0)
(0 -0.0137535 0)
(0 -0.0116014 0)
(0 -0.0134233 0)
(0 -0.0125541 0)
(0 -0.00040624 0)
(0 -0.0127925 0)
(0 -0.0027672 0)
(0 -0.0128566 0)
(0 -0.0141805 0)
(0 -0.00576595 0)
(0 -0.0148019 0)
(0 -0.0104808 0)
(0 -0.0098472 0)
(0 -0.0144971 0)
(0 -0.00043745 0)
(0 -0.000131686 0)
(0 -0.00549643 0)
(0 -0.00457369 0)
(0 -0.014933 0)
(0 -0.00273781 0)
(0 -0.0090184 0)
(0 -0.00410522 0)
(0 -0.0149918 0)
(0 -0.0150132 0)
(0 -0.00821573 0)
(0 -0.00994975 0)
(0 -0.0146254 0)
(0 -0.01003 0)
(0 -0.00323424 0)
(0 -0.014226 0)
(0 -0.0129895 0)
(0 -0.0134406 0)
(0 -0.00963752 0)
(0 -0.000359938 0)
(0 -0.0149864 0)
(0 -0.000450375 0)
(0 -0.015019 0)
(0 -0.0150014 0)
(0 -0.0134425 0)
(0 -0.0150456 0)
(0 -0.000174994 0)
(0 -0.00880194 0)
(0 -0.0133869 0)
(0 -0.0148122 0)
(0 -0.0142189 0)
(0 -0.00977388 0)
(0 -0.00249151 0)
(0 -6.04708e-05 0)
(0 -0.00405012 0)
(0 -0.00109624 0)
(0 -0.0133705 0)
(0 -0.0100848 0)
(0 -0.012649 0)
(0 -0.0150732 0)
(0 -0.00420394 0)
(0 -0.00535535 0)
(0 -0.0112493 0)
(0 -0.013402 0)
(0 -0.00364863 0)
(0 -0.00801474 0)
(0 -0.00265763 0)
(0 -0.0150813 0)
(0 -0.00388043 0)
(0 -0.00353195 0)
(0 -0.00113444 0)
(0 -0.0147889 0)
(0 -0.0145416 0)
(0 -0.00867614 0)
(0 -0.00336443 0)
(0 -0.00674002 0)
(0 -0.0126012 0)
(0 -0.00999709 0)
(0 -0.01464 0)
(0 -0.00641367 0)
(0 -0.0035644 0)
(0 -0.0148355 0)
(0 -0.0131254 0)
(0 -0.000295412 0)
(0 -0.00403953 0)
(0 -0.00979795 0)
(0 -0.0142059 0)
(0 -0.0032433 0)
(0 -0.00224937 0)
(0 -0.014426 0)
(0 -0.0098926 0)
(0 -0.0148437 0)
(0 -0.00410033 0)
(0 -0.0150957 0)
(0 -0.00118881 0)
(0 -0.014253 0)
(0 -0.0149219 0)
(0 -0.0117078 0)
(0 -0.0148096 0)
(0 -7.36208e-05 0)
(0 -0.00953226 0)
(0 -0.00256388 0)
(0 -0.00672022 0)
(0 -0.0137273 0)
(0 -0.00377899 0)
(0 -0.00803316 0)
(0 -0.013647 0)
(0 -0.0151133 0)
(0 -0.00414739 0)
(0 -0.00385852 0)
(0 -0.00575594 0)
(0 -0.0126985 0)
(0 -0.0111389 0)
(0 -0.00523453 0)
(0 -0.00812663 0)
(0 -0.000452086 0)
(0 -0.00309723 0)
(0 -0.00574265 0)
(0 -0.00849653 0)
(0 -0.00255104 0)
(0 -0.00367472 0)
(0 -0.0149677 0)
(0 -0.0146087 0)
(0 -0.0146939 0)
(0 -0.0149231 0)
(0 -0.00448364 0)
(0 -0.0150835 0)
(0 -0.00810216 0)
(0 -0.00814906 0)
(0 -0.0127181 0)
(0 -0.00380582 0)
(0 -0.00459789 0)
(0 -0.000690684 0)
(0 -0.000474451 0)
(0 -0.012733 0)
(0 -0.0147784 0)
(0 -0.0150392 0)
(0 -0.0130997 0)
(0 -0.00174071 0)
(0 -0.00757545 0)
(0 -0.0142139 0)
(0 -0.0141482 0)
(0 -0.0146408 0)
(0 -9.34356e-05 0)
(0 -0.00863553 0)
(0 -0.00219999 0)
(0 -0.0150955 0)
(0 -0.0138298 0)
(0 -0.0103785 0)
(0 -0.000792141 0)
(0 -0.0149307 0)
(0 -0.0149736 0)
(0 -0.00398328 0)
(0 -0.0151133 0)
(0 -0.0125742 0)
(0 -0.0124896 0)
(0 -0.00028577 0)
(0 -0.000138967 0)
(0 -0.0150876 0)
(0 -0.011555 0)
(0 -0.000820122 0)
(0 -0.014799 0)
(0 -0.0126157 0)
(0 -0.00737778 0)
(0 -0.00018401 0)
(0 -0.0100023 0)
(0 -0.00554785 0)
(0 -0.00784222 0)
(0 -0.00517358 0)
(0 -0.00829819 0)
(0 -0.00915384 0)
(0 -0.0105618 0)
(0 -0.014459 0)
(0 -0.00932202 0)
(0 -0.0116092 0)
(0 -0.0105179 0)
(0 -0.0150969 0)
(0 -0.00844133 0)
(0 -0.00278714 0)
(0 -0.0150695 0)
(0 -0.0117425 0)
(0 -0.0039984 0)
(0 -0.00382457 0)
(0 -1.41652e-05 0)
(0 -0.0123802 0)
(0 -0.0116583 0)
(0 -0.000306301 0)
(0 -0.0124054 0)
(0 -0.0104825 0)
(0 -0.0116329 0)
(0 -0.01507 0)
(0 -0.0142831 0)
(0 -0.00039159 0)
(0 -0.00823101 0)
(0 -0.0117252 0)
(0 -0.011703 0)
(0 -0.00080854 0)
(0 -0.0148537 0)
(0 -0.00448055 0)
(0 -0.0146016 0)
(0 -0.0144035 0)
(0 -0.0084134 0)
(0 -0.00389202 0)
(0 -0.00357998 0)
(0 -0.0131102 0)
(0 -0.01487 0)
(0 -0.000376504 0)
(0 -0.00451117 0)
(0 -0.0146578 0)
(0 -0.0149457 0)
(0 -0.0125256 0)
(0 -0.012603 0)
(0 -0.0117007 0)
(0 -0.000573694 0)
(0 -0.0129998 0)
(0 -0.0134615 0)
(0 -0.00798971 0)
(0 -0.0150433 0)
(0 -0.0148889 0)
(0 -0.010669 0)
(0 -0.013459 0)
(0 -0.0150429 0)
(0 -0.000196525 0)
(0 -0.0146215 0)
(0 -0.000825259 0)
(0 -0.00143731 0)
(0 -0.014233 0)
(0 -0.0109833 0)
(0 -0.0012264 0)
(0 -0.00214715 0)
(0 -0.00447261 0)
(0 -0.00565931 0)
(0 -0.00529011 0)
(0 -0.00456717 0)
(0 -0.00480291 0)
(0 -0.00402693 0)
(0 -0.0150697 0)
(0 -0.00826215 0)
(0 -0.00379029 0)
(0 -0.0144285 0)
(0 -0.0140897 0)
(0 -0.00548625 0)
(0 -0.0148879 0)
(0 -0.00612028 0)
(0 -0.00761946 0)
(0 -0.000439757 0)
(0 -0.00849684 0)
(0 -0.0148227 0)
(0 -0.000404174 0)
(0 -0.00651731 0)
(0 -0.0139305 0)
(0 -0.00214243 0)
(0 -0.0133165 0)
(0 -0.0117576 0)
(0 -0.0114448 0)
(0 -0.013823 0)
(0 -0.00770153 0)
(0 -0.0149956 0)
(0 -0.0142581 0)
(0 -0.00041643 0)
(0 -0.00919502 0)
(0 -0.0136873 0)
(0 -0.0127019 0)
(0 -0.0151092 0)
(0 -0.011748 0)
(0 -0.00253239 0)
(0 -0.0100493 0)
(0 -0.0118391 0)
(0 -0.00344275 0)
(0 -0.0139607 0)
(0 -0.00571356 0)
(0 -0.000140754 0)
(0 -0.00780459 0)
(0 -0.00532025 0)
(0 -0.00816576 0)
(0 -0.00893612 0)
(0 -0.0141945 0)
(0 -0.0110283 0)
(0 -0.00749085 0)
(0 -0.00105683 0)
(0 -0.00510426 0)
(0 -0.00906698 0)
(0 -0.00249769 0)
(0 -0.014874 0)
(0 -0.0095368 0)
(0 -0.00209979 0)
(0 -0.0151116 0)
(0 -0.0140673 0)
(0 -0.000255137 0)
(0 -0.015112 0)
(0 -0.000669135 0)
(0 -0.0149711 0)
(0 -0.0105512 0)
(0 -0.00375208 0)
(0 -0.00380391 0)
(0 -0.0118137 0)
(0 -0.00322499 0)
(0 -0.0051105 0)
(0 -0.014826 0)
(0 -0.00454434 0)
(0 -0.0138498 0)
(0 -0.0150624 0)
(0 -0.000527986 0)
(0 -0.000391014 0)
(0 -0.00806318 0)
(0 -0.0135 0)
(0 -0.0132747 0)
(0 -0.00895737 0)
(0 -0.011259 0)
(0 -0.00132115 0)
(0 -0.00408846 0)
(0 -0.00775568 0)
(0 -0.00799415 0)
(0 -0.0150706 0)
(0 -0.00541708 0)
(0 -0.0139232 0)
(0 -0.00480393 0)
(0 -0.00549493 0)
(0 -0.00521378 0)
(0 -0.00521004 0)
(0 -0.014594 0)
(0 -0.00951889 0)
(0 -0.0138976 0)
(0 -0.0145195 0)
(0 -0.0105504 0)
(0 -0.00777133 0)
(0 -0.00675078 0)
(0 -0.00499358 0)
(0 -0.007525 0)
(0 -0.00184386 0)
(0 -0.00649091 0)
(0 -0.0143767 0)
(0 -0.00281832 0)
(0 -0.00260738 0)
(0 -0.00272144 0)
(0 -0.00428484 0)
(0 -0.0150756 0)
(0 -4.22671e-05 0)
(0 -0.0059216 0)
(0 -0.0140606 0)
(0 -0.00449239 0)
(0 -0.0144674 0)
(0 -0.00466261 0)
(0 -0.00268334 0)
(0 -0.0124802 0)
(0 -0.00551292 0)
(0 -0.00666516 0)
(0 -0.00901916 0)
(0 -0.0125131 0)
(0 -0.00907318 0)
(0 -0.0138129 0)
(0 -0.0148128 0)
(0 -0.0112025 0)
(0 -0.0099882 0)
(0 -0.00383583 0)
(0 -0.00372767 0)
(0 -0.0104314 0)
(0 -0.00716111 0)
(0 -0.00285413 0)
(0 -0.0119024 0)
(0 -0.00796862 0)
(0 -0.00221785 0)
(0 -0.00244796 0)
(0 -0.0150788 0)
(0 -0.0150003 0)
(0 -0.000224756 0)
(0 -0.0021828 0)
(0 -0.0145259 0)
(0 -0.0098701 0)
(0 -0.0144387 0)
(0 -0.0138554 0)
(0 -0.0126515 0)
(0 -0.01511 0)
(0 -0.000711794 0)
(0 -0.00245725 0)
(0 -0.00262026 0)
(0 -0.0134832 0)
(0 -0.00808505 0)
(0 -0.00238316 0)
(0 -0.0145855 0)
(0 -0.00545259 0)
(0 -0.00482098 0)
(0 -0.0144985 0)
(0 -0.0151104 0)
(0 -0.0150974 0)
(0 -0.0131002 0)
(0 -0.0114862 0)
(0 -0.0101281 0)
(0 -0.00691733 0)
(0 -0.00209609 0)
(0 -0.000238334 0)
(0 -0.0145437 0)
(0 -0.00217839 0)
(0 -0.000353822 0)
(0 -0.00060818 0)
(0 -0.0151095 0)
(0 -0.0142095 0)
(0 -0.0034431 0)
(0 -0.00178492 0)
(0 -0.0139533 0)
(0 -0.00475904 0)
(0 -0.010227 0)
(0 -0.0142469 0)
(0 -0.00913868 0)
(0 -0.0129019 0)
(0 -0.0035592 0)
(0 -0.0124797 0)
(0 -0.0107815 0)
(0 -0.00725955 0)
(0 -0.0126344 0)
(0 -0.00770031 0)
(0 -0.0056614 0)
(0 -0.000390866 0)
(0 -0.000398126 0)
(0 -0.000147078 0)
(0 -0.013303 0)
(0 -0.00373312 0)
(0 -0.0106757 0)
(0 -0.0149753 0)
(0 -0.00687278 0)
(0 -0.00304657 0)
(0 -0.0148123 0)
(0 -0.000130725 0)
(0 -0.00340162 0)
(0 -0.0147973 0)
(0 -0.00569447 0)
(0 -0.0100701 0)
(0 -0.013321 0)
(0 -0.000148674 0)
(0 -0.0102667 0)
(0 -0.0133647 0)
(0 -0.00979225 0)
(0 -0.0141465 0)
(0 -0.0144839 0)
(0 -0.000233397 0)
(0 -0.0011725 0)
(0 -0.0136548 0)
(0 -0.00351776 0)
(0 -0.000171485 0)
(0 -0.000477446 0)
(0 -0.0119393 0)
(0 -0.00776757 0)
(0 -0.0148732 0)
(0 -0.00912714 0)
(0 -0.0144796 0)
(0 -0.0150916 0)
(0 -0.00806433 0)
(0 -0.00785778 0)
(0 -0.0148122 0)
(0 -0.00881677 0)
(0 -0.0074822 0)
(0 -0.014524 0)
(0 -0.0107004 0)
(0 -0.00375406 0)
(0 -0.00318485 0)
(0 -0.0146417 0)
(0 -0.0128461 0)
(0 -8.5805e-05 0)
(0 -0.000845986 0)
(0 -0.0124863 0)
(0 -0.00431206 0)
(0 -0.00567062 0)
(0 -0.0145677 0)
(0 -0.0150763 0)
(0 -0.00982794 0)
(0 -0.0149531 0)
(0 -0.0106142 0)
(0 -0.0151107 0)
(0 -0.0150355 0)
(0 -0.0151102 0)
(0 -0.0150467 0)
(0 -0.0144641 0)
(0 -0.0115337 0)
(0 -0.00248652 0)
(0 -0.0149318 0)
(0 -0.0129369 0)
(0 -2.1815e-05 0)
(0 -0.00835203 0)
(0 -0.0100462 0)
(0 -0.013668 0)
(0 -0.00397565 0)
(0 -0.000141641 0)
(0 -0.00386643 0)
(0 -0.0149546 0)
(0 -0.01441 0)
(0 -0.00279678 0)
(0 -0.0149846 0)
(0 -0.00818738 0)
(0 -0.00871286 0)
(0 -0.0085443 0)
(0 -0.00762741 0)
(0 -0.0149725 0)
(0 -0.0149434 0)
(0 -2.56344e-05 0)
(0 -0.0144325 0)
(0 -0.0141705 0)
(0 -0.0151091 0)
(0 -0.0151122 0)
(0 -0.014421 0)
(0 -0.0143119 0)
(0 -0.000430814 0)
(0 -0.0151097 0)
(0 -0.0125758 0)
(0 -0.00560078 0)
(0 -0.0100552 0)
(0 -0.0131395 0)
(0 -0.0150228 0)
(0 -0.0149431 0)
(0 -0.00997656 0)
(0 -0.00904565 0)
(0 -0.00731436 0)
(0 -0.00971109 0)
(0 -0.0150806 0)
(0 -0.0107468 0)
(0 -0.00261679 0)
(0 -0.0125605 0)
(0 -0.00537634 0)
(0 -0.000565714 0)
(0 -0.00203217 0)
(0 -0.0125819 0)
(0 -0.00222588 0)
(0 -0.00240489 0)
(0 -0.0135293 0)
(0 -0.012733 0)
(0 -0.0141188 0)
(0 -0.0151019 0)
(0 -0.000446881 0)
(0 -0.0127843 0)
(0 -0.0150251 0)
(0 -0.0144131 0)
(0 -0.00483243 0)
(0 -0.010169 0)
(0 -0.00726346 0)
(0 -0.00805897 0)
(0 -0.00405042 0)
(0 -2.4444e-05 0)
(0 -0.00380242 0)
(0 -0.00484104 0)
(0 -0.0150438 0)
(0 -0.00922234 0)
(0 -0.00406907 0)
(0 -0.0146022 0)
(0 -0.0128601 0)
(0 -0.0145499 0)
(0 -0.0132891 0)
(0 -0.013312 0)
(0 -0.00251344 0)
(0 -0.013484 0)
(0 -0.00502941 0)
(0 -0.00696828 0)
(0 -0.0128242 0)
(0 -0.00374929 0)
(0 -0.0148844 0)
(0 -0.00253924 0)
(0 -0.00344198 0)
(0 -0.00292036 0)
(0 -0.00546088 0)
(0 -0.00815535 0)
(0 -0.00388593 0)
(0 -0.000354547 0)
(0 -0.0138607 0)
(0 -0.0034002 0)
(0 -0.00800471 0)
(0 -0.0099451 0)
(0 -0.0150163 0)
(0 -0.00612171 0)
(0 -0.00197482 0)
(0 -0.0150701 0)
(0 -0.00813674 0)
(0 -0.0151084 0)
(0 -0.0138664 0)
(0 -0.00283843 0)
(0 -0.00362037 0)
(0 -0.0150308 0)
(0 -0.0142498 0)
(0 -0.00399328 0)
(0 -0.00194645 0)
(0 -0.0143588 0)
(0 -0.0144352 0)
(0 -1.28036e-05 0)
(0 -0.00220397 0)
(0 -0.00224665 0)
(0 -0.00540877 0)
(0 -0.00784683 0)
(0 -0.000835246 0)
(0 -0.00967305 0)
(0 -0.00915625 0)
(0 -0.00774747 0)
(0 -0.00247743 0)
(0 -0.000151731 0)
(0 -0.00209751 0)
(0 -0.00477704 0)
(0 -0.00343594 0)
(0 -0.002923 0)
(0 -0.0151039 0)
(0 -0.0150389 0)
(0 -0.00627503 0)
(0 -0.0150894 0)
(0 -0.00589247 0)
(0 -0.0144529 0)
(0 -0.0150403 0)
(0 -0.00532253 0)
(0 -0.0127743 0)
(0 -0.014796 0)
(0 -0.0151069 0)
(0 -0.00668642 0)
(0 -0.0122923 0)
(0 -0.00254827 0)
(0 -0.0149886 0)
(0 -0.00833744 0)
(0 -0.00617887 0)
(0 -0.00728021 0)
(0 -0.00540026 0)
(0 -2.81726e-05 0)
(0 -0.0146656 0)
(0 -0.0147664 0)
(0 -0.0149931 0)
(0 -0.0114657 0)
(0 -6.99181e-05 0)
(0 -0.00239565 0)
(0 -0.000770641 0)
(0 -0.0102752 0)
(0 -0.00754412 0)
(0 -0.0150454 0)
(0 -0.0147869 0)
(0 -0.00867555 0)
(0 -0.0106423 0)
(0 -0.00805172 0)
(0 -0.000734116 0)
(0 -0.0150803 0)
(0 -0.0140171 0)
(0 -7.57405e-05 0)
(0 -0.00210916 0)
(0 -0.0134491 0)
(0 -0.000742553 0)
(0 -0.00833289 0)
(0 -0.00194008 0)
(0 -0.00782359 0)
(0 -0.0096937 0)
(0 -0.000660669 0)
(0 -0.00347688 0)
(0 -0.00988944 0)
(0 -0.0139876 0)
(0 -0.0148031 0)
(0 -0.000288579 0)
(0 -0.0120815 0)
(0 -0.0150953 0)
(0 -0.00498734 0)
(0 -0.0151024 0)
(0 -0.0121591 0)
(0 -0.0149204 0)
(0 -0.000101551 0)
(0 -0.00394308 0)
(0 -0.0128471 0)
(0 -0.014633 0)
(0 -0.0150955 0)
(0 -0.00523901 0)
(0 -0.0138826 0)
(0 -0.00120808 0)
(0 -0.0076063 0)
(0 -0.00338039 0)
(0 -0.00486173 0)
(0 -0.013768 0)
(0 -0.0144223 0)
(0 -0.0141646 0)
(0 -0.0137198 0)
(0 -0.00329003 0)
(0 -0.00612947 0)
(0 -0.0145164 0)
(0 -0.010201 0)
(0 -0.000286661 0)
(0 -0.0148494 0)
(0 -0.0150466 0)
(0 -0.0150448 0)
(0 -0.0138012 0)
(0 -0.000237102 0)
(0 -0.0113266 0)
(0 -0.0151122 0)
(0 -0.0102002 0)
(0 -0.00404357 0)
(0 -0.00806613 0)
(0 -0.0150173 0)
(0 -0.0023473 0)
(0 -0.00348742 0)
(0 -0.0149565 0)
(0 -0.0148262 0)
(0 -0.00873063 0)
(0 -0.00962458 0)
(0 -0.00400236 0)
(0 -0.0150416 0)
(0 -0.0142383 0)
(0 -0.0151098 0)
(0 -0.0147932 0)
(0 -0.00792216 0)
(0 -0.00739116 0)
(0 -0.0123066 0)
(0 -0.0143484 0)
(0 -0.00194762 0)
(0 -0.0134224 0)
(0 -0.00202704 0)
(0 -0.00296971 0)
(0 -0.00392246 0)
(0 -0.0129456 0)
(0 -0.0149411 0)
(0 -0.0144441 0)
(0 -0.0151125 0)
(0 -0.00308179 0)
(0 -0.0147154 0)
(0 -0.0058184 0)
(0 -0.0122346 0)
(0 -0.00295236 0)
(0 -0.0061481 0)
(0 -0.0148254 0)
(0 -0.00386509 0)
(0 -0.0151093 0)
(0 -0.00112639 0)
(0 -0.0150425 0)
(0 -0.0148921 0)
(0 -0.00873851 0)
(0 -0.00198293 0)
(0 -0.00858472 0)
(0 -0.0139026 0)
(0 -0.00176353 0)
(0 -0.00748102 0)
(0 -0.000837226 0)
(0 -0.0151087 0)
(0 -0.0124628 0)
(0 -0.00782087 0)
(0 -0.00585907 0)
(0 -0.0103401 0)
(0 -0.000156124 0)
(0 -0.0125431 0)
(0 -0.00687901 0)
(0 -0.00800636 0)
(0 -0.0151006 0)
(0 -0.0137306 0)
(0 -0.00810485 0)
(0 -0.00554118 0)
(0 -0.0123196 0)
(0 -0.00447829 0)
(0 -0.000410073 0)
(0 -0.0149999 0)
(0 -0.0117794 0)
(0 -0.0148118 0)
(0 -0.0101284 0)
(0 -0.00525877 0)
(0 -0.0150833 0)
(0 -0.0102734 0)
(0 -0.0146438 0)
(0 -0.0149031 0)
(0 -0.00375022 0)
(0 -0.00190361 0)
(0 -0.0150957 0)
(0 -0.000238193 0)
(0 -0.00545184 0)
(0 -0.013826 0)
(0 -0.0150245 0)
(0 -0.0124432 0)
(0 -0.000252142 0)
(0 -0.0082411 0)
(0 -0.000559907 0)
(0 -0.00581878 0)
(0 -0.00202338 0)
(0 -0.013814 0)
(0 -0.000220696 0)
(0 -0.00946222 0)
(0 -0.0151014 0)
(0 -0.000281952 0)
(0 -0.0115336 0)
(0 -0.0046959 0)
(0 -0.00503269 0)
(0 -0.0151007 0)
(0 -0.00797745 0)
(0 -0.00875688 0)
(0 -0.013985 0)
(0 -0.0150916 0)
(0 -0.0028093 0)
(0 -0.000663264 0)
(0 -0.00795107 0)
(0 -0.0143733 0)
(0 -0.0147327 0)
(0 -0.0148061 0)
(0 -0.00189839 0)
(0 -0.000611601 0)
(0 -0.0127993 0)
(0 -0.00284927 0)
(0 -0.00154099 0)
(0 -0.0039768 0)
(0 -0.0116026 0)
(0 -0.0128659 0)
(0 -0.00741291 0)
(0 -0.0127165 0)
(0 -0.0035109 0)
(0 -0.00869856 0)
(0 -0.00399984 0)
(0 -0.0102465 0)
(0 -0.0114057 0)
(0 -0.0145455 0)
(0 -0.0037398 0)
(0 -0.00805058 0)
(0 -0.00289229 0)
(0 -0.00227424 0)
(0 -0.00266715 0)
(0 -0.00492294 0)
(0 -0.0150582 0)
(0 -0.0149762 0)
(0 -0.013656 0)
(0 -0.0149923 0)
(0 -0.00470021 0)
(0 -0.00250152 0)
(0 -0.00571782 0)
(0 -0.00304222 0)
(0 -0.00468586 0)
(0 -0.01183 0)
(0 -0.00919378 0)
(0 -0.0070906 0)
(0 -0.0131532 0)
(0 -0.00328153 0)
(0 -0.00224197 0)
(0 -0.0134629 0)
(0 -0.0116773 0)
(0 -0.00913226 0)
(0 -0.0148889 0)
(0 -0.00513165 0)
(0 -0.0136876 0)
(0 -0.015041 0)
(0 -0.0149811 0)
(0 -0.011708 0)
(0 -0.0139171 0)
(0 -0.0142283 0)
(0 -0.00862311 0)
(0 -0.000462603 0)
(0 -0.0150379 0)
(0 -0.0151017 0)
(0 -0.00286235 0)
(0 -0.0148944 0)
(0 -0.00533653 0)
(0 -0.0101928 0)
(0 -0.0133061 0)
(0 -0.00233854 0)
(0 -0.0148673 0)
(0 -0.0117535 0)
(0 -0.00521948 0)
(0 -0.0142657 0)
(0 -0.00770412 0)
(0 -0.0107835 0)
(0 -0.0150955 0)
(0 -0.00997573 0)
(0 -0.000684613 0)
(0 -0.0138544 0)
(0 -0.0135662 0)
(0 -0.000633301 0)
(0 -0.0146019 0)
(0 -0.0144042 0)
(0 -0.00366547 0)
(0 -0.0109179 0)
(0 -0.0128278 0)
(0 -0.00504252 0)
(0 -0.0115616 0)
(0 -0.00807147 0)
(0 -0.00261993 0)
(0 -0.0150859 0)
(0 -0.00208025 0)
(0 -0.0150033 0)
(0 -0.0149614 0)
(0 -0.0101681 0)
(0 -0.0121317 0)
(0 -0.0101372 0)
(0 -0.00743104 0)
(0 -0.0147959 0)
(0 -0.0127691 0)
(0 -0.0023947 0)
(0 -0.00221006 0)
(0 -0.0119563 0)
(0 -0.0150869 0)
(0 -0.0141417 0)
(0 -0.0150806 0)
(0 -0.0144397 0)
(0 -0.0148014 0)
(0 -0.00027939 0)
(0 -0.00463322 0)
(0 -0.0139271 0)
(0 -0.00023036 0)
(0 -0.0134388 0)
(0 -0.0140785 0)
(0 -0.0150974 0)
(0 -0.00937527 0)
(0 -0.0144398 0)
(0 -0.00493847 0)
(0 -0.0149742 0)
(0 -0.0089325 0)
(0 -0.00288642 0)
(0 -0.0148106 0)
(0 -0.0148418 0)
(0 -0.0101047 0)
(0 -0.00772277 0)
(0 -0.011866 0)
(0 -0.00548867 0)
(0 -0.0141243 0)
(0 -0.00785742 0)
(0 -0.0112443 0)
(0 -0.00796277 0)
(0 -0.00816432 0)
(0 -0.0142531 0)
(0 -0.0021455 0)
(0 -0.000212397 0)
(0 -0.0151095 0)
(0 -0.000119853 0)
(0 -0.0150184 0)
(0 -0.0150015 0)
(0 -0.0150451 0)
(0 -0.00834934 0)
(0 -0.00717298 0)
(0 -0.00379519 0)
(0 -0.00797461 0)
(0 -0.013196 0)
(0 -0.0151054 0)
(0 -0.0144295 0)
(0 -0.0087006 0)
(0 -0.000105667 0)
(0 -0.00816535 0)
(0 -0.0140094 0)
(0 -0.0150882 0)
(0 -0.0118728 0)
(0 -0.0150299 0)
(0 -0.0149674 0)
(0 -0.0151038 0)
(0 -0.013669 0)
(0 -0.00569549 0)
(0 -0.0101649 0)
(0 -0.00549092 0)
(0 -0.000239701 0)
(0 -0.000109319 0)
(0 -0.0138853 0)
(0 -0.00920265 0)
(0 -0.000871339 0)
(0 -0.00541509 0)
(0 -0.00738134 0)
(0 -0.0141634 0)
(0 -0.00545373 0)
(0 -0.0138755 0)
(0 -0.00999251 0)
(0 -0.00246497 0)
(0 -0.0147986 0)
(0 -0.0151079 0)
(0 -0.0137428 0)
(0 -0.00113498 0)
(0 -0.0078304 0)
(0 -0.0052523 0)
(0 -0.00841833 0)
(0 -0.00736818 0)
(0 -0.0102654 0)
(0 -0.0150572 0)
(0 -0.00812533 0)
(0 -0.000528967 0)
(0 -0.0133385 0)
(0 -0.00636239 0)
(0 -0.00489988 0)
(0 -0.00645146 0)
(0 -0.00524208 0)
(0 -0.00851007 0)
(0 -0.0140556 0)
(0 -0.01362 0)
(0 -0.00635087 0)
(0 -0.00464842 0)
(0 -0.00831819 0)
(0 -0.00208335 0)
(0 -0.00205015 0)
(0 -0.000757544 0)
(0 -0.0114933 0)
(0 -0.0150863 0)
(0 -0.00748116 0)
(0 -0.0145982 0)
(0 -0.0118594 0)
(0 -0.0145506 0)
(0 -0.011514 0)
(0 -0.0122045 0)
(0 -0.0151052 0)
(0 -0.0125736 0)
(0 -0.00417824 0)