/*--------------------------------*- C++ -*----------------------------------*\
| =========                 |                                                 |
| \\      /  F ield         | OpenFOAM: The Open Source CFD Toolbox           |
|  \\    /   O peration     | Version:  v2012                                 |
|   \\  /    A nd           | Website:  www.openfoam.com                      |
|    \\/     M anipulation  |                                                 |
\*---------------------------------------------------------------------------*/
FoamFile
{
    version     2.0;
    format      ascii;
    class       volVectorField;
    location    "100";
    object      cellDisplacement;
}
// * * * * * * * * * * * * * * * * * * * * * * * * * * * * * * * * * * * * * //

dimensions      [0 1 0 0 0 0 0];


internalField   nonuniform List<vector> 
18355
(
(0 -1.97885e-06 0)
(0 5.13425e-07 0)
(0 -4.10858e-06 0)
(0 -4.11761e-07 0)
(0 -2.61033e-05 0)
(0 -2.68631e-06 0)
(0 -2.61147e-06 0)
(0 -1.71249e-06 0)
(0 -2.12489e-06 0)
(0 5.13924e-07 0)
(0 -2.51554e-05 0)
(0 5.14544e-07 0)
(0 -5.8178e-07 0)
(0 -6.82805e-06 0)
(0 -6.01037e-06 0)
(0 -1.88776e-06 0)
(0 5.13181e-07 0)
(0 -4.16012e-06 0)
(0 -3.70569e-06 0)
(0 3.5347e-07 0)
(0 -1.29161e-06 0)
(0 -2.69352e-06 0)
(0 5.0713e-07 0)
(0 -2.69164e-05 0)
(0 -2.30741e-05 0)
(0 1.53105e-06 0)
(0 -2.13949e-06 0)
(0 -2.15975e-06 0)
(0 4.82494e-07 0)
(0 -4.04454e-06 0)
(0 -3.30578e-05 0)
(0 -2.35085e-05 0)
(0 -3.89725e-06 0)
(0 2.73119e-06 0)
(0 -4.2329e-07 0)
(0 -1.90462e-06 0)
(0 -2.92171e-06 0)
(0 3.62117e-07 0)
(0 -2.19681e-06 0)
(0 -2.4606e-05 0)
(0 -6.79501e-06 0)
(0 3.56101e-07 0)
(0 -4.1473e-06 0)
(0 5.12896e-07 0)
(0 -2.43021e-07 0)
(0 3.74174e-07 0)
(0 -1.13283e-06 0)
(0 -1.6785e-06 0)
(0 -1.39845e-06 0)
(0 -4.41678e-06 0)
(0 -1.19654e-05 0)
(0 -5.73613e-06 0)
(0 4.71023e-07 0)
(0 4.98168e-07 0)
(0 1.92951e-06 0)
(0 2.32408e-06 0)
(0 -3.73861e-06 0)
(0 -5.83784e-06 0)
(0 5.13015e-07 0)
(0 1.70985e-07 0)
(0 -4.25704e-06 0)
(0 -2.78865e-06 0)
(0 -4.30425e-06 0)
(0 -1.10824e-07 0)
(0 5.14242e-07 0)
(0 -2.17083e-06 0)
(0 5.13904e-07 0)
(0 -4.19961e-07 0)
(0 -1.77359e-06 0)
(0 -2.73921e-06 0)
(0 -5.22223e-07 0)
(0 1.6548e-06 0)
(0 2.05062e-07 0)
(0 -3.36276e-06 0)
(0 -1.65799e-06 0)
(0 -3.12501e-06 0)
(0 4.41241e-07 0)
(0 -2.20637e-05 0)
(0 -1.74065e-05 0)
(0 -5.82511e-06 0)
(0 -1.8905e-06 0)
(0 4.72205e-07 0)
(0 -1.36167e-06 0)
(0 -1.76126e-07 0)
(0 1.07816e-06 0)
(0 -6.43912e-07 0)
(0 5.06942e-07 0)
(0 3.29919e-07 0)
(0 4.90689e-07 0)
(0 4.99317e-07 0)
(0 6.47297e-08 0)
(0 -3.02836e-07 0)
(0 3.21459e-06 0)
(0 -1.61781e-05 0)
(0 5.12876e-07 0)
(0 5.08679e-07 0)
(0 -1.0122e-05 0)
(0 -1.26819e-05 0)
(0 5.02038e-07 0)
(0 5.12984e-07 0)
(0 5.1174e-07 0)
(0 5.13078e-07 0)
(0 -5.4618e-07 0)
(0 3.33813e-07 0)
(0 -2.89701e-05 0)
(0 -1.0566e-06 0)
(0 5.13287e-07 0)
(0 3.69505e-07 0)
(0 -4.85698e-06 0)
(0 4.95815e-07 0)
(0 -3.9694e-06 0)
(0 -2.24006e-06 0)
(0 8.71462e-07 0)
(0 -2.16248e-06 0)
(0 5.00782e-07 0)
(0 2.88551e-06 0)
(0 5.13178e-07 0)
(0 4.41782e-07 0)
(0 5.1286e-07 0)
(0 -5.02661e-07 0)
(0 5.13475e-07 0)
(0 4.48764e-07 0)
(0 -2.26948e-05 0)
(0 -4.79889e-07 0)
(0 -9.84605e-06 0)
(0 3.85787e-07 0)
(0 -5.8742e-06 0)
(0 1.07151e-06 0)
(0 4.85764e-07 0)
(0 -1.46751e-05 0)
(0 -1.12522e-05 0)
(0 3.80215e-07 0)
(0 -3.6046e-06 0)
(0 -1.31816e-05 0)
(0 3.31824e-08 0)
(0 9.63379e-07 0)
(0 -6.52818e-06 0)
(0 -2.60931e-05 0)
(0 -5.3508e-06 0)
(0 4.12458e-08 0)
(0 5.11459e-07 0)
(0 5.02966e-07 0)
(0 -2.744e-06 0)
(0 -3.99749e-06 0)
(0 4.96436e-07 0)
(0 -2.89337e-06 0)
(0 -1.14774e-06 0)
(0 5.05923e-07 0)
(0 -1.35029e-05 0)
(0 5.05143e-07 0)
(0 -2.24248e-05 0)
(0 -2.76936e-06 0)
(0 -4.76422e-07 0)
(0 5.12878e-07 0)
(0 -4.07179e-06 0)
(0 5.3869e-07 0)
(0 3.7085e-07 0)
(0 5.12828e-07 0)
(0 6.4211e-07 0)
(0 -2.38054e-06 0)
(0 -1.41319e-06 0)
(0 -3.67413e-06 0)
(0 -6.58728e-07 0)
(0 -1.32771e-05 0)
(0 -9.79575e-07 0)
(0 5.10746e-07 0)
(0 5.12427e-07 0)
(0 -1.31581e-06 0)
(0 6.85257e-08 0)
(0 -3.87613e-06 0)
(0 2.49977e-07 0)
(0 5.10117e-07 0)
(0 -2.10261e-05 0)
(0 -2.29618e-05 0)
(0 -1.94514e-06 0)
(0 5.12724e-07 0)
(0 -7.8561e-06 0)
(0 2.37892e-06 0)
(0 4.79964e-07 0)
(0 5.10358e-07 0)
(0 3.78247e-07 0)
(0 6.08206e-08 0)
(0 -8.70086e-06 0)
(0 -4.06909e-06 0)
(0 -4.94002e-07 0)
(0 5.12415e-07 0)
(0 5.01193e-07 0)
(0 -1.71765e-07 0)
(0 -1.99111e-06 0)
(0 5.13278e-07 0)
(0 -4.03957e-06 0)
(0 -4.21535e-06 0)
(0 -1.37344e-05 0)
(0 3.43522e-07 0)
(0 1.45279e-07 0)
(0 -2.54499e-06 0)
(0 4.01128e-07 0)
(0 -9.07839e-06 0)
(0 -5.39336e-06 0)
(0 -2.1638e-05 0)
(0 -1.28704e-05 0)
(0 -1.68609e-06 0)
(0 5.10449e-07 0)
(0 5.03803e-07 0)
(0 5.12878e-07 0)
(0 -1.06043e-06 0)
(0 5.13146e-07 0)
(0 5.13993e-07 0)
(0 5.11089e-07 0)
(0 -5.66797e-06 0)
(0 -6.30413e-06 0)
(0 -2.23341e-05 0)
(0 3.28043e-07 0)
(0 -2.79872e-06 0)
(0 -3.56957e-06 0)
(0 4.66392e-07 0)
(0 -7.56334e-08 0)
(0 3.52999e-07 0)
(0 9.15544e-07 0)
(0 -1.36418e-05 0)
(0 4.47199e-07 0)
(0 -4.93605e-06 0)
(0 -2.11971e-07 0)
(0 -6.62749e-06 0)
(0 5.1336e-07 0)
(0 -2.95448e-06 0)
(0 5.17275e-07 0)
(0 5.12074e-07 0)
(0 4.45959e-07 0)
(0 -6.1475e-06 0)
(0 5.32026e-07 0)
(0 -1.81351e-05 0)
(0 -1.93344e-06 0)
(0 5.17097e-07 0)
(0 -3.34232e-06 0)
(0 2.45105e-06 0)
(0 2.68242e-06 0)
(0 4.00831e-07 0)
(0 1.75073e-07 0)
(0 5.12876e-07 0)
(0 -5.10848e-06 0)
(0 9.49233e-08 0)
(0 -3.38987e-05 0)
(0 -3.72107e-06 0)
(0 -2.8445e-06 0)
(0 5.12627e-07 0)
(0 4.60538e-07 0)
(0 5.1299e-07 0)
(0 -4.35256e-06 0)
(0 -1.49076e-06 0)
(0 -1.24581e-05 0)
(0 5.12845e-07 0)
(0 -9.12765e-06 0)
(0 5.10287e-07 0)
(0 -2.99342e-06 0)
(0 5.24723e-07 0)
(0 -8.60466e-08 0)
(0 -2.27971e-06 0)
(0 -3.69004e-06 0)
(0 2.01637e-06 0)
(0 -2.23347e-06 0)
(0 -4.28771e-07 0)
(0 5.09605e-07 0)
(0 -3.37485e-06 0)
(0 -2.29271e-06 0)
(0 -3.09696e-06 0)
(0 6.58051e-07 0)
(0 1.15544e-07 0)
(0 2.60021e-07 0)
(0 4.25073e-07 0)
(0 -2.26277e-06 0)
(0 4.9993e-07 0)
(0 -1.06421e-07 0)
(0 -1.13778e-06 0)
(0 -8.27434e-06 0)
(0 4.01351e-07 0)
(0 -5.92188e-06 0)
(0 -4.84749e-06 0)
(0 5.0956e-07 0)
(0 1.27493e-06 0)
(0 -3.19665e-06 0)
(0 -9.88935e-07 0)
(0 -3.62072e-06 0)
(0 5.1182e-07 0)
(0 -9.45983e-06 0)
(0 -1.52275e-06 0)
(0 1.16553e-06 0)
(0 -1.22716e-06 0)
(0 5.13865e-07 0)
(0 -2.28795e-05 0)
(0 3.49055e-07 0)
(0 -6.29404e-06 0)
(0 -9.10512e-07 0)
(0 5.09831e-07 0)
(0 6.77554e-07 0)
(0 2.20191e-07 0)
(0 -2.01142e-08 0)
(0 -5.11702e-07 0)
(0 -4.37984e-06 0)
(0 4.84587e-07 0)
(0 -4.60407e-06 0)
(0 -4.97194e-07 0)
(0 -2.58648e-06 0)
(0 2.93707e-07 0)
(0 4.7917e-07 0)
(0 -8.45764e-07 0)
(0 -8.80416e-07 0)
(0 -8.23451e-07 0)
(0 -1.39101e-05 0)
(0 3.94975e-07 0)
(0 -3.06137e-05 0)
(0 -3.64886e-06 0)
(0 4.53881e-07 0)
(0 -3.95375e-06 0)
(0 1.27266e-07 0)
(0 3.54548e-07 0)
(0 2.84919e-06 0)
(0 -1.64365e-06 0)
(0 1.11153e-07 0)
(0 5.12792e-07 0)
(0 5.13115e-07 0)
(0 -4.73588e-06 0)
(0 -7.32222e-07 0)
(0 5.12917e-07 0)
(0 -2.7432e-05 0)
(0 1.78949e-07 0)
(0 -1.97234e-05 0)
(0 -4.21072e-07 0)
(0 1.3719e-07 0)
(0 -1.2282e-05 0)
(0 5.11566e-07 0)
(0 -3.61299e-06 0)
(0 7.90755e-08 0)
(0 2.3854e-06 0)
(0 -4.51567e-06 0)
(0 5.16816e-07 0)
(0 5.39812e-07 0)
(0 5.11238e-07 0)
(0 -3.88899e-06 0)
(0 -4.12589e-06 0)
(0 -1.1897e-06 0)
(0 -2.73792e-06 0)
(0 3.59231e-07 0)
(0 4.95084e-07 0)
(0 3.22017e-07 0)
(0 -3.06841e-06 0)
(0 -4.02253e-06 0)
(0 5.09939e-07 0)
(0 3.20232e-07 0)
(0 3.3872e-06 0)
(0 -3.42395e-06 0)
(0 -7.89485e-07 0)
(0 -4.92652e-07 0)
(0 5.12884e-07 0)
(0 5.08227e-07 0)
(0 -1.85882e-06 0)
(0 -1.09205e-05 0)
(0 5.1299e-07 0)
(0 -3.96951e-06 0)
(0 -3.42742e-06 0)
(0 3.73492e-08 0)
(0 -5.94625e-06 0)
(0 -1.64483e-05 0)
(0 5.12296e-07 0)
(0 2.99118e-07 0)
(0 1.44688e-07 0)
(0 4.55673e-07 0)
(0 5.12876e-07 0)
(0 8.22628e-07 0)
(0 -4.40507e-06 0)
(0 -5.4313e-06 0)
(0 -8.85921e-06 0)
(0 3.21457e-07 0)
(0 -9.11687e-06 0)
(0 -1.15593e-06 0)
(0 -5.441e-06 0)
(0 -2.91233e-06 0)
(0 -1.63291e-06 0)
(0 -2.17554e-06 0)
(0 -1.68406e-05 0)
(0 -4.34064e-06 0)
(0 -1.57731e-05 0)
(0 -1.61357e-05 0)
(0 -2.14285e-06 0)
(0 4.44242e-07 0)
(0 4.9287e-07 0)
(0 -6.83266e-06 0)
(0 3.91904e-07 0)
(0 -2.49014e-07 0)
(0 4.84705e-07 0)
(0 -6.82439e-06 0)
(0 -6.66791e-07 0)
(0 -2.73474e-06 0)
(0 3.80256e-07 0)
(0 -3.03726e-06 0)
(0 2.62002e-06 0)
(0 1.87314e-06 0)
(0 -2.51465e-06 0)
(0 4.99467e-07 0)
(0 -5.72346e-06 0)
(0 -8.81712e-07 0)
(0 -3.00343e-06 0)
(0 -1.234e-06 0)
(0 -3.91504e-06 0)
(0 -2.83277e-05 0)
(0 5.17545e-07 0)
(0 -2.66373e-06 0)
(0 -5.78921e-06 0)
(0 5.12768e-07 0)
(0 -3.1945e-06 0)
(0 5.12951e-07 0)
(0 5.12885e-07 0)
(0 2.21899e-08 0)
(0 -1.24336e-06 0)
(0 -2.97629e-05 0)
(0 5.13835e-07 0)
(0 1.96897e-06 0)
(0 -3.7897e-06 0)
(0 5.13369e-07 0)
(0 -4.67401e-07 0)
(0 -1.97307e-05 0)
(0 5.13203e-07 0)
(0 -3.38492e-06 0)
(0 5.16546e-07 0)
(0 -8.05e-06 0)
(0 -6.58808e-06 0)
(0 5.12905e-07 0)
(0 -2.71241e-06 0)
(0 -3.61891e-06 0)
(0 4.22536e-07 0)
(0 -2.8716e-06 0)
(0 2.28552e-07 0)
(0 3.3358e-07 0)
(0 -5.53702e-06 0)
(0 -3.89059e-06 0)
(0 -2.93761e-06 0)
(0 2.27194e-07 0)
(0 1.673e-08 0)
(0 -3.65832e-06 0)
(0 3.40285e-07 0)
(0 -2.76e-06 0)
(0 1.80569e-07 0)
(0 5.13101e-07 0)
(0 -1.20296e-06 0)
(0 -3.06278e-06 0)
(0 6.2427e-07 0)
(0 -6.93504e-06 0)
(0 9.63197e-08 0)
(0 5.08817e-07 0)
(0 5.24686e-07 0)
(0 4.11922e-07 0)
(0 2.07847e-07 0)
(0 1.5767e-07 0)
(0 5.12765e-07 0)
(0 -2.42846e-05 0)
(0 -3.95682e-06 0)
(0 -6.25953e-06 0)
(0 -6.91885e-06 0)
(0 3.11093e-07 0)
(0 -4.13133e-06 0)
(0 -8.76785e-07 0)
(0 5.13008e-07 0)
(0 1.96461e-07 0)
(0 -1.34235e-06 0)
(0 4.95689e-07 0)
(0 2.38452e-07 0)
(0 5.12742e-07 0)
(0 -4.60861e-06 0)
(0 -1.6709e-05 0)
(0 -4.07047e-06 0)
(0 -1.42756e-06 0)
(0 2.96913e-07 0)
(0 5.06173e-07 0)
(0 -4.60407e-06 0)
(0 4.92726e-07 0)
(0 -4.84825e-06 0)
(0 -8.9869e-06 0)
(0 4.38402e-07 0)
(0 1.41413e-07 0)
(0 -4.27502e-06 0)
(0 -2.09288e-05 0)
(0 2.36053e-07 0)
(0 5.10632e-07 0)
(0 -1.99909e-06 0)
(0 -1.11608e-05 0)
(0 3.59997e-07 0)
(0 -1.73874e-06 0)
(0 4.8069e-07 0)
(0 -1.96823e-05 0)
(0 -8.5482e-06 0)
(0 5.13077e-07 0)
(0 1.42435e-07 0)
(0 -2.48143e-06 0)
(0 5.09569e-07 0)
(0 5.10211e-07 0)
(0 5.17653e-07 0)
(0 -8.2854e-06 0)
(0 -1.1268e-05 0)
(0 -2.00267e-06 0)
(0 -1.05365e-06 0)
(0 -2.96108e-06 0)
(0 4.92474e-07 0)
(0 1.90391e-07 0)
(0 3.77545e-07 0)
(0 4.58115e-07 0)
(0 -2.59389e-06 0)
(0 -8.4238e-06 0)
(0 5.10822e-07 0)
(0 5.08832e-07 0)
(0 4.68816e-07 0)
(0 -3.43748e-06 0)
(0 -1.24276e-06 0)
(0 -1.3859e-06 0)
(0 5.12076e-07 0)
(0 5.1333e-07 0)
(0 1.11449e-07 0)
(0 -2.92619e-06 0)
(0 -5.26495e-06 0)
(0 3.53986e-07 0)
(0 5.35945e-08 0)
(0 -4.33679e-06 0)
(0 4.0625e-07 0)
(0 -1.30614e-06 0)
(0 4.96531e-07 0)
(0 -5.29593e-06 0)
(0 -2.8063e-06 0)
(0 2.32748e-06 0)
(0 -4.68752e-07 0)
(0 -8.42234e-07 0)
(0 8.08393e-08 0)
(0 -2.78771e-06 0)
(0 -1.41861e-06 0)
(0 5.10365e-07 0)
(0 -1.28577e-05 0)
(0 -3.7047e-06 0)
(0 -1.70264e-06 0)
(0 -1.43642e-05 0)
(0 -1.76941e-07 0)
(0 -3.56199e-06 0)
(0 -5.65621e-06 0)
(0 -1.29076e-05 0)
(0 2.36958e-07 0)
(0 -3.34522e-06 0)
(0 -2.13361e-06 0)
(0 -6.16682e-06 0)
(0 3.34077e-07 0)
(0 -1.27366e-06 0)
(0 -1.70145e-05 0)
(0 -2.62276e-06 0)
(0 -4.47769e-06 0)
(0 -2.74176e-05 0)
(0 1.56035e-07 0)
(0 -9.76003e-06 0)
(0 -2.74509e-07 0)
(0 -2.65217e-06 0)
(0 3.21265e-07 0)
(0 -1.59591e-06 0)
(0 5.00951e-07 0)
(0 -1.00966e-05 0)
(0 5.12876e-07 0)
(0 -1.28023e-06 0)
(0 -1.66448e-06 0)
(0 -2.40458e-08 0)
(0 1.58213e-07 0)
(0 4.85523e-07 0)
(0 -1.34669e-05 0)
(0 -5.98914e-06 0)
(0 -8.01488e-06 0)
(0 -5.05066e-06 0)
(0 -2.3989e-06 0)
(0 -1.07786e-06 0)
(0 -4.35054e-07 0)
(0 2.67378e-07 0)
(0 4.9996e-07 0)
(0 -1.15175e-06 0)
(0 2.48041e-06 0)
(0 5.11587e-07 0)
(0 3.99482e-07 0)
(0 -2.16919e-05 0)
(0 -5.15291e-06 0)
(0 -2.70944e-07 0)
(0 5.02569e-07 0)
(0 -2.10452e-06 0)
(0 -5.09962e-07 0)
(0 2.79779e-07 0)
(0 2.1581e-07 0)
(0 -3.49167e-07 0)
(0 -5.70636e-07 0)
(0 5.10825e-07 0)
(0 -1.2374e-05 0)
(0 -1.06467e-06 0)
(0 5.13047e-07 0)
(0 1.4929e-07 0)
(0 4.56033e-07 0)
(0 2.44836e-07 0)
(0 3.91244e-07 0)
(0 -8.64517e-06 0)
(0 2.6561e-06 0)
(0 -2.15898e-05 0)
(0 -4.02819e-06 0)
(0 4.91672e-07 0)
(0 4.92753e-07 0)
(0 5.12263e-07 0)
(0 4.32348e-07 0)
(0 5.13791e-07 0)
(0 5.12332e-07 0)
(0 2.53606e-07 0)
(0 -1.82269e-06 0)
(0 5.12813e-07 0)
(0 4.99137e-07 0)
(0 -2.54555e-05 0)
(0 4.48581e-07 0)
(0 5.1203e-07 0)
(0 4.36393e-07 0)
(0 -1.18429e-06 0)
(0 -1.02669e-09 0)
(0 -1.24993e-05 0)
(0 -1.43151e-05 0)
(0 -1.4926e-05 0)
(0 -9.03919e-07 0)
(0 -3.99603e-06 0)
(0 5.12876e-07 0)
(0 -2.07703e-06 0)
(0 -1.45998e-06 0)
(0 5.11716e-07 0)
(0 -4.25045e-06 0)
(0 -7.48969e-07 0)
(0 4.55726e-07 0)
(0 -3.62911e-06 0)
(0 -5.97077e-06 0)
(0 5.09982e-07 0)
(0 3.32289e-06 0)
(0 -1.44375e-06 0)
(0 -1.14924e-05 0)
(0 5.12256e-07 0)
(0 -1.33179e-05 0)
(0 -7.29485e-06 0)
(0 -3.87627e-07 0)
(0 -3.23283e-06 0)
(0 -1.1163e-06 0)
(0 -1.43796e-06 0)
(0 4.9954e-07 0)
(0 -4.02288e-06 0)
(0 -2.99922e-05 0)
(0 5.12936e-07 0)
(0 -7.2314e-06 0)
(0 5.11587e-07 0)
(0 5.26558e-07 0)
(0 4.29936e-07 0)
(0 5.4316e-08 0)
(0 -4.01472e-06 0)
(0 -4.44434e-06 0)
(0 5.11102e-07 0)
(0 -1.65697e-06 0)
(0 -3.4662e-06 0)
(0 -5.57621e-07 0)
(0 -8.48845e-06 0)
(0 4.03681e-07 0)
(0 4.69425e-07 0)
(0 -1.17365e-06 0)
(0 5.12871e-07 0)
(0 2.93153e-07 0)
(0 -2.60956e-06 0)
(0 -6.67805e-07 0)
(0 -4.42266e-07 0)
(0 -2.81599e-06 0)
(0 2.39293e-07 0)
(0 -1.68897e-05 0)
(0 4.81238e-07 0)
(0 -9.76517e-07 0)
(0 -4.85955e-07 0)
(0 5.9904e-07 0)
(0 5.10504e-07 0)
(0 5.17941e-07 0)
(0 -4.06869e-06 0)
(0 -2.33205e-05 0)
(0 -2.99401e-06 0)
(0 -4.66284e-07 0)
(0 -2.90264e-06 0)
(0 5.11829e-07 0)
(0 4.51099e-07 0)
(0 -2.81415e-06 0)
(0 -4.90587e-06 0)
(0 -2.04806e-06 0)
(0 -1.30728e-06 0)
(0 -1.74052e-05 0)
(0 2.97035e-07 0)
(0 -4.47041e-06 0)
(0 5.09581e-07 0)
(0 -3.8932e-06 0)
(0 -3.14005e-06 0)
(0 4.902e-07 0)
(0 5.10545e-07 0)
(0 -2.52128e-06 0)
(0 4.61349e-07 0)
(0 -5.8406e-07 0)
(0 -3.42297e-06 0)
(0 -3.04231e-06 0)
(0 -1.84179e-07 0)
(0 5.19775e-07 0)
(0 -3.93402e-06 0)
(0 5.13344e-07 0)
(0 -6.52618e-07 0)
(0 4.79114e-07 0)
(0 4.65681e-07 0)
(0 -8.21391e-06 0)
(0 5.13919e-07 0)
(0 -4.2846e-06 0)
(0 5.01509e-07 0)
(0 -2.09295e-05 0)
(0 5.09949e-07 0)
(0 5.13217e-07 0)
(0 -2.86422e-06 0)
(0 5.13657e-07 0)
(0 -2.23148e-06 0)
(0 -1.20148e-06 0)
(0 4.91463e-07 0)
(0 3.65448e-07 0)
(0 5.13695e-07 0)
(0 -3.2051e-06 0)
(0 4.9953e-07 0)
(0 -5.75875e-06 0)
(0 4.90796e-07 0)
(0 -2.24814e-05 0)
(0 -1.25035e-06 0)
(0 -1.42393e-05 0)
(0 -4.24529e-06 0)
(0 4.79751e-06 0)
(0 -4.89188e-06 0)
(0 3.5382e-07 0)
(0 4.27205e-07 0)
(0 -3.649e-06 0)
(0 5.12496e-07 0)
(0 -8.28635e-06 0)
(0 -4.03009e-06 0)
(0 -1.28659e-07 0)
(0 -8.72741e-07 0)
(0 -7.95354e-07 0)
(0 4.9553e-07 0)
(0 -4.15156e-06 0)
(0 2.07755e-06 0)
(0 -1.78165e-06 0)
(0 5.04427e-07 0)
(0 -1.26833e-06 0)
(0 -3.99542e-06 0)
(0 -4.46143e-06 0)
(0 -1.70056e-06 0)
(0 -5.70147e-06 0)
(0 5.12877e-07 0)
(0 -4.15496e-06 0)
(0 4.82138e-07 0)
(0 1.62504e-07 0)
(0 3.85897e-07 0)
(0 5.17293e-07 0)
(0 5.13046e-07 0)
(0 7.43266e-07 0)
(0 -6.98117e-06 0)
(0 -4.17614e-06 0)
(0 -4.50564e-06 0)
(0 -9.84074e-06 0)
(0 5.1087e-07 0)
(0 -1.79605e-06 0)
(0 -7.78173e-06 0)
(0 3.76178e-06 0)
(0 4.98401e-07 0)
(0 -1.92554e-06 0)
(0 -3.01486e-05 0)
(0 -8.99411e-07 0)
(0 -2.16958e-06 0)
(0 4.97724e-07 0)
(0 5.13816e-07 0)
(0 -2.46496e-06 0)
(0 -6.67001e-06 0)
(0 5.00949e-07 0)
(0 -3.09218e-06 0)
(0 5.1005e-07 0)
(0 5.12672e-07 0)
(0 5.15481e-07 0)
(0 4.69792e-07 0)
(0 4.69394e-07 0)
(0 2.94267e-07 0)
(0 -1.36654e-05 0)
(0 8.68904e-07 0)
(0 -3.65006e-06 0)
(0 -3.52781e-06 0)
(0 -2.98269e-06 0)
(0 3.07887e-06 0)
(0 -2.92065e-06 0)
(0 4.71221e-07 0)
(0 5.1189e-07 0)
(0 -7.98143e-06 0)
(0 3.96789e-07 0)
(0 2.21019e-06 0)
(0 -2.72151e-06 0)
(0 -1.15232e-06 0)
(0 1.97583e-06 0)
(0 -1.39473e-06 0)
(0 -5.78522e-06 0)
(0 5.00054e-07 0)
(0 5.12879e-07 0)
(0 -5.8835e-07 0)
(0 5.13444e-07 0)
(0 1.90726e-07 0)
(0 5.12218e-07 0)
(0 2.83228e-07 0)
(0 3.48861e-07 0)
(0 5.08309e-07 0)
(0 -3.70296e-06 0)
(0 5.09253e-07 0)
(0 -9.93345e-07 0)
(0 5.2604e-07 0)
(0 -2.42915e-05 0)
(0 -5.54256e-06 0)
(0 -1.20568e-06 0)
(0 -1.38065e-05 0)
(0 3.39771e-08 0)
(0 -3.37564e-06 0)
(0 -4.039e-07 0)
(0 -8.76252e-07 0)
(0 5.55521e-07 0)
(0 -5.98346e-08 0)
(0 -1.5505e-07 0)
(0 2.48506e-06 0)
(0 2.65447e-07 0)
(0 -2.85418e-05 0)
(0 -6.68829e-06 0)
(0 -1.8369e-06 0)
(0 -2.90981e-06 0)
(0 1.50844e-07 0)
(0 4.97394e-07 0)
(0 -3.15099e-06 0)
(0 -2.56308e-05 0)
(0 -3.80998e-06 0)
(0 2.7624e-07 0)
(0 -1.94732e-06 0)
(0 -4.82763e-06 0)
(0 4.62109e-07 0)
(0 -6.44065e-06 0)
(0 5.09546e-07 0)
(0 -9.10936e-06 0)
(0 5.08001e-07 0)
(0 -1.98688e-05 0)
(0 -2.96269e-06 0)
(0 -3.08012e-06 0)
(0 -5.45668e-06 0)
(0 -1.2119e-06 0)
(0 8.20559e-07 0)
(0 -3.16785e-06 0)
(0 5.08101e-07 0)
(0 -5.06294e-06 0)
(0 5.22431e-07 0)
(0 5.14235e-07 0)
(0 -2.27386e-06 0)
(0 2.43545e-06 0)
(0 1.74022e-06 0)
(0 -9.13627e-06 0)
(0 5.10927e-07 0)
(0 -4.79701e-06 0)
(0 5.05918e-07 0)
(0 5.1201e-07 0)
(0 -5.79217e-07 0)
(0 5.11707e-07 0)
(0 2.40034e-06 0)
(0 -4.0345e-06 0)
(0 5.12698e-07 0)
(0 5.09481e-07 0)
(0 -1.50922e-06 0)
(0 -9.51024e-07 0)
(0 -4.01417e-06 0)
(0 -3.50642e-06 0)
(0 -2.57186e-05 0)
(0 1.05428e-07 0)
(0 5.08583e-07 0)
(0 -3.17683e-06 0)
(0 4.91322e-07 0)
(0 5.12837e-07 0)
(0 -1.01471e-07 0)
(0 -3.70379e-07 0)
(0 -1.29755e-05 0)
(0 5.13192e-07 0)
(0 2.35719e-07 0)
(0 -9.68057e-07 0)
(0 -2.77228e-06 0)
(0 -3.58001e-06 0)
(0 5.06434e-07 0)
(0 -4.35086e-06 0)
(0 5.12079e-07 0)
(0 3.03742e-07 0)
(0 1.11366e-06 0)
(0 -8.89035e-07 0)
(0 2.26888e-07 0)
(0 -4.39343e-06 0)
(0 -3.22262e-06 0)
(0 1.00283e-06 0)
(0 -6.41103e-06 0)
(0 -2.65115e-05 0)
(0 5.12857e-07 0)
(0 2.41658e-06 0)
(0 -7.8645e-06 0)
(0 5.14278e-07 0)
(0 -3.74982e-06 0)
(0 -3.39764e-06 0)
(0 1.15034e-07 0)
(0 4.87962e-07 0)
(0 -6.67528e-06 0)
(0 5.11052e-07 0)
(0 -3.04664e-06 0)
(0 -9.67201e-06 0)
(0 -2.02831e-06 0)
(0 5.12975e-07 0)
(0 4.95381e-07 0)
(0 5.11832e-07 0)
(0 1.62105e-06 0)
(0 -5.16265e-07 0)
(0 -3.69177e-06 0)
(0 5.11718e-07 0)
(0 -1.41672e-05 0)
(0 2.58835e-07 0)
(0 1.44082e-07 0)
(0 5.07363e-07 0)
(0 3.78916e-06 0)
(0 2.8892e-06 0)
(0 4.73848e-07 0)
(0 -4.05365e-06 0)
(0 5.12936e-07 0)
(0 -2.38288e-05 0)
(0 5.13257e-07 0)
(0 9.3755e-07 0)
(0 -3.03457e-06 0)
(0 -1.62777e-06 0)
(0 4.77909e-07 0)
(0 5.13484e-07 0)
(0 -1.79486e-06 0)
(0 -1.25665e-05 0)
(0 -2.69697e-06 0)
(0 -2.88657e-05 0)
(0 -1.75747e-05 0)
(0 -3.1234e-07 0)
(0 -4.69452e-07 0)
(0 -3.12517e-06 0)
(0 4.69345e-07 0)
(0 -2.30147e-06 0)
(0 5.11018e-07 0)
(0 -2.40862e-05 0)
(0 -7.58801e-06 0)
(0 4.46515e-07 0)
(0 5.09431e-07 0)
(0 4.51538e-07 0)
(0 -3.79469e-06 0)
(0 5.02137e-07 0)
(0 -2.4501e-05 0)
(0 5.12026e-07 0)
(0 -2.60075e-06 0)
(0 6.11825e-08 0)
(0 -5.91214e-06 0)
(0 5.15803e-07 0)
(0 -4.01534e-06 0)
(0 -3.17735e-06 0)
(0 -3.66766e-06 0)
(0 -4.12408e-06 0)
(0 -3.40436e-07 0)
(0 4.90356e-07 0)
(0 2.98733e-07 0)
(0 5.06055e-07 0)
(0 -3.18588e-07 0)
(0 -1.49007e-05 0)
(0 -3.48336e-06 0)
(0 -4.81537e-07 0)
(0 1.58975e-06 0)
(0 3.13201e-06 0)
(0 -2.05757e-06 0)
(0 1.28719e-07 0)
(0 -2.28538e-05 0)
(0 5.12876e-07 0)
(0 -1.73499e-07 0)
(0 -9.58704e-07 0)
(0 -2.56894e-06 0)
(0 5.12054e-07 0)
(0 -2.32148e-06 0)
(0 -1.91321e-06 0)
(0 -3.80636e-06 0)
(0 -3.52665e-07 0)
(0 5.14455e-07 0)
(0 -4.60247e-06 0)
(0 5.01772e-07 0)
(0 -7.42701e-06 0)
(0 -3.83514e-06 0)
(0 4.61899e-07 0)
(0 -6.32583e-06 0)
(0 -4.03535e-06 0)
(0 -9.7869e-07 0)
(0 1.74645e-08 0)
(0 -2.46955e-05 0)
(0 3.61916e-07 0)
(0 -7.69935e-07 0)
(0 5.12776e-07 0)
(0 -3.15197e-06 0)
(0 4.91267e-07 0)
(0 -2.25612e-07 0)
(0 -6.84433e-07 0)
(0 -1.14164e-06 0)
(0 -3.01386e-06 0)
(0 4.55404e-07 0)
(0 -1.62522e-05 0)
(0 5.12873e-07 0)
(0 -5.91153e-06 0)
(0 -3.45571e-06 0)
(0 5.11234e-07 0)
(0 -6.57762e-06 0)
(0 -1.73569e-05 0)
(0 4.90441e-07 0)
(0 -4.41559e-06 0)
(0 4.10155e-07 0)
(0 5.12905e-07 0)
(0 -4.83802e-06 0)
(0 2.38765e-07 0)
(0 5.12899e-07 0)
(0 -2.21238e-06 0)
(0 -4.11378e-06 0)
(0 -1.57677e-05 0)
(0 -1.45708e-05 0)
(0 -8.2383e-06 0)
(0 -3.92374e-06 0)
(0 -1.28549e-07 0)
(0 -2.49489e-05 0)
(0 -1.37221e-06 0)
(0 5.00902e-07 0)
(0 3.1455e-06 0)
(0 5.12933e-07 0)
(0 -2.04562e-05 0)
(0 -5.08878e-06 0)
(0 2.63469e-07 0)
(0 5.12954e-07 0)
(0 4.14785e-06 0)
(0 -3.40141e-06 0)
(0 -8.3012e-06 0)
(0 -8.79753e-06 0)
(0 -5.16249e-07 0)
(0 4.55051e-07 0)
(0 7.41884e-08 0)
(0 -1.81155e-05 0)
(0 -1.1825e-06 0)
(0 2.66799e-07 0)
(0 -1.75159e-06 0)
(0 4.35651e-07 0)
(0 5.06636e-07 0)
(0 -2.48081e-05 0)
(0 5.12245e-07 0)
(0 -3.34105e-06 0)
(0 -6.57449e-06 0)
(0 -4.43962e-06 0)
(0 5.12247e-07 0)
(0 -1.06856e-06 0)
(0 1.86701e-06 0)
(0 -1.57731e-06 0)
(0 -6.30789e-06 0)
(0 -4.15591e-06 0)
(0 -9.53597e-07 0)
(0 5.18408e-07 0)
(0 5.13482e-07 0)
(0 5.11121e-07 0)
(0 8.34385e-07 0)
(0 -2.79525e-06 0)
(0 -5.13928e-06 0)
(0 -3.30065e-06 0)
(0 -1.36976e-05 0)
(0 5.09202e-07 0)
(0 5.12751e-07 0)
(0 -2.4039e-06 0)
(0 -1.53171e-05 0)
(0 5.13814e-07 0)
(0 2.24915e-06 0)
(0 8.88441e-07 0)
(0 5.02236e-07 0)
(0 -2.80002e-06 0)
(0 -4.40608e-08 0)
(0 -2.04239e-06 0)
(0 -1.27106e-05 0)
(0 5.16154e-07 0)
(0 -3.93732e-06 0)
(0 -3.14974e-07 0)
(0 2.20222e-06 0)
(0 -1.23346e-05 0)
(0 -6.42405e-06 0)
(0 -6.90073e-07 0)
(0 1.9076e-08 0)
(0 -7.59299e-06 0)
(0 2.33606e-06 0)
(0 5.10658e-07 0)
(0 -2.34807e-06 0)
(0 1.80334e-06 0)
(0 4.95112e-07 0)
(0 -5.82622e-06 0)
(0 -4.06941e-06 0)
(0 -9.00532e-06 0)
(0 4.30133e-07 0)
(0 -3.83933e-06 0)
(0 3.80571e-07 0)
(0 -8.75044e-06 0)
(0 -9.48489e-06 0)
(0 5.08474e-07 0)
(0 8.55392e-07 0)
(0 4.54958e-07 0)
(0 -1.92789e-06 0)
(0 7.08122e-07 0)
(0 -1.735e-06 0)
(0 -3.41271e-06 0)
(0 -2.39224e-06 0)
(0 -7.29208e-06 0)
(0 3.61579e-06 0)
(0 -5.45341e-06 0)
(0 -4.93496e-06 0)
(0 -7.97344e-07 0)
(0 -2.46609e-06 0)
(0 -7.59054e-07 0)
(0 2.10182e-06 0)
(0 -7.38558e-07 0)
(0 5.21855e-07 0)
(0 4.87961e-07 0)
(0 2.94967e-07 0)
(0 4.4619e-07 0)
(0 -1.10286e-06 0)
(0 -6.33385e-07 0)
(0 4.742e-07 0)
(0 2.64861e-07 0)
(0 9.07712e-07 0)
(0 -2.96911e-06 0)
(0 -7.32109e-07 0)
(0 4.4854e-07 0)
(0 2.96585e-07 0)
(0 -2.59698e-07 0)
(0 -2.14904e-06 0)
(0 -6.5659e-06 0)
(0 -4.41417e-06 0)
(0 4.7561e-06 0)
(0 -1.13823e-05 0)
(0 5.0935e-07 0)
(0 5.09732e-07 0)
(0 5.12885e-07 0)
(0 -2.03786e-06 0)
(0 2.42663e-06 0)
(0 5.68274e-07 0)
(0 2.73009e-06 0)
(0 5.13962e-07 0)
(0 4.69047e-07 0)
(0 -1.87952e-05 0)
(0 5.12914e-07 0)
(0 -7.48093e-07 0)
(0 -3.37151e-06 0)
(0 -2.41486e-05 0)
(0 -3.18283e-07 0)
(0 -3.44651e-06 0)
(0 2.34784e-07 0)
(0 -1.90787e-06 0)
(0 4.36773e-07 0)
(0 3.08499e-06 0)
(0 2.7688e-06 0)
(0 7.38965e-08 0)
(0 -2.55856e-06 0)
(0 2.55989e-06 0)
(0 -4.67579e-06 0)
(0 -3.64065e-07 0)
(0 3.50415e-06 0)
(0 3.56821e-07 0)
(0 -2.32523e-06 0)
(0 -6.81786e-06 0)
(0 -3.09554e-06 0)
(0 -5.46953e-06 0)
(0 4.15078e-07 0)
(0 -1.01261e-06 0)
(0 -2.1862e-06 0)
(0 -3.9643e-06 0)
(0 5.12754e-07 0)
(0 4.56732e-07 0)
(0 -2.36151e-06 0)
(0 -3.68977e-07 0)
(0 -5.39118e-06 0)
(0 5.12664e-07 0)
(0 4.88646e-07 0)
(0 5.13616e-07 0)
(0 9.55776e-08 0)
(0 -7.39545e-06 0)
(0 -1.28525e-06 0)
(0 -7.17418e-07 0)
(0 2.37883e-07 0)
(0 5.16069e-07 0)
(0 -9.36718e-07 0)
(0 -3.00309e-06 0)
(0 -3.98107e-06 0)
(0 4.55618e-07 0)
(0 -3.01263e-06 0)
(0 5.12884e-07 0)
(0 -1.52109e-05 0)
(0 -2.94966e-06 0)
(0 5.1077e-07 0)
(0 -1.49095e-06 0)
(0 -2.76242e-06 0)
(0 3.76876e-07 0)
(0 -2.7535e-06 0)
(0 -2.16851e-06 0)
(0 4.66425e-07 0)
(0 4.68566e-07 0)
(0 -3.4351e-06 0)
(0 4.41237e-07 0)
(0 1.05225e-07 0)
(0 5.12861e-07 0)
(0 4.83703e-07 0)
(0 -5.99897e-06 0)
(0 5.14046e-07 0)
(0 -2.70258e-06 0)
(0 1.64289e-07 0)
(0 -3.57179e-06 0)
(0 -2.59693e-06 0)
(0 5.13256e-07 0)
(0 1.06006e-07 0)
(0 -3.1697e-06 0)
(0 -4.10277e-06 0)
(0 5.15886e-07 0)
(0 -2.16234e-06 0)
(0 3.85775e-07 0)
(0 4.19536e-07 0)
(0 3.66343e-07 0)
(0 -1.28647e-05 0)
(0 -1.47398e-06 0)
(0 4.27634e-07 0)
(0 4.41353e-07 0)
(0 -6.95486e-06 0)
(0 -3.75804e-07 0)
(0 -2.97712e-07 0)
(0 -6.38133e-06 0)
(0 -9.68199e-06 0)
(0 -2.33537e-05 0)
(0 -1.52755e-05 0)
(0 -2.03387e-06 0)
(0 2.33107e-07 0)
(0 4.76637e-07 0)
(0 -1.78641e-06 0)
(0 -1.35541e-06 0)
(0 5.25274e-07 0)
(0 1.95746e-06 0)
(0 5.05489e-07 0)
(0 1.02259e-07 0)
(0 1.80524e-07 0)
(0 3.63933e-06 0)
(0 -5.61138e-06 0)
(0 -3.01794e-06 0)
(0 3.00876e-06 0)
(0 1.40583e-06 0)
(0 5.12877e-07 0)
(0 3.4103e-07 0)
(0 5.01112e-07 0)
(0 -1.75208e-06 0)
(0 -1.18021e-06 0)
(0 -2.79859e-06 0)
(0 -9.864e-07 0)
(0 5.17503e-07 0)
(0 2.0593e-07 0)
(0 -1.19853e-05 0)
(0 2.91311e-06 0)
(0 5.10205e-07 0)
(0 5.01614e-07 0)
(0 1.38604e-07 0)
(0 -1.53744e-06 0)
(0 -6.55709e-06 0)
(0 5.11627e-07 0)
(0 -6.4576e-06 0)
(0 -1.51911e-06 0)
(0 -6.43743e-06 0)
(0 3.01195e-07 0)
(0 -1.53071e-05 0)
(0 -3.47523e-06 0)
(0 5.16108e-07 0)
(0 -2.65748e-07 0)
(0 5.12861e-07 0)
(0 5.08688e-07 0)
(0 5.079e-07 0)
(0 5.12879e-07 0)
(0 -1.32955e-06 0)
(0 1.33404e-07 0)
(0 2.66067e-07 0)
(0 2.4084e-07 0)
(0 5.12609e-07 0)
(0 -7.49997e-06 0)
(0 -4.10437e-07 0)
(0 -2.60336e-05 0)
(0 1.23083e-06 0)
(0 5.15683e-07 0)
(0 -2.73278e-05 0)
(0 5.07906e-07 0)
(0 -1.16793e-06 0)
(0 7.255e-07 0)
(0 3.3277e-07 0)
(0 -3.79781e-06 0)
(0 5.0653e-07 0)
(0 -6.24102e-06 0)
(0 4.98253e-07 0)
(0 -1.08378e-05 0)
(0 2.59699e-06 0)
(0 5.0514e-07 0)
(0 -2.05449e-05 0)
(0 -3.82353e-06 0)
(0 -3.26585e-06 0)
(0 -1.49083e-05 0)
(0 -5.79403e-07 0)
(0 4.70469e-07 0)
(0 -2.96285e-06 0)
(0 -8.32986e-07 0)
(0 4.68094e-07 0)
(0 -6.57771e-06 0)
(0 5.12673e-07 0)
(0 9.78848e-07 0)
(0 -3.13677e-06 0)
(0 -9.80623e-06 0)
(0 -4.09701e-06 0)
(0 -1.43499e-05 0)
(0 2.31552e-07 0)
(0 -3.69826e-08 0)
(0 5.15459e-07 0)
(0 -3.96791e-06 0)
(0 -1.99457e-06 0)
(0 -4.35931e-07 0)
(0 5.13336e-07 0)
(0 4.3118e-07 0)
(0 -1.05767e-05 0)
(0 2.47058e-06 0)
(0 -2.87918e-05 0)
(0 -9.57848e-07 0)
(0 5.12442e-07 0)
(0 4.92816e-07 0)
(0 4.90777e-07 0)
(0 -1.60781e-05 0)
(0 -1.19257e-06 0)
(0 -1.18438e-06 0)
(0 -2.70457e-05 0)
(0 -3.31586e-07 0)
(0 5.12529e-07 0)
(0 1.88819e-06 0)
(0 -7.06056e-08 0)
(0 4.49361e-07 0)
(0 4.51e-08 0)
(0 1.22001e-07 0)
(0 5.09155e-07 0)
(0 -2.73172e-06 0)
(0 -3.56265e-06 0)
(0 3.2132e-07 0)
(0 -1.31316e-06 0)
(0 -7.46658e-06 0)
(0 3.65873e-07 0)
(0 -4.93933e-06 0)
(0 -4.38473e-07 0)
(0 1.61172e-06 0)
(0 -5.1889e-06 0)
(0 -3.44071e-06 0)
(0 5.12897e-07 0)
(0 -2.714e-07 0)
(0 -3.04473e-06 0)
(0 -6.9712e-07 0)
(0 5.13077e-07 0)
(0 3.63773e-07 0)
(0 5.10706e-07 0)
(0 -4.07726e-06 0)
(0 4.92333e-07 0)
(0 -1.53676e-05 0)
(0 2.08205e-07 0)
(0 -1.17877e-07 0)
(0 -4.10541e-06 0)
(0 5.25409e-07 0)
(0 -1.82433e-05 0)
(0 -1.68486e-06 0)
(0 -4.00066e-06 0)
(0 -5.51179e-06 0)
(0 5.08909e-07 0)
(0 -3.1353e-06 0)
(0 9.56671e-07 0)
(0 5.10887e-07 0)
(0 -1.95881e-06 0)
(0 5.13364e-07 0)
(0 -1.30045e-05 0)
(0 4.9556e-07 0)
(0 1.43894e-07 0)
(0 4.47289e-07 0)
(0 -1.42775e-06 0)
(0 -4.2773e-06 0)
(0 -9.53249e-07 0)
(0 8.28611e-07 0)
(0 1.42769e-07 0)
(0 3.55103e-07 0)
(0 1.77465e-06 0)
(0 -5.4816e-06 0)
(0 5.10357e-07 0)
(0 5.07002e-07 0)
(0 -8.02048e-06 0)
(0 3.20862e-07 0)
(0 4.31964e-07 0)
(0 -4.18556e-06 0)
(0 5.12876e-07 0)
(0 -3.59838e-07 0)
(0 -1.36531e-06 0)
(0 1.66049e-06 0)
(0 -4.59839e-06 0)
(0 -2.38209e-05 0)
(0 -7.29624e-07 0)
(0 4.00612e-07 0)
(0 -5.46805e-07 0)
(0 -1.61881e-07 0)
(0 5.20377e-07 0)
(0 4.96552e-07 0)
(0 4.55872e-07 0)
(0 5.1328e-07 0)
(0 -4.77164e-06 0)
(0 5.22518e-08 0)
(0 5.24355e-07 0)
(0 -7.38026e-06 0)
(0 -3.51179e-06 0)
(0 4.03589e-07 0)
(0 -1.02435e-07 0)
(0 -4.06062e-06 0)
(0 4.79431e-07 0)
(0 3.21978e-07 0)
(0 4.76527e-07 0)
(0 4.21166e-07 0)
(0 -4.45938e-06 0)
(0 4.44684e-07 0)
(0 -1.14904e-05 0)
(0 -5.12782e-06 0)
(0 7.66487e-08 0)
(0 5.14872e-07 0)
(0 7.22394e-09 0)
(0 4.85397e-07 0)
(0 -4.80873e-08 0)
(0 -4.20462e-06 0)
(0 3.85068e-07 0)
(0 -2.93359e-07 0)
(0 6.08043e-07 0)
(0 -2.64383e-06 0)
(0 -2.19047e-06 0)
(0 -8.50072e-06 0)
(0 5.39732e-07 0)
(0 -4.23912e-07 0)
(0 4.78679e-07 0)
(0 -5.12456e-06 0)
(0 -2.76256e-07 0)
(0 5.13105e-07 0)
(0 2.61727e-06 0)
(0 -5.17358e-06 0)
(0 4.08652e-07 0)
(0 2.91329e-06 0)
(0 7.69325e-08 0)
(0 -1.73719e-05 0)
(0 3.30636e-07 0)
(0 5.125e-07 0)
(0 -3.87899e-06 0)
(0 -6.97291e-06 0)
(0 -1.02111e-05 0)
(0 2.63188e-07 0)
(0 -4.20906e-06 0)
(0 -3.84909e-06 0)
(0 4.0931e-07 0)
(0 5.06336e-07 0)
(0 -1.19247e-06 0)
(0 5.12744e-07 0)
(0 3.9381e-07 0)
(0 -6.12976e-06 0)
(0 -1.62333e-07 0)
(0 3.17889e-07 0)
(0 -3.26155e-06 0)
(0 1.2763e-06 0)
(0 -2.14818e-06 0)
(0 4.52271e-07 0)
(0 -2.81859e-05 0)
(0 4.60649e-07 0)
(0 5.04019e-07 0)
(0 -5.88446e-06 0)
(0 3.51641e-07 0)
(0 -6.5671e-06 0)
(0 1.26258e-08 0)
(0 -5.71956e-08 0)
(0 -3.75151e-06 0)
(0 5.10425e-06 0)
(0 1.60344e-06 0)
(0 2.81561e-06 0)
(0 3.18576e-07 0)
(0 1.95276e-07 0)
(0 -1.14601e-05 0)
(0 1.16459e-08 0)
(0 -8.99751e-07 0)
(0 -1.15788e-06 0)
(0 -1.04106e-05 0)
(0 -1.50099e-05 0)
(0 -4.20579e-07 0)
(0 1.94559e-06 0)
(0 -4.78874e-06 0)
(0 2.97076e-07 0)
(0 -2.01587e-05 0)
(0 5.13983e-07 0)
(0 -3.36841e-06 0)
(0 1.03344e-07 0)
(0 -5.20889e-07 0)
(0 2.5122e-07 0)
(0 -2.60055e-07 0)
(0 -2.16734e-06 0)
(0 -6.14459e-06 0)
(0 -1.19874e-05 0)
(0 5.07609e-07 0)
(0 4.90488e-07 0)
(0 5.12733e-07 0)
(0 4.78666e-07 0)
(0 -1.11895e-06 0)
(0 -1.25974e-05 0)
(0 5.06009e-07 0)
(0 -6.37057e-07 0)
(0 5.12167e-07 0)
(0 2.20697e-07 0)
(0 -4.09795e-06 0)
(0 -1.31156e-06 0)
(0 -1.29397e-06 0)
(0 -1.36186e-05 0)
(0 9.78216e-07 0)
(0 3.98079e-07 0)
(0 -3.76467e-06 0)
(0 5.13283e-07 0)
(0 -7.90256e-07 0)
(0 1.09357e-07 0)
(0 -5.04891e-06 0)
(0 -3.09762e-06 0)
(0 -2.43816e-05 0)
(0 -1.94707e-06 0)
(0 5.13509e-07 0)
(0 -6.25167e-07 0)
(0 5.13063e-07 0)
(0 -3.96343e-06 0)
(0 5.13177e-07 0)
(0 -2.01961e-05 0)
(0 -1.62758e-06 0)
(0 -3.06062e-06 0)
(0 -3.20344e-06 0)
(0 4.51534e-07 0)
(0 -5.72308e-06 0)
(0 -3.08171e-06 0)
(0 1.83041e-06 0)
(0 5.12829e-07 0)
(0 -3.73202e-07 0)
(0 5.01681e-07 0)
(0 -1.36288e-05 0)
(0 -1.77803e-05 0)
(0 -2.11488e-05 0)
(0 -2.54175e-06 0)
(0 -1.25569e-06 0)
(0 5.13249e-07 0)
(0 5.0573e-07 0)
(0 -1.29496e-06 0)
(0 -3.82148e-06 0)
(0 5.03248e-07 0)
(0 2.64019e-07 0)
(0 -4.03486e-06 0)
(0 2.09558e-07 0)
(0 -1.18286e-05 0)
(0 -8.87055e-06 0)
(0 -7.27293e-06 0)
(0 4.53735e-07 0)
(0 -3.71875e-06 0)
(0 -9.29603e-07 0)
(0 -1.61638e-06 0)
(0 -7.03613e-06 0)
(0 5.0849e-07 0)
(0 -3.01665e-06 0)
(0 -1.1929e-05 0)
(0 -3.16204e-06 0)
(0 -6.29747e-06 0)
(0 3.95598e-06 0)
(0 -5.80447e-06 0)
(0 -6.43119e-06 0)
(0 -2.44592e-07 0)
(0 -3.12053e-06 0)
(0 -1.27584e-06 0)
(0 -4.3308e-06 0)
(0 5.12528e-07 0)
(0 -1.94921e-07 0)
(0 -2.76836e-06 0)