/*--------------------------------*- C++ -*----------------------------------*\
| =========                 |                                                 |
| \\      /  F ield         | OpenFOAM: The Open Source CFD Toolbox           |
|  \\    /   O peration     | Version:  v2012                                 |
|   \\  /    A nd           | Website:  www.openfoam.com                      |
|    \\/     M anipulation  |                                                 |
\*---------------------------------------------------------------------------*/
FoamFile
{
    version     2.0;
    format      ascii;
    class       volScalarField;
    location    "200";
    object      k;
}
// * * * * * * * * * * * * * * * * * * * * * * * * * * * * * * * * * * * * * //

dimensions      [0 2 -2 0 0 0 0];


internalField   nonuniform List<scalar> 
18355
(
0.000162498
0.044933
0.000147515
0.000145656
0.000150405
0.000190461
0.000147571
0.000175238
0.00015141
0.0443002
0.00014516
0.028197
0.000184333
0.000148069
0.000148733
0.000151872
0.0133228
0.000146279
0.000148354
0.0375665
0.000154196
0.000149525
0.073582
0.000150427
0.000155565
0.000148879
0.000148383
0.000151055
0.0160114
0.000148048
0.000149095
0.000152301
0.000146258
0.00014694
0.000169059
0.000163212
0.000150026
0.000182685
0.000150859
0.000145315
0.00014808
0.000168634
0.000147546
0.0326923
0.00014807
0.000183626
0.00017052
0.000152075
0.000168249
0.000146407
0.000145117
0.000147291
0.000149837
0.0766008
0.000148443
0.000148372
0.000210402
0.000148844
0.000463913
0.000184025
0.000146433
0.000181321
0.000146174
0.000163019
0.0315924
0.000161895
0.00665859
0.00015791
0.000148423
0.000149379
0.000172442
0.000149684
0.000185115
0.000146616
0.00017512
0.000147548
0.078618
0.000152162
0.000159567
0.000147068
0.00014765
0.000255651
0.000153894
0.000164704
0.000148823
0.000183908
0.0400373
0.0360045
0.0165069
0.0820496
0.000327782
0.000148517
0.000148609
0.00014454
0.00651591
0.0698356
0.000147208
0.00015644
0.0736881
0.00839398
0.0104873
0.00996038
0.000164768
0.0476643
0.000151064
0.000193185
0.0181044
0.000177411
0.000162302
0.000185867
0.000147831
0.000150491
0.000148892
0.000150713
0.0670534
0.000147851
0.000474383
0.0776728
0.000477939
0.00016469
0.0476347
0.000382469
0.00015205
0.000172244
0.000147198
0.000177943
0.000147271
0.000149728
0.000474367
0.000144556
0.000145157
0.0495217
0.000173796
0.000156164
0.000161617
0.000149698
0.000148021
0.000145143
0.00014795
0.000173293
0.0127917
0.0184201
0.000149453
0.000147821
0.000189322
0.000149266
0.000154036
0.028847
0.000152838
0.0257794
0.000149806
0.000149329
0.000168024
0.000435432
0.00019329
0.000149783
0.0470715
0.000475951
0.000149764
0.000182497
0.000155737
0.00015367
0.00015701
0.000156692
0.000241265
0.000275893
0.0636893
0.000166748
0.000200243
0.000146457
0.0260277
0.0652334
0.000145043
0.000145148
0.000151845
0.0348296
0.000185717
0.000148553
0.000480097
0.0476734
0.000166465
0.000200003
0.000158712
0.000147263
0.000246141
0.0366278
0.0823202
0.000220176
0.000151487
0.0106013
0.000209599
0.000147588
0.000156497
0.051068
0.000162962
0.000149473
0.0146294
0.000158427
0.000168803
0.000145142
0.000151188
0.00015237
0.0498868
0.0790849
0.00825086
0.000156832
0.000471263
0.0517933
0.0562922
0.000168631
0.000147992
0.000149588
0.0385916
0.000149289
0.000146458
0.000243701
0.00264655
0.0397955
0.000148947
0.000152677
0.000236434
0.000147904
0.000164095
0.000147901
0.0565928
0.000148981
0.0448659
0.0358315
0.000172142
0.000147979
0.000149814
0.000158859
0.000155295
0.0480694
0.00015047
0.00014883
0.000148617
0.000184318
0.00440245
0.00766021
0.000161598
0.000198782
0.000149313
0.000146532
0.000149154
0.0298201
0.00743195
0.000464897
0.000193191
0.000155632
0.000151192
0.000536438
0.000159061
0.0593518
0.000148713
0.0293087
0.00644698
0.000182271
0.000147974
0.000147543
0.000161213
0.000174256
0.0572652
0.000174539
0.000146709
0.000146429
0.000149741
0.000202281
0.000170748
0.00016958
0.000150387
0.0101575
0.0002222
0.000191827
0.0001493
0.0146791
0.000147142
0.000147921
0.000677863
0.00014676
0.000147541
0.000191291
0.00014743
0.0137512
0.000158876
0.000152652
0.000146959
0.000166701
0.031127
0.000152364
0.000145685
0.000148001
0.000202252
0.0611429
0.000149766
0.000149847
0.00472475
0.000165818
0.000194293
0.000180687
0.000147937
0.000173085
0.000149924
0.000149773
0.000178352
0.000243995
0.000275368
0.000204595
0.000144624
0.000167456
0.000150776
0.00014834
0.00179275
0.00014766
0.000203169
0.0001682
0.000148556
0.000145171
0.000199607
0.00970341
0.0558334
0.000148877
0.000156687
0.0286729
0.000147038
0.0062511
0.000158872
0.000158972
0.00205815
0.000144619
0.000312788
0.000148199
0.000162193
0.000148711
0.000193602
0.0314676
0.000149787
0.0436962
0.000165184
0.000148193
0.000169832
0.000182098
0.0572345
0.0747231
0.0437194
0.000148661
0.000146128
0.0685433
0.000164351
0.00014867
0.000149956
0.00029074
0.000246097
0.00042797
0.0723262
0.000148517
0.000152343
0.000509002
0.000147796
0.000150246
0.000217843
0.000169181
0.000153859
0.00907112
0.000149826
0.000162269
0.000249642
0.00614969
0.000145644
0.000148337
0.0001479
0.000147188
0.000165603
0.000147195
0.000165291
0.000147905
0.000153115
0.000148541
0.000151198
0.000147703
0.000148313
0.000147567
0.000147554
0.000151374
0.000171146
0.0183123
0.000147906
0.0696585
0.000159543
0.0193089
0.00016361
0.000177667
0.000149299
0.06483
0.000149864
0.000147886
0.00014878
0.000145526
0.0728616
0.000153283
0.000146865
0.00017008
0.000165019
0.000147808
0.000147041
0.0511668
0.000149368
0.000147178
0.000525633
0.000147411
0.000449673
0.00890022
0.000219443
0.000153691
0.000151042
0.0360635
0.000149602
0.000147664
0.000443622
0.000149779
0.000145037
0.0116983
0.000146574
0.0339121
0.00017461
0.000188157
0.0114422
0.000149726
0.000147656
0.070821
0.000190334
0.0261424
0.0473922
0.000147908
0.000147327
0.000149231
0.0151256
0.000162449
0.000148466
0.000149818
0.00014923
0.000162562
0.000467043
0.000155866
0.000149129
0.000149824
0.000163039
0.000557137
0.0631776
0.0302454
0.0743272
0.000163108
0.000162447
0.0398254
0.000148969
0.000146797
0.000147988
0.000147885
0.000165217
0.000148031
0.000146434
0.00680026
0.000162833
0.000169034
0.0840118
0.000163516
0.0307624
0.0001476
0.000147624
0.000147925
0.000147681
0.000149879
0.000149866
0.000147962
0.0194418
0.000148875
0.000144866
0.000263879
0.000185114
0.000146857
0.000151482
0.000164784
0.000584816
0.000151478
0.000147265
0.0584562
0.000152046
0.0115228
0.000159241
0.000147246
0.0071517
0.000185129
0.000146152
0.0625645
0.0157301
0.0489261
0.000147234
0.000147158
0.000154745
0.000202933
0.000149577
0.0100665
0.0111621
0.0648422
0.000200775
0.000145472
0.000174294
0.0483672
0.0695357
0.0601695
0.000148865
0.000155349
0.000155712
0.0529501
0.00962443
0.000376434
0.000148996
0.000147914
0.000148727
0.000162683
0.000147981
0.0650385
0.000156334
0.0680758
0.000148196
0.000149092
0.000147447
0.000157547
0.000159306
0.000450945
0.000147496
0.00019393
0.000446757
0.000162302
0.000147965
0.000152182
0.000163221
0.0001498
0.000162229
0.000169404
0.000161938
0.000184433
0.000150159
0.000146115
0.000147986
0.000149844
0.000165847
0.000153852
0.000181318
0.000147533
0.000150435
0.0248472
0.000144675
0.000157895
0.000149853
0.000182608
0.000152373
0.072516
0.000150172
0.010934
0.000154168
0.000152196
0.00822424
0.0250366
0.0431159
0.000162351
0.00015296
0.000147305
0.000147908
0.000204554
0.000168815
0.000159186
0.000169976
0.0186692
0.000242714
0.000147375
0.0607909
0.0596557
0.0001518
0.000147904
0.000157936
0.0788188
0.000161156
0.0001494
0.00016403
0.000183022
0.000169208
0.00015697
0.000329193
0.000156062
0.000189243
0.0313755
0.00289429
0.0024728
0.000164157
0.000180833
0.000158094
0.000148385
0.00015189
0.000148003
0.000182921
0.00018188
0.0406774
0.000170738
0.0389469
0.0099579
0.00016357
0.000152274
0.036386
0.0756334
0.000145281
0.000172397
0.0086887
0.0511722
0.00015609
0.000145313
0.000155945
0.000156783
0.000162888
0.000183075
0.000147657
0.0112161
0.000151478
0.000153325
0.0558335
0.000147464
0.000159523
0.0573764
0.00014767
0.000150926
0.0624248
0.000146203
0.000194215
0.000144686
0.0131348
0.000162613
0.000172405
0.000159235
0.000154574
0.000201524
0.000153347
0.0226324
0.000192142
0.000148783
0.0243025
0.000173051
0.000352746
0.0169471
0.000187316
0.000260234
0.000147792
0.000145612
0.0150326
0.000152315
0.000162861
0.000149566
0.000158242
0.0711613
0.0925337
0.000165941
0.0131077
0.000164793
0.000151742
0.000145341
0.000149493
0.000170751
0.00017074
0.000146776
0.0253614
0.000157168
0.000165683
0.000150135
0.059436
0.0479062
0.00014808
0.000145282
0.000191221
0.000149616
0.000146148
0.0121201
0.000172065
0.000149537
0.000147886
0.000220323
0.000168208
0.000160049
0.000163964
0.000148279
0.0517088
0.000176969
0.000148923
0.000183823
0.0637294
0.000147581
0.0920432
0.00014564
0.000147674
0.000149507
0.000158956
0.0478084
0.000164634
0.03507
0.000159505
0.0519778
0.000179528
0.00015795
0.0363849
0.000148388
0.0801453
0.000151719
0.0338977
0.0445066
0.000148851
0.000462468
0.000154029
0.000154551
0.0574147
0.00016635
0.0395318
0.000146667
0.0742392
0.000148067
0.0299299
0.000149314
0.00015606
0.000162594
0.000146705
0.000145412
0.000179323
0.0543157
0.0421539
0.000147364
0.000341048
0.000157537
0.000146749
0.000148676
0.000156006
0.00020048
0.0707643
0.0001637
0.000150028
0.000156168
0.0641759
0.000155935
0.000147693
0.000146715
0.000156674
0.000160806
0.0142477
0.000147406
0.000225444
0.000163113
0.0506544
0.0472445
0.00678545
0.000145119
0.000185559
0.000147556
0.000149374
0.000159278
0.0116653
0.000146734
0.000147289
0.000147531
0.0770649
0.000151291
0.000148908
0.0001602
0.000160472
0.0850191
0.021623
0.00014747
0.000148069
0.0823838
0.000148905
0.0587946
0.0496649
0.0504387
0.000174308
0.000178959
0.0306954
0.000163016
0.000149014
0.000146573
0.000148309
0.000149308
0.000148612
0.000149393
0.0662922
0.00771035
0.000149327
0.000167921
0.000146282
0.000151856
0.000164567
0.000148444
0.000153563
0.000151123
0.000192617
0.00036941
0.000173098
0.043529
0.000163
0.00748125
0.000171122
0.0410802
0.0635117
0.000177088
0.000436129
0.000246429
0.0170446
0.000147996
0.000147908
0.000147692
0.000156976
0.0219172
0.000146425
0.00014983
0.000181323
0.00014672
0.00016317
0.000162418
0.000149398
0.022787
0.000148637
0.000148074
0.000221882
0.00014593
0.000191268
0.00019058
0.000148641
0.000151468
0.000146741
0.000165795
0.000146705
0.000152235
0.000160442
0.000148024
0.0693483
0.00014906
0.0727475
0.000154938
0.000207651
0.000147722
0.000193365
0.000164142
0.000149065
0.000148668
0.0723759
0.000147912
0.0168562
0.0189553
0.000150336
0.000148638
0.000148393
0.000145212
0.0128455
0.000147857
0.0762959
0.00625719
0.000165843
0.0389318
0.000147243
0.000147487
0.0566116
0.0598382
0.000152907
0.000147906
0.000147912
0.000146502
0.000152291
0.000161817
0.000228044
0.000154122
0.0108319
0.000352333
0.00137158
0.000158316
0.000148074
0.0225296
0.026414
0.000160325
0.000147736
0.000148811
0.0691259
0.000148008
0.0129605
0.000165322
0.000149658
0.00015608
0.000146106
0.000163438
0.000156327
0.000146734
0.000144698
0.000151995
0.0336851
0.000149437
0.000186507
0.0386047
0.000148716
0.000147428
0.000161876
0.0140839
0.000162437
0.0587883
0.000149804
0.000145158
0.000151563
0.030844
0.000186778
0.000291796
0.000147892
0.000157313
0.000148187
0.0549311
0.000146173
0.02293
0.000162465
0.0144033
0.000149212
0.000147288
0.000178835
0.000147786
0.028346
0.00014882
0.000397178
0.000149683
0.000146474
0.000152377
0.000211339
0.0217067
0.000155552
0.000150184
0.000149748
0.00014876
0.000146756
0.000149863
0.000187591
0.000149436
0.0532096
0.000152178
0.0549816
0.000148264
0.000145332
0.00021465
0.0597638
0.0907448
0.000149849
0.0423239
0.000148389
0.00614581
0.000149897
0.000195729
0.000147026
0.0516027
0.000147386
0.000156258
0.000148224
0.00014762
0.000149727
0.0698969
0.0346696
0.0473714
0.000158453
0.000157029
0.000153846
0.000147778
0.000145667
0.000146207
0.000151423
0.000190076
0.000149139
0.0138823
0.000183319
0.000147889
0.000149964
0.00578093
0.000204578
0.000151429
0.000153702
0.000158799
0.0219901
0.000180295
0.0794713
0.00018598
0.000191252
0.000173274
0.000148017
0.000147357
0.000181812
0.000161378
0.000148118
0.0576168
0.00015644
0.0172878
0.000149479
0.000181433
0.000158529
0.000173999
0.000155784
0.000148285
0.000165017
0.000148458
0.0127354
0.000148383
0.000148248
0.0552039
0.000163037
0.000158149
0.0602471
0.000147428
0.000168142
0.0290402
0.000147897
0.000168836
0.0340896
0.000150672
0.000147407
0.000148499
0.000153903
0.000153473
0.000192871
0.00859743
0.000152346
0.000155215
0.0383535
0.000145594
0.0079184
0.000154816
0.000152041
0.00035097
0.0105195
0.000146127
0.000147404
0.0001531
0.000146228
0.000145768
0.086918
0.000149791
0.000158385
0.000145241
0.00016399
0.000146125
0.000171126
0.000216776
0.000151507
0.0566446
0.000147423
0.000152699
0.00014766
0.0504078
0.000156593
0.000146931
0.000147886
0.000148927
0.000147441
0.000191193
0.0525551
0.0206073
0.0452328
0.000149165
0.000149673
0.000195229
0.000148934
0.000146217
0.00025024
0.0468951
0.000152154
0.000148373
0.026582
0.000149462
0.000149179
0.0503261
0.000191433
0.00276068
0.000151238
0.00014803
0.0383742
0.000149045
0.000158034
0.000149438
0.000161595
0.000148062
0.000177819
0.000195115
0.000173262
0.000148551
0.0472849
0.000150348
0.000146958
0.000149375
0.000148403
0.00014779
0.000148902
0.072875
0.000149597
0.0662226
0.000149476
0.000159457
0.0626966
0.000146528
0.000188324
0.000151173
0.000146465
0.000151806
0.000190569
0.000148129
0.000147349
0.000148747
0.000148165
0.000181161
0.00014586
0.000149697
0.000156562
0.000148494
0.00015923
0.0123373
0.0510774
0.0303871
0.0830664
0.000191252
0.000173836
0.0795145
0.0345884
0.000148835
0.00014929
0.000145494
0.000171721
0.0256723
0.000161636
0.000154537
0.000145333
0.000147696
0.000148978
0.000152356
0.0355096
0.0547646
0.0093057
0.000180851
0.000148572
0.000149534
0.000148962
0.0272988
0.000577106
0.000147884
0.000340305
0.000145724
0.000162131
0.000152056
0.000163103
0.000161552
0.00027911
0.000151192
0.000170871
0.000146084
0.000147166
0.000174232
0.00014751
0.000148295
0.000181327
0.000226952
0.00014876
0.000166965
0.000147498
0.000148088
0.000146605
0.000147978
0.0772421
0.000157957
0.000151058
0.000148923
0.0534723
0.000172734
0.000148391
0.000157858
0.000161409
0.0193721
0.000220325
0.0570721
0.000196727
0.000188443
0.000199719
0.000203123
0.000170824
0.0316829
0.000145141
0.000147441
0.000147694
0.000172801
0.000149029
0.0197347
0.000147505
0.000148848
0.0568013
0.000173598
0.000149648
0.000166414
0.000147555
0.000150921
0.000263581
0.000184704
0.000147692
0.000223433
0.000184986
0.0102188
0.0695581
0.000148015
0.0302248
0.000147429
0.000167994
0.000146974
0.0001468
0.0455444
0.000162203
0.000152141
0.000147753
0.0408676
0.000154012
0.0664936
0.0804592
0.000149739
0.000145973
0.000153027
0.072858
0.000182785
0.000171824
0.000159011
0.000227402
0.000148039
0.000150154
0.000148009
0.000148286
0.00015118
0.000163474
0.073661
0.000180094
0.000198373
0.0276865
0.000147868
0.0152335
0.000184866
0.000162603
0.000149223
0.000147953
0.000147467
0.000147264
0.000147444
0.00799093
0.000183148
0.0763292
0.000180022
0.000188634
0.000149035
0.000189723
0.0566175
0.000162453
0.000155524
0.000146895
0.068405
0.0483804
0.000176263
0.000201085
0.000148125
0.0113383
0.000150761
0.000152961
0.000170439
0.000169482
0.000146135
0.000189646
0.0463662
0.000149839
0.0111497
0.0554058
0.0660036
0.0079893
0.000163003
0.00313298
0.000164252
0.00016315
0.0450943
0.000147368
0.000159322
0.000147209
0.000149646
0.0483551
0.000151941
0.0725129
0.000145946
0.000149039
0.0314694
0.000147867
0.0669867
0.000150909
0.000191826
0.000152122
0.000149165
0.0771868
0.0001552
0.000187049
0.000147011
0.000147448
0.000239762
0.000177701
0.000148275
0.000156105
0.0002571
0.00018744
0.000348075
0.00014973
0.0001477
0.000144801
0.00014775
0.000157252
0.000164711
0.000145479
0.0568567
0.000147348
0.000148159
0.000171689
0.0353768
0.000177939
0.00016011
0.000146285
0.000150881
0.000181394
0.000306293
0.000258358
0.0230407
0.000157594
0.000163311
0.000247963
0.000148501
0.000168969
0.0541875
0.00014742
0.000209175
0.0257862
0.000771968
0.00106121
0.0618475
0.000189475
0.000148783
0.043096
0.000155181
0.000173537
0.000181596
0.000147527
0.000187605
0.000147643
0.000148225
0.000175908
0.0113428
0.000159356
0.000147461
0.000164655
0.0283987
0.000167072
0.0157515
0.000147751
0.0412402
0.000146224
0.000170602
0.000184006
0.00014773
0.025358
0.00014789
0.000146776
0.000148667
0.000148021
0.0661964
0.000192155
0.000149665
0.0589157
0.00014843
0.0160812
0.000146147
0.0143364
0.000162199
0.000185686
0.000153112
0.000147718
0.00014581
0.000148535
0.000217071
0.000175268
0.000148763
0.000171984
0.0145697
0.066517
0.000173742
0.0402883
0.0852536
0.00014774
0.0233549
0.000146457
0.000244536
0.000147911
0.000148716
0.000149125
0.000176523
0.0430733
0.000239664
0.000181536
0.0446046
0.000188669
0.000184263
0.0498334
0.000147069
0.000172857
0.0150174
0.000144865
0.000175565
0.0741001
0.000209687
0.00014752
0.0530614
0.000165704
0.0142302
0.00444453
0.000157099
0.000181756
0.000155217
0.000147531
0.00014515
0.0254647
0.000195034
0.000181224
0.000194142
0.000147236
0.0290823
0.000159559
0.000144493
0.0001498
0.000179863
0.000153527
0.000149391
0.000149781
0.000254625
0.000147204
0.000163805
0.0187202
0.000145753
0.000147175
0.00268078
0.000146829
0.000161659
0.000158641
0.00017842
0.000320327
0.000147808
0.000187914
0.000159708
0.000169592
0.000157523
0.000154223
0.000168224
0.000214741
0.00017061
0.0358584
0.000166998
0.000148933
0.000225073
0.0316262
0.000189683
0.000146375
0.000148221
0.000171874
0.000152175
0.0920277
0.000201504
0.000159088
0.0240745
0.000152364
0.000199222
0.0100426
0.000148079
0.000148748
0.000148335
0.000147771
0.0375579
0.000231222
0.000155554
0.00019897
0.000264233
0.00016899
0.000148974
0.000153618
0.000171434
0.000147455
0.000147043
0.036071
0.000151236
0.000507239
0.000146719
0.000147836
0.000149803
0.000168365
0.000161536
0.000167028
0.000148758
0.000151781
0.0701951
0.0196948
0.000358064
0.00112183
0.000154102
0.000150405
0.0754197
0.000183023
0.0112148
0.000163224
0.000147414
0.00017287
0.000155419
0.000150027
0.000146453
0.000168155
0.000192085
0.0451999
0.00018212
0.000377427
0.000149031
0.000150904
0.000148666
0.000205731
0.0174064
0.000235241
0.000408416
0.000147319
0.0467098
0.000151466
0.000147653
0.00015295
0.000148953
0.000211035
0.00014804
0.000193334
0.00014573
0.000383138
0.000158138
0.0113932
0.000150284
0.000148951
0.000155129
0.000146059
0.000188815
0.000444034
0.0765734
0.000172784
0.000145564
0.0798893
0.000164063
0.000147854
0.000168123
0.000147065
0.000153423
0.000144745
0.000201345
0.00015418
0.000178301
0.000172991
0.000146733
0.0702945
0.000145562
0.000155856
0.000149648
0.000152969
0.000146139
0.000147993
0.000161835
0.000149869
0.00015458
0.000145895
0.000152798
0.000299329
0.00369838
0.000149876
0.000174112
0.0652708
0.000147254
0.000148966
0.000158706
0.000205638
0.000148051
0.000176228
0.0276564
0.000150996
0.0822575
0.0135305
0.00014798
0.000150185
0.00016702
0.0001444
0.0425884
0.0216833
0.0460164
0.000151757
0.000159845
0.000145015
0.000308834
0.000156375
0.000191864
0.000149585
0.000179423
0.0130277
0.000194885
0.000152978
0.00771111
0.0149738
0.0488284
0.000149725
0.000146665
0.0560177
0.000351385
0.000146654
0.000148585
0.000187209
0.000150087
0.000218461
0.000299929
0.000146186
0.000150178
0.0279342
0.000187378
0.00015099
0.000144422
0.00016519
0.000149442
0.00021533
0.000147321
0.000149162
0.000148037
0.000152247
0.000148309
0.000182736
0.00014714
0.000154648
0.0511885
0.0301319
0.0285241
0.000147105
0.000169262
0.000194695
0.000148742
0.000153204
0.000171137
0.000147191
0.000152259
0.0741389
0.000164646
0.000148005
0.000148384
0.000147872
0.0139268
0.0791664
0.000146967
0.00014987
0.000147751
0.000185018
0.0289929
0.000151934
0.000174346
0.000148856
0.00016577
0.000159176
0.000226719
0.00823055
0.00014937
0.000251252
0.0665598
0.000163612
0.000147964
0.000163853
0.000159607
0.000162514
0.000155603
0.000148011
0.000207168
0.000155568
0.000266705
0.000161968
0.000149047
0.000149781
0.0340405
0.000148815
0.000161449
0.000223678
0.00016136
0.0809048
0.0136967
0.000147768
0.000182661
0.000206905
0.000182697
0.000162632
0.000152227
0.000148312
0.0192466
0.00016175
0.000148146
0.000168049
0.000183603
0.000317197
0.0462128
0.000148289
0.000155902
0.000149199
0.000234561
0.000248819
0.000149186
0.000172864
0.00015451
0.000151385
0.00014919
0.0151819
0.000178461
0.000147998
0.000153049
0.0804495
0.000149718
0.000147916
0.000157097
0.000165651
0.00014813
0.000148991
0.000152745
0.00400467
0.000160277
0.000147809
0.000146871
0.000148634
0.00017193
0.000147895
0.000147593
0.000989517
0.0778752
0.000147497
0.000149748
0.000183017
0.000162026
0.000169477
0.000149248
0.0175593
0.000147176
0.000150581
0.000160203
0.072426
0.019672
0.000192052
0.000171827
0.0537129
0.0194239
0.0146153
0.0771779
0.000153498
0.000147975
0.000146166
0.000161644
0.000147452
0.000147979
0.000149233
0.000177789
0.000147562
0.0325383
0.000162497
0.0833928
0.000148531
0.0662116
0.000148218
0.000157268
0.000145935
0.000150981
0.000160994
0.000244741
0.000149086
0.000146918
0.000154352
0.0767814
0.000147278
0.000170604
0.000149225
0.000163054
0.0133494
0.000179825
0.000484825
0.000158575
0.000217328
0.000149154
0.0519836
0.0115042
0.000147033
0.07372
0.0238458
0.000147633
0.000145093
0.000168273
0.000160854
0.000167451
0.000145836
0.0285606
0.000158283
0.000172936
0.000145896
0.000147526
0.000157828
0.0171634
0.0188048
0.011887
0.000169186
0.0198729
0.000160873
0.0144531
0.000148608
0.000349585
0.00014766
0.00015603
0.000272099
0.000151195
0.000199207
0.000147501
0.000153465
0.0515077
0.0230659
0.000147593
0.000277897
0.000147861
0.0772553
0.00014662
0.0847746
0.0227037
0.000148019
0.0412328
0.000156975
0.0411795
0.000148061
0.000155443
0.000150622
0.000173345
0.000147999
0.000218252
0.000146556
0.0616445
0.000187268
0.0851208
0.000149098
0.000145961
0.000395485
0.000152241
0.000157741
0.000147476
0.000167203
0.000153623
0.000148131
0.017146
0.000148432
0.000147557
0.000149757
0.000148668
0.0531175
0.000163106
0.000147511
0.0406928
0.000503464
0.000198154
0.000147512
0.000178583
0.000458329
0.0001479
0.000156675
0.000150026
0.000148182
0.000147517
0.00014831
0.000156871
0.000160465
0.0542185
0.000185429
0.000179507
0.000149839
0.000147649
0.0281534
0.000168097
0.000147486
0.000149997
0.0176131
0.0641022
0.000148194
0.0830007
0.000161221
0.000199732
0.000149845
0.0526762
0.000146187
0.00015176
0.000148553
0.000147052
0.000151601
0.0358868
0.000146176
0.061532
0.000197086
0.000349149
0.0584959
0.000148566
0.00014836
0.0278609
0.000167029
0.000168164
0.000147951
0.000210495
0.000149149
0.0622086
0.0412148
0.0472386
0.000148551
0.0619381
0.0522485
0.0738249
0.000195631
0.000154087
0.000179867
0.000147428
0.000460345
0.0779618
0.000161249
0.0550179
0.00014662
0.0001482
0.000168158
0.0525697
0.000162275
0.000353195
0.000147755
0.0548382
0.000171278
0.000163359
0.00014667
0.00016443
0.000181646
0.000148181
0.000170001
0.000168252
0.000245283
0.000146208
0.00014724
0.0576116
0.0389814
0.000152295
0.0324642
0.000161039
0.000147878
0.0627267
0.0298098
0.000148538
0.000235293
0.000146021
0.000148669
0.000175223
0.0518379
0.000149368
0.0336486
0.000152047
0.000147852
0.0150167
0.000149511
0.000188248
0.000146875
0.000329755
0.00014809
0.0160809
0.000146913
0.000163576
0.000148375
0.00015555
0.000178704
0.0648132
0.000162512
0.0399253
0.000160868
0.0743569
0.0734596
0.0500828
0.000147065
0.0301949
0.0677327
0.0149838
0.000408992
0.000149666
0.000146937
0.000148611
2.56495e-05
0.000147972
0.000149096
0.00164169
0.000149571
0.0292813
0.000151195
0.0756806
0.000147951
0.000149492
0.000201036
0.000145349
0.000181655
0.000147279
0.000168104
0.000180693
0.0206653
0.000146613
0.000147587
0.0677403
0.0634712
0.000149605
0.000159873
0.000165225
0.000150266
0.00777395
0.0410891
0.0651018
0.000192106
0.0266792
0.0100216
0.000241067
0.000147141
0.00014647
0.000150623
0.000147471
0.000158709
0.0236334
0.0624532
0.000148473
0.000152822
0.00015123
0.0102345
0.0867669
0.00039421
0.000279513
0.000148581
0.000258954
0.0535465
0.00015484
0.0552703
0.00017614
0.000149105
0.0803013
0.0429403
0.00741597
0.000149326
0.000151126
0.000167363
0.000239256
0.000147053
0.000148435
0.00014958
0.000146716
0.000148196
0.0620526
0.000152346
0.000145814
0.019484
0.000148587
0.0359757
0.000168724
0.0355674
0.000547642
0.000147697
0.0699802
0.00017218
0.000223547
0.000150359
0.000160264
0.000147967
0.00015091
0.0167661
0.000213389
0.000174424
0.000150438
0.000147414
0.00017238
0.000152097
0.000148317
0.000155361
0.000147536
0.0564016
0.000147834
0.0383428
0.0228595
0.000151419
0.000147717
0.026171
0.000147048
0.00014721
0.00022359
0.000153465
0.000152548
0.000177267
0.000288977
0.065549
0.00016008
0.000151614
0.000149331
0.0452653
0.0199738
0.000161821
0.000168561
0.000147408
0.000148008
0.000152981
0.000146855
0.000187582
0.000161701
0.000148343
0.00014948
0.000148511
0.000147604
0.000148148
0.000147453
0.000327594
0.0399068
0.0667674
0.000203142
0.00743927
0.000187156
0.000154019
0.0236481
0.0248594
0.0120467
0.000148535
0.000147388
0.000456325
0.0021026
0.000203486
0.000196195
0.0836459
0.000148521
0.000147776
0.0597092
0.000146813
0.000216696
0.000191369
0.000150752
0.0130219
0.0277915
0.000149716
0.0155204
0.033917
0.00017348
0.000209882
0.000149052
0.00190386
0.000240998
0.0870485
0.00014685
0.00016491
0.0188889
0.000147263
0.000171925
0.000147798
0.000172608
0.00014863
0.0263333
0.000216299
0.000148431
0.000152492
0.000149616
0.0341458
0.000169975
0.000148846
0.000149144
0.0190652
0.000147724
0.000152491
0.000176095
0.000192576
0.000149914
0.000166914
0.00016231
0.000147615
0.000221892
0.000148027
0.0001479
0.000158716
0.000147765
0.000163486
0.0657833
0.000234775
0.000148024
0.0615958
0.0148758
0.000185669
0.0139366
0.000172537
0.000153127
0.036665
0.000158088
0.00015253
0.000166955
0.000169848
0.000148505
0.000146886
0.000148624
0.000207718
0.046592
0.0664563
0.0774683
0.000146643
0.000154329
0.000175821
0.000177412
0.0397578
0.000148822
0.0351235
0.000149523
0.0187768
0.000146059
0.0438427
0.000150364
0.0644325
0.0359269
0.00018707
0.0508671
0.000164502
0.000146767
0.000167318
0.0111859
0.0550506
0.000157129
0.000149599
0.000147529
0.000148741
0.000160236
0.000149906
0.000151879
0.000146779
0.000179219
0.000148048
0.0766934
0.000149446
0.0510096
0.00014607
0.000217174
0.0643593
0.000150807
0.0341763
0.000147986
0.000157014
0.00014911
0.000149272
0.000147791
0.00018471
0.000185635
0.000146954
0.000152683
0.000148069
0.0498668
0.000162484
0.000214507
0.000222193
0.000148091
0.000176271
0.000151238
0.000150657
0.000161954
0.000148614
0.000167406
0.0703488
0.000148072
0.068736
0.000155706
0.000147481
0.000146218
0.0224457
0.000148006
0.0663243
0.000178097
0.000149776
0.0148264
0.000189088
0.0668226
0.000157293
0.000153963
0.000148564
0.000174794
0.012319
0.000148809
0.000166639
0.000148644
0.000206311
0.000373209
0.0199891
0.0656133
0.0421422
0.000157831
0.0180262
0.000149075
0.0525382
0.000230395
0.00015754
0.000227346
0.00018647
0.000145288
0.000163114
0.000148034
0.000146845
0.000152848
0.000147998
0.00088856
0.000264901
0.000223836
0.0188041
0.000148377
0.000686538
0.000148272
0.000147778
0.000170053
0.0535859
0.000147054
0.0327856
0.000168551
0.000207615
0.0212921
0.00014971
0.000169198
0.0348566
0.000162462
0.00014823
0.000188047
0.000148083
0.000148767
0.000149575
0.000274297
0.0615204
0.00015543
0.000148575
0.0457268
0.0706279
0.000149398
0.000149543
0.00452425
0.0827126
0.000149147
0.000182624
0.000182209
0.000147342
0.00016323
0.00014601
0.0244185
0.000147743
0.0804941
0.0676676
0.0628032
0.00015416
0.000158021
0.000147794
0.000146584
0.0159501
0.000146954
0.0289256
0.0684329
0.000174258
0.000146833
0.000146263
0.00020959
0.00018715
0.000162991
0.0852001
0.000181284
0.0464258
0.000151945
0.0491464
0.000318911
0.000158629
0.000186244
0.0697249
0.0131659
0.000148485
0.00584342
0.000146261
0.0237163
0.000209108
0.000226357
0.000145598
0.000167102
0.000148591
0.00024821
0.0417678
0.000151229
0.000150674
0.0764018
0.0505416
0.000148122
0.0472903
0.0147854
0.0374042
0.000149397
0.0676497
0.000148926
0.0118528
0.000148637
0.000151243
0.000149317
0.00014826
0.030258
0.000276814
0.000146393
0.0506446
0.0184569
0.000144712
0.000146224
0.000161791
0.000166142
0.000204777
0.00016785
0.0268976
0.0588716
0.0460485
0.0692912
0.000203389
0.000150961
0.000220442
0.000181495
0.0182805
0.00825431
0.0414803
0.000201295
0.000182017
0.000153852
0.0175598
0.000169486
0.000226
0.000149163
0.00015452
0.0403543
0.000148513
0.000157847
0.000196366
0.000153246
0.000170842
0.000148282
0.000151783
0.0864517
0.000184073
0.00014614
0.000154409
0.0225578
0.000260079
0.000163828
0.000287678
0.0157958
0.000168665
0.000224796
0.038295
0.000150115
0.0430125
0.000204067
0.0169389
0.000148885
0.000144412
0.0195028
0.0263332
0.0293594
0.0724687
0.0367988
0.000161981
0.000187007
0.000152327
0.0330102
0.000148202
0.000148041
0.000174477
0.000180041
0.000177451
0.0271964
0.000150553
0.000486284
0.0436928
0.000150299
0.000190946
0.000160348
0.00017882
0.000184228
0.000169997
0.0403506
0.0353793
0.0468322
0.000299506
0.000162997
0.00014808
0.000150991
0.000159522
0.000344743
0.0265182
0.0320279
0.0253181
0.000163681
0.000146768
0.000212392
0.000168661
0.0518447
0.000148526
0.0145666
0.000169281
0.0317481
0.000148503
0.00545295
0.000174975
0.000190586
0.00830061
0.00014696
0.0162079
0.0412783
0.000146781
0.000179839
0.0477909
0.000150266
0.000402392
0.000152631
0.000151817
0.000149705
0.0611518
0.000170212
0.000251634
0.000161361
0.0695692
0.000146713
0.000144598
0.000147325
0.000148292
0.000147558
0.0833319
0.000187298
0.0415762
0.000149352
0.000146918
0.0708327
0.000161011
0.0376358
0.000199758
0.000148899
0.000232526
0.000157313
0.000170672
0.0345042
0.000158426
0.0205675
0.000210596
0.000155618
0.000145406
0.00018048
0.000144784
0.000203978