/*--------------------------------*- C++ -*----------------------------------*\
| =========                 |                                                 |
| \\      /  F ield         | OpenFOAM: The Open Source CFD Toolbox           |
|  \\    /   O peration     | Version:  v2012                                 |
|   \\  /    A nd           | Website:  www.openfoam.com                      |
|    \\/     M anipulation  |                                                 |
\*---------------------------------------------------------------------------*/
FoamFile
{
    version     2.0;
    format      ascii;
    class       pointVectorField;
    location    "200";
    object      pointDisplacement;
}
// * * * * * * * * * * * * * * * * * * * * * * * * * * * * * * * * * * * * * //

dimensions      [0 1 0 0 0 0 0];


internalField   nonuniform List<vector> 
18874
(
(0 0 0)
(0 5.12876e-06 0)
(0 5.12876e-06 0)
(0 0 0)
(0 5.12876e-06 0)
(0 5.12876e-06 0)
(0 0 0)
(0 0 0)
(0 0 0)
(0 0 0)
(0 0 0)
(0 0 0)
(0 0 0)
(0 0 0)
(0 0 0)
(0 0 0)
(0 0 0)
(0 0 0)
(0 0 0)
(0 0 0)
(0 0 0)
(0 0 0)
(0 0 0)
(0 0 0)
(0 0 0)
(0 0 0)
(0 0 0)
(0 0 0)
(0 0 0)
(0 0 0)
(0 0 0)
(0 0 0)
(0 0 0)
(0 0 0)
(0 0 0)
(0 0 0)
(0 0 0)
(0 0 0)
(0 0 0)
(0 0 0)
(0 0 0)
(0 0 0)
(0 0 0)
(0 0 0)
(0 0 0)
(0 0 0)
(0 0 0)
(0 0 0)
(0 0 0)
(0 0 0)
(0 0 0)
(0 0 0)
(0 0 0)
(0 0 0)
(0 0 0)
(0 0 0)
(0 0 0)
(0 0 0)
(0 0 0)
(0 0 0)
(0 0 0)
(0 0 0)
(0 0 0)
(0 0 0)
(0 0 0)
(0 0 0)
(0 0 0)
(0 0 0)
(0 0 0)
(0 0 0)
(0 0 0)
(0 0 0)
(0 0 0)
(0 0 0)
(0 0 0)
(0 0 0)
(0 0 0)
(0 0 0)
(0 0 0)
(0 0 0)
(0 0 0)
(0 0 0)
(0 0 0)
(0 0 0)
(0 0 0)
(0 0 0)
(0 0 0)
(0 0 0)
(0 0 0)
(0 0 0)
(0 0 0)
(0 0 0)
(0 0 0)
(0 0 0)
(0 0 0)
(0 0 0)
(0 0 0)
(0 5.12876e-06 0)
(0 5.12876e-06 0)
(0 5.12876e-06 0)
(0 5.12876e-06 0)
(0 5.12876e-06 0)
(0 5.12876e-06 0)
(0 5.12876e-06 0)
(0 5.12876e-06 0)
(0 5.12876e-06 0)
(0 5.12876e-06 0)
(0 5.12876e-06 0)
(0 5.12876e-06 0)
(0 5.12876e-06 0)
(0 5.12876e-06 0)
(0 5.12876e-06 0)
(0 5.12876e-06 0)
(0 5.12876e-06 0)
(0 5.12876e-06 0)
(0 5.12876e-06 0)
(0 5.12876e-06 0)
(0 5.12876e-06 0)
(0 5.12876e-06 0)
(0 5.12876e-06 0)
(0 5.12876e-06 0)
(0 5.12876e-06 0)
(0 5.12876e-06 0)
(0 5.12876e-06 0)
(0 5.12876e-06 0)
(0 5.12876e-06 0)
(0 5.12876e-06 0)
(0 5.12876e-06 0)
(0 5.12876e-06 0)
(0 5.12876e-06 0)
(0 5.12876e-06 0)
(0 5.12876e-06 0)
(0 5.12876e-06 0)
(0 5.12876e-06 0)
(0 5.12876e-06 0)
(0 5.12876e-06 0)
(0 5.12876e-06 0)
(0 5.12876e-06 0)
(0 5.12876e-06 0)
(0 5.12876e-06 0)
(0 5.12876e-06 0)
(0 5.12876e-06 0)
(0 5.12876e-06 0)
(0 5.12876e-06 0)
(0 5.12876e-06 0)
(0 5.12876e-06 0)
(0 5.12876e-06 0)
(0 5.12876e-06 0)
(0 5.12876e-06 0)
(0 5.12876e-06 0)
(0 5.12876e-06 0)
(0 5.12876e-06 0)
(0 5.12876e-06 0)
(0 5.12876e-06 0)
(0 5.12876e-06 0)
(0 5.12876e-06 0)
(0 5.12876e-06 0)
(0 5.12876e-06 0)
(0 5.12876e-06 0)
(0 5.12876e-06 0)
(0 5.12876e-06 0)
(0 5.12876e-06 0)
(0 5.12876e-06 0)
(0 5.12876e-06 0)
(0 5.12876e-06 0)
(0 5.12876e-06 0)
(0 5.12876e-06 0)
(0 5.12876e-06 0)
(0 5.12876e-06 0)
(0 5.12876e-06 0)
(0 5.12876e-06 0)
(0 5.12876e-06 0)
(0 5.12876e-06 0)
(0 5.12876e-06 0)
(0 5.12876e-06 0)
(0 5.12876e-06 0)
(0 5.12876e-06 0)
(0 5.12876e-06 0)
(0 5.12876e-06 0)
(0 5.12876e-06 0)
(0 5.12876e-06 0)
(0 5.12876e-06 0)
(0 5.12876e-06 0)
(0 5.12876e-06 0)
(0 5.12876e-06 0)
(0 5.12876e-06 0)
(0 5.12876e-06 0)
(0 5.12876e-06 0)
(0 5.12876e-06 0)
(0 5.12876e-06 0)
(0 5.12876e-06 0)
(0 5.12876e-06 0)
(0 5.12876e-06 0)
(0 5.12876e-06 0)
(0 5.12876e-06 0)
(0 5.12876e-06 0)
(0 5.12876e-06 0)
(0 5.12876e-06 0)
(0 5.12876e-06 0)
(0 5.12876e-06 0)
(0 5.12876e-06 0)
(0 5.12876e-06 0)
(0 5.12876e-06 0)
(0 5.12876e-06 0)
(0 5.12876e-06 0)
(0 5.12876e-06 0)
(0 5.12876e-06 0)
(0 5.12876e-06 0)
(0 5.12876e-06 0)
(0 5.12876e-06 0)
(0 5.12876e-06 0)
(0 5.12876e-06 0)
(0 5.12876e-06 0)
(0 5.12876e-06 0)
(0 5.12876e-06 0)
(0 5.12876e-06 0)
(0 5.12876e-06 0)
(0 5.12876e-06 0)
(0 5.12876e-06 0)
(0 5.12876e-06 0)
(0 5.12876e-06 0)
(0 5.12876e-06 0)
(0 5.12876e-06 0)
(0 5.12876e-06 0)
(0 5.12876e-06 0)
(0 5.12876e-06 0)
(0 5.12876e-06 0)
(0 5.12876e-06 0)
(0 5.12876e-06 0)
(0 5.12876e-06 0)
(0 5.12876e-06 0)
(0 5.12876e-06 0)
(0 5.12876e-06 0)
(0 5.12876e-06 0)
(0 5.12876e-06 0)
(0 5.12876e-06 0)
(0 5.12876e-06 0)
(0 5.12876e-06 0)
(0 5.12876e-06 0)
(0 5.12876e-06 0)
(0 5.12876e-06 0)
(0 5.12876e-06 0)
(0 5.12876e-06 0)
(0 5.12876e-06 0)
(0 5.12876e-06 0)
(0 5.12876e-06 0)
(0 5.12876e-06 0)
(0 5.12876e-06 0)
(0 5.12876e-06 0)
(0 5.12876e-06 0)
(0 5.12876e-06 0)
(0 5.12876e-06 0)
(0 5.12876e-06 0)
(0 5.12876e-06 0)
(0 5.12876e-06 0)
(0 5.12876e-06 0)
(0 5.12876e-06 0)
(0 5.12876e-06 0)
(0 5.12876e-06 0)
(0 5.12876e-06 0)
(0 5.12876e-06 0)
(0 5.12876e-06 0)
(0 5.12876e-06 0)
(0 5.12876e-06 0)
(0 5.12876e-06 0)
(0 5.12876e-06 0)
(0 5.12876e-06 0)
(0 0 0)
(0 0 0)
(0 0 0)
(0 0 0)
(0 0 0)
(0 0 0)
(0 0 0)
(0 0 0)
(0 0 0)
(0 0 0)
(0 0 0)
(0 0 0)
(0 0 0)
(0 0 0)
(0 0 0)
(0 0 0)
(0 0 0)
(0 0 0)
(0 0 0)
(0 0 0)
(0 0 0)
(0 0 0)
(0 0 0)
(0 0 0)
(0 0 0)
(0 0 0)
(0 0 0)
(0 0 0)
(0 0 0)
(0 0 0)
(0 0 0)
(0 0 0)
(0 0 0)
(0 0 0)
(0 0 0)
(0 0 0)
(0 0 0)
(0 0 0)
(0 0 0)
(0 0 0)
(0 0 0)
(0 0 0)
(0 0 0)
(0 0 0)
(0 0 0)
(0 0 0)
(0 0 0)
(0 0 0)
(0 0 0)
(0 0 0)
(0 0 0)
(0 0 0)
(0 0 0)
(0 0 0)
(0 0 0)
(0 0 0)
(0 0 0)
(0 0 0)
(0 0 0)
(0 0 0)
(0 0 0)
(0 0 0)
(0 0 0)
(0 0 0)
(0 0 0)
(0 0 0)
(0 0 0)
(0 0 0)
(0 0 0)
(0 0 0)
(0 0 0)
(0 0 0)
(0 0 0)
(0 0 0)
(0 0 0)
(0 0 0)
(0 0 0)
(0 0 0)
(0 0 0)
(0 0 0)
(0 0 0)
(0 0 0)
(0 0 0)
(0 0 0)
(0 0 0)
(0 0 0)
(0 0 0)
(0 0 0)
(0 0 0)
(0 0 0)
(0 0 0)
(0 5.12876e-06 0)
(0 5.12876e-06 0)
(0 5.12876e-06 0)
(0 5.12876e-06 0)
(0 5.12876e-06 0)
(0 5.12876e-06 0)
(0 5.12876e-06 0)
(0 5.12876e-06 0)
(0 5.12876e-06 0)
(0 5.12876e-06 0)
(0 5.12876e-06 0)
(0 5.12876e-06 0)
(0 5.12876e-06 0)
(0 5.12876e-06 0)
(0 5.12876e-06 0)
(0 5.12876e-06 0)
(0 5.12876e-06 0)
(0 5.12876e-06 0)
(0 5.12876e-06 0)
(0 5.12876e-06 0)
(0 5.12876e-06 0)
(0 5.12876e-06 0)
(0 5.12876e-06 0)
(0 5.12876e-06 0)
(0 5.12876e-06 0)
(0 5.12876e-06 0)
(0 5.12876e-06 0)
(0 5.12876e-06 0)
(0 5.12876e-06 0)
(0 5.12876e-06 0)
(0 5.12876e-06 0)
(0 5.12876e-06 0)
(0 5.12876e-06 0)
(0 5.12876e-06 0)
(0 5.12876e-06 0)
(0 5.12876e-06 0)
(0 5.12876e-06 0)
(0 5.12876e-06 0)
(0 5.12876e-06 0)
(0 5.12876e-06 0)
(0 5.12876e-06 0)
(0 5.12876e-06 0)
(0 5.12876e-06 0)
(0 5.12876e-06 0)
(0 5.12876e-06 0)
(0 5.12876e-06 0)
(0 5.12876e-06 0)
(0 5.12876e-06 0)
(0 5.12876e-06 0)
(0 5.12876e-06 0)
(0 5.12876e-06 0)
(0 5.12876e-06 0)
(0 5.12876e-06 0)
(0 5.12876e-06 0)
(0 5.12876e-06 0)
(0 5.12876e-06 0)
(0 5.12876e-06 0)
(0 5.12876e-06 0)
(0 5.12876e-06 0)
(0 5.12876e-06 0)
(0 5.12876e-06 0)
(0 5.12876e-06 0)
(0 5.12876e-06 0)
(0 5.12876e-06 0)
(0 5.12876e-06 0)
(0 5.12876e-06 0)
(0 5.12876e-06 0)
(0 5.12876e-06 0)
(0 5.12876e-06 0)
(0 5.12876e-06 0)
(0 5.12876e-06 0)
(0 5.12876e-06 0)
(0 5.12876e-06 0)
(0 5.12876e-06 0)
(0 5.12876e-06 0)
(0 5.12876e-06 0)
(0 5.12876e-06 0)
(0 5.12876e-06 0)
(0 5.12876e-06 0)
(0 5.12876e-06 0)
(0 5.12876e-06 0)
(0 5.12876e-06 0)
(0 5.12876e-06 0)
(0 5.12876e-06 0)
(0 5.12876e-06 0)
(0 5.12876e-06 0)
(0 5.12876e-06 0)
(0 5.12876e-06 0)
(0 5.12876e-06 0)
(0 5.12876e-06 0)
(0 5.12876e-06 0)
(0 5.12876e-06 0)
(0 5.12876e-06 0)
(0 5.12876e-06 0)
(0 5.12876e-06 0)
(0 5.12876e-06 0)
(0 5.12876e-06 0)
(0 5.12876e-06 0)
(0 5.12876e-06 0)
(0 5.12876e-06 0)
(0 5.12876e-06 0)
(0 5.12876e-06 0)
(0 5.12876e-06 0)
(0 5.12876e-06 0)
(0 5.12876e-06 0)
(0 5.12876e-06 0)
(0 5.12876e-06 0)
(0 5.12876e-06 0)
(0 5.12876e-06 0)
(0 5.12876e-06 0)
(0 5.12876e-06 0)
(0 5.12876e-06 0)
(0 5.12876e-06 0)
(0 5.12876e-06 0)
(0 5.12876e-06 0)
(0 5.12876e-06 0)
(0 5.12876e-06 0)
(0 5.12876e-06 0)
(0 5.12876e-06 0)
(0 5.12876e-06 0)
(0 5.12876e-06 0)
(0 5.12876e-06 0)
(0 5.12876e-06 0)
(0 5.12876e-06 0)
(0 5.12876e-06 0)
(0 5.12876e-06 0)
(0 5.12876e-06 0)
(0 5.12876e-06 0)
(0 5.12876e-06 0)
(0 5.12876e-06 0)
(0 5.12876e-06 0)
(0 5.12876e-06 0)
(0 5.12876e-06 0)
(0 5.12876e-06 0)
(0 5.12876e-06 0)
(0 5.12876e-06 0)
(0 5.12876e-06 0)
(0 5.12876e-06 0)
(0 5.12876e-06 0)
(0 5.12876e-06 0)
(0 5.12876e-06 0)
(0 5.12876e-06 0)
(0 5.12876e-06 0)
(0 5.12876e-06 0)
(0 5.12876e-06 0)
(0 5.12876e-06 0)
(0 5.12876e-06 0)
(0 5.12876e-06 0)
(0 5.12876e-06 0)
(0 5.12876e-06 0)
(0 5.12876e-06 0)
(0 5.12876e-06 0)
(0 5.12876e-06 0)
(0 5.12876e-06 0)
(0 5.12876e-06 0)
(0 5.12876e-06 0)
(0 5.12876e-06 0)
(0 5.12876e-06 0)
(0 5.12876e-06 0)
(0 5.12876e-06 0)
(0 5.12876e-06 0)
(0 5.12876e-06 0)
(0 5.12876e-06 0)
(0 5.12876e-06 0)
(0 5.12876e-06 0)
(0 5.12876e-06 0)
(0 5.12876e-06 0)
(0 5.12876e-06 0)
(0 5.12876e-06 0)
(0 5.12876e-06 0)
(0 5.12578e-06 0)
(0 5.12777e-06 0)
(0 5.1281e-06 0)
(0 5.12924e-06 0)
(0 5.12872e-06 0)
(0 5.12965e-06 0)
(0 5.12777e-06 0)
(0 5.13219e-06 0)
(0 5.12915e-06 0)
(0 5.12858e-06 0)
(0 5.1287e-06 0)
(0 5.13048e-06 0)
(0 5.12866e-06 0)
(0 5.12977e-06 0)
(0 5.13416e-06 0)
(0 5.12939e-06 0)
(0 5.13204e-06 0)
(0 5.12973e-06 0)
(0 5.13119e-06 0)
(0 1.40693e-06 0)
(0 8.07134e-06 0)
(0 9.13738e-06 0)
(0 1.35372e-05 0)
(0 3.86689e-06 0)
(0 1.97827e-06 0)
(0 -1.79234e-06 0)
(0 2.13515e-07 0)
(0 6.79451e-06 0)
(0 -6.20603e-07 0)
(0 5.12442e-06 0)
(0 5.12619e-06 0)
(0 5.12924e-06 0)
(0 5.12829e-06 0)
(0 5.12867e-06 0)
(0 5.13102e-06 0)
(0 5.12862e-06 0)
(0 5.12903e-06 0)
(0 5.13229e-06 0)
(0 5.12869e-06 0)
(0 5.12913e-06 0)
(0 5.12893e-06 0)
(0 8.22815e-06 0)
(0 1.98699e-06 0)
(0 7.89368e-06 0)
(0 4.21671e-08 0)
(0 5.12972e-06 0)
(0 5.12897e-06 0)
(0 5.12843e-06 0)
(0 5.12866e-06 0)
(0 5.12917e-06 0)
(0 5.92894e-06 0)
(0 3.21383e-06 0)
(0 -1.76582e-06 0)
(0 1.01606e-06 0)
(0 2.3085e-06 0)
(0 8.99104e-06 0)
(0 5.07164e-06 0)
(0 1.32508e-05 0)
(0 3.92746e-06 0)
(0 -7.1965e-07 0)
(0 5.12691e-06 0)
(0 2.26224e-06 0)
(0 1.32916e-05 0)
(0 4.64386e-06 0)
(0 1.94963e-06 0)
(0 6.91194e-06 0)
(0 9.41275e-07 0)
(0 2.08954e-06 0)
(0 7.57452e-06 0)
(0 2.42469e-06 0)
(0 1.17702e-06 0)
(0 6.86556e-07 0)
(0 -0.00013398 0)
(0 -0.000137103 0)
(0 -0.00012955 0)
(0 -0.000132994 0)
(0 -0.000125388 0)
(0 -0.000128501 0)
(0 -0.000121067 0)
(0 -0.000124085 0)
(0 -0.000116668 0)
(0 -0.000120232 0)
(0 -0.000112165 0)
(0 -0.000114209 0)
(0 -0.000107521 0)
(0 -0.00010936 0)
(0 -0.000103018 0)
(0 -0.000104935 0)
(0 -9.86186e-05 0)
(0 -0.000100748 0)
(0 -9.42468e-05 0)
(0 -9.24472e-05 0)
(0 -8.84302e-05 0)
(0 -8.97801e-05 0)
(0 -8.46573e-05 0)
(0 -8.56929e-05 0)
(0 -8.1267e-05 0)
(0 -8.02351e-05 0)
(0 -7.72484e-05 0)
(0 -7.80565e-05 0)
(0 -7.42014e-05 0)
(0 -7.48057e-05 0)
(0 -7.09664e-05 0)
(0 -7.1566e-05 0)
(0 -6.77259e-05 0)
(0 -7.6099e-05 0)
(0 -6.8432e-05 0)
(0 -6.45222e-05 0)
(0 -6.53436e-05 0)
(0 -6.12799e-05 0)
(0 -6.20874e-05 0)
(0 -5.79683e-05 0)
(0 -5.70889e-05 0)
(0 -5.39811e-05 0)
(0 -6.62041e-05 0)
(0 -5.47139e-05 0)
(0 -5.10664e-05 0)
(0 -0.000140426 0)
(0 -0.000110826 0)
(0 -5.25397e-05 0)
(0 -0.000117937 0)
(0 -5.15995e-05 0)
(0 -4.80502e-05 0)
(0 -4.85044e-05 0)
(0 -4.49477e-05 0)
(0 -4.5388e-05 0)
(0 -4.19054e-05 0)
(0 -4.22569e-05 0)
(0 -3.90327e-05 0)
(0 -3.87087e-05 0)
(0 -3.61908e-05 0)
(0 -3.59036e-05 0)
(0 -3.38324e-05 0)
(0 -3.40974e-05 0)
(0 -3.2366e-05 0)
(0 -3.36265e-05 0)
(0 -3.26836e-05 0)
(0 -3.14619e-05 0)
(0 -3.16951e-05 0)
(0 -3.06941e-05 0)
(0 -3.0748e-05 0)
(0 -2.98276e-05 0)
(0 -2.97004e-05 0)
(0 -2.8682e-05 0)
(0 -2.8389e-05 0)
(0 -2.71725e-05 0)
(0 -2.73854e-05 0)
(0 -2.57388e-05 0)
(0 -2.59354e-05 0)
(0 -2.42855e-05 0)
(0 -2.45777e-05 0)
(0 -2.31064e-05 0)
(0 -2.35032e-05 0)
(0 -2.22898e-05 0)
(0 -2.27423e-05 0)
(0 -2.1698e-05 0)
(0 -2.21596e-05 0)
(0 -2.11787e-05 0)
(0 -2.14585e-05 0)
(0 -2.06957e-05 0)
(0 -2.06718e-05 0)
(0 -2.06662e-05 0)
(0 -2.01378e-05 0)
(0 -1.9833e-05 0)
(0 -1.96153e-05 0)
(0 -1.912e-05 0)
(0 -1.91178e-05 0)
(0 -1.84973e-05 0)
(0 -1.86363e-05 0)
(0 -1.80297e-05 0)
(0 -1.82733e-05 0)
(0 -1.8973e-05 0)
(0 -2.67588e-05 0)
(0 -2.03733e-05 0)
(0 -1.86992e-05 0)
(0 -1.92742e-05 0)
(0 -1.78339e-05 0)
(0 -2.79515e-05 0)
(0 -2.62841e-05 0)
(0 -1.92334e-05 0)
(0 -1.96214e-05 0)
(0 -1.96866e-05 0)
(0 -1.97307e-05 0)
(0 -1.9755e-05 0)
(0 -1.94742e-05 0)
(0 -1.95762e-05 0)
(0 -1.92702e-05 0)
(0 -1.94638e-05 0)
(0 -1.91771e-05 0)
(0 -1.9901e-05 0)
(0 -2.75651e-05 0)
(0 -2.58265e-05 0)
(0 -1.97261e-05 0)
(0 -2.03345e-05 0)
(0 -2.71936e-05 0)
(0 -2.52047e-05 0)
(0 -2.01446e-05 0)
(0 -2.09306e-05 0)
(0 -2.08554e-05 0)
(0 -2.65908e-05 0)
(0 -2.44699e-05 0)
(0 -2.17678e-05 0)
(0 -2.17658e-05 0)
(0 -2.56799e-05 0)
(0 -2.34783e-05 0)
(0 -2.26773e-05 0)
(0 -2.26325e-05 0)
(0 -2.16182e-05 0)
(0 -2.42195e-05 0)
(0 -2.20973e-05 0)
(0 -2.27407e-05 0)
(0 -2.1346e-05 0)
(0 -2.35386e-05 0)
(0 -2.22074e-05 0)
(0 -2.02987e-05 0)
(0 -2.27158e-05 0)
(0 -2.06424e-05 0)
(0 -1.98044e-05 0)
(0 -1.81305e-05 0)
(0 -2.18504e-05 0)
(0 -1.92348e-05 0)
(0 -1.71727e-05 0)
(0 -1.57439e-05 0)
(0 -1.9107e-05 0)
(0 -2.03559e-05 0)
(0 -1.74105e-05 0)
(0 -1.67396e-05 0)
(0 -1.41705e-05 0)
(0 -1.49166e-05 0)
(0 -1.2106e-05 0)
(0 -1.29466e-05 0)
(0 -1.04897e-05 0)
(0 -1.133e-05 0)
(0 -9.62615e-06 0)
(0 -1.03382e-05 0)
(0 -9.60151e-06 0)
(0 -1.02962e-05 0)
(0 -1.04019e-05 0)
(0 -1.14077e-05 0)
(0 -1.61713e-05 0)
(0 -1.81192e-05 0)
(0 -1.22858e-05 0)
(0 -1.382e-05 0)
(0 -1.86765e-05 0)
(0 -1.55149e-05 0)
(0 -1.50413e-05 0)
(0 -1.69391e-05 0)
(0 -1.51202e-05 0)
(0 -1.72538e-05 0)
(0 -1.78782e-05 0)
(0 -1.94477e-05 0)
(0 -1.41043e-05 0)
(0 -1.70791e-05 0)
(0 -8.57586e-06 0)
(0 -1.68039e-05 0)
(0 -1.33626e-05 0)
(0 -1.9667e-05 0)
(0 -2.05418e-05 0)
(0 -2.92001e-05 0)
(0 -2.64429e-05 0)
(0 -1.97444e-05 0)
(0 -2.00594e-05 0)
(0 -1.31471e-05 0)
(0 -1.74706e-05 0)
(0 -1.75457e-05 0)
(0 -1.74579e-05 0)
(0 -1.69666e-05 0)
(0 -1.68492e-05 0)
(0 -1.61047e-05 0)
(0 -1.5962e-05 0)
(0 -1.50562e-05 0)
(0 -1.50478e-05 0)
(0 -1.4178e-05 0)
(0 -1.44043e-05 0)
(0 -1.36426e-05 0)
(0 -1.40719e-05 0)
(0 -1.33585e-05 0)
(0 -1.38619e-05 0)
(0 -1.30845e-05 0)
(0 -1.35762e-05 0)
(0 -1.27182e-05 0)
(0 -1.31298e-05 0)
(0 -1.22614e-05 0)
(0 -1.25259e-05 0)
(0 -1.16801e-05 0)
(0 -1.15565e-05 0)
(0 -1.18882e-05 0)
(0 -1.10778e-05 0)
(0 -1.13817e-05 0)
(0 -1.06184e-05 0)
(0 -1.10245e-05 0)
(0 -1.03225e-05 0)
(0 -1.0779e-05 0)
(0 -1.01012e-05 0)
(0 -1.05669e-05 0)
(0 -1.1407e-05 0)
(0 -1.11779e-05 0)
(0 -1.03127e-05 0)
(0 -1.09037e-05 0)
(0 -1.00151e-05 0)
(0 -1.05538e-05 0)
(0 -9.62856e-06 0)
(0 -1.01548e-05 0)
(0 -1.12186e-05 0)
(0 -1.0803e-05 0)
(0 -9.77117e-06 0)
(0 -1.044e-05 0)
(0 -9.43809e-06 0)
(0 -1.01511e-05 0)
(0 -9.19081e-06 0)
(0 -1.11971e-05 0)
(0 -9.95978e-06 0)
(0 -9.02681e-06 0)
(0 -9.88895e-06 0)
(0 -8.88949e-06 0)
(0 -9.88011e-06 0)
(0 -8.75982e-06 0)
(0 -9.79305e-06 0)
(0 -8.63821e-06 0)
(0 -9.69686e-06 0)
(0 -8.60346e-06 0)
(0 -1.07894e-05 0)
(0 -9.70746e-06 0)
(0 -8.65574e-06 0)
(0 -8.2555e-06 0)
(0 -9.72674e-06 0)
(0 -7.42641e-06 0)
(0 -2.26333e-05 0)
(0 -1.95045e-05 0)
(0 -2.09417e-05 0)
(0 -1.79425e-05 0)
(0 -1.94151e-05 0)
(0 -1.6639e-05 0)
(0 -1.80421e-05 0)
(0 -1.54017e-05 0)
(0 -1.68141e-05 0)
(0 -1.43291e-05 0)
(0 -1.57647e-05 0)
(0 -1.34111e-05 0)
(0 -1.47659e-05 0)
(0 -1.2449e-05 0)
(0 -1.38111e-05 0)
(0 -1.15464e-05 0)
(0 -1.29965e-05 0)
(0 -1.07965e-05 0)
(0 -1.22337e-05 0)
(0 -1.0122e-05 0)
(0 -1.15161e-05 0)
(0 -9.48522e-06 0)
(0 -1.08683e-05 0)
(0 -8.91582e-06 0)
(0 -1.02987e-05 0)
(0 -8.42583e-06 0)
(0 -9.72553e-06 0)
(0 -7.91629e-06 0)
(0 -9.14062e-06 0)
(0 -7.45164e-06 0)
(0 -8.86843e-06 0)
(0 -7.00722e-06 0)
(0 -8.11888e-06 0)
(0 -6.58175e-06 0)
(0 -7.67619e-06 0)
(0 -6.24967e-06 0)
(0 -7.49967e-06 0)
(0 -5.90997e-06 0)
(0 -6.94827e-06 0)
(0 -5.54953e-06 0)
(0 -6.52758e-06 0)
(0 -5.22515e-06 0)
(0 -6.16244e-06 0)
(0 -4.92043e-06 0)
(0 -5.90963e-06 0)
(0 -4.64508e-06 0)
(0 -5.63846e-06 0)
(0 -4.40356e-06 0)
(0 -5.53488e-06 0)
(0 -4.13074e-06 0)
(0 -5.00057e-06 0)
(0 -3.83278e-06 0)
(0 -4.72189e-06 0)
(0 -3.65177e-06 0)
(0 -4.65611e-06 0)
(0 -3.45933e-06 0)
(0 -4.27062e-06 0)
(0 -3.19912e-06 0)
(0 -3.96495e-06 0)
(0 -2.82956e-06 0)
(0 -3.72137e-06 0)
(0 -2.77323e-06 0)
(0 -3.59474e-06 0)
(0 -2.58942e-06 0)
(0 -3.44541e-06 0)
(0 -2.44596e-06 0)
(0 -3.45865e-06 0)
(0 -2.32824e-06 0)
(0 -3.12694e-06 0)
(0 -2.18512e-06 0)
(0 -2.985e-06 0)
(0 -2.08679e-06 0)
(0 -2.9416e-06 0)
(0 -1.98266e-06 0)
(0 -2.87474e-06 0)
(0 -1.87698e-06 0)
(0 -2.75192e-06 0)
(0 -1.79721e-06 0)
(0 -2.62392e-06 0)
(0 -1.70762e-06 0)
(0 -2.48742e-06 0)
(0 -1.61626e-06 0)
(0 -2.37429e-06 0)
(0 -1.55527e-06 0)
(0 -2.30519e-06 0)
(0 -1.55335e-06 0)
(0 -2.27954e-06 0)
(0 -1.54158e-06 0)
(0 -8.12406e-06 0)
(0 -1.09291e-05 0)
(0 -5.81921e-06 0)
(0 -4.42423e-06 0)
(0 -3.87374e-06 0)
(0 -2.24862e-06 0)
(0 -1.47837e-06 0)
(0 -2.24465e-06 0)
(0 -1.48603e-06 0)
(0 -1.54295e-05 0)
(0 -2.30248e-06 0)
(0 -2.08665e-05 0)
(0 -3.15936e-06 0)
(0 -1.6284e-06 0)
(0 -2.42116e-06 0)
(0 -1.24358e-06 0)
(0 -1.77528e-06 0)
(0 -2.59528e-06 0)
(0 -3.31702e-06 0)
(0 -3.53204e-06 0)
(0 -1.84265e-06 0)
(0 -3.02061e-06 0)
(0 -4.00777e-06 0)
(0 -4.32342e-06 0)
(0 -4.57369e-06 0)
(0 -9.18803e-07 0)
(0 -5.17801e-06 0)
(0 -1.92565e-06 0)
(0 -6.8005e-06 0)
(0 -5.44412e-06 0)
(0 -5.68144e-06 0)
(0 -8.62079e-07 0)
(0 -8.85643e-06 0)
(0 -6.63114e-06 0)
(0 -6.81968e-06 0)
(0 -1.06427e-06 0)
(0 -1.27509e-06 0)
(0 -1.21206e-05 0)
(0 -5.22759e-07 0)
(0 -6.76417e-07 0)
(0 -1.63703e-05 0)
(0 -7.83692e-06 0)
(0 -7.93258e-06 0)
(0 -1.51017e-08 0)
(0 -1.79783e-07 0)
(0 4.53351e-07 0)
(0 2.48942e-07 0)
(0 -1.36827e-05 0)
(0 8.58329e-07 0)
(0 6.32144e-07 0)
(0 -9.00439e-06 0)
(0 -9.01407e-06 0)
(0 -1.86735e-05 0)
(0 -1.8899e-05 0)
(0 -1.41934e-05 0)
(0 -1.06185e-05 0)
(0 1.19744e-06 0)
(0 9.57245e-07 0)
(0 1.40689e-06 0)
(0 3.55436e-07 0)
(0 6.67037e-07 0)
(0 2.09102e-08 0)
(0 3.30245e-07 0)
(0 9.43421e-07 0)
(0 6.10586e-07 0)
(0 1.18404e-06 0)
(0 -3.60452e-07 0)
(0 8.38814e-07 0)
(0 1.38482e-06 0)
(0 1.00316e-06 0)
(0 1.54159e-06 0)
(0 -4.57952e-05 0)
(0 -1.25236e-05 0)
(0 -1.63747e-05 0)
(0 -2.92677e-05 0)
(0 -2.66259e-05 0)
(0 -3.15157e-05 0)
(0 -1.22457e-05 0)
(0 -1.82482e-05 0)
(0 -1.71089e-05 0)
(0 -1.68754e-05 0)
(0 1.10877e-06 0)
(0 1.6632e-06 0)
(0 -1.49185e-05 0)
(0 -1.39027e-05 0)
(0 -1.01496e-05 0)
(0 -1.02473e-05 0)
(0 -1.0126e-05 0)
(0 -3.18283e-05 0)
(0 -3.35383e-05 0)
(0 -1.08077e-05 0)
(0 -7.34963e-06 0)
(0 -1.31705e-05 0)
(0 -1.8804e-05 0)
(0 4.66741e-07 0)
(0 -1.19347e-05 0)
(0 -9.89567e-06 0)
(0 1.21001e-06 0)
(0 1.76269e-06 0)
(0 -1.14436e-05 0)
(0 -1.15591e-05 0)
(0 -8.24621e-06 0)
(0 -5.41207e-06 0)
(0 -3.38871e-05 0)
(0 -3.53497e-05 0)
(0 -1.26877e-05 0)
(0 -1.81002e-05 0)
(0 -7.98273e-06 0)
(0 -1.3535e-05 0)
(0 1.30411e-06 0)
(0 1.82422e-06 0)
(0 -6.93156e-06 0)
(0 -3.62816e-06 0)
(0 -1.05944e-05 0)
(0 -2.02079e-05 0)
(0 -4.14432e-06 0)
(0 -1.0878e-06 0)
(0 -1.28204e-05 0)
(0 -1.2929e-05 0)
(0 -3.55701e-05 0)
(0 -3.69239e-05 0)
(0 2.00767e-06 0)
(0 -7.04433e-06 0)
(0 1.65058e-07 0)
(0 3.20947e-06 0)
(0 -1.11866e-05 0)
(0 -1.65099e-05 0)
(0 -2.3712e-05 0)
(0 -2.20626e-05 0)
(0 1.32859e-06 0)
(0 1.82261e-06 0)
(0 -2.95269e-05 0)
(0 -2.78706e-05 0)
(0 -2.00156e-05 0)
(0 -2.57774e-05 0)
(0 -3.39824e-05 0)
(0 -3.17775e-05 0)
(0 -4.03372e-05 0)
(0 -3.8416e-05 0)
(0 -4.73758e-05 0)
(0 -4.6287e-05 0)
(0 -5.54441e-05 0)
(0 -5.51593e-05 0)
(0 -4.53297e-05 0)
(0 -5.51224e-05 0)
(0 -6.463e-05 0)
(0 -6.55097e-05 0)
(0 -7.44192e-05 0)
(0 -7.62172e-05 0)
(0 -8.43298e-05 0)
(0 -8.70642e-05 0)
(0 -7.83584e-05 0)
(0 -8.95137e-05 0)
(0 -9.74972e-05 0)
(0 -9.99353e-05 0)
(0 -0.000107654 0)
(0 -0.000110065 0)
(0 -0.000117541 0)
(0 -0.000119821 0)
(0 -0.000126877 0)
(0 -0.000129045 0)
(0 -0.000135924 0)
(0 -0.000138164 0)
(0 -0.000145077 0)
(0 -0.000147591 0)
(0 -0.000154512 0)
(0 -0.000112377 0)
(0 -6.21525e-06 0)
(0 -9.87344e-06 0)
(0 -1.41904e-05 0)
(0 -1.4351e-05 0)
(0 4.75563e-06 0)
(0 7.9684e-06 0)
(0 -3.71505e-05 0)
(0 -3.83327e-05 0)
(0 -1.74595e-05 0)
(0 -3.56891e-05 0)
(0 -1.78576e-05 0)
(0 1.2881e-06 0)
(0 1.7618e-06 0)
(0 7.59829e-07 0)
(0 9.47118e-06 0)
(0 -1.56372e-05 0)
(0 -1.59422e-05 0)
(0 -1.54646e-05 0)
(0 -1.90666e-05 0)
(0 -1.73088e-05 0)
(0 -1.77924e-05 0)
(0 -3.87144e-05 0)
(0 -3.96967e-05 0)
(0 -5.44708e-06 0)
(0 -8.94899e-06 0)
(0 -2.35754e-05 0)
(0 -9.09571e-06 0)
(0 -1.02218e-05 0)
(0 -9.26087e-06 0)
(0 -1.04252e-05 0)
(0 -9.4338e-06 0)
(0 -1.06362e-05 0)
(0 2.25277e-06 0)
(0 2.17436e-06 0)
(0 1.65287e-06 0)
(0 2.05165e-06 0)
(0 1.51296e-06 0)
(0 1.90064e-06 0)
(0 1.33881e-06 0)
(0 1.72317e-06 0)
(0 2.25155e-06 0)
(0 2.07872e-06 0)
(0 2.57428e-06 0)
(0 2.40635e-06 0)
(0 2.86421e-06 0)
(0 2.7024e-06 0)
(0 2.21847e-06 0)
(0 2.51968e-06 0)
(0 2.97468e-06 0)
(0 2.79889e-06 0)
(0 2.32155e-06 0)
(0 2.61706e-06 0)
(0 3.05192e-06 0)
(0 2.88639e-06 0)
(0 -1.88973e-05 0)
(0 1.2475e-05 0)
(0 1.11907e-05 0)
(0 1.34781e-05 0)
(0 -4.00949e-05 0)
(0 -4.0666e-05 0)
(0 -9.70254e-06 0)
(0 3.28671e-06 0)
(0 3.12688e-06 0)
(0 -0.000124292 0)
(0 -1.87245e-05 0)
(0 -1.84624e-05 0)
(0 -4.77118e-06 0)
(0 -8.08391e-06 0)
(0 2.70288e-06 0)
(0 2.95388e-06 0)
(0 3.3426e-06 0)
(0 3.17704e-06 0)
(0 -2.28684e-05 0)
(0 -1.918e-05 0)
(0 -1.98087e-05 0)
(0 -4.08424e-05 0)
(0 -4.07812e-05 0)
(0 -4.03065e-05 0)
(0 -4.00723e-05 0)
(0 -3.95875e-05 0)
(0 -3.94127e-05 0)
(0 -3.91073e-05 0)
(0 -3.94617e-05 0)
(0 -3.89468e-05 0)
(0 -3.88921e-05 0)
(0 -3.84785e-05 0)
(0 -3.85507e-05 0)
(0 -3.76084e-05 0)
(0 -3.7828e-05 0)
(0 -3.64172e-05 0)
(0 -3.6845e-05 0)
(0 -3.61667e-05 0)
(0 -7.18981e-06 0)
(0 -9.58241e-06 0)
(0 -1.07635e-05 0)
(0 3.53786e-06 0)
(0 3.37168e-06 0)
(0 2.99823e-06 0)
(0 3.18235e-06 0)
(0 3.5395e-06 0)
(0 3.34477e-06 0)
(0 3.6748e-06 0)
(0 1.53458e-05 0)
(0 1.49095e-05 0)
(0 2.9769e-06 0)
(0 -4.18799e-06 0)
(0 -8.67408e-07 0)
(0 -7.44997e-06 0)
(0 -3.52809e-05 0)
(0 -3.57022e-05 0)
(0 1.82286e-05 0)
(0 1.843e-05 0)
(0 -1.81417e-05 0)
(0 -1.77469e-05 0)
(0 -1.84935e-05 0)
(0 -2.08932e-05 0)
(0 -1.92608e-05 0)
(0 -2.14309e-05 0)
(0 -1.99579e-05 0)
(0 -2.21675e-05 0)
(0 -2.07042e-05 0)
(0 -2.29628e-05 0)
(0 -2.15006e-05 0)
(0 -2.38138e-05 0)
(0 -2.23111e-05 0)
(0 -2.47247e-05 0)
(0 -2.3163e-05 0)
(0 -2.5691e-05 0)
(0 -2.7363e-05 0)
(0 -2.84178e-05 0)
(0 -2.66906e-05 0)
(0 -2.95068e-05 0)
(0 -2.77454e-05 0)
(0 -3.06662e-05 0)
(0 -2.88318e-05 0)
(0 -3.18794e-05 0)
(0 -2.99645e-05 0)
(0 -3.31944e-05 0)
(0 -3.12009e-05 0)
(0 -3.4567e-05 0)
(0 -3.25595e-05 0)
(0 -3.60571e-05 0)
(0 -3.39945e-05 0)
(0 -3.76704e-05 0)
(0 -3.55102e-05 0)
(0 -3.92545e-05 0)
(0 -3.71076e-05 0)
(0 -4.07814e-05 0)
(0 -3.86543e-05 0)
(0 -4.22818e-05 0)
(0 -4.01334e-05 0)
(0 -4.38492e-05 0)
(0 -4.17069e-05 0)
(0 -4.55526e-05 0)
(0 -4.34092e-05 0)
(0 -4.74146e-05 0)
(0 -4.52753e-05 0)
(0 -4.94774e-05 0)
(0 -4.74597e-05 0)
(0 -5.17232e-05 0)
(0 -4.62212e-05 0)
(0 -4.95846e-05 0)
(0 -5.40108e-05 0)
(0 -5.17036e-05 0)
(0 -5.62726e-05 0)
(0 -5.41452e-05 0)
(0 -5.87608e-05 0)
(0 -5.6647e-05 0)
(0 -6.1484e-05 0)
(0 -5.91854e-05 0)
(0 -6.42562e-05 0)
(0 -6.18822e-05 0)
(0 -6.72743e-05 0)
(0 -6.4857e-05 0)
(0 -7.05343e-05 0)
(0 -3.9623e-05 0)
(0 -3.01906e-05 0)
(0 -5.4128e-05 0)
(0 -6.36341e-05 0)
(0 -1.50647e-05 0)
(0 -2.1159e-05 0)
(0 -9.73227e-06 0)
(0 -1.08578e-05 0)
(0 -1.1917e-05 0)
(0 -1.20512e-05 0)
(0 -1.31003e-05 0)
(0 3.93699e-06 0)
(0 -4.12262e-06 0)
(0 -7.46201e-06 0)
(0 -3.40744e-05 0)
(0 -2.36596e-05 0)
(0 -5.53968e-05 0)
(0 1.03147e-05 0)
(0 1.40007e-05 0)
(0 2.04309e-05 0)
(0 2.05193e-05 0)
(0 -1.32843e-05 0)
(0 -1.43216e-05 0)
(0 -1.19932e-05 0)
(0 -1.73159e-05 0)
(0 -1.65507e-05 0)
(0 -4.84059e-06 0)
(0 -8.37477e-06 0)
(0 -2.19363e-05 0)
(0 -9.8755e-06 0)
(0 -1.1719e-05 0)
(0 2.15263e-05 0)
(0 2.1047e-05 0)
(0 2.22338e-05 0)
(0 2.06029e-05 0)
(0 2.02183e-05 0)
(0 1.98264e-05 0)
(0 1.87699e-05 0)
(0 1.83428e-05 0)
(0 1.6968e-05 0)
(0 1.62146e-05 0)
(0 1.72469e-05 0)
(0 -2.34907e-05 0)
(0 -2.33274e-05 0)
(0 1.54376e-05 0)
(0 -3.30995e-05 0)
(0 -3.98156e-05 0)
(0 -2.80688e-05 0)
(0 1.05604e-05 0)
(0 1.43719e-05 0)
(0 -4.70543e-05 0)
(0 -5.48062e-06 0)
(0 -8.70987e-06 0)
(0 -3.89187e-05 0)
(0 6.72041e-07 0)
(0 9.02497e-07 0)
(0 6.23167e-08 0)
(0 1.08118e-06 0)
(0 1.99466e-07 0)
(0 1.1782e-06 0)
(0 2.60766e-07 0)
(0 1.17304e-06 0)
(0 -6.85941e-07 0)
(0 2.49001e-07 0)
(0 1.10579e-06 0)
(0 1.85524e-07 0)
(0 1.00644e-06 0)
(0 1.83603e-06 0)
(0 1.70663e-06 0)
(0 8.75854e-07 0)
(0 1.55172e-06 0)
(0 2.28895e-06 0)
(0 2.1232e-06 0)
(0 2.76991e-06 0)
(0 2.60517e-06 0)
(0 1.94677e-06 0)
(0 2.42987e-06 0)
(0 3.00684e-06 0)
(0 2.83054e-06 0)
(0 2.24508e-06 0)
(0 2.65984e-06 0)
(0 3.17426e-06 0)
(0 3.02954e-06 0)
(0 2.48273e-06 0)
(0 2.86893e-06 0)
(0 3.36498e-06 0)
(0 3.2124e-06 0)
(0 3.69279e-06 0)
(0 3.49508e-06 0)
(0 3.04242e-06 0)
(0 3.33717e-06 0)
(0 2.86795e-06 0)
(0 3.17435e-06 0)
(0 3.59271e-06 0)
(0 3.44089e-06 0)
(0 3.81382e-06 0)
(0 3.67848e-06 0)
(0 3.28115e-06 0)
(0 3.52823e-06 0)
(0 3.92344e-06 0)
(0 3.74292e-06 0)
(0 3.33756e-06 0)
(0 3.60784e-06 0)
(0 3.91967e-06 0)
(0 3.79888e-06 0)
(0 3.45486e-06 0)
(0 3.65706e-06 0)
(0 3.9775e-06 0)
(0 3.86481e-06 0)
(0 3.49964e-06 0)
(0 3.73291e-06 0)
(0 4.03999e-06 0)
(0 3.92468e-06 0)
(0 3.60937e-06 0)
(0 3.81052e-06 0)
(0 4.09246e-06 0)
(0 3.97876e-06 0)
(0 3.70764e-06 0)
(0 3.87618e-06 0)
(0 4.12857e-06 0)
(0 4.03484e-06 0)
(0 3.7789e-06 0)
(0 3.93916e-06 0)
(0 4.17773e-06 0)
(0 4.08501e-06 0)
(0 3.84047e-06 0)
(0 3.99443e-06 0)
(0 4.21895e-06 0)
(0 4.13972e-06 0)
(0 3.90468e-06 0)
(0 4.05971e-06 0)
(0 3.81461e-06 0)
(0 3.97906e-06 0)
(0 4.19535e-06 0)
(0 4.12743e-06 0)
(0 3.89973e-06 0)
(0 4.05445e-06 0)
(0 4.25389e-06 0)
(0 4.19392e-06 0)
(0 3.98458e-06 0)
(0 4.13136e-06 0)
(0 4.32165e-06 0)
(0 4.26293e-06 0)
(0 4.06334e-06 0)
(0 4.20031e-06 0)
(0 3.98997e-06 0)
(0 4.13588e-06 0)
(0 3.91686e-06 0)
(0 4.0718e-06 0)
(0 4.26488e-06 0)
(0 4.20535e-06 0)
(0 4.3661e-06 0)
(0 4.32129e-06 0)
(0 4.1487e-06 0)
(0 4.27935e-06 0)
(0 4.45629e-06 0)
(0 4.39837e-06 0)
(0 4.22575e-06 0)
(0 4.34648e-06 0)
(0 4.16924e-06 0)
(0 4.29457e-06 0)
(0 4.4523e-06 0)
(0 4.40523e-06 0)
(0 4.2412e-06 0)
(0 4.35735e-06 0)
(0 4.18459e-06 0)
(0 4.30752e-06 0)
(0 4.12635e-06 0)
(0 4.25587e-06 0)
(0 4.41703e-06 0)
(0 4.36952e-06 0)
(0 4.50855e-06 0)
(0 4.47153e-06 0)
(0 4.32386e-06 0)
(0 4.4331e-06 0)
(0 4.2765e-06 0)
(0 4.39003e-06 0)
(0 4.52911e-06 0)
(0 4.4883e-06 0)
(0 4.34156e-06 0)
(0 4.44394e-06 0)
(0 4.28837e-06 0)
(0 4.39696e-06 0)
(0 4.53653e-06 0)
(0 4.49557e-06 0)
(0 4.34791e-06 0)
(0 4.45163e-06 0)
(0 4.58442e-06 0)
(0 4.54461e-06 0)
(0 4.40421e-06 0)
(0 4.50233e-06 0)
(0 4.35388e-06 0)
(0 4.45751e-06 0)
(0 4.58893e-06 0)
(0 4.54944e-06 0)
(0 4.41137e-06 0)
(0 4.50926e-06 0)
(0 4.36468e-06 0)
(0 4.46751e-06 0)
(0 4.59584e-06 0)
(0 4.55724e-06 0)
(0 4.42171e-06 0)
(0 4.5143e-06 0)
(0 4.37055e-06 0)
(0 4.46619e-06 0)
(0 4.59443e-06 0)
(0 4.54998e-06 0)
(0 4.41263e-06 0)
(0 4.50021e-06 0)
(0 4.62374e-06 0)
(0 4.57617e-06 0)
(0 4.35376e-06 0)
(0 4.68784e-06 0)
(0 4.64351e-06 0)
(0 4.74372e-06 0)
(0 4.70248e-06 0)
(0 4.79144e-06 0)
(0 4.75138e-06 0)
(0 4.65748e-06 0)
(0 4.70895e-06 0)
(0 4.82807e-06 0)
(0 4.60902e-06 0)
(0 4.66818e-06 0)
(0 4.75793e-06 0)
(0 4.72544e-06 0)
(0 4.63287e-06 0)
(0 4.68855e-06 0)
(0 -2.38785e-06 0)
(0 4.86834e-06 0)
(0 4.89909e-06 0)
(0 1.62873e-05 0)
(0 1.45264e-05 0)
(0 4.7792e-06 0)
(0 4.73854e-06 0)
(0 4.62195e-06 0)
(0 4.68509e-06 0)
(0 -1.45192e-05 0)
(0 -1.55483e-05 0)
(0 -2.02919e-05 0)
(0 4.56872e-06 0)
(0 4.62563e-06 0)
(0 -1.61481e-05 0)
(0 -1.51097e-05 0)
(0 1.12957e-06 0)
(0 7.09721e-07 0)
(0 4.79108e-07 0)
(0 2.61323e-08 0)
(0 -2.05516e-07 0)
(0 -6.76722e-07 0)
(0 -1.21751e-05 0)
(0 -1.19679e-05 0)
(0 -2.35333e-05 0)
(0 -2.46713e-05 0)
(0 -2.44306e-05 0)
(0 -2.58881e-05 0)
(0 -2.52208e-05 0)
(0 -2.69636e-05 0)
(0 -2.59653e-05 0)
(0 4.8254e-06 0)
(0 -5.45798e-05 0)
(0 -7.67807e-06 0)
(0 -1.09693e-05 0)
(0 1.60522e-05 0)
(0 1.43008e-05 0)
(0 2.29558e-05 0)
(0 2.42208e-05 0)
(0 4.49462e-06 0)
(0 4.55723e-06 0)
(0 4.6922e-06 0)
(0 4.61525e-06 0)
(0 -1.22287e-05 0)
(0 4.47298e-06 0)
(0 4.53547e-06 0)
(0 4.66609e-06 0)
(0 4.58982e-06 0)
(0 4.93328e-06 0)
(0 4.95766e-06 0)
(0 -0.000151373 0)
(0 -4.51257e-05 0)
(0 -8.09465e-05 0)
(0 -0.000105175 0)
(0 -8.89114e-07 0)
(0 -1.37575e-06 0)
(0 1.12228e-05 0)
(0 1.53965e-05 0)
(0 4.70931e-06 0)
(0 4.63157e-06 0)
(0 1.36923e-06 0)
(0 -2.78508e-05 0)
(0 -2.68216e-05 0)
(0 -2.85581e-05 0)
(0 -4.53748e-06 0)
(0 -1.5666e-05 0)
(0 -1.67061e-05 0)
(0 -1.34522e-05 0)
(0 -1.46514e-05 0)
(0 -1.34899e-05 0)
(0 -1.54239e-05 0)
(0 4.74268e-06 0)
(0 4.66156e-06 0)
(0 4.7681e-06 0)
(0 4.68176e-06 0)
(0 4.78364e-06 0)
(0 4.69048e-06 0)
(0 4.7877e-06 0)
(0 -2.3575e-05 0)
(0 -2.37016e-06 0)
(0 -3.97584e-05 0)
(0 -3.39217e-05 0)
(0 -7.52802e-05 0)
(0 -5.587e-06 0)
(0 -7.3945e-06 0)
(0 3.7444e-06 0)
(0 3.66334e-06 0)
(0 3.45739e-06 0)
(0 3.36993e-06 0)
(0 3.12965e-06 0)
(0 3.03461e-06 0)
(0 3.98124e-06 0)
(0 -0.000128142 0)
(0 1.60157e-05 0)
(0 1.43396e-05 0)
(0 -1.54122e-05 0)
(0 2.07736e-06 0)
(0 -2.06431e-05 0)
(0 -2.26876e-05 0)
(0 -2.22187e-05 0)
(0 -2.43946e-05 0)
(0 -2.38578e-05 0)
(0 -2.60007e-05 0)
(0 -2.53781e-05 0)
(0 -2.08284e-05 0)
(0 -2.90503e-05 0)
(0 -1.09384e-05 0)
(0 -1.30797e-05 0)
(0 -9.07925e-06 0)
(0 -5.22897e-06 0)
(0 4.4302e-06 0)
(0 -6.88103e-06 0)
(0 4.6872e-06 0)
(0 4.7847e-06 0)
(0 2.76375e-06 0)
(0 2.48473e-05 0)
(0 2.62543e-05 0)
(0 4.98524e-06 0)
(0 5.00472e-06 0)
(0 -8.82623e-06 0)
(0 -9.03736e-06 0)
(0 -8.09662e-06 0)
(0 -8.37679e-06 0)
(0 -7.50711e-06 0)
(0 -7.87979e-06 0)
(0 -7.04221e-06 0)
(0 -7.46938e-06 0)
(0 -8.32793e-06 0)
(0 -6.6871e-06 0)
(0 -2.87228e-05 0)
(0 -2.7663e-05 0)
(0 -3.89876e-06 0)
(0 -3.059e-06 0)
(0 -4.2751e-06 0)
(0 -1.82878e-05 0)
(0 -1.35025e-05 0)
(0 -1.20103e-05 0)
(0 -1.39779e-05 0)
(0 -1.47454e-05 0)
(0 4.38031e-06 0)
(0 4.53502e-06 0)
(0 4.576e-06 0)
(0 1.29843e-05 0)
(0 1.70708e-05 0)
(0 4.80485e-06 0)
(0 2.66473e-06 0)
(0 3.04753e-06 0)
(0 -1.67206e-05 0)
(0 -1.77582e-05 0)
(0 -1.15873e-05 0)
(0 -1.04332e-05 0)
(0 -9.72796e-06 0)
(0 -8.9661e-06 0)
(0 -1.55623e-06 0)
(0 -2.07291e-06 0)
(0 -1.10855e-06 0)
(0 1.55736e-05 0)
(0 1.44698e-05 0)
(0 -7.11664e-06 0)
(0 -6.39307e-06 0)
(0 1.64354e-05 0)
(0 -2.7429e-05 0)
(0 -2.82111e-05 0)
(0 -2.64885e-05 0)
(0 -1.75361e-06 0)
(0 -1.35355e-06 0)
(0 -4.00735e-05 0)
(0 -3.86544e-05 0)
(0 -8.24881e-06 0)
(0 -2.95749e-05 0)
(0 -3.05064e-05 0)
(0 4.67285e-06 0)
(0 4.7727e-06 0)
(0 -3.67853e-05 0)