/*--------------------------------*- C++ -*----------------------------------*\
| =========                 |                                                 |
| \\      /  F ield         | OpenFOAM: The Open Source CFD Toolbox           |
|  \\    /   O peration     | Version:  v2012                                 |
|   \\  /    A nd           | Website:  www.openfoam.com                      |
|    \\/     M anipulation  |                                                 |
\*---------------------------------------------------------------------------*/
FoamFile
{
    version     2.0;
    format      ascii;
    class       volScalarField;
    location    "750";
    object      omega;
}
// * * * * * * * * * * * * * * * * * * * * * * * * * * * * * * * * * * * * * //

dimensions      [0 0 -1 0 0 0 0];


internalField   nonuniform List<scalar> 
18355
(
0.185429
0.0204318
0.184653
0.0210082
0.0388077
0.734425
0.0215595
0.0410774
0.0220125
0.258354
0.0248857
0.100977
0.108196
0.840339
0.0210819
0.0202029
0.0210044
0.0240044
0.14002
0.0226624
1.6514
0.0218716
0.0204604
0.741647
0.020471
0.0219811
0.0215828
0.0210141
0.022202
0.0254695
0.784013
0.0431419
0.020352
0.020065
0.0210673
0.022064
0.0271977
0.0221236
0.025811
0.021857
0.0221498
0.0252924
0.0200837
0.0204176
0.0204285
0.317223
0.0209849
0.0209742
0.805589
0.0212199
0.0208259
1.76627
0.0212759
0.115978
0.0212805
0.0226579
0.0211079
1.31024
0.0220357
4.42813
0.0200751
0.076765
0.114094
0.0214514
0.057996
0.0206226
0.0234383
0.0272601
0.0200215
0.136873
0.0209161
0.0212803
0.0348329
0.0250132
0.468605
0.0200401
1.28188
0.0200496
0.02089
0.472566
0.0233758
0.469879
0.0200316
0.0242175
0.0481269
0.0217524
0.022262
0.0385061
0.0208757
0.038525
1.03798
1.48247
0.467918
0.0212101
0.185643
0.0216942
0.0208591
0.0213655
0.0732819
0.0218026
0.0453147
0.0208619
0.021164
0.0195571
0.023558
0.0202144
0.0571299
0.337231
0.0322505
0.0201538
0.020728
0.021417
0.0290639
0.0239776
1.05192
0.0259464
0.0208405
0.466894
0.0226716
0.0232714
0.0928557
0.187169
0.988833
0.0448479
0.469515
0.615059
0.0215875
0.0210374
0.196541
0.0216438
0.0208633
1.72593
0.021263
0.0762148
0.0894283
0.0208671
0.140406
0.0749187
0.0211916
1.62262
0.0249918
0.109473
0.0209481
1.77097
0.0907174
0.0216461
4.3479
0.0195984
0.028811
0.284063
0.0210073
0.0232136
0.0213394
0.0271005
0.0200945
0.020583
0.0210507
0.0217437
0.0209545
0.0206823
0.0242297
0.0212691
0.0201625
0.0324862
0.025232
0.238992
4.39142
0.230138
0.401071
0.0249626
0.0212843
0.0714508
0.0216191
0.812842
0.0211527
0.0221104
0.0213377
0.0195201
0.0226156
0.0273428
0.0218002
0.186141
0.021762
0.0210375
0.124285
0.0211469
0.021813
0.037202
0.0213471
0.021662
0.361981
0.0737051
0.0204625
0.020059
0.021409
1.28321
0.0205369
0.241107
0.0204416
0.868966
0.0211139
0.0233408
0.026055
0.0217184
0.214785
0.0215708
0.447933
0.0210325
0.0203005
0.0212552
0.0215417
0.515993
0.0224322
0.0220052
0.0196086
0.82531
0.0273503
0.0251375
0.0215854
0.0209854
0.0310347
0.0199802
0.0364496
0.0239617
0.0372531
0.023346
0.0200017
0.0677739
0.154648
0.0317069
0.0214154
0.0235944
0.271942
0.0199929
0.0315521
0.0349771
0.0219666
0.444575
0.024644
0.02201
0.0204587
0.0225152
0.021611
0.0305383
0.0215656
0.0212867
0.020978
0.419046
0.727697
0.0209911
0.0217137
0.688844
0.135138
0.0246314
0.0195259
0.0491204
0.0246195
0.0217364
0.0232626
0.0208101
0.283559
0.0576014
0.067254
0.0292869
0.0264705
0.0344413
0.0362288
0.0800748
0.0208027
0.0212878
0.0218158
0.0201507
0.0233448
0.0252872
0.0209743
0.021547
0.030307
0.0208558
0.0757509
0.731996
0.0286004
0.0215677
0.0264671
0.0201396
0.0394171
0.0215229
0.0281062
0.02187
0.0275252
0.297956
0.0203293
0.0443037
0.0225833
0.0232849
0.0417517
0.0213125
0.0200439
0.0714244
0.0215436
0.118284
0.0272849
0.713362
0.0404012
0.0684309
0.0236227
0.0314716
0.0211653
0.0238506
0.0288319
0.0441958
0.155707
0.275415
0.0210644
0.023897
0.102611
0.026966
0.0210603
0.0209658
0.0209915
0.046398
0.308961
1.57426
0.141837
0.0298758
0.0247154
0.390962
0.0195985
0.0215499
0.0246526
0.0213615
0.0318798
0.0209434
0.549712
0.0202356
0.462661
0.0213501
0.0218108
0.0240102
0.118589
0.282828
0.0307256
0.110369
0.0218637
0.0208847
0.0213524
0.0241139
0.333895
0.0209064
0.0214715
0.220122
0.0218048
0.020909
0.136627
0.0236602
0.020985
0.0212953
0.0288885
0.0222452
0.0286566
0.0200637
0.0214626
0.0217671
4.37717
0.187131
0.020039
0.0209344
0.0295089
0.0209994
0.0215174
0.429924
0.200957
0.0321712
0.0213355
0.0220136
0.108736
0.0219416
0.0549146
0.0238981
0.0202718
0.0284039
0.0327698
0.0216941
0.0213433
0.0240267
0.0214659
0.023082
0.021404
0.0635946
0.0216278
0.0230427
0.0208674
0.0209921
0.0232038
0.0220618
0.0619293
3.88488
0.23905
0.0227545
0.135088
0.0293462
0.0213686
0.0208939
0.0416153
0.0213467
0.03285
0.0214429
0.026667
0.415699
0.0428255
0.229317
0.0721397
0.019565
2.76385
0.0218043
0.0209638
1.64059
0.021315
0.0266868
0.0203152
0.0654118
0.0213097
0.0691737
0.437291
0.0625204
0.0212803
0.020461
0.0649574
0.0226812
0.0210269
0.245289
0.0287201
0.0209581
0.0422145
0.0624389
0.0204567
0.0220729
0.0294516
1.49235
0.0395501
0.0218044
0.0212133
0.0369197
0.0212892
0.0201919
0.0211668
0.0408364
3.92333
0.0202554
0.0221493
0.021491
0.127465
0.0328488
0.020045
0.0267616
0.037102
0.0214799
1.57125
0.0768378
0.0217972
0.0214495
0.0381495
0.132671
0.9313
0.0202304
0.274165
0.0212357
0.0202458
0.0431326
0.0228062
0.0701194
0.03506
0.0231664
0.025591
0.0218822
0.133762
0.022799
0.0280994
0.021846
0.0202053
0.0217222
0.0202201
0.0769145
3.83416
0.0643725
0.0244405
0.0216054
0.021844
0.0214718
0.0236377
0.0215248
0.0200232
0.0213867
0.0396372
0.0204659
0.0215104
0.410973
0.249161
0.106174
0.0216238
0.0220185
0.0296824
0.021839
0.283433
0.20535
0.0235475
0.0242093
0.0258867
0.0222026
0.0235385
4.51914
0.0314578
0.021852
0.372979
0.0215788
0.253552
2.75013
0.0250765
0.0220256
4.47758
0.0209807
0.0661574
0.0436292
0.266572
0.0227939
0.0217003
0.0214654
0.393662
0.984534
0.262077
0.426117
0.0234673
0.021455
0.0242427
0.021295
0.0233656
1.62162
0.827632
3.78738
1.3761
0.0278256
0.0397246
0.0300601
0.0209937
0.0211489
0.0291514
0.0243554
0.0215384
0.021293
0.445893
0.0208451
1.38935
0.0248675
0.0753317
0.116662
0.0211551
0.0239604
0.207148
0.0213814
3.68059
0.0212721
0.71162
0.0314706
0.0219443
0.0297246
0.0797508
0.0730253
0.0219079
0.0200101
0.0353068
0.0252986
0.0758321
0.0213745
0.0767088
0.0208373
0.199742
0.0211562
0.021156
0.176225
0.0252669
0.0326974
0.0210446
0.0244796
0.0231061
0.546055
2.1269
0.024244
0.0295603
0.0211508
0.0263996
0.0217212
0.0240561
3.91343
0.0204208
0.229101
0.0215378
0.0212563
0.0241357
0.281763
0.0223771
0.077352
0.0220407
0.0352541
0.440428
0.0196056
0.0209858
0.23941
0.0372918
0.364425
0.0368527
0.02171
0.0212992
0.0209574
0.0249914
0.0219562
0.0201472
0.118765
1.32928
0.0211412
1.46319
1.52051
0.0242376
0.198374
0.0202076
0.172392
0.35105
0.0196664
0.439447
0.0393264
3.25691
0.547236
0.0211056
0.0209527
0.0216004
0.172098
0.0456134
0.0213038
0.0219496
0.115236
0.0217619
0.0406331
0.0210458
0.0372299
3.22799
0.385012
0.0492264
0.330957
0.0390637
1.34229
0.0242278
0.0209147
0.0254944
0.470542
0.0269251
0.0431385
0.0212914
0.145654
0.0215083
0.0217481
0.294992
0.0217276
0.0259452
0.0311493
0.0715576
0.0214732
0.0212886
0.024015
0.0247982
0.0199729
0.0215803
0.031006
0.123187
0.0230195
0.0212939
0.0420031
0.439016
0.0212365
0.315418
1.31673
0.0214714
0.61744
0.0200077
0.184263
0.0213476
0.0203505
0.177401
0.0229418
1.48032
0.0229056
0.0212907
0.667081
0.0213441
0.0201338
0.0215196
0.0209236
0.0263265
0.0365109
0.430388
0.022088
3.7254
0.0227612
0.348474
0.7878
0.0220937
0.0213448
0.0244934
0.0201331
0.0960829
0.0211903
0.0201099
0.0201377
0.0212909
0.021371
0.21977
0.0247085
0.0467
0.0227024
0.0239025
0.023859
0.0241414
0.128527
0.0204688
0.0762626
0.0449202
0.020015
0.834817
3.20151
0.0207814
0.334028
0.0211636
0.285315
0.0351959
0.0196485
0.0355625
0.0250896
0.332219
0.0208539
0.0242341
0.426512
0.0837902
0.204173
0.021367
0.0982912
0.0675632
0.164895
0.0213738
0.0228161
0.0210484
0.0214737
0.0210586
0.0209782
0.0204149
0.354602
0.025464
0.0208909
0.0200568
0.0205442
0.0217668
0.0789366
0.066856
0.0203208
0.0247865
0.0215368
0.0215699
0.021508
0.0209432
0.0341739
0.0200531
0.020884
0.0217901
0.021598
0.0232738
0.0217067
0.506898
1.44008
0.0243362
0.0208671
0.12605
0.0200998
0.0200609
0.0217032
0.143777
0.0242373
0.0214499
0.0201607
0.0204519
0.025262
0.0200136
0.0264688
0.021181
0.0217249
0.0210593
0.0227399
0.869024
0.0209069
0.0218282
0.0211828
0.148976
0.218855
0.0269589
0.021955
0.0292897
0.0252516
0.0328537
4.55503
0.0217694
0.297428
0.0218447
0.685295
0.0220495
0.0202812
0.020048
0.0739554
0.0200186
0.0272518
0.0273317
0.150591
0.0376698
0.0223025
0.0210181
0.0208455
0.0212228
0.0285873
0.098251
0.536182
0.0459652
0.0215302
0.020011
0.0224991
0.0210627
0.0208064
0.021776
0.0466834
0.0247305
0.445255
0.0215248
0.0214403
0.0313843
0.0213013
0.13193
0.0461484
0.0406842
0.121959
4.40465
0.0276799
0.0209809
0.0200192
0.0216767
0.0212786
0.21253
0.0455249
0.0945424
0.0203168
0.0215799
0.0229129
0.0208242
4.58307
0.0437856
0.0200577
0.0200539
0.0209765
0.0210673
0.0209158
0.0212933
0.243245
0.0199626
0.0219081
0.0203253
0.0205855
0.0210668
0.0214556
0.0263639
0.0205804
0.0253228
0.0201545
0.190364
0.198958
0.0240182
0.0514087
0.0226142
0.021889
0.064896
0.094553
0.021424
0.020745
0.0204744
0.0248419
0.0219858
0.0276765
0.0913209
0.0214919
0.0218976
0.0214838
0.514563
0.101188
0.0221103
0.0205949
0.0246602
0.040475
0.0211432
0.0730616
0.0208367
0.0199702
0.0244482
0.707185
0.429454
0.23153
0.253564
0.0200527
0.046427
0.0740674
0.0253505
0.021215
0.074898
0.0235207
0.15732
0.759301
0.0207356
0.0200615
0.0214813
0.0219751
0.0200667
0.048699
0.281586
0.0201073
0.0215156
0.021887
0.0371807
0.0212564
0.0208915
0.0309059
0.02185
0.0209343
0.193199
0.0904645
0.080288
0.0212653
0.0202449
0.0201232
0.0213309
0.0241752
0.0278981
0.020876
0.0206273
0.0227089
0.0772857
0.0204633
0.0214183
0.0715813
0.0209167
0.0207611
0.0213478
0.934001
0.0202236
0.0214488
0.0204666
0.0230388
0.0202354
0.0257533
0.124763
0.0214189
0.141099
0.0292398
0.195098
0.0581326
0.0209884
0.0260144
0.0208478
0.0207451
0.021001
0.353874
0.37879
0.0334248
0.0273494
0.523476
0.0670771
0.0220722
0.0944576
0.0442033
0.0235988
0.0200723
1.22257
0.0222387
0.0207418
0.0203944
0.274392
1.4134
1.02745
0.0207119
0.0823983
0.335866
0.0247029
0.029858
0.0236619
0.0229001
0.0341531
0.25585
0.022907
0.0222808
0.0243615
3.0035
0.222431
0.0212446
0.0213519
0.0210748
3.15778
0.023859
0.0219098
0.526913
0.0257643
0.0327578
0.0236374
0.283337
0.0206748
0.274942
0.0220551
0.0200587
0.0209805
0.0200145
0.0200714
0.0208967
0.02169
0.205848
0.0205264
0.200944
0.0267735
0.0216763
0.0207514
0.087921
0.0211991
0.0215097
0.0229901
0.765258
0.0417996
0.0229449
0.0215266
1.46978
0.0206701
0.0430343
0.02151
1.39236
0.0302053
0.276649
0.0257298
0.021029
0.0821821
1.45987
0.0352117
0.0205572
0.0213404
0.0368572
3.93697
0.0195637
0.0498852
0.0206798
0.0259189
0.0208664
0.020052
0.0219276
0.0220978
0.0200288
0.0330323
0.0332553
0.0240997
0.114555
0.981572
0.0221598
0.100188
0.0201017
0.0954467
3.28974
0.145156
0.0200294
0.0220115
0.0214878
0.878769
0.0210395
0.0208377
0.08141
0.0214956
0.0215174
0.0221353
0.0220079
0.0212438
2.2704
0.363523
0.0624069
0.0207556
0.021452
0.136001
0.0200936
0.143252
0.0216057
0.0214741
0.0219958
0.0236197
0.25609
0.020636
0.0214767
0.25311
0.0215643
0.0217752
0.0368305
3.62568
0.268296
0.0214306
0.0210357
3.7685
0.415649
0.196668
0.0206798
0.0337906
0.17701
0.0203599
0.0329672
0.0229027
0.260649
0.0232728
0.0215312
0.0221409
0.0200138
2.37812
0.0214673
0.0204909
0.130498
0.0294651
0.0923041
0.0199782
0.0225225
0.0200416
0.0196331
0.0202012
0.0222891
0.0216176
0.02181
0.0200182
0.0217246
0.0490577
0.0266853
0.0236961
0.0206136
0.0236682
0.0210688
0.296383
0.0216477
0.0220298
0.0215892
0.0200536
0.0217683
0.0212083
0.0211574
0.0212328
0.0208194
0.0202104
0.545279
0.237712
0.0212267
2.36956
0.0355176
0.0217537
0.021698
0.0221483
0.481863
0.0218679
0.020094
0.0200989
0.020037
0.22459
0.0212911
0.0202899
0.155047
0.020018
0.0197241
0.0232272
0.0239193
0.0850884
0.122888
0.380607
0.020045
0.365472
0.025378
0.0212275
0.0204235
0.0242753
0.0212785
0.0291656
0.0605257
0.0231795
0.0219579
0.302129
0.0510171
0.266394
0.0694057
0.0636954
0.0931098
0.0205028
0.199668
1.03336
0.0201273
0.322445
0.0207085
0.0223228
0.118261
0.0207384
0.0326413
0.0244955
0.0226883
0.0218207
0.0450515
0.0213771
0.10749
0.0212343
0.0201779
0.519912
0.0197433
0.0216744
0.0218487
0.0546663
0.021203
0.0214441
0.0227953
0.0731887
0.0211857
0.0212834
0.0202213
0.023717
0.0211801
0.0223199
0.149413
0.0209656
0.0262183
0.0216934
0.0233628
0.0226329
0.0209387
0.0219199
0.0879852
0.0215689
0.0217202
0.0240636
0.286329
0.0220309
0.0211279
0.0214259
0.0261206
0.0879867
0.0223713
0.0210223
0.0209601
0.0205614
0.0196184
0.0200542
0.0247934
0.0308639
0.0566971
0.0215236
0.822892
0.0206605
0.0216005
4.14368
0.0436004
0.0199834
0.0787616
0.0218637
0.0210202
0.42728
0.0218118
0.042499
0.0197401
0.133215
0.0205585
0.0200185
0.0202607
0.112025
0.0988114
0.0215375
0.159204
0.0202399
0.0209335
0.0207395
0.119949
0.0212259
0.0206528
0.0225718
0.0225626
0.0212686
0.0214384
0.0207906
0.0218257
0.0215124
0.0208468
0.0236003
0.019985
0.790156
0.0649494
0.0202037
0.482851
0.0261503
0.0209312
0.0206743
0.0219475
0.0207618
0.0293326
0.0249035
0.044459
0.0443076
0.0216735
0.0668382
0.133699
0.0212197
0.0216735
0.0814009
0.0234934
0.285722
0.020223
0.021184
0.02245
0.0220344
0.0209264
0.025953
0.0209478
0.0216709
0.0212507
0.023376
0.0205661
0.100696
0.0213435
0.024201
0.0285706
0.0209899
0.198938
0.434751
0.0231437
0.0260986
0.0280226
0.0198738
0.0496076
0.0214223
0.0346332
0.460287
1.49331
0.0356395
0.0219114
0.0267535
0.0210179
0.0298989
0.0205296
1.64984
0.0289723
0.0214605
0.0207974
0.342851
0.0346823
0.0212213
0.0212213
3.04541
0.0216149
0.0206435
0.533316
0.0514866
0.0201168
0.148917
0.02031
0.0517486
0.0545474
0.0212618
0.0214362
0.0229256
1.58329
0.020793
0.0259353
0.0214406
0.0212704
0.0208277
0.909277
0.0218115
0.0213876
0.0211136
0.129246
0.0262364
0.0208064
0.0197772
0.0950902
0.0211516
0.0204576
0.334653
4.34682
0.0219186
0.440298
0.0229677
0.0462283
0.0222237
0.0582096
0.185496
0.021764
0.0207655
0.0203267
0.024128
0.0212022
0.474797
0.0630944
0.0205302
0.0220321
0.0203351
0.0200179
0.274794
0.0212094
0.022442
0.0226735
0.0466936
0.0214557
0.0216744
0.0249171
0.160144
0.0214744
0.0213954
0.0204472
0.0205708
0.0239089
0.0434427
0.0215837
0.0211261
0.0212472
0.0211096
0.0203357
2.99135
0.021712
0.021028
0.0210986
0.0578932
0.0203741
0.0204599
0.0362793
0.0209401
0.0376066
0.0212558
0.021436
0.120524
4.33078
1.24001
0.0440546
0.0232963
0.0216909
2.05997
0.0206524
0.0249438
0.0199858
0.562608
0.0195424
0.0240077
0.0214642
0.83837
0.0367898
0.0337357
1.40233
0.0221847
0.0526833
0.021714
0.0219271
0.323606
0.0351791
0.0211756
0.0203022
0.0235393
0.0271112
0.021426
0.0212486
0.0206465
0.0199338
0.152521
0.371556
0.0217031
0.0221365
3.86718
0.791623
0.0232859
0.0221216
0.0230459
0.0244041
0.021214
0.0221244
0.0390834
0.0209078
0.0203251
0.0215035
0.0413535
0.173319
0.0253942
0.0215304
0.0215172
0.0259882
0.0213424
0.0247834
0.0419473
0.0431142
0.0231448
0.282298
0.0201187
0.0212246
0.0218406
0.0199803
0.0215526
0.0208553
0.0559384
0.0210086
0.472878
0.0213525
0.0207202
0.0204897
0.0250616
0.0222823
0.04349
0.0590858
0.0201599
0.259317
0.0240038
0.0205048
0.019809
0.0926519
0.185417
0.0198302
0.0208103
0.0207274
0.02208
0.152257
0.0443278
0.0225308
0.0219845
0.122896
2.66081
0.0219248
0.0212145
0.220906
0.0238083
0.169225
0.0231991
0.0211507
0.0609499
0.0262707
4.34388
0.027544
0.448092
0.020402
0.0209335
0.0217593
0.0215807
0.0236801
0.0216664
0.0215535
0.0207929
0.0218272
0.0215385
0.0212197
0.0214618
0.0227854
0.0218625
0.0213382
0.0208304
0.033618
0.0242059
0.0209164
0.0215151
0.149698
0.0214254
0.0218045
0.0218124
0.855809
0.0204614
0.0386729
0.0227082
0.0201832
0.0210765
0.566013
0.0550871
0.0219721
0.0216557
0.0231466
0.0394422
0.020869
0.0266065
0.0350766
0.0210575
0.0983358
0.0208134
0.0213316
0.0209484
0.0217822
0.0292467
0.0504754
3.84751
0.0246956
0.020192
0.0214984
0.0211033
0.0429741
0.0219401
0.10631
0.0208201
0.0213726
0.0213567
0.0706591
0.020976
0.0215744
0.0212624
0.12257
0.0204697
0.398064
0.0204278
0.0242107
0.0212661
0.0296769
0.0209919
0.023593
0.46643
0.0548412
0.0202007
0.0357279
0.0215122
0.0213655
0.365936
0.445788
0.0203201
0.0212436
0.0236151
0.0202565
0.0211172
0.0218664
0.0216993
0.0234018
0.0507741
0.0221136
0.0265286
0.0495529
0.0215898
0.0209981
0.021176
0.0230956
0.0290784
0.0214282
4.00888
0.0206652
2.14862
0.0367685
0.0201377
0.0207243
0.0207045
0.0556744
0.0214744
0.0235095
0.0214834
0.0207417
0.491959
0.0228896
0.0262011
0.0216571
0.0214589
0.0227417
0.0212301
0.0228913
0.0213675
0.022549
0.0219595
0.0218219
0.457513
0.0246743
0.425717
0.0209976
0.0230709
0.0221928
0.270202
0.0668471
0.446517
0.022504
0.019954
0.0408658
0.0208954
0.372677
0.0221484
0.0405727
0.0222835
0.795465
0.426988
0.0230937
0.0261949
0.0207483
0.0205333
0.0218925
0.019906
0.0217267
0.0229001
0.0207856
0.0246983
0.0574943
0.269619
0.0208936
0.0794163
0.020103
0.0211872
0.0211273
0.0839506
0.0216064
0.381665
0.0216777
0.0210978
0.231947
0.0208763
0.0232904
0.0210357
0.0230957
0.468667
0.0256807
2.73592
0.0213197
0.0652529
0.0229462
0.0211204
0.0211787
0.0274692
0.0237755
0.0212708
0.0227683
0.0213246
0.48569
0.0207323
4.2381
0.187531
0.071501
0.024506
0.118396
0.0241289
0.0198999
1.42384
0.0211858
0.12637
0.0218004
0.0225946
0.283127
0.282368
0.0261418
1.49096
0.0213846
0.323152
0.0196032
1.36427
0.0201598
0.0221192
0.0409815
0.0215292
0.0207186
0.0219273
0.0212676
0.0335815
0.0636726
0.0340362
0.052647
0.0206435
0.920756
0.0214437
0.0217358
0.0210435
0.0210985
0.436087
0.0216364
0.0205664
0.0362507
0.0218087
0.39602
0.0743402
0.0212628
0.0537904
0.0357531
0.0208574
0.0214372
0.0234858
0.0203256
0.0532929
0.0284095
0.0226027
0.0229317
0.0204474
0.0211661
0.0561711
0.0219265
0.0214481
0.0222807
0.0198822
0.0201302
0.297475
0.0259469
3.7554
0.0271945
0.0505807
0.0264083
0.0211165
0.0256501
0.0204445
0.0209804
0.074814
0.0237611
0.022701
0.0493106
0.0217044
0.569282
0.595569
0.0210925
0.023787
0.0256749
3.18966
0.0203151
0.0203159
0.0215901
0.0257879
0.048974
0.0249825
0.0237906
0.0217839
0.0211699
0.0199355
0.210675
0.0235943
0.0221709
0.306276
0.0216312
0.0226556
0.023803
0.0214916
0.0212324
0.0210219
0.0507991
0.101607
0.0218209
0.0232108
1.05336
0.0209332
0.0219326
0.023096
0.0215912
0.367982
0.301194
0.371567
0.0806004
0.854375
0.022401
0.0208431
0.0929398
0.0221181
0.0256148
0.0210437
0.0201942
0.394503
0.0603683
0.0210805
0.020751
0.0269485
0.123841
0.0232124
0.0199623
1.83825
0.0229059
0.0368644
0.020143
0.0266254
0.0195777
0.0228125
0.0248749
0.0211697
2.78119
0.0219733
0.0375302
0.095768
0.291134
0.0862327
0.0211934
0.05955
0.024516
0.0242184
0.0221893
0.0218748
0.0214382
0.0223908
0.119163
0.0228676
0.101581
0.0207824
0.194432
0.0202924
0.0218993
0.22161
0.0246693
0.189555
0.0226836
0.0221142
4.11719
1.29541
0.0208636
0.236617
0.0330839
0.0207213
0.0198472
1.50115
0.229275
0.020483
0.0202846
0.0211867
0.020226
1.41072
1.60017
0.0195199
0.0197942
0.0208606
0.240897
0.0455822
0.290575
0.020195
2.16936
0.0215953
0.063024
2.39661
0.023952
0.0205952
0.0206121
0.29008
0.0203417
0.0210592
0.0201999
0.0248258
0.0230695
3.00109
0.024767
0.0217593
0.0211914
0.0266171
0.176646
0.0375807
0.0211201
0.0208884
0.135433
0.0487716
0.0219958
0.531485
0.026678
0.0227423
0.283717
0.0227668
0.0251334
0.0218229
0.207127
0.0214072
0.021795
0.230483
0.0277771
0.0210501
0.0213507
0.0195847
0.0342561
0.105029
0.0209684
0.0202769
0.0220492
0.0604623
0.0223998
0.0202047
0.0212381
0.020728
0.0220561
0.041383
0.0214373
0.0209545
0.336042
0.0211086
1.48044
0.0308526
0.0319883
0.0234625
0.0221657
0.0214817
0.201642
0.0842471
0.06393
2.65315
0.0300403
0.0208722
0.318074
0.0202167
0.0676616
0.761329
0.0221149
0.0211284
0.0236792
0.0702939
0.0211952
0.0210158
0.224017
0.0212598
0.0228406
0.0207257
0.0217075
0.0203453
0.0696014
0.107397
0.0201427
0.0210233
0.485524
0.0211873
0.0201623
0.0209967
0.0208246
1.57014
0.0224066
0.0228355
0.0222815
0.0219721
0.0202387
0.0343331
0.0882253
0.0266166
0.256383
0.0231655
0.0232524
2.68477
0.020884
0.0203659
0.0210796
0.0208299
0.021794
0.019754
0.0222091
0.548245
0.0212109
0.0210942
0.0227013
0.0208048
0.124014
0.021665
1.53344
0.162929
0.0261587
0.0300414
0.116296
0.0236616
0.0211763
0.0231998
0.0209478
0.0223837
0.0215267
0.0217586
0.283086
0.0202886
0.021317
0.0433869
0.167684
0.0216919
0.0208414
0.173678
0.0221544
0.0275156
0.0213095
0.0208519
0.0209388
0.315073
0.0213978
0.170792
0.0533756
0.0223438
0.0208327
0.0210807
0.0244118
0.0700613
0.0201498
0.0353137
0.021099
2.11476
0.229587
0.022191
0.15535
0.021549
0.0228358
0.0238313
0.909234
0.0222667
0.025619
0.0267059
0.270274
0.0216704
0.0338089
0.0214535
0.057276
0.131768
0.147612
0.0209495
0.0271237
0.314407
0.522628
0.0227374
0.0237382
0.371573
0.380933
0.0208162
0.0518162
0.0211915
0.0236769
0.0214602
0.0223321
0.0222468
0.20745
0.0216358
0.0218095
0.0572456
0.334759
0.0701796
0.111889
0.072124
0.0207834
0.367873
0.0624008
0.0210289
0.021121
0.45067
0.023268
0.0214909
0.0212425
0.0405479
0.0206964
0.0212517
4.30311
0.021453
0.0217277
0.0210409
0.0214035
0.0225622
0.0204856
0.332864
0.0246256
0.0229958
0.0205194
0.0272312
1.50408
0.0208941
0.0216621
0.122067
0.16065
0.0213532
0.0242271
0.020708
0.0209309
0.0460338
0.147512
0.0209314
0.0210837
0.239775
0.479297
0.931644
0.0255702
0.0221443
0.366468
0.0207534
0.0248719
0.0240221
0.0205618
0.258363
0.663692
0.0388992
0.02445
1.14738
0.0198542
0.0197883
0.0226685
0.0347047
0.244715
0.0203332
0.0351894
0.34643
3.92212
0.0216373
0.0225033
0.666176
0.0210005
0.0235598
0.384496
0.0209558
0.0211904
0.0204939
0.582433
0.0208185
0.0237855
0.0218533
0.0326184
0.0262468
0.260812
0.0211854
0.0211338
0.0283477
0.0217358
0.022577
0.0221868
0.0940971
0.10557
0.0209906
0.0213328
3.76835
3.38123
0.774571
0.0207561
0.0213577
0.0226538
0.0215316
0.0212657
0.021434
0.0210947
0.0218676
0.0206763
0.0207623
0.0599124
0.0235217
0.0264994
0.686641
0.0651716
0.0486933
0.0239952
0.0409638
0.118816
0.030247
0.0230571
0.0251471
0.0210683
1.01186
0.0200555
0.0202784
0.0206691
0.285609
0.0208897
0.206996
0.021736
0.0201306
0.0426854
0.0211722
0.021146
0.0211641
0.0255664
0.163698
0.0216402
0.0205533
0.0226753
0.14493
0.0480509
0.393481
0.0210483
0.0328482
0.0215009
0.0215409
0.0201835
0.0207225
0.0213571
0.0214862
0.30951
0.0224302
0.022328
0.110354
0.466304
0.113245
0.0208395
0.0961968
0.0325167
0.0924113
0.0205505
0.0210031
0.0222294
0.449927
0.0197895
0.0213468
0.0207138
0.0203414
0.112372
0.0221536
0.0650737
0.0211595
0.0197733
0.0240888
0.0214337
0.391746
0.0211391
0.0232813
0.0217829
0.0268423
0.0220596
0.0609906
0.390387
0.0212295
0.0378894
4.36849
0.0211198
0.0215162
0.0412777
0.0197252
0.252803
0.0277503
0.0209487
0.0571526
0.0200184
0.021466
0.0214511
0.020696
0.020212
0.0221531
0.0207019
0.0207131
0.0215272
0.0217563
0.0479852
0.0200832
0.126224
0.02053
0.0208932
0.027767
0.0486483
0.0219827
0.0197231
0.0211932
0.0223212
0.0460988
0.773592
0.0328541
0.021913
0.0219618
0.0207537
0.0298968
0.0209264
0.0222703
4.20069
0.360624
0.0449639
0.0210778
0.0216829
0.0221491
0.0197315
0.0387098
0.0201188
0.123078
0.0219599
0.152295
0.0264273
4.21381
0.0215869
0.0674615
0.327437
0.368177
0.2732
0.0247463
0.374739
2.67951
0.0218646
0.0340268
3.68041
0.0203686
0.0207475
0.0213273
0.0237573
0.0613379
0.0214508
0.0236707
0.0825031
0.019524
0.0214668
1.99239
1.03641
0.0866107
0.297087
0.459546
0.0221323
0.0636609
0.0235191
0.0238972
0.0669289
0.0223772
3.46416
0.0376272
0.0237626
0.0213592
0.0225869
0.0233314
0.0205623
0.416029
0.0197842
0.0212397
0.0213069
0.431853
2.93613
0.0343502
0.021256
0.0223574
0.0204901
2.8614
0.0209801
0.0218994
0.0233961
0.0517644
0.0206943
0.0753467
2.76924
0.114151
0.0218384
0.0810595
0.0205743
0.700921
0.0198199
0.0779126
0.0221732
0.0594764
0.0263751
0.718083
0.115454
0.0226147
0.0226994
0.0268838
0.0234347
0.0211025
0.0207029
0.0242851
0.0217577
0.0574126
0.019644
0.0210621
0.0214326
0.0214031
0.079873
0.0207378
0.0201346
0.0214516
0.18081
0.0267109
0.0547084
0.0225725
0.0225384
0.0821917
0.0206201
0.0213078
0.0727485
0.0434225
0.0201367
0.0352892
0.0229105
0.119283
0.0212432
0.0373974
0.0222054
0.0212135
0.0202307
0.0201787
0.0211595
0.021073
0.922526
0.0658621
0.0215385
0.0213171
0.0211297
0.0221581
0.0268912
0.480553
0.021549
0.0296724
0.0237289
0.196236
0.021634
0.0455906
0.021291
0.0212509
0.0266251
0.0212148
0.0214336
0.0206861
0.0200454
3.81584
0.0213837
0.0207289
0.0492203
0.418943
0.0427381
0.0217939
0.0198695
0.0237787
1.24711
0.0231923
0.0216881
0.0215485
0.974604
0.0218654
0.0210889
0.204311
0.020757
0.0249817
0.0227037
0.0215332
0.0201659
0.0546257
0.0248543
0.0206327
0.0212748
0.0213611
0.0208927
0.470699
0.0226465
0.0213967
0.0197645
0.0219388
0.0201834
0.0212381
0.0712436
0.0206504
0.0237826
0.0231645
2.31717
0.0197279
0.0223759
0.0538796
0.0268459
0.151847
0.0209964
0.0214966
0.0342906
0.0214033
0.020147
0.0543083
0.0213989
0.329179
0.0842016
0.0604331
3.68453
0.0214173
0.026501
0.34276
0.0212396
0.0199901
0.620961
0.772869
0.020891
0.0201368
0.022575
0.0207715
0.18965
0.247917
0.0882267
0.0214843
0.0216417
0.0212177
0.0211276
3.57484
0.456906
3.80759
0.0246725
0.0223163
0.267475
0.0213311
0.0208903
0.0226594
0.0209234
0.0218496
0.150793
0.0197254
0.122642
0.0218619
0.0220143
0.0213947
0.0265648
0.0207791
3.24936
0.020687
0.0211981
0.0224965
0.0201636
3.69312
0.0242114
0.025088
3.10609
0.193441
0.0315715
0.923443
0.0213418
3.47939
0.0269852
0.0207649
0.0222753
0.021723
0.31809
0.458375
0.0214566
0.0236695
0.52234
0.021065
0.0205722
0.0234855
0.435109
0.393668
0.0215103
0.0220958
0.0932613
0.0229253
0.0627824
0.0627591
0.0711524
0.0201488
4.23842
0.021545
0.056501
0.0613655
0.0354057
4.29195
0.354355
2.79844
0.0203637
0.348065
0.0199253
0.019773
0.447512
0.0197619
0.0221297
0.0211437
0.0666805
0.0206173
0.127599
0.0201671
0.0251572
0.194345
0.0263395
0.0249849
0.28697
0.021815
0.0202433
0.0218578
0.0914337
0.0236118
0.125832
0.0214186
0.0261352
0.0217201
0.295094
0.0214203
0.0215903
0.0213683
0.404728
0.0315849
0.0215087
2.69676
0.0210794
0.0213455
0.0241472
1.08327
0.0213953
4.30712
0.0214467
0.284318
0.0214127
0.0427403
0.02098
0.0516001
0.021427
0.0648876
0.0247837
0.0304971
0.0208913
0.0217013
0.272299
0.0203654
0.0237036
0.0266528
0.0200576
0.0681708
2.58148
0.122205
0.0220121
0.0197364
0.0211835
0.115312
0.0232758
4.37413
0.0241193
0.176338
0.0210693
0.738502
0.0205389
0.0309572
0.100415
0.0227351
0.283785
0.0231419
3.01206
0.146594
0.0207704
0.980579
0.0223124
0.0211402
0.0228212
0.0853448
0.0230578
0.146262
0.024436
0.10292
0.0428976
0.059234
0.0464424
1.93071
0.0214548
0.0215274
2.46449
2.63265
0.0342027
0.0235526
0.459191
0.204154
0.0211085
0.0214257
0.0212092
0.739492
0.0207054
0.0209424
0.0339472
0.0663874
0.0198182
0.020611
0.0221571
4.31513
0.0205067
0.0238128
0.0198181
0.116327
0.0231155
0.185967
0.0218292
0.0206441
0.0213284
0.0202752
0.061906
0.0317336
0.962572
0.0213233
0.0292224
0.0202084
0.202737
0.145228
0.0488706
0.0207922
0.0533326
0.0208827
0.0215821
0.452605
0.0210716
0.02378
0.513109
0.020151
0.102253
0.0207611
0.0198282
0.0215526
0.189275
0.0208066
4.3579
0.112939
0.280919
0.352191
0.0207083
0.517195
0.060372
3.19773
0.033868
2.60109
0.16201
0.0215644
0.0337219
0.0216884
0.0282869
0.0208809
0.0227435
0.0212027
0.025946
0.30671
4.37253
0.0237489
0.023198
0.573955
0.450284
0.0212055
0.0214568
0.0691196
0.0369982
0.0204346
0.358223
0.0387717
0.0221523
0.020385
0.0224063
3.43326
0.0216221
0.058131
0.019583
0.73326
2.6075
0.102024
0.0222909
0.0214544
0.021156
0.021275
0.0214566
0.0242619
0.0223381
0.0215179
3.38172
0.0208349
0.0214569
0.021058
0.34473
3.72468
0.0212429
0.0213211
3.18613
0.020484
4.43133
0.0215229
0.0213709
0.0197235
0.021648
0.0206023
0.0227045
0.0202247
0.170213
0.021744
0.0656878
0.0213524
1.29806
0.0214666
0.0246385
1.63166
0.166732
0.0212454
0.0214476
0.0316224
0.019724
0.400397
0.182826
0.0224501
0.0207571
0.0212302
0.0203366
0.145991
0.32927
0.0410614
0.393953
0.0374021
0.0213665
0.0211828
0.0205287
0.512233
0.246379
0.0216085
0.0211315
0.0208142
0.027696
0.021379
1.15473
3.40714
0.0306745
0.0202774
2.99995
0.119061
0.0214452
0.294794
0.0214204
0.790078
0.03362
0.0336946
0.0261306
0.729843
0.0335991
2.45808
0.0208359
0.0205254
0.0206957
0.0203165
0.0214954
0.0290196
0.0205419
0.0257156
0.0200104
0.291576
0.0210776
0.0279584
1.6367
0.0220765
0.0198004
0.0286409
4.40458
0.021255
0.020601
0.160648
4.30013
0.211913
0.0218196
0.0197337
0.785038
0.112523
0.023546
0.0538938
0.0213932
0.0302611
0.0215104
0.108023
0.0206748
0.020929
0.23233
0.0204202
0.0227121
0.522033
0.0609682
0.0206345
0.0210029
0.0207445
3.30196
0.02399
0.026457
0.0214274
0.0207728
0.11075
0.03089
0.0211509
0.0212905
0.0197312
0.0227574
0.0206524
0.0226439
0.171321
2.4739
0.0231
0.0409507
0.0207899
0.0433796
0.021217
0.0215414
0.0207571
0.265749
0.0379621
0.0200159
0.022673
0.223081
0.0381917
4.03026
0.0508725
0.0212895
0.0207716
0.0262425
0.0224733
4.2745
0.0205234
2.86754
4.34377
0.0208981
0.0391813
0.413855
0.0250082
1.72104
0.0935983
0.0216883
4.28968
0.0259191
0.0203795
2.58377
0.644453
0.0897682
0.0216884
0.336783
0.216287
0.0213386
0.156208
0.375682
0.0213801
0.0207078
0.0218221
0.0200273
0.0215444
0.64798
4.38992
0.0214254
0.0232788
1.05303
2.77908
0.0309938
0.616263
0.0210718
0.0252628
4.22649
0.0511433
2.73464
4.21416
0.021251
0.0214369
0.0210384
0.0217192
4.23905
0.244635
0.0210047
0.036571
3.6634
0.275113
0.0537111
0.0211342
0.0214714
0.0219482
0.289569
0.0221654
0.0367818
0.0296662
0.0220274
0.260779
0.0233598
0.562414
0.12366
3.37804
0.0212137
0.0212027
0.0224979
0.0329616
0.197037
0.209513
0.0218771
2.20755
4.29059
0.030662
0.0326345
3.68808
0.388556
0.346938
3.26491
0.0213207
0.362857
0.0887386
0.0300812
0.0262924
0.1135
0.0224211
0.0996336
0.0233532
0.0209143
0.0199861
0.0215557
0.0208833