/*--------------------------------*- C++ -*----------------------------------*\
| =========                 |                                                 |
| \\      /  F ield         | OpenFOAM: The Open Source CFD Toolbox           |
|  \\    /   O peration     | Version:  v2012                                 |
|   \\  /    A nd           | Website:  www.openfoam.com                      |
|    \\/     M anipulation  |                                                 |
\*---------------------------------------------------------------------------*/
FoamFile
{
    version     2.0;
    format      ascii;
    class       surfaceScalarField;
    location    "500";
    object      meshPhiCN_0;
}
// * * * * * * * * * * * * * * * * * * * * * * * * * * * * * * * * * * * * * //

dimensions      [0 3 -1 0 0 0 0];
oriented        oriented;


internalField   nonuniform List<scalar> 
27284
(
0.0011991
-0.00198474
0.000786285
-0.000967817
0.000889389
0.000109341
0.000711773
0.000597535
-0.00130905
-0.000639987
0.0010135
-0.000297928
0.000110373
0.00206337
-0.00216045
-0.00217637
-0.000613519
0.00279722
0.00133794
-0.00213369
0.000809784
0.00215646
-0.0020329
-0.000154153
0.000207471
2.66657e-06
0.00145254
-0.00170812
0.000261973
0.00324509
-0.0011008
-0.00213608
0.0012394
-0.000600833
-0.000638356
0.000437957
0.00080164
0.00085786
0.00156199
-0.00241777
-0.000357926
0.000352348
6.50351e-05
0.000522966
-0.00070651
0.000204117
-0.000858949
0.000308678
-0.000657688
0.00271918
-0.00205262
0.000767191
0.000797792
-0.00156452
0.00125761
0.000709723
-0.00195574
0.000991387
-0.00222675
0.00123638
0.000553235
-0.00261582
0.0020809
-0.000355132
0.00071535
-0.000319061
0.000531524
-0.00269717
0.00026517
-0.000582818
0.00195578
-0.00267633
0.000738236
0.00056533
0.0016966
-0.00223864
-0.00163818
0.000178958
0.00153062
-0.000113654
1.07107e-05
0.00304043
-0.00118681
-0.00184793
0.00119382
0.00101162
-0.00220547
0.000876338
-0.00246734
0.00159379
-0.000662126
-9.3527e-05
0.00077004
0.00038865
3.49268e-05
-0.000405975
1.77713e-06
1.51337e-06
-2.05511e-06
0.0016768
-0.00227971
0.000611429
0.00111905
0.000835692
-0.00195223
-0.00023604
0.00192257
0.00104662
0.00199879
-0.00269315
0.00234341
0.000363229
0.000199611
0.000221395
-0.000271767
0.0020645
6.54218e-05
0.000404879
-0.000452748
0.00079407
-0.000963161
0.000199476
-0.000143575
0.000806243
-0.00103006
0.000223882
-0.00160339
-0.00023411
0.00188349
0.000212748
-0.00177033
-0.00145462
0.00263153
-0.000429286
-0.00217093
0.000112997
-5.57549e-05
-3.90929e-05
0.00126187
-0.00207425
0.000812581
0.00216079
0.00049325
-0.000928884
0.00166331
-0.000733783
0.00265684
-0.000822103
-0.00177446
-0.000824626
0.00209425
3.16786e-05
-1.42499e-05
-9.57942e-06
-0.00232454
0.0026882
-0.000712799
-0.000958734
0.000336531
0.000622247
0.000471879
0.000549555
0.000706501
-0.00125563
-0.00181496
0.000886953
0.0011673
-0.000391446
-0.000765177
1.02244e-05
0.00167958
-0.00168786
-0.000107412
9.93382e-05
2.71877e-05
-0.000399218
-0.00146281
0.00186612
-0.000405848
0.00152698
0.000346148
5.04055e-05
-0.000381704
-0.00284562
0.00191062
0.000943286
-0.00158089
0.00205296
-0.00044499
0.00131105
0.0013872
-0.000422718
0.00228055
-0.00185408
0.00282641
-0.000701249
-0.00211816
-0.000281875
0.00193399
-0.00164482
0.000390088
6.13079e-05
-0.000435331
-0.00204597
-0.000278499
-3.42443e-05
0.000440779
-0.0019273
0.000372242
0.00174177
-0.00201597
0.00166096
-0.0020558
-0.00164212
0.00234175
-0.00069268
0.000422546
-0.00183116
-0.000162798
0.00199959
-0.00232478
0.000999448
0.00132711
6.84075e-05
2.49046e-05
-6.03744e-05
0.000413315
-0.000183221
-0.000129458
0.000536957
-0.00185977
0.00132538
0.00172343
0.000145526
-0.00182521
-0.00142005
0.00195975
-0.000253925
-0.00182866
0.00270534
-0.0018192
-0.000884823
0.000966292
-0.00260086
-0.00239974
0.00199906
0.003014
-0.00115076
-0.00185747
-0.0011915
0.000444183
0.000757135
0.00168104
-0.000518235
-0.00111491
-0.000373752
-0.000806135
-0.00024218
0.00141154
-0.00116852
-0.00204497
-0.000217949
0.00227708
-0.00147915
-0.00084425
-0.00163226
-0.000268769
-0.000423655
-0.00194582
-8.6156e-06
1.26262e-05
-2.82418e-06
-3.9955e-05
0.0018854
-0.00184132
0.000803083
-0.000254198
0.00183329
-0.00182095
0.000890902
0.0021148
-0.00228504
0.00116312
0.00112384
2.11026e-05
0.000516281
-0.000517847
2.57511e-05
1.32073e-05
3.05584e-05
-2.75165e-05
1.24789e-05
-0.000318139
0.00185451
-0.0015341
0.000197506
-0.00202274
0.000945977
-0.00116498
0.000219097
0.00229951
-0.000541195
-0.00175381
-0.00203734
0.000432325
-0.000305543
0.00205614
-0.000355493
0.00222759
-0.00186391
-0.00296103
0.00150328
-0.00126103
-0.00158197
-0.00048493
0.00119692
-0.00239611
-0.00224932
0.00110667
0.00114463
0.00158078
-0.00187848
-0.000917117
0.000808337
0.000108861
0.00192194
-0.000640312
-0.000130153
0.00200843
-0.000808775
-0.00258559
0.00237627
0.000224673
0.00045831
0.00126955
0.00246462
-0.00120248
0.0024769
-0.00163354
-0.000812198
-0.00178384
0.000808218
0.000976274
0.000617217
-0.00159518
0.000978672
-0.00148399
-0.000170049
0.00169089
0.00153852
-0.000770944
-0.00164667
-0.000710025
0.00236116
-0.000669039
-2.35e-05
0.000808371
0.00127312
0.00143326
5.11878e-05
-0.00141678
0.00136903
-0.000403093
-0.00174159
0.00215115
0.00151551
-0.0018064
0.000331696
-0.000930896
-0.00143051
-0.00118583
0.00180389
-0.000509137
0.000360897
0.000243339
0.000366327
0.000629492
-0.000995768
3.01127e-05
-1.10168e-05
-1.8874e-05
0.00164239
-0.00195818
-3.33046e-05
4.98498e-05
-1.66318e-05
-0.00153229
-2.98607e-05
-0.00118496
-0.00176848
0.00137414
-0.000427535
-0.000933565
0.000400309
0.00166022
-0.00205224
0.00051124
-8.85902e-05
-0.000413936
0.000244629
0.000209193
0.000134364
-0.000684822
-1.59443e-05
0.000110368
-8.47752e-07
0.00154634
-0.000166235
-0.00019707
-0.00252223
0.000551987
0.00197733
0.000708224
0.00179221
0.000433329
-0.000396772
0.000423152
0.00172679
-0.00214035
-0.00273092
0.000697048
0.00204144
-0.00104524
0.0015002
-0.000449659
-0.000441741
0.000808109
-0.000800385
0.00195466
-0.00115363
-0.00148416
-0.000727313
0.00221206
0.00166068
-0.00160545
2.05824e-05
1.72813e-05
-2.39285e-05
-0.0008828
-0.000900357
4.34686e-05
3.95506e-05
-5.26797e-05
0.00110075
-0.0025562
7.46135e-06
8.29885e-06
-1.00524e-05
-0.00019778
-0.000188149
-1.44582e-05
5.94277e-05
-1.54699e-05
7.22728e-08
1.56387e-05
-0.00256727
0.00133085
0.00124288
-0.000679989
-0.00123574
0.00191952
4.79471e-05
4.83787e-05
-6.15525e-05
-0.00141522
0.000375444
0.00221011
0.000179284
-0.00237531
-0.000331304
0.00165942
-0.00127759
0.0013991
-0.00115664
-0.000234759
-0.00235171
0.0019569
-1.20984e-05
-0.000104669
0.000160675
-0.000505924
0.00200585
-0.00149708
0.00192157
-0.000384922
-0.00144811
0.00188126
-0.000162148
8.15517e-05
-0.000998581
-0.00134545
0.00110405
0.00116089
-0.000927671
-0.000199699
-0.000388552
-5.99443e-05
0.000460305
0.000717741
-0.000856706
0.000283249
0.000783878
-0.00120955
0.000425791
8.13706e-05
4.9288e-05
0.00119569
-0.0019782
0.000783052
-7.88195e-05
0.00100176
0.0029084
-0.00204815
-0.000275134
-0.00205008
0.000381925
0.00226034
-0.00263189
0.00297344
-0.00192189
-8.99101e-05
-8.41346e-06
0.000135283
-0.0019704
0.00117065
0.000830874
-0.00272083
0.0019114
0.000649674
-0.00213341
0.00109519
-0.00138044
0.000707004
-0.000848718
0.000157518
0.00141704
-0.00038753
-0.00101515
0.00216088
-0.00227122
0.000128279
-0.00219884
0.00263164
-0.00042525
-0.00149726
0.00041902
0.00109056
-0.000516162
-0.000968936
2.10508e-05
9.65666e-06
-0.00162468
0.00272465
0.00137634
-0.00205222
0.0014299
-0.00166476
0.000237729
-0.00294642
0.000839302
0.00212539
-0.00214952
0.000676181
0.00151735
-0.000923924
-0.00135857
0.000321109
6.65058e-05
-0.000377104
0.00134421
0.000523925
-0.00186523
-0.000125712
0.000892494
-0.00075914
-0.0027754
0.00231841
0.000462025
0.000448344
-0.0017287
0.00129275
6.88641e-05
0.000355339
-0.000413047
0.00061231
-0.00225768
-0.00108478
0.00221234
-0.00112673
-0.000249495
0.00209894
-0.00184602
0.00142808
-0.00167397
0.000263101
0.00162463
-0.000140915
-0.000695649
0.000840977
0.000400614
-0.00166405
0.00209487
-0.00227951
-0.000490014
0.00258799
-0.000560255
-0.00201519
0.000887873
-0.000313776
0.00149971
-0.00118322
-0.00143543
0.000930308
0.00133336
-0.000434522
-0.000863287
-0.00134212
-0.00121969
-0.000437241
-0.000985144
0.00197642
-0.000156192
-0.00181722
-0.00209257
0.00251821
-0.000721272
-0.00173668
-0.000198339
0.00164511
-0.00139756
-0.00262963
0.000437362
-0.00177643
0.00258277
-0.000802652
-0.00234442
0.0020478
0.000326418
0.000394246
0.000783164
0.000859419
-0.000674937
0.00117806
-0.000502905
0.000812995
-0.000930796
-1.21589e-05
-2.48038e-06
-3.7021e-05
0.000864467
-0.000819728
0.00123584
-0.00154691
0.000582325
-0.000519492
6.83297e-05
-0.00138199
0.00184391
0.000456946
0.00101019
-0.00142236
-3.80864e-05
4.82715e-06
-0.00184908
0.000408249
0.00144877
0.00207128
-0.00112854
-0.000941805
-0.00188367
0.00128447
0.000600566
0.00202174
0.00095629
0.00053122
0.00204249
-0.00256185
-0.000370654
0.00214306
-0.00176279
-0.000510532
-0.00100061
0.00151195
-0.000936755
0.00143745
0.00175294
0.000175711
0.00176794
-0.0019231
-0.000472378
-7.09275e-05
0.000560543
-0.00216656
0.00255871
0.00165471
-0.000221467
0.000109718
0.00133851
-0.00137537
-1.59007e-05
-0.00204735
0.00208127
0.00346865
-0.00137784
-0.00208463
0.000261145
-0.0017072
-0.0018813
0.00100804
0.000874169
-0.0028967
0.000542649
0.00343545
-0.00140652
-0.00202075
-0.000162647
0.00233796
0.0026469
-0.000755515
-0.00188671
-0.000527592
7.20477e-05
-0.00201146
0.0014022
0.000611698
0.00212594
0.000339564
-0.00244289
-0.00290562
0.00157341
0.00133678
0.000537176
-0.000204298
-0.00152458
-3.68229e-05
-5.8715e-06
7.77727e-05
-0.000725819
0.000261342
-0.00130998
0.00104954
-0.00194937
0.00210613
-0.000148592
-0.00184705
0.000572411
0.00128674
0.00190597
-0.0022682
-0.000107039
-0.000188833
7.47822e-05
-0.000451885
-0.000838446
-0.00104173
0.00222397
-0.00222042
0.0017464
0.000847326
-0.001935
0.00109018
-0.00253816
-0.000193199
0.00169076
-0.00149565
0.000726646
7.69197e-05
0.00243008
-0.00249379
0.0013841
0.00209102
0.00188694
-0.00220583
0.000345044
0.00174425
0.000180418
-0.0019209
-0.000905384
-0.000976344
0.00123769
-0.000975495
0.000160371
0.000685894
-0.000842208
-0.000390025
-0.000685065
0.00107522
-0.00265658
0.00148135
0.00120396
-0.00210225
-0.000477796
0.00258799
0.00104938
-0.00183359
0.000785083
0.00126999
0.0013803
-0.00101231
-0.00160469
0.00185498
-0.00159468
0.000213791
0.00140156
-0.00155792
-0.000992696
-0.000473465
0.0014669
-0.00106362
0.000673731
0.000654217
0.000660869
-0.00131497
-0.000641369
0.000805699
0.00206351
-0.000329993
-0.00125712
0.00158974
5.56882e-05
0.00180333
-0.00185041
4.23812e-05
-3.3945e-05
-6.90312e-06
-0.00229209
-0.000402062
-0.00174398
-0.0023299
8.39717e-05
0.00227998
0.00173012
-1.10578e-06
3.93421e-06
-0.00165903
-0.000340741
0.00200407
1.53745e-05
-0.000686955
0.000691592
0.00271524
-0.00112772
-0.000809125
0.000828858
0.000110047
-0.000411797
-0.00226588
-0.000249893
-0.00226666
0.00252787
0.0012358
-0.000532673
-0.000702918
-0.00113962
-0.000847605
0.00198781
-0.00180413
0.00165065
0.000162713
-0.000799933
0.0026154
-0.00210804
-0.000494328
0.00188104
-0.000113823
-0.000135974
-0.00215983
-0.0023423
0.00211861
0.000236156
0.000116393
0.0013426
0.000214212
0.00169612
-0.00186942
0.000364405
-0.000428947
0.000173029
-4.43047e-05
1.20496e-05
3.25317e-05
0.000488704
0.00189655
-0.00237481
-0.000202205
-0.00165389
0.00189183
-0.000668878
0.0011971
-0.000528055
-0.00222384
-0.000104476
-0.000161985
0.00154617
-0.001335
-0.00206966
0.000294248
0.0017982
-0.000212218
0.00178968
0.000529355
-0.000181531
-0.000220672
0.00160723
-0.00181535
-0.000342491
-6.75236e-05
0.000418324
-9.82763e-05
0.000543806
-0.00232531
0.00029432
-0.000392399
-0.000566302
-0.000112665
0.000864633
-0.000747208
6.51227e-05
-0.000399305
0.00159131
0.000127296
-0.00167215
-0.00268026
0.0021862
0.000500206
-0.00107819
0.00133926
-6.32752e-05
8.41573e-05
3.31758e-06
-0.000307739
0.0019427
-0.00162802
0.000743378
-0.000851569
0.00341662
-0.00202618
0.00216931
-0.00218371
4.91213e-05
0.00105177
0.00154623
0.00113251
-0.00069437
0.00159048
-0.000502893
-0.00107452
-0.000876199
0.000846877
0.00184532
-9.8847e-05
-0.000649502
0.000798029
-0.000131247
-0.00261866
-4.94782e-05
-0.0013387
0.00227001
-0.000920781
0.00211964
0.000262234
-0.00236973
7.49002e-05
-0.000453005
0.000471988
0.00204089
-0.00269069
0.000238086
-0.00026498
9.57223e-05
-0.0021487
-0.000203692
0.00236657
-0.000137124
0.000967544
0.00198755
-0.0020565
7.14065e-05
0.000949024
0.00288824
-0.00103296
-0.00184868
-3.81669e-05
-5.05777e-05
0.0012844
-0.00260856
0.000453083
-0.000212322
-0.00173285
0.00196605
-2.27443e-05
-0.00100264
0.0010259
-0.000742336
-0.000309907
0.00105231
0.000141923
0.000726406
0.00029361
0.00154875
-0.0018273
-0.00127415
0.000599467
-0.00072561
0.00249355
-0.00175601
-5.32532e-05
-0.000651217
-8.21625e-07
8.21625e-07
0.00198142
-0.00106489
-0.000915333
0.000646193
0.00135471
0.00157429
0.00184967
-0.00134474
-0.000778813
-0.00278409
0.000775452
0.00201537
-0.00144953
0.00151218
-0.00265827
0.00253074
0.000136377
0.000834002
-0.00197298
0.000582465
0.00105686
-0.00163846
-9.04717e-06
1.06576e-06
0.000576046
0.000773876
-0.00134985
-0.0023814
0.00217852
-0.00113919
0.00131483
0.00214706
-0.00115462
0.000902371
4.29628e-05
-0.00164867
-0.000956029
-3.7207e-05
1.61465e-05
2.10678e-05
0.000189713
0.00164533
0.00110509
-0.000117105
-0.00166235
0.000780159
0.00178284
-0.00120904
-0.000569994
0.00205137
-0.000910819
-0.00113958
0.00261189
-0.0019462
-0.000641957
-0.00127611
0.000734499
0.000571256
0.000923673
0.00173774
-0.00208561
0.00137061
0.000349696
-0.0017032
-0.000547326
-0.00115498
-0.00140085
-0.00044008
0.000157905
-0.00122957
0.000672374
0.00106042
-0.00108262
-0.000464638
-0.000780972
-0.00292563
0.000511609
0.00242564
4.85589e-05
-0.00184883
-0.00181182
-0.000581016
0.00239286
-0.00175862
0.000936873
0.000823069
-0.00185559
0.00235397
0.00254454
-0.000633586
0.00104086
-0.00161727
0.000577499
5.47149e-05
-0.000276346
0.000278233
0.000558132
9.81105e-05
-0.000641864
-0.00158948
-0.000456569
-0.000332706
-0.00101498
0.000272696
0.000111054
-0.000743559
6.60477e-05
-1.52867e-05
-1.7735e-05
-0.000515909
-0.0001165
0.000750774
0.000869162
0.000366813
0.000842523
-0.00216983
-7.91113e-05
-0.000367794
0.000457622
-0.00255527
0.000922952
-0.000664659
-0.00199537
0.00257342
-0.000553243
-8.74431e-05
0.000871403
-0.000788284
0.00133826
0.00260147
-0.000376991
-8.1126e-05
0.000376077
-0.000813947
-0.000943282
-0.000867763
-2.70768e-05
0.000894995
0.00148105
0.000805216
-0.00228584
0.000642093
4.73575e-05
-0.000672511
-0.000996601
-0.00103208
0.00202892
-0.000707887
0.000151632
0.000770677
-0.000599714
-0.0011947
0.00179601
-0.00229026
0.00044575
0.00185187
-4.10425e-05
0.00203091
0.00176612
-0.00218528
0.00170997
0.0021384
0.000694717
-0.00142061
0.00198735
-0.0012444
0.000575706
0.000379033
0.001857
0.00175071
-0.000787687
-0.000961196
0.000444172
-0.00237139
0.00193757
0.000567313
8.50366e-05
-0.000636779
-0.00272146
0.00139755
0.0013351
0.00063034
-0.000492175
0.00128979
-0.00079723
0.000879452
-0.00118928
0.0018299
-0.00163838
0.00209632
0.000629719
-0.00283088
0.000643888
0.00219658
0.00235095
0.000473952
0.000955584
0.00188462
-0.00179781
0.000374767
0.000841213
-0.00120474
6.92811e-05
0.000294996
-0.000357815
0.000590168
0.00161408
-0.00214504
0.00189123
-0.000486954
0.000899203
-0.000787528
0.0011733
-0.00184768
0.00120616
0.000641807
0.00181046
-0.000614249
-0.00076478
-0.00215351
-0.000419957
4.92672e-05
4.36756e-05
0.00165924
1.72242e-07
-3.16403e-05
-5.56719e-06
-0.000818279
-0.000440549
0.00125904
0.000449324
-0.0025373
-0.000239958
0.00211164
-0.00186582
0.0021695
0.00035085
-0.00251244
-0.00231814
0.000209969
0.00211741
0.00219094
-0.000457668
-0.00172831
0.000557647
-0.000725387
0.000167764
-0.000671271
-0.00108528
0.00175805
0.00197086
-0.00271363
0.000764403
0.000760627
0.000143161
-0.00090245
0.000297662
0.000204153
0.00110762
-0.000856534
0.00143265
0.0017948
-0.00162598
-0.000166879
-0.00220247
-0.000710243
0.000691627
-0.000133957
0.00141445
-4.70466e-06
-0.000769337
-0.000892373
-0.000919795
0.00179821
-0.000565664
-0.000142073
0.000710681
0.00225036
-0.00186283
-0.000739429
-0.00196814
-0.00229939
-0.000251972
0.00258123
-0.00138793
0.00179863
-0.000405886
-0.00157621
0.000153497
-0.000716221
0.00167492
-0.00115478
-0.000516198
0.00255715
-0.000284771
7.86238e-05
-0.00234916
0.00179404
-0.00195136
-0.00231752
0.00165252
0.00206724
0.000495856
-0.00255381
-0.000952686
0.00109897
-0.00272286
4.56e-05
0.000833915
0.00210844
0.000175806
-0.0022828
0.0029072
-0.00053985
-0.00235609
-0.00193745
-0.000525838
-0.000258995
0.00190362
0.00161127
-0.00180077
-4.36416e-05
0.00181896
-0.0017311
0.000848285
0.00206533
0.0021589
-0.002703
0.000554567
0.0024479
-0.000300946
-0.000590998
-0.00166671
0.00147396
0.00124539
0.000465143
0.00119064
-0.00160899
0.00223593
-0.000125945
0.00206381
0.00061928
-0.00267104
0.00038502
-0.00122477
0.00084017
0.00059822
0.000534447
-0.00150495
0.00149838
0.0020869
-0.00188333
0.000807043
0.00120188
-0.00133677
0.00197984
-0.000399554
-0.000674141
0.00107376
0.0005997
-0.000418944
0.00229283
-0.000586184
-0.0017052
0.00116752
-0.00183725
-0.000227058
0.000598447
0.00171868
-0.00197538
0.000901711
-0.00105081
0.00163412
-7.95917e-05
2.5708e-05
-7.90627e-05
0.000408913
-0.000316761
0.00105491
0.000563149
-0.00161669
0.000767806
0.00102899
-0.000853659
0.00123912
0.00169983
-0.00131608
-0.000302796
-0.000470822
0.00117766
-0.00106804
0.00157777
0.00048563
-0.00130369
-2.00778e-07
-2.31675e-07
-0.0023628
0.000736163
0.00165628
-0.00041837
0.00116056
-0.00074201
-0.000506482
-0.00147698
0.00199576
-0.00260895
0.000334626
2.00947e-05
-7.69883e-06
0.00212658
-0.000303009
-0.00181853
0.00179964
-0.000559931
-0.00122716
0.00036172
-0.00201608
0.00121537
-0.000561076
-0.00235231
0.000978761
0.0013766
0.000138665
0.000760886
-2.65782e-05
3.68204e-05
5.03745e-07
0.00154771
-0.000285481
0.00234692
-0.0020498
-0.000597139
-0.00175067
-0.000364436
-0.000520853
0.000885319
0.000868681
-0.000260964
-0.00057669
0.000842988
-0.000697377
0.00206424
-0.00242429
0.000378827
5.17109e-05
-1.77994e-05
0.000591057
-0.00213111
0.00154457
2.66985e-06
-3.41903e-05
0.000405586
0.00119795
-0.0022434
0.00147407
0.000770526
0.000328961
0.00139535
-0.00170998
-0.000698213
0.00129398
-0.000594702
0.00176958
-0.000659782
-0.00110681
3.17742e-05
0.0013948
0.00203085
-0.00133481
-0.000695531
-0.00192318
-0.000234047
-0.00161341
-0.00215045
0.000468692
0.00168505
-0.00247885
-9.05249e-05
0.0025858
0.00209472
-0.000379842
-0.00165504
0.000759044
0.00132637
0.00193585
-0.00263036
0.00135841
-0.00229878
0.000950711
-2.71271e-05
-9.36433e-06
-0.000601355
0.00184302
-0.00124043
-0.00221949
0.00126613
0.000953498
-0.00180705
-0.000527834
-0.000590595
-0.00188742
0.00247834
-0.00240212
0.00184123
0.000623402
-0.00245752
-0.000481893
0.0012039
-0.00072183
-4.28576e-05
0.000615519
-0.00144041
-0.000543456
-0.00017156
0.000711986
-0.000538038
-1.75457e-05
-7.78547e-06
2.59903e-05
0.00119866
0.000573584
0.00186043
-0.00117624
-0.000682914
-0.000162482
-0.000681001
0.000843553
-0.00163461
0.00200112
-0.00143245
-0.000257425
0.00171274
-0.001549
0.000112489
-4.02456e-05
0.000259449
0.00114662
0.000446977
-0.00143894
-0.00273703
0.00186154
0.000894093
0.00229356
-0.00191332
-0.000370069
0.00121072
-0.00181087
-0.00218789
0.000796554
-0.00021972
-0.00158941
0.00183275
-0.000597763
0.00163969
-0.000180677
-0.000783763
0.000964511
-0.00185856
0.000475273
0.00150741
0.000216256
-0.00171389
-0.00159836
-0.000253156
0.00162938
0.000378995
-0.00226539
0.000219544
0.00185268
0.00135907
0.00036408
-0.00168219
0.00210666
-0.00232761
0.000226239
0.000369516
-0.0019991
0.00191257
-0.00150348
0.000682743
0.000740234
-0.00142222
0.000867492
0.00176215
-0.00184882
0.000764712
7.29305e-05
-0.000470239
0.00282135
-0.00241264
-0.00039164
-0.000331376
-0.0011183
0.00144983
-4.75287e-05
6.85517e-06
0.00259492
-0.000483528
-0.000416369
-0.00138057
-0.000861042
0.00215167
1.23244e-05
-0.00212704
-0.000484908
-0.000615687
0.00115694
0.00127073
0.00097965
-0.00224577
0.000339385
0.00179211
-7.88441e-05
0.000382314
-0.000293931
0.000121761
0.000807218
-0.00091921
0.00018776
0.00190146
-0.00208588
0.000124434
0.00153944
-0.00271386
0.00168684
0.00030379
-9.94431e-05
-0.000155863
-0.00152752
-0.000719735
0.00112575
-0.0021778
0.00263085
-0.000418062
0.000173336
-0.00176409
0.000858619
-0.00222102
0.00209739
-0.00136214
-0.000735018
-7.38491e-05
0.00039648
-0.000313979
0.00139822
-0.000800426
-0.0012191
0.00215366
-0.000892577
2.20788e-05
-5.68743e-06
0.000681541
-0.00109975
-0.000414503
0.00231658
-0.00189427
-0.00223114
0.00165004
-0.000621283
-0.00208562
-0.00131831
0.000904611
0.00142393
0.000673716
0.00102335
-0.00219929
-0.000464252
-4.43959e-05
0.00027662
0.000366925
-0.00035842
0.0017585
0.000695998
0.0019033
-0.00133304
0.00199071
-0.00115608
7.5243e-05
-8.90877e-05
5.87944e-05
-0.000885867
0.000486366
0.00215785
0.000327265
-0.00246914
-0.00162739
0.00180872
-0.00194652
-0.000949018
-0.00205425
0.00257668
0.00206558
0.00181359
-0.000324212
-5.38043e-05
0.000384954
-0.000839551
-0.000375739
0.00121559
-0.00192729
0.00235353
-0.000381154
-0.000465057
0.00056188
-7.85147e-05
0.000467375
8.20187e-05
-0.000537628
-0.00184954
0.000686194
-0.00196855
0.00115957
-0.000508152
-0.000651263
-0.000626363
0.000144613
0.00109395
-0.00127931
0.00200003
-0.00263502
0.00216444
-0.00228686
-0.000229527
-0.000483318
-0.00143138
0.00192706
0.00189054
-0.00147387
0.000759052
-0.00128007
0.00185173
-0.000743535
0.000437223
-7.04974e-05
0.00223977
-0.00113943
0.000881934
-0.00106253
-4.74166e-05
6.41132e-05
-7.13867e-06
0.00135975
-0.0017122
0.000358768
6.66709e-06
-2.44254e-05
2.77834e-05
-0.000823787
0.000687001
-0.00140613
0.000708925
-1.94846e-05
2.34528e-06
-0.00056107
-0.00207077
-0.000251395
0.000283268
-0.00190291
6.34984e-06
-4.25032e-05
-0.00144846
0.00197662
-0.000524544
0.00182134
-0.00126475
-0.000552486
-0.00235916
0.00149769
0.000862447
-0.00207549
-0.000547453
-0.000937416
0.00166757
0.00014618
-0.000743657
0.000600706
-0.00110434
0.00117971
-7.50138e-05
0.000772825
0.00148142
0.000296247
-0.00254088
0.00134137
0.00120394
-0.00163888
0.00022767
-0.00218616
0.00256763
-0.000358774
-0.000987901
0.0027247
-0.00169533
4.49975e-06
-1.89051e-06
-0.000271283
-0.000661597
0.00164959
-0.00246644
-7.77517e-05
0.00021815
-0.000284062
0.000117137
0.00036941
-0.000319117
-2.47054e-05
2.80318e-05
2.4882e-06
0.00264509
-0.000566007
-0.00206624
-0.00110451
-0.00125326
0.000222681
-0.0013266
0.000800412
-0.00181812
0.00216249
0.00283343
-0.000745106
-0.00207429
-0.000627671
-0.00218933
0.00172849
-0.000284241
-0.000168921
-0.00196674
0.00250929
-1.7281e-05
0.000382564
-0.000349598
0.000383856
0.00126056
-0.00159826
-9.77031e-05
0.000122048
-0.00282748
0.000690128
0.0020975
0.000475061
-0.00256184
0.00014927
0.000698714
-0.000839177
-0.000520705
-0.00064417
0.000475123
0.00240402
-0.00142178
0.00118574
-0.00165513
-0.00115277
0.000285163
6.3865e-05
0.000367614
-0.000679941
0.00083814
-0.00259489
0.000526194
0.0025998
0.000129498
-0.000800455
9.51554e-05
0.000504272
-0.00058727
-0.000972979
0.00264059
0.000362825
-0.000298834
0.00162457
0.00117998
-0.0027986
-0.00210854
0.000236061
-0.000192085
0.00263025
-0.000865878
-0.00172183
-0.00120335
-0.00133239
-0.000488987
-0.00208854
0.0025794
-0.00132528
0.00173077
0.00293922
-0.00194319
-0.00098322
0.000391331
-0.000268186
0.000375022
0.00116379
-0.0007305
0.000591349
0.00196052
-0.0012046
-0.000753826
-0.000993099
0.00236092
-0.00212992
0.00141397
0.00262267
-0.000549109
-0.000519214
-0.00193347
0.00246485
-0.000523873
-0.000201487
0.000109225
-3.49262e-05
0.000698681
-0.000542225
0.00153237
0.000875394
-0.00229861
0.00142498
-0.00204849
-0.000646486
0.00270791
-0.000211748
-0.00062112
-6.60279e-05
-0.000272041
0.000344206
0.00147679
-0.00262232
0.000356304
-0.000280492
0.00129315
0.000669282
-0.000730483
0.000675129
0.000522145
0.000347456
0.000289959
-0.000107159
-0.000112754
0.000186141
0.000158928
-5.15999e-06
-1.01553e-06
8.63808e-06
0.000272119
-0.00241175
0.000846902
-0.00141535
0.000604529
0.000811192
-0.00199336
0.00165678
0.000933139
-0.00178231
0.000850472
-0.00294882
0.00177045
0.00120232
-3.9664e-05
0.000375681
-0.000322107
-0.000168059
7.42983e-05
0.00258009
-0.000752663
-0.00178192
0.00188759
-0.000496271
-0.00136476
0.00175854
-0.0023972
0.000650558
0.00115709
-0.00101168
-0.000330417
0.0015018
-0.00101091
-0.00191502
0.00214761
-0.00242242
0.00031538
0.00190933
0.00155882
0.000842234
0.00176758
-0.000833307
0.00206633
-0.000434544
0.000808037
0.000472365
-0.00128013
-0.00025102
0.000587576
4.70625e-05
-0.00188449
0.00184097
-0.00182422
-0.000272578
0.000336832
0.00244213
-0.00060625
-0.00182215
0.000926444
-0.000231609
-0.000602902
0.00268577
-0.0007688
0.000965201
-0.00147429
0.000509843
0.000438989
-0.00127821
-0.000106064
0.000732147
-0.000610101
-0.00197164
0.000219664
-0.00235332
0.000613755
0.00129604
0.000179532
-0.000703379
-3.88664e-05
0.00155653
0.000362707
0.000382837
-8.11284e-05
0.000130532
-4.22091e-05
-6.69899e-05
0.00168253
-0.00127353
0.00151991
-0.00136102
0.00060907
0.00043369
-0.00104265
0.000265791
5.20342e-05
-0.000311618
-0.000294444
0.000634772
-0.000724964
-0.000480821
-0.000408911
0.000927339
0.00175293
-0.00250202
0.000338397
1.40432e-05
0.00216177
-0.000871914
0.000427641
-0.00202284
0.0015292
0.000574333
-1.06238e-05
-3.34122e-05
0.000678829
0.00219097
-0.00135222
0.00254473
-0.00118263
-0.000440023
-0.00139296
-0.00234836
0.00200492
0.000354513
0.00163494
-0.000573952
-0.00103906
-0.000182372
0.00122695
0.000567688
0.000235879
3.0684e-05
-0.000229632
-0.000408125
0.000705453
0.000419027
-0.00177403
0.00136605
-9.22167e-05
3.15059e-05
-0.00205681
0.00210789
-0.00138027
0.00023114
0.00262982
-0.000416504
-0.00218764
0.00266695
-0.000598362
-0.00205029
0.00217172
-0.00226357
-0.00171265
0.0025901
0.000781549
-0.000614642
7.171e-05
4.98505e-05
-8.20165e-05
9.00954e-05
-0.000119519
5.16807e-05
0.0027311
-0.000560832
-0.00133794
0.00114616
-0.00020243
-0.00180028
0.0020445
0.00157797
-0.000520251
6.25772e-05
0.000337364
0.000373401
-0.000296655
0.00114973
0.00304664
-0.0019951
-0.00104579
0.000496106
0.00118237
-0.000860741
0.000169024
0.0010452
-0.000436027
-4.53069e-05
0.000433781
-0.000376708
0.000821364
8.28744e-05
-0.000896867
-0.000115113
0.00189986
-0.00178253
0.00294271
-0.000499366
-0.00243166
-0.0020465
0.00235482
0.00171692
0.00255303
-0.00208927
-0.000591871
0.00154617
-0.0009539
0.00121031
0.00184199
2.01191e-07
-2.00886e-05
0.000392986
-0.000426692
-3.56515e-05
0.00222346
0.00199079
-0.00269482
0.000715543
0.000384877
0.00118787
0.000957644
8.79231e-05
0.000400422
-0.000470403
0.000393229
0.00225987
0.000429766
0.00219513
0.00161504
-0.00102852
-0.000585433
-0.000725018
0.00195783
-0.0012094
0.00136034
0.000214799
-0.00155488
0.00161063
-0.00197794
0.000376165
-0.00131293
0.00150452
-0.00100711
0.000899115
0.00011899
-0.000171191
0.000984091
-0.00130218
0.000318562
0.000833389
-0.0012447
0.000411726
0.000331095
0.000692285
-0.000475139
0.000504525
-0.00051863
7.29547e-05
0.000127781
0.000550218
-0.000670722
0.00141249
-0.00188443
0.00209184
-0.000422317
-0.00165716
0.00152391
0.000236081
3.14357e-05
-0.000234201
-0.00142088
0.000752126
-0.000602535
0.000911521
-0.000604807
-0.000274747
0.0021727
-0.000377172
-0.00173815
-0.00168801
0.000638078
0.00152505
0.000437986
-0.00114982
0.000754914
-0.00153847
-0.000479055
0.00206014
-0.00240962
0.00117143
0.00123829
0.000138004
-0.000184186
0.00236995
0.000657686
0.000284617
-0.000147782
-0.000722111
0.000878503
0.000800345
-0.000543332
-0.000237025
-0.000230093
0.00176931
-0.00153511
-0.000464876
-0.000779303
0.000384958
0.00184243
0.0017057
-0.000907435
-0.00121868
-0.000581394
0.00180207
-0.00111619
0.000237072
0.000879237
0.00181038
-0.000852251
-0.000957254
-0.000109248
-0.00134765
0.0015188
0.000843161
0.00210608
-0.000279505
-0.00142686
0.00174181
0.000545533
0.000747715
-0.00125007
0.00121876
0.000150747
-0.0012983
-0.00155913
-0.000374054
0.00193754
-0.000181837
0.00214945
-0.000413609
0.0016852
0.000698041
0.00116615
-0.00186151
0.00108829
0.000547162
0.00157454
-0.000430892
-0.00286809
0.000863818
0.00200787
-0.00220973
-0.000436114
0.00265556
0.000359345
-0.000418628
0.000569028
-0.00245597
0.00202652
-0.00230426
0.000284059
0.000104942
-0.000152881
7.64216e-05
0.000110357
5.69834e-06
0.000516749
0.000642956
-0.000929625
-0.00128949
0.000834321
0.00115689
0.000945926
-0.00121162
0.000307256
-0.000818234
0.00129325
-0.000474651
0.000529281
0.000507445
-0.00197241
0.00200838
0.000190301
-0.0021933
-0.000903195
-0.00105889
0.00196653
0.00239274
-0.00161267
0.000207824
-0.000158009
-0.000662427
0.00109789
0.00128332
-0.00237021
0.00202538
0.00242561
-0.000578493
-0.00116234
0.000695906
0.00152754
-0.00222922
4.79769e-06
-2.09727e-05
0.00184451
-0.000456145
0.000628468
-0.00111483
0.000486459
0.000302345
0.000709171
0.00164753
0.00216265
-0.00146176
-0.00165879
0.00143246
-5.99703e-06
0.00211841
-0.00210881
0.00133321
-0.00223122
2.69621e-05
2.30388e-05
0.000868981
0.000293965
-0.00112151
0.000662084
-0.00237278
0.00243833
-0.00200094
-0.000426952
-5.42014e-05
0.000371605
-0.000309952
-0.000895239
0.00160396
-0.000167426
0.000214759
-4.38573e-05
-0.000378175
0.00033148
0.000266438
0.00227696
-0.00200303
0.000957911
0.000243299
2.96708e-05
-0.000241411
-0.00171047
0.00237454
-0.00125792
-0.0006746
0.00235104
-0.0019425
-0.000393354
7.65351e-05
7.25593e-05
-0.00111731
-0.000184571
0.000309411
-0.00232326
0.00266602
-0.000745469
-0.00190415
0.00196556
-0.000401774
-0.00148548
0.00249757
-0.00198508
-0.000879312
0.00184327
-0.00230582
-0.000277341
0.00261214
0.00111243
-0.000365678
-0.000746626
0.00112281
-0.000216937
0.0010925
0.000136373
-0.00242015
-0.00117483
0.00200962
-0.000156888
0.002169
1.1903e-05
-1.1903e-05
0.0016665
0.000361604
-0.00202403
0.00182343
-0.00145552