/*--------------------------------*- C++ -*----------------------------------*\
| =========                 |                                                 |
| \\      /  F ield         | OpenFOAM: The Open Source CFD Toolbox           |
|  \\    /   O peration     | Version:  v2012                                 |
|   \\  /    A nd           | Website:  www.openfoam.com                      |
|    \\/     M anipulation  |                                                 |
\*---------------------------------------------------------------------------*/
FoamFile
{
    version     2.0;
    format      ascii;
    class       volVectorField;
    location    "500";
    object      U;
}
// * * * * * * * * * * * * * * * * * * * * * * * * * * * * * * * * * * * * * //

dimensions      [0 1 -1 0 0 0 0];


internalField   nonuniform List<vector> 
18355
(
(1.00168 0.229537 -3.18917e-21)
(1.00522 0.00229275 -2.73697e-21)
(1.16546 -0.0163544 0)
(1.01421 0.000935911 -2.51613e-21)
(1.05554 0.0462993 0)
(0.872597 -0.0163826 -7.25305e-22)
(1.0074 0.0158661 6.42499e-22)
(1.0603 0.0429934 0)
(1.00566 0.000372166 0)
(1.02475 0.0695684 -3.51618e-22)
(1.00526 -0.000584764 -3.46947e-21)
(1.0796 0.0118552 7.01865e-21)
(1.07878 0.0107685 -4.67191e-21)
(1.01095 0.19906 8.42243e-22)
(1.00809 0.000752695 5.66324e-22)
(1.00421 -0.00110331 0)
(1.01413 0.000898655 2.35282e-21)
(1.01872 -0.00516115 3.03207e-21)
(1.1629 0.0980555 -5.705e-21)
(1.03355 0.0131495 1.19001e-23)
(0.83423 0.137748 0)
(1.02394 0.0100905 1.9367e-22)
(1.00591 0.00180856 1.16902e-21)
(0.876086 -0.0252831 9.4237e-22)
(1.006 0.00177638 -2.94873e-21)
(1.01832 -0.000908507 0)
(1.00924 0.0171241 5.34683e-22)
(1.01487 0.00163691 0)
(1.00442 0.000182302 1.64505e-22)
(1.00469 -0.00417905 6.8555e-21)
(0.747194 -0.141163 0)
(0.960096 0.0328927 4.23521e-21)
(1.00407 -0.00174783 0)
(1.00508 -0.00203594 -2.33491e-21)
(1.0096 -0.00012682 -1.19969e-22)
(1.01825 0.00532922 -1.13969e-21)
(1.0517 0.0280568 3.45113e-21)
(1.01794 0.00541874 -1.18502e-21)
(1.00333 -0.00551905 6.35056e-23)
(1.0185 0.0041705 3.98257e-23)
(1.01506 8.52599e-05 0)
(1.00364 -0.00168788 0)
(1.0049 -0.00190646 0)
(1.00513 0.00209547 0)
(1.00523 0.00222799 0)
(1.0575 0.0024255 4.8542e-21)
(1.01537 0.00234729 -1.24104e-21)
(1.0152 0.00229511 1.45734e-23)
(0.760846 -0.164165 -2.05543e-21)
(1.02015 0.0118244 0)
(1.00376 -0.000380208 -3.47324e-21)
(0.804303 0.252942 1.34989e-21)
(1.02109 0.0120808 0)
(1.08551 0.151135 0)
(1.01835 0.00187082 -3.44734e-22)
(1.03377 0.0149779 6.55425e-22)
(1.00771 -0.000234756 -1.96249e-21)
(0.832223 -0.32022 7.62751e-21)
(1.01775 -0.000869932 -2.02299e-22)
(0.729842 0.0413027 2.85997e-22)
(1.00503 -0.0020664 3.02793e-21)
(1.09102 0.0196213 -3.36144e-21)
(1.07776 0.151598 0)
(1.00528 0.00516413 -1.7365e-21)
(0.954975 0.062124 4.20671e-21)
(1.00487 -0.000574653 -4.72649e-22)
(1.02498 0.0222397 -1.09618e-22)
(1.05133 0.0289874 1.60135e-21)
(1.00595 -0.00293535 2.45128e-21)
(0.946413 -0.156495 0)
(1.01362 0.01054 0)
(1.01847 0.00196146 -4.52138e-22)
(0.973533 0.0269515 1.68442e-21)
(1.02309 -0.00848471 -3.15893e-21)
(1.01744 0.0817992 5.29786e-22)
(1.00571 -0.00279527 -2.36538e-21)
(0.822228 -0.31427 7.34837e-21)
(1.00564 -0.00283545 2.28907e-21)
(1.01303 0.0101553 6.56975e-22)
(1.01288 0.0784199 0)
(1.02395 0.0218956 2.72524e-22)
(0.996358 0.0718492 -2.67966e-23)
(1.00588 -0.00298247 -2.49948e-21)
(1.01969 0.0254368 -8.7248e-23)
(1.0169 0.080559 2.10845e-21)
(1.00071 3.38914e-05 -1.18479e-21)
(1.01059 0.000378847 2.54124e-22)
(1.03421 0.0642335 0)
(1.01502 0.00346371 6.98806e-22)
(1.03121 0.0652659 2.58e-22)
(0.870998 0.2828 0)
(0.853485 0.102103 2.18042e-21)
(0.993556 0.0671017 6.47131e-24)
(1.01946 0.0126129 1.9288e-21)
(0.967248 -0.157486 -1.64788e-20)
(1.00146 0.00354035 -1.61933e-21)
(1.01392 0.00253915 0)
(1.00205 0.00301689 7.40882e-24)
(1.09757 0.0716049 9.75594e-22)
(1.02249 0.0090691 -2.24617e-22)
(1.01737 0.0772014 0)
(1.01302 0.00958403 -1.2778e-21)
(1.0186 0.0123117 -2.55215e-21)
(1.01679 -0.00102442 -5.16505e-23)
(1.02235 0.0225803 -4.03155e-23)
(1.00418 -0.00102522 0)
(0.951517 0.0573872 0)
(0.946599 -0.167927 5.15913e-21)
(1.04404 0.0473877 -6.52691e-22)
(1.00445 -0.00150757 -1.06982e-21)
(1.0092 -0.000424069 -5.65211e-22)
(1.00292 -0.000186408 0)
(0.985814 0.00879016 0)
(1.01942 0.0240086 0)
(0.996332 -0.0248366 -3.19363e-21)
(1.00115 0.0199549 2.3941e-21)
(1.01248 0.00924149 6.24277e-22)
(1.0069 0.0832188 7.7248e-22)
(1.02065 0.0158752 5.80091e-22)
(1.02598 0.0215494 -5.15586e-23)
(0.965647 -0.140714 1.80195e-23)
(1.15995 -0.0241855 0)
(0.866105 0.273588 0)
(1.03437 0.0745005 3.66239e-22)
(1.00278 0.0802849 0)
(1.05054 -0.00476254 2.46492e-21)
(1.00803 0.0168852 -9.0778e-22)
(1.01412 0.000785129 0)
(1.0113 0.240015 5.55405e-21)
(1.02324 0.00735094 0)
(1.0141 0.00264697 0)
(0.789481 0.257502 -9.94473e-22)
(1.01827 0.00304388 0)
(1.10334 0.0423852 -7.04204e-21)
(0.993541 0.128017 0)
(1.01518 0.00395701 -1.57141e-21)
(1.16791 0.0910057 2.89276e-21)
(0.989218 -0.149035 1.97374e-21)
(1.01547 0.000627281 0)
(0.840863 0.110094 -6.29556e-21)
(1.04145 0.0264563 -2.69975e-21)
(1.01038 0.0527933 3.69906e-22)
(1.01521 0.00247703 -4.23124e-22)
(0.829093 0.290482 -1.21646e-20)
(0.987494 0.127815 0)
(1.01608 0.000167384 7.65253e-22)
(0.667717 0.02958 0)
(1.0215 -0.0027051 0)
(0.986313 0.0060201 -5.79876e-21)
(1.02812 -0.0378589 1.18848e-22)
(1.01473 0.00156281 -3.6941e-23)
(1.02617 0.0208838 9.27038e-23)
(1.00919 0.00375111 0)
(1.00633 0.0337037 0)
(1.00486 -0.00192123 -6.42546e-22)
(1.00557 0.000784878 -1.34358e-21)
(1.01402 0.000738522 0)
(1.00096 2.54937e-05 0)
(1.01534 0.00249858 0)
(1.0054 0.000678456 1.12707e-21)
(1.01486 -0.0048713 1.77853e-21)
(1.01834 0.00313457 -2.45787e-23)
(1.00438 -0.0013928 -1.35713e-21)
(1.00968 0.0422317 0)
(1.01811 -0.00971314 0)
(1.03242 0.0460377 -6.78364e-22)
(0.650699 0.0363377 0)
(0.969424 0.247265 -8.45192e-23)
(0.632157 0.0353197 0)
(1.04061 0.0270085 2.10101e-21)
(1.0044 -0.000241576 -8.66225e-22)
(1.10048 0.0430034 -4.03011e-22)
(1.0008 -4.78192e-05 1.05258e-21)
(0.783863 -0.156361 0)
(1.00801 -0.000198031 -7.52084e-24)
(1.01543 0.000141923 0)
(1.00356 -0.000272267 -1.12211e-21)
(1.0182 -0.00164788 -1.56671e-22)
(1.04071 0.0104626 -2.64112e-21)
(1.01147 0.0367094 -1.64933e-21)
(1.00089 6.34898e-05 7.73405e-23)
(1.02536 0.0431182 4.68862e-23)
(1.02362 0.00879132 0)
(1.01534 0.00191553 -2.23354e-21)
(1.02683 0.0267146 0)
(1.01778 0.0128531 1.22594e-21)
(1.00274 0.000239186 1.21741e-21)
(1.02563 0.0635207 0)
(1.01764 0.00032894 4.92384e-22)
(1.00985 0.0184073 -4.30103e-22)
(1.05733 -0.00313278 -5.48541e-22)
(1.09841 0.0675559 1.1109e-21)
(1.00553 0.00263483 1.19744e-21)
(1.00739 -0.00543006 -1.58321e-21)
(1.01674 -3.71754e-05 -8.76188e-22)
(0.966747 -0.0289906 -3.45792e-21)
(1.00443 -0.00051679 -1.15135e-21)
(0.985748 0.272903 2.37921e-21)
(1.00532 0.00242318 2.53174e-21)
(0.991882 0.195318 0)
(1.01699 0.0124637 0)
(1.02357 -0.00133281 -2.01805e-21)
(1.00474 -0.00812261 -2.46402e-21)
(1.00168 0.000122185 -6.13941e-22)
(0.982926 0.246431 1.93415e-21)
(1.0237 0.00609827 7.93127e-24)
(0.63182 -0.0181248 0)
(1.01527 0.00191971 -2.53036e-21)
(1.00432 -0.00216699 -3.40958e-21)
(1.00906 0.00248895 -7.57413e-22)
(1.02009 0.00561753 1.99911e-21)
(0.944901 -0.0470829 4.3268e-21)
(1.01046 0.00668878 0)
(1.00979 0.00584691 0)
(1.02203 -0.00277245 0)
(0.798575 -0.164351 -3.03041e-21)
(1.01009 0.035469 3.06088e-21)
(1.04961 0.0211435 0)
(1.02338 0.00647319 0)
(1.01563 0.00248789 -8.19709e-22)
(1.04327 0.0456382 -9.76669e-22)
(1.00862 -0.00577985 -1.22671e-21)
(1.03679 0.0594009 6.10697e-23)
(0.998861 -0.0139054 -1.70681e-21)
(1.07558 -0.042951 0)
(0.996552 0.0126257 -1.25239e-21)
(1.00823 -0.0056836 0)
(1.01492 -0.127517 0)
(1.00008 0.194975 0)
(0.986106 0.0328687 2.3459e-21)
(1.00367 0.0101766 0)
(1.02332 0.0229515 -3.48188e-22)
(1.04676 -0.013078 1.61881e-21)
(1.0085 -0.00590555 1.25827e-21)
(1.00632 0.041799 -3.30489e-22)
(1.06809 -0.0382422 3.79568e-22)
(1.03416 0.00686171 6.74417e-22)
(1.05483 0.000497998 -6.25308e-21)
(1.05406 0.0135105 -6.55656e-23)
(1.01032 0.00519142 0)
(1.00542 0.00262625 -2.89344e-21)
(1.04005 0.0100971 -2.81074e-21)
(1.0096 0.00466114 1.49133e-21)
(0.991598 0.0347148 0)
(1.02335 0.00615329 0)
(1.01831 0.00166961 0)
(1.01501 0.0021363 1.64373e-21)
(0.953644 -0.0522826 -4.42525e-21)
(0.914954 -0.0421391 0)
(1.01288 0.0119778 -1.98452e-21)
(1.00523 0.00597 1.68254e-21)
(0.921563 -0.049709 0)
(1.11339 -0.00718481 0)
(0.99694 -0.0127623 1.63423e-21)
(1.01796 -0.0016355 2.12802e-22)
(1.0045 -0.0218843 -1.62047e-21)
(1.05343 0.0140745 -3.76513e-21)
(1.01569 0.000268444 1.61093e-22)
(0.996056 0.0109761 1.17455e-21)
(1.01317 0.00282276 1.58867e-21)
(1.04079 -0.0190698 6.92273e-22)
(0.985992 -0.0270657 -1.65699e-21)
(1.09253 0.0640161 -2.37805e-21)
(1.06462 0.0209754 0)
(1.00353 -0.00994173 0)
(1.00159 -0.0334931 1.89357e-21)
(1.01687 0.0491637 -2.60994e-22)
(1.10226 0.079033 -2.21926e-21)
(1.01309 0.00292843 2.41286e-21)
(1.01844 0.00177852 -3.30924e-22)
(1.01178 0.0200631 -2.96679e-22)
(1.00458 -0.00178521 0)
(1.02444 -0.000940497 2.01286e-21)
(1.05059 0.0212258 1.60248e-21)
(1.01431 0.00146554 6.19815e-22)
(1.02076 0.00598073 0)
(1.04637 -0.00812642 -7.37957e-21)
(1.01486 0.00394502 0)
(1.02976 0.118275 -2.82445e-23)
(0.852345 -0.180127 5.59696e-21)
(1.04012 -0.0102125 -2.75227e-21)
(1.02018 0.00587377 -9.94674e-22)
(0.997751 0.018214 0)
(1.00461 -0.00178666 -1.37139e-21)
(1.03968 0.0639746 -6.525e-23)
(1.02352 0.00516189 0)
(1.0063 0.0367039 -1.94216e-21)
(1.01574 0.000108991 0)
(1.00751 0.035554 -1.77591e-21)
(0.833322 -0.0335693 3.62163e-21)
(1.00415 -0.00183106 0)
(1.07666 0.0369694 -6.52467e-21)
(1.02276 0.0160217 -6.59242e-22)
(0.996469 0.00464423 -7.06572e-22)
(1.02082 0.0494346 1.82796e-22)
(1.00766 0.000606468 -1.20011e-21)
(1.00749 -0.00535978 0)
(1.0292 0.112574 9.89481e-22)
(1.02054 0.00586638 0)
(1.01445 0.0533358 -5.14618e-22)
(1.05347 0.026831 -1.31943e-21)
(0.871342 0.251366 0)
(1.04747 0.0637455 0)
(1.09537 0.0644183 0)
(1.02221 -0.00329612 2.69574e-21)
(1.05006 -0.00928983 1.5367e-21)
(1.02027 0.0101603 -6.9782e-22)
(1.05054 0.0117249 -1.45478e-21)
(1.06367 0.020696 -5.57919e-21)
(1.07639 0.0383342 7.59221e-23)
(1.03417 -0.00260954 7.48682e-22)
(0.99938 -0.0556927 -8.74184e-22)
(1.01659 0.00270098 -1.22753e-21)
(1.01411 0.00924825 2.10161e-21)
(1.06661 0.142092 -1.95656e-23)
(0.995662 0.0184885 -3.24474e-21)
(1.01649 0.00267011 -9.57208e-22)
(1.01514 0.00231222 -1.61556e-21)
(1.01493 0.00196124 1.49337e-21)
(1.0799 0.0249353 -8.79048e-21)
(1.0056 -0.0542103 2.94822e-21)
(0.749298 -0.136662 3.39245e-21)
(1.03393 0.0049625 3.65079e-21)
(1.04342 -0.0118144 6.02774e-21)
(1.04217 0.0246816 -2.08843e-21)
(0.982674 0.0510851 0)
(1.02076 -0.00297462 2.93551e-22)
(1.02364 0.00579164 3.18499e-24)
(1.04119 0.0250871 3.88234e-21)
(1.02036 0.00308161 -4.07587e-23)
(0.988078 0.0357643 -2.40283e-21)
(1.01081 -7.12499e-05 -2.60969e-23)
(0.957012 0.0626202 6.52858e-23)
(1.0042 -0.00104317 0)
(0.996009 0.0816663 -4.41782e-22)
(1.01665 0.000296561 -2.94471e-22)
(1.01861 0.00436223 2.05052e-21)
(1.02435 -0.00407311 7.23029e-22)
(1.08288 0.00356103 1.58436e-21)
(0.948448 0.261321 1.10075e-21)
(0.993534 0.0370202 0)
(1.03 0.00735493 -1.47307e-21)
(1.0196 0.00786587 1.81009e-21)
(1.01528 0.00345973 0)
(1.02012 0.00296221 0)
(1.03985 -0.00335253 1.1072e-21)
(1.03366 0.0763492 -1.91822e-22)
(1.01562 0.0033134 0)
(1.01446 0.000440613 0)
(1.08663 -0.0144979 0)
(1.02052 0.00815978 5.29867e-22)
(1.01587 0.00357946 3.89618e-22)
(1.09768 -0.00816715 6.70548e-22)
(1.03722 -0.00314188 0)
(1.01497 0.00205028 0)
(1.00491 0.0108971 0)
(1.00338 0.0375457 1.94842e-21)
(1.01475 0.000422924 0)
(1.00157 0.0357763 -2.30705e-21)
(1.01032 -0.008682 0)
(1.01465 0.000484107 6.24987e-22)
(1.02227 0.00863015 -1.13886e-22)
(0.790302 0.0323593 6.09063e-22)
(1.019 -0.0290796 0)
(1.01051 -0.00847001 6.3102e-22)
(1.01488 0.00237003 5.69831e-22)
(1.05436 -0.0188148 -1.50265e-21)
(1.01501 0.00195797 -8.81486e-22)
(1.00128 -9.23078e-05 -1.58098e-22)
(0.975423 0.0498226 -6.4911e-22)
(1.01441 -0.0326681 1.51847e-21)
(1.0531 -0.00451016 -6.89508e-22)
(1.01975 0.0028951 -8.17693e-22)
(1.03459 0.00731349 1.60445e-21)
(1.07972 0.00908346 -2.92101e-21)
(1.00609 -0.00123457 0)
(1.00144 -0.0215186 -1.22481e-21)
(1.05135 0.0115709 0)
(1.00427 -0.00165928 0)
(1.04932 -0.0171904 1.6627e-21)
(1.03711 0.0472401 -4.19432e-22)
(1.02223 0.00786184 2.41894e-22)
(1.01459 0.000533615 0)
(1.01741 -0.00479973 -3.05433e-21)
(1.00982 0.00052963 1.60907e-22)
(1.01832 -0.00703119 -1.97445e-21)
(1.01679 -1.77735e-05 1.09806e-21)
(0.930882 -0.0172762 -6.08544e-21)
(1.00988 0.00409387 0)
(1.02753 0.0199211 0)
(1.00413 -0.000412295 -1.02094e-21)
(1.01503 0.00204081 1.78478e-21)
(1.02434 -0.000152247 -3.97182e-21)
(1.00956 0.0209591 -5.55769e-22)
(1.08948 0.0286343 -3.12745e-21)
(0.436374 -0.0831076 1.52424e-20)
(1.02242 -0.0331635 -6.45198e-22)
(0.999079 0.013959 -5.86774e-22)
(1.11667 -0.00377632 -2.75523e-22)
(1.02139 0.0389579 3.40816e-22)
(1.01658 0.000261616 3.23835e-22)
(1.01099 -0.00020595 -1.43194e-23)
(1.0743 0.0358457 -2.22331e-21)
(1.01779 0.000377932 -2.57805e-22)
(1.05684 -0.00483958 -2.37168e-21)
(1.00766 0.0150212 -1.53697e-21)
(1.02434 -0.0142693 5.2178e-21)
(0.985316 0.0541623 2.63333e-22)
(1.07093 -0.062493 5.21376e-23)
(0.942042 0.247899 -1.20555e-21)
(1.08959 0.0797323 0)
(1.01678 -0.000909923 0)
(0.490461 -0.297264 0)
(1.02294 0.0091671 3.09498e-22)
(1.01423 0.0014906 -1.38927e-21)
(0.820758 0.131857 0)
(1.01676 0.000311821 3.80148e-22)
(1.04675 -0.0134885 1.64148e-21)
(1.03416 -0.00437116 2.38466e-22)
(0.943931 0.0601356 0)
(1.01676 0.000342338 0)
(1.09825 0.0404011 0)
(1.01431 -0.0826434 9.34694e-23)
(1.08892 0.0589433 0)
(1.01823 0.00315148 -2.49019e-21)
(1.00536 0.00266272 -1.45565e-21)
(1.09176 0.0595437 2.86362e-21)
(1.0214 0.0162767 0)
(1.00683 0.0100767 -1.36084e-21)
(1.02669 0.0598481 1.93837e-21)
(0.98828 -0.0220578 -1.61887e-21)
(1.01411 0.00142444 1.01034e-21)
(1.07551 0.0360124 -7.23301e-23)
(1.0899 0.0298195 0)
(1.00534 0.00261472 1.28137e-21)
(1.01764 0.00489328 -1.88367e-21)
(0.99698 0.0355882 -1.43182e-22)
(0.870632 -0.290671 4.76634e-21)
(1.05752 0.0551707 0)
(1.02019 0.00793807 -1.65836e-21)
(1.02113 0.0100494 2.18327e-21)
(1.07018 0.032487 -5.88176e-21)
(1.01002 0.000677125 1.50164e-21)
(1.00514 -0.00310363 0)
(1.0057 0.0107034 -5.26584e-22)
(1.07061 -0.0578259 3.50211e-22)
(0.467158 -0.0712034 -1.09146e-20)
(1.00433 -0.00172874 -6.59147e-22)
(0.999896 9.21191e-06 7.86657e-23)
(1.01613 0.00033272 -4.41896e-23)
(1.08235 0.00124608 5.91532e-21)
(1.03359 0.0462548 5.04078e-22)
(1.00812 -0.0061697 1.30631e-21)
(1.04816 -0.0100536 -1.64184e-21)
(1.03929 0.0606358 2.86111e-22)
(1.02366 0.00299728 3.85428e-22)
(0.936762 -0.0250784 4.99329e-21)
(1.09259 0.0195693 -3.04241e-21)
(1.02393 0.00922785 -9.95597e-23)
(1.0101 0.000601738 0)
(1.05609 0.0534566 0)
(1.07791 0.0017564 1.98375e-21)
(0.902989 0.364032 -6.71103e-21)
(1.00447 -0.00198677 0)
(0.997923 0.311584 -2.35006e-21)
(1.01535 0.000556439 0)
(1.00441 -0.00195003 1.28392e-21)
(1.04628 0.0691896 -8.04318e-22)
(1.0225 0.0176418 0)
(0.92356 -0.0140559 0)
(0.97561 0.030991 -1.76233e-21)
(1.02744 0.0207314 -1.40173e-22)
(1.02413 -0.0101155 -3.7218e-21)
(1.02444 0.010165 3.01263e-23)
(1.10111 -0.00606742 0)
(1.02 0.0165119 -1.19284e-21)
(1.06285 0.0191126 -1.49185e-21)
(1.02099 0.00887737 8.49879e-22)
(1.00462 -0.00218881 1.72628e-21)
(1.02873 0.00622049 -1.41573e-21)
(1.00456 -0.00217364 1.40693e-21)
(1.09505 0.0215968 0)
(0.470217 -0.0950037 -4.66232e-21)
(0.940271 0.0547159 1.39122e-22)
(1.01902 -0.00669939 -1.67731e-21)
(1.01906 0.00369702 8.25399e-22)
(1.02062 0.00864531 0)
(1.00978 0.00248869 3.04817e-21)
(1.02121 -0.0034919 -3.57701e-21)
(1.00382 0.00486737 1.63535e-21)
(1.01383 -0.0101077 -1.2568e-21)
(1.01912 0.000353483 3.7611e-22)
(1.04239 0.0649156 -3.92954e-24)
(1.00543 0.00269554 6.11229e-22)
(1.00302 0.00448124 -3.32019e-21)
(0.999295 0.434712 1.72787e-21)
(0.99498 0.283099 0)
(1.07402 0.142973 0)
(1.02334 0.00705039 2.14159e-22)
(1.00042 1.12544e-05 -9.24184e-23)
(0.998808 0.0375155 1.18941e-22)
(1.02371 0.00959058 -1.11666e-22)
(1.05936 -0.0276785 0)
(1.16192 -0.0191271 1.34925e-21)
(1.01422 0.00785215 -9.71581e-22)
(1.01581 0.0236272 -2.62502e-22)
(1.03226 -0.0050522 0)
(1.02925 0.0131806 3.72189e-22)
(1.03497 0.0217282 1.24042e-21)
(0.494076 0.07999 -2.44546e-21)
(1.02254 0.0511351 -4.47441e-22)
(1.01817 0.00463485 0)
(1.02045 -0.154672 -1.02719e-20)
(1.01171 0.000472754 -1.49493e-21)
(0.962458 0.261721 1.24378e-21)
(0.4951 -0.298954 2.37492e-20)
(1.05544 0.0144529 -4.76789e-21)
(1.01791 0.00480254 3.18312e-21)
(0.456877 0.0828723 -2.53277e-22)
(1.01444 0.00153365 1.26842e-21)
(1.09575 0.0410606 0)
(0.956877 0.0295145 6.22514e-21)
(0.990783 0.0656494 -1.62169e-21)
(1.01917 0.016052 6.81738e-22)
(1.02844 0.00592815 5.78574e-22)
(1.02318 0.00313428 0)
(0.918934 -0.0347092 0)
(0.888982 0.368851 -1.5528e-20)
(0.984898 0.0536614 0)
(0.988799 -0.0886501 7.77827e-22)
(1.02347 -0.0021492 6.42181e-22)
(1.02283 0.00303936 4.97594e-23)
(1.02098 0.0259245 7.14932e-22)
(1.01841 0.00159967 -6.74544e-22)
(1.01753 0.00955995 0)
(0.84451 0.127685 5.13749e-21)
(0.817113 -0.153282 -3.22684e-21)
(0.433152 -0.10658 5.07621e-21)
(0.856733 -0.174529 -2.96972e-21)
(1.00703 0.014641 -1.21352e-21)
(0.965509 0.0319983 -7.30877e-21)
(0.982604 0.00373101 -1.64276e-22)
(1.01543 0.00233271 -4.39697e-22)
(1.01672 0.00232559 -1.54534e-21)
(1.00459 0.0158361 -2.51055e-21)
(1.02874 0.00797622 0)
(1.02389 0.00535578 2.34354e-23)
(1.01827 0.00148294 7.02724e-22)
(0.992612 0.0852497 4.70363e-22)
(1.01379 0.00270337 1.5436e-21)
(0.870165 -0.188568 2.91739e-21)
(1.01463 0.0126601 0)
(1.09882 0.0293322 -1.22376e-21)
(1.0786 0.00746973 4.21078e-22)
(1.01677 0.0023235 0)
(1.0182 0.0234519 9.16133e-22)
(1.00753 0.253878 0)
(1.01909 0.000464173 2.29102e-22)
(0.365546 -0.153308 3.63529e-21)
(1.01458 0.000541406 6.08733e-24)
(0.867614 0.082393 -3.02041e-21)
(1.02059 0.050575 0)
(1.01571 0.000123357 -7.15214e-22)
(0.983262 0.000680054 -3.25516e-21)
(1.10246 0.0743341 5.19008e-21)
(1.08894 0.0847806 -1.87633e-21)
(1.00101 5.88784e-05 6.15802e-22)
(1.00668 -0.00388459 -1.2398e-21)
(1.0678 0.0323774 0)
(1.05634 0.0146532 -4.99861e-21)
(1.10079 0.0306334 1.3236e-21)
(1.01766 5.50981e-05 0)
(1.09037 0.0184077 8.23215e-21)
(1.01373 0.00280127 7.99752e-22)
(1.18381 -0.00595026 -2.10987e-21)
(1.00934 -8.75158e-05 7.0944e-25)
(1.01746 0.00297572 -1.24043e-21)
(1.12217 -0.0259662 2.20927e-22)
(0.99885 0.0254036 -5.31824e-22)
(1.06483 -0.0291007 1.26071e-21)
(1.00875 -0.000242649 0)
(1.01326 0.0236136 1.72905e-21)
(0.998609 0.00103674 -1.38526e-21)
(0.957834 0.0574273 0)
(0.701652 -0.152559 -1.7775e-21)
(1.04288 0.021842 -3.18827e-21)
(0.998665 -0.0168705 -1.70122e-21)
(1.00602 -0.000295446 0)
(0.999114 0.020423 0)
(1.02133 0.00787466 -1.80754e-22)
(1.04246 0.0210769 2.83242e-21)
(0.143544 0.0335367 4.73898e-22)
(1.00523 0.00199278 -2.73918e-21)
(1.02684 -0.0279544 6.44048e-22)
(1.01955 0.00514743 2.37352e-21)
(1.00514 -0.000321454 0)
(1.03616 0.0244545 1.49977e-21)
(1.06854 -0.0134823 6.49229e-22)
(1.0064 -0.00230873 -1.54513e-21)
(0.992741 0.114269 -8.94465e-23)
(0.999916 0.00653995 0)
(1.07182 0.0250389 3.9462e-21)
(1.0246 -0.08288 6.49646e-23)
(1.02127 -0.00300557 -1.70305e-22)
(1.01507 0.0021228 0)
(1.0236 0.289792 -3.06011e-22)
(1.02879 0.0629516 0)
(1.03249 0.428771 1.31401e-20)
(0.976355 0.0390879 1.75936e-21)
(1.01883 0.00436998 0)
(1.01822 0.00130104 -1.66587e-22)
(1.01376 0.0112291 0)
(1.02126 -0.00853938 3.52737e-21)
(1.01874 0.00768783 -1.84706e-21)
(1.03274 -0.00433521 0)
(0.976759 0.15167 -1.19212e-21)
(0.748002 0.280897 0)
(1.01735 0.00293923 1.25245e-21)
(0.888179 -0.299489 9.37183e-21)
(0.881434 -0.286775 0)
(1.00786 0.00175322 -4.34419e-21)
(1.12827 -0.0355874 -3.34348e-21)
(1.00506 -0.00310594 0)
(1.00576 0.215637 0)
(0.94706 0.0631887 1.42477e-21)
(1.02411 -0.00310465 -3.35563e-22)
(1.02568 -0.0899769 0)
(1.07261 0.0338744 -2.34175e-21)
(0.80959 -0.0194694 0)
(0.953766 0.0541804 -1.25903e-22)
(1.00521 0.00917528 -3.27804e-22)
(1.01309 0.0113689 1.18512e-21)
(1.0011 -6.17621e-05 0)
(1.02906 0.0325332 0)
(1.07937 0.0255413 8.69994e-21)
(1.01841 0.0031917 1.04106e-23)
(1.03512 0.00521453 -1.67807e-21)
(0.985211 0.151498 1.83354e-21)
(1.02315 0.00875746 -3.47196e-22)
(1.07383 0.0341072 0)
(1.01433 0.0126241 0)
(1.07123 0.0317563 5.92744e-21)
(0.456487 -0.253433 6.30747e-22)
(0.928345 -0.0393479 6.64827e-22)
(1.00849 -0.0203046 -1.13452e-21)
(0.939516 -0.0329449 -6.10632e-22)
(1.02471 0.0668113 0)
(0.828741 -0.299067 0)
(1.01709 0.0243726 -6.75711e-22)
(1.01481 0.00251165 0)
(1.00578 0.022912 -6.23094e-23)
(0.954544 0.0488244 0)
(1.00387 0.0328989 -4.6607e-22)
(1.07832 0.0234172 0)
(1.01832 0.00317784 -2.57427e-23)
(1.01039 0.191213 0)
(1.01602 0.000308943 0)
(1.01875 0.00483094 -1.13041e-21)
(1.06095 0.107053 1.27462e-20)
(1.0008 -7.16122e-05 -9.67808e-22)
(1.00531 0.025023 2.6397e-21)
(1.05586 -0.0262153 -1.73425e-21)
(0.995621 0.108564 1.28515e-21)
(1.0223 -9.88242e-05 2.66993e-24)
(1.01701 0.000573959 0)
(1.03408 0.0243529 0)
(1.01183 0.0244693 -1.43301e-21)
(1.00934 -0.00645653 1.53895e-23)
(1.00229 -0.00673613 0)
(0.980475 -0.00589305 0)
(1.09059 0.156257 0)
(1.02869 0.0197524 4.18818e-22)
(1.00623 0.000541431 6.6514e-22)
(1.03406 0.0710137 9.44521e-23)
(1.01526 -0.0893498 -1.65197e-22)
(1.01794 0.00304748 1.58449e-21)
(0.950675 -0.0352345 -1.03061e-21)
(0.95999 -0.0215814 -3.51576e-21)
(1.02332 0.00295341 -2.77795e-22)
(0.942807 0.338204 5.54672e-21)
(1.00983 -0.0074806 -6.73391e-22)
(1.17512 -0.0129742 -6.68486e-22)
(1.01968 0.00176759 2.70353e-22)
(1.03505 -0.0033996 -1.3758e-22)
(1.11575 -0.0245975 -1.54082e-21)
(1.01756 0.0160394 -9.52366e-22)
(0.863364 -0.28484 -8.83905e-21)
(1.02882 0.0189935 -3.70571e-22)
(1.01703 0.00053036 -4.00865e-22)
(0.938093 0.347902 -1.13374e-20)
(1.01955 0.00180609 -1.20867e-24)
(1.00456 -0.00164112 1.23901e-21)
(1.01551 0.000391899 0)
(1.01499 0.00253724 -8.14658e-22)
(1.00335 0.0257687 8.12476e-23)
(1.03425 0.0608622 -1.98784e-22)
(0.928584 0.247688 -1.10951e-21)
(1.00241 0.000144776 -3.76394e-23)
(0.370201 -0.137362 8.9629e-21)
(1.02182 -0.00622776 -6.94531e-22)
(0.952146 -0.0437713 3.19453e-22)
(0.850962 -0.175143 -8.46585e-21)
(1.01747 0.00541958 1.03356e-21)
(1.01997 0.00301391 8.92032e-22)
(1.01456 0.024521 -3.23887e-22)
(1.01377 -0.0114143 -3.66951e-21)
(1.09936 0.0119855 0)
(1.01716 0.00225338 -7.18606e-22)
(1.00487 -0.00208274 2.41785e-21)
(1.00637 -0.00461922 -1.41505e-21)
(1.01832 0.00316459 1.30743e-21)
(1.01886 0.000498456 -1.89196e-22)
(1.10251 -0.0432145 -5.55454e-21)
(1.01782 -0.00785003 0)
(1.0783 0.0393417 3.49348e-21)
(1.03458 0.0120409 9.51195e-22)
(1.0154 0.0100689 4.04113e-21)
(1.015 -0.00343557 4.44785e-22)
(0.996271 0.017872 -1.81261e-21)
(0.99022 -0.031351 0)
(1.00553 0.00270853 -2.69894e-21)
(1.0932 0.0212757 0)
(1.03122 0.0764623 -5.14346e-22)
(1.00811 -0.00577493 0)
(0.8274 -0.158589 4.44165e-21)
(0.475488 -0.257654 -5.28786e-21)
(1.00604 -0.000555858 2.32681e-21)
(0.979243 -0.0479539 1.49721e-21)
(1.00639 -0.000233789 0)
(1.04393 -0.0235836 -4.65434e-22)
(1.07124 0.0256702 -3.75759e-21)
(1.02382 -0.00280575 2.38108e-22)
(1.06896 0.0318072 3.04008e-21)
(1.0076 0.0225998 -1.85531e-21)
(0.963694 -0.0439992 0)
(1.00546 -0.000426011 -2.09131e-21)
(1.05293 0.01226 6.80352e-21)
(0.941819 -0.074948 5.24213e-22)
(0.960555 0.105647 -2.89888e-22)
(0.968472 -0.0459753 0)
(1.01885 0.000580292 -2.70011e-22)
(1.02575 0.0342007 -1.68708e-21)
(1.085 0.0204882 -1.09021e-20)
(0.996745 0.206448 3.7422e-22)
(1.01782 0.000102134 -4.83672e-22)
(1.03847 0.0147836 0)
(1.00534 0.00850665 -1.34449e-21)
(1.02016 0.00510551 0)
(1.01637 0.002613 9.08237e-22)
(1.01046 -0.000120685 -4.19011e-23)
(1.00513 0.00202176 0)
(0.967384 -0.050351 -1.49059e-21)
(1.04508 -0.00677736 0)
(1.00668 0.000734023 1.2284e-21)
(1.00519 -0.00214934 4.46333e-24)
(1.01063 -0.000476486 1.30984e-21)
(1.01984 0.00724022 0)
(0.96289 0.100979 6.77941e-22)
(1.08545 0.0211635 1.01333e-20)
(1.00422 -0.00207976 2.87246e-21)
(1.01051 0.0233996 1.60128e-21)
(1.01903 0.00398861 7.09526e-22)
(1.01904 0.00377428 0)
(1.00347 0.0110924 0)
(1.01506 0.002411 0)
(1.00584 -0.0384259 0)
(1.0054 -0.00246682 -1.21165e-21)
(1.01423 0.00242609 7.98679e-22)
(1.00274 0.000227256 0)
(1.02299 0.00675085 -6.67734e-22)
(1.02604 0.0055341 -4.7718e-21)
(1.00582 -0.00815406 4.06024e-24)
(1.03614 -0.0271279 -1.75253e-21)
(0.854104 0.0872131 0)
(1.04205 0.0228273 4.01888e-21)
(1.01398 0.0024621 0)
(1.07798 0.00406125 0)
(1.00493 -0.00208027 -2.10178e-21)
(1.00529 -0.00234424 -1.22899e-21)
(1.00662 -0.00826511 -8.09736e-22)
(0.977106 -0.0480146 -1.02118e-21)
(1.01621 -0.0056188 1.78169e-21)
(1.0068 -0.0077478 0)
(1.00611 -0.00438976 7.07817e-22)
(1.00543 0.00249579 0)
(1.02011 -0.0100437 -3.559e-21)
(1.00611 -0.00307823 0)
(1.02804 -0.0115754 -3.26014e-21)
(1.01702 0.00218856 0)
(1.02246 0.00826064 1.941e-22)
(1.01627 0.00255286 1.78772e-21)
(1.03798 0.0144413 -9.53197e-23)
(0.953835 0.202475 4.05999e-22)
(1.01479 0.00257255 0)
(1.02487 0.00952782 7.71845e-23)
(1.01002 0.000711783 1.86261e-21)
(1.17603 0.0909134 0)
(1.00389 0.064797 -1.61887e-21)
(1.05828 0.0207044 -8.65322e-21)
(1.01849 0.0074264 1.88329e-21)
(1.02431 0.03814 -1.13187e-21)
(1.01519 0.0143438 1.18222e-21)
(1.0167 -0.0396035 2.75759e-21)
(0.548306 0.0705723 0)
(1.00124 9.08636e-05 -8.01863e-22)
(0.971357 0.0525667 0)
(1.02485 0.00983573 -7.18838e-23)
(0.875747 -0.160334 -3.11854e-21)
(1.01932 0.00576542 5.00106e-21)
(1.00433 -0.00201348 0)
(1.01528 -0.0108196 5.90706e-22)
(0.95658 -0.180455 8.65145e-21)
(1.01435 -0.0102178 0)
(1.05919 0.0208679 1.30017e-22)
(1.00121 -0.0175914 1.66975e-21)
(1.09721 -0.0119674 -5.01367e-22)
(0.967978 0.0272878 6.602e-21)
(1.0089 0.000316343 -1.3472e-21)
(1.00685 0.000673282 -2.41714e-21)
(1.01086 -0.000126003 -6.11858e-23)
(1.0178 0.00300416 -1.8419e-21)
(1.06367 0.0195009 8.27819e-21)
(1.12516 0.0452177 0)
(0.960933 0.0655614 -2.27385e-23)
(1.07189 0.0512801 -2.28436e-21)
(1.02538 0.00046405 0)
(1.00639 -0.0034711 0)
(1.00959 0.000299283 0)
(1.01619 0.00249059 0)
(1.01279 0.00818659 -7.2043e-22)
(1.02683 0.0083569 0)
(1.07802 0.0407191 3.52989e-21)
(1.04172 -0.00669625 -8.55108e-22)
(0.978402 0.0529193 0)
(1.02498 0.000448401 0)
(1.02175 0.000825475 4.63568e-23)
(0.97934 -0.00231416 3.37856e-21)
(1.01835 0.0014076 0)
(1.07968 0.000411516 -3.55834e-21)
(1.0739 0.0500728 -1.79522e-22)
(1.02737 0.0696047 0)
(1.11675 0.00519175 -1.50768e-21)
(0.715668 0.040567 0)
(1.01127 -0.0187205 3.18006e-21)
(1.01547 0.00243247 1.41297e-21)
(1.00622 -0.00331317 0)
(1.02845 0.00518576 5.37639e-22)
(1.01635 0.000415013 8.32939e-22)
(0.923242 -0.162523 3.07528e-22)
(1.07919 0.02701 0)
(1.10057 0.0143002 0)
(1.00414 -0.000787634 -1.97172e-21)
(1.023 0.00646563 2.59848e-22)
(1.01943 -0.00635182 -3.8104e-22)
(1.01291 0.00860837 -1.51914e-21)
(0.580718 0.0686958 0)
(1.00603 -0.023158 1.68952e-21)
(1.0055 -0.00267151 0)
(1.01363 -0.0104479 1.2446e-21)
(1.00244 -0.000203327 2.5928e-21)
(1.01639 0.0026077 -3.80879e-21)
(1.01568 0.00320336 1.97425e-21)
(1.00433 0.0101089 0)
(1.08283 -0.0288189 -4.72364e-21)
(1.01516 -0.00962127 0)
(1.01834 0.00499864 0)
(1.00414 -0.000601001 -1.18636e-21)
(1.0083 0.00296568 7.75621e-22)
(1.01649 0.00266447 9.57814e-22)
(1.02001 0.00489895 8.39157e-22)
(1.03276 -0.00670796 0)
(1.00815 0.00289115 -1.5609e-21)
(1.00087 0.0266383 5.27529e-22)
(1.0063 -0.00463473 7.23718e-22)
(1.08321 -0.014622 0)
(1.12316 -0.0339491 -2.80574e-21)
(1.02311 -0.00435248 7.39434e-22)
(1.03362 -0.0912443 8.35151e-22)
(0.997815 0.00531367 1.38233e-21)
(1.03337 0.00575519 -1.90635e-21)
(1.09238 0.0301239 0)
(0.997851 0.0510009 1.40281e-21)
(1.01611 0.000331955 0)
(1.00417 0.000483755 -1.61332e-21)
(1.00613 0.00188897 1.57125e-21)
(0.994708 -0.00139433 0)
(1.00178 9.47829e-05 -5.83754e-22)
(1.01372 -0.0197091 0)
(1.02223 0.0256066 0)
(1.0199 0.00511644 9.60573e-22)
(1.01711 0.00311503 -2.47057e-21)
(1.02232 -0.000580406 -1.98276e-22)
(0.883856 -0.172283 0)
(1.02735 0.0129903 1.56901e-21)
(1.00218 0.000155248 1.38292e-21)
(1.00336 -0.000300233 2.35408e-21)
(1.03015 0.00757229 -1.26775e-21)
(1.04966 0.0621114 -4.48769e-23)
(1.01678 0.00247362 -6.44381e-22)
(1.09348 0.0782017 0)
(1.00858 0.000926412 0)
(1.0089 -0.00596074 -1.24869e-21)
(1.04249 0.0235203 2.83557e-21)
(0.953956 0.0676133 -2.5921e-21)
(0.991919 -0.0953012 -8.72517e-22)
(1.04281 -0.00571333 0)
(1.07298 -0.0284003 3.13095e-21)
(1.00706 -0.00491859 0)
(1.01494 -0.017222 -3.30921e-21)
(0.927492 0.0504234 0)
(1.03074 0.010572 2.38079e-21)
(1.01776 0.00300972 1.95084e-21)
(0.931569 0.056769 -9.65444e-21)
(1.01333 0.00680071 9.61801e-22)
(1.17344 0.12691 -7.48549e-21)
(0.95086 0.0735369 2.69522e-21)
(1.00981 -0.000445059 -1.43577e-21)
(1.00687 -0.00472585 0)
(1.02267 -0.000165488 0)
(1.0206 0.00520487 0)
(1.00718 -0.0052102 3.37714e-22)
(1.05263 -0.0800003 -1.87108e-22)
(1.03519 0.0549278 -5.19192e-22)
(1.00457 -0.00151329 6.52399e-22)
(1.01981 0.00522607 1.42873e-23)
(1.01933 0.00787618 -1.75439e-21)
(1.07204 0.029763 0)
(1.0181 0.00311189 -1.42032e-21)
(1.00565 0.00686656 3.3154e-22)
(0.994169 0.0306682 -1.03679e-21)
(1.01305 0.0204492 -3.49345e-22)
(1.00179 -0.00183626 2.0666e-21)
(1.03663 -0.00785108 0)
(1.11844 0.0494504 0)
(1.10522 0.0335186 2.39743e-21)
(1.01639 0.000479944 0)
(1.00417 -0.000894003 0)
(1.0046 -0.00164256 6.03694e-22)
(1.00809 -0.00635928 1.61936e-21)
(0.997644 0.0193904 1.19962e-21)
(1.00729 0.0363323 -8.20685e-22)
(1.01525 0.00378621 3.18002e-21)
(1.00404 0.000465394 1.3334e-21)
(0.998343 0.0124666 2.59718e-21)
(1.01809 0.0391383 0)
(1.0058 0.00228728 0)
(1.01942 -0.000118692 0)
(1.08432 0.0859731 1.28462e-22)
(1.01588 0.00342494 -4.38181e-22)
(1.01211 0.0026764 1.57416e-21)
(1.01946 0.00148525 0)
(0.698228 0.238094 0)
(1.00421 -0.00111412 6.05665e-22)
(1.02209 0.000790901 0)
(1.0058 0.00240162 0)
(1.00541 -0.0104744 -3.95398e-21)
(1.00413 -0.00076774 1.74378e-22)
(1.03881 0.0310065 1.68878e-21)