/*--------------------------------*- C++ -*----------------------------------*\
| =========                 |                                                 |
| \\      /  F ield         | OpenFOAM: The Open Source CFD Toolbox           |
|  \\    /   O peration     | Version:  v2012                                 |
|   \\  /    A nd           | Website:  www.openfoam.com                      |
|    \\/     M anipulation  |                                                 |
\*---------------------------------------------------------------------------*/
FoamFile
{
    version     2.0;
    format      ascii;
    class       volVectorField;
    location    "650";
    object      U_0;
}
// * * * * * * * * * * * * * * * * * * * * * * * * * * * * * * * * * * * * * //

dimensions      [0 1 -1 0 0 0 0];


internalField   nonuniform List<vector> 
18355
(
(0.909318 0.176403 7.78148e-22)
(1.00927 -0.000208791 -4.57465e-22)
(1.17082 0.107628 8.08595e-21)
(1.01021 0.00115287 0)
(0.986867 0.000324413 2.1542e-21)
(0.9869 -0.1202 -1.23073e-22)
(1.01485 -0.00175358 0)
(0.986804 0.00493444 -2.48059e-22)
(1.00502 5.23145e-05 0)
(1.06336 0.0544282 -4.03448e-22)
(1.01489 0.00888751 -2.46814e-21)
(1.1148 0.0419165 -1.0258e-20)
(1.11596 0.0410589 -5.21669e-21)
(0.872886 0.10235 0)
(1.00703 9.56946e-05 4.57425e-22)
(1.00996 -0.000172217 -1.82081e-22)
(1.01012 0.00108556 -1.03567e-22)
(1.01803 0.0113922 0)
(1.08696 0.16695 0)
(1.00867 0.00211354 3.079e-21)
(0.789863 0.0066371 -7.5343e-21)
(1.02265 0.0135621 2.50126e-22)
(1.00815 -0.000163789 -6.79022e-22)
(0.998134 -0.114798 0)
(1.0081 -0.000155116 2.03639e-21)
(1.01205 0.000573455 0)
(1.01438 -0.00226583 0)
(1.0105 0.00214829 9.04527e-22)
(1.00387 -2.39219e-05 0)
(1.01602 0.00758034 1.63393e-21)
(0.957993 -0.291834 0)
(0.977587 0.00473568 7.88809e-21)
(1.01178 -0.0001811 0)
(1.00936 -1.45469e-05 1.59289e-21)
(1.00591 -8.78472e-05 6.86063e-23)
(1.0082 0.00431194 0)
(1.04729 0.0357341 -1.45658e-21)
(1.00801 0.0039589 0)
(1.0162 0.00668321 -3.63564e-21)
(1.01592 0.0105731 0)
(1.01348 0.000201216 -1.69118e-22)
(1.01487 0.00802943 1.52241e-21)
(1.00943 1.76199e-06 1.51622e-21)
(1.00903 -0.000172977 0)
(1.00912 -0.000200139 -1.12721e-24)
(1.11837 0.0177252 4.36213e-21)
(1.00998 0.00264927 -1.5787e-21)
(1.00988 0.00251638 1.28823e-23)
(0.957767 -0.292598 4.46363e-21)
(1.01038 -9.9759e-05 -1.30807e-21)
(1.00636 -1.42668e-05 6.99261e-22)
(0.634483 0.16936 1.8556e-21)
(1.01031 -6.86809e-05 3.32972e-21)
(1.00736 0.156402 0)
(1.016 0.00375964 0)
(1.00817 0.00182313 -1.92441e-21)
(1.00531 -5.22609e-05 1.07445e-21)
(0.875962 -0.317208 -1.32005e-20)
(1.01186 0.00033861 0)
(0.852205 0.00993452 3.3104e-21)
(1.00947 -5.28713e-06 -1.46834e-21)
(1.10706 0.0579351 1.0777e-20)
(1.00113 0.152656 -5.63897e-22)
(1.01606 0.00161448 -2.1552e-21)
(0.957357 0.0207581 0)
(1.00694 -7.023e-05 2.81371e-22)
(1.02265 0.0240763 5.29311e-22)
(1.04655 0.0366658 0)
(1.00949 -0.000150886 -1.62967e-21)
(1.08619 0.0966912 0)
(1.01088 -0.00036616 1.91719e-21)
(1.01611 0.00392003 -2.97651e-22)
(0.988642 0.00873677 1.47552e-22)
(1.01954 0.0128813 1.19424e-21)
(0.969689 -0.0526097 1.66119e-21)
(1.00957 -9.87916e-05 -1.40671e-21)
(0.881019 -0.31051 1.51981e-21)
(1.00968 -8.18572e-05 1.53243e-21)
(1.01085 -0.000340551 -6.39367e-22)
(0.97777 -0.0558537 0)
(1.02185 0.023654 2.78178e-22)
(1.00261 -0.0705846 0)
(1.0096 -0.000130521 1.47831e-21)
(1.01776 0.0255989 1.46447e-22)
(0.992598 0.0666736 8.81058e-22)
(1.00391 2.42208e-05 -2.03994e-22)
(1.00646 0.000253342 9.72836e-22)
(1.0148 0.0622512 -3.45892e-22)
(1.00931 0.00108839 0)
(1.01182 0.0616641 7.95399e-23)
(0.8092 0.222922 -1.21541e-20)
(0.849298 -0.0214456 -6.4003e-21)
(1.01286 -0.0646277 2.63962e-22)
(1.01049 -0.000375061 -3.41748e-21)
(0.985624 0.167253 -3.23637e-22)
(1.01376 0.00219194 -1.99105e-21)
(1.00895 0.00122368 6.00201e-22)
(1.01382 0.00170309 4.44738e-24)
(1.06306 0.10565 -1.80251e-21)
(1.02117 0.0128235 -8.4284e-23)
(0.994885 0.0641658 1.85915e-21)
(1.01067 -0.000216751 0)
(1.01057 -0.000367375 2.051e-21)
(1.01055 -0.000624916 -2.41032e-23)
(1.02043 0.0239266 -1.81307e-22)
(1.01007 -0.000196953 6.38183e-22)
(0.957948 0.0154424 -4.1372e-21)
(0.972347 0.185054 3.19796e-21)
(1.03141 0.0521186 7.99943e-22)
(1.00981 -5.29321e-05 -1.33907e-21)
(1.0064 -0.000109998 3.68364e-22)
(1.00416 -2.9002e-05 0)
(1.00401 0.0050213 -2.43374e-21)
(1.01786 0.024482 -1.33103e-22)
(1.14058 0.0125395 2.13564e-21)
(1.00712 0.0170309 0)
(1.01063 -0.000204863 -1.16918e-21)
(0.973191 -0.0700078 1.15803e-21)
(1.01991 0.0185987 -7.52793e-23)
(1.02364 0.0236408 -1.17962e-21)
(1.08102 0.0819833 0)
(1.17527 0.101597 -2.74773e-20)
(0.799252 0.170509 0)
(1.0097 0.0706545 -1.19491e-22)
(0.981568 -0.0735173 -1.05308e-21)
(1.12597 0.0127843 -1.57156e-20)
(1.01489 -0.00209576 3.101e-22)
(1.01015 0.000944524 4.83678e-22)
(0.912578 0.188335 0)
(1.02172 0.0108218 -4.44806e-23)
(1.00901 0.00124417 1.23351e-21)
(0.621596 0.148331 0)
(1.01476 0.00572028 -4.91936e-22)
(1.09117 0.0878239 0)
(0.949797 0.0913745 -2.68343e-21)
(1.0094 0.000932792 -1.33329e-21)
(1.09471 0.166844 5.074e-21)
(1.03957 0.116848 0)
(1.0122 0.000997961 2.97293e-23)
(0.827765 -0.0201719 -1.49979e-22)
(1.03708 0.031134 0)
(1.01499 -0.0315026 -6.359e-22)
(1.00961 0.0022027 -6.59483e-22)
(0.672669 0.247648 1.19921e-20)
(0.94518 0.0878103 0)
(1.01427 0.00037766 1.54462e-22)
(0.81987 -0.00329611 0)
(1.01251 -0.00183284 -7.10987e-23)
(1.00542 0.00402958 -4.5139e-21)
(1.02748 -0.0571383 2.52934e-22)
(1.0104 0.00202397 -8.29391e-22)
(1.02392 0.0230783 -5.77082e-22)
(1.01667 -0.0013763 1.03139e-21)
(1.02085 -0.0115497 1.23259e-21)
(1.00955 6.0324e-06 -1.56069e-21)
(1.00764 -3.2484e-05 -6.20302e-23)
(1.01004 0.000867873 3.70674e-22)
(1.00443 9.89267e-07 1.28167e-22)
(1.00968 0.00230239 -1.23229e-22)
(1.00745 -3.1071e-05 5.41954e-23)
(1.01786 0.010342 -1.20006e-21)
(1.01479 0.00590636 0)
(1.00979 -7.71219e-05 -8.48888e-22)
(1.01792 -0.0193427 1.43457e-21)
(1.02 0.0108723 0)
(1.06069 0.0207512 4.92139e-22)
(0.792445 -0.00134246 0)
(0.87562 0.179609 0)
(0.815028 -0.310257 6.08558e-21)
(1.03609 0.0314559 3.04253e-21)
(1.00445 -4.36075e-05 -6.18249e-23)
(1.08816 0.0858568 6.99539e-21)
(1.0041 -3.12944e-05 0)
(0.987425 -0.268145 9.2775e-21)
(1.00515 -7.61772e-05 0)
(1.01364 0.000293234 -2.39804e-22)
(1.00485 -4.69234e-05 6.59516e-22)
(1.0112 -0.00108773 -4.74722e-25)
(1.03986 0.0141526 0)
(1.00846 0.0313882 1.04716e-21)
(1.00384 -7.46138e-06 -5.48934e-23)
(1.05494 0.025147 -1.34531e-22)
(1.02223 0.0123136 0)
(1.01079 0.00263868 -5.35697e-22)
(1.04818 0.00715216 3.66871e-22)
(1.01074 -0.000578424 -1.30663e-21)
(1.00503 1.84892e-05 -1.83611e-21)
(1.00814 0.0575711 0)
(1.01612 0.00113698 4.30215e-23)
(1.01451 -0.00271305 -1.60458e-22)
(1.12416 0.0158454 1.5765e-20)
(1.06648 0.103253 2.39095e-21)
(1.0094 -0.00028851 -9.14784e-22)
(1.01072 -0.000312657 0)
(1.01545 0.000221425 0)
(1.14145 0.0161614 0)
(1.0071 -4.95505e-05 2.09186e-21)
(0.881749 0.20603 1.1633e-21)
(1.00936 -0.000237565 0)
(0.852683 0.0958546 1.00149e-21)
(1.0108 -0.00054195 2.44303e-21)
(1.01556 0.0124359 1.98077e-21)
(1.01756 0.00645927 -3.5009e-21)
(1.00479 -1.11621e-05 4.45816e-22)
(0.887775 0.1835 0)
(1.02219 0.0092455 -5.81952e-22)
(0.824005 -0.298617 -2.08661e-21)
(1.01069 0.0025993 -6.13005e-22)
(1.01157 -0.000113544 2.074e-21)
(1.01548 -0.00215393 0)
(1.01788 0.00985773 -3.92613e-22)
(1.04353 -0.0593162 9.6313e-22)
(1.01996 -4.85515e-05 0)
(1.01888 -0.000272973 0)
(1.01272 -0.00193493 4.29246e-23)
(0.990735 -0.2416 1.0153e-20)
(1.00781 0.0300592 -9.73398e-22)
(1.04729 0.027461 0)
(1.02183 0.00976761 1.95985e-22)
(1.00992 0.00265979 0)
(1.03154 0.0501871 -1.04777e-21)
(1.01034 -0.000449544 -6.93356e-22)
(1.01932 0.0594148 -1.40035e-21)
(1.014 -0.00812239 1.23402e-21)
(1.02972 0.0283099 0)
(1.01861 0.00301541 5.55908e-22)
(1.01041 -0.000430173 0)
(1.02728 0.105523 0)
(0.921779 0.148215 -8.60054e-22)
(0.993214 0.0183134 -2.65046e-21)
(1.01435 -8.16263e-05 1.29581e-21)
(1.02115 0.0243803 -6.84007e-22)
(1.06401 0.0257533 -4.84552e-22)
(1.01045 -0.000448441 7.11174e-22)
(1.0219 -0.0192542 -6.40974e-22)
(1.02941 0.0233389 4.00208e-22)
(1.03338 0.00968196 0)
(1.12064 0.0156459 -1.34075e-21)
(1.05424 0.0196354 2.29988e-21)
(1.0187 -0.00101151 0)
(1.00963 -0.000281508 -1.74893e-21)
(1.03922 0.0136932 0)
(1.01775 -0.000975056 -9.71061e-22)
(0.995825 0.0220353 5.3452e-22)
(1.0218 0.00939229 -3.89471e-22)
(1.01608 0.00343173 0)
(1.00995 0.00245674 -9.34007e-22)
(1.05168 -0.0494937 -1.07222e-21)
(1.02703 -0.0830493 0)
(1.01143 -0.000760329 8.468e-22)
(1.01654 0.00215951 8.89041e-24)
(1.03898 -0.0736917 2.99204e-25)
(1.14456 0.070096 -6.60859e-21)
(1.0123 -0.00772073 7.29979e-22)
(1.01108 -0.00102458 0)
(1.02119 -0.0129748 -1.04775e-22)
(1.05342 0.0202031 2.1955e-21)
(1.01326 0.000535779 0)
(1.01777 0.00369226 -5.14299e-22)
(1.00872 0.000817972 -1.30356e-21)
(1.03748 -0.0385677 -1.10589e-22)
(0.984337 0.00605784 1.59117e-21)
(1.06483 0.0963281 -3.63386e-22)
(1.06542 0.0314017 1.00661e-20)
(1.01804 0.00547431 0)
(1.03402 -0.0130107 5.6798e-22)
(1.00895 -0.0238865 1.46449e-21)
(1.0618 0.114697 0)
(1.00871 0.000774901 -1.98792e-21)
(1.01619 0.00362143 0)
(1.01406 -0.0033715 -1.33287e-21)
(1.01001 -2.17866e-05 0)
(1.01516 0.0127277 0)
(1.04837 0.0278047 -1.00324e-21)
(1.00995 0.00174865 -4.54699e-22)
(1.01878 0.00997194 0)
(1.02024 0.0254486 -1.16443e-21)
(1.00931 0.00088078 1.33292e-21)
(0.983039 0.102556 6.2773e-23)
(0.973452 0.0919834 1.23138e-20)
(1.02098 0.0217507 1.07483e-21)
(1.01809 0.0101542 0)
(1.00589 0.0147641 5.38572e-21)
(1.00988 -1.04553e-05 -8.45104e-22)
(1.01955 0.0647025 0)
(1.02202 0.00809239 -5.54249e-22)
(1.00457 0.0294629 0)
(1.0142 0.000252765 -1.05383e-22)
(1.00615 0.0289446 0)
(0.910366 -0.0795474 -8.32261e-22)
(1.01164 -0.000163694 0)
(1.07113 0.0591535 3.17743e-21)
(1.02158 0.01879 -6.57287e-22)
(1.0137 0.00399913 1.1881e-21)
(1.00491 -0.0221235 0)
(1.00651 9.30691e-05 0)
(1.01058 -0.000340543 -3.67844e-22)
(0.985643 0.0978863 9.96432e-22)
(1.01849 0.00994107 -2.75998e-22)
(1.00953 -0.0297447 -6.94784e-22)
(1.04974 0.0349503 -1.63667e-21)
(0.907564 0.269528 -1.24644e-20)
(1.02636 0.068347 2.92498e-22)
(1.06692 0.0984888 -4.78921e-21)
(1.01688 0.0123033 1.91288e-21)
(1.02123 0.027441 -1.2214e-21)
(1.01032 0.000275773 1.44783e-21)
(1.05054 0.0169339 -2.48208e-21)
(1.0643 0.0307962 1.12742e-20)
(1.06981 0.0605025 3.0789e-21)
(1.04511 0.0228641 1.41748e-22)
(1.2149 0.109253 0)
(1.01048 0.00350422 0)
(1.00399 0.000911204 0)
(0.998221 0.139478 -3.41065e-22)
(1.00468 0.0142162 -2.50901e-21)
(1.01048 0.00346015 2.18868e-21)
(1.00979 0.00243014 0)
(1.01014 0.00240222 0)
(1.08688 0.0455615 0)
(1.20953 0.0987277 1.53418e-20)
(1.0791 0.138573 2.07539e-20)
(1.04093 0.0293745 -5.05771e-22)
(1.02234 0.02333 -1.20544e-21)
(1.03831 0.0295241 -2.70352e-21)
(1.05093 -0.0341866 0)
(1.01216 -0.0017261 1.40974e-22)
(1.02213 0.00887605 -1.32479e-22)
(1.0372 0.0296967 8.14748e-22)
(1.01833 0.00566923 0)
(0.993105 0.0210511 0)
(1.00666 -6.46413e-05 1.27098e-23)
(1.10497 -0.0415482 0)
(1.01038 -0.000212145 8.0944e-22)
(0.986011 -0.0859514 -1.51371e-21)
(1.01477 0.000665528 0)
(1.01599 0.0105073 0)
(1.01711 0.0132401 5.16923e-22)
(1.12378 0.0439628 8.9015e-21)
(0.852759 0.185764 -2.72812e-21)
(0.996086 0.0243777 -5.85898e-22)
(1.03446 0.0276853 -1.23144e-22)
(1.0184 0.0125276 0)
(1.00939 0.00115671 1.53868e-22)
(1.01804 0.00550814 0)
(1.01425 0.00727013 -9.79003e-22)
(1.07276 0.0520259 0)
(1.0095 0.00132765 1.64075e-21)
(1.01089 0.000628798 1.23223e-21)
(1.04948 -0.0178978 2.01101e-22)
(1.01921 0.012459 1.71975e-22)
(1.00957 0.00121127 0)
(1.14002 0.0546687 0)
(1.01436 0.00615717 1.41089e-22)
(1.01005 0.00243719 3.0631e-22)
(1.01406 -0.000500067 0)
(1.00233 0.0289309 0)
(1.01183 0.000572056 4.90262e-23)
(1.00177 0.0271426 1.67498e-21)
(1.01141 -0.000618214 -7.43603e-22)
(1.01106 0.000689555 -1.67085e-21)
(1.0209 0.0124332 8.07711e-23)
(0.911597 0.00758969 0)
(1.04258 -0.0112217 4.68335e-22)
(1.01131 -0.000602295 8.12192e-24)
(1.0095 0.00206095 -5.94497e-22)
(1.02039 0.0162859 4.37939e-23)
(1.01024 0.00245772 6.56781e-22)
(1.00482 -4.48649e-06 1.63751e-21)
(1.06257 -0.0272551 -4.30742e-22)
(1.0394 -0.0169615 -9.85548e-22)
(1.01822 0.0298486 -4.37713e-23)
(1.01753 0.00543836 4.8985e-24)
(1.03377 0.0102005 0)
(1.11775 0.0417425 1.65623e-20)
(1.01177 -0.00261722 2.34751e-21)
(1.01849 -0.0136902 8.63644e-22)
(1.05152 0.0168924 0)
(1.01115 -0.000150859 -4.12666e-22)
(1.02035 0.0135581 -1.00161e-21)
(0.995124 -0.0112887 0)
(1.02072 0.011646 7.14057e-23)
(1.01092 0.000732675 0)
(1.01792 0.0110053 2.16949e-21)
(1.00668 0.000184383 0)
(1.01563 -0.00135181 -2.67285e-21)
(1.01547 0.000273256 4.3508e-23)
(0.994668 -0.0406574 5.43738e-21)
(1.01745 -0.00152173 1.02957e-21)
(1.02527 0.0224113 -8.58952e-22)
(1.00618 -3.99112e-05 -6.48093e-24)
(1.01014 0.00248975 9.90419e-22)
(1.01465 0.0124692 9.81091e-22)
(1.01543 -0.00369013 3.24131e-22)
(1.0936 0.0626052 5.70905e-21)
(0.733388 -0.0594289 -7.90015e-21)
(1.04924 -0.0125987 -2.06193e-22)
(1.0182 0.00128821 0)
(1.14313 0.0743604 7.0965e-21)
(1.00851 -0.01341 1.48853e-21)
(1.01473 0.000579025 9.75804e-23)
(1.00681 -0.000166529 8.49268e-25)
(1.0694 0.0560893 -3.02291e-21)
(1.01626 0.00124737 0)
(1.01851 0.0318747 0)
(1.01436 -0.00156846 0)
(1.02263 0.013058 3.69563e-21)
(1.04431 -0.0422739 1.11707e-22)
(1.0369 0.0371189 -8.38917e-23)
(0.851141 0.171105 5.5284e-21)
(1.05144 0.106589 0)
(1.01054 -0.000588484 0)
(0.807207 0.122655 0)
(1.02161 0.0128252 0)
(1.00983 0.00173117 -1.01702e-21)
(0.769334 -0.00217546 1.56587e-20)
(1.01493 0.000753429 4.48855e-22)
(1.01811 0.0116292 9.01036e-22)
(1.01693 -0.00408607 -1.64226e-22)
(0.951164 0.0122695 5.10694e-21)
(1.01489 0.000833552 -4.57401e-22)
(1.08893 0.0816785 1.051e-21)
(0.965854 -0.13252 1.15539e-22)
(1.06586 0.0894966 5.8696e-22)
(1.01307 0.00602218 8.46648e-22)
(1.01001 -0.00029219 0)
(1.06774 0.0919312 4.65723e-21)
(1.02047 0.0189377 -5.46686e-23)
(1.01285 -0.000715614 -6.25677e-22)
(1.06208 0.0417202 5.22903e-22)
(0.989668 0.00638115 -7.70362e-22)
(1.00974 0.00161876 7.384e-22)
(1.0708 0.0570442 1.10586e-22)
(1.09276 0.0643547 9.45826e-21)
(1.00987 -0.000274853 0)
(1.01638 0.0115517 1.23498e-21)
(0.998867 0.0249431 -1.86629e-21)
(0.948768 -0.235789 1.00916e-20)
(1.03998 0.0658933 0)
(1.01887 0.0123703 -1.7271e-22)
(1.01031 0.000392028 -1.49968e-21)
(1.06688 0.0492448 0)
(1.00715 0.000205076 1.20587e-21)
(1.01115 4.99575e-05 1.22754e-21)
(1.01363 -0.000617311 0)
(1.03725 0.0307819 -3.26767e-22)
(0.754179 -0.0515842 -5.75263e-21)
(1.01101 -0.000126441 -9.08885e-25)
(1.00181 1.4916e-05 -5.52234e-23)
(1.01385 0.000651336 0)
(1.12598 0.0426021 -1.45835e-20)
(0.997118 -0.012888 1.08191e-21)
(1.0108 -0.000408048 0)
(1.01651 0.0115249 9.1971e-22)
(1.0209 0.0615925 4.25601e-22)
(1.02239 0.00519264 4.46032e-23)
(1.12102 0.0101254 1.3504e-21)
(1.10792 0.060097 0)
(1.02258 0.0127088 -1.46032e-22)
(1.00703 0.000187823 6.05823e-22)
(1.03962 0.0635335 5.34998e-21)
(1.12432 0.0384864 5.27111e-21)
(0.881449 0.259868 0)
(1.01092 -7.09118e-05 -1.59396e-21)
(0.881739 0.240152 0)
(1.01203 0.000873351 2.58833e-22)
(1.01107 -9.33214e-05 7.81396e-22)
(1.02248 0.0722807 1.36843e-21)
(1.02124 0.0200774 0)
(0.988737 -0.0444107 -2.44575e-21)
(0.987776 0.0120629 0)
(1.02504 0.023113 0)
(1.02039 0.0132673 -1.29069e-21)
(1.02313 0.0135635 -3.18787e-22)
(1.13936 0.0587404 -7.01005e-21)
(1.01938 0.0190351 8.00716e-23)
(1.06374 0.0284863 6.77441e-21)
(1.01978 0.0129852 -1.40434e-22)
(1.01081 -2.21221e-05 2.09945e-22)
(1.02766 0.0088694 0)
(1.01096 -4.19992e-05 0)
(1.10669 0.0643033 -6.77772e-21)
(0.778457 -0.0481598 5.89839e-21)
(0.951923 0.00644097 -5.33208e-21)
(1.01865 0.0114096 -2.43464e-21)
(1.01502 0.0090963 1.06026e-21)
(1.01941 0.0128801 1.43322e-22)
(1.01605 -0.00252459 -2.11089e-21)
(1.01708 0.0119798 1.64403e-22)
(1.0153 0.00209951 0)
(1.01196 -0.000724558 1.07073e-23)
(1.01779 0.00144513 -8.48969e-23)
(1.02149 0.0667732 -1.09782e-23)
(1.00978 -0.000296931 0)
(1.01479 0.0021812 -4.43523e-25)
(0.875625 0.34475 2.12677e-21)
(0.886114 0.217122 0)
(1.00326 0.144147 0)
(1.02182 0.0104583 -2.95257e-22)
(1.00326 -1.06923e-05 6.48776e-23)
(0.999344 0.0269269 0)
(1.02239 0.0131108 0)
(1.0448 -0.0421212 -2.42365e-22)
(1.18668 0.131686 -5.32744e-21)
(1.00511 0.000704256 7.79922e-22)
(1.01528 0.0234402 1.11595e-22)
(1.01755 0.0170505 -1.27078e-21)
(1.02769 0.0162749 -2.20507e-21)
(1.03188 0.0250978 -1.01129e-21)
(0.578621 0.00956928 0)
(1.01133 0.0465462 0)
(1.00887 0.0041343 2.29673e-21)
(0.969478 -0.0769447 -1.49751e-20)
(1.0076 0.000328238 -2.27138e-22)
(0.865368 0.189958 2.65458e-21)
(0.800724 0.138945 0)
(1.05574 0.0210369 -4.12984e-21)
(1.01634 0.0113959 6.72047e-22)
(0.544857 0.00535539 1.04802e-21)
(1.01005 0.00186693 9.06437e-22)
(1.08613 0.0800697 -1.0126e-21)
(0.977689 0.000730698 0)
(0.97115 0.064443 8.21041e-22)
(1.0188 0.0186471 -1.8541e-22)
(1.02738 0.00853343 -8.8152e-22)
(1.02182 0.00541473 4.51595e-22)
(0.93487 0.0534559 8.21465e-22)
(0.869457 0.269036 6.94698e-21)
(0.970918 0.0507448 0)
(0.916721 -0.0816562 -5.77785e-22)
(1.01607 0.0125797 -3.56947e-21)
(1.02142 0.00531461 -4.80171e-22)
(1.01865 0.0262423 6.42477e-23)
(1.01627 0.00332068 -1.43091e-22)
(1.00458 0.00418323 0)
(0.816955 -0.000767788 -8.19669e-21)
(1.02084 -0.195793 -2.11312e-20)
(0.74974 -0.056569 0)
(1.03944 -0.13299 3.29229e-21)
(0.997949 -0.00445786 0)
(0.981361 0.00707497 -1.01303e-20)
(1.00481 0.000939512 5.11814e-21)
(1.01007 0.00272918 -9.64062e-22)
(1.01255 0.00387149 -3.0779e-23)
(0.996411 -0.00630665 0)
(1.00789 0.0141908 2.14478e-21)
(1.02243 0.00827657 -1.84381e-22)
(1.01615 0.00311963 0)
(0.978207 -0.0953608 1.42031e-21)
(1.0089 0.00107667 -1.24773e-21)
(1.04176 -0.13546 -3.2986e-21)
(1.00132 0.00202581 0)
(1.1004 0.0739534 -3.00907e-21)
(1.11886 0.0404714 0)
(1.01268 0.00391021 -5.30949e-22)
(1.01706 0.023826 2.79261e-22)
(0.904933 0.197599 -1.17457e-21)
(1.01771 0.00160157 0)
(0.700389 -0.0757803 -7.60684e-21)
(1.01088 0.00073128 1.34875e-21)
(0.879129 -0.0261722 -1.11437e-20)
(1.00992 0.0453198 0)
(1.01405 0.000276688 1.65554e-22)
(1.00658 8.03915e-05 0)
(1.06495 0.111331 0)
(1.04774 0.109949 0)
(1.00375 -4.32878e-05 0)
(1.00983 -0.000267796 1.08773e-21)
(1.06406 0.0477067 7.55348e-21)
(1.05679 0.0214246 -4.81558e-23)
(1.1005 0.0769908 2.89239e-21)
(1.01631 0.000749168 -6.523e-23)
(1.10817 0.0564128 -7.83531e-21)
(1.00888 0.00101122 -1.95661e-21)
(1.17596 0.136524 5.29558e-21)
(1.00577 -7.60139e-05 -1.03461e-24)
(1.01058 0.00399558 1.8997e-21)
(1.16508 0.0689897 1.69386e-20)
(1.02439 -0.00359664 0)
(1.02437 0.0217299 0)
(1.00568 -8.26993e-05 0)
(1.01351 0.0228355 1.70971e-22)
(1.01142 0.00234358 -1.1644e-21)
(1.10091 -0.021775 0)
(1.04014 0.110585 0)
(1.03982 0.0266734 4.31609e-21)
(1.01439 -0.0104829 -4.68935e-22)
(1.00527 -2.59387e-05 5.42922e-22)
(1.00583 0.0165879 -2.14324e-21)
(1.01985 0.0119235 -1.27635e-23)
(1.03962 0.0257943 -1.82326e-21)
(0.32645 -0.0949298 -3.71798e-21)
(1.00874 -0.000167849 1.03387e-21)
(1.05192 -0.00446343 4.10552e-23)
(1.01703 0.00963566 7.41586e-22)
(1.00506 -5.9519e-05 7.35676e-22)
(1.03236 0.0279573 -2.23485e-21)
(1.05116 -0.0277372 0)
(1.0114 -0.00316567 0)
(0.95621 0.0802566 1.98984e-21)
(1.01409 0.00173037 -1.24855e-21)
(1.07378 0.0401185 -3.66638e-21)
(0.984022 -0.16042 -1.54131e-21)
(1.01236 -0.00180885 -1.48528e-23)
(1.01005 0.00251494 -3.19518e-22)
(0.906301 0.230414 -8.31864e-22)
(1.01095 0.0586078 -7.67211e-23)
(0.891082 0.336375 -4.08419e-21)
(0.984154 0.0174113 3.35804e-21)
(1.01592 0.0101056 9.95872e-22)
(1.01619 0.002813 0)
(1.01104 -0.00051125 1.89552e-21)
(1.01958 0.0121185 1.24886e-21)
(1.01777 0.0126609 -4.19794e-22)
(1.01639 -0.00388376 4.36012e-22)
(0.9239 0.101663 -2.61598e-21)
(0.622662 0.0508471 0)
(1.01061 0.00396256 -1.95779e-21)
(0.994989 -0.125031 0)
(0.981338 -0.185368 1.0089e-20)
(1.0149 0.010367 -1.53676e-21)
(1.17682 0.0731659 9.89895e-21)
(1.0113 4.09299e-05 -1.71021e-21)
(0.917853 0.167156 -6.95288e-22)
(0.933966 0.043055 -5.18411e-22)
(1.01347 -0.00233098 -1.4359e-22)
(0.979122 -0.180904 2.37122e-21)
(1.06899 0.052569 -3.25108e-21)
(1.02701 0.00307921 4.72873e-21)
(1.10135 0.00663327 0)
(1.01328 -0.000452492 -1.19757e-21)
(1.01121 -0.000600659 -2.3529e-21)
(1.00473 -2.6595e-05 -7.14341e-22)
(1.05235 0.0107143 -3.82192e-22)
(1.08532 0.0460933 0)
(1.01284 0.00619777 -1.96024e-21)
(1.03457 0.00794871 -9.48704e-22)
(0.931055 0.10583 0)
(1.02177 0.0123729 0)
(1.07027 0.0536444 0)
(1.01129 -0.000791438 0)
(1.06864 0.0489994 3.68283e-21)
(0.814249 0.0277381 0)
(0.937664 0.0386798 -1.44409e-21)
(0.998577 -0.0113273 0)
(0.954377 0.0331461 -1.15024e-21)
(1.0059 0.0597475 1.91267e-22)
(0.890891 -0.312098 -8.5753e-21)
(1.01604 0.0242467 -1.12585e-22)
(1.00935 0.00180393 0)
(1.0089 0.0202927 0)
(1.09375 0.0210819 1.50248e-21)
(1.02288 -0.010518 -6.06166e-22)
(1.08569 0.0412068 -1.53849e-21)
(1.01306 0.00614894 0)
(0.931652 0.14992 4.76317e-22)
(1.0138 0.000586976 0)
(1.01631 0.0105289 1.11893e-21)
(1.09856 0.333172 -2.1446e-20)
(1.00378 -4.58944e-05 -1.67366e-21)
(1.00794 0.0214578 0)
(1.02412 0.0178869 1.44831e-21)
(0.961603 0.0772969 -3.77487e-21)
(1.02139 0.00123507 -7.64015e-24)
(1.01507 0.00137501 -2.61285e-22)
(1.03039 0.0274474 0)
(1.01234 0.0230352 -8.79977e-22)
(1.01055 -0.000481696 7.17157e-22)
(1.01399 -0.00219284 -4.37737e-22)
(1.0087 -0.00399388 6.19754e-22)
(1.00775 0.162052 -1.0816e-21)
(1.02633 0.0223975 9.52266e-22)
(1.00628 3.75819e-05 -5.25773e-22)
(1.01139 0.0676153 0)
(0.961982 -0.152493 0)
(1.01239 0.00545828 -1.48623e-21)
(0.958848 0.0226321 1.48834e-21)
(1.12742 0.0123476 -6.08717e-21)
(1.02201 0.00514898 0)
(0.833775 0.251869 0)
(1.01098 -0.000532384 -7.49875e-22)
(1.17288 0.116858 1.70979e-20)
(1.0179 0.00361997 -6.06739e-23)
(1.01744 -0.00389669 0)
(1.16179 0.0639478 -9.19902e-21)
(1.01767 0.0185134 4.09228e-22)
(0.93862 -0.270071 -3.06629e-20)
(1.02659 0.0217251 -8.83165e-22)
(1.01513 0.00129654 1.38596e-22)
(0.829383 0.259391 2.32993e-22)
(1.01772 0.00367684 0)
(1.00972 -1.98528e-05 2.4779e-21)
(1.01265 0.000641703 -5.47284e-23)
(1.00943 0.00191812 0)
(1.00653 0.0212255 1.45515e-21)
(1.01647 0.0594163 2.77517e-22)
(0.837908 0.166702 2.31873e-21)
(1.00378 -2.55073e-05 9.25033e-22)
(0.699938 -0.0743202 -3.08038e-23)
(1.01545 0.000466552 0)
(0.95036 0.0125456 -7.55609e-22)
(1.01256 0.0671017 1.25322e-20)
(1.01651 0.0118202 0)
(1.0178 0.00560889 0)
(1.0142 0.0237643 -1.72591e-22)
(1.01246 -0.000850812 3.36856e-22)
(1.1201 0.0642305 -1.20589e-20)
(1.0136 0.00404772 -8.53053e-22)
(1.00981 1.15931e-05 0)
(1.01116 -4.50197e-05 -1.61737e-21)
(1.01286 0.00606769 0)
(1.01743 0.00161476 0)
(1.19253 0.0787633 -3.01609e-20)
(1.01914 0.0109451 2.46756e-21)
(1.07109 0.0631625 0)
(1.00881 0.00272954 -1.21606e-21)
(1.00367 0.00225096 0)
(1.01737 0.0105903 8.1687e-23)
(1.0221 0.00160966 -1.10099e-21)
(0.982483 -0.000957252 -7.70728e-22)
(1.00955 -0.000300622 2.0638e-21)
(1.10605 0.0618843 0)
(1.00623 0.0706982 0)
(1.01053 -0.000420311 0)
(1.01748 -0.150193 7.49026e-21)
(0.832727 0.0483296 2.13688e-20)
(1.00647 -6.41387e-05 1.53339e-21)
(0.961994 -0.013631 8.93693e-22)
(1.00508 -1.40036e-05 -4.54132e-22)
(1.06641 0.0129629 2.15705e-22)
(1.07267 0.0406576 -4.75367e-21)
(1.01342 -0.00225698 1.06357e-22)
(1.06585 0.0476628 -6.27667e-21)
(1.01015 0.0206449 -1.19658e-21)
(0.957003 0.00350681 -3.89772e-22)
(1.006 -2.62902e-05 -1.20709e-21)
(1.05322 0.0179535 1.17066e-20)
(0.89574 0.0139121 8.97907e-22)
(0.935978 0.0558315 -3.90893e-22)
(1.05157 -0.0409876 9.01088e-23)
(1.01738 0.00174017 3.5256e-23)
(1.01859 0.0527048 -8.31899e-22)
(1.10281 0.0495498 1.0749e-21)
(0.914407 0.156082 8.16664e-22)
(1.01646 0.000853961 6.59609e-23)
(1.03677 0.0185353 3.12283e-21)
(1.01296 -0.000466043 0)
(1.0178 0.00905832 -2.66471e-22)
(1.01057 0.00346661 -8.45501e-25)
(1.00643 -8.2774e-05 -8.79158e-23)
(1.0089 -0.000163792 0)
(0.952656 -0.00729623 4.49214e-22)
(1.01529 0.00951356 -9.3072e-22)
(1.00706 3.55966e-05 0)
(1.00937 -2.676e-05 -1.00289e-21)
(1.00713 -0.000133179 -2.80061e-22)
(1.01835 0.0118666 -6.89886e-22)
(0.940801 0.0534978 -5.19213e-21)
(1.10187 0.0504805 1.94033e-21)
(1.01169 -0.000141909 -2.1872e-21)
(1.01175 0.0219832 0)
(1.01535 0.00892804 -2.26311e-21)
(1.01507 0.00894806 -4.85362e-22)
(1.01482 -7.12034e-05 0)
(1.00959 0.00217481 9.72088e-22)
(1.03692 -0.00944087 4.99943e-22)
(1.00951 -4.96453e-05 7.26197e-22)
(1.0091 0.00147919 5.12232e-24)
(1.00485 8.79693e-06 0)
(1.02141 0.0101915 3.97456e-22)
(1.00975 0.0122037 -9.71014e-22)
(1.0163 -0.00149732 9.01226e-22)
(1.15113 0.0169604 -1.0016e-20)
(0.863836 -0.0331757 0)
(1.03869 0.0275522 0)
(1.00899 0.001299 -5.8608e-22)
(1.12226 0.0391093 -5.12969e-21)
(1.0097 9.08852e-06 1.81289e-22)
(1.00951 -3.22804e-05 7.43609e-22)
(1.01683 -0.00111026 0)
(1.05419 -0.0324048 -4.21858e-22)
(1.01819 0.0106383 -1.20897e-21)
(1.01648 -0.000644145 0)
(1.01131 1.49626e-05 -6.70255e-25)
(1.0093 -0.000258145 0)
(1.02025 0.011606 -2.6375e-21)
(1.00951 -0.000180289 1.96719e-22)
(1.02143 0.0148314 -2.41783e-21)
(1.01342 0.00388592 7.5158e-22)
(1.02102 0.0120109 -4.71105e-23)
(1.01067 0.00346573 6.70711e-22)
(1.03635 0.0181368 3.07277e-21)
(0.805169 0.0917711 1.49411e-23)
(1.00931 0.00171592 0)
(1.02353 0.0128773 -5.29244e-22)
(1.00726 0.000205142 0)
(1.09919 0.171607 -6.22865e-21)
(0.983797 0.0697504 0)
(1.0575 0.0292373 0)
(1.01753 0.0125467 0)
(1.00663 -0.0117533 0)
(1.00007 0.00285754 1.00595e-21)
(1.03626 -0.00196024 9.99657e-22)
(0.641477 0.00972484 0)
(1.00442 -7.22755e-06 -5.73053e-22)
(0.959582 0.0442397 0)
(1.02353 0.0132005 2.24902e-22)
(1.10584 -0.073502 2.44601e-21)
(1.00834 0.00568238 -1.31357e-21)
(1.01139 -0.000113428 0)
(1.01231 -0.000752713 0)
(1.00768 0.170753 4.07445e-21)
(1.01202 -0.000734061 0)
(1.05855 0.0296608 -1.11782e-20)
(1.01655 -0.0104125 -1.38889e-21)
(1.14368 0.0529047 9.91995e-21)
(0.985438 0.00585339 4.63767e-21)
(1.00542 0.000129863 -2.13877e-21)
(1.00691 4.51016e-05 6.46899e-22)
(1.0067 -6.70327e-05 0)
(1.01225 0.00526472 1.62855e-21)
(1.0647 0.0292176 2.22158e-22)
(1.10336 0.108234 5.9142e-21)
(1.09675 -0.0695567 0)
(1.05589 0.0707006 3.76718e-21)
(1.02462 0.00211149 -1.04752e-21)
(1.00966 -0.000225545 -8.82813e-22)
(1.00561 0.0002002 0)
(1.01079 0.00345392 0)
(1.01022 2.94575e-05 0)
(1.02554 0.0113981 4.19328e-22)
(1.06984 0.0643806 0)
(1.01572 0.00818823 9.48037e-22)
(1.05633 -0.0384492 0)
(1.02419 0.00206991 9.18526e-22)
(1.02061 0.00231481 0)
(1.00643 -0.00327922 -6.76743e-22)
(1.01631 0.00300419 0)
(1.12598 0.0399533 5.51609e-21)
(1.05869 0.070912 -8.92873e-21)
(1.00663 0.0632582 0)
(1.13507 0.0785227 -1.4435e-20)
(0.843976 0.00784357 -8.23624e-21)
(1.02348 0.0067545 0)
(1.0099 0.00261325 0)
(1.00965 -0.000194171 -5.47836e-22)
(1.02744 0.00767848 -9.63296e-22)
(1.01399 0.000848767 0)
(1.09861 0.0899674 0)
(1.08349 0.0483682 -2.6669e-21)
(1.11816 0.0666189 1.12808e-20)
(1.01116 -0.00027064 -2.49998e-22)
(1.02141 0.00985178 -2.08029e-22)
(1.01531 -0.000627992 2.09894e-21)
(1.01035 -3.5544e-05 -7.14125e-22)
(0.671582 0.0133529 2.5879e-21)
(0.995146 -0.0102918 0)
(1.00966 -5.65033e-05 -1.95458e-22)
(1.01208 -0.000748258 -6.8488e-22)
(1.00618 -2.07682e-05 8.18697e-22)
(1.01068 0.00355141 7.16861e-22)
(1.00953 0.00142622 1.22207e-21)
(1.01399 -0.00031387 -1.26245e-21)
(1.15496 0.0309851 5.23726e-21)
(1.0118 -0.000777416 -1.24509e-21)
(1.00864 0.00437963 0)
(1.01113 -0.000287952 -7.57468e-22)
(1.0082 8.38305e-05 0)
(1.01058 0.00354537 1.43247e-21)
(1.01755 0.00880247 6.82552e-25)
(1.01869 0.0173741 0)
(1.00819 5.4996e-05 6.3446e-22)
(1.02343 -0.00521383 0)
(1.01133 -6.48544e-06 4.13634e-22)
(1.045 -0.0162234 -1.82951e-22)
(1.17285 0.0670171 1.00909e-20)
(1.01735 0.0127368 -2.68256e-21)
(1.05471 0.0445577 1.3829e-21)
(1.01393 0.00301037 -2.35954e-21)
(1.03264 0.00842835 -4.17382e-21)
(1.09429 0.0673957 0)
(1.02776 0.0527818 0)
(1.01375 0.000653989 0)
(1.00734 -7.31852e-06 0)
(1.00812 -0.000165912 3.70703e-24)
(1.0096 0.00523028 -1.27611e-21)
(1.00378 -7.22922e-05 2.20939e-21)
(1.02434 0.00779582 0)
(1.044 0.00974558 5.07012e-22)
(1.01745 0.00926182 5.05976e-24)
(1.00944 0.00223197 -1.3115e-21)
(1.02149 0.000696732 -4.8202e-22)
(1.12264 -0.0522304 0)
(1.02903 0.0312976 4.93211e-22)
(1.00375 3.85226e-06 3.21941e-23)
(1.00717 -7.12833e-06 0)
(1.00832 0.0152581 -2.1142e-21)
(1.02911 0.0680909 -3.78351e-22)
(1.01223 0.00405164 7.21405e-22)
(1.05571 0.107867 -2.70831e-22)
(1.00742 0.000138984 0)
(1.01038 -0.000460433 0)
(1.03896 0.0283724 3.84703e-21)
(0.929585 -0.0377347 0)
(0.907847 -0.0992559 0)
(1.05675 0.0290814 2.75935e-22)
(1.15378 0.0263007 -1.10089e-20)
(1.01054 -0.000276029 9.12869e-22)
(1.02852 -0.00540515 -1.41208e-21)
(0.946211 -0.00484616 -5.76101e-21)
(1.00601 0.0156771 0)
(1.01208 0.00519078 -3.46175e-22)
(0.944864 0.00210963 5.79031e-21)
(1.00571 -0.000382975 -7.72063e-22)
(1.07654 0.190455 -7.704e-21)
(0.916043 -0.0379024 0)
(1.0065 -0.000164706 1.00589e-21)
(1.01054 -0.000241306 -1.85312e-22)
(1.02179 0.00119309 0)
(1.00936 0.00724305 1.99414e-22)
(1.01071 -0.000277212 4.82357e-24)
(1.04527 0.0442522 -1.48537e-21)
(1.06709 0.0267731 3.11987e-22)
(1.00935 -1.04922e-05 8.09912e-22)
(1.01738 0.00950149 -8.62837e-22)
(1.01822 0.0126173 0)
(1.07104 0.0468892 -3.66944e-21)
(1.01225 0.00560887 0)
(1.01222 -0.000553041 -1.70001e-21)
(1.03182 -0.00528037 -7.98501e-22)
(1.01353 -0.00351519 -8.71229e-22)
(1.01268 -0.000249783 4.99983e-22)
(1.05174 0.0213271 1.46102e-23)
(1.09549 0.105838 -5.25421e-21)
(1.10062 0.0832976 6.25651e-21)
(1.01402 0.000980512 0)
(1.01036 -0.000238702 1.14769e-21)
(1.0096 -1.1098e-05 -1.12551e-21)
(1.01431 0.00257261 0)
(1.02222 0.000169823 -1.15922e-21)
(1.02029 -0.0137312 -6.5061e-22)
(1.0094 0.000997492 -1.3416e-21)
(1.00755 -7.39049e-06 9.7211e-22)
(1.01772 0.00194395 -1.15425e-21)
(1.00888 0.0530436 2.79126e-22)
(1.00864 -0.000238554 -2.12426e-21)
(1.01828 0.000879445 0)
(1.04348 0.107978 0)
(1.00958 0.00129935 -1.46526e-21)
(1.00843 0.000587696 0)
(1.01774 0.00317625 0)
(0.656199 -0.097338 3.0214e-21)
(1.01026 -0.000191837 0)
(1.02099 0.00229255 1.08141e-22)
(1.00876 -0.000257594 -2.13969e-21)