/*--------------------------------*- C++ -*----------------------------------*\
| =========                 |                                                 |
| \\      /  F ield         | OpenFOAM: The Open Source CFD Toolbox           |
|  \\    /   O peration     | Version:  v2012                                 |
|   \\  /    A nd           | Website:  www.openfoam.com                      |
|    \\/     M anipulation  |                                                 |
\*---------------------------------------------------------------------------*/
FoamFile
{
    version     2.0;
    format      ascii;
    class       surfaceVectorField;
    location    "650";
    object      Uf;
}
// * * * * * * * * * * * * * * * * * * * * * * * * * * * * * * * * * * * * * //

dimensions      [0 1 -1 0 0 0 0];


internalField   nonuniform List<vector> 
27284
(
(0.911907 0.183181 -1.52643e-21)
(0.914287 0.172678 -1.45041e-22)
(0.904674 0.1755 -2.4353e-22)
(1.00919 -0.000205987 5.61257e-22)
(1.00931 -0.000223875 -6.68112e-22)
(1.00929 -0.000201055 1.71256e-21)
(1.17357 0.102819 -1.1746e-21)
(1.17234 0.110991 -1.24606e-20)
(1.16604 0.105721 -7.65949e-21)
(1.01017 0.00111986 1.04534e-22)
(1.01021 0.00121949 6.5379e-22)
(1.01028 0.00111959 1.07616e-21)
(0.986661 0.00290592 9.07083e-22)
(0.984731 -0.00118931 7.62277e-22)
(0.989339 -0.00118803 -2.95644e-21)
(0.992051 -0.117572 -3.9654e-23)
(0.980133 -0.113883 5.35364e-23)
(0.984791 -0.129338 -4.52615e-21)
(1.01484 -0.00191734 3.01275e-22)
(1.01458 -0.0016582 0)
(1.01508 -0.00160189 0)
(0.985101 0.00705114 1.08406e-21)
(0.989871 0.00592287 4.0608e-22)
(1.00445 -1.32946e-05 5.73927e-22)
(1.00562 8.74725e-05 -3.32961e-22)
(1.00483 5.21951e-05 -6.04737e-23)
(1.0687 0.0524499 -3.73787e-22)
(1.06285 0.0463611 1.1231e-22)
(1.05781 0.061642 -2.23898e-21)
(1.01481 0.00848345 -8.03642e-22)
(1.01437 0.00925923 -1.71003e-21)
(1.01522 0.0089788 7.43331e-22)
(1.11495 0.0411522 -7.86306e-21)
(1.11366 0.041395 -3.87306e-21)
(1.11451 0.0424745 -3.70122e-21)
(1.1164 0.0410536 -6.75929e-21)
(1.11538 0.0398217 4.56078e-21)
(0.865856 0.100502 -7.42825e-22)
(0.87562 0.112619 0)
(0.882768 0.0947228 0)
(1.00677 0.000104438 4.99239e-22)
(1.00726 0.000102941 0)
(1.00706 8.84658e-05 0)
(1.01001 -0.000182239 -4.28552e-22)
(1.00986 -0.000175368 -5.56342e-22)
(1.01 -0.000155262 -6.37743e-22)
(1.01014 0.00101136 -1.59817e-21)
(1.01006 0.00109939 -8.20497e-22)
(1.01797 0.0111506 2.92728e-23)
(1.01834 0.0113332 -1.00549e-21)
(1.01783 0.0115009 -4.65438e-22)
(1.09224 0.16619 3.34095e-21)
(1.08546 0.170246 1.3311e-21)
(1.08568 0.161928 3.57735e-21)
(1.00849 0.00202833 -4.59967e-22)
(1.00871 0.00249959 1.33504e-21)
(1.00894 0.00192919 0)
(0.780425 0.00356092 -3.93845e-21)
(0.803754 0.00362627 -3.86236e-21)
(0.786758 0.0168152 0)
(1.02298 0.0135555 -2.168e-22)
(1.02255 0.0133062 2.55576e-26)
(1.02256 0.0138827 0)
(1.00812 -0.000160346 -8.79718e-24)
(1.00821 -0.000180933 -1.55584e-21)
(1.00814 -0.000156249 -1.07266e-21)
(1.00362 -0.116901 2.35923e-21)
(1.00093 -0.104524 -1.44784e-22)
(1.00812 -0.000162585 3.45489e-22)
(1.00805 -0.000140276 3.32163e-22)
(1.01193 0.000431898 0)
(1.01186 0.000811568 6.55445e-22)
(1.01225 0.000566238 0)
(1.01465 -0.00218528 -1.51564e-22)
(1.01443 -0.00251503 -1.02431e-22)
(1.01405 -0.00212932 -2.93633e-22)
(1.01046 0.00208532 4.64237e-22)
(1.01059 0.00216648 3.4928e-22)
(1.0105 0.00220615 3.83859e-22)
(1.00283 -2.58295e-05 1.17858e-21)
(1.0042 -2.95468e-05 1.6361e-21)
(1.01603 0.00712727 2.53251e-21)
(1.01535 0.00776083 8.1105e-22)
(1.0163 0.00779717 2.76657e-22)
(0.956942 -0.292553 -4.68125e-21)
(0.946 -0.294285 -1.842e-21)
(0.965041 -0.282088 -3.7677e-21)
(0.977407 0.00278269 -3.2441e-21)
(0.979217 0.00617333 0)
(0.975056 0.00643784 1.16436e-21)
(1.01171 -0.00017473 -1.22962e-22)
(1.01175 -0.000190885 0)
(1.01186 -0.000182206 1.12741e-22)
(1.00941 -8.639e-06 1.70911e-22)
(1.00936 -2.071e-05 -1.05919e-21)
(1.00928 -1.46217e-05 -7.55076e-22)
(1.00627 -7.72046e-05 -7.07371e-24)
(1.00622 -9.05952e-05 6.32587e-23)
(1.00476 -7.64525e-05 0)
(1.00812 0.00417202 6.87214e-22)
(1.00842 0.00433025 -1.29411e-21)
(1.00808 0.00458905 -1.09851e-22)
(1.04699 0.0362209 6.54682e-22)
(1.04819 0.0358296 2.62751e-21)
(1.04701 0.0350667 4.90073e-23)
(1.00814 0.00374447 2.27678e-23)
(1.00772 0.00398703 2.36718e-22)
(1.01676 0.00652359 -8.43287e-22)
(1.01561 0.0063261 2.40452e-21)
(1.01596 0.0105522 -2.80461e-22)
(1.01597 0.0107211 -1.06922e-21)
(1.01582 0.0104968 -8.45111e-22)
(1.01389 0.000219577 -1.90568e-22)
(1.01377 0.000240559 -5.56483e-23)
(1.01219 0.000150052 -2.51283e-22)
(1.01426 0.00785392 2.28616e-22)
(1.00945 -1.8504e-06 1.43203e-22)
(1.00949 3.0261e-06 -1.65369e-22)
(1.00936 7.5427e-07 -5.69069e-22)
(1.00907 -0.000187194 -5.55953e-25)
(1.00896 -0.000169426 5.11478e-22)
(1.00906 -0.000166237 -5.03564e-22)
(1.00909 -0.000210138 1.26819e-21)
(1.11866 0.0165921 -5.7603e-22)
(1.11751 0.0188 -4.73831e-21)
(1.11607 0.0173131 6.58952e-22)
(1.00993 0.00258349 6.1064e-22)
(1.01002 0.00269117 1.24746e-21)
(1.00998 0.00267789 -2.8035e-23)
(1.00984 0.0024757 -3.88931e-23)
(1.00988 0.00249107 -6.47899e-22)
(0.971809 -0.281831 4.48511e-21)
(1.01034 -7.79932e-05 2.90174e-26)
(1.01042 -0.000231424 1.40601e-21)
(1.01038 2.34277e-05 0)
(1.00673 -5.15129e-05 1.0213e-23)
(1.00605 -2.20157e-05 3.24658e-22)
(1.00608 -8.95623e-06 -4.56609e-22)
(0.630352 0.162232 1.7614e-21)
(0.644196 0.15982 1.49616e-21)
(0.641936 0.185488 -1.95379e-21)
(1.01026 -0.000178014 -4.29779e-22)
(1.01026 0.000108135 6.97771e-22)
(1.00557 0.154822 -4.96166e-22)
(1.00824 0.159931 -5.69031e-22)
(1.0125 0.15338 -5.49848e-22)
(1.01607 0.00386458 6.93917e-23)
(1.0161 0.00368453 4.71252e-23)
(1.01585 0.00370785 5.10654e-23)
(1.0082 0.00149866 4.2815e-22)
(1.00782 0.00214923 -4.24257e-22)
(1.00587 -0.000101132 -3.01257e-23)
(1.0049 -4.45828e-05 -2.29524e-22)
(1.00494 -4.73724e-05 3.98485e-22)
(0.878671 -0.312963 2.22249e-22)
(1.01197 0.000116319 -9.42154e-22)
(1.01155 0.000456404 0)
(0.884861 0.00978236 3.53422e-21)
(0.843629 0.00772571 5.40563e-21)
(0.827984 0.0115195 -9.55134e-22)
(1.00954 -3.86818e-06 -1.04357e-22)
(1.10738 0.0586111 -2.94541e-23)
(1.10762 0.0566185 -3.05445e-22)
(1.10546 0.0574396 -2.67312e-21)
(1.00307 0.147744 4.42188e-22)
(0.998272 0.154381 8.30961e-22)
(1.01631 0.00184099 -1.60928e-21)
(1.01625 0.00146337 -7.70318e-22)
(1.01574 0.00153807 -8.12539e-22)
(0.957621 0.0186812 2.27844e-21)
(0.954408 0.0229494 1.96397e-21)
(0.960521 0.0228534 -4.54893e-22)
(1.00655 -6.10395e-05 3.12971e-22)
(1.00725 -7.81184e-05 0)
(1.00704 -8.93647e-05 3.96776e-22)
(1.02236 0.0238876 -2.57655e-22)
(1.02311 0.0238383 -2.52778e-22)
(1.02273 0.0248134 -7.90315e-23)
(1.04593 0.036684 0)
(1.04704 0.0375475 1.23745e-21)
(1.00955 -0.000138766 -1.44958e-22)
(1.0095 -0.000165272 6.72259e-22)
(1.00942 -0.000145152 7.98533e-22)
(1.08419 0.0871642 0)
(1.09242 0.0926887 -7.52066e-22)
(1.08051 0.106327 1.66027e-22)
(1.01086 -0.00035342 -6.51698e-22)
(1.01095 -0.000428773 6.58208e-22)
(1.01079 -0.000312574 -5.52259e-23)
(1.01606 0.00398041 -5.49773e-23)
(1.01628 0.00396958 6.58869e-23)
(0.987963 0.0106477 -1.58162e-21)
(0.987023 0.00772181 -7.05054e-22)
(0.990281 0.00836232 0)
(1.01999 0.0129757 1.40525e-21)
(1.0196 0.0124206 0)
(1.0191 0.0129694 -1.564e-21)
(0.97273 -0.0538392 9.92478e-23)
(0.96184 -0.0550581 -3.02206e-21)
(0.97264 -0.0457069 5.77127e-21)
(1.00962 -8.84636e-05 -7.23841e-25)
(1.00959 -0.000113979 -9.6729e-22)
(1.00949 -9.4396e-05 3.99133e-22)
(0.88598 -0.310623 0)
(0.880491 -0.303302 0)
(1.00967 -6.77426e-05 0)
(1.00977 -8.42131e-05 0)
(1.01076 -0.000276795 -5.33009e-22)
(1.01092 -0.000380707 -9.41746e-22)
(0.975154 -0.0624619 0)
(0.983049 -0.05278 -9.00409e-22)
(1.0215 0.024109 -2.06938e-22)
(1.02189 0.0231468 0)
(1.00715 -0.0679347 -3.42992e-21)
(1.00109 -0.0771172 4.0627e-22)
(0.997764 -0.0670985 9.67015e-22)
(1.00968 -0.00013614 -1.6837e-22)
(1.01784 0.0250934 -4.52135e-23)
(1.01823 0.0259678 9.35486e-23)
(1.01728 0.0259308 9.31381e-23)
(0.99396 0.0655982 1.32286e-21)
(0.994074 0.0690297 -5.02761e-22)
(0.99097 0.0664726 3.58637e-22)
(1.00426 5.81848e-05 2.7046e-22)
(1.00414 -7.26905e-06 -1.52542e-22)
(1.00287 1.06528e-05 3.97052e-22)
(1.00708 0.000284182 -4.89206e-22)
(1.00602 0.000231261 -2.37123e-22)
(1.0058 0.000215836 0)
(1.01359 0.0620555 2.74991e-22)
(1.01582 0.0608847 -2.73027e-23)
(1.01569 0.063663 2.58765e-22)
(1.00935 0.00112573 1.131e-22)
(1.00931 0.00105054 -3.97496e-22)
(1.00927 0.00109887 -1.0749e-21)
(1.01159 0.0602682 -6.13332e-23)
(1.01102 0.0630288 -3.73082e-23)
(0.80404 0.202022 0)
(0.805155 0.231036 0)
(0.83839 -0.0204387 0)
(0.856509 -0.0260433 0)
(0.853244 -0.0102354 0)
(1.01737 -0.0657041 -3.09823e-21)
(1.01566 -0.057898 -4.40188e-22)
(1.01053 -0.000371014 -4.48096e-22)
(1.01048 -0.000497717 1.46538e-21)
(0.980263 0.177213 -3.48347e-22)
(0.998904 0.169794 -6.2412e-21)
(0.981138 0.153973 3.23733e-21)
(1.01381 0.00194784 -6.51993e-23)
(1.01353 0.0021092 1.04942e-21)
(1.01404 0.00251388 1.51974e-21)
(1.00898 0.00123783 0)
(1.00897 0.00126311 0)
(1.00891 0.00117616 -5.89204e-22)
(1.01408 0.00175374 -5.64429e-22)
(1.01366 0.00150633 -9.08713e-22)
(1.06541 0.104122 2.17356e-21)
(1.06458 0.108547 1.02208e-21)
(1.0614 0.104265 -9.59761e-22)
(1.02105 0.0126312 8.03235e-23)
(1.02139 0.0128275 9.80883e-23)
(1.02109 0.0130385 9.26267e-23)
(0.994577 0.0626876 -4.14636e-22)
(0.99761 0.0651472 7.44632e-22)
(1.01064 -0.000208613 -1.16525e-22)
(1.0106 -0.000170277 2.65644e-22)
(1.01064 -0.000463847 -2.06328e-21)
(1.01053 -0.000228822 -1.58081e-21)
(1.01054 -0.000605438 -4.01151e-24)
(1.0106 -0.000654558 5.5506e-24)
(1.0105 -0.000606362 1.13013e-23)
(1.02084 0.0241983 -1.089e-22)
(1.02002 0.0242594 8.91333e-23)
(1.02044 0.0234398 4.53025e-23)
(1.01017 -0.000198428 2.87249e-22)
(1.01003 -0.00021522 3.14844e-22)
(0.954289 0.0143083 -2.6791e-21)
(0.960678 0.0143632 0)
(0.960743 0.181755 -1.44539e-21)
(0.978988 0.199737 5.64211e-21)
(1.03162 0.0511927 -2.16691e-21)
(1.03052 0.0524764 3.21625e-22)
(1.03268 0.0527249 7.95252e-22)
(1.0098 -6.79505e-05 -4.74342e-22)
(1.00991 -4.86805e-05 -1.2851e-22)
(1.00974 -4.56436e-05 0)
(1.00663 -0.000109177 2.63398e-22)
(1.00662 -0.000121894 -2.42665e-22)
(1.00451 -3.36991e-05 -3.35039e-22)
(1.0032 -2.49831e-05 0)
(1.00448 -4.21834e-05 0)
(1.00449 0.00462208 -9.41193e-22)
(1.00263 0.00449569 1.80797e-21)
(1.00422 0.0065274 4.7082e-22)
(1.01748 0.0242036 6.02016e-23)
(1.01834 0.0242815 -1.0073e-22)
(1.13174 0.0110998 -2.94911e-21)
(1.14491 0.013709 -3.77943e-21)
(1.1321 0.0110111 3.36984e-21)
(1.0064 0.0169116 -1.09293e-21)
(1.00714 0.0178813 0)
(1.00761 0.0166768 0)
(1.01054 -0.00015346 4.32394e-22)
(1.01069 -0.000245741 -2.1338e-22)
(0.97754 -0.071686 -5.57239e-22)
(0.963994 -0.0747515 0)
(1.02021 0.0187943 3.43057e-23)
(1.01966 0.0188493 0)
(1.01987 0.0182396 0)
(1.02382 0.0234367 0)
(1.02411 0.0242532 -1.52614e-22)
(1.07227 0.0815229 -1.05284e-24)
(1.08585 0.0722402 0)
(1.17298 0.0961664 1.02362e-20)
(1.18051 0.100523 4.07468e-21)
(0.785735 0.153121 -1.57176e-21)
(1.01078 0.0691357 -1.69474e-22)
(1.00814 0.0707855 1.28521e-22)
(1.01123 0.0727566 -2.78137e-22)
(0.982588 -0.0804473 -2.42365e-22)
(0.986132 -0.0681123 -7.12234e-21)
(1.12421 0.0140631 3.13262e-21)
(1.12212 0.0110546 4.61448e-21)
(1.12595 0.012629 4.5901e-21)
(1.0153 -0.00226339 2.90069e-22)
(1.0101 0.00090487 -5.71474e-23)
(1.0102 0.000922228 -7.22961e-22)
(0.909869 0.193331 -1.34417e-21)
(0.920047 0.1903 -2.31454e-21)
(1.02178 0.0106397 2.50047e-22)
(1.02191 0.010961 2.30516e-23)
(1.02151 0.0108403 1.60792e-22)
(1.009 0.00120616 6.31052e-22)
(1.00905 0.0012955 0)
(0.619978 0.154666 -3.93011e-21)
(0.621082 0.130708 1.28611e-21)
(1.01478 0.00581924 1.71754e-23)
(1.01465 0.00561525 -4.55024e-22)
(1.01487 0.0057411 2.54295e-22)
(1.08998 0.0865237 1.60307e-22)
(1.0931 0.0861299 4.93445e-22)
(1.09121 0.0892103 4.26353e-22)
(0.9483 0.0902748 2.90646e-21)
(0.952772 0.0899348 1.94645e-21)
(0.949938 0.0954441 8.76769e-22)
(1.00935 0.000908145 1.65405e-22)
(1.0094 0.00096677 0)
(1.00945 0.000926665 0)
(1.098 0.16909 -1.70721e-21)
(1.09792 0.16115 -2.09179e-21)
(1.03377 0.111176 0)
(1.0492 0.112926 0)
(1.03886 0.12837 0)
(1.01212 0.000926229 1.91081e-22)
(1.01227 0.000988651 -1.11438e-24)
(1.01218 0.00108892 0)
(0.821371 -0.00747327 -4.38581e-21)
(0.819452 -0.0236194 6.6345e-23)
(1.03671 0.0312666 1.39949e-21)
(1.03725 0.0305307 4.06034e-22)
(1.0376 0.0316909 3.66165e-21)
(1.01171 -0.0306113 -1.34874e-21)
(1.01652 -0.0294405 -1.1073e-21)
(1.01454 -0.0348672 1.25112e-21)
(1.00965 0.00226989 -1.14971e-21)
(1.0096 0.00219164 4.89961e-22)
(1.00958 0.00215871 3.61605e-22)
(0.686225 0.246843 5.44935e-21)
(0.669353 0.236462 1.47812e-21)
(0.945927 0.0843944 -1.14409e-21)
(0.942301 0.0903825 9.33688e-23)
(1.01399 0.000352419 5.0372e-23)
(1.01447 0.000393193 3.59406e-23)
(1.01433 0.000422201 1.4065e-22)
(0.804068 -0.00218219 -7.96588e-22)
(0.794733 -0.00602902 1.3723e-21)
(0.851979 -0.000814015 -1.58104e-21)
(1.01262 -0.00188186 0)
(1.01243 -0.00182143 5.12624e-23)
(1.01248 -0.00180355 0)
(1.00492 0.00249938 -2.30197e-22)
(1.0062 0.0045693 -4.78469e-22)
(1.03215 -0.0491739 -3.92714e-22)
(1.02101 -0.0591661 -1.54392e-22)
(1.02623 -0.0693838 -5.70256e-22)
(1.01041 0.00197577 0)
(1.01033 0.00201282 4.79593e-24)
(1.0245 0.0230984 -4.66274e-22)
(1.0236 0.0227778 -1.69662e-22)
(1.01705 -0.001483 0)
(1.0165 -0.00157154 0)
(1.01648 -0.00119511 0)
(1.02183 -0.0110782 -2.78919e-22)
(1.02049 -0.0127818 5.18322e-23)
(1.01987 -0.0106574 -6.00093e-22)
(1.00962 8.15414e-06 7.8525e-22)
(1.00953 4.97659e-06 1.66841e-22)
(1.00756 -2.99939e-05 5.60384e-22)
(1.00769 -3.60286e-05 -1.86555e-22)
(1.00768 -3.72143e-05 7.9975e-22)
(1.00998 0.000880788 6.75641e-22)
(1.01001 0.000772677 1.2565e-21)
(1.00436 2.41157e-05 1.61946e-21)
(1.00513 -0.000104331 -2.45451e-22)
(1.0097 0.00234359 -1.11624e-21)
(1.0097 0.00232253 -1.46274e-21)
(1.00731 -2.68527e-05 0)
(1.0073 -3.36252e-05 -6.61978e-22)
(1.01758 0.0104274 1.01891e-22)
(1.018 0.0104402 -2.41092e-21)
(1.01787 0.0100595 -4.55788e-22)
(1.01469 0.00588349 2.3479e-23)
(1.01492 0.00601181 1.43736e-22)
(1.00988 -8.96815e-05 1.42494e-22)
(1.00972 -8.43997e-05 -3.67259e-22)
(1.01963 -0.019364 -3.22381e-22)
(1.01688 -0.0208991 0)
(1.01699 -0.0176106 0)
(1.01955 0.0108303 -5.40545e-22)
(1.02014 0.0111713 -1.13746e-21)
(1.02023 0.0104265 -2.56708e-21)
(1.05777 0.0227461 -3.07051e-21)
(1.06383 0.0225475 -5.35543e-25)
(1.06172 0.0144727 9.01186e-23)
(0.809836 0.00300622 -3.79033e-21)
(0.754043 -0.00181845 -3.22739e-21)
(0.882671 0.182272 2.08179e-21)
(0.871498 0.185419 7.99058e-22)
(0.875766 0.173373 -3.07867e-25)
(0.818627 -0.305595 6.51967e-22)
(0.802851 -0.305786 -2.55923e-22)
(0.819594 -0.319518 3.96872e-21)
(1.03601 0.0322059 3.21782e-23)
(1.0357 0.0309498 -8.68731e-22)
(1.00477 -4.67578e-05 0)
(1.00483 -5.02284e-05 1.5585e-22)
(1.00339 -3.49659e-05 0)
(1.08872 0.083176 1.35274e-21)
(1.0864 0.0861323 2.83186e-21)
(1.00445 -1.7465e-05 3.87364e-22)
(1.00448 -3.39903e-05 -2.03442e-22)
(1.00298 -2.36253e-05 -1.23506e-23)
(0.987115 -0.257404 -8.97889e-21)
(0.996956 -0.25987 4.17799e-21)
(1.00546 -9.28668e-05 0)
(1.0055 -9.10166e-05 0)
(1.00411 -4.68264e-05 6.66089e-24)
(1.01338 0.000264754 1.33519e-23)
(1.01319 0.000267309 -1.10644e-22)
(1.00443 -2.27336e-05 -2.7797e-23)
(1.00545 -8.30035e-05 -3.27203e-22)
(1.01114 -0.00106186 4.70801e-23)
(1.01124 -0.00108955 -4.25775e-23)
(1.01125 -0.00112625 -3.81637e-23)
(1.03954 0.0138003 1.79355e-21)
(1.04041 0.0140351 1.88099e-22)
(1.03973 0.0144778 3.36471e-22)
(1.00822 0.0308467 5.54053e-22)
(1.00947 0.0315314 -4.70817e-22)
(1.008 0.0323491 -4.49107e-22)
(1.00418 -1.31991e-05 -1.9894e-22)
(1.00421 -1.74413e-06 -3.09996e-22)
(1.00282 -2.08208e-05 -8.27144e-22)
(1.05301 0.0216961 1.07724e-21)
(1.05346 0.0296912 1.98878e-21)
(1.02243 0.0125154 -5.2268e-23)
(1.022 0.0123442 -2.00842e-22)
(1.0223 0.0120574 -2.08704e-22)
(1.01073 0.00261819 1.56795e-21)
(1.01085 0.00270794 3.49116e-22)
(1.01081 0.00257972 6.34964e-22)
(1.05022 0.00834656 1.0277e-21)
(1.04602 0.00833625 7.92417e-23)
(1.04817 0.00342895 4.13224e-22)
(1.01076 -0.000553045 2.46018e-22)
(1.01078 -0.000706087 5.53728e-22)
(1.0049 1.02772e-05 1.12814e-21)
(1.00443 -4.1577e-05 3.52073e-22)
(1.00565 3.36038e-05 -6.65984e-22)
(1.00977 0.0582064 5.60977e-24)
(1.00718 0.0588661 -3.20405e-23)
(1.00803 0.0561552 5.49137e-23)
(1.01619 0.0011897 -2.56404e-23)
(1.01616 0.00106632 -1.49535e-23)
(1.01601 0.00113216 -1.3642e-23)
(1.01487 -0.00293218 -6.69298e-22)
(1.01423 -0.00278415 -2.22862e-22)
(1.12119 0.0155056 -3.52624e-21)
(1.12341 0.016841 -4.63032e-21)
(1.0669 0.10034 1.06613e-21)
(1.06935 0.104728 3.00065e-21)
(1.00948 -0.000295768 -2.17007e-22)
(1.00935 -0.000274497 -7.19901e-22)
(1.00937 -0.00030007 6.36432e-23)
(1.01065 -0.000325905 1.87102e-22)
(1.01071 -0.000293586 0)
(1.0108 -0.000310534 0)
(1.01547 0.000251863 -1.04243e-22)
(1.01537 0.000216319 1.27029e-22)
(1.01549 0.000198233 1.77281e-22)
(1.12655 0.0123975 1.21549e-21)
(1.15011 0.0198919 -3.411e-21)
(1.13509 0.0146295 -4.19089e-21)
(1.00726 -2.98129e-05 -3.75119e-22)
(1.00722 -5.94751e-05 2.97484e-22)
(0.88511 0.21277 5.20812e-22)
(0.88743 0.201599 -1.33473e-21)
(0.875825 0.20554 -2.32481e-21)
(1.00933 -0.000249207 -1.6715e-21)
(1.00945 -0.000244322 -6.86516e-22)
(0.841137 0.104242 -3.74477e-22)
(0.854827 0.0854049 1.06545e-21)
(1.01088 -0.00059999 -1.36098e-22)
(1.01072 -0.000404399 -1.73835e-22)
(1.01541 0.0125567 -1.02418e-21)
(1.01583 0.0124938 2.55569e-22)
(1.01547 0.0121736 1.2541e-21)
(1.01772 0.00593398 1.28956e-21)
(1.01779 0.00676199 3.18022e-22)
(1.00429 -4.11712e-05 -4.43991e-22)
(1.00467 -1.78852e-05 -1.99233e-22)
(1.00547 1.63199e-05 3.10353e-22)
(0.893951 0.178601 5.81905e-22)
(0.890395 0.190712 -3.3499e-22)
(1.02202 0.00931614 0)
(1.02217 0.00906845 -6.44105e-23)
(1.02242 0.00935366 1.87194e-22)
(0.829696 -0.296951 0)
(0.818519 -0.289719 4.41341e-22)
(1.01066 0.00262425 -5.59871e-22)
(1.01064 0.00250548 2.77416e-22)
(1.01163 -0.000129602 4.31725e-22)
(1.01148 -0.000115249 -8.26067e-22)
(1.0116 -0.000101072 -7.92838e-22)
(1.01575 -0.0023447 -7.9256e-22)
(1.01522 -0.00223972 4.82647e-23)
(1.01541 -0.00197753 -7.72407e-22)
(1.01799 0.0100047 1.67158e-22)
(1.01793 0.00973965 -1.48694e-22)
(1.01775 0.00983009 -2.24121e-22)
(1.04752 -0.0552198 -5.5488e-21)
(1.04049 -0.066048 5.97954e-22)
(1.0377 -0.0602873 1.93562e-21)
(1.01941 -0.000238976 3.12388e-22)
(1.02 0.000419722 -4.02135e-22)
(1.02039 -0.000411194 -4.18776e-22)
(1.01881 -0.000675997 9.44857e-22)
(1.01847 -5.74133e-05 6.92045e-22)
(1.01275 -0.0019818 3.05063e-23)
(1.01282 -0.00195026 0)
(1.00679 -0.220583 -1.19573e-20)
(0.972218 -0.246029 -8.93959e-21)
(1.00705 0.0296486 -3.61941e-22)
(1.00847 0.0291638 8.99544e-22)
(1.04789 0.027595 -1.28808e-21)
(1.04718 0.0268409 -3.3294e-21)
(1.04693 0.0278273 -1.60731e-22)
(1.02183 0.00958451 2.50066e-22)
(1.02162 0.0098084 4.17492e-22)
(1.02206 0.00988583 2.88369e-22)
(1.00992 0.00264246 -2.24216e-22)
(1.0099 0.00262674 1.79105e-22)
(1.00998 0.00274048 -6.84227e-22)
(1.0329 0.0496998 -6.47016e-22)
(1.03072 0.04958 -1.61161e-22)
(1.0104 -0.000449322 1.97874e-23)
(1.01036 -0.000455731 -3.42196e-22)
(1.01027 -0.00044431 2.06492e-22)
(1.02024 0.0606564 -6.63051e-22)
(1.01816 0.0594927 -5.67455e-22)
(1.0202 0.0580478 -3.52906e-22)
(1.013 -0.0079113 -3.68621e-22)
(1.01414 -0.00921703 -8.56704e-22)
(1.01449 -0.00748344 1.24549e-22)
(1.02975 0.0256597 -3.47106e-22)
(1.03347 0.0294178 5.93272e-22)
(1.02681 0.0293497 7.53182e-22)
(1.01831 0.00332176 -1.13689e-21)
(1.01817 0.00238333 8.59715e-22)
(1.01943 0.00316422 2.59987e-22)
(1.01044 -0.000439805 3.64208e-22)
(1.01047 -0.000425329 0)
(1.01033 -0.000424895 0)
(1.02047 0.107527 2.95748e-22)
(1.02946 0.0962898 -2.49685e-22)
(0.928506 0.150006 1.32362e-22)
(0.919036 0.152675 2.22061e-21)
(0.921119 0.143146 -1.43504e-22)
(0.993073 0.0199248 -1.01696e-24)
(0.991714 0.017861 -1.09126e-21)
(0.994384 0.017734 -3.21645e-22)
(1.01459 -7.67031e-05 -1.63535e-22)
(1.01418 -0.000214114 6.53717e-22)
(1.0143 3.84187e-06 3.56542e-22)
(1.02121 0.0249414 2.38667e-22)
(1.06583 0.0186754 1.26309e-21)
(1.06027 0.0272559 -4.05276e-22)
(1.06613 0.0301118 2.8746e-21)
(1.01053 -0.000454773 7.2311e-22)
(1.02221 -0.0178587 -6.61542e-22)
(1.02364 -0.0213847 3.73362e-22)
(1.02694 0.02254 -1.97792e-21)
(1.03204 0.0215985 -9.69147e-22)
(1.03361 0.00996422 7.86863e-22)
(1.03361 0.0093469 -1.13823e-21)
(1.03299 0.00963169 8.64476e-22)
(1.1193 0.0138183 -1.01352e-21)
(1.05387 0.0198745 -6.7585e-21)
(1.05488 0.0199524 -2.26657e-21)
(1.05418 0.0189831 -2.16076e-21)
(1.01822 -0.00103851 9.75678e-22)
(1.01899 -0.00137911 -5.86731e-22)
(1.0097 -0.000289648 -9.32501e-22)
(1.00958 -0.000293806 -1.93439e-22)
(1.00958 -0.000267906 3.05101e-22)
(1.03874 0.0136765 -1.63728e-21)
(1.03936 0.0131684 1.90973e-21)
(1.0176 -0.00127428 4.73684e-22)
(1.01746 -0.000771117 1.08865e-22)
(0.99435 0.02173 -6.03748e-22)
(0.99591 0.0234398 -1.00933e-21)
(0.996925 0.0213092 -1.09348e-21)
(1.02157 0.00929431 0)
(1.01614 0.00352984 0)
(1.01618 0.00337306 0)
(1.01593 0.00338353 0)
(1.01 0.00248746 6.00077e-23)
(1.00996 0.00249419 -1.28296e-22)
(1.00991 0.00238967 1.13229e-23)
(1.05102 -0.045228 -1.58749e-21)
(1.05612 -0.0464354 -5.23972e-22)
(1.03178 -0.0792407 9.77469e-23)
(1.02321 -0.0901045 -2.10575e-21)
(1.02118 -0.0804687 -4.18856e-24)
(1.01131 -0.00067795 5.40966e-22)
(1.01144 -0.000802197 6.98737e-22)
(1.01154 -0.000791001 5.03105e-22)
(1.01635 0.00228984 -2.90097e-22)
(1.01698 0.00225255 -5.1798e-22)
(1.0426 -0.0722023 -5.60562e-21)
(1.1439 0.0710074 7.22846e-21)
(1.1469 0.0683659 4.4113e-21)
(1.14232 0.0673067 -6.29534e-21)
(1.01136 -0.00818363 1.15112e-22)
(1.01236 -0.00662975 3.97992e-22)
(1.01105 -0.00099057 5.01769e-23)
(1.01104 -0.00102283 4.1091e-23)
(1.01977 -0.0133653 7.94909e-22)
(1.02285 -0.0146285 8.69846e-22)
(1.02111 -0.0112707 8.80301e-22)
(1.05365 0.0209366 3.12805e-23)
(1.05297 0.0199728 4.88433e-22)
(1.01357 0.000574924 -9.16504e-24)
(1.0129 0.000456405 -1.12743e-22)
(1.01322 0.000562802 -1.26788e-22)
(1.01716 0.00344015 -4.43945e-22)
(1.01808 0.00442207 -1.46598e-21)
(1.00872 0.000797113 -6.64305e-22)
(1.00876 0.000850122 -6.15701e-22)
(1.00869 0.000812151 -3.18878e-22)
(1.04103 -0.0413213 1.01902e-21)
(1.03756 -0.0277249 4.96575e-22)
(0.987108 0.00669846 -7.47998e-22)
(0.983309 0.0029047 -7.71805e-22)
(0.98313 0.0091888 0)
(1.0662 0.0972317 -2.44981e-21)
(1.06663 0.0937029 -2.68147e-21)
(1.06285 0.0961289 -2.93708e-21)
(1.06493 0.0310928 -3.36531e-22)
(1.06546 0.0318697 -3.44419e-21)
(1.06617 0.030931 4.66463e-21)
(1.01748 0.00497065 7.71894e-22)
(1.01868 0.00546125 1.21331e-21)
(1.03556 -0.0114026 -4.75469e-22)
(1.03454 -0.0155222 0)
(1.0315 -0.0123344 0)
(1.00659 -0.0229734 -6.13523e-22)
(1.00909 -0.0265653 -7.52593e-22)
(1.01028 -0.0224192 7.79186e-22)
(1.06393 0.112564 3.97526e-21)
(1.05992 0.113639 1.56607e-21)
(1.06327 0.117613 3.35764e-21)
(1.00868 0.000749721 -6.4293e-23)
(1.00875 0.000783238 2.33455e-23)
(1.01635 0.00367589 0)
(1.01371 -0.00345509 -1.47262e-21)
(1.01439 -0.00367066 -1.93258e-22)
(1.01398 -0.00312241 -6.33412e-22)
(1.00994 -1.67224e-05 -3.03854e-22)
(1.00999 -3.42205e-05 -4.13866e-22)
(1.01009 -1.8169e-05 1.31356e-22)
(1.01492 0.0125868 -6.09701e-22)
(1.01529 0.012972 -1.03734e-21)
(1.04856 0.0283359 -8.73979e-22)
(1.04885 0.0273176 -3.85099e-21)
(1.00989 0.00173963 9.55193e-22)
(1.01001 0.00180653 8.16699e-24)
(1.00996 0.00169634 6.76244e-22)
(1.01864 0.00995886 -9.94474e-23)
(1.01883 0.00983784 -1.00457e-22)
(1.01889 0.0101313 -1.2487e-23)
(1.02089 0.0262842 1.1021e-21)
(1.02152 0.0243368 -5.80676e-22)
(1.01895 0.0251708 -1.94415e-21)
(1.00931 0.000853536 2.86338e-24)
(1.00927 0.000887782 -8.73202e-24)
(0.984789 0.100388 -1.31853e-21)
(0.985153 0.105094 3.20632e-22)
(0.980687 0.102508 -5.59101e-22)
(0.994566 0.0729903 -1.93961e-21)
(0.966404 0.125663 2.50709e-20)
(1.02178 0.0223396 0)
(1.02173 0.0206227 -1.76456e-22)
(1.01985 0.0216465 0)
(1.01824 0.0101891 1.86396e-22)
(1.01804 0.0102853 1.87753e-22)
(1.00514 0.0145584 0)
(1.00579 0.0158556 -1.14915e-21)
(1.00643 0.0144518 7.46099e-22)
(1.0098 -1.74847e-05 0)
(1.0099 -4.67082e-06 -8.52235e-22)
(1.02048 0.0629807 2.38746e-22)
(1.02072 0.0658935 -4.49986e-22)
(1.01809 0.0648882 0)
(1.02223 0.00817979 2.69291e-22)
(1.02186 0.00817363 3.42613e-22)
(1.02198 0.00788713 7.38427e-23)
(1.00538 0.029418 -1.16282e-21)
(1.0034 0.0292765 2.06041e-22)
(1.00451 0.0310596 4.90735e-22)
(1.01453 0.000301767 9.5364e-23)
(1.01377 0.000205467 -2.50199e-23)
(1.00619 0.0281902 -7.04839e-22)
(0.917561 -0.0669702 4.70395e-21)
(0.910726 -0.0995408 -1.63354e-21)
(1.01167 -0.000155008 1.01507e-21)
(1.01155 -0.00016677 3.44888e-22)
(1.07063 0.0596483 3.22251e-21)
(1.07099 0.0578386 3.54681e-21)
(1.07249 0.0594649 5.47431e-21)
(1.0219 0.0186406 1.59409e-23)
(1.02168 0.0192592 1.85548e-22)
(1.02133 0.0186481 2.68039e-23)
(1.01385 0.00348891 2.92144e-22)
(1.01322 0.00394461 0)
(1.01419 0.00456342 -3.16652e-22)
(1.00259 -0.0231993 6.10329e-22)
(1.00497 -0.0196233 -4.47904e-22)
(1.00638 8.79699e-05 6.06543e-22)
(1.00604 6.77624e-05 -6.6821e-22)
(1.0106 -0.000356217 4.0472e-24)
(1.0105 -0.00033758 -2.0514e-22)
(0.988964 0.0981502 -1.14256e-21)
(0.984672 0.0959164 -5.89723e-22)
(1.01844 0.0100859 0)
(1.01839 0.00979065 -9.21814e-24)
(1.00696 -0.0317673 -3.65803e-21)
(1.04934 0.0354492 1.10643e-21)
(1.04949 0.0342626 -3.35092e-21)
(1.05063 0.0350471 2.72421e-22)
(0.911487 0.267652 -3.567e-21)
(1.02835 0.0682131 0)
(1.02609 0.0700198 5.75488e-22)
(1.02586 0.0670106 4.10705e-22)
(1.07016 0.0977254 0)
(1.01702 0.0120756 6.30921e-22)
(1.01713 0.0124664 -9.59438e-22)
(1.01663 0.0122339 -3.64811e-22)
(1.01999 0.0285363 -6.25758e-22)
(1.02299 0.0275293 1.66805e-21)
(1.01032 0.000337165 3.88969e-22)
(1.01033 0.000326027 -2.34515e-22)
(1.01034 0.000188082 -7.15699e-22)
(1.05107 0.0168788 -3.96952e-22)
(1.05032 0.0174157 -6.57031e-21)
(1.05026 0.0163755 4.52125e-21)
(1.0645 0.0298396 7.50939e-22)
(1.06362 0.0308893 8.46396e-22)
(1.0706 0.0617191 -2.49491e-21)
(1.06897 0.0601192 -8.10829e-22)
(1.04364 0.0260027 1.01129e-23)
(1.04837 0.0220607 -1.64017e-22)
(1.04303 0.0191834 2.86972e-21)
(1.21007 0.101439 4.06003e-21)
(1.2135 0.110677 -2.73067e-21)
(1.20489 0.106487 2.2232e-21)
(1.01049 0.00350197 1.99085e-22)
(1.01055 0.00359371 -5.10611e-22)
(1.01046 0.00349293 4.30849e-22)
(1.00454 0.000828912 -5.00576e-22)
(1.00374 0.00162576 -8.64239e-22)
(1.00349 0.000494603 6.71121e-22)
(1.00143 0.142066 0)
(0.999825 0.136127 0)
(0.995197 0.140621 9.92758e-24)
(1.00445 0.0136039 -4.431e-22)
(1.00377 0.0150088 1.57875e-21)
(1.01053 0.0035017 -1.04696e-21)
(1.01043 0.00339541 -3.65947e-22)
(1.0098 0.00245261 6.66501e-22)
(1.00975 0.00236457 -2.3724e-22)
(1.0102 0.00243218 -3.90832e-22)
(1.01014 0.00244924 8.35603e-22)
(1.0101 0.00233484 1.45267e-22)
(1.08606 0.0456464 -4.46712e-21)
(1.08688 0.0445393 -7.32037e-21)
(1.0875 0.045896 -9.62413e-21)
(1.20898 0.0986396 -1.08132e-20)
(1.20511 0.0901971 3.95498e-21)
(1.05256 0.119866 1.74776e-20)
(1.07072 0.14143 7.09295e-21)
(1.10675 0.146002 1.84046e-20)
(1.03775 0.0285727 2.26403e-21)
(1.04231 0.0331524 1.77844e-22)
(1.02376 0.0231162 0)
(1.03792 0.0295773 1.36389e-21)
(1.03861 0.0288628 1.27019e-21)
(1.03886 0.0302372 8.85369e-22)
(1.04664 -0.0390482 5.7677e-23)
(1.0534 -0.037113 0)
(1.05173 -0.029531 0)
(1.01227 -0.00176795 2.44202e-23)
(1.01213 -0.00169293 -2.43601e-23)
(1.01209 -0.00171581 1.8995e-24)
(1.02192 0.00877287 1.53772e-22)
(1.02233 0.00877184 1.45347e-23)
(1.03692 0.0291537 -7.73513e-22)
(1.01819 0.00558614 -1.63929e-23)
(1.01846 0.00560274 -5.88707e-23)
(1.01836 0.00581258 -9.72473e-24)
(0.9918 0.0220705 1.51626e-21)
(1.00606 -5.79937e-05 -5.96478e-24)
(1.00724 -0.000116979 -2.60013e-23)
(1.10251 -0.0329058 -2.2471e-21)
(1.10088 -0.0569755 3.42165e-21)
(1.10648 -0.0404114 -1.46226e-21)
(1.01037 -0.000229326 2.26126e-23)
(1.01032 -0.000203781 -2.60648e-23)
(1.01048 -0.000208198 -2.60176e-22)
(0.981255 -0.0905915 -2.97751e-22)
(0.993478 -0.0843883 2.63506e-22)
(1.01475 0.000622021 0)
(1.01486 0.00070297 -1.30566e-23)
(1.0147 0.000680149 -1.29506e-22)
(1.01611 0.0105905 9.40766e-22)
(1.01592 0.0103404 4.81498e-22)
(1.01727 0.0129343 -5.10226e-22)
(1.01679 0.0131549 -2.64487e-22)
(1.01741 0.0134764 -9.20234e-22)
(1.12444 0.0427334 -1.59372e-21)
(1.12224 0.042961 -4.39768e-21)
(1.12334 0.0449041 5.74078e-21)
(0.852973 0.17918 -1.26901e-21)
(0.860379 0.188754 -1.51911e-21)
(0.848389 0.19195 -2.57481e-22)
(0.997415 0.0248221 9.62108e-22)
(0.994987 0.0253973 -1.21002e-21)
(1.03226 0.0294134 -1.75153e-22)
(1.03351 0.0240214 -1.68453e-22)
(1.01832 0.012623 0)
(1.01831 0.0123043 -1.19895e-22)
(1.01856 0.0126161 -2.13125e-22)
(1.00944 0.00114892 4.78411e-22)
(1.00939 0.00120488 1.24279e-21)
(1.01792 0.00555837 -1.82771e-23)
(1.01801 0.00535698 1.53437e-24)
(1.01433 0.00659929 0)
(1.01503 0.00772164 0)
(1.01366 0.00726969 0)
(1.07803 0.0418938 6.52993e-23)
(1.07286 0.0625908 -1.53953e-22)
(1.00952 0.00138535 8.21738e-23)
(1.00954 0.00131386 4.03944e-23)
(1.00945 0.00129368 -1.69745e-22)
(1.011 0.000676163 3.32472e-23)
(1.01033 0.000530694 -3.54689e-22)
(1.01112 0.00065308 5.05081e-22)
(1.04713 -0.0173862 -2.55193e-22)
(1.05111 -0.0139866 8.54338e-23)
(1.0487 -0.0235844 -3.69602e-22)
(1.01904 0.012419 6.20731e-23)
(1.01931 0.0126709 6.26663e-23)
(1.01929 0.0123091 -3.89266e-24)
(1.00957 0.00126043 6.52885e-22)
(1.00953 0.00117666 -2.00204e-22)
(1.00962 0.00120483 6.55309e-22)
(1.13937 0.0558055 -9.88633e-21)
(1.14142 0.0530208 4.96238e-21)
(1.13794 0.0526238 -5.66717e-23)
(1.01396 0.00582192 0)
(1.01502 0.0059888 0)
(1.0101 0.00246533 9.22638e-23)
(1.01005 0.0024774 1.81942e-22)
(1.01 0.00236768 -6.20214e-22)
(1.01385 -0.000583087 -2.29854e-22)
(1.01404 -0.000402259 0)
(1.0143 -0.000538853 -3.95139e-22)
(1.0021 0.0281757 -2.48306e-23)
(1.00154 0.0300727 2.73029e-23)
(1.01227 0.000579905 1.81384e-22)
(1.01127 0.00051044 6.43296e-23)
(1.01129 0.000511171 1.65516e-22)
(1.00055 0.0271993 -1.3135e-22)
(1.00257 0.0264526 -1.94404e-22)
(1.01136 -0.00061294 -2.36874e-23)
(1.01138 -0.000605871 1.21855e-23)