/*--------------------------------*- C++ -*----------------------------------*\
| =========                 |                                                 |
| \\      /  F ield         | OpenFOAM: The Open Source CFD Toolbox           |
|  \\    /   O peration     | Version:  v2012                                 |
|   \\  /    A nd           | Website:  www.openfoam.com                      |
|    \\/     M anipulation  |                                                 |
\*---------------------------------------------------------------------------*/
FoamFile
{
    version     2.0;
    format      ascii;
    class       surfaceScalarField;
    location    "700";
    object      phi;
}
// * * * * * * * * * * * * * * * * * * * * * * * * * * * * * * * * * * * * * //

dimensions      [0 3 -1 0 0 0 0];
oriented        oriented;


internalField   nonuniform List<scalar> 
27274
(
0.13154
0.0319037
-0.163444
0.00594196
-0.00429206
-0.0016499
0.228542
-0.309935
0.081392
-0.319429
0.516715
-0.197291
0.289412
-0.243531
-0.0458814
0.135418
-0.126744
-0.00867451
0.360418
-0.417192
0.0567706
-0.167028
0.0806442
0.0863832
-0.143293
0.153249
-0.000308737
0.000911483
-0.000602746
0.433385
-0.212287
-0.221101
-0.00902324
0.0102363
-0.00121303
-0.0368516
0.094643
-0.0577914
0.217299
0.0940498
-0.311349
-0.0583609
0.283757
-0.225397
0.0349259
0.147542
-0.182468
-0.00850369
-0.00261967
0.0111234
0.0411905
0.247509
-0.288702
-0.296
0.249175
0.0468241
0.0603178
-0.0444104
-0.0159074
-0.118274
0.165042
-0.0467676
-0.0370622
-0.144443
0.181505
-0.00107405
-0.00352292
0.00459696
0.256409
0.0330021
-0.223648
-0.0253717
0.372828
0.0383864
-0.411216
-0.422247
0.171263
-0.156487
0.165068
-0.00858185
-0.00794926
0.000444635
0.00750463
-0.214667
-0.0590073
0.273674
0.139889
-0.26865
0.12876
-0.272424
0.110146
0.162277
-0.291534
0.332721
0.208798
-0.528587
0.319779
-0.0511948
-0.0801101
0.131305
0.166535
-0.0349955
-0.215757
0.0826646
0.0662608
-0.110518
0.0442573
-0.200097
0.04361
0.41971
-0.309545
-0.110167
-0.0244374
0.241736
-0.0975017
0.0717225
0.0257792
0.308829
-0.080288
0.00448321
-0.00161154
-0.00287167
-0.524055
0.362595
0.161451
0.0824386
-0.0161778
-0.127335
0.15218
-0.0248452
0.063223
0.106053
-0.169276
0.12935
-0.154564
0.0252141
-0.478902
0.210437
0.268463
-0.416068
0.0847417
0.331323
0.188705
0.128403
-0.317109
0.28598
0.171771
-0.457751
0.00815222
-0.0158932
0.00774096
-0.0803431
0.384133
-0.303791
-0.460844
0.486666
-0.0258275
0.0728319
-0.123857
0.0510252
-0.197212
0.138851
-0.0231905
0.0146698
0.00852071
-0.0476361
0.118761
-0.071125
-0.240809
-0.238096
0.146743
-0.156128
0.00938532
0.0621412
-0.354808
0.292664
-0.00597477
-0.117851
0.123826
-0.000302865
-0.00872038
-0.141944
0.173848
-0.00882193
0.00730698
0.00151495
-0.119095
0.123943
-0.00484827
-0.237788
0.16213
-0.199192
-0.138023
0.104937
0.0330864
0.560038
-0.320072
-0.239967
-0.105601
0.0579648
0.400166
-0.28332
-0.116849
-0.0866042
-0.0804233
0.0625164
0.297899
0.0420124
-0.0235977
-0.0184147
0.284881
-0.245566
-0.0393151
0.0264798
0.15844
-0.18492
0.182539
0.156723
-0.339264
-0.338567
-0.078628
0.0708422
0.0151378
-0.0859799
-0.171682
0.0534074
-0.125965
0.0103946
0.11557
0.0557708
0.317056
-0.0924049
0.0555533
-0.00110411
0.0156431
-0.014539
0.0355292
0.0247886
-0.00944967
0.00150041
0.0077026
0.00513526
-0.0128379
-0.0608366
0.114037
-0.0531999
-0.440313
-0.0837542
0.480247
-0.165286
-0.314962
-0.297471
-0.119558
0.417024
-0.00996057
0.00996057
-0.00262143
0.00154739
-0.360435
0.245498
0.114935
0.213529
-0.216643
0.00311337
0.0130907
-0.00493848
-0.00745596
0.00858176
-0.00112581
-0.00995441
0.0114092
-0.00145483
0.010626
-0.00819158
-0.00243441
-0.176252
0.121248
0.0550044
-0.0893103
0.0523682
0.0369421
0.303333
-0.222721
-0.0806125
-0.0662903
0.117278
-0.0509875
-0.0115557
0.0118157
-0.000259923
-0.0272537
-0.0626795
0.0899332
-0.00390222
-0.117822
0.121724
-0.0375885
0.0172556
-0.317487
0.113302
0.204184
0.159652
-0.207788
0.0481352
-0.435492
0.0648656
0.370626
-0.0139148
0.173567
0.00884735
0.00693778
-0.0157851
-0.411082
0.54885
-0.137774
-0.0104144
0.0119728
-0.00155844
0.0200987
0.0219136
-0.0147031
0.014284
0.000419121
-0.14657
-0.0296818
-0.00111788
0.000809142
0.0425092
0.0467744
-0.0892836
0.2104
0.0744811
-0.102709
-0.035314
-0.141856
-0.21858
-0.0898819
0.0626281
-0.153624
0.342327
0.280158
0.195165
-0.475323
0.0412477
-0.0834231
0.0421754
-0.413383
0.115907
-0.306649
-0.109423
0.0787276
-0.067885
-0.0108427
-0.0227801
0.130555
-0.107775
0.192151
0.0213782
0.0791708
-0.109718
0.0305475
-0.172004
0.452161
-0.1936
0.00901915
0.18458
0.274587
0.158796
-0.216857
-0.0496151
0.266472
0.0596523
-0.122853
0.0632009
-0.00094611
-0.0090083
0.00581602
0.0027165
-0.00853252
-0.215538
-0.0398293
0.255367
-0.267028
-0.0504592
-0.0253656
0.0203739
0.00499174
0.258548
-0.108529
-0.150019
-0.157661
0.0433478
0.114313
0.0135425
0.00140458
-0.0149471
-0.130374
0.209321
-0.0789469
0.016058
-0.00251541
-0.141364
-0.121022
0.262385
0.114105
0.041853
-0.0930479
-0.015344
-0.0078465
0.106633
-0.13216
0.0255271
0.0346788
0.42512
-0.459799
0.0641455
0.0145822
-0.00449979
-0.0102033
0.34997
-0.315291
-0.149119
0.0396931
0.109426
0.00611036
-0.123264
0.117154
-0.0308355
0.191366
-0.160531
-0.138325
0.0176816
0.120643
0.220064
-0.0279139
-0.0457718
0.099191
-0.0534193
0.0300652
0.0107513
-0.0408165
-0.00559127
0.0113529
-0.00576162
-0.176117
0.145611
0.0305053
0.114537
-0.0521699
-0.0623672
-0.344884
0.320808
0.0240742
-0.00214807
-0.00140307
0.00355115
-0.000119567
-0.000406924
0.000526491
3.97754e-05
-0.380478
0.380434
-0.368736
-0.0192649
0.387998
-0.158107
0.193032
-0.00140208
0.00637889
-0.00497681
0.138963
-0.147324
0.00836127
-0.36161
0.0231613
0.338448
0.0938828
-0.0526351
-0.0100254
-0.0131078
0.0231331
0.0433023
0.0122774
-0.0555796
0.0619965
0.0525405
0.19944
-0.201012
0.00157166
-0.442385
0.369594
0.0727872
0.101688
-0.0496338
-0.0520546
-0.00426085
0.00930959
-0.00504874
-0.00223615
0.0108606
-0.00862443
-0.0361652
0.106658
-0.0704926
-0.031449
-0.134825
0.166274
-0.0112451
0.00274144
-0.0338812
-0.184678
-0.140479
0.325155
0.190084
0.02998
-0.037208
-0.0321193
0.0693273
0.111024
-0.0743999
-0.0366245
-0.28402
0.127861
0.156158
-0.101536
0.0354109
0.0661252
0.17779
0.0216502
0.170228
-0.154142
-0.0160861
-0.3687
-0.273711
0.108228
0.165482
-0.18151
0.0332732
0.148237
-0.00271
0.0061968
-0.0034868
-0.00644089
0.00420474
-0.0106892
0.00242251
0.00826666
0.169975
-0.199861
0.0298854
-0.000390263
-0.0100241
-0.00171159
0.00366743
-0.00195584
-0.000761072
-0.00106821
0.00182928
0.150495
0.0197335
-0.385516
0.191915
0.0824464
-0.22381
-0.0553602
0.0348915
0.0204687
-0.243855
0.0283163
0.0852889
-0.430176
0.0955826
-0.0247405
0.0277934
-0.0795158
0.0517224
-0.019831
-0.366078
-0.0694137
0.0849109
-0.215285
-0.0419358
-0.0497422
0.091678
-0.0286498
-0.273722
0.302371
0.0113881
-0.137353
0.234287
-0.225269
-0.00028092
-0.00531035
0.121287
-0.260211
0.138924
0.00221701
-0.00473666
0.00251965
-0.00563501
-0.00630094
0.0119359
-0.0436466
0.0357319
0.00791477
-0.161025
-0.224491
-0.189944
0.475923
-0.16828
0.19476
-0.152168
-0.013972
0.16614
0.00379246
-0.00157545
-0.144552
-0.0642472
0.208799
0.339803
0.0732427
-0.413046
0.0285151
-0.390126
-0.0515311
-0.0339628
0.0854938
-0.117114
0.0669401
0.0501741
-0.0106892
0.155036
-0.158938
0.0711612
-0.118035
0.0468738
-0.0353364
-0.240633
-0.41591
0.156362
0.259544
0.117718
-0.240466
0.122748
-0.00859334
0.00295833
-0.0451134
0.0827778
-0.0376645
-0.00211404
-0.00333784
0.00545188
0.130744
-0.0241117
-0.140204
0.146314
-0.149399
-0.124312
-0.0273998
-0.00509392
0.0324937
0.204726
-0.0269365
-0.000134914
-0.000626157
-0.285689
0.0617612
0.223928
-0.011061
0.00493843
0.00612256
-0.0826231
0.0532445
0.0293786
-0.0802829
-0.0688358
0.129365
0.124229
-0.253595
-0.488337
0.443431
0.0448987
-0.162953
0.0210086
-0.0254985
0.106802
-0.0813038
-0.0154554
0.0127454
0.103349
-0.126129
0.129604
-0.415813
0.286204
0.27995
-0.381274
0.101321
0.0763378
-0.35224
0.275902
-0.114322
0.0621518
0.0663527
0.0186719
-0.0850246
-0.0468595
0.0445907
0.00226881
-0.235309
0.213194
0.0221145
0.0134431
-0.00708095
-0.00636215
-0.0955279
0.0593628
-0.104644
0.0383536
-0.241858
0.0142654
0.227592
-0.0580259
-0.0435102
-0.160448
0.342986
-0.436367
0.157174
0.279193
-0.0587499
-0.0126059
0.0713558
-0.574263
0.312969
0.261286
0.307672
-0.245157
-0.135405
0.0775719
0.0578335
-0.264417
-0.0485315
0.312947
-0.0033428
0.00897373
-0.00563093
0.173137
0.0315884
-0.177516
0.130655
0.0468607
-0.295881
-0.27839
-0.136522
-0.039595
-0.00422093
-0.00687609
0.011097
-0.0620245
0.0934984
-0.412933
-0.128112
0.283492
-0.15538
0.0617762
-0.110732
0.0489558
0.00496334
-0.00672827
0.00176494
-0.346176
0.422514
0.400864
-0.46218
0.0613154
0.0653011
-0.0375077
-0.159046
0.0883369
0.0707092
-0.100185
0.128918
-0.0287329
-0.0604083
0.0388732
0.0215351
-0.25329
-0.183079
0.0794382
-0.0414391
-0.161265
0.202704
-0.00080398
0.401667
-0.0216538
-0.0387546
-0.0963227
0.0505509
0.0447441
-0.0915276
0.0467835
0.113345
-0.0515687
-0.298858
-0.11453
-0.014707
0.0580093
-0.126597
-0.179373
-0.0894928
-0.206508
-0.0889349
0.0438215
0.339277
-0.113172
-0.226106
-0.0431606
-0.0669885
-0.0305132
0.241178
0.239068
-0.39829
0.122847
0.275439
-0.081263
-0.0367719
0.00988457
-0.00259662
-0.00728794
-0.00130118
-0.000410412
0.255782
-0.0138708
-0.241911
-0.000336188
-0.137989
0.00427115
0.000212056
0.347117
-0.139621
-0.207497
-0.0652406
-0.0518736
0.173154
-0.189504
0.0163497
0.135227
-0.0415232
-0.0937035
-0.103363
0.038122
-0.418555
0.119692
0.0439232
-0.013858
0.179845
0.0996467
-0.279492
-0.0370602
0.116231
0.532999
-0.357403
-0.1756
0.0305591
0.00793011
0.000782413
-0.00871252
-0.391069
-0.0131625
0.404231
0.000189059
-0.0102144
-0.158671
0.182285
-0.0236134
-0.388546
0.23624
0.152305
0.0140433
-0.141379
0.0248256
0.121917
0.0850448
-0.0486217
-0.0364231
-0.00362184
0.0186675
-0.0150456
-0.0782736
0.0410656
-0.0582755
-0.227414
0.257615
-0.195476
0.00104414
0.00121477
-0.00225891
-0.0786326
0.0481425
0.0304901
0.404598
-0.251882
-0.152717
0.170381
0.0302557
-0.200637
-0.0400708
0.084815
0.0668494
0.034839
-0.0363471
0.00894734
0.0043455
-0.00330137
-0.25328
-0.0362716
0.289551
0.238873
-0.20802
-0.0308535
0.00307062
-0.00521137
0.00214075
0.304055
-0.190754
-0.205242
0.0606894
0.0950102
-0.0275978
-0.0674124
-0.154963
0.138344
0.0166191
0.254328
-0.0330486
-0.22128
0.00515484
0.00472973
0.266315
0.211621
-0.477936
0.0831602
-0.0945132
0.011353
0.0449516
-0.0868874
-0.00940812
0.00940812
-0.304809
0.398303
0.270517
-0.163462
-0.107055
-0.35081
0.290634
0.0601764
0.370724
-0.19923
-0.171495
-0.0900269
0.0681418
0.0218851
0.220209
0.150514
-0.0992297
0.149651
-0.0504216
-0.233697
-0.117114
0.0522853
0.135393
-0.187679
0.136509
-0.389789
0.0368485
-0.180141
-0.120408
0.26741
-0.147003
0.0175507
-0.2183
0.200748
0.308502
-0.265731
-0.0427716
0.28447
0.0240311
-0.0242993
-0.164987
0.189286
-0.0479413
0.0110559
0.0368854
0.000367228
-0.00514759
0.00478036
0.0812365
0.15305
-0.0498647
0.0584319
-0.00856718
-0.134585
0.0464942
0.0880908
0.0062424
-0.00587517
-0.148595
-0.0282659
0.176861
0.135154
-0.0790026
-0.0561519
-0.0978807
0.215598
-0.0452989
0.0769028
-0.0316039
-0.12341
-0.436853
0.0257648
-0.01674
0.356542
0.382413
-0.155223
-0.227194
-0.0118689
0.00824703
0.00101228
-0.18414
0.183127
0.457733
-0.0951453
-0.0162845
-0.11626
0.132544
-0.148081
0.0488517
0.130606
0.173448
0.180357
0.166758
-0.00189958
-0.000440491
0.00234007
-0.12189
-0.314073
-0.026081
0.281612
-0.383463
0.101849
-0.00372504
0.001611
0.00683206
-0.00960116
0.00276911
0.0541326
0.0408776
-0.0213298
-0.136331
0.176736
0.00416856
-0.00838949
0.270871
0.289165
-0.234985
-0.107163
0.342147
-0.0155237
-0.0208235
-0.367108
-0.0863848
0.453492
-0.329312
-0.0511681
-0.00372296
-0.00752217
0.298304
0.10186
-0.00116713
0.00909724
0.139066
-0.128609
-0.0104573
-0.140262
0.142627
-0.00236495
-0.00319751
0.0100296
0.0152791
0.179892
-0.195172
-0.335569
0.100583
0.0122064
-0.0366376
0.0244312
0.12326
0.0121585
0.00241603
-0.0460401
-0.0432702
0.346917
-0.209523
-0.137395
-0.343513
-0.0988759
-0.265714
0.157185
-0.0333629
-0.0345895
0.0679524
0.0515646
0.0623934
-0.113958
0.0121316
0.237043
-0.444132
0.388372
0.0557594
-0.222893
-0.0209618
0.0170113
0.0661489
-0.00377309
0.00684371
0.205141
-0.149066
-0.0560759
-0.141772
-0.123942
-0.285163
0.398115
-0.112952
-0.176341
0.0277459
0.108689
-0.0736594
-0.0350296
-0.0022622
0.00722554
-0.00831889
-0.0027421
-0.0562461
0.0580454
-0.00179933
0.0590873
-0.0767226
0.0176352
0.0663357
0.0187688
-0.0851044
0.00101931
-0.00263085
-0.192569
-0.066068
0.258636
-0.405073
0.275492
0.129578
-0.27085
-0.192536
0.273772
-0.0850137
0.0569297
0.028084
0.369208
-0.219776
-0.149433
0.181016
-0.00917658
0.00172063
-0.0363452
0.0533565
0.143394
0.0176954
-0.00999276
0.070705
-0.0116176
-0.00670812
0.00244728
-0.210329
-0.0739434
0.284272
0.164061
0.128169
0.182782
-0.310952
0.109854
-0.448424
0.0113694
-0.455502
-0.475107
-0.406479
0.153189
0.00186014
0.00721386
-0.009074
0.0564494
0.199332
0.395903
-0.281045
-0.114862
-0.0486562
0.0911654
0.12315
-0.0848793
-0.0382709
-0.31884
-0.0862356
0.154392
-0.236335
0.0819431
-0.0989319
0.0225841
0.0763478
0.00775684
-0.0665067
0.0237907
-0.181897
0.0573733
0.214345
-0.27172
0.0390047
-0.196976
0.0154657
-0.0124044
0.013287
-0.000882585
-0.0357738
-0.400883
0.201652
-0.000114263
0.00657291
-0.00645865
0.068889
0.0542612
0.106674
0.266089
-0.372767
0.00156563
-0.00165469
8.90585e-05
-0.0071136
-0.00168956
0.00880316
0.000315473
0.00157058
-0.00188605
-0.195745
-0.20514
0.267208
-0.209835
0.00435599
-0.156524
-0.102993
0.111447
-0.00845364
-0.13647
-0.0804159
0.216886
0.00257682
0.0108663
-0.073032
0.0396691
0.0190468
-0.0689115
-0.0291076
0.0885061
-0.0593985
0.137218
0.245191
0.0151339
0.123932
-0.00873065
-0.000576576
0.00930723
-0.002741
0.0119418
-0.0294286
0.0174869
0.211815
-0.277617
0.0658023
0.125723
0.0374554
-0.163178
0.0327548
-0.156019
-0.00206825
0.0016332
0.000435056
0.00597985
0.00464614
-0.0900984
0.0292618
-0.124567
0.245853
0.0247375
-0.241595
0.376931
-0.086682
-0.290249
-0.0499341
0.101499
-0.228318
-0.178161
-0.0377698
0.0499763
-0.10737
0.140124
-0.0112843
0.0201317
-0.295116
0.227616
0.0675
-0.275146
0.0522521
-0.42546
-0.0628841
-0.119444
0.000348673
-0.0238535
-0.119038
0.142892
0.0679844
0.0407047
-0.268762
0.381408
-0.112648
0.124276
-0.0685351
-0.0557406
0.0131855
0.0362798
-0.0494653
-0.156747
0.176304
-0.0195578
0.303364
-0.173999
0.211373
-0.126288
-0.085085
0.18346
-0.167204
-0.0162563
0.48721
-0.249376
-0.237834
0.131066
-0.164857
0.0337908
-0.00446835
-0.173077
0.0163306
-0.0429472
-0.0473169
0.0902641
-0.0348605
-0.293723
0.400394
-0.19703
-0.500265
0.109197
-0.148246
0.0117246
0.187625
0.0667032
-0.116435
0.0895562
-0.299887
0.134393
0.122015
0.000874586
0.266143
0.142473
-0.40862
0.0201318
0.0791047
-0.0992365
0.185901
-0.196461
0.01056
-0.0567317
-0.0432932
0.100025
-0.17219
-0.00532537
-0.0157679
0.00389907
-0.263014
0.0882126
0.174801
0.00646045
-0.00646045
0.132176
0.0287998
-0.160976
-0.0905133
0.153736
-0.0655673
-0.0170558
0.00226884
-0.0371975
-0.025854
0.0630514
0.138963
0.0373409
0.193823
-0.192811
-0.39508
0.199334
0.210441
0.112175
-0.322617
-0.133686
0.0758653
0.057821
0.152831
-0.127908
-0.0249225
-0.0447877
0.133222
-0.0884343
-0.107563
0.0712949
0.0362682
0.00767616
-0.0455587
0.101477
-0.055918
-0.355586
0.505299
-0.149721
0.000722196
-0.00206638
0.00134418
-0.00696191
0.0481695
-0.0412076
0.142441
-0.228396
0.0859541
0.238362
-0.0279221
-0.0579808
0.0781126
0.0092443
-0.00410905
-0.13469
-0.0282628
-0.276693
-0.137358
0.41405
-0.0820854
0.0260421
0.0560433
-0.0969708
0.0540235
-0.144226
0.0641158
0.102352
0.0121445
-0.114496
-0.0392699
-0.00892584
0.0481957
-0.163599
-0.0530435
0.0633843
0.0353469
-0.0987312
0.000853643
-0.00118399
0.000330349
-0.0643584
-0.0390042
-0.0421605
0.0994463
-0.0570485
-0.0423978
0.0322586
-0.0837897
0.14691
-0.185416
0.0385062
-0.401801
-0.0590482
-0.103126
-0.319078
0.10441
-0.00352621
-0.0218394
0.0199702
0.0140836
-0.0340538
0.00524215
-0.00664423
-0.00951211
-0.0384292
-0.0060604
0.00815238
-0.00209198
0.00448009
-0.00489813
0.000418032
-0.0698505
-0.012235
-0.0354221
0.182964
-0.00187398
-0.00319991
0.00507388
0.0076418
0.0289804
-0.0366222
0.20742
0.0252984
-0.0484063
0.023108
9.2174e-05
0.00851919
-0.00861136
0.054457
0.0138737
-0.0683307
0.0831171
0.122024
-0.108776
0.402178
-0.293406
-0.194079
0.0304796
-0.213393
0.18406
0.0293323
0.155757
0.0277029
-0.0634117
-0.060111
0.123523
0.0786843
0.260592
0.00500452
-0.00500452
-0.190716
0.166417
0.143095
0.0177139
-0.160809
-0.000890989
-0.00117726
-0.217646
-0.0975727
0.315217
-0.14802
0.124167
0.0347357
-0.022794
-0.238063
-0.0975075
0.025967
0.183731
-0.209698
-0.000162014
0.000428313
-0.000266299
-0.114622
0.416155
-0.301539
0.0442331
0.0800426
-0.152416
-0.00766673
0.00343873
0.004228
0.186124
-0.0471603
0.129654
-0.142087
0.0124326
0.090439
-0.194793
0.0483323
0.14646
0.0111224
-0.114116
-0.110764
0.00635698
0.104407
0.0162679
-0.000209899
0.112782
-0.122453
0.00967048
0.148033
-0.271891
0.123857
0.00724948
-0.00736306
0.000113583
0.147521
-0.0178675
0.00465332
0.0137282
-0.00528291
-0.00844525
0.0413644
-0.0900206
0.0403771
-0.0803544
-0.186674
0.138776
0.230067
-0.368847
-0.00840777
0.00129417
0.104908
0.106465
-0.0278022
0.158868
0.44266
-0.30564
-0.137022
-0.0541018
-0.00109154
-0.0551545
-0.0164611
-0.0131911
0.0296522
0.00140501
0.000761028
0.00569942
-0.0326275
-0.0523862
0.135906
-0.186278
0.0503721
-0.381825
0.273045
0.165966
-0.128864
0.11258
0.110283
-0.0439302
0.328723
-0.200641
-0.128083
0.0346273
-0.0718248
0.136715
0.0332605
-0.0377983
-0.453806
0.441511
0.0122853
0.00143072
0.00189288
0.180647
-0.239654
-0.328813
-0.12439
0.0127421
0.111648
0.168958
-0.474599
-0.106354
0.37244
-0.00437617
-3.81196e-06
0.00437998
0.0363543
-0.226453
0.176721
0.0497319
-0.252006
0.36418
-0.0489355
0.110658
-0.0617229
-0.0345066
-0.120058
-0.0238461
0.182286
-0.0203331
-0.0582995
-0.21367
0.23122
0.00384607
-0.0125767
-0.127839
0.0185974
0.109242
0.103529
0.153695
-0.257225
0.030987
-0.0157038
-0.0152833
-0.000938526
0.000531602
0.255268
-0.402264
0.146994
-0.0340776
0.0176165
0.236053
0.280658
-0.331479
0.0934145
-0.244386
0.107916
-0.0831804
-0.0166417
0.0998221
-0.000584758
-0.00260508
0.00318983
-0.0345685
-0.124103
-0.000231785
0.00108543
0.0327025
0.109275
-0.141977
0.00785471
-0.0246823
0.0168276
-0.0755882
0.0464807
-0.161742
-0.0236745
-0.00636327
0.110632
0.159884
0.0141781
-0.0289052
0.0147271
-0.0740042
0.0102174
-0.0113215
0.00399472
0.00194724
0.076361
0.170727
-0.247088
-0.0144611
0.0273268
-0.0128656
0.166097
-0.194002
0.0279047
0.00152992
0.130646
-0.0237553
0.055216
-0.0314607
0.0209037
-0.0614187
0.040515
-0.00353171
0.00770027
-0.392499
0.287077
0.105419
-0.0076308
-0.00813713
-0.143612
0.31968
-0.176069
-0.00843257
0.0247004
0.0417311
0.165379
-0.207111
-0.212928
0.105558
-0.172732
0.00552842
-0.344247
0.188713
0.155532
0.198178
-0.498245
0.300058
-0.0252563
-0.109186
0.134442
0.071415
-0.0223986
0.0768556
-0.442256
0.0987393
0.00772697
-0.0086952
0.000968225
-0.185031
0.0232892
-0.239608
-0.104642
0.110053
0.266878
0.0648367
0.0738455
-0.138682
0.0577558
0.052177
-0.109933
0.0225613
-0.0463167
0.112193
-0.146762
-0.157432
0.366224
0.136706
-0.171637
0.0349302
-0.0053541
0.0122919
-0.129811
-0.329233
0.21606
0.337241
-0.14853
-0.0368881
0.173594
-0.0174635
-0.146928
0.164391
0.000370791
0.00463373
-0.317796
0.10015
-0.0510802
0.073789
-0.0227087
0.0495413
0.0614831
0.0487622
-0.0557242
0.000499953
-0.00018448
-0.00361894
-0.00520298
-0.11312
-0.283827
0.396942
0.0271418
-0.151832
0.12469
0.12415
0.236134
-0.198232
-0.0379024
-0.195335
0.171135
0.0241993
0.00884804
-0.00875587
-0.314906
-0.0672352
0.382137
-0.165181
-0.2299
-0.497881
0.214489
0.283383
0.0367395
0.112047
0.0521651
-0.164212
0.249743
-0.101711
0.102836
0.039869
-0.142705
0.0283173
-0.163007
-0.00535902
0.013591
-0.00823202
-0.0026225
-0.00893323
0.365961
-0.227461
-0.138501
0.169715
0.131313
-0.301028
0.00550155
-0.156682
0.00179562
-0.00116574
-0.000629883
0.00131889
-0.00561095
0.00130005
0.00157862
-0.00287867
-0.0613514
0.0396976
-0.0430964
-0.0174193
0.0605157
0.085761
-0.047111
-0.0386501
0.0133911
-0.419095
0.053017
-0.117609
0.275847
-0.096002
0.166921
0.0517643
-0.218686
0.145559
0.259038
-0.0595317
0.0241999
0.0300783
-0.0542782
-0.00272702
-0.00723355
-0.242298
0.000439075
-0.0191861
-0.0348231
0.0540091
0.100175
0.316893
-0.417074
-0.0682889
0.204195
-0.121126
-0.0269552
0.298575
-0.378919
-0.0285864
-0.141699
0.167666
0.00566644
0.0147074
-0.00764013
0.0043023
0.0927257
-0.143158
0.0504327
0.00281034
-0.00634205
0.0857657
-0.01943
0.0020696
0.00523738
-0.0616914
0.0803633
0.0523611
-0.0174696
0.000887855
-0.00232322
0.00143536
-0.121381
-0.00645791
0.0558348
-0.0426493
-0.0980482
0.0524895
0.00679135
0.00693681
0.219589
-0.30154
0.08195
0.113219
0.332423
-0.448903
0.116478
-0.023309
0.0632892
-0.0334489
-0.0298404
0.365236
-0.476939
0.0934023
0.383537
0.0979761
-0.00450417
-0.093472
-0.233192
0.397742
-0.164556
-0.0882617
0.0822869
0.016385
-0.134236
-0.533866
0.310347
0.223518
-0.0793909
0.0587439
0.020647
0.189888
-0.281409
0.0915201
0.263765
-0.107049
0.0581134
-0.267813
-0.101223
0.369034
-0.0482571
0.0882648
-0.0400077
-0.0119144
0.0318846
0.283895
-0.110002
-0.173893
-0.24342
0.169854
0.0735657
-0.350388
0.110778
-0.102197
0.0679098
0.0342868
-0.270469
0.400069
0.062062
0.149888
-0.21195
0.0346151
0.0546254
-0.0892405
-0.137444
-0.156642
0.294086
-0.00216267
-7.72007e-05
0.00223987
-0.201692
-0.0646393
0.26633
0.00213091
0.0022146
0.23751
-0.0206782
-0.216832
0.0808342
-0.125356
0.0445221
-0.236227
0.328976
-0.0927503
0.00166417
-0.112175
0.110511
-0.150785
0.0296585
-0.349681
-0.0694145
0.169844
0.114051
-0.00411196
0.00194929
0.234449
-0.2631
-0.00692313
-0.00523782
0.012161
-0.00872412
0.0118632
-0.00313908
-0.168672
-0.0666365
0.296084
0.236912
0.302081
0.0820504
0.388103
-0.062574
-0.325533
-0.000437601
-0.00393857
0.104548
-0.356554
0.00648208
-0.00435118
0.00743214
0.00252843
-0.0142255
0.102562
0.00197914
-0.00224181
0.00026267
-0.397398
-0.131198
0.226389
0.0847583
-0.311148
-0.000578985
8.735e-05
0.000800505
0.0644446
-0.175209
0.132745
0.223696
-0.356443
-0.145448
0.273617
-0.273817
0.0731213
-0.241818
0.168697
0.0753669
-0.101585
0.0262176
-0.00573512
-0.0185017
0.0242368
0.167581
-0.166679
-0.000902022
-0.0098276
0.0106342
-0.00290728
0.0403227
-0.0837659
0.0434432
0.122698
-0.0431834
-0.0795144
-0.277946
0.248378
0.0295669
-0.00751619
-8.43556e-05
0.00760055
0.00278152
-0.0391547
0.141991
-0.325572
0.0893436
-0.276683
0.110357
0.166326
0.00220235
0.00214046
-0.00434281
0.14089
-0.00329002
-0.00437671
-0.0330972
-0.525318
0.340963
0.184354
-0.0594256
0.124262
0.187864
0.176095
-0.363966
-0.0521426
0.164336
-0.218474
0.123221
0.0952526
-0.400333
0.167136
-0.105811
-0.280424
0.38623
0.255697
-0.182576
0.00594171
-0.00502591
-0.000915797
-0.091708
-0.306702
0.398409
0.0102753
-0.000876697
0.00178818
-0.0972863
-0.179397
0.0603097
-0.324728
-0.0719655
-0.0225478
-0.00943774
0.00464542
0.00479232
0.146231
-0.171868
0.0256371
-0.000114876
0.000987942
-0.000873067
-0.236168
0.112758
0.0814509
0.124006
-0.155455
-0.00317558
0.0013016
0.0210901
0.00989692
0.010638
-0.00416402
-0.00647396
-0.444411
0.047004
-0.0170922
-0.188315
0.287961
-0.00196401
0.00184913
-0.353103
0.130251
0.222849
-0.0499439
-0.029447
0.0941357
0.00425947
-0.00469708
-0.10296
-0.29157
0.394529
0.138001
0.310507
-0.448513
-0.0600603
0.0169639
-0.327745
0.0618312
0.265913
0.00607699
-0.000135276
0.06979
-0.26236
0.0109846
-0.0254458
-0.175349
-0.111489
-0.269787
-0.0290728
0.135126
-0.0861244
0.0350441
-0.00959555
0.00333755
0.006258
0.151286
-0.165258
0.164567
0.0793967
-0.243964
-0.170952
0.186231
-0.0820036
0.216257
0.112465
-0.0595225
-0.417416
-0.111829
0.0736819
0.0381471
0.280369
-0.131058
-0.149311
0.0126245
0.0155156
-0.0281401
0.00940167
-0.163476
0.154074
-0.000995687
0.00279131
0.214326
0.0785876
-0.292914
-0.289904
0.394255
-0.104354
-0.0401059
0.0880243
-0.0479183
-0.00120888
0.00110211
0.000106773
0.0185032
-0.0378754
0.0193722
-0.194324
-0.0195672
0.213891
0.0171257
-0.00148252
-0.0633394
0.277664
0.0130342
-0.00555371
-0.00748048
0.138453
0.0687772
0.0219235
-0.0907007
-0.170615
0.327337
-0.00161185
0.00211181
0.0911248
0.230188
-0.321314
-0.115508
-0.102966
-0.215657
-0.172889
0.333039
-0.235159
-0.0978813
0.278221
0.208988
0.00997489
-0.0212592
0.0481117
0.0382776
-0.0863894
-0.00783173
-0.00817055
0.0160023
0.0666693
0.0560284
-0.194332
0.169118
0.0252143
0.147898
-0.178733
-0.469502
0.150264
0.319235
-0.409471
0.104657
-0.424067
0.309439
-0.166926
0.0384269
-0.086684
0.251258
-0.209527
0.00973889
-0.00590488
-0.003834
-0.0569388
-0.0586096
0.115548
0.348593
-0.215849
0.156256
0.0296452
0.00651552
0.00651866
-0.0763602
-0.0573261
-0.0563496
0.168396
0.147258
0.0441081
0.110703
-0.125419
0.0147156
-0.00198179
-0.00767791
0.0096597
0.0929549
-0.118211
0.0236931
-0.0160513
-0.0202992
-0.127025
0.11493
-0.11857
0.00364037
-0.0384972
-0.0228542
0.146048
0.221115
0.101905
-0.323021
-0.110254
0.0468425
-0.084801
-0.0249173
0.298175
-0.0717943
0.0264954
0.0431366
0.0869656
-0.130102
0.00655032
-0.00752244
0.000972121
0.147651
0.132718
-0.0235049
-0.102726
0.0195453
-0.120627
0.0170554
0.103572
0.168607
-0.0428846
0.388466
-0.199522
-0.188944
0.0484002
-0.250773
0.209331
0.0414404
0.00390517
0.00583371
0.220204
-0.223639
0.00343518
0.172809
-0.0022659
0.00119769
-0.0301108
0.168476
-0.19429
0.0258135
0.029362
0.214427
-0.30852
0.0940924
-0.000683029
-0.0461764
6.63981e-05
-0.000614636
0.000548238
0.0904572
0.0590215
-0.083447
0.0244255
-0.000873789
0.000940187
0.16923
0.0280431
-0.197273
-0.0966818
-0.21022
-0.0405529
0.0316364
0.151885
-0.183521
-0.155577
0.211986
-0.0564089
-0.0193777
-0.0748381
0.0441363
0.0307018
-0.0784536
-0.163365
-0.022846
-0.13983
0.162676
0.0185302
-0.321829
-0.137013
0.458834
0.00075845
-0.00895003
0.186447
0.0510624
-0.145245
0.207307
0.0399495
0.0491182
-0.0890677
0.00561378
-0.00572804
-0.109766
0.426894
-0.317135
0.34192
-0.217336
0.0617579
0.0852715
0.254667
-0.33994
0.476914
-0.170672
-0.306246
0.0147752
-0.037805
0.0230298
-0.239967
0.506282
-0.187093
0.018813
-0.284067
-0.114228
-0.0665302
0.0714259
-0.00489563
-0.392115
0.0983889
-0.00170646
-0.0419402
-0.0311978
0.0254627
-0.153593
-0.0898281
-0.000139744
0.00210568
-0.00196593
-0.326161
-0.116097
-0.178652
-0.0247771
0.203429
-0.0642806
-0.209697
0.273977
0.000133897
0.00110696
-0.00124085
-0.0778367
-0.39996
0.399974
-2.01067e-05
0.123297
0.226291
-0.349589
-0.240442
0.191464
0.0489776
-0.0855091
-0.227082
0.31259
-0.0846873
-0.0507181
0.000131296
-0.000716054
0.00305089
0.00876477
-0.00187304
0.00385217
0.0713616
0.278841
-0.350204
0.0420006
-0.212952
-0.10769
0.109354
0.209394
0.00242077
-0.266143
-0.0869616
-0.0390748
0.0498261
-0.00133238
-0.00247545
0.00380783
-0.133108
0.142509
-0.0735242
-0.136697
-0.00140744
-0.00610875
-0.325725
-0.208143
-0.304298
0.375659
-0.0174446
0.00961287
-0.00113032
-0.0391931
0.0302432
0.0093495
-0.287296
0.00595282
-0.00711995
-0.0703499
-0.140907
0.211257
-0.126585
0.0414857
0.0850998
-0.378817
0.287108
0.156094
-0.17521
0.0191161
-0.287401
0.14603
0.141371
0.0887474
0.0464071
0.118978
-0.050201
0.110652
0.0368694
0.348028
0.0767814
-0.424811
-0.00486619
0.00685552
-0.00198933
-0.0841768
-0.123611
-0.411111
0.0111465
-0.426294
0.426288
0.0189
0.201304
-0.216991
-0.110755
0.0765791
-0.278271
-0.0476321
0.0109945
0.0216823
-0.216007
0.0282811
-0.261337
0.0680655
0.193271
-0.0221975
-0.00102992
-0.000178961
0.17424
-0.386601
0.212356
0.00302401
0.054716
-0.05774
-0.0239325
-0.134733
0.158666
0.383491
-0.209257
0.0981822
-0.188696
-0.116483
-0.00318521
0.119668
-0.401608
0.135016
0.266592
0.385185
-0.219537
-0.165648
-0.0927219
0.388698
-0.295978
-0.137328
-0.157789
-0.0959887
0.120292
-0.0243032
0.427551
-0.146653
-0.280902
0.0970135
-0.240678
0.143664
-0.122619
0.122283
-0.0707291
0.418755
-0.115318
0.00338564
-0.0103088
-0.0116735
0.0195282
0.0358172
-0.0272549
0.0420301
-0.027072
-0.0912512
-0.029376
0.0160566
-0.040187
0.0241305
-0.023371
0.0583716
-0.0350006
-0.00803305
0.408597
-0.400573
-0.188517
0.240281
0.164922
-0.399252
0.234326
0.0137365
0.0275099
-0.0412464
-0.0248052
0.0583181
-0.0335129
-0.138175
0.10666
0.0315144
0.170453
-0.36223
0.0723231
-0.271126
0.206845
-0.100933
-0.304457
0.405388
0.156164
0.0827085
-0.0444728
0.0313651
-0.00779789
-0.00765753
-0.00806119
-0.00153997
0.0132342
0.0824782
-0.0957125
0.374522
-0.351362
-0.387322
0.516019
-0.128699
-0.0925389
-0.288138
0.380676
-0.00949859
-0.0555845
0.0901996
-0.310742
0.201319
0.109421
-0.00616903
0.00381264
0.00235638
0.279619
-0.1405
-0.0243576
0.254439
-0.144293
0.106616
-0.131662
0.0250465
0.0216916
-0.162191
0.0901025
-0.050153
-0.151286
0.127353
0.0428842
-0.412254
0.0904153
-0.40259
0.281238
0.121346
0.0966482
-0.0369959
0.0998507
-0.368614
0.324912
0.161751
-0.121712
0.0257232
0.0462207
-0.10507
0.0588493
0.288375
-0.381098
0.0196686
-0.0809598
0.0612912
0.270302
-0.37407
0.103767
0.203744
-0.228182
-0.380984
0.0907645
0.290217
-0.248059
0.198444
0.0519442
-0.0294227
-0.0225215
0.118913
0.0322245
-0.151137
-0.195879
0.0308918
-0.177837
0.107487
-0.00125762
-0.0411378
0.0113849
0.0297529
-0.398121
0.191285
0.206836
-0.10481
-0.0217757
0.137572
0.00777589
-0.00122557
0.021895
0.0491277
-0.0710228
-0.000151026
-0.000301676
0.000452702
-0.0593396
-0.127047
-0.103871
0.114994
0.108029
-0.0502727
0.0399499
0.0703331
0.00718862
-0.00942443
0.00223581
-0.285334
0.408176
-0.120084
-0.26338
-0.121079
-0.208155
0.0334894
0.00224242
-0.0867708
6.46263e-05
-0.0104722
0.0104076
-0.170641
-0.095091
-0.162005
0.238366
-0.00124264
-0.00102326
0.0203368
0.0819075
-0.102244
0.204574
-0.027853
0.0572745
-0.0449971
0.371695
-0.116429
0.137112
-0.151027
0.0382626
0.0484177
-0.0866803
-0.0343364
0.0738138
-0.0394775
-0.223736
-0.107744
-0.0415924
-0.0484102
0.0900026
-0.10992