/*--------------------------------*- C++ -*----------------------------------*\
| =========                 |                                                 |
| \\      /  F ield         | OpenFOAM: The Open Source CFD Toolbox           |
|  \\    /   O peration     | Version:  v2012                                 |
|   \\  /    A nd           | Website:  www.openfoam.com                      |
|    \\/     M anipulation  |                                                 |
\*---------------------------------------------------------------------------*/
FoamFile
{
    version     2.0;
    format      ascii;
    class       surfaceVectorField;
    location    "900";
    object      ddtCorrDdt0(Uf);
}
// * * * * * * * * * * * * * * * * * * * * * * * * * * * * * * * * * * * * * //

dimensions      [0 1 -2 0 0 0 0];


internalField   nonuniform List<vector> 
14470
(
(-0.000645595 0.00184773 7.04835e-18)
(-0.00064031 0.00193635 9.8351e-18)
(-0.000570801 0.00185086 -3.0064e-18)
(-0.0349749 -0.0041328 2.2121e-17)
(-0.0359691 -0.00318974 -6.42484e-17)
(-0.000297673 0.000529297 -7.31892e-19)
(-0.000357085 0.000530036 4.15289e-18)
(-0.000328505 0.000548684 9.24165e-19)
(0.00325897 0.0629967 -1.85837e-17)
(0.00273579 0.0638419 -2.68464e-17)
(0.00292739 0.0628331 -6.15432e-18)
(-7.77518e-07 0.000114753 2.7226e-18)
(-6.24121e-07 0.000116534 1.89981e-18)
(-4.41383e-07 0.000171158 1.00254e-18)
(-0.0247503 -0.0169168 1.2962e-17)
(-0.0254043 -0.0173559 1.38086e-17)
(-0.0254304 -0.0162379 1.38045e-17)
(-0.0145503 0.00592391 1.13067e-18)
(-0.0148622 0.0052912 2.87446e-18)
(-0.015465 0.00584317 4.62133e-18)
(0.0406277 -0.00233962 -2.68734e-17)
(0.0417133 -0.00287983 -1.5665e-17)
(0.0442506 -0.00463761 2.70797e-18)
(-0.00183282 -0.000815248 4.94113e-19)
(-0.00190285 -0.000891951 -8.646e-19)
(-0.00196241 -0.000776107 -4.48297e-19)
(-4.22183e-05 0.000311901 -9.12147e-19)
(-3.40803e-05 0.000286085 3.2299e-19)
(-3.40826e-05 0.00027629 7.39417e-20)
(-4.62556e-05 0.000347091 -8.83015e-19)
(-4.90481e-05 0.000340299 1.77565e-18)
(-0.000443954 -2.34314e-05 1.05816e-18)
(-0.000432525 7.56154e-06 -6.594e-19)
(-0.000445331 1.77373e-05 2.59626e-18)
(0.0475576 0.0564241 4.05137e-17)
(0.0423152 0.0573331 4.68306e-18)
(0.0444308 0.0587698 2.81737e-17)
(-0.000763517 -0.000752671 -8.93835e-19)
(-0.000708244 -0.0007206 -2.68961e-19)
(-0.000689017 -0.000787068 -2.98072e-19)
(0.00467131 -0.00780641 -1.98411e-18)
(0.00476386 -0.00838251 -7.44313e-18)
(0.00529387 -0.00783604 -1.66768e-18)
(-0.0126763 -0.00895334 1.70242e-17)
(-0.0135005 -0.00900058 -6.74316e-18)
(-0.0132211 -0.00817063 7.16794e-18)
(-0.000433045 0.000435715 -2.07874e-18)
(-0.000454291 0.000405227 -3.28035e-19)
(-0.000441829 0.000423371 -8.04592e-19)
(0.00671445 0.060177 -1.22839e-18)
(0.00602436 0.0611038 2.07323e-17)
(0.00803302 0.0632565 3.39847e-17)
(0.000213329 -0.000188561 -1.85317e-20)
(0.000221227 -0.000171706 2.33014e-19)
(0.000231553 -0.000189019 -2.50719e-19)
(0.000272578 -0.000587686 -4.81845e-20)
(0.000327091 -0.000618037 9.46624e-21)
(0.000305277 -0.000552927 2.4742e-20)
(3.71156e-07 3.22199e-05 -3.97922e-18)
(2.26087e-07 3.25225e-05 2.21123e-18)
(0.00263278 0.0570545 1.73005e-17)
(0.000707109 0.056756 1.32016e-17)
(0.00206843 0.0587925 -6.68284e-18)
(0.0373208 -9.57312e-05 7.65309e-18)
(0.0407472 -0.00197446 -1.82125e-17)
(0.0511374 0.0542418 2.42304e-17)
(0.0537558 0.0550821 3.48353e-18)
(-0.00201956 0.00429561 -2.25234e-17)
(-0.00200595 0.00411643 -9.2229e-18)
(-0.00182947 0.00420741 -5.28401e-19)
(-0.000161293 0.000568964 -1.4537e-18)
(-0.000178584 0.000564489 2.06253e-18)
(-0.000156715 0.00054761 -7.59535e-19)
(-2.27309e-06 3.21006e-05 1.32008e-18)
(-2.45167e-06 3.81497e-05 -4.81872e-20)
(-5.23358e-06 4.97694e-05 3.56696e-19)
(0.000199428 -0.000186871 1.80333e-19)
(0.000210443 -0.000203544 4.18389e-20)
(-0.0173437 -0.00168484 1.47046e-18)
(-0.0180536 -0.00195982 1.53692e-17)
(-0.0179589 -0.00104229 9.18682e-18)
(0.0362931 0.00255586 -2.48028e-18)
(0.0354817 0.00250868 -4.01593e-17)
(0.0366256 0.00158593 -1.66935e-18)
(-0.0305827 -0.0154054 7.37182e-19)
(-0.0291038 -0.0148767 8.10496e-18)
(-0.0304723 -0.0140548 1.64581e-17)
(-0.000226626 0.000823083 3.05348e-18)
(-0.000203247 0.000840556 -2.64902e-18)
(-0.000235153 0.000804918 3.84025e-18)
(-0.000455756 0.000387657 2.52019e-19)
(-0.000469942 0.000353663 -1.96495e-18)
(-0.000473022 0.00034091 2.95421e-18)
(-0.000117967 -1.81367e-05 2.87428e-19)
(-0.000127731 -1.64829e-05 3.54584e-19)
(-0.000145384 -8.79504e-06 6.95034e-19)
(-0.00294996 -0.00851798 7.077e-18)
(-0.00312802 -0.00811112 9.47586e-19)
(-0.00338359 -0.0086399 1.03359e-18)
(0.00351793 -0.00648305 -6.17972e-18)
(0.00313447 -0.0063116 1.61128e-18)
(0.00339486 -0.00604106 -1.86519e-19)
(0.000190911 0.00394508 -3.29713e-18)
(0.000240778 0.00409631 -5.60629e-18)
(7.50879e-05 0.00407723 7.81191e-18)
(-0.00120888 0.061946 1.14141e-17)
(-0.000168982 0.0621264 -1.95831e-17)
(-0.00236177 0.0615238 -3.78441e-18)
(-0.0075188 -0.00429975 1.87581e-18)
(-0.0070919 -0.00419218 -2.14934e-19)
(-0.00717564 -0.0046888 -2.26678e-19)
(-0.0165176 -0.00128011 -8.66432e-18)
(-0.0165589 -0.00214458 -3.84716e-19)
(-0.0564075 -0.00104172 7.48893e-18)
(-0.0528161 -0.00068977 -3.77281e-17)
(-0.0434237 0.00147657 1.1774e-17)
(0.0431534 0.0310547 -3.27924e-17)
(0.0425574 0.0236719 -6.10493e-18)
(0.0549587 0.0332662 1.04023e-17)
(-4.78989e-07 1.87881e-05 6.72665e-19)
(-2.02263e-06 2.9654e-05 2.44973e-18)
(-2.19268e-05 0.000721969 1.8913e-18)
(-3.26107e-05 0.000695886 -1.78461e-18)
(-6.70542e-06 0.000702443 4.10592e-18)
(-3.85131e-05 0.000967997 3.09346e-18)
(-4.10433e-05 0.000974777 1.05156e-18)
(-2.38949e-05 0.000980232 -4.98952e-20)
(0.0344725 -0.012176 1.66003e-17)
(0.0357574 -0.0105893 -1.31159e-17)
(0.042654 -0.0125518 4.14732e-18)
(-1.98927e-06 5.92767e-05 1.36812e-18)
(-1.95272e-06 2.77044e-05 2.25943e-18)
(-2.48722e-06 2.47923e-05 -2.05095e-18)
(0.00103326 -0.00109484 -9.60942e-19)
(0.00105963 -0.00101185 -9.59564e-19)
(0.00113701 -0.00111375 -1.84612e-19)
(-0.000412893 0.000477856 -4.93538e-19)
(-0.000426858 0.000452202 8.62547e-19)
(-0.00271226 -0.00907341 3.0278e-18)
(-0.00243333 -0.00851842 2.2103e-18)
(-0.000103936 -2.77647e-05 7.45639e-19)
(-0.000108432 -1.84364e-05 -3.57636e-19)
(-0.00743297 -0.00900485 5.25555e-19)
(-0.00801675 -0.00900241 4.90264e-19)
(-0.00747771 -0.00950402 -6.29187e-18)
(-5.51868e-06 9.29181e-05 1.03595e-18)
(-3.76569e-06 9.9143e-05 -2.77174e-18)
(-0.00350075 0.00590543 -2.64489e-18)
(-0.00360647 0.00564351 -1.85066e-18)
(-0.00381473 0.00590436 -3.35903e-19)
(0.00376005 0.0632671 -1.3008e-18)
(0.00446263 0.0619698 -6.25222e-18)
(-0.000411672 -9.99261e-06 4.04188e-19)
(-0.000400698 2.39749e-05 -3.85197e-18)
(-0.000398913 -1.77544e-05 3.10264e-18)
(-0.0120705 -0.0232327 5.59841e-18)
(-0.0116897 -0.0242935 -5.87476e-18)
(-0.0109771 -0.0234914 8.3285e-18)
(0.000943068 -0.00107098 -1.51253e-18)
(0.00100807 -0.00117412 -1.39279e-19)
(-1.07528e-06 2.92884e-05 -2.38707e-18)
(-0.00047905 0.00458237 -9.93372e-19)
(-0.000427172 0.00473019 5.2436e-18)
(-0.000322513 0.00457254 -1.91167e-18)
(-0.00512427 0.0110767 8.43244e-18)
(-0.00554657 0.0110841 -1.29782e-17)
(-0.00515091 0.0116079 -2.54668e-17)
(-0.000343458 0.000552036 2.88692e-18)
(-0.000330523 0.000567903 1.10164e-18)
(-0.000322686 0.000584807 -1.11738e-18)
(0.000660841 -0.0145147 -4.67232e-18)
(0.000210111 -0.0137996 4.82106e-18)
(0.0010831 -0.0139542 4.07644e-18)
(-0.000174787 1.68419e-05 8.60142e-19)
(-0.000174686 9.72829e-06 -3.46107e-19)
(-0.000177793 1.02474e-05 9.4146e-19)
(-0.0017661 -0.000744441 3.80068e-18)
(-0.00171847 -0.000838058 1.43369e-18)
(0.0229773 -0.0030009 -4.9108e-17)
(0.0191536 -0.00503914 1.64395e-17)
(-0.0031584 -0.00381469 2.50733e-19)
(-0.0031185 -0.00354245 1.08008e-19)
(-0.00341554 -0.00362784 -7.61168e-19)
(0.00393625 -0.00663947 -5.70697e-18)
(0.00434532 -0.00677279 1.86127e-18)
(0.00419793 -0.00631137 -8.51755e-19)
(-0.00352442 0.0438758 -1.77876e-17)
(-0.00595661 0.0428825 -5.74258e-17)
(-0.00309239 0.0403967 -1.69251e-17)
(-0.000448997 0.000892114 3.26471e-19)
(-0.00042816 0.00094019 -2.27708e-18)
(-0.000395151 0.000879015 3.72406e-18)
(0.00084827 0.0102944 2.05432e-17)
(0.00133304 0.010599 6.29083e-18)
(0.000592382 0.0108685 -6.74124e-18)
(0.0488167 -0.00743163 5.9995e-18)
(0.0477152 -0.0058128 -4.54839e-17)
(0.0510312 -0.00810288 -4.91717e-17)
(-0.262548 -0.104196 -9.84883e-18)
(-0.264313 -0.104437 2.69721e-18)
(-0.263123 -0.0999096 -4.31198e-18)
(-0.0274571 0.0339426 6.28041e-18)
(-0.0248365 0.0375733 1.30957e-17)
(-0.0311091 0.0340805 1.2535e-17)
(-1.77781e-06 6.75409e-05 3.87851e-19)
(-2.24375e-06 7.59388e-05 1.51572e-18)
(-5.9224e-06 0.000100912 -2.24236e-19)
(-0.00229359 0.00837329 2.82166e-17)
(-0.00260312 0.00822231 -5.23052e-18)
(-0.00228594 0.00804361 -3.01849e-17)
(-0.0247077 0.00278812 -1.18151e-17)
(-0.0182533 0.00377835 2.25435e-17)
(-0.0159277 0.00480315 -1.77246e-17)
(-0.000184575 0.00075923 -9.71029e-19)
(-0.000206932 0.000730256 -1.506e-18)
(-0.000203971 0.000754695 -1.68627e-18)
(-3.02089e-06 0.000104836 2.90033e-18)
(-2.49255e-06 0.000100596 9.11935e-19)
(-2.78784e-07 6.37562e-05 2.25366e-18)
(-0.00231799 0.00854997 4.46545e-17)
(-0.00209169 0.00840382 3.60659e-17)
(0.008919 0.0580047 4.84468e-18)
(0.00553848 0.0582019 -5.22503e-17)
(-0.0119428 -0.008785 1.35481e-18)
(-0.0121731 -0.00957101 -3.24267e-18)
(-0.00324684 0.0020961 -3.05239e-19)
(-0.00338085 0.00198188 -6.05352e-18)
(-0.00321371 0.001883 -4.80297e-18)
(0.0036 -0.00699438 -4.00695e-18)
(-0.0276407 0.000552026 4.37448e-18)
(-0.0265368 0.00116783 -1.54581e-18)
(-0.0264438 -0.000210298 -3.54115e-18)
(-2.44604e-06 0.000112863 1.19068e-18)
(-5.15946e-06 0.00015602 8.30755e-20)
(-0.00222461 -0.0264495 1.1129e-17)
(-0.00166039 -0.0251763 4.83761e-18)
(-0.000768968 -0.0262371 5.21737e-18)
(-0.00238905 0.0616993 2.73325e-17)
(0.000345225 0.0624213 1.87015e-17)
(-0.00492135 0.0106445 1.90482e-17)
(-0.00452491 0.0112292 5.66199e-17)
(0.00590458 0.0564183 -4.75946e-18)
(0.00479033 0.0575578 -5.9e-18)
(0.00573238 0.0579602 3.19879e-17)
(-0.0307533 0.00607255 -4.42235e-18)
(-0.0333696 0.00481242 -4.11904e-18)
(-0.0254525 0.00362479 -4.33709e-18)
(-0.0274659 0.00707645 -8.38952e-18)
(-0.0330877 0.00790668 8.84493e-18)
(-0.0105714 -0.00113855 -1.80746e-18)
(-0.0112052 -0.000989113 3.55349e-19)
(-0.0109072 -0.00161507 -5.15681e-18)
(0.0383606 0.039492 5.01761e-17)
(0.03412 0.0303584 -2.61664e-17)
(-0.000572587 0.000217505 -3.45286e-18)
(-0.000596284 0.000183809 2.85761e-18)
(-0.000575724 0.000194629 -1.37766e-18)
(-0.0243459 0.0326472 4.26057e-17)
(-0.0307506 0.0301651 2.59497e-17)
(-0.0135229 -0.00606517 1.13213e-18)
(-0.013132 -0.00548693 -3.06792e-18)
(-0.0128105 -0.0061966 -5.1027e-18)
(-0.00450099 -0.00172264 6.94184e-19)
(-0.00468656 -0.00187152 5.30975e-19)
(-0.00474007 -0.00159259 4.83597e-19)
(-4.94709e-07 6.88844e-05 -5.05026e-18)
(-3.22895e-06 0.000118704 -1.47584e-18)
(0.0144813 0.0609011 8.40518e-18)
(0.0157115 0.0606773 -3.36386e-17)
(0.0169242 0.0598359 1.48152e-18)
(-0.00743034 -0.00839312 -5.17149e-18)
(-0.00685489 -0.00893247 -7.19074e-18)
(-0.128922 -0.0547377 2.81026e-18)
(-0.106107 -0.049209 1.90844e-17)
(-0.127077 -0.060242 -5.59201e-18)
(-1.08977e-05 0.000746516 2.28939e-18)
(-3.66763e-05 0.000745344 -7.58726e-19)
(-0.044139 0.0375436 -1.06013e-17)
(-0.0391972 0.0410772 4.41435e-18)
(-0.0380958 0.0396902 1.4656e-18)
(-0.00741203 0.00455414 2.76507e-17)
(0.00276465 0.00430949 1.76137e-17)
(0.00403557 0.0035416 -1.57958e-17)
(-0.231401 -0.106178 6.48623e-18)
(-0.253847 -0.112077 -3.00125e-17)
(-0.000292497 -0.000174346 -2.66037e-19)
(-0.000304719 -0.000178447 6.71926e-19)
(-0.000302655 -0.000154441 5.87999e-19)
(-0.000167329 0.000763453 6.63832e-18)
(-0.000165325 0.00078993 3.16377e-18)
(1.11466e-06 2.91234e-05 -1.73621e-18)
(-9.82431e-06 9.27241e-05 -1.61349e-18)
(-1.15921e-05 8.92127e-05 3.26177e-19)
(-1.47753e-05 0.000111789 1.12962e-18)
(0.00384486 0.0572605 -8.53448e-18)
(0.00326088 0.0558046 6.43448e-18)
(0.000777825 0.0117089 5.32251e-17)
(0.000743118 0.0118575 4.63119e-17)
(-0.00135725 0.0123138 -4.52487e-17)
(0.0238989 0.00267008 2.77528e-17)
(0.0248579 0.00263475 1.70688e-17)
(0.0236425 0.00170887 -1.42104e-17)
(-0.000458256 0.000821362 1.56955e-19)
(-0.000507017 0.000882091 -3.87867e-19)
(-0.000106597 0.000757002 -4.7957e-18)
(-0.000118671 0.00076653 -6.29481e-18)
(-0.000111406 0.000785864 7.17241e-19)
(0.00594695 -0.00439664 -5.04611e-18)
(0.0060246 -0.00394973 -4.25367e-18)
(0.00648114 -0.00432945 1.118e-19)
(-6.75256e-05 0.000965161 1.02797e-18)
(-6.98795e-05 0.000967818 -1.37113e-18)
(-8.18772e-05 0.000960042 -4.21161e-18)
(0.00409627 0.0634554 2.19579e-17)
(0.00526007 0.0625447 -1.86409e-17)
(0.00406665 0.0637538 1.51005e-17)
(-2.07136e-06 0.00095088 7.91765e-19)
(-1.70312e-05 0.000944049 3.03313e-19)
(-6.00264e-06 0.000934585 -8.09784e-18)
(-0.0384179 0.0429542 -4.96613e-18)
(-0.0420188 0.0413888 3.44986e-18)
(-0.0362228 0.0459594 -2.88542e-18)
(-0.00281656 -0.0276633 -1.68331e-17)
(-0.00381843 -0.0264487 1.07819e-18)
(-0.0414712 0.0214812 -1.96144e-18)
(-0.0329214 0.0255663 -2.23352e-17)
(-0.0308608 0.0234991 6.66787e-18)
(-0.00725072 -0.0128579 -1.0701e-17)
(-0.00704882 -0.0136306 -5.32355e-18)
(-0.00652876 -0.0130845 -1.02323e-17)
(0.00269438 -0.00613239 -3.94362e-18)
(0.00276564 -0.00660833 6.19133e-18)
(1.0214e-05 0.000961754 -2.81416e-18)
(6.95577e-06 0.00096741 -1.8241e-18)
(-0.0143608 -0.00728642 1.03981e-18)
(-0.014932 -0.00779235 -1.00688e-17)
(-0.0151445 -0.00689988 1.11164e-18)
(0.0374032 0.00238417 3.16033e-17)
(0.0349037 0.00331297 -2.63597e-17)
(0.00429404 -0.042903 -1.65248e-17)
(-0.00139633 -0.0412613 -3.70732e-18)
(0.00314501 -0.0426725 2.08139e-17)
(0.00739192 -0.0438494 -3.30742e-17)
(0.00544313 -0.0425067 -4.14319e-17)
(-0.000311614 -0.00531442 6.54309e-19)
(5.18196e-06 -0.00533657 -1.92908e-18)
(-0.000183872 -0.00505986 -5.09472e-18)
(-0.000530828 -0.000364986 -1.54126e-19)
(-0.000514898 -0.000367838 -4.39273e-19)
(-0.000513868 -0.000361927 -1.30747e-18)
(-0.000644812 0.00173641 1.14419e-17)
(-0.000719884 0.00182218 -1.597e-19)
(-0.00259745 -0.00335947 -9.88473e-19)
(-0.00264144 -0.00313307 7.26317e-20)
(-0.00241072 -0.003227 1.39436e-18)
(-0.00316245 -0.00773979 -3.56699e-18)
(-0.00279665 -0.00749085 -9.79822e-19)
(-0.00324283 -0.00720216 1.70043e-18)
(-0.0201269 0.00585727 1.17725e-18)
(-0.0192974 0.00621965 1.32608e-17)
(-0.0201785 0.00694842 -3.93817e-18)
(-0.0463227 -0.023323 1.31598e-17)
(-0.0569908 -0.0213509 -2.53051e-17)
(-0.035505 -0.0258933 1.03875e-17)
(0.00595415 -0.00485841 -2.56829e-18)
(0.00554848 -0.00448999 8.87752e-18)
(-2.42069e-06 6.29687e-05 -3.045e-20)
(-8.97914e-08 3.92313e-05 -1.97353e-18)
(-0.0139752 -0.0106715 9.75744e-19)
(-0.0142997 -0.0111726 1.33574e-18)
(-0.014702 -0.0104232 4.83574e-18)
(0.00968914 0.0525478 -5.20641e-17)
(0.00961639 0.0551957 1.24562e-17)
(0.0063554 0.0538678 -5.99594e-17)
(-0.00354495 -0.00781001 -7.54431e-19)
(-0.000828717 0.00070755 3.21004e-18)
(-0.000893907 0.000713348 -9.62678e-19)
(-0.000841952 0.000644525 -1.73053e-18)
(-0.00163978 -0.0219802 -2.87127e-17)
(-0.000848019 -0.0228728 -1.952e-17)
(-0.00049911 -0.0217747 -2.48406e-19)
(0.0323883 -0.0140853 1.75441e-17)
(0.0309027 -0.0158584 -6.65549e-18)
(0.0431289 -0.0161807 -3.10572e-17)
(-0.0137187 0.0152817 -8.09027e-18)
(-0.013164 0.0154961 3.8479e-18)
(-0.0131022 0.0160898 -1.89183e-17)
(1.35791e-05 0.000953304 -6.92489e-20)
(2.72231e-05 0.00096243 4.25748e-18)
(-0.0235444 0.0320657 4.60195e-18)
(-0.0222723 0.0345962 1.7633e-17)
(-0.00055276 -0.000356461 -1.54302e-18)
(-0.000562906 -0.000367901 1.90182e-18)
(2.08703e-05 0.000933542 -3.24782e-20)
(-0.000216597 0.000726752 -1.307e-18)
(-0.000203979 0.00071814 -1.88113e-18)
(-0.000195029 0.000740606 5.72465e-19)
(0.0170773 0.001787 8.83598e-18)
(0.024209 -0.00300604 2.91206e-18)
(0.022465 -0.00138454 -1.31513e-18)
(-0.00429969 -0.00152859 -8.53554e-20)
(-0.00422853 -0.00178782 -1.50464e-19)
(-0.000148152 0.000574806 -3.48632e-18)
(-0.000168979 0.000588569 4.29579e-19)
(-9.45018e-05 0.000622482 4.95649e-19)
(-0.000133954 0.000618492 -3.76687e-19)
(-0.000123852 0.00064087 2.49581e-18)
(-0.0257066 0.00949286 1.62458e-18)
(-0.0309243 0.0109385 -2.23576e-17)
(-0.0280652 0.0105149 8.15615e-18)
(-0.0136808 -0.00984611 -1.18869e-17)
(-0.0142885 -0.00896771 -2.19414e-18)
(-0.000361972 0.000536945 -2.85614e-18)
(-0.000365642 0.000521752 2.38078e-18)
(-0.0319284 -0.0165083 -3.74697e-19)
(-0.0344159 -0.0153385 -8.08175e-18)
(-0.000505876 0.000651317 2.16673e-18)
(-0.000491687 0.000615013 4.57069e-18)
(-0.00052358 0.000620185 2.43241e-18)
(-0.00125967 -0.0239793 -1.00612e-17)
(-0.00252533 -0.0241506 6.58776e-19)
(-0.000442103 -0.00559251 5.82827e-18)
(-0.000613598 -0.00528212 7.26549e-18)
(0.000252935 -0.000625414 -9.42902e-20)
(0.000235782 -0.000572891 7.20669e-20)
(-0.00205745 0.0128831 -4.40446e-17)
(-0.00212609 0.0131609 -3.51619e-17)
(-0.00182438 0.0130724 -2.50773e-18)
(0.000536345 -0.00234111 1.70228e-18)
(0.000384388 -0.00239038 2.60954e-18)
(0.000397727 -0.00221782 3.61521e-19)
(-0.0328128 0.000572545 -2.4287e-17)
(-0.0300661 0.000608974 -2.12823e-17)
(-0.0810802 -0.043824 1.53588e-17)
(-0.0542322 -0.0385383 -1.34343e-17)
(-0.0737077 -0.0494413 6.03551e-18)
(0.000123527 -0.00274648 3.85293e-20)
(-5.36884e-05 -0.00274863 -4.90335e-19)
(1.29439e-05 -0.00257945 3.66347e-19)
(-0.000280671 -0.000168927 -1.9047e-18)
(-0.000269796 -0.00016203 -1.3983e-18)
(-0.000280763 -0.000143022 -2.99107e-18)
(-2.4383e-05 0.000255487 1.24529e-18)
(-1.7178e-05 0.000215335 -4.53818e-18)
(-1.76829e-05 0.000221697 3.00021e-18)
(-0.000789853 0.000711186 3.60631e-19)
(-0.000822822 0.000753178 -1.09602e-18)
(0.0123936 0.00134391 -1.61466e-17)
(0.0115118 0.00187081 1.59263e-17)
(0.0130706 0.00153111 2.08833e-17)
(0.0347974 -0.00784289 -1.84242e-17)
(0.036477 -0.00723988 -1.67842e-17)
(0.0359113 -0.00800322 1.3327e-17)
(-0.0121093 0.0570255 2.6592e-17)
(-0.00718057 0.0590059 -1.66933e-17)
(-0.0130588 0.0575011 -6.32409e-18)
(-0.000459223 -5.19286e-05 -7.41378e-19)
(-0.000444226 -6.29663e-05 1.1447e-18)
(-0.0234248 -0.0165375 -1.40169e-17)
(-0.0238656 -0.0176667 9.50384e-18)
(-0.0103264 0.011762 -1.40207e-19)
(-0.0109543 0.0114047 4.99869e-19)
(-0.010367 0.0111191 -6.30768e-19)
(-0.00158669 0.0137813 3.8898e-17)
(-0.00117682 0.0137104 -3.57145e-18)
(-0.00141794 0.0134866 -9.56777e-18)
(-0.000226491 0.000699753 -3.68351e-20)
(-0.000244975 0.000695586 -2.32682e-18)
(-0.000248499 0.000668506 -3.07637e-18)
(-0.00272832 -0.0041532 9.99361e-19)
(-0.00295684 -0.00399065 -1.75108e-18)
(-0.00266314 -0.00391427 -3.47831e-18)
(-0.0492242 0.0332842 -1.69419e-19)
(-0.0510143 0.0333735 -3.2923e-17)
(0.0210902 -0.0102768 4.70189e-17)
(-0.00197932 -0.0287616 -4.21944e-18)
(-0.00357437 -0.0287746 -1.19341e-17)
(-5.02403e-05 0.000953672 2.82366e-18)
(-3.32857e-05 0.000952702 2.41314e-20)
(-4.95313e-05 0.000973684 -2.21519e-18)
(-4.02679e-05 0.000971275 8.2172e-19)
(-5.09384e-05 0.000966409 8.0463e-19)
(-0.000280536 -0.000192157 1.07216e-18)
(-0.053331 0.0159817 1.827e-17)
(-0.0551201 0.0169378 -6.90674e-18)
(0.0469823 -0.00674353 6.01221e-17)
(0.0479042 -0.00893301 1.99239e-17)
(0.0276518 -0.00183948 1.60454e-17)
(0.0202348 0.0010718 -7.20263e-18)
(-0.146614 -0.0605772 8.57437e-18)
(-0.128669 -0.0479489 -1.0144e-17)
(-0.00169387 -0.000654858 -4.7308e-19)
(-0.0016157 -0.00062038 -2.51941e-18)
(-0.00159806 -0.000706789 -2.29993e-18)
(-0.0284907 0.0680032 -7.66344e-17)
(-0.00811683 0.0718255 -7.23276e-17)
(-0.0306374 0.0812146 1.2216e-17)
(-0.0002115 0.0117661 -2.57289e-17)
(-0.000102845 0.0117678 -5.37937e-17)
(-0.000285973 0.0119214 4.39008e-17)
(-0.000713474 0.00421683 1.4499e-17)
(-0.000534752 0.00425107 -7.76775e-18)
(-0.000566797 0.00405276 2.36609e-17)
(0.00159061 -0.00109788 6.8195e-20)
(0.00146788 -0.00110913 9.33289e-19)
(0.00148035 -0.00100244 -9.94389e-20)
(-0.00218415 0.00249915 -4.9589e-18)
(-0.00210121 0.00237011 -2.41653e-18)
(-0.00203939 0.00248758 -2.91224e-18)
(-0.000231943 0.012235 -8.28642e-18)
(-0.000450128 0.0127895 5.19159e-17)
(-0.000481655 0.0121089 1.92735e-17)
(0.0001222 -0.000144323 1.01528e-19)
(0.000133694 -0.000154213 5.27148e-19)
(0.000118923 -0.000155332 -7.25453e-19)
(-0.000467429 0.000387735 4.31714e-18)
(-0.00046916 0.000375432 -4.0528e-18)
(-2.49242e-05 0.000419915 2.51964e-18)
(-2.70697e-05 0.000408894 -4.74479e-20)
(-1.97312e-05 0.000357764 -4.32266e-18)
(-0.000438445 0.00100662 -5.62581e-18)
(-0.000448962 0.00108239 -6.58285e-18)
(-0.000500491 0.00102285 3.30267e-18)
(0.000477047 -0.000685985 -3.39882e-19)
(0.000515838 -0.000683382 5.42922e-19)
(0.000489678 -0.000633548 -1.61857e-19)
(-0.00200849 -0.00953151 -1.66117e-18)
(-0.00253734 -0.00953081 -4.06036e-18)
(-0.00231525 -0.0100622 -1.83077e-18)
(0.000414363 -0.00677902 -7.89249e-18)
(0.000204288 -0.00709562 7.90265e-19)
(0.000665296 -0.00707977 -9.26933e-19)
(0.00210535 0.0664233 -1.36536e-17)
(0.0028573 0.067354 1.32658e-17)
(0.00239387 0.0670321 1.73991e-17)
(-4.83701e-05 0.00072846 6.56356e-18)
(-7.55311e-05 0.000752298 -4.75141e-18)
(-8.62493e-05 0.000714701 8.64094e-19)
(-0.00633738 -0.00415974 -3.95788e-19)
(-0.00595025 -0.00416349 -1.28571e-18)
(-0.00617567 -0.00377891 4.01171e-18)
(0.000292258 -0.00274268 -2.648e-18)
(0.000240908 -0.00292017 5.00931e-19)
(-0.00124731 0.0017022 -1.2336e-17)
(-0.00115433 0.00165809 -8.36236e-18)
(-0.00121985 0.00160161 1.81051e-18)
(-0.00477026 0.0153758 4.6552e-18)
(-0.00410232 0.015217 6.23684e-18)
(-0.00431493 0.0160069 -7.33433e-19)
(-0.013191 -0.0105657 7.45209e-20)
(0.0101167 0.050033 2.33882e-17)
(0.0134804 0.0502455 -3.77001e-17)
(8.66244e-05 -0.000135792 1.72205e-19)
(8.69197e-05 -0.000127461 4.23709e-19)
(7.65246e-05 -0.000134715 7.47181e-19)
(-0.00355363 0.0459878 2.69846e-17)
(-0.00113133 0.0450575 -1.58491e-17)
(-0.00311101 0.00218075 6.30283e-18)
(-0.00327858 0.00229786 6.10031e-19)
(0.015082 -0.0154792 -9.03539e-19)
(0.0159118 -0.0166313 -5.50995e-18)
(0.0165024 -0.0152596 -3.86609e-18)
(-0.000838532 -0.00073731 -5.63473e-19)
(-0.000818817 -0.000792528 5.59198e-19)
(-0.0210873 0.00553296 -1.04051e-18)
(-0.0202298 0.0049032 6.39767e-18)
(-9.53299e-05 0.000722471 -1.75994e-18)
(-9.34711e-05 0.00074857 -1.58874e-19)
(-0.000818062 0.00875957 1.49039e-17)
(-0.000682471 0.00851823 -3.08788e-17)
(-0.000490836 0.00883087 -1.16643e-17)
(-0.0138536 -0.00664058 1.50189e-18)
(-0.0141715 -0.00584903 2.03771e-19)
(0.000424477 -0.00067203 -2.63607e-19)
(0.000446819 -0.00073322 4.89381e-20)
(0.00135443 0.0132162 4.56019e-19)
(0.00164247 0.013363 4.55502e-18)
(0.00152535 0.0134873 1.44091e-17)
(-0.0144292 0.0509336 2.21189e-17)
(-0.0230771 0.0478694 1.4056e-18)
(-0.0145536 0.0484686 -1.30341e-17)
(-0.0104097 -0.000700576 -1.33186e-18)
(-0.0101462 -0.00123149 -1.01796e-18)
(-0.000665185 0.000147064 2.26632e-18)
(-0.000638085 0.000174051 2.15539e-19)
(-0.000664699 0.000178114 2.23036e-18)
(-0.00819424 -0.0155596 7.09117e-18)
(-0.00831944 -0.0147671 2.04691e-18)
(-0.0090896 -0.0151723 1.03824e-17)
(-0.00819018 0.0290609 2.41924e-18)
(-0.0101443 0.033499 2.23398e-17)
(-0.0221783 0.0282516 -1.2634e-17)
(-0.00131381 0.00861037 -8.44787e-18)
(-0.00105033 0.00868418 2.91061e-17)
(-0.0011984 0.00837093 4.07784e-18)
(-0.00133141 0.00886701 -1.7613e-17)
(-0.00154467 0.00857784 2.00378e-17)
(0.00398652 0.066694 -1.27049e-17)
(0.00441478 0.0659578 5.384e-18)
(0.00482113 0.0659836 -1.4998e-17)
(-0.00629996 -0.0363286 2.36276e-18)
(-0.00470175 -0.037477 -2.19217e-17)
(-0.00662457 -0.038191 2.70719e-17)
(0.0138125 -0.0154459 1.16983e-17)
(0.0143811 -0.0142894 5.77561e-19)
(0.00107194 -0.0151663 5.38164e-20)
(0.000118381 -0.0149952 3.02077e-18)
(-0.000175354 0.0115609 2.49644e-17)
(6.32669e-06 0.0117471 2.02543e-17)
(0.0010026 -0.00055472 -3.00532e-20)
(0.00106517 -0.000534508 -1.45659e-19)
(0.00100055 -0.000490518 -3.6269e-19)
(-0.0215784 0.0532675 1.77484e-17)
(0.0218535 0.00353575 -3.80883e-17)
(0.0226833 0.00253829 2.5938e-17)
(0.000112954 -0.000138273 4.36241e-20)
(0.000124478 -0.000135706 1.89409e-19)
(-1.14958e-05 0.000323524 -1.76063e-18)
(-1.3314e-05 0.000330454 1.77767e-19)
(-6.51523e-06 0.000273143 -5.08763e-19)
(-0.0599811 -0.000823343 1.46647e-17)
(-0.0669963 -0.00362962 -5.67068e-18)
(-0.000609452 0.000474671 1.20829e-18)
(-0.00063671 0.000446173 -1.12095e-18)
(-0.000654839 0.000482993 4.81566e-18)
(-7.89841e-06 8.08386e-05 9.78317e-20)
(-1.01766e-05 0.000101277 -1.39108e-18)
(-0.0110166 -0.0275755 -2.34323e-18)
(-0.0123541 -0.0272197 -8.93852e-18)
(-0.010993 -0.0263704 -8.30448e-19)
(-0.0136451 -0.0268052 7.08828e-18)
(-0.0135611 -0.0256318 4.53787e-18)
(-0.0153021 -0.026305 -4.45886e-18)
(-0.00181896 -0.000639634 1.07747e-18)
(-0.00255741 -0.00436889 3.60441e-18)
(-0.00284835 -0.00442895 1.48664e-18)
(-0.00669203 -0.00418083 1.3382e-18)
(-0.00642995 -0.0045219 4.32927e-18)
(-0.00623056 0.00573786 4.18515e-18)
(-0.00584399 0.005743 3.13221e-18)
(-0.0060881 0.00607582 -4.98151e-18)
(-0.00211639 -0.00496772 4.27521e-18)
(-0.00189565 -0.00476851 -9.72254e-20)
(-0.00181621 -0.00504588 -3.21181e-18)
(-0.000208014 0.000701773 1.38141e-18)
(-0.0108483 0.00254014 -1.15642e-20)
(-0.0108938 0.00212742 -6.90751e-20)
(-0.0104386 0.00234234 1.88909e-19)
(0.00259279 0.0695841 -1.41368e-17)
(0.00227436 0.0706329 -8.2902e-18)
(0.00264238 0.0700488 -4.69294e-17)
(0.000374569 -0.000643652 1.95617e-19)
(0.000401017 -0.000603905 1.942e-19)
(-0.0135198 0.0548549 -2.51086e-17)
(-0.0126925 0.056217 2.46415e-17)
(-0.00594358 0.0573263 6.293e-18)
(-3.50417e-06 0.000128045 1.62304e-19)
(-5.83729e-06 8.695e-05 -7.79502e-20)
(-6.61176e-05 0.000413309 -6.16696e-19)
(-5.48805e-05 0.000384845 -1.5423e-18)
(-6.50337e-05 0.000430627 1.07267e-18)
(0.000102902 -3.708e-05 1.97519e-18)
(9.69709e-05 -4.14322e-05 -1.93727e-18)
(0.000104239 -4.02389e-05 2.34642e-18)
(0.00301473 0.0644164 1.79483e-17)
(5.45075e-05 0.000788124 7.97166e-19)
(4.63769e-05 0.000766746 5.16377e-18)
(3.06402e-05 0.000791744 1.94883e-18)
(-0.0233146 0.00833171 -1.79223e-18)
(-0.0146287 0.00908542 2.30062e-17)
(-0.015825 0.0474595 1.23084e-17)
(-0.0169155 0.0458312 -7.01504e-18)
(-0.0181515 0.0471233 1.55761e-18)
(-0.00011992 0.000311094 1.73947e-18)
(-0.000120274 0.000326044 -1.86167e-18)
(-0.000134832 0.000322661 1.82336e-19)
(-8.6929e-05 0.000682927 2.49995e-18)
(-9.8007e-05 0.000699673 2.64305e-18)
(-0.0225134 -0.00109044 -2.76264e-17)
(-0.0296084 -0.00307233 2.20763e-18)
(-0.0303528 -0.00173747 -2.8588e-18)
(9.68741e-05 -2.78197e-05 -4.04907e-19)
(0.000110742 -2.74862e-05 3.93591e-19)
(-7.6079e-06 0.000187712 -3.13935e-18)
(-8.18937e-06 0.000184977 -5.66132e-19)
(-1.08348e-05 0.000236468 -3.49352e-18)
(0.000136873 -2.66809e-05 6.03754e-19)
(0.00012933 -2.82723e-05 -1.19561e-19)
(0.000130068 -1.88527e-05 -1.07293e-19)
(-0.0141782 0.047552 1.43327e-17)
(-0.0148628 0.0492322 3.95535e-18)
(-0.0021898 0.0126529 9.79712e-19)
(-0.00188877 0.0125732 -4.52777e-17)
(-0.00190713 0.00374885 -2.51163e-18)
(-0.00184548 0.00358662 -7.21629e-18)
(-0.00202585 0.00363449 -7.3013e-19)
(-0.00627836 0.0156069 6.46186e-19)
(-0.00663824 0.0148517 -2.90006e-18)
(-0.00713829 0.015522 1.96358e-18)
(-0.0123344 -0.0222704 -2.27895e-18)
(-0.0126361 -0.0212897 -4.35001e-18)
(-0.0115733 -0.0215335 -5.8552e-18)
(-0.0841578 -0.035857 3.34326e-17)
(-0.00559517 0.0609576 -2.00665e-17)
(-0.00418704 0.0620586 2.37067e-17)
(-0.00472476 0.0573711 4.60516e-18)
(-0.000222716 -0.00275509 -1.26773e-18)
(-0.000114566 -0.00294849 2.42453e-19)
(0.0250808 0.0945811 8.50029e-17)
(0.00705449 0.0880357 -3.8699e-17)
(0.0211108 0.106947 4.76266e-17)
(-6.15308e-06 7.71472e-05 -1.15563e-18)
(-6.56521e-06 0.000117417 5.41859e-18)
(-4.05717e-06 7.52496e-05 8.53381e-19)
(0.00715575 0.0301915 6.47602e-18)
(-0.00597185 0.0241072 -3.31348e-18)
(0.00453209 0.0174406 2.61664e-17)
(0.000160102 0.0100219 2.50121e-17)
(0.00734014 0.0075206 -7.73667e-18)
(0.00337961 0.0628125 2.1458e-17)
(0.000349979 0.0624669 -2.75661e-17)
(0.00339863 0.0629107 -5.61454e-18)
(-0.0350731 0.0444738 -1.14733e-18)
(-0.00562818 -0.034932 -1.39009e-17)
(-0.00778172 -0.0354956 2.47308e-18)
(0.000331484 -0.00534614 -3.11398e-19)
(0.000229445 -0.00562408 5.85714e-19)
(-0.0112624 -0.00867702 -4.48587e-18)
(-0.0117156 -0.00807641 -4.07499e-18)
(0.00014278 -0.00647625 2.18768e-19)
(0.000581108 -0.00648284 3.98693e-18)
(0.00171922 -0.00108506 5.35141e-19)
(0.00182147 -0.00103563 4.133e-19)
(0.00169468 -0.000961973 -1.08783e-18)
(0.000932384 -0.00301524 1.03445e-18)
(0.00100036 -0.00319518 5.88436e-19)
(0.00113467 -0.00306094 -4.49238e-19)
(-0.0055442 0.0154483 4.00619e-18)
(-0.00512008 0.0147427 1.83504e-18)
(-0.00215911 0.00440712 8.96323e-18)
(-0.00198471 0.0044925 1.66584e-18)
(-8.01436e-05 0.000671993 -3.1201e-19)
(-7.6311e-05 0.000646672 2.23041e-18)
(-8.3514e-07 1.11615e-05 2.78164e-18)
(-7.26876e-08 4.79052e-06 1.20145e-18)
(-1.30377e-07 5.21326e-06 6.55531e-19)
(9.77888e-05 -0.000143428 -6.58476e-20)
(8.24633e-05 -0.000147582 -3.14822e-19)
(0.000228647 -1.24141e-05 2.30256e-19)
(0.000239519 -7.38104e-06 -2.78685e-20)
(0.000226793 -1.49752e-05 3.94271e-20)
(0.000345669 -0.000684173 -3.34991e-19)
(-0.00323547 0.0513675 -1.60572e-18)
(-0.00398385 0.0537526 1.57373e-17)
(-0.000591541 0.0520081 -1.80724e-17)
(-0.000339566 -0.00020226 -1.08537e-18)
(-0.000323266 -0.000219804 -1.88758e-18)
(-0.00032687 -0.00018959 -9.1796e-19)
(-0.000716654 -0.000669376 -9.77208e-19)
(-0.000703563 -0.00062543 -2.45965e-19)
(-0.000773808 -0.000643243 -2.94734e-19)
(0.000242871 -9.56999e-06 2.75262e-20)
(0.000244721 -8.14682e-06 -2.11039e-19)
(0.000230787 -1.14348e-05 3.4148e-19)
(-0.000420314 9.26578e-09 9.92567e-19)
(-0.000423768 -4.05545e-05 1.32412e-18)
(0.00301075 0.0743816 5.86556e-18)
(0.00228175 0.0739645 1.564e-17)
(0.00208988 0.0774838 -1.41481e-17)
(-0.0141915 0.0146339 -4.16323e-18)
(-0.0149345 0.0162339 2.30437e-17)
(0.00129631 0.00945156 -3.86439e-17)
(0.0010886 0.00935071 -1.56987e-17)
(0.00101542 0.0095737 3.64826e-17)
(-0.00049676 0.00258215 5.72402e-18)
(-0.000568886 0.00269156 -7.53426e-18)
(-0.000436823 0.00270729 8.87611e-18)
(-0.00273454 -0.022214 -1.91644e-17)