/*--------------------------------*- C++ -*----------------------------------*\
| =========                 |                                                 |
| \\      /  F ield         | OpenFOAM: The Open Source CFD Toolbox           |
|  \\    /   O peration     | Version:  v2012                                 |
|   \\  /    A nd           | Website:  www.openfoam.com                      |
|    \\/     M anipulation  |                                                 |
\*---------------------------------------------------------------------------*/
FoamFile
{
    version     2.0;
    format      ascii;
    class       volScalarField;
    location    "550";
    object      k_0;
}
// * * * * * * * * * * * * * * * * * * * * * * * * * * * * * * * * * * * * * //

dimensions      [0 2 -2 0 0 0 0];


internalField   nonuniform List<scalar> 
18355
(
0.000274562
0.000137068
0.000198463
0.000140886
0.000217349
0.00431749
0.000146149
0.000219591
0.000151873
0.0033425
0.000157857
0.000189361
0.000190941
0.000361345
0.000142803
0.000135538
0.000140868
0.000153835
0.000212119
0.000152792
0.0003662
0.000149052
0.000136936
0.00418684
0.000137008
0.00014876
0.000146415
0.000141002
0.000152569
0.000159005
0.000915609
0.000185342
0.000137814
0.000134301
0.000145001
0.000150554
0.000160144
0.000150852
0.000159819
0.000148384
0.000151204
0.000158861
0.000134472
0.000136876
0.000136981
0.000227428
0.000141102
0.000140978
0.00113863
0.000144749
0.000142197
0.000356861
0.000145145
0.000215356
0.000143077
0.000153033
0.000144805
0.000779256
0.00014935
0.0237452
0.000134406
0.000181283
0.000215301
0.00014537
0.000197367
0.000140234
0.0001547
0.000160271
0.000133997
0.0084364
0.000142119
0.000143107
0.000176337
0.000155805
0.00134006
0.000134166
0.000875478
0.000134271
0.000141824
0.00169742
0.000154591
0.00273746
0.0001341
0.000156949
0.000183515
0.000149381
0.000153267
0.000174281
0.000140436
0.000174552
0.00207415
0.000321934
0.00273998
0.00014467
0.00727217
0.00014765
0.000139997
0.000145474
0.000188388
0.000148646
0.000181134
0.000141505
0.000144323
0.000130538
0.00015515
0.000135651
0.000196836
0.00717117
0.00016709
0.000135134
0.000141698
0.000147155
0.000167825
0.000156364
0.000801679
0.000161485
0.000141243
0.0026575
0.00015246
0.000154218
0.00719089
0.000192925
0.00394581
0.000179357
0.00278747
0.00025224
0.000146402
0.000141218
0.000278479
0.000147568
0.000140068
0.0022542
0.000143381
0.00018472
0.000212549
0.000140497
0.000210897
0.00643211
0.000142362
0.000336311
0.000157305
0.000205413
0.00014084
0.00060471
0.00021405
0.00014653
0.0324495
0.000131384
0.000167415
0.00551351
0.000140925
0.000154058
0.000144895
0.000196228
0.00013459
0.000138272
0.000141386
0.00014928
0.000140915
0.000139304
0.000154676
0.000143494
0.000135202
0.00022496
0.000156344
0.00230318
0.0331089
0.000304959
0.0108129
0.000157271
0.000146296
0.00018367
0.000148388
0.00206009
0.000145411
0.00015057
0.000146423
0.000130218
0.000151535
0.000163503
0.00014962
0.0018715
0.000148402
0.000141271
0.000871295
0.000144178
0.000150236
0.000173881
0.000143308
0.000147033
0.000229492
0.000187644
0.000137342
0.000134858
0.000143816
0.0024876
0.000139381
0.00031546
0.000137168
0.000380664
0.000143869
0.000152415
0.000160036
0.000149402
0.000295822
0.000146829
0.0091488
0.000141238
0.000137262
0.000144477
0.000146685
0.00389017
0.000154505
0.000148722
0.000131546
0.00301943
0.000163583
0.000156911
0.000147016
0.000141219
0.000165951
0.00013409
0.00017215
0.000196349
0.000222714
0.000159799
0.000134276
0.00485846
0.000253254
0.000171262
0.000145103
0.000155195
0.00366058
0.000134255
0.000220315
0.000191674
0.000149176
0.000235046
0.000155731
0.000148911
0.000137405
0.00015126
0.000146215
0.000169354
0.000146831
0.000143085
0.000140918
0.00357097
0.00536499
0.000142736
0.00014793
0.00540649
0.000195329
0.000191108
0.000130251
0.000219317
0.000155752
0.000147397
0.000159027
0.000139628
0.00554943
0.00031704
0.000185362
0.000161716
0.000160994
0.000195034
0.00024636
0.000191049
0.000139583
0.000143125
0.000148235
0.0001352
0.00015262
0.000157168
0.000140648
0.00014673
0.000167215
0.000140352
0.000199989
0.008148
0.000163495
0.00014692
0.000162652
0.000135075
0.000174494
0.000146207
0.000165034
0.000148645
0.000163931
0.00582812
0.00013753
0.000173109
0.000152103
0.000158423
0.000247969
0.000145159
0.000134659
0.000197351
0.000146714
0.000238218
0.000160091
0.00241258
0.000174708
0.00018599
0.000152877
0.000169478
0.000144349
0.000154284
0.000161205
0.000173202
0.00147345
0.00920968
0.000142143
0.000159576
0.000209989
0.000163761
0.000142074
0.000140912
0.000140944
0.000173135
0.009158
0.0488927
0.00138969
0.00016596
0.000156684
0.00257086
0.000131285
0.000146616
0.000156618
0.000144137
0.000171392
0.000144209
0.0039533
0.000135958
0.00289137
0.000143512
0.000148206
0.000153862
0.000192547
0.000330488
0.000169502
0.000994332
0.000148841
0.000140551
0.000144024
0.000158788
0.00384849
0.000140766
0.00014533
0.00322306
0.000148562
0.000140884
0.000195674
0.000156483
0.000140933
0.000144413
0.00016632
0.000151787
0.000166153
0.000135633
0.000145272
0.000148424
0.0154617
0.000943943
0.000135332
0.000140657
0.000192146
0.000141012
0.000148031
0.00283882
0.00104133
0.000171179
0.000143859
0.000149405
0.000190974
0.000148934
0.000229586
0.000154412
0.000136731
0.000190449
0.000212626
0.000147949
0.000144144
0.000153882
0.00014628
0.000154698
0.000143766
0.000217548
0.000146402
0.000153497
0.000142669
0.000140992
0.000152357
0.00015004
0.000178832
0.0561929
0.00194109
0.000153947
0.000195376
0.000182007
0.000143725
0.000143812
0.000171506
0.000143323
0.000172653
0.000145387
0.000159038
0.00243345
0.000432992
0.000323166
0.000188958
0.000130668
0.0475042
0.000148657
0.000140579
0.000433943
0.000143083
0.00017423
0.000137398
0.000204798
0.000143049
0.000182479
0.00506203
0.00018303
0.000144121
0.000137568
0.000183844
0.000152475
0.000142809
0.00283487
0.00027039
0.000140518
0.000171932
0.000178968
0.000137489
0.000149408
0.000167588
0.00303369
0.00017278
0.000148554
0.000144702
0.000168282
0.000144551
0.000136094
0.000143673
0.000287954
0.0556653
0.000136512
0.00015138
0.00014512
0.000194279
0.00021027
0.00013487
0.000174411
0.000172474
0.000145256
0.00296171
0.000181703
0.000148624
0.000146004
0.000171678
0.00019625
0.000790117
0.000136282
0.000332529
0.000142867
0.000136493
0.000176976
0.000152888
0.000222829
0.000176459
0.000153856
0.000156872
0.000149086
0.000194545
0.000152904
0.000160341
0.000148849
0.00013603
0.000147943
0.000136232
0.000182046
0.0561583
0.000204256
0.000154597
0.000147092
0.000148835
0.000145855
0.000152839
0.00014655
0.00013546
0.000143721
0.000174574
0.000137524
0.000146481
0.00538466
0.000319114
0.000211287
0.000147403
0.000150907
0.000167754
0.000148863
0.00572594
3.68774e-05
0.000158274
0.000157071
0.000158491
0.00015048
0.000154508
0.0461645
0.00016825
0.000149244
0.00597821
0.000146935
0.000319879
0.0462904
0.000156383
0.000149178
0.0478949
0.000140715
0.000181901
0.000186514
0.0018472
0.000152898
0.000147798
0.000145136
0.000971834
0.00069232
0.00150457
0.00423053
0.000152672
0.000144998
0.000156955
0.000143146
0.000156966
0.000348004
0.00385103
0.0563738
0.0181412
0.000172298
0.000181804
0.000169713
0.00014117
0.000142192
0.000175372
0.000157842
0.000146409
0.000143095
0.00309024
0.000139913
0.016109
0.00016258
0.000182444
0.000192857
0.000142242
0.000156355
0.000290787
0.000143682
0.0563083
0.000143489
0.000292227
0.000168361
0.000149207
0.000169152
0.000190074
0.00019034
0.000150227
0.000134018
0.000167191
0.00015671
0.000183029
0.000143495
0.00018145
0.000139862
5.6763e-05
0.000146223
0.000143492
0.00020778
0.000186963
0.00019602
0.000144339
0.000157806
0.000155607
0.00363402
0.0517248
0.000155677
0.000220479
0.000145316
0.000162448
0.000148102
0.00015532
0.0509055
0.000136798
0.00184558
0.000146637
0.000145842
0.00015588
0.00568201
0.000152188
0.000205045
0.000149297
0.000166748
0.00516369
0.000131413
0.000140983
0.000307029
0.000173761
0.00447869
0.000177922
0.000147714
0.00014311
0.0001425
0.000155627
0.000149235
0.000136584
0.000232968
0.0139546
0.000143285
0.00636126
0.00490399
0.000156212
0.000208185
0.000136307
0.000264501
0.00117116
0.000132417
0.00503839
0.000170045
0.0165791
0.00376754
0.000143358
0.000142452
0.00014837
0.00136766
0.000172638
0.000144563
0.000149035
0.000229747
0.000148414
0.000170693
0.000143219
0.000168648
0.0541768
0.000600454
0.000260456
0.00067063
0.000175634
0.000516768
0.000157079
0.000140523
0.000160339
0.00361951
0.000198468
0.000171373
0.000144324
0.000246067
0.0001453
0.000147945
0.0237193
0.000149108
0.000161319
0.000194164
0.000200821
0.000144601
0.000142863
0.000155709
0.000158615
0.000134203
0.000146038
0.000171521
0.000219201
0.00015337
0.000145342
0.00017728
0.00527403
0.000143737
0.00050183
0.00139768
0.000145147
0.000413401
0.000134815
0.000200513
0.000143666
0.000138432
0.0002075
0.000153394
0.00128598
0.000153019
0.00014288
0.000450636
0.000143637
0.000134952
0.000145647
0.000140617
0.000162176
0.000172357
0.000335035
0.000151815
0.0563914
0.00015198
0.0003706
0.00725713
0.000149537
0.000143968
0.000157809
0.000136518
0.000185836
0.000142445
0.000134805
0.000135654
0.000144364
0.000143603
0.000232892
0.000155398
0.000174519
0.000152941
0.000159324
0.000153969
0.00017058
0.000323771
0.000137451
0.000181444
0.000179757
0.000134447
0.00446848
0.0538608
0.000141794
0.000219858
0.00014526
0.00375836
0.000166608
0.000132224
0.000167483
0.000159433
0.000319388
0.00014257
0.00015502
0.00102732
0.000214264
0.00103919
0.00014357
0.00169398
0.00017938
0.000260829
0.000143504
0.000152309
0.000143061
0.000146009
0.000141968
0.000144383
0.000136805
0.000233597
0.000166153
0.000141168
0.00013423
0.000140116
0.000148293
0.00020964
0.000179041
0.000137515
0.000158622
0.000146647
0.00014688
0.000145544
0.000140758
0.000198311
0.000134247
0.000140198
0.000149804
0.000147161
0.000154341
0.00014584
0.000410484
0.000312549
0.000155938
0.000140052
0.000195464
0.000134691
0.000134315
0.000145672
0.000972405
0.000154587
0.000144772
0.000135902
0.000137231
0.000156371
0.000133931
0.000158928
0.000142346
0.000148165
0.000141888
0.000152109
0.000305169
0.000140463
0.000148783
0.000143499
0.000212466
0.00196164
0.000159319
0.000149228
0.000182369
0.000163772
0.000203553
0.0424606
0.000149608
0.00139006
0.000148888
0.0189557
0.00015041
0.000136993
0.00013579
0.00909468
0.000135419
0.000159562
0.000220764
0.000199274
0.000179884
0.000154007
0.00014245
0.000143072
0.000143558
0.000160758
0.00019128
0.00376787
0.000175422
0.000145436
0.000133959
0.000154938
0.000141836
0.000140759
0.000148422
0.000174676
0.000161596
0.00271994
0.000145354
0.00014439
0.000172009
0.000143159
0.000196285
0.000175608
0.000176758
0.000192063
0.0244865
0.000161958
0.000141124
0.000134028
0.000147579
0.000142924
0.00855758
0.000172672
0.000185397
0.000136993
0.000147009
0.000153271
0.000140992
0.04001
0.000272864
0.000134338
0.000135774
0.000143368
0.000142009
0.000140828
0.000144417
0.000224148
0.000134822
0.000149651
0.000137008
0.000137875
0.000142092
0.000145788
0.000159314
0.00013783
0.000184171
0.000135881
0.00202006
0.000214726
0.000153672
0.00133747
0.000153567
0.00014878
0.000180071
0.00166852
0.0001445
0.000140332
0.000137035
0.000172429
0.000151122
0.00016186
0.000629445
0.000146224
0.000149297
0.000144646
0.0194749
0.000901232
0.000151941
0.000139716
0.000158536
0.000174406
0.000142283
0.000189334
0.000140282
0.000134048
0.000156196
0.000309534
0.00501203
0.0028564
0.000226146
0.000134682
0.000223998
0.00021384
0.000160646
0.000143537
0.000214013
0.000158278
0.000230673
0.000133901
0.000141667
0.000134739
0.00014469
0.000149868
0.000134891
0.001064
0.00283549
0.000134623
0.000146438
0.000148937
0.000168449
0.000144074
0.000142042
0.000184912
0.000148545
0.000142363
0.00200201
0.000189697
0.00018448
0.000142746
0.000136003
0.00013484
0.000145513
0.000170972
0.000204379
0.000140539
0.000139145
0.000153265
0.00143073
0.00013708
0.000143933
0.000189815
0.000140916
0.000139196
0.000143599
0.018834
0.000135817
0.000144478
0.00013715
0.000155467
0.00013581
0.000158865
0.000192717
0.000143968
0.000213783
0.000163382
0.000212249
0.000181016
0.000140825
0.000162281
0.000140439
0.000139069
0.000140838
0.00476543
0.00565689
0.000233849
0.000160258
0.000382723
0.000180383
0.000150101
0.000190576
0.000196678
0.000156166
0.000135651
0.00803348
0.000150161
0.0001408
0.000137985
0.00259746
0.00978328
0.000356293
0.000138895
0.000183143
0.00143251
0.000178075
0.000165153
0.000155403
0.000153121
0.000165883
0.00287066
0.000151422
0.000150308
0.000156698
0.0427042
0.000327157
0.000143992
0.00014663
0.000143119
0.0293889
0.000153512
0.000148657
0.000316382
0.000158804
0.000174469
0.000155325
0.00535435
0.000138589
0.0180637
0.000149797
0.000135865
0.000141184
0.000135664
0.000135935
0.000140728
0.000147919
0.000216463
0.000138152
0.0191758
0.000159472
0.000147497
0.000141278
0.000189029
0.000143331
0.000146418
0.000155913
0.00106596
0.000189524
0.000153398
0.000146395
0.042027
0.000138554
0.000176526
0.000146177
0.000374138
0.000166036
0.00600679
0.000159937
0.000142836
0.000213409
0.000149304
0.000257822
0.000137673
0.000143531
0.000167709
0.0516619
0.00013091
0.000178074
0.000143499
0.000157601
0.000140384
0.000134877
0.000148891
0.000150009
0.000135287
0.000174798
0.000173724
0.000160896
0.00019008
0.00946884
0.000150318
0.00126707
0.000136242
0.000185269
0.0171231
0.000198507
0.000134666
0.00014918
0.000145945
0.00108345
0.000144311
0.00014057
0.000182772
0.000146235
0.000146201
0.000151047
0.000149589
0.000142885
0.0469671
0.00694283
0.000180305
0.000139161
0.000145251
0.000245339
0.000136164
0.000277323
0.000147119
0.000145745
0.000149251
0.000158014
0.000222776
0.00014188
0.00014512
0.000317063
0.000146874
0.000148422
0.000167836
0.0328329
0.00293999
0.000144398
0.000143117
0.0506954
0.00397909
0.000282049
0.000140417
0.000165625
0.000207346
0.000137817
0.000200718
0.000151491
0.00491235
0.000154429
0.000145996
0.000150649
0.000135474
0.0494085
0.000144995
0.000139145
0.00155324
0.000203583
0.000946928
0.000135103
0.000151874
0.000135582
0.000131969
0.000136145
0.000150488
0.000146607
0.000148491
0.000135501
0.000148136
0.000177425
0.000159127
0.000160521
0.000140319
0.00015317
0.00014194
0.00534802
0.000147355
0.000149921
0.00014823
0.000135803
0.000148316
0.00014723
0.000143739
0.000143264
0.000140982
0.000136207
0.00278412
0.00036296
0.000144303
0.0480072
0.000167625
0.000149613
0.000147739
0.000150215
0.000879276
0.000148124
0.000136164
0.000134564
0.000134648
0.000300084
0.000144525
0.000136999
0.000227904
0.000134081
0.000133252
0.000167215
0.000173052
0.000225029
0.000192628
0.00159575
0.000135637
0.00492339
0.000158112
0.00014304
0.00013686
0.000166476
0.000143105
0.000164925
0.000181793
0.000151964
0.000151491
0.0249878
0.000213828
0.000332277
0.000831167
0.00130762
0.000240778
0.000139458
0.000522508
0.0167318
0.000135057
0.00521511
0.000138876
0.000150857
0.000192458
0.000140402
0.00026847
0.000157936
0.000152488
0.000147986
0.000113423
0.00014387
0.016388
0.000142778
0.000136132
0.000685602
0.00013357
0.000149514
0.000148567
0.000179273
0.000142221
0.000144041
0.000152884
0.00127587
0.000144007
0.000144468
0.000136684
0.000154952
0.000142315
0.000150849
0.00135067
0.000141297
0.000158114
0.000147953
0.000157198
0.00016199
0.000140396
0.000148924
0.000183907
0.000146855
0.000148376
0.00016089
0.00533219
0.000150074
0.00014174
0.000143959
0.000163154
0.000225208
0.000150514
0.00014097
0.00014121
0.000137707
0.000131796
0.00013564
0.000157789
0.00021362
0.000180052
0.000146524
0.000355161
0.000139692
0.00014476
0.0539234
0.000171826
0.000134248
0.00019078
0.000146018
0.000140954
0.00432434
0.000148231
0.000176635
0.000132524
0.000195469
0.000139527
0.00013486
0.000136067
0.00100009
0.000243612
0.000146633
0.000259759
0.000135894
0.000142303
0.000139031
0.000194366
0.000145612
0.000138448
0.000148201
0.000152048
0.000142927
0.000145573
0.000140393
0.000148529
0.000146429
0.000140311
0.000152914
0.000135133
0.00034855
0.00018114
0.000136418
0.000188632
0.0001586
0.000140681
0.000139922
0.000151374
0.000140687
0.000162168
0.000156209
0.000203542
0.000203752
0.000147499
0.000179031
0.000196099
0.000142953
0.000147159
0.000184851
0.000154872
0.00532636
0.000135681
0.000143844
0.000151751
0.000146707
0.00014351
0.000157791
0.000140463
0.000162256
0.000143978
0.00015554
0.000139923
0.000189349
0.0001447
0.000154935
0.000197941
0.000142648
0.00536414
0.00210307
0.000153762
0.000158476
0.000163202
0.000134351
0.00019588
0.000145362
0.000168451
0.00245237
0.0110878
0.000185127
0.000167253
0.000164617
0.000142868
0.000165856
0.000139034
0.0390067
0.000201
0.000147564
0.000140568
0.000226423
0.000175442
0.000142728
0.000143121
0.00967435
0.000147618
0.00013836
0.00271023
0.000175199
0.000134933
0.00025425
0.000136067
8.0228e-05
0.000176458
0.000142946
0.000144311
0.000155987
0.000298063
0.000140138
0.000159341
0.000144286
0.000142978
0.000139772
0.000311989
0.000148246
0.00014493
0.000143937
0.000240723
0.000159764
0.000140312
0.000132928
0.000186114
0.000142164
0.000136914
0.000281854
0.0381134
0.00014889
0.000447711
0.000156292
0.000173126
0.000150257
0.000178848
0.00582314
0.000148803
0.00014127
0.00013725
0.000155897
0.000142724
0.00227963
0.00022694
0.000137428
0.000150088
0.000136375
0.000135475
0.00906314
0.000142811
0.000150813
0.000152189
0.000207479
0.000144518
0.000147803
0.000156246
0.00614895
0.000146449
0.000144985
0.00013738
0.000138409
0.000155339
0.000171702
0.000147059
0.000142136
0.000144553
0.000143367
0.000137273
0.0462969
0.000147732
0.000143114
0.000141891
0.000177599
0.000136544
0.00013693
0.000170011
0.000142477
0.000186468
0.000144231
0.000144493
0.001422
0.0511013
0.0170153
0.000209764
0.000158751
0.000147406
0.0519785
0.000139786
0.000156173
0.000135098
0.00227363
0.000130383
0.000155738
0.000144609
0.00614639
0.000178259
0.000178569
0.0497834
0.000150923
0.000198202
0.000148007
0.000149007
0.0270882
0.000167295
0.000142082
0.000136011
0.000154463
0.000165833
0.000143986
0.000144563
0.000139774
0.000134934
0.000211923
0.00533764
0.000148003
0.000153347
0.0404059
0.000354762
0.000154619
0.000151413
0.000153067
0.000155355
0.000142303
0.000150556
0.000245399
0.000140232
0.000136264
0.000146153
0.000253277
0.000237261
0.000158098
0.000146561
0.000146588
0.000160374
0.000143686
0.000158667
0.000177934
0.000228041
0.000153809
0.000315374
0.000134742
0.000142759
0.000148436
0.000135345
0.000146931
0.000140012
0.000227764
0.00014091
0.00282198
0.000144953
0.000139036
0.000137621
0.000178094
0.000150831
0.000171836
0.000189219
0.000136146
0.00903732
0.000153888
0.000138077
0.000133443
0.00173826
9.85982e-05
0.000133685
0.000140475
0.000141152
0.000150467
0.000200209
0.000228212
0.000148802
0.000149939
0.000191762
0.0537448
0.000149339
0.000142587
0.00170492
0.000154745
0.00127299
0.000152492
0.000142326
0.00017955
0.000171209
0.0504847
0.000176698
0.000322274
0.000136912
0.000142266
0.000149384
0.00014647
0.000154698
0.00014776
0.000146193
0.000139493
0.000148478
0.000145824
0.000147584
0.000145479
0.000152587
0.000148848
0.00014362
0.000141816
0.000175543
0.000161113
0.000140319
0.000145243
0.000211616
0.000144477
0.000149292
0.000148011
0.000125905
0.000136948
0.00016916
0.000153344
0.000136029
0.000143578
0.0381663
0.000241396
0.000149082
0.000149174
0.000153991
0.000174019
0.000139987
0.00016202
0.000178013
0.000141218
0.000193438
0.000140797
0.000143209
0.00014379
0.000148738
0.000161858
0.000211007
0.0527806
0.000172212
0.000136208
0.000144947
0.000143188
0.000194953
0.000149128
0.000744187
0.000139721
0.000143846
0.000143498
0.000181475
0.000142543
0.000146608
0.000144253
0.000193129
0.000137022
0.00213251
0.000137035
0.000163841
0.000144513
0.000162038
0.000140777
0.000154221
0.000330771
0.000259915
0.000136276
0.000183656
0.00014524
0.000146662
0.0236698
0.000337803
0.000136175
0.000142702
0.000155881
0.00013596
0.000143925
0.000148538
0.000147678
0.000158286
0.000175034
0.000150143
0.00015911
0.000261418
0.000147012
0.000140798
0.000142066
0.000155143
0.000163173
0.000144124
0.0520326
0.000140712
0.0520527
0.000167534
0.000136548
0.000140164
0.000139908
0.000215934
0.000146009
0.000152652
0.000146177
0.000140825
0.000344855
0.000153887
0.000171171
0.000147317
0.000145547
0.000151804
0.000143166
0.00015376
0.000143436
0.000153695
0.000149359
0.000148457
0.00554626
0.000180506
0.000919798
0.000140891
0.000166339
0.000150921
0.00142068
0.000188015
0.0039708
0.000150352
0.000134772
0.000170237
0.000142818
0.00471816
0.000149861
0.000192299
0.000150849
0.0437585
0.00982351
0.000153878
0.000170968
0.000139394
0.000137452
0.000148669
0.000134645
0.000148002
0.000152959
0.000139448
0.000163929
0.00021378
0.00115857
0.000140598
0.000249954
0.00013465
0.00014236
0.000143446
0.000183058
0.000147644
0.000159178
0.000148044
0.000143711
0.000781211
0.000140146
0.000152307
0.000142091
0.000154847
0.00345344
0.000167287
0.0426099
0.000145271
0.000187403
0.000152823
0.000141715
0.000144207
0.000193217
0.000164901
0.000143046
0.000151973
0.000143162
0.00362887
0.000139065
0.0232531
0.000111121
0.000187746
0.000157938
0.000238831
0.000174109
0.000134643
0.000203594
0.000142318
0.0154819
0.0001486
0.000151938
0.00612958
0.00581738
0.000160997
0.00953537
0.00014355
0.00102165
0.000131069
0.0130823
0.000135267
0.000155806
0.000191924
0.000146164
0.000139124
0.000149343
0.000144483
0.000175838
0.00106663
0.000170045
0.00102315
0.000141049
0.00171792
0.000144356
0.000147398
0.000143056
0.000144862
0.00474443
0.000147502
0.000137974
0.000167207
0.000148242
0.00416133
0.000204981
0.000142921
0.000217583
0.000169273
0.000140478
0.000144834
0.000155051
0.000136545
0.000175755
0.000163706
0.000150706
0.000151689
0.000137281
0.000145846
0.000176931
0.000148975
0.000144973
0.000150418
0.000135017
0.000135613
0.00035164
0.000161402
0.0565334
0.000160285
0.000174744
0.000158818
0.000142037
0.00016707
0.00013851
0.000140745
0.000607853
0.00016484
0.00016397
0.000178316
0.000147072
0.000234565
0.00711382
0.000143698
0.000165185
0.00019687
0.0519266
0.000136395
0.00013779
0.000146957
0.000180954
0.000917229
0.000170293
0.000154615
0.000148193
0.000141999
0.000135248
0.00317276
0.00015276
0.00015622
0.00545573
0.000146779
0.000153314
0.000155705
0.000145012
0.000142734
0.000143219
0.000174783
0.00020392
0.000148429
0.000152585
0.000276826
0.000142468
0.000149298
0.000153885
0.000146813
0.00670231
0.00521981
0.00217726
0.000206657
0.00383489
0.000151974
0.000139761
0.000256854
0.000153833
0.000160665
0.000143212
0.000135421
0.00360198
0.0002273
0.000141396
0.000139556
0.000162647
0.000287472
0.000154854
0.000134901
0.0482269
0.00015262
0.000168077
0.000135013
0.000159377
0.000131074
0.000151464
0.000158851
0.000142003
0.0416598
0.000149253
0.000170915
0.000206688
0.000979959
0.000201366
0.000142165
0.000178024
0.000155744
0.000165952
0.0001503
0.000152285
0.000145324
0.000151977
0.00141456
0.000152136
0.00133035
0.000139968
0.000211274
0.000135912
0.000148908
0.00201876
0.000156164
0.000210036
0.000162594
0.000149722
0.0543295
0.0467757
0.000139983
0.00218754
0.000173635
0.00013885
0.000134011
0.000364617
0.00123747
0.000139097
0.00013618
0.00014404
0.000136709
0.0490858
0.00048567
0.000130197
0.000133163
0.000139906
0.000227579
0.000172589
0.00564118
0.00013597
0.0183633
0.000147113
0.00019103
0.0436233
0.000164485
0.000139426
0.000140118
0.00593918
0.000136618
0.000141232
0.000136435
0.000164324
0.000154249
0.0436715
0.000163832
0.000148335
0.000142329
0.000158683
0.000206898
0.000183906
0.000141671
0.000142049
0.000195768
0.000174391
0.000150094
0.00702968
0.000160376
0.000152647
0.0157819
0.000151998
0.00015946
0.000148437
0.00205179
0.000145158
0.000148594
0.000305602
0.000160233
0.000141163
0.000143318
0.000131126
0.000174268
0.000204247
0.000140977
0.000136048
0.00014942
0.00017815
0.000158059
0.000135099
0.000142739
0.000139138
0.000152735
0.000170571
0.000146234
0.000142747
0.0204165
0.000141988
0.00100593
0.000165461
0.000169096
0.000152488
0.000150182
0.000145032
0.000209517
0.000200565
0.000178522
0.0403676
0.000164675
0.000140048
0.029478
0.000136376
0.00017928
0.0460623
0.000153151
0.000141766
0.000154759
0.000181058
0.000142615
0.0001432
0.000488218
0.000142843
0.000150535
0.000140615
0.000146937
0.000137515
0.000201959
0.000189912
0.000135858
0.000141065
0.0144629
0.000142527
0.000136665
0.000140849
0.00014069
0.000737736
0.000159391
0.000153007
0.000153523
0.000149275
0.000137445
0.000176623
0.000186225
0.000159383
0.00242493
0.00015134
0.000154375
0.040538
0.000140064
0.000136276
0.00014354
0.000140529
0.000148595
0.000132706
0.000150742
0.0409159
0.0001448
0.000141806
0.00015592
0.000140607
0.000925824
0.00014766
0.045256
0.000207697
0.00016983
0.000162869
0.00179587
0.000161673
0.000143122
0.00015262
0.000140449
0.000151175
0.000146536
0.000147931
0.022317
0.000135837
0.000143736
0.000174162
0.00023634
0.000147851
0.000139722
0.000205609
0.000149935
0.000178179
0.000143043
0.000139845
0.000143827
0.000378062
0.000145938
0.000230372
0.000178373
0.00014924
0.000139639
0.000143567
0.000161888
0.0012955
0.000135888
0.000178556
0.000141786
0.0455906
0.0002278
0.000150206
0.000200857
0.000146192
0.000153012
0.000156428
0.00355415
0.000159038
0.000157128
0.000160958
0.00442631
0.000147489
0.00017303
0.000144568
0.000220566
0.000195817
0.000210464
0.000142731
0.000164069
0.0010032
0.00049575
0.000153102
0.00015505
0.00169394
0.00198623
0.00014035
0.000175222
0.000143311
0.000155616
0.000145944
0.000152591
0.000151841
0.000183178
0.000147279
0.000148224
0.0001786
0.00482569
0.000538614
0.000190145
0.00542289
0.000139869
0.00127874
0.000180906
0.000142036
0.000141742
0.0043306
0.000158136
0.000145143
0.000142551
0.000176346
0.000138642
0.000142779
0.0380353
0.00014552
0.000148185
0.000141102
0.00014385
0.000151481
0.000139138
0.028689
0.000166702
0.000151595
0.000139472
0.000164161
0.00869136
0.000142297
0.000148075
0.00131274
0.000206907
0.000143468
0.000155269
0.000138716
0.000140366
0.000200607
0.00019868
0.000140401
0.000143558
0.0015473
0.000444729
0.00977731
0.000195576
0.000151634
0.00394694
0.000140731
0.000156356
0.00015515
0.000139879
0.000637129
0.011993
0.000169922
0.000208427
0.019582
0.000134014
0.000133163
0.000151014
0.000170469
0.00892037
0.000136423
0.000173506
0.0078874
0.0346201
0.00014712
0.000151294
0.00216589
0.000142992
0.000155237
0.00608533
0.000140803
0.000142465
0.000139439
0.000241831
0.000141797
0.000164451
0.000148666
0.000228465
0.000161881
0.00420273
0.000143127
0.00014218
0.000162743
0.000147839
0.000163232
0.000150288
0.000185824
0.000187878
0.000140784
0.00014428
0.051772
0.0350364
0.00536035
0.000139061
0.00014337
0.000155266
0.000145292
0.000143067
0.000144013
0.000151993
0.00014852
0.000139421
0.000139682
0.000185349
0.000153404
0.000173201
0.0069481
0.000181805
0.000174549
0.000156288
0.000188597
0.000219645
0.000163157
0.000155833
0.000159602
0.000141726
0.000594364
0.000136071
0.000135737
0.000140727
0.00658316
0.000142275
0.00660665
0.00014797
0.000135007
0.00018546
0.000142962
0.000142236
0.000142934
0.000182612
0.000245357
0.000147496
0.000139884
0.000151862
0.009383
0.000174009
0.0036789
0.000143178
0.00017465
0.000146841
0.000145647
0.000136151
0.000138891
0.000143379
0.000150711
0.0016266
0.000151571
0.000152081
0.000189793
0.0142577
0.000189508
0.000141863
0.000193101
0.000164292
0.011098
0.000137921
0.000142841
0.000165957
0.000432597
0.000132409
0.000144468
0.000138846
0.000136545
0.000189097
0.00015304
0.000193037
0.000146189
0.000132193
0.000167414
0.000143987
0.00598688
0.000144384
0.000189624
0.00014805
0.000159961
0.000149499
0.000180102
0.00301106
0.000142443
0.000184007
0.0476055
0.000141654
0.000146458
0.000170583
0.000131875
0.00343129
0.000180404
0.00014234
0.000177774
0.000134306
0.000147074
0.000147832
0.000141451
0.000136479
0.000150034
0.000140612
0.000138773
0.000145223
0.000147454
0.000174184
0.000136125
0.000207174
0.000138499
0.000140294
0.000160122
0.000177798
0.000149636
0.000131987
0.000142372
0.00015393
0.00017605
0.00565417
0.000164644
0.000149104
0.000149127
0.000139498
0.000162879
0.000140598
0.000152409
0.0231647
0.000228095
0.000172335
0.000141378
0.000147434
0.000150009
0.00013211
0.000183461
0.000134871
0.0002417
0.000149335
0.000216748
0.000159245
0.0164062
0.000147172
0.00018644
0.00231683
0.00636263
0.000541026
0.000157861
0.0050405
0.0300129
0.00014875
0.000165573
0.0523165
0.000138545
0.000139013
0.000143858
0.000155745
0.000225207
0.000145766
0.000159324
0.00701676
0.000130223
0.000144563
0.0117682
0.000566805
0.000185293
0.000687864
0.00384597
0.00015004
0.00019602
0.000153713
0.000155077
0.00352301
0.000154304
0.0434202
0.000113396
0.000154176
0.0001456
0.000150696
0.000160124
0.00013954
0.0038651
0.000132312
0.000142785
0.000143234
0.00351183
0.0433677
0.000243145
0.000144557
0.000150029
0.000139044
0.0540584
0.000143446
0.000149333
0.000154209
0.000210726
0.000138621
0.000185523
0.0434008
0.00214824
0.000147573
0.000678706
0.000139914
0.00122493
0.000132727
0.000238352
0.00014775
0.000177732
0.000160489
0.0114833
0.000210139
0.000152221
0.000153387
0.000190627
0.000154925
0.00014186
0.000138704
0.00015623
0.000147411
0.00107882
0.000131533
0.000142643
0.000144208
0.00014378
0.000936277
0.000139287
0.000134619
0.000146253
0.00134378
0.000165726
0.000177096
0.000152095
0.000151364
0.000187724
0.000140178
0.000143175
0.00019132
0.000171891
0.000134633
0.000173465
0.000152619
0.00118555
0.000142668
0.000245325
0.000147483
0.000143086
0.000135274
0.000134926
0.000142233
0.000141343
0.00573952
0.00018587
0.000146664
0.000143093
0.000142303
0.000152963
0.000159235
0.040112
0.000146346
0.000216198
0.000164793
0.00205828
0.000147282
0.000175704
0.000143037
0.000142701
0.000162906
0.000142522
0.000145548
0.00014043
0.000135944
0.0541462
0.000143553
0.000139225
0.000224275
0.00200737
0.000198288
0.00014622
0.000134888
0.000155288
0.0439632
0.000153508
0.00014785
0.000147029
0.00417184
0.000148562
0.00014358
0.000219776
0.000141308
0.00015676
0.000155791
0.00014641
0.000136162