/*--------------------------------*- C++ -*----------------------------------*\
| =========                 |                                                 |
| \\      /  F ield         | OpenFOAM: The Open Source CFD Toolbox           |
|  \\    /   O peration     | Version:  v2012                                 |
|   \\  /    A nd           | Website:  www.openfoam.com                      |
|    \\/     M anipulation  |                                                 |
\*---------------------------------------------------------------------------*/
FoamFile
{
    version     2.0;
    format      ascii;
    class       pointVectorField;
    location    "550";
    object      pointDisplacement;
}
// * * * * * * * * * * * * * * * * * * * * * * * * * * * * * * * * * * * * * //

dimensions      [0 1 0 0 0 0 0];


internalField   nonuniform List<vector> 
18854
(
(0 0 0)
(0 0 0)
(0 0 0)
(0 0 0)
(0 0 0)
(0 0 0)
(0 0 0)
(0 0 0)
(0 0 0)
(0 0 0)
(0 0 0)
(0 0 0)
(0 0 0)
(0 0 0)
(0 0 0)
(0 0 0)
(0 0 0)
(0 0 0)
(0 0 0)
(0 0 0)
(0 0 0)
(0 0 0)
(0 0 0)
(0 0 0)
(0 0 0)
(0 0 0)
(0 0 0)
(0 0 0)
(0 0 0)
(0 0 0)
(0 0 0)
(0 0 0)
(0 0 0)
(0 0 0)
(0 0 0)
(0 0 0)
(0 0 0)
(0 0 0)
(0 0 0)
(0 0 0)
(0 0 0)
(0 0 0)
(0 0 0)
(0 0 0)
(0 0 0)
(0 0 0)
(0 0 0)
(0 0 0)
(0 0 0)
(0 0 0)
(0 0 0)
(0 0 0)
(0 0 0)
(0 0 0)
(0 0 0)
(0 0 0)
(0 0 0)
(0 0 0)
(0 0 0)
(0 0 0)
(0 0 0)
(0 0 0)
(0 0 0)
(0 0 0)
(0 0 0)
(0 0 0)
(0 0 0)
(0 0 0)
(0 0 0)
(0 0 0)
(0 0 0)
(0 0 0)
(0 0 0)
(0 0 0)
(0 0 0)
(0 0 0)
(0 0 0)
(0 0 0)
(0 0 0)
(0 0 0)
(0 0 0)
(0 0 0)
(0 0 0)
(0 0 0)
(0 0 0)
(0 0 0)
(0 0 0)
(0 0 0)
(0 0 0)
(0 0 0)
(0 0 0)
(0 0 0)
(0 0 0)
(0 0 0)
(0 0 0)
(0 0 0)
(0 0 0)
(0 0 0)
(0 0 0)
(0 0 0)
(0 0 0)
(0 0 0)
(0 0 0)
(0 0 0)
(0 0 0)
(0 0 0)
(0 0 0)
(0 0 0)
(0 0 0)
(0 0 0)
(0 0 0)
(0 0 0)
(0 0 0)
(0 0 0)
(0 0 0)
(0 0 0)
(0 0 0)
(0 0 0)
(0 0 0)
(0 0 0)
(0 0 0)
(0 0 0)
(0 0 0)
(0 0 0)
(0 0 0)
(0 0 0)
(0 0 0)
(0 0 0)
(0 0 0)
(0 0 0)
(0 0 0)
(0 0 0)
(0 0 0)
(0 0 0)
(0 0 0)
(0 0 0)
(0 0 0)
(0 0 0)
(0 0 0)
(0 0 0)
(0 0 0)
(0 0 0)
(0 0 0)
(0 0 0)
(0 0 0)
(0 0 0)
(0 0 0)
(0 0 0)
(0 0 0)
(0 0 0)
(0 0 0)
(0 0 0)
(0 0 0)
(0 0 0)
(0 0 0)
(0 0 0)
(0 0 0)
(0 0 0)
(0 0 0)
(0 0 0)
(0 0 0)
(0 0 0)
(0 0 0)
(0 0 0)
(0 0 0)
(0 0 0)
(0 0 0)
(0 0 0)
(0 0 0)
(0 0 0)
(0 0 0)
(0 0 0)
(0 0 0)
(0 0 0)
(0 0 0)
(0 0 0)
(0 0 0)
(0 0 0)
(0 0 0)
(0 0 0)
(0 0 0)
(0 0 0)
(0 0 0)
(0 0 0)
(0 0 0)
(0 0 0)
(0 0 0)
(0 0 0)
(0 0 0)
(0 0 0)
(0 0 0)
(0 0 0)
(0 0 0)
(0 0 0)
(0 0 0)
(0 0 0)
(0 0 0)
(0 0 0)
(0 0 0)
(0 0 0)
(0 0 0)
(0 0 0)
(0 0 0)
(0 0 0)
(0 0 0)
(0 0 0)
(0 0 0)
(0 0 0)
(0 0 0)
(0 0 0)
(0 0 0)
(0 0 0)
(0 0 0)
(0 0 0)
(0 0 0)
(0 0 0)
(0 0 0)
(0 0 0)
(0 0 0)
(0 0 0)
(0 0 0)
(0 0 0)
(0 0 0)
(0 0 0)
(0 0 0)
(0 0 0)
(0 0 0)
(0 0 0)
(0 0 0)
(0 0 0)
(0 0 0)
(0 0 0)
(0 0 0)
(0 0 0)
(0 0 0)
(0 0 0)
(0 0 0)
(0 0 0)
(0 0 0)
(0 0 0)
(0 0 0)
(0 0 0)
(0 0 0)
(0 0 0)
(0 0 0)
(0 0 0)
(0 0 0)
(0 0 0)
(0 0 0)
(0 0 0)
(0 0 0)
(0 0 0)
(0 0 0)
(0 0 0)
(0 0 0)
(0 0 0)
(0 0 0)
(0 0 0)
(0 0 0)
(0 0 0)
(0 0 0)
(0 0 0)
(0 0 0)
(0 0 0)
(0 0 0)
(0 0 0)
(0 0 0)
(0 0 0)
(0 0 0)
(0 0 0)
(0 0 0)
(0 0 0)
(0 0 0)
(0 0 0)
(0 0 0)
(0 0 0)
(0 0 0)
(0 0 0)
(0 0 0)
(0 0 0)
(0 0 0)
(0 0 0)
(0 0 0)
(0 0 0)
(0 0 0)
(0 0 0)
(0 0 0)
(0 0 0)
(0 0 0)
(0 0 0)
(0 0 0)
(0 0 0)
(0 0 0)
(0 0 0)
(0 0 0)
(0 0 0)
(0 0 0)
(0 0 0)
(0 0 0)
(0 0 0)
(0 0 0)
(0 0 0)
(0 0 0)
(0 0 0)
(0 0 0)
(0 0 0)
(0 0 0)
(0 0 0)
(0 0 0)
(0 0 0)
(0 0 0)
(0 0 0)
(0 0 0)
(0 0 0)
(0 0 0)
(0 0 0)
(0 0 0)
(0 0 0)
(0 0 0)
(0 0 0)
(0 0 0)
(0 0 0)
(0 -9.85009e-06 0)
(0 -9.0028e-06 0)
(0 -8.67626e-06 0)
(0 -9.81104e-06 0)
(0 -7.74338e-06 0)
(0 -7.68412e-06 0)
(0 -4.94617e-06 0)
(0 -4.80053e-06 0)
(0 -6.62703e-06 0)
(0 -3.2841e-06 0)
(0 -2.54899e-06 0)
(0 -9.44035e-06 0)
(0 -8.71373e-06 0)
(0 -5.47247e-06 0)
(0 -4.71864e-06 0)
(0 -3.84715e-06 0)
(0 -4.15391e-06 0)
(0 -3.38216e-06 0)
(0 -2.49927e-06 0)
(0 -2.03464e-06 0)
(0 -2.12084e-06 0)
(0 -1.2524e-06 0)
(0 -7.52471e-06 0)
(0 -9.1363e-06 0)
(0 -9.72555e-06 0)
(0 -6.27921e-06 0)
(0 -5.46238e-06 0)
(0 -1.2656e-06 0)
(0 -1.6699e-06 0)
(0 -6.45324e-06 0)
(0 -3.81497e-06 0)
(0 -3.38645e-06 0)
(0 -9.68868e-06 0)
(0 -9.33462e-06 0)
(0 -4.92466e-06 0)
(0 -4.39689e-06 0)
(0 -7.65185e-06 0)
(0 -8.38438e-06 0)
(0 -5.38432e-06 0)
(0 -3.91966e-06 0)
(0 -3.7601e-06 0)
(0 -6.98372e-07 0)
(0 -5.88682e-07 0)
(0 -4.26011e-06 0)
(0 -1.56287e-06 0)
(0 -6.94695e-06 0)
(0 -6.52001e-06 0)
(0 -8.0844e-06 0)
(0 -8.77092e-06 0)
(0 -9.38935e-06 0)
(0 -9.71268e-06 0)
(0 -2.37062e-06 0)
(0 -1.60384e-06 0)
(0 -3.48236e-06 0)
(0 -5.53508e-06 0)
(0 -5.93217e-06 0)
(0 -9.76399e-06 0)
(0 -9.99603e-06 0)
(0 -8.68632e-06 0)
(0 -8.50779e-06 0)
(0 -7.5246e-06 0)
(0 -6.17065e-06 0)
(0 -5.8548e-06 0)
(0 -6.57956e-06 0)
(0 -4.82381e-06 0)
(0 -2.71594e-06 0)
(0 -1.7438e-06 0)
(0 -3.19877e-07 0)
(0 -2.85966e-05 0)
(0 -2.95575e-05 0)
(0 -3.03347e-05 0)
(0 -2.93547e-05 0)
(0 -3.10638e-05 0)
(0 -3.00604e-05 0)
(0 -3.17335e-05 0)
(0 -3.0701e-05 0)
(0 -3.23701e-05 0)
(0 -3.13136e-05 0)
(0 -3.30124e-05 0)
(0 -3.19253e-05 0)
(0 -3.365e-05 0)
(0 -3.47485e-05 0)
(0 -3.53969e-05 0)
(0 -3.42591e-05 0)
(0 -3.60133e-05 0)
(0 -3.48197e-05 0)
(0 -3.66065e-05 0)
(0 -3.53646e-05 0)
(0 -3.71985e-05 0)
(0 -3.59224e-05 0)
(0 -3.78148e-05 0)
(0 -3.64992e-05 0)
(0 -3.8406e-05 0)
(0 -3.70957e-05 0)
(0 -3.90687e-05 0)
(0 -3.77263e-05 0)
(0 -3.98156e-05 0)
(0 -3.84067e-05 0)
(0 -4.05436e-05 0)
(0 -3.91078e-05 0)
(0 -4.12774e-05 0)
(0 -3.96506e-05 0)
(0 -4.20494e-05 0)
(0 -4.07167e-05 0)
(0 -4.28911e-05 0)
(0 -4.15008e-05 0)
(0 -4.37881e-05 0)
(0 -4.23506e-05 0)
(0 -4.47508e-05 0)
(0 -4.32418e-05 0)
(0 -4.57591e-05 0)
(0 -4.42506e-05 0)
(0 -4.68173e-05 0)
(0 -4.5318e-05 0)
(0 -4.7922e-05 0)
(0 -4.63837e-05 0)
(0 -4.9018e-05 0)
(0 -4.74658e-05 0)
(0 -5.02532e-05 0)
(0 -4.86338e-05 0)
(0 -5.15596e-05 0)
(0 -4.99797e-05 0)
(0 -5.294e-05 0)
(0 -5.1483e-05 0)
(0 -5.45198e-05 0)
(0 -5.3016e-05 0)
(0 -5.61247e-05 0)
(0 -5.46304e-05 0)
(0 -5.77659e-05 0)
(0 -5.63185e-05 0)
(0 -5.94883e-05 0)
(0 -5.80853e-05 0)
(0 -6.13368e-05 0)
(0 -5.99689e-05 0)
(0 -6.33006e-05 0)
(0 -6.19253e-05 0)
(0 -6.53679e-05 0)
(0 -6.38974e-05 0)
(0 -6.75534e-05 0)
(0 -6.6061e-05 0)
(0 -6.98506e-05 0)
(0 -6.84292e-05 0)
(0 -7.22402e-05 0)
(0 -7.08255e-05 0)
(0 -7.46869e-05 0)
(0 -7.32384e-05 0)
(0 -7.71885e-05 0)
(0 -7.57036e-05 0)
(0 -7.97896e-05 0)
(0 -7.83455e-05 0)
(0 -8.25188e-05 0)
(0 -8.12564e-05 0)
(0 -8.53605e-05 0)
(0 -8.42055e-05 0)
(0 -8.82506e-05 0)
(0 -8.70156e-05 0)
(0 -9.11613e-05 0)
(0 -8.97937e-05 0)
(0 -9.40856e-05 0)
(0 -9.25567e-05 0)
(0 -9.71081e-05 0)
(0 -9.60534e-05 0)
(0 -0.000100214 0)
(0 -9.89972e-05 0)
(0 -0.000103321 0)
(0 -0.00010204 0)
(0 -0.000106476 0)
(0 -0.000105174 0)
(0 -0.000109724 0)
(0 -0.000110923 0)
(0 -0.000114265 0)
(0 -8.65456e-05 0)
(0 -6.65589e-05 0)
(0 -5.3269e-05 0)
(0 -4.43204e-05 0)
(0 -3.85259e-05 0)
(0 -0.000108511 0)
(0 -0.000115397 0)
(0 -0.000118789 0)
(0 -0.000119873 0)
(0 -0.000123238 0)
(0 -0.00012439 0)
(0 -0.000127683 0)
(0 -0.000128921 0)
(0 -0.000132233 0)
(0 -0.000133466 0)
(0 -0.000136816 0)
(0 -0.000138073 0)
(0 -0.000141467 0)
(0 -0.000142703 0)
(0 -0.000146123 0)
(0 -0.000144868 0)
(0 -0.000149583 0)
(0 -0.000148269 0)
(0 -0.000153024 0)
(0 -0.000151689 0)
(0 -0.000156442 0)
(0 -0.000155227 0)
(0 -0.000159975 0)
(0 -0.000161066 0)
(0 -0.000164652 0)
(0 -0.000163658 0)
(0 -0.000168326 0)
(0 -0.000169337 0)
(0 -0.000172941 0)
(0 -0.000103875 0)
(0 -0.000173946 0)
(0 -0.000177391 0)
(0 -0.000172445 0)
(0 -0.000178518 0)
(0 -0.000181964 0)
(0 -0.000183041 0)
(0 -0.000186514 0)
(0 -0.000187412 0)
(0 -0.000190835 0)
(0 -0.000191715 0)
(0 -0.00019499 0)
(0 -0.000195863 0)
(0 -0.000199041 0)
(0 -0.000199795 0)
(0 -0.000202941 0)
(0 -0.000202218 0)
(0 -0.000206107 0)
(0 -0.000205352 0)
(0 -0.000209275 0)
(0 -0.000208385 0)
(0 -0.000212329 0)
(0 -0.000213343 0)
(0 -0.00021615 0)
(0 -0.000215279 0)
(0 -0.000219064 0)
(0 -0.000219753 0)
(0 -0.000222582 0)
(0 -0.00022325 0)
(0 -0.000226286 0)
(0 -0.000221995 0)
(0 -0.000226558 0)
(0 -0.000229437 0)
(0 -0.000229675 0)
(0 -0.000232493 0)
(0 -0.000232773 0)
(0 -0.00023553 0)
(0 -0.000235666 0)
(0 -0.000238403 0)
(0 -0.000238426 0)
(0 -0.000241089 0)
(0 -8.55435e-05 0)
(0 -0.000241005 0)
(0 -0.000243651 0)
(0 -0.000243617 0)
(0 -0.000246142 0)
(0 -0.000245988 0)
(0 -0.000248447 0)
(0 -0.00024821 0)
(0 -0.000250533 0)
(0 -0.000250275 0)
(0 -0.000252493 0)
(0 -0.000252611 0)
(0 -0.000254506 0)
(0 -0.000254518 0)
(0 -0.000256368 0)
(0 -0.000256315 0)
(0 -0.00025814 0)
(0 -0.000258081 0)
(0 -0.000259792 0)
(0 -0.000259592 0)
(0 -0.0002613 0)
(0 -0.000261481 0)
(0 -0.000262957 0)
(0 -0.000262662 0)
(0 -0.000264266 0)
(0 -0.000263869 0)
(0 -0.000265411 0)
(0 -0.000265764 0)
(0 -0.000266816 0)
(0 -0.000266367 0)
(0 -0.000267658 0)
(0 -0.00026711 0)
(0 -0.000268337 0)
(0 -0.000268831 0)
(0 -0.000269453 0)
(0 -0.000268872 0)
(0 -0.000269922 0)
(0 -0.000269244 0)
(0 -0.000270245 0)
(0 -0.000270875 0)
(0 -0.000271121 0)
(0 -0.000270403 0)
(0 -0.000271175 0)
(0 -0.000270372 0)
(0 -0.000271039 0)
(0 -0.000271765 0)
(0 -0.000271545 0)
(0 -0.000270731 0)
(0 -0.000271175 0)
(0 -0.000270275 0)
(0 -0.000270652 0)
(0 -0.000271466 0)
(0 -0.00027087 0)
(0 -0.000269975 0)
(0 -0.000270129 0)
(0 -0.000269147 0)
(0 -0.000269211 0)
(0 -0.000270079 0)
(0 -0.000269053 0)
(0 -0.00026814 0)
(0 -0.000267906 0)
(0 -0.000266935 0)
(0 -0.000266633 0)
(0 -0.000267469 0)
(0 -0.000266115 0)
(0 -0.000265211 0)
(0 -0.000264629 0)
(0 -0.000263643 0)
(0 -0.000263012 0)
(0 -0.000263856 0)
(0 -0.000262179 0)
(0 -0.000261265 0)
(0 -0.000260405 0)
(0 -0.000259417 0)
(0 -0.000258542 0)
(0 -0.000259355 0)
(0 -0.000257464 0)
(0 -0.000256574 0)
(0 -0.000255472 0)
(0 -0.000254497 0)
(0 -0.000253371 0)
(0 -0.000254206 0)
(0 -0.000252074 0)
(0 -0.000251155 0)
(0 -0.000249823 0)
(0 -0.000248822 0)
(0 -0.000247456 0)
(0 -0.000248332 0)
(0 -0.000245934 0)
(0 -0.000244969 0)
(0 -0.000243404 0)
(0 -0.000242339 0)
(0 -0.000240717 0)
(0 -0.00024166 0)
(0 -0.000238884 0)
(0 -0.000237873 0)
(0 -0.000235965 0)
(0 -0.000234859 0)
(0 -0.000232881 0)
(0 -0.000233852 0)
(0 -0.00023071 0)
(0 -0.00022965 0)
(0 -0.000227468 0)
(0 -0.000226307 0)
(0 -0.000224117 0)
(0 -0.000225142 0)
(0 -0.000221798 0)
(0 -0.000220684 0)
(0 -0.000218353 0)
(0 -0.000217168 0)
(0 -0.000219313 0)
(0 -0.000215878 0)
(0 -6.93326e-05 0)
(0 -0.000213269 0)
(0 -3.51521e-05 0)
(0 -5.66909e-05 0)
(0 -3.94236e-05 0)
(0 -4.83468e-05 0)
(0 -0.000107321 0)
(0 -0.00010256 0)
(0 -0.000238298 0)
(0 -0.000196666 0)
(0 -3.13225e-05 0)
(0 -3.02273e-05 0)
(0 -0.000139315 0)
(0 -4.28351e-05 0)
(0 -4.15488e-06 0)
(0 -3.99097e-06 0)
(0 -3.32589e-06 0)
(0 -3.81822e-06 0)
(0 -3.16432e-06 0)
(0 -3.65231e-06 0)
(0 -4.34567e-06 0)
(0 -4.18402e-06 0)
(0 -3.49533e-06 0)
(0 -4.03506e-06 0)
(0 -3.35219e-06 0)
(0 -3.90344e-06 0)
(0 -3.2286e-06 0)
(0 -3.79269e-06 0)
(0 -3.11119e-06 0)
(0 -3.70869e-06 0)
(0 -3.04341e-06 0)
(0 -3.6519e-06 0)
(0 -3.01221e-06 0)
(0 -3.6238e-06 0)
(0 -2.98794e-06 0)
(0 -3.62561e-06 0)
(0 -2.98431e-06 0)
(0 -3.63705e-06 0)
(0 -2.99912e-06 0)
(0 -3.66444e-06 0)
(0 -3.04281e-06 0)
(0 -3.73298e-06 0)
(0 -3.12098e-06 0)
(0 -3.83761e-06 0)
(0 -3.23029e-06 0)
(0 -3.97822e-06 0)
(0 -3.3708e-06 0)
(0 -4.14604e-06 0)
(0 -3.5447e-06 0)
(0 -4.34111e-06 0)
(0 -3.75058e-06 0)
(0 -4.5724e-06 0)
(0 -3.97661e-06 0)
(0 -4.84725e-06 0)
(0 -4.25714e-06 0)
(0 -5.1644e-06 0)
(0 -4.59655e-06 0)
(0 -5.53462e-06 0)
(0 -4.96015e-06 0)
(0 -5.93355e-06 0)
(0 -5.34962e-06 0)
(0 -6.34596e-06 0)
(0 -5.80366e-06 0)
(0 -6.83908e-06 0)
(0 -6.30814e-06 0)
(0 -7.37501e-06 0)
(0 -6.83294e-06 0)
(0 -7.94193e-06 0)
(0 -8.59747e-06 0)
(0 -5.77294e-06 0)
(0 -8.02148e-06 0)
(0 -4.64596e-06 0)
(0 -4.33433e-06 0)
(0 -4.602e-06 0)
(0 -2.56843e-06 0)
(0 -4.44717e-06 0)
(0 -2.41246e-06 0)
(0 -3.17171e-06 0)
(0 -2.5495e-06 0)
(0 -7.60438e-05 0)
(0 -0.000240741 0)
(0 -0.000237999 0)
(0 -0.000240397 0)
(0 -0.000237584 0)
(0 -0.000239761 0)
(0 -0.000237048 0)
(0 -0.000239029 0)
(0 -0.000236338 0)
(0 -0.000238311 0)
(0 -0.000235456 0)
(0 -0.000237293 0)
(0 -0.0002344 0)
(0 -0.000236051 0)
(0 -0.000233175 0)
(0 -0.000234679 0)
(0 -0.000231758 0)
(0 -0.00023312 0)
(0 -0.000230118 0)
(0 -0.000231389 0)
(0 -0.000228253 0)
(0 -0.00022941 0)
(0 -0.000226166 0)
(0 -0.000227133 0)
(0 -0.000223732 0)
(0 -0.000224653 0)
(0 -0.0002209 0)
(0 -0.000221806 0)
(0 -0.000220107 0)
(0 -0.00021706 0)
(0 -0.000216317 0)
(0 -0.000213097 0)
(0 -0.000212354 0)
(0 -0.000209019 0)
(0 -0.000208274 0)
(0 -0.000204858 0)
(0 -0.000204081 0)
(0 -0.000200624 0)
(0 -0.000199807 0)
(0 -0.000201266 0)
(0 -0.000196299 0)
(0 -0.00019543 0)
(0 -0.000191925 0)
(0 -0.000190963 0)
(0 -0.00018745 0)
(0 -0.000186418 0)
(0 -0.000182807 0)
(0 -0.000181722 0)
(0 -0.000178052 0)
(0 -0.000176924 0)
(0 -0.000178715 0)
(0 -0.000173264 0)
(0 -0.000172087 0)
(0 -0.000168464 0)
(0 -0.000167279 0)
(0 -0.000170635 0)
(0 -0.000165865 0)
(0 -0.000168999 0)
(0 -0.000164256 0)
(0 -0.000167196 0)
(0 -0.000162444 0)
(0 -0.000159507 0)
(0 -0.000157754 0)
(0 -0.000160481 0)
(0 -0.000155883 0)
(0 -0.000158432 0)
(0 -0.000153931 0)
(0 -0.000151384 0)
(0 -0.000149504 0)
(0 -0.000151883 0)
(0 -0.00014754 0)
(0 -0.000149708 0)
(0 -0.000145493 0)
(0 -0.000147485 0)
(0 -0.000143496 0)
(0 -0.00014141 0)
(0 -0.000139516 0)
(0 -0.000141511 0)
(0 -0.000137546 0)
(0 -0.000135494 0)
(0 -0.000133468 0)
(0 -0.00013143 0)
(0 -0.000129279 0)
(0 -0.000131184 0)
(0 -0.00012694 0)
(0 -0.000125086 0)
(0 -0.00012272 0)
(0 -0.000124312 0)
(0 -0.000120163 0)
(0 -0.000118579 0)
(0 -0.000116013 0)
(0 -0.000114465 0)
(0 -0.000111881 0)
(0 -0.000121355 0)
(0 -0.000110345 0)
(0 -0.000107773 0)
(0 -0.000106255 0)
(0 -0.000103696 0)
(0 -0.000102165 0)
(0 -9.96234e-05 0)
(0 -0.000101064 0)
(0 -9.71069e-05 0)
(0 -0.000104638 0)
(0 -9.84267e-05 0)
(0 -9.46726e-05 0)
(0 -9.32338e-05 0)
(0 -9.09528e-05 0)
(0 -8.94854e-05 0)
(0 -8.73e-05 0)
(0 -0.000226171 0)
(0 -0.000222684 0)
(0 -0.000226421 0)
(0 -0.000223336 0)
(0 -0.000226913 0)
(0 -0.000223916 0)
(0 -0.000227868 0)
(0 -0.000224227 0)
(0 -0.00022779 0)
(0 -0.00022427 0)
(0 -0.000227893 0)
(0 -0.000224204 0)
(0 -0.000227726 0)
(0 -0.000223913 0)
(0 -0.00022745 0)
(0 -0.000223352 0)
(0 -0.000226949 0)
(0 -0.000222617 0)
(0 -0.0002263 0)
(0 -0.00022173 0)
(0 -0.000225482 0)
(0 -0.00022097 0)
(0 -0.000224533 0)
(0 -0.000219891 0)
(0 -0.000223201 0)
(0 -0.000218184 0)
(0 -0.000221569 0)
(0 -0.000216354 0)
(0 -0.00021981 0)
(0 -0.000214475 0)
(0 -0.000217908 0)
(0 -0.000212467 0)
(0 -0.000215994 0)
(0 -0.000218892 0)
(0 -0.000210426 0)
(0 -0.000214094 0)
(0 -0.000208221 0)
(0 -0.000211805 0)
(0 -0.000205692 0)
(0 -0.000209099 0)
(0 -0.000203024 0)
(0 -0.000206381 0)
(0 -0.000200342 0)
(0 -0.000203507 0)
(0 -0.000212918 0)
(0 -0.000197421 0)
(0 -0.000200422 0)
(0 -9.58302e-05 0)
(0 -8.5851e-05 0)
(0 -8.37353e-05 0)
(0 -0.000194272 0)
(0 -0.000197221 0)
(0 -8.22993e-05 0)
(0 -8.02448e-05 0)
(0 -0.000191005 0)
(0 -0.000193763 0)
(0 -0.000186354 0)
(0 -0.000190156 0)
(0 -7.88181e-05 0)
(0 -7.68605e-05 0)
(0 -7.82253e-05 0)
(0 -7.49152e-05 0)
(0 -0.000202285 0)
(0 -7.62191e-05 0)
(0 -7.29188e-05 0)
(0 -7.17129e-05 0)
(0 -6.97186e-05 0)
(0 -0.000183483 0)
(0 -0.000186602 0)
(0 -6.86202e-05 0)
(0 -6.66659e-05 0)
(0 -0.00017998 0)
(0 -0.000182918 0)
(0 -6.76993e-05 0)
(0 -6.47403e-05 0)
(0 -6.36929e-05 0)
(0 -6.18457e-05 0)
(0 -0.000189552 0)
(0 -0.000185897 0)
(0 -0.000179183 0)
(0 -0.000182228 0)
(0 -0.000175424 0)
(0 -0.00017852 0)
(0 -0.000185188 0)
(0 -0.000181556 0)
(0 -0.000174824 0)
(0 -0.000177915 0)
(0 -0.000171115 0)
(0 -0.000174181 0)
(0 -6.06967e-05 0)
(0 -5.8924e-05 0)
(0 -0.000180826 0)
(0 -0.000177045 0)
(0 -0.000170346 0)
(0 -0.000173158 0)
(0 -0.000166383 0)
(0 -0.000169168 0)
(0 -0.000162299 0)
(0 -0.000165056 0)
(0 -0.000171729 0)
(0 -0.000167617 0)
(0 -0.000160887 0)
(0 -0.000163455 0)
(0 -0.000156677 0)
(0 -0.000159194 0)
(0 -0.000165756 0)
(0 -0.00016147 0)
(0 -0.000154892 0)
(0 -0.000157148 0)
(0 -0.000150585 0)
(0 -0.000152775 0)
(0 -0.000159152 0)
(0 -0.000154714 0)
(0 -0.000148366 0)
(0 -0.000150266 0)
(0 -0.0001564 0)
(0 -0.000151826 0)
(0 -0.00014563 0)
(0 -0.00014717 0)
(0 -0.000153171 0)
(0 -0.000148555 0)
(0 -0.000142566 0)
(0 -0.000143923 0)
(0 -0.000149754 0)
(0 -0.000145132 0)
(0 -0.000139302 0)
(0 -0.000140524 0)
(0 -0.000146186 0)
(0 -0.00014156 0)
(0 -0.000147014 0)
(0 -0.000142361 0)
(0 -0.000147612 0)
(0 -0.000142937 0)
(0 -0.000137719 0)
(0 -0.000138271 0)
(0 -0.000143287 0)
(0 -0.00013861 0)
(0 -0.000133626 0)
(0 -0.00013396 0)
(0 -0.000138769 0)
(0 -0.000134097 0)
(0 -0.000138712 0)
(0 -0.00013401 0)
(0 -0.000138425 0)
(0 -0.00013368 0)
(0 -0.000137912 0)
(0 -0.000133162 0)
(0 -0.00012895 0)
(0 -0.00012843 0)
(0 -0.000132525 0)
(0 -0.00012778 0)
(0 -0.000123725 0)
(0 -0.000123032 0)
(0 -0.00012692 0)
(0 -0.000122149 0)
(0 -0.000125837 0)
(0 -0.000118332 0)
(0 -0.000121112 0)
(0 -0.00012465 0)
(0 -0.000119939 0)
(0 -0.000123333 0)
(0 -0.000118601 0)
(0 -0.000121846 0)
(0 -0.000117099 0)
(0 -0.000120181 0)
(0 -0.000115423 0)
(0 -0.000112399 0)
(0 -0.000118326 0)
(0 -0.000113574 0)
(0 -0.000116305 0)
(0 -0.000111567 0)
(0 -0.000114168 0)
(0 -0.000109427 0)
(0 -0.000111911 0)
(0 -0.000116667 0)
(0 -0.000114304 0)
(0 -0.000109543 0)
(0 -0.00011183 0)
(0 -0.000107062 0)
(0 -0.000109241 0)
(0 -5.76954e-05 0)
(0 -5.59715e-05 0)
(0 -0.000119069 0)
(0 -6.56865e-05 0)
(0 -0.000188311 0)
(0 -0.000206454 0)
(0 -0.000104454 0)
(0 -0.000106516 0)
(0 -5.47276e-05 0)
(0 -5.29652e-05 0)
(0 -5.42955e-05 0)
(0 -5.11824e-05 0)
(0 -4.99726e-05 0)
(0 -4.81455e-05 0)
(0 -0.000198479 0)
(0 -4.92409e-05 0)
(0 -4.61707e-05 0)
(0 -4.52312e-05 0)
(0 -4.32187e-05 0)
(0 -4.41181e-05 0)
(0 -4.11807e-05 0)
(0 -4.02462e-05 0)
(0 -3.82816e-05 0)
(0 -3.91781e-05 0)
(0 -3.63443e-05 0)
(0 -3.53255e-05 0)
(0 -3.36566e-05 0)
(0 -0.000101711 0)
(0 -0.000103656 0)
(0 -3.45182e-05 0)
(0 -3.20429e-05 0)
(0 -3.09941e-05 0)
(0 -2.95036e-05 0)
(0 -0.00014267 0)
(0 -0.000108458 0)
(0 -0.000105484 0)
(0 -0.000110279 0)
(0 -0.000107192 0)
(0 -0.000102394 0)
(0 -0.000104003 0)
(0 -0.000126609 0)
(0 -0.000219601 0)
(0 -9.96648e-05 0)
(0 -0.00012901 0)
(0 -3.04131e-05 0)
(0 -0.000111965 0)
(0 -5.65441e-05 0)
(0 -5.90583e-05 0)
(0 -4.83239e-05 0)
(0 -4.11037e-05 0)
(0 -9.91976e-05 0)
(0 -0.000100717 0)
(0 -0.000226603 0)
(0 -0.000143935 0)
(0 -0.000140594 0)
(0 -0.000145202 0)
(0 -0.000141925 0)
(0 -0.000146463 0)
(0 -0.000143251 0)
(0 -0.000147746 0)
(0 -0.000144505 0)
(0 -0.000148991 0)
(0 -0.000145735 0)
(0 -0.000150129 0)
(0 -0.000146961 0)
(0 -0.000151107 0)
(0 -0.000148081 0)
(0 -0.000152148 0)
(0 -0.00014897 0)
(0 -0.000153167 0)
(0 -0.000149669 0)
(0 -0.000145007 0)
(0 -0.000154274 0)
(0 -0.000146012 0)
(0 -0.000141697 0)
(0 -9.58988e-05 0)
(0 -9.73351e-05 0)
(0 -1.1302e-05 0)
(0 -1.11211e-05 0)
(0 -0.000142278 0)
(0 -0.000138167 0)
(0 -0.000231498 0)
(0 -0.000230241 0)
(0 -1.20885e-05 0)
(0 -1.19322e-05 0)
(0 -9.2504e-05 0)
(0 -9.38551e-05 0)
(0 -9.86518e-05 0)
(0 -9.50823e-05 0)
(0 -9.98225e-05 0)
(0 -0.000138697 0)
(0 -0.000134711 0)
(0 -1.29206e-05 0)
(0 -1.27792e-05 0)
(0 -0.000135415 0)
(0 -0.000131175 0)
(0 -0.000231706 0)
(0 -8.08161e-05 0)
(0 -0.000131968 0)
(0 -0.000127665 0)
(0 -1.37919e-05 0)
(0 -1.37011e-05 0)
(0 -0.000220738 0)
(0 -0.000128505 0)
(0 -0.000124174 0)
(0 -0.000140045 0)
(0 -0.000125105 0)
(0 -0.000120779 0)
(0 -0.000237488 0)
(0 -1.49103e-05 0)
(0 -1.46938e-05 0)
(0 -0.00012182 0)
(0 -0.000117616 0)
(0 -0.000118571 0)
(0 -0.000114467 0)
(0 -0.000115241 0)
(0 -0.000111319 0)
(0 -0.000112042 0)
(0 -0.000108223 0)
(0 -0.00020048 0)
(0 -0.000197344 0)
(0 -0.000113377 0)
(0 -0.000108909 0)
(0 -0.000105198 0)
(0 -1.59239e-05 0)
(0 -1.57404e-05 0)
(0 -0.000126207 0)
(0 -0.000201013 0)
(0 -0.000197864 0)
(0 -0.000105786 0)
(0 -0.000102231 0)
(0 -0.000101434 0)
(0 -9.86219e-05 0)
(0 -9.93936e-05 0)
(0 -9.58806e-05 0)
(0 -9.66439e-05 0)
(0 -9.31735e-05 0)
(0 -9.23633e-05 0)
(0 -8.97327e-05 0)
(0 -9.05527e-05 0)
(0 -8.71975e-05 0)
(0 -8.79688e-05 0)
(0 -8.4695e-05 0)
(0 -8.54411e-05 0)
(0 -8.22503e-05 0)
(0 -8.30135e-05 0)
(0 -7.99317e-05 0)
(0 -8.07057e-05 0)
(0 -7.77208e-05 0)
(0 -7.84909e-05 0)
(0 -7.55879e-05 0)
(0 -0.000127208 0)
(0 -0.0002014 0)
(0 -0.000198306 0)
(0 -8.37821e-05 0)
(0 -1.70062e-05 0)
(0 -1.6867e-05 0)
(0 -1.71846e-05 0)
(0 -7.47528e-05 0)
(0 -7.27219e-05 0)
(0 -7.35276e-05 0)
(0 -7.08109e-05 0)
(0 -0.00020236 0)
(0 -0.000198627 0)
(0 -7.15572e-05 0)
(0 -6.89338e-05 0)
(0 -1.55935e-05 0)
(0 -1.67384e-05 0)
(0 -0.000201985 0)
(0 -0.000198711 0)
(0 -0.000202051 0)
(0 -0.000198773 0)
(0 -0.00020263 0)
(0 -0.000198725 0)
(0 -0.000201905 0)
(0 -0.00019846 0)
(0 -1.54683e-05 0)
(0 -1.66107e-05 0)
(0 -0.000140043 0)
(0 -1.53671e-05 0)
(0 -1.65368e-05 0)
(0 -1.52889e-05 0)
(0 -1.6545e-05 0)
(0 -1.52327e-05 0)
(0 -1.65338e-05 0)
(0 -1.81155e-05 0)
(0 -1.79152e-05 0)
(0 -1.65089e-05 0)
(0 -1.79077e-05 0)
(0 -1.65262e-05 0)
(0 -1.79644e-05 0)
(0 -1.65808e-05 0)
(0 -1.80558e-05 0)
(0 -1.66623e-05 0)
(0 -1.81859e-05 0)
(0 -1.6827e-05 0)
(0 -1.8331e-05 0)
(0 -1.70161e-05 0)
(0 -1.85545e-05 0)
(0 -1.72404e-05 0)
(0 -1.88622e-05 0)
(0 -1.7545e-05 0)
(0 -1.9192e-05 0)
(0 -1.78785e-05 0)
(0 -1.95809e-05 0)
(0 -1.82687e-05 0)
(0 -2.00273e-05 0)
(0 -2.13814e-05 0)
(0 -2.18793e-05 0)
(0 -2.05222e-05 0)
(0 -2.24284e-05 0)
(0 -2.10696e-05 0)
(0 -2.30541e-05 0)
(0 -2.1691e-05 0)
(0 -2.37354e-05 0)
(0 -2.23852e-05 0)
(0 -2.44969e-05 0)
(0 -1.97811e-05 0)
(0 -2.3854e-05 0)
(0 -2.31555e-05 0)
(0 -2.5344e-05 0)
(0 -2.40047e-05 0)
(0 -2.62753e-05 0)
(0 -2.49421e-05 0)
(0 -2.72978e-05 0)
(0 -2.59627e-05 0)
(0 -2.83963e-05 0)
(0 -2.97698e-05 0)
(0 -3.09281e-05 0)
(0 -2.95562e-05 0)
(0 -3.21369e-05 0)
(0 -3.07614e-05 0)
(0 -3.33863e-05 0)
(0 -3.20886e-05 0)
(0 -3.45889e-05 0)
(0 -3.32826e-05 0)
(0 -3.58696e-05 0)
(0 -3.44406e-05 0)
(0 -3.71888e-05 0)
(0 -3.58226e-05 0)
(0 -3.85869e-05 0)
(0 -3.7295e-05 0)
(0 -4.00959e-05 0)
(0 -3.23714e-05 0)
(0 -4.11801e-05 0)
(0 -6.96691e-05 0)
(0 -6.71144e-05 0)
(0 -7.0012e-05 0)
(0 -1.83154e-05 0)
(0 -1.84632e-05 0)
(0 -1.9336e-05 0)
(0 -6.78034e-05 0)
(0 -6.53291e-05 0)
(0 -9.10492e-05 0)
(0 2.07444e-06 0)
(0 1.87711e-06 0)
(0 1.95255e-06 0)
(0 2.13718e-06 0)
(0 2.01615e-06 0)
(0 2.18804e-06 0)
(0 2.06526e-06 0)
(0 2.22708e-06 0)
(0 2.09958e-06 0)
(0 2.25075e-06 0)
(0 2.12252e-06 0)
(0 2.26482e-06 0)
(0 2.13573e-06 0)
(0 2.27431e-06 0)
(0 2.14047e-06 0)
(0 2.27795e-06 0)
(0 2.13776e-06 0)
(0 1.98102e-06 0)
(0 1.92175e-06 0)
(0 -6.60279e-05 0)
(0 -6.35833e-05 0)
(0 -6.29353e-05 0)
(0 -6.11592e-05 0)
(0 -6.18399e-05 0)
(0 -5.9331e-05 0)
(0 -5.99895e-05 0)
(0 -5.7411e-05 0)
(0 -5.79305e-05 0)
(0 -5.54581e-05 0)
(0 -5.58481e-05 0)
(0 -5.35868e-05 0)
(0 -0.000112366 0)
(0 -0.000247823 0)
(0 -0.000201581 0)
(0 -0.000198152 0)
(0 -5.30597e-05 0)
(0 -5.12744e-05 0)
(0 -5.18368e-05 0)
(0 -4.94422e-05 0)
(0 -1.96649e-05 0)
(0 -1.98017e-05 0)
(0 -8.60906e-05 0)
(0 -0.000126389 0)
(0 -7.02717e-05 0)
(0 -0.000163662 0)
(0 -0.000146973 0)
(0 -4.97176e-05 0)
(0 -4.75391e-05 0)
(0 -6.18718e-05 0)
(0 -9.82627e-05 0)
(0 -5.86577e-05 0)
(0 1.72925e-06 0)
(0 -3.65428e-05 0)
(0 -7.67264e-05 0)
(0 -0.000152272 0)
(0 -0.000134719 0)
(0 -0.000151588 0)
(0 -0.000159369 0)
(0 -0.000209842 0)
(0 -0.000106852 0)
(0 -0.000153274 0)
(0 -0.000177161 0)
(0 -0.000185399 0)
(0 -0.000183497 0)
(0 -0.000211417 0)
(0 -0.000156381 0)
(0 -0.000249753 0)
(0 -0.00016462 0)
(0 -0.000159806 0)
(0 -0.000160503 0)
(0 -0.000155647 0)
(0 -0.000156096 0)
(0 -0.000151172 0)
(0 -0.000151383 0)
(0 -0.000146403 0)
(0 -0.000146363 0)
(0 -0.000141252 0)
(0 -0.000141045 0)
(0 -0.000135721 0)
(0 -0.000135512 0)
(0 -0.000140684 0)
(0 -0.000134265 0)
(0 -0.000140318 0)
(0 -0.00013453 0)
(0 -0.000139776 0)
(0 -0.000134049 0)
(0 -0.000139215 0)
(0 -0.000133436 0)
(0 -0.000138797 0)
(0 -0.000130141 0)
(0 -0.000130237 0)
(0 -0.000132824 0)
(0 -0.000138658 0)
(0 -0.000132195 0)
(0 -0.000138127 0)
(0 -0.000124283 0)
(0 -0.000124571 0)
(0 -0.000131335 0)
(0 -0.000137148 0)
(0 -0.000118383 0)
(0 -0.000118777 0)
(0 -0.000130173 0)
(0 -0.000135901 0)
(0 -0.00012869 0)
(0 -0.000134394 0)
(0 -0.000112648 0)
(0 -0.000112995 0)
(0 -0.000127017 0)
(0 -0.000127025 0)
(0 -0.000132739 0)
(0 -0.000107104 0)
(0 -0.000107187 0)
(0 -0.000125208 0)
(0 -0.000130839 0)
(0 -0.000123093 0)
(0 -0.0001287 0)
(0 -0.000101495 0)
(0 -0.000101369 0)
(0 -0.000100863 0)
(0 -0.000141626 0)
(0 -0.000120732 0)
(0 -0.000126415 0)
(0 -0.000134389 0)
(0 -0.000132148 0)
(0 -0.000124031 0)
(0 -0.000129809 0)
(0 -0.000121773 0)
(0 -0.000127282 0)
(0 -0.000122828 0)
(0 -9.61346e-05 0)
(0 -9.56443e-05 0)
(0 -0.000119211 0)
(0 -0.000124508 0)
(0 -0.000101168 0)
(0 -9.53656e-05 0)
(0 -8.90285e-05 0)
(0 -8.96909e-05 0)
(0 -9.53465e-05 0)
(0 -8.9872e-05 0)
(0 -0.00011652 0)
(0 -0.000121768 0)
(0 -0.000140059 0)
(0 -8.44649e-05 0)
(0 -8.45141e-05 0)
(0 -0.00014414 0)
(0 -0.000114109 0)
(0 -0.000119155 0)
(0 -0.000127306 0)
(0 -0.000124487 0)
(0 -0.000116106 0)
(0 -0.000121475 0)
(0 -0.000112798 0)
(0 -0.000118397 0)
(0 -9.52043e-05 0)
(0 -7.92797e-05 0)
(0 -7.92518e-05 0)
(0 -0.000115081 0)
(0 -0.000109639 0)
(0 -0.000115183 0)
(0 -0.000132952 0)
(0 -0.000105394 0)
(0 -0.00011208 0)
(0 -7.4028e-05 0)
(0 -7.41649e-05 0)
(0 -0.000121144 0)
(0 -0.000117873 0)
(0 -0.000107531 0)
(0 -0.000114627 0)
(0 -0.000105331 0)
(0 -0.000111524 0)
(0 -7.94691e-05 0)
(0 -7.46309e-05 0)
(0 -7.99236e-05 0)
(0 -7.51444e-05 0)
(0 -6.98832e-05 0)
(0 -7.02521e-05 0)
(0 -7.5462e-05 0)
(0 -7.04251e-05 0)
(0 -6.51997e-05 0)
(0 -6.53126e-05 0)
(0 -7.41023e-05 0)
(0 -3.61416e-05 0)
(0 -0.000110501 0)
(0 -0.000240975 0)
(0 -7.53527e-05 0)
(0 -4.78262e-05 0)
(0 -4.56015e-05 0)
(0 -5.01327e-05 0)
(0 -0.000102517 0)
(0 -0.000108264 0)
(0 -2.57833e-05 0)
(0 -0.000194866 0)
(0 -0.00019451 0)
(0 -0.000201528 0)
(0 -2.03597e-05 0)
(0 -2.10642e-05 0)
(0 -2.11898e-05 0)
(0 -5.0787e-05 0)
(0 -1.59643e-05 0)
(0 -5.99422e-05 0)
(0 -5.99796e-05 0)
(0 -9.93889e-05 0)
(0 -0.000104694 0)
(0 -0.000127003 0)
(0 -1.5159e-05 0)
(0 -1.41414e-05 0)
(0 -0.000191283 0)
(0 -0.000190865 0)
(0 -0.000205015 0)
(0 -4.58702e-05 0)
(0 -4.36003e-05 0)
(0 -4.33888e-05 0)
(0 -4.13332e-05 0)
(0 -6.87781e-05 0)
(0 -6.88764e-05 0)
(0 -2.36333e-05 0)
(0 -0.000118809 0)
(0 -4.15023e-05 0)
(0 -3.92496e-05 0)
(0 -3.90625e-05 0)
(0 -3.70456e-05 0)
(0 -3.68455e-05 0)
(0 -3.49381e-05 0)
(0 -3.51049e-05 0)
(0 -3.31204e-05 0)
(0 2.40801e-06 0)
(0 -3.32214e-05 0)
(0 -0.000104663 0)
(0 -9.52667e-05 0)
(0 -0.000100797 0)
(0 -0.000195075 0)
(0 -6.06272e-05 0)
(0 -0.00011378 0)
(0 -5.89781e-05 0)
(0 -5.37895e-05 0)
(0 -5.77614e-05 0)
(0 -5.25394e-05 0)
(0 -5.6457e-05 0)
(0 -5.12189e-05 0)
(0 -5.50777e-05 0)
(0 -4.98186e-05 0)
(0 -5.36269e-05 0)
(0 -0.000187692 0)
(0 -0.000187252 0)
(0 -0.00019038 0)
(0 -0.000186636 0)
(0 -0.000183556 0)
(0 -0.000182825 0)
(0 -0.000179715 0)
(0 -0.000185886 0)
(0 -5.45021e-05 0)
(0 -5.4597e-05 0)
(0 -5.98641e-05 0)
(0 -5.47742e-05 0)
(0 -5.9748e-05 0)
(0 -5.50175e-05 0)
(0 -5.97221e-05 0)
(0 -5.52073e-05 0)
(0 -5.04384e-05 0)
(0 -5.07593e-05 0)
(0 -5.52224e-05 0)
(0 -5.09158e-05 0)
(0 -4.65731e-05 0)
(0 -4.6823e-05 0)
(0 -4.83697e-05 0)
(0 -5.21378e-05 0)
(0 -4.68811e-05 0)
(0 -5.05904e-05 0)
(0 -8.92486e-05 0)
(0 -9.69657e-05 0)
(0 -2.24976e-05 0)
(0 -2.24095e-05 0)
(0 -2.25943e-05 0)
(0 -0.000179155 0)
(0 -4.25851e-05 0)
(0 -4.28472e-05 0)
(0 -0.000181947 0)
(0 -0.000184896 0)
(0 -5.50443e-05 0)
(0 -0.000204612 0)
(0 -0.000150338 0)
(0 -4.90577e-05 0)
(0 -4.88845e-05 0)
(0 -9.57828e-05 0)
(0 -4.53497e-05 0)
(0 -4.898e-05 0)
(0 -5.41654e-05 0)
(0 -5.24793e-05 0)
(0 -4.73561e-05 0)
(0 -5.0798e-05 0)
(0 -5.58608e-05 0)
(0 -5.4116e-05 0)
(0 -4.91041e-05 0)
(0 -5.23594e-05 0)
(0 -4.73949e-05 0)
(0 -5.05825e-05 0)
(0 -5.54807e-05 0)
(0 -5.36271e-05 0)
(0 -5.84913e-05 0)
(0 -5.65356e-05 0)
(0 -5.17472e-05 0)
(0 -5.45591e-05 0)
(0 -4.98365e-05 0)
(0 -5.2558e-05 0)
(0 -5.72291e-05 0)
(0 -5.51291e-05 0)
(0 -5.05218e-05 0)
(0 -5.29934e-05 0)
(0 -5.75461e-05 0)
(0 -5.52978e-05 0)
(0 -5.98016e-05 0)
(0 -5.74344e-05 0)
(0 -5.3019e-05 0)
(0 -5.50295e-05 0)
(0 -5.93961e-05 0)
(0 -5.68582e-05 0)
(0 -6.11526e-05 0)
(0 -5.84959e-05 0)
(0 -5.42922e-05 0)
(0 -5.58269e-05 0)
(0 -6.00284e-05 0)
(0 -5.71904e-05 0)
(0 -5.31018e-05 0)
(0 -5.4316e-05 0)
(0 -5.83576e-05 0)
(0 -5.53423e-05 0)
(0 -5.93442e-05 0)
(0 -5.61908e-05 0)
(0 -5.23101e-05 0)
(0 -6.01722e-05 0)
(0 -5.68672e-05 0)
(0 -6.08165e-05 0)
(0 -5.736e-05 0)
(0 -6.12523e-05 0)
(0 -5.76443e-05 0)
(0 -6.14535e-05 0)
(0 -5.76957e-05 0)
(0 -6.1436e-05 0)
(0 -5.39833e-05 0)
(0 -5.75199e-05 0)
(0 -6.1202e-05 0)
(0 -5.71165e-05 0)
(0 -6.07398e-05 0)
(0 -5.64823e-05 0)
(0 -6.0056e-05 0)
(0 -6.43911e-05 0)
(0 -6.36579e-05 0)
(0 -5.91506e-05 0)
(0 -6.26983e-05 0)
(0 -6.72843e-05 0)
(0 -6.62864e-05 0)
(0 -6.15136e-05 0)
(0 -6.50806e-05 0)
(0 -6.47964e-05 0)
(0 -7.09983e-05 0)
(0 -6.01173e-05 0)
(0 -6.36513e-05 0)
(0 -5.85041e-05 0)
(0 -6.19924e-05 0)
(0 -6.72432e-05 0)
(0 -6.5535e-05 0)
(0 -7.08785e-05 0)
(0 -6.91347e-05 0)
(0 -6.36005e-05 0)
(0 -6.71609e-05 0)
(0 -7.28142e-05 0)
(0 -7.07654e-05 0)
(0 -6.49775e-05 0)
(0 -6.85465e-05 0)
(0 -7.45655e-05 0)
(0 -7.2339e-05 0)
(0 -5.29718e-05 0)
(0 -5.50774e-05 0)
(0 -6.6139e-05 0)
(0 -6.97963e-05 0)
(0 -7.62217e-05 0)
(0 -7.34953e-05 0)
(0 -6.7059e-05 0)
(0 -7.07597e-05 0)
(0 -5.32856e-05 0)
(0 -4.99805e-05 0)
(0 -7.74292e-05 0)
(0 -7.47646e-05 0)
(0 -6.78733e-05 0)
(0 -7.17355e-05 0)
(0 -7.89248e-05 0)
(0 -7.57391e-05 0)
(0 -8.30082e-05 0)
(0 -7.98782e-05 0)
(0 -7.24588e-05 0)
(0 -7.64794e-05 0)
(0 -8.39645e-05 0)
(0 -8.04901e-05 0)
(0 -7.28314e-05 0)
(0 -7.67919e-05 0)
(0 -8.44569e-05 0)
(0 -8.07727e-05 0)
(0 -8.84641e-05 0)
(0 -8.47927e-05 0)
(0 -7.67896e-05 0)
(0 -8.07669e-05 0)
(0 -8.8861e-05 0)
(0 -8.47807e-05 0)
(0 -9.29738e-05 0)
(0 -8.88258e-05 0)
(0 -8.04846e-05 0)
(0 -8.4482e-05 0)
(0 -9.28757e-05 0)
(0 -8.85133e-05 0)
(0 -8.00007e-05 0)
(0 -8.40846e-05 0)
(0 -9.2625e-05 0)
(0 -8.82594e-05 0)
(0 -4.80371e-05 0)
(0 -4.48619e-05 0)
(0 -8.72726e-05 0)
(0 -9.38172e-05 0)
(0 -0.000103035 0)
(0 -9.974e-05 0)
(0 -9.0458e-05 0)
(0 -9.62139e-05 0)
(0 -0.000105635 0)
(0 -0.000101938 0)
(0 -9.25081e-05 0)
(0 -9.80821e-05 0)
(0 -0.000107364 0)
(0 -0.000103371 0)