/*--------------------------------*- C++ -*----------------------------------*\
| =========                 |                                                 |
| \\      /  F ield         | OpenFOAM: The Open Source CFD Toolbox           |
|  \\    /   O peration     | Version:  v2012                                 |
|   \\  /    A nd           | Website:  www.openfoam.com                      |
|    \\/     M anipulation  |                                                 |
\*---------------------------------------------------------------------------*/
FoamFile
{
    version     2.0;
    format      ascii;
    class       pointVectorField;
    location    "750";
    object      pointDisplacement;
}
// * * * * * * * * * * * * * * * * * * * * * * * * * * * * * * * * * * * * * //

dimensions      [0 1 0 0 0 0 0];


internalField   nonuniform List<vector> 
18874
(
(0 0 0)
(0 7.69315e-06 0)
(0 7.69315e-06 0)
(0 0 0)
(0 7.69315e-06 0)
(0 7.69315e-06 0)
(0 0 0)
(0 0 0)
(0 0 0)
(0 0 0)
(0 0 0)
(0 0 0)
(0 0 0)
(0 0 0)
(0 0 0)
(0 0 0)
(0 0 0)
(0 0 0)
(0 0 0)
(0 0 0)
(0 0 0)
(0 0 0)
(0 0 0)
(0 0 0)
(0 0 0)
(0 0 0)
(0 0 0)
(0 0 0)
(0 0 0)
(0 0 0)
(0 0 0)
(0 0 0)
(0 0 0)
(0 0 0)
(0 0 0)
(0 0 0)
(0 0 0)
(0 0 0)
(0 0 0)
(0 0 0)
(0 0 0)
(0 0 0)
(0 0 0)
(0 0 0)
(0 0 0)
(0 0 0)
(0 0 0)
(0 0 0)
(0 0 0)
(0 0 0)
(0 0 0)
(0 0 0)
(0 0 0)
(0 0 0)
(0 0 0)
(0 0 0)
(0 0 0)
(0 0 0)
(0 0 0)
(0 0 0)
(0 0 0)
(0 0 0)
(0 0 0)
(0 0 0)
(0 0 0)
(0 0 0)
(0 0 0)
(0 0 0)
(0 0 0)
(0 0 0)
(0 0 0)
(0 0 0)
(0 0 0)
(0 0 0)
(0 0 0)
(0 0 0)
(0 0 0)
(0 0 0)
(0 0 0)
(0 0 0)
(0 0 0)
(0 0 0)
(0 0 0)
(0 0 0)
(0 0 0)
(0 0 0)
(0 0 0)
(0 0 0)
(0 0 0)
(0 0 0)
(0 0 0)
(0 0 0)
(0 0 0)
(0 0 0)
(0 0 0)
(0 0 0)
(0 0 0)
(0 7.69315e-06 0)
(0 7.69315e-06 0)
(0 7.69315e-06 0)
(0 7.69315e-06 0)
(0 7.69315e-06 0)
(0 7.69315e-06 0)
(0 7.69315e-06 0)
(0 7.69315e-06 0)
(0 7.69315e-06 0)
(0 7.69315e-06 0)
(0 7.69315e-06 0)
(0 7.69315e-06 0)
(0 7.69315e-06 0)
(0 7.69315e-06 0)
(0 7.69315e-06 0)
(0 7.69315e-06 0)
(0 7.69315e-06 0)
(0 7.69315e-06 0)
(0 7.69315e-06 0)
(0 7.69315e-06 0)
(0 7.69315e-06 0)
(0 7.69315e-06 0)
(0 7.69315e-06 0)
(0 7.69315e-06 0)
(0 7.69315e-06 0)
(0 7.69315e-06 0)
(0 7.69315e-06 0)
(0 7.69315e-06 0)
(0 7.69315e-06 0)
(0 7.69315e-06 0)
(0 7.69315e-06 0)
(0 7.69315e-06 0)
(0 7.69315e-06 0)
(0 7.69315e-06 0)
(0 7.69315e-06 0)
(0 7.69315e-06 0)
(0 7.69315e-06 0)
(0 7.69315e-06 0)
(0 7.69315e-06 0)
(0 7.69315e-06 0)
(0 7.69315e-06 0)
(0 7.69315e-06 0)
(0 7.69315e-06 0)
(0 7.69315e-06 0)
(0 7.69315e-06 0)
(0 7.69315e-06 0)
(0 7.69315e-06 0)
(0 7.69315e-06 0)
(0 7.69315e-06 0)
(0 7.69315e-06 0)
(0 7.69315e-06 0)
(0 7.69315e-06 0)
(0 7.69315e-06 0)
(0 7.69315e-06 0)
(0 7.69315e-06 0)
(0 7.69315e-06 0)
(0 7.69315e-06 0)
(0 7.69315e-06 0)
(0 7.69315e-06 0)
(0 7.69315e-06 0)
(0 7.69315e-06 0)
(0 7.69315e-06 0)
(0 7.69315e-06 0)
(0 7.69315e-06 0)
(0 7.69315e-06 0)
(0 7.69315e-06 0)
(0 7.69315e-06 0)
(0 7.69315e-06 0)
(0 7.69315e-06 0)
(0 7.69315e-06 0)
(0 7.69315e-06 0)
(0 7.69315e-06 0)
(0 7.69315e-06 0)
(0 7.69315e-06 0)
(0 7.69315e-06 0)
(0 7.69315e-06 0)
(0 7.69315e-06 0)
(0 7.69315e-06 0)
(0 7.69315e-06 0)
(0 7.69315e-06 0)
(0 7.69315e-06 0)
(0 7.69315e-06 0)
(0 7.69315e-06 0)
(0 7.69315e-06 0)
(0 7.69315e-06 0)
(0 7.69315e-06 0)
(0 7.69315e-06 0)
(0 7.69315e-06 0)
(0 7.69315e-06 0)
(0 7.69315e-06 0)
(0 7.69315e-06 0)
(0 7.69315e-06 0)
(0 7.69315e-06 0)
(0 7.69315e-06 0)
(0 7.69315e-06 0)
(0 7.69315e-06 0)
(0 7.69315e-06 0)
(0 7.69315e-06 0)
(0 7.69315e-06 0)
(0 7.69315e-06 0)
(0 7.69315e-06 0)
(0 7.69315e-06 0)
(0 7.69315e-06 0)
(0 7.69315e-06 0)
(0 7.69315e-06 0)
(0 7.69315e-06 0)
(0 7.69315e-06 0)
(0 7.69315e-06 0)
(0 7.69315e-06 0)
(0 7.69315e-06 0)
(0 7.69315e-06 0)
(0 7.69315e-06 0)
(0 7.69315e-06 0)
(0 7.69315e-06 0)
(0 7.69315e-06 0)
(0 7.69315e-06 0)
(0 7.69315e-06 0)
(0 7.69315e-06 0)
(0 7.69315e-06 0)
(0 7.69315e-06 0)
(0 7.69315e-06 0)
(0 7.69315e-06 0)
(0 7.69315e-06 0)
(0 7.69315e-06 0)
(0 7.69315e-06 0)
(0 7.69315e-06 0)
(0 7.69315e-06 0)
(0 7.69315e-06 0)
(0 7.69315e-06 0)
(0 7.69315e-06 0)
(0 7.69315e-06 0)
(0 7.69315e-06 0)
(0 7.69315e-06 0)
(0 7.69315e-06 0)
(0 7.69315e-06 0)
(0 7.69315e-06 0)
(0 7.69315e-06 0)
(0 7.69315e-06 0)
(0 7.69315e-06 0)
(0 7.69315e-06 0)
(0 7.69315e-06 0)
(0 7.69315e-06 0)
(0 7.69315e-06 0)
(0 7.69315e-06 0)
(0 7.69315e-06 0)
(0 7.69315e-06 0)
(0 7.69315e-06 0)
(0 7.69315e-06 0)
(0 7.69315e-06 0)
(0 7.69315e-06 0)
(0 7.69315e-06 0)
(0 7.69315e-06 0)
(0 7.69315e-06 0)
(0 7.69315e-06 0)
(0 7.69315e-06 0)
(0 7.69315e-06 0)
(0 7.69315e-06 0)
(0 7.69315e-06 0)
(0 7.69315e-06 0)
(0 7.69315e-06 0)
(0 7.69315e-06 0)
(0 7.69315e-06 0)
(0 7.69315e-06 0)
(0 7.69315e-06 0)
(0 7.69315e-06 0)
(0 7.69315e-06 0)
(0 7.69315e-06 0)
(0 7.69315e-06 0)
(0 7.69315e-06 0)
(0 7.69315e-06 0)
(0 0 0)
(0 0 0)
(0 0 0)
(0 0 0)
(0 0 0)
(0 0 0)
(0 0 0)
(0 0 0)
(0 0 0)
(0 0 0)
(0 0 0)
(0 0 0)
(0 0 0)
(0 0 0)
(0 0 0)
(0 0 0)
(0 0 0)
(0 0 0)
(0 0 0)
(0 0 0)
(0 0 0)
(0 0 0)
(0 0 0)
(0 0 0)
(0 0 0)
(0 0 0)
(0 0 0)
(0 0 0)
(0 0 0)
(0 0 0)
(0 0 0)
(0 0 0)
(0 0 0)
(0 0 0)
(0 0 0)
(0 0 0)
(0 0 0)
(0 0 0)
(0 0 0)
(0 0 0)
(0 0 0)
(0 0 0)
(0 0 0)
(0 0 0)
(0 0 0)
(0 0 0)
(0 0 0)
(0 0 0)
(0 0 0)
(0 0 0)
(0 0 0)
(0 0 0)
(0 0 0)
(0 0 0)
(0 0 0)
(0 0 0)
(0 0 0)
(0 0 0)
(0 0 0)
(0 0 0)
(0 0 0)
(0 0 0)
(0 0 0)
(0 0 0)
(0 0 0)
(0 0 0)
(0 0 0)
(0 0 0)
(0 0 0)
(0 0 0)
(0 0 0)
(0 0 0)
(0 0 0)
(0 0 0)
(0 0 0)
(0 0 0)
(0 0 0)
(0 0 0)
(0 0 0)
(0 0 0)
(0 0 0)
(0 0 0)
(0 0 0)
(0 0 0)
(0 0 0)
(0 0 0)
(0 0 0)
(0 0 0)
(0 0 0)
(0 0 0)
(0 0 0)
(0 7.69315e-06 0)
(0 7.69315e-06 0)
(0 7.69315e-06 0)
(0 7.69315e-06 0)
(0 7.69315e-06 0)
(0 7.69315e-06 0)
(0 7.69315e-06 0)
(0 7.69315e-06 0)
(0 7.69315e-06 0)
(0 7.69315e-06 0)
(0 7.69315e-06 0)
(0 7.69315e-06 0)
(0 7.69315e-06 0)
(0 7.69315e-06 0)
(0 7.69315e-06 0)
(0 7.69315e-06 0)
(0 7.69315e-06 0)
(0 7.69315e-06 0)
(0 7.69315e-06 0)
(0 7.69315e-06 0)
(0 7.69315e-06 0)
(0 7.69315e-06 0)
(0 7.69315e-06 0)
(0 7.69315e-06 0)
(0 7.69315e-06 0)
(0 7.69315e-06 0)
(0 7.69315e-06 0)
(0 7.69315e-06 0)
(0 7.69315e-06 0)
(0 7.69315e-06 0)
(0 7.69315e-06 0)
(0 7.69315e-06 0)
(0 7.69315e-06 0)
(0 7.69315e-06 0)
(0 7.69315e-06 0)
(0 7.69315e-06 0)
(0 7.69315e-06 0)
(0 7.69315e-06 0)
(0 7.69315e-06 0)
(0 7.69315e-06 0)
(0 7.69315e-06 0)
(0 7.69315e-06 0)
(0 7.69315e-06 0)
(0 7.69315e-06 0)
(0 7.69315e-06 0)
(0 7.69315e-06 0)
(0 7.69315e-06 0)
(0 7.69315e-06 0)
(0 7.69315e-06 0)
(0 7.69315e-06 0)
(0 7.69315e-06 0)
(0 7.69315e-06 0)
(0 7.69315e-06 0)
(0 7.69315e-06 0)
(0 7.69315e-06 0)
(0 7.69315e-06 0)
(0 7.69315e-06 0)
(0 7.69315e-06 0)
(0 7.69315e-06 0)
(0 7.69315e-06 0)
(0 7.69315e-06 0)
(0 7.69315e-06 0)
(0 7.69315e-06 0)
(0 7.69315e-06 0)
(0 7.69315e-06 0)
(0 7.69315e-06 0)
(0 7.69315e-06 0)
(0 7.69315e-06 0)
(0 7.69315e-06 0)
(0 7.69315e-06 0)
(0 7.69315e-06 0)
(0 7.69315e-06 0)
(0 7.69315e-06 0)
(0 7.69315e-06 0)
(0 7.69315e-06 0)
(0 7.69315e-06 0)
(0 7.69315e-06 0)
(0 7.69315e-06 0)
(0 7.69315e-06 0)
(0 7.69315e-06 0)
(0 7.69315e-06 0)
(0 7.69315e-06 0)
(0 7.69315e-06 0)
(0 7.69315e-06 0)
(0 7.69315e-06 0)
(0 7.69315e-06 0)
(0 7.69315e-06 0)
(0 7.69315e-06 0)
(0 7.69315e-06 0)
(0 7.69315e-06 0)
(0 7.69315e-06 0)
(0 7.69315e-06 0)
(0 7.69315e-06 0)
(0 7.69315e-06 0)
(0 7.69315e-06 0)
(0 7.69315e-06 0)
(0 7.69315e-06 0)
(0 7.69315e-06 0)
(0 7.69315e-06 0)
(0 7.69315e-06 0)
(0 7.69315e-06 0)
(0 7.69315e-06 0)
(0 7.69315e-06 0)
(0 7.69315e-06 0)
(0 7.69315e-06 0)
(0 7.69315e-06 0)
(0 7.69315e-06 0)
(0 7.69315e-06 0)
(0 7.69315e-06 0)
(0 7.69315e-06 0)
(0 7.69315e-06 0)
(0 7.69315e-06 0)
(0 7.69315e-06 0)
(0 7.69315e-06 0)
(0 7.69315e-06 0)
(0 7.69315e-06 0)
(0 7.69315e-06 0)
(0 7.69315e-06 0)
(0 7.69315e-06 0)
(0 7.69315e-06 0)
(0 7.69315e-06 0)
(0 7.69315e-06 0)
(0 7.69315e-06 0)
(0 7.69315e-06 0)
(0 7.69315e-06 0)
(0 7.69315e-06 0)
(0 7.69315e-06 0)
(0 7.69315e-06 0)
(0 7.69315e-06 0)
(0 7.69315e-06 0)
(0 7.69315e-06 0)
(0 7.69315e-06 0)
(0 7.69315e-06 0)
(0 7.69315e-06 0)
(0 7.69315e-06 0)
(0 7.69315e-06 0)
(0 7.69315e-06 0)
(0 7.69315e-06 0)
(0 7.69315e-06 0)
(0 7.69315e-06 0)
(0 7.69315e-06 0)
(0 7.69315e-06 0)
(0 7.69315e-06 0)
(0 7.69315e-06 0)
(0 7.69315e-06 0)
(0 7.69315e-06 0)
(0 7.69315e-06 0)
(0 7.69315e-06 0)
(0 7.69315e-06 0)
(0 7.69315e-06 0)
(0 7.69315e-06 0)
(0 7.69315e-06 0)
(0 7.69315e-06 0)
(0 7.69315e-06 0)
(0 7.69315e-06 0)
(0 7.69315e-06 0)
(0 7.69315e-06 0)
(0 7.69315e-06 0)
(0 7.69315e-06 0)
(0 7.69315e-06 0)
(0 7.69315e-06 0)
(0 7.69315e-06 0)
(0 7.69315e-06 0)
(0 7.69315e-06 0)
(0 7.69315e-06 0)
(0 7.69315e-06 0)
(0 7.69315e-06 0)
(0 7.69315e-06 0)
(0 7.69315e-06 0)
(0 7.69315e-06 0)
(0 7.69191e-06 0)
(0 7.70042e-06 0)
(0 7.69457e-06 0)
(0 7.69357e-06 0)
(0 7.69324e-06 0)
(0 7.69462e-06 0)
(0 7.69275e-06 0)
(0 7.69806e-06 0)
(0 7.69344e-06 0)
(0 7.69308e-06 0)
(0 7.69316e-06 0)
(0 7.69505e-06 0)
(0 7.69314e-06 0)
(0 7.69471e-06 0)
(0 7.70331e-06 0)
(0 7.69344e-06 0)
(0 7.69471e-06 0)
(0 7.69371e-06 0)
(0 7.6944e-06 0)
(0 8.93942e-07 0)
(0 3.29554e-06 0)
(0 3.66415e-06 0)
(0 5.38364e-06 0)
(0 1.40073e-06 0)
(0 1.28055e-06 0)
(0 -2.00875e-07 0)
(0 6.39535e-07 0)
(0 2.80848e-06 0)
(0 -3.42672e-08 0)
(0 7.69134e-06 0)
(0 7.69236e-06 0)
(0 7.69371e-06 0)
(0 7.69306e-06 0)
(0 7.69315e-06 0)
(0 7.69676e-06 0)
(0 7.69316e-06 0)
(0 7.69345e-06 0)
(0 7.69871e-06 0)
(0 7.69312e-06 0)
(0 7.69383e-06 0)
(0 7.69327e-06 0)
(0 3.3859e-06 0)
(0 9.53711e-07 0)
(0 3.09693e-06 0)
(0 -2.28005e-07 0)
(0 7.69363e-06 0)
(0 7.69326e-06 0)
(0 7.69303e-06 0)
(0 7.69311e-06 0)
(0 7.69335e-06 0)
(0 2.44131e-06 0)
(0 1.37442e-06 0)
(0 -1.29648e-07 0)
(0 8.52869e-07 0)
(0 1.29016e-06 0)
(0 3.69649e-06 0)
(0 2.05593e-06 0)
(0 5.28908e-06 0)
(0 1.62363e-06 0)
(0 -4.24753e-08 0)
(0 7.6924e-06 0)
(0 9.61393e-07 0)
(0 5.28544e-06 0)
(0 1.75621e-06 0)
(0 5.56471e-07 0)
(0 2.8676e-06 0)
(0 5.41937e-07 0)
(0 8.71891e-07 0)
(0 3.11499e-06 0)
(0 1.07768e-06 0)
(0 5.03215e-07 0)
(0 2.88382e-07 0)
(0 -5.02892e-05 0)
(0 -5.17052e-05 0)
(0 -4.85085e-05 0)
(0 -5.00658e-05 0)
(0 -4.68485e-05 0)
(0 -4.82758e-05 0)
(0 -4.51329e-05 0)
(0 -4.6517e-05 0)
(0 -4.33941e-05 0)
(0 -4.50446e-05 0)
(0 -4.16211e-05 0)
(0 -4.26237e-05 0)
(0 -3.97838e-05 0)
(0 -4.06858e-05 0)
(0 -3.80034e-05 0)
(0 -3.893e-05 0)
(0 -3.6265e-05 0)
(0 -3.72803e-05 0)
(0 -3.45359e-05 0)
(0 -3.36508e-05 0)
(0 -3.20605e-05 0)
(0 -3.27582e-05 0)
(0 -3.05592e-05 0)
(0 -3.1119e-05 0)
(0 -2.91967e-05 0)
(0 -2.86364e-05 0)
(0 -2.74333e-05 0)
(0 -2.7894e-05 0)
(0 -2.61969e-05 0)
(0 -2.65678e-05 0)
(0 -2.48738e-05 0)
(0 -2.5238e-05 0)
(0 -2.35402e-05 0)
(0 -2.68272e-05 0)
(0 -2.39469e-05 0)
(0 -2.22169e-05 0)
(0 -2.26719e-05 0)
(0 -2.08745e-05 0)
(0 -2.13232e-05 0)
(0 -1.95027e-05 0)
(0 -1.90228e-05 0)
(0 -1.77371e-05 0)
(0 -2.31414e-05 0)
(0 -1.81567e-05 0)
(0 -1.65341e-05 0)
(0 -5.32166e-05 0)
(0 -4.14159e-05 0)
(0 -1.70092e-05 0)
(0 -4.37037e-05 0)
(0 -1.68699e-05 0)
(0 -1.52851e-05 0)
(0 -1.55965e-05 0)
(0 -1.40074e-05 0)
(0 -1.4322e-05 0)
(0 -1.27649e-05 0)
(0 -1.30471e-05 0)
(0 -1.15971e-05 0)
(0 -1.13283e-05 0)
(0 -1.03074e-05 0)
(0 -1.00559e-05 0)
(0 -9.21995e-06 0)
(0 -9.46417e-06 0)
(0 -8.63112e-06 0)
(0 -9.00536e-06 0)
(0 -8.90083e-06 0)
(0 -8.27381e-06 0)
(0 -8.51109e-06 0)
(0 -7.97825e-06 0)
(0 -8.14191e-06 0)
(0 -7.63859e-06 0)
(0 -7.73324e-06 0)
(0 -7.18629e-06 0)
(0 -7.22444e-06 0)
(0 -6.60227e-06 0)
(0 -6.54282e-06 0)
(0 -5.90366e-06 0)
(0 -5.83825e-06 0)
(0 -5.20305e-06 0)
(0 -5.18281e-06 0)
(0 -4.61535e-06 0)
(0 -4.64952e-06 0)
(0 -4.17875e-06 0)
(0 -4.24366e-06 0)
(0 -3.84163e-06 0)
(0 -3.9154e-06 0)
(0 -3.54175e-06 0)
(0 -3.54733e-06 0)
(0 -3.45874e-06 0)
(0 -3.25053e-06 0)
(0 -3.14588e-06 0)
(0 -2.95174e-06 0)
(0 -2.73127e-06 0)
(0 -2.66216e-06 0)
(0 -2.36852e-06 0)
(0 -2.38792e-06 0)
(0 -2.0439e-06 0)
(0 -2.1229e-06 0)
(0 -1.7859e-06 0)
(0 -1.90905e-06 0)
(0 -2.30138e-06 0)
(0 -6.59445e-06 0)
(0 -2.92871e-06 0)
(0 -2.10907e-06 0)
(0 -2.43769e-06 0)
(0 -1.64041e-06 0)
(0 -7.21433e-06 0)
(0 -6.57521e-06 0)
(0 -2.35478e-06 0)
(0 -2.61444e-06 0)
(0 -2.57414e-06 0)
(0 -2.69852e-06 0)
(0 -2.6326e-06 0)
(0 -2.6337e-06 0)
(0 -2.59609e-06 0)
(0 -2.59609e-06 0)
(0 -2.59953e-06 0)
(0 -2.60859e-06 0)
(0 -2.65285e-06 0)
(0 -7.24055e-06 0)
(0 -6.57621e-06 0)
(0 -2.63444e-06 0)
(0 -2.76119e-06 0)
(0 -7.28178e-06 0)
(0 -6.5189e-06 0)
(0 -2.73578e-06 0)
(0 -2.9379e-06 0)
(0 -2.95975e-06 0)
(0 -7.23581e-06 0)
(0 -6.42096e-06 0)
(0 -3.21334e-06 0)
(0 -3.26865e-06 0)
(0 -7.07613e-06 0)
(0 -6.2217e-06 0)
(0 -3.52236e-06 0)
(0 -3.56182e-06 0)
(0 -3.27125e-06 0)
(0 -6.69564e-06 0)
(0 -5.86707e-06 0)
(0 -3.66841e-06 0)
(0 -3.23073e-06 0)
(0 -3.81481e-06 0)
(0 -6.09576e-06 0)
(0 -5.35003e-06 0)
(0 -3.72851e-06 0)
(0 -3.02607e-06 0)
(0 -5.34345e-06 0)
(0 -4.68924e-06 0)
(0 -3.46348e-06 0)
(0 -2.54783e-06 0)
(0 -4.50279e-06 0)
(0 -3.93338e-06 0)
(0 -5.26015e-06 0)
(0 -2.9567e-06 0)
(0 -1.91184e-06 0)
(0 -4.14346e-06 0)
(0 -3.31525e-06 0)
(0 -3.42727e-06 0)
(0 -2.5213e-06 0)
(0 -2.66091e-06 0)
(0 -1.89761e-06 0)
(0 -2.03926e-06 0)
(0 -1.57039e-06 0)
(0 -1.65785e-06 0)
(0 -1.55818e-06 0)
(0 -1.65963e-06 0)
(0 -1.896e-06 0)
(0 -2.12943e-06 0)
(0 -4.29994e-06 0)
(0 -5.06437e-06 0)
(0 -2.6699e-06 0)
(0 -3.12193e-06 0)
(0 -2.38425e-06 0)
(0 -1.25754e-06 0)
(0 -3.79567e-06 0)
(0 -4.40163e-06 0)
(0 -4.07653e-06 0)
(0 -4.9195e-06 0)
(0 -4.95608e-06 0)
(0 -5.44466e-06 0)
(0 -3.86751e-06 0)
(0 -5.04906e-06 0)
(0 -1.35296e-06 0)
(0 -1.74452e-06 0)
(0 -5.11634e-07 0)
(0 -5.70353e-06 0)
(0 -5.88684e-06 0)
(0 -5.04549e-06 0)
(0 -4.09579e-06 0)
(0 -5.76159e-06 0)
(0 -5.74862e-06 0)
(0 -3.67888e-06 0)
(0 -5.40899e-06 0)
(0 -1.5052e-06 0)
(0 -1.40692e-06 0)
(0 -1.19384e-06 0)
(0 -1.08875e-06 0)
(0 -7.77809e-07 0)
(0 -6.68654e-07 0)
(0 -2.94811e-07 0)
(0 -2.45582e-07 0)
(0 1.111e-07 0)
(0 6.37149e-08 0)
(0 3.70794e-07 0)
(0 2.39937e-07 0)
(0 5.23046e-07 0)
(0 3.5926e-07 0)
(0 6.65184e-07 0)
(0 5.0476e-07 0)
(0 8.39736e-07 0)
(0 7.11533e-07 0)
(0 1.04631e-06 0)
(0 9.76008e-07 0)
(0 1.29855e-06 0)
(0 1.31424e-06 0)
(0 1.24919e-06 0)
(0 1.5553e-06 0)
(0 1.4678e-06 0)
(0 1.7505e-06 0)
(0 1.62223e-06 0)
(0 1.87647e-06 0)
(0 1.72814e-06 0)
(0 1.96955e-06 0)
(0 1.81846e-06 0)
(0 1.51266e-06 0)
(0 1.61061e-06 0)
(0 1.92395e-06 0)
(0 1.72558e-06 0)
(0 2.04678e-06 0)
(0 1.87131e-06 0)
(0 2.20602e-06 0)
(0 2.03673e-06 0)
(0 1.64728e-06 0)
(0 1.82088e-06 0)
(0 2.19506e-06 0)
(0 1.97229e-06 0)
(0 2.33259e-06 0)
(0 2.09273e-06 0)
(0 2.43582e-06 0)
(0 1.71764e-06 0)
(0 2.17304e-06 0)
(0 2.50618e-06 0)
(0 2.20703e-06 0)
(0 2.56589e-06 0)
(0 2.21922e-06 0)
(0 2.62336e-06 0)
(0 2.26019e-06 0)
(0 2.67815e-06 0)
(0 2.30316e-06 0)
(0 2.69815e-06 0)
(0 1.91122e-06 0)
(0 2.30525e-06 0)
(0 2.68382e-06 0)
(0 2.77052e-06 0)
(0 2.30383e-06 0)
(0 3.11881e-06 0)
(0 -3.64121e-06 0)
(0 -2.35972e-06 0)
(0 -2.9439e-06 0)
(0 -1.71568e-06 0)
(0 -2.31227e-06 0)
(0 -1.17716e-06 0)
(0 -1.74417e-06 0)
(0 -6.6604e-07 0)
(0 -1.23707e-06 0)
(0 -2.21914e-07 0)
(0 -8.03304e-07 0)
(0 1.57685e-07 0)
(0 -3.90757e-07 0)
(0 5.54721e-07 0)
(0 4.07117e-09 0)
(0 9.28155e-07 0)
(0 3.42098e-07 0)
(0 1.23938e-06 0)
(0 6.59011e-07 0)
(0 1.51967e-06 0)
(0 9.57413e-07 0)
(0 1.78444e-06 0)
(0 1.22721e-06 0)
(0 2.0216e-06 0)
(0 1.46488e-06 0)
(0 2.22627e-06 0)
(0 1.70358e-06 0)
(0 2.43855e-06 0)
(0 1.94637e-06 0)
(0 2.63247e-06 0)
(0 2.06285e-06 0)
(0 2.8178e-06 0)
(0 2.3718e-06 0)
(0 2.99484e-06 0)
(0 2.55558e-06 0)
(0 3.1336e-06 0)
(0 2.63195e-06 0)
(0 3.2753e-06 0)
(0 2.85948e-06 0)
(0 3.42515e-06 0)
(0 3.03374e-06 0)
(0 3.5602e-06 0)
(0 3.1853e-06 0)
(0 3.687e-06 0)
(0 3.29126e-06 0)
(0 3.80169e-06 0)
(0 3.40431e-06 0)
(0 3.9027e-06 0)
(0 3.45013e-06 0)
(0 4.01595e-06 0)
(0 3.66874e-06 0)
(0 4.13869e-06 0)
(0 3.78368e-06 0)
(0 4.21391e-06 0)
(0 3.81281e-06 0)
(0 4.29352e-06 0)
(0 3.96996e-06 0)
(0 4.40027e-06 0)
(0 4.09486e-06 0)
(0 4.55052e-06 0)
(0 4.19458e-06 0)
(0 4.57496e-06 0)
(0 4.24715e-06 0)
(0 4.65016e-06 0)
(0 4.30853e-06 0)
(0 4.70911e-06 0)
(0 4.30459e-06 0)
(0 4.7575e-06 0)
(0 4.43844e-06 0)
(0 4.81549e-06 0)
(0 4.4959e-06 0)
(0 4.85516e-06 0)
(0 4.51372e-06 0)
(0 4.89711e-06 0)
(0 4.54086e-06 0)
(0 4.93976e-06 0)
(0 4.59048e-06 0)
(0 4.97212e-06 0)
(0 4.64223e-06 0)
(0 5.00838e-06 0)
(0 4.69745e-06 0)
(0 5.04547e-06 0)
(0 4.74352e-06 0)
(0 5.07054e-06 0)
(0 4.77197e-06 0)
(0 5.07213e-06 0)
(0 4.78307e-06 0)
(0 5.07769e-06 0)
(0 2.38853e-06 0)
(0 1.21968e-06 0)
(0 3.34194e-06 0)
(0 3.91548e-06 0)
(0 4.14094e-06 0)
(0 4.79643e-06 0)
(0 5.10393e-06 0)
(0 4.79914e-06 0)
(0 5.10204e-06 0)
(0 -6.51226e-07 0)
(0 4.77709e-06 0)
(0 -2.89773e-06 0)
(0 4.43062e-06 0)
(0 5.0464e-06 0)
(0 4.73064e-06 0)
(0 5.19162e-06 0)
(0 4.98878e-06 0)
(0 4.66176e-06 0)
(0 4.37233e-06 0)
(0 4.28692e-06 0)
(0 4.94738e-06 0)
(0 4.46233e-06 0)
(0 4.0515e-06 0)
(0 3.96817e-06 0)
(0 3.86832e-06 0)
(0 5.32254e-06 0)
(0 3.5635e-06 0)
(0 4.92984e-06 0)
(0 2.88633e-06 0)
(0 3.51605e-06 0)
(0 3.42113e-06 0)
(0 5.34806e-06 0)
(0 2.02981e-06 0)
(0 3.03514e-06 0)
(0 2.95996e-06 0)
(0 5.27211e-06 0)
(0 5.18975e-06 0)
(0 6.80063e-07 0)
(0 5.48788e-06 0)
(0 5.42864e-06 0)
(0 -1.07734e-06 0)
(0 2.54457e-06 0)
(0 2.50709e-06 0)
(0 5.68978e-06 0)
(0 5.62659e-06 0)
(0 5.87559e-06 0)
(0 5.79704e-06 0)
(0 5.32593e-07 0)
(0 6.0356e-06 0)
(0 5.94877e-06 0)
(0 2.06711e-06 0)
(0 2.06466e-06 0)
(0 -5.36214e-06 0)
(0 -5.32003e-06 0)
(0 -8.21944e-07 0)
(0 4.6025e-07 0)
(0 6.16917e-06 0)
(0 6.07713e-06 0)
(0 6.24937e-06 0)
(0 5.84234e-06 0)
(0 5.96555e-06 0)
(0 5.71285e-06 0)
(0 5.8357e-06 0)
(0 6.07482e-06 0)
(0 5.9478e-06 0)
(0 6.17052e-06 0)
(0 5.56466e-06 0)
(0 6.03921e-06 0)
(0 6.25061e-06 0)
(0 6.10518e-06 0)
(0 6.31334e-06 0)
(0 -1.46296e-05 0)
(0 -1.97931e-07 0)
(0 -4.50556e-06 0)
(0 -5.15656e-06 0)
(0 -4.25586e-06 0)
(0 -5.91315e-06 0)
(0 -3.54351e-06 0)
(0 -5.93039e-06 0)
(0 -4.77877e-06 0)
(0 -4.55226e-06 0)
(0 6.14814e-06 0)
(0 6.36239e-06 0)
(0 -3.94405e-06 0)
(0 -3.40672e-06 0)
(0 1.59619e-06 0)
(0 1.55549e-06 0)
(0 1.60713e-06 0)
(0 -6.1259e-06 0)
(0 -6.67732e-06 0)
(0 4.00962e-07 0)
(0 1.63115e-06 0)
(0 -4.10583e-06 0)
(0 -6.35792e-06 0)
(0 5.89899e-06 0)
(0 -2.78986e-06 0)
(0 -1.84673e-06 0)
(0 6.18945e-06 0)
(0 6.40309e-06 0)
(0 1.06105e-06 0)
(0 1.01374e-06 0)
(0 -1.35898e-06 0)
(0 -1.00603e-07 0)
(0 -6.90708e-06 0)
(0 -7.3719e-06 0)
(0 -4.11049e-06 0)
(0 -6.28265e-06 0)
(0 -2.21361e-06 0)
(0 3.71335e-07 0)
(0 6.22809e-06 0)
(0 6.42913e-06 0)
(0 1.8082e-06 0)
(0 2.97265e-06 0)
(0 4.9471e-07 0)
(0 -5.66349e-06 0)
(0 2.28679e-07 0)
(0 1.55665e-06 0)
(0 4.89258e-07 0)
(0 4.45348e-07 0)
(0 -7.55304e-06 0)
(0 -7.98671e-06 0)
(0 6.4931e-06 0)
(0 -5.81621e-07 0)
(0 1.88936e-06 0)
(0 3.19979e-06 0)
(0 -3.7099e-06 0)
(0 -5.8472e-06 0)
(0 -8.53134e-06 0)
(0 -8.07596e-06 0)
(0 6.23978e-06 0)
(0 6.43038e-06 0)
(0 -1.0863e-05 0)
(0 -1.04099e-05 0)
(0 -7.45592e-06 0)
(0 -9.77407e-06 0)
(0 -1.28648e-05 0)
(0 -1.21887e-05 0)
(0 -1.54215e-05 0)
(0 -1.48668e-05 0)
(0 -1.82596e-05 0)
(0 -1.80427e-05 0)
(0 -2.1518e-05 0)
(0 -2.16282e-05 0)
(0 -1.78734e-05 0)
(0 -2.18308e-05 0)
(0 -2.54602e-05 0)
(0 -2.60343e-05 0)
(0 -2.94288e-05 0)
(0 -3.03741e-05 0)
(0 -3.34549e-05 0)
(0 -3.47732e-05 0)
(0 -3.14563e-05 0)
(0 -3.59798e-05 0)
(0 -3.90065e-05 0)
(0 -4.02203e-05 0)
(0 -4.31325e-05 0)
(0 -4.43323e-05 0)
(0 -4.71478e-05 0)
(0 -4.8277e-05 0)
(0 -5.09344e-05 0)
(0 -5.20127e-05 0)
(0 -5.46009e-05 0)
(0 -5.57022e-05 0)
(0 -5.83033e-05 0)
(0 -5.95035e-05 0)
(0 -6.2099e-05 0)
(0 -4.54658e-05 0)
(0 2.0952e-06 0)
(0 7.81441e-07 0)
(0 -8.31797e-08 0)
(0 -1.47083e-07 0)
(0 3.6585e-06 0)
(0 5.02822e-06 0)
(0 -8.17191e-06 0)
(0 -8.54819e-06 0)
(0 -5.03465e-06 0)
(0 -7.69086e-06 0)
(0 -6.78394e-06 0)
(0 6.22593e-06 0)
(0 6.4081e-06 0)
(0 6.02179e-06 0)
(0 5.47395e-06 0)
(0 -6.90097e-07 0)
(0 -8.11498e-07 0)
(0 -6.21511e-07 0)
(0 -2.64049e-06 0)
(0 -1.39323e-06 0)
(0 -1.58723e-06 0)
(0 -8.79561e-06 0)
(0 -9.10396e-06 0)
(0 2.3931e-06 0)
(0 1.1346e-06 0)
(0 -4.55926e-06 0)
(0 2.03392e-06 0)
(0 1.57035e-06 0)
(0 1.97028e-06 0)
(0 1.49076e-06 0)
(0 1.9047e-06 0)
(0 1.40906e-06 0)
(0 6.59539e-06 0)
(0 6.56592e-06 0)
(0 6.3668e-06 0)
(0 6.51914e-06 0)
(0 6.31385e-06 0)
(0 6.4619e-06 0)
(0 6.24823e-06 0)
(0 6.39492e-06 0)
(0 6.59566e-06 0)
(0 6.5305e-06 0)
(0 6.71882e-06 0)
(0 6.65578e-06 0)
(0 6.82959e-06 0)
(0 6.76925e-06 0)
(0 6.58571e-06 0)
(0 6.70162e-06 0)
(0 6.87367e-06 0)
(0 6.80914e-06 0)
(0 6.62896e-06 0)
(0 6.74314e-06 0)
(0 6.90658e-06 0)
(0 6.84718e-06 0)
(0 -2.62566e-06 0)
(0 6.74876e-06 0)
(0 6.3949e-06 0)
(0 6.99602e-06 0)
(0 -9.35712e-06 0)
(0 -9.51137e-06 0)
(0 2.09687e-06 0)
(0 6.99691e-06 0)
(0 6.94014e-06 0)
(0 -4.9681e-05 0)
(0 -2.63504e-06 0)
(0 -2.58617e-06 0)
(0 2.64258e-06 0)
(0 1.46589e-06 0)
(0 6.7818e-06 0)
(0 6.87897e-06 0)
(0 7.02362e-06 0)
(0 6.96509e-06 0)
(0 -3.83366e-06 0)
(0 -2.18303e-06 0)
(0 -2.43754e-06 0)
(0 -9.67413e-06 0)
(0 -9.58369e-06 0)
(0 -9.30303e-06 0)
(0 -9.24202e-06 0)
(0 -8.96328e-06 0)
(0 -8.92964e-06 0)
(0 -8.72927e-06 0)
(0 -9.02135e-06 0)
(0 -8.71025e-06 0)
(0 -8.61345e-06 0)
(0 -8.50009e-06 0)
(0 -8.45576e-06 0)
(0 -8.13202e-06 0)
(0 -8.15012e-06 0)
(0 -7.64219e-06 0)
(0 -7.74667e-06 0)
(0 -7.60937e-06 0)
(0 -1.10749e-06 0)
(0 1.84991e-06 0)
(0 1.36213e-06 0)
(0 7.09869e-06 0)
(0 7.04019e-06 0)
(0 6.90276e-06 0)
(0 6.97369e-06 0)
(0 7.10484e-06 0)
(0 7.03591e-06 0)
(0 7.15681e-06 0)
(0 7.96411e-06 0)
(0 7.95242e-06 0)
(0 6.90178e-06 0)
(0 2.8461e-06 0)
(0 4.01673e-06 0)
(0 1.70075e-06 0)
(0 -7.17977e-06 0)
(0 -7.28391e-06 0)
(0 9.17712e-06 0)
(0 9.42045e-06 0)
(0 -2.53938e-06 0)
(0 -2.43567e-06 0)
(0 -1.87092e-06 0)
(0 -2.87909e-06 0)
(0 -2.1805e-06 0)
(0 -3.09004e-06 0)
(0 -2.46222e-06 0)
(0 -3.38847e-06 0)
(0 -2.76341e-06 0)
(0 -3.70921e-06 0)
(0 -3.08463e-06 0)
(0 -4.05183e-06 0)
(0 -3.41176e-06 0)
(0 -4.42059e-06 0)
(0 -3.7564e-06 0)
(0 -4.81247e-06 0)
(0 -5.52715e-06 0)
(0 -5.95638e-06 0)
(0 -5.21829e-06 0)
(0 -6.39958e-06 0)
(0 -5.6467e-06 0)
(0 -6.87097e-06 0)
(0 -6.08888e-06 0)
(0 -7.36387e-06 0)
(0 -6.55018e-06 0)
(0 -7.89771e-06 0)
(0 -7.05386e-06 0)
(0 -8.45551e-06 0)
(0 -7.60781e-06 0)
(0 -9.06392e-06 0)
(0 -8.19483e-06 0)
(0 -9.72548e-06 0)
(0 -8.81703e-06 0)
(0 -1.03783e-05 0)
(0 -9.47475e-06 0)
(0 -1.10078e-05 0)
(0 -1.01125e-05 0)
(0 -1.16264e-05 0)
(0 -1.07244e-05 0)
(0 -1.22731e-05 0)
(0 -1.13747e-05 0)
(0 -1.2977e-05 0)
(0 -1.20786e-05 0)
(0 -1.37461e-05 0)
(0 -1.28504e-05 0)
(0 -1.45984e-05 0)
(0 -1.37535e-05 0)
(0 -1.55252e-05 0)
(0 -1.32726e-05 0)
(0 -1.46313e-05 0)
(0 -1.64689e-05 0)
(0 -1.5508e-05 0)
(0 -1.74046e-05 0)
(0 -1.6519e-05 0)
(0 -1.84344e-05 0)
(0 -1.75542e-05 0)
(0 -1.95614e-05 0)
(0 -1.86054e-05 0)
(0 -2.07098e-05 0)
(0 -1.97228e-05 0)
(0 -2.19586e-05 0)
(0 -2.09553e-05 0)
(0 -2.33082e-05 0)
(0 -1.05551e-05 0)
(0 -6.71852e-06 0)
(0 -1.65351e-05 0)
(0 -2.04585e-05 0)
(0 -1.55174e-07 0)
(0 -3.02071e-06 0)
(0 1.79513e-06 0)
(0 1.32945e-06 0)
(0 8.81813e-07 0)
(0 8.32175e-07 0)
(0 3.85213e-07 0)
(0 7.25292e-06 0)
(0 2.83313e-06 0)
(0 1.65713e-06 0)
(0 -6.69265e-06 0)
(0 -5.95132e-06 0)
(0 -2.12685e-05 0)
(0 5.65412e-06 0)
(0 7.05416e-06 0)
(0 1.01052e-05 0)
(0 1.03043e-05 0)
(0 3.14606e-07 0)
(0 -1.316e-07 0)
(0 7.78612e-08 0)
(0 -2.35186e-06 0)
(0 -2.09744e-06 0)
(0 2.49259e-06 0)
(0 1.24059e-06 0)
(0 -6.98559e-06 0)
(0 1.7443e-06 0)
(0 -2.01018e-06 0)
(0 1.05803e-05 0)
(0 1.05517e-05 0)
(0 1.07046e-05 0)
(0 1.0506e-05 0)
(0 1.0387e-05 0)
(0 1.0366e-05 0)
(0 9.97723e-06 0)
(0 9.94519e-06 0)
(0 9.4281e-06 0)
(0 9.26785e-06 0)
(0 9.39134e-06 0)
(0 -3.08403e-06 0)
(0 -3.1073e-06 0)
(0 8.83754e-06 0)
(0 -7.8113e-06 0)
(0 -1.05864e-05 0)
(0 -5.75106e-06 0)
(0 5.60138e-06 0)
(0 7.05839e-06 0)
(0 -1.35826e-05 0)
(0 2.16739e-06 0)
(0 1.03818e-06 0)
(0 -8.57235e-06 0)
(0 5.87161e-06 0)
(0 5.96632e-06 0)
(0 5.62298e-06 0)
(0 6.03985e-06 0)
(0 5.67967e-06 0)
(0 6.08002e-06 0)
(0 5.7054e-06 0)
(0 6.07853e-06 0)
(0 5.31804e-06 0)
(0 5.70133e-06 0)
(0 6.05171e-06 0)
(0 5.6762e-06 0)
(0 6.01184e-06 0)
(0 6.35023e-06 0)
(0 6.29803e-06 0)
(0 5.95935e-06 0)
(0 6.23561e-06 0)
(0 6.536e-06 0)
(0 6.46916e-06 0)
(0 6.73255e-06 0)
(0 6.6661e-06 0)
(0 6.39813e-06 0)
(0 6.59547e-06 0)
(0 6.83018e-06 0)
(0 6.7591e-06 0)
(0 6.52108e-06 0)
(0 6.69042e-06 0)
(0 6.89942e-06 0)
(0 6.84127e-06 0)
(0 6.61926e-06 0)
(0 6.77679e-06 0)
(0 6.97803e-06 0)
(0 6.91677e-06 0)
(0 7.1115e-06 0)
(0 7.03206e-06 0)
(0 6.84866e-06 0)
(0 6.96883e-06 0)
(0 6.77883e-06 0)
(0 6.90362e-06 0)
(0 7.07284e-06 0)
(0 7.01204e-06 0)
(0 7.16271e-06 0)
(0 7.10858e-06 0)
(0 6.9482e-06 0)
(0 7.04858e-06 0)
(0 7.20799e-06 0)
(0 7.13572e-06 0)
(0 6.97243e-06 0)
(0 7.08194e-06 0)
(0 7.20743e-06 0)
(0 7.15942e-06 0)
(0 7.02108e-06 0)
(0 7.10307e-06 0)
(0 7.23176e-06 0)
(0 7.18706e-06 0)
(0 7.04058e-06 0)
(0 7.13478e-06 0)
(0 7.25772e-06 0)
(0 7.21233e-06 0)
(0 7.08603e-06 0)
(0 7.16728e-06 0)
(0 7.28026e-06 0)
(0 7.23515e-06 0)
(0 7.12667e-06 0)
(0 7.19471e-06 0)
(0 7.29541e-06 0)
(0 7.25851e-06 0)
(0 7.15648e-06 0)
(0 7.22094e-06 0)
(0 7.31588e-06 0)
(0 7.27944e-06 0)
(0 7.1823e-06 0)
(0 7.2439e-06 0)
(0 7.33302e-06 0)
(0 7.30198e-06 0)
(0 7.20877e-06 0)
(0 7.27074e-06 0)
(0 7.17361e-06 0)
(0 7.23931e-06 0)
(0 7.32489e-06 0)
(0 7.29846e-06 0)
(0 7.20845e-06 0)
(0 7.27015e-06 0)
(0 7.34893e-06 0)
(0 7.32577e-06 0)
(0 7.24311e-06 0)
(0 7.30153e-06 0)
(0 7.37656e-06 0)
(0 7.35378e-06 0)
(0 7.27515e-06 0)
(0 7.32948e-06 0)
(0 7.24668e-06 0)
(0 7.30453e-06 0)
(0 7.21838e-06 0)
(0 7.27979e-06 0)
(0 7.35559e-06 0)
(0 7.33261e-06 0)
(0 7.39561e-06 0)
(0 7.37841e-06 0)
(0 7.31086e-06 0)
(0 7.36242e-06 0)
(0 7.43153e-06 0)
(0 7.40931e-06 0)
(0 7.34192e-06 0)
(0 7.38946e-06 0)
(0 7.32028e-06 0)
(0 7.36958e-06 0)
(0 7.43101e-06 0)
(0 7.41299e-06 0)
(0 7.3491e-06 0)
(0 7.39468e-06 0)
(0 7.32737e-06 0)
(0 7.37563e-06 0)
(0 7.305e-06 0)
(0 7.35585e-06 0)
(0 7.41852e-06 0)
(0 7.4004e-06 0)
(0 7.45437e-06 0)
(0 7.4404e-06 0)
(0 7.38308e-06 0)
(0 7.42595e-06 0)
(0 7.36518e-06 0)
(0 7.40967e-06 0)
(0 7.4635e-06 0)
(0 7.44802e-06 0)
(0 7.39117e-06 0)
(0 7.43109e-06 0)
(0 7.37072e-06 0)
(0 7.41309e-06 0)
(0 7.46719e-06 0)
(0 7.45158e-06 0)
(0 7.39425e-06 0)
(0 7.43475e-06 0)
(0 7.48626e-06 0)
(0 7.47103e-06 0)
(0 7.41652e-06 0)
(0 7.45481e-06 0)
(0 7.39715e-06 0)
(0 7.43756e-06 0)
(0 7.48849e-06 0)
(0 7.47331e-06 0)
(0 7.41981e-06 0)
(0 7.45791e-06 0)
(0 7.40189e-06 0)
(0 7.44189e-06 0)
(0 7.49151e-06 0)
(0 7.47666e-06 0)
(0 7.42425e-06 0)
(0 7.46005e-06 0)
(0 7.40445e-06 0)
(0 7.44137e-06 0)
(0 7.49084e-06 0)
(0 7.47355e-06 0)
(0 7.42054e-06 0)
(0 7.45414e-06 0)
(0 7.50175e-06 0)
(0 7.48317e-06 0)
(0 7.39761e-06 0)
(0 7.52613e-06 0)
(0 7.5088e-06 0)
(0 7.54727e-06 0)
(0 7.53112e-06 0)
(0 7.56526e-06 0)
(0 7.54956e-06 0)
(0 7.51357e-06 0)
(0 7.53301e-06 0)
(0 7.57964e-06 0)
(0 7.49475e-06 0)
(0 7.51723e-06 0)
(0 7.55158e-06 0)
(0 7.53913e-06 0)
(0 7.50371e-06 0)
(0 7.52505e-06 0)
(0 4.72327e-06 0)
(0 7.59484e-06 0)
(0 7.60692e-06 0)
(0 9.01962e-06 0)
(0 8.48347e-06 0)
(0 7.55974e-06 0)
(0 7.54414e-06 0)
(0 7.49954e-06 0)
(0 7.52362e-06 0)
(0 -2.08735e-07 0)
(0 -6.56043e-07 0)
(0 -1.99134e-06 0)
(0 7.47907e-06 0)
(0 7.50078e-06 0)
(0 -2.03429e-06 0)
(0 -1.67562e-06 0)
(0 6.16946e-06 0)
(0 6.00899e-06 0)
(0 5.92309e-06 0)
(0 5.74968e-06 0)
(0 5.66554e-06 0)
(0 5.48497e-06 0)
(0 -1.21242e-07 0)
(0 -9.79879e-08 0)
(0 -3.75995e-06 0)
(0 -4.16542e-06 0)
(0 -4.01999e-06 0)
(0 -4.55441e-06 0)
(0 -4.24283e-06 0)
(0 -4.89323e-06 0)
(0 -4.45573e-06 0)
(0 7.57738e-06 0)
(0 -1.66969e-05 0)
(0 1.37187e-06 0)
(0 2.67467e-07 0)
(0 8.92544e-06 0)
(0 8.39103e-06 0)
(0 1.10212e-05 0)
(0 1.13737e-05 0)
(0 7.45054e-06 0)
(0 7.47448e-06 0)
(0 7.5262e-06 0)
(0 7.49672e-06 0)
(0 1.22081e-06 0)
(0 7.44213e-06 0)
(0 7.46616e-06 0)
(0 7.51622e-06 0)
(0 7.4871e-06 0)
(0 7.61979e-06 0)
(0 7.62949e-06 0)
(0 -6.06425e-05 0)
(0 -1.80002e-05 0)
(0 -3.27111e-05 0)
(0 -3.86648e-05 0)
(0 5.41085e-06 0)
(0 5.22442e-06 0)
(0 5.72713e-06 0)
(0 7.3303e-06 0)
(0 7.5328e-06 0)
(0 7.50318e-06 0)
(0 6.15664e-06 0)
(0 -5.16482e-06 0)
(0 -4.71811e-06 0)
(0 -5.48163e-06 0)
(0 2.59822e-06 0)
(0 -7.00845e-07 0)
(0 -1.15876e-06 0)
(0 2.53126e-07 0)
(0 -1.59279e-06 0)
(0 -1.19223e-06 0)
(0 -1.8423e-06 0)
(0 7.54559e-06 0)
(0 7.51471e-06 0)
(0 7.55529e-06 0)
(0 7.5224e-06 0)
(0 7.56118e-06 0)
(0 7.52568e-06 0)
(0 7.56274e-06 0)
(0 -3.98846e-06 0)
(0 3.24652e-06 0)
(0 -9.31367e-06 0)
(0 -8.23754e-06 0)
(0 -2.68784e-05 0)
(0 2.12553e-06 0)
(0 1.56503e-06 0)
(0 7.14988e-06 0)
(0 7.11856e-06 0)
(0 7.03662e-06 0)
(0 7.00292e-06 0)
(0 6.9072e-06 0)
(0 6.87065e-06 0)
(0 7.24794e-06 0)
(0 -4.83354e-05 0)
(0 8.89608e-06 0)
(0 8.38985e-06 0)
(0 -1.25956e-06 0)
(0 6.44722e-06 0)
(0 -2.81252e-06 0)
(0 -3.68135e-06 0)
(0 -3.49288e-06 0)
(0 -4.42285e-06 0)
(0 -4.20513e-06 0)
(0 -5.12979e-06 0)
(0 -4.87419e-06 0)
(0 -2.78478e-06 0)
(0 -8.19065e-06 0)
(0 -2.79098e-06 0)
(0 3.26586e-07 0)
(0 1.98671e-06 0)
(0 3.58722e-06 0)
(0 7.42593e-06 0)
(0 2.90217e-06 0)
(0 7.5244e-06 0)
(0 7.56164e-06 0)
(0 6.76268e-06 0)
(0 1.16424e-05 0)
(0 1.20574e-05 0)
(0 7.63977e-06 0)
(0 7.64758e-06 0)
(0 2.17568e-06 0)
(0 2.09891e-06 0)
(0 2.48317e-06 0)
(0 2.37962e-06 0)
(0 2.73248e-06 0)
(0 2.59264e-06 0)
(0 2.93016e-06 0)
(0 2.76921e-06 0)
(0 2.42469e-06 0)
(0 3.08259e-06 0)
(0 -5.43414e-06 0)
(0 -4.98081e-06 0)
(0 4.12969e-06 0)
(0 3.01589e-06 0)
(0 2.68958e-06 0)
(0 -1.75635e-06 0)
(0 -1.09776e-06 0)
(0 -6.71151e-07 0)
(0 -1.42411e-06 0)
(0 -1.67272e-06 0)
(0 7.40659e-06 0)
(0 7.46637e-06 0)
(0 7.4819e-06 0)
(0 6.29635e-06 0)
(0 7.86807e-06 0)
(0 7.56927e-06 0)
(0 6.72468e-06 0)
(0 6.84406e-06 0)
(0 -1.16092e-06 0)
(0 -1.62477e-06 0)
(0 -4.04775e-07 0)
(0 -1.14863e-07 0)
(0 2.60045e-07 0)
(0 3.93834e-07 0)
(0 5.16509e-06 0)
(0 4.96763e-06 0)
(0 5.33609e-06 0)
(0 8.68685e-06 0)
(0 8.40769e-06 0)
(0 2.92266e-06 0)
(0 3.21131e-06 0)
(0 8.87171e-06 0)
(0 -5.76906e-06 0)
(0 -6.09441e-06 0)
(0 -5.37803e-06 0)
(0 5.1008e-06 0)
(0 5.25303e-06 0)
(0 -9.45596e-06 0)
(0 -8.96194e-06 0)
(0 7.63747e-07 0)
(0 -6.71359e-06 0)
(0 -7.10326e-06 0)
(0 7.51891e-06 0)
(0 7.55714e-06 0)
(0 -7.83897e-06 0)
(0 7.6559e-06 0)
(0 7.66174e-06 0)
(0 7.65435e-06 0)
(0 7.66674e-06 0)
(0 7.66046e-06 0)
(0 -9.58334e-07 0)
(0 3.62834e-06 0)
(0 3.62841e-06 0)
(0 3.76277e-06 0)
(0 -5.66772e-06 0)
(0 -5.13711e-06 0)
(0 7.67142e-06 0)
(0 7.66591e-06 0)
(0 1.19439e-05 0)