/*--------------------------------*- C++ -*----------------------------------*\
| =========                 |                                                 |
| \\      /  F ield         | OpenFOAM: The Open Source CFD Toolbox           |
|  \\    /   O peration     | Version:  v2012                                 |
|   \\  /    A nd           | Website:  www.openfoam.com                      |
|    \\/     M anipulation  |                                                 |
\*---------------------------------------------------------------------------*/
FoamFile
{
    version     2.0;
    format      ascii;
    class       surfaceVectorField;
    location    "900";
    object      ddtCorrDdt0(Uf);
}
// * * * * * * * * * * * * * * * * * * * * * * * * * * * * * * * * * * * * * //

dimensions      [0 1 -2 0 0 0 0];


internalField   nonuniform List<vector> 
27274
(
(0.00172375 -0.0010842 -1.27755e-18)
(0.00170656 -0.00106925 -1.13486e-18)
(0.00173485 -0.00107206 8.31225e-18)
(-0.0364705 -0.00677525 2.81068e-18)
(-0.0363792 -0.00736984 7.2998e-18)
(-0.0389226 -0.00556833 -1.35062e-17)
(0.000383253 0.000312482 4.21016e-19)
(0.000368904 0.000336551 8.74675e-19)
(0.000372417 0.00030618 1.01355e-18)
(-6.17228e-06 -0.000160243 -6.05916e-19)
(-1.90105e-05 -0.000149154 1.1726e-18)
(-1.10527e-05 -0.000175761 -1.84316e-19)
(-0.000968319 -0.000524511 3.73998e-19)
(-0.000909392 -0.000560786 -2.87279e-18)
(-0.00100136 -0.000592703 9.4872e-19)
(0.00843001 -0.016007 1.16095e-17)
(0.00878728 -0.0151076 -8.90202e-18)
(0.00951255 -0.0160544 -1.83913e-18)
(9.95388e-05 -2.30993e-05 1.05529e-21)
(0.000100209 -4.36686e-05 4.17094e-19)
(9.95053e-05 -2.89415e-05 8.46094e-19)
(0.00367437 -0.00022502 -1.49043e-17)
(0.00395011 -0.000134256 -7.61077e-18)
(0.00383011 -0.000434962 7.21165e-18)
(-0.000137682 0.00099366 -2.97718e-18)
(-0.000155755 0.00102007 -1.64723e-17)
(-0.0469093 0.00150177 6.09363e-19)
(-0.0482506 0.000716548 9.65066e-18)
(-0.0477452 0.000725999 6.23953e-18)
(-0.000139483 -0.000118279 -3.94341e-20)
(-0.000142003 -0.000111991 9.24834e-19)
(-0.000132543 -0.000109718 -8.89284e-19)
(0.0416613 -0.00448321 6.22945e-18)
(0.040661 -0.00419508 -1.83156e-17)
(0.042439 -0.00329882 -2.2763e-17)
(0.00410756 0.00371977 -3.12291e-18)
(0.0044535 0.00405359 2.42736e-18)
(0.00387961 0.00411391 -1.07641e-17)
(6.31897e-05 0.000556659 2.26605e-18)
(7.96474e-05 0.000569093 -3.44519e-18)
(8.74992e-05 0.000498174 -1.87555e-18)
(0.000544743 -0.000684573 6.3104e-19)
(0.000518209 -0.00068371 -1.20786e-18)
(0.000525437 -0.000670055 -8.59957e-19)
(0.00118427 -1.54378e-05 2.25533e-18)
(0.00122171 9.23022e-06 2.1771e-18)
(0.00117816 3.83855e-05 -8.01935e-20)
(-0.00494579 -0.000285908 6.35455e-18)
(-0.00461166 -0.000356569 -2.3058e-17)
(-0.00492129 -0.000265183 1.57432e-17)
(9.64611e-05 -0.000316284 6.82777e-19)
(0.00010003 -0.000329028 -5.25655e-19)
(0.000111979 -0.000317441 6.05757e-19)
(0.000628421 -4.4838e-05 9.6648e-19)
(0.000640354 -8.2249e-05 2.74314e-19)
(0.000643834 -8.73769e-05 1.96095e-18)
(0.114797 -0.0401129 -8.86871e-18)
(0.113856 -0.042221 -8.56478e-18)
(0.106059 -0.0345444 4.86461e-18)
(0.00144788 0.000358118 5.75498e-19)
(0.00150741 0.000362961 -2.96256e-18)
(0.00148057 0.000419951 -4.69401e-18)
(0.000550431 0.000635115 -4.96097e-18)
(0.000530058 0.000644742 1.0279e-18)
(0.000551615 0.000648204 3.76783e-18)
(0.00671971 0.0221968 -7.6453e-18)
(0.00519038 0.0238504 -2.08028e-17)
(0.00448772 0.0229169 -7.78736e-18)
(-0.000999126 -0.000503154 -2.43313e-21)
(-0.000943848 -0.000484032 -1.76621e-19)
(-0.0029127 -0.000990397 2.08779e-18)
(-0.00318157 -0.00100374 4.04211e-19)
(9.30712e-05 0.000415412 6.85874e-19)
(8.93801e-05 0.000434953 1.01335e-18)
(9.67562e-05 0.00046662 4.84037e-19)
(-8.53705e-06 7.307e-06 3.27879e-19)
(-4.30209e-06 -2.25402e-05 8.83004e-19)
(7.03794e-05 0.00096906 -1.80129e-18)
(8.28703e-05 0.000980761 -2.47611e-18)
(2.78871e-05 0.000984491 -5.9802e-18)
(0.00554474 0.0860611 -3.6577e-19)
(0.0170417 0.06035 2.34934e-17)
(0.00534212 0.0669318 1.8119e-17)
(0.000409439 0.000596026 -4.94228e-19)
(0.000409703 0.000605694 -3.83073e-18)
(0.000425285 0.000583255 -1.11988e-18)
(-0.000669814 -0.000267044 3.89164e-18)
(-0.000682056 -0.000284175 4.26572e-18)
(-0.000700419 -0.000268769 1.29867e-18)
(-0.00145875 -0.000923672 -2.21796e-18)
(-0.00145687 -0.000842104 -2.54116e-18)
(-0.0015705 -0.000896031 -1.31176e-18)
(9.39552e-05 -0.000303868 4.81062e-20)
(8.13262e-05 -0.000313344 7.74056e-19)
(5.31367e-05 -1.39379e-05 -1.82538e-20)
(5.8121e-05 -1.76204e-05 -4.72024e-20)
(5.1947e-05 -2.12202e-05 -5.68835e-20)
(0.0019179 -0.00172143 2.20558e-18)
(0.00194824 -0.00185005 1.89462e-18)
(0.00180751 -0.00178906 1.04583e-18)
(0.00172196 -0.00108547 3.46191e-18)
(0.00174481 -0.00108969 -2.18758e-18)
(-0.000101356 0.000971423 -4.33423e-19)
(-8.69492e-05 0.000973463 4.73209e-18)
(0.00618155 -0.00482727 6.46541e-18)
(0.00633721 -0.00434823 -1.02986e-17)
(0.00590017 -0.00452012 -2.02073e-17)
(7.04465e-05 0.000987834 9.76635e-18)
(6.17821e-05 0.000973197 -2.72504e-19)
(-0.000141685 -0.000103606 3.97552e-19)
(-0.000136139 -9.06131e-05 2.35554e-19)
(-0.000144349 -9.63935e-05 3.31112e-19)
(5.70747e-05 0.000562813 4.41442e-18)
(6.23355e-05 0.000608408 -1.73077e-19)
(0.00563564 0.00243869 -2.17815e-18)
(0.00588778 0.00233824 -2.9956e-18)
(0.00566726 0.00214777 -1.65824e-18)
(0.000397025 0.000286109 -3.58367e-19)
(0.000392718 0.0003235 -1.61154e-18)
(-0.0446844 0.00317096 -1.66164e-17)
(-0.0431943 0.00383725 2.95561e-17)
(-0.0465149 0.00300758 4.83344e-18)
(-6.65061e-05 -1.17993e-05 -4.09781e-19)
(-6.73126e-05 -1.56546e-05 -7.64488e-19)
(-7.6273e-05 -1.00849e-05 -5.25122e-19)
(0.00600104 -0.00516824 3.28302e-18)
(0.00643747 -0.00499182 -3.21963e-17)
(0.00161259 -0.000811122 -3.2528e-18)
(0.00165883 -0.000694722 -8.82949e-18)
(0.00148698 -0.000717009 -1.10407e-18)
(0.000407472 0.00103148 -8.41415e-18)
(0.000327815 0.00103719 9.55352e-18)
(0.000355698 0.0010017 -1.02589e-17)
(0.00169438 -0.000895261 2.57486e-18)
(0.00166948 -0.000950368 -1.8361e-17)
(0.00171137 -0.000945616 -2.4181e-17)
(0.000141061 -0.000301594 -3.47376e-19)
(0.000142806 -0.000323045 4.02432e-20)
(0.00012864 -0.000313243 2.44507e-19)
(-8.87351e-05 -1.16202e-05 -6.71123e-19)
(-8.79775e-05 -1.22081e-05 4.29381e-19)
(-8.9217e-05 -1.34003e-05 1.52188e-18)
(0.000321347 -0.000436728 3.38119e-19)
(0.00033512 -0.000449638 1.60038e-19)
(0.000334752 -0.000411205 8.67184e-20)
(6.42045e-06 0.000172052 1.03423e-18)
(-5.18412e-08 0.000172837 -1.51132e-18)
(1.49931e-06 0.000107789 -1.65549e-18)
(-0.0247907 -0.00626314 -1.77256e-19)
(-0.0227117 -0.00600071 1.70286e-17)
(-0.0200628 -0.00800789 -2.47852e-17)
(0.000145877 2.98107e-05 2.93726e-20)
(0.000145823 2.1978e-06 -1.3742e-19)
(0.000145333 4.57303e-05 1.12319e-18)
(9.62439e-05 2.38737e-06 1.04011e-19)
(9.49811e-05 8.52859e-07 9.50214e-20)
(0.00010653 3.61947e-06 -2.08656e-19)
(-0.0164035 -0.0385798 2.90629e-20)
(-0.0146192 -0.0391873 -2.71414e-18)
(-0.0162965 -0.0407092 -2.17529e-18)
(0.000573876 -0.000680726 6.7425e-19)
(0.000570261 -0.000696544 2.91251e-19)
(0.000566026 0.0102197 3.72861e-17)
(0.000584221 0.0108427 1.68982e-17)
(0.000941118 0.01017 1.53494e-17)
(-0.000883267 -0.00442472 1.82005e-17)
(-0.00107795 -0.00402482 -8.67071e-18)
(-0.000594776 -0.00408728 7.55123e-18)
(0.000146071 -0.000287646 -1.82091e-19)
(0.000142212 -0.000292756 -4.94711e-21)
(0.00751172 -0.00650305 -2.34182e-18)
(0.00749094 -0.00587097 -2.51902e-18)
(0.00694285 -0.00625169 8.00659e-18)
(5.10987e-05 -0.000311564 5.71369e-19)
(6.325e-05 -0.000323704 2.27817e-19)
(4.82177e-05 -0.000324746 2.03608e-20)
(0.00370075 8.79969e-05 -3.51603e-19)
(0.00354122 7.60492e-05 2.98156e-19)
(0.00360909 -6.45143e-05 -1.13974e-18)
(0.0410606 -0.0053592 2.75103e-17)
(0.0425222 -0.00453561 -1.97505e-17)
(0.00168713 -0.00106004 -1.18084e-17)
(0.0016829 -0.00106883 -3.37135e-18)
(0.0587305 0.0768137 -8.36868e-18)
(0.0440366 0.105431 -3.48095e-18)
(0.0353023 0.0348443 1.76413e-17)
(0.00079045 0.00216853 -3.98233e-18)
(0.000850907 0.00227529 1.53912e-17)
(0.000702154 0.00226491 7.45439e-18)
(-7.86401e-06 5.00961e-05 3.97183e-18)
(0.000595139 0.000615542 -1.9231e-18)
(0.000574189 0.000643235 -5.40254e-18)
(0.00105875 -0.00132223 3.85782e-19)
(0.000991959 -0.00118389 -2.14545e-17)
(0.00111532 -0.00122478 -2.31252e-17)
(1.1772e-05 7.0349e-05 -3.86138e-19)
(8.2743e-06 6.02387e-05 2.88043e-19)
(9.15395e-06 5.66159e-05 -2.11291e-19)
(-0.000707624 -0.00478867 6.86595e-18)
(-0.00122213 -0.00471175 1.33115e-17)
(0.000183305 -0.000121431 -1.46715e-20)
(0.000184091 -9.26806e-05 -2.16708e-20)
(0.000189697 -0.000103238 -1.04535e-19)
(0.00339002 -0.000322655 1.58218e-17)
(0.00344761 1.16769e-05 -1.27177e-17)
(0.000102728 -1.54246e-05 -6.86756e-19)
(0.000101315 -3.5788e-06 -1.00325e-18)
(-0.025435 -0.0129122 7.08875e-18)
(-0.0264045 -0.0122414 1.56222e-17)
(-0.0282217 -0.00901614 5.79992e-18)
(-0.00130473 -0.000947532 3.41898e-18)
(-0.00122671 -0.000975511 6.79131e-18)
(-0.00132881 -0.00103674 1.76016e-19)
(-0.00394771 -0.00249246 2.57944e-19)
(-0.00417968 -0.00265418 -1.05229e-18)
(-0.00394025 -0.0027641 -1.95859e-18)
(0.000288967 -0.000404344 -1.14378e-19)
(0.000278958 -0.000393383 -2.81854e-19)
(0.000289429 -0.000371619 2.67792e-21)
(0.000100555 -6.86803e-05 5.02384e-20)
(0.000102705 -6.22202e-05 -4.76937e-20)
(0.0114658 -0.00553015 -2.28108e-18)
(0.0108945 -0.00638756 1.69667e-17)
(0.0119129 -0.00475613 3.17134e-17)
(0.0014068 0.000354044 1.40878e-18)
(0.0014471 0.000317382 -2.589e-18)
(0.00340953 -0.000859868 1.70043e-18)
(0.00350028 -0.000948836 -3.86406e-18)
(0.00334048 -0.000978217 1.90651e-18)
(8.67931e-05 0.00040663 -1.35204e-18)
(9.8562e-05 0.000373907 -1.47176e-19)
(0.00378586 0.00343521 4.6711e-18)
(0.0042777 0.00339598 -3.69929e-18)
(0.0235556 0.0310243 -8.31884e-18)
(0.0349972 0.0259633 1.01564e-17)
(0.0262699 0.0195619 -6.34536e-18)
(0.115196 -0.0364236 1.84721e-17)
(0.123642 -0.0446047 1.45744e-18)
(0.00636827 0.102375 -2.52988e-17)
(-0.00180389 0.120819 -6.55368e-18)
(-0.0266959 0.0114869 1.70292e-18)
(-0.0269673 0.0114659 -1.75645e-17)
(-0.0265121 0.0126909 -4.53405e-19)
(0.0452758 -0.0018835 6.95843e-18)
(0.044155 -0.00374913 3.6916e-17)
(0.0416342 -0.00215864 -1.25479e-18)
(-6.2584e-05 -1.0125e-05 8.37921e-19)
(-6.32001e-05 -1.43918e-05 1.7991e-18)
(0.000135143 0.000143431 -1.622e-18)
(0.000133074 0.000182486 -2.43367e-18)
(0.000133702 0.000188462 -2.10287e-18)
(-8.86332e-05 -7.38194e-05 -8.29053e-19)
(-9.62384e-05 -7.10687e-05 6.75702e-19)
(-8.94733e-05 -7.87169e-05 3.82047e-19)
(-0.0028693 0.16245 -7.1966e-18)
(-0.00364464 0.165161 -1.05809e-17)
(0.0089202 0.0212741 -1.88915e-17)
(0.00752523 0.0202214 2.2105e-18)
(9.05558e-05 -0.000444173 -9.65922e-19)
(8.31357e-05 -0.000427104 1.53341e-19)
(8.83867e-05 -0.000439368 9.99431e-19)
(-0.000705466 -0.00235718 -6.71391e-19)
(-0.000573576 -0.00233095 8.30087e-19)
(-0.000630358 -0.00249901 -8.20929e-19)
(-0.0268667 -0.00648076 6.87069e-18)
(-0.0292025 -0.00494906 4.08773e-18)
(-0.00487689 0.000573082 3.1339e-18)
(-0.00455491 0.000640416 8.32022e-19)
(-0.0042308 0.000761414 -4.03627e-18)
(0.00135172 0.169533 -4.613e-18)
(0.00312435 0.1679 -3.34736e-18)
(-0.000995295 0.173179 7.40861e-18)
(-0.00533696 0.000317794 -2.10963e-17)
(-0.00559592 0.000201474 -2.00846e-17)
(-0.00508027 0.000353369 7.59037e-17)
(0.00247301 -0.00134254 -1.04788e-17)
(0.00241074 -0.0014238 1.30982e-17)
(0.00235896 -0.00131477 -1.73589e-17)
(0.00363448 0.00549027 2.53055e-17)
(-0.00510597 0.00422922 -1.10118e-17)
(0.0200079 -0.00107409 2.58942e-17)
(-0.00126334 -0.000368695 3.46057e-18)
(-0.00121536 -0.00041754 -9.63744e-19)
(-0.00131884 -0.000426706 -3.24381e-19)
(0.0150594 -0.00318333 2.75783e-18)
(0.0158267 -0.00378355 -1.97551e-17)
(0.0159097 -0.00267428 -7.83765e-18)
(0.0365444 -0.00284794 -1.30257e-17)
(0.0354566 -0.00275682 -3.59881e-18)
(0.0353162 -0.00166597 -3.59934e-17)
(0.00736784 -0.00212661 3.07052e-18)
(0.00702856 -0.00204115 3.86148e-18)
(0.00706196 -0.00242412 -2.91915e-17)
(0.00158626 -0.00198733 9.41397e-18)
(0.00167112 -0.00194168 -6.01692e-19)
(0.00166798 -0.0020596 1.35791e-17)
(-0.00231055 0.00775523 1.39448e-17)
(-0.00231326 0.00800712 -7.03038e-18)
(0.000394778 0.000491572 -1.97017e-18)
(0.000403685 0.000476955 -3.38591e-19)
(0.000411852 0.000491506 2.22004e-18)
(0.000279545 0.000937424 1.15623e-18)
(0.000274259 0.000933401 4.2949e-19)
(0.00030783 0.00092391 2.38051e-18)
(7.15525e-05 0.00049767 7.94736e-19)
(7.99106e-05 0.000472902 3.36389e-19)
(7.7255e-05 0.000452877 -5.03768e-18)
(0.000223891 0.000949425 -2.75437e-19)
(0.000283262 0.000956703 1.65979e-18)
(-0.00871192 -0.0201058 5.84575e-18)
(-0.0147499 -0.0173074 -1.25935e-17)
(-0.0126296 -0.0182871 3.11704e-18)
(6.68133e-05 -1.71599e-05 -5.19006e-20)
(6.49501e-05 -1.89384e-05 6.07986e-20)
(7.04993e-05 -2.0875e-05 -4.28373e-19)
(-0.000205591 0.00963812 -4.53097e-18)
(-0.000322279 0.0099653 7.23791e-17)
(-0.000121527 0.0104073 4.62172e-17)
(-0.0221892 -0.0169725 3.87189e-18)
(-0.0241225 -0.013085 6.97726e-18)
(0.000372476 0.00978392 -3.05405e-18)
(0.00032762 0.00995027 1.696e-17)
(0.000270591 0.0105327 1.13747e-16)
(0.00251535 -0.00127483 -7.91386e-18)
(0.00258633 -0.00137326 -7.76542e-19)
(-0.0451636 0.00227378 -4.86634e-18)
(-0.0460205 0.00216719 -2.83347e-18)
(-0.0110558 -0.0111624 2.77703e-17)
(0.000930778 -0.00902819 6.65352e-18)
(-0.0058714 -0.0109794 1.89928e-17)
(-0.00138743 -0.000938523 -1.19592e-18)
(-0.00129384 -0.000873421 3.48409e-18)
(0.00115169 -0.00140475 2.65485e-17)
(0.00101855 -0.00142428 4.03377e-17)
(9.24451e-05 -0.000452786 -1.34408e-18)
(9.56456e-05 -0.000462304 1.22197e-18)
(0.00769556 -0.00189629 -2.48053e-18)
(0.00771276 -0.00231913 -1.03469e-17)
(0.000307808 -0.000429493 7.57038e-21)
(0.000311884 -0.000460348 4.93313e-19)
(1.05888e-05 0.000214222 -1.55199e-18)
(1.05824e-05 0.000226367 -1.23406e-20)
(5.70493e-06 0.000169765 -3.1398e-18)
(0.0139468 -0.0119483 -2.4008e-17)
(0.0216559 -0.00871367 -1.25995e-17)
(0.0294119 -0.0104285 -1.48543e-18)
(-9.43311e-05 -6.12661e-05 4.96874e-19)
(-8.42966e-05 -8.24657e-05 1.37759e-18)
(-8.56365e-05 -9.57647e-06 -1.29843e-18)
(-8.95121e-05 -1.29708e-05 -1.37203e-18)
(-0.0373843 0.0421224 -2.08505e-17)
(-0.0365979 0.04189 1.58734e-17)
(-0.0414717 0.0420901 -2.20696e-17)
(0.0043043 -0.00392382 -1.16731e-17)
(0.00410682 -0.0041865 -1.06552e-17)
(0.00401359 -0.00386733 -4.53239e-18)
(-0.000835036 -0.00243439 -2.93652e-19)
(-0.000787134 -0.00224776 -3.45783e-18)
(0.00324707 0.00190357 -2.242e-18)
(0.00309502 0.00187104 -7.47079e-18)
(0.00318536 0.00174756 -1.56903e-18)
(1.14859e-05 0.000208328 1.49566e-18)
(1.27952e-05 0.000256732 -1.5725e-18)
(0.000408994 -0.000613678 -2.88946e-19)
(0.000382491 -0.000612966 -1.75323e-19)
(0.000393083 -0.000628302 -4.50518e-19)
(-0.000141946 -0.000127655 1.2995e-18)
(-0.000146653 -0.000132993 -7.10277e-19)
(0.000216203 0.000492137 -5.06169e-19)
(0.000206776 0.00053631 2.72889e-18)
(0.000246961 0.00056466 1.45345e-18)
(0.00239111 -0.00328572 -9.95409e-18)
(0.00256321 -0.00311272 -1.2797e-17)
(0.00233923 -0.00305832 1.04438e-18)
(0.00697392 0.168665 7.84517e-18)
(0.00655797 0.17377 3.39306e-18)
(0.00525058 0.146413 1.87546e-18)
(0.00368904 0.154522 7.55316e-18)
(0.00199609 0.148029 2.09123e-18)
(0.000796479 -0.00010136 -1.25122e-20)
(0.000817513 -6.97752e-05 2.49262e-18)
(0.000832458 -0.000136469 1.35157e-18)
(0.000383512 0.000511274 -1.2306e-18)
(0.00040749 0.000512414 -6.18794e-18)
(0.000107001 0.00770299 4.24121e-17)
(1.80421e-05 0.0078213 -9.64143e-18)
(0.000324532 0.00782894 4.54944e-17)
(0.000519703 0.000667055 1.29032e-18)
(0.000505839 0.000712752 4.72333e-18)
(0.000504501 0.000695661 -6.44487e-19)
(4.28334e-05 0.00128161 2.67943e-18)
(8.44067e-05 0.00137558 3.50182e-18)
(-5.20785e-05 0.00134486 -5.88342e-19)
(0.047765 0.0705289 -5.89078e-18)
(0.0475725 0.0482738 1.03884e-17)
(0.0271421 0.0559862 1.68196e-17)
(-0.000220416 -0.00131329 4.15286e-18)
(-0.000266934 -0.0013752 -2.12066e-18)
(-0.000183137 -0.00136214 -1.91939e-18)
(0.0650254 0.0726889 -1.32252e-17)
(0.0206211 0.0959593 -5.16195e-18)
(-0.00060324 -0.000538764 -9.19612e-19)
(-0.000626405 -0.000577457 2.65125e-18)
(-0.000651593 -0.000551014 1.76595e-18)
(0.000535751 0.000665103 3.63468e-18)
(0.00191638 -0.00164997 2.59877e-18)
(0.00200438 -0.00168749 -1.27583e-17)
(0.000597364 0.00995754 -2.73301e-17)
(0.000359114 0.0100472 2.43141e-17)
(-0.00205738 -0.0236434 2.6701e-18)
(-0.000856557 -0.0234477 1.00649e-17)
(-0.00138379 -0.024823 1.27217e-17)
(6.54016e-06 6.86866e-05 1.04524e-18)
(7.01759e-06 8.49564e-05 -3.45845e-19)
(2.06353e-06 5.67728e-05 1.09069e-18)
(-0.0395918 0.0414264 4.15958e-17)
(-0.0227342 0.0401738 4.72844e-17)
(0.000447639 0.00935683 9.1716e-17)
(7.80778e-05 0.00960661 -9.8593e-18)
(7.47989e-06 7.96477e-05 8.54194e-21)
(5.72425e-06 5.72868e-05 -1.77755e-19)
(0.00837145 -0.00493603 -6.49643e-18)
(0.00797619 -0.00551043 -8.74432e-19)
(0.0087211 -0.0055077 2.98868e-18)
(0.00180705 -0.000268009 6.27887e-19)
(0.00182018 -0.000219036 1.36094e-19)
(0.0018683 -0.000258852 6.0655e-19)
(0.00120519 -0.000826963 2.94112e-18)
(0.00117412 -0.000844309 -4.72293e-18)
(0.00116129 -0.000827271 -4.06394e-19)
(0.00149571 0.00144314 1.0177e-17)
(0.00147103 0.00153756 -4.84679e-18)
(0.00159538 0.00147 6.29156e-18)
(-0.000953776 -0.00248793 3.19823e-19)
(-0.0008801 -0.0026086 -3.45872e-18)
(0.00875808 -0.0529038 -8.92608e-19)
(0.00677622 -0.0530084 -8.9269e-18)
(0.00785854 -0.0512141 -1.24381e-17)
(0.00467981 0.010992 2.20162e-17)
(0.00471383 0.010566 1.04213e-17)
(0.00420036 0.0107314 1.07134e-17)
(0.0156953 -0.00212326 -2.82004e-17)
(0.0205243 -0.00251452 -2.37576e-17)
(0.0248004 -0.00138494 1.79214e-17)
(0.00169221 -0.00111217 6.1115e-18)
(0.00168873 -0.00107143 9.92385e-18)
(0.00169649 -0.00109491 -4.90981e-18)
(0.00134473 0.0129473 -1.33172e-17)
(0.000124771 0.0131727 -3.98208e-18)
(0.000789413 0.0119925 -8.93388e-18)
(0.0001507 -0.000242574 -1.56812e-19)
(0.000155743 -0.000272469 -1.4236e-19)
(0.000160272 -0.000245515 -1.59311e-19)
(-0.0511046 0.0325291 9.44391e-18)
(-0.0409337 0.0328718 -1.54966e-17)
(-0.0451157 0.0426648 2.38645e-17)
(0.0111203 0.0203852 -9.29227e-18)
(0.0129388 0.0191889 3.21752e-17)
(0.0111661 0.0183999 -5.28363e-18)
(-0.000109076 -8.19706e-05 -4.55102e-19)
(-0.000110556 -7.29674e-05 7.81641e-20)
(-0.00011345 -8.88911e-05 9.3201e-19)
(-0.000121576 -7.65746e-05 1.72121e-19)
(-0.000127193 -8.34287e-05 1.24337e-18)
(-0.000126842 -9.22266e-05 -3.63582e-19)
(0.00119301 -5.36578e-05 -1.18537e-18)
(0.00122617 -3.54531e-05 1.26612e-18)
(-0.0159474 -0.00675508 -1.32601e-17)
(-0.0161885 -0.00496161 -1.32696e-18)
(-0.0189261 -0.00479985 -6.53078e-18)
(-0.013292 -0.0169102 -3.41379e-18)
(-0.0121258 -0.0170612 -8.85597e-18)
(-0.012545 -0.0158651 9.29757e-18)
(0.00013562 0.00013505 5.23878e-19)
(0.000139871 0.000115911 1.50048e-19)
(0.00014344 9.22973e-05 -1.36532e-18)
(0.0084621 -0.0158916 -1.6611e-17)
(0.00338861 -0.0128575 -2.75749e-17)
(0.00931711 0.00305981 -2.31219e-17)
(0.0138704 0.00282304 -1.92414e-17)
(0.0128693 0.00455162 2.27357e-17)
(-0.00133521 0.00532166 -1.19197e-17)
(-0.00143941 0.00517387 3.11954e-17)
(-0.00123342 0.0051575 3.6293e-17)
(0.00225707 0.0128211 -4.41386e-18)
(0.0017177 0.0139838 -1.92417e-17)
(0.000307532 -0.00255299 4.22009e-19)
(0.000427846 -0.00247219 5.28958e-18)
(0.000440334 -0.00267395 1.92569e-18)
(9.25447e-05 5.89478e-05 -2.01949e-19)
(9.60638e-05 7.52385e-05 -2.04614e-19)
(9.38335e-05 6.45858e-05 -3.06789e-19)
(0.0214377 -0.0475738 -1.22723e-18)
(0.0219388 -0.0452404 -1.29519e-19)
(0.0244133 -0.0467403 1.1141e-17)
(-0.0114572 -0.00525714 -1.33712e-18)
(-0.0086208 -0.00601643 -2.30671e-18)
(-0.00974815 -0.00738893 -3.76432e-18)
(-0.0176455 0.0221272 6.3099e-18)
(-0.0200064 0.0218851 1.85614e-17)
(-0.0204001 0.0230878 2.30158e-18)
(0.0338234 -0.000169525 4.13048e-17)
(0.0331715 -0.00221939 -3.45617e-18)
(0.0317202 -0.000651894 -3.60993e-18)
(2.55833e-05 0.00102118 -8.84657e-18)
(7.56981e-05 0.00101052 2.83948e-18)
(7.15423e-05 0.00104178 -1.06777e-17)
(-0.00497657 -0.000237701 4.8832e-17)
(-0.00624197 -8.18861e-06 1.74004e-17)
(-0.0167309 -0.0367897 -1.10066e-18)
(0.000406617 0.000256675 4.43768e-19)
(0.000418741 0.000273458 -1.40775e-18)
(0.000421656 0.000227557 -5.40682e-19)
(-0.00108523 -0.00254486 -7.86202e-19)
(-0.00102175 -0.00236596 2.10037e-18)
(0.0117231 -0.00640897 2.60615e-18)
(-0.0100669 -0.00157598 4.29044e-18)
(0.00162898 -0.00841312 -7.71904e-18)
(0.00355713 0.00229261 2.77852e-18)
(0.00336278 0.00225029 3.21568e-20)
(0.00340888 0.00246435 -3.64011e-18)
(0.000641407 0.000555544 6.7976e-18)
(0.000645176 0.00054178 1.0023e-18)
(0.000671492 0.000512487 1.87087e-18)
(-0.0152279 0.0270466 1.0662e-18)
(-0.0175456 0.0270589 7.69903e-18)
(-0.0151967 0.0284165 -2.63252e-17)
(0.000239224 -0.00269021 -7.49073e-18)
(0.000182575 -0.00250759 -4.03434e-19)
(0.00202132 -0.00473762 2.21401e-18)
(0.00211139 -0.00450535 2.12143e-17)
(0.00229949 -0.00478337 5.18609e-18)
(-0.000128305 -7.04577e-05 1.0431e-18)
(1.65441e-05 -0.000910412 -2.40372e-18)
(-2.68411e-05 -0.00089505 -1.903e-18)
(-1.29795e-05 -0.000950597 -2.71245e-19)
(0.000725238 0.00084722 4.47594e-18)
(0.000706013 0.000878746 -5.60876e-19)
(0.000770281 0.000850641 3.09066e-18)
(0.0128075 0.00268642 -8.84045e-18)
(0.00991636 0.00192488 2.35241e-17)
(0.00645086 0.00155885 2.03762e-17)
(-0.0152846 0.021418 -9.35456e-18)
(-0.0163598 0.0204451 -1.19766e-17)
(0.0464158 -0.000641801 6.4797e-17)
(0.0559489 -0.000731782 7.05217e-17)
(0.0437435 -0.000742817 5.5461e-17)
(0.00204027 -8.98647e-06 2.46266e-18)
(0.00201848 -2.01611e-05 -4.36637e-19)
(0.00204012 -4.10426e-05 -9.53167e-19)
(3.64382e-05 0.0094697 -4.78439e-17)
(-0.00040178 0.00984383 -2.58112e-17)
(0.0164142 -0.0131473 4.24885e-17)
(0.015858 -0.012408 -2.22072e-17)
(0.0172834 -0.012218 7.10963e-18)
(0.0308952 -0.0126654 1.07793e-17)
(0.0327618 -0.011958 -5.38681e-18)
(0.0322908 -0.0117184 3.75232e-18)
(0.00194627 -0.00507595 2.23863e-18)
(0.00171624 -0.0047841 3.13959e-18)
(0.000435707 -0.000594975 4.48727e-19)
(0.000457307 -0.000616843 3.126e-19)
(-0.00058202 -0.00051096 -3.26528e-18)
(-0.000563588 -0.000526301 -7.2945e-19)
(0.115015 -0.0339882 1.55889e-17)
(0.115719 -0.0311331 -5.8185e-18)
(0.123789 -0.0389592 1.87769e-18)
(0.000790303 -7.29879e-05 -2.20504e-18)
(0.000795701 -0.000105602 -1.12027e-18)
(0.000151543 -0.000224095 -9.07554e-20)
(0.000158587 -0.000212681 4.56871e-19)
(0.0114403 -0.00634248 5.61111e-18)
(0.0107967 -0.00571114 -5.24806e-18)
(0.0837585 -0.0784176 1.07273e-17)
(0.0574876 -0.0792407 9.21749e-18)
(0.0566819 -0.0795323 -3.91374e-18)
(0.106749 -0.02871 4.67352e-18)
(6.08584e-05 0.000531086 1.29209e-18)
(6.25259e-05 0.000523333 2.27341e-18)
(-0.000253742 -0.00126423 -1.81157e-18)
(-0.000176595 -0.00125523 1.75686e-18)
(0.00605925 -0.0106573 -5.63803e-18)
(0.00613783 -0.0101402 -9.26026e-18)
(0.00573076 -0.0108727 1.93593e-18)
(0.000247872 0.000502875 9.29247e-19)
(0.000242128 0.00051737 1.3296e-18)
(0.000221425 0.000533205 -8.95173e-19)
(0.00326557 -0.000841827 3.34397e-18)
(0.00337733 -0.000733921 3.46026e-19)
(0.000373174 -0.000616053 -5.68133e-19)
(0.000381438 -0.000602598 -3.63746e-19)
(0.00970689 -0.00337894 2.22318e-17)
(0.0138296 -0.000812115 3.09206e-17)
(0.000612307 0.000456738 1.38775e-18)
(0.000625042 0.000507604 -8.8418e-19)
(0.00062625 0.000435768 1.2864e-18)
(0.00770746 -0.00927569 2.6028e-17)
(0.00823269 -0.00919404 1.27393e-17)
(0.00744997 -0.00855699 -6.00416e-18)
(-0.000786234 -0.00216926 3.25779e-18)
(0.00180651 -0.00395489 9.30123e-21)
(0.00197538 -0.00146392 -1.17533e-19)
(0.000120727 0.0061527 -1.8087e-17)
(-0.000178911 0.00628364 1.48013e-17)
(0.000195355 0.00647831 -2.9143e-17)
(0.000453472 -0.000583535 -8.76657e-21)
(0.000427151 -0.000580787 4.1582e-20)
(8.61388e-06 0.000165796 -3.26049e-18)
(4.99237e-06 0.000224738 2.34838e-18)
(-0.00371539 -0.00234169 -5.25187e-19)
(-0.00393547 -0.00221626 2.12021e-18)
(0.00161937 -0.000547695 5.92004e-19)
(0.00166938 -0.000542606 1.16131e-18)
(0.00164066 -0.000582205 1.12526e-18)
(0.00729358 -0.00926458 6.09297e-18)
(0.00831944 -0.0100029 -2.88633e-18)
(0.000939591 -0.000508978 1.65753e-19)
(0.000975655 -0.000492051 -1.7171e-19)
(0.000965992 -0.000539574 -3.521e-19)
(0.000105401 0.000374343 7.18231e-19)
(0.000108025 0.000376785 -2.21393e-18)
(9.78498e-05 0.000413256 -1.70595e-18)
(0.000139041 0.000148092 1.04018e-18)
(0.000128068 0.000173954 1.85109e-18)
(0.00776319 -0.00303614 5.78315e-18)
(0.00814124 -0.0031481 -1.52179e-17)
(0.00780686 -0.00345504 4.88146e-18)
(0.0639421 -0.0225276 -1.21288e-17)
(0.0611742 -0.0264568 -1.75401e-18)
(0.0649088 -0.0277362 -4.62689e-18)
(0.0469387 -0.000445198 -4.10622e-17)
(0.00149526 -0.00207123 1.28346e-18)
(0.00148222 -0.00194096 2.17073e-18)
(-0.00149016 0.0122796 2.60899e-17)
(-0.00210016 0.0109525 -2.14123e-17)
(-0.00087494 0.0109581 1.57812e-17)
(-0.000775605 -0.000244204 -3.2492e-18)
(-0.000725749 -0.000255633 -3.2449e-18)
(0.000181093 -0.00017979 -1.92242e-19)
(0.000169474 -0.000201358 3.26504e-19)
(0.000178228 -0.000215403 1.19779e-20)
(0.000634878 0.000566155 -4.11285e-18)
(0.000518026 0.000525977 -1.08851e-18)
(0.000639709 0.000452005 5.57162e-19)
(-0.00326906 -0.0019308 -8.74196e-18)
(-0.00325417 -0.000474745 3.6442e-18)
(0.0196744 -0.00822795 8.6692e-18)
(0.0288082 -0.00573053 -2.40534e-17)
(0.0351207 -0.00555098 2.86697e-17)
(-0.000190206 0.00875907 2.76118e-17)
(-0.000313572 0.00855675 2.9711e-17)
(-0.000370714 0.008868 1.41956e-17)
(-0.00332639 -0.0238121 5.79879e-19)
(-0.00281266 -0.0225224 -1.79131e-17)
(0.00176142 -0.00028741 -6.29322e-19)
(0.00180624 -0.00032352 -9.77591e-20)
(5.67023e-05 -0.000925307 1.72613e-18)
(3.73578e-05 -0.000876771 -3.05173e-18)
(0.00214841 0.0130239 -1.10524e-17)
(0.00171409 0.0140746 -6.56084e-18)
(0.00282571 0.0137167 1.42079e-18)
(0.000153496 -0.0028016 -1.01924e-18)
(0.0002932 -0.00288356 -2.65997e-18)
(0.0289264 -0.0132046 -7.93974e-17)
(0.0289755 -0.0134716 -3.39436e-17)
(0.000603725 0.000386836 -1.46516e-18)
(0.00062089 0.000378778 3.19417e-18)
(0.000618028 0.000332846 4.4143e-18)
(0.00160631 -0.00422963 1.10164e-17)
(0.00133543 -0.00361755 -2.71438e-17)
(0.000838949 -0.00425656 2.47419e-17)
(0.14753 -0.0693959 -4.92438e-18)
(0.156372 -0.0674973 5.60297e-18)
(0.145135 -0.0705837 1.50587e-17)
(0.00791939 -0.00441592 2.16545e-18)
(0.00853776 -0.00437386 -4.48735e-18)
(0.000487451 0.000334077 -4.14555e-19)
(0.000488965 0.000334465 -6.40171e-19)
(0.000482031 0.000367631 -1.52119e-18)
(6.55485e-05 5.08559e-06 -1.16932e-19)
(6.64787e-05 5.01198e-06 1.0875e-19)
(8.55405e-05 2.41112e-06 -2.1851e-21)
(0.00168949 -0.00104841 4.97713e-18)
(0.00165473 -0.00105214 -1.90613e-17)
(0.000857198 -0.0011527 1.77185e-18)
(0.000711706 -0.00111543 -5.57631e-18)
(0.000751913 -0.00128142 4.38395e-18)
(0.01557 0.00290802 -3.03466e-17)
(0.0195592 0.00348845 -2.99332e-17)
(0.00460017 -0.00396787 1.29399e-17)
(0.00447986 -0.00364634 -1.78675e-18)
(0.00012095 4.22237e-05 1.39672e-20)
(0.000122694 5.39881e-05 4.77139e-20)
(0.000127622 3.75564e-05 6.48913e-20)
(0.000149255 -0.000212993 7.47026e-20)
(0.000153911 -0.000188137 4.32785e-19)
(0.000146376 -0.00020148 7.56739e-20)
(4.41487e-06 0.00019215 9.54751e-19)
(3.38388e-06 0.000158717 2.61518e-18)
(5.99918e-06 0.000227013 -2.43023e-18)
(-0.00100743 0.0133359 1.80701e-17)
(-0.000460273 0.0144532 -9.76885e-18)
(0.00544765 -0.0014732 -1.79943e-18)
(0.00569325 -0.00147257 -1.76854e-18)
(0.00555361 -0.00121362 6.57837e-18)
(-0.000302062 0.00587459 1.18614e-17)
(-0.000204986 0.0061141 1.89599e-17)
(-0.000501912 0.00609783 5.39824e-17)
(0.000894441 0.000213405 2.91722e-18)
(0.000930028 0.0001872 -1.9825e-18)
(0.000913192 0.000162762 5.5867e-18)
(0.0985674 0.101887 -1.5545e-17)
(0.0861496 0.109123 2.01455e-17)
(0.0415546 0.167955 -2.50417e-17)
(0.0341131 0.00167697 1.70145e-17)
(0.0355055 -8.67536e-05 1.96306e-17)
(0.01442 -0.00261191 9.08694e-18)
(0.0142426 -0.00350484 1.93416e-17)
(0.0003788 -0.000695851 -2.13747e-18)
(0.000349029 -0.000680742 3.81308e-19)
(0.000363933 -0.000689033 8.69491e-18)
(-0.0141066 0.0246066 1.56576e-18)
(-0.0144699 0.0261419 -1.55253e-17)
(0.000298 -0.000417447 -6.37144e-20)
(0.000286939 -0.000433916 7.43302e-19)
(0.000144886 -6.06829e-06 -2.90357e-18)
(0.00014389 3.10963e-05 -2.30525e-18)
(0.000155681 3.17304e-05 4.49323e-18)
(0.0118479 0.0138312 2.21479e-18)
(0.0147986 0.0102782 1.38946e-17)
(0.0168933 0.0154812 3.73972e-17)
(7.64362e-05 -7.02198e-06 -5.16813e-20)
(7.87366e-05 -9.11637e-06 -4.06312e-20)
(7.52064e-05 -1.01433e-05 1.64667e-21)
(0.000102185 5.5538e-06 -8.83666e-19)
(0.000103296 -1.94725e-05 1.50663e-19)
(0.0140484 -0.000773957 1.78951e-17)
(0.0142142 -0.00163956 -3.53082e-18)
(0.0150955 -0.00116626 -1.83624e-18)
(0.00024388 0.000315734 -4.28567e-19)
(0.000247081 0.000329577 8.87486e-19)
(0.000257502 0.000327649 2.33385e-19)
(-0.00378204 0.168831 6.70766e-18)
(-0.00117454 0.174257 1.32603e-17)
(-0.00220859 0.173584 6.11185e-18)
(7.26278e-05 -0.00292081 -8.74888e-18)
(3.88138e-05 -0.00273858 6.78606e-18)
(0.000235492 0.00110359 1.43546e-17)
(0.00024536 0.00113897 1.05479e-17)
(0.00018536 0.00111271 -1.49535e-18)
(7.23472e-05 -6.24329e-06 -4.88858e-20)
(8.03189e-05 -6.00499e-06 4.11322e-20)
(0.00172628 -0.0011332 5.05532e-18)
(0.00168906 -0.00115083 7.04647e-19)
(0.033812 -0.00606424 6.05494e-18)
(0.0352742 -0.00465674 -8.14681e-18)
(0.0334853 -0.00527927 -2.09404e-17)
(-0.00148859 -0.000996215 -6.16363e-18)
(-1.0005e-05 -0.000157841 -3.79017e-19)
(-3.91798e-06 -0.000164112 6.13864e-19)
(-1.44504e-05 0.000268329 1.6266e-18)
(-9.43075e-06 0.000319691 -3.37658e-18)
(-3.62964e-06 0.000258034 -1.51414e-18)
(0.0224093 -0.0116225 -3.44371e-18)
(0.0217098 -0.0104336 9.3007e-18)
(0.0209692 -0.0117964 -9.9135e-19)
(-0.0368091 -0.00569681 -1.22039e-18)
(-0.0377935 -0.00473437 1.46709e-17)
(-0.0399368 -0.00440886 -1.46672e-17)
(7.82951e-06 0.000171917 5.02266e-19)
(9.90418e-06 0.000244246 3.60097e-19)
(2.9855e-06 8.52865e-06 -3.63601e-19)
(1.0592e-06 5.1444e-06 2.00438e-19)
(2.60449e-06 6.07221e-06 1.25719e-18)
(0.104602 -0.0765974 -1.49406e-18)
(0.102096 -0.074877 7.61508e-18)