/*--------------------------------*- C++ -*----------------------------------*\
| =========                 |                                                 |
| \\      /  F ield         | OpenFOAM: The Open Source CFD Toolbox           |
|  \\    /   O peration     | Version:  v2012                                 |
|   \\  /    A nd           | Website:  www.openfoam.com                      |
|    \\/     M anipulation  |                                                 |
\*---------------------------------------------------------------------------*/
FoamFile
{
    version     2.0;
    format      ascii;
    class       volScalarField;
    location    "900";
    object      omega_0;
}
// * * * * * * * * * * * * * * * * * * * * * * * * * * * * * * * * * * * * * //

dimensions      [0 0 -1 0 0 0 0];


internalField   nonuniform List<scalar> 
18355
(
0.0337364
5.47466
0.0218813
0.0216627
0.0223462
0.078595
0.0219581
0.0568009
0.0233031
5.47551
0.0215231
6.58808
0.0946507
0.0219739
0.0220846
0.0236129
6.88524
0.0217347
0.0220158
4.70571
0.025529
0.0223647
5.6188
0.0223525
0.0245654
0.0221457
0.0220713
0.0230901
6.22118
0.0219393
0.0219749
0.0230163
0.021736
0.0217967
0.0525413
0.0347531
0.0225411
0.160295
0.0229828
0.0215398
0.0219733
0.0827436
0.0218819
8.20939
0.0217733
0.168603
0.0500348
0.0237978
0.0446622
0.0217548
0.0215568
0.0218314
0.022277
5.86356
0.0220858
0.0220734
0.109576
0.0221094
3.67245
0.128956
0.0217604
0.0625835
0.0217182
0.0427464
5.99292
0.0327084
9.13066
0.0321832
0.0220774
0.0222959
0.0602615
0.0222568
0.137875
0.0217964
0.0569333
0.0219542
5.90572
0.022978
0.0268945
0.0218104
0.0219701
0.773456
0.0253161
0.0452626
0.0221378
0.0929397
4.97694
4.68323
5.92483
6.13795
0.34732
0.0218349
0.0221089
0.0214811
21.7371
5.45052
0.0217763
0.0252325
5.63198
6.10698
6.18797
6.4152
0.0419498
4.1097
0.0225515
0.107156
9.73023
0.133182
0.0309775
0.387568
0.0219133
0.0227828
0.0221476
0.0229044
5.23363
0.0220035
4.70367
5.88781
4.50665
0.0420971
5.24415
2.87363
0.022921
0.0598238
0.0217766
0.144191
0.0218273
0.0222618
6.06275
0.0214877
0.0215636
6.02802
0.0465426
0.0250281
0.0416626
0.0222576
0.0219239
0.0215208
0.0219514
0.0767506
4.76234
2.90066
0.0223578
0.0219131
0.413496
0.0222521
0.0255812
7.6399
0.02336
7.92107
0.0221932
0.0222756
0.0494328
3.72048
0.0746381
0.0222699
5.89105
3.68257
0.0222675
0.0673396
0.0268584
0.0243844
0.0299285
0.0253497
0.215372
2.08335
10.0958
0.0420168
0.203207
0.0217681
2.04941
5.291
0.0215266
0.0215312
0.023597
7.30251
0.0541713
0.022101
3.79586
24.0609
0.0765539
0.201151
0.0270373
0.0219124
0.248362
6.89415
6.13682
0.227983
0.0233586
7.97487
0.106366
0.021884
0.0251861
4.15004
0.0479108
0.0223329
5.95305
0.0267259
0.0372988
0.0215344
0.0227183
0.0240751
13.4892
5.95052
23.3427
0.0283228
3.42775
4.88286
4.93625
0.0368372
0.0219278
0.0221382
4.42918
0.0222891
0.0217697
0.706622
2.95584
4.46326
0.022155
0.0233003
0.537332
0.0219421
0.0438397
0.0219061
8.71868
0.0221686
4.786
7.03335
0.134794
0.0219274
0.0222739
0.0264564
0.0260658
4.94473
0.0227403
0.0221387
0.0221098
0.190322
0.615537
29.5198
0.0303213
0.200912
0.0220268
0.02178
0.0222256
9.0663
7.83836
3.14364
0.0735919
0.0267305
0.0227257
6.94396
0.0272147
5.05147
0.0220927
4.83916
4.25184
0.0675054
0.0219319
0.0219129
0.0317367
0.0658825
16.445
0.0482741
0.0218276
0.0217697
0.0222633
0.223152
0.0806467
0.103742
0.022755
12.8685
0.245781
0.102302
0.0221866
5.87262
0.0218153
0.0219912
9.4363
0.0218101
0.0219525
0.10396
0.0219017
4.38619
0.0269931
0.024279
0.0218288
0.04202
5.80424
0.023051
0.0216695
0.0219846
0.134177
4.95773
0.0222671
0.0222792
3.60682
0.0444549
0.0747624
0.237935
0.0219965
0.0614656
0.0225181
0.0222689
0.228245
0.227469
0.317667
0.143232
0.0214972
0.0854599
0.0224473
0.022016
5.60356
0.0218998
0.226208
0.0814868
0.0221016
0.0215891
0.20653
27.3382
5.08095
0.0221507
0.0291047
9.53456
0.021666
0.736789
0.0264707
0.0329605
0.448429
0.0215
3.1559
0.0219779
0.0445389
0.0221226
0.0735745
5.36602
0.0222708
19.629
0.0346102
0.0220431
0.0485122
0.0636857
5.02604
5.83338
3.39884
0.0220778
0.0217121
5.39481
0.0622616
0.022117
0.0225323
0.345822
0.24672
4.21011
5.56232
0.0220956
0.0232145
3.32114
0.0219089
0.0226456
0.280874
0.037201
0.0237717
24.4859
0.0222757
0.0462823
0.643066
31.2163
0.0216646
0.0219857
0.0219627
0.0217859
0.0671304
0.021785
0.0397848
0.0219668
0.0242011
0.0220985
0.0231783
0.0217882
0.0220109
0.0217792
0.0217752
0.0232732
0.128278
2.02286
0.0219044
5.58382
0.0344966
1.98291
0.031325
0.0725613
0.0222788
5.64737
0.0224594
0.0220083
0.0221321
0.0216352
5.63324
0.0239242
0.0216681
0.0423869
0.0392405
0.0219088
0.0216612
5.2168
0.0222885
0.02182
4.96985
0.0219061
3.39736
8.22126
0.275699
0.0252858
0.0225385
5.23934
0.0222454
0.0219285
4.41938
0.0222693
0.0215288
8.3988
0.0217895
5.12898
0.0411323
0.0594191
6.95764
0.0224174
0.0219304
5.60499
0.0776641
2.03912
4.05203
0.0219741
0.021922
0.0222351
2.89515
0.043826
0.022047
0.0222748
0.0222718
0.049566
3.65088
0.0273052
0.0221961
0.0222754
0.0308582
0.359198
5.00366
4.84397
6.441
0.0522503
0.0469711
6.39448
0.0219831
0.0218348
0.0219845
0.0218995
0.0637525
0.0220177
0.0216176
6.70889
0.0502251
0.045971
6.26069
0.054505
8.73371
0.0218787
0.0217803
0.0219261
0.0219754
0.0222834
0.0222813
0.022002
2.98365
0.0221479
0.0215355
1.78527
0.131689
0.0218436
0.0227274
0.0562062
10.9394
0.0233593
0.0217714
5.18004
0.0237799
9.21994
0.0267048
0.0217963
6.54397
0.131222
0.0217284
5.23635
3.49056
6.11561
0.0217967
0.0217588
0.0256048
0.129199
0.022355
10.943
2.18329
5.48492
1.28978
0.0216268
0.0405312
4.81957
5.43939
5.42205
0.0221149
0.026649
0.0268454
5.24793
5.98258
0.377592
0.0221759
0.0219512
0.022124
0.0445515
0.022007
5.27887
0.027094
5.38389
0.0219661
0.0222201
0.0219113
0.031409
0.0317769
0.345958
0.0219219
0.101372
4.65496
0.0289113
0.0219318
0.0239079
0.029497
0.022272
0.03186
0.0377095
0.0286993
0.138518
0.0226174
0.0217247
0.0219894
0.0222786
0.0404157
0.0237443
0.0630347
0.0218705
0.0223522
2.50374
0.0215111
0.0321381
0.0224671
0.145901
0.0240478
5.59447
0.0224086
33.9975
0.0258809
0.0238778
4.23379
2.43537
10.7132
0.0289236
0.0237318
0.0218071
0.0219526
0.107556
0.0469536
0.032891
0.0786699
3.0399
0.217458
0.0219269
5.39223
6.63008
0.0228396
0.0219488
0.0321152
5.94106
0.0318558
0.0222161
0.0601416
0.129048
0.054065
0.0301593
3.56508
0.0250211
0.098115
8.64445
0.47347
5.34848
0.0557573
0.161879
0.0266003
0.022078
0.0228718
0.021934
0.303254
0.321902
5.77879
0.123369
5.18098
5.69457
0.0551801
0.0238874
7.15791
10.8698
0.0215353
0.137087
7.30989
7.79561
0.0274686
0.021612
0.0249552
0.0253237
0.029182
0.0847719
0.0218973
33.6295
0.0233479
0.0247928
5.19324
0.0218644
0.0324498
5.46874
0.0219374
0.0227977
5.14737
0.0217565
0.101516
0.0215093
4.32117
0.0291142
0.0395332
0.0331088
0.0250793
0.125994
0.0248219
6.45724
0.0735315
0.0219184
10.5427
0.0399938
3.61509
7.45552
0.842653
0.329491
0.0219113
0.0216399
3.6322
0.0240208
0.0324179
0.0222393
0.0267015
6.43546
6.60322
0.0410323
22.6171
0.0601008
0.0234333
0.0216138
0.0222292
0.0437611
0.0786758
0.0216905
10.6349
0.0290123
0.0443774
0.0219956
5.06113
4.96263
0.0219417
0.021541
0.0780497
0.0222464
0.0217253
3.48049
0.136197
0.0223415
0.0219485
0.147162
0.0446413
0.0272192
0.0593656
0.0220037
4.62998
0.0502455
0.0221459
0.316074
5.24466
0.0219579
6.55629
0.0216598
0.0219401
0.0223275
0.0345987
5.16685
0.0340728
7.54021
0.0324155
4.29667
1.85267
0.0265306
5.41354
0.021996
9.78064
0.0228151
6.41023
5.32541
0.0221433
4.48673
0.0249766
0.0261811
10.9376
0.0773962
4.99672
0.0218116
5.71987
0.0219577
5.1504
0.022069
0.0273339
0.0289947
0.0218021
0.0216135
0.0510124
4.5469
7.55314
0.0219285
2.45691
0.0262939
0.0218085
0.022117
0.0278866
0.13505
10.7887
0.032914
0.0220414
0.0269072
5.03414
0.0272082
0.021903
0.0217993
0.0274632
0.0293868
20.2781
0.0218594
0.757818
0.0484931
6.37925
6.06993
8.73163
0.0215874
0.0550994
0.0218812
0.0222978
0.027216
7.12545
0.0218329
0.0218077
0.0217834
10.2383
0.023283
0.0219434
0.0327429
0.030967
6.2976
8.07842
0.0219316
0.0219731
6.13828
0.0221429
4.99929
4.96053
4.9819
0.178965
0.225895
2.89673
0.0294047
0.0221642
0.0217874
0.0220013
0.0222572
0.0221092
0.0222883
8.89496
12.8678
0.0222003
0.0890352
0.0217674
0.0234989
0.0386227
0.0220861
0.0249829
0.0228881
0.470172
2.9999
0.0607826
4.84242
0.0498934
10.8917
0.0842648
4.21629
5.14956
0.0510381
4.20926
0.232655
6.91497
0.0217945
0.02197
0.0219777
0.0254848
4.34838
0.0217657
0.0222764
0.0796626
0.0218345
0.0435499
0.0408954
0.0222173
2.34816
0.0218948
0.0219728
0.155355
0.0216922
0.162857
0.437545
0.0220868
0.0227006
0.0218102
0.0618867
0.0218271
0.0234541
1.03443
0.0219816
5.43421
0.0221088
5.58115
0.0242426
0.108241
0.0219585
0.0699288
0.0375875
0.0221712
0.0220961
5.56225
0.0219438
8.56137
7.70361
0.0227382
0.0221123
0.022079
0.021575
3.09108
0.0219497
5.76979
10.7634
0.0441322
7.75472
0.0218269
0.0218837
5.10764
5.02838
0.0244783
0.0220039
0.0219229
0.0217774
0.0230047
0.0438934
1.1026
0.0247985
10.8354
2.64197
1.78487
0.0331411
0.0218697
10.8164
2.06895
0.0329087
0.0219618
0.0220985
5.40337
0.0220124
3.85712
0.0638919
0.0222529
0.0280724
0.0216217
0.0325553
0.026398
0.0218377
0.0215196
0.0228924
7.78893
0.0222224
0.0551811
6.29094
0.0220685
0.021905
0.0451504
9.7239
0.0304156
5.0969
0.0224472
0.0215672
0.0234256
9.17013
0.411641
1.82099
0.021877
0.0308519
0.0219791
5.0907
0.0216617
2.37897
0.0471112
2.47435
0.0221915
0.0219221
0.223338
0.0219137
9.76063
0.0219505
3.27671
0.0222562
0.0217761
0.0240552
0.590804
4.91633
0.0263389
0.0223839
0.0224392
0.0219179
0.0216842
0.0222809
0.109662
0.0223465
4.59398
0.0237258
4.89712
0.0218417
0.021593
0.817382
5.02141
6.51793
0.022484
4.55157
0.0218646
18.5453
0.0224968
0.179313
0.0218057
7.07892
0.0218739
0.0263683
0.0220484
0.021889
0.0222618
5.63419
2.66287
4.44671
0.0335074
0.0254439
0.0245139
0.0219905
0.0216699
0.0217567
0.0233287
0.154499
0.0220287
28.1687
0.104127
0.0220011
0.0225254
13.258
0.108091
0.0233794
0.0243818
0.0330084
5.12352
0.0529586
10.3811
0.0550059
0.0730272
0.149416
0.0219822
0.0218574
0.0798813
0.0413566
0.0218156
5.3746
0.0285925
5.0357
0.0223608
0.311083
0.0337058
0.0625156
0.0273236
0.0220586
0.995673
0.0219194
22.5728
0.0220054
0.0220526
4.89471
0.0309431
0.0260274
10.7955
0.0218577
0.0994488
8.94603
0.0219449
0.0699346
7.25518
0.0228911
0.0218609
0.0219327
0.023829
0.0238544
0.0747321
4.34448
0.0230338
0.0264562
4.81369
0.0216083
7.32714
0.0241626
0.0233385
0.603387
6.86945
0.0217456
0.0219023
0.0236782
0.0217002
0.0216781
7.13974
0.0222708
0.0261631
0.0215989
0.0556015
0.0217278
0.120681
0.919667
0.0227189
5.00465
0.0219372
0.0235549
0.0218884
5.25828
0.0282767
0.0218674
0.0219982
0.0221223
0.0218715
0.104714
5.59962
8.56899
9.30627
0.0221837
0.0224103
0.0736654
0.0221335
0.0216678
1.69957
5.4901
0.0237118
0.0219077
8.84239
0.0222262
0.022186
4.32613
0.0793241
2.51319
0.0232093
0.0218666
4.8411
0.0221628
0.0324996
0.0222224
0.0285125
0.0219766
0.0726078
0.170919
0.04008
0.0221008
10.6965
0.0227042
0.021872
0.0221324
0.0220098
0.0219161
0.0220708
5.63957
0.022393
5.73115
0.0222278
0.0274347
5.11998
0.0218055
0.29271
0.023211
0.0217959
0.0236036
0.0739276
0.0220381
0.021819
0.0221273
0.021964
0.0536574
0.0216903
0.0224272
0.0290719
0.0220931
0.0320326
10.9538
4.20723
2.8836
7.0994
0.102466
0.0622376
8.12257
4.33053
0.0218694
0.0222524
0.021637
0.127776
4.62186
0.0381885
0.025359
0.0215957
0.0218925
0.0221593
0.0232086
26.0562
17.3014
9.54022
0.0667936
0.0221036
0.0222361
0.0221564
6.44485
2.31354
0.0218051
2.48408
0.0216714
0.0317938
0.0229198
0.0404507
0.0311617
0.514136
0.0232069
0.120178
0.0216469
0.0219039
0.0817516
0.0219264
0.0220642
0.0541304
0.223334
0.0221289
0.0765808
0.0219281
0.0219748
0.0218001
0.0219527
5.84823
0.0298912
0.0230856
0.0221266
5.04801
0.147188
0.0220757
0.0321293
0.0299873
5.09054
0.803249
5.34526
0.187271
0.0586776
0.115818
0.143921
0.0784241
5.01383
0.0215864
0.0219123
0.0219065
0.144686
0.0221768
9.84022
0.0217743
0.0221457
4.93855
0.0548265
0.0223967
0.0769848
0.0219531
0.0230195
0.730468
0.293283
0.0219477
0.637327
0.12764
22.0092
5.74239
0.0219998
6.38152
0.0219245
0.0641913
0.0218687
0.021842
5.35715
0.0445339
0.0235706
0.0219014
4.76764
0.0249725
5.9196
6.46103
0.0222631
0.0216489
0.0246025
5.65067
0.219531
0.0392008
0.0330615
0.230707
0.0219776
0.02241
0.0218031
0.0218948
0.0231831
0.0548784
8.70433
0.0668804
0.112132
5.07691
0.022002
2.32757
0.127769
0.0497429
0.0221929
0.021985
0.0219155
0.0219186
0.0219443
23.9848
0.153759
5.79877
0.067001
0.0946111
0.0222067
0.0988379
6.16459
0.0236148
0.0247593
0.0218591
12.2028
4.27027
0.091795
0.112888
0.0219786
5.39803
0.0227058
0.0245482
0.0381256
0.079137
0.0216507
0.0723308
4.80636
0.0222776
26.3833
20.4378
5.25623
24.0687
0.0354702
0.525625
0.0563648
0.0544468
5.64238
0.021819
0.0331144
0.0216862
0.0222514
6.76083
0.0228671
5.56468
0.0217017
0.0218932
4.88505
0.0219163
15.5085
0.0227796
0.459036
0.0231273
0.0221855
5.8113
0.0243702
0.0662776
0.0218747
0.0217688
0.227621
0.210135
0.0220603
0.0282374
0.75387
0.0585073
2.39583
0.022262
0.0219506
0.0215263
0.0219185
0.0256103
0.0562505
0.0216366
5.64181
0.0218708
0.0220438
0.0591323
7.14896
0.176494
0.0276858
0.0217681
0.0224864
0.0798189
2.05043
1.20069
11.7603
0.0257272
0.0362095
0.236159
0.0218739
0.0537719
4.98372
0.0219411
0.211888
4.4009
0.375099
0.443708
5.13025
0.0770843
0.0220879
3.39124
0.0265687
0.0403981
0.154928
0.0218652
0.110441
0.0218678
0.0219702
0.049954
7.44569
0.0342876
0.0219436
0.0408627
8.88632
0.0820596
3.21544
0.0219157
4.40108
0.021658
0.0759539
0.109941
0.0218985
5.2992
0.0218121
0.0218403
0.0220564
0.0219431
5.26351
0.0785015
0.0222528
5.08633
0.0220815
6.01872
0.021667
9.37665
0.0473545
0.238415
0.0246526
0.0218976
0.0216824
0.0220715
0.280422
0.117633
0.0221293
0.0407393
4.23581
5.28771
0.0402075
4.16678
6.57734
0.0218998
8.3708
0.0217882
0.221449
0.0220048
0.0220737
0.0220184
0.0683944
6.82685
0.228761
0.0977005
4.90295
0.435067
0.251471
5.1104
0.0218722
0.0755556
7.98128
0.0215384
0.049264
6.24322
0.211999
0.021884
4.41689
0.0667952
8.10304
6.13621
0.026654
0.217249
0.0246143
0.0218652
0.0215906
4.80431
0.169952
0.256412
0.159077
0.0219077
5.90727
0.0344606
0.0215065
0.0224565
0.0635482
0.0238817
0.022216
0.0222692
0.91157
0.0218965
0.0422339
10.4473
0.0216838
0.0218921
4.01678
0.021851
0.0433444
0.0263325
0.127593
2.25878
0.0219082
0.0585641
0.0274611
0.0766751
0.0270473
0.0247085
0.0957573
0.848258
0.0499703
6.36225
0.0863196
0.0221277
0.242005
4.86385
0.0734355
0.0217817
0.022053
0.134263
0.0229576
6.57343
0.632141
0.0278808
2.61806
0.0233964
0.189834
4.3468
0.0219543
0.0221278
0.0220707
0.0219921
3.50772
0.378845
0.0247871
0.189919
0.291265
0.0469818
0.0220704
0.0236861
0.0585737
0.0219379
0.0218689
2.59334
0.0226495
4.45672
0.0218192
0.0219991
0.0222725
0.070012
0.0381872
0.0395374
0.0220867
0.0229665
5.43604
2.0829
2.83322
2.9363
0.0256744
0.0224514
5.7173
0.090076
4.57528
0.0539786
0.0218737
0.0542724
0.0266137
0.0223282
0.021793
0.0931861
0.0743399
5.62665
0.0835658
0.386085
0.0221833
0.0229624
0.0219187
0.115118
9.84711
0.213093
3.36007
0.0218541
4.79129
0.022728
0.0219714
0.0240821
0.0221462
0.76351
0.0219567
0.0805125
0.0216786
2.97623
0.0327711
12.4808
0.0224043
0.0220126
0.0243227
0.0217135
0.0948595
3.78434
5.78359
0.0543035
0.0216362
5.98857
0.0583773
0.0219186
0.066249
0.021746
0.0237962
0.021524
0.858458
0.024694
0.0708466
0.0526477
0.0217674
13.7428
0.0216381
0.0249213
0.0223708
0.0237106
0.0217471
0.0219343
0.0299693
0.0222817
0.0250994
0.0216935
0.0237882
1.98838
3.8723
0.0224926
0.0409077
5.48518
0.0219167
0.0221568
0.0309707
0.113926
0.0219449
0.0583892
6.4184
0.0230652
6.24246
6.24392
0.0219353
0.0225719
0.0594106
0.0214667
3.28438
4.29563
5.52319
0.0229643
0.0276436
0.0214945
2.06966
0.0285648
0.480114
0.0222428
0.138169
8.3395
0.0753546
0.0234032
5.83658
7.31242
5.37853
0.0224121
0.0217613
7.03585
2.68807
0.0218074
0.0221016
0.414887
0.0225287
0.247225
1.97664
0.0217391
0.0225658
6.30447
0.0677368
0.022572
0.0214971
0.041936
0.0222952
0.271614
0.021872
0.0221128
0.0219483
0.022991
0.0220673
0.104132
0.0217519
0.0257997
4.69532
4.75247
9.17745
0.0218205
0.0788834
0.0738294
0.0220765
0.0247492
0.0386666
0.0219079
0.023853
6.22669
0.0553286
0.0219353
0.0219939
0.0217805
5.26176
6.02138
0.0217327
0.022277
0.0219865
0.0544916
5.87943
0.0236947
0.0764857
0.0221423
0.0620678
0.0267174
0.368676
10.7698
0.0222948
0.769519
5.27968
0.0404988
0.0218287
0.0410458
0.0283636
0.0436992
0.0265082
0.0218148
0.105493
0.0272179
1.54513
0.04184
0.0222088
0.0222865
4.27636
0.0221195
0.0234275
0.225433
0.0427727
6.0951
7.27033
0.0217916
0.274857
0.66358
0.312824
0.044774
0.0238002
0.0220652
6.66675
0.0453084
0.0218383
0.0708026
0.0684785
2.232
5.45035
0.0220644
0.028077
0.0222269
0.231121
0.899222
0.0221875
0.0598509
0.0258917
0.0233197
0.022189
9.13471
0.0711416
0.0219354
0.0236653
6.42243
0.0222614
0.0220108
0.0260394
0.0708737
0.021953
0.0221611
0.0235138
7.809
0.0298084
0.0218307
0.0218291
0.0218988
0.130219
0.0220008
0.0219452
0.393252
5.87142
0.0218647
0.0222645
0.0542151
0.0287855
0.0896797
0.0221348
3.00433
0.0219054
0.0228603
0.0288156
5.59493
11.5108
0.438276
0.0403582
5.22769
3.174
9.29274
5.84164
0.0244389
0.0219314
0.0216948
0.0413496
0.02188
0.0219381
0.0219169
0.186583
0.0218757
8.03883
0.0314242
6.22707
0.0218912
5.30841
0.0219667
0.0275686
0.0216951
0.0230011
0.04069
0.62264
0.0222038
0.0218455
0.024884
5.80414
0.021908
0.0385295
0.0221938
0.0382247
5.23441
0.236589
3.82789
0.0306917
0.233745
0.0221396
5.19302
9.80401
0.021883
5.62277
2.51888
0.0218895
0.0215235
0.045571
0.0305035
0.0433404
0.0216971
6.37902
0.0328031
0.0606888
0.0216164
0.0219564
0.0258999
5.60413
5.9539
5.4728
0.0419488
5.49402
0.0391106
10.2944
0.0219464
2.68684
0.0219741
0.0268863
1.78927
0.0231986
0.206876
0.0218689
0.0245501
6.10891
7.07192
0.0219659
1.93539
0.0220026
5.81213
0.0217992
6.28561
4.91979
0.021822
5.98686
0.0272403
6.01018
0.0219716
0.0263524
0.0228819
0.0849804
0.0220228
0.431874
0.0218036
5.74741
0.0875007
6.34684
0.022126
0.021695
0.382677
0.0230613
0.0317428
0.0218748
0.0812778
0.0245233
0.0219517
2.57251
0.022019
0.0219381
0.0222775
0.0220914
4.43465
0.0385926
0.0219541
6.17717
3.94181
0.523675
0.0216899
0.0895541
3.47931
0.0218429
0.0257955
0.0223546
0.0220472
0.021952
0.0219814
0.0270927
0.0278763
5.05915
0.325231
0.235136
0.0222776
0.0219552
4.36187
0.0336553
0.0219235
0.0223257
5.27669
5.1736
0.0219627
6.29376
0.0390009
0.547061
0.0222785
5.22891
0.0217527
0.0228064
0.0221007
0.0218866
0.0234531
6.87538
0.021736
5.1908
0.170764
3.70724
5.35421
0.0221025
0.0219924
4.83865
0.0663727
0.0971435
0.0219808
0.110374
0.0222299
5.10452
6.01698
3.98723
0.022065
5.24002
12.3009
5.79107
0.522974
0.0257005
0.127059
0.0218587
0.411039
5.86627
0.0283219
4.5987
0.0218189
0.0220432
0.0690062
6.10446
0.0400092
0.348439
0.0219886
8.87876
0.03899
0.0515104
0.0218211
0.0406367
0.256752
0.0220396
0.0381265
0.0405372
0.246557
0.0215831
0.021902
5.11902
5.6081
0.0238424
4.87391
0.0392769
0.0219981
8.20808
9.10924
0.0220976
0.508247
0.021707
0.022066
0.0462459
5.24338
0.0223167
4.5048
0.0235106
0.0219172
5.24888
0.0221665
0.0682652
0.0218561
2.50333
0.0220287
5.23148
0.021778
0.0550687
0.0218554
0.0276119
0.233827
5.19739
0.0490755
8.62073
0.0281074
5.91534
8.19835
4.46873
0.0218692
9.94852
10.9789
3.66907
0.340237
0.0224148
0.0218475
0.0219497
9.02381
0.0219325
0.0220463
0.44037
0.0222412
8.75719
0.0230482
5.75246
0.0219319
0.0222301
0.113642
0.0215556
0.0536899
0.0218517
0.073716
0.0940404
2.41403
0.0218122
0.0218872
5.31922
13.5586
0.0222445
0.0301646
0.0346226
0.022611
6.98377
5.60376
5.23554
0.14717
4.791
2.45934
0.224329
0.0218993
0.0217896
0.0228828
0.0219416
0.032953
6.81776
6.99942
0.0220899
0.0237787
0.0226529
4.95009
7.31412
7.74907
2.33804
0.0220507
2.30938
5.07258
0.026492
4.99728
0.0479759
0.0221048
5.9897
3.9804
7.62436
0.0222071
0.0230081
0.0430172
0.467436
0.0218173
0.0220211
0.0222428
0.0218295
0.0220425
6.23778
0.0238966
0.0216922
8.77645
0.0221055
6.17936
0.0414953
5.97737
0.366619
0.0219802
5.49158
0.144031
0.957192
0.0227524
0.0278739
0.0220166
0.0230077
6.43748
0.150613
0.0782244
0.022439
0.0219322
0.146707
0.023252
0.0220638
0.0273551
0.0219352
5.17545
0.0219999
4.79604
8.9426
0.023354
0.0219823
8.92901
0.0218672
0.0216802
1.25425
0.0245675
0.0236781
0.0830653
1.87321
5.33537
0.0336585
0.0234754
0.0222928
5.25431
2.46612
0.0234569
0.0341585
0.0218705
0.0218086
0.023914
0.0217186
0.279357
0.0286227
0.0219947
0.0222333
0.0220944
0.021885
0.0218438
0.0219047
2.5711
4.23846
8.14728
0.350453
1.42043
0.439414
0.0247748
5.08486
4.18402
2.08062
0.0220941
0.0216756
3.69383
5.15466
0.411739
0.21914
7.36904
0.0220963
0.0219216
4.77363
0.0218443
0.144878
0.139944
0.0225006
9.95071
4.30782
0.0222611
11.4378
7.25211
0.155114
0.702643
0.0221831
2.25273
0.534098
6.42378
0.0218524
0.0658229
2.09915
0.0219158
0.0394163
0.0217321
0.0505131
0.022081
6.25664
0.693633
0.022004
0.0231755
0.0223787
4.85906
0.042659
0.0221291
0.0222046
4.37737
0.0219091
0.0231786
0.113542
0.471082
0.0225208
0.0803894
0.0490078
0.0219482
0.148312
0.0219378
0.0219601
0.0264243
0.0219701
0.0295839
5.29757
0.245878
0.0220041
13.894
2.96132
0.281691
7.07612
0.0397811
0.023427
5.6369
0.0260322
0.0241583
0.0462065
0.0764632
0.0218802
0.0217275
0.0221104
0.475315
5.27783
5.51016
5.92117
0.021823
0.0259875
0.0769976
0.162936
5.35118
0.0221382
4.8511
0.0223679
7.5305
0.0215727
5.87973
0.0227076
15.9959
7.09678
0.0919004
5.18342
0.0578538
0.0218364
0.084917
5.39652
15.7631
0.0260847
0.0223628
0.0219563
0.0220891
0.0291072
0.0222868
0.023607
0.0218188
0.060217
0.0220126
5.78047
0.0222243
5.24065
0.021682
0.159879
9.73777
0.0229918
2.53264
0.0220193
0.027251
0.0221587
0.0222002
0.0219076
0.365064
0.210163
0.0218017
0.0242749
0.0219709
4.89855
0.0305697
0.487401
0.225997
0.0219769
0.0496877
0.0226278
0.0229121
0.0465442
0.0221073
0.055033
9.40821
0.0220324
5.4095
0.0274315
0.0218778
0.021726
10.7906
0.0219965
5.26149
0.187609
0.0222691
2.8132
0.116183
5.9369
0.025572
0.0251899
0.0221025
0.0627537
4.3713
0.0221362
0.0457156
0.0220533
0.0984957
3.03906
2.75531
6.26471
22.0147
0.0294352
2.43208
0.0221511
5.17594
0.512685
0.0263108
0.451808
0.0671956
0.0215777
0.0484144
0.0220079
0.0217665
0.0243203
0.0219379
2.35244
1.99384
0.157142
4.54842
0.0220765
3.1857
0.022062
0.0219737
0.0434233
5.09492
0.0217389
5.38352
0.0979829
0.108735
6.84009
0.0222196
0.04601
7.0151
0.0443563
0.0219573
0.40804
0.0219611
0.0221302
0.0222416
2.041
11.0233
0.0255558
0.0221021
5.0627
11.2606
0.0222861
0.0222356
3.95559
6.18255
0.0222434
0.323609
0.119177
0.0218765
0.0294063
0.0217033
4.65628
0.0219849
9.53267
6.24639
5.43716
0.0248501
0.0322882
0.0218028
0.0218002
2.98017
0.021842
10.039
5.67827
0.0785204
0.0218488
0.0216941
0.700315
0.29833
0.0528137
7.71998
0.0924597
4.20885
0.0229433
4.78551
2.59782
0.026437
0.3848
5.61178
6.17775
0.0220268
7.06674
0.0217404
1.77791
0.293822
1.16425
0.0216333
0.0417335
0.0221062
1.04529
3.9806
0.0226173
0.022892
9.92042
4.94923
0.0219672
5.39307
3.71715
3.54465
0.0222158
5.4027
0.0221519
6.05974
0.0221126
0.0226415
0.022206
0.0219719
9.29961
0.31415
0.0217234
4.22919
5.40958
0.0215389
0.0216937
0.0415407
0.0658789
0.0979873
0.04889
26.4912
4.98331
4.78135
5.84343
0.098124
0.0230641
0.155025
0.11228
5.11581
2.59304
5.9544
0.102348
0.0523362
0.0245464
5.46054
0.0875305
0.617329
0.0221853
0.0256036
11.2199
0.0220956
0.0291642
0.547686
0.0241155
0.0427146
0.0219809
0.0231101
6.41698
0.345417
0.0216424
0.0256027
11.0869
0.276352
0.0298877
1.82451
3.36424
0.044124
0.206559
4.71069
0.0225832
5.69467
0.103803
3.26305
0.022146
0.0214726
2.00328
4.77331
5.05032
6.9136
3.72735
0.0406741
0.0850452
0.0239359
4.73468
0.0218824
0.022029
0.0456304
0.0763622
0.101743
6.03879
0.0228341
4.90052
5.85945
0.0223058
0.0972735
0.0232761
0.220333
0.12887
0.0413142
6.23366
5.08326
4.28427
1.99169
0.0322341
0.0219578
0.0225774
0.0272506
1.35313
7.15854
5.40264
9.90878
0.0525579
0.0218007
0.295686
0.040422
5.02028
0.0220972
10.984
0.0574082
6.34947
0.0220939
1.88744
0.0930385
0.0691927
3.41076
0.021726
5.43999
5.70543
0.0218171
0.0867376
5.36305
0.0223784
0.421059
0.0231513
0.0229933
0.0222585
5.45245
0.0466316
1.65931
0.0284488
8.03593
0.0217528
0.02152
0.0218784
0.0220649
0.0219585
7.91159
0.409548
5.84343
0.0222114
0.0217752
6.99388
0.0282689
3.6519
0.0970393
0.021912
1.07744
0.0305831
0.037672
6.5047
0.0262765
38.2702
0.698083
0.0276447
0.0216234
0.248693
0.0215369
0.648607
9.2434
0.219939
0.02179
7.24607
0.348216
0.0219854
3.63762
0.0221309
6.12979
5.15286
0.0281581
0.0250886
0.0741521
0.0389614
0.0222286
0.0216401
0.0219767
20.0511
0.0252881
2.43246
0.679454
11.422
0.595721
0.116885
0.0219794
0.215597
8.09448
0.0249527
0.0218637
0.0238478
0.0222264
9.07814
0.0830539
5.74197
0.022003
2.37189
2.66752
4.8792
7.6684
0.0219882
3.0488
2.0374
0.0219699
0.022281
1.9081
4.93615
0.0263032
0.297917
3.54176
7.00472
0.0291382
0.0228822
0.471555
0.0425029
0.0231593
0.0274625
0.0221212
0.0774028
6.01242
0.0585964
0.0228
11.0768
0.150822
0.0216497
0.209759
0.227296
0.0743495
0.0512548
0.0216617
0.0217975
2.2816
3.20171
0.0402567
0.0218342
4.41516
0.445748
0.606744
1.98167
0.0234454
0.0216559
0.0220981
0.022204
0.0293104
4.78194
0.0964812
0.022375
0.120426
0.0220699
5.54597
0.0230917
4.57147
0.0228391
1.08076
0.0508614
5.27036
0.021944
0.0219492
0.0218014
3.76205
0.0259759
5.17251
3.29123
0.0534268
0.0221703
0.0274114
0.0307722
0.0222365
5.75438
0.0216028
4.90202
4.97309
0.910367
0.028005
0.0219765
0.0222774
0.0220224
0.0222304
0.0952394
7.81431
5.68435
22.4052
0.809587
2.51395
0.0235235
0.317723
0.0714767
0.0500747
0.0219749
0.0216544
0.220786
0.022998
0.0216483
5.42362
0.780776
0.441573
6.00665
4.00386
0.0220996
0.0221273
0.0227273
0.041131
4.41509
0.0220606
0.0459004
0.522601
1.21036
0.044197
0.022127
0.344426
0.027075
6.01182
0.0220649
0.0217292
0.0219956
0.0219734
0.0227074
5.68245
0.557333
0.0940586
0.143976
0.0922253
0.0218495
0.0494875
0.022683
0.0221027
0.0268143
6.23895
6.1205
0.0218128
0.290997
0.0218587
0.0569302
0.0232427
0.0280748
0.022104
0.0897672
0.0560317
5.43101
10.4137
8.12204
10.0541
23.5738
5.10614
1.05052
0.021719
5.63843
0.0217184
7.07967
0.0258006
4.39621
0.0220927
0.0883924
0.0220443
0.0217629
0.0243055
0.0219709
1.686
0.0216618
0.0219349
0.0216385
0.0217049
0.0218015
0.0296723
0.0221269
5.12677
0.0493843
0.0219628
3.97701
0.022039
0.0218554
0.0665262
6.30442
0.0389494
0.0285954
0.0217657
0.021606
4.99186
0.0221898
0.0256008
0.155284
5.98388
8.87321
5.14241
5.8084
4.84157
18.3073
5.48681
8.21695
0.0737011
3.86522
0.0222269
0.0220127
0.0731242
0.0257563
2.5092
0.0221329
0.0448081
0.0486835
0.389813
0.0859132
0.0387936
0.0233635
0.0219858
0.0478044
0.022054
0.0217188
0.448822
0.0222462
5.00432
5.3507
0.102627
0.0217881
5.17083
0.0231897
5.20531
0.495563
0.0218368
8.54313
5.95417
0.0650425
0.0693754
0.0307417
2.18726
4.45538
0.0236233
19.6867
0.0532772
0.0402292
5.45204
0.0221113
10.1886
0.0220387
0.0220663
0.0218281
2.04194
0.254928
0.329893
5.16092
0.025063
0.0459817
3.21187
0.0217897
6.11088
0.021688
1.99502
4.1889
10.8228
0.118991
12.257
0.0219593
0.0221699
0.0238908
6.25047
0.0467765
0.0224105
0.0219534
0.0214658
0.0218896
0.0639681
0.172498
0.08238
0.171201
0.0594925
0.0220011
5.19051
0.0296852
2.24502
0.0226298
0.0217472
0.0225534
0.0222322
0.0376771
0.32428
4.74747
0.539982
6.01246
0.438393
0.0218183
2.00035
0.0215154
0.0219956
0.0229202
0.0217611
0.0306487
0.021988
0.0674816
0.0218233
2.7156
0.0222781
0.0224332
0.0217563
4.58929
1.22845
0.0907399
0.0215538
5.013
0.150125
0.0796425
5.38599
0.0572889
3.20698
0.0220643
1.96558
0.201533
0.0300778
1.91242
0.0326632
0.0413216
0.691569
0.0281994
17.0189
0.0986586
5.75395
5.05062
0.0426964
0.0289839
0.0219596
5.08708
0.0220077
3.10748
0.0219163
0.0218948
0.0215246
0.0309495
6.38418
0.0238651
0.0219181
0.0221141
0.0443511
7.30881
0.102339
2.64717
0.209414
0.0702375
0.0219894
0.0596341
0.0221847
0.0228406
6.93628
0.0318152
0.0380096
0.118245
8.27445
0.145437
0.0427896
0.0732199
0.0613445
0.0244411
12.3564
0.022211
7.26554
0.0250727
14.5064
0.0969866
9.02965
6.27996
0.0941137
4.71812
2.27649
0.14951
0.305522
0.0953507
0.606648
0.0220299
0.0814138
0.0551534
10.5286
0.0230735
4.86683
7.05403
0.0215062
0.0217609
6.19544
0.0223157
0.0219171
0.021623
14.5964
2.50729
7.49091
0.0267081
1.37842
0.633673
10.6004
1.77824
0.0781232
0.0220359
24.8217
3.10007
2.13601
0.42274
0.0219605
0.0218337
0.0220142
0.0221124
1.8549
0.137434
3.82462
0.0867368
0.0221433
0.0219607
0.0222878
0.0315064
12.3838
0.0236884
8.85643
4.37773
0.0537274
0.0221206
5.03887
0.173047
2.56741
0.0219341
20.7754
0.0970039
0.022155
5.52173
4.16193
0.0230755
0.0217641
0.0221039
0.0222557
0.0219873
0.160457
0.0577113
0.333315
0.0423731
0.0225583
0.0304491
0.0220867
0.0257205
0.0219532
8.06077
15.9242
0.03477
0.0220159
4.92032
0.0216876
0.181847
0.525899
9.1111
4.69381
6.14519
0.0220594
0.0222957
0.0221242
0.241716
0.0225966
3.72296
0.0252918
0.0218937
0.021993
0.158818
0.177742
0.0220738
4.59822
0.0743719
4.09965
10.668
0.0221156
0.714382
4.27447
0.195822
0.0222877
0.0219805
0.132726
1.39838
19.7957
0.0231488
7.75721
0.0217452
0.0843502
2.35046
0.186387
0.0217244
8.18826
5.82686
5.87727
7.88702
0.0222766
0.0221788
0.0828128
0.147151
0.0416903
0.0229534
4.1251
0.0233879
6.85921
4.58099
0.0218842
9.10956
0.0218466
0.0856597
6.9715
0.0836222
0.0571965
2.54109
0.0239922
11.2388
0.02197
1.1369
5.83111
3.83145
12.7402
0.0242835
0.0546698
0.0217051
5.6559
0.0229589
0.0217347
0.0473027
0.0531995
0.048704
23.4704
4.91852
4.52956
0.214526
0.0305927
0.0385656
0.0262596
0.0332582
29.1273
0.0232438
0.386358
0.0227794
5.09517
0.597965
0.0222161
0.0221641
0.042112
28.6822
0.0428525
0.0216166
0.0218847
0.0298674
0.0264035
0.028286
0.0253189
5.12942
0.0239357
4.7478
0.0737828
0.0219303
0.0725947
0.07275
0.040515
0.0218461
0.0220706
5.58933
4.48288
5.51722
0.0416436
0.0458042
0.0528708
0.0474591
0.0219192
0.0235361
3.91619
0.0481796
0.0237986
4.49339
5.86809
0.228501
5.01525
0.0776773
0.0226291
5.90429
0.0649269
4.89685
0.0219147
5.09121
0.0486603
0.0321206
6.22996
0.0400016