/*--------------------------------*- C++ -*----------------------------------*\
| =========                 |                                                 |
| \\      /  F ield         | OpenFOAM: The Open Source CFD Toolbox           |
|  \\    /   O peration     | Version:  v2012                                 |
|   \\  /    A nd           | Website:  www.openfoam.com                      |
|    \\/     M anipulation  |                                                 |
\*---------------------------------------------------------------------------*/
FoamFile
{
    version     2.0;
    format      ascii;
    class       volScalarField;
    location    "250";
    object      k;
}
// * * * * * * * * * * * * * * * * * * * * * * * * * * * * * * * * * * * * * //

dimensions      [0 2 -2 0 0 0 0];


internalField   nonuniform List<scalar> 
18758
(
0.000174431
0.00736476
0.000144232
0.0367247
0.0756459
0.0776578
0.0084671
0.000145871
0.000215565
0.000156595
0.000152679
0.0556468
0.00014817
0.000217951
0.000152203
0.000196366
0.000171166
0.000147466
0.000148414
0.000158865
0.0306096
0.000149794
0.0418504
0.00900081
0.000518365
0.000145893
0.000243752
0.0746293
0.0630855
0.000591951
0.000186234
0.0373113
0.000149141
0.000150885
0.000202934
0.000149065
0.000149462
0.000148611
0.000149562
0.000172591
0.000148608
0.000154829
0.000145881
0.000154724
0.000405259
0.000145196
0.0402233
0.000153042
0.000156254
0.000145615
0.000185007
0.0711981
0.000144725
0.00015231
0.0717515
0.0101364
0.000149395
0.00018599
0.00014782
0.000221939
0.00017291
0.00991582
0.000190523
0.000150405
0.000144788
0.000148043
0.000173424
0.000149109
0.000148248
0.0700592
0.0686856
0.000149267
0.000145681
0.000819853
0.000145888
0.000147759
0.000220868
0.0746147
0.00016842
0.0293531
0.0601506
0.00114005
0.000221779
0.0756788
0.000223196
0.000160895
0.0515954
0.000190186
0.000925936
0.000147753
0.072578
0.000147825
0.0376318
0.000155208
0.0616458
0.0309308
0.000221151
0.000145916
0.000147309
0.0353594
0.000159824
0.0674797
0.000188248
0.00016693
0.0311314
0.000203947
0.0416337
0.0765713
0.000150563
0.000149291
0.0397892
0.000938996
0.000146166
0.00014835
0.0774456
0.0200551
0.0275485
0.000152265
0.0420429
0.0589408
0.000165817
0.000147983
0.0750254
0.000230211
0.000211572
0.000334153
0.00316475
0.00116002
0.0306401
0.000148398
0.000171878
0.000240168
0.0167223
0.000163372
0.000463933
0.000152077
0.000219115
0.000173552
0.000147286
0.000166789
0.00016843
0.000180807
0.000147911
0.0223649
0.000148638
0.000148842
0.0261296
0.0305676
0.000185942
0.0812689
0.000744181
0.0136135
0.000160698
0.00014979
0.0487118
0.000158426
0.0367636
0.000153035
0.00014876
0.00014992
0.0001466
0.000220605
0.0383462
0.000148722
0.000173216
0.0688371
0.000148599
0.0766911
0.000190093
0.0797213
0.0410957
0.000147434
0.0427233
0.0749404
0.000220194
0.00580067
0.0771772
0.000150599
0.000166621
0.000148987
0.000146425
0.00776691
0.00853191
0.000146339
0.000155851
0.00206047
0.000147574
0.0237641
0.000145688
0.000147669
0.000163454
0.000603609
0.000149598
0.00018453
0.000159531
0.000190198
0.000159264
0.000193534
0.000148895
0.000145811
0.00016587
0.000152902
0.000162391
0.00018302
0.00014808
0.000159345
0.000188587
0.000149847
0.0302855
0.000156177
0.000147378
0.00016754
0.000148869
0.00016258
0.000166823
0.0582972
0.000167877
0.000192635
0.000145415
0.0785755
0.000147379
0.000150612
0.000217871
0.0311771
0.000200262
0.000188171
0.000173442
0.000163412
0.000145991
0.000182915
0.000148011
0.000189957
0.0412198
0.000225893
0.000148288
0.000147576
0.000145998
0.000145356
0.0717568
0.000163502
0.000146767
0.000252504
0.0434808
0.000151556
0.0781003
0.0211315
0.000224254
0.000149111
0.0608505
0.000156759
0.000148921
0.0765825
0.000161002
0.000156984
0.000150712
0.000167399
0.000829105
0.000200706
0.00016217
0.000168394
0.000147127
0.000183286
0.000148087
0.000182798
0.000155819
0.000217773
0.0155976
0.000145421
0.000150286
0.000194435
0.000150105
0.000155503
0.000182524
0.0753347
0.0224326
0.000147865
0.000182722
0.00857834
0.000237194
0.000150065
0.000147239
0.000158844
0.000163561
0.000147876
0.00769682
0.000242201
0.00342439
0.00970448
0.0434861
0.000146004
0.000144174
0.000164318
0.0636519
0.000153882
0.000168263
0.000186918
0.000158682
0.0575735
0.00014826
0.000369698
0.0768657
0.000145276
0.0598621
0.000160708
0.000148369
0.000160828
0.000180026
0.000151433
0.000148954
0.0150903
0.0018183
0.000147473
0.0100153
0.0584518
0.000197487
0.000148022
0.000149222
0.00203478
0.000151477
0.00014623
0.000147422
0.000150762
0.000190694
0.000180175
0.00015879
0.000162823
0.000158866
0.000164183
0.000146979
0.000149846
0.000997089
0.000166657
0.000184242
0.0357088
0.000154154
0.000149454
0.000149722
0.000363486
0.0598236
0.000146091
0.000147291
0.000146093
0.000151906
0.000162766
0.00038342
0.000147974
0.000149015
0.00014561
0.00020627
0.000179738
0.000195838
0.000179206
0.000151388
0.000460766
0.000173564
0.000164549
0.000157607
0.0500566
0.0331012
0.00573343
0.00014816
0.000160053
0.00668576
0.07803
0.000153936
0.000146027
0.000174904
0.000148487
0.00016129
0.0276865
0.028802
0.000202124
0.00015842
0.018951
0.000148093
0.00015287
0.000147445
0.000149613
0.00019801
0.000153382
0.0119765
0.00018198
0.00015049
0.000147494
0.0302165
0.000201073
0.0002148
0.000148082
0.00017966
0.00014715
0.000154306
0.000147986
0.000145474
0.027041
0.0324546
0.000261803
0.0505788
0.000147345
0.000213582
0.0507385
0.00016763
0.000146134
0.0347627
0.00014733
0.000149089
0.000146398
0.00019912
0.000147898
0.000154621
0.000178571
0.0758043
0.00014733
0.0737265
0.000172845
0.000148055
0.000156453
0.000147921
0.000147307
0.00015811
0.000181346
0.000163558
0.0120178
0.000166585
0.00014819
0.00019099
0.0624056
0.0273667
0.039337
0.000197904
0.000149874
0.00014547
0.000146784
0.000148932
0.000202386
0.000171096
0.00016443
0.000160207
0.000160834
0.00250095
0.000188697
0.000147893
0.000162528
0.000811508
0.00015045
0.0293283
0.000150738
0.000148444
0.0351842
0.000156108
0.000150127
0.000727949
0.000203451
0.000164359
0.0293894
0.000147796
0.000150027
0.000202544
0.0518564
0.000159763
0.000172403
0.000219134
0.000882617
0.0095065
0.000218146
0.000149197
0.000188272
0.000148333
0.000202971
0.000151536
0.0377571
0.000179295
0.00273145
0.000164212
0.000189359
0.000145277
0.00858878
0.000145715
0.0270709
0.000147481
0.000194836
0.00014825
0.00126136
0.000162027
0.000148456
0.000147341
0.000146342
0.0481303
0.0240444
0.0754369
0.000173441
0.000154949
0.000180412
0.000149786
0.000149909
0.0724861
0.000147353
0.000148306
0.000187067
0.000148118
0.00017186
0.000180427
0.000148278
0.000147884
0.000155842
0.000150245
0.000158944
0.0765752
0.000164386
0.000159317
0.000156137
0.000148214
0.000344857
0.000149362
0.00015056
0.000329473
0.0221854
0.000188233
0.00727103
0.000154189
0.000150481
0.0276522
0.000148504
0.0254974
0.000192643
0.00014841
0.0787044
0.000834865
0.000175499
0.000147384
0.000166187
0.0670907
0.000148633
0.000147891
0.000152374
0.000151373
0.000148922
0.000146023
0.000149957
0.0696757
0.000155163
0.0699177
0.000148001
0.000190126
0.0165831
0.000148123
0.000145751
0.000155064
0.000148755
0.000150244
0.00015119
0.000148907
0.000190365
0.000207536
0.000144799
0.0684609
0.0657539
0.000159111
0.000188268
0.00043996
0.000154667
0.000163534
0.000159044
0.069931
0.000155041
0.000175127
0.000148113
0.0106445
0.000169238
0.000179617
0.000199154
0.00794992
0.000154913
0.00014771
0.000173795
0.000414099
0.000150063
0.000204209
0.000148984
0.0518769
0.000150477
0.000147455
0.00014632
0.000148162
0.066809
0.0538497
0.000148154
0.000242388
0.000157738
0.0321463
0.0302803
0.00153057
0.00152962
0.00014851
0.0780482
0.000184265
0.000148132
0.000174049
0.0711702
0.0297953
0.000150789
0.000149929
0.000148213
0.000144513
0.0306059
0.000190638
0.0727907
0.0461027
0.000148346
0.000148836
0.000176304
0.000149865
0.000146606
0.000151145
0.000151821
0.000190918
0.000168881
0.000190971
0.0767029
0.0001728
0.000148291
0.000155655
0.000181293
0.0750276
0.000173925
0.00346503
0.00017177
0.000148181
0.000240111
0.0314153
0.000149764
0.000146296
0.000172425
0.0710161
0.000193178
0.000148121
0.0281454
0.0100377
0.00056146
0.000145576
0.00462574
0.0137971
0.0479728
0.000153362
0.000149247
0.0751071
0.00014996
0.000217982
0.0322325
0.000201308
0.00897797
0.000188993
0.0431173
0.000181593
0.000148501
0.00014987
0.0298916
0.0310363
0.0121406
0.0303676
0.000148527
0.000217758
0.000149835
0.000173822
0.000190872
0.000183628
0.000148446
0.000153732
0.000211765
0.068444
0.0324983
0.0109199
0.000165085
0.000159886
0.000227166
0.000149102
0.000146931
0.000147736
0.000156691
0.000187296
0.000148134
0.000189295
0.000146897
0.000148675
0.000147205
0.0755485
0.000149347
0.000149778
0.000175166
0.000173073
0.000144854
0.0211571
0.000148505
0.000147389
0.000171745
0.000159586
0.00015528
0.000150865
0.00225167
0.000159278
0.000161431
0.0304806
0.000161553
0.03419
0.000154099
0.000190998
0.0458611
0.0255627
0.000146188
0.0699041
0.00230879
0.000145674
0.0417343
0.000148296
0.000147115
0.000167435
0.000147516
0.000175572
0.0735865
0.000145654
0.0419091
0.000148393
0.000165657
0.0291418
0.000144684
0.0698899
0.000151947
0.000148562
0.000147567
0.000147723
0.000204927
0.000165633
0.0176997
0.000173132
0.0746246
0.00017596
0.000148142
0.000215791
0.0134871
0.00346326
0.000166266
0.000195652
0.000184227
0.000156496
0.000204384
0.000150476
0.00205908
0.000148067
0.00516123
0.000151038
0.000166417
0.000155867
0.000149802
0.049943
0.000149942
0.000146641
0.0014883
0.000151958
0.000147226
0.000171946
0.000179483
0.000205983
0.000686215
0.0169191
0.0411727
0.000148781
0.000149306
0.032659
0.00014793
0.000259391
0.000190463
0.000152851
0.000148301
0.000160564
0.000147959
0.000148404
0.000160318
0.000248766
0.000190939
0.000172794
0.000169728
0.00014878
0.000180686
0.0756
0.000146952
0.000191462
0.000153245
0.0724543
0.000151048
0.0546396
0.00014803
0.00266015
0.00014983
0.000186145
0.000148173
0.000156176
0.000162551
0.000144735
0.000147254
0.000145081
0.0525574
0.00930284
0.000164287
0.0732276
0.000148222
0.000170641
0.000158458
0.000220508
0.0298429
0.000164444
0.000144929
0.000180475
0.000146905
0.000148223
0.000158543
0.0234804
0.0751747
0.000869915
0.00257953
0.000165724
0.000150611
0.000147489
0.00104193
0.00014714
0.00135965
0.000158326
0.000149164
0.0815201
0.0824072
0.000148496
0.0224801
0.000156433
0.00020212
0.000169558
0.00646647
0.0815437
0.000315207
0.000147814
0.000144704
0.0766082
0.000147912
0.000148213
0.00015894
0.000148
0.040497
0.000234216
0.00017634
0.0654455
0.00017299
0.000201996
0.0001531
0.000147767
0.00014465
0.000146348
0.0223722
0.0270826
0.000244232
0.000148276
0.000144866
0.000163144
0.000147261
0.000167585
0.000154224
0.000436219
0.0744885
0.000188775
0.000233645
0.000246892
0.000148011
0.000202762
0.00014751
0.0323488
0.00203213
0.0419576
0.060925
0.000151953
0.000160489
0.000731321
0.0646877
0.0441759
0.000161474
0.00018264
0.0342349
0.000148165
0.000227858
0.000241126
0.000204082
0.000148122
0.000148455
0.000169004
0.0450819
0.00034491
0.000170786
0.00014798
0.000155563
0.000156217
0.0176938
0.000149622
0.00022942
0.000147207
0.000150217
0.000195769
0.000146961
0.000148043
0.000151735
0.000155777
0.000147672
0.000150434
0.000145645
0.0133046
0.000253507
0.0360151
0.000146118
0.000163007
0.000148043
0.000218709
0.000211181
0.000161528
0.000147239
0.000151333
0.000216139
0.000197148
0.00015968
0.0286318
0.00020333
0.000147864
0.000148343
0.0342221
0.0013464
0.000168828
0.000145336
0.000583803
0.000148729
0.000164822
0.000145943
0.000340519
0.0499463
0.0001469
0.000148867
0.00222053
0.000147754
0.073927
0.0222632
0.000180803
0.000149183
0.000149022
0.000145919
0.000148074
0.00879713
0.00719669
0.000184968
0.000150911
0.0473669
0.00014764
0.000147671
0.0812762
0.000147113
0.0791158
0.000144568
0.000156377
0.000151188
0.000147667
0.000147189
0.000148692
0.0381319
0.000150192
0.000149227
0.000172574
0.00016926
0.000147675
0.000172537
0.000162478
0.000148731
0.000182405
0.00014768
0.000161459
0.0550132
0.000198129
0.000147844
0.00024213
0.000194541
0.000178966
0.000155383
0.000181763
0.0462311
0.000153792
0.000176029
0.000147714
0.000145993
0.000147943
0.000174557
0.000162688
0.000175422
0.000148084
0.000157925
0.000184618
0.0193305
0.000227723
0.000147649
0.000146492
0.000150743
0.000175125
0.000146638
0.0228365
0.000147729
0.000147867
0.000146493
0.000186871
0.0651181
0.000148942
0.000152677
0.000147059
0.000190845
0.000146538
0.000147985
0.00243917
0.000149784
0.000146114
0.000148765
0.000186384
0.000146443
0.000147896
0.0385836
0.00920398
0.000194896
0.00016115
0.0669284
0.000163291
0.000147703
0.000147384
0.0116489
0.000147991
0.000181622
0.000188584
0.000168446
0.000154931
0.000150089
0.000158428
0.000150633
0.000145365
0.000196895
0.0755545
0.000163605
0.000146381
0.0678691
0.000173816
0.0122171
0.00845244
0.00020124
0.000148835
0.000148164
0.000148096
0.000180864
0.000148734
0.000147163
0.0708951
0.000172854
0.000173757
0.00014739
0.000170377
0.000242857
0.000148513
0.000154991
0.000162016
0.000171851
0.00018304
0.000148281
0.000152136
0.000166465
0.000146624
0.000165299
0.000149292
0.0016049
0.00017397
0.000189498
0.000147402
0.000164418
0.0663552
0.0369988
0.000299667
0.000168842
0.0194991
0.000148761
0.000147723
0.000150674
0.0001799
0.000149051
0.000151382
0.000157822
0.000181044
0.000147856
0.000147559
0.000148773
0.000149833
0.000249595
0.0287797
0.00124332
0.000147964
0.0199504
0.00015655
0.000148945
0.000164252
0.00014813
0.000181185
0.000151238
0.000147992
0.0493269
0.00718161
0.0608735
0.000150066
0.00987815
0.000147989
0.0443468
0.0519384
0.000145184
0.000180697
0.000238846
0.000145374
0.000147579
0.00760043
0.000149881
0.000148017
0.000193302
0.000426622
0.000148035
0.000161988
0.000148914
0.000155218
0.000197138
0.000149031
0.0558667
0.000172552
0.000147593
0.000396446
0.000167745
0.000185241
0.000149915
0.000244366
0.000148384
0.0748375
0.00014797
0.000146599
0.0527634
0.00014577
0.0644201
0.000147633
0.000172326
0.0691565
0.0666952
0.000148055
0.000149298
0.000148082
0.000151082
0.000156759
0.000154698
0.000144309
0.0109849
0.000147152
0.000148521
0.000186199
0.000179819
0.000163652
0.00014803
0.0149992
0.000182241
0.00014992
0.000158922
0.000147559
0.000147237
0.0715531
0.000145415
0.000146649
0.00014745
0.0678792
0.000147846
0.000147086
0.0735242
0.000155331
0.0403522
0.00016453
0.000144532
0.000147033
0.00490382
0.000157261
0.000148027
0.0769243
0.0423908
0.000146429
0.0468611
0.000188678
0.00014849
0.000148292
0.000190488
0.000149431
0.000498899
0.000160102
0.000148065
0.000699884
0.0382734
0.000216672
0.000147787
0.0302546
0.000157976
0.000185907
0.00404373
0.000147531
0.0260553
0.000147968
0.000157656
0.000157402
0.0674417
0.000145693
0.000150218
0.00110107
0.000149809
0.000159076
0.00014573
0.000148485
0.0357893
0.000179384
0.000153679
0.000163919
0.00140948
0.000149266
0.000152024
0.000174073
0.000199146
0.000155938
0.000147915
0.000147507
0.000148881
0.00015046
0.000146809
0.00015992
0.00015689
0.000382677
0.000147901
0.00445178
0.000148089
0.000160235
0.000147758
0.000161029
0.000148463
0.000147692
0.0420986
0.0552837
0.000153179
0.000148518
0.026092
0.000156931
0.0523838
0.000159542
0.000165487
0.0439554
0.00922488
0.0467967
0.000151881
0.000148786
0.000146507
0.0392386
0.000147497
0.000148038
0.000174334
0.000147306
0.000149171
0.000148311
0.0153404
0.00192646
0.00014914
0.000405409
0.0734154
0.00015344
0.000147419
0.000148839
0.0493512
0.00014727
0.000198683
0.000149915
0.000147734
0.000149072
0.000146364
0.000184508
0.000148529
0.000148233
0.000147378
0.00014547
0.000246374
0.000145285
0.000147579
0.000149194
0.000147928
0.000235205
0.00070776
0.000167504
0.000150021
0.000148237
0.000149225
0.000149459
0.051183
0.00014781
0.000159284
0.000166924
0.0494362
0.000147566
0.000147414
0.0518273
0.000148731
0.000175418
0.000179976
0.000150048
0.0543762
0.0547355
0.000157413
0.0149764
0.000158579
0.000204396
0.000144677
0.00783366
0.000148191
0.00106652
0.00014824
0.000147092
0.0127915
0.000269279
0.000201936
0.000172246
0.000147346
0.0797368
0.000149106
0.0798766
0.000175078
0.000147384
0.000144741
0.000148548
0.000171197
0.000166761
0.0731011
0.000170659
0.000147414
0.000147414
0.000148461
0.0191299
0.00017863
0.000159533
0.000148875
0.000147354
0.000160411
0.000217086
0.000148663
0.000159641
0.000165576
0.000147805
0.00015321
0.000150913
0.000175681
0.000174795
0.000153674
0.000166691
0.000145816
0.000148018
0.0264302
0.000165737
0.000181806
0.00868922
0.000145407
0.0228443
0.00251032
0.000163143
0.0801907
0.0001477
0.0328564
0.0614986
0.000197187
0.000146437
0.0770897
0.000199706
0.000147842
0.000167813
0.0469943
0.000150242
0.000147715
0.000164809
0.000149791
0.0261196
0.000157838
0.000149022
0.000149871
0.000147142
0.000165038
0.000165225
0.0227739
0.000195581
0.0396858
0.000174142
0.000149718
0.000147726
0.000231051
0.0168747
0.000148038
0.000147495
0.000188919
0.000149157
0.000239282
0.0312551
0.0263344
0.000147952
0.000148037
0.0824689
0.000146564
0.0742302
0.000215219
0.000147031
0.0581756
0.000174586
0.000167732
0.000147911
0.00639168
0.000148085
0.000368195
0.000144463
0.000173031
0.000151395
0.000145914
0.0778402
0.000151003
0.000148001
0.000152189
0.0415643
0.000148419
0.000145245
0.0286265
0.00014751
0.000146883
0.000148711
0.000155898
0.000148296
0.000149167
0.000156379
0.000149125
0.000154537
0.000145702
0.00018701
0.0307697
0.000172793
0.0420431
0.000159742
0.000154666
0.000147245
0.000146709
0.000149121
0.0307552
0.0466793
0.000148086
0.000149838
0.000147493
0.0215424
0.000145187
0.000222128
0.00066399
0.0511467
0.0629661
0.0300409
0.0453228
0.000146816
0.0242341
0.0402084
0.0566549
0.000154956
0.000148837
0.000172418
0.000145742
0.00576796
0.000197444
0.000175905
0.000156905
0.026891
0.000147988
0.00014431
0.0357485
0.000198561
0.00014819
0.000144591
0.000173365
0.000148706
0.0247539
0.00938566
0.029604
0.0455898
0.000187279
0.000733987
0.000147936
0.000217328
0.000148629
0.000147938
0.000146749
0.0373681
0.000149088
0.000147476
0.000433675
0.0360322
0.000200931
0.000198697
0.000151109
0.000165234
0.0236778
0.0179645
0.0360576
0.0394736
0.00017164
0.0638351
0.000180507
0.00087324
0.000173058
0.000171554
0.000147266
0.000161035
0.000164551
0.000148243
0.0357151
0.000146981
0.000148164
0.000147991
0.0803415
0.000154134
0.000146585
0.000147103
0.000147961
0.000176268
0.000169728
0.00181148
0.000150984
0.0352204
0.000144622
0.000147609
0.000183341
0.000167085
0.000144422
0.0534532
0.000170634
0.067398
0.000147797
0.0324468
0.000166755
0.000147625
0.000148302
0.00014796
0.0326449
0.0717469
0.0141865
0.000147725
0.000149004
0.000145053
0.0688008
0.000156606
0.000148321
0.00077976
0.000147795
0.000150441
0.0465021
0.000146241
0.000147852
0.000148354
0.000149784
0.00014456
0.000150418
0.000144503
0.00014902
0.000186782
0.000166283
0.000146744
0.0198364
0.000153039
0.0750751
0.0167167
0.000165463
0.0567754
0.0683723
0.000147426
0.000171125
0.000148045
0.000147111
0.0032148
0.00015495
0.0756785
0.000155397
0.000205331
0.000148441
0.000151184
0.000147324
0.0476812
0.000161961
0.0369947
0.000148984
0.000187162
0.000160637
0.00014648
0.000166934
0.000169769
0.000145036
0.0771586
0.000148575
0.000170603
0.000147927
0.000157751
0.000167004
0.000216133
0.000155365
0.000186899
0.00277707
0.000160562
0.000170705
0.000146134
0.0813905
0.000173193
0.000149795
0.000175285
0.00137189
0.0171653
0.000147976
0.000151222
0.000149074
0.000145709
0.000147736
0.052297
0.000159635
0.000148427
0.0231073
0.000148655
0.000145151
0.000154504
0.074045
0.000148931
0.0246386
0.0246261
0.00016978
0.0301223
0.000150696
0.0693312
0.00101794
0.000145206
0.000160469
0.000148282
0.000150005
0.000168337
0.0133995
0.00018033
0.00032542
0.000198541
0.0001475
0.0789734
0.00014728
0.0418879
0.000149772
0.037096
0.0380916
0.000148982
0.000147209
0.000149848
0.000164315
0.000183122
0.000147652
0.0178082
0.00015178
0.00017222
0.000173518
0.000151457
0.000147341
0.0313383
0.000146588
0.000221974
0.000157514
0.0113316
0.000148757
0.000147415
0.0399072
0.000144206
0.000146196
0.000150366
0.000173391
0.000173962
0.000216706
0.000152688
0.000146393
0.000155127
0.000149593
0.000149812
0.0619362
0.000147509
0.000166947
0.0636672
0.000213509
0.000147865
0.000182153
0.000147823
0.000149333
0.000186042
0.000201669
0.000182563
0.000149559
0.000147851
0.000152954
0.000188792
0.000147835
0.000162187
0.00014748
0.000149464
0.000146792
0.000148855
0.0492226
0.000144819
0.066373
0.000402589
0.000154445
0.000145908
0.0376263
0.0521915
0.000147179
0.000147913
0.0692218
0.000149293
0.000164718
0.000182414
0.000490676
0.000147407
0.000150322
0.00017049
0.00014794
0.0824843
0.000197488
0.00014745
0.000159462
0.000164419
0.000148473
0.000184984
0.000148934
0.000163499
0.00015105
0.00015446
0.00014461
0.000147502
0.000216442
0.000148024
0.0678513
0.000186306
0.000148189
0.000148145
0.000147748
0.000147162
0.0583516
0.000149796
0.000192335
0.000147251
0.000147142
0.000172593
0.0648114
0.000146274
0.00014491
0.000147706
0.000150166
0.000159942
0.00016025
0.0340927
0.000160617
0.000146751
0.000195397
0.0653446
0.000149139
0.000161954
0.0444146
0.000164524
0.000149938
0.00159447
0.0001446
0.0295848
0.000173053
0.000148322
0.00019033
0.000147862
0.000147627
0.000148284
0.0465847
0.000148303
0.000880778
0.0652523
0.00132623
0.00016155
0.0001476
0.0279047
0.000149841
0.0123251
0.000146413
0.000245952
0.000154122
0.00019363
0.000150051
0.0232102
0.000159819
0.00014945
0.0368507
0.0346707
0.00014493
0.000860901
0.000147775
0.000159372
0.000147026
0.00631716
0.000555171
0.000149215
0.000148241
0.0599897
0.000184984
0.000146864
0.000151497
0.000148091
0.000146517
0.000146051
0.0001523
0.0243401
0.0181977
0.000149679
0.000177958
0.000153356
0.000185955
0.000147878
0.00656664
0.0332204
0.0206567
0.000150218
0.0660916
0.0238902
0.000153412
0.000160725
0.000147203
0.000178842
0.0363704
0.000149291
0.000146031
0.000146362
0.000157773
0.000145079
0.000147947
0.000432891
0.000150873
0.00017965
0.00014829
0.000147697
0.000153653
0.000148142
0.000200113
0.0727778
0.000146368
0.000172472
0.000144971
0.0734921
0.00014747
0.000152577
0.0377773
0.000200393
0.000154262
0.0160859
0.000186074
0.000148342
0.000168154
0.000148574
0.000164327
0.000149525
0.000147401
0.000200502
0.000190912
0.0531675
0.000200076
0.00015877
0.00280832
0.000152491
0.000168753
0.000150961
0.0601107
0.0537916
0.0222117
0.000147869
0.000144498
0.0320521
0.0367913
0.000148762
0.0343364
0.000148824
0.000156829
0.000144346
0.000147929
0.00014767
0.000147545
0.000220959
0.000161232
0.000164178
0.000148041
0.000148074
0.00014536
0.000146663
0.000146568
0.000149729
0.000147492
0.058142
0.0459689
0.0415169
0.000152375
0.0616912
0.000174574
0.0792597
0.0585194
0.000174376
0.000148641
0.000149056
0.000180458
0.000149508
0.00845496
0.0267098
0.000150381
0.000145747
0.000163058
0.0474402
0.000147915
0.0700226
0.000147992
0.000148548
0.0814425
0.000147632
0.000156343
0.000149017
0.0433794
0.000145861
0.000147819
0.000203049
0.000145828
0.000148272
0.000147525
0.000145772
0.000165513
0.000147438
0.00828592
0.000148011
0.000149394
0.00014447
0.0232251
0.000162042
0.000148894
0.0615686
0.000148453
0.000145577
0.000231095
0.00048192
0.00014857
0.0739416
0.0790269
0.000156353
0.0463481
0.000148628
0.000148416
0.000196823
0.00014636
0.04762
0.044204
0.000144397
0.000157248
0.000147335
0.0170383
0.0039215
0.00017203
0.000148861
0.000897054
0.000159717
0.000174063
0.000156702
0.00014804
0.000150475
0.000147438
0.00014661
0.0619985
0.000144033
0.000146616
0.000168967
0.0108909
0.000187329
0.073327
0.000147937
0.000162053
0.000148043
0.000148594
0.000148646
0.000146322
0.000148924
0.000147451
0.00014855
0.000149071
0.000154051
0.000148191
0.000149208
0.000145828
0.0173842
0.0808194
0.00014939
0.000150996
0.0580303
0.000149345
0.000205105
0.0390453
0.000264251
0.0819148
0.000242977
0.0832268
0.00422805
0.0302704
0.000147571
0.000160196
0.000147295
0.000169099
0.000154152
0.000149447
0.000147339
0.0266147
0.000145941
0.000156815
0.074399
0.000145626
0.000146955
0.000174185
0.000145802
0.000147498
0.00014745
0.000149439
0.0448347
0.0184796
0.000148116
0.000147829
0.000148275
0.000150679
0.000161853
0.000150955
0.00245461
0.000193466
0.000149228
0.0531844
0.000163423
0.000147791
0.0468792
0.000145743
0.000179642
0.000146305
0.00014979
0.000149608
0.0430237
0.000147779
0.000147595
0.000153342
0.000149733
0.000160607
0.000146781
0.0287042
0.000166486
0.000162636
0.00532901
0.083651
0.000198318
0.000164525
0.0247172
0.000148068
0.000147904
0.000155341
0.0507579
0.000180515
0.000168449
0.0280775
0.00014769
0.000773182
0.000200104
0.00279133
0.000147996
0.000159988
0.000147194
0.000187682
0.000158269
0.00069299
0.0847914
0.00014796
0.000163645
0.000156128
0.00014817
0.000280641
0.000147997
0.000162504
0.000175576
0.000180879
0.000147887
0.000149963
0.000149482
0.00017298
0.000147481
0.000149479
0.000147951
0.000148388
0.000146361
0.000160832
0.000144706
0.000263743
0.0530413
0.000149878
0.000146524
0.000145492
0.000163437
0.00015945
0.000148728
0.034194
0.000162765
0.00014642
0.000146556
0.0595821
0.0533473
0.000147408
0.000219988
0.000159142
0.00014799
0.0219196
0.000154716
0.00017536
0.000149519
0.0259196
0.082662
0.000149681
0.000165657
0.0433059
0.000162522
0.0500884
0.00014956
0.000154092
0.0571103
0.0792322
0.000155322
0.00015379
0.00015009
0.000152635
0.000151463
0.0352128
0.053043
0.0351522
0.000153093
0.000148219
0.00017924
0.000147537
0.000202915
0.000154074
0.026979
0.00014583
0.000149193
0.000147339
0.000148215
0.000146784
0.000187115
0.0784402
0.00015798
0.000145454
0.000148571
0.0146946
0.000151996
0.000152623
0.000148948
0.00016532
0.0489901
0.000145797
0.000147786
0.000169262
0.000183597
0.000148658
0.000169533
0.000149304
0.000152241
0.000205969
0.000156577
0.0814498
0.000368456
0.000163454
0.0547509
0.000146868
0.000147556
0.000151371
0.0753524
0.000151178
0.000508405
0.000145871
0.045577
0.000165219
0.000147108
0.000159839
0.000149207
0.0722363
0.000173658
0.000160792
0.000196917
0.000199082
0.000148915
0.000149276
0.000149486
0.000154814
0.0473218
0.000179237
0.000148569
0.000206945
0.00014801
0.075883
0.000147883
0.0670383
0.000159953
0.0773699
0.00143395
0.00016603
0.00014801
0.000148017
0.000146951
0.0836015
0.000148729
0.000177948
0.0326213
0.000144613
0.0292377
0.000158933
0.000147921
0.000191956
0.0001473
0.00014792
0.0344972
0.00754526
0.0351176
0.000147409
0.000146317
0.000150457
0.000154138
0.000151354
0.000148376
0.0322847
0.000191749
0.000453033
0.000150335
0.000163868
0.000462709
0.000231871
0.000157602
0.000146562
0.0228894
0.000151
0.0502585
0.000147379
0.000148042
0.000147961
0.00014641
0.0001446
0.000149746
0.000146362
0.000159858
0.0746116
0.000165356
0.0509802
0.000153667
0.000149335
0.000148715
0.00019942
0.00014809
0.00015028
0.000148163
0.0311339
0.00868009
0.000146337
0.000153274
0.000147128
0.000147975
0.000149843
0.000148294
0.000147412
0.000261481
0.000148984
0.000147408
0.000188683
0.000146809
0.0291642
0.000189465
0.000196417
0.000207401
0.000153676
0.000148405
0.0559538
0.000148749
0.00019139
0.000161276
0.000146739
0.000168928
0.000148294
0.0711041
0.00014567
0.000147559
0.0793792
0.000173965
0.01955
0.000146126
0.00018807
0.000189124
0.000158567
0.0396587
0.000147031
0.000146477
0.000145765
0.000171779
0.000150321
0.00169387
0.000147975
0.000171013
0.0446699
0.000209983
0.000148051
0.000233506
0.000153558
0.032079
0.00015161
0.000152667
0.0001535
0.0379052
0.000147948
0.000149809
0.0570525
0.000145609
0.000154562
0.000147087
0.000162049
0.0721694
0.0672682
0.000147664
0.000169624
0.000147991
0.000242054
0.000148054
0.000149914
0.00019603
0.00747651
0.000162656
0.000147868
0.000154079
0.0102097
0.000171993
0.000186835
0.0741903
0.000148048
0.0144241
0.000157624
0.000190975
0.000147716
0.000154907
0.0654709
0.000153712
0.000147356
0.000209856
0.0318695
0.0812571
0.000145982
0.0526843
0.000328435
0.000146398
0.000190627
0.0240506
0.000149843
0.000151441
0.0132646
0.000144457
0.000149645
0.000146661
0.000148547
0.000191278
0.000183362
0.000167337
0.0440986
0.000149792
0.000163692
0.000156635
0.000148851
0.000151147
0.000166845
0.000148233
0.000149472
0.0760108
0.0421624
0.0286397
0.000146477
0.000166225
0.000148806
0.057313
0.000148517
0.000167095
0.0726842
0.0177853
0.000165415
0.000148429
0.000270798
0.0431721
0.0011052
0.000147937
0.000148726
0.00014678
0.0772784
0.000166095
0.000194664
0.0692221
0.000148674
0.00014935
0.0378694
0.000156229
0.000180869
0.000149084
0.000147329
0.000148039
0.000535879
0.000148337
0.00017935
0.000147084
0.00014862
0.000146416
0.0455698
0.0386326
0.000152135
0.00021962
0.000151192
0.00149536
0.000147441
0.000147275
0.000189374
0.000148477
0.000147598
0.000153635
0.000174568
0.000160285
0.00018609
0.000148253
0.000181726
0.0684112
0.000148553
0.000149286
0.000148287
0.0656796
0.000165863
0.000162366
0.000189256
0.000146941
0.00014809
0.000173856
0.000156617
0.00274958
0.0789975
0.000162138
0.0493601
0.0180879
0.0391245
0.000177722
0.000149156
0.000147829
0.000233213
0.0582014
0.000147065
0.000162149
0.0383386
0.000148608
0.000220534
0.000305561
0.000201889
0.00014761
0.000196475
0.00014877
0.000148605
0.000146528
0.000212073
0.000148977
0.000180932
0.000169637
0.000147717
0.000149154
0.0151609
0.000147301
0.000145294
0.000173797
0.00885784
0.000168238
0.000148043
0.000163196
0.0490624
0.0458098
0.000159401
0.0580431
0.00019169
0.000178414
0.000168325
0.00014902
0.000172915
0.000158062
0.000145908
0.000147024
0.000149373
0.000156586
0.000239892
0.0430486
0.000149404
0.001605
0.000173701
0.000626633
0.0501813
0.000232793
0.0572127
0.00019976
0.0509269
0.000171993
0.0443889
0.000180768
0.000147997
0.000148701
0.0767057
0.030759
0.000196905
0.0407501
0.000146988
0.0652857
0.0498137
0.000148096
0.000145393
0.000163759
0.000178626
0.0424359
0.0225308
0.000179357
0.00014694
0.000147547
0.000149401
0.0769241
0.000153678
0.0168717
0.000154742
0.0495628
0.000201589
0.0439418
0.000158831
0.0539455
0.000146594
0.000145206
0.000154515
0.000149008
0.0589222
0.00018792
0.0568024
0.000148549
0.0376327