/*--------------------------------*- C++ -*----------------------------------*\
| =========                 |                                                 |
| \\      /  F ield         | OpenFOAM: The Open Source CFD Toolbox           |
|  \\    /   O peration     | Version:  v2012                                 |
|   \\  /    A nd           | Website:  www.openfoam.com                      |
|    \\/     M anipulation  |                                                 |
\*---------------------------------------------------------------------------*/
FoamFile
{
    version     2.0;
    format      ascii;
    class       surfaceVectorField;
    location    "700";
    object      Uf;
}
// * * * * * * * * * * * * * * * * * * * * * * * * * * * * * * * * * * * * * //

dimensions      [0 1 -1 0 0 0 0];


internalField   nonuniform List<vector> 
27284
(
(0.87893 0.154288 1.2257e-21)
(0.883462 0.14377 1.1264e-21)
(0.872897 0.1448 2.96795e-21)
(1.00836 -0.000168119 -1.11463e-22)
(1.00847 -0.000184586 1.3184e-22)
(1.00846 -0.000187816 5.38278e-22)
(1.1646 0.143462 -6.62263e-21)
(1.16032 0.150885 0)
(1.15602 0.142861 0)
(1.01069 0.00118094 3.82225e-22)
(1.01074 0.00128472 -6.69903e-23)
(1.0108 0.00117579 4.6978e-22)
(0.987838 -0.00264915 -8.9961e-22)
(0.987165 -0.00716561 -1.13377e-21)
(0.991235 -0.00565017 2.76011e-21)
(1.02645 -0.103202 -4.72452e-23)
(1.01294 -0.105068 0)
(1.0204 -0.117489 -1.20813e-21)
(1.01323 0.000241952 3.25836e-22)
(1.01292 0.000322125 7.69403e-22)
(1.01328 0.000487281 6.75098e-22)
(0.985205 0.000479681 1.10057e-21)
(0.989929 0.000982842 4.12941e-22)
(1.00422 1.37134e-05 4.61784e-22)
(1.00534 0.000125946 -1.01564e-21)
(1.00459 8.13441e-05 -8.82211e-22)
(1.04775 0.0774349 1.49455e-22)
(1.04437 0.0676728 1.50178e-22)
(1.03427 0.0803982 1.38877e-21)
(1.02035 0.00786391 2.0855e-21)
(1.01964 0.00832249 3.0176e-21)
(1.02033 0.00846789 -6.26785e-22)
(1.12826 0.0483797 -8.39143e-21)
(1.12636 0.0479423 6.63677e-21)
(1.12681 0.0499552 -5.3262e-21)
(1.13033 0.0492149 4.02967e-22)
(1.12976 0.046872 -2.47419e-21)
(0.84115 0.0604736 1.04693e-21)
(0.847896 0.0785857 -6.68274e-21)
(0.860467 0.0608204 2.20659e-22)
(1.00651 0.000173966 -6.95049e-22)
(1.007 0.000193358 -7.59649e-22)
(1.00677 0.000167283 -4.42632e-22)
(1.00971 -0.000724202 -2.84578e-22)
(1.00958 -0.00068543 0)
(1.00974 -0.000698462 0)
(1.01065 0.00106758 2.59427e-22)
(1.01058 0.0011668 -2.75748e-23)
(1.02094 0.0121412 1.20474e-21)
(1.02119 0.0125545 6.16446e-22)
(1.02054 0.0125146 1.02207e-21)
(1.06224 0.178374 -2.5784e-21)
(1.05459 0.180296 -1.01604e-22)
(1.05691 0.172157 -6.00462e-24)
(1.00782 0.00280804 -5.48347e-22)
(1.00791 0.00334493 1.84313e-21)
(1.00826 0.00288542 -4.69526e-22)
(0.762518 -0.0537141 1.66911e-21)
(0.788885 -0.0488292 3.26538e-22)
(0.76415 -0.037688 1.24384e-22)
(1.02371 0.0120667 5.70191e-23)
(1.02332 0.0118462 8.85302e-24)
(1.02336 0.0123451 -9.08198e-24)
(1.0075 -2.53746e-05 3.0467e-22)
(1.00757 -3.96274e-05 3.37802e-23)
(1.0075 -2.91006e-05 -9.83403e-23)
(1.03976 -0.0950216 5.70692e-22)
(1.03642 -0.0867588 2.93009e-21)
(1.0075 -2.07986e-05 3.75491e-22)
(1.00744 -1.25876e-05 5.22347e-22)
(1.01347 0.00261992 -1.09514e-21)
(1.01325 0.00286067 9.75811e-22)
(1.0136 0.00280891 1.97309e-22)
(1.01324 1.76573e-05 4.34512e-22)
(1.01322 -0.000252351 -7.29226e-23)
(1.01281 -6.24598e-05 -8.33908e-24)
(1.01106 0.00220435 6.50649e-23)
(1.0112 0.00227881 9.1994e-22)
(1.01111 0.00233397 4.64806e-22)
(1.00267 -1.16079e-05 1.15885e-21)
(1.00396 -6.861e-06 9.86179e-22)
(1.02191 0.00724502 -4.44718e-21)
(1.02108 0.00752203 -1.84375e-21)
(1.02174 0.00795112 -3.29016e-22)
(0.998963 -0.238905 -2.6483e-21)
(0.98898 -0.265224 -6.86384e-21)
(1.01067 -0.241495 0)
(0.989945 -0.00997384 1.91827e-21)
(0.990482 -0.00623769 2.29674e-21)
(0.986577 -0.00735509 -1.7645e-21)
(1.01148 -0.00119565 -1.17353e-22)
(1.01147 -0.00122319 4.60784e-22)
(1.01163 -0.00126457 0)
(1.00947 -0.000490152 -2.32285e-22)
(1.00945 -0.000490483 -2.81549e-22)
(1.00933 -0.000464224 4.8744e-24)
(1.00635 -6.19212e-05 -1.80645e-23)
(1.00631 -7.62284e-05 -5.85254e-23)
(1.0048 -7.07826e-05 -3.31509e-23)
(1.01027 0.0047474 2.71879e-22)
(1.01047 0.00492093 -2.31688e-21)
(1.0102 0.00509038 9.00998e-23)
(1.04497 0.0347237 3.96618e-22)
(1.04621 0.0344439 9.60869e-22)
(1.0451 0.0335726 -1.28248e-21)
(1.01034 0.00439824 2.0994e-21)
(1.00999 0.00452908 1.21419e-21)
(1.0228 0.00706709 -5.76873e-22)
(1.02194 0.00638559 -7.56203e-22)
(1.01775 0.00985913 1.48134e-22)
(1.01784 0.0100216 6.19422e-22)
(1.01765 0.00985842 0)
(1.01408 0.000188344 0)
(1.01397 0.000209749 0)
(1.01236 0.000131126 0)
(1.02022 0.00713584 1.74532e-21)
(1.00949 -0.000489225 3.52807e-22)
(1.00951 -0.00049004 -1.14797e-23)
(1.00937 -0.000463819 -1.75163e-22)
(1.00827 -0.000152454 -2.24655e-22)
(1.00818 -0.000139377 2.91563e-22)
(1.00826 -0.000157739 2.86158e-23)
(1.00828 -0.000150317 7.5967e-25)
(1.15037 0.0212939 0)
(1.14756 0.0234305 5.35424e-21)
(1.14729 0.0203521 0)
(1.01056 0.00291661 0)
(1.01067 0.00302147 0)
(1.01063 0.00302659 0)
(1.01044 0.00281045 0)
(1.01049 0.0028081 1.6584e-22)
(1.01218 -0.199194 -2.99998e-21)
(1.00999 0.00128569 6.40322e-22)
(1.01006 0.00114334 -1.58569e-22)
(1.01002 0.0013737 1.56436e-21)
(1.00682 -0.000107663 -6.58295e-22)
(1.00612 -6.43096e-05 9.21513e-22)
(1.00616 -5.0595e-05 -6.37354e-22)
(0.610112 0.00637546 -3.70943e-21)
(0.60568 0.037934 8.13596e-22)
(0.600051 0.0619734 3.29517e-21)
(1.00993 0.00118939 -1.14795e-21)
(1.00992 0.00146196 -2.13034e-21)
(0.979495 0.14547 3.98779e-23)
(0.98113 0.151045 0)
(0.986765 0.145537 -6.13095e-23)
(1.01655 0.00350347 1.22215e-22)
(1.01655 0.00333536 -3.49163e-22)
(1.01632 0.00336257 3.64047e-24)
(1.00769 0.00222553 0)
(1.00718 0.00272373 -6.91925e-22)
(1.00614 -9.69584e-05 4.9425e-22)
(1.00511 -4.0237e-05 1.96435e-22)
(1.00516 -4.33315e-05 3.31534e-23)
(0.886677 -0.316053 1.4981e-21)
(1.01365 0.00240668 -2.66131e-21)
(1.01325 0.00254368 -2.24809e-21)
(0.912798 0.00428814 5.12435e-21)
(0.874331 0.000917839 0)
(0.854727 0.00189738 1.36788e-21)
(1.00961 -0.000514935 -5.8507e-22)
(1.11053 0.0684803 -5.57192e-21)
(1.11142 0.0660466 1.2614e-20)
(1.10849 0.06637 -3.31435e-21)
(0.978521 0.137715 -2.92831e-22)
(0.972307 0.143212 4.8983e-23)
(1.01402 0.00100715 5.29592e-22)
(1.01414 0.000697998 2.72234e-22)
(1.01365 0.000599466 -2.35073e-22)
(0.966229 -0.00121342 5.02614e-22)
(0.96182 0.00176112 -4.67298e-22)
(0.967864 0.00380017 1.95711e-21)
(1.00671 -0.000106194 5.92459e-22)
(1.00742 -0.000139963 4.09857e-22)
(1.00723 -0.000142633 3.72638e-22)
(1.02285 0.0208056 1.45038e-22)
(1.02351 0.0208536 1.43617e-22)
(1.0231 0.0216441 2.39857e-22)
(1.04388 0.0350916 -9.46934e-23)
(1.04491 0.0360688 5.7451e-22)
(1.0098 -0.000624851 -3.0559e-22)
(1.00977 -0.000631548 6.66079e-22)
(1.00967 -0.000603273 5.83588e-22)
(1.04883 0.098049 -5.04291e-23)
(1.05947 0.112557 2.06168e-22)
(1.04235 0.11267 -2.90911e-21)
(1.01018 0.000814382 3.23951e-22)
(1.01028 0.000789778 3.35211e-22)
(1.01016 0.00087934 -5.03004e-24)
(1.01655 0.00361081 6.79466e-23)
(1.01676 0.00359478 -1.2002e-22)
(0.997033 0.000744284 2.62811e-22)
(0.997202 -0.00228574 -9.51045e-23)
(0.999822 -0.000617191 -7.69417e-22)
(1.02215 0.0150635 2.11299e-21)
(1.02201 0.0142822 -1.15159e-21)
(1.0212 0.0147441 -1.57854e-21)
(0.990766 -0.0556573 -1.03686e-21)
(0.980606 -0.0593955 -5.03869e-22)
(0.989003 -0.0495177 -5.78112e-21)
(1.00984 -0.000606452 3.41433e-22)
(1.00982 -0.000616193 4.59551e-23)
(1.0097 -0.000582386 1.50401e-21)
(0.90339 -0.305779 1.0475e-20)
(0.889446 -0.318171 8.96997e-21)
(1.00986 -0.000602418 -5.95764e-22)
(1.01 -0.000633633 -9.89524e-22)
(1.01008 0.000839538 9.35531e-22)
(1.01019 0.000757157 3.17219e-22)
(0.994981 -0.0623331 5.82083e-22)
(1.00029 -0.0519135 -3.45956e-22)
(1.0221 0.0208918 1.87986e-23)
(1.02252 0.0201135 1.57146e-22)
(1.02718 -0.0569199 -3.54339e-21)
(1.02344 -0.067132 2.33904e-23)
(1.01761 -0.059446 4.52374e-22)
(1.00994 -0.000650233 -1.04027e-21)
(1.01887 0.0212066 2.78416e-22)
(1.01908 0.0220231 3.26649e-22)
(1.01828 0.0218388 -1.24323e-22)
(0.988347 0.0537712 -9.93113e-22)
(0.987686 0.0572292 -1.94136e-21)
(0.985194 0.0539962 1.21429e-21)
(1.00391 3.70087e-05 3.54173e-22)
(1.00379 -2.22604e-05 -6.45415e-23)
(1.00262 2.65607e-06 -1.11899e-22)
(1.00744 0.00032254 8.10475e-22)
(1.00638 0.000258821 1.49108e-22)
(1.00615 0.000243099 2.14555e-22)
(1.00828 0.054725 2.0453e-22)
(1.01069 0.0540692 0)
(1.01003 0.0567385 0)
(1.00958 0.00183971 1.44209e-22)
(1.0095 0.00176817 3.0815e-22)
(1.00949 0.00177842 -5.76657e-22)
(1.00672 0.0525696 -1.94599e-22)
(1.00559 0.0551722 3.70814e-22)
(0.773394 0.0346112 1.15455e-20)
(0.767808 0.0896579 0)
(0.841524 -0.0701894 -8.365e-21)
(0.869634 -0.0750112 -2.582e-21)
(0.86436 -0.061813 -4.80991e-21)
(1.03723 -0.0502945 -1.92437e-22)
(1.03373 -0.0455335 -9.60024e-23)
(1.01014 0.00101442 -2.76745e-22)
(1.01012 0.000907376 -2.28455e-21)
(0.943528 0.151226 8.01255e-22)
(0.961365 0.146044 -6.29158e-21)
(0.947213 0.13057 -6.60303e-22)
(1.01174 -5.83634e-05 4.49119e-22)
(1.01139 -0.000150762 -5.54735e-22)
(1.01168 0.000462047 -9.99856e-22)
(1.0093 0.00169378 -9.99115e-22)
(1.0093 0.00169336 -1.25503e-23)
(1.00922 0.00161156 3.14398e-22)
(1.01209 -3.92769e-05 4.46585e-22)
(1.01185 -0.000443257 -3.01798e-22)
(1.05182 0.108434 0)
(1.04989 0.112814 0)
(1.04758 0.107535 7.27278e-22)
(1.022 0.0112591 5.34925e-23)
(1.02231 0.011428 2.15792e-22)
(1.02207 0.011607 1.69437e-22)
(0.989731 0.0510494 0)
(0.992087 0.0541297 0)
(1.00996 0.000857286 4.13087e-23)
(1.00997 0.000923897 5.96006e-22)
(1.01022 0.000926477 7.52373e-22)
(1.01013 0.00112836 1.29891e-21)
(1.01074 -0.000461615 2.10753e-24)
(1.0108 -0.000494793 -8.10282e-24)
(1.01071 -0.000459418 4.78914e-23)
(1.02152 0.0208789 -7.35427e-24)
(1.02082 0.0208218 -2.97059e-23)
(1.02126 0.0201742 -5.15801e-24)
(1.00987 -0.000774252 -7.90914e-23)
(1.0097 -0.000756909 -2.91261e-22)
(0.964462 -0.00661137 -1.42618e-21)
(0.970502 -0.00436116 -2.2617e-21)
(0.924137 0.156876 6.09093e-22)
(0.941224 0.172278 -4.66912e-21)
(1.02786 0.0475139 -1.52192e-21)
(1.02656 0.0485985 7.53774e-22)
(1.02866 0.0492009 -1.29293e-21)
(1.00964 -0.000589963 9.04578e-22)
(1.00978 -0.00060227 -4.91813e-22)
(1.0096 -0.000558846 0)
(1.00696 -0.000103521 -2.1596e-23)
(1.00695 -0.000114534 -8.64861e-23)
(1.00465 -4.63457e-05 -1.53524e-22)
(1.0033 -2.92962e-05 2.1012e-22)
(1.00461 -5.52777e-05 3.85416e-23)
(1.01353 0.000757296 1.12786e-21)
(1.01194 -7.32287e-05 0)
(1.01268 0.00226293 2.57355e-22)
(1.01868 0.0203935 2.37444e-23)
(1.01939 0.0205974 2.3403e-22)
(1.17273 0.037618 -2.07494e-21)
(1.18115 0.0398384 8.21953e-21)
(1.17154 0.0343786 -3.30838e-21)
(1.0112 0.0118372 1.43991e-21)
(1.01154 0.0128599 8.33169e-22)
(1.01223 0.0119665 4.9218e-22)
(1.00986 0.000863752 -5.76161e-22)
(1.00997 0.00078781 -2.20156e-22)
(0.999427 -0.0695482 -2.09697e-24)
(0.987097 -0.0752255 3.27814e-22)
(1.02144 0.0162703 -1.76818e-22)
(1.02099 0.0162585 2.38027e-22)
(1.0212 0.0157892 -2.51107e-22)
(1.02417 0.0205645 -1.97424e-22)
(1.02435 0.0213116 2.28067e-22)
(1.03883 0.0872345 4.25848e-21)
(1.05365 0.0851043 6.08741e-23)
(1.16698 0.13658 7.06593e-22)
(1.17181 0.14395 -1.0757e-20)
(0.762382 -0.0242592 -9.9959e-21)
(1.00403 0.0610327 3.24478e-22)
(1.0011 0.0621135 -4.96947e-22)
(1.00371 0.0647265 1.07927e-21)
(1.00626 -0.0757072 -3.09116e-22)
(1.00672 -0.0634118 -7.87209e-21)
(1.15727 0.0220876 1.01393e-21)
(1.15566 0.0183616 -6.03944e-21)
(1.15965 0.0220135 -8.61183e-21)
(1.01371 0.000117442 -1.87186e-22)
(1.01061 0.000955042 0)
(1.01072 0.000968222 -5.67961e-22)
(0.874933 0.164419 3.31705e-23)
(0.885969 0.163135 9.52386e-22)
(1.02247 0.00952082 1.79412e-23)
(1.02261 0.00980259 -6.83439e-24)
(1.02225 0.00970153 -8.38229e-23)
(1.00929 0.00168866 2.25676e-23)
(1.00938 0.00177278 7.98697e-23)
(0.631517 -0.0409769 2.70391e-21)
(0.632053 -0.0533764 -1.2755e-21)
(1.01565 0.0053984 -7.30199e-22)
(1.0155 0.0052143 -6.93803e-22)
(1.01571 0.00531549 2.91823e-23)
(1.08245 0.0958477 1.62314e-22)
(1.08595 0.096252 1.22391e-21)
(1.08302 0.0990423 4.25741e-22)
(0.937154 0.0668258 2.06229e-21)
(0.941741 0.0677444 1.75477e-21)
(0.937526 0.0725728 -2.20301e-21)
(1.00947 0.00169268 -1.76071e-22)
(1.00954 0.00175249 1.42299e-21)
(1.00956 0.00174676 5.16895e-22)
(1.06716 0.1829 4.78982e-22)
(1.06935 0.17503 -1.94684e-21)
(0.999755 0.101739 -2.11295e-21)
(1.01232 0.106112 -5.14744e-22)
(1.00101 0.117126 -1.21901e-21)
(1.01263 0.000877916 -2.48905e-22)
(1.01277 0.000933675 1.59118e-22)
(1.0127 0.00103061 1.63987e-22)
(0.814677 -0.0588718 5.68154e-21)
(0.81607 -0.0739032 -1.53118e-21)
(1.03537 0.0289654 -2.19794e-21)
(1.03595 0.0283139 1.20859e-22)
(1.03619 0.0294563 -2.82789e-21)
(1.02047 -0.0250899 -8.67302e-22)
(1.02421 -0.0224841 6.88392e-22)
(1.02458 -0.0278179 -3.17614e-22)
(1.0102 0.00269661 -2.94224e-22)
(1.01014 0.00259959 -1.85441e-22)
(1.01012 0.00259195 1.1159e-22)
(0.609174 0.186649 2.90555e-21)
(0.602776 0.152679 3.25054e-21)
(0.93622 0.060281 -1.55536e-21)
(0.931009 0.0654639 -1.81954e-21)
(1.01423 0.00031459 -2.58672e-22)
(1.01472 0.000346692 3.01154e-22)
(1.01459 0.000376223 0)
(0.844792 -0.00680931 3.63515e-21)
(0.839608 -0.00907016 -1.95853e-21)
(0.894873 -0.00110487 6.39739e-21)
(1.01277 -0.00130936 5.28049e-23)
(1.01262 -0.00126621 -2.38649e-23)
(1.01263 -0.00126701 -5.1096e-23)
(1.01457 -0.000970827 1.87055e-21)
(1.015 0.00140127 -4.00396e-24)
(1.04479 -0.00561628 0)
(1.03739 -0.012325 0)
(1.04283 -0.0252742 0)
(1.011 0.00208634 -7.45115e-23)
(1.01092 0.00213822 -1.09683e-21)
(1.02478 0.0203319 -2.34018e-22)
(1.02403 0.0199752 1.7032e-23)
(1.01588 -0.00155163 0)
(1.01538 -0.00172483 -5.05919e-22)
(1.01524 -0.00136771 5.01632e-22)
(1.02205 -0.00499142 -3.07317e-22)
(1.02143 -0.00678146 -3.33994e-22)
(1.02031 -0.00531588 6.68714e-22)
(1.00964 -0.00051296 -1.93059e-22)
(1.00952 -0.000491684 4.01975e-22)
(1.00699 1.78102e-05 5.6954e-22)
(1.00711 1.64936e-05 -1.8383e-22)
(1.00712 1.93385e-05 4.78311e-22)
(1.01048 0.000934523 0)
(1.01051 0.00081556 4.144e-22)
(1.00401 3.30958e-06 1.77629e-22)
(1.00473 -0.000123834 0)
(1.01027 0.00276502 0)
(1.01028 0.00276549 4.77114e-22)
(1.00675 1.42404e-05 5.83619e-22)
(1.00674 5.00154e-06 2.24469e-22)
(1.02111 0.0110642 0)
(1.0215 0.0113339 -1.24245e-21)
(1.02164 0.0108679 7.65026e-22)
(1.01558 0.00547031 -3.81462e-22)
(1.01581 0.00557184 4.2905e-23)
(1.0097 -0.000627008 5.16749e-22)
(1.00954 -0.000581765 1.71174e-23)
(1.02311 -0.0125401 6.23659e-22)
(1.02125 -0.0147573 3.2351e-22)
(1.02025 -0.0119934 4.86678e-22)
(1.02277 0.0125268 6.56934e-22)
(1.02321 0.0131468 1.27009e-21)
(1.0237 0.0124303 -2.55456e-22)
(1.04816 0.0397027 3.93972e-21)
(1.05381 0.0430517 -1.55484e-22)
(1.05536 0.033675 1.64256e-21)
(0.846958 -0.00323313 -5.69773e-21)
(0.79349 -0.0109735 3.20049e-21)
(0.848286 0.147915 -1.80789e-21)
(0.835723 0.149314 -1.80068e-21)
(0.842498 0.137064 -1.90876e-21)
(0.848079 -0.280444 -6.89217e-22)
(0.841666 -0.285957 -3.2334e-21)
(0.847324 -0.28804 1.26551e-21)
(1.0346 0.0297943 -1.25832e-21)
(1.03443 0.0285677 -5.99877e-22)
(1.00497 -5.16229e-05 -3.76642e-22)
(1.00503 -5.62891e-05 -2.88521e-23)
(1.00352 -3.65618e-05 -1.90619e-22)
(1.08193 0.0918923 -4.20135e-22)
(1.0786 0.0945901 -1.26089e-21)
(1.0042 -3.68598e-05 -6.84914e-22)
(1.00422 -5.33576e-05 3.4062e-23)
(1.00281 -3.10398e-05 -3.03651e-22)
(1.0253 -0.148953 0)
(1.04042 -0.17002 0)
(1.00568 -8.44039e-05 -3.69285e-22)
(1.00571 -8.07223e-05 -1.16989e-22)
(1.00424 -4.22896e-05 0)
(1.01361 0.000237298 -3.02567e-23)
(1.01343 0.000240108 -2.82569e-22)
(1.00458 -3.33776e-05 0)
(1.00563 -0.0001042 -6.2182e-22)
(1.01132 -0.000784189 -5.12583e-24)
(1.0114 -0.000808692 0)
(1.01143 -0.000829553 7.23086e-23)
(1.03901 0.0124746 2.24941e-22)
(1.03984 0.0127146 2.45011e-22)
(1.03918 0.0131275 -1.16266e-22)
(1.0096 0.0243289 7.84906e-22)
(1.01058 0.0252447 6.79864e-22)
(1.00907 0.0255707 1.64854e-21)
(1.00378 -2.31801e-05 -3.73456e-22)
(1.00382 -1.40033e-05 7.62556e-22)
(1.00254 -2.48832e-05 -4.06663e-22)
(1.0435 0.035224 2.63979e-23)
(1.04133 0.0432796 4.65516e-23)
(1.02317 0.0111609 -4.11584e-23)
(1.02279 0.0110121 1.56618e-23)
(1.02304 0.0107623 1.51147e-23)
(1.0114 0.00275541 -9.70427e-22)
(1.01153 0.0028403 -1.24974e-21)
(1.01147 0.00270113 1.19827e-21)
(1.04548 0.0203082 -1.28803e-21)
(1.04099 0.017912 4.57893e-23)
(1.04537 0.0142768 3.49922e-23)
(1.0103 0.000841769 5.32356e-23)
(1.01035 0.000720136 2.19744e-22)
(1.00442 1.66739e-05 -1.87669e-22)
(1.00399 -3.15584e-05 4.74031e-22)
(1.00512 3.9577e-05 -8.11886e-22)
(1.00537 0.0501784 -7.48039e-22)
(1.00277 0.0502555 1.79108e-22)
(1.00415 0.0478137 -3.10844e-22)
(1.01641 0.000997151 -1.34463e-22)
(1.01637 0.000879811 7.2411e-22)
(1.01624 0.00095213 2.31213e-22)
(1.01369 -0.000456223 -2.73427e-23)
(1.0132 -0.000484482 -3.3346e-22)
(1.15356 0.0217976 9.52505e-21)
(1.15504 0.0247964 7.09487e-21)
(1.05419 0.104827 0)
(1.05583 0.110147 0)
(1.0086 -0.000199561 -5.49572e-22)
(1.00849 -0.000184578 0)
(1.0085 -0.000183168 5.60979e-22)
(1.01123 -0.000882397 1.96458e-23)
(1.01128 -0.000882796 5.02157e-23)
(1.01141 -0.00089539 3.10642e-23)
(1.01561 0.000175841 -1.76668e-22)
(1.01551 0.000152703 6.84933e-22)
(1.01563 0.000121612 7.48751e-22)
(1.17159 0.0429175 -1.38677e-21)
(1.18675 0.0518204 1.38081e-22)
(1.17958 0.0493596 -4.28335e-21)
(1.00735 -0.000102267 -1.88478e-23)
(1.00734 -0.000128375 3.04426e-22)
(0.846019 0.180728 1.07383e-21)
(0.850184 0.169307 2.33042e-21)
(0.837267 0.17162 -5.31265e-22)
(1.00848 -0.000184996 2.37637e-22)
(1.00858 -0.000203344 9.69467e-22)
(0.818369 0.0544543 -1.29112e-22)
(0.837321 0.0398741 5.69213e-22)
(1.01038 0.000787213 1.26729e-21)
(1.01025 0.000947178 1.25827e-22)
(1.01701 0.013249 5.13005e-22)
(1.01754 0.0132496 -2.96207e-22)
(1.01719 0.0127982 2.5667e-22)
(1.02385 0.00693184 1.85339e-21)
(1.02346 0.00770498 -7.06083e-22)
(1.00386 -4.37859e-05 -6.59991e-22)
(1.00421 -2.35206e-05 5.96165e-22)
(1.00495 2.73412e-06 1.11659e-21)
(0.860954 0.146092 4.40525e-21)
(0.855088 0.158344 2.47496e-21)
(1.02258 0.00833645 1.68205e-23)
(1.0227 0.00811003 2.6465e-24)
(1.02295 0.00836173 -4.1615e-23)
(0.854118 -0.274966 3.12859e-21)
(0.850884 -0.271953 1.28997e-21)
(1.01133 0.00277841 -3.32685e-22)
(1.0113 0.00264877 1.87013e-22)
(1.01151 -0.00112769 -1.19261e-23)
(1.01136 -0.00106063 -9.83353e-22)
(1.01153 -0.00108689 -7.51746e-22)
(1.01485 -0.00263129 -7.64309e-22)
(1.01429 -0.00259434 -4.8009e-22)
(1.01441 -0.00228978 -6.35232e-23)
(1.01913 0.00905698 0)
(1.01903 0.0088234 -3.438e-22)
(1.0189 0.00891516 3.71468e-22)
(1.07187 -0.0267528 5.73215e-21)
(1.06994 -0.0364704 -4.93213e-22)
(1.06375 -0.0356465 -5.01747e-22)
(1.01769 0.000115968 0)
(1.01804 0.000871159 8.08167e-24)
(1.0187 0.000237931 0)
(1.01732 -0.000433022 0)
(1.01676 6.22063e-05 -7.00793e-22)
(1.01291 -0.00136644 2.19067e-23)
(1.01293 -0.00135808 1.39965e-23)
(1.0387 -0.0911353 0)
(1.0052 -0.117775 -1.42085e-20)
(1.0088 0.0229206 -7.44435e-22)
(1.01008 0.0229417 6.44699e-23)
(1.04656 0.0262204 -1.01558e-21)
(1.0459 0.0254346 -3.24303e-21)
(1.04559 0.0263889 -2.93151e-21)
(1.02243 0.00858125 9.77862e-24)
(1.02226 0.00878506 2.75923e-23)
(1.02267 0.00884651 -8.3747e-23)
(1.01056 0.00303683 3.87368e-22)
(1.01053 0.00304338 -1.95916e-22)
(1.01064 0.00315027 1.19668e-21)
(1.02936 0.0462582 9.93652e-23)
(1.02726 0.0458175 3.09047e-22)
(1.01105 -0.000827872 -1.58105e-22)
(1.01102 -0.00080678 -7.02833e-25)
(1.01089 -0.000802102 -1.58067e-22)
(1.01507 0.0547215 0)
(1.01323 0.0531437 0)
(1.0155 0.0521565 0)
(1.01623 -0.0125949 -1.69061e-21)
(1.01817 -0.0138098 -5.67923e-22)
(1.01773 -0.0114488 -1.06202e-21)
(1.01966 0.03053 2.38395e-22)
(1.02169 0.0347146 1.89941e-22)
(1.01596 0.032849 0)
(1.01323 0.00507459 1.74063e-22)
(1.01354 0.0043207 8.81232e-22)
(1.01429 0.00544601 -7.17661e-22)
(1.01108 -0.000845767 -2.53993e-24)
(1.0111 -0.000860621 0)
(1.01094 -0.000837414 1.65714e-22)
(0.98917 0.0966474 -2.65988e-22)
(0.999295 0.0890988 -1.43646e-22)
(0.90278 0.123386 2.31105e-22)
(0.892456 0.124266 2.89876e-21)
(0.896663 0.114644 3.54738e-21)
(0.99885 0.0106313 1.69099e-21)
(0.998252 0.00837421 -2.11464e-21)
(1.00063 0.0090278 -3.72005e-22)
(1.01199 0.00116839 4.84588e-22)
(1.01171 0.000925349 -1.83059e-22)
(1.01167 0.00106394 -2.539e-22)
(1.02176 0.0215632 9.36238e-23)
(1.06438 0.0362242 -2.78478e-22)
(1.05641 0.0423405 -2.37845e-21)
(1.06088 0.0489075 2.19888e-22)
(1.0112 -0.000854982 -8.64871e-24)
(1.02454 -0.0104358 6.20395e-22)
(1.02728 -0.0131696 -8.39036e-22)
(1.01823 0.0268087 -7.69256e-22)
(1.02283 0.0276298 1.69733e-22)
(1.03339 0.00877296 0)
(1.03338 0.00818688 7.80683e-22)
(1.0328 0.00845982 0)
(1.15202 0.0181798 0)
(1.05289 0.0187861 -1.75296e-22)
(1.05389 0.0188916 -7.5614e-22)
(1.05322 0.0178998 -2.95915e-21)
(1.01686 -0.000906204 0)
(1.01772 -0.00103538 0)
(1.00879 -0.000237179 -1.32527e-21)
(1.00868 -0.000216463 -1.36386e-21)
(1.00868 -0.000223809 -1.23676e-23)
(1.03825 0.012346 1.56143e-21)
(1.03885 0.0118665 -2.96774e-22)
(1.01637 -0.00124439 0)
(1.01605 -0.000799821 -2.37486e-22)
(0.999522 0.0126182 2.1672e-21)
(1.00045 0.0146141 -7.88344e-23)
(1.0019 0.0129786 -7.38137e-22)
(1.02218 0.00832574 -7.51531e-23)
(1.01658 0.00319134 -7.4633e-22)
(1.0166 0.00304581 -2.89229e-22)
(1.01637 0.00306123 -1.49543e-22)
(1.01062 0.00275407 7.55921e-22)
(1.01057 0.00277687 3.65406e-22)
(1.01051 0.00265813 -3.4913e-22)
(1.06894 -0.0191774 5.32334e-22)
(1.07767 -0.0147934 5.25176e-22)
(1.0654 -0.0504698 1.03418e-26)
(1.05829 -0.062834 -4.13459e-22)
(1.05454 -0.0569309 0)
(1.01054 0.000604827 -6.08066e-23)
(1.01068 0.00054627 5.42634e-22)
(1.0107 0.000520651 1.29109e-21)
(1.01389 0.00133875 -4.58917e-22)
(1.01449 0.00155499 0)
(1.07479 -0.0365992 1.18169e-26)
(1.14754 0.0978067 2.1128e-21)
(1.15217 0.0963677 -6.75155e-21)
(1.14748 0.0932227 -6.25787e-22)
(1.01429 -0.0136373 -1.48011e-21)
(1.01493 -0.011425 -8.38788e-22)
(1.01123 -0.000734928 -8.44477e-24)
(1.01125 -0.000752225 -1.9415e-23)
(1.02657 -0.0165708 -3.36329e-22)
(1.03023 -0.0168459 1.06595e-21)
(1.02736 -0.0134446 -1.04199e-21)
(1.05263 0.0198426 1.909e-21)
(1.05198 0.0188546 2.21434e-21)
(1.01392 0.000523076 -1.67849e-22)
(1.01325 0.000417075 6.87606e-23)
(1.01358 0.00051642 -3.68579e-22)
(1.01222 0.00467914 -2.48299e-22)
(1.01254 0.00589835 -3.62371e-22)
(1.00886 0.0013039 -3.59585e-22)
(1.00893 0.00135433 6.64867e-22)
(1.00885 0.0012935 6.89797e-22)
(1.05025 -0.00187808 0)
(1.04632 0.0125841 2.27755e-22)
(0.981978 -0.00544919 -7.21268e-23)
(0.979021 -0.010508 5.49392e-23)
(0.976872 -0.00451277 -4.37523e-22)
(1.05438 0.101443 -2.01102e-21)
(1.05564 0.097809 1.12715e-21)
(1.05108 0.0995805 1.3826e-21)
(1.06373 0.0306704 -1.35255e-21)
(1.06424 0.0315071 1.20466e-21)
(1.06504 0.0305494 5.16819e-22)
(1.0241 0.00598873 -6.0838e-22)
(1.02495 0.00695755 4.31218e-22)
(1.03727 0.000592729 -1.50663e-21)
(1.0375 -0.00320589 1.14033e-21)
(1.03429 -0.00149133 -9.93481e-22)
(1.01324 -0.0198446 0)
(1.01673 -0.0224363 0)
(1.0162 -0.0181723 0)
(1.04831 0.116804 0)
(1.04399 0.116817 -1.02982e-21)
(1.04635 0.121775 0)
(1.0088 0.00125862 -3.6607e-22)
(1.00888 0.00131593 7.38496e-22)
(1.0168 0.0033212 -1.08789e-22)
(1.01308 -0.00108296 0)
(1.01363 -0.00111048 -1.94007e-22)
(1.01315 -0.000778443 0)
(1.00986 -0.000588616 2.8351e-22)
(1.00989 -0.000612287 -7.29225e-23)
(1.01002 -0.000622434 3.81879e-22)
(1.01643 0.0132189 2.81173e-22)
(1.01675 0.0137296 -4.07547e-22)
(1.04718 0.0269981 4.51722e-22)
(1.04754 0.0259984 9.5674e-22)
(1.01043 0.00188179 -8.78199e-22)
(1.01056 0.00194519 2.61958e-22)
(1.01051 0.00182579 -8.4658e-22)
(1.01967 0.00898827 0)
(1.01981 0.00887405 3.49879e-22)
(1.0199 0.00913124 0)
(1.01855 0.0287976 -1.18412e-21)
(1.01981 0.0270503 -1.8105e-21)
(1.01708 0.0272131 3.33143e-22)
(1.0094 0.00163684 -7.13025e-22)
(1.00938 0.00163938 -1.60254e-21)
(0.971194 0.0860704 -1.2458e-21)
(0.970494 0.0908501 -8.73609e-22)
(0.966617 0.0871633 -6.08294e-22)
(0.995591 0.203518 2.11541e-20)
(0.967445 0.245213 -6.1023e-22)
(1.02064 0.025219 -1.82362e-23)
(1.02123 0.0235322 0)
(1.01905 0.0240206 -1.44843e-21)
(1.01937 0.00920797 -3.44001e-22)
(1.01921 0.0093028 -4.44973e-22)
(1.01081 0.00944862 -4.08588e-22)
(1.01097 0.0107512 2.67288e-21)
(1.01191 0.00973174 1.40111e-21)
(1.00972 -0.000558204 -1.05145e-22)
(1.00985 -0.000570804 4.09184e-22)
(1.01483 0.0570445 0)
(1.01454 0.0599604 1.82724e-24)
(1.01211 0.0584165 0)
(1.02269 0.00730163 8.50815e-23)
(1.02235 0.00730626 0)
(1.02244 0.00704094 0)
(1.00737 0.0223823 -7.68801e-22)
(1.00564 0.0218776 0)
(1.00616 0.0236871 6.74365e-22)
(1.01472 0.000261377 0)
(1.01394 0.000176261 0)
(1.00841 0.0214197 -6.86176e-22)
(0.939067 -0.00208417 4.05345e-22)
(0.932252 -0.0374925 -9.15441e-22)
(1.01148 -0.00116272 5.68599e-22)
(1.01133 -0.0011313 4.39277e-22)
(1.06692 0.0620967 1.51948e-21)
(1.06758 0.0601349 -3.10633e-21)
(1.06902 0.062226 -2.54294e-21)
(1.02282 0.016295 -1.63037e-22)
(1.02261 0.016791 -4.37878e-25)
(1.02235 0.0162517 -1.54446e-22)
(1.0092 0.00316558 3.03323e-22)
(1.00838 0.00320078 0)
(1.00901 0.00420814 3.33587e-22)
(1.00976 -0.021399 8.50532e-22)
(1.01073 -0.0174859 0)
(1.00614 0.000146629 0)
(1.0058 0.000120459 7.70395e-22)
(1.01119 -0.00088157 4.502e-24)
(1.01106 -0.000867629 3.27321e-22)
(0.975909 0.0847833 2.2336e-22)
(0.972147 0.081562 1.93045e-21)
(1.01951 0.00910792 -3.47649e-22)
(1.01943 0.00884872 1.93161e-23)
(1.01651 -0.0278745 3.82545e-22)
(1.0474 0.0341575 2.26313e-21)
(1.04766 0.0329714 -1.45771e-21)
(1.04874 0.0338573 1.62823e-21)
(0.883569 0.26527 -8.57074e-21)
(1.02164 0.0637232 0)
(1.019 0.0650828 -2.46762e-22)
(1.01935 0.0620666 0)
(1.05841 0.102847 -2.4407e-22)
(1.01919 0.0129856 -2.52183e-21)
(1.01914 0.0135173 5.18087e-22)
(1.01863 0.0130851 -3.79802e-23)
(1.01701 0.0307328 -1.18585e-21)
(1.02024 0.0306383 0)
(1.00999 0.00167452 4.00235e-22)
(1.01 0.00165051 -1.59617e-21)
(1.00999 0.00152521 -7.38456e-22)
(1.0502 0.0157242 4.48128e-22)
(1.04944 0.0162343 -1.53284e-21)
(1.0494 0.0152066 4.1051e-22)
(1.06335 0.0293453 -1.01755e-21)
(1.06238 0.0304048 1.14195e-21)
(1.06656 0.0643896 2.01549e-21)
(1.06503 0.0623207 2.24499e-21)
(1.03999 0.0338567 1.35159e-21)
(1.04614 0.0317701 -5.7559e-21)
(1.0413 0.0267678 1.83419e-22)
(1.20873 0.161249 -9.11893e-21)
(1.20264 0.168149 -1.93633e-21)
(1.21054 0.169727 -9.43549e-21)
(1.01132 0.00392104 3.59516e-22)
(1.01141 0.00401446 5.59052e-22)
(1.0113 0.00393105 0)
(1.00811 0.00113952 5.5955e-22)
(1.00728 0.00165338 -6.46748e-23)
(1.00738 0.000600205 1.43684e-21)
(0.978243 0.13163 -5.59374e-23)
(0.978023 0.125322 0)
(0.972371 0.128626 5.50839e-22)
(1.01056 0.00846121 -3.54837e-22)
(1.00957 0.00946437 2.51043e-23)
(1.01136 0.00389629 3.798e-22)
(1.01124 0.00380567 2.34925e-23)
(1.0104 0.00280608 -6.95194e-23)
(1.01033 0.00270117 0)
(1.01083 0.00263975 5.11413e-23)
(1.01076 0.00267245 6.78985e-22)
(1.0107 0.00254413 3.50759e-22)
(1.08633 0.0480105 4.24906e-21)
(1.08742 0.0467386 1.48801e-21)
(1.08805 0.0484199 7.85685e-21)
(1.20365 0.153313 -8.89893e-21)
(1.2139 0.15249 0)
(1.12043 0.225277 8.18193e-21)
(1.13037 0.24635 -7.05324e-23)
(1.15543 0.244054 9.39567e-21)
(1.0333 0.0346809 -2.24708e-22)
(1.03638 0.0411183 -2.61374e-21)
(1.02236 0.0265509 1.50848e-21)
(1.03667 0.0274614 1.87671e-21)
(1.03739 0.0268379 6.0542e-22)
(1.03753 0.0281722 -5.35052e-22)
(1.05778 -0.0147746 2.36574e-22)
(1.06309 -0.00878724 8.26133e-23)
(1.05901 -0.00497135 -1.04988e-22)
(1.01248 -0.00122916 -1.84782e-24)
(1.01234 -0.00118504 3.8865e-23)
(1.01234 -0.0011933 3.63267e-23)
(1.02246 0.00784786 -1.69287e-23)
(1.02283 0.00783723 -9.51635e-23)
(1.03574 0.026974 1.57722e-21)
(1.01871 0.00503884 -1.38769e-22)
(1.01896 0.00504662 0)
(1.0189 0.00524279 0)
(0.997106 0.0122039 1.881e-21)
(1.00613 -4.39968e-05 -2.57421e-22)
(1.00735 -9.5655e-05 -4.74923e-23)
(1.0965 0.0288912 0)
(1.10189 0.00660542 0)
(1.10067 0.029276 0)
(1.01001 -0.00083844 2.96416e-22)
(1.01 -0.000808163 6.00604e-22)
(1.01015 -0.000850913 6.17558e-22)
(1.00899 -0.0847667 1.54577e-22)
(1.01856 -0.0764732 -9.98924e-24)
(1.01502 0.000557336 3.75465e-23)
(1.01513 0.000625429 0)
(1.01498 0.000611355 0)
(1.01786 0.00984525 2.48858e-23)
(1.01764 0.00966152 -4.97973e-23)
(1.01912 0.0141069 1.18726e-21)
(1.01847 0.0142465 2.6568e-22)
(1.01906 0.0147891 -2.56241e-22)
(1.13937 0.0560684 0)
(1.13664 0.0551337 0)
(1.13682 0.058201 3.27312e-21)
(0.816676 0.139389 -1.34795e-21)
(0.823178 0.151125 7.96349e-22)
(0.809729 0.152573 6.30664e-23)
(1.00144 0.0162741 1.14944e-21)
(0.999116 0.01609 1.73187e-21)
(1.02718 0.0337356 2.70184e-23)
(1.03001 0.0286547 1.68811e-21)
(1.01984 0.0112777 -8.27781e-24)
(1.01978 0.0110169 0)
(1.02001 0.0112665 0)
(1.00967 0.00189503 -1.01213e-21)
(1.00965 0.00191097 -1.60614e-24)
(1.01845 0.00502011 2.12144e-22)
(1.01852 0.00483205 -8.51941e-24)
(1.01213 0.00883595 0)
(1.01241 0.0100157 0)
(1.01128 0.00920155 0)
(1.05961 0.0722507 0)
(1.04881 0.091484 0)
(1.00983 0.0020906 0)
(1.00983 0.00205444 0)
(1.00974 0.00199659 7.6527e-23)
(1.01154 0.000659527 -4.51902e-23)
(1.01086 0.000515978 -4.65995e-22)
(1.01165 0.000631864 -6.99096e-22)
(1.04391 -0.00181884 -2.09458e-22)
(1.04664 0.00253361 0)
(1.0476 -0.00444764 0)
(1.02034 0.0110927 -6.66817e-23)
(1.02059 0.0112982 1.43597e-23)
(1.02053 0.0109972 1.49431e-22)
(1.00984 0.00203544 6.53877e-22)
(1.00976 0.00195569 -2.25834e-22)
(1.00986 0.00201898 6.55799e-22)
(1.14973 0.078956 0)
(1.15343 0.0768418 0)
(1.14977 0.07475 1.43109e-21)
(1.0121 0.00799574 -1.04992e-21)
(1.01296 0.008459 0)
(1.01072 0.0027023 -5.64156e-22)
(1.01067 0.00272909 -4.91608e-22)
(1.0106 0.00260635 1.40049e-22)
(1.01172 0.00066527 0)
(1.01173 0.000783707 -7.12749e-22)
(1.01203 0.000831051 0)
(1.00475 0.0205544 0)
(1.00381 0.0220131 1.93458e-22)
(1.01269 0.000543661 -3.19625e-22)
(1.01169 0.00048633 -8.15284e-23)
(1.0117 0.000488431 4.72598e-23)
(1.00362 0.0192446 -7.95065e-23)
(1.00557 0.0191524 0)
(1.01231 -0.00096023 0)
(1.01233 -0.000984432 -6.9515e-22)
(1.01247 -0.00100628 1.65614e-22)
(1.01143 0.000663726 2.27082e-22)
(1.01173 0.00074026 0)
(1.0219 0.0109217 -2.70447e-22)
(1.02169 0.0110708 7.50447e-23)
(0.948026 0.00382531 7.09302e-21)
(0.966383 0.00474684 1.04199e-21)