/*--------------------------------*- C++ -*----------------------------------*\
| =========                 |                                                 |
| \\      /  F ield         | OpenFOAM: The Open Source CFD Toolbox           |
|  \\    /   O peration     | Version:  v2012                                 |
|   \\  /    A nd           | Website:  www.openfoam.com                      |
|    \\/     M anipulation  |                                                 |
\*---------------------------------------------------------------------------*/
FoamFile
{
    version     2.0;
    format      ascii;
    class       volScalarField;
    location    "150";
    object      ddt0(k);
}
// * * * * * * * * * * * * * * * * * * * * * * * * * * * * * * * * * * * * * //

dimensions      [0 2 -3 0 0 0 0];


internalField   nonuniform List<scalar> 
18758
(
1.79025e-07
-0.00199865
-4.72355e-09
0.00728389
-0.00395716
-0.000383912
0.000195612
-1.13095e-08
4.19816e-06
-8.63284e-08
3.07259e-08
0.000447187
-6.82326e-09
-3.69839e-06
6.052e-08
1.5281e-05
-1.08755e-07
-1.82998e-08
4.78942e-08
-8.55972e-08
-0.00172314
-1.73177e-09
0.00113896
-0.00456794
-0.0003158
-1.0316e-08
-9.67079e-06
-0.00383014
-0.00873369
0.00276538
-8.36844e-07
-0.000764403
-5.14753e-09
1.21475e-07
-4.1839e-06
7.3537e-09
-3.74257e-09
-3.11838e-08
6.72514e-09
-2.12122e-07
-1.74262e-08
-6.01251e-08
-3.80838e-08
-8.60202e-08
0.00246874
-3.38036e-08
0.00119632
-3.12236e-08
-8.67826e-08
-3.20104e-08
4.33458e-07
0.000111012
-2.15135e-08
3.31314e-08
-0.00359858
0.00703973
-3.61208e-09
-2.30936e-05
9.38542e-08
-5.02489e-06
3.84949e-08
0.000228991
-1.48862e-06
-3.25248e-08
-2.47737e-08
-2.90285e-08
-2.41176e-07
-5.26687e-09
-3.81696e-08
9.80884e-05
-0.00170189
2.15707e-08
-3.24898e-08
-0.00480578
-3.59572e-08
9.3346e-08
5.24173e-06
-0.0037236
-7.29968e-07
0.000697917
0.00304989
-0.000877565
-4.14572e-06
-0.00142267
-2.04976e-05
1.14351e-07
0.00100624
-1.38872e-06
6.92513e-05
9.42606e-08
-0.00137365
9.37232e-08
-0.00103431
-6.90256e-08
0.00329607
-0.000953876
-2.54598e-05
-3.84487e-08
7.06877e-08
-0.00186768
-6.49069e-08
-0.00146948
-1.85251e-06
9.25088e-09
-0.000736283
-0.0124433
0.00206845
-0.00375111
-2.38314e-08
1.0018e-08
-0.00137412
-1.46822e-05
-2.62392e-09
-6.39791e-08
-0.0106342
0.00110279
0.000138091
5.30665e-08
0.000506571
0.00306858
4.37858e-08
3.47288e-08
0.00203703
-7.96122e-07
3.32947e-05
-0.00749613
-0.000627671
-0.000469092
-0.000809736
3.77041e-08
-1.49368e-07
-4.97173e-06
-0.000749824
-4.25421e-07
-2.76587e-06
-8.43039e-08
-2.97612e-06
-2.40706e-07
7.2953e-08
-2.84575e-08
-1.28271e-06
-1.53951e-06
1.46577e-08
0.00169103
-1.41226e-08
5.0259e-08
-0.00136722
-0.000492662
-7.50762e-07
-0.00727558
-0.0209532
0.00198158
1.13413e-07
-3.13949e-09
0.00216222
1.0794e-07
0.000599202
-3.49636e-08
2.11334e-09
-1.24752e-09
1.78834e-08
-4.45908e-06
-0.000531668
3.79005e-09
-3.41519e-07
-0.00757547
5.60921e-08
0.00221951
-3.87829e-06
-0.0013436
0.00126368
-1.68463e-08
-0.000763436
-0.00390823
-4.32584e-06
-0.00273763
-0.0078352
-3.99115e-08
-7.26559e-07
-9.4393e-08
-2.12435e-09
0.000512932
0.00117041
-2.80357e-08
1.97671e-07
5.31161e-05
8.63083e-08
0.00114501
-3.67069e-08
6.25278e-08
-2.53795e-07
-0.00011828
-1.13706e-07
-5.70117e-07
-1.34229e-07
-1.23486e-06
-8.76106e-08
-5.79576e-07
-1.74999e-09
-3.76161e-08
1.61042e-06
-5.13978e-08
-2.63684e-08
-7.29083e-07
-8.01061e-09
-1.51819e-07
-1.88316e-06
-2.02863e-09
-0.00179617
-1.036e-07
-1.5314e-08
3.46885e-08
-1.49681e-08
-7.86452e-09
1.10296e-06
0.00251785
3.60312e-08
-2.18698e-06
-3.2953e-08
-0.000243578
-1.50435e-08
-3.12639e-08
-2.95262e-06
-0.00179652
1.04609e-05
-1.8683e-06
-2.33645e-08
-3.14049e-07
-1.7116e-08
-5.94028e-07
-3.02456e-08
-1.19809e-06
0.00132571
1.00122e-05
-6.24633e-09
8.06437e-08
-1.71533e-08
-3.14327e-08
0.00189518
2.07365e-08
2.63614e-08
0.000731018
0.00279984
1.02525e-07
-0.00783238
-0.0010467
1.13291e-05
6.97254e-09
0.00317483
-5.08963e-08
6.14543e-09
0.00226186
1.12981e-07
-4.43902e-08
4.19847e-08
2.65836e-08
-0.000300868
8.49975e-06
-5.78629e-09
-2.55934e-07
1.18462e-08
-1.18327e-06
-2.89736e-08
-7.18711e-07
-9.39663e-08
-1.99171e-06
0.000834576
-3.41721e-08
-2.01244e-08
1.91009e-06
-2.28084e-08
1.89519e-07
-6.29148e-07
-0.00249988
0.000332027
3.51539e-08
1.73892e-07
-0.00219821
0.00944266
-1.19531e-07
-1.1768e-09
4.48024e-08
2.35534e-08
1.78039e-08
-0.00342576
-0.000221051
0.0191823
-0.00103704
0.00132194
-2.79362e-08
-4.31992e-09
-1.64557e-07
0.00277634
4.48779e-09
6.07216e-08
-3.34964e-07
2.41658e-08
0.00287686
4.46648e-08
0.00212458
-0.0012282
-3.32228e-08
0.00403254
-7.30159e-08
-3.42992e-08
-2.87799e-08
1.91888e-08
9.05406e-08
5.87165e-09
0.000428268
0.0170628
4.01435e-09
0.000257059
0.00298352
7.68694e-06
-3.99619e-08
6.69849e-08
0.0113628
9.67711e-08
-2.94363e-08
9.69078e-10
-1.92823e-10
5.00875e-06
5.18614e-09
3.9909e-08
1.68984e-08
-8.77489e-08
7.65496e-08
1.01468e-08
-1.43948e-09
-0.000349557
-6.06314e-08
4.93458e-07
0.00608744
-1.85813e-08
-1.1281e-07
6.43707e-08
0.00177817
0.00550687
-2.14419e-08
-1.1809e-08
-2.09567e-08
-8.01912e-08
4.40093e-07
9.09921e-05
3.31383e-08
1.71636e-08
-2.76023e-08
2.74711e-05
7.51412e-07
4.27302e-06
-2.49585e-07
1.22879e-07
-9.10798e-05
2.17435e-07
4.92802e-08
-5.01287e-08
0.000327397
-0.00204964
-0.00039579
-6.79633e-09
-5.83942e-08
-0.000930564
-0.00203647
-1.09767e-07
-2.82996e-08
-1.87286e-07
5.07362e-08
1.21757e-07
-0.00892054
-0.00512636
-2.95556e-06
-9.00514e-08
0.000930706
8.54382e-08
-5.27984e-08
8.02367e-08
-4.56376e-09
-3.18102e-06
5.60181e-08
0.000290876
-6.33947e-07
4.10491e-08
-2.61382e-09
0.000453917
-2.78226e-06
5.63601e-06
8.6163e-08
-2.5962e-07
-7.2047e-09
-8.24533e-08
4.13333e-08
-3.32723e-08
-0.000418714
-0.00184243
-0.0061648
0.000196648
-1.27795e-08
-1.07747e-05
-0.00156945
1.86415e-08
-2.52107e-09
0.00781747
-2.24863e-08
4.60335e-08
-1.46835e-09
-3.57085e-06
3.06969e-08
-1.11239e-07
-2.66141e-07
0.00166189
-2.97255e-09
-0.00380239
-2.53854e-07
-3.64336e-08
1.85583e-07
9.49805e-08
-1.2061e-08
2.87519e-08
-9.861e-07
3.62171e-07
-0.000152924
3.31372e-08
-1.82718e-08
-1.75125e-07
0.00557699
0.0193779
0.00119756
-2.78021e-06
-1.09397e-07
-3.19505e-08
2.61091e-08
-1.28664e-08
-2.78581e-06
-1.52775e-07
1.93767e-07
-1.25589e-07
1.14086e-07
0.00276634
-1.85921e-06
9.52384e-08
3.11476e-08
4.96921e-05
-8.24211e-08
-0.00421797
7.01702e-08
-1.32818e-09
-0.000105364
-9.24468e-08
3.24865e-09
-0.000230132
-4.57206e-06
-1.9005e-07
-0.000404489
9.3552e-08
-5.70861e-08
-8.18171e-06
0.000555259
-1.12266e-07
1.58132e-07
-3.8612e-06
0.00110201
0.00052579
-3.21208e-06
2.52657e-08
-2.4424e-08
-5.61597e-08
-2.93818e-06
-7.88425e-08
-0.000493934
-2.23616e-07
-0.000545083
1.95363e-07
-1.0844e-06
-3.22845e-08
-0.00413224
-3.48151e-08
-0.00166295
7.96972e-08
7.34508e-06
-1.44824e-08
0.0131928
1.07161e-07
-3.41973e-09
6.31297e-08
-1.39809e-09
0.00832517
-0.00134626
-0.0112822
-2.0097e-07
1.81424e-07
-4.12018e-08
-1.9247e-09
-3.55112e-10
-0.000505413
6.4463e-08
-4.3353e-09
-2.05606e-07
-8.23181e-09
1.03974e-07
-4.86683e-08
-2.88277e-09
3.89051e-08
-9.28397e-08
-6.9478e-08
1.03522e-07
-0.00769501
5.87919e-07
-9.34198e-08
-4.97559e-08
-1.69033e-08
-2.48817e-05
1.9737e-08
-4.98479e-08
0.000212353
0.00101126
-9.88998e-07
0.0140851
-1.14971e-07
-4.33592e-08
0.00096694
5.36586e-08
-0.000223404
1.63421e-06
-6.17646e-09
-0.00706753
-0.000174445
-2.29787e-07
-2.08682e-08
-2.68301e-09
0.0022942
-2.48177e-08
-5.25647e-08
6.64651e-08
9.58364e-08
5.22724e-08
-3.11545e-08
-3.66592e-10
0.000946844
1.14446e-07
-0.00756285
2.57185e-08
1.45383e-07
-0.00474357
-2.61085e-08
-3.75317e-08
9.83847e-08
-1.93727e-09
-1.24962e-07
-2.07366e-08
-9.97843e-08
-1.54153e-06
-4.50166e-06
-1.94478e-08
0.00161061
-0.00326617
-7.93516e-08
5.69959e-07
-0.00114943
-7.94545e-08
5.2737e-07
1.36959e-07
-0.0017424
1.12382e-07
-2.18606e-09
-1.68095e-08
0.00146438
-7.60919e-08
1.10282e-06
-3.36178e-06
0.000172836
1.00654e-07
7.73081e-08
-6.37425e-08
0.000412428
-1.17933e-07
-3.20727e-05
3.04814e-08
0.00301462
-1.31434e-07
-3.20962e-08
-8.5741e-10
-7.41921e-09
-0.00340948
0.00357375
8.14772e-08
-1.4515e-05
7.91966e-08
0.0174242
-0.00177414
0.00758198
-0.000331158
1.21125e-09
-0.00406884
-5.29493e-07
-8.28663e-08
-2.29741e-07
-0.000566685
-0.00169962
1.19082e-07
5.04846e-09
-6.94888e-08
-8.91552e-09
-0.000461889
-1.56819e-06
-0.00374391
-0.00162648
6.84413e-08
-1.79564e-09
-4.33648e-07
-1.43031e-09
1.78597e-08
-1.91552e-08
7.12288e-08
-1.71784e-06
-6.6314e-08
4.1834e-07
-0.00360325
1.42972e-07
-1.27105e-08
-8.3175e-08
-2.10116e-07
-0.00208534
5.31867e-09
-0.0136934
-3.19153e-08
7.98941e-08
-6.17566e-06
0.0172657
-1.17761e-07
-2.67356e-08
7.60279e-07
-0.00155731
4.27276e-06
-6.86186e-09
-0.00170209
-0.001062
-0.000735357
-2.99752e-08
0.000110272
0.000369591
0.00115559
6.44108e-08
2.31974e-09
-0.0106533
-2.70276e-10
-6.0409e-06
-0.000584258
3.4837e-06
0.000201534
-1.8574e-06
-0.00202624
-9.54724e-07
3.53083e-08
9.7564e-10
0.00126623
0.0154258
0.000315932
-0.00391787
5.17507e-08
-5.06193e-06
-5.48132e-10
-2.36215e-08
-1.9977e-06
-1.32874e-07
-4.353e-09
-8.59536e-08
-6.57429e-06
0.000832194
0.00127369
0.000354724
4.29083e-08
-5.88786e-08
-9.53926e-06
2.2515e-08
-2.03401e-08
-1.78466e-08
2.4048e-07
-9.76438e-07
-2.03143e-08
-1.82155e-06
2.69229e-08
4.81397e-08
-9.13331e-09
-0.00397737
1.19329e-08
-1.86957e-09
-3.39043e-07
-1.69072e-07
-2.14166e-08
-4.93447e-05
5.25612e-08
1.24629e-08
1.05309e-08
-2.58432e-08
1.84642e-07
-1.2967e-07
0.0240918
-8.21415e-08
-3.42585e-08
0.0168786
-2.0896e-08
0.010488
6.52662e-07
-1.66374e-06
0.000959365
-0.000629473
-2.40221e-08
-0.00145354
-0.000813701
-1.97799e-08
-0.0021107
-1.25714e-08
-6.09167e-09
-1.449e-08
-1.88002e-08
-1.19116e-06
-0.00202919
-3.48536e-08
-0.000278516
1.82569e-09
5.36868e-08
0.0159136
-1.32933e-08
-0.00218303
-1.39477e-07
4.30674e-08
6.59834e-08
-9.25893e-09
-5.97411e-07
6.22897e-07
0.000957774
2.22738e-08
-0.00038291
-3.82267e-07
-1.73568e-08
-3.77341e-06
0.000390711
-0.000915422
1.70326e-06
-4.31637e-07
-3.8627e-07
4.97333e-08
-1.50871e-06
-1.35924e-07
0.00701099
-7.86611e-09
0.000136343
1.24302e-07
7.78237e-07
-7.63296e-08
-1.48856e-08
-0.0104092
-9.51183e-10
1.90708e-08
-0.000148421
-1.36801e-07
-8.99981e-09
-2.01998e-07
-1.65179e-08
2.20047e-06
0.000637806
0.0140337
-0.000151138
-2.26567e-09
2.45343e-09
-0.00194696
-4.03282e-08
0.000192004
-2.1937e-06
4.61131e-08
1.7236e-10
-3.517e-08
-6.6278e-09
3.56044e-08
1.70875e-07
-0.000570949
-6.71531e-07
1.70712e-06
1.78077e-08
1.16471e-09
-7.40546e-07
-0.00857284
2.2214e-08
-1.99236e-06
1.20914e-07
-0.00166536
-2.34817e-08
0.0024905
-8.67682e-09
-0.000893237
-7.96005e-10
-1.55531e-06
-8.05372e-08
2.18303e-07
4.61725e-07
-1.56323e-08
1.21728e-08
-2.95409e-08
0.00737094
-0.00079726
1.13829e-07
-0.00226071
7.77707e-08
-1.42391e-07
1.11434e-07
-2.35399e-05
0.000605616
1.28435e-07
-1.39202e-08
1.58092e-06
2.36437e-08
7.75056e-08
1.18117e-07
0.000663525
0.000459123
-0.000123723
0.00961885
2.12821e-06
7.94307e-09
3.07493e-08
0.0187033
-6.69057e-09
-0.000168294
1.46481e-07
3.0682e-09
-0.00332666
-0.00111068
-2.12073e-09
0.000974646
-4.3893e-08
-5.90338e-07
2.66236e-07
0.0150765
-0.000684449
-0.000741753
-1.17317e-08
-6.93118e-09
-0.00339875
2.63876e-08
-4.83928e-08
1.36417e-07
2.64751e-08
0.0121606
8.44163e-06
-3.99436e-07
0.000623078
-2.62012e-07
-3.80891e-06
1.22264e-07
-1.45068e-08
-2.10938e-08
2.27579e-09
0.0004358
-0.000714693
-3.52768e-06
-6.77312e-10
-1.14105e-08
4.86446e-07
-4.79028e-08
-1.338e-08
-1.3959e-07
0.00454128
-0.00071899
-1.75318e-06
-4.51614e-05
1.5623e-06
-4.71516e-08
-4.26698e-06
3.00903e-08
0.000699693
-0.000727716
0.000795884
-0.0142029
7.66161e-08
1.71355e-07
0.0265229
0.000865972
0.000662116
-5.04791e-07
-2.02959e-08
0.000746777
-6.94432e-09
-1.99174e-05
2.70179e-05
-2.94416e-06
-7.84897e-09
-3.93012e-08
-7.65788e-08
-0.0018421
-7.87324e-06
-5.70049e-07
5.15127e-09
1.96081e-07
-2.38773e-07
0.0403117
-2.24785e-08
-3.95745e-05
3.97984e-08
-6.61573e-08
4.13562e-06
1.9808e-08
-3.54736e-08
-7.1783e-08
-1.27415e-07
-1.52099e-08
-1.3549e-07
-2.97371e-08
0.0135461
5.25069e-06
0.000151357
-2.67297e-08
-3.65645e-08
-1.37289e-08
-1.13967e-06
-1.68533e-05
-7.59674e-08
3.76952e-08
1.25758e-07
-6.78105e-06
-2.96896e-06
1.24365e-07
-0.000772417
-2.56929e-06
9.46468e-08
7.01172e-08
0.0127906
8.68011e-05
5.77095e-08
-3.4421e-08
0.00478524
3.51346e-10
6.23752e-08
-4.21152e-08
8.19839e-05
0.00221491
1.18826e-09
4.57914e-08
-0.000574294
7.01158e-08
-0.00618306
0.00123876
-6.59106e-07
1.09254e-08
3.98789e-09
-4.17962e-08
-9.77691e-09
0.00072081
0.00216975
3.6321e-07
-9.64068e-08
-0.00237892
3.89692e-09
6.09858e-08
-0.00637696
-4.00528e-08
-0.00414362
-9.43469e-09
-7.67335e-08
-2.55642e-08
4.06655e-08
-2.22538e-08
-6.0198e-10
0.00125818
-3.23953e-09
3.03767e-09
1.67786e-06
-8.71273e-08
-2.27509e-08
1.8695e-08
-1.8075e-08
-2.87484e-09
-2.01019e-06
-1.53887e-08
-8.79122e-08
0.00245869
-6.286e-07
4.20512e-09
-1.31502e-05
-1.95433e-06
5.6639e-08
-1.16445e-07
-9.44331e-07
-0.011346
-4.77653e-09
-3.45295e-07
-1.6047e-08
2.07121e-09
-3.56069e-08
2.94081e-07
-1.15355e-08
-3.21377e-08
4.21231e-08
1.24273e-07
-4.62572e-07
0.000692261
-2.04836e-05
7.16915e-08
2.17608e-09
-1.34903e-07
1.25739e-06
2.05991e-08
0.00124304
-2.51907e-08
2.37509e-08
2.89229e-11
-7.73754e-08
-3.96397e-06
-1.42982e-09
1.05116e-07
-4.34807e-09
-2.24157e-06
3.87249e-09
5.19174e-08
0.00198403
-1.62217e-09
6.03792e-09
3.98951e-09
2.12464e-06
3.254e-09
-7.09819e-08
0.0149321
0.00449705
7.33116e-06
-7.5499e-07
-0.00116523
1.52898e-07
-1.4801e-08
6.09727e-08
0.000256699
4.73047e-08
-9.64599e-07
-1.86949e-06
-3.28652e-08
-6.34116e-08
3.77819e-08
-8.5351e-08
-1.32531e-07
-3.40392e-08
1.18952e-05
-0.00246408
-2.51719e-08
1.13207e-09
-0.00711326
-2.12006e-07
0.000306095
-0.000544478
-7.38382e-07
5.0937e-09
-1.20676e-08
-2.71162e-09
-7.07012e-07
4.45532e-09
-1.82902e-08
0.00204336
2.66501e-06
3.28998e-07
5.21462e-08
-7.05409e-08
2.45942e-06
-1.77414e-09
-1.02283e-07
-2.73773e-08
-1.71596e-06
-1.21084e-06
-7.79107e-08
2.14534e-08
1.73023e-08
4.15356e-09
-1.21458e-08
-1.06922e-07
0.00411027
-4.1167e-08
8.32418e-08
-2.2246e-08
5.63225e-08
0.000344545
0.010159
0.000471554
4.47858e-08
0.00121162
3.73541e-09
-1.58996e-08
-2.04545e-09
1.09763e-08
3.68014e-09
-4.96067e-09
8.45665e-08
-6.88524e-07
-1.35812e-08
-2.01019e-08
6.09205e-08
-9.14485e-10
2.85622e-06
-0.00668466
-0.000295218
-4.51987e-08
0.00113065
9.9044e-08
-1.88831e-09
1.66364e-07
-5.31805e-08
-1.80852e-07
-7.45366e-08
1.45846e-08
0.00217675
8.62769e-05
0.00103544
7.51613e-08
0.000802988
1.75969e-08
-0.00139668
0.00237476
-7.17014e-09
-7.89474e-07
-5.59079e-07
-3.4673e-08
-1.61182e-08
0.000735417
3.66139e-08
-3.11906e-08
-8.59225e-07
-0.000727134
-9.04107e-09
1.04398e-07
-1.70347e-09
1.36378e-07
-2.92298e-06
-2.12101e-09
0.00246785
-1.9456e-07
-2.08947e-08
5.80519e-06
-3.7841e-08
-1.38192e-06
-1.97179e-09
-1.19259e-05
-6.59652e-08
-0.00358784
4.05804e-09
-2.71053e-08
0.00376793
-1.40424e-08
0.000126766
-2.24297e-08
-2.09004e-08
-0.0112988
0.00347871
-7.45283e-09
2.04006e-08
-3.19127e-08
-1.69879e-08
4.22976e-08
-3.46448e-08
-4.80429e-09
0.000291762
4.07335e-08
4.89764e-08
1.13541e-06
-5.9585e-07
-3.63172e-08
-9.25645e-09
-0.00368809
-4.88559e-07
-1.14072e-09
6.02156e-09
7.26586e-08
-2.8487e-08
-0.0082778
-3.43303e-08
-3.00835e-08
-8.1725e-08
-1.24522e-05
3.1892e-08
8.42368e-09
-0.00384367
1.32596e-07
-0.00189093
1.59026e-07
-1.00566e-08
-4.36261e-09
-0.00138821
2.56797e-07
-1.50332e-08
-0.0100268
-0.00123288
3.24012e-09
-0.00103613
3.08088e-07
3.14646e-08
7.05041e-08
1.46399e-06
7.17119e-10
0.00644819
-6.14351e-08
-8.18049e-09
3.60815e-05
-0.000339937
-1.39675e-05
-1.00087e-07
-0.000439509
-8.403e-08
-4.69047e-06
0.00296283
9.67031e-08
-0.000643875
-3.26392e-08
-1.17958e-07
2.63576e-07
0.00149455
-1.76458e-08
4.43347e-08
0.0112094
-1.65445e-09
-2.27623e-08
-1.63627e-08
1.86751e-08
2.99114e-05
1.14642e-08
-8.91808e-08
6.09414e-08
-0.00033542
2.11348e-08
-7.9482e-10
-1.94791e-07
-3.47921e-06
1.83977e-07
3.21014e-08
2.57644e-08
5.21754e-09
-6.6338e-09
-6.30935e-10
-5.48646e-08
-3.11749e-08
0.000420767
-1.25576e-08
0.00144194
-6.05931e-08
2.35302e-07
-2.30723e-08
-8.87766e-08
2.53341e-08
3.23015e-08
-0.00187409
0.000696844
-1.69287e-08
-1.87791e-09
0.000881053
-2.9999e-08
0.0043969
-6.60962e-08
3.00263e-07
-0.00236205
0.00022681
0.00501873
1.04855e-07
3.93341e-08
4.49325e-09
0.00892994
-8.32761e-08
-2.94282e-08
-1.2502e-06
-4.58391e-08
7.83657e-09
-1.0945e-08
0.000990455
-0.000553267
4.57753e-09
1.01736e-05
-0.00117989
1.39225e-07
-1.76537e-08
4.01851e-08
0.0100674
9.96278e-09
-7.42002e-07
-7.13018e-10
-1.4416e-08
5.0949e-08
-1.21413e-08
-1.32579e-06
5.09591e-08
4.65172e-08
-2.90714e-08
-2.9099e-08
-5.89532e-07
-3.44078e-08
-2.54783e-08
6.12958e-08
5.54126e-08
-9.26981e-06
0.00530387
7.57503e-09
-1.09499e-07
7.13291e-08
6.97046e-09
1.20793e-09
-0.000892857
9.05403e-08
-7.81779e-08
1.94922e-07
-0.00246479
-1.96509e-08
1.15957e-08
0.00241106
-1.2842e-09
1.47859e-06
-2.07007e-07
-1.59193e-08
0.00225388
0.00485029
-8.5572e-08
0.000512915
1.16058e-07
-2.48702e-06
1.48654e-08
-0.000736902
-7.16473e-09
0.00406158
-1.58228e-08
2.24989e-08
-0.00616565
-0.000188145
-1.46509e-05
8.64047e-08
2.3503e-08
-0.0086775
5.47978e-09
-0.00420688
-3.45961e-07
-1.55904e-08
1.77824e-08
-3.86789e-09
-2.80831e-08
-2.09565e-07
-0.00380098
-4.60227e-08
9.32613e-08
-2.22398e-08
3.04529e-08
0.001171
4.83965e-07
-6.07649e-08
3.39701e-09
2.36893e-08
1.0723e-07
-1.88971e-05
-4.71402e-09
-7.49026e-08
2.40375e-07
8.67472e-08
1.42361e-07
-3.95848e-10
-3.197e-07
-3.02542e-06
-7.63045e-09
5.05557e-07
-1.29326e-08
-3.6502e-08
0.000348464
4.47427e-08
-3.7567e-07
-0.00375476
-3.47514e-08
0.00104745
-0.000262942
-1.43603e-07
-0.00348092
2.51099e-08
0.0160731
0.00545695
-2.72886e-06
-7.88831e-09
0.00111055
-3.87165e-06
-2.24919e-08
-5.20339e-08
0.00116555
-1.25938e-07
-2.33397e-08
2.75357e-08
-1.44872e-09
-0.000859693
-1.44182e-07
4.27977e-08
-8.05792e-10
4.687e-08
-2.78027e-07
4.21286e-07
0.00120124
-2.13174e-06
-0.000472393
9.37828e-08
-8.30766e-10
1.42153e-08
-1.6346e-05
0.00371051
1.03337e-08
5.0355e-08
1.22486e-06
5.94739e-08
3.94869e-06
0.0178692
-0.000788288
5.538e-08
8.79662e-08
-0.0043785
-3.75664e-08
-0.00169377
7.80677e-05
-1.41927e-08
0.00674992
-1.42045e-07
-3.95313e-06
-2.53047e-08
-3.88354e-05
-9.0955e-09
2.32178e-05
-1.10787e-08
-2.65413e-07
1.04192e-07
-3.41587e-08
-0.00519461
1.12803e-07
8.95773e-08
1.19683e-08
-0.00227531
-5.76747e-09
-3.33476e-08
0.00108122
9.37728e-08
1.95192e-09
6.91749e-10
2.07568e-07
-7.17264e-09
3.97912e-09
-8.77904e-08
4.75269e-09
-2.4415e-08
1.10893e-08
1.6795e-06
-0.000517203
-2.18177e-06
-0.00179914
2.3631e-07
-7.28828e-08
7.71469e-08
4.55756e-09
4.85633e-08
-0.000824172
-0.0012513
-5.19722e-08
-7.92617e-10
3.5514e-08
0.00367357
-3.1964e-08
-1.23719e-05
0.000497586
0.00780384
0.00064209
-0.00154952
-0.00199006
1.13572e-08
0.0196936
-0.00160794
0.000843511
-1.00619e-07
2.08811e-08
3.36638e-08
-2.85286e-08
0.0188485
-3.33955e-06
-2.84452e-07
7.25515e-08
-0.000335664
-1.44332e-08
-5.44276e-09
0.0167751
-3.62695e-06
-9.1472e-08
-1.72235e-08
-1.19337e-08
-7.91336e-10
-0.0124387
0.00137967
0.00127863
0.00366984
-1.56574e-06
-0.000150055
3.34764e-08
-7.44893e-06
1.61213e-09
2.27057e-08
-5.30644e-09
-0.000610798
-9.24879e-08
-8.74046e-08
-0.00304558
0.000950006
-3.01873e-07
-3.22057e-06
-9.01435e-08
3.52872e-08
-0.000406078
0.00111406
0.0150801
0.000989768
1.76371e-06
0.000410229
-7.50965e-07
-0.000225906
-1.88841e-07
2.65992e-07
7.83929e-08
-9.64592e-08
4.07083e-07
-1.53399e-08
0.0129971
-3.17791e-08
-9.40381e-08
-4.45023e-08
-0.00421851
-1.24626e-07
4.27781e-09
4.26758e-09
-4.822e-09
-7.9588e-08
1.71372e-06
-0.000511482
1.14088e-07
-0.002268
-1.05379e-08
6.87642e-08
-9.1621e-07
1.13544e-07
-8.29733e-09
0.00513994
-7.59023e-08
-0.00333492
-2.34597e-08
-0.000245469
-2.27866e-07
4.01302e-08
-5.80214e-09
4.86476e-08
0.00124883
-0.00357982
0.000557027
-1.25859e-08
-3.22831e-08
-2.92011e-08
-0.0035249
-9.24609e-08
-1.07468e-08
-0.000167891
7.56878e-08
-6.35259e-08
-0.00145732
7.8414e-09
1.3877e-08
-8.95158e-09
5.86526e-08
1.34442e-08
4.50206e-08
-1.40099e-08
3.07577e-08
-1.59228e-06
4.45261e-08
5.07285e-09
0.00110745
1.08578e-07
-0.00344321
0.00103335
-2.33565e-08
0.00275707
-0.00346242
-7.5364e-08
-7.21597e-08
-1.0021e-08
1.79218e-08
-0.000502547
-1.15023e-07
-0.00682545
-8.60221e-08
-2.23203e-06
3.77352e-08
-7.06789e-08
-1.03406e-09
0.0106467
-1.79314e-08
0.000868621
6.13815e-08
-8.1456e-07
1.93242e-07
-2.32888e-09
-9.92909e-09
-9.58025e-08
-1.52888e-08
-0.00641643
-2.52838e-09
-9.77954e-09
-2.09869e-08
-1.11951e-07
-3.33414e-10
-7.07666e-06
-8.93773e-08
-1.52502e-06
0.0108415
1.11426e-07
3.03443e-07
2.6646e-09
-0.00295737
-6.35554e-09
-1.2255e-09
5.65432e-08
0.000907012
-0.0011856
-7.55607e-09
5.10382e-08
-2.0125e-09
-1.16324e-08
8.95156e-08
-0.00253955
1.67307e-07
-5.40106e-09
-0.000191335
2.3828e-09
-3.11e-08
-1.13445e-07
-0.00237514
2.74553e-08
-0.00126224
0.0177257
2.6587e-06
-0.00114135
1.18869e-07
-0.00358384
-0.000356102
-3.57206e-08
1.95565e-07
7.38735e-08
7.26124e-08
-3.92833e-08
0.000370456
-8.10998e-07
-1.75003e-05
4.48143e-06
6.32512e-08
-0.0065871
2.8733e-09
0.012861
-1.52832e-09
0.0060576
0.0100848
5.89803e-09
-3.4977e-08
1.81237e-10
1.3234e-07
-8.42953e-07
-1.96473e-08
-0.000947619
1.09371e-07
3.20756e-07
-4.22302e-08
-6.89537e-08
-1.55907e-08
0.000155146
-3.29518e-08
-4.34859e-06
-1.04573e-07
3.85987e-05
-5.12456e-09
7.79683e-08
0.0128836
-5.46085e-09
-1.16501e-09
-2.95711e-08
-1.34872e-08
-3.0386e-07
-7.46885e-07
-8.49968e-08
-1.00566e-08
1.26875e-07
1.27463e-08
-9.66539e-08
0.00122248
-8.56027e-09
1.14565e-08
0.0033908
-6.8465e-06
2.6273e-08
-4.42673e-07
-4.25134e-08
3.13369e-09
-3.68579e-06
-3.49375e-05
-5.13458e-07
-2.12853e-09
2.45348e-08
-2.83748e-08
-1.78372e-06
-1.00635e-07
4.34448e-07
6.4611e-08
-5.41624e-08
4.42039e-09
5.52838e-08
0.00922972
-2.61228e-08
-0.000839473
2.35783e-05
-5.62938e-08
-3.97784e-08
0.0151177
0.00188528
-4.39325e-08
-2.38003e-08
0.002878
-1.03042e-07
-7.92759e-07
5.10235e-07
-0.000229639
1.4533e-08
-3.25842e-08
-4.97405e-09
-2.84968e-08
-0.00401073
3.77594e-06
-7.10638e-08
-2.79491e-08
2.45817e-08
-3.58447e-09
-2.13396e-06
5.56911e-09
-1.40827e-06
-8.06637e-08
4.99966e-08
-1.843e-08
5.10564e-08
-2.23772e-05
-5.11141e-08
0.00326137
-4.12594e-07
7.27911e-08
7.30406e-08
-2.05808e-08
7.35319e-08
0.00233692
-7.89053e-10
3.11641e-06
-1.36985e-09
-1.21684e-08
-3.05475e-08
0.00494857
1.04909e-09
-2.4089e-08
9.18061e-08
-1.37261e-07
9.05567e-08
9.93312e-08
-0.00182101
3.76001e-07
-4.41108e-09
5.45659e-07
-0.00128778
-9.23588e-08
1.03786e-07
-0.00118742
6.62596e-08
-9.13916e-08
0.00949803
1.54396e-08
-0.0010583
2.80603e-07
-1.13891e-08
-1.16977e-06
-5.95837e-08
5.57669e-08
4.36505e-08
0.00599397
6.09753e-08
0.00432655
-0.00156182
-0.000572991
4.12439e-07
-1.54509e-08
0.0187847
-1.20326e-09
-0.000222029
-4.92177e-08
-2.92761e-06
-8.30017e-08
-6.71277e-07
-2.02301e-08
-0.00597618
1.26287e-07
-2.40687e-09
-0.000511127
-0.00161601
-2.39158e-08
0.00590254
-1.88176e-08
-3.21258e-08
-3.96027e-08
0.000591301
-9.09353e-05
-7.2888e-08
-3.90427e-08
0.00315763
-1.87256e-06
-1.67813e-09
-7.94854e-08
-2.56675e-08
-2.41597e-09
-2.8217e-08
-8.25321e-08
0.000937914
0.0401165
-9.56685e-08
9.52744e-07
8.12747e-08
-2.75325e-07
-2.25632e-08
0.000602189
0.00118184
0.00117787
2.86999e-09
0.00150278
0.00127566
-9.18616e-08
1.05458e-07
7.86167e-08
6.97142e-07
-0.00133347
6.8009e-08
-2.59046e-08
-2.83449e-09
1.27517e-07
-3.13532e-08
-3.1183e-08
2.52163e-05
-6.10667e-08
-5.14004e-07
7.48294e-08
-2.84956e-08
-4.6127e-08
-7.88701e-09
-2.49116e-06
0.00251846
-7.54357e-09
-1.44485e-07
-1.20321e-08
-0.00384526
-7.77573e-08
-8.92346e-08
-0.00187914
0.00082455
3.5612e-07
-0.0029827
7.72687e-07
1.92017e-09
1.20607e-08
2.00328e-08
9.69781e-08
-2.94556e-09
-8.21355e-09
-3.86493e-06
-1.84862e-06
-0.000673683
-2.91982e-06
1.43498e-07
0.00134283
6.08486e-08
-5.26772e-08
1.1923e-07
0.00232821
0.00430469
-0.00634215
3.73369e-08
-1.29535e-08
-0.00181507
0.00113415
3.87099e-09
0.0161721
5.01553e-09
5.98324e-08
-7.03257e-09
-6.40419e-08
3.53669e-09
-8.68542e-08
-2.24656e-05
-8.22514e-08
2.34921e-08
1.15311e-08
-1.12868e-08
-2.96213e-08
4.65342e-09
-3.05964e-09
-1.60539e-09
-7.45068e-09
-0.00224216
-0.00228777
0.00114691
-8.3748e-08
-0.0144613
-2.30703e-07
-0.0024386
-0.014782
-2.10758e-07
-2.70841e-09
3.14717e-08
5.47986e-07
-8.28394e-08
0.0197299
-0.00148221
-6.6837e-08
-1.49099e-08
3.48418e-07
-0.00178865
-4.58715e-08
0.00391264
3.98246e-08
-1.69508e-09
-0.0017243
5.1838e-08
-7.40271e-08
-7.42024e-10
0.000262876
3.85027e-09
7.63214e-08
-1.68006e-06
-2.84948e-08
-6.77914e-09
-1.11018e-08
-1.54461e-08
7.06723e-07
9.27837e-08
0.00065609
-1.80489e-08
2.47964e-09
1.35716e-08
0.00125402
1.60594e-08
-3.34541e-08
0.00225684
-4.28791e-09
1.12343e-08
-4.72601e-06
-1.44722e-05
5.11759e-08
0.00212069
-0.00338897
7.268e-08
-0.00218891
-2.36752e-09
-2.31982e-08
-7.2888e-07
-3.44719e-08
0.00174582
-0.00155431
-6.08878e-10
2.51348e-07
6.58027e-08
0.00066067
0.00402861
-1.9788e-07
6.14163e-09
-0.000315179
-8.2206e-08
-3.04776e-07
6.48728e-08
-8.90701e-09
1.11801e-07
9.92296e-08
1.78128e-08
0.00370717
2.35311e-09
1.6327e-08
-5.96345e-08
-0.0020903
-1.46179e-06
0.0037167
-9.40591e-09
-5.41433e-07
-3.83436e-08
4.76571e-08
1.74607e-08
-4.67452e-09
6.7993e-09
4.07036e-08
-2.78346e-10
-2.40323e-09
1.67708e-07
-1.03539e-07
4.60924e-08
-3.11929e-08
0.000823494
-0.00019086
6.64004e-08
1.13794e-07
0.00699943
-2.95682e-09
-2.57777e-06
-0.000141459
2.42256e-05
-0.00261457
0.000653091
-0.00333359
-0.00223196
-0.000438465
2.32385e-08
1.02743e-07
6.56598e-08
2.26718e-08
4.7028e-08
-5.54447e-10
-6.01252e-08
-0.000488163
-2.96433e-08
-4.91248e-08
0.00235899
-1.47157e-08
-3.59716e-08
1.78226e-10
-1.6311e-08
2.1596e-08
-5.27693e-09
6.29328e-08
-0.000723704
0.000906047
-2.17052e-08
8.1877e-08
-6.05457e-09
-1.3698e-07
-6.31281e-08
-1.07726e-07
-0.0854216
-2.08343e-06
5.95131e-09
0.00240921
1.32016e-07
6.68359e-08
0.000827709
-1.59123e-08
6.98603e-07
2.07892e-09
-1.12253e-07
-1.22777e-07
0.00121669
9.54855e-08
-1.93594e-08
1.57043e-07
3.26116e-08
1.02302e-07
2.82918e-08
-0.00765694
3.84262e-08
3.32996e-07
-0.0080062
-0.00448151
-3.06635e-06
1.49848e-07
0.0195832
1.83189e-08
-3.04285e-08
1.469e-07
-0.00243771
5.98239e-07
2.20163e-08
-0.00178761
-2.05814e-08
0.00805868
1.43044e-05
-0.000614979
-1.35921e-08
-8.43809e-08
7.89975e-08
1.30567e-07
-3.10168e-08
-0.000181247
-0.0044559
-2.00071e-08
7.28265e-08
-1.43169e-08
-3.28118e-08
0.000513888
2.67251e-08
3.37076e-07
-1.00631e-07
-1.22799e-07
6.75215e-08
-2.97768e-10
-1.16736e-09
-5.95984e-08
-1.60602e-08
6.40948e-08
2.87573e-08
-4.57996e-09
-3.13217e-08
5.54662e-08
-2.30875e-08
-0.00077433
-0.00161597
-1.07886e-07
-4.16073e-08
6.23219e-09
-3.46861e-08
-1.21593e-08
3.20242e-09
-0.000884028
7.54712e-07
-6.3538e-09
-1.07621e-08
0.00300515
-0.00122874
-1.5912e-08
-5.41458e-06
-1.20518e-08
-3.90701e-08
0.000883564
-4.69959e-08
3.62242e-08
-2.23748e-09
0.000224096
-0.00431848
-2.17071e-09
3.31351e-08
-0.00211759
3.74314e-08
-0.0161173
-1.7497e-09
-1.10576e-07
-0.00268756
-0.0083147
1.21161e-07
-4.52895e-08
-1.37706e-07
-2.77237e-08
9.92846e-08
-0.00182061
-0.00144744
0.0164945
6.70701e-08
-1.0944e-07
-6.53628e-07
1.94286e-08
1.74577e-05
-6.18279e-08
-0.00149579
8.27187e-09
-2.06294e-09
3.11008e-09
4.46374e-08
1.98542e-09
-1.56917e-06
-0.00981887
-8.78184e-08
-3.53889e-08
4.14245e-10
0.000733678
-1.39851e-07
-7.85247e-08
-6.46179e-10
3.82217e-08
0.00104178
-1.54127e-08
-7.39231e-08
-9.5034e-08
-9.02886e-07
-2.98238e-09
-1.05873e-07
2.24773e-08
-1.34061e-07
-2.49017e-06
-1.23317e-08
-0.00787281
-3.92346e-05
1.46654e-06
-0.000161143
1.23962e-09
-6.41838e-09
-8.7276e-08
0.000828457
-7.25127e-08
0.00143364
-2.83801e-08
-0.00220081
4.23737e-08
7.09626e-08
8.92835e-08
-6.61096e-08
-0.00157207
-1.33134e-07
1.11679e-07
4.54819e-06
-2.86366e-06
3.47801e-09
6.5937e-09
-2.64685e-09
1.47336e-07
-0.00239857
-4.96183e-09
-1.67016e-10
-2.09488e-06
3.81195e-08
0.000416494
7.25822e-08
0.00172129
1.29605e-07
0.000593419
-0.000462309
5.99169e-08
5.05763e-08
-1.35603e-08
-3.56225e-10
-0.00440814
3.73566e-08
-2.58815e-07
-0.0143343
-1.93828e-08
-0.00156924
-5.30029e-08
4.82837e-08
-5.26452e-07
-4.48164e-09
3.54848e-08
0.00120022
0.000158338
-0.002073
9.46376e-08
-2.41093e-09
-1.30725e-07
1.65416e-07
6.04298e-08
3.01946e-08
-0.00125529
-4.58301e-07
0.00505622
7.08512e-08
-4.24283e-08
-0.0009315
2.07593e-06
-9.52923e-08
-3.96475e-08
0.000933125
-1.22757e-07
-0.00250598
7.85042e-08
-1.76487e-08
-1.88089e-08
-4.97436e-08
-1.83028e-08
3.25351e-08
-1.78316e-10
-1.12453e-07
-0.0114494
2.72812e-08
-0.0023584
-1.10574e-07
5.3629e-09
3.76244e-09
-7.33756e-06
-5.27405e-09
8.17097e-08
-1.91681e-08
0.00116874
0.000223856
-8.34526e-11
1.06092e-07
6.96447e-08
-4.92035e-09
-7.0551e-10
-1.30839e-08
9.22969e-08
-0.000293303
1.42471e-08
-6.27513e-08
-9.918e-08
3.04374e-08
0.00810035
-1.71076e-06
-7.31705e-07
-6.06558e-06
1.6713e-07
-4.90424e-09
0.0082595
-1.01542e-07
-1.63498e-07
3.8843e-07
-2.36825e-08
2.63128e-08
-6.76288e-09
0.00220388
-2.85897e-08
4.20381e-09
-0.00365822
-1.72091e-07
0.00121183
-3.56494e-09
-1.81182e-06
1.86015e-07
-8.00976e-08
0.0130622
-6.89283e-09
-4.37452e-08
-2.8786e-08
1.43079e-07
-1.27337e-09
-0.000446436
-4.00782e-08
-3.73701e-08
0.000969845
-3.13833e-06
-2.71946e-08
-3.10472e-05
-6.37315e-08
-0.00113122
-8.0822e-08
1.42808e-07
1.55007e-07
0.00789654
1.44497e-08
3.87773e-08
0.00277593
6.96981e-09
2.89352e-08
-2.25727e-08
-5.6767e-07
-0.00108743
-0.0129872
-9.42431e-08
5.39731e-07
-3.4934e-08
-6.20827e-06
-1.41225e-08
-1.09708e-07
-2.33295e-07
0.000627148
-4.63889e-08
-3.66875e-08
-1.09504e-07
0.000258395
4.64301e-08
-1.53818e-06
-0.00211771
-3.33941e-08
-0.0019975
-2.44049e-08
-1.03811e-06
2.76593e-08
8.96491e-08
0.00361445
-4.75917e-08
-3.9899e-09
-1.84652e-05
-0.0012716
-0.00261984
-3.15379e-08
0.00466887
0.000174634
3.69595e-09
3.61171e-08
-0.000891017
-1.35214e-09
9.13162e-08
0.0146933
-2.69289e-09
-1.26429e-07
-3.5711e-09
1.68281e-08
-1.75877e-06
-8.13504e-07
4.48251e-07
-0.0023775
-1.37273e-09
-6.80681e-07
-3.01714e-08