/*--------------------------------*- C++ -*----------------------------------*\
| =========                 |                                                 |
| \\      /  F ield         | OpenFOAM: The Open Source CFD Toolbox           |
|  \\    /   O peration     | Version:  v2012                                 |
|   \\  /    A nd           | Website:  www.openfoam.com                      |
|    \\/     M anipulation  |                                                 |
\*---------------------------------------------------------------------------*/
FoamFile
{
    version     2.0;
    format      ascii;
    class       volScalarField;
    location    "800";
    object      nut;
}
// * * * * * * * * * * * * * * * * * * * * * * * * * * * * * * * * * * * * * //

dimensions      [0 2 -1 0 0 0 0];


internalField   nonuniform List<scalar> 
18355
(
0.000541138
0.00711776
0.00651585
0.00672185
0.0034709
0.000453972
0.00672036
0.000459639
0.000972848
0.00732462
0.0067367
0.00485168
0.000352376
0.00543733
0.00294387
0.000948785
0.00200111
0.00672795
0.0029521
0.00737388
0.000641976
0.00169135
0.0140741
0.00401954
0.00251368
0.00672258
0.00672236
0.00106615
0.00229476
0.00415643
0.00484435
0.0029435
0.00672657
0.00673592
0.000282093
0.00054797
0.0013979
0.000132746
0.00104121
0.00673886
0.00534529
9.3453e-05
0.00606804
0.00374415
0.00679379
0.00013145
0.00044448
0.000812594
0.000436077
0.00672734
0.00672775
0.00622926
0.00672594
0.0110381
0.00672176
0.00672144
0.000450179
0.0030806
3.57252e-05
0.00025704
0.00672667
0.000514575
0.00672836
0.000248394
0.00595519
0.000602082
0.00100809
0.000264623
0.00672229
0.00178546
0.000332736
0.00672531
0.000213469
0.00672304
0.000479758
0.00672036
0.00843831
0.00257246
0.00196712
0.00639964
0.00672045
0.000282898
0.000628129
0.000266171
0.00672254
0.000328836
0.00610995
0.0073394
0.00273684
0.0118857
0.000308823
0.0067931
0.00672197
0.00672296
0.000289111
0.0136711
0.00575078
0.00138304
0.0114528
0.0014062
0.0018049
0.00159052
0.000346361
0.00370108
0.00380507
0.000370881
0.00208252
0.000117478
0.000750362
3.02319e-05
0.00488718
0.00115164
0.00672266
0.00118988
0.0105576
0.00671944
5.31248e-05
0.00879666
4.83587e-05
0.000317063
0.00827419
0.000265598
0.00311948
0.000372277
0.00514152
0.000112315
0.00530116
0.00672562
0.000209268
0.00672173
0.00672757
0.0050659
0.000605547
0.00165684
0.000172513
0.00672547
0.00377636
0.00673642
0.00579775
0.000216773
0.00311801
0.00657058
0.00177707
0.00488695
3.48333e-05
0.00198036
0.000588362
0.00275829
0.00200888
0.00229194
0.00383458
0.00176805
0.000335262
3.67769e-05
0.00049584
0.00672573
0.00471518
5.28583e-05
0.00672564
0.000489641
0.000591254
0.00104148
0.000337982
0.00157461
0.000382624
2.28501e-05
0.00515863
0.000422818
0.000328191
0.00672516
0.0113891
0.0130413
0.00673143
0.00673447
0.0010006
0.00397268
0.000748739
0.00672186
0.000190562
0.00198785
6.85395e-05
0.000315844
0.00106864
0.00671955
0.000378481
0.00442175
0.0135812
0.000321252
0.000831691
0.0013673
0.000452014
0.00597376
0.00168019
0.00436865
0.000146238
0.00165368
0.0018829
0.00124874
0.000715242
0.00673356
0.00221088
0.000763814
0.00303941
0.0115916
0.000416444
0.000532707
5.01127e-05
0.0112388
0.0125257
0.000782897
0.00368328
0.00329457
0.00785795
0.00192529
0.00672464
0.000297974
0.000867752
0.00788606
0.00672281
0.00182098
0.000377784
0.00640879
0.00024785
0.00404876
0.00516643
0.00208969
0.00983815
0.00417279
5.0222e-05
0.00352497
0.00672584
0.00211152
0.000706528
0.0100577
0.00137558
0.00672251
0.00672199
0.000106562
0.000807641
0.000229896
0.000799679
0.000314565
0.00458782
0.00672467
0.00190219
0.00268256
0.0014025
6.71084e-05
0.000521605
0.000580134
0.00229224
1.55338e-05
0.00116233
0.0128114
0.00250661
0.00647706
0.00257787
0.000451778
0.0038725
0.0067312
0.000600452
0.000301465
0.00304745
0.000585955
0.00671891
0.00672322
0.00672576
0.000325183
0.00016308
5.61838e-05
0.00131763
0.000759536
0.000313738
0.000351365
0.00263164
0.00205562
0.00624571
0.00672602
7.51787e-05
0.0067259
0.00672052
0.000336323
0.006725
0.00369869
0.00125703
0.000751146
0.00672912
0.000466648
0.00603738
0.00284239
0.00672101
0.00659266
0.000336023
0.0107796
0.0067257
0.00672586
0.00133546
0.000333585
0.000520548
3.58615e-05
0.00672557
0.00031788
0.00142616
0.00672565
3.65112e-05
0.000365887
0.000368522
0.000364529
0.00672234
6.86828e-05
0.00413365
0.00285682
0.000528365
0.00613066
0.000329115
8.93772e-05
0.00672194
0.00672187
0.000336868
0.000312752
0.0114884
0.00235013
0.000357903
0.00286723
0.0067783
0.000736712
0.00237681
0.000304267
0.000429233
0.00672132
2.01956e-05
0.00319649
0.000159378
0.00672197
0.000639412
0.00649175
0.00672568
0.00169977
0.000745748
0.0067233
0.000416321
0.000491111
0.00550885
0.00984372
0.00304245
0.00284693
0.00672814
0.0139525
8.94783e-05
0.00672213
0.00179446
0.000373958
0.000348316
1.71941e-05
0.0144022
0.00672208
0.00191204
6.11566e-05
0.00528203
0.00162372
0.000353503
0.000784637
0.00198022
0.000377524
0.0067259
0.000135898
0.000341159
0.000152622
0.00672069
0.00335072
0.00672967
0.00566355
8.71826e-05
0.0060104
0.000402505
0.00672924
0.000964881
0.00672212
0.000923005
0.00478477
0.00293751
0.00635267
0.00563822
0.00112663
4.80864e-05
0.00917858
0.0037689
0.00725596
0.000260239
0.00971119
0.00100478
0.000381885
0.00199124
0.0069163
0.00149582
0.00671954
0.00672236
0.00672435
0.00879541
0.0013295
0.00677273
0.000575308
0.000469826
0.00501648
0.00677978
0.00992639
0.00198057
0.00586052
2.3976e-05
0.00672386
6.14041e-05
0.00110544
0.000320408
0.000564733
0.00374901
0.00770814
0.00672502
0.0067269
2.48339e-05
0.00672573
0.00673066
0.0014373
0.00672344
0.00729233
0.000918644
0.000660007
0.00168924
0.00159238
0.00672677
0.0062254
0.000473096
0.0116777
0.00410042
0.0067283
0.00671965
0.00180875
0.00163595
0.000183235
0.00282767
0.00672584
0.00212775
0.000110727
5.3826e-05
0.000530981
0.00217131
0.0067259
0.000900379
0.000311621
0.0109902
0.00668497
0.00899694
0.000111092
0.000132995
0.00579618
0.00421362
0.00672007
0.00672968
0.00360355
8.81138e-05
0.00672448
0.00677015
0.00103549
0.000102041
0.000439417
0.0126523
0.000100946
0.00290421
0.0046101
0.00499489
0.00477832
0.00672039
0.00672601
0.00672601
0.00672535
0.00646027
0.00247387
0.0067228
0.000267025
0.000265697
0.00672015
0.00279778
0.000120574
6.03394e-05
0.00107397
0.00569153
0.00550067
0.000798729
0.000805868
0.00224775
0.00562181
0.00111779
0.000251999
0.00672384
0.0128371
0.00489995
0.00779973
0.00545536
0.00622158
0.000740745
0.000337742
0.00181462
0.000781121
0.001195
0.00680921
0.000173392
0.00672432
0.000900495
0.00825907
0.0136663
0.00801899
0.0023331
0.00055809
0.000617749
0.00980999
0.00164934
0.00030263
0.00217856
0.00508759
0.0067224
0.000187512
0.006725
0.00600888
0.000589107
0.0105362
0.00415122
0.00221636
0.00672736
0.000269984
0.000414759
0.000317343
0.00672382
0.000407149
6.38228e-05
0.0014389
0.00386658
0.000824839
0.00171377
0.00672584
0.000671752
0.000746526
0.00152542
0.000211124
0.0016332
0.00672332
0.00672821
0.00672586
0.000463968
0.00206095
0.000468981
0.00478981
0.00352529
0.00614937
0.006721
0.000238851
0.00133649
0.000155265
0.000725129
0.0113401
0.00226906
0.000322618
0.000524072
0.000771744
0.00290924
0.00636675
0.00451562
0.00157433
0.0014032
0.00557039
0.00629586
0.000399878
0.000414913
0.000318281
0.000139381
0.00630925
0.000376196
0.00672107
0.0116264
0.00676032
0.00285219
0.00673171
0.000232907
0.0110931
0.00059667
0.00672456
9.66536e-05
0.000207951
0.000286136
0.000302398
2.98405e-05
0.00156938
0.000334023
0.00347879
0.000577488
0.000815052
0.000127826
0.000111038
0.0011564
0.00672084
0.00287313
0.00445869
3.73385e-05
3.35598e-05
0.00584454
4.50827e-05
0.00842702
0.00207708
9.28487e-05
0.000887189
0.00437086
0.00652298
0.00673838
5.29498e-05
0.00144274
0.00614666
0.000497535
0.00672169
0.00154702
0.0016836
0.00162534
0.000406688
0.00649777
0.000309051
0.00101209
0.0007182
0.0104878
0.00540357
0.000398333
0.00729773
0.00672609
0.00180067
0.0135249
0.0067173
0.000365769
0.00672186
0.00373966
0.00144111
0.000895413
0.000298338
0.000918188
0.000367135
0.000653465
0.00234372
0.000575007
0.00467107
0.00245472
0.000840227
2.15932e-05
0.00240479
0.000235072
0.000330826
0.00565237
0.00672673
0.00441907
0.000731865
0.000783428
0.0067251
0.00116863
0.00847451
0.011384
0.000457803
0.00060872
8.80449e-05
0.00115374
0.00672234
0.00672477
0.000572321
0.000142287
0.00676208
0.00294433
0.000462362
0.000332217
0.00681205
0.0127615
0.00992318
0.00386541
0.00673728
0.000473252
0.00672521
0.00672472
0.00386867
5.0652e-05
0.00162298
0.00673094
0.000411826
0.000450946
0.00195455
8.89599e-05
0.00314496
0.00912815
0.000585545
0.0022015
3.51081e-05
0.0128312
0.00672074
0.0111751
0.006722
0.00672605
0.00175037
0.000209145
0.00936312
0.000638707
0.00430045
0.000387628
0.00939248
0.000106733
0.00115708
0.00755443
0.00317852
0.00674406
0.00282812
0.00407
0.00718315
0.00229186
2.78346e-05
0.000817895
0.000531635
0.00559942
6.38024e-05
0.00882229
0.00672092
0.0105184
0.00516591
0.00376847
0.00359958
0.000538314
0.00153191
0.00672526
0.00672462
0.000599372
0.00495136
0.00512214
0.0067196
4.45709e-05
0.00113678
0.00672503
0.0067223
0.000409883
0.000328417
0.00674214
0.000634337
0.00679582
0.000704334
0.0105461
0.000587146
0.00606055
0.00672665
0.000589185
0.000875875
0.000702319
0.00562598
9.35695e-05
0.000137844
0.0053848
0.00760165
0.000999134
0.00672018
0.000693997
0.00574418
0.00211439
0.00121043
0.00235306
0.00671861
0.00548078
0.00676213
0.00667331
0.000972086
0.00560879
0.000472152
0.000610328
0.0132834
0.00301109
0.0067219
0.00569579
0.013047
0.00225867
0.0130202
0.00857274
0.0104732
4.06577e-05
4.111e-05
0.00271099
0.00132017
0.006723
0.00672401
0.00301865
0.00192244
0.00672204
0.00182309
0.00767558
0.000722998
0.00273883
6.02754e-05
0.00671757
0.00110736
0.000413959
0.00672175
0.000686748
0.00162106
3.42223e-05
4.56769e-05
0.000356202
0.00997451
0.000120218
0.000965537
0.000123041
0.00824384
0.0138852
0.000589377
7.61238e-05
0.000366243
0.00261074
0.00536943
0.00672888
0.00672023
0.00158615
0.00641362
0.0067243
0.00672585
0.000356553
0.0067179
0.000220345
0.000228449
0.00672433
0.00191771
0.00493282
0.00536954
0.000370683
0.00672526
0.000275617
3.20889e-05
0.00249163
0.00335018
0.00672419
0.000114988
0.00671883
0.00132516
0.000158339
0.00623867
0.0123773
0.0028612
0.0144223
0.00215961
0.000425635
0.00672491
0.000569668
0.000442783
0.00672317
0.00245301
0.0145029
0.00580513
0.00210089
0.00266936
0.00133773
0.0067218
0.00672167
0.00672714
0.00466145
0.00673
0.0147216
0.000545172
0.000325765
0.00460673
0.00674012
0.00673039
0.0115927
0.0133722
0.000630093
0.00672284
0.00502297
0.00672409
0.00322383
0.000145697
2.74457e-05
0.000950193
0.000821011
4.80089e-05
0.000848221
0.000241082
0.00409335
0.00232426
0.0112658
0.000464428
0.00672485
0.00232663
0.0145286
0.00672479
0.00391894
0.000103193
0.00672529
0.000453718
0.00675148
0.000852753
0.000824439
0.00671774
0.00671988
0.00335034
0.00420997
0.0067245
0.000751234
0.00555368
0.002502
0.00672436
0.000137975
0.00100886
0.000908376
0.0127196
0.00151033
0.00672679
0.000843339
0.0028483
3.715e-05
4.23852e-05
0.00675361
0.000279857
0.00339579
0.011784
0.00674451
0.00191163
0.000135332
0.00624259
0.0067237
0.00671849
4.15824e-05
0.00626389
0.00286659
0.00439515
2.77211e-05
0.00672538
0.00672315
0.000742744
7.95925e-05
0.00463234
0.000683301
0.00250799
0.00157749
0.00478545
0.00676299
0.006726
0.00033489
0.00189809
0.00924623
0.00109489
0.0124668
0.00500508
0.00672746
0.000260286
0.0133434
0.0106293
0.00178146
0.00700371
0.00480216
0.000409294
0.00140554
0.000298163
0.00663724
0.00613477
0.00672947
0.000754705
0.00672304
0.00556443
0.00672559
0.00967288
0.00209264
0.00839066
0.000229299
0.0016714
0.0010095
0.00672041
0.00672008
0.00671739
0.00105594
0.000269068
0.00395617
0.000542589
0.000319367
0.0067228
0.00129923
0.000460288
0.000397088
0.0010458
0.00106052
0.000280234
0.00452759
0.000657327
0.00587226
0.000714895
0.000530134
4.39954e-05
0.00646402
0.00614699
0.000358311
0.000177791
0.00524185
0.00554994
0.000394304
0.00354075
0.00180334
3.24663e-05
0.000223506
0.000365729
0.000512191
0.00672267
0.000174101
0.00406826
0.000623662
0.00332237
0.00672292
0.0124552
0.000922124
0.00196424
0.00593573
0.00530446
5.94277e-05
0.0030884
0.00666221
0.000144249
0.00433789
0.00125846
0.00582167
0.00419271
0.00190435
0.00150955
0.000497537
0.00356578
0.0030822
0.000591647
0.00578439
0.00673334
0.00110329
0.00242364
0.00136161
0.000428406
0.00157137
0.00671714
0.00672417
0.00144538
0.0067365
0.00672217
0.0103673
0.0067258
0.002054
0.00672222
9.76356e-05
0.00672272
4.99889e-05
2.76829e-05
0.00316902
0.0103164
0.0067197
0.00142471
0.00466385
0.00892485
0.000491164
0.00671811
0.00672346
0.00258033
0.00639841
0.000361011
0.00931561
0.00269459
0.00469094
0.00672374
0.00155514
0.000544849
0.00210734
0.0067448
2.33704e-05
0.00846973
0.000956446
0.00367706
0.00330728
0.00672456
0.00672367
0.00910729
0.000455335
0.0010928
0.00101034
0.00403971
0.00867847
0.00204773
0.000222809
0.00672455
0.00138954
0.0055654
0.000378493
0.000332091
0.000896724
0.00672183
0.00422508
0.0012458
0.00671809
0.00674071
0.00319559
0.00599282
0.00306752
0.00896604
0.0018633
0.00708154
0.00244375
0.00115336
0.0137375
0.00671752
6.87526e-05
0.00112241
0.00671758
0.000919833
0.000495107
0.00672309
0.00520424
0.00672226
0.00450193
0.000587153
0.00672256
0.00158433
0.000359908
0.00672176
0.000386327
0.00118382
0.00933288
0.00246584
0.00968966
0.000380343
0.000367682
0.00878667
0.00755298
0.00679314
0.00190619
0.00672236
5.06069e-05
0.00434892
0.00027362
0.000791582
0.00672684
0.00440757
0.00672289
0.00181039
0.00141159
0.00280553
0.000995995
0.000446018
0.00672191
0.00672482
0.00672293
0.00477634
0.000330372
0.00494984
4.69393e-05
0.00672228
0.000672652
0.00299751
0.000288303
0.0006717
0.000350756
0.00100893
5.28096e-05
0.00674246
0.00671832
0.000211133
0.00672356
0.00672087
0.000558061
0.000315576
0.00672233
8.63327e-05
0.00672311
0.00539687
0.00672157
0.00609461
0.00821317
0.000466202
0.00118845
0.0024726
0.00966275
4.45818e-05
0.00672236
0.000250905
0.00087057
0.00389928
7.25268e-05
0.0108781
0.000297476
0.000680327
0.000355331
0.000329462
0.000141624
0.00691079
0.00672132
0.00672368
0.00601066
4.67793e-05
0.00203751
0.00229611
0.00508189
0.00237061
0.0126949
0.000434069
0.00153685
7.17495e-05
0.00672084
0.0011056
0.00028227
5.05291e-05
0.00672545
0.000336222
0.000286505
0.000550825
0.00913076
0.00672717
0.00536421
0.00672191
0.00014959
0.00671906
0.00671887
0.0074265
0.000149976
0.00117216
0.00434369
0.0093206
0.000818914
0.00734954
0.0092574
0.00672576
0.00673953
0.000646138
0.00744827
7.53067e-05
0.000831288
0.000295172
0.00033118
0.00596855
0.00238458
0.00527371
0.00389936
0.000975717
0.000109045
0.00804573
0.000438626
0.000379606
0.00587391
0.00672053
0.00695473
0.000253435
0.000110176
0.00672376
0.00672793
0.00672391
0.00671843
0.00671889
0.000382405
0.000155522
0.0117639
0.000529512
0.000359388
0.00208993
0.000401489
0.00861557
0.00286568
0.00154224
0.00671904
0.00462178
0.00875131
0.000227978
0.00036774
0.00474469
0.00252367
0.00176635
0.000673315
0.000805909
0.000121408
0.00674575
0.000501521
0.0101237
0.00672594
0.000498565
0.00268841
0.0132778
0.000378688
0.000484408
0.000718996
9.94059e-05
0.000104413
0.0074123
0.00523268
0.00031176
0.00678012
0.00672519
0.00692278
0.0034321
0.0145652
0.00672287
0.0067954
0.00487798
0.00451775
0.00430048
0.00167374
3.16667e-05
0.0018858
0.00672359
0.0144273
0.0023731
0.000539458
0.00671906
0.00562586
0.000341766
4.05255e-05
0.00672255
0.000393491
0.000202159
0.000665347
4.53116e-05
0.00672559
0.00672538
0.00672238
0.00667922
0.00167035
0.00010889
0.00672186
0.0100292
0.00672899
0.00672282
0.000323563
0.0048831
8.24999e-05
0.00124685
0.00671748
0.00407408
0.000394966
4.11776e-05
0.000120768
0.0024676
0.00180772
0.000453835
0.0003643
0.00486495
0.000297165
0.0097558
0.00671881
0.000277175
0.00433818
0.000304761
0.00038437
0.0132604
0.000452357
0.0025322
0.00338343
0.000597522
0.000834176
0.000130051
0.00483018
0.00033499
0.00674588
0.00378998
0.00060815
0.00156476
0.000267637
0.00671967
0.000361251
0.00336592
7.68877e-05
0.00532186
0.00621532
0.0067734
0.00674755
0.000155231
0.000297665
0.00536081
0.00513932
0.00495735
0.0067185
0.00266641
0.00353645
0.0141389
0.000474226
0.00672538
0.0127897
0.00672228
0.00279611
0.00674205
0.00133445
0.000121971
8.6201e-05
0.00066196
0.0046197
0.00672274
0.00672684
0.000414727
0.000112542
0.00672228
0.000739233
0.00409823
0.0141474
0.000863739
0.00817662
0.00928756
0.00462582
0.0031906
0.00671897
0.00036882
0.0067214
0.00252059
0.00415218
0.000356425
0.00466679
0.000355469
0.000288978
0.00936336
3.28964e-05
7.07055e-05
0.00872807
0.00672085
0.000216644
0.00197275
0.00672199
0.000581413
0.00864089
0.000317168
0.0065317
0.00942698
8.78039e-05
0.000934215
0.000987325
0.000933067
7.56579e-05
0.00153969
0.0045983
0.00672063
0.00556984
0.000312835
3.43438e-05
0.000316897
0.00671958
0.00319798
0.000265805
0.00671515
0.00157887
0.0004798
0.0015969
0.00672426
0.00672587
0.000219166
0.00672048
0.000270812
0.00204259
0.0067196
0.00672045
0.000758385
0.00671822
0.000154433
0.00194956
0.000138556
3.92735e-05
0.00462497
0.000694146
0.00121671
0.000119124
0.000895976
0.00103239
6.00257e-05
3.02878e-05
0.000422086
0.00614316
6.41021e-05
0.00276102
0.000307468
0.00614617
0.000493791
0.00671759
0.00672269
4.68277e-05
0.00359316
0.0111886
3.05308e-05
0.000947345
0.00886405
0.00151677
0.000311813
0.00360891
0.00350739
0.00672211
0.00672174
0.00671928
0.00243919
0.000318023
0.00152477
0.000331277
0.000379689
0.000420094
0.00303054
0.00195091
0.000320513
0.00672148
0.00672072
0.00222331
0.00279013
2.50457e-05
0.00672091
0.00672044
0.00672577
0.000127123
0.000271722
0.000525445
0.00261946
0.00204419
0.0146066
0.00929735
3.96306e-05
0.000357016
0.000530499
0.00247678
0.0148766
0.000326492
0.00292305
0.000100759
0.00673085
0.000428714
0.000580911
0.0025515
0.00671771
5.72189e-05
0.000513288
0.00824457
0.000333091
0.000308209
0.00242693
0.00130588
0.00462183
0.000382074
0.00196665
0.000355847
5.53854e-05
0.0063356
0.0107566
0.00281513
0.00672024
0.000978419
0.00218297
0.000270044
0.00535872
0.000475169
0.00672017
4.28436e-05
0.000245843
0.000817594
0.00265666
0.00370286
0.00247611
0.00672438
0.00041048
5.29475e-05
0.0147177
0.000475734
0.00672568
0.0148871
9.41618e-05
0.00518017
0.000171152
0.0064047
0.00149057
0.00672072
0.000237993
0.00101974
0.000420475
0.000462845
0.00673951
0.00486679
0.00672506
0.00152455
0.00157833
0.00135114
0.00671722
0.00351765
0.000906134
0.00672603
0.000957396
0.00672312
0.00120386
4.32148e-05
0.00195826
0.00148475
0.000770838
0.012565
0.00671852
0.00672301
0.000443009
0.000381763
0.00340386
0.000465985
0.00271225
0.00118785
0.0110693
0.00158475
0.00511095
0.0019082
0.000174365
0.0067208
0.00334258
0.00653331
0.00781514
0.00205432
0.0012019
0.00673742
4.31927e-05
0.00040603
2.93082e-05
0.0067251
0.000128854
0.00162403
0.000497925
0.00189733
0.00115156
0.00214145
0.00938205
0.00158743
0.0067383
0.00715643
4.24756e-05
0.00672148
0.00672235
3.09198e-05
0.00174752
0.000315384
3.95321e-05
0.00672185
0.00176183
0.00316954
0.000517748
0.00279576
0.00671463
0.000366968
0.00172937
0.000374272
0.00672782
0.00297166
0.00354638
0.00343146
0.00672197
0.00028047
0.00596524
0.000642854
0.00891798
0.00660922
0.00312924
0.00660913
0.00012249
0.000545371
0.00263285
0.000703699
0.000820496
0.00671831
0.000937339
0.00879849
0.000136561
0.00434731
0.00330612
0.00545277
0.00272453
0.0113616
0.00675934
0.00285886
0.00672029
0.000654878
0.0055222
0.000760575
0.000249535
0.00672259
0.000117135
0.00170594
0.000248871
0.000781199
0.00206582
0.000325163
0.0141571
0.000321938
0.00676694
0.000291477
0.000915714
0.000187448
0.000655099
0.0050184
0.000449044
0.000439886
3.75962e-05
0.000183669
0.00213753
0.0027142
0.0076346
0.00229182
0.00684959
0.000307958
0.000150115
0.0149526
0.000843251
0.00519598
3.60929e-05
0.00032997
3.72057e-05
0.000158215
0.000933283
0.00672256
0.00258002
0.000132209
0.00479176
0.000122026
0.000469486
3.62868e-05
0.00844169
0.00672168
0.000411773
0.00172115
0.000336576
0.000266561
0.00672378
0.00034117
0.000563441
0.000918354
0.00672356
0.00178695
0.000390517
0.00485595
0.00144227
0.00939834
0.00672543
0.00672061
0.00116438
7.70408e-05
0.0033779
0.00672295
0.00149607
0.000699215
0.000745696
0.00454603
0.00672376
0.00487836
5.00319e-05
0.00672318
0.0067232
0.000362086
0.0150984
0.00501776
0.00672566
0.000650083
0.00138338
8.51923e-05
0.00264225
0.00592823
0.00671834
0.00133928
0.000901128
0.014732
0.001963
3.94179e-05
0.000750283
0.0104519
0.0060369
0.00211397
0.00841616
0.000976416
0.00466045
0.00673529
0.000190427
0.0067302
0.0051421
0.00679775
5.03751e-05
0.00489675
0.00384359
0.000840019
0.0127278
0.00469005
0.012373
0.00366068
0.000687801
0.00672449
0.00131158
0.00016574
0.000362013
0.00235328
0.00672147
0.000938885
0.0126807
0.00672058
0.00077522
0.00672378
0.000375606
0.00312736
3.51776e-05
6.03709e-05
0.000443661
0.000313462
0.00279037
0.00944708
0.00121653
0.00671826
0.0140065
0.00885889
0.00525112
0.00673417
0.000430473
0.000707472
0.000432165
0.00671915
0.00505564
0.000232486
0.000385221
0.00674382
0.00671902
0.00176575
0.00312131
0.00188062
0.00222842
0.000530071
0.00382332
0.000188695
0.00187292
0.00372879
3.88237e-05
0.00671982
0.000655023
0.000352756
0.00105472
0.000330735
0.00518687
0.000859812
0.00820788
0.00277424
0.00671919
0.000215811
0.00672058
0.014279
0.00672245
0.0132134
0.00484508
0.00490265
0.00608941
0.000760448
0.00683722
0.00579211
0.000679944
0.00114644
0.000181161
0.00672078
0.000259886
0.0067189
0.0107437
0.000400526
0.0113239
0.00673282
0.00672583
0.000430185
0.00229488
0.0002862
0.00615545
6.38956e-05
0.000933018
0.00432599
0.00675487
0.00285145
0.00672324
0.00255893
0.00239036
0.00951686
0.000385895
0.00671902
0.00648203
9.87288e-05
3.04646e-05
0.00679229
0.000283809
4.42796e-05
0.00448183
0.00117025
0.0024412
0.00672278
0.00671976
0.00381792
0.000653757
0.0012765
0.0111401
4.14529e-05
5.29097e-05
0.0067259
0.00672334
0.00694998
0.00120677
0.00672331
0.00256197
0.0026325
0.01395
0.00368292
0.010562
0.000233017
3.31595e-05
0.00672589
0.0102348
0.00671765
0.00330953
0.00672169
0.00671818
0.000918225
0.00522251
0.00672244
0.0123432
0.00030201
4.20908e-05
0.00585739
0.00672175
0.00326578
0.00495567
0.000121688
6.05059e-05
0.0067287
0.000420756
0.00221873
0.0136239
0.00676811
0.00874733
0.00672875
0.0126597
0.00338271
0.00992889
3.4956e-05
0.000519149
0.000161601
0.00541639
0.000337174
0.0136568
0.001343
0.0097041
0.0067178
0.00672332
0.000130468
0.00532718
0.000250007
0.000403703
0.00671973
0.00644971
0.000793743
0.000116495
0.00671943
0.00038638
3.80362e-05
0.00672347
0.000771983
0.000541666
0.000376618
0.00676328
0.00672056
0.0107833
0.00772894
0.000924417
0.00684874
0.000201445
0.0067231
0.00646541
0.00312928
0.00672217
0.000366988
0.00672474
0.00673216
0.000654857
0.00984292
0.00196512
0.00423442
0.00118643
0.00525698
0.00293286
0.00299637
0.000517584
0.00671847
4.25959e-05
0.00672395
0.00314857
0.00674502
0.000101256
0.00496799
0.000400077
3.87908e-05
0.0140715
0.000115128
0.00488587
0.0013137
0.00955444
0.00865103
0.00891971
0.0067212
0.00256644
0.006399
0.0043642
0.000332694
0.00161072
0.00672164
0.00399914
2.11102e-05
0.00474237
0.003589
0.000467104
0.00672491
0.00341043
0.00136071
0.00778818
0.00399171
0.00672473
0.00038355
0.00673832
0.000733079
0.00665566
0.000115043
0.000310311
0.00816254
0.00671894
0.00596089
0.0144306
0.00378167
0.00672521
0.000637352
0.000727304
0.0016336
0.00113837
0.007965
0.013873
0.0003182
0.00585345
0.00139698
0.000354525
0.00671841
0.00671914
0.00132579
0.00672037
0.000250215
0.00384588
0.00814149
0.00672153
0.00122375
0.00279252
0.00134778
0.00962798
5.84123e-05
0.000145047
0.00263382
0.000127446
0.0109406
0.000433155
0.0100292
0.000617489
0.00283937
0.0140494
0.00780173
0.00110519
0.00672402
0.00140298
0.000432706
0.000335502
0.00673722
0.00291983
0.0067249
0.00671918
0.00672329
0.00970827
0.00100646
0.00671968
0.00247361
0.00672181
0.00633775
0.000532235
0.00662738
0.000284282
0.00671962
0.0143202
4.53347e-05
3.37793e-05
0.00131304
0.00122528
0.00672172
0.00104821
0.00273409
0.00035705
0.000240869
0.00247195
0.00672039
4.61591e-05
0.00156959
0.00672262
0.000415215
0.00672304
0.0108724
0.00671992
0.00481443
0.00292146
0.000938366
0.00671993
0.00319161
0.00672108
0.00678201
2.14817e-05
0.000860214
0.00119146
0.00028482
3.57919e-05
0.0134337
0.000344885
0.000901574
0.0020544
0.00939311
0.00789493
0.00685583
0.00113938
0.00673176
0.00511384
0.00117909
0.00675813
6.51548e-05
0.00134531
0.00303486
0.00265106
0.00672207
0.0051176
0.00478976
0.00672517
2.86457e-05
0.00683297
0.00822243
0.000173176
0.000948176
2.88841e-05
0.000952712
0.00494547
0.00490096
0.00140755
0.00672234
0.00679066
4.05392e-05
0.000683478
0.000110388
0.000250934
0.00908796
0.00672163
0.00653118
0.0101186
0.0067188
0.000393851
0.00031849
0.00282379
0.00136735
0.00705939
0.00672542
0.00112438
0.00418148
4.3381e-05
3.93038e-05
0.00210624
0.000775299
0.00036589
0.0125433
0.00671843
8.18073e-05
0.00897636
0.00671957
0.00080519
0.00656712
0.000485928
0.00260711
0.00467197
0.000271165
0.00315937
0.0021892
0.00155293
0.00764215
0.00054974
0.00236512
0.00205679
0.0035416
0.00611398
0.00218342
0.000141726
3.64931e-05
0.00163134
6.82602e-05
0.000107838
0.00672339
0.00039218
0.00340397
0.00672997
0.00177082
0.00672449
0.00183633
0.0130618
0.00031506
0.00672658
0.00355883
0.00554665
5.32754e-05
0.00205048
0.000799295
0.00211215
0.00730145
0.00179523
0.000709323
0.000311674
0.000152114
0.00488642
0.00675228
0.00672187
0.000111973
0.00786255
0.012825
0.011083
0.00671773
0.00052728
0.000288048
7.33464e-05
0.00832611
0.00672231
0.00603376
0.00192718
0.00269282
0.00676
0.00714881
0.00124349
0.00394057
0.00470661
0.000407221
0.0104418
0.000104072
0.00671895
6.51858e-05
0.00212838
0.00365533
0.00113501
0.00163127
0.00671919
0.0024675
0.00085377
0.00672618
0.000979476
0.00672313
0.000485796
0.00672565
0.0137876
0.00672441
0.00910362
0.00673473
0.000354445
0.00535388
0.00106945
0.00206295
0.00672179
0.00071313
0.00255826
0.00672389
0.00479666
3.37036e-05
9.92217e-05
0.00673837
0.000710485
0.00565477
0.00854403
0.000909096
0.000232349
0.000307044
0.00489448
0.000574161
0.00316667
0.00122052
0.000119836
0.00672226
0.00022068
0.00591295
0.00672201
0.0127173
0.000512103
0.00631332
0.00672799
0.00236889
0.00672752
0.0142604
5.45954e-05
0.00672566
0.00569816
0.000331641
0.00732936
0.00173831
0.0006868
0.00672193
0.000397917
0.00467115
0.00672242
0.000338018
0.00282191
0.000444214
3.86581e-05
0.00706846
0.00971125
0.00193549
0.00048803
0.00715777
0.00229047
0.00963471
0.00042076
0.00114009
0.000293663
0.000526597
0.00672942
0.000142879
0.00672618
0.0066415
0.00075523
0.00493526
0.000479945
2.31236e-05
0.000377112
0.0022877
0.00672115
0.000340712
0.00672207
0.00672433
0.000555534
0.0114282
0.00639201
0.00680101
5.902e-05
0.000428806
0.0031393
0.00289869
0.0004482
0.00439945
0.000171949
0.00347407
3.38206e-05
0.005163
0.00672219
0.00672497
2.41403e-05
0.00442296
0.000916538
0.0067222
0.00758634
0.00499637
0.00178904
0.00672512
0.000876789
0.0148305
0.00208063
3.19038e-05
0.000244813
0.00672718
0.00172372
0.00672544
0.00430924
0.00672042
0.00707688
0.0102368
0.0120195
0.00092692
0.000302456
0.00544899
0.00672073
0.00570664
0.00672331
0.00279553
0.00917557
0.000245243
0.0067186
0.00673973
3.20488e-05
5.3164e-05
0.000103268
0.00933405
0.000320316
0.00400752
0.00236126
0.0112347
2.37937e-05
0.001622
3.15627e-05
0.0135372
0.00122643
0.00286968
0.000842458
0.00672511
0.0016032
0.000331743
2.34008e-05
0.00672672
0.000455449
0.00672198
0.000123
0.00847004
0.00328846
0.00129193
0.00722434
0.008842
0.00330389
0.00880715
0.00418402
0.00286073
0.00672443
0.0138567
0.00672275
0.00255081
0.00672208
0.00293369
0.00672412
0.00372032
0.00301092
0.000379769
0.00673712
0.00925662
0.0035785
0.006716
0.00673817
0.000187986
9.50619e-05
0.000470831
0.00030587
0.00105997
0.0106519
0.0106128
0.0123791
0.000452582
0.00101907
0.000343211
0.000239108
0.0036652
0.0011664
0.0062614
0.00044398
0.000657925
0.00104514
0.00336822
9.18671e-05
0.000326934
0.00672364
0.000693843
0.00409724
0.0067218
0.000516132
2.93964e-05
0.00114345
0.000600398
0.00332925
0.00161442
0.0114985
3.2197e-05
0.00674802
0.000699263
0.00262129
0.000361053
0.00178945
4.13905e-05
0.0049705
0.000458954
0.000317354
0.00875512
0.00132014
0.0078436
0.000453922
0.00562534
0.00672288
0.00671983
0.00964699
0.00574814
0.00631115
0.0094625
0.00850641
0.000229205
0.000401056
0.000852172
0.00744824
0.00434866
0.00672076
0.000643347
0.000341342
0.000184273
0.00502458
0.00116503
3.87737e-05
0.00716717
0.00443116
0.000386118
0.0068498
3.91499e-05
0.000238277
0.000619744
0.00608381
0.00772745
0.00838637
4.16454e-05
0.000745224
0.00483344
0.00277415
0.00129025
0.00036651
0.00420134
0.00661231
0.00278264
0.000117868
0.00672873
0.000377965
0.00061233
0.0114169
0.00672179
0.00144345
0.000259507
0.00560256
0.00672157
0.00109326
0.000191107
0.000534337
0.001146
0.00676084
0.00263716
0.00605887
0.00672373
0.000331486
0.00929528
0.00265718
0.00031989
0.00298622
0.00182978
0.00672552
0.00926941
0.000492183
2.45352e-05
0.00131155
0.00717879
0.00674321
0.00671601
0.00672636
0.00672067
0.00671975
0.00902092
3.11256e-05
0.00711454
0.00672415
0.00663764
0.008873
0.00129916
0.00857779
0.000410095
0.00678441
3.59092e-05
0.000298062
0.00087028
0.00586393
0.00168705
0.000544135
3.31976e-05
0.0004102
0.00672252
3.41392e-05
0.00671925
2.84587e-05
0.00260152
0.000317715
0.00673137
0.00387005
3.73543e-05
0.00672584
0.00515444
0.00672263
0.00588316
0.0120149
0.000466763
0.000734376
8.71475e-05
0.000634832
0.00682433
0.00676835
0.00511609
0.000280184
0.000554834
4.16808e-05
3.35549e-05
0.00196884
0.000560248
0.000203811
0.00318656
0.000345139
0.00633942
0.000610881
0.00523373
0.00214199
0.0067247
0.00180908
0.000215274
0.00710387
0.0067213
0.0072694
4.57965e-05
0.00559871
0.00364786
0.00672571
2.7465e-05
0.00971711
0.00339475
0.00672613
3.83772e-05
0.00994242
0.00098856
0.000367702
4.21338e-05
0.00863162
0.000925214
0.00108343