/*--------------------------------*- C++ -*----------------------------------*\
| =========                 |                                                 |
| \\      /  F ield         | OpenFOAM: The Open Source CFD Toolbox           |
|  \\    /   O peration     | Version:  v2012                                 |
|   \\  /    A nd           | Website:  www.openfoam.com                      |
|    \\/     M anipulation  |                                                 |
\*---------------------------------------------------------------------------*/
FoamFile
{
    version     2.0;
    format      ascii;
    class       surfaceScalarField;
    location    "800";
    object      phi;
}
// * * * * * * * * * * * * * * * * * * * * * * * * * * * * * * * * * * * * * //

dimensions      [0 3 -1 0 0 0 0];
oriented        oriented;


internalField   nonuniform List<scalar> 
27274
(
0.130967
0.0317778
-0.162745
0.00824726
-0.00558402
-0.00266323
0.229169
-0.309622
0.0804553
-0.320133
0.517207
-0.197058
0.289758
-0.243858
-0.045898
0.134031
-0.125183
-0.00884765
0.360852
-0.417229
0.0563874
-0.16651
0.0803314
0.0861785
-0.144159
0.152962
-0.000778286
0.00122526
-0.000446971
0.434013
-0.212118
-0.221886
-0.00891061
0.0103169
-0.00140625
-0.0367737
0.0945414
-0.0577677
0.218013
0.0931869
-0.311199
-0.0577319
0.283192
-0.225458
0.0340749
0.147671
-0.181745
-0.00805648
-0.00253327
0.0105898
0.0404901
0.247973
-0.288454
-0.295461
0.249416
0.046046
0.0595954
-0.0443327
-0.0152627
-0.11864
0.164594
-0.0459537
-0.0382793
-0.143541
0.181821
0.00044656
-0.0030449
0.00259834
0.256788
0.032972
-0.224077
-0.0258908
0.373135
0.0380604
-0.411192
-0.422161
0.17077
-0.157351
0.164954
-0.00760306
0.00112897
-0.000584545
-0.00054442
-0.215486
-0.0577602
0.273248
0.139873
-0.269055
0.129184
-0.27285
0.11043
0.162421
-0.292081
0.332582
0.209041
-0.529344
0.320331
-0.0507444
-0.0797147
0.130459
0.165836
-0.0348689
-0.215796
0.0817083
0.0653699
-0.10915
0.0437802
-0.199979
0.0426277
0.420173
-0.31032
-0.109847
-0.0235928
0.241606
-0.0963311
0.0713531
0.024978
0.308636
-0.0794637
0.00501572
-0.00201998
-0.00299575
-0.525184
0.36341
0.161802
0.0813932
-0.0160232
-0.126657
0.151593
-0.0249356
0.0620334
0.106923
-0.168957
0.128702
-0.15396
0.0252575
-0.479025
0.210909
0.268124
-0.41635
0.0843856
0.331974
0.187924
0.128917
-0.316837
0.286712
0.171032
-0.457744
0.00952128
-0.017119
0.00759769
-0.0798861
0.384023
-0.304132
-0.461181
0.487054
-0.0258569
0.0746595
-0.122033
0.0473734
-0.196738
0.139007
-0.0223976
0.0142951
0.00810247
-0.0479395
0.118097
-0.0701575
-0.241258
-0.23776
0.145782
-0.155192
0.00941028
0.0616452
-0.354759
0.293122
-0.0054263
-0.117327
0.122753
-3.08246e-05
-0.00887978
-0.141375
0.173153
-0.0080195
0.00645614
0.00156336
-0.119613
0.123442
-0.00382913
-0.238288
0.161229
-0.199508
-0.137447
0.104288
0.0331584
0.560133
-0.320318
-0.239812
-0.104964
0.0570246
0.400115
-0.283823
-0.116285
-0.0862358
-0.0802739
0.0629754
0.297884
0.0446777
-0.0265149
-0.0181627
0.285263
-0.245778
-0.0394839
0.0272523
0.158206
-0.185458
0.182978
0.156077
-0.339051
-0.339004
-0.0782148
0.0696901
0.0149474
-0.0846375
-0.171102
0.0524621
-0.125224
0.010569
0.114655
0.0561478
0.31699
-0.0922677
0.0554941
0.000348062
0.0176766
-0.0180247
0.0356645
0.0239309
-0.00113521
0.00226417
0.00655478
0.00632335
-0.0128781
-0.0578067
0.112109
-0.0543027
-0.441368
-0.0837788
0.480223
-0.164929
-0.31529
-0.298414
-0.11933
0.417757
-0.00521008
0.00521008
-0.000549807
0.000996367
-0.360482
0.245252
0.115234
0.213619
-0.216426
0.00280742
0.0142435
-0.00472221
-0.00723295
0.00835856
-0.00112561
-0.00761599
0.00827575
-0.000659764
0.0102929
-0.00790633
-0.00238657
-0.175102
0.120505
0.0545977
-0.091419
0.0561749
0.035244
0.303911
-0.223147
-0.0807627
-0.0663459
0.116501
-0.0501549
-0.011295
0.0116036
-0.000308581
-0.0267089
-0.0621127
0.0888217
-0.00372777
-0.117571
0.121299
-0.0382605
0.0168491
-0.316959
0.112293
0.204669
0.160367
-0.207431
0.0470645
-0.435295
0.0645199
0.370777
-0.0127337
0.1731
0.00947753
0.00805629
-0.0175338
-0.411477
0.549322
-0.137826
-0.0108194
0.0125867
-0.00176736
0.0200683
0.0246093
-0.0141453
0.0136782
0.000467092
-0.145693
-0.0294091
-0.00161151
0.000833221
0.0435612
0.0449162
-0.0884775
0.210614
0.0746501
-0.102075
-0.0353716
-0.14217
-0.218309
-0.0886869
0.061978
-0.154165
0.342093
0.280653
0.194713
-0.475367
0.0412105
-0.0821679
0.0409575
-0.41406
0.115662
-0.307257
-0.109083
0.0778782
-0.06832
-0.00955822
-0.0228308
0.130044
-0.107214
0.19196
0.0216595
0.0792047
-0.108855
0.0296501
-0.171579
0.452234
-0.193094
0.00834861
0.184748
0.274651
0.159369
-0.2175
-0.0485724
0.266073
0.0589516
-0.121826
0.062874
-0.00195217
-0.00566382
-0.000318154
0.00343654
-0.00311839
-0.215937
-0.0389148
0.254853
-0.267257
-0.0497006
-0.0249233
0.0208139
0.0041094
0.258275
-0.107436
-0.150839
-0.157185
0.0422515
0.114933
0.0200597
-0.0012586
-0.0188011
-0.130213
0.209161
-0.0789472
0.0206118
-0.000552139
-0.141608
-0.120999
0.262609
0.114734
0.0416893
-0.0924336
-0.0149826
-0.00741497
0.106871
-0.130544
0.0236733
0.0351232
0.424924
-0.460045
0.0647801
0.0130981
-0.00446364
-0.00968168
0.350201
-0.315076
-0.148233
0.0394366
0.108797
0.00548535
-0.122447
0.116962
-0.0304918
0.190736
-0.160243
-0.138445
0.0185512
0.119894
0.220185
-0.0282244
-0.0456988
0.0959485
-0.0502497
0.0299011
0.0100661
-0.0399673
-0.00548524
0.011588
-0.00610274
-0.17537
0.144889
0.0304817
0.115078
-0.0525486
-0.0625291
-0.345386
0.320752
0.0246401
0.00804213
-0.0104957
0.00245357
-0.0013278
0.00192016
-0.000592365
0.000520422
-0.381283
0.380775
-0.369613
-0.0188419
0.388465
-0.158233
0.192309
-0.00160072
0.00866852
-0.0070678
0.137067
-0.147803
0.0107357
-0.361378
0.0227956
0.338586
0.0924082
-0.0511977
-0.0103392
-0.0138778
0.024217
0.0427617
0.013419
-0.0561807
0.0622905
0.0527871
0.199272
-0.200597
0.00132581
-0.442446
0.370028
0.0724279
0.0979201
-0.0476098
-0.0503103
-0.00595497
0.0122231
-0.00626816
-0.000533375
0.00975502
-0.00922165
-0.0342191
0.105361
-0.071142
-0.0301645
-0.135811
0.165976
-0.0106929
0.00263647
-0.0303649
-0.185447
-0.139629
0.325078
0.189901
0.030284
-0.0410907
-0.0309594
0.0720501
0.110208
-0.0745821
-0.0356256
-0.283773
0.128613
0.15516
-0.100194
0.034334
0.0658596
0.177408
0.0218643
0.169818
-0.153496
-0.0163211
-0.369084
-0.27349
0.1081
0.165391
-0.18188
0.0343351
0.147546
-0.00333383
0.00690028
-0.00356644
-0.00503252
0.00449914
-0.0115709
0.00277522
0.00879569
0.16957
-0.198772
0.0292015
-0.000154896
-0.0106645
-0.00109654
0.002915
-0.00181847
-4.68437e-05
-0.00124458
0.00129142
0.149771
0.0200473
-0.385165
0.192072
0.08238
-0.223986
-0.0544182
0.0353469
0.0190713
-0.243422
0.0274864
0.0847267
-0.430103
0.0940774
-0.0243872
0.0242743
-0.0754888
0.0512145
-0.0187537
-0.366149
-0.0691467
0.0849132
-0.215125
-0.0417723
-0.0486201
0.0903924
-0.0276669
-0.274386
0.302055
0.0110374
-0.136261
0.233857
-0.225506
0.000177072
-0.00566231
0.120072
-0.259678
0.139607
0.00189545
-0.00407462
0.00217917
-0.0074202
-0.00783997
0.0152602
-0.0432212
0.0362514
0.00696981
-0.160408
-0.224754
-0.189327
0.47604
-0.168124
0.195377
-0.151904
-0.0134747
0.165379
0.00309316
-0.00119771
-0.144814
-0.0635475
0.208362
0.340103
0.0728974
-0.412998
0.0288463
-0.390221
-0.0509854
-0.03338
0.0843654
-0.114083
0.063157
0.0509263
-0.0115709
0.154676
-0.158403
0.0713053
-0.118625
0.0473198
-0.0352114
-0.241104
-0.415852
0.155723
0.260138
0.118552
-0.240034
0.121483
-0.0114107
0.00399046
-0.0424985
0.0801563
-0.0376578
-0.00271026
-0.00318348
0.00589373
0.129071
-0.0222008
-0.140036
0.145522
-0.149217
-0.124272
-0.0269592
-0.00487731
0.0318366
0.204562
-0.0271543
-0.000111937
6.50939e-05
-0.285807
0.0625766
0.223231
-0.0101571
0.00459355
0.00556359
-0.0784569
0.0489032
0.0295537
-0.0798783
-0.068355
0.12832
0.124939
-0.253257
-0.488858
0.444014
0.0448666
-0.162281
0.0209061
-0.0250297
0.10611
-0.08108
-0.0163641
0.0130303
0.102803
-0.125634
0.129101
-0.415823
0.286734
0.280487
-0.381291
0.100813
0.0771001
-0.352672
0.275573
-0.114943
0.0623944
0.0654692
0.0187112
-0.0841803
-0.0473846
0.0440407
0.00334395
-0.234415
0.213195
0.021221
0.0201995
-0.0146544
-0.0055451
-0.0942022
0.0599831
-0.104023
0.0376767
-0.241407
0.013967
0.227442
-0.0573291
-0.0428645
-0.159719
0.342701
-0.436454
0.157744
0.278713
-0.057602
-0.0129798
0.0705818
-0.575053
0.313413
0.261661
0.307835
-0.244853
-0.13459
0.0766318
0.0579581
-0.264986
-0.047706
0.312695
-0.00231195
0.00371556
-0.00140361
0.172752
0.0318103
-0.178004
0.130088
0.0479168
-0.296364
-0.278665
-0.135846
-0.0395242
-0.00385468
-0.00690369
0.0107584
-0.0622353
0.0931919
-0.413309
-0.127277
0.283329
-0.156052
0.0617175
-0.109466
0.047749
0.005416
-0.00769382
0.00227782
-0.345594
0.422695
0.400856
-0.462229
0.0613748
0.061545
-0.0372707
-0.158037
0.0877895
0.0702473
-0.0970115
0.127144
-0.0301324
-0.0597131
0.0379118
0.0218013
-0.252817
-0.183635
0.0792587
-0.0401271
-0.162147
0.202274
-0.000892436
0.40175
-0.0220286
-0.0376845
-0.0933936
0.0476948
0.0393996
-0.0867997
0.0474001
0.111998
-0.0502804
-0.299773
-0.114273
-0.0156806
0.0584424
-0.1268
-0.179776
-0.0885193
-0.20694
-0.0873874
0.0448889
0.338766
-0.112151
-0.226613
-0.0436376
-0.066755
-0.0295761
0.24085
0.239376
-0.398659
0.122577
0.276095
-0.0813967
-0.0372284
0.0149172
-0.00337753
-0.0115396
-0.000717591
-0.000378944
0.255094
-0.013319
-0.241774
-0.00131526
-0.13713
0.00467835
0.000337379
0.347461
-0.139413
-0.208045
-0.0656255
-0.0484578
0.173056
-0.190193
0.0171377
0.134278
-0.0405557
-0.0937223
-0.100484
0.0348585
-0.41917
0.119413
0.0431929
-0.0132918
0.180351
0.0986856
-0.279035
-0.0359918
0.115197
0.533336
-0.357633
-0.175691
0.03206
0.00742669
0.000647279
-0.00807397
-0.390483
-0.0139448
0.404428
0.00066677
-0.011006
-0.158069
0.181738
-0.023669
-0.388535
0.236741
0.151795
0.0141779
-0.140835
0.0246397
0.121142
0.0872991
-0.0479883
-0.0393108
-0.00312719
0.0201382
-0.0170111
-0.0802496
0.0391588
-0.0590892
-0.226717
0.257525
-0.195873
-0.00018879
0.000184479
4.31141e-06
-0.0791409
0.0476639
0.031477
0.404533
-0.252189
-0.152341
0.170553
0.0294997
-0.200052
-0.0403509
0.0797505
0.064657
0.0332631
-0.0355024
0.00854316
0.00214192
-0.00233071
-0.252779
-0.0367873
0.289568
0.238607
-0.207799
-0.0308073
0.00354902
-0.00579387
0.00224484
0.303726
-0.191431
-0.204806
0.0599934
0.0941444
-0.0261785
-0.0679659
-0.154554
0.137591
0.0169631
0.254455
-0.0332557
-0.221198
0.0105647
0.00435248
0.266951
0.211006
-0.477956
0.0832494
-0.0936361
0.0103867
0.0438829
-0.0856552
-0.0096715
0.0096715
-0.30545
0.398658
0.270145
-0.164105
-0.106039
-0.350933
0.290238
0.0606965
0.370679
-0.198833
-0.171843
-0.0892964
0.0670648
0.0222316
0.219909
0.150774
-0.0986822
0.148908
-0.0502256
-0.233133
-0.117799
0.0517463
0.135225
-0.186971
0.136986
-0.389764
0.0358427
-0.180002
-0.120855
0.267626
-0.146767
0.0166702
-0.217569
0.200901
0.308333
-0.265865
-0.0424654
0.284657
0.0236792
-0.0235187
-0.16505
0.188569
-0.0480818
0.0117881
0.0362937
-0.00361782
0.00213753
0.00148029
0.0806333
0.153226
-0.0536171
0.0601919
-0.00657479
-0.133513
0.0454492
0.0880642
-0.00149943
-0.00211839
-0.14791
-0.0284714
0.176382
0.134759
-0.0785405
-0.0562188
-0.0969243
0.215477
-0.0484049
0.0788161
-0.0304111
-0.124374
-0.437213
0.0257518
-0.0163516
0.356456
0.382707
-0.154932
-0.227764
-0.0126278
0.00950063
0.000878194
-0.183639
0.182761
0.458669
-0.0952376
-0.0163508
-0.115795
0.132146
-0.14735
0.0486683
0.12964
0.174088
0.180832
0.166631
-0.00149415
-0.000209658
0.00170381
-0.122543
-0.31388
-0.0267753
0.282122
-0.383291
0.101174
-0.0043773
0.00166704
0.00651162
-0.00919036
0.00267875
0.05496
0.0391844
-0.0202806
-0.136904
0.177113
0.00426181
-0.00811648
0.271077
0.28906
-0.23576
-0.106332
0.342095
-0.0149907
-0.0205117
-0.366692
-0.0869559
0.453651
-0.329594
-0.0516823
-0.00356469
-0.00712826
0.298781
0.101341
-0.000959408
0.0083861
0.139282
-0.12771
-0.0115713
-0.138222
0.14282
-0.00459826
-0.00310188
0.0096135
0.0165943
0.179188
-0.195783
-0.335634
0.0998781
0.0112616
-0.037973
0.0267114
0.121567
0.0124642
0.00890846
-0.0451198
-0.0462992
0.346906
-0.208934
-0.13797
-0.343955
-0.0984788
-0.26544
0.158005
-0.0317131
-0.0350458
0.0667589
0.0519471
0.0615744
-0.113521
0.0129298
0.236488
-0.4439
0.388557
0.0553448
-0.223318
-0.0201031
0.0178199
0.0654295
-0.00378995
0.00733898
0.204172
-0.148967
-0.0552039
-0.140867
-0.124573
-0.285814
0.398187
-0.112372
-0.175901
0.0279912
0.106284
-0.0740958
-0.0321884
-0.00295035
0.00836635
-0.0076256
-0.00253154
-0.0577656
0.0582543
-0.000488617
0.0594236
-0.076068
0.0166445
0.0665605
0.0177837
-0.0843442
0.000997938
-0.00301792
-0.192911
-0.0659136
0.258827
-0.404979
0.275974
0.129013
-0.270607
-0.192794
0.27343
-0.0843263
0.0559153
0.028411
0.369219
-0.219281
-0.149936
0.181296
-0.00893022
0.00169727
-0.035502
0.0533219
0.14288
0.0180883
-0.0115335
0.0701159
-0.0106924
-0.00929677
0.0033418
-0.210777
-0.0731637
0.283943
0.163806
0.127151
0.183463
-0.310612
0.109553
-0.448549
0.0117249
-0.455623
-0.475143
-0.406528
0.153713
0.00317266
-0.000932849
-0.00223981
0.055745
0.199351
0.396383
-0.281793
-0.114578
-0.0472205
0.0907818
0.122215
-0.0846389
-0.0375756
-0.319253
-0.0857183
0.154447
-0.236484
0.0820381
-0.0976834
0.0216286
0.0760548
0.0081691
-0.0657711
0.0228746
-0.181107
0.0569675
0.214628
-0.271592
0.0421794
-0.196367
0.0144863
-0.0194935
0.00972332
0.00977015
-0.0365659
-0.400734
0.201905
-0.000160351
0.00650969
-0.00634934
0.0688152
0.0533993
0.106243
0.266616
-0.37285
0.000923852
-0.0016975
0.000773647
-0.00259032
-0.00268679
0.00527711
-0.000205526
0.00158936
-0.00138384
-0.195302
-0.205429
0.267064
-0.210092
0.00390871
-0.155813
-0.102026
0.109754
-0.00772879
-0.135462
-0.081293
0.216755
0.0118401
0.00835943
-0.0710391
0.039326
0.017209
-0.0708261
-0.0297945
0.0876154
-0.0578209
0.136942
0.245775
0.0163597
0.122922
-0.0105071
-0.000955351
0.0114625
-0.00187761
0.0126882
-0.0314863
0.0187981
0.212334
-0.277038
0.0647048
0.125732
0.0366121
-0.162344
0.0333213
-0.155768
-0.00384814
0.00312675
0.000721387
0.00576301
0.00452989
-0.089387
0.0315803
-0.125237
0.24531
0.0241511
-0.24165
0.37681
-0.0862597
-0.290549
-0.0490917
0.101039
-0.227832
-0.178694
-0.0409174
0.052179
-0.106454
0.139776
-0.0127073
0.0221848
-0.294738
0.228189
0.0665491
-0.274545
0.0512287
-0.425987
-0.0628496
-0.119003
-0.000609575
-0.0232884
-0.118723
0.142012
0.0682825
0.0380017
-0.269242
0.381244
-0.111998
0.123098
-0.0681757
-0.0549222
0.0123282
0.0360886
-0.0484168
-0.156023
0.176346
-0.0203232
0.302939
-0.174617
0.211062
-0.126978
-0.0840835
0.18434
-0.167106
-0.0172336
0.487306
-0.249936
-0.237368
0.130547
-0.164317
0.0337706
-0.00478359
-0.173184
0.0171615
-0.042053
-0.0472742
0.0893272
-0.0342522
-0.294295
0.400549
-0.197617
-0.500419
0.109935
-0.147601
0.0117549
0.187535
0.066921
-0.115755
0.0888274
-0.299602
0.13455
0.12224
-0.00825339
0.266932
0.142217
-0.409136
0.0190266
0.0796846
-0.0987112
0.186382
-0.196037
0.00965475
-0.0562471
-0.0426395
0.0988866
-0.171727
-0.006277
-0.0174247
0.00479692
-0.26269
0.0879642
0.174727
0.00710537
-0.00710537
0.13265
0.0277028
-0.160353
-0.0912251
0.153259
-0.061488
-0.0169689
-0.0063041
-0.0347965
-0.0254323
0.0602287
0.138119
0.0382281
0.193358
-0.192479
-0.394866
0.199567
0.211283
0.111298
-0.322579
-0.131068
0.0754555
0.0556123
0.152197
-0.127221
-0.0249759
-0.0438746
0.132307
-0.0884319
-0.106452
0.070319
0.0361333
0.00285451
-0.0456757
0.0981187
-0.052443
-0.356053
0.505892
-0.149818
0.000176948
-0.00187894
0.00170199
-0.00804972
0.0482781
-0.0402283
0.142472
-0.228576
0.0861054
0.238514
-0.0272301
-0.0586991
0.0777257
0.00960296
-0.00327961
-0.134166
-0.0281146
-0.276512
-0.137603
0.414118
-0.0815598
0.0250074
0.0565524
-0.0960536
0.0540006
-0.143278
0.0635631
0.102801
0.0112038
-0.114005
-0.0382632
-0.00930199
0.0475652
-0.16319
-0.0532356
0.0626807
0.0356531
-0.0983337
0.00225178
-0.00265734
0.000405561
-0.064492
-0.035992
-0.0424712
0.0988658
-0.0574202
-0.0414457
0.0317261
-0.0827115
0.14641
-0.18505
0.0386405
-0.402107
-0.0590593
-0.103305
-0.318813
0.103329
-0.00252029
-0.022403
0.0196918
0.0149681
-0.0346599
0.00693681
-0.00853753
-0.010317
-0.0377649
-0.00632214
0.00803491
-0.00171277
-0.000957115
0.000592532
0.000364583
-0.0704024
-0.0111574
-0.0345788
0.18225
-0.00313179
-0.00423617
0.00736797
0.00681159
0.0282357
-0.0350473
0.208061
0.024235
-0.0479607
0.0237257
-0.000960998
0.00802395
-0.00706296
0.0527711
0.0125924
-0.0653635
0.0822838
0.121888
-0.108519
0.402532
-0.294
-0.193917
0.0307275
-0.213575
0.18385
0.0297253
0.155539
0.028801
-0.063305
-0.059971
0.123276
0.0778207
0.260948
0.00490283
-0.00490283
-0.189953
0.166434
0.143297
0.0168204
-0.160117
-0.00159583
-0.00225231
-0.218163
-0.0967464
0.314912
-0.147065
0.123777
0.0367481
-0.0240598
-0.238833
-0.0967977
0.0261893
0.183257
-0.209445
-0.000708442
-0.000874237
0.00158268
-0.1144
0.416525
-0.302106
0.0440564
0.0790416
-0.152226
-0.00118104
-0.000447028
0.00162807
0.186095
-0.0479763
0.128451
-0.141742
0.0132917
0.0904035
-0.194064
0.0479521
0.146112
0.0105697
-0.112595
-0.10999
0.00524371
0.104747
0.016312
0.00429982
0.110194
-0.121212
0.0110181
0.14846
-0.272243
0.123786
0.00932798
-0.00948476
0.00015678
0.147013
-0.0185623
0.00492973
0.012859
-0.00495105
-0.00790794
0.0423671
-0.0895877
0.0380136
-0.0810754
-0.186181
0.13847
0.230653
-0.369113
-0.00425371
0.00166339
0.104008
0.107054
-0.0277996
0.158347
0.442784
-0.305382
-0.137397
-0.0541867
-0.00263988
-0.0551258
-0.0183844
-0.0121346
0.030519
0.00130706
0.000753078
0.00635229
-0.0329123
-0.051414
0.13499
-0.185709
0.0507189
-0.382137
0.273631
0.166277
-0.128477
0.112127
0.10912
-0.0436508
0.328848
-0.201053
-0.12779
0.0343872
-0.0691837
0.135869
0.0337012
-0.0375318
-0.454717
0.442531
0.0122157
0.000811915
0.00159902
0.181106
-0.238864
-0.329153
-0.123095
0.0131797
0.109915
0.169324
-0.474703
-0.105923
0.372549
0.000683576
0.000700057
-0.00138363
0.0360232
-0.226095
0.177517
0.0485789
-0.252749
0.364049
-0.0497748
0.10789
-0.0581155
-0.0345033
-0.119456
-0.0247349
0.182942
-0.0213382
-0.0578028
-0.213891
0.230563
0.00473453
-0.0152417
-0.127279
0.0187871
0.108492
0.102413
0.154367
-0.256779
0.0307516
-0.0163696
-0.0143821
0.000823539
0.00109662
0.255694
-0.402315
0.146628
-0.0351322
0.0167478
0.236543
0.280675
-0.331526
0.0926975
-0.244186
0.108724
-0.08405
-0.0156019
0.0996519
-0.00041027
-0.00211963
0.0025299
-0.0343177
-0.123751
1.75355e-05
0.00223424
0.0319872
0.109078
-0.141065
0.0094614
-0.027048
0.0175866
-0.0749526
0.0451581
-0.161253
-0.023797
-0.00635296
0.109622
0.160523
0.0140179
-0.0275367
0.0135188
-0.0741272
0.0144486
-0.0141005
0.00550871
0.00273855
0.0753526
0.171159
-0.246511
-0.0142123
0.0266068
-0.0123945
0.16579
-0.19319
0.0273997
0.00234008
0.13031
-0.0233718
0.052778
-0.0294061
0.0197422
-0.0607737
0.0410315
-0.00306545
0.00732725
-0.392425
0.287601
0.104832
-0.00774489
-0.00967985
-0.14444
0.319745
-0.175304
-0.0139198
0.0302318
0.0415654
0.165598
-0.207162
-0.211971
0.105517
-0.173612
0.00650651
-0.344302
0.189376
0.154932
0.198414
-0.49911
0.300724
-0.0257785
-0.108125
0.133904
0.0733839
-0.0211556
0.0739267
-0.442371
0.0984255
0.00758775
-0.00803129
0.000443544
-0.184684
0.0234314
-0.240249
-0.104046
0.109603
0.267207
0.0636797
0.0742154
-0.137895
0.0578826
0.0510608
-0.108943
0.0209817
-0.0443535
0.111992
-0.14631
-0.157722
0.366784
0.136483
-0.170897
0.0344141
-0.00596285
0.0140191
-0.129687
-0.328817
0.216669
0.337476
-0.148095
-0.0364095
0.172893
-0.017589
-0.146432
0.164021
0.000212402
0.00469043
-0.317469
0.0993087
-0.0506022
0.072632
-0.0220298
0.0486557
0.0615521
0.0479285
-0.0559782
-4.31086e-05
-0.000162417
-0.00332602
-0.00469348
-0.112882
-0.284504
0.397401
0.0249611
-0.150375
0.125414
0.123192
0.235544
-0.19822
-0.0373223
-0.19522
0.170712
0.0245083
0.00615455
-0.00711555
-0.315493
-0.0667869
0.382293
-0.164749
-0.230114
-0.498756
0.214815
0.283969
0.0349995
0.110948
0.0529939
-0.163942
0.250157
-0.101696
0.102025
0.0399178
-0.141942
0.0281535
-0.16232
-0.00371255
0.012878
-0.00916548
-0.00242686
-0.00886817
0.365883
-0.227863
-0.138015
0.17047
0.130538
-0.301007
0.00604247
-0.157264
0.00106887
-0.000376864
-0.000692009
0.00175723
-0.00734126
0.00101337
0.00119109
-0.00220446
-0.0607262
0.0386976
-0.0419864
-0.0178362
0.0598226
0.0867617
-0.0480054
-0.0387564
0.0124833
-0.418911
0.0527617
-0.117063
0.27537
-0.0950174
0.167667
0.0506481
-0.218315
0.145181
0.259354
-0.0584272
0.0216237
0.0292856
-0.0509093
-0.00185281
-0.00335727
-0.242078
0.000672537
-0.0180828
-0.0353962
0.053479
0.0999269
0.317457
-0.417367
-0.068552
0.203543
-0.120503
-0.0268472
0.298822
-0.378705
-0.0278047
-0.141226
0.167416
0.00645127
0.0143626
-0.00816952
0.00498604
0.0925002
-0.142475
0.0499745
0.00295627
-0.00602172
0.0850838
-0.0185233
0.00266736
0.00378879
-0.0608702
0.0795814
0.0510093
-0.0156624
0.000396749
-0.0010587
0.000661948
-0.120665
-0.006614
0.0545857
-0.0422575
-0.094621
0.0489454
0.00633075
0.00652824
0.220033
-0.30174
0.0817105
0.113774
0.33283
-0.449021
0.1162
-0.0236728
0.0577126
-0.0300774
-0.0276352
0.365222
-0.476513
0.0927046
0.383808
0.0978005
-0.00453652
-0.0932639
-0.233728
0.398216
-0.164474
-0.087292
0.0818658
0.0157932
-0.13312
-0.534029
0.31037
0.223662
-0.0793539
0.0582962
0.0210577
0.190341
-0.281731
0.0913921
0.263657
-0.1046
0.054825
-0.268343
-0.100849
0.369202
-0.0474309
0.0879215
-0.0404906
-0.0127279
0.0324197
0.283231
-0.109024
-0.174206
-0.24379
0.17008
0.0737109
-0.350405
0.110162
-0.101094
0.0676818
0.033412
-0.271025
0.400138
0.0617101
0.149658
-0.211368
0.0332126
0.0547127
-0.0879253
-0.13669
-0.157327
0.294018
-0.00123176
0.000529314
0.000702447
-0.201735
-0.0642915
0.266028
0.000888274
0.00125365
0.238027
-0.0210711
-0.216955
0.08114
-0.123007
0.0418668
-0.2368
0.328982
-0.0921786
-0.000777365
-0.110065
0.110842
-0.150028
0.0295247
-0.349736
-0.0691745
0.170103
0.113129
-0.00222405
0.000992292
0.235001
-0.262666
-0.00648788
-0.00488722
0.0113751
-0.00821236
0.0111206
-0.00290819
-0.16877
-0.0656453
0.296266
0.237079
0.302316
0.0817107
0.388293
-0.0622097
-0.326074
-0.00106199
0.00174556
0.103706
-0.356452
0.00440326
-0.00351499
0.00458952
0.000620561
-0.0141421
0.101932
0.00181533
-0.00178634
-2.8988e-05
-0.398045
-0.131272
0.226968
0.0838831
-0.310848
-0.000540643
-0.000952496
0.00134925
0.0651043
-0.175095
0.132257
0.224073
-0.356327
-0.146185
0.273337
-0.274371
0.073359
-0.242287
0.16893
0.0755401
-0.100769
0.0252289
-0.00615494
-0.0177005
0.0238555
0.16715
-0.165985
-0.0011643
-0.00765335
0.00999971
-0.00241196
0.0364447
-0.0794931
0.0430483
0.122374
-0.0423048
-0.0800695
-0.278067
0.248272
0.0297962
-0.00943958
-0.00014855
0.00958813
-0.0014579
-0.0391879
0.141213
-0.325456
0.0886591
-0.276268
0.109133
0.167135
0.000907779
0.00222156
-0.00312934
0.141388
-0.00154379
0.000362744
-0.0333811
-0.525307
0.341176
0.184133
-0.059857
0.123537
0.18811
0.176638
-0.364727
-0.0518741
0.163867
-0.21778
0.122757
0.095024
-0.400734
0.167025
-0.105543
-0.2812
0.386758
0.256215
-0.182855
0.00732347
-0.00601126
-0.00131221
-0.0919054
-0.306648
0.398556
0.00754442
-0.00051413
0.00173939
-0.0962143
-0.180053
0.0595997
-0.324581
-0.0722313
-0.0214047
-0.00385537
0.00574131
-0.00188594
0.145623
-0.171453
0.0258305
-0.00116212
0.00298545
-0.00182333
-0.236194
0.111819
0.0810463
0.124697
-0.154862
-0.00513163
0.00199984
0.0203161
0.0104355
0.0103726
-0.0046396
-0.00573296
-0.445007
0.0469908
-0.0162018
-0.188817
0.287504
-0.00389551
0.00273339
-0.353155
0.129873
0.223288
-0.0498077
-0.0295462
0.0933238
-0.00229458
0.00123259
-0.103051
-0.291613
0.394669
0.137958
0.310961
-0.448902
-0.0592549
0.0172685
-0.327228
0.0610396
0.26619
0.00741113
-8.7662e-05
0.0696203
-0.262529
0.0104938
-0.0247061
-0.175104
-0.110946
-0.270337
-0.0282252
0.135148
-0.0848522
0.03425
-0.00903358
0.00321201
0.00582158
0.151
-0.164475
0.164563
0.0792073
-0.243769
-0.17024
0.186835
-0.0819001
0.21666
0.112192
-0.0588557
-0.417658
-0.111785
0.0737289
0.0380565
0.279976
-0.130321
-0.149654
0.0140151
0.01624
-0.0302551
0.00869883
-0.16271
0.154011
-0.00159382
0.00266269
0.214742
0.0783701
-0.293109
-0.29056
0.394665
-0.104098
-0.0405903
0.0871402
-0.0465499
-7.69105e-05
0.00094469
-0.00086778
0.0203715
-0.0388174
0.0184459
-0.194312
-0.0189172
0.21323
0.0208969
-0.00322028
-0.0631331
0.277878
0.0112313
-0.00484766
-0.00638363
0.139061
0.0692463
0.0216259
-0.0908722
-0.17108
0.327161
-0.00199233
0.00194922
0.0902681
0.230758
-0.321022
-0.115041
-0.102739
-0.216098
-0.172437
0.33269
-0.235706
-0.0969815
0.277857
0.20945
0.0104269
-0.0231341
0.0515349
0.0360255
-0.0875603
-0.00933312
-0.00969459
0.0190277
0.0658241
0.0565502
-0.194512
0.168874
0.0256385
0.147593
-0.178084
-0.469629
0.150002
0.319635
-0.409825
0.104389
-0.424414
0.310032
-0.167077
0.0390102
-0.0864411
0.251403
-0.209835
0.0117982
-0.00701988
-0.00477827
-0.0573452
-0.0580822
0.115427
0.348483
-0.216222
0.155829
0.030553
0.0061508
0.00508049
-0.0741576
-0.0569101
-0.0570777
0.168026
0.146969
0.0437675
0.110454
-0.124264
0.0138096
-0.0019244
-0.00716795
0.00909235
0.0917832
-0.117562
0.0223181
-0.0155065
-0.0224809
-0.125322
0.112773
-0.117496
0.00472333
-0.0374506
-0.0232756
0.146638
0.221628
0.10108
-0.322705
-0.110017
0.0467121
-0.084876
-0.0239787
0.298406
-0.0730628
0.0246579
0.0420878
0.0872243
-0.129312
0.0062035
-0.00720067
0.000997166
0.146937
0.13304
-0.0232924
-0.102646
0.0185962
-0.120282
0.0172286
0.103054
0.167729
-0.0419971
0.388387
-0.199993
-0.188394
0.047025
-0.250631
0.209447
0.0411857
0.00479164
0.00700652
0.220866
-0.223396
0.00252965
0.172289
-0.00193326
0.000688683
-0.0302785
0.168279
-0.194731
0.0264522
0.0273457
0.214905
-0.308218
0.0933156
-0.00168127
-0.0457034
-0.000929065
0.000475664
0.000453401
0.0896648
0.0586633
-0.0824261
0.0237628
-0.00110877
0.000179709
0.169369
0.0271841
-0.196552
-0.0958373
-0.210285
-0.0403444
0.0317939
0.151711
-0.183504
-0.155335
0.211627
-0.0562919
-0.0203501
-0.0697525
0.0398919
0.0298606
-0.0787299
-0.163556
-0.0220708
-0.139743
0.161814
0.0196383
-0.322574
-0.137152
0.459751
0.000752661
-0.00865899
0.18656
0.0514679
-0.145065
0.206776
0.0394538
0.0507986
-0.0902524
0.00545681
-0.00561716
-0.109614
0.42734
-0.317707
0.341725
-0.216948
0.0616139
0.0849049
0.255103
-0.340002
0.477216
-0.17039
-0.306814
0.0143279
-0.0367619
0.022434
-0.239464
0.506416
-0.18764
0.019516
-0.284708
-0.113939
-0.0660095
0.0719533
-0.00594388
-0.392261
0.0979768
-0.00079717
-0.042424
-0.0307372
0.0245823
-0.153777
-0.0900112
0.000231033
0.00230731
-0.00253835
-0.326565
-0.115796
-0.178381
-0.0246077
0.202989
-0.0634412
-0.210113
0.273556
0.000335875
0.00166105
-0.00199693
-0.0768837
-0.40013
0.400428
-0.000281621
0.122765
0.226697
-0.34946
-0.239957
0.19144
0.0485183
-0.0846098
-0.227632
0.312245
-0.0844825
-0.0501074
-0.00025136
-0.00015891
0.00309479
0.00850882
-0.00231483
0.00413016
0.0713906
0.27891
-0.350297
0.0431385
-0.213378
-0.107814
0.107037
0.208923
0.00341076
-0.26655
-0.0865999
-0.0386749
0.0487411
-0.00183543
-0.00385368
0.00568911
-0.133104
0.141803
-0.0738193
-0.136464
-0.00170972
-0.00772986
-0.325716
-0.208309
-0.304323
0.375716
-0.0201774
0.0108443
-0.00152815
-0.0390441
0.0291429
0.00909672
-0.28716
0.00548859
-0.006448
-0.0715243
-0.140016
0.211541
-0.126903
0.042355
0.0845479
-0.378974
0.287072
0.155459
-0.175257
0.0197985
-0.287331
0.14669
0.140641
0.0886579
0.0461015
0.119286
-0.0500399
0.109297
0.0377168
0.348418
0.0764133
-0.424826
-0.00550968
0.00724222
-0.00173254
-0.0830257
-0.124405
-0.411536
0.0114214
-0.426728
0.426746
0.0198306
0.201036
-0.217531
-0.109695
0.0762455
-0.277978
-0.0508571
0.0128841
0.0210398
-0.215351
0.0308277
-0.260929
0.0677296
0.193201
-0.0224675
-0.000419455
0.000342545
0.174808
-0.387091
0.2123
0.00260855
0.0540878
-0.0566963
-0.0228375
-0.135146
0.157984
0.383989
-0.209165
0.0969857
-0.188211
-0.114668
-0.00391178
0.11858
-0.401725
0.13546
0.266267
0.384921
-0.219776
-0.165141
-0.0925166
0.388716
-0.296195
-0.13634
-0.158397
-0.0959982
0.119363
-0.0233648
0.427791
-0.146338
-0.281442
0.0958062
-0.240004
0.144199
-0.122833
0.121517
-0.0702696
0.418693
-0.115077
0.00317798
-0.00966586
-0.0126984
0.0221598
0.036954
-0.0267951
0.041123
-0.0273908
-0.0907577
-0.0295246
0.0159116
-0.0375114
0.0215998
-0.0211039
0.055487
-0.0343831
-0.00794214
0.409415
-0.401444
-0.18904
0.239689
0.164605
-0.39945
0.234857
0.0127724
0.0282176
-0.0409899
-0.02574
0.058529
-0.032789
-0.137118
0.106274
0.030845
0.169699
-0.362594
0.0720435
-0.270693
0.207254
-0.100946
-0.30457
0.405521
0.155993
0.0826154
-0.045612
0.0317343
-0.00844785
-0.00791624
-0.00773022
-0.00146014
0.0131116
0.0821526
-0.0952642
0.374397
-0.351598
-0.387394
0.516176
-0.128776
-0.0924335
-0.288265
0.380702
-0.00933054
-0.0553787
0.0885914
-0.310756
0.201618
0.109141
-0.00601903
0.00436794
0.00165109
0.28017
-0.139968
-0.0243493
0.254859
-0.144428
0.10607
-0.130672
0.024602
0.0216931
-0.161661
0.0909998
-0.051546
-0.150373
0.127535
0.0432435
-0.413034
0.0904883
-0.402969
0.281715
0.121271
0.0957816
-0.0368299
0.0992184
-0.368457
0.325159
0.161906
-0.120836
0.0248381
0.0462885
-0.102838
0.0565495
0.2886
-0.381112
0.0188048
-0.0799363
0.0611315
0.270766
-0.373927
0.103165
0.203998
-0.227591
-0.380944
0.0902281
0.290723
-0.247438
0.198867
0.0541097
-0.0323807
-0.0217291
0.118664
0.0315917
-0.150256
-0.195133
0.0300839
-0.178053
0.106529
-0.00138047
-0.0407466
0.0104396
0.030307
-0.39805
0.191751
0.2063
-0.10416
-0.0227424
0.137087
0.00743779
-0.00123429
0.0219653
0.0480983
-0.0700636
0.000233722
-0.000158728
-7.49934e-05
-0.0597708
-0.127572
-0.102791
0.113361
0.106904
-0.049021
0.0393726
0.0697475
0.00660352
-0.00862589
0.00202237
-0.286006
0.408597
-0.119424
-0.263863
-0.120103
-0.208711
0.0331436
0.00310773
-0.0856662
-1.75677e-05
-0.0110129
0.0110304
-0.171021
-0.0948407
-0.16244
0.237793
-0.000559669
-0.00137359
0.0204255
0.0815501
-0.101976
0.204347
-0.0268302
0.0579783
-0.0445594
0.371772
-0.116072
0.1376
-0.150333
0.0374837
0.0477886
-0.0852723
-0.0343956
0.0729889
-0.0385932
-0.224449
-0.107074
-0.0419153
-0.0470409
0.0889562
-0.109046