/*--------------------------------*- C++ -*----------------------------------*\
| =========                 |                                                 |
| \\      /  F ield         | OpenFOAM: The Open Source CFD Toolbox           |
|  \\    /   O peration     | Version:  v2012                                 |
|   \\  /    A nd           | Website:  www.openfoam.com                      |
|    \\/     M anipulation  |                                                 |
\*---------------------------------------------------------------------------*/
FoamFile
{
    version     2.0;
    format      ascii;
    class       volVectorField;
    location    "450";
    object      ddtCorrDdt0(U);
}
// * * * * * * * * * * * * * * * * * * * * * * * * * * * * * * * * * * * * * //

dimensions      [0 1 -2 0 0 0 0];


internalField   nonuniform List<vector> 
9793
(
(-0.0582634 -0.0396552 -8.02987e-18)
(-0.0240026 0.0194297 -2.00478e-19)
(-0.0655502 -0.0360302 1.44153e-18)
(0.000545326 0.000147907 -2.52429e-18)
(0.0821067 -0.180174 1.19514e-17)
(0.00640864 0.00465035 -2.12374e-18)
(0.000495777 2.96562e-05 1.50585e-18)
(0.000264097 0.000150813 -8.35573e-18)
(0.000293865 -0.000904789 -2.1589e-17)
(0.0939254 -0.160887 -1.00662e-17)
(0.0160445 -0.0242496 7.27048e-18)
(0.0547636 -0.00383083 4.1234e-18)
(0.000589972 7.15537e-05 -3.67569e-18)
(-0.00160956 -0.001972 -2.25498e-18)
(0.000595429 -3.58937e-05 9.27845e-19)
(-0.00172193 -0.00124162 -2.12165e-18)
(-0.00409169 -0.00201787 -1.6964e-18)
(-0.00498575 -0.00226901 7.87007e-19)
(-0.0270216 -0.0185923 8.05217e-18)
(-0.00195071 -0.00162034 5.85867e-18)
(0.04888 0.0660185 -5.44153e-18)
(-0.00730824 0.00079241 -3.28783e-18)
(0.0302409 0.044688 -2.54366e-18)
(0.000333295 0.000631752 4.60891e-20)
(-0.00194873 -0.00496649 1.22614e-17)
(0.000591589 2.30264e-05 3.82766e-18)
(-0.00248207 -0.00029152 -5.21605e-19)
(-0.00104579 -0.00212277 2.99634e-19)
(-0.00342724 -0.0285197 -1.30796e-17)
(0.000252797 -0.000891488 1.84073e-17)
(0.0231056 0.00430838 -8.49848e-18)
(0.0334356 0.033229 -6.8022e-19)
(0.0490425 -0.10061 8.94228e-18)
(0.000655943 -2.45987e-06 2.14865e-18)
(-0.00665844 -0.0319272 5.12829e-18)
(-0.0978871 0.177993 -4.82888e-18)
(0.000461273 6.26531e-05 -1.56749e-18)
(-0.00722679 0.00154175 6.38974e-18)
(-2.94808e-05 0.00047149 5.09566e-18)
(0.00057257 -2.91894e-05 3.52203e-18)
(0.0222314 0.00240259 5.64957e-18)
(0.000541581 -4.21972e-05 -6.52461e-18)
(0.000586584 -8.75619e-05 -7.60431e-18)
(0.000513608 -1.99003e-05 3.81933e-18)
(0.000558812 -3.07349e-05 6.39942e-18)
(0.000551112 0.000120821 -1.42305e-19)
(-0.00327158 -0.0303565 6.52117e-19)
(0.0250639 -0.0233741 1.18895e-18)
(0.0325124 -0.026948 -5.30334e-18)
(0.000533017 -6.95013e-05 1.4284e-18)
(-0.00690971 -0.0338576 -1.11811e-17)
(0.0140839 -0.0292981 2.20166e-17)
(0.00484074 0.00684017 -9.55516e-18)
(-0.0010999 -0.000929362 -3.23016e-18)
(0.0147594 -0.0635916 -1.13153e-17)
(0.0780125 0.0591992 -2.65852e-18)
(0.000308588 -0.000155295 -1.69985e-19)
(0.0321002 -0.0221736 -1.61645e-20)
(0.0604553 0.00894176 -5.01131e-18)
(1.73068e-05 0.00046336 -1.79888e-18)
(0.000602505 3.83152e-05 -1.16409e-19)
(0.00223478 0.00767012 2.20133e-18)
(0.0558603 -0.0191746 8.80087e-18)
(0.000378348 -8.01999e-06 2.74221e-18)
(0.137079 -0.09232 4.94364e-18)
(0.0473735 -0.0619592 -1.45738e-18)
(0.057762 -0.0211992 -5.28397e-18)
(0.0462377 -0.0318229 -6.18348e-18)
(0.0508599 -0.00343266 1.00515e-18)
(0.0140871 -0.024658 -9.19302e-18)
(0.0111934 -0.0675497 9.93145e-18)
(0.000669998 -4.79677e-05 -1.44351e-20)
(0.00106925 0.000529649 -2.70013e-18)
(-0.0412919 -0.00436792 -3.28675e-19)
(-0.0089698 -0.0368236 -1.46182e-18)
(0.0695325 -0.00124869 1.39529e-19)
(0.000270184 -0.000188898 -1.04597e-17)
(-0.00230896 0.00207259 -5.02144e-19)
(0.00430674 -0.00323453 2.80763e-18)
(-0.000137437 -0.00306571 1.16911e-18)
(0.053833 -0.0460782 -1.57063e-18)
(0.00525837 -0.0010777 2.9331e-18)
(-0.0037139 0.0265284 2.67876e-19)
(0.0197608 -0.00988092 -3.16714e-18)
(0.0194008 0.00324595 8.84686e-18)
(0.0213918 -0.0200572 3.54801e-19)
(-0.000438713 -0.00360877 -4.04073e-18)
(0.000222075 -0.000245366 -8.22184e-19)
(0.00210155 0.00610962 3.0992e-21)
(0.00593609 0.000939912 -3.55444e-18)
(-0.0231042 0.00240731 -2.92751e-19)
(0.197292 0.0313628 -6.77484e-18)
(0.00174016 0.00120025 -1.44553e-18)
(0.0410892 0.0166854 -1.88269e-18)
(0.00169341 0.00696649 -4.71503e-18)
(0.0215013 -0.00694675 1.35011e-18)
(0.0766658 0.0555172 1.33709e-18)
(-0.00919342 0.0181172 -7.6618e-20)
(0.00154897 0.00103634 1.50291e-18)
(0.00170509 -2.22391e-05 -1.0211e-18)
(0.00157774 -6.71852e-05 3.53812e-19)
(0.00348402 0.00336558 3.4101e-18)
(-2.03969e-05 0.000478902 3.83821e-18)
(4.74054e-05 0.000375837 9.63651e-19)
(-0.00214769 0.00165486 4.76278e-19)
(0.0184095 0.00183239 -8.58352e-18)
(0.00148081 0.00553533 2.95352e-18)
(0.000577469 3.87874e-05 -4.32398e-18)
(0.00412353 0.00620757 3.71583e-20)
(0.0174633 -0.0503956 3.85867e-18)
(0.000631884 -1.92286e-05 3.73703e-20)
(0.068323 0.0297638 1.62982e-18)
(0.000326499 -4.49221e-05 -3.10419e-19)
(-0.115132 0.294626 -2.37234e-17)
(0.0124117 -0.0310437 -4.09831e-18)
(0.000316063 -0.000186948 -5.61184e-19)
(0.0127915 -0.132273 -3.60253e-18)
(-0.0124202 -0.0363209 -1.93554e-17)
(0.00598751 -0.0015673 3.76726e-19)
(0.0404554 0.00841621 8.15773e-20)
(0.0237638 -0.0470199 1.28097e-18)
(0.000617991 2.13867e-05 6.13877e-20)
(1.17701e-05 -7.7727e-05 1.90106e-18)
(0.00731715 0.00476417 3.0779e-18)
(-0.00190514 -0.00203814 1.39593e-17)
(0.063115 0.0542536 -4.16553e-18)
(0.0140702 -0.0108195 -3.57579e-18)
(0.0214708 -0.0196659 1.31049e-19)
(0.00476782 -0.0040203 -2.48521e-18)
(0.000515137 0.00046469 -1.01269e-17)
(0.000671003 5.61115e-05 -2.04551e-19)
(0.000268676 -0.000241459 7.02925e-18)
(0.000460789 0.000419945 5.10705e-18)
(0.000527285 0.00470292 2.26419e-18)
(0.000265443 -0.000807965 1.20018e-17)
(0.0001466 -0.000293164 -2.1067e-18)
(0.000406092 -8.28638e-06 -3.93627e-18)
(0.000536889 3.21548e-05 2.17476e-18)
(0.000316961 -4.82284e-05 4.20073e-18)
(0.000467253 1.17229e-05 2.07316e-18)
(4.25806e-05 -1.82439e-05 1.50915e-18)
(-0.00272537 -0.00395312 5.16759e-18)
(0.000555539 -3.39293e-05 4.35548e-18)
(0.00175081 -0.000742599 1.09569e-18)
(-0.00173941 -0.00243272 -6.56191e-19)
(-0.00255066 -0.00330783 6.01652e-18)
(-0.0383525 0.0283965 1.33167e-19)
(0.00176326 -0.000578735 -7.48443e-18)
(0.000996432 0.00102405 -5.6819e-18)
(0.175786 0.0246421 3.93945e-19)
(-0.130801 -0.0932663 1.60665e-18)
(0.000632721 -1.35097e-05 -6.61168e-21)
(-0.169653 -0.187049 -1.51852e-19)
(0.0792705 -0.169885 -7.4445e-18)
(0.000894297 0.000887288 -9.89829e-19)
(0.000613978 -2.0915e-05 1.62587e-19)
(0.000514417 -2.52824e-05 -9.54835e-19)
(-0.00266794 -0.00338183 -2.63778e-18)
(0.00166343 -0.000360316 5.13283e-18)
(0.000610883 1.52323e-05 6.61263e-19)
(0.000232302 0.000145441 2.88611e-19)
(-0.0013566 -0.00193727 -3.97958e-18)
(-0.00135655 0.000249631 7.82541e-19)
(-0.0515346 -0.0102022 -4.87256e-18)
(-0.0440439 0.0124639 4.80411e-19)
(0.0224263 0.0929174 7.8759e-19)
(0.0270689 -0.0201641 4.17878e-18)
(-0.01021 -0.00876271 8.96407e-18)
(-0.0021165 -7.8447e-05 5.00496e-19)
(0.00229559 0.0022275 -6.62298e-19)
(0.00190142 -0.00107354 4.00972e-18)
(0.0173501 0.195839 -8.64307e-18)
(-0.0450709 0.0158569 5.41016e-19)
(0.0119917 0.207719 6.26494e-19)
(-0.00136386 -0.00196366 -5.23703e-18)
(-0.0476905 -0.0173319 -9.90011e-18)
(0.000179065 -0.000276748 -6.25222e-18)
(0.000279639 0.000377557 -2.94575e-21)
(0.000715065 0.000658575 -1.33207e-18)
(-0.000227281 -0.0134431 -1.60226e-17)
(0.0820108 -0.0174612 -2.62103e-17)
(0.00082706 -0.0034305 7.6718e-18)
(0.00172591 -0.000232577 -4.0183e-18)
(-0.00200759 -0.00435557 -8.31763e-18)
(0.0374245 -0.128931 1.18878e-17)
(0.0010045 0.000416015 -5.24076e-18)
(0.034455 -0.0233415 9.64892e-18)
(0.000766125 0.000643319 -2.10007e-18)
(-2.06213e-05 7.14304e-05 -1.23621e-18)
(-0.00137947 -8.5701e-05 3.79572e-18)
(-0.00116516 -0.00215555 6.52398e-18)
(0.000309962 -0.000103239 9.78143e-18)
(0.0308501 -0.0325405 -7.05231e-18)
(0.0692346 0.0368193 -5.19527e-18)
(0.0477517 -0.0288537 2.56501e-18)
(-0.00016896 -0.0126913 2.89861e-18)
(-0.0259173 -0.0414162 -7.28108e-18)
(0.00300035 0.000901998 -2.84312e-18)
(0.0342581 -0.215323 4.45486e-18)
(0.000444163 5.04801e-05 -3.80829e-18)
(0.000222028 -0.000666725 -1.07645e-17)
(-0.0992223 0.0198229 -5.8048e-18)
(0.0172381 0.144784 9.01092e-18)
(0.000458321 0.000382841 1.54199e-18)
(9.11455e-05 -0.000319934 -1.97686e-18)
(-0.001507 0.00167158 -1.78977e-19)
(-0.0113649 0.124373 5.57689e-18)
(0.000108348 -0.00163571 -2.07549e-18)
(0.0160855 0.00253072 3.35191e-18)
(-0.00244223 -0.00396342 -2.06462e-17)
(-0.00434058 -0.0175524 -9.49328e-18)
(0.0261442 -0.033141 -4.77591e-18)
(0.0359775 -0.0257514 9.24975e-18)
(-0.00106021 -0.0010572 1.13878e-17)
(-0.0203427 -0.0507632 6.67011e-18)
(0.000523256 3.98435e-05 5.09857e-19)
(0.00135732 0.00300975 -9.98787e-18)
(0.0424129 -0.152784 -5.31973e-18)
(-0.0014502 0.00119663 2.07215e-19)
(0.0468421 -0.0196727 -1.02034e-17)
(-0.025388 -0.0448637 -4.33067e-18)
(0.000101291 -0.00023355 2.2689e-18)
(-0.00169058 -0.0021706 8.50488e-18)
(0.000363135 -1.26202e-05 -8.06246e-18)
(0.0206111 -0.014349 -1.15614e-18)
(-0.0771026 -0.000636832 7.81077e-18)
(0.00581328 0.00535159 4.25287e-18)
(0.000667175 0.000777562 -3.2848e-18)
(-0.0205521 -0.0450764 -4.65353e-18)
(0.0101986 -0.0242632 3.04389e-18)
(0.00016739 0.000757 -1.54262e-19)
(0.000290786 0.00045686 -2.32071e-20)
(0.0010891 -0.00353417 -4.62553e-19)
(0.000513488 7.2597e-05 4.53046e-19)
(0.015241 -0.0152035 -7.29162e-18)
(0.0465705 -0.0194503 1.22941e-18)
(0.000307707 -7.81053e-05 9.33742e-18)
(0.00145103 -0.000808117 -4.51809e-19)
(0.0967124 0.0208082 -5.64286e-18)
(0.00414905 0.00174818 -4.20336e-18)
(0.0152125 0.00135369 -6.60787e-19)
(-0.000846883 -0.00243123 4.71093e-18)
(0.000992601 -0.000989279 -1.90322e-18)
(0.0538921 -0.0794879 -3.72784e-18)
(0.00124188 -0.000590015 -2.94766e-18)
(0.00119864 0.000977984 -4.86031e-18)
(0.000353042 0.000164615 5.4114e-18)
(-0.00318095 -0.00283431 -3.80874e-18)
(0.00133708 0.0011482 -1.95973e-18)
(0.000667317 7.48981e-05 -6.30613e-19)
(-0.00211904 0.000964795 3.85699e-18)
(-0.00267253 -0.00794808 6.66748e-18)
(0.00991757 -0.0301742 7.43344e-18)
(0.014684 -0.0129988 -2.44489e-17)
(0.000782321 -0.000707074 -7.52187e-18)
(-0.00835516 0.00467583 3.57439e-19)
(0.0019253 -0.00057756 -1.13138e-17)
(-0.00299099 -0.00861867 -1.43568e-17)
(0.00837331 0.000484208 3.41565e-18)
(0.000510408 -0.00138565 2.35727e-18)
(0.0384134 -0.0662082 -1.97256e-18)
(0.00137811 -0.000630137 1.14255e-17)
(0.00794605 -0.0317899 -3.80114e-18)
(0.00057372 2.43135e-05 -1.49563e-18)
(-0.0101561 -0.00988738 -7.08664e-18)
(-0.000490441 0.00102088 -1.1998e-19)
(-0.000398601 0.000869099 6.01152e-20)
(-0.00583972 -0.0176278 7.60801e-18)
(-0.0987945 0.0263913 5.00107e-18)
(0.00187142 0.00473221 7.9861e-19)
(0.000811921 -0.00144501 2.52887e-18)
(-0.000227356 -8.89476e-05 -1.44701e-18)
(-0.0159276 0.0007846 -1.19615e-18)
(0.00010757 -0.000229445 -1.46106e-18)
(-0.0347024 -0.0047177 -6.26738e-20)
(-0.0377109 0.00681109 2.16569e-19)
(0.000460507 0.000407984 4.91491e-18)
(0.0789785 0.0443972 6.68996e-18)
(0.000383052 -2.21444e-05 2.49533e-18)
(0.0150994 -0.0115598 2.69541e-18)
(-0.0029871 -0.0023233 -3.47003e-18)
(-0.000131194 0.000650764 -1.32618e-19)
(0.000579085 -1.81281e-05 1.80953e-18)
(0.000583793 1.52338e-05 7.26954e-19)
(0.0141321 -0.00968351 -2.4e-18)
(0.000157269 -0.000205953 -2.21752e-18)
(-0.00203072 0.00121037 6.36553e-18)
(-0.00744261 -0.00964608 -5.21752e-18)
(0.000504816 2.44291e-05 3.14159e-18)
(5.17366e-05 -0.000326714 4.91731e-18)
(0.000313365 -5.80581e-05 -5.98733e-18)
(0.0289283 -0.122199 5.31848e-18)
(0.00358783 0.00486714 8.1964e-19)
(0.000450404 -5.60048e-05 -1.03479e-18)
(0.000593804 5.87848e-05 -1.2379e-19)
(0.00128116 0.00474711 9.12895e-18)
(-0.00303766 -0.00193098 -1.07615e-18)
(-0.00783622 -0.0102433 2.80728e-18)
(0.000361788 4.23938e-05 1.77554e-18)
(0.0514227 -0.0507065 -2.48792e-17)
(0.000725963 0.000912989 2.40018e-19)
(0.0392331 -0.0107853 -1.87087e-18)
(-0.00271077 -0.1914 1.07234e-17)
(0.00050814 4.18317e-05 1.43999e-18)
(0.000544699 4.106e-05 2.65508e-18)
(0.00139757 -0.00110416 -9.28436e-19)
(-0.0175841 0.000842048 -3.9776e-19)
(-0.00941258 -0.00484844 -9.5166e-18)
(-0.00301237 -0.00137147 -5.13749e-18)
(0.040611 -0.000531127 3.80245e-18)
(0.000368686 -2.13581e-05 2.71106e-18)
(0.00123402 -0.00112614 1.22785e-18)
(-0.0100767 -0.00459611 6.86432e-18)
(-0.00203201 0.00244924 -3.87498e-18)
(-0.0012755 0.000241146 -5.76978e-18)
(0.00508685 0.0011019 4.00901e-18)
(0.0182469 -0.0177898 1.85677e-18)
(-3.22731e-05 -0.00149303 6.28813e-18)
(-0.0139741 -0.00114392 1.61561e-18)
(-0.0023379 -0.00421461 1.69181e-17)
(0.00018594 -0.000882291 -2.00088e-18)
(-0.0442911 -0.00197871 -1.00791e-18)
(-0.0504252 -0.0496451 -7.85951e-18)
(-0.0387249 0.00181037 5.15243e-19)
(-0.000955042 0.00128666 -2.49424e-19)
(0.0751889 -0.019124 -1.12165e-17)
(-0.00371408 -0.00171083 1.22224e-18)
(0.0573395 0.0206289 1.34251e-18)
(-0.0138007 -0.0403182 2.43828e-17)
(-0.000634382 0.000225547 -7.02432e-20)
(0.00292696 -0.00432416 1.37438e-17)
(-0.0172691 -0.0399659 -1.30296e-18)
(0.00285752 0.00304553 8.5277e-18)
(0.0133016 0.00192949 -6.31187e-18)
(0.0179511 -0.0283604 9.14065e-18)
(0.000398121 0.000192556 -5.40109e-18)
(0.000531645 7.33369e-05 6.08769e-18)
(0.00024647 -0.00081896 -2.33508e-18)
(0.000679241 1.32392e-05 -1.82307e-18)
(-0.000989805 -0.00251949 8.76588e-19)
(-0.0522719 -0.0435233 7.88591e-18)
(0.000813961 0.000722442 4.06654e-18)
(0.00027652 -0.000779218 -1.56287e-18)
(0.0516381 -0.0489049 1.55518e-17)
(0.00378757 0.00224342 -2.29828e-18)
(-0.00188918 -0.000881448 1.46417e-19)
(-0.000744262 0.00138026 2.26414e-19)
(-0.00502135 0.0002958 -9.10206e-18)
(0.000371017 0.00016729 -2.90301e-18)
(-0.0215357 -0.0409394 -1.56123e-17)
(-0.00241933 -0.00205454 4.51734e-18)
(-0.000249419 -0.000191646 -6.26903e-18)
(-0.00130968 0.00199076 5.78184e-18)
(0.00400354 0.0029428 3.15401e-18)
(0.0329202 0.116755 3.082e-18)
(-0.000870994 -0.000917647 -3.80164e-18)
(-0.00627098 0.025576 2.6357e-18)
(0.000270898 0.000437848 -2.53541e-19)
(0.00250736 -0.0214748 -4.63414e-18)
(0.00131386 -0.0830813 -1.83141e-17)
(0.0337699 -0.0265932 -5.70832e-18)
(0.00315044 -0.0224056 -3.51673e-18)
(-0.00462339 0.000531521 8.90226e-18)
(0.000302239 0.00632948 8.22517e-18)
(-0.031319 -0.0588017 -1.65453e-18)
(0.000644435 -2.49788e-05 1.53578e-18)
(0.0446295 -0.0493416 1.57007e-18)
(0.00456316 0.000574097 -3.70313e-18)
(0.000543316 6.09744e-05 -7.57261e-19)
(-0.0102781 -0.176583 2.12585e-18)
(0.0125264 0.000990485 2.64313e-18)
(-0.0509253 -0.0555334 -5.62829e-18)
(-0.000246632 -0.000263368 6.44724e-18)
(0.0161215 -0.0161624 -2.9956e-18)
(-0.136192 0.184409 8.81335e-18)
(0.00354943 -0.00774769 2.9078e-18)
(0.000916911 0.000354978 -1.15017e-17)
(0.0354963 -0.126316 1.10183e-18)
(0.00169588 -0.00975611 -6.4884e-19)
(-0.0406944 0.0184101 8.47512e-20)
(-0.00871662 0.00363326 -9.09076e-18)
(-0.000613381 -0.000889819 -2.32887e-18)
(-0.00676735 -0.291241 -1.53123e-17)
(0.000340755 3.21354e-05 4.80532e-18)
(-0.0044432 -0.00134291 -3.81504e-18)
(0.000558252 -1.43057e-05 2.48553e-18)
(0.000493338 -4.56316e-05 -4.06979e-19)
(-0.00241429 -0.000779438 -1.17241e-18)
(-0.000705656 -0.000984338 2.27665e-19)
(-0.00776433 0.00305051 -2.3286e-19)
(0.0308196 0.132214 -2.11395e-18)
(-0.000823917 -0.00172185 8.56744e-19)
(0.275662 -0.00522005 -1.43172e-17)
(0.0448578 -0.0166497 -3.60736e-18)
(-0.0424597 -0.0495252 4.36835e-18)
(0.0113783 -0.0227455 -1.0797e-17)
(-0.0310428 0.00995844 1.77418e-19)
(0.000623682 5.18705e-05 -2.10305e-18)
(0.000230997 -0.000848213 -2.96575e-18)
(0.0758595 -0.0515523 -2.43198e-17)
(0.0428474 -0.0200162 -3.07442e-19)
(-0.000449764 -0.00261096 1.02823e-18)
(0.00053844 -0.0019327 -7.84547e-19)
(-0.0646199 0.0633926 -2.62224e-17)
(-0.00021339 3.54026e-05 2.82742e-18)
(-0.14766 0.308565 -3.24786e-18)
(0.00160124 -0.000824208 -1.28124e-17)
(-0.00802453 0.00210929 -1.15771e-17)
(-9.49681e-05 7.69074e-05 -1.43845e-18)
(-0.00829242 -0.0194015 1.10517e-18)
(0.000959343 0.000677388 -7.5238e-18)
(0.00173524 -0.0106009 9.85815e-19)
(0.065778 0.0619319 5.712e-18)
(0.000359955 -0.0017192 1.87531e-18)
(0.0217257 0.0623102 1.33272e-18)
(-0.0116272 -0.000511697 3.5922e-18)
(-0.00279066 -0.00218669 1.04546e-17)
(-0.011443 -0.00236983 -2.38634e-18)
(0.00399449 0.000715313 1.24146e-18)
(0.00147953 0.00526581 -6.06608e-18)
(-0.00194329 -0.00373473 -1.04884e-18)
(-0.12798 0.0375027 -8.83204e-18)
(0.000443156 -1.01685e-05 4.98769e-18)
(-0.00142736 0.000249316 1.39635e-17)
(0.0165307 -0.0298834 -2.09113e-17)
(-0.000376418 -0.000840228 1.36801e-18)
(0.00841071 -0.000522076 -6.00202e-18)
(-0.00345829 -0.00205173 -3.23909e-18)
(-0.00107773 0.000342727 -5.91607e-19)
(-0.000701567 -0.0143726 -7.33047e-18)
(0.000480731 2.73862e-05 5.59269e-18)
(-0.00142182 0.000543705 7.28331e-18)
(0.000202861 0.000236263 1.45478e-18)
(-0.00918513 0.0878629 -3.32724e-18)
(-0.00237209 -0.00266291 4.12589e-19)
(-0.0148517 0.0857757 4.6624e-18)
(0.00192041 0.00245247 3.97867e-18)
(0.031151 -0.0430187 4.8675e-18)
(0.000489509 6.77418e-05 -1.41606e-18)
(0.00278005 0.0024891 -8.03357e-18)
(0.000549824 -7.2969e-06 2.01555e-18)
(-0.00092997 -0.00153736 -5.28009e-18)
(0.0678224 -0.0324413 9.53978e-18)
(0.00310298 0.000490036 -4.10096e-20)
(-0.00433203 -0.0868073 -4.39598e-18)
(-0.00167376 -0.000263984 -4.01869e-18)
(0.00189765 -0.00127497 -6.37498e-18)
(-0.00419891 -0.00177926 1.24077e-18)
(-0.0795415 0.101387 1.27251e-17)
(0.0252811 0.00412781 1.03877e-18)
(0.0251948 -0.061252 -9.01116e-19)
(0.0240526 -0.0381016 5.15934e-18)
(0.00576092 0.00635069 -3.83803e-18)
(0.000164436 1.955e-06 2.1672e-18)
(-0.00503714 0.03414 -1.94767e-18)
(-0.00193947 -0.0143292 9.4208e-18)
(-0.00895278 -0.0176372 2.73716e-18)
(-0.0174301 0.0283823 -5.72878e-20)
(-0.0505194 -0.00550889 3.69921e-19)
(0.000393078 2.75201e-05 -1.03446e-17)
(-0.00865083 -0.00153132 -3.29466e-18)
(0.0154339 -0.0178214 2.06004e-17)
(-6.37983e-05 -8.95958e-05 5.22837e-19)
(0.00604342 0.000110776 -4.6565e-18)
(-2.01705e-05 1.09958e-05 -1.66013e-18)
(6.33362e-05 0.000598727 3.42399e-18)
(0.000526316 3.12608e-05 -5.76844e-19)
(-0.0559776 0.261095 -1.84831e-18)
(0.000986243 -0.0111995 2.72621e-18)
(0.0217323 -0.219532 -7.87797e-18)
(1.69243e-05 0.000706822 3.75121e-18)
(-0.0179836 0.00319347 -2.61817e-19)
(0.000388513 0.000388589 2.58235e-21)
(0.000629215 -3.98308e-05 2.15636e-18)
(0.000546867 -2.35118e-05 6.39259e-19)
(0.00534289 -0.000349488 2.4405e-18)
(-0.0019087 0.0334593 -2.18106e-18)
(0.00184674 0.00291584 -5.20066e-18)
(-0.00728296 -0.00178533 2.31889e-18)
(-3.22699e-05 0.000396048 -2.14295e-18)
(0.000353787 5.04565e-05 -1.00012e-19)
(0.00917409 -0.00215777 8.29664e-19)
(0.0256429 -0.0383632 -1.02531e-18)
(0.000513707 -2.65768e-05 4.92442e-18)
(0.000209548 4.67752e-06 -8.31231e-18)
(0.00293474 -0.196483 5.213e-18)
(0.0109349 0.00145782 -2.94709e-18)
(-0.00219052 -0.00224259 -6.96208e-19)
(0.0609897 -0.0124142 -7.26491e-18)
(0.0295709 -0.0397887 9.60108e-20)
(0.000505353 -4.85307e-05 -9.45467e-19)
(0.000502489 4.3261e-05 1.44671e-18)
(-0.00497573 -0.00135501 4.26584e-18)
(0.00940017 -0.00108551 6.33819e-18)
(-0.00168746 0.000546424 -7.21581e-18)
(0.00054821 1.7991e-05 6.16298e-18)
(0.000363001 -2.73567e-05 -4.81262e-18)
(0.0032158 0.00123678 -1.35951e-18)
(0.00206786 -0.000800072 2.3158e-18)
(0.00088578 -0.000755075 9.16806e-18)
(-0.0311968 0.0328715 5.68499e-20)
(0.00865934 -0.034524 1.15915e-17)
(0.000475376 8.59605e-05 -1.56624e-18)
(0.0517364 -0.0624339 -2.58098e-17)
(-0.0265435 -0.00571765 8.448e-18)
(0.00161406 0.000560445 -3.33191e-18)
(0.00291956 0.00516786 6.10646e-18)
(0.00474739 -0.00256523 -1.36733e-17)
(0.0576941 0.0278994 -6.89805e-19)
(-0.00331357 -0.001756 4.11301e-18)
(0.099813 -0.0347894 -6.54106e-18)
(-0.000828454 0.000146681 -3.9777e-20)
(0.00114876 -0.000895481 -1.39161e-18)
(0.0109876 -0.0263279 1.85896e-18)
(2.68161e-05 8.0823e-05 -3.02739e-19)
(0.00511065 -0.0171552 -8.48187e-18)
(-0.0179971 -0.155008 -2.5388e-18)
(-0.0155387 -0.00118542 -1.57761e-17)
(0.00167637 0.000431138 -3.2662e-19)
(0.230233 -0.0373181 2.58222e-18)
(0.0102851 0.000697048 4.55873e-18)
(0.000559333 -0.000428164 -1.97355e-18)
(0.000897477 -0.0021243 1.06958e-17)
(0.0210846 -0.0117124 -1.06804e-17)
(-0.000299179 -0.000342908 6.73361e-18)
(0.000513317 -0.000384938 1.23304e-18)
(0.000330973 4.57172e-05 1.46096e-18)
(-0.000194071 -0.000289065 -3.33448e-18)
(0.046486 -0.0822475 2.08467e-18)
(0.0157375 -0.0138273 9.91975e-18)
(-0.0247374 -0.00492876 -4.419e-18)
(0.0042448 0.00533772 5.48264e-18)
(0.000720363 -0.00192269 -7.46385e-18)
(8.03934e-05 -0.00113773 -7.56475e-18)
(-0.00045233 -0.000603175 2.53868e-19)
(0.000609721 1.73614e-05 -2.84486e-19)
(0.000363156 -3.89877e-05 1.23695e-17)
(0.0440025 0.0267811 -8.43047e-18)
(0.0357927 -0.0285299 -1.98442e-17)
(-0.000328588 -0.000145086 1.16248e-18)
(-0.00396632 0.00626383 3.44405e-18)
(0.0974722 -0.0528538 -1.34789e-18)
(0.000752601 0.00158297 -3.11628e-18)
(0.000641289 -0.0190895 2.02896e-18)
(-0.00892032 0.0270604 -7.14144e-19)
(0.000596393 3.75505e-05 1.56929e-19)
(0.016908 -0.0260418 -5.54116e-18)
(0.00427773 -0.263739 -2.16899e-18)
(9.97332e-05 -0.00021275 1.70054e-18)
(0.0433207 -0.00966898 -1.76821e-17)
(-0.00014607 0.000581925 -8.83641e-20)
(-0.0534287 0.230671 -3.42928e-19)
(-0.0058921 -0.00920481 -1.12368e-17)
(-0.0194864 -0.254073 9.02606e-19)
(0.000947822 0.000377174 1.24553e-17)
(0.000850648 -0.000929584 -3.57577e-18)
(-0.00334133 -0.00265579 2.47647e-18)
(-0.0173029 -0.0231355 -6.42207e-20)
(-0.000428769 0.00689632 -1.48585e-17)
(0.0681168 -0.00260561 8.76702e-18)
(0.0602326 -0.0428222 6.87773e-18)
(0.201536 -0.0112714 -1.37093e-17)
(0.0055017 -0.0181602 8.7569e-18)
(0.0877891 -0.0344646 -5.37739e-18)
(-0.0107815 -0.0172145 -7.3909e-18)
(0.000586659 7.53041e-05 -6.69243e-18)
(0.00624803 -0.0125879 -1.33413e-17)
(-0.00308956 0.00597188 3.39302e-18)
(0.0221958 -0.101359 -4.26425e-18)
(-0.00117616 -0.000535263 1.22955e-17)
(0.0385649 -0.0522689 -5.73718e-18)
(0.000662173 0.000454446 -1.17264e-18)
(-0.0106283 -0.0341288 -1.99198e-19)
(0.00057513 -7.88337e-05 -1.98671e-18)
(0.0010486 -0.00218072 8.60253e-18)
(0.000219912 -0.0010353 9.37652e-18)
(0.0474072 -0.0138699 2.77605e-18)
(0.000394532 0.000548043 4.0726e-18)
(0.000529229 1.14421e-05 -1.0432e-19)
(-9.17183e-05 -0.00380609 -4.45789e-18)
(-0.00339104 -0.00439513 1.84324e-18)
(0.000982507 -0.0120019 -1.04954e-17)
(0.00112171 0.000554696 -6.43852e-18)
(0.000146968 0.000111112 -3.94514e-18)
(0.00063366 0.00140306 -5.32768e-18)
(0.000707303 0.00130007 6.30384e-18)
(-0.0350838 -0.0228302 -6.4218e-19)
(0.000422923 0.00011177 -2.40704e-18)
(-0.0470234 -0.00370628 -8.44107e-19)
(-0.142791 0.247953 1.05974e-17)
(0.000505646 7.26587e-05 3.88889e-18)
(0.000630776 -1.89969e-05 -2.4068e-18)
(-0.0198752 0.00331341 -5.49477e-19)
(0.000361962 -0.00202957 -8.79158e-19)
(3.54789e-05 -3.69415e-06 8.24421e-19)
(-0.0020789 0.00178799 -1.67778e-17)
(0.00456205 -0.00727085 -1.15561e-17)
(-0.00513081 -0.00968472 2.53975e-17)
(0.00131714 -0.00298583 4.67911e-18)
(-0.00302786 -0.0047168 -8.05304e-19)
(0.000509558 -0.000178425 5.70816e-18)
(0.00566 -0.00242225 5.23544e-18)
(-0.00411328 0.00039118 -1.01331e-17)
(-0.00400745 -0.0087073 1.25002e-17)
(-0.00170598 0.00239537 2.03451e-18)
(-0.00562924 0.000152138 1.42677e-17)
(-0.0335965 0.00033401 -2.40158e-19)
(4.43404e-05 0.00106257 -8.98966e-18)
(-0.117381 0.0203491 6.69723e-19)
(0.00230554 -0.00860035 -7.30793e-18)
(0.000573149 -2.04251e-05 -2.77365e-19)
(0.000101788 9.77293e-05 5.55868e-18)
(0.000599279 0.000315583 -1.02299e-18)
(0.00346778 0.00627249 -1.3542e-18)
(0.00328744 0.0073389 -3.46481e-18)
(0.00112961 -0.000693467 -4.47747e-18)
(0.00198555 0.00357735 -1.06907e-18)
(0.00053413 0.00039634 3.01691e-20)
(0.000135101 -0.00132015 2.59836e-19)
(0.00244269 0.00354459 2.18703e-18)
(0.000362078 9.89801e-05 8.77494e-18)
(-0.00692348 0.00571287 -2.15422e-19)
(0.000487273 4.91124e-06 -2.11606e-18)
(0.00089436 -0.00236859 -1.23062e-19)
(0.000632696 -2.37827e-05 6.56799e-19)
(-0.000467102 -0.000954092 1.47456e-18)
(-0.00593964 0.0056992 -9.19024e-19)
(0.0012943 -0.00319881 -8.34011e-18)
(0.00654445 -0.0136168 1.08873e-17)
(0.000495902 6.09641e-05 -2.53906e-18)
(0.000889117 -0.0004043 4.86553e-18)
(9.80152e-05 6.09115e-05 4.13972e-18)
(0.000614482 -0.000225236 9.64662e-19)
(0.00160373 0.000401734 2.34564e-18)
(0.000434694 4.68488e-05 1.41996e-18)
(0.00173852 0.000594411 -5.3649e-20)
(0.000261088 -0.000676749 2.38129e-18)
(2.34003e-05 0.000981255 2.12305e-18)
(0.000512081 0.000557535 1.20016e-18)
(-0.00411458 -0.0207451 7.25548e-18)
(0.000620674 -5.49832e-06 3.03069e-20)
(0.000500874 2.63128e-05 5.52919e-19)
(3.37133e-08 -3.91718e-05 -4.97565e-18)
(0.0279361 -0.0511906 3.34434e-18)
(0.000589682 0.000118072 -8.2729e-18)
(-5.26934e-05 0.000172089 2.05082e-18)
(0.0168412 -0.0218851 9.03727e-18)
(-0.000225443 0.000457324 1.40037e-19)
(0.00418875 -0.000737683 2.97749e-18)
(0.0498534 -0.0143329 1.09702e-18)
(-0.0012512 -0.00523999 -6.79042e-18)
(0.000583917 -4.13435e-06 -2.67911e-18)
(0.000568846 3.36595e-05 -2.40871e-19)
(0.0325772 -0.0198535 -3.9339e-18)
(0.000549171 0.000305294 2.64398e-18)
(0.0165677 -0.0189635 -3.39495e-17)
(0.182069 -0.0406892 -8.19981e-18)
(-0.0183311 -0.117408 -1.31925e-17)
(0.042522 -0.0382989 -3.54875e-18)
(0.00388371 -0.000485921 -6.98928e-18)
(-2.97532e-05 -0.000192022 -8.16512e-18)
(-0.0551544 -0.0087792 4.28702e-18)
(-0.00464424 0.00254733 -7.9001e-18)
(0.000109301 0.000245884 4.30001e-19)
(-0.0343861 0.0147503 -9.90327e-20)
(0.0430902 -0.0441247 -3.48932e-18)
(0.128479 -0.0357353 4.32729e-18)
(6.46534e-05 5.6397e-05 -3.39392e-18)
(0.0223698 -0.0126089 1.15004e-18)
(-3.89313e-05 -0.000249192 8.79363e-18)
(2.92915e-05 -6.76535e-05 5.20901e-18)
(-0.10196 0.319638 1.95627e-17)
(0.000368006 5.64224e-05 -5.67553e-18)
(-0.0500207 0.0652983 -5.48177e-18)
(0.00799426 0.000228979 -5.65727e-18)
(0.00652942 -0.0361591 -4.89504e-18)
(0.000815727 -0.000375025 -2.64574e-18)
(-0.00663827 -0.00449921 4.4714e-18)
(-0.00373979 0.000633554 9.20019e-18)
(0.0461375 -0.0104156 2.79575e-17)
(0.0296166 -0.0298165 2.646e-18)
(0.00173464 -0.00105889 2.72352e-18)
(0.00718116 0.000583991 5.00658e-18)
(0.00600847 -0.00812775 -9.35197e-19)
(0.000342576 -0.000598891 -5.35447e-18)
(0.00903618 0.00102724 -8.70182e-18)
(0.0157951 -0.0208185 2.9357e-18)
(0.0665401 -0.0351869 -8.85344e-18)
(0.000940484 0.000287585 1.39806e-18)
(-0.00236851 -0.0191862 3.53955e-20)
(-0.0048042 0.00189622 -7.31291e-19)
(-0.048328 -0.0733012 -5.94598e-18)
(-0.00468161 -0.0166774 -1.03751e-18)
(0.0129022 -0.162472 -2.15326e-18)
(-0.0459165 -0.0130626 2.54736e-18)
(0.0012759 -0.00320844 -9.74529e-18)
(0.0134826 0.0116976 3.92051e-18)
(0.0304829 -0.0251102 -5.07325e-18)
(0.000586034 0.000165 -1.19494e-17)
(0.000376883 0.000116174 -1.6082e-18)
(0.000595388 -4.08819e-06 3.88359e-18)
(0.0025448 -0.00481268 5.1879e-18)
(0.000365572 0.000428218 -5.4702e-18)
(0.0152316 0.157807 -2.73467e-19)
(0.000269646 0.000285262 -9.18177e-19)
(-0.0380158 -0.000610173 -1.74443e-18)
(0.00250592 -0.00426671 -5.94111e-18)
(0.0265622 -0.0189815 -2.38804e-18)
(0.0130832 -0.026711 -3.63472e-18)
(-0.000468145 -0.000689136 -1.59939e-18)
(0.0197239 -0.0604391 -4.08402e-18)
(-0.0333005 0.16155 5.27574e-18)
(-0.0018833 -0.00176721 -1.39512e-17)
(-0.0139298 -0.287033 9.90787e-18)
(0.0119919 0.0116587 -2.57606e-19)
(0.0268018 -0.015586 -4.18311e-18)
(0.00027333 0.000394343 8.91448e-19)
(-0.000107653 0.000421774 2.89482e-19)
(0.00854123 -0.133212 -2.15217e-18)
(0.00172613 0.00151698 -1.35226e-17)
(0.0342476 -0.0346389 -1.80253e-19)
(0.000555903 -6.30274e-05 -2.53172e-18)
(-0.0500903 -0.0147961 -2.5914e-19)
(-0.000163865 -0.000288926 -6.47005e-19)
(0.027643 -0.027872 5.85859e-18)
(0.000999315 -0.142923 -1.92998e-18)
(0.00085971 -0.00341947 9.65707e-18)
(0.15615 -0.067274 1.01103e-17)
(0.000309669 -6.75865e-05 1.27335e-18)
(0.000124558 -0.0040138 5.49973e-18)
(0.0037708 -0.0194575 3.19283e-18)
(-0.115909 0.309648 -5.57591e-18)
(-0.109628 0.259311 1.13005e-17)
(0.00193177 -8.70932e-05 1.188e-18)
(-0.000314174 -0.000273943 5.64315e-18)
(-0.000121031 0.000289441 -5.16819e-19)
(-0.0138836 -0.149744 -1.22687e-19)
(0.0162861 -0.0110706 -1.10478e-17)
(0.000275708 -3.36303e-05 2.14724e-18)
(0.00850082 0.00874967 -1.1281e-17)
(0.00381264 -0.0212004 -2.81715e-18)
(7.42724e-05 0.000360454 -1.592e-18)
(0.000728484 3.95054e-05 6.22644e-19)
(3.90418e-05 0.00524965 -8.28105e-18)
(-0.0533078 0.0567507 -5.73451e-18)
(0.00320434 -0.0119551 -4.45007e-18)
(0.00201222 0.00185934 4.28102e-18)
(0.000632337 -5.37528e-05 -2.33779e-19)
(0.000245447 0.000386371 2.78599e-18)
(0.0471033 -0.0342332 1.05765e-18)
(0.102955 -0.0371571 -3.90685e-19)
(-0.018777 -9.18822e-05 1.49993e-18)
(0.000608936 -0.000273265 5.90386e-19)
(0.000580105 -2.87485e-06 -1.26673e-17)
(0.0205297 -0.0593243 -4.58616e-19)
(0.000374019 9.20964e-05 -8.55892e-18)
(-0.00610354 -0.266998 -1.65764e-18)
(-0.00127257 -0.0271464 -9.59941e-18)
(-0.0287749 0.000630494 3.13699e-18)
(0.0117959 -0.0607695 -1.54188e-18)
(-0.049849 -0.0175747 5.95256e-19)
(7.908e-05 -0.000167744 1.22995e-18)
(-0.000359927 -0.000730763 -4.30023e-18)
(-0.00072632 -0.00660129 1.07612e-17)
(-0.000195301 -0.0033064 9.55904e-18)
(-0.00439877 -0.00929928 -3.4522e-17)
(0.000317609 5.61697e-05 -1.23517e-17)
(0.0223451 -0.0144686 -8.46952e-18)
(-0.0574362 -0.00752547 -3.00614e-18)
(-5.18019e-05 9.5156e-05 3.68876e-19)
(-0.0233221 0.181338 7.60479e-18)
(0.000293814 0.000355277 -9.17544e-19)
(-0.0355988 0.124189 -9.08444e-19)
(1.32622e-05 -0.00133717 8.73512e-19)
(-0.00363745 -0.0759511 -4.74421e-19)
(-0.00728501 0.00900466 2.79272e-18)
(0.000555348 -0.00985909 -4.61477e-18)
(0.00118105 0.000240295 9.85398e-20)
(0.00400533 -0.00204942 -1.67779e-18)
(-0.0112181 -0.00888989 1.08026e-18)
(-0.0455255 -0.0102706 -8.00605e-19)
(0.0317987 -0.0376064 6.8766e-18)
(0.000384437 0.00181913 -9.85035e-19)
(-0.0122434 -0.0190336 9.6259e-18)