/*--------------------------------*- C++ -*----------------------------------*\
| =========                 |                                                 |
| \\      /  F ield         | OpenFOAM: The Open Source CFD Toolbox           |
|  \\    /   O peration     | Version:  v2012                                 |
|   \\  /    A nd           | Website:  www.openfoam.com                      |
|    \\/     M anipulation  |                                                 |
\*---------------------------------------------------------------------------*/
FoamFile
{
    version     2.0;
    format      ascii;
    class       pointVectorField;
    location    "450";
    object      pointDisplacement;
}
// * * * * * * * * * * * * * * * * * * * * * * * * * * * * * * * * * * * * * //

dimensions      [0 1 0 0 0 0 0];


internalField   nonuniform List<vector> 
10142
(
(0 0 0)
(0 0 0)
(0 0 0)
(0 0 0)
(0 0 0)
(0 0 0)
(0 0 0)
(0 0 0)
(0 0 0)
(0 0 0)
(0 0 0)
(0 0 0)
(0 0 0)
(0 0 0)
(0 0 0)
(0 0 0)
(0 0 0)
(0 0 0)
(0 0 0)
(0 0 0)
(0 0 0)
(0 0 0)
(0 0 0)
(0 0 0)
(0 0 0)
(0 0 0)
(0 0 0)
(0 0 0)
(0 0 0)
(0 0 0)
(0 0 0)
(0 0 0)
(0 0 0)
(0 0 0)
(0 0 0)
(0 0 0)
(0 0 0)
(0 0 0)
(0 0 0)
(0 0 0)
(0 0 0)
(0 0 0)
(0 0 0)
(0 0 0)
(0 0 0)
(0 0 0)
(0 0 0)
(0 0 0)
(0 0 0)
(0 0 0)
(0 0 0)
(0 0 0)
(0 0 0)
(0 0 0)
(0 0 0)
(0 0 0)
(0 0 0)
(0 0 0)
(0 0 0)
(0 0 0)
(0 0 0)
(0 0 0)
(0 0 0)
(0 0 0)
(0 0 0)
(0 0 0)
(0 0 0)
(0 0 0)
(0 0 0)
(0 0 0)
(0 0 0)
(0 0 0)
(0 0 0)
(0 0 0)
(0 0 0)
(0 0 0)
(0 0 0)
(0 0 0)
(0 0 0)
(0 0 0)
(0 0 0)
(0 0 0)
(0 0 0)
(0 0 0)
(0 0 0)
(0 0 0)
(0 0 0)
(0 0 0)
(0 0 0)
(0 0 0)
(0 0 0)
(0 0 0)
(0 0 0)
(0 0 0)
(0 0 0)
(0 0 0)
(0 0 0)
(0 0 0)
(0 0 0)
(0 0 0)
(0 0 0)
(0 0 0)
(0 0 0)
(0 0 0)
(0 0 0)
(0 0 0)
(0 0 0)
(0 0 0)
(0 0 0)
(0 0 0)
(0 0 0)
(0 0 0)
(0 0 0)
(0 0 0)
(0 0 0)
(0 0 0)
(0 0 0)
(0 0 0)
(0 0 0)
(0 0 0)
(0 0 0)
(0 0 0)
(0 0 0)
(0 0 0)
(0 0 0)
(0 0 0)
(0 0 0)
(0 0 0)
(0 0 0)
(0 0 0)
(0 0 0)
(0 0 0)
(0 0 0)
(0 0 0)
(0 0 0)
(0 0 0)
(0 0 0)
(0 0 0)
(0 0 0)
(0 0 0)
(0 0 0)
(0 0 0)
(0 0 0)
(0 0 0)
(0 0 0)
(0 0 0)
(0 0 0)
(0 0 0)
(0 0 0)
(0 0 0)
(0 0 0)
(0 0 0)
(0 0 0)
(0 0 0)
(0 0 0)
(0 0 0)
(0 0 0)
(0 0 0)
(0 0 0)
(0 0 0)
(0 0 0)
(0 0 0)
(0 0 0)
(0 0 0)
(0 0 0)
(0 0 0)
(0 0 0)
(0 0 0)
(0 0 0)
(0 0 0)
(0 0 0)
(0 0 0)
(0 0 0)
(0 0 0)
(0 0 0)
(0 0 0)
(0 0 0)
(0 0 0)
(0 0 0)
(0 0 0)
(0 0 0)
(0 0 0)
(0 0 0)
(0 0 0)
(0 0 0)
(0 0 0)
(0 0 0)
(0 0 0)
(0 0 0)
(0 0 0)
(0 0 0)
(0 0 0)
(0 0 0)
(0 0 0)
(0 0 0)
(0 0 0)
(0 0 0)
(0 0 0)
(0 0 0)
(0 0 0)
(0 0 0)
(0 0 0)
(0 0 0)
(0 0 0)
(0 0 0)
(0 0 0)
(0 0 0)
(0 0 0)
(0 0 0)
(0 0 0)
(0 0 0)
(0 0 0)
(0 0 0)
(0 0 0)
(0 0 0)
(0 0 0)
(0 0 0)
(0 0 0)
(0 0 0)
(0 0 0)
(0 0 0)
(0 0 0)
(0 0 0)
(0 0 0)
(0 0 0)
(0 0 0)
(0 0 0)
(0 0 0)
(0 0 0)
(0 0 0)
(0 0 0)
(0 0 0)
(0 0 0)
(0 0 0)
(0 0 0)
(0 0 0)
(0 0 0)
(0 0 0)
(0 0 0)
(0 0 0)
(0 0 0)
(0 0 0)
(0 0 0)
(0 0 0)
(0 0 0)
(0 0 0)
(0 0 0)
(0 0 0)
(0 0 0)
(0 0 0)
(0 0 0)
(0 0 0)
(0 0 0)
(0 0 0)
(0 0 0)
(0 0 0)
(0 -0.0010405 0)
(0 -0.00136159 0)
(0 -0.00065701 0)
(0 -0.000641728 0)
(0 -0.000376917 0)
(0 -0.00142015 0)
(0 -0.000287847 0)
(0 -0.00183988 0)
(0 -0.000182585 0)
(0 -0.0017199 0)
(0 -0.000236159 0)
(0 -0.000136943 0)
(0 -0.000153543 0)
(0 -0.000747657 0)
(0 -0.000127285 0)
(0 -0.000109786 0)
(0 -9.62033e-05 0)
(0 -0.00100895 0)
(0 -0.000449614 0)
(0 -0.000334035 0)
(0 -8.2919e-05 0)
(0 -5.29391e-05 0)
(0 -0.00188822 0)
(0 -0.00156394 0)
(0 -0.00166733 0)
(0 -0.00114938 0)
(0 -0.000606143 0)
(0 -0.000171351 0)
(0 -0.000229661 0)
(0 -0.000175036 0)
(0 -0.000155219 0)
(0 -5.36615e-05 0)
(0 -3.2903e-05 0)
(0 -2.79731e-05 0)
(0 -0.00132038 0)
(0 -0.00124804 0)
(0 -0.000950904 0)
(0 -0.0007298 0)
(0 -0.000846959 0)
(0 -0.000478754 0)
(0 -0.000262087 0)
(0 -0.000326282 0)
(0 -0.000512745 0)
(0 -9.65415e-05 0)
(0 -0.000328545 0)
(0 -0.000167626 0)
(0 -0.000125258 0)
(0 -0.000102741 0)
(0 -7.14744e-05 0)
(0 -0.000137906 0)
(0 -1.4084e-05 0)
(0 -0.0285817 0)
(0 -0.0286932 0)
(0 -0.0285888 0)
(0 -0.028699 0)
(0 -0.0285926 0)
(0 -0.028701 0)
(0 -0.0285925 0)
(0 -0.0286982 0)
(0 -0.028588 0)
(0 -0.0286911 0)
(0 -0.0285793 0)
(0 -0.0286789 0)
(0 -0.0285666 0)
(0 -0.0286628 0)
(0 -0.0285472 0)
(0 -0.0286441 0)
(0 -0.0285243 0)
(0 -0.0286191 0)
(0 -0.0284953 0)
(0 -0.0285852 0)
(0 -0.0284525 0)
(0 -0.0285472 0)
(0 -0.0284092 0)
(0 -0.0285028 0)
(0 -0.0283654 0)
(0 -0.0284522 0)
(0 -0.0283108 0)
(0 -0.0283956 0)
(0 -0.028246 0)
(0 -0.0283311 0)
(0 -0.028177 0)
(0 -0.0282596 0)
(0 -0.0281021 0)
(0 -0.0281813 0)
(0 -0.028019 0)
(0 -0.028094 0)
(0 -0.0279258 0)
(0 -0.0279976 0)
(0 -0.0278266 0)
(0 -0.0278963 0)
(0 -0.0277249 0)
(0 -0.0277891 0)
(0 -0.0276107 0)
(0 -0.0276725 0)
(0 -0.0274881 0)
(0 -0.0275479 0)
(0 -0.0273581 0)
(0 -0.0274092 0)
(0 -0.027213 0)
(0 -0.0272586 0)
(0 -0.0270587 0)
(0 -0.0270987 0)
(0 -0.026892 0)
(0 -0.0272999 0)
(0 -0.0271282 0)
(0 -0.0268507 0)
(0 -0.0266826 0)
(0 -0.0277307 0)
(0 -0.0282602 0)
(0 -0.0284724 0)
(0 -0.0266294 0)
(0 -0.0264633 0)
(0 -0.0263957 0)
(0 -0.0262293 0)
(0 -0.0261578 0)
(0 -0.0259888 0)
(0 -0.0259068 0)
(0 -0.02573 0)
(0 -0.0256383 0)
(0 -0.025461 0)
(0 -0.0253694 0)
(0 -0.0251867 0)
(0 -0.0250858 0)
(0 -0.024892 0)
(0 -0.0247846 0)
(0 -0.0245844 0)
(0 -0.0244791 0)
(0 -0.0242787 0)
(0 -0.0241703 0)
(0 -0.0239784 0)
(0 -0.0238643 0)
(0 -0.0236845 0)
(0 -0.0237829 0)
(0 -0.0234873 0)
(0 -0.0235794 0)
(0 -0.0232751 0)
(0 -0.0233698 0)
(0 -0.0230603 0)
(0 -0.0231524 0)
(0 -0.0228438 0)
(0 -0.0229233 0)
(0 -0.0226099 0)
(0 -0.0226777 0)
(0 -0.0223581 0)
(0 -0.0224244 0)
(0 -0.0221071 0)
(0 -0.0221656 0)
(0 -0.0218506 0)
(0 -0.0218959 0)
(0 -0.0215774 0)
(0 -0.021293 0)
(0 -0.0212532 0)
(0 -0.0209695 0)
(0 -0.0206778 0)
(0 -0.0227659 0)
(0 -0.0206384 0)
(0 -0.0203458 0)
(0 -0.0200043 0)
(0 -0.0197118 0)
(0 -0.0193691 0)
(0 -0.0190743 0)
(0 -0.0190224 0)
(0 -0.0187304 0)
(0 -0.0184332 0)
(0 -0.0183824 0)
(0 -0.0180884 0)
(0 -0.0177402 0)
(0 -0.0174449 0)
(0 -0.0170989 0)
(0 -0.0168024 0)
(0 -0.0167516 0)
(0 -0.0164619 0)
(0 -0.0161656 0)
(0 -0.0161308 0)
(0 -0.0158304 0)
(0 -0.0154723 0)
(0 -0.0151908 0)
(0 -0.0148586 0)
(0 -0.0145821 0)
(0 -0.0240401 0)
(0 -0.0145339 0)
(0 -0.0142536 0)
(0 -0.0139719 0)
(0 -0.0138992 0)
(0 -0.0136406 0)
(0 -0.0133176 0)
(0 -0.0130591 0)
(0 -0.0127457 0)
(0 -0.0124763 0)
(0 -0.0124327 0)
(0 -0.0121698 0)
(0 -0.011898 0)
(0 -0.0118715 0)
(0 -0.0116088 0)
(0 -0.011339 0)
(0 -0.0113141 0)
(0 -0.0110628 0)
(0 -0.0282515 0)
(0 -0.0107735 0)
(0 -0.0105311 0)
(0 -0.01025 0)
(0 -0.0100108 0)
(0 -0.00997029 0)
(0 -0.00973704 0)
(0 -0.00950332 0)
(0 -0.00945878 0)
(0 -0.00923569 0)
(0 -0.00896853 0)
(0 -0.00875436 0)
(0 -0.00850242 0)
(0 -0.00828731 0)
(0 -0.0082516 0)
(0 -0.00804205 0)
(0 -0.00783159 0)
(0 -0.00779865 0)
(0 -0.00759439 0)
(0 -0.00735859 0)
(0 -0.0285854 0)
(0 -0.028756 0)
(0 -0.0237245 0)
(0 -0.0238837 0)
(0 -0.0235567 0)
(0 -0.023705 0)
(0 -0.023369 0)
(0 -0.0235034 0)
(0 -0.0231088 0)
(0 -0.0232787 0)
(0 -0.0229131 0)
(0 -0.0230333 0)
(0 -0.0226693 0)
(0 -0.0227766 0)
(0 -0.0223974 0)
(0 -0.0225001 0)
(0 -0.0221003 0)
(0 -0.0221895 0)
(0 -0.0217834 0)
(0 -0.021879 0)
(0 -0.0214444 0)
(0 -0.0215389 0)
(0 -0.021076 0)
(0 -0.0210097 0)
(0 -0.0206212 0)
(0 -0.0205595 0)
(0 -0.0201559 0)
(0 -0.0200908 0)
(0 -0.0211389 0)
(0 -0.0216126 0)
(0 -0.0196814 0)
(0 -0.0196196 0)
(0 -0.0211857 0)
(0 -0.0216535 0)
(0 -0.019207 0)
(0 -0.0191393 0)
(0 -0.0212186 0)
(0 -0.0216833 0)
(0 -0.0186708 0)
(0 -0.0186513 0)
(0 -0.021236 0)
(0 -0.0216818 0)
(0 -0.0212362 0)
(0 -0.0216695 0)
(0 -0.0181982 0)
(0 -0.0181647 0)
(0 -0.0212257 0)
(0 -0.0216697 0)
(0 -0.0177134 0)
(0 -0.0176677 0)
(0 -0.021206 0)
(0 -0.0216587 0)
(0 -0.0177571 0)
(0 -0.0211705 0)
(0 -0.0216247 0)
(0 -0.0172116 0)
(0 -0.0171701 0)
(0 -0.0207126 0)
(0 -0.0211216 0)
(0 -0.0215748 0)
(0 -0.0167009 0)
(0 -0.0166614 0)
(0 -0.0210614 0)
(0 -0.0215087 0)
(0 -0.0161833 0)
(0 -0.0161487 0)
(0 -0.0209754 0)
(0 -0.0214228 0)
(0 -0.022481 0)
(0 -0.0156585 0)
(0 -0.0156373 0)
(0 -0.02086 0)
(0 -0.0213198 0)
(0 -0.021871 0)
(0 -0.0217664 0)
(0 -0.0212044 0)
(0 -0.0216483 0)
(0 -0.0221065 0)
(0 -0.0151301 0)
(0 -0.0151232 0)
(0 -0.0210849 0)
(0 -0.0215321 0)
(0 -0.0220849 0)
(0 -0.0219681 0)
(0 -0.0213986 0)
(0 -0.0218314 0)
(0 -0.0212427 0)
(0 -0.0216787 0)
(0 -0.0146047 0)
(0 -0.0146091 0)
(0 -0.0151021 0)
(0 -0.0145988 0)
(0 -0.0140954 0)
(0 -0.0140932 0)
(0 -0.0157018 0)
(0 -0.0223849 0)
(0 -0.0288037 0)
(0 -0.0210569 0)
(0 -0.0215074 0)
(0 -0.014575 0)
(0 -0.0140784 0)
(0 -0.0135869 0)
(0 -0.0135802 0)
(0 -0.013083 0)
(0 -0.0130847 0)
(0 -0.0135607 0)
(0 -0.0130732 0)
(0 -0.0125913 0)
(0 -0.0125871 0)
(0 -0.0203955 0)
(0 -0.0130497 0)
(0 -0.0125751 0)
(0 -0.0121045 0)
(0 -0.0121042 0)
(0 -0.0116267 0)
(0 -0.0116344 0)
(0 -0.0121155 0)
(0 -0.0116429 0)
(0 -0.0111681 0)
(0 -0.0111683 0)
(0 -0.0116192 0)
(0 -0.0111553 0)
(0 -0.0107124 0)
(0 -0.0107094 0)
(0 -0.0208614 0)
(0 -0.0213174 0)
(0 -0.0203113 0)
(0 -0.0102652 0)
(0 -0.0102654 0)
(0 -0.010687 0)
(0 -0.0102512 0)
(0 -0.00983151 0)
(0 -0.00982569 0)
(0 -0.0233978 0)
(0 -0.017159 0)
(0 -0.0102253 0)
(0 -0.00980809 0)
(0 -0.00940846 0)
(0 -0.00939885 0)
(0 -0.00899881 0)
(0 -0.00899636 0)
(0 -0.00937246 0)
(0 -0.00898012 0)
(0 -0.00860138 0)
(0 -0.00859791 0)
(0 -0.00897241 0)
(0 -0.00859346 0)
(0 -0.00821939 0)
(0 -0.00821681 0)
(0 -0.00784555 0)
(0 -0.00784165 0)
(0 -0.00817881 0)
(0 -0.00782292 0)
(0 -0.00748232 0)
(0 -0.00747247 0)
(0 -0.00779732 0)
(0 -0.00745317 0)
(0 -0.00712834 0)
(0 -0.00711461 0)
(0 -0.00679236 0)
(0 -0.00678523 0)
(0 -0.00708835 0)
(0 -0.00676994 0)
(0 -0.00646529 0)
(0 -0.0064542 0)
(0 -0.0206561 0)
(0 -0.0211056 0)
(0 -0.0217499 0)
(0 -0.0215409 0)
(0 -0.0221607 0)
(0 -0.0219582 0)
(0 -0.0213146 0)
(0 -0.0217485 0)
(0 -0.0210731 0)
(0 -0.0215116 0)
(0 -0.00674078 0)
(0 -0.00643353 0)
(0 -0.00614719 0)
(0 -0.00613265 0)
(0 -0.00584773 0)
(0 -0.00583854 0)
(0 -0.00610642 0)
(0 -0.00582102 0)
(0 -0.00555402 0)
(0 -0.00554332 0)
(0 -0.00582326 0)
(0 -0.00552064 0)
(0 -0.00527479 0)
(0 -0.00525121 0)
(0 -0.00547398 0)
(0 -0.00522214 0)
(0 -0.00498922 0)
(0 -0.00496788 0)
(0 -0.00519144 0)
(0 -0.00494049 0)
(0 -0.00515375 0)
(0 -0.00490498 0)
(0 -0.00510784 0)
(0 -0.00486203 0)
(0 -0.00466154 0)
(0 -0.00462244 0)
(0 -0.00481218 0)
(0 -0.00457655 0)
(0 -0.0043891 0)
(0 -0.00434733 0)
(0 -0.00452403 0)
(0 -0.00429867 0)
(0 -0.00446505 0)
(0 -0.00424302 0)
(0 -0.00439984 0)
(0 -0.0041814 0)
(0 -0.00432878 0)
(0 -0.00411389 0)
(0 -0.00396802 0)
(0 -0.0039041 0)
(0 -0.00404088 0)
(0 -0.00383446 0)
(0 -0.0039625 0)
(0 -0.00375926 0)
(0 -0.00387936 0)
(0 -0.00367869 0)
(0 -0.00379122 0)
(0 -0.00356087 0)
(0 -0.00359287 0)
(0 -0.00369717 0)
(0 -0.00350199 0)
(0 -0.00359891 0)
(0 -0.00340645 0)
(0 -0.00349692 0)
(0 -0.00330685 0)
(0 -0.00339085 0)
(0 -0.00416336 0)
(0 -0.00321733 0)
(0 -0.00320327 0)
(0 -0.00328087 0)
(0 -0.00309562 0)
(0 -0.00316714 0)
(0 -0.0255363 0)
(0 -0.0208122 0)
(0 -0.0212572 0)
(0 -0.00298401 0)
(0 -0.00304978 0)
(0 -0.0225527 0)
(0 -0.00358171 0)
(0 -0.0205253 0)
(0 -0.0209708 0)
(0 -0.0258125 0)
(0 -0.0028686 0)
(0 -0.00292898 0)
(0 -0.00280328 0)
(0 -0.00311023 0)
(0 -0.00298418 0)
(0 -0.0031651 0)
(0 -0.00303403 0)
(0 -0.00399421 0)
(0 -0.0190906 0)
(0 -0.0202037 0)
(0 -0.0217567 0)
(0 -0.0197101 0)
(0 -0.00285529 0)
(0 -0.00290043 0)
(0 -0.00321427 0)
(0 -0.004549 0)
(0 -0.00272355 0)
(0 -0.00276423 0)
(0 -0.00258904 0)
(0 -0.00262557 0)
(0 -0.002452 0)
(0 -0.00248488 0)
(0 -0.00265727 0)
(0 -0.00251312 0)
(0 -0.00268407 0)
(0 -0.0225484 0)
(0 -0.00231275 0)
(0 -0.0022789 0)
(0 -0.020786 0)
(0 -0.0221789 0)
(0 -0.00214067 0)
(0 -0.00210611 0)
(0 -0.0279519 0)
(0 -0.0220452 0)
(0 -0.00535899 0)
(0 -0.00473334 0)
(0 -0.00375997 0)
(0 -0.0232274 0)
(0 -0.0274055 0)
(0 -0.0280907 0)
(0 -0.0284131 0)
(0 -0.0284729 0)
(0 -0.00196861 0)
(0 -0.00193367 0)
(0 -0.0262836 0)
(0 -0.00179663 0)
(0 -0.00176179 0)
(0 -0.0192778 0)
(0 -0.0149992 0)
(0 -0.0290604 0)
(0 -0.0291374 0)
(0 -0.0240396 0)
(0 -0.00435695 0)
(0 -0.00451517 0)
(0 -0.00470641 0)
(0 -0.00467203 0)
(0 -0.00486777 0)
(0 -0.00482829 0)
(0 -0.00502891 0)
(0 -0.00498394 0)
(0 -0.00518788 0)
(0 -0.00513861 0)
(0 -0.00534401 0)
(0 -0.00528977 0)
(0 -0.00549931 0)
(0 -0.00544303 0)
(0 -0.00565239 0)
(0 -0.00558256 0)
(0 -0.00579854 0)
(0 -0.00570841 0)
(0 -0.00593545 0)
(0 -0.00581649 0)
(0 -0.00607576 0)
(0 -0.00598076 0)
(0 -0.00621957 0)
(0 -0.00611495 0)
(0 -0.00635656 0)
(0 -0.00189533 0)
(0 -0.00172368 0)
(0 -0.00185349 0)
(0 -0.00168233 0)
(0 -0.00180843 0)
(0 -0.00163806 0)
(0 -0.00176038 0)
(0 -0.00159115 0)
(0 -0.00170932 0)
(0 -0.00154163 0)
(0 -0.00165548 0)
(0 -0.0014897 0)
(0 -0.00159907 0)
(0 -0.00143551 0)
(0 -0.00154008 0)
(0 -0.00137924 0)
(0 -0.0014789 0)
(0 -0.00163976 0)
(0 -0.00157351 0)
(0 -0.00141566 0)
(0 -0.00150437 0)
(0 -0.00166269 0)
(0 -0.00158767 0)
(0 -0.00143363 0)
(0 -0.00151069 0)
(0 -0.0016654 0)
(0 -0.00158153 0)
(0 -0.00143185 0)
(0 -0.00149577 0)
(0 -0.00164573 0)
(0 -0.00155406 0)
(0 -0.00140852 0)
(0 -0.00145914 0)
(0 -0.00160515 0)
(0 -0.00150242 0)
(0 -0.00164729 0)
(0 -0.00136265 0)
(0 -0.001538 0)
(0 -0.00168224 0)
(0 -0.00156613 0)
(0 -0.00171043 0)
(0 -0.00158709 0)
(0 -0.00173349 0)
(0 -0.00160069 0)
(0 -0.00174753 0)
(0 -0.00146079 0)
(0 -0.00160568 0)
(0 -0.00175067 0)
(0 -0.00179727 0)
(0 -0.00160201 0)
(0 -0.00174679 0)
(0 -0.0019002 0)
(0 -0.00159058 0)
(0 -0.00173525 0)
(0 -0.00145192 0)
(0 -0.00157067 0)
(0 -0.00171544 0)
(0 -0.00188642 0)
(0 -0.00186684 0)
(0 -0.00204385 0)
(0 -0.00202497 0)
(0 -0.00183928 0)
(0 -0.00199811 0)
(0 -0.00218987 0)
(0 -0.00216404 0)
(0 -0.001963 0)
(0 -0.00212995 0)
(0 -0.00191892 0)
(0 -0.00208667 0)
(0 -0.00230434 0)
(0 -0.00226195 0)
(0 -0.0137608 0)
(0 -0.0143639 0)
(0 -0.00203374 0)
(0 -0.00221008 0)
(0 -0.00244484 0)
(0 -0.00239432 0)
(0 -0.00263543 0)
(0 -0.00258648 0)
(0 -0.00233373 0)
(0 -0.00252736 0)
(0 -0.00162516 0)
(0 -0.00165673 0)
(0 -0.0290453 0)
(0 -0.0291203 0)
(0 -0.0292079 0)
(0 -0.0291887 0)
(0 -0.0292717 0)
(0 -0.0292514 0)
(0 -0.0291018 0)
(0 -0.0293296 0)
(0 -0.029308 0)
(0 -0.00494098 0)
(0 -0.0022626 0)
(0 -0.00245763 0)
(0 -0.0131022 0)
(0 -0.0137181 0)
(0 -0.00142309 0)
(0 -0.00624587 0)
(0 -0.00649171 0)
(0 -0.00546813 0)
(0 -0.00272936 0)
(0 -0.00266129 0)
(0 -0.00237685 0)
(0 -0.00258224 0)
(0 -0.00287373 0)
(0 -0.00279656 0)
(0 -0.00447857 0)
(0 -0.00309488 0)
(0 -0.00301973 0)
(0 -0.00270805 0)
(0 -0.00293298 0)
(0 -0.00325218 0)
(0 -0.00316759 0)
(0 -0.00283386 0)
(0 -0.00307068 0)
(0 -0.00341209 0)
(0 -0.00331775 0)
(0 -0.00296083 0)
(0 -0.00321046 0)
(0 -0.00357488 0)
(0 -0.00347044 0)
(0 -0.00384199 0)
(0 -0.0037407 0)
(0 -0.0033525 0)
(0 -0.00362566 0)
(0 -0.00402153 0)
(0 -0.00390982 0)
(0 -0.00349636 0)
(0 -0.00378389 0)
(0 -0.00420492 0)
(0 -0.00408258 0)
(0 -0.0045108 0)
(0 -0.00439236 0)
(0 -0.00394557 0)
(0 -0.00425919 0)
(0 -0.0047136 0)
(0 -0.00458475 0)
(0 -0.00410997 0)
(0 -0.00443993 0)
(0 -0.00492203 0)
(0 -0.00478185 0)
(0 -0.0052706 0)
(0 -0.00513495 0)
(0 -0.00462578 0)
(0 -0.00498232 0)
(0 -0.00549534 0)
(0 -0.00534744 0)
(0 -0.00481136 0)
(0 -0.00518599 0)
(0 -0.00572712 0)
(0 -0.00557405 0)
(0 -0.00500289 0)
(0 -0.00539686 0)
(0 -0.00597595 0)
(0 -0.00580397 0)
(0 -0.00638894 0)
(0 -0.00622277 0)
(0 -0.00561223 0)
(0 -0.00603715 0)
(0 -0.00665318 0)
(0 -0.00647468 0)
(0 -0.00583072 0)
(0 -0.00627594 0)
(0 -0.00692487 0)
(0 -0.00673382 0)
(0 -0.00738521 0)
(0 -0.00720114 0)
(0 -0.00652347 0)
(0 -0.00699688 0)
(0 -0.0076655 0)
(0 -0.00746814 0)
(0 -0.00676923 0)
(0 -0.00726057 0)
(0 -0.00795359 0)
(0 -0.00776866 0)
(0 -0.00702396 0)
(0 -0.00754111 0)
(0 -0.0082927 0)
(0 -0.00807071 0)
(0 -0.00882347 0)
(0 -0.00860948 0)
(0 -0.00782335 0)
(0 -0.00837081 0)
(0 -0.00915812 0)
(0 -0.00892846 0)
(0 -0.0081073 0)
(0 -0.00867577 0)
(0 -0.00949584 0)
(0 -0.00925395 0)
(0 -0.0100694 0)
(0 -0.0098394 0)
(0 -0.00898924 0)
(0 -0.00958624 0)
(0 -0.0104321 0)
(0 -0.0101894 0)
(0 -0.0110312 0)
(0 -0.0107974 0)
(0 -0.0116332 0)
(0 -0.0114086 0)
(0 -0.010539 0)
(0 -0.0111613 0)
(0 -0.0120207 0)
(0 -0.0117865 0)
(0 -0.0126337 0)
(0 -0.0124105 0)
(0 -0.0132439 0)
(0 -0.0130307 0)
(0 -0.012166 0)
(0 -0.0127971 0)
(0 -0.0136492 0)
(0 -0.0134223 0)
(0 -0.012539 0)
(0 -0.013171 0)
(0 -0.0122533 0)
(0 -0.0128948 0)
(0 -0.0142687 0)
(0 -0.0119386 0)
(0 -0.0125933 0)
(0 -0.0135369 0)
(0 -0.0132467 0)
(0 -0.012265 0)
(0 -0.0129272 0)
(0 -0.011288 0)
(0 -0.0141847 0)
(0 -0.0102559 0)
(0 -0.0119056 0)
(0 -0.0125794 0)
(0 -0.0115153 0)
(0 -0.0122059 0)
(0 -0.0132497 0)
(0 -0.0128912 0)
(0 -0.0139159 0)
(0 -0.013567 0)
(0 -0.0125068 0)
(0 -0.0131914 0)
(0 -0.0142341 0)
(0 -0.0138699 0)
(0 -0.0127813 0)
(0 -0.0134746 0)
(0 -0.0108229 0)
(0 -0.0123374 0)
(0 -0.013046 0)
(0 -0.0148917 0)
(0 -0.00870662 0)
(0 -0.0246665 0)
(0 -0.00127405 0)
(0 -0.012431 0)
(0 -0.0130657 0)
(0 -0.0134349 0)
(0 -0.0204928 0)
(0 -0.00637507 0)
(0 -0.00662217 0)
(0 -0.0118596 0)
(0 -0.00649744 0)
(0 -0.00675392 0)
(0 -0.0068677 0)
(0 -0.00701747 0)
(0 -0.00687694 0)
(0 -0.00714815 0)
(0 -0.00728988 0)
(0 -0.00742597 0)
(0 -0.00727139 0)
(0 -0.00755473 0)
(0 -0.00770824 0)
(0 -0.0078429 0)
(0 -0.00799471 0)
(0 -0.0081357 0)
(0 -0.00797279 0)
(0 -0.00827197 0)
(0 -0.00843297 0)
(0 -0.00857594 0)
(0 -0.00840294 0)
(0 -0.00871364 0)
(0 -0.00888473 0)
(0 -0.00902925 0)
(0 -0.00919779 0)
(0 -0.0093494 0)
(0 -0.00916902 0)
(0 -0.00949617 0)
(0 -0.00967425 0)
(0 -0.00982746 0)
(0 -0.00963696 0)
(0 -0.0099753 0)
(0 -0.0101639 0)
(0 -0.0103186 0)
(0 -0.0101172 0)
(0 -0.0104677 0)
(0 -0.010666 0)
(0 -0.0108222 0)
(0 -0.0110169 0)
(0 -0.0111807 0)
(0 -0.0109729 0)
(0 -0.0113388 0)
(0 -0.0115432 0)
(0 -0.0117085 0)
(0 -0.0119098 0)
(0 -0.0120818 0)
(0 -0.0118688 0)
(0 -0.0122488 0)
(0 -0.012459 0)
(0 -0.0126321 0)
(0 -0.01241 0)
(0 -0.0127999 0)
(0 -0.0130188 0)
(0 -0.0131931 0)
(0 -0.0129612 0)
(0 -0.0133617 0)
(0 -0.0135883 0)
(0 -0.0137646 0)
(0 -0.0139848 0)
(0 -0.0141689 0)
(0 -0.0139347 0)
(0 -0.0143466 0)
(0 -0.0145746 0)
(0 -0.0147598 0)
(0 -0.0145167 0)
(0 -0.0149372 0)
(0 -0.0151733 0)
(0 -0.0153567 0)
(0 -0.015577 0)
(0 -0.01577 0)
(0 -0.0155335 0)
(0 -0.0159622 0)
(0 -0.0162157 0)
(0 -0.016393 0)
(0 -0.0161371 0)
(0 -0.0165696 0)
(0 -0.0168182 0)
(0 -0.0169994 0)
(0 -0.0172414 0)
(0 -0.0174279 0)
(0 -0.0171763 0)
(0 -0.0176111 0)
(0 -0.0178535 0)
(0 -0.0180427 0)
(0 -0.0182753 0)
(0 -0.0184697 0)
(0 -0.0173482 0)
(0 -0.0186922 0)
(0 -0.018891 0)
(0 -0.0186586 0)
(0 -0.0190824 0)
(0 -0.0193068 0)
(0 -0.0195008 0)
(0 -0.019264 0)
(0 -0.019686 0)
(0 -0.0199139 0)
(0 -0.0201026 0)
(0 -0.0293817 0)
(0 -0.0293579 0)
(0 -0.0294019 0)
(0 -0.0292828 0)
(0 -0.0293314 0)
(0 -0.0292531 0)
(0 -0.0293009 0)
(0 -0.0293757 0)
(0 -0.0293448 0)
(0 -0.0294209 0)
(0 -0.0293819 0)
(0 -0.0293072 0)
(0 -0.0293444 0)
(0 -0.0294139 0)
(0 -0.0293795 0)
(0 -0.0294434 0)
(0 -0.0294117 0)
(0 -0.0294708 0)
(0 -0.029437 0)
(0 -0.0293927 0)
(0 -0.00148492 0)
(0 -0.00151389 0)
(0 -0.0232426 0)
(0 -0.0184865 0)
(0 -0.0142966 0)
(0 -0.0050667 0)
(0 -0.0103845 0)
(0 -0.00612452 0)
(0 -0.0194362 0)
(0 -0.0292618 0)
(0 -0.0111284 0)
(0 -0.0118325 0)
(0 -0.0136463 0)
(0 -0.0148341 0)
(0 -0.0124655 0)
(0 -0.0203211 0)
(0 -0.0205128 0)
(0 -0.0227337 0)
(0 -0.0231057 0)
(0 -0.0232704 0)
(0 -0.0236178 0)
(0 -0.023768 0)
(0 -0.0240923 0)
(0 -0.0242311 0)
(0 -0.024537 0)
(0 -0.0246606 0)
(0 -0.0249467 0)
(0 -0.025048 0)
(0 -0.0248346 0)
(0 -0.0253251 0)
(0 -0.0254069 0)
(0 -0.0256744 0)
(0 -0.0257445 0)
(0 -0.0254772 0)
(0 -0.0257983 0)
(0 -0.0255374 0)
(0 -0.0258426 0)
(0 -0.0255857 0)
(0 -0.0258876 0)
(0 -0.0256221 0)
(0 -0.025911 0)
(0 -0.0256481 0)
(0 -0.0259288 0)
(0 -0.0256657 0)
(0 -0.0259391 0)
(0 -0.0256738 0)
(0 -0.0259431 0)
(0 -0.0256747 0)
(0 -0.0259504 0)
(0 -0.02567 0)
(0 -0.0259342 0)
(0 -0.02565 0)
(0 -0.0259046 0)
(0 -0.0256176 0)
(0 -0.0258646 0)
(0 -0.0255759 0)
(0 -0.0258159 0)
(0 -0.0255246 0)
(0 -0.0257623 0)
(0 -0.0260484 0)
(0 -0.0261862 0)
(0 -0.0262182 0)
(0 -0.0254634 0)
(0 -0.0256976 0)
(0 -0.0261433 0)
(0 -0.026026 0)
(0 -0.0259146 0)
(0 -0.025385 0)
(0 -0.0253938 0)
(0 -0.025363 0)
(0 -0.0261952 0)
(0 -0.026105 0)
(0 -0.0251546 0)
(0 -0.0250807 0)
(0 -0.0263713 0)
(0 -0.0262827 0)
(0 -0.0260107 0)
(0 -0.0248301 0)
(0 -0.0247547 0)
(0 -0.026184 0)
(0 -0.0259099 0)
(0 -0.0252933 0)
(0 -0.00600691 0)
(0 -0.00967397 0)
(0 -0.0234428 0)
(0 -0.0226165 0)
(0 -0.0264475 0)
(0 -0.0263428 0)
(0 -0.029503 0)
(0 -0.00134142 0)
(0 -0.00136829 0)
(0 -0.00131284 0)
(0 -0.00334772 0)
(0 -0.0294499 0)
(0 -0.0294674 0)
(0 -0.0117502 0)
(0 -0.0265561 0)
(0 -0.0106012 0)
(0 -0.0243888 0)
(0 -0.00182343 0)
(0 -0.0207216 0)
(0 -0.0205193 0)
(0 -0.0209147 0)
(0 -0.0206955 0)
(0 -0.00644198 0)
(0 -0.0244919 0)
(0 -0.0245578 0)
(0 -0.0244173 0)
(0 -0.0246728 0)
(0 -0.0141917 0)
(0 -0.0153335 0)
(0 -0.00918112 0)
(0 -0.0210995 0)
(0 -0.0208703 0)
(0 -0.00984214 0)
(0 -0.00119515 0)
(0 -0.00122023 0)
(0 -0.00555487 0)
(0 -0.0264465 0)
(0 -0.0265981 0)
(0 -0.0113336 0)
(0 -0.0100336 0)
(0 -0.00845361 0)
(0 -0.0295115 0)
(0 -0.0295233 0)
(0 -0.00268956 0)
(0 -0.00262482 0)
(0 -0.0264872 0)
(0 -0.0243334 0)
(0 -0.0245821 0)
(0 -0.0242073 0)
(0 -0.0242617 0)
(0 -0.0249657 0)
(0 -0.014699 0)
(0 -0.0157995 0)
(0 -0.0270189 0)
(0 -0.0272413 0)
(0 -0.0270747 0)
(0 -0.0272916 0)
(0 -0.0271147 0)
(0 -0.027333 0)
(0 -0.0271516 0)
(0 -0.0273673 0)
(0 -0.0271834 0)
(0 -0.0273943 0)
(0 -0.0275696 0)
(0 -0.0275906 0)
(0 -0.0274154 0)
(0 -0.0276054 0)
(0 -0.0274313 0)
(0 -0.0276133 0)
(0 -0.0274383 0)
(0 -0.027616 0)
(0 -0.0274381 0)
(0 -0.027614 0)
(0 -0.0274357 0)
(0 -0.0276018 0)
(0 -0.0274196 0)
(0 -0.0275804 0)
(0 -0.027398 0)
(0 -0.0275555 0)
(0 -0.0273714 0)
(0 -0.0275262 0)
(0 -0.0273291 0)
(0 -0.0274867 0)
(0 -0.0211148 0)
(0 -0.00339595 0)
(0 -0.003532 0)
(0 -0.00104619 0)
(0 -0.0010699 0)
(0 -0.027281 0)
(0 -0.0274364 0)
(0 -0.0294809 0)
(0 -0.0295339 0)
(0 -0.0164054 0)
(0 -0.0168257 0)
(0 -0.0162295 0)
(0 -0.0107267 0)
(0 -0.009426 0)
(0 -0.0272525 0)
(0 -0.0277813 0)
(0 -0.0295609 0)
(0 -0.0295523 0)
(0 -0.0212769 0)
(0 -0.0210368 0)
(0 -0.0206201 0)
(0 -0.0155761 0)
(0 -0.0274672 0)
(0 -0.0255892 0)
(0 -0.0220133 0)
(0 -0.00790379 0)
(0 -0.0275107 0)
(0 -0.0287991 0)
(0 -0.0238987 0)
(0 -0.0239423 0)
(0 -0.0267005 0)
(0 -0.0268414 0)
(0 -0.0269328 0)
(0 -0.0214963 0)
(0 -0.0152163 0)
(0 -0.0158487 0)
(0 -0.0161355 0)
(0 -0.0167427 0)
(0 -0.016469 0)
(0 -0.0169866 0)
(0 -0.0173382 0)
(0 -0.0170678 0)
(0 -0.0179152 0)
(0 -0.0176377 0)
(0 -0.00357899 0)
(0 -0.00371792 0)
(0 -0.00343799 0)
(0 -0.0188934 0)
(0 -0.0186752 0)
(0 -0.0190734 0)
(0 -0.0188432 0)
(0 -0.0184491 0)
(0 -0.019234 0)
(0 -0.0140342 0)
(0 -0.0141944 0)
(0 -0.0147819 0)
(0 -0.0149108 0)
(0 -0.0154874 0)
(0 -0.0155889 0)
(0 -0.0161511 0)
(0 -0.0150173 0)
(0 -0.0160616 0)
(0 -0.0167107 0)
(0 -0.0166315 0)
(0 -0.0172656 0)
(0 -0.0171922 0)
(0 -0.0178103 0)
(0 -0.0177428 0)
(0 -0.0171041 0)
(0 -0.0176593 0)
(0 -0.0169956 0)
(0 -0.0175576 0)
(0 -0.0182063 0)
(0 -0.0181113 0)
(0 -0.0174291 0)
(0 -0.0179997 0)
(0 -0.0172966 0)
(0 -0.0178692 0)
(0 -0.0171546 0)
(0 -0.0146788 0)
(0 -0.0287878 0)
(0 -0.0131156 0)
(0 -0.0287131 0)
(0 -0.00675813 0)
(0 -0.0102842 0)
(0 -0.0111183 0)
(0 -0.0181423 0)
(0 -0.00901682 0)
(0 -0.00954389 0)
(0 -0.00971444 0)
(0 -0.0102341 0)
(0 -0.0103769 0)
(0 -0.0108967 0)
(0 -0.00755017 0)
(0 -0.00560394 0)
(0 -0.016302 0)
(0 -0.0223598 0)
(0 -0.00653492 0)
(0 -0.00852853 0)
(0 -0.00800948 0)
(0 -0.00814273 0)
(0 -0.00859637 0)
(0 -0.00479925 0)
(0 -0.0170584 0)
(0 -0.00738876 0)
(0 -0.0292183 0)
(0 -0.029168 0)
(0 -0.029129 0)
(0 -0.0290762 0)
(0 -0.00695171 0)
(0 -0.00706682 0)
(0 -0.00748471 0)
(0 -0.0137951 0)
(0 -0.0141848 0)
(0 -0.0139819 0)
(0 -0.0143646 0)
(0 -0.0141488 0)
(0 -0.0145249 0)
(0 -0.0147479 0)
(0 -0.0149008 0)
(0 -0.0151309 0)
(0 -0.00539025 0)
(0 -0.00574451 0)
(0 -0.00584349 0)
(0 -0.00620039 0)
(0 -0.0039443 0)
(0 -0.0108478 0)
(0 -0.0111947 0)
(0 -0.0110123 0)
(0 -0.011354 0)
(0 -0.0111583 0)
(0 -0.011491 0)
(0 -0.0090417 0)
(0 -0.00935171 0)
(0 -0.00918421 0)
(0 -0.00949067 0)
(0 -0.00931187 0)
(0 -0.00784879 0)
(0 -0.00813305 0)
(0 -0.00797218 0)
(0 -0.00826055 0)
(0 -0.00461483 0)
(0 -0.00492612 0)
(0 -0.00500909 0)
(0 -0.00532286 0)
(0 -0.00393027 0)
(0 -0.0284771 0)
(0 -0.00315888 0)
(0 -0.00186267 0)
(0 -0.00335272 0)
(0 -0.00420375 0)
(0 -0.00427543 0)
(0 -0.0045547 0)
(0 -0.00338638 0)
(0 -0.00343715 0)
(0 -0.00367107 0)
(0 -0.00370927 0)
(0 -0.010253 0)
(0 -0.00154206 0)
(0 -0.00267466 0)
(0 -0.00287111 0)
(0 -0.00289912 0)
(0 -0.00310101 0)
(0 -0.00311783 0)
(0 -0.00332635 0)
(0 -0.00333349 0)
(0 -0.00312653 0)
(0 -0.00332991 0)
(0 -0.00312736 0)
(0 -0.00331997 0)
(0 -0.00312025 0)
(0 -0.00283762 0)
(0 -0.0167472 0)
(0 -0.00228479 0)
(0 -0.00379501 0)
(0 -0.00469295 0)
(0 -0.00417002 0)
(0 -0.00781837 0)
(0 -0.00202577 0)
(0 -0.00197098 0)
(0 -0.0277346 0)
(0 -0.00993818 0)
(0 -0.00530138 0)
(0 -0.00555391 0)
(0 -0.00548375 0)
(0 -0.00122066 0)
(0 -0.00111436 0)
(0 -0.00106421 0)
(0 -0.000956476 0)
(0 -0.000909903 0)
(0 -0.00100215 0)
(0 -0.000842621 0)
(0 -0.00088405 0)
(0 -0.0181097 0)
(0 -0.0204134 0)
(0 -0.0161109 0)
(0 -0.00142709 0)
(0 -0.00522808 0)
(0 -0.00208694 0)
(0 -0.00198165 0)
(0 -0.00179183 0)
(0 -0.00167349 0)
(0 -0.00101297 0)
(0 -0.000862608 0)
(0 -0.000960705 0)
(0 -0.000814594 0)
(0 -0.000907541 0)
(0 -0.00076599 0)
(0 -0.000853622 0)
(0 -0.000716912 0)
(0 -0.000799115 0)
(0 -0.000667646 0)
(0 -0.000744198 0)
(0 -0.000618307 0)
(0 -0.000689035 0)
(0 -0.000569064 0)
(0 -0.000633798 0)
(0 -0.000751953 0)
(0 -0.000690478 0)
(0 -0.000578678 0)
(0 -0.000628978 0)
(0 -0.000523849 0)
(0 -0.000567669 0)
(0 -0.000671028 0)
(0 -0.000603078 0)
(0 -0.000704787 0)
(0 -0.000630038 0)
(0 -0.000535402 0)
(0 -0.000555478 0)
(0 -0.000648509 0)
(0 -0.000468122 0)
(0 -0.000566933 0)
(0 -0.000658422 0)
(0 -0.000569693 0)
(0 -0.000659712 0)
(0 -0.000563705 0)
(0 -0.000652316 0)
(0 -0.000481201 0)
(0 -0.000755742 0)
(0 -0.000747104 0)
(0 -0.000636152 0)
(0 -0.000729722 0)
(0 -0.000611079 0)
(0 -0.000703444 0)
(0 -0.000829585 0)
(0 -0.000802226 0)
(0 -0.000667986 0)
(0 -0.000766117 0)
(0 -0.000747231 0)
(0 -0.000779495 0)
(0 -0.000857739 0)
(0 -0.000469496 0)
(0 -0.00419404 0)
(0 -0.00175853 0)
(0 -0.00102085 0)
(0 -0.00170417 0)
(0 -0.00155063 0)
(0 -0.00148599 0)
(0 -0.00133959 0)
(0 -0.0012648 0)
(0 -0.00112589 0)
(0 -0.00710459 0)
(0 -0.00721017 0)
(0 -0.00692533 0)
(0 -0.00701895 0)
(0 -0.00673399 0)
(0 -0.00730994 0)
(0 -0.00710631 0)
(0 -0.0074032 0)
(0 -0.00151189 0)
(0 -0.00301885 0)
(0 -0.00474358 0)
(0 -0.00259623 0)
(0 -0.00245704 0)
(0 -0.00222447 0)
(0 -0.00206897 0)
(0 -0.00339926 0)
(0 -0.00087398 0)
(0 -0.00845916 0)
(0 -0.00140367 0)
(0 -0.00307351 0)
(0 -0.00291205 0)
(0 -0.00587416 0)
(0 -0.00362252 0)
(0 -0.00343514 0)
(0 -0.00312265 0)
(0 -0.00291357 0)
(0 -0.00989948 0)
(0 -0.0100219 0)
(0 -0.00966552 0)
(0 -0.00977374 0)
(0 -0.00941525 0)
(0 -0.0102505 0)
(0 -0.00323036 0)
(0 -0.0102008 0)
(0 -0.00775779 0)
(0 -0.0127099 0)
(0 -0.0128493 0)
(0 -0.0124386 0)
(0 -0.0125622 0)
(0 -0.012147 0)
(0 -0.0122522 0)
(0 -0.0126782 0)
(0 -0.0108259 0)
(0 -0.0109599 0)
(0 -0.00441324 0)
(0 -0.00418297 0)
(0 -0.00380567 0)
(0 -0.00354862 0)
(0 -0.0171787 0)
(0 -0.0126938 0)
(0 -0.00516481 0)
(0 -0.00490808 0)
(0 -0.0158636 0)
(0 -0.0160128 0)
(0 -0.0155674 0)
(0 -0.015701 0)
(0 -0.0152512 0)
(0 -0.0153727 0)
(0 -0.0158257 0)
(0 -0.0116133 0)
(0 -0.0082031 0)
(0 -0.0013662 0)
(0 -0.00261115 0)
(0 -0.00200015 0)
(0 -0.017037 0)
(0 -0.0062456 0)
(0 -0.00594295 0)
(0 -0.0054358 0)
(0 -0.00509583 0)
(0 -0.00459605 0)
(0 -0.0066463 0)
(0 -0.0137743 0)
(0 -0.027711 0)
(0 -0.02935 0)
(0 -0.00725116 0)
(0 -0.006923 0)
(0 -0.0101916 0)
(0 -0.00193101 0)
(0 -0.00154056 0)
(0 -0.0166854 0)
(0 -0.0169562 0)
(0 -0.0139279 0)
(0 -0.013561 0)
(0 -0.0262297 0)
(0 -0.0263683 0)
(0 -0.0261079 0)
(0 -0.0190051 0)
(0 -0.0191639 0)
(0 -0.0187226 0)
(0 -0.0188678 0)
(0 -0.0184159 0)
(0 -0.0277961 0)
(0 -0.0207747 0)
(0 -0.00264136 0)
(0 -0.002461 0)
(0 -0.00186431 0)
(0 -0.0130254 0)
(0 -0.00931466 0)
(0 -0.0145908 0)
(0 -0.0290332 0)
(0 -0.0289775 0)
(0 -0.0140557 0)
(0 -0.0140203 0)
(0 -0.0134775 0)
(0 -0.0167603 0)
(0 -0.0236633 0)
(0 -0.0220003 0)
(0 -0.000467905 0)
(0 -0.000393104 0)
(0 -0.0110325 0)
(0 -0.0102836 0)
(0 -0.00949817 0)
(0 -0.0120317 0)
(0 -0.0044768 0)
(0 -0.00418878 0)
(0 -0.00376672 0)
(0 -0.0058483 0)
(0 -0.00494376 0)
(0 -0.00123437 0)
(0 -0.00118834 0)
(0 -0.016606 0)
(0 -0.0168565 0)
(0 -0.0172236 0)
(0 -0.0284964 0)
(0 -0.0267011 0)
(0 -0.00635822 0)
(0 -0.00598884 0)
(0 -0.00543041 0)
(0 -0.0202339 0)
(0 -0.0240668 0)
(0 -0.00875117 0)
(0 -0.0272324 0)
(0 -0.0267937 0)
(0 -0.0231932 0)
(0 -0.0203482 0)
(0 -0.00716206 0)
(0 -0.0077301 0)
(0 -0.0279413 0)
(0 -0.0207782 0)
(0 -0.00679037 0)
(0 -0.0111317 0)
(0 -0.0206025 0)
(0 -0.00980387 0)
(0 -0.00106396 0)
(0 -0.00100865 0)
(0 -0.000892483 0)
(0 -0.0253141 0)
(0 -0.00149228 0)
(0 -0.00161133 0)
(0 -0.0174118 0)
(0 -0.00783674 0)
(0 -0.00898907 0)
(0 -0.00857962 0)
(0 -0.0284803 0)
(0 -0.0186048 0)
(0 -0.0268997 0)
(0 -0.00219985 0)
(0 -0.00318148 0)
(0 -0.0242396 0)
(0 -0.0244794 0)
(0 -0.0277572 0)
(0 -0.000827646 0)
(0 -0.00951117 0)
(0 -0.0098754 0)
(0 -0.0134185 0)
(0 -0.014012 0)
(0 -0.0266195 0)
(0 -0.00184585 0)
(0 -0.008643 0)
(0 -0.00731254 0)
(0 -0.0173268 0)
(0 -0.00627477 0)
(0 -0.00411133 0)
(0 -0.0245827 0)
(0 -0.0177183 0)
(0 -0.016979 0)
(0 -0.00538446 0)
(0 -0.0101253 0)
(0 -0.00877145 0)
(0 -0.01307 0)
(0 -0.0234258 0)
(0 -0.0183465 0)
(0 -0.015488 0)
(0 -0.015945 0)
(0 -0.00460866 0)
(0 -0.00433534 0)
(0 -0.0271778 0)
(0 -0.0182147 0)
(0 -0.000757879 0)
(0 -0.00645509 0)
(0 -0.00572469 0)
(0 -0.0216764 0)
(0 -0.0208237 0)
(0 -0.021885 0)
(0 -0.00870757 0)
(0 -0.00950864 0)
(0 -0.0038141 0)
(0 -0.00360874 0)
(0 -0.0272268 0)
(0 -0.0273784 0)
(0 -0.0128769 0)
(0 -0.00718739 0)
(0 -0.00748995 0)
(0 -0.0283698 0)
(0 -0.0289648 0)
(0 -0.0289482 0)
(0 -0.0272073 0)
(0 -0.017101 0)
(0 -0.016738 0)
(0 -0.000627578 0)
(0 -0.00154347 0)
(0 -0.000471357 0)
(0 -0.00500507 0)
(0 -0.00559045 0)
(0 -0.0117342 0)
(0 -0.0116282 0)
(0 -0.00268797 0)
(0 -0.0150555 0)