/*--------------------------------*- C++ -*----------------------------------*\
| =========                 |                                                 |
| \\      /  F ield         | OpenFOAM: The Open Source CFD Toolbox           |
|  \\    /   O peration     | Version:  v2012                                 |
|   \\  /    A nd           | Website:  www.openfoam.com                      |
|    \\/     M anipulation  |                                                 |
\*---------------------------------------------------------------------------*/
FoamFile
{
    version     2.0;
    format      ascii;
    class       volVectorField;
    location    "450";
    object      U_0;
}
// * * * * * * * * * * * * * * * * * * * * * * * * * * * * * * * * * * * * * //

dimensions      [0 1 -1 0 0 0 0];


internalField   nonuniform List<vector> 
9793
(
(0.955223 0.0722374 2.88519e-20)
(0.92929 0.220591 8.85906e-23)
(0.962228 0.0854184 8.93638e-21)
(1.01494 -0.001182 3.3799e-21)
(0.451079 -0.149906 0)
(1.0277 -0.0210708 0)
(1.01032 -0.000273257 -8.79038e-21)
(1.01359 -0.000729463 -9.73153e-21)
(1.02897 -0.00100236 -1.18277e-22)
(0.467655 -0.137281 -9.99726e-21)
(1.00399 -0.0858101 3.34035e-22)
(1.03178 -0.148265 -1.03784e-21)
(1.0148 -0.00109646 4.8064e-21)
(1.01034 0.00478765 -6.50273e-22)
(1.00276 -2.69328e-05 7.54458e-21)
(1.01184 0.00523468 5.03295e-21)
(1.01228 0.0092324 3.79513e-21)
(1.0123 0.0109304 -3.58446e-21)
(0.729867 0.226477 1.96121e-20)
(1.01117 0.00560142 -1.93414e-21)
(1.16519 -0.063573 -4.13464e-21)
(1.02927 4.96193e-05 4.93814e-21)
(1.07287 -0.0973677 3.40247e-21)
(1.01998 0.00316678 2.29943e-22)
(1.00497 0.000931282 1.11459e-20)
(1.01479 -0.000867171 -4.68301e-21)
(1.01415 0.00720157 4.70927e-21)
(1.0108 0.00296305 -7.87991e-21)
(0.981224 -0.0299225 -9.80335e-21)
(1.02851 -0.00107643 -9.27597e-22)
(1.02724 -0.0594697 0)
(1.06819 -0.0932444 -2.7795e-21)
(0.820544 -0.1132 0)
(1.00715 5.42241e-06 8.62459e-23)
(0.971657 -0.0238492 -4.15269e-21)
(1.17234 -0.0467763 5.49218e-22)
(1.00825 9.82574e-06 9.64238e-21)
(1.03009 9.34352e-05 1.644e-21)
(1.01479 -0.0003252 5.40884e-21)
(1.01059 -6.80763e-05 0)
(1.02288 -0.0571864 0)
(1.00468 -5.16351e-05 -7.2717e-21)
(1.01347 -0.00058251 0)
(1.01 -0.000201426 -2.08003e-21)
(1.01289 -0.000515248 1.05052e-21)
(1.01435 -0.000711558 -2.8277e-21)
(0.975273 -0.0314398 4.72277e-21)
(0.946922 -0.0397757 -6.06457e-21)
(0.938676 -0.0775777 -2.55527e-21)
(1.01488 -0.00129813 -3.65391e-21)
(0.966125 -0.0242617 0)
(0.986773 -0.0814944 0)
(1.03291 -0.0185848 1.03799e-20)
(1.02737 -0.00348786 -7.56505e-21)
(0.871916 -0.0701764 1.67293e-20)
(1.14084 -0.224925 -1.81468e-21)
(1.02311 0.000895058 -8.07677e-21)
(1.02191 -0.144662 1.20439e-20)
(0.853958 -0.229133 0)
(1.01464 -0.000428179 6.25038e-21)
(1.00901 -8.66037e-05 0)
(1.0356 -0.0137994 0)
(0.894678 -0.136367 2.37918e-21)
(1.01672 -0.000436741 0)
(0.46234 -0.25219 0)
(0.857281 -0.0794827 -3.40935e-21)
(0.889344 -0.122645 0)
(0.901929 -0.0957525 2.33662e-21)
(1.02685 -0.137289 2.5184e-21)
(1.00107 -0.0796281 0)
(0.86765 -0.0577517 0)
(1.0138 0.000321098 0)
(1.01795 -0.00555451 1.67432e-20)
(0.983749 0.10852 0)
(0.958748 -0.0191234 5.732e-21)
(0.841707 -0.215147 -3.11519e-24)
(1.02347 0.00044353 0)
(1.0251 0.0110123 -1.43353e-22)
(1.00847 -0.00765005 1.10269e-20)
(1.00885 0.0012687 0)
(0.871731 -0.0981485 -2.13851e-21)
(1.01283 -0.00945617 0)
(0.906242 0.223704 -2.00352e-23)
(0.994694 -0.0439583 -5.68667e-21)
(1.02443 -0.0506402 -1.15475e-21)
(0.967136 -0.0413658 6.57319e-21)
(1.00797 0.00179289 7.68439e-21)
(1.02381 -1.78395e-05 7.10067e-21)
(1.03245 -0.0128699 6.02239e-21)
(1.0171 -0.0107199 5.03053e-21)
(0.923137 0.225378 -5.09815e-22)
(0.72257 -0.146491 -1.63318e-20)
(1.01676 -0.0023654 -4.04145e-21)
(1.05389 -0.10165 0)
(1.03432 -0.0127777 -5.49015e-21)
(1.00091 -0.0471213 0)
(1.15266 -0.195277 1.89762e-21)
(0.911176 0.228203 2.1815e-22)
(1.01631 -0.00194452 4.20219e-21)
(1.01326 -0.00204522 -2.44573e-23)
(1.01298 -0.00193829 -9.55654e-21)
(1.02187 -0.00590732 -2.65937e-21)
(1.01487 0.00102687 4.42262e-21)
(1.01448 0.000878074 4.37288e-21)
(1.02377 0.0103479 0)
(1.02089 -0.048079 1.13706e-21)
(1.0318 -0.0118686 -2.86406e-21)
(1.00922 -0.000115568 3.92822e-21)
(1.03176 -0.0169973 -9.52082e-21)
(0.894276 -0.0240235 6.38896e-21)
(1.01288 0.000204691 3.27886e-24)
(1.11557 -0.119933 0)
(1.02161 0.000910708 0)
(1.09617 -0.121811 3.44565e-21)
(0.980762 -0.0768429 0)
(1.02351 0.000717357 6.88491e-21)
(0.80289 -0.0109141 7.43356e-22)
(0.958878 -0.0124251 -5.99475e-21)
(1.01195 -0.0110036 0)
(1.04626 -0.0929089 4.2352e-21)
(0.896015 -0.0398209 7.92661e-21)
(1.00669 0.000104192 -4.84388e-22)
(1.02235 -0.00188632 -7.37312e-21)
(1.02775 -0.0231184 0)
(1.02844 -0.00492254 -1.6282e-20)
(1.1555 -0.0801464 7.12236e-22)
(1.04943 -0.0630785 0)
(0.973284 -0.0481176 6.4986e-21)
(1.00697 -0.00862128 0)
(1.01903 -0.0037595 -3.58153e-21)
(1.0119 0.000216815 6.11166e-22)
(1.02389 0.000239027 0)
(1.01918 -0.00391709 0)
(1.02449 -0.00039499 -5.86199e-21)
(1.02813 -0.000608906 9.36456e-21)
(1.02408 -0.000474356 0)
(1.01598 -0.000323698 3.71774e-23)
(1.0102 -0.000190035 -2.12958e-21)
(1.0213 0.000794841 -1.5088e-21)
(1.01282 0.000622957 3.58615e-21)
(1.02202 -0.00186517 1.50696e-20)
(1.00715 0.0027411 9.31491e-21)
(1.01287 -0.000655466 1.254e-21)
(1.01193 -0.00219492 -6.8906e-21)
(1.0095 0.00499685 -1.03021e-20)
(1.00797 0.00666729 5.73475e-21)
(1.03039 0.105779 -5.68488e-22)
(1.01218 -0.00243188 6.1295e-21)
(1.01621 -0.000882012 3.66727e-21)
(0.753456 -0.145392 -2.80353e-20)
(0.727904 0.331787 8.49285e-22)
(1.01143 0.00019182 -7.49196e-22)
(0.658269 0.268787 6.82847e-22)
(0.473695 -0.0937304 5.90057e-21)
(1.01575 -0.000691285 7.46674e-21)
(1.00972 0.000237128 7.21001e-23)
(1.01162 0.000325965 -2.1916e-21)
(1.0084 0.00267222 3.80628e-21)
(1.01253 -0.00213874 0)
(1.01285 -0.000631189 -1.46152e-21)
(1.01378 -0.000679272 -5.85049e-21)
(1.01132 0.00368909 8.67963e-21)
(1.01497 0.00507661 5.9336e-22)
(0.764802 0.222179 -4.31031e-21)
(1.00083 0.126407 1.60188e-21)
(1.18685 -0.0582273 0)
(0.95472 -0.0469652 0)
(1.0164 -0.00251115 -5.18061e-21)
(1.01454 0.00644883 0)
(1.01907 -0.00377815 0)
(1.01348 -0.00809914 -6.42589e-21)
(1.01135 -0.138022 -2.28052e-20)
(0.998565 0.14039 2.01089e-23)
(1.02493 -0.0881637 1.23912e-20)
(1.02877 -0.00475887 0)
(0.747559 0.214881 -1.6669e-20)
(1.02417 -0.000223463 -7.3774e-21)
(1.01843 0.00298466 3.57328e-22)
(1.01951 -0.00471202 0)
(1.01898 -0.0252221 1.00414e-21)
(1.05364 -0.344568 -1.9781e-20)
(1.03476 -0.0079851 -5.54014e-21)
(1.01284 -0.0023119 6.07825e-21)
(1.00635 0.00108787 -2.56864e-20)
(0.818232 -0.192537 0)
(1.01764 -0.00524655 -4.42038e-23)
(1.0164 -0.154255 5.46559e-21)
(1.01922 -0.00477409 -1.5681e-20)
(1.02206 -0.00238544 6.77165e-21)
(1.01419 0.00496324 4.35888e-21)
(1.02911 -0.0048891 7.08871e-21)
(1.01908 -0.000114494 1.37732e-20)
(0.928191 -0.0699528 2.49113e-21)
(1.13012 -0.109623 0)
(0.903417 -0.109223 0)
(1.02066 -0.0243746 1.26731e-21)
(0.870116 0.10801 0)
(1.01616 -0.00508082 1.13497e-20)
(0.471224 -0.0512881 0)
(1.01268 0.000581772 -6.46459e-21)
(1.02774 -0.000689153 -9.52136e-21)
(0.832646 0.1991 -3.16389e-21)
(1.14461 -0.221638 0)
(1.01909 -0.00339299 0)
(1.02444 -0.000699553 0)
(1.0237 0.00870369 -9.10931e-22)
(1.187 -0.0727632 0)
(1.01038 0.00117399 0)
(1.02234 -0.0428155 0)
(1.02805 -0.0072917 -8.45117e-21)
(1.00522 -0.0207102 -5.0892e-21)
(0.930466 -0.0586298 0)
(0.938982 -0.0890134 2.46288e-21)
(1.02763 -0.00365997 0)
(0.807996 0.102377 -3.61788e-20)
(1.0119 0.000351893 2.0085e-21)
(1.02078 -0.00209398 5.95616e-21)
(0.797734 -0.164258 -6.32784e-22)
(1.02264 0.00825404 1.00449e-21)
(0.940828 -0.178371 6.07818e-21)
(0.941294 0.01691 1.41819e-20)
(1.0228 -0.00108932 6.85814e-21)
(1.02867 -0.00508951 0)
(1.01896 -5.99311e-05 -1.7088e-20)
(0.987827 -0.0496696 6.09692e-21)
(0.794369 0.208785 0)
(1.02932 -0.0198856 8.29152e-21)
(1.01536 -0.000245331 -7.67066e-21)
(0.940304 0.00642872 2.23194e-21)
(1.00067 -0.0656676 2.97332e-22)
(1.01998 0.00375556 -4.4194e-22)
(1.01928 0.00312089 -1.14697e-22)
(1.0354 -0.0085854 3.94551e-21)
(1.01243 0.000488884 1.9977e-21)
(1.03521 -0.0732498 0)
(0.939577 -0.166528 -4.85491e-21)
(1.02104 0.000427214 2.17387e-22)
(1.01382 -0.00655454 0)
(1.13409 -0.182657 -4.02964e-23)
(1.01841 -0.00721888 4.85443e-21)
(1.01945 -0.040611 0)
(1.0092 0.00304103 -1.18314e-20)
(1.01311 -0.00519267 -1.3458e-20)
(0.833545 -0.108527 0)
(1.01417 -0.00583732 -5.32584e-23)
(1.01608 -0.00126963 -4.05174e-21)
(1.01347 -0.000731591 9.11061e-21)
(1.00947 0.00395575 -3.62782e-21)
(1.01653 -0.00155264 3.84883e-21)
(1.00819 -1.01688e-05 7.05132e-21)
(1.02757 -0.00416682 -5.9866e-21)
(1.02444 -0.0128142 5.60867e-21)
(0.98215 -0.0689508 0)
(1.04322 -0.0686197 -1.62321e-20)
(1.01352 -0.00433092 -1.76145e-21)
(1.03415 0.00202226 0)
(1.01469 -0.0080912 0)
(1.02305 -0.0131185 -2.63953e-21)
(1.01736 -0.0244966 9.67857e-21)
(1.01069 0.000249741 0)
(0.86878 -0.150691 1.24267e-22)
(1.01425 -0.00632358 -8.72687e-22)
(0.976541 -0.0638604 -2.42855e-21)
(1.00828 4.76077e-05 -5.21494e-21)
(1.01426 -0.00324431 1.47548e-20)
(1.02174 0.00571619 0)
(1.021 0.00552524 0)
(1.00357 -0.017525 6.88067e-21)
(0.836897 0.208013 0)
(1.02956 -0.0118178 0)
(1.01062 -0.000235711 0)
(1.01346 0.00254224 -7.2629e-21)
(1.02799 0.0116446 8.61067e-21)
(1.02319 -0.000818082 0)
(0.937004 0.207212 3.05483e-22)
(0.948264 0.202182 -3.05196e-22)
(1.01923 -0.00358248 1.34162e-20)
(1.15242 -0.1176 -2.2206e-21)
(1.01852 -0.000305461 1.169e-20)
(1.04822 -0.0679757 -9.37745e-21)
(1.0105 0.00367462 5.29386e-21)
(1.01998 0.00449809 0)
(1.00768 -7.00728e-05 8.10465e-21)
(1.01072 -7.68136e-05 0)
(1.05338 -0.061638 0)
(1.02276 -0.00121714 4.48163e-21)
(1.02761 -0.004323 0)
(1.01755 -0.00736135 -8.14141e-22)
(1.01195 -0.000361789 -4.34343e-21)
(1.02435 -0.000931192 8.09133e-21)
(1.02134 0.00054515 1.79305e-21)
(0.807607 -0.0482137 -3.75601e-21)
(1.02899 -0.0152679 -9.44275e-21)
(1.00827 -0.000144042 0)
(1.01119 0.000193986 0)
(1.0247 -0.00181088 0)
(1.0278 -0.00460095 0)
(1.01577 -0.00726443 8.64983e-22)
(1.01817 -0.000596309 6.92882e-22)
(0.803833 0.270857 5.57425e-21)
(1.01578 -0.000337799 -4.19659e-21)
(0.938016 -0.216322 -3.8762e-22)
(0.856642 0.0509325 -2.15101e-20)
(1.00759 2.11892e-05 -2.04066e-21)
(1.00937 -0.000187327 5.43875e-22)
(1.01112 -0.0016056 1.93972e-21)
(1.0281 0.013995 -9.47069e-21)
(1.02217 -0.000448218 8.29942e-21)
(1.01238 0.00405045 -2.46683e-22)
(0.930483 -0.218189 4.43843e-22)
(1.01812 -0.000290946 1.05978e-20)
(1.01105 -0.00120944 0)
(1.02213 0.000887795 -8.04045e-21)
(1.02898 -0.00493573 1.03628e-20)
(1.02619 -0.00388837 0)
(1.01721 -0.00911448 0)
(0.982037 -0.0439963 -6.08656e-21)
(1.01182 -0.00265155 1.55216e-20)
(1.02552 0.00808337 0)
(1.0282 -0.00786744 9.61265e-21)
(1.01284 -0.0026505 1.20042e-20)
(0.982924 0.124007 0)
(0.741312 0.148483 1.49455e-20)
(0.998242 0.0985541 1.02921e-22)
(1.02204 0.00726206 -3.859e-22)
(1.03697 -0.325545 2.60506e-20)
(1.02763 -0.00412136 5.38853e-24)
(0.86971 -0.223416 8.80196e-22)
(0.950045 -0.00796011 0)
(1.01459 0.0036744 0)
(1.04087 -0.013288 0)
(0.9504 0.000104924 1.34132e-20)
(1.021 -0.00476668 1.26108e-20)
(1.02076 -0.0362887 0)
(0.991814 -0.0930167 9.28615e-22)
(1.01332 -0.00070915 0)
(1.01332 -0.00056553 0)
(1.02731 -0.000462536 -4.55851e-21)
(1.00953 -3.88663e-06 3.78803e-22)
(1.01007 0.00294156 1.15633e-20)
(0.933324 0.0976271 0)
(1.01929 -0.00514408 7.9018e-21)
(1.01301 -0.00282231 -1.39804e-20)
(0.802764 0.278722 -8.63969e-21)
(1.01941 -0.00649306 -2.53362e-20)
(1.01267 0.00568058 -5.15999e-21)
(1.02248 0.0066486 3.87839e-22)
(1.02869 -0.00242272 2.93245e-21)
(1.01348 -0.000715205 0)
(0.893382 0.0981043 -1.97086e-20)
(1.02809 -0.00486816 0)
(1.02388 -0.00252546 0)
(1.02747 -0.00526576 1.57499e-22)
(1.02092 -0.00692692 1.37184e-20)
(1.05772 -0.194294 0)
(1.02721 -0.00326543 7.91659e-21)
(1.06844 0.000645734 0)
(1.01891 0.00328577 -1.22893e-22)
(1.00315 -0.0422639 0)
(0.850887 -0.0545881 4.83697e-21)
(1.00467 -0.151825 -6.00861e-21)
(1.00026 -0.0437421 0)
(1.02889 -0.00266351 -2.49883e-21)
(1.02791 0.000166146 1.2721e-20)
(0.764835 0.115463 1.58468e-20)
(1.00874 -8.33617e-05 0)
(0.874312 -0.155743 -6.16304e-24)
(1.01597 -0.00814096 8.29293e-21)
(1.01231 0.000490618 1.00381e-21)
(0.836828 0.0817872 1.30525e-20)
(1.01853 -0.0342945 1.16438e-21)
(0.69626 0.155563 0)
(1.02387 -0.00247167 0)
(1.03269 -0.0779522 -4.87607e-21)
(1.1453 -0.00430807 -7.07133e-22)
(0.998795 -0.0121852 0)
(1.01734 -0.00463266 -5.91326e-21)
(0.808507 -0.0800643 8.48093e-22)
(1.02869 -0.0238362 -1.61661e-22)
(1.01715 0.111844 0)
(1.03286 0.00237225 -2.09281e-20)
(1.02723 -0.00288469 8.14604e-21)
(0.821208 0.00780218 -2.23881e-21)
(1.01809 -0.000540431 -2.84366e-21)
(1.02764 -0.00347057 5.53431e-21)
(1.0074 8.92446e-05 1.12094e-22)
(1.00978 -8.17088e-05 0)
(1.01307 0.00688698 5.2152e-21)
(1.02742 -0.00320261 0)
(1.03184 0.00108772 2.56282e-22)
(1.04602 -0.194828 0)
(1.02894 -0.00427066 2.34033e-21)
(0.701162 -0.31938 -1.55297e-22)
(1.00421 -0.120147 0)
(0.77704 0.127185 -1.4944e-20)
(1.0061 -0.0684305 -3.05888e-22)
(1.02019 0.0748838 2.34451e-22)
(1.0105 -7.3071e-05 0)
(1.0272 -0.000263402 0)
(0.744147 0.0128469 -2.423e-20)
(0.991063 -0.115984 0)
(1.00877 0.0021835 -6.19284e-21)
(1.03285 -0.00348135 1.02139e-21)
(0.834472 0.2586 5.81909e-21)
(1.01382 0.00263574 0)
(1.06147 -0.0386362 -2.27062e-20)
(1.01388 -0.00710671 -7.68116e-21)
(1.03082 0.00125195 0)
(1.01382 0.00243778 -3.45815e-21)
(0.998437 -0.0134294 0)
(1.019 -0.00517573 -4.59387e-21)
(1.02722 -0.0252219 0)
(1.16657 -0.102488 0)
(1.01024 0.000610595 0)
(1.08194 -0.0840003 0)
(1.01508 0.0214143 6.03552e-21)
(1.02791 -0.00492858 4.89511e-21)
(1.01139 0.020945 1.96506e-21)
(1.01616 -0.00694542 -1.74495e-20)
(1.03051 -0.0115231 0)
(1.00702 0.00531311 -1.21569e-20)
(0.976566 0.140785 0)
(1.01852 -0.000326064 1.30742e-20)
(1.02641 -0.00393505 0)
(0.985581 -0.0891404 -7.28804e-22)
(1.02724 -0.00244141 9.78143e-22)
(1.01503 -0.0244108 -1.04883e-21)
(1.02761 -0.00451186 0)
(1.01508 0.00457718 5.76546e-22)
(1.01568 -0.0251417 3.3576e-22)
(1.01246 -0.000477093 9.75757e-21)
(1.02648 -0.00408153 1.26117e-20)
(1.01417 0.00210478 4.73993e-21)
(1.09267 0.0261288 0)
(1.00922 0.00638232 5.46272e-21)
(1.08851 0.0479853 0)
(1.01953 -0.0030934 1.1227e-20)
(0.89838 -0.0401337 1.91778e-20)
(1.01108 -0.000210965 0)
(1.01966 -0.00468732 -1.38921e-20)
(1.00806 -0.000119858 0)
(1.02856 -0.00418295 5.12239e-21)
(0.82375 -0.211169 2.09455e-21)
(1.01535 -0.00529153 -1.10763e-20)
(0.847772 -0.0366009 -4.56685e-21)
(1.01392 0.00545712 -4.31291e-21)
(1.01302 -0.00837661 0)
(1.02747 -0.00390504 5.37478e-21)
(0.848172 0.248455 -3.95547e-21)
(1.02705 -0.0644308 7.3598e-21)
(0.868948 -0.0962094 -7.06667e-21)
(0.922715 -0.048465 1.00859e-20)
(1.03154 -0.0203824 -8.75534e-21)
(1.01957 -0.00110138 5.59251e-21)
(1.0819 0.0011724 1.76096e-22)
(1.01406 -0.0228616 -1.82946e-21)
(1.00151 -0.0108316 0)
(0.922754 0.221149 -2.27313e-22)
(0.960014 0.213344 2.45681e-22)
(1.01837 -0.000292825 -1.1456e-20)
(1.01276 0.0153769 1.03412e-20)
(1.02632 -0.0773344 -3.53947e-21)
(1.02261 -0.00210272 0)
(1.01539 -0.0110053 -1.76379e-23)
(1.02217 -0.00223183 -6.70792e-21)
(1.01514 0.000865007 7.78942e-21)
(1.00733 2.92485e-05 -3.53796e-21)
(1.08801 -0.212786 2.64649e-21)
(1.02498 -0.0242158 -9.79272e-22)
(0.792157 -0.107607 6.33017e-22)
(1.01564 0.000978283 4.14135e-21)
(1.03166 0.0158471 -4.60834e-21)
(1.01839 0.00270358 -3.38392e-22)
(1.00822 -1.5184e-05 -7.68856e-23)
(1.0099 0.000165775 -2.09345e-21)
(1.01428 -0.00961376 0)
(1.08233 -0.00445415 7.0037e-21)
(1.02057 -0.00295927 -1.19929e-20)
(1.01203 0.0126712 -2.12897e-21)
(1.01481 0.00268437 -9.22132e-21)
(1.01722 -0.000589403 -5.18978e-21)
(1.01124 -0.0260897 2.46569e-21)
(0.909883 -0.0427217 -8.15708e-21)
(1.01187 -0.0003729 0)
(1.01937 -0.00107145 -5.74325e-21)
(0.854682 -0.0117055 0)
(1.01976 -0.0307644 0)
(1.02828 -0.00512371 9.13701e-21)
(0.887466 -0.149795 1.86356e-21)
(0.90807 -0.051729 -1.88651e-20)
(1.00856 0.000118661 3.82399e-21)
(1.00679 0.000115056 5.07708e-21)
(1.02753 -0.00307123 -5.67493e-21)
(1.01372 -0.0266845 -1.20544e-20)
(1.02675 -0.00410478 -2.93634e-21)
(1.01335 -0.000410218 -1.03647e-20)
(1.01702 -0.000454137 -1.13383e-20)
(1.01695 -0.00550762 -1.33873e-20)
(1.01425 -0.00849222 7.62932e-21)
(1.01352 -0.00470757 7.23565e-21)
(1.04527 0.0842869 8.27378e-22)
(0.968687 -0.0666837 2.60012e-21)
(1.0114 0.000289606 7.65496e-21)
(0.827647 -0.220897 1.53991e-21)
(1.01483 0.026094 1.22687e-22)
(1.01484 -0.00203077 0)
(1.02993 -0.0141102 0)
(1.00979 -0.0085197 -1.02489e-20)
(1.10012 -0.113168 0)
(1.01164 0.0045458 2.09075e-21)
(1.06566 -0.230747 1.31595e-21)
(1.0145 0.00400947 0)
(1.01342 -0.00562338 -2.1135e-20)
(0.994427 -0.0699526 0)
(1.02171 -0.00234637 -4.56548e-22)
(1.01763 -0.0435429 0)
(0.842872 0.134958 3.03655e-21)
(1.0253 0.0101821 9.40799e-21)
(1.01453 -0.00216716 0)
(0.738526 -0.330421 1.62926e-22)
(1.01789 -0.0290404 0)
(1.01227 -0.000365718 -2.41895e-21)
(1.01078 -0.00544417 0)
(1.05614 -0.0921594 1.2515e-20)
(1.01365 -0.00078996 8.09427e-21)
(1.01227 -0.000262876 -2.36254e-21)
(1.01839 -0.00052798 2.40009e-20)
(1.0136 -0.000951245 3.58907e-21)
(0.836912 -0.0801902 6.00134e-21)
(1.04122 -0.0733781 8.98116e-21)
(1.01774 0.0241311 2.42035e-20)
(1.02986 -0.016778 9.44642e-21)
(1.01114 -0.004888 -8.29266e-21)
(1.01242 -0.00266751 1.44037e-20)
(1.02627 -0.00252489 -7.8362e-21)
(1.01276 0.000307706 0)
(1.01838 -0.000455505 -3.34771e-21)
(1.08623 -0.0936615 0)
(0.997398 -0.161236 7.32088e-21)
(1.0134 0.00273466 7.51073e-21)
(1.02789 0.00796241 8.84161e-21)
(0.704842 -0.01262 2.50659e-20)
(1.02297 -0.0069395 0)
(0.973808 0.00682335 5.33996e-21)
(1.07031 0.0051541 7.24735e-21)
(1.01317 0.000381056 0)
(1.00013 -0.0900287 -4.70799e-22)
(0.815449 -0.075685 1.13442e-20)
(1.02315 -0.00101058 0)
(1.07914 -0.19143 -2.82471e-21)
(1.01962 0.00474744 8.41197e-22)
(1.14405 -0.170972 -1.08639e-21)
(1.01852 -0.00956203 -5.7719e-21)
(0.768598 0.0503717 4.81527e-21)
(1.01766 -0.00491307 -1.24396e-20)
(1.01318 -0.0047493 7.78914e-21)
(1.01084 0.00778711 1.49912e-22)
(0.909333 0.225417 0)
(1.02866 0.0015144 -1.17873e-20)
(0.874308 -0.161481 -1.19591e-21)
(0.868618 -0.12086 -8.21904e-22)
(0.526611 -0.259035 -1.11693e-20)
(1.01517 -0.0452423 8.31584e-22)
(1.04452 -0.224742 0)
(1.00097 -0.00697217 0)
(1.00446 -2.97746e-05 -2.37551e-20)
(1.02997 -0.0402614 -2.57831e-21)
(1.02734 0.0061508 -9.7969e-21)
(0.843626 -0.0743075 -9.87028e-22)
(1.02676 -0.00355338 4.90136e-21)
(0.863669 -0.0329436 -9.78427e-21)
(1.01521 0.00187625 -4.76915e-21)
(0.927635 0.0343732 1.69531e-21)
(1.0086 -6.52828e-05 -9.33806e-21)
(1.03509 -0.00411028 -3.43944e-21)
(1.01265 -0.00291091 -1.54514e-20)
(1.05966 -0.205617 1.58665e-20)
(1.01529 0.00220699 3.24147e-21)
(1.01035 0.00015065 4.53386e-21)
(1.03221 -0.00843654 2.14947e-22)
(1.02649 -0.00732824 0)
(1.02329 -0.0257221 1.01405e-21)
(1.01834 -0.00550721 -4.38567e-21)
(1.02073 -0.00221012 -7.189e-21)
(1.02271 -0.0064727 0)
(1.02218 -0.00636593 1.04575e-21)
(0.714821 0.218483 -2.05185e-22)
(1.01508 -0.00151313 0)
(0.944451 0.224623 0)
(0.965995 0.102248 0)
(1.01506 -0.00141987 3.58052e-21)
(1.00898 -0.000115895 -9.32992e-21)
(1.03128 0.0180169 5.60881e-21)
(1.03247 -0.00382879 3.22905e-21)
(1.02192 -0.0020209 0)
(1.02821 -0.00457396 -1.01206e-20)
(0.999705 -0.0145413 0)
(1.01897 -0.0109761 6.12642e-21)
(1.03648 -0.00697622 -1.17763e-21)
(1.02691 -0.00783968 -2.53101e-21)
(1.01218 -0.000265217 -1.25252e-20)
(1.01018 -0.0103492 1.08e-20)
(1.0286 -0.0030919 0)
(1.0219 -0.0116779 2.33697e-21)
(1.02851 -0.00519537 -1.0878e-20)
(1.02872 -0.00186725 -1.55756e-20)
(0.917903 0.221659 1.73724e-22)
(1.02329 -0.00506596 -1.16986e-20)
(0.914788 0.15654 0)
(1.03221 -0.0228539 6.33617e-22)
(1.01014 -0.000238493 0)
(1.02104 -0.00225033 7.18697e-21)
(1.01365 -0.000826256 5.41927e-21)
(1.02791 -0.00574268 1.5628e-21)
(1.03032 -0.00524007 1.55466e-21)
(1.01381 -0.005504 2.13487e-20)
(1.02332 -0.00248877 0)
(1.01863 0.0022436 0)
(1.01214 -0.00297162 -1.62156e-20)
(1.02306 -0.00345029 4.38284e-21)
(1.01787 -0.00117194 -3.23219e-24)
(1.03543 8.82236e-05 -6.03851e-21)
(1.01319 0.000866899 -3.7111e-21)
(1.03461 -0.00461033 -1.78321e-21)
(1.00693 -5.13545e-05 -7.36085e-21)
(1.02744 -0.00271971 0)
(1.03526 -0.00115734 -5.97364e-21)
(1.03688 -0.00760448 0)
(1.02783 -0.0428886 2.03916e-21)
(1.00758 3.41206e-05 0)
(1.01424 -0.00443405 -6.93698e-21)
(1.02116 -0.00211262 1.16969e-22)
(1.01226 -0.000491213 9.54389e-21)
(1.01595 0.000935296 3.54524e-21)
(1.01049 0.000327736 -2.07136e-21)
(1.01637 0.000732674 -3.56943e-21)
(1.01312 -0.00259828 0)
(1.02341 -0.00487928 2.92373e-21)
(1.0154 0.00209135 1.04847e-21)
(0.998389 -0.0240316 0)
(1.01037 -6.6693e-05 0)
(1.00795 -3.73542e-05 0)
(1.02266 -0.00172777 -1.92491e-20)
(0.876597 -0.016211 9.93799e-21)
(1.01606 -0.00222474 0)
(1.01411 0.00246583 -1.16189e-21)
(1.01281 -0.0853828 5.73906e-22)
(1.01901 0.00450958 5.79466e-23)
(1.01462 -0.0142105 0)
(1.05627 -0.215834 4.29825e-20)
(1.00448 -0.000708599 -4.95888e-21)
(1.01112 -0.000375204 0)
(1.01036 0.000207774 0)
(1.03161 -0.144486 2.17064e-20)
(1.01366 -0.000780626 9.01223e-23)
(1.02314 -0.0824915 4.29909e-21)
(0.502361 -0.249649 5.49914e-21)
(0.875921 0.204483 -1.07728e-20)
(0.899599 -0.0676421 2.53481e-21)
(1.01525 -0.0134896 1.2342e-20)
(1.02308 -0.00196863 -2.51215e-21)
(0.954324 0.160857 9.04157e-22)
(1.02219 0.0104396 2.68021e-21)
(1.01428 0.00227084 -4.32658e-21)
(1.02394 0.085125 2.93582e-23)
(0.876361 -0.0463809 -1.00336e-20)
(0.707959 -0.0461922 -1.54984e-21)
(1.02148 -0.00214884 2.31531e-22)
(1.05406 -0.0991948 0)
(1.02303 -0.00187375 -3.82862e-21)
(1.02237 -0.00173528 1.57433e-20)
(1.07414 -0.144129 1.54411e-20)
(1.01799 -0.00113272 0)
(1.08466 0.0417272 0)
(1.0167 -0.0155619 -1.01698e-21)
(0.963491 -0.0602881 -7.93594e-21)
(1.01415 -0.0041028 -6.82448e-21)
(1.02452 -0.0037298 -1.11321e-20)
(1.02862 -0.00330102 0)
(1.07509 -0.202835 -4.06723e-20)
(0.936358 -0.237177 -1.62505e-21)
(1.0133 -0.00743007 6.26883e-21)
(1.01762 -0.0138634 -5.62448e-22)
(1.04161 -0.0307612 -3.0967e-21)
(1.01324 -0.00272118 0)
(1.01882 -0.0262492 -2.47926e-21)
(1.01641 -0.0807739 8.3054e-21)
(0.971426 -0.284699 2.39673e-20)
(1.01702 -0.00466324 -7.68969e-21)
(0.973355 0.0137597 -1.72308e-21)
(1.02081 0.0109529 3.32638e-21)
(0.849535 0.196036 -4.65735e-21)
(0.9804 0.0163105 0)
(0.803754 -0.0257059 -1.86416e-21)
(0.945189 0.118746 0)
(1.00834 -0.00160995 -5.13093e-21)
(1.04306 -0.0364041 0)
(0.944284 -0.230257 -4.24235e-22)
(1.01608 -0.00242178 0)
(1.0178 -0.00136944 -5.98664e-21)
(1.0073 -4.64291e-05 0)
(1.0055 -0.0040687 -2.93771e-21)
(1.01489 0.00213655 -4.11313e-21)
(1.11785 -0.247925 1.33679e-20)
(1.01436 0.00207746 -4.76651e-21)
(0.957589 0.240615 -3.21122e-21)
(1.03968 -0.0123121 -4.2171e-24)
(0.980069 -0.0652266 -4.71742e-21)
(0.994022 -0.0772141 0)
(1.02664 -0.00258404 0)
(0.885245 -0.094579 -7.18141e-21)
(1.03343 0.130358 0)
(1.02826 -0.0046095 9.08834e-21)
(0.80083 0.052451 0)
(1.04303 -0.0333218 1.50021e-21)
(1.0445 -0.120158 -1.7668e-20)
(1.01474 0.00221077 0)
(1.01884 0.00423502 -8.06924e-22)
(0.863062 -0.0790432 1.49074e-20)
(1.02146 -0.00889519 0)
(0.944054 -0.238686 7.28493e-22)
(1.01285 -0.000632291 1.49646e-21)
(0.933995 0.167399 0)
(1.01322 0.00115163 2.00798e-20)
(0.933953 -0.0444469 1.39718e-20)
(0.862923 -0.0328738 0)
(1.00811 -0.000701622 1.16e-20)
(0.811117 -0.382661 3.02073e-20)
(1.01848 -0.000265976 -1.43436e-20)
(1.03271 -0.00905319 3.85868e-21)
(1.00761 -0.0431088 1.09938e-21)
(0.938037 0.0751131 2.60518e-21)
(0.905547 0.146694 -2.60877e-21)
(1.01526 0.000655826 8.61121e-22)
(1.0134 0.00145049 -2.42507e-21)
(1.0145 0.00272652 5.54012e-22)
(0.869118 0.162501 7.30755e-21)
(0.80216 0.284485 1.80118e-21)
(1.01582 -0.000322392 1.27547e-20)
(1.03601 -0.0262633 0)
(0.967379 0.00230378 -8.90099e-21)
(1.01468 0.00245938 3.34196e-21)
(1.01515 -0.00312948 0)
(1.02556 0.000452825 0)
(1.07351 0.0561981 0)
(0.989712 -0.0108086 8.73546e-21)
(1.02228 -0.00988978 -3.42354e-23)
(1.01 -2.11072e-05 0)
(1.01426 -0.000588598 0)
(0.902269 -0.083291 -2.22697e-21)
(0.741595 -0.017829 0)
(1.00543 0.044923 -5.31909e-21)
(1.01227 -0.000466414 0)
(1.0137 -0.00098548 0)
(0.867222 -0.000374189 9.91789e-21)
(1.01793 -0.00132357 -6.38281e-21)
(0.776724 0.0108437 -3.92166e-21)
(0.985109 -0.0350699 4.71683e-21)
(0.953457 0.25082 -5.35422e-21)
(0.881062 -0.0143064 -5.39305e-21)
(0.931288 0.148767 2.78318e-21)
(1.0135 -0.00108502 0)
(1.02681 -0.00240087 0)
(1.02903 -0.0134159 -3.53705e-21)
(1.03204 -0.007213 0)
(1.02071 -0.011972 -5.8031e-21)
(1.01807 -0.000785369 1.12669e-20)
(1.04725 -0.0996058 1.46403e-20)
(0.938494 0.17326 -9.2627e-22)
(1.01376 0.000993155 0)
(1.0404 0.0854498 0)
(1.01416 -0.000630919 -2.60812e-22)
(1.10385 -0.00351935 0)
(1.02991 -0.00235521 5.67452e-21)
(0.857434 0.0185424 -3.77369e-21)
(1.04052 0.000735653 0)
(0.996221 0.000411184 -1.08124e-20)
(1.01681 -0.00563675 -7.2355e-21)
(1.01207 -0.00245882 0)
(0.998243 0.0269247 6.70313e-21)
(0.893618 0.24342 -4.86003e-22)
(0.952695 -0.233643 -1.54998e-22)
(1.02433 -0.00674369 -1.12359e-21)
(0.996946 -0.00514605 8.49339e-21)
(1.02035 0.00714517 7.93092e-21)
(1.02909 -0.00137558 6.19842e-21)
(1.0237 -0.00343619 4.05159e-21)
(1.01867 -0.310477 0)
(1.01085 -0.000210519 -5.86224e-21)
(1.03638 -0.120274 1.48839e-20)
(1.01341 -0.00123019 -1.23845e-20)
(1.04319 -0.0326966 -3.86938e-22)
(1.01447 -0.00747297 0)
(1.01311 0.000764056 3.88353e-21)
(1.0078 -2.90707e-05 8.26823e-21)
(1.01382 -0.00102371 7.64796e-24)
(0.642735 -0.188788 1.75852e-20)
(1.01774 -0.00158674 0)
(1.02687 -0.00263839 2.92507e-23)
(1.0084 -5.71427e-05 -4.38431e-21)
(1.00933 0.000293011 0)
(1.01515 0.00196629 9.84581e-22)
(0.966606 0.0163021 1.67888e-20)
(1.00839 -4.58916e-05 -8.65276e-21)
(1.03607 -0.0051378 0)
(1.01352 -0.0011014 0)
(1.01531 -0.00335406 0)
(0.930748 0.224716 7.20035e-22)
(1.01624 -0.00202062 -2.27979e-20)
(1.13336 -0.0775242 0)
(1.01406 0.00120498 0)
(0.982174 0.0222384 1.29052e-20)
(1.01008 -3.37859e-05 -3.79096e-21)
(1.07513 0.0499513 0)
(1.00949 0.000190012 -2.82873e-21)
(1.04469 -0.148039 -3.14007e-21)
(1.02697 -0.00510663 6.00296e-22)
(1.02212 -0.00919589 -9.0635e-21)
(1.01346 -0.00105353 -2.16506e-20)
(0.938615 0.22113 -7.20227e-21)
(0.919566 0.219727 -2.96337e-21)
(1.09168 0.025321 0)
(0.873301 -0.171295 0)
(0.834664 0.0245318 -9.24999e-21)
(1.02086 -0.00917673 -8.60772e-21)
(1.02875 -0.0122605 0)
(0.908663 0.2157 3.40138e-22)
(1.01625 0.00181512 -2.64718e-23)
(0.844241 -0.0642734 1.04799e-21)
(0.853097 -0.105174 -2.58582e-21)
(0.968743 0.0250292 1.34984e-20)
(0.903701 -0.057188 -3.17691e-21)
(1.02785 -0.00210537 -1.20863e-20)
(0.941765 0.235089 -9.91823e-22)
(1.00678 -0.0271014 -2.07694e-20)
(1.07273 0.10818 -1.83444e-21)
(0.912874 0.230287 5.69039e-22)
(1.02712 -0.0031476 8.41735e-21)
(1.02692 -0.00368493 5.03583e-21)
(0.934431 0.235361 9.96312e-22)
(0.81262 0.258918 4.80479e-21)
(1.01418 -0.000176824 9.48561e-21)
(1.03417 0.000686948 -2.01639e-22)
(1.01812 -0.000839325 1.39705e-20)
(1.01828 0.0101178 -9.24759e-21)
(1.04502 -0.0524414 -7.3083e-21)
(1.01058 0.000241421 3.79232e-21)
(1.01566 0.000925085 3.45774e-21)
(1.03253 -0.00775283 -3.79263e-21)
(0.977119 0.0335978 0)
(1.01041 -0.045809 0)
(1.03479 -0.0154299 0)
(0.847156 0.192342 2.09437e-21)
(1.01358 -0.00109143 0)
(1.01668 0.000884949 0)
(0.915592 0.0289444 0)
(0.98256 0.135733 0)
(1.05178 -0.0546137 8.068e-21)
(1.01708 -0.000262424 9.86801e-21)
(1.00384 0.0377312 -4.11036e-21)
(1.01262 0.000831908 -5.04685e-21)
(1.01618 0.00163624 0)
(0.799389 0.00448578 1.62912e-21)
(1.01553 0.00183715 4.00766e-21)
(1.0279 -0.00264752 5.6528e-21)
(0.940715 0.24019 0)
(0.944177 0.234535 -5.62978e-21)
(1.0082 -0.00365647 1.01971e-20)
(1.07862 0.0523476 -4.61938e-21)
(0.859768 -0.0835927 -2.78565e-20)
(1.09797 -0.0967767 0)
(0.950105 0.109587 0)
(0.999089 -0.310001 -3.15213e-21)
(1.01432 -0.000422906 1.09804e-20)
(0.915462 -0.0888713 9.78593e-21)
(1.0279 -0.00508732 0)
(1.01338 -0.00117931 1.03983e-20)
(1.02341 -0.00364804 -9.85724e-21)
(1.00816 -5.71441e-05 0)
(1.02081 0.00780724 -8.52317e-21)
(0.899106 -0.347668 0)
(1.00568 0.00176887 0)
(0.81409 -0.00262299 -1.11238e-21)
(1.01413 -0.00224378 3.56335e-21)
(1.02652 0.0421679 -1.12275e-20)
(1.02879 -0.00458709 7.00534e-22)
(1.04762 -0.0554775 7.53629e-21)
(0.999359 -0.00344234 0)
(1.02187 -0.00170828 -9.06049e-21)
(0.986502 -0.0394069 -8.41138e-21)
(1.01524 -0.00260113 0)
(1.01638 0.00123383 0)
(0.934123 -0.046697 7.11292e-21)
(1.02832 0.0145046 -5.68317e-21)
(1.00936 -0.0206766 0)
(1.00693 0.000912052 -1.08745e-20)
(1.0129 0.00275062 1.32711e-21)
(0.95337 0.188624 0)
(1.00759 0.0666191 3.93505e-21)
(1.00723 -0.00482077 -3.85022e-21)
(1.01866 0.00258931 -1.41176e-23)
(1.01813 0.00216225 -1.15419e-22)
(1.01753 0.00729066 1.26299e-21)
(1.00572 -0.00723869 0)
(0.709903 0.191655 1.14828e-20)
(0.939477 -0.0558496 5.60937e-21)
(0.93468 0.11902 -3.19248e-21)
(0.999243 -0.0172351 -8.18423e-21)
(0.858233 -0.125007 5.661e-21)
(1.01153 -0.0120064 0)
(1.05386 0.000655939 -7.45824e-21)
(1.03868 -0.0279297 0)
(1.02687 -0.0133927 0)
(0.89683 -0.0449372 -1.28384e-20)
(1.01722 -0.00564346 2.46989e-23)
(1.01377 -0.00427506 -1.70256e-21)
(1.18462 -0.0329864 0)
(0.997116 -0.0272673 0)
(0.992812 -0.334508 2.13332e-20)
(1.01636 -0.00468612 -6.90482e-21)
(0.867188 0.216844 1.29947e-20)
(0.878189 0.109463 8.34654e-21)
(1.0128 -0.00013976 -1.04542e-20)
(1.03479 -0.0645142 0)
(1.03926 -0.0152431 2.99644e-25)
(0.693898 0.180487 0)
(1.01123 -0.000242396 -2.58275e-21)
(1.0313 -0.0211642 -6.64201e-22)
(0.888091 0.127871 1.34978e-21)
(1.02693 -0.0115471 -6.00939e-21)
(1.01661 -0.00498269 -8.73853e-22)
(0.998876 0.0355823 -1.41597e-21)
(1.02752 -0.005657 1.02006e-20)
(1.01222 -0.000317347 7.80346e-21)
(1.01431 -0.00397475 8.40516e-21)
(0.887032 -0.18251 0)
(1.02816 -0.00634979 1.05257e-20)
(1.0454 -0.0253306 -2.78381e-21)
(1.1102 -0.0598275 0)
(1.03245 -0.0604024 0)
(1.04094 0.00270447 0)
(0.997177 -0.000620285 1.17579e-20)
(1.01172 -0.0569863 0)
(0.885353 -0.131545 1.1318e-21)
(1.00316 -0.0558897 0)