/*--------------------------------*- C++ -*----------------------------------*\
| =========                 |                                                 |
| \\      /  F ield         | OpenFOAM: The Open Source CFD Toolbox           |
|  \\    /   O peration     | Version:  v2012                                 |
|   \\  /    A nd           | Website:  www.openfoam.com                      |
|    \\/     M anipulation  |                                                 |
\*---------------------------------------------------------------------------*/
FoamFile
{
    version     2.0;
    format      ascii;
    class       surfaceVectorField;
    location    "500";
    object      Uf_0;
}
// * * * * * * * * * * * * * * * * * * * * * * * * * * * * * * * * * * * * * //

dimensions      [0 1 -1 0 0 0 0];


internalField   nonuniform List<vector> 
14885
(
(0.983027 -0.0170982 3.86947e-23)
(0.984836 -0.0116799 -3.64322e-21)
(0.976335 -0.0146071 3.45499e-21)
(0.870639 -0.26786 -5.10953e-22)
(0.872797 -0.257599 -3.92469e-21)
(0.859112 -0.261701 -6.92054e-22)
(1.07536 -0.0434119 -8.84775e-22)
(1.07332 -0.0520265 -2.2092e-21)
(1.06359 -0.0448972 1.94453e-21)
(1.01687 0.00170461 2.46727e-22)
(1.017 0.0018385 1.35253e-22)
(1.01705 0.00173933 8.60775e-22)
(1.01337 0.00058332 1.67818e-21)
(1.01304 0.00044648 1.0225e-21)
(1.01343 0.000645423 -4.43504e-22)
(0.782616 -0.136214 -2.41339e-22)
(0.768236 -0.0936614 6.68231e-21)
(0.786999 -0.128658 5.81511e-21)
(0.968061 0.206975 -2.03073e-21)
(0.978067 0.217997 -3.04945e-21)
(0.981052 0.20012 7.32699e-22)
(0.986378 0.0718998 7.93296e-21)
(0.966405 0.0815485 9.94499e-21)
(0.975665 0.115939 4.21986e-21)
(1.01326 -0.000664504 -9.75864e-22)
(1.0135 -0.000646611 1.7916e-21)
(1.01339 -0.000725926 6.84124e-22)
(0.95061 0.0501694 -8.4567e-22)
(0.950683 0.055875 -1.51255e-21)
(0.943907 0.0514388 -2.10376e-21)
(0.997831 -0.0867931 -9.04054e-23)
(1.00611 -0.0892208 4.63976e-21)
(1.00743 -0.0779501 -1.36437e-21)
(0.873458 -0.274239 -5.37254e-21)
(0.881096 -0.26908 3.56379e-21)
(1.06981 0.069474 -2.70024e-22)
(1.07436 0.069944 -4.5171e-21)
(1.07217 0.0651111 1.164e-21)
(1.01548 0.00524055 0)
(1.01548 0.00459835 0)
(1.01617 0.00526198 0)
(1.03059 0.00361527 -4.51903e-22)
(1.03133 0.00347749 -6.53933e-23)
(1.03115 0.00419481 9.57127e-22)
(1.01526 0.0059432 0)
(1.01486 0.00521222 -8.17485e-22)
(0.812813 -0.200282 0)
(0.819208 -0.215838 0)
(0.830279 -0.220435 3.07062e-21)
(0.99075 -0.0840455 0)
(0.987453 -0.0955485 3.09044e-23)
(1.05377 0.0221048 4.75644e-21)
(1.05616 0.0218487 4.7198e-21)
(1.05548 0.0244044 -1.00749e-21)
(1.00746 -0.012579 2.09492e-21)
(1.00427 -0.0122495 -1.15228e-21)
(1.00647 -0.0158229 -3.16413e-21)
(1.06525 0.0686728 -5.28128e-21)
(1.06691 0.0737685 6.40736e-22)
(0.981342 -0.0230218 7.64486e-22)
(0.989129 -0.0195997 0)
(1.01675 0.00155515 -2.23661e-22)
(1.01668 0.00165269 -1.47489e-21)
(0.944016 0.2449 3.09705e-21)
(0.942353 0.240721 -3.07176e-21)
(0.94213 0.24256 -2.65862e-21)
(1.01564 0.00269136 1.09419e-21)
(1.01569 0.00259797 -4.43226e-22)
(1.01548 0.00254079 1.37226e-21)
(1.00868 -0.000160756 2.83187e-22)
(1.0097 -9.00928e-05 0)
(1.01053 -0.000106653 4.61397e-22)
(0.957135 0.0478207 0)
(0.951158 0.0428928 0)
(1.01248 -0.000392366 4.24773e-22)
(1.01257 -0.000413133 -3.12043e-22)
(1.01253 -0.000382592 -1.0077e-21)
(0.796344 -0.171897 0)
(0.786858 -0.142637 9.99591e-21)
(0.953677 0.256292 1.62214e-20)
(0.957361 0.26188 2.60426e-21)
(0.94702 0.263161 2.21359e-20)
(1.01016 0.000279469 1.04429e-22)
(1.0087 9.67248e-05 -1.45529e-21)
(1.00859 0.000133602 1.03386e-21)
(1.1215 0.0460081 9.08829e-21)
(1.1211 0.0505433 7.64292e-21)
(1.12621 0.047924 -4.01372e-21)
(1.01306 -0.000558235 9.83798e-23)
(1.01316 -0.000619654 -2.60962e-21)
(1.01326 -0.000547712 4.95747e-23)
(1.01298 -0.000534776 -1.6846e-22)
(1.0129 -0.000561698 8.53561e-22)
(1.00533 0.062818 -9.21765e-21)
(0.996644 0.0250669 1.07419e-21)
(0.941933 -0.00769651 -7.47055e-21)
(0.920925 -0.00543888 -1.42009e-20)
(0.930753 -0.0509323 -3.40442e-21)
(1.01779 0.000333232 0)
(1.01847 0.000545919 -3.6934e-22)
(1.01879 0.000607511 4.47548e-22)
(1.0114 -0.000438588 0)
(1.01131 -0.000349776 0)
(1.01133 -0.000380714 1.04618e-21)
(1.01127 0.000396078 9.442e-23)
(1.01114 0.000305228 4.70652e-22)
(1.00993 -0.00371533 6.16516e-23)
(1.01104 -0.00384599 -6.4274e-23)
(1.01043 -0.00243989 2.49297e-22)
(0.947703 0.248358 7.20445e-22)
(0.954366 0.246728 -4.4354e-22)
(1.01305 -0.000668828 -5.5286e-22)
(1.12896 0.174394 0)
(1.12695 0.165673 0)
(1.13774 0.167639 -1.04212e-20)
(0.895861 -0.234334 -9.33427e-22)
(0.893945 -0.227406 3.93865e-21)
(0.901392 -0.238214 1.08676e-21)
(1.0163 0.00226759 7.76898e-22)
(1.01615 0.0021676 -7.42114e-22)
(1.01622 0.00215542 -7.515e-22)
(1.01561 0.0027598 -4.44454e-22)
(1.01581 0.00278383 5.98792e-22)
(1.01306 -0.000533411 -7.26703e-23)
(1.01302 -0.000503742 3.40533e-22)
(1.01303 -0.000491543 9.7263e-22)
(1.02983 0.00316554 -9.33726e-22)
(1.02972 0.00386381 -6.10502e-22)
(0.981863 0.103378 0)
(0.985197 0.109731 0)
(0.989078 0.102351 7.95293e-22)
(1.11565 0.264422 6.22196e-21)
(1.12779 0.283378 1.9413e-20)
(1.13961 0.261834 5.5763e-21)
(1.13558 0.185084 -1.52844e-20)
(1.12066 0.182773 0)
(1.01496 0.001058 3.41623e-22)
(1.01508 0.00102355 4.95573e-22)
(1.01501 0.00114966 -1.25885e-22)
(0.812367 -0.184409 -5.60265e-22)
(1.05157 0.0225031 -5.04345e-21)
(1.05212 0.0203854 2.47147e-21)
(0.737594 0.268193 -4.36681e-21)
(0.747911 0.252954 8.79032e-21)
(0.728375 0.262404 -6.20326e-21)
(0.227499 -0.288591 -2.38318e-20)
(0.23212 -0.27275 -8.29508e-21)
(0.247794 -0.260205 -2.11667e-20)
(1.06091 0.0676736 -9.57213e-21)
(1.06365 0.0641255 -4.15258e-21)
(1.0215 -0.0478548 4.08227e-22)
(1.01216 -0.054106 -6.86663e-22)
(1.01793 -0.054157 0)
(1.0251 0.0100478 0)
(1.02536 0.0107091 0)
(1.02455 0.010404 -5.42101e-23)
(1.01558 -0.00141779 0)
(1.01559 -0.00125936 0)
(1.01572 -0.00137313 1.62385e-23)
(0.978297 0.0968701 0)
(0.973232 0.104227 1.0324e-21)
(0.803764 0.201049 2.4833e-21)
(0.791859 0.217661 -6.38258e-21)
(0.812106 0.208166 3.66848e-21)
(1.11876 0.159218 2.64011e-21)
(1.12698 0.153991 1.86505e-20)
(1.03044 0.107143 3.16689e-22)
(1.01578 0.119329 6.03824e-21)
(1.01707 0.139558 5.74652e-21)
(1.07385 0.00263192 8.42197e-23)
(1.07686 -0.00449045 4.56286e-22)
(1.08062 0.00292315 8.29008e-23)
(1.01661 0.00639448 0)
(1.01717 0.00663048 9.82903e-22)
(1.01659 0.00700371 9.21884e-22)
(1.01281 -0.012102 -2.28701e-21)
(1.01032 -0.0124033 1.38019e-21)
(1.01266 -0.0150211 8.51193e-22)
(0.963709 0.008181 7.04303e-23)
(0.955818 0.0125665 -3.35012e-22)
(0.966483 0.0153411 -3.86522e-22)
(1.01333 -0.000715022 -1.50974e-21)
(1.01327 -0.000684568 6.18733e-22)
(1.01336 -0.000763977 -7.64562e-22)
(0.969718 0.00461247 4.15957e-22)
(0.961789 0.0010018 2.30531e-21)
(1.1416 0.193825 1.34439e-21)
(1.15204 0.20494 1.36649e-20)
(1.13226 0.20447 1.43967e-20)
(1.01181 0.00907992 4.20658e-22)
(1.01127 0.00783138 2.39646e-22)
(1.0125 0.00787088 -1.22654e-22)
(1.01107 -0.000237966 -1.22368e-22)
(1.011 -2.46446e-05 -2.23911e-22)
(1.0111 -2.77791e-05 -2.22177e-22)
(1.0256 0.0096111 7.38354e-22)
(1.02484 0.00939165 0)
(1.01653 0.0059032 0)
(1.01605 0.00611829 0)
(1.14985 0.184925 -3.24301e-21)
(1.04215 -0.0382633 -2.95348e-22)
(1.04254 -0.031483 -1.25832e-21)
(1.04718 -0.0355131 6.15899e-22)
(1.01312 -0.000606354 -1.30082e-21)
(1.01313 -0.000571162 -1.74752e-21)
(1.03744 -0.0395115 0)
(1.03764 -0.0451792 1.70396e-21)
(1.05678 0.0196214 2.254e-21)
(1.05867 0.0218472 0)
(0.897771 -0.239369 2.47129e-21)
(0.89158 -0.231932 0)
(0.941918 0.249674 6.85379e-22)
(1.00492 0.000114778 9.29982e-22)
(1.00857 0.000204638 -2.30809e-21)
(1.00468 8.72742e-05 -3.53304e-22)
(1.01403 0.00086746 -1.12474e-21)
(1.01391 0.000907096 -1.06144e-21)
(1.01398 0.000984937 2.21705e-21)
(0.968734 0.00713341 5.59989e-22)
(0.964696 0.0033445 -1.02081e-21)
(0.962859 0.00950459 -1.05201e-21)
(0.947561 0.138457 0)
(0.953187 0.1311 0)
(0.955287 0.141563 -5.36594e-23)
(1.01306 -0.00976066 7.98404e-24)
(1.01516 -0.0114975 1.56034e-21)
(1.07421 -0.0346967 -5.30419e-21)
(1.08652 -0.0406617 -1.76723e-21)
(1.01342 0.000652241 -3.98609e-23)
(1.01346 0.00079007 -2.96817e-22)
(1.01358 0.000526381 -1.32405e-21)
(1.05789 -0.0240001 0)
(1.06317 -0.0198961 0)
(1.05681 -0.0177744 0)
(1.06414 0.0469586 3.73162e-21)
(1.06513 0.0505515 -4.44029e-21)
(1.068 0.0471786 -8.12116e-21)
(1.03158 0.00280726 0)
(1.03223 0.00335423 -1.44653e-21)
(1.11309 0.150482 1.4708e-21)
(1.10981 0.162227 2.55448e-21)
(0.937721 0.134763 -6.98782e-23)
(0.939941 0.147188 6.19393e-22)
(1.06614 0.0267062 2.77961e-21)
(1.07357 0.0232276 1.219e-21)
(1.07342 0.0316866 4.6137e-21)
(1.018 0.00425555 -4.94573e-22)
(1.01798 0.00428683 1.0464e-22)
(1.01794 0.00408421 -8.89659e-22)
(-0.0397935 -0.254036 -1.17717e-21)
(-0.0371865 -0.272082 -1.28131e-20)
(1.00839 -0.0098199 -5.42256e-22)
(0.994981 -0.199829 3.06138e-21)
(0.989597 -0.212658 -6.84184e-21)
(1.00477 -0.19784 0)
(1.02599 0.00921496 1.15859e-22)
(1.0264 0.00875295 -6.6761e-22)
(1.02565 0.00860842 -1.41486e-22)
(1.06289 0.0440474 1.08981e-20)
(1.06071 0.0468555 2.75735e-21)
(0.924754 0.067671 -2.45249e-22)
(0.91979 0.0731314 1.02425e-21)
(0.929678 0.0753939 -1.97343e-22)
(1.0175 0.00929754 4.23757e-23)
(1.01698 0.00873545 1.58834e-22)
(1.01749 0.00852304 3.78489e-23)
(1.11259 0.0397806 -4.51901e-21)
(1.10965 0.0367894 0)
(1.05075 0.0331337 -6.61108e-21)
(1.04939 0.0351388 -5.10896e-21)
(1.05233 0.0354088 -4.00834e-21)
(1.01909 0.00828585 0)
(1.01927 0.00792157 -1.00791e-25)
(1.01884 0.00774748 1.42583e-22)
(0.574446 0.1505 -1.26829e-20)
(0.473443 0.0624804 6.3183e-21)
(0.547718 0.102693 -6.59362e-21)
(1.01642 0.00538361 -6.61846e-22)
(1.01694 0.00553696 0)
(0.960993 0.196074 -1.3162e-21)
(0.956024 0.21207 0)
(1.0194 0.00886993 8.55961e-23)
(1.01885 0.00874392 0)
(1.02337 0.00897733 7.49598e-23)
(1.02359 0.00958985 -6.52999e-22)
(1.02412 0.00915856 3.07967e-22)
(0.954007 0.185093 5.02872e-21)
(0.965596 0.181567 -1.31353e-21)
(0.931841 0.060888 1.65678e-22)
(0.921423 0.0573063 0)
(1.04248 0.0944837 -9.21729e-21)
(1.04243 0.070782 -5.64817e-21)
(1.0696 0.00801041 -4.25347e-22)
(1.06607 0.00169545 8.26837e-22)
(1.0138 -0.000987401 6.33144e-22)
(1.01367 -0.000930761 6.14061e-22)
(1.01382 -0.00102513 -8.41928e-23)
(0.988645 0.0334126 -1.83257e-22)
(0.992814 0.0318957 8.55898e-22)
(0.990737 0.0382076 -1.92877e-21)
(1.00921 0.000276121 4.06778e-22)
(1.01024 0.000254878 5.13085e-22)
(1.01119 0.000241664 4.36924e-22)
(1.02955 -0.0420182 1.02557e-21)
(1.0249 -0.0432239 -2.42026e-21)
(1.01408 -0.00110496 -5.46309e-22)
(1.01406 -0.00106797 -1.31588e-22)
(1.01425 -0.00116454 -3.53296e-23)
(1.01556 -0.00154967 2.39453e-24)
(1.01544 -0.00143426 0)
(0.899761 -0.274006 9.2096e-21)
(0.890433 -0.277653 -2.7302e-22)
(0.889155 -0.271536 -5.07655e-21)
(0.908163 -0.272754 3.16043e-21)
(0.915007 -0.257143 2.41095e-20)
(1.01644 0.00237436 1.44723e-21)
(1.01637 0.00237343 1.10254e-21)
(1.0538 -0.027154 -8.67443e-22)
(1.05782 -0.0305359 -8.56554e-23)
(1.0132 0.00029517 -1.04142e-21)
(1.01335 0.000505394 5.29896e-23)
(1.01345 0.000133227 -1.2469e-21)
(1.01305 0.000156419 0)
(1.01297 0.000562254 1.05264e-21)
(0.745642 0.270413 0)
(0.734004 0.278112 3.94545e-21)
(1.17011 0.126722 4.49692e-21)
(1.17526 0.131108 2.89868e-20)
(1.17553 0.123247 4.28179e-20)
(0.983387 0.0342821 -4.31759e-21)
(0.987338 0.02855 1.74503e-21)
(1.01234 -0.00112971 1.15205e-21)
(1.01222 -0.00100211 -4.54373e-22)
(1.01242 -0.00109236 -1.12957e-21)
(1.01496 0.00453722 -1.54824e-21)
(1.01486 0.00484929 -5.6642e-23)
(1.0153 0.00483831 -7.90116e-22)
(1.01309 -0.00148622 2.60498e-21)
(1.0136 -0.00149335 1.32555e-21)
(1.01351 -0.00217817 -1.37246e-21)
(1.01746 0.00439217 -8.16528e-22)
(1.01709 0.00423127 1.31466e-21)
(1.01713 0.0045517 1.6303e-21)
(0.947671 0.175412 2.78821e-21)
(0.944901 0.189517 6.36036e-21)
(1.08679 0.225123 9.30974e-21)
(1.10098 0.229173 8.76856e-21)
(1.09624 0.213375 2.10768e-22)
(1.02181 -0.0131258 -1.7759e-21)
(1.01989 -0.0144868 -1.32189e-21)
(1.02282 -0.0156535 -3.04996e-21)
(0.471082 0.13782 0)
(0.546113 0.214141 0)
(1.03633 0.020136 3.50274e-22)
(1.03685 0.0216701 5.05769e-21)
(1.03799 0.0200276 5.14893e-21)
(0.998666 -0.186087 4.72147e-21)
(0.984499 -0.19519 4.46423e-21)
(1.09336 0.128326 0)
(1.101 0.128805 3.60783e-22)
(1.09716 0.120581 1.01583e-20)
(1.01132 -0.000148744 5.919e-23)
(1.01158 -0.000190079 -9.80879e-22)
(1.01174 -0.000240917 -1.06062e-21)
(0.69201 0.250053 -5.54095e-21)
(0.598614 0.204773 -4.14593e-20)
(1.01244 -0.000398041 1.37879e-21)
(1.01244 -0.000359743 2.39022e-21)
(1.01546 0.0425774 7.84492e-22)
(1.01778 0.0405713 2.13376e-22)
(1.01818 0.0441045 4.09005e-22)
(1.01149 -0.000522929 3.7617e-24)
(1.01147 -0.000499063 -2.96257e-22)
(0.972018 0.0102337 1.22501e-21)
(0.973707 0.00505572 2.94093e-21)
(1.01334 -0.000685331 -7.1241e-23)
(1.01343 -0.000769806 2.63682e-22)
(1.01477 0.00261257 8.33526e-22)
(1.01408 0.00327116 7.31936e-22)
(1.01419 0.00211264 -1.27171e-21)
(0.811755 0.179341 -3.68127e-21)
(0.811477 0.194223 -1.20127e-20)
(0.824856 0.215664 5.76657e-21)
(1.0163 0.00493041 1.16567e-21)
(1.01596 0.00523642 1.43148e-21)
(1.00967 -5.31034e-05 1.02088e-21)
(1.01064 -0.000163263 -6.01194e-22)
(1.01025 -0.000108547 1.26703e-21)
(1.03875 0.0245646 -7.19351e-22)
(1.03774 0.0232535 1.09011e-21)
(1.03964 0.0228415 -3.45808e-21)
(1.07952 0.0782472 -5.04534e-21)
(1.08274 0.0815273 -2.37872e-21)
(1.08384 0.0762603 8.74569e-21)
(1.0589 0.0284876 -5.92721e-22)
(1.05884 0.0220753 1.86781e-21)
(1.01306 0.041432 -2.01979e-22)
(1.01373 0.0448904 3.18691e-22)
(1.16493 0.121559 -1.5718e-20)
(1.16407 0.130038 -2.09187e-20)
(0.238969 -0.296181 -3.13454e-21)
(0.223093 -0.3105 2.92619e-21)
(1.0125 -0.001526 2.69439e-21)
(1.0128 -0.000907569 -1.37812e-21)
(1.00779 -0.000167242 4.37199e-23)
(1.0064 -0.000214518 -4.34597e-22)
(1.01309 0.000442375 1.06289e-23)
(1.01193 0.000330208 8.54217e-22)
(1.01173 0.000312506 -9.33952e-22)
(1.00873 -0.00356542 6.51859e-23)
(1.00957 -0.00499705 3.62984e-23)
(1.0732 0.22014 0)
(1.07465 0.236947 0)
(1.01323 0.000832762 -1.5765e-22)
(1.03376 0.0170454 7.12354e-23)
(1.03517 0.0172598 -4.34528e-22)
(1.03451 0.015887 -1.52511e-22)
(0.795274 0.128124 -2.58207e-21)
(0.818547 0.143909 -1.52148e-20)
(1.01118 -0.000436132 8.79546e-22)
(1.01111 -0.000509645 -7.86852e-22)
(1.11703 0.0435482 7.14477e-22)
(1.11176 0.0449694 1.22035e-20)
(0.954247 0.0369656 1.60773e-20)
(0.964822 -0.0107882 -3.40878e-21)
(1.01288 -0.000491122 3.24406e-22)
(1.0128 -0.000475263 2.18851e-22)
(1.01275 -0.000500972 1.00903e-21)
(1.04804 0.0428448 6.33558e-22)
(1.05554 0.042702 8.06279e-23)
(1.05199 0.0501399 8.26013e-22)
(0.956089 0.265525 -8.93285e-21)
(0.967284 0.260997 -1.83011e-20)
(0.94672 -0.22218 3.60922e-21)
(0.967751 -0.175188 9.61309e-21)
(0.966786 -0.195582 -3.95154e-21)
(1.01305 -0.000483738 -7.52174e-26)
(1.05075 0.0246392 -1.98082e-21)
(1.04943 0.0228059 -1.71059e-21)
(0.929223 -0.239225 7.41389e-21)
(0.932447 -0.248611 0)
(1.01612 0.00261121 -2.47651e-22)
(1.01623 0.00262883 -1.31045e-21)
(1.01608 0.00251766 8.04257e-22)
(1.01161 -0.000622989 -1.02552e-21)
(1.01153 -0.000551684 1.11187e-21)
(1.01468 0.004256 -2.25503e-21)
(1.015 0.00428106 -1.62244e-22)
(1.01323 -0.000688856 8.18036e-22)
(1.01319 -0.000635349 1.34899e-21)
(1.03571 0.0185997 -2.09625e-21)
(1.03466 0.0199765 -2.03923e-21)
(1.04219 0.037717 -3.84278e-21)
(1.04094 0.0396308 1.15882e-21)
(1.044 0.0393124 4.56204e-22)
(1.02638 0.00984249 6.97132e-22)
(1.01375 -0.000877095 -5.54961e-22)
(1.01375 -0.000899755 0)
(1.01363 -0.000820364 7.1934e-22)
(0.949078 0.0211781 0)
(0.949021 0.0320894 0)
(0.938099 0.0266266 4.54464e-22)
(1.07716 0.0396954 1.37645e-21)
(1.07877 0.0367259 -3.72835e-21)
(1.0805 0.0409592 3.93647e-21)
(1.01245 0.0101024 8.80856e-23)
(1.01109 0.0102565 8.94084e-23)
(1.01564 -0.00109021 -6.3563e-23)
(1.01557 -0.00115837 -4.42626e-23)
(1.01552 -0.00101528 -4.87668e-23)
(1.18229 0.238269 -1.60234e-20)
(1.17411 0.255685 -2.98234e-20)
(1.15843 0.237233 1.58793e-21)
(1.01001 0.000224531 -5.35077e-22)
(1.01099 0.000206703 -6.40724e-22)
(1.0105 0.000207551 -3.7434e-22)
(0.880669 -0.248691 -6.79844e-21)
(1.05789 0.071534 4.45955e-21)
(1.05674 0.066911 -5.03627e-21)
(1.01249 -0.00127319 -7.68225e-23)
(1.01227 -0.00115356 2.15265e-21)
(1.04365 0.0354707 -6.64443e-21)
(1.04075 0.0359848 9.07547e-22)
(0.73831 0.278837 -4.23763e-21)
(0.731324 0.281394 -3.64282e-21)
(0.732646 0.284882 -4.26204e-21)
(1.03114 0.00233159 0)
(1.03197 0.00221143 0)
(1.12769 0.107489 3.98387e-21)
(1.05342 0.100427 -1.91292e-20)
(1.16475 0.119702 -8.21466e-21)
(1.0263 0.0506092 1.24544e-21)
(1.0326 0.0526415 -1.64975e-21)
(1.02685 0.0581406 -8.42149e-22)
(-0.000411267 -0.206606 -2.22447e-20)
(0.0395748 -0.182023 -2.53866e-21)
(0.041237 -0.199861 -2.30257e-20)
(1.01408 0.00078502 -9.61719e-22)
(1.01414 0.000849878 -1.00425e-21)
(1.18275 0.136199 -2.34472e-21)
(1.19341 0.139766 0)
(1.18738 0.131095 9.57876e-21)
(1.10914 0.143245 -2.91813e-21)
(1.10461 0.135221 3.53458e-22)
(1.10096 0.144592 0)
(0.995636 0.104376 -1.64078e-21)
(1.00578 0.101349 5.51665e-22)
(0.997607 0.0943537 2.25852e-22)
(1.01234 -0.000161126 9.69502e-22)
(1.01192 -0.000161827 -3.92228e-24)
(1.01218 -0.000175128 5.09449e-22)
(0.980751 -0.223425 -2.89919e-21)
(0.974976 -0.220611 -6.84906e-21)
(1.01403 -0.00146145 -7.08872e-24)
(1.01368 -0.000991069 2.39249e-22)
(0.92497 0.2306 2.33871e-21)
(0.920052 0.233953 3.76356e-21)
(0.913649 0.224553 -1.84266e-21)
(1.07634 0.0737416 5.98222e-21)
(1.07444 0.0792339 1.66158e-20)
(1.02315 0.00831121 -1.11311e-22)
(1.0227 0.00866332 -9.76763e-23)
(1.01775 0.00459116 -3.42078e-22)
(1.01769 0.00427256 -1.69285e-21)
(1.12231 0.0407681 1.35023e-20)
(1.01255 -0.000206717 9.96624e-22)
(1.01246 -0.000184328 8.19991e-23)
(0.99431 0.114464 -5.31425e-22)
(0.984853 0.106164 2.06056e-22)
(1.0151 0.0984646 5.11858e-22)
(1.0158 0.0890394 -2.52616e-22)
(1.02487 0.0946925 3.61924e-22)
(1.01703 0.000409234 -8.6435e-23)
(1.01784 0.000603229 1.62431e-22)
(1.01668 0.000408981 -1.38374e-22)
(0.976823 0.00475433 1.88392e-22)
(0.97884 0.00994695 -4.84754e-22)
(0.982662 0.00405933 -7.21072e-22)
(1.01234 -0.00018202 -2.99036e-23)
(1.01221 -0.000201103 -7.81043e-23)
(1.01258 -0.000207047 4.45374e-22)
(1.10526 0.0628647 1.35507e-20)
(1.1037 0.0290898 2.16699e-21)
(1.08115 0.000617118 -1.51149e-20)
(1.01631 0.000825704 1.44654e-22)
(1.01628 0.000851529 0)
(1.01642 0.000906969 7.98393e-22)
(1.1767 0.140767 -1.2755e-20)
(0.781955 0.0351872 -2.77762e-22)
(0.749235 0.030833 9.00364e-22)
(0.912072 0.0634122 -1.36927e-22)
(1.04112 0.0420301 1.03193e-21)
(1.04388 0.0367255 -6.55356e-22)
(0.626005 -0.00962474 -1.36466e-21)
(0.790477 0.0331668 -1.51512e-20)
(0.9764 -0.000106119 0)
(1.01714 0.00194239 -5.72872e-23)
(1.01698 0.00191153 2.57468e-22)
(1.11675 0.140235 -1.67929e-20)
(1.01629 0.00329681 -6.98747e-22)
(1.01652 0.00254327 -6.9673e-23)
(1.01676 0.00298845 3.00314e-23)
(1.02347 -0.0116372 2.35156e-21)
(1.02103 -0.0111545 3.54005e-21)
(0.96421 0.0382599 6.99856e-22)
(0.963921 0.0445954 3.06196e-22)
(0.969926 0.0420199 -5.58436e-22)
(1.01788 0.00976452 -9.10603e-23)
(1.01733 0.00994049 -9.49201e-23)
(1.01174 -0.000718431 -1.96919e-21)
(1.01169 -0.000705029 -2.16178e-21)
(1.0131 -0.000194729 -4.73272e-22)
(1.01282 0.000145912 0)
(1.07415 0.0384984 1.08856e-20)
(1.07548 0.0426167 1.44161e-20)
(1.00844 0.000155274 1.13785e-21)
(1.00664 0.00019765 -6.61383e-22)
(1.016 0.00259532 9.19308e-22)
(1.01619 0.00271182 -8.58723e-24)
(0.945421 0.0874332 -5.08468e-21)
(1.02683 -0.00681035 5.65278e-22)
(1.02605 -0.00837542 -2.61597e-21)
(1.02848 -0.00803949 -3.57544e-22)
(-0.0265195 -0.231143 0)
(-0.0148033 -0.252103 -3.40173e-20)
(1.01801 0.0382397 -2.02019e-21)
(1.02053 0.0394649 -2.67683e-22)
(0.945577 0.235492 -5.65057e-21)
(0.939979 0.237975 -7.38219e-21)
(1.12935 0.149591 -8.5323e-21)
(1.12385 0.167888 -3.77438e-21)
(1.11658 0.18291 1.14374e-20)
(1.05933 0.174725 0)
(1.06191 0.156646 -3.38855e-21)
(1.0486 0.187734 0)
(1.01556 -0.00168713 2.40386e-24)
(1.01569 -0.00167273 -5.08937e-24)
(1.00739 -0.00343085 5.63549e-22)
(1.00811 -0.00197927 -4.95067e-22)
(0.70655 0.228605 5.43098e-21)
(0.711382 0.198749 1.3371e-20)
(0.718038 0.226331 8.35636e-21)
(1.01335 0.000571792 9.97026e-23)
(1.01355 0.000625146 -6.80692e-22)
(1.05485 0.182255 5.52216e-21)
(1.06813 0.160591 1.72868e-21)
(1.01864 0.0353598 -2.06609e-21)
(1.01605 0.0358957 -2.2026e-21)
(1.04003 0.0254954 2.02174e-21)
(1.03813 0.0258411 -1.70827e-21)
(1.01214 0.000325805 1.01439e-21)
(1.01266 0.000381977 0)
(1.05236 0.0308879 1.15721e-20)
(1.04934 0.0308175 4.37348e-21)
(1.01264 -0.00142686 -1.04351e-21)
(1.01272 -0.00136746 6.19783e-23)
(0.888824 0.00866104 -2.56132e-23)
(0.869731 0.00436278 -6.067e-23)
(0.875412 0.0201261 -6.00112e-23)
(0.724987 0.206551 1.66016e-21)
(0.743926 0.200617 0)
(0.731571 0.223204 0)
(1.01536 0.00322214 0)
(1.01548 0.00225726 6.63625e-22)
(1.02745 -0.00527963 4.41036e-23)
(1.02546 -0.00583839 -2.16125e-22)
(1.0096 0.000140763 2.5783e-21)
(1.00872 0.000186243 4.28147e-22)
(1.01723 0.000378523 0)
(1.01721 -0.000472393 0)
(1.01651 0.00041519 -1.98896e-21)
(-0.0179441 -0.288172 -2.37112e-20)
(-0.0347091 -0.277822 9.02712e-21)
(1.01587 0.000994941 0)
(1.01592 0.00108582 0)
(1.01601 0.000955939 0)
(1.06809 -0.015625 0)
(1.0671 -0.0235397 0)
(1.01124 -0.000167575 -1.19193e-21)
(1.01123 -0.000101489 0)
(1.0112 -7.23254e-05 0)
(1.01485 0.0011065 -4.77038e-23)
(1.01489 0.000992058 -4.4145e-23)
(1.01296 -0.000474826 1.77514e-21)
(1.013 -0.000540627 -1.27458e-21)
(1.07884 0.0691153 0)
(0.703586 0.208579 1.84077e-21)
(0.713433 0.191419 2.70682e-21)
(1.07257 -0.0104224 -9.23774e-23)
(1.06593 -0.00907533 0)
(0.907219 0.0119576 3.48223e-21)
(0.902265 0.000483844 5.04104e-22)
(1.00493 -5.00909e-05 8.98005e-23)
(1.00355 -7.28148e-05 1.23631e-21)
(1.00704 -3.80528e-05 -1.18396e-21)
(1.01335 -0.000529873 -1.55952e-22)
(1.01295 -0.000552121 -2.54821e-21)
(1.02229 0.00182495 4.97328e-23)
(1.02197 0.00187163 -3.21274e-23)
(1.02225 0.00208572 1.19153e-24)
(1.10567 0.243917 0)
(1.09344 0.261266 -1.12547e-20)
(1.01644 0.00233771 -1.22274e-21)
(1.01597 0.00213762 2.11517e-22)
(1.01604 0.00249559 1.06865e-22)
(1.16252 0.215737 4.37836e-21)
(1.17181 0.204563 1.17981e-20)
(1.01789 0.000488668 7.37553e-22)
(1.0173 0.0011329 0)
(1.04443 -0.024715 5.86794e-22)
(1.04096 -0.0305642 5.87851e-22)
(1.0458 -0.027592 -1.44024e-21)
(1.04375 0.00870521 1.35527e-21)
(1.04529 0.00835082 1.23065e-21)
(1.04493 0.00996375 3.51986e-22)
(1.0158 0.00215048 0)
(1.01595 0.00222519 0)
(1.01591 0.0022514 2.51579e-22)
(1.00667 0.00012597 -1.3586e-22)
(1.00366 -4.19366e-05 -1.38296e-22)
(0.752566 0.257554 1.11994e-20)
(1.01266 -0.000416499 1.32812e-22)
(1.01262 -0.000434595 4.66478e-22)
(1.08081 0.086369 9.2906e-21)
(1.0798 0.0541364 3.87394e-21)
(1.0833 0.0496353 4.4524e-21)
(1.17617 0.115886 -5.13779e-21)
(1.09827 0.0990052 3.10561e-20)
(1.04227 0.00921902 -2.94009e-21)
(1.04251 0.00788798 -4.42418e-22)
(1.01716 9.70467e-05 1.09764e-21)
(1.01305 2.79312e-05 8.21205e-23)
(1.01246 0.000113909 -6.68746e-23)
(0.310806 -0.134159 -8.9832e-21)
(0.316656 -0.147547 -3.88984e-22)
(0.232437 -0.176236 2.61746e-20)
(0.979836 0.0174298 -1.22683e-21)
(0.98058 0.0125032 -1.62189e-21)
(0.975325 0.0158566 3.30123e-21)
(1.0131 -0.000617932 4.02823e-22)
(1.01317 -0.000676594 4.08593e-22)
(1.01317 -0.000669667 -5.4134e-23)
(0.994719 -0.0294775 -2.40572e-21)
(0.987824 -0.0292499 3.20789e-23)
(0.994562 -0.02535 -1.77165e-21)
(1.00919 -9.05334e-05 5.89507e-22)
(1.00845 -1.78561e-05 1.77074e-23)
(1.04897 0.0646176 -2.48463e-21)
(1.04947 0.0689494 -1.77151e-21)
(1.05275 0.0657997 -7.66669e-21)
(0.989952 0.00647059 5.44965e-23)
(0.992471 0.00876965 -5.80472e-22)
(0.988723 0.00966273 -1.02985e-21)
(1.01158 0.0002057 3.46943e-22)
(1.0157 0.000283115 3.07316e-22)
(1.01118 0.000229305 2.75422e-22)
(1.06555 0.0705044 -5.32548e-21)
(1.0492 0.0954966 -1.5271e-20)
(1.05599 0.112785 4.5068e-21)
(1.07586 -0.0134334 -6.55284e-23)
(1.01317 0.00528112 1.14863e-22)
(1.01272 0.00577582 -1.32484e-21)
(1.01263 0.00504777 -1.77499e-21)
(0.836598 -0.129591 -6.43742e-22)
(0.840739 -0.113343 6.14901e-21)
(0.864037 -0.121556 2.87566e-21)
(1.0249 -0.00990805 1.90017e-22)
(1.0264 -0.011804 1.17795e-21)
(1.02229 0.00155603 2.89774e-23)
(1.02261 0.0017714 8.80075e-24)
(1.01214 -0.000143387 -2.62175e-22)
(1.01254 -0.000227035 -1.68306e-21)
(1.03588 0.0231783 2.75642e-21)
(1.01561 0.108897 1.27082e-21)
(1.01561 -0.00100198 -7.11595e-24)
(1.01575 -0.00113481 -8.91668e-23)
(1.11813 0.117589 -1.39214e-21)
(1.13432 0.118752 -2.41951e-21)
(0.980326 0.0221958 0)
(0.983745 0.0180911 -4.00972e-22)
(0.799676 0.193513 0)
(0.816117 0.189305 5.08086e-22)
(1.01694 0.00252657 0)
(1.01753 0.0028204 -6.71138e-22)
(1.01704 0.00306542 -5.55969e-24)
(1.00669 -0.00499252 2.46206e-22)
(1.00571 -0.00333892 1.8676e-22)
(0.812884 -0.138492 -2.99064e-21)
(0.835607 -0.14399 -4.0491e-21)
(1.07472 0.0530595 -4.37021e-21)
(1.06912 0.0293721 1.49107e-20)
(1.01549 0.00018348 -2.09335e-22)
(1.01699 0.000331274 -2.39244e-22)
(1.01672 0.00407524 -1.35381e-21)
(1.01646 0.00413412 5.0801e-22)
(1.01638 0.00390734 -1.06545e-21)
(1.01809 0.00442989 1.11367e-21)
(1.01799 0.00417544 -7.66179e-23)
(1.01367 0.00544816 3.71493e-24)
(1.01333 0.00479533 2.58456e-21)
(0.991442 0.00341196 -1.45528e-21)
(0.987513 0.00417054 7.68584e-22)
(1.00074 -0.0297368 1.76752e-21)
(0.995034 -0.0337288 -1.43495e-21)
(1.01293 -0.000455897 1.59076e-21)
(1.01294 -0.000443531 9.81639e-22)
(0.959613 0.0197938 -5.82526e-22)
(0.95121 0.0144768 4.76967e-22)
(0.948121 0.22726 5.89173e-21)
(0.941243 0.220466 7.39102e-21)
(0.952555 0.216248 3.93419e-21)
(1.01393 -0.00104587 1.48653e-22)
(1.01377 -0.000950693 0)
(1.00784 -0.000117355 4.16116e-22)
(1.00775 -8.11294e-05 -8.02708e-22)
(1.00553 -6.89322e-05 -6.42129e-22)
(1.17639 0.229079 -2.12357e-22)
(1.15283 0.229001 4.28552e-21)
(1.04673 -0.0193266 6.94452e-22)
(1.04219 -0.0226316 -1.12179e-21)
(0.973851 0.0756527 3.2303e-22)
(0.978489 0.0870391 0)
(0.965994 0.0841858 0)
(0.951236 0.0418542 0)
(0.941069 0.0503874 -3.09984e-22)
(0.955003 0.0522413 -2.39642e-21)
(1.01724 0.000369538 1.32821e-22)
(1.01487 0.000250121 0)
(1.00917 0.0297133 0)
(1.00655 0.0268888 0)
(1.01001 0.0261409 0)
(1.01445 0.0040095 -9.23051e-22)
(1.01437 0.00425827 -7.52934e-22)
(1.02369 -0.00858275 -2.53138e-22)
(1.04538 0.0632707 3.06721e-21)
(1.04842 0.0606862 7.33253e-21)
(1.01449 -0.00197431 -1.46882e-21)
(1.01443 -0.00143184 -1.20856e-21)
(1.02042 0.00646881 0)
(1.02041 0.00611013 -2.79931e-23)
(1.02076 0.00638663 0)
(0.984572 -0.00685802 5.20272e-21)
(0.989644 -0.00956513 -5.38779e-22)
(1.00972 -1.20046e-05 4.36648e-22)
(1.00847 -5.00664e-06 -1.01634e-21)
(1.00972 -6.17504e-07 -2.96207e-22)
(0.932384 0.225317 4.7172e-22)
(0.933107 0.234835 -4.97878e-21)
(0.980428 -0.027876 1.95026e-21)
(0.979875 -0.0331696 -2.97952e-21)
(0.84042 0.30656 2.71205e-20)
(0.775362 0.28594 1.11441e-20)
(0.70956 0.207101 2.48863e-20)
(0.980006 0.0687712 8.77324e-22)
(0.96978 0.0654423 7.13602e-22)
(1.01283 -0.0016162 0)
(1.01256 -0.00147804 0)
(0.779177 0.0728849 0)
(0.779896 0.110483 -5.29959e-22)
(1.08571 0.127209 0)
(1.08866 0.135743 0)
(1.05462 0.075017 6.68796e-22)
(1.05025 0.0736236 -2.96288e-21)
(1.05089 0.0785893 4.79821e-21)
(1.01557 -0.00182996 -6.14739e-23)
(1.01543 -0.00169381 -1.28208e-25)
(1.02258 0.0301585 1.23347e-22)
(1.01888 0.028578 3.43901e-21)
(1.02163 0.0262246 5.65191e-22)
(1.00958 0.000231651 -8.22592e-22)
(1.01226 0.000342231 -8.53655e-22)
(1.01246 0.00035969 5.37408e-23)
(1.01189 -0.000819947 -4.18223e-22)
(1.01179 -0.000732709 2.42394e-22)
(1.01532 0.00146711 2.21973e-22)
(1.01494 0.00138684 -2.5773e-21)
(1.01505 0.00159469 2.11834e-23)
(1.01385 0.000543141 0)
(1.01414 0.000644695 6.93965e-22)
(1.01399 0.000557879 0)
(1.00176 -0.0029903 -9.3487e-22)
(1.00025 -0.00152769 -2.77053e-21)
(1.00228 -0.000746462 4.25611e-22)
(1.03594 0.00679485 8.47206e-22)
(1.03605 0.00585326 1.13476e-21)
(1.037 0.00651332 0)
(1.07181 0.0154752 -3.75791e-21)
(1.07955 0.0184998 4.45168e-22)
(1.00337 -0.0042344 0)
(1.00176 -0.00539118 0)
(1.01356 0.00176657 2.72329e-22)
(1.01351 0.00132293 -4.57774e-22)
(1.01321 0.00137425 -1.66452e-21)
(0.769105 0.235408 3.90296e-21)
(0.778722 0.238816 4.36269e-22)
(1.01199 0.0324813 0)
(1.00792 0.0340405 3.28159e-22)
(1.01579 0.00363001 6.77635e-22)
(1.01622 0.00397336 2.52081e-22)
(1.00479 0.000126059 -1.29932e-22)
(1.2046 0.147872 -1.08685e-20)
(1.19804 0.1538 6.32576e-21)
(1.21117 0.151201 -1.02597e-20)
(1.00551 -2.93307e-05 0)
(1.00311 3.17956e-05 9.92956e-22)
(1.00308 -3.41498e-05 0)
(1.01946 0.00754441 -1.04134e-25)
(1.01974 0.00801715 -5.4171e-23)
(1.01894 0.000433269 -7.61653e-22)
(1.01801 0.00055995 2.83115e-22)
(1.03243 0.0167332 2.30262e-21)
(1.03282 0.0181522 -1.12131e-21)
(0.98444 0.20163 2.90869e-22)
(0.99384 0.216422 -2.263e-21)
(0.9785 0.215341 -4.02321e-21)
(0.768683 0.0257785 0)
(0.789375 0.0334522 -1.2424e-22)
(1.03667 0.017159 1.48087e-22)
(1.01444 0.000771537 -2.96608e-22)
(1.01435 0.000673015 0)
(1.01434 0.000756367 -5.85129e-22)
(1.00499 -0.00511487 0)
(1.00663 -0.00598319 9.19821e-22)
(1.00542 -0.00734689 0)
(1.00503 -0.00318888 6.96771e-22)
(0.752173 0.270036 1.07782e-21)
(0.742207 0.281033 1.52303e-21)
(0.756655 0.269214 -3.78127e-21)
(1.01548 -0.00120065 1.20329e-22)
(1.00598 0.000146442 -7.97924e-22)
(1.00579 0.000137662 2.56742e-23)
(1.01685 0.00209746 -1.25149e-24)
(1.01058 -0.000243912 0)
(1.01249 -0.000440271 0)
(0.959708 0.124198 -4.65218e-22)
(0.952101 0.119935 0)
(1.01911 0.00216514 -5.11591e-22)
(1.01838 0.00207407 8.47034e-23)
(1.01884 0.00163052 -7.43964e-22)
(1.0356 -0.0365807 4.07166e-22)
(1.03616 -0.0326939 7.19089e-22)
(1.08021 0.197658 6.3406e-22)
(1.06447 0.181772 2.31248e-21)
(1.0607 0.203672 3.53792e-21)
(0.69975 0.129801 1.20454e-20)
(0.696428 0.0876048 3.29595e-21)
(0.730252 0.0642574 -1.14448e-20)
(0.9663 0.118681 -2.07822e-21)
(0.965798 0.128368 -1.65414e-21)
(1.0197 0.00685579 -1.55815e-24)
(1.01976 0.00651922 0)
(1.01942 0.00648268 0)
(1.09829 0.187925 -7.81105e-22)
(1.09407 0.208973 4.39874e-22)
(0.96569 0.0319388 2.29e-21)