/*--------------------------------*- C++ -*----------------------------------*\
| =========                 |                                                 |
| \\      /  F ield         | OpenFOAM: The Open Source CFD Toolbox           |
|  \\    /   O peration     | Version:  v2012                                 |
|   \\  /    A nd           | Website:  www.openfoam.com                      |
|    \\/     M anipulation  |                                                 |
\*---------------------------------------------------------------------------*/
FoamFile
{
    version     2.0;
    format      ascii;
    class       volVectorField;
    location    "250";
    object      U;
}
// * * * * * * * * * * * * * * * * * * * * * * * * * * * * * * * * * * * * * //

dimensions      [0 1 -1 0 0 0 0];


internalField   nonuniform List<vector> 
18758
(
(1.01575 -0.00693987 5.17521e-22)
(1.04509 -0.0599296 0)
(1.00344 -7.91183e-06 2.15827e-21)
(1.01474 -0.00764504 9.93972e-24)
(1.00328 0.00426873 0)
(1.00714 0.000171487 0)
(1.01574 -0.00549375 3.43307e-22)
(1.02409 -0.0194916 5.30183e-22)
(1.00349 0.00254965 0)
(1.00258 -0.000178477 0)
(1.02094 -0.0551139 6.28286e-23)
(0.851422 -0.196862 5.23513e-22)
(0.936557 0.0165701 2.04269e-21)
(1.03604 -0.0169922 3.68263e-22)
(1.01517 -0.00516965 -1.70789e-22)
(1.01241 -0.00220482 0)
(0.836918 -0.166748 9.66788e-21)
(1.01114 0.00129353 -1.31256e-23)
(1.01495 -0.00491937 2.0179e-22)
(1.01774 -0.0145831 0)
(1.09119 -0.0700861 2.19832e-21)
(1.17994 -0.0430124 7.84421e-21)
(1.00658 0.00012097 6.06893e-24)
(1.00655 0.000182969 3.53916e-23)
(1.13905 -0.0399123 -1.82546e-20)
(1.20622 -0.208882 0)
(0.824304 0.195773 -3.38215e-20)
(0.949503 -0.110917 7.6043e-21)
(1.07492 -0.108552 0)
(1.05896 -0.0789954 0)
(0.843903 0.301521 0)
(0.805438 0.130514 5.675e-20)
(1.02403 -0.0187214 5.39307e-22)
(0.932694 -0.0247607 -9.33425e-21)
(1.0051 0.00733262 0)
(1.04801 -0.091678 1.67589e-21)
(0.931105 0.00604441 2.57512e-21)
(1.00519 0.0057178 0)
(0.909668 -0.300583 -8.73481e-21)
(1.01356 0.00216723 0)
(0.911148 -0.207324 9.31023e-22)
(0.999467 -0.0034478 -2.55184e-21)
(0.903761 -0.0907647 -3.7239e-22)
(1.01163 -0.00124949 -1.04072e-21)
(1.01016 -0.00073762 -1.21331e-21)
(0.833124 0.281766 5.07939e-21)
(1.00085 -0.00417 3.99356e-21)
(1.0622 -0.112828 0)
(-0.00733057 0.25701 -8.13126e-21)
(1.01115 -0.00669833 -1.14081e-21)
(1.01295 -0.0655716 3.22758e-23)
(0.750197 -0.155429 -2.36698e-20)
(1.01011 -0.00658943 0)
(1.01168 -0.0156229 0)
(1.15267 -0.0767824 -1.23086e-20)
(0.947564 0.0173065 4.31122e-21)
(1.01165 0.00127867 0)
(1.01769 -0.0145038 0)
(1.05479 -0.106754 -1.97838e-21)
(1.01167 0.00114734 3.64563e-22)
(1.00946 -0.000578461 0)
(1.01163 -0.0010534 0)
(0.787398 -0.116949 2.33688e-20)
(0.769452 -0.226962 0)
(1.00896 -0.000521719 0)
(0.638784 0.0404877 0)
(1.00625 -0.000163267 1.82219e-21)
(1.01028 0.00112183 0)
(0.945356 -0.104995 -1.68489e-21)
(1.01117 0.00129689 0)
(0.705192 -0.141895 -2.42293e-20)
(1.19332 -0.229345 2.55552e-20)
(1.01311 -0.00527747 1.62661e-21)
(1.01547 -0.0144685 0)
(0.998913 0.0345832 0)
(0.835103 0.309198 3.64671e-21)
(0.918004 0.232977 -1.28916e-20)
(0.814746 -0.0871348 -1.22425e-21)
(1.00199 0.00123917 0)
(0.895312 -0.0690499 0)
(1.11451 -0.0836278 1.40979e-20)
(0.902756 -0.295437 4.88758e-21)
(0.822551 -0.103506 0)
(1.00216 0.00450867 -3.1297e-21)
(1.01182 -0.00271833 1.25017e-21)
(1.13963 -0.074018 0)
(1.05737 -0.0196008 2.71323e-21)
(1.01532 -0.0136633 6.10844e-22)
(0.813082 -0.134843 0)
(1.1378 -0.0706545 1.0046e-20)
(0.343955 0.0646089 2.24292e-21)
(1.00948 -0.000510723 0)
(1.10256 -0.0684374 7.16885e-22)
(-0.00421418 0.248072 -9.62692e-21)
(1.01299 -0.0050535 -1.57272e-21)
(1.00793 -0.000618836 2.05545e-21)
(1.01232 0.00174345 -1.54769e-22)
(1.06647 -0.0804307 5.39024e-21)
(0.819457 -0.0864946 -1.00241e-20)
(1.01057 -0.00384977 0)
(0.825998 0.28972 2.35313e-21)
(1.02181 -0.0125219 1.62513e-21)
(1.01033 0.00113633 4.20896e-22)
(1.00788 -0.000597185 -1.41799e-21)
(0.653908 0.0416427 9.76953e-21)
(1.0999 -0.04345 2.47739e-21)
(1.06716 -0.113127 2.95449e-21)
(0.380248 0.0438643 0)
(1.00941 0.0762103 6.99007e-22)
(1.05346 -0.169075 1.53378e-21)
(1.01288 -0.00218575 4.49777e-22)
(0.759407 -0.23928 1.7753e-22)
(1.00779 -0.00864989 -1.63844e-21)
(1.00495 -4.12607e-05 8.54439e-22)
(1.02231 -0.0130787 6.83764e-23)
(0.891477 -0.178356 0)
(1.06294 -0.0799283 1.02099e-21)
(1.01133 0.000567597 -6.44667e-22)
(0.884634 -0.21499 -1.57102e-21)
(1.01271 -0.00427607 7.8601e-22)
(1.00576 -5.38412e-05 0)
(0.907164 0.230211 -1.63672e-20)
(1.01215 -0.00311093 -1.24737e-21)
(1.00932 -0.00058545 0)
(0.114551 0.282275 -7.39149e-21)
(1.0124 -0.01581 0)
(1.01165 -0.00119708 0)
(1.00927 -0.000601132 0)
(1.09961 -0.152697 -9.88085e-21)
(0.103836 0.218999 0)
(1.05968 -0.107407 0)
(1.00615 -0.000293899 0)
(1.02026 -0.0354173 -4.65795e-22)
(0.421734 0.14087 1.94439e-20)
(1.01379 0.00221169 -3.8052e-23)
(1.00593 -0.000124623 -2.39626e-21)
(0.800486 0.296564 3.21341e-21)
(1.01303 -0.00325441 -7.90258e-22)
(0.987057 -0.168292 -1.06955e-23)
(1.11129 -0.0856856 -2.38878e-20)
(1.00579 -0.00939454 3.22849e-21)
(0.943311 -0.201059 7.80862e-22)
(1.06962 -0.06371 1.11713e-20)
(0.978673 0.118119 0)
(0.133562 0.278203 -2.08834e-21)
(1.09048 -0.0548232 6.82489e-21)
(0.595786 0.0608727 9.12715e-21)
(1.09709 -0.138788 -9.24171e-21)
(1.03008 -0.0557692 1.16053e-23)
(0.93731 -0.350149 1.04547e-20)
(0.216335 0.249117 -5.30535e-20)
(-0.0240747 0.189633 2.886e-21)
(1.02657 -0.00471414 0)
(1.0084 0.00891596 -1.40148e-21)
(0.904935 -0.199107 -5.32821e-22)
(0.892486 0.154147 -4.16733e-20)
(1.1004 -0.0691787 0)
(1.10514 -0.156046 1.90229e-20)
(1.01213 0.0109171 -4.25508e-21)
(1.03496 -0.0640612 0)
(0.520332 -0.229696 -6.32568e-21)
(1.01019 -0.000754511 -2.25042e-21)
(-0.0196734 0.170491 -1.896e-20)
(0.607471 0.0621342 1.13331e-20)
(0.842838 0.249489 1.64259e-22)
(1.013 0.000714686 6.48999e-22)
(1.01008 -0.000716686 2.20041e-21)
(0.61809 -0.261072 6.13723e-21)
(0.137539 0.23369 0)
(0.86719 -0.243231 0)
(-0.0610554 0.169882 0)
(1.00252 6.65188e-05 -1.76411e-21)
(1.07537 -0.11841 -1.70087e-21)
(0.906152 -0.128572 -5.33736e-22)
(1.03928 -0.0133462 1.32154e-20)
(1.01003 -0.00263418 7.9115e-22)
(1.0131 -0.00497465 8.64994e-22)
(1.19538 -0.174134 -4.80293e-20)
(1.00129 -0.0433613 0)
(1.03737 -0.00660107 2.60672e-21)
(1.00943 0.000923855 4.07553e-22)
(1.01457 -0.0158248 -4.91659e-22)
(1.14918 -0.0795313 1.65726e-20)
(1.0432 -0.00998203 0)
(0.896554 -0.388184 0)
(1.01788 -0.00303074 -1.27706e-22)
(1.06276 -0.0766651 0)
(1.02069 -0.0270437 -2.5012e-21)
(0.0132425 0.241875 -3.70006e-20)
(0.829187 0.216631 2.68522e-21)
(-0.0414939 0.174695 5.78283e-21)
(1.01767 -0.00310933 -2.95764e-23)
(0.979033 -0.08498 -1.97597e-21)
(0.961746 0.215204 1.04261e-20)
(1.00941 0.000938477 2.65152e-22)
(1.04121 -0.0102642 5.45293e-21)
(0.975165 -0.180948 1.93945e-21)
(1.02608 -0.00451376 0)
(0.0271455 0.24286 3.03089e-20)
(1.00574 0.000126265 8.17728e-22)
(1.00947 -0.000425137 9.22778e-22)
(1.10763 -0.164009 0)
(1.00865 0.116573 0)
(1.01227 -0.00176266 0)
(1.01299 -0.00235459 0)
(-0.00268145 0.178053 1.86332e-20)
(1.01104 -0.000102019 6.25231e-22)
(1.00647 0.00909796 -4.80053e-22)
(0.171237 0.237014 -1.63786e-20)
(0.016158 0.180973 0)
(1.00415 7.56257e-05 0)
(1.09978 -0.0746805 0)
(1.00931 -0.00102005 -9.04675e-22)
(1.01206 -0.00317086 -8.81765e-22)
(1.01733 -0.0142753 0)
(1.01242 0.00176314 1.54186e-22)
(1.01277 -0.000774103 3.79831e-22)
(1.09918 -0.0727372 0)
(1.0079 0.000247573 0)
(0.957928 -0.184783 0)
(0.990747 0.184068 -1.38935e-20)
(1.01111 -0.000744633 0)
(1.06694 -0.0636436 -6.83306e-21)
(1.10338 -0.16994 0)
(0.984028 0.126214 0)
(0.959315 0.0593473 -4.1018e-21)
(1.00372 0.0426096 -3.93307e-21)
(1.13719 -0.0599816 0)
(0.533776 -0.222707 4.32136e-21)
(1.01091 -0.000170675 6.69998e-22)
(1.20159 -0.220065 1.26727e-21)
(1.08823 -0.0557366 -1.01019e-20)
(1.06583 -0.0409372 0)
(1.0054 -0.000120376 2.32605e-21)
(1.00978 -0.00172021 0)
(1.01139 -0.000906958 -8.78507e-22)
(0.95551 0.0146414 -5.87369e-21)
(-0.0162245 0.266841 -2.10803e-20)
(0.962065 -0.194529 0)
(1.02266 -0.0138436 -1.80101e-22)
(1.01331 -0.00258399 3.97591e-22)
(0.962686 0.0128791 0)
(0.99654 -0.153943 -9.52837e-22)
(1.00348 3.79502e-05 -1.16588e-21)
(0.931367 -0.372572 -3.95735e-21)
(1.04767 -0.235215 -8.89028e-21)
(1.00996 -0.0017018 4.02314e-22)
(1.00778 -0.000401683 -9.27834e-22)
(1.01534 0.00112708 -1.02714e-21)
(1.01053 -0.00386998 -6.73774e-22)
(-0.0585782 0.178558 -1.19059e-20)
(1.012 -0.00158284 -2.05374e-24)
(1.0462 -0.0137065 4.22738e-23)
(1.01142 -0.00102834 8.94511e-22)
(1.00561 9.75536e-05 4.10392e-23)
(0.966528 -0.227945 3.11159e-21)
(1.01255 0.000955883 6.52779e-22)
(1.16167 -0.228628 0)
(1.01356 -0.00097509 0)
(0.915356 -0.318195 1.78778e-20)
(1.00913 -0.00960238 1.86445e-21)
(1.00952 -0.000606688 -2.31786e-22)
(1.01008 -0.00177163 0)
(0.980498 -0.0805505 1.00263e-21)
(0.615819 -0.0456411 6.97192e-22)
(0.610519 -0.011527 0)
(1.00964 -0.000656021 0)
(0.99572 -0.165319 1.89589e-21)
(1.027 -0.00455687 0)
(1.0105 -0.00531324 0)
(0.862757 -0.202273 1.70363e-21)
(0.887564 -0.094842 0)
(1.01062 -0.0054006 9.9924e-22)
(1.01079 -0.000232715 -6.96189e-22)
(1.01584 0.00418102 -2.69005e-22)
(1.01722 -0.0140815 1.33751e-21)
(1.03152 -0.0346217 -4.54548e-22)
(1.00832 0.000292252 1.35653e-22)
(1.01244 -0.0036168 2.73782e-21)
(1.03529 -0.0172817 -2.18158e-21)
(1.00771 -0.000412262 9.37134e-22)
(1.00551 -0.000171954 8.26456e-22)
(1.01384 -0.00240528 -6.24723e-22)
(0.568168 0.0806482 2.33828e-20)
(1.0155 -0.0052712 0)
(1.01065 -0.000278803 1.87817e-21)
(1.01014 0.000799659 0)
(1.00459 -0.151336 -8.68493e-22)
(1.00793 -0.000612283 0)
(1.00788 -0.000600404 1.01896e-21)
(1.0027 1.18764e-05 1.31963e-21)
(1.0366 -0.00920892 -3.565e-21)
(1.0114 0.00122041 0)
(1.00507 7.42952e-05 0)
(1.00385 2.90707e-05 0)
(1.0179 0.00156857 0)
(0.945995 0.0785036 3.91629e-21)
(1.00845 -0.000421092 0)
(1.00587 0.000117814 1.46154e-22)
(0.183811 0.300536 -2.63776e-20)
(1.04626 -0.0219091 0)
(1.00542 1.34505e-05 0)
(1.00547 1.85372e-05 1.31808e-21)
(0.880194 -0.361929 5.97375e-22)
(0.978139 -0.0245111 0)
(1.00947 0.000942141 0)
(1.0282 -0.0142722 -4.81555e-22)
(1.10631 -0.0328782 -3.30779e-21)
(1.01161 -0.000868906 5.28625e-22)
(0.953933 0.0261414 0)
(1.01402 -0.00247511 6.54216e-22)
(0.615287 0.0518384 5.52702e-22)
(0.985354 -0.178634 -2.90625e-21)
(1.0108 -0.122812 1.64227e-21)
(1.07797 -0.104966 0)
(0.925955 -0.0208282 0)
(1.01018 0.0011144 0)
(0.85555 -0.326818 1.39411e-20)
(1.10562 -0.187752 0)
(1.00636 -0.000179736 0)
(1.00979 -0.11763 -9.26941e-22)
(1.00907 0.00762262 5.8882e-21)
(0.921374 -0.333391 -6.88462e-21)
(1.00951 -0.00206109 -1.47434e-21)
(1.01014 0.00109865 0)
(0.045019 0.194643 3.99925e-20)
(0.902096 -0.0481612 -1.36057e-21)
(1.00923 -0.000557588 5.66606e-22)
(0.0616537 0.281627 -2.93009e-20)
(0.969955 0.00388464 -5.39244e-21)
(0.999331 -0.00464373 0)
(0.357403 0.163696 2.85587e-20)
(1.00944 -0.00192715 0)
(1.01301 0.000925331 -6.85698e-22)
(1.01374 -0.00105824 0)
(1.0053 -3.89765e-05 -5.51064e-22)
(1.01408 -0.0111904 1.35897e-21)
(1.00801 0.000805339 9.7637e-22)
(1.02473 -0.0198611 -6.52027e-22)
(1.01105 -4.29757e-05 -1.2316e-21)
(1.01426 -0.0110392 -8.76012e-22)
(1.02364 -0.0137727 0)
(0.678541 -0.264135 2.02385e-20)
(0.906507 -0.366891 -1.95336e-20)
(1.01339 -0.00305439 0)
(0.853993 -0.349014 1.12505e-20)
(0.817046 -0.0317716 -1.53485e-20)
(1.00909 -0.000551563 -1.43557e-21)
(1.06225 -0.0451318 4.66414e-21)
(0.967748 -0.0248353 4.91218e-22)
(1.15332 -0.0336234 -1.73554e-20)
(0.926714 -0.168975 0)
(0.937069 -0.157861 -8.30525e-23)
(1.01782 -0.00275302 4.63613e-23)
(-0.00237483 0.250804 0)
(0.907728 -0.301893 3.01069e-22)
(1.01142 -0.032252 0)
(1.02383 -0.0135056 1.65481e-22)
(0.999378 -0.00209373 -9.41223e-22)
(1.01297 -0.00325836 0)
(1.01171 -0.00133184 1.29594e-21)
(0.97312 -0.191538 -1.82413e-21)
(0.957706 0.223538 8.63304e-21)
(0.910565 -0.134657 0)
(1.00796 0.0602051 4.82445e-21)
(0.930753 0.252437 -1.25192e-20)
(1.0099 -0.00178531 -5.04599e-22)
(1.05048 -0.0285582 1.01591e-20)
(1.01512 -0.0163247 -5.35131e-22)
(1.06104 -0.0836897 1.14224e-21)
(-0.0188425 0.25634 2.35792e-20)
(0.904404 -0.180055 -9.86944e-23)
(1.09573 -0.126876 0)
(0.893293 -0.0374709 2.16024e-22)
(0.923237 -0.200903 -1.70718e-21)
(0.927223 -0.157979 0)
(1.00507 8.78866e-05 0)
(0.719411 0.0212284 -1.90849e-20)
(1.1023 -0.142711 -1.15976e-20)
(0.994999 -0.0445695 -7.31402e-22)
(0.895901 -0.124471 0)
(1.007 -0.000217141 2.50202e-24)
(1.00662 0.000183301 2.79998e-22)
(1.17771 -0.0401985 -9.22837e-21)
(0.909537 -0.16092 2.37211e-21)
(0.92581 0.200932 -2.47345e-21)
(0.851123 -0.203928 0)
(0.0787556 0.276827 2.35363e-20)
(1.02314 -0.0140541 3.97193e-22)
(0.853404 -0.223768 0)
(1.03209 -0.166085 -1.55323e-21)
(1.0126 -0.00225851 -7.69047e-24)
(1.03316 -0.0172879 -2.15632e-22)
(1.01669 -0.0139549 -1.36348e-21)
(1.01225 0.000665611 2.66697e-22)
(1.00569 -6.61582e-05 -9.04819e-22)
(1.0134 -0.00329162 -1.14464e-21)
(1.01987 -0.00261971 -1.4255e-22)
(1.00425 -0.00011699 -1.35501e-21)
(1.00366 -3.49016e-06 1.32946e-21)
(1.01567 -0.000223523 -3.61376e-22)
(1.00652 -0.0289391 -3.43975e-21)
(0.901576 -0.283011 4.91395e-21)
(1.0621 -0.0306071 0)
(0.868148 0.276249 2.79982e-21)
(0.863555 0.279309 -7.82334e-21)
(0.267596 0.280262 0)
(0.905929 -0.278759 -8.4769e-21)
(1.0805 -0.148305 0)
(1.01705 0.00113677 0)
(1.00646 0.000179939 2.26919e-22)
(0.903779 -0.106225 9.28166e-22)
(1.03247 -0.0175339 1.70221e-22)
(1.02194 -0.0140465 0)
(0.77348 0.268997 6.78821e-21)
(1.0574 -0.0830118 -5.01788e-21)
(0.9883 -0.0916484 6.03678e-22)
(1.01252 0.00112536 0)
(0.672624 -0.252352 -2.12871e-20)
(1.01008 -0.00070393 0)
(1.04637 -0.0228881 0)
(1.0094 0.000962495 0)
(0.08071 0.225681 7.92474e-21)
(0.598012 -0.00754143 0)
(0.925158 -0.19495 0)
(1.00388 4.06674e-05 1.07226e-21)
(0.295424 0.184644 -3.45822e-20)
(1.10349 -0.0631371 -9.16216e-23)
(1.0138 -0.000826311 0)
(1.01269 0.000670502 -2.58416e-22)
(1.00412 5.74754e-05 0)
(1.11944 -0.149932 0)
(1.00387 2.85519e-05 -4.91262e-22)
(1.00511 8.52053e-05 1.14808e-21)
(0.832322 0.251335 -9.85525e-23)
(1.06364 -0.030318 2.26912e-21)
(1.02237 -0.0142212 -1.35476e-22)
(1.01295 -0.00474275 2.22358e-22)
(1.02233 -0.0183 0)
(1.02078 -0.0238321 0)
(0.744701 -0.28029 -3.32666e-22)
(1.00902 -0.0968269 -5.04778e-22)
(1.00311 6.99532e-05 1.71732e-23)
(0.668955 0.0291229 0)
(1.00943 0.000972501 0)
(1.00746 0.000656777 1.00359e-21)
(1.13491 -0.0594257 0)
(1.01639 -0.000381517 0)
(0.844865 0.291388 0)
(1.00304 0.000113101 1.93042e-22)
(1.01984 -0.0239786 -9.54251e-24)
(1.0034 2.48409e-05 -1.34289e-21)
(0.910523 -0.16856 -2.69753e-21)
(1.01996 0.00173305 0)
(1.01955 -0.00261853 4.1423e-22)
(-0.00666808 0.273499 5.04204e-20)
(0.98237 -0.0317336 0)
(1.01034 0.000919962 0)
(1.04922 -0.0284981 -1.07332e-20)
(1.01306 0.00197422 0)
(1.01237 -0.00192291 -5.71836e-22)
(1.00498 3.26015e-05 3.84681e-22)
(1.01315 -0.000594477 0)
(0.658044 -0.0334881 -4.91211e-21)
(0.180787 0.202645 0)
(1.02735 -0.00770516 0)
(1.03973 -0.0567135 -4.50432e-21)
(0.919979 0.271294 -7.07447e-21)
(1.18127 -0.171175 1.63445e-20)
(0.891236 0.0251918 -2.27364e-20)
(1.03552 -0.231333 -3.08051e-21)
(0.885658 -0.00708912 1.69524e-20)
(1.01097 0.00047179 0)
(1.07664 -0.141713 -7.93491e-21)
(0.964229 0.0049526 0)
(1.00852 -0.0175737 7.6057e-22)
(1.02343 -0.0183613 0)
(0.95019 -0.197526 0)
(0.991693 -0.0156738 -5.11261e-22)
(1.00463 -0.00760469 -2.74148e-21)
(1.00596 8.9688e-06 7.58925e-22)
(1.01569 -0.00561677 -2.97535e-22)
(1.00807 -0.000652604 -5.40231e-22)
(1.01623 -0.000374215 0)
(1.00803 -0.000636287 -6.34127e-22)
(1.0159 -0.000137997 2.13252e-22)
(0.958956 0.0597065 0)
(1.00343 -4.97941e-06 0)
(1.00924 0.000884012 -2.97222e-22)
(1.10472 -0.0587706 0)
(1.00625 -0.000280032 0)
(1.00326 2.23241e-05 -8.29581e-22)
(1.01333 0.00215126 0)
(1.01287 0.00135645 1.47793e-23)
(0.991141 -0.0115757 0)
(1.07839 -0.102109 0)
(1.01096 -0.000112716 -1.42699e-21)
(1.00363 -0.0612112 -1.91151e-22)
(1.00633 0.000105979 -4.29297e-23)
(1.0603 -0.0329119 8.1022e-21)
(1.13704 -0.112953 -4.97599e-21)
(0.168029 0.25983 0)
(0.888824 -0.0488128 6.51414e-21)
(1.01298 -0.000940878 -1.83664e-23)
(1.01806 -0.00268488 0)
(0.16917 0.226028 0)
(0.361238 0.161894 -7.9065e-21)
(0.996023 0.00194955 1.44512e-21)
(1.01205 0.0012197 3.80284e-22)
(0.989984 -0.114394 0)
(0.556252 0.0797696 1.17654e-20)
(1.01026 0.000851571 0)
(1.007 0.000143857 4.81844e-23)
(0.696999 -0.37088 1.22459e-20)
(1.01752 -0.0144236 1.31643e-21)
(1.11178 -0.0902399 1.13827e-20)
(0.996526 0.00518589 -1.20561e-21)
(1.01313 0.00117618 0)
(1.03756 -0.0567352 0)
(1.00788 -0.000426947 9.41551e-22)
(1.00982 -0.00233139 0)
(1.0102 -0.000503585 0)
(1.00545 7.95825e-05 -2.6529e-22)
(1.01093 -0.000170968 -7.91617e-24)
(1.00988 -0.000650592 1.20282e-21)
(0.853066 0.153349 1.95397e-20)
(1.00853 0.000591455 5.27182e-22)
(0.977222 -0.0819064 2.21088e-22)
(0.926139 0.259899 4.30852e-21)
(1.01047 0.000978477 0)
(1.00863 0.000632584 -2.11966e-24)
(1.00252 -6.67102e-07 0)
(1.0416 -0.0325192 0)
(1.02123 -0.0181566 1.36259e-21)
(1.01547 -0.104635 -1.94753e-21)
(1.0107 -0.00400037 -6.91658e-22)
(0.821429 0.203039 -4.77383e-21)
(1.01156 -0.0309515 0)
(1.00945 -0.0168431 1.28461e-21)
(1.01093 -0.000869726 5.78888e-22)
(1.01488 -0.000221921 -6.62219e-24)
(1.01602 0.00147922 3.45965e-22)
(1.02698 -0.00881124 2.26827e-21)
(1.02691 -0.00840674 -6.91701e-22)
(0.184409 0.32978 3.96422e-20)
(0.907201 -0.409115 -1.07228e-20)
(1.00761 -0.000384983 -4.77836e-22)
(1.01078 -0.000237808 0)
(1.03576 -0.00880783 0)
(0.562522 -0.208363 -6.30084e-21)
(1.00952 0.000993453 3.94235e-22)
(1.01264 0.0018486 9.21157e-23)
(1.01585 -0.000154544 -1.28739e-23)
(1.00923 0.000886555 1.9013e-22)
(1.0105 -0.000301748 -1.92654e-21)
(1.01081 -0.000850658 0)
(1.01632 -0.0133015 0)
(1.0123 -0.00203805 5.68453e-22)
(1.05146 -0.111237 4.33203e-21)
(1.01074 -0.00397446 6.46182e-22)
(1.01402 0.00231645 -3.33926e-23)
(0.926349 -0.0303402 -5.81151e-21)
(0.179429 0.271349 4.67463e-21)
(1.00499 -0.00431563 -4.55864e-22)
(1.01175 -0.00129607 0)
(1.01023 -0.00343339 0)
(1.00249 -2.2014e-05 1.14446e-21)
(1.01322 -0.00428238 -3.5997e-22)
(1.01322 -0.00389866 -1.49689e-21)
(1.00751 -0.0626488 -3.10966e-22)
(0.964436 -0.054918 1.54151e-22)
(1.03702 -0.0079137 -3.64107e-21)
(1.08369 -0.11369 0)
(1.01016 -0.00328836 0)
(1.06381 -0.0465222 0)
(1.01164 -0.00118431 -2.52227e-22)
(1.00566 0.000100841 0)
(1.08828 -0.0586122 0)
(1.01111 0.00126267 0)
(1.00534 7.45378e-05 5.19927e-24)
(0.847493 -0.187098 -2.21065e-20)
(1.00359 1.71051e-05 1.77851e-21)
(1.04139 -0.0111587 -4.4743e-21)
(1.01775 0.0569973 -5.20429e-21)
(1.00512 4.58951e-06 8.08678e-22)
(1.01676 -0.00387943 -1.50125e-22)
(0.0537401 0.226968 0)
(1.01132 0.000516642 6.72958e-22)
(0.963328 0.0748132 0)
(0.984412 -0.00704269 4.59061e-22)
(1.00478 3.97925e-05 0)
(1.00335 1.25319e-05 -7.46158e-22)
(1.00462 0.00178035 -4.00432e-21)
(1.02062 -0.0188567 0)
(1.0208 -0.0190082 1.45183e-21)
(1.00995 -0.00256156 0)
(0.916256 -0.306347 0)
(1.06846 -0.153257 1.06708e-20)
(0.865316 -0.0216761 1.02852e-20)
(1.00802 -0.000484179 1.01392e-21)
(0.221095 0.301104 2.73716e-20)
(1.00913 0.000788728 2.91991e-22)
(1.0041 5.77153e-05 4.25468e-22)
(1.01114 -0.00415217 1.93326e-21)
(1.00766 -0.00401806 -1.2611e-21)
(0.825289 0.227319 1.00664e-21)
(0.913593 -0.0519253 0)
(1.01244 -0.00148892 9.27978e-22)
(1.04196 -0.00970376 -1.17672e-21)
(1.01216 -0.00381736 2.79411e-22)
(0.635008 -0.331345 7.93237e-21)
(0.988041 -0.102651 0)
(1.0108 -0.00161513 1.41514e-21)
(1.03185 -0.0155738 4.70289e-22)
(1.04424 -0.0240747 -3.48526e-21)
(-0.0175207 0.263815 0)
(1.02191 -0.0354786 5.83856e-22)
(0.991062 0.00024928 1.47591e-21)
(1.00901 -0.000681134 -6.10724e-22)
(1.00687 -0.00303713 0)
(1.05137 -0.0853233 4.64657e-21)
(1.00493 3.73098e-05 -4.24372e-24)
(1.00911 -0.000670916 -6.37617e-22)
(1.00946 0.000970884 0)
(1.00869 -0.000516945 1.10255e-21)
(1.02555 -0.0330492 2.30416e-22)
(1.01126 -0.0792473 -1.92156e-21)
(1.04578 -0.0206426 0)
(0.816404 -0.157662 8.33595e-21)
(0.992382 0.00394765 4.55359e-22)
(1.01195 0.00308727 1.21999e-21)
(1.01109 -0.00420489 -1.14601e-21)
(1.00748 -0.00026794 0)
(0.963843 -0.0873011 3.99184e-22)
(1.1517 -0.0346178 6.42285e-23)
(1.01355 0.00221908 -7.43843e-23)
(1.06288 -0.0669341 2.05711e-21)
(-0.011916 0.192368 0)
(0.182855 0.327354 1.17485e-20)
(1.00328 1.10157e-05 0)
(1.00448 0.000125753 -1.89643e-22)
(1.00435 0.00846681 3.1311e-21)
(0.963206 0.0848084 1.44499e-20)
(1.00918 0.000784879 0)
(0.964168 -0.0164014 5.61286e-22)
(1.01065 -0.00440666 0)
(1.0045 -5.51965e-05 0)
(1.05864 -0.0385289 0)
(1.01378 -0.00076785 -5.31473e-22)
(1.02742 -0.00812923 0)
(1.01149 -0.000945737 -7.24895e-22)
(1.00779 -0.000521465 -1.08571e-21)
(1.01202 0.000171931 -1.06709e-21)
(1.01601 -0.0863839 3.85848e-21)
(1.08579 -0.0594469 -7.73054e-21)
(0.900256 0.245357 -5.70066e-21)
(1.01165 -0.00303003 1.74893e-21)
(1.01066 -0.000269863 7.51154e-22)
(0.890914 -0.203015 0)
(1.01275 0.00189254 -1.91648e-22)
(0.871187 -0.215317 2.40425e-21)
(0.872004 0.189091 -9.70598e-21)
(1.0106 -0.00436032 0)
(0.784258 0.285441 -6.78869e-21)
(1.01106 -0.000237071 0)
(1.01186 -0.00146465 -1.08651e-21)
(0.810134 0.30859 1.74307e-20)
(0.91466 -0.0954244 -7.23078e-22)
(0.901927 -0.0921325 3.86661e-22)
(0.63756 -0.0480231 0)
(1.02077 -0.018223 -1.50234e-22)
(0.780722 0.120337 0)
(1.00841 0.000543502 -1.27157e-22)
(0.783964 0.00491016 0)
(0.270335 0.284355 0)
(1.01037 -0.0296173 2.49837e-21)
(1.01173 -0.00123681 0)
(0.880888 -0.243168 -3.56702e-21)
(1.0433 -0.0231018 1.34483e-21)
(1.04743 0.00915287 -2.7052e-21)
(1.11364 -0.183918 0)
(0.821753 -0.258456 0)
(1.02514 -0.0046658 -4.22357e-23)
(0.864242 0.0369544 0)
(1.00538 0.000106446 -1.562e-21)
(1.06131 -0.069941 1.1334e-21)
(1.07773 -0.113632 0)
(1.00588 -5.00252e-05 0)
(1.0366 -0.0456545 4.10491e-21)
(0.950325 0.197441 1.13576e-20)
(0.952048 0.0710033 0)
(1.01757 -0.0136473 5.26366e-23)
(1.01652 -0.0135498 1.6829e-21)
(1.00938 0.000940261 0)
(1.0244 -0.0134979 6.25745e-22)
(1.01904 0.00110804 0)
(1.01859 -0.0273303 6.19001e-23)
(0.978758 0.0403607 -5.26841e-21)
(1.01127 -0.000170565 -1.32289e-21)
(0.884434 -0.189391 0)
(1.01217 0.00240772 1.4808e-21)
(1.01045 -0.00504909 1.07176e-21)
(1.05567 -0.0264427 -5.19028e-21)
(1.00861 0.000613248 -2.07535e-22)
(1.02891 0.000215216 3.22454e-22)
(1.01368 -0.0024779 1.09478e-23)
(1.00881 -0.000512101 0)
(0.90629 -0.369448 0)
(1.00749 -0.000327105 -9.21507e-22)
(1.01292 -0.00370788 0)
(0.89297 -0.0616391 4.77442e-22)
(1.10393 -0.0650695 -7.75025e-22)
(1.11081 -0.0557663 0)
(1.01838 -0.00208556 1.31792e-22)
(1.01085 -0.00573479 1.9428e-21)
(0.996993 -0.0718849 0)
(1.01141 -0.00623093 -8.52429e-22)
(0.941576 0.115093 -2.17797e-20)
(1.04742 -0.0198662 0)
(1.01759 -0.014573 -1.39596e-21)
(1.03128 -0.0155104 1.03993e-21)
(1.01039 -0.00431881 0)
(1.00932 0.000885744 4.23933e-22)
(0.603816 -0.270626 -4.74035e-21)
(1.00868 0.000655137 0)
(0.257427 0.0847392 0)
(1.11018 -0.179558 0)
(1.03763 -0.00751856 -5.89765e-21)
(0.566915 -0.0713209 -8.14451e-20)
(1.00635 0.000137972 5.35327e-22)
(1.00177 -0.0053898 0)
(1.0176 -0.0139635 1.32062e-21)
(0.657228 -0.357354 0)
(1.04846 -0.0179423 0)
(1.00039 -0.0832606 -2.64969e-22)
(0.891535 -0.162438 0)
(1.00408 5.20759e-05 1.61354e-23)
(0.885638 -0.0438629 0)
(1.00686 -4.91498e-05 -4.41279e-22)
(1.09892 -0.166632 0)
(1.01126 -0.00624936 0)
(1.02656 -0.0109875 0)
(0.729393 -0.0148059 -2.71431e-20)
(0.898407 -0.0980611 2.58874e-22)
(1.01319 -0.0024136 0)
(1.01497 -0.00937949 -8.46991e-22)
(1.02287 -0.0186914 0)
(1.00883 -0.00035789 2.12034e-24)
(1.01813 -0.00205955 0)
(0.945554 -0.178219 0)
(0.0956237 0.308119 5.78245e-21)
(1.01121 -0.000748951 9.30812e-22)
(1.00868 -0.000350616 5.88067e-22)
(1.00686 -6.68858e-05 4.54045e-22)
(0.726397 -0.289663 0)
(0.913735 -0.0427273 3.2335e-21)
(0.981717 0.0114331 2.67014e-21)
(1.00781 -0.000499689 1.15025e-21)
(1.02696 -0.0215683 1.00464e-21)
(1.02609 -0.0110279 -6.29193e-22)
(1.01071 -0.0056784 -1.7599e-21)
(1.0619 -0.0325979 -8.85764e-21)
(0.817569 -0.113478 7.2824e-21)
(1.01089 -0.00151211 -3.57105e-22)
(1.06583 -0.0669441 0)
(1.0268 -0.130595 4.95751e-22)
(1.01554 0.0037449 -1.34685e-22)
(0.981484 -0.0141688 -2.53263e-21)
(1.01932 -0.00479229 -3.18645e-23)
(1.01937 -0.0339068 -1.33779e-22)
(1.01085 -0.00137445 0)
(1.01174 0.000354483 3.54221e-22)
(1.04866 -0.030169 -3.743e-21)
(1.01036 -0.00493494 -2.16193e-21)
(1.05512 -0.0862703 3.77872e-21)
(1.01602 -0.000440651 -1.32658e-22)
(0.476962 0.119887 0)
(1.00699 -0.000256418 -8.718e-22)
(1.04756 -0.0209649 2.10283e-21)
(1.06969 -0.107627 0)
(0.948671 0.0542031 2.23451e-21)
(1.05829 -0.0696616 3.97586e-21)
(1.00601 0.00017569 -6.82138e-23)
(1.01041 -0.00419023 0)
(0.901543 -0.20224 -5.36345e-21)
(1.02535 -0.0261445 -1.04361e-21)
(1.04121 0.0085836 0)
(1.00822 -0.000842121 1.3051e-22)
(1.01037 -0.00366376 6.42794e-22)
(1.01512 -0.0152545 2.68155e-21)
(-0.057302 0.093702 8.84709e-21)
(0.886484 -0.0840372 -4.41997e-22)
(1.01105 -0.000695309 8.12258e-22)
(1.01304 -0.00265771 7.4454e-22)
(1.02048 -0.0141712 -2.14041e-22)
(1.01488 -0.00908515 1.2933e-21)
(1.01143 -0.000649127 2.58224e-22)
(1.01258 -0.00441894 0)
(1.00485 2.13118e-05 -1.90233e-21)
(0.867336 0.0121524 -1.45048e-20)
(1.01368 -0.00257591 4.15388e-22)
(1.01701 -0.00406456 -2.09484e-23)
(0.900404 -0.194536 -5.84755e-21)
(1.00807 -0.000438121 -1.53285e-21)
(1.05309 -0.245984 1.81447e-20)
(0.945547 -0.0700641 4.98697e-21)
(0.65601 -0.307669 5.36284e-21)
(0.927233 -0.315941 5.78336e-21)
(0.923767 -0.235465 -4.63328e-21)
(0.091908 0.319469 0)
(1.01287 -0.00441782 0)
(1.01046 -0.00381054 3.67632e-22)
(1.01694 -0.0140249 -2.6182e-21)
(1.01107 -0.000684897 -8.69182e-22)
(1.01094 -0.00200365 0)
(1.00622 -7.41696e-06 7.98984e-22)
(1.00563 5.46326e-05 1.72396e-21)
(1.02444 -0.0130999 -8.57144e-22)
(0.785931 -0.228404 4.07111e-22)
(1.13844 -0.107942 -9.12638e-21)
(1.02327 -0.120433 1.04276e-21)
(1.011 0.00674504 3.97719e-22)
(1.01028 -0.00342616 -6.45643e-22)
(1.0113 -0.0325293 1.83636e-22)
(1.00682 -0.0268718 6.53641e-24)
(0.989141 -0.0761233 -8.71378e-22)
(1.0033 2.26168e-05 0)
(1.01101 -0.0030633 -8.92034e-22)
(1.01162 0.000330657 -1.05231e-21)
(0.0408344 0.321575 2.04104e-20)
(1.02837 0.141092 6.58571e-21)
(0.822734 -0.229921 0)
(1.00549 -0.000132226 9.47269e-22)
(1.07012 -0.118698 3.34081e-21)
(1.0874 -0.147946 0)
(0.979951 -0.00832699 -5.05884e-22)
(-0.0649294 0.0999497 9.62614e-21)
(0.809644 -0.251877 -3.70309e-21)
(1.0168 -0.0132293 0)
(1.01662 0.00432171 0)
(1.01428 0.00234682 5.76715e-24)
(1.00186 -0.0487312 1.08364e-20)
(1.01861 -0.0099852 -3.90534e-22)
(1.00869 0.000699081 -9.7217e-22)
(1.01606 -0.108474 0)
(0.934315 -0.320923 0)
(1.0127 -0.00379244 7.84925e-22)
(1.04735 0.00508673 -4.22605e-23)
(1.03276 -0.108021 2.22664e-22)
(1.01418 -0.00237805 1.03648e-22)
(1.01172 -0.0040913 1.02801e-21)
(1.01443 -0.00211448 7.05746e-23)
(1.01066 -0.00195174 -8.4264e-22)
(1.01524 -0.00558467 0)
(1.00997 0.000569628 -1.9184e-23)
(1.03193 -0.0442007 -2.63187e-21)
(1.01405 -0.00582046 8.43857e-22)
(1.01848 -0.0101683 2.68555e-22)
(0.905372 -0.171466 2.06996e-20)
(0.0375886 0.325918 -8.0633e-21)
(1.01467 -0.00479495 -5.52848e-22)
(0.960486 -0.195249 0)
(1.21047 -0.120669 -9.27116e-21)
(1.01315 -0.0111358 0)
(1.01215 -0.00172898 -1.16788e-22)
(1.01119 -0.000752453 2.19203e-22)
(1.00787 0.000219083 -6.00347e-23)
(1.01544 -0.0134638 2.0203e-21)
(1.0129 -0.0108599 0)
(1.0044 5.40296e-05 -2.12246e-21)
(1.02649 -0.00916786 0)
(1.01024 7.70156e-05 -1.53579e-21)
(1.02009 -0.0097936 0)
(0.777763 -0.0450519 3.64057e-20)
(1.03003 -0.0352691 1.43656e-21)
(1.00511 1.9241e-05 -5.33055e-23)
(1.01072 -0.0018003 0)
(0.869339 0.318805 -4.8632e-21)
(1.02566 -0.00481599 9.78761e-22)
(1.00884 0.00072183 -5.75707e-22)
(0.630949 -0.356562 4.13784e-23)
(1.01116 -0.00194806 0)
(1.03605 -0.0541056 0)
(1.04741 -0.0301726 0)
(1.01726 -0.00376793 6.10536e-24)
(1.00817 -0.000766358 5.81595e-22)
(1.009 -0.000526643 -1.59428e-21)
(1.01787 -0.0144422 -1.84275e-21)
(1.08189 -0.0452774 0)
(1.00462 2.32531e-05 -8.68812e-22)
(0.924553 -0.248595 3.69268e-21)
(0.987969 -0.0804813 0)
(1.06976 -0.141738 0)
(0.78985 -0.229538 -1.68784e-21)
(1.02034 -0.0136865 1.21034e-22)
(0.968626 0.0312958 2.42223e-21)
(1.0085 0.000581839 5.33342e-22)
(1.00121 -0.119928 0)
(1.03727 -0.00878563 3.98593e-21)
(1.01036 -0.00191525 0)
(1.14748 -0.118091 0)
(0.953926 -0.231434 0)
(1.01005 -0.00667996 0)
(1.13302 -0.229971 0)
(1.20008 -0.235895 -5.43691e-20)
(1.00652 0.000164692 0)
(1.05738 -0.0369555 0)
(1.00897 0.000757794 0)
(1.01322 -0.00061912 1.64539e-22)
(1.02568 -0.0345636 0)
(1.00793 -0.00589088 0)
(1.00707 -0.000195375 0)
(0.988641 0.00130033 -1.51027e-21)
(1.01043 -0.00192222 -3.47157e-24)
(1.01107 -0.000209953 0)
(0.882264 0.176609 -1.71025e-20)
(1.01109 -0.000882353 5.23818e-22)
(1.0109 -0.00211198 1.07766e-22)
(1.0082 -0.000777387 0)
(0.835975 -0.0654984 -2.51127e-20)
(1.01081 -0.00177243 -9.46921e-22)
(1.01098 -0.00121326 -1.19604e-22)
(1.03014 -0.0430025 5.05014e-22)
(0.952554 0.138694 0)
(0.971458 0.204259 0)
(0.968696 -0.215172 6.47939e-22)
(0.848223 0.106183 -5.01146e-21)
(1.0099 -0.00241356 1.46014e-21)
(1.00891 0.00076381 1.82675e-22)
(1.0175 -0.00370479 -6.51412e-24)
(0.808882 -0.260619 0)
(1.00373 -5.19538e-05 -1.29943e-21)
(1.00943 -0.00119071 -1.59498e-22)
(1.03618 -0.021098 2.24452e-21)
(1.01129 0.000382039 3.43056e-22)
(1.07661 -0.153526 0)
(1.01983 -0.010322 4.03809e-23)
(1.02304 -0.00690354 -6.15262e-22)
(1.07356 0.100011 8.98906e-22)
(1.01204 -0.00400877 4.56465e-22)
(1.10556 -0.0609383 7.43174e-21)
(0.824335 0.301895 -3.92324e-21)
(1.00893 0.000764674 0)
(1.01385 -0.00566404 -1.12065e-21)
(0.937048 0.11628 -4.04702e-20)
(1.01697 -0.0139354 1.44446e-21)
(0.352199 0.277118 -3.73071e-20)
(0.877545 0.332843 0)
(1.00739 -0.000247596 9.01068e-22)
(1.01992 -0.00485099 6.35532e-22)
(0.921708 0.0491425 1.06679e-21)
(1.00784 -0.00054859 6.53481e-22)
(1.03721 -0.0210916 0)
(0.909799 0.214339 9.88237e-22)
(1.0078 0.000276757 0)
(1.00349 0.136097 -5.03686e-21)
(1.01419 -0.00226762 0)
(1.01055 -0.00190443 8.83869e-22)