/*--------------------------------*- C++ -*----------------------------------*\
| =========                 |                                                 |
| \\      /  F ield         | OpenFOAM: The Open Source CFD Toolbox           |
|  \\    /   O peration     | Version:  v2012                                 |
|   \\  /    A nd           | Website:  www.openfoam.com                      |
|    \\/     M anipulation  |                                                 |
\*---------------------------------------------------------------------------*/
FoamFile
{
    version     2.0;
    format      ascii;
    class       volScalarField;
    location    "900";
    object      omega_0;
}
// * * * * * * * * * * * * * * * * * * * * * * * * * * * * * * * * * * * * * //

dimensions      [0 0 -1 0 0 0 0];


internalField   nonuniform List<scalar> 
18758
(
0.0497999
0.181134
0.0219448
0.0475153
0.0262563
0.020387
0.0212815
0.0226319
0.0256722
0.0252746
0.204114
0.404839
0.377217
0.0225026
0.0212612
0.021144
0.427657
0.0195643
0.0212522
0.0237517
0.5428
0.272157
0.0204848
0.0204133
0.322411
0.235644
0.854486
0.0895801
0.0701903
0.231089
0.825418
0.987198
0.0225308
1.12611
0.0267864
0.250579
0.294446
0.0262676
0.188964
0.0199282
0.249597
0.026372
0.167589
0.021625
0.0214399
1.09758
0.0255487
0.0698804
2.89608
0.0384175
0.233044
3.00072
0.0366745
0.0240797
0.138449
0.211608
0.0209924
0.0235629
0.0631989
0.0209066
0.0216675
0.0215335
0.758853
2.00928
0.0216936
4.04652
0.021592
0.0198648
0.0890445
0.01958
2.99746
0.27307
0.0212108
0.0257103
0.0593446
0.710599
1.60606
0.445042
0.0258654
0.154162
0.0829576
0.184246
0.433649
0.0378212
0.0225331
0.115569
0.0246346
0.0262298
0.774121
0.115064
2.61058
0.0224048
0.0634255
3.0777
0.0212007
0.0207468
0.0197051
0.0493419
0.458585
0.0210927
1.05183
0.0278468
0.0198575
0.0207434
4.04538
0.534974
0.0701187
2.72176
1.24434
0.416785
0.0211682
1.94049
0.0265018
0.021636
0.0278927
0.193469
0.0478951
0.0205894
0.230825
0.0233133
0.021461
1.58887
0.0226472
0.0205242
1.97193
0.0241562
0.0211978
0.0205252
0.113849
2.14601
0.0645245
0.0224896
0.026311
3.7195
0.0199646
0.0215362
1.43902
0.0225306
0.114715
0.0810848
0.0280007
0.399994
0.0410879
1.46364
2.0442
0.0470008
4.12311
0.102908
0.180677
0.414254
2.6448
1.77681
0.021583
0.0269564
0.234608
0.363624
0.0628673
0.11717
0.0398851
0.209804
2.08441
0.0206224
3.03034
4.10599
1.34777
0.0210144
0.0206144
2.40781
2.26737
0.386814
1.92875
0.0220865
0.0765432
0.288972
0.81797
0.0210554
0.0211997
0.210155
0.781401
0.0219782
0.019786
0.0241118
0.132468
0.0224109
2.37504
0.0213587
0.230965
0.0317127
3.40715
1.6244
1.7724
0.0213491
0.0592891
1.7054
0.0196866
0.0223265
0.131063
0.0215726
3.54645
0.0205958
0.0236641
0.128791
0.59737
0.0211424
0.0211708
3.39798
0.0209683
0.0276772
2.46068
1.84765
0.0210434
0.0641395
0.0243158
0.0222221
0.0230725
0.0197225
0.0214159
0.0631171
0.0201042
0.287348
1.6865
0.0212247
0.0401055
0.129602
0.76988
0.3113
0.0631467
0.115892
2.17044
0.0209452
0.237217
0.0466894
0.530361
0.0218248
0.0209873
0.0213273
0.0685774
2.48689
0.15125
0.021884
0.0211801
0.062867
0.0992441
0.0213845
1.03832
0.171447
0.020999
0.0206341
0.0217978
0.0210921
2.00597
0.0214391
0.274273
0.021536
0.0208751
0.179551
0.0209794
0.326165
0.021264
0.835404
0.0266506
0.0205469
0.0210105
0.0569942
1.66325
1.62276
0.0205559
0.1091
0.0215974
0.021389
0.281154
2.20871
0.02136
0.0208759
0.0239097
0.0229148
0.0252978
0.0199967
0.022413
0.0224949
0.020634
0.0225628
0.0212144
4.06995
0.021272
0.0208607
0.019544
0.095926
0.0207264
0.0207316
0.0215615
0.0220373
0.0209438
0.0208514
0.0211652
0.0228279
0.312985
0.0229296
0.0205758
2.17835
0.0236759
0.0210157
0.0210459
0.250018
0.239342
0.0197803
0.0643987
0.532846
0.0217246
0.233368
0.0212176
1.52587
0.122731
0.0735201
0.069669
1.35321
0.0198331
0.361632
0.143708
0.0215887
0.0703433
0.0380758
0.345984
0.0209676
0.0198401
1.93922
0.30679
0.0207404
1.90827
0.0536241
0.031698
3.57362
0.0209621
0.0210847
0.0212476
0.0216157
0.0220286
0.0250131
0.0226751
0.021018
0.0219649
0.0218795
1.84415
0.229617
0.0223166
0.325654
0.445012
0.0207279
0.0311083
0.244819
0.324334
0.401461
0.132793
0.0213593
1.94682
0.714525
0.0336009
0.0218749
0.0318234
0.0222616
0.0214441
0.141008
1.68497
0.394765
0.0791313
1.65024
0.0209978
0.0250233
0.0244159
0.0494219
2.63523
0.184201
0.304395
0.118339
0.266993
0.140574
0.0209638
3.74309
0.107595
0.232857
0.376003
0.0210764
0.0203799
0.283453
0.395582
0.270853
0.58424
1.91045
0.0219162
0.415747
0.312947
0.0211537
0.0224215
0.022997
0.0229858
0.0214443
0.0223703
0.0214208
0.0230832
0.0214073
0.0217638
0.0286016
0.301609
0.027159
0.989653
1.03834
2.65381
0.422257
0.100487
0.0224157
0.0204632
0.168413
0.0224149
0.0219109
1.52846
0.0481346
0.0773525
0.0210414
1.77279
0.0213851
0.023758
0.0197411
3.86863
1.65691
0.399834
0.0211617
3.52719
0.062392
0.0213856
0.0228975
0.0210627
0.20338
0.0211165
0.020829
1.29916
0.0274442
0.0219354
0.0211892
0.0225565
0.0238202
1.85164
0.0726947
0.0214676
3.97367
0.0197338
0.0256871
0.111544
0.0214058
0.989232
0.0215081
0.0239925
0.0218489
0.165237
0.023394
0.0214149
2.19466
0.232896
0.0195484
0.0250253
0.0232011
0.0211444
0.0212033
0.0221097
1.71376
2.0858
0.0216584
0.0323031
1.62161
0.201999
0.255802
0.168269
0.271425
0.0204514
0.0949059
0.0571744
0.0276588
0.0224914
0.303064
0.0454977
0.0275676
0.0207258
0.0212791
0.0207295
0.0214044
0.0207233
0.0214221
0.653493
0.0222933
0.0196965
0.0615365
0.0223694
0.0218337
0.0199358
0.0229763
0.0441562
0.550343
0.0209918
0.244033
0.0206561
0.0272677
0.120499
2.01818
0.132436
0.0212604
0.0213703
2.06133
3.64854
0.039244
0.0210103
0.0805485
4.11315
0.019541
0.0205306
2.23947
0.0231168
0.0832257
0.0361874
0.0238972
0.032209
0.0206405
0.0210129
0.0222916
0.0207651
0.0209174
0.0216603
0.41601
0.0197912
0.0615106
1.62737
0.0195464
0.0197907
0.0225799
0.0250822
0.0276057
0.0750683
0.0211017
1.67875
0.0272323
0.0276451
0.0207914
0.0215367
0.0220152
0.0216768
0.0216653
2.10939
2.32105
0.0206299
0.0208981
0.0219924
2.38394
0.0197516
0.0197444
0.0214374
0.0197074
0.0208294
0.020767
0.0225662
0.0211409
0.0652555
0.0210997
0.0200289
0.083747
2.03506
0.0261448
0.021263
0.0210818
0.0220102
0.0211862
0.0228948
0.057082
0.253231
0.0220087
0.839648
0.0210693
0.031968
0.0213112
0.0206008
0.0473132
0.0195825
0.0208189
0.840981
0.0218658
0.0223758
0.0732192
0.0212555
0.0213116
3.83194
0.0205484
0.703166
0.189238
0.0210049
0.0218844
0.035922
0.0228902
0.027701
0.0210399
0.761666
0.842738
0.291446
0.0206604
2.33132
0.0196812
0.0210394
0.0211152
0.0310246
1.52768
0.0993241
0.021956
0.0223403
0.0230697
2.38774
0.076148
0.0210593
0.0954082
0.0237646
2.31182
0.0261625
0.0380611
0.0207566
0.0297029
0.0481533
0.0210131
0.0207596
0.0197574
0.0206946
0.0251857
0.0629376
0.262155
0.835992
0.0367872
0.0236484
0.0211184
0.0205884
0.0474675
0.309266
0.0199652
0.0403421
1.77654
2.11118
0.0212238
0.0210701
0.0396659
0.195703
0.0196693
0.245321
0.0211862
0.0228402
0.0285133
0.0214638
0.0216716
0.0220028
0.0206721
0.0222326
0.0660738
0.0468877
0.28627
0.0221578
0.020845
0.221784
0.0197654
0.309727
0.429816
0.021198
1.4802
0.0230067
0.0213697
1.4941
0.301528
0.295071
1.68706
0.0227493
0.949205
0.0198034
3.16978
2.63885
0.0321902
0.0216951
0.366187
0.023606
0.0484823
0.110645
2.20732
0.0215503
0.449304
0.0206604
0.0417129
0.0758311
0.0208615
0.0282904
1.61919
0.691788
0.0252816
0.0226795
0.0196976
0.0218734
0.0231275
0.0312962
0.0711134
0.0209014
0.201306
0.0234499
0.0213695
0.0253418
0.0197495
0.105839
0.021201
0.0206986
1.61358
0.0206133
0.0225179
0.292175
0.0632367
0.0670377
0.0213905
0.0213581
0.0455858
0.0213463
0.175029
0.023534
0.0232757
0.0221988
0.021339
0.0196825
2.30247
0.0197488
2.15789
0.141525
0.0220288
2.97577
0.0204318
0.0292207
0.0250515
2.36515
0.0234151
0.0754031
0.173247
0.0210469
0.254952
0.0203106
0.105114
0.0213695
0.0217564
3.33659
0.366787
0.0211824
0.0215473
0.0225965
0.0205613
0.0213842
0.262702
2.22946
0.0209843
0.0205492
0.0203213
1.86758
0.096091
0.0877709
0.0206628
0.0928461
0.0217505
0.0213825
0.0275498
0.453371
0.0210627
0.0413789
0.0872762
0.0222149
0.147305
0.0213892
0.0261684
0.0210628
0.0206073
0.0250807
0.0214029
0.0496712
0.0213916
3.87064
0.0216001
0.023655
0.0681911
0.618015
0.0406403
0.0205801
0.0213282
0.220071
0.103614
0.044833
0.0208249
0.0210813
0.0256966
2.2014
0.330874
0.0208894
0.0211682
0.0219803
0.021518
0.0222255
0.021169
0.0213328
0.273596
0.0211935
0.0213188
0.201772
0.0206496
0.182779
0.0728633
2.23135
0.313948
0.381664
2.17764
0.021178
0.0210929
0.023031
0.0209848
0.021064
0.0206279
0.0208248
0.0218388
2.1084
0.120541
0.0835816
0.022207
0.0210556
0.0276166
0.0282659
0.0508134
0.0212345
0.0223073
0.0205535
2.4952
1.23509
0.645664
0.0218046
0.0761618
0.104082
0.121894
2.13106
1.0015
0.0223575
0.0260553
0.020105
0.698676
0.021532
0.0198764
0.0627898
0.942808
0.0211605
0.274439
0.131931
0.0212274
0.0211304
0.0212423
0.0211752
0.0212683
0.0228926
0.0278525
0.021249
0.0215446
0.839535
2.3967
0.0212409
0.312678
0.21706
0.0221074
0.0222489
0.0210957
0.0202194
0.022817
0.0220938
0.0212168
0.021675
0.0226883
0.0215351
3.10822
0.0254396
0.021075
0.0211866
0.213329
0.021562
0.0198652
2.39793
0.0210769
0.03114
0.0250922
0.0213289
0.0208012
0.0205401
0.0240262
0.0379036
0.0212872
0.374449
0.0527821
0.0913959
1.03223
0.0219281
0.151855
0.0198026
0.0838424
0.0220556
0.0211017
0.134445
0.193663
0.0216792
0.147811
0.252218
0.0203367
0.0278003
0.0198659
0.0219299
0.0255178
0.022317
0.0211348
0.151387
0.0210308
0.0208764
0.190288
0.0208503
0.021061
0.0208001
2.78952
0.0212199
0.0223386
0.0275448
1.37702
0.250143
0.167925
0.432113
0.021027
0.0197258
0.0213383
2.2209
0.0223017
0.0209101
0.0229324
0.0204852
0.0995291
0.0215644
0.0215162
0.614924
0.0211394
0.0627834
0.937652
0.0197227
0.0212416
1.44334
0.0228617
3.06435
0.249401
0.0205854
0.0214079
0.697374
0.0206838
0.0229882
0.272819
0.0200443
0.545195
0.0212288
0.0211474
0.0212587
0.0281988
0.0223998
0.539265
0.0224664
0.0209801
0.434267
0.171798
0.0383951
0.0263873
0.144386
2.22357
1.50117
0.0196729
2.10245
0.0218062
2.22298
0.839737
0.0210954
0.0273222
0.0215832
0.194685
0.020771
2.22573
0.0208484
1.11394
0.125392
0.0207197
0.0196884
0.0211864
0.161253
0.0992698
0.021186
0.73808
0.0215735
0.0210613
0.545852
0.0212837
0.229535
0.0208112
0.0230802
0.0209518
0.0208136
0.0209899
0.0207746
0.0666097
0.0272319
0.0290631
0.0297855
0.0217546
0.0212255
0.334988
0.0212559
0.547101
0.0215404
0.424819
0.0251282
0.203191
0.0209347
0.0212687
0.0210359
3.01069
0.020865
0.416298
0.0481011
0.0213948
0.0250701
0.0212517
0.0206269
0.023181
0.0208697
0.349898
0.0211953
0.02247
0.0211914
0.0225699
2.50401
0.779919
0.0213504
0.0208128
0.0226945
0.0216818
0.0211129
0.0235904
0.0218446
0.0211775
0.0204886
0.0207997
0.177511
0.0815594
0.021384
0.0204887
0.611816
0.022156
0.291514
1.65758
0.0217782
3.8037
0.0225961
0.0209173
0.0216516
0.0229337
0.0415999
0.0206466
0.0304372
0.302416
0.0787163
0.485056
4.83498
2.25646
0.0285561
0.0215172
0.0214226
0.393816
0.0204449
0.0214778
0.0280153
0.196951
0.0211522
0.0207581
1.90167
0.0232967
0.0238359
0.0225671
0.0231343
0.0837235
0.0214151
0.023555
0.0212035
0.0294148
0.024383
0.021685
0.0216473
0.551293
0.021708
0.0212357
0.28061
0.0196879
0.0210813
0.0211914
0.0220957
0.0232128
0.8013
0.0992202
0.376565
0.209801
1.86734
0.317347
0.0235114
2.14279
0.322159
0.0213436
0.0219767
0.0215436
0.0214243
0.0221543
0.0220664
0.0689117
0.091594
0.0214583
0.0202807
0.037124
0.0243282
0.325392
0.0211329
0.0219065
0.021068
0.162379
0.479864
0.0277299
3.78728
0.0211078
0.0210788
0.0653579
0.0265468
0.0210639
0.0871668
0.0217635
0.0269142
0.208774
0.0708359
0.0291571
0.0213284
0.021856
0.0217898
0.0206605
0.263268
0.0637226
2.9102
0.0596859
1.10337
0.0217185
2.80564
2.5537
4.7686
0.107778
0.305371
0.0256103
0.253625
0.0923341
0.0307615
0.0195631
0.0211611
0.0213763
0.0356068
0.0208116
0.0211077
0.0469768
2.13783
0.314973
0.326287
0.0752576
0.542398
0.0277121
0.0234578
0.0212457
2.10214
0.155264
0.0204872
0.0279039
1.04309
2.04062
1.80846
0.0312949
0.0455391
0.0197362
2.88236
0.0217033
0.264502
0.214729
0.0284508
0.11668
0.0963135
0.0213974
0.0212219
0.542327
0.0654469
0.178646
0.0217202
0.0219316
0.0233743
0.312266
0.0238942
0.23221
0.021758
0.124902
0.250607
0.0243221
0.0918562
0.0610384
2.21515
0.019735
0.0324556
2.38816
0.0265042
0.0211586
0.53056
0.55108
0.0211319
0.0212527
0.205726
0.0244989
0.0231026
0.321078
0.108985
0.0222915
0.0275216
0.287497
0.0282083
0.0228154
0.0227126
0.20499
0.0242915
0.0207703
0.0209857
0.0769825
0.0207705
0.313842
0.0204573
0.0206728
0.32126
0.0217577
0.0211108
0.0560939
0.0196824
0.0230288
0.0205128
0.0210745
0.0214908
0.0816289
0.0214669
0.238128
0.140417
0.561437
4.39636
0.0235628
0.0205759
0.0207738
2.33259
0.0249629
0.0217298
0.256009
0.0297237
0.329283
0.0200873
0.0204422
0.020585
0.0208459
0.0212095
0.0199181
0.021982
0.0222461
0.0212957
0.245648
0.029924
0.204032
0.0231038
0.0205174
0.0242886
3.62099
2.7737
0.452119
3.71082
0.377815
0.0866748
2.63235
0.0225595
0.0340239
0.0409285
2.00931
0.0209731
0.44205
0.220711
0.13894
0.0211793
0.414602
0.0210533
0.0212404
0.0208953
0.0287467
1.87905
0.247557
0.0215419
0.0195991
0.0207397
0.0201824
0.0292359
0.0213415
2.54786
0.0563074
0.0337994
0.0218044
0.0211407
0.0198785
2.06253
0.123419
0.0209457
0.0211442
0.116115
0.0201686
0.0213391
0.0203399
0.0211767
0.0214761
0.0215942
0.0205283
0.0746621
0.0228491
0.155882
0.023917
0.0216167
0.237528
0.0217043
0.586597
0.0216241
0.047541
0.108357
0.148319
0.0328487
0.0760027
2.26415
0.0227666
0.0296369
0.022324
0.0211676
0.0205813
0.020939
0.0669361
0.0334887
0.0235379
0.0648484
0.0205582
0.0215607
0.0328277
0.550687
0.0196687
0.0400125
0.222841
0.108783
0.108104
0.0222623
0.0215006
1.84545
0.0279137
0.020854
0.021124
0.109353
0.020557
0.0206522
1.86468
0.0532324
0.0223852
0.0219781
0.0227828
2.9366
0.0234544
2.50864
1.93339
0.0212218
0.021007
0.721996
0.0300795
0.0257184
0.0221948
0.0288871
0.024486
0.0208241
0.0235471
0.136752
0.0358563
3.06161
0.194269
0.0323847
0.35064
0.771465
0.0212675
0.446798
2.07518
0.0254624
4.72879
0.0216041
0.16144
0.0714355
0.474681
0.027927
0.0922542
0.0277539
0.295162
0.0210538
0.0198756
4.43661
0.0229719
0.0211395
0.0211805
0.0216429
0.0198879
0.0219065
0.0209841
0.0211686
3.98173
1.59524
0.0210862
0.0218881
0.201862
0.3575
0.0197099
0.162348
0.158839
0.0419969
0.0213669
0.0209775
2.0602
0.021669
0.047657
0.0778784
0.0206592
0.025198
3.78437
0.0208521
0.273418
1.57028
2.52525
0.0218584
0.0208666
0.0212912
0.021423
0.0211933
0.220111
0.223195
0.0202767
0.0506636
0.359606
0.0224731
0.0215236
0.0211964
0.345822
2.03276
0.0781367
0.0362382
0.0228429
3.7325
0.315535
0.0205825
0.0210642
0.0252764
0.0326194
2.18963
0.269523
0.0208016
0.0892108
0.325593
0.0227749
0.0208658
0.0215408
0.0232998
0.0210131
0.0219514
0.0206407
0.0461927
0.184893
0.0213354
0.0215138
0.0301686
0.0206703
0.0210763
0.0226454
0.104189
0.0206016
0.0239426
2.01793
0.139925
0.067658
0.0765397
0.0225627
0.0222093
0.0223023
0.0204822
0.0210735
0.0219237
0.260094
0.0384334
0.0221274
0.0269889
0.0205522
0.122449
0.327912
0.0211992
0.303287
0.0207917
0.0224716
0.154567
2.51426
0.0238711
0.0231689
0.0233456
0.0430498
0.0197198
0.311141
2.37685
0.0206306
0.0706933
0.200562
0.0213368
0.0222815
0.102994
0.0634929
0.0215571
0.344836
0.0238789
0.0211777
0.770857
0.253682
0.0914781
0.0208758
1.53229
0.0310329
0.0198544
0.0441038
0.0276616
0.0230358
0.0677109
0.502942
0.356455
0.0397909
0.0854514
0.0206151
1.08786
0.212768
0.15641
0.20043
0.0213383
0.817784
0.021339
0.0210197
0.0422438
0.0219747
0.138381
0.137901
0.0215822
3.40231
1.46051
2.39566
0.026784
0.0593438
0.0196726
0.0225438
0.0229971
0.0196484
0.179318
1.16629
3.93315
0.0799931
0.0964556
0.365422
2.52974
0.0211873
0.0233503
2.06976
0.054628
0.0213415
0.0211302
0.62237
0.0317626
0.0255106
0.0212348
0.0214753
0.161737
0.0211342
0.0725524
0.180327
0.019881
4.59992
0.0201634
2.01588
0.182528
1.3059
0.0224299
0.554318
0.0228267
0.0210687
0.022151
1.96744
0.0328772
0.46768
0.0213533
0.0211264
0.0985262
1.31388
0.0215756
0.114944
0.196916
2.38919
1.38581
0.0208568
0.0213627
0.283058
0.0196638
0.020224
0.0237366
0.0212096
0.021676
0.0208278
0.0211203
0.0236346
0.021167
0.0283703
0.028144
0.0214135
2.56346
1.99175
0.0243082
0.0202946
0.0212843
0.0328644
0.0213486
0.0212396
0.0213374
0.105361
0.0211235
0.0230375
0.0228505
0.0432484
0.373295
0.0209057
0.0616018
0.0758848
0.0253887
0.0623531
0.0446438
0.0207687
0.0211884
0.0668259
0.0497872
0.0230177
0.706043
0.330955
0.0212901
0.671199
0.0219918
0.0598716
0.647009
0.823086
2.90874
0.0228531
0.0210732
1.03741
0.0230676
0.710629
0.0266675
0.553969
2.04419
0.0211906
0.0387471
0.0210647
0.0493797
0.0754189
2.7369
0.0209963
0.0213356
0.0777823
0.0216689
0.788879
0.0211383
0.32003
1.2502
0.0411089
0.654413
1.92363
0.0208053
0.0208925
0.021337
0.342625
0.238454
0.0217559
0.02257
0.0217826
0.0203035
0.0258619
0.0208291
0.0204223
0.120639
0.0217094
0.0203954
0.0238625
2.31084
1.29315
2.56261
0.0215259
0.0548545
0.0238607
0.0247264
0.115372
0.720373
1.95372
0.0204639
0.0416828
0.0197066
0.0332108
0.0282644
0.0502669
0.550427
0.022218
0.0733903
0.0203603
0.188763
0.190233
0.0204249
0.0223138
0.0224742
0.0225394
2.46224
0.0213162
0.0213518
0.0219395
0.0216768
0.0203842
0.0223411
0.0212949
0.0217133
0.0213445
0.0211086
0.571646
0.444486
0.920125
0.0200715
0.0197175
0.019781
0.0201216
0.0199002
0.0333089
0.0198342
0.0206167
0.0212454
0.0208524
0.0279317
0.0212542
1.00805
1.97775
0.0376887
1.93701
0.0215236
0.236877
0.0381683
0.225775
0.0209816
0.772197
0.0220364
0.0213424
0.0213552
0.0579515
0.0867222
0.0209129
0.0514068
0.0277183
0.0211635
0.0729618
0.354182
0.0293123
0.0208904
0.0231014
0.193389
0.0225606
1.12962
0.0209196
0.0220497
0.0213419
0.0248681
0.0299177
0.308305
0.0307968
0.0204266
1.29408
0.0249705
0.0275327
0.021058
0.024051
4.4173
0.021255
0.0217368
0.0266983
0.148983
0.0198606
0.0210144
0.0205352
0.0300885
0.0215656
0.544261
0.0213572
0.0247937
0.0270084
3.91423
0.0206512
0.0204402
0.0197172
0.0288151
0.0202902
1.86728
0.444134
0.0292878
0.307659
0.0212742
0.874869
0.0213875
0.0205866
0.0591994
0.0485168
0.145163
0.272394
0.230644
0.214532
0.0271335
0.032828
0.0221979
0.0449179
0.0213493
0.0223552
0.176676
0.0216564
0.358318
0.242933
0.220136
0.315196
0.288809
0.668118
0.532274
0.0771904
0.0228652
0.059395
0.0213464
0.0204407
0.0210329
3.30388
2.86081
0.380051
0.024456
0.0234355
0.349521
0.0209312
0.0549008
0.0204311
0.0336041
0.0211995
0.0199228
0.0230233
0.0396577
0.599672
0.0289564
0.0268952
0.0204998
0.0424866
0.18922
0.0203936
0.0523036
0.386248
0.019658
0.0591326
0.0205725
1.99475
0.0224607
0.687193
0.0218351
0.0214969
0.0254796
0.0543757
2.34876
0.0248589
0.16811
0.0224982
0.0213345
0.0213531
0.0215122
0.0204162
0.0213016
2.35939
4.50341
0.0295564
0.0212849
0.0252632
0.0232337
0.0215632
0.0213593
0.0787754
0.381645
0.14262
0.0212022
0.349935
0.0205648
0.0630479
0.0224665
0.038603
0.202616
0.27507
0.109825
0.0199506
0.0213023
0.0209461
0.0211511
0.0213435
0.0211307
2.41467
0.02154
0.0218235
0.0218136
0.0333968
0.021131
2.25874
4.05472
0.302038
0.0213604
0.235151
0.0204034
0.189196
0.159178
0.0224065
0.3014
0.0235012
0.0632686
0.0207422
0.0219949
0.0270979
0.0429556
0.0940218
0.545238
0.132345
0.130305
0.0333448
0.0220735
0.0211897
0.647253
0.0230491
0.836517
0.0220207
3.43083
1.26275
0.36075
0.0222383
0.0947934
0.0233001
0.0209177
0.0202
0.0226903
0.0651692
0.0212407
0.266996
0.0508121
0.0980908
0.0210862
0.0251044
0.225476
0.24905
0.12695
0.0241638
0.0260885
2.05072
0.080214
0.0216946
0.0420458
0.103727
0.0626054
1.03583
0.0246264
0.0256605
0.177656
0.0198969
0.279541
0.0479033
0.0213323
0.249043
0.398558
2.39375
0.0262131
0.110957
0.0602119
0.0204388
0.048711
0.0219438
0.177802
0.0206647
2.06679
2.17803
0.736355
0.168284
0.107724
1.40364
0.0237085
0.0314745
0.12508
3.39807
0.0223764
0.021885
0.0210186
0.0254332
0.0199369
0.021053
1.35269
0.0210429
0.0206233
0.0281929
0.0219371
0.0198342
0.0258301
1.05647
0.0622661
0.0214905
0.0213511
0.0273957
0.0222868
0.0210433
0.0209492
0.0204145
0.801986
0.0246628
0.0595677
0.0256924
0.021204
0.0199058
0.197912
0.132009
0.0852532
0.0271595
0.0216435
0.0328018
0.0209414
0.0266394
0.0992299
1.90613
0.0340866
0.0230574
0.0203952
0.0264494
0.41151
0.323587
0.395141
0.0243574
0.0204923
0.0206005
0.0239419
0.0698365
3.76496
0.0205247
0.34651
0.019902
0.0209914
0.0773651
0.0208575
0.811486
0.0805096
0.365388
0.019839
0.033134
0.0389147
3.03486
0.0204498
0.0216068
0.14468
0.534155
1.57123
0.478819
1.99596
0.022256
0.17972
0.0244655
0.0342371
3.20393
0.0235886
0.0209341
0.0215428
0.0201124
0.13735
3.69591
0.0240183
3.03958
0.0201797
0.0209447
0.0214983
0.110137
0.0308003
3.01604
0.0213905
0.021845
0.0305841
0.352724
0.0203931
0.387867
0.0208465
0.0223706
2.02953
0.0208643
0.46322
0.798578
0.441477
1.62082
0.0220182
0.0232572
0.024762
2.07084
0.045913
0.0213718
2.87414
0.225784
0.0196499
0.0224539
1.3307
0.0204486
2.14349
2.03625
0.0241819
0.0197256
0.0235794
0.0248654
3.85112
0.0205761
0.0318797
0.0223115
0.35151
2.7429
0.0212284
0.0202535
0.142262
0.0250313
0.0214824
0.0210247
0.0208896
0.0499433
0.0227498
0.0989217
0.0218725
0.0218605
0.0209832
0.0224685
0.0234532
0.0226734
0.778549
0.131777
0.327432
0.0217616
0.0203807
0.242323
0.025798
0.0649782
1.19084
0.106601
0.319465
2.02718
0.0203408
0.270854
0.122703
0.0221824
0.020829
0.0213938
0.0213781
2.21642
0.253567
0.0213525
4.69255
0.664416
4.52081
0.0197743
0.0206102
0.350911
0.0208944
0.0214603
0.0239526
0.0210242
0.203043
0.022694
3.1647
0.398673
0.0209532
1.47569
0.0610311
0.338889
1.99512
0.0212794
0.0236828
0.0315837
0.497715
1.33287
0.178477
0.0217131
0.0213951
0.0790297
0.0204488
0.289223
0.835293
0.0209299
0.145538
0.020451
2.02348
0.0220766
0.267764
0.0221093
2.07968
0.182243
2.08709
2.65452
0.0200963
0.167204
3.81388
0.0218264
2.85334
0.0217544
0.0199915
0.0211957
0.0257365
0.0233844
0.0215167
0.0209825
0.0640825
0.0391443
0.0419829
4.61423
0.0514371
0.0275202
0.0221015
0.0529657
0.0202306
0.104809
0.317013
1.84988
0.123606
0.0225647
0.0231969
0.0221951
0.0256963
0.0226752
0.0210689
2.20842
0.98614
4.13858
0.0248209
0.0215285
0.0413795
1.89947
0.0219745
0.0204261
0.0223434
0.0224402
0.0382235
0.0212501
0.332389
0.0216857
2.83224
0.0205975
0.216476
0.693751
1.16164
0.0200818
0.101993
0.021351
0.0204734
0.0637866
0.844905
0.0209999
0.0220068
2.07246
0.0212855
0.0520119
0.466158
0.0257339
0.747015
0.0214417
1.5763
0.0275209
0.275692
0.0203703
0.0205162
1.53031
0.0208192
0.283196
0.0237229
0.0274801
2.67629
0.0222116
0.021394
0.0220332
0.0210328
1.61043
2.48852
0.020466
0.333066
0.0295755
1.17255
0.0212016
0.072693
0.255202
0.025656
0.0276778
0.0213614
4.61804
0.020022
2.34846
0.0203579
0.020754
0.0232541
0.0215505
0.0206742
0.0567757
0.0229011
0.0210075
0.256875
0.0205172
0.040847
0.0248163
0.229594
0.0472864
0.0210862
0.0302703
0.0209727
0.0209488
0.0235399
2.00851
0.0396586
0.262745
0.306279
0.0204034
0.0211157
0.0212405
0.020903
0.0202886
0.279033
0.0198548
0.0235636
0.189688
0.0220868
0.193941
0.0214782
0.0204105
3.76314
1.84633
0.0215662
0.0464763
0.0240004
1.45053
0.0210536
0.0225695
0.700874
0.0215858
0.0379096
0.148986
0.0220245
0.0220875
0.432609
0.0238056
0.0504906
0.253773
1.50391
0.0231093
0.0230224
0.0322906
0.505085
0.0218362
0.83564
0.731542
1.64584
2.25507
0.0205148
0.0213653
0.0211604
0.254436
0.496878
0.273337
2.12695
0.0200659
0.107578
0.0205553
4.68711
0.0211886
0.0349379
0.0931652
0.0220747
0.0219398
0.116418
0.0244641
0.0217134
0.0219159
0.0563519
0.0229383
0.0209239
0.0957937
0.0217712
0.0217662
0.0210988
1.1576
0.0455176
0.305036
0.0267979
0.0227891
2.14703
0.0242042
0.0796041
0.0204561
0.0211711
3.89109
1.95827
0.533017
0.0220458
0.0235955
4.6155
0.0817998
0.0857558
0.0581528
0.360166
0.650384
0.0203875
0.610943
0.0207633
0.0608119
0.0600385
0.10524
0.105616
0.022191
3.15636
0.0620764
0.151431
0.0393438
0.0210529
0.0213383
0.0213143
0.159494
0.0205207
0.391642
0.0640464
0.188338
0.0202964
4.93705
3.63333
0.298967
0.315105
0.0221276
0.0216686
0.0210705
0.0256235
0.0213754
0.0246268
4.49109
0.0210027
0.0222116
2.02623
0.298507
0.190787
0.0248832
0.0288768
0.02078
2.35699
0.0222491
3.66281
0.0393669
0.0644416
0.0284658
0.10496
0.945884
0.0212764
0.0211813
2.46721
0.0458958
0.44611
0.132691
0.0425301
0.020862
0.0651375
0.0214166
0.0682516
0.0213808
0.0225008
0.327086
0.0219832
0.104975
0.0205576
3.90843
1.16884
0.024721
0.0275315
3.01551
0.0260109
0.0203477
2.52518
3.61124
2.21469
0.0208912
0.021758
0.917163
3.07081
3.24244
0.0214867
0.0228012
0.0215736
0.0250677
0.0217178
0.020669
0.881242
0.0209335
2.97145
0.0232081
0.0891024
0.0200801
2.36487
0.132005
0.10481
0.318349
0.510547
0.0206343
0.0681062
2.24033
0.0208488
0.021679
0.0213176
2.56995
2.2742
0.0214764
2.0158
0.0351795
0.0212357
3.10916
0.0226859
0.061125
2.44062
3.42852
0.0210254
2.41374
0.0229492
0.0203605
1.96023
0.0394374
0.112079
0.462735
0.0483267
3.32355
0.411425
0.025537
0.667957
3.0942
2.00499
0.0220348
0.0200454
0.0211128
0.0224149
0.237075
1.41626
2.86221
1.82126
0.0243083
0.0200317
0.0207935
0.0234974
0.292377
0.0211972
0.14446
0.253811
0.0203929
0.0221772
1.98643
0.0553502
0.866122
0.252819
0.0213283
2.13175
0.108315
1.20113
0.0224148
0.0240624
0.0354695
0.0213255
0.0226343
0.0996009
0.0236733
0.0482243
2.13542
0.0220258
0.0874548
0.652268
0.0466666
0.0373285
0.260815
0.207542
2.23345
0.0213571
0.687192
4.05043
0.0398667
0.0220357
0.0205324
0.0217341
0.0218255
1.17203
0.022416
2.03598
0.0224385
0.0212366
1.83063
0.190934
0.0203359
0.0211234
0.348738
0.391029
0.0213796
0.0207673
0.0245828
0.0248719
0.163354
0.0606673
0.0205598
0.0993102
0.0220055
0.11933
0.0411267
0.163012
0.0212596
0.0492261
1.97809
0.171339
0.0219904
0.155057
0.238983
0.251455
0.0202756
0.0224349
2.15788
0.127851
0.0594185
2.89776
0.0214209
0.059661
0.0226498
0.0497603
0.0655686
0.79791
0.118923
0.0248652
0.0207914
0.0321827
0.117053
0.0213431
0.0328624
0.306061
0.0656974
0.020671
2.73031
1.73025
0.0633225
0.0224871
0.021542
0.0215141
0.0242361
0.0361531
1.03655
0.0993166
0.0207377
0.0212898
0.243677
0.22571
0.0214417
0.310455
0.446035
0.0225855
2.22136
3.16486
0.0204386
3.52936
0.742776
2.98306
2.49242
0.0207608
0.101008
0.109743
0.0220459
0.0237862
0.414147
0.135491
3.27345
0.0292611
0.0212906
0.0245257
1.73829
0.02613
0.30072
0.0197588
0.0216678
2.82543
0.153258
0.0323731
0.110026
0.0580064
0.0228285
1.55968
0.739952
0.176987
0.399527
0.0549967
0.0598415
0.0213163
0.021307
0.0568834
0.278701
2.36109
0.271006
0.10149
0.296355
0.269481
0.0284211
0.0209667
0.0217525
0.0650847
1.11131
0.0205426
0.0591908
0.521805
0.0989783
0.260001
0.0809744
2.84664
0.0217331
0.0226972
0.33223
0.0310679
0.0217709
0.0223051
0.235527
0.0311947
0.0579713
0.0204304
0.0212991
0.174308
0.134148
0.0222818
0.597944
0.264006
0.0728395
0.0223361
0.404389
0.0210432
2.42877
0.0899903
3.21085
0.0215313
0.147038
0.020065
0.0212983
0.745674
0.296973
0.0876773
0.0204145
0.183133
0.458576
1.1433
0.950769
0.0386695
0.0223232
0.266621
0.15782
0.0212188
0.0209443
0.242008
0.703964
0.255819
0.0252761
3.47179
0.0203981
0.0217714
0.0852913
0.0634711
0.0211757
0.300131
0.0214262
0.0215164
0.0220544
0.0222382
0.212773
0.24056
0.0196411
0.0792463
0.0208882
0.0322088
0.373334
0.0218837
0.292082
3.52873
0.188948
0.192844
0.0214696
2.69681
0.0224461
0.123818
0.020749
0.116077
0.0360444
0.0245064
0.0214657
0.0996836
0.0582088
0.151774
0.409472
0.0217928
0.0203256
0.320067
0.117566
0.0305772
1.30882
0.0238027
3.60141
0.0214703
0.164099
0.108199
0.365798
0.0202671
0.427258
0.0508438
0.127051
0.0224596
0.0238062
0.0240563
0.0235796
0.0240338
0.0238321
0.0237641
0.0210456
0.0850456
3.10136
0.525671
0.0243753
0.0212022
2.07965
0.969032
0.0211979
0.0600952
0.0236526
0.022962
0.228042
0.125818
0.0203163
4.11042
0.0216781
0.286993
0.158703
0.140154
0.0235658
0.0218581
0.0232178
0.0205072
0.0225368
0.24183
0.272545
0.0309192
0.0893485
0.134226
0.0213553
0.0431231
1.21963
0.0215033
0.0240312
0.166269
0.0238401
0.0537815
0.0238252
0.0238615
0.0462803
0.255506
0.0863489
3.29499
0.0246894
0.181892
0.06197
0.406756
0.06199
0.0265404
0.0210551
0.0241158
0.128981
0.334789
0.654359
0.0209732
2.15437
0.0768113
0.256926
0.114327
0.135432
3.05147
3.51654
0.0197562
0.0859358
0.0237423
0.157152
0.208744
0.160362
0.021117
0.106222
0.0484036
0.105472
0.0210386
0.509532
0.0234805
0.134021
0.0236755
0.0982599
0.147548
0.0248003
0.0208469
0.0217188
2.80072
0.0207686
0.269771
0.057675
0.20902
0.0272629
0.329963
0.064782
0.0212092
0.0207445
2.69001
0.023204
0.0208498
0.021144
0.311898
4.56249
0.0977697
0.0213891
0.0363333
0.166508
0.279475
0.0428455
0.0209551
0.0628043
0.25543
0.0259561
0.0233169
0.0208061
2.3824
0.0205503
3.58308
0.279116
0.0406856
0.0929111
0.0431196
0.020474
0.0225991
0.278689
0.0231701
0.0254342
0.0210926
0.0214822
0.591841
0.122293
0.0367861
0.0205174
3.83728
0.0624992
0.224293
0.0212067
0.029369
0.0242268
0.120785
0.0212479
0.0516339
0.305484
0.0828806
0.0243101
0.0208209
0.0258479
0.0256993
0.0449461
0.0203467
0.0222131
0.0215481
0.0215021
2.87725
2.12349
0.2551
0.0389689
0.0220092
0.01967
0.262467
0.736522
2.10548
0.0238218
0.0981758
0.0212984
0.0217339
0.0693392
0.020734
1.76298
0.0217486
2.84852
0.0202604
2.35652
0.0214431
0.278306
0.22376
0.0349448
0.145143
0.0196678
0.968098
0.0205203
0.100415
1.2402
0.142213
0.0206203
0.0784112
0.0994138
0.0661402
0.0894392
0.0272722
0.097275
0.0200824
0.0348086
0.0204205
0.254797
0.173422
2.0272
3.6659
0.0216935
0.316601
0.0209298
0.0212077
0.14416
0.0201375
0.021024
0.0210849
0.0210105
0.169298
0.022347
0.023064
0.021964
0.0213806
0.0210705
0.0224277
0.0239965
0.0214548
0.0310052
0.0355386
0.0270649
0.072041
0.0230939
0.0567636
0.0799652
0.052851
0.0444869
0.097902
0.178282
0.0526536
1.70415
0.373217
0.25333
0.0205806
0.0208964
0.0234674
0.0199143
0.0929696
0.030353
0.020243
2.5984
1.09435
1.84607
0.0351183
0.0572059
0.0396274
0.0213794
0.4009
0.107185
0.0222729
2.03249
1.92272
0.0215513
0.114278
0.795681
0.19849
0.0609389
0.0594907
0.0476941
0.0207679
0.0198678
0.657328
0.288244
0.710839
0.0233978
0.0211022
1.93175
0.0278358
0.0230174
0.0198358