/*--------------------------------*- C++ -*----------------------------------*\
| =========                 |                                                 |
| \\      /  F ield         | OpenFOAM: The Open Source CFD Toolbox           |
|  \\    /   O peration     | Version:  v2012                                 |
|   \\  /    A nd           | Website:  www.openfoam.com                      |
|    \\/     M anipulation  |                                                 |
\*---------------------------------------------------------------------------*/
FoamFile
{
    version     2.0;
    format      ascii;
    class       volVectorField;
    location    "900";
    object      U_0;
}
// * * * * * * * * * * * * * * * * * * * * * * * * * * * * * * * * * * * * * //

dimensions      [0 1 -1 0 0 0 0];


internalField   nonuniform List<vector> 
18758
(
(1.05463 0.00170927 1.60897e-22)
(0.941875 -0.0202482 -8.97291e-23)
(1.00602 -0.000245211 1.07453e-22)
(1.0562 -0.00183486 -2.30582e-22)
(1.00129 0.011564 -1.192e-21)
(1.00398 0.000528909 3.129e-23)
(1.01532 -0.00488979 -1.87138e-21)
(1.02335 -0.0164761 0)
(1.00129 0.00953245 1.14152e-21)
(0.999808 0.00643264 1.1502e-21)
(0.948011 -0.00182694 2.5791e-22)
(0.836025 -0.198182 -4.53417e-21)
(0.928723 0.037359 -1.54924e-21)
(1.0327 -0.0160281 0)
(1.01479 -0.00455491 0)
(1.01239 -0.00177093 1.20528e-21)
(0.826853 -0.176 4.01709e-22)
(1.00851 0.00527822 3.51751e-23)
(1.0146 -0.00431583 0)
(1.01965 -0.0159997 2.26756e-23)
(1.10809 -0.0697208 -1.19719e-20)
(1.103 -0.176479 1.32232e-20)
(1.00351 0.00038702 0)
(1.00225 0.000351531 -1.9185e-23)
(1.10659 -0.180109 -4.45375e-20)
(1.01739 -0.204809 0)
(0.863742 0.314629 -1.42772e-20)
(0.936774 -0.0400326 0)
(1.01942 -0.10196 7.93153e-21)
(0.926216 -0.0399868 0)
(0.851418 0.255683 -2.26887e-21)
(0.845557 0.265685 -1.99222e-20)
(1.02335 -0.0159566 1.50263e-21)
(1.1056 -0.212182 -1.17858e-20)
(1.0038 0.0148703 0)
(0.920881 -0.0322974 0)
(0.921453 0.0277935 0)
(1.00369 0.0129609 0)
(0.927779 -0.257043 -1.26836e-20)
(1.00812 0.00936822 5.41437e-23)
(0.954554 0.0963982 0)
(0.9955 0.00317584 1.84694e-21)
(0.9585 0.0909597 1.16682e-22)
(1.01816 1.08424e-05 -1.91786e-22)
(1.01074 -0.000509949 -1.16764e-21)
(0.837284 0.280458 1.51733e-22)
(0.996972 0.00203986 -2.91541e-21)
(1.00916 -0.0973869 -3.00446e-21)
(0.117859 0.0334567 -1.24793e-20)
(1.05303 -0.0124386 -3.94787e-22)
(0.940064 0.0034138 -4.41332e-22)
(0.789133 -0.248823 5.28649e-21)
(1.05289 -0.0162037 0)
(1.00758 -0.0158993 -8.79544e-22)
(1.08108 -0.146516 1.8307e-20)
(0.942064 0.0364639 -8.58252e-22)
(1.01041 -0.0144062 1.98181e-22)
(1.0192 -0.0158057 0)
(1.00783 -0.0894877 5.09305e-21)
(1.0096 -0.0137566 -2.54743e-22)
(1.01021 -0.000371474 0)
(1.01823 0.000565087 1.83125e-22)
(0.879348 -0.317802 1.67102e-20)
(0.562964 -0.155406 -8.93526e-21)
(1.00975 -0.000349009 5.40291e-23)
(0.952904 -0.173187 -2.63104e-20)
(1.00963 7.43017e-05 -2.14581e-23)
(1.0032 0.000745349 2.61146e-22)
(0.936587 -0.0340474 0)
(1.0082 0.00536581 -1.8179e-23)
(0.734241 -0.244119 1.06752e-20)
(1.01107 -0.219225 5.65084e-21)
(1.01285 -0.00421838 8.90662e-22)
(1.02226 -0.0143932 -1.23519e-23)
(1.04805 0.0225825 5.03035e-21)
(0.855466 0.254999 4.0003e-21)
(1.00618 -0.108353 0)
(0.809499 -0.130248 0)
(0.999331 0.00823809 -2.77168e-21)
(0.966551 0.0913454 -8.84484e-22)
(1.0605 -0.114753 -1.97981e-20)
(0.925843 -0.257848 -1.0612e-20)
(0.82831 -0.133997 3.09878e-22)
(1.02959 0.00337005 0)
(1.01842 -0.00313532 3.64692e-22)
(1.08073 -0.133843 0)
(1.0514 -0.0229944 -9.39562e-21)
(1.02293 -0.0139938 1.28835e-22)
(0.898012 -0.330034 -2.25687e-20)
(1.08324 -0.131129 -1.57944e-20)
(0.371309 -0.178665 -8.6508e-22)
(1.00977 -0.000396728 -8.88521e-23)
(1.06646 -0.0947601 0)
(0.143807 0.0293538 4.44969e-20)
(1.01277 -0.0039977 0)
(1.01093 0.000557626 -3.10619e-22)
(1.008 0.00738268 9.03383e-23)
(1.03065 -0.0783877 8.12619e-21)
(0.779831 -0.14697 -4.30053e-21)
(1.011 -0.00179221 0)
(0.841821 0.270416 -2.01492e-22)
(1.02564 -0.019788 2.02802e-21)
(1.00321 0.000938113 -2.56376e-22)
(1.01094 0.00054358 2.82553e-22)
(0.966738 -0.179475 -2.56996e-20)
(1.11819 -0.0390214 4.46968e-22)
(1.01226 -0.100285 -3.66627e-21)
(0.421593 -0.185102 2.9448e-20)
(1.09474 -0.271179 -1.14345e-21)
(1.05287 -0.173514 3.47706e-21)
(1.01277 -0.0018198 1.19432e-21)
(0.531331 -0.170698 -4.29568e-21)
(1.00922 -0.00200952 1.15701e-22)
(1.00935 -9.09599e-05 -2.30963e-22)
(1.02542 -0.0209111 1.38315e-21)
(0.862732 -0.0624105 -1.15299e-21)
(1.02836 -0.0760445 1.5531e-21)
(1.00636 -0.0101125 -3.87808e-22)
(0.842682 -0.0883764 4.3564e-21)
(1.02034 -0.00568254 1.68254e-22)
(1.01023 -3.61951e-06 4.25586e-22)
(0.983556 -0.120816 1.91982e-20)
(1.01913 -0.00378373 0)
(1.01658 -0.00149034 1.2139e-22)
(-0.0680279 0.1304 0)
(1.00852 -0.0164872 -8.51964e-22)
(1.0187 -5.22096e-05 -3.32285e-22)
(1.01642 -0.00138575 0)
(1.00826 -0.139707 0)
(-0.0721158 0.146471 8.40272e-21)
(1.01067 -0.0925635 9.23821e-21)
(1.00801 -0.00017122 0)
(1.01785 -0.0248262 5.68713e-22)
(0.683268 -0.160217 1.71605e-20)
(1.00845 0.00972694 -2.83535e-23)
(1.01005 4.3422e-05 0)
(0.758837 0.149319 -2.57094e-21)
(1.02076 -0.00376503 0)
(0.935416 -0.0957568 -4.76575e-22)
(1.05704 -0.113225 4.84439e-22)
(1.00704 -0.00244552 -1.64373e-21)
(0.908173 -0.0195874 0)
(1.04289 -0.0676115 2.01996e-21)
(1.05564 -0.235552 -4.81975e-21)
(-0.0690316 0.136574 0)
(1.06672 -0.0733817 -1.496e-20)
(0.902623 -0.169152 3.75883e-20)
(1.01467 -0.131719 1.97296e-20)
(0.947221 -0.00861141 -1.92267e-22)
(0.858026 -0.202413 -1.41097e-21)
(-0.0355609 0.145197 1.39828e-20)
(-0.0643847 0.142848 4.96568e-20)
(1.0254 -0.00464741 -2.32819e-21)
(1.00773 0.0162295 1.08863e-21)
(0.959038 0.111332 2.47857e-21)
(0.955412 0.281888 0)
(1.06356 -0.093535 0)
(1.00918 -0.143917 1.24587e-20)
(1.03925 0.000482397 0)
(0.93984 -0.0130846 3.03793e-22)
(0.316314 -0.259281 9.68724e-22)
(1.01826 -0.0007996 8.23863e-23)
(0.160318 0.075287 0)
(0.909895 -0.174658 1.97111e-20)
(0.836124 0.268567 -2.58859e-21)
(1.00498 -0.0130006 0)
(1.01817 -0.000956268 -7.81218e-23)
(0.414824 -0.266184 5.16196e-21)
(-0.0659544 0.14701 0)
(0.829557 -0.233743 0)
(-0.0165838 0.133112 -3.4692e-20)
(1.00458 -4.06028e-05 1.2467e-22)
(1.01411 -0.108062 -2.48942e-21)
(0.941796 -0.156895 0)
(1.08991 -0.297238 -7.53357e-21)
(1.01119 -4.85795e-05 6.54101e-22)
(1.01287 -0.00398057 -2.62015e-22)
(1.03153 -0.192868 -4.02166e-20)
(1.10003 -0.208909 -1.20375e-20)
(1.03523 -0.0072558 -1.81027e-21)
(1.00324 0.00104051 -2.34419e-22)
(1.01159 -0.0175222 0)
(1.0779 -0.143918 8.08082e-21)
(1.04018 -0.0110758 0)
(0.762998 -0.229418 7.97172e-22)
(1.0173 -0.00280742 -3.22348e-21)
(0.926556 -0.046364 0)
(1.012 -0.0339973 8.04645e-22)
(0.210132 0.00431999 -6.16861e-20)
(0.896648 0.206748 -3.31087e-22)
(-0.0585383 0.143139 -3.03225e-20)
(1.01711 -0.00287108 3.47837e-23)
(0.96906 -0.0366522 1.13977e-21)
(1.10309 -0.0397228 -4.45106e-21)
(1.00401 0.00204476 1.59206e-22)
(1.03825 -0.0110264 2.17528e-21)
(0.922152 -0.0993669 0)
(1.02495 -0.00444466 -1.72818e-21)
(0.251289 -0.0182464 4.87165e-20)
(1.00138 -3.19828e-06 2.87938e-22)
(1.03221 -0.0185801 0)
(1.00501 -0.149126 1.54584e-22)
(1.12648 0.0478917 -4.77144e-21)
(1.01227 -0.00142007 5.95822e-22)
(1.01288 -0.00196374 0)
(0.205529 0.0520493 1.61899e-20)
(1.01641 0.00366554 -8.37435e-22)
(1.00551 0.0166927 3.71756e-22)
(-0.0505935 0.145361 0)
(-0.0811338 0.146398 1.74686e-20)
(1.00083 -3.91291e-05 -2.43977e-23)
(1.05868 -0.0964677 3.22134e-22)
(1.03482 -0.0189095 0)
(1.01402 0.00186472 -1.28841e-21)
(1.01819 -0.0151653 0)
(1.00786 0.00750598 -1.15124e-22)
(1.01266 -0.000670641 3.78201e-23)
(1.06022 -0.0945212 0)
(1.00443 0.000728118 -5.94862e-23)
(0.92217 0.033201 0)
(1.14071 -0.0848302 -6.20964e-21)
(1.02561 -0.00486741 1.3409e-22)
(1.04066 -0.0661063 -1.04194e-20)
(1.00019 -0.149682 0)
(1.11646 0.0621884 4.45458e-21)
(0.997338 0.0420395 -5.13077e-21)
(1.05561 0.0240502 -5.15141e-21)
(1.0957 -0.127395 0)
(0.332005 -0.259567 -1.08737e-23)
(1.01622 0.00345913 -2.94962e-22)
(1.01111 -0.205062 -1.05021e-20)
(1.06396 -0.072597 0)
(1.10004 -0.283249 -2.3452e-20)
(1.00942 1.18624e-05 -1.15113e-22)
(1.01066 -0.000906184 2.17693e-22)
(1.02668 -0.00425122 1.16945e-22)
(1.00908 0.0382837 -4.78131e-21)
(0.0491776 0.0609874 0)
(0.907856 -0.103222 0)
(1.02199 -0.0124261 2.47392e-21)
(1.01315 -0.00219325 -1.20859e-21)
(1.01238 0.032888 4.43679e-21)
(0.947784 -0.0907617 4.40499e-24)
(1.00264 -0.000199579 3.88654e-22)
(0.855575 -0.213125 0)
(0.945735 -0.159896 -3.47581e-21)
(1.01073 -0.000950979 -4.38685e-22)
(1.0121 0.000669792 2.65904e-22)
(1.00281 -0.0166952 0)
(1.01096 -0.00173809 0)
(-0.00789556 0.128435 1.62075e-20)
(1.01908 -0.000880093 -5.13942e-22)
(1.04295 -0.0190697 1.55045e-22)
(1.02797 -0.00503826 -1.67733e-22)
(1.00349 0.000284679 -7.28837e-23)
(0.898741 -0.127598 0)
(1.00658 -0.0134447 0)
(1.01071 -0.226182 -1.01263e-20)
(1.01337 -0.000871488 0)
(0.949924 -0.306473 -2.1298e-20)
(1.01046 -0.00322938 -5.94875e-23)
(1.01706 -0.00143672 4.14686e-22)
(1.0108 -0.000998421 3.05924e-22)
(0.972518 -0.0345023 -4.29762e-22)
(0.645616 0.131518 -6.57639e-21)
(0.672297 0.165396 1.0475e-20)
(1.01721 -0.00131124 -6.90941e-22)
(0.942296 -0.097678 1.01338e-22)
(1.0258 -0.00451355 2.44862e-21)
(1.00994 -0.0024281 -3.63805e-23)
(0.830645 -0.0677389 -2.62589e-21)
(1.00584 -0.251692 0)
(1.0101 -0.00263195 0)
(1.01633 0.00287427 0)
(1.00879 0.0134222 0)
(1.01783 -0.0148062 0)
(1.02549 -0.028018 -4.16586e-21)
(1.00485 0.000882526 0)
(1.01431 0.00151864 -6.98264e-22)
(1.03199 -0.0161066 -3.91835e-21)
(1.01193 0.000636261 0)
(1.00744 -4.75916e-05 0)
(1.01359 -0.00211044 3.01885e-21)
(0.857427 -0.171763 -3.88894e-20)
(1.0151 -0.00468239 0)
(1.01612 0.00270308 7.57123e-22)
(1.00736 0.00322875 0)
(0.954055 -0.0925407 -5.07994e-22)
(1.01114 0.000657006 0)
(1.01104 0.000596555 -2.15949e-22)
(1.00205 -0.000112809 -4.32967e-22)
(1.0342 -0.00947073 3.9023e-21)
(1.01105 -0.0140905 -9.09473e-23)
(1.00305 -0.000377478 -2.21445e-22)
(1.00157 -0.00015772 -1.05541e-22)
(1.00032 -0.0196958 -2.83183e-22)
(0.988371 0.0622257 3.54862e-21)
(1.00866 -0.000347726 0)
(1.00181 0.000246287 0)
(-0.0524413 0.123297 0)
(1.04054 -0.0221862 0)
(1.00836 -0.000522469 0)
(1.00856 -0.000517178 0)
(0.922181 -0.268496 0)
(0.973166 0.0323044 -2.08927e-22)
(1.00328 0.00117341 3.58136e-22)
(1.04716 -0.0160338 0)
(1.11632 -0.0253876 8.40498e-21)
(1.01798 0.00106633 -1.99911e-22)
(0.950181 0.0443959 -9.89311e-22)
(1.01376 -0.00216491 -2.71848e-21)
(0.751982 0.233651 0)
(0.929886 -0.101937 -2.02405e-24)
(0.971787 -0.0768828 -1.70773e-21)
(1.02345 -0.101513 0)
(1.10611 -0.207659 -8.77066e-22)
(1.00325 0.00120759 0)
(0.916752 -0.293795 -4.91317e-22)
(0.993621 -0.159361 -9.44845e-21)
(1.00958 5.64699e-05 0)
(0.973802 -0.0733498 1.59784e-21)
(1.03535 0.000607082 -1.79969e-21)
(0.851914 -0.190289 4.91726e-22)
(1.0106 -0.0008823 2.27329e-23)
(1.00321 0.00102087 -2.49705e-22)
(-0.0802307 0.146511 0)
(0.941766 -0.0872354 0)
(1.01387 0.00172146 -4.03069e-22)
(-0.0588761 0.118582 -1.11415e-20)
(1.01115 0.0231489 0)
(1.0007 0.0037521 2.00093e-21)
(0.617879 -0.153501 -1.62227e-20)
(1.01057 -0.000814063 2.04498e-23)
(1.00568 -0.0137998 1.80967e-22)
(1.01353 -0.000941211 0)
(1.00978 -9.72452e-05 3.04784e-22)
(1.01289 -0.0108108 -5.55985e-23)
(1.03193 -0.0266605 2.55036e-22)
(1.02375 -0.0167361 -1.87608e-21)
(1.01627 0.00404455 -6.05596e-24)
(1.01319 -0.0106225 8.634e-23)
(1.02282 -0.0123145 -3.33901e-21)
(0.972112 0.276948 3.68349e-21)
(0.92875 -0.268165 0)
(1.02136 -0.00328326 0)
(0.916365 -0.27915 -3.96574e-21)
(0.773038 -0.118116 -7.42799e-21)
(1.01371 0.00163422 -4.94105e-22)
(1.04635 -0.048053 -1.22451e-20)
(0.972493 0.0398868 1.84721e-22)
(1.1136 -0.172275 -1.60645e-20)
(0.944163 -0.0722288 9.20959e-22)
(0.905632 -0.0668828 2.0526e-22)
(1.01724 -0.00255652 0)
(-0.0410123 0.11846 4.27037e-20)
(0.934726 -0.302344 3.12508e-22)
(0.999517 -0.0346715 -1.81939e-21)
(1.02294 -0.012111 3.15357e-21)
(1.00109 0.00664268 1.9836e-21)
(1.01468 0.00166936 1.35759e-21)
(1.01848 -0.000215248 9.14449e-23)
(0.916538 -0.105461 7.41102e-22)
(1.08541 -0.062797 -4.8386e-21)
(0.972491 -0.113887 6.86628e-21)
(1.06976 0.0324437 0)
(1.04505 -0.0123175 -5.78686e-21)
(1.01072 -0.000960795 2.83457e-22)
(1.04241 -0.0291522 -4.72172e-21)
(1.01208 -0.0184623 -2.15125e-22)
(1.02504 -0.0774506 1.67602e-21)
(0.0711578 0.0564332 -3.91837e-20)
(0.871909 -0.069182 0)
(1.06998 -0.263796 1.08619e-20)
(0.936369 0.0416383 0)
(0.942577 0.078795 1.58041e-21)
(0.898374 -0.0626589 -3.80408e-21)
(1.00322 0.000218274 -2.3044e-24)
(1.03321 -0.181067 4.69759e-20)
(1.015 -0.136095 0)
(0.956296 0.0185912 -2.05469e-22)
(0.970925 -0.132994 5.80529e-21)
(1.0104 8.49616e-05 -1.48583e-22)
(1.00234 0.000367628 2.21226e-23)
(1.1064 -0.173504 0)
(0.945432 -0.0994762 -1.01857e-21)
(0.839418 0.0759323 2.76119e-22)
(0.819097 -0.0660973 0)
(-0.066407 0.127532 0)
(1.02241 -0.0125503 -2.96583e-21)
(0.823471 -0.216904 4.87852e-21)
(1.02989 -0.172041 1.59563e-21)
(1.01254 -0.00183925 -1.52197e-23)
(1.03024 -0.0158419 0)
(1.01664 -0.0151061 -9.02764e-23)
(1.01748 0.00553551 0)
(1.0102 -3.24639e-05 -2.64805e-24)
(1.015 0.00162051 0)
(1.01918 -0.00249405 -2.19811e-22)
(1.00593 -5.47662e-05 0)
(1.00313 -0.000272572 0)
(1.00005 -0.0139724 -5.97124e-22)
(1.0128 -0.0157047 -3.79034e-23)
(0.933803 -0.26649 9.55093e-21)
(1.05233 -0.0349447 0)
(0.818999 0.241845 0)
(0.819334 0.24958 -4.61291e-21)
(-0.0270582 0.142758 1.61746e-20)
(0.942019 -0.267195 -7.84291e-21)
(1.0007 -0.127447 0)
(1.00071 -0.0181862 1.50866e-22)
(1.0024 0.000356971 -1.65177e-22)
(0.95586 0.0960516 -8.25602e-23)
(1.02963 -0.0159115 -3.21714e-21)
(1.02146 -0.0126145 5.71113e-23)
(0.766986 0.0187167 -1.54128e-20)
(1.02275 -0.0749817 -1.5329e-21)
(0.983586 -0.0893901 -6.34548e-22)
(1.00731 -0.0141506 -3.43655e-22)
(0.961149 0.286265 -1.28503e-21)
(1.01071 -0.000476759 -6.46966e-22)
(1.04042 -0.0230394 0)
(1.00351 0.00161382 2.40761e-22)
(0.373783 -0.059252 -5.48487e-20)
(0.705623 0.198647 0)
(0.912685 -0.0541046 7.19659e-21)
(1.00171 -0.000173983 1.04129e-22)
(0.566535 -0.144084 0)
(1.07162 -0.0909952 1.32597e-20)
(1.01355 -0.00073889 0)
(1.01868 0.00631164 0)
(1.0007 -4.76602e-06 0)
(1.0669 -0.240474 -1.2894e-21)
(1.00091 -8.12118e-05 -3.16876e-22)
(1.00325 -0.000402218 0)
(0.821081 0.271728 -1.22526e-21)
(1.05389 -0.0352599 3.76044e-21)
(1.02181 -0.012736 0)
(1.01277 -0.00374849 2.5218e-22)
(1.02226 -0.0156516 2.7008e-21)
(1.02124 -0.0184798 3.07416e-21)
(0.482505 -0.19465 -3.62652e-22)
(0.975882 -0.0940163 1.5952e-21)
(1.00145 9.07906e-05 6.37986e-24)
(0.990512 -0.176672 1.03041e-20)
(1.00358 0.0017327 0)
(1.03383 -0.0281229 -7.29607e-23)
(1.09627 -0.124387 1.84239e-20)
(1.01592 -0.000382765 0)
(0.842571 0.269636 0)
(1.00137 0.000110504 -1.39668e-23)
(1.02074 -0.018373 -3.24938e-21)
(1.00559 -0.000210522 0)
(0.881236 -0.0630845 -1.117e-20)
(0.997772 -0.0215718 0)
(1.01888 -0.00249502 1.01256e-21)
(3.98056e-05 0.0845171 -1.35272e-20)
(0.96717 0.0290277 1.04719e-21)
(1.0075 0.00371634 -6.95853e-24)
(1.04128 -0.0287458 4.75017e-21)
(1.01312 0.00755774 0)
(1.01235 -0.00155414 -6.27754e-22)
(1.0067 -0.000523433 2.29437e-22)
(1.01285 -0.000539913 0)
(0.658094 0.10626 0)
(0.167891 -0.115074 3.57304e-21)
(1.02598 -0.00733829 2.12325e-21)
(1.02305 -0.0471541 -4.86331e-22)
(1.01839 0.0111709 1.81462e-20)
(1.02932 -0.188319 2.67681e-20)
(0.954356 -0.106071 1.54081e-21)
(0.939848 -0.153513 3.14578e-21)
(0.957891 -0.103016 -1.08937e-21)
(1.00545 -0.0083966 -2.36488e-22)
(1.00207 -0.12186 7.81659e-21)
(1.00838 0.0271936 -4.85045e-21)
(1.01885 -0.0114035 6.03792e-22)
(1.02295 -0.0156969 -1.65029e-21)
(0.928032 0.0296785 0)
(0.995222 -0.0337965 -1.49382e-22)
(1.00608 -0.000336688 -2.8105e-21)
(1.00869 -0.000698078 0)
(1.01529 -0.00497793 4.27407e-21)
(1.01145 0.000824851 -6.68267e-22)
(1.01576 -0.000374437 0)
(1.01148 0.000805386 7.66838e-23)
(1.01545 -0.000154811 -2.22719e-21)
(0.956689 0.075128 -6.62015e-22)
(1.00717 -7.68992e-05 -2.14334e-22)
(1.00382 0.00175622 -1.70432e-22)
(1.0767 -0.0885256 0)
(1.00802 -0.000144206 0)
(1.00497 -0.000210561 2.38237e-22)
(1.00744 0.00893183 -3.20967e-22)
(1.01295 0.00681336 1.11178e-21)
(0.992662 -0.0285539 -9.0441e-23)
(1.08314 -0.105929 -1.33296e-21)
(1.01615 0.00381955 -6.65986e-22)
(0.942939 0.0113278 0)
(1.00443 0.000368589 -7.03814e-24)
(1.04983 -0.0363472 1.32309e-20)
(1.04818 -0.145057 -6.8039e-21)
(0.119875 -0.0718275 -4.20507e-21)
(0.927056 0.0363479 -8.11293e-21)
(1.01286 -0.000815682 0)
(1.01747 -0.00249416 8.27768e-22)
(0.152502 -0.101431 -4.70308e-21)
(0.630961 -0.150668 1.96088e-20)
(1.04009 -0.0531209 -3.11917e-22)
(1.00889 -0.0142787 -5.38519e-24)
(0.955588 -0.105098 -6.83497e-23)
(0.851802 -0.165215 -4.3921e-20)
(1.00758 0.00345427 0)
(1.00502 0.000504275 0)
(0.402456 -0.285842 -2.47229e-21)
(1.01867 -0.0151425 2.09152e-22)
(1.05394 -0.116107 2.09895e-20)
(1.03522 -0.0537984 7.46545e-22)
(1.01871 0.00798465 0)
(1.02129 -0.0462116 4.89475e-22)
(1.01221 0.000735279 -2.68633e-22)
(1.0112 7.14774e-05 1.5025e-22)
(1.0103 -0.000422265 -4.39604e-22)
(1.00212 0.000224909 -1.47258e-22)
(1.0164 0.00325783 -1.28874e-22)
(1.01042 -0.000477071 1.44985e-21)
(0.746806 -0.0126725 -4.57229e-21)
(1.00305 0.000264722 2.90636e-22)
(0.972123 -0.0778904 -2.07956e-21)
(1.01938 -0.0349794 0)
(1.0077 0.00397752 0)
(1.00306 0.000342903 0)
(1.00576 -4.94336e-05 -1.38876e-22)
(1.03366 -0.0296567 2.88024e-21)
(1.01866 -0.0249961 -1.67172e-21)
(0.979551 -0.102053 -1.86332e-21)
(1.01103 -0.00200066 9.22106e-23)
(0.902324 0.194094 5.56761e-22)
(1.01462 -0.0190464 -8.53473e-22)
(1.01974 -0.0117468 -4.38279e-22)
(1.01847 0.00020334 0)
(1.00072 -0.0129244 -4.05259e-26)
(1.00246 -0.0180779 0)
(1.02562 -0.00826673 0)
(1.02556 -0.00791452 -1.52741e-21)
(-0.0186472 0.0766539 -2.35247e-20)
(0.754182 -0.242442 -1.32255e-22)
(1.01184 0.000576073 -1.31345e-22)
(1.01618 0.00305947 1.34759e-22)
(1.03348 -0.00901655 0)
(0.388713 -0.255696 1.65013e-21)
(1.00347 0.00161662 -2.29773e-22)
(1.0081 0.00793368 -6.85978e-23)
(1.0154 -0.000172009 -1.42918e-22)
(1.00373 0.00169427 0)
(1.01605 0.00237805 0)
(1.0184 0.00012463 0)
(1.01607 -0.0138493 -2.36969e-22)
(1.0123 -0.00162921 0)
(1.00338 -0.0903728 -5.59475e-21)
(1.01108 -0.00204853 -2.24067e-22)
(1.00841 0.0100677 -2.74851e-23)
(0.963568 0.0268271 -5.92474e-21)
(0.107632 -0.0556739 -3.10948e-21)
(1.00703 0.00317696 1.29992e-21)
(1.01879 -0.000314042 3.58061e-22)
(1.01092 -0.00105685 -2.92308e-22)
(1.00401 -0.00016965 2.11693e-22)
(1.01304 -0.00348277 0)
(1.02116 -0.00482952 -3.8328e-22)
(1.00542 -0.0589752 -1.23788e-21)
(0.950134 0.0455299 1.98723e-22)
(1.03474 -0.0083741 7.79611e-21)
(1.10231 -0.12667 -7.41428e-21)
(1.01093 -0.000914278 1.00294e-22)
(1.04705 -0.0499968 2.09215e-20)
(1.01856 7.5651e-05 -8.78057e-23)
(1.00127 5.94767e-05 -2.20107e-22)
(1.06209 -0.0750727 1.65729e-20)
(1.00793 0.00523056 -2.17949e-23)
(1.00201 0.000212047 1.59053e-22)
(0.854352 -0.25245 -2.12695e-20)
(1.0063 -0.000221072 -4.06941e-22)
(1.03829 -0.0118436 1.2914e-21)
(1.07302 0.0241465 0)
(1.00839 -0.000421213 -1.13453e-22)
(1.01627 -0.00352762 1.35609e-21)
(0.32249 -0.0372862 3.32204e-20)
(1.00584 -0.009605 0)
(0.963454 0.0882688 -8.55834e-22)
(0.991669 0.0261224 3.35868e-23)
(1.00437 -0.000456728 1.30305e-22)
(1.00541 -0.000228162 0)
(1.02907 0.000312763 -1.82086e-24)
(1.0214 -0.0159697 -2.27955e-21)
(1.01756 -0.0256164 4.0548e-22)
(1.01117 -6.38494e-05 0)
(0.94873 -0.306606 0)
(1.0839 -0.169254 0)
(0.97257 -0.0926448 3.1864e-21)
(1.01228 0.000851621 -1.44878e-22)
(-0.0416503 0.125666 -1.79568e-20)
(1.00401 0.00170049 1.70008e-22)
(1.00074 -2.79346e-05 -1.70185e-22)
(1.01133 -0.00246908 3.56614e-22)
(1.04638 -0.02353 -5.44885e-22)
(0.858571 0.232471 -1.03402e-22)
(0.943237 0.0200539 0)
(1.03054 -0.00192604 1.15189e-22)
(1.03904 -0.0106551 7.04485e-21)
(1.01924 -0.00506875 0)
(0.883551 0.196136 -9.57165e-21)
(0.956001 -0.0944741 2.85919e-21)
(1.01121 -0.00107695 -7.38961e-22)
(1.05313 -0.0167288 1.64699e-22)
(1.03821 -0.0235787 -1.30166e-20)
(0.0190845 0.0796342 2.84992e-20)
(1.01888 -0.0254387 -1.64358e-21)
(0.992027 0.0102574 1.64857e-21)
(1.01312 0.00167862 -2.11175e-22)
(1.04471 -0.0266511 0)
(1.01726 -0.0732286 -5.89689e-21)
(1.00466 -0.000500637 -1.36737e-22)
(1.01329 0.00175753 -6.85706e-22)
(1.0034 0.00147209 -1.40592e-22)
(1.01325 0.00128924 6.24299e-22)
(1.02196 -0.0251315 -4.2277e-21)
(0.982423 -0.0792443 0)
(1.03852 -0.0228526 -2.56816e-22)
(0.818309 -0.226003 -1.89807e-20)
(0.993877 0.0143969 -1.4949e-21)
(1.01174 0.00897014 0)
(1.01127 -0.0024464 -3.2275e-22)
(1.01196 0.000421193 0)
(0.957115 -0.0831635 2.22077e-21)
(1.11093 -0.174672 0)
(1.00775 0.00933212 1.9617e-22)
(1.03575 -0.0663427 3.26948e-21)
(-0.0718641 0.144638 -3.87211e-20)
(-0.0252527 0.0837158 -1.6785e-20)
(1.00043 -7.41483e-06 0)
(1.00192 0.000175291 0)
(1.03329 0.00400447 2.01694e-21)
(0.943159 -0.0948257 -2.63307e-21)
(1.00415 0.00177823 0)
(0.979289 0.0411501 -5.49474e-22)
(1.01076 -0.00185141 3.63345e-22)
(1.00613 4.60422e-05 5.96547e-23)
(1.04602 -0.0407151 0)
(1.01351 -0.000695009 -2.75806e-21)
(1.02602 -0.00770399 -6.0458e-22)
(1.01746 0.000773995 1.82327e-22)
(1.01162 0.000709399 -2.89075e-22)
(1.01773 0.00417584 0)
(0.984499 -0.0867539 0)
(1.05922 -0.0741551 -4.12654e-22)
(0.796939 0.10243 -3.38244e-21)
(1.01375 0.00208469 6.60572e-22)
(1.01626 0.00254589 -6.01247e-22)
(0.852167 -0.0815638 -2.54399e-21)
(1.008 0.0080967 7.13272e-23)
(0.831617 -0.0837729 -1.39453e-20)
(0.748323 0.0158302 1.11636e-20)
(1.0107 -0.00171162 -2.77725e-22)
(0.745064 0.112602 6.51457e-21)
(1.01542 0.00186208 -2.05951e-22)
(1.01886 -0.000608472 1.8773e-22)
(0.788831 0.128248 -9.1386e-21)
(0.952362 -0.126982 0)
(0.939003 -0.128443 0)
(0.640276 0.108172 3.58297e-21)
(1.02142 -0.0156198 2.43096e-21)
(0.820469 0.252326 4.71986e-21)
(1.00303 6.94628e-05 6.3575e-23)
(1.0778 -0.185207 0)
(-0.0252231 0.139289 5.02214e-21)
(0.999537 -0.0314679 2.57749e-21)
(1.02929 -0.00438619 -8.74223e-23)
(0.842096 -0.239489 3.95997e-21)
(1.03765 -0.0225111 -2.60813e-21)
(1.05904 -0.0237825 0)
(1.02894 -0.173221 -5.80205e-22)
(0.697762 -0.156124 0)
(1.02406 -0.00453283 -3.22032e-21)
(0.749149 -0.106047 -1.55289e-20)
(1.00123 -1.98374e-05 -2.38495e-22)
(1.03279 -0.0676436 0)
(1.0181 -0.106569 9.39205e-21)
(1.00983 -0.000450692 -2.5998e-22)
(1.02543 -0.037619 0)
(1.03625 -0.157523 6.87048e-21)
(0.952188 0.086349 0)
(1.02248 -0.0159111 9.10757e-22)
(1.01642 -0.0142333 9.39788e-23)
(1.0039 0.00195417 1.88284e-22)
(1.02339 -0.0121093 0)
(0.998318 -0.0197278 1.32585e-22)
(1.00961 -0.0330988 -1.49312e-21)
(1.0399 0.0399008 5.29203e-21)
(1.01737 0.00257347 0)
(0.853017 -0.0680348 6.4646e-21)
(1.01204 0.00813386 -1.04504e-21)
(1.00999 -0.00207757 3.68322e-23)
(1.04775 -0.0288414 2.31289e-20)
(1.00322 0.00074869 -1.11236e-22)
(1.02099 0.00875913 0)
(1.01347 -0.00214482 -1.48706e-21)
(1.01342 0.00136182 -1.19878e-22)
(0.819593 -0.216093 -8.5738e-22)
(1.01177 0.00048328 1.27282e-22)
(1.01467 0.00136471 -2.22008e-21)
(1.00682 -0.150961 -4.40654e-21)
(1.07005 -0.0929905 -1.97728e-20)
(1.08512 -0.091965 6.08912e-21)
(1.01778 -0.00197141 2.07089e-21)
(1.01026 -0.0031749 0)
(0.98746 -0.0372175 -6.61783e-22)
(1.01077 -0.00409107 -1.35813e-22)
(0.946115 -0.0957319 2.84842e-21)
(1.04204 -0.0206726 0)
(1.01906 -0.0153769 -2.21776e-22)
(1.02894 -0.0141519 3.58472e-22)
(1.01021 -0.00110066 0)
(1.00405 0.00195734 -1.68788e-22)
(0.383021 -0.269048 -2.868e-21)
(1.00324 0.000837474 0)
(0.229228 -0.14695 2.07309e-22)
(0.999081 -0.15774 1.12352e-20)
(1.03535 -0.00810097 -4.22697e-21)
(0.599194 -0.225339 2.57515e-20)
(1.00169 8.05743e-05 0)
(1.00331 0.00256811 -1.98997e-21)
(1.022 -0.0159917 -2.97023e-22)
(0.607918 -0.0957677 -1.24013e-20)
(1.04345 -0.0192144 -1.34774e-20)
(0.996955 -0.0809815 0)
(0.967346 0.125999 -1.89445e-21)
(1.00086 8.3213e-05 7.34916e-25)
(1.00197 -0.150943 0)
(1.01068 -0.000994044 3.8123e-22)
(1.02576 -0.16259 5.92157e-22)
(1.01057 -0.00402204 1.75886e-22)
(1.02518 -0.0101223 0)
(0.892317 -0.232343 -3.11741e-20)
(0.994319 -0.141371 5.40807e-21)
(1.01304 -0.0020375 0)
(1.01435 -0.00860851 0)
(1.02262 -0.0159052 0)
(1.01465 -1.06413e-05 3.58436e-22)
(1.01755 -0.00193667 1.67661e-21)
(0.926582 0.056608 6.86853e-22)
(0.130503 -0.0550761 2.83532e-20)
(1.02365 -0.00219411 -3.89773e-22)
(1.01443 -5.81477e-05 -5.42612e-22)
(1.0108 -0.000968125 -3.9378e-22)
(0.494154 -0.171152 0)
(0.948598 0.0259052 -3.43157e-21)
(0.981981 0.0234048 5.9561e-22)
(1.0118 0.000726435 1.53341e-24)
(1.0482 -0.0274408 -5.69055e-22)
(1.02476 -0.0101341 2.24137e-21)
(1.01009 -0.00301239 0)
(1.05147 -0.0366585 0)
(0.797514 -0.151962 4.24464e-21)
(1.01127 -0.00102912 7.30709e-22)
(1.0381 -0.0679422 7.63644e-21)
(0.98309 -0.12562 0)
(1.00857 0.0127113 2.35904e-22)
(1.06701 -0.0817008 0)
(1.01865 -0.00443146 1.95356e-21)
(1.01784 -0.0236507 1.82173e-21)
(1.01126 -0.000936375 -7.40145e-22)
(1.00428 -0.00909477 0)
(1.04038 -0.0299126 0)
(1.00987 -0.0018431 -1.13622e-23)
(1.01936 -0.0758951 6.84932e-21)
(1.01556 -0.000431859 -1.11213e-21)
(0.743371 -0.16447 0)
(1.00944 -1.51062e-05 0)
(1.04189 -0.0216705 3.8269e-21)
(1.01677 -0.0983066 -8.69913e-21)
(0.945921 0.0713159 -7.11684e-22)
(1.03066 -0.0657544 6.26736e-21)
(1.00223 0.00031512 -7.65694e-23)
(1.01032 -0.00100729 0)
(0.973976 0.124397 0)
(1.04755 -0.0350017 5.91099e-22)
(1.05482 -0.0202058 7.9187e-22)
(1.01046 0.000156718 9.61342e-23)
(1.01092 -0.00147378 -1.02446e-22)
(1.02189 -0.0143375 -1.28947e-22)
(0.08414 0.119231 -1.19294e-20)
(0.990519 -0.151519 -4.59286e-21)
(1.02273 -0.00211979 1.7309e-22)
(1.01292 -0.00220915 0)
(1.02035 -0.0128507 -3.72778e-21)
(1.01428 -0.00826934 -3.08937e-22)
(1.01701 0.00143115 3.07523e-22)
(1.01247 -0.00338488 0)
(1.00795 -0.00036748 -2.22306e-22)
(0.96605 -0.101125 -3.46467e-21)
(1.01348 -0.00220366 -7.69935e-22)
(1.0165 -0.00369904 2.74709e-21)
(0.968538 0.124729 -2.81534e-21)
(1.01251 0.000843358 -4.54757e-22)
(0.944723 -0.16646 0)
(0.95445 -0.00993312 -1.13876e-21)
(0.947155 0.245184 1.62673e-20)
(0.851194 -0.179954 -6.22739e-22)
(0.864179 -0.0209805 0)
(0.110737 -0.0398639 -9.61329e-21)
(1.01272 -0.00348635 1.10388e-21)
(1.01093 -0.00161733 3.49125e-23)
(1.0172 -0.0151262 8.35227e-23)
(1.02372 -0.00310138 -1.4869e-22)
(1.01131 -0.001332 0)
(1.00959 -0.000686666 0)
(1.00705 -0.000680935 1.33639e-22)
(1.0234 -0.0117886 2.05572e-21)
(0.600581 -0.154047 7.63303e-21)
(1.05217 -0.144221 6.92376e-22)
(0.982606 -0.116928 0)
(1.00737 0.00185606 -7.01457e-22)
(1.01092 -0.0014538 2.45895e-23)
(1.01374 -0.019704 6.22881e-23)
(1.01387 -0.0148834 0)
(0.980276 -0.0360922 -1.4093e-22)
(1.00052 -2.39676e-05 1.01807e-22)
(1.01331 0.00235208 1.40891e-21)
(1.00394 -0.00842637 0)
(0.123241 -0.0219294 2.90975e-20)
(1.17807 -0.0971233 -1.32609e-20)
(0.816528 -0.298445 0)
(1.00927 2.5844e-05 -1.27716e-23)
(1.01098 -0.105106 -1.21433e-20)
(1.00435 -0.13108 0)
(1.0586 -0.0824859 0)
(0.0635669 0.123915 3.66071e-20)
(0.787957 -0.207183 0)
(1.01685 -0.013351 0)
(1.00981 0.013723 0)
(1.00871 0.0103936 -4.66128e-24)
(1.09647 -0.213275 1.2873e-20)
(1.01812 -0.00916332 1.49896e-21)
(1.00319 -0.000723386 0)
(0.982099 -0.0705443 0)
(0.979094 -0.269458 -1.7466e-20)
(1.01261 -0.00298222 2.92491e-22)
(1.04674 -0.000876084 0)
(1.03202 -0.109372 0)
(1.01391 -0.00208015 -1.48352e-21)
(1.01178 -0.0027895 -1.04348e-21)
(1.01412 -0.00187567 0)
(1.01221 0.00139917 -3.93132e-22)
(1.01485 -0.00493255 0)
(1.00934 0.00604443 -1.05194e-21)
(1.02254 -0.0348695 -5.47362e-21)
(1.01371 -0.00492858 1.68827e-21)
(1.01801 -0.0093437 -1.92126e-21)
(0.920969 -0.230743 -8.8468e-22)
(0.0918602 -0.00375109 -2.5805e-20)
(1.01433 -0.00418276 -1.61898e-21)
(0.925129 0.000817785 1.92538e-21)
(1.06107 -0.186328 1.01733e-20)
(1.01156 -0.0105587 0)
(1.03246 -0.00429213 -8.28792e-24)
(1.02468 -0.0033419 2.01819e-22)
(1.00558 0.000726078 -5.99827e-24)
(1.01439 -0.0143061 5.61633e-23)
(1.01125 -0.0101523 -1.17325e-22)
(1.00491 -0.000386771 -5.64022e-22)
(1.02517 -0.00855834 4.1789e-21)
(1.00969 0.00538731 2.03035e-21)
(1.01946 -0.0089585 4.75666e-24)
(0.92716 -0.241706 2.01008e-20)
(1.02423 -0.0280016 2.99404e-21)
(1.00609 -0.000569361 -2.8346e-22)
(1.01246 0.00165706 6.29293e-22)
(0.908893 0.313444 -4.50519e-21)
(1.02455 -0.00469412 5.16707e-21)
(1.00315 -0.000527337 0)
(0.572278 -0.141679 5.57902e-21)
(1.01145 -0.00135216 0)
(1.02142 -0.0434345 0)
(1.03922 -0.0295983 1.14971e-21)
(1.01672 -0.0034456 -4.21193e-21)
(1.01067 0.000370251 0)
(1.01521 -0.000427645 -3.23108e-22)
(1.01991 -0.0163332 0)
(1.06472 -0.0582992 0)
(1.00644 -0.00044822 0)
(0.84849 -0.00329583 5.6279e-21)
(0.977158 -0.0383199 -7.1277e-22)
(0.998046 -0.118286 -7.73892e-21)
(0.764873 -0.164312 -3.55536e-21)
(1.02017 -0.0124376 3.78077e-21)
(0.967519 0.0472413 1.98008e-21)
(1.00303 0.000144923 1.20864e-22)
(0.964532 -0.112152 -9.10488e-22)
(1.03487 -0.00917842 -1.27638e-20)
(1.01201 0.00115634 0)
(1.04878 -0.153707 0)
(0.889011 -0.125826 -2.29688e-21)
(1.00869 -0.00382478 -3.93965e-22)
(1.03582 -0.218928 0)
(1.00633 -0.214101 1.36379e-20)
(1.00183 3.52881e-05 2.06075e-22)
(1.04556 -0.038834 0)
(1.00315 -0.00047132 2.72164e-22)
(1.01294 -0.000564312 -8.34088e-22)
(1.02157 -0.026162 0)
(1.00587 -0.00194256 7.8771e-22)
(1.0103 0.000109744 0)
(1.00031 0.022339 -2.40653e-22)
(1.011 -0.00115948 0)
(1.01711 0.00238966 2.66672e-22)
(0.856405 0.176683 0)
(1.01871 0.000367656 0)
(1.01129 -0.00138114 3.97053e-22)
(1.01075 0.000430296 0)
(0.984339 -0.248135 -1.16035e-20)
(1.0126 0.00178767 -9.01387e-22)
(1.03139 -0.00983262 0)
(1.02175 -0.0333402 9.49106e-21)
(1.1064 0.074585 0)
(0.855182 0.118437 0)
(0.904498 -0.119796 6.28053e-22)
(0.746196 -0.0502336 2.19619e-21)
(1.01122 7.04565e-05 4.01381e-22)
(1.00343 0.00121579 -1.00279e-22)
(1.01695 -0.00339941 1.5162e-21)
(0.649711 -0.17415 4.0056e-23)
(1.00774 -0.000143079 1.25128e-22)
(1.01189 0.00127469 0)
(1.03214 -0.019308 2.60802e-21)
(1.00413 -0.00782959 -2.49185e-22)
(1.01437 -0.151775 1.16749e-22)
(1.01926 -0.00944034 -5.19117e-22)
(1.02209 -0.00643717 0)
(1.17669 -0.0873049 -4.77287e-21)
(1.01205 -0.00288783 0)
(1.07518 -0.0911567 5.777e-21)
(0.853084 0.261508 0)
(1.00349 0.001266 0)