/*--------------------------------*- C++ -*----------------------------------*\
| =========                 |                                                 |
| \\      /  F ield         | OpenFOAM: The Open Source CFD Toolbox           |
|  \\    /   O peration     | Version:  v2012                                 |
|   \\  /    A nd           | Website:  www.openfoam.com                      |
|    \\/     M anipulation  |                                                 |
\*---------------------------------------------------------------------------*/
FoamFile
{
    version     2.0;
    format      ascii;
    class       volScalarField;
    location    "50";
    object      ddt0(k);
}
// * * * * * * * * * * * * * * * * * * * * * * * * * * * * * * * * * * * * * //

dimensions      [0 2 -3 0 0 0 0];


internalField   nonuniform List<scalar> 
18355
(
-6.40774e-06
5.9327e-07
6.39944e-07
1.14701e-07
-1.64958e-05
-0.000124253
-1.02933e-06
-1.84247e-05
-2.56846e-08
0.00101418
1.40344e-06
-4.91056e-06
-4.02642e-06
0.00127547
8.05188e-08
2.58395e-07
1.28349e-07
1.01638e-06
-5.51976e-06
4.36787e-07
-2.99738e-05
2.47237e-07
-7.51891e-07
-7.86079e-05
-9.28521e-07
3.90241e-07
-1.45883e-06
1.06539e-07
-1.03485e-07
1.5807e-06
-0.00670889
1.90136e-06
3.01046e-08
-6.8449e-07
1.65649e-07
-2.62276e-07
-2.50713e-07
-1.79352e-07
1.66097e-06
1.54072e-07
2.27549e-07
1.52919e-06
-8.10459e-07
4.43589e-07
6.1365e-07
-0.000357663
7.07821e-08
8.85303e-08
-0.00545301
-5.39602e-07
9.18497e-07
0.000190143
-5.22248e-07
-2.77402e-06
1.1394e-07
-6.59132e-08
7.4159e-07
0.00917055
3.47448e-07
-0.00661315
-6.98776e-07
-5.02592e-06
-2.34813e-06
2.14753e-06
1.58658e-06
7.52985e-07
4.52999e-07
-2.11207e-07
-3.02532e-07
-0.000821899
-1.79323e-07
1.04007e-07
1.87589e-06
7.22571e-07
0.000727715
-3.60741e-07
0.0105807
-3.98752e-07
-1.38792e-07
0.000476432
4.73699e-07
0.00017285
-3.31908e-07
6.7647e-07
4.06589e-07
-8.5058e-07
1.77312e-07
8.59693e-08
7.4227e-08
1.64807e-07
0.00561918
-1.26265e-05
0.000104251
-5.90073e-07
4.53404e-05
3.07732e-06
9.92269e-08
2.89556e-06
-3.62803e-06
2.90523e-07
3.66856e-07
-6.80945e-08
-5.8356e-07
1.90146e-07
5.29601e-07
3.64402e-07
1.71742e-06
-0.000305473
-1.36761e-07
-3.4622e-07
5.60948e-07
8.20662e-07
1.88798e-06
6.89234e-07
0.00149386
1.3345e-06
-2.69237e-08
0.000770377
4.95113e-07
4.27612e-07
-0.00251682
-2.35808e-05
0.00404602
-3.09034e-08
0.000624081
-0.00202597
-1.18988e-06
1.21178e-07
-5.31736e-06
2.23232e-07
9.82528e-08
-0.00050249
8.49198e-08
-4.81478e-06
3.95003e-07
7.45209e-08
-6.98151e-06
-0.000137638
1.69125e-07
-8.41508e-06
1.06069e-07
-5.40059e-06
1.56178e-07
-3.11791e-05
6.29363e-07
2.09321e-07
-0.00391074
-2.51536e-07
1.93235e-06
-4.94607e-08
1.03009e-07
4.3772e-07
5.29503e-07
-7.35139e-06
-7.89389e-07
-8.62853e-07
1.15004e-07
-7.73443e-07
1.67059e-07
-8.88094e-07
1.32269e-06
6.52178e-08
-2.05295e-07
-6.32648e-06
1.36527e-06
-0.000181702
-0.00454823
-5.99199e-06
-0.00437317
1.21644e-07
6.91671e-07
-4.60144e-06
1.40217e-07
-0.00418139
3.12242e-07
2.36578e-07
7.87087e-07
1.89249e-08
6.70671e-08
9.52188e-07
-1.28032e-06
0.000155945
2.40955e-07
9.4354e-08
-0.000139975
-5.69221e-07
-1.27159e-06
3.1612e-07
1.53455e-07
-1.45683e-06
-0.000648496
-3.89112e-06
6.33492e-07
-3.7218e-07
1.91718e-07
0.00428364
6.58479e-07
-5.76389e-06
7.255e-07
0.000785956
-5.06891e-07
-4.69576e-07
1.72963e-06
-1.0357e-06
1.16678e-06
1.90876e-07
-0.00357193
8.97205e-08
2.87291e-07
2.37169e-06
1.54844e-07
7.93058e-06
3.72724e-06
2.73198e-06
-2.83685e-07
-0.00296249
9.87684e-07
-1.15529e-07
1.90072e-07
1.05895e-07
-4.08625e-08
-2.16343e-07
5.12663e-08
-7.86026e-06
3.11912e-05
-9.83737e-06
-2.36534e-07
-9.64222e-05
-7.11486e-07
1.48577e-06
-4.73888e-06
5.1512e-07
0.00140663
-2.25214e-07
-4.94445e-06
-1.7966e-05
1.20795e-07
-0.00107697
-1.63975e-07
2.0473e-06
7.52717e-07
7.48562e-08
9.56472e-07
1.41621e-06
1.91761e-07
1.17687e-07
8.19418e-08
-7.99927e-07
-6.91735e-05
-2.86665e-07
2.57493e-06
-0.000129202
-7.09699e-06
-6.82131e-06
8.13273e-08
2.09156e-05
-1.47297e-07
2.02163e-07
-7.67089e-06
8.776e-08
-9.21082e-08
0.000127624
-3.3672e-06
-6.40416e-07
1.82397e-06
-1.11022e-05
1.86146e-06
-4.0102e-06
8.92735e-08
1.16624e-07
-1.79113e-06
-3.51865e-07
-6.60298e-07
-1.22103e-07
1.02549e-07
1.75434e-07
-6.43509e-07
7.90407e-08
-3.58145e-07
0.00513406
-5.85255e-07
1.61375e-07
1.44092e-06
-4.6551e-07
-1.19492e-07
1.50739e-07
1.08582e-06
2.3013e-07
9.82881e-07
-5.40636e-08
1.0331e-07
-2.0011e-06
4.40336e-07
-9.37548e-07
2.16602e-06
7.76107e-08
-3.61336e-07
-5.29206e-07
1.66753e-07
7.69027e-07
-2.99902e-07
-0.00476965
-3.80064e-07
-3.42478e-06
1.46419e-07
-3.34002e-07
-3.2138e-07
-7.83811e-08
-5.79847e-07
-1.9777e-06
0.000248656
0.0274188
4.03215e-08
-2.81596e-07
-2.23865e-06
1.52132e-06
4.31329e-08
1.05229e-07
8.31876e-08
-2.37985e-06
0.0214401
0.0193412
0.00020316
-1.45226e-07
7.37942e-08
-5.17323e-06
-2.11378e-07
1.87342e-07
7.71242e-08
9.07464e-08
1.50551e-06
1.57507e-07
-5.75564e-05
2.53543e-07
0.000551256
2.047e-07
1.29441e-07
-6.67701e-08
-5.98423e-06
-6.75794e-06
1.40742e-06
0.000106356
3.88833e-07
8.09044e-08
9.00511e-08
1.83106e-06
0.00100152
9.84862e-08
1.88465e-07
-2.14005e-07
3.35084e-07
7.41743e-08
-7.45037e-06
2.16427e-06
7.65066e-08
-2.64973e-06
1.12628e-06
2.41093e-07
1.19227e-06
-1.70281e-07
1.82074e-07
2.80178e-07
-0.00681213
-2.37543e-05
-1.332e-07
1.51888e-07
-2.94993e-06
8.07671e-08
-1.69514e-07
-3.10511e-05
7.27664e-06
-5.54803e-07
9.08447e-08
1.1861e-07
-4.68345e-06
3.45654e-06
2.38658e-05
-9.64704e-08
1.01064e-07
4.44113e-06
4.03361e-06
2.48806e-07
1.77112e-07
1.17843e-06
7.29891e-08
2.86333e-07
1.88719e-07
2.08088e-06
8.02134e-07
3.75628e-07
1.01509e-06
7.17663e-08
-7.55294e-07
-2.16955e-06
-4.04447e-06
0.00315891
0.000363861
-7.78899e-06
-7.26776e-06
-1.45226e-06
1.80062e-07
9.5322e-08
-1.77612e-06
1.44789e-07
-4.32781e-07
-9.96606e-07
1.01259e-06
5.5493e-06
8.92778e-05
-5.7487e-06
-3.24572e-06
1.26365e-07
0.00784164
2.8572e-07
1.051e-07
-3.96087e-05
1.89315e-07
3.03866e-06
-2.00325e-07
1.67089e-06
1.64042e-07
-4.39285e-06
0.00152069
-3.17974e-06
5.6185e-08
4.20803e-07
-3.39223e-06
4.81697e-07
-1.15557e-06
0.000756386
-0.000137802
1.06549e-07
-1.83462e-06
-4.10408e-06
5.28795e-07
4.12924e-07
1.2855e-06
0.00399206
-7.52852e-07
3.37154e-07
-2.90069e-07
-1.35764e-06
7.36268e-08
-3.36213e-07
-1.52001e-06
5.36562e-05
0.00319098
2.45839e-07
-1.05673e-06
2.05366e-07
-4.96183e-06
1.85565e-06
-3.15405e-07
3.1782e-06
-6.91732e-08
1.33055e-07
0.00434759
-5.06496e-06
2.48557e-07
7.28917e-08
-6.95798e-07
-3.57359e-06
0.0129811
4.02168e-07
-1.61475e-05
1.70808e-07
4.91737e-07
-3.92764e-07
4.73771e-07
6.01514e-07
1.82279e-06
3.88382e-07
7.04612e-07
2.47464e-07
-7.54759e-06
5.55502e-07
-5.29697e-07
3.33457e-07
1.19005e-07
1.35035e-07
2.52645e-07
-5.18122e-06
0.00393064
1.90357e-06
1.04153e-06
-6.5379e-08
3.51834e-07
1.72594e-06
2.86598e-07
2.28186e-06
5.02744e-07
1.28237e-07
-1.87408e-07
6.49066e-07
2.29503e-06
0.0119933
-6.0785e-06
-2.20609e-06
1.9666e-07
-1.14631e-06
1.24392e-06
2.51348e-07
-9.67768e-08
0.00205465
-1.64937e-07
7.87725e-07
-8.62788e-07
2.34834e-07
2.30793e-07
-0.00418894
5.64075e-07
-8.62881e-08
0.00137895
1.43911e-07
-3.31676e-07
0.00729997
-2.14647e-07
3.30409e-07
-0.00242139
9.95564e-08
-4.18691e-06
1.90459e-06
0.000310756
5.58959e-07
1.32221e-07
1.20346e-07
0.000425034
0.0172397
0.000220051
0.00113258
-2.97053e-07
1.17132e-07
6.65593e-07
1.1643e-07
-5.73447e-07
-2.38927e-06
-0.00163732
0.00401173
-0.010464
2.79419e-07
1.81645e-06
2.04949e-06
6.29259e-08
1.22002e-07
-1.18427e-06
-1.52581e-06
1.56719e-07
1.20519e-07
0.00122603
9.11268e-08
-0.00831634
-4.13325e-07
-5.20355e-06
-3.85918e-06
1.20193e-07
6.9583e-07
5.59478e-06
1.24824e-07
0.00413239
1.7037e-07
-6.71865e-06
5.88877e-07
2.22955e-07
2.07791e-06
-4.0963e-06
-2.9852e-06
-1.10131e-06
-2.66498e-07
-1.18182e-06
-2.3618e-07
-5.0901e-06
1.5548e-07
-4.97625e-06
9.14763e-08
0.0010619
1.21655e-07
6.70715e-08
-2.54349e-05
-1.68342e-06
-2.93278e-05
3.77264e-07
8.72557e-07
3.39346e-06
-3.86699e-05
0.0158545
4.99722e-08
-3.62647e-05
7.39547e-07
1.40655e-06
2.79348e-07
6.93804e-08
0.00519033
6.59826e-07
0.000280597
1.24297e-07
6.82036e-07
2.15406e-07
-1.23191e-07
5.32571e-06
7.38419e-07
-3.13109e-06
-1.25169e-06
-0.00775478
-2.56011e-07
7.56153e-08
-1.30931e-05
2.85729e-07
0.00911644
1.7097e-06
8.26494e-08
1.26136e-07
-2.57585e-07
9.81986e-07
4.53824e-07
-2.13146e-07
1.51616e-07
-0.0273398
4.81365e-08
-0.00338255
0.000759792
1.2291e-06
0.000214473
-2.55664e-07
-3.96406e-07
0.000178606
-2.39837e-07
-0.00807037
-1.57366e-06
0.00420646
-4.84676e-05
-2.67586e-06
-2.35688e-07
5.23114e-08
-0.000329904
-2.28803e-06
2.78075e-08
9.96359e-08
3.17323e-07
2.52349e-07
-1.70582e-06
-4.37675e-07
-1.38345e-06
0.00829987
0.000291487
6.33702e-05
-2.32512e-05
3.76171e-07
0.00983661
7.76771e-07
1.50812e-07
1.18176e-06
7.76603e-05
-5.69692e-06
-1.94513e-06
3.81786e-08
-1.91454e-06
2.00644e-07
1.65723e-07
0.0370308
-3.46698e-08
1.15304e-06
-5.26215e-06
2.88593e-07
1.30924e-07
1.60248e-07
2.5415e-07
9.50083e-07
-1.52578e-07
-1.28282e-06
2.25688e-06
-3.12615e-06
3.43026e-07
4.61942e-08
3.36417e-08
-7.48801e-05
1.02793e-07
0.000170479
0.00267408
1.22188e-07
1.77366e-05
-1.33638e-07
-0.000177182
1.1161e-07
-2.20086e-07
9.04797e-06
6.22327e-07
0.00583428
3.37085e-07
1.59638e-07
9.46689e-05
1.06864e-07
-5.74397e-07
1.99921e-07
1.54674e-07
1.23535e-06
8.68418e-08
-2.9216e-06
-1.22371e-06
0.00400362
9.84739e-07
0.000822268
0.00471326
4.75559e-07
8.86487e-08
8.61268e-07
7.64854e-07
-6.21848e-06
1.18023e-07
-6.38094e-07
-2.29824e-07
4.47718e-08
1.23155e-07
0.0044709
1.2855e-06
-2.20562e-06
4.80367e-07
-4.29578e-07
1.24254e-06
-1.46697e-05
0.000316108
7.55179e-07
-5.12891e-06
2.09102e-08
-2.75768e-07
-0.00116614
0.00939812
1.20262e-07
0.000983448
9.46297e-07
0.00155586
-1.25666e-06
-3.43344e-07
-1.22586e-06
1.07951e-06
0.00091099
2.73847e-07
-1.21936e-07
0.00029468
1.24886e-06
-6.5228e-06
1.22622e-07
0.000290902
-4.06954e-06
1.06135e-06
1.51287e-07
1.18713e-07
-2.84956e-06
1.1407e-07
4.21446e-08
1.77707e-07
5.24886e-07
0.00111063
2.01832e-06
-3.39418e-08
-5.94193e-07
2.19958e-07
3.15192e-07
1.7454e-06
-4.08709e-06
2.39106e-07
9.91846e-07
-1.80031e-08
-3.98396e-08
-4.30506e-06
1.55716e-07
-1.21564e-05
-4.59295e-07
1.25449e-07
-1.29062e-06
2.00316e-07
-1.39067e-06
-1.76437e-06
0.00249558
-8.33212e-06
7.35749e-08
1.04795e-07
-4.18448e-06
-6.54234e-07
-5.25233e-07
-1.70877e-06
6.31423e-06
1.25837e-06
-1.57603e-06
-2.13552e-07
8.42056e-07
1.19931e-06
-2.76637e-07
3.55339e-07
1.27004e-07
2.64342e-07
5.00369e-08
1.30806e-07
0.000663539
1.4614e-07
2.36798e-07
7.84579e-08
-6.91036e-06
0.000376814
-3.8721e-07
4.5783e-07
-8.19642e-07
-6.1392e-07
-2.47502e-06
-0.00530808
-1.2797e-06
0.000178474
2.37873e-07
-0.00973096
-5.06068e-07
4.02455e-07
3.81602e-07
0.00127113
4.37049e-07
-4.07676e-07
-2.46272e-05
-7.169e-06
1.97196e-06
7.5993e-08
7.91062e-08
2.01356e-07
1.05089e-07
-5.81166e-07
-6.23986e-06
-1.45633e-05
-1.68019e-06
1.3858e-07
-2.71733e-07
2.31189e-07
6.3894e-08
-5.20286e-09
1.79092e-07
-2.17484e-06
1.36274e-06
-2.66487e-05
1.31181e-07
1.23564e-07
2.23083e-06
1.1901e-07
-3.82521e-06
-1.73882e-06
2.21101e-07
-7.12662e-06
-0.00598654
2.08772e-06
1.03141e-07
-2.93795e-07
1.36781e-07
1.75581e-07
-0.00148934
-2.2979e-06
-6.28786e-06
-2.81599e-07
1.88564e-07
6.34037e-07
-1.9281e-08
-0.00626677
8.2835e-05
-4.39202e-07
6.21869e-07
1.08021e-07
4.77391e-08
1.09649e-07
-3.45377e-06
0.000366926
1.60439e-07
-2.10734e-07
-3.28964e-07
1.20643e-08
4.0648e-08
9.90502e-08
-5.85365e-07
-1.08622e-08
2.63112e-06
-1.75898e-07
-2.43163e-07
0.000454198
1.2427e-07
-1.12501e-06
-6.30142e-07
1.0947e-07
-4.28834e-06
0.000884741
2.08641e-07
1.33642e-07
-1.14979e-06
-3.53798e-06
-1.23282e-06
2.143e-06
-0.000118759
1.23304e-07
1.98923e-07
1.26172e-07
-0.00838409
8.38951e-05
-1.31631e-06
-2.11526e-08
-1.47951e-06
-4.80665e-07
1.29854e-07
-3.29536e-06
9.18649e-08
-2.12729e-07
6.2521e-08
-4.10677e-06
0.00281179
0.000929295
0.000585706
-3.85914e-07
-4.88935e-06
1.14146e-06
-1.36749e-06
1.06412e-07
9.11821e-07
-3.76656e-08
-1.94373e-06
-3.87036e-06
2.64439e-07
-3.88757e-07
1.29766e-07
-6.38281e-07
-3.61935e-07
7.88269e-05
-3.53691e-05
-9.22672e-07
1.33577e-07
4.10593e-07
-1.41797e-06
7.9348e-08
-2.35499e-06
-1.62998e-05
-1.75274e-06
1.279e-06
0.000443737
-5.65142e-06
-5.46715e-06
1.81803e-07
2.58814e-07
-7.25323e-07
-1.31499e-08
-1.15781e-05
-7.09396e-06
6.99405e-08
-2.76485e-07
-7.872e-06
0.000220199
-7.50203e-07
1.37345e-07
-2.81997e-06
8.63542e-08
9.13136e-08
1.17643e-07
-0.0308637
2.47156e-07
1.25383e-07
-6.07817e-07
-2.85151e-06
5.5183e-07
1.73992e-07
-7.13944e-06
1.34102e-07
-4.63785e-06
-1.46106e-07
-6.17311e-06
-2.89066e-06
9.32135e-08
-1.50996e-06
8.66616e-08
8.36728e-08
1.06517e-07
-0.00340398
0.0017182
-4.60326e-06
-2.71111e-07
-0.00263168
-4.58778e-06
-2.44698e-06
-6.08726e-06
3.99347e-06
-1.43996e-06
-1.72975e-07
-0.00449674
5.81773e-08
1.61924e-06
3.82969e-07
0.0147558
-0.00206638
-9.28703e-06
7.73186e-08
-5.59817e-06
0.000215584
-4.78791e-06
2.08282e-06
9.63331e-07
6.62094e-07
-1.15096e-06
0.000954339
7.11015e-07
4.86154e-08
1.26886e-06
0.000860453
0.00419956
8.41698e-08
6.75349e-07
-9.41505e-07
0.00815163
-2.85213e-07
2.29126e-07
-0.00235256
1.32943e-07
2.52576e-06
9.78328e-07
-3.48205e-08
6.78952e-08
-0.00568675
1.97682e-07
-4.49073e-08
1.29548e-07
4.9747e-08
-4.90501e-08
7.79706e-08
2.58489e-07
0.00244955
-8.88323e-07
-0.00488589
-2.29158e-07
1.31363e-07
4.02135e-08
-5.48899e-06
1.09035e-07
1.91345e-08
-7.30479e-06
-0.0070963
1.89164e-06
6.17882e-07
1.7655e-07
0.018618
6.33044e-08
-4.56362e-07
1.39745e-07
-2.38988e-05
2.35182e-06
-8.8355e-08
6.21599e-07
-1.66298e-06
-2.65775e-06
0.00486834
7.23218e-05
-1.64438e-07
1.12976e-07
-1.44236e-06
0.00449747
-2.18621e-07
-1.90426e-06
-1.93983e-07
9.24868e-07
7.33626e-08
-3.39054e-07
-1.80072e-06
2.10461e-07
-1.23132e-07
2.51143e-06
1.67026e-06
-1.61436e-07
-6.35706e-06
-0.00568905
2.32868e-07
0.000180122
-5.98207e-08
-6.10749e-06
0.00460922
-6.78194e-06
-2.58783e-07
-1.55916e-06
1.2655e-07
0.000829413
2.79868e-07
-1.25857e-07
-5.39092e-06
1.37011e-07
1.47569e-07
2.27197e-07
2.07039e-07
1.11187e-07
0.0118667
0.00143874
-3.88708e-06
8.82968e-08
1.79719e-07
5.27235e-07
7.18291e-07
0.000229479
-1.08171e-07
1.12487e-07
1.07874e-07
-7.05868e-07
-8.32622e-05
-1.80329e-07
1.05497e-07
-1.51495e-05
1.33459e-07
1.86661e-07
-1.41897e-06
0.00599625
0.0011596
1.20666e-07
-4.35091e-07
0.00106575
9.63595e-06
-8.19702e-06
1.80045e-07
-1.11861e-06
-2.93602e-06
-3.44357e-08
-9.51625e-06
7.13108e-07
-0.00333194
7.75366e-07
1.62666e-07
-2.05336e-06
4.9869e-08
0.0143823
1.15687e-07
-5.92612e-08
0.000280178
5.50128e-07
-0.000106768
1.87983e-09
4.11128e-07
-7.84469e-08
-3.5441e-07
-1.6147e-07
-8.33472e-07
1.4277e-07
3.44413e-07
-5.19826e-08
2.70626e-07
-1.82887e-06
9.70141e-07
3.88802e-07
8.76792e-07
1.1041e-06
6.19083e-08
-2.57459e-08
-1.14469e-07
-1.96443e-06
4.48648e-07
5.03852e-07
3.23945e-07
1.15799e-06
3.43953e-07
8.9363e-08
-1.93767e-08
-1.593e-07
-0.00362579
0.000692489
3.95164e-07
0.0152049
-1.16664e-06
-1.36284e-06
1.31268e-07
2.17209e-07
-0.00199572
2.86764e-07
9.12908e-08
-9.56548e-07
-3.60882e-07
-1.35392e-06
4.27147e-08
2.22641e-07
-3.37205e-06
-2.67334e-07
-3.64783e-07
1.30122e-06
1.54791e-06
1.3109e-06
-6.47071e-06
0.00321996
1.18729e-07
-9.95195e-06
1.54718e-07
9.80798e-08
6.46247e-07
-7.71663e-06
1.02543e-07
4.12141e-07
-3.04026e-06
7.68365e-07
-1.40383e-06
0.0334131
1.50765e-05
-1.69182e-05
0.000636844
0.00166009
5.85673e-06
1.83743e-07
0.000617882
-0.00501829
-3.88564e-07
2.37933e-05
8.29188e-08
1.8652e-07
-5.17662e-06
-1.08124e-06
3.65307e-05
9.95429e-07
4.56795e-07
4.24814e-07
-1.17312e-05
1.09742e-07
-0.000591556
1.058e-07
-2.13716e-07
-0.00345365
-4.07067e-07
-8.99486e-07
1.13222e-07
-2.68741e-06
1.62486e-07
1.97389e-07
4.97275e-07
0.000546028
3.7017e-07
4.94884e-08
-1.66246e-07
2.40503e-07
1.25585e-07
1.84557e-07
-0.000262218
1.92056e-07
-3.13715e-07
2.34204e-07
-4.65557e-07
2.58254e-07
1.11748e-07
1.07383e-07
-5.89059e-06
-1.70146e-08
-4.66168e-07
-7.33981e-08
3.6348e-08
2.55674e-07
1.44248e-07
1.40646e-07
-1.53544e-06
9.8847e-08
6.95877e-07
1.23295e-07
2.02548e-07
-1.65873e-07
-3.2096e-07
-1.06321e-07
1.42008e-06
-1.88657e-06
-2.78648e-06
1.66876e-07
0.00225853
-5.8444e-07
1.57346e-07
0.00453203
-2.02094e-06
-1.90134e-07
-3.66333e-06
2.24826e-07
1.2214e-07
-0.00154379
1.70541e-07
-2.75782e-07
-3.27042e-07
-7.20966e-06
-1.59209e-07
-1.50688e-07
3.4701e-07
-0.000110123
3.17588e-06
-1.61207e-09
1.04166e-06
4.24762e-07
-2.4596e-06
8.76236e-08
-3.25018e-06
6.19547e-07
9.25988e-08
-2.18589e-06
4.51903e-07
1.2357e-07
8.88073e-08
-8.69104e-09
-4.91059e-07
1.26405e-07
8.6441e-08
1.00664e-06
6.16467e-08
0.000166429
-4.0524e-06
-3.24583e-07
-1.04541e-05
-1.67737e-07
1.56937e-07
-5.97599e-07
-1.28647e-06
-1.27324e-06
-5.54684e-07
-1.81547e-07
-1.75585e-07
5.5294e-07
7.61811e-08
-4.31791e-06
-7.07122e-06
9.95957e-08
-1.39636e-06
-5.24585e-06
-1.47175e-06
2.29179e-08
4.74095e-07
3.68354e-07
5.04913e-06
-1.93522e-06
1.22294e-06
-2.81978e-07
1.07338e-07
-1.77673e-07
8.20221e-08
-1.34193e-06
8.87392e-08
-4.51744e-06
1.22259e-07
-1.28889e-07
2.24626e-06
-2.55448e-07
-0.00328408
-0.0009161
1.84352e-06
-3.02814e-07
4.17056e-07
1.07348e-07
2.05615e-06
8.09334e-08
-6.01763e-07
-0.00279527
-0.0127323
-1.10237e-05
-1.62161e-07
-1.22133e-06
3.39653e-08
3.92629e-07
-1.53392e-07
0.0190511
4.08107e-06
7.47554e-07
-1.72104e-08
-1.27536e-05
1.61087e-06
1.14406e-07
9.68561e-08
0.00354294
7.95103e-08
1.10837e-07
-6.14232e-05
-2.96872e-06
-4.99059e-07
1.56184e-06
-2.94465e-07
-1.64737e-05
-3.30032e-06
1.15794e-07
1.24901e-07
-3.72389e-06
3.47411e-06
5.07058e-08
2.20718e-07
1.27647e-07
1.13195e-07
8.55873e-08
0.00113134
2.08927e-07
-2.22511e-06
-2.53171e-07
2.10716e-07
1.97768e-07
4.67456e-08
-2.45757e-07
-6.38532e-06
1.26522e-07
-4.69042e-07
-7.29777e-06
-0.00284537
1.00045e-07
0.0044084
-6.00902e-06
-2.41659e-06
-4.17232e-06
-3.53158e-06
-0.00351848
-1.68405e-06
1.87777e-07
-2.71211e-07
2.37426e-07
1.05346e-07
-0.00383215
-5.49137e-05
-2.8033e-07
1.74947e-07
-2.65115e-07
2.46424e-07
0.0146402
1.06046e-07
7.22368e-07
2.64909e-07
7.49664e-06
1.27219e-07
1.97645e-07
-1.77269e-07
-0.00325436
6.79545e-08
-1.26356e-06
-1.21726e-06
1.28417e-07
2.18366e-07
-1.94964e-06
-1.92264e-07
1.29372e-07
3.8676e-07
-2.14016e-06
-3.43881e-07
0.00573895
1.25299e-07
-4.06569e-07
1.21468e-07
-3.64845e-06
-1.09694e-06
-6.20391e-07
-6.4903e-07
-2.8556e-06
-9.00262e-07
6.21267e-08
1.20906e-07
0.000232162
0.00506978
0.000711699
-2.4742e-07
-3.3349e-07
4.02332e-07
0.0161073
-3.23526e-07
-2.05175e-07
2.42992e-07
2.79536e-05
1.82459e-07
2.90181e-07
1.2839e-07
0.00435305
1.70994e-06
-1.55985e-05
0.0183788
2.27363e-07
2.42539e-06
1.68257e-07
4.0917e-07
0.0367191
-1.11107e-06
1.46427e-07
-2.61711e-07
2.10419e-07
-1.32506e-06
1.38658e-07
3.75966e-07
-3.05139e-07
2.22613e-08
1.20341e-05
0.000430691
2.216e-07
2.01284e-07
0.00482127
6.73969e-05
-1.40866e-06
3.2261e-06
1.52645e-07
-1.26115e-07
1.61977e-07
4.99451e-06
1.51729e-06
1.2962e-07
-2.59178e-07
1.36231e-07
1.70925e-06
-2.34132e-05
1.0688e-07
1.73645e-07
3.38096e-07
5.9698e-07
1.12583e-07
1.05372e-06
2.84738e-07
-2.79342e-05
1.91418e-06
0.000746508
-7.68515e-07
1.13814e-07
9.78832e-08
7.74501e-08
8.96518e-08
9.42036e-08
-8.3369e-06
1.0616e-07
0.000293915
8.10022e-07
8.618e-08
-3.38071e-08
1.25142e-06
5.09206e-07
-2.07831e-06
-3.9915e-07
-1.63861e-07
0.0150074
-2.21841e-06
-1.14294e-06
-1.70137e-07
0.000340536
-0.000127369
-1.27185e-07
1.59166e-08
1.24053e-06
4.94342e-06
-8.90629e-06
-2.60088e-05
-2.27647e-06
-5.95136e-07
-6.77509e-06
0.0138803
2.8075e-07
1.69777e-07
0.00754956
6.2255e-08
0.000107732
1.14528e-06
1.2802e-07
-3.77538e-06
6.22821e-06
0.00532038
7.8717e-06
0.00287372
-1.0692e-06
-2.3099e-06
-1.0857e-06
1.66206e-07
1.70704e-07
2.07166e-07
1.37981e-07
8.80183e-08
-4.75381e-07
-1.41364e-06
1.33772e-06
1.80592e-06
2.98133e-07
3.80859e-07
1.06886e-07
1.27302e-06
-6.75821e-07
-2.3577e-06
1.27961e-07
1.316e-07
2.59102e-06
-1.54163e-06
-1.7865e-06
3.76529e-07
0.000266636
-6.34664e-07
-1.6032e-06
-1.06628e-06
-3.59648e-07
-1.27327e-07
0.0278857
-4.58828e-06
3.84513e-06
-9.77055e-07
7.56988e-07
-3.08085e-07
1.19198e-07
8.56377e-07
2.76472e-06
1.32118e-07
-6.03063e-06
-1.41136e-08
1.40216e-07
1.37485e-06
-5.17861e-07
-5.85121e-07
1.4581e-05
0.00227512
8.06173e-06
-4.29332e-07
2.04992e-07
2.92249e-07
4.12368e-06
1.35843e-07
0.000534186
8.86845e-08
1.08328e-07
1.26531e-07
-4.76963e-06
-2.23606e-06
1.5385e-07
6.18239e-08
-6.71607e-06
-7.04259e-07
0.0046281
-7.82249e-07
-4.30379e-06
2.5326e-06
-6.74224e-07
1.07093e-07
5.95118e-08
0.00362074
4.01486e-06
-4.20233e-07
-9.06583e-07
1.31398e-07
7.20296e-07
0.0324013
0.00311352
-2.87909e-07
1.28305e-07
-1.46226e-06
4.69531e-07
-2.12121e-07
9.15406e-08
1.20631e-07
1.16723e-07
-2.88172e-06
2.4863e-07
-2.08522e-07
-1.11277e-07
3.54185e-07
1.23067e-07
1.50535e-07
-3.12785e-06
-1.22113e-07
1.95782e-07
0.00583727
9.90404e-07
0.0163281
-1.3495e-06
6.57448e-07
-7.10194e-07
-1.02691e-06
-1.20674e-05
2.61015e-06
6.88545e-07
5.39892e-08
1.29893e-06
-8.82829e-06
-1.15949e-06
1.04894e-06
1.35214e-07
1.0255e-07
3.08374e-08
9.22331e-08
-1.19353e-06
1.55973e-07
-2.74407e-06
1.92836e-07
3.32971e-07
-0.00283765
-1.15216e-05
0.00072676
9.34191e-08
1.19954e-06
2.47123e-07
2.31664e-06
-2.42547e-06
-0.000144096
2.71263e-07
1.16815e-07
-1.82691e-06
2.37739e-07
-0.000838801
8.10908e-08
-1.90521e-07
4.75383e-07
0.0239383
0.020519
6.85875e-07
5.98811e-07
6.74752e-08
-1.87826e-07
8.95113e-08
3.55825e-08
1.41089e-07
3.12987e-07
9.21915e-08
-2.46026e-08
-4.60239e-06
1.93965e-06
9.20748e-08
3.01089e-05
-8.66065e-07
1.24332e-07
3.17203e-07
-5.53907e-06
-9.70094e-08
-8.89132e-06
1.10896e-07
1.47902e-06
0.00087548
1.16824e-07
9.37912e-07
2.20547e-07
2.08366e-07
-0.000155237
-1.82809e-07
0.0047808
-4.54174e-09
-2.26047e-06
1.71548e-07
1.41099e-07
1.37837e-06
-1.05287e-05
5.16488e-07
1.02023e-07
5.66035e-08
1.42956e-07
-0.00372808
8.53767e-08
-0.0036084
-0.000178199
-3.48892e-06
9.86416e-07
1.48847e-06
1.72692e-06
8.35832e-08
0.00603007
1.26091e-07
-0.0032753
3.22038e-07
2.71367e-07
-9.74461e-08
-7.0699e-08
7.58036e-07
-0.00541023
1.61721e-07
1.38058e-06
1.89102e-07
7.13288e-05
-2.91207e-07
-2.25285e-06
4.96761e-08
2.62261e-06
6.03155e-08
2.79217e-07
2.77698e-08
-8.30244e-07
2.97746e-06
1.40092e-07
0.00118304
5.90079e-08
0.00366183
1.27243e-07
4.28747e-07
-3.22979e-06
9.83368e-07
-9.94796e-05
-3.09318e-07
-1.19893e-06
-1.30034e-06
9.62511e-08
0.000395678
8.94785e-07
1.154e-07
1.68735e-06
-6.74235e-07
8.29252e-08
1.10335e-07
8.56973e-07
-8.8831e-08
-3.1095e-06
3.6286e-07
3.89631e-07
-6.92224e-07
6.95704e-07
1.90873e-07
-3.4523e-06
4.07509e-07
1.13905e-07
7.91491e-08
-1.35989e-07
-2.31249e-07
2.62341e-05
1.26873e-06
0.00424268
-1.94968e-07
-2.82992e-06
3.21813e-07
1.27829e-07
1.75476e-07
8.61062e-07
9.46729e-08
4.18774e-05
4.91475e-07
1.70485e-06
-1.65134e-06
-1.13012e-06
-0.00127156
-0.000349177
2.43853e-06
-1.4008e-05
7.76174e-06
0.00790042
-5.01319e-08
4.28998e-07
3.69395e-07
-2.68387e-05
0.000102331
-8.42769e-06
4.03329e-08
2.65109e-07
1.55194e-07
-3.75108e-07
-2.74325e-07
6.3831e-07
-2.22305e-06
-0.00197606
1.39006e-07
2.5667e-07
1.04056e-06
2.02959e-07
1.17301e-07
3.25516e-06
-2.68379e-06
-3.35099e-06
3.04697e-07
-8.9351e-07
-0.00434341
-2.89776e-06
2.12243e-07
7.0266e-07
1.81774e-07
0.00164009
0.00388075
7.23473e-07
3.77757e-07
0.00248894
1.92333e-07
1.01329e-07
-9.11128e-07
1.02896e-07
1.29641e-06
-2.62525e-08
2.66339e-07
0.000362238
-6.03031e-05
1.38471e-07
5.78865e-08
8.44383e-07
0.000241118
1.2266e-06
9.38829e-08
0.0154755
1.32425e-07
-1.39832e-06
-4.84656e-07
5.19291e-08
-2.24808e-07
-7.49988e-07
1.22557e-06
1.50888e-07
0.00893756
1.27085e-07
-7.26202e-07
-1.97841e-06
1.65243e-06
-2.17887e-06
1.58396e-07
-3.78251e-06
-9.74145e-08
-3.7579e-06
4.79623e-06
-1.47373e-06
9.17228e-08
2.75449e-07
0.000243869
2.31162e-08
0.000208675
5.64758e-08
7.30703e-06
-2.63847e-07
1.35173e-07
0.00795453
-6.31901e-08
5.93579e-06
1.41994e-08
8.06342e-08
0.00405101
0.0192199
1.09177e-07
0.00334777
1.68887e-06
8.63667e-08
2.23979e-08
-2.89387e-05
0.00171721
-1.4629e-07
3.33357e-09
3.25484e-07
-2.3499e-07
0.020069
-0.00366668
5.53551e-08
-2.14127e-07
1.11791e-07
0.000765298
-2.24308e-06
-7.16386e-08
-7.49672e-08
0.00998552
-1.80089e-07
-5.95044e-07
0.00767882
3.6352e-07
1.47042e-06
4.17444e-07
-5.85602e-08
3.94545e-08
1.42778e-07
-1.33322e-07
3.14134e-07
-1.28841e-06
0.00512191
2.74961e-07
3.10961e-07
1.30261e-07
-3.49646e-07
-3.96008e-06
3.06404e-06
1.44171e-07
-2.34361e-06
-7.07418e-06
-2.70678e-06
-5.00228e-07
0.00378963
1.92863e-06
6.24669e-07
0.0253207
6.69292e-08
1.04292e-06
1.14813e-07
0.000503434
8.02377e-08
2.03923e-07
-5.11293e-06
-4.56841e-07
1.30593e-07
1.562e-07
-2.15321e-07
2.87512e-06
-3.87434e-06
1.23537e-07
1.44874e-07
4.72556e-07
-3.11704e-06
2.10546e-08
1.02547e-06
1.19941e-07
8.18974e-08
1.93738e-06
-1.86287e-06
-6.89413e-07
4.07686e-06
0.033813
1.25987e-07
0.00363398
-1.26404e-07
6.94456e-07
-6.95803e-08
4.239e-06
1.12907e-07
-5.99547e-05
-1.72112e-06
-4.08311e-06
0.00387455
-5.37119e-08
1.1534e-07
0.0313771
-2.20294e-07
-4.20494e-06
0.0232442
1.87918e-06
1.41234e-07
1.91156e-07
-4.76187e-06
1.11592e-07
4.81836e-06
0.000422303
1.26065e-07
-2.10251e-06
1.20025e-06
8.15772e-07
-2.54184e-07
8.54086e-07
-5.12624e-06
-1.81715e-07
1.10113e-07
-0.00737192
1.10702e-07
1.46e-07
1.01588e-07
-3.87936e-09
-2.03452e-05
3.17455e-06
6.27732e-07
-2.847e-08
1.35499e-07
1.77222e-07
-4.47368e-07
-4.46435e-06
-1.73706e-07
0.0176015
-2.05322e-06
7.41242e-07
0.00377491
1.28417e-07
-1.98587e-08
-4.97907e-08
6.30807e-08
2.33349e-07
-2.52951e-07
-8.48782e-07
0.0288087
-1.00025e-06
1.23204e-07
2.71909e-07
-1.79919e-08
0.00084316
1.82806e-07
0.0168935
-1.10475e-05
5.74052e-06
-6.1571e-07
0.000685158
5.99823e-07
1.05038e-07
1.11138e-06
1.09431e-07
5.67274e-07
9.4644e-07
8.53777e-08
0.0315395
-3.08158e-07
8.78589e-08
-1.39271e-06
-1.94543e-05
1.6442e-07
1.06252e-07
-4.61557e-06
3.87068e-07
8.0923e-06
1.48124e-07
1.06697e-07
1.9955e-07
2.96961e-05
2.16105e-07
-3.04015e-05
-2.63522e-06
2.07998e-08
1.01128e-07
-6.02192e-07
4.79288e-08
3.36911e-06
-1.76613e-07
2.75991e-06
1.26648e-07
0.0115206
0.00076699
-7.89977e-07
-5.54488e-06
1.41002e-07
6.36745e-07
-1.532e-06
0.0103808
3.29382e-06
4.43475e-07
-1.22952e-06
0.00322772
4.99472e-08
3.04888e-06
1.26626e-07
-2.97391e-06
-7.21157e-06
-6.44951e-06
3.52702e-06
1.6059e-06
1.63265e-06
-0.00333993
3.63984e-07
2.7188e-07
0.000266016
0.000239588
6.03221e-08
-2.74016e-06
1.05257e-07
9.12737e-07
5.8283e-08
2.46936e-07
2.34617e-07
-8.50401e-05
-6.69557e-09
9.50581e-08
-3.31188e-06
0.00277431
0.000437132
-6.90232e-06
-0.00247623
6.56839e-08
0.000185866
-3.74547e-06
2.5811e-07
1.37884e-07
-0.00408989
-2.8629e-06
1.28535e-07
1.82582e-07
1.9573e-07
9.47746e-08
1.27234e-07
-0.00244455
9.84754e-08
2.14524e-07
1.27702e-07
1.33486e-07
1.13186e-07
-5.95241e-08
0.0345465
5.51438e-06
5.70791e-07
4.07017e-07
1.77853e-06
-0.00583337
3.00088e-06
-1.8295e-07
3.03574e-06
-1.69458e-05
1.34689e-07
-7.11713e-08
9.77666e-08
1.14271e-07
-3.37455e-06
-7.09798e-06
1.15754e-07
-1.73932e-06
2.67198e-06
0.00140875
-0.00738324
-7.70417e-07
3.07034e-06
0.000187454
-1.33907e-06
-1.31473e-07
4.68642e-08
7.17581e-07
0.000553607
-0.00630902
-1.46449e-06
-2.26379e-06
-0.0279975
-8.6516e-08
-2.01445e-07
6.76907e-07
8.98239e-08
-0.000120225
1.04696e-07
8.69792e-07
4.60353e-05
0.00337243
1.45891e-07
1.18274e-07
0.00935164
-2.66292e-06
6.29248e-07
0.00120185
1.23692e-07
1.19047e-07
1.99465e-07
-0.00195761
1.35581e-06
4.6354e-07
3.59659e-07
-3.23726e-06
1.60878e-06
0.0037477
1.16287e-07
1.292e-07
4.01053e-08
-2.43708e-07
1.50456e-06
-8.10934e-07
-6.41122e-06
-6.16684e-06
9.88771e-08
7.12342e-08
0.00136301
0.00815518
0.00137287
9.49279e-08
1.55651e-07
5.35931e-08
2.07283e-07
1.07738e-07
1.41263e-07
-1.56775e-07
2.15841e-07
-1.65333e-07
5.90958e-08
-1.76256e-06
-9.3257e-07
-2.17663e-07
0.000911696
-4.00993e-06
-2.67445e-06
1.12035e-06
3.90351e-06
-1.6069e-06
-6.37829e-07
2.58814e-06
1.22688e-06
9.31096e-08
0.0169428
-2.75125e-07
-3.37454e-07
1.06257e-06
-0.00271845
2.37156e-06
-0.00340268
2.41422e-07
-4.82749e-07
1.87522e-06
1.14363e-07
1.26754e-07
1.08919e-07
2.33257e-06
-6.89835e-06
-3.05945e-07
6.96446e-07
1.10246e-07
-0.00735039
-2.58767e-06
0.000245124
1.99168e-08
-9.4377e-07
-2.5913e-07
1.43134e-07
-2.97245e-07
7.61875e-08
1.5354e-07
7.16794e-07
-0.000678959
5.01609e-06
5.12645e-06
-7.06279e-06
-0.00943044
-6.28674e-06
1.84239e-06
-5.8805e-06
-9.59953e-07
0.00155303
-6.82438e-07
1.49098e-06
-5.48514e-08
0.000724846
2.03658e-07
6.72398e-08
7.92775e-08
1.01185e-07
-6.30837e-06
-6.36845e-09
-4.86443e-07
1.73333e-06
2.29227e-07
5.04156e-06
1.46437e-07
0.0011285
9.01909e-07
-7.65775e-08
9.39057e-08
-1.06249e-07
8.46533e-08
-3.65923e-06
0.000302043
1.79408e-07
3.0004e-06
-0.00152884
1.4602e-07
1.5614e-07
-1.87209e-06
-7.69986e-07
0.00532797
3.60277e-06
-2.02898e-07
-3.46067e-06
-3.43402e-07
-4.5289e-07
9.38805e-07
1.77138e-07
-3.68544e-07
1.25195e-07
2.92518e-07
9.04746e-08
2.02864e-07
5.22082e-07
-2.5467e-06
7.91987e-08
-6.26836e-06
2.3119e-07
1.32687e-07
-4.67532e-07
-1.60947e-06
3.11362e-07
-6.98932e-07
1.24709e-07
-2.47829e-08
-1.5786e-06
-0.00131959
-9.84894e-07
1.68553e-07
1.13528e-07
6.53198e-08
-5.58314e-07
1.51563e-07
2.28094e-07
-0.00254446
-0.000291646
-2.12982e-06
1.45967e-07
3.77919e-07
1.16115e-07
-5.81841e-07
4.807e-06
-6.77627e-07
5.40904e-07
1.85072e-07
-5.49892e-06
-1.14356e-07
-0.00415519
-2.5306e-07
-3.05343e-06
0.00398611
0.00123652
0.00062684
5.54272e-07
0.000511982
0.0112399
1.37104e-07
-1.11872e-06
0.00634931
1.7679e-07
9.23871e-08
8.59689e-08
5.92008e-07
-3.37052e-05
8.85037e-08
2.90257e-07
-0.000262814
1.10175e-07
1.2953e-07
0.0097054
0.0153871
-4.83854e-06
0.000704912
0.000739951
1.5859e-07
7.16549e-07
-1.08071e-06
-1.32544e-06
-0.00195407
4.87489e-08
0.00209836
1.02243e-05
-5.98931e-08
2.3676e-07
5.01788e-07
3.21208e-06
-1.7616e-07
0.00873442
2.95392e-07
1.15178e-07
1.78929e-07
-0.00199088
0.00535765
-2.57011e-05
4.19119e-07
2.02735e-07
-1.79933e-07
0.0132884
9.27422e-07
1.38493e-07
2.46654e-07