/*--------------------------------*- C++ -*----------------------------------*\
| =========                 |                                                 |
| \\      /  F ield         | OpenFOAM: The Open Source CFD Toolbox           |
|  \\    /   O peration     | Version:  v2012                                 |
|   \\  /    A nd           | Website:  www.openfoam.com                      |
|    \\/     M anipulation  |                                                 |
\*---------------------------------------------------------------------------*/
FoamFile
{
    version     2.0;
    format      ascii;
    class       volScalarField;
    location    "50";
    object      p;
}
// * * * * * * * * * * * * * * * * * * * * * * * * * * * * * * * * * * * * * //

dimensions      [0 2 -2 0 0 0 0];


internalField   nonuniform List<scalar> 
18355
(
-0.0092379
0.000638957
-0.0451512
-0.000317406
0.000848866
0.00253523
0.00137583
0.00153174
0.000942229
-0.00949118
0.00471092
-0.0393361
-0.0386351
-0.00877863
0.000851997
9.48591e-05
-0.000263124
0.00476014
-0.0408689
0.0023472
0.0142272
-0.00638404
0.000769936
0.00318336
0.000784136
0.00313788
0.00146826
-0.000170017
0.000860713
0.00557443
-0.00924335
0.00802188
-3.43836e-05
2.51951e-05
1.50641e-05
0.0029547
-0.0219714
0.00302608
0.00604016
2.23009e-05
-0.00277818
0.00516494
2.67485e-05
0.000632162
0.000643126
-0.0293673
0.00069599
0.000677783
-0.0126817
0.00190981
-5.25159e-05
0.0105747
0.00194897
-0.0223309
-0.00313342
0.00243635
-3.87879e-05
-0.00688015
0.00313892
-0.0193077
1.22405e-05
-0.0377893
-0.0199651
-0.000370555
0.00720371
-9.55444e-06
-0.00792473
-0.0216316
-2.23325e-05
0.00396097
0.00150952
-0.00318833
0.00635151
0.00577718
-0.000994006
-1.87399e-05
-0.00370891
-2.35834e-05
0.0014765
-0.00125874
-0.00741567
-0.0024834
-3.87414e-05
-0.00595032
-0.00649993
0.000325192
0.000288195
-0.0114121
0.00133169
-0.0106174
-0.0228873
0.0145766
-0.00122548
0.00182672
-0.00258582
-0.000139644
0.000998464
-0.000154166
-0.0273901
-0.0053121
-0.00661117
0.00145876
0.00181427
3.93395e-06
-0.00686492
8.29285e-05
0.00769004
-0.00390901
-0.0158012
7.04577e-05
-1.96891e-05
2.37517e-05
0.00643071
-0.00567725
-0.0212817
0.00123082
0.0014262
-0.00272136
-0.00519467
-0.00871868
0.00642764
-0.0433635
-0.0216299
-0.0110568
-0.00198723
-0.0267529
0.00143539
-0.000320815
-0.0119749
-0.00581798
0.00104024
0.0105658
-0.00174246
-0.0330644
-0.00245428
0.00141537
-0.0420259
0.00349296
-0.00148797
0.0153102
-0.0165969
-0.000122848
0.000963685
0.00745633
-0.00171455
-0.00268994
-0.0165433
5.18033e-06
0.0066314
2.14189e-05
-0.000167356
-0.00869121
-0.000312216
0.00114612
2.30443e-05
0.000739967
-0.000291354
0.000193064
0.000969022
0.000740917
0.00470351
-0.00169117
8.16021e-05
0.000802925
0.0059349
-0.00660484
-0.014545
-0.00541424
-0.00111416
-0.0161421
-2.71793e-05
-0.032473
0.000221443
-0.0105532
4.84335e-08
-0.00265813
-5.44375e-05
-3.53706e-07
-0.0177151
-0.00356924
0.000476837
-0.0057023
-0.00614281
-0.00011834
-0.0042046
0.00173703
0.000738587
-0.00899397
-0.00330068
0.00143415
-0.0275335
-0.0280309
0.000703428
-0.000118979
-0.00276984
-0.0293648
1.1452e-05
-0.0104067
0.000648165
-0.0110569
0.00171541
0.00395421
0.00647009
0.00061846
-0.00734867
-0.00621204
0.00224911
-5.2053e-05
-4.35177e-05
-6.30461e-05
-0.00286245
0.00441021
-0.000730914
-0.000669916
7.1853e-06
-0.0138062
-0.00294305
-0.0221242
-0.00595385
0.000908819
-0.0156652
-7.95955e-05
-0.0122858
-0.000154314
0.00532215
0.00150443
-9.00684e-05
0.00272979
-0.00694636
0.003282
0.00132199
-0.00731915
-0.00901613
-9.45096e-05
0.000544473
0.00546923
-0.0135041
-0.0287238
-0.0266215
-0.000591085
0.000673691
-0.0174325
-0.000478035
0.00200111
-0.00594562
-0.00322293
0.000488602
0.00470737
0.00398724
0.00149196
-0.000388375
0.00522426
-0.0360632
-2.9393e-05
1.21664e-05
-0.00109436
-0.0260018
-0.00238432
0.00157944
0.00105302
5.80068e-06
0.00130371
-0.0276485
-0.0322007
0.0069442
0.00494049
0.000447165
-0.0282279
0.00107332
-0.00326129
0.00155492
2.53575e-05
0.00403435
-0.0227315
1.96832e-06
-0.00361535
0.00694782
0.00137487
-0.00984196
-0.0221246
0.00682275
-0.00296632
0.00231213
2.7115e-05
-0.013004
-0.0061704
-0.00256418
-0.00269916
-0.00270822
1.24841e-05
-2.82453e-05
-0.0303276
-0.00631638
0.00150766
0.000804367
0.000852659
-0.000119405
-0.00979625
-0.00338045
0.000291273
-0.0232698
-0.0312038
-0.0152177
-0.0283146
0.00429072
0.0071275
0.00191947
-0.0244331
-0.0315707
-0.0296902
-0.00420324
-0.0515077
0.000974235
0.00350714
-0.0182639
0.00278576
0.000925121
0.00073178
0.000258149
-0.0391817
-0.0507504
-0.0786716
-0.00468057
0.00709313
-0.0170535
-0.000794796
3.16679e-06
-0.00620479
-0.0164886
-0.0041472
0.00260936
-6.21325e-06
-0.00536125
0.000104342
-0.00666457
-0.0027369
-0.000180302
0.00479883
-0.0356605
-0.00327241
0.00129346
-0.0035236
-0.00284381
0.00136787
-0.00400157
0.00357607
-0.0106223
0.00138875
-0.00110012
1.39457e-05
-0.00365982
0.00147146
-0.0342605
0.00364298
0.00036824
0.00127025
-0.00120863
-0.0020971
-0.000502398
-0.000112606
-0.00108975
-0.00510714
-0.0199562
-0.00435602
-9.68521e-05
0.000874908
0.00441709
0.00021588
0.000276978
-0.00203889
-0.00429103
0.00666744
-0.00371375
-0.0137864
-0.0377821
0.000719967
-0.000670119
-0.0250693
3.50998e-06
0.00461198
0.00174911
-0.00500385
-0.000953315
0.00458859
0.000740271
0.00372494
-0.00281699
0.015369
-0.000386461
-0.00934477
-1.12388e-05
0.000325409
0.00382669
0.00139443
-0.0356572
-0.0209596
-0.00525606
0.00137603
-0.0370429
0.000927345
-0.00272166
-1.51013e-05
-0.0301687
-0.00336909
0.0069869
0.00131309
0.00691671
-0.000440336
0.00602359
-0.00150827
-0.0251516
7.62602e-06
-0.0861664
-0.00565631
7.52074e-05
0.0148233
-0.0027668
0.00355951
7.84813e-06
0.00841704
-0.00277613
-0.0328102
-0.0124646
-0.0275684
5.40125e-06
0.000638883
-0.0282072
-0.00562622
0.00129269
-0.00899625
0.00232899
8.70407e-05
-0.0306053
-0.0351453
0.000634219
-8.96838e-05
0.000502149
7.29736e-05
-0.0196158
-0.00333662
0.00199159
-0.0301556
0.000778388
-8.44712e-05
0.00135893
0.00593266
-0.0207054
9.14661e-06
0.000465416
-0.00249711
-0.0348382
0.00154577
-0.000126331
0.00343548
-0.0132449
-0.00655682
-0.0299187
-0.0373154
-0.00638425
0.000718845
-0.0194055
-0.0348665
-0.0487247
-4.68377e-06
-0.0163299
-0.00146609
-1.45856e-05
-0.0147461
-0.00638091
0.0157746
0.00555861
-0.00932296
0.0061599
-0.00673573
-0.0349369
-0.00498505
-0.0315879
-0.00416556
-2.27141e-05
-0.00988694
-2.87911e-05
-0.03649
-0.0238474
0.00937386
0.0051735
-2.04135e-06
-0.00382503
-0.000175154
0.00423159
-0.000278608
-4.08418e-05
-0.00410532
-0.0139559
0.000662799
-0.000254361
-0.047332
-0.0130172
-0.019847
-0.00588148
0.000463646
-0.000156308
-0.00625917
1.47361e-05
-0.0524283
0.00350372
-0.00415307
0.00560118
-0.010073
-0.0134012
-0.0218205
-0.00771766
0.00287739
-0.0114739
0.000321017
-0.00532727
-0.0812154
-0.0275954
-0.000140993
-0.02206
-7.03254e-06
-0.0322553
0.00885655
-0.00130527
-0.0044788
-0.00966003
-0.00622703
-0.00681317
-0.0427228
-0.00149249
-0.0121649
0.00420107
-0.00599618
-0.00652992
-0.00333037
0.00345708
0.0141399
-0.0130161
-0.0244152
0.0249566
0.00357139
0.00713624
0.00737186
0.000641692
-0.000841683
0.00361708
0.00406911
-0.00643018
-0.00329207
-0.00729542
0.00104603
0.0229457
0.0035886
-0.0349172
-0.0371664
-0.000923395
-0.00509539
-0.0123549
-0.00405809
-0.0298632
-0.000837179
0.0148167
-0.0070062
-0.0028086
0.00787194
-0.0286413
-0.0249095
0.00055745
-6.21244e-05
-0.0291164
-0.028062
-0.0346804
-0.00332436
-0.0378716
0.00107326
-0.0526803
-8.19825e-06
0.00143743
-0.0369834
0.00116245
0.00474325
2.49482e-05
-0.00315522
0.00150196
-0.00484496
-0.0792501
-0.0179454
-0.000306635
5.34065e-05
0.00168708
-0.00425749
-0.017788
-0.016685
0.000663647
-0.00610202
-0.00210317
-7.9201e-05
-0.0139141
1.45682e-05
0.000667418
-0.00238089
0.00134384
-0.0348827
-0.0121678
7.48035e-06
0.000433322
-0.0190318
-0.00987573
-0.0478985
0.00470764
-0.000435423
-0.00333987
0.00155421
0.00565494
-0.00208512
5.13091e-06
-0.000882167
0.00966799
0.00134146
0.00127745
0.00281511
0.00355864
-0.0377865
-9.04607e-05
-0.00871834
-0.000293142
1.98758e-06
-0.01259
-0.0304522
-0.0185691
-0.00535532
0.00127298
0.001484
0.000104483
-0.00486425
-0.0384056
0.000335629
-0.0142419
-0.00223519
-0.00577243
-0.0308555
0.0015979
-0.0309053
-0.0729096
-0.00497465
0.000871246
-0.00225526
-0.00871269
-0.0019317
-0.00475001
0.000995658
-0.000533054
-0.0046738
0.000976906
-0.0403892
0.000105283
-0.00754079
-0.00250475
-0.000734503
-0.0894418
0.00015631
-0.000724442
0.00487376
-0.00252636
-0.00595805
-0.00287902
-0.0128129
-0.00275909
-8.43143e-05
-0.000148243
0.00913969
-0.0247076
-0.00993679
0.000822079
-0.01121
-0.012611
0.00029772
-0.00182287
-0.018388
-0.00631149
-0.0121264
-9.55496e-05
-0.0485799
-0.00410954
-4.35443e-06
-0.0360508
-0.00372165
0.00211676
-0.0099903
-0.0029059
-0.0134319
-0.00399585
4.1233e-05
-0.00199026
0.00102041
-0.00018808
-0.0115775
0.000351846
0.000741049
-0.0288887
0.00354169
-0.00119385
-0.0137711
-0.000293196
-0.00383851
-0.00377414
-4.58265e-05
-0.0362365
-0.0015865
1.21908e-05
-0.000144883
0.000237915
-0.00392324
-0.0406141
0.00553612
-0.0298768
0.00257916
0.00354599
0.00429374
0.00134918
0.00181939
0.000697164
-0.0368829
-0.0101003
-9.96585e-05
-0.0164771
-0.0768418
-7.59631e-05
-0.000282669
-6.35339e-05
-0.00957644
-0.0341928
5.16041e-06
-0.0299255
-0.00103941
-0.000342726
-6.45302e-05
-0.026085
-0.00711877
0.00310827
0.00479689
-0.00391808
-0.0034939
-0.040475
-0.00726185
-0.00340422
-0.0159076
0.00122434
-0.00299829
0.000767046
1.73682e-05
0.000639364
-0.000944395
0.00407914
0.000840983
6.96051e-06
1.63027e-05
-0.00286747
0.00316511
-0.0400901
-4.62394e-05
-0.00212341
-0.000544237
-0.000165603
0.00140535
0.000892416
0.00517819
-3.63649e-06
0.000945978
0.000672985
-0.00562658
0.00371634
-0.000523006
-0.0258256
0.015308
-0.0173409
0.000966296
-0.0357911
1.67899e-05
2.5641e-06
-0.000643365
0.00516155
0.00492122
-0.00058446
-0.000147536
0.000672092
0.00605394
-3.54012e-05
0.00639633
-0.00151829
-0.00521226
0.000614115
-0.0156503
-0.011499
0.00103515
-0.00710623
0.000844061
-0.0448597
-0.00229306
-0.0278391
-0.00182275
0.00160491
0.00356526
0.0051705
-0.0213676
0.00053995
-0.000847411
-0.00716355
0.0194909
0.00294435
-4.19813e-05
-1.14621e-05
-0.00129849
-2.68553e-05
-0.0283214
-0.000541209
-0.0338519
0.00717823
0.000637684
0.000858571
2.02175e-05
0.000314159
-0.0320661
-0.03595
-0.00523903
-0.0246868
-0.00782413
-4.30133e-05
0.000317745
0.000455132
0.00140801
-0.00845676
-0.0294795
0.00394602
-0.00179103
-0.00760217
-0.00558922
0.00874156
-0.00337709
-0.0345481
-0.0256121
-0.00936024
-0.036909
-0.0142429
0.00801979
0.000831675
-3.6949e-05
-0.00969086
-0.00240161
0.00466716
-0.0369239
-0.0363039
5.54394e-05
-0.00564392
0.00358704
0.00143151
-0.0218493
0.0011135
-2.0428e-05
-5.1724e-05
0.000104197
0.000681521
0.00138965
0.00131926
-0.0291899
-1.69011e-05
0.00287976
6.79734e-05
0.000958814
0.000833764
-0.00285683
0.00592556
0.000950398
0.00123391
-0.000171622
1.6717e-05
-0.0371431
0.00468751
0.00541621
0.00146998
-0.0130082
-0.0347914
-0.00303824
-0.00237989
0.000608881
0.00079567
0.00152407
0.000657643
0.00826583
-0.00356046
-0.0026274
0.00294361
-0.00593061
0.0199835
-0.0033749
0.000722293
0.000117012
0.00419543
-0.0160595
-0.000476313
-0.0263811
0.000891691
-8.11146e-05
-0.017619
0.000252409
-0.0136464
-0.00715481
-0.0272109
-9.51989e-05
-0.00169632
0.0112129
0.00419024
0.000425079
0.0103219
0.0035024
-0.0445531
-0.00024176
-1.10372e-05
-9.26081e-05
-0.00618144
0.00274155
-0.00011388
0.00520684
-0.00816967
5.81178e-05
-0.00249963
-0.00271264
-0.0322403
0.000544946
0.00112739
0.000812472
0.00163349
-6.04986e-05
-0.00617072
-0.0345779
-0.0344973
-0.00240983
9.93704e-05
4.79958e-05
-0.000659086
0.00135403
0.000808148
0.00140476
0.000545171
0.00147277
-0.00256942
0.00075929
-0.00427325
-0.0235984
0.00145475
0.00101047
-0.00408402
0.0126127
9.16165e-05
-0.00580279
0.000752886
-0.000608176
0.000123063
-0.014903
-0.0350999
-0.00440744
-0.0420555
-0.01818
-0.0293572
-0.027642
4.57478e-05
0.00422796
0.00143274
0.00101388
-0.000210651
-0.00802944
-0.00963925
0.000319905
-0.0227626
-0.00699081
-0.0349134
0.00151346
-0.0354509
0.00694353
0.00374155
-0.000119631
0.00338418
-0.0176715
0.000308893
5.05644e-05
-0.0435877
0.00965901
0.000435968
0.00107223
-0.0366591
-0.000946959
0.00129447
0.00883026
0.000411795
0.00368121
-0.0338844
-0.00801416
0.00275561
-0.018191
0.00363778
-0.0789344
-0.0395886
0.00057785
-1.09352e-05
0.00131907
-0.0258892
0.00451638
3.13575e-05
-0.00858019
-0.0154919
0.0104769
0.000684662
2.8378e-05
0.00104445
0.0191753
-0.0102602
-5.87025e-05
0.000966351
3.37085e-05
-7.55446e-05
0.00142747
-0.00469201
-0.0517965
0.000501689
0.0186808
-0.0230055
-0.01026
0.00014715
-0.0346222
0.000395201
-0.000897151
0.00133372
-0.00915569
0.00698785
-0.00422466
-0.00566648
-0.0546992
0.00104968
-0.0153768
-0.00543615
0.00231985
0.00943357
1.30739e-05
-0.00759422
0.0012686
0.000242348
0.00479142
0.001337
0.000919198
-0.00395442
-0.0354017
-0.015655
3.02385e-06
-0.0249178
2.30388e-05
0.00655236
0.00135302
-0.000126809
0.00142098
-0.0102764
-8.59763e-05
0.0100871
0.00405588
0.0035931
-0.0354801
0.000711004
-0.00975982
-0.00306965
-6.15725e-05
-0.0364763
-0.023887
-0.0358987
-0.000109754
0.00139725
-0.00499161
-0.0412829
-3.64151e-05
0.000824485
-0.0364631
-0.00288687
-0.00593871
-0.00233551
-0.00988864
-0.0024229
-0.0888474
-0.00563271
-0.0322334
0.00102501
-0.000990376
0.000851295
-5.46529e-05
-0.000656917
0.000218015
-0.005021
-0.014515
0.0034746
-0.0306605
2.23149e-05
-0.00659565
-0.0194778
-0.00219277
-0.00829017
-0.0360948
-0.0236686
-0.00788716
-0.00559147
0.00154318
-0.0198407
-0.00552222
-0.00748267
4.34079e-05
-0.0339879
-0.0305176
-1.90017e-05
0.00492738
0.00270086
-0.00711958
-0.00206762
-0.000458944
0.00180143
1.46209e-05
-0.0586091
-0.00637044
-0.000389223
-0.00192061
0.00100609
-0.00384596
6.63336e-06
-0.00663166
-7.70082e-05
3.27304e-06
-6.80712e-05
0.00290554
-0.00993875
-0.00271532
4.05323e-06
-0.00458294
-0.024333
0.00685612
0.00139836
-8.30693e-05
0.00419699
0.000523089
3.03191e-05
0.000382946
0.00173706
0.000331465
-2.66821e-05
-0.00317833
6.52686e-05
0.00210352
-0.000789452
0.00140636
-4.64079e-05
-0.00639753
0.000637595
0.00224353
-0.0553286
-0.0285743
0.000394298
-0.00987967
-0.0104376
-0.00439138
0.00260952
-4.56448e-05
4.12924e-05
-0.000119283
-0.0101131
0.000617098
-2.28625e-05
-0.0438713
-5.27286e-05
3.98872e-07
9.53097e-05
0.000115574
0.0121906
-0.0364623
-0.0277886
3.47992e-06
-0.00270222
-0.0155563
-0.00126445
0.000659815
0.0012887
-0.00308046
-0.00993256
-0.0281307
0.00346602
0.000668534
-0.0889798
0.00604731
-0.0125183
0.00724247
0.000336587
0.0146862
-0.000359546
-0.0541757
0.0128677
-4.31124e-06
-0.00215865
0.00107696
-0.0120601
-0.0365472
0.00112526
0.00185252
-0.00135497
-0.00665498
0.00302393
0.00500414
-0.00456822
0.01633
-0.00231326
-0.000167169
-0.00580994
8.18126e-06
-0.000811804
-0.0127866
-0.0278259
-0.00215197
-0.00261258
-0.00589111
-0.00175242
0.00216962
0.000654831
-0.000199946
-0.0134158
-0.00157879
-0.0116968
-0.00486405
0.00135629
-0.0285695
-0.00664181
0.00342945
-0.00121074
0.000258308
-0.0135141
-0.0365655
-0.000396651
0.00240888
0.00360539
3.41265e-05
0.00308285
-0.00134041
-0.00412511
0.00407974
0.0129587
0.000511583
-0.00051952
0.00132509
0.000929473
-3.50403e-06
-8.94104e-05
0.00414671
0.00079955
-0.0281794
-0.00371403
-0.0118295
0.00096215
4.83705e-05
-0.0157652
-0.0397815
-8.498e-05
-0.0270694
5.62226e-05
-0.000450598
-0.00641283
-0.00048253
-0.0140439
9.47787e-06
-0.03799
-0.000456041
-0.000101859
0.000126687
-0.00373132
0.0148242
-0.000765335
0.00254148
0.000115229
0.00118221
0.00102659
-0.0373891
1.8414e-05
0.00104384
-0.000428175
-0.00586586
-0.00297058
-0.00295908
0.00140281
0.00211485
-0.00223669
0.00138524
0.00395223
-2.89596e-06
-0.00716175
-0.0326005
-0.000162808
0.00287537
-0.0220377
0.000987898
0.000951205
0.000705883
0.00112116
-0.0273452
-0.0261849
0.00279437
0.00256136
-0.000449539
-0.0391048
-0.0387133
-0.00120037
0.00149599
-0.034895
0.00385589
2.05165e-05
0.000103501
-0.00060101
0.00113136
-0.000505881
4.96835e-05
-0.028009
0.000200399
-2.14628e-06
0.000410879
0.00364659
-0.000422045
-0.0403352
0.000553905
-0.025406
0.000823458
0.00142283
-0.00910504
-0.0105265
0.00313101
0.00627367
-0.0104072
2.20239e-05
0.0115185
-0.00283461
-0.0203739
-0.0176674
0.00713856
0.00490027
-1.59612e-06
0.004094
0.00186228
-0.00967418
7.92769e-05
-0.0514583
0.000916158
-1.58445e-05
0.00140982
0.00326314
0.00401704
-0.00190026
-0.000774342
-0.0206636
0.000640573
0.00102591
-0.000292136
-0.0379217
-2.46265e-06
0.00117702
0.000361834
0.00491586
-0.0360844
-0.00285327
-0.00544664
0.00149016
0.0183298
0.00138512
-0.0137008
-0.00533707
-0.00296525
0.0010527
-0.0136182
-0.0025656
0.00121427
0.00189014
-0.000474189
-0.0142425
0.00142034
1.04253e-05
-0.0361539
-0.000997473
0.00076057
0.0137475
-0.0160515
-0.0137318
-0.0271509
0.0013626
-0.0376927
0.00144581
-0.0324259
-0.0117944
-0.000856393
4.95058e-05
1.58261e-05
-0.013343
-0.00122715
-0.0204346
0.00182665
0.00086831
0.00306003
0.00036466
-2.2434e-05
-0.0763145
-0.00129464
0.000651925
-0.0110864
0.011415
-0.00585727
-0.00642621
-0.0257395
-0.0138358
0.000795941
0.00133905
0.000449525
0.000631635
-0.0139773
-0.0412613
0.000965739
-0.00035328
0.0022379
0.00127466
3.90944e-05
-0.0825921
-0.000701459
0.0015871
-0.000214029
-0.0356007
0.000464733
0.000755876
-0.0198938
0.00111694
0.00337986
0.000792558
-0.00571767
-0.00345707
-0.0218496
0.0167762
1.14012e-05
0.00134253
0.00286966
-0.0836324
0.000807677
-0.0275354
-2.1657e-05
-0.000501794
-2.40917e-06
-0.0124045
-0.00607416
-0.0264902
0.00555421
0.000626067
-0.077298
0.00317536
0.0117463
-0.00853958
-0.00174131
-0.0918964
-0.0277819
-0.0018777
0.000338235
-0.0138913
0.00404031
-0.00426268
0.0022081
0.000793123
2.98878e-05
-0.0466794
-0.0221682
-0.00699278
-0.00094704
-0.0188998
-0.00491824
0.00366966
-0.000679437
-0.014878
-0.0267287
-0.00221513
0.000429281
0.000140688
0.000569349
0.00035646
-0.00518741
0.000133934
-0.0473165
-0.0160856
-0.00394261
0.00261184
-0.00804077
-0.00408124
-0.000943383
-0.00928361
0.00165568
0.00302664
0.000495757
5.43308e-05
-0.00198613
-0.0135588
2.74362e-05
0.000625767
0.00106929
-0.00156616
-0.00021402
-0.00407368
-0.000225714
0.000894997
0.000576034
0.000113231
-0.00215687
-0.036782
-0.0116818
-0.000201357
-0.0803481
-6.83817e-05
0.000415758
1.50591e-05
-0.00286203
-0.0547885
1.91534e-05
0.00144127
-6.62875e-05
0.000303511
-0.036461
0.00220788
-0.000352333
0.00279443
-0.0351696
-0.0694578
-0.00602298
-0.00156784
-0.0610839
-0.018184
-0.00539702
0.00303945
-0.000581616
-0.032678
-0.000479026
-0.0244328
-0.000522781
-0.00635968
0.000435947
0.00118841
0.0004534
-0.000478689
-0.014974
-0.00606011
-0.00788134
0.00105557
0.00203809
-0.000284505
5.02778e-05
-0.000364248
-0.0105721
-0.00318412
-0.00403626
-6.57629e-05
0.00585157
-0.00018605
0.000573049
-0.00739475
-0.0455946
-0.000703395
-0.000737534
0.00298229
-0.00907813
0.000741521
-0.0325178
0.00331213
-0.000112535
0.00189734
-0.0771419
0.00127291
0.000730457
-0.000902484
-0.00188464
-0.014765
0.000832137
-0.00477383
0.0118242
-0.000760591
-0.0351473
0.00143107
-0.0032508
3.02656e-05
0.00246731
-0.0278873
0.00684541
-0.0170785
0.00163158
-0.00013359
-0.00276557
0.00196605
0.0113652
-0.0121131
0.00220538
0.00107467
-0.0044997
-0.00380044
-0.0346922
0.001228
-0.00781407
0.000726874
-0.0374885
0.000745642
-0.0356299
0.00051923
0.00160929
2.91808e-05
-0.0319765
-0.000137271
-0.0184876
-0.00684512
0.000621562
-0.000112703
0.00329135
-0.00740721
-3.2916e-05
-0.0846618
-0.00191088
0.000369565
-0.00264724
0.00382882
0.000145762
0.00192874
-0.0142045
-0.0104555
0.00157785
-0.0359398
-0.00900712
-0.0222011
6.79944e-05
0.002714
-0.000320685
-0.00191012
-0.000484933
-0.0175061
-0.00278883
-0.0126799
-6.8992e-05
-0.0789385
-0.0399447
-5.56859e-05
0.00113788
0.00110305
0.00422862
0.000241127
0.00399414
-0.00125558
9.25216e-06
-0.00134376
0.00337758
0.00238848
-0.00988326
-0.0048164
-0.020129
-0.000994858
0.00342013
-0.00324545
-0.000581457
-0.00987028
-0.00173464
-0.00512177
0.00125608
-0.0096318
-2.55106e-05
0.000112284
0.00320594
0.000187438
-0.0230768
-0.0037143
0.00215692
-2.0081e-06
-0.0363926
0.000112799
-0.0182473
-0.0165915
0.00336825
-0.002536
-0.0757705
-0.0542662
-0.00343915
0.00258477
0.00121206
0.000877963
-0.0146942
2.36727e-05
-0.00970171
-0.010537
0.00107184
0.00375841
0.00251728
0.000177599
0.00134551
-0.000119531
3.21282e-05
-0.00170116
0.00202878
-0.037196
0.0025077
0.00358329
0.000494798
0.000937658
-0.063775
0.000982111
0.00357255
0.00144909
0.00367895
-0.00262472
0.00381253
-0.0815982
-0.000693628
-0.0218629
-0.0143779
-0.00120714
0.00104465
0.00089452
-0.00126898
-0.00293973
-0.0186664
-0.00323898
-0.00529107
0.000885492
-0.0144423
-0.0566304
-0.0267877
-0.00196941
0.00841946
0.000102292
2.84184e-05
0.00380598
-0.00174536
0.0164558
-0.00431018
-0.0106522
-9.29327e-08
1.71184e-06
-0.00588476
0.0158912
-0.00322837
0.000157423
3.47873e-06
0.0171665
3.95636e-05
-0.00103184
0.00344734
-2.73709e-05
0.00116286
-0.0063336
0.000976263
0.00538286
0.000194154
-0.0118848
0.00115602
8.32847e-06
-0.0197674
-0.00549066
0.00258462
0.0012164
-6.13887e-06
-0.0210806
0.00158863
0.000952887
-0.0392165
-0.0132646
-2.08895e-06
0.00209103
-0.00285243
0.00270831
-0.0205881
0.00142798
-0.00561894
-0.00118262
0.000215765
-0.0380014
-0.0109666
0.00232242
0.00357243
0.0006304
-9.06034e-06
-0.0362506
-0.00150265
-0.00584353
-0.0165622
1.36751e-05
-0.000160654
-0.018169
0.000643189
-0.0335611
-0.0208931
-0.0386198
0.0064639
-0.000331927
0.00387044
3.39177e-06
5.33125e-05
-0.00256811
-0.00117467
8.22071e-05
-0.0238869
-6.23113e-05
-0.0234215
-8.42353e-05
0.000928097
0.00138983
-0.000289707
-0.0716865
0.000223636
1.79939e-06
0.00274562
0.00146198
-0.00173549
0.00111609
-0.0186526
-0.00136931
-0.00186984
6.1393e-06
4.93422e-06
0.00424796
-0.000898435
-0.0182226
-0.0102949
0.00343509
0.00119467
-0.00272179
-0.00234843
0.000836552
-0.0414677
-0.0263343
-0.00142523
0.00387575
-0.0256008
0.00110371
-0.00265123
-0.00291399
-0.00811984
-0.00647158
-0.0165813
-0.00123167
-0.00257281
-0.0160396
0.00334866
0.000849953
-0.0009725
-0.00093246
0.00133044
0.0018856
8.52079e-05
-0.000364934
0.00400553
-0.0008859
0.00126641
-0.00458337
2.8716e-05
0.00273622
2.76298e-06
-0.0906722
-0.0151321
-0.0314578
6.30566e-05
0.00667628
2.59778e-06
0.00339566
0.000857648
-0.00184443
-0.0534858
-0.0128604
-0.0200198
-0.0176308
0.000166398
-0.0181142
-0.00211204
-0.0358589
-0.0227863
0.0011972
0.000948435
-0.000986514
-0.00440511
0.00330892
-0.0037597
-0.0204776
-0.00358213
0.00135567
-0.0321419
0.000337017
-0.0119748
-0.0604267
-0.0213761
-0.0329938
-0.00110978
-0.0160769
-0.0110665
-0.0954833
0.000915535
-0.0688735
0.00480369
0.000979781
2.42232e-05
0.00382775
-0.0650305
-3.05644e-05
0.000172344
-0.000604552
-0.000188965
-0.0872983
-0.02902
2.1898e-06
1.62138e-05
0.000824129
-0.0293617
-0.0398469
2.03709e-05
-3.99839e-05
-0.0275606
0.000907692
-0.0117848
-0.08632
-0.00272843
0.000273502
-0.000344205
1.76758e-05
0.000277242
-0.000783317
-0.000182124
0.00219976
0.00351191
-0.0357478
0.00369746
-0.00413605
-0.00189431
-0.0277821
-0.0306918
0.0129667
-0.0012804
0.00112731
-0.0376619
-0.0358599
0.00286915
0.00181546
0.00734702
-0.0028323
-0.086813
-0.0184212
-0.00171958
-0.0123247
-0.00618843
-0.00292258
-0.00736966
-0.0158079
-0.0277377
-0.00068821
-0.00316645
3.87016e-06
0.0105185
-0.0281574
0.000814106
0.000186683
-0.000521653
-0.0442542
-0.00102941
0.000250828
-0.00249737
0.000894033
-0.000706305
-0.0372253
0.00199289
0.000734764
-0.0822366
-0.000232189
0.00414651
-0.0163695
-0.00686966
0.0040813
0.000931795
-0.00672591
-0.0484218
-0.0164933
-0.0392654
-0.0476001
-0.0162773
0.000881881
-0.0740159
-7.42889e-05
-0.039467
-0.0857115
-0.000723332
-0.00130443
-0.0144722
-0.0351833
-0.00130207
0.000805378
-0.0578654
-0.00285333
-0.000331502
3.01787e-05
0.00271245
3.87424e-06
0.00174071
-0.0378469
-0.000178165
-0.000229473
-0.00116794
-0.00125989
4.0355e-05
-9.69841e-05
0.0014688
0.0179406
-0.000705079
-0.00351241
0.000868524
-0.0125634
4.24652e-05
0.00622247
-0.0421489
-0.0215994
-0.0427768
-0.000111197
-0.00260179
-0.0452798
0.000704951
0.000575811
0.00192218
0.0014637
-0.00671431
1.14388e-05
0.00293563
-0.0884891
0.000794421
-0.000287656
-0.00146778
0.00142854
0.00213677
-0.00763645
-0.0949704
-0.0428753
-0.000374454
-0.0263625
-0.00354646
0.00124146
0.0004882
0.00278208
0.000150184
-0.00148788
-0.000621286
-0.000205278
-0.0754384
0.000345873
-0.0032442
-0.0244493
-0.0436609
-0.00820452
0.000808845
-0.0314866
0.00322932
-0.000621082
-0.00310494
0.000859219
3.41758e-06
-0.0105369
0.00234407
-0.0473939
-0.0283719
4.90079e-05
0.000799877
0.00107585
0.00207435
0.00020115
-0.000168129
0.0114074
-0.000452799
-0.0908288
-0.0304238
0.00279341
-0.0326181
-0.00773217
-0.00300943
0.00394459
-0.0282138
-0.000645535
0.00618902
0.0056414
-0.0139778
-0.000217151
0.0102003
-0.00595099
0.00239582
-0.0388606
-0.0460676
0.000690203
0.00340405
0.000171806
-0.00621696
0.00358837
-0.0127768
-0.000408679
-0.00034208
0.00142758
-0.0421474
0.000502229
-0.000824026
-0.00118719
-0.00123453
-0.00144136
-0.0542422
-0.000230848
-0.0134006
-0.0317133
-0.0163617
0.00685614
-0.0366048
0.00471823
0.00132972
-0.000487433
-0.0312061
0.00148405
-0.00116838
-0.0103739
0.00131432
-0.00693561
-0.00233034
-0.0102637
0.000966139
-0.00274957
-0.014339
-0.00459153
-0.00716153
-0.00064046
-0.00426545
-0.0161618
-0.000396076
-0.0940684
-0.000603179
0.00320055
-5.39871e-05
0.0049476
0.0148375
0.000629342
0.00253752
0.000199684
-0.0435343
-0.00381151
-0.0226024
0.00091778
0.000367008
0.00285344
-0.0349558
0.000417115
0.0010728
0.000197844
-0.00228433
0.000587608
0.00034607
-0.000640562
-0.011492
0.00104311
-0.023905
-0.0183376
-6.21417e-05
-0.0436452
0.00328209
-0.0284749
0.000361126
0.0201723
1.97398e-05
1.69893e-05
0.00213001
-0.0125217
0.00310185
0.000329539
-0.00364509
-0.00676444
-0.0201932
-0.0096934
-0.0156461
-0.0301382
0.00110097
-0.00575179
-0.0117247
0.000709513
-0.00155249
-0.000352921
-0.0263037
-7.53321e-05
-0.00148035
-0.00189915
0.000574184
0.00418158
-0.00739398
0.000279667
-0.000456974
0.00648705
0.00119973
0.000100216
0.0028248
-0.0361328
-0.036012
-8.52029e-05
-0.00195629
-0.0199384
-0.0269411
-0.0146764
0.000896358
-0.00325031
0.000849305
-0.00274886
-0.00277495
-0.00409367
-1.39715e-06
-0.00265695
0.00111291
0.00129615
-0.020309
0.00412194
0.00405179
-0.0121592
-0.0315503
-0.0345088
0.00144284
0.0102088
-0.0198907
-0.027126
0.00138977
0.000805037
0.000145614
-0.0388601
4.18529e-06
0.000340945
-6.65697e-05
-0.0184609
0.000575078
-0.0172665
-0.00156969
1.18659e-05
0.00869717
0.00028415
-0.000665373
0.000383251
0.000106245
-0.0256977
0.00152197
-7.4512e-05
-0.0155904
-0.0217895
-0.035091
-0.000165971
0.00190272
0.00520826
0.00183062
-0.00806206
-0.000154968
0.00099801
-0.00331723
7.82948e-05
-0.000894725
0.00113289
0.000549843
-0.0367824
-0.000148768
-0.0356797
0.00053345
-0.0340638
-0.0374444
0.000268677
0.000710439
-3.21266e-05
4.43963e-05
-0.00169383
-1.4993e-05
-0.0020353
0.00101646
0.000309627
-0.0358297
0.000868536
-0.0108341
2.24422e-05
-1.43112e-05
-0.000681972
-0.00394935
-0.0313443
0.000264592
4.18639e-05
-0.0130844
-0.0198546
-0.015796
-0.0316036
-0.000262991
-0.00235327
0.0126003
-0.0141138
-0.00131971
-0.00299605
-0.0358068
-1.16033e-06
-0.0686537
0.00219214
0.00140214
-0.0339157
-8.56043e-05
-0.000808945
-1.24644e-05
-2.23371e-05
-0.000142487
-0.0140597
-6.78922e-05
0.000968988
-0.00268426
0.00296077
-0.0337767
3.62051e-05
-0.036925
0.000627856
0.000963123
-0.0283667
-0.0229378
-0.00552166
2.40992e-06
-0.00185923
0.00085228
-0.0242244
0.00104051
-0.0383208
-0.010138
-0.0137782
0.00124079
-0.0250966
0.000921502
-0.00271449
-0.0159394
-0.0262767
-0.0418986
-0.000896686
0.00283687
-0.014119
3.29984e-06
0.0102239
1.63816e-05
0.00803822
-0.0102085
-0.0471029
-0.0203569
-0.0185119
0.0013507
-0.0263743
-0.043677
-0.0104503
0.00371524
-0.00841919
-0.0200317
-0.0306196
-0.011511
-0.038101
-0.0340378
4.31703e-05
0.000939751
-0.00337371
-0.00597179
0.00299508
-0.00261695
0.00363061
0.00304166
7.32453e-06
-0.00592971
-0.028469
-0.0379181
-0.0417485
0.00435311
-0.019978
-0.0122024
-0.00219159
0.00412308
0.00430458
0.00547741
0.000842439
-0.0253764
0.00545271
-0.0234196
0.00229142
0.00203734
-0.000118058
-0.000437061
-0.0402575
-1.4089e-05
-0.00247258
-0.00246741
-0.0202484
-0.0379941
0.000130396
0.00231334
0.00186806
-6.46867e-06
-0.0746373
-1.61372e-05
0.00293579
-0.0128412
0.00352271
0.000912256
-0.0315165
-0.0761182
0.000220414
0.00275195
-0.00262801
-0.000413503
0.00147676
-2.19581e-05
-0.000324704
-0.000116736
-0.0435459
0.005351
-0.00118487
-0.028651
-0.00310886
0.00327483
-0.000398815
-0.0017487
-0.000384164
0.000980087
0.0040218
0.00298617
-0.00235519
4.27535e-06
0.00179482
-0.00514367
-0.00389163
-0.00267584
0.00118557
0.000151611
0.00248354
-0.00424547
0.00368172
-0.0337254
-0.00450675
-0.016535
-0.0321727
-0.000361399
-0.00341734
-0.0230181
-0.0353855
0.000158547
-0.00436902
-0.0156397
-0.00196548
-0.00265331
0.00226835
-7.06945e-05
-0.000631907
0.000308153
0.00020773
-0.00106718
-0.000810735
0.00986207
-0.0251984
-0.00260559
-0.0031371
-8.18907e-05
0.000838431
-0.0260254
-0.0786184
-6.64042e-05
0.000995629
-0.00104399
0.000224417
1.70678e-06
-0.0232866
-0.00321675
-0.00274568
0.00431565
-0.00219991
-0.00250613
-2.35236e-05
1.08872e-05
-0.0307932
-0.00331036
0.00118708
2.3633e-05
-0.0130994
0.00319619
-7.9978e-05
1.49777e-05
-0.0115988
-0.0928034
-0.0143912
-0.00791764
0.00155844
0.00820888
-0.0140325
0.00159249
-0.0480101
-7.71032e-05
-0.0209967
0.000830723
-0.0059353
-0.000194201
-0.0314008
0.00144035
0.000943229
-0.00285239
0.000126091
0.000711525
-0.00242743
0.00084063
-0.00426163
-1.34561e-05
-0.00529464
0.00020592
-0.00110592
-0.0373761
0.000985858
-0.00137437
-0.00136837
-0.0195553
1.14976e-05
-0.00618724
-0.0342459
-0.020478
-0.0414015
0.00116789
0.00189492
0.00016191
-0.00378196
1.82071e-05
-0.000643123
-0.00320324
-0.0483877
-0.00183457
-0.0427076
-0.0195133
-0.00493337
-0.00556451