/*--------------------------------*- C++ -*----------------------------------*\
| =========                 |                                                 |
| \\      /  F ield         | OpenFOAM: The Open Source CFD Toolbox           |
|  \\    /   O peration     | Version:  v2012                                 |
|   \\  /    A nd           | Website:  www.openfoam.com                      |
|    \\/     M anipulation  |                                                 |
\*---------------------------------------------------------------------------*/
FoamFile
{
    version     2.0;
    format      ascii;
    class       volScalarField;
    location    "1000";
    object      ddt0(omega);
}
// * * * * * * * * * * * * * * * * * * * * * * * * * * * * * * * * * * * * * //

dimensions      [0 0 -2 0 0 0 0];


internalField   nonuniform List<scalar> 
18758
(
0.000242946
2.49112
2.8769e-05
-0.151388
0.290001
0.0384452
-0.0654589
1.77186e-05
-0.0120646
4.80128e-05
1.16795e-05
-0.480931
1.74123e-05
0.00496102
-1.69951e-05
-0.281958
3.13899e-05
1.14821e-05
8.776e-06
5.74636e-05
0.0344279
1.21909e-06
-0.188752
-0.158497
-6.66285
1.91962e-05
0.804862
0.285783
-0.134806
-9.94853
0.000285579
-0.0742421
8.38441e-06
-2.9047e-06
0.00290406
1.21983e-06
5.89292e-06
7.35833e-06
7.30989e-06
0.000208965
7.67951e-06
-1.70163e-06
1.46356e-05
-7.36197e-06
17.2624
2.49812e-05
-0.146093
1.94045e-05
5.21278e-05
1.52865e-05
0.0294722
0.226593
2.26268e-05
1.08598e-05
0.261889
0.307206
5.88368e-06
-0.158882
5.36139e-06
0.00163317
-0.000357011
-0.0472164
0.00462384
-8.87407e-06
2.30716e-05
1.72333e-06
0.000182947
9.08731e-06
8.26865e-06
0.210308
0.182341
-1.73086e-06
1.53321e-05
4.47817
1.4131e-05
5.98765e-06
0.00198908
0.278512
0.00704355
-0.104118
-0.342837
12.9875
0.00108933
0.137269
0.0185336
6.70192e-05
-0.284711
0.00470997
0.0103355
5.13003e-06
0.15166
5.81546e-06
-0.377562
1.32157e-06
-0.327766
-0.328404
0.0196553
1.44633e-05
7.45806e-06
-0.0101275
7.30137e-05
0.160664
0.00230927
0.000466058
-0.034273
17.0108
-0.16042
0.298822
6.81769e-06
-1.11135e-07
-0.37965
-0.128822
1.88636e-05
-3.09737e-06
-0.00890331
0.293999
0.192399
-1.67481e-05
-0.348457
-0.263554
0.000357877
4.51958e-06
-0.379734
0.315089
0.306997
-0.709771
1.09185
0.233067
-0.347274
1.9434e-05
7.40798e-05
0.278702
1.06998
-0.000191422
0.00566087
-1.08153e-05
0.011946
0.000280425
8.45734e-06
0.000295115
0.00529723
-0.0252065
-2.12159e-07
0.160044
8.08456e-06
8.76859e-06
0.0441821
-0.155206
0.000227374
0.0264362
-32.2583
-0.769391
7.70438e-05
3.90616e-06
-0.14268
6.32659e-05
-0.24849
1.93625e-05
-4.00707e-06
1.01087e-06
1.10571e-05
0.000853274
-0.42896
-4.13635e-06
-0.000828793
-0.150187
7.51279e-06
-0.453744
-0.0520518
0.0802845
0.0699477
1.15179e-05
-0.425224
0.287483
-0.00270699
-0.0549999
-0.0873369
-9.61269e-06
-0.00187239
4.49977e-06
1.83083e-05
0.425422
-0.854483
1.58411e-05
-7.82222e-05
-0.199444
7.12179e-06
0.249805
1.51299e-05
6.25453e-06
-0.000132096
0.142771
-6.16047e-06
6.0795e-05
8.1166e-05
0.00936344
7.0602e-05
-0.162878
7.63438e-06
1.49977e-05
0.00307655
1.79756e-05
0.000209672
0.00302495
1.86109e-05
9.34647e-05
0.00259306
2.72368e-06
0.180714
3.91019e-05
1.16665e-05
0.000497227
-5.40361e-06
0.000217352
0.00956271
-0.369662
-0.0238772
0.338872
1.77075e-05
0.0127736
1.18778e-05
6.95944e-06
0.00624139
0.00426953
0.204495
0.0023958
0.00127986
0.00161378
1.61482e-05
0.00326831
1.72759e-06
0.00960884
-0.13898
-0.0328214
1.72533e-05
7.04626e-06
1.57334e-05
2.45935e-05
-0.349168
0.000248389
1.26902e-05
-3.7033
-0.129017
4.14147e-07
0.0227023
0.620563
-0.0194815
7.13509e-07
-0.336532
4.80614e-05
1.63615e-06
-0.487799
5.88824e-05
4.89857e-05
6.33074e-07
0.000461528
-0.00997683
0.031298
0.000193416
0.00391072
1.75949e-05
0.00168203
5.51415e-06
0.00287684
3.64545e-05
0.0033934
0.124443
2.02167e-05
7.41398e-06
0.0430686
7.82275e-06
-7.08259e-05
0.00307886
-0.219938
0.251333
6.57558e-07
0.00113908
1.86913
25.8869
-7.62174e-06
1.3003e-05
0.000111191
0.000261515
3.36868e-07
2.27525
0.351656
-0.0575161
0.701372
-0.186646
1.40106e-05
2.82595e-05
-0.00425407
-0.481722
0.000114987
0.00374624
0.00415163
0.000115082
-0.279944
9.76722e-06
-0.533419
0.111638
2.45475e-05
0.094457
3.24457e-06
8.24908e-06
0.00015251
0.00281749
-1.2051e-05
1.70653e-06
-0.00149876
-0.0813586
8.13105e-06
-0.0592997
-0.277007
0.021802
6.88053e-06
2.18325e-05
-0.788119
1.99029e-06
1.6797e-05
9.59391e-06
-5.68636e-07
0.181765
0.00280037
0.000113767
0.000218835
8.97138e-05
0.000276208
1.80879e-05
1.00328e-06
0.0433758
0.000743482
-0.000313074
-0.160332
-2.67931e-05
-6.31259e-06
2.33669e-05
-0.529736
0.122467
1.44268e-05
1.19407e-05
1.34005e-05
-1.05549e-05
-0.000411297
3.07115
4.57173e-06
8.90099e-07
1.52972e-05
-0.200273
-0.00200278
0.0301381
0.00164116
-9.12393e-06
-0.0518044
0.00031839
0.000323914
3.43317e-05
-0.442634
-0.0665435
-0.469746
1.23894e-05
0.000104883
1.30601
-0.227636
1.60124e-05
1.39165e-05
0.00138291
7.6116e-06
2.90073e-05
0.75674
-0.123187
0.00180109
8.38746e-05
0.124971
3.47652e-06
1.85084e-05
5.77693e-06
7.03804e-06
0.00242376
1.33335e-05
-0.0455003
-0.0183114
3.41608e-06
8.02939e-06
0.16865
0.00153351
-0.0346433
3.59976e-06
-0.000121198
1.31177e-05
-4.76276e-06
3.81678e-06
2.02103e-05
0.162737
0.129361
-5.20478
-0.415682
2.51598e-05
-0.000880484
0.0103511
0.000488979
1.85965e-05
-0.163983
9.39247e-06
8.70186e-06
1.86034e-05
0.00256947
4.71832e-06
-7.6403e-05
0.00341106
-0.353867
1.31877e-05
0.271036
0.000586314
6.45569e-06
-5.17547e-05
4.92063e-06
1.19258e-05
9.61639e-05
0.0014598
-9.32614e-05
-0.082335
0.000392017
2.36029e-06
0.0315199
0.0690401
-0.00874855
0.0867467
0.00213344
-8.48697e-06
1.98674e-05
1.15688e-05
-5.77898e-06
0.00159911
0.000215083
-0.000194013
-0.000144895
6.86172e-05
-0.599709
0.00232092
5.00642e-06
0.000227566
0.100232
-1.12405e-05
-0.162819
2.58927e-05
1.60506e-07
-0.208804
1.34975e-05
7.6166e-06
-0.0807273
0.00327138
-0.00117406
-0.301664
4.8517e-06
-1.04463e-05
0.0233458
-0.440666
0.000143271
0.00105761
0.00203337
-0.248476
1.09608
-0.000793924
-8.91833e-07
0.00610893
-3.36457e-06
0.00165085
7.98768e-06
-0.392285
-0.000133311
4.9512
-0.000166832
0.000470244
2.461e-05
-0.107572
1.51894e-05
-0.0781979
5.16224e-06
0.059885
4.46386e-06
-0.366093
2.94542e-05
5.17687e-06
7.54483e-06
1.8429e-05
-0.0311929
0.124021
-0.00798541
0.000101855
-5.82297e-05
0.00272693
2.06295e-06
-5.27264e-07
0.242742
7.88453e-06
8.60756e-07
0.00386839
1.44256e-05
0.000925685
0.00262554
7.15594e-07
5.61309e-06
1.21905e-05
-1.08179e-05
8.61719e-05
0.0201423
-0.000432298
6.03471e-05
5.71311e-05
2.6864e-06
0.0210286
-3.25535e-07
7.3991e-06
-11.2204
0.237617
0.00036519
-0.507051
2.04657e-05
6.05806e-06
0.184013
8.28441e-06
0.154872
0.00836772
5.24645e-06
0.0247268
0.0664835
0.00141133
2.81801e-05
0.000495241
0.194234
7.28928e-06
8.76742e-06
-1.96278e-05
-1.21276e-05
1.00288e-05
2.79835e-05
-2.93443e-09
-0.312664
1.11591e-05
-0.140825
3.68209e-06
0.014059
1.01126
5.05629e-06
1.47785e-05
1.69983e-05
7.80748e-06
-7.32062e-06
-6.17748e-06
4.00839e-06
0.00496717
-0.372783
2.07432e-05
0.205074
0.211221
-1.14982e-05
0.00139288
-0.323129
-2.43973e-06
-0.000389675
2.51161e-05
0.201217
1.15203e-05
-0.000156048
-1.75778e-06
1.45254
0.000419776
-0.00691634
0.00568496
-0.0613209
1.54803e-05
4.1857e-06
0.00128722
9.15862
-8.50582e-06
-0.442089
-1.864e-06
-0.0579768
-5.50281e-06
9.73897e-06
1.8431e-05
1.40866e-05
0.21622
-0.04387
4.20772e-06
-0.0229385
9.51265e-05
-0.0217163
0.0055677
-1.09225
-0.686525
1.6062e-05
0.301338
3.10914e-05
-9.36495e-07
0.000199092
0.217032
-0.220342
-2.5592e-06
5.76431e-07
-2.2469e-06
2.85868e-05
-0.102696
0.00445377
0.270406
-0.00379567
3.08682e-06
7.81878e-06
0.00119573
6.73469e-07
1.15519e-05
-5.51499e-06
-1.40013e-05
0.00568536
0.000378383
0.0778215
0.300068
0.000858694
4.78879e-06
8.08455e-06
-0.0122402
0.26801
-0.000217838
-8.41295
0.000962293
4.00661e-06
-0.0236773
0.0149515
-6.03025e-06
1.53813e-05
-0.0596202
0.163183
0.0819546
1.31174e-05
-0.0721658
-0.115225
4.75507
1.53895e-05
-0.0544223
-0.013042
-0.383135
1.42566e-05
-4.56059e-08
-0.0312318
-1.51521e-09
0.00378366
0.112288
-0.00409489
-0.0460488
0.00208971
-0.0557529
0.00161446
-1.09135e-06
5.88903e-07
0.140136
-0.100046
-0.0353199
-0.147677
8.31811e-06
0.00614755
4.38954e-07
0.00131897
0.00167212
0.0136219
5.1021e-06
-9.86049e-06
3.48299e-05
0.190419
0.117934
-0.0321333
0.000339653
0.000106675
0.0221521
5.14652e-07
1.16811e-05
7.58335e-06
-0.000127604
0.000420337
1.61728e-06
0.00139668
1.19008e-05
1.96441e-05
1.29466e-05
0.292816
2.21281e-07
2.58202e-06
0.00102613
0.000973436
2.25097e-05
0.234571
7.4202e-06
1.75693e-05
0.000979245
0.000101567
-6.84296e-05
3.47725e-07
3.31072
4.5601e-05
0.000149875
0.00497907
0.000152084
-0.145286
-0.0005031
0.00471372
-0.319329
-0.0976675
1.39606e-05
0.196537
0.0470457
2.06995e-05
0.00803056
3.23514e-06
1.33862e-05
0.000354746
1.14226e-05
0.00250225
0.249277
1.52621e-05
-0.458285
1.69353e-05
0.000338438
-0.100455
2.15532e-05
0.200279
-1.90014e-06
9.21456e-06
6.98417e-06
6.90892e-06
0.0067419
0.00465907
0.318329
0.00163209
0.0704342
0.00125855
1.03769e-06
0.0136172
-0.0112886
1.52023
0.00464996
0.0408231
-9.20485e-05
6.10668e-05
0.0122477
-1.55776e-06
-5.10107
1.46148e-05
-0.0435765
-4.81805e-06
0.00216809
8.50757e-06
8.09361e-06
0.00132297
5.85063e-07
1.20426e-05
-1.25425
-1.83994e-06
1.20263e-05
0.000301883
0.00337139
-0.00418973
-6.03806
-0.180808
0.112396
8.15685e-06
-8.89512e-08
-0.0536747
2.45573e-06
-4.52948
0.00235584
1.26259e-05
4.13854e-07
0.000148092
-4.22647e-07
8.88561e-06
-7.32394e-05
-0.519145
0.101396
-0.408779
0.000513172
6.743e-06
0.000565136
-0.0755913
1.24979e-05
0.00175618
-1.44971e-07
0.237338
-7.78967e-06
-0.260959
1.62698e-05
-0.170775
9.66276e-07
0.00231049
-1.39894e-06
-0.000109857
-0.000343118
2.0792e-05
1.64659e-05
1.93698e-05
-0.0134169
0.898849
-9.26004e-05
0.200972
3.25422e-06
0.000178401
6.04733e-05
0.0266819
-0.126738
-0.000113808
1.86708e-05
-0.00869349
1.24804e-05
3.42458e-06
5.2079e-05
0.246728
-0.301341
1.04955
-0.968792
0.00953888
-1.03914e-06
3.31057e-06
14.4157
1.30053e-05
0.487339
7.0355e-06
-4.57833e-08
0.311839
-0.0439483
1.72157e-07
0.351741
6.19119e-05
-0.000182793
0.00322337
-0.446945
-0.0209045
-5.88939
1.9627e-05
2.93423e-05
0.296121
7.78123e-07
8.12515e-06
2.05342e-05
4.42771e-07
-0.0215242
-0.042248
0.00123699
0.0369848
0.000644574
0.00280421
-9.93709e-07
1.26382e-05
2.62431e-05
1.67056e-05
0.263778
-0.157358
-0.0117198
4.25074e-07
1.93465e-05
-0.000373044
4.34085e-06
0.000385096
-6.1974e-06
-25.8088
0.27282
0.00161636
0.0217478
-0.0250334
9.39553e-06
0.018059
2.78839e-06
-0.142456
0.0654901
-0.285836
0.0350112
-1.63186e-05
-8.49277e-05
-1.90749
0.0212565
-0.352768
-0.0049427
-2.90331e-05
0.135447
1.31881e-05
0.0386355
0.382479
0.00142869
1.42004e-05
7.33969e-06
0.000375062
-0.0219286
0.0197773
-0.000275423
3.08379e-06
-9.10812e-05
3.26847e-05
-0.169436
6.88717e-06
-0.305892
9.78152e-06
-1.09904e-05
-0.0169455
1.19314e-05
4.53072e-06
9.38482e-06
2.39665e-05
1.29442e-05
-8.48415e-07
1.51685e-05
-0.309921
-0.352153
-0.149081
1.48639e-05
0.000662502
8.3911e-07
0.00910695
0.0518138
0.000166612
9.35839e-06
-8.75064e-06
0.249666
0.00420047
4.07173e-05
0.129735
0.00117031
4.51144e-06
3.08108e-06
-0.121987
0.0178932
0.00155731
1.78163e-05
-0.993581
6.88703e-06
0.000295623
1.41314e-05
-1.18726
-0.171784
1.42161e-05
8.83173e-06
0.230587
3.42375e-06
0.016546
0.190676
0.000478896
8.97516e-07
8.74388e-07
1.38091e-05
1.80929e-05
0.779398
0.774661
0.0228747
5.27651e-06
0.0347899
2.42406e-05
6.16485e-06
-0.0937236
9.99607e-06
0.317432
2.21631e-05
1.00132e-05
-6.90433e-06
6.32849e-06
5.06664e-06
7.9425e-06
0.0856635
7.48004e-06
-2.48897e-08
-0.0408692
0.000363837
1.03255e-05
0.0011166
0.000216296
8.97004e-06
-0.0489213
1.31133e-05
0.000148438
-0.282448
-0.000171884
6.05117e-06
-0.00729358
0.000924984
0.0028455
2.63145e-05
0.000935959
0.0410677
2.41626e-05
0.00129785
7.27554e-06
1.90026e-05
6.89573e-06
-0.000488778
0.000226071
-0.000205696
1.00232e-05
3.53238e-05
-4.59051e-05
0.0412728
0.0175567
7.29212e-06
1.06145e-05
-8.54325e-07
0.00229593
1.15443e-05
0.207754
6.56782e-06
4.51363e-07
1.07229e-05
0.0403259
0.0874773
6.81263e-06
2.47025e-06
1.33776e-05
0.00249695
1.52402e-05
4.32016e-06
-0.483138
2.27079e-06
1.77552e-05
3.14406e-06
0.0325511
1.59524e-05
7.64322e-06
-0.0112663
0.495663
0.251132
-0.000489433
0.145782
1.0327e-05
6.70557e-06
7.88396e-06
0.782659
5.43681e-06
0.00141929
0.0019368
0.000455251
-8.90618e-07
5.7678e-06
8.65127e-05
-7.66049e-06
1.79719e-05
-0.0837411
0.276956
0.000239956
1.70245e-05
-0.00697865
0.00012497
-0.0324164
2.60023
8.96164e-05
6.75428e-06
2.76831e-05
3.0815e-05
0.000515097
5.76706e-06
5.14274e-06
-0.114355
-0.122394
-0.000483425
8.05368e-06
0.000218911
-0.0438238
5.16508e-06
6.25187e-05
0.000177998
0.081565
0.0017152
-2.30721e-06
1.1186e-05
0.000316551
1.55082e-05
0.000350161
-6.24996e-06
-36.4674
0.00131388
-0.00958182
9.57413e-06
0.000309839
0.0545114
-0.136799
4.06559
0.000503573
0.224487
6.28097e-06
6.93965e-06
7.79021e-06
0.00309533
7.53013e-07
-4.4814e-07
0.00015688
0.000414267
1.13295e-05
1.02775e-05
7.62728e-06
1.30236e-06
-0.161369
-0.0758389
-0.649519
4.21051e-06
0.207564
5.98598e-05
6.8066e-06
-0.000161044
3.03662e-05
0.003186
8.28199e-06
3.12889e-06
-0.0691932
0.793477
0.0170244
1.69719e-06
0.967567
3.5869e-06
-0.0123379
-0.101608
2.93707e-05
0.000759231
-0.0394669
1.77138e-05
1.37625e-05
2.17978
6.52409e-06
4.80851e-06
0.00561249
-9.61415
1.83283e-05
4.89128e-05
6.9177e-06
-2.00697e-06
0.00461876
6.80045e-06
-0.10431
0.000136344
1.02915e-05
-2.65845
-0.000103943
0.00215791
1.45979e-06
0.00684685
-3.56934e-06
0.278442
3.3553e-06
8.59948e-06
-0.32447
2.14082e-05
0.0736995
1.03823e-05
0.0010811
-0.0380827
0.212628
-1.33252e-06
-1.99707e-06
4.41907e-06
-5.91353e-06
6.13948e-05
-4.99222e-05
2.54254e-05
-0.0832857
9.83625e-06
7.8779e-06
0.0201953
-0.0102984
0.000262637
1.68014e-05
0.509187
0.00277537
7.73511e-06
6.13263e-05
6.95723e-06
9.92892e-06
-0.101677
1.79306e-05
9.24776e-06
7.44597e-06
0.0806634
1.27348e-05
5.29702e-06
0.27256
1.5888e-06
0.0581353
-0.000141508
2.80567e-05
1.38615e-05
0.48836
-0.000138966
9.73311e-07
-0.0369085
0.102478
1.62612e-05
-0.0143713
0.000185251
1.24673e-05
3.41392e-06
-0.00694072
2.74899e-06
-0.29347
0.000149912
1.51739e-05
2.00369
-0.39903
0.0221028
3.9394e-06
-0.115325
7.995e-05
0.204014
-0.81423
6.96689e-06
0.00996876
4.85254e-06
1.5773e-05
-0.000149003
0.183958
2.10887e-05
4.54396e-06
-0.357471
1.15211e-06
-6.87348e-06
2.25186e-05
-2.36161e-06
0.125904
0.00306643
-3.68827e-06
0.000296324
0.878002
1.71377e-07
1.13305e-05
0.00112536
0.00376337
-5.09019e-05
5.19012e-06
8.03887e-06
7.03569e-06
7.6891e-06
1.52467e-05
4.85732e-05
7.43052e-05
3.68592
1.12389e-05
1.63676
-1.52767e-06
-0.000164576
9.60489e-06
8.42859e-05
-2.18609e-06
6.04841e-06
-0.0393668
0.0585485
2.01068e-05
4.73122e-06
0.102579
7.31215e-05
-0.333157
8.93608e-05
-0.00696885
-0.00464162
-0.0973032
-0.0958737
-1.58101e-05
1.06905e-05
1.52012e-05
-0.131748
6.97254e-06
4.94897e-06
0.00129638
4.49708e-06
5.46967e-07
1.72553e-06
0.251512
-0.761983
3.96809e-06
0.278608
0.254325
-6.81435e-06
2.22156e-05
-8.1101e-07
0.0216517
1.7008e-05
-0.000231019
1.04087e-06
1.23562e-05
8.53735e-06
1.13994e-05
0.00198931
8.01711e-06
9.71426e-06
9.39656e-06
3.07572e-05
-0.0775934
1.87329e-05
1.03725e-05
5.66026e-06
5.72094e-06
-0.0118047
-0.999883
0.000217428
-9.79598e-06
3.84297e-06
4.98189e-07
2.27066e-06
0.00260208
6.20868e-06
7.18714e-05
0.0016277
0.0331309
1.12402e-05
8.32481e-06
-0.188572
7.05567e-06
0.00122136
0.00262085
7.67919e-06
-0.0736083
0.0210229
5.81795e-05
0.01498
5.73143e-05
0.000807548
1.7251e-05
4.07875
9.4302e-06
-15.2716
2.52328e-06
5.65896e-06
-0.112457
9.45949
0.107793
-0.26731
9.23903e-06
0.0183207
3.21572e-06
0.309546
0.00100988
1.4579e-05
1.76057e-05
1.79231e-05
0.000920364
0.00107072
0.271633
-6.78935e-05
6.80066e-06
2.5328e-05
1.20119e-05
0.306898
0.00220022
8.84927e-05
5.7168e-06
8.67896e-06
9.76989e-05
-0.079018
1.68003e-05
9.02555e-05
0.00142218
6.16179e-06
-9.57418e-06
-2.42702e-06
0.00129375
0.00156383
2.60471e-05
0.00164617
1.7983e-05
5.95842e-06
0.204056
0.000365351
0.00283563
-0.0658264
1.70956e-05
0.268936
0.668252
0.00415774
0.323037
5.92375e-06
0.00897616
0.0400114
0.00199754
2.25356e-05
-0.328753
0.00555452
9.2039e-06
0.00019705
-0.294123
-6.89897e-06
9.65113e-06
0.000314402
2.00904e-06
0.162335
7.79094e-05
1.0788e-05
1.08927e-06
9.49444e-06
0.000521267
-0.00033977
0.251433
0.00107774
-0.0849383
0.00133121
8.46016e-07
6.55708e-06
-0.156829
0.771535
2.08929e-06
3.9261e-06
0.00608786
7.19804e-06
-0.0245154
0.0423918
0.0403932
4.78855e-06
4.24493e-06
0.302696
9.02179e-06
0.262308
-0.565413
1.28638e-05
0.0405023
0.00136607
-0.00375235
2.75165e-06
0.228594
1.06866e-05
0.0247541
2.47358e-05
0.000578954
-1.24453e-05
1.40228e-05
-0.166312
-5.94128e-06
4.95732e-06
1.17306e-05
-0.0337452
5.53946e-06
1.8892e-05
0.03982
7.17358e-06
1.47709e-05
6.73635e-06
-0.00010297
1.37585e-06
-7.4147e-08
4.32508e-05
-1.3121e-07
5.26538e-05
1.828e-05
0.00899949
-0.0974431
0.00352259
-0.0125839
-0.000150733
-5.87364e-07
7.64266e-06
1.51481e-05
6.95003e-06
-0.00898848
-0.00857921
8.76164e-06
1.02783e-06
8.10288e-06
-5.54034
1.86447e-05
0.0253853
-0.109377
0.00956434
0.042266
0.0212183
-0.0361244
1.90666e-05
-0.0120482
0.0833607
0.0420954
1.57491e-05
2.02075e-06
-0.000195854
2.98746e-05
-0.0513519
0.00330797
0.00135718
5.97598e-05
0.135012
9.02148e-07
2.89342e-05
0.0663455
0.00512359
-9.27513e-07
2.48996e-05
-0.000183845
6.79635e-06
0.0992525
2.55871
0.140353
-0.113368
0.00145689
0.774082
1.16182e-05
0.0116624
3.44228e-06
4.49535e-06
1.69527e-05
-0.0903978
4.7167e-06
6.58917e-06
4.91784
-0.135021
-0.171636
0.00523263
6.51635e-06
0.000354562
0.193179
0.225067
0.0138518
-0.18147
0.00233807
0.0559805
-0.0183108
-0.0295746
0.000947238
-0.000426517
8.26441e-06
6.39007e-05
-0.000329332
1.7476e-06
-0.0316788
2.8653e-05
-8.57455e-07
3.57626e-06
0.323294
3.53193e-05
1.54438e-05
5.39881e-06
3.27387e-06
0.00275541
0.00194783
0.231794
-7.54245e-06
-0.0772991
2.154e-05
7.7326e-06
0.00273255
0.00218861
2.52541e-05
0.00836041
-8.17735e-06
0.225839
9.24226e-06
-0.332718
0.00165967
7.44394e-06
9.1779e-07
4.50498e-06
0.119932
0.263817
0.0198124
1.96445e-05
-6.72317e-06
1.99477e-05
0.23546
0.000141253
4.79177e-06
0.106561
6.72002e-06
6.43468e-06
-0.00362465
1.82836e-05
5.46863e-06
4.26009e-06
2.38606e-05
1.79607e-05
3.10261e-06
2.64988e-05
-1.55898e-06
0.00162789
0.000407164
1.46321e-05
0.195039
2.66243e-06
0.27955
0.219861
0.000238161
-0.282393
0.233784
7.81761e-06
-3.02964e-05
1.05865e-05
5.49646e-06
1.45131
1.22995e-05
0.0217958
2.21473e-06
0.00090847
-7.48e-07
-1.15596e-05
9.96191e-06
0.00795103
-3.22977e-06
-0.16925
7.7678e-06
0.00801154
-0.000124008
1.81578e-05
0.00013917
0.000118344
1.80145e-05
-0.125411
-2.10027e-07
-0.000119669
8.96476e-06
7.60277e-05
0.000490368
-0.00909116
2.73049e-05
0.00133397
-2.76819
8.77968e-05
-0.000420594
1.71604e-05
0.288408
0.00117852
9.12846e-07
0.00173144
-10.7903
1.09903
2.43963e-06
6.21933e-06
6.20623e-06
1.82859e-05
4.29392e-06
0.0517068
-6.11545e-05
4.90083e-06
0.169311
4.16277e-06
1.87251e-05
3.33925e-06
0.256519
1.30935e-06
0.0601556
-0.0826367
0.00715154
0.114075
-2.7597e-06
0.237731
-0.061046
2.73787e-05
-0.000106477
3.32098e-06
2.19505e-06
9.00452e-05
-0.0151636
0.000806136
3.35039
0.205379
4.33065e-06
0.02951
9.98864e-06
-0.0329578
2.15752e-06
0.0991631
-0.125225
4.14998e-06
9.87811e-06
-1.43946e-06
-0.000113363
0.00278135
1.15801e-05
1.19487
-1.68938e-05
-0.000454162
0.00105197
8.89485e-06
2.37379e-05
-0.192682
8.65887e-06
-0.00325805
-8.61113e-08
0.597111
1.2929e-05
5.83503e-06
-0.0603837
2.85455e-05
1.67663e-05
7.27847e-06
0.00128418
0.000796944
0.0159107
-8.45522e-06
1.06068e-05
4.45518e-06
7.31229e-06
-9.88506e-06
-0.00182598
2.35922e-05
0.000466068
-0.267674
0.00524582
6.15106e-06
0.00283577
2.9349e-05
-6.73088e-07
0.118802
0.134805
0.00285501
3.3588e-06
5.56229e-06
1.96561e-06
0.00170161
4.14089e-06
-0.000329262
4.73078e-06
6.28482e-06
1.46849e-05
9.70307e-06
0.00274466
2.36599e-05
-0.266851
0.100624
3.43591e-05
1.4041e-05
0.0337083
-0.29055
3.00297e-05
3.45784e-06
-0.385504
-6.46688e-06
-0.00388134
0.0111025
-4.29736
8.36544e-06
-9.34217e-06
0.00078938
3.05908e-06
0.255201
-0.031885
7.86955e-06
0.00011583
0.000296561
4.59158e-06
0.0131976
4.80913e-06
-0.000163395
6.8085e-06
2.53631e-05
2.63857e-05
3.72159e-06
0.0270261
-1.10351e-06
-0.229815
-0.000182918
3.96925e-06
4.33728e-06
1.10105e-05
7.89484e-06
-0.0929166
1.16731e-06
0.00503185
1.19702e-05
2.70228e-05
0.00107197
0.206768
1.67102e-05
2.15807e-05
4.93604e-06
-1.78242e-06
0.000113984
0.000109089
-0.207255
-0.000251098
1.75008e-05
-7.79478e-05
0.152476
-6.26752e-06
4.7216e-05
-0.0196525
0.000272183
4.58166e-06
-12.7296
1.85523e-05
0.054115
-0.00045791
3.77373e-06
0.000402023
8.45077e-06
7.80214e-06
8.22321e-06
-0.0935794
3.58326e-06
-1.07293
0.16354
-0.0442772
-0.000301768
1.30511e-05
0.0328155
4.28399e-07
0.528071
1.0639e-05
-0.00944575
-2.99486e-06
-4.01826e-05
-8.27328e-06
0.087702
5.16283e-05
4.10087e-06
0.0938078
0.0536326
2.0648e-05
-1.19301
1.057e-05
0.000112221
1.02661e-05
0.0761659
0.300329
-7.34495e-06
-2.98566e-06
0.0806177
-0.000284074
1.52536e-05
-1.1523e-05
4.19893e-06
1.80077e-05
1.33291e-05
-9.90635e-06
0.0594604
0.239979
-8.77909e-06
-0.00311016
-4.0171e-05
-0.00026829
9.02738e-06
-0.0181916
0.128402
0.191446
-5.60643e-07
-0.0393732
0.194094
-5.98755e-06
9.38004e-05
7.86e-06
-0.000797678
0.0913341
5.2641e-06
1.38625e-05
1.19615e-05
3.5271e-05
2.08848e-05
3.52242e-06
0.700492
-1.11987e-05
-0.00713496
3.6917e-06
9.33861e-06
3.39968e-05
9.43525e-06
0.0035413
-0.410156
2.24965e-05
4.85576e-05
1.74176e-05
0.273949
7.66637e-06
-8.54433e-06
-0.00872913
-3.50372
-4.82188e-05
0.62052
-0.0437464
7.36505e-07
0.000447131
-2.01175e-06
-6.6872e-05
4.81024e-06
1.00008e-05
0.00639543
0.00439554
0.0100291
0.00170434
0.000626438
3.78472
-2.16006e-05
0.000430524
-2.31697e-06
-0.0933541
0.00204353
0.217468
6.17087e-06
2.6367e-05
-0.0147334
0.104363
2.49093e-06
0.0264957
3.18099e-06
5.7284e-05
2.5215e-05
7.9879e-06
9.83597e-06
6.7921e-06
0.0435428
0.000181012
0.000276654
1.97998e-06
3.48951e-07
2.38041e-05
1.51163e-05
1.82071e-05
2.04218e-06
8.49523e-06
0.0716729
-0.0116872
0.0765596
1.2641e-05
0.0235055
0.00117797
0.174367
0.028417
0.00118563
8.92537e-06
1.7232e-07
0.00526746
-8.78784e-06
-0.0362348
-0.0336992
6.45424e-06
2.27655e-05
-0.00028491
0.113883
5.76052e-06
-0.408028
1.06408e-05
6.87686e-06
0.0710108
7.78767e-06
1.01368e-05
6.53473e-06
-0.0867188
1.87607e-05
6.42357e-06
0.0136263
1.47577e-05
9.23989e-07
2.05829e-06
2.03216e-05
-0.00630567
7.05302e-06
0.407088
7.96712e-06
2.18575e-07
1.94173e-05
0.222548
0.000202715
-5.92387e-06
-0.0901143
4.42399e-06
1.71846e-05
-0.00565727
0.0916222
2.48577e-07
-0.142314
0.316319
4.86869e-05
-0.0169379
8.49783e-06
8.15283e-06
-5.18573e-05
1.29925e-05
-0.205298
0.102741
2.22445e-05
-0.000133275
4.92815e-06
0.0426306
-0.897967
0.000235704
2.94566e-06
-0.0683511
6.58588e-05
0.000828414
6.10118e-05
1.78432e-05
-1.4338e-06
7.01746e-06
1.21263e-05
0.00918581
2.39806e-05
1.23847e-05
0.000424692
0.79394
0.00120733
-0.335832
1.86017e-05
9.95322e-05
9.59384e-06
9.05058e-06
1.19243e-06
1.23193e-05
2.97654e-06
8.49099e-06
4.59586e-06
6.6615e-06
-3.44628e-05
-4.3468e-07
7.02644e-06
2.8095e-05
0.115277
-0.0450169
5.83526e-06
-1.45968e-06
0.127177
5.19677e-06
0.00114104
-0.0989741
-0.762967
0.135492
0.0693489
0.163199
6.89805
-0.0857121
1.23939e-05
0.00011363
5.8549e-06
0.000659681
2.23211e-05
2.61848e-06
9.28558e-06
-0.0763033
1.50158e-05
3.16281e-05
-0.397206
1.69503e-05
1.07223e-05
0.00107516
1.89578e-05
2.99313e-06
2.68309e-05
3.39966e-06
0.103073
0.126518
5.8929e-06
6.37141e-06
1.09521e-06
-6.85859e-06
-0.00019876
4.47884e-06
-68.7809
-0.057357
2.11979e-06
-0.102844
-6.93346e-05
6.55765e-06
-0.367209
1.82592e-05
-0.000805843
1.59122e-05
2.10702e-06
-6.08734e-06
0.0627352
4.91032e-06
1.16201e-05
-1.91916e-05
6.4397e-06
9.93218e-05
8.72494e-06
-0.046116
0.00040925
-0.000453478
4.20918
0.28722
0.00232091
-0.000135186
0.0243416
-1.12997e-07
7.89442e-06
-7.86161e-06
0.0964394
-0.000787801
0.000616851
-0.109837
1.10683e-05
13.0483
0.101691
1.65471
8.21619e-07
8.38142e-05
7.52068e-06
0.00471724
-0.000124518
0.0833986
0.231041
8.02135e-06
0.000272591
8.09142e-05
9.26492e-06
3.88759
3.75445e-06
-0.00027626
-0.000507393
0.0028988
5.67313e-06
-2.00373e-09
2.51615e-06
0.00110798
1.75263e-05
4.37882e-06
4.55899e-06
8.84307e-06
1.49315e-05
0.000181558
2.61992e-05
-4.31163
0.0219295
-8.5142e-06
9.38762e-06
1.75745e-05
0.000231268
0.000458658
2.87168e-06
0.0977342
0.0030065
1.06971e-05
2.25288e-05
-0.194161
0.0190636
1.41903e-05
0.00283213
3.4931e-05
3.62831e-06
0.0723995
3.4188e-05
0.00169557
3.90232e-06
0.0947721
0.316197
2.41802e-06
6.57138e-05
0.0526406
0.000214351
0.260792
3.26964e-06
5.88279e-06
0.0913146
0.0217246
8.80988e-06
-3.82289e-06
-2.12233e-06
9.7996e-06
-1.25086e-05
0.0445339
0.02061
-0.0097157
-2.9053e-05
1.82328e-07
0.000618808
2.5659e-06
0.206856
2.90377e-05
0.0206652
1.89815e-05
5.44552e-06
1.35578e-05
8.8436e-06
1.48007e-05
0.00167258
-0.0308785
5.41911e-05
1.65856e-05
5.94305e-06
0.113963
1.0514e-07
1.57967e-05
6.54248e-06
0.000214634
-0.357485
2.20254e-05
7.69456e-06
0.000144298
0.00274127
6.40932e-07
0.000357797
1.85467e-07
3.27989e-07
0.000961298
1.57722e-05
0.0238248
0.688693
0.00454693
-0.205103
1.43339e-05
2.10857e-06
8.05282e-06
-0.038083
-1.16816e-05
-0.468974
2.79338e-05
0.0664512
0.000240245
7.87599e-06
0.000113252
-7.43794e-06
0.233276
0.00113364
8.2816e-05
-0.269733
0.00183376
5.64887e-06
9.19981e-07
4.37503e-06
-9.08121e-06
0.0453448
-0.000325924
3.39249e-06
0.00823169
1.0625e-05
-0.010379
5.79668e-06
-0.0637262
3.75366e-05
-0.0427878
0.0655016
0.00150885
4.46921e-06
9.32638e-07
1.42044e-05
0.29374
1.11737e-05
-2.70226e-05
0.64358
2.62501e-05
-0.176802
0.000101575
5.83798e-06
-0.000154812
1.19169e-05
1.15929e-05
0.111812
-0.0555856
-0.0939212
6.93948e-06
1.27235e-05
-7.81649e-06
-2.77878e-05
5.66453e-06
9.05564e-06
0.116196
-0.00023081
-0.404172
3.88033e-06
0.000246519
-3.5867
0.0602352
3.48704e-05
9.07604e-06
0.0738237
2.71054e-06
0.060087
5.78239e-06
8.16173e-06
2.43723e-06
1.067e-05
2.65153e-05
7.55487e-06
1.78822e-05
2.1957e-05
-0.00149098
8.21974e-05
0.0276762
-2.59527e-06
9.13857e-07
4.22505e-06
-0.0587932
5.49512e-07
2.98735e-06
5.85415e-06
0.0232858
-0.0400007
1.84079e-05
-3.99572e-05
7.36553e-06
2.84699e-06
1.52179e-07
3.0745e-06
7.49103e-06
1.8083
-4.35052e-06
8.51725e-06
0.00468987
8.48037e-06
-0.242937
0.00124385
1.00812e-05
0.0105026
-2.94275e-05
1.70333e-06
0.114362
3.73784e-06
-0.000370412
-0.000281012
7.42554e-06
0.000656364
1.07854e-05
-0.136779
1.6394e-05
8.84467e-06
0.321759
0.00116106
0.231126
1.94782e-05
0.00268454
0.0118636
5.59164e-05
-0.0453412
1.47927e-05
1.00913e-05
1.55241e-05
0.00157812
3.86367e-07
-0.247865
4.92474e-06
-8.74219e-05
-0.294793
-0.00179434
2.00229e-06
-0.751638
2.32022e-05
-0.040673
-1.12982e-05
-2.87828e-05
-1.55358e-05
-0.072726
4.43832e-06
5.99568e-06
-0.16267
1.70188e-05
-2.01215e-06
5.60354e-06
-0.000107243
0.231778
0.0043992
5.03124e-06
0.00204823
4.35144e-06
0.0166802
4.29881e-07
3.51754e-06
-0.000355721
0.396953
0.0001891
7.55756e-06
8.07534e-06
-0.0313801
0.0010563
0.00196553
0.190584
4.80132e-06
0.723575
3.38979e-05
0.0176095
1.23415e-05
1.83156e-05
-0.320027
-3.99265e-06
1.00652e-05
0.124909
0.0417187
0.230831
1.38857e-05
-0.00935571
-0.196348
2.06608e-05
0.0119858
0.0491364
6.95669e-07
-1.24464e-05
-0.176172
2.19119e-05
-5.48533e-06
1.78631e-05
1.19781e-06
0.00445611
0.00281416
-0.000459442
-0.0138143
9.25531e-07
0.0170125
-3.90121e-06
-5.42095e-06
-6.13314e-06
-0.000421587
-8.31112e-07
4.02231e-06
-0.146977
-0.142125
-0.135816
1.21195e-05
0.000263903
5.70446e-06
0.0453975
1.56217e-05
0.000455496
-0.0401809
0.00470222
0.00108464
8.49702e-06
-0.594078
-0.0931254
0.189658
4.64378e-06
2.55889e-06
1.14528e-05
0.177152
0.000289331
0.0111416
-0.270981
3.23866e-06
7.07451e-06
0.112079
5.41831e-06
0.00277881
3.72426e-06
6.63892e-06
8.73962e-07
0.734996
3.31267e-06
-0.000228395
3.1972e-05
4.49684e-06
1.79594e-05
-0.189645
0.0971088
-7.18806e-06
-0.207219
4.71318e-06
-0.0406041
8.50702e-06
9.37243e-06
0.00163347
2.82241e-06
7.37821e-06
-2.68558e-05
0.0022829
-5.5358e-05
0.00543545
-2.94531e-06
0.0012412
0.180558
1.03659e-06
2.94336e-05
3.66439e-06
0.173692
0.000394045
-0.00190751
0.00171522
7.70675e-06
1.17279e-05
-0.00131877
-7.05159e-05
-3.83008
-0.285471
0.000189809
0.124648
0.411037
0.0961549
0.000531146
-5.66207e-06
1.9091e-05
0.043656
-0.159254
1.00579e-05
0.000190019
-0.11256
6.29313e-07
-0.00584286
13.1787
0.00361161
7.66113e-06
-0.000327088
1.74977e-06
2.43003e-07
2.00805e-05
-0.123065
5.38348e-06
-0.000797371
-0.000566746
1.52429e-05
2.10172e-06
-0.018409
9.45408e-06
1.74063e-05
0.000235536
-0.169476
-0.000141765
5.49856e-06
0.000240578
0.0750877
-0.00597399
-6.46851e-05
-0.0727227
0.000719577
-0.00110925
-2.608e-06
6.66561e-06
-0.00288142
-0.00121136
1.43211e-05
1.19599e-05
-7.85206e-06
-5.7071e-05
0.0641828
0.110721
5.03844e-06
-0.945046
0.00114529
-9.98503
-0.485049
-0.0225559
0.0506638
0.0037034
0.00896102
0.000775034
0.109949
0.000320387
1.81257e-06
-3.8109e-06
-0.0687299
-0.0386279
0.00322902
-0.0605444
6.08043e-06
-0.022888
0.066152
8.18222e-06
2.27249e-05
0.00026002
0.00130942
-0.00754662
0.274449
-0.0128368
2.37103e-05
8.4528e-06
4.53782e-06
-0.206968
-1.42826e-05
-0.0591866
-5.63579e-05
-0.513936
0.00892907
-0.0443638
-6.67383e-05
0.08499
1.087e-05
3.06097e-05
6.63537e-06
3.79151e-06
-0.340638
0.00499394
0.0350579
1.07878e-06
0.0777097
-0.0175211
2.65474e-05
0.000230665
0.111852
0.000345717
2.26513e-05
-0.000121385
8.62733e-06
0.140899
2.37818e-05
-8.09128e-06
-0.329817
-2.97094e-05
0.00200059
-9.7924e-05
2.21339e-05
6.60582e-07
0.000298748
6.95708e-06
1.58592e-05
1.74719e-05
-1.2228e-05
0.118754
3.6809
4.44252e-06
-0.00236804
0.135399
3.82707e-06
0.229297
0.138172
3.13211e-05
-0.470672
1.41476e-06
0.003127
0.0472097
4.37674e-06
2.15251e-06
-1.9277e-06
-8.92578e-05
4.86764e-05
1.77972e-05
0.270998
-6.61608e-07
-0.430101
1.30783e-05