/*--------------------------------*- C++ -*----------------------------------*\
| =========                 |                                                 |
| \\      /  F ield         | OpenFOAM: The Open Source CFD Toolbox           |
|  \\    /   O peration     | Version:  v2012                                 |
|   \\  /    A nd           | Website:  www.openfoam.com                      |
|    \\/     M anipulation  |                                                 |
\*---------------------------------------------------------------------------*/
FoamFile
{
    version     2.0;
    format      ascii;
    class       volVectorField;
    location    "450";
    object      ddt0(U);
}
// * * * * * * * * * * * * * * * * * * * * * * * * * * * * * * * * * * * * * //

dimensions      [0 1 -2 0 0 0 0];


internalField   nonuniform List<vector> 
18758
(
(0.0055034 -0.00416763 -3.69179e-19)
(0.0337159 -0.0244268 1.23956e-19)
(-6.09423e-05 -2.63902e-07 -3.7037e-19)
(0.00500594 -0.0051358 -8.08377e-19)
(-0.0068105 0.0033044 8.73542e-19)
(-1.22337e-05 -2.07889e-07 -2.52596e-20)
(-4.62956e-05 -4.43955e-05 -7.05087e-20)
(-0.00129899 -0.00043108 -3.90117e-20)
(-0.00623137 0.00235941 -9.14345e-19)
(-0.00606866 0.000671174 -1.88385e-18)
(0.0210481 -0.0262045 2.57516e-20)
(-0.0294938 -0.215199 -7.58931e-19)
(-0.0497699 -0.0129048 -6.18553e-20)
(0.000328097 -0.000643896 7.97165e-19)
(-3.95544e-05 -1.97015e-05 -4.14365e-20)
(-0.000102178 4.85575e-05 -9.67613e-20)
(-0.0411781 -0.187108 2.0444e-18)
(-1.20036e-05 -4.73236e-05 1.41785e-20)
(-5.37471e-05 -1.50721e-05 2.72017e-19)
(0.00131293 0.00316411 -6.93334e-19)
(0.0736858 -0.0423277 1.4911e-19)
(0.0839382 0.0727926 5.79875e-18)
(-1.31788e-05 9.99892e-07 7.32804e-20)
(-6.02422e-05 9.29175e-06 2.40802e-19)
(0.0763092 0.0803721 3.00978e-17)
(0.106865 -0.017965 2.19803e-18)
(-0.0198285 -0.00566963 3.7069e-18)
(-0.0212152 -0.0675164 -1.5257e-18)
(0.0317418 -0.0154486 -3.98995e-18)
(0.0504851 -0.0241232 -1.9546e-20)
(0.0198929 0.0830949 4.00456e-18)
(-0.0308285 0.0175239 7.01759e-18)
(-0.00117987 -0.000352385 -5.00801e-21)
(0.00888622 0.110158 1.36449e-17)
(-0.00637408 0.00547574 -3.06998e-19)
(0.0512401 -0.0276883 8.10841e-20)
(-0.0468167 -0.0207901 -1.65732e-18)
(-0.00590163 0.00454555 5.21709e-19)
(0.0652591 -0.0306781 1.00649e-17)
(0.000348106 0.000163877 3.04142e-20)
(0.000912556 -0.168976 6.30184e-18)
(-0.0071458 -0.0018907 1.23827e-18)
(-0.0353243 -0.108594 5.66074e-19)
(-0.00131645 -0.000155329 -3.53383e-19)
(-6.47669e-05 7.40862e-06 -2.8639e-20)
(-0.0895912 0.224864 3.14525e-18)
(-0.00605188 -0.00190418 -1.4839e-18)
(0.0288909 -0.0216225 9.72102e-19)
(-0.109442 0.234257 -4.45746e-17)
(0.00216835 -0.00601092 -5.67216e-19)
(0.0248919 -0.0298444 -2.72974e-19)
(0.0900572 -0.0475218 -5.80631e-19)
(0.00134775 -0.00654619 -5.13662e-19)
(0.00268786 -0.00272445 1.07823e-18)
(0.0497646 0.0336435 -1.09077e-18)
(-0.0472719 -0.00803659 -7.4248e-19)
(-0.00019361 0.000368075 4.22577e-19)
(0.00140603 0.00278973 8.71856e-19)
(0.0240659 -0.0223954 -1.53288e-18)
(-9.56696e-05 0.00031194 -5.78126e-19)
(-4.81487e-05 7.05915e-06 -1.44223e-19)
(-0.00123318 5.9455e-05 4.25856e-19)
(-0.0203231 -0.0362281 2.09684e-18)
(0.0131267 -0.322148 6.77732e-20)
(-5.19185e-05 7.46944e-06 1.7752e-19)
(-0.140564 0.169047 5.7003e-18)
(-3.92914e-06 -7.47962e-06 -3.07095e-19)
(-3.59594e-05 -8.89142e-05 8.39682e-20)
(-0.0254959 -0.065637 -3.52856e-18)
(-5.25219e-06 -5.88937e-05 -6.22331e-21)
(0.0799015 -0.0384701 9.60979e-18)
(0.119685 -0.028109 -6.29009e-18)
(4.51977e-05 0.000145819 7.40303e-20)
(-0.00251613 0.00642581 1.06581e-18)
(-0.0180907 0.0529868 -1.02308e-18)
(0.0232869 0.0371967 -1.11393e-17)
(0.106504 -0.0572151 -5.37064e-19)
(-0.0621422 -0.114969 -1.36179e-18)
(-0.00686054 0.00130361 2.75617e-18)
(-0.0457385 -0.0926492 2.4669e-19)
(0.0349534 0.00986985 3.0017e-18)
(0.0343824 -0.0677974 -9.23812e-18)
(-0.0637115 -0.129883 2.71681e-19)
(-0.0144617 0.0247725 1.1346e-18)
(-0.00178421 -0.00152078 -1.99667e-19)
(0.0405863 0.0281003 2.21672e-17)
(0.002527 0.000319148 -1.78427e-19)
(-0.00253154 0.00730653 -1.04935e-18)
(-0.0116447 -0.0354998 5.62134e-19)
(0.0378182 0.0289073 -2.1594e-17)
(0.0363726 0.104522 -7.84919e-18)
(-0.000113787 2.70713e-06 -5.50923e-20)
(0.0229952 0.0085289 -1.80873e-19)
(-0.119474 0.237796 3.43268e-17)
(2.58084e-05 0.00014028 -9.94928e-20)
(3.23321e-05 1.24655e-05 2.22499e-18)
(8.52991e-05 -4.20236e-05 -3.6669e-20)
(0.0187986 -0.0094288 1.41486e-18)
(-0.0403279 -0.11143 3.63603e-18)
(1.08782e-05 -8.66225e-05 5.78763e-19)
(-0.0574085 0.129696 6.76321e-19)
(0.0060295 0.00818242 7.03757e-19)
(-4.01606e-05 -8.3641e-05 -1.17657e-19)
(4.28825e-05 7.38895e-06 -2.12512e-18)
(-0.137486 0.172052 1.5396e-17)
(0.0759594 -0.0406392 6.72075e-20)
(0.0305722 -0.019959 -2.26759e-18)
(0.0241612 0.094994 -1.00427e-17)
(0.134003 -0.115334 4.16436e-18)
(0.0733438 -0.0429299 -2.6335e-19)
(-0.000105168 1.97038e-05 -3.67462e-19)
(-0.0207878 -0.369921 3.25303e-18)
(-0.000358964 -0.00656391 -1.33002e-18)
(-4.164e-06 5.48577e-07 -9.52697e-19)
(0.00689372 0.007771 1.50996e-20)
(0.00666014 -0.129672 -7.90965e-18)
(0.0176047 -0.0104809 -8.87018e-19)
(0.000166875 -4.10533e-05 2.76524e-19)
(0.0680525 -0.114553 1.30434e-17)
(-0.00121873 -0.00281272 -2.73352e-19)
(-2.4556e-05 9.78299e-07 4.82834e-19)
(0.0855319 -0.0963726 -2.28621e-18)
(-0.00149945 -0.00186773 -4.95222e-19)
(1.71681e-05 -0.000177031 7.37051e-19)
(0.0304107 0.135809 7.72194e-18)
(0.00299618 -0.00239104 9.73766e-20)
(-0.000710888 -0.000207339 4.3861e-19)
(1.18266e-05 -0.000175098 -9.47597e-19)
(0.0561825 -0.0226069 2.77548e-18)
(0.101948 0.0244966 -1.6786e-17)
(0.0262024 -0.0206807 1.75196e-18)
(-7.87339e-05 -5.23718e-06 1.58663e-19)
(-0.00465839 -0.00492968 -6.5096e-19)
(-0.0826988 0.182651 -4.49369e-19)
(0.000455641 0.000128485 -3.08567e-20)
(-3.29499e-05 -1.76591e-05 -8.48715e-19)
(-0.0978812 0.38219 -3.44444e-18)
(-0.000690938 -0.0019745 2.25214e-19)
(0.0244334 -0.071691 1.74187e-18)
(0.0347457 0.0075304 -8.98964e-18)
(-0.00140454 -0.00766936 2.90803e-19)
(0.0282513 -0.149735 -2.38501e-18)
(0.0140548 -0.00390992 2.80759e-19)
(0.115586 -0.141295 -6.8708e-19)
(0.0529004 0.118279 -4.8238e-18)
(0.014645 0.00528071 2.32469e-18)
(-0.134193 0.178898 -6.85624e-18)
(0.0504713 -0.0181631 -5.19564e-18)
(0.0248155 -0.0251549 5.49196e-19)
(0.0817169 -0.116967 8.66027e-19)
(0.136391 0.0282751 -2.23994e-17)
(-0.0150549 0.0606408 1.91477e-18)
(3.24748e-05 0.000184203 -3.32344e-19)
(-0.00457326 0.00710623 8.81012e-21)
(-0.00525534 -0.17793 -3.58485e-18)
(0.0773161 0.0629906 -3.0253e-18)
(0.0232253 0.00738282 -1.14645e-18)
(0.0592902 -0.022421 -5.5457e-18)
(-0.00547388 0.0309602 7.91599e-20)
(0.0306537 -0.0269319 1.78998e-19)
(0.171251 0.0105026 -3.9931e-18)
(1.92817e-05 -0.000122223 8.49413e-19)
(-0.104647 0.125323 2.77576e-17)
(-0.131312 0.181033 -2.02965e-17)
(-0.192422 0.361129 2.20733e-17)
(0.000526147 0.000200896 -2.89022e-19)
(3.25163e-05 -0.00013565 -5.89457e-19)
(0.280357 0.0064379 6.35218e-19)
(0.116671 0.026143 -5.26378e-18)
(-0.0126732 -0.246887 9.83726e-18)
(-0.0538679 0.0706343 -1.71978e-17)
(-4.94773e-05 -3.44916e-07 -4.50336e-20)
(0.0354266 -0.0188321 1.07386e-18)
(-0.000110134 -0.0511213 -4.47585e-19)
(0.0952137 -0.0713445 -1.95158e-18)
(4.66556e-05 -2.85774e-05 1.98503e-19)
(2.22787e-06 0.000135529 8.96758e-21)
(0.0982676 -0.00538304 -1.36034e-17)
(0.0677399 0.0805042 -5.59651e-18)
(0.000383026 0.000155197 -3.3095e-18)
(-7.63328e-05 -4.196e-05 1.19137e-20)
(0.00378122 -0.00105424 2.16283e-19)
(0.0491756 0.0301322 -5.97948e-18)
(0.000803436 9.13931e-05 1.25479e-18)
(0.247288 0.0122023 -2.26062e-19)
(-5.04468e-05 4.12787e-05 1.74389e-18)
(0.0537092 -0.0205853 1.08564e-19)
(0.0131107 -0.00480465 1.13233e-18)
(-0.144776 0.254247 3.37577e-17)
(-0.228342 0.351988 1.10833e-18)
(-0.0240946 0.0527901 6.39159e-18)
(-4.51081e-05 2.41442e-05 -1.17854e-18)
(-0.0157387 -0.0396182 -3.86667e-18)
(0.15108 0.0603481 2.33837e-18)
(-7.05442e-05 8.25176e-05 2.46739e-19)
(0.000700042 2.68938e-05 -5.20926e-18)
(0.0267814 -0.0811653 -5.35192e-18)
(2.0215e-05 0.000184496 2.13889e-19)
(-0.159205 0.269035 -1.6465e-17)
(-5.31403e-05 -8.87252e-06 1.47127e-19)
(-0.00135882 -0.00208002 -3.63811e-19)
(0.0638223 -0.0244572 1.21575e-18)
(0.0448504 0.129307 -8.76035e-20)
(-0.000116755 3.60306e-05 9.48027e-21)
(-0.000131636 1.76464e-05 3.29888e-19)
(-0.124378 0.15494 -3.18064e-17)
(3.31335e-05 -5.52825e-05 -1.16524e-18)
(-0.00588476 0.00684315 5.33082e-19)
(0.129087 0.0201372 1.31227e-17)
(0.0446748 0.0224232 4.02764e-17)
(-3.77419e-05 -3.61592e-07 1.46173e-19)
(0.0257234 0.00520004 9.00536e-21)
(-0.00131234 -0.00263909 -3.16714e-19)
(0.00118836 -0.00121786 -2.57736e-19)
(0.00131561 0.00204768 9.65503e-20)
(9.55891e-05 -2.08532e-05 1.33913e-20)
(-0.000168858 -2.58901e-06 -2.06868e-19)
(0.0243624 0.00546149 7.79279e-19)
(-1.2798e-05 8.52066e-07 -9.88116e-20)
(0.0320695 -0.10487 -1.34645e-18)
(0.197444 -0.0342701 5.90278e-19)
(0.000440606 -0.000540689 -2.92508e-19)
(0.0134499 -0.00463591 -1.00603e-18)
(0.0642378 -0.0279764 3.52139e-18)
(0.011997 0.151717 1.49944e-19)
(0.0182073 0.0853059 -7.76647e-19)
(-0.0130046 0.0605839 3.09559e-19)
(0.0296277 0.034334 -6.23455e-19)
(0.205996 0.0192004 1.41888e-19)
(4.123e-05 -7.36711e-05 8.78948e-20)
(0.106207 -0.023087 3.21543e-18)
(0.0146709 0.00428153 4.31327e-18)
(0.0917168 -0.0469438 3.96085e-18)
(-2.83862e-05 -1.36592e-05 1.1044e-18)
(-1.53878e-05 -2.58855e-05 -2.02709e-20)
(0.00059874 -0.000580285 -2.00644e-19)
(-0.0602476 0.0309467 3.46422e-19)
(-0.0828736 0.212937 6.33452e-18)
(0.0301383 -0.0916234 -1.4874e-18)
(-0.00044839 -3.72592e-05 -1.19846e-18)
(-0.000106798 7.67142e-06 3.37841e-19)
(-0.0526181 0.0302149 9.05863e-18)
(0.0210964 -0.0622272 -5.43113e-19)
(-5.89702e-05 -6.97707e-06 5.09354e-19)
(0.0657144 -0.125822 -2.00302e-18)
(0.0675345 -0.0652812 5.07355e-19)
(-1.03515e-05 -8.9632e-06 -7.07751e-20)
(-2.59992e-06 -8.61387e-05 1.98374e-19)
(0.00123538 0.000824512 5.51566e-19)
(2.98935e-06 -9.84207e-05 -7.30877e-19)
(-0.0568449 0.0837313 -6.65598e-18)
(-0.000740295 -0.000592225 -2.69611e-19)
(0.039442 -0.00106747 1.67922e-19)
(0.000632862 -0.000764276 2.65634e-19)
(-1.37533e-05 -2.55361e-06 -1.10863e-19)
(0.047599 -0.096643 1.10548e-18)
(0.00028917 0.000290924 2.64985e-19)
(0.128697 -0.0347064 6.59832e-18)
(-0.000157972 -6.63666e-06 1.40513e-19)
(0.00299378 -0.478865 1.12756e-17)
(0.000727837 -0.00667358 -4.7874e-19)
(2.02487e-05 -0.000170892 -9.14474e-20)
(-2.37846e-05 -7.75173e-06 4.40595e-20)
(-0.016852 -0.0367436 1.18339e-18)
(-0.0159455 -0.0241839 -6.061e-19)
(0.0109707 -0.0330254 7.95731e-20)
(1.43774e-05 -0.000169435 1.8524e-19)
(0.0259606 -0.0665333 3.72691e-19)
(4.18624e-05 0.000180231 3.10476e-20)
(-0.00022664 -0.000162797 -2.34423e-19)
(0.132855 -0.0748334 1.18299e-18)
(0.0993738 0.00643114 -8.97898e-18)
(-0.000174238 -0.000159819 -6.34621e-19)
(7.34753e-05 -9.3687e-05 -1.25911e-18)
(0.000936183 0.00265199 -1.3521e-19)
(0.00125943 0.00176412 1.96078e-19)
(-0.000754619 -0.00432241 -2.15501e-18)
(-1.09195e-05 -1.29449e-06 5.31402e-20)
(0.00147695 -0.00144125 -1.06663e-18)
(0.000257386 -0.000689192 5.39603e-18)
(-2.25936e-06 -8.74458e-05 9.87816e-19)
(-6.88832e-05 -7.35754e-06 -5.75795e-19)
(-0.000103379 -2.0494e-05 -7.97553e-21)
(-0.120592 0.186957 5.67526e-18)
(-4.32737e-05 -3.60864e-05 -2.28069e-20)
(8.61348e-05 -0.000107361 8.18225e-19)
(-1.93256e-05 -4.18555e-05 2.63685e-20)
(0.0228088 -0.0579044 -1.79424e-18)
(3.06873e-05 -1.8302e-05 1.99708e-19)
(3.95317e-05 -1.01857e-05 1.55984e-19)
(-4.79865e-05 -3.293e-06 -6.46685e-19)
(0.000386922 1.18571e-05 -3.13592e-18)
(-0.000249139 0.000313828 7.22116e-20)
(-8.85574e-05 -3.6712e-06 2.64807e-20)
(-6.8108e-05 2.15135e-06 -9.84006e-21)
(0.00217582 0.00159546 -3.8477e-19)
(0.0124579 0.101951 1.54044e-18)
(-0.0001261 -4.55268e-06 2.62297e-20)
(-5.95894e-05 5.36682e-06 -1.90374e-19)
(0.0556054 0.151938 7.48417e-18)
(0.00160874 -0.000887787 3.107e-18)
(-5.56345e-05 2.64887e-06 -2.76785e-19)
(-5.81286e-05 1.37423e-06 -4.7794e-19)
(0.0289228 0.0525992 -2.63203e-18)
(-0.0112882 -0.0297852 -6.81171e-19)
(-7.94876e-05 -2.97483e-05 2.31244e-19)
(0.00973364 -0.00782522 4.51576e-19)
(0.083382 -0.0340646 3.16007e-19)
(-0.00141074 0.000269793 5.14483e-19)
(-0.0480871 6.37586e-05 2.05583e-18)
(-0.000102885 -3.38978e-05 -8.28304e-22)
(0.0219112 -0.0175669 -5.23108e-19)
(0.0285912 -0.0756182 5.49793e-20)
(0.0131228 -0.0448588 2.12683e-18)
(0.0314387 -0.0131924 5.31015e-18)
(-0.00858783 0.116936 1.05323e-17)
(-5.4945e-05 -6.3184e-05 2.50078e-20)
(0.00764716 0.0173081 -5.71129e-18)
(0.0697949 -0.0330891 -1.48997e-18)
(1.41286e-06 -2.9907e-06 3.98047e-19)
(0.0106704 -0.0429739 -1.61565e-18)
(-0.0082161 0.0277917 -7.081e-19)
(0.0689122 -0.1257 -3.34394e-21)
(-1.0399e-05 -7.21915e-05 4.18656e-19)
(-4.95864e-05 -7.36695e-05 1.50998e-19)
(0.0679173 0.0224166 9.89547e-18)
(-0.00394472 0.0031947 -7.83271e-19)
(3.85843e-05 -0.000155946 -4.24502e-19)
(-0.0101463 0.157887 -1.07869e-17)
(-0.044209 0.0225966 -8.80866e-19)
(-0.0067351 -0.00702225 -5.15799e-19)
(-0.0776576 0.178314 1.3134e-17)
(-1.80412e-05 -7.19882e-05 -1.89199e-19)
(0.000451838 0.000333172 6.91366e-19)
(-0.000153049 -1.30724e-05 -5.6536e-21)
(2.46001e-06 -2.93894e-06 7.42681e-19)
(0.00102442 3.62322e-05 1.64649e-19)
(-0.00328504 -0.00237801 -3.97187e-19)
(-0.00129102 -0.000565919 7.51147e-19)
(-2.06674e-05 -3.19542e-05 3.12479e-19)
(0.000898703 0.000106958 -1.55215e-19)
(-0.000451478 -0.000117778 5.48342e-19)
(0.0986003 0.0797426 4.21537e-19)
(0.042533 0.0456009 9.72906e-18)
(-0.000326416 -0.00182059 -8.76535e-19)
(0.00994563 0.0380067 6.31797e-21)
(-0.0431728 -0.0731888 3.56519e-18)
(3.29597e-05 -0.000153317 1.28252e-18)
(0.00740772 -0.0021945 3.62641e-18)
(-0.0189894 -0.0356609 -4.2263e-19)
(0.0573428 0.0845725 1.93663e-17)
(0.0111395 -0.155997 1.44577e-18)
(0.00156587 -0.0956504 7.04309e-18)
(-4.59699e-05 5.65279e-05 -6.08381e-19)
(-0.0359472 0.141604 8.70072e-18)
(-0.00549582 -0.487775 -6.50595e-18)
(0.00996829 -0.0121163 4.34538e-18)
(-0.000398792 -0.000117242 -5.29476e-19)
(-0.00747292 -0.00551794 -6.50041e-19)
(0.00171736 -0.00091115 -4.54578e-19)
(-0.00107927 -0.000265923 2.17257e-20)
(0.031413 -0.0851672 -1.01272e-20)
(0.159701 -0.0089096 -9.53152e-18)
(-0.00946927 -0.148443 9.88638e-19)
(-0.00739559 0.0776157 -5.88237e-19)
(0.0653017 0.137189 8.95952e-18)
(-1.39564e-05 -2.46455e-05 1.49735e-19)
(0.00274274 -0.00142029 -1.00691e-17)
(0.00432086 -0.000963953 2.49011e-19)
(0.0181895 -0.0123583 -1.79105e-19)
(-0.0900466 0.21277 1.73324e-17)
(7.02642e-06 -0.1285 8.20623e-18)
(0.0846291 -0.042005 -2.85552e-18)
(-0.103763 -0.0445667 8.72359e-18)
(0.0103207 -0.151427 -2.56507e-18)
(-0.00228852 -0.100951 -8.81221e-18)
(-1.32384e-05 -2.00268e-06 4.64425e-20)
(-0.13851 0.161003 -2.02362e-17)
(0.0539802 -0.0179955 -8.60868e-20)
(0.00888494 -0.0298681 -2.41332e-19)
(-0.0229464 -0.148639 3.30603e-19)
(6.76035e-06 -9.05269e-06 -2.35139e-19)
(-5.68583e-05 1.03771e-05 1.16688e-19)
(0.0740909 0.0767376 5.20342e-18)
(-0.00365499 -0.165197 -2.1208e-18)
(-0.0530262 0.17165 8.03554e-18)
(0.151454 -0.0793626 -3.09427e-18)
(0.00787875 0.140533 1.51067e-17)
(-0.000470228 -8.06335e-05 3.51064e-19)
(-0.0224112 -0.235555 -3.22402e-18)
(0.0699558 -0.0506962 -4.90715e-19)
(-0.000107339 4.03184e-05 9.24179e-20)
(1.79037e-05 -0.00067729 5.39304e-18)
(0.00195615 0.00142836 -4.0494e-21)
(-0.00160695 0.0020328 -4.17717e-19)
(-2.12479e-05 1.92798e-06 -8.94736e-20)
(0.0019755 -0.000760493 -5.68186e-19)
(-5.05501e-05 0.000134021 -1.22089e-19)
(-6.01751e-05 -3.90405e-06 2.91072e-19)
(-5.6793e-05 -7.11232e-06 -6.30811e-19)
(0.00176006 4.30285e-05 5.7484e-19)
(-0.0117101 -0.0013057 1.24489e-18)
(-0.0105922 -0.289692 4.86492e-18)
(0.00449726 -6.31847e-05 8.48697e-18)
(0.046198 0.271498 2.82391e-18)
(0.0261089 0.28815 -2.1364e-17)
(0.141987 0.0812908 -1.38588e-17)
(-0.0285523 -0.329655 1.47365e-18)
(0.0478868 -0.0275811 -5.31419e-19)
(0.00196957 0.00115969 1.43566e-20)
(-4.66017e-05 1.0073e-05 8.49728e-21)
(-0.0293813 -0.12064 -1.22157e-19)
(-6.08765e-05 -0.000711101 -2.24807e-19)
(-0.000488709 5.08584e-05 4.14452e-19)
(-0.10469 0.093835 -1.13687e-17)
(0.0169582 -0.0132964 1.65391e-18)
(0.0242552 -0.0554024 -1.515e-18)
(0.00020448 0.000388571 -5.88018e-19)
(0.0990946 0.104493 -9.06436e-19)
(-5.81222e-05 6.85956e-06 -8.44517e-21)
(0.00166382 -0.00102012 7.00327e-19)
(-8.39551e-05 3.03098e-05 5.09663e-20)
(-0.179664 0.275826 2.67889e-17)
(0.00668302 0.00377434 2.2266e-19)
(0.014113 -0.168852 -1.77909e-18)
(-6.97159e-05 1.33734e-06 6.81306e-19)
(-0.0796948 0.179584 6.86902e-18)
(0.0205826 0.0099707 4.08094e-18)
(-0.000147025 -1.32699e-05 -1.53502e-20)
(-0.00106614 0.00214136 9.98945e-19)
(-3.78208e-05 -2.4962e-06 5.79751e-19)
(0.0910302 -0.0396888 1.98164e-18)
(-4.49369e-05 2.57851e-06 -2.17185e-19)
(-8.85779e-05 -6.21613e-06 -1.45112e-19)
(-0.179493 0.29056 -5.15325e-19)
(0.00464177 0.000222971 -6.99898e-18)
(-0.000510912 8.91831e-06 1.27296e-18)
(5.09898e-06 0.0001325 3.21192e-20)
(-0.0012979 5.58544e-06 -9.88113e-19)
(-0.00326143 -0.000655822 8.99941e-20)
(-0.145368 -0.497118 -1.10779e-17)
(0.0366222 -0.0448495 -2.81676e-19)
(-1.25509e-05 3.91074e-07 1.17958e-19)
(-0.14478 0.164037 -5.75961e-18)
(-8.32629e-05 4.43646e-05 2.09246e-19)
(-0.00362139 -0.00277303 -7.31699e-19)
(0.0275842 0.0329384 1.42503e-19)
(-0.000166876 7.66596e-05 -1.0288e-19)
(-0.0294123 0.19773 -3.35374e-18)
(-1.30694e-05 5.21354e-07 -8.4119e-21)
(-0.00363411 -0.000545481 -1.35395e-19)
(-5.18727e-05 -3.89471e-07 8.87916e-19)
(-0.00229568 -0.117668 -6.30572e-18)
(0.00320323 0.00221843 -3.79288e-19)
(-5.93585e-05 0.000130276 5.03217e-19)
(-0.0623158 0.193791 -1.85744e-17)
(-0.00457399 -0.0315039 9.22243e-19)
(-1.71029e-05 -4.63666e-05 2.26174e-20)
(0.00257816 -0.00151653 1.15462e-17)
(0.000126752 0.00353338 -1.35877e-18)
(-0.000119305 3.6822e-05 7.63702e-20)
(-3.85103e-05 2.71214e-06 -3.27771e-19)
(-0.000162929 -9.87004e-06 -1.59128e-19)
(-0.0487937 -0.0620812 -2.26057e-19)
(0.014521 0.189274 -5.73467e-18)
(1.68244e-05 7.50674e-05 3.15195e-19)
(0.0043716 -0.00988005 1.37062e-18)
(0.0561845 0.212122 1.67337e-18)
(0.0945885 -0.00692626 5.07009e-18)
(0.00673972 0.0627965 -6.59285e-18)
(0.0636865 -0.0684943 -3.78778e-19)
(0.00431761 0.042463 6.79913e-18)
(0.000135397 -0.000148002 -4.99517e-19)
(0.0442807 -0.02672 -1.33548e-18)
(-0.0497968 0.0225445 -5.23319e-18)
(-0.0091906 0.00579701 1.3248e-18)
(-0.00118718 -0.000223307 -4.54855e-19)
(0.0309522 -0.108563 1.77112e-18)
(-0.0162692 -0.0173087 1.09707e-18)
(-0.00263993 -0.00698275 2.3673e-20)
(-5.52745e-05 7.44071e-06 2.72786e-19)
(-4.45916e-05 -4.44843e-05 2.61258e-19)
(4.2337e-05 -4.26974e-05 -4.41225e-19)
(-0.000169628 6.96076e-05 -1.89666e-19)
(3.79442e-05 -5.0705e-05 2.20244e-19)
(-0.000211969 4.08071e-05 1.49784e-19)
(-0.0610293 0.0273361 -1.04693e-19)
(-1.96384e-05 -7.50656e-06 -1.12298e-18)
(-7.52461e-05 6.64424e-05 4.30958e-19)
(0.0184304 0.0114978 1.46839e-19)
(-7.58574e-05 -7.38036e-06 -8.87646e-20)
(-4.35939e-05 3.00168e-07 -1.97965e-19)
(0.000209046 0.000290438 1.07206e-19)
(0.000198963 0.00313058 -1.7708e-19)
(-0.018118 -0.0137196 -7.41268e-19)
(0.0805502 -0.039742 -6.98711e-19)
(-1.07379e-05 -5.59491e-05 -7.44007e-19)
(0.020174 -0.0317514 -3.87968e-19)
(-2.03731e-05 -4.34763e-06 -4.16256e-21)
(0.00465271 -0.000657655 2.88076e-18)
(0.0578112 0.00733135 3.52543e-18)
(-0.00912397 0.224919 3.66446e-18)
(-0.0984159 -0.0573207 -2.7014e-18)
(-0.000152224 -2.94313e-06 1.92104e-19)
(-4.86073e-05 6.02047e-05 -3.44826e-19)
(0.00351316 0.202472 5.93346e-18)
(-0.0802375 0.182612 -1.70781e-17)
(-0.01319 -0.0073627 -1.03855e-18)
(-1.49471e-05 0.000389205 -4.77253e-19)
(0.0372762 -0.0624347 -2.82985e-20)
(-0.125009 0.186326 -7.45391e-18)
(-1.94286e-05 -4.24867e-05 -2.65631e-20)
(-2.21421e-05 -5.88702e-06 7.29716e-21)
(0.249548 -0.00118425 1.99713e-18)
(0.00102953 0.00220166 -4.18575e-19)
(0.0369104 0.00606452 -5.42851e-18)
(-0.014235 -0.00484539 5.85446e-19)
(-0.000907625 0.00275489 -2.06016e-19)
(0.00379418 -0.0103193 2.79448e-18)
(-2.2543e-06 -9.36442e-05 -9.55919e-20)
(5.97247e-05 -1.41178e-05 8.55614e-19)
(-0.000144275 5.79579e-06 -1.22728e-20)
(-3.06797e-05 5.23101e-06 5.64925e-20)
(7.51714e-05 -7.67022e-05 -7.0204e-20)
(-7.65637e-05 9.08756e-06 1.30964e-20)
(-0.0137381 0.0263153 -3.99476e-18)
(-7.36059e-05 -5.90155e-05 1.15202e-19)
(0.0140507 -0.0566619 3.80988e-19)
(0.0775566 0.089088 2.41438e-18)
(-1.70717e-05 -4.69763e-05 -2.84655e-20)
(-7.41545e-05 -6.00045e-05 2.03118e-19)
(-1.90938e-05 -3.46233e-06 7.80556e-19)
(0.00161824 -0.00302352 6.16718e-20)
(0.0090435 0.00178293 1.5002e-18)
(0.042054 -0.0455401 3.02339e-20)
(2.06755e-05 -6.82465e-05 5.90502e-19)
(-0.236113 0.321203 -4.54614e-18)
(-0.00872987 -0.00262116 -1.10264e-19)
(-0.00841039 0.0061942 -1.7789e-18)
(-0.000209787 -1.09183e-05 1.0629e-19)
(0.00144898 -0.000104508 -1.99077e-19)
(0.0013935 0.00115807 -5.64994e-19)
(-5.9957e-05 1.54511e-05 -2.808e-20)
(-3.31125e-05 3.50582e-05 3.99116e-20)
(0.000269847 0.222251 1.56625e-17)
(0.221089 -0.016861 1.37823e-21)
(-9.396e-06 -8.03218e-05 -5.83566e-19)
(5.85029e-05 -9.43218e-05 9.14686e-19)
(0.00031363 3.93142e-05 -7.00481e-19)
(0.253075 0.00272547 4.56553e-18)
(-8.54907e-05 2.12134e-05 -3.35383e-19)
(0.000134451 -2.87279e-05 4.46698e-20)
(-0.000220628 3.4351e-05 -3.64356e-19)
(-7.82839e-05 5.89399e-05 -4.47988e-20)
(9.28139e-05 -0.000107551 -2.34426e-19)
(-0.000167584 -2.09845e-05 4.52053e-19)
(0.00141231 0.0010136 -3.5403e-19)
(-0.000113617 4.59882e-05 -2.9822e-20)
(0.0242485 -0.0252931 1.89586e-18)
(3.23586e-05 -5.4399e-05 -6.06924e-19)
(0.00054215 0.000242638 -1.97182e-21)
(-0.0746874 -0.0208069 5.58018e-18)
(-0.0137388 0.233263 1.27373e-18)
(-0.00336271 -0.00494233 -3.02276e-20)
(-0.000696926 -0.000324539 -6.22174e-19)
(5.42578e-06 -0.000108574 -2.78435e-19)
(-4.35916e-05 3.49761e-07 1.81774e-19)
(-1.59231e-05 0.000100087 9.46486e-20)
(-0.000710858 -0.00247831 6.0844e-20)
(0.015386 -0.0369195 1.80546e-19)
(-0.00744034 -0.0581794 2.72217e-19)
(0.00039666 8.58402e-05 -5.15181e-18)
(0.0888996 -0.0485434 3.90493e-19)
(8.60149e-06 -0.000104258 -8.12084e-20)
(0.0080101 -0.00207591 -2.1436e-18)
(-0.000884369 -0.000151099 -2.48462e-19)
(-6.43214e-05 -9.14512e-06 -1.12519e-19)
(0.0157574 0.0037787 -6.02584e-18)
(-2.22415e-06 -6.08356e-05 5.85475e-20)
(-3.26055e-05 5.37246e-06 -2.614e-19)
(-0.000253866 0.0032922 6.03082e-18)
(-6.05257e-05 -2.25726e-06 -4.69528e-19)
(0.000718306 -3.06609e-05 4.11174e-18)
(0.00144844 0.0732855 1.34226e-19)
(-6.31622e-05 -3.12672e-06 3.79021e-20)
(-5.9768e-05 -5.32951e-05 7.85082e-20)
(-0.179402 0.274246 -2.85885e-17)
(0.000184417 -8.57155e-05 -6.15575e-20)
(-0.0671035 0.0479285 -2.85798e-20)
(-0.0164422 -0.014817 3.29391e-19)
(-5.69061e-05 -1.3619e-05 -1.52055e-19)
(-4.98892e-05 6.68578e-07 2.76247e-19)
(-0.0121137 0.0223436 -3.06652e-18)
(-0.00179354 0.00044597 1.27399e-19)
(0.00916292 0.0009016 -1.813e-18)
(4.26985e-05 -3.15463e-05 -1.66739e-19)
(-0.0050784 -0.493154 3.3152e-18)
(0.0917976 -0.0384776 -1.1481e-18)
(-0.0144923 0.0336269 8.00285e-18)
(8.11628e-06 -0.000109606 1.88025e-19)
(0.0796068 0.143989 4.51487e-18)
(-6.49124e-05 7.09198e-05 4.70975e-21)
(-3.82152e-05 -9.9875e-07 2.46701e-19)
(1.28704e-05 1.51964e-05 3.0458e-19)
(-0.00146476 -0.00586963 4.49715e-19)
(-0.22124 0.334955 -1.84864e-18)
(-0.0766146 -0.0462897 3.86873e-19)
(0.0012886 -0.000691388 -5.06333e-19)
(0.000719707 8.08368e-05 3.2292e-18)
(-0.00167373 -0.002452 4.72728e-20)
(-0.0199297 -0.115235 5.59221e-18)
(0.0306337 -0.0587697 3.38194e-19)
(-5.29199e-05 4.13664e-05 -1.02631e-19)
(0.0120794 -0.00806634 -1.44333e-19)
(0.00150393 -0.00129652 -1.43773e-18)
(-0.0695317 0.193771 5.96783e-18)
(-0.00400738 -0.00491782 2.92362e-19)
(-0.0133273 -0.00663557 -4.98085e-19)
(4.10259e-05 -0.00013594 -5.27167e-19)
(-0.00246068 -0.00565421 -3.16652e-19)
(0.0157538 -0.0160252 -7.36507e-19)
(-5.21173e-05 -1.46297e-05 5.20398e-19)
(4.49162e-05 -0.000145783 5.31279e-19)
(-8.50893e-05 6.36422e-06 1.76336e-19)
(2.04286e-05 -0.000136308 -1.09451e-19)
(-0.00264859 -0.00402099 3.20193e-19)
(0.029624 -0.0365559 4.14679e-19)
(0.0373738 -0.00841228 -2.94978e-19)
(-0.0229085 0.000429799 -6.14871e-18)
(-0.0135464 -0.00409603 -3.63202e-19)
(-0.000932462 0.00416808 2.80957e-19)
(3.63977e-05 7.21682e-07 -1.14217e-19)
(-2.02793e-05 -3.31023e-05 3.4985e-19)
(0.0080925 -0.0685342 4.64253e-19)
(0.0664727 0.0830421 -2.64051e-18)
(0.000309506 0.000285801 -1.95088e-19)
(0.0133725 -0.00676969 4.78051e-18)
(-0.00181771 0.0544891 -8.59739e-18)
(0.0059633 0.215204 -6.7078e-18)
(-3.37582e-05 -7.48028e-07 -2.48816e-19)
(-1.93238e-05 1.90493e-06 3.00006e-20)
(-0.0125416 0.0284666 1.41689e-18)
(0.0313469 0.0903112 2.57538e-18)
(-5.92821e-05 7.29399e-05 7.68275e-20)
(-0.0257964 -0.0301113 1.88586e-19)
(-5.46347e-05 -0.000101939 -5.4436e-20)
(-5.26547e-05 -1.26587e-06 -1.1914e-19)
(0.00545435 -0.00179929 -6.74821e-18)
(-0.000154448 -1.12553e-05 -4.61419e-19)
(-1.77249e-05 5.26777e-05 -1.99666e-19)
(-0.0017846 0.000190351 -1.45924e-18)
(1.83868e-05 -8.97768e-05 2.19407e-19)
(-0.00157056 0.00147773 3.26985e-19)
(0.0346045 -0.0378797 9.38434e-20)
(0.0157321 0.00269462 8.09471e-18)
(-0.0373452 0.188451 -6.59359e-18)
(0.00089456 -0.00130087 -7.02574e-20)
(9.69502e-05 -0.000100313 -3.36508e-19)
(0.0338477 -0.130925 2.96649e-18)
(0.0001475 8.75863e-07 -5.99681e-20)
(0.123036 -0.0815746 -8.80453e-18)
(0.00291328 0.0423538 -9.09395e-18)
(-6.81271e-05 -0.000102676 -1.94992e-19)
(-0.120884 0.269134 5.21339e-18)
(-0.00285503 0.000861722 -1.36807e-20)
(-0.000818718 -0.000456237 3.65482e-19)
(-0.0884944 0.353186 1.1641e-17)
(0.00493607 -0.0302389 1.95e-19)
(-0.00419907 -0.0270406 2.45587e-19)
(-0.0391763 -0.0509113 3.07133e-19)
(-0.00153932 0.000451992 1.59412e-19)
(-0.0480701 0.0108316 2.40466e-18)
(-6.9113e-05 -5.96222e-05 3.67046e-19)
(-0.128843 0.150556 -1.76586e-17)
(0.135958 0.0916335 3.74276e-18)
(0.00833883 -0.0110066 2.06124e-20)
(0.000838699 -0.000830661 -3.08491e-19)
(-0.00063978 -0.236717 1.07132e-19)
(0.00132339 -0.0012246 3.77896e-19)
(0.0248234 0.0307601 4.0135e-19)
(0.0809773 -0.0339527 1.85797e-19)
(0.190296 -0.118888 4.86439e-19)
(4.30316e-06 0.000171948 7.96387e-19)
(0.00405181 -0.0292827 -4.35031e-18)
(-4.95231e-05 -6.33614e-06 2.70386e-19)
(0.0139397 -0.00809951 -4.08452e-18)
(0.0346493 -0.0162788 -7.71754e-19)
(-6.2243e-05 -1.88172e-05 4.88169e-19)
(0.00157022 -0.00710261 1.43728e-18)
(0.104273 -0.132004 -3.53516e-18)
(-0.070044 0.0343553 4.28894e-20)
(0.000641478 0.00616289 2.95846e-18)
(0.00150547 0.00118184 8.29729e-20)
(-7.47114e-05 7.67772e-05 -1.10093e-19)
(-0.00037637 -0.000151526 -5.52744e-19)
(0.00291804 0.00155952 1.09454e-18)
(0.0119598 -0.00595361 6.63593e-19)
(-0.038364 0.0590312 -2.29832e-18)
(0.000184796 -6.26535e-05 -9.73626e-20)
(0.0302588 -0.1242 -1.20227e-17)
(-0.00058901 0.00375044 -1.82576e-18)
(-0.000229834 -0.000135213 2.85491e-19)
(0.00315663 -0.000545159 -6.78073e-19)
(-8.54868e-05 -1.77706e-05 2.16454e-19)
(0.0136197 0.00142717 7.35829e-20)
(-0.000115642 -1.44812e-05 -3.89984e-20)
(2.60392e-05 -0.00013758 -1.14478e-19)
(0.146225 -0.0567122 1.39431e-18)
(-1.47312e-05 -6.19286e-05 3.56021e-19)
(0.00177905 -0.0013083 5.76098e-19)
(-0.0474799 -0.0983031 -2.34132e-20)
(0.0218304 0.00981482 -2.28184e-18)
(0.017624 0.0155687 8.91413e-18)
(-6.06282e-05 0.00010946 6.59818e-19)
(-0.000116164 -0.000163396 2.98066e-19)
(-0.0106172 -0.0265334 -5.32948e-19)
(-1.39652e-06 -0.000100266 2.37685e-19)
(0.0176158 0.116988 -6.47404e-18)
(0.0016256 -0.000571143 -6.23336e-19)
(0.000966207 0.00249707 6.63357e-20)
(-0.000113833 -0.00048357 -4.10218e-19)
(-0.00020358 -4.37036e-05 -8.37314e-19)
(-6.6308e-05 8.05317e-05 -3.51035e-19)
(0.262625 0.014518 -5.28988e-19)
(-8.50384e-05 -1.36009e-05 -1.19644e-19)
(-0.0210196 0.119719 3.29946e-19)
(0.0691585 -0.0289071 -2.38475e-18)
(0.000408596 0.00011327 4.04258e-18)
(0.0366914 0.0209556 -1.59766e-18)
(-6.9922e-05 -1.20186e-05 -3.29183e-19)
(-0.00506139 -0.00665706 6.63581e-20)
(0.000578412 0.0056493 -6.39642e-20)
(-0.270071 -0.561926 1.47339e-17)
(0.00160668 -0.000297303 2.70475e-18)
(0.0241284 -0.0464238 5.78792e-19)
(-0.017933 -0.16749 -4.42004e-18)
(-5.26183e-05 -6.21307e-07 2.9649e-19)
(-0.0569121 -0.0835145 2.50618e-19)
(-7.03911e-05 -1.98303e-05 1.40795e-20)
(0.0778895 -0.0323769 -8.75523e-19)
(-6.46637e-06 -0.000132885 -1.57607e-19)
(-0.000108239 -8.73549e-05 5.91798e-19)
(-0.0284956 0.104434 5.69877e-18)
(-0.0302223 -0.127533 -7.59949e-19)
(-0.000125465 5.82395e-06 -3.6121e-20)
(0.000323454 0.000211108 8.52065e-20)
(-0.00133538 -0.000137888 7.0954e-19)
(1.15035e-05 2.24724e-05 -6.43969e-19)
(-5.81602e-05 9.67041e-05 -5.14514e-19)
(0.0209599 -0.122449 -2.75594e-19)
(-0.0637706 0.231103 -1.22612e-17)
(0.000473975 -0.000229031 1.20156e-18)
(1.11719e-05 1.89876e-05 -5.11782e-19)
(-6.81293e-05 -2.76583e-05 -1.87272e-19)
(-0.200828 -0.550724 1.17476e-17)
(-0.080991 -0.0377175 2.30529e-18)
(-0.0224546 -0.00312265 7.91135e-19)
(1.50397e-05 -9.8605e-05 -4.42516e-19)
(0.0101171 -0.0126528 6.90258e-19)
(-0.000118505 -8.88664e-05 -8.29825e-19)
(-0.000157848 -0.000177561 -4.94302e-20)
(0.00475997 -0.000356707 -6.8726e-18)
(-0.0488278 -0.135182 -3.55625e-18)
(-6.01322e-05 4.12886e-05 -9.01791e-22)
(0.0140699 -0.00591759 -4.76663e-18)
(0.0573586 -0.0469461 -9.30232e-19)
(0.000910939 0.00211764 3.82254e-20)
(-0.0123558 -0.0266219 -2.54244e-19)
(-4.33036e-05 4.12109e-06 -3.38811e-19)
(-0.00500384 -0.00429043 5.12359e-19)
(-5.51914e-05 3.64807e-05 1.20654e-20)
(0.000312327 -0.000195414 3.27594e-19)
(0.00260431 -0.00188092 4.63153e-18)
(-0.000271683 -0.000124633 -9.69598e-19)
(0.0173573 -0.015136 3.08396e-20)
(-0.000172076 6.02742e-05 -1.59134e-19)
(-0.0928631 0.187073 -1.44282e-18)
(-3.57019e-05 5.08971e-06 -3.36271e-19)
(0.00171409 -0.000687829 -1.58107e-18)
(0.0295642 -0.0171837 2.19658e-18)
(-0.0616801 0.0164666 6.65313e-20)
(0.0129763 -0.00903246 1.88399e-18)
(-4.09136e-05 7.92869e-06 -2.75702e-20)
(-0.000205924 -2.95686e-05 9.85432e-19)
(-0.00887651 -0.188317 -8.22717e-19)
(0.00979741 -0.0160331 -2.81896e-19)
(0.0199718 0.0301147 -9.1284e-19)