/*--------------------------------*- C++ -*----------------------------------*\
| =========                 |                                                 |
| \\      /  F ield         | OpenFOAM: The Open Source CFD Toolbox           |
|  \\    /   O peration     | Version:  v2012                                 |
|   \\  /    A nd           | Website:  www.openfoam.com                      |
|    \\/     M anipulation  |                                                 |
\*---------------------------------------------------------------------------*/
FoamFile
{
    version     2.0;
    format      ascii;
    class       volScalarField;
    location    "600";
    object      omega_0;
}
// * * * * * * * * * * * * * * * * * * * * * * * * * * * * * * * * * * * * * //

dimensions      [0 0 -1 0 0 0 0];


internalField   nonuniform List<scalar> 
10042
(
0.0219201
0.0220488
0.0219504
0.0231935
11.8342
0.0220691
4.99271
2.05436
0.0217823
0.0220089
4.58133
0.0231297
0.0215332
0.0214959
0.0234716
0.0220315
0.0220235
0.0222585
0.0219224
0.129709
0.0219048
0.199043
0.0215875
0.0216194
0.0220557
0.0280606
0.0221317
0.0226496
0.0217928
0.0223427
0.0220205
5.47976
0.0220196
0.0222507
0.0256652
0.0216317
0.027379
0.0317017
0.0216336
0.0290707
0.142787
0.023096
4.76501
0.0219844
11.9759
0.0515087
0.0222957
0.0822981
0.0266327
0.045321
0.022167
0.0225544
0.0231551
0.0232721
0.0274148
0.0220621
0.0217944
0.0222654
0.0222424
0.0229596
0.0220445
0.0220046
0.0258167
0.0219223
0.0222343
0.0222611
0.0220372
0.0725923
4.25784
0.0218734
0.0232203
0.157019
0.0219891
0.0319767
0.0220167
0.0216166
11.7455
0.0219323
0.0298238
4.91322
0.0260701
11.6742
0.021978
0.0227435
0.0220431
0.0222135
0.0218983
0.139963
0.0219398
0.0219006
0.0221942
11.3088
0.0227203
0.022447
0.0222983
0.0218614
0.0219398
0.0218482
0.0285759
0.021803
0.0222908
0.0956862
4.05429
0.0222021
0.02254
0.0491386
0.0219215
0.0219337
0.0219129
0.0214636
0.021715
0.0218272
0.0253395
3.92832
0.022224
0.0218433
0.0219478
0.0219281
0.0218591
7.81728
0.0219343
1.48019
0.0220129
0.0219852
0.0940287
0.0219806
1.15499
0.0272056
0.0474403
0.0218916
0.0307684
0.0220031
4.27107
0.165565
0.0218025
0.0545844
5.12365
0.0222021
0.0860803
0.162673
0.0226493
0.0219447
0.0224298
0.126552
0.0220538
0.0218276
0.0537259
0.0215688
0.0218612
0.0250042
0.0218106
0.0222555
3.93744
6.24222
0.0221853
0.0215282
0.0225961
0.021997
0.0553051
11.6396
5.25822
0.105853
0.0219891
0.0218118
0.0220441
0.0219875
0.0581577
28.3418
5.64483
7.43906
0.0227974
0.0218454
9.80987
0.161383
0.0376093
3.82949
4.75576
0.0220001
0.0840581
0.0307054
0.0227398
6.47721
0.0220881
0.0271202
0.022984
9.41185
0.197004
0.0220635
4.35904
0.023733
2.96884
0.0224269
3.79095
3.51727
0.0840076
1.14984
0.0251478
0.021933
0.0215328
0.0232867
0.0365845
0.0220981
0.0218205
0.168353
0.022078
0.0216837
4.41634
0.0221563
0.0222603
0.0222427
0.731677
0.0218692
0.0541361
0.285501
0.0225641
0.202469
0.021968
0.0219906
0.0590768
0.0217714
0.0254228
0.0227108
0.347608
0.0325906
0.0252378
0.0288118
0.289508
0.021835
0.133255
0.0235036
0.0217818
0.132276
0.0218539
0.0234655
0.0219879
0.0251658
0.0217094
0.0214825
0.0232616
0.0265507
0.0219957
0.0220189
0.0220024
0.0254069
0.0218443
0.0220291
0.0216216
0.0226017
0.0230056
0.0222689
0.0215338
0.0218659
0.0241094
0.465283
0.106247
5.54956
0.0381986
0.0368943
0.023645
0.0570068
4.66834
0.0230499
0.0219246
0.0215004
0.0232242
0.0217085
0.198011
0.0234671
0.0218937
0.0222503
0.0384027
0.0230658
0.267377
0.0375022
0.164605
0.0237942
0.0265269
0.0217121
0.0250279
0.022076
0.0318498
0.0219098
0.0281016
4.57531
0.0216845
0.02188
4.87705
0.0525805
0.0220292
0.0220433
0.0238454
3.71507
0.0487351
0.131581
0.0221819
0.0215287
0.0218354
0.0217937
0.272853
0.0218869
0.0220386
0.021843
0.0219695
0.0327039
0.0236684
0.0711002
9.40322
0.0227746
7.48152
0.0218485
0.0248383
0.0221232
6.58698
0.0934446
1.07822
5.79307
0.0216019
0.0235125
0.021878
0.0238366
0.0288533
0.0222416
0.0319797
0.0217086
0.0214984
0.0220048
0.0777013
0.0222839
0.023453
0.0219701
0.023517
3.8148
0.0218484
0.0221758
0.0219881
0.0218966
0.0404277
0.0843727
0.0367643
1.17609
0.0329872
0.0263489
0.0219843
0.0214791
0.0222846
0.022268
0.409616
0.0219087
0.0222609
0.0960607
0.0218226
0.0244757
0.0228574
0.101597
0.0219806
0.0250644
0.0447766
0.0317185
0.0232313
0.0219387
2.93302
0.0544611
0.0223959
0.0400543
0.0219514
0.0218578
0.0219493
0.0244156
0.694257
0.0247508
0.0222493
0.0227237
0.0222923
0.0222709
0.128647
0.0219367
0.0216276
5.54103
0.0218414
5.5694
0.372948
0.0325711
3.27735
6.53454
0.0273266
0.135934
0.0221582
0.0462264
0.0222913
0.0222089
1.26461
0.0220643
0.0240641
12.4955
0.0220141
0.0219062
0.0499559
2.23082
0.0221837
0.0215638
5.37777
0.0945632
0.0218414
0.0731539
15.9514
0.0217702
0.0222641
0.0216429
0.0218738
0.0214797
0.0216771
5.90661
3.49667
0.022244
9.73258
0.0214975
0.0218877
0.488278
0.0221311
5.30723
0.0521592
0.022757
0.0216031
0.0215536
0.128983
0.0229186
0.0273716
0.0223337
4.20245
0.0224504
1.99491
0.0232749
0.0219374
0.0218427
0.57153
0.0219528
0.025673
0.0218689
0.0219499
9.01911
0.0251911
0.0219375
0.0217534
5.42739
0.0218828
0.0254574
0.023206
0.021713
9.46705
3.37055
0.021886
0.0221652
0.0248552
0.0215333
0.0220094
0.0219735
5.24129
0.0219963
0.0217399
0.0281759
2.38483
0.0537736
0.0222685
0.0302677
17.4764
0.0343558
0.0219405
0.0219441
0.165083
0.0223206
0.0219431
0.0291237
0.0218287
0.0216781
0.0228605
0.0215666
0.0373764
0.0219184
0.0219568
5.90412
0.0217652
0.0227282
0.0220663
0.0222735
0.0317681
0.0218901
0.021865
1.05992
0.0224519
5.44361
0.0230167
0.022282
0.0222767
0.114809
0.0219094
0.0219423
0.0220125
0.0224899
0.0274885
5.35221
0.0218866
0.0371121
4.64133
0.0342503
0.0222611
0.0219626
0.0221814
0.0222029
0.0218622
2.13751
4.82079
0.0220742
0.0272259
0.0282722
0.0277922
0.022026
0.0216592
0.493125
0.128981
3.34156
0.0215964
0.0222268
0.0220771
0.0218465
5.09406
0.0333818
0.0224983
0.0218503
0.0218072
0.0219953
0.658107
0.025195
0.0221393
6.41963
1.36727
0.398808
0.0498338
0.0220166
0.0218078
0.0517128
0.0493624
3.2481
27.8476
0.0245926
0.0259906
0.0222104
0.0234088
0.0221566
0.0221996
4.81776
0.0216149
0.0218531
0.0495117
0.0222101
0.413184
0.0228363
0.115009
0.0286871
0.0222447
0.0233098
0.0256733
0.0377552
0.049796
0.0799095
0.0222824
0.0452519
0.0228447
0.021859
0.0221184
0.0223085
0.0220348
0.0248413
0.0538814
0.0407831
0.0221428
0.0225113
0.0220084
0.0219248
0.124118
0.0219304
0.0231723
0.187822
0.0215682
0.0494474
0.0668175
0.0220407
9.1912
0.0377706
0.0222096
0.215489
0.0220417
0.0222686
0.0219665
0.0219828
0.0222924
0.0237939
0.022003
0.971492
0.0226515
0.0219674
0.0221867
0.0321908
0.03124
0.0219803
0.0243414
0.0218077
0.0309889
0.0219411
0.0288889
0.0216336
0.0229582
0.0215494
0.0219358
8.93513
0.021649
0.111907
0.0219693
0.022868
0.0217462
0.0312815
0.0220746
0.0387813
0.0220301
0.188335
0.0222621
4.95452
0.0215649
0.0233676
0.0222715
0.0219841
0.0219626
0.0237473
0.0220344
0.12382
32.9288
0.3091
0.023853
0.0358237
0.0218127
0.0376162
0.0514215
0.022012
0.0287592
0.0841348
3.43306
0.0670186
3.54193
0.0263021
0.0220905
0.0222313
0.0247715
0.0237979
0.0351849
0.021606
0.0232732
0.0963874
0.0222649
0.0219254
0.0246806
6.40516
0.0232202
0.029141
0.0515474
0.0222515
4.70723
0.0216223
0.0218306
0.0223652
0.0218314
5.69318
0.0579428
5.4946
0.0220564
2.38412
13.9169
0.362461
0.0347908
0.0575641
0.131989
0.0393739
0.0219707
0.021872
0.0298968
7.25553
0.0218052
0.0288355
5.98918
0.021913
0.0219122
0.0218639
0.0228018
0.0219547
0.0220389
0.113449
3.2465
0.022004
0.0220005
4.19131
3.24627
0.0218165
0.0219441
0.0221549
0.0218779
0.530226
0.0578
0.262999
0.0225397
0.0219067
0.021791
0.0227708
0.0220529
0.0309127
0.0225645
9.15641
0.0220078
0.0220748
0.0394239
0.0218016
0.032458
0.0645215
0.0231148
29.6762
4.59013
0.0220968
0.0218574
7.80784
5.46718
0.0347077
0.0220209
2.31229
0.181365
0.0256019
0.0219555
0.0219948
0.0219242
0.306496
0.0238076
0.0912471
0.0222686
3.74724
0.643901
0.0219653
0.0219919
0.116454
0.0221496
0.0217434
0.0247906
5.08575
3.28907
8.97176
0.0225619
0.0511098
0.0377835
0.0216456
0.0218727
0.0221935
0.294372
0.022206
0.0219627
0.0509693
0.0220159
0.0585088
0.0221113
0.0221063
0.0216939
0.022151
0.152171
0.0221989
0.0218618
0.0373353
0.0543184
0.377768
0.0222098
0.0771726
2.89381
5.39836
0.0228578
5.32972
11.0213
0.0219144
0.0215446
0.022585
0.0232349
2.54781
0.0232663
0.0221223
0.0222061
3.35139
0.0365015
0.0225062
0.022142
0.0219409
0.0403689
0.0217577
0.0218379
0.0301468
0.0227367
0.0222042
0.0217784
1.40854
0.0218785
0.0226638
0.0220291
0.0223118
0.129009
0.0222027
0.0229325
0.0220716
0.0247343
0.813365
0.0222919
0.346589
0.0254009
2.78925
0.0216664
0.0232824
0.0298816
0.0770006
0.050121
0.022556
4.33472
5.13201
0.0224734
0.0218094
0.327175
0.0220791
0.0222511
0.0217299
0.0222418
0.0455641
0.0222928
0.0222931
0.0637682
0.0277902
0.0229912
0.0309498
0.0227139
9.59227
0.0232152
0.841267
0.0218693
0.0495261
0.0360843
4.99453
0.0239746
4.63365
0.0222695
0.0255789
0.022042
0.0220441
0.0219136
0.109487
0.0398226
0.0440793
7.04648
0.0221191
10.2734
0.0259055
0.0217698
0.0312003
0.0287736
4.28295
0.0219867
0.0277633
0.0502013
0.0232256
0.0413208
0.0222838
0.0215759
0.0222833
0.295982
0.0221333
0.022004
0.0217379
0.0217301
0.0219401
0.0219908
0.0222699
0.0218547
0.0221507
0.0224525
0.0249362
0.0304523
0.0219915
3.08026
0.0219496
1.88109
0.0366377
3.14323
0.0339794
0.0253617
5.45846
0.0315636
0.309227
6.331
0.0399484
0.0221991
0.0218496
0.0228023
0.131571
0.0218657
6.38235
0.0218611
15.9113
4.72438
0.0498578
0.0228259
7.69346
3.60438
0.0231655
0.0219816
0.0222639
0.0243207
0.0215662
0.0216723
0.054314
1.6663
0.022078
0.021859
0.0223519
0.577581
0.0536073
0.0221555
0.0248394
0.0754805
0.0223921
0.0220275
5.58883
0.0222401
0.0218835
11.0138
0.0238066
0.0219543
5.88251
3.25206
12.1827
0.021922
0.0230499
0.336427
0.0217364
0.0218586
0.0222844
0.0291224
0.0220437
0.0221114
0.0237748
0.0457537
0.175702
0.0217847
0.0219397
0.0220793
0.0218243
0.0224802
0.0216
0.1147
0.0281033
0.0219497
0.0219876
0.0217685
0.0219758
0.0224036
5.58351
0.0278183
0.0215575
0.0219354
0.040605
4.41339
0.0220427
0.0219826
0.0220292
0.0215598
2.93783
0.0439606
0.02174
0.0220666
0.0281741
0.101518
0.0221693
0.0222828
0.0246545
0.0220186
0.0255867
0.0223163
5.24019
0.0337489
0.0220694
0.0253921
9.47043
0.027881
0.129378
0.0247597
0.343505
0.022271
0.0222804
0.0246879
0.0553537
0.0219051
0.021884
0.0222436
0.0227938
0.10538
0.114065
4.13184
0.0226636
0.0219922
0.0278042
0.0219596
0.0219571
5.66532
0.02351
0.0219756
0.0219859
0.285782
0.638703
0.0219907
0.0220491
0.0754134
0.021823
0.0221039
0.0219378
0.0735015
0.0229769
0.0255977
12.6376
0.0222212
0.022168
2.79475
0.0219094
0.160294
0.021896
0.0232732
0.0407218
0.0219867
0.0220889
0.0223872
0.0233712
4.60639
0.0219288
0.0221349
0.210692
0.0254402
0.216531
5.96031
0.0451381
0.022212
0.364576
0.0219018
6.93601
0.0221674
0.021995
0.0217129
5.8735
0.0222121
0.022299
0.0221599
0.0312952
2.51411
0.0276172
0.0461116
0.0219028
0.0221349
0.0349302
0.0279571
0.0218394
0.0248815
0.0218923
4.45293
4.7933
0.0221381
0.0228996
0.0222227
4.14645
0.0221563
21.6619
0.0219797
0.0218466
0.0217329
0.0224133
0.0236631
0.0222715
0.0219933
0.0220041
1.68319
0.0867498
0.0218575
0.0242857
0.0239944
0.0399148
0.0218757
0.025744
0.0228201
0.0219664
0.0231835
0.0298561
0.0222802
0.0219157
0.0264371
0.0217595
0.140715
0.0230172
0.135631
0.0220996
0.022038
0.0219127
0.0608694
0.0383979
0.0217711
0.0243208
0.0602233
0.0223911
0.021774
0.0250546
0.0222247
8.59449
0.211944
0.0246456
6.12904
0.0230756
0.031894
0.0772812
0.0367231
0.0321638
5.23467
0.0293989
0.107217
0.0220299
0.0229044
0.0218418
0.0219509
0.0258206
0.0217598
0.195092
0.0219693
0.0219928
0.0711733
0.0219485
0.046775
0.0259897
0.0250659
0.0218636
0.0417824
1.01098
0.021425
0.0297224
7.90345
0.0418114
0.0217922
0.0294058
0.0219939
0.0217775
3.13944
0.0218361
0.0217866
0.0438211
0.0219413
0.0264426
0.0217633
0.0220031
4.10477
0.0218535
0.0216681
0.024386
0.0219204
0.02155
0.0222518
3.32919
0.0221313
0.0220841
0.0215866
0.0690618
0.0223881
0.0242577
0.0219331
0.0338804
0.0225986
0.0219076
0.0227969
0.0220998
0.0217829
0.112222
0.0398739
0.0278927
0.0234187
0.0428685
0.0618317
0.0273259
0.0279866
0.0228579
6.22569
0.0219415
0.0219685
0.0219248
0.0222384
0.0348049
0.0218936
9.25172
4.16819
3.40688
0.0220836
0.0244101
0.0378801
0.021542
0.0867641
0.0455366
0.718218
0.0550556
5.40825
0.0620147
0.137677
2.28994
0.0277127
0.0230129
0.0247825
0.0217754
3.73343
0.0225501
0.0289338
0.0218012
0.0247911
0.0220447
3.89448
4.49965
0.0222036
4.98535
0.543874
0.160695
0.0413847
0.058793
0.0216716
6.46438
0.021956
7.28447
4.49903
0.0222042
0.0219029
0.0220017
0.0232691
0.0248161
0.032989
0.152778
0.0221246
0.0220394
0.0248062
0.0223916
0.0220356
0.0256845
0.0218399
0.0220588
1.03086
0.0553448
0.0220413
6.35519
0.0230283
0.0222722
0.0234219
0.224787
0.0219446
0.0217331
0.0911366
0.165657
0.0218177
0.0248745
0.523274
0.0480936
4.27769
0.021782
0.1395
4.53435
10.2145
0.022082
0.0219182
0.052232
0.0259478
0.0397827
0.0222888
7.51057
0.0439019
0.152875
0.0220304
0.0219766
5.04764
0.24462
0.022149
0.0222723
7.90856
0.0219305
0.0216158
0.0218873
0.023383
0.0221968
0.0293811
0.0221011
0.023743
0.0216236
0.0307738
21.8597
0.0557255
0.0322442
4.74507
0.0658766
0.0216485
0.0217747
0.0218633
0.0222837
0.109275
0.0295335
0.0222309
0.0219675
0.0219758
0.0216071
0.0319044
0.0216168
0.0474064
0.024042
0.022123
5.04932
4.17136
0.0221014
6.95195
0.0333246
0.0319313
0.0222641
0.0216289
11.8703
0.0640818
0.0219244
0.0217296
0.0219384
0.0258429
0.0222624
0.12946
0.0215246
0.0220592
0.0220052
2.48009
8.37933
0.0215376
0.0220071
0.142107
0.456802
0.0244975
4.31827
7.69938
0.0218572
0.0221417
0.0221226
0.0229563
2.49364
0.022038
0.0222844
0.166298
0.07879
0.0222121
0.0219469
0.0723789
0.0222837
0.0220742
0.094396
0.0676866
6.6291
0.0219832
0.063546
0.0404222
0.0481218
0.0230848
0.0270751
0.0219439
0.0219877
0.117347
0.0255043
0.0219994
0.024547
4.44264
0.021546
0.021812
0.0215393
0.0720967
0.0219515
0.0220861
0.0214451
0.0219511
0.559168
9.76779
0.022205
4.63049
4.40959
4.92121
0.0219426
0.0219484
0.0218341
0.0219006
0.022116
0.0221492
0.0216271
0.0220821
0.0217838
0.0242261
4.91577
0.0353068
0.85816
0.0289495
0.0220311
0.0230867
0.0315111
0.0221642
0.0218533
0.0388815
0.0312949
0.440216
0.0376762
0.0215184
8.35505
0.0226646
0.0215017
0.0218601
0.294672
0.0389846
0.0227656
0.0253553
0.0220727
0.0220932
0.0319386
0.0369911
0.0281884
6.96779
0.0220827
0.0220299
0.53232
0.0363744
0.0249097
0.10926
0.0231208
0.0624437
0.238296
0.0587536
7.62797
0.0218301
0.0218233
0.0219422
0.022048
0.0220949
0.0230519
0.0363746
0.0467509
19.7508
0.0220727
7.61314
4.13835
0.0247768
1.16547
0.0221997
0.0806559
9.49346
0.0219135
0.0787257
0.0215915
1.87937
0.0221975
0.168002
0.0218664
0.41479
0.0359576
4.38927
0.0218529
0.140838
0.0216826
0.0231335
0.219131
0.0218437
7.46085
4.9915
1.37516
6.23218
0.0787536
5.8695
0.0376759
0.0220181
0.0435107
0.042057
4.63462
0.0220764
0.0220167
0.0226689
0.0456531
0.0219532
0.0222124
0.0221927
21.1626
2.65719
0.0219136
8.7994
0.0565432
0.0217314
0.0370731
0.0271006
2.62762
0.0290654
0.021772
0.706156
0.0220721
0.0219398
0.0220893
0.108037
0.0542264
0.0218182
0.0263927
0.0221108
0.0222607
0.0217965
12.8268
0.0222857
0.0218169
4.06179
0.199875
0.0239483
0.0218176
2.27271
0.0280918
0.0231875
0.0219356
0.0506892
0.0231416
0.02682
0.0245452
6.13043
0.0421837
0.0526702
0.0215093
0.031741
0.0421848
0.0273905
0.0223605
8.628
0.0222527
0.13886
0.0218951
0.0221933
0.0313646
0.158038
0.0234269
0.0248516
0.0221131
0.0365865
0.0562016
0.07466
0.0276642
0.0222924
0.0219651
0.0280313
0.0717338
0.0219434
0.0391496
0.0220153
0.0219465
3.97121
0.0218991
10.2591
0.0219448
0.0270464
0.0606755
0.0219257
0.0275877
0.0864259
0.0874051
0.021933
0.068481
0.0226416
0.0222634
0.0219014
5.1327
3.52224
0.0219146
0.0219357
0.0216627
0.0218102
0.0780155
4.16207
0.0219193
1.39759
0.0217345
0.0218016
0.0218977
1.68195
0.0227631
0.0237442
0.0219536
0.021958
0.0219198
0.0222568
0.0222595
0.0303479
12.0419
0.0216509
0.0219101
0.0416522
0.0614271
0.0217997
6.70485
0.0483874
0.0217888
0.0215471
0.0223818
0.0955739
0.021743
0.066525
0.0280302
0.0239239
0.0217867
0.0413337
0.0215286
0.133436
0.0275028
0.0223564
5.0026
0.81766
0.0214318
0.0218651
5.75281
0.101153
0.0650121
0.0246604
0.0664572
0.0215777
6.45479
0.0562447
0.0218553
1.97917
3.13047
0.0231397
0.0424889
0.0477682
0.0217654
9.90659
0.0221659
0.0263423
0.0289538
0.0222322
0.022049
0.0511416
0.0218754
0.0218907
0.021874
5.89262
0.0218386
0.0219385
0.0217549
0.0218943
0.0218489
0.0222302
0.0466513
0.0456077
0.0236883
0.0222498
1.19449
0.0222398
0.0218378
0.0219052
0.0216545
0.0220846
0.0219717
0.0278023
0.075906
0.022224
0.0291974
0.0493137
0.0217489
0.027373
3.51343
0.0226601
0.0215323
0.0220792
0.0831997
0.0222026
0.022203
0.0241465
0.0246857
5.5581
14.1479
0.0218273
0.0218652
0.0219467
0.0682157
0.0232381
0.0217967
0.0282515
0.0715406
0.0221505
0.0267986
0.0221329
0.093919
0.17167
0.0229669
0.1224
0.025523
3.87079
0.022205
0.0218987
6.74384
0.114952
0.0242258
0.163264
0.0918228
31.5945
0.045263
0.701262
0.0253859
0.0250776
5.03388
0.0265052
0.31829
0.0295708
0.110412
4.00052
0.0222933
0.0221195
0.0219801
0.334474
0.0214529
7.26381
0.0339569
25.0327
0.0229414
0.117722
0.168884
0.0219473
0.0221775
0.0792445
0.0291596
0.0220883
0.0255697
0.0763052
0.0656406
0.0682661
0.091029
13.9378
0.133307
0.0221149
0.0222014
5.32445
0.0756755
0.0226156
0.0372379
3.60456
0.0222798
0.0239825
0.0219456
0.0285177
0.0220388
0.0221049
0.0389466
0.0220957
0.0227598
4.52582
32.0684
0.0217312
0.0256588
0.0263506
0.172563
0.0421445
0.0224093
0.0219282
0.10253
16.5953
0.0219373
0.025237
0.0220685
5.49822
0.0218306
0.0292604
0.404284
0.321467
0.0222721
0.136409
0.079967
0.050827
0.025524
0.0220206
8.51392
0.021816
0.0260941
0.0222198
0.0281649
0.0216211
0.0216498
0.0221114
0.0591829
0.0218194
0.021978
0.0217853
0.0221374
0.0218727
0.0220242
0.0770226
4.49335
2.73899
0.0252188
0.0220568
0.0321037
0.0236486
9.44764
0.0222851
0.179235
0.0216215
0.0219971
0.0225091
0.0333168
3.93849
0.0219621
4.12824
0.0222917
0.0215255
0.023048
7.80451
0.0233176
0.0450537
9.13875
0.0222848
0.0221712
6.31013
0.0218935
7.30981
0.0220883
0.0302844
6.22574
0.0228005
0.0220958
0.0218595
11.9329
0.0262161
0.0218756
0.826115
0.0219632
0.0227888
0.0718438
24.5853
0.187344
4.51696
2.96694
0.0727463
0.0234227
0.181132
0.194535
0.0218805
0.0218559
0.0228094
0.0268822
0.0786988
0.0219928
0.0252977
0.0219073
0.021964
2.65427
0.0222251
11.0292
0.0215706
0.0316329
0.0547404
0.0218285
0.0215194
4.29271
7.42526
0.0595634
0.0220797
0.0247446
0.048068
0.0217688
0.0325871
0.0854664
0.0362852
0.0233655
8.05872
26.4184
0.0215442
0.022133
0.0216509
0.0221944
0.022986
0.0274084
19.7759
0.0221201
0.0219646
0.0412626
23.1579
0.0215796
0.69386
0.0216185
0.112013
0.0512298
7.25829
0.0592481
0.0530382
0.0560349
0.0215298
0.0215115
0.200372
0.0252757
0.0220865
0.636104
0.0218293
0.0220836
0.0216232
0.0447713
0.207074
0.481463
0.145827
0.0276145
0.0289659
0.0221398
14.2051
0.189119
0.0230151
0.0219774
0.0217581
0.0785226
9.9136
0.0356881
10.4291
0.0229177
0.0217708
4.64858
0.0219322
5.30557
9.76048
0.0216993
0.0290638
1.91455
0.0241039
0.0356979
0.0218197
5.20998
0.0260721
0.159334
5.13008
5.18419
0.0273711
0.0282016
0.0221351
0.135062
14.2733
0.0231751
0.0239095
6.05654
0.0489735
0.0666592
0.0222635
4.85195
4.98256
0.0971944
0.0219486
0.0262138
0.0218978
1.27874
0.063603
0.0317991
8.66682
3.88654
0.0215326
0.12764
0.0220998
2.08451
0.0922697
0.0267263
0.0252575
0.687649
0.0214075
0.0547113
5.72117
4.2442
0.0229859
0.0220309
0.0217922
0.0865281
0.872828
0.145568
4.82146
0.0815144
0.0401731
0.0217836
4.05587
0.0676396
0.0281768
0.18505
5.58369
5.87053
5.22863
11.3733
3.91702
6.42829
0.0220465
0.0288805
0.0316913
0.0220529
14.1067
0.595433
0.0220192
7.36371
0.0221287
0.0219932
0.0217742
0.0296477
0.0218714
3.85134
0.061584
0.206175
0.0217791
0.46325
0.047596
0.362516
4.96911
0.0228889
0.0271043
0.0373881
0.0668847
0.0217696
0.0216485
0.0218934
3.94129
0.0217813
0.0217673
0.665755
0.023426
22.1428
0.0220452
8.76863
0.0219547
0.0220597
0.0219414
0.0219671
0.0268763
0.0243012
10.9672
0.03105
0.0350197
6.02392
0.0218144
8.28044
0.0217953
6.21216
3.99119
7.09554
0.0577226
0.0219588
0.0222726
6.35084
0.02218
0.0261382
0.0221106
0.0289552
7.68156
0.0218856
0.0218518
0.0218797
0.0222651
7.48476
10.407
0.0218208
0.0214455
3.88774
10.4876
0.021866
4.19895
0.0222642
9.56996
5.65588
0.0590471
0.338235
1.04428
0.0852657
4.32549
0.0683538
0.021973
0.0215476
0.0217871
7.95456
10.0885
0.0229635
0.0282947
4.46595
0.0218356
4.59897
0.021896
0.0220547
0.0216315
2.20471
0.0633711
0.0217503
4.40234
0.0222526
6.52238
4.68004
0.0217354
0.0221103
0.0998733
0.0219577
0.02193
0.0218322
3.36657
0.0317889
0.0220309
0.0221295
2.66792
0.0219396
0.0402404
0.0219881
7.51727
0.0221009
0.100412
0.0236196
5.34127
7.09224
0.0305358
0.0720062
0.049753
0.0220741
0.0726569
6.17279
0.0217542
0.0709872
0.0217663
0.442974
0.0219002
6.72326
2.53715
0.105115
4.143
4.70308
0.0411757
0.0227303
0.925389
0.0219317
14.165
0.0253028
0.739202
0.0218596
0.0325305
0.0457084
0.0303754
0.0220957
0.0219444
0.0221955
5.85227
0.0640745
4.08061
2.92579
0.0276163
0.021622
0.0537451
9.92535
0.033473
0.0217866
0.0220792
2.48531
1.78948
7.35271
4.86438
0.0347451
0.0222539
0.0217784
0.0465764
0.0483801
0.554289
0.022001
0.0220688
35.3939
0.0592755
0.0222854
0.0541182
0.591437
0.0891719
0.0216428
0.0480155
0.460664
0.806286
6.13495
0.206523
0.0218755
0.0222692
0.0220722
0.0222849
0.0219571
0.02209
0.0332046
0.221261
0.0329565
0.0273472
0.0285642
0.0221876
0.0260585
0.0227382
0.0345518
0.0326511
0.0218146
0.0279276
0.0218973
0.0218432
0.0224761
0.0221205
0.363147
0.0216027
0.0774134
0.496345
0.592453
11.2631
4.11326
0.0224327
0.0222368
0.0219056
6.44795
0.0220166
0.0214756
0.0221737
5.85542
0.0311598
0.0321854
0.345322
0.023341
0.0220328
0.0292016
0.0218816
0.0477804
0.0222854
0.0339877
0.0217825
0.0219213
0.0229066
0.0234551
0.0252139
0.497134
0.0354279
0.10791
0.0545939
0.107079
0.0425755
0.061591
0.0219741
4.33849
0.0245916
0.0265906
0.021927
0.0228505
0.118743
0.0219846
0.0624835
6.63744
0.0294373
0.390205
0.0933023
0.0530293
0.067273
0.0588809
0.0219367
0.0279993
0.0220896
0.0741302
0.0494689
5.96442
0.021759
0.0463049
0.0264701
3.73285
1.66171
0.0427657
0.0220968
0.049448
0.0215713
0.0590343
0.0227376
4.6285
0.0216553
0.0259254
0.0220174
0.035664
0.109434
0.0302623
5.60017
0.0220397
0.0304749
0.0594024
0.0220165
6.09732
8.60336
0.130169
0.048836
0.0456114
0.0218607
0.0217791
7.77922
0.0942675
0.0216662
0.0226375
0.0250785
0.0219059
0.357734
0.021776
6.97128
0.123752
0.121165
0.0368833
0.0223093
0.0216642
0.0218459
0.14051
0.0810942
0.0267071
4.41486
0.0221732
0.023112
0.027263
8.31423
0.0215199
0.997685
0.0214075
5.1432
0.0219123
0.0219058
0.0383659
0.0219844
0.0222073
0.115416
0.022068
0.022277
0.021785
0.0429279
0.0253397
2.23228
0.0219923
0.022086
0.0218489
0.108426
0.0218062
0.0286425
0.0381472
5.87244
9.10566
11.0903
0.847568
0.335369
0.0401072
0.0619231
0.0273641
0.0222511
0.0221206
8.11713
0.0570948
0.0215405
0.0219677
0.0219552
0.0271139
0.0760711
0.0222517
0.0303395
0.0996344
0.140839
0.113218
0.0219693
0.0222376
3.16251
0.0237816
0.0216051
3.59655
7.2101
0.0216972
0.0214392
0.0267518
0.0220546
0.0383412
0.0222485
4.06078
0.0222726
2.2054
0.0219711
5.32182
0.0292346
0.0219342
0.0536379
0.0215962
0.0220868
0.0222647
0.0312753
0.404892
0.0218509
0.136545
0.0222856
0.0221996
0.114825
0.0217468
0.0221278
0.0221017
0.0214711
0.021949
0.0215178
0.0221656
3.70244
0.0218607
0.0217669
0.0562175
0.0216332
0.0219427
0.0221668
0.0221839
9.1711
0.423441
0.0220255
0.023062
0.0219915
0.0222855
0.181646
0.0220547
0.0219837
7.90814
0.021964
0.042069
0.0504426
0.0377724
0.0219196
0.170454
0.0219021
0.24919
0.0693303
0.0219391
7.79578
2.25478
0.0283388
0.120111
0.0218296
0.0218737
0.0450627
0.185422
0.021771
0.0218585
0.0222225
0.0397992
0.0221025
0.0358914
0.02211
0.0450615
0.777959
0.038897
0.172099
0.0218373
0.0252914
0.0228641
0.0236223
0.0216896
0.0218972
0.0228565
0.0234877
0.0671761
0.0223357
0.0812379
0.0219894
5.66711
0.0215205
0.0217769
0.065675
0.0222716
0.0931044
0.0745468
0.03683
0.022058
0.0228677
0.0220147
0.0367705
0.02207
0.0556642
0.0255603
0.0221401
0.0216794
0.0273635
7.24785
0.0315803
0.0513081
4.1997
3.93288
0.0383987
0.021573
5.49983
0.0219404
0.0236043
0.0223962
0.0867508
0.0219571
0.0351311
0.0278119
0.0234924
0.0221213
0.0251798
0.0222
0.0529777
0.0219388
0.0221851
0.0219516
0.0279277
2.75225
0.0219891
9.50203
0.0869918
0.021459
8.57487
0.247564
0.0218831
0.0233393
0.0745066
0.0217902
0.021909
3.95986
0.0220269
4.58279
0.0255759
0.024501
0.0226693
0.022579
0.021907
0.0218792
0.0614466
0.0225467
0.021961
0.0219045
0.0225114
5.5385
0.0362505
0.0220366
0.0291124
0.122886
0.0665267
0.0218869
0.0220318
0.021958
0.024804
0.0228027
0.0224224
0.0268871
5.74511
0.0218586
0.0231027
2.63253
0.0244684
0.0979297
0.123287
0.0218677
0.0222701
3.83101
0.0732089
0.614453
5.85643
4.93566
0.155155
5.5512
0.0218227
0.0234208
0.0216824
0.0221862
4.89193
0.0219929
0.0494268
0.0581974
0.0301501
0.0249693
0.462363
0.0219108
0.0221157
0.0251013
0.0219419
0.0220493
0.0217893
0.0222315
0.0599346
0.0219448
0.0221361
0.0217825
0.045837
0.0221322
7.72425
0.0219247
0.0233773
0.0218171
0.0222521
0.0227343
0.0219528
0.0372557
0.022958
0.0219374
0.0278164
0.0220381
0.0222646
0.0219774
0.0311867
0.0224002
0.022034
0.022047
0.0220599
0.0283555
0.0220212
0.022009
0.0903857
0.0220745
0.021911
0.0240591
3.10965
0.0465005
0.022575
0.0476197
10.8097
0.100698
0.184368
0.0238899
0.0227886
0.0267333
3.11446
0.0220944
0.263418
0.0229337
0.0218922
0.0278938
0.0220511
0.0621559
0.0669591
0.0576017
0.0229402
0.0219464
0.0279247
0.0271741
0.0229361
0.0242439
0.0239383
0.0442559
0.0750619
0.063317
0.0219235
0.0246502
2.00251
0.0231256
0.0222853
6.9136
0.440001
0.0219423
0.02251
0.0236408
0.0660517
12.3766
0.0219626
0.317818
6.91782
0.0386797
0.0534646
0.0217433
0.0236218
0.0228048
0.070143
0.0222318
0.0296867
0.0236934
0.200557
0.0221935
0.0220617
6.77169
0.0237334
0.0230106
0.0221724
0.0222125
0.0372613
3.99208
0.0275818
0.0220432
2.90553
0.0838674
0.022385
0.0219475
0.0218276
0.024059
0.02178
0.180587
0.0218629
0.0242533
0.0249296
0.052
0.0261347
0.021833
0.0270295
0.0241444
0.0218256
0.0828035
0.0221401
0.0234359
0.02169
0.022272
22.9038
0.0277914
0.0223744
4.50922
0.0228728
0.0219516
1.16717
0.0587924
4.01774
0.0219142
0.0232209
0.0218805
0.0226701
0.0229969
4.74929
0.0226265
0.0755323
0.021803
0.0223264
0.024274
0.0219735
0.0368205
7.46025
0.422754
0.0219558
0.0217221
0.195748
0.0225718
0.0221631
0.0262298
0.0268675
0.349185
0.0776865
0.022807
5.60356
0.0767824
0.0223901
0.0217678
0.0222839
0.0284417
4.91874
0.0222839
0.0586065
0.022928
0.0220899
0.0215946
0.0226563
18.7359
0.0270036
0.0217797
0.0237117
0.0220949
0.0254152
0.0214496
0.023633
0.0219668
0.0231298
0.377825
0.0220292
0.0222127
0.0823584
0.0216179
0.021585
6.86235
0.0218839
7.09649
5.53385
14.3345
0.0264186
0.022126
0.0215101
0.0221389
0.0214847
0.0235931
0.157463
0.0455164
0.368166
0.0719048
0.0240464
0.0216207
0.0231799
0.0226031
0.0222726
0.0221152
0.0215737
0.0728411
0.0225593
22.5196
0.0222565
0.0227024
0.0222635
0.022103
8.29418
0.138391
0.0287411
0.0215088
0.0467989
0.0233687
0.0219755
0.0703561
0.0214551
0.0236311
9.84932
0.0219641
0.0219002
0.0218998
5.59883
5.06511
0.0216861
0.0226196
0.0252673
0.0220917
0.0217161
0.0219534
0.0220754
0.0219008
0.0218431
0.0218999
0.0251006
4.13658
0.0383858
0.0219428
0.0219396
0.0223939
0.0221871
0.0221774
0.0258523
0.0276445
18.1017
0.0255743
0.0221672
0.0231268
0.0219526
0.0792262
0.0216116
0.0222234
0.023252
0.028055
0.0267202
9.49519
0.0221113
0.0308172
0.0226277
0.022589
0.0221043
0.0216407
0.0231886
0.0955445
0.173267
0.0217538
0.0344666
0.0647888
0.0222647
0.0377367
0.0374491
3.81299
0.0222495
0.0235228
0.0226498
0.0216034
0.0647989
0.0219637
0.0220006
0.0482043
0.180545
0.15439
0.0217786
0.0219071
6.7181
4.26006
0.0216154
0.809767
4.81547
0.0218263
0.0216101
0.0218094
0.0220607
0.0221399
0.0215645
0.0279724
7.1613
0.0218271
0.0219636
0.0216983
0.0221574
0.021795
0.0218414
0.0215545
4.00929
0.0220399
0.515837
0.0221492
0.0218012
0.02308
0.0218331
0.0221755
0.0285393
0.0221542
0.0223325
6.18239
0.0219944
0.0253443
0.0220166
0.0219846
0.0221402
0.0218125
0.100697
0.0220576
0.0221059
0.0220297
0.160146
0.0331798
0.0221754
0.0221751
0.0219454
0.023121
3.96229
0.0233429
0.0236283
0.0219561
0.0221226
0.0219494
0.0483998
0.0233143
0.0230127
0.337632
0.0426496
0.021809
0.0251681
0.0220377
0.0225009
0.0218299
4.5436
0.0219643
0.022058
0.021805
0.0299023
0.0235821
0.0233533
0.0219167
0.0217899
0.0540901
9.25489
0.021821
0.056241
0.0234305
0.0233383
13.0798
0.0217583
0.0219876
0.0219554
0.0238722
0.0234707
0.021796
0.0242015
0.0219111
0.0827752
0.0215389
0.0217209
0.0256049
0.0221418
0.0785703
0.0262519
17.5158
0.0563006
0.0222119
0.0940366
4.28919
0.0229228
0.0246051
0.0220679
0.0252333
0.0217811
0.0362737
0.0422372
0.0218904
0.0290242
0.0219499
4.4749
0.0222932
0.0242731
5.12415
0.0407732
0.0241643
0.144676
0.0221556
0.0219952
4.68291
0.0217649
13.0601
0.0218511
0.0218712
0.0647587
2.60439
0.0219204
0.0426996
8.75646
0.0218601
0.0221743
0.0219883
0.0277531
0.0255273
0.0229062
0.0220072
4.06588
0.0219679
0.0226999
0.0219459
0.0219054
0.0220365
0.0234796
0.028603
10.5637
0.0222313
9.16513
0.021947
0.0229674
0.0244655
0.0227818
0.055889
0.0544091
0.0225282
0.0219347
0.0218302
0.0787427
0.0217429
0.0218338
0.403156
0.108758
0.0217556
0.022005
0.0217878
0.0220883
0.0245655
0.0783953
0.0219689
0.0221268
0.0217479
0.0222637
0.0219678
0.0215108
0.0275781
4.30502
0.0217012
0.0224365
6.81654
0.0219148
0.0375514
0.022069
0.0293867
0.0481217
18.9802
0.0222612
0.0220549
0.021792
0.0222044
0.0220422
0.0214579
0.0221436
0.0221268
0.0233531
0.0506934
0.0250441
0.0236216
8.94726
0.0220291
0.137441
0.0217399
0.0219639
0.0220166
5.29046
0.0218434
0.0499073
0.0231157
0.022629
0.0219347
0.021758
0.0219078
0.0224843
0.0218564
0.0218201
0.0462817
0.22902