/*--------------------------------*- C++ -*----------------------------------*\
| =========                 |                                                 |
| \\      /  F ield         | OpenFOAM: The Open Source CFD Toolbox           |
|  \\    /   O peration     | Version:  v2012                                 |
|   \\  /    A nd           | Website:  www.openfoam.com                      |
|    \\/     M anipulation  |                                                 |
\*---------------------------------------------------------------------------*/
FoamFile
{
    version     2.0;
    format      ascii;
    class       surfaceScalarField;
    location    "600";
    object      phi;
}
// * * * * * * * * * * * * * * * * * * * * * * * * * * * * * * * * * * * * * //

dimensions      [0 3 -1 0 0 0 0];
oriented        oriented;


internalField   nonuniform List<scalar> 
14907
(
-0.448057
0.311706
0.13636
-0.580937
0.365659
0.215295
-0.222899
-0.0242505
0.247112
0.588798
-0.588408
-0.0769803
0.0412151
0.035765
0.423141
-0.529924
0.106741
0.0777462
-0.0315238
-0.0462214
0.146009
-0.145674
-0.000336489
0.399847
-0.227879
-0.171921
-0.376201
-0.10199
0.478203
-0.00704101
-0.000628791
0.0076698
0.0658624
0.523375
0.352129
-0.612353
0.260336
0.644624
-0.343265
-0.301354
0.229854
-0.121694
-0.108169
0.542632
-0.359037
-0.18348
0.305057
0.237684
-0.291603
-0.299749
0.591336
-0.253807
-0.19423
-0.010859
0.0698867
-0.0590283
-0.392036
-0.137364
0.529771
0.0974171
0.0529522
-0.15037
0.394987
-0.623809
0.228988
-0.546236
0.287896
0.258273
-0.340264
-0.240666
-0.256507
0.13364
0.122866
0.630315
-0.364938
-0.265303
0.264516
-0.148078
-0.116453
0.395032
-0.199152
-0.195834
-0.299038
0.196303
0.102715
-0.17711
0.410582
-0.23347
0.000194002
0.0073203
-0.00751432
0.208393
-0.584664
0.123274
0.127431
-0.250717
-0.102819
0.230085
-0.127285
-0.309349
-0.236969
-0.291737
0.151636
0.140099
0.0791646
0.126792
-0.205951
-0.579935
0.270758
-0.0946886
0.146957
-0.0522807
0.0367454
-0.0476047
-0.228749
0.129686
0.099052
0.0463272
0.0314199
-0.142538
0.285022
-0.14252
-0.0466429
-0.0303377
-0.150302
0.226303
-0.0760031
-0.27836
0.205407
0.0729289
-0.113026
-0.067063
0.180092
-0.0547616
-0.149439
0.204189
-0.178375
0.269077
-0.0906992
-0.582963
0.116074
0.466994
-0.0770135
-0.198332
-0.0318273
0.162704
-0.130896
0.37607
-0.264891
-0.111195
-0.113566
-0.178173
0.434135
-0.0109622
0.305181
0.0898964
-0.167439
-0.110953
0.273851
-0.150598
-0.177953
0.146098
0.2928
-0.494193
0.201411
0.30906
0.136502
-0.445493
-0.220388
0.117551
0.0869489
-0.309885
-0.268389
0.212038
0.056346
-0.139678
-0.114749
0.254407
-0.0829765
0.232339
-0.149374
0.0867351
-0.07801
-0.00872602
0.00254199
-0.000752699
-0.00178937
-0.166648
0.348707
-0.182051
0.22081
0.155247
0.0612341
0.140451
-0.283019
0.130733
-0.156071
0.0253359
0.184103
0.0806455
-0.264786
0.4955
-0.207822
-0.00496071
0.0461757
0.415219
-0.213792
-0.201406
0.165785
-0.0936476
-0.072144
-0.037808
0.0634866
-0.0256776
-0.179661
0.124895
-0.106221
0.0595777
-0.128576
-0.143303
0.271842
0.241521
-0.124222
-0.117307
-0.254908
0.171912
0.520218
0.0846129
-0.604836
0.0871822
-0.289138
0.201927
0.000303265
-0.102017
0.101713
-0.326032
0.108415
0.21758
0.351876
-0.264697
-0.148958
0.275302
-0.126349
-0.0588371
-0.047384
0.18476
0.0797416
-0.287915
-0.161639
-0.137419
0.134265
-0.283924
0.149666
0.486744
-0.192216
-0.294509
0.165813
0.153761
-0.319566
-0.193065
0.0983604
-0.398406
0.129253
0.269201
0.395893
0.201122
0.104255
-0.124511
0.0202528
-0.137495
0.058094
0.0794
0.546904
-0.0267783
0.257613
-0.144492
-0.113129
-0.125897
0.130076
-0.00418106
-0.390505
0.312034
0.0784289
0.152409
0.334346
-0.589304
0.197629
-0.239016
-0.269953
0.572789
-0.302511
-0.270052
-0.466195
0.322254
0.143992
0.220609
-0.129613
-0.0910172
-0.000408173
0.00295012
-0.205463
-0.0629308
-0.244893
0.437925
-0.19299
0.266428
-0.351431
0.0849996
0.16143
0.29638
-0.162102
-0.000833346
-0.00143057
0.00226384
-0.126964
-0.199118
0.079363
0.0666456
-0.141973
0.284249
-0.142293
0.196177
0.182357
-0.378525
0.137462
-0.0332111
-0.267073
0.138475
-0.112917
-0.0327579
-0.220433
0.178974
0.0414451
-0.0169156
-0.108984
-0.158029
0.370713
-0.212658
0.0490053
0.116774
-0.366189
0.212569
0.153606
0.000576963
-0.00681904
0.00624205
-0.164492
0.0873046
0.0771843
-0.220687
-0.17767
-0.089921
-0.0648442
0.15476
-0.00529953
-0.00118292
0.0064824
0.129399
-0.27838
0.0522152
-0.16524
0.0932739
-0.0929717
0.142835
-0.252208
0.10935
0.0149988
0.251421
-0.130569
0.248057
-0.117509
0.117013
-0.104265
-0.0127509
-0.236803
0.354139
-0.117364
-0.275956
-0.190201
0.136744
-0.0190557
-0.117696
0.446419
-0.22526
-0.221111
0.312842
-0.147011
0.233448
-0.127542
-0.105918
-0.363662
0.159096
0.204588
-0.00855878
0.52916
-0.520633
0.025334
-0.0233083
-0.00202513
-0.000454219
-0.00164293
0.00209709
0.581997
-0.302218
-0.279542
-0.197139
0.549318
0.245081
-0.11841
-0.126683
-0.0447905
0.353917
-0.13491
0.0449845
0.00476283
-0.00685827
0.0020954
0.00918843
-0.00322374
-0.0059647
-0.173419
0.0858265
0.0875879
-0.132275
-0.21972
0.351992
-0.194233
-0.169407
-0.144181
-0.131027
0.275171
-0.187421
-0.178782
-0.109742
0.00135606
0.108385
0.0278156
-0.0230528
0.0082379
-0.00718845
-8.42676e-05
-0.000370025
0.128182
0.160615
-0.288813
-0.463041
0.288508
0.174436
0.0141299
-0.0729673
0.0686361
-0.0651704
-0.0034664
0.0274825
0.089796
-0.117282
0.0498735
-0.0428927
-0.0069765
-0.00443816
0.0052327
-0.000794543
0.280297
-0.14794
-0.132384
0.0624529
0.0242814
0.107069
0.0806983
-0.18778
0.112927
0.132142
0.005364
-0.00517001
-0.0964125
-0.155259
0.251636
-0.0906798
-0.129771
-0.123131
-0.10563
-0.001163
0.000329568
-0.0990661
0.126498
-0.0274348
0.260688
-0.108531
-0.152168
-0.000314276
0.00586094
-0.00554667
-0.108398
-0.130481
0.238877
0.0587053
0.0156136
-0.074319
-0.26196
0.131363
0.017359
0.00797544
-0.081938
0.0960674
0.156064
-0.0220012
-0.134065
0.00171577
0.0760801
-0.0777964
-0.129572
-0.0987487
0.228321
-0.213806
0.390067
-0.176298
0.363999
-0.561069
-0.288552
0.209725
0.0788136
0.0151254
0.103555
-0.118685
0.253189
0.00749327
-0.0956253
0.324468
-0.228831
0.00766087
0.0609748
0.135912
-0.405829
0.449814
-0.0438849
0.00460336
0.0541019
0.409973
0.144647
-0.554351
-0.299132
-0.291322
0.590389
-0.53034
-0.00721993
0.537196
-0.0942708
0.0959858
-0.615744
0.605055
0.0111699
-0.109141
-0.000603435
0.0863831
-0.0948744
0.00849105
-0.255445
0.13702
0.0269096
-0.125977
-0.115912
0.30025
-0.184381
-0.313486
-0.149487
0.462881
-0.173852
0.141296
0.0325504
0.478361
-0.208587
-0.269744
0.139579
0.0810102
0.236944
-0.112888
-0.124068
0.016514
-0.101928
0.0854135
-0.112164
0.191336
-0.193475
0.152712
0.040749
-0.219918
0.110603
0.109315
0.163251
-0.0848191
-0.0784326
0.457322
-0.250311
-0.206952
0.131985
-0.0130293
-0.118959
0.369396
-0.148597
0.205657
-0.0587211
-0.00635619
0.0650767
-0.268405
-0.194727
0.207504
0.16188
0.189944
-0.214235
0.173867
0.0595691
-0.181916
-0.203524
0.385553
-0.732048
0.479396
0.252849
-0.0940941
0.239914
-0.145823
0.289975
-0.159237
-0.130728
0.230166
-0.362433
0.138301
0.138529
-0.28274
-0.22769
0.098053
-0.389105
0.144302
-0.416649
0.239522
0.556241
-0.00194321
-0.554194
0.106823
0.150781
0.0839606
-0.270901
0.186913
-0.692979
0.401363
-0.32585
-0.215585
0.541726
-0.342837
0.176202
-0.133218
-0.0584086
0.191604
-0.0672651
0.0837787
-0.0913696
-0.0820526
-0.00666982
0.00635554
0.113427
-0.0859468
0.0257951
0.0915716
-0.117371
0.0772003
0.152646
-0.0162503
0.18771
-0.171459
-0.0930961
0.0685222
0.0245757
-0.274021
0.179918
-0.23135
-0.159203
-0.396119
-0.335758
-0.158891
-0.129676
-0.378809
0.196984
-0.0812227
0.178641
0.256704
-0.0536049
-0.203114
0.193841
-0.521391
-0.00933948
-0.0911626
0.106285
-0.180942
0.0912953
-0.0049126
0.115588
-0.0178353
-0.0889143
0.106748
-0.216609
0.108213
0.174108
0.115878
0.200608
0.194718
-0.395243
-0.000917552
0.134658
-0.133762
0.0511382
-0.287969
0.174388
-0.0673317
0.257178
0.0057175
-0.262927
-0.104872
0.00498685
-0.00440993
0.000283771
-0.406063
-0.376662
0.242031
0.134612
-0.0526047
-0.0404891
-0.166556
0.19262
-0.301185
0.185503
0.265985
-0.451534
0.0984307
-0.231673
0.0408756
0.00900259
0.0414415
-0.156558
0.115107
0.120308
-0.00329715
0.00788248
-0.590785
-0.177585
0.541664
0.181414
0.106407
-0.334244
0.0886553
0.0745941
-0.36364
0.241181
0.122462
-0.122505
0.415399
-0.326703
0.400423
-0.0737135
-0.315274
0.199323
-0.236055
0.134013
0.102049
-0.126375
0.186405
-0.0600393
0.0213679
-0.109539
0.0881698
-0.0181456
-0.0256221
0.0437673
-0.0630287
-0.114954
0.0246259
0.0556614
-0.0802879
0.227117
-0.405975
0.178991
0.162982
-0.163905
0.255673
0.374706
0.0116377
-0.0119584
-0.107269
0.131269
-0.0240029
0.0110194
-0.0929168
0.0818967
-0.00345321
-0.17841
-0.290533
0.468842
0.224594
0.032095
0.126231
0.222483
0.0977999
0.102221
-0.20004
-0.0862781
0.644568
-0.344566
-0.299962
-0.207814
0.137435
0.07037
0.393557
0.17946
-0.585426
0.601594
-0.016038
0.137057
-0.080255
0.101622
0.58782
-0.346397
-0.241329
0.15101
-0.28151
0.304491
-0.162395
-0.142124
-0.208451
0.0820616
0.00165928
-0.00366889
0.00200959
-0.161901
0.260697
0.321522
-0.343404
-0.228978
0.57247
-0.220057
0.306968
0.0941762
0.0623447
-0.15653
0.134729
0.0213336
-0.0230834
0.114652
-0.00447219
0.103557
-0.0990857
-0.176263
-0.0597833
-0.230271
0.139574
0.117044
0.24852
-0.144147
0.275669
-0.131521
-0.596009
0.296213
0.123687
-0.0251282
-0.0985596
-0.00209398
0.259248
0.134159
-0.0942515
-0.0939006
0.188147
0.226636
-0.0327575
-0.120848
0.153588
0.118381
0.0963529
-0.190604
-0.130697
0.253541
-0.122868
-0.127661
-0.0658318
0.117506
-0.134426
-0.123358
-0.0844657
-0.0697941
0.227679
-0.157909
-0.387167
0.220405
0.166741
0.0758837
-0.0803566
0.12648
0.0102584
0.0110668
0.19034
-0.201416
0.164167
-0.07
0.138864
-0.364834
0.225858
0.178099
-0.446526
0.395351
-0.256572
-0.154175
0.121404
0.0133102
0.0874461
-0.100757
-0.15593
0.245572
-0.0896527
-0.60196
0.340891
0.261032
-0.185599
0.122551
0.300885
0.29613
0.336607
0.251302
0.00471569
0.168785
-0.382615
0.189103
-0.414259
0.225277
0.0015889
-0.00688848
-0.195806
-0.264644
0.460471
-0.127576
0.0501408
0.0774343
0.0942919
0.029394
0.111981
0.0187495
-0.0326488
0.0356466
-0.00299346
-0.00635043
-0.105338
0.185186
-0.0798605
-0.0771191
0.0183974
0.33159
-0.572563
0.241169
0.022678
-0.201048
0.324786
0.272229
0.290395
-0.166509
-0.123914
0.209709
-0.0644558
-0.14525
-0.638272
0.22883
0.40947
0.205491
-0.107705
-0.0249065
0.079769
-0.151885
0.547128
0.36729
-0.504228
0.073357
-0.0871622
0.0138034
-0.0368492
0.0524628
0.147823
-0.262576
-0.213804
0.415576
-0.201757
0.00144804
0.00678986
0.03019
-0.140824
0.429185
-0.0115452
-0.0664655
0.0017335
0.346385
0.132021
-0.318002
-0.284002
-0.448874
0.239072
0.20989
-0.172628
0.365226
-0.19252
-0.563181
-0.0220079
-0.36371
0.364025
0.100509
-0.0581331
0.122928
-0.0171783
0.0657121
-0.0485342
-0.582197
0.23916
-0.184705
-0.178929
-0.075598
-0.0291435
0.10474
-0.247
0.296495
-0.0495527
-0.0694824
-0.100265
0.141697
0.0971612
-0.221389
-0.221481
-0.163883
0.385351
-0.423848
0.21003
0.0912426
-0.0984117
0.00716846
-0.14274
0.0788535
-0.184204
-0.120231
0.254349
-0.134135
0.00012407
-0.00716509
-0.129595
-0.125865
-0.0709192
0.101542
-0.223247
-0.271448
-0.200311
0.47174
0.187651
0.117458
-0.0389011
-0.0785575
-0.187031
0.463175
-0.276147
0.1359
0.0548321
-0.190734
0.190918
-0.312179
0.121277
0.160778
-0.291479
-0.00636063
-0.000497664
-0.0964942
0.227168
-0.130666
-0.0966989
-0.18636
0.283088
0.00728071
0.544158
-0.551176
-0.0117239
0.00390331
0.00782054
-0.170819
0.373378
-0.202483
-0.192903
0.0964123
0.256895
-0.149995
-0.106908
-0.178106
-0.0808011
0.0636225
0.00823091
-0.514132
0.415121
0.0991576
-0.0293361
-0.176132
0.0818938
-0.237832
-0.503105
-0.499645
0.20406
0.295725
0.176312
-0.387385
-0.00377449
0.00960032
-0.00582584
0.187596
-0.395609
-0.46875
-0.146598
0.0768466
-0.157484
0.080633
-0.0703276
0.149727
0.158005
-0.0110629
-0.146948
-0.593181
0.293982
-0.102243
0.182929
-0.00113259
0.241086
-0.107064
-0.358463
0.181094
0.177378
-0.19196
-0.19523
-0.0932435
-0.0712518
0.21153
-0.200478
0.198455
-0.469853
-0.0760225
0.1666
-0.0905862
-0.255663
0.362087
0.0642692
-0.427988
0.171601
0.0653332
-0.228236
0.432854
-0.204544
-0.121951
0.0339641
0.0879824
0.227658
0.0843359
0.263147
-0.450189
0.00802089
-0.00864968
0.538075
-0.259479
-0.278581
-0.136587
0.297175
-0.585889
0.195302
0.390549
-0.274882
0.154624
0.195036
-0.0576099
-0.357634
-0.156321
0.143435
-0.363503
-0.0796073
0.0824319
0.182002
-0.264452
0.0492563
-0.0502634
0.00100712
-0.114172
-0.15986
-0.29709
-0.398388
0.599555
-0.128964
0.0280522
0.100909
0.164194
-0.309377
0.145109
-0.310707
0.214018
0.229399
-0.585403
0.356291
-0.310155
0.149336
0.160822
-0.00580394
0.121067
-0.115269
0.0397836
-0.077591
0.19992
-0.130709
0.008753
0.0262536
0.122352
0.118741
-0.329674
-0.26311
0.592725
-0.19934
-0.167465
0.366827
-0.167927
0.326049
-0.158168
-0.444576
0.529192
0.382425
-0.191567
-0.190747
-0.00259498
0.00138584
-0.00775244
0.00656951
-0.374293
-0.263951
0.0533367
0.125625
0.0110099
-0.163729
0.152723
-0.161314
0.172335
0.253531
-0.0694484
-0.312364
-0.281064
0.593635
-0.0857721
-0.0587411
0.144512
-0.00726463
0.0985064
-0.0480655
0.218931
-0.440343
-0.327913
0.159947
-0.338515
0.0914475
0.248582
-0.444422
0.00116904
-0.00339554
0.00222642
-0.0885882
-0.0846698
0.173247
-0.119813
-0.149884
-0.189712
0.339627
-0.301118
-0.262708
0.564055
0.255467
0.068494
-0.324005
-0.156101
0.0976024
0.132281
-0.497285
-0.0112812
0.00750669
0.026752
-0.0636013
-0.0201437
-0.0595549
0.0796983
0.0808483
0.0492244
-0.194446
-0.357961
0.137309
0.245274
-0.136373
-0.108895
-0.1115
-0.0596433
0.171135
0.00250956
-0.0025832
7.3548e-05
0.00527965
0.0225358
0.205319
-0.120335
-0.0849994
0.171326
0.440165
0.136125
-0.576297
-0.100027
0.251027
-0.193913
0.16456
0.536688
-0.096575
0.00102102
0.00816741
0.442029
0.11427
-0.192592
-0.213252
-0.215644
0.110888
0.104754
0.127542
-0.572031
0.198332
-0.0680346
-0.130294
-0.266914
0.152731
0.0861427
0.0474024
-0.13355
-0.0898841
-0.0865335
0.176406
-0.508113
0.500904
-0.0967363
-0.152051
0.248783
0.103165
0.126902
-0.15093
-0.0395921
0.127592
-0.0467473
0.00165797
-0.0861231
0.0844642
-0.282132
0.606655
0.143645
0.125436
-0.261514
0.144288
0.117198
-0.0673503
-0.216572
-0.280247
-0.286168
0.566356
-0.268398
0.12424
0.28485
0.151834
-0.436662
0.077643
0.0397074
0.118292
0.0501758
0.065108
-0.115287
-0.5791
0.350704
0.228313
-0.131878
0.214294
0.534678
-0.305068
-0.137058
-0.176621
0.313662
-0.0588891
-0.0182306
0.305441
0.228266
-0.533487
0.25286
-0.124853
-0.128015
0.134144
-0.0811915
0.193666
-0.421815
-0.130563
0.251447
-0.187981
-0.0634609
-0.231151
-0.000425839
0.00103988
-0.000614102
-0.0751815
0.193186
-0.118011
-0.563417
0.319523
0.244043
-0.0302595
-0.0775232
0.107782
0.0122411
-0.208101
0.195826
-0.596855
0.305444
0.15754
-0.30971
0.152157
-0.186444
0.375859
-0.189377
0.336718
0.260297
-0.240466
0.111241
0.129218
0.0318182
0.22362
-0.0338875
0.0606393
-0.097955
0.240772
0.184359
-0.383656
0.146955
-0.296255
0.1493
0.157433
0.0375938
-0.106795
-0.0867691
0.193557
-0.185403
0.381601
0.105261
-0.23824
0.132983
-0.174555
-0.183375
-0.0888925
0.215695
0.321519
-0.153112
-0.168418
-0.178093
0.0881951
0.403004
-0.213776
0.240009
-0.107563
0.188904
0.240913
-0.429823
-0.179551
-0.221527
0.401019
-0.00946237
0.0411202
-0.0316581
-0.259964
-0.188823
-0.074684
0.0157938
0.387036
-0.210718
0.140589
0.135034
-0.27561
0.548927
-0.308592
-0.240216
0.22884
-0.124822
-0.104017
-0.297489
-0.288438
-0.180775
0.105587
-0.135334
0.327935
0.0713619
-0.101623
-0.216279
0.552892
0.0839323
-0.0376037
0.284688
0.16177
-0.133761
-0.0747048
0.470351
0.172183
-0.642334
0.196331
0.103875
-0.0402337
-0.324706
-0.161815
-0.0786584
-0.41569
0.231487
0.184215
-0.0592421
0.0187001
0.0292521
-0.0479523
0.110436
0.0878991
-0.227199
0.192637
0.0345659
0.0974481
-0.120537
-0.143499
0.343502
-0.200012
-0.0545956
-0.0754787
0.130071
0.111681
0.11462
0.50878
-0.30034
-0.155016
0.0789866
-0.0820338
0.0836908
-0.00168946
0.00419892
0.079992
0.0981646
-0.0183183
-0.0798467
-0.127122
-0.139152
-0.128586
0.267727
0.3515
0.29311
0.246367
-0.0833941
-0.196616
-0.0199962
-0.191182
-0.00996659
0.201181
0.316922
-0.112338
-0.117635
0.229944
0.020697
-0.11207
0.51172
-0.520303
-0.293105
0.156045
-0.141507
0.246771
-0.00408164
0.0196501
-0.0155688
-0.221794
0.0880151
0.0992093
-0.201464
0.135959
0.109321
-0.0327348
-0.475461
0.031964
0.512545
-0.273522
-0.239035
-0.177624
-0.236274
0.413838
0.2146
-0.0183043
0.0614246
-0.317077
0.00182474
0.009813
0.184807
-0.0878229
-0.0969833
0.00760152
-0.0116834
-0.630673
0.259127
0.371745
0.0506907
-0.0886262
0.0379352
-0.000629041
-0.00259547
0.00322445
0.133448
-0.0391574
-0.00678419
-0.184367
0.161619
0.0260888
-0.00434726
0.136328
-0.0546382
0.131827
-0.0771915
-0.300265
0.137831
0.297567
-0.106616
0.0729451
0.0119008
-0.0110959
-0.196345
-0.154501
0.350835
-0.0762341
0.153075
0.0283786
0.0100904
-0.0384691
-0.351277
0.273718
0.0775131
0.253621
0.179811
-0.433475
-0.257848
0.190494
-0.248404
0.13108
0.117305
-0.327399
0.287083
-0.0331498
0.221825
-0.188703
-0.0846528
-0.0443131
-0.0374677
0.113547
0.220369
-0.546922
0.233325
-0.00806474
0.00124568
0.0148812
-0.0118895
-0.00299165
0.180964
-0.182124
-0.176328
-0.396319
0.512482
0.20082
-0.107762
0.0321634
0.0959809
0.0888275
-0.0506618
-0.0442128
-0.242458
-0.180009
0.433547
0.184637
-0.360285
0.175694
-0.267864
-0.226317
0.0970979
-0.214827
0.117732
-0.222544
0.0369258
-0.0337092
0.0155632
0.264773
-0.506348
0.241647
-0.593911
0.260222
0.333569
-0.165557
0.151928
0.0136244
0.155577
-0.35187
0.143063
-0.214761
0.0717091
-0.0622464
0.0859103
-0.0236648
0.171427
-0.268167
-0.0146882
-0.029125
0.0438131
0.0120661
-0.00446475
-0.272104
0.132934
0.189941
0.0733687
0.0277423
-0.101112
-0.00753504
0.0121207
-0.00458567
0.0552151
-0.147509
0.0922915
0.202149
-0.14928
0.0363621
-0.00646552
0.0588184
-0.0523535
0.0934621
0.0736671
-0.167133
-0.159897
-0.14041
-0.557544
0.214195
-0.28352
0.089722
0.00157304
-0.213218
-0.0139775
0.0679642
0.00313588
-0.0711011
-0.591567
0.261852
-0.000860451
0.00251971
-0.0169458
0.104391
0.196258
-0.363689
0.247761
0.163332
-0.411094
-0.00199687
0.0365827
0.37357
0.19237
0.356647
0.20552
-0.109322
-0.0962131
-0.00112046
0.00136051
-0.000240096
0.00420602
-0.00653632
0.00233022
0.0511062
-0.0605689
0.164754
-0.301367
0.195997
-0.132916
-0.0630861
-0.147668
0.0930282
-0.437385
-0.142404
0.168183
-0.469024
-0.584401
0.282298
0.0904041
-0.000682492
0.384688
0.240593
-0.625271
0.370558
-0.186178
0.135116
0.0608762
-0.174281
-0.123309
-0.0505469
0.284517
0.258613
-0.542955
0.265465
-0.491857
0.22659
0.401093
-0.326123
-0.253069
0.147438
-0.0601373
-0.15554
0.540332
-0.184823
-0.158002
0.0660615
0.11279
-0.178858
-0.104863
-0.00427869
0.00390455
-0.0515301
0.0476254
0.407118
0.198737
-0.605651
-0.154611
0.103458
0.0511508
0.00271221
0.0121692
0.0313554
0.0179011
-0.129366
0.226517
0.00726034
-0.0123124
0.00505202
-0.000996666
-0.123673
-0.193513
-0.418742
-0.126279
-0.125951
0.219996
-0.106149
-0.113853
0.00238634
0.00183314
-0.00421973
0.0979967
-0.563672
0.28345
0.429271
-0.584844
0.0054696
0.0858763
-0.140475
-0.146163
0.310893
0.292874
0.27018
-0.562918
0.170575
0.174392
-0.344948
0.0983414
0.0658171
0.229494
-0.551538
0.0058677
0.545722
0.122594
-0.211472
-0.1416
-0.298077
-0.286205
-0.171614
0.374892
-0.203225
-0.0390638
-0.0245375
-0.208544
-0.168136
-0.258325
0.110235
0.395353
-0.278576
0.116913
0.119952
-0.0205436
-0.0994119
0.53477
0.228113
-0.115464
-0.112677
-0.326624
0.438162
-0.11155
-0.22507
0.126331
-0.0596575
0.0425934
0.017064
0.30472
0.292295
-0.0597176
0.0636218
-0.0722366
0.211802
0.00282868
-0.00499779
0.00216907
-0.261377
-0.362296
0.13991
-0.0904308
0.213042
-0.0872122
-0.0674004
0.0839724
-0.0106169
-0.197124
-0.0254369
0.0856137
0.0125505
-0.0600429
-0.0603492
0.120394
-0.254976
0.0993122
0.155662
-0.0103138
0.554627
0.0377022
0.0957447
0.172491
0.292208
-0.464606
0.273908
-0.618534
-0.408051
0.211354
0.196765
0.614798
0.0592286
0.109636
-0.168872
0.383662
0.213353
0.250618
0.0190281
-0.0812756
0.102945
-0.189489
-0.154239
-0.433951
-0.0480463
0.137465
-0.0894255
0.142711
-0.255614
0.0400897
-0.149562
0.250733
-0.101169
-0.0589185
0.0250309
0.178486
0.186818
-0.103965
0.14109
0.00824182
-0.0255557
0.0173136
0.105714
-0.238821
0.133116
0.00151187
-0.000342883
0.336282
-0.599382
-0.0470487
0.195171
-0.148116
0.498887
-0.56748
0.0687164
0.157898
-0.286495
-0.150285
0.314433
0.130945
-0.0448092
0.0266341
-0.107252
0.0806156
-0.238611
0.110485
0.128129
-0.00689995
-0.28125
-0.326966
0.608251
-0.0636305
0.0489422
-0.278953
0.119727
0.167574
0.19112
-0.358644
-0.0907359
-0.065337
-0.0219654
0.156215
-0.134255
0.00339153
0.00867439
-0.150572
0.398348
-0.105801
0.0999909
-0.098708
-0.00615697
0.102857
-0.0325401
0.0827131
-0.292363
0.549051
-0.40605
-0.142851
-0.299925
-0.0929188
0.0637282
0.0291902
-0.405961
0.498832
-0.0930837
-0.402415
0.30044
0.228571
0.194078
-0.422533
0.158609
-0.46107
0.215708
-0.407177
0.257712
0.274205
-0.12727
0.207088
0.188714
-0.395698
0.476538
-0.250326
0.120716
0.0821578
0.123348
0.0965273
-0.144581
0.399916
-0.212324
0.00664872
-0.00382021
0.314151
-0.13367
-0.180489
-0.0433254
0.0940158
0.130498
-0.0269468
-0.000781508
-0.000411137
0.0011926
-0.0380729
-0.107421
0.145482
0.185158
-0.232208
0.0100977
-0.00482695
-0.00527081
0.0785658
-0.185369
-0.0708057
0.0618976
0.0103809
-0.0722789
0.165753
-0.0674177
0.565388
-0.46759
-0.126988
-0.0988639
0.225833
0.0156845
-0.345684
0.0878449
0.000966871
-0.00152008
0.000553161
0.286821
-0.290768
0.003955
0.0756493
-0.0569494
0.0313293
-0.116887
-0.115158
-0.151768
-0.00200622
-0.0016627
0.143402
-0.190652
0.373043
0.50767
-0.0370767
-0.0993665
-0.138869
0.431792
0.117421
0.162626
-0.474744
-0.074113
-0.0608013
0.132161
0.0775512
0.168979
-0.495594
-0.183326
-0.162353
-0.117133
-0.133208
0.0453312
0.0721263
0.0969758
-0.233344
0.171561
0.396626
-0.568261
0.162127
-0.234376
-0.109736
-0.0533342
0.163067
0.106778
0.147555
-0.210422
0.471013
-0.260587
-0.000319283
0.00128611
0.180552
-0.298042
0.117463
-0.00595502
0.247126
-0.0590271
-0.109417
0.207828
-0.175283
-0.14003
-0.00698674
0.00824663
0.0257949
0.00577327
-0.0315651
0.0120759
-0.0110362
0.169249
-0.316662
0.147375
0.12496
0.103126
0.125374
-0.101242
-0.0241332
-0.179409
-0.299534
0.149678
0.587445
-0.143684
-0.0980779
0.241766
0.353755
-0.476118
0.454132
-0.169426
-0.142262
-0.0757038
-0.0114603
0.0109827
-0.065077
0.0540938
0.493378
-0.261264
-0.23212
0.30898
-0.134275
-0.174732
0.269402
-0.485933
0.0745862
-0.264258
0.12176
-0.255497
-0.232708
0.488439
0.116151
-0.120502
-0.114224
0.0491309
-0.258052
0.208915
-0.391567
0.216959
0.174681
-0.228199
-0.185281
0.413557
-0.290079
-0.222873
0.513126
-0.148
-0.0915995
0.239594
-0.00230095
0.00118044
0.235512
-0.112644
0.190338
0.389155
0.0917399
-0.00883314
0.0170748
-0.228791
-0.186886
0.22179
-0.5117
0.383303
-0.234964
0.0838355
0.00177763
-0.0949627
0.55915
-0.552206
-0.00692322
-0.358626
-0.271879
-0.136663
0.114689
0.0911838
-0.0048269
-0.0863576
0.563787
-0.308855
-0.254986
0.627797
-0.355686
0.198558
-0.107249
-0.09133
-0.155495
-0.134917
0.290445
-0.235606
0.124899
0.110699
-0.217822
0.156785
0.0610184
-0.0976454
0.072414
-0.161012
0.468693
-0.226763
-0.241973
-0.0350494
-0.139266
0.174301
-0.0229209
0.0836241
-0.0607036
0.150074
-0.0290133
0.00867905
-0.127447
0.118765
0.0985891
-0.20537
0.106758
0.100245
0.288416
-0.60642
0.167797
0.152036
-0.31987
-0.0969273
-0.128134
0.20357
-0.107588
0.152667
0.164672
-0.317406
-0.194435
0.337926
-0.143494
0.583349
-0.283059
-0.300042
0.282719
-0.142121
-0.00672072
-0.0975072
0.0820864
0.0154202
-0.129963
0.0843626
0.0456046
0.150272
-0.26544
0.305916
0.100188
-0.171591
0.0713964
0.159211
-0.30175
-0.156
0.205108
0.0531739
-0.112204
0.0590304
0.103005
-0.212444
0.158363
-0.293722
-0.377078
-0.0456477
-0.0472714
-0.0137105
-0.0805609
0.024042
0.44358
-0.467415
0.138877
-0.269945
0.120603
-0.142605
0.349371
-0.164699
0.501993
-0.268176
-0.233674
0.35169
-0.0664763
0.187077
-0.0573555
0.191991
-0.134663
-0.15318
-0.0824329
0.00353726
-0.000951006
-0.00258626
-0.141719
-0.13319
-0.311673
0.0147726
-0.0120602
-0.255511
-0.220732
0.476181
-0.0667443
0.0777267
-0.532639
-0.0181549
0.551056
0.11532
0.0875255
0.0442988
0.289896
-0.276146
-0.0137875
0.39689
0.159708
-0.55661
-0.313599
0.167412
0.255423
-0.118555
-0.136877
0.0905068
-0.00667181
0.158685
-0.27563
0.568434
0.0074087
-0.0644677
0.0570586
0.0562314
0.0964683
0.0834727
-0.142215
-0.00719559
0.00379996
-0.0341124
0.151615
0.663296
-0.311765
0.0920014
-0.121146
0.168593
-0.319072
0.150492
0.0177346
0.0788827
-0.0966177
-0.23254
-0.141033
0.279527
0.521962
0.083504
-0.00557489
-0.00614899
0.314172
0.349131
0.0471683
-0.265014
0.237609
0.128541
0.100299
0.0797486
0.105424
-0.15481
0.0951605
-0.263022
0.0476469
0.215366
-0.293492
0.103609
-0.141692
-0.192153
0.0890041
0.103131
-0.18342
0.428333
-0.244889
0.160648
-0.217727
0.0570693
-0.346032
0.161332
0.00492198
-0.0282298
0.00466754
-0.0134559
-0.392746
0.169692
0.00190471
-0.261581
-0.301689
-0.0420398
-0.0879187
0.319347
-0.562064
0.242646
0.000576073
0.00296117
-0.214508
-0.349114
0.14057
0.12555
0.433583
0.0972424
-0.245251
0.107803
-0.243847
0.136045
-0.501225
-0.151615
0.65291
-0.135971
-0.255521
0.182021
-0.306388
-0.0986583
-0.0506218
-0.0653269
0.149939
-0.0846143
-0.142121
0.292269
-0.15013
0.229519
-0.123791
-0.246651
0.14729
-0.149405
0.0722109
0.303444
0.148293
-0.129328
-0.132213
-0.140068
0.297588
0.205304
-0.0619107
0.143647
-0.228046
0.0844037
0.00440059
-0.505578
-0.504197
0.248813
0.0912964
-0.169544
0.0782396
-0.348656
0.1771
0.0830011
-0.100838
-0.0851842
0.229456
-0.00829345
0.0987398
-0.090447
0.138786
0.123469
-0.262261
0.467413
0.137156
-0.331612
0.0632554
-0.200009
0.136758
-0.111179
-0.0543817
0.192036
-0.420129
0.132606
-0.100266
-0.0692586
0.169522
-0.105192
-0.393815
0.12559
-0.556439
-0.0306421
0.587103
0.0112992
-0.0778745
0.0707964
0.00707777
-0.214471
0.0970637
0.117393
0.0012707
0.01063
-0.101999
-0.0792271
0.181225
-0.109515
0.206618
-0.14916
0.0394206
-0.0593673
-0.0883031
-0.0690989
0.212175
0.00290928
-0.234215
0.0905323
-0.0510648
0.160183
-0.109123
0.130654
-0.286112
0.162726
-0.22011
-0.189089
0.342847
0.146225
0.0153097
-0.194972
-0.177491
0.37586
-0.198375
-0.0480838
0.0416178
0.237717
0.0764287
0.0303815
0.259478
-0.0540275
0.0964237
-0.0423968
-0.371986
0.180014
-0.111098
0.201617
-0.0905239
-0.0837771
-0.214346
0.0867905
0.0336616
0.253163
-0.0216605
-0.0787607
0.10042
-0.23177
0.129821
0.101956
-0.268648
-0.259166
0.527843
-0.0887001
0.199305
0.0058353
-0.00735544
-0.0864054
0.094883
-0.00848018
-0.201144
-0.148709
-0.0855038
-0.213525
0.506926
-0.293244
-0.370986
0.325443
0.0455602
-0.0169623
0.113029
0.222798
0.236963
-0.507427
0.270494
-0.181418
0.0753037
0.106107
0.140851
0.150259
-0.291116
-0.00210489
-0.169295
0.171398
-0.186561
0.354159
0.46891
-0.049688
0.0222456
0.0274438
-0.142831
-0.156675
-0.296291
0.360595
0.193746
-0.0372515
-0.156503
-0.145905
0.315129
0.398741
-0.113992
0.437295
0.0918591
-0.0938407
-0.142264
0.261008
-0.118775
-0.265078
-0.32895
0.423508
-0.204544
0.0949168
0.0708503
-0.165767
-0.127179
-0.1278
0.102525
0.111568
-0.214113
-0.149576
-0.156983
0.306572
-0.0904425
-0.057068
-0.107557
0.310775
-0.158169
-0.249587
0.127945
0.121629
0.440153
-0.174562
-0.249847
0.486764
-0.00632399
-0.0664167
-0.0985542
0.164965
-0.105029
-0.0871425
0.0679287
0.152062
0.0625962
0.100163
-0.162765
-0.157222
0.0569538
0.15765
-0.0735469
-0.0841112
-0.0843933
-0.0706299
0.0681507
-0.197531
0.0429771
-0.0145985
0.164525
-0.317635
0.139319
0.152402
-0.291768
-0.292156
0.520678
-0.516225
-0.0402163
-0.0502696
0.154026
-0.103762
-0.120335
-0.412049
-0.0630667
0.00338668
0.00451264
-0.00789934
0.123984
-0.091314
-0.0326707
0.000887949
0.396
0.0444646
0.149274
0.153934
-0.0574401
-0.0964964
-0.209077
-0.239673
0.448732
0.0766602
-0.0735253
-0.0288098
0.120116
-0.0913087
0.0442749
-0.0831764
0.104304
0.0992674
-0.00160857
0.00210299
-0.000494464
-0.0618529
-0.0953727
0.0990144
-0.0903347
0.000403535
0.00198265
0.184353
-0.0814164
0.147135
-0.296705
0.145852
-0.0472828
-0.182927
0.366022
-0.183072
-0.00474129
0.00894721
0.0915699
-0.232661
0.141084
0.0691759
-0.150093
0.0809131
0.391517
-0.217169
-0.174359
0.0892157
0.39613
0.09941
-0.495338
-0.000168266
-0.00503466
0.0052029
0.0103429
-0.0150843
0.318969
0.264436
-0.583278
-0.00461151
0.0085148
-0.108725
0.0858949
0.0228297
-0.0820968
-0.0957991
0.177897
-0.105194
0.176818
-0.071633
0.13023
-0.44845
0.152172
0.00314456
-0.00475319
0.289709
-0.130517
-0.0265029
0.0998709
-0.00423081
0.00761749
0.232595
0.340746
-0.573223
-0.0373951
-0.225648
0.295301
0.231215
0.104852
0.0643166
-0.14063
0.0763043
0.0834746
0.0639599
-0.567353
0.0323702
0.363889
-0.0639087
-0.153826
-0.146876
-0.128123
0.274985
0.00760656
0.491419
-0.198366
0.0796465
0.118705
-0.317207
0.243487
-0.467536
0.199628
-0.0996021
0.0102999
0.122192
-0.132497
0.465084
0.0819794
-0.0200819
0.306457
0.384494
0.209423
-0.593798
0.0905468
0.114748
-0.0394441
0.0965761
-0.0571333
-0.24647
0.261465
-0.227211
0.42138
-0.102079
0.122773
0.107955
-0.0694633
-0.0384925
-0.327719
0.179801
0.147948
-0.0131505
0.175272
0.087762
-0.101473
-0.0973387
-0.00428527
0.000458161
0.00382708
0.223632
0.0999441
-0.158274
0.058326
0.00286938
-0.00362217
0.0116499
-0.0552877
0.0436375
0.328634
-0.542473
0.213959
-0.22953
0.235217
-0.0940779
0.204967
0.0786443
-0.176122
0.0974697
0.0341864
0.117738
0.241551
0.00820461
-0.0112767
0.00307202
-0.0725897
-0.108836
0.0769869
-0.0900179
0.154249
0.129983
-0.296334
0.51832
0.00402541
-0.11706
0.202941
-0.0858748
0.490948
0.327561
-0.582005
0.25452
-0.000783946
0.00227588
-0.001492
-0.221145
-0.0719565
-0.301838
0.137991
0.211422
0.126501
0.114992
0.140423
0.551756
-0.0791924
0.148363
0.121268
-0.263568
0.0934435
0.145111
-0.238544
0.221827
0.235879
-0.457582
-0.0862825
-0.0577607
0.0630402
-0.115631
0.0415155
0.159752
-0.0954473
0.00610968
-0.0041001