/*--------------------------------*- C++ -*----------------------------------*\
| =========                 |                                                 |
| \\      /  F ield         | OpenFOAM: The Open Source CFD Toolbox           |
|  \\    /   O peration     | Version:  v2012                                 |
|   \\  /    A nd           | Website:  www.openfoam.com                      |
|    \\/     M anipulation  |                                                 |
\*---------------------------------------------------------------------------*/
FoamFile
{
    version     2.0;
    format      ascii;
    class       volScalarField;
    location    "750";
    object      k_0;
}
// * * * * * * * * * * * * * * * * * * * * * * * * * * * * * * * * * * * * * //

dimensions      [0 2 -2 0 0 0 0];


internalField   nonuniform List<scalar> 
18758
(
0.000174756
0.00415743
0.000144253
0.0395473
0.06715
0.0840037
0.00876154
0.000145877
0.00021667
0.000156311
0.000152515
0.053543
0.000148184
0.000198328
0.000152472
0.000195799
0.000170391
0.000147426
0.000148477
0.000158577
0.0261015
0.000149789
0.0436186
0.000387585
0.000962298
0.000145902
0.00025169
0.0688204
0.0601801
0.000574445
0.000181343
0.0313099
0.00014914
0.000151057
0.000192039
0.000149084
0.000149462
0.000148375
0.000149377
0.000171653
0.000148399
0.000154703
0.000145745
0.000154503
0.000429533
0.000145147
0.0424027
0.000152757
0.000155972
0.000145488
0.000186711
0.063712
0.00014467
0.000152149
0.0666611
0.0222713
0.000149394
0.000183758
0.000148029
0.000199637
0.00017311
0.010301
0.000190037
0.000150461
0.000144729
0.000147974
0.000172266
0.000149109
0.000148012
0.0627144
0.0597883
0.000149421
0.00014555
0.000897456
0.000145824
0.000147984
0.000213114
0.0654073
0.000168407
0.0307215
0.0655885
0.00168483
0.000199525
0.0798451
0.000214333
0.000161002
0.0533399
0.000189752
0.00108378
0.000147994
0.076848
0.000148025
0.0337931
0.000155072
0.0683744
0.0276142
0.000212567
0.000145842
0.000147394
0.0298764
0.00015955
0.0710375
0.000184187
0.000166843
0.0254022
0.000208005
0.0195413
0.0667707
0.000150294
0.000149373
0.0349776
0.000923573
0.000146184
0.000148352
0.0504118
0.0244136
0.0312668
0.000152516
0.0418784
0.0657258
0.000165895
0.00014797
0.0837747
0.000230672
0.000218191
0.00024794
0.00220351
0.000315288
0.0277261
0.000148534
0.000170973
0.000246489
0.0152259
0.000163251
0.000460904
0.000151979
0.00021211
0.00017247
0.000147381
0.000166833
0.000168422
0.000181228
0.000148094
0.0425901
0.000148439
0.000148946
0.0251655
0.0249315
0.000181102
0.051325
0.000885837
0.00137239
0.000160804
0.000149787
0.0536262
0.000158472
0.0373888
0.000152745
0.000148924
0.000149918
0.000146673
0.000198591
0.0363835
0.00014889
0.000173487
0.0665882
0.000148656
0.0815403
0.00019199
0.0832929
0.046943
0.000147394
0.0392721
0.068393
0.000198414
0.000381726
0.0681862
0.000150634
0.000166661
0.000148659
0.000146434
0.0102134
0.000444785
0.000146174
0.000156261
0.000311463
0.000147671
0.0284111
0.000145565
0.000147687
0.000163343
0.000287413
0.000149429
0.00018037
0.000159303
0.000190211
0.000158983
0.000195809
0.000148904
0.000145679
0.000165841
0.000152589
0.000162182
0.000182701
0.00014809
0.000159109
0.000185006
0.000149845
0.0246909
0.000155889
0.000147339
0.000167469
0.000149001
0.000162394
0.000166828
0.0617006
0.000167922
0.000194266
0.000145351
0.0848316
0.000147339
0.000150327
0.000206812
0.029062
0.000204733
0.000184475
0.000173639
0.000163216
0.000145852
0.000182823
0.000147935
0.000190006
0.0437254
0.000214528
0.0001483
0.000147652
0.000145859
0.000145322
0.0817752
0.000163398
0.000146839
0.000309294
0.0226443
0.000151589
0.0460662
0.0178915
0.000213636
0.000149129
0.0669199
0.000156647
0.00014895
0.080921
0.00016111
0.000156869
0.000150891
0.000167442
0.000270172
0.000200873
0.00016197
0.000168387
0.000147063
0.000180612
0.000148046
0.000182423
0.000155534
0.000206389
0.0172948
0.000145362
0.000150027
0.000195834
0.000149842
0.000155893
0.000182419
0.081423
0.0259925
0.000148085
0.000184116
0.00686619
0.00047138
0.000149878
0.000147116
0.000158759
0.000163463
0.000148065
0.00888677
0.000264916
0.0523326
0.00815416
0.0456179
0.000145855
0.000144202
0.000164269
0.0668245
0.000153835
0.00016827
0.000188137
0.00015856
0.0632829
0.000148305
0.0155027
0.0813831
0.000145234
0.0594314
0.000160491
0.000148137
0.000160622
0.000180902
0.000151711
0.000148978
0.0157955
0.047346
0.000147399
0.010321
0.0646919
0.000201763
0.000147945
0.000149407
0.0101211
0.000151493
0.000146068
0.000147294
0.000150788
0.000192791
0.00018104
0.000158699
0.000162695
0.000158579
0.00016408
0.000146895
0.000149843
0.000305691
0.000166554
0.000185836
0.0362614
0.000154111
0.000149279
0.000149955
0.0161429
0.0614888
0.000145942
0.000147257
0.000145944
0.000151825
0.000162546
0.000612456
0.000147947
0.000149107
0.000145482
0.000204685
0.000180173
0.000199815
0.000179893
0.000151646
0.000276903
0.000173853
0.00016456
0.000157483
0.0484387
0.0295018
0.000346039
0.000148169
0.000159787
0.0104446
0.0843771
0.000153603
0.000145878
0.000174852
0.000148481
0.000161414
0.0188687
0.0214941
0.000189786
0.000158128
0.0209377
0.000148323
0.000152556
0.000147688
0.000149396
0.000188733
0.00015327
0.0124018
0.000182411
0.000150658
0.000147412
0.0345976
0.000189283
0.000215436
0.000148301
0.000177096
0.000147016
0.000154205
0.00014798
0.000145423
0.0295857
0.0262762
0.000186758
0.0501802
0.000147375
0.000209758
0.0434244
0.000167643
0.000146153
0.0369219
0.000147154
0.000149204
0.00014641
0.000189379
0.000147851
0.00015441
0.000179182
0.0851876
0.000147199
0.0654512
0.000172213
0.000147989
0.00015676
0.000148156
0.000147271
0.000157987
0.000179199
0.000163418
0.0117842
0.000166618
0.000148162
0.000192188
0.0574455
0.0615656
0.0449747
0.000188146
0.000149727
0.000145422
0.000146846
0.000149063
0.000189932
0.000170438
0.000164488
0.00015999
0.000160944
0.000493804
0.000184706
0.000148116
0.000162437
0.000937093
0.000150387
0.0220032
0.000150963
0.000148442
0.0298133
0.000155921
0.000149914
0.000269218
0.00019263
0.000164287
0.0276018
0.000148019
0.00015004
0.000202955
0.0505443
0.00015965
0.00017254
0.000199119
0.00034731
0.0118609
0.000198299
0.000149349
0.000190779
0.000148361
0.000190201
0.000151186
0.03523
0.000176797
0.00401312
0.000164292
0.000183166
0.000145238
0.000416352
0.000145584
0.0246864
0.000147728
0.000196609
0.000148248
0.0218352
0.000162111
0.000148483
0.000147398
0.000146356
0.044171
0.0234864
0.0475887
0.000172258
0.000155348
0.000181257
0.000149784
0.000149907
0.0640858
0.000147412
0.000148301
0.000188522
0.000148126
0.000171951
0.000181264
0.000148271
0.000147849
0.000155687
0.000150221
0.000158997
0.0435814
0.000165298
0.00015919
0.000155869
0.000148191
0.000338955
0.000149467
0.000150245
0.000354741
0.026917
0.000182542
0.017592
0.000153867
0.000150178
0.0325267
0.000148563
0.0283847
0.000193892
0.000148433
0.046941
0.000304983
0.000175367
0.000147398
0.000166079
0.0632204
0.000148407
0.000147648
0.000152651
0.000151655
0.000149025
0.000145973
0.000149956
0.0811709
0.000155207
0.0672212
0.000147967
0.000193204
0.0111784
0.00014809
0.000145623
0.000155062
0.000148765
0.000150023
0.000151222
0.00014858
0.000189571
0.000202239
0.000144735
0.0633194
0.0612174
0.000159016
0.00019069
0.000454842
0.000154554
0.000164426
0.000159182
0.0609013
0.000155076
0.000173756
0.000148235
0.0125705
0.000169031
0.000180059
0.000194915
0.00821417
0.000154916
0.00014797
0.00017395
0.00074335
0.000149886
0.00020652
0.000149171
0.0333874
0.000150218
0.000147259
0.000146337
0.00014817
0.0611142
0.037094
0.000148366
0.00021481
0.00015751
0.0606674
0.0287786
0.00688584
0.00094536
0.000148522
0.0714759
0.000180109
0.000148048
0.000172856
0.0627733
0.0236638
0.000150945
0.000149965
0.00014819
0.000144506
0.0250865
0.000189334
0.0669352
0.0391726
0.00014853
0.000148846
0.000175648
0.000149861
0.000146677
0.000151181
0.000152093
0.000189962
0.000168706
0.00019312
0.0665635
0.000172937
0.000148296
0.000155476
0.000182392
0.0650816
0.000172765
0.00645072
0.000171833
0.0001484
0.000210753
0.0566089
0.000149567
0.00014613
0.0001729
0.0747031
0.000195535
0.00014813
0.025861
0.00793823
0.00111369
0.000145451
0.00483133
0.0143319
0.0502834
0.000153265
0.000149249
0.0538237
0.00014996
0.000200282
0.0348243
0.000207041
0.0093106
0.000184242
0.0369478
0.000179542
0.000148728
0.000149899
0.034703
0.0525714
0.0125717
0.0217143
0.000148592
0.000200432
0.000149834
0.000173999
0.000184641
0.000185052
0.000148472
0.000153552
0.000207935
0.0622858
0.0374729
0.011345
0.000165083
0.000159614
0.000214894
0.000149196
0.000146775
0.000147606
0.000157287
0.000181925
0.000148094
0.000183633
0.000146945
0.000148819
0.000147177
0.0676575
0.000149434
0.000149777
0.000174552
0.000172899
0.000144785
0.0239119
0.000148514
0.000147349
0.000171885
0.000159458
0.000155677
0.000150512
0.00373839
0.000159179
0.00016121
0.0545874
0.000161332
0.0427991
0.000154177
0.000189635
0.0486214
0.020332
0.000146032
0.061033
0.000340004
0.000145667
0.0379069
0.000148295
0.000147093
0.000167399
0.00014748
0.000176035
0.0639088
0.000145529
0.0402363
0.000148401
0.000165734
0.0528246
0.000144634
0.0715609
0.000151616
0.00014851
0.000147592
0.000147599
0.000211086
0.000165601
0.0216676
0.000173262
0.0813516
0.000175454
0.00014811
0.00021082
0.0140282
0.00149352
0.00016633
0.000198992
0.000180208
0.000156374
0.000210671
0.000150147
0.00376613
0.000148075
0.00543534
0.000151226
0.000166445
0.00015572
0.000149561
0.0445393
0.000149961
0.000146707
0.00248213
0.000151644
0.000147197
0.000171177
0.000180297
0.000212516
0.00140599
0.0247546
0.0452646
0.000148791
0.000149308
0.0294999
0.000147813
0.000313207
0.000185299
0.000152711
0.000148296
0.000160341
0.000147945
0.000148334
0.000160536
0.000265259
0.000193099
0.000173464
0.000169749
0.000148801
0.000177861
0.0643481
0.000146981
0.000184888
0.000153306
0.0632038
0.000151086
0.0592946
0.000148039
0.000374364
0.000149829
0.000183038
0.000148098
0.00015673
0.000163353
0.000144679
0.000147202
0.000145
0.0471481
0.00935056
0.000164255
0.0748551
0.000148434
0.000170004
0.000158514
0.000218969
0.0309168
0.000164427
0.000144857
0.000180966
0.000146944
0.000148425
0.000158624
0.0277581
0.085017
0.000521985
0.00841981
0.000165999
0.000150653
0.000147698
0.00227857
0.000147116
0.00141189
0.000158497
0.00014917
0.0690761
0.0858182
0.000148496
0.0266472
0.000156177
0.00019187
0.000169643
0.0175242
0.0856303
0.000339776
0.000147821
0.000144732
0.0662809
0.000148129
0.000147962
0.000159084
0.000148215
0.0478299
0.000206858
0.000175748
0.073631
0.000172393
0.000191269
0.000153167
0.00014776
0.000144602
0.000146372
0.0262954
0.0216342
0.000220991
0.00014827
0.000144802
0.000163902
0.000147235
0.000167567
0.000154025
0.000821854
0.0657163
0.000183374
0.000216747
0.000231545
0.000147768
0.000208843
0.000147714
0.0335731
0.000340104
0.0426288
0.037149
0.000152235
0.000160706
0.000913674
0.0732155
0.0441778
0.000161321
0.000183918
0.0392465
0.000148174
0.000214707
0.000241475
0.000190732
0.00014813
0.000148211
0.000168781
0.038462
0.00033857
0.000170933
0.000147915
0.000156076
0.000156123
0.021141
0.00014937
0.000239754
0.00014723
0.000150196
0.000200346
0.000146982
0.00014798
0.000151385
0.000155496
0.000147662
0.000150096
0.000145514
0.0209146
0.000810915
0.030689
0.000145964
0.000162891
0.000148011
0.00021256
0.000214024
0.000161284
0.000147254
0.000151589
0.000223239
0.00019221
0.000159795
0.0303238
0.000190433
0.000148074
0.000148539
0.0482689
0.00154375
0.000168804
0.000145255
0.00838371
0.000148747
0.000164929
0.000145819
0.000519088
0.054683
0.000146896
0.000148966
0.0019403
0.000148016
0.0412959
0.0259284
0.000177898
0.000149265
0.000149038
0.000145794
0.000148083
0.0112257
0.0167112
0.000186667
0.000150546
0.0426717
0.000147723
0.000147667
0.0750868
0.000146921
0.0695532
0.000144533
0.000156239
0.000151212
0.000147621
0.000147235
0.000148709
0.0436911
0.000149971
0.000149232
0.000173018
0.000169028
0.000147634
0.000172739
0.000162275
0.000148742
0.000182836
0.000147669
0.000161209
0.0593722
0.000189435
0.000147739
0.000213053
0.000185916
0.000179785
0.000155107
0.000178791
0.0383164
0.000153556
0.000175595
0.000147587
0.000145883
0.000147877
0.000173662
0.000162508
0.000173961
0.000148104
0.000158024
0.000180524
0.0207612
0.000214545
0.000147687
0.000146538
0.000150391
0.000175446
0.00014671
0.0267057
0.000147594
0.000148071
0.000146534
0.000188837
0.0720299
0.00014895
0.000152696
0.000147041
0.000185779
0.000146555
0.000148007
0.00037867
0.000149784
0.000146009
0.0001488
0.0001884
0.000146465
0.000147633
0.0602344
0.0220636
0.00019683
0.000161022
0.071269
0.000163105
0.000147573
0.000147419
0.0136789
0.000148008
0.000179359
0.000183782
0.000168382
0.000154784
0.000150236
0.000158137
0.000150379
0.000145292
0.000201811
0.0653349
0.00016343
0.000146401
0.0320078
0.00017261
0.0126518
0.00644598
0.000191262
0.000148866
0.000148226
0.000148094
0.000177962
0.000148768
0.000147222
0.081669
0.000173857
0.000173056
0.000147415
0.000170395
0.000215468
0.000148543
0.000154748
0.000161797
0.000171747
0.000180504
0.000148233
0.000151942
0.000166489
0.000146641
0.00016517
0.000149144
0.0031203
0.000174116
0.000190641
0.000147223
0.000164442
0.0740891
0.0450155
0.000417414
0.00016882
0.0230018
0.000148791
0.000147591
0.000150444
0.000180775
0.000149063
0.000151396
0.000157583
0.000178039
0.00014785
0.000147514
0.000148848
0.000149832
0.000407219
0.0204989
0.000564365
0.000147844
0.0228851
0.000156504
0.000148952
0.000164286
0.000148002
0.000181851
0.000150892
0.000147941
0.0558065
0.00898448
0.0691076
0.000150253
0.0124535
0.000147939
0.0375226
0.0588792
0.000145205
0.00017803
0.000210027
0.000145295
0.000147567
0.0095898
0.00015002
0.000147966
0.000197412
0.000739526
0.000148045
0.00016209
0.000148921
0.000155343
0.000192085
0.000149036
0.0640281
0.000171582
0.000147551
0.000628532
0.000167686
0.000182369
0.000149913
0.000216972
0.000148376
0.0652826
0.000147897
0.000146582
0.0663984
0.000145776
0.0714131
0.000147588
0.000172455
0.0504631
0.0644027
0.000148197
0.000149453
0.00014803
0.00015112
0.000156626
0.000154668
0.000144304
0.0113978
0.000147185
0.000148496
0.000188203
0.000180376
0.000163478
0.000148039
0.012631
0.000182334
0.000149713
0.00015885
0.000147607
0.000147054
0.0647109
0.000145344
0.000146626
0.00014722
0.0750833
0.000147865
0.000147204
0.065813
0.000155436
0.039445
0.000164539
0.000144522
0.000147017
0.00334311
0.000157848
0.000147989
0.0580098
0.0439547
0.000146452
0.0401232
0.000189723
0.000148558
0.000148455
0.000191659
0.000149431
0.0221577
0.000159833
0.000148074
0.00101988
0.0358117
0.000212003
0.000147572
0.024855
0.000157683
0.000187543
0.000537144
0.000147708
0.0209723
0.000147907
0.000157549
0.00015801
0.0623344
0.000145692
0.000150381
0.0195517
0.000149805
0.000159004
0.000145733
0.000148685
0.0398939
0.000180217
0.000153513
0.00016396
0.000693447
0.000149368
0.000151789
0.000173897
0.000191716
0.00015626
0.000147879
0.000147457
0.00014891
0.00015023
0.000146807
0.00015965
0.00015665
0.000643652
0.000147898
0.0112083
0.000148089
0.000160598
0.00014772
0.000160781
0.000148677
0.000147635
0.0358696
0.0622552
0.00015291
0.00014855
0.0466983
0.000156693
0.0668752
0.00015941
0.000165335
0.0388779
0.00954027
0.048349
0.000152184
0.000148874
0.000146529
0.046016
0.000147266
0.000147991
0.000174514
0.00014729
0.000149186
0.000148312
0.0175735
0.00072145
0.000149154
0.000436873
0.064385
0.000153571
0.000147414
0.000149039
0.0589877
0.000147214
0.000189717
0.000149915
0.000147726
0.000149193
0.000146376
0.000181548
0.000148516
0.000148271
0.000147188
0.00014541
0.000223144
0.000145203
0.000147388
0.00014932
0.000147945
0.000216091
0.00769647
0.000167433
0.000149881
0.000148387
0.000149236
0.000149458
0.0442659
0.000147936
0.000159001
0.00016687
0.0437128
0.000147531
0.000147359
0.0569844
0.000148744
0.000175745
0.000180436
0.000149797
0.0623001
0.0557932
0.000157301
0.0157584
0.000158644
0.000191085
0.000144673
0.00579887
0.0001482
0.00201158
0.000148218
0.000147239
0.000504569
0.000279191
0.000204724
0.000172837
0.000147316
0.048785
0.000149123
0.0722996
0.000174409
0.000147365
0.000144739
0.000148552
0.000171286
0.000166701
0.066612
0.000169905
0.000147628
0.000147403
0.000148528
0.0232721
0.000179248
0.000159265
0.000148898
0.000147325
0.000160503
0.000215888
0.000148667
0.000159365
0.000165579
0.000147914
0.000153367
0.000150935
0.000175315
0.000174928
0.000153425
0.000166723
0.000145692
0.000147953
0.0305295
0.000165729
0.000182166
0.000517452
0.000145306
0.0274567
0.00224572
0.000162986
0.0687224
0.000147621
0.0539707
0.0550214
0.000187668
0.000146436
0.0865607
0.000193214
0.00014781
0.000167572
0.04808
0.000150018
0.000147674
0.000164728
0.00014979
0.0272672
0.000157604
0.000149132
0.00014987
0.000147191
0.000164928
0.000165612
0.0273052
0.000186566
0.0337913
0.0001744
0.000149715
0.000147639
0.000241286
0.0314216
0.000148011
0.000147716
0.000191571
0.000149284
0.000218458
0.0594028
0.0208302
0.000147977
0.000148276
0.0735927
0.00014652
0.0646814
0.000222797
0.000146887
0.0543289
0.000174616
0.00016765
0.000147786
0.00647069
0.00014809
0.000373587
0.000144436
0.000172356
0.000151681
0.000145857
0.0773189
0.000151248
0.000148231
0.000151983
0.0362553
0.000148442
0.000145162
0.0314223
0.000147678
0.000146767
0.000148732
0.000156426
0.00014829
0.000149175
0.000156093
0.000149136
0.000154494
0.000145625
0.000188115
0.0252838
0.000172966
0.0356283
0.000160128
0.000154536
0.000147372
0.000146722
0.000149056
0.0250212
0.0397928
0.000147836
0.000149837
0.000147455
0.0267189
0.000145104
0.000220328
0.000288678
0.0575976
0.0708729
0.0285621
0.0388859
0.000146731
0.0614432
0.0403875
0.064026
0.000154687
0.00014894
0.000171496
0.000145675
0.0555993
0.000190305
0.000175595
0.000156849
0.0295891
0.000147956
0.000144323
0.0609001
0.000192668
0.000148076
0.000144549
0.000172248
0.000148719
0.0359671
0.0113641
0.034285
0.0451528
0.000182605
0.000745241
0.00014796
0.000216162
0.000148666
0.00014788
0.00014661
0.0314721
0.000148752
0.000147251
0.000599945
0.037761
0.000207372
0.000194148
0.000150749
0.000165214
0.0257978
0.0209109
0.0539759
0.0410141
0.000171938
0.0713805
0.000181068
0.000293492
0.000172866
0.000171031
0.000147385
0.000160783
0.000164998
0.000148226
0.0447626
0.000146954
0.000148039
0.000147886
0.070584
0.000153944
0.000146603
0.000147214
0.000147878
0.000176738
0.000169713
0.000618926
0.000151235
0.030467
0.00014458
0.000147641
0.000182353
0.000167024
0.000144402
0.0555216
0.000169893
0.0629043
0.00014776
0.0308093
0.000166683
0.000147596
0.000148296
0.00014797
0.037711
0.0671713
0.015061
0.00014773
0.000149097
0.000144972
0.06306
0.00015633
0.000148331
0.000325974
0.000147855
0.000150109
0.0394904
0.000146133
0.000147755
0.000148368
0.000149984
0.000144562
0.000150591
0.000144473
0.000149202
0.00018234
0.000166332
0.000146755
0.0226158
0.000153062
0.0652193
0.0191153
0.000165337
0.0619444
0.0632152
0.000147194
0.000170341
0.000148048
0.000147251
0.00271586
0.000154687
0.0428245
0.000155253
0.000191736
0.000148669
0.00015113
0.000147277
0.0589051
0.000161806
0.0383889
0.000149092
0.000188375
0.000160891
0.000146486
0.000166775
0.000169258
0.000144954
0.0729839
0.000148577
0.000169864
0.000147903
0.000157519
0.000166913
0.000204403
0.00015509
0.0001822
0.00646696
0.000160661
0.000170364
0.000146021
0.0686005
0.000173378
0.000149792
0.000175754
0.00333268
0.0129005
0.000147906
0.000151108
0.000149078
0.000145593
0.000147987
0.0460152
0.000159868
0.000148452
0.0258573
0.000148693
0.000145068
0.000154249
0.0641325
0.000149035
0.0239317
0.0559971
0.000169942
0.0309728
0.000150871
0.0629661
0.000279814
0.000145155
0.000160734
0.000148477
0.00015019
0.000167989
0.0139533
0.000177793
0.000466767
0.000200939
0.000147745
0.0481031
0.000147241
0.0582967
0.000149771
0.0432029
0.0478468
0.000149006
0.000147017
0.000149845
0.000164301
0.000182439
0.000147624
0.0148953
0.000152087
0.00017171
0.000173682
0.000151115
0.000147355
0.024264
0.000146553
0.000201153
0.000157224
0.0132985
0.000148762
0.000147656
0.0565975
0.000144239
0.000146219
0.000150091
0.000173596
0.000173317
0.000214857
0.000152552
0.00014641
0.000155216
0.000149418
0.000149714
0.0705988
0.000147542
0.000166856
0.072667
0.000202113
0.000147801
0.000182418
0.000147755
0.000149335
0.000188271
0.000208985
0.000182683
0.000149558
0.000147778
0.00015294
0.000183638
0.000147608
0.000162913
0.000147724
0.000149163
0.0001468
0.000148954
0.057894
0.000144758
0.0779713
0.000424195
0.000154126
0.000145829
0.0563943
0.0545738
0.000147085
0.000147791
0.0780228
0.00014917
0.000164562
0.000183312
0.000848645
0.000147355
0.000150374
0.00017055
0.000147837
0.0762692
0.000202084
0.000147218
0.000159248
0.000164342
0.000148502
0.000185679
0.00014896
0.00016333
0.000150693
0.000154333
0.000144569
0.000147733
0.000216078
0.000148044
0.0787059
0.000181745
0.000148341
0.000148281
0.00014772
0.000147331
0.0672268
0.000149795
0.000196041
0.000147216
0.000147166
0.00017271
0.0644691
0.000146299
0.000144836
0.000147953
0.000149831
0.000159984
0.000160318
0.0287118
0.000161333
0.000146746
0.000195898
0.0691216
0.000149044
0.000162039
0.0377488
0.000164616
0.000149587
0.00398889
0.000144604
0.0288851
0.000172344
0.000148328
0.000183782
0.000147611
0.000147647
0.000148265
0.049624
0.00014843
0.00162753
0.0682064
0.000292816
0.000162291
0.000147587
0.0591142
0.000149838
0.0143928
0.000146302
0.000232981
0.000154019
0.000186334
0.000150132
0.018
0.000159931
0.00014945
0.039963
0.034261
0.000144856
0.00311101
0.000147753
0.000159145
0.000146839
0.00819205
0.000310717
0.000149196
0.000148309
0.0580366
0.000185712
0.000146859
0.000151409
0.000148055
0.000146523
0.000146016
0.000152196
0.0266296
0.032819
0.000149589
0.00017823
0.000153706
0.000181537
0.000147847
0.00830283
0.0384198
0.0238149
0.000150271
0.0756896
0.0283704
0.000153236
0.000160826
0.000147352
0.000177947
0.0370774
0.000149296
0.000146002
0.000146391
0.000157874
0.000145001
0.000147841
0.00050894
0.000150851
0.000180243
0.000148493
0.000147631
0.000153535
0.000148149
0.000201312
0.0795412
0.00014637
0.000171496
0.000144897
0.0663496
0.000147237
0.000152456
0.0345121
0.000193536
0.000154317
0.0133581
0.000187559
0.000148341
0.000168105
0.000148772
0.000164274
0.000149525
0.000147341
0.000196483
0.000189096
0.0463098
0.000188873
0.000158755
0.00722133
0.000152772
0.000168627
0.000151106
0.0694098
0.0542905
0.0164392
0.000147828
0.00014447
0.0295786
0.0422431
0.000148796
0.0562711
0.000148858
0.000156732
0.000144334
0.000147672
0.000147537
0.00014732
0.000210161
0.000161074
0.000164074
0.000148014
0.000148052
0.00014533
0.000146679
0.000146571
0.000149726
0.00014741
0.0501626
0.0397772
0.0474002
0.000152023
0.0336423
0.00017433
0.079945
0.0322205
0.000174195
0.000148652
0.000149208
0.000181341
0.000149461
0.0568719
0.0250767
0.000150047
0.000145753
0.000163474
0.0477192
0.000147804
0.0794926
0.00014801
0.000148577
0.0831452
0.000147621
0.00015619
0.000149025
0.0381305
0.000145761
0.000147891
0.000209268
0.000145687
0.000148264
0.000147632
0.000145775
0.000165516
0.000147609
0.00985504
0.000147995
0.000149395
0.000144481
0.0274909
0.000161936
0.000148991
0.071164
0.000148479
0.000145507
0.000206157
0.000413051
0.000148798
0.0850201
0.0679637
0.000156281
0.039976
0.000148639
0.000148201
0.000188335
0.000146196
0.050466
0.0449072
0.000144387
0.000157805
0.000147566
0.0182535
0.000788616
0.00017119
0.000148894
0.000272961
0.000159557
0.000173448
0.000156614
0.000148052
0.000150628
0.000147632
0.000146674
0.0489015
0.000144062
0.000146673
0.000168835
0.0168023
0.000182423
0.0848384
0.000147947
0.000161906
0.000147812
0.000148556
0.00014869
0.000146348
0.000148955
0.000147435
0.000148582
0.000149075
0.00015435
0.000148027
0.000149134
0.000145783
0.0189832
0.086427
0.000149386
0.000151113
0.0622973
0.000149345
0.000191335
0.0335135
0.00307392
0.0810164
0.000280255
0.079207
0.0074123
0.024868
0.00014755
0.00016027
0.000147517
0.000169071
0.000154025
0.000149447
0.000147117
0.0214822
0.000145795
0.000156715
0.0815719
0.000145509
0.000146777
0.000174468
0.0001458
0.000147678
0.000147492
0.000149581
0.0480185
0.0203533
0.000148094
0.00014792
0.000148267
0.000150411
0.000161714
0.000150589
0.00437566
0.000196585
0.000149239
0.0605472
0.000163467
0.000147827
0.0469701
0.000145619
0.000178627
0.00014633
0.00014943
0.000149388
0.0491087
0.000147983
0.000147565
0.000153569
0.000149604
0.000160703
0.000146895
0.0196562
0.000166532
0.000162504
0.0126965
0.0733021
0.000188476
0.000164519
0.0588371
0.00014827
0.000147849
0.000155501
0.0479695
0.000179047
0.000168427
0.0252245
0.000147659
0.00147538
0.000204836
0.000787711
0.000147967
0.000159781
0.00014736
0.000189598
0.000158214
0.000276932
0.0706946
0.000147938
0.000163722
0.000155852
0.000147943
0.000322828
0.000147968
0.00016298
0.000175946
0.00018165
0.000147938
0.000149962
0.000149481
0.000173056
0.000147474
0.000149625
0.000147908
0.000148404
0.000146193
0.00016061
0.000144655
0.000303266
0.0455421
0.00014974
0.000146465
0.000145417
0.00016325
0.000159231
0.000148763
0.0361487
0.000162647
0.000146446
0.000146548
0.06805
0.0459607
0.000147389
0.000199772
0.000158988
0.000147902
0.0239737
0.000154577
0.000175772
0.000149519
0.0424972
0.0715063
0.00014968
0.000165554
0.0410797
0.00016246
0.0189368
0.000149559
0.000153857
0.0501968
0.0477305
0.000155382
0.000153691
0.000149762
0.00015264
0.000151747
0.0294754
0.0455709
0.0608826
0.000153402
0.000148019
0.000176972
0.000147719
0.000210644
0.000153739
0.0256049
0.000145742
0.000149195
0.000147225
0.000148201
0.000146788
0.000182732
0.0583009
0.000157688
0.000145353
0.000148601
0.01599
0.000151638
0.000152277
0.000148956
0.000165357
0.0494189
0.000145802
0.000147529
0.000168797
0.000182742
0.000148668
0.000169219
0.000149427
0.000151885
0.000191896
0.000156348
0.0522481
0.000470067
0.00016316
0.0700215
0.000146866
0.000147675
0.000151015
0.0845569
0.000151121
0.000842276
0.00014584
0.04331
0.000165282
0.000147276
0.000159877
0.000149207
0.0630841
0.000173622
0.000160899
0.000200058
0.000188532
0.000148936
0.000149285
0.000149485
0.000154971
0.04292
0.000176988
0.000148603
0.000205676
0.000148034
0.0841873
0.000147947
0.0770235
0.000160083
0.0857701
0.000308612
0.000165914
0.000148032
0.000147984
0.000146943
0.071835
0.000148817
0.000175799
0.00541183
0.00014457
0.0254999
0.000158691
0.000147916
0.000185437
0.000147258
0.00014794
0.0397935
0.00780566
0.0303367
0.000147604
0.000146345
0.000150221
0.000154399
0.000151258
0.000148288
0.0483012
0.000185285
0.0180507
0.000150302
0.000163681
0.000685936
0.000235574
0.000157349
0.000146506
0.0251123
0.000150633
0.045321
0.000147614
0.000148029
0.000147874
0.000146291
0.00014456
0.000149874
0.000146379
0.000159671
0.0447204
0.000165259
0.0442186
0.00015345
0.000149341
0.000148754
0.000201214
0.000148075
0.000150286
0.000148151
0.0341868
0.00918913
0.000146357
0.000153647
0.000147313
0.000147901
0.000149841
0.000148295
0.00014757
0.000294902
0.000149165
0.000147183
0.000190773
0.000146929
0.0202433
0.000183552
0.00018803
0.000205
0.000153984
0.000148411
0.0621506
0.000148431
0.000185459
0.000161972
0.000146739
0.000168928
0.000148306
0.0820237
0.000145537
0.000147439
0.068406
0.000173849
0.0232934
0.000146144
0.000184796
0.000191916
0.000158303
0.0580132
0.000147014
0.000146406
0.000145629
0.000171903
0.00015038
0.000381669
0.000147883
0.000170246
0.0454787
0.000206436
0.000147989
0.000241662
0.000153523
0.0262462
0.000151524
0.000153012
0.000153716
0.0304891
0.000147886
0.000149693
0.064977
0.000145527
0.000154409
0.000147124
0.000161954
0.0633292
0.0378276
0.000147436
0.000169723
0.000147896
0.000218357
0.00014803
0.000149559
0.000188556
0.00908555
0.000162435
0.000147791
0.000153842
0.0107227
0.000172152
0.000183105
0.0763037
0.00014799
0.03044
0.000157429
0.000194327
0.000147718
0.000154878
0.0744618
0.000153663
0.000147304
0.000213742
0.0257146
0.0668615
0.000145936
0.0540392
0.000282683
0.000146282
0.000193561
0.0239155
0.00014984
0.000151721
0.0247944
0.000144439
0.000149407
0.00014666
0.000148588
0.000189465
0.000182792
0.000167623
0.0385845
0.000149788
0.00016369
0.00015656
0.000148987
0.000151181
0.000167281
0.000148078
0.000149471
0.0735162
0.0448443
0.0249824
0.000146309
0.00016623
0.000148831
0.0497368
0.000148525
0.000167119
0.0539306
0.0188975
0.000165393
0.000148312
0.00473682
0.038134
0.000359653
0.000147833
0.00014876
0.000146857
0.0790614
0.000166127
0.000195842
0.0802303
0.000148357
0.00014935
0.0429255
0.000156111
0.000181679
0.000149103
0.000147549
0.000148018
0.000764427
0.000148459
0.000176937
0.000146986
0.000148657
0.000146431
0.0481093
0.0442489
0.000151913
0.000233625
0.000150828
0.000297609
0.000147437
0.000147272
0.000183922
0.000148635
0.000147607
0.000153606
0.000174902
0.000160482
0.000188158
0.000148328
0.000179237
0.0709492
0.000148782
0.00014927
0.000148461
0.0683209
0.000165741
0.000162288
0.000184117
0.000146802
0.000148132
0.000174105
0.000156983
0.00460329
0.0877294
0.000161933
0.0508036
0.0150719
0.0423794
0.000175831
0.000149308
0.000147837
0.000213736
0.0666035
0.000147113
0.000161922
0.0331446
0.000148617
0.000204243
0.000377313
0.000191988
0.000147672
0.000188676
0.000148881
0.000148605
0.000146416
0.000210291
0.000148666
0.000179417
0.000169944
0.000147717
0.000149168
0.0160912
0.000147087
0.000145191
0.000172656
0.000380743
0.000167854
0.000147988
0.000163
0.00898014
0.058711
0.000159652
0.0174322
0.000184595
0.000178988
0.000168289
0.000149011
0.000173206
0.000158015
0.000145774
0.000146868
0.000149323
0.000156912
0.000217139
0.0473087
0.000149404
0.00465276
0.000173891
0.000930664
0.0464597
0.000215543
0.0493887
0.000192333
0.0436645
0.000171782
0.0483847
0.000177732
0.000147946
0.00014857
0.0860027
0.0598259
0.00018966
0.035723
0.000147026
0.0277336
0.045205
0.000148089
0.000145363
0.000163658
0.000177321
0.0380047
0.0262737
0.000180089
0.000146921
0.000147307
0.000149401
0.0817127
0.000153641
0.0592645
0.000155121
0.0491723
0.000203529
0.0378433
0.000159099
0.0612049
0.000146664
0.000145155
0.000154263
0.00014903
0.0637312
0.000190237
0.0499453
0.000148581
0.0378162
0.0482236
0.000144659