/*--------------------------------*- C++ -*----------------------------------*\
| =========                 |                                                 |
| \\      /  F ield         | OpenFOAM: The Open Source CFD Toolbox           |
|  \\    /   O peration     | Version:  v2012                                 |
|   \\  /    A nd           | Website:  www.openfoam.com                      |
|    \\/     M anipulation  |                                                 |
\*---------------------------------------------------------------------------*/
FoamFile
{
    version     2.0;
    format      ascii;
    class       volScalarField;
    location    "750";
    object      p;
}
// * * * * * * * * * * * * * * * * * * * * * * * * * * * * * * * * * * * * * //

dimensions      [0 2 -2 0 0 0 0];


internalField   nonuniform List<scalar> 
18758
(
-0.1109
-0.32112
0.00088786
-0.0472113
-0.107698
-0.275036
-0.420583
0.00493033
-0.164641
0.00744283
-0.0281379
-0.423101
0.012776
-0.0646869
-0.0208236
0.230199
-0.0731055
0.0135965
-0.0135523
-0.00381749
-0.0656656
0.0189254
-0.426463
-0.129056
-0.359331
0.00512331
-0.00551436
-0.134116
-0.35252
-0.223557
-0.0700162
-0.055495
0.0140981
-0.024869
-0.0841816
0.0224345
0.0143375
-0.00985217
-0.0150209
-0.079671
-0.0106227
0.0823203
-0.00191431
0.0468105
-0.283587
0.00302696
-0.427187
-0.0226641
0.00945532
-0.00196281
-0.221775
-0.0632576
0.00105443
-0.0267297
-0.139534
-0.404152
0.0142965
0.334007
0.0294524
-0.0651229
-0.118062
-0.42
-0.147662
0.053395
0.00121864
0.0280067
-0.0772631
0.014064
-0.00838188
-0.0602657
-0.0680676
0.0514671
-0.00215234
-0.339159
0.00179636
0.0277501
-0.113873
-0.102441
0.0679298
-0.424778
-0.425709
-0.331317
-0.065426
-0.246859
-0.110334
-0.0648724
-0.404312
-0.148027
-0.401358
0.0272499
-0.247165
0.0298029
-0.414057
0.0844107
-0.423825
-0.411567
-0.107973
0.00152755
0.0197031
-0.065366
-0.0151564
-0.240636
-0.100092
-0.0988649
-0.0549692
-0.22947
-0.0732664
-0.0968543
-0.0165483
0.0573098
-0.411094
-0.795936
0.00649746
0.0147257
-0.214659
-0.345667
-0.249674
-0.0205636
-0.424248
-0.418114
-0.0881565
0.0349008
-0.417062
0.119197
-0.241657
-0.276014
-0.31772
-0.176792
-0.408668
0.0114796
-0.0743358
-0.0159661
-0.0645371
0.0716075
0.258413
0.0535991
-0.11511
-0.0814491
0.0192644
0.185473
0.0820957
-0.0198835
0.0193362
-0.400803
-0.0113741
-0.0149143
-0.101074
-0.0557847
-0.0685212
-0.148274
-0.3244
-0.0781313
-0.0652986
0.0181605
-0.427012
-0.0571159
-0.425127
-0.022024
0.0327294
0.0199489
0.00876737
-0.0662263
-0.40594
0.03153
-0.117669
-0.347595
-0.0144726
-0.419357
-0.234702
-0.252872
-0.384053
0.0137938
-0.409781
-0.128799
-0.0668684
-0.12682
-0.312987
0.0543903
0.175469
-0.0063902
0.0078048
-0.321646
-0.0786608
-0.00540817
-0.0393819
-0.0846736
0.0251581
-0.348122
-0.00125799
0.0271644
0.0647626
-0.17837
0.0133491
-0.0681228
0.0434661
-0.152884
-0.00711954
-0.245968
0.0154416
-0.00177337
0.220228
-0.0200782
-0.0510508
-0.140359
0.0127884
0.0417287
-0.106108
0.0180606
-0.0625554
0.0136383
0.0131244
-0.103747
0.0305387
-0.0580394
0.115173
-0.42872
0.112708
0.28731
0.00200835
-0.283817
0.0133318
-0.0163018
-0.096781
-0.099795
-0.280064
-0.103945
-0.13141
0.0236974
-0.00514994
-0.145025
0.0283492
-0.153643
-0.425321
-0.105203
0.0128621
0.0253088
-0.00497141
0.00352769
-0.416899
-0.072695
0.0107802
-0.325098
-0.0728795
-0.0273933
-0.14635
-0.417439
-0.103437
0.0223344
-0.424578
0.120056
0.022571
-0.423203
-0.0661667
0.119673
-0.0188825
-0.0954281
-0.110686
0.309593
-0.053696
0.0469582
-0.00736362
-0.101069
0.0213984
-0.137362
0.0155667
-0.0947239
-0.423279
0.00215819
-0.0161015
-0.11997
-0.0151346
-0.0385941
-0.141452
-0.383521
-0.245325
0.0210423
-0.208986
-0.0644332
-0.306851
0.0156914
-0.00774422
-0.0514995
-0.0750065
0.0194299
-0.0603142
-0.312688
-0.0611911
-0.0651167
-0.427828
-0.00432515
0.000811925
0.0163658
-0.429415
0.0980292
0.0613118
-0.173278
-0.0465386
-0.426484
-0.0129471
-0.0600086
-0.254148
0.00323961
-0.0567693
0.0516691
-0.00906581
-0.045611
-0.168668
-0.0234329
0.0225184
-0.428899
-0.0609908
0.0190365
-0.425421
-0.423025
-0.271685
0.0234716
0.0112631
-0.0625478
-0.0265204
-0.00497644
-0.00785254
0.0745535
-0.233315
-0.172814
-0.0497459
-0.0682848
0.000269557
0.0576362
-0.00710627
0.0199916
-0.170312
-0.0636835
-0.216117
-0.0487937
0.101119
0.0126805
0.00927023
-0.0579841
-0.0551823
-0.0053319
0.0126457
-0.00513648
0.0541581
0.0279812
-0.348155
0.03434
0.0534192
-0.00269014
0.196995
-0.01611
-0.208672
-0.157236
-0.0261751
-0.186336
-0.0987204
-0.0823955
0.125295
-0.42188
-0.0829216
-0.0842262
0.013409
-0.0110169
-0.371479
-0.379799
0.00449885
-0.0041918
-0.124801
-0.0135127
-0.0642097
-0.329424
-0.0530543
-0.0714293
0.00375734
-0.423259
0.0343388
-0.0196273
0.0199657
-0.0151094
-0.0831267
-0.0325012
-0.425768
0.0121706
-0.0184433
0.019184
-0.290022
-0.0720101
-0.160507
0.0346549
-0.0672668
-0.00723515
0.08258
0.0349391
0.00243472
-0.196685
-0.0625888
-0.253805
-0.404564
0.009775
-0.126492
-0.0632016
-0.0975394
0.00635755
-0.0503763
-0.00639489
-0.0156098
0.00771456
-0.0833131
0.0320659
0.0503251
-0.15064
-0.419773
-0.00762939
-0.104171
-0.095286
0.0231981
-0.0448481
0.0311824
0.0128439
-0.0441804
-0.101811
0.0525591
-0.440628
-0.0913293
0.0256609
-0.09954
-0.0649401
-0.0546572
-0.379547
-0.0783399
0.0181704
0.00259923
0.0107907
0.0313172
-0.0701274
-0.0812667
-0.0563473
0.0525207
-0.0664791
-0.0719968
-0.102093
0.0312397
-0.0655867
-0.40141
0.0355951
-0.0543969
0.00898866
0.0249013
-0.0548512
0.0715968
-0.0170383
-0.107365
-0.0858029
0.0138361
-0.41758
0.0285319
0.0370652
0.261641
-0.423719
0.141262
-0.145766
-0.0642442
-0.0733836
-0.263323
-0.0650207
0.0519848
-0.214586
0.0157055
-0.0697705
-0.0131977
-0.415095
-0.065892
-0.361153
-0.0562542
-0.0700929
0.00331082
-0.132974
-0.00189851
-0.081159
0.0203433
-0.194905
0.0214027
-0.0588739
-0.0661187
0.0200589
0.0199854
0.00739584
-0.0652124
-0.115797
-0.216371
-0.0744787
-0.0364811
-0.170304
0.0164806
0.0214201
-0.0649669
0.020428
0.0258187
-0.178068
0.0132795
-0.139778
-0.166789
0.0259859
0.0318853
0.0846386
0.0355517
-0.0594761
-0.123931
-0.0395325
0.135246
-0.0205396
0.0254799
0.185307
0.0566247
-0.0144272
-0.0955008
-0.326536
-0.0694881
-0.0615477
0.00521646
-0.0147106
-0.323782
-0.0139428
-0.215836
-0.179469
0.0206884
-0.120398
-0.184695
-0.125697
0.00709504
-0.0612634
-0.060279
-0.0105526
-0.006342
-0.021713
-0.0232935
-0.015308
0.00418545
0.0214594
-0.415329
-0.0439119
-0.3489
0.034962
-0.226703
-0.328769
0.0214924
-0.00140686
-0.0414197
0.0151209
0.0149629
0.0703568
-0.00530767
-0.13922
0.171319
0.000127128
-0.060533
-0.135219
0.14564
-0.212229
-0.198515
0.0847178
-0.038694
-0.0593468
-0.0657306
-0.0423526
-0.0650537
0.0179964
-0.061096
-0.09216
-0.0353568
-0.11811
-0.419903
-0.0406665
0.0236914
-0.130401
-0.352645
0.01745
-0.227635
0.0456262
-0.0724116
0.0122813
-0.00616517
0.00728886
0.0131485
-0.121109
-0.0715476
0.0362097
-0.0651414
0.0648142
-0.0512671
-0.115147
-0.0643487
-0.294793
-0.0117316
-0.134483
-0.0667513
0.00882122
-0.0791409
-0.065625
-0.0558419
-0.0244287
0.0656787
0.0120025
0.00118903
-0.0549168
-0.134517
-0.13299
-0.0620371
0.0411916
0.0153619
-0.111427
0.0190077
0.00882315
0.070021
-0.0216535
-0.142824
-0.0898966
-0.239283
-0.0906589
-0.146579
0.0214232
0.0706439
-0.203077
-0.0728514
-0.0638502
-0.370951
-0.121035
0.0369696
-0.0658759
-0.0523322
0.0125449
-0.00541729
0.273032
-0.24191
-0.248191
0.0130355
-0.084431
-0.0622165
-0.357935
-0.00216177
-0.410926
-0.427354
-0.401803
-0.0326756
0.0221928
-0.252502
0.0215906
-0.078382
-0.21675
-0.221775
-0.418877
-0.0945018
-0.0709731
-0.104651
0.0336259
0.0648992
-0.387771
-0.0526329
-0.429569
-0.0509894
-0.0141019
-0.0798126
0.0163623
-0.134568
-0.0848034
-0.215008
0.0204973
0.0537768
-0.124747
-0.0646238
-0.390993
-0.427544
-0.0854765
-0.0191979
-0.100652
0.0546629
-0.00644694
0.0252179
-0.0328252
-0.0705789
0.0261687
-0.0843147
0.011965
0.0112906
0.0121617
-0.114556
0.0574343
0.0153273
-0.108751
-0.114215
6.39906e-05
-0.191824
-0.013966
-0.00825493
-0.128461
0.125027
-0.0373881
-0.00164925
-0.360699
0.146083
-0.0446481
-0.0567385
-0.0480307
-0.0513381
0.110497
-0.137502
-0.39944
-0.0551691
-0.005113
-0.0694758
-0.155151
0.00430741
-0.094006
0.0235118
0.0116507
-0.0891896
0.0135818
-0.151737
-0.0706302
-0.00151479
-0.408767
-0.0113252
-0.0866365
-0.0531368
2.96301e-05
-0.215407
0.0109063
-0.0133887
0.0246902
0.0255787
-0.213297
0.23295
-0.29398
-0.152424
-0.276061
-0.114484
0.02596
-0.120446
-0.428444
-0.296483
0.217807
-0.204675
-0.0645241
-0.042116
-0.218895
0.00111795
-0.351536
0.0127536
-0.41028
-0.025723
0.203273
0.0888475
-0.0150404
-0.350181
0.0659046
0.00930314
-0.354376
0.0128047
0.0123665
-0.0829963
-0.172315
-0.215322
-0.364764
-0.0646928
-0.277939
0.0151807
0.0220931
-0.0863686
0.0266814
-0.315502
-0.0949884
-0.0297076
0.025831
-0.0415949
0.031004
-0.0126282
-0.0557355
-0.313057
-0.243242
0.267451
-0.118443
0.0169012
-0.0811755
-0.300684
0.0122329
-0.0835412
-0.0345227
-0.0674613
0.0672357
-0.428201
0.0126613
-0.170402
0.0152645
-0.105525
0.00940445
-0.0320336
-0.0385731
-3.85623e-05
-0.00785354
0.000722617
-0.0646209
-0.152105
-0.0617243
-0.21585
0.0376068
-0.0790969
-0.0566586
-0.148484
-0.423457
-0.0614946
-0.00134188
-0.0553744
0.0119193
0.0380298
-0.05734
-0.288318
-0.418954
-0.268908
-0.0602124
0.243972
0.0726267
0.0167059
-0.341236
0.0118755
-0.328128
-0.0561427
0.0224875
-0.088349
-0.287719
0.0246223
-0.298261
-0.0212797
-0.0597842
0.038798
-0.0595942
-0.282457
-0.316458
0.0121069
0.000822328
-0.0872675
0.0214553
-0.00763722
-0.0582091
0.023049
-0.0602156
-0.0676828
-0.114282
-0.317286
-0.0980444
-0.0838424
-0.0338817
0.0132446
0.00121023
0.00737435
-0.264088
-0.0551651
-0.0632487
0.0260142
-0.00122356
-0.0393871
0.00608765
-0.0912254
0.0507562
-0.305797
-0.0659759
-0.0857239
-0.0951516
-0.0630771
-0.00696965
-0.217411
0.0164106
-0.424643
-0.160345
-0.425531
-0.275159
-0.0223921
-0.0558568
-0.287707
-0.326753
-0.425316
0.206662
-0.210792
-0.324387
0.013277
-0.0991559
0.159842
-0.0685403
0.0131625
-0.0090993
-0.0897579
-0.0654565
0.236391
-0.0401665
0.0338131
-0.0314864
0.126103
-0.431651
-0.0142151
-0.295833
0.0165194
0.0372947
-0.246545
0.0121891
0.0226424
-0.0139514
0.0194987
0.0128798
0.000720678
-0.0025278
-0.0650563
-0.0643543
-0.0556102
-0.00470328
0.12456
0.0287002
-0.118812
-0.166687
-0.0122885
0.0169425
-0.0259024
-0.238085
-0.11116
-0.061356
-0.177709
-0.0677152
0.030627
0.040785
-0.0508795
-0.401798
-0.103603
0.00110178
-0.0580795
0.0162461
-0.0834604
-0.000800201
-0.349036
-0.426119
0.0106121
-0.0151216
-0.323992
0.0241089
-0.11428
-0.402913
-0.0786778
0.05592
0.0228238
-0.000959522
0.0127177
-0.325331
-0.393609
-0.22083
-0.00892773
-0.0955463
0.0099842
0.0271011
-0.311571
-0.00481305
-0.108193
1.78376e-06
0.0959203
0.0692259
0.0264492
0.00792108
0.0160836
-0.386825
-0.0167899
0.0223548
0.236293
-0.0908355
0.0150349
-0.133248
-0.0527925
0.0152311
-0.00966062
0.0130349
-0.00875912
-0.424964
-0.0602835
0.0295615
-0.0647378
-0.0719554
-0.173998
0.0213245
-0.0874477
-0.337704
-0.0283901
-0.117288
0.0248113
-0.00536499
0.0200553
-0.0551541
-0.0601312
-0.064696
-0.012165
-0.0549946
-0.0658328
-0.429056
-0.0964439
0.0267068
0.00664697
-0.000135172
-0.151128
0.00923019
-0.392671
0.0236032
0.0201498
0.00634242
0.181877
-0.302157
0.0153586
-0.0318494
0.0113884
-0.0970651
0.00848556
0.0351512
-0.0749906
0.0151554
-0.00564581
0.0221497
-0.222629
0.00797278
-0.00495698
-0.0526857
-0.394785
0.169701
0.20377
-0.250687
0.0889293
0.0236326
0.0208502
-0.154711
0.0351225
-0.10064
-0.0925179
-0.0940836
0.0752558
-0.0174533
0.00797532
0.0150358
0.0015335
-0.251477
-0.0749209
-0.0328013
0.00751744
-0.115049
-0.076166
-0.426833
-0.0683542
-0.0600343
0.0191845
0.0073608
0.000921435
-0.0805669
0.0190282
0.008245
-0.352839
0.250363
-0.0544662
0.0209088
-0.124088
-0.0637034
0.0200421
0.0456832
-0.0465677
0.298008
-0.10231
0.0112532
-0.0251361
-0.0862873
0.00900338
-0.0516866
0.0135573
-0.304169
-0.133031
-0.172006
-0.00660457
-0.0817324
-0.305065
-0.0491981
-0.344289
-0.101462
-0.395358
0.0189956
0.0244193
-0.018552
-0.175623
0.0227168
0.0796542
0.0617149
-0.0782023
0.0137945
0.0144315
-0.0152188
0.0150987
-0.0638236
-0.0528349
-0.262128
0.0269024
-0.409938
0.13022
0.0151405
-0.0570582
0.00485483
-0.160271
-0.0130238
0.0343868
-0.416717
-0.258951
-0.339345
-0.0198273
-0.312746
0.0343977
-0.0601664
-0.415254
0.000892025
-0.086229
-0.0672174
0.0012834
0.0125191
-0.0599201
-0.017015
0.0203159
-0.24471
-0.358656
0.0126221
-0.0682921
0.0151908
-0.0435422
-0.108813
0.0152258
-0.4031
-0.0764191
0.0145727
-0.34824
-0.0850812
-0.104948
0.0215536
-0.0640602
0.0139036
-0.0927402
0.0332507
0.0043112
-0.407835
0.00490595
-0.298566
0.0148973
-0.125216
-0.278051
-0.0596608
0.0186424
0.0523422
0.0225774
0.0718742
-0.0422352
0.113087
0.000616971
-0.427907
0.0156703
-0.0134817
-0.223726
-0.0588072
-0.0369655
0.0126914
-0.0567707
-0.147797
-0.0160552
0.152896
0.024775
-0.00583758
-0.326072
0.00170135
0.00451052
-0.00187821
-0.298862
-0.0110285
0.0101972
-0.112497
-0.0441176
-0.147938
-0.0584335
0.00125506
0.011187
-0.32747
-0.0349192
0.0291041
-0.264951
-0.203831
0.00772195
-0.0585049
-0.17156
-0.013188
0.0408775
-0.167768
0.0192905
-0.0598209
-0.0146218
0.0128341
-0.342717
-0.417485
-0.124102
0.000959513
-0.0539523
0.0110778
0.323269
-0.075693
0.0239652
-0.0540021
0.0202839
0.120372
-0.0348217
-0.059545
0.00447432
-0.0181507
-0.0633693
0.0195937
0.152996
0.00479187
0.0291014
-0.276429
-0.176403
0.056219
-0.0784101
-0.275519
0.0562585
-0.0232873
-0.118264
-0.0962493
-0.0434024
0.0326908
0.0220033
0.019166
-0.0174886
0.00994814
0.0186552
-0.0278192
-0.352687
0.0138622
-0.390792
0.011801
-0.0476751
0.0154705
-0.00337137
0.0299196
0.0268835
-0.0660166
-0.334651
-0.024741
0.0212767
-0.405229
-0.0270324
-0.420086
0.131404
0.244721
-0.086082
-0.427341
-0.0540782
-0.0251959
-0.0143524
0.00821306
-0.0515663
-0.00179686
0.0205402
0.0296152
0.0064771
0.0221861
0.0235952
-0.406583
-0.268144
0.0194104
-0.402343
-0.0679129
-0.0356239
0.0113174
0.0446691
-0.0535164
-0.00775163
-0.0601746
0.0161269
0.0133698
-0.0157663
0.00519467
-0.102248
-0.0138851
-0.0127951
-0.00609017
0.00266755
-0.0636249
0.001101
-0.00679324
-0.0163873
0.033543
-0.0873504
-0.0582584
-0.0776962
0.0224397
0.0402537
0.0220975
0.0191628
-0.0588764
0.0306256
-0.0110969
0.00242632
-0.0869569
0.0138074
0.0186021
-0.427161
0.0153841
-0.156167
-0.155779
-0.015522
-0.401507
-0.0546362
0.124983
-0.429481
-0.0585438
-0.0665287
-0.00226454
-0.0662111
0.0146977
-0.292345
0.0251305
0.0112826
-0.15208
-0.0456923
-0.232224
0.292876
0.0178713
-0.159423
0.0193458
-0.13107
-0.106073
0.0118888
-0.00247926
-0.0110725
-0.119165
-0.0370211
-0.124299
-0.0686004
0.0208983
0.0113372
-0.0127906
-0.352882
-0.0757592
0.0171785
0.0177784
0.0182232
-0.0647955
0.137691
-0.0115414
-0.007231
0.172513
0.0305007
-0.0350343
0.0766217
-0.117505
0.0115451
-0.0263855
0.197353
-0.00471347
0.0218488
-0.269195
-0.0897549
-0.152274
-0.156062
-2.67039e-06
-0.328203
-0.424902
0.133348
-0.088754
0.0267138
-0.056359
-0.0649451
-0.0779161
0.00786472
-0.421108
-0.104157
0.0158918
-0.0802414
-0.426541
0.0131806
0.0153434
-0.0813626
0.0150022
-0.156087
0.0545465
-0.0149817
0.016131
0.0157841
0.25003
-0.0470453
-0.356662
-0.0723664
-0.0548555
-0.156603
0.0218429
0.0270545
-0.313771
-0.404398
0.0356016
0.0175964
-0.222831
-0.0159982
-0.0888124
-0.0548953
-0.0559917
0.0341638
0.0336974
-0.131475
0.0035989
-0.0702262
-0.282201
-0.00691534
-0.0641062
-0.127075
0.0895135
0.0296053
-0.429798
0.0143827
0.281688
0.00062454
-0.0947715
-0.0241033
0.0021408
-0.345275
-0.0243476
0.0329382
-0.0247601
-0.0801679
0.0202596
0.000885152
-0.429657
0.023585
-0.00742243
0.0168614
-0.032316
0.0256431
0.0225379
0.0297233
0.0226194
0.109795
-0.00470467
-0.15073
-0.0538409
0.0414933
-0.0643622
-0.0467571
0.0775444
0.0183984
0.00952786
-0.0155312
-0.0557936
-0.0594177
-0.00697086
0.0149488
0.0219291
-0.382668
0.000924547
-0.152432
-0.0724535
-0.0573157
-0.322319
-0.104233
-0.0693285
-0.00669744
-0.0578995
-0.167659
-0.337678
0.0265104
0.0509998
-0.0635866
0.00283536
-0.0595728
-0.0963934
-0.120556
-0.0472107
-0.205826
0.0305055
0.000953319
-0.0565083
-0.105916
0.00782346
0.00111822
-0.0646343
0.0154389
-0.395739
-0.0638851
-0.39353
-0.0531243
-0.0884649
-0.317724
-0.0114834
-0.143101
0.0217075
0.0331236
-0.0070821
-0.0546902
-0.00701049
-0.00105791
-0.32944
-0.426902
-0.254944
-0.115476
-0.0105286
-0.0861568
-0.180902
-0.404583
-0.0564186
-0.426768
0.0353879
-0.311803
-0.0601437
-0.166095
-0.111358
-0.0551833
0.0189474
0.000459079
-0.0460305
0.0249698
-0.0596959
0.00626511
0.00722328
0.0266849
-0.112063
0.0535849
0.00872382
0.0097571
0.0327188
-0.139874
-0.0297237
-0.254104
-0.0239335
-0.0797719
-9.63974e-05
0.025724
-0.128029
0.00343021
0.000671142
-0.0554526
-0.0711238
-0.136751
0.0157662
-0.415557
-0.0313663
0.0256007
0.0257486
0.0343172
-0.384666
-0.141781
-0.42976
0.0119484
0.0278092
0.000531481
-0.123987
0.0310442
0.0212896
-0.204912
0.0302365
-0.0137153
-0.0610448
-0.00586679
0.0300545
0.0210582
0.00886801
-0.00192607
-0.0186342
0.0012249
0.0468765
-0.0897893
-0.0921107
0.00975513
-0.413569
-0.0331758
-0.0883817
-0.412507
-0.0534928
-0.427432
-0.132149
-0.00263009
-0.0703126
0.0142833
0.0107987
-0.332999
0.0299226
-0.128173
0.0819941
-0.0652135
0.0333825
0.04869
0.0151193
-0.0547029
0.082327
-0.425709
-0.0157611
-0.172733
-0.0533623
0.00806903
-0.0785169
-0.0773366
-0.00172173
-0.332215
0.0242644
-0.0663149
0.0162843
0.0570283
-0.0964167
-0.0936834
0.0250605
-0.0864869
-0.379696
-0.0654366
-0.0543203
-0.00564923
-0.0854573
-0.1337
0.0218061
-0.156246
-0.374933
-0.0618789
0.0330598
-0.0236078
0.0151666
-0.00443165
0.0261309
-0.0852635
-0.0554134
0.0208749
-0.201811
0.0211251
0.000723889
0.0313214
-0.0742181
0.0521979
-0.105748
-0.0549364
0.0454227
-0.161396
-0.0239789
-0.118201
-0.0873655
0.00296694
-0.0532023
0.0396293
-0.0192436
-0.0759445
-0.427471
-0.0873574
-0.345107
-0.221112
0.0188377
-0.131835
0.0149203
-0.0522505
0.0162371
-0.389471
-0.0523788
0.0193288
-0.00536767
0.0196988
-0.0597962
-0.132501
0.0139545
-0.0630791
-0.0250586
-0.0543539
-0.151985
-0.0138171
0.010275
-0.0507062
0.00375095
-0.0737184
0.0181842
-0.225335
0.01366
0.0192073
-0.0510167
0.000792558
0.00643184
-0.0155287
-0.136413
-0.100814
-0.140524
0.0554953
0.00538793
-0.0426488
-0.0159121
0.0230849
-0.34395
0.0105043
-0.0963368
-0.412835
-0.0937677
0.030928
-0.152298
0.00567927
0.0221414
0.235828
-0.259679
-0.148565
0.0153118
0.0303762
0.0970699
-0.0890406
0.000242472
-0.0391704
0.0192111
-0.0113385
0.0100424
-0.0153098
-0.0552528
0.00130451
-0.406138
-0.401777
-0.0201734
0.0012159
-0.0563699
-0.428181
0.00459881
0.0300213
-0.420877
0.0150382
0.229186
-0.122048
-0.352625
0.0185461
0.0511569
-0.114818
0.0300331
-0.163831
-0.214436
-0.00333768
-0.0327121
-0.0786121
0.0213528
-0.0788341
0.0193446
0.0810834
-0.0114618
-0.0356425
0.00121179
0.0181565
-0.146675
0.0125823
-0.390905
-0.0631551
0.0392594
0.0386519
0.014715
0.0167198
-0.392268
0.0156783
-0.237816
0.0139321
0.00766862
-0.127936
-0.0585084
0.00685306
1.32116e-05
0.0260906
0.00113212
-0.0624345
-0.0641178
-0.0533986
-0.0380668
0.00944311
-0.161032
-0.245827
0.0157552
-0.0666956
-0.0588705
-0.0818986
-0.00832793
-0.370333
-0.00208918
-0.109757
-0.0551916
0.0228982
-0.0693895
-0.00568743
0.0261176
-0.0126763
-0.0517402
0.0417565
-0.0644222
-0.233655
-0.111562
-0.0383515
0.012668
-0.0556494
0.0211672
-0.228731
0.000367444
-0.0629619
0.078358
-0.0624422
0.0502558
-0.0562562
-0.0625928
0.0150029
-0.240031
-0.146006
0.000185839
-0.0599081
0.0146273
-0.029846
-0.00471178
-0.386225
-0.21296
0.022213
0.0164972
-0.0592216
-0.0828905
0.0102237
0.0468623
0.0206385
0.00825806
0.00300486
0.0556669
-0.428736
-0.398857
0.0220295
0.0289659
-0.0221122
-0.061955
0.0161725
-0.398219
-0.375269
-0.405897
0.0673601
-0.345567
-0.379827
0.0513661
-0.0664407
0.0175995
-0.0499342
-0.17094
-0.0171033
0.00326994
0.00602559
-0.0542718
0.000957242
0.0296966
-0.314732
0.0483148
-0.0785908
0.0392229
0.0167187
0.00493245
0.0145833
-0.165442
-0.417909
0.00762224
-0.0734285
-0.00159405
-0.117957
-0.00258479
0.0543565
-0.0921868
-0.203646
0.109599
-0.056801
0.165976
0.0254744
-0.0927786
0.0328549
-0.0636637
0.0143499
0.0156626
-0.118661
-0.128956
-0.0585011
-0.0739967
0.158232
-0.38187
-0.0209879
-0.0930123
-0.0250697
-0.387716
-0.0549708
-0.0559445
0.0313011
0.00110374
-0.0956002
-0.372547
0.0224196
-0.0550497
0.022046
-0.0446473
0.000567077
-0.00563765
-0.00860011
-0.000934356
-0.09961
0.0895596
-0.0768388
0.0358898
0.0281629
0.00359718
0.0092356
0.00851712
0.0164637
0.0182771
-0.0714417
-0.0764088
-0.373813
-0.0118664
-0.251761
-0.117514
-0.216409
-0.264384
-0.119634
0.0148696
0.0512338
-0.117962
0.0226171
-0.0569953
-0.0877546
-0.0127459
0.00494009
-0.0459237
-0.182342
0.0231731
-0.414846
-0.0116974
0.0184753
-0.245208
0.0260867
0.0913299
0.0156785
-0.0544177
-0.00504457
0.0308714
-0.2228
-0.00356284
0.0258464
0.0122801
0.00472481
0.128044
0.0220063
-0.394659
0.0166565
0.0221297
-0.00172803
-0.375816
-0.0615782
0.0268659
-0.378836
0.0209747
-0.00445599
-0.0640565
-0.403175
0.0386514
-0.347115
-0.0867098
-0.0449609
-0.07366
0.014966
-0.00980759
-0.0610444
-0.00438714
-0.429045
-0.185925
-0.000272069
-0.0362606
0.0170377
-0.429967
-0.073451
-0.0803518
0.0218511
-0.104318
0.114982
-0.103571
-0.0448176
0.0124875
-0.023004
0.0218047
0.00896847
-0.0693595
0.000217565
0.00906842
-0.0939687
-0.379201
-0.0851646
-0.395653
0.0125248
0.0404452
-0.00765812
-0.0138355
0.0483743
0.0057958
0.0217575
0.021467
0.0198124
0.0149753
-0.0369373
0.00561366
-0.0159016
0.0039742
-0.426894
-0.294818
-0.017544
-0.0251823
-0.0562007
0.0147244
-0.067139
-0.0542109
-0.0641708
-0.215884
-0.307228
-0.193812
-0.367359
-0.0540633
-0.00988507
-0.0642518
0.0167996
-0.114508
-0.0344259
0.0170113
-0.00391201
-0.0539759
-0.00381047
0.124929
-0.425035
-0.00396182
-0.00500137
-0.158086
0.00446
0.0150058
0.0079399
-0.0174834
-0.248552
-0.426369
0.0199672
0.0310036
0.0259499
0.0133155
0.089866
-0.00779998
-0.324246
-0.25771
0.0222427
-0.412846
-0.0621381
0.0300186
-0.426075
-0.00430444
-0.0502738
0.00697404
-0.00617649
0.0102784
-0.377817
0.0288267
0.0137688
-0.0353556
-0.0171347
-0.0663803
0.0100358
-0.0530155
-0.0928883
0.0369334
-0.384979
-0.127601
-0.0797487
-0.0599355
-0.0560808
0.0226485
0.018532
-0.0439604
-0.132034
-0.0515411
-0.111448
-0.0804963
0.014547
-0.349378
-0.273672
-0.261154
0.0300806
0.0699755
0.0172507
-0.193823
0.151999
-0.149745
-0.113058
0.0165509
-0.0778471
0.0369695
-0.00833597
-0.325873
0.0349705
-0.0450378
-0.0608401
-0.163791
0.0324645
0.0200772
0.0169147
-0.126415
0.0116089
-0.0178804
0.0336474
0.0161955
-0.00505712
0.0458953
0.00151341
-0.336829
-0.0641483
0.0197697
0.00286234
-0.00421016
-0.0409557
0.0697594
0.022336
-0.197799
0.142447
0.00588526
0.00834865
-0.412211
-0.0605574
0.0120697
-0.0740584
0.122224
0.0244568
-0.42829
0.0046885
-0.159293
0.0153751
-0.40378
-0.110584
0.0146567
-0.0744789
-0.127271
-0.0664072
-0.249193
0.015492
0.0390103
-0.0857443
-0.150697
-0.0434318
0.0767497
0.00242598
0.0939877
-0.0241411
-0.0633852
-0.0619124
-0.0528301
-0.0216148
0.00395832
-0.0861707
0.0156572
-0.253169
-0.0191664
-0.0960735
-0.00502227
0.0151693
-0.0080177
-0.0123204
0.00987867
-0.0919028
-0.246841
0.0152191
-9.09616e-05
0.0186678
-0.427117
0.00677134
-0.0136219
0.0156122
-0.0817009
-0.427112
0.00479655
-0.00434476
-0.0776573
-0.131273
0.0239616
-0.088446
0.0557365
0.00691009
-0.0658973
0.0591893
-0.155815
-0.325945
0.0376472
-0.412659
0.0103773
0.0129778
-0.0113698
-0.311714
0.0467532
-0.0654813
0.00439909
-0.131054
-0.0826467
0.0156221
-0.0612045
0.0236135
-0.0694767
-0.122957
-0.0667644
-0.266763
-0.0761851
0.0176335
0.0219601
0.0162379
-0.0422616
-0.100222
-0.0611962
0.0218052
-0.139003
-0.0118438
-0.302257
0.0324355
-0.349485
-0.0621776
-0.306849
-0.150727
-0.0206335
0.0359643
0.0293882
0.0108776
-0.113666
-0.0138239
-0.0695693
-0.237501
0.00135762
-0.0675993
0.0440944
0.033035
-0.0618315
0.0141689
-0.0113724
-0.379081
-0.417039
-0.0752411
0.0211803
0.00599464
0.0159063
-0.0380246
-0.0246955
-0.0121677
-0.401454
-0.0607879
-0.0615389
-0.0211959
-0.0505445
-0.331676
-0.0539732
0.0480969
0.00301808
-0.429978
-0.00543231
-0.0978125
0.0188591
0.0169201
0.0315975
-8.08616e-06
0.00135856
-0.016342
0.00748203
0.121187
-0.208923
-0.0742973
-0.0768291
0.0399275
0.0218831
0.0210573
-0.206822
0.0279708
-0.0213405
0.0199769
-0.428517
-0.412251
0.00737397
-0.0238961
0.0157736
0.0331592
0.021806
0.0231611
0.0216151
-0.304196
0.038396
-0.0039342
-0.19434
0.0104241
-0.0659277
-0.081537
-0.0615653
-0.13232
-0.0356804
0.0249187
-0.0557477
-0.00454491
-0.0590307
-0.0388526
0.00512642
-0.115145
0.0152993
-0.353131
-0.00301514
-0.00827585
-0.0901055
-0.12096
-0.384942
0.00632036
-0.108228
-0.22885
0.0340422
-0.051877
0.0110116
0.00222909
-0.00322625
-0.100624
0.0689349
-0.203096
0.0246861
-0.0679202
-0.426497
-0.126421
0.0279359
-0.225413
0.0997285
-0.0557417
0.0490069
-0.0292394
-0.0360247
-0.0653402
0.0331919
-0.0180232
-0.413391
-0.00447436
0.0717136
0.00728
0.145876
-0.0697364
-0.228664
-0.000522499
0.0226826
0.0268294
-0.0632234
0.028559
-0.00742686
-0.0584271
-0.389184
-0.0329759
0.0197518
0.0357943
-0.416966
-0.133328
-0.0994066
-0.220817
0.0220639
-0.40086
0.00223466
-0.233665
-0.0105144
-0.041452
-0.414845
0.0910306
0.0154775
-0.271234
-0.057751
-0.0852274
0.00254135
-0.0548019
-0.0669777
-0.00620918
-0.213179
-0.107462
0.020749
-0.022761
-0.0591269
-0.000374026
0.00901819
0.00899042
0.0471932
-0.131973
-0.135947
-0.0470032
-0.0827838
0.02126
0.247314
0.125511
0.0293454
0.0720132
-0.0461442
0.0062061
0.0162734
-0.345268
-0.431034
-0.0748104
-0.00480724
-0.084367
0.0177449
-0.0608939
0.0132895
-0.0956666
-0.268619
-0.426805
0.1806
-0.0119312
-0.0647598
-0.0544072
-0.211449
0.0234081
0.0226137
0.0110373
-0.221456
-0.0854056
-0.162454
-0.39568
-0.00355051
0.014262
-0.320984
0.104401
-0.167812
0.0188773
0.0189019
0.0356968
-0.33661
0.0427319
-0.0633906
0.00236875
0.0213547
0.00779192
-0.429003
-0.366096
0.0287877
-0.302197
-0.00707031
-0.127089
0.0214283
0.0172031
-0.0875957
0.0441616
0.0251454
0.0976461
-0.142738
-0.0570011
-0.215438
0.0174509
-0.096776
-0.22627
0.0392549
0.00615126
0.0404707
-0.23332
-0.0865651
0.113883
-0.0910135
0.00078539
-0.0120259
-0.01282
-0.0427391
-0.356004
-0.396204
-0.0507629
-0.210455
-0.0576724
-0.247281
-0.0858648
0.0389406
0.0122028
-0.0841387
-0.409924
0.0144017
-0.0308756
-0.0545855
0.0241912
-0.0833936
-0.311901
-0.0873691
0.0259256
-0.0593141
0.0498604
0.0240893
-0.00643985
0.310351
-0.00750482
-0.051778
-0.0462479
0.0124316
0.0223568
-0.421414
-0.0044229
-0.00062647
-0.0811209
-0.123229
-0.0646743
0.0215911
-0.0502188
-0.18988
-0.053275
-0.0540737
-0.121269
-0.0702227
-0.179998
-0.101694
-0.0157957
0.173021
0.156708
-0.00176079
-0.00638822
0.0217125
-0.0452314
-0.08355
-0.283264
0.0150522
-0.0640926
-0.153837
-0.329698
-0.418636
-0.0912449
-0.0640362
-0.0984601
-0.0607957
-0.108096
-0.273777
-0.0749546
0.0338561
0.0100906
-0.316872
-0.0536546
-0.0944461
-0.0631051
0.00704011
-0.119658
-0.102638
0.0170131
0.00344056
-0.0734256
-0.106263
-0.0896745
-0.25455
-0.192296
0.00969159
-0.00389497
0.0157813
-0.384076
0.0946476
-0.0571241
-0.0364077
-0.407758
-0.168527
-0.0723061
-0.0525004
-0.0553202
0.00839182
0.00208999
0.0346857
0.0188459
-0.427196
-0.202
-0.0588274
0.0467563
-0.162968
-0.057984
0.00164412
-0.0370752
-0.311377
0.142576
0.00960432
-0.040049
0.0169946
-0.197151
0.000144905
0.0245799
-0.420437
-0.0596341
0.0413076
0.0403037
0.00825202
0.0502414
-0.0673451
-0.0149979
-0.00557637
0.00918386
-0.0613612
-0.396243
-0.12396
0.0262308
-0.0153899
-0.285917
0.0214896
-0.240293
-0.270726
0.000866149
-0.422818
0.0234732
-0.113289
-0.0553703
0.0311484
0.0225677
0.00348424
-0.0620788
-0.0402802
0.00984216
-0.0662411
0.0184564
-0.412736
0.0134369
-0.427857
-0.42837
0.0965499
-0.00514802
-0.153795
-0.155154
0.205072
-0.0513629
0.112866
0.00436339
-0.0543993
-0.00944838
-0.0799993
-0.0980469
-0.0534275
-0.120079
0.0182463
-0.2178
-0.0702294
-0.0588869
-0.194904
0.0180975
-0.107225
-0.0700085
0.0148629
-0.222575
-0.0873561
-0.286218
0.0225131
0.0884953
-0.00182585
-0.102572
-0.210775
-0.0571598
-0.189046
-0.134989
-0.074
-0.209064
-0.428811
-0.0557738
-0.0661862
-0.0575719
-0.105662
-0.414299
-0.0682016
-0.251314
-0.406115
-0.0212692
0.0536333
-0.0473434
-0.128028
0.014781
0.0195609
0.0217913
-0.0372732
0.0283643
0.01612
-0.392393
-0.0572317
0.0147587
-0.119254
0.0241666
0.00785449
-0.0268185
-0.148054
0.0143996
-0.156151
0.0247767
-0.0819789
-0.063491
-0.189392
0.0819515
0.0142054
-0.184854
0.015679
0.0147215
0.0832899
-0.0253349
-0.329585
-0.155372
0.0213279
-0.0353306
-0.0544728
0.0227682
-0.173037
-0.13047
0.229944
0.0140108
-0.0795462
0.0267771
0.0148488
-0.293127
-0.42463
-0.0798059
-0.139828
0.0456041
-0.0748175
0.100656
-0.380971
-0.108044
0.0198032
0.0027907
-0.127165
-0.206511
-0.381931
0.121566
-0.327376
0.0483419
-0.368344
-0.378467
0.0741457
-0.140453
0.00977038
-0.219608
0.0178121
-0.414832
0.0978651
-0.0543293
-0.408975
-0.244487
-0.228393
0.0586292
-0.289045
-0.0715532
-0.112607
-0.426215
-0.0519997
-0.107786
0.00535414
0.0840082
0.128559
-0.426406
0.016559
-0.0104002
0.0648009
-0.128622
-0.408651
-0.114654
-0.0944679
0.0216871
-0.208351
-0.00393255
-0.137992
-0.0571946
-0.30536
0.00727048
-0.164938
0.195306
0.00445452
-0.152601
-0.0622029
-0.0410946
-0.118703
-0.129268
-0.403264
-0.0969676
0.0108178
0.0171712
-0.109974
-0.0861549
0.0260618
-0.226253
-0.0023313
-0.245313
-0.0189576
-0.0170921
-0.0567365
-0.20122
-0.0116438
-0.116962
0.0240157
-0.427652
-0.00158986
-0.0545355
0.186417
0.206116
0.0102109
0.0280521
0.0176718
-0.0718366
-0.0589815
-0.204088
-0.0607917
-0.0557545
-0.0458723
-0.0134103
-0.100917
-0.0576228
0.00352944
0.219052
0.0125027
-0.418393
0.000994222
0.169259
-0.317464
-0.0550404
0.0178589
-0.199807
-0.0180078
0.0218466
-0.10351
0.014815
0.00999207
-0.144407
-0.0636248
-0.403148
0.0209714
-0.196773
-0.0714331
-0.00103441
0.024643
-0.0155491
-0.00444893
-0.405621
-0.0615436
-0.0586765
-0.0558283
-0.0552415