/*--------------------------------*- C++ -*----------------------------------*\
| =========                 |                                                 |
| \\      /  F ield         | OpenFOAM: The Open Source CFD Toolbox           |
|  \\    /   O peration     | Version:  v2012                                 |
|   \\  /    A nd           | Website:  www.openfoam.com                      |
|    \\/     M anipulation  |                                                 |
\*---------------------------------------------------------------------------*/
FoamFile
{
    version     2.0;
    format      ascii;
    class       pointVectorField;
    location    "750";
    object      pointDisplacement;
}
// * * * * * * * * * * * * * * * * * * * * * * * * * * * * * * * * * * * * * //

dimensions      [0 1 0 0 0 0 0];


internalField   nonuniform List<vector> 
19220
(
(0 0 0)
(0 7.69315e-06 0)
(0 7.69315e-06 0)
(0 0 0)
(0 7.69315e-06 0)
(0 7.69315e-06 0)
(0 0 0)
(0 0 0)
(0 0 0)
(0 0 0)
(0 0 0)
(0 0 0)
(0 0 0)
(0 0 0)
(0 0 0)
(0 0 0)
(0 0 0)
(0 0 0)
(0 0 0)
(0 0 0)
(0 0 0)
(0 0 0)
(0 0 0)
(0 0 0)
(0 0 0)
(0 0 0)
(0 0 0)
(0 0 0)
(0 0 0)
(0 0 0)
(0 0 0)
(0 0 0)
(0 0 0)
(0 0 0)
(0 0 0)
(0 0 0)
(0 0 0)
(0 0 0)
(0 0 0)
(0 0 0)
(0 0 0)
(0 0 0)
(0 0 0)
(0 0 0)
(0 0 0)
(0 0 0)
(0 0 0)
(0 0 0)
(0 0 0)
(0 0 0)
(0 0 0)
(0 0 0)
(0 0 0)
(0 0 0)
(0 0 0)
(0 0 0)
(0 0 0)
(0 0 0)
(0 0 0)
(0 0 0)
(0 0 0)
(0 0 0)
(0 0 0)
(0 0 0)
(0 0 0)
(0 0 0)
(0 0 0)
(0 0 0)
(0 0 0)
(0 0 0)
(0 0 0)
(0 0 0)
(0 0 0)
(0 0 0)
(0 0 0)
(0 0 0)
(0 0 0)
(0 0 0)
(0 0 0)
(0 0 0)
(0 0 0)
(0 0 0)
(0 0 0)
(0 0 0)
(0 0 0)
(0 0 0)
(0 0 0)
(0 0 0)
(0 0 0)
(0 0 0)
(0 0 0)
(0 0 0)
(0 0 0)
(0 0 0)
(0 0 0)
(0 7.69315e-06 0)
(0 7.69315e-06 0)
(0 7.69315e-06 0)
(0 7.69315e-06 0)
(0 7.69315e-06 0)
(0 7.69315e-06 0)
(0 7.69315e-06 0)
(0 7.69315e-06 0)
(0 7.69315e-06 0)
(0 7.69315e-06 0)
(0 7.69315e-06 0)
(0 7.69315e-06 0)
(0 7.69315e-06 0)
(0 7.69315e-06 0)
(0 7.69315e-06 0)
(0 7.69315e-06 0)
(0 7.69315e-06 0)
(0 7.69315e-06 0)
(0 7.69315e-06 0)
(0 7.69315e-06 0)
(0 7.69315e-06 0)
(0 7.69315e-06 0)
(0 7.69315e-06 0)
(0 7.69315e-06 0)
(0 7.69315e-06 0)
(0 7.69315e-06 0)
(0 7.69315e-06 0)
(0 7.69315e-06 0)
(0 7.69315e-06 0)
(0 7.69315e-06 0)
(0 7.69315e-06 0)
(0 7.69315e-06 0)
(0 7.69315e-06 0)
(0 7.69315e-06 0)
(0 7.69315e-06 0)
(0 7.69315e-06 0)
(0 7.69315e-06 0)
(0 7.69315e-06 0)
(0 7.69315e-06 0)
(0 7.69315e-06 0)
(0 7.69315e-06 0)
(0 7.69315e-06 0)
(0 7.69315e-06 0)
(0 7.69315e-06 0)
(0 7.69315e-06 0)
(0 7.69315e-06 0)
(0 7.69315e-06 0)
(0 7.69315e-06 0)
(0 7.69315e-06 0)
(0 7.69315e-06 0)
(0 7.69315e-06 0)
(0 7.69315e-06 0)
(0 7.69315e-06 0)
(0 7.69315e-06 0)
(0 7.69315e-06 0)
(0 7.69315e-06 0)
(0 7.69315e-06 0)
(0 7.69315e-06 0)
(0 7.69315e-06 0)
(0 7.69315e-06 0)
(0 7.69315e-06 0)
(0 7.69315e-06 0)
(0 7.69315e-06 0)
(0 7.69315e-06 0)
(0 7.69315e-06 0)
(0 7.69315e-06 0)
(0 7.69315e-06 0)
(0 7.69315e-06 0)
(0 7.69315e-06 0)
(0 7.69315e-06 0)
(0 7.69315e-06 0)
(0 7.69315e-06 0)
(0 7.69315e-06 0)
(0 7.69315e-06 0)
(0 7.69315e-06 0)
(0 7.69315e-06 0)
(0 7.69315e-06 0)
(0 7.69315e-06 0)
(0 7.69315e-06 0)
(0 7.69315e-06 0)
(0 7.69315e-06 0)
(0 7.69315e-06 0)
(0 7.69315e-06 0)
(0 7.69315e-06 0)
(0 7.69315e-06 0)
(0 7.69315e-06 0)
(0 7.69315e-06 0)
(0 7.69315e-06 0)
(0 7.69315e-06 0)
(0 7.69315e-06 0)
(0 7.69315e-06 0)
(0 7.69315e-06 0)
(0 7.69315e-06 0)
(0 7.69315e-06 0)
(0 7.69315e-06 0)
(0 7.69315e-06 0)
(0 7.69315e-06 0)
(0 7.69315e-06 0)
(0 7.69315e-06 0)
(0 7.69315e-06 0)
(0 7.69315e-06 0)
(0 7.69315e-06 0)
(0 7.69315e-06 0)
(0 7.69315e-06 0)
(0 7.69315e-06 0)
(0 7.69315e-06 0)
(0 7.69315e-06 0)
(0 7.69315e-06 0)
(0 7.69315e-06 0)
(0 7.69315e-06 0)
(0 7.69315e-06 0)
(0 7.69315e-06 0)
(0 7.69315e-06 0)
(0 7.69315e-06 0)
(0 7.69315e-06 0)
(0 7.69315e-06 0)
(0 7.69315e-06 0)
(0 7.69315e-06 0)
(0 7.69315e-06 0)
(0 7.69315e-06 0)
(0 7.69315e-06 0)
(0 7.69315e-06 0)
(0 7.69315e-06 0)
(0 7.69315e-06 0)
(0 7.69315e-06 0)
(0 7.69315e-06 0)
(0 7.69315e-06 0)
(0 7.69315e-06 0)
(0 0 0)
(0 0 0)
(0 0 0)
(0 0 0)
(0 0 0)
(0 0 0)
(0 0 0)
(0 0 0)
(0 0 0)
(0 0 0)
(0 0 0)
(0 0 0)
(0 0 0)
(0 0 0)
(0 0 0)
(0 0 0)
(0 0 0)
(0 0 0)
(0 0 0)
(0 0 0)
(0 0 0)
(0 0 0)
(0 0 0)
(0 0 0)
(0 0 0)
(0 0 0)
(0 0 0)
(0 0 0)
(0 0 0)
(0 0 0)
(0 0 0)
(0 0 0)
(0 0 0)
(0 0 0)
(0 0 0)
(0 0 0)
(0 0 0)
(0 0 0)
(0 0 0)
(0 0 0)
(0 0 0)
(0 0 0)
(0 0 0)
(0 0 0)
(0 0 0)
(0 0 0)
(0 0 0)
(0 0 0)
(0 0 0)
(0 0 0)
(0 0 0)
(0 0 0)
(0 0 0)
(0 0 0)
(0 0 0)
(0 0 0)
(0 0 0)
(0 0 0)
(0 0 0)
(0 0 0)
(0 0 0)
(0 0 0)
(0 0 0)
(0 0 0)
(0 0 0)
(0 0 0)
(0 0 0)
(0 0 0)
(0 0 0)
(0 0 0)
(0 0 0)
(0 0 0)
(0 0 0)
(0 0 0)
(0 0 0)
(0 0 0)
(0 0 0)
(0 0 0)
(0 0 0)
(0 0 0)
(0 0 0)
(0 0 0)
(0 0 0)
(0 0 0)
(0 0 0)
(0 0 0)
(0 0 0)
(0 0 0)
(0 0 0)
(0 7.69315e-06 0)
(0 7.69315e-06 0)
(0 7.69315e-06 0)
(0 7.69315e-06 0)
(0 7.69315e-06 0)
(0 7.69315e-06 0)
(0 7.69315e-06 0)
(0 7.69315e-06 0)
(0 7.69315e-06 0)
(0 7.69315e-06 0)
(0 7.69315e-06 0)
(0 7.69315e-06 0)
(0 7.69315e-06 0)
(0 7.69315e-06 0)
(0 7.69315e-06 0)
(0 7.69315e-06 0)
(0 7.69315e-06 0)
(0 7.69315e-06 0)
(0 7.69315e-06 0)
(0 7.69315e-06 0)
(0 7.69315e-06 0)
(0 7.69315e-06 0)
(0 7.69315e-06 0)
(0 7.69315e-06 0)
(0 7.69315e-06 0)
(0 7.69315e-06 0)
(0 7.69315e-06 0)
(0 7.69315e-06 0)
(0 7.69315e-06 0)
(0 7.69315e-06 0)
(0 7.69315e-06 0)
(0 7.69315e-06 0)
(0 7.69315e-06 0)
(0 7.69315e-06 0)
(0 7.69315e-06 0)
(0 7.69315e-06 0)
(0 7.69315e-06 0)
(0 7.69315e-06 0)
(0 7.69315e-06 0)
(0 7.69315e-06 0)
(0 7.69315e-06 0)
(0 7.69315e-06 0)
(0 7.69315e-06 0)
(0 7.69315e-06 0)
(0 7.69315e-06 0)
(0 7.69315e-06 0)
(0 7.69315e-06 0)
(0 7.69315e-06 0)
(0 7.69315e-06 0)
(0 7.69315e-06 0)
(0 7.69315e-06 0)
(0 7.69315e-06 0)
(0 7.69315e-06 0)
(0 7.69315e-06 0)
(0 7.69315e-06 0)
(0 7.69315e-06 0)
(0 7.69315e-06 0)
(0 7.69315e-06 0)
(0 7.69315e-06 0)
(0 7.69315e-06 0)
(0 7.69315e-06 0)
(0 7.69315e-06 0)
(0 7.69315e-06 0)
(0 7.69315e-06 0)
(0 7.69315e-06 0)
(0 7.69315e-06 0)
(0 7.69315e-06 0)
(0 7.69315e-06 0)
(0 7.69315e-06 0)
(0 7.69315e-06 0)
(0 7.69315e-06 0)
(0 7.69315e-06 0)
(0 7.69315e-06 0)
(0 7.69315e-06 0)
(0 7.69315e-06 0)
(0 7.69315e-06 0)
(0 7.69315e-06 0)
(0 7.69315e-06 0)
(0 7.69315e-06 0)
(0 7.69315e-06 0)
(0 7.69315e-06 0)
(0 7.69315e-06 0)
(0 7.69315e-06 0)
(0 7.69315e-06 0)
(0 7.69315e-06 0)
(0 7.69315e-06 0)
(0 7.69315e-06 0)
(0 7.69315e-06 0)
(0 7.69315e-06 0)
(0 7.69315e-06 0)
(0 7.69315e-06 0)
(0 7.69315e-06 0)
(0 7.69315e-06 0)
(0 7.69315e-06 0)
(0 7.69315e-06 0)
(0 7.69315e-06 0)
(0 7.69315e-06 0)
(0 7.69315e-06 0)
(0 7.69315e-06 0)
(0 7.69315e-06 0)
(0 7.69315e-06 0)
(0 7.69315e-06 0)
(0 7.69315e-06 0)
(0 7.69315e-06 0)
(0 7.69315e-06 0)
(0 7.69315e-06 0)
(0 7.69315e-06 0)
(0 7.69315e-06 0)
(0 7.69315e-06 0)
(0 7.69315e-06 0)
(0 7.69315e-06 0)
(0 7.69315e-06 0)
(0 7.69315e-06 0)
(0 7.69315e-06 0)
(0 7.69315e-06 0)
(0 7.69315e-06 0)
(0 7.69315e-06 0)
(0 7.69315e-06 0)
(0 7.69315e-06 0)
(0 7.69315e-06 0)
(0 7.69315e-06 0)
(0 7.69315e-06 0)
(0 7.69315e-06 0)
(0 7.69315e-06 0)
(0 7.69315e-06 0)
(0 7.69315e-06 0)
(0 7.69315e-06 0)
(0 7.69315e-06 0)
(0 7.70042e-06 0)
(0 7.69311e-06 0)
(0 7.69308e-06 0)
(0 7.69313e-06 0)
(0 7.69319e-06 0)
(0 7.69324e-06 0)
(0 7.70263e-06 0)
(0 7.69377e-06 0)
(0 7.69309e-06 0)
(0 7.69308e-06 0)
(0 7.69318e-06 0)
(0 7.70455e-06 0)
(0 7.69909e-06 0)
(0 7.69339e-06 0)
(0 2.93754e-06 0)
(0 5.60081e-06 0)
(0 7.50506e-06 0)
(0 3.67989e-06 0)
(0 -4.64875e-07 0)
(0 3.39919e-06 0)
(0 2.37348e-06 0)
(0 3.38153e-06 0)
(0 4.474e-06 0)
(0 7.69325e-06 0)
(0 7.70435e-06 0)
(0 7.69293e-06 0)
(0 7.69321e-06 0)
(0 7.70614e-06 0)
(0 7.695e-06 0)
(0 7.69448e-06 0)
(0 7.69407e-06 0)
(0 7.69355e-06 0)
(0 7.69312e-06 0)
(0 3.01998e-06 0)
(0 2.54165e-06 0)
(0 1.56039e-06 0)
(0 7.6942e-06 0)
(0 7.69426e-06 0)
(0 7.69303e-06 0)
(0 2.96843e-06 0)
(0 1.88363e-06 0)
(0 2.62654e-06 0)
(0 2.96965e-06 0)
(0 1.80497e-06 0)
(0 4.78279e-06 0)
(0 6.23294e-06 0)
(0 6.34082e-06 0)
(0 1.86018e-06 0)
(0 3.33931e-06 0)
(0 7.69277e-06 0)
(0 1.49502e-06 0)
(0 1.27521e-06 0)
(0 5.59487e-07 0)
(0 3.22418e-06 0)
(0 -1.77795e-06 0)
(0 2.90346e-06 0)
(0 4.19141e-06 0)
(0 1.26732e-06 0)
(0 3.47673e-06 0)
(0 2.20526e-06 0)
(0 1.11119e-06 0)
(0 6.8829e-07 0)
(0 2.01672e-06 0)
(0 4.15808e-06 0)
(0 4.85495e-06 0)
(0 5.88702e-06 0)
(0 6.53752e-06 0)
(0 7.21491e-06 0)
(0 7.68663e-06 0)
(0 7.96204e-06 0)
(0 8.10351e-06 0)
(0 8.0381e-06 0)
(0 7.72496e-06 0)
(0 7.48308e-06 0)
(0 7.54143e-06 0)
(0 6.53907e-06 0)
(0 6.4842e-06 0)
(0 5.63038e-06 0)
(0 5.50907e-06 0)
(0 4.93811e-06 0)
(0 4.8727e-06 0)
(0 4.48052e-06 0)
(0 4.35123e-06 0)
(0 3.97392e-06 0)
(0 3.71945e-06 0)
(0 3.26323e-06 0)
(0 2.99747e-06 0)
(0 2.4551e-06 0)
(0 2.85097e-06 0)
(0 2.05248e-06 0)
(0 2.44007e-06 0)
(0 1.53007e-06 0)
(0 1.80372e-06 0)
(0 7.04176e-07 0)
(0 8.07038e-07 0)
(0 -5.06316e-07 0)
(0 -6.64687e-07 0)
(0 -2.04965e-06 0)
(0 -2.39648e-06 0)
(0 -3.79447e-06 0)
(0 -4.24181e-06 0)
(0 -3.4212e-06 0)
(0 -5.15485e-06 0)
(0 -4.8506e-06 0)
(0 -6.3413e-06 0)
(0 -5.77201e-06 0)
(0 -7.14807e-06 0)
(0 -6.29466e-06 0)
(0 -7.44017e-06 0)
(0 -6.4903e-06 0)
(0 -7.39898e-06 0)
(0 -6.4177e-06 0)
(0 -7.19464e-06 0)
(0 -7.98878e-06 0)
(0 -6.3645e-06 0)
(0 -7.03427e-06 0)
(0 -6.42555e-06 0)
(0 -7.00707e-06 0)
(0 -6.45796e-06 0)
(0 -6.94296e-06 0)
(0 -6.38281e-06 0)
(0 -6.84459e-06 0)
(0 -6.33393e-06 0)
(0 -6.79545e-06 0)
(0 -6.38956e-06 0)
(0 -6.84186e-06 0)
(0 -7.11777e-06 0)
(0 -6.58656e-06 0)
(0 -7.03178e-06 0)
(0 -6.84153e-06 0)
(0 -7.26309e-06 0)
(0 -6.96964e-06 0)
(0 -7.38944e-06 0)
(0 -6.95979e-06 0)
(0 -7.39506e-06 0)
(0 -6.93508e-06 0)
(0 -7.37449e-06 0)
(0 -6.93482e-06 0)
(0 -7.30213e-06 0)
(0 -6.90644e-06 0)
(0 -7.2289e-06 0)
(0 -6.81755e-06 0)
(0 -7.11101e-06 0)
(0 -6.66796e-06 0)
(0 -6.9184e-06 0)
(0 -6.42965e-06 0)
(0 -6.65713e-06 0)
(0 -6.11805e-06 0)
(0 -6.33949e-06 0)
(0 -5.8028e-06 0)
(0 -5.98498e-06 0)
(0 -7.70093e-06 0)
(0 -5.49354e-06 0)
(0 -5.64227e-06 0)
(0 -6.37923e-06 0)
(0 -5.18537e-06 0)
(0 -5.31908e-06 0)
(0 -4.87244e-06 0)
(0 -5.09217e-06 0)
(0 -4.63668e-06 0)
(0 -4.95788e-06 0)
(0 -4.51701e-06 0)
(0 -4.87694e-06 0)
(0 -4.45446e-06 0)
(0 -4.82169e-06 0)
(0 -4.22657e-06 0)
(0 -4.46103e-06 0)
(0 -4.81008e-06 0)
(0 -4.50417e-06 0)
(0 -4.81293e-06 0)
(0 -4.51546e-06 0)
(0 -4.85389e-06 0)
(0 -4.54573e-06 0)
(0 -4.93082e-06 0)
(0 -6.48997e-06 0)
(0 -4.62512e-06 0)
(0 -5.0328e-06 0)
(0 -4.07269e-06 0)
(0 -6.82911e-06 0)
(0 -4.74231e-06 0)
(0 -5.14942e-06 0)
(0 -4.91124e-06 0)
(0 -5.35783e-06 0)
(0 -5.17713e-06 0)
(0 -5.68774e-06 0)
(0 -5.82395e-06 0)
(0 -6.19244e-06 0)
(0 -6.26905e-06 0)
(0 -6.60619e-06 0)
(0 -6.56928e-06 0)
(0 -6.97821e-06 0)
(0 -6.93562e-06 0)
(0 -7.34373e-06 0)
(0 -7.42167e-06 0)
(0 -7.86432e-06 0)
(0 -7.72658e-06 0)
(0 -8.34012e-06 0)
(0 -8.5019e-06 0)
(0 -9.04975e-06 0)
(0 -9.26626e-06 0)
(0 -9.8867e-06 0)
(0 -9.57877e-06 0)
(0 -1.04884e-05 0)
(0 -1.01112e-05 0)
(0 -1.10737e-05 0)
(0 -1.15651e-05 0)
(0 -1.22248e-05 0)
(0 -1.27792e-05 0)
(0 -1.34873e-05 0)
(0 -1.28524e-05 0)
(0 -1.40854e-05 0)
(0 -1.47263e-05 0)
(0 -1.5341e-05 0)
(0 -1.44488e-05 0)
(0 -1.59351e-05 0)
(0 -1.66649e-05 0)
(0 -1.73874e-05 0)
(0 -1.65392e-05 0)
(0 -1.80831e-05 0)
(0 -1.89627e-05 0)
(0 -1.97864e-05 0)
(0 -1.87931e-05 0)
(0 -2.06353e-05 0)
(0 -2.16682e-05 0)
(0 -2.25925e-05 0)
(0 -2.36565e-05 0)
(0 -2.46086e-05 0)
(0 -2.34926e-05 0)
(0 -2.55796e-05 0)
(0 -2.66924e-05 0)
(0 -2.7758e-05 0)
(0 -2.65478e-05 0)
(0 -2.88399e-05 0)
(0 -3.01047e-05 0)
(0 -3.13442e-05 0)
(0 -3.26744e-05 0)
(0 -3.40489e-05 0)
(0 -3.26997e-05 0)
(0 -3.5417e-05 0)
(0 -3.68524e-05 0)
(0 -3.82521e-05 0)
(0 -3.66546e-05 0)
(0 -3.95728e-05 0)
(0 -4.11529e-05 0)
(0 -4.25828e-05 0)
(0 -4.0649e-05 0)
(0 -4.40685e-05 0)
(0 -4.58051e-05 0)
(0 -4.73817e-05 0)
(0 -4.53299e-05 0)
(0 -4.89029e-05 0)
(0 -5.09392e-05 0)
(0 -5.23468e-05 0)
(0 -5.03248e-05 0)
(0 -5.37234e-05 0)
(0 -5.57332e-05 0)
(0 -5.72213e-05 0)
(0 -5.50725e-05 0)
(0 -5.87145e-05 0)
(0 -6.07875e-05 0)
(0 -6.018e-05 0)
(0 -5.36819e-06 0)
(0 -5.84406e-06 0)
(0 -2.78322e-06 0)
(0 -4.71262e-06 0)
(0 -3.23133e-06 0)
(0 -5.09499e-06 0)
(0 -3.65103e-06 0)
(0 -5.25717e-06 0)
(0 -3.95143e-06 0)
(0 -5.16421e-06 0)
(0 -4.05037e-06 0)
(0 -5.04549e-06 0)
(0 -4.09579e-06 0)
(0 -5.07593e-06 0)
(0 2.68382e-06 0)
(0 2.30383e-06 0)
(0 2.68833e-06 0)
(0 2.3113e-06 0)
(0 2.7161e-06 0)
(0 2.32063e-06 0)
(0 2.75054e-06 0)
(0 3.12856e-06 0)
(0 3.15848e-06 0)
(0 2.77117e-06 0)
(0 3.1582e-06 0)
(0 2.76547e-06 0)
(0 3.13404e-06 0)
(0 2.73087e-06 0)
(0 3.09381e-06 0)
(0 3.50872e-06 0)
(0 2.66991e-06 0)
(0 3.03962e-06 0)
(0 3.43982e-06 0)
(0 3.38616e-06 0)
(0 2.96687e-06 0)
(0 3.30647e-06 0)
(0 3.75962e-06 0)
(0 2.86746e-06 0)
(0 3.18573e-06 0)
(0 2.72416e-06 0)
(0 3.02885e-06 0)
(0 2.55072e-06 0)
(0 2.86329e-06 0)
(0 3.3213e-06 0)
(0 3.1608e-06 0)
(0 3.59458e-06 0)
(0 3.42335e-06 0)
(0 3.83005e-06 0)
(0 3.6446e-06 0)
(0 4.03294e-06 0)
(0 3.82268e-06 0)
(0 4.20507e-06 0)
(0 3.98465e-06 0)
(0 4.35661e-06 0)
(0 4.14417e-06 0)
(0 4.508e-06 0)
(0 4.27471e-06 0)
(0 4.64587e-06 0)
(0 4.39988e-06 0)
(0 4.77822e-06 0)
(0 4.53676e-06 0)
(0 4.90507e-06 0)
(0 4.66404e-06 0)
(0 5.01195e-06 0)
(0 4.76967e-06 0)
(0 5.09477e-06 0)
(0 4.84735e-06 0)
(0 5.16876e-06 0)
(0 4.90306e-06 0)
(0 5.22606e-06 0)
(0 4.94245e-06 0)
(0 5.2694e-06 0)
(0 4.98809e-06 0)
(0 5.31177e-06 0)
(0 5.03557e-06 0)
(0 5.33473e-06 0)
(0 5.0559e-06 0)
(0 5.33814e-06 0)
(0 5.0507e-06 0)
(0 5.32555e-06 0)
(0 5.01072e-06 0)
(0 5.29994e-06 0)
(0 4.97116e-06 0)
(0 5.26829e-06 0)
(0 4.94715e-06 0)
(0 5.22027e-06 0)
(0 4.85348e-06 0)
(0 5.1602e-06 0)
(0 4.83928e-06 0)
(0 5.09502e-06 0)
(0 4.76654e-06 0)
(0 5.00816e-06 0)
(0 4.67783e-06 0)
(0 4.91049e-06 0)
(0 4.58589e-06 0)
(0 4.80169e-06 0)
(0 4.47196e-06 0)
(0 4.684e-06 0)
(0 4.33732e-06 0)
(0 4.56338e-06 0)
(0 4.1896e-06 0)
(0 4.43043e-06 0)
(0 4.03643e-06 0)
(0 4.28228e-06 0)
(0 3.87715e-06 0)
(0 4.12122e-06 0)
(0 3.70693e-06 0)
(0 3.9335e-06 0)
(0 3.49371e-06 0)
(0 3.7163e-06 0)
(0 3.24156e-06 0)
(0 3.47792e-06 0)
(0 2.97827e-06 0)
(0 3.2175e-06 0)
(0 2.69095e-06 0)
(0 2.93434e-06 0)
(0 2.37901e-06 0)
(0 2.62956e-06 0)
(0 2.0446e-06 0)
(0 2.30155e-06 0)
(0 1.69834e-06 0)
(0 1.9497e-06 0)
(0 1.31077e-06 0)
(0 1.5724e-06 0)
(0 8.95445e-07 0)
(0 1.17123e-06 0)
(0 4.48744e-07 0)
(0 7.2749e-07 0)
(0 -4.67127e-08 0)
(0 2.06498e-07 0)
(0 -5.71006e-07 0)
(0 -3.21739e-07 0)
(0 -1.13308e-06 0)
(0 -8.4386e-07 0)
(0 5.91878e-09 0)
(0 -5.64232e-07 0)
(0 -1.42081e-06 0)
(0 -1.09952e-06 0)
(0 -2.8352e-07 0)
(0 -7.72823e-07 0)
(0 -1.67048e-06 0)
(0 -1.30292e-06 0)
(0 -4.52804e-07 0)
(0 -9.98086e-07 0)
(0 -1.88751e-06 0)
(0 -1.57853e-06 0)
(0 -2.53009e-06 0)
(0 -2.18884e-06 0)
(0 -1.24121e-06 0)
(0 -1.82707e-06 0)
(0 -2.82697e-06 0)
(0 -2.43237e-06 0)
(0 -3.49807e-06 0)
(0 -3.07969e-06 0)
(0 -1.91048e-06 0)
(0 -2.67947e-06 0)
(0 -3.74279e-06 0)
(0 -3.33542e-06 0)
(0 2.2151e-06 0)
(0 -2.31828e-06 0)
(0 -2.95693e-06 0)
(0 -3.99758e-06 0)
(0 -3.63207e-06 0)
(0 -2.57209e-06 0)
(0 -3.2452e-06 0)
(0 -4.36495e-06 0)
(0 -3.96411e-06 0)
(0 -5.15532e-06 0)
(0 -4.74059e-06 0)
(0 -2.17871e-06 0)
(0 3.7142e-06 0)
(0 4.61518e-06 0)
(0 4.69537e-06 0)
(0 4.37641e-06 0)
(0 3.78245e-06 0)
(0 4.34169e-06 0)
(0 3.62558e-06 0)
(0 2.45191e-06 0)
(0 5.73401e-07 0)
(0 -6.00376e-06 0)
(0 -5.57846e-06 0)
(0 -6.91519e-06 0)
(0 -6.47484e-06 0)
(0 4.65861e-06 0)
(0 -7.88719e-06 0)
(0 -7.4456e-06 0)
(0 -6.03742e-06 0)
(0 -7.00904e-06 0)
(0 -5.62855e-06 0)
(0 -6.59224e-06 0)
(0 -5.23407e-06 0)
(0 -6.18809e-06 0)
(0 -4.85403e-06 0)
(0 -5.80001e-06 0)
(0 -4.48347e-06 0)
(0 -5.43238e-06 0)
(0 -6.80432e-06 0)
(0 -6.45203e-06 0)
(0 -5.06951e-06 0)
(0 -4.72441e-06 0)
(0 -8.95388e-06 0)
(0 -9.37481e-06 0)
(0 5.22164e-06 0)
(0 4.70489e-06 0)
(0 -1.05458e-05 0)
(0 -1.09508e-05 0)
(0 5.50304e-06 0)
(0 -1.22112e-05 0)
(0 -1.2629e-05 0)
(0 -1.39759e-05 0)
(0 -1.44092e-05 0)
(0 5.59349e-06 0)
(0 5.22376e-06 0)
(0 2.6921e-06 0)
(0 -1.5858e-05 0)
(0 -1.62682e-05 0)
(0 -1.77962e-05 0)
(0 -1.82051e-05 0)
(0 -6.26776e-05 0)
(0 -6.45059e-05 0)
(0 -5.94552e-05 0)
(0 -5.77396e-05 0)
(0 -5.44644e-05 0)
(0 -5.91315e-06 0)
(0 -5.50881e-06 0)
(0 -5.29916e-05 0)
(0 -4.96679e-05 0)
(0 -5.0937e-05 0)
(0 -4.63101e-05 0)
(0 -4.75404e-05 0)
(0 -4.31636e-05 0)
(0 -4.1984e-05 0)
(0 -3.90336e-05 0)
(0 -1.97635e-05 0)
(0 -2.02398e-05 0)
(0 -4.03063e-05 0)
(0 -3.63674e-05 0)
(0 -3.52134e-05 0)
(0 -3.28285e-05 0)
(0 -3.38406e-05 0)
(0 -3.05862e-05 0)
(0 -2.96734e-05 0)
(0 -2.7661e-05 0)
(0 -4.68888e-06 0)
(0 -2.67361e-05 0)
(0 -2.49567e-05 0)
(0 -2.56793e-05 0)
(0 -2.32368e-05 0)
(0 -1.40751e-06 0)
(0 2.21601e-06 0)
(0 -2.24737e-05 0)
(0 -2.09504e-05 0)
(0 -2.13869e-05 0)
(0 -1.93963e-05 0)
(0 -1.88024e-05 0)
(0 -1.74051e-05 0)
(0 -1.77955e-05 0)
(0 -1.596e-05 0)
(0 -1.53228e-05 0)
(0 -1.40136e-05 0)
(0 -1.4434e-05 0)
(0 -1.27455e-05 0)
(0 -1.20181e-05 0)
(0 -1.08663e-05 0)
(0 2.27635e-06 0)
(0 1.91496e-06 0)
(0 -9.71891e-06 0)
(0 -8.28232e-06 0)
(0 -9.23159e-06 0)
(0 -6.43643e-06 0)
(0 -5.2927e-06 0)
(0 -3.48891e-06 0)
(0 -4.3354e-06 0)
(0 -1.43863e-06 0)
(0 -3.25232e-07 0)
(0 1.65837e-06 0)
(0 6.99018e-07 0)
(0 3.64913e-06 0)
(0 4.66294e-06 0)
(0 6.38926e-06 0)
(0 5.35152e-06 0)
(0 7.71511e-06 0)
(0 6.53076e-06 0)
(0 8.50364e-06 0)
(0 7.23194e-06 0)
(0 9.03921e-06 0)
(0 1.00992e-05 0)
(0 1.08086e-05 0)
(0 9.75843e-06 0)
(0 1.17781e-05 0)
(0 1.06927e-05 0)
(0 1.28084e-05 0)
(0 1.17229e-05 0)
(0 1.38825e-05 0)
(0 1.49132e-05 0)
(0 1.61199e-05 0)
(0 1.5004e-05 0)
(0 1.72942e-05 0)
(0 1.59305e-05 0)
(0 1.80888e-05 0)
(0 1.6384e-05 0)
(0 1.83701e-05 0)
(0 1.99939e-05 0)
(0 1.99197e-05 0)
(0 1.80418e-05 0)
(0 1.9174e-05 0)
(0 1.71972e-05 0)
(0 1.79825e-05 0)
(0 1.97983e-05 0)
(0 1.83775e-05 0)
(0 1.66719e-05 0)
(0 1.6999e-05 0)
(0 1.54541e-05 0)
(0 1.58263e-05 0)
(0 1.71264e-05 0)
(0 1.61976e-05 0)
(0 1.496e-05 0)
(0 1.55421e-05 0)
(0 1.43611e-05 0)
(0 1.50527e-05 0)
(0 1.60384e-05 0)
(0 1.39649e-05 0)
(0 1.48069e-05 0)
(0 1.375e-05 0)
(0 1.48507e-05 0)
(0 1.38142e-05 0)
(0 1.51846e-05 0)
(0 1.41771e-05 0)
(0 1.58007e-05 0)
(0 1.47197e-05 0)
(0 1.65493e-05 0)
(0 1.66363e-05 0)
(0 1.55347e-05 0)
(0 -2.18033e-05 0)
(0 -2.13986e-05 0)
(0 -2.25822e-05 0)
(0 -2.07538e-05 0)
(0 -2.27397e-05 0)
(0 -2.11715e-05 0)
(0 -2.31935e-05 0)
(0 -2.16324e-05 0)
(0 -2.36579e-05 0)
(0 -2.20218e-05 0)
(0 -2.4046e-05 0)
(0 -2.23453e-05 0)
(0 1.7668e-05 0)
(0 1.66443e-05 0)
(0 1.29013e-05 0)
(0 -2.44069e-05 0)
(0 -2.27348e-05 0)
(0 1.87178e-05 0)
(0 1.7632e-05 0)
(0 2.28688e-06 0)
(0 1.33523e-05 0)
(0 -2.58666e-05 0)
(0 -2.4747e-05 0)
(0 -2.30501e-05 0)
(0 1.95354e-05 0)
(0 2.04454e-05 0)
(0 1.82651e-05 0)
(0 3.11644e-06 0)
(0 -2.50407e-05 0)
(0 -2.33012e-05 0)
(0 2.68316e-06 0)
(0 3.83876e-06 0)
(0 -7.74667e-06 0)
(0 7.03591e-06 0)
(0 7.15681e-06 0)
(0 7.09187e-06 0)
(0 7.1995e-06 0)
(0 7.1397e-06 0)
(0 7.23899e-06 0)
(0 7.17906e-06 0)
(0 7.27244e-06 0)
(0 7.20934e-06 0)
(0 7.29742e-06 0)
(0 7.11294e-06 0)
(0 7.23191e-06 0)
(0 7.31582e-06 0)
(0 2.10117e-05 0)
(0 2.16648e-05 0)
(0 6.90178e-06 0)
(0 -2.53077e-05 0)
(0 -2.34867e-05 0)
(0 -7.28391e-06 0)
(0 7.2485e-06 0)
(0 7.32411e-06 0)
(0 7.08466e-06 0)
(0 3.70398e-06 0)
(0 5.02111e-06 0)
(0 -2.16733e-05 0)
(0 -2.1803e-05 0)
(0 -2.36855e-05 0)
(0 -2.19537e-05 0)
(0 2.2063e-05 0)
(0 2.23564e-05 0)
(0 7.25292e-06 0)
(0 -3.57947e-06 0)
(0 7.25303e-06 0)
(0 7.32158e-06 0)
(0 -6.69265e-06 0)
(0 -6.75144e-06 0)
(0 -7.37885e-06 0)
(0 -6.817e-06 0)
(0 -2.02072e-05 0)
(0 -2.03093e-05 0)
(0 -6.15205e-06 0)
(0 -6.17192e-06 0)
(0 -2.21544e-05 0)
(0 -2.04227e-05 0)
(0 -2.72725e-05 0)
(0 7.24436e-06 0)
(0 7.31153e-06 0)
(0 7.17053e-06 0)
(0 -1.86629e-05 0)
(0 -1.87269e-05 0)
(0 -7.51104e-06 0)
(0 -5.48571e-06 0)
(0 -5.53657e-06 0)
(0 -2.05572e-05 0)
(0 -1.8852e-05 0)
(0 -1.709e-05 0)
(0 -1.72234e-05 0)
(0 -1.55442e-05 0)
(0 -1.56656e-05 0)
(0 5.05378e-06 0)
(0 6.47025e-06 0)
(0 2.28427e-05 0)
(0 2.28139e-05 0)
(0 -1.41e-05 0)
(0 -1.42563e-05 0)
(0 -1.2758e-05 0)
(0 -1.29713e-05 0)
(0 -1.14885e-05 0)
(0 -1.1713e-05 0)
(0 -1.02779e-05 0)
(0 -1.05148e-05 0)
(0 -9.15804e-06 0)
(0 -9.4097e-06 0)
(0 -8.1277e-06 0)
(0 -8.39827e-06 0)
(0 -9.67924e-06 0)
(0 -8.67524e-06 0)
(0 -7.48259e-06 0)
(0 -7.76337e-06 0)
(0 -6.64926e-06 0)
(0 -6.93774e-06 0)
(0 -5.8781e-06 0)
(0 -6.1792e-06 0)
(0 -5.15389e-06 0)
(0 -5.45096e-06 0)
(0 -4.46554e-06 0)
(0 -4.77745e-06 0)
(0 -3.81714e-06 0)
(0 -4.139e-06 0)
(0 -3.218e-06 0)
(0 -3.56086e-06 0)
(0 -2.68793e-06 0)
(0 -3.06669e-06 0)
(0 -2.24486e-06 0)
(0 -2.6332e-06 0)
(0 -1.86491e-06 0)
(0 -2.25215e-06 0)
(0 -1.51371e-06 0)
(0 -1.87494e-06 0)
(0 -1.1619e-06 0)
(0 -1.50571e-06 0)
(0 -8.43335e-07 0)
(0 -1.22746e-06 0)
(0 -5.99535e-07 0)
(0 -1.02818e-06 0)
(0 -1.77267e-06 0)
(0 -1.50642e-06 0)
(0 -8.53526e-07 0)
(0 -1.3138e-06 0)
(0 -7.14283e-07 0)
(0 -1.14929e-06 0)
(0 -5.85168e-07 0)
(0 -1.01057e-06 0)
(0 -4.84032e-07 0)
(0 -9.0876e-07 0)
(0 -4.21057e-07 0)
(0 -8.46449e-07 0)
(0 -3.82373e-07 0)
(0 -8.07442e-07 0)
(0 -2.96551e-06 0)
(0 -1.27507e-06 0)
(0 -1.23694e-06 0)
(0 -7.92248e-07 0)
(0 -1.24311e-06 0)
(0 -8.28836e-07 0)
(0 -1.3219e-06 0)
(0 -9.35709e-07 0)
(0 -1.4651e-06 0)
(0 -1.0919e-06 0)
(0 -1.64523e-06 0)
(0 -1.99816e-06 0)
(0 -1.26386e-06 0)
(0 -1.83785e-06 0)
(0 -1.42413e-06 0)
(0 -1.9741e-06 0)
(0 -1.55046e-06 0)
(0 -2.06432e-06 0)
(0 -1.66502e-06 0)
(0 -5.20137e-06 0)
(0 -2.19269e-06 0)
(0 -1.82025e-06 0)
(0 -2.3757e-06 0)
(0 -2.02698e-06 0)
(0 -1.82829e-06 0)
(0 -2.62162e-06 0)
(0 -2.2984e-06 0)
(0 -1.45915e-05 0)
(0 7.22933e-06 0)
(0 7.2946e-06 0)
(0 -8.0483e-06 0)
(0 7.3693e-06 0)
(0 7.35217e-06 0)
(0 7.2707e-06 0)
(0 7.32842e-06 0)
(0 7.41438e-06 0)
(0 7.37917e-06 0)
(0 7.29689e-06 0)
(0 7.34392e-06 0)
(0 7.4178e-06 0)
(0 7.38395e-06 0)
(0 7.44898e-06 0)
(0 7.41817e-06 0)
(0 7.47687e-06 0)
(0 7.4482e-06 0)
(0 7.50212e-06 0)
(0 7.47411e-06 0)
(0 7.52293e-06 0)
(0 7.49481e-06 0)
(0 7.53974e-06 0)
(0 7.51152e-06 0)
(0 7.46061e-06 0)
(0 7.47764e-06 0)
(0 7.52522e-06 0)
(0 7.49399e-06 0)
(0 7.53723e-06 0)
(0 7.5062e-06 0)
(0 7.54736e-06 0)
(0 7.5168e-06 0)
(0 7.55634e-06 0)
(0 7.52803e-06 0)
(0 7.56493e-06 0)
(0 7.53752e-06 0)
(0 7.5719e-06 0)
(0 7.54468e-06 0)
(0 7.5055e-06 0)
(0 7.5126e-06 0)
(0 7.55018e-06 0)
(0 7.51735e-06 0)
(0 7.5548e-06 0)
(0 7.52182e-06 0)
(0 7.55801e-06 0)
(0 7.52601e-06 0)
(0 7.56039e-06 0)
(0 7.52958e-06 0)
(0 7.49071e-06 0)
(0 7.4961e-06 0)
(0 7.53317e-06 0)
(0 7.49991e-06 0)
(0 7.53572e-06 0)
(0 7.50107e-06 0)
(0 7.53693e-06 0)
(0 7.50143e-06 0)
(0 7.46241e-06 0)
(0 7.46258e-06 0)
(0 7.50214e-06 0)
(0 7.46342e-06 0)
(0 7.50336e-06 0)
(0 7.46602e-06 0)
(0 7.50574e-06 0)
(0 7.46941e-06 0)
(0 7.50864e-06 0)
(0 7.47265e-06 0)
(0 7.51215e-06 0)
(0 7.47657e-06 0)
(0 7.43186e-06 0)
(0 7.4366e-06 0)
(0 7.42027e-06 0)
(0 7.48194e-06 0)
(0 7.44275e-06 0)
(0 7.48773e-06 0)
(0 7.44844e-06 0)
(0 7.49287e-06 0)
(0 7.45357e-06 0)
(0 7.40293e-06 0)
(0 7.40828e-06 0)
(0 7.45809e-06 0)
(0 7.4133e-06 0)
(0 7.46218e-06 0)
(0 7.4176e-06 0)
(0 7.46577e-06 0)
(0 7.42105e-06 0)
(0 7.36626e-06 0)
(0 7.36975e-06 0)
(0 7.42357e-06 0)
(0 7.37196e-06 0)
(0 7.42503e-06 0)
(0 7.37281e-06 0)
(0 7.42575e-06 0)
(0 7.37312e-06 0)
(0 7.31205e-06 0)
(0 7.31224e-06 0)
(0 7.37373e-06 0)
(0 7.31274e-06 0)
(0 7.37584e-06 0)
(0 7.31374e-06 0)
(0 7.24242e-06 0)
(0 7.24337e-06 0)
(0 7.31561e-06 0)
(0 7.24571e-06 0)
(0 7.31814e-06 0)
(0 7.24862e-06 0)
(0 7.32132e-06 0)
(0 7.25142e-06 0)
(0 7.32495e-06 0)
(0 7.25407e-06 0)
(0 7.17063e-06 0)
(0 7.17222e-06 0)
(0 7.25697e-06 0)
(0 7.17499e-06 0)
(0 7.07903e-06 0)
(0 7.08153e-06 0)
(0 7.17738e-06 0)
(0 7.08188e-06 0)
(0 7.17789e-06 0)
(0 7.08086e-06 0)
(0 7.17737e-06 0)
(0 7.08049e-06 0)
(0 7.17282e-06 0)
(0 7.08047e-06 0)
(0 7.17334e-06 0)
(0 7.08117e-06 0)
(0 6.96981e-06 0)
(0 7.17844e-06 0)
(0 7.0817e-06 0)
(0 7.17901e-06 0)
(0 7.08084e-06 0)
(0 7.16223e-06 0)
(0 7.18237e-06 0)
(0 7.07993e-06 0)
(0 6.96805e-06 0)
(0 6.96485e-06 0)
(0 7.07799e-06 0)
(0 6.96156e-06 0)
(0 7.07571e-06 0)
(0 6.95811e-06 0)
(0 6.83335e-06 0)
(0 6.82691e-06 0)
(0 6.95493e-06 0)
(0 6.81897e-06 0)
(0 6.95023e-06 0)
(0 6.81397e-06 0)
(0 6.94548e-06 0)
(0 6.81333e-06 0)
(0 6.9418e-06 0)
(0 6.80916e-06 0)
(0 6.93883e-06 0)
(0 6.79926e-06 0)
(0 6.67217e-06 0)
(0 6.93721e-06 0)
(0 6.79343e-06 0)
(0 6.6542e-06 0)
(0 6.93695e-06 0)
(0 6.78744e-06 0)
(0 6.93401e-06 0)
(0 6.78105e-06 0)
(0 6.92842e-06 0)
(0 6.77429e-06 0)
(0 6.60927e-06 0)
(0 6.59923e-06 0)
(0 6.76706e-06 0)
(0 6.58794e-06 0)
(0 6.75858e-06 0)
(0 6.57336e-06 0)
(0 6.74769e-06 0)
(0 6.55582e-06 0)
(0 6.35884e-06 0)
(0 6.33469e-06 0)
(0 6.5355e-06 0)
(0 6.30721e-06 0)
(0 6.5105e-06 0)
(0 6.273e-06 0)
(0 6.48033e-06 0)
(0 6.23243e-06 0)
(0 6.4494e-06 0)
(0 6.11543e-06 0)
(0 6.19286e-06 0)
(0 6.40784e-06 0)
(0 6.13996e-06 0)
(0 6.35509e-06 0)
(0 7.26737e-06 0)
(0 6.0709e-06 0)
(0 6.30177e-06 0)
(0 7.05325e-06 0)
(0 7.2673e-06 0)
(0 7.38564e-06 0)
(0 7.46727e-06 0)
(0 5.99851e-06 0)
(0 6.23841e-06 0)
(0 5.94507e-06 0)
(0 7.08423e-06 0)
(0 5.92001e-06 0)
(0 6.19784e-06 0)
(0 5.65366e-06 0)
(0 7.44575e-06 0)
(0 6.66836e-06 0)
(0 7.54479e-06 0)
(0 5.8191e-06 0)
(0 6.05124e-06 0)
(0 6.53433e-06 0)
(0 5.68771e-06 0)
(0 5.92763e-06 0)
(0 7.35099e-06 0)
(0 6.27399e-06 0)
(0 6.13464e-06 0)
(0 5.78078e-06 0)
(0 6.00106e-06 0)
(0 7.58926e-06 0)
(0 5.60379e-06 0)
(0 5.82668e-06 0)
(0 6.20826e-06 0)
(0 6.02961e-06 0)
(0 5.61151e-06 0)
(0 5.81575e-06 0)
(0 6.21003e-06 0)
(0 5.99727e-06 0)
(0 6.36701e-06 0)
(0 6.15298e-06 0)
(0 5.74679e-06 0)
(0 6.28298e-06 0)
(0 6.38844e-06 0)
(0 6.46952e-06 0)
(0 7.35395e-06 0)
(0 -4.86057e-06 0)
(0 -5.01213e-06 0)
(0 7.59509e-06 0)
(0 -2.96065e-06 0)
(0 -2.67833e-06 0)
(0 -2.0694e-05 0)
(0 7.57892e-06 0)
(0 -2.08372e-05 0)
(0 -1.392e-05 0)
(0 2.34164e-05 0)
(0 2.31442e-05 0)
(0 2.30871e-05 0)
(0 2.21667e-05 0)
(0 2.22864e-05 0)
(0 2.11181e-05 0)
(0 2.10389e-05 0)
(0 1.98207e-05 0)
(0 1.95844e-05 0)
(0 1.83908e-05 0)
(0 1.80423e-05 0)
(0 1.68058e-05 0)
(0 1.64543e-05 0)
(0 1.53088e-05 0)
(0 1.51558e-05 0)
(0 1.43193e-05 0)
(0 1.43375e-05 0)
(0 1.39585e-05 0)
(0 1.3998e-05 0)
(0 1.40536e-05 0)
(0 1.38855e-05 0)
(0 1.40482e-05 0)
(0 1.42089e-05 0)
(0 1.39811e-05 0)
(0 1.43854e-05 0)
(0 1.42623e-05 0)
(0 1.46612e-05 0)
(0 1.46386e-05 0)
(0 -7.42532e-06 0)
(0 -7.64481e-06 0)
(0 7.50357e-06 0)
(0 6.79726e-06 0)
(0 8.32401e-06 0)
(0 -4.34392e-06 0)
(0 -4.61128e-06 0)
(0 -5.2534e-06 0)
(0 -4.88218e-06 0)
(0 -4.16814e-06 0)
(0 -5.49576e-06 0)
(0 -5.06648e-06 0)
(0 -4.44413e-06 0)
(0 -4.57856e-06 0)
(0 -3.94729e-06 0)
(0 -4.09775e-06 0)
(0 -4.74719e-06 0)
(0 -4.32522e-06 0)
(0 -3.62438e-06 0)
(0 -3.92402e-06 0)
(0 6.91282e-06 0)
(0 -2.52321e-06 0)
(0 7.56762e-06 0)
(0 7.52688e-06 0)
(0 7.47126e-06 0)
(0 7.45482e-06 0)
(0 7.35102e-06 0)
(0 -3.39994e-06 0)
(0 -3.14413e-06 0)
(0 7.30695e-06 0)
(0 6.97403e-06 0)
(0 -3.19165e-06 0)
(0 1.4407e-05 0)
(0 1.61573e-05 0)
(0 9.63709e-06 0)
(0 -5.0459e-06 0)
(0 -4.50316e-06 0)
(0 -4.91855e-06 0)
(0 -4.24276e-06 0)
(0 -4.68774e-06 0)
(0 -3.86946e-06 0)
(0 -4.33634e-06 0)
(0 -3.43812e-06 0)
(0 -3.89077e-06 0)
(0 -2.99771e-06 0)
(0 5.28455e-06 0)
(0 -2.58352e-06 0)
(0 -2.232e-06 0)
(0 1.49459e-05 0)
(0 1.48979e-05 0)
(0 7.29203e-06 0)
(0 1.17477e-05 0)
(0 1.70453e-05 0)
(0 1.48055e-05 0)
(0 -8.21928e-10 0)
(0 -1.71417e-06 0)
(0 -4.68065e-06 0)
(0 -4.35009e-06 0)
(0 7.97494e-06 0)
(0 9.958e-06 0)
(0 -2.97333e-06 0)
(0 -6.4492e-06 0)
(0 5.48752e-06 0)
(0 -5.20971e-06 0)
(0 -3.97496e-06 0)
(0 -3.90657e-06 0)
(0 2.37399e-05 0)
(0 2.32142e-05 0)
(0 2.21672e-05 0)
(0 1.51546e-05 0)
(0 1.50207e-05 0)
(0 -5.46845e-07 0)
(0 7.56303e-06 0)
(0 -1.84119e-06 0)
(0 -1.47016e-06 0)
(0 -1.30416e-05 0)
(0 8.82694e-06 0)
(0 7.32672e-06 0)
(0 -4.84546e-06 0)
(0 -1.12145e-06 0)
(0 -2.34484e-06 0)
(0 6.70184e-06 0)
(0 -1.93984e-07 0)
(0 -1.15916e-06 0)
(0 1.75098e-05 0)
(0 4.17255e-06 0)
(0 1.53669e-05 0)
(0 1.52025e-05 0)
(0 -6.92611e-05 0)
(0 -1.35957e-05 0)
(0 1.4887e-05 0)
(0 1.51957e-05 0)
(0 1.55288e-05 0)
(0 1.58488e-05 0)
(0 -6.95734e-05 0)
(0 -6.57236e-05 0)
(0 -6.53692e-05 0)
(0 -6.19943e-05 0)
(0 2.37442e-05 0)
(0 2.30299e-05 0)
(0 -3.62672e-06 0)
(0 -4.40082e-06 0)
(0 -5.14798e-06 0)
(0 -9.65338e-07 0)
(0 -4.34569e-07 0)
(0 -1.40774e-06 0)
(0 -6.21226e-05 0)
(0 -5.8615e-05 0)
(0 -5.82884e-05 0)
(0 -5.50914e-05 0)
(0 1.42703e-05 0)
(0 -2.87379e-06 0)
(0 9.62417e-06 0)
(0 1.17167e-05 0)
(0 1.56096e-05 0)
(0 1.6635e-05 0)
(0 1.69754e-05 0)
(0 1.80611e-05 0)
(0 1.53546e-05 0)
(0 -4.82905e-06 0)
(0 -4.35499e-06 0)
(0 -5.42569e-06 0)
(0 -4.88309e-06 0)
(0 -6.04283e-06 0)
(0 -5.47876e-06 0)
(0 -6.63518e-06 0)
(0 -6.07102e-06 0)
(0 -7.28852e-06 0)
(0 -6.72605e-06 0)
(0 -8.12236e-06 0)
(0 -7.58165e-06 0)
(0 -9.16904e-06 0)
(0 -6.19381e-06 0)
(0 -8.74529e-06 0)
(0 -1.049e-05 0)
(0 -1.02367e-05 0)
(0 -1.20604e-05 0)
(0 5.16336e-06 0)
(0 -5.53688e-05 0)
(0 -5.19245e-05 0)
(0 -5.15507e-05 0)
(0 -4.84458e-05 0)
(0 1.42839e-05 0)
(0 9.13422e-06 0)
(0 7.6023e-06 0)
(0 1.76885e-05 0)
(0 1.92999e-05 0)
(0 1.97898e-05 0)
(0 2.10687e-05 0)
(0 2.15864e-05 0)
(0 2.2627e-05 0)
(0 2.18233e-05 0)
(0 2.28938e-05 0)
(0 2.37523e-05 0)
(0 2.35032e-05 0)
(0 -4.87236e-05 0)
(0 -4.52955e-05 0)
(0 -4.50787e-05 0)
(0 -4.20676e-05 0)
(0 -4.18297e-05 0)
(0 -3.89975e-05 0)
(0 -3.91925e-05 0)
(0 -3.6346e-05 0)
(0 -3.64508e-05 0)
(0 -3.3833e-05 0)
(0 -3.37339e-05 0)
(0 -3.38216e-05 0)
(0 -1.22593e-05 0)
(0 -1.00431e-05 0)
(0 2.45481e-05 0)
(0 2.39152e-05 0)
(0 -1.19008e-05 0)
(0 -3.29957e-06 0)
(0 -4.88744e-06 0)
(0 -1.69453e-06 0)
(0 2.33148e-05 0)
(0 2.24684e-05 0)
(0 3.00809e-07 0)
(0 1.00666e-06 0)
(0 -1.00604e-05 0)
(0 -3.1426e-05 0)
(0 -3.13045e-05 0)
(0 -2.5495e-06 0)
(0 -4.18048e-06 0)
(0 6.42019e-06 0)
(0 -5.67228e-06 0)
(0 -5.9414e-06 0)
(0 2.17005e-05 0)
(0 9.02265e-06 0)
(0 7.4633e-06 0)
(0 7.50426e-06 0)
(0 -3.66593e-06 0)
(0 -3.44783e-06 0)
(0 -2.97552e-06 0)
(0 -2.71325e-06 0)
(0 3.42945e-07 0)
(0 1.13657e-05 0)
(0 1.33293e-05 0)
(0 2.18693e-05 0)
(0 -5.49158e-06 0)
(0 -7.92835e-06 0)
(0 -3.4738e-05 0)
(0 1.7187e-05 0)
(0 2.50261e-05 0)
(0 2.42611e-05 0)
(0 2.28386e-05 0)
(0 2.32346e-05 0)
(0 -2.88662e-05 0)
(0 -3.3063e-05 0)
(0 -2.78369e-05 0)
(0 -3.1626e-05 0)
(0 -2.68528e-05 0)
(0 -2.36447e-05 0)
(0 -2.31436e-05 0)
(0 -2.61571e-05 0)
(0 -2.27831e-05 0)
(0 -1.99717e-05 0)
(0 -1.96748e-05 0)
(0 7.38557e-06 0)