/*--------------------------------*- C++ -*----------------------------------*\
| =========                 |                                                 |
| \\      /  F ield         | OpenFOAM: The Open Source CFD Toolbox           |
|  \\    /   O peration     | Version:  v2012                                 |
|   \\  /    A nd           | Website:  www.openfoam.com                      |
|    \\/     M anipulation  |                                                 |
\*---------------------------------------------------------------------------*/
FoamFile
{
    version     2.0;
    format      ascii;
    class       surfaceVectorField;
    location    "500";
    object      ddtCorrDdt0(Uf);
}
// * * * * * * * * * * * * * * * * * * * * * * * * * * * * * * * * * * * * * //

dimensions      [0 1 -2 0 0 0 0];


internalField   nonuniform List<vector> 
27882
(
(0.00429475 -0.00543327 2.0694e-19)
(0.00514786 -0.00505915 -7.86141e-20)
(0.00422019 -0.0043195 7.48104e-19)
(0.0289915 -0.0278469 -1.41655e-19)
(0.0332988 -0.0277862 1.14249e-18)
(0.028656 -0.0252975 4.46309e-19)
(-1.82749e-05 1.6135e-06 -2.02842e-19)
(-2.36153e-05 2.54386e-06 -3.0677e-20)
(-2.3207e-05 5.45846e-06 2.11498e-19)
(0.00403319 -0.00677482 -2.65453e-19)
(0.00324845 -0.00575665 -1.13475e-18)
(-0.00570771 0.00449463 1.6093e-19)
(-0.00529908 0.00559264 6.20963e-19)
(-0.00665762 0.0051756 6.05056e-19)
(-1.87479e-05 -3.86352e-06 -4.30197e-20)
(-1.88513e-05 -6.10207e-06 5.03992e-20)
(-2.07669e-05 -6.02994e-06 -8.48875e-20)
(2.93256e-05 -5.48406e-05 -2.74338e-19)
(2.7705e-05 -5.67627e-05 -7.86731e-20)
(3.19971e-05 -6.96976e-05 4.63067e-19)
(-0.0013382 -0.000145483 1.30865e-18)
(-0.00143207 -0.000251493 6.26666e-19)
(-0.00151484 -0.000106347 -3.08483e-19)
(-0.00608342 0.00349116 -5.56328e-19)
(-0.00501591 0.0039631 -1.02386e-18)
(-0.00618921 0.00265024 4.63924e-19)
(-0.00622208 0.00177932 -2.02902e-19)
(-0.00535905 0.00231267 9.56381e-20)
(0.017965 -0.0305137 2.23118e-19)
(0.0194354 -0.0271963 -8.65356e-19)
(0.0143278 -0.0265438 4.2158e-20)
(-0.0477162 -0.162268 -1.06044e-18)
(-0.0383369 -0.192648 9.48436e-19)
(-0.0430258 -0.184125 1.43588e-18)
(-0.0557133 -0.00592497 8.90993e-19)
(-0.0549001 0.00133576 -3.55301e-19)
(-0.0601826 0.000541331 4.1949e-19)
(-1.80195e-05 -0.00082498 6.89732e-19)
(6.65163e-05 -0.000856575 -1.3535e-18)
(5.23873e-05 -0.000749974 6.83886e-19)
(2.78389e-05 -2.69037e-05 2.49549e-19)
(2.90244e-05 -4.07675e-05 -4.5133e-19)
(3.09292e-05 -2.16471e-05 1.28156e-19)
(2.30589e-05 4.03947e-05 -5.00308e-19)
(2.46478e-05 4.24849e-05 2.22332e-19)
(2.66187e-05 4.74605e-05 1.79228e-19)
(-0.0584978 -0.127641 1.2846e-18)
(-0.0480349 -0.131838 1.97688e-18)
(-4.82024e-05 -7.44845e-05 -2.9282e-20)
(-5.12603e-05 -6.9797e-05 -3.99358e-20)
(2.63278e-05 -1.2083e-05 1.31859e-19)
(2.73039e-05 -3.3995e-05 -9.8525e-21)
(0.0020508 0.00254362 6.43372e-20)
(0.00234191 0.00287025 4.16545e-19)
(0.00179963 0.00285746 1.50793e-19)
(0.0745889 -0.0409592 -9.92878e-20)
(0.0755639 -0.0397392 7.70296e-18)
(0.0684365 -0.0378551 -5.24047e-20)
(0.0979744 0.0505078 -6.34075e-18)
(0.0912637 0.0526565 -4.61152e-18)
(0.0912526 0.0479708 3.69504e-18)
(-1.73176e-05 -2.20451e-06 -6.39545e-21)
(-1.69973e-05 -2.08648e-06 1.12778e-20)
(-4.09684e-05 6.6996e-06 4.61653e-20)
(-3.939e-05 8.83456e-06 1.46203e-19)
(-4.38857e-05 1.03069e-05 -1.90874e-19)
(0.102544 0.0503832 1.08639e-17)
(0.0964537 0.0588629 -7.36801e-19)
(0.0963492 -0.038887 2.3764e-18)
(0.0950184 -0.0346055 -4.93163e-18)
(0.0997998 -0.0355269 3.86395e-18)
(-0.00777485 -0.0352611 -1.27186e-19)
(0.00964947 -0.03429 -1.84461e-18)
(-0.00383563 -0.0440064 2.11452e-18)
(-0.040568 -0.0613043 2.64681e-18)
(-0.0351569 -0.0593215 4.95568e-18)
(-0.0373437 -0.0670849 1.13118e-19)
(0.0267493 -0.0209537 -3.74609e-18)
(0.0283235 -0.0227014 1.83801e-18)
(0.0260583 -0.0228989 2.66443e-18)
(0.0501053 -0.0302169 1.29185e-19)
(0.0514572 -0.0279531 -2.161e-18)
(0.0465091 -0.0277162 -1.02083e-19)
(-0.0598445 0.292846 6.40219e-18)
(-0.0864533 0.38749 -9.43853e-18)
(-0.0378777 0.296311 -7.89193e-18)
(-0.0227458 -0.0327306 -3.18234e-18)
(-0.0125546 -0.0125535 -2.33537e-18)
(-0.00124871 -5.68229e-05 -2.89004e-19)
(-0.00118103 -0.000168274 -1.05789e-18)
(0.0990794 0.0419904 -1.02201e-18)
(0.0707512 0.0574281 1.50079e-17)
(0.0592026 0.0618139 -5.88852e-18)
(-0.00478527 0.00671005 -2.7604e-19)
(-0.00436754 0.00779162 3.91673e-19)
(-0.00582989 0.00746691 5.76526e-19)
(0.0455449 -0.0319524 1.21188e-18)
(0.0491343 -0.0352113 -3.87459e-18)
(-0.0523237 -0.0118139 1.80698e-18)
(-0.0550003 -0.012658 1.60008e-18)
(-0.00411437 0.00591118 -1.33537e-19)
(0.0259663 -0.244774 -2.94969e-18)
(0.0465311 -0.241401 -5.65326e-18)
(0.058008 -0.139248 -3.75101e-18)
(0.000426609 -8.23266e-05 1.1422e-21)
(0.000389833 1.09052e-05 -8.65402e-21)
(0.000341154 -7.82642e-05 -2.44735e-20)
(-0.0127514 -0.177543 2.67783e-18)
(-0.0057485 -0.173005 -1.61756e-18)
(-0.00706195 -0.182345 2.18219e-18)
(-0.00706597 -0.000293848 5.00484e-20)
(-0.00824055 -0.000470131 -5.40303e-19)
(-0.00765643 0.000587398 -5.85937e-19)
(-0.0513853 -0.0787861 -3.93263e-19)
(-0.0442394 -0.0971422 5.15689e-19)
(-0.0432116 -0.0894992 1.85762e-18)
(-0.00133541 0.000298514 -1.88244e-20)
(-0.00128518 0.000110955 9.14403e-21)
(-0.00155773 0.000167679 -2.66548e-19)
(6.47893e-05 1.24089e-06 -1.58852e-19)
(6.26309e-05 4.04137e-06 7.26241e-20)
(6.75353e-05 4.56903e-06 8.6904e-21)
(-0.144196 0.395951 1.16471e-17)
(-0.162406 0.463996 -2.51431e-18)
(-0.143066 0.461385 -9.76073e-19)
(-0.00658939 -0.00080333 1.69992e-18)
(-0.00609692 -4.81791e-06 1.53657e-18)
(0.0243032 -0.0269776 6.03108e-19)
(0.0215745 -0.0263623 2.00791e-18)
(0.0227369 -0.0294754 -2.87687e-19)
(-0.124191 0.259378 -9.75109e-19)
(-0.105698 0.253826 -3.33904e-18)
(-0.121572 0.256996 1.41724e-17)
(0.00049513 -0.00637704 4.82817e-19)
(0.00140522 -0.00658282 -1.05084e-18)
(0.000903783 -0.00543729 1.17143e-19)
(0.0159335 -0.0349811 7.52131e-19)
(0.0225009 -0.0359577 7.30091e-19)
(0.12089 -0.0829096 -7.1934e-19)
(0.115237 -0.0775995 -3.62078e-18)
(0.122086 -0.0907892 -5.34886e-18)
(-0.000425564 -0.00738729 -6.21121e-19)
(-0.000384967 -0.00605327 7.11907e-19)
(0.002027 -0.00326349 -3.31653e-19)
(0.00158443 -0.00319833 -7.8259e-19)
(0.00174396 -0.00374527 -1.03017e-19)
(0.0536791 0.0189005 -1.40734e-18)
(0.0533378 0.0220261 -4.45252e-18)
(0.0563802 0.0205596 -4.80001e-18)
(-0.052074 0.00870201 -5.48465e-19)
(-0.0486993 0.00145738 8.71555e-20)
(2.39828e-05 0.00034057 -2.77614e-19)
(-5.07651e-05 0.000355051 -2.62172e-19)
(-3.86025e-05 0.000440516 -1.88959e-19)
(0.00178109 0.00227032 -4.78568e-20)
(0.00223818 0.002217 -3.82206e-19)
(0.01935 -0.0268594 -1.48812e-18)
(0.018056 -0.02889 -9.36074e-19)
(0.0170308 -0.0264615 -2.07318e-18)
(0.000117855 0.000332898 4.02737e-19)
(7.40035e-05 0.000251683 4.38055e-21)
(5.29355e-05 1.72877e-06 2.1457e-20)
(5.97673e-05 -2.88079e-06 -2.17486e-20)
(5.65606e-05 1.64008e-06 7.49543e-20)
(-0.00130711 0.000527212 7.62197e-21)
(-0.00111279 0.000403359 5.86158e-20)
(-0.00642755 0.00637757 2.63843e-18)
(-0.0186773 -0.00510414 -3.45928e-18)
(-0.132514 -0.416081 -3.87802e-18)
(-0.0607905 -0.355399 -1.35095e-18)
(-0.12688 -0.382067 -1.15269e-18)
(4.69106e-05 3.88197e-07 -5.55936e-20)
(5.42396e-05 6.00526e-07 2.33551e-20)
(-0.112189 0.152587 1.37944e-18)
(-0.115231 0.150123 -2.87188e-18)
(-0.119257 0.158253 -2.68324e-19)
(3.55284e-05 -9.62605e-06 1.90672e-19)
(3.12768e-05 -6.21124e-06 6.56034e-20)
(3.61001e-05 -5.83038e-06 1.73596e-19)
(-1.03954e-05 -9.81675e-05 5.36139e-20)
(-1.10263e-05 -9.92744e-05 1.4131e-19)
(3.70456e-08 -0.000108492 -5.07349e-20)
(-0.0424189 -0.0550339 1.26142e-18)
(-0.0462562 -0.0622175 -3.38842e-18)
(-4.06165e-05 -8.87103e-05 -2.16893e-20)
(-4.6218e-05 -8.17759e-05 1.3774e-20)
(0.116568 -0.0671118 -6.4001e-19)
(0.128219 -0.0867493 -2.99177e-20)
(0.107707 -0.0474178 -8.2487e-19)
(0.102072 -0.0456746 -2.15521e-18)
(0.106708 -0.0417782 -5.14512e-18)
(6.44598e-05 0.000109795 -1.12497e-19)
(6.51791e-05 0.000109574 2.52471e-19)
(6.86685e-05 0.000112412 1.14541e-19)
(-0.000591029 0.00711402 7.10009e-20)
(-0.00116866 0.00662095 3.49714e-19)
(-0.00043479 0.00641093 -4.21015e-19)
(0.00160107 0.0569692 2.64416e-19)
(-0.00426673 0.0557703 1.16667e-18)
(-0.000288237 0.0499209 5.51263e-19)
(-0.0774161 0.280165 -1.67994e-18)
(-0.0245182 0.193776 9.59537e-18)
(0.0870023 -0.143277 -2.81599e-18)
(0.101903 -0.127852 2.4107e-18)
(0.109863 -0.156674 1.24534e-18)
(-0.0673065 -0.0781905 -9.10489e-19)
(-0.0573579 -0.0756155 2.19686e-19)
(-0.0649955 -0.0526594 1.07327e-18)
(-0.00716448 0.00301239 -2.75876e-19)
(-0.0548106 -0.0611761 -7.63507e-19)
(-0.0552492 -0.0594305 3.29786e-21)
(0.0348447 0.000474041 3.43873e-18)
(0.0342508 0.00244719 -5.07884e-18)
(0.036515 0.00182464 -1.69866e-18)
(0.00515023 -0.237719 -8.99544e-18)
(-0.00140555 -0.330003 5.31744e-18)
(-0.0683344 -0.101504 1.8678e-19)
(-0.0736169 -0.0794556 -3.31189e-19)
(-0.00611278 0.0259185 6.18325e-19)
(-0.00563267 0.0290203 5.80534e-20)
(-0.00858787 0.0278264 3.23412e-20)
(-0.0021781 -0.00125433 -2.2625e-19)
(-0.0020942 -0.000829223 3.14805e-19)
(-0.00258093 -0.00102771 -3.23076e-19)
(0.0433057 0.0182397 7.84022e-18)
(0.0459194 0.0183023 -9.71184e-18)
(0.0443027 0.0159501 -5.8136e-18)
(0.0023933 -0.000535968 2.61237e-18)
(0.00218981 -0.000442834 -8.15226e-19)
(-0.000890947 0.00806563 -3.93828e-19)
(0.000111811 0.0076527 -2.54603e-19)
(0.00078853 -0.00770146 2.3831e-18)
(0.00643082 0.0167461 1.57021e-18)
(0.0417263 0.0203662 -2.43236e-18)
(0.0407669 0.0174862 1.54311e-17)
(0.126117 0.0502453 1.49762e-18)
(0.145097 0.0567092 -1.82958e-18)
(0.11669 0.0822596 4.35604e-18)
(3.32673e-05 3.70996e-06 9.40367e-20)
(4.17296e-05 3.91835e-06 -2.47315e-20)
(4.48113e-05 9.57403e-06 -6.18333e-20)
(0.023475 0.00223876 -7.93515e-19)
(0.0230031 0.00354892 -1.23607e-19)
(0.0246279 0.00284697 7.53299e-18)
(-0.136349 0.266971 -7.08947e-18)
(-0.119579 0.259148 -8.22528e-18)
(5.77403e-05 0.000110908 -6.31713e-20)
(5.99688e-05 0.000107554 -2.27064e-19)
(4.60925e-05 -4.9217e-06 2.01087e-19)
(4.57394e-05 -4.9749e-07 6.85038e-19)
(4.43941e-05 3.78237e-06 4.41552e-19)
(6.81134e-05 -0.000128774 7.19505e-21)
(4.62478e-05 -0.000124902 -7.73032e-21)
(5.84109e-05 -0.000142058 -1.86769e-20)
(0.0148832 -0.0139264 -3.93887e-20)
(0.0155576 -0.0126261 -6.32912e-18)
(0.0164667 -0.0143379 -1.58533e-19)
(-0.0374184 -0.0430445 1.35059e-18)
(-0.0435625 -0.0714096 4.24751e-19)
(-0.0286948 -0.0646402 -1.02205e-18)
(5.17326e-06 -0.000124671 2.0977e-19)
(2.01931e-05 -0.000121542 -2.57382e-20)
(1.85364e-05 -0.000118181 -6.03451e-20)
(-0.115983 0.327057 -9.15765e-18)
(-0.144033 0.348471 8.52703e-18)
(0.008152 0.00609622 -7.36505e-19)
(0.0078441 0.00707189 2.29511e-21)
(0.00711809 0.00605311 -3.24236e-19)
(-2.11609e-05 -8.65258e-05 -7.25634e-20)
(-1.08891e-05 -9.66035e-05 -2.71395e-22)
(4.69754e-05 -1.54183e-05 -3.31888e-19)
(4.78648e-05 -9.79243e-06 -5.23912e-19)
(-0.111552 0.157795 5.62006e-18)
(-0.0967984 0.144093 1.02012e-17)
(0.078313 -0.0436893 4.52344e-18)
(0.0707121 -0.041998 7.50292e-18)
(0.0251912 -0.0249784 -3.55612e-19)
(0.0264202 -0.0273956 -3.37751e-19)
(0.0998681 0.0547746 -1.20846e-17)
(0.128302 0.0218792 1.60237e-18)
(0.0804461 -0.0524372 -1.4208e-18)
(0.0762712 -0.0411435 -5.5013e-19)
(0.0856774 -0.0495618 4.83295e-19)
(0.06784 -0.0647428 6.27454e-20)
(0.0756521 -0.0585493 -6.76829e-19)
(0.0674128 -0.051308 -7.73861e-20)
(1.6182e-05 1.74087e-05 -3.65722e-19)
(1.81566e-05 2.32606e-05 -4.18739e-19)
(1.71349e-05 1.27609e-05 2.5785e-19)
(-0.181696 -0.45598 9.03215e-18)
(-0.127933 -0.431799 -3.86577e-18)
(-0.00288753 -0.00706816 3.45709e-19)
(-0.00170342 -0.00677585 -7.72789e-20)
(-0.00229758 -0.00584874 5.5468e-19)
(1.95288e-05 1.32315e-06 1.76236e-19)
(1.88278e-05 3.32974e-06 -6.13207e-20)
(1.4408e-05 1.42014e-06 -2.44245e-19)
(0.00922723 0.00603677 5.36776e-20)
(0.00831943 0.00506892 1.78799e-19)
(-0.00543316 -0.120553 4.78617e-20)
(0.0413663 -0.103635 1.47029e-18)
(0.0131214 -0.108683 1.72483e-19)
(0.0142274 -0.0153846 8.9073e-19)
(0.0133974 -0.0139036 2.33843e-18)
(0.00024405 -7.71906e-05 -2.86885e-19)
(0.000258014 -3.8807e-05 -7.43573e-20)
(0.000201014 -5.32751e-05 -3.0931e-19)
(0.09355 -0.0889516 3.43426e-18)
(0.129977 -0.0813721 -2.31871e-18)
(0.116276 -0.0814704 2.35876e-18)
(-0.00167925 -0.00238082 1.68779e-19)
(-0.00220854 -0.00223944 -4.72812e-20)
(-0.00208248 -0.00285489 -2.88689e-20)
(8.87885e-07 7.81301e-06 3.91182e-19)
(-3.29163e-06 6.11964e-06 1.9904e-19)
(-9.42572e-07 1.0743e-05 6.75489e-20)
(0.0714349 -0.127799 4.69516e-19)
(0.0714038 -0.160142 1.93027e-18)
(-0.00219949 -0.00172847 -1.47403e-19)
(-0.00176438 -0.00141036 8.14659e-20)
(1.51109e-05 -0.000114224 1.89912e-19)
(2.49571e-05 -0.000108205 -1.08333e-19)
(1.88929e-05 -0.000111377 -1.70228e-20)
(0.000988967 0.174015 -1.78282e-18)
(-0.014052 0.183229 -7.63808e-18)
(-0.00618737 0.185909 -6.1678e-18)
(0.00247271 -0.00327836 1.96816e-19)
(0.00212709 -0.00279204 2.39456e-20)
(-0.000831793 -6.10342e-05 2.43946e-19)
(-0.000879752 4.63916e-05 1.4511e-19)
(-0.00072301 3.20495e-05 2.2241e-21)
(1.23477e-05 -0.000113391 -1.01404e-18)
(8.92379e-06 -0.000117881 3.55829e-19)
(0.0514498 -0.0333912 3.55038e-19)
(0.0488814 -0.0310591 1.49089e-18)
(0.0488963 -0.035144 1.75807e-18)
(0.0732158 0.0712161 -2.84215e-19)
(0.0509569 0.0721067 -8.59393e-18)
(0.0195578 -0.0247368 7.6278e-19)
(1.83857e-06 -5.98485e-06 -4.6645e-20)
(7.45023e-06 -3.88205e-06 2.21966e-20)
(-1.93811e-06 -1.76428e-06 -1.85192e-19)
(-0.00547613 -0.00376427 -3.45498e-19)
(-0.00591721 -0.00331267 3.0047e-19)
(-0.0061644 -0.00397592 5.60768e-19)
(-0.0605676 0.14582 6.681e-18)
(-0.0653757 0.148899 -4.39695e-18)
(-0.0648251 0.14272 8.40428e-18)
(0.00053668 -8.29939e-05 2.46632e-20)
(0.000466309 -0.000173715 2.23201e-20)
(-9.04901e-06 -1.06254e-05 3.28821e-20)
(-1.25838e-05 -1.08804e-05 1.49593e-19)
(-1.43156e-05 -1.31064e-05 1.54021e-19)
(-0.0914388 0.0119448 2.47294e-18)
(-0.0796232 0.0170273 -1.23003e-19)
(-0.106875 0.13495 1.55326e-18)
(-0.00102149 -0.00172708 1.16259e-19)
(-0.00134787 -0.00200718 3.88379e-20)
(-0.00137053 -0.00156166 1.59088e-19)
(0.0100729 -0.07558 1.28607e-18)
(0.0107329 -0.0808348 1.64139e-18)
(0.0053487 -0.0781845 2.26528e-18)
(0.0354837 -0.00166437 -1.75179e-18)
(0.0334312 -0.000961966 -2.0278e-18)
(-0.00426377 -0.0069156 8.1399e-19)
(-0.00357121 -0.00821232 4.70591e-19)
(0.000251661 -0.177752 -1.29275e-18)
(0.00931965 -0.17878 1.38531e-18)
(0.0155077 -0.159619 -7.55931e-19)
(0.0118426 -0.00744021 -1.00194e-18)
(0.0119879 -0.00648847 7.77123e-19)
(0.0129458 -0.00744507 -5.62035e-19)
(0.0931129 -0.092371 6.24605e-19)
(0.0750036 -0.0614358 -5.72256e-19)
(0.0199066 0.16438 -2.3554e-19)
(0.00776378 0.161199 -1.00669e-17)
(0.0147461 0.00111459 1.80769e-19)
(0.0142712 0.00197597 3.34792e-18)
(0.0154525 0.00184031 -1.62114e-18)
(-0.108851 0.158351 4.0764e-18)
(-0.111741 0.162895 -1.24764e-17)
(0.0464841 -0.0289573 -1.55229e-18)
(0.0433607 -0.0297544 3.74258e-19)
(0.0439043 -0.0263983 8.55069e-19)
(0.0245006 -0.0279102 1.50776e-18)
(0.0196123 -0.0247815 -7.79289e-19)
(0.197944 -0.0311866 -2.48404e-19)
(0.175595 -0.04513 -1.28469e-18)
(0.102032 -0.0954375 -1.6372e-18)
(0.122256 0.0592082 6.7043e-18)
(0.129322 0.0634606 -3.15852e-18)
(0.140154 0.0557535 3.83822e-18)
(-0.0330777 0.106255 6.34461e-18)
(-0.0272875 0.107734 1.32187e-17)
(-0.0302398 0.120744 3.00534e-17)
(6.97466e-05 7.89082e-05 1.16085e-18)
(7.54964e-05 7.82348e-05 6.79408e-22)
(7.07651e-05 7.08451e-05 -2.35542e-20)
(-0.00350586 0.00835402 3.37524e-19)
(-0.00233934 0.00770097 -1.20852e-19)
(-0.0022992 0.0092123 -1.32072e-19)
(-0.014683 -0.175811 1.93681e-18)
(-0.0165007 -0.169857 5.54819e-18)
(0.0781183 0.0486098 3.69444e-19)
(0.0752552 0.0538761 -1.60228e-19)
(0.0240111 0.000629936 3.84055e-18)
(0.0224476 0.00147108 -1.9761e-18)
(0.0545616 -0.0351354 -2.56348e-18)
(0.0537608 -0.0313944 -3.14605e-18)
(0.00140964 0.0296139 4.05115e-19)
(0.00283122 0.0330669 -3.10276e-19)
(0.00482524 0.0297212 4.2443e-19)
(0.0292535 -0.0305138 1.44353e-19)
(0.137456 -0.0426067 5.10157e-18)
(0.118213 -0.0664593 2.19396e-18)
(0.084998 -0.0625171 3.6702e-18)
(4.55744e-05 -6.14279e-05 -2.6125e-21)
(4.78646e-05 -4.42988e-05 -1.07145e-19)
(2.79326e-05 -5.37133e-05 -3.95684e-21)
(-0.117151 0.218758 -1.06696e-18)
(-0.0923378 0.200738 -1.49091e-17)
(-0.108219 0.189133 -2.74523e-18)
(-0.105395 0.160478 -1.74099e-18)
(-0.099519 0.149743 7.4805e-20)
(-0.200366 0.465513 1.562e-18)
(-0.196756 0.481934 -1.56763e-17)
(-0.186156 0.500461 -1.32298e-18)
(0.000625745 0.000160245 9.25422e-20)
(0.00059232 3.37e-05 -1.08062e-19)
(0.000739157 6.65965e-05 4.35891e-20)
(5.92093e-05 -7.12273e-05 -1.13942e-19)
(4.32694e-05 -7.65244e-05 -2.0561e-19)
(0.249113 0.0010581 9.52833e-19)
(0.234023 -0.0109712 -2.10661e-19)
(0.27663 0.00189634 -3.66702e-18)
(0.0977238 0.0641001 6.23431e-18)
(0.0780829 0.0793338 1.22165e-17)
(-0.0303284 -0.217144 -1.11052e-18)
(-0.0227624 -0.235894 9.08405e-18)
(-0.0230495 -0.242145 -1.41772e-17)
(-0.0478611 0.122263 2.83898e-18)
(-0.0476915 0.10718 -2.45896e-17)
(-0.0449295 0.116926 -2.14091e-17)
(-1.3326e-05 1.11092e-06 -4.15167e-19)
(-6.22473e-06 8.11221e-07 -3.07132e-19)
(0.0293833 -0.0247259 9.19595e-19)
(0.0285145 -0.0270505 1.42329e-18)
(0.0315003 -0.0268453 1.53503e-20)
(0.00140437 -0.0640892 -4.25166e-19)
(-0.00333975 -0.0641305 2.42706e-19)
(0.0801976 -0.0385152 -2.0469e-18)
(0.0748525 -0.0364761 -4.63732e-19)
(4.48458e-05 -1.75458e-05 -2.88045e-19)
(4.3046e-05 -2.43017e-05 9.88387e-20)
(5.33806e-05 -5.18409e-06 -1.80423e-19)
(5.48001e-05 0.00010977 1.2727e-19)
(5.56654e-05 0.000109405 1.87511e-19)
(0.0892916 -0.0244298 2.93505e-18)
(0.091757 -0.0215088 3.84364e-18)
(0.0932438 -0.0263644 -3.47726e-19)
(0.118092 0.0258811 1.03073e-18)
(0.122792 0.0264348 3.29278e-18)
(0.000343773 -5.48317e-05 3.3224e-19)
(0.000339081 -3.40829e-05 1.26406e-18)
(-5.25644e-05 -3.07501e-05 -1.65817e-19)
(-4.86318e-05 -4.48955e-05 -6.70618e-20)
(-5.06846e-05 -4.09958e-05 8.25913e-20)
(0.00356643 -0.00203566 2.70439e-19)
(0.00318848 -0.0017325 -2.4635e-19)
(0.00311451 -0.00221724 4.14004e-19)
(0.0514146 0.0171933 4.81146e-18)
(0.0540427 0.0157815 3.31463e-18)
(0.000639016 -0.000201374 -2.21191e-18)
(0.000696887 -0.000240829 -2.23946e-19)
(0.31029 0.0186708 1.57303e-19)
(0.299463 0.0187462 1.02891e-19)
(0.29021 -0.0136471 8.28529e-19)
(6.95016e-05 -3.14158e-05 -4.67117e-19)
(7.51517e-05 -2.0837e-05 3.72739e-19)
(6.91788e-05 -3.08544e-05 -3.8934e-19)
(0.0507425 -0.0244989 -5.63045e-20)
(0.0547853 -0.0268866 4.25983e-19)
(0.0108409 -0.00822092 2.45543e-19)
(0.0112313 -0.00682499 3.42627e-19)
(0.0125928 -0.00822508 -4.63242e-19)
(-0.144674 0.266206 1.18812e-17)
(-0.145784 0.272133 1.3742e-17)
(-0.207016 0.41184 -4.56911e-18)
(-0.21086 0.439793 2.83404e-18)
(-0.180122 0.424014 -2.80471e-18)
(-0.0357349 0.0928608 -1.64952e-17)
(-0.037309 0.106876 -1.09455e-17)
(7.00016e-05 -4.79865e-05 5.84025e-19)
(6.76612e-05 -4.10848e-05 -1.09709e-18)
(-0.0261665 -0.0335577 1.84777e-18)
(-0.023722 -0.0363893 3.82576e-18)
(-0.0282602 -0.0360313 -1.08531e-18)
(0.168364 -0.0748891 -5.47423e-18)
(0.17597 -0.103129 -6.12067e-18)
(0.20069 -0.0866794 -3.38522e-18)
(-5.21939e-05 6.80322e-05 -2.50189e-20)
(-4.86404e-05 6.74031e-05 2.12766e-20)
(-5.00579e-05 7.12435e-05 -3.69886e-20)
(0.000570419 -0.000276176 1.74425e-19)
(0.000588772 -0.000216733 -2.60414e-19)
(0.000528082 -0.000228436 7.56073e-18)
(0.0108575 -0.0860527 6.24221e-19)
(0.0116481 -0.0915102 1.92631e-18)
(0.00597574 -0.0890824 4.96314e-18)
(6.72365e-05 7.87497e-05 1.31381e-18)
(7.75957e-05 9.05142e-05 -1.55754e-19)
(-0.142162 0.255869 3.49045e-18)
(-0.139498 0.253266 -4.50274e-18)
(-2.37241e-05 -9.15612e-06 2.07147e-19)
(-2.83908e-05 -1.2875e-05 -2.60866e-20)
(-2.7222e-05 -9.55329e-06 -1.11557e-19)
(-0.00172652 -0.0018934 -2.60086e-21)
(-0.00144132 -0.00159817 -9.85244e-20)
(-0.00188811 -0.0014352 3.40152e-19)
(0.056109 -0.0378314 -1.39263e-19)
(0.058402 -0.0352464 -7.78317e-19)
(0.0770126 0.102134 7.95404e-19)
(0.0623228 0.0950987 -1.786e-18)
(0.0803096 0.0890808 -6.58146e-19)
(2.29587e-05 3.32163e-05 -8.4536e-20)
(2.51068e-05 3.47432e-05 1.55893e-19)
(2.22752e-05 2.94811e-05 9.41307e-20)
(1.67087e-05 1.03588e-05 -1.16794e-19)
(1.66073e-05 2.07973e-05 2.82025e-19)
(-0.147084 0.238382 1.63161e-17)
(-0.134567 0.243165 -1.23758e-17)
(2.11895e-05 -4.85738e-06 -5.3834e-19)
(2.72814e-06 6.93237e-06 -7.09306e-19)
(3.6438e-05 2.06724e-05 6.89486e-20)
(-0.00455052 0.00931069 3.1053e-19)
(0.0201559 0.0698028 -6.47051e-18)
(0.00269443 0.0768761 3.636e-18)
(-8.98988e-06 -1.51247e-06 2.50925e-19)
(-7.30953e-06 -3.72227e-07 7.36983e-20)
(-9.47531e-06 -1.64677e-06 4.3613e-20)
(0.024835 -0.000619687 -7.41461e-19)
(0.0255937 -0.00180662 -5.37708e-18)
(0.0263166 -4.70292e-05 -3.11318e-18)
(-0.00154184 -0.00240992 -3.12255e-19)
(-0.00218178 -0.00233022 3.51816e-19)
(0.000816746 -0.0016689 6.78163e-19)
(0.000523657 -0.00153 -4.81011e-19)
(0.000735881 -0.00136055 -3.97531e-19)
(0.00168523 0.00152151 9.68938e-20)
(0.00166069 0.0017785 -3.54462e-20)
(0.00194617 0.00170835 -9.03123e-20)
(9.57172e-05 -0.000131053 -1.51537e-20)
(7.75136e-05 -0.000105371 -1.53895e-20)
(1.47105e-05 -5.2899e-06 -8.00044e-20)
(1.2449e-05 -1.00438e-06 -1.41261e-19)
(1.54495e-05 -5.44859e-06 -8.20776e-21)
(0.0233517 -0.00108193 5.49981e-18)
(-1.9192e-05 -8.25029e-06 -5.4728e-20)
(-1.7143e-05 -5.26165e-06 -1.74087e-20)
(0.0185381 -0.131799 4.62275e-19)
(0.0119315 -0.134374 6.63075e-19)
(0.0235539 -0.117067 8.08127e-19)
(0.151561 -0.042972 -4.9729e-19)
(0.129728 -0.0432185 2.89592e-18)
(0.000445911 -0.000527437 7.00198e-20)
(0.00036148 -0.000427531 8.46984e-20)
(0.00029423 -0.000502341 7.05254e-20)
(0.0116563 -0.00847734 -3.51397e-18)
(0.0109168 -0.00752562 -1.82158e-18)
(0.0583349 -0.0405159 3.64708e-18)
(0.0542331 -0.0409308 5.17162e-19)
(0.0860213 0.114568 1.17665e-18)
(0.0650961 0.119096 3.18091e-19)
(0.0189374 0.0591738 6.92612e-19)
(0.0242545 0.0354568 -7.97703e-19)
(0.0238723 0.0560455 -1.92688e-19)
(0.00872827 0.0569047 4.92551e-20)
(0.00533076 0.0641548 4.29784e-19)
(0.0347039 0.0252786 -1.29137e-17)
(0.0369252 0.0250558 -1.78725e-17)
(0.0358473 0.02749 -3.77082e-18)
(0.18828 -0.0250698 2.35788e-18)
(0.157673 -0.0211158 -5.15965e-18)
(4.46008e-05 -1.43547e-05 -1.48868e-19)
(1.26265e-05 -3.16504e-05 -3.34451e-19)
(0.0978074 -0.0434855 1.03981e-18)
(0.0934879 -0.0423711 -1.64037e-18)
(0.0151877 0.000183343 -2.4409e-18)
(0.0141628 0.000393754 -3.05481e-18)
(0.0841172 -0.0388401 -1.13758e-18)
(0.0851094 -0.0391982 -2.19919e-19)
(-5.79365e-06 -7.99501e-06 -1.24709e-19)
(-5.26696e-06 -1.08576e-05 -1.05845e-19)
(4.89125e-05 -4.53099e-05 1.07562e-20)
(4.59234e-05 -4.92636e-05 -1.31483e-20)
(4.83461e-05 -5.33825e-05 -2.63579e-21)
(0.000516912 -0.000649597 4.15054e-20)
(0.000597708 -0.000518815 9.33858e-20)
(-0.0446305 0.0456398 4.02461e-19)
(-0.0518311 0.0446751 1.4114e-18)
(-0.0476054 0.0526078 -2.16998e-19)
(-0.0938617 0.244962 -1.56024e-17)
(-0.0832089 0.236082 1.90093e-18)
(-0.0944911 0.244686 6.68676e-18)
(0.0121445 -0.0977546 -1.61566e-18)
(0.0138951 -0.103994 -2.31819e-18)
(0.00727349 -0.101368 -3.04993e-18)
(-0.000419392 -4.27391e-05 3.70948e-19)
(-0.000409102 1.93776e-05 5.09221e-20)
(-0.000362028 -3.82487e-05 5.18001e-19)
(1.65519e-05 2.82938e-06 -5.61752e-20)
(1.67781e-05 1.1419e-05 -4.0904e-19)
(1.49402e-05 -5.0656e-06 1.92317e-19)
(-0.040561 0.0397468 8.96319e-19)
(-0.0373851 0.0461274 4.92447e-19)
(0.00921738 -0.0706208 -2.25853e-19)
(0.00821155 -0.0652602 7.0893e-19)
(0.00392667 -0.0672473 2.30994e-18)
(-2.32202e-05 -3.5575e-06 1.6056e-19)
(-3.21591e-05 -6.69008e-06 -1.492e-19)
(-2.89674e-05 -4.65099e-06 9.10741e-20)
(0.271003 0.0120515 -1.0392e-19)
(0.216098 -0.0147157 9.9887e-19)
(0.0533689 -0.0789502 -2.83729e-19)
(0.05791 -0.0786891 -4.97835e-19)
(0.0549092 -0.0741131 -1.93522e-19)
(5.51204e-05 -3.25537e-05 6.42295e-24)
(5.47143e-05 -3.85186e-05 -3.01628e-21)
(5.48624e-05 -3.50583e-05 -8.7139e-21)
(-6.88494e-06 -6.0054e-05 1.21345e-19)
(-7.5953e-06 -6.01943e-05 1.89935e-19)
(-1.0192e-05 -4.88137e-05 6.11901e-19)
(0.00154631 0.000632481 -2.05034e-20)
(0.00149028 0.000363975 -2.92741e-19)
(0.00124683 0.000558042 2.73428e-19)
(5.70591e-06 -0.000136039 2.49061e-21)
(8.98086e-06 -0.000120558 2.97172e-21)
(-0.05219 0.12785 1.24729e-17)
(-0.0478217 0.139952 3.10103e-17)
(-0.000987042 -0.000294631 -6.09687e-19)
(-0.00100962 -0.000443284 -7.64654e-20)
(-0.000823035 -0.000370208 -2.73937e-19)
(0.0382666 -0.0171387 -4.37457e-18)
(0.0400589 -0.0100891 -9.04946e-21)
(0.041034 -0.0183644 7.36316e-20)
(0.000610388 -0.000797754 -1.65744e-19)
(0.00041321 -0.000759568 -1.44598e-19)
(-2.57321e-05 -3.92389e-06 6.08731e-20)
(-2.70007e-05 -5.81804e-06 -3.66739e-20)
(-2.23699e-05 -3.22938e-06 -7.69122e-20)
(0.0293597 -0.113273 -2.58961e-18)
(0.027294 -0.107249 6.50067e-19)
(0.0336507 -0.107703 1.51583e-18)
(0.000514161 0.000225115 2.31534e-19)
(0.000411117 0.000272471 1.2949e-19)
(0.000397701 0.000154811 -2.21309e-19)
(0.109712 -0.0526142 2.35542e-18)
(0.115873 -0.0497647 -2.04873e-18)
(2.00676e-05 -1.59361e-05 2.26524e-19)
(2.24599e-05 -1.44205e-05 -1.83288e-19)
(1.976e-05 -1.21999e-05 -4.94772e-19)
(0.00586538 -0.436962 6.53357e-18)
(0.000645289 -0.365121 1.52197e-17)
(-0.000814439 -0.00635233 8.70476e-19)
(-0.000878082 -0.00762515 -5.11735e-19)
(2.94648e-05 -0.000104477 4.99497e-20)
(3.2871e-05 -0.000102801 -7.77067e-19)
(5.63744e-05 -3.32864e-05 -3.95322e-21)
(5.67705e-05 -2.8959e-05 -2.33532e-20)
(-0.0237281 -0.0312041 -1.70895e-18)
(-0.0282189 -0.0305183 -1.82556e-18)
(0.016012 -0.0608543 9.81869e-19)
(-0.00293609 -0.0574734 7.7448e-19)
(0.025026 -0.0511348 6.4392e-19)
(0.0380562 -0.0696149 -1.12088e-18)
(0.00121091 -0.0551788 1.61602e-18)
(3.53932e-05 -9.92911e-05 2.81439e-19)
(2.4432e-05 -0.000103671 3.17983e-19)
(0.0143546 -0.0728651 -7.76152e-19)
(8.58364e-05 7.56132e-05 -1.77808e-19)
(8.02809e-05 8.46994e-05 -5.85183e-19)
(-0.000263022 -0.000158404 -1.57749e-19)
(-0.000283561 -0.000134104 1.76411e-19)
(-0.000310442 -0.000160303 1.12524e-19)
(0.11761 -0.114498 3.62515e-18)
(0.12897 -0.0913054 5.13653e-19)
(0.107823 -0.0984037 4.12406e-18)
(0.116827 -0.0348131 2.5673e-18)
(0.132608 -0.0461661 -2.16825e-18)
(0.127948 -0.0491083 -5.23048e-18)
(-0.000241572 -0.000174466 1.90118e-19)
(-0.000222835 -0.000152604 -1.0576e-19)
(6.50401e-05 -4.18855e-05 -1.52729e-19)
(6.9118e-05 -3.40752e-05 1.75117e-20)
(8.6751e-05 -3.42696e-05 5.07492e-19)
(0.00157005 0.00177537 -8.67847e-20)
(0.00201781 0.00211242 -7.44725e-20)
(0.00147446 0.00239175 1.68768e-20)
(0.00169574 0.00130517 2.39968e-19)
(0.00146838 0.00139038 9.12693e-20)
(-0.00218956 -0.00414671 -1.29332e-19)
(-0.00192741 -0.00386052 1.44239e-18)
(-0.00176578 -0.00424806 4.91247e-19)
(-2.1517e-05 -1.12299e-05 -6.26029e-20)
(-1.94831e-05 -1.08278e-05 1.60961e-20)
(0.00111239 -0.00179109 1.93861e-19)
(0.000848495 -0.00204463 2.36071e-19)
(-8.86328e-05 -0.000798186 -9.72917e-19)
(-7.83321e-05 -0.000909045 1.04941e-18)
(-7.23348e-06 -5.86584e-05 -2.38561e-19)
(-3.60471e-06 -6.83331e-05 -2.3928e-19)
(4.7584e-06 -3.59716e-06 -3.46245e-20)
(1.3751e-06 -2.13556e-06 -1.60622e-19)
(4.79554e-06 -3.73685e-06 5.01216e-21)
(2.05365e-05 -3.84125e-05 -1.80666e-19)
(2.02834e-05 -2.35371e-05 -8.25924e-20)
(2.15766e-05 -3.46943e-05 8.44752e-19)
(-0.100599 0.160591 -7.62476e-18)
(-0.0952837 0.153107 8.23026e-18)
(-0.0955182 0.160329 8.90314e-18)
(2.98066e-05 -5.90879e-05 -1.9509e-19)
(7.56177e-05 -4.37574e-05 -1.97576e-19)
(5.16939e-05 -6.213e-05 1.14282e-20)
(-4.79616e-05 -5.69996e-05 2.49542e-20)
(-4.43188e-05 -6.028e-05 2.70391e-21)
(-4.74727e-05 -5.44038e-05 2.84418e-20)
(0.0125189 -0.0637114 -5.87736e-19)
(0.00823324 -0.0608147 6.05954e-19)
(4.25566e-05 -2.62794e-05 1.27878e-19)
(3.98587e-05 -3.62929e-05 -1.09883e-19)
(4.45785e-05 -2.51949e-05 4.55257e-19)
(4.34135e-05 -2.63934e-05 -1.60306e-19)
(-1.75385e-05 -2.83264e-06 3.46443e-19)
(-1.04779e-05 -9.10331e-07 1.03445e-19)
(0.00028264 -0.000153712 2.05851e-18)
(0.000308988 -0.000166624 1.13864e-18)
(0.000283025 -0.000188336 -8.32625e-20)
(-8.48198e-05 0.000290605 -3.66305e-20)
(-0.000124618 0.000372628 4.55358e-20)
(-4.70858e-05 -6.66489e-08 4.86351e-19)
(-4.37919e-05 1.12113e-06 3.71422e-20)
(-4.79968e-05 2.8796e-06 -9.76208e-20)
(-3.06803e-05 3.56257e-06 -2.36927e-20)
(-2.45235e-05 2.26624e-06 -1.48636e-19)
(-3.11247e-05 5.89472e-06 1.22329e-19)
(0.0023533 0.000831165 -6.58292e-20)
(0.00282924 0.000966743 3.94041e-19)
(0.00240859 0.00132532 1.66042e-19)
(0.0140087 0.0844534 7.57328e-19)
(0.0145788 0.0597139 1.59017e-18)
(3.38765e-05 5.28671e-07 1.8344e-19)
(4.07283e-05 2.65858e-06 -5.24104e-20)
(-4.29817e-05 4.884e-06 1.27911e-19)
(-3.80433e-05 3.8647e-06 7.18215e-20)
(0.0183729 0.191018 8.15426e-19)
(0.0105861 0.188959 -1.86694e-18)
(-0.000380717 0.200775 5.98627e-18)
(0.00115637 -0.00145186 -1.55252e-18)
(0.00123061 -0.00127615 5.331e-18)
(0.00105895 -0.00134297 -1.05408e-18)
(-2.57016e-05 9.97713e-06 5.12678e-20)
(-2.20436e-05 1.30211e-05 1.00523e-19)
(-2.33119e-05 8.3375e-06 7.11524e-20)
(-2.82595e-05 7.30203e-06 9.13652e-20)
(-2.90115e-05 1.16305e-05 -2.90584e-20)
(0.0454729 0.0541796 4.19855e-18)
(0.029691 0.0615767 -2.96465e-18)
(0.0285376 0.0455579 -4.56996e-18)
(-0.0232385 -0.0277829 -7.8185e-19)
(-0.016518 -0.0279532 -1.87076e-19)
(-0.0189069 -0.0224298 -4.38814e-19)
(-5.48997e-05 -1.84287e-05 -3.05117e-20)
(-5.45558e-05 -2.32085e-05 -3.75659e-20)
(0.00899893 -0.0104972 -1.52453e-19)
(0.00776012 -0.00892712 1.85306e-19)
(0.00680378 -0.0105387 2.25052e-19)
(0.0808138 -0.0434967 -2.80165e-19)
(0.0834331 -0.0452698 -6.13915e-19)
(-0.00156857 0.000678033 -4.89746e-20)
(-0.00124975 0.000751207 -6.46511e-19)
(-0.0468065 0.0142688 1.6155e-19)
(-0.0553342 0.0155683 -1.1877e-19)
(2.37996e-05 -5.06762e-05 -9.17309e-19)
(2.16974e-05 -4.38108e-05 -6.58756e-19)
(0.054596 -0.075667 -1.3342e-18)
(0.0452957 -0.0739183 2.91701e-18)
(0.0612068 -0.0829498 -1.13726e-18)
(0.0158684 -0.0828473 -2.35689e-18)
(0.00144067 -0.0464887 3.53376e-19)
(0.00490034 -0.0470181 -2.51222e-19)
(0.00175538 -0.0495384 -2.22094e-19)
(0.0261774 -0.0192273 -3.12589e-18)
(0.0282032 -0.0194817 -3.35254e-18)