/*--------------------------------*- C++ -*----------------------------------*\
| =========                 |                                                 |
| \\      /  F ield         | OpenFOAM: The Open Source CFD Toolbox           |
|  \\    /   O peration     | Version:  v2012                                 |
|   \\  /    A nd           | Website:  www.openfoam.com                      |
|    \\/     M anipulation  |                                                 |
\*---------------------------------------------------------------------------*/
FoamFile
{
    version     2.0;
    format      ascii;
    class       volVectorField;
    location    "350";
    object      ddtCorrDdt0(U);
}
// * * * * * * * * * * * * * * * * * * * * * * * * * * * * * * * * * * * * * //

dimensions      [0 1 -2 0 0 0 0];


internalField   nonuniform List<vector> 
18355
(
(-0.00276005 0.00167636 -1.83764e-18)
(0.044156 -0.00269339 -2.53141e-19)
(-0.0005858 -0.000526697 3.70301e-18)
(-8.43622e-05 0.000251947 -2.09929e-19)
(0.00088239 0.00111566 1.5527e-19)
(-0.0132635 0.00869434 -2.45401e-18)
(-0.000201989 5.1239e-05 -8.37894e-19)
(-0.00294336 0.000655589 1.01305e-17)
(0.000220384 -0.00195609 1.24513e-17)
(0.0179654 -0.00576699 2.25982e-17)
(0.000169737 0.000183412 -2.72815e-19)
(-0.0246856 0.00563694 -1.73465e-17)
(-0.00105394 -0.00203958 -1.67286e-18)
(-0.000104735 -0.000652275 -3.17603e-18)
(-0.00099298 0.000699149 4.7366e-19)
(-0.00178979 -0.000593091 1.41207e-18)
(0.00929204 -0.000387088 5.03395e-17)
(-0.000267826 0.000320539 3.75571e-19)
(-0.000993684 -0.000342176 -2.98826e-18)
(-0.0164465 -0.012165 -1.47534e-17)
(-0.00211056 -0.00108646 2.11189e-18)
(-0.000821469 -0.00131859 4.01739e-19)
(-0.03451 -0.0210135 7.44325e-18)
(0.000914917 0.00106917 -1.11839e-19)
(0.00273419 0.00254748 -2.88779e-19)
(-0.000106353 -0.000724503 -3.62569e-18)
(8.51217e-06 -0.000458089 8.47674e-18)
(-8.10003e-05 -0.00192577 1.50039e-17)
(-0.0318272 -0.153176 1.43498e-17)
(-0.000627165 -0.000898309 9.77441e-18)
(0.000791958 0.000672014 1.12514e-18)
(0.0012348 0.00170958 8.43399e-19)
(-0.000260083 0.000314296 5.6464e-19)
(-0.000127355 1.40517e-05 -3.33572e-19)
(-0.00393055 0.00275207 -2.41814e-18)
(-0.00276928 0.00173415 4.73108e-19)
(0.000132543 -0.00179966 -1.09785e-17)
(-0.010296 0.00325433 1.92684e-17)
(-0.000124267 -0.00191056 -2.52079e-18)
(0.00016772 0.000180438 3.73598e-19)
(-0.000115894 -0.000665782 2.841e-18)
(-0.00680493 -0.00420553 -8.45575e-18)
(-0.000609867 -0.000536942 -4.83371e-18)
(0.00640722 -0.00514517 5.35274e-18)
(0.00010126 1.69831e-05 1.02643e-19)
(-0.0105234 0.0036376 -5.09368e-17)
(-0.00237841 0.00212141 -4.35767e-17)
(-0.000582492 -0.00195169 3.8525e-18)
(-0.00255985 0.00204416 3.71494e-18)
(-0.000315371 0.000266761 1.25415e-18)
(8.65673e-05 0.00011495 -8.14953e-19)
(-0.000626093 0.000294195 -3.49471e-19)
(-1.74904e-06 -0.000104164 3.64841e-18)
(0.0150284 -0.0148924 5.62871e-18)
(-0.00020337 -0.000324943 -2.15024e-18)
(-0.000142574 -1.18193e-05 1.04874e-18)
(-0.00446435 0.0425895 5.69701e-18)
(-0.00103136 0.000700329 2.45877e-19)
(-0.000698137 -0.0116056 3.07595e-18)
(-0.00316643 0.00716703 -8.99138e-17)
(-0.000316889 0.000233301 -5.39934e-19)
(-0.00771748 0.00291774 -1.00722e-17)
(-0.000229002 0.000379469 -1.09524e-19)
(-0.00511686 -0.000848086 -1.30316e-19)
(-0.0252138 0.00650188 1.09147e-17)
(-0.00267911 0.00165067 4.72538e-18)
(-0.0209738 -0.127778 -1.30942e-17)
(-0.000993254 -0.00336445 -1.50016e-17)
(1.26259e-05 -0.000513467 -3.36268e-18)
(-0.000844162 -0.00131245 1.56142e-18)
(-0.00260098 0.00303024 -5.15377e-19)
(-6.86824e-06 -4.74144e-05 -1.91927e-18)
(-0.00347523 0.00752665 2.64483e-17)
(-0.000332937 -7.72153e-06 -3.41058e-19)
(-0.00276619 0.000743957 1.69339e-17)
(-0.000203873 4.43192e-05 2.44757e-18)
(0.0385798 -0.0177863 -8.06341e-19)
(0.000968919 0.00171672 -3.04853e-18)
(0.00274787 0.0044833 -5.37266e-18)
(-0.000549721 0.000260837 1.79922e-19)
(-0.000202813 6.00383e-05 -1.12168e-18)
(-0.0169289 0.0025577 2.68895e-18)
(-0.00205998 -0.00105016 -3.4041e-20)
(-0.00526442 0.000490795 -3.84305e-19)
(-0.00010461 -0.000721919 1.45913e-18)
(-0.00123647 -0.00181491 3.8099e-18)
(0.0598629 -0.0424365 -5.05703e-18)
(-0.0212743 -0.0111689 3.39254e-18)
(-0.0263902 -0.157099 -1.0759e-17)
(0.00251521 -0.0219496 1.019e-17)
(-0.0269694 -0.0188318 -3.27361e-17)
(9.63059e-05 1.63149e-05 -1.30161e-19)
(-0.000172574 -0.000490995 1.54065e-18)
(0.000118374 0.000115108 5.23676e-19)
(0.00746213 -0.117489 -4.20679e-18)
(-0.0384114 -0.0194072 -7.25172e-18)
(-0.00035317 0.000671285 -1.16458e-19)
(-0.00031328 0.00288637 6.28311e-18)
(0.0165605 -0.0136993 -1.76773e-17)
(0.00530101 -0.00112166 7.1919e-18)
(-0.00669047 -0.167478 1.3356e-17)
(0.00688071 -0.000869357 -1.10698e-16)
(-0.00416646 0.00169717 5.06532e-19)
(-0.00544527 -0.027332 2.23666e-17)
(0.0013311 0.00112437 6.19972e-18)
(-0.01159 -0.00310535 2.47239e-17)
(-0.0172766 0.00300951 3.84513e-17)
(-0.0102259 0.000279215 -1.64349e-17)
(-0.00228948 0.00217399 1.12425e-17)
(0.0024323 -0.00949224 2.66011e-17)
(-0.000622227 -0.000744347 2.77393e-19)
(-0.000395786 -0.00181343 1.37919e-17)
(-8.51078e-05 -0.000778522 -1.33679e-18)
(-0.00036893 -0.00184058 -2.19957e-17)
(0.0274062 -0.00777663 1.18473e-17)
(-0.000134197 9.37625e-06 -2.7296e-18)
(3.55278e-06 -0.0116771 -5.54023e-17)
(0.0363715 -0.0169685 9.57803e-18)
(-0.000500284 -0.011278 6.14564e-17)
(-0.00429186 0.00157028 -1.70534e-18)
(0.0154195 -0.0073399 -1.40785e-17)
(-0.00192611 0.0222239 -6.06846e-19)
(0.00104695 0.00166441 -1.41151e-18)
(-0.0027259 0.00311905 1.41264e-17)
(-0.000355563 0.000668093 4.38711e-19)
(-0.0106235 1.66091e-05 8.69422e-18)
(-0.000607394 0.000320325 8.32489e-20)
(-7.80886e-06 -0.000151711 3.19334e-18)
(-0.0315638 0.00956672 -4.43883e-18)
(0.000113163 0.000107481 -2.40011e-19)
(7.90666e-05 0.000123156 8.67039e-19)
(0.00565002 -0.0341841 5.39649e-18)
(-0.00457525 0.00265962 3.32565e-18)
(-0.000171971 0.00286728 -7.55286e-18)
(-0.00400593 -0.00304059 -2.73059e-18)
(-8.89303e-06 -0.000174879 -2.45756e-18)
(-0.000781476 0.0006025 1.33072e-19)
(0.000178466 0.000191239 4.06971e-19)
(-0.000348161 -0.000614805 2.87802e-18)
(-0.00556244 0.00386612 -3.28285e-17)
(-0.0056991 -0.169095 -2.48386e-18)
(0.00391453 -0.172831 -6.84524e-18)
(-0.00126775 -0.000398972 -3.30583e-18)
(-0.00059467 -0.000742603 -1.65989e-19)
(-0.00022706 -0.0094266 -5.4615e-17)
(-0.000750315 -0.00136441 3.56442e-18)
(2.05187e-05 -0.00236341 2.37335e-17)
(0.0559794 -0.0723074 1.06777e-18)
(-0.000400814 0.00181639 -4.3077e-19)
(0.0395097 -0.088232 -2.49396e-18)
(0.000430873 0.00101106 -1.20321e-18)
(-0.000787505 -0.00134876 -2.52865e-18)
(-0.0038998 0.00262338 2.65367e-17)
(-0.000564708 -0.0115067 -1.75464e-17)
(-0.00929511 0.0207258 -9.2883e-19)
(-4.11485e-06 -4.88345e-05 -1.70938e-18)
(0.00194389 -0.031512 2.75534e-17)
(-0.000474724 -0.0108311 -8.07388e-17)
(-4.94744e-06 -4.97581e-05 1.70984e-19)
(-0.00808724 0.00166441 -3.77434e-18)
(-0.00273234 -8.94187e-05 2.07766e-19)
(-0.00194717 0.00107408 3.06531e-18)
(-0.00199165 -0.00248869 -9.8897e-18)
(-0.00012028 0.00306604 3.6915e-18)
(-0.0369739 0.0393803 1.29597e-17)
(-0.00404097 -0.0125088 6.43688e-18)
(-0.0118999 -0.000466525 -6.43445e-17)
(-0.0028034 0.00207345 -2.60532e-17)
(0.00548131 -0.00619147 -1.04863e-17)
(-0.000323228 0.00017532 1.04826e-19)
(0.0420756 -0.102925 -1.25109e-17)
(-0.0416321 -0.0136287 1.98774e-17)
(0.000132497 0.000142782 3.5865e-20)
(0.000145995 0.00016069 -7.51909e-19)
(-0.00178314 -0.000536521 2.24701e-18)
(0.0550914 -0.00192117 1.07964e-17)
(0.00359139 0.0200376 8.36826e-19)
(-0.000182585 -0.000414178 2.16785e-19)
(-0.0201373 0.0107322 7.36549e-17)
(0.000133325 -0.0037904 8.16914e-17)
(0.00144219 -0.00667548 1.19398e-17)
(0.00504694 -0.00692475 7.46753e-18)
(-0.00134694 0.00278795 9.84595e-19)
(-0.000181572 -2.49489e-05 4.48919e-19)
(-0.0431287 0.0219919 -5.2448e-18)
(0.0564334 -0.0027713 7.13162e-18)
(-0.00873471 -0.0236613 4.13661e-18)
(-0.0207635 -0.0130671 1.33904e-17)
(-8.18334e-05 -0.00198417 -1.15092e-17)
(0.00986566 -0.000308794 -1.29577e-16)
(-0.00241948 0.0417018 -1.76024e-18)
(-0.00065313 -0.00052141 1.47682e-19)
(8.43893e-06 0.00305723 -5.18366e-18)
(0.0165542 -0.026832 -7.9609e-18)
(-0.00424332 -0.00366478 -2.97872e-17)
(-0.000947585 -0.00122882 -1.31227e-19)
(0.016726 -0.0142859 2.6932e-18)
(-0.00123204 0.00282453 -6.40824e-20)
(-0.00334726 0.0038392 -1.91708e-17)
(0.000132234 0.000152509 5.23322e-19)
(-0.000513019 0.00137231 -1.0537e-18)
(-0.00104434 -0.00182028 -5.55827e-18)
(-0.000943437 -0.00328543 -2.18037e-17)
(-0.0134039 -0.0222149 -1.23691e-18)
(-0.0492362 0.0019457 -7.26231e-17)
(-0.00298479 -0.000502292 -9.896e-19)
(0.000160094 -0.010621 7.14245e-17)
(-0.00274242 0.0108872 9.34958e-17)
(-0.0188272 0.0157986 -3.48833e-19)
(-0.00323906 0.00406347 1.53357e-18)
(-0.000823278 0.000544661 -9.12796e-21)
(0.000389721 0.00096361 1.72508e-18)
(-0.024176 -0.0199455 -1.06668e-17)
(-0.00122772 -0.000410473 5.04345e-18)
(-0.00031868 0.000140678 2.22081e-19)
(-0.0164963 0.00298132 8.13527e-18)
(-0.077872 0.0395602 1.2636e-17)
(-0.0180239 -0.019794 -1.55182e-18)
(-7.2362e-05 -0.000786928 7.519e-19)
(-0.000390305 0.00175604 -1.43101e-19)
(-0.0128538 0.00982625 -3.31223e-17)
(-0.000382256 -0.000591114 2.95638e-18)
(-0.005122 0.000353073 -4.77338e-18)
(-0.000761209 0.000596801 -3.17015e-20)
(-0.00467969 -0.000374944 2.25989e-17)
(-0.000891013 -0.00104965 1.23842e-18)
(0.00457418 0.00471979 7.92955e-19)
(0.0635747 -0.00774245 8.28035e-19)
(-5.233e-05 -0.00757128 7.31791e-17)
(-0.000820783 0.000509688 -9.38895e-21)
(-5.13741e-06 -0.000132282 -2.44526e-18)
(0.00274794 0.00417889 -1.82235e-19)
(-0.00255749 0.000473193 -1.12771e-19)
(0.00368427 0.00475211 -1.92882e-17)
(-0.0015653 0.000272178 1.31624e-19)
(-0.000119414 -0.000676189 4.33127e-18)
(-0.000171747 -0.000446213 -6.4721e-20)
(-0.011512 0.00102176 5.98793e-18)
(-0.0533911 -0.0154748 -1.88435e-17)
(-0.0330858 0.000667032 1.75428e-16)
(-0.00221043 0.00217949 1.50772e-17)
(0.00642403 -0.00436358 -1.83586e-17)
(0.000893462 0.000683754 -4.8826e-18)
(-0.000337505 9.35917e-05 1.24578e-18)
(-0.000902229 -0.00114783 -9.05176e-20)
(0.0644312 -0.00526596 2.09699e-18)
(-0.0423549 0.0206993 1.27296e-17)
(7.20636e-05 -0.0097857 2.25237e-17)
(-0.00819392 0.020861 2.45474e-18)
(-0.00269126 -1.37358e-05 1.09768e-18)
(-0.000551638 0.00135709 -1.31295e-18)
(-0.00162713 -0.0145325 1.87523e-17)
(-0.00126598 0.0030069 -5.80246e-18)
(-0.0180868 0.0166253 -3.96396e-18)
(-0.000928794 -0.000921648 -1.00288e-17)
(0.00802535 0.000979195 -1.01901e-16)
(-0.0927979 0.0318619 2.89145e-18)
(-0.00765922 0.00133397 1.6678e-17)
(-0.000751109 -0.000717656 -3.02855e-19)
(-0.000128223 -4.09413e-06 -1.21562e-18)
(-0.0026651 0.00159316 -5.58898e-18)
(-0.00232067 0.00319944 1.43365e-17)
(-0.0036999 -0.00390215 2.91597e-18)
(-0.00470725 0.00244146 -2.2173e-18)
(-0.00020534 -8.13239e-05 -1.55299e-18)
(-0.000297716 0.000117967 6.80815e-19)
(-2.79633e-06 -0.000140077 4.99847e-19)
(0.00675607 -0.00625043 1.90631e-17)
(-0.00809373 0.000148637 -9.38207e-18)
(0.000369605 -0.00742077 -7.91476e-17)
(-0.00135388 -0.000861981 -5.16171e-18)
(-0.0300202 -0.122615 -9.73913e-18)
(-0.021033 -0.0146611 -2.35709e-17)
(-0.0109091 -0.00269799 -1.56603e-17)
(-0.000824531 0.00101077 -1.23404e-18)
(0.0159676 -0.0107487 2.62219e-17)
(-0.000566495 0.00029996 -6.87892e-20)
(-0.000253291 -0.000118281 1.01679e-17)
(-0.0132327 -0.0160988 -4.92612e-18)
(-0.0001395 2.00123e-06 -5.93826e-19)
(-0.000208172 3.59005e-05 -1.91067e-18)
(-0.0098897 -0.00377687 -6.29157e-18)
(-0.000406477 -0.000346394 -6.80738e-18)
(0.0015048 -0.165816 -6.43893e-19)
(-0.00115741 0.00305402 7.83775e-18)
(-0.000301666 -0.00214251 -1.79689e-17)
(-0.000138455 1.11503e-06 1.46722e-18)
(-0.0028823 0.00210247 2.91196e-17)
(-0.0157137 0.006292 2.06855e-17)
(0.00114755 0.0017498 7.87299e-19)
(-8.90762e-05 0.000237347 -8.79736e-21)
(7.08885e-06 -0.000377248 5.34814e-18)
(-0.0196633 -0.00109755 -2.51206e-18)
(0.0254845 -0.00856322 -2.22363e-17)
(-4.78948e-06 -0.000147985 3.16177e-18)
(-1.21028e-06 -3.95799e-06 1.09146e-18)
(-0.0779395 0.0344325 -1.17103e-17)
(-0.00416713 0.00196218 -4.19403e-18)
(-0.00751529 0.0233941 2.75299e-18)
(-0.00425122 -0.00898721 -6.02654e-18)
(-0.000245951 -0.000101574 -7.03082e-18)
(-0.00239005 0.00304917 -1.44529e-17)
(-0.000679205 -0.00157416 -5.74535e-18)
(-2.2728e-06 -7.45488e-06 -1.1346e-18)
(-0.00392891 -0.00877098 -4.7226e-17)
(-0.0390192 0.0390495 6.83183e-18)
(-0.0441187 0.076472 7.29912e-18)
(-0.0207983 -0.00146217 2.03075e-17)
(0.000110401 9.74279e-05 -5.57141e-20)
(0.00141351 -0.00686577 -1.67197e-17)
(0.00132043 0.000982949 2.7364e-20)
(-0.000967065 -0.00040859 3.52622e-18)
(-0.0204195 0.0199716 -2.60775e-17)
(-0.000552159 -0.00062325 1.83887e-18)
(0.00724027 -0.00544236 -7.57689e-18)
(-0.00658017 -0.00432302 1.15342e-17)
(-0.00018553 -0.000449693 6.19684e-18)
(3.30162e-05 0.000136055 -1.37236e-20)
(0.00686462 -0.00347272 -1.09501e-17)
(0.0927498 -0.0648669 -1.68221e-17)
(-0.00473059 0.0117109 -9.6015e-17)
(-0.00114777 0.000370006 -3.00658e-19)
(-0.00193064 -0.00239758 7.02988e-18)
(0.00567401 -0.00412944 -2.35817e-19)
(0.000262586 0.000352336 -2.98705e-18)
(-0.0511091 -0.0167781 -3.68945e-18)
(0.00353526 0.00390149 -3.18358e-19)
(-0.00337956 -0.00163887 -1.27664e-17)
(-0.0461171 -0.0157258 7.79167e-19)
(0.000106958 8.77288e-05 5.59001e-20)
(-0.00434598 -0.0127874 1.1123e-17)
(-0.000910478 -0.000525459 1.33278e-18)
(-0.00415303 -0.00323162 1.08159e-18)
(-0.00010945 -2.28565e-05 -1.85547e-18)
(-0.00743492 0.0223357 -7.42384e-18)
(-0.00105594 0.00512428 2.91711e-17)
(1.33576e-06 -0.000163936 -2.571e-20)
(0.00146919 -0.00289963 1.48962e-16)
(-0.00261045 0.002071 -2.23049e-18)
(-7.4904e-05 -0.00024869 -3.82382e-18)
(-0.00247412 0.00210283 3.54571e-17)
(-0.00807967 0.00305125 5.48877e-18)
(0.0102085 -0.0358967 -2.12891e-17)
(0.0188499 -0.0123538 6.44223e-18)
(-0.00538498 -0.0290446 -1.1221e-18)
(-0.000890625 -0.000945881 5.17453e-18)
(-0.000212934 0.000373536 -9.04897e-20)
(-0.0450032 -0.00837044 -1.34171e-17)
(0.00107332 -0.00606959 1.62484e-17)
(-0.000162598 -0.000553482 2.19361e-18)
(-0.00144843 0.000169119 3.99402e-18)
(-0.0558215 0.0774868 6.07331e-18)
(-0.0434367 0.0237751 3.40375e-18)
(-0.00188537 -0.0135734 -2.50114e-17)
(-0.040658 -0.00954555 9.07709e-18)
(-0.000129674 -0.000580074 -6.47126e-18)
(-0.000783935 0.00155415 1.90114e-19)
(-7.00647e-05 -0.0108934 -1.26443e-18)
(-0.000620919 -0.00072375 3.10751e-18)
(-0.00151666 0.000264606 -1.20461e-18)
(-0.015035 -0.0193727 1.64593e-17)
(-0.00329359 0.00456779 -1.73069e-17)
(0.000272361 0.00228603 -5.32868e-19)
(0.0657982 -0.0884676 -6.102e-18)
(-1.84641e-06 -7.85567e-05 -1.69545e-19)
(-0.0029322 -0.00446121 1.1605e-17)
(-0.0131809 0.00979898 -6.47357e-18)
(-0.0230813 0.00055482 -2.95885e-18)
(-7.5835e-05 0.000227988 -9.30549e-20)
(-0.000549643 -0.00114761 7.39441e-19)
(-0.000292701 -0.000372629 -5.704e-18)
(-0.000424391 0.000645776 -1.34282e-19)
(-0.00451081 -0.00523444 -4.21918e-18)
(-0.00041229 0.000658087 5.69362e-19)
(-0.00310227 0.00198663 -1.81822e-18)
(-0.00028177 -0.000330447 6.68999e-18)
(-0.00207606 0.000695921 -7.152e-19)
(-0.000112429 -0.000615986 7.42504e-18)
(0.000165888 -0.00193985 -5.86436e-18)
(-6.9116e-05 0.000600485 -8.36035e-19)
(-0.00101049 -6.81374e-05 1.42743e-18)
(-0.0001186 0.000612182 6.75237e-19)
(-9.0177e-05 0.000582872 -5.85204e-19)
(-0.00180423 -0.00027746 -5.54585e-18)
(-0.00103996 -0.0076052 4.55793e-18)
(0.0427513 -0.191465 1.82103e-17)
(-0.000746355 0.000641531 6.23908e-20)
(0.037205 -0.0276524 -1.83463e-18)
(-0.00356897 -0.0020227 1.26443e-18)
(0.0324305 -0.197068 -1.20325e-17)
(-0.00222575 0.00344842 1.77355e-17)
(-0.00106369 0.00143636 -1.56785e-18)
(-0.000913355 -0.00117043 5.65924e-18)
(0.0213923 -0.0356977 -6.19155e-18)
(0.000129895 -0.00177756 -7.49534e-19)
(-0.000132929 5.16743e-06 2.01612e-18)
(-0.000121478 -0.000667942 -1.99113e-18)
(-2.77442e-05 0.000242102 -5.91402e-20)
(0.0197158 -0.0119524 -4.60954e-18)
(-0.00155777 0.00135249 9.03547e-18)
(0.000100543 2.46857e-05 2.19783e-20)
(-0.00308504 0.00175153 -1.08206e-17)
(-0.00309086 0.00191681 4.68611e-18)
(-0.000642154 -0.000719018 -1.69547e-18)
(0.000284421 0.000354172 4.40405e-19)
(0.00250617 0.00430295 1.5819e-17)
(-0.000892997 -0.00124694 3.06868e-18)
(-0.000585918 0.000283633 3.52666e-19)
(0.000963954 -0.0132133 2.55117e-17)
(-0.000377334 -0.000277494 -1.32589e-18)
(0.000404633 -0.0110597 -6.71483e-17)
(0.00937824 -0.000390937 3.59231e-17)
(-0.0164534 -0.0189859 -4.44399e-17)
(6.08024e-05 -0.00232859 -2.4885e-17)
(0.00138284 0.00106546 3.82336e-18)
(-0.0151954 0.00799864 1.93575e-17)
(-1.0931e-05 -6.25467e-05 2.31661e-18)
(-0.000399935 -0.000398204 2.99038e-18)
(-0.00147609 -0.0130502 -5.33302e-17)
(-4.00803e-06 -7.58814e-05 -5.30794e-19)
(0.000123521 0.000130688 1.19966e-19)
(0.00965445 -0.000251373 -5.0629e-17)
(-0.000331217 2.62651e-05 -1.08036e-18)
(-8.85285e-05 0.00555639 -3.17084e-17)
(-0.00127618 0.0105406 6.5432e-18)
(0.00038036 0.021607 -1.13322e-18)
(0.00877649 -0.000639596 -9.43763e-17)
(-0.000579956 -0.00160402 -1.33955e-17)
(-0.000413079 -0.000344414 -2.28947e-18)
(0.0359006 -0.0125088 -1.26951e-17)
(-0.0128401 0.00959566 1.27351e-17)
(0.0485569 -0.0939646 8.94224e-19)
(-0.00641424 -0.0308128 -3.34579e-18)
(-0.000262245 -0.000264007 -3.81636e-18)
(-0.000180564 -8.07193e-06 2.09339e-18)
(-0.000716446 -0.00140839 7.63172e-18)
(-0.0179956 0.0195804 -4.05433e-18)
(-0.00465262 -0.00241245 1.63255e-17)
(-0.00102097 -0.000312654 6.27538e-19)
(-5.59457e-07 -4.52116e-05 -7.72598e-19)
(-0.00119982 -0.000502944 -1.94425e-18)
(-0.00296181 -0.0045837 -5.25135e-17)
(-0.000406458 -0.0107896 4.74226e-18)
(-0.00261751 -0.000645452 1.36463e-17)
(-0.000676491 -0.00141603 -4.86357e-20)
(-7.39437e-06 -0.000111641 8.19871e-19)
(-0.00213434 0.00332076 -1.70712e-17)
(-0.0309081 -0.0185475 7.52593e-18)
(0.0252963 -0.00910802 2.1755e-17)
(0.00789556 0.00114651 2.17247e-17)
(0.0247367 -0.0359825 -1.6059e-17)
(-0.00203715 -0.00523691 -3.43094e-17)
(-0.00332255 -0.00432255 1.85952e-17)
(0.00396207 -0.00662089 -1.12206e-18)
(0.000418226 0.000767746 5.51016e-19)
(-0.000255559 -0.000127545 -9.71209e-19)
(1.99204e-05 -0.000360964 -2.51908e-18)
(-0.000721908 0.000649303 -8.0704e-20)
(-0.00405979 -0.00534567 1.67719e-18)
(-0.00021438 -0.000102689 -3.10366e-18)
(0.00010703 2.41924e-05 -6.21472e-20)
(0.00587966 -0.000797852 2.02719e-18)
(-0.00283548 -0.00479811 3.53525e-17)
(-0.00248539 0.0020489 -5.67564e-18)
(0.005516 -0.0227134 -1.20266e-17)
(-0.00207615 -0.00544969 -3.123e-18)
(0.0569128 -0.00166871 -1.21813e-17)
(-0.000757928 -3.45036e-05 -1.55315e-18)
(-6.52553e-05 0.000586357 -3.56073e-19)
(-0.000560989 -0.000808499 -7.73254e-18)
(-0.000199746 6.58054e-05 1.3557e-18)
(-5.72698e-07 -2.92347e-05 -1.25956e-18)
(-6.06201e-06 -9.0576e-05 7.80686e-20)
(-0.000235159 -0.000101282 4.28191e-18)
(-0.00557879 -0.180864 -2.48702e-19)
(-0.00114337 0.000430579 2.61355e-19)
(8.44329e-05 8.25943e-05 -9.333e-20)
(0.00754196 0.0208309 -3.76514e-17)
(-0.00178908 0.00704508 -2.01467e-17)
(-0.000253212 -0.000134607 1.21895e-18)
(0.000622505 0.0015198 -9.0582e-19)
(-0.00545261 -0.00359496 -7.64007e-18)
(-0.00768045 -0.0100321 -6.60951e-18)
(-0.0017099 -0.000528636 1.67211e-18)
(-0.000287673 0.000661894 9.09201e-20)
(0.0133983 -0.036601 2.02762e-17)
(-0.000988176 -0.00175068 7.99163e-18)
(-0.0468009 -0.125045 1.00398e-17)
(0.00384626 0.0040369 -3.39754e-18)
(-0.000455393 0.000645041 -2.80157e-19)
(0.00355029 -0.000840004 2.77413e-17)
(-0.00130769 0.00706011 -2.10888e-17)
(-0.000222849 0.000273868 -1.07651e-19)
(-0.0179118 0.0172713 1.62927e-17)
(0.000632485 -0.172786 -3.05105e-17)
(0.00177093 0.000243886 5.46446e-17)
(-0.000463153 0.000628474 1.16073e-19)
(-0.000265973 0.000643808 1.20982e-18)
(-0.00248461 0.000436174 7.131e-19)
(-0.0210131 0.00164592 -1.55318e-17)
(-0.000383601 -0.00164985 8.82249e-18)
(-0.0340481 -0.119677 1.70288e-17)
(-0.0185335 0.0223929 4.10025e-18)
(0.0322764 -0.0278221 1.11177e-17)
(-0.0064154 0.0175602 6.84354e-17)
(-1.52329e-05 0.000225775 -9.69417e-20)
(-0.00070175 0.0106621 -1.31556e-17)
(0.0481422 -0.00338114 1.78228e-17)
(-0.0351761 -0.01665 2.66785e-18)
(0.0188135 -0.00517954 -1.61429e-18)
(-0.000629919 -0.00136481 -4.81722e-18)
(-0.00250601 -0.00078501 2.36811e-18)
(-0.00270149 -0.000190125 2.0241e-18)
(-0.0216222 -0.0116624 -1.39174e-17)
(0.00663302 -0.000826524 3.43632e-17)
(-0.0266468 -0.0207245 5.51102e-17)
(-0.000961905 -0.00103924 2.13097e-18)
(-0.000346657 -0.000562583 -1.65564e-18)
(-6.21623e-05 -0.00077098 4.98383e-18)
(-0.00474123 -0.00253646 -2.54206e-17)
(-0.000228067 -9.35738e-05 -3.62463e-19)
(0.037686 -0.0103229 5.65267e-18)
(-0.00280092 -0.00025294 1.07316e-18)
(0.0254285 -0.00783149 -8.9404e-18)
(-0.000352463 -0.00101143 3.01628e-18)
(-0.00115975 -0.000515059 -3.23574e-19)
(-0.000119965 -5.24802e-06 1.4451e-18)
(-0.00103769 -0.00321848 -9.76345e-18)
(-0.00355924 0.000100794 -1.1276e-18)
(-0.0320025 -0.0173072 1.8841e-17)
(-0.000353632 -0.000220275 3.08798e-18)
(-0.0144845 0.000686935 6.35259e-18)
(-0.00712117 -0.0111497 -2.4435e-17)
(0.00109123 0.00568407 -1.31083e-17)
(-0.000760025 -0.000687417 -3.73123e-19)
(-0.000851815 -0.00184665 -6.26162e-18)
(0.00268857 0.006305 -3.50514e-18)
(-3.6471e-06 -8.08353e-05 2.36183e-18)
(-0.00233599 0.00183102 1.71069e-18)
(-0.00344487 0.00431456 2.23579e-17)
(0.000950434 0.00542322 1.34974e-17)
(-0.00516551 0.00724865 2.14735e-17)
(-0.00149987 0.000183574 -6.04913e-18)
(-0.000209188 0.00027077 -5.8649e-19)
(1.97419e-05 -0.000303927 1.92425e-18)
(1.58787e-07 -0.00011285 -2.13701e-19)
(-0.00292971 0.00202364 5.58772e-18)
(0.000383472 0.00227571 -4.97279e-18)
(-0.00780508 0.00234837 1.08341e-17)
(-0.0007356 -5.96815e-05 1.01134e-18)
(0.000959666 0.00107966 -5.63468e-19)
(0.126837 -0.0187854 1.5682e-17)
(9.43191e-05 7.72226e-05 2.57156e-19)
(0.00052726 -0.00350066 1.62319e-18)
(-0.00041856 -0.00170282 1.5301e-18)
(-0.00879322 0.00490477 -2.04176e-17)
(-0.000347304 -0.0021031 2.87791e-18)
(0.0193084 -0.0121826 -1.36903e-18)
(-0.000732966 0.00115626 -3.58291e-18)
(6.10619e-05 -0.00192067 1.80854e-17)
(-0.00127991 -0.00202596 4.33302e-18)
(-0.000633419 -0.0019559 6.92052e-18)
(-0.0860962 0.0273614 6.68665e-18)
(0.120411 -0.0201295 1.44566e-18)
(-0.0668815 0.0150817 -5.18333e-18)
(0.00148104 0.00573013 6.25878e-18)
(-0.00149622 0.00133552 5.19354e-18)
(-0.000484913 0.000635084 -7.21712e-20)
(-0.000322406 -0.000471203 9.59176e-18)
(-0.0188104 0.0230606 -1.07081e-17)
(-0.00268499 0.00227298 -1.36529e-17)
(-0.00349313 -0.00143339 8.48046e-18)
(-0.00802767 -0.000504814 -3.69377e-18)
(0.00451734 -0.173718 -4.09243e-18)
(-0.0343628 0.048127 -6.92234e-18)
(-0.000112156 1.84094e-06 7.1432e-19)
(-0.00865807 0.0134302 -2.55146e-17)
(0.0116761 -0.0352579 -2.91018e-17)
(0.000793303 0.00159225 6.11894e-19)
(-0.000322203 -0.000503133 -1.11899e-17)
(0.00041386 -0.00356552 -1.89105e-17)
(0.00108462 -0.0206227 -2.52695e-19)
(-0.00272525 0.00156587 -9.87222e-19)
(-3.05973e-05 -0.000292803 1.38594e-18)
(-0.000440629 -0.00591059 -7.14594e-17)
(-0.00518814 0.00678711 -3.9689e-17)
(-0.00413592 0.00280025 1.08076e-17)
(-0.000943866 -0.00305344 -1.21165e-17)
(-0.00589467 -0.0137825 1.25422e-18)
(-0.000429303 0.00273795 -1.59328e-18)
(-0.00804019 -0.00335611 -9.01422e-18)
(0.0421082 -0.00213546 3.33001e-18)
(-0.0441226 -0.0187392 8.55471e-18)
(-0.0221037 0.0169752 -1.7016e-17)
(-0.0037565 -0.00479961 -2.10868e-18)
(-0.01107 0.000770553 -1.35197e-18)
(-0.00133941 0.00257448 1.44771e-17)
(-0.000137086 -1.47177e-05 -1.0525e-19)
(0.000836964 0.00165684 7.47504e-19)
(-0.000596992 -0.000866259 -7.95227e-18)
(-0.000159755 -0.00912538 6.15167e-17)
(0.00188992 -0.0093347 6.35882e-17)
(0.052939 -0.00248111 -3.48907e-18)
(-0.00101681 -0.00747349 -4.28019e-19)
(-0.0217166 0.00921459 -5.10462e-17)
(0.024624 -0.107639 4.56936e-18)
(-0.000287615 -0.0057009 -2.79071e-17)
(-0.00186334 -0.000605048 2.93285e-18)
(0.0506627 -0.0018498 6.58047e-18)
(-0.0493466 0.0102855 -2.04538e-17)
(0.00017828 0.000188435 6.66536e-19)
(-0.000703461 -0.00814067 -4.24552e-17)
(-0.0121788 -0.152519 -3.72816e-18)
(-0.025133 -0.00401458 -2.50662e-17)
(-0.00276407 -0.000533132 -5.39859e-18)
(6.60061e-06 0.000170731 4.99831e-20)
(-0.000433094 0.00264047 3.44276e-18)
(0.000238525 0.0032536 4.2984e-18)
(0.00300395 0.00614373 4.52171e-18)
(-0.00265432 -0.00173354 3.5569e-17)
(-0.000574788 -0.000630391 5.464e-18)
(0.0193827 -0.00169045 4.04428e-18)
(-0.00177315 -0.000419569 -7.05661e-20)
(-0.0019095 -0.00106508 6.2596e-18)
(-0.02072 -0.012738 1.50894e-17)
(-0.000695989 -0.000209428 -1.04597e-18)
(-0.00366342 -1.19864e-06 -4.20722e-19)
(0.0141833 -0.00420284 -8.58223e-19)
(-0.000377474 -0.000299153 2.87849e-19)
(-0.00133465 0.00107281 -2.03003e-19)
(-0.0501687 0.00196046 1.27596e-17)
(-0.000156249 3.60521e-05 7.616e-19)
(-0.0150632 0.00120712 2.35374e-17)
(0.000101737 8.33236e-05 -1.61454e-19)
(0.0144577 -0.147909 -1.54466e-17)
(0.00161824 0.00597972 -4.75689e-18)
(-0.00262817 0.00789042 1.33055e-18)
(-0.00354117 -0.00153331 1.0686e-17)
(-0.0021464 0.0010902 2.83972e-18)
(-0.0199476 0.00155117 1.79947e-17)
(8.43687e-05 -0.00217678 1.31127e-17)
(0.0168619 -0.103374 7.56774e-19)
(-0.00988812 0.018208 3.41613e-18)
(0.000611642 0.000667871 -1.37497e-18)
(-0.0473165 -0.00330712 -1.51759e-18)
(-0.00271162 0.00833235 -4.74907e-18)
(-0.00515122 -0.0138399 -1.42384e-17)
(0.00824347 0.000430654 -1.05635e-16)
(0.0105114 0.0207643 3.02735e-17)
(-0.0285596 -0.017649 -2.52964e-18)
(-0.000569541 -0.000718251 3.72909e-19)
(-3.23857e-05 0.000274446 -3.0822e-19)
(0.00284175 -0.172793 1.86043e-17)
(-0.000907439 -0.00184664 -1.53956e-18)
(-0.00236175 0.00184477 -3.69139e-18)
(-1.56116e-05 -0.000210459 -3.28772e-18)
(-0.00138641 0.00264725 -1.11013e-17)
(0.0202763 -0.0412654 2.10642e-17)
(0.0368334 -0.0281608 -3.24828e-19)
(-0.0030231 0.00204834 -1.59161e-17)
(-0.00116068 -0.00229757 -2.55054e-17)
(-0.00385455 -0.005191 -7.339e-18)
(-0.00189662 0.000223496 5.02691e-19)
(2.63605e-06 0.000183724 -5.99409e-20)
(-2.80421e-05 -0.000260595 -3.06711e-18)
(-0.00312103 0.00165009 1.71158e-17)
(-0.00786957 0.000329552 4.70683e-18)
(6.31117e-06 0.000402442 2.28381e-18)
(-0.0677261 0.0145188 2.5916e-17)
(-0.00304 -0.000524127 3.72349e-18)
(-0.00425986 0.00187122 -4.54064e-18)
(8.01155e-05 1.10985e-05 -9.58313e-20)
(-0.0171671 0.01648 1.83333e-17)
(0.00397166 0.00416949 -1.3458e-18)
(-0.000614485 -0.000925873 3.5818e-18)
(0.000149896 0.000169615 -2.69288e-19)
(-0.0130478 0.0114047 6.18565e-18)
(-1.23763e-05 -0.000183509 1.87267e-18)
(-0.000223147 0.000293836 4.21948e-19)
(0.0495013 -0.0960657 3.60878e-18)
(-0.000892892 -0.00795161 1.04091e-17)
(-0.000630204 -0.00153872 1.99443e-19)
(-0.000349979 -0.000493793 -9.80965e-18)
(-0.0216252 0.0401166 -3.4031e-18)
(-0.00261398 0.00210371 7.04817e-18)
(0.00303332 0.00467262 -2.17998e-18)
(0.000963108 -0.00588501 -1.90612e-17)
(-0.000987709 -5.07622e-05 -1.30041e-18)
(0.0458532 -0.00383123 -9.8123e-18)
(-0.00597049 0.004347 -3.41851e-18)
(-0.000848463 -0.00113842 -2.94694e-20)
(-0.00111185 -0.00904832 3.04286e-17)
(-0.0442929 -0.0117796 -3.11725e-17)
(-0.000221161 4.29896e-05 -2.48588e-19)
(0.0413312 -0.0290236 1.28027e-17)
(-7.18377e-05 0.000245259 -2.71246e-19)
(-0.000345322 -0.000285083 -2.34217e-18)
(-0.000350153 -0.0016518 -5.32777e-18)
(5.82762e-05 -0.00389347 -1.03416e-17)
(0.0039486 0.00221124 2.69534e-17)
(-0.00253369 0.00205655 -1.25317e-18)
(0.0424492 -0.00253433 -4.19921e-18)
(-0.00374853 -0.000248345 -2.64193e-19)
(0.0273134 -0.0217368 2.5692e-18)
(-0.0122111 0.0171947 -5.84947e-17)
(-0.00143282 0.00245842 1.06315e-17)
(-0.0235719 0.00793003 7.69571e-17)
(-0.000577399 -0.00116282 4.26279e-18)
(-0.0475759 0.0119082 -3.09178e-17)
(0.000678449 0.00159212 2.28616e-18)
(0.0736401 -0.0461175 2.6159e-18)
(0.0452278 -0.00277608 6.82972e-18)
(-0.00107487 -0.000588449 -3.21444e-18)
(-0.000761389 -0.0125898 -1.11454e-16)
(-0.00233817 0.000458662 1.00255e-19)
(-0.00126518 -0.00207537 -6.4257e-18)
(-0.0602165 0.0129776 -8.36657e-17)
(-0.00114504 -0.00680319 -7.16589e-17)
(-0.013358 0.00910897 -9.23804e-18)
(-0.000287787 -8.13917e-05 1.76283e-19)
(0.0177789 -0.0131557 -3.60534e-18)
(-0.000309585 -0.00075438 -1.14512e-18)
(0.0112729 -0.0907702 8.79829e-19)
(0.000358161 0.000872055 1.5994e-18)
(-0.00282312 -0.000419456 1.95495e-18)
(0.0023414 0.006004 2.05068e-18)
(-0.000388066 -9.61093e-06 -2.3135e-18)
(2.66069e-05 3.27269e-05 -2.25241e-19)
(-0.00607106 0.00801161 -1.06321e-17)
(0.0120489 -0.0283225 -1.84495e-17)
(-0.0127257 -0.00784419 3.73438e-18)
(-0.000176416 8.40464e-06 -1.64329e-18)
(-0.000657237 -0.0104352 -2.51972e-17)
(-0.00139165 0.00238249 -1.06816e-17)
(-0.000388176 -5.37289e-05 -1.4543e-19)
(-7.17035e-05 -0.000726586 -2.58678e-18)
(-0.00225349 -0.00176136 -5.93887e-18)
(-0.0168752 -0.0038613 -8.21857e-18)
(-0.0529563 0.0127767 1.35614e-16)
(-0.00244619 0.00207081 -5.45697e-18)
(-0.000132854 9.07336e-06 5.29881e-19)
(-0.00271467 0.000544641 2.02412e-18)
(0.030818 -0.00693541 -1.27454e-17)
(-0.00272042 -0.000461756 -3.77938e-18)
(-0.000550142 -0.000643346 -3.63612e-18)
(-0.000397905 6.09944e-06 4.56726e-18)
(-0.00279596 0.000568771 -1.65396e-18)
(-0.00208187 0.00228847 3.55323e-18)
(0.018234 -0.00227457 1.72248e-17)
(-0.000665982 -0.000226851 1.49043e-18)
(-0.014594 -0.00389153 -4.05607e-17)
(-0.00448408 -0.00364215 2.25206e-17)
(0.00680456 -0.035929 -1.78423e-18)
(0.00233397 -1.21147e-05 -2.0562e-17)
(-0.0143341 -0.13541 6.09089e-18)
(3.41058e-05 0.000116016 -4.58686e-20)
(0.00035312 0.0192596 -3.78401e-19)
(-0.00063105 -0.000514725 -1.05101e-18)
(-0.00125713 0.00048484 -6.58812e-19)
(-0.00104749 0.00331124 -4.29845e-18)
(-0.016259 -0.153014 -1.54084e-17)
(-0.000185735 -7.18011e-05 8.8202e-19)
(-0.000505779 0.000620601 1.3197e-19)
(-1.39724e-05 2.63992e-05 1.594e-19)
(-0.0509186 0.0124614 -2.26339e-17)
(-0.00112409 -0.00143591 -2.53324e-17)
(0.000650834 0.000690906 -5.26512e-19)
(-0.00363842 0.000621667 4.72769e-18)
(-0.00270102 0.00150665 -2.58213e-18)
(-0.00302278 -0.0244085 1.10595e-17)
(-0.0186754 0.00389161 -2.94611e-17)