/*--------------------------------*- C++ -*----------------------------------*\
| =========                 |                                                 |
| \\      /  F ield         | OpenFOAM: The Open Source CFD Toolbox           |
|  \\    /   O peration     | Version:  v2012                                 |
|   \\  /    A nd           | Website:  www.openfoam.com                      |
|    \\/     M anipulation  |                                                 |
\*---------------------------------------------------------------------------*/
FoamFile
{
    version     2.0;
    format      ascii;
    class       volVectorField;
    location    "500";
    object      ddt0(U);
}
// * * * * * * * * * * * * * * * * * * * * * * * * * * * * * * * * * * * * * //

dimensions      [0 1 -2 0 0 0 0];


internalField   nonuniform List<vector> 
18355
(
(-0.000862794 0.000330473 -3.93435e-18)
(0.029882 0.00703771 -5.6083e-18)
(-0.000165983 -0.000166625 -4.78126e-18)
(9.93816e-05 5.32764e-05 -3.5233e-19)
(0.000725605 9.89042e-05 3.05037e-19)
(-0.0041155 0.0168922 1.20987e-17)
(1.68693e-05 -8.24751e-06 -1.07624e-18)
(-0.00373078 0.000157232 -4.79117e-19)
(8.64569e-05 -0.000280959 5.15926e-18)
(0.0507296 0.00159402 1.47278e-17)
(9.26349e-05 7.36949e-05 2.56688e-19)
(-0.0427665 0.00215512 3.67132e-17)
(-0.00565524 -0.00354473 -1.39545e-17)
(-3.89256e-05 -0.000434142 3.40234e-19)
(-0.000181341 0.000450452 -5.02673e-19)
(-0.0006087 0.000260221 -5.76941e-18)
(4.71801e-05 0.00088856 4.66776e-17)
(4.51224e-05 0.000231044 7.2608e-19)
(-0.000293314 0.000258874 -1.03121e-18)
(-0.102738 0.0742018 1.35943e-18)
(-0.000787694 4.55498e-05 -3.87353e-18)
(-0.000216655 -0.000147254 -6.58785e-19)
(0.00822245 -0.0196584 -2.69817e-17)
(0.000719288 6.72057e-05 1.56829e-18)
(0.00239462 -0.00028201 2.84401e-18)
(-4.80692e-05 -0.000154574 3.23013e-18)
(1.69582e-06 0.000299034 8.66275e-18)
(-2.98715e-05 -0.000299634 -1.19135e-17)
(-0.0441724 -0.0349933 2.55316e-17)
(-0.000199023 -0.000340276 -9.02575e-18)
(0.000390868 1.32246e-05 7.62943e-18)
(0.00119414 0.000187077 3.81451e-18)
(5.19886e-05 0.000228406 -4.43328e-19)
(7.76486e-05 1.42999e-05 7.75777e-20)
(-0.000434309 0.000530963 -1.87369e-17)
(-0.000878969 0.00032256 2.889e-18)
(4.76602e-05 -0.000317448 4.63486e-18)
(-0.00206887 0.00403385 1.52295e-17)
(-5.28154e-05 -0.000278372 1.04335e-18)
(9.46452e-05 4.94941e-05 -6.35155e-19)
(-2.12527e-05 -0.000465548 2.26397e-18)
(-0.00375052 -0.000855308 -1.47933e-18)
(-0.000175015 -0.000143926 5.80981e-18)
(0.0527305 -0.000971785 3.39593e-17)
(0.000111911 6.81504e-06 -4.48101e-19)
(-0.00194954 0.0044308 -2.56186e-18)
(-0.00108628 -0.000351356 5.22135e-18)
(-0.000194083 -0.000293661 -5.92417e-18)
(-0.00102973 -6.82796e-05 2.17375e-18)
(9.28025e-06 0.000255841 -2.27195e-19)
(9.24984e-05 -4.97254e-05 2.49413e-19)
(-8.44573e-05 0.000394049 -5.04756e-19)
(-3.43698e-06 -0.000157163 4.78339e-18)
(0.0226375 0.011442 8.50353e-18)
(-5.73774e-05 0.000177414 1.06433e-19)
(-1.14409e-06 3.19276e-06 -3.31174e-19)
(0.0310132 0.0287352 -2.97528e-18)
(-0.000181224 0.000460914 -3.94558e-19)
(-0.000555763 -0.00715336 2.14186e-17)
(0.00281686 0.00070975 2.0096e-17)
(1.10222e-05 0.00025021 1.89052e-19)
(-0.00548342 0.00706682 -8.12373e-18)
(7.56076e-05 0.000192754 5.00544e-19)
(-0.00193975 0.000278692 1.21664e-19)
(-0.0427561 0.00248114 -6.07034e-17)
(-0.000863158 0.000335795 1.88435e-17)
(-0.0158484 -0.0328732 -1.05557e-17)
(-0.000501166 -0.00115002 7.05074e-18)
(5.49981e-06 0.000273324 -1.52512e-18)
(-0.000285312 -0.000146134 8.98204e-18)
(-0.000211787 -0.000379794 -2.86204e-18)
(-1.14686e-06 -5.93094e-05 1.23683e-19)
(0.00308207 0.00100624 -5.02816e-17)
(-3.48097e-05 0.000140896 7.34291e-20)
(-0.00348617 -3.10216e-05 1.3462e-18)
(1.62473e-05 -2.41209e-05 7.54741e-19)
(-0.00480104 0.0148985 2.55242e-17)
(0.00109233 0.000307331 4.75383e-18)
(0.00374667 0.000825978 -1.60686e-18)
(-6.44261e-05 0.000360493 7.37801e-20)
(1.87936e-05 2.24346e-05 2.34612e-19)
(-0.00623908 0.00665369 5.88787e-17)
(-0.000773376 5.16266e-05 1.25268e-18)
(-0.00158625 0.000755717 4.86964e-19)
(-5.00166e-05 -0.000108829 -8.00753e-19)
(-0.0052787 -0.0033776 1.13528e-18)
(-0.0572825 0.0083222 2.89088e-18)
(-0.107697 0.0789775 1.57448e-18)
(-0.0406763 -0.042653 -2.0638e-17)
(0.024789 -0.00368581 5.24771e-19)
(-0.0417222 0.00994111 1.19686e-17)
(0.000111859 5.9496e-06 3.28192e-19)
(-6.58447e-05 7.64554e-05 -1.72449e-19)
(8.14331e-05 5.33989e-05 1.81007e-18)
(-0.00723449 -0.103526 -4.37593e-17)
(0.00811302 -0.0185322 -1.20971e-18)
(7.3342e-05 0.000145848 2.97881e-18)
(0.0010073 0.00151589 6.15405e-18)
(0.0269342 0.0108903 9.76546e-18)
(0.00289647 -3.90563e-05 1.87035e-17)
(-0.00890066 -0.0789592 9.85875e-18)
(0.00266346 0.000304399 -6.03155e-17)
(-0.000920652 0.000613212 5.68196e-18)
(0.0171987 0.00290328 -1.37434e-17)
(0.000833781 -0.00010592 7.79868e-18)
(-0.014121 0.00654257 -4.19405e-17)
(-0.0398951 0.00185224 4.93965e-17)
(-0.00360903 0.00267587 1.94376e-17)
(-0.000965509 0.00145277 3.22425e-18)
(0.00187098 -0.005281 -3.13917e-19)
(-0.000195729 -0.000277937 -1.48417e-18)
(-0.000188333 -0.000246494 7.43666e-19)
(-5.99235e-05 -0.000181013 -5.5794e-19)
(-0.000159301 -0.000264256 -2.7226e-18)
(0.0126193 0.0207866 -2.54829e-17)
(4.39425e-05 2.03022e-05 -2.24929e-19)
(0.000333589 -0.00684039 -7.25261e-17)
(-0.006662 0.0167857 -3.12153e-17)
(-0.000447269 -0.00696715 1.07717e-16)
(-0.000993222 0.000646361 -4.41872e-18)
(0.0500708 0.00121604 -5.94307e-18)
(0.0182586 0.000110779 2.02279e-18)
(0.0011003 0.000261723 -4.79437e-19)
(-0.000166709 -0.000288205 -1.53236e-17)
(8.05766e-05 0.000175788 -6.17883e-18)
(-0.0039395 0.00272018 -4.41009e-18)
(-6.81494e-05 0.000393506 3.88617e-19)
(-1.31582e-05 -0.000194223 -3.22726e-18)
(-0.0133523 0.0100785 2.88353e-17)
(7.70735e-05 4.94795e-05 -1.60333e-18)
(9.33231e-05 -5.86699e-05 4.90775e-20)
(0.0229298 -0.0215411 2.20593e-17)
(-0.00300304 0.00403829 -2.35437e-17)
(0.00110471 0.00146006 -7.87476e-18)
(-0.0019655 -0.000844329 -8.77315e-18)
(-8.93573e-06 -0.000214544 7.56477e-19)
(-7.68136e-05 0.000452869 1.97265e-18)
(9.79594e-05 7.74173e-05 1.24144e-18)
(-8.59821e-05 -0.000434077 -2.56327e-18)
(-5.8423e-05 0.00159313 -1.24933e-17)
(-0.0142991 -0.0810028 -1.36318e-17)
(-0.0323439 -0.0796928 2.91909e-17)
(-0.000374351 0.000343351 5.08248e-19)
(-0.000190632 -0.000316433 4.22602e-18)
(-0.000267637 -0.00516438 -6.57525e-18)
(-0.00026019 -0.000187158 1.76404e-17)
(-4.01301e-05 -0.000446005 4.16486e-18)
(-0.0605153 0.00542949 1.6636e-17)
(0.000452355 0.000717354 -5.48595e-19)
(-0.047732 0.0100955 -1.47239e-17)
(0.000524631 0.000155569 1.27003e-18)
(-0.000271406 -0.000129199 -3.14309e-18)
(-0.000529202 0.000480939 -1.09686e-17)
(-0.000430764 -0.0070518 -4.85069e-17)
(0.00897927 0.0212388 3.6935e-17)
(-1.18993e-06 -7.02766e-05 1.09603e-18)
(0.0151486 -0.0242237 1.06168e-17)
(-0.000392649 -0.00652442 -1.25743e-16)
(-2.01312e-06 -7.09651e-05 2.17154e-18)
(-0.00675842 0.00651232 2.24817e-17)
(-0.000903695 0.000255327 4.20144e-19)
(-0.00053434 0.000393147 -1.98104e-18)
(-0.000924322 -0.000636883 -3.21746e-17)
(0.00122072 0.00156912 6.54239e-18)
(0.0120231 0.0592475 -2.72188e-17)
(-0.003882 -0.00746091 -1.01386e-17)
(-0.0197319 0.00399539 -1.51585e-16)
(-0.000866005 9.34692e-05 -2.78884e-19)
(-0.00617299 -0.0122131 1.45754e-18)
(-2.02745e-06 0.000237863 -2.16411e-19)
(-0.006101 0.0522284 1.88421e-17)
(0.00642038 -0.0176531 -1.62787e-17)
(0.000105015 4.19011e-05 -9.01887e-19)
(0.000101438 5.29939e-05 7.68604e-19)
(-0.0005931 0.000264227 -7.13288e-19)
(0.00414514 0.00692734 1.7434e-17)
(0.0162984 0.00978913 5.27941e-18)
(-6.87197e-05 0.000106559 -4.88591e-18)
(-0.000779389 0.0111614 -4.1342e-18)
(-0.01559 -0.00353639 3.28529e-17)
(0.000915902 -0.00329749 -1.73015e-17)
(-0.00714706 -0.0122984 -1.90325e-17)
(0.000220032 0.00182876 3.25638e-19)
(1.4991e-05 -9.78192e-05 -1.65409e-19)
(-0.0109724 0.0573177 -1.65908e-17)
(-0.00419729 0.00892735 -1.66043e-18)
(0.0209131 -0.0137112 -2.23439e-17)
(-0.0308599 0.00767488 3.11288e-17)
(-5.76763e-05 -0.000289096 8.04321e-18)
(0.000110955 0.000647669 -2.1013e-17)
(0.0314557 0.0267023 -6.91709e-18)
(-0.000181064 -7.21305e-05 1.19239e-18)
(0.00132224 0.00150654 -6.5939e-18)
(0.0159754 0.0139063 2.58128e-17)
(-0.00218999 -0.00115068 -2.47834e-17)
(-0.00035035 -8.74517e-05 -2.89935e-18)
(0.00203787 -0.0307163 1.12737e-17)
(0.000347117 0.00182041 -6.22661e-19)
(-0.000898162 0.00417127 -1.99891e-18)
(0.000108988 2.86412e-05 -4.96794e-19)
(0.000237786 0.000381032 3.56848e-18)
(-0.000418961 -0.000178786 5.74931e-18)
(-0.010574 -0.000866832 -2.2489e-17)
(0.0220559 -0.0133411 1.04271e-17)
(-0.0476914 6.65309e-05 -1.59236e-18)
(-0.00107891 0.000130762 2.15162e-19)
(0.000278621 -0.00649155 4.67287e-17)
(-0.0212014 0.0115381 2.97654e-17)
(-0.0321945 0.00766629 6.98115e-17)
(-0.000633345 0.00428005 -1.08015e-17)
(-0.000136439 0.000448339 8.97146e-20)
(0.000493154 0.00013698 7.70594e-19)
(-0.108358 0.0784732 7.89181e-18)
(-0.000370703 0.000339712 4.61501e-19)
(-4.97972e-06 0.000217474 1.64538e-19)
(-0.0058408 0.00679362 -5.67999e-17)
(-0.107818 0.11235 -5.6471e-18)
(-0.103406 0.0736123 -2.79946e-18)
(-5.10958e-05 -0.000231399 3.13943e-18)
(0.000445702 0.000670751 3.6402e-18)
(0.000586608 0.00837193 4.06745e-17)
(-9.8049e-05 -0.00043201 1.99622e-19)
(-0.00157706 0.000659045 -6.94486e-18)
(-8.63388e-05 0.00044249 4.10256e-19)
(-0.0130252 0.00401902 5.3777e-17)
(-0.00030722 -3.21791e-05 4.69463e-18)
(-0.0132751 0.00933605 -1.76335e-17)
(-0.0232325 0.00971407 -4.8233e-18)
(-0.000132853 -0.00402289 3.57084e-18)
(-0.000132737 0.00046648 -2.06892e-19)
(-1.01262e-05 -0.000192947 -5.93105e-18)
(0.00353499 0.000637406 2.94328e-18)
(-0.000797594 0.000349323 -1.69297e-18)
(-0.0127774 0.00986196 6.33084e-17)
(-0.000416007 0.000476115 -2.25684e-21)
(-6.07585e-05 -0.000105963 1.18512e-18)
(-6.3938e-05 7.87483e-05 4.7613e-18)
(-0.00385436 0.00363788 9.91502e-18)
(-0.0484293 0.0333147 4.92484e-17)
(-0.0321089 1.2418e-05 -6.64101e-17)
(-0.000884669 0.00142585 2.0909e-18)
(-0.00400998 -0.0122246 -2.22625e-17)
(0.000401259 -4.08782e-05 1.19432e-18)
(-2.01972e-05 0.000208564 -1.70516e-21)
(-0.000337041 -9.88104e-05 1.98283e-18)
(-0.0203287 0.00634081 1.72551e-17)
(0.00243351 -0.00431288 5.35985e-17)
(-0.000235014 -0.00587745 -5.99676e-17)
(0.0101441 0.0204481 -4.1748e-17)
(-0.000892475 0.000287252 -2.40591e-19)
(0.000215456 0.000374401 1.75356e-18)
(-0.00167829 -0.00995227 -8.74146e-18)
(0.000383351 0.00200884 3.09937e-19)
(-0.029285 0.00869135 -1.06747e-16)
(-0.000311589 7.2171e-06 -1.79707e-18)
(-0.00738874 0.00466139 4.33746e-17)
(-0.133786 0.119801 -1.48148e-17)
(-0.00683197 0.0057796 -2.52888e-18)
(-0.000228566 -9.50827e-05 3.93636e-18)
(4.8426e-05 -3.57846e-06 5.26136e-21)
(-0.000850111 0.000351962 -6.79113e-18)
(-4.84301e-05 -0.000603454 1.22396e-17)
(-0.0153731 -0.00191258 2.47184e-17)
(-0.00335617 0.00398292 -5.57085e-18)
(-9.42451e-06 -2.59353e-05 4.59676e-19)
(-2.99007e-06 0.000200363 -5.13225e-20)
(3.33546e-07 -0.00019287 -5.14514e-18)
(-0.00558548 -0.0134058 2.19492e-17)
(-0.002739 0.00166414 7.0095e-18)
(0.000174922 -0.00385376 -1.51862e-17)
(-0.000478574 0.000187031 -4.73043e-18)
(-0.0407918 -0.00510519 -4.0419e-18)
(-0.0326082 0.00646875 -6.38326e-19)
(-0.0131823 0.00617507 4.63069e-17)
(-5.63922e-05 0.000265308 1.60157e-18)
(0.00361546 -0.0341544 -1.0778e-17)
(-6.39978e-05 0.000373565 -4.60838e-20)
(-4.54363e-05 5.82789e-06 1.07697e-18)
(-0.0139596 -0.00557865 2.87108e-17)
(4.42663e-05 6.03551e-06 1.53531e-19)
(1.25469e-05 -3.78058e-05 1.89215e-18)
(-0.0134896 0.00421297 -1.87034e-17)
(-9.06294e-05 -0.00028606 -6.06082e-18)
(-0.0115275 -0.130665 -2.43275e-18)
(0.000500263 0.00200221 -2.20733e-18)
(-0.000147476 -0.000358964 3.82172e-17)
(4.64636e-05 6.50544e-06 -2.27885e-19)
(-0.000823114 0.000107744 7.76555e-18)
(-0.0378373 0.00386579 5.25367e-18)
(0.00118331 0.000247004 -2.52579e-18)
(0.000104583 5.95044e-05 -3.40931e-19)
(-2.98899e-06 -0.000234486 3.3852e-18)
(-0.0181571 0.0157996 2.4156e-17)
(0.0371064 0.00874383 9.39672e-18)
(-5.37485e-06 -0.000201856 -1.32143e-18)
(2.29839e-06 -6.38353e-06 1.17966e-18)
(-0.117589 0.111415 6.25672e-18)
(-0.000824839 0.000608166 -2.52326e-17)
(0.0126064 0.0209564 8.19926e-18)
(-0.00319143 -0.0046038 1.60968e-17)
(-4.14495e-05 5.18606e-05 -1.5259e-18)
(-0.000194423 -0.000596875 2.64483e-18)
(-0.000250739 -0.000184705 7.1693e-18)
(3.88567e-06 -1.09896e-05 -1.47759e-18)
(-0.0028951 -0.00453325 -4.37467e-18)
(0.0102478 0.0619549 1.89076e-17)
(0.0600157 0.0730466 -2.35858e-17)
(-0.019436 0.016565 -1.46425e-17)
(7.94213e-05 2.9781e-05 2.40253e-19)
(0.000932306 -0.00340605 -1.69088e-17)
(0.000734877 -0.000153202 3.83295e-18)
(-0.000283326 0.000247807 2.31829e-18)
(0.0110044 -0.000494678 -2.16848e-17)
(-0.000160316 -0.000312987 5.35719e-19)
(-0.00456061 -0.0134149 -7.17433e-18)
(-0.00363271 -0.00103353 -1.06941e-18)
(-6.72163e-05 0.000123264 -2.087e-18)
(0.000104716 -6.37854e-05 1.54736e-18)
(-0.00284037 -0.0121628 2.71022e-17)
(-0.0168214 -0.0129369 5.60548e-18)
(-0.0205848 0.0121095 4.90674e-17)
(-0.000281319 0.000495401 -5.85565e-19)
(-0.00087475 -0.000608114 1.44027e-17)
(0.0535767 -0.000761984 1.1397e-17)
(0.000178129 3.53375e-05 -4.79093e-19)
(-0.0482791 0.0331984 -5.85535e-19)
(0.00375061 -6.83057e-05 3.83811e-18)
(-0.00139104 -0.000278058 2.91862e-18)
(-0.0577341 0.0267093 6.85726e-19)
(7.71407e-05 2.28209e-05 1.70867e-19)
(-0.00425528 -0.00788884 2.83464e-18)
(-0.000265891 0.000153519 -4.65045e-19)
(-0.00208884 -0.000941392 7.88611e-18)
(-2.3141e-05 -8.57665e-07 3.31551e-18)
(0.011654 0.0202065 4.87426e-18)
(-0.0252425 0.00574666 -1.8608e-17)
(3.82601e-06 -0.000234122 -1.87542e-21)
(-0.00787074 -0.00214736 -1.69274e-17)
(-0.00150024 0.00147691 -1.2107e-18)
(-2.99463e-05 0.000307473 -2.03836e-18)
(-0.00101263 -0.000250316 -5.51697e-18)
(-0.00568138 0.00783842 1.02094e-17)
(0.0300396 0.000654862 7.3638e-18)
(0.0146601 0.0176555 -1.0315e-17)
(0.0103259 0.0165934 -2.90641e-17)
(-0.000302469 -4.43739e-05 -3.08287e-18)
(8.4059e-05 0.000185993 6.32054e-19)
(-0.00926603 -0.019663 -1.37033e-17)
(0.000697283 -0.00289758 -5.58201e-17)
(-6.69819e-05 3.34675e-05 3.8405e-18)
(-0.000416316 0.000459509 1.00297e-18)
(0.0557377 0.0780196 -1.52072e-18)
(-0.00901567 0.0586268 1.37385e-17)
(-0.00202265 -0.00880968 -3.15163e-18)
(-0.00706208 -0.0210903 -9.87902e-18)
(-5.5129e-05 0.000187101 -3.35482e-18)
(0.000127679 0.000536697 -1.16419e-17)
(-1.83648e-05 -0.00606863 -1.15185e-18)
(-0.000192477 -0.000271419 -1.29858e-18)
(-0.000423601 0.000476797 -1.40494e-19)
(-0.0312094 -0.00232664 2.90783e-18)
(-0.000330254 0.00477919 1.68669e-17)
(0.00108443 0.000868606 1.0744e-18)
(-0.0219887 -0.00623 4.92261e-20)
(-1.18546e-06 -0.000117111 2.75725e-18)
(-0.00165838 -0.00177406 3.80317e-18)
(0.000842857 0.00932741 -2.50178e-17)
(-0.0320059 3.59739e-05 -6.03913e-19)
(0.000109774 4.71426e-05 5.09762e-19)
(-0.000187897 -0.000436611 1.43744e-17)
(-6.71323e-05 -0.000299747 5.73103e-18)
(3.7563e-05 0.000256413 -6.17527e-20)
(-0.00270169 -0.0019947 -1.60272e-17)
(3.9648e-05 0.000230598 1.65066e-18)
(-0.000797692 0.000290883 -2.58239e-17)
(-5.94797e-05 -0.000267957 2.98981e-19)
(-0.000603225 0.000386349 3.1546e-18)
(-4.09701e-05 0.000158305 2.60901e-18)
(5.88614e-05 -0.000273135 -2.53866e-18)
(0.000169835 -3.8758e-05 -3.18809e-18)
(-0.000254886 0.000392539 1.44247e-18)
(0.000160877 -3.54677e-05 -1.48383e-18)
(0.000174577 -5.9141e-05 -1.75384e-18)
(-0.000567458 0.000333299 5.14977e-18)
(-0.000849487 -0.00398762 -4.91572e-17)
(0.00951871 -0.0677552 -1.99216e-17)
(-7.45049e-05 0.000417298 -4.52044e-19)
(0.0323214 0.00226279 -4.66807e-17)
(-0.00159172 -0.000337305 8.91832e-18)
(0.0116024 -0.0562495 2.50933e-17)
(-0.000199327 0.00295996 -4.49614e-18)
(-0.00179739 -0.00207554 1.7395e-17)
(-0.000321147 -6.00298e-05 6.21241e-19)
(0.0390825 -0.00090935 1.0193e-17)
(4.60527e-05 -0.000333687 -5.61141e-18)
(4.40804e-05 1.83852e-05 2.3434e-19)
(-5.64769e-05 -6.09078e-05 -2.28304e-18)
(0.000114259 -2.5382e-05 -5.60281e-19)
(0.0204176 0.0155756 5.5895e-18)
(-0.000353876 0.000435462 -3.35494e-18)
(0.000109182 1.17626e-05 2.37053e-19)
(-0.0023894 0.00147734 1.204e-17)
(-0.000800035 0.000298371 1.41059e-17)
(-0.000196607 -0.000229454 -2.41305e-19)
(0.000179296 4.51897e-05 3.23401e-19)
(-0.0120235 0.0100256 3.57567e-17)
(-0.000362836 -0.000134477 -6.16848e-18)
(-6.84272e-05 0.00038353 -1.44084e-19)
(0.00103819 -0.00866773 -6.66629e-17)
(-8.06689e-05 -0.000265923 1.77215e-18)
(-0.000173645 -0.0064782 4.56599e-17)
(0.00170652 0.000405822 6.59797e-17)
(-0.0322436 -0.000766085 -1.68766e-17)
(-1.46188e-05 -0.000428585 -1.53289e-17)
(0.000806938 -0.000156449 -1.91543e-18)
(-0.0371817 0.00475412 -5.52615e-18)
(-5.33174e-06 -6.87122e-05 -6.09133e-19)
(-8.60777e-05 -0.000344023 -7.96709e-20)
(-0.00136919 -0.00841021 3.82116e-19)
(1.77495e-06 -0.000107926 -2.57434e-18)
(0.000116458 3.16202e-05 1.38448e-18)
(-0.000538609 0.000797773 1.0871e-16)
(-2.96811e-05 0.000163676 7.7944e-20)
(-0.0239053 0.00651711 1.45445e-17)
(0.00564193 0.0077943 1.86256e-17)
(0.015641 0.0133387 -1.37266e-17)
(0.00145783 0.000502021 -1.12406e-16)
(-0.000230207 -0.000242789 3.41483e-18)
(-7.16391e-05 -0.000330744 2.56265e-18)
(-0.0147975 0.0254364 -2.60596e-17)
(-0.00297466 0.0170575 3.90061e-18)
(0.00458527 0.057017 -2.61408e-17)
(0.0186935 0.00699324 7.50832e-18)
(-5.44371e-05 -0.000191683 -1.32023e-18)
(1.93252e-05 -8.51176e-05 -1.37847e-20)
(-0.000274627 -0.000204309 -4.83471e-18)
(-0.0753718 0.0823016 -2.84337e-18)
(-0.00213276 -0.000460018 1.4082e-17)
(-0.000268399 0.000276626 -2.13221e-19)
(6.95745e-06 -6.80618e-05 -1.34242e-21)
(-0.000372099 0.000303906 4.4686e-18)
(-0.00174738 -0.0018404 6.23297e-19)
(-7.77395e-06 -0.00623175 -2.53562e-17)
(-0.000980268 0.000123858 -1.58857e-18)
(-0.000242228 -0.000250158 -3.21519e-18)
(-1.15462e-05 -0.000163588 -1.46935e-19)
(-0.00018878 0.00275791 6.08563e-18)
(-0.0480923 0.0135179 -2.61361e-17)
(0.0349328 0.00987676 -1.99513e-17)
(-0.00803502 0.00493155 1.36808e-17)
(0.0535773 -0.0183173 5.1367e-17)
(-0.00116352 -0.00227818 -4.498e-17)
(-0.00182007 -0.00162214 -6.54532e-18)
(0.0506084 -0.00134962 2.91204e-17)
(0.000408668 7.85626e-05 -5.06044e-18)
(-2.96428e-05 -4.71061e-05 -7.67945e-20)
(-7.96316e-07 -0.000216165 -1.09713e-17)
(-6.85075e-05 0.000415263 6.11244e-19)
(-0.00240121 -0.00213016 -1.71097e-17)
(-3.81991e-05 0.00019757 3.88379e-18)
(0.000115946 1.15684e-05 4.49414e-19)
(0.0033187 -1.87825e-05 3.24535e-17)
(-0.00169382 -0.00198753 8.06115e-18)
(-0.00110255 -0.000186545 1.23244e-17)
(0.0219759 -0.00274137 -1.09981e-17)
(-0.00126339 -0.00236999 4.58151e-17)
(-0.00201548 0.0062209 3.04722e-17)
(-0.000170175 0.000325379 2.58932e-19)
(0.000177225 -4.45527e-05 3.60403e-18)
(-0.000179107 -0.000401821 1.51216e-18)
(1.6807e-05 4.8413e-05 5.83401e-19)
(3.68778e-06 -4.73235e-05 5.58342e-20)
(-1.70309e-05 -0.000138397 1.53843e-18)
(-4.02768e-05 8.41221e-05 1.54733e-18)
(-0.0382202 -0.0644913 4.54216e-18)
(-0.000266923 0.000493231 5.34158e-19)
(8.92384e-05 -3.25847e-05 1.3976e-18)
(0.0186111 -0.0011062 -9.76748e-17)
(0.00312484 -0.000299222 3.62756e-17)
(-3.18182e-05 -6.97567e-05 -9.14617e-19)
(0.000861422 0.000329489 -6.37369e-18)
(-0.00282224 -0.000902094 -1.08698e-17)
(-0.0125273 -0.00713986 -6.81082e-17)
(-0.000561293 0.00026629 -1.55e-19)
(0.000104289 8.20651e-05 -2.85504e-18)
(0.0324837 0.00669937 1.76074e-17)
(-0.000429548 -0.000164261 -9.41773e-18)
(-0.0542318 -0.00393778 6.07591e-18)
(0.00397608 -0.00019873 -6.20234e-18)
(2.75045e-05 0.000268479 -2.68927e-19)
(0.00312762 -0.000563253 -7.19383e-17)
(0.00323151 -0.000603803 3.96975e-17)
(4.95345e-05 0.000193232 2.259e-19)
(-0.0259639 0.00926416 1.82298e-17)
(-0.0229397 -0.0898424 -8.1217e-18)
(-0.00790701 0.00631043 -1.19985e-16)
(2.29807e-05 0.000293603 1.04667e-18)
(0.000100914 7.43599e-05 -5.92722e-19)
(-0.00077576 0.000354584 4.93433e-18)
(-0.0164228 0.0189813 -4.50808e-18)
(-0.000174521 -0.00035938 1.05831e-17)
(-0.0464943 -0.0010344 -2.15098e-17)
(-0.0716979 0.0843791 3.301e-17)
(0.0302507 0.00233199 2.16456e-17)
(0.0139574 0.00805395 -1.4111e-17)
(0.000111226 -3.96253e-05 -2.77519e-19)
(0.00612676 0.00742499 -1.08831e-17)
(0.0045764 0.0140299 -3.65379e-17)
(0.00590295 -0.0190817 1.07711e-17)
(-0.0298152 0.0417016 1.17741e-17)
(-0.000236154 -0.00031562 1.05208e-18)
(-0.000961064 0.000109678 -2.60645e-18)
(-0.000918296 0.00024833 -1.44946e-18)
(0.0345703 -0.00686045 -7.96615e-18)
(0.00274567 0.000292199 2.51464e-17)
(-0.0449914 0.00814995 -1.43085e-17)
(-0.000304869 -2.20801e-05 -3.09493e-18)
(-8.57811e-05 -0.000408861 3.93342e-18)
(-2.31599e-05 -1.36256e-05 2.61546e-18)
(-0.00216609 -0.000492635 -1.8759e-17)
(-3.64328e-05 0.000129517 -4.63699e-19)
(-0.0170845 0.0289031 1.71402e-17)
(-0.000936747 0.000241722 2.72649e-18)
(0.00686263 0.0237413 1.61714e-17)
(-0.00012395 -0.000568615 7.38284e-18)
(-0.000352737 0.000273947 -3.13413e-18)
(5.03061e-05 -6.22301e-06 4.7727e-19)
(-0.000511576 -0.00106715 -4.76477e-18)
(-0.00118457 0.000311607 -3.88529e-19)
(-0.046986 0.0158426 2.70458e-17)
(-6.614e-05 -0.000252192 2.32004e-18)
(-0.0126861 0.0121001 -7.15152e-18)
(-0.00781679 -0.00320483 2.36988e-17)
(0.00363943 0.00266068 -1.79743e-17)
(-0.000231314 -7.33545e-05 -6.47096e-18)
(-0.000354987 -0.0002356 -5.19112e-18)
(0.0049607 0.002004 2.17952e-18)
(-9.90508e-07 -0.00011833 -3.4753e-18)
(-0.00106489 0.000792415 -3.37574e-17)
(-0.000655922 0.0046693 -2.44562e-18)
(0.00334892 0.0025844 1.53895e-17)
(0.00235384 0.0021957 6.40512e-17)
(-0.000428714 0.000468317 -1.44872e-18)
(5.57449e-05 0.000185896 1.29899e-19)
(5.30909e-06 -0.000147672 -5.18372e-19)
(-7.81731e-07 -0.000172245 -1.44437e-18)
(-0.000842425 0.000180578 -1.66454e-17)
(0.00114344 0.00082039 3.63489e-18)
(-0.00590094 0.00657879 -1.10058e-17)
(-0.000167444 0.000304385 -6.12176e-19)
(0.000713184 4.73948e-05 -3.15722e-18)
(0.130174 0.0574896 2.02369e-17)
(8.43597e-05 -8.82381e-08 6.47879e-19)
(0.00027236 -0.00124772 3.74353e-17)
(-0.000140654 -0.000285418 1.73537e-18)
(-0.000492622 0.0038868 2.48035e-17)
(-0.000165005 -0.000342582 -1.23223e-17)
(0.0234687 0.0142158 1.61436e-17)
(3.79492e-05 0.000247611 -1.41807e-18)
(0.0364394 -0.000659618 7.46234e-17)
(-0.000559481 -0.00035365 1.79646e-17)
(-0.000258319 -0.000307023 -9.69882e-18)
(-0.13162 0.115152 2.25102e-17)
(0.143807 0.053865 3.62711e-18)
(-0.0297294 0.00404254 2.78561e-17)
(0.0038836 0.00241273 5.78236e-18)
(-0.000328274 0.000421082 3.90402e-18)
(2.16096e-05 0.000304388 -5.29516e-20)
(-7.4514e-05 -0.000385478 -5.13968e-19)
(0.00571506 0.0314215 4.36916e-18)
(-0.000825572 -9.1476e-05 2.51346e-17)
(-0.00140872 -0.000136332 -2.83249e-18)
(-0.00302678 0.0013464 7.34864e-18)
(-0.0346693 -0.0727888 -1.94675e-17)
(0.022256 0.0601042 3.357e-17)
(6.8965e-05 -3.05505e-06 1.54976e-18)
(-0.0203857 0.0120952 2.72792e-17)
(0.0434842 -0.0254258 -2.60821e-17)
(0.000965502 0.000315451 -3.30511e-18)
(-5.097e-05 -0.000407628 -1.91681e-18)
(0.000168729 -0.00130564 1.08469e-18)
(0.0286078 -0.00336495 4.05828e-17)
(-0.000837387 0.000346502 1.2218e-18)
(-1.81144e-05 -0.000253655 2.76754e-18)
(-0.000290582 -0.00279814 -6.38219e-17)
(0.00199723 0.00204401 -3.81825e-17)
(-0.000413926 0.00062888 1.47222e-17)
(-0.000455425 -0.000961875 3.77306e-17)
(-0.00570912 -0.00808846 2.79672e-18)
(0.000837723 0.00143734 -2.81695e-18)
(-0.0115832 0.00286785 1.26159e-17)
(0.0411485 0.00284799 1.35213e-17)
(-0.056819 0.021548 -4.12836e-19)
(0.0104888 0.000349906 5.09017e-18)
(-0.00218441 -0.00186121 1.64855e-18)
(-0.00375978 0.00330117 9.24364e-18)
(8.04447e-05 0.00162064 3.83494e-18)
(-2.97929e-07 6.41671e-06 -5.26044e-19)
(0.000991025 0.000328171 5.37544e-18)
(-0.0001968 -0.000350143 8.74417e-18)
(-0.00015587 -0.00508508 3.32256e-17)
(0.00147662 -0.00504512 4.5887e-17)
(0.00354891 0.00960585 4.62946e-19)
(-0.000794889 -0.00396624 -6.76896e-17)
(-0.040511 0.00386224 2.15384e-17)
(0.00377719 -0.164292 -3.71028e-18)
(-0.000145583 -0.00264834 1.4934e-17)
(-0.000650929 0.000249844 3.19005e-18)
(0.0210772 0.00632759 -3.14029e-17)
(-0.0298317 0.00907656 2.75242e-17)
(9.74273e-05 6.38735e-05 1.23417e-18)
(-0.000556945 -0.004186 4.70126e-17)
(-0.0150498 -0.057671 1.81073e-17)
(0.0335074 -0.0337158 3.86854e-18)
(-0.000997745 0.000148594 8.39847e-20)
(0.000109893 -4.48405e-05 -4.13368e-20)
(0.000812599 0.00136987 4.23876e-18)
(0.00156394 0.0015299 -3.53406e-19)
(0.00505326 0.0016792 -8.74066e-18)
(-0.00636957 -0.00172674 1.95712e-19)
(-0.000173256 -0.000283845 -2.47574e-18)
(0.042717 -0.000671808 -4.51537e-18)
(-0.000578821 0.000309497 1.05095e-17)
(-0.000706222 5.809e-05 1.79162e-17)
(0.0346565 -0.00750973 8.54504e-18)
(-0.000169691 0.000198283 7.32445e-20)
(-0.00123125 0.000293622 4.23644e-19)
(-0.04074 0.0468132 4.90201e-18)
(-8.31425e-05 -0.000309107 -7.58193e-18)
(-0.000271563 0.000372196 -1.45561e-18)
(-0.0279648 -0.0138263 -2.04649e-17)
(4.60993e-05 6.04168e-05 -3.79199e-21)
(-0.0125109 0.012737 1.81974e-17)
(8.22745e-05 9.63461e-06 2.88808e-19)
(-0.00888213 -0.151387 -2.47405e-17)
(0.00409466 0.00247958 -1.31819e-17)
(0.00270454 0.00696694 -4.56874e-18)
(-0.00145719 -0.000206129 3.62546e-18)
(-0.00061183 0.000377073 2.98925e-18)
(-0.0158502 0.0178083 -2.11373e-18)
(1.17048e-05 -0.000345648 -4.47766e-18)
(-0.0511773 0.00882017 9.17896e-18)
(0.00653792 0.0200621 -7.41695e-18)
(0.000373656 6.26476e-05 4.5706e-19)
(0.0166511 -0.00382066 1.84037e-17)
(0.0030252 0.00732024 1.34146e-17)
(-0.00500509 -0.00840257 -1.60193e-18)
(-0.00904851 0.00219431 8.05616e-17)
(0.0177358 -0.000485723 6.46422e-17)
(-0.0414042 0.0126932 -7.00948e-21)
(-0.000163508 -0.0003357 -5.79481e-18)
(0.000113322 -2.6542e-05 -2.69198e-19)
(-0.0209745 -0.0975143 -4.58822e-18)
(-0.000385836 -0.000216048 -9.1711e-18)
(-0.00110287 0.000824775 3.48842e-17)
(-2.85477e-06 -0.000219788 1.69581e-18)
(6.86602e-05 0.00168505 -7.35092e-18)
(0.052387 -0.0185827 -5.28486e-17)
(0.0260089 -0.0160784 1.5468e-17)
(-0.000800896 0.000216392 1.51455e-17)
(0.05539 -0.000772275 -6.62156e-17)
(-0.00226902 -0.00206132 5.33578e-18)
(-0.000576664 0.000393243 -7.94198e-20)
(0.000111552 -4.41838e-05 -9.12927e-20)
(-1.32916e-05 -0.000239763 -2.48887e-18)
(-0.00257027 0.00138538 1.34922e-17)
(-0.00255075 0.00165534 -4.39751e-20)
(0.000149246 -9.34752e-05 -7.67343e-19)
(-0.0281292 0.00372079 2.8486e-17)
(-0.00111211 0.000137951 -2.03926e-18)
(-0.000867188 0.000656778 -2.19651e-18)
(0.000109291 8.35265e-07 -3.97597e-19)
(-0.0280733 0.00838783 -5.70394e-17)
(-0.0120818 0.00957554 -1.66581e-17)
(-0.000192775 -0.000361157 9.42377e-20)
(9.99989e-05 3.58514e-05 -7.80479e-20)
(-0.00155068 0.018484 2.12389e-18)
(-7.40735e-06 -0.000200231 1.95578e-19)
(5.2379e-05 0.000192845 8.84892e-20)
(-0.00403239 -0.149441 1.76585e-17)
(-0.000757993 -0.0042266 5.01209e-17)
(-0.000234385 -0.000240764 -2.48432e-19)
(-7.88021e-05 -0.00038922 8.82862e-19)
(0.0206367 0.0433964 3.42325e-18)
(-0.000960838 -7.40476e-05 -7.37939e-18)
(0.00402278 0.000746235 -2.86481e-19)
(0.000606685 -0.00280253 4.97018e-17)
(-0.000253561 0.000397495 -1.91106e-18)
(0.00417148 0.0163839 2.10903e-17)
(-0.00283299 0.00673663 1.97707e-17)
(-0.000266576 -0.000167339 5.49731e-18)
(-0.000824332 -0.00499636 -6.37455e-17)
(0.00536287 -0.0169413 -3.51469e-18)
(6.46198e-06 -2.1343e-05 1.39934e-18)
(0.0314079 -0.0151921 4.84699e-18)
(0.000101347 3.45248e-05 4.88253e-19)
(-0.000109004 -0.000260888 6.3105e-18)
(-8.59679e-05 -0.000358366 1.29906e-17)
(2.77609e-05 -0.00150086 -3.99586e-17)
(-0.00937411 0.00863045 -1.21214e-16)
(-0.00137221 0.00139182 1.31288e-17)
(0.0395556 0.00418115 6.77401e-18)
(-0.00128441 0.000246906 9.29671e-21)
(-0.051744 0.03675 3.5089e-18)
(0.0138735 0.00741703 -1.10896e-16)
(-1.947e-05 0.00151685 1.59328e-17)
(-0.0416946 0.00310403 -7.2618e-18)
(-0.00019777 -0.000402594 -1.6147e-17)
(-0.0268763 0.010909 -1.57205e-17)
(0.000926182 0.000348712 7.09446e-18)
(-0.0557562 0.00205957 -1.43525e-17)
(0.0281761 0.00770843 -1.83332e-17)
(-0.000327127 0.000210793 6.03887e-18)
(-0.000709532 -0.00800073 1.15276e-16)
(-0.00071702 0.000370501 -1.41343e-18)
(-0.000515475 -0.000369942 -2.2635e-17)
(-0.032412 0.00701106 3.94975e-17)
(-0.00069946 -0.00335336 1.89329e-17)
(-0.0354813 0.00574115 3.13731e-17)
(-3.41614e-05 4.58809e-05 1.97038e-19)
(0.0225408 0.0136498 -5.34097e-18)
(-8.88925e-05 -0.000516728 5.70346e-18)
(-0.0696983 0.0167078 -1.11004e-17)
(0.000444602 0.000107151 2.97948e-18)
(-0.00100217 0.000195087 -1.01193e-18)
(0.00455639 0.00208361 -1.11619e-17)
(-4.71956e-05 0.000171339 3.30246e-19)
(0.00012485 -9.83226e-06 1.87503e-19)
(0.000287823 0.0100371 -2.09317e-17)
(0.0244442 0.00594997 -2.20936e-17)
(0.0285413 -0.0370452 -1.05844e-17)
(2.11022e-05 -6.70443e-05 2.10285e-19)
(-0.000394031 -0.0059691 -1.15191e-16)
(-4.69271e-06 0.00141969 -1.36981e-17)
(-5.63149e-05 0.000136929 -2.49942e-19)
(-2.0404e-05 2.73446e-05 1.12567e-18)
(-0.000948535 -0.000277714 1.77483e-17)
(-0.018761 0.0109872 -2.87086e-18)
(-0.0296202 0.00898053 -6.30213e-17)
(-0.00119307 0.00133906 6.26515e-18)
(8.8316e-05 7.97899e-06 -3.38781e-20)
(-0.000834471 0.000359631 -1.4807e-18)
(0.0159203 0.0189526 -3.43918e-18)
(-0.000961537 0.000190427 1.50929e-18)
(-0.000159599 -0.000326805 9.58597e-19)
(-4.9808e-05 0.000191381 -3.94373e-20)
(-0.000854738 0.000372711 1.42311e-18)
(-0.000689362 0.00153679 -2.98097e-18)
(0.0608411 -0.000679303 -2.60708e-17)
(-0.000161739 0.000169499 4.43721e-19)
(-0.00774465 0.00265334 -7.14985e-17)
(-0.0023322 -0.00109588 -6.02893e-18)
(0.0265689 -0.0260931 1.12947e-17)
(-0.00718339 0.00607526 -1.09609e-17)
(-0.0159992 -0.0389497 -2.60546e-17)
(0.000106975 -5.50905e-05 4.45704e-21)
(0.013745 0.0119634 1.19383e-17)
(-0.000176094 -9.46509e-05 7.43388e-19)
(-0.000301285 0.000490799 -5.51601e-19)
(0.000717928 0.00218337 -2.20894e-18)
(-0.019834 -0.0514638 1.47366e-17)
(2.30303e-06 -3.09749e-05 1.88925e-19)
(8.79002e-06 0.000322756 8.63906e-20)
(0.000138094 2.35306e-06 -1.04712e-18)
(-0.0271977 0.00988702 1.45641e-17)
(-0.000412119 -5.28603e-05 -6.0336e-18)
(0.000385799 5.42276e-05 1.69792e-18)
(-0.00110011 0.00041722 -2.12783e-18)
(-0.000828294 0.000358087 -7.11622e-18)