/*--------------------------------*- C++ -*----------------------------------*\
| =========                 |                                                 |
| \\      /  F ield         | OpenFOAM: The Open Source CFD Toolbox           |
|  \\    /   O peration     | Version:  v2012                                 |
|   \\  /    A nd           | Website:  www.openfoam.com                      |
|    \\/     M anipulation  |                                                 |
\*---------------------------------------------------------------------------*/
FoamFile
{
    version     2.0;
    format      ascii;
    class       volScalarField;
    location    "500";
    object      ddt0(omega);
}
// * * * * * * * * * * * * * * * * * * * * * * * * * * * * * * * * * * * * * //

dimensions      [0 0 -2 0 0 0 0];


internalField   nonuniform List<scalar> 
18355
(
2.98912e-05
-0.1203
6.35897e-06
9.76e-07
1.0794e-05
-0.00445511
-3.80538e-08
-0.000387774
-2.42266e-06
-0.244634
5.69725e-07
0.164288
0.000829775
-1.79555e-06
-4.56729e-06
-3.73583e-06
0.134267
1.88451e-06
9.72342e-06
-0.342772
-8.9983e-06
1.80864e-05
0.0370327
1.12961e-05
0.0001237
1.32436e-06
-1.72108e-07
1.23575e-06
-0.28499
8.19218e-06
3.4874e-06
3.34696e-05
2.0586e-06
1.80235e-06
0.000280412
3.66395e-05
-2.96703e-06
-0.00612262
5.76223e-06
-2.5815e-08
-1.46514e-06
-0.00532775
7.21704e-06
-0.602929
2.73876e-06
-0.00332073
0.000246598
4.22738e-06
0.000183784
2.16803e-06
-3.95255e-07
3.29431e-06
-1.25427e-07
-0.343471
1.17229e-06
1.27153e-06
-0.00884282
-3.78777e-06
0.00159862
0.0046234
2.24292e-06
-0.00196088
1.42362e-06
-0.000566465
0.124067
3.42704e-05
-1.47647
-5.38166e-05
-3.1095e-07
1.38126e-05
0.000469109
1.87785e-07
0.00563768
2.6381e-06
-0.000358975
-1.82821e-07
0.0073798
2.89663e-05
0.00016684
3.38156e-06
-1.92612e-08
0.0366144
7.71154e-07
-5.08887e-05
1.27697e-06
0.000911284
-0.329014
-0.332819
-0.255383
-0.20992
-0.188503
2.36111e-06
1.31648e-06
1.44591e-06
0.47842
-0.0135813
-1.72955e-06
2.96448e-05
-0.332829
0.0167224
-1.14794
0.0524992
8.06252e-05
-3.05108
2.10213e-05
-0.00265533
0.372437
-0.00903823
-6.20724e-05
-0.390402
7.33268e-06
6.45126e-06
1.00734e-06
3.4929e-06
-0.377636
1.36482e-06
0.0148965
-0.0152678
-0.0078707
0.00015757
-0.214765
-0.960541
2.73818e-05
0.000488238
-1.68183e-06
-0.0265746
3.17574e-06
-2.17006e-07
1.43777
1.21952e-06
-4.65122e-07
-1.28038
-0.000698613
3.02096e-05
-0.00116409
-9.79038e-08
-8.95871e-07
4.74908e-07
-2.20683e-06
0.0015167
-0.57676
0.0533348
1.04455e-05
7.07247e-06
-0.0150007
1.72474e-05
5.64021e-05
-2.23694
1.72474e-05
-2.43177
5.8882e-06
1.80137e-05
-4.58756e-06
-0.00454358
-0.00535883
6.55223e-08
-1.46852
0.000868328
7.69309e-08
-0.00172847
-3.9608e-06
-1.68256e-05
-2.30619e-05
3.81147e-05
-0.0150683
-0.221431
-0.456546
3.20607e-05
-0.00438022
2.50021e-06
0.674184
-0.0600476
3.79191e-07
-5.11951e-08
-6.74165e-06
-0.0768754
-0.00161158
1.20048e-06
1.35616
-0.424647
0.0190598
-0.0179672
-1.57545e-05
2.1729e-07
-0.0104956
-0.0954656
-0.0434138
-0.000935499
6.5328e-07
0.140363
-0.00954439
8.49232e-06
3.522e-05
-0.522279
0.000163723
1.55998e-05
-2.63684
-1.06894e-05
-0.000445384
2.21589e-08
7.51027e-06
8.99721e-06
-0.462813
-0.0905884
1.26101
-0.000572292
0.000811873
0.0926591
0.226775
-0.000473136
-4.43717e-07
4.15446e-06
-0.292081
1.19908e-05
2.60467e-06
0.0213983
0.381306
-0.310923
7.8608e-07
1.68031e-05
0.0302941
-1.93057e-06
-0.000207852
-1.83005e-07
-0.398152
1.88011e-05
0.0438941
-0.135662
-0.207023
-7.79958e-09
-1.46032e-07
0.000174568
-2.21487e-05
0.0079265
-7.80675e-06
1.27855e-06
1.32779e-06
0.0106726
1.44239
1.48116
-6.44213e-05
0.00145989
5.32799e-06
2.6597e-06
1.59434e-05
-0.348613
1.24189
0.0134034
-0.00542535
-2.05131e-05
7.15388e-06
-0.037096
-1.64544e-05
0.249297
1.64786e-05
0.11582
0.309729
-0.00182942
1.17949e-05
1.96126e-06
3.03034e-05
0.000697097
-0.466613
-0.000835742
1.21359e-06
2.43557e-06
-2.80807e-08
0.0303894
0.00714666
0.0379967
1.24909e-05
-1.58313
-0.00272033
-0.00269275
-6.71286e-06
-3.47497
2.95202e-06
-2.91853e-06
0.0109561
1.46619e-06
-3.24526e-07
-0.00189389
2.73921e-07
0.284361
-1.62269e-05
4.30289e-06
1.67652e-06
-2.84283e-05
0.159006
3.31381e-05
1.33112e-06
-2.38027e-07
-0.00581909
-0.24202
-1.66855e-07
9.73669e-08
0.3478
0.000253462
-0.0054383
-0.101909
-2.7463e-06
0.000537461
9.42078e-06
1.68811e-07
-0.0437173
-0.0144624
-0.0967047
-0.00637174
9.97555e-07
-0.00392683
1.70778e-05
1.13755e-05
8.77462
4.31934e-06
0.0303631
0.00133572
1.24548e-06
-9.04215e-08
-0.0427158
-3.35511
0.0763595
-1.1697e-06
-2.99098e-05
-0.752139
-1.13167e-06
4.20672
0.000216298
-0.000357695
-3.4821
8.76596e-07
-0.0625513
1.34689e-05
0.000721152
8.74462e-07
-0.00523574
0.159262
-4.80131e-08
-0.481853
-0.000143101
-1.72872e-07
3.42553e-05
-0.00221624
-2.02148
-0.391998
-0.952387
1.60845e-05
1.36234e-06
0.147919
-0.00908647
1.35571e-06
-1.69758e-06
1.43497
-0.00446494
0.0179042
0.228336
7.63659e-07
9.89455e-06
0.0237154
7.18153e-06
-4.07428e-06
-0.0549641
-0.000486854
3.36688e-05
-2.44585
-7.42989e-08
-0.00213986
0.0356808
1.43068
1.3003e-06
8.26939e-06
-3.71529e-06
-1.06159e-06
0.00173149
-1.11355e-06
0.000161795
-3.75786e-06
-2.41477e-05
7.75669e-07
-1.73538e-06
-1.69257e-06
8.52545e-06
-1.89941e-06
-1.80632e-06
-5.54932e-06
-0.0209838
2.05105
-8.61262e-07
-0.00227724
-0.00159037
1.80893
-0.000149227
0.000693253
2.1836e-05
0.434917
-2.25172e-06
1.35736e-06
1.27623e-06
1.21828e-07
-0.372344
-7.59265e-06
2.97984e-06
-0.000193466
0.00024668
8.83027e-06
-1.04396e-06
-0.0474893
1.48004e-05
3.27071e-06
0.00836628
-4.52913e-07
0.0354388
0.102603
-0.0478443
-0.000132681
2.0711e-05
0.123765
1.84284e-07
-1.92155e-06
0.00137669
9.80428e-08
2.30112e-08
0.141376
2.63894e-06
0.146485
-0.00066418
-0.00278011
0.101361
6.6229e-06
-2.01513e-06
0.00581304
-0.00453727
0.825562
0.90305
-3.72958e-06
1.67028e-07
1.58488e-05
0.168786
0.00152934
9.55321e-06
1.36146e-07
1.37637e-05
-0.00226254
0.012368
0.000175812
1.45863e-05
-8.46943e-08
-0.000130624
-0.520315
-0.262839
0.116196
-0.154641
-0.00059374
-0.000143503
-0.393446
1.80825e-06
1.46366e-06
-1.49252e-07
-1.39735e-06
0.00446076
-1.49098e-06
3.2319e-06
0.026966
0.000767281
-5.91849e-05
-0.195922
0.00247851
-0.143984
6.60156e-06
-1.80485e-06
6.24552e-06
1.89115e-07
8.48602e-08
-2.3253e-07
-2.3169e-06
0.0485486
-1.67637e-06
1.83991e-07
-6.49732
0.00426842
1.32478e-06
1.91724e-05
9.31357e-05
0.172305
-1.9699e-06
-1.97857e-06
0.0447119
1.41354e-05
-0.809815
0.000243884
-8.53539e-07
-0.010949
0.00410595
1.98765e-06
0.23377
-0.171739
-0.230798
-7.12244e-07
-1.87184e-06
-2.49046e-05
-0.00677878
7.69405e-06
-1.36331
0.177542
-0.0750898
1.90695
-2.62914e-09
-0.000596199
-0.149049
-0.00229943
-0.482301
1.34581e-05
-2.38017e-05
6.05896e-05
-0.251584
0.0559726
-0.193858
1.81108e-05
-2.53912e-06
6.07825e-07
0.00195649
-2.09572e-06
0.0471687
-0.000519746
-0.40695
1.79983e-06
1.3714e-05
1.95235e-06
6.74926e-05
-0.000241825
-0.166106
-1.57149e-06
-0.00431188
0.0138614
8.96676e-05
1.19799e-05
5.30061e-06
0.000177387
9.64196e-09
-3.58236e-05
-0.000495732
6.35728e-05
0.00196012
-5.77161e-06
1.892e-06
1.61827e-07
-8.03751e-08
-0.000418731
3.63542e-05
-0.00184196
6.74066e-06
1.10955e-05
-0.557426
6.66631e-07
-0.000103037
7.58909e-06
0.00377473
7.36696e-06
-0.355367
-1.36213e-06
-1.5899
-8.03821e-06
5.06378e-06
0.278218
-0.453818
0.168297
0.000114103
-6.66785e-06
-4.88185e-07
-3.13423e-06
-0.00943617
0.00043035
-0.000470182
-0.00846623
0.0234753
-0.00467972
1.61147e-06
0.0640975
-1.02415
2.30232e-05
-2.80966e-06
-0.000467423
-0.229738
3.05781e-05
1.8046e-07
0.0128945
0.00160792
0.000277964
3.5302e-05
-0.000309881
2.69741e-05
-0.00166348
-0.709907
-4.17376
-12.7019
0.00395684
0.0134758
-8.89716e-06
1.14599e-06
2.40824e-05
7.14423e-06
0.0314131
-0.16504
-0.0890897
-0.00900517
0.115807
0.901235
0.0163676
-4.98977e-06
-0.0761084
-0.155796
-8.31243e-09
-0.0722427
-1.3903
1.01851
0.000373333
7.49222e-08
2.68366e-05
4.48488e-05
0.000185698
-0.000110136
5.96539e-06
-2.05009
-2.74846e-06
-4.90416e-06
-0.231392
7.43947e-06
0.00134484
-0.474101
-2.94177e-06
-1.10386e-05
0.224134
2.10947e-06
-0.00443859
6.90371e-07
0.565593
0.000104804
-0.000684303
-0.00231138
-2.19293e-05
-0.00626754
8.87807e-05
-2.48558
-0.00492753
1.48681e-06
-0.468298
-0.000724517
-0.0743426
0.258184
-0.789429
-0.0324662
5.38205e-06
-4.21638e-08
-0.196029
5.37949e-06
-4.44248e-05
2.36229e-07
-9.5955e-06
-0.273171
0.338506
-0.000127554
-2.66727
0.00415615
-1.74727e-05
9.2515e-08
2.58732e-07
-0.000149918
0.00228981
-1.55009e-06
-0.172962
0.000868081
0.000283127
7.70199e-07
0.236767
4.25041e-05
8.45443e-06
-3.13816e-08
-0.00504024
7.83865e-08
1.9856e-06
2.00348
-0.0451218
1.20679e-05
-2.80515e-06
-0.0135524
0.000334944
0.000207734
0.00303304
7.48772e-06
-0.192092
-0.00115536
1.73734e-05
0.147883
-0.0673489
-4.40027e-07
0.331427
8.94527e-07
-2.57041e-06
2.20479e-06
0.000249176
-0.0613997
-0.000119044
-0.379848
0.000202823
-0.301027
0.887178
-7.63535e-06
0.107257
9.72215e-06
-0.165127
2.1229e-05
-1.36583
-0.127801
1.4556e-05
0.01531
-2.00193e-05
3.20456e-06
0.00509348
0.0128627
0.129883
2.0742e-06
-0.358091
-9.27414e-07
-2.03393
3.56373e-06
0.000113948
0.000134621
3.20016e-06
8.67858e-07
-0.00171332
-0.721049
-2.24881
1.884e-07
0.0102552
-4.13937e-06
3.24006e-06
5.44151e-07
-0.000310143
-0.00370709
-0.120466
-9.99505e-05
4.62136e-06
-1.83159e-05
-0.335463
0.000310363
4.72193e-06
3.26329e-06
-1.6253e-05
-5.56552e-05
-3.24218
7.37372e-06
0.00870879
2.20282e-06
-1.87664
-0.220668
-1.43675
6.7242e-08
-0.00206745
7.81898e-06
-4.62219e-06
-1.86903e-05
-0.671364
1.16641e-06
-2.4969e-07
3.82233e-07
-0.140655
1.40754e-05
2.27573e-06
0.000215982
2.37846e-05
-0.0518786
0.279022
-1.30171e-06
-1.91904e-06
-0.0923704
1.75483e-05
0.292657
-0.153903
0.0176251
-0.00421775
-0.0166263
0.0152954
0.000137109
6.94644e-07
2.66574e-06
1.41471e-05
1.3289e-05
1.32174e-06
1.60415e-05
0.0277168
-0.843249
-6.10574e-06
0.00431164
1.88216e-06
-1.79633e-05
0.000271077
1.10454e-06
-4.60257e-06
-1.29298e-05
-0.024622
0.0114034
0.000450391
0.136646
-0.000168936
-1.4629
-0.00691418
-0.225439
0.39452
-0.00121092
0.0356522
-0.0196614
0.23212
-6.35274e-07
-3.76013e-06
3.07024e-07
4.49622e-05
-0.0343078
2.49133e-06
-1.47689e-07
0.000446302
1.06786e-06
-0.000585228
-7.63351e-05
2.79616e-07
0.128748
9.45427e-07
-1.94252e-06
-0.0143956
1.19284e-06
0.00973842
-0.295778
1.25119e-05
2.38881e-05
3.03651e-06
3.73556e-05
1.29599e-06
-1.6064e-05
-0.0426495
-7.21128e-07
0.200511
-3.60314e-06
0.198852
7.4026e-05
-0.0099437
-3.25474e-06
-0.0043284
5.56344e-05
6.51752e-07
1.18771e-05
0.278288
-1.85864e-06
0.337443
0.344301
1.22672e-05
9.01748e-07
1.05155e-06
-4.87717e-07
2.33363
-3.03744e-06
0.28072
-2.39507
6.72866e-05
-0.283385
2.19128e-06
4.61929e-06
0.0827209
0.32192
-8.80639e-05
-1.22497e-06
5.76195e-06
2.55458e-06
3.85947e-05
-1.00269e-05
-0.0114677
-2.62722e-05
-0.937434
0.00350143
0.660797
7.13676e-06
-2.46742e-06
-0.121895
0.453725
4.17292e-05
-3.13454e-06
1.16336e-05
0.502943
-1.78452e-06
0.441742
0.00175258
1.37159e-07
-0.000216724
2.20545e-06
-9.81749e-05
-1.03092e-05
1.12244e-06
5.93675e-07
3.39007e-05
-0.492619
2.29146e-07
-0.00183522
-0.323402
1.10549e-05
-2.03061e-07
0.000813618
-0.4545
-0.000108365
0.124067
-5.66998e-07
-4.66357e-07
-1.8197e-05
-0.248204
0.20159
0.000775636
2.20994e-06
-9.27143e-05
1.29139e-05
0.0488408
-1.34674e-06
0.220622
-4.18699e-05
3.12827
4.19573e-07
1.02694e-06
-0.0111281
3.80407e-06
-0.67024
1.29869e-06
0.0276819
1.24997e-07
2.45982e-06
-3.03953e-06
0.0150998
0.0974214
-2.05408e-05
1.71383e-06
9.41755e-06
1.54952e-06
-1.51429e-06
-1.14175e-07
-0.00184541
5.4385e-06
-0.419919
-1.54084e-05
0.245684
-1.66773e-07
-6.57599e-07
-0.457061
0.312434
0.291695
-5.21532e-06
-0.0743457
1.41231e-07
-1.67503
1.28951e-05
0.0171772
3.05461e-06
-0.328325
5.00318e-06
-1.1234e-05
-4.23758e-07
8.04471e-06
-3.20489e-09
-0.430158
2.54045
-0.0839291
0.000120802
5.92196e-05
-1.82919e-05
3.83617e-07
1.37125e-06
2.01712e-06
8.50391e-07
0.00387909
2.34497e-06
-1.27748
0.00257608
-1.26589e-06
7.87332e-06
-1.79269
-0.00944598
1.22776e-07
-1.6688e-05
0.0002926
0.121278
-0.00190281
-0.186392
-0.00196192
-0.00476422
0.00474902
-4.87485e-07
7.16922e-06
-4.77574e-05
-0.0003147
-4.21758e-07
-0.216356
-0.0008052
0.0459777
4.93501e-06
-0.0801905
0.000266525
0.000670975
1.10186e-05
-2.10011e-07
0.176754
-5.15215e-07
-1.51195
1.36193e-06
-4.63814e-08
0.232956
-0.000123615
0.00012622
-0.0350128
6.63281e-06
0.00645975
-0.681072
-2.22177e-06
0.000344832
-0.431176
9.93185e-07
7.56108e-06
-7.33625e-07
2.707e-05
6.94195e-06
-0.00520443
0.253975
3.77047e-05
-0.0001462
-0.87245
8.69887e-07
0.0585604
7.29459e-05
-1.34451e-05
-0.337353
-0.0180494
2.21868e-06
1.63619e-08
3.61992e-06
-1.28338e-07
1.19343e-06
0.157271
-6.04938e-08
0.000151122
-8.66506e-08
0.0170459
2.01901e-06
0.0667531
0.0460584
2.32094e-05
-0.206085
2.05563e-07
-3.36389e-06
8.51038e-06
-0.252879
-0.000539146
8.79163e-07
-1.73655e-06
-5.98429e-06
7.04188e-06
-0.000854238
-0.131997
0.32557
-0.359835
4.98298e-07
1.35766e-05
-0.00504009
1.35743e-05
-1.3486e-06
-0.0550286
-0.25767
-1.66541e-05
-1.20151e-06
-0.186451
2.66054e-07
4.55986e-07
-0.155591
-0.0050224
0.541176
7.78582e-06
-2.6537e-06
0.119125
5.83609e-06
5.95431e-05
2.54641e-07
3.7355e-05
-5.68628e-07
0.000648908
-0.000605703
-0.000718204
1.30134e-06
-0.423754
5.96315e-06
8.672e-07
4.76184e-06
4.3193e-07
3.04663e-06
-4.82352e-06
0.00110265
-2.2512e-06
0.141798
-5.57268e-06
-1.46509e-05
0.369916
1.4625e-06
0.0699401
1.02931e-05
1.48028e-06
8.83075e-06
-0.00479024
-3.41795e-07
-1.03441e-07
1.08206e-06
1.05836e-06
-0.00218486
1.44226e-06
1.79446e-05
-2.99582e-05
1.22055e-06
0.0011299
0.385541
-0.195134
0.106479
0.0558755
-0.00286072
0.000651132
0.0737073
-0.204607
7.34708e-07
1.40354e-05
4.81305e-07
-0.0568252
-0.0151224
0.000555786
-2.06408e-05
-5.32543e-07
8.90493e-06
5.77764e-07
1.02423e-05
-0.102362
-0.430775
0.0937951
-0.00135632
1.20642e-06
3.2491e-07
8.22024e-07
0.177983
-0.00530333
-1.06583e-06
-0.00435789
1.0591e-06
-3.49336e-05
3.04233e-05
-1.44229e-05
-1.48266e-05
-0.349468
1.22128e-05
0.0316144
7.72021e-07
1.0126e-06
0.000998443
-1.81604e-06
1.27243e-06
-0.00194434
-0.00714736
1.06758e-06
-0.0158235
-1.72309e-06
-1.45322e-06
2.31487e-06
-2.18796e-06
0.153067
0.000210735
-2.84361e-06
7.30892e-06
-0.201466
0.0461529
1.97863e-07
-6.00987e-05
-6.41354e-05
0.00787735
0.0475804
-0.0104917
0.00992216
-0.00203423
-0.0061625
-0.00481627
0.0019181
0.141933
-8.58502e-08
-8.70836e-07
3.15267e-06
0.0623175
1.86126e-05
0.270493
-2.06084e-06
1.34173e-05
0.25218
5.78747e-05
1.48781e-05
0.00765988
-5.56714e-07
1.44332e-06
-0.0039487
-0.00953486
-3.11204e-06
0.67753
0.00351849
0.903348
-0.440573
-1.56968e-06
0.149242
-1.12897e-06
-0.00143956
6.92021e-07
9.77995e-07
-0.141822
0.00019828
-2.07563e-05
1.0198e-05
0.113711
-1.8333e-05
0.0124525
0.00678653
-1.74413e-08
-1.12752e-06
-1.06804e-05
0.0235875
-0.0163636
-0.000635785
-0.000274451
-0.0180142
-5.86944e-07
-1.29681e-06
-5.82713e-07
-1.447e-06
9.06489e-06
-0.00119066
0.0207244
-0.000864136
-0.00580979
0.147082
1.5749e-06
2.85151
0.0036079
-1.30183e-05
3.6058e-07
-3.08162e-06
-1.19882e-06
1.06117e-06
9.56002e-07
1.57972
0.00319134
-0.311176
-0.000785586
-0.00206865
1.42791e-05
-0.00183122
-0.217085
-4.92313e-06
2.13242e-05
1.16377e-06
-0.463957
-0.0626891
0.0015373
-0.00733586
-2.53367e-07
-0.772595
-8.60879e-06
-1.66811e-05
-0.000611359
0.000301175
-1.36891e-06
-0.00474896
0.0479593
1.04792e-07
1.01963
-0.409723
0.41713
1.5909
4.80842e-05
-1.88416
0.00425913
-0.00460218
-0.277616
-2.72392e-07
-0.000346772
-1.28756e-06
2.32612e-07
-0.281398
3.37598e-05
0.301362
1.6605e-06
9.14016e-07
-0.139736
1.08735e-05
-0.392072
-9.9437e-06
-0.276069
7.83624e-06
1.7126e-07
0.113675
8.71672e-05
-0.00369813
6.22247e-07
-1.76826e-06
-0.00730136
0.0143916
1.27406e-07
1.43941e-05
0.0630739
-0.00266079
0.0168347
-1.37201e-07
-3.0158e-06
3.16313e-07
1.31648e-06
5.52028e-05
-9.08888e-06
5.94028e-07
-0.0941953
5.08845e-06
-2.1245e-07
0.000602163
-0.416659
0.0232522
-8.39747e-06
1.92536e-06
1.77887e-05
0.000100303
0.000237375
0.00242124
-0.0709051
8.97004e-05
5.61936e-05
-0.0243561
4.79647e-07
0.00051641
-0.208372
1.01136e-06
-0.00177393
-2.43426
-0.239683
2.1665
0.318887
-0.00412844
1.22454e-05
2.62929
-5.30042e-05
-0.000766187
0.0015558
4.92658e-06
0.001395
2.499e-06
2.30123e-06
-0.00122037
0.113759
-0.00150142
2.48138e-07
6.2438e-05
-0.437753
-0.0045039
0.304164
1.92717e-06
-0.434748
-1.4478e-06
0.00156738
0.00303771
9.70763e-06
0.161967
-1.12954e-06
1.01533e-06
9.29511e-06
1.71703e-06
0.306126
-0.00537438
-7.16354e-08
0.140167
2.29316e-07
0.146272
-1.22733e-06
-0.423955
0.00102195
0.0116312
4.25027e-05
9.55628e-06
1.33774e-06
2.42036e-06
0.0260557
0.00715977
8.0824e-07
-0.000685673
-0.379723
0.454116
-0.000733733
-0.173887
0.137232
1.00356e-05
0.186824
1.80627e-06
-0.0197757
1.81959e-06
3.90752e-06
2.29692e-06
0.000589568
-1.32283
-0.00643314
0.0023867
-0.00856837
0.113887
0.016956
-0.219846
7.24574e-07
0.00113403
0.23577
1.5612e-07
-0.00118639
-0.0763529
-0.00348529
5.81198e-06
-0.349051
0.000993366
-0.428675
-0.111898
-2.40801e-06
-0.0157956
1.87882e-05
4.52625e-06
3.8507e-08
0.0866163
-0.00825748
-0.0224528
-0.00415538
2.3576e-07
2.92624
-0.00114549
1.16885e-06
1.76482e-05
-0.00140796
6.57237e-06
5.00837e-08
-8.20844e-09
0.050991
1.40987e-08
-5.1195e-06
0.358922
1.66002e-06
1.15118e-07
-8.47911
1.02054e-06
8.64182e-05
0.000146994
0.00333625
0.00310643
9.51793e-06
-0.00266423
-1.34125e-05
0.00662648
-4.34067e-06
-1.5806e-05
-0.0317614
-0.0716422
6.51537e-05
-0.115341
-0.0765011
-5.78712e-06
-0.00109743
-0.240967
-0.00447409
1.68769e-06
1.8411e-08
-0.119521
3.9544e-05
0.335888
0.032105
-2.35236e-05
-0.0575399
-4.78494e-06
0.0029223
0.230242
1.14821e-05
7.63869e-07
8.6908e-07
1.33872e-06
0.820003
0.371332
2.07502e-05
0.00226303
0.58105
0.000639536
-3.44508e-06
2.59228e-05
0.000598206
1.67164e-06
9.5792e-07
1.58179
1.58702e-05
0.00772384
1.9858e-06
4.67999e-07
1.98227e-09
0.000128386
0.000179441
-0.000105606
-4.31872e-06
9.2903e-06
0.382588
0.921928
-0.00429852
0.101549
-2.13987e-05
3.58869e-06
0.396294
0.000969885
0.888565
-0.00569217
5.65685e-06
0.000214637
-0.00022992
2.562e-06
1.59198e-06
-0.00199947
-0.00497393
-0.254266
0.000494055
0.238813
-4.26341e-06
-1.2485e-05
9.75969e-07
-0.00981183
0.397804
-0.00800766
0.0370695
6.99279e-06
0.148279
1.7546e-05
2.05473e-07
-2.91699e-05
1.54782e-05
-0.56692
-1.91652e-06
-0.00573595
1.55019e-06
0.00142731
-6.55628e-05
-2.10071
4.14846e-06
1.09743e-06
8.66799e-05
1.66467e-06
-0.00211264
-0.00194206
0.256245
0.000163046
-6.99702e-08
0.337094
-0.000640182
4.8189e-06
-0.000249172
-1.78783e-06
8.55001e-06
4.45315e-07
-0.255456
-1.45175e-05
0.000377422
-9.8371e-05
1.61219e-06
-0.431127
9.14371e-08
2.47653e-05
-3.90263e-06
-2.16631e-06
2.15602e-06
9.40662e-07
-9.2819e-05
-1.32056e-07
-2.10164e-05
1.53315e-06
-1.47606e-05
-8.48139e-05
0.414098
1.54393e-05
-0.000743744
0.214719
1.01038e-06
8.38801e-07
0.000420658
-0.00981794
1.46934e-06
-0.000417013
-2.16124
-2.3264e-06
-0.281211
-0.966732
2.76441e-06
-1.15739e-05
0.000200653
1.90366e-06
0.30377
-0.019415
-0.268973
8.55922e-06
-1.41608e-05
1.82669e-06
0.00813482
-6.17887e-05
0.114519
1.61719e-07
0.00890963
0.18647
-0.00528099
1.96602e-05
-6.56146
0.209485
-0.210514
6.77334e-06
1.60668e-06
-0.329888
0.00139985
2.28478e-06
-2.76803e-07
-0.208225
-1.12839e-05
0.0273614
-0.00346398
2.14026e-06
-1.13873e-05
-1.99987
-0.0039187
1.31381e-05
1.35352e-06
-0.000592567
-1.97313e-07
-0.0413336
4.49213e-06
-2.38156e-06
1.00787e-05
4.02844e-05
7.07755e-07
0.00258052
-1.85787e-06
-2.83203e-05
-0.445062
0.0512429
-0.480813
4.13271e-06
0.000712929
-0.00514846
1.01188e-05
-9.72091e-06
-0.000634618
1.01451e-06
-8.96824e-06
-0.0945237
-0.000399738
5.57508e-06
7.40776e-06
-7.58734e-07
0.0388127
-0.311151
-1.76671e-06
2.53617e-06
4.04326e-07
-0.00207023
0.169352
1.21095e-05
0.000873841
1.23123e-06
0.000139656
0.000119184
-0.00836558
0.132453
-4.60084e-06
0.0570373
0.294374
0.000420391
7.37436e-07
0.000344485
-3.36902e-05
0.00155825
-2.75309e-05
-7.4697e-07
-0.00913484
2.74139e-05
-0.00338693
-0.00208801
1.52768e-05
-1.87436e-06
-0.171697
1.64663e-05
-4.5989e-06
-0.00879831
0.00128151
0.606938
-0.489379
-1.32926e-06
-0.129354
-1.04967
0.00582767
0.000817715
-1.04172e-05
2.22435e-07
3.89206
-0.000322105
-6.59336e-07
-0.00029409
-0.00247149
0.00352139
-0.1194
7.90464e-07
-8.27371e-06
1.40321e-05
-0.00752244
0.0415489
5.24063e-07
0.000492426
6.93226e-07
1.07463e-05
4.94403e-07
0.398618
0.000384562
3.84524e-06
4.38409e-06
0.0606809
1.37742e-07
5.5169e-07
-2.64468e-06
0.0280187
8.32326e-06
5.81362e-07
2.9507e-06
2.462
-5.23405e-06
-2.70776e-06
3.0778e-06
1.01538e-06
-0.133271
-1.52895e-06
-2.25031e-06
-0.724087
0.515814
6.61321e-06
3.02876e-08
-0.00211534
5.36995e-05
-0.00336985
-2.07958e-06
0.0253388
1.04714e-06
3.67395e-06
-4.47299e-05
0.583047
0.301326
0.0178148
-0.000685812
-0.0270999
-0.00356295
2.91092
0.153978
-2.46587e-05
6.20199e-06
-5.22477e-08
-0.000271377
4.89841e-06
1.93775e-06
1.4298e-06
-0.00415824
8.50415e-06
-0.551681
-8.58046e-05
-0.217728
4.45705e-07
-0.188329
9.11925e-06
-7.53889e-06
1.38163e-06
-1.38256e-05
-2.22601e-05
0.0135546
-4.10545e-06
1.89153e-06
-1.82816e-05
-0.240558
-2.53416e-07
-0.000583369
1.56979e-07
0.000386736
0.344491
-0.0171227
0.00104033
0.000331444
0.00520214
-4.37239e-06
-0.238332
0.243718
8.29458e-07
0.0170152
0.05061
8.25441e-06
4.00836e-07
0.000355383
1.72315e-06
0.000365801
1.88054e-06
0.170078
0.000523439
0.000442248
1.26837e-06
1.03157e-06
8.07482e-05
-0.0435678
2.02626
0.0316681
-0.000246526
0.150345
0.00029537
0.605793
-1.67781e-07
0.00210986
5.69529e-07
-2.38928e-05
-3.60942
1.39562e-05
0.040491
7.83754e-06
-2.00789e-05
-0.22388
2.05382
1.0321e-06
-0.0755729
4.79897e-07
0.0688574
2.57004e-06
-0.0786025
0.101808
-8.7183e-07
-0.18881
-7.16555e-07
-0.291803
-2.55167e-06
-2.82803e-05
1.02254e-05
0.00048675
6.34203e-07
0.025408
1.57836e-06
-0.0515279
-0.0021689
-0.199826
2.80358e-06
1.24109e-06
0.569047
1.9256e-05
0.000131329
6.82774e-06
0.0110292
-2.3168e-05
8.55627e-06
0.423725
1.5349e-05
-2.13484e-06
-1.15928e-06
1.36535e-05
-0.23832
-0.000296243
1.00815e-06
-0.344039
0.142879
0.206473
-1.53203e-07
0.00183763
0.00235262
-2.47681e-06
-1.17083e-08
-8.11393e-07
-2.31624e-07
2.87995e-07
3.31009e-06
-1.20314e-05
-6.56107e-07
0.0422091
0.0198759
0.0268229
2.17849e-09
-2.41164e-06
-0.133389
-2.26166e-05
-1.52987e-06
2.46338e-06
-1.74941
0.333415
8.60307e-06
-0.271631
0.000985809
-0.0298863
-7.31836e-08
-0.0340177
2.06786e-06
2.82468e-05
1.02168e-06
9.72225e-07
7.81734e-06
-0.347083
2.10255e-06
-0.109498
0.00591539
-0.0856757
-2.13006
1.11042e-06
3.09941e-06
-0.130969
-0.000283479
-0.0131299
-3.25939e-06
-0.00924963
-2.8444e-06
0.364914
-0.303719
-0.0170626
3.01757e-06
0.222425
-0.465099
-0.397306
0.191622
-4.20869e-05
0.000700797
7.04718e-06
0.521705
-0.0883799
1.93372e-05
-0.25266
1.25773e-06
-1.93767e-07
-0.000600256
-1.66228
-0.00015057
-1.7727
8.82642e-07
-0.122198
-0.000657771
-0.000385394
1.37802e-06
0.000358423
-0.0904725
-7.7594e-08
-0.000537581
-0.000116772
0.00242886
2.68123e-07
-9.06737e-08
-0.220176
0.0107187
-1.1745e-05
0.0010812
-0.00107771
-1.63341e-06
-0.402745
-0.769761
5.10659e-07
-0.0937892
1.60558e-06
3.71572e-06
-0.000959114
-0.225508
2.01379e-06
0.0195101
-1.74837e-05
5.96033e-06
0.00289885
2.67035e-06
-0.00408182
8.59602e-07
-0.00667839
-8.92149e-07
0.00689347
1.02009e-06
0.00394101
7.93136e-08
-3.50211e-06
-0.0835177
0.375726
0.00117065
0.143861
9.02799e-06
-0.407807
0.0479475
-0.163494
1.01962e-06
-0.122042
-0.0956423
0.113652
0.0749206
2.28951e-05
1.90595e-06
-1.28712e-07
-0.201816
4.416e-06
1.74168e-06
-0.464581
2.11461e-07
-0.395494
-1.41851e-05
0.0669294
1.16037e-05
2.19082e-07
-0.0072352
2.52959e-06
-0.00232276
6.44229e-06
-0.00052634
0.00203981
0.285905
1.47594e-06
7.22648e-06
0.424459
-0.52071
-5.15004e-08
1.73136e-05
-0.000155585
-1.2889e-05
0.0243831
-0.0773632
0.411649
-0.00505344
0.0854332
0.238543
-0.0135529
9.67552e-07
1.77916e-06
1.10544e-06
-3.7683e-07
0.000579557
0.252184
-0.301169
1.06083e-06
-1.45515e-05
1.47262e-05
0.478259
0.159213
-0.113941
0.200557
1.64473e-05
0.366515
0.0312146
2.67224e-07
-0.211201
-0.00109617
-3.24174e-06
-0.0042976
-0.194564
-1.30139
1.67919e-07
-1.44499e-05
0.00060726
0.120193
4.34142e-06
1.53902e-05
2.52459e-07
1.27171e-06
2.08791e-08
-0.17231
-9.7544e-06
1.79085e-06
0.345564
1.09657e-06
-0.119989
-0.000163962
-0.0143907
-0.00710637
8.31501e-07
0.521414
0.0861756
0.0238705
1.12213e-05
-1.51042e-05
-5.41615e-08
4.2553e-06
0.16835
-0.0109232
0.000801119
6.10602e-06
-2.57491e-07
0.0124317
-5.06681e-06
2.18626e-07
-3.5907e-05
-1.90731e-06
-0.209932
8.07208e-07
-0.0880886
0.10098
1.00109e-05
6.39992e-07
-0.26958
1.125e-06
-1.1955e-06
0.120979
-1.88724e-05
-1.76326e-05
0.00165086
0.00516096
0.358042
-0.000282243
7.78645e-06
-5.2222e-07
-0.0287862
0.241268
-5.28842e-06
-0.000110329
6.74106e-06
-6.59415e-07
-1.60872e-05
-1.7504e-06
0.0499908
2.8529e-05
1.45406e-05
-5.23227e-06
6.47714e-07
8.79918e-06
-5.86752e-07
-3.07453e-08
-0.00149526
-0.985972
-0.0112684
0.0122047
0.374224
0.0858174
-2.38317e-05
0.136623
-2.47603
0.212765
-3.22245e-07
-2.51161e-07
0.00192635
2.91155
0.0294596
0.0151141
0.113598
1.05856e-06
1.14867e-06
-0.352864
1.11802e-06
-0.012739
-0.00279231
1.08935e-05
0.266423
-0.101956
1.54124e-07
-0.15431
-0.462029
0.000538078
0.101012
1.70622e-05
0.549264
0.0282116
-0.0407546
9.08338e-07
0.000455186
1.03258
1.32469e-06
-0.000668333
-2.83308e-07
-0.000325226
1.39066e-05
0.234567
0.405571
9.09099e-06
2.08058e-05
1.56611e-05
0.126031
-0.000215191
1.68104e-05
1.38849e-05
0.0977624
3.01606e-06
2.02137e-05
0.00282033
-0.0458103
-2.01486e-06
0.024284
-0.00953226
-2.42469e-06
-0.0125436
6.47317e-07
-3.62908e-06
8.79339e-05
-3.12794e-06
0.000299435
-0.0692877
0.0110052
-1.27793e-06
-0.491147
0.820247
-0.0225079
0.169262
-0.000653365
2.65436e-05
0.0552909
9.17127e-05
-8.78446e-06
3.90268e-05
0.00110974
5.33444e-07
7.81946e-07
1.0182e-06
0.0229334
-0.180801
0.245359
-0.333189
1.21314e-06
1.79203e-05
0.00135497
0.0719826
0.0755188
7.25546e-07
-0.292649
-2.41999e-06
0.29264
5.1012e-07
-0.339004
2.4375e-06
-0.515017
-0.288362
-0.00119214
-0.0844531
-0.00190414
1.10146e-06
-0.00742574
0.0290719
-0.241844
-2.29679e-06
5.28377e-07
8.90446e-07
1.47943e-05
-4.02602e-05
-8.91208e-08
-4.48685e-06
2.84241e-06
-0.00125928
-1.16525e-06
-0.0619631
3.26862e-07
-0.25044
-3.06557e-07
-0.0122022
-0.46123
1.40669e-05
0.0355979
-9.57373e-08
-1.10276e-05
-6.97171e-06
9.49186e-08
8.9751e-06
-0.483681
0.00454652
3.24902e-06
3.49845e-05
-1.84672e-06
-0.467162
-0.00010778
-0.000311836
-0.0180146
-3.63057e-07
-0.0012107
1.8789e-05
8.36122e-06
-0.000980576
2.07382e-07
-0.000361706
-0.409798
8.80762e-08
-0.175916
-3.77537e-05
6.48995e-06
1.66634e-06
0.0826133
-1.52437e-06
0.41216
0.00758273
-1.00753e-07
1.04075
0.00410149
0.11103
7.38042e-05
-1.90348e-05
1.30115e-06
0.000520362
0.164765
1.2763e-06
0.000219074
4.81558e-06
-0.00773271
0.00407308
0.0966839
-0.121168
-0.195513
-0.000303725
0.364744
-6.78401e-06
-0.2264
-0.316704
-5.06055e-06
0.018099
-0.00367733
-6.16908e-07
-0.000165644
-1.27423e-06
5.31021e-07
-7.61695e-06
3.47674e-06
2.83847
0.00975005
-0.0125188
-7.57494
1.00739e-06
10.3228
4.86532e-07
-2.77932e-06
-0.000248843
0.0297256
-1.84072e-06
0.14858
-0.00756499
-0.00994382
-0.151113
2.96077e-06
-0.000158813
-0.470239
0.00025416
-3.77855e-06
0.0158495
-1.3736e-06
7.54951e-07
1.95149e-07
0.000390673
-0.493312
-1.31593e-05
2.26628e-07
-0.0999095
-0.434054
-9.66806e-07
3.01156e-08
6.17432
0.440471
3.80752e-06
0.0214209
0.00308287
3.76709e-06
0.000232449
1.36981e-06
0.00203256
2.35982e-07
-0.103212
-0.0751418
0.118744
-2.45014e-05
0.00045769
-1.34291e-06
2.09196e-06
0.352508
2.84764e-06
-0.897565
-0.446014
0.000829494
9.20965e-07
-6.16673e-07
0.0236633
0.0337326
-0.00294325
0.170044
0.00191737
2.28723
1.73685e-05
0.15063
-0.0153241
6.69943e-05
-0.0927937
0.411945
-0.496158
1.34561e-05
-0.0186784
2.15534e-06
1.24332
0.0418194
0.134583
9.48824e-07
0.000375051
1.297e-06
0.014509
-0.0522349
1.93816e-05
1.71277e-06
-0.0853051
-0.168059
1.02351e-05
-0.223412
-0.0877871
-5.7846
1.90229e-07
0.438543
1.11926e-06
0.389044
1.31118e-06
1.69069e-05
3.9899e-07
6.43359e-06
-0.910864
-0.0725059
4.54449e-07
-0.155115
0.123977
6.49368e-07
-4.03637e-07
-0.00206618
0.00161637
-0.00839513
2.31981e-05
-0.152885
-0.223191
0.142915
0.206637
-0.00856435
1.38854e-05
-0.0140217
0.00293749
0.00584335
0.210317
-0.202985
-0.00842239
-0.00193732
-1.96557e-05
0.122146
-0.00338294
-0.256414
1.64548e-07
-1.13982e-05
0.110848
1.24924e-06
-9.79402e-05
-0.0531655
-1.89978e-05
-0.000499444
1.39434e-05
-5.78088e-06
-0.150245
0.0424794
-1.42234e-06
-3.34465e-05
2.27676
-0.032639
0.000291998
0.00351229
-0.0375292
-0.000173537
-0.0129421
0.100258
3.58992e-06
-0.226146
-0.00902753
-0.0796897
2.81934e-07
1.72223e-06
1.46426
0.0522647
0.145954
-0.106387
-0.41387
0.0027942
-0.00194697
-3.33612e-06
0.0934916
-1.62691e-06
7.4982e-07
-0.000907373
0.000510466
0.00171166
0.193618
1.72077e-05
-0.0224303
-0.32012
1.04964e-05
-0.00308076
-1.76423e-06
0.013874
0.00504977
-0.000405129
-0.358455
0.137372
0.000494334
0.00529458
-7.19195e-05
-6.79168e-07
1.24772e-05
4.83155e-09
-2.18411
0.173297
0.148094
-0.28241
0.000530541
3.39694e-06
0.0686526
-0.000230736
0.106051
1.17705e-06
0.446723
0.00029539
-0.00782752
1.04623e-06
0.320863
0.00178266
-0.00454076
1.74668
-1.88817e-06
-0.273433
-0.0718505
3.02464e-06
0.00175297
-0.177955
5.26196e-06
-0.139335
4.23993e-05
8.12667e-06
-6.97366e-08
-0.476949
0.000253421
0.09334
1.28202e-05
-0.341525
6.61623e-07
8.95813e-07
3.02138e-06
1.06175e-06
3.59406e-07
0.129935
0.110248
-0.249957
2.49704e-08
6.05496e-07
-0.167391
-2.35874e-06
-0.752265
-0.00784744
2.46692e-06
-0.00947686
-4.06045e-05
-0.000545872
-0.066309
8.10716e-05
-0.520527
-0.0500121
-7.45245e-05
2.15716e-07
-0.0241866
2.78095e-07
-0.307361
0.303092
-0.0140573
3.12995e-06
0.212676
0.0707837
-3.21945e-06
-0.112099
1.52451e-07
0.105455
0.129796
5.74025e-07
-1.67539e-05
0.00364868
-0.000204064
2.877e-06
-1.26476e-06
-4.92766e-07
-0.366428
-0.000159272
-0.00579671
-0.0806614
0.0864247