/*--------------------------------*- C++ -*----------------------------------*\
| =========                 |                                                 |
| \\      /  F ield         | OpenFOAM: The Open Source CFD Toolbox           |
|  \\    /   O peration     | Version:  v2012                                 |
|   \\  /    A nd           | Website:  www.openfoam.com                      |
|    \\/     M anipulation  |                                                 |
\*---------------------------------------------------------------------------*/
FoamFile
{
    version     2.0;
    format      ascii;
    class       volVectorField;
    location    "900";
    object      ddtCorrDdt0(U);
}
// * * * * * * * * * * * * * * * * * * * * * * * * * * * * * * * * * * * * * //

dimensions      [0 1 -2 0 0 0 0];


internalField   nonuniform List<vector> 
18758
(
(-0.00638106 0.0019516 -1.72303e-19)
(-0.0490312 0.00608281 -1.30845e-19)
(-4.14457e-06 -1.79763e-07 -9.59569e-19)
(-0.00616157 0.00304806 5.108e-19)
(0.00737747 -0.00115696 3.58081e-19)
(-3.67515e-05 2.28366e-07 -8.03056e-21)
(-0.000182585 0.000100196 3.48442e-19)
(0.000817748 0.000834571 6.41755e-19)
(0.00662267 -0.00042284 -1.79158e-20)
(0.00610164 0.00110349 -1.44909e-18)
(-0.033679 0.0260308 8.09446e-21)
(-0.00524358 0.243442 3.02554e-18)
(0.0506428 0.00906124 -6.94047e-19)
(-0.000955874 0.000437573 9.8118e-19)
(-0.000178108 8.14393e-05 -6.09694e-20)
(-0.000134019 -1.25136e-05 -5.32749e-19)
(0.0124837 0.220961 -1.31083e-17)
(-2.93198e-05 9.80933e-05 -2.30134e-20)
(-0.000172073 7.58455e-05 3.6873e-19)
(-0.000416627 -0.00309344 1.62026e-19)
(-0.0842818 -0.0169446 2.98631e-19)
(-0.0193415 -0.0815979 -3.52823e-19)
(-3.54052e-05 -1.17734e-06 5.48471e-21)
(6.29047e-07 -6.62473e-06 3.52591e-19)
(-0.0295059 -0.0863739 -9.8014e-18)
(-0.0148872 -0.0511437 -6.35022e-18)
(-0.00277716 -0.0891133 -5.67438e-18)
(0.0296502 0.0673422 -9.06768e-19)
(-0.0415512 0.00715779 -5.91221e-19)
(-0.0642148 -0.013282 -2.73059e-19)
(0.119397 0.0491862 3.95712e-19)
(-0.00219894 -0.104653 4.2695e-18)
(0.000733528 0.000714138 1.8025e-18)
(0.137902 -0.0779332 2.44616e-20)
(0.00751381 -0.00317138 -5.11985e-19)
(-0.0650846 0.00672258 5.80201e-19)
(0.0527918 0.0151942 -5.52622e-19)
(0.00687055 -0.00248043 3.77507e-19)
(0.0296553 -0.0546938 2.96122e-18)
(-0.00038386 -0.000194018 -5.25137e-20)
(-0.0244972 0.161254 -3.39882e-18)
(0.0065023 0.00376266 1.11883e-18)
(0.0182632 0.102756 -3.06219e-18)
(0.00121085 0.000445774 3.4978e-19)
(-0.000162818 -3.58249e-06 -8.62666e-19)
(0.132066 0.0184698 2.90423e-18)
(0.00543646 0.00358134 -4.58414e-19)
(-0.0402733 0.0161236 -9.72313e-20)
(0.0886122 -0.0937453 -2.51847e-17)
(-0.00377921 0.00473661 7.30565e-19)
(-0.0351101 0.0380486 1.09573e-19)
(-0.0144392 -0.227845 -6.99838e-20)
(-0.00312813 0.00545859 2.91938e-19)
(-0.00372866 0.00215666 -2.05719e-19)
(-0.0312475 -0.0505921 2.35182e-18)
(0.0436545 0.00714344 1.34141e-18)
(0.00024351 -0.000351063 3.93974e-20)
(-0.00063136 -0.00277642 -3.67291e-19)
(-0.0339068 0.0182679 4.78001e-19)
(0.00014847 -0.000321408 -1.97232e-19)
(-0.000159926 -2.76194e-06 -7.55091e-20)
(0.00121246 0.000219769 4.06202e-20)
(0.0406871 0.11877 5.93362e-18)
(-0.253832 0.505446 -2.60231e-18)
(-0.000158289 -3.68026e-06 -1.42371e-19)
(0.196645 -0.0715668 3.58898e-18)
(-9.68269e-05 6.281e-06 2.42093e-19)
(-5.10124e-05 9.60642e-05 3.62204e-20)
(0.0340765 0.0631794 -3.11927e-19)
(-4.31961e-05 0.000105893 1.02306e-20)
(-0.0131633 -0.227289 4.71968e-19)
(0.0132333 -0.0821631 5.20839e-18)
(-0.000203185 -6.55007e-05 -9.28406e-19)
(0.00398431 -0.00472098 3.24404e-20)
(0.0284207 -0.0273919 -8.19048e-19)
(0.105843 0.0188323 5.92365e-19)
(-0.120608 -0.382945 4.57168e-18)
(0.0476685 0.145442 -3.72496e-18)
(0.00695806 0.000691284 1.16126e-18)
(0.0312999 0.0831126 -1.62195e-20)
(-0.0324433 -0.0227671 -5.5402e-18)
(0.0490781 -0.0460568 -6.42167e-18)
(0.0479397 0.154952 5.72556e-18)
(0.0181711 -0.0141668 2.70073e-19)
(0.00120228 0.00191053 -4.21213e-19)
(-0.0278299 -0.0416395 -8.39178e-18)
(-0.00295842 -0.00114795 9.2916e-20)
(0.00429937 -0.00542399 -1.03138e-20)
(0.0165966 0.115268 -2.04726e-18)
(-0.0251941 -0.0404918 1.99448e-18)
(-0.0335509 -0.222226 3.18602e-17)
(-0.000135447 -1.02179e-06 -1.37423e-18)
(-0.0212119 -0.0162058 -8.42638e-19)
(0.110542 -0.0785733 1.86022e-17)
(-0.000191501 -6.50016e-05 8.89265e-19)
(-0.000103865 -1.7794e-05 -3.26371e-21)
(-0.000146003 7.03862e-05 9.42862e-20)
(-0.0233842 0.00465366 1.46699e-18)
(0.0251596 0.158785 1.14987e-17)
(-0.000125589 0.000134608 1.46506e-19)
(0.117039 -0.00513632 -2.2339e-18)
(-0.00260857 -0.0091669 -2.6524e-19)
(-4.83453e-05 9.62961e-05 -4.05855e-19)
(-0.00010583 -1.43987e-05 -4.0207e-20)
(0.197364 -0.0750388 -6.98496e-18)
(-0.0803922 -0.0291646 -3.48524e-19)
(-0.0419221 0.0132332 -4.29801e-18)
(-0.0283424 -0.234457 -6.4153e-18)
(-0.142432 -0.152433 6.20216e-19)
(-0.0764205 -0.0179778 -9.70332e-20)
(-0.000133571 1.35441e-05 3.02561e-19)
(-0.270181 0.526356 -3.88414e-17)
(-0.00154829 0.00697163 -9.19668e-19)
(-5.364e-05 -4.07406e-06 -1.0748e-19)
(-0.00357495 -0.00924602 1.14507e-18)
(0.093551 0.161875 4.01734e-18)
(-0.0223529 0.00617742 -1.38404e-18)
(-0.00017139 -4.63337e-05 7.38777e-19)
(-0.213249 0.320857 1.07655e-17)
(0.000249044 0.00298927 -1.36212e-19)
(-3.1491e-05 -4.79637e-07 -2.92735e-19)
(-0.117723 -0.365324 -6.78099e-18)
(0.000828608 0.00216086 -1.07706e-20)
(-3.77959e-05 0.000118972 1.05145e-18)
(-0.0854591 -0.105612 7.66907e-19)
(-0.00394386 0.00170626 5.29881e-19)
(0.000617566 0.000314358 -3.02772e-19)
(-3.2492e-05 0.000115103 -1.3881e-18)
(-0.0801412 0.000760277 9.3168e-20)
(-0.0838838 0.0234478 -1.72331e-17)
(-0.0359591 0.0158201 1.6294e-18)
(-8.45862e-05 9.87631e-06 5.97413e-21)
(0.00274559 0.00584125 -1.91192e-18)
(0.149272 -0.137656 -5.25282e-19)
(-0.000499636 -0.00017565 -3.54815e-20)
(-4.68895e-05 1.82277e-05 9.17802e-19)
(-0.0751137 -0.611204 9.88483e-18)
(3.13759e-06 0.00204117 -1.50451e-19)
(-0.0325885 0.101749 -3.2609e-19)
(-0.0334447 -0.0203476 1.14121e-18)
(-0.000727423 0.00848849 1.08843e-18)
(-0.0513142 0.143875 -5.16119e-18)
(-0.0163266 0.000108802 9.82944e-19)
(-0.144169 -0.185226 -5.43644e-19)
(-0.092591 -0.0913294 -5.11223e-18)
(-0.0140494 -0.00979404 4.10836e-18)
(0.196226 -0.0782544 4.16559e-18)
(-0.0684934 -0.000783216 7.67171e-19)
(-0.0390012 0.0192114 -4.53864e-20)
(-0.240776 0.0826923 -1.11511e-18)
(-0.107153 0.0156182 -8.81368e-18)
(-0.0108917 0.00571633 -2.47465e-17)
(-0.000286523 -0.00025996 1.54007e-19)
(0.00631889 -0.0050289 5.73658e-19)
(-0.0196103 0.173762 2.91186e-18)
(-0.0533412 -0.0290454 8.93227e-19)
(-0.022042 -0.0149699 -1.62366e-18)
(-0.0844656 -0.00280093 -8.67881e-19)
(0.0147982 -0.0205964 -4.80252e-19)
(-0.0466277 0.0179232 5.5561e-21)
(0.187794 0.0835808 1.87875e-18)
(-4.5531e-06 4.65568e-05 1.00529e-18)
(0.143769 -0.0249067 4.994e-20)
(0.193165 -0.0807278 3.42597e-20)
(0.129593 -0.0251782 -7.45703e-19)
(-0.000396836 -0.00036513 -3.84747e-19)
(-2.17842e-05 6.15433e-05 -1.02019e-18)
(0.16529 -0.0276854 6.31287e-18)
(-0.0959595 0.0169926 2.11886e-17)
(-0.020182 0.25186 3.21219e-18)
(0.0618528 0.0039028 4.52351e-17)
(-1.51299e-05 3.49107e-07 7.54236e-19)
(-0.0478902 0.00976302 -3.00405e-18)
(0.00776024 0.0144588 -9.01939e-20)
(-0.126747 -0.0602451 2.31781e-19)
(-9.26323e-05 0.000129244 3.75711e-20)
(-0.000186709 -5.9133e-05 -1.16156e-18)
(-0.118946 -0.0737887 1.42861e-18)
(0.0857722 -0.0818502 -4.38647e-19)
(-0.000710714 -0.000354008 4.32624e-18)
(-9.06909e-06 6.27566e-05 -2.9528e-19)
(-0.00426 0.000143909 -1.83426e-19)
(-0.0329393 -0.0476535 -2.01741e-18)
(-0.00116873 -0.000420433 5.54833e-18)
(-0.118069 0.0637616 -6.66563e-19)
(-0.000194139 -7.86257e-05 -3.32964e-18)
(-0.0635413 -0.0241508 3.8879e-20)
(-0.0158233 0.000351475 -4.62016e-19)
(0.136551 -0.0773577 -9.14021e-18)
(0.0884267 -0.0721568 6.3848e-19)
(0.00323148 0.0144873 2.21786e-17)
(-0.000195403 -6.14642e-05 3.70968e-18)
(0.0136469 0.0405022 -8.79071e-19)
(0.0245806 -0.253295 6.47169e-19)
(3.39679e-06 -6.51493e-05 1.9854e-19)
(-0.00109087 -0.000319815 -1.10257e-18)
(-0.0299264 0.12425 -2.50017e-18)
(-0.000276975 -0.000257937 1.34481e-18)
(0.140737 -0.0840634 3.42634e-18)
(-2.62636e-05 5.04633e-06 -2.3253e-20)
(0.000446139 0.002081 8.7753e-20)
(-0.0932633 -0.00430883 1.57722e-18)
(0.0431547 -0.0613138 -2.09584e-18)
(-0.000130071 -8.03815e-06 3.03281e-19)
(-0.000133695 1.7737e-05 2.82937e-19)
(0.146822 -0.0335369 9.5114e-18)
(5.06515e-05 5.28231e-05 -1.65885e-19)
(0.00738635 -0.00445841 -1.09509e-18)
(-0.098897 0.0239026 7.3724e-18)
(-0.0538713 0.0335094 1.37748e-17)
(-2.8911e-05 -2.31199e-06 -1.50389e-19)
(-0.0252692 -0.0137123 1.15724e-18)
(0.000253821 0.002561 4.90205e-19)
(-0.00153024 0.00100755 1.29669e-18)
(-0.000778451 -0.00205694 7.80224e-21)
(-0.000155001 4.43455e-05 -6.03238e-20)
(-0.000128864 1.02719e-05 -1.62745e-19)
(-0.0237834 -0.0135536 2.42662e-18)
(-3.96846e-05 -2.19259e-06 7.15473e-21)
(-0.0459301 0.104707 -9.58812e-20)
(0.0141947 -0.228993 -7.17168e-19)
(-0.000592603 0.000284209 -8.93399e-20)
(-0.0159121 0.00112232 -5.57017e-18)
(-0.0970826 0.000642127 -1.10353e-18)
(0.0476375 -0.0606414 3.40989e-18)
(-0.014159 -0.127048 -1.31418e-18)
(0.0287331 -0.0318694 8.73228e-19)
(-0.0163276 -0.0410943 6.35862e-18)
(0.181222 0.0487114 -2.13462e-18)
(2.92167e-05 7.69902e-05 -4.6298e-19)
(-0.0179884 -0.0512938 -6.51355e-18)
(-0.0144729 -0.00871077 -3.91819e-18)
(-0.124615 -0.0624691 -3.56346e-19)
(-5.33293e-05 1.4019e-05 -6.21683e-19)
(-0.000156317 3.74019e-05 2.53445e-21)
(-0.000737337 0.000267484 -9.3256e-19)
(0.0428887 -0.0100617 5.29116e-19)
(0.0432962 -0.104657 -1.08522e-17)
(-0.0239397 0.151981 4.69043e-20)
(0.000139391 0.000191679 3.93103e-19)
(-0.000138564 2.88352e-05 -6.35818e-20)
(0.0393918 -0.0101838 8.53631e-19)
(-0.0311228 0.0824397 -9.74097e-19)
(-1.23525e-05 5.57445e-06 1.02681e-19)
(-0.199347 0.0607582 3.85665e-18)
(-0.166607 0.0748888 -7.89021e-19)
(-0.00016554 1.93731e-05 -1.43767e-19)
(-5.07027e-05 9.60468e-05 -8.95687e-20)
(-0.000802899 -0.00112502 4.02483e-19)
(-0.000115435 0.000149581 -1.90343e-19)
(0.0689842 -0.00422061 -4.48446e-17)
(0.000503968 0.00070351 8.28348e-20)
(-0.038355 -0.0456756 1.77357e-19)
(-0.000838495 0.00041502 9.30388e-19)
(-2.94381e-05 2.67939e-06 4.33927e-20)
(-0.175484 0.190847 -7.92423e-19)
(-0.000167227 -0.000383154 -6.12756e-19)
(0.00707392 -0.100975 -8.50879e-18)
(-0.000143021 1.32574e-05 6.35609e-19)
(0.020836 0.436825 -6.37687e-18)
(-0.00274528 0.00675479 -2.0932e-19)
(-3.79084e-05 0.000108954 4.00232e-20)
(-0.000166049 1.37532e-05 -1.32609e-19)
(0.0142299 0.0373224 9.05994e-19)
(0.099169 -0.0395105 1.58973e-18)
(0.0945173 -0.0419016 -2.65776e-19)
(-3.08803e-05 0.000101598 3.64965e-20)
(-0.0387984 0.0920862 -5.08085e-19)
(-0.0003005 -0.000259187 -9.64667e-19)
(0.000118835 0.000312944 2.22657e-20)
(-0.151081 0.319268 -2.21949e-18)
(0.0674684 -0.159313 1.11172e-18)
(6.60112e-05 0.000292586 -4.48123e-20)
(-3.79745e-05 9.02234e-05 3.81902e-19)
(-0.000291236 -0.00271584 2.22193e-19)
(-0.000832309 -0.00177289 2.21833e-19)
(-0.000904908 0.00433006 4.8416e-18)
(-4.10659e-05 2.64852e-07 2.24545e-20)
(-0.00189326 0.0011475 1.24607e-19)
(-0.000894314 0.000508055 -7.96373e-19)
(-5.56279e-05 9.46832e-05 -2.92674e-19)
(-8.33412e-05 1.05318e-05 -1.0047e-19)
(-0.000153222 4.43584e-05 9.71965e-19)
(0.183853 -0.0912147 -2.09683e-18)
(-0.000180343 9.26835e-05 1.11525e-18)
(-4.96707e-05 9.59051e-05 -5.21249e-20)
(-2.50402e-05 6.48816e-05 3.49746e-20)
(-0.0358804 0.0749868 1.41593e-18)
(-0.00010001 6.25759e-06 -1.52048e-19)
(-0.000103013 -5.80033e-07 4.69607e-21)
(-1.92495e-05 2.23969e-06 -1.11109e-19)
(-0.000771104 -0.000213037 2.06078e-19)
(0.000269879 -0.0002942 4.75504e-19)
(1.11554e-05 3.91449e-06 -1.54455e-19)
(1.94228e-06 -2.28679e-06 9.02672e-20)
(-0.00133667 -0.0021103 -6.31263e-19)
(-0.009487 -0.135719 1.39913e-18)
(-0.000136097 -5.61782e-09 7.75194e-19)
(-1.31587e-07 -4.11856e-06 -1.00108e-19)
(-0.126243 -0.17026 -1.18934e-17)
(-0.00236093 0.000316877 -1.06574e-18)
(-3.10817e-07 -4.23749e-06 1.91345e-20)
(2.3084e-06 -2.23932e-06 -1.91422e-19)
(0.0197464 0.00799966 2.36719e-18)
(0.0107749 0.028369 -2.46726e-20)
(-6.61891e-06 5.39315e-05 3.19878e-19)
(-0.0121936 0.00407107 -1.40766e-19)
(-0.0826948 -0.0393956 3.98838e-19)
(0.00144499 6.71857e-05 9.99444e-20)
(0.0418482 0.00147935 2.38317e-19)
(-0.000152969 5.47374e-05 -1.09194e-18)
(0.086387 -0.0471919 8.17187e-19)
(-0.0398471 0.112522 -2.2436e-19)
(-0.0217195 0.051808 6.30833e-19)
(-0.0399983 0.00453074 -2.71078e-18)
(0.12165 -0.0826872 1.80585e-19)
(-3.20641e-05 8.46303e-05 -9.25639e-20)
(0.018091 0.0367857 -1.91564e-18)
(-0.1125 0.00148153 -1.69723e-18)
(-0.000102253 2.69088e-06 -8.13329e-20)
(-0.0180203 0.0490917 -5.44055e-19)
(0.0152949 -0.0179 -4.95026e-19)
(-0.27418 0.135209 2.09566e-18)
(-0.000136658 0.000100942 1.74625e-19)
(-3.67043e-05 9.06226e-05 3.1906e-19)
(-0.0671309 0.0321116 7.70577e-18)
(0.0110561 -0.0482162 -5.77463e-19)
(-5.39035e-05 0.000153504 3.93129e-20)
(-0.059638 -0.111898 -2.94635e-20)
(0.0345876 -0.00709981 2.26567e-19)
(0.0054696 0.00919213 1.04213e-18)
(0.148583 -0.155632 -1.82784e-19)
(-0.000130992 9.91445e-05 -7.08045e-20)
(-0.000292714 -0.000462704 1.39337e-19)
(-0.000144959 1.90782e-05 8.21659e-19)
(-5.74365e-05 -2.25733e-06 -3.77352e-19)
(-0.00117752 -0.00010816 -9.84975e-20)
(0.00209246 0.0028187 1.14564e-20)
(0.000747659 0.000956406 -2.06454e-19)
(0.000123114 4.73905e-05 -1.50813e-19)
(-0.00106238 -0.000151361 1.21539e-19)
(0.000102359 0.000240079 -1.15821e-18)
(-0.202344 0.501787 7.55451e-19)
(0.0071928 0.000318482 -2.40369e-18)
(-0.000297748 0.00177991 -5.64409e-19)
(0.0206695 0.0259029 1.54991e-18)
(0.0373025 0.113972 -4.90164e-18)
(-5.19599e-05 0.000151189 -7.13335e-19)
(-0.00878709 0.000131207 1.82121e-18)
(0.0169438 0.0304821 -1.0984e-20)
(-0.0113974 -0.078549 7.8236e-18)
(-0.0400338 0.159567 -2.93721e-18)
(0.0284805 0.121096 -5.16256e-18)
(-0.000191981 -9.27808e-05 2.85051e-18)
(-0.010503 -0.0690453 1.81863e-17)
(0.0352142 0.307569 -5.16676e-18)
(-0.0153877 0.0103647 6.85298e-19)
(6.0407e-05 0.00022284 1.87456e-18)
(0.00660191 0.0076978 -3.77291e-19)
(-0.00195706 0.000552947 5.85688e-20)
(0.000947414 0.000483001 -4.73137e-19)
(-0.0341398 0.137302 -1.56457e-18)
(-0.0388908 -0.339062 -1.19086e-18)
(-0.0160388 0.152239 4.95389e-18)
(0.0324573 -0.0386967 1.13032e-18)
(-0.0159771 -0.361017 2.02446e-18)
(-0.000163086 2.88457e-05 3.38654e-19)
(-0.00370004 0.000535655 -9.48666e-18)
(-0.00471397 -0.000118217 4.38764e-19)
(-0.0235262 0.00820695 2.01071e-19)
(0.0704905 -0.0890662 2.10352e-17)
(0.0742872 0.165453 -8.42699e-18)
(-0.103876 -0.019921 7.48308e-19)
(0.0718816 0.0174137 1.30325e-19)
(-0.0314525 0.14568 -3.51426e-18)
(0.0432769 0.122847 5.68333e-18)
(-3.15844e-05 1.25034e-06 -4.0961e-20)
(0.184874 -0.0725931 2.22954e-18)
(-0.0727736 -0.00373632 -5.23422e-20)
(-0.011141 0.0365381 -7.22811e-20)
(-0.000440309 0.148661 -8.24741e-20)
(-0.000103726 7.16905e-06 1.44384e-19)
(-2.85168e-06 -7.66065e-06 -1.15145e-19)
(-0.0148931 -0.0790963 -7.22001e-18)
(-0.0259617 0.168934 -1.30336e-17)
(0.07039 -0.0763043 7.34537e-19)
(-0.169707 0.345052 2.07363e-19)
(-0.0674175 -0.0970395 1.06112e-17)
(0.000144726 0.000228562 -6.93592e-19)
(-0.0102673 0.257926 -2.54618e-17)
(-0.0815052 -0.00489835 8.1203e-19)
(-0.000134219 -3.63311e-06 -1.67928e-18)
(-0.000644064 0.000566918 -6.41601e-19)
(-0.00162376 -0.00165064 1.38456e-20)
(0.00222232 -0.0014477 -3.53017e-19)
(-3.45507e-05 -1.86969e-06 2.59102e-19)
(-0.00216851 0.00032545 1.84681e-19)
(-0.000183692 -0.00018007 1.9102e-18)
(-9.80185e-05 6.6184e-06 9.55329e-20)
(-1.84611e-05 4.78871e-06 -7.64613e-19)
(-0.00151798 -0.000598197 -1.80182e-19)
(0.00965446 0.00423382 -6.53786e-19)
(0.0711185 0.0239927 -3.04252e-17)
(-0.00516458 -0.00127816 -1.94198e-18)
(0.0172055 -0.110558 5.52576e-18)
(0.0506232 -0.0809629 1.55224e-17)
(-0.13846 -0.0891117 1.1505e-17)
(0.0929366 0.0353936 1.30914e-17)
(-0.0708188 0.0148799 2.62947e-20)
(-0.00132684 -0.00165155 2.54273e-19)
(-8.30176e-06 -9.2384e-06 3.54805e-19)
(0.00905091 0.118743 8.74289e-19)
(-0.000574377 0.00063044 -8.15838e-20)
(0.000202815 0.000140727 5.34624e-19)
(-0.0435896 -0.424557 -2.16641e-18)
(-0.0222851 0.00965776 -1.41903e-19)
(-0.0598639 0.0472178 1.14139e-18)
(-6.62279e-05 -0.000452145 5.79169e-19)
(-0.199605 0.471597 -1.35789e-18)
(-0.000168522 -2.43817e-06 2.9663e-19)
(-0.0024697 0.000422947 1.13642e-18)
(6.64541e-06 -1.91404e-06 -1.06359e-19)
(0.157921 -0.0853163 -1.13818e-18)
(0.0920866 -0.0481767 -1.40532e-18)
(-0.0425559 0.16599 8.11188e-18)
(2.89968e-06 -1.27227e-06 3.04101e-19)
(0.138659 -0.16136 -4.95599e-18)
(-0.0182498 -0.0164702 9.75634e-18)
(-0.000157964 1.6313e-05 2.36634e-20)
(0.00178356 -0.00170491 -3.9827e-19)
(-2.94393e-05 9.97044e-07 6.87409e-20)
(-0.100242 -0.0277012 1.18957e-19)
(-1.94099e-05 -4.34975e-06 -2.34112e-19)
(1.06016e-05 6.2566e-06 3.19174e-19)
(0.113734 -0.0405773 4.30719e-19)
(-0.00522084 -0.00161073 -4.14373e-18)
(0.00020575 0.000177007 -9.17585e-19)
(-0.00017862 -6.03555e-05 -3.70478e-20)
(0.000986112 0.00045735 1.16189e-18)
(0.00247383 0.00163572 -1.59476e-18)
(-0.230089 0.514687 -3.67802e-19)
(-0.0987596 0.0481134 7.55803e-20)
(-4.06151e-05 5.92257e-07 2.89086e-20)
(0.194641 -0.0709961 -2.49152e-18)
(7.35476e-06 -1.56732e-05 6.27886e-20)
(0.00222452 0.00324418 -4.85121e-20)
(-0.0153714 -0.0392966 5.72221e-20)
(-0.000101981 -8.91321e-05 -1.57173e-18)
(0.133139 0.0453698 -1.96731e-18)
(-3.57769e-05 1.85648e-07 1.96835e-21)
(0.00284439 0.00162488 1.39176e-18)
(-9.82395e-06 -5.76859e-07 5.93545e-20)
(0.0683766 0.141058 -1.21776e-17)
(-0.00209666 -0.00304632 3.20321e-19)
(-0.000184602 -0.000176562 -9.22734e-20)
(0.00288747 -0.110482 1.98977e-17)
(0.00475502 0.032859 -6.23562e-20)
(-2.85376e-05 7.4304e-05 -4.85415e-21)
(-0.0035608 0.000684039 2.68611e-18)
(0.00102779 -0.00312885 1.73194e-19)
(-0.000130913 -6.01276e-06 -4.75773e-19)
(-2.45792e-05 -8.10056e-06 -2.91396e-20)
(-0.00014349 7.94112e-06 -4.72135e-20)
(0.103661 -0.0359623 4.24592e-19)
(-0.067619 -0.185506 -3.92341e-17)
(-0.000324331 -0.00015669 6.77457e-19)
(-0.00749062 0.00885431 -4.73482e-18)
(-0.0499471 -0.445259 -4.84992e-18)
(-0.113844 -0.0688706 -1.74634e-18)
(-0.0124277 -0.124902 1.11588e-17)
(-0.157088 0.0923058 2.94565e-19)
(-0.00501917 -0.0993063 -1.02533e-17)
(-0.000186277 6.76636e-05 3.4287e-19)
(-0.0648273 0.0160413 -6.8663e-19)
(0.03755 -0.00674988 -5.39237e-19)
(0.00932187 -0.00219547 2.19618e-19)
(0.000791489 0.000605375 2.01947e-18)
(-0.040938 0.0992251 -6.82518e-19)
(0.0118817 0.0241115 -1.79434e-19)
(0.000815515 0.00806764 4.38238e-20)
(-4.91776e-06 -1.06304e-05 3.09336e-19)
(-0.000181 0.000103881 -1.49044e-18)
(-0.000100603 2.73609e-05 1.84824e-19)
(-0.000102299 -8.13788e-05 1.52041e-18)
(-0.000101369 3.57695e-05 3.69289e-19)
(-8.20967e-05 -4.72418e-05 3.48796e-19)
(0.0428035 -0.0183211 -1.14169e-18)
(-4.59916e-05 4.68863e-06 -5.2842e-19)
(5.88858e-06 -4.54152e-05 6.37826e-20)
(-0.0156417 -0.0171572 -3.16256e-18)
(-8.98584e-05 1.25191e-05 -3.73675e-20)
(-1.68591e-05 -2.25242e-06 3.96568e-19)
(-0.000225407 -0.000305833 1.97691e-19)
(0.000831459 -0.00280093 4.20996e-19)
(0.0154661 0.0198375 1.89072e-19)
(-0.0926069 -0.0117177 -3.18892e-19)
(8.89226e-05 6.21582e-05 1.11108e-20)
(-0.0266887 0.0423185 -2.78816e-20)
(-1.92266e-05 5.14936e-06 1.12067e-20)
(-0.00547415 -0.000706672 6.4936e-19)
(-0.0553193 -0.0353531 -3.00333e-18)
(-0.0875542 -0.190365 1.13353e-18)
(0.0750912 0.0232759 -1.84979e-18)
(-0.000130915 1.2343e-05 -6.21046e-19)
(-0.000189723 -0.000103102 -1.2474e-18)
(-0.077625 -0.190843 1.9741e-17)
(0.153994 -0.142127 3.90386e-18)
(0.00956053 0.00911128 8.45211e-19)
(0.000107275 -0.000407073 1.79173e-20)
(-0.124768 0.0780725 1.22254e-19)
(0.188021 -0.0852623 1.86032e-19)
(-2.40732e-05 7.07063e-05 -3.07171e-20)
(-1.77946e-05 8.33859e-06 -7.74304e-21)
(0.267994 -0.00248641 -2.03695e-18)
(-0.000459141 -0.00211778 1.3436e-19)
(-0.036301 -0.0201673 7.31848e-18)
(0.0108125 0.00729434 -2.00449e-19)
(0.00184017 -0.00229073 6.18694e-19)
(-0.00694048 0.00942747 -1.45769e-18)
(-5.26516e-05 0.000102647 3.02553e-19)
(-0.000100039 0.000109966 -6.4209e-20)
(-0.000125336 -2.93082e-06 -1.30736e-19)
(-2.14657e-05 -5.11557e-06 -2.47478e-20)
(-1.4608e-06 7.47631e-05 4.33247e-19)
(-0.000156232 -4.16776e-06 6.15566e-19)
(0.0382948 -0.00158211 1.07647e-18)
(-1.41384e-05 6.07496e-05 5.91172e-19)
(-0.0539094 0.0629127 4.50902e-19)
(-0.106169 -0.466242 2.24322e-18)
(-2.71059e-05 7.95575e-05 7.0693e-21)
(-1.3169e-05 6.40544e-05 -6.37165e-19)
(-4.87732e-05 1.65194e-06 5.08917e-19)
(-0.0029714 0.00245179 -3.0413e-18)
(-0.00834054 -0.00470335 2.41064e-19)
(-0.105697 0.0385332 -2.09478e-19)
(-0.00013746 0.000112716 7.92914e-20)
(0.0836574 -0.0704805 -7.67077e-19)
(0.00689642 0.00471311 5.84112e-20)
(0.00885646 -0.00278205 -2.09682e-19)
(0.000235947 -2.34392e-05 8.66924e-20)
(-0.00129479 -0.000367879 -1.50784e-19)
(-0.000830833 -0.00146257 -3.7287e-19)
(-0.000301463 -8.51992e-05 -3.429e-18)
(-0.000306242 -0.000107895 3.4848e-18)
(-0.183015 -0.291314 1.99541e-17)
(-0.0739672 0.0248434 1.13681e-19)
(-5.17952e-05 8.84281e-05 6.16755e-19)
(-1.36989e-05 9.06109e-05 -4.65848e-20)
(-0.000713382 -0.000218873 3.01265e-18)
(0.13829 -0.0331618 3.50439e-18)
(4.71792e-06 8.15135e-06 -2.78521e-19)
(-0.000195424 5.16519e-05 -6.74429e-20)
(-8.5195e-05 -3.9783e-05 1.24127e-18)
(7.27186e-06 -3.53984e-05 -1.90651e-19)
(-6.66263e-05 0.000108215 2.85836e-19)
(0.000192958 -2.30698e-05 -2.27142e-20)
(-0.00128825 -0.00110917 -1.39787e-19)
(-0.000132332 -1.2956e-05 1.31101e-18)
(-0.0353616 0.0220594 -2.40552e-18)
(-0.000143074 9.52581e-05 2.98945e-20)
(-0.000562371 -0.000315017 1.18033e-19)
(0.0534883 0.0143762 -3.7511e-19)
(-0.0903303 -0.189056 9.64651e-18)
(0.00212575 0.00608644 -1.18035e-19)
(0.000560205 0.000426507 -5.66402e-19)
(-8.80875e-05 0.000186031 2.52106e-20)
(-2.02524e-05 -1.32379e-06 4.60725e-20)
(-0.000164143 -2.92738e-05 1.80942e-19)
(-0.000142388 0.00252304 8.11052e-20)
(-0.0442991 0.0311025 1.4704e-19)
(0.0037611 0.0590862 3.04721e-19)
(-0.000752774 -0.000284081 9.72619e-18)
(-0.0888293 -0.021443 4.46723e-19)
(-8.96922e-05 0.00018498 -2.1727e-21)
(-0.00940022 -0.000135882 -6.08076e-18)
(0.000804469 0.000311192 5.15564e-19)
(-1.44933e-05 7.98862e-06 -4.87094e-20)
(-0.0157288 -0.0086199 7.71386e-19)
(-4.71782e-05 0.000100475 6.53346e-20)
(-1.86604e-05 -4.81916e-06 3.55812e-19)
(-0.0134816 0.0526528 -6.11627e-18)
(-3.77392e-06 1.38287e-06 3.84423e-19)
(-0.00113748 -0.000272741 2.29473e-18)
(0.0281162 -0.0407719 4.65998e-19)
(2.64898e-06 2.57953e-06 -2.02051e-20)
(-0.000197633 4.14585e-05 -1.19021e-18)
(0.156762 -0.0774144 4.14961e-18)
(-0.000201652 -6.05599e-06 -2.65641e-19)
(0.0413305 -0.0287092 -2.10058e-19)
(0.0137242 0.0133747 2.74985e-19)
(-1.99627e-05 8.27352e-06 -3.94471e-19)
(-1.22642e-05 -1.62123e-06 1.06851e-19)
(0.0160497 -0.013312 -1.37443e-19)
(0.00153712 0.000222989 4.42737e-19)
(-0.00882742 -0.00389421 -1.65641e-19)
(-9.5881e-05 0.00012964 -3.04276e-19)
(0.0403548 0.354034 1.00476e-17)
(-0.09115 -0.0224457 -1.41867e-20)
(0.0148714 -0.0733085 7.81251e-18)
(-5.92486e-05 0.000114274 -4.18492e-20)
(-0.144543 -0.179648 -4.61632e-18)
(1.28961e-07 -5.64755e-05 -5.15339e-20)
(-2.90176e-05 -1.61119e-06 1.39711e-19)
(-0.000167758 2.00017e-05 -1.80236e-19)
(-0.000427503 0.0054927 2.75851e-19)
(0.0967075 -0.061396 -5.45015e-19)
(0.0604802 0.0267181 -2.94994e-19)
(-0.00136429 0.000138098 -3.8983e-19)
(-0.00109469 -0.00038315 -1.30024e-17)
(0.00080517 0.00277667 -1.85543e-20)
(-0.187544 0.540536 3.70269e-18)
(-0.11112 0.0854592 -2.31093e-19)
(-0.000158225 -3.00068e-05 4.40716e-19)
(-0.0146367 0.00342559 -2.9207e-19)
(-0.00237828 0.0007511 -1.07278e-18)
(0.0281414 -0.0971292 -1.88252e-18)
(0.00211661 0.00568307 1.53425e-18)
(0.0129336 0.00986367 5.57857e-20)
(-6.77555e-05 0.00011875 -2.64922e-19)
(0.000468825 0.0055196 2.81401e-20)
(-0.0215856 0.0130219 2.20516e-18)
(-2.29091e-05 8.18213e-06 1.24073e-19)
(-6.47691e-05 0.000128208 9.99544e-20)
(3.57833e-06 2.10012e-05 1.09076e-19)
(-5.59263e-05 0.00014036 -1.92504e-19)
(0.00101878 0.00448875 1.99601e-19)
(-0.0647952 0.0403417 -1.86432e-18)
(-0.0397666 -0.0347198 -4.38153e-19)
(0.00682537 0.0564201 6.91061e-18)
(0.0135232 0.00712037 -2.77481e-19)
(0.00212651 -0.0034366 -4.76034e-19)
(-0.000163017 3.58238e-05 2.37513e-19)
(-3.26877e-05 4.76584e-05 -6.20568e-20)
(-0.0515699 0.0816989 4.44319e-19)
(-0.0152238 -0.0806671 9.62866e-18)
(-0.000323607 -0.000320632 -6.59365e-20)
(-0.0164902 0.00338138 -2.01377e-18)
(-0.0241669 0.00816098 -6.12001e-18)
(-0.173591 -0.282141 9.48011e-19)
(-3.0265e-05 -9.31143e-07 1.69838e-20)
(-3.15716e-05 -3.84648e-06 -4.39832e-20)
(0.0181102 -0.0169143 -5.86971e-19)
(-0.0285736 -0.16007 2.87281e-18)
(-4.12625e-06 -6.13758e-05 8.23884e-20)
(0.0215844 0.0237981 2.8688e-20)
(-4.5913e-05 0.000187167 -2.12013e-20)
(-0.000105832 4.9939e-06 -2.94219e-20)
(-0.00661177 0.00023533 -7.04392e-20)
(-0.000157049 1.23092e-05 1.05427e-18)
(-0.000323837 -0.000133372 -1.37027e-18)
(0.00177848 0.000248546 -2.54985e-19)
(-8.35844e-05 8.35931e-05 5.2988e-19)
(0.00200609 -0.000970073 2.09834e-19)
(-0.079813 0.0380586 1.48974e-18)
(-0.0161071 -0.00743141 1.04601e-17)
(0.0546879 -0.0946941 4.92363e-18)
(-0.00126153 0.00116147 1.27654e-20)
(-7.35866e-05 8.73934e-05 4.32084e-20)
(-0.0838762 0.272585 -4.98219e-18)
(-0.00020764 1.38253e-05 -3.10828e-20)
(-0.232413 0.348712 -6.34166e-18)
(0.0288473 -0.0127212 -2.71378e-18)
(-2.36893e-05 0.00019759 5.8831e-21)
(-0.066726 -0.575628 -5.44623e-18)
(0.00298968 -3.74916e-05 -5.19011e-19)
(0.000632342 0.000592505 1.6965e-19)
(-0.0752309 -0.609524 -1.15155e-17)
(0.0022313 -0.0119134 2.02133e-19)
(0.0128452 -0.0144754 -1.49755e-20)
(0.101588 -0.0343585 -4.99131e-19)
(0.00132558 0.00014262 2.02039e-18)
(0.025038 -0.10587 -3.78304e-18)
(-1.92603e-05 5.49413e-05 -1.23581e-19)
(0.146459 -0.0781581 4.9652e-18)
(-0.145326 -0.116262 1.60288e-17)
(-0.0128929 0.00958733 1.17608e-19)
(-0.00103805 0.000406038 9.17392e-21)
(-0.0300839 0.228299 1.59708e-17)
(-0.00216653 0.000727485 1.28994e-18)
(-0.00278218 -0.0360502 -3.03504e-18)
(-0.0733268 -0.0337291 1.48944e-19)
(-0.313951 0.437403 2.99167e-18)
(-0.000260834 -0.000242122 1.29854e-18)
(0.00212271 0.0878392 -8.7621e-19)
(-2.81279e-05 2.29163e-06 -2.25117e-19)
(-0.0175059 0.0047142 -2.60164e-18)
(-0.04541 0.00702845 3.72834e-18)
(-5.22029e-06 1.67935e-05 2.9369e-19)
(-0.00391807 0.00657828 -7.66189e-19)
(-0.141258 -0.327437 -5.89546e-20)
(0.0455956 -0.0242329 2.57162e-19)
(0.00123101 -0.00548913 1.60889e-19)
(-0.00130688 -0.00128932 -4.29373e-20)
(5.6392e-06 -5.63599e-05 -1.62379e-19)
(2.16353e-05 0.000236551 -9.13366e-19)
(-0.00201997 -0.00231397 -8.16805e-21)
(-0.0150532 0.00226196 -1.67603e-18)
(0.0378048 -0.02438 -2.81083e-18)
(-0.000127854 3.81286e-05 -1.9801e-20)
(0.0219028 0.213811 -6.0731e-18)
(0.00171916 -0.00312984 -1.16033e-18)
(0.000140875 0.000290498 -2.23086e-19)
(-0.00388147 -0.000443109 -5.68921e-19)
(4.04958e-06 3.37953e-05 -3.9781e-19)
(-0.0121234 -0.00929425 -1.89568e-19)
(-0.000143151 4.26012e-05 4.58548e-19)
(-5.29233e-05 0.000144867 -1.9853e-19)
(-0.180185 0.0873474 -3.06883e-18)
(-4.39301e-05 7.29187e-05 -1.7192e-19)
(-0.00215265 0.000926149 9.88145e-20)
(0.0358457 0.0866601 -1.55466e-18)
(-0.0194907 -0.0167839 -1.03657e-17)
(-0.013425 -0.0207151 1.27552e-17)
(-0.000170463 -0.000150253 -4.55919e-19)
(-1.53647e-05 0.000274621 1.07477e-19)
(0.00677685 0.0276006 -5.34648e-19)
(-0.000160975 0.000181652 -1.65199e-20)
(-0.0200927 -0.172704 -1.42965e-19)
(-0.00228228 2.09856e-07 1.01583e-17)
(-0.000306747 -0.00237774 1.3816e-19)
(-0.000446703 0.000417142 -2.99255e-18)
(0.000182238 0.000216761 2.85566e-19)
(1.4396e-06 -6.44955e-05 -3.80316e-19)
(0.202616 0.00327237 -3.60337e-18)
(4.92479e-06 3.1532e-05 3.68926e-19)
(0.0917078 0.0549071 1.72539e-17)
(-0.105738 -0.00414145 9.42258e-19)
(-0.000755339 -0.00032289 -3.11156e-18)
(-0.01641 -0.242821 -8.06958e-19)
(-1.22258e-05 1.11497e-05 5.88e-20)
(0.00360546 0.00836616 -7.65724e-19)
(0.00103279 -0.00508615 5.72555e-20)
(0.0996935 0.224087 1.25575e-18)
(-0.00216748 -0.000264535 4.07661e-18)
(-0.0563737 0.0350743 -4.05517e-19)
(-0.00825333 0.176807 1.06072e-18)
(-9.64643e-06 1.34754e-07 -3.44901e-20)
(0.044945 0.0728162 3.43003e-19)
(6.61332e-06 1.9416e-05 8.83636e-20)
(-0.0700557 -0.0380721 5.40515e-19)
(-0.000135152 0.00022138 2.52773e-20)
(-0.000242029 5.33979e-05 -1.20969e-18)
(0.0883736 -0.182209 -5.16261e-18)
(0.013117 0.12213 -1.57123e-18)
(-0.000138868 2.80574e-05 -1.53388e-20)
(-0.000466629 -0.000119847 -7.1755e-19)
(0.000963404 0.000589529 -2.10936e-18)
(-3.44326e-05 -6.89219e-05 -3.48094e-19)
(-0.000170547 -0.000137444 3.88844e-19)
(-0.0407948 0.125201 -6.21103e-18)
(-0.122904 -0.262713 2.62604e-18)
(-0.000468721 1.38339e-05 6.03558e-19)
(-3.64755e-05 -6.65509e-05 9.35314e-19)
(3.97832e-06 2.67491e-05 3.85002e-19)
(-0.220031 0.526314 -7.96926e-18)
(0.0605999 0.0215518 6.21181e-19)
(0.0235626 0.00625531 1.02515e-19)
(-7.48043e-05 9.67447e-05 3.75311e-20)
(-0.0143388 0.0087672 -7.98313e-20)
(-0.000226366 6.27164e-05 2.45603e-18)
(3.25175e-05 0.000303642 -7.51909e-20)
(-0.00553418 -0.00105774 8.16231e-18)
(0.0295237 0.176587 -6.34263e-18)
(-0.000155342 -2.9323e-05 -8.02069e-19)
(-0.0169933 0.00221931 1.11448e-17)
(-0.102516 0.00517297 -1.78002e-19)
(-0.000450972 -0.0022391 -3.43272e-19)
(0.00674447 0.0274522 8.83844e-20)
(-0.00021657 -4.46665e-05 -2.41004e-19)
(0.00320443 0.00531972 7.9614e-19)
(-0.000155842 -2.62043e-05 4.24584e-21)
(-0.000353462 6.02487e-05 5.99196e-20)
(-0.00367676 0.00104036 4.55119e-19)
(0.000201595 0.000298842 2.8694e-19)
(-0.02319 0.0116922 -4.65897e-19)
(-0.0001107 -7.13242e-05 1.69661e-18)
(0.15608 -0.121078 -4.98221e-20)
(-8.23746e-05 7.72641e-07 -4.83237e-21)
(-0.00241469 8.93639e-05 2.00035e-18)
(-0.0393756 0.0100007 3.11716e-18)
(0.0465916 -0.0139965 -8.42754e-19)
(-0.0167122 0.00589593 -7.80738e-19)
(-1.29803e-05 -8.49627e-06 -3.43333e-19)
(0.000166217 0.000193219 -3.56664e-19)
(-0.01525 0.184495 4.14803e-18)
(-0.0156761 0.0119903 -3.04194e-20)
(-0.000578413 -0.0325267 1.22282e-18)