/*--------------------------------*- C++ -*----------------------------------*\
| =========                 |                                                 |
| \\      /  F ield         | OpenFOAM: The Open Source CFD Toolbox           |
|  \\    /   O peration     | Version:  v2012                                 |
|   \\  /    A nd           | Website:  www.openfoam.com                      |
|    \\/     M anipulation  |                                                 |
\*---------------------------------------------------------------------------*/
FoamFile
{
    version     2.0;
    format      ascii;
    class       volScalarField;
    location    "500";
    object      ddt0(omega);
}
// * * * * * * * * * * * * * * * * * * * * * * * * * * * * * * * * * * * * * //

dimensions      [0 0 -2 0 0 0 0];


internalField   nonuniform List<scalar> 
10042
(
-6.72354e-06
2.17675e-08
-5.85512e-06
-3.83551e-05
0.167662
1.01424e-05
0.0581356
0.0406782
-1.61427e-05
2.00624e-06
0.351845
-3.88046e-05
-4.1205e-06
4.2244e-06
5.14414e-05
-1.22138e-05
-1.1382e-05
1.79138e-06
-7.85787e-06
0.00360517
-2.78625e-05
-0.00208478
-5.0975e-06
6.49546e-06
8.38655e-07
0.000317633
-1.39416e-05
3.89866e-05
-1.30841e-05
2.86007e-05
-4.67701e-06
0.11045
8.87321e-06
1.62463e-05
0.000190126
6.29176e-06
0.000264145
0.000516613
-9.58837e-06
0.00030989
0.00154448
4.7007e-05
0.18116
9.55673e-06
0.14844
0.00202145
2.21188e-05
0.00273843
0.000241298
0.00107341
-5.0104e-06
-8.56884e-05
4.16964e-05
-0.000103307
0.000268839
3.70014e-06
-1.32302e-05
2.14152e-05
2.09983e-05
3.97142e-05
-1.35705e-05
-1.50813e-05
0.000208428
-4.25457e-06
2.76162e-06
2.03703e-05
2.37098e-06
0.00105373
0.385472
-2.06683e-06
-0.000111869
-0.00360275
1.11315e-05
8.48493e-05
8.06915e-06
2.12551e-05
0.0401045
-6.71518e-06
0.000113355
0.224048
0.000177486
0.489222
1.66429e-05
3.04016e-05
3.07987e-06
1.33157e-06
1.65059e-06
0.00561373
7.2298e-06
-6.95672e-06
2.63611e-06
0.778967
4.14926e-05
-8.45381e-05
2.61013e-05
-1.23533e-06
-7.51787e-06
-9.00622e-07
0.000218523
-1.38923e-05
-2.91365e-09
0.00378529
-0.00235898
3.58997e-06
3.36749e-05
0.00030711
5.65548e-06
-7.21808e-06
-2.52516e-05
-1.45237e-05
-9.77645e-06
-9.2e-06
0.000179189
0.467553
2.79559e-06
-1.03445e-05
8.01141e-07
-6.847e-06
-2.69364e-06
-0.443226
8.12937e-06
0.0252051
8.09515e-06
1.00445e-06
0.00376586
1.33161e-05
0.0320126
0.000312686
0.000472006
-9.19575e-06
0.00012439
1.25034e-07
0.253793
0.0101574
-1.25435e-05
0.000369254
0.0506393
1.24331e-05
0.00285655
0.00563512
3.91995e-05
1.26898e-06
3.07086e-05
0.00681228
-4.66198e-05
-8.04582e-06
0.00172911
-1.94521e-05
-3.78603e-06
0.000153457
-1.60907e-05
-7.03514e-07
0.252606
-0.236225
-2.34818e-05
-3.21638e-06
1.14007e-05
-1.60476e-05
0.000826847
-0.255202
0.341794
0.00598134
-3.78191e-07
-1.58853e-05
1.95222e-05
-4.5591e-07
0.000730658
-0.839078
0.161687
-0.486365
-7.61943e-05
6.76936e-06
1.53326
0.00900809
0.000265168
0.0550031
1.52325
1.16575e-05
0.00132729
0.000427999
1.37368e-05
-0.050054
9.25722e-06
0.000304214
4.25638e-05
-0.712017
0.0137574
9.84877e-06
0.617298
5.61517e-05
-0.330804
3.25856e-05
0.246036
2.11893
0.00383659
-0.535834
9.99233e-05
2.27589e-06
-3.31481e-06
6.12401e-05
0.000190388
7.05652e-06
-4.71018e-06
0.0183903
3.81525e-06
-1.29818e-05
0.878203
-2.7174e-05
5.2666e-06
1.79359e-05
0.0446935
-1.69554e-05
0.000597592
-0.0613589
1.07431e-05
0.015309
7.19075e-06
9.17337e-06
0.00150312
-7.14733e-06
0.00018865
1.49396e-05
-0.0338296
0.000586578
9.71819e-05
0.000359308
0.0317267
-1.05334e-05
0.00809767
-0.000125905
-1.58674e-05
-0.0357073
6.96819e-06
-0.000129602
-1.33841e-06
0.000165105
-1.80133e-05
-3.54782e-06
3.77275e-06
-0.000135084
-3.07881e-06
1.23305e-05
1.59078e-05
0.000187274
-1.72764e-05
-5.07098e-06
-4.33576e-06
3.25674e-05
-8.65412e-05
1.31646e-06
-1.70216e-05
-3.8212e-06
0.000103152
0.246512
0.00569872
0.546334
0.000263468
0.000269496
5.43224e-05
0.00237555
-0.267234
-2.22604e-06
6.07383e-06
-2.73166e-06
5.97894e-05
-1.54301e-05
-0.00221288
-5.10728e-05
-7.0735e-06
2.58082e-05
0.000221155
-9.44337e-05
0.0136751
0.000268218
0.00848519
7.12731e-05
-0.000147369
-1.26452e-05
3.52454e-05
-4.5256e-05
0.000414057
4.76912e-06
0.000317554
0.111532
-8.09568e-06
-7.34211e-06
-0.253078
0.00208439
1.5611e-05
-6.4234e-06
9.23998e-05
0.113603
0.00137292
0.00762435
-3.25556e-06
-3.57304e-06
-1.01233e-05
-1.72505e-05
0.0344294
-5.80365e-06
-2.05505e-05
-7.96941e-06
5.15373e-06
0.000541558
6.6553e-05
0.00173444
0.1815
3.95938e-05
1.04199
-2.30105e-05
2.09147e-05
-1.35706e-05
0.440145
0.00382276
0.369478
1.12032
7.64259e-06
-5.21536e-05
-3.14021e-06
8.52532e-05
0.000365476
4.65646e-07
0.000340737
-1.32515e-05
4.02824e-06
1.27512e-05
0.00200183
-4.41867e-06
5.12695e-05
1.97294e-06
6.77985e-05
0.675515
-1.74747e-05
-2.3452e-05
5.5444e-06
-3.20595e-06
0.000488061
0.00382217
0.000266087
-0.00488968
0.000576097
0.000233802
2.8456e-06
3.27388e-06
5.5039e-07
3.42013e-06
0.0213084
5.02869e-06
1.97571e-05
0.00183227
-3.36011e-06
0.000110003
3.52809e-05
0.00115956
-2.96799e-05
0.000101277
0.000821269
0.000334381
6.2438e-05
-4.38161e-07
0.170286
0.00171966
-2.85679e-05
0.000582969
7.7328e-06
8.07667e-07
4.47735e-06
0.00010531
0.0519576
-0.00010049
1.65375e-06
3.26036e-05
-1.54282e-10
-4.53223e-06
0.00203897
-3.1199e-07
-2.2868e-05
-0.0163708
-2.8991e-06
-0.195408
0.0185215
9.68116e-05
0.106328
0.570545
0.000197433
0.00488421
-2.4701e-05
0.00122004
-2.76451e-09
1.69501e-05
-0.00201088
-2.75158e-06
9.12359e-05
0.0236563
-1.77721e-05
-3.51839e-05
0.000161107
0.485625
1.58894e-05
-1.38919e-05
0.12887
0.00385705
1.12483e-05
0.0011972
-2.18003
-1.03507e-05
2.01296e-06
-1.15403e-05
-1.71936e-05
-5.35696e-06
-6.47066e-06
0.443143
-0.0201558
1.83221e-05
0.273864
-8.4707e-06
-6.34908e-06
0.120445
-1.47199e-05
-0.188614
0.00168249
2.94084e-05
-1.91527e-06
-9.98747e-06
0.00246937
-7.76618e-05
0.000205173
3.0345e-05
0.312324
9.97644e-06
1.06751
4.595e-05
2.19048e-06
-1.01439e-05
0.102884
6.83266e-07
3.52142e-05
-6.69041e-06
-3.29632e-05
-0.307871
0.000102523
-7.09447e-06
-8.46474e-06
0.249356
-1.61237e-05
0.000127408
5.77184e-05
-1.53686e-05
0.743377
0.156546
-1.54476e-05
1.38384e-06
-9.81851e-05
-2.15596e-05
-1.37876e-05
1.03421e-07
0.252915
3.75596e-06
-1.88773e-05
0.000125648
0.00490884
0.00134427
4.59439e-06
0.000396446
1.9401
0.000638054
-2.20715e-06
-1.24837e-09
0.00982929
-2.5762e-05
-4.35135e-06
0.000103811
-1.45478e-05
1.34653e-06
1.85926e-05
-1.1101e-06
0.00179538
5.68533e-06
9.46492e-07
0.421283
4.91985e-06
-6.86794e-05
5.37173e-06
2.70925e-05
0.000281125
-1.86482e-05
-9.27336e-06
0.347593
3.03754e-05
0.297125
2.62454e-07
8.10735e-07
-1.49571e-06
0.00518691
1.15243e-05
-2.5213e-06
-1.53789e-05
-3.76478e-05
0.000119149
0.116308
-9.51732e-06
0.000468401
-0.00329042
0.000626798
3.12477e-06
-2.99928e-06
-3.52897e-05
-1.99394e-06
-2.04856e-05
-0.127183
0.15716
-2.82678e-06
0.000319518
0.00015403
0.000122109
4.37986e-06
-1.06741e-05
0.0121015
0.00365875
-0.159017
-1.38085e-05
-3.37865e-05
-9.07346e-06
3.2342e-06
0.175195
0.000447755
-3.82361e-05
-9.3096e-06
-1.09127e-05
7.10554e-06
0.0264424
0.000101651
-7.59056e-06
0.276707
0.0998868
-0.0493238
0.000642791
-1.3462e-05
-1.24271e-05
0.00124034
0.00120217
-0.0420799
-0.482633
8.01733e-05
3.45477e-05
1.38293e-06
4.02835e-05
7.35159e-06
4.40054e-06
0.330751
-2.37867e-06
-2.28465e-05
0.00188575
-5.32586e-06
0.00248147
2.24037e-06
0.00538959
0.000268178
-1.50952e-05
-3.73166e-05
0.000186386
0.000370287
0.000372798
0.00122018
1.33304e-05
0.0011028
5.364e-05
2.16172e-07
9.91828e-06
6.51834e-06
-2.27001e-06
8.21677e-05
0.00143752
0.000188631
-2.48907e-06
3.51084e-05
-5.20011e-06
-3.12361e-07
0.0324301
-1.74372e-05
5.80225e-05
0.00470775
-3.85095e-06
0.00123874
0.00199325
-5.88778e-06
-0.637199
0.00117252
-6.961e-06
0.0167103
-6.74227e-06
5.7341e-06
-1.0395e-07
-5.40452e-06
-2.98146e-09
7.43597e-05
5.96431e-06
-0.131117
3.56961e-05
-6.64152e-06
1.05721e-05
0.000329207
0.000613959
-1.96623e-06
-2.34322e-05
-1.23362e-05
0.000428497
-1.29035e-06
0.000258821
-2.77251e-05
1.52709e-05
-7.04282e-06
4.76241e-06
0.260349
-1.19772e-05
-0.00510282
1.43332e-08
-4.50679e-05
-2.391e-06
0.000546943
5.21661e-06
0.00129526
9.99589e-06
0.0122934
3.58178e-06
-0.12404
-2.10008e-05
6.25107e-05
-1.38099e-05
7.48404e-06
7.25948e-06
7.16465e-05
-5.1365e-06
-0.00111177
0.669636
-0.00198132
1.29951e-05
0.000276348
-8.27777e-07
0.00113814
0.00201252
-9.58169e-07
0.000100339
0.0012564
0.012586
0.00204276
3.57439
0.000235282
1.29136e-05
5.02558e-08
6.35079e-06
7.0322e-05
0.00023169
1.73675e-05
6.38206e-05
0.00471655
1.8183e-06
-2.59584e-06
-2.07723e-05
0.232883
5.55438e-05
0.000479623
0.0012478
-8.46775e-06
0.277437
-1.79241e-07
7.49831e-07
2.7048e-05
-1.36619e-05
0.397213
0.0023594
0.143697
-8.6984e-06
-5.2069
-0.924786
0.0250139
0.000294991
0.00232312
0.00791883
0.000434141
7.6783e-06
-1.10061e-05
0.000108543
0.546063
2.23114e-07
0.000130524
0.284317
5.88244e-06
6.11312e-06
2.51671e-06
4.79451e-05
8.31338e-06
-2.84173e-05
0.00486348
2.26504
-3.38881e-05
8.12819e-06
0.278285
0.140272
-1.62702e-06
-2.37271e-06
-5.51782e-06
-1.63097e-05
-0.105683
0.00239424
-0.0995216
3.17238e-05
9.15017e-06
-2.31327e-05
1.1646e-05
-1.29302e-05
0.000499456
2.68421e-05
0.0942126
-7.35211e-06
1.44957e-05
0.000944608
-1.15893e-05
0.00032065
0.000605291
-3.11859e-05
-0.512516
0.0149253
1.35843e-05
-2.05554e-05
0.848341
0.526784
0.000430792
-5.72943e-06
-0.087523
-0.000281376
4.52573e-05
7.12657e-06
2.13803e-06
-2.52168e-05
0.148188
1.80153e-05
0.0101525
2.10723e-06
0.618905
0.0588584
-4.80069e-06
-3.02879e-06
-0.000408173
-2.50944e-05
-2.88375e-06
0.000138504
-0.00872814
0.0929859
0.435531
-6.46715e-05
0.00202276
0.000847521
-1.07563e-05
-1.29151e-05
-1.15045e-05
0.135686
1.3133e-06
-4.01598e-06
0.00204333
3.12806e-06
0.00120013
-1.13312e-05
-2.96968e-05
-1.4164e-05
-1.99694e-06
0.00833493
-2.57143e-06
-4.43128e-06
0.00118332
0.000598893
-0.120762
-1.04089e-05
0.00294855
0.063745
0.300058
3.31784e-05
0.323851
-0.471335
6.83849e-06
-5.27677e-06
3.57533e-05
2.80648e-05
0.0131573
5.74151e-05
2.78796e-06
3.20435e-06
0.158831
0.000544366
-6.38668e-05
-5.25084e-06
-4.00999e-06
0.000583805
4.82263e-06
4.18506e-06
0.000375182
4.20022e-05
-1.15051e-05
-1.50771e-05
0.061992
-6.68071e-06
3.57471e-05
4.39697e-06
2.78676e-05
0.00670288
-1.02409e-05
5.19085e-05
-2.05902e-06
7.01735e-05
0.125794
-8.37882e-10
0.0722395
0.000183178
0.0572798
-7.52988e-06
6.80851e-05
0.000328734
0.00292322
0.000254719
2.51904e-05
1.0729
-0.488405
1.29691e-05
-7.79434e-06
0.0136771
-8.13779e-06
5.78875e-06
-1.15946e-05
5.91885e-07
0.00125712
-9.43096e-10
-4.37347e-09
0.000596806
0.000236062
-2.98471e-05
0.000154357
1.3422e-05
0.246899
-1.5563e-05
0.0462094
-1.75348e-05
0.00188576
0.00013694
0.261031
5.16515e-05
0.26072
-2.10293e-06
-0.000112856
-8.15664e-06
1.13537e-05
6.08917e-06
0.0047972
0.000215895
0.000856708
0.298277
3.56017e-06
3.82642
-0.000115589
-1.19423e-05
7.39409e-05
0.000416783
0.0563033
-5.02169e-06
0.000151175
0.000478272
5.54804e-05
0.000196793
4.58963e-06
-1.0772e-05
3.3189e-06
-0.103878
1.86986e-05
2.96923e-06
-1.71644e-05
1.92187e-06
4.3485e-06
-6.10805e-06
1.83979e-05
-2.40097e-05
-3.67157e-05
1.0902e-05
0.000147558
0.000156228
2.63137e-06
0.089354
6.81564e-06
-4.42494
0.000198661
-0.126013
0.000634301
-9.86734e-05
0.186947
0.000661594
0.0584767
0.267607
0.000601477
3.70378e-06
1.87298e-06
4.96651e-05
0.00716977
-7.67622e-07
-0.31638
-2.25606e-06
19.1821
-0.0292881
0.00101204
7.72292e-08
-0.389414
0.44352
1.92758e-05
-3.47766e-06
-1.91497e-05
-2.11145e-05
-1.14977e-05
-1.6292e-05
0.000565512
0.00784479
-2.33465e-06
5.22303e-07
9.20309e-06
0.220348
0.00150403
1.05218e-05
0.000139636
0.00333493
3.03396e-05
-2.26209e-06
-0.128749
2.09621e-05
-5.77363e-07
0.0748559
9.54655e-05
5.19273e-06
0.0300859
0.202196
-0.903465
3.69012e-06
5.6777e-05
0.0280041
-1.16308e-05
-7.94882e-06
-6.20309e-06
1.23336e-06
-2.39156e-05
-1.28806e-05
-0.000156076
0.000474028
0.0221851
-3.53903e-06
3.50605e-06
-2.73226e-06
-1.325e-05
3.30863e-05
-1.66556e-05
0.00675281
0.000196562
1.33564e-06
-1.85008e-05
-1.3212e-05
-1.36852e-05
1.49113e-05
-0.151058
0.00028085
-1.63025e-05
2.72356e-06
0.000203945
0.231099
-5.32691e-06
-1.22465e-05
3.65692e-07
-7.82682e-06
1.37106
0.00086032
-1.19422e-06
-8.83011e-06
0.000375218
0.00144358
-4.91486e-06
6.85809e-06
0.000126725
-1.6632e-05
6.61636e-05
2.19113e-05
-0.589511
0.000420273
-7.04904e-06
0.000184172
1.32499
0.000142222
0.0045795
0.000146204
0.0445433
-1.49215e-06
-4.37342e-05
7.52279e-05
0.00221019
1.03008e-05
-4.24098e-05
-1.3274e-05
-4.94213e-05
-0.00704913
0.00523084
-0.0865288
-4.73044e-06
-7.99107e-06
0.000214033
5.92231e-06
8.55563e-06
-0.743564
8.32223e-05
1.21971e-05
-9.48316e-07
-0.165948
-0.0118734
-1.17409e-05
2.20302e-05
0.00332597
-2.33637e-05
-1.09115e-05
-4.4082e-06
0.00314873
4.21729e-05
6.49556e-05
-0.30182
3.15485e-05
-2.49624e-05
0.0445007
6.896e-06
0.00843943
-2.15734e-06
6.28351e-05
3.35312e-05
8.44458e-06
6.66814e-06
-5.67694e-05
3.32789e-05
0.630348
2.4291e-06
6.92329e-06
-0.0208175
0.000101623
0.00705832
-0.0364321
0.00123792
-7.76024e-07
0.0236574
-2.54801e-05
1.54324
-2.70724e-05
1.72532e-05
-1.49e-05
0.278105
3.21609e-07
2.73155e-05
-4.88727e-06
0.000540691
-0.0057987
0.000214391
0.000785737
7.07028e-07
4.43799e-06
0.000501691
0.00038393
-6.32901e-06
0.000144781
-5.39323e-06
0.301387
0.0620212
2.32758e-05
1.65167e-05
-6.93128e-06
-0.191745
5.88203e-06
-0.919438
2.98352e-07
-8.16217e-06
2.46718e-06
1.36057e-05
3.93005e-05
-5.55609e-06
-2.09566e-05
2.22125e-06
0.00825725
0.00372806
-4.83815e-06
4.77414e-05
-2.91183e-05
0.000174962
-1.14803e-05
3.19299e-05
5.47627e-05
1.24019e-06
1.81964e-05
0.000197941
-3.6184e-06
-9.6299e-06
0.000117949
-1.41004e-05
0.00677044
5.11046e-05
-0.000356629
1.57801e-06
-1.04915e-05
-3.58768e-05
0.00203002
0.000399928
-1.61369e-05
5.5295e-05
0.00240821
2.5619e-05
-1.04358e-05
0.000163565
-1.23583e-07
0.340164
0.00960357
0.000122833
0.502704
2.05741e-05
0.000582476
0.00338587
3.48721e-05
0.000256369
0.151984
7.81011e-05
0.00404943
-1.70063e-05
4.18564e-05
2.1106e-06
-1.17012e-06
0.000170913
-1.69383e-06
-0.00811084
7.86501e-06
7.09333e-06
0.00130017
-5.94621e-07
0.00175125
-0.000108912
0.000159369
-1.15863e-06
0.000286411
-0.00608399
2.15727e-06
0.000428616
-0.598035
3.15386e-05
-2.27822e-05
7.85916e-05
-1.10286e-05
-6.07331e-06
1.69694
-8.02283e-06
6.47616e-07
0.00128841
3.48731e-06
8.4447e-05
-6.30388e-06
-6.21399e-06
0.234186
-7.4759e-06
-5.44007e-06
0.000112688
1.19032e-06
-2.44172e-05
-9.49906e-07
2.35556
1.70342e-05
1.46848e-05
-1.1101e-05
0.00279644
9.43696e-06
0.000119496
-4.52825e-06
0.000165334
3.59555e-05
9.37122e-06
4.35799e-05
-2.23228e-05
-5.19713e-07
0.0029893
0.000625065
0.000328417
3.61417e-05
0.000798241
0.00248635
8.06912e-05
8.45204e-05
3.59833e-05
0.291392
-3.61035e-06
1.84598e-05
-2.21235e-05
5.11544e-07
0.000461637
-3.56543e-06
1.26247
0.301705
0.0240034
5.43712e-06
0.000109827
6.17454e-06
-5.58088e-06
0.00100014
0.000521652
-1.49998
0.00223115
-0.117768
0.00250421
0.00494191
-0.0143631
0.00023765
-1.15216e-05
0.000150962
-6.18157e-06
0.106868
2.10967e-05
0.000116281
-4.04061e-06
0.000137453
-2.68226e-05
0.527959
0.0929272
-5.28917e-06
0.172833
0.03315
-0.00103509
0.00119425
0.0016451
-1.30883e-06
-0.353377
6.42883e-06
0.805522
0.402907
-4.19742e-06
3.93383e-06
-1.1e-06
4.95738e-05
6.63884e-06
0.000648602
0.00862771
2.88942e-06
-2.22948e-05
0.000138367
-1.77151e-07
-1.05011e-05
0.000192856
-1.02182e-05
-1.11206e-05
-0.004728
0.00168769
-3.72983e-06
0.133302
-3.48679e-05
-9.10275e-06
1.5433e-05
0.0184112
2.57625e-07
-1.34222e-05
0.00445345
0.00803468
-1.24714e-05
0.000135151
0.0801816
0.00141648
0.182162
-3.93498e-06
0.00438456
0.265105
-0.0968016
-1.93857e-05
4.39304e-06
0.00205266
0.000123919
0.00115739
1.83272e-05
-0.34302
0.00130894
0.0102665
1.2399e-05
-1.50378e-05
0.214558
-0.00566516
-1.82233e-06
-4.73152e-06
-0.5916
-3.65186e-06
-1.71316e-05
-4.36384e-05
3.15946e-05
-9.32493e-06
0.000120946
2.16676e-05
-1.90012e-05
-1.41454e-05
0.000499859
0.879934
0.00135154
0.000701588
2.05603
0.00235506
-9.30299e-06
-6.57182e-06
-3.89409e-06
-2.08433e-06
0.0055172
0.00011798
-5.02114e-05
7.71408e-06
-5.13922e-06
-2.41284e-05
0.000193614
-7.06501e-07
0.000402793
-1.14663e-05
4.93448e-06
0.160944
0.549742
1.67504e-06
0.28542
0.000281532
0.000431531
-1.56502e-05
-2.37233e-05
-0.548289
0.00243324
5.45595e-06
-1.14379e-05
-7.13338e-06
0.000215537
-1.32312e-06
0.00333188
-3.01919e-05
-6.48565e-06
1.82638e-05
-0.0293619
-0.658832
-3.04648e-06
4.79012e-06
0.00902273
0.180073
6.7388e-05
0.263947
-0.304554
-4.65961e-05
1.67382e-06
5.85636e-06
4.58004e-05
0.00358724
-2.53661e-05
2.39576e-06
0.00851273
0.00372484
2.40838e-06
2.24912e-06
0.00114108
5.65543e-06
-8.1172e-06
0.00403618
0.00289811
-0.327939
-9.72945e-06
0.00198913
0.000305132
0.00189809
2.24097e-05
0.000159465
-1.25836e-05
-2.33901e-05
0.00227219
0.000161083
-2.44223e-06
0.000134659
0.372515
7.31152e-06
-1.43775e-05
4.61171e-06
0.0014392
3.33595e-06
1.15265e-05
3.52953e-06
-1.25756e-05
-0.19275
-0.112844
1.35458e-05
0.111845
0.443658
0.00832449
-6.01043e-06
3.68806e-06
1.10094e-05
-2.88131e-06
-3.00707e-05
9.73671e-06
1.36794e-05
1.14308e-05
-1.32642e-05
6.01462e-05
2.02236
0.000162252
-0.00401345
0.000283006
4.50692e-06
5.08162e-05
0.000335414
1.22882e-05
-2.6343e-05
-0.000437634
0.000306239
0.0345458
0.00117173
5.90859e-06
4.01341
4.24211e-05
-1.73254e-06
-6.91143e-06
0.0182947
0.0013068
1.4048e-05
0.00018093
-6.27726e-06
-1.99187e-05
0.000173692
0.00108659
-1.8301e-06
0.454279
-1.96699e-05
-1.43367e-05
0.0102244
0.00101875
0.000143964
0.00608531
3.54232e-05
0.00111006
0.0111407
0.00191318
0.293893
1.60348e-06
-4.28632e-05
6.37732e-07
-5.48599e-06
-1.08719e-05
4.99952e-05
0.00110428
0.000920621
-1.07038
-4.15538e-06
0.378706
1.10563
-0.000115541
0.474792
1.92983e-05
0.0041889
-0.474363
3.35924e-06
0.00357112
-1.86868e-05
-0.161583
-7.40358e-06
0.00895116
-2.08118e-05
0.0166178
0.000693178
0.402969
-4.26886e-06
0.00703326
-3.1182e-05
3.42267e-05
0.012391
-3.22816e-06
0.327836
0.311232
-0.00206877
1.483
0.00339664
-0.209118
0.000566393
-3.76563e-06
-0.000504539
0.00110573
-0.268907
-1.05287e-05
-1.4267e-05
2.39821e-05
0.00075644
-9.42268e-08
2.20852e-05
2.66386e-05
-1.27892
0.00920456
5.10419e-06
1.25706
0.000813137
-4.58917e-06
0.000113071
0.000194079
0.0356448
0.000277305
-2.23518e-06
0.000926589
-6.81676e-06
1.41174e-06
9.85896e-06
0.00561684
0.00201979
-1.14282e-05
0.00012043
-7.863e-06
7.2549e-06
8.65158e-07
-0.949121
1.03476e-05
-1.94365e-05
-0.259394
0.00959068
4.60886e-05
-9.38048e-06
-0.0236569
0.000144483
5.90529e-05
2.1403e-06
0.000493015
3.83137e-05
8.41867e-05
0.000131171
0.292059
0.0015381
0.00193551
4.76103e-06
0.000106358
0.000905441
0.000105213
3.37561e-05
0.245243
1.09262e-06
0.00419106
-1.94033e-05
-2.14386e-05
1.74432e-05
0.00802594
3.78635e-05
0.000107392
3.64481e-06
-0.000216578
0.00216878
0.00254879
0.000196204
-4.78315e-10
-1.37274e-05
8.70316e-05
0.00246105
-7.07313e-06
0.0013154
-1.56749e-06
-1.094e-05
0.422332
1.70555e-06
-0.763284
2.03382e-06
8.31655e-05
0.00244735
2.8187e-06
0.000242521
0.00253091
0.0044134
-2.18582e-07
0.00235061
-8.84507e-06
-1.33999e-05
6.65751e-06
0.050142
0.211107
-2.95335e-06
-1.83054e-06
-2.92574e-05
-1.19155e-06
0.00350389
0.29897
-1.65308e-06
-0.0226014
-1.69673e-05
2.72472e-06
-7.56834e-06
0.0093759
4.21767e-05
8.82526e-05
2.78051e-08
5.80297e-06
4.69787e-06
-9.21102e-07
3.2401e-06
0.000573729
-4.88467
-1.74222e-05
5.94076e-07
-4.66323e-05
0.00169404
9.00614e-06
0.252527
0.000914617
-4.48941e-06
-2.71108e-05
-5.29078e-05
0.00395224
-4.76317e-06
0.00241407
0.000317594
-8.09714e-05
-1.13928e-05
0.00119917
-2.83568e-05
0.00263457
0.000130328
3.31865e-05
-0.333545
0.0339953
-1.42917e-05
-1.30834e-05
0.363041
0.00531131
0.0026603
-0.000135476
0.00243714
-1.55276e-05
-0.187788
0.00190601
-4.67538e-05
-0.117016
0.210596
5.90929e-05
0.000802457
0.00142569
2.35993e-06
0.07975
2.09816e-05
0.000170244
0.000397311
2.59155e-05
-1.29123e-05
0.000570583
-2.48511e-05
-2.15226e-05
-8.27244e-06
-11.7208
-1.06062e-06
3.13549e-07
-2.38841e-07
-1.91521e-05
-3.36785e-06
-1.35334e-05
0.00174777
0.000646654
-3.17524e-05
-1.29392e-05
0.203434
3.12229e-05
-1.54741e-06
-8.99133e-07
-1.87296e-05
-8.19917e-06
-5.95182e-06
0.000288287
0.00319921
2.40118e-06
0.00043614
0.000416431
-3.50353e-06
0.000182813
0.0876917
4.38239e-05
-1.10998e-05
6.96797e-06
0.00125403
-1.0045e-05
-3.81945e-06
0.00010376
0.000129347
0.109657
-0.372784
-1.04011e-05
-1.62378e-05
6.99223e-06
0.000735366
-3.84194e-05
-5.53728e-06
0.000109914
0.00132052
2.0129e-05
0.00012159
2.09757e-06
0.0046219
-0.00228047
-1.53045e-05
-0.000301778
0.000186856
0.552201
-2.15124e-05
-1.012e-05
-0.108415
0.000151929
0.000115791
0.00386747
-0.00075788
-0.360328
0.000408939
-0.0322878
0.000131211
-1.86365e-05
0.114146
0.000157639
-0.00437634
0.000151736
0.00527153
0.703827
-2.64581e-09
2.10403e-05
2.90006e-06
0.0264402
1.38374e-06
-0.228394
0.000759893
-0.989413
3.67134e-05
0.00102708
0.0121127
8.00098e-07
2.57382e-05
0.000908437
0.000249578
-2.69963e-06
-0.000185513
0.00100495
0.002773
0.00209499
0.00352905
-0.659566
0.0047586
4.89331e-06
-3.30442e-06
0.268071
0.000505601
3.3769e-05
0.000173225
0.0238823
1.43828e-05
-2.8264e-05
2.5853e-06
0.000234959
1.10111e-05
8.31177e-06
0.000116694
5.70888e-06
-3.56795e-05
0.371024
-0.221351
-2.63647e-05
0.000108924
0.000174179
0.00709963
0.000251135
6.31654e-06
-2.37864e-07
0.002381
-1.0272
-6.23802e-06
4.06241e-05
1.45411e-05
-0.0690899
-2.04376e-05
0.000355974
0.0149925
0.0129005
1.1671e-05
0.00206661
0.00274729
0.00166508
0.000120313
-6.89769e-06
-0.272806
-1.47632e-05
7.44122e-05
2.19242e-05
0.00024289
-1.8983e-05
-1.79799e-05
6.36345e-06
0.00185884
-1.46405e-05
-1.56962e-05
-1.22341e-05
-4.4003e-05
-2.79008e-05
1.83114e-05
0.00365946
1.21109
0.0211542
0.000117178
-5.58089e-06
0.000125317
3.86855e-05
-0.705617
-9.69356e-06
0.0275698
-3.95911e-06
2.59536e-06
-1.02915e-05
0.000486559
0.287214
-2.11676e-06
0.353111
-6.40635e-06
-1.59936e-05
4.96438e-05
0.460668
6.25342e-05
0.000105149
-0.715981
-1.29183e-05
1.88059e-05
0.330354
-4.97403e-06
4.92657
-8.15944e-06
0.00048653
2.4206
-5.23395e-05
1.404e-05
-1.8736e-05
-0.518845
0.000151917
-2.36282e-05
0.0436975
-4.18553e-06
-1.65206e-05
0.00334973
-0.65046
0.0109461
0.382849
0.785273
0.000950482
7.78357e-05
0.019372
0.0138281
-2.82743e-05
-1.56879e-06
5.12052e-05
3.00503e-05
0.000988123
1.37054e-06
0.000102401
9.19669e-06
1.33293e-06
-0.00674739
1.42356e-06
-0.686854
-8.94177e-06
0.000105698
0.00173154
-1.89051e-05
-1.62374e-05
0.441345
-0.524514
0.00108294
1.16189e-05
0.000134674
0.00107055
-1.19075e-05
0.00065413
0.0042915
0.00105832
-3.72147e-05
-0.471674
-0.572729
-2.90285e-05
7.50115e-06
-8.40718e-06
-3.28296e-06
-5.51685e-05
3.80544e-06
-0.80334
4.18258e-06
-3.99799e-06
0.000761034
-1.05907
-1.0995e-05
0.0866643
-4.77754e-06
0.00612125
0.00173604
0.264312
0.00201815
0.000502694
0.000472973
-3.40002e-06
-3.11233e-05
0.0157916
0.000184501
1.40146e-05
0.0510149
-1.88376e-05
-1.13826e-05
-1.36756e-05
0.00128281
-0.00957562
0.0811722
0.00230338
0.00024927
0.00028788
-4.31905e-05
-1.02712
-0.00776748
4.97678e-05
-8.15182e-06
-1.39326e-05
0.00242298
-0.219474
0.000279051
0.160488
1.59926e-05
-6.58072e-06
0.11873
3.17486e-06
0.188871
0.739785
1.8932e-06
0.000338825
-0.00127695
0.000102672
-0.000495398
5.64468e-06
-0.0726565
0.000125352
0.00813091
0.172186
0.896061
0.000193469
6.85253e-06
-1.40185e-06
0.00604449
-1.04012
-6.07577e-05
4.43649e-05
-0.230154
0.000419012
0.000732975
-1.10134e-06
-0.422085
0.121878
0.00084003
2.17031e-06
0.000146114
6.81715e-06
0.372357
0.0025291
0.000704019
0.947449
0.464026
-3.08209e-06
0.00821015
-1.27671e-05
0.825362
0.00122704
-7.67582e-06
-1.39393e-07
0.0566746
2.30161e-05
0.00198482
0.296366
0.22208
4.82949e-05
5.04848e-06
-1.59972e-05
0.00131244
0.200479
0.00982596
0.298865
0.00222725
0.000627078
-8.32228e-06
0.466307
0.00291935
0.000243679
-0.00433078
0.047945
-0.100579
0.052857
-0.756814
0.883033
-0.224059
1.23199e-05
0.000115485
0.000481007
-4.70736e-05
-1.02814
0.0554203
3.86701e-06
0.370073
-2.32604e-06
-1.28157e-06
-1.3267e-05
0.000498935
-1.8874e-05
0.630691
4.42175e-05
-0.0136443
-4.08524e-05
0.0287066
0.00041432
0.0412177
0.130618
-5.64569e-05
0.000230347
0.000834051
0.000428139
-1.21366e-05
-1.42253e-05
8.20508e-06
0.375917
-1.12779e-05
-1.5007e-05
-0.0047288
-2.59921e-05
-0.878025
-1.2973e-05
-0.700304
-1.80208e-06
-7.30491e-06
3.7528e-06
7.58315e-06
3.47714e-05
0.000112668
-0.793124
0.000166501
0.000581754
0.1953
3.25208e-06
-0.351856
-3.94294e-06
-0.00739667
-0.421879
-0.483733
0.00223423
5.9959e-06
-3.34543e-06
0.280589
-3.58416e-05
6.82941e-05
-1.31783e-05
0.000280442
-0.444017
1.12329e-06
-7.87937e-06
1.79946e-06
-3.87432e-06
3.60261
0.786777
-5.21315e-06
-2.4981e-05
0.628663
-0.0704747
-2.79693e-05
-0.0722222
-7.63078e-06
-0.279285
-0.0437957
0.00232439
0.00659455
-0.146514
0.000819665
0.252184
0.00233883
5.21405e-06
2.847e-06
-1.3604e-05
-0.215153
0.124892
5.02717e-05
0.000108484
0.206976
-2.19077e-05
0.346369
-2.36189e-05
-3.95545e-05
-2.31047e-05
0.850722
0.00233371
-3.31342e-06
0.137808
-3.95289e-07
0.320117
0.340759
-3.21855e-06
-1.25246e-05
0.00538203
-4.36977e-06
-1.12049e-05
-8.15671e-06
0.189002
0.000197395
-1.04516e-07
6.93098e-06
0.153602
1.76206e-06
0.000633513
2.59662e-06
-0.515807
9.6975e-06
0.000524949
-4.00636e-05
-0.0587411
0.332595
0.000455646
0.0024382
0.00170465
-1.11798e-05
0.00165756
-0.284138
-3.38876e-06
0.00318332
-1.76693e-05
0.0328026
-1.94667e-05
-0.375657
0.186008
0.00142278
0.311821
0.0606721
0.000195053
-5.03948e-05
0.215434
-1.65169e-05
-0.953205
0.000109834
0.0448375
-3.99455e-06
0.000172187
0.00105643
0.000148814
2.21429e-05
1.52211e-06
-5.29662e-06
0.0121359
0.0024615
0.270647
0.0740416
9.57115e-05
-2.35397e-05
0.000677275
1.38741
0.000196948
-1.25861e-05
-7.88339e-06
1.95497
0.498373
1.91111
0.413049
0.000405711
2.5053e-05
-1.64427e-05
0.00145479
0.00117145
0.0262348
1.25183e-06
-1.11859e-05
-0.209884
0.0018765
-1.48428e-06
0.00224973
0.0610772
0.00452545
-1.85701e-05
0.000495089
0.0279644
0.115235
0.181228
0.00915402
-2.25253e-06
5.56616e-06
-1.90878e-05
-2.07092e-06
4.6609e-06
-9.78066e-06
0.000311122
0.0424885
0.000445399
0.000104557
0.000245434
-5.32889e-06
0.000119085
-5.80082e-05
0.000618943
0.000213341
3.6562e-06
0.00028136
6.38337e-06
-3.94235e-06
3.01138e-05
-7.93469e-06
0.0151834
-1.28887e-05
0.000962413
0.0427645
0.0471508
-0.782322
0.85545
5.17693e-06
-3.49415e-06
-7.31834e-06
0.246469
-5.37664e-05
-1.50293e-05
1.26757e-05
0.287039
0.000176492
0.000698913
0.0530846
6.45072e-05
-2.86974e-06
0.000244428
-7.91239e-06
0.000518895
-4.83502e-06
0.00020846
-9.66763e-06
-4.14223e-07
5.03302e-05
6.34981e-05
6.12822e-06
0.0792979
0.000963218
0.0033769
0.00171576
0.00406307
0.000677824
0.00191938
-4.18686e-05
0.327848
2.93393e-05
0.000127491
1.20463e-06
-3.8052e-05
0.00333814
3.2027e-06
0.00109017
0.207762
8.56046e-05
0.0150949
0.00403234
0.00073924
0.00131376
0.00100888
1.38535e-06
0.000358898
-6.09007e-06
0.00205455
0.00117508
0.228518
-1.19125e-05
0.00105574
7.07077e-05
-0.0171601
0.0250475
0.000971046
3.24406e-07
0.00117951
-7.8376e-06
0.00226279
3.99329e-05
0.14082
-1.22134e-05
5.79032e-05
-7.29321e-06
0.000502003
0.00323182
0.000290235
1.05188
-2.95224e-06
9.08139e-05
0.000958706
5.11566e-06
0.191019
-0.180915
0.00772137
0.00126406
0.000894411
-2.403e-05
-1.52995e-05
0.814191
0.00372032
-2.61714e-05
-5.11374e-05
3.43223e-05
1.14412e-05
0.0475497
-6.78051e-06
-0.030291
0.0072231
0.00673035
0.000203021
2.32178e-05
-1.06579e-05
-6.75883e-06
0.00583466
0.000923229
6.59773e-05
0.323503
4.0026e-06
3.94762e-05
9.138e-05
0.26146
2.68945e-06
0.017073
4.01659e-06
0.273345
6.34221e-06
-1.5248e-05
0.000137511
-5.92603e-06
2.35837e-05
0.00694076
2.57497e-05
2.45396e-05
-1.65547e-05
0.000699431
0.000168044
-0.0223571
9.40842e-07
1.93236e-05
-2.05445e-05
0.0060152
8.99012e-06
9.75026e-05
0.00127704
0.300097
0.915691
0.0538321
0.231383
0.0174243
0.000608019
0.000781408
8.15755e-05
-1.44145e-05
-1.24327e-05
-0.408509
0.000625162
-1.55759e-05
5.73158e-06
-4.25101e-06
0.000224079
0.00219913
-3.85022e-06
0.000101615
0.00530447
0.00766137
0.00266867
-8.35225e-06
-5.86695e-07
0.108768
-2.17733e-06
2.66119e-06
0.253708
0.376394
-1.8938e-05
-3.28769e-05
0.000127339
-6.65233e-06
0.000155421
-5.82833e-06
-0.475918
-2.83674e-06
-0.0333076
4.99397e-06
0.0589876
0.000290282
4.26053e-06
0.00181715
-1.24183e-05
-3.19744e-05
-2.87191e-06
0.000656814
0.0404354
-3.91716e-06
0.00813937
4.73416e-06
-2.05537e-06
-0.00168992
-2.35153e-05
6.27044e-07
1.27258e-05
1.73077e-09
3.76741e-06
5.04754e-06
3.8194e-07
0.0406937
1.55647e-06
-1.8026e-05
0.000862231
-1.55659e-05
-3.79544e-06
9.52142e-06
8.23034e-06
0.210652
0.00592789
4.78109e-06
-4.0672e-05
-1.17286e-05
-3.45091e-06
0.00475453
-6.01385e-06
-1.02527e-05
-0.0697712
-2.05386e-06
0.00109366
0.0015361
-3.38425e-05
-1.12345e-05
0.00914437
-4.90816e-07
0.0126485
0.000417654
-8.75643e-06
0.79268
-0.141806
7.88957e-05
0.00233085
1.36147e-06
1.60813e-06
0.000401005
0.00847669
-1.21761e-05
-9.42037e-06
1.05009e-05
0.000621934
9.3446e-06
0.000137398
-2.24806e-05
0.000874115
-0.00616664
9.40583e-05
0.00341831
-1.23183e-06
-0.000133458
-3.1822e-05
-5.9481e-05
6.19515e-06
2.98511e-06
5.05964e-05
-3.97692e-05
0.00090829
2.34429e-05
0.00225169
-3.60517e-05
0.183886
-6.94568e-06
-1.23985e-05
0.00216518
-9.36178e-06
0.0043691
0.00229178
0.000126722
-3.85906e-05
5.02901e-05
-9.20185e-06
0.000297419
2.01795e-05
0.000424003
0.000106988
2.36471e-05
-1.80471e-05
0.000107333
0.291487
0.000339812
0.000626529
0.324529
-0.226733
0.000325274
1.95824e-06
0.203117
4.93193e-06
3.55933e-05
1.50773e-05
0.00372382
-1.47939e-05
-0.000127064
0.000105809
7.20613e-05
7.36283e-06
0.000167327
2.3751e-06
0.00197354
-1.58336e-05
1.26912e-05
8.53841e-06
0.000323417
0.0675058
1.65232e-05
-0.333095
0.00027868
-1.42631e-05
0.273393
0.0125367
-3.07008e-05
2.79247e-05
0.00224158
-1.07251e-05
1.88211e-06
0.229449
-1.32361e-05
0.150491
4.77104e-05
0.000128582
1.87609e-05
-4.89992e-05
-2.85893e-06
-1.04801e-05
0.000165632
1.43183e-05
-7.38421e-06