/*--------------------------------*- C++ -*----------------------------------*\
| =========                 |                                                 |
| \\      /  F ield         | OpenFOAM: The Open Source CFD Toolbox           |
|  \\    /   O peration     | Version:  v2012                                 |
|   \\  /    A nd           | Website:  www.openfoam.com                      |
|    \\/     M anipulation  |                                                 |
\*---------------------------------------------------------------------------*/
FoamFile
{
    version     2.0;
    format      ascii;
    class       surfaceScalarField;
    location    "900";
    object      meshPhiCN_0;
}
// * * * * * * * * * * * * * * * * * * * * * * * * * * * * * * * * * * * * * //

dimensions      [0 3 -1 0 0 0 0];
oriented        oriented;


internalField   nonuniform List<scalar> 
27284
(
0.000480811
-0.000795846
0.000315311
-0.000399623
0.000366882
4.5142e-05
0.000284856
0.000239141
-0.000523904
-0.000258154
0.000408573
-0.00012003
4.50523e-05
0.00084252
-0.000883254
-0.000878733
-0.000248446
0.00112987
0.000545755
-0.000870029
0.000329697
0.00087879
-0.00082944
-6.3516e-05
8.55784e-05
1.09954e-06
0.000599834
-0.000705567
0.000108215
0.00130267
-0.000441959
-0.000857573
0.000495908
-0.000240406
-0.000255423
0.000175234
0.000320746
0.000346657
0.000631348
-0.00097677
-0.000147385
0.000145209
2.68352e-05
0.00021627
-0.00029207
8.45034e-05
-0.000346612
0.000124628
-0.000264175
0.00109159
-0.000824229
0.000307145
0.000319407
-0.000626377
0.0005106
0.000288414
-0.000793517
0.000398115
-0.000894165
0.000496448
0.000222458
-0.00105165
0.000836515
-0.000145473
0.000293324
-0.000130624
0.000214509
-0.0010913
0.000108937
-0.000239081
0.000792222
-0.00108336
0.000298554
0.000231069
0.000694362
-0.000915742
-0.000662878
7.24293e-05
0.000618382
-4.67919e-05
4.41368e-06
0.00122046
-0.000476424
-0.000741736
0.000485885
0.000411801
-0.000897484
0.000352057
-0.000991017
0.000640144
-0.000274103
-3.87086e-05
0.000318794
0.000161145
1.44923e-05
-0.000168391
7.45231e-07
6.34575e-07
-8.61398e-07
0.000677172
-0.000919356
0.000246324
0.000448614
0.000335056
-0.000782749
-9.53859e-05
0.000776125
0.000420293
0.000802738
-0.00108372
0.00094205
0.000145997
8.08458e-05
8.95576e-05
-0.000109992
0.000828791
2.71204e-05
0.000167787
-0.000187592
0.000327268
-0.000396923
8.24402e-05
-5.91234e-05
0.000322546
-0.000412084
8.95652e-05
-0.000647089
-9.44266e-05
0.000760555
8.58689e-05
-0.000713683
-0.000591869
0.00107888
-0.000176019
-0.000889908
4.6879e-05
-2.31286e-05
-1.62226e-05
0.000506597
-0.000832674
0.000326185
0.000887993
0.000202649
-0.000372128
0.000666315
-0.000293941
0.00107203
-0.000331152
-0.000716775
-0.000334714
0.000851391
1.32492e-05
-5.95835e-06
-4.0074e-06
-0.000936125
0.00108748
-0.000288618
-0.000383539
0.000134629
0.000248927
0.000195683
0.000219955
0.000282768
-0.000502566
-0.000727172
0.000355374
0.000482199
-0.000161656
-0.000316072
4.10398e-06
0.000674113
-0.000677425
-4.46263e-05
4.12713e-05
1.13003e-05
-0.000160204
-0.000587021
0.000748746
-0.000162679
0.000612042
0.000143797
2.09435e-05
-0.00015857
-0.00115926
0.000777449
0.000384117
-0.000650403
0.00084486
-0.00018329
0.000530569
0.000559864
-0.000169813
0.000916283
-0.000744965
0.00113549
-0.000281704
-0.000850958
-0.000115598
0.00079332
-0.000674782
0.000161997
2.54642e-05
-0.000180784
-0.000823871
-0.00011213
-1.42179e-05
0.000183037
-0.000793607
0.000153139
0.00071388
-0.000826361
0.00066657
-0.000825162
-0.000672446
0.000958773
-0.000283589
0.000175533
-0.000734721
-6.53089e-05
0.000801967
-0.00093232
0.000400775
0.000532259
2.84282e-05
1.03527e-05
-2.51155e-05
0.00016691
-7.40211e-05
-5.22514e-05
0.000215327
-0.000745968
0.000531416
0.000696009
5.87355e-05
-0.000736854
-0.000569533
0.000785687
-0.000102923
-0.000740978
0.00108642
-0.000730626
-0.000355295
0.000395508
-0.0010645
-0.000983135
0.000819115
0.00122521
-0.00046865
-0.000755072
-0.000492747
0.000183735
0.000313155
0.000678864
-0.000209234
-0.000449891
-0.000154531
-0.000333337
-9.69728e-05
0.000565211
-0.000467918
-0.000823592
-8.76945e-05
0.000915868
-0.000593206
-0.000338523
-0.000671428
-0.000110564
-0.000173595
-0.000797869
-3.62335e-06
5.31104e-06
-1.18762e-06
-1.6035e-05
0.000756444
-0.000738903
0.000332011
-0.000104946
0.000735994
-0.000731027
0.000362955
0.000863144
-0.000915894
0.000466218
0.00045078
8.73764e-06
0.000213793
-0.000214427
1.07723e-05
5.52664e-06
1.27134e-05
-1.14491e-05
5.1911e-06
-0.000127683
0.000745293
-0.000615652
7.92402e-05
-0.000811737
0.000378471
-0.000466092
8.76566e-05
0.000923042
-0.000217208
-0.000704034
-0.000838286
0.000178064
-0.000125195
0.000842902
-0.000142671
0.000894384
-0.000748399
-0.0011884
0.000603243
-0.000513689
-0.000643947
-0.000194068
0.000479002
-0.000971813
-0.000901548
0.000443499
0.000458743
0.000647467
-0.000769232
-0.000366904
0.000323383
4.35512e-05
0.000784403
-0.000258596
-5.25044e-05
0.000805255
-0.000324242
-0.00104151
0.000956689
9.04757e-05
0.00018499
0.000512703
0.000989523
-0.000482806
0.000997221
-0.000657642
-0.000326978
-0.000714084
0.00032352
0.0003908
0.000247601
-0.000639831
0.000392582
-0.000598183
-6.84791e-05
0.000681829
0.00061593
-0.000308639
-0.000672119
-0.00028954
0.000963539
-0.000271311
-9.52926e-06
0.00032755
0.000511225
0.000575638
2.05533e-05
-0.000569011
0.000549802
-0.00016522
-0.000713766
0.000881952
0.00061474
-0.000732298
0.000134692
-0.000373548
-0.0005741
-0.000475709
0.000723714
-0.000206061
0.000145971
9.85327e-05
0.00014655
0.000251832
-0.000398363
1.26879e-05
-4.64164e-06
-7.95191e-06
0.000658706
-0.000784234
-1.40792e-05
2.10856e-05
-7.03076e-06
-0.000619786
-1.20551e-05
-0.000475682
-0.000709955
0.000566254
-0.000176127
-0.000384678
0.000164114
0.000680275
-0.000840719
0.000211986
-3.67171e-05
-0.000170855
0.000100864
8.62581e-05
5.43057e-05
-0.000276732
-6.62584e-06
4.5852e-05
-3.43444e-07
0.000627477
-6.86772e-05
-8.14139e-05
-0.00101372
0.000221805
0.000794688
0.000285185
0.000721676
0.000179424
-0.000164275
0.000173367
0.000707699
-0.00087737
-0.00109716
0.000280014
0.000820181
-0.000431651
0.000619527
-0.000185674
-0.000176719
0.000323284
-0.000320981
0.000783857
-0.000462674
-0.000596591
-0.00029228
0.000889085
0.000666696
-0.000644564
8.56586e-06
7.19153e-06
-9.96047e-06
-0.000353394
-0.00036043
1.80094e-05
1.63925e-05
-2.18454e-05
0.000447764
-0.00103975
3.123e-06
3.47364e-06
-4.20727e-06
-7.99647e-05
-7.62033e-05
-6.01628e-06
2.47239e-05
-6.51159e-06
3.04222e-08
6.5835e-06
-0.00103202
0.000534867
0.000499627
-0.000272744
-0.000495647
0.00076962
1.99317e-05
2.01122e-05
-2.56218e-05
-0.000584493
0.000155076
0.000889408
7.21532e-05
-0.000955816
-0.000133367
0.000669029
-0.000513839
0.000577691
-0.000477589
-9.69168e-05
-0.000962837
0.000800492
-5.01143e-06
-4.3358e-05
6.65408e-05
-0.000202909
0.000804524
-0.000600613
0.000777577
-0.000155811
-0.000586016
0.000769437
-6.63704e-05
3.26257e-05
-0.000399498
-0.00053874
0.000442061
0.000477403
-0.000381996
-8.23358e-05
-0.000161852
-2.49639e-05
0.000191748
0.00029282
-0.000349573
0.00011556
0.000313621
-0.000483932
0.000170355
3.37537e-05
2.04507e-05
0.000479359
-0.00079318
0.000313957
-3.2442e-05
0.000412284
0.00117591
-0.000827688
-0.000112607
-0.000840521
0.000153803
0.00091028
-0.00105935
0.00119443
-0.000771634
-3.73057e-05
-3.48906e-06
5.61183e-05
-0.000790206
0.00046943
0.000333758
-0.00109354
0.000767734
0.000261188
-0.000857556
0.000442631
-0.000556588
0.00029282
-0.000351516
6.52561e-05
0.000583321
-0.000159477
-0.00041786
0.000871256
-0.000915848
5.17348e-05
-0.000892988
0.00106709
-0.00017253
-0.000617667
0.000172908
0.000449914
-0.000212876
-0.0003997
8.87016e-06
4.06914e-06
-0.000660973
0.00110884
0.000552098
-0.000823524
0.000573956
-0.000668447
9.53616e-05
-0.00118311
0.000337228
0.00085376
-0.000868489
0.000273288
0.00061372
-0.000370484
-0.0005444
0.000133973
2.77551e-05
-0.000157335
0.000539545
0.000210273
-0.000749224
-5.2181e-05
0.00037056
-0.000315149
-0.00113482
0.000948122
0.000189529
0.000183378
-0.000706757
0.000528784
2.87236e-05
0.000148174
-0.000172237
0.000249749
-0.000920202
-0.000435003
0.000887184
-0.000451855
-0.000100157
0.000842745
-0.000741256
0.000582621
-0.000682554
0.000107288
0.000651865
-5.87615e-05
-0.00029014
0.000350765
0.000167142
-0.00068235
0.000858828
-0.000930303
-0.00019938
0.00104126
-0.000225415
-0.000810932
0.0003552
-0.000126023
0.000601874
-0.000475027
-0.000591838
0.000383591
0.000544959
-0.0001776
-0.000354524
-0.000539669
-0.000490325
-0.000180228
-0.000406161
0.000793389
-6.26907e-05
-0.000729459
-0.000840787
0.00101513
-0.00029086
-0.000700558
-7.99833e-05
0.000663073
-0.000562909
-0.00106926
0.00017774
-0.000720474
0.00104792
-0.000325279
-0.000964013
0.000840475
0.000133857
0.000162904
0.000323529
0.000348902
-0.000270093
0.000471421
-0.000201244
0.000337399
-0.000386235
-5.11645e-06
-1.04393e-06
-1.5391e-05
0.00035953
-0.000340816
0.000496272
-0.000621411
0.000237584
-0.000212371
2.78713e-05
-0.000565233
0.000754527
0.000184547
0.00040774
-0.000574435
-1.60918e-05
2.04107e-06
-0.000759559
0.000167753
0.000595183
0.000829378
-0.000451902
-0.000377138
-0.000755268
0.000514914
0.000240765
0.000812565
0.000384276
0.000215786
0.00083104
-0.00104128
-0.000151838
0.000878147
-0.000722061
-0.00020443
-0.000400681
0.000605411
-0.000378604
0.000580612
0.000705898
7.18869e-05
0.000722564
-0.000787466
-0.000195686
-2.93759e-05
0.000232233
-0.000871454
0.00102974
0.00066342
-8.88786e-05
4.42888e-05
0.000539852
-0.000554791
-6.40009e-06
-0.000823702
0.000836926
0.00139627
-0.000554618
-0.000838819
0.000105375
-0.000687931
-0.000754142
0.000404081
0.000350453
-0.00118106
0.00022134
0.00138307
-0.000566294
-0.00081316
-6.55503e-05
0.000942384
0.00106287
-0.000303335
-0.000757609
-0.000218515
2.98505e-05
-0.000806812
0.000562265
0.000245248
0.000856072
0.000136735
-0.000984052
-0.00116541
0.000631061
0.000535975
0.000217793
-8.29331e-05
-0.000611771
-1.57387e-05
-2.51021e-06
3.22044e-05
-0.000300457
0.000104634
-0.00052448
0.000420197
-0.000782426
0.00084542
-5.96483e-05
-0.000756033
0.0002344
0.000526853
0.000780088
-0.000928003
-4.40043e-05
-7.77418e-05
3.11591e-05
-0.000188229
-0.000336102
-0.000417633
0.000895627
-0.000894667
0.000715877
0.000339731
-0.00077594
0.000437106
-0.00102597
-7.7507e-05
0.000678105
-0.000599997
0.000290951
3.09157e-05
0.000976221
-0.00100275
0.000557071
0.000841884
0.000770709
-0.000899808
0.000141253
0.00069894
7.232e-05
-0.000769128
-0.000363088
-0.000391525
0.000495553
-0.000390582
6.6876e-05
0.000285993
-0.00035108
-0.000156078
-0.000274152
0.000430278
-0.00107016
0.000596582
0.000486843
-0.000848191
-0.000192743
0.00104366
0.000420491
-0.000734793
0.000314615
0.00050999
0.000554212
-0.000406906
-0.000647695
0.000748862
-0.000643075
8.64267e-05
0.000565844
-0.000629829
-0.000397436
-0.000189557
0.000587261
-0.000425634
0.000269604
0.000261817
0.000264486
-0.000526256
-0.000267514
0.000336142
0.000831062
-0.000132476
-0.000504442
0.0006383
2.28157e-05
0.000739051
-0.00075797
1.78533e-05
-1.42986e-05
-2.90764e-06
-0.000921978
-0.000161711
-0.000699998
-0.000938955
3.38407e-05
0.000918884
0.00069446
-4.63607e-07
1.64996e-06
-0.000680306
-0.000139714
0.000821873
6.34952e-06
-0.000283839
0.000285907
0.00111202
-0.000461576
-0.00032734
0.000333251
4.4269e-05
-0.000165785
-0.000912089
-0.000100375
-0.000911786
0.00101628
0.000494461
-0.000213132
-0.000281251
-0.000457023
-0.000339887
0.000797074
-0.000724089
0.00066251
6.78844e-05
-0.000333571
0.00105241
-0.000849081
-0.000198841
0.000759836
-4.59897e-05
-5.47847e-05
-0.000870159
-0.000950539
0.000859695
9.60218e-05
4.80679e-05
0.000554481
8.63629e-05
0.000684554
-0.000754669
0.000147154
-0.000173433
6.9917e-05
-1.86821e-05
5.081e-06
1.37184e-05
0.000196394
0.000761674
-0.000954925
-8.19499e-05
-0.000668111
0.000766397
-0.000267637
0.000478989
-0.000211285
-0.000903788
-4.23743e-05
-6.54182e-05
0.000623871
-0.000538477
-0.000843732
0.000119989
0.000733348
-8.51213e-05
0.000717591
0.000215871
-7.40842e-05
-9.00877e-05
0.000644839
-0.000728553
-0.000143192
-2.82244e-05
0.000174897
-3.96854e-05
0.00021953
-0.000936275
0.000118461
-0.000156978
-0.000226549
-4.68909e-05
0.000359957
-0.000311001
2.7234e-05
-0.000166947
0.000645285
5.15845e-05
-0.000677022
-0.00108531
0.000887046
0.000203108
-0.000436178
0.000541051
-2.61656e-05
3.47976e-05
1.37163e-06
-0.000126114
0.000796261
-0.000667178
0.000309382
-0.00035433
0.00137532
-0.000815456
0.000873812
-0.000879419
1.97831e-05
0.000423156
0.000621991
0.000453134
-0.000277833
0.000652949
-0.00020638
-0.000441093
-0.000364074
0.000352
0.000740763
-3.9636e-05
-0.000268843
0.000330333
-5.43104e-05
-0.0010612
-2.00365e-05
-0.000547817
0.00092896
-0.000376739
0.000852545
0.000105478
-0.000952734
3.02568e-05
-0.000182966
0.000190568
0.000819835
-0.00108115
9.48155e-05
-0.000105408
3.81859e-05
-0.000870751
-8.26417e-05
0.000959414
-5.59243e-05
0.000394572
0.000798817
-0.000826561
2.86994e-05
0.000391093
0.00115986
-0.000414891
-0.000742449
-1.58544e-05
-2.1022e-05
0.000518705
-0.00104982
0.000182224
-8.68975e-05
-0.000708795
0.000804603
-9.10462e-06
-0.000401356
0.000410665
-0.000297011
-0.000123996
0.00042103
5.90951e-05
0.000302451
0.000119988
0.000632704
-0.000746127
-0.000509891
0.000239898
-0.000295743
0.00101886
-0.000717326
-2.15329e-05
-0.000263677
-3.44539e-07
3.44539e-07
0.000793306
-0.000426349
-0.000366477
0.000261384
0.000548118
0.000633466
0.000744311
-0.000548026
-0.000316787
-0.00111962
0.000312014
0.00081048
-0.000593355
0.000619303
-0.0010888
0.00103456
5.58426e-05
0.000334477
-0.000791296
0.000233275
0.000423256
-0.000656209
-3.80372e-06
4.48275e-07
0.000230579
0.00030976
-0.000540304
-0.000958961
0.000876112
-0.000459887
0.000530698
0.000862247
-0.000463717
0.000362295
1.73245e-05
-0.000668001
-0.000387387
-1.56779e-05
6.8038e-06
8.87733e-06
7.61789e-05
0.000660574
0.000444499
-4.69741e-05
-0.000665468
0.000312301
0.00073552
-0.00049879
-0.000235113
0.000821451
-0.000364738
-0.000456359
0.00105517
-0.000785911
-0.000259472
-0.000521522
0.000299217
0.000232701
0.000369855
0.000697505
-0.000837173
0.000558054
0.000142637
-0.000693734
-0.000226033
-0.000477118
-0.000575397
-0.000180725
6.37671e-05
-0.00049659
0.000269195
0.000424497
-0.000433386
-0.000190329
-0.00031992
-0.00117707
0.000205881
0.000975852
1.94911e-05
-0.000742115
-0.000730153
-0.000234119
0.000964393
-0.000704882
0.00037546
0.000329911
-0.000746874
0.000946301
0.00103825
-0.000257624
0.0004168
-0.00064762
0.000231262
2.17628e-05
-0.00010976
0.000110818
0.000231556
4.07117e-05
-0.000266296
-0.000647988
-0.000186151
-0.00013584
-0.000406096
0.000109105
4.59811e-05
-0.000307761
2.74864e-05
-6.36255e-06
-7.37965e-06
-0.000210699
-4.75451e-05
0.00030621
0.000347761
0.000146766
0.000344703
-0.00088757
-3.29806e-05
-0.000153368
0.000190828
-0.00103727
0.000374694
-0.000266822
-0.000804702
0.00103703
-0.000223029
-3.49847e-05
0.000348636
-0.000315509
0.00053562
0.0010466
-0.000151647
-3.22453e-05
0.000149862
-0.000326215
-0.000378118
-0.0003472
-1.08337e-05
0.000358092
0.000598862
0.000325569
-0.000924134
0.000265925
1.96185e-05
-0.000278509
-0.000399497
-0.000413741
0.000813355
-0.000287431
6.15037e-05
0.000319188
-0.0002405
-0.000479101
0.000720199
-0.000919499
0.000178948
0.000743487
-1.64948e-05
0.000816197
0.000709334
-0.000877715
0.000686515
0.000859722
0.000279324
-0.000571097
0.000798858
-0.000497928
0.000230363
0.00015217
0.00074518
0.000702033
-0.000315851
-0.00038551
0.000178523
-0.00095343
0.000779154
0.000235068
3.52433e-05
-0.000263843
-0.00109633
0.000562923
0.000537938
0.000261192
-0.000196994
0.000516236
-0.000319098
0.000351882
-0.00047585
0.000734971
-0.00065801
0.000841951
0.000252838
-0.00114158
0.000259526
0.000884691
0.000944347
0.00019516
0.000393385
0.000756962
-0.000722765
0.000154915
0.00034767
-0.000497864
2.90313e-05
0.00012359
-0.000149911
0.000238812
0.000653518
-0.00086843
0.000758251
-0.00019532
0.000366685
-0.000325577
0.000485109
-0.000740472
0.000483342
0.000257202
0.000725763
-0.000246248
-0.000306413
-0.00086664
-0.000168963
2.04833e-05
1.81569e-05
0.00066563
6.92763e-08
-1.33608e-05
-2.35128e-06
-0.000327489
-0.000176312
0.00050388
0.000181548
-0.00102551
-9.62902e-05
0.000847162
-0.000748794
0.000872858
0.00014116
-0.00101086
-0.000931271
8.43546e-05
0.000850546
0.000879534
-0.000183718
-0.000693898
0.000223076
-0.000290178
6.71101e-05
-0.000269168
-0.00043519
0.000705037
0.000796162
-0.00109719
0.0003093
0.000317245
5.97241e-05
-0.000376402
0.000120259
8.24325e-05
0.000444123
-0.000342864
0.000573482
0.000720522
-0.000652748
-6.70004e-05
-0.000886189
-0.000285694
0.000276671
-5.35871e-05
0.000570213
-1.89531e-06
-0.000307979
-0.000357239
-0.000369564
0.000722491
-0.000236533
-5.93978e-05
0.00029719
0.000903574
-0.000748385
-0.000297945
-0.000792786
-0.000926893
-0.000101594
0.00104033
-0.000570515
0.000739406
-0.000166804
-0.000637562
6.41933e-05
-0.000299456
0.000690459
-0.000476028
-0.000212741
0.00102901
-0.000114537
3.16913e-05
-0.000947267
0.000719475
-0.000782889
-0.000935448
0.00066656
0.000833042
0.000199915
-0.0010306
-0.000382514
0.000447347
-0.00110786
1.82454e-05
0.000333658
0.000848814
7.07628e-05
-0.000918986
0.00117755
-0.000218693
-0.000954628
-0.000778316
-0.000211195
-0.000103863
0.000765015
0.000650008
-0.000726039
-1.76126e-05
0.000733432
-0.000698678
0.000343631
0.000836488
0.000870062
-0.00109005
0.000223621
0.000985363
-0.000121184
-0.000238635
-0.000672826
0.000603265
0.000510069
0.000187693
0.000480552
-0.000649267
0.000900109
-5.07096e-05
0.00083319
0.000250029
-0.00107691
0.000154118
-0.000490264
0.000336303
0.000239353
0.000213839
-0.000607582
0.000604349
0.000837417
-0.000755866
0.000323597
0.00048183
-0.000540693
0.000800883
-0.000159869
-0.000269742
0.000429632
0.000242282
-0.000169338
0.000920871
-0.000235411
-0.000684893
0.000468092
-0.000736533
-9.17575e-05
0.000242078
0.000689332
-0.000790685
0.000361049
-0.000420848
0.000654434
-3.30377e-05
1.0673e-05
-3.28845e-05
0.000170126
-0.000131787
0.000422474
0.000225536
-0.000647512
0.000308148
0.000413013
-0.000341708
0.000495989
0.000689364
-0.000533803
-0.00012291
-0.000188439
0.000471333
-0.000430932
0.000636735
0.000194361
-0.000521768
-8.4183e-08
-9.70985e-08
-0.000959722
0.000299062
0.000671049
-0.00016741
0.000464395
-0.000296923
-0.000206984
-0.000603599
0.000816287
-0.00106051
0.0001367
8.41086e-06
-3.22222e-06
0.000853326
-0.000121586
-0.000729656
0.000737388
-0.000229334
-0.000502686
0.000148337
-0.000826627
0.000486384
-0.000224536
-0.00094351
0.000392756
0.00055218
5.75934e-05
0.000315983
-1.1086e-05
1.53567e-05
2.10029e-07
0.000621268
-0.000114825
0.000944388
-0.000824326
-0.00023948
-0.00070238
-0.000145797
-0.000208372
0.00035418
0.000356041
-0.000107184
-0.000236179
0.000351148
-0.000290455
0.000831802
-0.000977103
0.000152603
2.15218e-05
-7.40987e-06
0.00023711
-0.000855161
0.000619671
1.12747e-06
-1.44328e-05
0.00016657
0.000491843
-0.000899852
0.000591215
0.0003091
0.000134513
0.000570407
-0.00069885
-0.000279678
0.000518279
-0.000238216
0.000729773
-0.000272123
-0.000456646
1.33858e-05
0.000563142
0.000814015
-0.000535066
-0.000278783
-0.000771517
-9.37946e-05
-0.000646602
-0.000863337
0.000188193
0.00067643
-0.000998578
-3.64695e-05
0.00104129
0.000845915
-0.000153402
-0.000668403
0.00031219
0.000546153
0.000777648
-0.00105664
0.000546408
-0.000924298
0.000382032
-1.1431e-05
-3.94592e-06
-0.000241217
0.000739253
-0.000497587
-0.000891299
0.000508418
0.000382923
-0.000733967
-0.000213805
-0.000238032
-0.000760778
0.000999061
-0.000967943
0.00073949
0.000250451
-0.000987547
-0.00019283
0.000481743
-0.000288849
-1.77771e-05
0.00025536
-0.00057761
-0.000217908
-7.17879e-05
0.000298001
-0.000225181
-7.39563e-06
-3.28149e-06
1.09556e-05
0.000494377
0.000236647
0.000744892
-0.000470983
-0.000273458
-6.50069e-05
-0.000272458
0.000337491
-0.000670406
0.000820815
-0.000582704
-0.000104839
0.00069736
-0.000636561
4.65788e-05
-1.66641e-05
0.00010714
0.000473413
0.00017895
-0.000576116
-0.00110295
0.000750858
0.000360249
0.000922423
-0.00076963
-0.000148854
0.000485626
-0.000726409
-0.000880971
0.000318927
-9.03606e-05
-0.000652877
0.000752359
-0.000239369
0.000656623
-7.23077e-05
-0.000313658
0.000385995
-0.000763918
0.000195414
0.000619749
8.89336e-05
-0.00070456
-0.000656916
-0.000104019
0.000653319
0.000152009
-0.000912154
8.84186e-05
0.000743184
0.000550552
0.000147634
-0.000680715
0.000845134
-0.000933885
9.07687e-05
0.000151559
-0.000819761
0.000783674
-0.000615913
0.000273372
0.000296392
-0.000569478
0.000350042
0.000711693
-0.000741354
0.000306629
2.97982e-05
-0.000192362
0.00113608
-0.000971941
-0.000157752
-0.000132676
-0.00044776
0.000580503
-1.96569e-05
2.83532e-06
0.00104116
-0.000194012
-0.000168788
-0.000553811
-0.00034534
0.000872199
4.99486e-06
-0.000862761
-0.000195926
-0.000248788
0.000467453
0.000509913
0.000393132
-0.000901149
0.000136186
0.00071917
-3.2922e-05
0.000159679
-0.000122767
5.05114e-05
0.00033477
-0.000381212
7.52676e-05
0.000763054
-0.000835923
4.98432e-05
0.000616692
-0.00109019
0.000677573
0.000124752
-4.08005e-05
-6.40291e-05
-0.000612261
-0.000288506
0.000464236
-0.00087739
0.00105987
-0.00016845
7.12573e-05
-0.000724957
0.000343517
-0.00089586
0.000840902
-0.000546113
-0.000294704
-3.08525e-05
0.000165683
-0.000131209
0.000559581
-0.000320348
-0.000492113
0.000869234
-0.000360416
9.30311e-06
-2.39644e-06
0.000272709
-0.000440059
-0.000166474
0.000930433
-0.000761152
-0.000898839
0.000664795
-0.000249579
-0.00083777
-0.000532674
0.000365482
0.000570893
0.000270095
0.000412891
-0.000887756
-0.000192224
-1.83798e-05
0.000112609
0.000149403
-0.000145133
0.000713463
0.000279251
0.000763781
-0.000535085
0.000798366
-0.000463681
3.11371e-05
-3.68613e-05
2.4295e-05
-0.000354453
0.000194602
0.000873996
0.000132669
-0.00100082
-0.000669198
0.000743836
-0.000793753
-0.000386885
-0.000826769
0.00103697
0.000832276
0.00072765
-0.000135826
-2.25367e-05
0.00016127
-0.000335983
-0.000150364
0.000486455
-0.00077731
0.000949263
-0.000153748
-0.000192869
0.000233026
-3.25598e-05
0.000194321
3.4109e-05
-0.000223519
-0.000745503
0.000277454
-0.000796224
0.000464007
-0.000203339
-0.000260612
-0.000251601
5.79027e-05
0.000437988
-0.000519672
0.00081297
-0.00106216
0.000872048
-0.000918687
-9.2223e-05
-0.000197548
-0.000585122
0.000788276
0.000777127
-0.000605789
0.000310666
-0.000512357
0.000742129
-0.000298014
0.000182317
-2.93889e-05
0.00091175
-0.000463876
0.000352965
-0.000425239
-1.97268e-05
2.6673e-05
-2.97017e-06
0.000559454
-0.000704387
0.000147653
2.78294e-06
-1.01938e-05
1.15965e-05
-0.000343459
0.000286439
-0.000563257
0.000283953
-8.21197e-06
9.88575e-07
-0.00022469
-0.000830925
-0.000100867
0.000116515
-0.000782407
2.64144e-06
-1.76822e-05
-0.0005819
0.0007935
-0.000210554
0.000749602
-0.000520509
-0.000227314
-0.000946511
0.000600975
0.000346015
-0.000844367
-0.000222568
-0.000379006
0.000674233
6.10663e-05
-0.000310617
0.000250922
-0.000442004
0.00047216
-3.00235e-05
0.000309928
0.00060068
0.000120032
-0.00102135
0.000538951
0.000483931
-0.000666297
9.25372e-05
-0.000881163
0.00103488
-0.000144617
-0.000397703
0.00109658
-0.00068298
1.88687e-06
-7.92547e-07
-0.000111192
-0.000271931
0.000678778
-0.00100098
-3.16182e-05
8.94429e-05
-0.000116475
4.80458e-05
0.000153276
-0.000132464
-1.03412e-05
1.17349e-05
1.04153e-06
0.00106578
-0.000228053
-0.000833129
-0.000443093
-0.000502854
8.91278e-05
-0.000530978
0.000331517
-0.000729534
0.00086778
0.0011423
-0.000300199
-0.000836615
-0.000253121
-0.000883564
0.000705312
-0.000115974
-6.84228e-05
-0.000798307
0.0010196
-7.17207e-06
0.000158799
-0.000145135
0.00015523
0.000509972
-0.000645935
-4.05021e-05
5.05705e-05
-0.00113787
0.000278065
0.000845222
0.000191473
-0.00103253
6.20225e-05
0.000290242
-0.000348581
-0.000208329
-0.000257724
0.000190843
0.000964617
-0.000570464
0.000479051
-0.000668181
-0.000461235
0.000114095
2.64837e-05
0.000152514
-0.000282592
0.000348347
-0.00105395
0.000213757
0.00104432
5.38356e-05
-0.000332674
3.9553e-05
0.000209557
-0.00024404
-0.000401574
0.00106078
0.000150787
-0.000124198
0.000654
0.000475272
-0.00112665
-0.000850402
9.51965e-05
-7.73072e-05
0.0010601
-0.000349153
-0.000694199
-0.000483797
-0.000535457
-0.000197799
-0.000844844
0.00104385
-0.000536974
0.000701999
0.00118174
-0.000782105
-0.000395646
0.000155942
-0.000106589
0.000150131
0.000465908
-0.00030534
0.000247192
0.00078626
-0.000483143
-0.000302373
-0.000399791
0.000949851
-0.000868059
0.00057642
0.00105989
-0.000221604
-0.00021062
-0.00078462
0.00100119
-0.000209567
-8.06021e-05
4.5384e-05
-1.45223e-05
0.000292281
-0.000226805
0.000615899
0.000352436
-0.000925211
0.000573629
-0.000826549
-0.000260467
0.00109277
-8.76769e-05
-0.00025725
-2.76772e-05
-0.000114053
0.000144305
0.000602278
-0.00106947
0.000149328
-0.000117558
0.000518655
0.000268409
-0.000303463
0.00027013
0.000208923
0.000139609
0.000116326
-4.29403e-05
-4.52631e-05
7.64022e-05
6.52932e-05
-2.16305e-06
-4.25682e-07
3.62142e-06
0.000109673
-0.000972188
0.00033956
-0.000566524
0.000241977
0.000324687
-0.000817187
0.000679271
0.000373786
-0.000713959
0.000340689
-0.00119535
0.000717267
0.000487376
-1.64888e-05
0.000156216
-0.000133937
-6.79095e-05
3.00316e-05
0.00104063
-0.000303594
-0.00071883
0.000772473
-0.000203163
-0.000558356
0.000707859
-0.00096504
0.000261868
0.000463306
-0.000405095
-0.000133842
0.000615573
-0.000409758
-0.000776672
0.000868697
-0.000980003
0.000127518
0.000766836
0.000629423
0.000336984
0.000708009
-0.000333777
0.000828328
-0.000174197
0.000323367
0.000189039
-0.0005123
-0.000100421
0.000235058
1.89295e-05
-0.000757494
0.000740544
-0.000736762
-0.000110175
0.00013999
0.000983872
-0.000244311
-0.000734359
0.000376648
-9.42862e-05
-0.00024536
0.00109355
-0.000313158
0.000386425
-0.000590262
0.000204119
0.000175685
-0.000511551
-4.38181e-05
0.000302552
-0.000252118
-0.000793152
8.89534e-05
-0.000953739
0.000251626
0.000531655
7.18184e-05
-0.000281377
-1.59753e-05
0.000640018
0.00015055
0.000160388
-3.39828e-05
5.40399e-05
-1.74818e-05
-2.7731e-05
0.000677455
-0.000514246
0.000613596
-0.000554731
0.000243688
0.00017352
-0.000417167
0.00011144
2.18209e-05
-0.000130656
-0.000118654
0.000262175
-0.000299422
-0.000196974
-0.000167643
0.000379495
0.000704137
-0.00100857
0.000136395
5.6527e-06
0.00087015
-0.000357475
0.000174999
-0.000826555
0.00062536
0.000238796
-4.47983e-06
-1.40885e-05
0.000271626
0.000879673
-0.000552405
0.00103593
-0.000481905
-0.00018003
-0.000569974
-0.000945272
0.000806831
0.000142694
0.000654478
-0.000229763
-0.000429876
-7.54173e-05
0.000507602
0.000231326
9.75616e-05
1.26972e-05
-9.50737e-05
-0.000167478
0.000289094
0.000171824
-0.00072724
0.000560088
-3.82208e-05
1.30517e-05
-0.000826854
0.000848015
-0.000569961
9.54622e-05
0.00106048
-0.000167929
-0.000881817
0.00107884
-0.000241982
-0.000830515
0.000881253
-0.00091918
-0.000689535
0.00104292
0.000326214
-0.000256487
2.97452e-05
2.06689e-05
-3.40331e-05
3.73157e-05
-4.95177e-05
2.13994e-05
0.00109967
-0.000225839
-0.000536756
0.000459706
-8.16955e-05
-0.00072662
0.000825159
0.000631912
-0.000208343
2.57841e-05
0.000139232
0.000155874
-0.000123838
0.000461403
0.0012326
-0.000807842
-0.000423734
0.000204568
0.000487436
-0.000358971
7.05072e-05
0.000418177
-0.000174452
-1.88568e-05
0.000180594
-0.000156826
0.000341715
3.4483e-05
-0.000373105
-4.62406e-05
0.000763147
-0.000716057
0.00118527
-0.00020113
-0.000979924
-0.000825533
0.000949359
0.000689552
0.00102984
-0.000844254
-0.000236965
0.000619033
-0.000381921
0.000488775
0.000744353
8.42178e-08
-8.40769e-06
0.000163522
-0.000177537
-1.44564e-05
0.000900874
0.000803285
-0.00108681
0.000289019
0.000160243
0.00048512
0.000395443
3.63871e-05
0.000165687
-0.000194581
0.000158536
0.000911314
0.000172895
0.000881932
0.000646768
-0.000411888
-0.00023445
-0.000291761
0.00078747
-0.000486901
0.000553238
8.73443e-05
-0.000631658
0.000660058
-0.000810411
0.000154181
-0.000538139
0.000615514
-0.000416968
0.000372224
4.92778e-05
-7.13698e-05
0.000393922
-0.000521273
0.000127522
0.000333577
-0.00049822
0.0001648
0.000134441
0.000281191
-0.00019618
0.000208426
-0.00021467
3.02111e-05
5.32791e-05
0.000229365
-0.000279583
0.000577129
-0.000769443
0.000857487
-0.000172989
-0.000668093
0.000614593
9.76674e-05
1.30091e-05
-9.69568e-05
-0.000580622
0.000314281
-0.00025176
0.000376002
-0.000249441
-0.000113259
0.000882343
-0.000153301
-0.00070588
-0.000676081
0.000255554
0.00061725
0.000177934
-0.000467006
0.000306299
-0.000621268
-0.000193397
0.00083176
-0.000967988
0.000470609
0.000497423
5.71137e-05
-7.45141e-05
0.000958266
0.000271382
0.000117498
-6.13786e-05
-0.000299986
0.000364981
0.000330281
-0.000224079
-9.77341e-05
-9.22124e-05
0.000708706
-0.000615254
-0.000186012
-0.000311834
0.000156208
0.000748227
0.000682899
-0.000363317
-0.000488494
-0.000232975
0.000722471
-0.000446582
9.48499e-05
0.000351777
0.00072498
-0.000341298
-0.000383362
-4.40804e-05
-0.000543588
0.00061376
0.000340078
0.000849003
-0.00011302
-0.000577167
0.000704716
0.00022194
0.000304529
-0.000508983
0.000492308
6.08505e-05
-0.000524683
-0.000639772
-0.000153485
0.000795221
-7.58219e-05
0.000880574
-0.000169532
0.000675566
0.000284624
0.000475078
-0.000758662
0.000435647
0.000219027
0.000643861
-0.000172475
-0.001157
0.000348262
0.000810857
-0.000890977
-0.000175861
0.00107142
0.000150165
-0.000174937
0.000229389
-0.000989861
0.00081459
-0.000926121
0.000114189
4.3464e-05
-6.33376e-05
3.165e-05
4.58445e-05
2.36634e-06
0.000206781
0.000257277
-0.000373296
-0.00051786
0.00033461
0.000463942
0.000386558
-0.000495634
0.000125634
-0.000327486
0.000517586
-0.000189968
0.00022143
0.000207343
-0.000805245
0.000807195
7.64985e-05
-0.000881768
-0.000362843
-0.000425465
0.000790241
0.000969069
-0.00064606
8.32524e-05
-6.58531e-05
-0.000276115
0.000440834
0.000515483
-0.000950855
0.000814522
0.000973857
-0.000232316
-0.000465241
0.000278462
0.000615068
-0.000898476
2.00187e-06
-8.7474e-06
0.000750833
-0.000185425
0.000251451
-0.000446047
0.000194635
0.000121775
0.00028516
0.000661735