/*--------------------------------*- C++ -*----------------------------------*\
| =========                 |                                                 |
| \\      /  F ield         | OpenFOAM: The Open Source CFD Toolbox           |
|  \\    /   O peration     | Version:  v2012                                 |
|   \\  /    A nd           | Website:  www.openfoam.com                      |
|    \\/     M anipulation  |                                                 |
\*---------------------------------------------------------------------------*/
FoamFile
{
    version     2.0;
    format      ascii;
    class       volScalarField;
    location    "900";
    object      omega_0;
}
// * * * * * * * * * * * * * * * * * * * * * * * * * * * * * * * * * * * * * //

dimensions      [0 0 -1 0 0 0 0];


internalField   nonuniform List<scalar> 
18355
(
1.84403
0.0204258
0.19217
0.0210089
0.0313927
0.491092
0.021586
0.0353432
0.021944
0.202623
0.0254584
0.116424
0.12312
0.625971
0.0210686
0.0201975
0.0210052
0.0242452
0.149084
0.0224908
1.80772
0.0218622
0.0204577
0.402225
0.0204686
0.0221724
0.0216047
0.0210152
0.0221403
0.0262081
0.765391
0.0402726
0.0203439
0.0200661
0.0211138
0.0220787
0.0264861
0.0221497
0.0266208
0.0218964
0.0221592
0.0259658
0.0200838
0.0204127
0.020423
0.251034
0.0209915
0.0209807
0.642297
0.0212136
0.0208269
0.925621
0.0212647
0.129918
0.0212836
0.0224827
0.0211218
0.481301
0.0222335
2.91062
0.0200758
0.0855623
0.125072
0.0214067
0.0528254
0.0206224
0.0232694
0.0265035
0.0200244
0.0915819
0.0209267
0.0212836
0.0336843
0.0253025
0.461386
0.0200433
0.563057
0.0200528
0.0208996
0.461607
0.0232336
0.333173
0.0200347
0.0240098
0.0442097
0.0217075
0.0223002
0.0355848
0.0208843
0.0355617
0.205616
1.87832
0.263716
0.0212068
0.588417
0.021653
0.0208655
0.0213561
0.0738548
0.021806
0.0416323
0.0208698
0.0211638
0.0195603
0.0234066
0.0202089
0.0518383
0.56938
0.0304103
0.0201501
0.0207407
0.0214121
0.0295259
0.023827
0.275297
0.0260282
0.020848
0.489175
0.0226645
0.0231222
0.0696472
0.194551
0.216216
0.041402
0.48847
0.269763
0.0216161
0.0210392
1.80361
0.0216415
0.0208704
1.02452
0.0212734
0.0797846
0.095659
0.0208737
0.153108
0.419308
0.0211946
1.86891
0.0244819
0.0430622
0.0209581
0.632406
0.0971653
0.0216526
2.50683
0.0196036
0.0293887
0.249283
0.021008
0.0230678
0.0214172
0.025759
0.0200942
0.0205782
0.0210532
0.0217008
0.0209645
0.0206741
0.0245855
0.02128
0.0201585
0.0291116
0.0256956
0.0563788
3.10244
2.04678
1.59092
0.0244581
0.0212758
0.074089
0.0215894
0.496976
0.0211785
0.0221213
0.0213326
0.0195236
0.0225131
0.0266003
0.021744
0.0419973
0.0217602
0.021039
0.0539811
0.0211495
0.0217291
0.0342935
0.0213472
0.0216769
0.253453
0.0740758
0.0204548
0.0200617
0.0214096
0.277353
0.0205379
2.07251
0.020435
0.537131
0.0211184
0.0233052
0.0269465
0.0216477
2.06103
0.0215653
1.64578
0.0210341
0.0202953
0.0213008
0.021556
0.0626422
0.0223851
0.0219164
0.019614
0.390686
0.0266257
0.0247104
0.0215816
0.0209952
0.0294174
0.0199749
0.0338138
0.0256099
0.0383911
0.0237588
0.0199981
0.438889
0.422935
0.0305854
0.0214217
0.023424
0.0951603
0.0199877
0.0289994
0.0348246
0.0219327
0.25856
0.024394
0.021942
0.0204507
0.0224258
0.0216414
0.0294863
0.0215617
0.0212892
0.0209825
0.0564869
0.114082
0.0210044
0.0217646
0.0896188
0.150273
0.0266585
0.0195289
0.0450818
0.0243657
0.0217505
0.0237519
0.0208134
0.225213
0.305918
0.0672092
0.0288901
0.0274436
0.0338681
0.032243
0.0811262
0.0208055
0.0212904
0.0217951
0.0201479
0.0232992
0.0248658
0.0209756
0.0215569
0.0307067
0.0208612
0.0758305
0.576291
0.0288716
0.0215827
0.0266181
0.0201373
0.0364968
0.0215178
0.0272823
0.0218743
0.0268003
0.266154
0.0203217
0.043926
0.0225537
0.0236065
0.0338412
0.0212902
0.0200458
0.0700766
0.0215553
0.0479733
0.0266035
1.04789
0.0376953
0.0685327
0.0237168
0.0319134
0.0211604
0.0236448
0.0284185
0.0437559
0.0603287
0.250914
0.0210744
0.0237797
0.111065
0.0270592
0.0210699
0.0209728
0.0209942
0.0479759
0.2506
0.340178
0.0470203
0.0302782
0.0242697
0.0662693
0.0196023
0.0215448
0.0242143
0.0213628
0.0307077
0.0210043
0.11975
0.0202294
0.521636
0.0213525
0.0218462
0.0240704
0.135316
1.93354
0.0296143
0.0392526
0.0218931
0.0208941
0.0213541
0.0241273
0.182721
0.0209183
0.0214841
0.138124
0.0218253
0.0209206
0.151748
0.0237029
0.0209885
0.0212991
0.0279198
0.0222775
0.0277968
0.0200486
0.0214751
0.0217726
2.02549
0.102455
0.0200262
0.020943
0.0303255
0.021002
0.0214938
0.0667269
0.122571
0.0325589
0.0213384
0.0219746
0.124184
0.0221407
0.0509328
0.023703
0.0202651
0.0290029
0.0313612
0.0216991
0.0213519
0.0242832
0.0214582
0.023427
0.0214044
0.0551971
0.021661
0.0229098
0.0208669
0.0209955
0.0231257
0.0220378
0.0657695
1.1101
0.135585
0.0228631
0.149684
0.0263558
0.0213712
0.0209539
0.0410799
0.0213466
0.033636
0.0214694
0.0271846
0.0804736
0.0483028
1.93306
0.0710967
0.0195695
0.541974
0.0218068
0.0209655
1.79171
0.0213166
0.0269271
0.0203809
0.0591447
0.0213116
0.0719286
0.44842
0.0621803
0.021289
0.0204534
0.0649798
0.0226673
0.0210266
0.0922066
0.248454
0.0209597
0.0418172
0.0662514
0.0204489
0.0221386
0.0285202
0.186055
0.0372883
0.0218268
0.0212039
0.0363333
0.021281
0.0201951
0.0211702
0.0430335
1.16979
0.0202492
0.0220981
0.0214984
0.142363
0.0315658
0.020042
0.0270227
0.0344167
0.0214751
0.283856
0.0854536
0.0217922
0.0214424
0.0359436
0.146687
0.67363
0.020226
2.04981
0.0212401
0.0202412
0.0401354
0.0227646
0.058245
0.0338343
0.0230156
0.0258951
0.0218714
0.148638
0.0228011
0.027727
0.021864
0.0202027
0.0217062
0.0202173
0.0848824
0.703196
0.0580109
0.0247103
0.0216224
0.0218635
0.0215702
0.023746
0.0215508
0.0200143
0.0213862
0.0368335
0.0204573
0.0215404
2.00252
2.07751
0.115797
0.0216211
0.0219618
0.02865
0.0218362
0.228757
0.211248
0.0235298
0.0240872
0.025875
0.0221497
0.0232804
4.5677
0.0295887
0.0218943
0.348677
0.0215921
2.00026
0.533272
0.0248055
0.0220843
4.59802
0.0209821
0.0683656
0.0407073
0.360953
0.0228045
0.0216854
0.0214609
0.433673
0.548511
0.350414
0.455255
0.023481
0.0214508
0.0240136
0.021297
0.0232681
1.87049
0.242261
0.911858
0.108052
0.0270007
0.0374099
0.0306913
0.0209999
0.0211545
0.0280971
0.0240327
0.0215327
0.0212949
0.547622
0.0208509
0.108447
0.0245833
0.0812566
0.131548
0.021161
0.023822
2.05779
0.0213809
1.15993
0.0212785
1.14872
0.0295892
0.0219508
0.0305232
0.0804034
0.0726125
0.021837
0.0200125
0.0345875
0.0250164
0.0815035
0.0213745
0.0857775
0.0208426
0.205122
0.0212169
0.0211719
0.185795
0.0247111
0.0332865
0.021066
0.0243737
0.023233
0.0808509
0.345141
0.0238872
0.0339546
0.0211451
0.0264689
0.0217321
0.0237248
4.17574
0.0204163
0.12054
0.0215559
0.0212458
0.0237719
0.200008
0.0231686
0.0787294
0.0222059
0.0351929
0.450294
0.0196091
0.0209901
2.10407
0.0344097
2.06736
0.0349915
0.0217376
0.0213007
0.0209682
0.0253032
0.0220006
0.0202102
0.145132
1.11208
0.0211562
0.184485
0.174476
0.0246849
0.202009
0.0202108
0.970875
0.362439
0.0196745
0.452004
0.0387623
0.339063
0.109665
0.0210986
0.0209647
0.021571
0.0608405
0.0471436
0.0213101
0.0219203
0.14423
0.021761
0.0402817
0.0210575
0.0367311
0.472076
0.42644
0.131818
0.409269
0.0360284
0.377292
0.0240913
0.0209242
0.0254609
0.125816
0.0256666
0.044572
0.0212995
0.174115
0.0215157
0.0217805
0.352557
0.0217035
0.0257749
0.0322079
0.0696259
0.0214734
0.0212903
0.0236774
0.0247027
0.0199649
0.021743
0.0319404
0.13867
0.0228784
0.021265
0.0388999
0.449087
0.0212426
0.396578
0.281376
0.0214669
1.89471
0.0199983
0.19359
0.0213471
0.0204133
0.185825
0.022972
0.186086
0.0227784
0.0212923
1.92012
0.0213438
0.0201312
0.0215311
0.0209335
0.0261735
0.0338124
1.85922
0.0220032
1.35061
0.0230209
0.403949
0.472481
0.0221617
0.0213473
0.0243754
0.0201137
0.108379
0.0211973
0.0201097
0.0201475
0.0212985
0.0213704
0.220603
0.0250928
0.0462908
0.0225411
0.0237795
0.0241707
0.0244282
0.32783
0.0204603
0.0844403
0.0413902
0.0200118
0.19865
0.473267
0.0207726
0.383578
0.0211649
0.118417
0.0350949
0.019658
0.0349236
0.0250768
0.392531
0.0208447
0.0240162
0.452224
0.08442
0.0476478
0.0213665
0.213729
0.0751313
1.0891
0.0213736
0.022676
0.0210367
0.0214849
0.0210662
0.0210316
0.0204104
0.398394
0.0255067
0.0208796
0.0200581
0.0205577
0.0217917
0.0780408
0.0741736
0.0203149
0.0247053
0.021556
0.0215882
0.0215217
0.0209519
0.0340697
0.0200554
0.0208915
0.0217112
0.0215964
0.0230699
0.0216036
0.252724
1.66152
0.0239564
0.0208738
0.14101
0.0201001
0.020063
0.0215897
0.0449794
0.0245811
0.0214082
0.0201709
0.0204447
0.0257056
0.0200163
0.0267725
0.0211876
0.0217289
0.0210652
0.0226079
0.346761
0.0209164
0.0218189
0.0211763
0.162332
0.353661
0.0265004
0.0220002
0.0264939
0.0248735
0.0327664
4.39123
0.021708
0.356185
0.0218346
0.0942452
0.0220395
0.0202761
0.0200458
0.603514
0.0200104
0.0267893
0.0309865
0.163356
0.0361346
0.0223067
0.021003
0.0208898
0.0212288
0.0282252
0.104217
0.158682
0.0443872
0.0215291
0.0200137
0.0225624
0.0210672
0.0208115
0.0217595
0.0462629
0.0247434
0.077931
0.0215241
0.0214389
0.0321322
0.0213028
0.146347
0.0447588
0.0375753
0.135252
2.85428
0.0287997
0.0209891
0.0200222
0.0216636
0.0212824
0.0745539
0.0467841
0.105623
0.0203087
0.0215778
0.023221
0.02083
4.36233
0.183764
0.0200608
0.0200421
0.0209669
0.0210737
0.0209288
0.0212965
0.220479
0.0199591
0.0219308
0.0203178
0.0205867
0.021075
0.0214665
0.0264353
0.0205814
0.0246684
0.0201651
0.114039
0.20177
0.0240877
0.0539003
0.0229322
0.0218624
0.0683637
0.223187
0.0214305
0.0207322
0.020472
0.0283184
0.0219004
0.0287967
0.0459062
0.0215059
0.0219892
0.0214849
0.0946129
0.0318815
0.0220235
0.0205921
0.0243164
0.0377587
0.0211484
0.0730187
0.020833
0.0199639
0.0240552
0.795524
0.456852
0.069429
0.223824
0.0200569
0.0366415
0.0650898
0.0249231
0.0212206
0.0665169
0.0235085
0.174814
0.828549
0.0207513
0.0200669
0.0214817
0.0219386
0.0200712
0.0543207
0.0639646
0.0201055
0.0215309
0.0219219
0.0368648
0.0212616
0.0208773
0.0292614
0.0218148
0.0209126
0.0750621
0.0952997
0.0861753
0.021269
0.0202386
0.0201212
0.0213059
0.0241881
0.0263361
0.0208838
0.0206198
0.0228269
0.2575
0.0204585
0.0214185
0.070145
0.0209297
0.0207621
0.0213473
1.30313
0.0202175
0.0214476
0.0204612
0.0225214
0.02023
0.0250786
0.140519
0.0214189
0.155225
0.0280169
0.198159
0.0574738
0.02099
0.0255328
0.0208516
0.0207457
0.0210017
0.408684
0.358999
0.0302149
0.0266333
0.473258
0.0716146
0.0220449
0.10036
0.0480817
0.0233397
0.0200589
0.17747
0.0221868
0.0207359
0.0203947
0.239939
1.1699
1.79328
0.0207123
0.0916217
0.364412
0.0243772
0.0309295
0.0238765
0.0232103
0.0339157
0.118476
0.0230424
0.022226
0.0248067
0.849717
0.219259
0.02125
0.0213476
0.0210789
0.331472
0.0238512
0.0219564
0.47338
0.0250901
0.0337901
0.023865
0.248401
0.0206757
0.0899281
0.0220121
0.0200505
0.0209906
0.0200442
0.0200607
0.020907
0.0216974
0.210655
0.0205227
0.0894676
0.0261439
0.0216651
0.0207467
0.0925917
0.0212042
0.0215288
0.0229834
0.872555
0.0436563
0.022961
0.0215237
0.307974
0.020671
0.0401036
0.0215078
1.71501
0.0314868
0.28737
0.0251332
0.0210264
0.0372428
0.184366
0.176686
0.0205574
0.0213401
0.0369732
4.10305
0.0195692
0.0485324
0.0207391
0.0263797
0.0208738
0.0200517
0.0219319
0.0220543
0.0200152
0.0339385
0.0321014
0.0240892
0.130277
0.178059
0.0221154
0.126168
0.0200875
0.107388
0.335576
0.158369
0.020026
0.0221919
0.0214876
0.77633
0.021063
0.0208284
0.0903076
0.0215079
0.0215134
0.0221586
0.0219715
0.0212502
0.521527
0.368349
0.0645664
0.0207564
0.0214639
0.25224
0.0200813
0.215865
0.0216218
0.0214739
0.0219614
0.0234609
0.233653
0.020699
0.0214726
2.1179
0.0215833
0.0217594
0.0369517
0.344135
0.139871
0.0214284
0.0210498
3.7164
0.234943
1.96978
0.0212058
0.0335223
0.184008
0.0203503
0.0328341
0.0230419
0.409307
0.023357
0.0215491
0.0220023
0.0200104
0.33536
0.0214633
0.0204866
0.329291
0.0278834
0.0359158
0.0199808
0.0224928
0.0200294
0.0196414
0.0202021
0.0222111
0.0216142
0.021838
0.0200172
0.0217334
0.047361
0.0271594
0.024703
0.0206204
0.0238968
0.0210737
0.267708
0.0216627
0.0219198
0.0215581
0.0200476
0.0217922
0.0212186
0.0212
0.0212428
0.0208261
0.0202098
0.450545
0.353214
0.021277
0.332952
0.0346908
0.0216951
0.0216834
0.0220958
0.494494
0.0218352
0.0200788
0.0200977
0.0200367
2.06924
0.0212963
0.020283
0.166871
0.020021
0.0197379
0.0262765
0.0275292
0.0764794
0.137446
1.95373
0.0200703
0.832743
0.0247848
0.0212373
0.0204186
0.0238272
0.0212821
0.0277546
0.0602793
0.0233287
0.0218639
0.330211
0.0565102
2.02867
0.0756195
0.340033
0.0813814
0.0205117
0.208124
1.35177
0.0201272
0.808529
0.0207089
0.0222498
0.133377
0.020732
0.221282
0.024516
0.0226505
0.021986
0.0388485
0.0213756
0.0868618
0.0212406
0.0201891
0.456882
0.0197658
0.0217242
0.0218269
0.0538596
0.0212063
0.0214449
0.0227639
0.198271
0.0212326
0.0212881
0.0202359
0.0234283
0.0211864
0.0222462
0.0476616
0.0209822
0.0258468
0.0216872
0.0232824
0.0227089
0.0209413
0.0218918
0.0984082
0.0215883
0.0217041
0.0240685
0.279327
0.0221525
0.0211305
0.0214263
0.0255859
0.0748922
0.0224778
0.0210226
0.020976
0.0205618
0.0196273
0.0200404
0.0253494
0.0281165
0.0562908
0.0215321
0.5936
0.0206452
0.021744
4.18351
0.0448575
0.0199758
0.078793
0.0219835
0.0210205
0.353464
0.0218483
0.0394619
0.0197387
0.147096
0.0205529
0.0200094
0.0202556
0.0447397
0.088979
0.0215574
1.33447
0.0202343
0.0209197
0.02074
0.135233
0.0212149
0.020654
0.022132
0.0225422
0.0212719
0.0214485
0.0207936
0.0217955
0.0215291
0.0208514
0.0238121
0.0199854
0.807359
0.0673758
0.0202146
0.194157
0.0255718
0.0209411
0.020658
0.0218555
0.0207553
0.0286517
0.0246113
0.0458012
0.0443585
0.0216982
0.0737225
0.14778
0.0212292
0.0216827
0.0876973
0.0232694
0.272432
0.0202175
0.0210707
0.0226844
0.0218091
0.0210261
0.0255892
0.0209499
0.0219934
0.0212568
0.0231539
0.0205885
0.114906
0.0213512
0.0239714
0.0273435
0.021004
0.436556
0.455519
0.0231596
0.0262303
0.0268667
0.0198885
0.0453769
0.0214324
0.0328393
0.440571
0.98962
0.0350663
0.0223765
0.0262396
0.0210215
0.0283394
0.0205271
0.307493
0.0272224
0.0214534
0.0208015
0.121531
0.0330909
0.0212287
0.0212308
0.323306
0.0216119
0.0206449
0.89398
0.0538814
0.0201174
0.873037
0.0203109
0.0400744
0.0570287
0.0212661
0.0214352
0.0233524
1.80668
0.0207943
0.0252141
0.0214403
0.021274
0.0208322
0.367551
0.0218225
0.0214015
0.0211093
0.189494
0.0254587
0.0208076
0.0197776
0.106404
0.0211572
0.020455
1.17379
2.94868
0.0218909
0.248885
0.0233691
0.047552
0.0224315
0.0597484
0.468025
0.0217155
0.0214778
0.0203176
0.023765
0.0212109
0.426686
0.0824364
0.0205298
0.0221334
0.0203361
0.0200176
0.353807
0.0212183
0.0225561
0.0225646
0.048979
0.0214547
0.0216688
0.0246217
0.471499
0.0214625
0.0214114
0.0204452
0.0205647
0.0235827
0.0448471
0.0215872
0.0211304
0.0213017
0.0211044
0.0203266
0.563808
0.0217403
0.021039
0.0211016
0.0608654
0.020373
0.0204577
0.0342838
0.0209219
0.0364495
0.0212607
0.0214333
0.067163
4.69815
1.62339
0.0427941
0.0232028
0.0218222
0.377343
0.0206344
0.0246853
0.0199815
0.912032
0.0195455
0.0236751
0.0214635
0.322799
0.0349598
0.0303837
0.341955
0.0223233
0.0478563
0.0216993
0.0219727
0.393545
0.0342828
0.0211795
0.0203031
0.023281
0.0265584
0.0214264
0.0213028
0.0206286
0.0199588
0.16745
0.351099
0.0216945
0.0220141
0.399151
0.813816
0.023073
0.0221615
0.022869
0.0241665
0.0212174
0.0226223
0.0847634
0.0209123
0.0203262
0.0215026
0.0529959
0.194611
0.0247994
0.0215374
0.0216008
0.0253242
0.0213424
0.0248621
0.0386759
0.0390724
0.0231527
0.366194
0.0201164
0.021232
0.0218219
0.0200047
0.0215534
0.0208619
0.0421398
0.0210092
0.406246
0.0214216
0.02072
0.0204863
0.0268323
0.0223474
0.0443395
0.0560321
0.0201672
0.298798
0.0230682
0.020502
0.0198044
0.307847
0.195899
0.0198234
0.020812
0.0207253
0.0226023
0.164666
0.045989
0.0221707
0.0219489
0.138076
0.359826
0.021921
0.0212182
0.227726
0.0235228
0.0835632
0.0234143
0.0211562
0.0630638
0.0237304
4.76965
0.0238809
0.511811
0.0204006
0.0209214
0.0217138
0.0215997
0.0233955
0.0216636
0.0215466
0.0207951
0.0217979
0.021719
0.0212335
0.0214193
0.0226653
0.021889
0.0213384
0.020837
0.03419
0.0234273
0.020921
0.0215141
0.161398
0.0213751
0.0217488
0.0219656
0.443732
0.0204591
0.0385099
0.0225861
0.0201879
0.0210752
0.30463
0.223436
0.0221791
0.0217206
0.0232423
0.0366421
0.0208745
0.0259477
0.0360373
0.0210577
0.104576
0.0208182
0.0213319
0.020965
0.0217558
0.028608
0.0572234
3.71967
0.0281459
0.0201993
0.0214997
0.0211387
0.0453368
0.0219063
0.312957
0.0208241
0.0213713
0.0213563
0.0757108
0.0209681
0.0215659
0.0212671
0.136252
0.0204676
1.94783
0.0204258
0.0260683
0.021313
0.0292677
0.0209927
0.023347
0.512626
0.041665
0.0202065
0.0352846
0.0215109
0.0213589
2.07221
0.5176
0.0203209
0.0212478
0.0233566
0.020252
0.0211137
0.0218469
0.0216862
0.0235569
0.0526297
0.0220779
0.0258967
0.0382089
0.021688
0.0209987
0.0211798
0.0225628
0.0278553
0.021429
4.23207
0.0206682
0.377063
0.0372162
0.0201166
0.0207205
0.0207
0.0662652
0.0215583
0.0236717
0.0215014
0.0206592
0.522008
0.0227294
0.025672
0.0216469
0.0214592
0.0226386
0.0212402
0.0227332
0.0213675
0.0222668
0.0219269
0.0218593
0.509325
0.0245709
0.440886
0.0209989
0.0266328
0.0223579
0.336521
0.065361
0.867792
0.0225788
0.019953
0.0414118
0.020893
0.456417
0.0221033
0.0453248
0.0223448
0.314304
2.00901
0.0231275
0.0256017
0.0207486
0.020533
0.021872
0.0199234
0.0217099
0.0227671
0.0207874
0.0247076
0.0398767
0.332723
0.0209042
0.0743491
0.0201021
0.0211935
0.0211662
0.094265
0.0216391
0.0973102
0.0216856
0.0211003
0.279292
0.0208836
0.0234668
0.0210559
0.0234354
0.881488
0.0255681
0.577377
0.021287
0.0635353
0.0227835
0.021123
0.0211764
0.0271488
0.0239365
0.0212748
0.0226491
0.021325
0.490897
0.0207326
1.33737
0.201287
0.0709557
0.024518
0.132627
0.0265432
0.0199246
0.225333
0.0211917
0.0847782
0.0218127
0.0224998
0.277458
0.268727
0.0255297
0.120155
0.0213847
0.320095
0.0196087
1.68927
0.0201564
0.0221667
0.0440711
0.0214433
0.0207191
0.0219229
0.0212722
0.0340112
0.301794
0.0317122
0.316066
0.0206692
0.232409
0.021443
0.0217136
0.02103
0.0211003
0.454758
0.0216259
0.0205645
0.0366641
0.0217932
0.315396
0.0740361
0.0212668
0.0379755
0.0339045
0.0208621
0.0214336
0.0236117
0.0203261
0.0562572
0.0271701
0.0226982
0.0228792
0.0204403
0.0212071
0.0592971
0.0219732
0.0214441
0.0222178
0.0199282
0.0201396
2.0074
0.0259588
0.666892
0.0264494
0.0531053
0.0266953
0.0211202
0.0255207
0.0204047
0.020982
0.0344049
0.0239261
0.0227137
0.0475471
0.0219831
0.263728
1.6704
0.0210933
0.0239916
0.026491
0.481498
0.0203155
0.0202906
0.0216958
0.0259319
0.265152
0.0241497
0.0235113
0.0218194
0.0211731
0.0199751
0.12859
0.0237568
0.0221915
0.463618
0.0216273
0.0229039
0.0240763
0.0214941
0.0212383
0.0210258
0.0538823
0.107198
0.0218588
0.023122
0.298597
0.0209116
0.0219455
0.0231495
0.021582
0.35656
0.441287
0.0683485
0.0835055
0.261905
0.0226132
0.0208473
0.0668374
0.0220594
0.0258019
0.0210451
0.0201894
0.322126
0.0839477
0.0210813
0.0207516
0.026206
0.218712
0.0230699
0.019985
0.45852
0.02275
0.0364749
0.0201399
0.0268715
0.019583
0.0227375
0.0251241
0.0211731
4.15078
0.0219367
0.0354899
0.101248
0.330884
0.0886222
0.0211969
0.0627658
0.0241981
0.0238196
0.0224239
0.0219514
0.0214403
0.0225799
0.0350177
0.0227485
0.0574466
0.0207833
0.195857
0.0202932
0.0218697
0.225532
0.0242954
0.192844
0.0227348
0.0220703
4.08849
0.45787
0.0208695
0.271588
0.03198
0.0207217
0.0198483
1.70777
0.263054
0.0204654
0.0202818
0.0211172
0.0202396
0.365817
0.311491
0.0195232
0.0197938
0.0208656
0.220968
0.0473667
0.266309
0.0201941
0.294393
0.0215995
0.0603523
0.475383
0.0239777
0.0205913
0.0205878
0.266294
0.0203435
0.0210593
0.0202131
0.0242507
0.0228806
4.52575
0.0247411
0.0217739
0.021197
0.0262191
0.184375
0.0387197
0.0211222
0.0208713
0.150371
0.050135
0.0219784
0.302785
0.0276631
0.0228067
0.364015
0.0226468
0.025072
0.0218019
0.0920468
0.0214169
0.0217839
2.10124
0.027251
0.0210503
0.0213508
0.0195887
0.0359965
0.111502
0.0209764
0.0202747
0.0221125
0.0664292
0.0224091
0.0202025
0.0212434
0.0207274
0.021955
0.0420576
0.0214084
0.0209595
1.63523
0.021112
0.17182
0.02928
0.0300387
0.0234864
0.0223919
0.0214786
0.23847
0.0863465
0.0697152
4.30121
0.0286039
0.0208785
0.279249
0.0202182
0.0747939
0.331848
0.0219459
0.0211313
0.0233943
0.0754166
0.0212034
0.021019
0.267396
0.0212635
0.0225421
0.0206876
0.0217239
0.0203355
0.0662238
0.122455
0.0201516
0.021024
0.171127
0.021195
0.0201751
0.0209978
0.0208267
1.8187
0.0234818
0.0228768
0.0222264
0.0219357
0.0204067
0.035448
0.100662
0.0259578
0.241116
0.0227572
0.0233115
4.39769
0.020889
0.0203642
0.0210798
0.0208315
0.0217871
0.0197535
0.0221322
0.323896
0.0211765
0.021097
0.0227725
0.0208084
0.339317
0.0216538
0.471288
0.174509
0.0233798
0.029248
0.160499
0.0234633
0.0211813
0.0234198
0.0209498
0.0224674
0.0212483
0.0217881
0.270848
0.0202892
0.0213221
0.0417059
0.186317
0.0216784
0.0208452
0.181686
0.0223697
0.0245771
0.0213104
0.0208567
0.0209772
1.90885
0.0214516
0.187274
0.0528782
0.0221397
0.0208359
0.021069
0.0237671
0.284423
0.0201601
0.0362192
0.0211017
0.507163
0.216839
0.0221181
0.167027
0.0215421
0.0228923
0.0235488
0.268273
0.0237616
0.0259016
0.0265621
0.385126
0.0216944
0.0354777
0.0214518
0.034769
0.144311
0.160577
0.0209543
0.0273528
0.32706
0.468998
0.023038
0.0234459
0.359172
0.347575
0.0208175
0.0550935
0.0211968
0.02381
0.0214773
0.0223811
0.0222879
0.247828
0.0216566
0.021794
0.058448
0.385362
0.0811197
0.125125
0.0536516
0.0207841
0.358832
0.0638996
0.0210498
0.0211238
0.363709
0.0231554
0.0214881
0.0212459
0.0374548
0.0206971
0.0212558
2.43514
0.0214548
0.0217186
0.021041
0.0214031
0.0224604
0.0204821
0.413264
0.0244247
0.0231172
0.0204952
0.0278254
0.122068
0.0208996
0.0216842
0.322245
0.171798
0.0213528
0.0239434
0.0207088
0.020934
0.0418327
0.160539
0.0209351
0.0210737
0.337028
0.50604
0.173815
0.0299515
0.022139
0.125391
0.0207395
0.0245355
0.0237034
0.0205488
1.76329
0.160846
0.0380545
0.0287353
1.74075
0.0198516
0.0197863
0.0227904
0.0323291
0.230154
0.0203346
0.032622
0.885657
0.449552
0.0216284
0.0224067
0.261054
0.0209882
0.023464
0.375764
0.0209627
0.0211975
0.0205091
0.267448
0.0208289
0.0239327
0.0218914
0.0357048
0.0267869
0.423981
0.0211911
0.0211384
0.0286993
0.0217393
0.0229961
0.0221124
0.104283
0.120569
0.0209916
0.0213447
3.57143
0.328066
0.351825
0.020757
0.0213577
0.0226181
0.0215329
0.021271
0.0214347
0.0212255
0.0218695
0.0206741
0.0207629
0.0574977
0.0233939
0.0266638
0.457249
0.0669104
0.0497055
0.024292
0.0431571
0.1366
0.0295001
0.0232829
0.0253104
0.0210711
0.436892
0.0201136
0.0202788
0.0206704
0.476377
0.0208951
0.484625
0.0217666
0.0201291
0.0400947
0.0211772
0.0211515
0.0211694
0.0264376
0.21135
0.0216314
0.0205473
0.0225537
1.05649
0.0492714
0.321962
0.0210512
0.0330542
0.0214953
0.0215385
0.0201935
0.0207229
0.021357
0.0227542
0.285302
0.0226458
0.0231565
0.122032
0.222379
0.128203
0.0208454
0.100125
0.0324985
0.612059
0.0205465
0.0209635
0.0232007
0.468894
0.0197894
0.0213589
0.0207142
0.0203431
0.126716
0.0220967
0.0620415
0.0210733
0.0197734
0.0246755
0.0214346
0.540862
0.0211199
0.0263702
0.0217698
0.0260884
0.0220225
0.0624822
0.331891
0.0212327
0.0388532
3.89522
0.0211219
0.021529
0.0417372
0.0197255
0.321819
0.0289648
0.0209619
0.0594051
0.020019
0.0215065
0.021452
0.0207136
0.0202213
0.0220968
0.0206893
0.0207136
0.0215282
0.0219045
0.048846
0.0200932
0.134313
0.0205182
0.0209013
0.0272612
0.0466265
0.0219853
0.0197222
0.0211992
0.0222692
0.0443766
1.69848
0.0328341
0.0218835
0.021929
0.020754
0.0290216
0.0209351
0.0222829
0.99578
0.242761
0.0466021
0.0210782
0.0218052
0.0220941
0.0197303
0.0411289
0.0201178
0.143282
0.0219266
0.163835
0.0257454
1.10045
0.0215825
0.0667299
2.16033
0.348809
0.351166
0.0243427
0.375229
0.315897
0.021838
0.0341618
0.407305
0.0208539
0.0207482
0.021332
0.0236038
0.0788964
0.0214631
0.0237876
0.314162
0.0195271
0.0214668
0.294858
0.360184
0.0987618
0.374401
0.442948
0.0220771
0.0598718
0.0233818
0.0237105
0.0566374
0.0223363
3.96576
0.0367729
0.0235516
0.0214154
0.0226946
0.0223438
0.0205572
1.95927
0.019784
0.0212453
0.0213109
0.459237
4.55436
0.0423861
0.0213122
0.0224245
0.0204774
0.387567
0.0209809
0.0219782
0.0231682
0.0679886
0.0206952
0.077928
0.687526
0.265444
0.021842
0.0307245
0.0205888
0.714855
0.0198183
0.0694284
0.021447
0.0651776
0.0261401
0.198865
0.124785
0.0226686
0.0225771
0.0271617
0.0235262
0.0211055
0.0207035
0.0247329
0.0219107
0.230486
0.0196525
0.0210914
0.021432
0.0214031
0.103169
0.0207381
0.0201318
0.0215197
0.0941486
0.0260932
0.0563344
0.0225889
0.0224414
0.0854464
0.0206025
0.0213089
0.0720044
0.044036
0.020134
0.032736
0.0227549
0.31088
0.0212471
0.103232
0.0214183
0.0212226
0.0202294
0.0201758
0.0211655
0.0210736
1.7166
0.0648729
0.0215544
0.0213177
0.0211339
0.0221152
0.0263727
0.306992
0.0214741
0.0291796
0.0238981
0.339739
0.0216544
0.0436998
0.0212929
0.0212543
0.027074
0.0212204
0.0214455
0.0206803
0.0200918
0.447824
0.0213837
0.0207292
0.0465075
0.442037
0.0407263
0.0212238
0.0199093
0.0234931
0.365846
0.0229914
0.0216758
0.0215404
1.72565
0.021846
0.0211
0.253602
0.0207679
0.0245508
0.0226809
0.0215289
0.0201754
0.0552818
0.0251292
0.0206199
0.0212799
0.0214224
0.020898
0.0789401
0.0226062
0.0213963
0.0197648
0.0219449
0.0201806
0.0212485
0.078513
0.0206381
0.0239417
0.0232819
0.330924
0.0197255
0.0223634
0.0557015
0.0261072
0.165799
0.0209803
0.0214938
0.24373
0.0214034
0.0201337
0.311466
0.021407
2.19202
0.0773427
0.0661962
0.52174
0.0214163
0.0258187
1.94533
0.0212501
0.019984
0.901047
0.270031
0.0208953
0.0201358
0.022583
0.0206336
0.194382
0.0694193
0.613646
0.0214794
0.0216312
0.0212264
0.0210979
1.00592
0.565176
4.04053
0.0242925
0.0223984
1.50906
0.0213335
0.0208939
0.022479
0.0209272
0.0218277
0.101284
0.0197228
0.458217
0.0218355
0.0219583
0.0213945
0.026174
0.0206703
0.417045
0.0206826
0.0212056
0.0225216
0.0201605
3.58191
0.0238765
0.0257203
0.667956
0.123573
0.029699
0.331318
0.0212941
1.65459
0.0264873
0.0207643
0.0222553
0.0216561
0.442233
0.330586
0.0214564
0.0234732
0.114622
0.0210686
0.0205696
0.0237792
2.25882
0.546146
0.0215299
0.0220299
0.0982525
0.0227948
0.0687583
0.0683047
0.0693826
0.0201458
1.38766
0.0215359
0.250105
0.0592801
0.034394
4.54276
0.276679
4.42623
0.0203624
0.474289
0.0199809
0.0197729
0.248724
0.0197612
0.0221031
0.0211487
0.0649009
0.0206061
0.137104
0.020164
0.0283851
0.457835
0.0258914
0.0245493
0.428077
0.0217969
0.0202424
0.0218329
0.0965929
0.0239202
0.134036
0.0214189
0.0254859
0.0217385
1.95878
0.0214177
0.0215797
0.0213683
0.50113
0.0314849
0.0215267
4.29393
0.0211112
0.0214038
0.0245795
1.73477
0.021395
4.37195
0.0214181
0.37249
0.0214212
0.0431654
0.0209854
0.0528997
0.0214277
0.062902
0.0244127
0.0293564
0.0208942
0.0217298
0.273897
0.0203641
0.0238094
0.026691
0.0200463
0.0663782
0.303073
0.134764
0.0220091
0.019734
0.0211889
0.129687
0.023466
5.12652
0.0238337
0.32884
0.0212869
0.552622
0.0205354
0.0292903
0.11552
0.0228091
1.96251
0.0233311
3.87842
0.160065
0.0207713
1.45501
0.0222522
0.021145
0.0226767
0.0865734
0.0231841
0.159517
0.0246883
0.115418
0.0436065
0.0646218
0.0482793
0.309593
0.0214514
0.0215272
4.21095
4.1384
0.0375566
0.0233715
2.23039
0.232351
0.0212934
0.0214275
0.0212164
0.111052
0.0207063
0.0209259
0.0330022
0.214257
0.0198171
0.0206125
0.0221143
4.14912
0.0205029
0.0239569
0.0198173
0.124453
0.0220537
0.792026
0.0218059
0.0206458
0.0213319
0.020264
0.357604
0.0331361
1.72495
0.0213237
0.0284714
0.0202065
0.201792
0.172128
0.050884
0.0207931
0.0702798
0.020887
0.0215734
0.287317
0.0210755
0.0236133
0.108766
0.0201479
0.114035
0.0207522
0.019827
0.0215501
1.96749
0.0207865
4.63991
0.135158
0.315471
0.309064
0.020709
0.403309
0.065524
4.7625
0.0314936
3.96532
0.173147
0.0215565
0.0316147
0.0217083
0.0279688
0.0207942
0.0228211
0.0212061
0.0253598
0.360458
4.46225
0.0239149
0.0230887
0.854655
0.375232
0.0212134
0.0214625
0.0719071
0.0359054
0.0204403
0.243404
0.0373283
0.0221549
0.0203795
0.022324
0.414817
0.021615
0.0606828
0.0195885
0.842838
3.62058
0.086684
0.0223387
0.0215643
0.0211979
0.0212793
0.021473
0.024399
0.022437
0.0215946
4.51774
0.0208372
0.0215359
0.0210607
0.322015
0.371013
0.0212504
0.0213368
0.559438
0.0204822
4.5369
0.0215232
0.021379
0.0197218
0.021631
0.0205907
0.0227706
0.020405
0.196595
0.0217758
0.0675789
0.0213525
1.79255
0.0214673
0.0243249
1.61858
0.177333
0.0212374
0.0214475
0.0314695
0.0197237
0.538737
0.405494
0.0224818
0.020758
0.0212357
0.0203275
0.0779441
0.32828
0.0378033
0.28968
0.0348887
0.021347
0.0211871
0.0205284
0.586427
0.246859
0.0214591
0.0211359
0.0208158
0.0271122
0.0213791
0.365052
2.80489
0.029053
0.0202763
3.74431
0.128753
0.0214454
0.0510153
0.0231621
0.123991
0.0336671
0.033848
0.0266006
1.24141
0.0326222
3.02542
0.0208419
0.0205249
0.0206965
0.0203108
0.0214933
0.0282417
0.0205145
0.0251483
0.0200092
0.232723
0.0210747
0.027369
0.717401
0.0220282
0.0197998
0.0280604
4.73325
0.0212641
0.0206024
0.172266
3.80677
0.242705
0.0218713
0.0197317
0.35622
0.126735
0.0234611
0.0552692
0.0214013
0.0314569
0.0215247
0.123726
0.020665
0.0208266
0.403664
0.0204175
0.0226948
0.284394
0.0585672
0.0206362
0.0211121
0.0207449
2.37943
0.0236808
0.025974
0.0214282
0.0207772
0.123469
0.0308098
0.0211558
0.0212923
0.0197306
0.0230158
0.0206435
0.0227298
0.181186
0.409559
0.0232128
0.039384
0.0207961
0.0400247
0.0212204
0.0215565
0.0207611
0.232334
0.0370807
0.0200172
0.0226408
0.623437
0.0366908
4.06341
0.0523842
0.021293
0.0207722
0.0268228
0.0223628
4.45777
0.0205004
4.37134
4.55498
0.0209014
0.0381837
0.271379
0.0251136
1.50876
0.107151
0.021869
4.27689
0.0254886
0.0208209
4.3072
0.361131
0.101077
0.0217011
0.300421
0.24421
0.0213385
0.1677
0.29705
0.0213802
0.0207085
0.0218012
0.0200172
0.0215587
0.856219
3.75003
0.0214246
0.0229497
0.476799
4.2059
0.0325444
0.157718
0.021072
0.027999
3.70927
0.0475651
4.0393
4.1825
0.0212546
0.021453
0.0210468
0.0231636
4.06267
0.249308
0.0209711
0.0354062
0.354488
0.302122
0.048717
0.0211386
0.0214847
0.0219195
0.237531
0.0223915
0.0358084
0.0281674
0.0219917
0.429435
0.02314
0.204021
0.139047
0.351126
0.0212189
0.0212111
0.022559
0.0308215
0.198545
0.233367
0.0218542
0.655399
4.02892
0.0299964
0.0321128
0.521328
0.33343
0.317458
0.43384
0.0213237
0.339552
0.40752
0.0299341
0.0262239
0.128552