/*--------------------------------*- C++ -*----------------------------------*\
| =========                 |                                                 |
| \\      /  F ield         | OpenFOAM: The Open Source CFD Toolbox           |
|  \\    /   O peration     | Version:  v2012                                 |
|   \\  /    A nd           | Website:  www.openfoam.com                      |
|    \\/     M anipulation  |                                                 |
\*---------------------------------------------------------------------------*/
FoamFile
{
    version     2.0;
    format      ascii;
    class       surfaceVectorField;
    location    "300";
    object      ddtCorrDdt0(Uf);
}
// * * * * * * * * * * * * * * * * * * * * * * * * * * * * * * * * * * * * * //

dimensions      [0 1 -2 0 0 0 0];


internalField   nonuniform List<vector> 
27907
(
(0.0095689 -0.00156017 8.68442e-18)
(0.00972639 -0.00115661 -3.4371e-18)
(0.00991608 -0.00155164 1.73002e-17)
(0.0207802 0.00872167 -4.39548e-18)
(0.0395801 0.00688336 4.5383e-17)
(0.0250172 0.00717083 2.1775e-17)
(-6.92855e-05 3.31951e-05 5.78671e-19)
(-6.35103e-05 3.01691e-05 3.38071e-19)
(-6.668e-05 2.74122e-05 -2.34593e-19)
(0.0923638 -0.0165403 -3.79657e-18)
(0.0856999 -0.0120363 9.35675e-18)
(0.0820802 -0.0243377 1.02734e-17)
(0.0146681 -0.0277066 1.47263e-17)
(0.0107359 -0.0293886 6.4853e-18)
(0.0174704 -0.0269188 9.09843e-18)
(0.0318207 0.0108531 -4.29758e-18)
(0.0355428 0.010095 2.58018e-17)
(0.0310025 0.00974424 -1.68314e-17)
(-0.00954347 -0.000681561 -1.09328e-17)
(-0.0104716 -0.000376251 -6.09441e-17)
(-0.00982127 -0.000692726 -7.73168e-17)
(0.000196433 0.000150661 3.03045e-19)
(0.000190401 0.000170488 2.20919e-19)
(0.000204131 0.000158727 -4.35245e-19)
(-0.0015521 -0.0225753 -9.13979e-18)
(-0.0026884 -0.0216115 1.79418e-17)
(-0.00334855 -0.0233352 3.81716e-17)
(0.00299554 -0.000195669 -1.52631e-19)
(0.00307084 -0.000238277 1.83782e-19)
(0.00304467 -0.000133677 2.22691e-19)
(0.00163907 0.00125504 -1.20962e-17)
(0.0016779 0.00127585 -2.49393e-18)
(0.00169296 0.00124361 -7.50511e-18)
(0.00700508 -0.00296359 -1.25321e-17)
(0.00722817 -0.00267079 5.42244e-19)
(0.012004 -0.00289667 -5.32177e-17)
(0.000151856 -1.05308e-05 1.62476e-20)
(0.000153298 -1.00495e-05 -8.46778e-20)
(0.000156432 -6.97289e-06 9.9896e-20)
(0.02744 0.0370449 -1.14108e-17)
(0.0280276 0.0355551 9.20639e-19)
(0.0263512 0.0356846 -1.42114e-17)
(-0.00149082 0.0018016 4.43674e-19)
(-0.00141923 0.00187405 1.22114e-18)
(-0.00137693 0.00174918 -1.49752e-18)
(0.00416292 -0.0106825 1.22281e-17)
(0.00380839 -0.0104799 2.00252e-17)
(0.00405515 -0.0101432 2.95659e-17)
(0.00528787 0.00426973 -4.80415e-18)
(0.00504942 0.00437278 -7.64125e-19)
(0.00506821 0.00411316 -2.09219e-17)
(0.000232812 2.14074e-05 -2.42374e-19)
(0.000231248 1.09642e-05 5.07924e-19)
(0.000229002 2.71273e-05 -1.72811e-19)
(-6.13144e-05 0.000771565 2.0026e-18)
(-5.52507e-05 0.00080741 -1.44976e-18)
(-9.35284e-05 0.000793589 2.72879e-18)
(0.003653 -0.000112561 2.18942e-18)
(0.00367231 -0.000208082 2.78804e-20)
(0.00355438 -0.000164537 -5.92357e-19)
(-0.0346946 -0.00525726 -1.02941e-18)
(-0.0384486 -0.0034943 2.1752e-17)
(-0.033158 -0.00532196 -3.84122e-17)
(1.61056e-06 -5.9956e-05 -3.20041e-19)
(1.47676e-06 -9.84369e-05 6.04093e-19)
(4.87375e-06 -7.49617e-05 -8.40994e-19)
(-0.00628972 -0.00028277 3.72829e-18)
(-0.00389204 -0.000615038 1.28992e-17)
(-0.00648524 -0.000591914 1.4632e-17)
(-0.0100908 -0.0490198 1.62515e-17)
(-0.0132703 -0.0491624 1.61812e-17)
(-0.0223408 -0.0505891 1.50093e-17)
(0.00303469 0.0196869 -2.86271e-17)
(0.00532782 0.0194641 -1.63781e-17)
(0.0058224 0.0199718 1.96514e-17)
(0.000208802 0.000133046 -9.09678e-19)
(0.000194536 0.000137507 1.73973e-19)
(0.00710136 -0.0120427 9.87982e-19)
(0.00635402 -0.0118859 5.28365e-19)
(0.00652935 -0.0119371 -1.17498e-18)
(0.0327842 -0.0212627 1.20814e-17)
(0.0277133 -0.0226445 -5.38772e-17)
(0.0305383 -0.0221641 -1.09058e-16)
(0.0508973 0.0146448 1.3347e-17)
(0.0543506 0.0131296 -2.56966e-17)
(0.0535548 0.0144602 4.72484e-18)
(0.0125639 -0.0129704 -7.56252e-18)
(0.0121478 -0.01265 -9.31293e-18)
(0.0128664 -0.0136412 -9.7694e-18)
(0.0122599 0.0132464 -5.83746e-18)
(0.0130834 0.0131117 4.12153e-18)
(0.0125426 0.0123991 -1.45266e-17)
(-0.0638353 -0.00264885 2.16e-18)
(-0.0612541 -0.00359969 6.2315e-19)
(-0.0619732 -0.0032386 -7.70574e-18)
(4.82691e-05 -2.00984e-05 4.18023e-19)
(3.94958e-05 -1.84595e-05 3.52717e-21)
(4.39795e-05 -1.11482e-05 9.62789e-19)
(0.000553659 0.00142406 1.50476e-18)
(0.000534827 0.00147174 3.69815e-19)
(0.000495001 0.00142487 6.87167e-19)
(0.0281639 0.00408097 5.63964e-18)
(0.0274052 0.00530137 3.16997e-19)
(0.0290059 0.00559154 2.92183e-18)
(5.11167e-05 -0.000759789 -1.40173e-18)
(5.33996e-05 -0.000794203 3.5359e-18)
(5.72787e-05 -0.000780514 -2.48939e-18)
(1.79529e-05 -2.46217e-05 2.6308e-19)
(1.34864e-05 -1.86146e-05 6.67754e-19)
(1.40636e-05 -2.44756e-05 -7.23191e-20)
(0.000730763 0.000929377 -1.25445e-18)
(0.000730267 0.000913411 1.4168e-18)
(0.000766002 0.000933796 -8.54354e-19)
(0.000940979 0.00107034 8.32878e-19)
(0.00090521 0.00107183 4.39088e-18)
(0.000898928 0.00104948 5.34441e-18)
(0.00586345 0.00309574 -4.19097e-19)
(0.0054291 0.00307831 4.80112e-18)
(0.00565135 0.00344799 -4.14732e-18)
(0.000676537 0.000931201 3.50142e-19)
(0.000702066 0.000936791 -1.08678e-18)
(0.000665719 0.000920461 2.0379e-20)
(0.00191055 -0.00203969 -2.93272e-18)
(0.00182459 -0.0020403 7.85517e-18)
(0.00190254 -0.00196617 1.17233e-17)
(9.22962e-05 0.000364842 9.58443e-19)
(0.000108782 0.000384406 1.22385e-18)
(9.62832e-05 0.000377331 1.11268e-18)
(0.00237486 -0.00118784 -2.73431e-18)
(0.002451 -0.0011378 -6.34488e-18)
(0.00237443 -0.00110133 -3.28185e-18)
(0.0160535 -0.00832695 2.03861e-19)
(0.0160056 -0.00782625 -4.68637e-19)
(0.016696 -0.00840572 5.80316e-18)
(3.82858e-05 8.15131e-05 4.02528e-21)
(2.95931e-05 7.40354e-05 1.22678e-19)
(3.11425e-05 8.50676e-05 5.37792e-19)
(-0.00625346 1.7966e-05 -3.96453e-17)
(-0.00794879 -7.91652e-05 -2.42545e-17)
(0.00198109 0.00102315 5.12946e-19)
(0.00197248 0.00105863 -4.58771e-18)
(0.00192943 0.0010356 -2.81668e-18)
(0.00294881 -0.000275144 -1.8122e-19)
(0.00290568 -0.000172846 -4.20556e-19)
(3.21331e-05 0.000286431 -9.2187e-19)
(1.89268e-05 0.000267652 -1.31901e-18)
(2.72383e-05 0.000272644 -9.01664e-20)
(0.00476918 0.0074204 -1.38079e-17)
(0.00446701 0.0075788 -4.54961e-17)
(0.00475238 0.00780801 -1.71327e-17)
(-0.040127 -0.0229233 -9.81063e-18)
(-0.038279 -0.0242124 -5.6687e-18)
(-0.0419146 -0.0247603 1.59117e-17)
(-2.79056e-05 7.49997e-05 -5.27653e-19)
(-3.07664e-05 7.65915e-05 2.32191e-19)
(-3.22773e-05 6.89278e-05 -1.17749e-18)
(0.00159971 0.00122872 -3.23426e-18)
(0.00158256 0.00125806 3.08293e-18)
(0.0371159 -0.0187519 3.24109e-17)
(0.036078 -0.0193521 4.53145e-17)
(0.0382619 0.00420602 4.38852e-17)
(0.034425 0.00714203 -3.35962e-18)
(0.0302513 0.00681625 -3.41156e-19)
(2.29358e-05 -2.49898e-05 -1.8059e-19)
(2.31031e-05 -3.20615e-05 -1.67608e-19)
(0.00260695 -0.00950996 -3.07123e-18)
(0.00258402 -0.00915362 -4.22469e-17)
(0.000653886 -0.00100258 4.37081e-19)
(0.000663076 -0.000964646 9.02672e-19)
(0.000694091 -0.00100118 9.88953e-19)
(0.0313119 0.0348732 2.52009e-17)
(0.0296071 0.0353677 1.79658e-17)
(0.0307896 0.0366432 -1.28945e-17)
(0.00887019 0.000244865 8.98206e-18)
(0.00891674 -5.65191e-06 8.64097e-18)
(0.00914187 0.000231938 -7.65582e-18)
(-0.00931234 -0.000646845 5.35637e-17)
(-0.00880998 -0.000956616 4.01507e-17)
(0.00201117 -0.0080088 -4.44499e-18)
(0.00272747 -0.00848785 -1.82654e-19)
(0.00185105 -0.00887757 -4.77231e-17)
(0.00124861 -0.00144249 5.33217e-18)
(0.00123112 -0.00141293 5.88784e-19)
(0.00119749 -0.00146641 -3.22528e-18)
(-2.30412e-05 8.31154e-05 1.75514e-18)
(-2.65936e-05 7.32393e-05 -5.59081e-19)
(0.000161633 -0.000226404 3.30831e-19)
(0.000153741 -0.000232318 6.90302e-19)
(0.000163646 -0.00022738 -1.77628e-18)
(0.00608224 0.00367571 1.35941e-17)
(0.00615933 0.00414539 -2.36949e-18)
(0.00575146 0.00389467 -1.68363e-18)
(5.6579e-05 -1.93961e-05 -2.83787e-19)
(5.23929e-05 -2.7639e-05 -7.5466e-19)
(0.000670798 0.000893298 -3.15681e-18)
(0.000658186 0.000873163 7.44587e-19)
(0.000622031 0.000885589 1.38009e-18)
(-0.0390003 -0.0214306 -5.13381e-17)
(-0.0415059 -0.0222578 2.82982e-18)
(-0.0275715 -0.0243097 1.64861e-17)
(-0.0290065 -0.0239422 -9.86971e-19)
(-0.0269541 -0.0223182 -1.6875e-18)
(0.000725339 -0.00164093 -3.02091e-18)
(0.000767996 -0.00162519 -3.05739e-18)
(0.000748623 -0.00160373 -6.65599e-19)
(4.54479e-05 0.000304854 5.84267e-19)
(3.66708e-05 0.000299977 -4.77458e-19)
(0.000334092 -0.000657817 2.81846e-17)
(-0.00611583 0.000192305 9.27996e-18)
(-0.00115136 0.00423067 -1.11501e-17)
(0.000218516 0.000404526 7.91123e-19)
(0.000222878 0.000390354 1.89035e-18)
(0.000205716 0.000391987 -1.04228e-19)
(0.000707887 -0.000926171 1.33202e-18)
(0.000694721 -0.000946292 3.20909e-18)
(0.000677525 -0.00091485 4.14322e-18)
(0.0264024 -0.0233385 -1.5762e-17)
(0.0244956 -0.0233305 3.66408e-18)
(0.0252852 -0.0253093 3.48945e-17)
(0.00500334 -0.0305115 -3.70402e-18)
(0.00929086 -0.027419 2.6978e-18)
(0.00820126 -0.0292753 -1.38016e-17)
(0.00619442 -0.00547955 -7.84633e-19)
(0.0063657 -0.00523819 -3.87161e-18)
(0.00652108 -0.0055385 2.11781e-18)
(-0.00666473 -0.0024308 5.10747e-17)
(-0.00678853 -0.00241431 -6.35948e-18)
(-0.00773197 -0.00217907 7.4516e-17)
(0.00291116 0.00943074 -2.88208e-17)
(0.002527 0.0089877 -2.35255e-17)
(0.00785467 0.00922645 -1.76933e-17)
(0.0173944 -0.00501854 -5.95242e-18)
(0.0176238 -0.00670896 -1.25893e-17)
(0.0161336 -0.00535763 6.13445e-18)
(0.0314184 0.0334073 6.91004e-18)
(0.0325671 0.0345436 1.98667e-19)
(0.041646 0.00360862 -1.62399e-17)
(0.0378218 0.00449769 9.8566e-18)
(0.0378467 0.00278416 -3.4768e-17)
(0.0280939 -0.0219806 -1.36524e-17)
(0.0285166 -0.024152 -3.21208e-17)
(0.00254635 0.00190154 -1.10356e-17)
(0.00253459 0.0018427 1.92098e-17)
(0.00247366 0.00190022 1.94594e-17)
(0.00080083 -0.00190158 -7.50432e-17)
(0.000349271 -0.00231041 -2.44029e-17)
(0.0048879 -0.00197522 -9.85415e-18)
(0.00134268 -0.00770791 1.91098e-17)
(0.00218249 -0.00737045 2.92594e-17)
(-0.00501805 -0.00113245 8.22201e-18)
(-0.00511235 -0.000736218 -6.35183e-18)
(-0.00546974 -0.000910317 -1.25457e-17)
(0.000717889 -0.000896852 -9.80099e-19)
(0.000740348 -0.000924814 -1.8725e-18)
(0.045065 0.00282475 -3.99241e-18)
(0.0447997 0.00414 -3.32314e-18)
(0.00063965 -0.00100784 -1.52947e-18)
(0.000643942 -0.000988539 -1.79591e-18)
(-0.00216743 -0.00236709 5.54253e-17)
(-0.00178077 -0.0023731 1.81984e-17)
(-0.000335965 -0.00220397 5.32684e-17)
(0.00202083 -0.00205063 -9.85213e-18)
(0.00191872 -0.0021405 -1.69789e-17)
(0.004755 0.0118068 3.99373e-18)
(0.00425763 0.011346 -4.7289e-18)
(0.0088903 0.0122531 -3.86766e-17)
(-0.00237914 -0.00213769 -3.49817e-17)
(-0.00324391 -0.0023888 6.23754e-17)
(0.0296737 -0.0218484 3.40215e-17)
(0.0285487 -0.0205099 3.32684e-17)
(0.000213635 0.000415901 2.37341e-18)
(0.000231359 0.000416638 3.53681e-19)
(0.000520053 -0.000519261 -6.79369e-19)
(0.000515203 -0.000515284 -6.3884e-19)
(0.000535584 -0.000536145 -1.34105e-18)
(-0.0329919 -0.00696128 1.43577e-17)
(-0.0367992 -0.00478482 1.80672e-17)
(0.00378615 0.000142273 -5.39727e-18)
(0.00385911 7.56124e-05 -7.51693e-19)
(0.00375092 8.03565e-05 -6.90151e-19)
(0.0484219 0.00210086 -2.98723e-18)
(0.0510992 0.00262295 -1.23803e-18)
(0.0517722 0.0016652 -3.13712e-18)
(0.0134281 -0.00196249 -1.46158e-17)
(0.0130442 -0.00121639 1.81783e-17)
(0.013957 -0.00126014 7.6496e-18)
(0.0042945 0.00212015 -7.183e-18)
(0.00437461 0.00205327 -8.05258e-18)
(0.00426665 0.00201942 -1.46191e-18)
(-0.0653262 -0.00183627 8.26176e-18)
(-0.066264 -0.00170117 -3.29655e-18)
(0.0138727 -0.0133347 1.97756e-18)
(0.0136058 -0.0120296 -4.62807e-18)
(-0.0441555 -0.0418926 -7.71285e-18)
(-0.0450247 -0.0433357 -5.62828e-18)
(-0.0427637 -0.0423261 -2.61161e-18)
(0.00227012 -0.0306948 9.69189e-18)
(-0.00150965 -0.0326156 3.34654e-17)
(0.00133644 0.00107116 1.92881e-18)
(0.001288 0.00107083 1.72214e-18)
(0.00131869 0.00109723 -4.16536e-18)
(0.000363338 -0.00184788 -2.97521e-18)
(0.000334291 -0.00184816 1.41601e-19)
(0.000331253 -0.00186855 -4.09443e-18)
(-0.00122212 -0.00178158 -8.72421e-17)
(-0.00297973 -0.00205563 -5.3294e-17)
(0.00315413 -0.0129458 -6.68307e-17)
(0.00023527 4.89478e-05 -1.51636e-19)
(0.000228418 4.85857e-05 -3.31653e-19)
(0.000233479 2.92376e-05 -7.90035e-19)
(0.00114777 -0.000217044 1.35814e-19)
(0.00114546 -0.000145066 -2.50625e-20)
(0.00109904 -0.000209693 -2.53426e-20)
(0.00234719 -0.0116255 -2.63444e-17)
(0.000114969 -0.0138875 2.25617e-18)
(0.0020774 -0.0106208 -2.99031e-17)
(0.0473379 0.00362787 9.84493e-18)
(0.0453309 0.00185125 6.77143e-18)
(0.0488399 0.00315867 -3.26265e-17)
(0.0701432 0.0014222 -2.81464e-17)
(0.0695725 0.00122147 4.91661e-17)
(0.0684948 0.00184111 1.57267e-17)
(-0.00160093 0.00183429 -1.48163e-18)
(-0.00154056 0.00171702 -3.32865e-19)
(-0.00279014 -0.00250557 -8.41117e-18)
(0.0016783 -0.00286389 6.64574e-17)
(-0.00280759 -0.00238658 6.31642e-17)
(0.00461593 0.012293 8.70586e-18)
(0.00237504 0.0117829 6.29295e-18)
(0.00265111 0.00158786 2.18884e-17)
(0.00264994 0.00157698 1.10882e-17)
(0.00265578 0.00160027 5.78399e-18)
(0.000303348 -0.000801678 -7.96534e-19)
(0.000320268 -0.000840108 -1.82115e-18)
(0.000307203 -0.00085336 1.22279e-20)
(0.0507485 0.00735733 1.94295e-17)
(0.0501261 0.00807135 4.07796e-17)
(0.0471847 0.00722949 4.56419e-17)
(0.00470789 -0.0115714 7.78786e-18)
(0.00524161 -0.0113478 -1.98308e-18)
(0.0052218 -0.0120128 7.0557e-18)
(0.0144042 -0.00226066 3.82934e-18)
(0.0146266 -0.00261955 1.27255e-17)
(0.0149037 -0.00241079 -7.8986e-21)
(0.0178655 -0.00345188 -9.08857e-18)
(0.0158662 -0.00555894 2.92173e-19)
(0.0166671 0.0101513 -1.66091e-17)
(0.0024633 0.010323 -3.20026e-17)
(-0.0114897 -0.0340686 1.63572e-17)
(-0.0100894 -0.0360977 2.97769e-17)
(-0.0122234 -0.0353757 -7.73645e-18)
(-0.00194323 -0.0024431 -4.72716e-17)
(-0.00312074 -0.00218644 -1.31001e-16)
(0.000137205 -8.03795e-07 -1.46931e-21)
(0.0001473 4.28308e-06 -2.30364e-19)
(0.000153558 7.74869e-06 4.03547e-19)
(0.00553135 0.00405734 1.26952e-17)
(0.00557469 0.00445946 2.4206e-18)
(0.00790362 -0.011719 -5.10365e-18)
(0.0072967 -0.0113811 1.1318e-18)
(-0.0337786 -0.00188617 3.67896e-17)
(-0.0355415 -0.00212463 2.62657e-17)
(0.00495072 -0.00341058 4.85394e-18)
(0.00478519 -0.00357812 -1.86683e-18)
(0.00476981 -0.00327081 -4.1573e-18)
(0.00164825 -0.0127134 -1.35109e-17)
(0.00155563 -0.0132663 2.76889e-18)
(0.00165881 -0.00135835 5.49314e-18)
(0.0017243 -0.00134923 4.30208e-19)
(0.00170319 -0.00126907 1.09697e-18)
(0.0227257 -0.0237558 -1.51122e-17)
(0.0238896 -0.0217629 -1.55694e-17)
(0.00617002 0.00308164 6.04301e-18)
(0.00598621 0.00275738 3.81373e-18)
(0.000535328 -0.000526331 1.20283e-19)
(0.000512909 -0.000500907 -1.55352e-19)
(0.00409979 -0.0061829 -5.98151e-18)
(0.00390566 -0.00612221 -1.11944e-17)
(0.00399148 -0.00639531 1.87701e-17)
(0.00596397 -0.00547359 5.18313e-18)
(0.00608746 -0.00577627 1.81623e-18)
(0.00878737 -0.00716943 -3.64642e-19)
(0.00867134 -0.00756112 1.89077e-19)
(0.0091252 -0.00737877 3.29387e-18)
(0.000971111 -0.000526764 3.22979e-19)
(0.000984752 -0.000471073 -7.24977e-19)
(0.000998068 -0.000524294 -5.2794e-19)
(0.0398149 0.00271215 2.10805e-17)
(0.0427034 0.00234971 -5.8859e-18)
(0.000653608 0.000936541 -2.16502e-18)
(0.000694389 0.000953791 4.29392e-18)
(-0.000206268 0.000916655 9.52281e-20)
(-0.000239038 0.000908604 -4.12148e-19)
(-0.000215296 0.000880216 2.22938e-18)
(0.0185761 -0.00582862 -1.44316e-17)
(0.020757 -0.00566526 1.42641e-17)
(0.0184582 -0.00377245 7.48785e-18)
(-0.074361 -0.00541242 -8.55196e-18)
(-0.0694659 -0.00938979 2.76906e-18)
(-0.0773167 -0.0109161 8.25786e-19)
(0.0114843 0.013312 -6.73254e-18)
(0.0119125 0.0140999 8.42569e-18)
(-0.0218498 -0.0352388 8.10055e-18)
(-0.0193933 -0.0334666 3.53814e-17)
(-0.0188009 -0.03387 3.47361e-17)
(0.0185173 -0.00359882 -1.45895e-17)
(0.0177778 -0.00335183 -2.34018e-17)
(0.0109446 -0.0303682 5.77781e-18)
(-0.0110906 -0.0337504 1.15291e-17)
(0.00982286 -0.0286389 1.05558e-17)
(0.00252067 0.00179656 9.92027e-19)
(0.00245996 0.00179751 -2.84713e-18)
(0.00251465 0.00175222 -6.91364e-18)
(-3.63362e-06 -5.5818e-05 -1.17888e-19)
(2.94283e-06 -8.5455e-05 -8.27822e-19)
(-5.61613e-07 -6.34328e-05 -2.61482e-19)
(-0.00389044 0.00670099 -1.33795e-17)
(-0.00327529 0.00762866 6.57484e-19)
(-0.00480882 0.00677272 2.69135e-17)
(0.00239464 0.00158397 3.21901e-17)
(0.00233634 0.00157949 -1.14089e-18)
(0.00235651 0.00154896 2.54068e-18)
(-0.0051506 -0.00275277 -1.1691e-16)
(-0.00336065 -0.00286271 -6.25465e-17)
(0.0019942 0.000988676 1.01404e-18)
(0.00204069 0.00101359 1.82854e-18)
(0.00108002 -0.000950836 -5.36225e-19)
(0.00111625 -0.000954439 -6.85769e-19)
(0.00107335 -0.00100623 7.8712e-19)
(2.65586e-07 -4.36034e-05 2.77039e-18)
(7.62068e-07 -1.82048e-05 -2.12517e-19)
(6.91592e-07 -1.88934e-05 1.08019e-18)
(0.000438737 -0.000113577 -1.34964e-20)
(0.000449386 -9.56031e-05 -5.05289e-19)
(0.000449816 -0.000127108 -3.63181e-19)
(0.0329899 0.0309328 -2.01684e-18)
(0.0320375 0.0320881 -1.19743e-17)
(0.033542 0.032311 -2.90875e-18)
(-0.0036776 -0.00168031 8.9082e-19)
(-0.00388461 -0.00160166 -6.79609e-18)
(-0.00403762 -0.0018789 5.90458e-19)
(0.00107082 -0.000944222 2.19559e-18)
(0.00109999 -0.000922532 -8.87825e-19)
(0.00883772 0.000499295 -2.64725e-17)
(0.0086182 0.000281138 1.98418e-17)
(0.0487207 0.0152775 9.36559e-18)
(0.0484718 0.016488 2.28165e-17)
(2.36753e-05 0.000842801 -6.82295e-19)
(3.73225e-05 0.000879587 -4.00505e-18)
(6.66388e-05 0.000851809 -3.4032e-18)
(0.040358 0.003368 2.17299e-17)
(0.0427234 0.00384862 1.33461e-17)
(0.0382037 0.00283838 2.26813e-17)
(0.0118281 0.0044908 -3.27769e-17)
(0.0117926 0.0041279 6.14042e-19)
(0.0114266 0.00436037 -1.03585e-18)
(0.0338176 0.00515186 2.41899e-17)
(0.0290859 0.00429261 3.58728e-17)
(0.0295145 0.00580389 -5.98095e-18)
(0.0259111 0.0100284 1.44627e-19)
(0.0245231 0.00982611 -4.34983e-18)
(0.0233596 0.0116086 -5.63646e-17)
(0.000235515 2.80781e-05 -4.99164e-19)
(0.000238525 1.37589e-05 -1.62159e-19)
(-0.00204654 -0.00162327 5.17202e-18)
(-0.00353881 -0.00186745 -1.00471e-17)
(0.0289748 -0.0229135 -1.78046e-17)
(0.0271176 -0.0236336 1.0212e-16)
(0.0234388 -0.0247743 7.5539e-17)
(0.03252 0.0297738 -2.73974e-18)
(0.0339957 0.0299149 -1.74681e-19)
(0.00397212 -0.0476466 5.51275e-18)
(-0.00861294 -0.0496573 -1.54009e-17)
(0.031769 0.0103715 1.00643e-17)
(0.0323313 0.0123846 -2.198e-17)
(0.0340857 0.0107583 3.3819e-17)
(0.00129237 -0.00143061 -5.46985e-18)
(0.00124974 -0.0014862 -8.38338e-20)
(0.00403479 -0.00592942 6.22238e-19)
(0.0042462 -0.00609413 5.75894e-18)
(0.00106083 0.00083318 -2.13118e-18)
(0.00107467 0.000860385 9.28789e-19)
(0.00103692 0.000857686 -5.5463e-19)
(0.000226896 -4.46234e-05 6.71995e-20)
(0.000221498 -5.37418e-05 -5.93937e-19)
(0.00022062 -3.98029e-05 -3.1365e-19)
(0.0447551 0.00117065 -9.92076e-19)
(0.0457359 0.000737891 1.94019e-17)
(0.0363935 -0.0245662 -2.52759e-17)
(0.0132064 -0.031254 -2.69158e-17)
(-1.64471e-05 0.000344461 -1.38596e-18)
(-2.91717e-05 0.000346496 7.46782e-19)
(-9.68225e-06 0.00036627 -1.44639e-18)
(0.0005677 0.00297758 2.33456e-19)
(0.000533269 0.00309251 5.63629e-18)
(0.000669106 0.00302796 -3.68895e-18)
(0.0397627 -0.0284481 6.5593e-18)
(0.056948 -0.0248287 1.02725e-17)
(0.0584067 -0.021379 2.23385e-18)
(0.000535164 -0.000689689 1.3718e-18)
(0.000549433 -0.000721569 -1.18431e-19)
(0.000548774 -0.000697204 1.62285e-18)
(0.0457235 0.00340532 -6.64421e-18)
(0.04564 0.00494431 4.35706e-17)
(7.75631e-05 0.000337144 2.57515e-19)
(6.2711e-05 0.000316742 -2.31545e-18)
(7.15783e-05 0.000323096 -1.3153e-18)
(0.000465919 -0.000633086 -8.17958e-19)
(0.000483491 -0.000663121 -2.91417e-18)
(0.000482068 -0.000689158 -2.57199e-18)
(0.00509328 -0.00322329 3.11771e-18)
(0.00509531 -0.0034913 3.19365e-18)
(-0.0130785 -0.0319886 8.00505e-18)
(-0.0103828 -0.0324317 -1.97036e-18)
(0.00147086 6.64334e-06 -9.23154e-20)
(0.00150736 1.58298e-05 -1.05785e-19)
(0.00148623 -3.83521e-05 2.28495e-19)
(0.0106853 0.013297 -1.4918e-19)
(0.0110194 0.0125612 -1.95604e-17)
(0.00378327 -0.00160408 1.35115e-18)
(0.00380801 -0.00170955 -2.48068e-18)
(0.00390046 -0.00161256 -2.99657e-19)
(0.000670936 -0.00740806 1.61303e-18)
(0.000555614 -0.00814855 -3.73006e-17)
(0.00368655 -2.08795e-05 4.88419e-18)
(0.00376049 -0.000113183 6.62519e-18)
(0.0119039 0.00503218 1.24903e-17)
(0.0123924 0.00476242 3.21037e-18)
(0.000102503 -0.000260306 -5.86783e-19)
(9.17012e-05 -0.000254392 2.87866e-20)
(9.22439e-05 -0.000268073 -2.38656e-19)
(8.41987e-05 0.000352102 3.07833e-19)
(7.53787e-05 0.000344753 4.28431e-19)
(0.00291537 -0.00630571 1.00953e-18)
(0.00314016 -0.00631578 -2.67443e-18)
(0.00304635 -0.00609224 -1.35843e-17)
(0.00199772 0.000952162 -6.47535e-19)
(0.00194725 0.000961818 -7.26504e-18)
(0.0040606 0.000972594 4.9806e-18)
(0.00408173 0.000870543 -1.62556e-18)
(0.00420062 0.000938219 -4.20585e-18)
(0.00218602 -0.00325505 -6.42228e-18)
(0.00171102 -0.00311634 -3.34782e-17)
(0.00189431 -0.00370703 -2.71611e-17)
(0.000148408 -1.22421e-05 4.22193e-19)
(0.000150193 -9.02604e-06 -5.125e-20)
(0.00367649 -0.00156098 3.32585e-18)
(0.00378205 -0.00147288 -3.65968e-19)
(0.012444 -0.0030893 8.2534e-18)
(0.0118871 -0.00367788 7.73056e-19)
(0.012788 -0.0037556 -1.32648e-17)
(-1.52048e-06 -3.03274e-05 2.63142e-19)
(-8.73687e-07 -5.76666e-05 1.40026e-18)
(-0.0453706 -0.00272999 -4.69422e-18)
(-0.0402656 0.000252703 1.86534e-17)
(-0.0392731 -0.00869753 -1.59034e-17)
(0.0028956 -0.000342105 4.07851e-20)
(0.00297718 -0.000379562 -1.22317e-19)
(0.000229406 -2.19656e-07 2.13848e-19)
(0.000228381 -1.3434e-05 -4.22575e-19)
(0.000226665 5.85197e-06 1.21145e-19)
(0.00439235 0.00221678 -6.14513e-18)
(0.00425428 0.00221952 -2.04149e-18)
(0.00117704 -0.000871107 2.12e-18)
(0.00117936 -0.000823872 -1.93587e-18)
(0.00114368 -0.000875307 -2.98873e-18)
(0.0038306 0.00113784 4.2877e-18)
(0.00382163 0.00121288 -6.30399e-18)
(0.00393186 0.00118193 1.19885e-17)
(0.00536584 -0.00558993 7.10845e-18)
(0.00509259 -0.00549707 -5.64003e-18)
(0.00534038 -0.00533076 1.00266e-17)
(0.00711207 0.00486458 -2.17157e-17)
(0.00189342 0.00443746 -4.62578e-18)
(0.00243969 0.00474785 1.594e-17)
(0.00532324 -0.00586788 9.41608e-18)
(0.00557614 -0.00569912 4.47802e-18)
(0.00297294 -0.00984793 -3.73535e-17)
(0.00320722 -0.00993948 8.58132e-18)
(0.00318331 -0.00977576 1.02222e-17)
(8.73628e-05 0.000249469 6.13494e-19)
(8.32546e-05 0.000252595 3.17977e-19)
(9.72332e-05 0.000260876 -1.5609e-19)
(0.0282993 0.0114896 1.00867e-17)
(0.0319899 0.0119378 -6.14507e-20)
(0.000234617 -6.17732e-06 -6.19824e-20)
(0.00135013 0.00105104 3.66967e-19)
(0.00138076 0.00107631 1.28336e-18)
(0.0346712 -0.0114001 -4.00426e-18)
(0.0347082 -0.0132801 4.86375e-18)
(0.033147 -0.011979 -6.51331e-18)
(0.0161083 -0.00583178 8.35312e-18)
(0.0192337 -0.00765713 -1.64759e-17)
(0.00731536 0.0103979 1.33088e-17)
(0.00743659 0.010951 1.13889e-17)
(0.00795615 0.0105886 -6.56388e-18)
(0.0130963 -0.00244207 -1.08496e-17)
(0.0121272 -0.00234403 2.51834e-17)
(0.00171648 0.00183294 5.64248e-18)
(0.00169048 0.00163066 -9.80807e-18)
(0.00185037 0.00175413 -3.50757e-18)
(0.00524337 -0.00213497 -1.64808e-19)
(0.0054133 -0.00210511 4.63961e-19)
(0.00536378 -0.00230481 -8.47152e-19)
(-0.000109938 0.00028641 1.4554e-18)
(-0.000122624 0.000286234 2.40611e-18)
(-0.000120379 0.000301932 8.96881e-19)
(0.00132474 -0.00280779 2.79201e-17)
(0.000889464 -0.00266338 2.33127e-17)
(0.000960896 -0.00319387 2.73126e-17)
(0.000170179 -0.000222874 8.88796e-19)
(0.000158658 -0.000230678 -7.1234e-19)
(0.00083921 -0.0066859 9.24726e-18)
(-1.1456e-05 -0.00697369 2.76507e-17)
(-0.00638134 0.000418221 2.37159e-18)
(-0.00678947 0.00100001 2.62545e-17)
(-0.00812323 0.00071109 1.35297e-18)
(0.0322702 -0.0203634 1.15385e-17)
(0.0331847 -0.0233508 1.39341e-17)
(0.000154024 -7.8031e-06 -5.74776e-20)
(0.000150317 -1.18705e-05 -4.01029e-20)
(0.000519402 -0.000649913 -1.60635e-18)
(0.000520584 -0.000674558 1.15589e-18)
(-9.90047e-05 0.000292474 1.08919e-19)
(-9.98079e-05 0.000277845 -3.43934e-18)
(5.82761e-05 9.4174e-05 -6.0464e-19)
(6.8053e-05 9.98584e-05 8.38392e-19)
(6.70081e-05 8.7965e-05 -8.62115e-19)
(0.0551993 0.00766108 -1.72816e-17)
(0.0512475 0.00731622 2.4549e-17)
(0.00331368 0.00160548 9.92788e-19)
(0.00332639 0.00154872 7.82576e-19)
(0.00339214 0.00161207 -1.03892e-17)
(0.000411653 -0.00023606 4.54054e-20)
(0.000421168 -0.000243275 1.27626e-20)
(0.000421376 -0.000226089 1.41404e-19)
(0.0155782 0.00638235 1.97866e-17)
(0.0158586 0.00596812 5.41817e-18)
(0.0157584 0.00718017 -2.25806e-17)
(-0.0464244 -0.0415989 7.7599e-18)
(-0.0434512 -0.0403077 2.48264e-18)
(0.00108707 0.00138964 4.7979e-18)
(0.00111796 0.00142329 3.95487e-18)
(0.00105208 0.00141015 3.19317e-18)
(-0.0243623 -0.0373197 -2.05178e-17)
(-0.0239986 -0.0369013 -1.34796e-17)
(-0.00761412 0.00374551 4.45858e-17)
(-0.00730976 0.0024794 -1.399e-18)
(-0.00873116 0.00301608 9.28114e-17)
(0.0338172 -0.0195636 -1.34472e-17)
(0.0320082 -0.0185163 6.30432e-18)
(4.60784e-05 -0.000719853 -2.90106e-18)
(4.4085e-05 -0.000734962 -2.21493e-18)
(0.00317773 0.010026 3.63694e-18)
(0.00370726 0.0106285 1.54018e-17)
(0.00866371 0.0105875 4.28765e-17)
(0.00173894 -0.00291286 8.42323e-18)
(0.00162951 -0.00296523 1.16422e-17)
(0.00165725 -0.00284797 4.24261e-18)
(7.67961e-05 -0.000808003 4.27103e-19)
(8.15685e-05 -0.000804957 -3.12258e-18)
(8.1943e-05 -0.000816383 2.42945e-18)
(0.0412194 0.00413247 -1.28467e-17)
(0.0352242 0.00343799 3.49361e-18)
(0.00259474 0.00188234 -1.98424e-17)
(0.00256424 0.00194848 -7.63269e-18)
(0.00180992 -0.00300838 3.24597e-18)
(0.00184815 -0.00288731 2.89103e-18)
(-0.000836406 0.00136562 -1.36126e-18)
(-0.000908301 0.00139818 -9.15274e-19)
(-0.00083881 0.00143415 -6.83239e-19)
(0.0026085 0.00164977 -5.39192e-18)
(0.00262654 0.00163818 1.33089e-17)
(0.00259944 0.00161039 4.71053e-18)
(0.035505 -0.039388 1.97796e-18)
(0.0299102 -0.0431875 9.83771e-18)
(0.0329978 -0.0390965 1.23238e-17)
(0.00312661 -0.0101794 -2.56219e-17)
(0.00278787 -0.0100248 -2.75944e-17)
(0.00384298 0.00105962 -3.38197e-18)
(0.00375458 0.00110147 3.17438e-19)
(0.0065331 -0.00495891 1.37312e-18)
(0.00683426 -0.00498665 8.80032e-19)
(0.00667284 -0.00469393 3.50386e-18)
(-0.00040054 0.000471685 2.41915e-19)
(-0.000418019 0.00048857 -7.54871e-19)
(0.00961074 -0.000911713 1.37722e-17)
(0.0102516 -0.00107416 1.71886e-17)
(0.00999988 -0.000364873 -3.40253e-18)
(0.000255522 -0.000180455 6.09733e-19)
(0.000269794 -0.000148705 -6.54824e-19)
(0.000262788 -0.000161011 -9.76433e-19)
(0.00260808 -0.00350539 -1.79417e-19)
(0.00249748 -0.00298368 3.46066e-17)
(0.00284537 -0.000410808 -1.20357e-19)
(0.0028137 -0.000313142 7.71327e-19)
(0.0348131 -0.0093556 -2.24833e-17)
(0.0359448 -0.0107432 2.09389e-17)
(-0.001245 0.00243977 -9.75885e-18)
(-0.00335295 0.00155452 -5.29314e-17)
(-0.000322196 0.00242839 -4.29574e-17)
(9.39934e-05 0.000246339 -5.57762e-19)
(7.8362e-05 0.000237782 2.62546e-18)
(0.00120098 0.00106958 -2.77112e-18)
(0.00122452 0.00109397 -3.0856e-18)
(0.00124285 0.00107073 -2.06247e-18)
(0.0107204 -0.00698015 -1.50214e-19)
(0.0112422 -0.00671219 2.65781e-18)
(0.0113096 -0.00751591 -4.31105e-18)
(0.00116005 0.00106757 -1.8412e-18)
(0.00117818 0.00104687 -1.80139e-18)
(0.000465296 0.00291624 2.20419e-18)
(0.000593257 0.00286527 4.45721e-18)
(0.00170714 -0.00255741 -8.45291e-18)
(0.0532832 0.0178878 1.6326e-17)
(0.0559815 0.0172268 -1.83814e-18)
(0.0546583 0.0180381 1.49884e-17)
(0.0706406 0.00141996 -3.32541e-17)
(0.068221 0.00069795 3.0923e-18)
(0.000950411 -0.000619511 -1.31553e-20)
(0.000935728 -0.000599565 -2.44878e-19)
(0.000922486 -0.00064627 -5.60634e-20)
(0.00361459 0.0070944 -1.8695e-17)
(0.00331928 0.0067021 6.7261e-18)
(0.00385467 0.00675291 3.31265e-17)
(-0.0970828 -0.0363546 2.95629e-17)
(-0.0365849 -0.0049997 -1.48232e-17)
(-0.107822 -0.0254097 1.65621e-17)
(0.0185141 -0.00456735 3.90171e-18)
(0.0171708 -0.00616122 3.20695e-18)
(0.00162371 -7.45873e-05 -3.29697e-20)
(0.00159896 -0.000126542 1.08491e-19)
(0.00158176 -7.55069e-05 7.5168e-20)
(0.000111137 0.00054334 -1.41774e-18)
(0.000120954 0.000569219 -1.72405e-18)
(8.83242e-05 0.000544238 -3.07499e-18)
(0.00273709 0.00129958 -5.85799e-18)
(0.00274458 0.00133126 3.07829e-18)
(0.00270017 0.00131565 -5.50964e-18)
(0.00328329 0.00167819 3.48668e-18)
(0.00323646 0.0016 4.44503e-18)
(0.000953132 -0.000570139 4.47717e-19)
(0.000949434 -0.000521578 7.87289e-19)
(-0.109318 -0.0516041 -7.63324e-18)
(-0.0945268 -0.056264 -1.9538e-19)
(0.0153152 0.00716835 4.05415e-17)
(0.0150869 0.00600975 1.07516e-17)
(0.0413024 0.0566163 -1.67888e-19)
(0.0418785 0.0548169 -1.57173e-18)
(0.0392884 0.0549247 1.69893e-18)
(-0.031939 -0.00165985 1.16797e-17)
(-0.00362035 0.00027971 4.15758e-17)
(-8.35393e-06 0.000310821 1.49844e-19)
(-2.22145e-05 0.000311962 9.44169e-19)
(-2.35914e-05 0.000292914 -9.65696e-19)
(-7.28549e-05 3.85544e-05 1.84581e-18)
(-7.46221e-05 3.5005e-05 1.51239e-18)
(0.00573575 -0.00219257 -5.96223e-19)
(0.00570133 -0.0023916 1.6994e-19)
(0.00592933 -0.00232862 -2.49884e-18)
(0.0133888 0.00533935 -4.09453e-17)
(0.0133727 0.00429372 3.10584e-18)
(0.00107799 -0.00238459 -5.67523e-20)
(0.00102827 -0.00239279 6.02722e-18)
(0.00106091 -0.00234929 -5.18614e-19)
(0.00622198 -0.00494525 -3.00751e-18)
(-0.00265946 -0.00172886 1.36322e-17)
(-0.00247173 -0.00227796 -6.32876e-18)
(-0.00210914 -0.00177814 4.36377e-18)
(0.00278214 0.00119168 1.92594e-18)
(0.0028178 0.00123495 2.27058e-19)
(0.00286174 0.00118893 4.52517e-18)
(0.00026622 0.009339 -1.4866e-17)
(-3.11955e-05 0.000750634 -1.77882e-18)
(-6.65335e-05 0.000736232 -6.1671e-19)
(0.0451694 0.0510757 1.30698e-18)
(0.0444358 0.0496049 -1.26227e-17)
(0.0476775 0.0514323 -5.87442e-18)
(0.0380523 0.00587446 2.34419e-17)
(4.86008e-05 8.88705e-05 8.37113e-19)
(4.63039e-05 7.65972e-05 -6.81729e-19)
(-0.0432917 -0.00242573 6.42032e-18)
(-0.0447409 -0.00346799 -1.8207e-18)
(-0.0437417 -0.00215181 -9.1882e-18)
(0.00402733 -0.00204621 7.00925e-19)
(0.00417839 -0.00202645 -1.33342e-18)
(0.00413035 -0.0021936 -9.30501e-19)