/*--------------------------------*- C++ -*----------------------------------*\
| =========                 |                                                 |
| \\      /  F ield         | OpenFOAM: The Open Source CFD Toolbox           |
|  \\    /   O peration     | Version:  v2012                                 |
|   \\  /    A nd           | Website:  www.openfoam.com                      |
|    \\/     M anipulation  |                                                 |
\*---------------------------------------------------------------------------*/
FoamFile
{
    version     2.0;
    format      ascii;
    class       volScalarField;
    location    "100";
    object      omega_0;
}
// * * * * * * * * * * * * * * * * * * * * * * * * * * * * * * * * * * * * * //

dimensions      [0 0 -1 0 0 0 0];


internalField   nonuniform List<scalar> 
18355
(
2.25323
0.0204272
0.199154
0.0210094
0.0533688
0.100921
0.0216316
0.0628723
0.0219956
0.36286
0.0258864
0.123078
0.130171
0.648749
0.0210816
0.0201933
0.0210058
0.0243349
0.154224
0.0225828
1.91079
0.0219041
0.0204579
0.0856305
0.0204688
0.0221642
0.0216645
0.0210147
0.022182
0.0267003
0.177022
0.0407004
0.0203364
0.0200649
0.0212924
0.0220912
0.0263869
0.0221665
0.0271813
0.0219175
0.0221631
0.026476
0.0200826
0.0204139
0.0204242
0.258279
0.0209908
0.0209802
0.185027
0.0212272
0.0208695
1.49729
0.0212732
0.133456
0.0212848
0.0225809
0.0213051
0.227196
0.0222379
1.10028
0.0200746
0.0869871
0.128879
0.021477
0.0495444
0.0206621
0.0234384
0.0264033
0.0200223
0.552258
0.020938
0.0212848
0.0347717
0.0253683
0.400623
0.0200411
0.212758
0.0200506
0.02091
0.348159
0.023407
0.181367
0.0200325
0.024272
0.0418289
0.0217424
0.0222817
0.0345203
0.0208788
0.0344863
0.627395
0.487197
0.140298
0.0212215
0.427182
0.0217556
0.0208636
0.0213446
0.0711221
0.0218442
0.0396836
0.0208784
0.0211791
0.0195633
0.0236044
0.0202043
0.0489221
0.409044
0.0299585
0.0201474
0.0208792
0.0215318
0.030671
0.0240899
0.280937
0.0266793
0.0208562
0.376048
0.0228021
0.0232777
0.432025
0.201752
0.680384
0.0394955
0.344382
0.274377
0.0216642
0.0210394
2.27426
0.0216635
0.0208681
1.52728
0.0212749
0.0784848
0.0870714
0.0208676
0.160622
0.578143
0.0211932
1.16726
0.0245279
0.0415036
0.0209572
1.34219
0.086641
0.0216529
0.864155
0.0196062
0.030541
0.201483
0.0210078
0.0232167
0.0213768
0.0261956
0.0200928
0.0205804
0.0210534
0.0217353
0.0209636
0.0206784
0.0247351
0.0212817
0.0201556
0.029793
0.025849
0.162963
1.06338
2.12595
1.55077
0.0245061
0.0214313
0.0727681
0.0216243
0.21269
0.0213766
0.0221245
0.0214422
0.0195249
0.0225547
0.0270488
0.0217833
0.152391
0.021793
0.0210377
0.0355629
0.0211679
0.0217724
0.0334639
0.0213462
0.0217502
0.262274
0.071556
0.0204563
0.0200544
0.0214084
0.282778
0.0205638
2.08392
0.0204365
0.658488
0.0211356
0.0232641
0.0275005
0.021688
2.1895
0.0215791
1.22801
0.0210329
0.0202883
0.021298
0.0215731
0.0523078
0.022507
0.0219799
0.0196167
0.338592
0.0270885
0.0247093
0.0215978
0.0209941
0.0290758
0.0199734
0.032965
0.0261411
0.0456418
0.0235606
0.019995
0.574285
1.11607
0.0314302
0.0214083
0.0236171
0.213219
0.0199856
0.0298874
0.0442154
0.0219597
0.26565
0.0244088
0.0219317
0.0204526
0.0224673
0.0215914
0.0302545
0.021576
0.02129
0.0209822
0.0507702
0.0595535
0.0210219
0.0217811
0.0568421
0.155155
0.027296
0.0195303
0.0403885
0.0243821
0.0217483
0.0234543
0.0208107
0.191279
0.29477
0.0647058
0.0287691
0.0280615
0.0338441
0.033834
0.0783329
0.0208029
0.0212914
0.0219073
0.020145
0.0232538
0.0248522
0.020976
0.0215743
0.0308513
0.0208556
0.0704388
0.762471
0.029012
0.0216018
0.0273723
0.0201348
0.0352991
0.0215273
0.0278143
0.0218776
0.027319
0.290879
0.0203144
0.0430352
0.0226722
0.0235283
0.0359098
0.0213104
0.0200394
0.0646978
0.0215726
0.0460284
0.026498
0.470777
0.0363738
0.0660714
0.0237215
0.0322574
0.0211661
0.0236729
0.0282982
0.042848
0.0942548
0.261696
0.0210722
0.0238001
0.109941
0.027872
0.0210677
0.0209723
0.0209938
0.0479529
0.260246
0.371365
0.164146
0.030443
0.0243129
0.0517194
0.0196051
0.0215569
0.0242623
0.0213662
0.0315249
0.0211903
0.299141
0.0202238
0.321555
0.021352
0.0218668
0.0240586
0.142555
1.94001
0.0303429
0.137379
0.0219406
0.0208886
0.0213574
0.0243195
0.364228
0.0209127
0.0214784
0.0898458
0.0218662
0.0209135
0.158041
0.0237018
0.0209882
0.0212987
0.0284599
0.022275
0.0283778
0.0200527
0.0214695
0.0218081
0.616012
0.0737372
0.0200303
0.0209424
0.0310534
0.0210015
0.0215305
0.050668
0.0844091
0.0330167
0.0213416
0.0220041
0.131283
0.0219832
0.0449052
0.0237298
0.0202584
0.0289796
0.0354017
0.0217278
0.0213482
0.0243762
0.0214666
0.0234331
0.0214032
0.0548952
0.0216108
0.0230374
0.0209257
0.020995
0.0230742
0.0221518
0.0654932
0.488124
0.0780208
0.022935
0.154217
0.0266769
0.0213708
0.0211289
0.040294
0.0213457
0.0339285
0.021499
0.0273336
0.0538041
0.0467562
1.98556
0.0682744
0.0195736
2.47195
0.0218451
0.020966
1.92345
0.021316
0.0273401
0.0202747
0.054448
0.0213111
0.0706398
0.466159
0.0599958
0.0212839
0.0204559
0.0626996
0.0228052
0.0210328
0.307853
0.240822
0.0209603
0.0410894
0.0658796
0.0204511
0.0221851
0.0292045
0.203127
0.0361497
0.0218675
0.0212054
0.0357706
0.0212895
0.0201889
0.0211772
0.0481766
0.500816
0.020243
0.0221424
0.0214973
0.149939
0.0348556
0.0200369
0.0273511
0.0334649
0.0214791
0.287683
0.086748
0.0218271
0.0214492
0.0348717
0.154925
0.258016
0.0202203
1.97655
0.0212381
0.0202349
0.0384448
0.0229091
0.0569756
0.0348355
0.0231504
0.0259636
0.0219135
0.154408
0.0229597
0.0276394
0.0219094
0.0201975
0.0217243
0.0202117
0.085718
0.433983
0.0537727
0.0247873
0.0216268
0.0219086
0.0215275
0.0237611
0.0215527
0.0200284
0.0213853
0.0356046
0.0204595
0.0215216
2.09653
2.07651
0.114555
0.0216411
0.0220068
0.0293049
0.0218765
0.164904
0.220635
0.0235707
0.0243964
0.0258354
0.0222063
0.0233762
4.15681
0.0294953
0.0219085
0.385217
0.0215894
2.01897
2.67384
0.0248076
0.0221234
4.2149
0.0209823
0.0670199
0.0411595
0.36765
0.0229637
0.021702
0.0214648
0.441798
0.215393
0.363956
0.450027
0.023455
0.0214543
0.0242726
0.0212978
0.02327
1.80082
0.495915
0.482555
0.11225
0.0268335
0.0380427
0.0319612
0.0209991
0.0211522
0.0279584
0.0239293
0.0215429
0.0212954
0.411014
0.0208483
0.115411
0.0245458
0.0809746
0.139274
0.0211588
0.0240883
2.26099
0.02138
0.548544
0.0212761
0.106206
0.0295009
0.021954
0.031763
0.0782247
0.0694069
0.0218823
0.0200093
0.0340587
0.0250152
0.0810607
0.0213732
0.0875475
0.0208399
0.213293
0.0214295
0.0211696
0.192619
0.0254636
0.0402935
0.0212491
0.0247309
0.0231762
0.310155
0.37642
0.0239321
0.0332722
0.021311
0.0271774
0.021764
0.0237784
3.94483
0.0204172
0.0621941
0.0215713
0.0213848
0.0238694
0.146966
0.0225929
0.0711972
0.0220741
0.0349433
0.458715
0.0196122
0.0209897
2.18116
0.0335625
2.00357
0.0356334
0.021752
0.021301
0.0209818
0.0253773
0.0220554
0.0201373
0.131198
1.6102
0.0211535
0.480299
0.217747
0.0250252
0.209236
0.0202042
2.03058
0.352199
0.019676
0.453843
0.0380952
0.322462
0.380731
0.0211
0.0209794
0.0216025
0.0291062
0.0470827
0.0213039
0.0219452
0.134305
0.021794
0.0395894
0.0210782
0.036211
0.526294
0.431757
0.0778423
0.410827
0.0349812
0.206018
0.0243963
0.0209229
0.0260028
0.381255
0.0261188
0.0446773
0.0212941
0.455459
0.0215146
0.0218004
1.78034
0.0217528
0.0263425
0.0337658
0.0624706
0.0214748
0.02129
0.0237884
0.0251072
0.0199655
0.0216476
0.0332813
0.143715
0.0229974
0.0212899
0.037327
0.474329
0.0212364
0.397369
0.285105
0.0214705
1.69846
0.0200015
0.201093
0.0213478
0.0203247
0.192588
0.0231565
0.185029
0.0228886
0.0212919
1.71991
0.0213446
0.0201291
0.0215274
0.0209322
0.0267821
0.0329585
1.91
0.0220515
0.58929
0.0229826
0.404767
0.750153
0.0222132
0.0213506
0.0247253
0.0201388
0.111155
0.021197
0.0201076
0.0201379
0.0212926
0.0213696
0.228122
0.0252253
0.0452833
0.0226198
0.0237782
0.0243185
0.0244708
0.31775
0.0204621
0.0854717
0.0394781
0.020008
0.574463
0.500021
0.0208536
0.38149
0.0213345
0.150904
0.0348282
0.0196598
0.0344306
0.0255606
0.390333
0.0209342
0.0240377
0.458674
0.0735416
0.0464625
0.0213657
0.332186
0.0768637
2.06526
0.0213724
0.0227314
0.0210365
0.0214971
0.0210639
0.021215
0.0204114
0.399392
0.0259162
0.0208892
0.020057
0.0206738
0.0218275
0.0680715
0.0757557
0.0203078
0.0251213
0.021562
0.0215922
0.0215162
0.0209513
0.0345936
0.0200538
0.0208902
0.0217523
0.0216147
0.0230098
0.0215182
0.260739
0.269268
0.0240075
0.0208721
0.149302
0.0200983
0.0200613
0.0215014
0.0455479
0.0247214
0.0213614
0.0201613
0.0204462
0.0258457
0.0200142
0.0268391
0.0211872
0.0217598
0.0210628
0.0226632
0.641875
0.0209149
0.021855
0.0211835
0.170698
0.371597
0.0264473
0.0220546
0.0267939
0.0248023
0.0345327
3.85554
0.0217465
0.360532
0.0218724
0.100697
0.0220419
0.0202693
0.0200635
0.474188
0.0200252
0.0267113
0.0307298
0.169863
0.0371443
0.0223014
0.0210164
0.0210636
0.0212228
0.0281211
0.104055
0.189365
0.0428774
0.0215337
0.0200111
0.0225268
0.0210646
0.0208168
0.021786
0.0452004
0.0251822
0.0564798
0.0215284
0.0214394
0.0335009
0.0213033
0.154447
0.0433624
0.0362179
0.138105
1.06141
0.0293077
0.0209883
0.0200195
0.0216779
0.0212821
0.527928
0.0465787
0.107715
0.0203007
0.0215942
0.0232043
0.0208361
3.77056
0.106737
0.0200586
0.0200576
0.0209866
0.0210712
0.0209232
0.0212956
0.228498
0.0199719
0.0219425
0.0203098
0.0205878
0.0210727
0.0214777
0.0264177
0.0205825
0.0252697
0.0201546
0.0830938
0.208314
0.0240802
0.055996
0.0226672
0.0218863
0.0677999
0.337499
0.0214294
0.020738
0.0204722
0.026973
0.0219445
0.029294
0.0346214
0.021519
0.02201
0.0214866
0.101769
0.18955
0.0220714
0.0206036
0.024194
0.0364378
0.0211449
0.0701022
0.020838
0.0199633
0.0241054
0.564963
0.454461
0.209739
0.232289
0.0200502
0.0346999
0.0593034
0.0247623
0.0212145
0.0601044
0.0235548
0.187861
0.770414
0.0208919
0.0200601
0.0214834
0.0219302
0.0200635
0.0364986
0.248809
0.0201043
0.0215456
0.0219701
0.0364217
0.0212552
0.020879
0.0288497
0.0219273
0.0209073
0.10167
0.0943541
0.0854973
0.0212688
0.0202328
0.0201193
0.0212767
0.024478
0.02671
0.0208775
0.0206232
0.0229012
0.346177
0.0204591
0.0214178
0.067125
0.0209227
0.0207604
0.0213476
1.85391
0.0202123
0.0214484
0.020462
0.0224762
0.0202248
0.0251298
0.145628
0.0214183
0.163595
0.0278096
0.207142
0.0555023
0.02099
0.0253822
0.0208462
0.0207443
0.0210018
0.466429
0.37573
0.0311666
0.0265264
0.48564
0.0714035
0.022162
0.100031
0.0505495
0.0232769
0.0200607
0.641643
0.0222178
0.0207389
0.0204155
0.247626
1.67825
1.77826
0.0207117
0.0930625
0.355417
0.0249344
0.0314253
0.0241786
0.0231877
0.033644
0.060166
0.0230933
0.0222576
0.0251807
2.84937
0.226296
0.0212438
0.0215114
0.0210884
0.328758
0.0238161
0.0219841
0.492698
0.0251327
0.0352227
0.0241707
0.223214
0.020676
0.0969166
0.0220561
0.0200633
0.0209896
0.0200378
0.020074
0.0209005
0.0217261
0.220073
0.0205242
0.0959715
0.0260732
0.0216782
0.0207613
0.0913602
0.0211984
0.021536
0.023243
0.235423
0.047447
0.0231441
0.0215353
0.321454
0.0206714
0.0384629
0.0215184
1.70322
0.0321273
0.311527
0.0253935
0.0210311
0.0364716
0.184668
0.114889
0.0205585
0.0213405
0.0367197
3.82787
0.0195711
0.0468455
0.0206021
0.0265254
0.0208684
0.0200452
0.0220219
0.0221028
0.0200211
0.0353874
0.0330253
0.0241364
0.134981
0.824709
0.0221722
0.295439
0.0201034
0.110095
0.32265
0.16393
0.0200216
0.0220454
0.0214977
0.292911
0.021246
0.0208366
0.0914591
0.0215216
0.0215233
0.0221555
0.0220132
0.0212517
2.65181
0.404915
0.0633465
0.0207547
0.0214587
0.218844
0.0201024
0.11652
0.0216239
0.0214832
0.0219882
0.0234515
0.244887
0.0205793
0.0214758
2.09848
0.0216007
0.0217864
0.0367217
0.334836
0.0618372
0.0214292
0.02107
3.27796
0.418982
2.23779
0.0208982
0.0332595
0.192899
0.0203427
0.0336208
0.0230966
0.451333
0.0235999
0.02154
0.0221393
0.0200194
0.35276
0.0214662
0.0204921
0.366901
0.0285958
0.0952803
0.019994
0.0226032
0.0200414
0.0196437
0.0201963
0.0221803
0.021623
0.0218789
0.020029
0.0217655
0.0455925
0.027292
0.0250117
0.0206192
0.0239901
0.0210711
0.272365
0.0216646
0.0220438
0.0215873
0.0200654
0.0218285
0.0211103
0.0211873
0.0212406
0.0208335
0.0202041
0.384475
0.347173
0.0212603
0.348199
0.0341506
0.0217322
0.0216992
0.0221453
0.424841
0.0218152
0.0200954
0.0200965
0.020031
2.17791
0.0212895
0.0202761
0.176816
0.0200176
0.0197396
0.025331
0.0266282
0.0668327
0.141139
2.0189
0.0201266
0.986953
0.0248307
0.0212368
0.0204196
0.0239949
0.0212835
0.0277821
0.0583418
0.0233744
0.0219136
1.0524
0.0695181
1.96678
0.0886489
0.38596
0.069862
0.0205125
0.220069
1.88078
0.0201244
0.968016
0.0207083
0.0223044
0.140442
0.0207377
0.165395
0.0249198
0.0227798
0.0219788
0.0393669
0.0213759
0.0965986
0.0212419
0.0201787
0.425906
0.0197672
0.0216614
0.0218484
0.0521012
0.0212059
0.0214438
0.0229096
0.30822
0.02122
0.0212813
0.020223
0.0235258
0.0211859
0.0223016
0.0531819
0.0209784
0.0258113
0.0217119
0.0232977
0.0223589
0.0209419
0.0219162
0.100285
0.0215951
0.0216973
0.0241275
0.230265
0.0221809
0.0211295
0.0214257
0.0254456
0.0662944
0.0225495
0.0210226
0.0209724
0.0205629
0.0196292
0.0200503
0.025804
0.0290011
0.0544924
0.0215475
0.560579
0.0206493
0.0213513
3.80931
0.0448944
0.0199756
0.0764481
0.0215612
0.0210206
0.460118
0.0218723
0.0379171
0.0197432
0.150826
0.0205624
0.0200111
0.0202496
0.0418701
0.0729594
0.0215659
1.22769
0.0202289
0.0209205
0.0207387
0.143709
0.0213468
0.020655
0.0219523
0.0226624
0.0212728
0.0214587
0.020796
0.0217777
0.0215428
0.020846
0.0238856
0.0199992
0.837068
0.0661687
0.0202046
0.0768668
0.0255238
0.02094
0.020662
0.0219051
0.020761
0.0284595
0.0246165
0.0415011
0.0409832
0.0217111
0.0749055
0.151506
0.0212283
0.0217613
0.0872683
0.0231976
0.227149
0.0202127
0.0211421
0.0225217
0.0216821
0.0210007
0.0255685
0.0209505
0.0215127
0.0212507
0.0231038
0.0205787
0.121566
0.021351
0.0239932
0.0286673
0.0210218
0.451815
0.464539
0.023133
0.0262406
0.0269072
0.0198848
0.0457482
0.0214417
0.0321443
0.532309
1.51414
0.0350987
0.0217637
0.0260076
0.0210105
0.0282592
0.0205356
0.320354
0.0284529
0.0215863
0.0208053
0.0588021
0.0338114
0.0212296
0.0212283
0.315814
0.0216171
0.0206458
0.654447
0.0538608
0.0201148
0.897982
0.02031
0.0400241
0.0567526
0.0212674
0.0214355
0.0230379
0.565107
0.0207931
0.0252729
0.0214405
0.0212751
0.0208295
0.590861
0.0218212
0.021408
0.0211104
0.217616
0.0254992
0.020806
0.0197828
0.108622
0.0211554
0.0204552
0.136586
0.93965
0.0219151
0.2563
0.0231085
0.0473815
0.0222879
0.0586366
0.458425
0.0217921
0.0211308
0.0203097
0.0238689
0.0212097
0.529519
0.0932234
0.0205302
0.0221619
0.0203354
0.0200329
2.39631
0.0212175
0.0226404
0.0226492
0.0515355
0.0214556
0.0216921
0.0246266
0.453231
0.0214744
0.0214188
0.0204459
0.0205674
0.0236752
0.0449951
0.0215798
0.0211269
0.0212935
0.0211065
0.0203185
2.50449
0.0217581
0.0210565
0.0210984
0.0604779
0.0203733
0.0204578
0.0334107
0.0209209
0.0422071
0.0212542
0.0214344
0.266356
4.45215
1.81162
0.0318374
0.0233579
0.0218202
0.451918
0.0206385
0.02469
0.0199955
0.559433
0.0195478
0.0237912
0.0214647
0.72337
0.0356911
0.0300783
0.375822
0.0223547
0.0476337
0.0217202
0.0220208
2.52094
0.0337055
0.0211792
0.0203019
0.02337
0.0262937
0.0214257
0.0212946
0.0206328
0.0199551
0.172796
0.331538
0.0217189
0.0221968
0.355333
0.861805
0.0230113
0.0222648
0.0229366
0.0241901
0.0212172
0.0222487
0.084537
0.0209125
0.0203252
0.0215136
0.072451
0.214582
0.0248425
0.0215532
0.0216052
0.0255778
0.0213437
0.0253249
0.0371948
0.0969282
0.023129
0.362444
0.0201148
0.021233
0.0218421
0.0199971
0.0215564
0.0208594
0.0376075
0.0210091
0.218835
0.0213885
0.0207216
0.0204877
0.0246038
0.0224443
0.0441053
0.052289
0.0201555
0.335815
0.0228605
0.0205029
0.0198091
0.36382
0.20534
0.0198286
0.0208116
0.0207358
0.0222312
0.17038
0.110613
0.0220088
0.0219417
0.143289
0.393185
0.0219709
0.0212166
0.241489
0.0235758
0.0377117
0.0235161
0.0211529
0.0620462
0.0271313
4.55208
0.0288753
0.532517
0.0204009
0.0209232
0.0217489
0.0215898
0.0234728
0.0216874
0.0215536
0.0207926
0.0217803
0.021618
0.0211852
0.0214866
0.0227613
0.0219364
0.0213394
0.0208236
0.0348262
0.0234255
0.0209212
0.0215178
0.167501
0.0213402
0.0218004
0.0219653
0.707634
0.0204593
0.0380139
0.0225607
0.0201812
0.021068
0.331887
0.194395
0.0220131
0.0215657
0.0234722
0.0354291
0.0208736
0.0263422
0.03759
0.0210572
0.104248
0.0208223
0.0213311
0.021
0.0217472
0.0284027
0.0652184
3.12896
0.0267489
0.0201913
0.0214998
0.0211271
0.0484521
0.0219359
0.350142
0.0208213
0.0213716
0.0213556
0.0753805
0.0209716
0.0215751
0.0212605
0.139502
0.0204678
2.07762
0.0204266
0.0261953
0.021303
0.029131
0.0209929
0.0233975
0.539431
0.0469497
0.0201992
0.0358199
0.0215145
0.0214784
2.32119
0.535639
0.0203202
0.0212486
0.0232905
0.0202463
0.0211104
0.0218679
0.0217008
0.0234874
0.0522907
0.0221334
0.0258364
0.0420655
0.0216909
0.0209993
0.0211795
0.0225028
0.0276404
0.0214283
3.9679
0.0206726
0.435509
0.0371786
0.020141
0.0207268
0.0207059
0.0683145
0.0215048
0.0237199
0.0215096
0.0207712
0.531966
0.0226902
0.0272328
0.0216589
0.0214678
0.0226764
0.021239
0.0226945
0.0213662
0.0222345
0.0219649
0.0218961
0.391087
0.0250212
0.453435
0.0209988
0.0251792
0.0223884
0.317713
0.0619434
0.911804
0.0226019
0.0199658
0.0411545
0.0209203
0.441894
0.0221329
0.0445459
0.0224432
0.339048
2.13912
0.0233371
0.0273611
0.0207473
0.0205334
0.0218937
0.0199193
0.0217286
0.0228723
0.020785
0.0247648
0.0440593
0.313778
0.0208988
0.0644306
0.0201006
0.0211934
0.0211542
0.0965165
0.0216443
0.0529944
0.0216851
0.021082
0.43659
0.0208821
0.023529
0.0210531
0.0234461
0.853576
0.0256479
2.7363
0.0212379
0.0604178
0.0228553
0.0211218
0.0211545
0.0277899
0.023874
0.0212761
0.0226914
0.0213244
0.38565
0.0207335
0.475786
0.212692
0.0682728
0.0249206
0.105584
0.0266494
0.0199185
0.19058
0.0211915
0.09115
0.0218528
0.022583
0.308363
0.302792
0.0258693
0.123072
0.0213833
0.302426
0.0196154
1.77688
0.0201533
0.022212
0.0448334
0.0215252
0.0207189
0.0219726
0.0212658
0.0347533
0.296877
0.0311628
0.363587
0.0208023
0.617783
0.0214434
0.0216859
0.0210288
0.0212742
0.431443
0.0216133
0.0205667
0.0366166
0.0218117
0.337184
0.0654243
0.021268
0.0418373
0.033087
0.0208562
0.0214371
0.0238903
0.0203208
0.0563313
0.0271968
0.0227322
0.0228409
0.0204421
0.0214
0.0591754
0.0220198
0.0214478
0.0222524
0.0199137
0.0201294
1.91214
0.0265782
0.446498
0.0263543
0.0531911
0.0267549
0.0211168
0.02562
0.0204518
0.0209822
0.20605
0.0238597
0.0235039
0.0457801
0.0218581
0.271444
0.993254
0.0210768
0.0240607
0.0375678
0.694103
0.0203109
0.0203114
0.0216971
0.0270817
0.339845
0.0243826
0.0235548
0.0218486
0.0211727
0.019951
0.085299
0.0238009
0.0222256
0.442618
0.0216369
0.022939
0.024385
0.0214941
0.0212394
0.0210131
0.0543653
0.105573
0.0218948
0.0230678
0.297119
0.0209105
0.0219446
0.0233615
0.0215921
0.400888
0.427625
0.0489544
0.0750884
0.68098
0.0226454
0.0208461
0.0531172
0.0220064
0.0264238
0.0210349
0.0201855
0.330852
0.0671244
0.0210803
0.0207511
0.0266007
0.126717
0.0231582
0.0200283
2.19709
0.0228102
0.0359875
0.0201376
0.0269111
0.0195853
0.0226963
0.0256302
0.0211727
5.4522
0.0219664
0.0344947
0.0980117
0.310746
0.0841816
0.0211967
0.0623986
0.0242139
0.0239341
0.022246
0.0218807
0.0214485
0.0226129
0.198244
0.0227872
0.246937
0.0207821
0.207242
0.0202917
0.0218957
0.236773
0.0243126
0.20402
0.0225651
0.0220999
3.64283
2.30392
0.0208682
0.345976
0.032962
0.0207207
0.0198496
1.76866
0.322427
0.0204562
0.020276
0.021164
0.0202281
0.441764
0.299704
0.0195246
0.0197988
0.0208646
0.228837
0.0474792
0.287005
0.0201889
0.298801
0.0215925
0.0559725
2.71022
0.0240029
0.0205922
0.0205658
0.29649
0.0203403
0.021059
0.0202012
0.0247042
0.0228294
4.16765
0.0247975
0.0218099
0.0211971
0.026163
0.193029
0.040446
0.0211213
0.0208716
0.154898
0.0497661
0.021979
0.660287
0.028145
0.0229722
2.02465
0.0226901
0.0255446
0.0218227
0.0428493
0.0214253
0.021816
2.18595
0.0271394
0.0210498
0.0213497
0.0195913
0.0371278
0.11143
0.0209759
0.0202695
0.0221647
0.0681564
0.0221354
0.0202014
0.0212445
0.0207294
0.0236505
0.0418592
0.0214278
0.0209522
2.40471
0.0211086
0.185918
0.0289313
0.0299854
0.0234647
0.0222237
0.0214813
0.292112
0.0821536
0.0705675
4.48376
0.0283515
0.0208773
0.300497
0.0202119
0.0761513
0.372902
0.0235029
0.0211302
0.0234796
0.0751821
0.0212025
0.0210078
0.342752
0.0212644
0.0223238
0.0207737
0.0216819
0.0203277
0.0591063
0.128856
0.0201398
0.0210234
0.996744
0.0211939
0.0201323
0.0209977
0.0208263
1.01936
0.0239976
0.0230521
0.0222596
0.0219658
0.0203135
0.0361827
0.105911
0.0258949
0.249357
0.0224797
0.02355
4.32041
0.0208888
0.020365
0.0210681
0.0208284
0.0218212
0.0197579
0.0221104
0.371026
0.021198
0.0210941
0.0227435
0.0208111
0.376562
0.0216725
2.67577
0.181068
0.0264421
0.028971
0.308279
0.0236406
0.0211758
0.0235303
0.0209504
0.0225755
0.0217541
0.0218044
0.292796
0.0202881
0.0213256
0.040425
0.204187
0.0216979
0.0208442
0.189983
0.0223742
0.0298699
0.0213099
0.0208555
0.0211534
1.78935
0.0214527
0.2011
0.0512842
0.0216149
0.0208349
0.0210547
0.0238618
0.285582
0.0201485
0.0377561
0.0210991
2.69935
0.224563
0.0220914
0.175057
0.0215492
0.0230674
0.0234683
0.275043
0.0236475
0.025959
0.0264795
0.43259
0.0217042
0.0364619
0.0214528
0.041852
0.147476
0.166489
0.0209483
0.0282162
0.307053
0.457207
0.0230395
0.0235538
0.34153
0.336549
0.0208149
0.0556736
0.0211911
0.0241183
0.0214846
0.0223595
0.0222722
0.31625
0.0216652
0.0218125
0.0572579
0.438697
0.0576001
0.127926
0.448172
0.0207821
0.34506
0.0624173
0.0210465
0.0211225
0.377766
0.0234559
0.0214911
0.0212456
0.0361698
0.0206966
0.0212567
0.800668
0.0214636
0.0217449
0.0210408
0.0214024
0.0225075
0.0204974
2.42935
0.0236691
0.0231534
0.0204914
0.0287487
0.123934
0.0208971
0.0216894
0.311854
0.177105
0.0213522
0.0239675
0.0207081
0.0209345
0.0410207
0.166428
0.0209355
0.0210591
0.320818
0.509146
0.935214
0.031175
0.0222554
0.336764
0.0207435
0.0245405
0.0237446
0.0205507
2.38681
0.902573
0.0372907
0.0298502
0.713305
0.0198547
0.0197908
0.0228481
0.0316637
0.61113
0.020333
0.0324464
0.962919
0.359696
0.0216392
0.0224529
0.267065
0.020981
0.0236915
0.337967
0.0209624
0.0211972
0.0205061
0.274493
0.0208249
0.0238873
0.0219339
0.0444444
0.0275524
0.419083
0.0211855
0.021135
0.0288065
0.0217322
0.0239347
0.0220859
0.105808
0.124896
0.0209918
0.0213492
2.87351
0.32808
0.719726
0.0207557
0.0213566
0.0226313
0.0215334
0.0212728
0.0214341
0.0209911
0.021875
0.02068
0.0207619
0.0546268
0.0233287
0.0267309
0.772059
0.0654072
0.0491576
0.0246493
0.045641
0.140728
0.0292552
0.0232061
0.0258472
0.0210684
0.243432
0.0200599
0.0202776
0.0206745
0.445397
0.0208938
0.450908
0.021795
0.0201267
0.0408323
0.0211719
0.0211486
0.0211642
0.027997
0.350551
0.0216192
0.02055
0.0226039
0.761055
0.0488204
0.333137
0.0210387
0.0333657
0.0214879
0.0215436
0.0201842
0.0207219
0.0213559
0.0226866
0.24224
0.0224922
0.0225609
0.123847
1.0651
0.13286
0.0208465
0.0990747
0.0323892
0.507071
0.0205481
0.0209583
0.02227
0.457549
0.0197954
0.0213639
0.0207134
0.0203411
0.130522
0.0221344
0.057483
0.0211822
0.0197786
0.0240499
0.021434
0.601261
0.0211332
0.023936
0.0217869
0.0260306
0.0220502
0.0612039
0.330141
0.0212323
0.0405397
2.29652
0.0211209
0.0215442
0.0414255
0.0197303
1.67973
0.0302604
0.0209773
0.0587432
0.0200143
0.0213728
0.0216587
0.0208516
0.0202123
0.0221327
0.0206804
0.0207128
0.0215287
0.0218892
0.0482278
0.0200766
0.137703
0.0205219
0.0209
0.0271523
0.0447728
0.0220431
0.0197272
0.0211993
0.0222985
0.0428387
0.676624
0.0327564
0.0219165
0.0219554
0.0207529
0.0287363
0.0209343
0.0222857
0.44923
0.251351
0.0467674
0.0210777
0.0218061
0.0221298
0.0197356
0.0431075
0.0201157
0.112013
0.021963
0.171195
0.025706
0.473028
0.0215717
0.0638025
2.04129
0.395915
0.364607
0.0245659
0.328412
0.319358
0.0218633
0.0340852
0.387824
0.0206311
0.0207469
0.0213357
0.0238328
0.0756822
0.0214739
0.0238637
0.576673
0.0195286
0.0214679
0.298387
0.330329
0.10375
0.386723
0.432009
0.0221183
0.0546122
0.0233135
0.0236301
0.190157
0.0223553
3.80659
0.0385477
0.023582
0.0214145
0.0227346
0.0230316
0.0205549
2.13271
0.0197894
0.0212466
0.0213105
0.54828
4.25606
0.0407235
0.0212969
0.022448
0.0204693
0.438613
0.0210326
0.0220001
0.023271
0.0584107
0.0206949
0.0762559
2.77794
0.283566
0.0217991
0.162136
0.0205851
0.13804
0.0198245
0.058736
0.0216795
0.0666786
0.0260285
1.02028
0.12759
0.0228123
0.0225517
0.039562
0.0237971
0.0211025
0.0207028
0.0250636
0.0218917
0.328003
0.019663
0.0210834
0.021432
0.021402
0.267907
0.0207372
0.0201314
0.0215217
0.0486888
0.0258597
0.0555884
0.0227203
0.022485
0.0838612
0.0205886
0.0213091
0.0686038
0.0436714
0.0201337
0.0325026
0.0228147
0.357131
0.0212477
0.112684
0.0216449
0.0212195
0.0202286
0.0201746
0.0211638
0.0210727
0.425379
0.0621634
0.0215708
0.0213171
0.0211297
0.0221406
0.0262928
0.339393
0.0215701
0.0301411
0.0238228
0.326564
0.0216602
0.0421304
0.0212933
0.0212548
0.0279151
0.021221
0.0214554
0.0206793
0.0200442
0.398633
0.0213824
0.0207287
0.0338189
0.44737
0.0381799
0.0214348
0.0198897
0.0236231
2.65673
0.0230662
0.0216961
0.0215293
0.325991
0.0218671
0.0211231
0.4409
0.0207575
0.0245598
0.0226845
0.02154
0.0201628
0.0541212
0.0256211
0.0206237
0.0212819
0.0213959
0.0208978
0.0416625
0.0226231
0.0213955
0.0197685
0.0219988
0.0201793
0.0212476
0.0794682
0.0206422
0.0238835
0.023512
0.309213
0.0197301
0.0224621
0.0550695
0.0260313
0.177116
0.0209795
0.0214868
0.227003
0.0214023
0.0201499
0.371436
0.0214149
2.09116
0.825059
0.0676357
0.361231
0.0214161
0.0261649
1.8411
0.0212485
0.0199973
0.339115
0.080697
0.0208954
0.020133
0.0227137
0.0207527
0.201157
0.0469473
0.962744
0.0214836
0.0216479
0.0212224
0.0211157
0.58374
0.389975
3.82213
0.0243155
0.0224955
2.40021
0.0213361
0.0208942
0.0225825
0.0209276
0.0218492
0.0650489
0.0197277
0.443873
0.0218291
0.0219416
0.0213935
0.0261298
0.0207826
0.450293
0.0206883
0.0212011
0.0226462
0.0201596
3.06601
0.0240468
0.0260316
2.19665
0.0852095
0.0298157
0.360107
0.0213205
0.937384
0.0264266
0.0207663
0.0223391
0.0216958
0.411286
0.403183
0.0214502
0.0233956
0.0729805
0.0210659
0.0205721
0.0240169
2.14813
0.603274
0.0215393
0.0220081
0.0952497
0.0227732
0.0698342
0.0690379
0.0662473
0.0201451
0.490255
0.0215269
0.335299
0.0563258
0.0338102
4.2481
0.296032
4.07984
0.0203631
1.11529
0.0199504
0.0197767
0.255503
0.0197663
0.0221661
0.0211468
0.0612271
0.0206098
0.140876
0.0201629
0.0258395
0.442894
0.0258373
0.0245588
0.436988
0.0218163
0.0202417
0.0218562
0.0953613
0.0241819
0.136031
0.0214181
0.0254493
0.0217706
2.1279
0.0214187
0.021568
0.021367
0.577983
0.0314053
0.0215315
3.92759
0.0211007
0.0213859
0.0248561
0.622634
0.021394
3.97865
0.0214338
2.3489
0.0214299
0.0427434
0.0209849
0.0522835
0.0214268
0.0595449
0.0244276
0.0337908
0.0208946
0.0217531
0.300895
0.0203648
0.0238805
0.0267631
0.020061
0.0600252
0.304253
0.138969
0.0220174
0.0197391
0.0211887
0.133218
0.0237089
4.9277
0.0238625
0.315133
0.0218138
0.115251
0.0205369
0.0294585
0.121547
0.0227698
2.11437
0.023553
3.71846
0.16494
0.0207706
1.88516
0.02229
0.0211406
0.0227409
0.0841111
0.0234023
0.164255
0.0247558
0.117855
0.0433131
0.0657769
0.0484277
0.303758
0.0214571
0.0215315
4.01478
3.79633
0.0344849
0.0234045
2.23789
0.271785
0.0218179
0.0214347
0.0212116
0.131126
0.020707
0.020921
0.0325252
0.219326
0.0198241
0.020613
0.0221719
3.49442
0.0205037
0.0239121
0.019825
0.125056
0.0222434
1.15505
0.0218285
0.0206484
0.0213351
0.0202837
0.54295
0.0344515
0.334011
0.0213238
0.0282695
0.0202052
0.210065
0.189132
0.050879
0.0207912
0.0558308
0.020887
0.0215845
0.306716
0.0210727
0.0238405
0.0486462
0.0201471
0.116246
0.0207584
0.0198353
0.0215558
2.09982
0.0207881
4.34802
0.123441
0.313797
0.28502
0.0207083
0.507405
0.0663287
5.30632
0.0312889
3.68595
0.178048
0.0215666
0.0317317
0.021737
0.0281904
0.0212616
0.0227754
0.021206
0.025327
0.369325
4.07518
0.0238423
0.0231526
0.834282
0.367286
0.0212093
0.0214633
0.645785
0.0351885
0.0204414
0.251218
0.0363986
0.0221647
0.0203886
0.0223662
0.337279
0.0216246
0.0600641
0.0195908
0.840758
5.26595
0.07368
0.0223505
0.0215208
0.0211825
0.0212726
0.0214764
0.0244817
0.0224972
0.0215987
4.17485
0.0208367
0.0214912
0.0210584
0.288512
0.357197
0.021252
0.0215446
1.01909
0.0204823
4.1499
0.021527
0.0213736
0.0197268
0.0216178
0.0205942
0.0227493
0.0203101
0.219137
0.0217857
0.0752597
0.0213514
1.95161
0.021467
0.024337
1.71184
0.183931
0.0213576
0.0214479
0.033241
0.0197286
0.594571
0.423494
0.0224793
0.0207567
0.0212366
0.0203199
0.0524453
0.32676
0.0365336
0.415837
0.0349225
0.0213703
0.0211869
0.0205286
0.848081
0.265121
0.0214647
0.021132
0.020812
0.027
0.0213778
0.43812
2.38492
0.0287584
0.020272
3.62615
0.130905
0.0214456
0.0465366
0.0228966
0.0543858
0.0335475
0.0337922
0.0266135
1.77172
0.0321041
4.87207
0.0208439
0.020525
0.020696
0.0203339
0.0215029
0.0280215
0.020509
0.0251275
0.0200052
0.242123
0.0210858
0.0280046
2.59765
0.0220666
0.019806
0.0281615
4.45825
0.0212595
0.0206029
0.178731
2.08881
0.292645
0.0220531
0.0197368
0.431839
0.130028
0.0236907
0.0544003
0.0213958
0.0326869
0.0215244
0.130134
0.0206696
0.0212774
0.432058
0.0204179
0.0226944
0.301715
0.0554709
0.0206388
0.0209063
0.0207442
2.33826
0.023831
0.0259144
0.0214274
0.0207822
0.12586
0.0308159
0.0211509
0.0212925
0.0197359
0.0229716
0.0206474
0.0226781
0.188002
0.479747
0.0231401
0.0382906
0.0207992
0.0395417
0.02122
0.0215569
0.0207659
0.242275
0.0383793
0.0200321
0.0226514
1.13511
0.0357754
3.70787
0.0518317
0.0212946
0.0207707
0.0276
0.0223766
4.13822
0.0204949
4.01281
4.24324
0.0209018
0.0373669
0.284328
0.0252297
1.23426
0.112383
0.0221493
3.81102
0.0254578
0.0206208
4.10555
0.327858
0.103577
0.0217302
0.330745
0.276218
0.021338
0.175607
0.33028
0.0213789
0.0207079
0.021822
0.0200196
0.0215528
0.243764
2.02074
0.0214246
0.0243865
2.55224
3.8803
0.0337119
0.0600774
0.0210715
0.0284214
1.88573
0.0485875
3.76425
3.70845
0.0212552
0.0214596
0.021045
0.0232896
3.37025
0.269277
0.0209659
0.0346694
0.336249
0.322219
0.0469954
0.0211367
0.0214967
0.0219441
0.245648
0.0223709
0.0351189
0.0282786
0.0220188
0.420701
0.0230919
0.0679043
0.143315
0.348565
0.0212194
0.0212078
0.0225245
0.0306245
0.206562
0.263914
0.0218763
2.61361
3.1045
0.0309689
0.0317927
0.422806
0.331676
0.282714
0.458717
0.0213262
0.310383
0.940424
0.0298037
0.0268674
0.132529
0.0226314