/*--------------------------------*- C++ -*----------------------------------*\
| =========                 |                                                 |
| \\      /  F ield         | OpenFOAM: The Open Source CFD Toolbox           |
|  \\    /   O peration     | Version:  v2012                                 |
|   \\  /    A nd           | Website:  www.openfoam.com                      |
|    \\/     M anipulation  |                                                 |
\*---------------------------------------------------------------------------*/
FoamFile
{
    version     2.0;
    format      ascii;
    class       volVectorField;
    location    "950";
    object      ddtCorrDdt0(U);
}
// * * * * * * * * * * * * * * * * * * * * * * * * * * * * * * * * * * * * * //

dimensions      [0 1 -2 0 0 0 0];


internalField   nonuniform List<vector> 
18758
(
(-0.00571371 0.00402223 -4.44919e-19)
(-0.0469066 0.0277084 6.42462e-20)
(-1.7383e-05 -2.54797e-06 -9.45213e-19)
(-0.00515087 0.00507875 -1.39225e-19)
(0.00666918 -0.00354472 6.9089e-19)
(-4.75471e-05 5.55601e-06 -3.61605e-20)
(-6.5225e-05 8.36643e-05 -1.24707e-19)
(0.00125943 0.000480242 -1.9278e-18)
(0.00619468 -0.00262742 -1.16715e-18)
(0.00617032 -0.000985583 -9.70691e-20)
(-0.0246556 0.0388447 -1.08299e-19)
(0.0180681 0.206633 9.24638e-18)
(0.0487274 -0.00470836 5.93432e-19)
(-0.000359511 0.000712352 -2.34908e-18)
(-6.46434e-05 5.64598e-05 1.89988e-19)
(-4.90884e-05 -3.10186e-05 6.50444e-19)
(0.0328399 0.165463 7.02584e-18)
(-2.92556e-05 9.71063e-05 1.47206e-20)
(-5.99975e-05 5.00987e-05 4.68318e-19)
(-0.00132351 -0.00304387 1.18443e-19)
(-0.0899343 0.00623243 -6.92039e-19)
(-0.0548254 -0.0803682 3.56541e-18)
(-4.53568e-05 3.12542e-06 2.5006e-20)
(-2.37034e-05 -7.1781e-06 2.59558e-19)
(-0.0584044 -0.0853651 -5.70453e-18)
(-0.0720779 -0.0264617 1.39377e-18)
(0.0108803 0.00134256 -6.14868e-19)
(0.0459683 0.0493494 -1.17762e-18)
(-0.0354079 0.0200593 -3.23803e-18)
(-0.0652597 0.020677 -7.85319e-19)
(0.137839 -0.00595178 9.47944e-18)
(0.011826 -0.0320109 -3.95631e-18)
(0.00113408 0.000402188 1.39934e-18)
(0.116072 -0.0747889 1.19727e-18)
(0.00614034 -0.00554967 6.06288e-19)
(-0.0618323 0.0404504 -1.93773e-18)
(0.0517453 0.000760091 1.78361e-19)
(0.00577466 -0.00466998 -1.17803e-19)
(0.0282706 0.0457057 -3.83364e-18)
(-0.000471087 -2.964e-05 1.9238e-20)
(-0.0150328 0.185737 4.09578e-18)
(0.00744266 0.00141213 -1.03391e-18)
(0.0382891 0.0740772 2.08819e-18)
(0.00137194 4.1798e-05 -5.21636e-19)
(-8.91602e-05 -3.67083e-06 6.95895e-19)
(0.161802 -0.020621 -6.46392e-18)
(0.00639588 0.00153666 4.52514e-19)
(-0.0308703 0.0282739 7.29954e-19)
(0.0217074 -0.174372 -7.44261e-18)
(-0.00211562 0.00592852 -1.57919e-19)
(-0.0227258 0.0513031 3.82556e-19)
(-0.0437329 -0.174258 3.53909e-19)
(-0.00126854 0.00640494 -5.6601e-19)
(-0.00265318 0.00312315 2.41827e-19)
(-0.0457893 -0.0401324 1.48921e-18)
(0.0422076 -0.00505285 -1.63498e-18)
(5.91011e-05 -0.000402056 3.78496e-19)
(-0.00143435 -0.00266829 -8.58075e-20)
(-0.0243437 0.028269 -2.18551e-18)
(-3.48643e-05 -0.000348272 -3.76181e-19)
(-8.26524e-05 -4.76472e-06 -4.12512e-20)
(0.00128186 -0.000178613 -1.75471e-19)
(0.0346294 0.043458 1.50424e-17)
(-0.0946735 0.320264 -4.11674e-18)
(-7.95484e-05 -6.18224e-06 -3.12868e-20)
(0.15208 -0.0865004 9.95148e-19)
(-6.09706e-05 4.22328e-06 -1.17122e-19)
(-8.4872e-05 0.000101923 -1.99325e-19)
(0.0484977 0.0449055 1.84605e-18)
(-4.43722e-05 0.00011356 -8.05998e-21)
(-0.0297697 -0.172233 -2.89692e-19)
(-0.080677 -0.0622761 -5.07491e-18)
(-9.35315e-05 -9.4036e-05 -5.90832e-19)
(0.00238323 -0.00601099 -1.95233e-20)
(0.0204064 -0.0355646 -2.11175e-18)
(0.147598 0.0296816 -9.32742e-18)
(-0.136348 -0.0688663 -3.11738e-18)
(0.0593524 0.0782623 4.21649e-18)
(0.0068364 -0.00165875 -3.99393e-19)
(0.0476762 0.0496591 2.20033e-18)
(-0.0373454 -0.0114548 -4.47484e-18)
(0.0516744 0.0687315 -1.48047e-17)
(0.0623405 0.0957419 -7.65314e-18)
(0.0134375 -0.0195231 -8.61464e-19)
(0.00191024 0.00144572 -1.54886e-19)
(-0.0389762 -0.0320787 4.52698e-18)
(-0.0026003 -0.000134 9.98214e-19)
(0.00242948 -0.00681337 2.15483e-19)
(0.0233006 0.0407358 2.60492e-18)
(-0.0360552 -0.0320026 -6.16389e-18)
(0.0457602 -0.160956 -2.02267e-18)
(-5.85111e-05 -4.62026e-06 -3.51635e-19)
(-0.0242951 -0.00865295 -9.66526e-20)
(0.0458613 -0.159676 6.77608e-18)
(-8.52209e-05 -9.26951e-05 9.98764e-21)
(-6.63068e-05 -1.8455e-05 -1.18615e-19)
(-0.000161007 0.000132048 1.10145e-19)
(-0.0194574 0.0115207 7.12576e-19)
(0.0326513 0.0737568 -4.66462e-18)
(-2.5778e-05 0.000126899 -6.00569e-21)
(0.161098 0.0093124 -5.07304e-18)
(-0.00559471 -0.00834612 -5.0373e-19)
(-7.98596e-05 9.7729e-05 -3.9811e-20)
(-6.97893e-05 -1.35451e-05 4.50113e-19)
(0.147071 -0.0878872 2.20666e-18)
(-0.0897609 -0.00733046 1.54217e-19)
(-0.0334125 0.0261539 -8.07797e-19)
(0.032294 -0.176974 -7.49975e-18)
(-0.0978949 0.0151401 -1.50022e-18)
(-0.0864206 0.0138532 2.11365e-18)
(-4.48193e-05 -3.83712e-06 -8.47959e-19)
(-0.159162 0.398825 2.47223e-17)
(0.000945052 0.00714029 8.78604e-20)
(-5.3855e-05 -5.13509e-06 -9.34567e-21)
(-0.00645878 -0.00808648 9.68351e-19)
(0.129754 0.0909164 -5.4018e-20)
(-0.0179509 0.0126217 1.33789e-18)
(-0.0002817 -1.03249e-05 1.5351e-20)
(0.0484344 0.195695 1.72035e-17)
(0.00134671 0.00282874 -3.07032e-20)
(-2.69051e-05 -7.2905e-06 7.47898e-19)
(-0.119743 -0.0186825 -2.03676e-19)
(0.00162475 0.00182078 2.45837e-19)
(-5.79593e-05 9.71452e-05 1.64874e-19)
(-0.0759881 -0.185087 -2.84453e-17)
(-0.00299458 0.00277957 1.0069e-19)
(0.000751114 0.00011057 4.89702e-19)
(-4.96554e-05 9.74276e-05 3.54615e-20)
(-0.0738162 0.0295338 4.90962e-19)
(-0.0778876 -0.0345536 2.47239e-17)
(-0.0270988 0.0265909 2.28001e-18)
(-2.21538e-05 5.97703e-06 -6.44855e-21)
(0.00475118 0.00447662 -4.72562e-19)
(0.112482 -0.170001 -6.74542e-19)
(-0.000581082 1.74633e-05 4.61492e-20)
(-1.97525e-05 1.28757e-05 -1.25718e-19)
(-0.0429357 -0.268068 -6.50601e-18)
(0.00077564 0.00196139 7.00256e-20)
(0.00887569 0.0995498 -3.18761e-18)
(-0.0375426 -0.00856265 2.61431e-18)
(0.00227142 0.00833592 1.33901e-19)
(-0.034774 0.187883 8.60381e-18)
(-0.0144927 0.00519219 1.74844e-18)
(-0.104153 0.0213608 6.35589e-19)
(-0.0800317 -0.167801 1.97591e-17)
(-0.0154838 -0.00484799 -4.92289e-18)
(0.138987 -0.0980816 -2.28221e-19)
(-0.0632605 0.0232561 -5.31726e-20)
(-0.0326987 0.0351012 -7.26966e-20)
(-0.323329 0.254744 6.33995e-18)
(-0.0959412 -0.0363672 -4.67162e-18)
(-0.033476 -0.0618683 -3.57521e-17)
(-0.00013582 -0.000140797 2.30558e-18)
(0.00445505 -0.00700978 -5.5651e-19)
(-0.00926483 0.185565 -1.35504e-18)
(0.00480207 -0.0703799 -3.38791e-19)
(-0.0246951 -0.00730008 7.78864e-19)
(-0.0792166 0.0283689 2.69651e-19)
(0.00824124 -0.0250283 -2.98663e-18)
(-0.0406586 0.0378487 -2.97128e-20)
(0.321577 -0.00105782 -1.68534e-18)
(-5.29359e-05 2.63062e-05 -1.29188e-18)
(0.141344 -0.0683913 -5.69675e-18)
(0.133599 -0.103916 4.6217e-19)
(0.159585 -0.0539879 -9.77179e-20)
(-0.000628607 -0.000250704 -4.59223e-19)
(-6.71202e-05 4.03941e-05 1.33219e-18)
(0.200478 -0.00786237 -3.16269e-18)
(-0.0841264 -0.040553 -2.14783e-17)
(-0.00575312 0.258578 -1.99037e-17)
(0.012683 -0.0640494 5.95906e-18)
(-2.22232e-05 -1.77866e-06 2.85053e-19)
(-0.0404602 0.0248109 -1.4834e-18)
(0.00838678 0.0504821 6.23086e-19)
(-0.0800155 0.0230759 7.78653e-19)
(-3.55035e-05 4.29077e-05 -5.84004e-20)
(-8.26224e-05 -8.87155e-05 1.90863e-19)
(-0.114113 -0.0277958 -5.81472e-19)
(0.0984449 -0.0679959 -8.75878e-19)
(-0.000481248 -9.17628e-05 4.4654e-18)
(-3.51716e-05 5.06944e-05 9.86998e-20)
(-0.00386287 0.00136311 -5.68177e-19)
(-0.0466387 -0.0367439 -8.20548e-19)
(-0.00086166 -7.17627e-06 -5.42684e-18)
(-0.245809 0.252501 1.33332e-17)
(-0.000104543 -9.04694e-06 1.79803e-18)
(-0.0667127 0.0115541 9.02162e-19)
(-0.0149295 0.00565951 -1.14736e-18)
(0.0734695 -0.154081 -5.81062e-18)
(0.123637 -0.0613907 -1.11584e-18)
(-0.0256328 -0.0524662 5.03938e-17)
(-0.000103403 5.87073e-06 -2.22119e-18)
(0.0251534 0.0316304 6.76037e-19)
(-0.104713 -0.276335 8.80231e-19)
(-2.70815e-05 -6.59369e-05 -9.10394e-20)
(-0.000766627 5.28192e-05 4.8337e-19)
(0.0189437 0.115875 2.98743e-18)
(-0.000133783 -0.000142753 -3.48594e-18)
(0.0792663 -0.156057 1.22463e-17)
(-4.57919e-05 8.58423e-06 -1.19829e-19)
(0.00118288 0.00186824 2.17023e-19)
(-0.0886033 0.0304566 -3.30391e-19)
(0.0277025 -0.0781882 -3.80667e-18)
(-4.76555e-05 -2.26059e-05 8.24987e-20)
(-4.35121e-05 -6.27161e-07 5.16509e-19)
(0.145232 -0.0754036 1.53941e-18)
(1.03879e-05 -2.05354e-05 1.03734e-18)
(0.00564823 -0.00678376 -1.43007e-19)
(-0.0889618 -0.0292891 2.51591e-18)
(-0.058514 -0.0264013 -3.20704e-17)
(-4.75329e-05 -3.40835e-07 4.27088e-21)
(-0.0275915 -0.00486165 -5.347e-18)
(0.00114949 0.00240844 -5.57381e-19)
(-0.00105154 0.00133978 9.93447e-19)
(-0.0013559 -0.00190794 -4.02248e-20)
(-0.000178499 0.000115795 -1.4237e-19)
(-4.39202e-05 7.38947e-06 6.30898e-19)
(-0.0260154 -0.00508229 3.95317e-18)
(-5.36071e-05 4.82019e-06 1.88198e-19)
(-0.0356988 0.14437 1.20219e-18)
(-0.0992874 -0.236254 9.38066e-19)
(-0.000534217 0.000388579 2.70886e-19)
(-0.0137983 0.00579966 3.30652e-18)
(-0.09087 0.0372781 -6.09815e-20)
(0.0341279 -0.0787678 3.81967e-18)
(-0.018688 -0.0949514 8.49152e-19)
(0.0196694 -0.0403168 1.54155e-18)
(-0.0272803 -0.0351476 -2.02122e-18)
(0.296424 0.00239215 2.21914e-18)
(-3.69601e-06 5.30893e-06 1.7433e-19)
(-0.0863748 -0.0249209 2.58198e-19)
(-0.0155775 -0.00368472 1.8164e-18)
(-0.0783958 0.0119888 1.71413e-18)
(-2.54878e-05 9.98939e-06 2.92309e-19)
(-7.40011e-05 4.10408e-05 5.97271e-20)
(-0.000692262 0.000417784 3.10504e-19)
(0.0387788 -0.021115 -1.4327e-18)
(-0.00907743 -0.184421 -1.2016e-17)
(0.035351 0.135557 1.10076e-18)
(0.000344154 0.000108173 -1.59148e-18)
(-4.55824e-05 1.08273e-05 6.38555e-20)
(0.0353186 -0.020582 -5.36266e-19)
(0.0020606 0.0829614 2.11282e-18)
(-2.37692e-05 5.20301e-06 -9.58947e-20)
(-0.302314 0.238822 -4.87478e-18)
(-0.12998 0.136798 1.16969e-18)
(-8.44593e-05 2.58038e-05 2.34245e-19)
(-2.20752e-05 6.22164e-05 -2.1203e-19)
(-0.00130089 -0.000873535 -3.0833e-19)
(-1.56469e-05 0.000137844 -2.70791e-20)
(0.0204492 -0.0738686 -1.25545e-17)
(0.000791688 0.000511801 -4.62919e-19)
(-0.0445087 -0.0225536 -6.74182e-19)
(-0.000734577 0.000598876 -1.06366e-19)
(-2.74101e-05 4.58916e-06 3.70289e-20)
(-0.0221367 0.193771 3.0906e-19)
(-0.000399357 -0.000331274 -6.63904e-21)
(-0.0886538 -0.0777665 -4.17349e-19)
(-5.39464e-05 1.44987e-05 -1.64831e-21)
(-0.0116519 0.456586 1.88018e-18)
(-0.000263056 0.00733791 8.78794e-19)
(-6.32461e-05 8.54393e-05 -4.02976e-19)
(-8.50301e-05 2.13266e-05 -3.69351e-19)
(0.0245209 0.0289682 7.30596e-19)
(0.0945126 -0.0462457 1.71169e-19)
(0.0931482 -0.0464258 4.17426e-19)
(-5.92026e-05 8.24678e-05 1.84492e-19)
(-0.000282639 0.0939592 4.59943e-18)
(-0.000150473 -0.000137524 6.95299e-20)
(0.000280751 0.00021344 4.96553e-20)
(0.12975 0.128757 3.62706e-18)
(-0.0192728 -0.157944 4.46532e-18)
(0.000229454 0.000212762 -3.06108e-20)
(-6.44242e-05 2.6591e-05 -2.47741e-19)
(-0.00111378 -0.00245283 -5.5446e-20)
(-0.00131025 -0.00161608 1.52741e-20)
(0.000973185 0.00425133 -1.87684e-18)
(-5.45321e-05 8.93957e-06 -1.20423e-19)
(-0.0013658 0.00158971 6.37512e-19)
(-0.000285503 0.000755615 2.5126e-19)
(-2.54008e-05 6.5985e-05 1.66237e-20)
(-2.43255e-05 6.72246e-06 3.03773e-20)
(-5.83201e-05 3.8429e-05 1.6758e-20)
(0.118674 -0.12162 7.27029e-20)
(-6.5251e-05 7.40063e-05 -6.82007e-20)
(-6.43643e-05 3.86414e-05 2.20994e-19)
(-2.95059e-05 7.21125e-05 1.04333e-20)
(-0.00485652 0.0782071 -2.7814e-18)
(-6.3522e-05 9.72428e-06 -3.39257e-19)
(-6.68091e-05 1.66685e-06 -9.56302e-20)
(-2.63599e-05 2.24212e-06 9.72062e-21)
(-0.000468057 5.06144e-05 -1.28109e-18)
(0.000112321 -0.000351916 -2.37702e-19)
(-1.4474e-05 1.77588e-07 -1.95816e-19)
(-2.10861e-05 -3.37467e-06 -4.94836e-19)
(-0.00219192 -0.00166985 -6.88281e-19)
(-0.014316 -0.107953 -6.49875e-19)
(-5.48362e-05 -1.77782e-06 4.76657e-19)
(-2.06734e-05 -4.67285e-06 -1.52507e-19)
(-0.127963 -0.259874 -1.97612e-17)
(-0.00161309 0.0010234 4.05175e-18)
(-2.22413e-05 -1.02019e-05 2.06223e-19)
(-1.78714e-05 -9.04535e-06 1.05582e-18)
(0.0451072 -0.0422893 6.70086e-18)
(0.0198132 0.0218095 -4.12175e-21)
(-3.31472e-05 3.94253e-05 1.86133e-19)
(-0.0105838 0.0081272 1.54591e-20)
(-0.0936193 -0.0143707 -7.51447e-19)
(0.00145928 -0.000402796 3.48915e-19)
(0.0393837 -0.00994681 3.43598e-19)
(-5.73022e-05 5.18273e-05 -5.29203e-19)
(0.0879085 -0.045633 -9.84988e-19)
(0.00693534 0.111225 -6.43458e-18)
(-0.00169759 0.0533506 3.47063e-18)
(-0.0350451 0.0169875 -1.847e-18)
(0.119858 -0.0730847 1.38378e-18)
(-5.99472e-05 7.71762e-05 -8.01019e-20)
(0.0384904 0.00296659 5.49675e-18)
(-0.104392 0.0455733 -1.39425e-18)
(-6.72592e-05 1.42003e-06 -2.21557e-20)
(0.000558234 0.0497485 -1.57327e-18)
(0.00950323 -0.0224188 2.02668e-18)
(-0.333166 0.297752 -6.75369e-18)
(-5.39235e-05 8.82867e-05 1.36542e-20)
(-6.58737e-05 8.67004e-05 -1.71304e-19)
(-0.0664326 -0.0269348 -2.59202e-18)
(0.0139086 -0.00142987 8.66279e-19)
(-3.09236e-05 0.000116181 8.93933e-20)
(-0.0627233 -0.190046 3.29145e-17)
(0.0312817 -0.0166142 1.23596e-18)
(0.00831489 0.0068579 -8.11984e-19)
(0.0929469 -0.196612 -1.71953e-18)
(-4.90686e-05 8.60714e-05 -2.32676e-20)
(-0.000554841 -0.000374706 -5.02677e-19)
(-5.50803e-05 2.09643e-05 -1.21692e-19)
(-5.81748e-05 -2.77239e-06 4.75928e-19)
(-0.00100071 0.000105058 2.63083e-20)
(0.0029731 0.0020571 -5.36463e-19)
(0.00124532 0.000622257 1.1103e-18)
(8.52532e-05 -3.97583e-05 4.16207e-19)
(-0.000908854 2.73045e-05 -4.42959e-20)
(0.000347369 0.000185617 -4.8532e-19)
(-0.169312 0.22989 -5.3523e-18)
(0.0309212 -0.0541524 9.88528e-18)
(0.000394221 0.00180638 5.76524e-19)
(0.0454214 -0.0160091 -6.80146e-18)
(0.0480963 0.0396407 -2.38469e-18)
(-2.706e-05 0.000114601 -2.98708e-19)
(-0.00742075 0.00274534 -4.52533e-18)
(0.0261 0.0211345 4.83887e-20)
(-0.0421282 -0.0792869 -2.70284e-18)
(-0.0143418 0.179086 5.99547e-19)
(0.0629502 0.090416 2.68502e-18)
(-0.000106712 -2.45038e-05 2.43696e-19)
(-0.03411 -0.146519 -3.41473e-17)
(0.00718304 0.483309 1.14394e-18)
(-0.0106977 0.0147974 1.98775e-18)
(0.000307102 0.000183478 -3.85162e-19)
(0.00884513 0.00511162 2.69467e-19)
(-0.00163911 0.0010265 2.25426e-19)
(0.00113021 0.000164078 2.11094e-19)
(0.0187548 0.129367 -3.86193e-20)
(-0.147802 -0.259128 -9.939e-20)
(0.0148691 0.144669 -3.29338e-19)
(0.0220053 -0.0487692 -1.2885e-18)
(-0.14066 -0.30536 8.06117e-19)
(-8.1318e-05 3.39696e-05 2.59564e-19)
(-0.00273253 0.0016385 2.01557e-17)
(-0.00440424 0.00127864 8.87575e-19)
(-0.0184679 0.0150211 -3.34626e-19)
(0.0086599 -0.171409 1.64521e-17)
(0.114407 0.103655 -1.07814e-18)
(-0.0680982 0.00558278 5.62079e-19)
(0.0688279 -0.00105802 3.87944e-19)
(-0.0205958 0.174318 -5.77373e-18)
(0.0734823 0.0881052 -1.43674e-18)
(-2.73348e-05 2.28993e-06 -1.41832e-20)
(0.153107 -0.0770337 4.21248e-18)
(-0.0684635 0.022491 -8.37879e-19)
(0.00155196 0.0380976 2.28882e-19)
(0.0294707 0.127683 5.75782e-19)
(-6.5036e-05 6.05996e-06 1.30279e-19)
(-2.81575e-05 -7.7034e-06 1.2129e-19)
(-0.0470262 -0.078255 7.69513e-19)
(0.00174565 0.171814 5.10646e-18)
(0.0482697 -0.127538 2.80538e-18)
(0.105841 0.144649 -1.22526e-17)
(-0.0653971 -0.174845 -3.93866e-17)
(0.000369946 0.000146973 1.60354e-18)
(0.0042065 0.233292 -1.6868e-18)
(-0.0833247 0.0377623 -2.55124e-18)
(-4.76817e-05 -2.28344e-05 -9.9539e-19)
(-6.35942e-05 0.000739752 -5.2134e-18)
(-0.00200381 -0.00125563 -1.20085e-19)
(0.00166975 -0.00217721 -2.0774e-20)
(-3.1737e-05 -7.77754e-06 -3.45069e-19)
(-0.00192103 0.000873881 -4.70416e-19)
(-0.000100063 -0.0001054 1.40857e-18)
(-3.43424e-05 4.04903e-06 -2.74658e-20)
(-3.1177e-05 5.13128e-06 4.51849e-19)
(-0.00183992 -0.000132601 5.1642e-19)
(0.0105858 0.000812228 -3.46255e-19)
(0.0496078 0.249361 1.42669e-17)
(-0.00457569 0.000382162 2.88971e-18)
(-0.0814585 -0.45896 -1.76132e-17)
(-0.0529977 -0.423807 -1.28972e-18)
(-0.14005 -0.177806 -7.66249e-18)
(0.0653286 0.270789 1.14735e-17)
(-0.0601651 0.0391744 -1.42396e-18)
(-0.00201188 -0.00123029 7.21659e-19)
(-3.12141e-05 -8.80022e-06 -2.24944e-19)
(0.0298609 0.0919556 -6.00789e-19)
(1.40493e-05 0.000771229 -1.01132e-19)
(0.000374667 2.58055e-05 -5.77541e-19)
(0.0227772 0.0594906 5.62437e-18)
(-0.0168226 0.0160758 3.30912e-18)
(-0.0499189 0.0852112 1.20862e-18)
(-0.000315369 -0.000422046 -3.53975e-19)
(-0.120634 0.138469 4.7889e-18)
(-9.4021e-05 -3.59371e-06 -2.50128e-19)
(-0.00166327 0.00116177 -1.62729e-18)
(-2.11201e-05 -1.81679e-05 1.71178e-19)
(0.120286 -0.141835 4.5989e-18)
(0.0885967 -0.0468961 8.30237e-19)
(-0.0219859 0.196104 6.53129e-18)
(-1.93026e-05 -2.7349e-06 -4.99333e-19)
(0.0697698 -0.206076 4.4234e-19)
(-0.0215885 -0.0100673 3.50804e-18)
(-6.68909e-05 1.84725e-05 3.58788e-19)
(0.00112536 -0.00229335 -1.19508e-19)
(-4.35417e-05 3.11286e-06 1.50886e-19)
(-0.0689196 -0.00211872 4.4932e-20)
(-4.12165e-05 -3.29189e-06 -1.21704e-19)
(-1.35621e-05 2.37107e-06 -2.30331e-19)
(0.157392 -0.0274348 6.39277e-19)
(-0.00472258 9.30458e-05 1.06534e-18)
(0.000398637 6.45651e-05 -4.45084e-19)
(-7.48311e-05 -8.87581e-05 -2.51142e-19)
(0.00124961 5.49748e-05 1.01358e-18)
(0.00307336 0.000660171 -3.49167e-19)
(-0.238329 0.528759 1.53031e-17)
(-0.0810112 0.0915004 2.40671e-19)
(-3.85649e-05 1.07251e-06 5.42931e-20)
(0.157453 -0.0786855 6.52455e-19)
(-2.08712e-05 -3.02942e-05 -3.27822e-20)
(0.00330299 0.00241086 3.38952e-19)
(-0.0257467 -0.0335752 1.51128e-17)
(-5.96985e-05 -6.67085e-05 2.37101e-18)
(0.133633 -0.0609758 5.10395e-20)
(-3.53168e-05 9.18733e-07 6.74029e-20)
(0.00341167 0.000535375 1.41282e-19)
(-2.41709e-05 -2.74472e-06 3.71612e-19)
(0.0938406 0.0945478 2.32808e-18)
(-0.00320021 -0.00236228 -3.55987e-19)
(-0.000103307 -0.000101828 3.15734e-20)
(-0.0310461 -0.18856 1.34883e-17)
(0.0155385 0.0278937 1.24795e-19)
(-3.30253e-05 8.2529e-05 -4.04037e-20)
(-0.00255515 0.00172689 -1.90014e-17)
(-0.000104627 -0.00355183 -4.67007e-19)
(-4.72362e-05 -2.20876e-05 2.41066e-21)
(-5.00147e-05 -8.022e-06 -1.14179e-19)
(-6.57227e-05 1.49226e-05 -1.11166e-20)
(0.0953394 -0.0420559 -4.02734e-20)
(0.0260019 -0.101914 2.27714e-18)
(-0.00011373 -2.56412e-05 -9.7921e-19)
(-0.00343874 0.0104966 2.33226e-19)
(-0.163216 -0.320466 -1.18888e-18)
(-0.124745 -0.0249374 9.92562e-19)
(-0.00377006 -0.0645922 1.144e-17)
(-0.101764 0.143237 -1.21557e-18)
(0.00527547 -0.0412212 -5.86572e-18)
(-0.000254299 9.15558e-05 -2.36756e-19)
(-0.0539443 0.0375544 2.91646e-19)
(0.0342158 -0.0169101 -2.19841e-19)
(0.00829942 -0.00525411 -1.44199e-20)
(0.00113769 0.000275088 -6.32571e-19)
(-0.0337675 0.143384 -1.80344e-18)
(0.0208852 0.0174312 -1.21519e-19)
(0.00358577 0.0074293 -3.12552e-19)
(-3.07405e-05 -1.62275e-05 -6.2325e-19)
(-6.34238e-05 8.3952e-05 7.99713e-19)
(-6.44824e-05 3.17976e-05 -2.22472e-19)
(-6.07632e-05 -6.06432e-05 -2.27873e-19)
(-6.53164e-05 3.91953e-05 4.041e-19)
(-4.57255e-05 -3.57561e-05 3.03696e-19)
(0.0367595 -0.0288823 1.09101e-18)
(-4.08489e-05 4.74984e-06 -4.13387e-19)
(-2.39711e-05 -5.28716e-05 1.07533e-19)
(-0.0192211 -0.0115461 6.24465e-18)
(-2.53494e-05 9.4616e-06 -2.73126e-20)
(-3.217e-05 -2.29223e-06 -4.79036e-20)
(-0.000342605 -0.000171001 6.68127e-20)
(-0.000138241 -0.00312709 -1.17591e-19)
(0.0227204 0.0125569 1.75203e-19)
(-0.0948023 0.0175769 3.32289e-19)
(5.36223e-05 -1.82595e-05 4.4001e-19)
(-0.0126465 0.0508221 -4.92501e-19)
(-1.79476e-05 6.9816e-06 9.47354e-21)
(-0.00469168 0.0010051 -2.18993e-18)
(-0.0654809 -0.0153103 1.3843e-18)
(-0.0101534 -0.113911 -7.56367e-18)
(0.0724193 0.00313163 -4.10883e-20)
(-4.48316e-05 8.94364e-06 -1.77178e-19)
(-0.000105737 -3.31995e-05 -1.15905e-19)
(0.0119664 -0.11127 -2.51444e-17)
(0.111763 -0.180547 -4.26937e-20)
(0.0123316 0.00578508 -3.19091e-19)
(-0.0001118 -0.000420374 -2.95489e-20)
(-0.112991 0.142993 -5.14929e-19)
(0.125823 -0.114071 2.63398e-18)
(-2.84951e-05 7.58357e-05 -1.96624e-20)
(-1.878e-05 9.81736e-06 -4.54096e-21)
(0.209005 0.0235499 -7.77248e-19)
(-0.00105484 -0.00207045 -6.7001e-21)
(-0.0403644 -0.00719486 5.98992e-18)
(0.0128773 0.00353432 1.2018e-18)
(0.000977516 -0.00290902 1.01106e-19)
(-0.00276032 0.0108254 -4.69328e-18)
(-2.35783e-05 6.87489e-05 9.7165e-22)
(-4.04725e-05 2.49768e-05 -1.72101e-20)
(-4.91777e-05 -5.73261e-06 -7.67314e-20)
(-3.71199e-05 -3.29344e-06 2.3464e-19)
(-3.59791e-05 3.58383e-06 -1.01886e-19)
(-8.38648e-05 -5.95285e-06 -1.07851e-18)
(0.0396549 -0.0351763 -1.2322e-18)
(-3.81085e-05 6.26769e-05 1.0723e-19)
(-0.0363182 0.0938261 -8.79682e-19)
(-0.152148 -0.22427 1.97418e-18)
(-3.0792e-05 8.51752e-05 5.33087e-20)
(-3.75153e-05 6.41362e-05 -2.70643e-19)
(-4.1053e-05 1.40919e-06 2.63536e-19)
(-0.00148607 0.00314915 -8.43087e-19)
(-0.00952282 -0.00187862 -5.42314e-19)
(-0.106068 0.0933272 -5.53719e-19)
(-3.4522e-05 0.000111511 -1.22783e-19)
(0.0999534 -0.0733755 2.1014e-18)
(0.00818255 0.00208581 -1.02494e-18)
(0.00764094 -0.00562732 -3.36882e-20)
(0.000211072 -8.69483e-05 3.652e-19)
(-0.00153666 1.97498e-05 4.44694e-19)
(-0.00143628 -0.00119694 -4.94624e-20)
(-7.12689e-05 3.87345e-05 3.48402e-18)
(-8.75169e-05 1.76285e-05 -1.87069e-18)
(-0.151021 -0.261042 -1.39053e-17)
(-0.199302 0.197523 -3.88324e-19)
(-2.20825e-05 5.97384e-05 1.0384e-19)
(-3.97681e-05 2.7583e-05 5.29582e-19)
(-0.000421773 2.84636e-05 1.78117e-18)
(0.215241 -0.0164873 2.1174e-18)
(-2.26767e-05 -8.75225e-06 6.66052e-20)
(-0.000216532 0.000130968 9.40257e-20)
(-4.93281e-05 -3.03336e-05 -4.23758e-19)
(-2.21222e-05 -4.54475e-05 3.70358e-20)
(-7.60373e-05 4.30515e-05 -7.23891e-19)
(0.000161606 -7.49503e-05 -5.58024e-19)
(-0.00147987 -0.000856311 8.98626e-20)
(-4.88499e-05 -2.9865e-05 -1.03498e-18)
(-0.0243405 0.0323054 1.02195e-18)
(-4.02857e-05 9.69247e-05 1.22643e-19)
(-0.000681741 -9.16718e-05 -5.69089e-20)
(0.0528892 -0.000603349 -3.42177e-20)
(-0.0193146 -0.113046 7.42368e-18)
(0.00412488 0.00506076 -6.4333e-19)
(0.000742065 0.000232951 1.28367e-19)
(-4.08997e-06 0.000137515 2.36923e-19)
(-2.86728e-05 -1.9023e-06 -9.38391e-20)
(-6.37743e-05 -6.37662e-05 1.15375e-19)
(0.000805072 0.00248944 7.2872e-20)
(-0.0374595 0.0502642 -5.9203e-20)
(0.0212466 0.0502851 1.17939e-18)
(-0.000488573 -1.93199e-05 -3.03181e-18)
(-0.0891908 -0.0316701 -1.71801e-18)
(-9.15395e-06 0.000130538 2.08125e-19)
(-0.00805731 0.00266523 2.77211e-18)
(0.000928134 4.67824e-05 -4.74307e-19)
(-3.08238e-05 9.18214e-06 -3.99676e-19)
(-0.0167419 -0.00306614 -5.09199e-18)
(-5.0148e-05 0.000115552 -2.10461e-20)
(-3.37051e-05 -3.30726e-06 -1.87396e-19)
(0.0111095 -0.00119371 1.5866e-18)
(-1.56737e-05 -1.50054e-06 3.43183e-19)
(-0.000783181 0.000111534 4.23796e-19)
(0.0167692 -0.0499692 -1.86071e-18)
(-1.31896e-05 -3.55195e-06 -3.18493e-19)
(-9.23824e-05 8.81249e-05 2.3078e-19)
(0.115667 -0.137383 -8.04564e-18)
(-0.000299542 3.12614e-05 4.85834e-19)
(0.0325192 -0.0402902 6.34111e-19)
(0.0176933 0.00820374 1.17941e-19)
(-3.65352e-05 8.96126e-06 -1.54553e-19)
(-2.7637e-05 -3.22537e-06 7.78642e-20)
(0.0115864 -0.0180872 -5.66065e-20)
(0.00168403 -0.000391535 -1.45987e-18)
(-0.00971494 -0.000877541 1.57382e-18)
(-3.61044e-05 4.5008e-05 -4.83908e-21)
(0.00561804 0.486297 -6.50782e-18)
(-0.0926982 -0.0365454 1.7634e-18)
(0.0265167 -0.0208416 7.60782e-18)
(-2.85457e-05 8.49859e-05 8.80452e-20)
(-0.148675 -0.271577 -9.72248e-18)
(-3.01716e-05 -5.64564e-05 1.69208e-19)
(-4.61438e-05 2.12099e-07 6.229e-19)
(-6.3793e-05 2.98439e-05 5.74652e-20)
(0.00143028 0.00549315 1.9512e-20)
(0.136846 -0.0519982 3.21527e-19)
(0.0612059 0.00849916 2.29899e-19)
(-0.001384 0.000496732 1.5892e-19)
(-0.00079154 -4.69117e-07 8.85916e-19)
(0.00181038 0.00243548 5.62262e-19)
(-0.189773 0.377441 -2.79282e-18)
(-0.0707376 0.127175 -1.00311e-19)
(-8.25441e-05 -2.81973e-05 5.23842e-19)
(-0.0131889 0.00828281 -7.40389e-20)
(-0.00147573 0.00142313 3.09638e-18)
(-0.0169363 -0.177199 2.23238e-17)
(0.00414742 0.00452549 4.86462e-19)
(0.0154512 0.00513831 3.16953e-19)
(-3.62252e-05 0.000106746 6.69673e-20)
(0.0023397 0.00518756 1.40674e-19)
(-0.0150169 0.0191448 2.67893e-18)
(-3.97528e-05 9.30564e-06 6.7521e-20)
(-3.38288e-05 0.000115226 -7.1979e-19)
(-2.35811e-05 3.63401e-06 -1.62901e-19)
(-2.95318e-05 0.000100174 -5.19312e-19)
(0.00275514 0.00379459 -1.35493e-18)
(-0.0407593 0.0634786 7.5628e-20)
(-0.043978 -0.012465 6.99701e-19)
(0.0262842 0.0244307 -1.69823e-18)
(0.015116 0.00246728 -9.44397e-19)
(0.000968181 -0.00410597 3.92836e-19)
(-5.73492e-05 4.41341e-05 -9.92569e-20)
(-1.2939e-05 1.04543e-05 -2.48572e-19)
(-0.0286701 0.114817 1.33372e-18)
(-0.0481779 -0.0812876 -2.39828e-18)
(-0.000445769 -0.000157959 -2.15225e-20)
(-0.0134433 0.00816877 -6.64957e-18)
(-0.0402392 -0.0576008 -3.86425e-18)
(-0.159513 -0.280007 1.03013e-17)
(-3.99957e-05 2.08673e-07 4.0301e-20)
(-3.82824e-05 -3.41917e-06 -3.59271e-20)
(0.0126387 -0.0222413 3.2038e-19)
(-0.0366776 -0.120684 5.9381e-18)
(-3.43033e-05 -5.71566e-05 -1.01212e-19)
(0.0285387 0.0143265 -1.56528e-19)
(6.30638e-05 0.000144832 1.2303e-19)
(-4.15629e-05 1.93438e-06 -1.22298e-20)
(-0.00542936 0.00220251 7.03274e-19)
(-6.77773e-05 1.43962e-05 -1.77522e-18)
(-0.00010314 -1.75287e-06 5.12861e-19)
(0.00185439 -0.000331019 6.80201e-19)
(-4.82427e-05 7.4511e-05 -2.83989e-19)
(0.00162632 -0.00162068 -1.2716e-19)
(-0.0602123 0.0682525 3.5428e-19)
(-0.016627 -0.00194415 5.23812e-19)
(0.0327442 -0.161077 -2.27331e-18)
(-0.000736894 0.00141488 -6.72408e-19)
(-8.07892e-05 3.41217e-05 -1.7131e-19)
(0.147401 0.133426 -2.2119e-18)
(-0.000238103 0.000103879 6.02225e-21)
(0.0387616 0.208361 -2.35188e-17)
(0.0282513 -0.0469137 9.8012e-18)
(8.14556e-05 0.000145012 -2.68237e-20)
(0.00382297 -0.0975018 7.69457e-18)
(0.00294508 -0.001021 3.48373e-19)
(0.000873131 0.000368351 -3.68915e-19)
(-0.0537232 -0.248901 -1.17214e-18)
(0.00363365 0.030384 2.32299e-21)
(0.014232 0.0271405 -5.92412e-19)
(0.0981467 -0.0449052 -1.23086e-18)
(0.0014298 -0.000397706 1.43922e-18)
(0.0307579 -0.039516 -1.30798e-18)
(-4.35654e-05 6.26487e-05 -5.52898e-20)
(0.15118 -0.0723748 -6.42012e-18)
(-0.153352 -0.210956 -1.6294e-17)
(-0.00857561 0.0131799 4.51026e-19)
(-0.000943276 0.000655755 -1.1474e-20)
(-0.0107393 0.257267 2.02683e-17)
(-0.00130323 0.00134011 -1.3151e-18)
(-0.0145673 -0.0353504 5.65053e-20)
(-0.0630805 -0.0362915 -3.31608e-20)
(-0.23543 0.434435 1.15351e-18)
(-0.000121759 -0.000130462 2.00641e-18)
(0.00373163 0.0216295 4.6794e-18)
(-4.73367e-05 5.51483e-06 -5.6919e-21)
(-0.0139674 0.00973505 2.31662e-18)
(-0.0392497 0.021269 1.27364e-18)
(-1.14562e-05 9.52303e-06 -3.29812e-19)
(-0.00101793 0.00724134 -3.0605e-18)
(-0.125294 -0.03371 3.81362e-18)
(0.0382435 -0.0360618 -6.14489e-19)
(-0.00052522 -0.00589643 5.4935e-19)
(-0.00156856 -0.00101955 -3.44987e-20)
(-2.44661e-05 -6.14134e-05 -1.94285e-19)
(0.00028843 0.000214884 1.24192e-18)
(-0.00293717 -0.00167855 5.72322e-19)
(-0.0134652 0.00712784 7.25849e-19)
(0.0307446 -0.0345304 1.84764e-18)
(-0.000161167 -1.65252e-05 -4.86707e-21)
(0.168721 0.0987443 -6.94393e-18)
(0.000627703 -0.00374761 -9.37388e-19)
(0.000282296 0.000182194 8.53628e-20)
(-0.00318772 0.000777042 -3.25e-18)
(-2.03009e-05 2.29049e-05 -6.58273e-19)
(-0.015192 -0.00518504 9.52753e-21)
(-4.79433e-05 3.20206e-05 -1.21665e-18)
(-2.72147e-05 0.000103385 9.01073e-20)
(-0.291553 0.273618 1.64283e-18)
(-1.74588e-05 4.16391e-05 1.1622e-19)
(-0.00169927 0.0014561 -2.34305e-19)
(0.0549186 0.06001 1.56738e-18)
(-0.0229333 -0.00999075 -4.64899e-18)
(-0.0181182 -0.0156927 -1.26341e-17)
(-9.62847e-05 -8.5281e-05 -1.0692e-18)
(0.000165766 0.000221692 -1.64568e-19)
(0.0151333 0.022848 1.72087e-18)
(2.7919e-05 0.000166541 3.80464e-20)
(-0.0300642 -0.142154 -4.72388e-18)
(-0.00165512 0.000704718 -5.60414e-18)
(-0.000991095 -0.0023774 -7.84602e-21)
(5.5421e-05 0.00054154 3.87136e-19)
(0.000267659 8.27407e-05 -4.34506e-19)
(-2.89888e-05 -6.33028e-05 -1.93135e-20)
(0.242449 0.0013541 1.22096e-18)
(-2.00174e-05 1.9293e-05 7.9339e-19)
(0.122531 0.103366 2.04841e-18)
(-0.100874 0.0366042 1.94882e-18)
(-0.000502071 -4.85432e-05 -3.42464e-18)
(0.00140276 -0.182359 -7.42042e-19)
(-3.01835e-05 1.27606e-05 -4.5448e-19)
(0.0063088 0.00675458 7.61912e-19)
(-0.000530919 -0.00541886 1.53426e-19)
(-0.0846267 0.424846 -2.1581e-18)
(-0.00164231 0.000432412 3.72781e-18)
(-0.0513141 0.0662256 -1.39395e-18)
(0.00467186 0.155843 -7.19195e-19)
(-1.84174e-05 -3.96645e-07 -4.61912e-20)
(0.0597892 0.0446451 -1.21948e-18)
(-5.44657e-06 1.69738e-07 -1.17373e-20)
(-0.0728318 -0.0350722 8.86576e-20)
(6.26027e-05 0.000198932 -2.36147e-20)
(2.48546e-05 0.000145291 9.48909e-20)
(0.0159115 -0.190166 -1.5515e-18)
(0.0413302 0.0988563 -7.8864e-20)
(-4.71692e-05 1.11515e-05 6.81857e-19)
(-0.0003564 -0.000119232 1.45484e-20)
(0.00128823 0.000196002 1.68023e-18)
(-3.40741e-05 -7.46763e-05 -3.11366e-19)
(-9.68618e-05 -7.36244e-05 6.45451e-19)
(-0.0263858 0.15368 8.02213e-19)
(-0.0625367 -0.206032 4.66463e-18)
(-0.000536248 7.98852e-05 8.24968e-19)
(-3.72619e-05 -6.97037e-05 -6.39616e-20)
(-5.67147e-06 7.54864e-06 -4.33689e-19)
(-0.237727 0.534675 -1.15685e-17)
(0.0601828 0.0041151 -2.07419e-19)
(0.0238207 -0.00101448 1.06378e-19)
(-4.03465e-05 8.06741e-05 1.38545e-19)
(-0.0112118 0.0136364 -7.72287e-20)
(3.31965e-05 0.000147186 -2.4177e-18)
(0.000215091 0.000234144 7.24581e-20)
(-0.00485122 0.00070105 -9.26352e-19)
(0.0390554 0.106242 3.88425e-18)
(-8.05712e-05 -2.9081e-05 -6.1201e-19)
(-0.0144005 0.00729051 -2.16331e-18)
(-0.134342 0.065375 2.78266e-19)
(-0.00110663 -0.00194899 -1.02335e-19)
(0.0165912 0.0238047 -3.12616e-20)
(-0.000101211 3.8099e-05 2.64238e-18)
(0.00500173 0.003838 -9.95349e-19)
(-8.15496e-05 -2.56012e-05 -1.03609e-20)
(-0.000427881 0.000130603 5.21952e-19)
(-0.00255182 0.00209985 -5.85407e-18)
(0.000336674 0.000168886 -1.88422e-19)
(-0.0169816 0.0183733 -2.77073e-18)
(-6.7162e-05 -5.12695e-05 -1.61668e-18)
(0.105364 -0.153585 1.11874e-19)
(-4.19735e-05 -6.9208e-06 -1.75469e-19)
(-0.00173282 0.000828659 3.5231e-18)
(-0.0322742 0.0221017 4.4481e-18)
(0.0411051 -0.0249642 -9.22632e-19)
(-0.0128686 0.0106171 -1.41106e-18)
(-3.34024e-05 -8.13939e-06 1.52849e-19)
(0.000241645 6.45803e-05 4.90595e-19)
(-0.0101971 0.19151 -3.84136e-18)
(-0.0119054 0.0173317 -3.35911e-20)
(-0.0110585 -0.0324679 1.22915e-18)
(-3.18177e-05 -4.80888e-05 -9.04802e-20)