/*--------------------------------*- C++ -*----------------------------------*\
| =========                 |                                                 |
| \\      /  F ield         | OpenFOAM: The Open Source CFD Toolbox           |
|  \\    /   O peration     | Version:  v2012                                 |
|   \\  /    A nd           | Website:  www.openfoam.com                      |
|    \\/     M anipulation  |                                                 |
\*---------------------------------------------------------------------------*/
FoamFile
{
    version     2.0;
    format      ascii;
    class       volScalarField;
    location    "950";
    object      nut;
}
// * * * * * * * * * * * * * * * * * * * * * * * * * * * * * * * * * * * * * //

dimensions      [0 2 -1 0 0 0 0];


internalField   nonuniform List<scalar> 
18758
(
0.00666496
0.0126942
0.00684569
0.00673164
0.00609528
0.00681977
0.00673959
0.00436094
0.00639097
0.00643086
0.00927038
0.0141472
0.00366962
0.0039781
0.006736
0.00670929
0.0140473
0.00668565
0.00673272
0.00481576
0.00805571
0.000719049
0.00683014
0.00680929
0.000304397
0.0059961
0.00222778
0.00076515
0.00128733
0.0156493
0.0115087
0.00351835
0.00463916
0.00649436
0.00561776
0.0157323
0.00337369
0.00633826
0.00957985
0.00677507
0.017653
0.00591653
0.0120344
0.00678544
0.00676648
0.011125
0.00638923
0.00116212
0.0138816
0.00654238
0.0103651
0.0178481
0.00659513
0.00653579
0.000531298
0.00366402
0.00679743
0.0056718
0.00128759
0.0067958
0.00679106
0.00679323
0.00257108
0.00476628
0.00680103
0.0101614
0.00684344
0.00671185
0.000831121
0.00668911
0.0167103
0.0128465
0.00674465
0.00237845
0.00152037
0.00948431
0.00355897
0.0124367
0.00636652
0.010901
0.00110509
0.0100555
0.0132147
0.00124495
0.00674892
0.000624357
0.00266952
0.0022457
0.00255309
0.000631626
0.00991265
0.00685608
0.0022684
0.0138104
0.00674239
0.00670277
0.00673095
0.00383751
0.0121755
0.00675029
0.00879774
0.00241211
0.00671059
0.00670239
0.0105951
0.00789784
0.00112061
0.0110217
0.00270997
0.00497615
0.00670961
0.00697591
0.00656125
0.00684432
0.0022522
0.00106783
0.00377361
0.00677926
0.00221588
0.00672215
0.00681616
0.00346865
0.00674302
0.00674355
0.009112
0.00653038
0.00680313
0.00674362
0.000566326
0.00715397
0.0013254
0.00687824
0.00205617
0.0139922
0.0067773
0.00682997
0.00601128
0.00673471
0.000622061
0.00117253
0.00651363
0.015352
0.00440867
0.00288661
0.00876583
0.00268901
0.011715
0.000628042
0.0102463
0.0196177
0.00599162
0.0120721
0.00678503
0.00588967
0.0174479
0.00184126
0.00223991
0.000510772
0.00131511
0.012106
0.00677194
0.00677494
0.0126071
0.0124309
0.00995023
0.006797
0.00677248
0.0108215
0.00737438
0.0149581
0.0124937
0.00683097
0.000985691
0.0183176
0.00247127
0.00676699
0.00673901
0.000477737
0.00491339
0.00470493
0.00668875
0.00654366
0.000552743
0.00372024
0.0189545
0.00672559
0.0157632
0.00234092
0.0139043
0.00331645
0.012205
0.00672541
0.000913126
0.00719116
0.00667691
0.00417157
0.000712275
0.00677959
0.0140418
0.0068214
0.00678393
0.000628886
0.00241423
0.00670752
0.00671049
0.0129079
0.00680294
0.00566336
0.00630309
0.01109
0.00683138
0.00190817
0.00678339
0.0067368
0.00668556
0.00673532
0.0067512
0.00198878
0.00678561
0.0171399
0.00808249
0.00679753
0.00449148
0.000600245
0.00240815
0.0152102
0.00160465
0.000601031
0.00701029
0.00679854
0.00682238
0.00343905
0.00236523
0.00685913
0.00670706
0.00679757
0.00138154
0.0135578
0.000931898
0.00681107
0.00671257
0.00129797
0.000590463
0.00683465
0.0197291
0.00186911
0.00670695
0.00670238
0.00680076
0.00675312
0.012584
0.00678929
0.0196082
0.00679698
0.00687137
0.00193412
0.00679368
0.0150224
0.00672145
0.0100348
0.00653968
0.00675165
0.00670729
0.000849867
0.00183029
0.00186548
0.00675455
0.000619788
0.00678624
0.00682545
0.00154361
0.0182737
0.00682533
0.00678446
0.00681548
0.00670347
0.00280516
0.00677076
0.00672125
0.00416297
0.00670192
0.00687311
0.00671161
0.0131723
0.00673696
0.00678011
0.00667138
0.000596307
0.0067045
0.00670298
0.0068321
0.00471415
0.00679861
0.0068247
0.00684267
0.0067901
0.0154724
0.00689443
0.00682575
0.00711036
0.00311963
0.00681013
0.00680564
0.00265311
0.00580449
0.00668787
0.00467532
0.00833658
0.00678862
0.00375361
0.00671205
0.00186454
0.000696508
0.00077485
0.00154847
0.00556937
0.00670516
0.00277535
0.000702499
0.00683993
0.000788338
0.00127289
0.0189844
0.00671213
0.00670626
0.00863427
0.0138031
0.0067356
0.0104284
0.00120688
0.00652255
0.0150285
0.00671055
0.00679722
0.00671596
0.00683479
0.00679187
0.00677504
0.0040162
0.00680867
0.00679867
0.00652427
0.00386234
0.00344894
0.00673572
0.001647
0.0108164
0.00673068
0.00311549
0.0062122
0.000641602
0.0139195
0.000812365
0.00672464
0.012289
0.0113406
0.00232584
0.00680995
0.00657005
0.00673658
0.00679091
0.000877815
0.00489438
0.0125839
0.00184031
0.00528192
0.00670737
0.00260086
0.00651272
0.00290922
0.0137434
0.00122916
0.00198522
0.0013501
0.0176817
0.000820415
0.00686182
0.00797868
0.000552874
0.00708252
0.0125464
0.006768
0.00681205
0.000565421
0.0135672
0.0145323
0.0018059
0.0100417
0.00623537
0.0148856
0.00657631
0.0067099
0.00402649
0.00669549
0.00678347
0.00683551
0.00672943
0.0067319
0.00688795
0.00683979
0.00679035
0.00157234
0.00976271
0.00273417
0.0143495
0.0136138
0.00521193
0.00970915
0.000597441
0.00680665
0.00681746
0.0131327
0.00438957
0.00680901
0.00428943
0.00298282
0.0115412
0.00679436
0.0030597
0.00676149
0.00320303
0.0066821
0.0133477
0.00184454
0.0150555
0.00683123
0.0143052
0.00185591
0.006741
0.00679102
0.00683616
0.00177803
0.00684461
0.00681583
0.00701224
0.00230351
0.00680543
0.00673672
0.0046026
0.00304135
0.011778
0.00598205
0.00685404
0.00771547
0.00668125
0.00675831
0.000672735
0.00671318
0.0126277
0.00683103
0.00290273
0.00684043
0.000969683
0.00688052
0.00673127
0.0128027
0.00615564
0.00667313
0.00294301
0.00668858
0.00670767
0.00682529
0.00683051
0.00185925
0.00659531
0.00680966
0.00218547
0.00463677
0.000618302
0.0121812
0.00166946
0.0120291
0.00677104
0.000659291
0.00121787
0.00175421
0.0046972
0.0173304
0.00550502
0.00654281
0.0067846
0.00674117
0.00670673
0.00671286
0.00670695
0.00671278
0.00425461
0.00684786
0.00667629
0.0016158
0.00686712
0.00683819
0.00676918
0.00671253
0.00572734
0.00886214
0.00680513
0.00958249
0.00685252
0.00269294
0.00056489
0.0064724
0.00124298
0.00672679
0.00672471
0.00669929
0.0126279
0.00596086
0.00679498
0.00933181
0.0123973
0.00667159
0.00683937
0.0140473
0.0065679
0.00109264
0.00620894
0.00679572
0.00212708
0.00670481
0.00675463
0.0068548
0.00684722
0.00679419
0.0067944
0.0106934
0.00667794
0.0106325
0.00409272
0.00667366
0.00667841
0.00683993
0.00297258
0.00300645
0.00736639
0.00675047
0.00137619
0.00187547
0.00181082
0.00680247
0.00679579
0.00679707
0.00681376
0.00681189
0.0071166
0.0189013
0.00669988
0.00678903
0.00486658
0.00900659
0.0066848
0.00674245
0.00671935
0.00667618
0.00677178
0.00679916
0.00674257
0.00670862
0.00112746
0.00674725
0.0067873
0.00119058
0.00639794
0.00659839
0.00679931
0.00676192
0.00683476
0.0067274
0.00671616
0.00659027
0.00880473
0.00481175
0.00411836
0.00675947
0.00320293
0.00679741
0.00682577
0.00391224
0.00668815
0.00684016
0.00395339
0.00684362
0.00399567
0.00189702
0.00681616
0.00672683
0.0139995
0.00677785
0.00443239
0.00529118
0.00682953
0.00684277
0.00131724
0.00415406
0.00292316
0.00676193
0.0104777
0.00405315
0.0116733
0.00670699
0.00625588
0.0066739
0.00684176
0.0067421
0.00655172
0.00427805
0.00111038
0.00679741
0.00371408
0.00673057
0.00523338
0.00635386
0.00670663
0.00424327
0.00304076
0.0132666
0.00218665
0.00630997
0.00673141
0.00659585
0.00225595
0.00682045
0.00673392
0.00668535
0.00672093
0.00241255
0.0037043
0.0194663
0.00448509
0.00641786
0.00663529
0.00674585
0.00669794
0.011276
0.000664556
0.0067754
0.0044547
0.0117993
0.00701129
0.00683968
0.00683914
0.00126689
0.0136594
0.00667346
0.00595095
0.00679092
0.00688263
0.00280525
0.00675304
0.0068109
0.00678152
0.00670366
0.00677592
0.00401186
0.00368692
0.0152892
0.00674108
0.00677719
0.00110398
0.00674734
0.00196412
0.0117487
0.00679533
0.00483269
0.00675475
0.00679462
0.00545783
0.0166618
0.0160796
0.00183456
0.00453844
0.00345552
0.00667794
0.00565422
0.00571472
0.00262685
0.00679545
0.0147649
0.00340851
0.00175967
0.0095064
0.0110476
0.00677405
0.00940461
0.00682062
0.00432951
0.00111629
0.00678977
0.00266579
0.00325529
0.00431474
0.00271897
0.00673229
0.00667675
0.00680993
0.00685321
0.00240318
0.00162104
0.0067908
0.00111167
0.00665621
0.00682656
0.00272863
0.0066754
0.00382922
0.00671188
0.00672246
0.0192627
0.00669824
0.00671357
0.01048
0.00163471
0.0012207
0.00672408
0.00682291
0.00101831
0.00681687
0.0141909
0.00314767
0.00584331
0.00480246
0.00682437
0.0066749
0.0100592
0.00667568
0.000828799
0.000647865
0.00468066
0.0142287
0.00681491
0.00655897
0.00325558
0.0132104
0.00309343
0.0105143
0.01569
0.00684313
0.0100024
0.00668866
0.0120958
0.00681879
0.00681568
0.018061
0.0117859
0.00671111
0.00681869
0.00443263
0.00672003
0.00672295
0.017109
0.00983923
0.00679689
0.00671734
0.00668961
0.011142
0.00120106
0.00620715
0.00670394
0.00427679
0.00681666
0.00682427
0.00270551
0.0132659
0.00670617
0.00437137
0.0152331
0.00682599
0.0055591
0.00674257
0.00216106
0.00670632
0.00678497
0.00288362
0.00682678
0.00231429
0.00671226
0.0141866
0.00680954
0.00307313
0.00129359
0.0041953
0.00404213
0.00682128
0.00682273
0.0174784
0.00441092
0.00156803
0.00670401
0.00675348
0.00249959
0.0107498
0.0118003
0.00679762
0.00671275
0.00680462
0.00681586
0.00677214
0.00673318
0.00683051
0.0118511
0.00671277
0.00672866
0.0167223
0.00670754
0.00248329
0.000886059
0.00460223
0.0180754
0.0162008
0.00975105
0.00673151
0.006756
0.00668931
0.00679744
0.00670847
0.00675923
0.00679142
0.00681311
0.0056988
0.000614336
0.0134981
0.00684804
0.00674227
0.00175772
0.00168242
0.000932454
0.00684227
0.00672929
0.00678371
0.0120743
0.0119414
0.00620235
0.00685363
0.000992831
0.000612955
0.00537568
0.010844
0.0117857
0.00676838
0.00697764
0.00678887
0.00620307
0.00681279
0.00668659
0.000882489
0.00768163
0.00672293
0.0197385
0.010271
0.00671182
0.00673323
0.00671137
0.0068056
0.00674035
0.00670566
0.00240184
0.00674923
0.00681381
0.00396247
0.0117207
0.00673185
0.0171774
0.000484962
0.00678257
0.00679969
0.00679724
0.00680493
0.0067083
0.00678313
0.006826
0.00681489
0.00672765
0.00680853
0.0183611
0.00242991
0.00683108
0.00680738
0.00902974
0.00677858
0.00668809
0.0174222
0.00670788
0.00242454
0.00268175
0.00672743
0.00670486
0.00672747
0.00452089
0.0029265
0.00683341
0.0164082
0.000863009
0.000654452
0.00882606
0.00680927
0.00381752
0.00667821
0.0120127
0.0046071
0.00679136
0.000500538
0.00216132
0.00682067
0.000956662
0.0111504
0.00679647
0.00280594
0.00669093
0.00681429
0.00250412
0.00675616
0.00677555
0.00561083
0.00670802
0.00678546
0.0139988
0.00680726
0.00670944
0.00670582
0.0182035
0.00680808
0.00679172
0.00229131
0.00233074
0.0151568
0.0012879
0.00935689
0.006759
0.00667535
0.00672797
0.0110831
0.00685414
0.00674514
0.00357247
0.00677781
0.0136019
0.00681542
0.00678141
0.0116173
0.00672854
0.0015865
0.00815786
0.00667524
0.00674769
0.00291857
0.00671264
0.00451847
0.00867919
0.00669667
0.00674589
0.00407601
0.00670363
0.00356751
0.0146478
0.00676718
0.0098666
0.0067116
0.00679988
0.00673756
0.00165759
0.00674651
0.00847234
0.00687006
0.00671175
0.00603322
0.0155155
0.0027377
0.00651906
0.00576921
0.0124628
0.0021374
0.00667342
0.012365
0.00686357
0.012197
0.00453323
0.00679775
0.00668909
0.0068165
0.0135545
0.00672649
0.0139347
0.00680715
0.0121358
0.000601495
0.00678495
0.00668155
0.00672981
0.00176062
0.0142251
0.00679486
0.0156379
0.00679949
0.00670681
0.0094833
0.00672519
0.000382373
0.00672696
0.00349554
0.00671015
0.00672944
0.00671212
0.0067287
0.000888782
0.00644151
0.00152505
0.00210254
0.00681546
0.00672459
0.0136315
0.00671119
0.00871352
0.00675526
0.013773
0.00265889
0.0144266
0.00679345
0.00679625
0.00670749
0.0138676
0.00685503
0.0129703
0.0013238
0.00671232
0.00267206
0.00671058
0.00669816
0.00666478
0.00678626
0.0135105
0.0067979
0.00675463
0.00678277
0.00386407
0.0142428
0.0160502
0.00682006
0.00670438
0.00681029
0.00682019
0.00672392
0.0068888
0.00681112
0.00672873
0.00677211
0.00679017
0.000474976
0.00115167
0.00683819
0.00677517
0.00163278
0.00677746
0.000594032
0.0118597
0.00681646
0.01293
0.00687331
0.00679443
0.0068026
0.00409198
0.00645331
0.00678328
0.00258424
0.0141391
0.0072344
0.00166391
0.00992968
0.00676325
0.0025148
0.00678619
0.00674521
0.0144552
0.00677658
0.00684096
0.00267452
0.0052671
0.00683433
0.00678086
0.0116135
0.00308484
0.00680078
0.00683582
0.00348953
0.00717752
0.00674793
0.00310791
0.00678833
0.00263598
0.00679034
0.00681531
0.00682218
0.0102325
0.00617544
0.00672368
0.0157974
0.0066839
0.00682169
0.00683414
0.00525679
0.00682451
0.00473745
0.000640288
0.015017
0.0151436
0.0130079
0.014113
0.00679852
0.00809359
0.0156711
0.00681285
0.00498471
0.00682961
0.00674697
0.00501936
0.00678095
0.00159388
0.00123907
0.0068552
0.00668711
0.00150295
0.00679626
0.0132259
0.00681137
0.00680516
0.00674558
0.00128551
0.00666984
0.00236099
0.0148713
0.0067447
0.00674745
0.000794743
0.00657124
0.0067364
0.00112569
0.00681358
0.00671425
0.0130386
0.000848018
0.00296049
0.00683151
0.00683791
0.00681802
0.00672241
0.0154124
0.000904851
0.0130846
0.00785201
0.0199034
0.00681828
0.012567
0.00897378
0.0106615
0.000667182
0.00133025
0.00638053
0.0095219
0.000618014
0.00242835
0.00668363
0.0067391
0.00682191
0.00137553
0.00670499
0.00683005
0.0056055
0.0142411
0.000236438
0.017658
0.00151551
0.0139423
0.00657961
0.00667409
0.00672281
0.00964144
0.00127992
0.00683744
0.00209519
0.0128001
0.0126236
0.0114703
0.00148245
0.00110459
0.00667511
0.00432755
0.00680508
0.0148855
0.00937461
0.00270857
0.000572989
0.000622731
0.00674455
0.00674632
0.00889751
0.00795862
0.000497155
0.00681764
0.0067957
0.0066436
0.0140828
0.00684548
0.0189218
0.00681785
0.0133756
0.00739966
0.00326781
0.00565311
0.00145921
0.00623697
0.00667571
0.00236017
0.00687751
0.00248595
0.00670879
0.00566191
0.00959382
0.00673753
0.0067098
0.0188891
0.00683042
0.00679963
0.0162606
0.00596801
0.00680242
0.00284548
0.0180545
0.00261944
0.00465097
0.00465757
0.0143285
0.00318925
0.00676547
0.0067375
0.005565
0.0067042
0.013469
0.00669933
0.00670408
0.015329
0.00677722
0.00674837
0.00509187
0.00667448
0.00359984
0.00672715
0.00675618
0.00673538
0.00107038
0.00679559
0.0186095
0.000516809
0.0144515
0.0130543
0.00313524
0.00669863
0.00670337
0.00631523
0.00287384
0.00679785
0.0196851
0.00162771
0.00107785
0.00678782
0.00669467
0.00669557
0.00677972
0.00681127
0.00673859
0.00678595
0.00674153
0.00672321
0.00768529
0.00741678
0.0174097
0.00680411
0.0067307
0.00697292
0.00709597
0.0115936
0.0100011
0.0155969
0.0134962
0.00127493
0.00998547
0.00676285
0.00228086
0.00306084
0.0113899
0.00673175
0.00355863
0.00776709
0.00063719
0.00673548
0.00910947
0.00673397
0.00671187
0.00686606
0.00280995
0.00679075
0.0157442
0.00676936
0.00669395
0.00678783
0.00669104
0.00619399
0.00672105
0.00926221
0.00102424
0.00651683
0.00681032
0.0067355
0.00673231
0.0079616
0.00248329
0.00683814
0.00682344
0.00689063
0.00668943
0.00672638
0.00669328
0.00681119
0.00673317
0.00683183
0.00672501
0.00959489
0.00357975
0.000975501
0.00338429
0.00679315
0.000458377
0.00678424
0.000393355
0.00679509
0.00398807
0.00681998
0.00734334
0.00227901
0.000881328
0.00704852
0.00675791
0.00152527
0.00684703
0.00672459
0.00676075
0.00671046
0.002272
0.0013094
0.00325989
0.00203485
0.00675557
0.00679191
0.00155386
0.00449511
0.00667336
0.00450751
0.00239253
0.000696226
0.00309949
0.00683231
0.00681104
0.0109432
0.00630516
0.00670546
0.00673972
0.000646521
0.00669542
0.00670497
0.0195222
0.00143846
0.00672119
0.0067844
0.00681483
0.0138291
0.00307853
0.00483298
0.0113795
0.00672541
0.00675014
0.003623
0.00150375
0.00684963
0.00473424
0.00674355
0.00695738
0.00670445
0.0061078
0.000812426
0.00119799
0.00493135
0.0151253
0.00302976
0.014405
0.00356496
0.00680181
0.00941156
0.0134698
0.00682321
0.00897747
0.00682002
0.000599125
0.000896417
0.00257918
0.00679054
0.00626706
0.00181686
0.0192769
0.00673833
0.00668922
0.0122424
0.00669211
0.00673128
0.00671255
0.00682296
0.00677006
0.00681234
0.00673431
0.00673033
0.0137044
0.00319324
0.00675872
0.00676943
0.00369999
0.0168298
0.00667464
0.000950683
0.00373957
0.00337057
0.0068159
0.00671247
0.00810807
0.00682105
0.000956972
0.000798879
0.00670857
0.00685118
0.0136735
0.00682834
0.014796
0.00451929
0.00874111
0.0068143
0.00682104
0.00672722
0.00682961
0.00671278
0.0172767
0.00646394
0.00678372
0.00789787
0.000571241
0.00683711
0.00678512
0.00670936
0.0112623
0.00766455
0.00663985
0.00645295
0.0038507
0.0142628
0.0170151
0.00675877
0.00676179
0.00295895
0.00301732
0.00867683
0.0199521
0.00678303
0.00655952
0.0169607
0.00686647
0.00670509
0.00678256
0.00665579
0.00674806
0.00680643
0.00670587
0.00625912
0.00750975
0.00678255
0.00681304
0.00226309
0.00670789
0.00676426
0.0068001
0.0118762
0.00669766
0.00680061
0.00622192
0.000680866
0.00187252
0.00138202
0.00680359
0.00686065
0.00674282
0.00673465
0.00670886
0.00680328
0.00614414
0.006925
0.00546479
0.00718373
0.00678101
0.00353355
0.00399919
0.00677417
0.0152659
0.00677077
0.0039237
0.000619253
0.0181487
0.00656817
0.00343604
0.00301275
0.00639095
0.00669344
0.0159804
0.00455621
0.00669917
0.000996065
0.0146081
0.00679478
0.00497662
0.0120891
0.00110452
0.00681327
0.0130366
0.00275614
0.00672557
0.00682364
0.000530086
0.00959816
0.00678191
0.00507641
0.00163651
0.00673256
0.00102457
0.00209311
0.00680808
0.00531475
0.0180394
0.0129209
0.00391329
0.00651673
0.00669734
0.00973934
0.0175743
0.000784924
0.00690961
0.00679934
0.00377057
0.00680395
0.00674608
0.0026625
0.00680226
0.0045175
0.0134721
0.00680602
0.0157796
0.00895477
0.0106126
0.00254307
0.000933548
0.00667306
0.00680632
0.00356604
0.00667282
0.00184166
0.011081
0.0138903
0.0073365
0.00136425
0.0126922
0.018253
0.00679841
0.00680636
0.0124731
0.00151874
0.00680869
0.00673025
0.00374669
0.00701316
0.00231866
0.00672454
0.00680249
0.00670356
0.00674096
0.0015486
0.0156575
0.006765
0.013472
0.00678358
0.00120018
0.00210111
0.0199339
0.00673187
0.00896863
0.00680634
0.00676952
0.005379
0.0101617
0.00135188
0.00155748
0.00683529
0.00674335
0.00263862
0.0086071
0.00680483
0.000580616
0.00573013
0.00321675
0.00263232
0.00672458
0.00681206
0.014595
0.00667318
0.00679376
0.00305757
0.00677996
0.00684293
0.00672279
0.00672575
0.00314044
0.00671133
0.00175027
0.00635033
0.00678858
0.0135515
0.0117132
0.00320992
0.00668758
0.00672391
0.00707227
0.00672694
0.00672069
0.00677959
0.000762791
0.00679706
0.00687268
0.00444728
0.00509891
0.0125944
0.00674079
0.00729622
0.00637281
0.00225631
0.00243525
0.00492089
0.00679163
0.00673376
0.00614184
0.00652166
0.0068837
0.00398609
0.00184256
0.00672118
0.00216432
0.00679665
0.000926395
0.00264587
0.00363666
0.0140892
0.00671058
0.00670743
0.00465469
0.00669561
0.00471254
0.00745841
0.00814561
0.00118695
0.00679591
0.00462399
0.00673999
0.00504869
0.000675383
0.0128832
0.00674048
0.00679038
0.00147317
0.00682135
0.00732724
0.00679731
0.0136847
0.00940172
0.00246662
0.0149766
0.0112767
0.00677198
0.00673761
0.00675375
0.00599717
0.0150528
0.00682042
0.00685972
0.00681634
0.00668826
0.00708332
0.00677835
0.00670404
0.00314428
0.00681771
0.00670198
0.0065705
0.0189062
0.0122076
0.00983456
0.00677739
0.0033941
0.00685303
0.00270155
0.000693766
0.00402922
0.0105159
0.00679718
0.00400295
0.00667604
0.00260059
0.00744501
0.00157492
0.00800212
0.00685239
0.00084911
0.00677403
0.015724
0.0142493
0.00670625
0.00511881
0.00686715
0.00687541
0.00609624
0.00678022
0.00677573
0.00521491
0.00682087
0.00680127
0.00496977
0.00672438
0.00681775
0.00672019
0.00671287
0.0050244
0.00977788
0.0157058
0.00674754
0.00669062
0.00671349
0.0067502
0.00668659
0.00171395
0.00668803
0.00669972
0.00672394
0.00670612
0.00275327
0.00670989
0.0018292
0.0126916
0.00448384
0.0125746
0.0067891
0.00918803
0.00710171
0.000440672
0.00679554
0.00475245
0.0068156
0.00675776
0.00679965
0.00326093
0.000634921
0.00671208
0.00559752
0.0033396
0.00674281
0.00632759
0.0111814
0.00165235
0.00673423
0.00667816
0.00239629
0.00703663
0.0119893
0.00671394
0.00676352
0.00677073
0.00676713
0.00427702
0.014881
0.00171726
0.0067192
0.002658
0.00653499
0.00737874
0.00670786
0.00343593
0.0128163
0.006802
0.00670728
0.00194042
0.00121145
0.00676601
0.0067931
0.00674917
0.00155382
0.00678286
0.00948981
0.00680384
0.00261214
0.00222613
0.0139407
0.0067203
0.0067038
0.00667878
0.00210775
0.00668742
0.0194948
0.00522005
0.00168838
0.0140396
0.00671913
0.00247228
0.00679818
0.00669595
0.00639418
0.00109974
0.000790848
0.0197568
0.0126879
0.00103101
0.00641927
0.0027008
0.00678345
0.0100273
0.00678406
0.00693327
0.00140387
0.0068155
0.0127387
0.0192729
0.0185304
0.0146623
0.019488
0.0012349
0.00811877
0.00129116
0.00680254
0.00689714
0.00676525
0.00672279
0.00673033
0.016741
0.0172914
0.0126851
0.0026392
0.00340871
0.0131519
0.00671347
0.00636756
0.00669482
0.00146004
0.00670879
0.00667931
0.00679068
0.00454622
0.00193746
0.00200723
0.00241286
0.00673927
0.00686102
0.00990672
0.00677062
0.0014131
0.00219697
0.00667304
0.00218182
0.00669479
0.00840889
0.00679194
0.000358024
0.0068117
0.00679267
0.00640367
0.00639519
0.00952967
0.00729607
0.0158152
0.00369354
0.00678603
0.00679544
0.00674362
0.00671711
0.00672624
0.00802117
0.013573
0.00651682
0.00680365
0.00641103
0.0066655
0.00677007
0.00682919
0.000743729
0.0127554
0.010699
0.00680888
0.0130951
0.00669874
0.00290018
0.00381742
0.00461366
0.00687311
0.0142548
0.01198
0.00667959
0.00677845
0.00670851
0.0067367
0.00676782
0.00672685
0.00747736
0.00680187
0.00678054
0.00681818
0.00145413
0.0067069
0.0063212
0.0129686
0.0175863
0.00680821
0.0133086
0.00671404
0.0117054
0.00182927
0.00676542
0.0183763
0.00303923
0.00261643
0.00678584
0.00690065
0.0027707
0.00133406
0.0005787
0.00773715
0.000709014
0.000578675
0.00419465
0.00533168
0.00678716
0.0061217
0.00355332
0.00441256
0.00679308
0.0163417
0.00948289
0.0168343
0.00540365
0.0153787
0.00338412
0.0068614
0.00674689
0.00505978
0.0021254
0.00671995
0.0129793
0.00552966
0.000589056
0.00670722
0.00642568
0.0111132
0.0152884
0.0114321
0.00297205
0.0069777
0.0202881
0.00995656
0.0068185
0.00156152
0.0120822
0.00238423
0.00185472
0.00264301
0.00226157
0.00145468
0.00673823
0.0199098
0.00396041
0.00676157
0.00711004
0.0157623
0.0162635
0.00677518
0.00056468
0.00667659
0.00670184
0.0015224
0.00685369
0.00042416
0.00680767
0.000727628
0.0104482
0.0064062
0.0153632
0.000700559
0.0112008
0.00311461
0.0066633
0.0117645
0.0158151
0.00407502
0.00680359
0.00675242
0.00639358
0.00674393
0.00671184
0.0128713
0.00673266
0.00671804
0.00157363
0.00679865
0.00668574
0.00637573
0.00515714
0.00149703
0.00684838
0.00678145
0.00273975
0.00677671
0.00672872
0.00671095
0.00669327
0.0114281
0.0029381
0.00268318
0.00260744
0.00676993
0.00667907
0.00500484
0.000683199
0.00451048
0.00711182
0.00681516
0.00162027
0.00671407
0.00231667
0.00718989
0.00183079
0.0072189
0.00311728
0.00677514
0.00184664
0.00886879
0.0178009
0.0136555
0.00291193
0.00678125
0.00669829
0.00305798
0.00195355
0.0143612
0.0067465
0.011992
0.00667924
0.00682789
0.000683701
0.00672679
0.00690872
0.000671145
0.00700484
0.00672729
0.00263552
0.00422776
0.0155043
0.00678091
0.00679231
0.00104158
0.00840245
0.00367176
0.00827054
0.000746997
0.00677275
0.000537352
0.0030041
0.00764483
0.0158958
0.00693481
0.0067299
0.00676148
0.00673158
0.016686
0.0157435
0.00307835
0.00478601
0.00674524
0.00673263
0.00678492
0.000641264
0.00679016
0.00695899
0.00671826
0.00681403
0.00155039
0.00158043
0.00671222
0.0130601
0.00680221
0.00683786
0.00409085
0.00670563
0.00895065
0.00372766
0.0102655
0.00129547
0.00679859
0.00311048
0.00675752
0.0124305
0.00645244
0.00679765
0.00570821
0.00526183
0.00667371
0.00404788
0.0124548
0.00669646
0.00761093
0.0123366
0.00286299
0.0066793
0.0032793
0.00646465
0.0145816
0.00669835
0.00268547
0.00675298
0.00124539
0.0118796
0.00672154
0.00675513
0.000625269
0.00247266
0.00673466
0.00679383
0.0067051
0.00187484
0.00347122
0.0113617
0.00683114
0.00684286
0.00680569
0.00555027
0.00684953
0.00671397
0.00361516
0.00966768
0.015394
0.0063923
0.00670957
0.0113636
0.00628577
0.00204943
0.0105557
0.000656778
0.0144877
0.00988589
0.00669417
0.00729039
0.00481932
0.00474245
0.00672491
0.00671744
0.00671877
0.0076302
0.0211915
0.00677259
0.0091732
0.00455957
0.0130264
0.00670899
0.00672893
0.000658501
0.00670666
0.00679915
0.00685789
0.00675012
0.00135608
0.00686945
0.0155671
0.0126494
0.00680024
0.00206038
0.00198485
0.0204361
0.00162589
0.00672101
0.0033448
0.00132452
0.00205693
0.00121069
0.00515151
0.0068178
0.00672119
0.0008029
0.00669719
0.0195449
0.00501208
0.00671455
0.0144291
0.00672518
0.010701
0.00680449
0.018689
0.00540231
0.0104503
0.00119831
0.0088944
0.00613908
0.00672982
0.00186835
0.0117979
0.00681621
0.0133204
0.00681711
0.00668058
0.00677858
0.00223006
0.00345485
0.0067723
0.00672769
0.00132845
0.00368038
0.00108962
0.00771672
0.00119502
0.00356391
0.00674806
0.000949537
0.00675347
0.000710028
0.00542935
0.00187571
0.0103365
0.00673764
0.00306466
0.00535101
0.00727254
0.00448468
0.00670649
0.00782288
0.00417326
0.012737
0.00698006
0.00676544
0.00204217
0.0018712
0.00678154
0.00669337
0.00674253
0.00583342
0.00319996
0.00674621
0.0135335
0.00679831
0.0123918
0.006726
0.00560902
0.00351019
0.0128556
0.00675249
0.000696741
0.00679131
0.00673241
0.000798614
0.00380627
0.00674453
0.00499171
0.00855658
0.0067733
0.00107349
0.00877867
0.00250259
0.00652664
0.00679333
0.00402993
0.00242039
0.0159387
0.00670801
0.00682194
0.0175762
0.00672481
0.019743
0.00336707
0.00179459
0.0116664
0.00552554
0.00672166
0.00515028
0.00672744
0.0103432
0.0111407
0.00672937
0.0136048
0.00719633
0.00158313
0.00679224
0.00536634
0.00929842
0.00227958
0.00283741
0.00674127
0.0106926
0.0066816
0.00716518
0.0067057
0.00679369
0.0034017
0.00677001
0.00670018
0.00203754
0.00363799
0.0067426
0.0202088
0.00674456
0.00111296
0.00274657
0.00929313
0.00644703
0.00679833
0.00155626
0.00672895
0.0067077
0.00342084
0.000431826
0.0118382
0.0187687
0.00177103
0.00669385
0.00679817
0.00680987
0.00671154
0.00670285
0.0189538
0.00671376
0.00665856
0.000508885
0.00678482
0.0047129
0.00674033
0.00669576
0.0136053
0.00193125
0.00677527
0.00219599
0.00686771
0.0016494
0.00672442
0.00517856
0.00581043
0.00680901
0.00983302
0.00126223
0.00484706
0.00554258
0.00184639
0.003659
0.00105413
0.000483739
0.0116566
0.00355459
0.00689544
0.00130371
0.00455196
0.00680545
0.00454731
0.00746291
0.0119875
0.00944272
0.00679404
0.00674886
0.00672158
0.0100588
0.00648899
0.00113687
0.00745691
0.00675146
0.0104563
0.00679402
0.00962685
0.00676503
0.00122182
0.000596407
0.00676593
0.00679882
0.00060959
0.00282336
0.00682036
0.00525658
0.000920793
0.00367498
0.00672447
0.00204793
0.00681882
0.00681652
0.00679866
0.0154104
0.00648671
0.0141963
0.00177596
0.00374217
0.0088024
0.00284053
0.000832131
0.00672797
0.00672078
0.013997
0.00905337
0.00591529
0.0068027
0.0040024
0.00745343
0.000821087
0.000684978
0.00892326
0.00559426
0.00627289
0.0066924
0.00398279
0.00679079
0.0021746
0.0125854
0.000712777
0.000657544
0.0068303
0.0142492
0.000812889
0.00945149
0.0057703
0.00673098
0.00671872
0.00676719
0.00846977
0.00669556
0.00936285
0.00165719
0.0118828
0.00670583
0.0119768
0.0145549
0.018803
0.0160127
0.00526133
0.00679543
0.00675007
0.00637273
0.00675168
0.00443306
0.0114818
0.00683626
0.00507625
0.00783454
0.018986
0.0181288
0.00258257
0.00154007
0.00672553
0.0129835
0.0067607
0.0148894
0.00302503
0.00657138
0.00176312
0.000711664
0.00843854
0.00671844
0.00671995
0.00652796
0.0127884
0.0038538
0.000543889
0.00220354
0.00679058
0.00175076
0.00671884
0.0043278
0.00671804
0.00391921
0.016546
0.00559052
0.000684974
0.00669461
0.0130385
0.0136759
0.00721702
0.00181067
0.0141032
0.00606303
0.00670438
0.0108052
0.0138225
0.0125937
0.00670455
0.00681813
0.00149857
0.00780795
0.00458588
0.00679623
0.00673117
0.00677582
0.00236345
0.00682057
0.0066993
0.00946349
0.00672693
0.0163559
0.00456858
0.0154387
0.00675709
0.00528727
0.0178521
0.000681057
8.76786e-05
0.00679057
0.00672027
0.000777765
0.00608211
0.00670384
0.0068189
0.0068059
0.0121037
0.00780412
0.00673144
0.00857066
0.00118208
0.00671803
0.0145511
0.00422886
0.000852908
0.0116772
0.0142384
0.00687869
0.00800225
0.00703671
0.00676957
0.00920925
0.0011214
0.0123126
0.0196518
0.00684462
0.0173646
0.00748419
0.0021688
0.0178337
0.0141164
0.00845909
0.00494793
0.0067187
0.0067219
0.0047324
0.0189817
0.00202224
0.0165594
0.00367022
0.00287122
0.00671675
0.00682883
0.0035852
0.0185729
0.00670841
0.0110111
0.020339
0.00669392
0.00492091
0.00862294
0.000997249
0.00192918
0.0133217
0.00672934
0.00832877
0.011669
0.0134199
0.00397754
0.00458458
0.00878747
0.00676917
0.00686722
0.00074851
0.00692111
0.00733158
0.000793061
0.00686387
0.000615822
0.00673775
0.00162873
0.00417444
0.0184766
0.00280307
0.0187659
0.00672283
0.00371175
0.0130438
0.00211375
0.00513689
0.00669523
0.00682101
0.0068618
0.0109891
0.00684979
0.00787427
0.00685085
0.0067415
0.0122784
0.00190877
0.00670236
0.00672088
0.0123993
0.01338
0.00673783
0.00678367
0.0067311
0.00256437
0.00112721
0.00148344
0.00669645
0.000799186
0.00680026
0.0115471
0.0098951
0.011144
0.00676367
0.00485421
0.00676971
0.0113932
0.00679431
0.00991019
0.000498313
0.000329636
0.0067848
0.00441442
0.00479031
0.000535461
0.00346276
0.014153
0.00671815
0.00207072
0.00687333
0.00116222
0.00100286
0.00637765
0.000586221
0.00689442
0.00682682
0.00649869
0.0118805
0.0067381
0.00630646
0.0162946
0.00180827
0.00670108
0.0186561
0.00525464
0.00349054
0.00458715
0.00676517
0.00679845
0.00297194
0.00115618
0.00125983
0.000763663
0.0067836
0.00673807
0.00731322
0.000451736
0.00671797
0.0147672
0.00540196
0.00687773
0.00615702
0.0148755
0.00675529
0.00919804
0.0083281
0.0136629
0.0104307
0.0067362
0.0161911
0.000564024
0.00675217
0.00701403
0.00578617
0.00927311
0.0173477
0.0069501
0.00673947
0.00262091
0.0127699
0.00690954
0.00518536
0.00670472
0.00678106
0.0141937
0.0137393
0.00404887
0.00616741
0.00220795
0.00672579