/*--------------------------------*- C++ -*----------------------------------*\
| =========                 |                                                 |
| \\      /  F ield         | OpenFOAM: The Open Source CFD Toolbox           |
|  \\    /   O peration     | Version:  v2012                                 |
|   \\  /    A nd           | Website:  www.openfoam.com                      |
|    \\/     M anipulation  |                                                 |
\*---------------------------------------------------------------------------*/
FoamFile
{
    version     2.0;
    format      ascii;
    class       surfaceScalarField;
    location    "950";
    object      phi;
}
// * * * * * * * * * * * * * * * * * * * * * * * * * * * * * * * * * * * * * //

dimensions      [0 3 -1 0 0 0 0];
oriented        oriented;


internalField   nonuniform List<scalar> 
27882
(
0.513272
-0.368839
-0.144433
0.500217
-0.253056
-0.247161
0.271668
-0.532636
0.260965
0.16087
0.352401
-0.227326
0.348334
-0.12101
-0.426084
-0.102132
0.528216
0.186015
0.187563
-0.373584
0.119561
-0.331328
0.211766
-0.340636
0.113309
0.25125
-0.374317
0.123066
0.367447
-0.552788
0.18534
0.554651
-0.198429
-0.356222
-0.381201
0.0898828
0.291317
0.333027
-0.166225
-0.166803
0.105579
-0.430766
0.325181
-0.428674
0.148336
0.280329
0.141566
0.413085
-0.313536
-0.168209
0.382129
-0.276557
0.175024
0.137341
-0.312366
-0.431661
0.222635
0.209025
0.0322419
-0.0957521
0.0635101
0.0868118
-0.512897
-0.33373
0.540253
-0.206524
0.0914539
-0.0592119
0.131408
-0.0573878
-0.0740199
-0.3345
0.105209
0.229291
0.264531
-0.161274
-0.103257
-0.183111
0.0275882
0.155522
0.48279
-0.391846
-0.0909447
-0.22352
0.171232
0.0522884
-0.144646
-0.189854
0.307643
-0.188084
0.0575929
-0.0955645
0.0379716
-0.171546
0.336828
-0.165282
0.265249
0.217541
-0.295643
-0.0855591
0.176786
0.0160104
0.207916
-0.223926
0.394621
-0.476516
0.0818956
0.504388
-0.295476
-0.208912
-0.189873
-0.163822
0.353693
0.514586
-0.219175
-0.295411
0.4692
-0.335752
-0.133449
0.520607
-0.361653
-0.158965
-0.188413
0.0177819
0.170631
-0.337604
0.14773
-0.195093
0.0373887
0.157705
-0.018267
0.0173799
0.00088714
0.510801
-0.36131
-0.149492
0.570841
-0.203395
-0.0138588
-0.021622
0.0354808
0.185736
0.325064
-0.39373
0.171528
0.222201
0.0621831
-0.118861
0.0566778
0.375898
-0.286016
0.484501
-0.46171
-0.0227929
-0.155371
0.330394
-0.193812
0.165065
0.0287468
0.365475
0.119025
0.489115
-0.0790012
-0.410123
0.334207
0.134991
0.141153
-0.240024
0.015299
-0.20131
0.186011
0.0242908
0.464814
0.0692609
-0.0542767
-0.0149842
-0.0181125
0.401802
-0.383697
0.625417
-0.298874
-0.326544
0.0698894
0.194642
-0.54489
0.231354
-0.0308569
0.0169981
0.0222446
0.0654896
-0.0877342
0.145323
-0.399079
0.253751
0.165956
-0.281844
0.115887
0.239262
-0.266099
0.0268362
-0.093105
-0.130415
-0.0155762
0.171295
-0.155719
-0.383136
-0.0416109
0.424747
-0.0893867
0.400538
0.114048
0.138644
-0.141035
0.00239157
-0.184333
0.200343
-0.358006
-0.0251309
-0.000732917
0.212559
-0.211826
-0.543519
0.26211
0.281407
-0.119223
0.0204349
0.0987879
0.196261
0.0549669
-0.135786
0.301742
-0.106466
0.247619
-0.12588
0.00665704
0.0223123
0.025552
-0.0478643
-0.349923
0.509064
-0.159154
0.140287
-0.153705
0.0134176
-0.017026
-0.00124099
-0.248539
0.393857
0.52303
-0.101509
-0.421525
-0.339539
-0.134582
0.47412
0.183071
-0.167134
-0.0159373
0.406358
-0.405091
-0.00126776
0.178179
-0.380406
0.202222
-0.0702326
-0.11818
0.321227
-0.222268
-0.098959
0.316138
0.309278
0.428451
0.0945736
0.0409084
0.0283525
-0.322294
-0.109367
-0.151476
-0.0436177
-0.0191673
0.0414797
-0.162013
0.243313
-0.0813001
0.445156
-0.26596
-0.179197
-0.138635
0.441802
-0.303176
0.163594
-0.148295
0.282387
-0.473849
0.19146
0.476456
-0.472933
-0.00352706
0.117021
0.204205
-0.192707
0.0183239
0.174383
0.178324
0.00474701
0.55479
-0.264142
-0.29065
-0.0128434
0.191759
-0.178915
-0.344684
0.494785
-0.150102
0.550614
-0.386849
-0.16377
0.13444
-0.150017
-0.210639
-0.332882
-0.507558
0.0740002
0.433556
0.00390398
-0.0145049
0.0106009
-0.224437
-0.169294
-0.503941
0.342118
0.161821
-0.421738
-0.0858228
-0.0787623
-0.084358
0.16312
0.0176656
-0.0131415
-0.156423
-0.526391
0.274616
0.251766
-0.234609
0.244473
-0.00986481
0.0157133
-0.021395
0.00568167
-0.141932
0.536552
-0.352064
0.481254
-0.129195
0.120866
0.112816
-0.233682
-0.404079
-0.0646963
0.468773
-0.194558
0.0119706
0.182587
0.129593
0.00905062
0.438588
-0.156202
0.54326
-0.289612
-0.253648
0.200666
-0.183716
-0.0169506
-0.235697
0.0736835
0.0130993
-0.00919528
0.170553
-0.159839
-0.010714
0.0575234
-0.016615
-0.0468462
0.158849
-0.112003
-0.239222
-0.313567
-0.0520147
0.112872
-0.0608571
-0.017356
0.0109379
0.00641817
-0.0140691
0.0177089
-0.00363975
0.0543859
-0.258965
0.204577
-0.371722
0.0966679
0.275052
0.207038
0.29735
0.135748
-0.146396
0.153792
-0.0135056
0.0550358
-0.133798
-0.23468
-0.0238886
0.258569
0.260994
-0.0305986
0.0940843
-0.0634857
0.355301
0.0301509
-0.385454
-0.0121265
0.0204309
-0.00830437
0.0329029
0.0246205
-0.15858
0.0231358
0.135444
-0.547106
0.247614
0.299491
0.413737
-0.0584382
-0.0771142
0.0176117
0.0595024
0.0100362
0.00762941
0.482684
-0.38672
-0.0959642
-0.0174394
-0.000320118
0.0177595
0.40799
-0.136325
-0.164762
0.176905
-0.0121429
-0.120848
-0.303046
0.152743
0.0905695
0.135791
-0.391883
0.256089
0.142491
-0.391036
0.0744689
-0.121752
0.0472831
0.0895753
-0.0319824
0.229305
0.0476473
0.520258
-0.245023
-0.275236
-0.133281
-0.174403
0.307683
-0.0547628
0.116946
0.142505
0.164584
-0.107298
0.0623942
0.0449042
0.421691
-0.316608
-0.105088
-0.29107
-0.100776
0.352629
-0.286449
-0.0661808
-0.0130351
-0.0039909
-0.140038
-0.0318161
0.171854
0.00231988
-0.016389
0.27756
0.144125
0.0664985
-0.184062
0.117563
0.142471
0.0265336
-0.169005
-0.539217
0.219605
0.319612
0.235515
-0.314988
0.0794718
-0.171954
-0.000513875
0.172467
0.317529
-0.263146
-0.0177283
0.0046932
-0.493997
0.0768779
0.417118
-0.194042
-0.255669
0.449709
0.183986
-0.12895
-0.119914
-0.0696169
0.189531
-0.148117
0.427539
-0.279431
-0.401749
0.263105
-0.0196488
0.00752232
0.093872
-0.36414
0.270266
-0.0348952
0.0140159
-0.0106722
0.554529
-0.375494
-0.179037
-0.103986
0.146584
-0.0425984
-0.466725
0.272683
-0.137024
0.426067
-0.289045
0.106911
-0.325401
0.21849
0.16383
-0.503369
0.0022477
0.390236
-0.392496
0.0498067
0.341869
-0.444001
-0.184345
0.465031
-0.280686
-0.0710525
0.213524
-0.172231
-0.279886
0.452115
0.178214
0.0224519
0.0397884
0.144198
0.0661786
-0.186093
-0.350666
0.401607
-0.0509406
0.241374
-0.00211237
-0.0664214
0.1226
-0.0561785
0.0669399
-0.0975385
0.345336
-0.251467
0.0383889
0.0930188
0.15379
0.0167625
0.244067
-0.0913238
0.0620004
-0.414071
-0.48298
0.147836
0.335137
0.275205
-0.447437
0.041782
-0.202886
0.161104
-0.0165633
0.0155151
0.0010482
-0.170244
-0.0147553
0.184999
-0.343199
0.262317
0.0808806
0.102517
0.322677
-0.425202
-0.152574
0.194356
0.00942946
-0.21382
0.204391
-0.342058
-0.170001
0.512057
0.0466599
-0.0986746
0.199497
-0.0787096
-0.120788
-0.477607
0.341794
0.135805
-0.261564
-0.199719
0.461278
-0.204536
0.495237
-0.290702
0.370465
-0.19229
-0.0173526
-8.67262e-05
0.515938
-0.253001
-0.262939
0.357902
-0.529256
0.171354
-0.172097
0.4473
0.463136
-0.0731907
-0.389945
0.158908
0.0174076
-0.176316
0.379324
-0.572653
0.193328
0.0828161
-0.0605715
-0.396642
-0.027642
0.424274
-0.225399
0.0505216
-0.232845
-0.241005
-0.363108
0.437106
-0.10246
-0.375153
-0.123731
0.190229
0.212463
-0.120176
-0.0922877
0.0684188
0.144044
0.0284444
-0.391554
-0.185129
0.0669363
-0.325904
-0.226396
0.357112
-0.130718
0.183039
-0.196073
0.0130339
-0.0326656
-0.00751109
0.0401766
-0.354009
0.12761
0.0883156
-0.332045
0.243727
0.122066
0.349685
-0.471751
0.315748
-0.208839
0.217932
-0.0292181
-0.188715
0.492765
-0.150896
-0.42062
0.283594
0.161786
0.17124
0.200356
-0.461925
-0.311523
-0.17614
0.487654
-0.434492
0.379326
0.0551576
-0.042983
0.0173866
0.0255963
-0.244757
0.355848
-0.267535
0.397374
-0.435814
0.0384397
-0.168288
-0.0455326
-0.151712
0.378457
-0.22675
0.276733
-0.43894
0.0968793
0.0954305
-0.29321
0.197778
-0.121594
-0.340117
-0.534264
0.258758
0.275504
-0.558313
0.262945
0.295366
0.207823
0.24951
-0.457334
-0.460187
0.109521
-0.437965
0.0880311
-0.454255
0.120524
0.0111862
-0.0153518
0.00416558
0.114653
-0.23379
0.119136
-0.597446
0.338248
0.259194
-0.392717
-0.204732
0.0943622
-0.217395
0.123033
0.310242
-0.493121
0.182879
0.2806
0.239658
-0.165536
-0.237323
0.402858
-0.262791
-0.0595035
-0.0938997
0.428105
0.117891
0.258006
-0.40533
-0.0291702
-0.20804
0.142255
0.0657842
-0.159983
0.0690536
-0.169306
0.100252
-0.0776345
-0.105476
-0.0403025
-0.0552619
-0.616323
0.299717
0.316606
0.251
-0.224816
-0.0261835
-0.169693
0.162403
0.00728962
0.0402852
-0.424475
0.384182
-0.11437
0.183424
-0.208159
-0.0265218
0.0391682
0.0737036
0.161311
-0.458877
0.297559
-0.300186
0.0077197
0.440383
-0.0874568
0.0628388
0.340107
-0.40295
0.0079756
-0.0150942
0.00711861
-0.0237404
0.18974
-0.165999
0.422219
-0.29293
-0.129291
0.0123683
-0.0149245
0.00255615
0.448295
-0.28699
-0.167783
-0.365837
-0.0308148
0.12078
0.355672
-0.197316
0.316459
-0.119145
0.0444339
0.328478
-0.372913
-0.0848903
-0.246439
0.156015
-0.410657
0.254639
-0.298474
0.101156
-0.172341
0.269671
-0.0973312
0.0466136
-0.120327
0.223285
-0.128923
-0.078719
-0.325361
0.0336047
0.378347
0.0280108
-0.266987
0.329823
-0.0302623
0.175088
-0.144826
0.495342
-0.1851
0.0982311
-0.0646865
-0.0335446
0.567134
-0.255872
-0.311262
0.188288
-0.176488
-0.0117996
-0.417662
0.101048
0.0163204
-0.0149181
-0.00140238
0.152563
-0.234886
0.0823232
0.113123
-0.3313
0.218176
-0.273365
0.101023
0.299603
0.122615
-0.409609
0.299601
0.110006
0.139686
-0.47544
-0.170758
-0.179468
0.206002
0.587837
-0.2785
-0.309337
0.21219
-0.192189
-0.0200008
-0.010289
-0.169179
-0.141192
0.230362
-0.0217784
-0.208584
0.151342
-0.284624
0.190057
-0.0117337
0.000816598
-0.0251839
-0.167523
0.0923565
0.15171
-0.199108
0.207679
-0.00857083
0.190409
-0.485886
0.01246
0.175828
-0.0145714
0.477707
0.0230133
-0.0578552
0.0348418
-0.131204
0.349112
-0.517441
0.168328
0.264072
0.323764
0.37785
-0.395969
0.223209
0.317044
-0.0582419
-0.0375102
0.288634
-0.123418
0.37978
-0.256362
0.214715
-0.0316767
-0.00652933
-0.0735288
0.284255
0.234182
0.210973
-0.28158
-0.147101
0.301719
-0.198179
-0.103541
-0.354798
0.158885
0.195911
0.460691
-0.297031
-0.163662
0.284774
0.265835
-0.373294
-0.0363164
0.267461
-0.407711
0.140245
-0.421115
0.109585
-0.534098
0.294666
0.23943
0.158919
-0.487174
0.328254
0.261449
-0.255146
-0.00630365
0.0469699
-0.191496
0.144527
-0.212248
0.18726
0.0249868
-0.0938724
0.170416
-0.0765438
0.0720544
-0.165927
0.0194285
-0.00132609
-0.0181024
0.215062
0.0286414
-0.162914
0.134272
-0.266529
0.474351
0.430637
-0.035677
-0.394961
-0.414993
0.195817
0.158481
0.143237
-0.345413
0.212064
0.133349
-0.286936
0.2074
0.174538
0.015519
0.421784
-0.270119
-0.151665
-0.372782
-0.199873
0.138414
-0.0918
0.284701
0.235897
0.21177
-0.0971169
0.558855
-0.288419
-0.270437
0.0110687
0.00658944
-0.0176581
-0.139621
0.287387
-0.206289
-0.352026
0.0113395
0.00102876
0.128431
-0.144507
0.016076
-0.504244
0.402515
0.101716
0.316977
0.143713
-0.252186
0.469453
-0.217268
0.202446
-0.110089
0.221673
-0.513083
0.291409
-0.356547
-0.177719
-0.146666
-0.0119141
-0.0148092
-0.197439
-0.083096
0.384252
-0.241765
-0.310357
0.209135
0.10122
0.165198
0.0768993
-0.242098
0.119883
-0.134046
0.0141631
-0.218444
-0.148258
0.366702
-0.608145
0.359998
0.248146
-0.0312633
0.225914
0.332941
-0.315272
0.359705
0.0393313
0.122087
0.294045
-0.416142
0.178192
-0.00695988
-0.24201
-0.366135
0.258565
-0.0933674
0.526413
-0.228966
-0.29745
-0.204026
0.178842
0.197787
-0.494488
0.2967
0.353639
-0.0861826
-0.0156461
0.0139419
0.00170421
-0.158304
-0.334818
0.127569
0.373402
-0.500971
0.192147
0.0382146
-0.00568713
-0.292569
0.298254
0.285509
-0.433634
-0.464897
0.08223
0.382665
0.503364
-0.324121
-0.179254
-0.015965
0.183121
-0.167156
-0.0773057
0.0283394
0.0489663
0.213714
0.0756782
-0.289394
0.239858
-0.11798
-0.121878
0.166576
-0.176865
0.123401
-0.0489326
0.33503
-0.373958
0.0389283
0.0391794
0.160318
-0.0876121
0.422642
-0.509549
0.330617
0.178931
0.162327
-0.133685
-0.176315
0.243067
0.0158306
-0.258898
0.220334
0.0873082
-0.471215
0.286869
0.398958
-0.382516
-0.0164424
0.140806
0.297781
-0.514226
0.217949
0.296274
0.310241
-0.122681
0.457422
-0.120835
-0.336591
0.431153
-0.309076
0.0802575
0.37716
0.0112401
0.334222
0.263438
-0.364862
0.101424
-0.317147
-0.158416
0.475559
-0.543932
0.365091
0.178841
0.123488
-0.138835
0.0153474
-0.152381
-0.374019
-0.259376
0.455347
-0.195973
0.358014
0.126191
-0.484205
0.238739
-0.244427
0.0276093
0.371348
-0.227297
0.449932
-0.208128
0.186538
0.384302
0.347115
0.0352456
-0.382361
-0.200404
0.0256121
0.174791
-0.144709
0.101397
0.0433129
-0.0760889
0.0733931
0.00269581
-0.236961
0.0378522
0.385746
-0.38351
-0.356322
-0.0613451
-0.046366
-0.0309397
0.000788884
0.514806
-0.317961
-0.196846
0.507938
-0.142464
0.137025
-0.358978
0.221953
-0.0100801
0.524943
-0.137119
0.484234
-0.0859056
0.0238141
0.0620915
-0.139932
-0.185471
0.139991
-0.0103978
0.19618
0.318626
0.490298
-0.173323
0.111831
0.128026
-0.457418
0.257694
-0.133382
-0.255208
0.388587
-0.504867
0.217025
0.28783
-0.530451
0.309441
0.22101
0.0466535
0.298679
0.0805906
-0.442255
0.342285
-0.376704
0.0344185
0.266395
-0.439288
0.172893
0.313942
0.107841
0.197308
-0.030732
0.493095
-0.119693
-0.163852
0.430246
-0.423553
0.106403
-0.251538
0.185207
0.0663306
0.338184
-0.142702
-0.195483
0.0408112
-0.259256
-0.248049
-0.13236
-0.00618682
-0.133851
-0.182494
0.229544
-0.0470507
0.234698
0.00836836
0.296355
0.100343
-0.3967
0.468845
-0.309927
-0.471066
-0.187525
0.272812
-0.0852882
-0.291052
0.103525
-0.0293334
0.00599968
0.0233337
-0.0492304
-0.058068
-0.246772
0.447124
-0.285395
0.285966
-0.190537
-0.0151225
-0.0619916
-0.533078
0.244659
-0.284599
0.44843
0.35718
-0.345951
-0.429721
-0.114212
-0.135547
-0.254209
0.389754
0.4517
-0.155347
-0.124558
-0.186965
0.311522
0.433838
-0.00903621
0.174101
-0.376544
0.12849
0.335423
-0.477354
0.20858
-0.215274
0.00669368
-0.0203549
-0.055734
-0.428056
0.293355
0.1347
-0.217501
-0.286442
0.428057
-0.269317
-0.158744
-0.393809
0.134431
0.269905
0.11993
-0.38984
-0.409382
-0.438959
0.288376
0.150583
-0.509337
0.171925
0.337412
-0.307611
0.220477
0.0871332
0.137281
-0.294506
0.157225
0.292714
0.13534
0.137913
-0.168176
0.481802
0.0570951
-0.401492
0.344396
0.158439
-0.00464906
-0.210153
-0.334737
-0.232887
-0.297565
-0.230359
-0.115581
0.345939
-0.110372
-0.422268
-0.0142047
0.249719
0.0276203
0.184569
0.503092
-0.133472
-0.369623
-0.125893
0.389929
-0.264042
-0.00665964
0.223111
0.331677
-0.352083
0.238617
0.113466
0.487429
-0.190609
-0.296821
-0.518833
0.165712
0.353119
0.2495
0.27691
-0.195525
0.194792
0.0826193
-0.293721
0.211101
0.211613
0.12657
0.388186
-0.252398
-0.163884
0.301165
-0.340426
0.466913
0.159813
0.302195
-0.462012
0.0188613
-0.00767509
0.490643
-0.21676
-0.273883
0.275939
0.278589
0.245511
-0.382792
0.137277
0.502542
-0.353491
-0.149052
0.149129
-0.180945
0.243498
-0.180092
-0.0634071
0.283693
0.163011
-0.446706
-0.172485
0.284145
0.134916
-0.0234636
-0.111452
0.356681
-0.219656
-0.27204
-0.160935
0.432967
0.248037
-0.413573
0.0565381
-0.228365
0.171826
-0.000130993
-0.070325
-0.164284
0.440465
-0.315154
-0.125311
0.0824055
-0.349856
0.267447
0.251305
0.251237
-0.178002
0.164839
0.0131629
-0.337716
-0.181119
0.339818
-0.257416
-0.360259
-0.172819
-0.0463894
-0.340418
0.386804
-0.0734869
-0.155448
0.228934
-0.166695
-0.16057
0.327264
0.490559
-0.132657
-0.339463
0.307627
0.132837
0.121367
0.217803
-0.339172
0.385119
-0.139612
0.184077
-0.48271
0.298628
0.464018
-0.150077
0.0399892
-0.118503
0.17095
-0.195187
0.0242368
0.00794583
0.00976304
-0.0111592
-0.0181742
-0.390533
0.138346
-0.434419
0.484127
-0.0497086
0.00439917
-0.349187
0.351217
-0.00202963
0.195259
0.295384
0.166784
0.328557
0.240753
-0.367109
0.126352
-0.146507
0.0195198
-0.187191
0.167671
-0.130813
-0.373441
-0.0773393
0.367866
-0.461767
-0.445229
0.315369
0.129855
-0.464819
0.167787
-0.314953
0.150273
0.00816547
0.236844
0.149001
-0.385845
0.26979
0.156274
0.220298
0.180552
-0.193395
-0.470017
0.185417
-0.00431405
0.387514
-0.0452285
0.368242
-0.127492
-0.331092
0.48499
-0.153899
0.298435
0.244986
-0.13217
0.284825
-0.405673
-0.136141
0.299858
-0.21724
0.111191
-0.255837
0.289171
0.159501
-0.448673
0.0263535
0.0438507
-0.0702042
0.0049638
0.0144647
0.322554
-0.209433
-0.444532
0.272434
-0.280897
-0.105823
0.255381
-0.198844
-0.189874
-0.0718856
0.261759
0.0843641
-0.20897
0.124606
0.14471
0.0246995
-0.16941
-0.106747
-0.225058
0.331802
-0.361048
0.375296
-0.0142477
-0.087941
-0.406057
0.186753
-0.0158029
-0.137174
-0.494662
0.204766
0.289893
0.0779722
-0.194898
0.116925
-0.0644017
-0.0886439
-0.0735149
-0.163011
0.236525
0.14079
-0.265349
-0.174127
-0.134604
-0.138762
0.447296
0.232504
0.120123
0.264555
-0.193299
-0.0712562
0.153278
-0.402504
0.249224
0.198876
-0.171203
0.216168
0.140942
0.0253744
0.161639
-0.187013
0.298444
0.135484
-0.433929
0.351326
0.102114
-0.45344
0.149589
0.229729
-0.316325
0.269933
0.109054
0.486813
-0.310709
-0.176109
-0.12102
0.559948
-0.263278
-0.296671
-0.0252733
0.145046
-0.0105439
0.209026
-0.326882
0.117851
0.233305
-0.356711
0.123403
-0.0446774
0.21278
-0.168102
0.238013
-0.362064
0.124048
0.0162382
-0.365426
0.165284
-0.243699
0.0784152
-0.295304
0.291819
-0.124924
-0.166896
0.338302
-0.345767
0.00746198
-0.262852
0.482456
0.0845516
0.433509
-0.135066
0.0245232
-0.129904
-0.0783066
0.0145947
0.0150812
-0.0296759
-0.290127
0.347222
0.136063
-0.428994
0.16495
-0.238465
-0.0560157
-0.030978
0.0869938
0.169863
-0.243392
0.073528
0.142722
-0.412842
0.0735935
-0.366077
0.292483
-0.445535
0.000984649
0.444549
0.212539
0.347409
-0.473435
0.311826
0.161606
0.225519
-0.141155
0.354777
-0.116766
0.31991
-0.232908
-0.0870044
0.0290638
-0.0036636
-0.0254002
0.591529
-0.327456
-0.299241
0.148626
-0.335824
0.187196
-0.0900247
0.131046
-0.40894
0.277891
0.374437
-0.165416
0.323498
0.141532
-0.0373432
0.0148023
0.0225409
-0.291567
0.457821
-0.166255
-0.27123
0.402273
-0.161223
-0.312214
0.0105688
0.109314
0.0387958
0.204703
0.419123
-0.290214
-0.128909
-0.458369
0.140876
0.317489
0.248833
-0.40316
0.154326
0.231956
0.0879525
-0.120706
-0.0131434
-0.446702
0.162835
-0.434883
-0.0169729
0.0401114
-0.251418
0.211306
-0.328705
0.450771
0.480079
-0.299136
-0.180943
-0.102875
-0.233311
0.336183
0.047618
0.196855
-0.284677
0.447503
0.496655
-0.330989
-0.165667
0.212652
-0.0205052
-0.132984
0.349149
-0.00346378
-0.130855
0.431801
-0.300956
0.0189276
-0.0286742
0.00974655
0.507598
-0.355833
-0.151773
-0.0685069
0.00404643
-0.0954888
-0.269373
0.16682
0.0199321
0.482763
-0.0521262
0.349694
-0.0113937
0.0957345
0.282253
-0.377988
-0.154798
0.40363
0.057455
-0.24733
0.28631
0.152532
-0.438848
-0.431135
0.291223
0.139908
-0.0113761
-0.270468
0.0156603
-0.0105449
0.32825
0.177177
-0.468746
-0.449954
0.173465
0.276482
0.105561
-0.315474
0.209912
0.318613
-0.169989
-0.0870341
0.454898
-0.135221
-0.256772
0.391988
-0.428038
0.373899
-0.224317
-0.390819
0.264921
0.302773
-0.464723
0.181652
0.283067
0.0613268
-0.140036
0.00451692
-0.193812
0.189295
-0.0869863
0.126154
-0.273098
-0.176684
0.449782
-0.0195353
-0.0178079
-0.249948
0.394017
-0.144074
-0.0606732
-0.239769
-0.115031
0.290254
0.167565
0.264929
-0.440048
0.175112
0.502067
-0.323481
-0.178589
-0.414953
0.453706
-0.0387556
-0.262149
0.127544
-0.154804
-0.0465062
-0.0773247
-0.0673848
0.204393
-0.164282
-0.478047
0.311046
0.167
-0.153257
-0.252906
0.406159
-0.232241
0.0497474
0.205372
0.0560765
-0.0635951
-0.136204
0.199799
-0.444985
0.0694901
-0.417785
0.146088
0.271696
0.180929
0.315725
-0.0040626
0.0100895
-0.00602692
-0.0819167
-0.114074
0.195991
0.217774
0.444028
-0.458261
0.0142273
0.133287
-0.133967
-0.0289463
0.201449
0.278629
0.00414552
0.239137
-0.279849
0.0407125
0.189386
-0.295923
0.106536
0.523141
-0.173456
0.498032
-0.162609
0.0335796
0.0559957
0.196386
0.0977378
-0.294126
0.324282
0.157721
-0.482004
-0.0571854
-0.132719
0.189905
0.0506293
-0.134191
-0.261594
0.395779
-0.251393
-0.277862
-0.209321
0.421486
-0.212166
-0.241701
-0.163635
-0.136628
-0.254438
0.391062
0.236364
-0.39854
0.162168
0.159741
-0.387447
0.227704
0.0966578
0.251
-0.347663
0.142977
-0.340751
0.197772
0.212697
-0.200789
-0.0119091
0.338747
-0.35488
0.0161307
-0.0880003
0.284385
-0.221107
-0.120393
0.3415
-0.00655612
0.00249352
0.0126873
0.369437
-0.25951
-0.211705
0.0307763
0.0698756
-0.100652
0.321777
-0.295443
-0.0263357
-0.447359
0.26818
0.179178
0.451192
-0.160939
0.322173
-0.459292
-0.123453
0.306821
-0.183369
0.0218302
0.299945
-0.417811
0.453352
-0.0355436
0.123811
0.149001
0.336596
-0.19362
-0.110512
0.294697
-0.184187
-0.00355628
0.0326201
-0.0229661
0.240898
-0.521467
0.299277
0.222187
0.233763
0.132639
-0.366405
-0.016104
-0.245412
0.261516
0.21078
0.284857
-0.461759
0.1769
0.0942906
-0.0382639
0.285133
0.143751
-0.428892
-0.0846602
0.196491
0.197822
0.0148296
-0.39875
0.258067
0.140677
0.270596
-0.428892
0.158291
0.215117
-0.431063
0.215943
0.309455
-0.172115
0.141157
0.00931808
-0.150475
-0.0458548
-0.419045
0.0867464
-0.359845
-0.187326
0.135134
0.0271926
0.285126
-0.04599
0.308338
-0.202778
-0.338874
0.234565
0.104308
-0.150118
-0.245204
-0.113775
-0.0727343
-0.160902
0.380615
-0.219715
0.0786808
0.0491864
-0.127867
-0.0208923
0.1798
0.266272
-0.39474
0.128466
-0.224315
0.0917543
0.132561
0.103878
-0.4254
-0.0337002
0.459099
0.196334
-0.176815
-0.163196
0.448052
0.372541
-0.224271
0.150783
0.0980135
-0.293216
0.195201
-0.282674
0.322954
0.481735
-0.184995
-0.29674
-0.319429
0.454946
-0.135524
0.385841
-0.232565
-0.239401
0.39394
0.49143
-0.391088
-0.153325
0.418248
-0.159562
0.430153
-0.0362219
0.367555
-0.133794
0.282979
0.154379
-0.437359
0.189978
0.0227185
0.215175
-0.148997
0.144015
-0.365593
0.221577
0.184132
-0.166725
-0.00665089
-0.370053
0.2548
0.497197
-0.428719
-0.0684787
-0.288158
-0.110597
0.148869
-0.00415891
0.277796
-0.518004
0.240204
-0.314704
0.440154
-0.125452
-0.256767
0.196357
0.0604093
0.500821
-0.319893
0.300175
-0.0746564
0.20697
0.106377
-0.313348
0.212281
0.111476
-0.32376
-0.103359
-0.107848
0.211207
0.268647
0.125147
-0.393799
-0.02102
-0.163338
0.412078
0.0851185
0.340947
-0.00220335
-0.241793
0.159885
0.081908
0.0759774
-0.0171656
0.0268633
-0.253199
0.237095
-0.291365
0.475437
-0.0900048
0.32491
-0.23491
-0.269271
0.352233
-0.0829625
-0.405584
-0.0396483
-0.0684557
-0.188312
0.203965
-0.327383
0.198745
0.274732
-0.473477
0.132527
0.154229
-0.286757
-0.381413
0.139705
-0.210902
0.37064
0.421832
-0.0357901
-0.219357
0.287644
-0.189632
-0.250363
0.347496
-0.0971339
0.109027
-0.433161
-0.468361
0.329497
0.138857
-0.0983735
-0.293751
0.392124
0.376366
0.14224
-0.00108266
0.231549
0.077118
-0.308668
0.312211
0.169523
0.0172179
3.06382e-06
-0.0172209
0.0167422
0.198433
-0.195885
0.491294
-0.295409
-0.000134748
0.0766282
-0.463483
-0.0621344
-0.0237712
-0.336688
0.171304
0.497932
-0.246629
-0.0845534
0.291522
0.371919
-0.355681
0.114913
-0.35266
0.237744
0.03273
-0.0887457
0.3606
0.130828
-0.185276
0.126788
-0.106354
-0.384143
-0.0308118
0.306606
0.138864
-0.44547
0.40507
-0.13517
-0.0218697
0.22458
0.0755949
0.23038
0.13786
0.324121
-0.0733593
0.45416
-0.311511
-0.142656
-0.419039
0.258096
0.306323
-0.173796
-0.122984
-0.26832
0.391298
-0.0680218
0.0987981
0.205475
-0.388614
0.183135
-0.257304
0.080347
0.176956
0.15818
0.290108
0.354716
-0.149243
-0.14135
-0.327017
0.34865
-0.233741
0.192462
-0.187945
0.337223
-0.105675
0.242798
-0.0690303
-0.173769
-0.209727
0.028814
0.180913
0.137087
-0.391792
0.254703
0.221318
-0.376068
0.154744
0.489723
-0.267151
-0.222573
0.179303
0.245774
-0.425085
-0.35238
0.102017
-0.0253243
-0.426689
0.452
-0.21644
-0.124427
-0.127112
0.243356
-0.496413
0.135155
0.499257
-0.33973
-0.159529
-0.411088
0.0916529
-0.0116374
0.0149201
-0.00328275
-0.38355
-0.0508694
0.0524838
0.33503
0.205815
0.0173512
-0.223166
0.300288
-0.150405
0.175779
-0.248391
0.427685
-0.201542
0.488007
-0.28647
-0.145339
-0.171499
0.316836
0.126676
0.263171
-0.389848
0.133501
0.345369
-0.114991
0.296291
-0.106906
0.240173
-0.36958
0.129404
0.0578488
-0.224075
0.0587408
-0.0897189
0.290834
0.217851
0.136923
0.271277
-0.436883
0.165601
0.27083
-0.440835
0.170004
0.384923
-0.247838
-0.139992
-0.261705
0.401692
-0.314525
-0.179963
0.199582
-0.311365
0.111782
0.155117
-0.286439
0.189703
0.289511
-0.479216
-0.107095
0.0570255
0.0500699
0.0122203
0.12777
-0.368388
-0.151246
0.481862
0.176293
-0.197778
0.0214853
0.0242178
-0.287505
0.263286
-0.165747
-0.00877438
0.174521
-0.185127
-0.122659
-0.14218
0.264838
-0.0110996
-0.00854924
-0.338129
-0.157023
0.495145
0.437316
0.320927
0.174309
-0.0915301
-0.202192
0.281715
-0.423962
0.142247
0.16732
-0.431463
0.105267
-0.189927
0.369517
-0.137706
-0.231811
0.432879
-0.284789
-0.148091
0.196912
-0.0206196
0.0384128
-0.0104738
-0.027939
0.0383996
-0.0323999
-0.320383
0.177681
-0.316635
0.17199
0.144642
0.0895327
0.19383
-0.283366
0.21473
0.122498
-0.337228
0.206294
0.294525
0.529224
-0.219392
-0.309834
0.175179
-0.191388
0.0162087
0.302434
-0.375994
-0.0418191
-0.175981
0.00358611
0.0127343
0.163832
-0.238676
0.0748431
0.0376811
-0.333141
0.295459
-0.163135
-0.314912
-0.180165
-0.0771393
0.345784
0.0870943
0.247863
-0.337872
-0.0738366
0.372726
-0.132556
0.25999
0.0352689
-0.29526
0.531994
-0.203516
0.259013
-0.135205
0.230788
0.107222
-0.338012
-0.217097
0.428021
-0.210925
0.257393
-0.246653
-0.0107407
0.251371
-0.400069
0.148693
-0.117488
0.354332
0.417485
-0.110879
-0.217285
-0.304184
-0.285723
-0.202591
0.488312
-0.000114477
-0.221363
0.221476
0.434767
-0.163938
-0.163023
0.308068
-0.145045
0.0248815
-0.0661671
-0.359639
0.373864
-0.014225
-0.0718245
-0.0622211
-0.364255
0.276798
-0.303235
0.340915
-0.174339
0.0195347
-0.360293
0.242804
0.236536
-0.363115
0.126576
0.095559
0.190406
-0.144275
-0.197533
0.287062
-0.173346
0.173231
0.271351
-0.247135
0.0804341
0.184121
0.198993
0.00958697
0.294962
0.23426
-0.509945
0.186024
0.323918
-0.247366
0.295705
-0.0483402
0.198852
-0.415296
0.0510418
-0.291187
0.509133
0.315033
-0.115453
-0.422481
0.26922
0.169377
0.301537
-0.399911
0.235165
-0.157193
0.0135573
0.0164805
-0.0300378
0.248567
0.136547
-0.220264
-0.171556
-0.287252
0.146885
0.252064
-0.398954
-0.176478
0.41427
-0.148
0.18266
0.0301761
0.341743
0.192932
-0.204648
0.011716
-0.0691277
0.329116
-0.156151
0.377822
0.447056
-0.0452592
-0.210246
-0.0975107
0.307754
0.15787
0.248883
-0.406756
0.352966
0.00659852
0.185863
-0.0141351
0.00249773
-0.202555
-0.236404
-0.0607007
-0.0379739
0.269944
0.144324
0.0115972
0.00883368
-0.0163881
-0.0440091
0.0603972
0.00768731
0.0307255
0.134095
-0.0656326
-0.0684623
-0.174278
-0.0139877
-0.323618
-0.362623
-0.146715
-0.156838
0.140944
0.0158939
-0.25118
-0.415567
0.247358
0.250024
0.136802
-0.38683
-0.138862
-0.029033
-0.218333
-0.15762
-0.137047
-0.376038
0.0554355
-0.373397
-0.0615824
0.0853964
-0.165725
-0.0132344
0.178959
-0.453861
0.245118
0.208743
-0.145014
0.124752
0.0202618
0.193452
0.0921237
-0.285576
0.429416
0.148676
-0.413477
0.2648
0.127761
0.267294
-0.395062
0.0319499
-0.128133
0.167312
0.374338
-0.447529
0.223456
-0.0334783
0.156719
0.0214729
0.00150006
-0.0164181
0.0164043
-0.00845847
-0.0518371
-0.147465
0.199302
-0.0173592
0.200501
-0.183142
0.201238
0.23227
-0.0184917
0.255133
0.00225848
0.257636
0.122144
0.181113
-0.390434
-0.220434
-0.0999494
0.014514
0.112389
-0.126903
-0.0217042
0.222031
-0.0645407
-0.334542
0.242507
-0.469804
0.431097
-0.0585223
-0.0485731
-0.277905
-0.116836
-0.166248
-0.313358
0.168018
0.206079
0.163437
0.434749
-0.418719
-0.0160456
-0.403158
0.0862377
0.316921
-0.283091
0.16043
-0.413981
0.0511253
0.362855
-0.355604
0.527528
0.301065
-0.155344
-0.145722
-0.353435
0.111781
0.241654
-0.185665
0.0231902
0.000153804
-0.023344
-0.227482
0.232742
-0.335625
0.102883
-0.074783
0.0504824
0.0243006
-0.212746
0.181096
0.0316496
0.160213
-0.0884766
-0.316669
0.405146
-0.189023
0.431529
0.250441
0.136194
-0.386639
-0.160364
0.425999
-0.265644
-0.294854
-0.189058
-0.188277
-0.27845
0.502428
-0.205884
-0.296545
0.0909312
-0.00811516
0.289153
0.129898
-0.419051
-0.163667
0.0274998
0.168834
0.176106
-0.288214
0.112109
0.197859
-0.02268
-0.303979
0.0995334
0.204444
0.195404
0.104453
0.340779
0.118347
-0.459126
0.106308
0.194756
-0.140263
-0.250323
0.390583
-0.258192
-0.151557
0.409745
0.227079
0.129602
-0.331662
0.481215
-0.149558
-0.031675
0.150016
-0.118341
0.180119
0.278278
-0.4584
-0.143003
-0.271074
-0.178598
0.449673
-0.254423
-0.175146
0.429567
-0.127981
0.32494
-0.269505
-0.479613
-0.0814393
-0.175737
0.257176
0.255835
0.127053
-0.382891
-0.411867
0.142547
0.329365
-0.0598528
-0.0811824
0.269025
0.100992
-0.370019
0.299802
-0.409282
0.10948
-0.0353607
-0.0835003
-0.0905665
0.284018
-0.0306877
0.0107079
0.0199797
0.16548
0.0801985
-0.245679
0.45222
-0.291147
-0.161077
-0.427743
0.0960753
-0.0237173
-0.0510657
-0.172439
0.143221
-0.281522
0.408637
-0.108835
0.238884
-0.168943
-0.0699422
-0.174499
0.485545
-0.163372
0.472481
-0.185597
-0.286888
-0.168924
0.461218
-0.292299
0.382992
-0.256319
-0.275679
0.360716
-0.0850398
0.314375
0.132277
-0.446652
0.418392
-0.147043
-0.203002
-0.170293
0.132101
0.267038
-0.399145
0.513908
-0.164796
-0.21849
0.46064
-0.24215
0.067808
-0.411203
0.343395
0.239019
0.263408
0.403129
-0.147296
-0.425921
-0.00753993
0.43346
-0.0315017
-0.0341191
-0.00850393
0.042623
0.0217784
-0.382826
-0.0193797
0.0329371
0.390134
-0.33765
0.198286
0.00070657
-0.0505072
-0.418127
-0.0985588
-0.185036
0.16705
0.0179855
-0.00393383
0.0133114
-0.00937758
-0.146492
-0.264161
0.410649
-0.24591
-0.0670826
0.312992
-0.330903
0.131575
0.0308284
0.249026
0.348335
-0.400553
0.052218
0.406956
-0.260075
-0.145057
0.448165
-0.361354
-0.0184429
-0.168748
0.000160008
0.163434
0.0229402
0.0792252
-0.102165
0.110757
-0.335818
-0.487388
0.277235
0.456831
0.496821
-0.344684
-0.15214
0.106531
-0.326187
0.219655
-0.276577
0.394224
-0.117654
-0.0249552
-0.0415307
0.19203
-0.150499
-0.0928031