/*--------------------------------*- C++ -*----------------------------------*\
| =========                 |                                                 |
| \\      /  F ield         | OpenFOAM: The Open Source CFD Toolbox           |
|  \\    /   O peration     | Version:  v2012                                 |
|   \\  /    A nd           | Website:  www.openfoam.com                      |
|    \\/     M anipulation  |                                                 |
\*---------------------------------------------------------------------------*/
FoamFile
{
    version     2.0;
    format      ascii;
    class       volScalarField;
    location    "150";
    object      nut;
}
// * * * * * * * * * * * * * * * * * * * * * * * * * * * * * * * * * * * * * //

dimensions      [0 2 -1 0 0 0 0];


internalField   nonuniform List<scalar> 
18758
(
9.77572e-05
0.000959567
0.00671682
0.00870575
0.0144821
0.0131489
0.00113819
0.00671863
0.000604257
0.000508051
0.00130066
0.00425649
0.00672096
0.000348024
0.00287087
2.40979e-05
0.000671986
0.00672017
0.00422513
0.000433587
0.0032667
0.00672585
0.00715737
0.00146734
0.00039374
0.00671837
3.62461e-05
0.013913
0.00622857
0.000128436
0.000477538
0.00623698
0.00672353
0.00226903
0.000365856
0.00672338
0.00672451
0.00323435
0.00265542
0.000604117
0.00307121
0.000480596
0.00673849
0.000606356
0.000199917
0.00671641
0.00756331
0.00114467
0.000608277
0.00673602
0.000238824
0.0135501
0.00671731
0.00143085
0.0140938
0.00127278
0.00672427
3.08645e-05
0.00396841
0.000328458
0.000152035
0.00156046
0.000435306
0.00120099
0.00671724
0.00672435
0.000608539
0.00672342
0.00367148
0.0135827
0.0135058
0.00194532
0.00673713
1.20548e-05
0.00672735
0.00382851
0.000427214
0.014311
7.48979e-05
0.00572596
0.00839014
0.000308685
0.000307439
0.0137969
0.00037742
0.000783376
0.00232027
0.000455731
0.00016446
0.00424671
0.0134789
0.00395348
0.00225789
0.000474761
0.00891892
0.00232334
0.00041147
0.00672886
0.00673045
0.00476628
0.00037415
0.0135447
0.000441479
0.00031799
0.00418368
6.03128e-05
0.00863727
0.0144695
0.00176042
0.00172491
0.00204057
7.16441e-06
0.00671856
0.00270366
0.0093416
0.00220328
0.00351668
0.00307745
0.00474476
0.0100521
0.000550256
0.00518248
0.00626407
2.03724e-05
0.000118778
0.00014831
0.000652793
0.000584875
0.00257665
0.00673409
0.000682214
3.23387e-05
0.000805801
0.000147875
2.16452e-05
0.000862285
0.000417522
0.000671121
0.00673018
7.19621e-05
6.75179e-05
5.12577e-05
0.003401
0.00191168
0.00331237
0.00425896
0.00239296
0.00392539
0.000488
0.0101633
0.000246137
0.00406536
0.00079351
0.00672582
0.0095441
0.000860587
0.00542188
0.00117291
0.00243964
0.00672623
0.00672482
0.000330883
0.00197733
0.00209714
0.000154984
0.00702537
0.00366716
0.00618948
0.000139548
0.0132995
0.00885678
0.00672029
0.00213032
0.0144274
0.00033494
0.0010649
0.00796965
0.00126619
7.45423e-05
0.00268265
0.00671847
0.000234985
0.00300331
0.00675885
0.00146415
0.00122606
0.00595489
0.00312304
0.00673422
0.00577424
0.000144824
0.000510998
0.00182375
0.000504666
0.000310589
0.000472812
0.000411459
0.000146745
0.00672271
0.00673725
7.82052e-05
0.00121278
0.000382544
0.000459586
0.00672032
0.000334607
0.000440472
0.00672598
0.00330298
0.000537074
0.00672013
0.000324409
0.00222599
0.000368721
8.28962e-05
0.00728538
7.76847e-05
2.53321e-05
0.00672186
0.0125744
0.00672021
0.00187649
0.000400056
0.00357598
0.000203745
0.000442233
0.000429053
0.000172858
0.00675599
0.000390875
0.00672469
0.00046667
0.00788067
0.000407167
0.00672131
0.00602719
0.00675582
0.00671637
0.00618932
0.000485384
0.00672369
0.000302456
0.00906264
0.00198275
0.00890166
0.000439579
0.000418194
0.00672349
0.00882302
0.000335478
0.00672285
0.00682644
0.00084569
0.000307448
0.00327709
0.000584466
0.000573732
2.64053e-05
0.000395144
8.49701e-05
0.00679038
0.000459931
0.00672127
0.00046378
0.000602376
0.000356461
0.00171946
0.00672069
0.00203803
4.95887e-05
0.00209062
0.00150543
0.000432998
0.00742428
0.00234392
0.00358421
0.000222513
0.000317705
0.000160826
0.0015945
0.00596931
0.000682718
0.000474761
0.00408925
0.000296124
0.000295835
0.00342865
0.000276849
0.00762645
0.00674987
0.00671624
0.000161084
0.00738025
0.000563217
8.63081e-05
0.000441513
0.000622171
0.00964848
0.00435731
0.000690911
0.0134742
0.00671641
0.0106741
0.00023703
0.00341569
0.000472466
0.000373028
0.00259509
0.00672301
0.0023515
0.00256013
0.00672506
0.00121343
0.00984242
0.00019969
0.00672202
0.00674824
0.00222091
0.00181497
0.00675543
0.00500418
0.00100159
0.000130636
0.000322293
0.000669667
0.000456528
0.00041601
0.000158894
0.00678835
0.00672601
0.000540987
0.000195855
0.000227206
0.00845179
0.000520263
0.00188561
0.00678589
0.000610878
0.0115648
0.00675657
0.00672009
0.00675613
0.000968014
0.000191283
0.000384604
0.00495544
0.00199396
0.0067388
2.39212e-05
5.57558e-05
0.000402468
0.000101829
0.00215453
0.000503912
0.000104667
0.000520539
0.00028487
0.00488735
0.00408574
0.00203229
0.00672028
0.000386306
0.000924949
0.00693645
0.000794769
0.00674965
0.000460678
0.00368769
0.000834372
0.00259793
0.00464555
0.000382848
0.000431215
0.002532
0.00347809
0.00113927
0.00500032
0.00243783
0.000370474
0.00125409
0.00161302
4.17207e-05
0.00327613
0.00672458
0.00457452
0.000388855
0.000549079
0.0031764
0.000572988
0.00603227
0.000532493
0.00464518
0.00672032
0.00317897
0.0039423
4.67266e-05
0.00240043
0.00672526
0.000452347
0.0100065
0.000485976
0.00671889
0.00850876
0.00535185
0.00368888
0.00671863
0.000392287
0.00544487
0.000573053
0.000117058
0.00642511
0.00578421
0.0142914
0.000616166
0.00672182
0.00126636
0.00358712
0.00672021
0.000715358
0.000499216
0.000150204
0.000470639
0.000514
0.00672217
4.48403e-05
0.0108721
0.00669897
0.00832033
0.00039278
0.00162789
0.00671998
0.00672324
0.00199801
0.000385067
0.000655565
0.000929601
0.000260822
0.000821225
0.00166251
0.000453091
0.00404913
0.000546817
0.000155688
0.00127766
0.0051461
0.00618925
0.00672232
0.00521721
0.000462433
0.00217779
0.000569344
0.000372854
0.000166738
0.00279099
0.00399524
0.00144341
2.33583e-05
0.00523207
0.000195307
0.000224241
0.000332339
0.00089757
0.000458228
0.000343597
0.00177435
0.00034474
0.00289176
0.000371957
0.00146904
0.0024561
0.000577229
0.000623865
0.00102406
0.000466322
0.00671617
0.00148934
0.00673675
0.00255889
0.00479741
7.39225e-05
0.00672124
0.00217254
0.000846055
0.00672142
0.00672976
0.00671861
0.00921405
0.00198534
0.00890144
0.000643064
0.00155854
0.000371662
0.00672583
0.00672617
0.0127232
0.00673027
0.00672226
0.000379728
0.00672014
0.000227247
0.000374591
0.00672233
0.00526605
0.000427711
0.00139507
0.000742425
0.00986864
0.00124739
0.000197956
0.000770752
0.00672207
1.57227e-05
0.00175981
0.00199581
3.47046e-05
0.00244433
0.0004604
0.00436215
0.000867692
0.00198135
0.00424943
0.00412518
0.00283545
7.9321e-05
0.00672123
0.0103404
0.000532763
0.000478819
0.00674361
0.00020766
0.011248
0.0031638
0.00413784
0.00265657
0.00264888
0.00402768
0.00672953
0.00672634
0.00621286
0.00115157
0.00724394
0.0051939
0.000296281
0.00151426
0.00672123
0.006735
0.0011055
0.00672222
0.00150926
0.000960875
0.00269342
0.00043642
2.35335e-05
0.00672111
0.0118137
0.0132137
0.000232674
0.000326098
9.79474e-05
0.000525001
0.00104952
0.000901693
0.0136525
0.00101321
0.000689725
0.00319247
0.0016139
0.000548117
4.74604e-05
0.000400499
0.00109975
0.00119269
0.00404538
0.000426961
0.000362234
0.0015383
0.000105836
0.00194878
0.00936871
0.00134674
0.0051079
0.00671881
0.00672028
0.0133891
0.00991206
0.00287592
0.000338658
0.000347441
0.00777612
0.00354924
0.00201567
0.000541432
0.00508373
0.0146374
0.000511027
0.00326425
0.00055862
0.0136737
0.0032087
0.00238494
0.0013613
0.00294863
0.00671854
0.00402397
0.000460244
0.0142106
0.00858469
0.0028537
0.00672253
0.000511486
0.00672607
0.00672427
0.00105321
0.00279964
0.000376193
0.000623316
0.000148149
0.0139779
0.000233291
0.00672111
0.000463167
0.000211203
0.0138692
0.000628674
0.000536422
0.000436292
0.00320554
0.000342969
0.00873806
0.00177281
0.00675997
5.0301e-05
0.013817
0.000142021
0.00672011
0.00279371
0.000295686
0.00037786
0.00673622
0.000695657
0.00207815
0.00213207
0.0011731
0.00672396
0.00862545
0.00672633
0.000343089
0.00461596
0.00043541
0.00142698
0.000441998
0.00738236
0.000487731
0.00243468
0.00147657
0.00537613
0.00825541
0.00152224
0.00531493
0.00418001
0.000362375
0.00672593
0.000385028
0.000428689
0.00020887
0.00672142
0.000654629
0.000420075
0.0122853
0.00625366
0.00118325
0.000494527
0.000412062
0.000402821
0.00183468
0.00676896
0.00672761
0.00182347
0.000467104
0.00672237
0.000438872
0.00672301
0.00673783
0.00672002
0.0144814
0.00164758
0.00672567
0.000520982
0.000484171
0.0067222
0.0019574
0.00398414
0.00679139
0.000400831
0.000208258
0.00154448
0.00142828
0.000444027
0.000196242
0.000382596
0.00761599
0.00041571
0.00862892
0.000535316
0.000440365
0.00168548
0.00259466
0.00675747
0.0136195
0.000651435
0.00671776
0.00674274
0.00672131
0.00671994
0.000602995
0.00672005
0.00014475
0.01406
0.00673457
0.00164519
0.00487093
0.000618522
0.00797443
0.00672064
0.013854
0.00106493
0.00361702
0.00673317
0.00672818
0.000461988
6.85014e-05
0.00173535
0.000238854
0.0121082
0.000500694
0.00672227
0.000409134
0.00166319
0.000668646
7.39619e-05
0.000410995
0.000511515
0.000871156
0.000472915
0.00173822
0.000380457
0.00671986
0.000907565
0.00217231
8.33743e-05
0.000407443
0.0023607
0.00466828
0.00132199
0.00672347
0.000531187
0.0010894
0.00672014
0.000623032
0.000333187
0.000548158
0.000433951
0.00628209
0.00777902
0.00672232
0.00672407
0.00400384
0.00672489
0.000312678
0.000431392
0.00139086
0.00672238
0.000391519
0.00672864
0.00376121
0.000983028
0.000279109
0.000154747
4.05683e-05
0.000227407
0.00672242
0.000555432
0.00856958
0.00672251
0.000426105
0.00140981
0.0139135
0.000926428
0.00925976
0.00671984
0.000788369
0.00672587
0.000487888
0.00321962
0.00160118
0.001153
0.00672147
0.00679045
0.00672175
0.0110623
0.00029005
0.000883104
0.0140857
0.00311467
0.000659499
0.000877493
0.000524958
0.0054717
0.000849221
0.00672782
5.38354e-05
0.00672262
0.00318232
0.00085244
0.00278153
0.00647331
0.000491157
0.00244164
7.36326e-05
0.00117044
0.00509959
0.000303933
0.00672006
0.000512714
0.000937752
0.00672358
0.0142585
0.010277
0.00672229
0.00267626
0.00068489
0.000368833
7.7735e-05
0.00413665
0.0116035
0.000263133
0.00671948
0.00672976
0.0140478
0.00342055
0.00367379
0.000917539
0.00324284
0.00972341
0.00033119
0.000504058
0.0128943
0.000541247
0.000366363
0.00153838
0.00671952
0.00671628
0.00671954
0.00238011
0.00291081
0.000336035
0.00672244
0.00672708
0.00110834
0.00523197
0.00060548
0.000608228
0.000175245
0.0136722
0.000442677
0.000410984
0.000344239
0.00399042
0.00044924
0.00426743
0.00585397
0.000710159
0.00626081
0.00650155
0.00262607
0.000969848
0.000164223
0.0127602
0.0053068
0.000131217
0.000211974
0.00619697
0.00672031
0.000400296
2.24388e-05
0.000331993
0.00672013
0.00330691
0.000627883
0.00812531
1.92473e-05
9.42194e-05
0.00560439
0.00177582
0.000343135
0.000353502
0.00233878
0.000209899
0.00672569
0.00141482
0.000285842
0.00672224
0.00672167
0.00135251
0.000565071
0.00671935
0.00179376
0.00673854
0.00551988
0.000340858
0.00597092
0.00675383
0.000127199
0.00672479
0.000431223
0.000541521
0.00029115
0.00672591
0.00235426
0.000121611
0.0004249
0.000864424
0.00337273
0.000366159
0.00401237
0.0028217
0.00867253
0.000234164
0.000200744
0.00672306
0.000993733
0.00672222
0.000614159
0.00673571
0.000336828
0.00944518
0.00672004
0.00397422
0.000608281
0.00375451
0.00972413
0.00308938
0.000566443
0.00190209
0.00672313
0.00673584
0.00671986
0.000421722
0.000951327
0.000225991
0.00153548
0.00856026
0.00672993
0.00631657
0.00685324
0.00605737
0.014703
0.00671978
0.000377076
0.000937266
0.0067325
0.00506885
0.00672209
0.00803976
0.00212039
0.00672379
4.24853e-05
0.000621421
0.00672034
0.000395706
0.000410538
0.00672215
4.18503e-05
0.00671942
0.000313069
0.00905905
0.00045502
0.00667712
0.00034462
0.00042143
0.000331705
0.000609811
0.000510465
0.00424936
0.00107281
0.000494458
0.00672772
0.00676233
0.0067214
0.000695042
0.000426683
0.000661795
0.00450093
0.000897979
0.000509861
0.00329508
0.000368353
0.0059939
0.00672706
0.00130937
0.000152419
0.00672406
0.00312347
0.00672609
0.00339313
0.00672742
2.98555e-05
0.0130654
0.00672286
0.00152545
0.00671997
0.000431054
0.00671984
0.00440254
0.00150519
0.0067257
0.00676673
0.00672237
0.000260231
0.00671972
0.00406087
0.00831344
0.00108788
2.45302e-05
0.000140116
0.013431
0.000131501
0.00672658
0.00672947
0.000568188
0.00453723
0.000495672
0.00044199
0.00059105
0.000573297
0.00349134
0.000428395
0.00135575
0.0067223
0.000321486
0.014101
0.000246054
0.00671933
0.00909789
0.000647609
0.00184224
0.00108
0.000397179
0.00672269
0.00676006
0.00678389
0.000542946
0.0067223
0.00530829
0.012162
4.21219e-05
0.000689609
0.00672928
0.000218607
0.000329693
0.00672154
0.000591469
0.000379423
4.66768e-05
0.000493796
0.00297492
0.00147408
0.000625846
0.00671997
0.000217612
0.00195023
0.000251899
0.000438005
0.000452951
0.00537579
0.000531682
0.0130401
0.0089806
0.000372922
0.000205614
0.00238431
0.00672248
0.00672707
0.00185714
0.000341979
0.00672329
0.000961658
0.000332556
0.000536191
0.00671982
0.0067204
0.00391035
0.00672588
0.000336557
0.00425397
0.000516194
0.00672493
0.0026461
0.000319819
0.00672287
0.000861378
0.00677277
0.000395561
0.00149684
0.0052885
0.0103453
0.000214709
0.0124124
0.00306086
0.000486615
0.00525806
0.00816969
0.010569
0.00673941
0.000529735
0.000324544
0.00672281
0.0067192
0.000903238
0.00363413
0.0067212
0.000287297
0.000372793
0.00671993
0.000765604
0.0067228
0.00114815
0.000399892
0.00672318
0.0111345
0.000675448
0.00672032
0.000375544
0.000179325
0.000472042
0.0067262
0.000329469
0.00265412
0.0143137
0.00577117
0.00673491
0.00363333
0.0067173
0.01297
0.00672044
0.000435689
0.00765063
0.0118284
0.00294289
0.00167146
0.00672148
0.00103018
0.000825988
0.000436574
0.00671555
0.00120442
0.00672543
0.00378339
0.000261003
6.82657e-05
0.000252946
0.00671982
0.00110785
0.000429258
0.00221121
0.000222317
0.0063149
0.00580051
0.0076718
0.00672196
0.00673589
0.00494136
0.0132283
0.00517612
0.00630985
0.0142913
0.00116944
0.00655181
0.000820083
0.00671765
0.00671984
0.000780089
0.00156999
0.00672531
0.00882118
0.00762584
0.00671982
0.0091271
0.000412727
0.00460856
0.00298211
7.18093e-05
0.00672476
0.00104487
0.000379384
0.00671995
0.00044415
0.00265133
0.000452626
0.00400257
0.00396142
0.000438937
3.04208e-05
0.00227824
0.00535904
0.00259416
0.00672133
0.000281586
0.00146439
0.0128582
0.00671748
0.00331254
0.00208682
0.0067259
0.000198884
0.00671711
0.00239089
0.00609705
0.000334026
0.000629799
0.00055333
0.000536746
0.00181574
0.00148001
0.000477431
0.000386023
0.00126558
0.00543141
0.00672824
0.00672286
0.00193126
0.00671961
0.000332711
0.000734813
0.000337633
0.00671986
0.000782555
0.00301257
0.00110178
0.00672036
0.000301814
0.00231762
0.00668066
0.00706637
0.0117759
0.0011109
0.0067216
0.00205794
0.000750263
0.00366009
0.000206909
8.46943e-05
0.00755096
0.000953246
0.00889317
0.00239985
0.00409357
0.00671994
0.00918905
0.00472371
0.00672118
6.06095e-05
0.00478472
0.00672379
0.00672138
0.00159384
0.000558097
0.00672384
8.0262e-05
0.0114278
0.00146192
0.00671857
0.00202838
0.00848423
0.00679188
0.000393886
0.00672618
0.00671961
0.00398065
0.00672748
0.000470627
0.00375723
0.00431807
0.00566499
0.00672731
0.000307741
0.00672243
0.00474862
0.00313388
0.00521198
0.000366904
0.0012635
0.000200091
0.00150344
0.00320548
0.00672394
0.00672488
0.0103468
0.00454978
0.000432081
0.000129682
0.00927685
0.00672
0.00672514
0.00964185
0.0067222
0.000158296
0.000399617
0.00211048
0.0111383
0.010873
0.000293897
0.00200769
0.000826556
0.000368081
0.00673313
0.000802429
0.00672054
0.000261156
0.00672212
0.00598914
0.00167108
2.48645e-05
0.000103061
4.22127e-05
0.00672548
0.00919238
0.00672368
0.0147055
0.000530211
0.00671902
0.00673551
0.00533629
0.000442007
0.000139427
0.0142526
0.000705014
0.00554277
0.00671795
0.00466484
0.00208181
6.66164e-05
0.000337851
0.00672281
0.00672567
0.000740352
2.4749e-05
0.00488769
0.000388711
8.48374e-05
0.00494735
0.00150595
0.00104739
0.000488825
6.28258e-05
0.00109415
6.78077e-05
0.00675323
0.00672158
0.00334724
0.000452587
0.000428516
0.00121515
0.00672688
0.00270023
0.000122484
0.000122836
0.0140246
0.00673154
0.00807364
0.0108933
0.000395636
0.0067175
0.00754905
0.000417597
0.00672038
0.000662359
0.00703035
0.00155625
0.00672042
0.000424694
0.00672573
0.00257312
0.000330591
0.00391668
0.00672603
0.00672587
7.0934e-05
0.000925087
0.00296507
0.000417532
0.00707665
0.000259818
0.00672554
0.00673186
0.000255837
0.00165645
0.00542745
0.00440149
0.000289577
0.00386029
0.000374784
0.00798737
0.00280044
0.00459836
0.00354535
0.0146806
0.00673536
0.0125552
0.000172467
0.00652068
0.0102538
0.000449204
8.86451e-05
0.00672904
0.000379547
0.00672024
2.17967e-05
0.00671673
0.00059608
0.00261292
0.00672684
0.00759234
0.0026584
0.003479
0.00141913
0.0069224
0.00672129
0.00672269
0.00617951
0.00563631
0.0067817
0.00672219
0.00168956
0.00672208
0.00672357
0.000503246
0.00672342
0.000442834
0.00675766
7.43e-05
0.00404008
6.33521e-05
0.00712796
0.00112702
0.000505271
0.00673072
0.00672004
0.00300142
0.00402846
0.0089629
0.00380656
0.00672589
0.006729
0.00108045
0.00672204
0.000604365
0.000786647
0.00833867
0.0127148
0.00338044
0.00815435
0.00678547
0.00631459
0.00653865
0.0119621
0.000627255
0.00216529
0.000691492
0.00673318
0.00389345
0.000401066
0.000472235
0.000841063
0.00312186
0.00672734
0.00671698
0.00827876
0.000412721
0.00321114
0.00671673
0.000658119
0.00672208
0.00179117
0.00175592
0.00529172
0.00853851
0.000452335
0.00045333
0.00502632
0.000484545
0.00672189
0.00548082
0.00677824
0.00624146
0.00251982
0.00500335
0.00023741
0.00685915
0.000341254
0.000423256
0.00146956
0.000471233
0.00224657
0.0019412
0.00852775
0.00698844
6.67633e-05
0.0128523
5.86492e-05
0.000534899
0.000539791
0.000740057
0.00673101
0.000292712
0.000967719
0.00672166
0.00820175
0.00673964
0.00305279
0.00672407
0.0147422
0.000619379
0.00672
0.00527382
0.00614365
0.000116886
0.000104239
0.000550989
0.00245632
0.00479809
0.00672071
0.00614687
0.00045697
0.000118906
0.00671628
0.0107351
0.000677372
0.0134827
0.00672043
0.0031073
0.000159022
0.00667037
0.00672216
0.00462492
0.00625825
0.0140908
0.00162339
0.00671914
0.00202205
0.00672173
0.0137008
0.000480097
0.00672139
0.000501438
0.00503516
0.00180478
0.00879425
0.00677013
0.00636057
0.00672125
0.00677693
0.00672997
0.00331667
0.00671535
0.00200012
0.000456629
0.000518672
0.00672018
0.00264024
0.00139045
0.0143147
0.00187238
0.000207565
0.00943167
0.01364
0.00476061
0.000692063
0.00672014
0.00566003
0.000677662
0.000619487
0.0092336
0.00043953
0.00035673
0.0026526
0.000987467
0.00672232
0.00885828
0.000169702
0.00662674
0.00363328
0.000414078
0.0010422
0.00671852
0.000701338
0.000676457
0.00673021
0.00795241
0.00672227
0.000712154
0.00672042
0.000400803
0.000297937
0.000354905
0.00059134
0.000461976
0.000590276
0.000803796
0.000751998
0.0067661
0.0133835
0.000395245
0.0067258
0.000324222
0.000471225
0.000797257
0.00609444
0.00179594
0.00672331
0.00674988
0.00393131
0.0101242
0.00100714
0.00672119
0.00228458
0.00672203
0.00672226
0.000638998
0.0141381
0.00203922
0.00209705
0.00728334
7.17859e-05
0.00355739
0.0023263
0.0137738
0.000670444
0.00671676
0.00105789
0.00286806
0.00306228
0.000703717
0.00181066
0.000524857
0.000394428
9.90758e-05
0.00441491
0.0108649
0.00672244
0.00848002
0.00672586
0.0013689
0.00900369
0.00672323
0.00566014
0.00672602
0.000892247
0.000446636
0.00671987
0.000896483
0.00242044
0.000706917
0.000268157
0.00140997
0.00672121
0.00652188
0.00673568
0.000334416
0.000449305
0.000585011
0.00672267
0.00507522
0.00901515
0.00671892
0.0067197
0.00195429
0.000415066
0.000559679
0.000514855
0.000801983
0.00672773
0.00117312
0.00243086
0.00160464
0.0124249
0.00672329
0.000315305
0.0106147
0.000334873
0.00578253
0.000431804
0.00676251
0.00672416
2.85416e-05
0.000333986
0.000438674
0.00672494
0.00616325
0.000652666
0.000444163
0.00385255
0.0011665
0.00505846
0.00251561
0.00672013
0.00377544
0.0092343
0.00671762
0.00609751
7.54739e-05
0.000924292
0.00672907
0.00899452
0.00810686
0.00675327
0.00672977
0.0052287
0.00197096
8.78812e-05
7.35421e-05
0.000387352
0.00672535
0.00122696
0.000460161
0.00672842
0.0136261
0.000400925
0.00498523
0.000479022
0.000507222
0.00672149
5.63258e-05
0.00672307
0.000129038
0.00158082
0.00105786
0.00671615
0.00496664
0.000490514
0.00322793
0.0112558
0.000497045
0.00326334
0.0034448
0.0067201
0.00673138
0.011523
0.00672584
0.000279245
0.00672157
0.0067346
0.000435978
0.0120034
0.00671984
0.00672206
0.00452984
0.00161475
0.000717222
0.000858795
0.00463188
0.00126883
0.00671893
0.000446911
0.0132874
0.00203163
0.000795854
0.00832379
0.000622555
0.0021075
0.000401752
0.0067319
0.00339804
0.000715699
0.00672132
0.000465977
0.00419175
0.00625795
0.00385903
0.00941533
0.00307517
0.00112175
0.0133024
0.000603504
0.00119471
0.00671928
0.00736563
0.00672597
0.000500987
0.00673967
0.000330685
0.000545362
0.000459604
0.00131745
0.0025097
0.000792701
0.00672456
0.00613783
0.00476773
0.00672212
0.00123555
0.00672002
0.000448387
0.00643538
0.000157569
0.000491525
0.00192127
0.00272793
0.0115438
5.2488e-05
0.00671963
0.00100193
0.00672108
0.00671864
0.00672676
0.000791417
0.00477219
0.00136638
0.0016907
4.76736e-05
0.00307455
0.000499843
0.00672045
0.000166041
0.0063279
0.00273451
0.00124846
0.0125133
0.00350633
0.000720898
0.000770583
0.00673096
0.000617066
0.00535711
0.00296988
0.00672573
0.00672522
0.000919984
0.00672083
0.00672799
0.000420438
0.0010974
6.25794e-05
0.00281466
0.00672112
0.00684295
0.00672042
0.000434354
0.00567533
0.00671738
0.000642648
0.00672939
0.0142938
0.00471979
0.000771817
0.00554445
5.37549e-05
0.00053017
0.00141692
2.95748e-05
0.0067224
0.000209707
0.00237986
0.000833885
0.00672471
0.0067222
0.000409558
0.000440974
0.0108642
0.00038481
0.00021627
0.000606801
0.00286485
0.000604374
0.00212886
0.0117068
0.0112532
0.00214259
0.00574076
0.00671566
0.00387855
0.00745475
0.00672235
0.00888948
0.00672255
0.000864382
0.00671592
0.00406313
0.0045076
0.00484847
0.000383531
0.000182354
0.000417027
0.00494743
0.00672409
0.00671612
0.0067201
0.00671866
0.00672548
0.00672397
0.0116963
0.00833269
0.00886916
0.00117822
0.0068194
0.00046206
0.013774
0.00624882
0.000496228
0.00672199
0.00194652
7.76639e-05
0.00175608
0.00459072
0.00252242
0.00169746
0.00671692
0.0010362
0.00890448
0.00672294
0.00944244
0.00475282
0.00672166
0.0122977
0.00646876
0.0003862
0.00672315
0.00850494
0.00675958
0.00479019
0.000462602
0.00674461
0.00672212
0.00431781
0.00671793
8.78055e-05
0.00583971
0.000421031
0.00672048
0.0067243
0.00672861
0.00323486
0.000509284
0.00216967
0.0118706
0.00672143
0.00675387
0.000318586
8.87596e-05
0.0023474
0.0105222
0.0145476
0.000872179
0.00843338
0.00672187
0.00344636
0.000406855
0.00675367
0.00806255
0.00797418
0.00671969
0.00151771
0.00521961
0.00238077
0.00244331
0.00062575
0.00672271
0.000586474
0.000216636
0.000545875
0.000827473
0.00672037
0.0024022
0.00579515
0.00672334
0.0107028
0.00671497
0.00672296
0.000585054
0.00131334
0.000452868
0.00999274
0.00672001
0.000197405
0.00396695
0.00359431
0.00251434
0.00672492
0.00672292
0.0067288
0.00672169
0.00672328
0.00154374
0.00301004
0.00289838
0.00672566
0.00226549
0.0115865
0.00288214
0.00207744
0.0106651
0.00672418
0.000368411
0.00696276
0.000360367
0.0136679
0.000235983
0.0137488
0.000617422
0.00388584
0.00554808
0.00073264
0.00552445
0.00036217
0.00114635
0.00672471
0.00539063
0.00282605
0.00674678
0.000321704
0.00549698
0.00674628
0.00650346
0.000259998
0.006719
0.00452936
0.0067395
0.00318218
0.00866433
0.00253088
0.00672093
0.00470667
0.00672223
0.00133581
0.000171565
0.00153915
0.000293267
0.000185754
0.00672393
0.0107571
0.000865212
0.0052382
0.00550413
0.00674955
0.000598613
0.00672014
0.00201896
0.00176705
0.00930504
0.00396127
0.0067199
0.00155714
0.00229641
0.000719581
0.00672865
0.00380969
0.000503116
0.000181359
0.00073796
0.0139398
0.000399317
0.000856885
0.00697243
0.00307779
0.00672105
0.00117955
0.00973806
0.000649683
0.000369442
0.00264926
0.00672008
0.000320808
0.00025302
0.000658425
0.00672683
0.000242721
0.00673178
0.000354212
0.000230293
0.000514477
0.0135616
0.00672048
0.00056874
0.000499316
0.00383529
0.000313133
0.0051037
0.00104488
7.09209e-05
0.000387585
0.0048727
0.00672634
0.00672482
0.000438099
0.00671868
0.00356959
0.00521042
0.00672114
0.00675683
0.000213325
0.00671614
0.000359809
0.0105864
0.0016313
0.00673598
0.00675008
0.00027083
0.000254406
0.00672222
0.00513132
0.000120574
0.00672711
0.00671761
0.0108449
0.0107617
0.00671909
0.000333616
0.00022663
0.00672282
0.00395668
0.00363725
0.000313632
0.00672482
0.0021802
0.0146868
0.00672532
0.000727278
0.00748663
0.000512318
0.00517157
0.00672499
0.000664877
0.0113664
0.00916575
0.0011264
0.000589175
0.0014642
0.000688046
0.00254232
0.00477639
0.0106457
0.00787593
0.00245977
0.00310861
0.000525468
0.00441381
0.000363776
0.000944288
0.0025377
0.00675997
0.00672371
0.00571867
0.00443254
0.00671982
0.0004493
0.00823982
0.000434783
0.00672755
0.00672178
0.00160809
0.0010951
0.00116445
0.00672293
0.000663051
0.00599284
0.00671803
0.00422134
0.000677953
0.000457676
0.00672227
0.000555934
0.00175708
0.00104148
0.000360255
0.000420038
0.0104752
0.000426482
0.000159605
0.00482643
0.00671991
0.00416992
0.00139834
0.0126932
0.00102482
0.000770704
0.00672405
0.00819376
0.000652516
0.00673083
0.00079703
0.00192805
0.0138709
0.000451725
0.00079312
0.000176412
0.000379379
0.00672295
0.00672418
0.00672501
0.00121788
0.00853955
0.000596444
0.00672175
0.000437793
0.00473064
0.0128579
0.00478022
0.0123996
0.000819292
0.0115652
0.000570527
0.000139246
0.00411252
0.00672586
0.00672
0.013889
0.00432779
0.000591874
0.00323394
0.00671571
0.00295939
0.000314198
0.00487727
0.000426889
0.00672166
0.00496994
0.00681846
0.00112961
0.00478183
0.00569438
0.00672424
0.00142983
0.00146643
0.00178655
0.0037593
0.00308231
0.000446914
0.000987725
0.00226945
0.00027368
0.000227185
3.60615e-05
0.000397698
0.00673657
0.00420814
0.00147705
0.00942862
0.00540767
0.00672055
0.0067305
0.00674058
0.0067158
0.00376216
0.00671893
0.000209234
0.00844344
0.000733177
0.00985785
0.000692824
0.00672436
0.0067222
9.51286e-05
0.00672394
0.00232173
0.00672089
0.00682779
0.00183394
0.00671918
0.00243916
0.00673195
0.00594786
0.00672593
0.00672125
0.00608828
0.000276937
0.00194487
0.00512053
0.000408316
0.00672895
0.00757939
0.000440207
0.000406031
0.000469781
0.00158991
0.00672184
0.0104079
0.00275177
0.000453086
0.00120851
0.00673641
0.000357788
0.00672083
0.0119986
0.0067408
0.00584828
0.0146028
0.000468607
0.00224512
0.00671839
0.000430055
0.000282829
0.00035679
0.0083771
0.00671956
0.00673644
0.00674265
0.000126971
0.00124721
0.000606253
0.00672327
0.000704532
0.00664515
0.000416245
0.00672418
0.000135184
0.000560117
0.00432222
0.000935062
0.00201151
0.00150665
0.00896808
0.00566734
0.00233819
0.0108056
0.00675356
0.000536257
0.00569508
0.000135653
0.0138018
0.00786806
0.00445641
7.79212e-05
0.00672477
0.000328585
0.00672453
0.00192222
0.000405797
0.000367466
0.000291694
0.00672168
0.000666583
0.00191841
0.000338771
0.000444348
0.0140715
0.00672157
0.00160815
0.00686548
0.000283494
0.00532955
0.00107878
0.00977308
0.000583343
0.00672236
0.00016785
0.00417394
0.0130054
0.00672682
0.0110929
0.000624961
0.00677338
0.000336457
0.00219808
0.006726
0.0026988
0.00546055
0.00672056
0.00180137
0.0067188
0.0026654
0.00042968
0.000442365
0.000925577
0.00771303
0.00672584
9.35759e-05
0.000327786
0.00219746
0.000932692
0.000905099
0.00313256
0.00672475
0.00758127
0.00807443
0.00292794
0.0067569
0.000648333
0.00672257
0.0116552
0.00672203
0.00049402
0.00662624
0.00329882
8.46486e-05
0.00361495
0.000364654
0.00849875
0.000531543
0.00672279
0.00672221
0.00672419
0.0140582
0.000638453
0.00045116
0.0105108
0.00281598
0.00672405
0.00731499
0.000368059
0.000378504
0.0067236
0.00576411
0.00528021
0.000433206
0.00297353
0.000582515
0.00676211
0.00672189
0.00671899
0.00795469
0.00793445
0.000930565
0.000248749
0.00141727
0.000601104
0.0067294
0.00672561
0.000438837
0.00267635
0.00658504
0.000571429
0.000149463
0.000972003
0.000275749
0.00283846
0.000494014
0.0136777
0.0024503
0.00678128
0.00294859
0.0133649
0.000324029
0.000142499
0.000441342
0.00618641
0.00480326
6.58547e-05
0.00132122
0.000441171
0.00645883
0.000416534
0.00974429
0.00174572
0.00690439
0.000551841
0.00186322
0.00671957
0.00036404
0.0109841
0.00672477
0.000303445
0.00686979
0.00672221
0.000340933
0.000268539
0.000377736
0.00587818
0.00037561
0.00225123
0.00672237
0.00677669
2.39128e-05
0.00274011
0.000579706
0.0008293
0.00671918
0.00672367
0.00307593
0.00532399
0.00672791
0.000615832
0.00158008
0.000737928
0.00672146
0.00032059
0.00576314
0.00864434
0.0010234
0.00863523
0.000403049
0.000167608
0.000226897
0.00318327
4.59474e-05
0.000238144
0.00673807
0.00647888
0.00186037
0.0012374
0.00037376
0.00841754
0.00672439
0.00206996
0.000248289
0.000252202
0.00386568
0.000381863
0.0115913
0.000370948
0.0101267
0.000530259
0.00871592
0.000527836
0.0058907
0.00244287
0.0113744
0.00738336
0.000398557
0.00863121
0.00618957
0.00922442
0.0093012
0.00672058
0.00671683
0.000430057
0.000518808
0.0070071
0.00237319
0.00020017
0.00671792
0.00483913
0.00672442
0.00688344
0.000565399
0.00597588
0.0015716
0.00203491
0.000467189
0.00764396
0.00102367
0.0101008
0.00672543
0.00672514
0.000627352
0.00672332
0.00793538
0.00035209
0.0116499
0.0027072
0.00569484
0.00830183
0.00671584
0.00025571
0.00764346
0.000144412
0.00671787
0.00136351
0.0067211
0.0107042
0.00671568
0.00182589
0.00875681
0.000920373
0.000150656
0.000461009
0.00671767
0.00201554
0.000324269
0.00336252
0.00675936
0.00671892
0.000894826
0.0061237
5.22345e-05
0.00672641
7.22171e-05
0.00575141
0.00672203
0.00480404
0.0053046
0.00682048
0.00448751
0.00672137
0.000447072
0.00764913
0.00643532
0.00672318
0.00237846
0.000432955
0.000895806
0.00671871
0.0128243
0.00322683
0.00814931
0.00672015
0.00695965
0.00471671
0.000606779
0.00627603
0.00044767
0.000395341
4.36235e-05
0.00723184
0.00015302