/*--------------------------------*- C++ -*----------------------------------*\
| =========                 |                                                 |
| \\      /  F ield         | OpenFOAM: The Open Source CFD Toolbox           |
|  \\    /   O peration     | Version:  v2012                                 |
|   \\  /    A nd           | Website:  www.openfoam.com                      |
|    \\/     M anipulation  |                                                 |
\*---------------------------------------------------------------------------*/
FoamFile
{
    version     2.0;
    format      ascii;
    class       volScalarField;
    location    "150";
    object      p;
}
// * * * * * * * * * * * * * * * * * * * * * * * * * * * * * * * * * * * * * //

dimensions      [0 2 -2 0 0 0 0];


internalField   nonuniform List<scalar> 
18758
(
-0.140204
-0.319681
-0.00912819
-0.174638
-0.268161
-0.305092
-0.472616
-0.00533813
-0.240176
-0.00994308
-0.0484307
-0.470921
0.00478531
-0.134416
-0.0375054
0.211765
-0.111749
0.00546013
-0.0288891
-0.0230228
-0.23816
0.0137802
-0.467479
-0.255904
-0.367851
-0.00509543
-0.0363806
-0.273456
-0.337451
-0.264932
-0.121369
-0.200627
0.00659167
-0.0438538
-0.169449
0.0200172
0.006926
-0.0254255
-0.0320217
-0.120572
-0.0263063
0.0730706
-0.0140379
0.0339288
-0.326029
-0.00723634
-0.467117
-0.0421485
-0.0076052
-0.013853
-0.247156
-0.23788
-0.00946065
-0.046741
-0.275744
-0.437658
0.00686821
0.322533
0.0223851
-0.14078
-0.146438
-0.472339
-0.206109
0.045569
-0.00928357
0.0256748
-0.118393
0.00654365
-0.0234731
-0.233364
-0.244778
0.0461918
-0.0141437
-0.393287
-0.00954555
0.0202649
-0.222963
-0.270791
0.0467424
-0.4742
-0.435522
-0.375075
-0.144004
-0.298498
-0.220485
-0.0936043
-0.458534
-0.204814
-0.456799
0.0195681
-0.299108
0.0229766
-0.469431
0.0750074
-0.425631
-0.467053
-0.217746
-0.00991357
0.0117003
-0.237362
-0.0353818
-0.297752
-0.164383
-0.125208
-0.198682
-0.271499
-0.247343
-0.266135
-0.0343417
0.0548576
-0.466754
-0.87312
-0.0034515
0.00310746
-0.283831
-0.344721
-0.30212
-0.0370453
-0.472988
-0.420066
-0.117971
0.0314978
-0.427607
0.0942321
-0.279455
-0.31848
-0.317048
-0.260415
-0.463311
0.00300286
-0.113895
-0.0468867
-0.236685
0.0540627
0.2378
0.0435705
-0.221008
-0.123282
0.0111532
0.171437
0.061661
-0.0481823
0.00905701
-0.435344
-0.0272026
-0.0305032
-0.264719
-0.146081
-0.118121
-0.280165
-0.36899
-0.239718
-0.0936626
0.012545
-0.441124
-0.082831
-0.474982
-0.0414523
0.0237805
0.0155569
-0.00139158
-0.147449
-0.461525
0.0224802
-0.145941
-0.33185
-0.0302197
-0.443973
-0.26578
-0.299026
-0.373301
0.005704
-0.465175
-0.274039
-0.149266
-0.256746
-0.318075
0.046445
0.160916
-0.0217806
-0.00180583
-0.331744
-0.239894
-0.0182617
-0.0628104
-0.240426
0.0181526
-0.34618
-0.0130978
0.0210226
0.0465427
-0.258805
0.000243348
-0.116421
0.0268495
-0.208651
-0.0266394
-0.276911
0.00842812
-0.0138057
0.209091
-0.039167
-0.0742183
-0.187445
0.00480013
0.0252013
-0.170922
0.0123877
-0.231053
-0.00306189
0.00482007
-0.130299
0.0209209
-0.0817276
0.0970729
-0.451052
0.0941095
0.272402
-0.00884546
-0.309035
0.0050892
-0.0340926
-0.205447
-0.264401
-0.302848
-0.16787
-0.164404
0.00362343
-0.0175972
-0.190728
0.0259901
-0.207849
-0.462425
-0.219872
0.00490694
0.0184501
-0.0174019
-0.00669796
-0.428398
-0.0980247
0.00117237
-0.358725
-0.249604
-0.047309
-0.279441
-0.470056
-0.217627
0.0199628
-0.430717
0.11286
0.0199204
-0.446202
-0.0953246
0.111855
-0.035227
-0.125749
-0.244175
0.29522
-0.0770531
0.0249047
-0.020001
-0.157999
0.0160902
-0.185146
-0.000801198
-0.204063
-0.431645
-0.00863459
-0.0337056
-0.153776
-0.0324937
-0.0617043
-0.187556
-0.362677
-0.300655
0.011268
-0.235007
-0.123519
-0.350363
0.00252199
-0.0216497
-0.0752
-0.100623
0.00929104
-0.123952
-0.345721
-0.166457
-0.237937
-0.466189
-0.0168256
-0.00918447
-0.00465797
-0.450983
0.0928649
0.0400722
-0.214829
-0.0695099
-0.434509
-0.0281168
-0.166815
-0.300672
-0.00700304
-0.200316
0.0347955
-0.0243784
-0.0682376
-0.201747
-0.0414514
0.019972
-0.4723
-0.165423
0.0117042
-0.471917
-0.427657
-0.294819
0.0187913
0.00273792
-0.203796
-0.046231
-0.0177145
-0.0219803
0.0722335
-0.264674
-0.205267
-0.073178
-0.0932434
-0.0185737
0.0389887
-0.0196852
0.0156259
-0.258277
-0.0885179
-0.241719
-0.180756
0.095849
-0.000399255
0.00013275
-0.164161
-0.200435
-0.0179049
0.00419822
-0.017697
0.0444203
0.00840296
-0.358121
0.0309541
0.050915
-0.0146851
0.176461
-0.0438871
-0.245209
-0.18836
-0.0453771
-0.259953
-0.12733
-0.109483
0.117033
-0.470637
-0.255981
-0.244329
0.00560562
-0.0310506
-0.358829
-0.359123
-0.0121482
-0.0167088
-0.162568
-0.0292316
-0.0939945
-0.322895
-0.193531
-0.142919
-0.0146807
-0.433029
0.0278205
-0.0386636
0.0109833
-0.0321973
-0.159518
-0.0536845
-0.472804
-0.014667
-0.0346481
0.0119669
-0.316703
-0.142675
-0.237814
0.0283497
-0.111006
-0.0209941
0.0740151
0.0313891
-0.00831653
-0.287782
-0.230606
-0.296975
-0.459522
0.000882064
-0.223474
-0.231604
-0.127777
-0.00364532
-0.185168
-0.0203204
-0.031297
-0.00194074
-0.162189
0.0278741
0.0377928
-0.181233
-0.420663
-0.021631
-0.265928
-0.135424
0.0184939
-0.0697647
0.0241884
0.00444734
-0.0668924
-0.154738
0.033829
-0.495985
-0.121462
0.0229363
-0.132092
-0.245363
-0.166813
-0.369326
-0.151391
0.00549002
-0.00809619
0.00123983
0.0217447
-0.139355
-0.12033
-0.0873276
0.0360118
-0.0952588
-0.228619
-0.167302
0.0244463
-0.0903719
-0.45688
0.0247914
-0.1973
-0.000194712
0.0244508
-0.137278
0.0599132
-0.0346798
-0.24238
-0.172516
-0.0071372
-0.472604
0.021176
0.0269725
0.245043
-0.470517
0.131749
-0.173073
-0.13466
-0.225765
-0.307208
-0.137619
0.0470166
-0.242473
0.0042101
-0.140242
-0.0309281
-0.469951
-0.108415
-0.352169
-0.0869588
-0.124556
-0.00694009
-0.254062
-0.0138727
-0.254565
0.0113492
-0.230494
0.0164355
-0.187682
-0.0964956
0.0147608
0.0121523
-0.00233692
-0.241383
-0.270104
-0.280479
-0.115332
-0.0588924
-0.204054
0.00999536
0.0186863
-0.241412
0.0126947
0.0246422
-0.21829
0.005434
-0.167002
-0.201165
0.0249204
0.0274921
0.0745868
0.024924
-0.0854725
-0.261313
-0.0622151
0.125351
-0.0403523
0.0228164
0.161538
0.0533369
-0.031947
-0.131822
-0.333778
-0.122209
-0.214256
-0.0114798
-0.0322253
-0.332175
-0.0294971
-0.292924
-0.214059
0.015625
-0.260281
-0.261176
-0.164222
-0.00245258
-0.0858528
-0.225487
-0.0262619
-0.0208358
-0.0387062
-0.0412937
-0.0310609
-0.00589928
0.0188164
-0.415111
-0.0674706
-0.334254
0.0321163
-0.252333
-0.322031
0.0163056
-0.0133241
-0.0645671
0.00796566
0.0015563
0.0646666
-0.0204831
-0.199002
0.149735
-0.0106745
-0.229063
-0.275304
0.137029
-0.240833
-0.239012
0.0760111
-0.0610788
-0.0866787
-0.242443
-0.0655592
-0.104216
0.00719906
-0.145413
-0.127215
-0.0637323
-0.198572
-0.472702
-0.0636414
0.0149328
-0.164497
-0.364638
0.00451869
-0.264252
0.0392904
-0.251567
-0.00162768
-0.0202115
-0.00249142
0.00526877
-0.271548
-0.25142
0.0300942
-0.17193
0.0513001
-0.165345
-0.270123
-0.203413
-0.304091
-0.0258359
-0.273207
-0.113421
-0.00358721
-0.121089
-0.241703
-0.131186
-0.0433496
0.0639917
5.4804e-05
-0.00895187
-0.152461
-0.196544
-0.275825
-0.2297
0.0362038
0.00830805
-0.154591
0.013923
-0.00127569
0.0645543
-0.0387954
-0.202385
-0.124706
-0.269019
-0.263255
-0.173906
0.0165522
0.0592664
-0.22965
-0.252744
-0.101904
-0.412809
-0.153932
0.0308592
-0.172269
-0.194965
-0.000806145
-0.0181848
0.261009
-0.299222
-0.278501
0.00511661
-0.256792
-0.231451
-0.370069
-0.0140576
-0.465868
-0.472444
-0.456653
-0.0539118
0.0219119
-0.29208
0.0192387
-0.181564
-0.293006
-0.256356
-0.471942
-0.159896
-0.245807
-0.158179
0.0253279
0.0634368
-0.377569
-0.179201
-0.47342
-0.186768
-0.0296372
-0.183077
0.00982269
-0.16727
-0.150443
-0.240864
0.0153969
0.0423027
-0.219948
-0.235812
-0.380755
-0.464863
-0.112776
-0.0397144
-0.218389
0.0520526
-0.0199291
0.0197221
-0.0536032
-0.123521
0.0234846
-0.147738
0.00276289
0.00284915
0.00357717
-0.270166
0.0546625
0.00832384
-0.151018
-0.151442
-0.0107956
-0.285889
-0.0297735
-0.0212692
-0.159257
0.114111
-0.0601121
-0.0175715
-0.403077
0.137161
-0.0672105
-0.200483
-0.070877
-0.182773
0.108217
-0.198975
-0.454957
-0.15403
-0.0177577
-0.246356
-0.258121
-0.00597945
-0.261859
0.0197882
0.00292265
-0.122208
0.00549935
-0.180774
-0.250234
-0.0133774
-0.464115
-0.0253026
-0.116637
-0.179806
-0.0106998
-0.291157
-0.00409694
-0.0292929
0.0179747
0.0201006
-0.254228
0.22271
-0.317937
-0.17982
-0.30693
-0.156476
0.0233454
-0.221921
-0.466447
-0.305565
0.205892
-0.24304
-0.109268
-0.0648194
-0.257053
-0.0142802
-0.396257
0.00475179
-0.46534
-0.0449631
0.190669
0.0790918
-0.0322119
-0.336711
0.0647331
-0.000612249
-0.3483
-0.00201158
0.00382979
-0.122973
-0.203684
-0.256525
-0.372866
-0.223538
-0.311715
0.00805359
0.0218139
-0.257927
0.0228289
-0.351031
-0.162658
-0.0503096
0.0249548
-0.0638374
0.0305768
-0.0283152
-0.084415
-0.347456
-0.272494
0.254674
-0.145197
0.0104464
-0.131309
-0.309132
0.00318465
-0.149869
-0.056267
-0.245987
0.0610204
-0.444319
0.00462734
-0.261006
0.0082349
-0.166521
-0.00296349
-0.052531
-0.0610996
-0.0108264
-0.0207278
-0.010155
-0.24367
-0.278225
-0.0937971
-0.290648
0.0316914
-0.117744
-0.0824467
-0.236753
-0.473508
-0.0938086
-0.0125336
-0.0847693
0.00275285
0.0323276
-0.083514
-0.316228
-0.40896
-0.290983
-0.204387
0.233942
0.070086
0.0066947
-0.386483
0.00319448
-0.325297
-0.0829188
0.021795
-0.264295
-0.307983
0.0241857
-0.31984
-0.0412309
-0.101266
0.015974
-0.210005
-0.306886
-0.355482
0.00389637
-0.00908427
-0.262547
0.011632
-0.0226022
-0.0854598
0.0134256
-0.227178
-0.172161
-0.157406
-0.325505
-0.138335
-0.166797
-0.0554476
0.0052707
-0.00920908
-0.00249205
-0.307393
-0.147888
-0.159305
0.025232
-0.0123383
-0.0622454
-0.0057772
-0.124135
0.0386559
-0.349063
-0.245062
-0.148695
-0.219227
-0.16192
-0.0216719
-0.255115
0.00623395
-0.473664
-0.258231
-0.47125
-0.299703
-0.0398108
-0.0847246
-0.332902
-0.330169
-0.472158
0.200144
-0.237133
-0.332187
0.00543671
-0.215767
0.137071
-0.136944
0.00528431
-0.0244675
-0.125129
-0.237203
0.215307
-0.0663239
0.0312922
-0.0518704
0.120829
-0.489542
-0.0311518
-0.332111
0.00822121
0.026955
-0.268781
0.00317156
0.017702
-0.031906
0.00347937
0.0047862
-0.0146412
-0.0145298
-0.220538
-0.141283
-0.150323
-0.0173127
0.110081
0.027627
-0.223688
-0.239291
-0.0329895
0.00874817
-0.0450444
-0.276187
-0.190161
-0.0891542
-0.283715
-0.133855
0.0239208
0.0355586
-0.182328
-0.457222
-0.129994
-0.0099218
-0.185013
0.00951137
-0.113008
-0.0127839
-0.365286
-0.441881
0.00153531
-0.0306985
-0.321603
0.0153229
-0.267457
-0.394178
-0.128353
0.0535674
0.0212914
-0.0129524
0.004702
-0.333147
-0.42575
-0.246166
-0.0258144
-0.2632
0.0011241
0.0211025
-0.316175
-0.0183318
-0.269731
-0.0106436
0.0862497
0.0631703
0.0205161
-0.00352395
0.00927578
-0.376033
-0.0344328
0.0216486
0.222056
-0.12684
0.00738431
-0.164069
-0.0761157
0.00810732
-0.0375608
0.00498385
-0.0292571
-0.442482
-0.104111
0.0251103
-0.168257
-0.134059
-0.204299
0.00564602
-0.14056
-0.326744
-0.0488532
-0.159274
0.0191481
-0.0175867
0.0140203
-0.088363
-0.0840512
-0.104013
-0.0271816
-0.0807371
-0.112262
-0.46437
-0.217215
0.0203904
-0.00403006
-0.0157798
-0.179686
-0.000748891
-0.382644
0.0178089
0.0102448
-0.00444559
0.161792
-0.321322
0.00832059
-0.0528932
0.00257044
-0.165947
-0.00113988
0.0311715
-0.233903
0.00807928
-0.0178378
0.0186151
-0.247591
-0.00176317
-0.0192375
-0.164718
-0.423076
0.148519
0.197753
-0.299674
0.0723182
0.0177097
0.0132823
-0.278354
0.0313468
-0.154452
-0.156675
-0.127477
0.0652086
-0.033431
-0.010166
0.00136438
-0.00938496
-0.272854
-0.254208
-0.0552171
-0.00228009
-0.266165
-0.117675
-0.475094
-0.132148
-0.102414
0.0138089
-0.00215244
-0.00901556
-0.13122
0.0134987
-0.00305712
-0.343211
0.236659
-0.0870162
0.0134482
-0.151028
-0.1624
0.0148132
0.0324563
-0.0693677
0.287735
-0.157948
-0.000902619
-0.0448304
-0.118746
-0.000502919
-0.0755962
0.000731927
-0.349704
-0.166759
-0.218267
-0.0206271
-0.109032
-0.319041
-0.174197
-0.363074
-0.127847
-0.385329
0.0134885
0.0187105
-0.0366963
-0.207193
0.0212605
0.0780805
0.0476943
-0.128442
0.00598418
0.00653293
-0.0311621
0.00799908
-0.141758
-0.183369
-0.288379
0.0232141
-0.405064
0.124828
0.00801944
-0.0881011
-0.0051233
-0.198048
-0.0306265
0.0318163
-0.413964
-0.305697
-0.337504
-0.0368782
-0.327344
0.0315804
-0.222868
-0.411167
-0.00905291
-0.1378
-0.175948
-0.00971969
0.00430961
-0.133527
-0.0328787
0.0144866
-0.267028
-0.372931
0.00457437
-0.0985474
0.00808762
-0.0673279
-0.1881
0.00814742
-0.392242
-0.11666
0.0067477
-0.354075
-0.110953
-0.164485
0.0190919
-0.168998
0.00205877
-0.26383
0.0305762
-0.00721005
-0.448672
-0.00523923
-0.316141
0.00717068
-0.158319
-0.300103
-0.226799
0.0080666
0.0469013
0.0177212
0.0669789
-0.0649331
0.109229
-0.00968835
-0.473396
0.00716825
-0.0292968
-0.248572
-0.0880323
-0.0597037
0.00467107
-0.13387
-0.191409
-0.0334519
0.14552
0.0179027
-0.0195968
-0.320547
-0.00920675
-0.00701998
-0.0152998
-0.319419
-0.0254686
-0.000593345
-0.270416
-0.0679955
-0.277099
-0.0900915
-0.00891184
0.00233082
-0.323849
-0.0564854
0.0279949
-0.300323
-0.289458
-0.00208403
-0.21702
-0.216622
-0.0281061
0.0362439
-0.202018
0.014307
-0.172492
-0.034895
0.00485569
-0.34046
-0.471769
-0.224528
-0.0123375
-0.159097
-0.00665323
0.310646
-0.237381
0.0162904
-0.156086
0.0143698
0.111707
-0.0563141
-0.225395
-0.00576292
-0.0343779
-0.187533
0.014913
0.144869
-0.00535458
0.0198743
-0.311351
-0.206989
0.0451508
-0.105455
-0.294506
0.0532237
-0.0426476
-0.156043
-0.178724
-0.0678828
0.0286066
0.0150981
0.0137956
-0.0353755
0.000750675
0.000482839
-0.0485203
-0.369985
0.00610084
-0.416106
-6.65261e-05
-0.0745163
0.0079934
-0.0234007
0.0209163
0.021057
-0.238323
-0.336148
-0.0445727
0.0167149
-0.442953
-0.0476878
-0.459907
0.120807
0.235506
-0.258183
-0.475664
-0.156287
-0.0438086
-0.0296449
-0.00149061
-0.173089
-0.0152649
0.0148202
0.00501528
-0.00536109
0.0196734
0.0199965
-0.401653
-0.291943
0.0143681
-0.457457
-0.245937
-0.0576562
0.00284271
0.0384001
-0.169925
-0.0205375
-0.103392
0.00947895
0.00542364
-0.0315203
-0.00576103
-0.16083
-0.0297628
-0.0279841
-0.0200403
-0.00756501
-0.165483
-0.00983184
-0.0210267
-0.0324931
0.0291351
-0.2122
-0.188165
-0.103187
0.0102491
0.0357432
0.0196186
0.0140916
-0.218416
0.0245919
-0.0308768
-0.0205641
-0.258798
0.00581816
0.011118
-0.439431
0.00832419
-0.184746
-0.193376
-0.032905
-0.39012
-0.17997
0.117178
-0.464401
-0.0847914
-0.13102
-0.0132637
-0.129957
0.00727596
-0.336814
0.0224207
0.000766582
-0.262193
-0.0793026
-0.268748
0.281812
0.0100676
-0.272696
0.0142282
-0.273064
-0.148327
0.00345689
-0.0135122
-0.0248778
-0.151471
-0.061309
-0.272453
-0.106097
0.0124425
0.00286627
-0.027553
-0.349431
-0.105344
-0.000938798
0.0117409
0.0105098
-0.0923091
0.113847
-0.0255213
-0.0268388
0.158423
0.0245595
-0.0569251
0.0742417
-0.158364
-0.0139635
-0.0465185
0.183989
-0.0169406
0.0165372
-0.308953
-0.117141
-0.193802
-0.261143
-0.011337
-0.334513
-0.477494
0.119119
-0.263634
0.0210885
-0.205383
-0.245732
-0.14905
-0.0015773
-0.412432
-0.188432
0.0085903
-0.115838
-0.467562
-0.000477018
0.0077905
-0.107481
0.00786183
-0.278589
0.0399208
-0.0304494
0.00948298
0.00723918
0.241571
-0.0741717
-0.351906
-0.136311
-0.190398
-0.184244
0.0201391
0.0215691
-0.345006
-0.443121
0.0341974
0.00782927
-0.248803
-0.0319355
-0.214699
-0.188867
-0.204967
0.0299001
0.0270209
-0.273744
-0.00802518
-0.249746
-0.317987
-0.0205304
-0.243217
-0.163636
0.069791
0.0262129
-0.482498
0.00683186
0.262551
-0.00980621
-0.135594
-0.0424344
-0.0091315
-0.331127
-0.0429941
0.0262729
-0.0444112
-0.253754
0.0150227
-0.0100917
-0.458803
0.0159227
-0.0204096
0.010365
-0.0529701
0.02389
0.0215559
0.0142656
0.0215247
0.105715
-0.0165891
-0.18394
-0.170398
0.0178124
-0.234738
-0.0732099
0.0679627
0.00997212
0.000144203
-0.0322335
-0.203462
-0.221123
-0.0217241
0.00778642
0.0149116
-0.435045
-0.0100134
-0.23893
-0.221306
-0.174101
-0.328327
-0.265651
-0.243692
-0.0191198
-0.171485
-0.280994
-0.337214
0.0115089
0.048341
-0.100713
-0.00738255
-0.167002
-0.176265
-0.161447
-0.0708342
-0.289971
0.0296289
-0.0091114
-0.192313
-0.188101
-0.00480703
-0.00932799
-0.102725
0.00838309
-0.444455
-0.143676
-0.383476
-0.151374
-0.150244
-0.319041
-0.0260976
-0.233237
0.0175826
0.0296465
-0.0199885
-0.191609
-0.0226097
-0.0143896
-0.368324
-0.471388
-0.276013
-0.195202
-0.027723
-0.113365
-0.284411
-0.396336
-0.21012
-0.470274
0.0117135
-0.322792
-0.0896761
-0.255563
-0.148939
-0.0877766
0.0106411
-0.0193635
-0.0725995
0.0221249
-0.223224
-0.00347576
-0.00545299
0.0231116
-0.271296
0.0418586
-0.00086474
-0.00118052
0.0301034
-0.16978
-0.0552273
-0.285596
-0.0424311
-0.254226
-0.0108045
0.0192127
-0.17957
-0.0197459
-0.00971094
-0.176602
-0.109111
-0.274002
0.00838623
-0.469728
-0.0554431
0.0193506
0.024279
0.0302188
-0.374396
-0.274883
-0.458064
0.00368336
0.0175137
-0.0103722
-0.271926
0.0155086
0.0164278
-0.267018
0.0245346
-0.0310673
-0.225568
-0.0181491
0.0256924
0.0161054
-0.000237967
-0.0127994
-0.0349924
-0.00907088
0.0407173
-0.150687
-0.12128
0.000407802
-0.410473
-0.0545127
-0.262142
-0.408449
-0.0776165
-0.439261
-0.274893
-0.0161317
-0.108544
0.00668641
0.000115385
-0.328102
0.0152626
-0.274284
0.072046
-0.12718
0.0252361
0.0390964
0.00701764
-0.168292
0.0660566
-0.471196
-0.0317266
-0.215474
-0.0818986
-0.00147139
-0.113379
-0.115075
-0.0130647
-0.324213
0.0236973
-0.103234
0.0091561
0.0427703
-0.122456
-0.200901
0.00972417
-0.146809
-0.41465
-0.0934166
-0.0862499
-0.0179511
-0.262688
-0.165389
0.0200917
-0.185743
-0.397872
-0.229945
0.030995
-0.0427646
0.00806644
-0.0165803
0.0180125
-0.257971
-0.0836653
0.0159435
-0.289109
0.0166647
-0.0102256
0.0170002
-0.253754
0.0494427
-0.266469
-0.177123
0.0225984
-0.279837
-0.0427111
-0.270954
-0.236279
-0.00728614
-0.0815605
0.0342776
-0.0360792
-0.11232
-0.469419
-0.138318
-0.354073
-0.25663
0.00932545
-0.276793
0.00671275
-0.163192
0.0096377
-0.442803
-0.174603
0.0141199
-0.0190508
0.0150989
-0.0914787
-0.182601
0.00606632
-0.233251
-0.0436682
-0.0865728
-0.179552
-0.0316196
0.00150802
-0.193473
-0.00788968
-0.176908
0.00118156
-0.293695
0.00598884
0.0100601
-0.16479
-0.00912487
-0.00365459
-0.0330696
-0.168552
-0.14216
-0.230691
0.0449992
-0.00556314
-0.0662141
-0.0330588
0.0111407
-0.339901
0.00181277
-0.122398
-0.402756
-0.198129
0.0265352
-0.194873
-0.00415357
0.0215838
0.218306
-0.279542
-0.193252
0.00829726
0.0258988
0.0950225
-0.152896
-0.0132222
-0.0620766
0.00986044
-0.0277901
0.000785463
-0.0310895
-0.16904
-0.00921999
-0.395555
-0.457015
-0.0396379
-0.0102907
-0.208318
-0.459454
-0.00542152
0.0267287
-0.452782
0.00243574
0.219641
-0.153831
-0.358627
0.0109698
0.0431264
-0.146878
0.0272558
-0.280234
-0.249853
-0.0169777
-0.0541052
-0.104598
0.0167452
-0.10977
0.0141125
0.0637421
-0.028766
-0.0573809
-0.00916581
0.00846643
-0.234037
0.00092645
-0.374371
-0.108036
0.0346196
0.0341268
0.00705677
0.00775261
-0.378373
0.00882736
-0.261356
0.00557769
-0.00176459
-0.160618
-0.224048
-0.00315411
-0.0108848
0.0181619
-0.0139966
-0.0883659
-0.0908117
-0.137691
-0.0606673
0.000218876
-0.220117
-0.298718
0.00339253
-0.0967548
-0.21855
-0.11155
-0.0245935
-0.405805
-0.0129961
-0.26661
-0.0881183
0.0188517
-0.123947
-0.0200523
0.0197727
-0.0281708
-0.155813
0.0378725
-0.208791
-0.29462
-0.245673
-0.0609578
0.00449979
-0.185235
0.0180117
-0.29747
-0.0117888
-0.155559
0.0694983
-0.110025
0.042393
-0.174257
-0.0904492
0.00785739
-0.298534
-0.276252
-0.0106913
-0.202244
0.00697079
-0.0509612
-0.0181481
-0.37626
-0.268694
0.010749
0.00527006
-0.205286
-0.113614
0.00111227
0.0365417
0.015033
-0.00125484
-0.0081812
0.0456146
-0.457671
-0.444101
0.0100792
0.00330194
-0.0389479
-0.105021
0.00896722
-0.387856
-0.365751
-0.398941
0.0643629
-0.340047
-0.369537
0.0398732
-0.0944127
0.00890842
-0.0783835
-0.281942
-0.0340786
-0.00782292
-0.00465014
-0.0800106
-0.0098591
0.026809
-0.317673
0.038897
-0.108653
0.033644
0.00944584
-0.00503791
0.00710752
-0.227659
-0.449007
-0.00187895
-0.113302
-0.0128549
-0.271068
-0.0161532
0.0439606
-0.260613
-0.244312
0.10692
-0.143601
0.145476
0.0251011
-0.118825
0.0243094
-0.0959572
0.00694292
0.00776142
-0.202026
-0.193268
-0.216895
-0.145831
0.151912
-0.407174
-0.0375541
-0.127182
-0.0442106
-0.373199
-0.177835
-0.161754
0.0268028
-0.00921178
-0.263154
-0.363392
0.0191404
-0.20232
0.0185566
-0.0677378
-0.00978683
-0.0200498
-0.0230998
-0.0143116
-0.212251
0.0743461
-0.10233
0.0343461
0.0272502
-0.00663692
-0.000236037
-0.00092514
0.00996768
0.0108964
-0.247334
-0.25187
-0.364161
-0.0297395
-0.289915
-0.156581
-0.290002
-0.294216
-0.158243
0.00760994
0.0467107
-0.149176
0.010912
-0.166762
-0.25884
-0.029846
-0.00516129
-0.0723707
-0.284297
0.017991
-0.404609
-0.0265363
0.0125723
-0.295686
0.019874
0.0813701
0.00877986
-0.177414
-0.0171233
0.0252512
-0.258078
-0.0158483
0.0242115
0.00122664
-0.0055227
0.111316
0.0140362
-0.384473
0.00970327
0.021446
-0.0124967
-0.366424
-0.0859475
0.0165619
-0.364943
0.0161425
-0.0162798
-0.132399
-0.458209
0.0315933
-0.338429
-0.262927
-0.0682447
-0.249228
0.00774743
-0.0252523
-0.106287
-0.0172298
-0.46025
-0.285139
-0.0108294
-0.0584302
0.00746954
-0.459635
-0.232543
-0.120488
0.0182521
-0.245068
0.103149
-0.144887
-0.0679709
0.00439738
-0.0414608
0.0136688
-0.000996745
-0.251498
-0.00995417
-0.000826772
-0.128776
-0.365819
-0.14609
-0.377514
0.00444241
0.0219111
-0.0224695
-0.0298141
0.0471194
-0.00489013
0.0181953
0.0142879
0.0145112
0.00780123
-0.0594179
-0.00734869
-0.0327457
-0.00614616
-0.442358
-0.311569
-0.0346815
-0.0444044
-0.200341
0.00746388
-0.133772
-0.175698
-0.14191
-0.289068
-0.344393
-0.284454
-0.413396
-0.165394
-0.024064
-0.0910468
0.00728363
-0.142907
-0.0559438
0.0107545
-0.0175373
-0.167301
-0.0162185
0.118252
-0.449975
-0.0160465
-0.0184064
-0.185649
-0.00591411
0.0045944
-0.00142085
-0.0338479
-0.301539
-0.438668
0.0141823
0.0253086
0.024598
-0.000585211
0.074208
-0.0245572
-0.371771
-0.282954
0.0200635
-0.406037
-0.093675
0.0244386
-0.470798
-0.0164828
-0.0789803
-0.00303192
-0.0220663
-0.00327759
-0.367381
0.021677
0.00579998
-0.0573292
-0.0345337
-0.0939676
-0.000201398
-0.172922
-0.122828
0.0179172
-0.422991
-0.273054
-0.154065
-0.0918891
-0.181756
0.0128215
0.0120319
-0.0679713
-0.27332
-0.0813892
-0.139298
-0.254093
0.00680577
-0.390289
-0.292282
-0.289554
0.029284
0.0547511
0.00839411
-0.228687
0.145604
-0.252495
-0.270827
0.00951989
-0.105066
0.022149
-0.0233591
-0.36009
0.031907
-0.0710557
-0.0893923
-0.199892
0.0274356
0.0157974
0.0106145
-0.160212
0.00319202
-0.0343424
0.0301048
0.00932467
-0.0179336
0.0285479
-0.00884777
-0.358856
-0.234173
0.00733238
-0.00887736
-0.0160291
-0.0638257
0.0549181
0.0189042
-0.288449
0.128987
-0.00496532
-0.000975395
-0.403141
-0.225204
0.00368196
-0.174376
0.111609
0.0200475
-0.45598
-0.00531367
-0.188433
0.00838655
-0.44498
-0.270618
0.00737372
-0.108287
-0.27217
-0.0913698
-0.28826
0.00855256
0.0257363
-0.258632
-0.272583
-0.067108
0.0680991
-0.0124589
0.0919563
-0.0424601
-0.233277
-0.229184
-0.166028
-0.0383279
-0.00928436
-0.135657
0.00532042
-0.2751
-0.0384177
-0.26289
-0.0170274
0.00807977
-0.0220508
-0.0276535
0.000633284
-0.153982
-0.290304
-0.00219966
-0.0114924
0.0128692
-0.440786
-0.00873743
-0.0318042
0.0086762
-0.11361
-0.469584
-0.00545239
-0.0184595
-0.114892
-0.182499
0.0229627
-0.12459
0.0521983
-0.00867796
-0.130369
0.0459123
-0.27359
-0.327931
0.0181867
-0.409308
0.00125858
0.00202952
-0.028776
-0.32057
0.0367554
-0.205203
-0.00566346
-0.273007
-0.114006
0.00642967
-0.0869445
0.012384
-0.247451
-0.159096
-0.0951728
-0.293219
-0.149063
0.0115401
0.0193403
0.00962828
-0.0658593
-0.264897
-0.100373
0.0176345
-0.222087
-0.026665
-0.316883
0.0272168
-0.342263
-0.090384
-0.318307
-0.255624
-0.0440246
0.032329
0.0284647
0.00188926
-0.27099
-0.028919
-0.113135
-0.283772
-0.00899263
-0.241391
0.0279918
0.0286818
-0.107792
0.0059191
-0.0260159
-0.368976
-0.470712
-0.250543
0.012895
-0.00460185
0.00249313
-0.060774
-0.0440829
-0.0277821
-0.396636
-0.104427
-0.172064
-0.0395506
-0.0739064
-0.372914
-0.0863895
0.0331998
-0.00873763
-0.456057
-0.0218945
-0.263794
0.00974421
0.0100662
0.0294725
-0.0122165
-0.00895368
-0.0319715
-0.00227599
0.10964
-0.282822
-0.107646
-0.25243
0.026981
0.0192875
0.0166446
-0.242605
0.0272248
-0.0396561
0.0142814
-0.456719
-0.467141
-0.00243554
-0.0415673
0.00652708
0.030896
0.0202413
0.0192052
0.0136515
-0.342189
0.0301553
-0.0176235
-0.230107
0.000241136
-0.237812
-0.144096
-0.10792
-0.218737
-0.0577854
0.0230998
-0.195008
-0.0194978
-0.0997719
-0.0617636
-0.0063615
-0.143309
0.00809629
-0.342632
-0.0151027
-0.0226414
-0.263326
-0.158289
-0.374894
-0.00364257
-0.17183
-0.253374
0.017548
-0.16444
0.00215368
-0.00959912
-0.0154216
-0.128439
0.0661437
-0.268203
0.0203793
-0.105582
-0.470039
-0.219117
0.0257803
-0.264504
0.0958138
-0.208376
0.0387695
-0.0492774
-0.0581616
-0.2402
0.0299079
-0.0356213
-0.405959
-0.0163609
0.0615247
-0.0041585
0.133482
-0.247862
-0.284242
-0.0139515
-0.000969011
0.0234044
-0.152779
0.0276269
-0.0235698
-0.0976946
-0.378861
-0.0551302
0.0134872
0.0221606
-0.470687
-0.163014
-0.161605
-0.291123
0.0169042
-0.435084
-0.00797431
-0.257658
-0.0248127
-0.0643892
-0.405919
0.0848462
0.00747136
-0.306108
-0.212986
-0.263148
-0.00869434
-0.17286
-0.200624
-0.0186373
-0.24355
-0.265544
0.0170922
-0.04056
-0.212633
-0.0110014
-0.0047332
-0.000342347
0.0459983
-0.196293
-0.185847
-0.0742797
-0.256222
0.0182174
0.240773
0.118921
0.0195036
0.0668628
-0.0728134
-0.00670883
0.00967699
-0.333549
-0.466559
-0.250117
-0.017778
-0.116853
0.0116607
-0.226488
0.00548581
-0.125014
-0.292287
-0.472334
0.167434
-0.0275915
-0.145007
-0.172324
-0.269691
0.018372
0.0194272
0.00147671
-0.290935
-0.117293
-0.219863
-0.378996
-0.0182967
0.00681971
-0.33041
0.0960093
-0.203074
0.013481
0.0100003
0.0346298
-0.335395
0.0389908
-0.104226
-0.00785507
0.0169891
-0.00188821
-0.463434
-0.358245
0.0156651
-0.333079
-0.0238546
-0.252418
0.0141367
0.00915174
-0.152191
0.0399507
0.0186168
0.0929687
-0.171508
-0.085778
-0.241623
0.00636223
-0.150849
-0.29418
0.0324283
-0.00360255
0.0355932
-0.297828
-0.112059
0.0992148
-0.156189
-0.0117252
-0.0267869
-0.0391359
-0.0672629
-0.402401
-0.379215
-0.0739277
-0.290956
-0.156227
-0.301351
-0.133354
0.0305582
0.00402183
-0.206276
-0.399923
0.00561101
-0.0528235
-0.159819
0.0231747
-0.192998
-0.35283
-0.172769
0.0192361
-0.101509
0.0470115
0.0236843
-0.0189286
0.295414
-0.0230525
-0.0819261
-0.0727213
0.00426709
0.0201566
-0.472962
-0.018079
-0.0119992
-0.123464
-0.257555
-0.0998165
0.0162258
-0.0734369
-0.277212
-0.16452
-0.0820326
-0.265943
-0.127068
-0.208781
-0.127886
-0.0323778
0.155321
0.152299
-0.013878
-0.0199716
0.01001
-0.0703301
-0.210103
-0.313557
0.00792586
-0.209436
-0.181371
-0.370296
-0.471329
-0.213397
-0.23464
-0.181948
-0.226253
-0.144947
-0.309969
-0.123291
0.0323039
-0.0026706
-0.32238
-0.17011
-0.172885
-0.237477
-0.00431832
-0.26654
-0.265272
0.0102351
-0.00689162
-0.0987004
-0.154594
-0.259985
-0.30402
-0.219524
0.000747991
-0.0177221
0.00896251
-0.363546
0.0891849
-0.172283
-0.058793
-0.462774
-0.231115
-0.247557
-0.0799188
-0.186726
-0.00187633
-0.00814941
0.020721
0.0134014
-0.441065
-0.233357
-0.218329
0.0458066
-0.279991
-0.216169
-0.00869097
-0.0597727
-0.325678
0.130438
0.000630526
-0.0637887
0.00981428
-0.287528
-0.0100887
0.0133558
-0.418234
-0.088696
0.0218529
0.0258225
-0.00110584
0.045855
-0.0916832
-0.0313529
-0.018433
-0.000115725
-0.0909848
-0.386395
-0.161092
0.0215685
-0.0415571
-0.314991
0.0172667
-0.285582
-0.309417
-0.00902173
-0.473736
0.0199635
-0.177667
-0.182603
0.0276042
0.0202437
-0.010557
-0.109435
-0.0626492
0.000773641
-0.245375
0.00799806
-0.400777
0.00563569
-0.460911
-0.468066
0.092671
-0.0186522
-0.219219
-0.191846
0.189198
-0.145907
0.0985394
-0.00953886
-0.170471
-0.0259657
-0.140946
-0.153765
-0.0774247
-0.146848
0.00921062
-0.243238
-0.247102
-0.225817
-0.222228
0.00950698
-0.207579
-0.245666
0.00766473
-0.253748
-0.161876
-0.299624
0.0129019
0.0824387
-0.0128572
-0.205903
-0.28782
-0.0932254
-0.283643
-0.162968
-0.109979
-0.290635
-0.463675
-0.20345
-0.204574
-0.213516
-0.158208
-0.427822
-0.110747
-0.299373
-0.392183
-0.0402743
0.0488428
-0.070914
-0.165376
0.00720151
0.00389076
0.0210674
-0.0598217
0.025863
0.006482
-0.373553
-0.225456
0.00751177
-0.149838
0.0234515
-0.00185614
-0.0456894
-0.18823
-8.60403e-05
-0.184194
0.0142288
-0.10731
-0.189489
-0.216436
0.0653457
0.00639112
-0.212175
0.00881472
0.0066616
0.0580196
-0.0442872
-0.33501
-0.222643
0.0144938
-0.0573513
-0.167613
0.0187824
-0.200845
-0.160238
0.221275
-0.00234044
-0.106242
0.0234808
0.00762592
-0.317635
-0.469143
-0.111697
-0.183787
0.0447019
-0.250341
0.0963368
-0.363997
-0.135454
0.0145616
-0.0081179
-0.272912
-0.236289
-0.372142
0.116632
-0.327309
0.0403179
-0.360214
-0.357891
0.0613244
-0.171395
0.000662611
-0.283251
0.00590452
-0.41285
0.0886754
-0.161626
-0.399831
-0.300221
-0.29594
0.0426901
-0.304392
-0.158892
-0.14499
-0.441041
-0.167511
-0.267158
-0.00465453
0.0759128
0.111417
-0.465747
0.00680319
-0.024724
0.0514322
-0.155723
-0.402289
-0.141268
-0.120697
0.0148753
-0.235284
-0.0156291
-0.218807
-0.215835
-0.311642
-0.00228138
-0.271791
0.182834
-0.00558127
-0.277996
-0.182022
-0.0652412
-0.270234
-0.272828
-0.458405
-0.122941
0.0013723
0.000260091
-0.270087
-0.115416
0.0214953
-0.283191
-0.0133989
-0.29486
-0.0375796
-0.0339738
-0.205832
-0.288675
-0.0261473
-0.151286
0.0181324
-0.460476
-0.0126024
-0.17579
0.169099
0.201323
0.00142175
0.0253587
0.0116237
-0.10776
-0.0963244
-0.232841
-0.0874783
-0.142936
-0.0723093
-0.0321723
-0.267958
-0.166851
-0.00675199
0.203455
0.00095453
-0.419358
-0.00897862
0.15932
-0.324549
-0.0817136
0.0103532
-0.288337
-0.0343476
0.0199978
-0.130674
0.00759731
0.00113969
-0.276251
-0.107932
-0.388714
0.0175571
-0.228421
-0.12972
-0.0128955
0.0181901
-0.0339387
-0.0184886
-0.398115
-0.176546
-0.16542
-0.196889
-0.174837
-0.40855
0.00633045
0.0374183
0.0161164
0.0147474
-0.184671
-0.439027
-0.0595796
0.0248476
-0.18509
-0.0294058
-0.011547
-0.388965
-0.19272
-0.0122865
0.0322247
0.00291014
-0.208605
-0.00342286
-0.00802465
-0.248894