/*--------------------------------*- C++ -*----------------------------------*\
| =========                 |                                                 |
| \\      /  F ield         | OpenFOAM: The Open Source CFD Toolbox           |
|  \\    /   O peration     | Version:  v2012                                 |
|   \\  /    A nd           | Website:  www.openfoam.com                      |
|    \\/     M anipulation  |                                                 |
\*---------------------------------------------------------------------------*/
FoamFile
{
    version     2.0;
    format      ascii;
    class       volVectorField;
    location    "150";
    object      U;
}
// * * * * * * * * * * * * * * * * * * * * * * * * * * * * * * * * * * * * * //

dimensions      [0 1 -1 0 0 0 0];


internalField   nonuniform List<vector> 
18758
(
(1.103 -0.306773 1.51476e-20)
(1.26744 -0.0136461 -1.0555e-19)
(1.01517 -9.44989e-05 -4.42876e-22)
(0.589518 0.101764 -4.1782e-20)
(0.208139 0.029767 -2.403e-20)
(0.222459 0.0407044 0)
(-0.228246 -0.00947545 -1.62125e-19)
(1.01231 -0.00479258 0)
(1.23132 0.0245337 1.38383e-20)
(1.01965 -0.105413 0)
(1.05779 -0.0388211 1.54969e-20)
(0.182626 -0.0486912 1.18004e-19)
(1.00219 -0.000332564 1.02121e-21)
(1.1178 0.17044 5.38085e-20)
(1.04487 0.0124255 0)
(0.59442 -0.510853 9.18288e-20)
(1.11448 0.0270839 -3.951e-20)
(1.0043 -0.00739956 1.5143e-21)
(1.03736 -0.00398122 -5.16213e-21)
(1.02967 -0.124891 -2.54672e-21)
(-0.0345625 0.0123119 0)
(1.00004 -0.000827707 -2.91721e-21)
(-0.0437242 -0.0174675 0)
(1.22332 0.052114 0)
(1.32704 -0.117111 -2.43942e-20)
(1.01199 -0.00463515 0)
(0.79447 -0.69324 0)
(0.178531 0.0240596 -4.17203e-20)
(0.913786 0.0168656 -2.83001e-20)
(1.08919 -0.713073 1.23895e-19)
(1.11875 0.0848404 -3.00005e-20)
(0.0880634 0.0213169 -3.58065e-20)
(1.00048 -0.000160158 -2.57992e-21)
(1.05217 -0.00987924 -1.09029e-20)
(1.17244 0.101632 -2.91066e-20)
(0.99935 -0.0029309 -1.22578e-20)
(1.00019 -0.000234028 0)
(1.03527 -0.0210767 4.48808e-21)
(1.04184 -0.0238296 -1.36877e-20)
(1.12316 0.0231929 -2.12718e-20)
(1.036 -0.0194876 -8.87184e-23)
(0.940447 -0.0812455 -6.99856e-21)
(1.02189 -0.00671333 -1.64686e-21)
(0.978446 -0.0936299 1.54037e-20)
(1.21524 -0.509139 0)
(1.01322 -0.00132219 -1.83465e-21)
(-0.0653887 -0.0152977 -1.67968e-20)
(1.05213 -0.0528321 -1.47779e-20)
(1.01738 -0.102974 1.12369e-21)
(1.0214 -0.00503212 -2.70385e-21)
(1.22198 -0.133531 9.3356e-20)
(0.346577 0.0651593 6.03777e-20)
(1.01562 -0.00165703 0)
(1.05619 -0.0375317 0)
(0.146864 0.0210617 0)
(1.27621 -0.216008 0)
(1.00025 -0.000264895 -2.69463e-21)
(0.521007 -0.348717 -2.17501e-20)
(0.994418 -0.0245792 0)
(1.12652 0.174331 2.27576e-20)
(1.1202 -0.261455 -1.31888e-21)
(-0.213141 -0.0129214 1.60094e-19)
(1.20037 0.0117299 -1.58052e-20)
(0.971327 -0.0472574 -6.55268e-21)
(1.01545 -0.00172669 2.96262e-21)
(0.994298 -0.00534779 6.05554e-21)
(1.12093 0.0298483 2.36716e-21)
(1.00054 -0.000205525 2.46594e-21)
(1.03321 -0.0191377 -7.66397e-21)
(0.328484 0.0651038 -8.50986e-20)
(0.236228 0.0461 -2.50471e-20)
(0.972317 -0.0290589 1.08266e-20)
(1.02176 -0.00536167 5.80484e-21)
(-0.0251846 -0.0802593 0)
(1.01737 -0.00779306 -1.67744e-21)
(0.996115 -0.0251741 0)
(1.22676 0.0684278 0)
(0.208876 0.0276301 -1.35655e-20)
(0.91103 -0.332549 -2.26564e-20)
(-0.0877909 -0.0282505 0)
(0.0556611 0.00902242 9.27377e-20)
(1.28031 -0.476615 0)
(1.13147 0.172921 -6.12354e-20)
(0.187839 0.0341566 0)
(1.22627 0.0728221 6.18549e-21)
(1.09935 -0.0231993 -4.2607e-20)
(0.551203 -0.196441 0)
(1.19933 0.00970597 0)
(-0.0665096 -0.0311985 8.0717e-20)
(0.996701 -0.0257323 1.66253e-21)
(0.148944 0.0310339 6.55358e-20)
(0.993924 -0.0240885 1.96265e-21)
(0.124837 -0.0717281 -5.78146e-20)
(0.938122 -0.0849135 0)
(0.0623871 0.0133757 0)
(0.0777917 -0.0581576 -7.473e-20)
(1.22368 0.075276 4.63112e-20)
(1.01783 -0.00804561 -2.06152e-21)
(1.00267 -0.0187537 -3.47683e-21)
(-0.0130978 0.0147293 1.61266e-22)
(1.04109 -0.128233 -1.42002e-21)
(0.0939109 0.0256731 2.99244e-20)
(1.16613 0.051838 -3.73472e-20)
(1.12198 -0.124837 -4.46625e-20)
(0.0631724 0.015158 -3.98056e-20)
(1.1059 -0.682967 -1.24161e-19)
(0.951071 0.101267 3.66553e-20)
(0.234478 0.0322457 0)
(1.04466 -0.0339188 -8.57881e-21)
(0.964969 -0.0151983 0)
(0.153261 -0.0734014 1.61553e-19)
(0.468218 -0.66146 -6.58785e-20)
(1.01067 -0.00533137 1.04916e-21)
(1.01067 -0.0362004 1.7193e-21)
(0.735964 0.0409878 0)
(-0.22178 0.00685713 -2.04201e-21)
(-0.154895 0.00587959 1.02781e-19)
(1.04436 0.0130909 0)
(0.0322977 -0.0342832 2.8717e-20)
(0.0325205 0.0156335 1.37537e-20)
(1.12071 -0.0510683 1.77737e-20)
(0.987963 -0.0124682 3.36615e-21)
(0.638158 -0.0288446 -2.19356e-20)
(0.645816 -0.656956 0)
(1.19789 -0.391067 -4.35458e-20)
(1.21346 -0.487918 0)
(1.2864 -0.0181603 1.54286e-19)
(1.2539 0.0250792 0)
(0.0681224 -0.0552255 -3.20187e-20)
(1.00351 -0.0001176 1.42461e-22)
(1.11643 0.0286128 2.32646e-20)
(0.824286 -0.672721 5.01993e-21)
(-0.0749426 0.00781741 -4.84277e-20)
(0.935822 -0.223029 -6.76856e-21)
(0.210305 -0.712683 0)
(0.971475 -0.0663724 0)
(1.22469 0.0665027 6.02371e-21)
(1.12592 0.0242799 -2.28911e-20)
(1.00309 -0.0186986 6.81339e-22)
(0.788482 -0.270706 0)
(0.895787 -0.328529 2.93138e-20)
(0.959327 -0.46418 3.04678e-21)
(1.00548 -0.0320652 1.17339e-21)
(1.1544 -0.190911 -7.65026e-20)
(1.03679 -0.0191994 0)
(1.03892 -0.00149325 0)
(-0.105584 0.00653302 1.4442e-19)
(0.210054 0.0130146 0)
(1.11508 0.0850488 7.25957e-21)
(0.655054 0.0455104 2.36353e-20)
(1.29004 -0.460988 0)
(1.14305 0.117272 9.25363e-20)
(1.09934 -0.0280326 2.07402e-20)
(0.999953 -0.000758089 5.57305e-21)
(-0.0609397 0.00559112 -2.79016e-20)
(1.08938 -0.0431532 2.29623e-21)
(-0.00599505 -0.0346793 0)
(1.05148 -0.0547288 7.42483e-21)
(0.992433 -0.0387234 -5.76471e-21)
(1 -0.000311405 3.52727e-21)
(1.01144 -0.0132843 0)
(1.13773 0.167326 0)
(0.169126 -0.102781 -1.29767e-19)
(0.993661 -0.0384587 4.84072e-21)
(1.12112 -0.25655 -2.90548e-20)
(0.827674 0.0265237 -1.58809e-20)
(1.03879 -0.00567852 -8.45311e-23)
(0.549518 -0.0510614 -9.03568e-20)
(1.22282 -0.244612 0)
(0.253338 0.0389499 -6.3707e-20)
(-0.141018 0.0178483 -1.14108e-20)
(1.00423 -0.00758099 -1.90854e-21)
(0.182927 -0.09408 -3.63125e-21)
(0.185166 0.024571 5.63528e-20)
(1.1405 0.164726 0)
(1.2453 0.053811 -4.81651e-21)
(0.723439 0.0375367 1.11554e-19)
(0.970366 -0.0488539 0)
(0.803208 -0.268281 0)
(1.03258 -0.0301139 -4.44253e-21)
(1.0091 -0.00518461 4.86435e-22)
(-0.184139 0.000937168 -6.7991e-20)
(1.1789 0.116878 -8.58689e-20)
(1.02634 -0.00467614 -4.06718e-21)
(1.06895 0.00674525 0)
(1.23889 0.112571 -3.18041e-20)
(0.997996 -0.0200722 5.31482e-21)
(-0.208409 0.00898414 0)
(1.02068 -0.00591267 -3.09063e-22)
(0.995886 -0.0180225 -7.55508e-22)
(0.942384 -0.227232 1.12536e-20)
(1.25076 0.0242491 3.57272e-20)
(1.01331 -0.0481093 3.04148e-22)
(1.11354 0.0817138 -3.38822e-20)
(0.978392 -0.153325 -1.13725e-20)
(1.20199 0.00646777 7.04514e-20)
(1.03298 -0.127489 -3.96511e-21)
(1.23225 -0.24327 0)
(1.00076 -0.00252922 8.49191e-22)
(1.02156 -0.00634713 -2.60464e-21)
(0.754608 -0.220852 -1.91058e-20)
(1.04935 -0.0547892 0)
(1.07641 -0.129105 -2.38837e-20)
(1.18369 -0.00461321 0)
(1.0022 -0.000504621 1.0431e-21)
(0.980299 -0.149443 9.83026e-21)
(1.17261 0.0460175 -2.4782e-20)
(0.99996 -0.000587236 -4.68445e-21)
(-0.0172947 0.0120833 0)
(1.01328 -0.104013 -1.42108e-21)
(1.00471 -0.00747085 -1.45716e-21)
(1.12617 -0.127831 0)
(0.994993 -0.0407017 7.59364e-23)
(1.08439 -0.118119 1.1199e-21)
(0.868557 -0.298844 0)
(0.0626788 -0.00469859 0)
(0.866205 -0.311583 0)
(0.536975 -0.455197 4.62245e-20)
(1.0157 -0.00438786 4.57038e-21)
(0.241222 0.0417268 5.99374e-20)
(1.0046 -0.00764656 7.10372e-22)
(1.0444 -0.0353132 1.05234e-20)
(1.21248 0.0907325 -4.59248e-20)
(-0.0872626 0.00731643 -1.00089e-19)
(1.26341 -0.155457 0)
(1.16943 0.0470596 2.99544e-20)
(1.16096 -0.0562753 -3.37694e-20)
(0.989685 -0.213828 -1.50998e-21)
(1.02553 -0.00214675 2.23777e-21)
(1.18621 -0.0101008 -5.67556e-20)
(0.994001 -0.00558284 3.49228e-21)
(1.20106 0.00435447 -6.34357e-20)
(-0.0671155 -0.0125754 3.79848e-21)
(1.22619 0.0798487 -2.59331e-20)
(1.00204 -0.000256733 -1.57658e-21)
(0.997791 -0.0194193 0)
(1.02535 -0.00242779 0)
(1.01273 -0.00156486 1.10374e-22)
(0.721891 -0.0469347 0)
(1.10058 -0.0957083 -1.5253e-22)
(1.00932 -0.0132823 0)
(1.29354 -0.25792 0)
(0.929676 0.102746 -9.39488e-21)
(1.05607 -0.0207354 0)
(0.704563 0.0517862 2.21044e-20)
(-0.0101789 -0.0267069 -2.38723e-19)
(1.22387 0.0820729 0)
(0.999437 -0.00279374 0)
(0.0570817 0.0118818 -8.41908e-20)
(0.89802 -0.0817341 -3.25654e-20)
(0.999219 -0.00341652 0)
(0.490693 -0.0388637 2.17447e-20)
(1.10066 -0.0216604 6.17182e-20)
(0.898154 -0.0876551 3.38287e-20)
(1.04312 0.00700625 0)
(1.12775 -0.055187 -2.31125e-20)
(1.2555 0.0711314 6.62657e-20)
(0.498253 -0.447559 -6.14031e-20)
(1.08038 -0.117092 0)
(0.938205 -0.324998 1.20251e-22)
(1.02849 0.0032604 -5.64568e-21)
(1.15907 0.0377819 -8.64932e-22)
(0.999694 -0.00782051 -6.03855e-21)
(1.18155 -0.00300874 1.28262e-20)
(1.01119 -0.101125 6.16343e-22)
(1.21119 0.0934179 0)
(-0.300226 0.000491876 1.91702e-20)
(1.01541 -0.00425663 0)
(1.04382 -0.0316274 -4.06267e-21)
(1.05182 -0.485329 -2.08503e-20)
(1.04267 -0.0307331 8.27225e-21)
(1.06787 0.00581366 0)
(1.18309 -0.00858965 0)
(0.713572 0.0179187 1.48449e-20)
(-0.171392 0.0044063 -1.49657e-19)
(1.00356 -0.0312281 0)
(1.21298 -0.122359 -1.38022e-19)
(0.0844328 -0.0328542 -2.75701e-20)
(1.25594 -0.476155 -7.48807e-21)
(1.01116 -0.052874 6.97595e-22)
(1.03013 -0.00775789 0)
(1.08165 -0.0726217 0)
(1.10301 -0.0937351 -1.70554e-20)
(1.00524 -0.0314286 8.74078e-22)
(0.112079 -0.0529891 0)
(1.28364 -0.252047 1.85959e-19)
(1.0416 0.236593 0)
(-0.0758342 0.00688042 5.26693e-20)
(-0.0419103 -0.0166132 0)
(1.02472 -0.00451351 3.52178e-21)
(1.01525 -6.06743e-05 0)
(0.994718 -0.231041 3.05885e-24)
(0.130417 -0.00678981 1.02641e-19)
(0.923022 -0.0472624 -1.99665e-20)
(0.923118 -0.321717 -5.25998e-21)
(1.20393 -0.022351 8.96968e-20)
(1.07629 -0.0789192 2.78661e-20)
(0.0232971 0.0105587 0)
(1.03659 -0.0043316 6.23614e-21)
(1.15407 0.235038 2.40555e-20)
(0.206001 0.0357573 0)
(1.01301 -0.00136036 0)
(0.398101 0.0865676 2.13853e-20)
(0.966643 -0.172228 7.3192e-21)
(1.03413 -0.0195113 6.15452e-21)
(1.07246 -0.110161 -1.96746e-20)
(1.19158 -0.0567062 0)
(1.04904 0.00482911 1.5669e-21)
(0.99924 -0.00331014 1.71652e-21)
(-0.263754 -0.00734205 3.7693e-20)
(1.0785 0.246074 0)
(1.00222 -0.0137651 5.38091e-21)
(-0.271574 -0.00411646 -1.83094e-19)
(0.0284052 0.0129033 1.03327e-19)
(1.25753 -0.152497 0)
(0.998288 -0.00823516 0)
(1.00224 -7.76033e-05 0)
(1.15584 0.19383 8.06359e-20)
(1.05513 -0.0216291 1.28442e-20)
(1.02574 -0.00472108 5.84519e-21)
(1.03079 -0.00922692 -4.23729e-21)
(0.947052 -0.0179829 2.60823e-21)
(1.22053 -0.253656 -6.53186e-20)
(1.19451 -0.0591961 3.08398e-20)
(1.07967 -0.0739316 -2.04243e-20)
(1.09678 -0.0945594 -8.90398e-21)
(1.02548 -0.127081 9.26101e-21)
(0.95158 -0.227591 -1.78499e-20)
(1.02813 0.00281098 0)
(0.999992 -0.000623129 3.66651e-21)
(1.25415 0.0276119 0)
(1.07842 -0.206156 -2.71503e-20)
(1.21889 -0.122047 -1.01471e-21)
(0.591192 0.104685 9.02345e-20)
(0.919798 -0.0495198 -2.44775e-20)
(1.01392 -0.0466357 0)
(1.00555 -0.000153827 1.5005e-23)
(1.15225 0.237208 2.46327e-20)
(0.449979 0.0951515 0)
(1.02582 -0.00291807 -4.25633e-21)
(1.00513 -0.00752735 -5.81279e-22)
(1.0256 -0.00322044 1.76291e-23)
(0.970871 -0.0643035 -8.50306e-21)
(0.986638 -0.206202 1.76695e-21)
(1.31242 -0.116678 -7.39321e-20)
(0.988499 -0.0121494 2.58989e-21)
(0.969056 -0.0148668 1.07818e-20)
(1.02227 -0.00438906 1.86147e-22)
(0.607722 -0.558982 -3.46773e-20)
(0.960337 -0.452138 5.17599e-21)
(1.2269 -0.0240521 -1.05761e-19)
(1.1466 -0.305818 0)
(1.05326 -0.00324984 -1.14637e-20)
(1.24836 0.0204344 1.9329e-20)
(1.09121 -0.305991 -1.09483e-21)
(1.11207 -0.0760877 0)
(0.891809 -0.0968293 -2.22098e-20)
(0.128207 -0.0440964 -1.371e-19)
(-0.0644553 0.00668895 0)
(1.20601 0.110242 3.31692e-20)
(1.00213 -0.00237408 0)
(1.03606 -0.135849 -2.42872e-21)
(1.2901 -0.0454222 -6.41035e-20)
(0.646163 0.0273331 -1.84107e-20)
(1.02342 -0.0828698 -6.18474e-22)
(1.02463 -0.0049294 -7.29737e-21)
(1.1607 -0.0298517 -5.37627e-20)
(1.03803 -0.00940275 0)
(1.09935 -0.0111909 0)
(1.17205 -0.00117138 0)
(0.513714 0.0682604 -8.62695e-22)
(1.13883 0.123849 -6.42135e-21)
(1.022 -0.124105 3.71622e-21)
(-0.286113 0.00147121 0)
(0.989617 -0.0258963 -1.34946e-21)
(1.04871 -0.0565576 0)
(1.00363 -0.0247366 0)
(1.04203 -0.0249242 1.28814e-20)
(1.16094 0.0951616 0)
(1.06267 -0.0394638 0)
(-0.256553 -0.00810713 1.51131e-19)
(0.916469 -0.474517 0)
(1.04259 0.00645303 1.48411e-20)
(1.00201 -0.013312 -2.67694e-21)
(-0.156238 0.00939834 0)
(1.13916 0.120517 0)
(1.2303 0.0265863 -6.78344e-20)
(0.989262 -0.0252393 0)
(1.10956 0.0664684 -2.04106e-20)
(1.02943 -0.00786567 1.3691e-21)
(0.940303 -0.0737889 0)
(0.987919 -0.0129417 0)
(1.01511 -0.00437588 0)
(-0.140286 0.00465049 -2.76206e-20)
(-0.00701039 0.0127611 -5.16974e-20)
(1.04801 -0.778645 -1.15957e-19)
(0.391335 -0.142499 -1.37887e-19)
(1.00564 -0.000447869 0)
(1.22416 0.0537449 3.93159e-20)
(0.0888636 0.0300525 -5.64472e-20)
(1.12963 -0.0571829 -2.72199e-20)
(1.01094 -0.00556657 5.85547e-22)
(0.6176 0.123835 -2.54123e-20)
(1.02923 -0.0117021 -6.28878e-21)
(1.03962 0.000541448 -6.16704e-21)
(1.00933 -0.00548634 0)
(1.16352 0.0975429 -3.2881e-20)
(0.990918 -0.0137835 9.40062e-21)
(0.974844 -0.0925589 -7.51792e-21)
(1.14245 -0.295792 0)
(0.650306 -0.017853 5.91243e-22)
(1.03031 -0.00888228 0)
(0.191043 0.0299005 0)
(1.13766 0.000310364 0)
(0.998501 -0.00804599 -4.01024e-22)
(1.0763 -0.0029251 -1.47078e-20)
(0.992812 -0.0255681 0)
(1.00503 -0.00771966 0)
(1.07408 -0.0766489 9.38481e-21)
(1.15607 0.029522 -2.14165e-20)
(0.958026 -0.22343 -1.05311e-20)
(0.105276 0.0469668 2.13242e-19)
(1.12389 -0.0512142 0)
(0.996536 -0.00508918 -5.6415e-21)
(1.03185 -0.477072 3.23138e-21)
(0.67339 0.0984228 -6.38234e-21)
(0.800741 0.175305 2.40993e-20)
(-0.149632 0.0164883 9.39471e-20)
(1.1517 0.102695 -2.48943e-20)
(1.00849 -0.0516035 3.93755e-22)
(1.01483 -0.00422403 0)
(1.00913 -0.0129087 -3.72103e-23)
(0.99408 -0.0416394 -6.86054e-21)
(1.13423 0.126514 -5.9231e-20)
(1.12332 0.0136711 1.19353e-20)
(1.09013 0.0259169 -3.91221e-21)
(0.966676 -0.165592 -6.59202e-21)
(1.10075 -0.0263354 -1.14803e-20)
(1.21081 0.143609 -3.39172e-20)
(1.16918 0.0508477 3.41426e-20)
(0.992696 -0.0246669 -5.33969e-21)
(1.09416 -0.0925347 3.33701e-20)
(-0.0675101 -0.0352491 -7.02985e-20)
(0.990587 -0.0561183 3.57004e-21)
(0.536467 0.092594 0)
(1.00349 -0.000108802 -1.61954e-23)
(0.996763 -0.00118958 7.41883e-21)
(0.276485 0.00149959 -6.28503e-20)
(0.951417 -0.102411 8.39791e-21)
(1.04454 -0.0276392 4.36746e-21)
(1.25571 0.0749954 0)
(1.17581 0.0991492 2.96867e-20)
(0.998815 -0.22584 -9.94421e-22)
(0.0606959 -0.0609073 -3.31784e-20)
(0.995386 -0.0253128 5.54924e-21)
(0.988741 -0.0516344 -1.27999e-20)
(0.545309 -0.503621 -3.83772e-20)
(0.122583 -0.0394306 3.03943e-20)
(0.870406 -0.128108 2.4807e-20)
(1.15983 -0.155676 0)
(1.11549 0.174956 -2.32079e-20)
(1.23378 0.144021 0)
(-0.215381 0.00413074 -6.80741e-20)
(1.12255 0.169963 -4.47899e-20)
(0.971656 -0.0276997 1.12102e-20)
(1.22272 -0.0636907 6.68132e-20)
(1.00968 -0.0366024 -1.41795e-21)
(1.13409 0.129639 2.30323e-20)
(1.04171 -0.0495514 -4.53774e-21)
(0.121376 -0.0649825 1.5509e-20)
(1.10677 0.0664131 2.62713e-20)
(1.30906 -0.0504252 3.23718e-21)
(1.09012 0.0245479 0)
(1.121 0.0940169 0)
(1.01295 -0.00155642 -1.1101e-22)
(1.23314 0.049762 4.35084e-20)
(1.02152 -0.00568224 -2.72421e-21)
(-0.0837722 0.00541914 -1.49755e-20)
(1.00336 -0.0253411 2.18183e-21)
(1.15775 -0.394454 7.21377e-20)
(0.999626 -0.0066834 -2.67364e-21)
(1.1345 0.214864 -2.65213e-20)
(1.10165 -0.0104037 -2.83473e-20)
(1.0002 -0.00579658 -2.33437e-21)
(1.00232 -0.018144 1.58404e-21)
(1.00968 -0.00544695 0)
(0.82269 0.118307 -3.77082e-20)
(-0.123682 0.00464037 0)
(0.764415 0.0395765 2.95229e-20)
(1.11755 0.0339016 -5.13819e-21)
(1.06527 0.00573251 0)
(1.19361 -0.0524483 0)
(1.00002 -0.000583133 2.10347e-21)
(1.00004 -0.000306199 -1.04351e-21)
(0.338372 0.0614017 -7.73284e-22)
(1.00192 -0.0182676 -1.69345e-21)
(0.996143 -0.00236022 0)
(1.20637 -0.0247867 -7.33603e-20)
(1.00224 -0.00231609 4.52766e-22)
(1.15425 -0.157201 0)
(1.19134 -0.049612 0)
(0.995928 -0.0021827 2.93201e-21)
(0.991147 -0.0144668 -8.67669e-21)
(0.937482 -0.093535 2.24019e-20)
(0.990416 -0.054328 0)
(1.09189 -0.0439689 2.04937e-20)
(0.712259 0.0496116 6.32274e-20)
(1.06187 0.0428252 0)
(0.878295 -0.128048 2.07113e-20)
(1.04955 -0.0850759 -9.73775e-21)
(0.996696 -0.00490954 -2.87962e-21)
(0.395586 -0.753841 -2.28846e-21)
(0.966056 -0.0198021 3.378e-21)
(1.04256 -0.0366738 -5.15686e-21)
(0.85845 -0.778695 2.02019e-20)
(-0.207256 0.00485676 -1.06322e-19)
(1.1187 0.0914211 -6.12309e-20)
(1.10261 0.179841 -3.63548e-20)
(1.0226 -0.0849858 0)
(1.04276 -0.0356317 0)
(-0.184089 0.0082256 1.16994e-19)
(1.03804 -0.00522048 -4.87386e-21)
(-0.153562 0.00564831 -1.69511e-20)
(1.14429 -0.387748 -5.77053e-20)
(0.999931 -0.00598253 -6.63764e-22)
(0.673808 0.0527704 -8.96415e-20)
(1.25198 0.0212733 -2.41032e-20)
(1.16215 -0.0267605 4.69385e-20)
(1.00863 -0.000447861 0)
(1.07736 -0.199403 0)
(0.401795 0.0780489 0)
(1.03608 -0.0207181 5.6559e-21)
(1.03053 -0.0179848 -1.38721e-20)
(1.04591 0.0125891 0)
(1.04899 0.00398178 6.6456e-21)
(1.03952 -0.00171898 0)
(1.01196 -0.000759925 5.56922e-23)
(1.00003 -0.000147182 0)
(0.77618 -0.0287694 0)
(1.07508 -0.0312698 0)
(0.817078 0.026382 -8.8366e-20)
(0.98773 -0.0104007 1.64018e-20)
(1.22978 -0.068767 -6.01573e-21)
(1.22577 -0.00865706 0)
(0.999588 -0.00759712 8.57319e-21)
(1.02098 -0.00629202 2.4581e-21)
(1.07297 -0.035527 2.53188e-20)
(1.00102 -0.00269588 0)
(1.01203 -0.0542624 1.82822e-22)
(0.952738 -0.0406293 1.36266e-20)
(1.03144 -0.030446 0)
(1.19537 0.0170625 1.18709e-20)
(0.643431 -0.572003 1.33249e-20)
(1.01727 -0.00207518 0)
(0.384168 0.0745126 8.97313e-20)
(0.0956588 0.0173193 -3.81831e-20)
(0.86696 -0.112772 -2.32955e-20)
(1.22181 -0.060758 3.69902e-22)
(0.991169 -0.778205 3.34479e-20)
(0.937892 -0.0766531 9.02917e-21)
(1.06112 0.0411866 1.43727e-20)
(1.09287 -0.0252348 -2.16551e-20)
(0.246186 0.0485124 6.80893e-20)
(1.07332 -0.031911 4.57734e-23)
(1.10442 0.0523483 0)
(1.00706 -0.0343333 0)
(0.216471 -0.100491 0)
(1.13026 -0.0190023 4.52735e-20)
(0.984035 -0.436309 -1.46961e-20)
(1.19955 0.0517668 1.91154e-20)
(-0.220404 -0.00986307 -1.98298e-19)
(1.07211 -0.0344158 -2.33753e-20)
(1.00051 -0.0278557 3.29923e-22)
(1.16133 -0.0492087 -3.65594e-20)
(1.3221 -0.129551 0)
(1.00936 -0.0531376 4.12797e-22)
(1.19032 -0.379203 7.69095e-20)
(0.978787 -0.0320646 -1.32693e-20)
(0.853763 0.098313 1.16091e-20)
(1.01493 -0.0555017 4.06635e-22)
(1.02933 -0.0134384 0)
(1.00991 -0.00572188 0)
(1.00213 -0.00176095 0)
(0.109283 0.0198322 0)
(0.828202 0.0989393 0)
(0.987903 -0.0249719 -1.39996e-20)
(1.16783 0.184025 0)
(0.957089 -0.125492 -1.63178e-20)
(0.745925 0.160192 -4.95683e-20)
(-0.103183 0.00728678 -2.61065e-20)
(1.17645 0.198206 -3.51423e-20)
(1.27907 -0.0127522 -7.66781e-20)
(1.03436 0.00416135 5.35427e-21)
(0.220089 0.0262375 1.32373e-20)
(1.11016 0.0816001 2.68378e-20)
(1.01641 -0.0325141 -4.06111e-22)
(1.12397 0.0294197 0)
(0.313376 0.0593211 2.76096e-20)
(0.240746 -0.0090379 7.64709e-22)
(1.05184 -0.0110301 -2.05412e-20)
(0.955682 -0.011959 2.17647e-20)
(1.01331 -0.0344102 0)
(1.01496 -0.00030336 -1.7369e-23)
(0.193799 0.0180387 6.44093e-21)
(1.19365 0.0223897 -7.645e-21)
(0.161378 0.0228406 -3.26014e-20)
(0.0603016 0.0252459 6.41197e-20)
(0.982467 -0.0225571 -7.79573e-21)
(1.00087 -0.00264128 -3.38926e-21)
(1.15486 -0.00322523 -1.80137e-20)
(1.00003 -0.000581795 1.01239e-21)
(1.01122 -0.0128937 3.36433e-22)
(0.953059 -0.0390465 -1.4073e-20)
(1.04624 0.009783 1.15334e-20)
(1.19861 0.015803 1.63272e-20)
(1.12785 -0.0179421 -2.23935e-20)
(1.22872 -0.226752 8.82088e-20)
(0.247185 0.0346142 2.73764e-20)
(1.16111 -0.147826 -4.82834e-20)
(0.999595 -0.00647156 2.72379e-21)
(0.952579 -0.0987666 -7.9742e-21)
(1.20696 -0.145779 -5.74634e-20)
(0.303004 0.0489316 0)
(1.10217 0.0504662 0)
(1.30551 -0.367803 -9.7928e-21)
(1.15191 -0.0527355 -3.02862e-20)
(0.987162 -0.0254542 8.63039e-21)
(1.16878 0.179845 0)
(0.834493 0.161915 7.66818e-20)
(1.01426 -0.049363 6.31715e-23)
(1.02631 -0.00371863 0)
(0.653268 -0.298892 3.72384e-22)
(0.130465 0.0293032 -6.2082e-20)
(1.23486 -0.236087 0)
(1.00224 -0.00171055 3.95103e-22)
(-0.0838821 0.00568479 3.05177e-21)
(-0.0639484 0.00340639 -3.50162e-22)
(1.32981 -0.134655 -1.35306e-20)
(1.02159 -0.00471454 0)
(-0.164472 -0.0169774 -5.02196e-20)
(-0.261109 -0.0053017 -3.90553e-20)
(0.491663 -0.189836 3.40312e-21)
(1.06299 -0.0377269 5.83998e-21)
(0.999377 -0.00114904 0)
(0.767984 0.0398196 0)
(1.00001 -0.000123276 0)
(1.1863 0.126951 0)
(-0.126744 0.00760436 -4.50081e-20)
(1.23524 -0.0207097 0)
(-0.205983 -0.0123868 4.22155e-20)
(1.16189 0.0603624 0)
(0.00800362 0.0184022 0)
(1.15921 0.0281399 -2.26864e-20)
(0.991243 -0.0351798 -5.82844e-21)
(0.956565 -0.0109426 -1.70888e-20)
(-0.205826 0.0114769 5.22804e-22)
(0.740858 0.174761 0)
(-0.278415 -0.00463328 5.24246e-20)
(0.52578 0.0661662 -3.13678e-20)
(1.03811 -0.00444978 0)
(1.18799 0.123765 -4.51401e-20)
(1.00002 -0.000458362 -2.15228e-21)
(1.16344 -0.0592014 2.02812e-20)
(1.15183 0.0770495 3.55994e-20)
(1.21681 -0.136976 -8.24443e-20)
(1.00002 -0.00586611 0)
(0.97137 -0.0828004 0)
(1.22077 0.0542334 -3.89551e-20)
(0.349072 0.0669152 -9.54076e-20)
(-0.194423 0.0129246 -6.42153e-20)
(-0.296211 -0.00143621 1.24831e-20)
(1.1151 -0.0774804 0)
(1.04505 -0.127761 6.66501e-21)
(1.22569 0.0866323 0)
(0.96778 -0.0155559 0)
(1.02832 -0.00741543 0)
(0.997199 -0.0130886 0)
(1.05845 0.0206294 1.09152e-20)
(1.12075 0.08747 3.40671e-20)
(0.996082 -0.00522059 6.52345e-21)
(1.14893 0.0743107 -5.40894e-20)
(1.0079 -0.012691 0)
(1.00313 -0.000190396 -1.50126e-22)
(1.00556 -0.00754338 -1.28013e-21)
(0.202044 0.0269011 -1.18915e-19)
(0.964897 -0.0169586 0)
(1.00002 -0.000409718 6.30273e-22)
(1.15153 -0.00451584 0)
(1.1511 -0.0262825 2.17275e-20)
(1.01746 -0.00223105 -2.41331e-21)
(-0.157954 0.00433737 -1.058e-21)
(1.03848 -0.00895152 6.75546e-21)
(1.02973 0.00263403 3.49029e-21)
(1.15538 -0.0719563 -4.22977e-20)
(0.889061 -0.137918 -2.37705e-22)
(1.06633 0.00659863 0)
(1.02935 -0.0528868 0)
(1.3302 -0.365656 2.31466e-20)
(0.865528 -0.118396 0)
(1.07085 -0.120175 -1.16499e-20)
(0.859792 0.163637 -5.72367e-20)
(1.07435 -0.118896 0)
(0.661037 0.14473 0)
(0.908065 -0.0238184 0)
(1.19609 0.0211118 4.23846e-21)
(0.494826 -0.238329 5.80342e-20)
(0.168894 0.0130298 3.90166e-21)
(1.02578 -0.00362172 4.02994e-21)
(0.262648 0.0494914 0)
(1.25348 0.0352748 0)
(1.01257 -0.00365766 5.68099e-23)
(-0.0364445 0.0102247 1.22697e-20)
(0.998301 -0.00583227 7.27687e-21)
(1.00601 -0.00754266 0)
(1.12513 -0.0282365 0)
(1.00415 -0.00700956 0)
(1.1529 -0.243793 -9.38887e-20)
(0.282143 0.0477002 -1.32032e-20)
(1.02094 -0.0056173 5.39969e-21)
(0.190058 -0.119272 9.32862e-21)
(1.03379 0.00400482 -9.76545e-21)
(1.11965 -0.0480236 -4.63397e-20)
(0.766271 0.189683 0)
(1.01723 -0.00169515 8.35581e-22)
(0.118186 0.026275 -7.197e-20)
(1.01677 -0.0681723 -8.83114e-22)
(1.03828 -0.012476 -1.42915e-22)
(0.99816 -0.018187 5.6307e-21)
(0.99691 -0.0134185 -1.5744e-21)
(1.23478 -0.00960518 0)
(0.739704 -0.212468 2.58128e-20)
(-0.202663 0.00496076 1.04701e-19)
(1.16623 -0.146673 5.35623e-20)
(0.176835 0.0383587 -3.63155e-20)
(1.15631 -0.00888475 1.72363e-20)
(0.996254 -0.00504523 -6.71916e-23)
(1.22423 0.0599485 2.53758e-20)
(-0.281825 -0.00464372 -4.93709e-20)
(1.27472 -0.00946922 1.36189e-19)
(0.755518 -0.236364 0)
(1.22557 -0.0209843 5.37922e-20)
(1.10487 0.0841713 0)
(1.07299 -0.0599728 1.46598e-20)
(1.23634 -0.0132156 6.92772e-20)
(1.02663 -0.050797 2.4105e-21)
(1.29205 -0.451035 0)
(1.00232 -0.00107589 6.86585e-22)
(-0.151947 -0.0233319 0)
(1.05321 -0.00933961 0)
(0.773015 -0.244014 0)
(0.932864 -0.0927357 2.30368e-20)
(1.04216 -0.0274785 -8.86662e-21)
(1.0279 0.010254 5.26456e-20)
(0.955252 -0.00895996 0)
(1.01052 -0.0124726 0)
(1.31524 -0.0578359 0)
(1.01472 -0.0688125 3.78737e-22)
(1.00545 -0.00774935 1.76694e-21)
(1.12586 0.0149123 -3.67753e-20)
(1.19233 -0.066686 -2.89319e-20)
(1.23653 -0.00800603 -3.67718e-20)
(1.33172 -0.123187 0)
(1.03331 0.163067 0)
(-0.100825 0.0137142 6.37854e-20)
(1.00094 -0.00261341 0)
(0.999474 -0.00108871 0)
(-0.0693118 0.00644005 5.9462e-20)
(0.99571 -0.00865148 5.59556e-21)
(1.28506 -0.281825 -1.07182e-19)
(1.16481 0.0629122 -2.66432e-20)
(1.05951 -0.0382522 -1.6169e-20)
(0.996019 -0.00187564 -2.7852e-21)
(1.06841 -0.110545 -1.80612e-20)
(0.990564 -0.00156114 -4.5471e-21)
(1.03729 -0.0123879 -2.85739e-21)
(1.08974 0.00283122 -2.39702e-20)
(1.28165 -0.272735 9.41639e-20)
(1.23224 -0.221898 -3.55672e-20)
(0.653996 -0.317034 -6.81399e-20)
(1.13426 -0.170056 2.17892e-20)
(1.00079 -0.00381662 0)
(1.13278 0.0515924 0)
(0.748969 0.0387427 -1.16696e-19)
(1.0074 -0.0121003 3.52195e-22)
(1.15098 0.0806314 -2.3857e-20)
(1.06489 -0.0245958 -1.08417e-20)
(0.280706 0.0502755 -6.59988e-20)
(0.956509 -0.0431145 3.51603e-20)
(0.00770866 0.0036231 5.71254e-20)
(1.00241 -0.000953113 -6.53576e-23)
(1.25511 0.0284451 0)
(1.00002 -0.000304776 -7.88867e-22)
(1.16775 0.0403869 6.62893e-20)
(1.01592 -0.0332051 7.63493e-22)
(1.05757 0.0195792 0)
(1.06201 0.0379064 -1.56113e-20)
(1.01742 -0.00184822 0)
(1.02918 0.0026691 -3.67223e-21)
(1.0168 -0.00313208 -2.94943e-21)
(0.784272 0.110398 -3.8453e-20)
(-0.136049 -0.00146839 1.12135e-19)
(1.09786 0.0151583 4.15183e-20)
(0.155044 0.0290596 7.01902e-20)
(0.986232 -0.0249858 2.06621e-22)
(1.12089 0.0153169 0)
(1.08903 -0.0407939 8.45451e-21)
(1.23204 0.0363048 -3.31797e-20)
(-0.0714001 -0.0300635 -4.19537e-20)
(1.09769 0.0171613 0)
(1.01955 -0.00204798 0)
(1.00294 -0.440133 -1.24332e-20)
(1.00779 -0.0123149 -3.33228e-22)
(0.985836 -0.0242945 0)
(1.09009 -0.0361507 -9.69893e-21)
(-0.182398 0.00781645 0)
(0.694964 -0.00274758 -1.03509e-20)
(1.26801 -0.00609746 -1.40639e-21)
(1.15847 0.191435 0)
(0.726061 -0.21376 8.19141e-21)
(0.949133 -0.0194024 -1.1124e-20)
(1.00718 -0.0267006 0)
(1.31037 -0.439868 2.08901e-21)
(1.00589 -0.00774228 -7.10173e-22)
(1.2965 -0.0311168 -7.29072e-20)
(1.08944 -0.0229718 9.97677e-21)
(0.999242 -0.00154879 0)
(0.37506 0.0452543 5.13548e-20)
(0.339298 0.0453773 1.57453e-20)
(0.99704 -0.00122417 -1.26997e-20)
(-0.189224 0.00484276 -1.28416e-19)
(1.05013 -0.08757 0)
(1.07877 0.143968 -7.95261e-21)
(0.942038 -0.340924 0)
(1.10654 0.183674 0)
(0.308511 0.0446077 0)
(1.28096 -0.335421 0)
(1.00298 -0.000709904 0)
(1.01509 4.59917e-05 1.90654e-21)
(0.259003 0.0364553 -2.35593e-20)
(1.00324 -0.0319673 -3.23289e-21)
(1.03245 -0.019791 0)
(1.09179 -0.0230614 2.14345e-20)
(1.00175 -0.0327158 0)
(0.841463 0.136615 -1.97802e-20)
(1.17086 0.169119 2.04495e-20)
(1.15732 -0.00528294 2.76767e-20)
(0.0699339 0.0336727 0)
(1.14018 -0.00164581 -1.32915e-20)
(1.16886 0.100533 1.75619e-20)
(1.06402 -0.0238206 0)
(1.0032 -0.00427741 0)
(1.0153 -0.00131949 2.24808e-21)
(1.0103 -0.00689901 6.99925e-22)
(-0.178493 0.00623524 0)
(0.187169 0.0129798 0)
(1.14584 0.200594 -1.87714e-20)
(0.995798 -0.00166604 -2.42105e-21)
(1.0193 -0.0018453 6.1326e-22)
(1.06278 0.0394059 0)
(1.01719 -0.0220864 0)
(1.12682 -0.0309261 2.35367e-20)
(0.974433 -0.0880101 1.74089e-20)
(1.25251 -0.493959 0)
(0.375678 0.0619198 0)
(1.14995 0.0708387 0)
(1.2267 0.0957987 -3.85419e-22)
(1.15048 0.200102 4.1906e-20)
(1.0314 -0.0184152 1.00531e-20)
(1.23484 -0.0151008 -6.48846e-20)
(1.00763 -0.0271111 9.76578e-22)
(-0.0638898 -0.0289475 0)
(1.25626 0.0331226 0)
(-0.00397919 -0.0262787 -1.71614e-22)
(0.933801 0.0308115 4.74646e-20)
(1.04714 0.00971322 -1.29375e-20)
(1.08992 0.0049174 4.96447e-20)
(1.18802 -0.679364 -7.27219e-20)
(0.0626863 0.0338756 -2.53026e-21)
(0.0288408 -0.0303388 8.61219e-20)
(0.792179 -0.110735 0)
(1.21264 -0.148368 1.22582e-20)
(-0.153134 0.0116835 2.5217e-20)
(1.00212 -0.00206652 -6.14666e-22)
(1.22342 0.0885461 0)
(0.587117 -0.651561 -3.62562e-20)
(1.13067 0.133429 2.65103e-20)
(1.00222 -0.0019952 0)
(1.03432 -0.0206144 -9.52975e-21)
(1.12774 -0.0146249 0)
(0.0364869 0.0224157 -3.59175e-20)
(0.347214 -0.686815 3.73047e-20)
(1.03135 -0.317431 -2.3771e-20)
(0.988744 -0.00870361 8.88086e-21)
(1.05734 0.0172276 0)
(0.891598 -0.0612289 0)
(0.161665 -0.188637 0)
(1.0411 -0.0267766 0)
(1.26325 -0.30252 0)
(1.00468 -0.0153763 0)
(0.988625 -0.0533226 4.60348e-21)
(1.24232 -0.0668283 6.5814e-20)
(1.00728 -0.0117613 -4.77011e-22)
(0.998896 -0.00812584 3.21524e-21)
(1.04288 -0.050565 0)
(1.00725 -0.101943 -5.10246e-22)
(1.00349 -0.00427484 -1.34106e-21)
(1.027 -0.049981 2.59401e-21)
(1.02214 -0.00473051 -6.41267e-21)
(1.06746 0.171747 9.72566e-21)
(1.10584 0.229341 3.2271e-20)
(0.236849 0.022039 0)
(1.02529 -0.00434285 0)
(0.878572 -0.212612 0)
(0.993242 -0.00267541 -7.29835e-21)
(1.22645 0.0620983 -8.89446e-20)
(1.23002 0.0223497 0)
(1.0353 -0.157695 1.33475e-20)
(1.00435 -0.0154535 0)
(1.05302 -0.00430944 0)
(1.1906 -0.404326 -4.0621e-21)
(1.19209 0.0561384 0)
(1.09513 -0.0250904 0)
(-0.129427 0.00654187 0)
(1.12627 0.133834 -2.04166e-20)
(0.993173 -0.0241842 3.64399e-22)
(0.982977 -0.0234789 1.57813e-20)
(0.685852 0.151029 -5.76781e-21)
(-0.0835129 -0.0365951 -2.32268e-19)
(1.11853 -0.189558 1.81176e-20)
(1.01681 -0.00427213 0)
(1.17703 0.213551 0)
(1.00093 -0.00360215 0)
(1.11644 -0.047736 -3.68454e-20)
(1.02073 -0.0077897 5.54686e-21)
(1.31636 -0.145119 0)
(-0.0461275 0.00482515 6.3823e-20)
(1.00725 -0.0080566 0)
(1.03903 -0.000743654 0)
(1.29216 -0.0248135 0)
(1.00017 -0.0286187 3.75063e-22)
(0.730745 0.0565863 6.21155e-21)
(-0.253329 0.00871018 8.84941e-21)
(1.12949 0.0555957 4.13652e-20)
(0.966386 -0.0145104 1.2507e-20)
(0.999082 -0.00237036 1.93721e-21)
(1.02087 -0.00759231 -8.26752e-21)
(1.00231 -0.000782525 1.39276e-21)
(-0.248864 0.00333701 0)
(1.30467 -0.213197 0)
(1.22206 -0.129118 9.93633e-20)
(1.03704 -0.0474099 3.32117e-21)
(-0.00850046 0.0126186 2.77763e-20)
(1.00526 -0.000270784 -3.90612e-23)
(0.995888 -0.0173225 8.06552e-22)