/*--------------------------------*- C++ -*----------------------------------*\
| =========                 |                                                 |
| \\      /  F ield         | OpenFOAM: The Open Source CFD Toolbox           |
|  \\    /   O peration     | Version:  v2012                                 |
|   \\  /    A nd           | Website:  www.openfoam.com                      |
|    \\/     M anipulation  |                                                 |
\*---------------------------------------------------------------------------*/
FoamFile
{
    version     2.0;
    format      ascii;
    class       volVectorField;
    location    "300";
    object      cellDisplacement;
}
// * * * * * * * * * * * * * * * * * * * * * * * * * * * * * * * * * * * * * //

dimensions      [0 1 0 0 0 0 0];


internalField   nonuniform List<vector> 
18355
(
(0 -1.84622e-06 0)
(0 3.07781e-06 0)
(0 -6.48118e-06 0)
(0 1.50783e-06 0)
(0 -4.80392e-05 0)
(0 -3.18364e-06 0)
(0 -3.80748e-06 0)
(0 -1.3047e-06 0)
(0 -2.6428e-06 0)
(0 3.0785e-06 0)
(0 -4.56752e-05 0)
(0 3.07966e-06 0)
(0 9.12453e-07 0)
(0 -1.27291e-05 0)
(0 -9.68069e-06 0)
(0 -1.85963e-06 0)
(0 3.07758e-06 0)
(0 -5.75634e-06 0)
(0 -5.53631e-06 0)
(0 2.76538e-06 0)
(0 -6.3516e-07 0)
(0 -3.76218e-06 0)
(0 3.06551e-06 0)
(0 -4.95973e-05 0)
(0 -4.25321e-05 0)
(0 3.33426e-06 0)
(0 -4.16121e-06 0)
(0 -2.70813e-06 0)
(0 3.01758e-06 0)
(0 -6.56225e-06 0)
(0 -6.13289e-05 0)
(0 -4.31883e-05 0)
(0 -5.24291e-06 0)
(0 5.69358e-06 0)
(0 1.2075e-06 0)
(0 -1.70012e-06 0)
(0 -4.41091e-06 0)
(0 2.76943e-06 0)
(0 -2.79014e-06 0)
(0 -4.46164e-05 0)
(0 -1.26572e-05 0)
(0 2.75655e-06 0)
(0 -6.55022e-06 0)
(0 3.07724e-06 0)
(0 7.9355e-08 0)
(0 2.79377e-06 0)
(0 -1.80868e-07 0)
(0 -1.60332e-06 0)
(0 -7.02493e-07 0)
(0 -6.31621e-06 0)
(0 -2.03275e-05 0)
(0 -9.12964e-06 0)
(0 9.76133e-07 0)
(0 3.04803e-06 0)
(0 4.52207e-06 0)
(0 4.66469e-06 0)
(0 -5.2228e-06 0)
(0 -9.36072e-06 0)
(0 3.0775e-06 0)
(0 2.38898e-06 0)
(0 -6.03451e-06 0)
(0 -3.39237e-06 0)
(0 -5.94106e-06 0)
(0 1.81269e-06 0)
(0 3.07917e-06 0)
(0 -2.2203e-06 0)
(0 3.07855e-06 0)
(0 1.14253e-06 0)
(0 -3.45627e-06 0)
(0 -3.85093e-06 0)
(0 1.01681e-06 0)
(0 3.37179e-06 0)
(0 2.45677e-06 0)
(0 -4.50338e-06 0)
(0 -1.19901e-06 0)
(0 -4.78092e-06 0)
(0 2.9363e-06 0)
(0 -4.03974e-05 0)
(0 -3.16557e-05 0)
(0 -9.25854e-06 0)
(0 -2.43319e-06 0)
(0 2.99314e-06 0)
(0 -7.80767e-07 0)
(0 1.68704e-06 0)
(0 2.45583e-06 0)
(0 7.90286e-07 0)
(0 3.06556e-06 0)
(0 2.71931e-06 0)
(0 3.03366e-06 0)
(0 3.05031e-06 0)
(0 2.19567e-06 0)
(0 2.63341e-08 0)
(0 6.89888e-06 0)
(0 -2.85523e-05 0)
(0 3.07726e-06 0)
(0 3.06858e-06 0)
(0 -1.71978e-05 0)
(0 -2.24962e-05 0)
(0 3.05563e-06 0)
(0 3.07744e-06 0)
(0 3.07498e-06 0)
(0 3.07762e-06 0)
(0 9.57256e-07 0)
(0 2.7245e-06 0)
(0 -5.36406e-05 0)
(0 -7.76477e-09 0)
(0 3.07782e-06 0)
(0 2.78452e-06 0)
(0 -7.41646e-06 0)
(0 3.04095e-06 0)
(0 -6.36162e-06 0)
(0 -2.87209e-06 0)
(0 1.97002e-06 0)
(0 -2.70412e-06 0)
(0 3.05326e-06 0)
(0 5.96494e-06 0)
(0 3.0778e-06 0)
(0 2.93737e-06 0)
(0 3.07722e-06 0)
(0 1.04211e-06 0)
(0 3.07774e-06 0)
(0 2.94452e-06 0)
(0 -4.16065e-05 0)
(0 1.09986e-06 0)
(0 -1.66796e-05 0)
(0 2.81759e-06 0)
(0 -9.37265e-06 0)
(0 2.24072e-06 0)
(0 3.01656e-06 0)
(0 -2.5693e-05 0)
(0 -1.89494e-05 0)
(0 2.81455e-06 0)
(0 -4.98571e-06 0)
(0 -2.34589e-05 0)
(0 2.09466e-06 0)
(0 2.04977e-06 0)
(0 -1.06453e-05 0)
(0 -4.74811e-05 0)
(0 -9.47473e-06 0)
(0 2.12822e-06 0)
(0 3.07444e-06 0)
(0 3.05776e-06 0)
(0 -3.63189e-06 0)
(0 -6.4435e-06 0)
(0 3.04342e-06 0)
(0 -4.19926e-06 0)
(0 -4.93132e-07 0)
(0 3.06349e-06 0)
(0 -2.39881e-05 0)
(0 3.06188e-06 0)
(0 -4.08742e-05 0)
(0 -3.93125e-06 0)
(0 1.1021e-06 0)
(0 3.07724e-06 0)
(0 -5.87623e-06 0)
(0 1.17302e-06 0)
(0 2.79614e-06 0)
(0 3.07715e-06 0)
(0 1.37599e-06 0)
(0 -2.59715e-06 0)
(0 -8.12734e-07 0)
(0 -5.16709e-06 0)
(0 6.63554e-07 0)
(0 -2.3649e-05 0)
(0 1.59415e-07 0)
(0 3.07287e-06 0)
(0 3.07075e-06 0)
(0 -5.43812e-07 0)
(0 2.19475e-06 0)
(0 -5.33702e-06 0)
(0 2.56038e-06 0)
(0 3.07137e-06 0)
(0 -3.77429e-05 0)
(0 -4.14543e-05 0)
(0 -1.97245e-06 0)
(0 3.0769e-06 0)
(0 -1.32384e-05 0)
(0 5.33526e-06 0)
(0 3.00502e-06 0)
(0 3.072e-06 0)
(0 2.7932e-06 0)
(0 2.17982e-06 0)
(0 -1.48333e-05 0)
(0 -6.53241e-06 0)
(0 1.10671e-06 0)
(0 3.07634e-06 0)
(0 3.05405e-06 0)
(0 1.73028e-06 0)
(0 -2.3303e-06 0)
(0 3.07775e-06 0)
(0 -5.8094e-06 0)
(0 -6.65163e-06 0)
(0 -2.45314e-05 0)
(0 2.744e-06 0)
(0 2.32512e-06 0)
(0 -3.42729e-06 0)
(0 2.85417e-06 0)
(0 -1.55616e-05 0)
(0 -8.45541e-06 0)
(0 -3.89077e-05 0)
(0 -2.27126e-05 0)
(0 -1.54773e-06 0)
(0 3.07185e-06 0)
(0 3.05922e-06 0)
(0 3.07726e-06 0)
(0 -1.14985e-07 0)
(0 3.07773e-06 0)
(0 3.07627e-06 0)
(0 3.07283e-06 0)
(0 -8.98716e-06 0)
(0 -1.02388e-05 0)
(0 -4.06799e-05 0)
(0 2.71561e-06 0)
(0 -3.74772e-06 0)
(0 -4.77122e-06 0)
(0 2.98138e-06 0)
(0 1.92655e-06 0)
(0 2.76443e-06 0)
(0 2.03467e-06 0)
(0 -2.42434e-05 0)
(0 2.93982e-06 0)
(0 -8.59814e-06 0)
(0 1.61448e-06 0)
(0 -1.08208e-05 0)
(0 3.07291e-06 0)
(0 -4.25145e-06 0)
(0 3.07959e-06 0)
(0 3.07568e-06 0)
(0 2.93884e-06 0)
(0 -9.95564e-06 0)
(0 1.11111e-06 0)
(0 -3.30558e-05 0)
(0 -1.82158e-06 0)
(0 3.07885e-06 0)
(0 -4.65638e-06 0)
(0 5.20046e-06 0)
(0 5.90177e-06 0)
(0 2.84821e-06 0)
(0 2.41374e-06 0)
(0 3.07726e-06 0)
(0 -7.90189e-06 0)
(0 2.24624e-06 0)
(0 -6.29919e-05 0)
(0 -5.11653e-06 0)
(0 -4.03617e-06 0)
(0 3.07677e-06 0)
(0 2.96886e-06 0)
(0 3.07745e-06 0)
(0 -6.42291e-06 0)
(0 -9.67054e-07 0)
(0 -2.19215e-05 0)
(0 3.07717e-06 0)
(0 -1.56572e-05 0)
(0 3.07115e-06 0)
(0 -4.31434e-06 0)
(0 3.08738e-06 0)
(0 1.90607e-06 0)
(0 -2.40126e-06 0)
(0 -5.69381e-06 0)
(0 4.15987e-06 0)
(0 -2.34392e-06 0)
(0 1.20161e-06 0)
(0 3.07007e-06 0)
(0 -4.53888e-06 0)
(0 -2.803e-06 0)
(0 -3.8789e-06 0)
(0 1.3767e-06 0)
(0 2.28758e-06 0)
(0 2.56295e-06 0)
(0 2.89411e-06 0)
(0 -2.70036e-06 0)
(0 3.05151e-06 0)
(0 1.85851e-06 0)
(0 -1.67115e-07 0)
(0 -1.38796e-05 0)
(0 2.85456e-06 0)
(0 -9.44428e-06 0)
(0 -8.7132e-06 0)
(0 3.07048e-06 0)
(0 2.85599e-06 0)
(0 -4.91298e-06 0)
(0 1.23328e-07 0)
(0 -5.65538e-06 0)
(0 3.07516e-06 0)
(0 -1.62979e-05 0)
(0 -1.28465e-06 0)
(0 2.63861e-06 0)
(0 -3.70641e-07 0)
(0 3.0785e-06 0)
(0 -4.19789e-05 0)
(0 2.91733e-06 0)
(0 -1.19788e-05 0)
(0 2.83234e-07 0)
(0 3.07102e-06 0)
(0 1.42341e-06 0)
(0 4.50823e-07 0)
(0 2.03504e-06 0)
(0 1.02792e-06 0)
(0 -6.47517e-06 0)
(0 3.01926e-06 0)
(0 -8.26313e-06 0)
(0 1.0667e-06 0)
(0 -3.558e-06 0)
(0 6.05346e-07 0)
(0 3.00814e-06 0)
(0 4.20813e-07 0)
(0 3.54142e-07 0)
(0 4.5389e-07 0)
(0 -2.42104e-05 0)
(0 2.82903e-06 0)
(0 -5.67906e-05 0)
(0 -5.44813e-06 0)
(0 2.9553e-06 0)
(0 -6.32341e-06 0)
(0 2.31047e-06 0)
(0 2.75337e-06 0)
(0 6.2103e-06 0)
(0 -7.07456e-07 0)
(0 2.27802e-06 0)
(0 3.07708e-06 0)
(0 3.07452e-06 0)
(0 -7.34301e-06 0)
(0 5.09589e-07 0)
(0 3.07729e-06 0)
(0 -5.01811e-05 0)
(0 2.42117e-06 0)
(0 -3.61291e-05 0)
(0 1.16869e-06 0)
(0 2.33915e-06 0)
(0 -2.1111e-05 0)
(0 3.07456e-06 0)
(0 -5.42524e-06 0)
(0 2.18929e-06 0)
(0 4.78862e-06 0)
(0 -6.74e-06 0)
(0 3.08152e-06 0)
(0 1.04804e-06 0)
(0 3.07382e-06 0)
(0 -5.54163e-06 0)
(0 -7.8027e-06 0)
(0 -2.92886e-07 0)
(0 -3.29251e-06 0)
(0 2.77431e-06 0)
(0 3.04205e-06 0)
(0 2.70173e-06 0)
(0 -4.47832e-06 0)
(0 -5.39395e-06 0)
(0 3.06998e-06 0)
(0 2.67114e-06 0)
(0 7.17903e-06 0)
(0 -4.83688e-06 0)
(0 5.31751e-07 0)
(0 1.10965e-06 0)
(0 3.07722e-06 0)
(0 3.06672e-06 0)
(0 -3.3157e-06 0)
(0 -1.90097e-05 0)
(0 3.07746e-06 0)
(0 -6.34134e-06 0)
(0 -4.82696e-06 0)
(0 2.13962e-06 0)
(0 -9.52631e-06 0)
(0 -2.9703e-05 0)
(0 3.07601e-06 0)
(0 6.85036e-07 0)
(0 2.32168e-06 0)
(0 2.9569e-06 0)
(0 3.07726e-06 0)
(0 3.79039e-06 0)
(0 -7.36135e-06 0)
(0 -9.74483e-06 0)
(0 -1.48528e-05 0)
(0 2.68607e-06 0)
(0 -1.53312e-05 0)
(0 -2.35355e-07 0)
(0 -9.7776e-06 0)
(0 -3.73242e-06 0)
(0 -2.89573e-06 0)
(0 -2.75502e-06 0)
(0 -2.99954e-05 0)
(0 -6.69329e-06 0)
(0 -2.79568e-05 0)
(0 -2.86325e-05 0)
(0 -2.35698e-06 0)
(0 2.93601e-06 0)
(0 3.03712e-06 0)
(0 -1.11919e-05 0)
(0 2.83881e-06 0)
(0 1.51807e-06 0)
(0 3.02111e-06 0)
(0 -1.12218e-05 0)
(0 7.38566e-07 0)
(0 -3.81105e-06 0)
(0 2.81561e-06 0)
(0 -4.67271e-06 0)
(0 5.39512e-06 0)
(0 4.07332e-06 0)
(0 -2.3273e-06 0)
(0 3.05064e-06 0)
(0 -9.07465e-06 0)
(0 -1.0033e-06 0)
(0 -3.82176e-06 0)
(0 -3.89235e-07 0)
(0 -6.20486e-06 0)
(0 -5.1906e-05 0)
(0 3.07858e-06 0)
(0 -3.68128e-06 0)
(0 -9.21351e-06 0)
(0 3.07702e-06 0)
(0 -4.81424e-06 0)
(0 3.07739e-06 0)
(0 3.07726e-06 0)
(0 2.11004e-06 0)
(0 -7.02392e-07 0)
(0 -5.51703e-05 0)
(0 3.07833e-06 0)
(0 4.019e-06 0)
(0 -6.22201e-06 0)
(0 3.07814e-06 0)
(0 -7.84907e-07 0)
(0 -3.52544e-05 0)
(0 3.07762e-06 0)
(0 -4.51831e-06 0)
(0 3.08107e-06 0)
(0 -1.36074e-05 0)
(0 -1.0773e-05 0)
(0 3.07728e-06 0)
(0 -3.84811e-06 0)
(0 -5.89073e-06 0)
(0 2.89974e-06 0)
(0 -3.5444e-06 0)
(0 2.51816e-06 0)
(0 2.72397e-06 0)
(0 -1.00308e-05 0)
(0 -6.2103e-06 0)
(0 -4.3054e-06 0)
(0 2.51824e-06 0)
(0 2.06497e-06 0)
(0 -5.43452e-06 0)
(0 7.74531e-07 0)
(0 -3.69199e-06 0)
(0 2.39581e-06 0)
(0 3.07766e-06 0)
(0 -4.11429e-07 0)
(0 -4.57702e-06 0)
(0 1.29277e-06 0)
(0 -1.14343e-05 0)
(0 2.2581e-06 0)
(0 3.06901e-06 0)
(0 3.08727e-06 0)
(0 2.87752e-06 0)
(0 2.45144e-06 0)
(0 2.34849e-06 0)
(0 3.07698e-06 0)
(0 -4.43448e-05 0)
(0 -5.9176e-06 0)
(0 -1.19396e-05 0)
(0 -1.13418e-05 0)
(0 2.66466e-06 0)
(0 -7.42615e-06 0)
(0 -1.03562e-06 0)
(0 3.0775e-06 0)
(0 2.42846e-06 0)
(0 -5.91825e-07 0)
(0 3.04315e-06 0)
(0 2.51445e-06 0)
(0 3.07698e-06 0)
(0 -7.14626e-06 0)
(0 -2.97253e-05 0)
(0 -6.6646e-06 0)
(0 -1.55417e-06 0)
(0 6.59892e-07 0)
(0 1.04689e-06 0)
(0 -8.28636e-06 0)
(0 3.03765e-06 0)
(0 -7.54356e-06 0)
(0 -1.47334e-05 0)
(0 2.92387e-06 0)
(0 2.33109e-06 0)
(0 -6.57006e-06 0)
(0 -3.81512e-05 0)
(0 2.51218e-06 0)
(0 3.07267e-06 0)
(0 -2.08717e-06 0)
(0 -1.91491e-05 0)
(0 2.77589e-06 0)
(0 -1.66808e-06 0)
(0 3.01391e-06 0)
(0 -3.60619e-05 0)
(0 -1.42787e-05 0)
(0 3.07762e-06 0)
(0 2.33304e-06 0)
(0 -2.53331e-06 0)
(0 3.06941e-06 0)
(0 3.072e-06 0)
(0 3.07827e-06 0)
(0 -1.37975e-05 0)
(0 -1.93397e-05 0)
(0 -1.96261e-06 0)
(0 4.91035e-09 0)
(0 -4.42842e-06 0)
(0 3.03694e-06 0)
(0 2.44624e-06 0)
(0 2.81051e-06 0)
(0 2.96153e-06 0)
(0 -2.45858e-06 0)
(0 -1.43321e-05 0)
(0 3.07318e-06 0)
(0 3.06881e-06 0)
(0 2.99094e-06 0)
(0 -5.36481e-06 0)
(0 -5.02303e-07 0)
(0 -7.64101e-07 0)
(0 3.07561e-06 0)
(0 3.07809e-06 0)
(0 2.28731e-06 0)
(0 -4.18297e-06 0)
(0 -9.31512e-06 0)
(0 8.41483e-07 0)
(0 2.14004e-06 0)
(0 -7.792e-06 0)
(0 2.86783e-06 0)
(0 -6.04094e-07 0)
(0 3.04497e-06 0)
(0 -9.33738e-06 0)
(0 -3.79293e-06 0)
(0 4.81039e-06 0)
(0 1.03958e-06 0)
(0 3.45116e-07 0)
(0 2.22792e-06 0)
(0 -4.106e-06 0)
(0 -7.13082e-07 0)
(0 3.07213e-06 0)
(0 -2.28833e-05 0)
(0 -5.70318e-06 0)
(0 -1.61532e-06 0)
(0 -2.58035e-05 0)
(0 -2.3046e-07 0)
(0 -4.9115e-06 0)
(0 -8.96443e-06 0)
(0 -2.29727e-05 0)
(0 2.51928e-06 0)
(0 -4.68234e-06 0)
(0 -1.86181e-06 0)
(0 -1.17901e-05 0)
(0 6.48899e-07 0)
(0 -4.64544e-07 0)
(0 -3.07918e-05 0)
(0 -3.06967e-06 0)
(0 -6.89454e-06 0)
(0 -5.05726e-05 0)
(0 2.37316e-06 0)
(0 -1.6285e-05 0)
(0 1.39248e-06 0)
(0 -3.75969e-06 0)
(0 2.68688e-06 0)
(0 -1.44467e-06 0)
(0 3.05354e-06 0)
(0 -1.7355e-05 0)
(0 3.07726e-06 0)
(0 -6.5917e-07 0)
(0 -1.56429e-06 0)
(0 2.02729e-06 0)
(0 2.37758e-06 0)
(0 3.01772e-06 0)
(0 -2.40606e-05 0)
(0 -9.58137e-06 0)
(0 -1.32658e-05 0)
(0 -8.90066e-06 0)
(0 -2.6144e-06 0)
(0 -7.57994e-08 0)
(0 1.14238e-06 0)
(0 2.57772e-06 0)
(0 3.05186e-06 0)
(0 -1.76245e-07 0)
(0 5.11454e-06 0)
(0 3.07175e-06 0)
(0 2.85243e-06 0)
(0 -3.96444e-05 0)
(0 -9.09844e-06 0)
(0 1.40113e-06 0)
(0 3.0567e-06 0)
(0 -2.09447e-06 0)
(0 -6.87307e-07 0)
(0 2.59462e-06 0)
(0 2.47713e-06 0)
(0 1.35378e-06 0)
(0 8.20281e-07 0)
(0 3.07305e-06 0)
(0 -2.18994e-05 0)
(0 -2.65223e-08 0)
(0 3.07748e-06 0)
(0 2.3627e-06 0)
(0 2.95927e-06 0)
(0 2.52853e-06 0)
(0 2.82871e-06 0)
(0 -1.47192e-05 0)
(0 5.33662e-06 0)
(0 -3.94715e-05 0)
(0 -6.54294e-06 0)
(0 3.03358e-06 0)
(0 3.0347e-06 0)
(0 3.076e-06 0)
(0 2.91151e-06 0)
(0 3.07828e-06 0)
(0 3.07593e-06 0)
(0 2.53954e-06 0)
(0 -1.72096e-06 0)
(0 3.07704e-06 0)
(0 3.04414e-06 0)
(0 -4.62523e-05 0)
(0 2.9448e-06 0)
(0 3.0755e-06 0)
(0 2.92425e-06 0)
(0 -3.69722e-07 0)
(0 2.38869e-06 0)
(0 -2.21349e-05 0)
(0 -2.56523e-05 0)
(0 -2.68904e-05 0)
(0 2.81199e-07 0)
(0 -6.3768e-06 0)
(0 3.07726e-06 0)
(0 -2.22861e-06 0)
(0 -9.94312e-07 0)
(0 3.0749e-06 0)
(0 -6.51204e-06 0)
(0 5.30317e-07 0)
(0 2.96534e-06 0)
(0 -5.94845e-06 0)
(0 -9.56488e-06 0)
(0 3.07111e-06 0)
(0 7.72568e-06 0)
(0 -7.6154e-07 0)
(0 -1.95831e-05 0)
(0 3.07602e-06 0)
(0 -2.37773e-05 0)
(0 -1.21414e-05 0)
(0 1.23806e-06 0)
(0 -4.31263e-06 0)
(0 -1.18266e-07 0)
(0 -1.12731e-06 0)
(0 3.05087e-06 0)
(0 -5.78236e-06 0)
(0 -5.53479e-05 0)
(0 3.0773e-06 0)
(0 -1.2019e-05 0)
(0 3.0746e-06 0)
(0 3.08932e-06 0)
(0 2.90672e-06 0)
(0 2.17548e-06 0)
(0 -6.49374e-06 0)
(0 -5.98983e-06 0)
(0 3.07376e-06 0)
(0 -1.5051e-06 0)
(0 -4.72537e-06 0)
(0 -8.46399e-07 0)
(0 -1.44204e-05 0)
(0 2.86123e-06 0)
(0 2.99127e-06 0)
(0 -2.68896e-07 0)
(0 3.07725e-06 0)
(0 2.6277e-06 0)
(0 -3.20672e-06 0)
(0 1.14471e-06 0)
(0 -5.73906e-07 0)
(0 -3.45701e-06 0)
(0 2.5212e-06 0)
(0 -2.99368e-05 0)
(0 3.00893e-06 0)
(0 5.65567e-08 0)
(0 1.07779e-06 0)
(0 1.59882e-06 0)
(0 3.07139e-06 0)
(0 3.07961e-06 0)
(0 -6.62286e-06 0)
(0 -4.21404e-05 0)
(0 -3.78163e-06 0)
(0 -6.88432e-07 0)
(0 -3.32359e-06 0)
(0 3.07436e-06 0)
(0 2.95007e-06 0)
(0 -4.06186e-06 0)
(0 -8.58387e-06 0)
(0 -1.92651e-06 0)
(0 -5.24672e-07 0)
(0 -3.16605e-05 0)
(0 2.62263e-06 0)
(0 -6.93777e-06 0)
(0 3.07076e-06 0)
(0 -5.54292e-06 0)
(0 -4.65431e-06 0)
(0 3.03075e-06 0)
(0 3.07215e-06 0)
(0 -3.60679e-06 0)
(0 2.97533e-06 0)
(0 1.20361e-06 0)
(0 -5.54687e-06 0)
(0 -4.61001e-06 0)
(0 1.60845e-06 0)
(0 3.08092e-06 0)
(0 -5.62902e-06 0)
(0 3.0779e-06 0)
(0 7.1932e-07 0)
(0 3.01112e-06 0)
(0 2.97664e-06 0)
(0 -1.38858e-05 0)
(0 3.07857e-06 0)
(0 -7.09776e-06 0)
(0 3.04963e-06 0)
(0 -3.81769e-05 0)
(0 3.07146e-06 0)
(0 3.07747e-06 0)
(0 -3.93971e-06 0)
(0 3.07871e-06 0)
(0 -2.41597e-06 0)
(0 -4.93962e-07 0)
(0 3.02924e-06 0)
(0 2.77341e-06 0)
(0 3.07793e-06 0)
(0 -4.3181e-06 0)
(0 3.05074e-06 0)
(0 -1.03274e-05 0)
(0 3.03379e-06 0)
(0 -4.09176e-05 0)
(0 -4.9655e-07 0)
(0 -2.55598e-05 0)
(0 -6.23795e-06 0)
(0 1.00527e-05 0)
(0 -7.48045e-06 0)
(0 2.76388e-06 0)
(0 2.90602e-06 0)
(0 -5.78032e-06 0)
(0 3.07642e-06 0)
(0 -1.40204e-05 0)
(0 -5.85246e-06 0)
(0 -8.90608e-08 0)
(0 2.24973e-07 0)
(0 5.06857e-07 0)
(0 3.03729e-06 0)
(0 -6.05069e-06 0)
(0 4.30354e-06 0)
(0 -1.51468e-06 0)
(0 3.06039e-06 0)
(0 -5.36944e-07 0)
(0 -6.4264e-06 0)
(0 -6.65465e-06 0)
(0 -1.35193e-06 0)
(0 -9.04604e-06 0)
(0 3.07726e-06 0)
(0 -6.33089e-06 0)
(0 3.01426e-06 0)
(0 2.36101e-06 0)
(0 2.82555e-06 0)
(0 3.07824e-06 0)
(0 3.07719e-06 0)
(0 3.72032e-06 0)
(0 -1.15376e-05 0)
(0 -6.57667e-06 0)
(0 -6.86995e-06 0)
(0 -1.70348e-05 0)
(0 3.0732e-06 0)
(0 -1.94675e-06 0)
(0 -1.28357e-05 0)
(0 7.76384e-06 0)
(0 3.04341e-06 0)
(0 -2.05651e-06 0)
(0 -5.56736e-05 0)
(0 2.42697e-07 0)
(0 -2.22307e-06 0)
(0 3.0472e-06 0)
(0 3.07859e-06 0)
(0 -3.41126e-06 0)
(0 -1.23893e-05 0)
(0 3.05358e-06 0)
(0 -4.54689e-06 0)
(0 3.07106e-06 0)
(0 3.07637e-06 0)
(0 3.07724e-06 0)
(0 2.98893e-06 0)
(0 2.98848e-06 0)
(0 2.64882e-06 0)
(0 -2.44509e-05 0)
(0 1.93654e-06 0)
(0 -5.01364e-06 0)
(0 -5.25059e-06 0)
(0 -4.44005e-06 0)
(0 6.60455e-06 0)
(0 -4.30309e-06 0)
(0 2.9926e-06 0)
(0 3.07527e-06 0)
(0 -1.33302e-05 0)
(0 2.83942e-06 0)
(0 5.6894e-06 0)
(0 -3.42163e-06 0)
(0 -2.30516e-07 0)
(0 4.59474e-06 0)
(0 -8.56127e-07 0)
(0 -9.21282e-06 0)
(0 3.05085e-06 0)
(0 3.07721e-06 0)
(0 8.87995e-07 0)
(0 3.07736e-06 0)
(0 2.4169e-06 0)
(0 3.0753e-06 0)
(0 2.60983e-06 0)
(0 2.75629e-06 0)
(0 3.06797e-06 0)
(0 -5.17326e-06 0)
(0 3.06987e-06 0)
(0 1.33106e-07 0)
(0 3.08894e-06 0)
(0 -4.42256e-05 0)
(0 -1.00183e-05 0)
(0 -1.14855e-06 0)
(0 -2.46699e-05 0)
(0 2.14048e-06 0)
(0 -4.39128e-06 0)
(0 -7.74436e-07 0)
(0 3.33652e-07 0)
(0 2.19902e-06 0)
(0 1.91536e-06 0)
(0 1.72253e-06 0)
(0 5.07548e-06 0)
(0 2.5926e-06 0)
(0 -5.25182e-05 0)
(0 -1.2421e-05 0)
(0 -1.51442e-06 0)
(0 -3.20201e-06 0)
(0 2.3519e-06 0)
(0 3.04452e-06 0)
(0 -4.49053e-06 0)
(0 -4.722e-05 0)
(0 -5.43515e-06 0)
(0 2.594e-06 0)
(0 -2.15783e-06 0)
(0 -7.38059e-06 0)
(0 2.96935e-06 0)
(0 -1.22016e-05 0)
(0 3.06922e-06 0)
(0 -1.54396e-05 0)
(0 3.06633e-06 0)
(0 -3.63294e-05 0)
(0 -3.71145e-06 0)
(0 -4.95215e-06 0)
(0 -8.57082e-06 0)
(0 -3.48524e-07 0)
(0 1.82199e-06 0)
(0 -4.50502e-06 0)
(0 3.06645e-06 0)
(0 -8.86898e-06 0)
(0 3.08566e-06 0)
(0 3.07858e-06 0)
(0 -2.73696e-06 0)
(0 4.8902e-06 0)
(0 4.1839e-06 0)
(0 -1.48962e-05 0)
(0 3.07214e-06 0)
(0 -8.37616e-06 0)
(0 3.06233e-06 0)
(0 3.07552e-06 0)
(0 8.94944e-07 0)
(0 3.07376e-06 0)
(0 5.07228e-06 0)
(0 -6.37564e-06 0)
(0 3.07397e-06 0)
(0 3.07034e-06 0)
(0 -1.28395e-06 0)
(0 -8.65659e-07 0)
(0 -6.53253e-06 0)
(0 -4.68923e-06 0)
(0 -4.7447e-05 0)
(0 2.24055e-06 0)
(0 3.06841e-06 0)
(0 -4.21318e-06 0)
(0 3.03468e-06 0)
(0 3.07713e-06 0)
(0 1.87607e-06 0)
(0 1.25043e-06 0)
(0 -2.26825e-05 0)
(0 3.0776e-06 0)
(0 2.53254e-06 0)
(0 1.07781e-07 0)
(0 -4.35275e-06 0)
(0 -5.69322e-06 0)
(0 3.06421e-06 0)
(0 -7.82912e-06 0)
(0 3.07566e-06 0)
(0 2.64962e-06 0)
(0 2.36507e-06 0)
(0 1.92427e-07 0)
(0 1.14204e-06 0)
(0 -6.51913e-06 0)
(0 -4.27377e-06 0)
(0 3.00184e-06 0)
(0 -9.92507e-06 0)
(0 -4.8958e-05 0)
(0 3.07719e-06 0)
(0 5.01474e-06 0)
(0 -1.32549e-05 0)
(0 3.07913e-06 0)
(0 -6.05904e-06 0)
(0 -5.22932e-06 0)
(0 2.26041e-06 0)
(0 3.0282e-06 0)
(0 -1.09307e-05 0)
(0 3.07315e-06 0)
(0 -4.69421e-06 0)
(0 -1.59339e-05 0)
(0 -2.41849e-06 0)
(0 3.07737e-06 0)
(0 3.04138e-06 0)
(0 3.07505e-06 0)
(0 3.45216e-06 0)
(0 9.35238e-07 0)
(0 -5.56297e-06 0)
(0 3.07452e-06 0)
(0 -2.46963e-05 0)
(0 2.57961e-06 0)
(0 2.32065e-06 0)
(0 3.06504e-06 0)
(0 7.8081e-06 0)
(0 6.34179e-06 0)
(0 2.99756e-06 0)
(0 -6.60154e-06 0)
(0 3.07734e-06 0)
(0 -4.34457e-05 0)
(0 3.07792e-06 0)
(0 1.98751e-06 0)
(0 -3.79536e-06 0)
(0 -1.4937e-06 0)
(0 3.00564e-06 0)
(0 3.0776e-06 0)
(0 -1.55002e-06 0)
(0 -2.20785e-05 0)
(0 -3.82566e-06 0)
(0 -5.31679e-05 0)
(0 -3.12444e-05 0)
(0 -5.98407e-07 0)
(0 1.13452e-06 0)
(0 -4.33313e-06 0)
(0 2.99203e-06 0)
(0 -2.60848e-06 0)
(0 3.07301e-06 0)
(0 -4.38617e-05 0)
(0 -1.19239e-05 0)
(0 2.93848e-06 0)
(0 3.07021e-06 0)
(0 2.95594e-06 0)
(0 -5.53646e-06 0)
(0 3.05613e-06 0)
(0 -4.4678e-05 0)
(0 3.07555e-06 0)
(0 -3.59649e-06 0)
(0 2.17871e-06 0)
(0 -9.40345e-06 0)
(0 3.0761e-06 0)
(0 -6.27247e-06 0)
(0 -4.1886e-06 0)
(0 -6.92485e-06 0)
(0 -6.52335e-06 0)
(0 -5.07489e-07 0)
(0 3.03289e-06 0)
(0 2.65593e-06 0)
(0 3.06386e-06 0)
(0 1.35952e-06 0)
(0 -2.67849e-05 0)
(0 -4.80011e-06 0)
(0 2.33168e-07 0)
(0 5.21144e-06 0)
(0 7.42672e-06 0)
(0 -2.2014e-06 0)
(0 2.30787e-06 0)
(0 -4.16147e-05 0)
(0 3.07725e-06 0)
(0 1.71021e-06 0)
(0 -8.55791e-07 0)
(0 -3.58113e-06 0)
(0 3.0756e-06 0)
(0 -2.46379e-06 0)
(0 -2.02281e-06 0)
(0 -5.41647e-06 0)
(0 1.30508e-06 0)
(0 3.07857e-06 0)
(0 -6.91803e-06 0)
(0 3.04954e-06 0)
(0 -1.24042e-05 0)
(0 -5.41791e-06 0)
(0 2.97273e-06 0)
(0 -1.20088e-05 0)
(0 -6.13206e-06 0)
(0 1.34162e-07 0)
(0 2.06113e-06 0)
(0 -4.50188e-05 0)
(0 2.77946e-06 0)
(0 4.37672e-07 0)
(0 3.07697e-06 0)
(0 -4.37195e-06 0)
(0 3.03145e-06 0)
(0 1.52257e-06 0)
(0 7.00246e-07 0)
(0 -2.95201e-07 0)
(0 -5.65093e-06 0)
(0 2.95624e-06 0)
(0 -2.89629e-05 0)
(0 3.07724e-06 0)
(0 -1.07646e-05 0)
(0 -6.49742e-06 0)
(0 3.07322e-06 0)
(0 -1.07434e-05 0)
(0 -3.15372e-05 0)
(0 3.02752e-06 0)
(0 -6.75332e-06 0)
(0 2.86323e-06 0)
(0 3.07727e-06 0)
(0 -8.41489e-06 0)
(0 2.51974e-06 0)
(0 3.07723e-06 0)
(0 -2.52865e-06 0)
(0 -6.27906e-06 0)
(0 -2.80431e-05 0)
(0 -2.6081e-05 0)
(0 -1.38901e-05 0)
(0 -5.58853e-06 0)
(0 1.82288e-06 0)
(0 -4.59644e-05 0)
(0 -7.53845e-07 0)
(0 3.05369e-06 0)
(0 6.88472e-06 0)
(0 3.07736e-06 0)
(0 -3.74556e-05 0)
(0 -7.88078e-06 0)
(0 2.58335e-06 0)
(0 3.07737e-06 0)
(0 9.21951e-06 0)
(0 -5.21167e-06 0)
(0 -1.40047e-05 0)
(0 -1.45231e-05 0)
(0 1.32011e-06 0)
(0 2.96193e-06 0)
(0 2.67502e-07 0)
(0 -3.30102e-05 0)
(0 1.78242e-07 0)
(0 2.56037e-06 0)
(0 -1.15884e-06 0)
(0 2.91732e-06 0)
(0 3.06442e-06 0)
(0 -4.56348e-05 0)
(0 3.07537e-06 0)
(0 -5.20634e-06 0)
(0 -1.06954e-05 0)
(0 -6.90894e-06 0)
(0 3.07591e-06 0)
(0 -1.3474e-07 0)
(0 4.5518e-06 0)
(0 -2.12996e-06 0)
(0 -1.02097e-05 0)
(0 -6.49905e-06 0)
(0 1.91985e-07 0)
(0 3.07883e-06 0)
(0 3.07804e-06 0)
(0 3.07237e-06 0)
(0 2.07726e-06 0)
(0 -4.05291e-06 0)
(0 -7.95275e-06 0)
(0 -5.08123e-06 0)
(0 -2.38166e-05 0)
(0 3.06972e-06 0)
(0 3.07687e-06 0)
(0 -2.80895e-06 0)
(0 -2.7176e-05 0)
(0 3.07831e-06 0)
(0 4.59082e-06 0)
(0 2.19283e-06 0)
(0 3.05638e-06 0)
(0 -3.40387e-06 0)
(0 1.98827e-06 0)
(0 -2.44531e-06 0)
(0 -2.21734e-05 0)
(0 3.08033e-06 0)
(0 -6.52393e-06 0)
(0 1.33505e-06 0)
(0 4.59452e-06 0)
(0 -2.18581e-05 0)
(0 -1.21099e-05 0)
(0 6.93546e-07 0)
(0 2.09567e-06 0)
(0 -1.27201e-05 0)
(0 5.29423e-06 0)
(0 3.0718e-06 0)
(0 -3.11414e-06 0)
(0 4.45044e-06 0)
(0 1.00843e-06 0)
(0 -1.05819e-05 0)
(0 -6.66228e-06 0)
(0 -1.52337e-05 0)
(0 2.91459e-06 0)
(0 -5.63159e-06 0)
(0 2.81627e-06 0)
(0 -1.4785e-05 0)
(0 -1.63487e-05 0)
(0 3.06826e-06 0)
(0 2.85166e-06 0)
(0 2.95876e-06 0)
(0 -2.0345e-06 0)
(0 2.62764e-06 0)
(0 -1.71824e-06 0)
(0 -4.59675e-06 0)
(0 -4.01939e-06 0)
(0 -1.1944e-05 0)
(0 7.75703e-06 0)
(0 -9.67583e-06 0)
(0 -7.56377e-06 0)
(0 7.77793e-07 0)
(0 -3.27228e-06 0)
(0 4.55104e-07 0)
(0 4.84909e-06 0)
(0 5.48626e-07 0)
(0 3.08519e-06 0)
(0 3.02843e-06 0)
(0 2.65023e-06 0)
(0 2.94441e-06 0)
(0 -9.95506e-08 0)
(0 8.00255e-07 0)
(0 2.99921e-06 0)
(0 2.59202e-06 0)
(0 2.26374e-06 0)
(0 -4.39848e-06 0)
(0 9.7063e-07 0)
(0 2.94296e-06 0)
(0 2.65417e-06 0)
(0 1.5109e-06 0)
(0 -2.24888e-06 0)
(0 -9.97763e-06 0)
(0 -6.87707e-06 0)
(0 9.78637e-06 0)
(0 -1.98952e-05 0)
(0 3.06994e-06 0)
(0 3.0705e-06 0)
(0 3.07726e-06 0)
(0 -1.9323e-06 0)
(0 5.44072e-06 0)
(0 1.1525e-06 0)
(0 5.91298e-06 0)
(0 3.07875e-06 0)
(0 2.98323e-06 0)
(0 -3.37139e-05 0)
(0 3.07726e-06 0)
(0 8.95211e-07 0)
(0 -4.54273e-06 0)
(0 -4.44017e-05 0)
(0 1.40073e-06 0)
(0 -4.68843e-06 0)
(0 2.52678e-06 0)
(0 -1.99458e-06 0)
(0 2.9187e-06 0)
(0 6.65128e-06 0)
(0 6.17422e-06 0)
(0 2.1934e-06 0)
(0 -3.66376e-06 0)
(0 5.14966e-06 0)
(0 -7.0601e-06 0)
(0 1.35739e-06 0)
(0 7.52583e-06 0)
(0 2.75829e-06 0)
(0 -3.19035e-06 0)
(0 -1.2725e-05 0)
(0 -4.04217e-06 0)
(0 -9.72489e-06 0)
(0 2.88457e-06 0)
(0 -1.126e-09 0)
(0 -2.45265e-06 0)
(0 -6.57657e-06 0)
(0 3.07638e-06 0)
(0 2.96146e-06 0)
(0 -4.37148e-06 0)
(0 1.22008e-06 0)
(0 -8.44777e-06 0)
(0 3.07672e-06 0)
(0 3.02772e-06 0)
(0 3.07436e-06 0)
(0 2.24688e-06 0)
(0 -1.23429e-05 0)
(0 -4.48606e-07 0)
(0 6.60023e-07 0)
(0 2.51842e-06 0)
(0 3.08004e-06 0)
(0 6.01815e-07 0)
(0 -4.47123e-06 0)
(0 -6.42923e-06 0)
(0 2.95863e-06 0)
(0 -4.39248e-06 0)
(0 3.07726e-06 0)
(0 -2.68922e-05 0)
(0 -4.09645e-06 0)
(0 3.07234e-06 0)
(0 -8.75585e-07 0)
(0 -3.94537e-06 0)
(0 2.78966e-06 0)
(0 -4.04161e-06 0)
(0 -2.7263e-06 0)
(0 2.98018e-06 0)
(0 2.98676e-06 0)
(0 -5.60903e-06 0)
(0 2.92771e-06 0)
(0 2.2597e-06 0)
(0 3.07721e-06 0)
(0 3.01987e-06 0)
(0 -1.12722e-05 0)
(0 3.0789e-06 0)
(0 -3.84867e-06 0)
(0 2.36973e-06 0)
(0 -5.45597e-06 0)
(0 -3.47168e-06 0)
(0 3.07753e-06 0)
(0 2.244e-06 0)
(0 -4.24893e-06 0)
(0 -6.37859e-06 0)
(0 3.07976e-06 0)
(0 -2.28669e-06 0)
(0 2.82623e-06 0)
(0 2.89263e-06 0)
(0 8.35667e-07 0)
(0 -2.2169e-05 0)
(0 -1.2079e-06 0)
(0 2.90965e-06 0)
(0 2.93104e-06 0)
(0 -1.14817e-05 0)
(0 1.26006e-06 0)
(0 1.48756e-06 0)
(0 -1.20568e-05 0)
(0 -1.65651e-05 0)
(0 -4.24229e-05 0)
(0 -2.70844e-05 0)
(0 -2.41814e-06 0)
(0 2.50167e-06 0)
(0 3.00357e-06 0)
(0 -1.4427e-06 0)
(0 -5.86438e-07 0)
(0 3.08791e-06 0)
(0 4.01925e-06 0)
(0 3.06159e-06 0)
(0 2.25353e-06 0)
(0 2.39461e-06 0)
(0 7.51295e-06 0)
(0 -1.02934e-05 0)
(0 -4.52548e-06 0)
(0 6.51315e-06 0)
(0 3.62226e-06 0)
(0 3.07726e-06 0)
(0 2.72665e-06 0)
(0 3.05374e-06 0)
(0 -1.37625e-06 0)
(0 -2.52653e-07 0)
(0 -3.80015e-06 0)
(0 1.27161e-07 0)
(0 3.07714e-06 0)
(0 5.12903e-07 0)
(0 -2.11366e-05 0)
(0 6.08799e-06 0)
(0 3.06741e-06 0)
(0 3.05515e-06 0)
(0 2.32229e-06 0)
(0 -9.38772e-07 0)
(0 -1.23119e-05 0)
(0 3.07476e-06 0)
(0 -1.04838e-05 0)
(0 -1.30794e-06 0)
(0 -1.04784e-05 0)
(0 2.64598e-06 0)
(0 -2.68482e-05 0)
(0 -4.71945e-06 0)
(0 3.07852e-06 0)
(0 -4.21003e-07 0)
(0 3.07721e-06 0)
(0 3.06831e-06 0)
(0 3.06716e-06 0)
(0 3.07726e-06 0)
(0 -5.82176e-07 0)
(0 2.33215e-06 0)
(0 2.57226e-06 0)
(0 2.50452e-06 0)
(0 3.07663e-06 0)
(0 -1.23312e-05 0)
(0 1.19413e-06 0)
(0 -4.75024e-05 0)
(0 2.51967e-06 0)
(0 3.07644e-06 0)
(0 -5.05318e-05 0)
(0 3.06611e-06 0)
(0 4.74954e-08 0)
(0 1.93502e-06 0)
(0 2.72492e-06 0)
(0 -5.92006e-06 0)
(0 3.06108e-06 0)
(0 -1.00752e-05 0)
(0 3.04643e-06 0)
(0 -1.88436e-05 0)
(0 5.0906e-06 0)
(0 3.06149e-06 0)
(0 -3.76306e-05 0)
(0 -5.39928e-06 0)
(0 -4.8855e-06 0)
(0 -2.63058e-05 0)
(0 9.39585e-07 0)
(0 2.99058e-06 0)
(0 -5.36279e-06 0)
(0 2.99827e-07 0)
(0 2.9824e-06 0)
(0 -1.07529e-05 0)
(0 3.07678e-06 0)
(0 2.04476e-06 0)
(0 -5.02644e-06 0)
(0 -1.63194e-05 0)
(0 -6.76049e-06 0)
(0 -2.57232e-05 0)
(0 2.50299e-06 0)
(0 2.2829e-06 0)
(0 3.07556e-06 0)
(0 -6.15729e-06 0)
(0 -3.25752e-06 0)
(0 1.18567e-06 0)
(0 3.07799e-06 0)
(0 2.91027e-06 0)
(0 -1.8454e-05 0)
(0 6.11059e-06 0)
(0 -5.32772e-05 0)
(0 1.74154e-07 0)
(0 3.0763e-06 0)
(0 3.03622e-06 0)
(0 3.02645e-06 0)
(0 -2.90622e-05 0)
(0 -3.13653e-07 0)
(0 -2.39603e-07 0)
(0 -4.96052e-05 0)
(0 1.38782e-06 0)
(0 3.07597e-06 0)
(0 4.52312e-06 0)
(0 1.92521e-06 0)
(0 2.95267e-06 0)
(0 2.15966e-06 0)
(0 2.30885e-06 0)
(0 3.06916e-06 0)
(0 -3.27307e-06 0)
(0 -5.64062e-06 0)
(0 2.70033e-06 0)
(0 -6.42236e-07 0)
(0 -1.24756e-05 0)
(0 2.77711e-06 0)
(0 -7.69096e-06 0)
(0 1.19496e-06 0)
(0 3.48036e-06 0)
(0 -9.11397e-06 0)
(0 -4.66549e-06 0)
(0 3.07726e-06 0)
(0 1.47114e-06 0)
(0 -4.66681e-06 0)
(0 6.60152e-07 0)
(0 3.07744e-06 0)
(0 2.77113e-06 0)
(0 3.07296e-06 0)
(0 -6.69025e-06 0)
(0 3.03691e-06 0)
(0 -2.69761e-05 0)
(0 2.45869e-06 0)
(0 1.82012e-06 0)
(0 -6.39951e-06 0)
(0 3.08816e-06 0)
(0 -3.26776e-05 0)
(0 -1.78396e-06 0)
(0 -6.60163e-06 0)
(0 -8.80369e-06 0)
(0 3.06888e-06 0)
(0 -4.05562e-06 0)
(0 2.01707e-06 0)
(0 3.07292e-06 0)
(0 -3.59929e-06 0)
(0 3.07773e-06 0)
(0 -2.24969e-05 0)
(0 3.04311e-06 0)
(0 2.31903e-06 0)
(0 2.94311e-06 0)
(0 -1.10296e-06 0)
(0 -6.68151e-06 0)
(0 5.04821e-07 0)
(0 1.6995e-06 0)
(0 2.34457e-06 0)
(0 2.7553e-06 0)
(0 3.5577e-06 0)
(0 -8.62603e-06 0)
(0 3.07228e-06 0)
(0 3.06532e-06 0)
(0 -1.35499e-05 0)
(0 2.70152e-06 0)
(0 2.91709e-06 0)
(0 -6.51519e-06 0)
(0 3.07724e-06 0)
(0 1.09225e-06 0)
(0 -5.92855e-07 0)
(0 3.39561e-06 0)
(0 -7.91717e-06 0)
(0 -4.34767e-05 0)
(0 6.14651e-07 0)
(0 2.85396e-06 0)
(0 1.00301e-06 0)
(0 1.73203e-06 0)
(0 3.08205e-06 0)
(0 3.04375e-06 0)
(0 2.96073e-06 0)
(0 3.07734e-06 0)
(0 -7.63337e-06 0)
(0 2.14967e-06 0)
(0 3.08756e-06 0)
(0 -1.16773e-05 0)
(0 -4.80419e-06 0)
(0 2.86126e-06 0)
(0 1.86286e-06 0)
(0 -6.41808e-06 0)
(0 3.01176e-06 0)
(0 2.6872e-06 0)
(0 3.00583e-06 0)
(0 2.89284e-06 0)
(0 -6.6483e-06 0)
(0 2.93784e-06 0)
(0 -2.01701e-05 0)
(0 -8.03026e-06 0)
(0 2.49496e-06 0)
(0 3.07874e-06 0)
(0 2.0727e-06 0)
(0 3.02099e-06 0)
(0 1.96361e-06 0)
(0 -6.76262e-06 0)
(0 2.82316e-06 0)
(0 1.42826e-06 0)
(0 2.77845e-06 0)
(0 -3.67814e-06 0)
(0 -2.23036e-06 0)
(0 -1.43944e-05 0)
(0 1.14011e-06 0)
(0 -7.09858e-07 0)
(0 3.00619e-06 0)
(0 -8.4501e-06 0)
(0 1.48587e-06 0)
(0 3.07759e-06 0)
(0 7.11793e-06 0)
(0 -8.51849e-06 0)
(0 2.86785e-06 0)
(0 6.13153e-06 0)
(0 2.18161e-06 0)
(0 -3.1574e-05 0)
(0 2.70587e-06 0)
(0 3.0764e-06 0)
(0 -6.08584e-06 0)
(0 -1.15213e-05 0)
(0 -1.77485e-05 0)
(0 2.56918e-06 0)
(0 -6.16554e-06 0)
(0 -5.4899e-06 0)
(0 2.86005e-06 0)
(0 3.06345e-06 0)
(0 -2.97102e-07 0)
(0 3.07692e-06 0)
(0 2.82995e-06 0)
(0 -9.88428e-06 0)
(0 1.75e-06 0)
(0 2.69582e-06 0)
(0 -4.30352e-06 0)
(0 3.80284e-06 0)
(0 -3.63101e-06 0)
(0 2.95097e-06 0)
(0 -5.22044e-05 0)
(0 2.97392e-06 0)
(0 3.05854e-06 0)
(0 -9.39581e-06 0)
(0 2.76073e-06 0)
(0 -1.06795e-05 0)
(0 2.08502e-06 0)
(0 1.96241e-06 0)
(0 -5.68783e-06 0)
(0 1.05516e-05 0)
(0 3.93339e-06 0)
(0 5.82498e-06 0)
(0 2.69417e-06 0)
(0 2.44912e-06 0)
(0 -2.01262e-05 0)
(0 2.08288e-06 0)
(0 3.16364e-07 0)
(0 -2.31935e-07 0)
(0 -1.78993e-05 0)
(0 -2.69156e-05 0)
(0 1.21545e-06 0)
(0 3.99521e-06 0)
(0 -7.65403e-06 0)
(0 2.65362e-06 0)
(0 -3.66482e-05 0)
(0 3.07932e-06 0)
(0 -4.668e-06 0)
(0 1.34592e-06 0)
(0 -9.95435e-07 0)
(0 2.54474e-06 0)
(0 1.50768e-06 0)
(0 -2.20193e-06 0)
(0 -9.918e-06 0)
(0 -2.10378e-05 0)
(0 3.06611e-06 0)
(0 3.03296e-06 0)
(0 3.07694e-06 0)
(0 3.00234e-06 0)
(0 -4.2754e-07 0)
(0 -2.21499e-05 0)
(0 3.06245e-06 0)
(0 8.02652e-07 0)
(0 3.07567e-06 0)
(0 2.47144e-06 0)
(0 -6.4252e-06 0)
(0 -5.26413e-07 0)
(0 -5.98168e-07 0)
(0 -2.40825e-05 0)
(0 3.2337e-06 0)
(0 2.84197e-06 0)
(0 -5.27986e-06 0)
(0 3.07733e-06 0)
(0 5.02571e-07 0)
(0 2.28424e-06 0)
(0 -7.89681e-06 0)
(0 -4.16896e-06 0)
(0 -4.44886e-05 0)
(0 -1.73371e-06 0)
(0 3.07802e-06 0)
(0 8.49583e-07 0)
(0 3.07759e-06 0)
(0 -5.96856e-06 0)
(0 3.07667e-06 0)
(0 -3.67437e-05 0)
(0 -1.94697e-06 0)
(0 -4.01817e-06 0)
(0 -4.80684e-06 0)
(0 2.9483e-06 0)
(0 -1.0255e-05 0)
(0 -3.9503e-06 0)
(0 5.66061e-06 0)
(0 3.07713e-06 0)
(0 1.2429e-06 0)
(0 3.05499e-06 0)
(0 -2.41171e-05 0)
(0 -3.18914e-05 0)
(0 -3.87929e-05 0)
(0 -2.5775e-06 0)
(0 -3.9976e-07 0)
(0 3.07794e-06 0)
(0 3.06203e-06 0)
(0 -4.94519e-07 0)
(0 -4.79087e-06 0)
(0 3.05723e-06 0)
(0 2.56722e-06 0)
(0 -6.57809e-06 0)
(0 2.46073e-06 0)
(0 -2.03809e-05 0)
(0 -1.51016e-05 0)
(0 -1.15294e-05 0)
(0 2.95262e-06 0)
(0 -5.24336e-06 0)
(0 2.26e-07 0)
(0 -1.12081e-06 0)
(0 -1.13885e-05 0)
(0 3.06427e-06 0)
(0 -3.26886e-06 0)
(0 -2.10357e-05 0)
(0 -4.95462e-06 0)
(0 -1.01693e-05 0)
(0 8.94715e-06 0)
(0 -9.33404e-06 0)
(0 -1.04577e-05 0)
(0 -3.95289e-07 0)
(0 -4.09952e-06 0)
(0 -1.29485e-07 0)
(0 -6.42759e-06 0)
(0 3.07647e-06 0)
(0 1.69328e-06 0)
(0 -4.00009e-06 0)
(0 -1.28413e-05 0)
(0 3.06772e-06 0)
(0 6.05714e-06 0)
(0 5.57078e-06 0)
(0 1.80524e-07 0)
(0 -1.99007e-06 0)
(0 -9.05952e-06 0)
(0 -1.48498e-06 0)