/*--------------------------------*- C++ -*----------------------------------*\
| =========                 |                                                 |
| \\      /  F ield         | OpenFOAM: The Open Source CFD Toolbox           |
|  \\    /   O peration     | Version:  v2012                                 |
|   \\  /    A nd           | Website:  www.openfoam.com                      |
|    \\/     M anipulation  |                                                 |
\*---------------------------------------------------------------------------*/
FoamFile
{
    version     2.0;
    format      ascii;
    class       volScalarField;
    location    "600";
    object      p;
}
// * * * * * * * * * * * * * * * * * * * * * * * * * * * * * * * * * * * * * //

dimensions      [0 2 -2 0 0 0 0];


internalField   nonuniform List<scalar> 
18355
(
-0.0927395
-0.212632
0.0103602
-0.00794592
-0.0343045
-0.142583
0.00583233
-0.156312
0.0807508
-0.247047
-0.014201
-0.38769
-0.199567
0.0335082
-0.0136618
0.0266677
-0.487787
-0.00678484
0.00969301
-0.176153
0.0449364
0.0427346
-0.279562
-0.0334917
-0.043975
0.0190464
0.0255568
0.076547
-0.17176
0.0232441
-0.0265921
-0.0410077
-0.00671227
-0.00378903
-0.140159
-0.0971572
0.0653384
-0.222393
0.0750822
-0.014708
0.0341358
0.018594
0.0105164
-0.260341
-0.00934724
-0.233097
-0.146783
0.082799
-0.132793
-0.00606609
-0.0123153
-0.00529597
0.018295
-0.243508
0.013705
0.00512088
-0.101973
-0.0133134
0.403465
-0.239961
-0.00558629
-0.144708
-0.0080489
-0.0210985
-0.385836
-0.0899626
-0.140422
0.151742
0.0252673
0.0412715
-0.164122
0.00774518
-0.247133
-0.00222427
-0.155999
0.00573542
-0.25485
-0.0417722
-0.0559353
-0.00514239
0.00623264
-0.336308
0.0429105
-0.069504
0.0192648
-0.196114
-0.146714
-0.174951
-0.169299
-0.263526
-0.231501
-0.00941987
0.0154557
-0.011749
-0.144977
-0.280302
-0.0157452
-0.0643112
-0.240233
-0.48724
-0.157565
-0.489325
-0.0991546
-0.257061
-0.0334466
-0.183392
-0.403308
-0.169261
-0.0972447
0.358045
0.0177526
0.068345
0.0204099
0.0703483
-0.217633
0.00394523
0.477114
-0.252029
0.457132
-0.0954575
-0.249144
-0.361625
-0.0409065
-0.164204
-0.0150469
-0.173184
-0.00579873
0.0148031
-0.412948
-0.011591
-0.0123003
-0.273055
-0.128971
-0.0630145
0.0814058
0.0145756
-0.0103487
-0.0142445
0.026701
-0.176441
-0.157898
-0.155356
0.0165297
0.0183249
0.449532
0.0431553
0.107469
-0.137712
-0.0529192
-0.134883
-0.0342747
0.0435547
-0.134921
0.429406
-0.115226
0.00906738
-0.272238
0.465934
0.00891136
-0.152238
-0.00162659
-0.0401662
0.102262
-0.0643157
-0.154289
0.163845
-0.480793
-0.122512
-0.245168
-0.00463672
-0.13087
-0.281734
-0.0134644
-0.0140838
0.023854
-0.182258
-0.0809923
0.0140459
-0.404985
-0.474523
0.293868
-0.243799
-0.077261
0.00326296
-0.179998
-0.178142
-0.270256
-0.217569
0.0807325
-0.486901
-0.0991011
0.0100462
-0.06319
-0.257549
0.0959732
0.0405121
-0.290552
-0.0759703
-0.108214
-0.0138818
-0.0443775
0.0747636
-0.482696
-0.27472
-0.344268
0.0119401
0.480069
-0.432926
-0.38213
-0.106154
-0.00985593
-0.0336065
-0.17295
0.0161491
-0.00428385
-0.326628
-0.170095
-0.173024
0.020432
-0.0516554
-0.339711
0.0244631
-0.0631344
-0.0105029
-0.484291
0.0321724
-0.454619
-0.163254
0.371508
-0.00882353
0.0180671
-0.0542462
-0.0219046
-0.457257
-0.0023525
0.0181366
0.0142607
-0.209374
-0.237366
-0.343178
-0.0945587
-0.248221
-0.0266882
-0.00354859
0.0353163
-0.162921
-0.373902
0.513991
-0.111942
-0.00336296
-0.0437958
0.164528
-0.0779367
-0.386682
0.0266057
-0.475043
-0.17259
-0.153373
0.0163695
0.000263879
-0.0856689
-0.174892
-0.486287
-0.132261
-0.000470067
-0.00399294
0.0171575
-0.25009
-0.112883
0.348772
0.0329586
-0.143485
-0.220748
-0.181198
-0.0273227
-0.297345
-0.00566778
0.0223794
-0.35202
-0.0025479
0.00589197
-0.1843
0.0107072
-0.139998
-0.0768244
0.0918752
-0.00225189
-0.12187
-0.402145
-0.0417715
-0.00760132
0.0321805
-0.18406
-0.237291
0.0169174
0.00703855
-0.170058
-0.110361
-0.110567
0.236808
0.0221565
-0.169951
0.0546114
0.00704072
0.248099
-0.156954
-0.144721
-0.186692
-0.0115877
0.306783
-0.0316441
0.0109637
-0.364883
0.0150465
-0.251945
0.0342471
0.0153794
-0.0100306
-0.2505
-0.133252
-0.429646
-0.00530526
0.0987243
-0.260733
-0.0204012
-0.24135
-0.0502685
0.0438371
-0.234761
-0.011396
0.117824
0.0131028
0.0823256
0.00592774
-0.110373
-0.433916
0.0217632
-0.488694
-0.109913
0.0258548
-0.142513
-0.145906
-0.268658
-0.23199
-0.258261
0.0262907
-0.00790087
-0.291499
0.275527
0.0165226
0.000987145
-0.146692
-0.178002
0.213316
-0.288655
0.021717
-0.0506096
0.50745
0.0168959
-0.00197219
-0.233283
-0.105648
-0.0531187
-0.133229
0.0135129
0.161578
-0.34938
-0.364947
-0.00756991
0.0325412
0.0251922
-0.0132043
0.137038
-0.0138227
-0.11184
0.0248252
-0.0242553
0.0218224
0.0792187
-0.0232639
0.0038846
-0.0216951
-0.0217199
0.0162196
0.356758
-0.121632
-0.0117882
-0.264552
0.0556677
-0.122629
-0.09469
-0.183765
0.0368205
-0.265532
0.0634713
0.0041204
0.0183799
-0.00972917
-0.237121
-0.050091
-0.00931293
-0.127863
-0.107413
0.0165227
-0.0203077
-0.461271
0.0401296
-0.00520693
0.294165
0.00982697
0.516497
-0.487865
-0.231648
0.104441
-0.0326232
-0.400907
0.00772747
0.0172332
0.275956
0.0111696
-0.0132679
-0.486617
-0.00270394
-0.435918
-0.0909669
-0.0898037
-0.489022
0.0553628
0.0168134
-0.254352
-0.139504
-0.125567
-0.262076
0.0248171
0.00363217
0.0445974
-0.196812
0.0434773
0.0096549
0.00953111
0.0178352
0.166705
0.503915
0.0199224
0.0437952
0.017566
-0.0930776
-0.23333
-0.236747
-0.472559
-0.266745
0.212984
0.145172
-0.259179
-0.0297647
0.000365039
0.0320274
-0.0118776
0.154397
0.0223958
-0.00917941
-0.487354
0.174827
-0.137634
-0.262856
0.221806
-0.177847
0.000643368
-0.0225601
0.0219894
0.00626702
0.00943828
0.0177628
0.022545
-0.159196
-0.00658054
-0.0113098
-0.352357
-0.242166
0.00073082
-0.0413875
0.0534328
-0.385153
0.0238164
-0.0170416
-0.262515
0.07223
-0.159479
-0.0499138
-0.0131275
-0.488044
-0.244426
-0.00631412
-0.392409
-0.155494
-0.482295
-0.0124703
-0.0166821
-0.0189834
-0.178388
0.0555696
-0.148805
-0.198508
-0.261887
-0.373398
-0.00999128
-0.0886678
-0.187437
-0.279264
-0.198261
0.040622
0.0284322
0.00334095
-0.272767
-0.489482
-0.236425
0.0306157
0.0261328
0.0226789
0.0470248
0.0223254
-0.248581
0.00499134
-0.216582
0.0338304
0.0174779
0.000502276
0.146077
-0.0231506
-0.232253
0.011363
-0.171236
-0.251882
-0.0698022
0.0152133
0.076376
-0.0637537
0.01271
-0.0987905
-0.107807
-0.0695995
-0.245153
0.000303391
-0.00634215
0.0313956
0.0216915
-0.115951
-0.0521073
-0.147591
0.000871674
-0.0338363
-0.0642903
-0.0111527
0.161296
0.0599559
-0.228268
0.0892484
-0.234291
-0.0364492
-0.264693
0.0872241
0.0820607
-0.173215
-0.0692051
-0.410009
-0.0675499
-0.0487474
-0.0123942
0.0246472
-0.135194
-0.137165
0.0329286
-0.0994979
-0.158182
-0.145327
0.00166168
-0.423916
-0.276128
-0.0414838
0.0251829
0.162677
-0.259622
-0.0836567
0.0126857
0.275385
-0.237287
-0.141827
0.138134
0.0100083
-0.0651209
-0.183645
-0.223397
-0.237487
-0.371583
0.149226
-0.19592
-0.0760579
0.00529434
-0.042322
0.0225992
0.438968
0.380552
-0.184183
0.345587
-0.385806
-0.119161
0.267092
0.0270136
-0.200101
-0.440816
-0.0145628
0.367954
-0.152596
-0.309836
0.0158974
-0.00939782
-0.0638424
-0.0625585
-0.062079
-0.186395
0.0145255
-0.254847
0.0185903
0.0441934
-0.274755
0.00301539
-0.0217856
-0.194041
0.0171206
-0.0323302
-0.3065
-0.00329415
-0.169621
-0.0113697
-0.129939
-0.0681394
-0.0975192
0.0380462
-0.0449759
-0.177274
0.0977632
-0.142486
-0.118781
-0.0270006
-0.281539
-0.0977607
0.0528496
-0.475214
-0.347146
-0.231379
0.0182281
-0.0103554
-0.15366
0.0784104
-0.101358
0.0125877
-0.0777637
-0.263986
-0.273069
-0.115517
-0.264871
0.157015
-0.00314129
-0.0095492
0.0125073
-0.131455
-0.115154
-0.0183798
-0.401422
0.0111172
-0.106633
-0.00911777
-0.389405
-0.459048
0.024149
-0.0144743
-0.13676
0.0123714
-0.00670965
-0.117071
0.364812
0.0506427
0.0238836
-0.130331
-0.132465
-0.0557726
0.268541
0.00331088
-0.190829
-0.128569
0.0339484
0.414207
-0.282285
0.00669084
-0.273767
-0.00823089
0.0167232
0.055812
0.180075
-0.46908
-0.107818
-0.222774
-0.0118842
-0.166907
-0.381831
-0.0767386
-0.383553
0.0327588
-0.436139
-0.0421668
-0.13923
-0.209276
0.01831
0.353377
-0.0178872
0.090539
-0.418997
0.300371
-0.403475
-0.0010513
-0.236704
0.0305916
-0.148569
-0.0318707
0.00831781
-0.0641365
-0.00196911
-0.0078018
-0.117414
-0.2584
-0.307779
0.00377331
0.497801
-0.07506
-0.00136691
0.0227924
0.0683997
-0.189416
-0.424442
-0.103348
-0.00386737
-0.0273649
-0.21231
0.0116265
0.0159463
-0.00210352
-0.0297409
-0.0908753
-0.255405
0.00318468
-0.271345
0.0878157
-0.272888
-0.478762
-0.143319
-0.00947338
-0.0886042
0.00976951
-0.00812957
-0.0767993
-0.155449
-0.000378869
-0.0118461
-0.00675464
-0.428635
0.0566057
-0.027534
-0.0443632
-0.0795767
-0.271463
-0.401209
0.00817937
0.0327708
-0.271563
0.0323485
-0.371912
-0.214689
-0.44965
0.235643
0.0777447
-0.227852
-0.0661827
0.02014
-0.0030187
0.0134755
0.0483894
0.0164893
0.0499293
-0.358455
-0.141093
-0.0267592
0.280531
-0.00284998
-0.00485487
-0.104631
0.0140355
0.0454396
-0.0331323
0.458781
0.51099
-0.169477
-0.401747
0.149572
-0.142309
-0.121787
-0.171951
-0.340072
-0.130733
-0.210213
-0.149559
-0.477626
-0.025
0.0251342
0.00592641
-0.0638756
-0.180205
-0.00434643
0.020782
-0.184335
-0.000534977
-0.0189214
-0.01531
0.00735951
-0.217406
-0.02692
0.0334077
-0.133465
-0.00825596
-0.256448
0.39287
0.0147525
-0.0372814
-0.00116435
0.0385676
-0.000538458
-0.0375901
-0.375361
0.0330673
-0.284711
-0.026902
-0.287182
-0.0496831
-0.11968
0.0168149
-0.096667
-0.0998178
0.0201837
0.0138012
-0.289247
0.0250923
-0.461371
-0.450945
0.0342406
0.00579844
0.0135094
-0.0119263
-0.116842
0.0232212
-0.286398
-0.146415
-0.109167
-0.48775
-0.00354124
0.0109121
-0.425498
-0.34423
0.096575
0.0145098
0.0210906
-0.00371948
-0.0383506
0.129611
0.383255
-0.0398664
-0.152801
0.500434
-0.169069
0.150992
-0.0241186
-0.297968
-0.135462
-0.0466757
0.0164591
0.0413818
-0.323956
0.0226313
-0.127491
0.140529
0.00881223
0.0643855
-0.00922595
-0.101323
-0.0607677
-0.000377242
-0.0107428
-0.0371265
-0.269782
0.00846183
-0.079821
-0.248038
0.040842
0.0106467
0.164741
-0.165571
-0.0927002
-0.304109
0.0626944
-0.0119483
0.0807389
-0.199904
0.421332
0.499178
-0.00310959
0.143397
0.0117809
-0.301984
-0.0150817
-0.224006
0.134124
-0.11744
0.00816116
0.00211517
0.0939994
0.0186687
-0.26996
-0.0292296
0.365316
0.00880151
-0.00349934
0.0853092
-0.253935
-0.487202
-0.0204756
-0.037871
0.0566218
-0.0274152
-0.0185672
0.0206909
-0.205665
0.00944865
-0.171766
0.00155319
-0.374387
-0.0263925
-0.0117613
-0.359649
-0.343347
-0.27343
-0.00327497
-0.147874
-0.0269419
-0.158425
0.0556661
-0.245408
-0.00546815
-0.48191
0.00860821
-0.0583071
0.0255893
0.0116806
0.0126999
-0.218518
-0.255035
-0.162483
0.15428
-0.061795
-0.0407202
0.00655836
-0.00725411
-0.00324854
0.0214148
-0.251839
-0.0310488
-0.278768
-0.21648
0.0140764
0.061561
-0.151666
-0.138036
0.055166
-0.0426783
0.0599804
-0.485636
-0.120588
-0.434777
-0.0843632
-0.122604
0.243767
0.0328869
0.00416572
-0.183334
0.0891154
-0.0255514
-0.261982
0.0756478
-0.488722
0.00818702
0.36345
0.175004
-0.170089
0.0285408
0.0249368
-0.370631
-0.0278343
-0.275731
0.0420094
0.0252194
-0.384992
-0.094457
-0.0563262
-0.415649
0.000387811
0.338147
-0.232267
0.0239222
-0.0744182
-0.233949
0.0189541
0.00405195
-0.0278408
-0.0555749
-0.0557852
-0.118916
-0.174316
-0.0392974
0.0167493
-0.146167
-0.00849893
-0.489221
-0.0484256
-0.0370045
-0.258003
-0.487393
-0.00363811
0.00996427
-0.0537337
-0.0113913
-0.00766983
-0.285228
0.0132249
-0.0544936
-0.00987329
0.264243
-0.00597781
0.360881
0.37115
-0.0379688
-0.251958
0.00410817
-0.0481745
0.00416931
-0.259995
0.0158078
0.000444636
0.0160069
-0.0177034
0.00795337
-0.185838
-0.467021
-0.405418
-0.487545
0.0124665
0.0559355
-0.0985743
0.0419763
-0.0148855
0.153945
-0.276224
0.000401954
-0.0271875
-0.297003
0.00742115
0.012206
-0.165385
-0.140181
-0.171842
0.0786313
-0.0233232
-0.434789
0.0496606
0.165655
0.00862145
-0.0714748
0.0348262
-0.183864
-0.240656
-0.0951014
0.0130152
-0.483686
0.0665302
0.000664605
0.00346066
0.0427961
0.0190184
-0.025625
-0.250232
-0.00222301
-0.271188
-0.0295533
-0.0782245
-0.347047
-0.00146936
-0.190477
0.0461747
-0.00158884
0.0785391
-0.130018
0.0198201
-0.0110996
0.0113449
0.0333726
-0.115909
-0.00742126
0.0439175
0.0926293
0.0131798
-0.0150971
-0.458818
-0.160556
-0.225397
-0.28378
-0.181259
-0.17041
-0.332919
-0.17673
-0.00884604
0.0473655
-0.00884581
0.364977
-0.182539
-0.0130072
-0.0201312
-0.0114618
0.00496526
0.00776185
-0.0503186
-0.460348
-0.483553
-0.489116
-0.157412
0.0137483
0.00689768
0.0118111
-0.399933
-0.38824
-0.0246167
0.515052
-0.0079636
-0.0981174
-0.0397967
-0.0567764
-0.0949992
-0.254199
0.047976
0.360837
-0.00835271
0.00162582
-0.184394
0.0111743
0.0050025
-0.118629
-0.200379
0.0116266
0.112141
0.0104162
0.0342989
-0.00181348
0.0271336
-0.264483
-0.0107443
0.0165247
0.0485719
-0.253027
0.382133
0.0239275
0.160224
-0.0936721
-0.488861
-0.232648
-0.442522
-0.249558
-0.0819162
-0.17232
-0.191989
-0.127437
-0.450611
-0.00987842
0.0102807
0.0163798
0.381596
0.0353738
-0.362998
-0.0212036
0.0167691
-0.380729
-0.154522
0.0523829
0.285768
0.00673206
0.0708733
-0.351832
-0.0816314
0.0169664
-0.353749
-0.24045
-0.307554
-0.217446
0.0284863
-0.379726
0.00785144
-0.0822188
0.00134134
0.000149384
-0.220042
0.0936095
-0.0182551
0.00951475
-0.437329
-0.0143965
-0.268541
-0.276713
0.0137723
-0.0139214
0.097779
-0.248118
-0.158366
-0.0998339
0.049736
-0.2032
0.0341878
-0.0357104
-0.0251682
-0.0263985
0.0753767
0.243478
-0.354948
-0.162359
-0.17113
-0.471058
0.00370678
-0.118458
-0.238309
0.212863
0.00831152
0.0266028
0.0109533
0.00197673
0.00291959
-0.362505
-0.234381
-0.248601
-0.162521
-0.179097
0.0187719
-0.186179
-0.46868
-0.0091594
-0.0635561
-2.9942e-05
-0.481157
-0.158629
-0.195867
-0.16244
0.0370589
-0.156841
-0.0327196
0.0968152
-0.103045
-0.0718492
-0.0154964
-0.130082
-0.453114
0.0110148
-0.311646
-0.481187
-0.31992
-0.367314
-0.0898884
-0.234007
0.145348
0.253644
-0.258825
-0.0117934
0.0272509
-0.0211706
0.00733679
-0.483483
-0.0361759
-0.29086
-0.00711732
-0.0090436
-0.183843
0.0154081
-0.477971
-0.0334719
0.408599
-0.0493667
0.022404
-0.280335
-0.0488552
-0.126825
0.00146424
-0.0205145
-0.177341
0.121453
0.0223667
0.0895057
-0.362271
-0.0910773
0.510237
0.0163799
0.0165699
-0.0113441
0.0188224
-0.0632279
0.0647404
-0.00871193
-0.457421
0.00788377
0.0197365
-0.161762
-0.272961
-0.112552
-0.0761222
-0.00289266
-0.0335125
-0.181637
0.50221
-0.258805
-0.42925
-0.0594188
-0.0918896
-0.140735
-0.0268025
-0.137886
-0.245289
0.00278682
-0.227585
-0.162584
-0.221792
-0.235346
-0.376017
-0.142836
0.0401761
-0.25825
0.0244848
-0.0959472
-0.214858
-0.00272417
-0.207144
-0.00284814
0.0346214
-0.133493
-0.488681
0.0606073
0.00420494
-0.0988492
-0.281693
0.293488
-0.14072
0.0185109
-0.152217
-0.0158784
-0.1232
-0.221271
0.00989576
-0.475464
-0.0245763
-0.000149749
0.0411373
-0.00528947
-0.304739
-0.133186
0.0165893
-0.305243
0.0237056
-0.48697
-0.0142638
-0.163872
0.203707
-0.177798
0.0978329
0.0078158
-0.00774091
0.00407336
-0.247239
-0.156906
0.00600943
-0.110648
-0.158884
-0.342064
-0.0912022
-0.17626
-0.279664
0.008555
-0.360913
-0.00231499
-0.136347
0.0036486
0.0457387
-0.0306795
-0.179274
-0.279206
-0.180266
-0.214149
-0.467157
0.378106
-0.13851
-0.245895
0.00301647
-0.171772
-0.478324
-0.0110686
-0.131854
-0.270027
-0.225109
0.0110471
-0.168225
0.126748
-0.171584
-0.317936
-0.0726173
-0.146686
-0.0631494
-0.00359797
-0.0095959
-0.485239
-0.239957
0.193762
-0.2347
0.00311859
-0.280347
0.0499362
-0.00947658
0.052903
-0.154328
-0.0564096
0.0207666
0.0113864
-0.356058
0.00401547
-0.0622319
-0.372795
-0.00665026
0.00370953
-0.314577
-0.000240031
0.134555
-0.0563744
-0.194787
0.493093
0.0149866
-0.0864938
-0.0765683
-0.0874522
-0.0746081
-0.0478276
0.324871
0.427183
-0.146782
-0.30652
0.328347
-0.016557
-0.216753
-0.177451
-0.133405
-0.00227409
0.020656
0.371278
-0.0354154
-0.274268
0.416936
-0.0841774
-0.166105
-0.0460581
-0.238719
-0.173927
0.0116326
0.00731633
0.0136694
0.00371939
-0.25758
-0.249612
-0.064389
-0.239173
-0.145211
-0.137423
-0.0280055
-0.054165
-0.159469
0.00190728
0.00274681
-0.247365
-0.0411664
0.304238
-0.000611521
0.00682768
0.0203715
-0.0684381
-0.00531339
-0.121731
-0.015134
-0.0477803
-0.301226
-0.133839
0.490829
-0.397757
0.107481
-0.0392256
-0.292288
-0.195372
-0.120649
0.255519
0.00864648
-0.156682
0.0204829
-0.0372996
-0.00197151
0.290662
-0.122457
-0.282392
-0.189051
-0.233287
-0.00942887
-0.00328681
-0.0283261
-0.14654
-0.413993
-0.178074
0.517315
0.00345751
-0.404093
-0.0419932
0.00591413
-0.0248677
0.0368274
-0.366466
0.0297426
-0.132872
-0.00693903
0.496412
0.153902
-0.139901
-0.0387819
-0.031079
-0.0476887
-0.00717497
-0.177254
0.508782
-0.284981
-0.155192
-0.0102376
-0.284425
0.222424
0.0203817
-0.0738532
-0.0168083
-0.0558351
-0.010918
-0.363605
-0.0456862
-0.179057
-0.151093
-0.00849175
-0.481153
-0.00985084
-0.0647874
0.060922
-0.0495775
-0.00361865
-0.0070095
-0.0920996
0.0119675
-0.042986
-0.00746401
-0.0386975
0.511593
-0.167984
0.0568168
-0.0936154
-0.398224
0.00195335
0.0120792
-0.0195577
-0.143378
-0.00638773
-0.156338
-0.282441
0.0189755
-0.25348
-0.160287
0.0249464
-0.0153259
-0.0736524
-0.011326
-0.248129
-0.179725
-0.262801
-0.0468719
-0.077991
-0.0139529
0.504491
0.0713197
0.39247
0.0074088
-0.201312
-0.484649
-0.106292
-0.0520722
-0.298542
-0.483867
-0.283023
0.0585385
-0.00859763
-0.477905
0.490591
-0.00135061
0.024433
0.41604
-0.0171361
-0.230119
0.486265
-0.00522673
-0.0169808
-0.285938
-0.130043
-0.0407501
-0.00952043
-0.105301
0.0583487
-0.244495
0.00786128
-0.0298572
0.0104752
-0.0364037
0.0171266
-0.219006
-0.017161
0.0176115
-0.172175
-0.48414
-0.273884
-0.00314401
-0.0608934
-0.102728
0.0417423
0.0403995
-0.101596
0.00167489
0.0148476
-0.269465
0.0483369
0.0238555
0.0352488
-0.0245514
-0.489192
-0.250376
-0.0169119
-0.0362708
0.00621956
-0.0906259
-0.416577
0.0774733
-0.181886
0.0175692
0.0492718
-0.0615378
-0.242401
-0.485415
-0.00979122
-0.357725
-0.303045
-0.0733945
-0.00658276
-0.0781968
-0.0868134
0.0301007
-0.0146233
-0.0254119
-0.116727
0.0613447
0.491277
0.0456474
0.0205602
-0.0341191
-0.179869
0.0291482
-0.00915577
-0.212517
0.158026
-0.292215
-0.174161
-0.0237117
0.398951
-0.337478
0.437265
0.055309
0.0106919
0.0225431
-0.30375
0.201951
-0.0262133
-0.0433911
-0.148923
0.461943
-0.477547
0.013456
0.109454
0.0457871
-0.194538
-0.364531
0.00655537
-0.166293
0.0427787
0.0605998
0.006627
-0.448893
-0.179167
0.0248663
-0.0531475
-0.270304
0.0078578
0.0073975
-0.0737772
0.294382
0.0264246
0.00792396
-0.0511039
-0.385936
-0.0886862
-0.0219457
0.000592733
-0.0273172
0.371679
0.0152555
0.0116849
-0.216656
-0.293978
0.000102959
0.0142941
-0.106632
-0.0718147
0.0113379
-0.0309259
-0.154468
0.00156798
0.0128212
-0.0886684
-0.321568
-0.344536
-0.0505173
-0.108424
-0.452801
-0.162046
-0.398523
-0.266104
-0.0267095
0.0228063
-0.0112617
0.0722424
0.0101232
0.0258529
-0.00918941
0.00338675
0.00369066
-0.261762
-0.0987275
-0.25997
-0.0277944
-0.266779
0.028612
-0.0557646
-0.00787304
-0.00482017
0.129309
-0.339732
-0.0091459
0.0014661
-0.0440114
-0.260687
0.00477338
-0.105324
0.0222863
-0.0758737
-0.142323
0.209885
0.505031
-0.0138082
-0.227586
-0.0266361
-0.263806
-0.47659
0.000989366
-0.279349
-0.161513
0.0109941
-0.0138374
-0.133111
-0.0912009
-0.128379
-0.0060572
-0.396683
0.167693
-0.167799
-0.0088798
0.00336778
-0.061009
-0.48853
-0.283241
-0.488753
-0.127397
-0.485185
0.0869832
-0.423316
-0.0289427
0.455351
0.0049769
-0.0231063
-0.330385
0.0633683
-0.255322
0.00382184
-0.0124645
-0.47511
-0.301778
0.00364792
-0.388704
0.00713938
-0.278643
-0.00193119
-0.269476
-0.486317
-0.0255079
-0.220514
-0.0542008
-0.27622
0.0320304
-0.0161626
0.0338471
-0.166364
0.00797926
-0.328223
-0.00156979
-0.439575
-0.173211
-0.260029
0.00423182
-0.00832501
-0.173201
-0.0473926
0.159703
0.00874258
0.312284
-0.0296312
0.0256859
-0.138165
0.0221734
0.0113464
-0.0335982
0.0163431
-0.175445
-0.0750355
0.00324304
-0.273848
-0.279881
0.420612
-0.0210291
-0.2061
0.480527
-0.0226938
-0.0723254
-0.0355239
0.0203911
0.00450859
0.0360981
-0.0558033
-0.0752775
-0.436844
-0.0346856
-0.0679873
0.0117797
0.012569
-0.18015
-0.0743524
0.0105692
-0.0368605
-0.15746
-0.316586
0.0280843
-0.252568
0.0403398
0.455957
0.0210204
-0.455804
-0.00346917
-0.037668
0.00943747
0.00111712
0.0626572
-0.275392
-0.00556611
-0.280411
-0.231225
-0.0948367
-0.266949
0.0103915
0.0369602
-0.178008
-0.0191313
0.339281
0.0269915
-0.105213
-0.0070534
-0.350356
-0.27568
-0.159299
0.00369884
-0.396157
-0.484526
-0.230826
0.371085
0.108417
-0.219451
0.00132798
-0.241465
-0.270183
-0.0729945
-0.190727
-0.00116553
0.0262243
-0.058117
-0.266325
-0.0172572
-0.169002
0.00489505
-0.353171
-0.103821
0.142931
-0.00124038
-0.0953306
0.38909
0.0265006
-0.106574
-0.124722
-0.174176
-0.0175646
0.00443051
-0.265558
-0.332778
0.00850188
-0.484908
0.0709526
0.0147848
-0.474548
-0.231915
0.022791
-0.345347
-0.00760308
0.00327009
-0.120136
-0.275861
0.0025297
-0.203346
-0.0189982
0.0196099
-0.488869
-0.034324
-0.126825
0.000432795
0.474764
0.0231501
-0.48906
-0.00938159
0.240098
-0.0265988
0.10508
0.37361
-0.321932
0.226514
-0.339067
-0.0742667
-0.230647
-0.32842
-0.172435
0.00317075
-0.179913
-0.433844
-0.146386
-0.220905
0.0424118
0.00176612
-0.0288491
-0.384178
0.0239197
-0.0319716
-0.220826
0.00759378
-0.276939
-0.0160438
-0.256074
0.0133042
0.00736888
-0.165051
-0.00932381
-0.11498
0.00360319
-0.0271411
-0.209965
-0.150799
-0.00121915
0.0114428
-0.313734
-0.485448
0.0151363
-0.0775036
-0.108812
-0.0153387
-0.487897
-0.309945
-0.352352
-0.231236
-0.484572
-0.192933
-0.170777
0.00145001
-0.00223718
0.0168583
0.00565928
0.0654429
-0.43281
-0.465584
0.0098783
-0.0406688
-0.0416365
-0.281257
-0.291137
-0.350976
-0.383955
0.0288765
-0.387112
-0.440391
0.0974279
-0.248586
-0.123126
-0.0292053
-0.274809
-0.156009
-0.150129
0.0208175
-0.0166219
-0.127626
-0.253389
-0.00283484
0.0210535
0.00692039
-0.00102683
0.0265571
-0.453941
0.01611
-0.00633494
-0.415869
0.0106855
-0.309335
-0.127676
-0.331477
-0.224317
0.00464695
-0.338772
0.368795
0.461059
0.0288476
-0.0776767
0.0112243
0.0735628
-0.486103
-0.167372
-0.186295
-0.039886
0.00571179
0.361335
-0.0448895
0.0245623
0.114235
0.0107806
-0.274486
0.00534493
-0.202013
-0.336019
0.0696892
0.0052499
-0.291609
0.00290482
-0.0210083
0.194517
-0.00922774
-0.0348969
-0.199996
0.453164
-0.371729
-0.0154594
0.0767127
-0.00220073
-0.312476
-0.150613
-0.0093008
-0.0767048
0.00793476
-0.025348
-0.0373407
-0.0169152
-0.140897
-0.0735116
0.024279
-0.0289357
0.022168
0.00948219
-0.0262664
0.0112635
0.398909
-0.149115
-0.323318
-0.312908
-0.199922
0.319892
-0.031888
-0.482373
-0.167565
-0.201625
0.0246898
-0.0207838
0.456555
-0.38063
-0.27515
-0.284316
-0.294291
0.00980799
0.0196707
-0.192195
0.000124992
-0.145803
-0.226412
-0.0401859
-0.47117
-0.180834
0.00731194
-0.489787
-0.248118
0.264597
0.454888
0.03685
-0.168107
-0.342981
-0.269271
0.000272155
0.282354
-0.131317
0.00139933
-0.102279
-0.0225325
-0.146737
0.0172575
-0.434911
-0.359613
0.0356042
-0.0488524
0.053579
-0.452324
-0.129754
0.0277865
0.0442379
-0.181698
0.0173249
-0.0491689
-0.182801
0.445442
-0.000310425
0.317715
0.247116
0.0122496
-0.120785
-0.00809588
0.0249484
-0.0614744
0.0166584
-0.0566087
-0.279905
-0.198789
0.0280584
-0.479915
-0.127568
-0.112556
-0.486338
-0.100315
-0.0503057
-0.356499
-0.0596143
0.0918789
-0.123853
-0.101423
-0.0271161
-0.00781101
0.00963504
-0.284042
-0.23101
-0.388587
-0.244651
-0.000909406
0.10538
-0.191749
-0.0946799
-0.358097
0.00641135
-0.171085
-0.00311829
-0.458687
-0.017088
-0.268824
0.068953
-0.479841
-0.231699
-0.182361
-0.292889
0.124918
-0.000161004
0.291976
-0.488064
-0.470292
-0.0741973
0.0599971
0.00373156
0.0328117
-0.0896861
0.0212461
0.0181859
-0.000407287
-0.148624
0.0271897
-0.272675
0.00683976
-0.260849
-0.0115078
-0.16895
-0.479584
0.0477874
-0.247062
0.011591
-0.0587512
-0.0225715
0.0221126
0.0155532
0.408289
-0.215168
-0.00502906
0.0938683
0.032715
-0.175414
-0.0939061
-0.324453
-0.215878
0.036355
-0.129633
-0.0381949
0.0293325
0.221863
0.0237099
-0.106609
-0.470841
0.0137299
-0.265633
0.057731
0.00950291
-0.0076891
-0.314034
0.0289755
-0.320319
-0.0330622
0.0201987
-0.1256
-0.20726
-0.267817
-0.0607192
0.021938
0.0147876
-0.171056
-0.17688
0.017816
-0.117517
0.0446734
-0.0981486
0.464009
-0.157244
-0.442656
-0.468798
-0.0129701
-0.141265
-0.0214115
-0.26464
-0.33918
-0.0755973
-0.332778
-0.133334
-0.0125906
0.0792212
0.0275862
-0.0101748
0.0396048
0.0258424
-0.304391
0.0483074
-0.124951
-0.276354
0.007892
-0.36613
0.0174063
0.0163244
-0.131141
-0.302775
-0.0172671
-0.418187
0.294742
-0.122551
-0.488798
-0.0354454
-0.137146
-0.246836
0.0644481
-0.0149936
0.446664
0.031676
0.00747603
0.00742505
0.303246
-0.481525
-0.0567494
0.0236652
-0.198746
-0.477274
0.0574922
0.0153823
-0.296306
-0.285231
0.00317499
0.325364
-0.230009
0.00849393
-0.0593655
-0.00799356
-0.181933
0.00660333
-0.420807
-0.432204
-0.412649
-0.0381056
0.164952
-0.0237145
-0.00181118
-0.138053
0.00189888
-0.265535
-0.214668
-0.18336
0.000233341
-0.012643
0.455229
-0.13184
0.249618
-0.331378
-0.206697
-0.260675
-0.0463569
-0.409711
0.279257
-0.0644986
0.405903
-0.364735
-0.180518
0.027867
-0.488594
-0.00625
-0.238973
-0.233892
0.305218
-0.00763769
-0.123465
0.014669
-0.272846
-0.174478
-0.0374741
0.0147268
-0.41564
-0.222306
0.00722138
-0.278385
-0.149443
-0.262518
0.0136495
-0.35713
0.0176283
-0.136271
0.0158346
-0.0399566
0.00674239
0.0321606
-0.25645
-0.14713
-0.0107043
-0.161239
-0.487748
-0.00910942
-0.0121869
0.0545309
0.104122
-0.109138
-0.128152
-0.471505
-0.247017
-0.407367
-0.394212
-0.11943
0.0607468
-0.145062
-0.225934
-0.489223
-0.185699
-0.221131
-0.141812
-0.104529
-0.0388647
-0.48761
-0.00935558
-0.349478
0.0225454
0.0041688
-0.420368
0.0135559
-0.0197215
0.36015
-0.0376159
-0.127177
0.0234779
-0.0428665
-0.263566
0.345589
-0.0162316
0.00797856
-0.413305
-0.140146
-0.0586398
0.50779
-0.151303
-0.132788
-0.199365
-0.450847
0.0661824
-0.285832
-0.13191
-0.15632
0.0230688
-0.0112155
-0.126302
-0.486346
-0.462133
-0.427785
-0.186836
0.00908997
-0.170416
0.0355512
-0.469165
-0.0254798
0.00792248
-0.121512
-0.182783
-0.201848
-0.426151
0.0480818
0.397265
-0.269534
-0.0325814
-0.173554
-0.00891512
0.138517
-0.240646
-0.123764
-0.262933
-0.423192
-0.158526
0.499982
-0.10089
0.0310771
-0.0411161
-0.0737903
-0.304535
-0.378501
-0.420772
-0.287477
0.122572
-0.00272107
-0.232477
-0.123786
-0.326885
0.0126445
-0.432245
-0.14077
-0.338922
0.00951339
-0.18565
-0.181216
-0.115144
-0.275246
-0.0172646
-0.175453
-0.191014
-0.000581985
-0.201061
-0.286794
-0.0387153
-0.244645
-0.0405317
-0.0476031
0.0140646
-0.198812
-0.139561
0.287377
-0.0748876
-0.461367
-0.0108305
-0.00950062
0.00843803
0.00567911
0.0045889
-0.331849
0.36226
-0.277951
0.0220268
-0.00999377
-0.438675
-0.0759513
-0.187103
-0.13891
-0.00463875
0.476992
0.145116
-0.0968672
-0.318286
-0.0628939
-0.479306
0.460271
0.116339
-0.00934144
0.346766
-0.0102798
0.375572
-0.374407
-0.202304
-0.00435779
-0.394151
0.435915
0.0215845
-0.172253
0.0233419
-0.371117
-0.415406
0.0330134
0.00910473
0.102409
-0.120271
-0.00686049
-0.019154
0.0359659
-0.434786
0.104231
0.484521
0.46085
-0.3202
-0.246671
-0.225589
0.00841093
-0.180625
-0.474368
0.100853
0.00207916
-0.0522858
0.0201847
-0.487139
-0.187493
-0.340827
0.00934986
-0.0925098
0.517238
-0.482953
-0.167963
0.0211996
0.340081
-0.132416
0.00284132
0.0213459
0.477074
-0.195508
-0.0684151
-0.138341
0.437005
-0.448788
-0.0900459
0.0726544
0.439877
-0.130561
-0.00335186
0.024462
0.00918379
-0.00149918
-0.234899
0.271623
0.0709935
-0.489288
-0.159975
-0.0134486
-0.209961
0.330618
0.124039
-0.0791453
-0.0139525
-0.00534114
0.51042
0.392387
-0.0874067
-0.000234918
0.389118
-0.335409
-0.240555
-0.114416
-0.0528768
-0.0127145
0.0223046
0.00671332
-0.0891172
-0.435724
-0.146331
0.0296946
0.357701
0.0242965
-0.311226
0.0585454
-0.188944
0.0713818
0.0806661
-0.0879052
-0.274769
0.00308178
-0.00929331
-0.00167565
-0.181766
-0.0508601
-0.28349
-0.169887
-0.0857274
0.00269621
-0.081944
-0.0468977
0.0239528
-0.426852
-0.00955372
-0.176596
-0.470287
-0.202431
-0.0691503
0.0352877
0.0129694
0.0234186
0.00207194
-0.15348
-0.306993
-0.471755
-0.457141
0.470972
0.370786
0.074199
-0.303386
-0.133194
-0.0958264
0.0328137
-0.0196903
-0.133247
-0.031096
-0.0161167
-0.192124
-0.244571
-0.325948
-0.281172
-0.224739
0.00800586
0.0156248
-0.039446
-0.081847
-0.179535
0.015954
-0.127074
0.452857
0.486503
-0.120595
0.043061
0.432343
-0.0797686
-0.279782
0.0468877
-0.00669755
0.015554
0.0314592
0.0131255
-0.220103
-0.243724
-0.159903
-0.17714
-0.164995
-0.00489184
-0.103129
0.0682108
0.00626907
-0.0745413
-0.420634
-0.246863
-0.00434191
0.419076
0.000476073
-0.150839
0.068464
-0.0769317
0.0226252
-0.169496
-0.128119
-0.234253
-0.485894
-0.32865
-0.321173
-0.476925
-0.333189
-0.291238
-0.0120195
-0.298107
-0.00714326
-0.47914
0.02152
0.401443
0.00804942
-0.180247
0.0318005
-0.00313837
0.0362299
0.00158322
0.501461
-0.0202074
-0.00103558
-0.0107382
-0.00712526
-0.00242874
-0.0453797
0.0234662
-0.292893
-0.137798
0.0116627
-0.166257
0.0261969
0.000164145
-0.176606
-0.271186
0.0118038
-0.0873417
-0.00694579
-0.00877922
-0.348012
-0.028805
0.107096
-0.231561
-0.258402
-0.471891
-0.362725
-0.280637
-0.486795
-0.481236
-0.263461
-0.321417
-0.0392608
-0.318517
0.0199828
0.0124639
-0.181037
-0.0622054
0.513306
-0.0273525
-0.119316
-0.109088
0.439913
-0.17531
-0.118787
-0.0485362
0.00318558
-0.114391
0.024615
-0.00453443
0.43906
-0.0306758
-0.323515
-0.368211
-0.218311
-0.0246058
-0.240496
0.0532648
-0.48587
0.443506
-0.000305154
-0.334468
-0.271463
-0.140808
-0.112334
-0.0955108
-0.177808
-0.174933
-0.0542799
-0.479641
-0.150268
0.132924
-0.299527
0.0340648
-0.15007
0.0268344
-0.00894085
-0.0254456
0.411601
-0.229222
0.378231
-0.265194
0.0188387
0.209361
0.50212
-0.00481249
-0.2915
-0.0116274
0.507182
-0.195514
-0.302438
-0.232452
-0.278538
-0.00144961
-0.0340523
0.021241
-0.473176
-0.118506
-0.0392464
0.0094304
-0.0110308
0.00198966
-0.0236719
-0.0434986
-0.177243