/*--------------------------------*- C++ -*----------------------------------*\
| =========                 |                                                 |
| \\      /  F ield         | OpenFOAM: The Open Source CFD Toolbox           |
|  \\    /   O peration     | Version:  v2012                                 |
|   \\  /    A nd           | Website:  www.openfoam.com                      |
|    \\/     M anipulation  |                                                 |
\*---------------------------------------------------------------------------*/
FoamFile
{
    version     2.0;
    format      ascii;
    class       volVectorField;
    location    "150";
    object      cellDisplacement;
}
// * * * * * * * * * * * * * * * * * * * * * * * * * * * * * * * * * * * * * //

dimensions      [0 1 0 0 0 0 0];


internalField   nonuniform List<vector> 
18758
(
(0 6.35192e-07 0)
(0 6.96508e-07 0)
(0 -3.52561e-06 0)
(0 4.96542e-07 0)
(0 7.59973e-07 0)
(0 7.59046e-07 0)
(0 7.77296e-07 0)
(0 5.77949e-06 0)
(0 4.00563e-07 0)
(0 -1.30204e-06 0)
(0 -5.1375e-06 0)
(0 7.77809e-07 0)
(0 2.21731e-06 0)
(0 -1.46797e-06 0)
(0 -2.87172e-05 0)
(0 7.60345e-07 0)
(0 -5.21357e-06 0)
(0 7.77616e-06 0)
(0 -1.97078e-05 0)
(0 -7.37949e-07 0)
(0 7.69393e-07 0)
(0 2.21829e-06 0)
(0 7.79409e-07 0)
(0 5.99796e-07 0)
(0 7.07558e-07 0)
(0 6.46301e-06 0)
(0 7.65247e-07 0)
(0 7.61676e-07 0)
(0 7.30484e-07 0)
(0 7.65207e-07 0)
(0 -3.84606e-06 0)
(0 7.91523e-07 0)
(0 1.31702e-06 0)
(0 -1.30121e-05 0)
(0 -8.49942e-07 0)
(0 2.61776e-06 0)
(0 1.70942e-06 0)
(0 -7.56867e-06 0)
(0 -7.93733e-06 0)
(0 -4.22966e-06 0)
(0 -8.24691e-06 0)
(0 -8.25629e-07 0)
(0 -9.52372e-06 0)
(0 -1.18771e-06 0)
(0 7.57794e-07 0)
(0 5.37199e-06 0)
(0 7.79035e-07 0)
(0 -3.79158e-06 0)
(0 -1.38474e-06 0)
(0 -1.17213e-05 0)
(0 4.79489e-07 0)
(0 7.54352e-07 0)
(0 -5.49133e-06 0)
(0 -5.33834e-06 0)
(0 7.63295e-07 0)
(0 7.53995e-07 0)
(0 1.90503e-06 0)
(0 7.5082e-07 0)
(0 -5.76839e-06 0)
(0 -1.12896e-06 0)
(0 5.69584e-07 0)
(0 7.75067e-07 0)
(0 -1.57107e-07 0)
(0 -2.76518e-06 0)
(0 -4.49022e-06 0)
(0 -5.31816e-06 0)
(0 -4.48805e-06 0)
(0 1.66129e-06 0)
(0 -7.62899e-06 0)
(0 7.57815e-07 0)
(0 7.61807e-07 0)
(0 -3.47484e-06 0)
(0 -1.13276e-05 0)
(0 7.69288e-07 0)
(0 -3.95861e-06 0)
(0 -5.60206e-06 0)
(0 2.58711e-07 0)
(0 7.5988e-07 0)
(0 6.62641e-07 0)
(0 7.83615e-07 0)
(0 7.65755e-07 0)
(0 7.59652e-07 0)
(0 -1.03402e-06 0)
(0 7.60782e-07 0)
(0 2.54129e-07 0)
(0 -4.34585e-06 0)
(0 7.67984e-07 0)
(0 -1.80759e-07 0)
(0 7.69558e-07 0)
(0 -5.58794e-06 0)
(0 7.62628e-07 0)
(0 -5.79458e-06 0)
(0 7.7013e-07 0)
(0 -7.43363e-07 0)
(0 7.65135e-07 0)
(0 7.69943e-07 0)
(0 2.15943e-07 0)
(0 -4.32773e-06 0)
(0 -2.10111e-06 0)
(0 7.69595e-07 0)
(0 -6.43501e-07 0)
(0 7.64878e-07 0)
(0 -1.37919e-06 0)
(0 -2.28329e-07 0)
(0 7.92333e-07 0)
(0 7.6434e-07 0)
(0 6.34213e-07 0)
(0 7.58046e-07 0)
(0 -5.99642e-06 0)
(0 -3.47483e-06 0)
(0 7.69431e-07 0)
(0 7.69315e-07 0)
(0 7.74986e-06 0)
(0 -4.45976e-06 0)
(0 7.23912e-07 0)
(0 7.69278e-07 0)
(0 7.69248e-07 0)
(0 -2.95495e-05 0)
(0 7.80777e-07 0)
(0 7.65767e-07 0)
(0 -1.81623e-06 0)
(0 -6.1953e-06 0)
(0 7.54982e-07 0)
(0 7.65497e-07 0)
(0 7.36542e-07 0)
(0 7.56498e-07 0)
(0 6.91038e-07 0)
(0 5.91422e-07 0)
(0 7.70719e-07 0)
(0 1.39909e-06 0)
(0 -5.01406e-06 0)
(0 7.63942e-07 0)
(0 7.69318e-07 0)
(0 4.63646e-07 0)
(0 7.69117e-07 0)
(0 -1.88225e-06 0)
(0 2.26206e-07 0)
(0 -4.00048e-06 0)
(0 -1.82248e-06 0)
(0 6.54589e-07 0)
(0 6.63815e-07 0)
(0 7.33805e-07 0)
(0 -4.60737e-06 0)
(0 7.58686e-07 0)
(0 -8.55705e-06 0)
(0 -2.2005e-05 0)
(0 7.69319e-07 0)
(0 7.68641e-07 0)
(0 -4.11261e-06 0)
(0 7.20526e-07 0)
(0 7.58467e-07 0)
(0 5.53855e-07 0)
(0 -4.01112e-06 0)
(0 2.4872e-06 0)
(0 7.68121e-07 0)
(0 -3.47612e-06 0)
(0 7.81556e-07 0)
(0 -3.63813e-06 0)
(0 -4.97793e-06 0)
(0 1.04624e-06 0)
(0 4.44481e-06 0)
(0 -9.56196e-07 0)
(0 7.68947e-07 0)
(0 -5.05163e-06 0)
(0 5.52246e-07 0)
(0 7.34826e-07 0)
(0 -1.77447e-05 0)
(0 7.61785e-07 0)
(0 6.60973e-07 0)
(0 7.57381e-07 0)
(0 7.68709e-07 0)
(0 7.71496e-06 0)
(0 7.68931e-07 0)
(0 7.6129e-07 0)
(0 -9.40119e-07 0)
(0 5.82413e-07 0)
(0 7.35176e-07 0)
(0 -2.64084e-06 0)
(0 6.45139e-07 0)
(0 -5.66331e-06 0)
(0 9.91926e-06 0)
(0 7.69315e-07 0)
(0 5.369e-07 0)
(0 -1.5858e-05 0)
(0 -1.30377e-05 0)
(0 5.00275e-07 0)
(0 -4.6479e-06 0)
(0 7.6926e-07 0)
(0 -9.73433e-06 0)
(0 -5.02233e-06 0)
(0 4.73993e-07 0)
(0 5.78003e-07 0)
(0 -4.16222e-06 0)
(0 -4.3542e-06 0)
(0 -9.68741e-08 0)
(0 -1.05441e-07 0)
(0 -6.7516e-07 0)
(0 6.70314e-07 0)
(0 6.46092e-06 0)
(0 -9.73852e-06 0)
(0 6.32361e-07 0)
(0 -3.64998e-06 0)
(0 -4.9257e-07 0)
(0 -5.08023e-07 0)
(0 2.873e-06 0)
(0 -1.61966e-07 0)
(0 -1.09818e-06 0)
(0 2.07364e-06 0)
(0 7.70864e-07 0)
(0 -1.3306e-06 0)
(0 8.05245e-06 0)
(0 -1.62482e-07 0)
(0 -4.8126e-06 0)
(0 -6.6326e-07 0)
(0 6.43598e-07 0)
(0 7.67571e-07 0)
(0 6.58006e-07 0)
(0 7.59156e-07 0)
(0 -2.50681e-06 0)
(0 7.58114e-07 0)
(0 7.94113e-06 0)
(0 -5.77936e-06 0)
(0 3.34344e-08 0)
(0 7.69275e-07 0)
(0 6.32786e-07 0)
(0 -1.22551e-06 0)
(0 -5.85144e-07 0)
(0 3.65057e-07 0)
(0 -2.15768e-05 0)
(0 -4.15055e-07 0)
(0 -5.69272e-06 0)
(0 -1.21541e-07 0)
(0 7.76906e-07 0)
(0 2.42814e-07 0)
(0 1.90716e-06 0)
(0 -4.59341e-06 0)
(0 -2.05542e-05 0)
(0 6.24873e-06 0)
(0 7.53071e-07 0)
(0 -9.84405e-07 0)
(0 5.14768e-06 0)
(0 7.30848e-07 0)
(0 6.39685e-07 0)
(0 -8.65765e-06 0)
(0 7.13548e-07 0)
(0 7.69281e-07 0)
(0 2.0824e-07 0)
(0 2.95721e-06 0)
(0 7.65427e-07 0)
(0 -2.76804e-07 0)
(0 2.11599e-06 0)
(0 7.62023e-07 0)
(0 -4.34481e-06 0)
(0 -2.29997e-07 0)
(0 -2.75393e-05 0)
(0 -1.46771e-06 0)
(0 5.0777e-07 0)
(0 7.60282e-07 0)
(0 -7.18612e-07 0)
(0 6.47958e-07 0)
(0 -3.52286e-05 0)
(0 -1.7286e-06 0)
(0 2.92643e-06 0)
(0 -5.84203e-07 0)
(0 -1.41083e-06 0)
(0 1.36983e-08 0)
(0 7.69447e-07 0)
(0 -1.9212e-06 0)
(0 -6.35083e-06 0)
(0 7.4127e-07 0)
(0 -6.45462e-06 0)
(0 -1.32455e-05 0)
(0 -4.91299e-07 0)
(0 7.44647e-07 0)
(0 7.69273e-07 0)
(0 -4.7276e-06 0)
(0 4.12081e-07 0)
(0 7.70521e-07 0)
(0 7.57613e-07 0)
(0 -3.77464e-06 0)
(0 -1.38113e-05 0)
(0 -2.07103e-06 0)
(0 -1.0171e-06 0)
(0 -4.53963e-06 0)
(0 7.70233e-07 0)
(0 7.22854e-07 0)
(0 2.52638e-07 0)
(0 7.69315e-07 0)
(0 7.77223e-07 0)
(0 -1.53361e-05 0)
(0 -4.34023e-06 0)
(0 4.34257e-07 0)
(0 7.66514e-07 0)
(0 -9.88993e-07 0)
(0 6.47338e-07 0)
(0 1.60155e-08 0)
(0 -1.88088e-06 0)
(0 7.66224e-07 0)
(0 -1.94016e-05 0)
(0 1.25909e-07 0)
(0 7.59846e-07 0)
(0 5.6115e-06 0)
(0 7.55172e-07 0)
(0 1.32486e-07 0)
(0 -7.77432e-06 0)
(0 -9.75363e-07 0)
(0 -3.36497e-08 0)
(0 -2.18164e-05 0)
(0 2.25069e-06 0)
(0 7.88444e-07 0)
(0 1.83237e-07 0)
(0 9.44534e-07 0)
(0 7.90082e-07 0)
(0 7.6593e-07 0)
(0 6.17147e-07 0)
(0 -1.94938e-07 0)
(0 6.81592e-07 0)
(0 4.38124e-07 0)
(0 -8.47772e-06 0)
(0 -1.53953e-05 0)
(0 -1.24246e-05 0)
(0 -2.16961e-06 0)
(0 6.68198e-07 0)
(0 1.87764e-08 0)
(0 -2.03453e-06 0)
(0 -1.04562e-06 0)
(0 -6.84423e-07 0)
(0 4.61156e-07 0)
(0 -3.45148e-05 0)
(0 1.93744e-06 0)
(0 5.86519e-07 0)
(0 3.33238e-07 0)
(0 4.40884e-07 0)
(0 4.65203e-07 0)
(0 -8.90294e-07 0)
(0 -4.25852e-06 0)
(0 2.12268e-06 0)
(0 1.05701e-07 0)
(0 7.4581e-07 0)
(0 -1.96671e-05 0)
(0 8.58234e-06 0)
(0 -1.87261e-05 0)
(0 -1.95817e-06 0)
(0 3.2764e-07 0)
(0 6.98055e-07 0)
(0 -6.19723e-06 0)
(0 -3.919e-06 0)
(0 -1.3686e-05 0)
(0 7.62408e-07 0)
(0 7.27303e-07 0)
(0 3.55094e-07 0)
(0 6.5827e-07 0)
(0 -1.5662e-05 0)
(0 5.77295e-07 0)
(0 6.28336e-07 0)
(0 -1.31453e-06 0)
(0 -1.01038e-07 0)
(0 7.78823e-07 0)
(0 7.69161e-07 0)
(0 5.33276e-07 0)
(0 6.8707e-06 0)
(0 -4.95569e-07 0)
(0 7.16472e-07 0)
(0 7.47351e-07 0)
(0 -2.11899e-06 0)
(0 -1.44046e-05 0)
(0 -9.7469e-07 0)
(0 -1.44741e-05 0)
(0 -5.2462e-06 0)
(0 7.1106e-07 0)
(0 4.5413e-07 0)
(0 -1.75431e-06 0)
(0 -7.49291e-07 0)
(0 7.69443e-07 0)
(0 -5.7366e-06 0)
(0 -3.51479e-06 0)
(0 -3.76084e-06 0)
(0 -7.63339e-06 0)
(0 -1.30804e-06 0)
(0 -4.96191e-06 0)
(0 7.89459e-07 0)
(0 7.37833e-07 0)
(0 -2.75703e-05 0)
(0 1.30938e-06 0)
(0 7.69788e-07 0)
(0 -1.8153e-06 0)
(0 3.83687e-07 0)
(0 -5.72354e-06 0)
(0 -5.23754e-06 0)
(0 -1.32943e-05 0)
(0 -9.38758e-07 0)
(0 -6.13036e-06 0)
(0 -9.58402e-07 0)
(0 7.69347e-07 0)
(0 7.73437e-07 0)
(0 7.66306e-07 0)
(0 7.68731e-07 0)
(0 3.95007e-06 0)
(0 2.36586e-07 0)
(0 7.75289e-07 0)
(0 -1.34833e-06 0)
(0 7.24479e-06 0)
(0 3.94609e-07 0)
(0 -9.41319e-06 0)
(0 -2.38856e-05 0)
(0 9.39283e-06 0)
(0 -1.19449e-06 0)
(0 -5.65209e-06 0)
(0 -1.14537e-06 0)
(0 6.43713e-07 0)
(0 7.52185e-07 0)
(0 -1.26151e-05 0)
(0 7.61231e-07 0)
(0 -2.59195e-06 0)
(0 3.55919e-07 0)
(0 -9.48158e-06 0)
(0 -5.80557e-06 0)
(0 8.37629e-06 0)
(0 -1.98774e-06 0)
(0 -1.85482e-06 0)
(0 4.35747e-07 0)
(0 7.69337e-07 0)
(0 -1.70228e-06 0)
(0 -2.03737e-06 0)
(0 7.38414e-07 0)
(0 6.99573e-07 0)
(0 4.84337e-07 0)
(0 7.68826e-07 0)
(0 -1.57318e-06 0)
(0 -3.78538e-06 0)
(0 -2.34371e-07 0)
(0 5.5482e-06 0)
(0 -4.68059e-06 0)
(0 -1.90039e-06 0)
(0 -4.01315e-06 0)
(0 -9.00414e-06 0)
(0 6.93773e-08 0)
(0 -4.04358e-06 0)
(0 4.83605e-07 0)
(0 -1.24685e-06 0)
(0 -5.82258e-06 0)
(0 -1.1587e-06 0)
(0 7.69471e-07 0)
(0 -3.0529e-06 0)
(0 3.92283e-07 0)
(0 9.99859e-07 0)
(0 -1.28742e-06 0)
(0 7.64575e-07 0)
(0 -6.37241e-07 0)
(0 -7.1398e-06 0)
(0 4.91386e-07 0)
(0 -7.65834e-07 0)
(0 4.06356e-07 0)
(0 7.71277e-07 0)
(0 -5.68676e-06 0)
(0 -3.36299e-06 0)
(0 7.614e-07 0)
(0 7.7874e-07 0)
(0 2.19785e-07 0)
(0 2.64658e-07 0)
(0 -1.43508e-06 0)
(0 4.42738e-07 0)
(0 7.69313e-07 0)
(0 -1.32564e-06 0)
(0 -3.49817e-06 0)
(0 3.49947e-07 0)
(0 -4.50367e-06 0)
(0 -1.80692e-06 0)
(0 -4.16254e-06 0)
(0 7.71372e-07 0)
(0 -5.5367e-06 0)
(0 7.08234e-07 0)
(0 -9.02503e-06 0)
(0 -3.38101e-06 0)
(0 5.81119e-06 0)
(0 5.97704e-07 0)
(0 -1.06507e-05 0)
(0 7.69232e-07 0)
(0 -4.00862e-06 0)
(0 7.2742e-07 0)
(0 3.75999e-06 0)
(0 3.87863e-07 0)
(0 -5.0644e-06 0)
(0 6.82752e-06 0)
(0 -2.05951e-06 0)
(0 9.02223e-06 0)
(0 6.59907e-07 0)
(0 7.7059e-07 0)
(0 7.22038e-07 0)
(0 -4.90872e-06 0)
(0 -1.41448e-05 0)
(0 -3.92753e-08 0)
(0 3.33244e-06 0)
(0 5.57939e-07 0)
(0 7.53561e-07 0)
(0 -2.34317e-06 0)
(0 -1.70385e-06 0)
(0 6.81559e-08 0)
(0 6.89968e-06 0)
(0 2.51817e-07 0)
(0 -8.84284e-08 0)
(0 -2.11742e-06 0)
(0 -5.58283e-06 0)
(0 -6.20937e-07 0)
(0 -3.18385e-06 0)
(0 -3.28986e-06 0)
(0 7.11471e-07 0)
(0 -1.59513e-05 0)
(0 1.89413e-07 0)
(0 -1.94348e-06 0)
(0 -1.67949e-06 0)
(0 7.6868e-07 0)
(0 -3.49849e-06 0)
(0 -5.49122e-06 0)
(0 7.67126e-07 0)
(0 7.69304e-07 0)
(0 -3.618e-06 0)
(0 4.99732e-07 0)
(0 -2.02812e-06 0)
(0 -5.67329e-06 0)
(0 7.69306e-07 0)
(0 -1.82834e-05 0)
(0 7.69287e-07 0)
(0 7.21551e-07 0)
(0 5.60481e-06 0)
(0 7.17037e-07 0)
(0 5.89515e-07 0)
(0 -9.62862e-07 0)
(0 5.19172e-06 0)
(0 2.92187e-07 0)
(0 7.53538e-07 0)
(0 -7.91549e-06 0)
(0 -7.04818e-06 0)
(0 -2.77674e-05 0)
(0 -2.13916e-05 0)
(0 -2.14643e-05 0)
(0 4.84478e-06 0)
(0 4.05684e-07 0)
(0 7.48981e-07 0)
(0 -5.40748e-06 0)
(0 7.34826e-07 0)
(0 -6.43658e-06 0)
(0 4.13359e-07 0)
(0 7.06583e-07 0)
(0 3.03882e-06 0)
(0 -9.47375e-06 0)
(0 -4.93916e-06 0)
(0 6.26763e-06 0)
(0 -3.6996e-06 0)
(0 -2.10165e-06 0)
(0 -5.50075e-06 0)
(0 -2.63464e-07 0)
(0 7.61759e-07 0)
(0 -1.03914e-05 0)
(0 7.54309e-07 0)
(0 7.65838e-07 0)
(0 1.71624e-07 0)
(0 3.35458e-07 0)
(0 7.66299e-07 0)
(0 -8.53911e-07 0)
(0 -1.64255e-05 0)
(0 -4.71188e-06 0)
(0 7.60332e-07 0)
(0 -5.43731e-06 0)
(0 -6.30885e-06 0)
(0 -4.62843e-06 0)
(0 7.36691e-07 0)
(0 -2.49237e-06 0)
(0 7.2175e-07 0)
(0 -2.38397e-07 0)
(0 7.71135e-07 0)
(0 -5.18568e-06 0)
(0 -5.05466e-06 0)
(0 -6.82183e-07 0)
(0 7.06803e-07 0)
(0 -3.71475e-06 0)
(0 7.29793e-07 0)
(0 -4.0073e-06 0)
(0 6.61075e-07 0)
(0 -3.64371e-06 0)
(0 -8.36234e-06 0)
(0 8.53933e-06 0)
(0 6.60335e-06 0)
(0 7.65392e-07 0)
(0 6.66708e-07 0)
(0 -5.65143e-06 0)
(0 -1.31325e-07 0)
(0 -3.49612e-07 0)
(0 5.19523e-07 0)
(0 7.70341e-07 0)
(0 3.99239e-07 0)
(0 6.7389e-07 0)
(0 -3.21939e-05 0)
(0 7.5904e-07 0)
(0 -4.64662e-06 0)
(0 -4.31207e-06 0)
(0 -4.20296e-06 0)
(0 7.56996e-07 0)
(0 7.67746e-07 0)
(0 -1.25202e-05 0)
(0 -2.67743e-06 0)
(0 -4.37069e-06 0)
(0 -1.87022e-06 0)
(0 7.68884e-07 0)
(0 -3.40597e-07 0)
(0 7.62678e-07 0)
(0 7.75885e-07 0)
(0 -5.1245e-06 0)
(0 6.43053e-06 0)
(0 -1.56847e-06 0)
(0 1.64444e-06 0)
(0 4.80582e-06 0)
(0 -2.16583e-06 0)
(0 -2.63729e-05 0)
(0 -1.94799e-07 0)
(0 -2.66821e-06 0)
(0 6.4867e-07 0)
(0 7.5732e-07 0)
(0 2.32238e-07 0)
(0 3.99585e-06 0)
(0 -7.0927e-07 0)
(0 4.43469e-07 0)
(0 7.53634e-07 0)
(0 -6.63904e-06 0)
(0 7.60321e-07 0)
(0 -8.64165e-07 0)
(0 -5.57708e-06 0)
(0 -1.65697e-07 0)
(0 6.24092e-07 0)
(0 -4.10401e-06 0)
(0 -1.76221e-05 0)
(0 7.19274e-07 0)
(0 7.63415e-07 0)
(0 6.65368e-07 0)
(0 6.53475e-06 0)
(0 7.69197e-07 0)
(0 7.69315e-07 0)
(0 7.12363e-07 0)
(0 -1.24233e-05 0)
(0 7.69654e-07 0)
(0 7.89682e-07 0)
(0 7.68118e-07 0)
(0 -5.15909e-06 0)
(0 2.98697e-06 0)
(0 7.25782e-07 0)
(0 4.13833e-07 0)
(0 -3.07159e-07 0)
(0 7.69224e-07 0)
(0 4.45038e-07 0)
(0 7.70872e-07 0)
(0 -1.54423e-06 0)
(0 7.69073e-07 0)
(0 -1.67748e-06 0)
(0 -5.27611e-06 0)
(0 -2.72854e-06 0)
(0 7.69164e-07 0)
(0 2.94276e-07 0)
(0 7.89419e-07 0)
(0 4.85876e-07 0)
(0 -1.91344e-05 0)
(0 -3.02238e-07 0)
(0 2.52349e-06 0)
(0 -4.98758e-07 0)
(0 -1.90508e-06 0)
(0 4.64421e-07 0)
(0 6.11677e-06 0)
(0 -1.31604e-06 0)
(0 1.80919e-07 0)
(0 7.58409e-07 0)
(0 7.69099e-07 0)
(0 7.82222e-07 0)
(0 -1.21427e-06 0)
(0 -6.60425e-07 0)
(0 2.37441e-07 0)
(0 -3.78425e-06 0)
(0 -1.31552e-05 0)
(0 -3.15952e-06 0)
(0 -1.96693e-05 0)
(0 -3.62693e-06 0)
(0 -2.89063e-06 0)
(0 -2.07893e-06 0)
(0 5.7427e-06 0)
(0 1.34342e-06 0)
(0 9.11043e-06 0)
(0 7.60407e-07 0)
(0 -3.43856e-06 0)
(0 1.68289e-06 0)
(0 -1.71434e-06 0)
(0 -1.35876e-06 0)
(0 -1.04867e-05 0)
(0 7.69409e-07 0)
(0 -1.49835e-05 0)
(0 -3.28161e-05 0)
(0 -5.01142e-07 0)
(0 1.94265e-07 0)
(0 -1.392e-05 0)
(0 -3.74029e-06 0)
(0 7.58622e-07 0)
(0 2.12329e-07 0)
(0 -7.25939e-07 0)
(0 6.12386e-07 0)
(0 -7.43933e-07 0)
(0 3.41205e-07 0)
(0 -8.33827e-07 0)
(0 -2.73596e-07 0)
(0 7.6803e-07 0)
(0 7.69182e-07 0)
(0 -1.7726e-05 0)
(0 7.60259e-07 0)
(0 5.942e-07 0)
(0 6.26522e-06 0)
(0 7.68933e-07 0)
(0 2.30224e-07 0)
(0 9.57879e-06 0)
(0 -2.46535e-06 0)
(0 7.69846e-06 0)
(0 5.66926e-07 0)
(0 7.55822e-07 0)
(0 -1.03332e-05 0)
(0 7.68636e-07 0)
(0 -3.21981e-05 0)
(0 -1.96285e-06 0)
(0 2.1211e-07 0)
(0 -1.1053e-05 0)
(0 7.64066e-07 0)
(0 -2.78564e-06 0)
(0 -1.21926e-05 0)
(0 -4.24978e-06 0)
(0 -3.4936e-06 0)
(0 4.46412e-07 0)
(0 6.33153e-07 0)
(0 7.7002e-07 0)
(0 2.54734e-07 0)
(0 7.61196e-07 0)
(0 -1.42595e-06 0)
(0 -2.46615e-06 0)
(0 2.29949e-07 0)
(0 7.83103e-07 0)
(0 6.80647e-07 0)
(0 6.45939e-07 0)
(0 3.36648e-07 0)
(0 -5.01329e-06 0)
(0 -2.86867e-06 0)
(0 4.60155e-07 0)
(0 -3.87955e-06 0)
(0 7.60475e-07 0)
(0 4.98732e-06 0)
(0 7.69683e-07 0)
(0 -1.30058e-05 0)
(0 6.41634e-07 0)
(0 -5.7548e-07 0)
(0 -7.05575e-06 0)
(0 7.23648e-07 0)
(0 -2.65157e-06 0)
(0 5.52115e-06 0)
(0 7.03334e-07 0)
(0 -2.74937e-06 0)
(0 8.90027e-06 0)
(0 -3.80935e-06 0)
(0 2.28795e-08 0)
(0 4.66658e-07 0)
(0 7.11679e-07 0)
(0 5.56357e-07 0)
(0 7.69153e-07 0)
(0 6.3427e-06 0)
(0 3.04662e-06 0)
(0 7.69149e-07 0)
(0 -3.77665e-06 0)
(0 7.34577e-07 0)
(0 -1.39992e-06 0)
(0 -5.16012e-06 0)
(0 -2.03727e-06 0)
(0 -9.93444e-07 0)
(0 -5.96292e-06 0)
(0 -1.20566e-05 0)
(0 -7.73038e-06 0)
(0 7.30663e-07 0)
(0 6.46288e-07 0)
(0 7.26058e-07 0)
(0 2.47019e-07 0)
(0 1.08134e-05 0)
(0 -3.41546e-06 0)
(0 7.32662e-07 0)
(0 6.33394e-06 0)
(0 -1.91268e-06 0)
(0 -7.10373e-06 0)
(0 7.56575e-07 0)
(0 -2.20682e-06 0)
(0 7.67282e-07 0)
(0 4.60704e-06 0)
(0 6.04683e-07 0)
(0 1.30967e-06 0)
(0 -1.30656e-06 0)
(0 -4.36033e-06 0)
(0 -2.01286e-05 0)
(0 -1.65995e-05 0)
(0 -1.11726e-05 0)
(0 -3.32767e-05 0)
(0 -7.23666e-06 0)
(0 6.72435e-07 0)
(0 7.69315e-07 0)
(0 -7.23401e-06 0)
(0 7.62464e-07 0)
(0 -5.46176e-06 0)
(0 -4.28804e-06 0)
(0 -3.69587e-06 0)
(0 3.9004e-07 0)
(0 7.82494e-07 0)
(0 -7.34865e-06 0)
(0 -1.52908e-05 0)
(0 7.24248e-07 0)
(0 6.21678e-06 0)
(0 -5.44532e-06 0)
(0 -3.99839e-06 0)
(0 7.6993e-07 0)
(0 7.49521e-07 0)
(0 6.5511e-07 0)
(0 4.43241e-07 0)
(0 6.44988e-07 0)
(0 -2.26663e-06 0)
(0 -3.38572e-06 0)
(0 7.59558e-07 0)
(0 9.48496e-06 0)
(0 6.90911e-07 0)
(0 -5.19425e-06 0)
(0 2.82245e-06 0)
(0 7.45949e-07 0)
(0 7.53441e-07 0)
(0 -8.30738e-07 0)
(0 7.69879e-07 0)
(0 -1.83455e-06 0)
(0 -3.88975e-06 0)
(0 6.62715e-07 0)
(0 4.90003e-07 0)
(0 7.54817e-07 0)
(0 7.45423e-07 0)
(0 3.63073e-06 0)
(0 -3.36478e-06 0)
(0 7.5654e-07 0)
(0 -4.86191e-06 0)
(0 -7.17252e-06 0)
(0 -4.98877e-06 0)
(0 -5.13039e-06 0)
(0 6.4637e-07 0)
(0 -2.31915e-07 0)
(0 -1.43442e-06 0)
(0 7.65013e-07 0)
(0 -2.38515e-06 0)
(0 -9.75049e-07 0)
(0 -7.37948e-06 0)
(0 6.64211e-06 0)
(0 -3.97061e-06 0)
(0 7.74031e-06 0)
(0 7.69306e-07 0)
(0 7.69025e-07 0)
(0 -3.0055e-07 0)
(0 -2.41833e-06 0)
(0 -1.5389e-05 0)
(0 -1.61284e-05 0)
(0 -2.47568e-06 0)
(0 -2.28195e-06 0)
(0 -1.23476e-06 0)
(0 7.5885e-07 0)
(0 7.48102e-07 0)
(0 -2.06483e-06 0)
(0 2.47637e-07 0)
(0 -2.26241e-07 0)
(0 -7.24365e-06 0)
(0 4.439e-07 0)
(0 -3.53256e-06 0)
(0 7.83212e-07 0)
(0 5.89572e-07 0)
(0 7.81212e-07 0)
(0 7.15407e-07 0)
(0 -2.56188e-05 0)
(0 -7.88353e-06 0)
(0 7.64704e-07 0)
(0 7.65122e-07 0)
(0 7.80699e-07 0)
(0 4.38159e-07 0)
(0 4.73174e-07 0)
(0 7.69207e-07 0)
(0 6.77785e-06 0)
(0 1.99817e-07 0)
(0 7.65952e-07 0)
(0 -1.85766e-06 0)
(0 6.79166e-06 0)
(0 -7.45439e-06 0)
(0 -2.82457e-06 0)
(0 7.703e-07 0)
(0 7.68562e-07 0)
(0 6.32525e-07 0)
(0 -6.47834e-06 0)
(0 -2.00798e-05 0)
(0 -3.21988e-07 0)
(0 7.69165e-07 0)
(0 -7.10348e-06 0)
(0 7.31369e-07 0)
(0 1.58975e-06 0)
(0 -3.21193e-06 0)
(0 4.98243e-07 0)
(0 6.72386e-06 0)
(0 1.21758e-06 0)
(0 -4.0383e-06 0)
(0 -1.35854e-06 0)
(0 6.81393e-06 0)
(0 -3.97792e-06 0)
(0 -1.2916e-05 0)
(0 5.32975e-07 0)
(0 -6.6352e-07 0)
(0 7.6747e-07 0)
(0 -1.59288e-05 0)
(0 5.04874e-07 0)
(0 -5.41369e-06 0)
(0 2.5743e-07 0)
(0 3.82245e-07 0)
(0 -1.54181e-07 0)
(0 1.24597e-06 0)
(0 -1.52888e-05 0)
(0 7.38822e-07 0)
(0 -4.45827e-07 0)
(0 -4.52174e-06 0)
(0 7.69283e-07 0)
(0 -2.01566e-06 0)
(0 -5.83828e-06 0)
(0 -5.12407e-06 0)
(0 3.60058e-07 0)
(0 7.70016e-07 0)
(0 3.06552e-07 0)
(0 -5.50944e-06 0)
(0 3.30451e-07 0)
(0 9.05213e-06 0)
(0 -2.09798e-06 0)
(0 -7.42481e-06 0)
(0 7.06416e-07 0)
(0 7.6811e-07 0)
(0 1.0531e-05 0)
(0 -2.28421e-05 0)
(0 6.91335e-07 0)
(0 -5.16382e-06 0)
(0 7.04984e-07 0)
(0 7.69292e-07 0)
(0 -3.6625e-06 0)
(0 -3.61525e-06 0)
(0 2.27649e-06 0)
(0 -7.83467e-06 0)
(0 3.9677e-06 0)
(0 7.69314e-07 0)
(0 7.5142e-07 0)
(0 4.69502e-07 0)
(0 -4.28637e-06 0)
(0 7.68595e-07 0)
(0 2.85937e-06 0)
(0 -4.91523e-06 0)
(0 7.39985e-07 0)
(0 -8.05009e-06 0)
(0 7.56479e-07 0)
(0 -1.15221e-05 0)
(0 -4.46411e-07 0)
(0 -2.11571e-06 0)
(0 -4.59382e-06 0)
(0 -1.98841e-06 0)
(0 8.58797e-06 0)
(0 7.68888e-07 0)
(0 -6.84621e-06 0)
(0 2.99144e-06 0)
(0 7.22829e-07 0)
(0 -2.7926e-06 0)
(0 7.38895e-06 0)
(0 -4.16275e-07 0)
(0 -5.54263e-07 0)
(0 6.37885e-06 0)
(0 7.38557e-07 0)
(0 6.75051e-06 0)
(0 -1.27131e-07 0)
(0 7.67418e-07 0)
(0 -4.1102e-06 0)
(0 -5.1641e-06 0)
(0 -1.95629e-07 0)
(0 -2.55578e-06 0)
(0 6.52935e-08 0)
(0 -1.43247e-06 0)
(0 -2.72582e-06 0)
(0 7.19944e-07 0)
(0 -3.60539e-06 0)
(0 -1.30019e-06 0)
(0 -3.01663e-06 0)
(0 -2.83955e-05 0)
(0 3.56042e-06 0)
(0 -8.54808e-06 0)
(0 -6.85564e-07 0)
(0 -6.27721e-06 0)
(0 -1.81988e-05 0)
(0 -4.18881e-06 0)
(0 -4.697e-06 0)
(0 7.78837e-07 0)
(0 2.07037e-07 0)
(0 -4.89433e-06 0)
(0 2.58096e-06 0)
(0 -3.75457e-06 0)
(0 5.33091e-07 0)
(0 5.09453e-06 0)
(0 7.69256e-07 0)
(0 -1.66839e-06 0)
(0 -4.60165e-06 0)
(0 2.08425e-06 0)
(0 7.56021e-07 0)
(0 7.65393e-07 0)
(0 6.33796e-06 0)
(0 -6.92549e-06 0)
(0 9.96025e-06 0)
(0 -1.26451e-06 0)
(0 8.99859e-06 0)
(0 -5.98208e-06 0)
(0 4.87477e-07 0)
(0 1.56955e-06 0)
(0 -3.05037e-05 0)
(0 2.64556e-06 0)
(0 4.35047e-07 0)
(0 8.53087e-06 0)
(0 -6.07378e-06 0)
(0 6.08934e-07 0)
(0 7.50506e-07 0)
(0 7.59304e-07 0)
(0 4.07771e-07 0)
(0 7.65009e-07 0)
(0 4.82902e-07 0)
(0 -2.03609e-06 0)
(0 -2.42031e-06 0)
(0 7.69311e-07 0)
(0 -6.02416e-06 0)
(0 -1.87791e-06 0)
(0 -1.69505e-06 0)
(0 -2.14065e-06 0)
(0 -8.78393e-07 0)
(0 -2.74739e-05 0)
(0 -7.01349e-07 0)
(0 -3.47106e-06 0)
(0 -4.01439e-06 0)
(0 5.14875e-07 0)
(0 7.54405e-07 0)
(0 1.13101e-07 0)
(0 8.12955e-06 0)
(0 6.93779e-07 0)
(0 -4.61408e-06 0)
(0 7.88575e-07 0)
(0 7.72301e-07 0)
(0 -3.92013e-06 0)
(0 9.77018e-06 0)
(0 3.76716e-06 0)
(0 -1.6195e-06 0)
(0 -3.41648e-06 0)
(0 9.76473e-06 0)
(0 -1.7562e-06 0)
(0 7.6211e-07 0)
(0 7.27629e-07 0)
(0 -8.88481e-06 0)
(0 -2.22338e-06 0)
(0 2.89953e-07 0)
(0 -2.44508e-07 0)
(0 7.19113e-06 0)
(0 -1.14125e-06 0)
(0 -5.28585e-07 0)
(0 7.13494e-07 0)
(0 -1.70358e-06 0)
(0 -4.39531e-06 0)
(0 -5.28505e-06 0)
(0 -2.61416e-06 0)
(0 9.49589e-06 0)
(0 2.23672e-07 0)
(0 -4.30301e-06 0)
(0 7.67136e-07 0)
(0 -5.96428e-07 0)
(0 4.54969e-08 0)
(0 -9.16992e-06 0)
(0 -1.43046e-06 0)
(0 7.64856e-07 0)
(0 4.77623e-07 0)
(0 7.06563e-07 0)
(0 3.30062e-07 0)
(0 7.69282e-07 0)
(0 1.00095e-05 0)
(0 -2.61053e-06 0)
(0 -6.32239e-06 0)
(0 4.44131e-08 0)
(0 2.55943e-06 0)
(0 -1.91539e-06 0)
(0 -3.25215e-07 0)
(0 -3.62982e-06 0)
(0 6.63362e-06 0)
(0 7.34724e-06 0)
(0 -1.78578e-05 0)
(0 1.23169e-06 0)
(0 -6.63375e-07 0)
(0 5.38982e-07 0)
(0 6.54552e-07 0)
(0 -3.93571e-06 0)
(0 7.69381e-07 0)
(0 -2.56497e-07 0)
(0 6.26869e-06 0)
(0 -8.59219e-06 0)
(0 4.19194e-06 0)
(0 -1.96305e-07 0)
(0 -4.47648e-06 0)
(0 -6.48736e-06 0)
(0 7.677e-07 0)
(0 7.69315e-07 0)
(0 7.66076e-07 0)
(0 -2.09751e-05 0)
(0 7.69325e-07 0)
(0 -6.43993e-06 0)
(0 7.83177e-07 0)
(0 7.67277e-07 0)
(0 -2.52904e-06 0)
(0 -2.92963e-06 0)
(0 -1.298e-07 0)
(0 -4.90441e-06 0)
(0 7.06984e-06 0)
(0 7.57888e-07 0)
(0 -2.73462e-05 0)
(0 3.55943e-06 0)
(0 4.91331e-07 0)
(0 7.1236e-07 0)
(0 3.5161e-06 0)
(0 -4.46976e-06 0)
(0 6.29471e-06 0)
(0 -6.32131e-06 0)
(0 -4.84924e-07 0)
(0 6.06982e-06 0)
(0 7.66633e-07 0)
(0 -4.66777e-06 0)
(0 7.44247e-06 0)
(0 6.9639e-07 0)
(0 3.52993e-07 0)
(0 -1.41242e-06 0)
(0 5.82552e-07 0)
(0 -1.4554e-07 0)
(0 -4.44072e-06 0)
(0 7.59344e-07 0)
(0 -6.43928e-06 0)
(0 -8.64317e-07 0)
(0 7.6649e-07 0)
(0 8.40333e-06 0)
(0 7.65576e-07 0)
(0 7.21781e-06 0)
(0 -7.73958e-07 0)
(0 7.23141e-07 0)
(0 7.44342e-07 0)
(0 -4.64436e-06 0)
(0 -3.36718e-06 0)
(0 1.57159e-06 0)
(0 -2.14602e-06 0)
(0 -2.72608e-06 0)
(0 -6.96538e-07 0)
(0 -7.19566e-06 0)
(0 7.90166e-07 0)
(0 2.35194e-06 0)
(0 -1.33024e-05 0)
(0 4.45503e-07 0)
(0 7.14337e-07 0)
(0 1.00735e-07 0)
(0 5.65381e-06 0)
(0 7.52842e-07 0)
(0 -3.94244e-07 0)
(0 -7.24616e-06 0)
(0 1.55822e-07 0)
(0 -4.38476e-06 0)
(0 -9.05259e-06 0)
(0 7.32991e-07 0)
(0 -3.42781e-06 0)
(0 -1.00972e-06 0)
(0 -4.91737e-06 0)
(0 7.64397e-07 0)
(0 -2.1573e-05 0)
(0 -9.9444e-07 0)
(0 7.6168e-07 0)
(0 -6.02824e-06 0)
(0 7.69152e-07 0)
(0 -8.1988e-06 0)
(0 -1.80095e-06 0)
(0 1.00087e-05 0)
(0 6.96712e-07 0)
(0 -1.82669e-05 0)
(0 -5.58713e-06 0)
(0 7.28785e-07 0)
(0 7.68969e-07 0)
(0 8.16147e-06 0)
(0 7.8636e-07 0)
(0 1.9155e-08 0)
(0 -2.49865e-05 0)
(0 -5.25946e-06 0)
(0 7.22927e-07 0)
(0 5.70611e-06 0)
(0 2.61577e-07 0)
(0 -5.33238e-07 0)
(0 5.90454e-06 0)
(0 6.92636e-07 0)
(0 7.72705e-07 0)
(0 2.60594e-07 0)
(0 -4.24326e-06 0)
(0 7.69223e-07 0)
(0 -7.73628e-07 0)
(0 7.54175e-07 0)
(0 5.10114e-07 0)
(0 -4.65712e-06 0)
(0 7.69249e-07 0)
(0 3.39413e-06 0)
(0 -1.33075e-07 0)
(0 -1.84862e-05 0)
(0 7.58029e-07 0)
(0 7.08417e-06 0)
(0 -2.65679e-05 0)
(0 3.47113e-07 0)
(0 2.10498e-06 0)
(0 1.90914e-07 0)
(0 8.62687e-06 0)
(0 -5.24233e-06 0)
(0 7.69334e-07 0)
(0 7.55759e-08 0)
(0 -1.30711e-06 0)
(0 -1.54588e-06 0)
(0 6.63913e-07 0)
(0 -3.57354e-06 0)
(0 -5.02788e-06 0)
(0 -1.21825e-06 0)
(0 -6.95077e-07 0)
(0 -9.77015e-06 0)
(0 -5.75473e-06 0)
(0 -2.25047e-06 0)
(0 9.81029e-06 0)
(0 -6.45821e-06 0)
(0 1.00563e-05 0)
(0 -2.42027e-07 0)
(0 -1.88275e-06 0)
(0 7.11324e-07 0)
(0 6.57037e-06 0)
(0 7.4534e-07 0)
(0 -4.31627e-06 0)
(0 -1.14535e-05 0)
(0 7.52365e-06 0)
(0 -1.70211e-07 0)
(0 -5.27826e-06 0)
(0 -4.66917e-06 0)
(0 7.69749e-07 0)
(0 7.67391e-07 0)
(0 -3.77528e-06 0)
(0 5.18521e-06 0)
(0 7.62726e-07 0)
(0 -1.80001e-06 0)
(0 7.64494e-07 0)
(0 2.22529e-07 0)
(0 6.24145e-07 0)
(0 7.68792e-07 0)
(0 7.88442e-07 0)
(0 7.31747e-07 0)
(0 -2.04721e-05 0)
(0 -2.43936e-05 0)
(0 8.65775e-06 0)
(0 5.59502e-07 0)
(0 -4.92634e-06 0)
(0 3.42878e-06 0)
(0 7.06905e-07 0)
(0 -2.5185e-06 0)
(0 3.17565e-06 0)
(0 8.54653e-08 0)
(0 7.6944e-07 0)
(0 6.61999e-07 0)
(0 8.12131e-06 0)
(0 7.69404e-07 0)
(0 7.53374e-07 0)
(0 -8.08046e-06 0)
(0 3.93171e-06 0)
(0 -4.16254e-06 0)
(0 7.11492e-07 0)
(0 -3.46086e-05 0)
(0 -4.03135e-06 0)
(0 1.00653e-06 0)
(0 6.58424e-06 0)
(0 -2.30373e-05 0)
(0 1.28174e-06 0)
(0 -1.58796e-06 0)
(0 -1.38744e-05 0)
(0 -1.85199e-05 0)
(0 -8.57448e-06 0)
(0 3.60403e-06 0)
(0 -1.65747e-07 0)
(0 -5.42547e-06 0)
(0 -8.63574e-06 0)
(0 -2.10233e-05 0)
(0 -5.84047e-06 0)
(0 1.96324e-07 0)
(0 3.34716e-07 0)
(0 3.32789e-07 0)
(0 -3.59071e-06 0)
(0 -5.40434e-06 0)
(0 3.44269e-06 0)
(0 5.7187e-06 0)
(0 7.84386e-07 0)
(0 -5.88055e-06 0)
(0 -7.20452e-07 0)
(0 5.55707e-07 0)
(0 7.68335e-07 0)
(0 7.74827e-06 0)
(0 1.13623e-06 0)
(0 7.6754e-07 0)
(0 6.60157e-06 0)
(0 5.29971e-07 0)
(0 -2.6815e-07 0)
(0 -6.69543e-06 0)
(0 7.66944e-07 0)
(0 7.48517e-07 0)
(0 -1.44267e-07 0)
(0 7.78876e-07 0)
(0 -3.74212e-06 0)
(0 -2.13118e-06 0)
(0 -2.82624e-05 0)
(0 7.71513e-07 0)
(0 6.31236e-06 0)
(0 7.65354e-07 0)
(0 -1.31939e-06 0)
(0 -7.48916e-07 0)
(0 6.23733e-07 0)
(0 7.66572e-07 0)
(0 7.27481e-07 0)
(0 7.20404e-07 0)
(0 1.11129e-06 0)
(0 7.2017e-07 0)
(0 8.59261e-06 0)
(0 7.57034e-07 0)
(0 -1.86513e-06 0)
(0 8.05446e-06 0)
(0 -2.96284e-05 0)
(0 -3.49333e-05 0)
(0 -8.62166e-07 0)
(0 4.76614e-07 0)
(0 7.62406e-07 0)
(0 -6.00838e-06 0)
(0 -3.71307e-06 0)
(0 3.17703e-06 0)
(0 -2.56807e-05 0)
(0 7.69292e-07 0)
(0 7.04742e-07 0)
(0 -3.09531e-07 0)
(0 1.15164e-05 0)
(0 7.78799e-07 0)
(0 -3.43027e-06 0)
(0 7.63717e-07 0)
(0 -3.42917e-05 0)
(0 -5.56618e-07 0)
(0 6.26121e-07 0)
(0 -5.79402e-06 0)
(0 -8.44333e-06 0)
(0 -2.06761e-06 0)
(0 -1.28796e-06 0)
(0 7.05651e-07 0)
(0 -3.58962e-06 0)
(0 6.53685e-07 0)
(0 -2.29053e-05 0)
(0 2.22733e-06 0)
(0 7.69327e-07 0)
(0 -1.02435e-06 0)
(0 -3.26863e-07 0)
(0 6.17399e-07 0)
(0 -8.3141e-06 0)
(0 7.69284e-07 0)
(0 7.69991e-07 0)
(0 5.21957e-07 0)
(0 7.50917e-07 0)
(0 -4.44251e-06 0)
(0 6.24296e-07 0)
(0 6.94949e-07 0)
(0 -1.7318e-06 0)
(0 1.26569e-05 0)
(0 7.51721e-07 0)
(0 -4.55749e-07 0)
(0 7.7613e-06 0)
(0 -3.83734e-06 0)
(0 7.78033e-07 0)
(0 -3.74813e-06 0)
(0 7.26116e-06 0)
(0 -8.45708e-07 0)
(0 1.46186e-06 0)
(0 7.69277e-07 0)
(0 -3.65039e-07 0)
(0 -2.45616e-05 0)
(0 1.82611e-06 0)
(0 1.97717e-06 0)
(0 6.1785e-07 0)
(0 -1.23889e-05 0)
(0 7.69273e-07 0)
(0 -2.33113e-06 0)
(0 7.86839e-07 0)
(0 1.8037e-07 0)
(0 2.65554e-06 0)
(0 -4.47205e-06 0)
(0 7.19163e-07 0)
(0 7.59719e-07 0)
(0 -6.48536e-06 0)
(0 -3.52272e-06 0)
(0 3.97637e-07 0)
(0 -2.1622e-05 0)
(0 2.29068e-07 0)
(0 6.18049e-07 0)
(0 7.92795e-07 0)
(0 -5.904e-06 0)
(0 -5.75725e-06 0)
(0 7.53485e-07 0)
(0 -9.26906e-07 0)
(0 7.5367e-07 0)
(0 7.26667e-07 0)
(0 -1.36861e-05 0)
(0 6.90175e-07 0)
(0 -8.75475e-07 0)
(0 6.54696e-07 0)
(0 -5.57405e-06 0)
(0 7.69736e-07 0)
(0 6.37387e-06 0)
(0 7.68855e-07 0)
(0 -7.80256e-06 0)
(0 -2.66392e-06 0)
(0 -1.99861e-05 0)
(0 -3.13078e-06 0)
(0 7.41567e-07 0)
(0 -1.66146e-05 0)
(0 -5.77763e-06 0)
(0 -5.05525e-06 0)
(0 7.68966e-07 0)
(0 6.28078e-06 0)
(0 -6.22589e-06 0)
(0 7.7157e-07 0)
(0 -4.45839e-06 0)
(0 -2.69635e-05 0)
(0 1.06305e-05 0)
(0 -1.96676e-05 0)
(0 -1.11446e-06 0)
(0 2.80472e-06 0)
(0 -1.04341e-06 0)
(0 2.70608e-06 0)
(0 -7.57286e-07 0)
(0 -3.10801e-05 0)
(0 7.16474e-07 0)
(0 7.73014e-07 0)
(0 6.98195e-07 0)
(0 7.70998e-07 0)
(0 -1.16898e-05 0)
(0 -8.94143e-07 0)
(0 -1.45608e-06 0)
(0 9.99131e-06 0)
(0 -1.06636e-05 0)
(0 7.92623e-07 0)
(0 7.83948e-07 0)
(0 -7.00517e-06 0)
(0 1.13454e-06 0)
(0 -2.47199e-06 0)
(0 7.66481e-07 0)
(0 -6.25592e-06 0)
(0 4.04981e-07 0)
(0 4.2018e-07 0)
(0 7.22989e-07 0)
(0 7.65736e-07 0)
(0 7.69377e-07 0)
(0 7.69058e-07 0)
(0 -3.5243e-05 0)
(0 4.33843e-07 0)
(0 7.69042e-07 0)
(0 7.67085e-07 0)
(0 -1.4588e-06 0)
(0 -4.20541e-06 0)
(0 -6.86495e-06 0)
(0 3.3236e-06 0)
(0 2.04281e-07 0)
(0 -8.0109e-07 0)
(0 -1.16875e-06 0)
(0 -3.19359e-06 0)
(0 7.6929e-07 0)
(0 -5.93349e-06 0)
(0 -3.21541e-06 0)
(0 6.39089e-07 0)
(0 -4.9035e-07 0)
(0 -4.35883e-06 0)
(0 -4.97173e-06 0)
(0 -6.56778e-06 0)
(0 6.70627e-06 0)
(0 7.65478e-07 0)
(0 7.48966e-07 0)
(0 7.69167e-07 0)
(0 7.42173e-07 0)
(0 -2.03205e-06 0)
(0 6.79118e-07 0)
(0 -2.10554e-05 0)
(0 3.52535e-07 0)
(0 4.02451e-06 0)
(0 -6.0981e-06 0)
(0 -2.64855e-05 0)
(0 7.88595e-07 0)
(0 -5.7264e-06 0)
(0 -4.67452e-06 0)
(0 7.4848e-07 0)
(0 7.82822e-07 0)
(0 5.33706e-07 0)
(0 -3.15524e-07 0)
(0 -4.29591e-06 0)
(0 -1.11264e-06 0)
(0 7.69313e-07 0)
(0 7.69324e-07 0)
(0 6.37517e-07 0)
(0 7.81382e-07 0)
(0 6.87313e-07 0)
(0 7.65613e-07 0)
(0 7.21145e-07 0)
(0 5.68078e-07 0)
(0 -1.49801e-06 0)
(0 -8.97395e-06 0)
(0 -1.77837e-06 0)
(0 -1.33369e-07 0)
(0 -1.27884e-05 0)
(0 -1.27915e-06 0)
(0 6.29116e-07 0)
(0 5.74806e-06 0)
(0 -4.30621e-06 0)
(0 -3.72925e-06 0)
(0 7.5504e-07 0)
(0 -1.21405e-06 0)
(0 9.12835e-06 0)
(0 -1.2749e-06 0)
(0 -6.40724e-06 0)
(0 6.30927e-07 0)
(0 6.17245e-07 0)
(0 6.55521e-07 0)
(0 -1.72222e-05 0)
(0 7.69179e-07 0)
(0 -1.1842e-05 0)
(0 -4.60667e-06 0)
(0 -7.75181e-07 0)
(0 5.73895e-07 0)
(0 -7.17833e-06 0)
(0 7.43412e-07 0)
(0 -5.54851e-06 0)
(0 7.65246e-07 0)
(0 7.45138e-06 0)
(0 7.72398e-07 0)
(0 4.90067e-07 0)
(0 -4.34136e-06 0)
(0 -1.37447e-06 0)
(0 -5.9307e-06 0)
(0 7.691e-07 0)
(0 7.63211e-07 0)
(0 7.69729e-07 0)
(0 3.65938e-06 0)
(0 -4.51784e-06 0)
(0 -7.96256e-06 0)
(0 7.64633e-07 0)
(0 -9.26496e-07 0)
(0 4.48082e-06 0)
(0 6.09762e-07 0)
(0 -5.63623e-06 0)
(0 -5.35458e-06 0)
(0 7.80656e-07 0)
(0 -3.11563e-05 0)
(0 -5.30657e-06 0)
(0 4.82447e-06 0)
(0 2.16817e-06 0)
(0 -2.7125e-05 0)
(0 -2.66097e-05 0)
(0 -2.75805e-06 0)
(0 -3.83588e-06 0)
(0 -2.02294e-06 0)
(0 -1.40204e-06 0)
(0 1.02055e-05 0)
(0 7.69309e-07 0)
(0 -6.72394e-06 0)
(0 7.58598e-07 0)
(0 7.6933e-07 0)
(0 2.68359e-07 0)
(0 7.66577e-07 0)
(0 7.64857e-07 0)
(0 -5.25095e-06 0)
(0 -5.66985e-06 0)
(0 6.46304e-06 0)
(0 -1.02827e-06 0)
(0 6.96593e-07 0)
(0 -1.41662e-06 0)
(0 7.08694e-07 0)
(0 -7.03097e-07 0)
(0 -2.24485e-06 0)
(0 -5.37156e-06 0)