/*--------------------------------*- C++ -*----------------------------------*\
| =========                 |                                                 |
| \\      /  F ield         | OpenFOAM: The Open Source CFD Toolbox           |
|  \\    /   O peration     | Version:  v2012                                 |
|   \\  /    A nd           | Website:  www.openfoam.com                      |
|    \\/     M anipulation  |                                                 |
\*---------------------------------------------------------------------------*/
FoamFile
{
    version     2.0;
    format      ascii;
    class       volVectorField;
    location    "150";
    object      ddtCorrDdt0(U);
}
// * * * * * * * * * * * * * * * * * * * * * * * * * * * * * * * * * * * * * //

dimensions      [0 1 -2 0 0 0 0];


internalField   nonuniform List<vector> 
18758
(
(0.00497657 -0.00300371 -2.49457e-17)
(0.0182537 0.0277371 -5.50369e-17)
(-5.01156e-05 1.54099e-05 -1.65874e-18)
(-0.0827303 -0.112413 -2.40117e-17)
(0.0395887 -0.00720965 -5.02909e-18)
(0.0178224 0.0249179 5.66174e-17)
(-0.00784604 -0.000932387 -2.37895e-16)
(0.000178446 2.44023e-05 -6.1529e-19)
(-0.024048 -0.00488978 7.73865e-18)
(0.00176031 -0.000428087 -1.17037e-18)
(0.00116077 0.000706193 1.2318e-18)
(-0.010106 -0.00639257 -2.09334e-17)
(0.000101888 -1.68887e-05 5.36168e-19)
(0.0428952 -0.0082302 1.19028e-17)
(-7.70013e-05 0.00166995 2.77844e-18)
(0.00018501 -0.00385417 8.47546e-17)
(0.00360732 -0.00181649 1.50367e-17)
(0.000178444 6.48392e-05 -4.92652e-19)
(0.00022916 0.000646488 -1.61324e-18)
(0.00211376 -0.000399804 -4.86506e-18)
(0.0254747 -0.00645107 -5.66136e-18)
(-5.43867e-06 6.21468e-05 2.14432e-18)
(-0.0118071 -0.00640841 -4.5075e-17)
(-0.00975454 -0.0292524 -4.93128e-17)
(0.0151284 0.0124006 -5.77633e-18)
(0.000174234 1.07644e-05 9.45051e-19)
(-8.05937e-05 -0.00524469 4.52687e-18)
(0.0414312 0.00327806 -3.24751e-18)
(0.0679711 0.02109 -1.8465e-17)
(0.00127642 -0.00789232 -4.03452e-17)
(0.0137108 -0.00535674 2.03695e-17)
(-0.030124 -0.0119912 -2.41151e-18)
(-3.57076e-06 -3.93384e-06 3.0483e-19)
(0.000799343 0.000885463 3.53887e-19)
(0.0122282 -0.0227853 -2.56038e-17)
(7.09159e-06 -0.00036559 3.96019e-18)
(-7.04686e-06 2.63577e-06 -1.18332e-18)
(0.000662272 0.000642793 2.04802e-18)
(0.000798448 0.00071565 -2.2687e-18)
(0.00279849 -0.00243724 2.84598e-18)
(0.000635092 0.000672025 -2.21228e-19)
(0.000941302 -0.0015325 -7.55613e-20)
(0.000150921 0.000402722 -2.47462e-18)
(0.0012973 -0.00105251 9.20517e-18)
(0.00704791 -0.00541838 4.16516e-17)
(6.63574e-05 7.55043e-05 1.02525e-18)
(-0.0126411 -0.0062333 1.26961e-17)
(0.00128196 0.000555328 -1.33691e-18)
(0.00171217 -0.000447148 1.48274e-18)
(8.27177e-05 0.000332146 5.9971e-19)
(0.00673925 0.00537785 2.94773e-17)
(-0.0118894 -0.0379441 -7.14665e-17)
(-1.00088e-05 0.000105568 -1.33269e-18)
(0.0011362 0.000710588 2.18056e-19)
(0.0445483 0.00408636 1.35318e-18)
(0.00603988 -0.00183689 1.47013e-17)
(-6.89449e-06 -3.3707e-07 2.68926e-18)
(0.000234149 -0.00333978 4.50028e-17)
(0.000396286 -0.000552415 -2.41282e-18)
(0.0443638 -0.0119863 -1.04583e-17)
(0.00532618 -0.00187599 2.47406e-17)
(-0.00764558 -0.00116485 1.91078e-16)
(-0.0097151 -0.00327611 1.12361e-18)
(0.000677902 -0.00129038 -3.699e-18)
(-3.33963e-06 0.000110717 1.15732e-18)
(0.0001093 -0.000345533 3.72162e-18)
(0.00360117 -0.00265137 -1.69469e-17)
(-1.24485e-07 -7.79535e-06 -1.92145e-19)
(0.000602463 0.000624625 -1.5802e-18)
(-0.0113199 -0.0366334 7.00264e-17)
(0.0113607 -0.0285941 -2.61213e-17)
(0.000410733 -0.00122312 -1.06095e-18)
(9.50595e-05 0.00035094 -6.22723e-19)
(-0.00617005 -0.0116636 -1.30627e-16)
(0.000232516 0.000255005 1.78623e-18)
(0.000412218 -0.000562474 -9.2717e-18)
(-0.0154764 -0.0298141 -4.64046e-17)
(0.0373714 -0.0112008 5.36261e-17)
(0.00204754 -0.00339363 1.58982e-17)
(-0.00826598 -0.00427396 4.85209e-18)
(-0.0104747 -0.00330564 -7.01072e-17)
(0.00689157 -0.00797518 1.61681e-18)
(0.0434092 -0.0139242 -1.18271e-17)
(0.0202622 0.0230525 9.24175e-18)
(-0.0139176 -0.0320207 -2.34451e-17)
(0.00133188 0.000417992 -9.73766e-19)
(-0.0222718 0.00346247 4.18193e-17)
(-0.00920614 -0.00264965 -1.09966e-17)
(-0.00198933 -0.00117384 -3.98929e-17)
(0.0004189 -0.000584097 8.43871e-18)
(0.0205644 0.0219711 2.94795e-17)
(0.000403408 -0.000526754 -3.35035e-19)
(-0.0118671 -0.00136724 3.58708e-17)
(0.000971858 -0.00155127 -2.55966e-18)
(-0.0099754 -0.00149849 5.89357e-17)
(-0.00998719 -0.00132629 -9.96693e-18)
(-0.0117663 -0.0322036 -8.91259e-18)
(0.000237429 0.000269412 -1.92854e-18)
(0.000326646 -0.000184172 -4.60529e-19)
(0.0236393 -0.00785182 -6.12805e-19)
(0.00226971 -0.000268804 -3.91154e-18)
(0.0233513 0.0191668 -6.69676e-17)
(0.00107911 -0.0112343 1.04052e-17)
(0.00309547 0.00156571 -1.5105e-17)
(-0.0318906 -0.0081826 -4.76455e-18)
(0.00233832 -0.0105605 3.56461e-17)
(-0.0313698 -0.0543207 1.69209e-18)
(0.0337255 -0.0132582 -4.29525e-17)
(0.000980334 0.000636411 -9.37985e-18)
(0.000223948 -0.00123055 -1.13019e-18)
(-0.0128241 -0.000445777 4.32772e-17)
(-0.00759006 0.00124415 1.3446e-16)
(0.000172138 -6.55442e-05 1.03921e-18)
(0.000728138 -0.000535348 7.30962e-19)
(0.0505348 0.0154533 -2.05308e-17)
(-0.00221377 0.00284078 -2.4603e-17)
(0.0380469 0.00565625 2.09483e-18)
(-0.000163677 0.00173006 5.70044e-18)
(-0.00869706 -0.00605985 -1.13594e-17)
(-0.0128257 -0.000799644 -2.00368e-17)
(0.00108476 0.00110329 9.6671e-18)
(0.00018879 -0.000252021 6.73728e-18)
(0.0155407 -0.000179603 -1.66144e-16)
(-0.000397018 -0.00416036 8.57058e-18)
(0.00662175 -0.00587129 -1.2504e-18)
(0.00824025 -0.00648557 -4.7752e-17)
(0.00348659 0.0283234 6.26087e-17)
(-0.03845 -0.0024256 1.318e-18)
(-0.0096728 -0.00181249 -3.88513e-17)
(0.000109981 7.67288e-07 -2.68888e-19)
(0.00370199 -0.00206241 -1.81175e-17)
(0.000104643 -0.00519694 1.47575e-18)
(0.0241505 -0.00341841 -2.44901e-18)
(0.00201932 -0.00229682 -3.97679e-18)
(-0.000295383 -0.00316083 -1.83807e-17)
(0.000937245 -0.00120467 -9.62605e-19)
(-0.0152197 -0.0282759 4.15479e-17)
(0.00273321 -0.00271901 6.18167e-18)
(0.000324593 -0.000197094 1.15637e-19)
(0.00109439 -0.00308046 1.3546e-18)
(0.00190299 -0.00337769 -1.74275e-17)
(0.00224773 -0.00485175 7.84946e-18)
(0.00060932 -0.000666004 -4.39771e-19)
(-0.00178153 -0.00173235 -1.11716e-19)
(0.000628808 0.000691345 7.20657e-19)
(0.000186826 0.000703558 1.84753e-18)
(0.0649581 -0.00179396 1.00026e-16)
(-0.1164 -0.0198423 1.02758e-17)
(0.0139655 -0.00448157 -1.23553e-17)
(0.021382 -0.000877116 -7.45394e-17)
(0.00824363 -0.00842724 -5.79011e-17)
(-0.0325259 -0.0636877 5.97588e-17)
(0.00127788 0.000518235 -4.51757e-19)
(1.88671e-07 5.35657e-05 9.45287e-19)
(-0.0189419 -0.00360248 3.20434e-17)
(0.00142036 0.000538822 4.15043e-18)
(-0.0103981 -0.00518911 6.71529e-17)
(0.00129882 0.000530026 -2.4227e-18)
(0.000654856 -0.000946238 -3.06075e-18)
(-1.06375e-06 3.62827e-05 5.74222e-19)
(0.000298862 -0.000226591 -5.81851e-19)
(0.0411903 -0.0163656 1.53716e-17)
(-0.0137561 0.00128112 4.28367e-18)
(0.000656125 -0.000927267 3.237e-19)
(0.0053749 -0.00172456 -3.56778e-17)
(0.0644789 0.0209061 4.3209e-17)
(0.000318395 0.00068951 -9.08353e-18)
(0.00367225 -0.0030193 -6.98645e-17)
(0.00913243 -0.00101049 1.26872e-17)
(0.021517 0.0246737 -9.87348e-17)
(-0.0193087 0.00678103 -1.84298e-18)
(0.000182808 6.43062e-05 -1.3426e-20)
(-0.0144049 0.000899951 3.03145e-19)
(0.0414786 0.000767114 5.26177e-17)
(0.0399447 -0.0173907 4.8197e-17)
(-0.0172592 -0.031296 4.5559e-17)
(0.0632801 0.022712 -3.33922e-17)
(0.000697729 -0.00130648 -4.56424e-19)
(0.00116723 -0.00304814 6.30896e-19)
(0.00080578 0.000420308 -9.76508e-19)
(0.000145233 -7.86127e-05 -1.8099e-20)
(0.00220006 0.000716017 2.04684e-17)
(-0.0275333 -0.0630902 -5.2727e-17)
(7.752e-05 0.000375062 -1.24835e-18)
(0.0016073 0.00122671 3.48574e-19)
(-0.0149802 -0.060661 -2.7426e-18)
(0.000316458 -0.000257702 -1.0226e-18)
(-0.00299044 0.00407422 -3.06771e-18)
(0.000124474 0.000362592 1.80614e-19)
(0.000284794 -0.000187571 -2.26347e-18)
(0.00208506 -0.00231821 -1.20529e-17)
(-0.0391609 -0.00154377 -8.17298e-18)
(0.000939987 -0.000424456 -2.79137e-19)
(0.0131883 -0.00391799 1.1133e-18)
(0.00195001 -0.00133444 1.9166e-18)
(-0.00978498 -0.00154521 2.35251e-17)
(0.00217364 -0.000375784 5.22893e-18)
(0.00961647 -0.00104045 -2.43111e-17)
(1.85533e-05 -0.000162099 -2.52632e-19)
(0.000138288 0.000387237 2.17931e-18)
(0.000831585 -0.00290189 -6.27518e-18)
(0.00127805 0.000495518 4.26016e-18)
(0.00263804 0.000347486 3.07583e-18)
(-0.00491304 -0.000605789 -1.32637e-17)
(0.000103454 -2.1976e-05 1.66007e-19)
(0.00190271 -0.00127172 -9.48322e-19)
(-0.00117309 -0.0109684 2.27125e-17)
(-1.71509e-06 4.40857e-05 -8.4865e-19)
(0.0149617 -0.00620659 -2.58569e-17)
(0.00169336 -0.000528629 -1.24272e-19)
(0.000173133 7.43264e-05 5.14837e-19)
(0.00319433 0.00144502 2.87232e-17)
(0.000690728 -0.000921297 -2.99078e-18)
(0.00252138 0.000582856 -1.92105e-18)
(0.00165998 -0.00312803 1.3964e-17)
(-0.0103427 -0.00597309 1.6557e-17)
(0.00165169 -0.00324077 -2.95889e-19)
(0.000104814 -0.00361342 -4.55759e-17)
(0.000120391 0.000220965 2.45508e-19)
(0.0191463 0.0251685 -7.7889e-17)
(0.000178577 7.28096e-05 -1.70791e-18)
(0.000988582 0.000622858 1.04573e-17)
(-0.00158801 -0.0339888 2.22254e-17)
(0.0638097 -0.00194694 -6.39354e-17)
(0.0109763 0.00548884 -4.29748e-18)
(-0.000311408 -0.0107721 -5.64631e-18)
(2.05395e-05 0.00265712 -7.03098e-18)
(0.00257918 -0.00183535 -6.12908e-19)
(-1.95365e-05 0.000261278 -1.87355e-18)
(-0.00505054 0.000376343 1.99212e-17)
(0.000108689 -0.000306544 3.16374e-18)
(-0.00932996 -0.00102912 -3.16003e-17)
(-0.0136651 -0.00651471 5.48882e-17)
(-0.0114393 -0.0352316 -3.26082e-17)
(8.94247e-05 -1.47027e-05 -3.29587e-19)
(0.00031133 -0.000219407 2.74941e-18)
(-7.03294e-06 0.000264125 -4.48162e-19)
(9.38236e-05 7.17975e-05 7.76393e-19)
(0.0159304 0.000744206 1.5421e-16)
(0.00215381 0.00109731 -1.9758e-17)
(0.000266862 -0.000194684 2.78031e-19)
(0.012692 -0.00399804 7.2644e-17)
(-0.0330874 -0.054859 -6.94571e-18)
(0.000978824 0.000815619 4.0705e-18)
(0.0202813 -0.00323051 7.99656e-17)
(-0.0313105 0.00700064 8.11133e-17)
(-0.00944212 -0.0353021 2.02332e-17)
(5.73368e-06 -0.000298851 2.67317e-18)
(-0.0105022 -0.00230796 -6.4532e-17)
(0.000774365 -0.00185212 2.47416e-17)
(1.724e-05 -0.000505603 3.92661e-18)
(0.0041665 -0.00350481 2.58544e-17)
(0.00131077 0.000371754 1.66412e-17)
(0.000817953 -0.00185054 -1.38022e-17)
(2.44661e-05 0.00116175 3.63317e-18)
(0.00102188 0.00138977 -2.08527e-18)
(-0.0279425 -0.0415565 -3.91074e-18)
(0.000101458 -0.00352515 9.99057e-18)
(0.00249447 0.000540989 -6.64822e-18)
(0.00235846 -0.00331507 1.4959e-18)
(-0.000225397 0.000349845 1.35856e-18)
(0.000433726 -0.00769038 5.43477e-17)
(0.000173803 -0.000373111 -3.06005e-19)
(-0.00475748 -0.000951554 1.31449e-17)
(0.00164146 -0.00054339 -4.33502e-20)
(-8.19366e-05 -0.0343858 -4.56212e-17)
(-0.0288271 -0.000536688 -2.22628e-17)
(0.000121745 0.000212806 -8.7879e-19)
(0.000933198 0.000651553 -1.58245e-17)
(0.00299163 -0.00570724 3.45328e-18)
(0.00091035 0.000645159 2.44509e-18)
(0.00153282 0.00121817 2.71482e-18)
(-0.00465578 1.26225e-06 5.31024e-18)
(0.0502538 0.0153036 -2.95554e-17)
(0.0400212 0.00453037 -2.03441e-17)
(0.000579547 -0.000680085 1.74519e-18)
(0.00555952 0.00556035 -4.28423e-17)
(-0.115416 -0.0240055 -3.13205e-17)
(0.00803843 -0.0107411 -1.40721e-17)
(0.000990394 -0.000479549 3.92391e-19)
(0.000227259 0.000546345 2.10131e-18)
(0.00165404 0.000815455 1.95945e-17)
(0.00207766 0.00115256 3.45794e-17)
(0.000594376 -0.000649243 -4.03174e-19)
(-0.137957 -0.0409489 2.91411e-18)
(0.0126217 -0.00243699 -1.483e-16)
(-0.043284 -0.0478272 -3.9875e-17)
(0.0183614 -0.00260555 2.99729e-17)
(-0.012397 -0.00646361 -4.98946e-17)
(6.50247e-05 0.000342241 -1.27023e-18)
(-5.35056e-05 1.74046e-05 7.94953e-19)
(0.00276079 -0.00200013 3.21233e-19)
(-0.00514645 -0.00597166 8.38583e-17)
(0.000526333 -0.00173237 8.14208e-18)
(0.0021811 -0.00327258 1.04324e-19)
(-0.00606967 0.00444294 6.01879e-17)
(0.00174417 0.000722259 5.41243e-18)
(-0.0134715 -0.00270244 3.29316e-17)
(0.00022206 0.000626324 -5.21363e-19)
(0.0699712 -0.020902 1.27692e-17)
(0.0195293 0.0239015 -1.46213e-17)
(7.74789e-05 7.23203e-05 6.07954e-19)
(-0.0583394 -0.0448995 -9.09782e-18)
(0.00200045 -0.00159992 5.42684e-18)
(0.000614503 0.000641124 3.38524e-18)
(0.00223347 0.00046051 -4.37209e-19)
(-0.000699404 0.00509708 -5.12039e-18)
(0.000455495 0.0012247 3.50357e-18)
(2.22682e-05 -0.000462676 -1.8419e-18)
(-0.0153736 -0.00198915 1.1936e-17)
(-0.0157665 -0.0380308 3.01641e-17)
(0.000251026 3.04245e-05 -1.72602e-18)
(-0.0131901 -0.00104492 9.45139e-17)
(-0.0134147 -0.00180651 2.6883e-17)
(0.0103167 0.00556815 -1.17302e-17)
(0.000187767 -0.000335014 3.81038e-18)
(6.70359e-05 2.17069e-06 4.11706e-19)
(-0.0191454 -0.0638318 -7.41184e-18)
(0.000974092 0.000809519 1.22623e-17)
(7.89277e-05 0.000368245 -2.93218e-18)
(0.000295276 0.00058975 -5.21497e-18)
(0.000222894 -0.00158317 -6.51382e-18)
(0.00902087 -0.00139848 4.03554e-17)
(-0.000449551 0.00541246 -1.4963e-17)
(0.00168501 0.000786098 1.73133e-17)
(0.00213293 0.00100636 1.64156e-17)
(0.00208846 -0.000464932 4.58066e-18)
(0.00225474 -0.00223111 1.56551e-17)
(-0.000203252 0.000329693 -1.08481e-19)
(-1.13813e-06 5.78468e-05 4.76991e-18)
(-0.0394972 -0.0052119 6.51289e-17)
(0.00390461 -0.000880938 1.62297e-17)
(0.00591031 0.00580905 5.62229e-17)
(-0.075043 -0.118704 2.20048e-17)
(0.000532193 -0.00175828 -9.89886e-18)
(0.000926652 -0.000405515 -1.51818e-19)
(0.000100005 -2.81056e-06 -6.88775e-20)
(0.0734618 -0.0189797 -1.63649e-18)
(-0.0636808 -0.0486185 2.92186e-18)
(5.03999e-06 0.000293597 -3.95686e-19)
(0.000168661 7.28583e-05 -3.61374e-19)
(1.81712e-05 0.00029923 4.24631e-19)
(0.000906093 -0.0012135 3.39942e-18)
(0.00248901 -0.00175196 -2.55259e-19)
(0.0146021 0.0121505 1.89214e-17)
(0.000187783 -0.000213993 -2.13943e-19)
(0.0001471 -0.00108974 -8.336e-19)
(5.50993e-05 0.000305929 -1.95308e-19)
(1.68107e-05 -0.00404022 -2.85531e-17)
(0.00232143 -0.00475105 -3.26936e-18)
(-0.00809889 0.00941824 -5.76321e-17)
(0.00611351 -0.00306481 -2.2813e-19)
(0.000773414 0.000995889 8.94731e-18)
(-0.0371768 0.00210284 -7.66545e-18)
(0.00472549 -0.00296381 -6.85606e-18)
(0.00172046 0.00132162 -2.73842e-18)
(0.000868232 -0.00190041 -2.02821e-18)
(-0.0101115 -0.00657044 -3.90851e-17)
(0.0538226 -0.00405665 -1.16812e-17)
(-0.0227385 -0.0612275 -1.95114e-17)
(0.000105859 -0.000107117 6.25304e-19)
(0.00231252 -0.000397923 7.35115e-19)
(0.0288013 0.0230127 1.80304e-17)
(0.0495267 0.0149902 1.61419e-17)
(0.00148755 -0.000218654 -2.29646e-18)
(7.96232e-05 0.000360311 -9.85801e-19)
(-0.00120776 0.00111746 -2.33079e-17)
(0.000410765 0.00070228 -1.73254e-18)
(0.00157492 0.000193657 1.20601e-17)
(0.0597561 0.0243785 7.21454e-17)
(-0.0783342 -0.186685 3.8769e-17)
(0.0242404 -0.0140915 -1.25403e-17)
(0.00201468 -0.000508995 1.68172e-18)
(-0.0283369 -0.000684912 6.72926e-18)
(0.000394568 -0.000731259 -2.95383e-18)
(0.00128549 0.000468079 -3.92009e-18)
(0.000441604 -0.000506639 -5.24207e-19)
(0.000811163 0.000703373 4.17e-18)
(0.012108 -0.0179518 2.3327e-17)
(0.00120876 0.000740272 -9.37724e-18)
(-0.0126171 -0.00144362 -6.73159e-17)
(0.00176913 -0.00471648 2.96092e-18)
(1.85027e-05 0.00111008 3.90415e-18)
(0.000248992 3.85322e-05 4.35674e-18)
(0.0198949 0.00615218 2.49216e-17)
(0.0228676 -0.0139192 9.761e-18)
(-0.0237468 -0.00636134 2.11043e-17)
(0.000392377 -0.000708483 2.80948e-18)
(0.00989045 -0.00247253 -1.01664e-17)
(0.000226442 0.000538696 2.03163e-19)
(0.000866248 -0.00153912 3.71216e-18)
(0.000191471 -0.000269648 -5.07892e-18)
(0.000131366 0.000200442 1.24545e-18)
(0.0551912 0.00319206 -6.13383e-17)
(0.0125818 -0.00750978 8.22e-18)
(0.00152043 -0.0095704 -3.80106e-17)
(-0.0201743 0.00204313 -5.11013e-17)
(0.000109659 2.78831e-07 -3.00947e-21)
(-0.0183136 -0.021507 -3.64702e-17)
(0.0113774 -0.01692 4.28646e-17)
(0.00107267 0.00138598 -1.63615e-17)
(0.000178826 -6.60312e-05 4.54984e-19)
(-0.0645649 -0.120505 1.43875e-17)
(0.000360611 0.000596696 3.60882e-19)
(0.000132526 0.000759362 1.95231e-19)
(0.000152366 -8.36795e-05 -1.62363e-19)
(0.0123934 -0.0190127 -1.04443e-17)
(0.000213604 -0.000172029 -1.05469e-18)
(0.00126315 -0.00110368 -6.6538e-18)
(0.0060195 -0.00279823 2.89914e-18)
(0.0229974 0.00260234 -5.14938e-18)
(0.000275878 0.000575143 1.78441e-18)
(0.0416143 -0.00806533 2.09119e-18)
(0.000430646 -0.00157317 4.57727e-17)
(0.000184565 -0.000359448 -3.9537e-18)
(0.00161131 0.000798108 -7.84079e-18)
(0.000400635 -0.000647561 1.43525e-18)
(0.000172662 7.37762e-05 2.80903e-19)
(0.00172473 0.000718116 8.86921e-19)
(4.57415e-05 -0.00603661 -6.65715e-18)
(0.00225955 -0.00215482 -2.03928e-18)
(-0.00805834 0.00153327 -1.71749e-16)
(0.00102438 0.00113192 -1.55573e-17)
(0.000104974 -0.000588705 -4.37673e-18)
(0.0027694 -0.00547218 1.05153e-17)
(-0.0434529 -0.0535704 1.10913e-18)
(-0.0983537 -0.0710746 2.0596e-17)
(-0.0181256 0.00661454 -3.16694e-17)
(0.0157911 -0.0162761 9.60778e-18)
(0.000952447 -0.000561143 -7.58541e-19)
(0.000131006 0.000189548 -1.26491e-18)
(0.00025361 -0.000177391 -1.85645e-19)
(0.00070188 -0.000930636 1.52508e-19)
(0.0253199 -0.0125805 -5.25003e-18)
(0.0020699 -0.0018506 -2.32981e-18)
(0.00372392 0.000635336 8.03436e-18)
(0.00194318 -0.00153439 -1.13875e-17)
(0.00127235 0.000470421 -1.48577e-17)
(-0.0164857 -0.0678654 5.6778e-17)
(0.000320873 -0.0115207 -2.16365e-17)
(0.000388494 -0.000615014 4.22559e-18)
(0.00206948 0.000993754 -2.04574e-17)
(-0.00185906 -0.00117346 -5.42324e-17)
(0.000913527 -0.000969175 4.90497e-18)
(-0.0465068 -0.174323 -7.82273e-18)
(6.40892e-05 6.54949e-07 6.69746e-20)
(1.48524e-05 -0.000807615 5.95072e-18)
(-0.129982 -0.0424594 -1.39455e-17)
(0.00122186 -0.00142201 -3.98068e-18)
(0.000884607 0.000705629 8.7718e-18)
(-0.0262747 -0.0430418 2.00641e-18)
(0.0107482 -0.0234551 1.37352e-17)
(0.00277229 -0.00188926 -2.64278e-19)
(-0.00891963 -0.00186739 3.29557e-17)
(0.000418007 -0.000578523 -2.52553e-18)
(0.00083034 -0.0010054 3.82688e-18)
(8.2296e-05 -0.00368645 3.57913e-17)
(-0.00979112 -0.00607396 -1.98297e-17)
(0.0009949 -0.00209947 -1.24034e-17)
(0.00484884 0.0018207 2.16662e-17)
(0.0444529 -0.00732819 6.16564e-18)
(0.00386852 -0.0638207 -4.09056e-17)
(0.0302422 0.00143224 -1.564e-17)
(0.0426758 -0.0103247 1.47907e-17)
(0.0003894 -0.00122374 -1.02676e-18)
(0.00014616 0.00907877 2.20137e-17)
(0.000722544 -0.000549684 -4.07393e-19)
(0.0265537 -0.0126711 3.56419e-18)
(0.00116017 0.000406762 9.54794e-19)
(-0.0113549 -0.00179019 -3.37975e-17)
(0.00995527 -0.00190655 1.86973e-19)
(0.0156692 0.0235156 4.59797e-17)
(0.00358994 0.000574708 -1.71458e-18)
(0.0159976 -0.00648135 5.09756e-18)
(8.41701e-05 7.84826e-05 -1.68541e-19)
(-0.0124417 -0.0273267 1.12327e-17)
(0.000109843 0.000363081 -9.75868e-19)
(0.053457 -0.00265101 5.2535e-18)
(0.000452422 -0.000531165 7.71925e-19)
(0.00581604 -0.00545328 -4.96262e-17)
(0.000140555 -0.000534232 -1.33612e-18)
(-0.0150479 -0.0539048 -4.48829e-17)
(0.00155639 0.00012008 -3.40583e-17)
(0.000105441 -0.000543181 2.87351e-18)
(0.000310514 -0.000150675 -3.5794e-19)
(0.000156875 -8.41926e-05 4.06045e-20)
(-0.0502395 -0.0610197 1.90986e-17)
(0.0685353 -0.0010049 -1.74181e-17)
(0.0524426 0.0159646 9.84132e-18)
(0.00426895 -0.00247487 1.13313e-17)
(0.00139575 0.00127726 -2.13705e-18)
(-0.00122234 0.00515296 4.77035e-17)
(-1.20142e-06 3.74747e-05 -4.10771e-19)
(-7.84511e-06 4.80145e-05 4.38762e-19)
(-0.00701866 -0.0364614 -2.45725e-17)
(0.000312559 -0.000153551 -9.26237e-19)
(4.95834e-05 -0.000720376 -4.61393e-18)
(-0.0058496 0.00509528 -4.76707e-17)
(0.000108697 -9.54436e-05 -6.17244e-19)
(0.0047441 0.00161325 -1.53223e-17)
(-0.00145071 0.00477096 -4.46232e-17)
(4.49409e-05 -0.00070775 2.9384e-18)
(0.000222959 -0.000184238 3.89168e-18)
(0.00104135 -0.00154815 -6.28761e-18)
(0.00088858 -0.000971397 -4.42705e-18)
(0.0012925 0.000546278 8.72853e-18)
(0.0170428 -0.00639264 -5.3613e-17)
(0.00368209 0.00502474 -6.29297e-18)
(0.00102354 -0.00206618 4.26931e-17)
(0.00170865 0.000277152 1.9991e-18)
(0.000102004 -0.000620854 1.67621e-18)
(-0.000562583 -0.0033845 -7.48885e-19)
(0.000265432 -0.00128014 9.24968e-19)
(0.000989549 0.000566311 -7.19661e-18)
(-0.00160912 -0.00629588 -8.65994e-18)
(0.00687926 0.00432618 2.08263e-17)
(0.015432 -0.00574766 -2.93108e-17)
(-0.0510323 -0.0705941 7.18126e-18)
(0.00151411 -0.000248883 -1.52022e-18)
(0.000975858 0.000588241 3.24541e-18)
(0.00783002 0.00586833 -1.93064e-17)
(0.000288001 0.000670287 1.28221e-17)
(0.0496822 0.00321725 6.07433e-17)
(0.00551075 -0.00515565 3.57172e-17)
(0.000115685 -0.000569273 -2.63828e-19)
(0.0152533 -0.00593696 5.42327e-17)
(-0.0380428 0.00160339 9.48896e-18)
(-0.001436 0.000912965 1.49637e-17)
(0.000122993 -8.70659e-06 7.67358e-20)
(0.00377439 -0.000752771 -4.88809e-19)
(-0.0353033 -0.044239 3.49728e-17)
(0.000657288 0.000666238 -3.38347e-18)
(0.000547484 0.000569735 -2.01268e-18)
(3.06454e-06 0.00171524 -4.03941e-18)
(0.000470828 0.00117401 -3.96529e-18)
(0.00022042 0.000720277 1.47085e-19)
(0.00010225 2.5779e-05 -7.98834e-19)
(-5.04886e-06 2.54533e-05 -1.27546e-19)
(0.0259724 0.00431596 1.64795e-17)
(0.00127514 0.000719461 -2.95608e-18)
(0.0641793 0.0205029 4.1858e-17)
(0.000156873 -0.000215081 3.15211e-18)
(0.00110685 0.00995941 -2.6098e-17)
(0.0461947 0.0258903 -1.47956e-17)
(0.000171377 -0.000410549 7.86442e-19)
(0.000138753 0.000378189 -2.3407e-19)
(0.0012358 0.000761017 -7.33004e-18)
(3.7864e-05 -0.000198232 -1.20168e-18)
(0.00101571 -0.000451502 -1.01854e-19)
(0.000525339 -0.00152563 1.36197e-17)
(0.00080602 0.00037675 6.35133e-18)
(-0.00893614 -0.00472486 -2.26053e-18)
(0.000134819 -0.00412001 1.26833e-17)
(-1.30622e-05 0.000128793 8.9321e-19)
(-0.0280931 -0.0429179 7.34516e-19)
(0.0513157 0.0022582 9.40485e-19)
(0.000848523 -0.00208438 2.47392e-18)
(-0.000446333 0.00904554 1.08482e-17)
(-0.000405941 -0.00639071 -5.84367e-18)
(0.000888689 -0.00156177 -4.30965e-18)
(0.00336283 0.00490612 6.65776e-18)
(0.0013453 0.000538494 1.03123e-18)
(0.0113576 -0.028975 -1.62618e-17)
(0.00128815 0.000723678 2.79215e-18)
(0.00728974 -0.00118243 3.1793e-19)
(0.000658189 -0.000637152 1.2611e-18)
(-0.0896246 -0.0792309 -2.00622e-17)
(0.000512045 -0.000114669 2.10135e-17)
(0.00259696 -0.00471247 3.29797e-18)
(-0.00803888 -0.0165387 3.42894e-17)
(-0.00714475 -0.000792026 1.34992e-16)
(0.00127702 0.000734261 1.75188e-17)
(0.000480283 -0.000639007 -2.07917e-18)
(-0.000238487 0.00232696 -8.41509e-18)
(0.0158529 0.0091054 8.48793e-18)
(0.000980824 -0.000531351 3.84951e-19)
(0.00676368 -0.00530464 -5.38592e-17)
(0.000478308 -0.001129 9.43728e-19)
(-0.0335278 -0.0521648 -2.34074e-17)
(0.00105538 -0.000374804 3.4744e-19)
(0.000415774 0.000595132 -1.4452e-18)
(0.000163976 -8.8296e-05 3.59313e-20)
(9.97676e-05 -8.16351e-05 7.83355e-21)
(0.0512307 -0.00194262 -1.52341e-17)
(-0.0352334 -0.0524643 3.45677e-17)
(0.00037144 -0.000733944 -8.32888e-18)
(0.0473424 -0.0299265 9.86208e-19)
(0.00149197 -0.0014191 -1.97442e-18)
(-0.10134 -0.0738302 -1.92503e-17)
(0.0672819 -0.00115947 -3.49736e-18)
(0.00530295 -0.0574276 1.37492e-17)
(-0.0115331 0.0271771 5.57696e-17)
(-0.000207277 0.000609276 7.19623e-18)
(0.0364664 0.00377446 -8.74945e-17)
(0.0133067 -0.00309759 2.52148e-18)
(0.0007199 -0.000304221 -5.09603e-19)
(0.00335952 -0.00289817 2.08527e-17)
(-0.00499645 -0.0352927 8.44879e-18)
(-0.140962 -0.0384654 -1.4313e-17)
(0.000808063 0.000867012 2.98353e-18)
(0.000134015 -0.00145691 2.21586e-17)
(0.000718563 -0.00043628 6.59569e-20)
(-4.09533e-05 2.29334e-05 9.95047e-21)
(-0.103701 -0.013991 -6.21822e-18)
(-0.00832291 -0.00661698 2.90162e-17)
(0.043977 0.00185211 -3.25321e-17)
(0.0120665 -0.0140526 2.74059e-17)
(0.000327856 -0.00082387 -5.24113e-18)
(2.61192e-05 -0.000182276 -1.4633e-18)
(-0.00123628 -0.00153871 -1.8519e-18)
(-4.34033e-06 5.24043e-05 9.37123e-20)
(0.000289479 -0.000218355 5.23718e-19)
(0.000506541 -0.00151574 -8.75937e-18)
(0.000136855 0.00147452 4.25157e-18)
(-0.00941986 -0.00446243 -1.39379e-17)
(0.000662362 -0.000140642 -3.50473e-17)
(0.0094544 -0.000129723 -4.3927e-17)
(0.0301526 -0.016092 -2.11486e-17)
(0.00470797 0.00212257 -2.23981e-17)
(0.000129701 -0.000561031 -9.69812e-19)
(0.00119616 -0.00138763 5.08866e-18)
(0.00644445 0.00401534 -9.30226e-18)
(0.010305 -0.0293639 1.5785e-17)
(0.00701224 -0.000850412 -1.22527e-18)
(0.00435708 -0.00448936 4.91683e-17)
(0.000270396 0.00201756 -2.39602e-17)
(0.000390119 -0.0007851 5.92693e-18)
(0.0448402 -0.0304234 1.46682e-17)
(-0.0828309 -0.0659379 -5.06484e-18)
(0.000966002 -0.000390096 2.58149e-19)
(4.67968e-05 0.000333747 3.42956e-18)
(0.000526795 -0.0032792 4.02981e-17)
(0.0223487 0.0206832 -5.01217e-17)
(0.00981743 -0.0005789 2.69029e-17)
(0.000104573 -7.02533e-05 1.22164e-20)
(0.0558885 -0.00332626 -6.45035e-17)
(0.0115109 -0.00183011 4.54734e-17)
(0.0167582 0.0100167 2.93867e-18)
(6.81959e-05 0.000317076 4.64282e-19)
(-0.00393129 -0.000377436 -1.12536e-16)
(-0.0142986 -0.00167432 -3.65855e-17)
(-0.0207698 0.00317095 -1.02305e-16)
(0.00120324 0.000747063 2.08467e-18)
(-1.21591e-05 -0.000185291 -8.69945e-19)
(0.0598087 0.0200058 -5.57768e-17)
(-1.82906e-06 2.34611e-05 6.81579e-19)
(0.0194096 -0.0326185 -5.31977e-17)
(0.0480966 0.00481269 -1.00085e-16)
(-0.0095921 0.0115764 -1.99488e-17)
(-0.00690721 -0.000953418 -1.19639e-16)
(0.00340751 -0.0121625 -1.26065e-17)
(0.035192 -0.00923225 5.24508e-17)
(-0.0005429 -0.00606801 2.20239e-17)
(0.000572927 -0.000945807 -2.87372e-18)
(0.000133595 -0.00143816 -1.33298e-17)
(-0.0195359 0.0037203 -2.34681e-17)
(-0.0695754 -0.0910516 -3.18314e-17)
(-0.0151827 -0.0015246 1.52779e-17)
(-0.0784447 -0.164295 1.9166e-18)
(0.000261432 0.000672068 4.51891e-18)
(0.0179129 -0.0325374 6.78499e-18)
(-1.03505e-06 3.2084e-05 1.08403e-18)
(4.91747e-05 0.0026508 1.95289e-17)
(0.00867205 -0.0127707 -5.83242e-17)
(0.00664999 0.00490154 7.04633e-18)
(0.000105514 -0.000562291 7.3909e-19)
(0.00113896 -0.00116603 7.44382e-18)
(-0.016469 -0.0212115 1.90017e-18)
(-0.0206474 -0.0395427 -3.26101e-18)
(-0.0207039 0.00415443 -9.79813e-18)
(-0.0192825 -0.00100516 4.8146e-17)
(0.00173286 0.00140422 -2.6267e-18)
(0.00227716 -0.000189209 3.2244e-18)
(-0.00850499 -0.0381574 8.95973e-18)
(0.00019234 -0.00118178 -2.81851e-18)
(0.000199587 0.000509382 -3.43669e-18)
(0.000232139 -3.09261e-05 -1.34468e-18)
(0.00130626 0.00252774 3.49501e-18)
(0.0142931 -0.00598444 2.2269e-17)
(0.000109426 -0.000523527 -2.58102e-19)
(0.00843422 -0.011709 -1.70541e-17)
(0.000240532 -0.000118715 -6.65497e-19)
(0.000102633 -3.87469e-06 3.20018e-19)
(0.000163523 6.3338e-05 -2.32427e-19)
(0.040273 -0.00433986 5.09727e-17)
(0.000239382 -0.00127899 3.29291e-18)
(-1.69088e-06 2.45709e-05 1.364e-18)
(-0.000896804 -0.00140063 -1.67332e-17)
(-0.000634702 0.000536333 -1.07875e-18)
(-6.27605e-06 0.00014119 2.1208e-19)
(0.0568954 0.00209692 5.87604e-17)
(0.000397449 0.000711229 -2.20609e-18)
(-0.000190046 0.00038254 -2.93818e-18)
(0.00119446 0.00271632 -6.95448e-19)
(0.00115878 -0.00202839 2.06269e-18)
(0.00147715 0.00128718 -1.48298e-19)
(0.00110775 6.65719e-05 -2.91287e-18)
(0.00678424 -0.0062832 -4.40185e-17)
(0.000880743 -0.00212252 6.43981e-18)
(0.00243794 0.000338168 4.78085e-19)
(-0.0797449 -0.0667305 -4.07343e-18)
(0.00242023 0.000413309 -2.10863e-19)
(-0.0610056 -0.111216 -1.85011e-17)
(0.000233405 -0.00182366 4.43065e-18)
(-0.00941796 -0.00594059 -1.61749e-17)
(-0.020174 0.00405557 -1.10135e-17)
(-0.102974 -0.00948583 -8.97018e-18)
(3.98702e-05 0.000320796 1.15092e-18)
(0.00596855 -0.0307508 1.41412e-17)
(-0.0324445 -0.0130038 -4.29597e-17)
(0.000151853 7.14479e-05 -1.51695e-18)
(0.0609419 -0.00627842 -4.22058e-17)
(0.000114768 -0.000644054 4.61681e-18)
(0.000159196 4.75155e-05 2.62051e-19)
(0.000702778 0.000375291 -1.15209e-17)
(0.00017396 5.36498e-05 1.08942e-18)
(0.00623199 -0.00118132 1.33485e-17)
(0.0121446 -0.0288688 -4.57922e-18)
(0.000109942 0.000354225 -3.38117e-18)
(-0.014144 0.00179834 -5.74729e-17)
(-0.000199716 0.00058536 -9.74511e-18)
(0.00104124 0.00103837 -1.62151e-17)
(-0.0606881 -0.086634 3.43987e-17)
(-2.75291e-05 0.000102007 3.63232e-18)
(0.0293807 0.0175197 3.3197e-18)
(0.00125703 -0.000317559 3.1867e-19)
(0.000496297 0.00072977 -7.87249e-18)
(0.000296133 -0.000155111 -2.37145e-18)
(0.000240947 -3.38685e-05 9.56827e-19)
(-0.0136242 0.0101964 -2.7066e-19)
(0.000782258 -0.00289861 2.65264e-17)
(0.018868 0.00254744 1.03428e-17)
(0.00478639 0.00227459 1.92016e-17)
(0.0154553 0.024518 1.86458e-17)
(-0.0013787 -0.000914445 -1.55295e-17)
(0.000103845 -0.000554872 7.76944e-18)
(-0.0168843 -0.0248284 2.37888e-18)
(-0.0185812 -0.0014952 -5.25268e-17)
(-0.00281207 0.0273749 -8.96875e-17)
(0.000855497 -0.00298957 -3.39397e-17)
(-0.0088239 0.00874444 -1.26573e-17)
(0.0140806 -0.00183543 -4.6742e-18)
(0.00146428 0.000734064 -2.53013e-18)
(-0.0125915 0.0113187 4.22279e-17)
(0.00108467 3.73112e-06 -4.59809e-19)
(0.0040848 -0.00668571 5.32375e-17)
(0.000104999 -4.00039e-05 -7.22286e-21)
(-0.00382765 -0.000421367 7.19637e-17)
(0.000813206 0.000890602 5.7768e-19)
(0.000969449 -0.0029783 2.87112e-17)
(0.00101948 -0.00158532 6.95361e-18)
(0.000852269 0.000676272 -5.85136e-18)
(0.0717134 0.0221067 1.47394e-17)
(0.000101662 -0.00145939 3.75556e-19)
(0.000269596 -0.000206222 1.86412e-19)
(0.010309 0.0231044 -1.876e-18)
(0.00124951 -0.000366003 2.52158e-19)
(0.000167732 6.70239e-05 6.4054e-20)
(0.0019932 -0.00210616 -2.71483e-17)
(0.000342745 0.00525643 -2.26003e-17)
(-0.0146671 0.0104312 1.12319e-17)
(0.0160598 0.0102713 -3.60642e-17)
(-0.0580879 -0.0708519 -1.60026e-17)
(0.0214987 0.0101433 -2.44103e-17)
(3.1119e-05 -0.000184151 -7.7967e-19)
(-6.08119e-06 -0.000114063 1.3804e-18)
(0.0567102 -0.00370446 5.24542e-17)
(0.000158024 -0.000192696 -2.12873e-18)
(0.0121749 -0.00404316 -8.74261e-18)
(0.00330615 -0.0132054 -3.09877e-17)
(0.00116028 0.000714852 2.63801e-18)
(3.79238e-05 -0.000724422 2.08702e-18)
(0.0022254 0.000379221 1.83776e-17)
(2.03544e-05 -0.000192647 5.00489e-18)
(0.000478662 0.000716364 -2.38597e-19)
(0.00207244 0.000386714 6.97574e-18)
(0.0123886 -0.00297297 9.67567e-18)
(0.00959703 0.000169753 2.86976e-17)
(0.000508518 -0.00336187 -3.8826e-17)
(0.00456188 0.000830589 2.2726e-17)