/*--------------------------------*- C++ -*----------------------------------*\
| =========                 |                                                 |
| \\      /  F ield         | OpenFOAM: The Open Source CFD Toolbox           |
|  \\    /   O peration     | Version:  v2012                                 |
|   \\  /    A nd           | Website:  www.openfoam.com                      |
|    \\/     M anipulation  |                                                 |
\*---------------------------------------------------------------------------*/
FoamFile
{
    version     2.0;
    format      ascii;
    class       volVectorField;
    location    "150";
    object      ddt0(U);
}
// * * * * * * * * * * * * * * * * * * * * * * * * * * * * * * * * * * * * * //

dimensions      [0 1 -2 0 0 0 0];


internalField   nonuniform List<vector> 
18758
(
(0.000725829 0.0062204 6.22342e-19)
(0.000789694 0.0528091 2.35241e-19)
(2.52358e-05 -6.87368e-06 -4.06343e-20)
(0.00173265 0.00632774 -1.50855e-19)
(0.000331579 -0.00754953 -8.01535e-19)
(3.18682e-05 1.06253e-05 3.23301e-20)
(0.000130118 -6.65604e-06 -6.66473e-20)
(0.00148899 -0.00077559 -5.68972e-19)
(0.00089339 -0.00663677 1.41748e-18)
(0.0023194 -0.00570963 6.63943e-19)
(0.0178009 0.0313526 -3.91294e-20)
(0.0672424 -0.0102656 9.3044e-19)
(0.0271482 -0.0387874 2.73693e-18)
(0.00125833 0.00096509 -7.74778e-19)
(0.000128183 -3.71528e-05 -1.35465e-20)
(4.46205e-05 -5.16525e-05 -1.7669e-19)
(0.069876 -0.0317865 -1.00842e-18)
(7.52858e-05 -1.67799e-05 -2.03921e-20)
(0.000122085 -4.12613e-05 -3.40829e-20)
(-0.00316175 -0.000791434 1.00867e-18)
(-0.033829 0.0997688 -8.80045e-20)
(-0.0725294 -0.00365926 -3.72423e-19)
(3.00567e-05 7.96114e-06 -1.96626e-20)
(1.9737e-05 -8.56468e-06 3.50828e-19)
(-0.0502155 -0.00526725 -1.39389e-18)
(-0.170809 0.147651 -3.63942e-19)
(0.0503862 -0.229153 5.11774e-19)
(0.0573984 -0.00588163 3.20782e-20)
(0.00457579 0.0374463 8.68827e-19)
(-0.0189506 0.0878998 6.67422e-19)
(-0.143999 -0.467678 9.54081e-18)
(0.0681557 -0.142191 1.95729e-18)
(0.00133196 -0.000698135 1.19478e-19)
(-0.0926583 -0.0247002 -2.40925e-19)
(-0.001672 -0.00831241 -1.4418e-20)
(-0.00634395 0.0875783 -4.44835e-19)
(0.0327558 -0.0360631 1.81286e-18)
(-0.00106072 -0.00744037 -2.12234e-21)
(-0.0155854 0.462775 -2.16163e-17)
(-0.00029877 0.000424591 -1.54829e-19)
(0.0293148 0.0755855 -9.80486e-19)
(0.00495555 -0.0053971 -8.44641e-19)
(0.0580316 -0.0186564 -1.85077e-19)
(0.000809221 -0.000956848 -2.1695e-19)
(4.5983e-06 4.0579e-06 2.46717e-19)
(-0.163265 -0.376878 2.38862e-18)
(0.00458708 -0.00459594 1.99544e-18)
(0.0128275 0.0365251 4.91308e-18)
(-0.0126072 -0.201423 -4.68436e-18)
(0.00396272 0.00436926 -1.67402e-19)
(0.0250272 0.0326067 2.03198e-19)
(-0.289675 0.219764 -3.02247e-18)
(0.00468713 0.00386468 -2.69432e-19)
(0.00179239 0.00350597 3.28223e-19)
(-0.0551053 0.0221053 -2.88618e-18)
(0.021889 -0.0349066 -1.73127e-19)
(-0.000315035 -0.000199947 -7.60659e-19)
(-0.00287209 -0.000547857 -9.97157e-19)
(0.0148784 0.0314536 -9.2304e-19)
(-0.000328305 -0.00011396 1.02331e-18)
(3.35171e-05 2.30322e-06 -5.58136e-20)
(0.000554658 -0.000989852 4.50582e-19)
(0.100946 0.0115887 -1.16096e-17)
(0.10305 -0.062307 -1.30818e-18)
(3.38481e-05 2.61266e-06 -2.68584e-19)
(-0.0457731 -0.0858866 5.32932e-20)
(3.37426e-05 4.27257e-06 -4.20651e-19)
(2.91185e-05 2.79462e-05 -3.84069e-20)
(0.0564391 -0.0092668 2.20483e-19)
(7.2453e-05 1.12235e-05 2.225e-20)
(-0.26627 0.219395 1.99627e-18)
(-0.219502 0.161161 3.02218e-18)
(0.000123318 -9.03699e-05 2.01548e-20)
(-0.00392247 -0.00572148 3.60909e-19)
(-0.0216669 -0.0433615 -4.03868e-18)
(-0.144287 -0.559304 -1.73037e-17)
(-0.0153266 -0.0414688 -2.59946e-19)
(0.077288 -0.051647 1.38824e-18)
(0.00204463 -0.00662179 -2.24734e-19)
(0.0582718 -0.0237528 2.10839e-19)
(-0.023451 0.0270021 1.7034e-18)
(-0.034669 0.431222 1.0537e-17)
(0.0808801 -0.0465022 -2.7303e-19)
(-0.00982913 -0.0247738 -4.02344e-18)
(0.00231636 -0.000796932 3.12929e-19)
(-0.0432073 0.0194004 2.41849e-19)
(-0.000199431 0.00259551 1.16211e-18)
(-0.00471654 -0.00629835 1.66986e-18)
(0.0849923 0.0218147 -4.79642e-19)
(-0.0417179 0.0162362 2.74055e-18)
(0.0139061 0.0899823 7.96194e-18)
(1.02112e-05 -3.74939e-06 2.52977e-19)
(-0.0154946 0.0170125 5.37636e-18)
(-0.016268 -0.204358 -2.09281e-18)
(0.000118772 -8.58867e-05 3.34539e-20)
(3.63625e-05 2.38044e-05 2.13915e-19)
(8.93574e-06 0.000166322 1.39817e-19)
(0.00338705 0.0214436 -4.67385e-18)
(0.0610781 -0.057157 -2.76314e-19)
(0.000140235 6.81984e-05 1.01329e-18)
(-0.162584 -0.495071 -9.2119e-19)
(-0.0102267 0.000311149 1.12956e-18)
(3.70079e-05 1.17297e-05 4.69392e-20)
(4.04513e-05 2.72224e-05 -8.49108e-19)
(-0.0552525 -0.0838408 -4.06168e-19)
(-0.0500546 0.0851516 -1.98822e-18)
(0.0101863 0.0380661 -1.90742e-18)
(-0.0270432 0.0947159 -7.02126e-18)
(-0.024851 -0.0715761 4.81839e-18)
(-0.0169423 0.174668 1.49161e-18)
(5.78464e-05 -4.09609e-05 1.01962e-19)
(0.109792 -0.0762883 -2.98696e-19)
(0.00663667 0.00253895 1.85283e-19)
(2.05823e-05 -1.38897e-06 -2.29747e-19)
(-0.0104181 0.00139896 -1.56704e-18)
(0.1014 -0.016883 -1.47549e-18)
(0.00475293 0.0203851 4.89588e-18)
(-0.00018443 0.000129595 -2.96507e-19)
(0.117274 -0.0157262 -1.84436e-18)
(0.00319045 0.000246732 3.47632e-19)
(2.57382e-05 -1.53821e-05 -9.07079e-19)
(-0.00606344 -0.044042 2.50138e-18)
(0.00246935 -0.000421717 4.11626e-19)
(3.19071e-05 2.9204e-05 -1.25189e-18)
(-0.0191715 -0.153183 5.78441e-18)
(0.00133512 0.00367543 -8.1064e-20)
(0.000588354 -0.000436809 2.03384e-19)
(3.81977e-05 3.94631e-05 1.06228e-18)
(0.00163826 0.0734467 7.10321e-18)
(-0.0222633 -0.268232 3.72183e-17)
(0.0126542 0.0330909 -4.63039e-18)
(4.89646e-05 -5.88648e-06 3.26273e-19)
(0.00697797 -0.00176321 3.50761e-19)
(-0.124544 -0.1334 -6.36908e-19)
(-0.000310012 0.00053141 -6.47623e-21)
(5.92655e-05 -5.00011e-06 6.47742e-19)
(0.0417462 0.0296086 -3.91827e-18)
(0.0022211 0.000270988 -1.30318e-20)
(0.0713783 0.0312036 3.00872e-18)
(-0.0210955 0.0282383 -3.70008e-18)
(0.00810581 0.00204987 -4.25158e-19)
(0.0453114 0.101859 -8.54918e-20)
(-0.000218439 0.0146053 -1.56551e-18)
(-0.01603 -0.0684716 -1.719e-18)
(-0.0266801 -0.156141 -8.05119e-18)
(-0.00872594 0.011075 4.92537e-18)
(-0.0597938 -0.0975287 7.82141e-20)
(-0.00165666 0.0628868 1.04617e-18)
(0.0120014 0.0377859 2.6041e-19)
(-0.0971167 0.27742 9.56233e-18)
(-0.0605103 -0.326469 4.18542e-17)
(-0.0160745 -0.217828 2.57016e-17)
(0.000204176 0.000253952 9.07987e-20)
(-0.00374338 -0.00771306 -7.02314e-19)
(0.0326458 0.0504058 -6.78562e-18)
(0.0116364 -0.101443 -6.97018e-18)
(-0.0142691 0.0175187 -4.40888e-18)
(-0.00185878 0.0776155 -2.64859e-18)
(-0.0189502 -0.0231509 -1.9547e-18)
(0.010326 0.0476025 -4.10763e-19)
(-0.0636137 0.333957 9.43825e-18)
(-4.22864e-05 3.31703e-05 -8.67317e-19)
(-0.0167855 -0.204328 -3.33845e-18)
(-0.0704562 -0.095248 -5.47656e-19)
(-0.175889 -0.272686 3.84792e-19)
(-0.000567038 0.000303425 -1.0219e-19)
(-3.34385e-05 3.29014e-05 1.0188e-18)
(-0.178521 0.376027 3.55434e-17)
(-0.0342896 -0.292911 -3.06278e-17)
(0.0455783 0.0432213 -5.95268e-18)
(-0.013506 -0.20373 -1.43133e-17)
(2.38302e-05 -4.25336e-06 6.84823e-19)
(0.00693302 0.0432597 -2.93708e-18)
(-0.00144907 0.134146 -2.83688e-19)
(-0.0428296 -0.0276428 5.97622e-18)
(4.82039e-05 -0.000139889 -8.38614e-19)
(0.000101503 -9.36443e-05 -1.71654e-19)
(-0.0957643 0.121808 2.47509e-18)
(-0.100225 -0.00875759 8.62556e-19)
(0.000269159 0.000630797 3.19438e-19)
(4.83678e-05 -3.97624e-05 -2.16527e-19)
(-0.0003086 0.00364902 -7.61537e-20)
(-0.0516754 0.0243986 5.04942e-18)
(0.00033623 0.00105215 -2.07545e-18)
(-0.158872 0.344164 -5.76967e-18)
(3.47943e-05 0.000186063 -1.95047e-19)
(-0.0274373 0.0928296 -1.07287e-18)
(-0.00129641 0.0149619 -6.9987e-19)
(-0.0204017 -0.204318 4.27633e-18)
(-0.0946184 -0.211156 2.2896e-19)
(-0.0110638 -0.213495 -2.76983e-17)
(4.9568e-05 0.000185523 -2.34043e-19)
(0.037768 -0.00295504 -2.42812e-19)
(-0.0455137 -0.0245455 -2.95483e-19)
(2.13501e-05 -5.22875e-05 1.09035e-19)
(0.000419268 0.000975328 -2.37768e-18)
(0.0830508 0.0292918 -2.66804e-18)
(0.000180518 0.000242571 -6.5699e-19)
(-0.0215659 -0.203186 -6.39091e-18)
(3.76443e-05 9.61039e-06 7.82024e-19)
(0.00238672 -0.000134766 9.07968e-20)
(-0.000336071 0.0850683 -2.67352e-19)
(-0.0434051 -0.0750558 4.40575e-18)
(3.31362e-05 -4.00436e-05 -6.97113e-21)
(4.52334e-05 -4.1819e-05 2.67038e-19)
(-0.0173264 -0.205597 -2.37564e-18)
(-7.20318e-05 -9.86374e-05 -6.27105e-19)
(-0.00291928 -0.00863941 2.20193e-19)
(-0.0366844 -0.306156 -8.43949e-18)
(0.001844 -0.223432 9.56957e-18)
(1.68459e-05 3.94081e-06 1.68257e-19)
(-0.0140167 0.0210271 -7.36953e-18)
(0.00278881 0.000156259 2.21982e-19)
(0.000909313 0.00138965 -2.68498e-19)
(-0.00213313 -0.00025543 1.72558e-19)
(-1.9326e-05 0.000187134 -1.61154e-19)
(1.61445e-05 -3.73138e-06 -1.44375e-19)
(-0.0135797 0.0197483 5.17378e-18)
(2.8307e-05 1.45677e-05 1.73619e-20)
(0.0244051 0.115866 4.41169e-18)
(-0.0421377 -0.0395395 5.79488e-19)
(0.00020565 0.000412051 6.15736e-20)
(0.00079716 0.0142546 4.587e-19)
(0.00518531 0.0881777 -6.27056e-18)
(-0.0310688 -0.0829164 -5.45654e-18)
(-0.0170578 0.0474655 -6.43378e-19)
(-0.0273808 -0.0464682 1.68573e-18)
(-0.0403352 0.0068554 5.27365e-18)
(-0.0839962 0.336345 -2.22093e-17)
(-5.66168e-05 -7.63572e-05 8.61089e-19)
(-0.176485 0.160407 4.03622e-18)
(-0.00783885 0.0115704 -1.96417e-18)
(-0.060043 -0.00713638 -1.71566e-18)
(5.68018e-05 -3.14334e-06 -1.11804e-20)
(7.22424e-05 4.25844e-05 -1.32908e-19)
(0.000138356 0.000548425 -6.07759e-19)
(0.00873876 -0.0492488 -5.18736e-18)
(-0.00852642 -0.196377 -1.62937e-17)
(0.0956333 0.0259649 2.33902e-18)
(0.000481653 -0.000179404 -2.97566e-19)
(6.5541e-05 -3.72792e-05 3.52666e-20)
(0.00610401 -0.0458583 -2.73523e-19)
(0.06066 0.0301264 5.53135e-19)
(4.26609e-05 -2.12025e-08 -1.34082e-18)
(-0.136429 0.317482 1.51608e-17)
(0.0819733 0.103993 4.22027e-18)
(6.32158e-05 4.08055e-05 -9.31015e-19)
(7.73585e-05 -3.58259e-05 -4.65184e-19)
(-0.0014013 0.000585208 4.43169e-19)
(0.000137431 6.40557e-05 -1.01189e-18)
(-0.0152066 -0.204859 2.01098e-17)
(0.000986346 -0.000324456 -9.04695e-19)
(-0.0294848 0.0626637 -8.52558e-20)
(0.00028879 0.000666761 7.82269e-20)
(4.89528e-05 4.65624e-06 -6.97576e-20)
(0.112138 0.041641 -2.31011e-18)
(-0.000525793 0.000114677 -1.45798e-20)
(-0.229373 0.163426 1.5669e-18)
(2.2271e-05 6.95728e-06 -1.03444e-20)
(-0.0473602 -0.0639685 -5.45659e-20)
(0.00626222 0.00365305 1.24991e-19)
(1.7128e-05 2.6612e-05 1.26875e-18)
(4.91033e-05 4.40984e-05 1.21495e-18)
(0.0354469 -0.00386972 2.27772e-19)
(0.14538 -0.0364437 -2.01279e-18)
(0.164979 -0.0229658 2.56428e-19)
(5.47986e-06 3.76004e-05 -1.78566e-18)
(0.0664506 0.0349618 -4.22401e-18)
(0.000197439 0.000259772 -4.44214e-19)
(0.000382334 -0.000117682 2.70218e-19)
(0.11361 -0.0291978 1.11062e-18)
(-0.262758 0.076268 1.55733e-19)
(0.000377283 -6.89452e-05 1.37018e-19)
(-5.61222e-05 -6.43945e-05 1.61609e-19)
(-0.00291149 8.09279e-06 -6.11858e-19)
(-0.00183328 -0.000149612 -1.19145e-18)
(0.00510994 0.00142396 -1.36265e-19)
(3.20794e-05 1.84524e-05 -1.83947e-19)
(0.000941062 0.00175312 -1.00999e-18)
(0.00131487 0.00091057 3.04984e-19)
(7.47874e-05 -2.27126e-05 -1.38194e-19)
(5.18702e-05 -6.41404e-06 1.15069e-19)
(6.2137e-05 1.22281e-06 -8.6798e-20)
(-0.0852187 -0.104561 -4.48666e-19)
(0.000130157 -1.54373e-05 -2.09981e-20)
(-2.88889e-05 -5.84109e-05 2.85099e-19)
(5.90711e-05 1.45595e-05 -4.12699e-20)
(0.0560804 0.0329896 5.5092e-19)
(4.30002e-05 4.51131e-05 -1.36617e-19)
(4.48676e-05 3.86017e-05 9.6978e-20)
(3.55379e-05 1.18013e-07 1.58368e-18)
(0.000463908 0.00069235 -2.49652e-18)
(-0.00023324 -0.000211373 -3.03898e-19)
(3.52325e-05 -1.13777e-05 2.0478e-19)
(1.81948e-05 -5.60444e-06 3.46393e-19)
(-0.00253283 0.000983062 -6.13943e-19)
(-0.0130793 0.0356889 3.17477e-19)
(1.71381e-05 -2.46693e-06 -7.30864e-20)
(2.30524e-05 -5.8089e-06 -4.45326e-19)
(0.0314455 -0.103244 1.54317e-17)
(0.00119262 0.00221818 7.73849e-19)
(2.89091e-05 -1.67012e-05 -3.80915e-20)
(3.408e-05 -1.82245e-05 -1.93167e-19)
(-0.00517822 0.480972 -1.70221e-17)
(0.0264349 -0.00547158 4.31139e-19)
(4.77816e-05 -5.10861e-05 -1.71395e-19)
(0.00221646 0.0128928 -7.99043e-19)
(-0.0608136 0.0836089 -1.48813e-19)
(0.000454119 -0.00123342 -3.78972e-19)
(0.0161273 -0.0368676 -1.25396e-18)
(6.57438e-05 1.47979e-05 1.0466e-19)
(0.18191 -0.0321105 -8.72106e-19)
(0.0782128 0.0347256 3.04501e-19)
(0.040478 0.0232447 -5.14042e-18)
(0.00210634 0.0361217 6.95015e-19)
(-0.0803824 -0.0285755 -1.13917e-19)
(4.88308e-05 -2.34968e-05 2.59647e-19)
(0.0215507 0.289736 -8.78901e-18)
(0.00973038 0.103081 -9.76413e-18)
(2.43681e-05 2.2722e-06 5.78563e-19)
(0.0387843 0.0209796 3.4122e-18)
(-0.0154511 -0.022726 4.03862e-18)
(-0.00712132 0.197928 -2.50984e-17)
(9.20324e-05 2.48776e-05 -1.34847e-19)
(4.61088e-05 -8.47433e-06 6.55517e-21)
(-0.000282383 -0.232674 -1.78762e-17)
(0.00671491 0.103833 -5.06129e-20)
(6.6154e-05 2.35438e-06 2.94816e-19)
(-0.0157103 -0.167948 2.13886e-18)
(0.00616549 -0.0390397 1.14688e-18)
(0.00955897 -0.00327712 1.0463e-18)
(-0.107966 -0.13582 -2.41248e-18)
(9.12454e-05 2.25537e-05 6.02198e-19)
(-0.000638023 0.000211189 -9.07503e-19)
(2.62622e-05 1.29488e-05 3.53029e-21)
(2.39658e-05 2.0364e-06 -8.88928e-19)
(-2.76288e-05 0.000620227 -5.3488e-19)
(0.00322465 -0.00150354 9.08733e-19)
(0.00162716 -0.000660333 -1.08789e-20)
(-5.03774e-05 -0.000133219 1.31475e-18)
(-7.60426e-05 0.000502802 5.6379e-19)
(0.000587743 -7.56047e-05 5.46376e-19)
(0.12948 0.0602512 -7.53648e-19)
(-0.0213801 0.490394 7.27179e-18)
(0.00193251 0.000501875 4.05266e-19)
(0.0187469 0.389417 2.48042e-18)
(0.0594655 -0.0825721 8.51676e-19)
(6.90705e-05 1.247e-07 3.74037e-19)
(0.000632673 0.00785765 -4.99415e-18)
(0.0287342 -0.0111426 2.10236e-19)
(-0.0591361 -0.0146056 1.01509e-18)
(0.0626735 0.0515747 -3.92273e-19)
(0.0821121 0.00203733 -1.35365e-18)
(3.0579e-05 0.000176475 3.37901e-19)
(-0.0226867 -0.200528 8.89559e-18)
(-0.0600649 -0.0941315 -3.91559e-18)
(0.00846005 0.0152061 2.44275e-18)
(0.000583589 -3.58376e-05 -4.30382e-19)
(0.00842371 -0.00453347 1.17711e-19)
(0.000296046 0.00169948 -1.24899e-18)
(0.000804487 -0.000715744 -2.59717e-19)
(0.0902789 0.0317798 -5.49886e-19)
(-0.0432462 -0.0320462 -5.46212e-19)
(0.0680862 0.0140086 1.35949e-18)
(-0.0364902 -0.0570454 3.37611e-18)
(-0.05054 -0.0117236 1.57654e-18)
(6.78015e-05 4.52298e-05 2.40358e-19)
(0.00135878 0.00345666 4.5095e-18)
(-0.000667686 0.00405042 -1.46676e-18)
(0.00621221 0.0218282 1.19124e-18)
(-0.0112031 -0.200679 2.59087e-17)
(0.100823 -0.0103307 2.22403e-18)
(-0.0911203 0.0682794 3.55649e-18)
(0.0495359 -0.0482774 3.50812e-18)
(0.029794 0.0860365 3.48893e-18)
(0.0843906 -0.00274489 1.97652e-18)
(5.15073e-05 3.41866e-06 -2.44964e-20)
(-0.0291873 -0.0685963 -2.54542e-18)
(-0.00405946 0.0667002 -7.24131e-19)
(0.0275923 0.0115345 2.14077e-19)
(0.0689738 -0.00259251 -1.17247e-18)
(4.10524e-05 7.57409e-06 4.70393e-19)
(1.63854e-05 -7.62139e-06 1.87537e-19)
(-0.0743077 -0.00846671 -7.69096e-18)
(0.0660855 0.0283521 -3.90521e-18)
(-0.04601 -0.154605 3.33405e-18)
(0.112326 -0.0342747 -1.69513e-18)
(-0.0240386 -0.1696 1.51793e-17)
(0.000548406 -0.000149846 -3.76207e-19)
(0.05083 0.00733073 8.6973e-18)
(0.00126786 0.176924 -5.92791e-18)
(4.65056e-05 -5.12088e-05 3.3467e-19)
(0.00136346 0.000710365 -2.29357e-18)
(-0.00181261 0.000621459 -2.88275e-19)
(-0.000990521 -0.00229627 1.55403e-19)
(2.14129e-05 -1.37791e-05 -3.3179e-19)
(2.08924e-05 0.0018558 -8.66355e-20)
(3.22886e-05 0.000160984 -1.39504e-19)
(6.07289e-05 -4.31665e-06 1.81432e-19)
(4.03638e-05 1.29894e-06 -3.48847e-19)
(-0.000998971 0.00129099 7.26987e-20)
(0.0068933 -0.00899954 6.05354e-20)
(-0.0712121 0.170289 -2.00324e-17)
(-0.000326878 0.00447726 2.81773e-18)
(0.0426339 0.118938 -1.31642e-18)
(0.00332997 0.0918465 -1.06765e-19)
(0.0156303 -0.111446 -5.15495e-17)
(-0.0992575 0.113373 7.16277e-18)
(0.0130261 0.0634728 -6.04736e-20)
(-0.00202889 0.000995192 7.75313e-19)
(1.42492e-05 -4.94729e-06 2.41145e-19)
(0.0588913 -0.0143539 3.46425e-19)
(0.00141108 0.000641121 3.20203e-18)
(0.000387691 -0.000292579 2.81285e-19)
(0.054821 0.0123519 7.12413e-19)
(0.00771237 0.0208174 -1.45663e-18)
(0.0664151 0.0417104 2.00123e-19)
(-0.000555186 3.2276e-05 1.96269e-19)
(0.130043 0.0735003 5.90724e-19)
(4.95154e-06 4.49252e-06 -1.74222e-19)
(0.00131693 0.00234555 3.32199e-18)
(4.2727e-05 -7.86956e-05 1.63356e-19)
(-0.0312743 -0.199699 -3.89382e-18)
(0.179676 -0.0093968 -6.28166e-19)
(0.0540012 0.0712475 -9.43532e-19)
(2.1195e-05 -6.34434e-06 2.26758e-19)
(-0.0796302 -0.144438 6.72543e-18)
(-0.0156086 0.014009 2.155e-18)
(1.27288e-05 1.83532e-05 3.53252e-20)
(-0.00138818 -0.00192972 3.65503e-19)
(2.70049e-05 4.80917e-06 -7.41431e-19)
(-0.109267 0.0926745 -3.05209e-18)
(8.05787e-06 2.21251e-07 2.77622e-19)
(4.0013e-05 -1.07052e-05 -1.59546e-19)
(-0.163455 -0.353995 -1.29937e-19)
(-0.000625933 0.00448762 -4.25793e-18)
(0.000454323 -0.000270746 1.52318e-19)
(0.000102505 -8.64455e-05 -2.89037e-20)
(0.000991422 -0.00105459 7.267e-21)
(0.00261341 -0.00239435 8.47538e-20)
(0.104403 -0.122843 -6.87807e-20)
(0.0606998 0.0528125 -5.10987e-19)
(3.52309e-05 4.12085e-07 -1.02303e-19)
(-0.033883 -0.0767831 -5.04478e-19)
(3.91591e-05 -8.01614e-05 -8.82564e-22)
(0.00381607 -0.00160995 -6.64532e-19)
(-0.0379752 0.00650825 -6.74171e-18)
(-9.28626e-05 3.14501e-05 2.0017e-19)
(-0.141691 -0.310804 -5.24591e-18)
(3.06702e-05 1.11106e-06 -1.43385e-19)
(0.00264552 -0.0027522 2.24624e-20)
(2.12078e-05 -5.65056e-06 4.59342e-19)
(0.0933148 -0.00878348 3.29255e-18)
(-0.00334208 0.00157679 2.29211e-19)
(2.19915e-05 0.000160485 9.40038e-20)
(-0.00863813 -0.18953 2.97045e-18)
(0.0279092 -0.000285131 -1.27985e-21)
(6.07618e-05 1.52722e-05 1.61154e-20)
(0.00152903 0.00332718 -6.89018e-18)
(-0.00314267 -0.00201331 7.28255e-19)
(3.39804e-05 -4.33287e-05 1.06125e-19)
(1.29767e-05 -1.81942e-06 1.65748e-20)
(1.09678e-05 1.64358e-05 -1.19372e-21)
(0.107044 -0.0803074 -3.93956e-19)
(0.201833 0.0341106 2.31175e-18)
(0.000358121 0.000334347 -2.59652e-19)
(0.00863359 0.00796693 -2.59082e-18)
(-0.0405866 -0.0066292 2.43187e-18)
(-0.071087 0.117665 8.58129e-19)
(-0.00296862 0.0899637 1.44411e-18)
(0.0844972 0.094348 -4.16188e-18)
(0.000951572 0.109329 -5.85958e-19)
(-6.32879e-05 0.000104247 7.8757e-20)
(0.0133912 0.0580371 -3.45438e-19)
(0.00829049 -0.0417253 6.04849e-18)
(0.000223309 -0.0107389 1.10771e-18)
(0.0011883 -0.000790014 -1.50625e-19)
(0.0155342 0.135893 -6.63897e-19)
(0.0216957 -0.00913064 8.38331e-20)
(0.00795534 0.000645592 -4.26201e-19)
(1.89099e-05 -1.76181e-05 6.2783e-19)
(0.000131815 -1.46234e-05 7.27329e-20)
(5.0563e-05 5.78884e-05 2.5646e-18)
(-9.69186e-05 2.92699e-05 -6.64238e-20)
(4.85753e-05 5.69086e-05 -1.10025e-18)
(-0.000124101 1.36866e-05 2.00089e-19)
(-0.00144508 -0.0501197 -5.56856e-19)
(4.15931e-05 2.57254e-06 8.14866e-19)
(2.59818e-05 -6.36469e-05 -2.96703e-20)
(-0.0157615 0.0112977 3.69307e-18)
(5.39811e-05 -5.79644e-06 1.34987e-18)
(1.72442e-05 -3.05689e-06 -3.15621e-19)
(-0.000350298 0.000280863 1.75022e-19)
(-0.00278156 -0.00171046 -2.02933e-19)
(0.0193915 -0.0103946 1.90853e-19)
(-0.0191444 0.128811 2.95841e-18)
(-4.74084e-05 -0.000105844 -2.68554e-18)
(0.0288349 0.0244343 -3.01389e-20)
(5.23151e-05 3.35354e-06 -4.18511e-20)
(0.000151695 0.00483263 -4.2776e-18)
(-0.0378706 0.0521117 3.43287e-18)
(0.258686 0.00473292 -4.22714e-18)
(0.054163 -0.0457963 -4.62707e-19)
(2.69977e-05 -4.72566e-06 -7.69047e-20)
(3.20901e-05 0.000173861 5.84083e-20)
(0.21661 0.0210932 -4.50264e-18)
(-0.107923 -0.142491 3.03138e-18)
(0.0105573 -0.00683653 -1.15838e-18)
(-0.000439136 -9.3643e-05 4.48211e-19)
(0.0911802 0.0364316 1.86247e-19)
(-0.0722914 -0.107259 5.33985e-19)
(6.11392e-05 6.44022e-06 3.18177e-20)
(5.31295e-05 2.53413e-06 3.65038e-20)
(-0.221055 0.439579 -1.3293e-17)
(-0.00213627 -0.000563922 2.87994e-19)
(-0.0211064 0.0314589 -1.95076e-18)
(0.00919158 -0.00834647 -2.6148e-18)
(-0.00197152 -0.00214114 -5.59225e-19)
(0.00922581 0.00748431 -2.42386e-18)
(7.666e-05 -3.07082e-05 6.62969e-19)
(6.74025e-05 -0.000145254 7.89118e-20)
(4.98366e-07 -4.31221e-06 -6.14505e-20)
(1.80944e-05 4.15356e-07 -1.59202e-19)
(-6.52908e-05 -7.87891e-05 -1.99837e-19)
(-8.16094e-08 -9.85876e-07 -3.15494e-19)
(0.0107708 -0.218184 6.34104e-18)
(4.5954e-05 1.2008e-05 4.47398e-19)
(0.0713624 0.017146 5.88154e-20)
(-0.0360584 -0.0228806 1.49847e-18)
(6.32263e-05 6.83819e-06 -1.18877e-20)
(4.62799e-05 6.62736e-06 -6.16167e-20)
(3.58856e-05 3.79422e-07 -1.26914e-18)
(0.00321473 0.00302149 1.41203e-19)
(-0.00586938 0.00689756 -2.60588e-20)
(0.0667724 0.0617282 4.98183e-19)
(0.000143178 7.77298e-05 -1.12806e-20)
(-0.0468489 -0.189786 -2.30457e-19)
(0.00666598 -0.00613863 1.04275e-19)
(-0.000596103 -0.0102597 -1.63439e-18)
(6.29965e-05 -0.000114397 5.63691e-19)
(-0.00073082 0.00110008 6.36184e-19)
(-0.00173929 0.000557784 3.01339e-19)
(0.000395432 0.000339112 2.79404e-19)
(0.000376861 0.000335249 -3.83401e-19)
(0.102039 -0.0789152 2.2415e-17)
(-0.192894 0.373883 2.2931e-17)
(7.56557e-05 -2.52267e-05 5.08864e-19)
(-5.74707e-05 -5.73431e-05 9.39294e-19)
(0.000437202 0.000640056 -1.88512e-18)
(-0.124061 0.331556 -2.15441e-17)
(4.57651e-05 -7.87679e-05 -2.49026e-19)
(-2.273e-05 0.000216825 -2.87533e-22)
(-0.000132006 1.22771e-05 1.40876e-19)
(2.99983e-05 -6.8732e-05 3.07555e-19)
(-9.77218e-06 -6.96431e-05 -9.39525e-19)
(3.34006e-05 -7.86096e-05 -1.69978e-19)
(-0.001211 0.000407249 6.88931e-19)
(3.44675e-05 -4.74231e-05 1.4461e-20)
(0.0178681 0.0325789 1.1849e-18)
(0.000143001 7.92347e-05 1.03302e-20)
(-0.000458505 0.000591859 -2.12151e-20)
(0.035798 -0.0405513 2.86107e-19)
(0.281795 0.00103742 3.25075e-18)
(0.00627203 -0.000910136 -3.4853e-19)
(0.00070791 -0.000385388 -3.24001e-20)
(0.000111318 -2.04654e-05 4.68142e-19)
(1.67648e-05 -2.47542e-06 6.2959e-19)
(0.000108203 -9.66516e-05 -3.59577e-20)
(0.00269002 0.000501976 -3.19549e-19)
(0.0413211 0.0339746 7.00424e-20)
(0.0410847 -0.00102826 1.41668e-19)
(0.000361418 0.000663247 -2.53269e-18)
(-0.0703443 0.139451 -8.89023e-19)
(0.000101641 -3.72302e-05 -1.11355e-19)
(0.000314487 0.00833686 2.79654e-18)
(0.000604204 -0.00060276 2.98308e-19)
(4.51539e-05 3.78341e-06 3.72796e-19)
(-0.00790769 0.0128464 -3.50407e-18)
(6.65853e-05 3.3534e-05 3.42605e-20)
(1.90238e-05 -3.48697e-07 4.81888e-19)
(0.0157132 0.270351 -1.25852e-17)
(2.99954e-05 -7.20886e-06 4.54199e-19)
(0.000493711 0.00103899 2.87071e-18)
(-0.0419037 -0.0515716 -3.53739e-18)
(3.88436e-05 -1.53163e-05 -9.19964e-19)
(8.17581e-05 0.000153529 -2.30367e-19)
(-0.0269441 -0.202669 -1.12711e-18)
(-0.000150565 0.000138595 9.38237e-22)
(-0.0104317 -0.0532879 -1.10136e-18)
(0.0160347 -0.0091739 6.62753e-19)
(4.85952e-05 5.13182e-06 -2.15102e-19)
(1.84558e-05 -5.23189e-06 -2.88498e-19)
(-0.00971249 -0.0219684 -5.36482e-19)
(0.000801717 -0.00175381 -3.75091e-20)
(-0.00511249 0.00759075 -1.31891e-19)
(5.46347e-05 -0.000137168 9.43072e-19)
(-0.0652256 -0.0893126 -3.66957e-19)
(-0.0561977 0.1833 9.17201e-18)
(0.0176255 0.11397 -3.57296e-18)
(7.5877e-05 -1.16021e-05 -2.7802e-19)
(0.0438252 -0.0909262 2.06576e-17)
(1.75556e-05 -4.22087e-05 -6.47479e-20)
(1.94738e-05 4.05129e-06 -5.11127e-19)
(0.000113042 7.17743e-05 6.52285e-19)
(0.00544211 0.00135987 7.7228e-20)
(-0.116042 -0.255595 1.22563e-18)
(0.0468834 -0.0373117 -2.02584e-18)
(-0.000158621 0.00112632 5.45493e-19)
(0.000352433 0.000980897 4.74725e-18)
(0.00304255 -0.000296729 2.72143e-19)
(0.04876 -0.0432318 -8.23245e-19)
(0.0747808 0.0345277 2.3641e-20)
(1.90662e-05 7.24739e-06 -1.11755e-20)
(0.0011679 0.0152848 1.99583e-19)
(0.00163991 0.00228361 8.07585e-19)
(-0.0108971 -0.196255 8.52622e-18)
(0.00676682 -0.00119622 -1.69681e-19)
(0.0116294 -0.00928604 -2.25081e-19)
(7.09967e-05 6.36002e-05 -5.35336e-19)
(0.00569296 0.000420527 -1.04394e-19)
(0.0108717 0.0205348 1.09286e-18)
(4.68879e-05 6.28266e-06 -4.32851e-19)
(7.1618e-05 6.27001e-05 -4.19319e-19)
(4.74039e-05 -7.32986e-05 1.44627e-19)
(7.06264e-05 -1.96211e-05 -3.0305e-19)
(0.00543529 -0.000340968 1.9762e-19)
(0.0412994 0.0463015 -1.00949e-19)
(-0.0240883 0.0624099 1.15528e-19)
(0.036333 0.229415 8.72062e-18)
(0.00946794 -0.0104428 -4.83751e-19)
(-0.00313815 -0.00310711 1.79128e-18)
(0.000136929 7.65305e-05 -6.3644e-19)
(6.40409e-05 -6.77349e-05 -1.33086e-19)
(0.0795766 0.00278253 -1.65211e-19)
(-0.054966 -0.0121672 3.23549e-18)
(-0.000397768 0.000377582 -1.43451e-20)
(0.00273729 0.0150742 -3.06679e-18)
(-0.0147719 -0.222957 9.07773e-18)
(0.0949843 -0.0865868 -1.9302e-17)
(2.23408e-05 2.17799e-06 4.49506e-19)
(2.71251e-05 1.1227e-06 -4.75866e-20)
(-0.0130301 -0.0258289 -1.33325e-18)
(-0.0432819 0.040957 -4.56143e-18)
(1.44569e-05 -3.13256e-05 2.29526e-19)
(0.0255751 -0.0158855 8.40147e-19)
(0.000181065 2.75311e-08 7.90299e-19)
(5.9461e-05 -5.25535e-06 -4.19173e-19)
(0.000926256 0.00595576 2.7995e-18)
(8.69469e-07 2.06605e-05 -6.29704e-20)
(0.000370004 0.000344661 1.50668e-19)
(0.000719812 -0.00149527 -6.50025e-19)
(6.54461e-05 3.28682e-05 2.22604e-20)
(-0.000547307 -0.00197225 -2.87175e-19)
(0.0453948 0.0546245 -4.52779e-19)
(-0.00688167 0.0132499 -5.29459e-18)
(-0.0363104 -0.185532 -3.4977e-18)
(0.00111666 0.00120244 -3.71038e-19)
(-2.66786e-05 -6.51109e-05 -4.24764e-19)
(0.115077 -0.0153554 1.68056e-18)
(-5.73642e-05 0.000240845 1.11441e-19)
(0.117052 -0.0227875 1.01394e-18)
(-0.00263853 -0.242787 6.97114e-18)
(0.000176858 -2.41829e-05 -5.3246e-19)
(0.0494077 0.0275459 6.59936e-18)
(0.000650656 -0.00272342 4.67673e-19)
(0.000889895 -0.000434031 1.71409e-18)
(0.0317174 0.0233536 1.55254e-18)
(-0.00220035 0.126483 -1.61424e-21)
(0.00313499 0.120481 4.12799e-19)
(0.114484 -0.0678925 6.32154e-19)
(0.000690493 -0.00156934 2.43587e-19)
(0.0817437 -0.133479 -9.56627e-18)
(4.31268e-05 2.89047e-05 -3.69255e-19)
(-0.0143408 -0.0570375 2.64779e-18)
(0.0278199 -0.096864 1.76267e-17)
(0.00801776 0.0129405 -3.25031e-18)
(0.000227713 0.000854698 2.44714e-19)
(0.0512255 0.0712312 -1.91175e-18)
(0.00161378 0.00209535 -9.14116e-19)
(-0.0436982 -0.00419924 4.29808e-19)
(-0.161685 0.240396 -3.62299e-18)
(0.15916 -0.0799317 6.02748e-19)
(0.000172496 0.000240627 -4.35118e-20)
(0.0158842 -0.139 -3.14383e-18)
(3.29677e-05 8.2907e-06 -4.73626e-19)
(0.00382046 0.0160955 -2.59871e-18)
(0.00433297 0.0409993 -6.61193e-19)
(6.03689e-05 -1.21569e-05 -5.88933e-19)
(0.00685534 0.00444831 1.1436e-18)
(-0.0183973 -0.0637333 1.57455e-18)
(-0.00301822 -0.0561457 -1.53218e-18)
(-0.00540807 -0.003006 -4.89432e-19)
(-0.0014072 0.000385518 -7.39539e-19)
(2.54488e-05 -6.23199e-05 -2.49473e-19)
(0.000630853 2.47437e-05 -3.31491e-19)
(-0.00279333 0.00153515 -3.75036e-19)
(0.000568365 0.0143393 2.56437e-19)
(-0.0121465 -0.0546296 3.57054e-18)
(-7.30321e-05 -5.92899e-05 -5.6902e-19)
(0.109101 -0.0199448 -4.49782e-19)
(-0.00293697 -0.00264496 -1.82331e-18)
(0.00033252 -0.000148945 7.65182e-19)
(0.000473725 0.00346887 -5.05414e-18)
(4.61536e-05 -3.82761e-05 7.92368e-20)
(-0.0117204 0.0142661 -1.80838e-19)
(6.5253e-05 -1.19091e-05 -9.00272e-20)
(7.26951e-05 -2.15769e-05 -1.67485e-19)
(-0.133594 0.313397 -8.05036e-18)
(7.20135e-05 -4.13922e-05 7.63164e-19)
(0.000656597 0.00195675 2.01468e-18)
(0.0630253 -0.0293018 -3.22529e-20)
(-0.0161552 0.0151491 -1.19538e-18)
(-0.018716 0.00851381 8.78769e-18)
(8.1012e-06 0.00013882 1.01942e-19)
(0.000399401 1.64756e-07 -7.15684e-19)
(0.0265337 -0.000514707 -2.51053e-19)
(0.000362082 7.20249e-05 -7.53915e-19)
(-0.0352438 0.023884 3.15172e-18)
(0.000869996 0.00209269 -1.66198e-18)
(-0.00240665 -0.000747301 1.49099e-19)
(0.00113297 0.000522221 -2.01307e-19)
(0.000197253 -0.000245607 8.14741e-19)
(1.8646e-05 -4.51341e-05 -4.68442e-19)
(-0.158917 0.379958 -1.64506e-17)
(4.57013e-05 -4.42979e-05 7.26802e-20)
(0.276208 0.0777298 3.95853e-19)
(0.00204928 0.0985171 7.68255e-18)
(0.000319945 0.000677151 -1.24212e-18)
(-0.17684 0.169422 -2.53114e-17)
(4.84815e-05 4.84159e-06 -3.91422e-19)
(0.0085686 -0.00176529 -5.58269e-19)
(-0.00486334 -0.00274411 -2.20152e-19)
(-0.0649956 0.0215836 6.27231e-19)
(0.00060465 0.00196345 -1.18038e-18)
(0.0536196 0.0487383 -1.51249e-19)
(0.0430902 0.00266816 1.30657e-18)
(3.64763e-05 -1.59454e-06 1.052e-19)
(0.0638649 -0.032311 6.58564e-20)
(5.41786e-05 -4.19693e-05 5.42e-19)
(-0.164116 0.248966 5.1295e-19)
(0.000411844 6.60915e-05 6.56503e-19)
(0.000550857 0.000298435 -1.73624e-19)
(-0.233897 0.0165067 -8.6082e-18)
(0.0667459 -0.0130203 -3.36865e-19)
(4.95794e-05 -3.43543e-05 2.69229e-20)
(9.97365e-06 -2.35507e-05 2.63057e-20)
(0.00118474 -0.00100493 -2.67404e-19)
(4.61916e-05 -5.67248e-07 -8.3437e-19)
(7.95282e-06 0.000139961 2.06323e-20)
(0.0368207 0.0836105 4.2427e-18)
(0.13168 -0.0741948 6.79892e-19)
(-0.000141483 0.000275057 -8.95547e-20)
(4.43033e-05 3.57018e-06 4.00215e-19)
(5.93473e-05 -3.89408e-05 1.41264e-18)
(0.0978562 -0.120379 -7.63719e-19)
(0.0439206 -0.0403652 -1.57276e-18)
(0.0116753 -0.0185194 -1.37566e-19)
(7.31119e-05 1.70295e-05 -3.3871e-19)
(0.00710006 0.0161576 -4.2597e-19)
(0.000533153 0.000280441 6.94581e-19)
(0.000419986 -3.71119e-05 3.67101e-19)
(-0.000162838 0.00485341 2.69894e-18)
(0.0683978 -0.0473128 3.25828e-18)
(1.61411e-05 1.53334e-06 1.41635e-19)
(0.00161879 0.0154096 2.75153e-18)
(0.0684694 0.12132 1.79393e-19)
(-0.00233725 0.000246599 -2.29906e-19)
(0.0272441 -0.00534022 5.01881e-19)
(0.00010488 0.000228922 -6.97086e-20)
(0.00655693 -0.00232413 4.48638e-20)
(1.89485e-05 2.67294e-06 -3.18554e-19)
(-0.000102978 0.000237364 -9.28459e-20)
(0.00181316 0.00350192 1.46401e-18)
(0.000336766 -0.000207755 -7.61219e-19)
(0.00945902 0.0217756 1.59464e-18)
(-9.99006e-05 3.34351e-05 5.08539e-20)
(-0.117717 -0.126174 -5.19419e-20)
(1.60894e-05 -1.36712e-05 7.55862e-19)
(0.000981063 0.00222535 2.72128e-18)
(0.00727169 0.0356456 -1.24593e-18)
(0.00590251 -0.0512096 1.78523e-18)
(0.00494359 0.0154903 2.00447e-18)
(1.5421e-05 -3.52854e-06 -1.3041e-19)
(0.000146868 -0.000238993 -9.12671e-19)
(0.0226705 0.0459205 -2.83391e-18)
(0.0107314 0.0180107 4.2234e-19)
(-0.038448 -0.00650665 4.99903e-19)
(4.59305e-05 -7.67697e-05 8.92766e-19)
(0.000130937 3.49612e-05 -1.675e-18)
(-0.00325978 -0.00599229 -1.80847e-18)
(-0.0112047 -0.174105 -7.11126e-18)