/*--------------------------------*- C++ -*----------------------------------*\
| =========                 |                                                 |
| \\      /  F ield         | OpenFOAM: The Open Source CFD Toolbox           |
|  \\    /   O peration     | Version:  v2012                                 |
|   \\  /    A nd           | Website:  www.openfoam.com                      |
|    \\/     M anipulation  |                                                 |
\*---------------------------------------------------------------------------*/
FoamFile
{
    version     2.0;
    format      ascii;
    class       surfaceScalarField;
    location    "150";
    object      meshPhiCN_0;
}
// * * * * * * * * * * * * * * * * * * * * * * * * * * * * * * * * * * * * * //

dimensions      [0 3 -1 0 0 0 0];
oriented        oriented;


internalField   nonuniform List<scalar> 
27882
(
-4.44363e-05
-0.000104151
0.000147408
2.36727e-05
-0.000118342
9.41393e-05
1.15288e-05
-2.95184e-06
-1.33574e-05
-0.000152998
0.000107298
0.000401852
-2.25254e-05
-0.00038109
2.04315e-06
-2.53349e-06
3.58701e-08
0.000366399
-0.000340956
-3.25907e-05
0.000391743
-0.000154259
-0.000238214
2.54348e-05
0.000374436
-0.00034724
1.86767e-05
0.000327867
-8.67721e-05
-2.27063e-05
0.000108887
1.531e-05
-0.000249156
0.00023366
-0.000149077
0.000428744
-0.000280926
-1.66727e-05
-0.000300129
0.000315472
0.000414456
-9.49869e-05
-0.000328525
-6.42128e-05
0.000200915
-0.000147123
0.000246591
-0.000231444
-9.8487e-07
9.8487e-07
0.000147554
0.000258835
0.000452699
-0.000386887
-6.75244e-05
-3.36946e-06
-0.000268028
0.000270698
-0.000160927
3.62889e-05
0.000124625
1.79706e-06
-3.00433e-07
3.98298e-06
-2.26542e-07
-4.64871e-06
-7.11768e-05
-8.97606e-05
-3.46459e-05
0.000166344
-0.000131722
0.000242982
-0.00038529
0.0001422
5.16219e-05
0.000164829
-0.000216583
7.21467e-05
-0.000216685
0.000144414
5.50186e-06
-9.59896e-05
9.01256e-05
0.000194155
0.000121379
-0.000315528
0.00039234
-0.000149368
9.43104e-05
0.000296652
0.000126349
2.72813e-06
-0.000129088
0.000393581
-0.000128466
-0.000266323
0.000114654
-0.000109606
0.000214616
-0.000364867
0.000369307
-0.000393266
0.000333603
5.9664e-05
-5.87845e-06
-2.50749e-06
8.18275e-06
-1.06718e-05
0.000100034
-8.93427e-05
0.00040714
-0.000350803
-5.66783e-05
1.39182e-05
-0.000100717
8.64937e-05
2.91073e-05
0.000183087
-0.000214453
6.52212e-06
5.89236e-05
-8.0192e-05
-1.97892e-05
0.000293737
-0.00027402
0.000128918
0.000277564
-0.000105644
0.000239501
-0.000133994
0.000128447
-0.000101483
-2.69645e-05
-4.15493e-05
-0.00010154
0.000141999
2.28743e-05
-0.000110217
-0.000196614
3.5595e-05
0.00016101
-0.000145081
0.000102408
-3.28033e-05
0.000323405
-0.000292736
0.00015
-6.97968e-06
-0.000143049
8.37267e-05
0.00034346
4.15424e-05
6.25331e-05
-0.000105786
0.000356182
9.44406e-05
-0.000103105
-0.000143231
0.000246189
-8.37713e-05
0.000123381
4.35426e-05
-7.27285e-05
1.74232e-05
-0.000184013
0.000210821
0.000454449
-0.000194448
-0.000271988
0.000187271
8.4682e-05
5.25517e-05
-2.32602e-05
1.63898e-05
8.70311e-05
-0.000103426
-5.7794e-05
2.82155e-05
2.02945e-05
-1.72347e-06
3.07277e-05
-2.99933e-05
0.000225843
-0.000174364
-9.51577e-08
-9.50201e-07
-0.000125386
-7.12384e-05
-0.000193888
0.000168383
2.54814e-05
0.000409667
-0.000149607
-0.000265808
-0.000371519
0.000117088
0.000253198
-0.000229482
-9.3712e-05
0.000322921
0.000327077
-0.000132916
-0.000357068
0.000303143
5.38597e-05
0.000208378
-0.000239106
3.05592e-05
-0.000323553
-8.55997e-05
9.9202e-05
0.000112836
6.83267e-05
-0.000181228
-0.000302443
-9.08465e-05
-9.17829e-06
0.000217389
0.000337727
-0.000196307
-0.000141914
-2.93781e-05
0.000214972
-0.000187626
0.000114755
-0.000194107
7.93135e-05
-0.000140435
0.000320964
-0.000325754
-4.67583e-05
0.000282551
0.000171906
-5.31445e-05
0.000167862
0.000222444
-9.40186e-05
-0.000128428
4.28137e-05
-3.13919e-06
-5.51103e-05
0.000192483
7.34752e-06
-0.000199921
0.000104648
2.37992e-05
0.000298413
0.000104886
9.78204e-05
-0.00014727
4.25504e-05
-5.7416e-06
5.47391e-06
1.13736e-07
0.00015381
7.79464e-05
-0.000231926
3.43328e-05
0.000215718
-0.000250188
-0.000376303
3.43322e-05
0.000336046
-0.000224218
0.000204376
-7.92159e-05
-0.000212062
0.00029024
2.80628e-05
-3.07814e-05
-5.21765e-05
0.000142922
-9.45422e-05
0.000110926
-0.000212952
0.000209046
0.000111917
-0.000217686
5.67032e-05
0.000165741
-0.000416229
0.000158359
0.000257547
7.82813e-05
-0.00035651
0.000277393
-0.000232858
7.28685e-05
0.000148469
-0.000223123
-4.8896e-05
-0.000310096
-6.7646e-06
0.000314959
-1.52122e-05
-1.20106e-05
2.12669e-05
-0.000296264
0.000216114
0.000168862
-0.000272808
0.000103868
-0.000117996
0.000271599
2.05546e-05
-0.000106024
8.36335e-05
0.000272179
-0.000185818
-8.64275e-05
0.0002007
3.10973e-05
-0.000233775
3.2619e-06
2.73513e-05
-3.78067e-05
-0.000132301
-0.000224865
-0.000218397
0.000186977
0.000107775
-0.000155114
4.42425e-05
-7.54535e-05
0.000111558
-3.61046e-05
-0.00031635
0.000281441
-2.1689e-05
-0.000181849
0.000201008
-3.90411e-05
0.000143921
-0.000250443
0.000173372
7.69943e-05
-0.000104366
8.74342e-05
0.000136255
-7.24583e-06
3.02941e-05
-3.51843e-05
0.000169225
0.000141224
-0.000311047
-0.000146487
4.31273e-05
0.000103355
-6.79466e-06
8.00878e-07
3.2839e-05
5.24433e-08
-4.01289e-05
-0.000299067
0.000357131
-5.79571e-05
0.000161256
-0.000241226
7.76426e-05
0.000170708
-0.000256608
8.57967e-05
-0.000110418
0.000223177
5.45027e-05
-0.000366779
3.15959e-05
-0.000181291
0.000149374
0.000167589
7.16498e-05
-0.000239433
-7.00275e-05
-0.000346242
-0.000108885
3.34318e-05
0.000133591
7.78182e-05
-0.000211549
-5.79519e-06
-8.87519e-05
-0.000253588
0.00010819
0.000145318
-0.000113688
9.0383e-05
-0.000256099
0.000104211
0.000151863
0.000102358
-2.15603e-05
-8.07973e-05
9.31243e-05
-9.87981e-05
5.67369e-06
0.000381027
-0.000223574
-0.000159786
-0.000163684
0.00040575
-0.000243448
-8.11625e-05
7.04966e-05
6.41881e-05
0.000252074
-2.91717e-05
0.00022155
-0.00018304
-6.74677e-05
0.000220338
-0.000344493
0.000123612
-9.05351e-05
0.000148988
6.84831e-05
-0.000217464
0.000138421
-0.000162944
2.19725e-05
7.25412e-05
-0.000112501
3.99596e-05
-0.000108524
0.000102723
-7.57566e-05
0.000313647
-0.000237995
-2.74627e-05
0.000113755
-8.79508e-05
-1.40993e-05
0.000150016
-6.61223e-05
-0.000129873
0.000195994
-8.16472e-05
-2.2718e-05
4.70192e-05
0.000212818
-0.000259692
6.48564e-05
2.65131e-05
-9.13697e-05
6.54208e-07
7.19575e-06
0.000128157
8.86135e-05
-0.000216871
1.65095e-06
-1.65095e-06
0.00042606
-0.00026806
0.000296506
-8.01474e-05
-0.000220801
0.000338709
-4.6901e-05
0.000170771
-4.04025e-05
-0.000130392
-2.1442e-05
0.000147779
-0.000185345
0.000394895
-7.77283e-07
-2.67191e-05
2.6446e-05
-0.000375283
0.000321345
5.21924e-05
0.000176499
-2.65331e-05
0.0003201
-0.00028164
-0.000128712
0.00025621
-0.000127525
0.00012616
0.000144017
-0.000276846
3.36547e-05
-0.000130029
0.000143096
0.000196055
-0.000340249
7.45812e-05
3.00656e-05
0.000281612
-0.000336811
5.50486e-05
9.75435e-06
8.337e-05
-0.000192944
0.000311647
0.000352247
-9.95917e-05
-0.000252954
0.000367963
-0.000309377
-5.87611e-05
-5.60537e-06
1.82916e-05
-1.35485e-05
-0.00026393
-6.38307e-05
0.000326571
0.000160774
-0.000253506
9.26383e-05
0.000104465
0.000273113
0.000114617
-4.00375e-05
4.25282e-06
-9.853e-06
3.95079e-06
-0.000168551
0.000151575
1.52765e-05
-0.000101181
-8.19034e-05
-0.000326973
0.000329093
-2.4079e-06
-0.000175136
3.75105e-05
0.000126334
-8.38168e-05
-0.000160612
0.000108619
-3.60784e-05
0.0003123
-0.000103222
-0.000212804
-0.000293357
-8.83954e-05
5.83726e-05
2.12807e-07
4.55523e-06
-6.7247e-06
0.000239943
-4.6909e-05
-0.000193131
-2.28193e-05
-0.000147373
-0.000320274
7.10368e-05
0.000247184
0.000383918
-0.000102599
-0.000282737
-5.37553e-06
-5.17042e-07
-0.000102446
4.65201e-05
3.97275e-05
0.000210666
-2.65676e-06
-3.3461e-07
-0.000119817
3.06169e-05
8.89464e-05
0.000289667
7.80764e-05
-0.000180932
0.00015949
1.91699e-05
-9.92264e-05
0.000266601
-0.000188299
8.70676e-05
-0.00029359
-3.37417e-05
-1.21687e-05
3.85362e-07
1.16617e-05
0.000108799
-0.000338602
0.000166292
-3.69595e-05
-0.000129365
0.000200398
-5.14083e-05
0.000122672
0.000185947
-0.000149095
0.000114427
-0.000112091
0.00024553
0.000165945
0.000259823
3.30826e-05
-7.81284e-06
-5.32186e-05
0.000158817
-0.000114604
-0.000150289
-3.28802e-05
0.000339749
-0.000106631
-0.000233364
0.000116249
-8.98914e-05
-2.63583e-05
0.00015924
-0.000240296
8.09765e-05
-0.000224868
-0.000175752
0.000397425
0.000276696
-0.000164181
-0.0001246
0.000224951
0.000114491
-0.00025154
0.000154796
9.66189e-05
7.57636e-06
-1.01103e-05
-4.30404e-07
-0.000146122
-0.000110009
7.0354e-05
-0.000218394
0.000147986
-9.58678e-05
-9.0271e-05
0.000176532
0.000121177
-0.000163916
3.64166e-05
-0.000127736
3.14972e-05
9.47205e-05
-0.000127744
-0.000253899
9.15171e-05
-2.66611e-05
4.39771e-05
-0.00022172
0.000175206
5.29762e-06
-3.90294e-07
-4.95363e-06
-0.000179834
2.74777e-05
4.32985e-07
-1.17221e-06
4.4601e-07
-0.00015811
0.000242282
-8.42342e-05
-8.07203e-05
-2.98016e-05
0.000108813
-6.54813e-05
-0.000128427
-7.22883e-05
8.6069e-05
-2.71664e-05
2.73864e-05
0.000349948
0.000272464
-0.000280879
-0.000134214
-2.39169e-05
-0.000157789
5.33373e-05
0.000239118
0.000112904
-0.000116771
0.000261537
-0.000144859
-0.000278228
0.000161348
-0.000147542
1.05508e-05
-8.0934e-05
-0.00026939
4.35192e-05
0.000315683
1.54881e-05
-0.000334356
-0.000230739
-4.07503e-05
0.000271431
-0.00011522
0.000158838
-4.36302e-05
-2.06653e-05
0.000333519
0.000289419
-0.000125795
-0.000167797
1.54887e-05
-1.26568e-05
-3.00026e-06
9.92355e-05
0.00028339
-0.000197052
0.000349824
-0.000153393
1.9276e-08
-3.02746e-06
-8.74864e-05
-0.000235239
0.000238712
-0.000256458
0.000147767
-3.30788e-05
2.77212e-05
-3.79255e-05
-7.56544e-07
-0.000184742
-5.96245e-05
0.000232926
1.92149e-05
0.000101221
-0.000120441
0.000264079
9.13115e-05
0.000194345
-1.70374e-06
-5.11272e-07
2.09986e-06
-9.2208e-05
0.000246898
0.00017159
-6.32556e-05
-0.000114236
0.000112854
-1.13588e-07
4.99834e-06
0.000345864
-0.000109311
-0.000238132
0.000107524
-4.64467e-05
-1.68494e-06
1.05347e-05
-1.15113e-05
-1.0584e-06
5.79981e-06
-7.25233e-06
0.000134451
-0.000115582
-2.03402e-05
-1.78525e-06
-1.0429e-05
-3.72848e-06
3.0893e-05
-9.14046e-07
3.88066e-06
-0.00012618
4.71959e-05
7.89855e-05
-0.000339154
2.51128e-05
0.000313249
-5.25143e-06
-1.99145e-05
2.07075e-05
1.70308e-05
-2.67151e-05
0.000404722
-0.000205987
-0.000198689
-8.37434e-05
-1.79939e-05
0.000101175
1.53053e-05
-1.67449e-05
-0.000266476
0.000240881
2.42506e-05
9.87014e-05
-0.000312165
-0.000228993
4.2615e-05
0.000374551
-0.000292245
4.12341e-05
-0.000236882
0.000169359
0.000121167
-0.000290585
-9.59284e-05
0.000320221
-9.01702e-05
-0.000230212
0.000192053
-0.000120002
-0.000109699
0.000112417
1.15728e-06
-2.84705e-05
2.64519e-05
-9.77884e-05
-0.000182784
0.000280631
0.000109221
9.41952e-05
-0.00020347
-5.97888e-05
2.66809e-05
2.3432e-05
0.000211802
0.000108227
-0.000165794
0.000385576
0.000243656
-0.000139474
0.000208489
-6.59839e-05
-0.000150597
2.8376e-05
-4.69293e-05
-2.44807e-07
6.27667e-06
0.00022688
-0.000161184
-7.04059e-05
-7.76103e-05
0.000111547
-3.39367e-05
-0.000335314
0.000111809
0.000223164
5.687e-05
0.000264265
-0.000322482
-0.00016165
6.32474e-05
9.83996e-05
4.43551e-05
0.000155779
-0.00010977
2.63948e-05
-0.000110325
-2.81856e-05
8.62616e-06
0.000355656
-1.04774e-05
-0.000346916
-0.000200615
8.55972e-05
0.000113744
-0.000345229
0.0001903
0.000306022
-9.83614e-05
-0.000210984
-4.05727e-05
0.000393477
0.000417464
-0.000106439
-0.000313571
0.000232787
7.10306e-06
0.000147999
0.000256714
0.000236098
-7.65923e-05
-0.000303726
-0.000200307
0.000234509
0.000120014
0.000103055
-0.000264088
8.44906e-05
0.000179336
1.86001e-05
-0.000102877
-3.19122e-05
-9.83012e-05
0.000130204
8.93708e-06
-0.000159648
0.000150461
-0.000153237
-7.06402e-05
0.000223792
-0.000198782
0.000334573
-0.000108856
8.37703e-05
2.50853e-05
-0.000344124
-5.46276e-06
0.000349667
0.0003668
-0.000108731
-0.000258953
6.67095e-05
0.00034821
-0.000263256
0.000318751
-0.000130052
-0.000224932
0.000352425
0.000207973
-2.72402e-05
-9.43488e-05
-0.000354613
4.50217e-05
1.70784e-06
-0.000141766
0.000139764
0.000128957
0.000200511
-0.000329878
-0.000352039
-2.71784e-06
-0.000151221
0.000201335
-0.000274899
7.27835e-05
-0.000332315
-4.42038e-05
0.000117659
-0.00023584
1.47654e-05
0.000265487
-9.6708e-05
0.000423346
-0.000257717
-0.00015916
-0.00015645
0.000315463
0.000119906
-2.00462e-05
-0.000237055
8.37236e-05
4.28052e-07
-2.23059e-07
-0.000164441
6.13661e-05
0.00010307
-8.02813e-05
-8.60263e-05
-1.94083e-05
0.000104856
0.000135459
-0.000134039
-3.98763e-05
-2.67824e-05
-3.9272e-06
2.92987e-06
-0.000100957
0.000137235
-0.000133055
-0.000240223
5.1118e-05
0.000188696
-3.91941e-05
-0.000191607
3.39486e-05
-0.00033384
-0.000202051
0.00034313
-0.000265641
0.000144647
-0.000219523
-1.0624e-05
-0.000222246
0.000231958
-0.000117012
0.000409497
-0.000293691
2.41994e-05
0.000177096
-0.000203172
-2.88126e-05
2.56665e-05
0.000128384
-0.000260504
0.000312825
-1.26504e-05
-0.000306984
-1.45844e-06
1.93191e-05
-1.40097e-06
7.39059e-06
-9.04356e-06
0.000109434
-3.00008e-05
-8.0736e-05
0.00013741
0.000191881
-0.000329953
-0.000365612
0.00011508
0.000250595
-0.000191855
-0.000103151
0.000294576
0.000361274
-0.0001611
-0.000200144
0.000234236
0.000127068
-1.2625e-05
-8.45441e-05
9.71697e-05
-3.08015e-05
0.000227834
-0.000102687
-0.00012523
0.000104941
2.80145e-05
2.3607e-06
-4.57523e-06
1.47379e-06
-6.62016e-06
-9.43414e-05
-0.000300915
0.000289098
-0.000144445
-0.000243811
0.000384803
-5.00713e-05
0.000354995
-0.000125881
0.000243346
5.31835e-05
0.000278975
-0.000332992
7.70943e-05
-0.000108553
-2.97653e-05
0.00026258
5.1477e-05
-5.68157e-05
-0.000106339
-0.000233454
-5.29603e-07
-1.73546e-05
1.71816e-05
-8.3888e-05
-3.07841e-05
0.00011467
-0.000108916
-0.000128342
-9.15891e-06
5.5522e-06
-9.66825e-05
-6.49711e-05
-0.000188801
-3.4564e-05
0.000223282
3.36384e-05
5.45344e-05
-0.000105243
-0.000179698
0.000201981
4.16772e-06
-1.1969e-06
-4.31281e-06
0.000187337
0.000235976
4.97918e-06
-1.44776e-06
-5.66565e-06
1.00604e-05
-1.45042e-05
0.000213795
-0.000289653
-0.000246622
5.43971e-05
-0.000323077
5.97212e-05
0.00027301
-9.6782e-05
-0.000257764
0.00035409
-0.000324769
0.000365257
-4.14978e-05
-0.000214813
8.75385e-06
0.000206056
-0.000373967
0.000346555
2.66176e-05
2.36896e-08
2.6466e-07
-7.7821e-07
-7.74151e-05
1.7183e-05
-1.84792e-05
-0.000103294
-9.86463e-05
0.000152173
0.000199869
-0.000141122
-7.07624e-05
-0.000222006
0.000343396
-7.83611e-07
3.36452e-07
-8.44018e-06
-0.000317315
7.12522e-07
-1.50144e-05
9.8232e-06
0.000170277
9.51263e-05
0.000138795
-5.22271e-05
-8.76361e-05
2.49242e-05
0.000281737
0.000111672
-8.7182e-05
-2.44907e-05
-0.000102928
8.43695e-05
1.89866e-06
-1.68106e-06
-3.09446e-07
-7.24099e-05
0.000273019
0.000404102
-0.000157547
-0.000248589
-0.000136183
-5.03504e-05
9.04262e-06
-2.14205e-05
8.8892e-06
-6.32894e-06
4.56171e-05
-5.36675e-05
-0.000309809
0.000104508
0.000205175
-5.8308e-05
-9.91294e-05
0.00015744
-0.000316274
0.000350689
-3.69504e-05
-9.44593e-06
-0.00019922
0.000208353
-0.000239564
-0.000112542
3.92455e-05
0.000131503
-9.54734e-05
-3.39613e-05
0.000129484
0.000227385
-0.000157092
-0.000126153
3.08176e-05
-1.37561e-05
-7.8526e-05
9.05715e-05
9.82295e-05
0.000129522
-0.000110646
0.000254678
-0.000327523
7.23048e-05
-0.000253093
0.000346796
-2.56721e-05
-9.43234e-05
0.000182988
6.47132e-05
-0.000248777
0.000319483
-0.000266652
-4.568e-06
2.30076e-05
-2.24047e-05
-0.000100734
-0.000244819
8.19835e-05
-0.00017656
8.84626e-05
6.20378e-05
0.000125025
0.000134445
-5.79041e-05
0.000129375
-8.84651e-05
-0.000281423
-8.44746e-05
0.000364084
1.3764e-05
-1.86643e-05
-3.92956e-07
-7.20543e-06
-1.17114e-05
1.80553e-05
-0.000140184
-6.35921e-05
0.000203698
-4.67004e-05
2.70751e-05
1.00925e-05
-2.51738e-06
-1.0883e-05
-7.70589e-06
9.53853e-06
-1.97417e-06
0.000192214
0.000210369
0.000244024
-6.2015e-05
-0.000316496
4.7836e-05
0.000199255
0.000108438
-8.61332e-05
-4.06751e-07
3.60539e-07
-7.53527e-08
-0.000140845
0.000276027
-0.000135588
2.57279e-06
0.000137091
-0.000139705
-0.000129942
1.05633e-05
0.000119382
0.000114583
-0.000273896
-6.99233e-05
-4.74785e-05
7.48797e-05
-0.000280553
-0.000123568
6.52616e-05
-8.32421e-05
-2.80497e-05
-9.83422e-05
0.000125552
2.71765e-05
-0.000112672
0.000439009
-0.000164514
-0.000274798
-8.93132e-05
1.37557e-07
-5.28067e-07
3.96179e-08
-7.51592e-05
-0.000129177
0.000204336
-0.000416789
0.000312715
8.8862e-05
-0.000199351
0.000126365
-0.000155476
1.49629e-05
-0.000196426
0.000197434
-0.00020719
-3.93278e-05
-0.000131006
-0.000307705
0.000244521
5.89496e-05
-1.19064e-05
4.20149e-05
-4.68168e-05
4.92593e-08
1.3979e-06
-2.04446e-06
0.000315194
-0.000196387
6.32004e-05
-1.95924e-05
-0.000189407
-4.37913e-05
0.000233115
-2.15026e-05
-6.44711e-07
2.1099e-05
-0.000303006
0.000355239
0.000111883
-0.000351474
1.34893e-07
-1.86909e-06
-2.2421e-05
-4.78807e-08
-2.27329e-07
9.17783e-06
-2.86031e-05
-0.000270729
0.000298586
-3.5351e-05
-0.000260757
0.000295127
-0.000364335
-1.01202e-05
0.000302095
-0.000272321
0.00024191
3.96113e-05
-0.000214022
-0.000131476
0.000345014
-7.72392e-05
0.000331355
0.000185239
-0.000179345
-8.25759e-06
2.47949e-05
8.33274e-05
-2.41859e-05
0.000357946
-5.35094e-05
-0.000307556
2.52229e-05
0.00032962
1.64475e-05
-0.000112917
9.64703e-05
-0.000206607
7.78767e-05
0.0001139
2.73752e-05
0.000184858
9.23819e-05
0.000251341
0.000119297
-0.00018542
4.0763e-06
-2.22387e-05
-5.50361e-06
5.77597e-08
4.70545e-05
6.77409e-05
8.23028e-06
-1.61439e-05
-0.000245879
0.000187143
5.51476e-05
2.30608e-05
0.000159468
-0.000371935
0.00031493
5.46251e-05
5.34376e-05
-0.000239422
9.60537e-05
-1.69872e-05
0.000314207
-6.06581e-06
-8.2337e-07
-0.000187948
-0.000113501
0.000301201
-0.000161704
3.17659e-05
-5.48619e-05
-0.000262103
0.000314673
-0.000195778
0.00017172
9.95355e-05
0.000208926
-0.000313494
1.05511e-06
5.91087e-06
-0.000266746
0.000315162
-5.46852e-05
-4.24337e-05
-4.5931e-05
-0.000292189
0.000337117
-2.58868e-05
0.000108374
-8.29908e-05
-0.000132992
-0.000203743
0.00033505
-0.000307155
-5.40614e-05
0.000361315
-0.000189789
0.000284424
-0.000181326
-8.30193e-05
2.36925e-05
-8.25881e-06
2.88452e-06
4.02806e-06
9.63687e-05
-0.000208582
-2.89293e-06
2.73834e-06
-2.01501e-06
1.49738e-06
-0.000371294
0.000307091
6.42237e-05
-1.75083e-05
9.84398e-06
-0.000339736
7.47857e-05
0.000306582
-0.00017795
4.70062e-06
-2.34131e-05
1.46642e-05
-0.000303792
8.43869e-05
0.00021197
3.07277e-05
9.41507e-05
-7.53119e-05
-7.63224e-05
-0.000289304
0.00036405
1.82366e-05
-9.5355e-05
7.65259e-05
-2.50263e-06
1.02246e-05
-1.01887e-05
-1.23901e-05
9.04237e-06
0.000204986
0.000132422
0.000345233
-8.74507e-05
-0.000259058
0.000230835
-0.000267087
7.45917e-05
0.000217397
-0.000334561
2.72698e-05
9.40455e-05
3.76509e-05
0.000160684
-0.000121013
-4.55096e-05
-4.83427e-05
-7.78366e-05
2.60322e-06
-1.59958e-05
1.26124e-05
-5.99887e-06
4.24126e-06
-0.000267222
-2.70038e-05
0.00028825
-3.02407e-05
-9.76224e-05
0.000126934
-0.000242179
-9.48046e-05
0.000105938
0.00017912
-0.000285244
-0.000153773
0.000179006
-2.71402e-05
0.000255139
-0.000189182
-0.000223155
0.000278929
-5.57462e-05
8.04379e-05
0.000357641
0.000132387
-0.00017251
2.86067e-05
-0.000239455
-2.83214e-05
0.000351048
-0.00013913
-0.000212656
2.17808e-05
0.000300936
-0.000132171
4.88411e-05
0.000266442
-0.000317099
-0.000257469
7.60177e-05
0.000176719
0.000129615
-0.000161025
-0.000107243
-0.000139553
0.000246608
8.59639e-06
-1.3466e-05
-8.04242e-05
-0.000181344
-1.46773e-05
1.80761e-05
-0.000216304
0.000138239
7.28567e-05
-0.00031184
0.000268363
4.28007e-05
-0.000408224
0.000342238
6.54133e-05
-1.27449e-07
5.39567e-06
-5.27555e-05
-0.000265191
0.000312471
0.00044585
-0.000310254
-0.000137741
1.81431e-05
-0.000290057
0.000125139
-3.51054e-05
-9.64303e-05
3.07404e-05
-0.000334448
-0.000132879
-1.03921e-05
-0.000127384
-0.000142813
0.000269969
-5.53497e-05
-4.34483e-05
8.51846e-05
-6.87365e-05
1.1361e-07
2.66094e-06
-1.04446e-06
-3.78527e-07
9.09305e-07
-0.000362594
-0.000127999
-4.11457e-06
0.000131951
1.35516e-05
-1.17037e-05
9.65742e-05
-7.84879e-05
-0.000316193
-3.40398e-05
0.000345597
1.92484e-05
0.000272456
-0.000113849
-0.000158959
5.81148e-05
-3.7284e-05
-0.000293815
-0.000203318
-2.78812e-05
-7.54455e-05
-8.05138e-05
0.000149881
-2.3472e-05
0.000198644
-6.23889e-05
-0.0001219
0.000218139
-0.000213476
0.000243546
-3.01871e-05
-0.000248373
0.000317194
-0.0001577
9.74622e-05
0.000174641
-1.01154e-06
-4.66386e-06
-0.000226616
4.13198e-05
-0.000230768
-7.0931e-06
-0.000313343
0.000186836
2.37292e-05
-0.000212437
-0.000154131
0.000174941
0.000182199
1.58633e-06
4.32643e-08
-4.83442e-05
8.18214e-05
0.00026238
0.000339845
5.2508e-05
-2.2212e-05
2.36057e-05
-2.62157e-06
-0.000148046
0.000106214
4.18264e-05
8.41892e-05
-9.68133e-05
9.13198e-05
0.00027588
-3.36026e-05
-0.000148268
-7.07885e-05
0.000283658
7.14842e-05
0.000278637
0.00024816
-0.000315011
6.63661e-05
0.000395075
-0.000117036
-0.000278293
-0.000222431
0.000195604
2.6807e-05
-0.000376523
0.000289808
8.30004e-05
0.000195698
4.71733e-05
-0.000242899
5.63403e-06
-2.77054e-06
0.000116543
-0.000244129
-8.8619e-05
-5.7134e-06
2.4066e-05
-2.24495e-05
0.000306722
-4.91887e-05
-0.000257912
0.000233067
-0.000359359
0.000435043
-0.00023346
-0.000202373
-0.000324625
-4.89634e-05
-1.80929e-05
0.000370987
-0.000306532
2.22057e-05
-0.000240509
0.000382538
5.23789e-05
0.000225484
-0.000278296
0.000235649
-5.82164e-05
-0.000180423
-0.00017543
0.000286532
-0.000311076
0.000323418
0.000312062
-0.000185195
-0.000127377
-2.05427e-05
1.84682e-05
1.03772e-06
-4.26045e-06
5.71048e-06
-1.45645e-06
-0.000276047
0.00020512
-0.000120666
-9.94536e-05
0.000110066
3.2709e-05
9.14313e-05
-0.000130653
-0.000314853
-2.64712e-06
-0.000128928
0.000131298
-0.000181537
5.90423e-05
-0.000188147
0.000277711
-3.31776e-05
-0.000250127
-0.000360554
3.89211e-05
0.00031866
-0.000311915
0.000132921
0.000178715
-0.000344366
-9.87739e-06
0.000350491
-0.00012823
-6.335e-09
-0.000310283
5.76795e-06
0.000303695
-6.2357e-05
-1.50031e-05
-0.000315018
0.00032823
0.00023089
6.91713e-05
-0.000302486
1.43634e-05
3.15325e-06
7.05251e-05
-2.84486e-06
-1.8598e-05
0.000153644
-7.91213e-05
-0.000319972
-7.67764e-05
0.000170535
-9.37583e-05
-4.84852e-06
-4.53417e-06
0.000317004
-5.47784e-05
0.000226698
0.000207356
0.000147699
-0.000249343
0.000101656
-0.000287891
-2.26325e-05
0.000309736
0.000338539
-6.0226e-05
-0.000122671
5.42916e-05
6.83625e-05
-1.90574e-06
1.96107e-06
-1.12821e-06
0.000134901
-0.000137846
-1.08193e-05
-3.75254e-05
4.445e-05
0.000191731
0.000203015
-2.81409e-05
-0.00031864
0.000160783
0.000166292
-0.000329113
0.000102201
-0.000148015
4.58079e-05
-1.34218e-05
0.000148651
0.000179926
0.000361929
-0.000124689
-0.000240016
-0.000350253
0.00014842
-2.82672e-05
-0.000123569
1.16198e-05
0.000259373
-8.74138e-05
0.000117793
-5.51509e-05
0.000121456
-6.63042e-05
0.000168699
-1.60368e-05
-0.000154697
0.000117278
2.76924e-05
-4.95664e-05
3.49546e-05
-0.000265939
5.11227e-05
0.000290923
-0.00018518
4.78233e-05
0.000262916
-0.000312328
-3.8434e-05
0.000129059
-9.60167e-05
-0.000229815
-3.66077e-05
0.00026513
-0.000152424
0.000311212
-0.000384364
-0.000244364
-2.35486e-05
0.000150025
-2.94023e-05
-0.000242236
0.000395217
-0.000103701
-0.000291738
9.83817e-06
5.48312e-06
1.84282e-05
0.00013028
-0.000149398
-0.000356256
0.000249998
0.000100558
0.000365382
-0.000224845
0.000107784
3.05722e-05
1.80081e-05
7.81098e-05
-9.76843e-05
0.000225437
-0.000298603
-0.000318415
4.61596e-06
-0.000233306
-0.000179686
4.7843e-05
0.000118392
-0.00013934
3.43874e-05
0.000104948
5.71752e-06
3.96474e-05
-5.57809e-05
-0.000285881
0.000256189
-0.000365475
0.000279217
-0.00014109
0.000257418
-8.51315e-07
2.52967e-06
-4.65923e-05
0.000274332
0.000124091
-8.51137e-05
-3.91624e-05
-0.000253327
2.22922e-05
0.000328295
-8.06531e-05
-0.000144509
0.000149166
-1.2011e-05
-0.000145065
-0.000185661
0.000325583
0.00029496
-0.000179006
-8.72674e-05
6.14894e-05
-0.000142573
0.000162159
4.21232e-06
-6.74799e-05
0.000239063
-0.000181779
0.000395979
-0.00013008
-0.000268543
8.95498e-05
0.000269521
-0.000223635
1.82675e-05
-0.000325129
0.000262572
5.58267e-05
-3.20688e-05
-8.47441e-05
-0.000202006
-8.38782e-05
-0.000226671
4.27166e-05
-3.5604e-05
0.000157657
-0.000127597
-0.000177869
-4.05651e-05
0.000287801
-0.000129269
-0.000158833
0.000150005
9.36188e-05
-0.000184189
0.000148074
3.58807e-05
-0.000121366
6.62166e-05
0.000272848
3.42262e-05
-0.000313813
-0.000277204
0.000275222
-0.000393473
-0.00017682
0.000158606
-0.000163043
-1.37586e-05
0.000167702
5.72007e-06
2.25844e-05
-3.23577e-05
-1.59803e-05
-3.92118e-06
1.69639e-05
0.000115205
0.000253921
-6.3413e-05
0.000250649
0.000157296
-0.00015477
0.000167114
0.000227852
-1.23012e-05
-5.94804e-05
7.10172e-05
-0.000294004
0.000240349
4.82891e-05
3.40846e-05
-0.000248467
-0.000204383
0.000341038
-0.000333451
0.000223161
0.000110027
-1.15926e-06
3.71841e-06
-7.02232e-05
0.000310411
-0.000242376
9.41633e-05
-7.77221e-05
-9.50818e-05
-3.33879e-05
0.000128468
0.000291188
-0.000350297
5.89233e-05
0.000364364
-1.94084e-05
-1.73526e-05
2.88747e-05
-0.000129174
0.000107659
-0.000210422
0.00013092
-0.000113114
-3.03229e-05
0.000273818
8.49098e-05
-0.000358765
-0.000310993
-5.67604e-05
0.00036517
8.97463e-07
-1.36794e-05
1.42698e-07
-6.267e-06
-0.000137824
0.000116371
-0.000322234
0.00034928
-2.94112e-05
-3.69417e-05
3.59307e-05
-4.58189e-07
-0.000296788
0.000201083
9.55339e-05
0.000349599
-0.000284323
0.000221112
5.62827e-05
-8.73019e-06
8.29387e-06
-0.000343279
6.77577e-05
0.000274866
0.000210855
-0.000178539
-0.000303132
0.000254455
4.2082e-05
-0.000207967
-2.02195e-05
0.000215642
0.000311353
-4.93491e-05
-0.000265714
0.000404399
-0.000249367
-0.00016061
0.000349373
-0.000107801
-0.000243246
0.000118623
0.000222349
-0.000341528
0.000197848
6.75961e-05
-0.000270437
-0.000329649
5.39928e-06
-0.00037613
0.000316573
5.94362e-05
3.12816e-05
-0.000126365
0.000300997
-0.000159902
-0.000125704
9.98515e-05
-0.000153666
0.000118578
3.50699e-05
0.000270168
0.000101029
-0.000373019
-1.16319e-05
-0.000159971
0.000169863
-1.37994e-05
-0.000165077
-5.67077e-07
-9.04097e-08
-0.000370407
5.97067e-05
0.000309076
0.000355653
-8.71488e-05
-1.01637e-05
-2.68681e-06
1.01606e-05
-0.000375228
0.000318401
8.19288e-05
0.000265915
-0.000352195
5.06793e-05
0.000298707
0.000151687
-4.94954e-05
-0.000319138
0.000121444
-4.19966e-07
1.17946e-05
-1.41706e-05
-0.000292612
0.000337597
-4.78811e-05
-0.000357762
0.000282354
7.5485e-05
-0.00027539
-3.28195e-05
1.55891e-06
3.00965e-05
0.000111164
0.000136557
-0.00016726
0.000189671
-3.2611e-05
0.000301234
-0.000104137
-4.78249e-05
0.000272746
-9.44341e-05
-0.000218449
0.000306271
-0.000157154
1.17984e-05
0.000139119
0.000156042
-3.40131e-05
-0.000125484
-8.6187e-05
-0.000301845
-0.000191631
0.000246651
-5.51998e-05
1.30022e-05
-7.11192e-06
-0.000157217
-2.71629e-05
-9.45696e-05
-0.000131491
0.000229636
-0.000103809
0.000377592
8.35228e-05
0.000309993
-7.92875e-05
-0.000283136
0.000361367
-2.393e-05
0.000197511
-0.000362329
-0.000314473
-0.000310971
4.54854e-05
0.000261902
0.000161697
-0.000180209
1.84744e-05
-0.000234587
7.64199e-05
-0.000221977
-0.000131789
0.000351515
6.4515e-05
-0.000321586
0.000256954
1.92667e-05
-6.17806e-06
8.4183e-06
-3.73216e-06
0.000116022
0.000156057
-3.53728e-05
1.34887e-06
3.75836e-05
-6.59816e-05
-0.00024633
-0.000441162
0.000136194
0.000302592
-3.95672e-05
-2.72732e-05
1.96034e-05
-9.19556e-05
7.17271e-05
0.000149534
-2.76807e-07
-0.000156568
5.91798e-05
0.000173561
0.000192069
2.58803e-05
-9.36995e-05
-8.81122e-05
-0.000185931
1.32755e-05
-0.000165903
2.36838e-06
3.64565e-05
6.19033e-06
-0.00030166
-0.000152555
0.00016043
-9.60625e-06
-0.000187939
0.000306081
-0.000161744
-0.00013201
0.000219244
-4.0981e-05
-0.000178542
7.50852e-05
0.000167133
-0.000240603
0.000196723
-0.000237647
1.38553e-05
6.18664e-06
-2.10131e-05
0.000192033
-0.000292458
6.34238e-07
-0.000223068
1.42317e-05
-3.34108e-06
-1.64297e-05
0.000225489
2.13731e-05
-0.00025208
-9.67283e-05
-0.000196781
0.000292638
1.51997e-05
7.73711e-05
-0.000133181
0.000324484
-0.000315996
0.000346711
-3.31591e-05
-0.000309575
0.000337544
-3.13114e-05
-0.000344745
0.000278266
6.62489e-05
-0.000259516
0.000305538
-5.30991e-05
-0.000174813
0.000102797
-6.29834e-06
1.9196e-05
-7.33249e-05
0.000266616
-0.000154728
0.00042099
-0.000266356
0.00037319
0.000101847
-2.74828e-05
-8.47532e-05
-0.000273176
9.17582e-05
2.68991e-05
-0.000418646
0.000127939
0.000284486
0.000283668
7.89482e-05
-0.000363579
4.2102e-05
-0.000122658
-0.00031163
0.000213999
-0.000208602
-3.1832e-05
6.39745e-06
-5.95138e-06
-1.37211e-06
-0.000262743
0.000310568
-4.80503e-05
-3.31989e-06
0.000203532
0.000260214
4.84913e-05
6.75743e-05
0.000333708
-0.000142411
-0.000136023
-0.000307712
-0.000272956
3.65898e-05
0.00023621
4.02165e-05
-1.26447e-05
-7.46767e-05
-0.000128208
0.000195041
-0.000346941
0.000289369
5.65204e-05
-8.01927e-05
2.94925e-05
-0.000221256
-0.000301516
0.000362165
-6.21621e-05
-7.05676e-05
8.95463e-05
-7.03229e-05
-2.38911e-05
9.42136e-05
-0.000287733
0.000125782
-1.19621e-05
1.89782e-06
9.33038e-06
2.11938e-05
2.87867e-05
-8.78848e-06
-0.000204414
0.000129256
-6.91916e-05
0.000143822
-2.68422e-05
0.000155169
-0.000364708
4.61673e-05
-6.83805e-05
-5.9947e-05
-0.000255785
7.22347e-05
0.000178506
0.000258006
-0.000110303
7.40224e-05
-0.000169864
-5.37619e-05
-6.47528e-05
-0.000129396
5.44733e-06
-2.42274e-05
-1.38547e-05
1.53435e-05
-2.05636e-06
2.13567e-05
-0.000294334
0.000251753
0.000198344
-0.000331952
-0.000313821
0.000302501
-0.000159291
0.000309037
1.36989e-05
3.69959e-05
-6.07487e-05
-3.46275e-05
-0.000149435
2.08408e-05
-0.000283514
-0.000294777
0.000227269
6.03755e-05
-0.00011376
-3.99223e-05
-0.000215253
-5.97467e-06
0.000215603
-9.07966e-05
0.000326049
-0.000236347
0.000188857
-0.000152608
-2.22606e-05
-0.000197094
-0.000209107
0.000126544
-7.76873e-05
-0.000182752
0.000139738
0.000147726
2.79208e-05
-0.000330932
-0.000204963
0.000351345
-0.000146915
-0.000121047