/*--------------------------------*- C++ -*----------------------------------*\
| =========                 |                                                 |
| \\      /  F ield         | OpenFOAM: The Open Source CFD Toolbox           |
|  \\    /   O peration     | Version:  v2012                                 |
|   \\  /    A nd           | Website:  www.openfoam.com                      |
|    \\/     M anipulation  |                                                 |
\*---------------------------------------------------------------------------*/
FoamFile
{
    version     2.0;
    format      ascii;
    class       surfaceScalarField;
    location    "150";
    object      phi;
}
// * * * * * * * * * * * * * * * * * * * * * * * * * * * * * * * * * * * * * //

dimensions      [0 3 -1 0 0 0 0];
oriented        oriented;


internalField   nonuniform List<scalar> 
27882
(
0.51598
-0.367971
-0.148009
0.507452
-0.230207
-0.277245
0.271671
-0.53269
0.261024
0.165562
0.35042
-0.224034
0.347094
-0.123058
-0.425879
-0.102065
0.527944
0.185536
0.188054
-0.373583
0.119034
-0.330522
0.21149
-0.338871
0.114839
0.248513
-0.372135
0.123624
0.387716
-0.551446
0.163731
0.514281
-0.127932
-0.386348
-0.362499
0.0950557
0.267445
0.332711
-0.16546
-0.167249
0.105039
-0.430699
0.325669
-0.428684
0.148115
0.280579
0.101475
0.412805
-0.313293
-0.168093
0.381997
-0.27695
0.176305
0.137335
-0.313639
-0.475958
0.282825
0.193134
0.0262235
-0.10352
0.0772966
0.0867711
-0.512649
-0.333569
0.539973
-0.206403
0.0931285
-0.066905
0.165499
-0.0798421
-0.0856565
-0.313484
0.0968914
0.216592
0.244249
-0.154821
-0.0894271
-0.189484
0.035266
0.154219
0.509572
-0.385696
-0.123875
-0.150376
0.227478
-0.0771026
-0.138185
-0.175299
0.307056
-0.188019
0.0645628
-0.093251
0.0286881
-0.167996
0.335229
-0.167231
0.233003
0.276569
-0.275741
-0.0867571
0.1791
0.180298
0.0679016
-0.248199
0.394618
-0.476345
0.0817276
0.50777
-0.375396
-0.132374
-0.18801
-0.162824
0.350837
0.475998
-0.186646
-0.289352
0.468841
-0.335814
-0.133024
0.520802
-0.36188
-0.158908
-0.182122
0.113323
0.0687993
-0.33511
0.147102
-0.194304
0.0297769
0.164527
0.00664363
-0.00426172
-0.00238191
0.510744
-0.358391
-0.152352
0.558798
-0.171082
-0.00348445
-0.0458327
0.0493172
0.188808
0.321937
-0.394303
0.170128
0.224177
0.0687573
-0.127834
0.0590764
0.361946
-0.266889
0.484452
-0.461897
-0.0225531
-0.155525
0.331832
-0.192088
0.170776
0.0213123
0.365803
0.118651
0.489243
-0.0789192
-0.410312
0.334145
0.134698
0.140256
-0.220446
0.0225462
-0.177868
0.155322
0.0242162
0.465041
0.0632651
-0.040997
-0.0222681
-0.0180115
0.401976
-0.383955
0.625029
-0.298855
-0.326173
0.0603974
0.183851
-0.544484
0.231192
-0.0432387
0.0397543
0.0394583
0.0762246
-0.115683
0.144909
-0.399056
0.254153
0.163868
-0.281426
0.117559
0.228963
-0.269025
0.0400622
0.00819349
-0.158569
-0.000596696
0.178698
-0.178102
-0.352158
-0.0297613
0.381919
-0.0903572
0.372604
0.103394
0.143902
-0.147571
0.00366972
-0.0611002
0.241398
-0.322275
-0.0298827
0.00698071
0.20723
-0.21421
-0.542147
0.260907
0.281243
-0.124985
0.0195104
0.105474
0.196836
0.0543394
-0.138432
0.302301
-0.0909496
0.231205
-0.133758
0.00877319
0.040044
0.00650266
-0.0465466
-0.350084
0.509225
-0.159125
0.14351
-0.158037
0.0145275
0.00386686
0.00277676
-0.248968
0.393885
0.523188
-0.101315
-0.421866
-0.339209
-0.134569
0.473778
0.182284
-0.170413
-0.0118712
0.374778
-0.381787
0.00700918
0.178872
-0.380664
0.201798
-0.126587
-0.0555349
0.325229
-0.226262
-0.0989664
0.315787
0.309244
0.428819
0.0943754
0.0281344
0.0351307
-0.338846
-0.137112
-0.157778
-0.0365257
-0.00876682
0.0488108
-0.172919
0.264419
-0.0915003
0.463474
-0.232734
-0.230738
-0.138343
0.441785
-0.30343
0.156003
-0.133457
0.284113
-0.47194
0.187829
0.476683
-0.473103
-0.00357366
0.117695
0.207535
-0.175002
0.0290286
0.145973
0.182158
0.000126645
0.554748
-0.263677
-0.29107
-0.0282906
0.17066
-0.142369
-0.345268
0.493247
-0.147977
0.550865
-0.387081
-0.163777
0.150739
-0.151335
-0.209042
-0.333103
-0.50813
0.0745423
0.43359
-0.0194534
0.00915759
0.0102958
-0.22329
-0.171011
-0.503747
0.342394
0.161356
-0.421795
-0.0863314
-0.0688507
-0.0979946
0.166845
0.00502272
-0.000303585
-0.162311
-0.526621
0.274686
0.251947
-0.233123
0.242103
-0.00897925
-0.0104099
-0.013415
0.0238249
-0.141758
0.536375
-0.352306
0.481491
-0.129178
0.130583
0.0941755
-0.224759
-0.404541
-0.0631398
0.467683
-0.195872
0.0300716
0.1658
0.136483
0.00741855
0.434927
-0.150812
0.521015
-0.188643
-0.332371
0.20082
-0.1863
-0.01452
-0.257135
0.0842162
-0.0111816
-0.00827182
0.172914
-0.162596
-0.0103183
0.0522241
-0.0240896
-0.0370835
0.160798
-0.123715
-0.214551
-0.336895
0.0255006
0.126565
-0.152066
-0.00554221
0.0139991
-0.00845689
-0.00161172
0.00250213
-0.000890414
0.0538413
-0.258574
0.204736
-0.373276
0.100269
0.273009
0.261327
0.246443
0.120868
-0.140127
0.15835
-0.01484
0.0698956
-0.138746
-0.230333
-0.0341098
0.264443
0.292901
-0.0224529
0.0584024
-0.0359495
0.355056
0.0306818
-0.385736
-0.00486076
0.00324636
0.0016144
0.0185783
0.0336458
-0.16497
0.0983215
0.0666488
-0.547358
0.247181
0.300178
0.41401
-0.0589513
-0.0562937
0.0279268
0.0283668
-0.00291576
0.00793848
0.453564
-0.455064
0.00150094
-0.00658127
0.00260679
0.00397448
0.408028
-0.136353
-0.173318
0.177479
-0.00416121
-0.171147
-0.249446
0.170393
0.0940263
0.135483
-0.392071
0.256592
0.142156
-0.391117
0.0778252
-0.139977
0.0621518
0.0899312
-0.0253683
0.229505
0.0470348
0.519921
-0.24475
-0.27517
-0.132279
-0.176329
0.308609
-0.0568394
0.125597
0.14194
0.165034
-0.120561
-0.019236
0.139797
0.421486
-0.316829
-0.104651
-0.323151
-0.0625448
0.354967
-0.292812
-0.0621541
0.00137156
0.0024953
-0.0860022
-0.0828961
0.168898
0.0021666
-0.00377832
0.277867
0.143627
0.057787
-0.17415
0.116363
0.199449
0.0129308
-0.21238
-0.538852
0.219443
0.319411
0.235894
-0.314799
0.0789063
-0.172545
0.0200005
0.152544
0.317294
-0.263449
0.00439603
-0.00302446
-0.493812
0.0768822
0.416932
-0.19213
-0.256242
0.448374
0.202857
-0.132961
-0.151417
-0.0420479
0.193466
-0.14792
0.427587
-0.279656
-0.4017
0.263368
-0.0021678
-0.00269296
0.0933561
-0.364298
0.270945
-0.0380464
0.00355247
-0.00175755
0.554378
-0.375415
-0.178961
-0.108719
0.151364
-0.0426448
-0.465236
0.273108
-0.135835
0.426247
-0.290408
0.107354
-0.326491
0.219139
0.163811
-0.503019
0.00239916
0.390219
-0.392602
0.0496306
0.341681
-0.443746
-0.0890692
0.443995
-0.354926
-0.0572445
0.256694
-0.171333
-0.280863
0.452198
0.18095
0.0198707
0.0565309
0.146326
0.0369283
-0.188346
-0.376328
0.4119
-0.0355717
0.248417
-0.0194533
-0.0665506
0.128119
-0.0615681
0.0353603
-0.0578132
0.34543
-0.25207
0.0590566
0.106442
0.156838
0.0160762
0.267599
-0.097206
0.0619635
-0.414262
-0.483103
0.147635
0.335478
0.276299
-0.44763
0.0516224
-0.198258
0.146636
0.00627232
-0.00500908
-0.00126325
-0.169139
0.00799628
0.161143
-0.342758
0.262344
0.0804156
0.102149
0.322952
-0.42509
-0.140737
0.192359
0.0252984
-0.214188
0.18889
-0.342041
-0.169945
0.51199
0.141296
-0.115795
0.188717
-0.0480477
-0.14067
-0.477658
0.342091
0.135577
-0.261966
-0.199487
0.461459
-0.204441
0.495969
-0.291527
0.370873
-0.191996
-0.00357635
-0.00300492
0.515535
-0.252171
-0.263362
0.359865
-0.560081
0.200216
-0.171027
0.447329
0.462966
-0.0731538
-0.389812
0.160438
-0.0109411
-0.149497
0.379877
-0.572839
0.192964
0.119767
-0.0803086
-0.396562
-0.0277803
0.424356
-0.255034
0.0114743
-0.235125
-0.236813
-0.362835
0.43738
-0.102252
-0.375397
-0.122653
0.18044
0.176052
-0.0944102
-0.081642
0.0531441
0.122908
0.0289435
-0.391776
-0.170573
0.0672904
-0.325862
-0.22691
0.357209
-0.130297
0.159388
-0.158337
-0.00105149
-0.0579013
-0.00220882
0.0601101
-0.354094
0.127187
0.0877977
-0.332104
0.24431
0.123179
0.349584
-0.472762
0.316711
-0.209355
0.217647
-0.0304054
-0.187241
0.492471
-0.15079
-0.420963
0.28513
0.161161
0.171551
0.200156
-0.462115
-0.311712
-0.176163
0.487885
-0.434258
0.379457
0.0548113
-0.0382136
0.0290815
0.00913203
-0.245156
0.355986
-0.268184
0.397117
-0.43551
0.0383935
-0.156375
-0.0578127
-0.152132
0.378821
-0.226683
0.276694
-0.438902
0.0968635
0.0948512
-0.292913
0.198063
-0.121895
-0.34
-0.534127
0.258669
0.275461
-0.558191
0.262884
0.29531
0.207895
0.250949
-0.458842
-0.473819
0.097491
-0.438078
0.0880096
-0.454036
0.120467
-0.0127085
-0.0133336
0.0260421
0.115551
-0.233834
0.118283
-0.597501
0.338331
0.259175
-0.392802
-0.204694
0.0424197
-0.184195
0.141775
0.302381
-0.474761
0.17238
0.280359
0.239562
-0.159185
-0.245074
0.40426
-0.301927
-0.0369184
-0.0937731
0.42792
0.123517
0.23843
-0.405431
-0.0288163
-0.169369
0.113514
0.0558557
-0.142473
0.0542644
-0.161131
0.106867
-0.0846629
-0.104821
-0.0459034
-0.0473476
-0.61592
0.299649
0.316272
0.229301
-0.204164
-0.025137
-0.190749
0.164543
0.0262057
0.0404191
-0.424771
0.384361
-0.119403
0.173667
-0.212856
-0.0174759
-0.0316926
0.158258
0.161039
-0.458987
0.297956
-0.300132
0.00327663
0.435136
-0.119331
0.0623848
0.340706
-0.403086
-0.0137864
0.00745288
0.00633357
-0.0323857
0.187824
-0.155438
0.417045
-0.291169
-0.125874
-0.0187805
-0.004142
0.0229225
0.448434
-0.287387
-0.167479
-0.365909
-0.0306407
0.120894
0.355793
-0.198118
0.316915
-0.118794
0.0452701
0.326721
-0.37199
-0.0843847
-0.246135
0.155595
-0.410858
0.255267
-0.298847
0.100731
-0.172705
0.269614
-0.0969076
0.051509
-0.129204
0.192951
-0.150531
-0.0799144
-0.324625
0.0451066
0.340572
0.0342057
-0.267437
0.329825
-0.0287869
0.175278
-0.146491
0.47449
-0.172108
0.104535
-0.0756461
-0.0288892
0.538237
-0.177773
-0.360464
0.176824
-0.155304
-0.0215198
-0.417342
0.100521
-0.00474474
0.00454094
0.000203801
0.25887
-0.248997
-0.00987286
0.106471
-0.33048
0.22401
-0.273263
0.10056
0.296177
0.12087
-0.410116
0.301213
0.108905
0.139224
-0.475036
-0.149139
-0.230926
0.243857
0.547031
-0.219439
-0.327591
0.222233
-0.181699
-0.0405337
-0.0239005
-0.207025
-0.141003
0.229731
-0.020795
-0.208936
0.153627
-0.285905
0.189127
-0.00696881
0.0020106
-0.0356817
-0.13932
0.103871
0.163728
-0.18409
0.187133
-0.0030431
0.0970506
-0.472447
0.0230999
0.153724
-0.0145696
0.477536
0.0082929
-0.0464513
0.0381584
-0.135078
0.35257
-0.503021
0.150451
0.219732
0.327299
0.378147
-0.39615
0.223092
0.316882
-0.0697128
-0.0338072
0.318798
-0.22377
0.405544
-0.181773
0.176165
-0.0167764
-0.00462886
-0.0731418
0.325631
0.187717
0.275757
-0.281825
-0.146847
0.301367
-0.197525
-0.103841
-0.356014
0.159174
0.196842
0.461152
-0.296571
-0.164579
0.284965
0.265906
-0.374793
-0.0353211
0.266981
-0.407652
0.140678
-0.421293
0.109592
-0.534041
0.294618
0.239426
0.158207
-0.487885
0.329679
0.258785
-0.251402
-0.00738212
0.20899
-0.243599
0.0346097
-0.212278
0.188153
0.0241262
0.0587022
0.122158
-0.18086
0.186387
-0.127684
0.0271743
-0.0259227
-0.00125165
0.239649
0.0171599
-0.163254
0.146094
-0.26761
0.475506
0.430428
-0.0356545
-0.394773
-0.388656
0.202011
0.15882
0.142548
-0.34511
0.212167
0.132942
-0.265804
0.1745
0.178161
0.0109661
0.408773
-0.306928
-0.101845
-0.373191
-0.199647
0.133974
-0.0824651
0.284735
0.236079
0.212003
-0.096451
0.558478
-0.288181
-0.270297
-0.00287381
-0.00114663
0.00402045
-0.116225
0.343242
-0.206218
-0.351971
-0.00592131
-0.0128592
0.1322
-0.148339
0.0161391
-0.504334
0.402457
0.101894
0.316729
0.144425
-0.252132
0.469317
-0.217183
0.224303
-0.120432
0.221617
-0.51296
0.291345
-0.356492
-0.177632
-0.0869544
-0.0780156
-0.0140928
-0.198185
-0.0827656
0.384322
-0.24216
-0.309815
0.208868
0.100949
0.16443
0.0766458
-0.241075
0.169579
-0.155434
-0.0141453
-0.179138
-0.179315
0.358453
-0.608033
0.35995
0.248084
-0.0327041
0.22573
0.332748
-0.312781
0.358052
0.0436759
0.121784
0.294234
-0.416006
0.0903588
0.13712
-0.241942
-0.36609
0.257467
-0.0930361
0.526458
-0.228954
-0.297499
-0.18863
0.152948
0.198025
-0.496869
0.298844
0.353576
-0.0865894
0.00635022
-0.00703921
0.000688998
-0.142452
-0.332309
0.127462
0.373156
-0.500618
0.19244
0.0372915
-0.004673
-0.294088
0.298764
0.285746
-0.433656
-0.464946
0.0822897
0.38266
0.503397
-0.324207
-0.179175
-0.0236143
0.160818
-0.137203
-0.0511292
0.00290022
0.048229
0.214083
0.0751486
-0.289228
0.238901
-0.115368
-0.123533
0.195277
-0.219177
0.14051
-0.0626852
0.341861
-0.372401
0.0305396
0.0100374
0.17868
-0.0716227
0.413484
-0.509473
0.331016
0.178458
0.161309
-0.144149
-0.173122
0.243787
0.012867
-0.256654
0.220107
0.0869513
-0.462921
0.373852
0.385716
-0.371978
-0.0137375
0.1374
0.29753
-0.514268
0.217916
0.296356
0.310423
-0.122365
0.457551
-0.12056
-0.336985
0.431036
-0.30924
0.0800322
0.377524
0.0110421
0.33433
0.241112
-0.357811
0.116699
-0.317264
-0.15842
0.47569
-0.543564
0.364862
0.178703
0.126528
-0.142382
0.0158541
-0.152373
-0.374235
-0.259416
0.455382
-0.195962
0.357914
0.126093
-0.484007
0.240008
-0.244679
0.0261757
0.359542
-0.19256
0.475385
-0.2087
0.161504
0.397295
0.346955
0.0352324
-0.382188
-0.200451
0.0246641
0.175787
-0.156159
0.106562
0.049597
-0.0627992
0.0461789
0.0166203
-0.215206
0.031116
0.3859
-0.383485
-0.356425
-0.0609099
-0.0422973
-0.00883189
-0.0145519
0.506129
-0.31203
-0.194098
0.508017
-0.142212
0.084244
-0.338063
0.25382
-0.0196353
0.524578
-0.137043
0.483998
-0.0672898
0.0558867
0.0114031
-0.140729
-0.18576
0.145132
-0.00864855
0.194535
0.311595
0.491394
-0.174663
0.109285
0.129616
-0.457598
0.258118
-0.133056
-0.255736
0.388797
-0.504966
0.217017
0.287965
-0.530241
0.309326
0.220915
0.0460635
0.29937
0.0805264
-0.442391
0.272514
-0.363186
0.0906716
0.266346
-0.439035
0.17269
0.339666
0.0691079
0.222923
-0.0276463
0.492746
-0.119589
-0.163645
0.429992
-0.423666
0.106406
-0.251065
0.186036
0.0650293
0.342616
-0.143717
-0.198898
0.0880531
-0.267191
-0.248655
-0.132005
0.0255193
-0.111521
-0.18063
0.226811
-0.04618
0.232972
0.0108159
0.296016
0.100827
-0.396841
0.46919
-0.310982
-0.472049
-0.18796
0.272772
-0.0848101
-0.290969
0.103011
-0.0304393
-0.00795605
0.0383953
0.0213333
-0.141894
-0.247149
0.447311
-0.286037
0.285689
-0.190836
-0.0175781
-0.0387156
-0.532728
0.244548
-0.284315
0.448126
0.357083
-0.346026
-0.42945
-0.114113
-0.135154
-0.254826
0.389983
0.451861
-0.155843
-0.124679
-0.187624
0.312305
0.433872
-0.000325169
0.171101
-0.376713
0.128065
0.335567
-0.477325
0.191758
-0.202617
0.0108596
-0.0284259
-0.0343733
-0.424961
0.292523
0.132439
-0.216923
-0.286822
0.428174
-0.269806
-0.158364
-0.393841
0.134428
0.270293
0.119598
-0.389883
-0.408406
-0.438415
0.313115
0.125301
-0.481512
0.150385
0.331127
-0.30729
0.220702
0.0865891
0.178469
-0.331747
0.153278
0.293191
0.134988
0.139796
-0.168583
0.481621
0.0570973
-0.401328
0.344232
0.160608
-0.00376953
-0.209958
-0.334527
-0.232782
-0.297458
-0.193782
-0.135373
0.329154
-0.110346
-0.422339
-0.013607
0.249502
0.0447533
0.17748
0.503144
-0.133434
-0.369706
-0.125409
0.389808
-0.264392
0.00152221
0.222647
0.332103
-0.349352
0.215777
0.133575
0.475159
-0.184751
-0.290407
-0.518762
0.165662
0.353102
0.249549
0.276913
-0.190669
0.197651
0.0825899
-0.293216
0.210627
0.212878
0.129739
0.388375
-0.252888
-0.156341
0.334811
-0.339766
0.441682
0.159561
0.302634
-0.46219
0.0161718
-0.0288803
0.490327
-0.216606
-0.27372
0.27587
0.27851
0.24602
-0.38294
0.136925
0.500256
-0.349838
-0.150417
0.0892143
-0.17211
0.226171
-0.165822
-0.0603495
0.285284
0.161998
-0.44728
-0.172857
0.284207
0.151925
-0.0271126
-0.124813
0.331249
-0.247004
-0.272324
-0.160756
0.433091
0.258382
-0.417566
0.0555076
-0.227861
0.172355
0.00134114
-0.0705722
-0.162551
0.43294
-0.30958
-0.123359
0.0830264
-0.350271
0.267249
0.248207
0.25205
-0.176384
0.168279
0.00810593
-0.337708
-0.181051
0.34024
-0.257209
-0.359971
-0.172756
-0.0459509
-0.340941
0.386897
-0.0721175
-0.155305
0.227423
-0.134133
-0.183713
0.317847
0.515013
-0.155148
-0.316647
0.300221
0.132721
0.123394
0.21723
-0.340622
0.385286
-0.13926
0.183931
-0.482895
0.29897
0.436531
-0.0968644
0.0348225
-0.118431
0.173883
-0.195011
0.0211277
0.000607857
0.00189428
-0.000154412
-0.0302849
-0.390448
0.138317
-0.434269
0.48397
-0.0497007
-0.00562535
-0.393346
0.374986
0.0183598
0.195122
0.295205
0.160969
0.313521
0.241348
-0.36725
0.125907
-0.146597
0.0182639
-0.187197
0.168933
-0.130914
-0.373407
-0.0768848
0.367397
-0.461168
-0.445336
0.315734
0.129608
-0.464797
0.168228
-0.313447
0.153544
0.00706373
0.126248
0.269511
-0.395758
0.271041
0.155208
0.220835
0.146445
-0.174736
-0.469708
0.185393
0.012323
0.38973
-0.117215
0.368459
-0.127109
-0.330177
0.484401
-0.154223
0.298615
0.233847
-0.139672
0.232727
-0.403874
-0.118024
0.299505
-0.216913
0.0952981
-0.233483
0.289124
0.159292
-0.448415
0.0138385
0.0451959
-0.0590345
0.0300353
-0.00286094
0.320961
-0.214488
-0.444751
0.273726
-0.247954
-0.20711
0.254984
-0.199475
-0.192163
-0.0837604
0.275923
0.0604207
-0.236494
0.176074
0.168475
0.00175291
-0.170228
-0.106194
-0.225403
0.331601
-0.334504
0.368426
-0.0339219
-0.0879276
-0.405883
0.186279
-0.0123957
-0.138052
-0.494738
0.204741
0.290001
0.0755497
-0.193769
0.11822
-0.0784364
-0.108241
-0.0719449
-0.16499
0.236936
0.141406
-0.266084
-0.17399
-0.134975
-0.138286
0.448976
0.238809
0.116159
0.263258
-0.17996
-0.0832974
0.152931
-0.402803
0.249874
0.175474
-0.170692
0.216648
0.140564
0.0244725
0.162433
-0.186905
0.298328
0.13534
-0.433667
0.362062
0.101029
-0.463091
0.150007
0.229462
-0.316275
0.270328
0.12206
0.487005
-0.311062
-0.175937
-0.119748
0.514281
-0.232055
-0.282225
-0.0258373
0.149078
-0.0119029
0.208601
-0.326814
0.11822
0.233906
-0.356887
0.122985
-0.0388546
0.204694
-0.165839
0.238609
-0.362196
0.123591
-0.00941818
-0.383927
0.166057
-0.243736
0.0776795
-0.296252
0.291518
-0.124255
-0.167262
0.33821
-0.346021
0.00781548
-0.262694
0.482138
0.0632871
0.433246
-0.134918
0.0239261
-0.134218
-0.0777833
0.020939
0.0165617
-0.0375007
-0.289961
0.347059
0.133232
-0.4244
0.166643
-0.238587
-0.139739
0.0515896
0.0881495
0.170551
-0.243396
0.0728459
0.106364
-0.413291
0.128988
-0.383637
0.254649
-0.445373
0.000980234
0.444394
0.195841
0.31844
-0.473483
0.311968
0.161519
0.248101
-0.18768
0.354948
-0.116336
0.319511
-0.233021
-0.0864871
0.057711
-0.0241615
-0.0335495
0.545463
-0.325731
-0.299539
0.148352
-0.335944
0.187595
-0.0897052
0.130771
-0.409098
0.278331
0.374404
-0.165796
0.384946
0.0590497
-0.0364397
0.030463
0.00597663
-0.292518
0.45827
-0.165749
-0.271645
0.402419
-0.161121
-0.312358
0.0595486
0.110031
0.0394106
0.186761
0.410526
-0.280111
-0.130414
-0.458559
0.140679
0.317885
0.258984
-0.404281
0.145298
0.232043
0.0874702
-0.120183
-0.0122979
-0.411548
0.162684
-0.434997
-0.0140606
-0.0201639
-0.269116
0.289281
-0.328564
0.451743
0.46317
-0.295361
-0.167808
-0.102318
-0.23369
0.336013
0.0466464
0.195458
-0.28493
0.447627
0.496563
-0.331454
-0.165108
0.211777
-0.0193373
-0.132621
0.349272
0.00177682
-0.130581
0.431712
-0.301118
-0.00376088
-0.0221226
0.0258835
0.507876
-0.356092
-0.151773
-0.0677757
-0.00355905
-0.109687
-0.248124
0.169772
0.0165078
0.482538
-0.0521098
0.349951
-0.0117393
0.0103849
0.337794
-0.348179
-0.14322
0.402205
0.0667029
-0.258865
0.286679
0.152414
-0.439085
-0.431149
0.291686
0.139469
-0.00979057
-0.271636
0.00623855
-0.00793576
0.313408
0.17666
-0.469176
-0.449943
0.17318
0.276772
0.1053
-0.315327
0.210028
0.318739
-0.170384
-0.0871589
0.454558
-0.134895
-0.25717
0.392071
-0.411389
0.374068
-0.224053
-0.390693
0.265291
0.271712
-0.464922
0.181426
0.283502
0.0931662
-0.141214
0.00281563
-0.180652
0.177836
-0.164527
0.132835
-0.162824
-0.26712
0.429944
-0.033033
-0.00340666
-0.250345
0.394113
-0.143762
-0.0602718
-0.240586
-0.115425
0.291293
0.166979
0.265255
-0.440193
0.174948
0.502116
-0.323576
-0.178536
-0.41492
0.453725
-0.0388026
-0.262127
0.127153
-0.132257
-0.0456111
-0.0851439
-0.0710154
0.191329
-0.211493
-0.477388
0.309385
0.168004
-0.152867
-0.253434
0.406307
-0.229559
0.0489292
0.201921
0.056864
-0.0561113
-0.13495
0.191061
-0.444885
0.0694719
-0.41762
0.144883
0.27274
0.180365
0.3162
-0.0243751
0.00543278
0.0189423
-0.0645406
-0.166339
0.23088
0.138372
0.444298
-0.458466
0.0141761
0.140954
-0.145139
-0.0181149
0.192864
0.270308
-0.00176695
0.217661
-0.259357
0.0416957
0.189911
-0.296495
0.106585
0.524786
-0.175201
0.498038
-0.162471
0.0263761
0.0635551
0.196779
0.0973523
-0.294129
0.32431
0.157464
-0.481772
-0.0454701
-0.136618
0.182089
0.0532374
-0.133899
-0.26193
0.395836
-0.266035
-0.294046
-0.176092
0.434316
-0.258224
-0.242051
-0.163372
-0.136293
-0.25488
0.391179
0.236709
-0.398535
0.161837
0.159504
-0.387847
0.228346
0.0961453
0.251368
-0.347506
0.143964
-0.341283
0.197321
0.21063
-0.201065
-0.00956416
0.338631
-0.355068
0.0164406
-0.0876593
0.28444
-0.199401
-0.147321
0.346722
-0.00308734
-0.0212877
0.0122948
0.369709
-0.162645
-0.300276
0.0356396
0.0808197
-0.116459
0.321609
-0.296014
-0.0255928
-0.447823
0.269877
0.177948
0.451562
-0.160267
0.321985
-0.459028
-0.123278
0.307634
-0.184354
0.0211808
0.30043
-0.417767
0.453341
-0.0355709
0.124289
0.148484
0.337265
-0.193298
-0.110057
0.294624
-0.184565
0.00774968
0.0499613
-0.0215247
0.239173
-0.521466
0.299242
0.222227
0.23449
0.132304
-0.36679
-0.140713
-0.136869
0.277582
0.211104
0.284886
-0.461536
0.176651
0.0774458
-0.10134
0.285456
0.143552
-0.428997
-0.087026
0.196311
0.197947
0.0138303
-0.398603
0.258423
0.140187
0.270991
-0.429174
0.15819
0.214779
-0.431183
0.216408
0.310895
-0.173558
0.143249
0.00866085
-0.15191
-0.0458885
-0.419055
0.188173
-0.350997
-0.178764
0.145274
0.0160351
0.253276
-0.0356144
0.30828
-0.202978
-0.33057
0.218732
0.111839
-0.14991
-0.279382
-0.0586796
-0.0722098
-0.16066
0.380947
-0.220283
0.0825429
0.0573245
-0.139867
0.0103842
0.150054
0.266532
-0.394447
0.127918
-0.253084
0.115085
0.137999
0.135281
-0.425163
-0.0337169
0.458881
0.196182
-0.177918
-0.162924
0.447811
0.372497
-0.222651
0.150534
0.0982671
-0.292935
0.19467
-0.28277
0.323196
0.472879
-0.182745
-0.290133
-0.319795
0.455136
-0.135332
0.386092
-0.233158
-0.191855
0.385476
0.491867
-0.391037
-0.153131
0.418394
-0.159425
0.430423
-0.0501516
0.367996
-0.133504
0.28413
0.153074
-0.437202
0.18976
0.0208702
0.194518
-0.15759
0.235128
-0.402262
0.167135
0.15857
-0.169511
-0.0458509
-0.317335
0.255324
0.496848
-0.428462
-0.0683852
-0.288467
-0.110129
0.138351
0.0301236
0.277847
-0.518166
0.240325
-0.315267
0.440469
-0.125199
-0.256193
0.196521
0.0596727
0.500653
-0.320286
0.382963
-0.134862
0.207343
0.105957
-0.313298
0.212685
0.110961
-0.323642
-0.145834
-0.0943584
0.240193
0.269075
0.124822
-0.39389
-0.0218103
-0.118394
0.411823
0.0850254
0.341144
-0.00250899
-0.250715
0.162877
0.0878382
0.076127
0.000829628
0.030714
-0.270158
0.129444
-0.291693
0.47563
-0.0893612
0.324693
-0.235326
-0.243789
0.338866
-0.0950765
-0.405922
-0.0394092
-0.0676162
-0.188576
0.10779
-0.33156
0.198623
0.274573
-0.473195
0.144946
0.17672
-0.321666
-0.381439
0.139399
-0.211483
0.370991
0.421823
-0.034601
-0.216801
0.287227
-0.188958
-0.21759
0.356771
-0.139181
0.108965
-0.433154
-0.468456
0.329869
0.138595
-0.0973218
-0.26853
0.365853
0.4007
0.143656
-0.000406148
0.236415
0.0734114
-0.309825
0.302898
0.169982
0.00656208
-0.0035394
-0.00302267
-0.0142217
0.20874
-0.195753
0.490988
-0.295235
0.00298573
0.0766065
-0.46368
-0.024059
-0.0432308
-0.334774
0.1707
0.495333
-0.247124
-0.0841392
0.291484
0.376087
-0.385505
0.115525
-0.353062
0.237542
-0.0588157
-0.0809235
0.360605
0.131264
-0.210375
0.134683
-0.115173
-0.384173
-0.030744
0.306408
0.138753
-0.445161
0.40517
-0.134871
-0.0287812
0.23269
0.150273
0.230967
0.137495
0.278168
0.00523287
0.454349
-0.311718
-0.142621
-0.419144
0.258398
0.335422
-0.190476
-0.122529
-0.268694
0.39123
-0.0779008
0.11354
0.206012
-0.38889
0.182882
-0.256576
0.0794697
0.177107
0.157939
0.290503
0.355019
-0.149004
-0.141067
-0.327381
0.349065
-0.233535
0.181244
-0.178429
0.337927
-0.101511
0.239999
-0.0649712
-0.175027
-0.207173
0.026376
0.180798
0.136671
-0.391542
0.254873
0.221725
-0.376109
0.154392
0.445551
-0.322439
-0.123111
0.179001
0.246071
-0.425061
-0.354864
0.137274
-0.0254307
-0.426592
0.45204
-0.220799
-0.125314
-0.12575
0.283559
-0.513765
0.134828
0.499507
-0.340088
-0.159417
-0.411246
0.0914603
-0.0377655
0.0276682
0.0100973
-0.383421
-0.0508468
0.143634
0.246095
0.197173
0.0288948
-0.226067
0.300468
-0.151095
0.175568
-0.248653
0.427665
-0.201388
0.488218
-0.286823
-0.145227
-0.172626
0.317855
0.126298
0.263798
-0.390093
0.0592039
0.345628
-0.114658
0.29696
-0.107048
0.240723
-0.369703
0.128984
0.0583652
-0.223824
0.136574
-0.0849844
0.300772
0.218465
0.136487
0.271675
-0.437148
0.165481
0.27175
-0.440453
0.168705
0.384805
-0.248131
-0.139688
-0.262084
0.401779
-0.315971
-0.180897
0.200117
-0.311704
0.111589
0.154832
-0.286824
0.190281
0.289042
-0.479322
-0.116287
0.0649235
0.0513638
0.00994839
0.135183
-0.368376
-0.150731
0.481749
0.163187
-0.175216
0.0120292
0.0243413
-0.288449
0.264109
-0.157765
0.00264205
0.155123
-0.223583
-0.123103
-0.141701
0.264806
0.00115348
-0.00332128
-0.338343
-0.157053
0.495406
0.437464
0.322091
0.173879
-0.0914239
-0.20179
0.276489
-0.4235
0.147012
0.167821
-0.431496
0.102906
-0.189932
0.409716
-0.217624
-0.192091
0.437992
-0.287968
-0.150022
0.173479
-0.0102913
0.0254955
-0.00235985
-0.0231356
0.0353093
-0.0432653
-0.325495
0.181779
-0.316576
0.172476
0.144103
0.0901205
0.1934
-0.283515
0.295392
0.0299494
-0.325341
0.205758
0.294896
0.529199
-0.219355
-0.309842
0.176263
-0.190511
0.0142478
0.292414
-0.375999
-0.0417655
-0.175934
0.00259028
-0.00733502
0.164402
-0.238655
0.0742532
0.0376736
-0.331954
0.294281
-0.164205
-0.313182
-0.180372
-0.0762022
0.350687
0.0873061
0.248231
-0.337587
-0.0731843
0.372888
-0.132162
0.26003
0.0390384
-0.299067
0.529921
-0.203199
0.259074
-0.134783
0.231366
0.106665
-0.338029
-0.309446
0.447068
-0.137622
0.25696
-0.246671
-0.0102863
0.2518
-0.4001
0.148308
-0.254364
0.380611
0.417193
-0.110785
-0.217245
-0.304219
-0.285681
-0.202525
0.488209
0.000471181
-0.221535
0.221065
0.433975
-0.162223
-0.185346
0.343915
-0.158568
0.0156595
0.0474379
-0.378193
0.412066
-0.0338736
-0.117491
-0.0379434
-0.369625
0.250294
-0.302423
0.340097
-0.174809
0.0425518
-0.385119
0.130755
0.237101
-0.363273
0.126176
0.0949799
0.19071
-0.144282
-0.197105
0.28723
-0.172824
0.173296
0.272135
-0.247792
0.0920075
0.17125
0.188762
0.00299606
0.294932
0.234269
-0.509987
0.185935
0.324055
-0.250507
0.305873
-0.0553653
0.197969
-0.407021
0.0373953
-0.291253
0.509173
0.315421
-0.115301
-0.422599
0.269738
0.166566
0.267381
-0.364702
0.233413
-0.157863
0.0326925
-0.00512351
-0.027569
0.249114
0.136177
-0.220794
-0.164873
-0.287559
0.146515
0.252583
-0.399092
-0.163207
0.413993
-0.147458
0.182554
0.0210655
0.355022
0.182531
-0.190688
0.00815655
-0.0723559
0.332388
-0.156139
0.377757
0.447318
-0.0453356
-0.210519
-0.0970672
0.30759
0.157587
0.249329
-0.406911
0.377301
0.00601715
0.175227
-0.0239944
-0.0137711
-0.176532
-0.261881
0.00316595
-0.118961
0.270183
0.143812
-0.000951819
0.00419818
-0.00316977
-0.0441273
0.047297
0.00014675
0.0253487
0.142322
-0.0692086
-0.0731133
-0.159821
-0.0139832
-0.321125
-0.365574
-0.115937
-0.153848
0.150402
0.00344592
-0.253773
-0.415268
0.247175
0.250445
0.136485
-0.386924
-0.138419
-0.0250887
-0.225418
-0.157492
-0.136991
-0.375966
0.055612
-0.367641
-0.0138531
0.0697398
-0.155818
0.00463051
0.151187
-0.444819
0.142604
0.302215
-0.149428
0.131441
0.017987
0.126297
0.187725
-0.314023
0.425757
0.147087
-0.412098
0.265013
0.127345
0.267695
-0.395032
0.0343434
-0.143239
0.153276
0.374149
-0.447303
0.221048
-0.0312874
0.21268
-0.122321
0.000274033
0.00426691
-0.000644725
0.00125258
-0.0522296
-0.143912
0.196142
-0.022566
0.19708
-0.174514
0.201173
0.232075
-0.025093
0.255113
0.00184815
0.191697
0.213848
0.236502
-0.412594
-0.223623
-0.101871
0.0102886
0.124227
-0.134516
-0.00857308
0.22238
-0.0642421
-0.334809
0.317726
-0.510285
0.41948
-0.0669125
-0.0493748
-0.278057
-0.116389
-0.165792
-0.314614
0.169388
0.181549
0.228167
0.434733
-0.418734
-0.0159773
-0.412488
0.169498
0.24299
-0.283074
0.159973
-0.419279
0.0927728
0.326506
-0.351185
0.50157
0.301506
-0.154424
-0.147081
-0.319507
0.080557
0.23895
-0.177017
0.0190912
0.0160698
-0.0351611
-0.227288
0.238732
-0.33659
0.0978584
-0.0482119
0.0423411
0.00587078
-0.21129
0.181351
0.0299397
0.159971
-0.14822
-0.28264
0.430861
-0.131887
0.449614
0.250914
0.135865
-0.386774
-0.160093
0.425973
-0.265868
-0.281499
-0.218876
-0.185862
-0.279373
0.503755
-0.206902
-0.296851
0.121623
-0.00185633
0.27185
0.118434
-0.390283
-0.162538
0.0261659
0.170016
0.256757
-0.268563
0.011807
0.19702
-0.0207561
-0.303757
0.099692
0.204067
0.195059
0.104447
0.354634
0.0785222
-0.433156
0.107606
0.193902
-0.139918
-0.250842
0.390763
-0.258688
-0.151234
0.409928
0.237004
0.0942453
-0.332086
0.481526
-0.149434
0.0201799
0.13502
-0.1552
0.179898
0.278663
-0.458557
-0.14282
-0.198821
-0.239655
0.438476
-0.253435
-0.175579
0.429016
-0.127593
0.317467
-0.261854
-0.479299
-0.0805591
-0.175851
0.256411
0.256356
0.126651
-0.383003
-0.411959
0.142158
0.329126
-0.063121
-0.0844502
0.270302
0.10031
-0.37061
0.233177
-0.416508
0.183331
-0.040023
-0.0878106
-0.182855
0.309152
-0.0142944
0.00115483
0.0131396
0.165101
0.0795657
-0.244666
0.452421
-0.291481
-0.160935
-0.428005
0.0959269
-0.00271628
-0.0454956
-0.172179
0.141774
-0.282751
0.430246
-0.197069
0.235539
-0.165874
-0.0696646
-0.153175
0.485251
-0.163266
0.472629
-0.185405
-0.28722
-0.16881
0.461415
-0.292599
0.383205
-0.256904
-0.27638
0.360958
-0.084574
0.31431
0.131992
-0.446301
0.419711
-0.147574
-0.202994
-0.171798
0.131644
0.26742
-0.399056
0.493636
-0.141065
-0.219357
0.463016
-0.243659
0.140433
-0.417365
0.276932
0.239779
0.263978
0.403279
-0.14692
-0.428664
-0.00734698
0.436012
-0.0326127
-0.0374438
-0.00531001
0.0427539
0.0333302
-0.367834
-0.00264768
0.0353402
0.394679
-0.251045
0.181212
0.00755069
-0.0406136
-0.417334
-0.0917468
-0.184052
0.16983
0.0142228
-0.00327797
-0.00889525
0.0121732
-0.146182
-0.26465
0.410838
-0.225096
-0.0621386
0.287235
-0.341516
0.150131
0.014412
0.249434
0.294207
-0.362773
0.0685653
0.407098
-0.260578
-0.14472
0.448011
-0.36124
-0.0172521
-0.169944
0.00993104
0.146072
-0.0159602
0.146232
-0.130272
0.110245
-0.335645
-0.487021
0.277063
0.456864
0.496777
-0.344758
-0.152016
0.107901
-0.33166
0.22376
-0.276944
0.39412
-0.117167
-0.034111
-0.0319834