/*--------------------------------*- C++ -*----------------------------------*\
| =========                 |                                                 |
| \\      /  F ield         | OpenFOAM: The Open Source CFD Toolbox           |
|  \\    /   O peration     | Version:  v2012                                 |
|   \\  /    A nd           | Website:  www.openfoam.com                      |
|    \\/     M anipulation  |                                                 |
\*---------------------------------------------------------------------------*/
FoamFile
{
    version     2.0;
    format      ascii;
    class       volVectorField;
    location    "200";
    object      cellDisplacement;
}
// * * * * * * * * * * * * * * * * * * * * * * * * * * * * * * * * * * * * * //

dimensions      [0 1 0 0 0 0 0];


internalField   nonuniform List<vector> 
18758
(
(0 -0.000221555 0)
(0 -0.000173957 0)
(0 -1.39217e-05 0)
(0 -0.000220827 0)
(0 -0.00018463 0)
(0 -3.10592e-06 0)
(0 -6.05956e-05 0)
(0 -5.88084e-05 0)
(0 -0.000182491 0)
(0 -0.0001776 0)
(0 -0.000167072 0)
(0 -0.000277555 0)
(0 -0.000186663 0)
(0 -4.02172e-05 0)
(0 -6.12402e-05 0)
(0 -3.35504e-05 0)
(0 -0.000276704 0)
(0 -9.82903e-07 0)
(0 -5.9457e-05 0)
(0 -9.47529e-05 0)
(0 -0.000277935 0)
(0 -1.38875e-06 0)
(0 -2.7418e-06 0)
(0 -7.11942e-06 0)
(0 -1.28617e-06 0)
(0 -7.42992e-06 0)
(0 -0.000201482 0)
(0 -3.64474e-05 0)
(0 -1.51638e-05 0)
(0 -0.000178815 0)
(0 -8.57805e-05 0)
(0 -0.000199089 0)
(0 -5.94817e-05 0)
(0 -2.00336e-06 0)
(0 -0.000189727 0)
(0 -0.000176565 0)
(0 -0.000184191 0)
(0 -0.000187764 0)
(0 -0.000155203 0)
(0 -1.15403e-05 0)
(0 -0.000167552 0)
(0 -0.000172127 0)
(0 -0.000155856 0)
(0 -0.000225314 0)
(0 -1.69043e-05 0)
(0 -8.68113e-05 0)
(0 -0.000170377 0)
(0 -1.74049e-05 0)
(0 -3.80513e-07 0)
(0 -0.000215997 0)
(0 -0.000166361 0)
(0 -9.03818e-06 0)
(0 -0.000215162 0)
(0 -0.000132873 0)
(0 -3.95845e-06 0)
(0 -0.000186726 0)
(0 -0.000158132 0)
(0 -9.57188e-05 0)
(0 -1.90964e-05 0)
(0 -0.000155331 0)
(0 -1.64505e-05 0)
(0 -0.000223707 0)
(0 -0.000133359 0)
(0 -3.89983e-05 0)
(0 -1.47105e-05 0)
(0 -6.98384e-07 0)
(0 -2.42373e-05 0)
(0 -5.71918e-05 0)
(0 -3.78483e-05 0)
(0 -1.97892e-06 0)
(0 -9.19652e-06 0)
(0 -7.54237e-06 0)
(0 -8.71011e-05 0)
(0 -8.15389e-05 0)
(0 -8.05422e-05 0)
(0 -8.35349e-05 0)
(0 -0.00011559 0)
(0 -0.000274934 0)
(0 -0.000179585 0)
(0 -0.00015307 0)
(0 -8.08251e-06 0)
(0 -0.000156628 0)
(0 -0.000275168 0)
(0 -7.74737e-05 0)
(0 -0.000236035 0)
(0 -4.59714e-06 0)
(0 -2.33081e-05 0)
(0 -8.20892e-05 0)
(0 -0.000133356 0)
(0 -4.51155e-06 0)
(0 -8.2795e-06 0)
(0 -8.33751e-06 0)
(0 -9.21629e-06 0)
(0 -3.19362e-07 0)
(0 -8.53735e-05 0)
(0 -8.85727e-05 0)
(0 -7.93618e-06 0)
(0 -1.76716e-05 0)
(0 -0.000275161 0)
(0 -0.000120337 0)
(0 -8.44653e-05 0)
(0 -0.000100231 0)
(0 -5.56946e-05 0)
(0 -8.65315e-05 0)
(0 -8.67718e-07 0)
(0 -0.000278065 0)
(0 -1.64849e-05 0)
(0 -8.11506e-06 0)
(0 -0.000120282 0)
(0 -0.000249554 0)
(0 -2.95239e-05 0)
(0 -3.84815e-05 0)
(0 -0.000240314 0)
(0 -2.04844e-05 0)
(0 -0.000102224 0)
(0 -3.37307e-05 0)
(0 -1.86065e-05 0)
(0 -0.000139685 0)
(0 -3.11703e-05 0)
(0 -0.000241256 0)
(0 -2.61497e-05 0)
(0 -0.00011669 0)
(0 -0.000237046 0)
(0 -0.000159594 0)
(0 -7.25151e-08 0)
(0 -0.000130592 0)
(0 -0.000217961 0)
(0 -0.000158361 0)
(0 -1.19796e-05 0)
(0 6.39835e-07 0)
(0 -1.80552e-05 0)
(0 -1.36472e-05 0)
(0 -4.81625e-05 0)
(0 -2.11148e-06 0)
(0 -9.81909e-06 0)
(0 -2.58093e-05 0)
(0 -0.000113009 0)
(0 -0.00023692 0)
(0 -2.52978e-05 0)
(0 -8.66046e-06 0)
(0 -0.000242565 0)
(0 -0.000239949 0)
(0 -1.73946e-05 0)
(0 -0.000119727 0)
(0 2.65189e-08 0)
(0 -1.14457e-05 0)
(0 -8.98431e-07 0)
(0 -1.2088e-05 0)
(0 -0.000169647 0)
(0 -2.07721e-05 0)
(0 6.19739e-07 0)
(0 5.40355e-07 0)
(0 -4.18029e-05 0)
(0 -0.000194106 0)
(0 -0.000165284 0)
(0 -6.13964e-05 0)
(0 -9.75775e-06 0)
(0 -1.14767e-05 0)
(0 -8.37748e-05 0)
(0 -0.000171449 0)
(0 -1.70109e-05 0)
(0 -0.000179944 0)
(0 2.70049e-07 0)
(0 -1.07026e-06 0)
(0 -8.86883e-05 0)
(0 -0.000150912 0)
(0 -0.000177032 0)
(0 -1.55732e-05 0)
(0 6.07409e-07 0)
(0 -0.00027866 0)
(0 5.24616e-07 0)
(0 -9.62852e-06 0)
(0 -1.50175e-05 0)
(0 -1.91659e-06 0)
(0 -0.000123405 0)
(0 -0.000149845 0)
(0 -8.22244e-05 0)
(0 -6.71847e-06 0)
(0 -2.29031e-06 0)
(0 -3.42806e-05 0)
(0 -4.31241e-05 0)
(0 -0.000123528 0)
(0 -4.35502e-06 0)
(0 -3.09102e-05 0)
(0 -2.16333e-05 0)
(0 -3.08527e-05 0)
(0 -0.000180629 0)
(0 -0.000128064 0)
(0 -3.75926e-07 0)
(0 -8.80011e-05 0)
(0 5.82317e-07 0)
(0 -3.08829e-05 0)
(0 -3.77064e-05 0)
(0 -0.000107589 0)
(0 -2.62419e-05 0)
(0 -3.27667e-05 0)
(0 -2.56018e-05 0)
(0 -4.16415e-05 0)
(0 -5.08126e-07 0)
(0 -1.09981e-05 0)
(0 -0.000198116 0)
(0 -1.14507e-05 0)
(0 -8.83755e-05 0)
(0 -2.56833e-05 0)
(0 -3.17712e-05 0)
(0 1.69881e-07 0)
(0 -0.000203146 0)
(0 -0.000192334 0)
(0 6.52429e-07 0)
(0 6.83722e-07 0)
(0 -7.97704e-06 0)
(0 -1.00964e-05 0)
(0 -0.000201072 0)
(0 -0.000219862 0)
(0 -9.70435e-05 0)
(0 -9.26918e-06 0)
(0 -5.64722e-06 0)
(0 -1.02206e-05 0)
(0 -4.0545e-06 0)
(0 -0.000171828 0)
(0 -0.000108425 0)
(0 -0.000191902 0)
(0 -1.82368e-05 0)
(0 -1.19108e-05 0)
(0 -8.70955e-05 0)
(0 -1.84514e-05 0)
(0 -8.22409e-05 0)
(0 -3.59468e-06 0)
(0 -1.61803e-05 0)
(0 -0.000200207 0)
(0 -7.93729e-06 0)
(0 -1.20625e-05 0)
(0 -0.000123589 0)
(0 -2.16768e-05 0)
(0 -5.43488e-05 0)
(0 -0.00019529 0)
(0 -6.69416e-05 0)
(0 -3.12915e-07 0)
(0 -2.59654e-05 0)
(0 -6.38511e-05 0)
(0 -3.36575e-05 0)
(0 -6.76202e-05 0)
(0 -2.51793e-05 0)
(0 -1.09939e-05 0)
(0 -2.05915e-05 0)
(0 -1.65108e-05 0)
(0 -5.04816e-05 0)
(0 -0.000102074 0)
(0 -0.000160675 0)
(0 -0.000123475 0)
(0 4.70541e-07 0)
(0 -0.000223571 0)
(0 -9.27107e-06 0)
(0 -0.00019663 0)
(0 -1.24157e-06 0)
(0 -2.35417e-05 0)
(0 -0.000152357 0)
(0 -7.58943e-06 0)
(0 -6.04519e-06 0)
(0 -0.000175611 0)
(0 -0.000239025 0)
(0 -0.000164236 0)
(0 -5.09802e-05 0)
(0 -3.85306e-05 0)
(0 -6.14577e-05 0)
(0 -6.32492e-05 0)
(0 -0.000167343 0)
(0 -2.44727e-05 0)
(0 -4.11379e-05 0)
(0 -0.00014668 0)
(0 -3.39211e-05 0)
(0 -5.62439e-06 0)
(0 -0.000144063 0)
(0 -0.000195225 0)
(0 -2.18584e-05 0)
(0 -9.74534e-05 0)
(0 -4.07745e-05 0)
(0 -4.34195e-06 0)
(0 -0.000221569 0)
(0 -4.12039e-05 0)
(0 -9.73925e-05 0)
(0 -1.30859e-05 0)
(0 -2.60355e-05 0)
(0 -1.292e-06 0)
(0 -5.95185e-05 0)
(0 -0.000192091 0)
(0 -3.26137e-06 0)
(0 -2.43707e-05 0)
(0 -9.43508e-05 0)
(0 -8.96265e-05 0)
(0 -7.91248e-06 0)
(0 -3.68089e-05 0)
(0 -0.000158199 0)
(0 -1.5999e-05 0)
(0 -9.58169e-06 0)
(0 -0.000166644 0)
(0 -2.01719e-05 0)
(0 -5.64678e-06 0)
(0 -5.97875e-06 0)
(0 -4.40663e-07 0)
(0 -3.0865e-05 0)
(0 -2.41637e-05 0)
(0 -2.52981e-05 0)
(0 -0.000145168 0)
(0 -0.000150877 0)
(0 -4.19905e-05 0)
(0 -0.000260622 0)
(0 -0.000278643 0)
(0 -0.000225199 0)
(0 -0.000189532 0)
(0 -2.6252e-05 0)
(0 -6.50955e-05 0)
(0 -2.46894e-05 0)
(0 -2.61739e-05 0)
(0 -1.46577e-05 0)
(0 -1.76489e-06 0)
(0 -5.14421e-05 0)
(0 -0.000140649 0)
(0 -1.19817e-05 0)
(0 -2.42727e-05 0)
(0 -2.68996e-05 0)
(0 -8.18191e-05 0)
(0 -2.20407e-05 0)
(0 -7.70673e-05 0)
(0 -5.29018e-05 0)
(0 6.74846e-07 0)
(0 -8.12088e-06 0)
(0 -0.000159361 0)
(0 -1.32812e-07 0)
(0 -6.66682e-05 0)
(0 -0.00024847 0)
(0 -2.42234e-06 0)
(0 -7.34091e-05 0)
(0 -0.000153297 0)
(0 -6.52158e-06 0)
(0 -2.29356e-05 0)
(0 -0.000113998 0)
(0 -0.000199731 0)
(0 -5.72568e-05 0)
(0 -0.000206604 0)
(0 -0.00011217 0)
(0 -6.09454e-05 0)
(0 -4.94126e-05 0)
(0 -0.00014501 0)
(0 -0.000236055 0)
(0 -0.000143003 0)
(0 -0.00027419 0)
(0 -0.000155089 0)
(0 -2.09416e-05 0)
(0 -0.000149977 0)
(0 -8.65555e-07 0)
(0 -0.000236763 0)
(0 -3.16918e-05 0)
(0 -2.89759e-05 0)
(0 1.01702e-07 0)
(0 -0.000170652 0)
(0 -0.000139755 0)
(0 -6.03917e-05 0)
(0 -0.000249199 0)
(0 -0.00021785 0)
(0 -0.000223515 0)
(0 -2.50732e-05 0)
(0 -0.000109752 0)
(0 -0.000233455 0)
(0 -8.3649e-05 0)
(0 -0.000108521 0)
(0 -5.45398e-05 0)
(0 -2.77493e-05 0)
(0 -0.000122788 0)
(0 -1.89865e-05 0)
(0 -2.54641e-07 0)
(0 -3.25121e-05 0)
(0 -0.000126736 0)
(0 -5.30247e-05 0)
(0 -0.00016873 0)
(0 -3.25735e-05 0)
(0 -8.63873e-07 0)
(0 -6.81452e-07 0)
(0 -1.1617e-05 0)
(0 -0.00015909 0)
(0 -0.000231651 0)
(0 -3.01841e-05 0)
(0 -6.80889e-06 0)
(0 -1.22357e-06 0)
(0 -0.000234911 0)
(0 -0.000264995 0)
(0 -3.47027e-05 0)
(0 -2.81834e-08 0)
(0 -6.25744e-05 0)
(0 -0.000277948 0)
(0 -0.000251042 0)
(0 -3.31224e-05 0)
(0 -4.38583e-05 0)
(0 -0.000104215 0)
(0 -0.000229956 0)
(0 -2.51436e-05 0)
(0 -0.000217188 0)
(0 -3.30223e-05 0)
(0 -9.3345e-06 0)
(0 -1.19337e-05 0)
(0 -0.000156151 0)
(0 -5.79991e-05 0)
(0 -0.000162351 0)
(0 -2.12471e-05 0)
(0 -9.49708e-05 0)
(0 -9.43521e-05 0)
(0 3.37712e-08 0)
(0 -0.00016366 0)
(0 -1.41688e-05 0)
(0 -0.000163879 0)
(0 -5.83339e-06 0)
(0 -0.000157451 0)
(0 -4.4847e-05 0)
(0 -6.67397e-05 0)
(0 -0.000118258 0)
(0 -1.99886e-05 0)
(0 -0.000253104 0)
(0 -0.000154743 0)
(0 -5.04196e-05 0)
(0 -1.70546e-05 0)
(0 -3.0735e-05 0)
(0 -3.47845e-05 0)
(0 -6.53605e-07 0)
(0 -6.33272e-05 0)
(0 -0.000238071 0)
(0 -1.01489e-05 0)
(0 -2.38741e-06 0)
(0 -8.85982e-06 0)
(0 -4.16939e-06 0)
(0 -0.000228377 0)
(0 -7.0268e-06 0)
(0 -0.000126697 0)
(0 -7.82788e-06 0)
(0 -1.67396e-05 0)
(0 -8.62719e-05 0)
(0 -2.0483e-05 0)
(0 -6.52358e-05 0)
(0 -8.06312e-05 0)
(0 -6.38188e-05 0)
(0 -5.92766e-05 0)
(0 -3.66719e-05 0)
(0 -0.000146118 0)
(0 -1.07055e-06 0)
(0 -6.14292e-07 0)
(0 -3.35731e-05 0)
(0 -0.000201632 0)
(0 -3.72574e-06 0)
(0 -6.83077e-06 0)
(0 -8.81921e-05 0)
(0 -1.13649e-06 0)
(0 -6.00137e-05 0)
(0 -1.31511e-05 0)
(0 -3.29966e-05 0)
(0 -0.000169461 0)
(0 -3.23287e-05 0)
(0 -2.49781e-07 0)
(0 -0.000153632 0)
(0 -3.32125e-06 0)
(0 -2.85696e-05 0)
(0 -0.000196547 0)
(0 -2.81239e-05 0)
(0 -2.0162e-05 0)
(0 -2.12448e-06 0)
(0 -6.13282e-05 0)
(0 -7.85446e-06 0)
(0 -4.60942e-05 0)
(0 -2.91459e-05 0)
(0 -0.000109387 0)
(0 -7.05447e-06 0)
(0 -0.000191956 0)
(0 -1.75771e-05 0)
(0 -0.000190325 0)
(0 -0.000131761 0)
(0 -1.46444e-05 0)
(0 -6.59889e-05 0)
(0 -6.96729e-05 0)
(0 -6.11817e-05 0)
(0 -0.000173001 0)
(0 -0.000262191 0)
(0 -0.00024357 0)
(0 -2.77018e-05 0)
(0 -6.2734e-05 0)
(0 -0.000105958 0)
(0 -5.72057e-06 0)
(0 -0.000104369 0)
(0 -2.76804e-06 0)
(0 -0.000199307 0)
(0 -1.42172e-05 0)
(0 -2.73485e-05 0)
(0 -8.30628e-06 0)
(0 -1.42773e-05 0)
(0 -1.24262e-05 0)
(0 -1.595e-05 0)
(0 -0.000195557 0)
(0 -0.000260834 0)
(0 -0.000278465 0)
(0 -0.000203637 0)
(0 -0.000163691 0)
(0 -6.79247e-07 0)
(0 -2.22489e-05 0)
(0 -7.23321e-06 0)
(0 -6.79047e-06 0)
(0 -5.11781e-05 0)
(0 -7.49913e-06 0)
(0 -2.91445e-05 0)
(0 -7.38174e-06 0)
(0 -2.11638e-06 0)
(0 -0.000210129 0)
(0 -0.000156149 0)
(0 -0.000151443 0)
(0 -1.09099e-06 0)
(0 -2.60062e-06 0)
(0 -6.378e-07 0)
(0 -1.91727e-05 0)
(0 -9.45232e-05 0)
(0 -8.81625e-06 0)
(0 -0.000208426 0)
(0 -0.000229797 0)
(0 -3.00551e-05 0)
(0 -0.000107303 0)
(0 -0.000145282 0)
(0 -5.48241e-06 0)
(0 -3.43361e-06 0)
(0 -0.000199355 0)
(0 -1.36309e-05 0)
(0 -0.000271164 0)
(0 -3.66261e-05 0)
(0 -0.000254413 0)
(0 -0.00011169 0)
(0 -2.63642e-06 0)
(0 -3.77247e-05 0)
(0 -1.02329e-05 0)
(0 -3.36639e-05 0)
(0 -0.000115844 0)
(0 -0.00014482 0)
(0 -0.000118185 0)
(0 -8.66254e-05 0)
(0 -5.5803e-05 0)
(0 -7.12836e-05 0)
(0 -0.000199005 0)
(0 -0.000153314 0)
(0 -0.000163524 0)
(0 -4.83037e-05 0)
(0 -4.77718e-05 0)
(0 -1.66598e-06 0)
(0 -2.05861e-05 0)
(0 -9.20773e-05 0)
(0 -0.00019619 0)
(0 -3.74459e-05 0)
(0 -1.46872e-05 0)
(0 -3.7028e-05 0)
(0 -8.18914e-06 0)
(0 -2.18079e-06 0)
(0 -2.8743e-05 0)
(0 -0.000188049 0)
(0 -0.000195954 0)
(0 -0.000103307 0)
(0 -3.11286e-05 0)
(0 -1.95179e-05 0)
(0 -0.000114972 0)
(0 -1.1143e-05 0)
(0 -5.45219e-05 0)
(0 -6.51546e-06 0)
(0 -0.000243085 0)
(0 -0.000219203 0)
(0 -0.000135494 0)
(0 -9.01519e-06 0)
(0 -6.86358e-05 0)
(0 -0.000239832 0)
(0 -0.000249443 0)
(0 -0.00015646 0)
(0 -3.5638e-05 0)
(0 -0.000245538 0)
(0 -0.000136468 0)
(0 -2.02264e-05 0)
(0 -0.000220036 0)
(0 -9.36819e-06 0)
(0 -1.21523e-05 0)
(0 -3.9099e-06 0)
(0 -3.57734e-06 0)
(0 -0.000249171 0)
(0 -1.50434e-05 0)
(0 -3.30019e-05 0)
(0 -8.58338e-05 0)
(0 -2.28797e-05 0)
(0 -3.66352e-05 0)
(0 -5.12975e-07 0)
(0 -0.000137546 0)
(0 -0.000204123 0)
(0 -0.000144182 0)
(0 -1.72381e-05 0)
(0 -1.28239e-05 0)
(0 -7.79603e-05 0)
(0 -6.69613e-05 0)
(0 -0.000117966 0)
(0 -0.00014707 0)
(0 -0.000172409 0)
(0 -0.000246965 0)
(0 -0.000189153 0)
(0 -0.000113557 0)
(0 -4.89335e-07 0)
(0 -2.24364e-05 0)
(0 -7.4681e-06 0)
(0 -0.000105098 0)
(0 -0.000210248 0)
(0 -8.72678e-05 0)
(0 -5.00875e-05 0)
(0 -0.000204779 0)
(0 -3.18081e-05 0)
(0 -0.000240066 0)
(0 -4.62353e-05 0)
(0 -0.000151886 0)
(0 -3.66458e-05 0)
(0 -0.000262334 0)
(0 -3.23976e-05 0)
(0 -1.96441e-07 0)
(0 -4.71784e-05 0)
(0 -0.000253913 0)
(0 -0.000152413 0)
(0 -0.000208973 0)
(0 -2.14172e-05 0)
(0 -1.83384e-05 0)
(0 -0.000156266 0)
(0 -3.79027e-05 0)
(0 -0.000141711 0)
(0 -4.63997e-05 0)
(0 -0.000144753 0)
(0 -7.29355e-06 0)
(0 -0.000248507 0)
(0 -0.00025455 0)
(0 -0.000194719 0)
(0 -0.000108369 0)
(0 -8.80231e-05 0)
(0 -0.000255951 0)
(0 -9.85254e-07 0)
(0 -1.43986e-05 0)
(0 -1.94357e-05 0)
(0 5.60849e-07 0)
(0 -1.44387e-06 0)
(0 -5.0372e-06 0)
(0 -2.11613e-06 0)
(0 -7.93358e-05 0)
(0 -0.000194965 0)
(0 -2.11855e-05 0)
(0 -0.000147173 0)
(0 -0.00013874 0)
(0 -9.55344e-06 0)
(0 -2.28619e-05 0)
(0 -3.54712e-06 0)
(0 -4.66255e-05 0)
(0 -0.00022838 0)
(0 -9.78203e-05 0)
(0 -0.000228446 0)
(0 -0.000143761 0)
(0 -1.28108e-05 0)
(0 -0.000266138 0)
(0 -0.000220769 0)
(0 -0.000191334 0)
(0 -3.16138e-05 0)
(0 -9.41157e-06 0)
(0 -3.22149e-05 0)
(0 -0.000270565 0)
(0 -0.000141725 0)
(0 -0.000115154 0)
(0 -0.000234162 0)
(0 -0.000222634 0)
(0 -0.000112996 0)
(0 -3.80251e-06 0)
(0 -3.95462e-06 0)
(0 -6.06312e-05 0)
(0 -6.76903e-05 0)
(0 -0.00019823 0)
(0 -3.68048e-05 0)
(0 -5.69485e-07 0)
(0 -1.02226e-07 0)
(0 -0.000140073 0)
(0 -0.000199817 0)
(0 -0.000279024 0)
(0 -3.32653e-05 0)
(0 -9.99996e-05 0)
(0 -0.000132705 0)
(0 -3.26185e-05 0)
(0 -4.24924e-05 0)
(0 -0.000273542 0)
(0 -1.01386e-05 0)
(0 -1.97308e-05 0)
(0 -1.46614e-05 0)
(0 -2.88011e-05 0)
(0 -3.36622e-05 0)
(0 -0.00011663 0)
(0 -0.000201639 0)
(0 -8.99981e-05 0)
(0 -0.000102706 0)
(0 -2.76572e-05 0)
(0 -5.86695e-05 0)
(0 -0.00016697 0)
(0 -0.000130348 0)
(0 -7.56501e-05 0)
(0 -0.000199837 0)
(0 -3.32884e-05 0)
(0 -0.000194185 0)
(0 -0.000148872 0)
(0 -2.47636e-05 0)
(0 -2.93281e-05 0)
(0 -9.46664e-06 0)
(0 -2.85854e-05 0)
(0 -0.000146049 0)
(0 -2.17478e-05 0)
(0 -8.56701e-05 0)
(0 -0.000220574 0)
(0 -0.000226357 0)
(0 -8.80792e-06 0)
(0 -6.87822e-06 0)
(0 -2.67926e-05 0)
(0 -0.000139112 0)
(0 -3.81424e-05 0)
(0 -0.00012954 0)
(0 -0.00019648 0)
(0 -2.97665e-05 0)
(0 -9.37499e-05 0)
(0 -4.63324e-05 0)
(0 -0.000155469 0)
(0 -2.45402e-05 0)
(0 -1.6356e-05 0)
(0 -3.02325e-05 0)
(0 -1.23799e-05 0)
(0 -1.15043e-05 0)
(0 -3.4724e-05 0)
(0 -8.71106e-06 0)
(0 -1.13743e-05 0)
(0 -0.000246469 0)
(0 -8.98972e-05 0)
(0 -3.57838e-05 0)
(0 -2.87114e-05 0)
(0 -0.000251487 0)
(0 -0.000160691 0)
(0 -3.96086e-06 0)
(0 -0.000224491 0)
(0 -5.02247e-05 0)
(0 -0.000132713 0)
(0 -0.000132057 0)
(0 -5.14323e-05 0)
(0 -4.83225e-06 0)
(0 -0.000229956 0)
(0 -3.13434e-05 0)
(0 -9.92829e-05 0)
(0 -6.21282e-05 0)
(0 -0.000146335 0)
(0 -2.58039e-05 0)
(0 -0.000169103 0)
(0 -4.10839e-06 0)
(0 -0.000192357 0)
(0 -0.000141798 0)
(0 -5.1563e-05 0)
(0 -3.77505e-05 0)
(0 -5.19633e-05 0)
(0 -0.000258977 0)
(0 -0.000100667 0)
(0 -0.000262973 0)
(0 -5.2299e-05 0)
(0 -0.000141658 0)
(0 -2.14303e-05 0)
(0 -0.000275527 0)
(0 -3.31968e-05 0)
(0 -1.85091e-05 0)
(0 -0.000143229 0)
(0 -2.07437e-05 0)
(0 -0.000220526 0)
(0 -4.28631e-05 0)
(0 -4.98986e-05 0)
(0 -3.03297e-05 0)
(0 -0.000137002 0)
(0 -2.89708e-05 0)
(0 -0.000151338 0)
(0 -2.0345e-05 0)
(0 -4.43798e-06 0)
(0 -1.80413e-06 0)
(0 -2.28911e-05 0)
(0 -2.97832e-05 0)
(0 -1.60933e-05 0)
(0 -0.000196889 0)
(0 -2.07173e-05 0)
(0 -4.87523e-06 0)
(0 -0.000155798 0)
(0 -0.000164565 0)
(0 -0.000264056 0)
(0 -9.84023e-05 0)
(0 -7.73575e-05 0)
(0 -0.00012692 0)
(0 -7.96889e-05 0)
(0 6.97219e-07 0)
(0 -0.000228076 0)
(0 -0.000190364 0)
(0 -3.74631e-05 0)
(0 -7.25538e-05 0)
(0 -9.88352e-05 0)
(0 -0.000229739 0)
(0 -8.01928e-05 0)
(0 -2.09859e-05 0)
(0 -0.000190891 0)
(0 -3.12184e-05 0)
(0 -3.8241e-05 0)
(0 -0.000163872 0)
(0 -0.000116959 0)
(0 -1.6014e-05 0)
(0 -4.47736e-05 0)
(0 -4.74849e-05 0)
(0 -2.22511e-05 0)
(0 -0.000240291 0)
(0 -3.79562e-06 0)
(0 -7.59688e-05 0)
(0 -0.000126324 0)
(0 -0.000101779 0)
(0 -0.000190349 0)
(0 -4.49326e-05 0)
(0 -3.21219e-05 0)
(0 -2.38777e-05 0)
(0 -5.8253e-05 0)
(0 -3.76967e-05 0)
(0 -6.83847e-06 0)
(0 -0.000143182 0)
(0 -0.000114633 0)
(0 -0.000117717 0)
(0 -5.42577e-05 0)
(0 -5.99584e-05 0)
(0 -3.83067e-05 0)
(0 -5.80224e-06 0)
(0 -0.0002244 0)
(0 -0.000134519 0)
(0 -2.05193e-06 0)
(0 -0.000107057 0)
(0 -0.0002517 0)
(0 -2.11908e-05 0)
(0 -1.59034e-05 0)
(0 -1.33135e-05 0)
(0 -0.000218735 0)
(0 6.90356e-07 0)
(0 -0.000179112 0)
(0 -9.7427e-05 0)
(0 -2.01009e-05 0)
(0 -9.74145e-06 0)
(0 -2.57074e-06 0)
(0 -7.35126e-05 0)
(0 -5.33873e-05 0)
(0 -2.68766e-05 0)
(0 -0.000180696 0)
(0 -6.54732e-05 0)
(0 -1.30812e-05 0)
(0 -0.000248901 0)
(0 -2.42583e-05 0)
(0 -8.87385e-05 0)
(0 -1.85919e-05 0)
(0 -0.000180149 0)
(0 -6.56902e-05 0)
(0 -0.000186481 0)
(0 -3.66282e-05 0)
(0 -8.21872e-05 0)
(0 -7.49476e-05 0)
(0 -0.000248261 0)
(0 -1.85277e-06 0)
(0 -6.03732e-05 0)
(0 -0.000175722 0)
(0 -4.45627e-06 0)
(0 -0.000120877 0)
(0 -0.000204268 0)
(0 -0.000192161 0)
(0 -9.64154e-07 0)
(0 -0.000111946 0)
(0 -0.000122144 0)
(0 -1.62919e-05 0)
(0 -4.94607e-05 0)
(0 -0.000185884 0)
(0 -6.57162e-05 0)
(0 -5.21308e-06 0)
(0 -4.15757e-05 0)
(0 -2.02483e-05 0)
(0 -0.000184669 0)
(0 -0.000214266 0)
(0 -4.26058e-05 0)
(0 -5.2897e-05 0)
(0 -3.14881e-05 0)
(0 -4.07779e-05 0)
(0 -3.13647e-05 0)
(0 -2.98468e-05 0)
(0 -3.53624e-05 0)
(0 -8.6645e-05 0)
(0 -0.000152166 0)
(0 -9.6086e-05 0)
(0 -1.37604e-05 0)
(0 -1.8307e-05 0)
(0 -0.000241225 0)
(0 -3.74593e-05 0)
(0 -1.55766e-05 0)
(0 -0.000180918 0)
(0 -7.29535e-05 0)
(0 -0.000192341 0)
(0 -3.79262e-05 0)
(0 -0.00014862 0)
(0 -3.58842e-05 0)
(0 -0.000172848 0)
(0 -6.68921e-06 0)
(0 -2.44149e-05 0)
(0 -0.000146961 0)
(0 -0.000131373 0)
(0 -8.00915e-06 0)
(0 -1.27002e-05 0)
(0 -2.35717e-05 0)
(0 -5.41084e-05 0)
(0 -2.41017e-06 0)
(0 -4.53375e-05 0)
(0 -0.00015943 0)
(0 -2.96896e-05 0)
(0 -0.000139507 0)
(0 -5.05074e-05 0)
(0 -0.000196493 0)
(0 -0.000259394 0)
(0 -0.000202292 0)
(0 -4.82817e-05 0)
(0 -9.09029e-05 0)
(0 -5.22154e-06 0)
(0 -0.000187642 0)
(0 -0.000198618 0)
(0 -3.81758e-05 0)
(0 -8.78062e-05 0)
(0 -0.000262077 0)
(0 -2.40314e-05 0)
(0 -0.000272191 0)
(0 -0.000148034 0)
(0 -2.96878e-05 0)
(0 -3.49154e-05 0)
(0 -3.33384e-05 0)
(0 -1.50797e-05 0)
(0 -0.000155344 0)
(0 -4.03183e-05 0)
(0 -0.000131186 0)
(0 -0.000135038 0)
(0 -6.85629e-05 0)
(0 -5.00278e-05 0)
(0 -0.000105884 0)
(0 -8.06244e-05 0)
(0 -8.30104e-06 0)
(0 -8.31592e-05 0)
(0 -2.81684e-05 0)
(0 -8.22484e-05 0)
(0 -0.000121854 0)
(0 -9.97389e-05 0)
(0 3.23935e-08 0)
(0 -0.000213846 0)
(0 -8.22752e-05 0)
(0 -4.34992e-05 0)
(0 -0.000194267 0)
(0 -9.97393e-05 0)
(0 -3.92172e-05 0)
(0 -0.000265812 0)
(0 -9.38202e-06 0)
(0 -0.000281164 0)
(0 -2.1984e-05 0)
(0 -0.000178184 0)
(0 -6.42042e-05 0)
(0 -5.67775e-05 0)
(0 -0.000160985 0)
(0 -0.000281465 0)
(0 -1.3508e-06 0)
(0 -7.30818e-05 0)
(0 -0.000263208 0)
(0 -0.000161031 0)
(0 -1.38173e-05 0)
(0 -0.000231615 0)
(0 -0.000136759 0)
(0 4.12411e-07 0)
(0 -8.96286e-05 0)
(0 -1.73306e-05 0)
(0 4.70909e-07 0)
(0 -2.15969e-05 0)
(0 -1.81657e-05 0)
(0 -0.000247689 0)
(0 -0.000190193 0)
(0 -0.000205881 0)
(0 -6.9961e-05 0)
(0 -0.000196241 0)
(0 -0.000145509 0)
(0 -3.43231e-05 0)
(0 -0.000202726 0)
(0 -0.000105018 0)
(0 -4.2979e-06 0)
(0 -2.6458e-05 0)
(0 -2.66366e-05 0)
(0 -7.16806e-05 0)
(0 -0.000128868 0)
(0 -0.000137602 0)
(0 -0.000143583 0)
(0 -0.000229741 0)
(0 -2.03186e-05 0)
(0 -3.92097e-05 0)
(0 -0.000281299 0)
(0 -3.88806e-05 0)
(0 -4.3898e-06 0)
(0 -0.000143173 0)
(0 -4.35649e-05 0)
(0 -7.34126e-05 0)
(0 -0.00014663 0)
(0 -7.31732e-05 0)
(0 -0.000149382 0)
(0 -4.5224e-05 0)
(0 -0.000233692 0)
(0 -7.64903e-05 0)
(0 -3.57136e-05 0)
(0 -0.000156381 0)
(0 -5.22274e-05 0)
(0 -0.000278418 0)
(0 -1.53265e-05 0)
(0 -0.000281455 0)
(0 -9.87791e-07 0)
(0 -0.000276011 0)
(0 -3.24754e-05 0)
(0 -0.000175617 0)
(0 -0.000153638 0)
(0 -0.000160432 0)
(0 -4.71872e-05 0)
(0 -4.79266e-06 0)
(0 -2.79524e-06 0)
(0 -0.000269491 0)
(0 -7.97075e-05 0)
(0 -5.58016e-06 0)
(0 -2.53805e-05 0)
(0 -1.37831e-05 0)
(0 -8.17922e-05 0)
(0 -0.000113439 0)
(0 -0.000198076 0)
(0 -0.000277638 0)
(0 -0.000146282 0)
(0 -9.91543e-05 0)
(0 -0.000128869 0)
(0 -3.92717e-05 0)
(0 -3.57591e-05 0)
(0 -0.000231389 0)
(0 -0.000134301 0)
(0 -8.19889e-05 0)
(0 -0.000197883 0)
(0 -0.000155755 0)
(0 -7.73035e-05 0)
(0 -0.000171397 0)
(0 -9.96822e-05 0)
(0 -7.28647e-05 0)
(0 -0.000133976 0)
(0 -0.000146928 0)
(0 -3.03423e-06 0)
(0 -9.43105e-06 0)
(0 -1.24836e-05 0)
(0 -0.000132805 0)
(0 -5.59364e-05 0)
(0 -0.000196032 0)
(0 -7.02123e-05 0)
(0 -0.000106183 0)
(0 -5.58711e-05 0)
(0 1.77678e-07 0)
(0 -1.51426e-05 0)
(0 -0.000147852 0)
(0 -0.000158232 0)
(0 -6.51503e-05 0)
(0 -0.000257976 0)
(0 -0.000142894 0)
(0 -3.16843e-05 0)
(0 -0.000260323 0)
(0 -0.000234464 0)
(0 -5.78572e-05 0)
(0 3.24335e-07 0)
(0 -1.78633e-06 0)
(0 -0.000114385 0)
(0 -5.21744e-05 0)
(0 -4.16922e-05 0)
(0 -0.000279786 0)
(0 -0.000128847 0)
(0 -1.29006e-05 0)
(0 -3.02917e-05 0)
(0 -0.000141434 0)
(0 -1.86571e-05 0)
(0 -2.87937e-05 0)
(0 5.85971e-08 0)
(0 -2.77526e-05 0)
(0 -0.000192101 0)
(0 -0.000117263 0)
(0 -4.22822e-05 0)
(0 -0.000232839 0)
(0 -4.4513e-05 0)
(0 -2.87392e-05 0)
(0 -0.000131875 0)
(0 -0.000125404 0)
(0 -0.000196287 0)
(0 -4.98003e-05 0)
(0 -0.000136918 0)
(0 -0.000280434 0)
(0 -3.83495e-05 0)
(0 -4.77373e-05 0)
(0 -0.000265545 0)
(0 -2.66202e-05 0)
(0 -2.03657e-05 0)
(0 -8.72903e-06 0)
(0 -4.87172e-05 0)
(0 -0.000199055 0)
(0 -0.000237951 0)
(0 -1.29231e-05 0)
(0 -0.000279508 0)
(0 -0.000187207 0)
(0 -3.52759e-05 0)
(0 -9.39336e-06 0)
(0 -0.000189945 0)
(0 -3.59324e-05 0)
(0 -0.000266146 0)
(0 -0.000124689 0)
(0 -3.83731e-05 0)
(0 -8.31545e-06 0)
(0 -4.27916e-05 0)
(0 -4.8382e-05 0)
(0 -0.000194932 0)
(0 -7.77153e-05 0)
(0 -5.59507e-05 0)
(0 -1.27137e-05 0)
(0 -5.55592e-05 0)
(0 -9.82968e-05 0)
(0 -0.000195111 0)
(0 -1.23415e-05 0)
(0 -2.2646e-05 0)
(0 -0.000101459 0)
(0 -0.000120303 0)
(0 -2.54165e-05 0)
(0 -0.000263514 0)
(0 -3.46137e-05 0)
(0 -2.36089e-06 0)
(0 -0.000109984 0)
(0 -0.000118672 0)
(0 -2.61119e-05 0)
(0 -0.000242255 0)
(0 -0.000108977 0)
(0 -5.25542e-05 0)
(0 -0.000149701 0)
(0 -0.000204478 0)
(0 -0.000194541 0)
(0 -4.18485e-05 0)
(0 -0.000126495 0)
(0 -5.21109e-06 0)
(0 -2.1094e-05 0)
(0 -6.61907e-05 0)
(0 -0.000149071 0)
(0 -0.000265351 0)
(0 -4.7049e-05 0)
(0 -4.72216e-06 0)
(0 -0.000248018 0)
(0 -1.93976e-05 0)
(0 -0.000151625 0)
(0 2.78362e-07 0)
(0 -1.02105e-05 0)
(0 2.92375e-07 0)
(0 -5.68151e-06 0)
(0 -6.80991e-05 0)
(0 -0.000167821 0)
(0 -0.0001592 0)
(0 -1.70428e-05 0)
(0 -0.00012601 0)
(0 -1.50687e-06 0)
(0 -9.08552e-05 0)
(0 -0.000136792 0)
(0 -9.65662e-05 0)
(0 -8.62376e-05 0)
(0 -8.58742e-06 0)
(0 -0.000212744 0)
(0 -2.00865e-05 0)
(0 -7.24607e-05 0)
(0 -0.000176462 0)
(0 -1.05726e-05 0)
(0 -0.000279991 0)
(0 -0.000245177 0)
(0 -0.000235345 0)
(0 -4.33349e-05 0)
(0 -1.80339e-05 0)
(0 -1.80514e-05 0)
(0 -1.73794e-06 0)
(0 -3.87896e-05 0)
(0 -9.03425e-05 0)
(0 8.40441e-09 0)
(0 4.89004e-07 0)
(0 -4.60049e-05 0)
(0 -6.19725e-05 0)
(0 -2.89967e-05 0)
(0 9.50454e-08 0)
(0 -3.89783e-05 0)
(0 -0.000263718 0)
(0 -0.000249087 0)
(0 -0.000112205 0)
(0 -8.53273e-06 0)
(0 -1.60412e-05 0)
(0 -4.40119e-05 0)
(0 -8.60639e-05 0)
(0 -0.000279297 0)
(0 -0.00025115 0)
(0 -2.81972e-06 0)
(0 -0.000145458 0)
(0 -0.000158611 0)
(0 -0.00011286 0)
(0 -0.000258857 0)
(0 -1.58411e-07 0)
(0 -0.000134887 0)
(0 -5.54697e-05 0)
(0 -0.000145992 0)
(0 -0.000154675 0)
(0 -7.88011e-05 0)
(0 -0.000160299 0)
(0 -7.83969e-05 0)
(0 -1.11675e-06 0)
(0 -3.00952e-05 0)
(0 -0.000135133 0)
(0 -1.16069e-05 0)
(0 -3.63612e-05 0)
(0 -2.99019e-05 0)
(0 -0.000251046 0)
(0 -0.000279622 0)
(0 -9.53679e-05 0)
(0 -9.94459e-06 0)
(0 -1.73114e-06 0)
(0 -0.000203082 0)
(0 -0.00022534 0)
(0 -8.13612e-06 0)
(0 -0.000259088 0)
(0 -0.000206061 0)
(0 -2.45287e-05 0)
(0 -0.000163698 0)
(0 -3.064e-05 0)
(0 -7.27015e-05 0)
(0 -6.95592e-05 0)
(0 -0.000161375 0)
(0 -8.10015e-05 0)
(0 -0.000185929 0)
(0 -0.000126999 0)
(0 -0.00015507 0)
(0 -9.02127e-05 0)
(0 -2.62006e-05 0)
(0 -0.000104338 0)
(0 -0.000101956 0)
(0 -0.000182554 0)
(0 -0.000228659 0)
(0 -0.000113241 0)
(0 -0.000213952 0)
(0 -2.4159e-05 0)
(0 -4.62736e-05 0)
(0 -0.000149126 0)
(0 -0.000131645 0)
(0 -2.85772e-05 0)
(0 -7.87866e-06 0)
(0 -0.000226934 0)
(0 -0.000131384 0)
(0 -3.69633e-06 0)
(0 -0.000280179 0)
(0 -1.24134e-08 0)
(0 -5.41401e-05 0)
(0 -9.59445e-05 0)
(0 -8.57876e-05 0)
(0 -1.08813e-05 0)
(0 -4.12058e-05 0)
(0 -0.000201646 0)
(0 -0.000129738 0)
(0 -4.82405e-05 0)
(0 -7.04284e-05 0)
(0 -8.7183e-07 0)
(0 -8.95176e-05 0)
(0 -7.18177e-05 0)
(0 -0.000194571 0)
(0 -0.000197766 0)
(0 -5.66556e-05 0)
(0 -0.000195812 0)
(0 -0.000215206 0)
(0 -3.32637e-05 0)
(0 -0.000158322 0)
(0 -1.07239e-05 0)
(0 -0.000138719 0)
(0 -0.000224014 0)
(0 -0.000151873 0)
(0 -0.000174698 0)
(0 -5.16268e-07 0)
(0 -9.71609e-06 0)
(0 -0.000274116 0)
(0 -2.64027e-06 0)
(0 -0.000268978 0)
(0 -5.79796e-05 0)
(0 -9.57831e-06 0)
(0 -0.000232784 0)
(0 -0.00013731 0)
(0 -2.20743e-05 0)
(0 -3.5656e-07 0)
(0 -0.000119852 0)
(0 -0.000178922 0)
(0 -0.000161766 0)
(0 -1.28594e-05 0)
(0 -8.19918e-05 0)
(0 -0.000272585 0)
(0 -0.000106373 0)
(0 -2.09626e-05 0)
(0 -1.88266e-06 0)
(0 -2.19434e-05 0)
(0 -3.94273e-05 0)
(0 -1.38874e-05 0)
(0 -4.14052e-05 0)
(0 -4.86336e-06 0)
(0 -0.00014397 0)
(0 -4.15182e-05 0)
(0 -0.000219142 0)
(0 -2.57767e-05 0)
(0 -8.92084e-06 0)
(0 -2.69325e-05 0)
(0 -0.000250998 0)
(0 -0.000154341 0)
(0 -9.05353e-05 0)
(0 -4.99723e-05 0)
(0 -4.25158e-06 0)
(0 -8.9738e-05 0)
(0 -4.98165e-06 0)
(0 -0.000133534 0)
(0 -0.000129608 0)
(0 -4.02755e-05 0)
(0 -3.29731e-05 0)
(0 -9.0846e-05 0)
(0 -0.000195281 0)
(0 -2.84519e-05 0)
(0 -2.32399e-05 0)
(0 -0.000148002 0)
(0 -0.000248331 0)
(0 -3.49618e-05 0)
(0 -3.19725e-05 0)
(0 -1.08331e-07 0)
(0 -4.15579e-05 0)
(0 -1.28751e-06 0)
(0 -0.000223903 0)
(0 -5.8045e-07 0)
(0 -4.10673e-05 0)
(0 -1.2894e-05 0)
(0 -7.30164e-06 0)
(0 -0.000219645 0)
(0 -0.000132711 0)
(0 -4.30227e-05 0)
(0 -2.06261e-06 0)
(0 -0.00023273 0)
(0 -7.8191e-05 0)
(0 -5.7321e-06 0)
(0 -6.76933e-05 0)
(0 -0.000166699 0)
(0 -7.71449e-05 0)
(0 -0.000101544 0)
(0 -4.79554e-05 0)
(0 -3.44863e-05 0)
(0 -0.000104096 0)
(0 -0.000162549 0)
(0 -0.000228812 0)
(0 -4.0167e-05 0)
(0 -0.000249391 0)
(0 -1.95181e-05 0)
(0 -1.70426e-05 0)
(0 -7.36396e-06 0)
(0 -5.91492e-06 0)
(0 -0.000103634 0)
(0 -1.07392e-05 0)
(0 -8.23825e-05 0)
(0 5.00481e-07 0)
(0 -0.000218844 0)
(0 -7.7044e-05 0)
(0 -0.00010017 0)
(0 -8.91891e-06 0)
(0 -7.92514e-05 0)
(0 -0.000108134 0)
(0 -1.91398e-05 0)
(0 -2.27412e-05 0)
(0 -0.000223472 0)
(0 -0.000197889 0)
(0 -0.000205536 0)
(0 -9.23914e-06 0)
(0 -2.77757e-05 0)
(0 1.06001e-07 0)
(0 -3.74094e-05 0)
(0 -5.48113e-05 0)
(0 -0.000141548 0)
(0 -0.000180931 0)
(0 -4.94775e-05 0)
(0 -0.000127059 0)
(0 -4.7384e-05 0)
(0 -0.000131799 0)
(0 -0.00017695 0)
(0 -8.16476e-05 0)
(0 -9.84956e-05 0)
(0 -1.78319e-05 0)
(0 -4.81745e-05 0)
(0 5.53887e-07 0)
(0 -0.000188917 0)
(0 -2.31968e-05 0)
(0 -0.00026789 0)
(0 -0.000183526 0)
(0 -0.00016809 0)
(0 -0.000272566 0)
(0 -3.4327e-05 0)
(0 -0.000205912 0)
(0 1.74512e-07 0)
(0 -2.21077e-05 0)
(0 -7.21658e-06 0)
(0 -1.93246e-05 0)
(0 -0.000270665 0)
(0 -0.000129245 0)
(0 -0.000259654 0)
(0 -7.32943e-05 0)
(0 -0.000118539 0)
(0 -0.000113951 0)
(0 -5.46226e-05 0)
(0 4.11724e-08 0)
(0 -0.000111459 0)
(0 -8.39399e-05 0)
(0 -3.67651e-05 0)
(0 -0.000157807 0)
(0 -1.09455e-05 0)
(0 -7.4838e-05 0)
(0 -0.000123061 0)
(0 -7.71347e-05 0)
(0 -1.11231e-06 0)
(0 -0.000119305 0)
(0 -0.000130684 0)
(0 -0.000231219 0)
(0 -0.000176599 0)
(0 -0.000240409 0)
(0 -2.77988e-05 0)
(0 -1.20899e-05 0)
(0 -0.000189739 0)
(0 -2.10306e-05 0)
(0 -0.000127259 0)
(0 -7.70807e-05 0)
(0 -3.83595e-06 0)
(0 -0.000162538 0)
(0 -3.7351e-05 0)
(0 -1.8705e-05 0)
(0 -0.000117899 0)
(0 -0.000124494 0)
(0 -1.82257e-06 0)
(0 -1.40273e-05 0)
(0 -0.000261116 0)
(0 -0.000114344 0)
(0 -1.16305e-05 0)
(0 -7.52094e-05 0)
(0 -1.47716e-05 0)
(0 -4.05438e-05 0)
(0 -2.33737e-05 0)
(0 -3.35897e-05 0)
(0 -0.000134258 0)
(0 -0.000104698 0)
(0 -1.42476e-05 0)
(0 -0.000257021 0)
(0 -6.78339e-07 0)
(0 -1.05595e-05 0)
(0 -5.10475e-05 0)
(0 -2.23506e-05 0)
(0 -0.00025406 0)
(0 -1.30369e-06 0)
(0 -0.000259918 0)
(0 -0.000252094 0)
(0 -3.43531e-05 0)
(0 -2.39109e-06 0)
(0 -0.000176915 0)
(0 -3.1059e-05 0)
(0 -0.000140805 0)
(0 -3.38948e-05 0)
(0 -2.2347e-05 0)
(0 -3.49115e-05 0)
(0 -0.000126857 0)
(0 -2.82391e-05 0)
(0 -0.000157418 0)
(0 -0.000179041 0)
(0 -0.000102721 0)
(0 -7.26311e-05 0)
(0 -4.7086e-05 0)
(0 -9.90106e-05 0)
(0 -0.000136834 0)
(0 -6.95838e-05 0)
(0 -0.000111766 0)
(0 -0.00025731 0)
(0 -0.000221607 0)
(0 -9.34343e-05 0)
(0 -8.35442e-05 0)
(0 -3.42808e-05 0)
(0 -0.000114687 0)
(0 -0.000140046 0)
(0 -0.000171286 0)
(0 -0.000148706 0)
(0 -8.44733e-05 0)
(0 -0.000228326 0)
(0 -7.29903e-06 0)
(0 -1.42506e-05 0)
(0 -0.000108568 0)
(0 -9.9334e-06 0)
(0 -0.00022104 0)
(0 -0.000154077 0)
(0 -0.000235192 0)
(0 -0.0001488 0)
(0 -4.40609e-05 0)
(0 -0.000107737 0)
(0 -0.000260586 0)
(0 -0.000256254 0)
(0 -5.81315e-05 0)
(0 -0.000190418 0)
(0 -0.000136186 0)
(0 -0.000129726 0)
(0 -0.000194665 0)
(0 -0.000119092 0)
(0 -2.5943e-05 0)
(0 -0.000189458 0)
(0 -4.29882e-05 0)
(0 -7.25907e-06 0)
(0 -1.65345e-05 0)
(0 -0.000152459 0)
(0 -4.54404e-05 0)
(0 -2.68882e-05 0)
(0 -0.000256267 0)
(0 -3.14967e-05 0)
(0 -8.78877e-06 0)
(0 -7.71455e-07 0)
(0 -8.74649e-05 0)
(0 -1.88337e-05 0)
(0 -0.000260251 0)
(0 -0.00010613 0)
(0 -5.69222e-05 0)
(0 -0.000152246 0)
(0 -2.06669e-05 0)
(0 -6.56756e-05 0)
(0 -0.000254583 0)
(0 -3.13689e-05 0)
(0 -6.66007e-05 0)
(0 -0.000231821 0)
(0 -1.32331e-06 0)
(0 -0.000246765 0)
(0 -2.98211e-05 0)
(0 -0.00011233 0)
(0 -9.72932e-05 0)
(0 -4.32695e-05 0)
(0 -3.97969e-05 0)
(0 -4.02524e-05 0)
(0 -0.000197056 0)
(0 -0.000211456 0)
(0 -0.000165889 0)
(0 -0.00025114 0)
(0 -0.000185953 0)