/*--------------------------------*- C++ -*----------------------------------*\
| =========                 |                                                 |
| \\      /  F ield         | OpenFOAM: The Open Source CFD Toolbox           |
|  \\    /   O peration     | Version:  v2012                                 |
|   \\  /    A nd           | Website:  www.openfoam.com                      |
|    \\/     M anipulation  |                                                 |
\*---------------------------------------------------------------------------*/
FoamFile
{
    version     2.0;
    format      ascii;
    class       volVectorField;
    location    "600";
    object      cellDisplacement;
}
// * * * * * * * * * * * * * * * * * * * * * * * * * * * * * * * * * * * * * //

dimensions      [0 1 0 0 0 0 0];


internalField   nonuniform List<vector> 
18758
(
(0 5.85652e-06 0)
(0 6.00204e-06 0)
(0 -7.14851e-06 0)
(0 5.61854e-06 0)
(0 6.13515e-06 0)
(0 6.13317e-06 0)
(0 6.16109e-06 0)
(0 1.04671e-05 0)
(0 5.40227e-06 0)
(0 1.63355e-06 0)
(0 -6.78169e-06 0)
(0 6.15475e-06 0)
(0 4.45706e-06 0)
(0 1.73791e-06 0)
(0 -5.32148e-05 0)
(0 6.13507e-06 0)
(0 -5.92573e-06 0)
(0 1.58562e-05 0)
(0 -3.69822e-05 0)
(0 2.85527e-06 0)
(0 6.15438e-06 0)
(0 4.49312e-06 0)
(0 6.15929e-06 0)
(0 5.81031e-06 0)
(0 6.02016e-06 0)
(0 1.18266e-05 0)
(0 6.14554e-06 0)
(0 6.13868e-06 0)
(0 6.07307e-06 0)
(0 6.14525e-06 0)
(0 -3.03781e-06 0)
(0 6.16797e-06 0)
(0 2.64515e-06 0)
(0 -2.28509e-05 0)
(0 2.92162e-06 0)
(0 5.8116e-06 0)
(0 3.41935e-06 0)
(0 -1.30414e-05 0)
(0 -1.32461e-05 0)
(0 -3.96637e-06 0)
(0 -1.44063e-05 0)
(0 2.65196e-06 0)
(0 -1.89643e-05 0)
(0 1.83713e-06 0)
(0 6.12722e-06 0)
(0 9.9928e-06 0)
(0 6.15944e-06 0)
(0 -3.94206e-06 0)
(0 1.45052e-06 0)
(0 -2.33257e-05 0)
(0 5.5328e-06 0)
(0 6.11397e-06 0)
(0 -1.14124e-05 0)
(0 -7.23728e-06 0)
(0 6.14197e-06 0)
(0 6.10981e-06 0)
(0 3.82028e-06 0)
(0 6.1152e-06 0)
(0 -8.85274e-06 0)
(0 2.40535e-06 0)
(0 5.71357e-06 0)
(0 6.15924e-06 0)
(0 4.26422e-06 0)
(0 -1.67208e-06 0)
(0 -9.45656e-06 0)
(0 -8.59622e-06 0)
(0 -4.45383e-06 0)
(0 3.33954e-06 0)
(0 -1.34072e-05 0)
(0 6.1198e-06 0)
(0 6.13403e-06 0)
(0 -3.32892e-06 0)
(0 -2.25557e-05 0)
(0 6.15444e-06 0)
(0 -8.39465e-06 0)
(0 -8.60823e-06 0)
(0 5.12502e-06 0)
(0 6.1349e-06 0)
(0 5.92026e-06 0)
(0 6.16401e-06 0)
(0 6.14547e-06 0)
(0 6.13002e-06 0)
(0 2.5912e-06 0)
(0 6.13682e-06 0)
(0 5.11673e-06 0)
(0 -4.54745e-06 0)
(0 6.14879e-06 0)
(0 4.21441e-06 0)
(0 6.15493e-06 0)
(0 -8.58186e-06 0)
(0 6.14064e-06 0)
(0 -8.90394e-06 0)
(0 6.15263e-06 0)
(0 2.8393e-06 0)
(0 6.14477e-06 0)
(0 6.15308e-06 0)
(0 5.04057e-06 0)
(0 -9.07946e-06 0)
(0 -2.71449e-06 0)
(0 6.15437e-06 0)
(0 3.06309e-06 0)
(0 6.14531e-06 0)
(0 1.83126e-06 0)
(0 3.99584e-06 0)
(0 6.16893e-06 0)
(0 6.14328e-06 0)
(0 5.87964e-06 0)
(0 6.13111e-06 0)
(0 -8.94532e-06 0)
(0 -3.19181e-06 0)
(0 6.15218e-06 0)
(0 6.15452e-06 0)
(0 1.44602e-05 0)
(0 -6.24748e-06 0)
(0 6.06098e-06 0)
(0 6.15443e-06 0)
(0 6.15437e-06 0)
(0 -5.48188e-05 0)
(0 6.15959e-06 0)
(0 6.14628e-06 0)
(0 6.95612e-07 0)
(0 -9.60486e-06 0)
(0 6.12061e-06 0)
(0 6.14618e-06 0)
(0 6.07848e-06 0)
(0 6.124e-06 0)
(0 5.99038e-06 0)
(0 5.79083e-06 0)
(0 6.15365e-06 0)
(0 2.7975e-06 0)
(0 -5.51577e-06 0)
(0 6.14263e-06 0)
(0 6.15444e-06 0)
(0 5.47625e-06 0)
(0 6.15408e-06 0)
(0 2.78192e-07 0)
(0 5.0591e-06 0)
(0 -3.50148e-06 0)
(0 -2.21307e-06 0)
(0 5.9058e-06 0)
(0 5.92309e-06 0)
(0 6.07669e-06 0)
(0 -6.67142e-06 0)
(0 6.11925e-06 0)
(0 -1.49707e-05 0)
(0 -4.12532e-05 0)
(0 6.15449e-06 0)
(0 6.15288e-06 0)
(0 -3.56519e-06 0)
(0 6.05485e-06 0)
(0 6.12693e-06 0)
(0 5.71905e-06 0)
(0 -3.87758e-06 0)
(0 5.02427e-06 0)
(0 6.15065e-06 0)
(0 -2.89712e-06 0)
(0 6.16099e-06 0)
(0 -3.61106e-06 0)
(0 -6.63843e-06 0)
(0 2.0981e-06 0)
(0 8.68614e-06 0)
(0 2.74214e-06 0)
(0 6.15228e-06 0)
(0 -6.82811e-06 0)
(0 5.67577e-06 0)
(0 6.08223e-06 0)
(0 -3.30489e-05 0)
(0 6.13145e-06 0)
(0 5.91148e-06 0)
(0 6.12978e-06 0)
(0 6.15323e-06 0)
(0 1.57386e-05 0)
(0 6.15185e-06 0)
(0 6.13787e-06 0)
(0 2.77244e-06 0)
(0 5.77535e-06 0)
(0 6.08352e-06 0)
(0 -1.39113e-06 0)
(0 5.88432e-06 0)
(0 -8.88015e-06 0)
(0 1.89094e-05 0)
(0 6.15452e-06 0)
(0 5.68539e-06 0)
(0 -3.08107e-05 0)
(0 -2.20321e-05 0)
(0 5.61257e-06 0)
(0 -7.17802e-06 0)
(0 6.1544e-06 0)
(0 -1.954e-05 0)
(0 -7.83179e-06 0)
(0 5.49925e-06 0)
(0 5.76324e-06 0)
(0 -5.05472e-06 0)
(0 -4.04998e-06 0)
(0 4.25195e-06 0)
(0 4.3667e-06 0)
(0 2.99258e-06 0)
(0 5.93178e-06 0)
(0 1.34179e-05 0)
(0 -1.94275e-05 0)
(0 5.85974e-06 0)
(0 -3.6672e-06 0)
(0 3.39975e-06 0)
(0 3.53475e-06 0)
(0 5.79243e-06 0)
(0 4.10953e-06 0)
(0 2.38879e-06 0)
(0 4.17232e-06 0)
(0 6.15532e-06 0)
(0 1.56815e-06 0)
(0 1.63006e-05 0)
(0 4.13886e-06 0)
(0 -6.30858e-06 0)
(0 3.03966e-06 0)
(0 5.87859e-06 0)
(0 6.14693e-06 0)
(0 5.91069e-06 0)
(0 6.13267e-06 0)
(0 -5.77361e-06 0)
(0 6.13122e-06 0)
(0 1.60944e-05 0)
(0 -8.48364e-06 0)
(0 4.6788e-06 0)
(0 6.15439e-06 0)
(0 5.85812e-06 0)
(0 2.13495e-06 0)
(0 3.31272e-06 0)
(0 5.25814e-06 0)
(0 -4.19721e-05 0)
(0 3.72137e-06 0)
(0 -9.27797e-06 0)
(0 4.3323e-06 0)
(0 6.15783e-06 0)
(0 5.09532e-06 0)
(0 3.84482e-06 0)
(0 -7.09225e-06 0)
(0 -4.00236e-05 0)
(0 1.16773e-05 0)
(0 6.11619e-06 0)
(0 2.36604e-06 0)
(0 1.02353e-05 0)
(0 6.06118e-06 0)
(0 5.89031e-06 0)
(0 -1.40633e-05 0)
(0 6.04065e-06 0)
(0 6.15439e-06 0)
(0 5.02645e-06 0)
(0 6.42976e-06 0)
(0 6.14512e-06 0)
(0 3.88418e-06 0)
(0 4.91791e-06 0)
(0 6.13281e-06 0)
(0 -4.51152e-06 0)
(0 3.98512e-06 0)
(0 -5.13265e-05 0)
(0 1.42732e-06 0)
(0 5.62635e-06 0)
(0 6.13515e-06 0)
(0 2.91871e-06 0)
(0 5.88763e-06 0)
(0 -6.77828e-05 0)
(0 1.11308e-06 0)
(0 6.78703e-06 0)
(0 3.38076e-06 0)
(0 1.38874e-06 0)
(0 4.64021e-06 0)
(0 6.1547e-06 0)
(0 -4.63281e-06 0)
(0 -9.75158e-06 0)
(0 6.09252e-06 0)
(0 -1.00335e-05 0)
(0 -2.24833e-05 0)
(0 3.56636e-06 0)
(0 6.10212e-06 0)
(0 6.15442e-06 0)
(0 -6.9116e-06 0)
(0 5.39046e-06 0)
(0 6.15438e-06 0)
(0 6.12579e-06 0)
(0 -4.10744e-06 0)
(0 -2.63252e-05 0)
(0 -7.94147e-09 0)
(0 2.30001e-06 0)
(0 -6.59191e-06 0)
(0 6.15357e-06 0)
(0 6.04433e-06 0)
(0 5.13676e-06 0)
(0 6.15452e-06 0)
(0 6.15752e-06 0)
(0 -2.99991e-05 0)
(0 -8.75716e-06 0)
(0 5.41069e-06 0)
(0 6.1443e-06 0)
(0 2.31792e-06 0)
(0 5.88639e-06 0)
(0 4.59956e-06 0)
(0 3.78583e-07 0)
(0 6.14675e-06 0)
(0 -3.6467e-05 0)
(0 4.88344e-06 0)
(0 6.13488e-06 0)
(0 1.0468e-05 0)
(0 6.10802e-06 0)
(0 4.7504e-06 0)
(0 -1.36029e-05 0)
(0 2.36224e-06 0)
(0 4.4742e-06 0)
(0 -3.99461e-05 0)
(0 5.15714e-06 0)
(0 6.16883e-06 0)
(0 5.00057e-06 0)
(0 2.94534e-06 0)
(0 6.17028e-06 0)
(0 6.1464e-06 0)
(0 5.82503e-06 0)
(0 8.83416e-07 0)
(0 1.35609e-06 0)
(0 5.48919e-06 0)
(0 -1.37429e-05 0)
(0 -2.99772e-05 0)
(0 -2.34882e-05 0)
(0 -2.80539e-07 0)
(0 5.9268e-06 0)
(0 4.58269e-06 0)
(0 6.48523e-08 0)
(0 2.2291e-06 0)
(0 2.97078e-06 0)
(0 5.47098e-06 0)
(0 -6.64739e-05 0)
(0 3.89272e-06 0)
(0 5.78123e-06 0)
(0 5.19142e-06 0)
(0 5.45196e-06 0)
(0 5.55756e-06 0)
(0 2.53538e-06 0)
(0 -5.31156e-06 0)
(0 4.13443e-06 0)
(0 4.84429e-06 0)
(0 6.09014e-06 0)
(0 -3.82583e-05 0)
(0 1.7237e-05 0)
(0 -3.64653e-05 0)
(0 1.11327e-07 0)
(0 5.17572e-06 0)
(0 6.00001e-06 0)
(0 -9.6608e-06 0)
(0 -4.18384e-06 0)
(0 -2.70571e-05 0)
(0 6.1395e-06 0)
(0 6.06245e-06 0)
(0 5.29585e-06 0)
(0 5.90714e-06 0)
(0 -2.7889e-05 0)
(0 5.76104e-06 0)
(0 5.84133e-06 0)
(0 1.70189e-06 0)
(0 4.26437e-06 0)
(0 6.15656e-06 0)
(0 6.15414e-06 0)
(0 5.67838e-06 0)
(0 1.41991e-05 0)
(0 3.38289e-06 0)
(0 6.04186e-06 0)
(0 6.10792e-06 0)
(0 -2.29424e-07 0)
(0 -2.81984e-05 0)
(0 2.5384e-06 0)
(0 -2.67335e-05 0)
(0 -6.3013e-06 0)
(0 6.03258e-06 0)
(0 5.53697e-06 0)
(0 1.14581e-06 0)
(0 2.82875e-06 0)
(0 6.15467e-06 0)
(0 -8.46179e-06 0)
(0 -3.3761e-06 0)
(0 -5.52136e-06 0)
(0 -1.25919e-05 0)
(0 2.00615e-06 0)
(0 -6.31148e-06 0)
(0 6.16986e-06 0)
(0 6.08552e-06 0)
(0 -5.14427e-05 0)
(0 3.65211e-06 0)
(0 6.15527e-06 0)
(0 1.02218e-06 0)
(0 5.36856e-06 0)
(0 -8.44452e-06 0)
(0 -5.83892e-06 0)
(0 -2.53843e-05 0)
(0 2.39641e-06 0)
(0 -9.4729e-06 0)
(0 -2.76029e-06 0)
(0 6.15456e-06 0)
(0 6.1568e-06 0)
(0 6.14774e-06 0)
(0 6.15023e-06 0)
(0 7.75076e-06 0)
(0 5.07699e-06 0)
(0 6.15536e-06 0)
(0 1.67554e-06 0)
(0 1.34549e-05 0)
(0 5.41984e-06 0)
(0 -1.76945e-05 0)
(0 -4.47801e-05 0)
(0 1.7852e-05 0)
(0 2.23421e-06 0)
(0 -8.77871e-06 0)
(0 1.92639e-06 0)
(0 5.87523e-06 0)
(0 6.11619e-06 0)
(0 -2.39168e-05 0)
(0 6.13771e-06 0)
(0 -7.22095e-07 0)
(0 1.92377e-06 0)
(0 -1.49991e-05 0)
(0 -8.78624e-06 0)
(0 1.68553e-05 0)
(0 1.42015e-07 0)
(0 8.45945e-07 0)
(0 5.41451e-06 0)
(0 6.15453e-06 0)
(0 9.40691e-07 0)
(0 -2.5533e-06 0)
(0 6.08633e-06 0)
(0 6.00637e-06 0)
(0 5.59233e-06 0)
(0 6.15348e-06 0)
(0 1.48555e-06 0)
(0 -4.15121e-06 0)
(0 -1.34668e-06 0)
(0 1.09976e-05 0)
(0 -5.99598e-06 0)
(0 8.59141e-07 0)
(0 -3.56692e-06 0)
(0 -1.35502e-05 0)
(0 4.61329e-06 0)
(0 -3.92715e-06 0)
(0 5.57847e-06 0)
(0 2.09464e-06 0)
(0 -8.85349e-06 0)
(0 1.98438e-06 0)
(0 6.15476e-06 0)
(0 -2.37759e-06 0)
(0 5.41643e-06 0)
(0 1.9467e-06 0)
(0 -1.04312e-06 0)
(0 6.1428e-06 0)
(0 3.06918e-06 0)
(0 -1.14169e-05 0)
(0 5.5937e-06 0)
(0 3.08786e-06 0)
(0 5.34894e-06 0)
(0 6.15391e-06 0)
(0 -8.72677e-06 0)
(0 -3.05476e-06 0)
(0 6.13742e-06 0)
(0 6.15625e-06 0)
(0 4.95638e-06 0)
(0 5.06299e-06 0)
(0 1.80477e-06 0)
(0 5.49746e-06 0)
(0 6.15451e-06 0)
(0 2.01715e-06 0)
(0 -3.36946e-06 0)
(0 5.2732e-06 0)
(0 -6.2853e-06 0)
(0 1.0466e-06 0)
(0 -4.89455e-06 0)
(0 6.15318e-06 0)
(0 -6.43174e-06 0)
(0 6.0244e-06 0)
(0 -1.36015e-05 0)
(0 -2.10441e-06 0)
(0 1.08124e-05 0)
(0 5.80591e-06 0)
(0 -2.12502e-05 0)
(0 6.15429e-06 0)
(0 -5.93612e-06 0)
(0 6.05923e-06 0)
(0 8.34534e-06 0)
(0 5.39427e-06 0)
(0 -5.91141e-06 0)
(0 1.4195e-05 0)
(0 -2.64383e-06 0)
(0 1.70763e-05 0)
(0 5.92687e-06 0)
(0 6.15638e-06 0)
(0 6.05708e-06 0)
(0 -5.28242e-06 0)
(0 -2.43177e-05 0)
(0 4.46397e-06 0)
(0 6.66749e-06 0)
(0 1.1652e-06 0)
(0 6.11476e-06 0)
(0 -3.15165e-06 0)
(0 -1.80023e-06 0)
(0 4.70537e-06 0)
(0 1.4222e-05 0)
(0 5.03361e-06 0)
(0 4.36214e-06 0)
(0 -2.56169e-06 0)
(0 -8.64504e-06 0)
(0 3.11299e-06 0)
(0 -2.67079e-06 0)
(0 -2.49442e-06 0)
(0 6.03648e-06 0)
(0 -2.71358e-05 0)
(0 4.8886e-06 0)
(0 1.89432e-07 0)
(0 -1.88474e-06 0)
(0 6.15312e-06 0)
(0 -3.25767e-06 0)
(0 -7.90871e-06 0)
(0 6.14964e-06 0)
(0 6.15449e-06 0)
(0 -2.57794e-06 0)
(0 5.60965e-06 0)
(0 -1.30373e-08 0)
(0 -8.30689e-06 0)
(0 6.15447e-06 0)
(0 -3.41586e-05 0)
(0 6.15445e-06 0)
(0 6.04628e-06 0)
(0 1.1847e-05 0)
(0 6.04784e-06 0)
(0 5.78629e-06 0)
(0 2.56717e-06 0)
(0 1.0035e-05 0)
(0 5.10134e-06 0)
(0 6.10484e-06 0)
(0 -1.36934e-05 0)
(0 -1.25466e-05 0)
(0 -5.13295e-05 0)
(0 -3.91538e-05 0)
(0 -4.01484e-05 0)
(0 9.20141e-06 0)
(0 8.28125e-07 0)
(0 6.10926e-06 0)
(0 -7.01762e-06 0)
(0 6.08235e-06 0)
(0 -1.00702e-05 0)
(0 5.4043e-06 0)
(0 6.02306e-06 0)
(0 7.00273e-06 0)
(0 -1.89643e-05 0)
(0 -6.0947e-06 0)
(0 1.31186e-05 0)
(0 -3.91908e-06 0)
(0 -1.508e-07 0)
(0 -8.57988e-06 0)
(0 4.05086e-06 0)
(0 6.13805e-06 0)
(0 -2.10078e-05 0)
(0 6.10825e-06 0)
(0 6.14711e-06 0)
(0 4.85511e-06 0)
(0 5.24398e-06 0)
(0 6.14774e-06 0)
(0 2.58883e-06 0)
(0 -2.80916e-05 0)
(0 -5.34459e-06 0)
(0 6.13156e-06 0)
(0 -7.10608e-06 0)
(0 -8.00789e-06 0)
(0 -6.61099e-06 0)
(0 6.08729e-06 0)
(0 -5.90959e-07 0)
(0 6.05017e-06 0)
(0 4.11951e-06 0)
(0 6.15603e-06 0)
(0 -6.61177e-06 0)
(0 -7.62816e-06 0)
(0 3.11669e-06 0)
(0 6.01787e-06 0)
(0 -3.96924e-06 0)
(0 6.06353e-06 0)
(0 -4.51777e-06 0)
(0 5.93305e-06 0)
(0 -3.78364e-06 0)
(0 -1.55322e-05 0)
(0 1.61102e-05 0)
(0 1.35217e-05 0)
(0 6.14616e-06 0)
(0 5.944e-06 0)
(0 -8.2551e-06 0)
(0 4.36836e-06 0)
(0 3.70423e-06 0)
(0 5.66157e-06 0)
(0 6.15598e-06 0)
(0 5.41298e-06 0)
(0 5.95539e-06 0)
(0 -6.12212e-05 0)
(0 6.13333e-06 0)
(0 -4.62889e-06 0)
(0 -6.2898e-06 0)
(0 -3.88039e-06 0)
(0 6.12069e-06 0)
(0 6.14904e-06 0)
(0 -2.19042e-05 0)
(0 -1.41899e-06 0)
(0 -6.23177e-06 0)
(0 -3.94542e-06 0)
(0 6.15346e-06 0)
(0 3.897e-06 0)
(0 6.14069e-06 0)
(0 6.15695e-06 0)
(0 -7.01144e-06 0)
(0 1.33966e-05 0)
(0 1.35979e-06 0)
(0 3.32727e-06 0)
(0 9.3507e-06 0)
(0 -2.92596e-07 0)
(0 -4.87888e-05 0)
(0 4.18972e-06 0)
(0 -9.52945e-07 0)
(0 5.88576e-06 0)
(0 6.12952e-06 0)
(0 4.99494e-06 0)
(0 8.78818e-06 0)
(0 2.90643e-06 0)
(0 5.4533e-06 0)
(0 6.11991e-06 0)
(0 -8.67209e-06 0)
(0 6.12673e-06 0)
(0 2.72999e-06 0)
(0 -8.05602e-06 0)
(0 4.29967e-06 0)
(0 5.85596e-06 0)
(0 -4.89641e-06 0)
(0 -3.42388e-05 0)
(0 6.04761e-06 0)
(0 6.14228e-06 0)
(0 5.92147e-06 0)
(0 1.33522e-05 0)
(0 6.15422e-06 0)
(0 6.15452e-06 0)
(0 6.0293e-06 0)
(0 -2.46751e-05 0)
(0 6.15499e-06 0)
(0 6.16987e-06 0)
(0 6.1497e-06 0)
(0 -6.71457e-06 0)
(0 6.53097e-06 0)
(0 6.06452e-06 0)
(0 8.42302e-07 0)
(0 4.00935e-06 0)
(0 6.15432e-06 0)
(0 5.48179e-06 0)
(0 6.15585e-06 0)
(0 1.50707e-06 0)
(0 6.15355e-06 0)
(0 1.20029e-06 0)
(0 -7.29313e-06 0)
(0 -1.5334e-06 0)
(0 6.15419e-06 0)
(0 5.22308e-06 0)
(0 6.16962e-06 0)
(0 5.59859e-06 0)
(0 -3.57981e-05 0)
(0 4.0182e-06 0)
(0 5.06189e-06 0)
(0 3.4899e-06 0)
(0 8.02869e-07 0)
(0 5.49993e-06 0)
(0 1.28275e-05 0)
(0 1.53542e-06 0)
(0 4.96488e-06 0)
(0 6.11687e-06 0)
(0 6.15405e-06 0)
(0 6.16426e-06 0)
(0 1.91731e-06 0)
(0 3.02747e-06 0)
(0 5.08565e-06 0)
(0 -3.87944e-06 0)
(0 -2.52842e-05 0)
(0 -4.5572e-06 0)
(0 -3.49051e-05 0)
(0 -2.59822e-06 0)
(0 -4.12738e-06 0)
(0 4.54585e-07 0)
(0 1.15073e-05 0)
(0 2.6954e-06 0)
(0 1.81996e-05 0)
(0 6.13604e-06 0)
(0 -3.11393e-06 0)
(0 3.45811e-06 0)
(0 1.05956e-06 0)
(0 1.74837e-06 0)
(0 -2.11975e-05 0)
(0 6.15467e-06 0)
(0 -2.76862e-05 0)
(0 -6.30123e-05 0)
(0 3.46501e-06 0)
(0 4.8948e-06 0)
(0 -2.38309e-05 0)
(0 -4.07583e-06 0)
(0 6.12261e-06 0)
(0 4.94251e-06 0)
(0 2.89623e-06 0)
(0 5.83257e-06 0)
(0 2.85955e-06 0)
(0 5.31538e-06 0)
(0 2.68414e-06 0)
(0 4.03168e-06 0)
(0 6.15086e-06 0)
(0 6.15416e-06 0)
(0 -3.44994e-05 0)
(0 6.12977e-06 0)
(0 5.79767e-06 0)
(0 1.14372e-05 0)
(0 6.15366e-06 0)
(0 1.59177e-06 0)
(0 1.90064e-05 0)
(0 -5.80842e-07 0)
(0 1.57321e-05 0)
(0 5.70756e-06 0)
(0 6.12411e-06 0)
(0 -2.06827e-05 0)
(0 6.15233e-06 0)
(0 -6.13204e-05 0)
(0 3.90643e-07 0)
(0 5.06277e-06 0)
(0 -2.2265e-05 0)
(0 6.14367e-06 0)
(0 -1.78777e-06 0)
(0 -2.22079e-05 0)
(0 -6.52037e-06 0)
(0 -5.16371e-06 0)
(0 5.48773e-06 0)
(0 5.8625e-06 0)
(0 6.1557e-06 0)
(0 5.0442e-06 0)
(0 6.13762e-06 0)
(0 1.64364e-06 0)
(0 -3.32945e-06 0)
(0 5.06509e-06 0)
(0 6.16487e-06 0)
(0 5.96962e-06 0)
(0 5.88875e-06 0)
(0 5.25901e-06 0)
(0 -5.34786e-06 0)
(0 -1.7653e-06 0)
(0 5.51505e-06 0)
(0 -4.42328e-06 0)
(0 6.13102e-06 0)
(0 1.01361e-05 0)
(0 6.15504e-06 0)
(0 -2.27795e-05 0)
(0 5.87845e-06 0)
(0 3.21679e-06 0)
(0 -1.13496e-05 0)
(0 6.05877e-06 0)
(0 -1.35048e-06 0)
(0 1.07538e-05 0)
(0 6.0138e-06 0)
(0 -1.69913e-06 0)
(0 1.78242e-05 0)
(0 -3.14723e-06 0)
(0 4.58618e-06 0)
(0 5.52975e-06 0)
(0 6.02858e-06 0)
(0 5.72071e-06 0)
(0 6.15408e-06 0)
(0 1.32334e-05 0)
(0 6.59318e-06 0)
(0 6.15412e-06 0)
(0 -5.7408e-06 0)
(0 6.06927e-06 0)
(0 1.79796e-06 0)
(0 -6.79545e-06 0)
(0 -2.40713e-06 0)
(0 2.32058e-06 0)
(0 -9.32601e-06 0)
(0 -2.20315e-05 0)
(0 -1.12526e-05 0)
(0 6.06088e-06 0)
(0 5.88108e-06 0)
(0 6.06201e-06 0)
(0 5.01624e-06 0)
(0 2.19206e-05 0)
(0 -2.23752e-06 0)
(0 6.07837e-06 0)
(0 1.26868e-05 0)
(0 7.90832e-07 0)
(0 -1.06511e-05 0)
(0 6.12473e-06 0)
(0 -3.93889e-07 0)
(0 6.14809e-06 0)
(0 9.35345e-06 0)
(0 5.81829e-06 0)
(0 2.68792e-06 0)
(0 1.96407e-06 0)
(0 -6.31835e-06 0)
(0 -3.58459e-05 0)
(0 -2.84797e-05 0)
(0 -2.25067e-05 0)
(0 -6.39618e-05 0)
(0 -1.49382e-05 0)
(0 5.95219e-06 0)
(0 6.15452e-06 0)
(0 -1.00882e-05 0)
(0 6.14036e-06 0)
(0 -7.78954e-06 0)
(0 -4.11752e-06 0)
(0 -3.34892e-06 0)
(0 5.38388e-06 0)
(0 6.16298e-06 0)
(0 -1.02987e-05 0)
(0 -3.04157e-05 0)
(0 6.0554e-06 0)
(0 1.24183e-05 0)
(0 -7.75871e-06 0)
(0 -3.95025e-06 0)
(0 6.15553e-06 0)
(0 6.11135e-06 0)
(0 5.91725e-06 0)
(0 5.49892e-06 0)
(0 5.88861e-06 0)
(0 -5.00331e-07 0)
(0 -4.81246e-06 0)
(0 6.1284e-06 0)
(0 1.88581e-05 0)
(0 5.98895e-06 0)
(0 -6.35206e-06 0)
(0 6.25997e-06 0)
(0 6.10616e-06 0)
(0 6.12154e-06 0)
(0 -2.10099e-07 0)
(0 6.15545e-06 0)
(0 4.38529e-07 0)
(0 -3.03163e-06 0)
(0 5.92027e-06 0)
(0 5.59073e-06 0)
(0 6.1244e-06 0)
(0 6.09392e-06 0)
(0 7.34248e-06 0)
(0 -6.76352e-06 0)
(0 6.12775e-06 0)
(0 -7.09964e-06 0)
(0 -1.25294e-05 0)
(0 -5.90966e-06 0)
(0 -7.5182e-06 0)
(0 5.89723e-06 0)
(0 4.16704e-06 0)
(0 1.62991e-06 0)
(0 6.14549e-06 0)
(0 -3.05801e-07 0)
(0 2.67203e-06 0)
(0 -1.12327e-05 0)
(0 1.3802e-05 0)
(0 -8.37735e-06 0)
(0 1.45552e-05 0)
(0 6.15448e-06 0)
(0 6.15382e-06 0)
(0 4.04089e-06 0)
(0 -3.10414e-06 0)
(0 -3.06139e-05 0)
(0 -2.75283e-05 0)
(0 -3.75974e-06 0)
(0 -2.07636e-07 0)
(0 1.72158e-06 0)
(0 6.12896e-06 0)
(0 6.10568e-06 0)
(0 4.7893e-07 0)
(0 5.10708e-06 0)
(0 4.18698e-06 0)
(0 -1.28354e-05 0)
(0 5.48102e-06 0)
(0 -5.05634e-06 0)
(0 6.16321e-06 0)
(0 5.78801e-06 0)
(0 6.1602e-06 0)
(0 6.04289e-06 0)
(0 -4.72694e-05 0)
(0 -1.15344e-05 0)
(0 6.14395e-06 0)
(0 6.14572e-06 0)
(0 6.15931e-06 0)
(0 5.4436e-06 0)
(0 5.51672e-06 0)
(0 6.15425e-06 0)
(0 1.39452e-05 0)
(0 5.01073e-06 0)
(0 6.14718e-06 0)
(0 9.49163e-07 0)
(0 1.3935e-05 0)
(0 -1.29055e-05 0)
(0 -1.26253e-06 0)
(0 6.15389e-06 0)
(0 6.15287e-06 0)
(0 5.85128e-06 0)
(0 -1.02486e-05 0)
(0 -3.58265e-05 0)
(0 3.78437e-06 0)
(0 6.15414e-06 0)
(0 -1.15368e-05 0)
(0 6.063e-06 0)
(0 4.01908e-06 0)
(0 -2.72124e-06 0)
(0 5.58195e-06 0)
(0 1.34384e-05 0)
(0 3.56171e-06 0)
(0 -4.59833e-06 0)
(0 1.50251e-06 0)
(0 1.40673e-05 0)
(0 -4.66668e-06 0)
(0 -2.5567e-05 0)
(0 5.6748e-06 0)
(0 3.33503e-06 0)
(0 6.15035e-06 0)
(0 -3.10827e-05 0)
(0 5.57015e-06 0)
(0 -8.5992e-06 0)
(0 5.12109e-06 0)
(0 5.36447e-06 0)
(0 4.12783e-06 0)
(0 3.39357e-06 0)
(0 -2.71752e-05 0)
(0 6.0839e-06 0)
(0 3.70585e-06 0)
(0 -4.93725e-06 0)
(0 6.15443e-06 0)
(0 6.37945e-07 0)
(0 -8.94129e-06 0)
(0 -7.01548e-06 0)
(0 5.3518e-06 0)
(0 6.15572e-06 0)
(0 5.14209e-06 0)
(0 -1.1593e-05 0)
(0 5.27995e-06 0)
(0 1.85518e-05 0)
(0 9.92017e-08 0)
(0 -1.4933e-05 0)
(0 6.01565e-06 0)
(0 6.15021e-06 0)
(0 2.06384e-05 0)
(0 -4.28575e-05 0)
(0 5.99042e-06 0)
(0 -7.77397e-06 0)
(0 6.02344e-06 0)
(0 6.15446e-06 0)
(0 -2.72508e-06 0)
(0 -3.50829e-06 0)
(0 5.24593e-06 0)
(0 -1.57379e-05 0)
(0 8.05513e-06 0)
(0 6.15451e-06 0)
(0 6.10493e-06 0)
(0 5.51223e-06 0)
(0 -5.26809e-06 0)
(0 6.15295e-06 0)
(0 5.61208e-06 0)
(0 -7.6567e-06 0)
(0 6.09348e-06 0)
(0 -1.52309e-05 0)
(0 6.12803e-06 0)
(0 -2.31444e-05 0)
(0 3.50602e-06 0)
(0 -1.86807e-07 0)
(0 -7.12308e-06 0)
(0 -2.79613e-06 0)
(0 1.7667e-05 0)
(0 6.1536e-06 0)
(0 -1.08036e-05 0)
(0 6.52798e-06 0)
(0 6.05457e-06 0)
(0 -1.18616e-06 0)
(0 1.52556e-05 0)
(0 3.64515e-06 0)
(0 3.26893e-06 0)
(0 1.33525e-05 0)
(0 6.08707e-06 0)
(0 1.39694e-05 0)
(0 4.18741e-06 0)
(0 6.14799e-06 0)
(0 -3.48073e-06 0)
(0 -8.068e-06 0)
(0 4.24248e-06 0)
(0 -4.57596e-07 0)
(0 4.66978e-06 0)
(0 1.33387e-06 0)
(0 -8.67961e-07 0)
(0 6.05116e-06 0)
(0 -3.48234e-06 0)
(0 1.89743e-06 0)
(0 -4.30211e-06 0)
(0 -5.50805e-05 0)
(0 7.98353e-06 0)
(0 -1.23993e-05 0)
(0 2.99387e-06 0)
(0 -7.93672e-06 0)
(0 -3.42281e-05 0)
(0 -4.36359e-06 0)
(0 -4.72174e-06 0)
(0 6.16165e-06 0)
(0 5.02579e-06 0)
(0 -7.60503e-06 0)
(0 4.91172e-06 0)
(0 -4.11883e-06 0)
(0 5.63449e-06 0)
(0 9.94644e-06 0)
(0 6.15438e-06 0)
(0 -1.81037e-06 0)
(0 -6.71287e-06 0)
(0 3.95446e-06 0)
(0 6.1256e-06 0)
(0 6.14626e-06 0)
(0 1.31472e-05 0)
(0 -1.03805e-05 0)
(0 1.96874e-05 0)
(0 2.06742e-06 0)
(0 1.72226e-05 0)
(0 -9.15685e-06 0)
(0 5.58652e-06 0)
(0 3.21857e-06 0)
(0 -5.90856e-05 0)
(0 5.98538e-06 0)
(0 5.44269e-06 0)
(0 1.61868e-05 0)
(0 -1.06079e-05 0)
(0 5.83636e-06 0)
(0 6.10404e-06 0)
(0 6.1327e-06 0)
(0 5.37942e-06 0)
(0 6.14557e-06 0)
(0 5.51953e-06 0)
(0 -2.50375e-06 0)
(0 -3.28729e-06 0)
(0 6.15451e-06 0)
(0 -9.24075e-06 0)
(0 8.04793e-07 0)
(0 1.20737e-06 0)
(0 9.15334e-08 0)
(0 2.52878e-06 0)
(0 -5.13915e-05 0)
(0 2.93192e-06 0)
(0 -3.37103e-06 0)
(0 -8.70095e-06 0)
(0 5.61717e-06 0)
(0 6.12224e-06 0)
(0 4.70802e-06 0)
(0 1.53407e-05 0)
(0 6.00072e-06 0)
(0 -4.69446e-06 0)
(0 6.16936e-06 0)
(0 6.15564e-06 0)
(0 -3.0953e-06 0)
(0 1.97851e-05 0)
(0 7.28613e-06 0)
(0 -3.2933e-06 0)
(0 -2.23704e-06 0)
(0 1.98263e-05 0)
(0 -2.38365e-06 0)
(0 6.13942e-06 0)
(0 6.06507e-06 0)
(0 -1.30715e-05 0)
(0 -2.92866e-06 0)
(0 5.1098e-06 0)
(0 4.14782e-06 0)
(0 1.48849e-05 0)
(0 1.9486e-06 0)
(0 3.3198e-06 0)
(0 6.03648e-06 0)
(0 1.15762e-06 0)
(0 -6.24784e-06 0)
(0 -7.16245e-06 0)
(0 -8.96885e-07 0)
(0 1.82924e-05 0)
(0 4.95017e-06 0)
(0 -5.44383e-06 0)
(0 6.14956e-06 0)
(0 3.29168e-06 0)
(0 4.6667e-06 0)
(0 -1.71521e-05 0)
(0 1.46674e-06 0)
(0 6.14515e-06 0)
(0 5.58137e-06 0)
(0 6.0148e-06 0)
(0 5.19259e-06 0)
(0 6.15444e-06 0)
(0 2.02828e-05 0)
(0 -3.55593e-06 0)
(0 -9.5864e-06 0)
(0 4.63349e-06 0)
(0 5.76809e-06 0)
(0 3.04531e-07 0)
(0 3.75595e-06 0)
(0 -2.65441e-06 0)
(0 1.38633e-05 0)
(0 1.50866e-05 0)
(0 -3.3195e-05 0)
(0 2.52107e-06 0)
(0 3.33497e-06 0)
(0 5.70217e-06 0)
(0 5.9165e-06 0)
(0 -6.03216e-06 0)
(0 6.15462e-06 0)
(0 3.92948e-06 0)
(0 1.29816e-05 0)
(0 -1.27543e-05 0)
(0 8.04186e-06 0)
(0 4.15116e-06 0)
(0 -5.60903e-06 0)
(0 -1.02176e-05 0)
(0 6.15085e-06 0)
(0 6.15452e-06 0)
(0 6.14771e-06 0)
(0 -3.87115e-05 0)
(0 6.15453e-06 0)
(0 -1.01252e-05 0)
(0 6.16164e-06 0)
(0 6.14994e-06 0)
(0 -5.11951e-06 0)
(0 -1.27877e-06 0)
(0 4.36871e-06 0)
(0 -1.04208e-05 0)
(0 1.44613e-05 0)
(0 6.12841e-06 0)
(0 -5.12134e-05 0)
(0 7.97554e-06 0)
(0 5.5663e-06 0)
(0 6.02849e-06 0)
(0 7.147e-06 0)
(0 -4.72458e-06 0)
(0 1.30692e-05 0)
(0 -8.85251e-06 0)
(0 3.62853e-06 0)
(0 1.25498e-05 0)
(0 6.14871e-06 0)
(0 -4.82584e-06 0)
(0 1.53075e-05 0)
(0 5.99733e-06 0)
(0 5.23871e-06 0)
(0 1.7485e-06 0)
(0 1.20851e-06 0)
(0 4.34192e-06 0)
(0 -6.18941e-06 0)
(0 6.13373e-06 0)
(0 -1.02238e-05 0)
(0 -1.56112e-06 0)
(0 6.13419e-06 0)
(0 1.56906e-05 0)
(0 6.14664e-06 0)
(0 1.48884e-05 0)
(0 2.92044e-06 0)
(0 6.05887e-06 0)
(0 6.08758e-06 0)
(0 -6.66265e-06 0)
(0 -3.08354e-06 0)
(0 4.22765e-06 0)
(0 -2.41328e-07 0)
(0 -1.4593e-06 0)
(0 2.97096e-06 0)
(0 -1.4579e-05 0)
(0 6.17029e-06 0)
(0 5.41375e-06 0)
(0 -2.44134e-05 0)
(0 5.46402e-06 0)
(0 6.03307e-06 0)
(0 4.68058e-06 0)
(0 1.14874e-05 0)
(0 6.11873e-06 0)
(0 3.75683e-06 0)
(0 -1.16969e-05 0)
(0 4.8244e-06 0)
(0 -6.75178e-06 0)
(0 -1.70748e-05 0)
(0 6.07878e-06 0)
(0 -7.56075e-06 0)
(0 -1.77625e-06 0)
(0 -8.70587e-06 0)
(0 6.14421e-06 0)
(0 -4.09537e-05 0)
(0 -9.16076e-07 0)
(0 6.13863e-06 0)
(0 -8.24924e-06 0)
(0 6.1541e-06 0)
(0 -1.19633e-05 0)
(0 -3.83795e-06 0)
(0 1.97498e-05 0)
(0 6.00197e-06 0)
(0 -3.21059e-05 0)
(0 -8.88909e-06 0)
(0 6.07068e-06 0)
(0 6.15378e-06 0)
(0 1.54354e-05 0)
(0 6.16284e-06 0)
(0 4.61134e-06 0)
(0 -4.72148e-05 0)
(0 -7.31643e-06 0)
(0 6.04963e-06 0)
(0 1.15273e-05 0)
(0 5.14936e-06 0)
(0 3.30191e-06 0)
(0 1.20082e-05 0)
(0 5.99115e-06 0)
(0 6.15392e-06 0)
(0 5.12609e-06 0)
(0 -6.84969e-06 0)
(0 6.15391e-06 0)
(0 2.77461e-06 0)
(0 6.12223e-06 0)
(0 5.63162e-06 0)
(0 -7.16703e-06 0)
(0 6.15424e-06 0)
(0 7.66828e-06 0)
(0 4.19381e-06 0)
(0 -3.25099e-05 0)
(0 6.11403e-06 0)
(0 1.30665e-05 0)
(0 -4.958e-05 0)
(0 5.31452e-06 0)
(0 4.24934e-06 0)
(0 4.89996e-06 0)
(0 1.6147e-05 0)
(0 -7.31005e-06 0)
(0 6.15446e-06 0)
(0 4.69406e-06 0)
(0 1.55611e-06 0)
(0 1.21572e-06 0)
(0 5.93534e-06 0)
(0 -3.41637e-06 0)
(0 -6.65167e-06 0)
(0 2.03987e-06 0)
(0 3.21905e-06 0)
(0 -1.56106e-05 0)
(0 -8.92515e-06 0)
(0 -2.95658e-06 0)
(0 1.98407e-05 0)
(0 -9.92582e-06 0)
(0 1.95778e-05 0)
(0 3.93553e-06 0)
(0 3.38115e-07 0)
(0 6.0253e-06 0)
(0 1.37591e-05 0)
(0 6.09336e-06 0)
(0 -6.20748e-06 0)
(0 -1.85542e-05 0)
(0 1.55633e-05 0)
(0 4.09329e-06 0)
(0 -7.37667e-06 0)
(0 -7.2442e-06 0)
(0 6.15398e-06 0)
(0 6.15045e-06 0)
(0 -3.88923e-06 0)
(0 1.10006e-05 0)
(0 6.1268e-06 0)
(0 5.24659e-07 0)
(0 6.13045e-06 0)
(0 4.95827e-06 0)
(0 5.84477e-06 0)
(0 6.15335e-06 0)
(0 6.16938e-06 0)
(0 6.07809e-06 0)
(0 -3.7213e-05 0)
(0 -4.59146e-05 0)
(0 1.65188e-05 0)
(0 5.74112e-06 0)
(0 -8.64449e-06 0)
(0 7.72926e-06 0)
(0 6.01783e-06 0)
(0 -3.77331e-06 0)
(0 6.81547e-06 0)
(0 1.31078e-06 0)
(0 6.15473e-06 0)
(0 5.93176e-06 0)
(0 1.64155e-05 0)
(0 6.15465e-06 0)
(0 6.11645e-06 0)
(0 -1.25729e-05 0)
(0 7.86011e-06 0)
(0 -4.86661e-06 0)
(0 6.03609e-06 0)
(0 -6.6525e-05 0)
(0 -3.32145e-06 0)
(0 2.01996e-06 0)
(0 1.37071e-05 0)
(0 -4.31491e-05 0)
(0 2.21719e-06 0)
(0 1.39851e-06 0)
(0 -2.55015e-05 0)
(0 -3.47681e-05 0)
(0 -1.60129e-05 0)
(0 6.7185e-06 0)
(0 4.30292e-06 0)
(0 -1.14331e-05 0)
(0 -1.59804e-05 0)
(0 -3.91551e-05 0)
(0 -8.99411e-06 0)
(0 5.00699e-06 0)
(0 5.28777e-06 0)
(0 5.19322e-06 0)
(0 -3.68066e-06 0)
(0 -7.64469e-06 0)
(0 7.28873e-06 0)
(0 1.15479e-05 0)
(0 6.16003e-06 0)
(0 -9.14586e-06 0)
(0 2.89474e-06 0)
(0 5.68123e-06 0)
(0 6.15238e-06 0)
(0 1.58812e-05 0)
(0 3.28599e-06 0)
(0 6.14944e-06 0)
(0 1.37819e-05 0)
(0 5.62798e-06 0)
(0 4.00066e-06 0)
(0 -1.05471e-05 0)
(0 6.1494e-06 0)
(0 6.10478e-06 0)
(0 4.17132e-06 0)
(0 6.16175e-06 0)
(0 -3.42212e-06 0)
(0 4.14512e-07 0)
(0 -5.5322e-05 0)
(0 6.15423e-06 0)
(0 1.33373e-05 0)
(0 6.14548e-06 0)
(0 -1.2332e-06 0)
(0 -3.90908e-07 0)
(0 5.85782e-06 0)
(0 6.14845e-06 0)
(0 6.05794e-06 0)
(0 6.05104e-06 0)
(0 3.1875e-06 0)
(0 6.05397e-06 0)
(0 1.73629e-05 0)
(0 6.12924e-06 0)
(0 7.56611e-07 0)
(0 1.62444e-05 0)
(0 -5.79222e-05 0)
(0 -6.65382e-05 0)
(0 2.71757e-06 0)
(0 5.5065e-06 0)
(0 6.14012e-06 0)
(0 -7.49684e-06 0)
(0 -5.50132e-06 0)
(0 6.35457e-06 0)
(0 -4.86066e-05 0)
(0 6.15447e-06 0)
(0 6.01127e-06 0)
(0 3.78701e-06 0)
(0 2.32052e-05 0)
(0 2.57806e-06 0)
(0 -2.72438e-06 0)
(0 6.14229e-06 0)
(0 -6.52303e-05 0)
(0 3.24937e-06 0)
(0 5.84231e-06 0)
(0 -9.01006e-06 0)
(0 -1.33184e-05 0)
(0 -4.70098e-08 0)
(0 1.91941e-06 0)
(0 6.0151e-06 0)
(0 -3.46564e-06 0)
(0 5.90446e-06 0)
(0 -4.46143e-05 0)
(0 5.47993e-06 0)
(0 6.15451e-06 0)
(0 2.32109e-06 0)
(0 3.89051e-06 0)
(0 5.84479e-06 0)
(0 -1.69627e-05 0)
(0 6.15444e-06 0)
(0 6.15575e-06 0)
(0 5.60868e-06 0)
(0 6.11631e-06 0)
(0 -6.84458e-06 0)
(0 5.85487e-06 0)
(0 5.99788e-06 0)
(0 1.16955e-06 0)
(0 2.44771e-05 0)
(0 6.11597e-06 0)
(0 3.69133e-06 0)
(0 1.60621e-05 0)
(0 -3.29131e-06 0)
(0 6.15711e-06 0)
(0 -4.03149e-06 0)
(0 1.50221e-05 0)
(0 2.67353e-06 0)
(0 2.9893e-06 0)
(0 6.15443e-06 0)
(0 3.66818e-06 0)
(0 -4.61524e-05 0)
(0 3.67294e-06 0)
(0 4.7206e-06 0)
(0 5.83201e-06 0)
(0 -2.01407e-05 0)
(0 6.15443e-06 0)
(0 -1.01161e-08 0)
(0 6.16481e-06 0)
(0 4.89084e-06 0)
(0 5.41826e-06 0)
(0 -6.88181e-06 0)
(0 6.03657e-06 0)
(0 6.12082e-06 0)
(0 -1.00564e-05 0)
(0 -5.05503e-06 0)
(0 5.37069e-06 0)
(0 -4.03552e-05 0)
(0 5.07196e-06 0)
(0 5.84641e-06 0)
(0 6.16908e-06 0)
(0 -9.06416e-06 0)
(0 -8.54465e-06 0)
(0 6.12203e-06 0)
(0 -1.76203e-06 0)
(0 6.119e-06 0)
(0 6.05309e-06 0)
(0 -2.62474e-05 0)
(0 5.98713e-06 0)
(0 2.73522e-06 0)
(0 5.90288e-06 0)
(0 -8.91119e-06 0)
(0 6.15527e-06 0)
(0 1.34361e-05 0)
(0 6.15351e-06 0)
(0 -1.58394e-05 0)
(0 -8.5964e-07 0)
(0 -3.63946e-05 0)
(0 -6.77853e-06 0)
(0 6.0965e-06 0)
(0 -2.98852e-05 0)
(0 -8.64062e-06 0)
(0 -6.67696e-06 0)
(0 6.15368e-06 0)
(0 1.31441e-05 0)
(0 -1.29815e-05 0)
(0 6.15585e-06 0)
(0 -6.83466e-06 0)
(0 -5.19513e-05 0)
(0 2.15997e-05 0)
(0 -3.49745e-05 0)
(0 -7.34396e-07 0)
(0 6.20518e-06 0)
(0 2.19176e-06 0)
(0 6.03596e-06 0)
(0 2.83699e-06 0)
(0 -6.0363e-05 0)
(0 6.03546e-06 0)
(0 6.15653e-06 0)
(0 5.99865e-06 0)
(0 6.15472e-06 0)
(0 -1.90522e-05 0)
(0 2.49613e-06 0)
(0 -1.53222e-06 0)
(0 1.93602e-05 0)
(0 -1.88856e-05 0)
(0 6.16893e-06 0)
(0 6.16149e-06 0)
(0 -1.2294e-05 0)
(0 2.31489e-06 0)
(0 -3.36807e-06 0)
(0 6.14736e-06 0)
(0 -1.30409e-05 0)
(0 5.41345e-06 0)
(0 5.45262e-06 0)
(0 6.05867e-06 0)
(0 6.14699e-06 0)
(0 6.15456e-06 0)
(0 6.15322e-06 0)
(0 -6.79393e-05 0)
(0 5.49344e-06 0)
(0 6.15393e-06 0)
(0 6.14982e-06 0)
(0 1.26675e-06 0)
(0 -4.82772e-06 0)
(0 -9.14197e-06 0)
(0 6.21302e-06 0)
(0 5.04356e-06 0)
(0 3.00535e-06 0)
(0 2.16088e-06 0)
(0 -2.42184e-06 0)
(0 6.15445e-06 0)
(0 -9.38164e-06 0)
(0 -6.57442e-06 0)
(0 5.88737e-06 0)
(0 3.62035e-06 0)
(0 -6.36492e-06 0)
(0 -1.03495e-05 0)
(0 -8.54099e-06 0)
(0 1.40052e-05 0)
(0 6.1356e-06 0)
(0 6.1111e-06 0)
(0 6.15419e-06 0)
(0 6.0987e-06 0)
(0 5.36142e-07 0)
(0 5.96421e-06 0)
(0 -3.98808e-05 0)
(0 5.30861e-06 0)
(0 8.71036e-06 0)
(0 -9.57568e-06 0)
(0 -5.10949e-05 0)
(0 6.16637e-06 0)
(0 -8.93184e-06 0)
(0 -8.15721e-06 0)
(0 6.10015e-06 0)
(0 6.16271e-06 0)
(0 5.65807e-06 0)
(0 3.96547e-06 0)
(0 -5.25201e-06 0)
(0 2.13014e-06 0)
(0 6.1545e-06 0)
(0 6.15452e-06 0)
(0 5.87995e-06 0)
(0 6.16107e-06 0)
(0 5.97469e-06 0)
(0 6.14673e-06 0)
(0 6.04824e-06 0)
(0 5.744e-06 0)
(0 1.46602e-06 0)
(0 -1.32945e-05 0)
(0 -2.11261e-06 0)
(0 4.17374e-06 0)
(0 -2.09471e-05 0)
(0 -1.17797e-06 0)
(0 5.8633e-06 0)
(0 1.10902e-05 0)
(0 -6.32523e-06 0)
(0 -5.66633e-06 0)
(0 6.12511e-06 0)
(0 1.76618e-06 0)
(0 1.75245e-05 0)
(0 -1.43679e-06 0)
(0 -1.02094e-05 0)
(0 5.84747e-06 0)
(0 5.81774e-06 0)
(0 5.91889e-06 0)
(0 -3.1089e-05 0)
(0 6.15415e-06 0)
(0 -2.37787e-05 0)
(0 -7.12498e-06 0)
(0 2.99867e-06 0)
(0 5.72216e-06 0)
(0 -1.45919e-05 0)
(0 6.09698e-06 0)
(0 -6.59346e-06 0)
(0 6.14594e-06 0)
(0 1.54338e-05 0)
(0 6.15436e-06 0)
(0 5.53576e-06 0)
(0 -6.68183e-06 0)
(0 -1.19992e-06 0)
(0 -9.11395e-06 0)
(0 6.15405e-06 0)
(0 6.14188e-06 0)
(0 6.15481e-06 0)
(0 7.38824e-06 0)
(0 -5.71553e-06 0)
(0 -1.63396e-05 0)
(0 6.14462e-06 0)
(0 2.44604e-06 0)
(0 9.70372e-06 0)
(0 5.82634e-06 0)
(0 -8.77279e-06 0)
(0 -7.64487e-06 0)
(0 6.15964e-06 0)
(0 -6.02878e-05 0)
(0 -8.29694e-06 0)
(0 1.03596e-05 0)
(0 4.23439e-06 0)
(0 -5.31807e-05 0)
(0 -4.95941e-05 0)
(0 -5.88342e-06 0)
(0 -4.13916e-06 0)
(0 5.52137e-07 0)
(0 1.54444e-06 0)
(0 1.9835e-05 0)
(0 6.15449e-06 0)
(0 -9.92951e-06 0)
(0 6.13208e-06 0)
(0 6.15454e-06 0)
(0 5.04827e-06 0)
(0 6.14711e-06 0)
(0 6.1451e-06 0)
(0 -9.42538e-06 0)
(0 -6.82163e-06 0)
(0 1.35961e-05 0)
(0 -9.17826e-07 0)
(0 6.0012e-06 0)
(0 1.35716e-06 0)
(0 6.03095e-06 0)
(0 2.92719e-06 0)
(0 1.94703e-07 0)
(0 -7.52852e-06 0)
(0 -8.71721e-07 0)
(0 1.06275e-05 0)
(0 6.01036e-06 0)
(0 5.31233e-06 0)
(0 6.16239e-06 0)
(0 -3.76013e-05 0)
(0 4.59294e-06 0)
(0 -1.38589e-05 0)
(0 1.93178e-05 0)
(0 -3.6512e-06 0)
(0 -4.5568e-06 0)