/*--------------------------------*- C++ -*----------------------------------*\
| =========                 |                                                 |
| \\      /  F ield         | OpenFOAM: The Open Source CFD Toolbox           |
|  \\    /   O peration     | Version:  v2012                                 |
|   \\  /    A nd           | Website:  www.openfoam.com                      |
|    \\/     M anipulation  |                                                 |
\*---------------------------------------------------------------------------*/
FoamFile
{
    version     2.0;
    format      ascii;
    class       surfaceVectorField;
    location    "650";
    object      ddtCorrDdt0(Uf);
}
// * * * * * * * * * * * * * * * * * * * * * * * * * * * * * * * * * * * * * //

dimensions      [0 1 -2 0 0 0 0];


internalField   nonuniform List<vector> 
27882
(
(-0.00357138 -0.00604489 -3.95892e-19)
(-0.0028144 -0.00685294 -1.50958e-19)
(-0.00262386 -0.00543178 -9.02532e-19)
(-0.00822792 -0.0518099 1.48005e-18)
(-0.00164627 -0.0561809 2.87052e-18)
(0.00100664 -0.0460338 1.12896e-18)
(-2.60965e-05 3.34602e-06 2.75342e-19)
(-2.31149e-05 4.44483e-06 -3.5443e-19)
(-1.80529e-05 4.39931e-06 -3.18798e-19)
(-0.00499154 -0.00663876 6.51377e-19)
(-0.00414724 -0.00522194 -3.43767e-19)
(0.00162634 0.00764498 -1.74176e-19)
(0.00277717 0.00766911 -5.70968e-20)
(0.0019295 0.00867603 3.94149e-19)
(-1.25933e-05 -6.77963e-06 -2.74948e-20)
(-1.29642e-05 -8.87314e-06 -2.19986e-20)
(-1.45595e-05 -7.25186e-06 -1.1368e-19)
(-0.000379327 6.65468e-05 -1.64385e-20)
(-0.000384182 7.10113e-05 5.70155e-19)
(-0.000384554 4.81678e-05 -1.15259e-19)
(-0.00142581 0.00100279 1.37364e-18)
(-0.00158773 0.00102089 4.72924e-19)
(-0.00148809 0.00121032 1.54091e-18)
(0.000557366 0.00749249 -2.97644e-19)
(0.00132633 0.00671516 -2.34458e-19)
(-0.000286683 0.00727778 -3.68187e-20)
(-0.00112443 0.00684955 -9.26803e-21)
(-0.000347138 0.00629671 -6.42571e-19)
(-0.0262921 -0.0404687 -5.8063e-20)
(-0.0183168 -0.0399286 7.08484e-19)
(-0.0211375 -0.0323989 -1.93038e-19)
(-0.061676 0.0284822 1.32111e-18)
(-0.0531505 0.00904062 4.68324e-20)
(-0.0714243 0.00507479 -8.70117e-19)
(-0.0365982 0.0727975 1.15189e-19)
(-0.017171 0.0656808 6.66239e-19)
(-0.0256377 0.0834298 -7.73955e-20)
(-0.00188902 -0.00088041 -8.31196e-19)
(-0.00190295 -0.000995035 4.5164e-19)
(-0.00177736 -0.000924405 7.60058e-20)
(-0.000366088 9.26107e-05 -6.10524e-19)
(-0.000373238 7.95736e-05 -7.44473e-19)
(-0.000369348 0.00010159 -5.36426e-19)
(-0.000275832 6.89572e-05 -2.49048e-19)
(-0.000270536 6.51035e-05 2.90814e-19)
(-0.000271888 6.96132e-05 -6.01226e-19)
(-0.0714691 0.0538359 7.37204e-19)
(-0.0562376 0.0551932 3.90891e-19)
(-5.01937e-06 5.28655e-05 -3.07215e-20)
(-6.91343e-06 5.32349e-05 8.03818e-21)
(-0.000359269 0.00010171 9.74327e-19)
(-0.000362728 8.21461e-05 7.56777e-19)
(0.00252453 -0.000160052 -4.47679e-20)
(0.00294067 -0.000237485 1.34116e-19)
(0.0027167 0.000196172 1.50437e-19)
(0.0227191 -0.0901 2.10574e-19)
(0.00855386 -0.10223 3.71418e-18)
(0.00937361 -0.0861401 -6.33796e-18)
(0.0635795 -0.0358206 1.80477e-17)
(0.0617666 -0.0331597 2.81087e-19)
(0.0604734 -0.0360423 2.47959e-18)
(-1.2588e-05 -4.2414e-06 2.52701e-20)
(-1.00422e-05 -5.89253e-06 2.69835e-20)
(-1.43411e-05 1.0045e-05 6.00247e-20)
(-1.12752e-05 1.05016e-05 7.77874e-20)
(-1.46605e-05 1.44328e-05 7.88353e-20)
(0.0654495 -0.0380673 -9.5131e-19)
(0.0673897 -0.0353473 2.0089e-19)
(0.0346539 -0.097287 3.98135e-19)
(0.0339305 -0.0931493 -4.2374e-19)
(0.0394173 -0.0957058 -9.46798e-20)
(-0.00746233 0.364488 -4.82533e-18)
(0.00319705 0.395753 1.62889e-17)
(0.008585 0.409232 1.34675e-17)
(-0.0849674 0.0275773 3.03569e-18)
(-0.0808425 0.0205685 7.96117e-19)
(-0.0907087 0.0226567 7.37417e-19)
(-0.010203 -0.0352965 -1.6584e-18)
(-0.0113216 -0.0374215 -1.10589e-18)
(-0.0124534 -0.0348994 -3.51401e-19)
(0.00149559 -0.0827851 4.91125e-19)
(0.00937111 -0.0819396 1.22783e-19)
(0.0108296 -0.069516 -6.43413e-19)
(0.0333934 -0.0233549 -4.07967e-18)
(0.0544324 -0.108609 -1.4405e-18)
(0.0137778 -0.0298618 1.84464e-18)
(-0.0169449 0.327272 -2.17468e-17)
(-0.0169785 0.289371 1.24326e-17)
(-0.00126203 0.000976483 -7.62194e-19)
(-0.00136737 0.000840531 -6.8227e-19)
(0.0718301 -0.0610246 -3.13617e-18)
(0.0749187 -0.0596055 -1.28719e-19)
(0.075204 -0.0635821 1.50096e-17)
(0.00397736 0.00772774 -3.2912e-19)
(0.00512777 0.00792918 -1.56405e-19)
(0.00436208 0.00893137 2.38984e-19)
(-0.00806603 -0.0807138 -5.11362e-18)
(-0.0112946 -0.0942319 4.69833e-19)
(-0.0418796 0.0639285 -4.81083e-19)
(-0.0593709 0.0803175 -3.08364e-19)
(0.00346317 0.0067945 -2.5905e-19)
(-0.0566021 -0.0750467 -3.34028e-18)
(-0.0752113 -0.0574998 1.47457e-17)
(-0.0716083 -0.204138 -6.07114e-18)
(0.000333643 -0.000343593 -1.45048e-20)
(0.000384008 -0.00028836 5.35531e-20)
(0.000291128 -0.000277928 -4.06883e-20)
(-0.0239664 -0.0380581 3.42395e-18)
(-0.0293093 -0.0605411 5.17612e-19)
(-0.0198941 -0.0607521 2.09724e-18)
(-0.00329803 0.00673033 3.01859e-19)
(-0.00403199 0.00765422 3.35519e-19)
(-0.00269669 0.0075335 7.78039e-20)
(-0.0565297 0.0622425 -3.86989e-20)
(-0.0569684 0.0461895 -1.29169e-18)
(-0.0599862 0.0408515 1.41407e-18)
(-3.74617e-05 0.000922559 -3.33487e-20)
(-0.000207637 0.000840732 -2.5239e-20)
(-0.000269037 0.00106216 -4.34027e-20)
(-0.00022543 3.43496e-06 -5.19055e-19)
(-0.000223826 4.75696e-06 -8.87255e-20)
(-0.000225184 3.19811e-06 -3.94144e-19)
(0.122289 -0.126605 2.15476e-18)
(0.131727 -0.149724 -1.55416e-18)
(0.11478 -0.153139 -1.93359e-18)
(-0.00382821 0.00604993 -9.65583e-20)
(-0.0028924 0.00610129 -4.03724e-20)
(-0.0176688 -0.0358172 7.18521e-20)
(-0.0190044 -0.0331711 -7.41447e-20)
(-0.0205572 -0.0361405 5.35647e-20)
(0.0788734 0.0891174 6.15282e-18)
(0.0655462 0.10199 -4.7476e-18)
(0.0840348 0.0915278 6.25818e-20)
(-0.0061347 -0.00278934 -4.42554e-19)
(-0.00588497 -0.00393166 1.41931e-19)
(-0.00515876 -0.00293615 1.75672e-19)
(-0.0351433 -0.0380688 -1.42194e-19)
(-0.0322698 -0.0487113 6.90292e-19)
(0.264168 -0.0816985 7.84106e-20)
(0.285682 -0.0639889 -1.303e-19)
(0.279433 -0.071114 -7.22669e-19)
(-0.00725041 -0.00245114 -3.98413e-19)
(-0.00599854 -0.00169475 -7.78811e-20)
(-0.00286221 -0.00292649 -2.46917e-19)
(-0.0029428 -0.00244768 -9.39058e-21)
(-0.00338784 -0.00291102 -1.18666e-19)
(0.0329406 -0.0350655 -3.06958e-18)
(0.0348164 -0.0336304 -5.97608e-18)
(0.0352605 -0.0361461 -9.95106e-18)
(-0.00255559 0.0574416 1.03968e-19)
(-0.0119002 0.0537035 -1.05383e-18)
(0.000408067 -8.04845e-05 -2.42646e-19)
(0.000375515 -1.38405e-05 -2.67352e-19)
(0.000477518 -6.4315e-06 -3.47008e-19)
(0.00216424 -3.39116e-05 -6.21707e-20)
(0.00231011 -0.000417848 -3.64359e-19)
(-0.0200437 -0.0308966 8.13662e-20)
(-0.0226111 -0.0308456 1.66369e-19)
(-0.0209292 -0.0284385 -4.97525e-20)
(0.000442525 -0.000158907 2.67326e-19)
(0.000347547 -0.000144372 3.06798e-19)
(-0.000231454 6.91873e-06 -4.89835e-20)
(-0.000229488 3.80794e-06 2.82122e-19)
(-0.000228556 6.63374e-06 1.65703e-20)
(0.000164311 0.000995799 -1.75623e-19)
(0.000124335 0.000776602 1.87515e-20)
(-0.0308453 -0.339268 -4.02008e-18)
(-0.0325349 -0.273251 -1.33202e-17)
(0.0925545 -0.0399619 5.35095e-19)
(0.0431809 -0.049393 -1.21572e-18)
(0.06255 -0.0479289 8.56384e-19)
(-0.00023434 6.32387e-06 -1.94568e-19)
(-0.000230671 6.93767e-06 -2.37972e-19)
(0.0774317 -0.0438713 5.78512e-18)
(0.074241 -0.039692 -1.18875e-18)
(0.0713406 -0.0330922 -4.66331e-18)
(-7.55295e-05 2.98118e-06 -7.51276e-20)
(-7.44496e-05 4.15691e-06 -2.86808e-20)
(-7.30665e-05 3.60563e-06 -8.79e-20)
(-6.52495e-05 4.48396e-05 9.88688e-20)
(-6.16858e-05 3.53472e-05 -1.29956e-19)
(-5.83289e-05 2.5312e-05 -3.06057e-21)
(-0.0770932 0.0320423 1.07862e-18)
(-0.086372 0.0366463 2.55355e-18)
(-3.84566e-06 3.15255e-05 1.47781e-20)
(-4.9696e-06 5.25718e-05 -2.38833e-21)
(0.245452 -0.0906113 9.32658e-19)
(0.240353 -0.100364 -4.39499e-19)
(0.031513 -0.109407 -2.37279e-19)
(0.034666 -0.105659 3.53651e-19)
(0.038171 -0.103695 5.0636e-20)
(-0.000337881 0.000127848 -6.22283e-19)
(-0.000344373 0.000136723 1.87931e-19)
(-0.000344016 0.000126292 -3.16322e-19)
(0.00550127 0.00411747 8.65507e-20)
(0.00487002 0.00423278 -1.21576e-19)
(0.00487435 0.00354315 1.14068e-19)
(0.0417513 0.0181507 7.40183e-19)
(0.0399273 0.0220759 1.07648e-19)
(0.0372064 0.017872 -5.21204e-19)
(0.0486049 -0.00272917 -3.95418e-18)
(-0.016678 0.127445 -2.23975e-18)
(0.103208 0.0237239 -1.16507e-18)
(0.109136 0.0132358 3.28131e-18)
(0.0912757 -0.000492646 4.99761e-19)
(-0.0696413 0.104601 -5.07624e-19)
(-0.0593681 0.114051 2.8736e-18)
(-0.0622744 0.138392 2.33363e-18)
(-0.000273092 0.00822331 -2.44458e-19)
(-0.0507358 0.0845103 -6.03035e-18)
(-0.0524985 0.0752835 8.28842e-18)
(0.0118563 -0.0306144 -5.73126e-19)
(0.0128779 -0.0293148 5.70495e-18)
(0.0134363 -0.0312315 2.71445e-18)
(-0.0360802 -0.0956142 -7.85891e-18)
(-0.0390677 0.0193873 -1.23261e-17)
(-0.0767207 0.0783448 1.13915e-18)
(-0.0769064 0.0970804 1.30488e-18)
(0.0186432 0.0152577 -5.52663e-20)
(0.0209279 0.015729 -3.28914e-20)
(0.019324 0.0177813 -2.14031e-20)
(-0.00174802 0.00111412 -9.2153e-19)
(-0.00138378 0.00120721 -2.83072e-19)
(-0.00167484 0.00155999 -5.19277e-19)
(0.0279833 -0.0286845 -1.08616e-18)
(0.0291577 -0.0302161 5.0281e-18)
(0.026776 -0.0305659 -1.21393e-18)
(-0.00106174 -0.00336138 -4.35224e-18)
(-0.00102103 -0.00312948 1.03985e-18)
(0.00622413 0.00469822 7.24589e-20)
(0.00627577 0.00375428 -2.48574e-20)
(-0.00514214 -0.275659 5.62276e-18)
(-0.0316753 -0.405074 6.62916e-18)
(0.0285673 -0.0265485 4.6179e-18)
(0.0265569 -0.027241 -1.80301e-18)
(0.126333 -0.130236 -2.89503e-18)
(0.090289 -0.155799 5.02447e-18)
(0.0911762 -0.134862 -3.08935e-18)
(-0.000249112 8.41606e-06 -2.12249e-19)
(-0.000238161 7.52113e-06 -4.432e-19)
(-0.000228176 1.37935e-05 -1.17911e-19)
(0.00816582 -0.0211584 -1.89724e-19)
(0.0085364 -0.020522 5.21982e-19)
(0.00920355 -0.0214659 4.86327e-18)
(0.0874839 0.0802653 1.66178e-18)
(0.0718463 0.088187 1.11179e-17)
(-0.000332577 0.000129202 3.19291e-19)
(-0.000332279 0.000116794 3.42114e-19)
(-6.37359e-05 3.85237e-06 -3.21174e-20)
(-6.25276e-05 6.22212e-06 -4.44923e-21)
(-6.45387e-05 1.00101e-05 -2.78615e-19)
(7.56309e-05 -8.06694e-05 -2.63809e-20)
(5.74959e-05 -6.31889e-05 1.84319e-20)
(5.29174e-05 -6.21346e-05 7.59684e-21)
(-0.00956291 -0.0205784 -3.8679e-18)
(-0.00809712 -0.0205537 7.92486e-18)
(-0.00906822 -0.0220467 1.83575e-18)
(-0.0410352 0.157451 -3.28215e-18)
(-0.046218 0.119926 -2.64723e-18)
(-0.0305879 0.126674 -9.25013e-18)
(-0.000276257 8.235e-05 -1.29565e-19)
(-0.000282034 6.16403e-05 -2.44976e-19)
(-0.000270292 7.66445e-05 -1.07729e-19)
(0.0922552 -0.0676345 2.41859e-18)
(0.120164 -0.0932661 1.0683e-18)
(0.00822585 -0.0034868 -6.52803e-19)
(0.0087478 -0.00273307 1.2798e-18)
(0.00773532 -0.00262827 -4.72963e-19)
(-6.95081e-05 6.17899e-05 1.66402e-19)
(-6.86321e-05 5.44958e-05 9.3282e-21)
(-6.24133e-05 -2.02522e-06 6.24936e-20)
(-6.41112e-05 6.27503e-07 3.55289e-20)
(0.0820442 -0.0448896 1.1002e-17)
(0.0814672 -0.051529 -1.34339e-19)
(0.0326481 -0.0904421 -1.09896e-18)
(0.0287222 -0.0774429 2.87187e-20)
(-0.0150679 -0.035366 7.10552e-19)
(-0.0164471 -0.0383516 -8.36845e-19)
(0.15848 -0.108419 -6.00935e-18)
(0.155294 -0.120526 -8.63171e-19)
(0.127286 -0.000140323 -1.24331e-18)
(0.135517 -0.0147507 2.68799e-19)
(0.119068 -0.00878441 9.99899e-19)
(-0.0425358 -0.086959 2.7325e-19)
(-0.0353771 -0.104686 -2.92051e-19)
(-0.0269333 -0.0925058 7.33679e-19)
(-0.000290126 6.39519e-05 4.57678e-19)
(-0.000284134 6.3264e-05 5.53994e-19)
(-0.000288415 5.76757e-05 -8.91462e-21)
(0.117564 -0.0288889 -3.31617e-19)
(0.0952475 -0.014153 2.34307e-19)
(-0.00718492 -0.000381851 -2.26674e-19)
(-0.00662493 -0.00128285 -4.29623e-19)
(-0.00601938 -0.00029066 -3.37971e-19)
(-2.52975e-06 -4.67421e-06 7.36373e-20)
(-3.43403e-08 -2.99423e-06 1.73602e-19)
(-8.7331e-06 -1.34316e-06 2.0135e-19)
(0.00851637 -0.00450748 -4.54696e-20)
(0.00753007 -0.00422842 3.05631e-20)
(-0.146915 -0.0372161 1.56229e-18)
(-0.147698 -0.0504665 -6.56128e-19)
(-0.167376 -0.0257316 -4.91062e-18)
(-0.011244 -0.0206055 -1.34332e-18)
(-0.0103356 -0.0190794 -1.9335e-19)
(5.11445e-05 -0.000289775 2.67156e-19)
(0.000114158 -0.000316524 2.06882e-19)
(7.28218e-05 -0.000261082 3.42075e-20)
(-0.1032 -0.0973821 -4.4045e-18)
(-0.0999703 -0.110804 2.85507e-19)
(-0.0813855 -0.118131 1.53659e-18)
(-0.00249448 0.000340492 -2.09938e-20)
(-0.00257482 0.00079844 2.84879e-19)
(-0.00305473 0.000511693 1.45878e-19)
(3.01281e-06 1.40372e-05 -1.92306e-19)
(-2.6287e-06 1.40359e-05 -1.80162e-19)
(3.96667e-06 1.87334e-05 -1.67754e-19)
(0.107134 0.0350637 -2.84865e-18)
(0.0941336 0.0282114 -3.92714e-19)
(-0.002145 0.00101401 -1.67873e-19)
(-0.00173118 0.00076692 1.79949e-19)
(2.14964e-05 -8.1769e-05 -1.91178e-19)
(2.82618e-05 -8.1192e-05 4.39616e-19)
(1.56965e-05 -6.48576e-05 1.80938e-19)
(-0.00947116 0.17925 -6.71938e-18)
(-0.00366089 0.176225 -3.38177e-18)
(-0.00715527 0.174945 8.75389e-19)
(-0.00262307 -0.00335841 -9.14194e-20)
(-0.00238283 -0.00285049 -2.82964e-19)
(-0.000229564 0.000412095 -3.24569e-19)
(-0.00013801 0.000494106 -4.77269e-21)
(-0.000109051 0.00036145 -7.04021e-21)
(2.74016e-05 -9.48508e-05 -1.11076e-19)
(1.51983e-05 -8.07593e-05 1.18447e-19)
(-0.00537801 -0.0651378 8.68934e-19)
(-0.00523418 -0.060793 -1.82851e-19)
(-0.00926769 -0.0635774 3.03461e-19)
(-0.0155443 0.184232 -2.01024e-18)
(-0.012531 0.187414 -5.72713e-18)
(-0.0177271 -0.030945 -2.39491e-19)
(-0.0001739 1.39967e-05 1.86288e-19)
(-0.000175514 1.00651e-05 8.5401e-21)
(-0.000159597 1.77521e-05 -9.4627e-20)
(-0.00687481 0.00354341 1.22351e-18)
(-0.00661534 0.00415441 -4.68651e-19)
(-0.00736007 0.00413586 1.97629e-19)
(0.19014 -0.0309754 6.73814e-19)
(0.176344 -0.037262 4.04666e-19)
(0.18998 -0.0456229 -9.96978e-19)
(0.000400758 -0.00042591 1.68259e-20)
(0.000286212 -0.000391887 -4.97075e-20)
(-5.44931e-05 1.19124e-05 -4.78061e-21)
(-4.99193e-05 1.33605e-05 9.82725e-20)
(-5.36269e-05 1.6987e-05 -2.8241e-20)
(0.022008 0.0583275 5.04487e-19)
(0.0310183 0.044802 3.17804e-18)
(0.0121842 0.0339429 2.78209e-18)
(-0.00173814 9.69263e-05 -3.92871e-21)
(-0.00211875 0.000250907 -3.78737e-19)
(-0.00174644 0.000418137 1.7962e-19)
(-0.0835891 -0.0502154 -4.43025e-19)
(-0.0917164 -0.0545931 -1.10292e-19)
(-0.0902066 -0.0448949 4.48175e-18)
(0.0107577 -0.0320384 -4.09193e-18)
(0.0099552 -0.0302896 -2.51573e-18)
(-0.00772356 0.000780093 -8.16868e-20)
(-0.0086011 -0.000238321 3.71268e-20)
(-0.0529034 -0.0761349 -6.66876e-20)
(-0.0463294 -0.0994523 1.08568e-18)
(-0.0531601 -0.0996816 7.48131e-19)
(-0.00489609 -0.0149018 2.67143e-18)
(-0.00394802 -0.014725 -8.74805e-19)
(-0.00434402 -0.0158952 3.9593e-18)
(0.120356 0.0102516 1.47822e-18)
(0.13192 0.00823242 -3.98276e-18)
(-0.0152761 0.181952 -8.53263e-18)
(-0.0111787 0.183448 -2.71662e-18)
(0.00390967 -0.0141065 -2.1668e-18)
(0.00439043 -0.0134865 -1.86833e-19)
(0.00475591 -0.0144517 -1.13342e-17)
(0.0866561 -0.0459908 3.94668e-18)
(0.0820704 -0.0363564 6.27387e-18)
(-0.00474573 -0.0573529 3.39432e-19)
(-0.00805555 -0.0556207 3.82364e-19)
(-0.00460747 -0.0535759 1.14523e-18)
(-0.0134937 -0.0469888 -1.89468e-18)
(-0.00987856 -0.0378994 -4.19194e-19)
(0.0577632 -0.233401 5.63966e-19)
(0.0529544 -0.224634 -2.02326e-18)
(0.080918 -0.208027 5.26143e-18)
(-0.0107691 0.181722 6.32877e-18)
(-0.0259171 0.193365 -1.67759e-18)
(-0.027856 0.170548 3.79308e-18)
(-0.00827445 0.196255 -1.05563e-17)
(-0.0122673 0.196994 1.92618e-17)
(-0.0084243 0.191995 -4.10206e-17)
(-0.0004755 -0.000387546 1.32245e-18)
(-0.000483724 -0.000396727 8.15747e-19)
(-0.000501225 -0.000396516 -7.53771e-19)
(0.00594647 0.0073003 1.94243e-19)
(0.00583037 0.00605166 1.65068e-19)
(0.00708637 0.00652236 2.50559e-19)
(-0.0176753 -0.0139774 -2.06301e-18)
(-0.0248697 -0.0140124 1.08664e-18)
(0.149955 0.117576 5.50672e-18)
(0.165384 0.0646653 2.04193e-18)
(0.00714304 -0.0219947 1.7526e-18)
(0.00695924 -0.020361 -4.69548e-18)
(-0.00392129 -0.0684425 3.60048e-19)
(-0.00148265 -0.0650511 -1.385e-18)
(0.0235887 0.0109031 -1.62893e-19)
(0.0265389 0.0109734 -9.10419e-21)
(0.0248436 0.00850995 -6.79302e-20)
(-0.0180643 -0.0568631 -4.95692e-20)
(-0.230752 -0.410507 -2.15379e-19)
(-0.227574 -0.409239 1.2129e-18)
(-0.236995 -0.406547 -3.01869e-18)
(0.000111834 -0.000131063 5.69119e-20)
(0.000137952 -0.000138033 6.3458e-20)
(0.000121531 -0.000131559 2.43612e-20)
(0.05587 0.0809086 8.60158e-18)
(0.0395823 0.0932125 1.8784e-17)
(0.0444251 0.0897681 1.44837e-17)
(0.0940217 -0.0475126 3.40796e-18)
(0.088885 -0.0546153 2.90835e-19)
(0.141036 -0.0864735 -1.03005e-18)
(0.117936 -0.0520557 5.43681e-19)
(0.118363 -0.0704752 6.4229e-21)
(0.000470291 -0.000612321 -2.70697e-19)
(0.000333087 -0.000607882 5.86943e-19)
(0.000413333 -0.00074889 -1.21184e-19)
(9.88783e-05 -0.000124808 -3.61331e-19)
(8.96556e-05 -0.000120513 -4.26301e-19)
(-0.159854 -0.379976 -9.62812e-18)
(-0.181069 -0.394706 7.89426e-18)
(-0.136263 -0.375335 -1.85666e-18)
(-0.0153132 0.181324 7.03473e-18)
(-0.0172991 0.18688 6.56885e-18)
(-0.0446 -0.00478566 -3.48716e-18)
(-0.0518053 -0.0285673 1.45471e-18)
(-0.0341605 -0.0200303 -1.37822e-18)
(-0.0166318 0.185788 -8.53002e-18)
(-0.0183651 0.198178 -2.1458e-18)
(-0.0160781 0.190834 -1.78486e-17)
(-2.83681e-05 3.05363e-06 4.54624e-19)
(-3.46415e-05 2.83284e-06 2.9508e-19)
(-0.0124515 -0.0397151 2.53932e-19)
(-0.0151397 -0.040314 2.28142e-19)
(-0.013326 -0.0428596 1.53179e-18)
(-0.00591633 -0.138568 -3.84423e-19)
(-0.0075913 -0.138226 3.10412e-21)
(0.137437 -0.0353677 -1.09505e-18)
(0.140381 -0.042651 -4.07614e-19)
(-0.000112549 0.00031202 -7.34873e-20)
(-0.000111372 0.000313581 -3.17658e-20)
(-9.69068e-05 0.000323579 -3.5676e-20)
(-0.000325113 0.000128471 2.8001e-19)
(-0.00033188 0.000138103 5.35236e-19)
(0.0308004 -0.0821201 1.72125e-18)
(0.0342128 -0.0810548 -5.32219e-19)
(0.0339811 -0.0851848 -5.89578e-19)
(0.0691009 -0.0627893 -2.57619e-18)
(0.0684906 -0.0593637 4.40844e-18)
(-0.000745229 -0.000889876 2.26404e-18)
(-0.000698799 -0.000842329 -9.85365e-19)
(-6.5177e-05 9.34113e-05 9.45965e-20)
(-6.71646e-05 8.49992e-05 5.13807e-20)
(-6.70056e-05 8.29208e-05 2.46927e-20)
(-0.00101582 -0.0036661 2.45753e-19)
(-0.000954394 -0.00322072 4.73483e-20)
(-0.00141317 -0.00337532 1.65647e-19)
(0.0307796 -0.0345469 -7.51653e-20)
(0.0312135 -0.0366333 2.1255e-18)
(-0.000922986 -0.00130325 5.82051e-18)
(-0.000965672 -0.00139643 1.34397e-18)
(-0.0221871 -0.305317 3.36322e-19)
(-0.00888243 -0.287612 1.07535e-18)
(-0.0592952 -0.316476 -1.07601e-19)
(-0.000301644 -0.000212681 -6.94696e-19)
(-0.000292012 -0.000213624 -5.65715e-19)
(-0.000303066 -0.000221557 -9.12246e-19)
(0.0205393 -0.0732825 -9.57656e-19)
(0.0129249 -0.0876863 7.26612e-19)
(-0.00294636 -0.0133843 1.50175e-19)
(-0.00150934 -0.013072 4.67263e-19)
(-0.00195629 -0.0149278 -5.60667e-19)
(0.100329 0.0695408 5.09489e-18)
(0.0932229 0.071398 5.9682e-18)
(0.106888 -0.0149426 1.44393e-19)
(0.112816 -0.0228569 -3.03114e-19)
(0.101909 -0.0234849 -1.13194e-18)
(-0.00746725 0.197931 -1.17827e-17)
(-0.0110727 0.198101 3.29051e-17)
(-0.000311067 -0.000209382 -2.26366e-19)
(-0.000301249 -0.000204398 1.00712e-18)
(-0.0454607 0.0167654 -9.81189e-19)
(-0.0484374 0.0130295 -2.57268e-19)
(-0.0495224 0.0190042 1.60739e-18)
(0.0859505 -0.0394685 -2.28013e-19)
(0.0871026 -0.038741 3.27543e-19)
(0.0852669 -0.037617 9.47471e-20)
(-1.84596e-05 7.19396e-05 -1.28312e-19)
(-1.41376e-05 6.06514e-05 1.01719e-19)
(-1.41118e-05 6.26311e-05 3.66293e-20)
(-0.00104635 -0.00125517 7.73898e-20)
(-0.00096125 -0.00124279 4.00218e-18)
(-0.000983338 -0.00116784 -5.06704e-19)
(-0.100509 -0.0601692 -3.39795e-18)
(-0.112214 -0.0663069 -3.33547e-18)
(-0.110728 -0.0544643 3.4684e-18)
(-0.000466357 -0.000377299 6.17825e-19)
(-0.00044658 -0.000372592 -1.08705e-20)
(0.109177 0.0582755 4.33169e-18)
(0.10916 0.0658271 -6.27225e-18)
(-5.84276e-05 -4.65636e-06 5.0354e-19)
(-6.56885e-05 -5.52626e-06 -1.86019e-19)
(-5.88075e-05 -3.61678e-06 -2.5919e-19)
(-0.00269298 0.000799025 -1.10058e-19)
(-0.00225905 0.0006365 -2.50812e-19)
(-0.00231752 0.00105719 -1.99108e-19)
(-0.00487143 -0.0720771 -1.27701e-18)
(-0.00152191 -0.0719603 8.02629e-19)
(0.0771866 0.0018407 2.57584e-19)
(0.0722309 0.0030776 -7.06241e-20)
(0.0742616 -0.00257417 -1.51515e-19)
(-0.000267612 5.57319e-05 -8.30978e-19)
(-0.000262521 5.18967e-05 -1.34109e-18)
(-0.000266726 5.11286e-05 -5.07378e-19)
(-0.000294582 6.30861e-05 -2.51251e-19)
(-0.000291118 6.92901e-05 -1.47861e-19)
(0.0703756 0.0694225 -1.00688e-17)
(0.0675509 0.0731902 -1.70537e-17)
(0.000201052 0.000165676 -1.6643e-19)
(0.000213152 0.000181513 -2.67362e-19)
(0.00024215 0.000177272 -2.41367e-20)
(0.00640606 0.00851464 3.09581e-19)
(-0.011462 0.184923 -7.52844e-18)
(-0.0157791 0.192973 -2.18404e-18)
(-3.79717e-05 -2.95098e-06 7.25456e-20)
(-3.35114e-05 -1.78407e-06 -3.53123e-21)
(-4.04973e-05 -4.59451e-06 1.37934e-19)
(0.00650419 -0.0232691 7.03695e-18)
(0.00558279 -0.0246503 1.33186e-18)
(0.00742016 -0.0241905 5.69536e-19)
(-0.00307955 0.000403656 -1.89429e-19)
(-0.00312907 0.00101134 1.88274e-19)
(-0.00118412 -0.00103699 1.76553e-19)
(-0.00121011 -0.000789366 7.89773e-19)
(-0.000972565 -0.000860815 2.52379e-19)
(0.00147674 -0.000312016 2.264e-19)
(0.00169088 -0.000148395 9.11498e-20)
(0.00172398 -0.000443315 3.97884e-20)
(9.15228e-05 -9.99006e-05 -6.66185e-21)
(9.84447e-05 -9.24269e-05 -5.02341e-20)
(-0.000279617 1.18436e-05 -7.07785e-19)
(-0.000277419 1.15785e-05 5.96819e-20)
(-0.000279928 8.11159e-06 -1.54743e-19)
(0.00558639 -0.0224844 -7.52092e-18)
(-1.36167e-05 -1.11603e-05 -3.12252e-20)
(-1.10832e-05 -1.03924e-05 1.35823e-20)
(-0.036931 -0.117247 1.07808e-18)
(-0.0432729 -0.0967786 1.37409e-19)
(-0.039246 -0.117921 -6.74614e-20)
(0.0840513 -0.0386661 2.36474e-20)
(0.0854263 -0.0438075 2.98202e-19)
(-0.000429356 -0.000540785 -4.72906e-19)
(-0.000370521 -0.000441409 -3.28806e-20)
(-0.000503353 -0.000416093 -2.20625e-19)
(-0.00590775 -0.015144 3.25137e-18)
(-0.00540752 -0.0140155 4.33715e-19)
(-0.00507108 -0.0771295 -7.91718e-19)
(-0.00944767 -0.0727186 5.97761e-19)
(0.082278 -2.56589e-05 1.31133e-19)
(0.0800573 0.00621203 3.87272e-19)
(0.0215154 -0.0643991 1.45899e-18)
(0.0195786 -0.0758423 -1.33663e-19)
(0.0259256 -0.060746 -4.65589e-19)
(0.0430838 0.0142323 2.13821e-19)
(0.0466669 0.0179678 1.27461e-19)
(0.029372 -0.0200318 6.86126e-18)
(0.0299702 -0.0216178 8.20919e-18)
(0.0312764 -0.0200622 -5.76141e-18)
(-0.213328 -0.409673 7.73762e-18)
(-0.226929 -0.410195 9.30785e-19)
(0.000193372 0.000158537 -2.60584e-19)
(0.000168543 0.000152618 -2.89194e-20)
(0.0338136 -0.10269 1.80084e-19)
(0.0311371 -0.0995346 2.47777e-19)
(0.00327288 -0.0148661 6.63158e-19)
(0.00308587 -0.013819 -2.87736e-18)
(0.137906 -0.0541306 -3.66014e-19)
(0.129491 -0.03059 2.62538e-18)
(-6.01816e-05 8.44087e-06 -9.05246e-20)
(-5.89691e-05 9.17652e-06 -4.9187e-20)
(-0.000240751 2.35623e-06 1.46693e-20)
(-0.000239579 4.20781e-06 2.15389e-19)
(-0.00023953 7.14124e-06 1.24763e-19)
(-0.000522529 -0.000663131 4.61774e-20)
(-0.00035064 -0.000675092 -4.39179e-19)
(0.0268939 0.047137 2.0483e-19)
(0.0257848 0.052796 -8.85623e-21)
(0.0315657 0.0501574 -8.68945e-20)
(0.055552 0.111651 -2.62848e-18)
(0.0458664 0.122913 2.14607e-18)
(0.0591637 0.114032 2.29763e-18)
(-0.11636 -0.0691031 -5.89489e-18)
(-0.103337 -0.0706965 -8.36156e-19)
(-0.118981 -0.060541 2.24038e-18)
(-0.00075344 0.000242328 -9.77653e-19)
(-0.000688614 0.000308195 1.31984e-18)
(-0.000698442 0.000206256 7.70935e-19)
(-0.000299898 6.11565e-05 2.29155e-19)
(-0.000301642 6.99451e-05 4.98331e-19)
(-0.000306219 5.90549e-05 8.90019e-20)
(0.022545 0.0445593 1.29819e-19)
(0.027763 0.0425452 -1.39629e-19)
(-0.0775886 -0.0447321 -4.6391e-18)
(-0.0705716 -0.0414324 -2.69985e-18)
(-0.0754941 -0.0363827 6.20363e-19)
(-5.6818e-05 5.06142e-07 1.20821e-20)
(-6.49493e-05 2.0502e-07 -3.76678e-19)
(-5.97579e-05 9.44964e-07 -6.08966e-19)
(0.0296553 -0.261057 -2.36069e-18)
(0.0601225 -0.24197 4.51466e-19)
(-0.0519139 -0.114867 -9.14255e-19)
(-0.0446451 -0.120598 4.02184e-19)
(-0.0420943 -0.108449 -4.78358e-18)
(-0.000238602 -5.16781e-06 -2.27133e-19)
(-0.000237292 -1.33122e-06 2.5351e-19)
(-0.000237895 -4.47638e-06 4.21158e-19)
(-4.52489e-05 7.73151e-05 -4.10718e-20)
(-4.21871e-05 8.40289e-05 1.08512e-19)
(-3.94962e-05 8.9037e-05 1.69842e-20)
(0.00132605 -0.00135503 2.43004e-19)
(0.00100393 -0.00135591 2.08292e-19)
(0.00110399 -0.00109346 2.37198e-19)
(-0.000265699 9.76565e-05 2.07738e-20)
(-0.000279246 8.85312e-05 6.90671e-20)
(-0.0197511 0.180018 -1.95663e-17)
(-0.0136143 0.176055 -7.73678e-18)
(-0.000503499 0.000476327 -1.40409e-20)
(-0.000662446 0.000483037 1.36372e-19)
(-0.00052329 0.000350377 -2.18905e-19)
(0.0195263 -0.041741 1.22949e-18)
(0.0259301 -0.038449 -2.35103e-19)
(0.0194549 -0.0500781 -2.07949e-18)
(-0.000631155 -0.000790189 3.71889e-19)
(-0.000707196 -0.000616854 5.38795e-19)
(-2.1231e-05 -1.98632e-06 -3.7307e-20)
(-2.07278e-05 -3.30324e-06 1.40177e-20)
(-1.97854e-05 -2.47211e-06 -9.07194e-21)
(-0.0222983 -0.0837665 -8.54846e-19)
(-0.0537661 -0.0824651 -4.26369e-18)
(-0.0256642 -0.0842792 -1.85221e-18)
(0.000495983 -0.000507833 -1.49333e-19)
(0.000510995 -0.00039781 -6.23967e-20)
(0.000391747 -0.00041323 -1.48422e-19)
(0.0230266 -0.119063 1.10129e-18)
(0.0283151 -0.113558 4.45289e-19)
(-0.000291385 -3.31918e-06 3.64429e-19)
(-0.000287813 -2.65811e-06 6.34875e-19)
(-0.000290488 1.51265e-06 -1.32377e-19)
(0.0250621 0.0297118 -6.96598e-19)
(0.0223842 0.00943211 -1.14129e-18)
(-0.00579667 -0.0019333 -1.05274e-19)
(-0.00686937 -0.00233404 2.32469e-20)
(4.32444e-05 -9.41675e-05 -1.74513e-19)
(2.96139e-05 -7.85842e-05 5.55375e-19)
(-0.000239444 -6.08229e-06 -4.01521e-19)
(-0.000238375 -7.73418e-06 -6.10521e-19)
(-0.0417627 0.0145518 -3.30885e-19)
(-0.0423845 0.0191254 -6.06514e-19)
(-0.259014 0.485389 -1.89471e-19)
(-0.271158 0.461846 1.58929e-18)
(-0.262785 0.457204 4.40472e-18)
(-0.247347 0.511233 9.94104e-18)
(-0.246111 0.506391 1.10573e-18)
(5.61525e-05 -0.00010328 -7.60035e-19)
(5.30199e-05 -0.000105738 -4.48642e-19)
(-0.0767046 -0.0534863 -7.7134e-19)
(-0.000498886 -0.000410401 -2.28298e-18)
(-0.000476958 -0.00039823 -1.26892e-19)
(-0.000464871 0.000357721 1.21359e-20)
(-0.000430209 0.000403665 -3.10608e-20)
(-0.000494556 0.000406631 3.17069e-20)
(-0.126746 -0.0928695 4.192e-18)
(-0.113821 -0.103132 3.59431e-18)
(-0.137769 -0.0800822 2.43678e-18)
(0.133108 -0.104301 1.0482e-18)
(0.0894463 -0.111052 -6.60918e-20)
(0.130916 -0.106123 -9.96052e-19)
(-0.00049711 0.00031169 8.14647e-22)
(-0.000446876 0.000316113 1.81897e-20)
(0.00014776 0.000142445 1.36912e-19)
(0.000159274 0.000145125 9.52029e-20)
(0.00016982 0.000145717 -4.95952e-20)
(0.00236262 -0.000508834 5.34434e-20)
(0.00281446 -0.000675816 5.54759e-21)
(0.00277913 -0.0001199 2.54056e-21)
(0.00126086 -0.000407677 8.01183e-20)
(0.00124748 -0.00018722 -2.38836e-19)
(-0.00619813 7.14868e-05 1.21623e-18)
(-0.00583225 -9.1034e-05 4.52275e-19)
(-0.00619261 -0.000379002 -1.33862e-18)
(-1.61231e-05 -1.1586e-05 5.47832e-20)
(-1.45121e-05 -1.37149e-05 6.34413e-20)
(-0.00115728 -0.00132982 -3.58771e-19)
(-0.00145944 -0.00125425 -7.25032e-19)
(-0.00185822 -0.000783131 1.19333e-18)
(-0.0019771 -0.000838377 2.22459e-19)
(-4.81414e-05 7.10309e-05 1.72316e-19)
(-5.03398e-05 6.46445e-05 1.73443e-20)
(-0.000167653 1.1632e-05 -1.17862e-19)
(-0.000148191 1.87625e-05 -5.072e-21)
(-0.000154412 1.41443e-05 1.23668e-19)
(-0.000312493 1.67017e-05 -4.20527e-19)
(-0.000310299 3.15624e-05 3.96848e-20)
(-0.000308926 1.81131e-05 1.68667e-19)
(0.101156 -0.0490822 -7.54647e-18)
(0.103929 -0.0581004 -4.91782e-18)
(0.111834 -0.0501173 -1.25441e-17)
(-0.000374154 5.75232e-05 -3.73724e-19)
(0.000133973 0.000143935 -1.86447e-19)
(0.000126905 0.000139824 6.9356e-20)
(-1.3199e-05 2.14817e-05 -2.22722e-20)
(-1.44404e-05 1.08313e-05 -3.63223e-20)
(-1.49434e-05 1.85582e-05 1.06539e-20)
(-0.0658934 -0.0456314 1.45117e-18)
(-0.0654005 -0.0378228 -1.07291e-18)
(-6.27555e-05 -6.37344e-06 5.22152e-20)
(-6.16711e-05 -9.15134e-06 -1.62559e-19)
(-6.0097e-05 -5.39973e-06 4.06251e-20)
(-6.40561e-05 -6.86914e-06 8.40341e-20)
(-5.34023e-05 -8.91594e-08 2.04214e-19)
(-4.49163e-05 1.21949e-06 3.83151e-19)
(-0.000921124 -0.000849421 -3.03851e-18)
(-0.000920351 -0.000899701 4.24454e-18)
(-0.000985185 -0.000894001 8.434e-19)
(0.000304471 -2.19543e-05 2.02886e-19)
(0.000356194 5.54957e-05 1.78505e-19)
(-5.86282e-05 1.03819e-05 -5.62365e-20)
(-5.40095e-05 9.05358e-06 -6.00565e-21)
(-5.70888e-05 1.30584e-05 -2.36749e-20)
(-3.74064e-05 5.57964e-06 -1.8861e-19)
(-3.32147e-05 3.50727e-06 7.6253e-21)
(-3.67592e-05 6.49915e-06 -7.21469e-20)
(0.00189035 -0.00202641 -6.31905e-20)
(0.00217532 -0.00244132 -5.47388e-20)
(0.00240723 -0.00186609 9.27496e-20)
(0.0224276 -0.0515325 2.11159e-20)
(0.0174713 -0.0694102 1.22454e-19)
(-0.00025382 8.12704e-06 4.11948e-19)
(-0.0002644 6.95135e-06 -2.13527e-19)
(-1.79968e-05 9.68148e-06 -7.52034e-20)
(-1.50367e-05 6.87957e-06 -6.33354e-20)
(-0.022045 0.168399 -5.14671e-18)
(-0.0167709 0.171271 4.18983e-19)
(-0.0136365 0.165187 5.39603e-18)
(-0.00235787 -0.00238878 2.06027e-18)
(-0.00215409 -0.00237408 -3.14696e-18)
(-0.00226509 -0.00223845 2.57108e-18)
(-1.36237e-05 9.33036e-06 -3.9131e-19)
(-1.12288e-05 8.27245e-06 -3.26282e-20)
(-1.37465e-05 6.82534e-06 -1.26728e-19)
(-1.6294e-05 9.38707e-06 -1.30269e-19)
(-1.43268e-05 1.20121e-05 -4.97021e-19)
(-0.0243654 -0.53865 3.79596e-17)
(-0.0223403 -0.548988 -6.40386e-18)
(-0.0199653 -0.525085 -1.32127e-18)
(-0.0373146 0.0195317 -5.20179e-19)
(-0.0375607 0.0105559 -6.13345e-19)
(-0.0323575 0.0156016 3.99023e-19)
(-6.29432e-05 9.92215e-05 1.11852e-19)
(-6.51284e-05 0.000101318 1.37029e-19)
(-0.00510379 -0.0116527 1.03373e-19)
(-0.00420091 -0.010068 -4.23878e-19)
(-0.00619549 -0.00981664 -3.95484e-19)
(0.0448693 -0.0820109 3.20032e-20)
(0.0401375 -0.0961121 -3.68645e-19)
(0.000193802 0.00121599 -1.74017e-19)
(0.000402576 0.00100581 -1.96697e-19)
(0.00396474 0.0508617 1.07911e-19)
(0.00662565 0.0612336 -8.60452e-19)
(-0.00031226 2.03668e-06 -1.40625e-18)
(-0.000315784 1.40427e-05 4.52019e-19)
(-0.235545 0.527833 -2.68393e-19)
(-0.224706 0.548167 -1.68325e-18)
(-0.224998 0.546743 3.24609e-18)
(-0.0916325 -0.0643558 8.80497e-19)