/*--------------------------------*- C++ -*----------------------------------*\
| =========                 |                                                 |
| \\      /  F ield         | OpenFOAM: The Open Source CFD Toolbox           |
|  \\    /   O peration     | Version:  v2012                                 |
|   \\  /    A nd           | Website:  www.openfoam.com                      |
|    \\/     M anipulation  |                                                 |
\*---------------------------------------------------------------------------*/
FoamFile
{
    version     2.0;
    format      ascii;
    class       volScalarField;
    location    "400";
    object      omega_0;
}
// * * * * * * * * * * * * * * * * * * * * * * * * * * * * * * * * * * * * * //

dimensions      [0 0 -1 0 0 0 0];


internalField   nonuniform List<scalar> 
18758
(
0.117736
6.92276
0.0214728
4.02385
6.04463
5.96539
7.37285
0.0217124
0.288896
0.027831
0.0236866
10.0754
0.0220465
0.178134
0.0230581
0.629162
0.0420744
0.0219433
0.0219293
0.031058
8.09476
0.0222712
5.47171
3.77771
1.81732
0.0217166
1.69367
5.90927
8.60059
4.02037
0.0713495
5.85185
0.022182
0.0226832
0.144331
0.0221715
0.0222265
0.022009
0.0222675
0.0454735
0.0220062
0.0266435
0.021648
0.0262039
2.00789
0.0216173
5.15833
0.0239952
0.0273835
0.0216159
0.137409
6.19432
0.0215435
0.0234576
5.73648
9.71843
0.0222172
0.349634
0.0219345
0.197667
0.0964373
6.31683
0.125162
0.0228448
0.021553
0.0220148
0.0467659
0.0221775
0.0219292
6.1198
5.87126
0.0223121
0.0216224
14.3235
0.021686
0.0219273
0.276148
6.06836
0.0873603
5.09097
5.78601
4.57833
0.197372
5.79061
0.282273
0.0303989
22.7876
0.123785
5.88758
0.0219263
5.60112
0.0219358
14.4653
0.0270744
5.66101
13.1031
0.274708
0.0216851
0.0218894
6.57214
0.0325309
5.35785
0.093734
0.0468885
7.63153
3.31627
5.2949
6.20287
0.0226437
0.0222984
16.551
10.627
0.0217567
0.0220442
7.11868
10.5067
8.55077
0.0230581
7.56522
5.37759
0.0383278
0.0219601
10.7572
1.3516
0.563779
1.83328
6.19218
1.78527
11.7409
0.022042
0.0437032
1.55321
17.2699
0.0492317
4.85999
0.0238604
0.268862
0.0476109
0.0218872
0.077889
0.0877213
0.23906
0.0219573
13.7672
0.0220104
0.0220161
10.5425
6.95495
0.0702808
6.73238
3.28031
2.65449
0.0303346
0.0222708
4.9163
0.0281672
6.61612
0.0240025
0.0221637
0.0222889
0.021803
0.195247
19.5824
0.0221578
0.0960322
8.39378
0.0219742
11.334
0.218833
6.1168
5.08782
0.0219382
19.1254
5.93655
0.195095
2.96154
7.69308
0.0229435
0.0760141
0.0221239
0.0217952
30.7063
1.92938
0.0216504
0.0251937
0.946568
0.0219114
8.81187
0.0216328
0.0219257
0.0495373
1.20513
0.0224171
0.0661711
0.0339969
0.125883
0.0316907
0.248883
0.0221482
0.0216414
0.0730732
0.0239369
0.036788
0.0890512
0.022035
0.033548
0.0969999
0.0222788
7.72765
0.0274235
0.0219304
0.0493533
0.0222012
0.0365093
0.0775854
6.18824
0.0837964
0.550964
0.0216325
6.05538
0.0219302
0.0226621
0.240539
8.25385
0.267974
0.0953652
0.0597472
0.0466609
0.0216077
0.0901874
0.0220086
0.12514
5.07145
0.285414
0.0220628
0.0219138
0.0216095
0.0216419
11.1903
0.0367982
0.0218309
0.881711
5.35889
0.0230093
6.71019
38.8238
0.28291
0.0221781
5.7182
0.0297591
0.0221519
10.6892
0.0304761
0.0302576
0.0225191
0.0416733
0.815253
0.681315
0.0356291
0.084692
0.0216664
0.0762842
0.0220328
0.0881202
0.0269646
0.23857
9.63324
0.0216373
0.0225272
0.4374
0.0224573
0.0249532
0.0885468
8.73283
10.5762
0.0219497
0.120932
27.6398
2.03123
0.0226099
0.0217414
0.0293241
0.0370031
0.0219496
24.9404
0.635761
3.38248
34.5731
5.40041
0.0216293
0.0214657
0.0511314
7.0036
0.0255837
0.0850259
0.11765
0.0292974
5.46054
0.0218952
0.499699
5.87889
0.0216295
5.72024
0.0376771
0.0219562
0.0332035
0.0887316
0.0228137
0.0221563
6.47625
2.37303
0.0219275
8.22658
5.43367
0.248039
0.0220198
0.0221201
0.821883
0.0229805
0.0216452
0.0217724
0.0230105
0.228432
0.0901727
0.029289
0.0358115
0.0312003
0.0494779
0.0216513
0.0222786
1.66864
0.0555787
0.1296
3.95132
0.0259742
0.0223642
0.0220789
0.486712
5.83928
0.0216204
0.0219178
0.0216225
0.0237472
0.0440571
1.34657
0.0219606
0.0221971
0.0216062
0.824324
0.216105
0.183201
0.154828
0.0228528
1.01356
0.11098
0.0375581
0.0314572
9.32863
7.41835
1.59364
0.0220471
0.0332322
8.4436
8.49481
0.0249904
0.0216335
0.0607178
0.0219609
0.0303861
8.43709
3.66988
0.124481
0.0304816
8.02124
0.0219781
0.0239223
0.0218876
0.0222759
0.121116
0.0240722
7.34795
0.274245
0.0224439
0.0219322
7.33234
0.122277
0.280937
0.0219773
0.0552571
0.0217312
0.0260435
0.0219603
0.0216467
8.9584
7.13684
4.06188
21.4102
0.0219119
0.252069
5.09863
0.0425736
0.021751
3.95902
0.0217706
0.0220643
0.0217907
0.125088
0.0219533
0.0260798
0.143484
10.13
0.0217585
5.9379
0.0491749
0.0220256
0.0257653
0.0219505
0.0219197
0.0285806
0.0711824
0.0487844
26.9289
0.0399622
0.0220453
0.391687
5.85819
4.77048
5.23875
0.116563
0.0225381
0.0216471
0.0218345
0.0222208
0.124279
0.0433258
0.0323906
0.0362754
0.0303769
0.868483
0.0952905
0.0219453
0.0347972
5.36519
0.0228342
3.64745
0.0222056
0.0220823
5.20697
0.0280901
0.0224551
0.796738
0.147907
0.0505287
10.4627
0.0219321
0.0226429
0.758725
8.87407
0.0360599
0.071805
0.182845
0.632723
25.0582
0.180849
0.0222859
0.140216
0.0220416
0.126413
0.0231488
12.7971
0.0544945
5.68892
0.0322564
0.0804943
0.0216304
3.55076
0.0216285
9.68664
0.0218915
0.357435
0.0220578
0.813116
0.0313751
0.022088
0.0218953
0.0217825
5.36114
12.2643
7.17273
0.0462158
0.0246035
0.089417
0.0222703
0.0222874
6.23999
0.0218959
0.0220624
0.119972
0.0220412
0.0699264
0.0890137
0.0220581
0.02195
0.0279449
0.0227376
0.0287222
6.65231
0.031221
0.0357338
0.0267492
0.0220493
3.70388
0.0223305
0.0226508
3.55504
10.1493
0.0764076
1.59246
0.0252027
0.0226203
7.39864
0.0219534
9.50849
0.325375
0.0220819
6.64579
1.56133
0.0616649
0.0218602
0.0529688
6.1149
0.0220116
0.0218663
0.0231159
0.0228019
0.0220339
0.0216997
0.0222939
10.6201
0.025213
8.29958
0.0219653
0.156136
8.38058
0.0220384
0.0216398
0.0251635
0.0221291
0.0226811
0.0233063
0.022112
0.122213
0.798112
0.021542
6.14709
5.46255
0.0355306
0.138472
4.41063
0.0264162
0.0304579
0.0284348
5.9582
0.0251123
0.0467186
0.021997
9.26187
0.0427033
0.217562
0.155046
7.16522
0.0250515
0.0219224
0.0600354
1.54703
0.022616
0.448626
0.0222233
5.6137
0.0227758
0.0217923
0.0217787
0.0220473
5.52921
5.65469
0.0219909
0.289822
0.0306583
4.8124
8.05949
0.755235
4.32583
0.0218991
6.10271
0.0653143
0.0219835
0.0477943
6.14177
6.59232
0.0226629
0.0225604
0.0220102
0.0215088
7.14848
0.120953
5.80717
5.20625
0.0220264
0.0221401
0.0604458
0.0222811
0.0218054
0.0232822
0.0229269
0.124621
0.0419193
0.216212
6.23469
0.0720659
0.0220644
0.0274871
0.118293
6.26824
0.0445532
7.47124
0.0532557
0.0219953
0.283467
4.8038
0.0224767
0.0216401
0.145116
5.51781
0.240276
0.0220418
9.25884
32.8533
1.96885
0.0216095
6.65584
6.696
23.3122
0.0240693
0.0221965
7.36833
0.0222945
0.210463
7.26592
0.225029
6.25993
0.0924913
5.51289
0.0725141
0.0220872
0.0225426
6.29777
4.38065
7.99497
3.72162
0.0219526
0.210887
0.0222772
0.0605618
0.0944662
0.12972
0.0220866
0.0252144
0.239534
6.10426
5.84197
9.27645
0.0387909
0.0325734
0.289058
0.022234
0.021708
0.0219567
0.0254413
0.0749175
0.0220359
0.0880315
0.0218517
0.0220712
0.0219053
6.01539
0.0223214
0.0222696
0.056732
0.0536117
0.0215468
11.6473
0.0219622
0.0217017
0.0556764
0.0368287
0.0248176
0.0228909
5.62023
0.0359027
0.03463
4.77097
0.0346544
4.12227
0.0259885
0.122521
28.3615
9.27606
0.0216322
5.99102
2.52727
0.0216855
5.90977
0.0220646
0.0218924
0.0399753
0.0219512
0.108491
6.17198
0.0216267
25.9597
0.0218742
0.0381178
4.36277
0.0215266
5.49171
0.0235452
0.0219828
0.0219169
0.0219532
0.250392
0.0727976
11.7816
0.0741205
5.74164
0.0603642
0.0220376
0.259552
8.11927
5.30717
0.0757333
0.178174
0.0641952
0.0266917
0.248615
0.022715
5.73537
0.0220345
5.72441
0.0227505
0.0756842
0.0279829
0.0223455
8.67688
0.0225615
0.0218129
4.2631
0.0235837
0.0219081
0.0454332
0.0882367
0.260638
2.39738
2.98817
5.66108
0.0221326
0.022205
7.50149
0.0219953
0.805424
0.0995328
0.0237709
0.0220614
0.032811
0.0219885
0.0219463
0.0290098
0.679702
0.215771
0.154768
0.0624403
0.0221324
0.0622483
7.66708
0.021861
0.0951337
0.0239093
6.14351
0.0232352
5.43004
0.0220291
2.66326
0.0222766
0.0884828
0.0219871
0.0251191
0.02964
0.0215315
0.021685
0.0215824
5.51117
32.8938
0.0328774
5.65595
0.0220012
0.0428016
0.0281879
0.30741
5.39548
0.0329961
0.0215399
0.22289
0.0218539
0.0220009
0.0282156
9.5253
9.63059
2.65712
0.897716
0.0735302
0.022937
0.0218884
4.74942
0.0218956
4.17911
0.027681
0.0221855
6.51556
6.52174
0.0220901
10.0008
0.0270895
0.109186
0.0964981
1.47595
6.37578
1.13949
0.0219982
0.0215016
6.25116
0.0219573
0.0219281
0.0283495
0.0219739
5.08707
0.262744
0.0607729
5.22155
0.0499419
0.139658
0.0238215
0.0219909
0.0215356
0.0217808
10.5097
8.34258
0.29135
0.0220573
0.021533
0.0301747
0.0218374
0.0405522
0.0256817
2.87883
6.32045
0.0876668
0.302877
0.301425
0.0218892
0.237295
0.0218914
5.43282
2.17739
6.42969
7.66828
0.0229735
0.0290851
4.78417
5.18838
7.23221
0.0448476
0.126784
6.16217
0.0220477
0.289363
1.57227
0.129294
0.0220418
0.0219738
0.0419075
5.30108
3.11308
0.0962195
0.0219686
0.0247752
0.0288819
50.2555
0.0222844
0.617368
0.0218884
0.0227273
0.197552
0.0218632
0.0220244
0.0232608
0.0270246
0.0219773
0.0226952
0.0216122
2.42186
0.327895
5.41539
0.0216336
0.0495361
0.0220141
0.269906
0.271503
0.0369884
0.0218921
0.0228426
0.590428
0.139076
0.029117
8.72676
0.125277
0.0219408
0.0220257
4.26194
6.03172
0.061952
0.0216165
0.554708
0.0221255
0.0363992
0.0216664
1.19117
5.0287
0.0218605
0.0220155
5.36753
0.0219294
6.48713
8.12366
0.0615953
0.022254
0.0221658
0.0216622
0.0220356
23.7515
9.73507
0.136891
0.0228619
5.41659
0.0219428
0.0219276
7.5974
0.0217503
6.27215
0.0215123
0.0288317
0.0232928
0.0219324
0.0218379
0.0221203
5.25495
0.0224821
0.0221942
0.154637
0.0423232
0.0219739
0.0587948
0.03681
0.0221258
0.280743
0.0219783
0.0369772
5.54363
0.0977336
0.0219567
0.2881
0.097619
0.0876963
0.0265736
0.0675561
8.57756
0.0244513
0.060813
0.0219531
0.0215886
0.0220101
0.0440927
0.0365871
0.0470813
0.021864
0.0275369
0.0653799
6.0876
0.290792
0.0219225
0.02178
0.0228375
0.101488
0.0218111
8.3119
0.0219606
0.0219507
0.0217789
0.426826
5.22672
0.0221548
0.0235963
0.0218841
0.101415
0.0218078
0.0219575
0.886611
0.0222704
0.0215928
0.0221305
0.139686
0.0217943
0.0218771
4.96696
10.7561
0.609277
0.0434763
5.32098
0.0498747
0.0219552
0.0219022
23.2435
0.0219593
0.0711174
0.090947
0.0422038
0.0266998
0.022323
0.0306004
0.02286
0.0216234
0.203278
6.26487
0.0432988
0.0217863
6.41261
0.0467655
6.61626
9.10046
0.107045
0.0221399
0.0219251
0.0218295
0.0623134
0.0221262
0.0218356
5.56598
0.159884
0.0426613
0.0219037
0.0664121
0.287753
0.0220961
0.0264057
0.0361418
0.131877
0.0764724
0.0220203
0.0233875
0.0382246
0.0218202
0.048948
0.0223097
9.99106
0.0601867
0.129298
0.0217811
0.0372372
5.26331
4.16474
0.961445
0.0626041
9.27197
0.0221295
0.0219566
0.0226797
0.0900089
0.0221696
0.0234145
0.0307409
0.0618738
0.0220032
0.0219562
0.0220142
0.022277
0.308312
3.74399
3.3294
0.0219998
8.42566
0.0296337
0.0221551
0.0323664
0.0218761
0.0894104
0.0229903
0.021968
4.77878
33.5354
5.04922
0.0223494
23.6119
0.021966
5.26654
4.83997
0.021542
0.0637703
0.28154
0.021623
0.0219639
14.8403
0.0222598
0.0220222
0.182792
1.34175
0.0220296
0.0314352
0.0221507
0.0251953
0.13839
0.0221669
4.92476
0.0448226
0.0219617
1.26652
0.0595441
0.084709
0.0222882
0.294572
0.0220516
6.09975
0.0219691
0.0217702
15.2309
0.0217016
5.1904
0.0219672
0.0554693
7.60386
6.12027
0.0219857
0.0223244
0.0220312
0.0232245
0.026911
0.0266711
0.0214877
9.04513
0.0218813
0.0219699
0.139357
0.202345
0.0433549
0.0220292
8.1458
0.0889125
0.02238
0.0351542
0.0219139
0.02176
8.00022
0.021632
0.0217742
0.0218174
5.34371
0.0218105
0.0218352
5.89932
0.0252334
5.99297
0.0327457
0.0215142
0.0218806
6.30117
0.0258445
0.0220096
7.40732
5.69548
0.0217919
5.10093
0.125307
0.0219247
0.0220115
0.312307
0.0222211
0.594766
0.0333484
0.022034
2.46576
11.5485
0.264082
0.0218889
7.17437
0.0299434
0.384747
1.12537
0.0219016
9.98559
0.0220141
0.0318354
0.0259088
6.09551
0.0216894
0.0223643
0.814172
0.0222733
0.0355181
0.0216961
0.0220873
6.3245
0.0887352
0.0252216
0.0359265
3.71684
0.0222971
0.023342
0.0568422
0.138121
0.0253955
0.0219535
0.0219226
0.0221461
0.0225878
0.0218484
0.0338247
0.0275513
1.25985
0.0220098
7.37469
0.0219811
0.0283816
0.0219863
0.0361084
0.0220811
0.0219351
5.54302
4.96169
0.0240723
0.0220967
14.9548
0.0275953
15.0928
0.0365806
0.071107
5.55088
9.557
4.49052
0.0229944
0.021991
0.0218031
4.18531
0.0218245
0.0220256
0.150819
0.0218443
0.022186
0.0220664
10.6771
4.08633
0.0221812
5.41272
6.25708
0.0239813
0.0219423
0.022172
5.28654
0.0216824
0.0994977
0.0222883
0.0219857
0.0220659
0.0217586
0.0811891
0.0219698
0.0218952
0.021781
0.0216236
0.30119
0.0216108
0.0218086
0.0221029
0.0219508
0.301903
0.582598
0.0585752
0.0226113
0.021998
0.0221935
0.0222249
5.0468
0.0219331
0.0315132
0.0669267
5.27167
0.0219589
0.0219192
5.08067
0.0221257
0.10183
0.082959
0.0224337
4.87133
5.27864
0.0309497
7.61998
0.0282433
0.126935
0.0214869
14.3926
0.022051
6.61591
0.0220532
0.02184
4.93341
2.18248
0.417557
0.139342
0.0219084
6.82874
0.0221766
6.23735
0.0563498
0.0219354
0.0214889
0.0219003
0.052257
0.0607742
5.83586
0.0411007
0.0218876
0.0219433
0.0219178
10.6729
0.184191
0.0333024
0.0221453
0.0219089
0.0302827
1.02981
0.0219261
0.0326252
0.0679245
0.0219331
0.0238553
0.0231338
0.060434
0.151805
0.0244175
0.0777907
0.0215905
0.0220208
8.73666
0.0405027
0.0889356
4.39322
0.0216145
9.66369
14.7054
0.0506603
6.44763
0.0219397
4.84034
5.8169
0.11322
0.0217997
9.44658
0.146513
0.0219989
0.0392018
6.31004
0.0226695
0.0219796
0.0395627
0.0222713
10.4164
0.0306351
0.0220497
0.0222822
0.0218787
0.0676506
0.0323523
8.90345
0.101741
5.40445
0.0750999
0.0222611
0.0219421
0.568177
12.251
0.0219736
0.0218908
0.147757
0.022095
0.314268
4.86773
9.832
0.0219532
0.0219692
6.42284
0.0217627
6.27119
0.502045
0.021718
5.70342
0.0606637
0.080422
0.021978
17.0734
0.0220361
3.74981
0.0215065
0.0494194
0.0228243
0.0216917
8.00383
0.0226971
0.0219632
0.0234097
5.65004
0.022083
0.0216039
4.86894
0.0219008
0.0216591
0.022123
0.024989
0.0220617
0.022186
0.0279209
0.0221801
0.0263963
0.0215607
0.263782
7.29861
0.13025
5.48203
0.0279227
0.0263823
0.0218799
0.0218324
0.0221281
7.84227
5.14442
0.0219016
0.0222778
0.0219183
21.836
0.0215973
0.315503
0.56433
5.23087
5.12835
8.51923
5.32967
0.0216366
4.67057
6.12779
4.96651
0.0261999
0.0221397
0.0423266
0.0216452
3.86116
0.129703
0.0614669
0.0269542
9.02529
0.0219971
0.0214836
5.05974
0.14287
0.0219889
0.0215254
0.0441523
0.0221223
15.4205
13.7895
6.32839
4.40396
0.0834805
2.55535
0.0218274
0.290835
0.0221121
0.0219599
0.0216499
5.75868
0.0221547
0.0218265
1.81477
5.14397
0.240153
0.150905
0.0229459
0.0392196
11.0955
10.3248
4.94734
5.46392
0.118344
5.16319
0.216189
1.42036
0.0534429
0.0401696
0.0218822
0.0361816
0.0317098
0.0220552
4.87415
0.021812
0.0219851
0.0220066
6.33734
0.0256283
0.0218143
0.0218358
0.0219708
0.127918
0.0873963
4.06192
0.0226959
6.67045
0.0215173
0.0219197
0.0867655
0.0689392
0.0215021
5.19878
0.0414728
5.52863
0.0219919
10.3942
0.061474
0.0219272
0.0220622
0.0219546
5.87219
5.73259
8.95176
0.0219861
0.0222431
0.0215782
5.61499
0.0282668
0.0220681
1.77158
0.0219345
0.0226142
5.18477
0.0216008
0.0219557
0.0220734
0.0221124
0.0214795
0.0224288
0.0215169
0.0222322
0.0833496
0.0400062
0.0218371
8.35029
0.0238086
6.13511
9.87177
0.0504548
5.50929
5.58233
0.0218101
0.0415977
0.0220305
0.0218405
5.57948
0.0262248
6.56739
0.027358
0.128618
0.0220712
0.0232778
0.0219151
5.19362
0.0432517
5.43875
0.0220549
0.118625
0.0290101
0.021803
0.0375263
0.0407684
0.0215481
7.87262
0.0221017
0.0406917
0.0220117
0.0305233
0.049073
0.225301
0.0266159
0.0820598
6.13519
0.0303141
0.0388233
0.0215976
6.51272
0.0594898
0.0222716
0.0728744
3.7946
15.0363
0.0219747
0.0228944
0.0221728
0.0215854
0.0219253
5.22145
0.0284287
0.0220845
10.6959
0.0221156
0.0215911
0.025802
6.16667
0.0221773
11.4552
4.40263
0.101267
8.53838
0.0226215
5.65506
0.756498
0.0216175
0.028941
0.0220134
0.0223344
0.0388062
7.41549
0.0635543
1.07733
0.36707
0.0218923
6.62132
0.0219084
4.8855
0.022268
29.1007
4.22889
0.0221598
0.0217605
0.0222788
0.0326838
0.087613
0.0219722
15.0881
0.022972
0.0406371
0.073958
0.0231064
0.021923
3.71468
0.0217656
0.222174
0.029363
21.1271
0.0221279
0.0218841
4.68674
0.0214621
0.0217578
0.0225615
0.0603337
0.0527378
0.281596
0.0243231
0.0217626
0.0251672
0.0222674
0.0225262
5.08073
0.0219419
0.0483069
5.46361
0.211089
0.021952
0.0896288
0.0218634
0.0222087
0.419675
0.259537
0.0901873
0.0222395
0.0219524
0.0246923
0.0897099
0.021891
0.0294132
0.0218898
0.0222466
0.0218444
0.0220245
5.17648
0.0215565
10.1179
5.74131
0.0251276
0.0216832
5.02763
5.95906
0.0217967
0.0219764
13.181
0.022315
0.0641949
0.216989
1.65705
0.0219173
0.0228023
0.0496357
0.0219847
6.37657
0.195581
0.0218099
0.0311814
0.0382978
0.0220904
0.288262
0.0221533
0.0502528
0.0229126
0.0248762
0.0215302
0.0218915
0.288637
0.0219671
5.53077
0.0681682
0.0219902
0.0219808
0.0219858
0.0218667
4.98612
0.0222717
0.173228
0.0219071
0.0218536
0.0565549
6.05714
0.021769
0.0215555
0.0219204
0.022596
0.0301716
0.030353
4.99945
0.028148
0.0218419
0.157461
5.26531
0.022268
0.0314483
5.2181
0.0361147
0.0224316
4.98499
0.0214794
8.58287
0.0420858
0.0220685
0.0822506
0.0218664
0.0219223
0.0219156
4.4979
0.0220104
0.60408
5.27672
1.11172
0.0288548
0.0219667
4.74983
0.022278
25.5876
0.0217242
0.295974
0.0258085
0.0870812
0.0226657
4.02916
0.0292704
0.0222245
6.21745
7.02789
0.0215585
0.605179
0.0219903
0.0310648
0.021741
28.5651
1.44795
0.0223052
0.0220244
5.62239
0.280476
0.0218565
0.0234638
0.0220341
0.0218082
0.0217131
0.0240337
5.39195
15.604
0.0224735
0.20687
0.0235389
0.0669344
0.0220041
27.8133
5.93229
8.48997
0.0227202
5.25283
7.78733
0.0249336
0.030551
0.0218732
0.0492837
6.81423
0.0221711
0.0217134
0.0217659
0.0274474
0.0215849
0.0219871
1.53402
0.0230917
0.198241
0.0220152
0.021974
0.0224618
0.0220441
0.189364
12.6281
0.0217899
0.0441129
0.021541
5.87657
0.0218165
0.0242608
6.42123
2.49328
0.026238
6.17066
0.401464
0.0220672
0.0600885
0.0221091
0.0331668
0.0222351
0.0219265
0.163409
0.120009
5.06173
0.120486
0.0348912
6.19525
0.023164
0.0422816
0.0227199
5.04215
5.15221
4.40753
0.0219502
0.0215152
7.70356
5.52316
0.0221301
4.90065
0.0221386
0.0268792
0.0214918
0.0218775
0.0218129
0.0218367
0.259964
0.0407064
0.0385499
0.0219733
0.0220212
0.0216432
0.0218256
0.0218156
0.0222628
0.0219338
5.27412
5.34743
5.15408
0.0236571
7.48571
0.0577478
6.06016
7.61023
0.0577074
0.022113
0.0222322
0.19459
0.0224123
3.91963
9.87163
0.0225884
0.0216993
0.0304816
5.44655
0.0219996
6.19562
0.0218465
0.0221008
6.27759
0.0219255
0.0287237
0.022165
4.89637
0.0215776
0.0219365
0.239891
0.02162
0.022058
0.0218884
0.0216998
0.0673615
0.0218934
21.5235
0.0220241
0.0222172
0.0214706
8.2508
0.0341841
0.0222075
5.09037
0.0220875
0.0215541
0.230654
5.44655
0.0220974
5.80701
6.39598
0.0263636
5.33236
0.0221114
0.0219614
0.0946785
0.0216707
5.36854
5.63923
0.0214875
0.0258758
0.021874
7.40959
1.06888
0.0450524
0.0221437
0.825362
0.0363402
0.0531583
0.0268241
0.0220289
0.0225296
0.0218921
0.0218088
5.8605
0.0214491
0.0218106
0.0426413
8.62176
0.0819983
6.1239
0.0220148
0.0419951
0.0218896
0.0219861
0.0220841
0.0217608
0.0221523
0.0219132
0.022101
0.0221725
0.0242306
0.0219855
0.0221431
0.0216829
8.15854
6.32755
0.0221901
0.0227423
5.81427
0.0222102
0.13123
5.33865
0.367941
6.29126
0.764716
6.41178
8.80459
7.48748
0.0217687
0.0302706
0.0218694
0.0500366
0.0246154
0.0222237
0.0217896
9.12874
0.02163
0.0298569
12.0902
0.0215844
0.0217295
0.0753707
0.0217008
0.0218895
0.0218838
0.0221693
5.39506
7.83219
0.0220385
0.0219368
0.0220579
0.0228783
0.0431578
0.0228887
12.5562
0.214571
0.022194
4.8627
0.0320545
0.0219352
7.11548
0.0215912
0.0506842
0.0217726
0.0223937
0.0224097
5.04491
0.0219287
0.0219637
0.0238857
0.0223098
0.0305636
0.0218188
3.84606
0.0400908
0.0440685
9.20763
6.52154
0.119203
0.032912
4.63485
0.0219884
0.0220054
0.0252379
5.27503
0.0523982
0.0491302
9.71177
0.0219772
3.0483
0.239041
4.55996
0.0219999
0.0359988
0.02187
0.12875
0.0334338
1.08804
6.63695
0.0220165
0.0356478
0.027701
0.0219154
1.04641
0.0219637
0.0299345
0.152039
0.0894963
0.0219445
0.0222948
0.0222284
0.0567173
0.021951
0.0221791
0.0219593
0.0220785
0.0216603
0.0379222
0.0215443
0.721555
5.11782
0.0225454
0.0217541
0.0215532
0.0423457
0.0346007
0.0221256
6.79718
0.049745
0.0217684
0.0218169
5.15919
5.10307
0.0219387
0.211585
0.0349359
0.0220119
5.87629
0.0226003
0.0731183
0.022234
13.5303
6.50035
0.0222563
0.0355926
5.65434
0.0347308
7.50612
0.0222394
0.0254565
5.26382
6.77115
0.0252665
0.0254106
0.0225657
0.0244129
0.0228361
6.46619
5.10259
4.92491
0.0234007
0.0219855
0.0600552
0.0218927
0.246412
0.0247969
10.1649
0.0215722
0.0221891
0.0217558
0.0219
0.0218442
0.0846229
7.2975
0.0299913
0.0216194
0.0221038
9.63886
0.0235699
0.0238035
0.0221553
0.0362172
6.93832
0.0217034
0.021858
0.0406545
0.0882469
0.0221142
0.0424269
0.0223136
0.0237139
0.132441
0.0287319
6.80213
1.27291
0.047895
10.8725
0.0218562
0.0218922
0.0230833
5.81783
0.0232683
0.506007
0.0216947
5.49227
0.036299
0.0218607
0.0300621
0.0223056
6.13595
0.0570168
0.0304574
0.248308
0.118824
0.0221507
0.0222003
0.0222284
0.0248389
5.44783
0.0530026
0.0221037
0.219656
0.021846
5.84479
0.0219437
5.31191
0.0293002
5.98832
1.82129
0.0577884
0.0219608
0.0220065
0.0218681
6.55236
0.0219779
0.0526854
7.29835
0.0215321
8.63397
0.0328587
0.0219513
0.0818204
0.0219138
0.0218282
5.68448
6.63316
6.74128
0.0218884
0.0217621
0.0227773
0.0243005
0.022941
0.0219439
10.5832
0.0807187
0.580938
0.022518
0.0422397
2.14108
1.287
0.0302373
0.0217583
5.78006
0.0229313
5.33014
0.0218803
0.0220287
0.0219812
0.0217206
0.0215297
0.0222229
0.0217846
0.0369138
7.09579
0.035516
5.19676
0.0250783
0.0222084
0.0221239
0.404867
0.0220243
0.0224945
0.0220459
4.76249
4.77238
0.0217802
0.0235335
0.0218605
0.0219728
0.0222784
0.0220645
0.0218926
0.904433
0.0222326
0.0217998
0.133502
0.0218221
4.39632
0.087001
0.0941524
0.217578
0.0239962
0.0220787
5.74296
0.0220674
0.0787081
0.0287046
0.0217868
0.0498895
0.0220654
5.6057
0.0216085
0.0217941
6.38853
0.0570813
9.86017
0.0217513
0.0970847
0.152673
0.031734
4.78747
0.0218813
0.0217452
0.0216169
0.0899084
0.0227713
2.77317
0.022008
0.0411082
6.39199
0.229264
0.0220169
0.86093
0.0253215
7.19369
0.0235454
0.0233936
0.0239667
5.01815
0.0219626
0.0223396
5.03365
0.0215594
0.0262061
0.0218245
0.0466528
6.18778
7.27271
0.0218588
0.0960313
0.0220053
0.281905
0.0220166
0.0224298
0.0908567
22.3006
0.0393175
0.0219976
0.0254247
5.33552
0.0585962
0.087206
5.70632
0.0220256
10.8813
0.022976
0.166019
0.0217886
0.0250995
5.67681
0.0254668
0.0219196
0.445401
7.50328
6.50713
0.0217023
5.07822
0.418325
0.0216137
0.152241
10.6472
0.0222782
0.0228163
2.56676
0.0214935
0.0224193
0.021829
0.0220587
0.121356
0.0888282
0.0345599
5.46308
0.0222711
0.0581372
0.0297155
0.0221926
0.0232703
0.033892
0.0219939
0.0222271
8.02125
5.05587
8.90656
0.0216778
0.0378489
0.0221359
5.21993
0.0220944
0.0417759
7.56441
5.49352
0.0670006
0.0219584
0.387499
4.8511
2.26309
0.0220036
0.0221252
0.0218315
5.90453
0.037925
0.157573
5.68297
0.0220577
0.0222113
5.69158
0.0287237
0.0900312
0.0221736
0.0218775
0.0219748
1.92643
0.0220164
0.05388
0.0217529
0.0221107
0.0217923
5.3373
5.41513
0.0238062
0.512683
0.0230108
1.44481
0.0219099
0.0218981
0.0900864
0.0220534
0.0219206
0.025419
0.101984
0.0290937
0.130395
0.0220269
0.070004
5.4136
0.02209
0.0220191
0.0220103
5.30178
0.0452627
0.0470558
0.0915494
0.0217749
0.0218554
0.137128
0.0257548
6.91993
8.78099
0.0358396
5.26822
4.93812
5.88097
0.0565157
0.0222943
0.0220001
0.290689
5.05541
0.0218709
0.0379793
5.22416
0.022107
0.234162
1.37238
0.142618
0.0219171
0.0921519
0.0221271
0.0221056
0.0216221
0.88054
0.022114
0.0531964
0.0367907
0.0219847
0.0221838
4.97162
0.0217808
0.0215941
0.0478561
3.51186
0.0372866
0.0220253
0.039808
6.89943
5.09655
0.0282164
6.34108
0.0872063
0.117445
0.0583497
0.0220956
0.151503
0.033024
0.0216533
0.0217219
0.0223583
0.0258266
0.307559
5.4746
0.0222182
0.741803
0.0750335
2.47343
12.1703
0.297697
5.21597
0.14206
5.08627
0.0501128
5.41186
0.0605753
0.0219755
0.0221221
5.95338
4.70648
0.126016
5.10806
0.0218148
6.41132
5.35566
0.0220367
0.021646
0.0375597
0.064454
5.73539
10.6076
0.109717
0.0218728
0.0218206
0.0222177
8.46507
0.0254713
4.38526
0.0245181
24.7159
0.203831
5.47665
0.0276352
5.62523
0.0218003
0.0215908
0.0258301
0.0221633
5.82187
0.133811
5.18678
0.0220591
6.55754
4.85595
0.0215459
0.0421185
5.6244
0.0433124
0.0218706
0.026105
0.0219775
5.21952
0.0214552
0.0223497
5.67369
0.0292511
0.0487527
0.0277013
0.0218134
0.0221864
0.0416475
0.0220465
0.0216483
0.0218343
0.030094
5.86507
3.30928
0.0219759
0.128721
6.50007
0.0221163
7.4283
6.81306
0.0221001
10.2699
0.0220755
0.100622
4.83185
0.0219655
0.0221662
0.0221963
0.0889122
0.0261029
0.0218592
6.30621
0.0219636
6.50659
0.0220403
6.40606
5.06625
0.0249783
0.0217386
0.169391
0.0820587
0.152352
4.26505
0.044161
0.0221992
4.76896
0.0224646
0.0852588
0.0749077
0.0299367
0.0620162
0.0218739
0.129023
5.16174
5.95866
0.11467
0.0218759
0.21648
5.34199
0.0222719
0.203959
0.114183
2.44527
0.0219621
0.0250051
0.0214999
0.222237
6.44013
0.0884379
6.53985
0.0841618
0.0384632
5.5184
4.97884
5.50288
0.469536
9.59402
0.0722901
12.0588
0.0523756
5.47915
5.67995
0.023291
0.0223194
0.0270288
0.0611883
0.021999
0.0261681
0.0222616
0.0242223
0.0220075
0.0218662
6.40083
5.05459
0.0222037
0.0515689
0.0221063
0.0217932
0.0235989
0.0820781
0.0234308
0.0894767
0.022181
0.0434793
0.436208
0.100634
0.0458602
0.0219768
0.0989222
0.0222203
0.0219257
0.611064
0.0228413
5.81924
0.186248
0.0219322
0.0242809
4.45955
0.022076
0.0945582
0.0575916
0.0595967
0.0265273
0.0371013
0.0220129
0.0221679
5.53694
8.57129
0.0359644
0.0821754
0.022038
5.50951
0.0255577
5.75046
0.0778852
0.0221097
0.0216798
6.64024
0.159147
6.42126
0.0280821
5.91834
0.0226422
5.75619
8.90504
0.0308432
0.145649
0.0218547
7.22409
0.0222249
10.6211
0.0287401
4.7672
4.8873
5.23604
5.63499
0.0360831
7.74783
0.176087
0.0492913
5.20389
4.76086
5.37344
0.0217117
0.0258605
0.0740637
7.95276
0.0218741
0.0217887
0.0297669
0.0612422
10.7643
0.0585319
0.0450642
0.0219298
0.121369
0.0215435
0.200683
5.06712
1.0564
0.0217785
6.79591
0.0672116
0.0225309
5.72699
0.449615
0.0264942
5.40706
5.23629
4.57414
0.0556332
0.0218383
0.0289399
6.63741
0.0378209
0.0219819
7.29188
0.0214942
6.53723
0.0232257
0.0221537
5.88524
5.26746
0.0218349
0.0526659
0.0219522
7.47115
0.0215059
4.80837
0.15421
0.0424496
0.0219078
0.0220071
0.0221603
0.0381686
0.0521485
0.121594
0.0290891
5.2714
0.033161
0.0253471
6.56085
4.01364
0.0216441
0.156235
0.0219509
5.56569
0.0220747
0.0429384
5.41232
0.0275576
0.0219286
5.50697
0.0222869
0.0222548
0.0464174
0.0222782
0.0218954
6.45816
0.0643252
5.49797
0.0222787
0.120874
0.0884347
0.0216454
0.0219255
0.0236034
0.0218462
5.37898
0.456298
3.98793
5.70406
4.44581
5.49609
0.0219184
0.0220083
0.0219437
0.02214
0.108727
6.59227
0.0304867
0.0248376
5.33294
0.0222744
0.0217805
2.39631
0.136756
0.0214695
0.0219608
0.0218891
0.228599
0.0217557
0.0219291
0.152627
0.0342171
0.121592
0.0238611
5.87459
6.17799
0.0214626
0.021721
5.18732
0.0340105
0.0251235
5.72896
0.0361307
0.117175
0.624174
0.0234443
0.482818
5.29516
0.021538
0.0257902
5.44156
0.0252104
0.0220149
4.99243
0.0562669
0.0546877
0.022162
0.341829
0.0237839
5.28345
0.0220325
0.0219768
0.0334161
0.061903
6.29706
0.0360729
0.0219609
24.9682
5.54014
0.0240064
0.0750542
0.0220352
0.0218946
0.0217492
5.15216
0.0218493
6.8578
0.229356
5.66241
6.362
0.0354149
4.46946
0.0331043
6.2552
1.31879
0.116709
1.25283
0.075916
0.0928651
5.36047
0.0526371
0.0220046
0.0220611
16.1351
0.04019
0.023012
0.0221581
6.53094
8.96052
0.0220939
4.51711
9.71991
0.065827
0.56251
0.0406131
0.0403307
0.0417719
0.0983785
5.4898
0.0275376
0.203122
0.229861
0.0217591
0.123567
0.0280234
5.96056
0.0683975
0.0219638
0.227192
0.0637836
0.0765087
0.552505
0.022524
5.27047
0.195349
10.3672
6.54707
0.0221835
0.0220152
0.0218805
7.16494
5.33603
0.0827502
0.17044
0.0218475
0.0217339
0.0226025
0.0804907
4.12723
0.0533884
6.14129
0.0765801
0.372035
1.96514
0.0217611
0.0563376
8.62379
7.1058
6.38329
5.49186
5.54326
0.022224
5.48132
6.1713
5.22894
2.41233
0.0219341
6.39073
0.0225702
5.29961
0.0273806
12.2132
11.5146
3.78369
0.0221564
0.0219749
0.0762831
0.0237787
0.12741
0.0222725
0.0487618
0.049037
0.0217981
0.0220027
0.0345593
0.0219302
7.67012
0.0218858
0.0230614
6.28265
0.0668932
5.96187
0.124304
7.7838
0.0219237
0.0219785
0.0222696
5.37572
7.52824
0.0220256
0.0507113
6.14291
9.09064
0.0218864
5.95593
5.2543
0.0218032
5.53793
0.0219078
0.0413752
0.0220123
0.0603873
0.0220716
0.1306
5.78217
0.0218592
0.0221592
6.20297
0.0357057
0.0216973
0.0220965
9.07968
0.0218733
0.0221849
5.27203
10.0075
5.84585
0.0939363
0.021922
5.27406
6.37216
1.53227
0.0221662
0.0908882
0.0678025
0.0219569
0.256587
0.0218083
0.0218129
0.0218301
0.0575853
6.17615
5.92897
0.042455
0.165092
0.0218754
5.73362
0.0218192
0.0280581
0.0465375
0.0233655
0.0531233
0.0363278
0.0218632
0.110986
6.25931
0.0581384
19.0197
7.81858
0.0614578
0.0219597
0.0249757
0.253246
0.0295549
0.0221944
0.118275
8.09369
0.0217052
6.4416
0.0286481
0.0219614
0.964389
6.5986
4.95628
0.0219736
0.0268022
0.0249261
0.0550279
0.0498895
0.0218678
0.0219675
0.110997
1.02027
4.95192
0.0274514
0.0222778
0.0217428
0.182907
0.0220253
4.94139
0.0222729
0.0408767
7.79222
0.19119
6.617
0.022053
6.65154
4.73181
6.82497
0.0220037
0.0222233
0.054132
3.96403
0.0218253
6.70706
0.0218683
0.0214945
6.52715
0.0221839
0.0568615
0.0279291
0.0228784
0.0317748
0.029349
0.0671157
0.0465942
0.0396488
26.1243
0.168803
4.73515
0.0469005
0.0345593
0.0565864
4.93056
0.191721
0.0276711
0.0220805
6.41613
0.0226801
3.17506
0.198082
0.952285
0.0216903
8.04209
0.0220576
2.04748
0.0225704
0.838562
5.55333
0.0494755
11.4646
5.55684
8.47895
5.07622
5.77522
0.0638318
0.0219412
0.0217996
0.784848
0.0218041
0.0219335
0.0219872
0.0404464
0.0233755
0.0345527
9.78802
5.29214
0.133852
0.027645
0.0274342