/*--------------------------------*- C++ -*----------------------------------*\
| =========                 |                                                 |
| \\      /  F ield         | OpenFOAM: The Open Source CFD Toolbox           |
|  \\    /   O peration     | Version:  v2012                                 |
|   \\  /    A nd           | Website:  www.openfoam.com                      |
|    \\/     M anipulation  |                                                 |
\*---------------------------------------------------------------------------*/
FoamFile
{
    version     2.0;
    format      ascii;
    class       surfaceScalarField;
    location    "400";
    object      phi;
}
// * * * * * * * * * * * * * * * * * * * * * * * * * * * * * * * * * * * * * //

dimensions      [0 3 -1 0 0 0 0];
oriented        oriented;


internalField   nonuniform List<scalar> 
27907
(
-0.0829108
0.0642777
0.0186331
-0.0583835
-0.0120927
0.0704762
0.415366
-0.465831
0.05045
0.0364672
-0.0194164
-0.0170508
0.0101132
-0.00523678
-0.0048764
-0.00898803
0.00190862
0.00707941
0.00954178
-0.000258875
-0.0092829
-0.33311
0.422376
-0.0892731
0.0948819
-0.0824659
-0.0124161
-0.168969
0.0228411
0.146128
-0.0228111
0.183625
-0.160814
-0.00825854
0.00630261
0.00195593
0.0805786
-0.436462
0.355875
0.089782
-0.100131
0.0103491
0.259657
-0.177134
-0.0825235
0.0496451
-0.0298574
-0.0197877
0.0353783
0.0921282
-0.127507
-0.0880551
0.368889
-0.280838
-0.120573
-0.136616
0.257187
0.145429
-0.121469
-0.0239605
-0.000390472
0.000608657
-0.000218186
-0.43024
0.448962
-0.0187221
-0.00228535
0.000882283
0.00140307
0.0660395
-0.0870262
0.0209867
0.0259103
-0.0889671
0.0630569
-0.42
0.0868818
0.0378506
0.00631178
-0.0441624
-0.000980792
-0.0038291
0.00480989
0.0282815
0.0148417
-0.0431232
0.0769967
-0.0606834
-0.0163134
0.0893349
0.013902
-0.103237
0.00168679
-0.00784725
0.00616045
0.474243
-0.461785
-0.012461
-0.243963
0.125164
0.118798
-0.0983593
0.0246569
0.0737024
-0.484323
0.29398
0.190342
0.557015
-0.334934
-0.222083
0.280682
-0.135409
-0.145274
-0.153331
0.243094
-0.0897631
0.0277001
-0.125541
0.0978413
0.273813
-0.189859
-0.0839545
0.159891
-0.139285
-0.0206053
0.17458
-0.340031
0.165448
-0.118465
0.159084
-0.0406198
0.0973263
-0.0747481
-0.0225782
-0.495702
0.260729
0.234962
-0.00150296
-0.000782397
-0.152833
0.192561
-0.0397275
-0.148164
-0.0208051
-0.204218
0.399086
-0.194872
-0.0886586
0.113591
-0.0249328
0.0261269
-0.0170642
-0.00906273
-0.475062
0.0933161
0.381738
-0.19411
0.171298
0.00235865
-0.00333944
-0.0243893
0.08126
-0.0568706
0.299306
0.257705
0.0440744
-0.0230172
-0.216863
-0.0165257
0.233389
-0.0963654
0.0261582
0.0702072
0.0556618
-0.0859311
0.0302693
0.00813476
0.00140701
-0.117579
0.110991
0.00658797
0.188876
-0.0335024
-0.155374
-0.385469
-0.0896003
0.345013
-0.190191
-0.154822
-0.0729624
0.133884
-0.0609218
0.364356
0.109883
0.146438
-0.277645
0.131207
0.00642973
0.0196972
-0.01604
0.0117761
0.0042639
-0.122143
0.224568
-0.102425
-0.37954
0.175318
-0.0170458
0.0111578
0.00588798
0.149687
-0.376793
0.227102
0.20925
-0.00952581
-0.199725
0.0930067
-0.0730379
-0.0199687
0.00452508
0.00357537
-0.00810044
-0.0812484
0.0232795
0.0579689
0.00297067
-0.00146349
-0.00150717
0.00190434
-0.00190941
5.06901e-06
0.0782446
-0.0579931
-0.0202516
-0.0609315
-0.035434
0.000610292
-0.00560885
0.00499856
0.0888234
0.00418331
0.168771
-0.150215
-0.0185557
0.0210675
-0.031749
0.0106814
-0.0980415
-0.019537
0.00319555
-0.00245828
-0.000737272
-0.046985
0.256235
0.00242342
-0.00181313
0.0016274
-0.218491
-0.00619853
0.00273003
0.0034685
0.140762
0.0191287
0.00177233
-0.00219194
0.000419612
-0.0042885
-0.00191003
0.082623
0.00620032
0.34884
-0.199157
0.122223
-0.260784
0.13856
-0.00140919
0.00101872
0.148446
-0.0216211
-0.126825
-0.000371412
0.000473616
-0.000102204
-0.0791271
-0.0273149
0.106442
0.0184584
-0.110774
0.092316
-0.0048556
0.00654239
0.0511043
0.0258924
0.0723507
-0.0428838
-0.0294669
0.00991683
-0.00539175
-0.162996
-0.0335265
0.196522
0.142618
-0.242008
0.0993904
0.00317374
-0.00746224
-0.0170458
0.197003
0.216336
-0.413347
-0.152675
0.260717
-0.108042
-0.0417371
0.0367873
0.00494974
0.0118801
0.000208386
-0.0120885
-0.0115125
0.0113785
0.000133923
0.127336
0.132321
-0.00196326
0.00137719
0.000586069
0.00187565
-0.000103315
0.0199614
0.111896
-0.131857
-0.270187
0.239438
0.0307482
-0.0217401
0.0280584
-0.00631827
-0.0401598
0.000205173
0.0399547
0.0190222
-0.0759024
0.0568802
0.0642253
0.033101
-0.0732017
0.0148182
-0.0656156
0.0824991
-0.0168835
0.00451993
-0.00178989
0.43996
-0.62411
0.18414
-0.0765765
0.111955
0.0619051
-0.0240544
0.0020129
-0.00140424
0.13083
-0.0534166
-0.0774135
-0.00957994
0.0308657
-0.199419
0.119431
0.0799879
-0.0870865
0.0140486
0.126654
-0.0989538
0.275995
-0.153774
0.00298097
-0.0474146
0.0444336
-0.0754286
-0.00581979
-0.00644017
-0.0461346
0.0525748
-0.262092
0.237492
0.0245998
-0.0611683
0.036779
0.225031
0.0487809
-0.186316
0.276932
-0.0906161
-0.00637927
0.00652408
-0.000144809
-0.0131373
-0.00158908
0.0147263
-0.0173564
0.106691
0.0214359
-0.0348554
0.0134195
0.0577455
0.0204992
-0.0600827
-0.00238074
0.0624634
0.186386
-0.0486787
-0.137708
-0.459226
0.457343
0.00188117
0.00181407
-0.00126182
-0.000552244
-0.00089581
0.154807
-0.153911
-0.00147826
-0.000484996
-0.198467
0.0456339
0.00361462
0.166183
-0.169798
0.486231
-0.299312
-0.186919
-0.192989
0.35549
-0.162503
-0.0951525
0.0667492
0.0284033
0.0123439
-0.00751184
-0.00483205
-0.183911
0.187525
0.0845011
-0.0288393
0.0423225
-0.014041
0.162088
0.0900677
-0.252157
0.0248351
-0.00577383
-0.0190612
0.0684087
-0.0879372
0.0195285
0.00107824
0.00813869
-0.00921693
-0.00878786
0.00796079
0.000827069
-0.322176
0.234117
0.00745139
0.0048925
-0.00279053
0.00595093
-0.0031604
-0.0392908
-0.0558617
-0.00682392
0.0728635
0.0371143
-0.0104497
-0.0266647
0.170391
0.0184852
-0.0610297
0.0640106
-0.265697
0.145534
0.120162
0.263106
-0.459946
0.196833
0.0114436
-0.0114436
0.0101492
-0.0702318
-0.181822
0.346779
-0.164959
-0.0760987
0.157393
-0.081294
-0.00405153
-0.0630298
0.0670814
-0.317112
0.235012
0.0820989
0.0102594
0.00162068
-0.217629
0.38691
-0.169285
-0.313175
0.183046
0.130129
0.0669512
0.0638789
-0.0801686
0.014553
-0.0307996
0.209216
-0.178417
0.0941588
-0.111515
-0.047635
-0.0537575
0.101392
-0.118458
0.0204163
0.126922
0.0185068
0.10484
-0.0364316
0.534923
-0.301316
-0.233611
-0.185004
0.35958
-0.0277615
0.0746312
-0.0468697
-0.177696
-0.0207717
0.136399
-0.150308
0.0139083
0.0851203
-0.104755
0.0196346
-0.300948
0.381519
-0.120993
0.0733581
0.0766758
-0.107954
0.031278
-0.529679
0.0704507
0.00134218
0.00046481
-0.00180699
-0.171154
0.0229896
-0.16256
0.381078
-0.218521
-0.0886769
0.107135
0.0618076
0.148359
-0.210167
-0.119006
0.135932
-0.0169268
0.0529436
-0.0740068
0.0210633
0.000573858
-0.00214011
0.00156625
-0.0249567
0.0779002
-0.0222455
0.0421724
-0.0199269
-0.0902596
0.326051
-0.235796
-0.0012832
-0.00770483
0.206325
-0.200564
0.037567
0.098354
-0.0362847
-0.0620693
-0.00539292
-0.000986342
0.0192422
0.0575148
-0.076757
0.106275
-0.0295987
-0.0801799
0.12234
-0.0421606
-0.0839222
0.11089
-0.0269674
-0.357555
0.293735
0.0638176
0.0721045
-0.109545
0.0374408
0.245382
0.0996305
-0.022215
-0.0962428
0.00228578
-0.00212979
-0.000155995
0.0923224
-0.00969937
-0.00539797
-0.431071
-0.187688
-0.129425
-0.263158
-0.0943997
0.474994
-0.28162
-0.193384
0.0112093
-0.0329495
0.16563
-0.104157
-0.0614729
-0.209859
-0.074363
0.28422
0.0244165
-0.0840898
0.0596733
0.0172871
0.0550635
-0.220246
0.0436852
0.17656
0.0390552
-0.0176193
0.00193709
-0.00107078
-0.000866316
0.0844036
0.00791884
-0.278083
-0.20624
-0.00204812
0.00211626
-6.81406e-05
0.12653
-0.0044441
-0.122086
-0.364633
0.0418838
0.322749
0.0249262
-9.11475e-05
0.0239842
0.144786
0.0905427
0.0359876
-0.0773872
0.201345
-0.123959
-0.0555338
-0.0629493
0.118483
0.0846722
-0.0200117
-0.0646605
0.0148432
-0.0370887
-0.11452
-0.00448556
-0.0887706
0.06056
0.0282106
-0.118671
-0.16373
-0.13592
0.0519056
0.084014
-0.307196
0.335345
-0.0281514
0.104923
-0.019803
-0.141803
-0.0293505
0.0445477
0.0538064
0.0120198
-0.000485855
-0.0115339
-0.33963
0.249365
-0.0385808
0.202716
-0.164135
-0.0711816
0.0725665
-0.00138483
0.162556
-0.201137
0.107633
-0.183732
-0.0326504
0.0228367
0.0096175
-0.0324542
-0.012472
0.000959551
0.139965
0.0977012
-0.237667
0.0267401
0.0788401
-0.10558
0.0168622
-0.00356228
-0.0132999
-0.0793298
0.0213368
0.211526
-0.179831
-0.0316955
-0.18948
-0.107919
0.297397
-0.176936
0.10284
0.0740965
0.0952125
0.0704171
-0.221728
-0.0403647
0.0133239
0.00353828
0.083201
-0.0587846
0.0230765
0.0291063
-0.0521828
0.0020129
0.000782825
-0.373
0.192804
0.180193
0.0146808
0.400674
0.031817
-0.0964538
0.0646368
0.00581894
-0.00524509
0.15215
-0.112358
-0.0397916
-0.0654911
-0.0862795
0.107553
-0.0212736
-0.0551034
0.153604
-0.0985006
-0.000143783
-0.268253
0.147679
0.082743
-0.0416997
-0.0410433
-0.0045306
-0.325159
-0.170554
-0.0105894
-0.013267
0.0238564
-0.090043
0.119829
-0.0297859
-0.122149
0.268586
-0.17842
0.0709492
0.10747
-0.0812131
0.107274
-0.0260608
-0.219836
0.202655
0.017181
-0.367942
0.00330773
0.00946376
-0.0109263
0.00146252
0.0685354
-0.0454589
-0.367127
0.216907
0.150219
0.0079861
-0.00988639
0.00190029
-7.56794e-05
-0.06026
0.0795022
-0.291683
0.305262
-0.0135804
0.43995
0.0529699
-0.0748298
0.0218599
-0.0524941
-0.167752
0.135933
-0.317759
0.109513
-0.237607
0.128093
-0.120553
0.213339
-0.0927864
-0.0677321
-0.0202051
-0.112598
0.0313846
-0.0902731
-0.0866635
-0.0019618
-0.102195
-0.140124
0.0186552
0.00560678
0.0613444
0.174433
-0.293105
0.324266
0.161965
0.029051
0.053448
0.0061356
-0.090873
0.0847374
-0.0559794
0.0827195
0.0256512
0.0108161
0.0598385
0.0923116
-0.218451
0.187651
0.427553
-0.588769
0.161203
0.046997
0.035746
0.0213882
-0.0319776
-0.384694
0.121534
-0.191129
0.398556
-0.207431
-0.283454
-0.101244
-0.117498
-0.0819211
-0.0989279
0.0150057
0.0826808
-0.0567706
-0.0974681
-0.172719
0.25647
-0.137873
-0.118597
-0.382797
0.209831
0.172963
0.0457238
0.00392132
0.051205
-0.0576452
0.094112
-0.0297642
-0.0643479
0.0307517
-0.0874166
0.0566649
-0.251968
0.196767
0.0552
0.0671556
0.0123528
-0.0795084
0.0039215
-0.0868323
0.0407618
0.0997859
-0.140548
0.0166958
-0.109733
0.0930376
-0.00688135
-0.00344568
0.00487893
-0.00143324
-0.064627
0.0605755
0.353049
0.08713
-0.440184
0.131469
-0.143212
0.0117426
0.00492588
-0.0607634
0.0558375
0.0276144
-0.00477766
0.00585862
0.140341
-0.146199
-0.21547
-0.157532
0.110703
-0.00788555
-0.102818
0.268962
-0.192587
-0.0763758
0.034454
0.108846
-0.1433
-0.0521358
-0.00536945
0.0575053
0.0221927
-0.0295377
0.007345
-0.0797313
0.0915289
-0.0117976
-0.11718
-0.022944
0.0106418
0.00137798
-0.26395
0.0303086
0.233641
0.0301574
-0.207854
0.125373
0.136126
-0.2615
-0.239805
0.0864726
0.0265331
-0.0952122
0.0686791
0.171595
0.00186161
-0.173457
0.00893273
-0.000946634
0.0725298
-0.0417307
-0.0307991
-0.189437
0.112049
-0.20191
-0.165219
-0.00181072
-0.00828004
0.0100908
-0.0890707
0.00933936
0.0378498
0.0570321
-0.016243
-0.247707
0.0867909
0.0240175
-0.110808
0.118105
-0.307588
0.160461
-0.0275377
-0.132923
0.163748
0.0756897
-0.166511
-0.173124
-0.00841943
0.0102582
-0.00183875
7.5125e-05
0.00126705
-0.0646358
0.0272947
0.0373412
0.0242412
-0.260076
-0.232379
0.492444
0.0069288
0.0726708
-0.0795996
0.00262268
-0.00682944
0.00420676
0.0579796
-0.113513
0.397936
-0.200939
-0.00345094
0.0291021
-0.14107
-0.131908
0.272976
-0.278666
0.181509
0.097156
0.429898
-0.166799
0.0764127
-0.0498796
0.153462
0.112973
-0.266436
-0.154849
0.0363846
-0.0550414
0.0857931
0.00583549
-0.0236671
0.0178316
0.251366
-0.141855
0.00340237
0.0067108
-0.0961567
0.131871
-0.0357141
0.0961296
-0.387814
-0.0301785
0.164939
-0.13476
-0.267802
0.139852
0.127949
0.189945
-0.139507
0.0844035
-0.0843395
0.119753
-0.0354136
0.0828282
-0.0772214
0.00317016
-0.00123306
-0.0754184
0.0953797
-0.365563
0.200102
0.16546
-0.00577866
-0.065403
-0.0405631
0.0295009
0.0110621
0.01441
0.0305143
-0.0449243
-0.00599364
-0.00279422
0.0210749
-0.0957914
0.0747164
0.217184
-0.176941
-0.0402436
0.191652
-0.358168
-0.360591
0.150728
-0.121123
0.18293
0.0695594
0.0219696
0.0253669
0.100889
-0.126256
-0.143358
0.144615
-0.00125765
-0.117386
0.0273433
0.0361712
0.00337699
-0.0658414
0.0624644
0.0271474
-0.172774
-0.0950282
-0.136313
0.134351
0.000930905
0.00226465
-0.215866
0.0298404
0.186026
-0.00188489
0.0240776
0.427541
-0.414481
0.229685
-0.00251942
-0.0161323
0.0186518
-0.12016
-0.0145341
0.134694
-0.164053
-0.045962
0.210015
0.0767419
0.00793028
-0.0926104
-0.00574892
-0.0525968
0.0844137
0.00640109
-0.00188116
-0.161489
0.151962
0.193041
-0.0314568
-0.161585
0.012315
-0.0010226
0.00732521
-0.0202668
-0.0647321
0.0849989
-0.104374
0.100164
0.00421053
0.076824
0.0129579
0.0664638
-0.0630868
-0.000102119
-0.0103497
0.0104518
-0.0739729
0.0899192
-0.212062
0.116137
-0.0328195
-0.0833171
-0.229985
0.0773094
0.0974512
-0.0278918
0.0760189
0.137333
-0.213353
0.00416134
0.00223975
0.108486
-0.0216952
-0.0700125
0.0749384
-0.14111
-0.00224767
0.00058322
0.0903334
-0.0909166
0.149825
-0.0442052
-0.042821
-0.176812
-0.202731
-0.00471279
0.00126711
0.255812
-0.13044
-0.04045
0.0749979
-0.034548
-0.446413
0.142909
0.303503
0.0613389
-0.0749522
0.0136133
-0.110756
0.14521
-0.445033
0.281204
0.163827
-0.0733423
-0.187443
0.222943
0.206949
-0.0425209
-0.00709906
0.04962
-0.00577342
-0.00205792
0.00783133
-0.0187336
-0.0230034
-0.102946
-0.0183464
0.121292
0.0424516
-0.163044
0.120592
0.091811
0.0154628
-0.280934
0.515515
-0.234582
-0.417385
0.0304453
0.38694
0.0202116
-0.0136934
-0.00651825
-0.255669
0.182326
0.228157
0.116825
-0.344983
0.00714454
-0.0934241
-0.113959
0.467003
-0.0150413
-0.0893331
0.103935
-0.0121239
-0.0782726
0.30643
-0.119604
0.273066
-0.00304339
-0.108156
0.1112
-0.169609
-0.046258
0.125765
-0.126661
0.0383235
0.000731633
-0.00383279
-0.115336
0.119169
0.0782927
-0.0985595
0.00886219
-0.138935
0.130072
-0.260533
-0.10503
-0.0411147
0.0162379
0.0248768
-0.173768
-0.022497
0.196264
0.140324
-0.190349
0.0500251
-0.0481238
0.062293
-0.0141692
-0.0109853
-0.00195178
0.0129371
-0.09348
0.0940632
0.0716615
-0.0305588
-0.0411028
0.12332
-0.117462
-0.0602406
0.00197172
-0.012957
0.276484
-0.114397
0.00112293
-0.00960493
0.008482
-0.0813229
0.0408729
-0.330404
-0.0328274
0.363229
0.0384422
-0.000118665
-0.013013
0.0163006
0.0944025
-0.25129
-0.228445
0.479724
-0.0892762
0.0954118
-0.00790767
-0.0163754
0.0242831
0.0908217
0.137225
-0.286674
0.149447
-0.206959
0.0298249
-0.168201
-0.0516357
0.0353392
-0.221656
0.465251
-0.445588
-0.0196756
0.0588052
0.0351058
-0.0292703
-0.1709
0.178352
-0.00745236
0.03154
0.0107825
-0.277815
0.16274
0.115075
-0.0918165
0.105393
-0.0135767
-0.0642285
-0.00863469
-0.298563
-0.402637
0.109238
-0.170262
0.0610235
-0.519803
0.245541
0.274259
0.177787
0.0337386
-0.186839
0.0501737
0.136665
-0.102408
-0.16329
-0.0757049
0.102698
-0.0269928
0.00662585
0.0390979
-0.171992
0.37304
-0.201055
-0.0142379
0.023198
-0.00896004
-0.00119684
-0.00035101
0.00154785
0.132604
-0.0439286
-0.0886757
0.0542547
0.0618818
-0.0143196
-0.0503162
0.0211751
-0.131541
0.127708
0.120058
0.0309572
-0.151015
-0.00936774
-0.00667231
-0.176912
0.00601233
-0.01039
0.106344
-0.0959539
-0.267903
0.109145
0.158757
-0.0116168
-0.0105024
0.0221191
0.0682008
-0.127668
0.0594671
0.0802828
-0.0290777
0.0695961
0.021522
-0.0911181
0.00817989
-4.5128e-05
-0.0676743
0.155541
-0.267154
0.111612
-0.101247
-0.0120496
0.113297
-0.0883733
0.0754386
0.0129347
0.0373532
0.0820868
-0.0630646
-0.220336
0.0523972
0.167938
0.0545771
-0.03729
-0.191449
-0.00620774
0.197656
0.157262
0.120047
-0.277311
-0.185538
0.408475
0.381197
0.105526
-0.48673
-0.00248461
0.000398957
0.00208566
0.0425838
0.0119933
0.233282
-0.249525
-0.0641467
0.0717258
-0.00757908
0.141393
-0.108152
-0.0332407
0.045869
-0.031459
-0.00716205
0.00138864
-0.0102988
0.0632687
0.0564723
0.0201032
-0.0765755
0.0249414
-0.192549
0.167607
0.00538431
-0.00921341
0.113615
-0.0194557
-0.0879589
0.238215
-0.150257
-0.12241
0.0494478
0.00314742
0.014335
-0.0168544
-0.150466
-0.093497
-0.159681
0.00549594
0.154185
0.235527
-0.0898413
-0.145687
-0.443116
0.014699
0.428405
-0.0107274
0.0143577
-0.00363028
-0.0818055
0.102571
-0.0207651
0.00201936
-0.0021706
0.00479328
0.146695
-0.242835
0.096139
0.25063
0.284289
-0.019469
-0.10318
0.122649
-0.0702737
-0.359967
-0.325811
0.132819
-0.0277285
-0.15911
-0.148447
0.203097
-0.0546505
0.0352856
0.127841
-0.0596399
-0.0434847
0.102872
-0.0593876
-0.00558031
0.0112536
-0.0056733
0.0960551
0.00410875
-0.326982
-0.119433
-0.0126881
-0.107471
-0.000967395
-0.0848757
0.0858431
0.0190367
-0.0126718
-0.00636498
-0.123267
0.112877
0.0753286
-0.0706806
-0.00464799
0.0283029
-0.126726
0.0984229
-0.00213113
0.235412
-0.0693079
0.00516117
-0.0512897
0.0494829
0.00180685
0.0321435
0.177072
0.0655064
-0.264484
0.198975
0.0648984
-0.0291132
-0.0357852
0.00205201
0.0613556
0.424255
-0.0430626
0.00459521
0.000283716
-0.000693893
0.000693893
-0.0842609
-0.00411238
0.202812
0.19627
0.00614016
-0.00602523
-0.000114932
-0.0099866
0.00792386
0.00206274
-0.0242976
0.141208
0.0303869
-0.447408
0.271377
-0.0396816
0.0353999
0.00428173
0.317679
0.158511
-0.0959039
0.0633023
0.0326016
0.00879908
-0.00767614
0.0647179
0.0193353
-0.0840532
0.00183641
0.00634349
0.0251088
0.0843995
-0.109508
0.000219372
-0.00150262
0.00128325
-0.117115
0.0327751
-0.233151
0.19858
0.0345705
0.0490687
-0.20875
0.00879743
-0.00885331
5.5874e-05
0.0384911
-0.00245391
-0.0360372
-0.000522835
-0.0171033
-0.0124343
0.139867
-0.0428721
-0.0530317
0.152535
-0.433468
-0.119019
0.0388388
-0.0228055
0.103689
-0.0808836
-0.090945
0.00228634
0.088977
-0.419383
-0.118766
0.150028
-0.0312624
-0.0711352
0.078064
0.00652264
-0.0207606
0.00850577
0.000291665
0.00719081
-0.00942272
0.00223192
-0.0769065
0.117668
0.0601545
0.0882912
0.0916725
-0.00726889
0.124511
0.131959
0.161421
0.134769
-0.296193
0.230835
0.0886107
-0.319447
-0.00590802
-0.133727
0.139635
-0.0795781
-0.343179
0.0664996
0.276679
-0.110649
0.0878431
-0.168126
-0.158254
0.326378
-0.448104
-0.176017
-0.195326
0.401577
-0.206255
0.00743223
-0.00379128
-0.00364094
-0.0673236
0.209941
-0.412013
-0.0687863
0.480798
0.100646
-0.120115
0.00573727
0.115642
-0.121379
-0.3081
0.136103
-0.0107708
0.00235134
0.224037
0.0449241
0.159303
0.116555
-0.27586
0.00610973
-0.105135
0.0990253
-0.00100936
-0.0859164
0.0869257
0.150085
-0.228159
0.148058
0.0801005
0.00928115
0.0660475
0.0678722
0.170046
-0.106266
-0.0637797
-0.0459491
-0.00534068
0.106045
0.0640013
-0.0374914
0.0340404
0.0199316
0.0208922
-0.00880321
-0.0164891
0.0252923
-0.0136101
0.00288274
-0.217951
-0.00357099
0.0153471
-0.0910211
0.0149074
0.0761137
-0.204535
-0.173661
0.378189
-0.00162348
-0.00238783
0.0040113
-0.15115
-0.181779
0.332928
-0.197354
0.403
-0.20565
-0.102062
-0.0312092
0.133271
-0.465306
0.184463
-0.084341
0.107288
-0.0229472
0.0136902
0.00534659
0.210094
-0.0115838
0.00278061
-0.177564
0.202504
-0.028992
0.140887
0.00121279
0.0372783
-0.224406
0.397227
-0.172828
-0.00118475
0.000111592
0.00107316
-0.132196
0.160686
-0.0284903
-0.113583
0.265755
-0.152173
0.328406
-0.188825
-0.139582
-0.0047896
0.235624
-0.0805597
0.0459549
0.0346049
0.0248898
-0.0526513
0.00829968
-0.0108407
0.002541
0.10893
-0.0128749
0.00438121
-0.0024726
0.122068
-0.100665
-0.021403
-0.143077
0.0742953
-0.0842753
0.00998001
0.00849394
-0.00130313
-0.0133474
0.0698197
0.029619
0.0450122
0.0266016
0.0675104
-0.088069
0.113273
-0.0252037
-0.108534
0.160754
-0.0522208
-0.063492
-0.0170678
0.0616323
0.11236
-0.173993
0.0799614
-0.0222159
0.346516
0.122496
-0.469019
0.00469504
0.00144512
-0.0454933
0.170657
0.0796656
-0.0500466
0.114348
-0.117391
-0.0516647
0.20403
-0.152366
0.0565198
-0.0416782
0.180674
0.146368
-0.327044
0.0180911
-0.0881036
-0.167392
0.0351952
0.203226
0.124533
-0.0991663
0.107225
-0.103469
-0.00375546
-0.0320155
0.0779704
-0.0135285
0.0448609
-0.0631349
0.018274
-0.000884391
0.00773643
-0.00685204
-0.269176
-0.232943
0.00511886
-0.000523646
-0.0859454
-0.202444
0.288389
0.0801039
-0.0728282
-0.00727576
-0.0783961
0.103505
0.0120741
0.17155
0.249524
-0.327796
-0.0694503
-0.10897
0.163431
-0.23686
-0.266363
0.152779
0.144041
-0.0310876
-0.112953
0.0666448
0.0134591
0.0674027
0.0354696
0.0407368
0.0241616
0.00422664
0.0920132
-0.0962399
0.432149
-0.236465
-0.195686
0.11315
-0.0217439
-0.0914064
0.00520551
0.0319088
0.306404
-0.142277
-0.16413
0.0802676
0.0234215
0.0858692
0.0770109
-0.16288
-0.0166316
0.0161107
0.000520947
0.0889644
-0.189108
0.100144
-0.000337825
-0.00114493
0.00148276
-0.118029
0.464539
0.0716097
-0.0425586
0.0956505
-0.507664
-0.0551956
-0.0535359
0.108732
-0.218141
0.130181
-0.150543
0.144635
0.0178785
-0.137643
0.119764
0.148628
0.279716
-0.120415
0.429075
-0.270914
-0.158168
0.0129732
-0.0554941
0.0109465
-0.0109465
0.151099
-0.109058
-0.0420413
-0.00359263
0.00240787
-0.216
0.213869
-0.0282027
0.129091
0.182354
-0.0275477
-0.0881319
0.0386079
0.049524
0.00151175
0.00145891
0.123937
0.0271624
0.235338
0.131549
-0.366891
0.056887
0.0233957
0.138275
0.0503601
-0.266361
-0.0303044
-0.128125
0.158429
0.00881342
-0.0106241
-0.0255975
0.000239737
0.0253578
-0.074105
0.0720803
0.00202473
-0.0228362
-0.0519936
-0.0278548
0.0527446
-0.176459
0.0559061
0.295467
-0.212217
-0.0832509
0.0544779
0.0254835
0.204219
0.0165605
0.0629554
-0.0795159
0.03315
0.126274
-0.159424
-0.424
0.294396
0.129604
0.00677437
0.0144421
-0.0212165
0.0136314
-0.0116303
-0.00200107
-0.222409
0.01041
-0.00211031
0.13118
-0.122318
-0.0913943
0.105172
-0.0137781
-0.0207518
0.0813118
0.0488253
0.0123482
0.0514998
0.0251832
-0.0766829
0.529835
-0.325939
-0.203905
-0.453229
0.0532636
0.39995
-0.00676332
-0.00553154
0.0122949
-0.126111
0.266075
-0.139424
-0.138222
0.153207
0.228933
-0.0936762
-0.135258
0.0410175
-0.0550889
0.0140714
-0.00456966
-0.0714914
0.076061
0.0188876
3.74065e-05
-6.11714e-05
2.37649e-05
0.03268
-0.128837
0.0757678
-0.0511109
0.164979
-0.0791101
0.37766
-0.0879068
-0.289758
0.171058
0.270828
-0.441897
-0.299282
-0.0915603
0.390837
0.0109246
-0.0110268
0.0012204
-0.0751455
0.0646515
0.010494
0.345166
-0.0956428
0.361433
-0.1261
-0.113662
-0.129711
-0.148091
0.277801
0.0261889
-0.128251
-0.128495
-0.0263549
-0.0151045
0.0105214
0.0157323
-0.0262537
-0.0339188
-0.0767298
-0.0503258
0.0750623
-0.0247365
-0.0697474
-0.00539807
-0.13963
0.276854
-0.0814699
0.017978
0.231235
0.0642311
-0.00294176
-0.0323249
-0.0586962
-0.000650074
-0.00109374
0.00174382
-0.0116811
0.051653
-0.0399719
0.043435
-0.191882
0.120115
0.0239249
-0.0713637
0.0261461
0.0452176
-0.000215122
8.36147e-05
0.000131507
-0.00167267
-0.0989203
0.062339
0.0365813
0.0820007
-0.0829681
-0.00778285
0.00975457
0.343381
-0.457346
0.0893209
0.00235152
-0.0370209
-0.00313895
0.0950048
0.00244643
0.448901
-0.257559
0.125541
0.00229934
-0.00106378
0.00329739
-0.00223361
-0.0174374
-0.0236774
-0.0607726
0.0929038
-0.0321312
0.311993
-0.141116
-0.170878
0.0215791
0.137432
-0.159012
0.122264
-0.105357
-0.0169067
-0.0127633
0.0116926
0.1479
-0.199565
-0.0527021
-0.0273164
0.0800184
-0.139504
0.305189
-0.165687
0.0234325
0.0531935
-0.085006
0.0318125
0.161532
-0.303811
-0.345517
0.20584
0.139676
-0.0757102
0.151729
-0.165263
0.0234596
-0.167082
0.398413
-0.231335
-0.123628
0.18526
-0.179989
0.0570044
-0.0121435
-0.0743331
0.0801096
-0.00577651
-0.0146194
0.0130303
0.328733
-0.0106446
-0.0695622
0.0802069
0.317
-0.162846
-0.154155
-0.0127912
-0.00158664
-0.0808792
-0.102414
-0.00244521
0.104859
-0.304241
0.164735
-0.168115
-0.0838531
-0.0205203
-0.0553821
0.104452
-0.0272377
-0.0772147
-0.10949
0.140447
0.00999838
-0.000478304
-0.00952008
0.0811357
0.013869
-0.171147
-0.085304
0.231999
-0.0399453
0.000225373
-0.00268365
-0.0928733
0.00291067
0.0899626
-0.436636
0.2473
0.189331
-0.0777748
0.0278786
0.0498962
0.242948
0.194233
-0.437183
0.108152
-0.137144
0.341788
-0.264661
-0.0771288
0.0535286
-0.0800678
0.0265392
0.00147624
0.197089
-0.397106
0.200013
0.123316
0.153615
0.0631322
-0.0788782
0.015746
0.221051
-0.0655106
-0.0107491
-0.0293373
0.0400863
0.00985555
0.000434368
-0.0102899
-0.0905879
0.10609
-0.0155021
-0.117498
-0.356868
0.0565503
0.300317
0.094171
0.247614
0.24858
-0.366615
0.00949182
0.0611225
0.0201374
0.057612
0.209339
-0.171255
-0.0380845
0.00199063
-0.00361411
-0.396149
0.136064
-0.177548
-0.135628
0.0113918
-0.0218414
0.135314
0.160332
-0.295647
-0.0128487
0.00761194
-0.224052
0.402484
-0.178439
-0.000145559
-0.107111
0.107256
0.139138
-0.142773
0.293867
-0.151095
-0.289319
0.254728
0.0345894
-0.182815
0.42576
0.000408313
0.00755247
-0.203822
0.039768
-0.196272
-0.227728
-0.00822904
0.0488149
-0.0405859
0.125725
-0.000183283
0.471051
-0.252972
-0.218082
0.110556
-0.104447
0.00847538
0.127924
-0.100315
0.345854
0.0263952
0.210573
-0.109902
0.00748807
-0.00095937
-0.000185565
0.0711951
0.0119048
-0.0830999
0.148149
0.136093
-0.284243
0.0567156
0.0150102
-0.0227304
-0.0761506
0.098881
0.115016
-0.021571
-0.0934446
-0.136077
-0.0291855
-0.0230782
0.111187
-0.0881088
0.0511504
-0.200757
0.104549
0.0962078
-0.12204
0.0213749
-0.203317
0.291926
0.14138
0.179935
-0.321318
-0.158627
0.336425
-0.1778
-0.0111918
-0.0992331
0.110425
0.0783886
0.0575437
0.117747
-0.0114034
0.121163
0.149519
-0.270684
0.129053
-0.159358
0.0255455
-0.00193867
-0.00689857
0.00883724
0.0389951
-0.0883004
0.271345
0.360205
-0.0903821
-0.269825
-0.115799
0.109911
-0.0455901
-0.0643205
-0.14514
0.011337
-1.58944e-05
-0.0113211
0.317133
-0.179802
-0.137332
-0.124028
0.274071
0.0861305
0.0328042
0.0219164
-0.0547206
3.82978e-07
0.000441326
-0.000441709
0.176049
-0.477368
0.0225847
0.149688
-0.172273
0.190385
0.212611
0.0241381
-0.102534
0.462321
-0.251574
-0.210752
-0.18681
-0.0777606
0.26457
-0.0600124
0.0660753
-0.00606294
-0.365399
0.461049
0.161068
-0.308384
0.147315
-0.409157
0.221724
0.187431
-0.105558
0.052448
0.0531104
0.435782
-0.280314
-0.155473
0.284973
-0.137026
-0.147949
0.00807844
0.0311302
-0.0392086
0.0169381
-0.0661162
0.0491781
0.03943
-0.0230575
-0.0758628
-0.000212456
-0.000473207
0.000685663
0.112522
-0.0817673
-0.030755
0.180074
0.137058
-0.355615
0.0999445
0.00104362
0.00990286
0.0366154
-0.223426
0.0359021
0.0838509
-0.0190724
0.103472
0.126546
-0.100357
-0.122722
-0.0303848
0.153107
-0.0844933
-0.127266
0.211759
-0.13612
0.0189398
0.177128
-0.205477
0.0283484
0.239667
-0.439267
0.199595
0.082097
-0.0289036
0.0178346
-0.00745973
-0.0103749
0.127351
-0.022805
-0.104546
0.155482
-0.45477
-0.0468609
0.0361118
0.0309384
0.00576778
0.00316495
0.00143864
0.00283343
-0.0113684
-0.0800259
0.262148
-0.460477
0.198326
-0.386362
0.135062
-0.00531409
0.418858
-0.413559
0.0225623
-0.455138
0.341733
0.113403
-0.242813
-0.0465072
0.00456594
0.000807755
-0.00537369
0.0325078
-0.104307
0.0931151
-0.196844
-0.158772
0.0954446
-0.091218
-0.0687875
-0.00095987
-0.22809
-0.216945
0.0874958
0.0715884
-0.101302
-0.0490057
0.0581251
-0.0391715
-0.0189537
-0.100018
0.0841981
0.151329
-0.156873
-0.0372375
0.104954
-0.136163
0.424964
-0.210692
-0.214277
-0.00217047
0.0905694
-0.088399
-0.17169
-0.0467622
-0.0316234
0.0589181
0.0210933
-0.0807838
-0.020636
0.10142
-0.288024
0.146952
-0.0260131
0.125799
7.85942e-05
-0.000161937
8.33428e-05
-0.031211
0.0117946
0.0638438
0.0181334
-0.0819772
-0.0974419
0.00456858
0.000962311
0.0103747
-0.192992
0.119308
-0.322626
-0.0345623
-0.164743
0.199305
-0.00537278
-0.0512359
-0.305632
-0.126056
0.116377
0.0550423
0.0863504
0.107063
-0.000972792
-0.45204
0.175063
0.276973
-0.475546
0.204437
0.271106
-0.144255
0.234322
0.110649
-0.476049
-0.00764447
-0.0666886
-0.0275985
0.0104952
-0.0843699
0.0712201
0.0131498
-0.284971
0.199025
-0.00850696
0.00970492
-0.00119796
0.0957382
0.0265256
0.273933
-0.459507
0.18557
-0.0755985
-0.0655117
0.44813
0.0178226
-0.465967
-0.0171011
-0.0882686
0.10537
0.0467623
-0.20178
0.155017
0.159671
0.152322
-0.00199189
-0.000543117
0.00253501
-0.0103497
-0.000755261
0.000991154
-0.000235894
0.158662
-0.219565
0.0609018
-0.00455118
-0.00689242
-0.118144
0.00360757
-0.00522791
0.00162033
0.000303053
-0.00229495
-0.458558
-0.1141
0.0910222
0.0647206
-0.0692903
-0.196974
-0.190759
-0.218909
0.409663
-0.00122083
-0.0124725
0.0136933
0.134011
-0.218505
0.323525
-0.126394
-0.197133
0.0293018
0.0555641
-0.0848659
-0.0307324
0.345105
-0.0965308
0.129739
0.0283582
-0.158098
0.449978
-0.13867
0.164023
-0.0253531
0.0447526
0.0596997
-0.270931
-0.188579
-0.00156582
0.00019005
0.00137577
-0.137498
-0.26145
-0.214099
-0.0859027
0.0195071
0.0663956
-0.0852555
0.0992757
-0.0140203
0.0535915
-0.108787
0.376484
0.0759619
-0.0192463
0.161553
0.0991625
0.00433652
-0.288682
0.147566
-0.119714
0.312927
-0.193216
0.0502884
-0.00217442
-0.048114
0.18903
0.216561
-0.405599
7.89771e-05
0.209597
-0.0771868
0.10549
0.0254101
-0.0370912
0.02061
-0.0285176
-0.136465
-0.131439
0.141476
0.0830917
-0.197891
-0.147628
0.173776
0.00244471
-0.176221
-0.158153
0.0496192
-0.0798535
-0.034496
0.114349
-0.234943
-0.186546
0.421481
-0.00196252
0.163497
-0.310098
0.146599
0.296499
-0.171457
-0.125043
-0.0785253
-0.0270332
-0.0267023
0.0736639
-0.0469616
0.040206
0.0871454
-0.348732
0.471222
0.0179362
-0.0191571
-0.099087
0.10894
-0.00985317
0.158067
0.123014
-0.100166
-0.0228484
0.140717
-0.288932
0.157023
-0.00338522
0.0349457
-0.0315605
-0.113221
-0.259656
0.13994
-0.12984
0.266782
-0.136944
-0.00065693
0.00109826
-0.154536
-0.118856
0.27339
0.3192
-0.200287
-0.118914
0.00255583
-0.171431
0.0327611
0.000581193
0.00664857
-0.00722977
-0.138622
0.0630237
-0.342237
-0.100888
-0.217996
0.408376
-0.0100695
0.171214
-0.144935
-0.0262789
0.155472
0.161528
-0.0303787
-0.00930294
0.00702473
-0.0069097
-0.000115026
0.323595
0.112183
-0.00310527
-0.00442594
0.00753121
-0.0870002
0.00621642
0.20925
0.0554206
-0.264672
-0.253573
0.143255
0.110318
-0.0482083
-0.0331146
-0.0388384
0.327979
-0.289141
0.0526052
0.0196299
-0.0722351
0.109848
0.0196009
-0.368338
0.0824793
-0.0643882
-0.00590292
0.00316409
0.00273882
-0.0116045
0.263726
-0.102386
-0.16134
0.0121917
-0.0109755
-0.00121627
-0.117072
-0.0190478
0.0186023
0.0254721
-0.0700602
0.0100479