/*--------------------------------*- C++ -*----------------------------------*\
| =========                 |                                                 |
| \\      /  F ield         | OpenFOAM: The Open Source CFD Toolbox           |
|  \\    /   O peration     | Version:  v2012                                 |
|   \\  /    A nd           | Website:  www.openfoam.com                      |
|    \\/     M anipulation  |                                                 |
\*---------------------------------------------------------------------------*/
FoamFile
{
    version     2.0;
    format      ascii;
    class       volVectorField;
    location    "250";
    object      U_0;
}
// * * * * * * * * * * * * * * * * * * * * * * * * * * * * * * * * * * * * * //

dimensions      [0 1 -1 0 0 0 0];


internalField   nonuniform List<vector> 
18355
(
(1.1618 -0.0400663 0)
(1.00921 -0.000384394 -9.22521e-22)
(0.907852 0.0657527 2.99983e-21)
(1.01 0.00110328 -2.087e-22)
(1.03809 0.0102891 5.86969e-22)
(0.921769 0.0747068 3.48598e-22)
(1.01088 -0.00133504 -1.35032e-21)
(1.04077 0.00615111 0)
(1.00501 3.9011e-05 0)
(0.967552 -0.0762606 0)
(1.00668 0.0238052 0)
(1.02806 0.123487 2.4647e-20)
(1.0259 0.127789 -5.15619e-21)
(1.10901 -0.0346016 -7.44829e-21)
(1.00702 5.13198e-05 3.72956e-24)
(1.00991 -0.000177016 3.92445e-22)
(1.00991 0.00102942 0)
(1.00525 0.0116681 -5.851e-22)
(0.963773 -0.0355792 0)
(1.01638 -0.00102751 -8.25147e-24)
(1.05603 0.192942 3.968e-21)
(1.02361 0.0131607 3.57904e-21)
(1.00807 -6.78884e-05 -1.1211e-22)
(0.917531 0.0627243 6.70487e-22)
(1.00803 -4.18315e-05 1.22389e-22)
(1.00834 0.0034413 -5.22259e-22)
(1.01073 -0.000662279 -3.68243e-22)
(1.01029 0.00203943 -7.31764e-22)
(1.00384 -2.8167e-05 -4.35304e-23)
(1.004 0.0234656 7.57948e-23)
(0.798052 0.194345 0)
(1.02019 0.0607238 0)
(1.01198 -5.15185e-05 0)
(1.00936 -0.000189907 1.28932e-22)
(1.00594 -9.71485e-05 0)
(1.01208 0.00595867 0)
(1.04016 0.0250419 -2.71716e-21)
(1.01204 0.00616498 0)
(1.0027 0.0242089 -1.11924e-21)
(1.01398 0.0116037 1.0528e-21)
(1.01323 0.000221285 -4.12559e-21)
(1.00549 0.0246531 6.38348e-22)
(1.00942 -0.000215461 -8.25397e-22)
(1.00897 -0.00034823 0)
(1.00905 -0.000354497 0)
(1.01761 0.192297 -4.5049e-21)
(1.00988 0.00230482 -4.04499e-22)
(1.00979 0.00218988 3.22757e-22)
(0.792901 0.160212 0)
(1.01204 0.000161705 0)
(1.0064 -1.04141e-05 4.98208e-22)
(1.06723 0.3503 -1.08108e-20)
(1.01228 0.000179539 -5.928e-24)
(1.05572 -0.0470281 0)
(1.01578 0.00348401 -1.39316e-21)
(1.0169 -0.000631794 5.06772e-22)
(1.00536 -5.00668e-05 -5.10035e-22)
(0.760541 0.269216 2.34073e-20)
(1.00831 0.00388421 0)
(0.990102 0.240025 -1.13635e-20)
(1.00946 -0.000203513 2.70056e-22)
(1.01571 0.0820238 -5.89268e-21)
(1.06275 -0.0423067 0)
(1.01489 -0.00245057 8.73581e-22)
(1.0393 0.0683479 -2.06336e-22)
(1.00695 -4.31301e-05 0)
(1.02864 0.0213133 -3.02755e-21)
(1.03972 0.0251165 0)
(1.00952 -9.81469e-05 -9.48569e-22)
(0.943157 -0.092311 1.42751e-22)
(1.01085 -0.000164648 6.54668e-22)
(1.01591 0.00363211 1.83494e-21)
(1.01854 0.050946 3.36539e-22)
(1.0031 0.00798918 1.60209e-21)
(1.01076 0.0622594 9.6121e-22)
(1.00959 -0.000121577 2.60571e-22)
(0.762385 0.256689 -7.77171e-21)
(1.0097 -0.000136969 0)
(1.01076 -0.000201588 0)
(1.00196 0.0579634 1.05803e-21)
(1.02801 0.0214522 2.66077e-21)
(0.971461 0.0467508 2.40449e-21)
(1.00963 -0.000106702 1.10423e-21)
(1.02769 0.0245235 0)
(1.05119 0.0294677 1.08423e-22)
(1.00392 2.81465e-05 1.10609e-21)
(1.00643 0.000236555 -5.13796e-22)
(1.04124 0.0250463 0)
(1.00923 0.00130035 -4.60522e-22)
(1.04202 0.0257994 -2.2681e-21)
(0.960554 0.0431979 0)
(1.04223 0.158709 -1.09298e-21)
(0.967697 0.0365379 -2.16336e-21)
(1.01202 0.000208817 1.39729e-21)
(1.00875 -0.169798 -2.97531e-21)
(1.01756 -0.00146262 1.73983e-25)
(1.0089 0.00136318 -8.06207e-24)
(1.01676 -0.00121815 7.31298e-22)
(1.0109 0.0110433 0)
(1.02192 0.0127157 -5.49365e-21)
(1.0492 0.0299077 8.52566e-22)
(1.01063 -0.000186167 -7.43284e-22)
(1.01179 0.000181928 -1.74758e-21)
(1.01061 -0.000746447 0)
(1.02757 0.0223555 -1.79495e-22)
(1.01002 -0.000156739 -9.05482e-22)
(1.03533 0.0701997 0)
(1.00985 -0.192636 5.14619e-21)
(1.03693 0.0253713 -3.25275e-21)
(1.00974 -0.000232986 0)
(1.00645 -0.000103552 -3.09683e-22)
(1.00414 -2.1414e-05 -9.45641e-22)
(1.00864 0.0396277 2.81199e-22)
(1.02699 0.0240119 -2.46774e-21)
(0.953694 0.183588 -4.9646e-21)
(1.0194 0.0322501 6.34434e-22)
(1.01054 -0.000212069 8.65655e-22)
(0.991964 0.0695808 -7.50973e-22)
(1.02393 0.019232 2.02866e-21)
(1.02899 0.0207426 3.2172e-21)
(0.952918 -0.081081 4.91875e-22)
(0.90593 0.0743058 -3.64676e-21)
(0.957661 0.115451 0)
(1.0448 0.0229758 1.87623e-21)
(0.983402 0.0645936 -1.36901e-21)
(1.00079 0.196215 0)
(1.0107 -0.00108503 8.37721e-22)
(1.00995 0.000903942 -1.4461e-21)
(1.11467 -0.0729167 0)
(1.022 0.0104753 0)
(1.00896 0.0013987 3.4034e-23)
(1.04966 0.367181 0)
(1.01451 0.00575849 0)
(1.00063 0.0393212 4.90226e-21)
(1.09009 0.0359487 0)
(1.00932 0.00109971 3.12859e-22)
(0.956212 -0.0317939 5.28175e-21)
(0.975859 -0.107512 0)
(1.01205 0.0010217 -6.4986e-22)
(1.04222 0.171192 0)
(1.03664 0.0222762 -9.00969e-21)
(0.999361 0.0213369 2.22623e-21)
(1.00956 0.00201751 -2.31734e-23)
(0.936509 0.151686 -3.12593e-20)
(1.09111 0.0420323 0)
(1.01402 0.000376674 -3.10898e-21)
(0.96167 0.236654 0)
(1.01241 -0.00224257 4.97449e-23)
(1.00702 0.038733 3.21976e-22)
(0.912484 -0.0072276 3.46201e-23)
(1.01019 0.00190697 0)
(1.02887 0.0203561 -3.39568e-21)
(1.01249 -0.000812761 0)
(1.00392 0.0033816 -1.64845e-21)
(1.00952 -0.000225976 2.86024e-22)
(1.00756 -8.61502e-08 -4.98249e-22)
(1.00984 0.00082265 1.34218e-21)
(1.00444 3.69443e-06 -1.24818e-21)
(1.00963 0.00209097 9.01373e-24)
(1.00736 -8.58333e-07 8.30762e-22)
(1.00505 0.0151423 7.51767e-22)
(1.01453 0.00596564 0)
(1.00973 -0.000223846 0)
(1.00267 0.0108989 5.9678e-22)
(1.00172 0.0120044 5.20808e-22)
(0.975446 -0.0389229 -1.28269e-21)
(0.969819 0.242175 0)
(1.11747 -0.0323772 0)
(0.901192 0.263696 7.67181e-21)
(1.03628 0.0223912 4.47344e-22)
(1.00441 -4.63692e-05 -3.74442e-22)
(1.00441 0.0387999 -5.31636e-22)
(1.00405 -2.42494e-05 -8.93793e-22)
(0.774056 0.102553 6.44664e-21)
(1.00516 -6.86428e-05 0)
(1.0134 0.000292729 2.50329e-21)
(1.00483 -3.74978e-05 1.09726e-21)
(1.01125 -0.00130498 -6.68555e-23)
(1.03784 0.0128864 -7.13734e-21)
(1.03027 0.0310997 -1.56027e-21)
(1.00385 -9.89797e-06 -5.1628e-22)
(0.986338 -0.0390173 1.22677e-21)
(1.02284 0.0119586 -1.8988e-21)
(1.01058 0.00254685 -1.33895e-21)
(0.995094 -0.0199139 1.26054e-21)
(1.01171 0.00018784 3.41725e-22)
(1.00496 1.59381e-05 -3.56385e-22)
(1.04198 0.0279064 -8.91341e-22)
(1.01585 0.00122621 0)
(1.01059 -0.000369226 -4.31666e-22)
(1.00575 0.191846 0)
(1.00964 0.0140886 0)
(1.00935 -0.000371102 5.21108e-22)
(1.01079 -8.12162e-05 -1.39101e-22)
(1.01525 0.000296093 -1.3755e-22)
(0.935373 0.175783 0)
(1.00714 -4.18797e-05 5.01165e-22)
(0.98185 -0.123283 -5.62854e-21)
(1.0093 -0.000391816 1.09793e-21)
(1.1175 0.00884259 -6.21809e-21)
(1.01152 0.00012175 6.21729e-22)
(1.00869 0.00720529 5.75181e-22)
(1.00107 0.0227616 0)
(1.00478 -2.75009e-05 -1.2838e-21)
(1.11012 -0.0504513 0)
(1.02223 0.00888833 0)
(0.896666 0.253207 -6.61211e-21)
(1.01047 0.00248308 -4.70489e-22)
(1.01161 -0.000113578 -1.24808e-21)
(1.01277 6.71119e-05 4.10292e-22)
(1.01765 0.00996507 -2.29944e-21)
(0.949498 0.0209351 -6.83698e-22)
(1.01209 -0.0028609 -7.81841e-22)
(1.01239 -0.00230017 1.42502e-23)
(1.01259 -0.0023718 -2.94339e-23)
(0.773244 0.0456218 0)
(1.02947 0.031521 1.45076e-21)
(1.04155 0.021765 1.68416e-21)
(1.02195 0.00940427 0)
(1.00985 0.00233094 -2.0571e-22)
(1.03687 0.0254044 6.50754e-22)
(1.01034 -0.0002717 0)
(1.0395 0.025095 1.62946e-21)
(1.01341 0.00874347 7.98713e-22)
(1.00769 -0.0351503 0)
(1.0138 -0.00758519 -8.49296e-22)
(1.01044 -0.000195594 2.6437e-22)
(0.986925 -0.100925 -1.46999e-22)
(1.16387 0.000882142 0)
(1.02409 0.0442768 0)
(1.01277 -0.00256473 -2.17198e-22)
(1.02812 0.0222003 2.02476e-22)
(0.961315 -0.0391056 -4.92364e-22)
(1.01047 -0.000238999 -2.7683e-22)
(0.999964 0.00892516 0)
(1.00586 -0.0296446 4.35967e-22)
(1.03252 0.00932256 -8.68752e-21)
(1.01229 0.194853 0)
(1.0475 0.0186451 -8.456e-21)
(1.01206 -0.00169451 -1.6955e-21)
(1.00958 -0.000428673 -5.06489e-22)
(1.03736 0.0125383 7.91862e-21)
(1.01237 -0.00141799 1.62342e-21)
(1.02596 0.0412383 0)
(1.02186 0.00903082 -3.49204e-21)
(1.01584 0.00317081 4.12249e-23)
(1.00984 0.00213901 0)
(0.951582 0.0137613 -1.76787e-22)
(0.934951 0.0327701 0)
(1.01104 -0.000209285 -6.06409e-22)
(1.01525 -0.00300817 -8.5199e-22)
(0.93557 0.0230476 0)
(0.95508 0.0974115 -6.41907e-21)
(1.01512 0.00913732 7.26174e-22)
(1.01112 -0.00123389 8.98883e-23)
(1.00586 0.0100024 -8.2938e-22)
(1.04669 0.0188298 -8.14823e-21)
(1.01309 0.000509464 1.83552e-21)
(1.01508 -0.00776603 -7.69427e-22)
(1.00863 0.000992179 0)
(0.917147 -0.0226755 0)
(1.05365 0.00855613 -2.55191e-23)
(1.01453 0.0180499 6.49665e-22)
(1.05005 0.0300749 1.05283e-20)
(0.999546 0.0233443 5.49207e-22)
(0.984671 0.00193356 0)
(1.00724 0.0189512 -1.5701e-21)
(1.00899 0.00357271 0)
(1.00862 0.0009337 -1.79355e-22)
(1.01596 0.0033454 -3.10638e-21)
(1.01066 0.000399 0)
(1.00994 -0.000247439 1.50151e-22)
(1.00897 0.00643713 0)
(1.04205 0.022122 0)
(1.00979 0.00156858 0)
(1.01871 0.00990631 0)
(1.00473 -0.00927344 0)
(1.00924 0.00103542 -3.1278e-22)
(1.07011 0.0107659 -5.84039e-23)
(0.823158 -0.250676 0)
(1.00302 -0.00495708 1.53022e-21)
(1.01789 0.010289 2.91878e-22)
(1.01753 0.0339979 0)
(1.00982 -0.000248325 6.14004e-22)
(1.04029 0.0237449 1.17791e-21)
(1.02193 0.00780264 0)
(1.02965 0.0334318 -1.26963e-21)
(1.01397 0.000279352 2.48019e-21)
(1.02896 0.0329287 0)
(0.881994 -0.0128274 1.40666e-22)
(1.01178 -8.1048e-05 -1.81365e-22)
(1.03174 0.0392152 -4.17106e-21)
(1.0252 0.0183901 -2.45359e-21)
(1.01927 -0.00595415 7.8458e-22)
(1.01106 0.0197563 -4.35336e-22)
(1.00648 6.12197e-05 -3.58438e-24)
(1.01064 -9.14207e-05 0)
(1.06664 0.013599 7.81993e-22)
(1.01838 0.00993101 0)
(1.00393 0.0230513 -5.63069e-22)
(1.04122 0.0254078 3.07587e-21)
(0.91585 -0.312125 0)
(1.03831 0.0223568 0)
(1.01177 0.0175117 -1.91432e-21)
(1.0071 0.00869213 -1.18227e-21)
(1.00403 -0.0118324 0)
(1.01174 9.10985e-05 -7.0302e-22)
(1.0454 0.0160086 1.46897e-20)
(1.04968 0.0293615 -2.83031e-21)
(1.03077 0.0380307 4.28524e-21)
(0.992078 -0.0303074 -2.01281e-21)
(0.865435 0.0784957 4.49165e-21)
(1.01045 0.00308549 0)
(1.01362 0.010108 -4.19289e-22)
(1.06491 -0.0270093 4.67951e-23)
(1.01715 0.0351654 -3.22166e-22)
(1.01043 0.00304576 1.53656e-22)
(1.00971 0.00212323 -2.71307e-22)
(1.00997 0.00213601 -1.26161e-21)
(1.04623 0.055896 0)
(0.871092 0.0868927 -4.52175e-21)
(0.673922 0.0757482 1.00543e-20)
(0.997595 -0.0358408 -9.20123e-22)
(1.00186 -0.00706679 -1.86357e-21)
(1.0371 0.0216385 -6.08973e-21)
(0.963744 -0.00279462 -1.59998e-21)
(1.01207 -0.00206816 -8.05472e-23)
(1.02212 0.0085479 0)
(1.03659 0.0217316 -1.81718e-21)
(1.0181 0.00534256 0)
(1.02612 0.0435202 0)
(1.00671 -7.9739e-05 -1.89256e-23)
(0.86812 -0.0384287 -1.08774e-22)
(1.01036 -0.000143185 0)
(0.968293 0.0680036 0)
(1.01451 0.000640112 0)
(1.01429 0.0114613 -7.19456e-22)
(1.00662 0.00683568 4.21974e-22)
(1.004 0.126699 1.54331e-20)
(1.06322 -0.043153 1.59735e-20)
(1.02758 0.0404579 5.62893e-22)
(1.00616 -0.0320818 0)
(1.01857 0.0134569 -1.18213e-21)
(1.00931 0.00136661 5.7417e-22)
(1.0178 0.00517489 2.73924e-22)
(1.0132 -0.00746946 6.38431e-22)
(0.950668 -0.0801746 -1.62752e-22)
(1.00939 0.00152669 -5.43192e-23)
(1.0107 0.000664866 1.49952e-22)
(0.978562 -0.0137089 -1.00231e-21)
(1.01961 0.0129357 2.82098e-21)
(1.00946 0.00141199 0)
(0.969206 0.11636 0)
(1.01237 -0.00630483 0)
(1.0099 0.0021358 5.1737e-22)
(1.01218 -0.00203359 6.88331e-22)
(1.02945 0.0350552 0)
(1.01171 0.000546783 0)
(1.02819 0.0355946 0)
(1.01142 -0.000408515 5.91613e-22)
(1.01086 0.000717907 -1.87959e-22)
(1.02151 0.0123459 5.30211e-21)
(0.992685 0.233253 1.40917e-20)
(0.988529 0.000112581 0)
(1.01127 -0.000483058 0)
(1.00944 0.00189285 7.81512e-23)
(1.01193 -0.019163 -1.33082e-21)
(1.01007 0.00219901 -1.88664e-22)
(1.00476 -7.71949e-06 6.94808e-23)
(0.951135 -0.0156569 2.41817e-21)
(0.988611 0.0058007 -7.32475e-23)
(1.00798 -0.0141979 -4.98986e-22)
(1.0173 0.00509437 4.1535e-21)
(1.03289 0.00973911 0)
(1.02057 0.127604 -1.52417e-20)
(1.01701 0.00150933 4.63549e-24)
(1.00779 0.0117045 9.31368e-23)
(1.04612 0.0161505 -1.89332e-20)
(1.01118 -0.000152163 0)
(1.01083 -0.0164138 1.473e-21)
(1.0246 0.0163737 -2.65646e-22)
(1.02112 0.0114929 -1.61923e-21)
(1.01072 0.000758807 -1.27351e-21)
(1.00542 0.0128902 0)
(1.00656 0.000200141 0)
(1.00517 0.00231903 -7.76696e-22)
(1.01526 0.000340497 -6.86918e-22)
(0.982343 0.0709445 0)
(1.01226 -0.000930582 0)
(1.0293 0.0195287 -6.7682e-21)
(1.00619 -2.30082e-05 8.84881e-22)
(1.00998 0.00219782 6.43031e-22)
(1.00954 0.0063234 5.74025e-22)
(1.01004 -0.000121158 -8.94616e-22)
(1.02093 0.0600535 7.16179e-21)
(0.825187 0.197272 -5.51152e-22)
(0.980746 -0.0016229 5.61378e-22)
(1.01242 -0.00583757 -4.12407e-22)
(0.954471 0.0908743 8.01745e-21)
(1.01246 0.0110798 9.80374e-22)
(1.01448 0.000566627 1.2619e-21)
(1.00688 -0.000181601 8.92198e-24)
(1.0347 0.0382942 4.52565e-21)
(1.01598 0.0013298 1.60858e-21)
(1.00801 -0.0165448 5.85637e-22)
(1.01107 -0.00127041 1.01283e-21)
(0.998855 0.00695692 -5.77385e-22)
(0.963982 0.00559279 -1.00847e-21)
(1.00257 -0.0460929 -3.93433e-22)
(1.12825 0.0114103 -1.14811e-20)
(1.01975 0.00639952 -1.50191e-23)
(1.01061 -0.000697692 -9.04777e-24)
(0.309458 0.0763609 -4.34546e-21)
(1.02237 0.0126092 0)
(1.00968 0.00153396 0)
(1.04335 0.19873 -4.21707e-21)
(1.01466 0.000749392 0)
(1.01179 -0.0137385 0)
(1.0132 -0.00499022 -4.30642e-23)
(1.03607 0.0765676 2.06676e-22)
(1.01463 0.000802964 3.61942e-22)
(1.00657 0.0424407 7.92781e-22)
(0.965802 0.105513 -2.75342e-22)
(1.0167 0.0229607 2.48298e-21)
(1.01271 0.00612518 -1.69183e-21)
(1.00998 -0.000492664 -2.94786e-24)
(1.01418 0.0222872 2.81501e-21)
(1.02452 0.0191341 0)
(1.01167 -0.00119854 7.79833e-22)
(0.972252 -0.0609938 0)
(1.04909 0.00546801 0)
(1.0096 0.00142587 6.01944e-22)
(1.03385 0.0391424 1.3929e-22)
(1.01899 0.058085 -3.797e-22)
(1.00983 -0.00047193 0)
(1.0144 0.0135621 0)
(1.02733 0.038314 4.44177e-23)
(0.704116 0.0515437 -1.44023e-20)
(1.03484 0.0241744 -3.71187e-21)
(1.01915 0.0129724 -1.31186e-21)
(1.0119 6.4703e-05 9.139e-22)
(1.03921 0.0367703 3.84409e-21)
(1.00702 0.000207201 -3.99705e-23)
(1.01101 -0.000213236 3.09124e-22)
(1.01198 -0.00169391 3.09862e-22)
(1.00169 -0.0403045 0)
(0.845094 0.197183 0)
(1.01101 -0.000173536 0)
(1.00177 1.22303e-05 0)
(1.01364 0.000594174 4.66545e-21)
(1.00016 0.13097 -2.54606e-20)
(1.02204 0.0163821 0)
(1.01089 -0.000140425 2.88024e-22)
(1.01355 -0.0129057 0)
(1.03954 0.0243797 -3.30156e-21)
(1.02211 0.00527281 8.00259e-21)
(0.938522 0.183472 0)
(1.01198 0.0805506 1.56901e-20)
(1.02329 0.0123111 4.05142e-21)
(1.00689 0.000196977 0)
(1.03526 0.0246678 2.38516e-22)
(1.00561 0.139029 0)
(0.957523 -0.290992 1.24272e-20)
(1.01089 -0.00020537 -7.36643e-23)
(0.809655 -0.222886 8.3501e-22)
(1.01187 0.000897457 6.49515e-22)
(1.01105 -0.000185434 0)
(1.03998 0.0210884 4.03013e-21)
(1.02573 0.0195515 0)
(0.983358 0.0762198 -8.10269e-22)
(1.02142 0.0503987 -1.74818e-22)
(1.02945 0.0200125 3.58216e-21)
(1.00198 0.0071081 -1.226e-21)
(1.02409 0.0130479 2.4211e-21)
(0.968108 0.109736 -8.40105e-21)
(1.02389 0.0199209 2.02636e-21)
(1.05049 0.0277047 0)
(1.02046 0.0133591 -2.99242e-21)
(1.01075 -0.000227971 6.24094e-22)
(1.02744 0.00864992 -3.82136e-21)
(1.01091 -0.000213881 7.17876e-22)
(1.00851 0.0741904 0)
(0.825425 0.180499 3.58136e-22)
(1.03186 0.0781471 0)
(1.00416 0.0113617 -4.10748e-22)
(1.0137 0.00939226 4.37002e-22)
(1.01998 0.0133927 -2.77722e-21)
(1.01261 0.00022276 -8.11976e-22)
(1.0069 0.00958103 0)
(1.01594 -0.00234892 8.04281e-22)
(1.01143 -0.00111362 0)
(1.01752 0.00166235 1.99956e-21)
(1.03994 0.0229847 0)
(1.00974 -0.000451522 0)
(1.0165 -0.00209704 8.05788e-22)
(0.590689 -0.345281 1.22958e-21)
(0.925264 -0.15795 3.77793e-21)
(1.06015 -0.0326874 0)
(1.02203 0.0100981 4.08166e-21)
(1.00327 -1.16418e-05 6.26129e-22)
(1.02863 0.0376491 -4.93499e-23)
(1.02325 0.012744 -3.78308e-21)
(0.927291 -0.0128804 -1.68426e-21)
(0.885382 0.0477144 0)
(1.01273 0.00953668 -7.56908e-22)
(1.02554 0.0253856 -5.07901e-22)
(1.00626 0.00108814 -6.82107e-22)
(1.02875 0.014743 4.39716e-21)
(1.03359 0.019796 5.19683e-21)
(0.966785 0.26892 -4.30018e-21)
(1.03746 0.0289876 0)
(1.01161 0.00558228 4.15528e-22)
(0.862601 -0.0224534 0)
(1.00758 0.00031194 0)
(1.05293 -0.0650412 0)
(0.30303 0.0479267 0)
(1.04813 0.0200118 7.57075e-21)
(1.01438 0.0132014 -1.94811e-21)
(0.940319 0.270189 -8.00728e-21)
(1.00988 0.00168995 0)
(1.00981 0.041639 -7.62717e-22)
(1.01725 0.062489 8.32245e-23)
(1.06348 -0.0391234 2.34572e-21)
(1.02322 0.0200571 1.80419e-21)
(1.02713 0.00837806 -3.04545e-21)
(1.02154 0.00541018 0)
(1.09417 -0.0201577 -1.39786e-21)
(0.958369 -0.265867 0)
(1.0664 -0.0222266 0)
(1.02209 0.112672 0)
(1.00806 0.00745053 -9.27274e-22)
(1.02115 0.00528648 1.99482e-22)
(1.02834 0.0242586 0)
(1.01602 0.00307972 0)
(1.01457 0.0080989 7.78245e-22)
(1.05642 0.178457 0)
(0.761145 -0.0113715 -3.16454e-21)
(0.794793 0.184915 3.44333e-23)
(0.848226 0.0537669 -6.38392e-21)
(1.01544 0.0167876 0)
(1.02047 0.0572131 -6.08078e-22)
(1.00501 0.0411449 0)
(1.00996 0.00237504 8.72309e-23)
(1.01233 0.00408743 0)
(1.01561 0.0188713 1.08761e-21)
(1.01526 0.0024657 0)
(1.02236 0.00799298 3.766e-21)
(1.0159 0.00289402 3.09102e-21)
(0.963483 0.0769402 0)
(1.00884 0.00126192 -1.34534e-22)
(0.833777 0.0529724 5.63295e-21)
(1.01602 0.0109107 9.77286e-22)
(1.00416 0.0584801 -5.29144e-21)
(1.01818 0.131557 1.73652e-20)
(1.01247 0.00412693 -9.5544e-22)
(1.02629 0.0242773 0)
(1.05301 -0.0976635 0)
(1.01743 0.00178777 0)
(0.678438 0.20102 1.52428e-21)
(1.01065 0.000756381 -1.0528e-21)
(1.03338 0.139096 1.44706e-22)
(1.03713 0.0297603 -2.54509e-21)
(1.01381 0.000289661 3.09558e-21)
(1.00305 0.0400016 -6.32888e-22)
(1.00756 0.00744656 0)
(1.02148 0.00280512 0)
(1.00374 -5.17161e-05 1.28949e-21)
(1.00986 -8.06662e-05 5.45083e-22)
(1.03976 0.0347449 9.39716e-21)
(1.04868 0.0205421 3.45062e-23)
(1.00156 0.0559097 2.76997e-21)
(1.01607 0.000910483 -8.41779e-22)
(1.01712 0.0856251 5.74718e-21)
(1.00881 0.00120513 5.17372e-23)
(0.891637 0.0386121 0)
(1.00582 -8.44014e-05 -6.87928e-24)
(1.01071 0.00362625 4.66181e-23)
(0.929597 0.10649 6.66061e-21)
(1.00538 -0.00492902 5.61396e-22)
(1.01004 -0.0261887 1.65571e-21)
(1.0057 -7.30068e-05 0)
(1.02467 0.0265816 -2.06328e-21)
(1.02058 -0.00321375 7.03115e-22)
(0.888292 -0.0475565 0)
(0.672367 0.0898978 0)
(1.03777 0.0204307 4.57159e-21)
(1.01213 0.0106371 7.87361e-22)
(1.00526 -3.89678e-05 0)
(1.01917 0.0335703 -1.34427e-21)
(1.02021 0.0120261 5.1677e-21)
(1.03767 0.0200311 -3.92547e-21)
(0.665461 0.279726 0)
(1.00867 -0.000280723 1.14458e-21)
(0.98015 -0.00861692 -5.60444e-22)
(1.01656 0.00990732 -1.94041e-21)
(1.00502 -6.66839e-05 0)
(1.03437 0.0210976 2.85237e-21)
(0.933787 -0.0232345 1.07233e-21)
(1.01764 0.00224345 7.75924e-22)
(1.07879 0.0394972 1.16168e-22)
(1.01611 -0.00407416 4.32386e-22)
(1.04789 0.0400417 2.36472e-20)
(0.931599 0.110989 -4.92183e-23)
(1.01224 -0.0021796 -1.22595e-22)
(1.00992 0.00219829 -1.03368e-21)
(0.869903 -0.184558 -3.57723e-21)
(1.04149 0.0268546 2.18638e-21)
(0.569443 -0.331613 -8.0877e-22)
(1.0266 0.0511827 -2.56161e-23)
(1.01453 0.0108331 0)
(1.01593 0.00263373 0)
(1.01098 -0.000144631 -3.2552e-22)
(1.0029 0.00950841 -5.25459e-22)
(1.01771 0.0140784 -1.28411e-21)
(1.01333 -0.00474329 0)
(1.11813 0.047535 2.44604e-22)
(0.99834 0.370067 -2.89704e-20)
(1.0107 0.00357739 -4.80448e-23)
(0.714008 -0.0737307 0)
(0.702382 0.00447482 4.11265e-21)
(1.00888 0.022258 4.92895e-23)
(0.915051 0.105289 4.31954e-21)
(1.01115 -0.000207541 -6.17563e-22)
(1.18937 -0.0249077 -5.06474e-22)
(1.0718 0.0213044 0)
(1.0131 -0.00288885 -6.24699e-23)
(0.915815 0.125088 -1.65402e-22)
(1.03721 0.0383041 4.24113e-21)
(0.924878 0.192056 0)
(0.894437 -0.0694988 1.20782e-21)
(1.01236 -0.00167879 0)
(1.01098 -0.000205708 6.32106e-22)
(1.00467 -2.04622e-05 4.68646e-22)
(0.989856 -0.0253358 -6.17431e-22)
(1.04509 0.0539877 0)
(1.01249 0.00617229 -5.98546e-22)
(1.0335 0.00786141 2.61078e-21)
(1.11588 0.0379208 -2.49087e-22)
(1.02238 0.0120981 0)
(1.03625 0.0389554 7.16763e-22)
(1.0112 -5.07229e-05 0)
(1.03964 0.0379044 -5.65846e-21)
(0.439953 0.164542 -2.47569e-21)
(1.08875 -0.00527487 0)
(1.02808 0.015956 0)
(1.07739 -0.00963925 -1.19192e-21)
(1.04332 0.0279203 1.40451e-21)
(0.748809 0.235964 1.73144e-21)
(1.02632 0.0251122 -1.61834e-21)
(1.0093 0.00176941 4.54961e-23)
(1.0222 0.0303606 -1.06397e-21)
(0.914673 -0.0719041 -9.3437e-22)
(1.00293 0.0015039 -6.2559e-22)
(1.05165 0.053431 2.53971e-21)
(1.01268 0.00621888 7.33469e-22)
(1.15189 -0.0125944 2.98147e-23)
(1.01358 0.000561561 -4.40176e-21)
(1.01504 0.0114285 3.45227e-23)
(0.523042 -0.0790817 -5.85057e-21)
(1.00372 -4.80305e-05 0)
(1.02339 0.0312068 5.16246e-22)
(1.00886 -0.022184 -2.03836e-21)
(1.07344 0.0384685 -1.1725e-22)
(1.02112 0.00163809 3.27268e-21)
(1.0148 0.00129914 -2.08851e-21)
(1.03343 0.0210667 2.6792e-21)
(1.02466 0.0275857 1.65321e-21)
(1.01053 -0.000387234 -6.69333e-24)
(1.01403 0.00259625 1.40125e-21)
(0.998339 0.0405795 0)
(1.05447 -0.053963 9.41621e-22)
(1.02987 0.019226 -1.18156e-22)
(1.00631 3.19761e-05 -1.45176e-23)
(1.04352 0.0239467 -1.71172e-21)
(0.953167 0.118544 1.47235e-22)
(1.01217 0.00544698 -2.39764e-22)
(1.0724 0.000325167 1.18544e-21)
(0.947112 0.184237 0)
(1.02172 0.00521046 -5.44774e-21)
(0.736049 -0.276228 1.74867e-21)
(1.01097 -0.000417372 0)
(0.901779 0.056976 -2.93983e-21)
(1.01761 0.00349072 -2.32445e-21)
(1.01334 -0.00551677 -8.47621e-23)
(0.935469 0.111444 -4.03705e-21)
(1.02243 0.0208956 -1.72196e-21)
(0.701331 0.11487 -1.61001e-21)
(1.02976 0.0187861 1.6954e-21)
(1.01487 0.00124133 -5.11552e-21)
(0.697167 -0.301432 1.4656e-20)
(1.01741 0.00352929 0)
(1.00966 -0.000242272 -5.54737e-22)
(1.01253 0.000611193 0)
(1.00938 0.00185434 -4.32196e-23)
(1.02324 0.032493 1.66405e-21)
(1.04021 0.0255302 1.49264e-21)
(1.13514 0.040576 -2.5935e-20)
(1.00373 -2.16939e-05 -8.64106e-22)
(0.711845 0.198995 -2.32464e-21)
(1.00651 0.000392821 0)
(1.07281 0.0172476 0)
(0.802985 -0.226834 1.24754e-20)
(1.01483 0.0140034 6.68878e-22)
(1.01757 0.00526741 -7.07444e-21)
(1.02554 0.0262885 4.42637e-22)
(1.01157 -0.00102336 2.68497e-22)
(0.992455 0.0882969 0)
(1.01343 0.00414428 -5.53857e-22)
(1.00977 -0.000238761 2.72005e-22)
(1.0111 -0.000112597 -5.52721e-24)
(1.01253 0.00608292 0)
(1.01715 0.00176753 -2.01214e-21)
(0.899558 0.102876 0)
(1.00313 0.0123827 0)
(1.02922 0.0385989 0)
(1.0165 -0.00157339 0)
(1.01444 0.00957205 -3.81116e-22)
(1.00624 0.0151673 -8.27004e-22)
(1.01023 -0.00807003 0)
(1.05229 0.0170111 -1.72129e-24)
(1.0095 -0.000399031 5.88638e-24)
(1.01211 0.0760397 0)
(1.0462 0.0236365 -1.97462e-21)
(1.01057 -0.000167567 0)
(0.768765 -0.0681065 0)
(0.428578 0.151345 -3.35877e-21)
(1.00642 -6.56882e-05 -1.12986e-21)
(1.05521 0.0405226 1.55249e-22)
(1.0051 -2.6404e-05 0)
(0.957211 -0.0266909 -5.70293e-22)
(1.04698 0.0393733 -8.0989e-21)
(1.01312 -0.00282897 8.41233e-23)
(1.04013 0.0358146 -1.35417e-20)
(1.02243 0.0292407 2.40387e-22)
(1.06684 0.0245637 0)
(1.00595 -2.32277e-05 1.01772e-21)
(1.04716 0.0173388 -1.28212e-20)
(1.08818 0.0515495 3.34718e-21)
(1.07414 0.0672555 2.24586e-22)
(0.961245 0.014145 -5.65313e-22)
(1.01709 0.00186223 4.90315e-21)
(1.02344 -0.0548956 9.50644e-22)
(1.03491 0.0843005 -1.76517e-21)
(1.19113 -0.00485051 0)
(1.01621 0.00102108 3.44129e-21)
(1.03572 0.0157974 -7.39624e-21)
(1.01237 -0.00152197 0)
(1.01758 0.00899473 0)
(1.01049 0.00307217 -5.30382e-22)
(1.00646 -9.50112e-05 -8.61696e-23)
(1.00884 -0.000324668 8.36517e-22)
(1.06278 0.0384712 0)
(1.01373 -0.0103312 0)
(1.00708 5.13808e-05 0)
(1.00937 -0.000174468 -7.35713e-22)
(1.00716 -0.000114607 -2.78724e-22)
(1.01835 0.0125264 -1.02528e-21)
(1.06952 0.0655641 0)
(1.03391 0.0814672 0)
(1.01179 -8.29887e-05 1.47886e-21)
(1.0237 0.0278876 -1.42202e-21)
(1.01434 0.00926305 1.08331e-21)
(1.01389 0.0092486 1.46434e-21)
(1.0126 -0.00282753 0)
(1.00953 0.00197471 0)
(0.983965 -0.00253163 1.19108e-21)
(1.00953 -0.000157715 0)
(1.00906 0.0015295 9.33633e-24)
(1.00478 7.88294e-06 -6.87492e-22)
(1.02158 0.00984859 -3.83571e-21)
(1.01338 0.00397869 3.90018e-22)
(1.01195 0.0010519 0)
(0.955938 0.176793 -1.8027e-20)
(1.03113 0.15116 1.14202e-21)
(1.03729 0.0207799 0)
(1.00894 0.00140937 1.83893e-23)
(1.0105 0.137163 4.91411e-21)
(1.00967 -0.000228754 0)
(1.00952 -0.000175161 0)
(1.0117 0.000540148 -7.75423e-22)
(0.96416 0.00857965 6.20442e-22)
(1.00464 0.0139503 -2.8475e-22)
(1.01185 0.000164858 1.50233e-21)
(1.01119 -0.000142191 0)
(1.00924 -0.000368634 0)
(1.00166 0.0104178 5.36729e-22)
(1.00954 -8.86714e-05 -1.4701e-22)
(1.00107 0.00433413 1.37697e-21)
(1.01325 0.00400461 -4.7578e-22)
(1.02152 0.0118464 -2.04186e-21)
(1.01056 0.00311426 4.53283e-22)
(1.03539 0.0155646 0)
(1.11473 0.0715953 1.42273e-20)
(1.00927 0.00172624 0)
(1.02428 0.0123522 -3.72115e-21)
(1.00711 0.000202825 -5.05428e-23)
(0.948607 -0.0350353 -3.09174e-21)
(1.05435 -0.0565102 1.86933e-22)
(1.04662 0.0255919 -1.71788e-22)
(1.01728 0.0140816 1.19974e-21)
(1.01456 0.0108207 -5.74384e-22)
(1.01726 0.0110541 -1.47605e-21)
(0.987948 -0.00878807 0)
(0.99623 0.26623 4.14693e-21)
(1.00444 -1.38418e-05 -3.36625e-22)
(1.07037 -0.00388321 0)
(1.02439 0.0126532 4.03499e-21)
(0.868859 0.0301079 -2.16697e-21)
(1.01254 0.0057666 -8.78821e-22)
(1.01142 -0.00014012 0)
(1.01163 -0.00141419 7.7042e-22)
(0.986246 -0.161582 2.66177e-21)
(1.01148 -0.00121865 0)
(1.04701 0.0259945 0)
(1.0103 0.00970216 8.30474e-22)
(0.964339 0.120628 -2.06097e-20)
(1.01771 0.0546505 4.85006e-22)
(1.00537 0.000130332 0)
(1.00694 4.01657e-05 4.62794e-22)
(1.0067 -7.87415e-05 0)
(1.01204 0.00525204 -5.95084e-22)
(1.05065 0.0285457 0)
(0.977071 0.0291661 0)
(0.867854 -0.0133781 4.7202e-22)
(1.02909 0.0276676 1.01723e-21)
(1.02428 0.00255475 0)
(1.00969 -8.23746e-05 0)
(1.00553 0.000190306 5.86407e-22)
(1.01065 0.00315924 -2.60264e-22)
(1.01025 -0.000141157 3.02185e-22)
(1.02581 0.0108496 -8.78009e-21)
(1.02847 0.0373678 0)
(1.01243 -0.00898721 -6.18377e-22)
(0.95117 -0.00563324 1.49564e-21)
(1.02385 0.00252149 4.83931e-21)
(1.02031 0.00263362 0)
(1.00047 0.0421039 6.56896e-22)
(1.01605 0.00279961 0)
(1.00106 0.136851 1.95302e-20)
(1.02836 0.0287235 5.05129e-21)
(1.04413 0.026602 -1.40836e-21)
(0.962669 0.0806308 8.10682e-21)
(0.984235 0.238953 1.7379e-20)
(0.994348 0.0164741 1.01649e-21)
(1.00983 0.00229003 1.75877e-22)
(1.00968 -8.67061e-05 5.48027e-22)
(1.02711 0.00763483 -3.17378e-21)
(1.01381 0.000798679 0)
(0.927097 -0.0954389 1.12507e-22)
(1.04189 0.0519043 0)
(0.992577 0.0833427 0)
(1.01125 -0.000101989 -5.41484e-22)
(1.02153 0.00949833 0)
(1.00582 0.00177008 -9.01868e-22)
(1.01037 -0.000156863 -3.33394e-22)
(1.00712 0.263566 5.3695e-22)
(1.03268 0.017189 0)
(1.00967 -0.000154706 5.85945e-22)
(1.01148 -0.00105747 5.49521e-22)
(1.00613 -4.33753e-05 2.77144e-22)
(1.01058 0.00318631 4.53875e-22)
(1.00941 0.00160379 3.11273e-22)
(1.01256 -0.00216782 0)
(0.953769 0.155996 1.64314e-20)
(1.01149 -0.00132838 4.72256e-22)
(1.01186 0.00574577 0)
(1.01122 -9.76265e-05 -9.11689e-22)
(1.00822 3.9736e-05 2.39975e-22)
(1.01051 0.00314823 3.71071e-22)
(1.0173 0.00873855 -4.96252e-22)
(1.00499 0.000729682 9.28849e-22)
(1.00821 5.00045e-05 0)
(1.00514 -0.00304698 5.31464e-22)
(1.01123 -0.0001275 6.47624e-22)
(0.986645 -0.0125154 -2.23091e-22)
(0.921217 0.111112 1.04633e-21)
(1.00634 0.00790654 6.70673e-22)
(0.984677 -0.054117 -2.78732e-21)
(1.01802 -0.00513279 -1.17793e-21)
(1.03184 0.00827587 -4.6069e-21)
(1.01597 0.0581265 0)
(1.02081 -0.0543904 -1.49943e-22)
(1.01356 0.000605606 0)
(1.00728 -4.94801e-05 -1.30263e-22)
(1.00806 -3.21804e-05 -1.17163e-21)
(1.02464 -0.00489106 -7.09672e-22)
(1.00371 -7.48088e-05 -2.25579e-22)
(0.993867 0.014407 0)
(1.00016 -0.0199188 5.93952e-22)
(1.01714 0.00931935 0)
(1.01042 0.00545849 0)
(1.02124 0.00108886 3.08763e-21)
(0.860315 0.0183099 -2.51487e-21)
(1.01305 -0.0341126 0)
(1.00369 4.87747e-06 0)
(1.00713 -4.47749e-05 6.36699e-22)
(1.01512 0.00171124 1.06626e-21)
(1.03753 0.0223648 -2.41317e-21)
(1.01201 0.00422887 -1.99669e-21)
(1.01644 0.00649536 -5.47418e-23)
(1.0074 8.13577e-05 -3.28932e-22)
(1.01036 -0.000322197 5.36651e-22)
(1.03746 0.0211834 8.37638e-21)
(1.03473 0.0829487 0)
(1.0131 0.129928 0)
(0.973419 -0.0400612 1.08852e-21)
(0.956138 0.163055 -2.58227e-20)
(1.01058 -7.42624e-05 5.63805e-22)
(1.00221 0.00106351 1.76756e-21)
(1.02663 0.0865391 4.36146e-22)
(1.01723 0.00150818 -5.48261e-22)
(1.01189 0.00512716 1.9516e-22)
(1.03173 0.0848889 2.30757e-22)
(1.01184 0.00977399 1.54093e-21)
(0.963483 -0.0670514 1.15357e-20)
(1.04159 0.0898872 1.1813e-22)
(1.00653 -0.000149923 0)
(1.01057 -7.34987e-05 0)
(1.02152 0.0016019 6.0147e-23)
(1.01257 0.00550549 -5.10828e-23)
(1.01076 -7.34408e-05 -4.45201e-22)
(0.993923 -0.0534224 2.84192e-21)
(0.963964 -0.0481742 0)
(1.0093 -0.000228132 2.92607e-22)
(1.01704 0.00964107 0)
(1.01836 0.0137226 -7.69248e-22)
(1.04159 0.0395399 0)
(1.01204 0.0054874 4.76495e-22)
(1.01224 -0.0011035 0)
(0.999201 -0.00708903 0)
(1.01088 0.000797789 -1.12226e-21)
(1.01516 0.000823512 0)
(0.982419 -0.0307417 1.55503e-21)
(0.985505 0.0267636 -5.44624e-22)
(0.995945 0.0503662 0)
(1.01383 0.000902744 1.2424e-21)
(1.01034 -0.000126626 -8.19651e-22)
(1.00955 -0.000240491 -2.70069e-22)
(1.0148 -0.0018791 7.15869e-22)
(1.00912 -0.00687156 1.05985e-21)
(1.00336 0.00531862 2.42762e-21)
(1.00931 0.00118626 2.84011e-22)
(1.00753 -6.4429e-05 -5.42879e-22)
(1.01343 -0.0061429 8.79089e-22)
(1.03487 -0.0500765 -2.01916e-22)
(1.00856 -0.000175254 -8.29474e-22)
(1.01804 0.00118163 3.34069e-21)
(1.02525 0.0032516 -9.80493e-22)
(1.00946 0.00149836 0)
(1.00831 0.000652839 -3.95109e-22)
(1.01745 0.00309544 -4.83466e-21)
(0.9751 0.292985 -7.27559e-21)
(1.01023 -0.000161819 0)
(1.02069 0.00263376 0)
(1.00869 -0.000197494 1.4111e-21)
(1.01127 0.00263457 7.54164e-22)
(1.01007 -0.000120084 9.46513e-22)