/*--------------------------------*- C++ -*----------------------------------*\
| =========                 |                                                 |
| \\      /  F ield         | OpenFOAM: The Open Source CFD Toolbox           |
|  \\    /   O peration     | Version:  v2012                                 |
|   \\  /    A nd           | Website:  www.openfoam.com                      |
|    \\/     M anipulation  |                                                 |
\*---------------------------------------------------------------------------*/
FoamFile
{
    version     2.0;
    format      ascii;
    class       surfaceVectorField;
    location    "300";
    object      Uf_0;
}
// * * * * * * * * * * * * * * * * * * * * * * * * * * * * * * * * * * * * * //

dimensions      [0 1 -1 0 0 0 0];


internalField   nonuniform List<vector> 
27284
(
(1.21679 0.0618985 3.76304e-21)
(1.20474 0.0723188 2.83776e-21)
(1.21507 0.0859425 -1.07952e-21)
(1.00869 -0.000268777 -1.14398e-23)
(1.0088 -0.000282563 2.16802e-22)
(1.00879 -0.000299577 -3.87266e-22)
(0.920628 0.0201677 1.28272e-21)
(0.921616 0.0109778 -3.5551e-21)
(0.929167 0.0164814 0)
(1.0109 0.000986177 0)
(1.01096 0.00106986 -6.24041e-22)
(1.01099 0.000979144 -6.80724e-22)
(1.02744 0.0187629 9.76765e-22)
(1.02568 0.0226919 -3.16273e-21)
(1.02377 0.0189366 -5.68319e-22)
(0.915133 0.0392579 0)
(0.924146 0.0500795 0)
(0.90272 0.0480734 -9.50554e-22)
(1.01039 -0.000722264 6.10494e-22)
(1.01058 -0.000651042 1.02696e-21)
(1.01062 -0.00103125 9.75964e-25)
(1.03127 0.0183941 -2.79296e-21)
(1.02792 0.0151173 4.80135e-22)
(1.00463 1.33494e-05 0)
(1.00579 0.000134345 0)
(1.00502 8.47016e-05 -1.61653e-22)
(0.986487 -0.109251 -1.93049e-22)
(0.994557 -0.093653 1.23732e-23)
(1.00687 -0.103772 -1.66312e-21)
(1.00445 0.0171208 -9.78205e-23)
(1.00595 0.0176058 -1.96303e-23)
(1.00548 0.0159867 -2.55101e-24)
(1.01469 0.101584 4.96055e-21)
(1.01834 0.100308 0)
(1.01533 0.0975158 0)
(1.01085 0.102469 9.56773e-21)
(1.01412 0.105344 -1.14148e-20)
(1.1384 0.103661 2.80109e-21)
(1.13481 0.0623778 3.15454e-21)
(1.14154 0.0796652 0)
(1.00698 0.000164355 4.53212e-23)
(1.00748 0.00017473 -6.16875e-23)
(1.00726 0.00015837 -5.63648e-24)
(1.00978 -0.000382812 -8.69166e-23)
(1.00963 -0.000378754 -2.13041e-22)
(1.00978 -0.000387729 -3.09845e-22)
(1.01087 0.000893379 -8.13071e-22)
(1.01081 0.000965004 0)
(1.00805 0.00588845 -1.93443e-22)
(1.0078 0.00493861 6.11071e-22)
(1.00879 0.00510063 2.29576e-22)
(1.00745 -0.0550074 5.83196e-21)
(1.0154 -0.0593479 1.79878e-21)
(1.01436 -0.049775 3.43553e-21)
(1.01536 0.0037042 2.01645e-23)
(1.01556 0.00334119 7.08314e-22)
(1.01495 0.00333213 7.8232e-22)
(0.992982 0.188669 1.86288e-21)
(1.00054 0.181368 2.031e-21)
(1.00421 0.192401 -1.70108e-22)
(1.02351 0.0113323 0)
(1.02304 0.0111466 -1.00795e-21)
(1.02318 0.0117057 0)
(1.00782 9.80198e-05 -5.48929e-23)
(1.00789 7.89236e-05 2.33879e-24)
(1.00782 6.80275e-05 7.40306e-24)
(0.907114 0.0264592 -6.6922e-23)
(0.922802 0.029987 -3.01779e-22)
(1.00783 0.000126924 -5.36199e-23)
(1.00777 0.000110666 2.90449e-23)
(1.01144 0.00513892 -6.22116e-23)
(1.01157 0.0048879 5.71123e-22)
(1.01134 0.00474263 5.37757e-22)
(1.01014 -0.000405416 -7.85171e-23)
(1.00994 -6.29558e-05 6.56158e-23)
(1.01016 -1.46581e-05 2.51367e-22)
(1.01132 0.00179274 1.16425e-22)
(1.01144 0.00186832 -5.8315e-22)
(1.01137 0.00189969 -5.27923e-22)
(1.00297 -7.54375e-06 0)
(1.00436 -9.47814e-07 0)
(1.00204 0.0157336 9.67334e-23)
(1.00324 0.0163562 -6.13458e-23)
(1.00311 0.0147678 9.43431e-23)
(0.762783 0.0251905 0)
(0.763541 0.0790349 0)
(0.760788 0.0493163 0)
(1.00348 0.0578807 1.40018e-22)
(1.00624 0.0558989 1.67643e-22)
(1.00688 0.0594257 1.19737e-23)
(1.01179 -0.00034693 -7.61431e-23)
(1.01189 -0.000361644 5.8103e-22)
(1.01202 -0.000321449 2.92713e-22)
(1.00929 -0.000235588 5.26256e-23)
(1.00925 -0.000217779 -2.82231e-22)
(1.00916 -0.000228331 5.07456e-23)
(1.00647 -8.51514e-05 2.75409e-23)
(1.00642 -9.93052e-05 1.03113e-22)
(1.0049 -8.09996e-05 1.94609e-23)
(1.01545 0.00661783 0)
(1.01531 0.00633472 0)
(1.01569 0.00646944 -2.55984e-22)
(1.04057 0.022796 5.00225e-21)
(1.04093 0.0228606 1.32915e-21)
(1.04063 0.022523 2.88003e-21)
(1.01524 0.00678486 4.50266e-22)
(1.01568 0.00698378 2.93062e-22)
(1.00075 0.0148091 4.27123e-22)
(1.00099 0.0168555 2.27178e-22)
(1.01523 0.00884279 1.44742e-22)
(1.01504 0.00903013 6.33635e-22)
(1.015 0.00867357 2.61492e-22)
(1.01364 0.000192934 -1.57048e-21)
(1.01353 0.000209012 1.03279e-21)
(1.01191 0.000134894 1.94964e-23)
(1.00357 0.0182254 2.67302e-23)
(1.00932 -0.000255388 2.30189e-22)
(1.00935 -0.000274901 1.04243e-22)
(1.00923 -0.000263583 1.14075e-22)
(1.0086 -0.000254809 -4.19485e-22)
(1.0085 -0.000243488 -1.92829e-22)
(1.00859 -0.000271143 -4.2502e-22)
(1.00861 -0.000234097 -1.06259e-22)
(0.991439 0.159975 1.90695e-21)
(0.994681 0.15656 -8.92932e-22)
(0.99634 0.161787 -3.70891e-21)
(1.01119 0.00239827 3.03675e-22)
(1.0113 0.00245516 0)
(1.01128 0.00248541 -1.96952e-22)
(1.01108 0.00234409 5.88778e-23)
(1.0111 0.00231189 1.87133e-23)
(0.764926 -0.0303443 0)
(1.01161 0.00223367 -1.27617e-22)
(1.01143 0.00211966 -4.13648e-23)
(1.01148 0.00211702 4.10407e-22)
(1.00669 -5.43853e-05 4.16157e-22)
(1.00601 -2.63433e-05 -6.54412e-22)
(1.00604 -1.14913e-05 3.78368e-22)
(0.983281 0.326664 6.75516e-22)
(0.997575 0.315521 -9.72829e-23)
(1.00071 0.342008 -2.26463e-22)
(1.01176 0.00236867 -4.05215e-22)
(1.01181 0.00231589 -6.16771e-22)
(1.09583 -0.0174647 1.16195e-21)
(1.09587 -0.0236756 2.6314e-23)
(1.08822 -0.0200195 8.91311e-22)
(1.01616 0.00289856 0)
(1.01615 0.00274544 0)
(1.01594 0.00278273 1.26738e-21)
(1.01513 0.00407573 -3.87524e-22)
(1.01586 0.0041146 1.22434e-22)
(1.00605 -0.000102953 -4.47654e-22)
(1.00505 -4.49776e-05 -1.17956e-22)
(1.0051 -4.85425e-05 -2.91053e-22)
(0.727635 0.102621 6.4447e-21)
(1.0113 0.00537421 -3.34043e-23)
(1.01161 0.00544968 -3.61907e-22)
(0.963164 0.195763 5.88384e-21)
(0.957846 0.198699 -8.85087e-21)
(0.965578 0.203591 -1.20537e-21)
(1.00942 -0.000243916 -3.67029e-22)
(1.01285 0.0605386 -7.69078e-22)
(1.0145 0.0633857 -6.48227e-21)
(1.01634 0.0599382 3.45901e-21)
(1.09396 -0.00897549 0)
(1.10215 -0.0116623 0)
(1.01575 -0.00424983 -4.32058e-22)
(1.01507 -0.00398802 8.14278e-22)
(1.01546 -0.0036391 3.12937e-22)
(1.01893 0.0721256 5.8063e-24)
(1.02267 0.0745898 -1.21715e-21)
(1.02166 0.0690514 -9.80605e-22)
(1.0065 -5.2423e-05 1.91832e-22)
(1.00719 -6.68153e-05 0)
(1.00698 -7.7669e-05 -2.4199e-22)
(1.02728 0.0199581 1.33448e-21)
(1.02771 0.0195899 0)
(1.02788 0.0204246 2.54069e-21)
(1.04019 0.0228125 3.05356e-21)
(1.04046 0.0232456 1.59792e-21)
(1.00946 -0.000154308 1.56859e-22)
(1.00942 -0.000154593 -4.31063e-22)
(1.00934 -0.000154924 -2.06135e-22)
(0.981791 -0.078663 0)
(0.971261 -0.087205 0)
(0.982267 -0.0888257 -1.50213e-22)
(1.01043 0.0010515 1.41464e-22)
(1.01049 0.00110413 1.61726e-23)
(1.01049 0.00114217 -1.22716e-23)
(1.01616 0.0029878 3.33045e-22)
(1.01633 0.00297207 0)
(1.00905 0.0476171 0)
(1.00639 0.0488986 -7.52551e-23)
(1.00683 0.0457817 2.63257e-23)
(1.00751 0.000307329 8.04166e-22)
(1.00736 0.00163298 6.01906e-22)
(1.00861 0.000958099 -7.0774e-22)
(0.98295 0.0481086 -7.79159e-22)
(0.986195 0.0565786 -9.05179e-22)
(0.99054 0.0479945 2.22863e-21)
(1.00952 -0.000167448 -1.7061e-22)
(1.00949 -0.00015962 7.72506e-23)
(1.0094 -0.000165234 -1.13246e-21)
(0.711998 0.0982008 5.73448e-21)
(0.715314 0.150403 6.07779e-21)
(1.00956 -0.000181762 6.71689e-22)
(1.00966 -0.000171169 2.13053e-22)
(1.01037 0.00101262 0)
(1.01039 0.000962515 -2.8097e-22)
(0.97445 0.0479621 0)
(0.980907 0.0395803 0)
(1.02687 0.0204862 -2.58022e-21)
(1.02666 0.0196595 1.39354e-21)
(0.957114 0.0198519 6.52251e-22)
(0.950444 0.0270755 -1.58812e-21)
(0.96254 0.0280151 -1.02667e-22)
(1.00958 -0.00015791 5.74894e-22)
(1.0256 0.0229936 8.98704e-22)
(1.02634 0.0232295 4.42154e-21)
(1.02587 0.0237452 -1.12128e-22)
(1.04896 0.0399645 -1.04772e-21)
(1.05085 0.0390427 -4.00587e-22)
(1.0501 0.0413634 3.90081e-22)
(1.00412 5.81444e-05 -9.93373e-23)
(1.00401 -5.46279e-06 1.56149e-23)
(1.00277 1.01807e-05 -4.40857e-22)
(1.00795 0.000307593 3.25083e-22)
(1.00685 0.00025172 -3.17157e-22)
(1.00662 0.000231407 3.20827e-22)
(1.04363 0.0306161 -1.68643e-21)
(1.04284 0.0298015 9.63226e-22)
(1.04395 0.0295182 -1.73417e-21)
(1.01023 0.00215946 2.73665e-23)
(1.01014 0.00207416 1.72751e-23)
(1.01013 0.0020839 1.11114e-24)
(1.04304 0.0316347 1.61248e-21)
(1.04444 0.0314604 -1.39227e-22)
(0.945748 0.265428 1.13116e-20)
(0.965596 0.215957 1.95913e-21)
(0.992932 0.159338 4.37007e-22)
(0.990716 0.149626 -1.49686e-22)
(1.00194 0.153252 5.06481e-22)
(0.952728 0.009267 6.40637e-21)
(0.962502 0.0126263 6.60686e-22)
(1.01126 0.00202428 6.70968e-23)
(1.01136 0.00214922 -4.21278e-22)
(1.05624 -0.135004 2.89382e-21)
(1.04094 -0.130543 0)
(1.05844 -0.11211 -1.17727e-21)
(1.01802 -0.00189222 3.01665e-22)
(1.01872 -0.00158916 -2.16688e-22)
(1.01877 -0.00235692 2.94462e-22)
(1.00991 0.00189795 0)
(1.00991 0.00187225 0)
(1.00981 0.00181029 0)
(1.01729 -0.00208348 3.19207e-22)
(1.01724 -0.00153077 1.56766e-22)
(1.02985 0.0055773 -4.48482e-22)
(1.03037 0.00238599 -3.21322e-22)
(1.03279 0.0054813 -1.18593e-22)
(1.02146 0.0106827 1.81032e-22)
(1.02185 0.0108306 -9.60211e-22)
(1.0216 0.0110896 -1.44761e-22)
(1.04685 0.0401912 3.35042e-22)
(1.0478 0.0380834 2.5126e-22)
(1.0103 0.00097886 -1.1666e-22)
(1.01034 0.001054 0)
(1.01111 0.00189808 3.38243e-22)
(1.01117 0.00191937 2.13226e-22)
(1.01095 -0.00071201 -5.64105e-25)
(1.011 -0.000776669 5.50739e-23)
(1.01089 -0.000724426 -4.60906e-24)
(1.02658 0.0208753 -5.11677e-21)
(1.02618 0.0212948 -1.55187e-21)
(1.02596 0.0205958 -1.22925e-22)
(1.00996 -0.000394284 -9.19804e-23)
(1.0098 -0.000377821 -9.17563e-23)
(1.01571 0.0756268 1.31804e-22)
(1.01513 0.070027 -5.38562e-22)
(1.06976 -0.132538 4.61174e-21)
(1.05059 -0.158227 -1.25715e-21)
(1.03912 0.0257636 -1.64915e-21)
(1.03936 0.0259382 -2.48489e-21)
(1.03943 0.0256428 1.09664e-21)
(1.00959 -0.000373527 -3.51479e-22)
(1.00971 -0.000374085 -6.49471e-22)
(1.00954 -0.000361536 1.52777e-22)
(1.00682 -0.000112913 -2.36684e-22)
(1.00681 -0.000120959 3.7809e-22)
(1.00449 -3.08441e-05 0)
(1.00318 -2.34379e-05 -2.34728e-22)
(1.00446 -3.86308e-05 -3.34076e-22)
(1.00127 0.0321317 -1.88243e-23)
(1.00152 0.0343972 5.03491e-22)
(1.00321 0.0322777 -1.3075e-22)
(1.02486 0.0227125 2.247e-21)
(1.02532 0.0222295 -3.21395e-22)
(0.932289 0.139104 1.59152e-21)
(0.937862 0.136129 1.71025e-21)
(0.938566 0.143689 -1.06412e-20)
(1.01456 0.02976 -6.08371e-24)
(1.01569 0.0291669 1.61423e-22)
(1.01455 0.0284521 4.40286e-23)
(1.01023 0.000945006 -1.20923e-22)
(1.01026 0.000902168 -1.1179e-22)
(0.964836 0.0470163 0)
(0.96764 0.0576187 0)
(1.0232 0.0172012 -3.47557e-22)
(1.02279 0.0175469 -4.30777e-23)
(1.02262 0.0168949 1.56131e-21)
(1.02795 0.0191629 -3.50466e-21)
(1.02845 0.0195676 0)
(0.992932 -0.0716141 7.83021e-23)
(0.982732 -0.0700104 0)
(0.921441 0.0275817 -2.26568e-21)
(0.913334 0.0229299 4.03619e-21)
(0.956242 0.302043 0)
(1.04729 0.0306265 6.03657e-22)
(1.04855 0.0313648 4.1832e-22)
(1.04873 0.0295693 -7.33273e-22)
(0.955224 0.0436854 8.84868e-22)
(0.965463 0.0370599 0)
(0.980537 0.158665 -3.58414e-21)
(0.978144 0.164305 2.37395e-21)
(0.974858 0.158953 3.59229e-21)
(1.01014 -0.00086453 4.2748e-22)
(1.01083 0.000805171 -1.56916e-22)
(1.01092 0.000821997 -7.77907e-22)
(1.19902 0.0479738 0)
(1.20864 0.0394216 -2.64568e-21)
(1.02185 0.00869378 -7.76623e-22)
(1.02202 0.00898852 4.29478e-21)
(1.02162 0.00889079 1.9753e-21)
(1.00991 0.0019152 1.79952e-23)
(1.01 0.00198224 2.55763e-23)
(0.964014 0.331611 5.47555e-21)
(0.967946 0.309771 9.51786e-22)
(1.01535 0.00481734 -1.60026e-21)
(1.01522 0.0046602 -3.82459e-23)
(1.0154 0.00473361 7.88356e-22)
(1.01429 0.0229529 5.2761e-23)
(1.01159 0.0242643 -1.46911e-21)
(1.01231 0.0208237 1.81506e-21)
(1.07973 0.0675461 5.81493e-22)
(1.07799 0.0632768 -4.11056e-23)
(1.08369 0.0640475 -1.50401e-22)
(1.01009 0.00195369 2.22917e-23)
(1.01018 0.00204107 2.48467e-24)
(1.0102 0.00201851 -9.2197e-23)
(1.00057 -0.0587289 1.07276e-21)
(1.00062 -0.0494494 3.46173e-21)
(1.01653 -0.0847403 -1.72836e-22)
(1.00495 -0.0874368 1.47141e-22)
(1.0111 -0.0977704 0)
(1.0126 0.00081545 -4.42384e-23)
(1.01274 0.000861907 -9.63576e-22)
(1.01267 0.00096548 -3.99916e-23)
(0.997136 0.17058 1.38507e-21)
(0.985227 0.166306 -2.80948e-23)
(1.03647 0.0208492 5.39967e-21)
(1.03657 0.0205044 3.81527e-21)
(1.03691 0.0209372 6.3003e-21)
(0.992361 0.0147483 -9.6196e-22)
(0.991703 0.010899 3.32393e-23)
(0.987885 0.0140231 1.65786e-21)
(1.01092 0.00246311 1.20826e-25)
(1.01084 0.00237704 0)
(1.01083 0.00242259 1.3641e-22)
(0.993066 0.348536 6.12962e-21)
(1.00146 0.370197 2.89003e-20)
(1.07529 0.0712767 -3.65221e-22)
(1.0817 0.0726252 1.10542e-21)
(1.01383 0.000285286 0)
(1.01431 0.00031327 0)
(1.01419 0.000335275 7.33109e-22)
(0.940005 0.195548 3.51055e-21)
(0.932203 0.194216 4.30069e-22)
(0.935971 0.188453 -6.58817e-21)
(1.013 -0.00229892 -4.69391e-23)
(1.01281 -0.0022183 4.5452e-23)
(1.01289 -0.00219692 -3.86788e-24)
(0.9991 0.0321971 3.76778e-22)
(1.00088 0.0299409 -4.03053e-22)
(0.922203 -0.0538343 -3.59092e-21)
(0.915574 -0.0516214 6.44732e-22)
(0.916971 -0.0302838 5.02567e-23)
(1.01125 0.00170593 3.98862e-22)
(1.0112 0.00173163 0)
(1.02821 0.0187037 -3.56281e-21)
(1.02746 0.0187972 -6.54716e-22)
(1.01101 -0.00290135 0)
(1.01096 -0.00246328 -3.4685e-22)
(1.01133 -0.00272842 0)
(1.00207 -0.00137532 -1.12195e-21)
(1.00155 0.000393825 -1.54092e-22)
(1.00321 9.35529e-05 -5.31493e-22)
(1.00947 -0.000283154 -7.05611e-23)
(1.00938 -0.000291909 -3.64236e-22)
(1.00728 6.19615e-05 -2.03867e-22)
(1.00741 5.78055e-05 9.52525e-23)
(1.00741 6.99867e-05 -1.64889e-22)
(1.01073 0.000782061 7.26985e-22)
(1.01075 0.000691998 6.08099e-22)
(1.00422 2.36107e-05 -8.10344e-22)
(1.00496 -9.79178e-05 5.99637e-23)
(1.01099 0.00247833 6.66471e-26)
(1.01101 0.00252333 1.05848e-25)
(1.00704 5.9177e-05 1.95599e-22)
(1.00702 4.01461e-05 1.57036e-22)
(1.00728 0.00860966 1.37318e-22)
(1.00677 0.00771688 1.54231e-22)
(1.00624 0.00873292 1.45191e-22)
(1.01528 0.00489111 -1.46824e-21)
(1.01547 0.00496441 -1.48555e-21)
(1.00967 -0.000385164 1.62526e-22)
(1.00951 -0.000369943 2.35132e-22)
(0.997084 0.00412974 -5.9149e-22)
(0.997342 0.00687507 -6.60834e-22)
(0.999419 0.00544287 -1.90832e-23)
(1.00553 0.00457772 -5.6266e-22)
(1.0052 0.00329866 -8.96265e-22)
(1.00414 0.00436062 -3.5571e-22)
(0.991519 -0.0601051 -6.20227e-21)
(0.9821 -0.0678578 1.80658e-22)
(0.979701 -0.0578613 3.41106e-21)
(0.946911 0.19826 -1.63471e-20)
(0.943632 0.204207 8.1331e-21)
(1.20682 0.111661 5.71954e-21)
(1.19368 0.123417 0)
(1.21315 0.135115 0)
(0.852991 0.236226 -1.67307e-21)
(0.863079 0.239235 2.27403e-21)
(0.853402 0.246213 5.78775e-21)
(1.03632 0.0212397 4.18465e-21)
(1.03602 0.0207689 -1.31516e-21)
(1.00477 -6.03133e-05 -1.56327e-22)
(1.00482 -6.21947e-05 -2.43867e-23)
(1.00339 -3.93428e-05 -3.51195e-22)
(1.01633 0.0251911 -5.50737e-22)
(1.01715 0.0222247 -1.46089e-22)
(1.00428 -1.79432e-05 2.06793e-22)
(1.00432 -3.18595e-05 1.06419e-23)
(1.00286 -2.3409e-05 2.45695e-22)
(0.769239 -0.0815603 -4.92025e-21)
(0.762628 -0.0460129 2.39966e-21)
(1.00562 -8.80061e-05 -7.47546e-23)
(1.00565 -8.62931e-05 -9.94216e-23)
(1.00421 -4.50001e-05 -7.75607e-23)
(1.01319 0.000218815 -6.98085e-23)
(1.01303 0.000221876 0)
(1.00441 -2.22371e-05 0)
(1.00541 -7.95137e-05 -2.02677e-22)
(1.01157 -0.00125959 0)
(1.01169 -0.00127383 -1.21274e-23)
(1.01169 -0.00133737 -6.40426e-24)
(1.03671 0.0111878 -3.3268e-21)
(1.03733 0.0113709 -3.78202e-21)
(1.03686 0.0116383 2.89411e-21)
(1.02643 0.03152 -5.47382e-22)
(1.02714 0.0306759 1.18969e-21)
(1.02749 0.0322099 8.01835e-22)
(1.00405 -1.65179e-05 -1.9091e-22)
(1.00408 -4.34209e-06 1.17866e-22)
(1.00272 -2.10683e-05 5.77807e-23)
(0.999305 -0.0517945 -1.64689e-21)
(1.00192 -0.0592635 2.15599e-21)
(1.02275 0.0104152 2.02793e-21)
(1.02231 0.0102862 9.74388e-22)
(1.02254 0.00999002 -1.3673e-22)
(1.01169 0.00225649 9.6968e-22)
(1.0118 0.00233422 1.04419e-22)
(1.01173 0.0022286 -4.55227e-22)
(0.996414 -0.0376399 1.21456e-21)
(1.00201 -0.0332678 -2.39099e-22)
(0.995685 -0.0317315 6.28394e-22)
(1.01097 0.00177755 1.82752e-22)
(1.01103 0.00188448 -1.96679e-22)
(1.00468 2.34112e-05 3.33984e-22)
(1.00424 -3.29787e-05 -2.81992e-22)
(1.00539 4.71534e-05 4.56779e-22)
(1.04232 0.0326892 3.03655e-21)
(1.04285 0.0338519 -1.88589e-22)
(1.04137 0.0336865 2.43242e-22)
(1.0159 0.000926884 1.49337e-21)
(1.01586 0.000841811 1.47995e-21)
(1.01574 0.000880484 -4.28859e-23)
(1.00967 -0.000149385 -4.64845e-22)
(1.00976 0.000263828 -1.931e-22)
(0.986274 0.158889 5.85097e-21)
(0.983232 0.154134 -4.9743e-21)
(1.02894 0.00820876 -6.1781e-22)
(1.02711 0.00528647 1.66871e-22)
(1.00895 -0.000240784 1.97274e-22)
(1.00883 -0.000234912 2.03443e-22)
(1.00885 -0.000198638 1.95993e-22)
(1.01053 -0.000267394 1.4403e-22)
(1.01059 -0.000234037 -7.11871e-22)
(1.01069 -0.00025942 -4.5712e-22)
(1.01517 0.000224482 5.0911e-22)
(1.01507 0.000196509 -8.09909e-22)
(1.01519 0.000183504 4.47748e-22)
(0.921079 0.13324 -2.04249e-21)
(0.924766 0.125314 1.85698e-21)
(0.915509 0.125964 -1.47627e-21)
(1.00721 -3.53802e-05 -1.62289e-22)
(1.00718 -5.83001e-05 5.56493e-22)
(1.09763 0.0145699 1.33165e-22)
(1.15368 0.0532936 -8.06504e-21)
(1.1232 0.0534277 1.38542e-22)
(1.00881 -0.000260745 1.10867e-22)
(1.00892 -0.000298253 -5.55394e-24)
(1.12841 0.136308 3.16152e-21)
(1.13116 0.13872 -1.22002e-20)
(1.01083 0.00162685 1.9418e-22)
(1.01091 0.00168051 1.67554e-22)
(1.01334 0.00267727 2.97243e-22)
(1.01276 0.00287786 1.99562e-22)
(1.01308 0.00335093 2.81758e-22)
(0.999457 0.0139038 9.8786e-22)
(1.0007 0.013058 -3.71743e-23)
(1.00412 -4.88813e-05 0)
(1.00448 -2.80655e-05 2.8438e-24)
(1.00526 7.64081e-07 6.4266e-23)
(1.21354 0.100866 7.10127e-21)
(1.19663 0.0791347 -1.16383e-20)
(1.0219 0.00751083 6.0001e-21)
(1.02201 0.00730891 2.61464e-21)
(1.02226 0.00756087 5.31508e-22)
(0.843414 0.232107 -3.99599e-21)
(0.853876 0.223406 -3.44216e-21)
(1.01163 0.00225563 0)
(1.01158 0.00214904 0)
(1.01162 -0.000323599 -1.94054e-22)
(1.01143 -0.000348061 1.01817e-23)
(1.01154 -0.000315056 -1.19946e-22)
(1.01057 -0.0013255 -1.25765e-22)
(1.01074 -0.00105512 -2.1949e-23)
(1.01085 -0.00140425 5.10644e-22)
(1.01813 0.00831715 1.48522e-22)
(1.01807 0.00805146 1.51782e-22)
(1.01788 0.00816316 1.64547e-23)
(0.959582 0.00253951 -8.31643e-22)
(0.951076 0.00399943 2.58626e-21)
(0.959793 0.0101208 1.1883e-21)
(1.01184 -0.00544791 0)
(1.01233 -0.00632333 0)
(1.0113 -0.00616857 0)
(1.01143 -0.00471004 3.73631e-22)
(1.01226 -0.00490028 -1.70642e-22)
(1.01309 -0.00241929 3.42293e-24)
(1.01319 -0.0023961 -1.36802e-23)
(0.777941 -0.124684 1.47804e-20)
(0.783001 -0.119955 7.13893e-22)
(1.02546 0.0323815 -2.47268e-21)
(1.02552 0.0307984 -7.68883e-22)
(1.04149 0.0197245 4.10299e-21)
(1.04122 0.0193047 7.42528e-21)
(1.04101 0.0197181 4.95496e-22)
(1.02176 0.00774462 1.7749e-21)
(1.02159 0.0079394 0)
(1.02201 0.00801754 -2.12261e-21)
(1.01126 0.00256698 8.3885e-23)
(1.01126 0.00260683 -2.65913e-23)
(1.01137 0.00265096 7.29918e-23)
(1.03884 0.0254518 0)
(1.03865 0.0257796 0)
(1.0103 -0.000560935 -1.33782e-22)
(1.01026 -0.000614778 2.23348e-22)
(1.01017 -0.000560849 -1.35173e-23)
(1.04223 0.0282632 1.12292e-21)
(1.04205 0.0291614 1.85743e-21)
(1.04133 0.0285249 0)
(1.01276 0.00853761 4.72604e-23)
(1.01118 0.00893614 1.81147e-22)
(1.01196 0.00722389 -4.13317e-22)
(1.01986 -0.0212549 -4.10346e-22)
(1.02038 -0.0258875 -2.05012e-22)
(1.02461 -0.0220215 1.31028e-22)
(1.01618 -0.00576299 -2.26984e-22)
(1.01517 -0.00526094 3.92681e-22)
(1.01546 -0.00661975 3.19726e-22)
(1.01033 -0.000509517 -2.50749e-22)
(1.01037 -0.000454276 -2.11735e-24)
(1.01023 -0.000458491 1.10412e-22)
(1.02632 -0.0797309 1.46387e-21)
(1.02173 -0.073291 -2.87357e-22)
(1.15071 0.0624697 -1.26922e-21)
(1.16234 0.0721531 0)
(1.14517 0.0758348 0)
(1.01677 0.0428205 7.11894e-23)
(1.01498 0.0440025 -1.13865e-22)
(1.01488 0.0416743 -5.89902e-23)
(1.0126 -0.00157868 6.40853e-22)
(1.01248 -0.00126111 1.25123e-22)
(1.01282 -0.00141174 3.78454e-22)
(1.02718 0.0211389 -1.45114e-21)
(0.975585 -0.0437013 0)
(0.986224 -0.0466318 -1.75626e-23)
(0.977788 -0.0553525 0)
(1.01043 -0.000561182 -4.67192e-22)
(0.997313 0.0015626 3.23777e-22)
(0.994293 0.00262997 4.14084e-22)
(1.01911 -0.017199 -8.04939e-22)
(1.01574 -0.019623 4.53977e-22)
(1.03194 0.00830529 0)
(1.03189 0.00783595 0)
(1.0314 0.00805138 0)
(0.988442 0.164915 -5.13136e-21)
(1.04599 0.0165968 4.16621e-21)
(1.04664 0.0169036 -2.69671e-21)
(1.0464 0.0161153 2.12606e-21)
(1.01123 -0.0040309 3.37755e-23)
(1.01072 -0.00441651 2.25311e-22)
(1.00914 -0.000312086 -2.15702e-23)
(1.00904 -0.000277087 9.67673e-23)
(1.00903 -0.000312124 -2.22911e-23)
(1.03609 0.0110927 -1.65536e-21)
(1.03652 0.0107533 4.27622e-22)
(1.01107 -0.00344979 -3.2877e-22)
(1.01164 -0.00370965 4.43035e-22)
(1.01815 0.0417235 -2.73506e-23)
(1.01961 0.0403934 -3.24927e-22)
(1.01792 0.0394018 -5.86049e-22)
(1.02149 0.0074855 -2.0976e-21)
(1.01616 0.00262349 0)
(1.01617 0.00249588 0)
(1.01596 0.00251265 -8.10166e-22)
(1.01115 0.00220917 6.37661e-22)
(1.01113 0.00224052 8.01896e-23)
(1.01105 0.00214773 3.20904e-22)
(0.965586 0.00187201 1.10086e-22)
(0.959997 -0.00509345 -1.23806e-21)
(0.942106 0.00787596 -7.57617e-21)
(0.934484 0.0118529 -2.35946e-21)
(0.946068 0.016016 8.71839e-22)
(1.01049 0.00100235 1.69915e-23)
(1.01052 0.00104114 -1.83335e-22)
(1.01048 0.000896395 -9.82011e-22)
(1.01646 -0.00444748 -4.79766e-23)
(1.01599 -0.00501306 -3.41558e-22)
(0.941771 -0.00285222 1.36767e-21)
(0.958059 0.0567176 4.23217e-22)
(0.954449 0.0602343 -5.85663e-22)
(0.960233 0.0613982 1.14091e-21)
(1.01404 0.00987376 1.80292e-22)
(1.01412 0.00806859 -2.8445e-22)
(1.01148 -0.00117187 1.5267e-23)
(1.01146 -0.00122823 2.21603e-23)
(1.00502 0.00850581 -6.2218e-22)
(1.0026 0.00766909 1.45226e-21)
(1.0053 0.00599602 -2.85765e-22)
(1.04566 0.0172953 2.0266e-21)
(1.04533 0.0164857 3.95056e-22)
(1.01369 0.000434837 -7.88546e-22)
(1.01301 0.000357108 -1.03366e-21)
(1.01338 0.00044602 1.26037e-21)
(1.01674 -0.00491344 -4.42239e-22)
(1.0175 -0.00621419 -3.31155e-22)
(1.00938 0.00149395 -3.97661e-24)
(1.00946 0.00156453 1.34262e-23)
(1.00937 0.00148805 1.80493e-23)
(0.928958 -0.051642 -9.88393e-22)
(0.928846 -0.0746131 -1.32687e-21)
(1.04209 0.0230945 0)
(1.04145 0.0295091 0)
(1.04767 0.0264874 0)
(1.02985 0.0104826 1.11324e-22)
(1.02977 0.0126847 -5.67469e-22)
(1.03204 0.0111046 -1.00057e-21)
(1.04887 0.0259161 4.99609e-21)
(1.04871 0.0263541 0)
(1.04941 0.0263144 -6.97168e-21)
(0.998232 0.0148586 1.6144e-22)
(0.998127 0.0127235 2.41287e-22)
(0.992963 -0.00269781 -4.61127e-22)
(0.99119 0.000130904 0)
(0.994622 0.000347248 2.57929e-22)
(0.999816 0.0153283 5.85591e-22)
(0.996227 0.0152971 -3.42901e-22)
(0.99888 0.0123145 -8.99394e-22)
(1.03112 -0.000641493 1.73643e-22)
(1.03442 -0.00121738 9.75828e-23)
(1.03211 -0.00469727 7.4308e-22)
(1.00931 0.00142619 -1.22033e-23)
(1.0094 0.00149933 4.10069e-23)
(1.01635 0.00273341 1.10769e-21)
(1.00951 0.00104366 3.02019e-22)
(1.0093 0.000633525 0)
(1.00963 0.000642695 0)
(1.00976 -0.000358582 -4.37863e-22)
(1.0098 -0.000371806 -5.1964e-22)
(1.00991 -0.000365758 8.28586e-23)
(1.01392 0.00251461 2.68801e-22)
(1.01372 0.00198229 2.83727e-22)
(1.04174 0.0201652 0)
(1.042 0.0197275 -2.3932e-21)
(1.01079 0.00150695 1.93815e-22)
(1.0109 0.00155763 -3.03388e-24)
(1.01084 0.00146305 0)
(1.01879 0.00820459 0)
(1.01896 0.00806818 -6.05706e-22)
(1.01903 0.00835457 -1.21565e-23)
(1.01742 -0.0162439 8.79348e-22)
(1.01514 -0.0145223 -1.18204e-21)
(1.01833 -0.0139308 -4.12601e-22)
(1.01001 0.00186501 1.52912e-22)
(1.00999 0.0018875 -1.86234e-23)
(1.0741 0.0344369 -6.33079e-22)
(1.07698 0.0319735 -3.05315e-22)
(1.07734 0.036509 -7.827e-24)
(0.86571 -0.246732 8.14047e-21)
(0.883003 -0.260737 2.35819e-21)
(1.01346 -0.0126234 -6.39e-22)
(1.01197 -0.0107559 1.01363e-21)
(1.01468 -0.0107645 -9.11344e-22)
(1.01838 0.00847963 0)
(1.01816 0.00860646 1.24964e-21)
(1.01205 0.0309195 -1.45574e-22)
(1.01346 0.030305 -3.03167e-22)
(1.01205 0.0295256 -2.3965e-22)
(1.00962 -0.000352455 -4.0132e-22)
(1.00972 -0.000344836 -5.137e-22)
(1.04314 0.0279365 1.91749e-21)
(1.044 0.027466 -2.70576e-22)
(1.0441 0.0285376 -1.81181e-22)
(1.02196 0.00656995 1.93012e-21)
(1.02163 0.0065403 1.76697e-21)
(1.02171 0.0063166 -1.85349e-21)
(1.02505 0.033364 -7.63049e-22)
(1.02475 0.0344805 6.73156e-22)
(1.02637 0.0341408 -4.90064e-23)
(1.01427 0.000263095 1.10272e-22)
(1.0135 0.000184417 -1.31229e-21)
(1.02411 0.0326975 9.28213e-22)
(0.899169 -0.0997809 -1.45154e-21)
(0.897798 -0.0640848 1.83806e-21)
(1.01171 -0.000338636 -4.52358e-22)
(1.01158 -0.00037088 -3.05262e-22)
(1.03554 0.0307668 -2.05378e-21)
(1.03634 0.0313088 2.35368e-22)
(1.03529 0.0319673 -1.71103e-21)
(1.02443 0.0162745 2.3614e-21)
(1.02454 0.016914 -2.88441e-21)
(1.02398 0.0165379 8.22876e-22)
(1.0188 -0.00226324 -1.48211e-22)
(1.01982 -0.00186027 -3.83174e-23)
(1.01983 -0.00300348 -1.43185e-22)
(1.00132 0.018541 -5.54978e-22)
(1.0029 0.0153822 2.92091e-22)
(1.0066 0.000141459 1.62572e-22)
(1.00626 0.000114078 6.73114e-23)
(1.01049 -0.000308629 4.81912e-22)
(1.01039 -0.000275757 3.47095e-22)
(1.07065 0.032805 4.24711e-22)
(1.07104 0.0364624 -3.22229e-22)
(1.01859 0.00835368 0)
(1.01854 0.00806047 -1.21313e-21)
(0.99356 0.0188946 8.161e-22)
(1.04139 0.0229145 -3.94785e-21)
(1.04159 0.0225876 3.19371e-21)
(1.04187 0.0230189 -5.22029e-21)
(0.946207 -0.307122 -8.6103e-21)
(1.04326 0.0250259 0)
(1.04423 0.0252041 1.20878e-21)
(1.04345 0.0257692 9.53715e-22)
(1.02681 0.0104367 1.39448e-21)
(1.01077 0.00387439 -1.79772e-22)
(1.01094 0.00292312 -2.51194e-22)
(1.01148 0.00352645 -1.70547e-22)
(1.02002 -0.0180593 1.79822e-22)
(1.0161 -0.0190754 7.9311e-22)
(1.01163 0.00215864 -1.79009e-22)
(1.01146 0.00205214 -2.20451e-22)
(1.01149 0.00208893 -4.4586e-22)
(1.04461 0.0142525 -4.76391e-22)
(1.04404 0.0144861 3.57701e-21)
(1.04414 0.0138162 9.53962e-21)
(1.04908 0.0251895 -1.1157e-20)
(1.04824 0.0253662 9.12363e-22)
(1.03469 0.0302992 2.38233e-21)
(1.0357 0.0297487 1.1489e-21)
(1.00786 -0.0320509 1.03359e-21)
(1.001 -0.0329375 5.6423e-22)
(1.00663 -0.0268113 2.64181e-21)
(0.880159 0.0200245 -6.92211e-21)
(0.883362 0.010984 1.78605e-21)
(0.874293 0.0138408 -9.5728e-21)
(1.01213 0.00311938 1.05236e-22)
(1.01223 0.00318685 0)
(1.01214 0.00314257 -1.33331e-22)
(1.01629 0.0111177 3.90328e-22)
(1.01727 0.0112113 7.02098e-22)
(1.0167 0.0120581 1.5956e-21)
(1.09153 -0.00302679 0)
(1.08886 0.00292276 -2.84696e-22)
(1.09554 0.00281365 -1.42138e-22)
(1.01081 0.0314577 -9.3115e-23)
(1.01225 0.0322973 1.72631e-22)
(1.01213 0.00307451 4.0941e-23)
(1.01202 0.00303578 2.28308e-22)
(1.01105 0.00237461 -9.02461e-23)
(1.01097 0.00228764 -2.47284e-22)
(1.01125 0.00209088 -6.48823e-23)
(1.0112 0.0021195 1.47449e-22)
(1.01114 0.00201399 -6.64062e-22)
(1.04373 0.0452793 2.32025e-21)
(1.04498 0.0462316 -1.38262e-21)
(1.04337 0.046793 4.86077e-21)
(0.886677 0.0257174 0)
(0.877681 0.0294006 -3.55808e-21)
(0.575816 0.0356738 7.39643e-22)
(0.563902 0.0218321 -5.14469e-21)
(0.621359 0.0157466 -1.05523e-20)
(1.01481 -0.0304598 -2.11786e-21)
(1.0112 -0.0374701 -2.53138e-21)
(1.01192 -0.0147734 -6.14575e-22)
(1.03681 0.0200751 7.51942e-22)
(1.03709 0.0197203 5.54866e-22)
(1.03728 0.0203445 3.4984e-21)
(0.965701 -0.0173782 -4.45972e-22)
(0.961834 -0.0247923 7.03629e-22)
(0.97192 -0.0223675 -1.52123e-21)
(1.01264 -0.0021402 2.2891e-23)
(1.01252 -0.00205256 0)
(1.01247 -0.00206555 -4.35338e-23)
(1.02175 0.00705202 -3.60187e-21)
(1.02212 0.00706992 -3.93939e-21)
(1.03632 0.0199061 -1.71533e-21)
(1.01812 0.0042638 -1.0654e-22)
(1.01835 0.0042858 -2.04444e-21)
(1.01829 0.00444976 -2.34028e-21)
(1.01862 0.0438808 1.75334e-22)
(1.00626 -6.48248e-05 6.73235e-24)
(1.00749 -0.000131875 4.28765e-23)
(0.901683 -0.0847796 0)
(0.884868 -0.0736779 -3.12177e-22)
(0.884503 -0.0941237 4.82648e-23)
(1.01017 -0.000394726 0)
(1.01012 -0.000397452 -4.07654e-25)
(1.01029 -0.000406721 -1.40402e-22)
(0.942516 0.0463612 8.34988e-22)
(0.944594 0.0370415 1.02392e-20)
(1.01463 0.000482291 -1.28195e-21)
(1.01472 0.000540418 6.40725e-23)
(1.0146 0.00051421 -1.92018e-21)
(1.01546 0.0089477 0)
(1.01535 0.00860938 -1.71403e-22)
(1.01109 0.00198726 -4.0128e-23)
(1.01191 0.00167096 -5.1546e-23)
(1.01138 0.000931213 5.26877e-22)
(0.991871 0.0994841 3.09301e-21)
(0.996456 0.0988149 -5.2124e-22)
(0.99388 0.0947442 -6.01897e-21)
(1.19029 0.162712 1.23667e-20)
(1.1749 0.13033 1.16535e-20)
(1.15455 0.139451 2.34146e-20)
(1.02072 0.0391452 -6.57332e-23)
(1.02119 0.0413168 -4.32029e-23)
(1.02063 -0.0268859 -1.3393e-21)
(1.01768 -0.0240776 -6.69106e-22)
(1.01845 0.0113185 -4.84594e-22)
(1.01843 0.0109064 0)
(1.01877 0.0112232 0)
(1.01033 0.00222375 0)
(1.01031 0.00223478 0)
(1.01788 0.0042405 -1.50564e-22)
(1.01795 0.00407107 2.35336e-21)
(1.01567 -0.0010262 -5.80318e-22)
(1.01617 -0.0018803 6.88646e-22)
(1.01653 -0.000994671 8.01551e-22)
(0.967264 -0.11077 -1.47288e-22)
(0.979394 -0.128806 1.99473e-21)
(1.01052 0.00240751 5.10828e-23)
(1.01051 0.00239152 -2.74928e-23)
(1.01041 0.00231889 6.03139e-23)
(1.01155 0.000625678 1.68391e-22)
(1.01089 0.000483457 1.96406e-21)
(1.01166 0.000600926 2.82591e-21)
(0.980245 -0.021583 -8.28072e-22)
(0.976323 -0.0284187 -2.02392e-21)
(0.971926 -0.0206477 -1.70343e-21)
(1.01933 0.0108404 -1.69884e-24)
(1.01967 0.0110677 1.45264e-21)
(1.01959 0.010654 2.8606e-22)
(1.01052 0.00238044 -6.9552e-23)
(1.01044 0.00229544 1.71904e-23)
(1.01055 0.00236705 -9.33638e-23)
(0.965492 0.0774104 2.25421e-21)
(0.962543 0.0817446 3.20981e-21)
(0.967779 0.0822912 4.89725e-21)
(1.01513 -0.000402029 -6.30382e-22)
(1.01491 -0.000937411 -5.43334e-22)
(1.01119 0.00214757 4.29189e-22)
(1.01117 0.00217463 3.71987e-22)
(1.01109 0.0020788 -3.03922e-22)
(1.01181 -0.000896483 1.74759e-22)
(1.01216 -0.00107623 -1.35027e-22)
(1.01192 -0.00116724 2.44639e-22)
(1.02374 0.0354536 6.64739e-22)
(1.02516 0.0364678 5.44311e-23)
(1.01259 0.000480528 -8.56875e-22)
(1.01158 0.000439522 2.40739e-22)
(1.01156 0.000445804 -1.47228e-21)
(1.02278 0.0367155 5.42379e-22)
(1.02241 0.0347682 -7.16554e-22)
(1.01123 -0.00105664 1.13964e-22)