/*--------------------------------*- C++ -*----------------------------------*\
| =========                 |                                                 |
| \\      /  F ield         | OpenFOAM: The Open Source CFD Toolbox           |
|  \\    /   O peration     | Version:  v2012                                 |
|   \\  /    A nd           | Website:  www.openfoam.com                      |
|    \\/     M anipulation  |                                                 |
\*---------------------------------------------------------------------------*/
FoamFile
{
    version     2.0;
    format      ascii;
    class       volVectorField;
    location    "500";
    object      U_0;
}
// * * * * * * * * * * * * * * * * * * * * * * * * * * * * * * * * * * * * * //

dimensions      [0 1 -1 0 0 0 0];


internalField   nonuniform List<vector> 
18355
(
(1.03345 0.207384 -4.1947e-21)
(1.0085 -0.000276673 1.08265e-21)
(1.10387 -0.0290242 0)
(1.011 0.0011758 4.39505e-22)
(0.99968 0.0218844 0)
(0.918786 -0.0764512 0)
(1.01201 -0.00118045 0)
(1.00274 0.0242874 -1.455e-21)
(1.00493 9.11827e-05 -3.63159e-22)
(1.0826 -0.0280727 0)
(1.00954 0.0104176 1.58102e-21)
(1.0593 0.0326978 -1.19172e-20)
(1.05747 0.0326686 2.42898e-21)
(0.981542 0.157442 0)
(1.00696 0.000180804 6.26248e-22)
(1.00968 -0.000801034 0)
(1.0109 0.00111247 -4.10938e-22)
(1.01662 0.0066699 -8.37596e-22)
(1.14501 0.0558554 0)
(1.01191 0.00547587 -1.60189e-21)
(0.870899 0.12816 0)
(1.0246 0.0123727 -1.65638e-21)
(1.00758 -2.13344e-05 6.87111e-22)
(0.929587 -0.0778812 0)
(1.00754 5.46452e-06 0)
(1.01093 0.00262064 7.87788e-22)
(1.0113 -0.00113147 2.04164e-24)
(1.01139 0.00218491 0)
(1.00382 4.91542e-06 0)
(1.00903 0.00811989 0)
(0.864926 -0.253307 0)
(0.977873 0.0377663 -2.34281e-21)
(1.01147 -0.00112113 0)
(1.00947 -0.000467321 -1.44112e-22)
(1.00607 -8.10851e-05 5.74199e-23)
(1.01088 0.00751175 0)
(1.05113 0.0264504 2.01919e-21)
(1.01055 0.00749484 0)
(1.0081 0.00730976 0)
(1.01705 0.00996334 -2.31996e-22)
(1.01384 0.000156617 6.16688e-22)
(1.00844 0.00978763 0)
(1.00949 -0.00050678 -9.34014e-22)
(1.00831 -0.000239745 -7.16394e-22)
(1.00837 -0.0002521 3.75582e-22)
(1.02626 0.0438107 -3.09806e-21)
(1.01092 0.00300668 -4.67774e-22)
(1.01079 0.00287987 6.27153e-22)
(0.880121 -0.262519 0)
(1.0103 0.00200146 2.56131e-21)
(1.00648 -4.60906e-05 -1.13402e-21)
(0.831311 0.231632 5.54328e-22)
(1.01036 0.00215924 -2.62502e-21)
(1.09535 0.119171 0)
(1.01683 0.00324261 1.31668e-21)
(1.01139 0.00584726 2.28369e-21)
(1.0056 -4.39046e-05 6.36915e-22)
(0.863276 -0.292273 2.63579e-22)
(1.01062 0.00266562 -1.24339e-22)
(0.882388 0.0639048 -2.39563e-21)
(1.00956 -0.000499067 -3.02668e-22)
(1.07143 0.026493 4.74e-21)
(1.08901 0.121208 0)
(1.01652 -0.00116248 -8.80389e-22)
(0.974865 0.0616167 0)
(1.00713 -0.000105005 0)
(1.02772 0.0232262 1.59469e-21)
(1.05082 0.0271913 2.8105e-21)
(1.00979 -0.000494199 -1.19221e-21)
(1.07681 -0.0487463 -2.16437e-21)
(1.01003 0.00100023 -1.50343e-21)
(1.01697 0.00338759 -5.9386e-22)
(0.988232 0.0325462 0)
(1.01907 0.0051075 9.49687e-22)
(0.951576 -2.32368e-05 -2.14817e-21)
(1.00982 -0.000493138 -2.88224e-22)
(0.853904 -0.290206 0)
(1.00993 -0.000517035 0)
(1.01 0.000951023 1.48921e-21)
(0.953465 -0.0086247 0)
(1.0268 0.0231038 0)
(0.957021 -0.0415569 -7.85763e-22)
(1.00989 -0.000507494 1.21562e-21)
(1.0238 0.0267949 -1.50557e-22)
(1.02727 0.0717275 0)
(1.00364 1.71166e-05 -6.51166e-22)
(1.0071 0.000294679 -6.26325e-22)
(1.0395 0.0566286 2.76835e-21)
(1.0097 0.001975 9.63384e-23)
(1.03722 0.0577679 0)
(0.901274 0.27 0)
(0.888716 0.0973249 1.64317e-21)
(0.966517 -0.0445693 0)
(1.01016 0.00179776 -2.69958e-21)
(1.09699 0.101593 0)
(1.01587 0.00119164 -7.89828e-22)
(1.00947 0.001886 0)
(1.01535 0.00064997 7.60596e-22)
(1.08815 0.0534924 1.70354e-21)
(1.02295 0.0118568 -2.30803e-21)
(1.02725 0.0689666 6.39515e-22)
(1.00992 0.00100363 9.34233e-22)
(1.01014 0.00168286 2.15376e-21)
(1.01085 -0.000505851 -2.40661e-23)
(1.02558 0.0240028 0)
(1.00975 -0.000824234 -5.20476e-22)
(0.971798 0.0578899 2.20745e-21)
(1.08955 0.121163 0)
(1.04577 0.0423157 6.83725e-21)
(1.00966 -0.00070892 5.45867e-22)
(1.00676 -9.60395e-05 -3.42186e-22)
(1.00429 -3.66537e-05 1.05969e-21)
(0.996622 0.0181915 -2.27889e-21)
(1.02338 0.02567 0)
(1.01578 0.00190041 0)
(1.00879 0.0252388 -2.85706e-22)
(1.00988 0.00095693 -4.5953e-22)
(0.939436 -0.01628 1.70019e-21)
(1.02302 0.0186923 3.75624e-22)
(1.02852 0.0224908 1.7577e-21)
(1.07631 -0.0367554 0)
(1.09828 -0.0336786 -4.34794e-22)
(0.891411 0.272087 -1.14126e-20)
(1.04073 0.064835 -1.08313e-21)
(0.942062 -0.0264945 0)
(1.01945 0.0362807 9.29411e-22)
(1.01179 -0.00134863 5.30339e-22)
(1.01093 0.000968884 3.87994e-22)
(1.04469 0.216014 2.24173e-21)
(1.02324 0.00964545 -1.546e-21)
(1.00952 0.00194645 -7.42203e-22)
(0.818286 0.230911 0)
(1.01597 0.00550862 2.7674e-23)
(1.08519 0.0328236 -4.98588e-21)
(1.0125 0.114348 2.44687e-23)
(1.0097 0.00183125 9.10955e-22)
(1.14681 0.0483961 0)
(1.09849 0.0178705 -1.8552e-21)
(1.01297 0.000980561 0)
(0.877629 0.104016 -1.67101e-21)
(1.04231 0.0252344 -5.67673e-21)
(0.990973 -0.0150132 0)
(1.01042 0.00281413 3.61738e-22)
(0.848715 0.274118 -2.86851e-21)
(1.00721 0.114842 4.62459e-22)
(1.01472 0.000296819 0)
(0.811548 0.0544473 0)
(1.0128 -0.00143166 -4.7365e-23)
(0.996875 0.0161571 -2.19017e-21)
(0.987621 -0.115778 3.62505e-22)
(1.01127 0.00206149 7.74373e-24)
(1.02857 0.0218876 0)
(1.01365 -0.00365957 8.92062e-22)
(1.00872 -0.00972431 0)
(1.00959 -0.000542559 1.27914e-21)
(1.00714 2.229e-05 0)
(1.01081 0.000891505 -3.61467e-22)
(1.00412 -7.95153e-06 1.01719e-22)
(1.01051 0.00291085 0)
(1.00695 1.71814e-05 0)
(1.01477 0.00704943 1.65711e-21)
(1.01602 0.00569601 2.39972e-22)
(1.00962 -0.000723572 1.3857e-21)
(1.00125 -0.0114459 0)
(1.01664 0.00436069 2.85469e-21)
(1.05567 -0.036622 0)
(0.796386 0.0625283 -2.17231e-22)
(1.00341 0.229904 -2.07755e-21)
(0.66234 0.0854618 0)
(1.04162 0.0257563 2.34001e-21)
(1.00467 -5.42033e-05 1.21612e-21)
(1.08375 0.0338437 -6.28742e-22)
(1.00389 -4.45934e-05 -5.96178e-22)
(0.898436 -0.246872 4.46306e-21)
(1.00537 -6.82865e-05 -2.12938e-22)
(1.01408 0.000235146 0)
(1.00501 -5.95243e-05 -1.09321e-21)
(1.01149 -0.000842891 -7.48362e-23)
(1.04092 0.010774 -4.55773e-21)
(1.01853 0.0369045 -3.16786e-22)
(1.00357 -1.03503e-05 1.38173e-21)
(1.05638 -0.0256636 -7.31972e-23)
(1.02397 0.0111305 0)
(1.01174 0.0026782 -5.84469e-22)
(1.03829 -0.0261378 1.97368e-22)
(1.01007 0.00148157 -1.05195e-21)
(1.00461 2.10918e-05 -6.97989e-22)
(1.03255 0.0569711 -2.49296e-21)
(1.01652 0.000795877 1.02296e-21)
(1.01109 -0.00134735 0)
(1.02253 0.0376926 1.10445e-21)
(1.08796 0.0503581 -1.82034e-21)
(1.00859 -0.000283793 0)
(1.01139 -0.000768872 0)
(1.0157 0.000119497 1.39355e-21)
(1.01302 -0.0113406 2.25946e-21)
(1.00723 -9.31678e-05 5.67414e-22)
(1.02304 0.253193 3.48465e-21)
(1.00857 -0.00029085 -1.50112e-21)
(0.965622 0.157243 -2.56423e-22)
(1.01007 0.00138213 0)
(1.0182 0.00818353 0)
(1.00895 0.00558437 0)
(1.00443 -1.72105e-05 1.75083e-22)
(1.01702 0.22716 3.82712e-21)
(1.02349 0.00799065 4.57645e-21)
(0.659278 0.0441644 0)
(1.01163 0.00264853 0)
(1.01133 -0.0011093 -1.71204e-21)
(1.01201 -0.00323484 -1.38838e-21)
(1.01926 0.00922729 -7.47165e-23)
(0.986391 -0.055223 -6.39977e-24)
(1.0174 -0.0050813 7.6756e-22)
(1.01638 -0.00444131 -7.89909e-22)
(1.01299 -0.0015115 1.10274e-23)
(0.91155 -0.256485 -4.2268e-21)
(1.01729 0.0361028 2.94443e-22)
(1.04934 0.0205298 0)
(1.02321 0.00855528 8.02288e-22)
(1.01086 0.0031563 0)
(1.04501 0.0409645 0)
(1.011 -0.000848316 2.83709e-22)
(1.04106 0.0525039 -7.4295e-22)
(1.00605 -0.00518817 0)
(1.04532 0.00347808 0)
(1.01863 -0.000422785 0)
(1.01107 -0.000828736 0)
(1.0979 0.0353932 2.45994e-21)
(1.02655 0.174113 6.80085e-22)
(0.99834 0.0364073 1.63001e-21)
(1.01311 -0.000156671 2.65451e-22)
(1.02643 0.0241383 -1.67956e-21)
(1.05575 -0.0507817 0)
(1.01113 -0.000852543 0)
(1.0033 -0.0141749 -7.21822e-22)
(1.03984 0.000964383 3.12612e-22)
(1.03431 0.00747759 7.81298e-21)
(1.02292 0.0423326 -3.82392e-21)
(1.05367 0.0138766 5.7712e-21)
(1.0155 -0.00477908 0)
(1.00878 -0.000327971 0)
(1.04026 0.0104333 5.03188e-21)
(1.01483 -0.00412479 8.40779e-22)
(1.00274 0.0374011 1.046e-21)
(1.02313 0.00818068 -8.25518e-22)
(1.01686 0.00290376 0)
(1.01087 0.00270896 1.35868e-22)
(0.994641 -0.053345 5.78432e-22)
(0.965049 -0.0665038 0)
(1.0102 0.000727583 -6.72981e-22)
(1.01743 -0.00106805 -8.38203e-22)
(0.974979 -0.0662963 -7.88514e-22)
(1.07102 -0.00239901 1.48314e-21)
(1.00548 -0.0032432 -8.94963e-22)
(1.01138 -0.000805093 4.58445e-23)
(1.00544 -0.0147144 1.64301e-21)
(1.05305 0.014354 5.49518e-21)
(1.01392 0.000464079 8.77635e-22)
(1.01869 0.00060739 8.35236e-22)
(1.00904 0.00141955 -4.06905e-22)
(1.00185 -0.107089 0)
(0.999806 0.0299798 -4.53446e-22)
(1.08313 0.0490741 4.14701e-21)
(1.06268 0.0216174 1.70154e-20)
(1.00815 0.00442526 4.45073e-21)
(1.01199 -0.0202697 2.1831e-21)
(0.99321 -0.0070545 7.74514e-22)
(1.09312 0.0578088 3.32355e-21)
(1.009 0.0013693 -8.42569e-22)
(1.017 0.00307628 -1.05743e-21)
(1.01037 -0.00130781 0)
(1.00991 -0.00072814 0)
(1.01845 0.00840647 0)
(1.05021 0.0206343 0)
(1.01079 0.00182314 -1.54892e-22)
(1.02017 0.00920202 -1.07803e-23)
(1.032 0.00854337 1.94269e-21)
(1.00959 0.00173385 2.18157e-22)
(1.04244 0.101447 -1.34102e-21)
(0.96825 -0.269773 -1.58458e-20)
(1.02864 0.00633422 0)
(1.01948 0.00950675 0)
(1.0061 0.0243086 2.37753e-21)
(1.00981 -0.000683312 -6.92479e-22)
(1.04382 0.055839 -1.32633e-21)
(1.02316 0.0068685 -1.70746e-21)
(1.01451 0.0374893 0)
(1.01454 0.000197439 -3.82571e-22)
(1.01529 0.03652 7.80482e-23)
(0.903899 -0.178436 -7.92148e-22)
(1.01135 -0.00111242 1.99529e-22)
(1.0692 0.0339487 0)
(1.02483 0.0182792 -3.38681e-21)
(1.01648 0.00370155 0)
(0.992342 -0.00313028 -2.22431e-21)
(1.00645 0.000157741 -6.60376e-22)
(1.01123 -0.000768587 -6.06938e-22)
(1.04117 0.0967518 -2.26813e-21)
(1.01988 0.00921875 -7.45907e-22)
(0.989228 -0.010245 1.6401e-21)
(1.05264 0.0254813 2.17004e-21)
(0.953033 0.336 -2.082e-21)
(1.04988 0.0548508 1.98618e-21)
(1.08508 0.0488826 0)
(1.018 0.00744503 -8.58403e-23)
(1.03452 0.0084846 2.11426e-21)
(1.01047 0.00207968 1.1233e-21)
(1.05037 0.0120572 1.07832e-21)
(1.06186 0.0212744 -9.90457e-21)
(1.06902 0.0347504 0)
(1.05175 -0.021661 0)
(1.02298 -0.0614459 2.0402e-21)
(1.01165 0.00390848 4.86012e-22)
(1.00646 0.00937028 3.96186e-21)
(1.07755 0.115568 0)
(1.00456 0.024664 -1.23258e-21)
(1.01163 0.00383921 -7.53391e-22)
(1.01068 0.00283853 6.25747e-22)
(1.01105 0.00254088 1.0671e-22)
(1.07251 0.0290609 -9.27582e-21)
(1.03022 -0.0585505 -4.73362e-21)
(0.732994 -0.123461 0)
(1.05653 -0.0124617 2.21994e-22)
(1.03095 0.00588461 2.01883e-21)
(1.04286 0.0236676 2.69282e-21)
(1.00744 -0.050446 0)
(1.01248 -0.00137922 -9.46518e-23)
(1.02337 0.0076334 -1.63222e-21)
(1.04203 0.024062 4.71312e-21)
(1.01929 0.00483989 1.66771e-21)
(1.00007 0.0385055 -3.13106e-22)
(1.00684 -5.34575e-05 1.12955e-23)
(1.02206 -0.13112 1.36557e-22)
(1.01005 -0.000882835 4.13792e-23)
(0.932558 -0.0402505 1.14752e-21)
(1.01526 0.000525707 0)
(1.01717 0.00993944 4.41056e-22)
(1.01907 0.00722498 0)
(1.0547 0.0233263 6.2618e-21)
(0.982828 0.246774 -9.74887e-22)
(1.00443 0.039023 4.90423e-22)
(1.05299 -0.00538173 -1.46891e-23)
(1.01986 0.0120883 -5.95893e-22)
(1.00981 0.00207946 -1.00196e-22)
(1.01899 0.00471375 -1.78756e-21)
(1.0188 0.00447899 0)
(1.0815 -0.0462901 0)
(1.00998 0.00228961 8.60928e-22)
(1.01165 0.000632952 9.48744e-24)
(1.02024 -0.0377535 0)
(1.02079 0.0118451 -4.38097e-22)
(1.01 0.00220679 6.50834e-22)
(1.05857 0.00515432 0)
(1.01797 0.00377882 0)
(1.01096 0.00262881 5.3462e-22)
(1.01254 -0.000306197 8.61229e-22)
(1.01223 0.0384524 7.06019e-23)
(1.0126 0.000544612 4.39523e-22)
(1.01063 0.0372477 2.58247e-22)
(1.01228 -0.000995724 -6.17762e-22)
(1.01182 0.000690863 -3.47765e-23)
(1.02261 0.0114861 1.83403e-21)
(0.938377 0.0537361 -2.16089e-21)
(1.01634 -0.0366819 0)
(1.01215 -0.00100023 8.7554e-22)
(1.01028 0.00261919 0)
(1.02953 0.00468982 6.52386e-22)
(1.01116 0.0025721 -6.1068e-22)
(1.00465 -3.24795e-05 0)
(1.01498 -0.0590745 0)
(1.00864 -0.0365151 -1.05912e-22)
(1.03534 0.0119168 4.83857e-22)
(1.0185 0.00471138 0)
(1.03477 0.00791032 -6.53302e-21)
(1.05674 0.0304475 -9.25968e-21)
(1.00937 0.000104754 -9.9973e-22)
(1.00332 -0.0122185 -2.36836e-21)
(1.05116 0.0119433 0)
(1.01088 -0.00103326 0)
(1.02737 0.00348318 0)
(0.995406 0.0100432 1.44675e-21)
(1.02233 0.0106666 -1.35301e-21)
(1.01169 0.000737136 -2.5435e-24)
(1.016 0.0069052 -2.23936e-21)
(1.00693 0.000258205 0)
(1.01178 -0.000724868 -2.93567e-21)
(1.01574 0.000154109 -1.96692e-21)
(0.954655 -0.0019472 -3.95511e-21)
(1.01409 -0.00425823 -9.02117e-22)
(1.02962 0.0208197 1.9423e-21)
(1.00634 -6.39815e-05 5.00513e-22)
(1.01106 0.00265375 0)
(1.01819 0.00862443 2.43864e-23)
(1.01102 -0.0023247 -2.82583e-22)
(1.07461 0.029573 4.63304e-21)
(0.518705 -0.0296332 1.04419e-20)
(1.01592 -0.0468927 0)
(1.01684 -0.00128464 0)
(1.07492 -0.00141093 -1.40875e-22)
(1.00061 -0.001341 -2.13701e-21)
(1.01521 0.000458891 3.78743e-22)
(1.00697 -0.000154529 6.19837e-24)
(1.06785 0.0332585 -3.28899e-21)
(1.01667 0.000877918 -5.37074e-22)
(1.03754 0.0123736 1.73432e-21)
(1.01185 -0.00089303 0)
(1.02042 0.00213277 0)
(0.999601 -0.0501867 0)
(1.06087 0.0025529 0)
(0.975029 0.233513 -6.12692e-22)
(1.08407 0.0609921 3.35214e-21)
(1.01083 -0.000471585 0)
(0.417078 -0.268027 0)
(1.02341 0.0117769 0)
(1.01066 0.00182661 0)
(0.859244 0.122436 0)
(1.01541 0.00058663 0)
(1.02427 0.0036898 -1.50109e-21)
(1.01592 -0.00397698 0)
(0.965653 0.0605124 7.00842e-22)
(1.0154 0.000646942 -3.28119e-22)
(1.0817 0.0329509 0)
(0.87936 -0.0476775 2.71282e-22)
(1.07956 0.0463003 0)
(1.0146 0.00596912 -2.36508e-22)
(1.0091 -0.000392133 1.74768e-21)
(1.0816 0.0462224 -4.54448e-21)
(1.02371 0.0188396 4.71466e-22)
(1.01141 -4.34076e-05 -4.28765e-25)
(1.07282 -0.0288913 0)
(1.00363 0.0251211 -1.55265e-21)
(1.01056 0.0017184 0)
(1.06861 0.0334301 -7.17182e-21)
(1.07484 0.0298621 4.11912e-21)
(1.00899 -0.000367972 0)
(1.01718 0.0111052 2.89754e-22)
(1.00702 0.0376073 -9.74624e-23)
(0.894622 -0.259396 0)
(1.0568 0.0473197 -4.24388e-21)
(1.0204 0.0118109 4.39966e-22)
(1.01061 0.00224275 -8.70052e-22)
(1.06533 0.0309591 -1.17595e-20)
(1.00734 0.000288605 3.75982e-22)
(1.01122 -0.000892194 1.68655e-21)
(1.01209 -0.000220429 0)
(1.0544 -0.000890561 2.16604e-22)
(0.553129 -0.0213412 -5.75773e-21)
(1.01076 -0.00100485 -3.33527e-22)
(1.00171 1.15821e-05 -4.37184e-23)
(1.01446 0.000547931 0)
(1.05258 0.0220523 -9.23384e-21)
(0.995088 0.0072949 -1.89831e-21)
(1.01156 -0.000835935 0)
(1.02364 0.00502114 1.50146e-21)
(1.04317 0.0532351 1.75282e-21)
(1.02313 0.00410235 -3.74062e-21)
(1.00085 -0.00743955 -2.62563e-21)
(1.072 0.0255005 -4.76014e-21)
(1.02438 0.0114883 0)
(1.00725 0.000269605 0)
(1.05557 0.0461476 3.97894e-21)
(1.04922 0.0256565 7.82747e-21)
(0.956618 0.328755 -1.41249e-20)
(1.01074 -0.000968671 0)
(1.04654 0.294903 0)
(1.0128 0.000860805 0)
(1.01086 -0.00100746 3.26031e-25)
(1.04952 0.0592868 -1.00323e-21)
(1.02491 0.0197563 0)
(0.948746 0.000424487 -1.34688e-22)
(0.990037 0.035592 1.67694e-21)
(1.02965 0.0215503 0)
(1.0198 0.00432696 -4.1684e-21)
(1.0251 0.0122845 1.16903e-21)
(1.06222 0.00480173 1.50078e-21)
(1.02261 0.0193844 8.12418e-22)
(1.06135 0.0197785 -2.11137e-21)
(1.02148 0.0123168 8.51826e-22)
(1.0107 -0.000911823 -1.72909e-22)
(1.02878 0.0072011 -2.0974e-21)
(1.01082 -0.000959717 -7.03544e-22)
(1.07411 0.0250351 4.96728e-21)
(0.545396 -0.0439368 -1.0095e-20)
(0.962462 0.0561601 -6.99561e-22)
(1.01688 0.00591088 2.56401e-21)
(1.01653 0.00858241 1.43904e-22)
(1.02105 0.0122776 2.55084e-22)
(1.01211 -0.00379992 9.27343e-22)
(1.0176 0.00734374 -1.64858e-21)
(1.01661 -0.000187903 8.12624e-22)
(1.01279 -0.00113432 1.14727e-21)
(1.01817 0.000956702 -2.26442e-21)
(1.04605 0.0563018 2.55463e-23)
(1.00891 -0.000350438 0)
(1.01643 0.000309808 0)
(0.946786 0.266756 3.91074e-20)
(1.03409 0.261659 -3.81412e-21)
(1.08396 0.114838 0)
(1.02328 0.00925954 1.36289e-21)
(1.00304 -1.3933e-05 -7.64924e-22)
(1.00862 0.0389301 -3.44462e-23)
(1.02427 0.0119419 1.75051e-21)
(1.00356 -0.0929453 1.54725e-22)
(1.12685 -0.0427039 0)
(1.0069 0.00838649 -4.29681e-21)
(1.02044 0.025967 0)
(1.02321 0.00771656 0)
(1.03018 0.0142706 -3.88013e-21)
(1.03634 0.0215079 -3.25322e-21)
(0.629462 0.108119 7.39483e-21)
(1.02884 0.0472633 -9.22192e-22)
(1.01106 0.00690184 0)
(0.92868 -0.235443 9.9083e-21)
(1.00822 0.000393538 -1.06097e-22)
(0.99757 0.245626 -3.33008e-21)
(0.416231 -0.279607 8.64755e-21)
(1.05495 0.0148529 -6.88686e-21)
(1.01723 0.0109192 0)
(0.58727 0.111629 -5.31429e-21)
(1.0109 0.00193706 3.04438e-22)
(1.08047 0.0338673 6.34043e-21)
(0.975148 0.0352023 -4.06871e-22)
(1.03512 0.0804997 -7.33479e-22)
(1.02184 0.0192066 6.4226e-22)
(1.02844 0.00691321 1.65996e-21)
(1.02261 0.00432729 0)
(1.00222 0.100899 1.67531e-22)
(0.943662 0.315692 2.55528e-20)
(1.0279 0.0726424 0)
(0.890876 0.0266596 4.81958e-22)
(1.01833 0.00791711 -3.51325e-22)
(1.02221 0.00425568 -1.54976e-21)
(1.02492 0.0269924 1.53967e-22)
(1.01702 0.00276941 0)
(1.00902 0.0105292 -1.29085e-21)
(0.880291 0.11959 0)
(0.932462 -0.248617 0)
(0.503966 -0.050674 1.16599e-20)
(0.879841 -0.148127 3.606e-21)
(0.99981 0.0111642 0)
(0.982149 0.0368554 3.88751e-21)
(0.99413 0.0146257 0)
(1.01103 0.00304152 -1.56082e-22)
(1.01363 0.00388419 0)
(0.997654 0.011336 0)
(1.01765 0.0134073 -1.55376e-21)
(1.02359 0.00701442 -1.76491e-21)
(1.01688 0.00258962 0)
(0.916666 -0.0430259 -4.73569e-22)
(1.00934 0.00175496 0)
(0.884682 -0.160069 -3.5948e-21)
(1.00594 0.011949 7.66198e-22)
(1.07879 0.0269418 1.09419e-22)
(1.05455 0.0299371 -5.48679e-22)
(1.01376 0.00391633 -6.19215e-24)
(1.02231 0.0254275 8.37297e-22)
(1.04269 0.23018 7.6798e-21)
(1.01811 0.00109366 0)
(0.418192 -0.0852869 0)
(1.01164 0.000738637 2.25344e-24)
(0.901212 0.0804552 -4.12609e-21)
(1.02721 0.0470417 0)
(1.01444 0.000216989 0)
(0.994516 0.0123877 0)
(1.09226 0.0543236 -7.90518e-21)
(1.08455 0.0649404 -2.56692e-21)
(1.00347 -4.34903e-05 0)
(1.01026 -0.000615512 1.49014e-21)
(1.06367 0.0306718 6.91371e-21)
(1.05577 0.0150752 -7.16787e-21)
(1.08029 0.0269131 5.83224e-21)
(1.01663 0.000453508 2.89738e-22)
(1.07071 0.0264735 0)
(1.00929 0.00169098 -4.07753e-22)
(1.13708 -0.0337806 0)
(1.00591 -6.88384e-05 -7.55178e-24)
(1.01194 0.00464004 -1.08907e-21)
(1.06735 -0.0197588 5.97476e-22)
(1.01684 -0.00811227 5.36027e-22)
(1.03544 0.00406998 4.13274e-22)
(1.00594 -7.14099e-05 0)
(1.01842 0.0263623 -4.53789e-22)
(1.01361 0.00424216 9.25021e-22)
(1.03532 -0.111502 -1.65544e-21)
(0.69295 -0.12966 0)
(1.04337 0.02115 6.14713e-21)
(1.004 -0.0068962 -4.6637e-22)
(1.00557 -3.49299e-05 0)
(1.00731 0.0257945 -6.66484e-23)
(1.02144 0.0111208 -1.0939e-21)
(1.04297 0.020498 -5.26566e-21)
(0.274278 0.0843392 3.91902e-22)
(1.00806 -0.000192889 -8.04891e-22)
(1.02513 -0.0455916 0)
(1.01839 0.0091194 4.03033e-22)
(1.00532 -7.43089e-05 -1.01137e-21)
(1.03762 0.023822 5.64521e-21)
(1.01456 -0.0833575 5.92184e-23)
(1.00872 0.00025272 -5.22536e-22)
(1.01048 0.102527 -1.24226e-23)
(1.01461 0.00152147 1.01002e-21)
(1.06768 0.0263315 0)
(0.876759 -0.0926091 3.193e-22)
(1.01267 -0.00143855 0)
(1.01097 0.00273293 -6.85267e-22)
(1.06696 0.263807 1.64885e-20)
(1.03503 0.0561818 -1.06669e-21)
(0.991064 0.277043 -2.00767e-20)
(0.99106 0.0419031 -1.6471e-21)
(1.01722 0.00958263 -1.55005e-22)
(1.01687 0.00229204 0)
(1.01008 0.000952459 4.95859e-22)
(1.01817 0.00500143 2.78905e-21)
(1.01909 0.0123746 -2.77824e-22)
(1.01564 -0.0036777 0)
(0.999963 0.136971 8.04809e-23)
(0.784096 0.236967 4.48884e-21)
(1.01195 0.00454759 3.03014e-22)
(0.910686 -0.269076 3.92359e-21)
(0.903329 -0.256462 0)
(1.01131 0.0116556 1.33888e-21)
(1.07077 -0.0312731 3.01906e-21)
(1.01133 -0.000952909 -1.99785e-21)
(1.03505 0.193002 -2.81118e-21)
(0.994103 0.0859353 0)
(1.01368 -0.00185526 7.7224e-23)
(0.86917 -0.109612 6.61593e-22)
(1.06685 0.032048 0)
(0.920781 -0.00189148 0)
(1.05481 -0.103246 -1.44294e-21)
(1.01201 -4.32081e-05 7.33346e-22)
(1.01014 0.000824707 1.86236e-21)
(1.00449 -4.7402e-05 0)
(1.04285 -0.0300582 0)
(1.07204 0.0290504 1.22771e-20)
(1.01449 0.00613796 2.35885e-23)
(1.03517 0.00581429 -8.26445e-23)
(1.00757 0.135964 -5.43729e-22)
(1.0235 0.011268 0)
(1.0676 0.0322205 0)
(1.01013 0.000902739 -2.86474e-22)
(1.06612 0.0305656 1.30706e-20)
(0.430726 -0.193742 0)
(0.993834 0.0865677 0)
(0.994363 0.0070747 1.15091e-21)
(1.0019 0.0736274 0)
(1.03213 0.0597398 9.18395e-22)
(0.858147 -0.274912 0)
(1.02156 0.0263515 0)
(1.01005 0.00248284 0)
(1.01258 0.0269176 1.66801e-22)
(1.0615 -0.0832039 0)
(1.01067 -0.0107347 -1.26591e-21)
(1.07258 0.0279148 1.71393e-21)
(1.01463 0.00608803 3.06027e-22)
(1.03578 0.169051 -1.73506e-21)
(1.01439 0.000499714 1.58308e-22)
(1.01755 0.0100343 -1.78272e-24)
(0.974498 0.00121277 1.80858e-20)
(1.00366 -5.88989e-05 -1.6701e-22)
(1.0125 0.0285696 -5.73981e-23)
(1.03238 0.00243972 -1.41469e-21)
(1.01233 0.097381 0)
(1.02166 0.00057884 0)
(1.01562 0.0010837 -6.46835e-22)
(1.03582 0.0239148 0)
(1.01742 0.0272515 7.62369e-22)
(1.01127 -0.000899478 8.84397e-22)
(1.01163 -0.00261496 -1.83488e-22)
(0.992419 0.00762398 0)
(1.10106 0.122618 6.82447e-22)
(1.03061 0.0204815 1.28925e-22)
(1.00605 0.000105109 7.58236e-22)
(1.04007 0.0620957 2.02247e-21)
(0.86759 -0.0584699 1.85656e-22)
(1.01393 0.00547258 4.55425e-22)
(0.995931 0.0622532 -3.25347e-22)
(1.00969 -0.00118806 -1.92884e-21)
(1.02276 0.00407527 3.37987e-21)
(0.989006 0.338595 5.91364e-21)
(1.01178 -0.000952783 0)
(1.11314 -0.0309836 -2.39348e-22)
(1.01859 0.00289406 -8.88431e-22)
(1.01641 -0.00407691 3.92023e-23)
(1.06298 -0.0159001 0)
(1.02055 0.0195833 -1.04249e-21)
(0.887056 -0.253705 2.77906e-21)
(1.03061 0.0197908 0)
(1.01567 0.00101076 -5.3092e-22)
(0.989669 0.354023 0)
(1.01842 0.00296412 0)
(1.00963 -0.000652083 -6.2095e-22)
(1.01339 0.000595853 -8.22503e-23)
(1.01016 0.00260473 0)
(1.01105 0.0293572 0)
(1.03919 0.053934 2.62746e-21)
(0.960963 0.234115 2.90041e-21)
(1.0035 -1.18449e-05 -6.92937e-22)
(0.430508 -0.071146 0)
(1.0132 0.000145614 0)
(0.98334 0.0582088 0)
(0.9877 -0.260951 9.05677e-21)
(1.01731 0.0114843 0)
(1.01878 0.00484677 1.06077e-22)
(1.01957 0.0268718 -4.35105e-22)
(1.01315 -0.00134807 0)
(1.07131 0.0179743 -2.14029e-21)
(1.01465 0.00396053 1.10453e-23)
(1.00984 -0.000609302 -3.03461e-22)
(1.0117 -0.000765336 -6.66921e-22)
(1.01447 0.00601736 -2.83215e-22)
(1.01785 0.00112189 -7.51264e-22)
(1.07486 -0.0439832 1.63586e-21)
(1.01636 0.00536429 -1.90793e-21)
(1.07029 0.0353255 0)
(1.01245 0.00578414 9.60349e-22)
(1.00724 0.010301 0)
(1.01484 0.00781111 -1.72815e-21)
(1.01949 -0.00353247 0)
(0.992775 0.0274818 -5.55443e-22)
(1.00872 -0.000306184 -8.1326e-22)
(1.07317 0.0257895 0)
(1.03838 0.0667537 -7.07993e-22)
(1.01121 -0.000827737 2.87809e-22)
(0.943372 -0.262381 3.32425e-21)
(0.442816 -0.203794 1.2302e-22)
(1.00676 -9.72611e-05 -1.25562e-21)
(0.971817 0.0310657 0)
(1.00539 -1.66706e-05 0)
(1.04456 -0.0611492 0)
(1.06711 0.0266534 0)
(1.01364 -0.00177641 -1.37477e-22)
(1.06455 0.0303816 -7.14479e-21)
(1.01392 0.0264133 -1.68351e-22)
(0.98065 0.0472966 -4.41412e-22)
(1.00626 -4.94585e-05 1.1342e-21)
(1.05265 0.0126842 9.97799e-21)
(0.949479 0.0872099 3.96376e-22)
(0.98211 0.0978661 -1.20332e-22)
(0.999634 -0.0440949 0)
(1.01782 0.00122918 9.21518e-22)
(1.06402 0.0253252 -7.54145e-22)
(1.0708 0.030446 -9.6378e-22)
(1.02502 0.185502 -6.45634e-22)
(1.01679 0.00053145 1.50293e-21)
(1.03901 0.0149255 -4.81431e-21)
(1.01177 7.08419e-06 -9.7136e-22)
(1.01914 0.00840425 0)
(1.01172 0.00375777 1.56461e-23)
(1.00662 -7.29722e-05 -7.35912e-23)
(1.0082 -0.000220157 7.7391e-22)
(0.97088 0.0410256 5.96528e-22)
(1.02149 0.00479072 -1.00551e-22)
(1.00676 0.000135476 0)
(1.00951 -0.000458658 -4.91828e-22)
(1.00749 -0.000110217 -3.1168e-22)
(1.0198 0.0113389 -8.91117e-22)
(0.983775 0.0937211 1.66487e-21)
(1.07132 0.0302072 -1.87109e-21)
(1.01142 -0.00113211 1.26246e-21)
(1.01625 0.0266038 2.68497e-23)
(1.0168 0.00850083 7.15712e-23)
(1.01657 0.00849147 1.2504e-22)
(1.01341 -0.000348014 0)
(1.0104 0.0027343 -5.29132e-22)
(1.01628 -0.0209119 0)
(1.0097 -0.000483654 -5.96442e-22)
(1.00972 0.00212387 3.63537e-22)
(1.00446 1.49489e-05 0)
(1.02285 0.00903976 -8.6655e-22)
(1.01685 0.0111389 0)
(1.01389 -0.00447743 -3.91819e-22)
(1.02148 0.00190089 7.85425e-22)
(0.889461 0.084506 -1.86956e-21)
(1.04268 0.0220497 -5.15866e-21)
(1.00954 0.0019476 6.86818e-22)
(1.05105 0.0276862 -7.38035e-21)
(1.00975 -0.000569943 0)
(1.00967 -0.000488943 0)
(1.01469 -0.00471874 -3.7999e-22)
(1.00586 -0.0410034 5.35375e-22)
(1.01545 0.00658458 0)
(1.01495 -0.00420369 7.64165e-24)
(1.01177 -0.000811271 0)
(1.00852 -0.000277058 7.57784e-22)
(1.01771 0.00421991 -3.04863e-21)
(1.00982 -0.000508798 0)
(1.02211 0.00386333 0)
(1.01445 0.00381905 6.25448e-23)
(1.02268 0.0110076 1.52822e-21)
(1.01181 0.00368246 5.99549e-22)
(1.0385 0.0146233 -4.61527e-21)
(0.933381 0.168193 -1.06213e-21)
(1.00998 0.00242873 7.92636e-22)
(1.02538 0.0115253 -4.14908e-21)
(1.00742 0.000289906 -6.27609e-22)
(1.15391 0.046266 0)
(1.0476 0.0728298 0)
(1.0571 0.0206507 -1.45602e-22)
(1.01878 0.0122793 0)
(1.00074 0.00101355 1.64921e-21)
(1.00589 0.0133241 1.97877e-23)
(1.02201 -0.0169653 -9.88873e-22)
(0.692867 0.0978351 -6.44651e-21)
(1.0041 -1.16322e-05 -1.35418e-21)
(1.01551 0.0747168 9.00625e-23)
(1.02545 0.0118588 6.50206e-22)
(0.927737 -0.133656 0)
(1.01179 0.00823624 1.87631e-21)
(1.01115 -0.00107307 0)
(1.01325 -0.00119599 0)
(1.10519 0.0610114 1.42649e-21)
(1.0129 -0.00113342 -5.56373e-22)
(1.0579 0.0208431 -3.67491e-23)
(1.00527 -0.00891392 1.38912e-21)
(1.05611 0.00245807 1.6948e-21)
(0.983886 0.033057 -2.59174e-21)
(1.00581 0.000173528 6.02021e-22)
(1.00667 0.000133148 0)
(1.00692 -5.82083e-05 0)
(1.01375 0.00529484 -5.79202e-22)
(1.06203 0.020225 1.17412e-20)
(1.10022 0.0281333 -2.66606e-21)
(1.00021 -0.132059 1.65672e-21)
(1.06689 0.0433592 -9.98307e-22)
(1.02493 0.00120493 0)
(1.01003 -0.000561799 -1.46115e-22)
(1.00625 0.000229763 8.31041e-22)
(1.01192 0.0036124 2.57033e-22)
(1.00969 0.00106599 5.04374e-22)
(1.02712 0.00978529 0)
(1.07012 0.0361563 7.61168e-21)
(1.02047 0.00389353 0)
(1.00603 -0.0600354 0)
(1.02451 0.0011864 -2.38252e-21)
(1.02103 0.00158616 0)
(0.991621 0.01024 0)
(1.01701 0.0024581 0)
(1.04979 0.0231893 3.7155e-21)
(1.0682 0.04235 1.18003e-21)
(1.03455 0.0616997 0)
(1.07905 0.00488771 3.58299e-21)
(0.866981 0.063015 -2.0223e-21)
(1.01318 -0.00106798 0)
(1.01083 0.00306787 0)
(1.00999 -0.000542063 -4.51017e-22)
(1.02838 0.00611371 1.69418e-21)
(1.01465 0.000731733 -6.51402e-22)
(1.06797 -0.0711955 3.18318e-21)
(1.07148 0.0294663 5.55323e-21)
(1.0732 0.0186418 0)
(1.01077 -0.000990568 2.04817e-22)
(1.0228 0.0086906 7.92315e-22)
(1.01216 -0.000210037 9.98244e-22)
(1.00977 0.00105769 -1.63109e-21)
(0.729185 0.0951949 1.09001e-20)
(0.993262 0.0106561 -1.28621e-21)
(1.00988 -0.00051299 0)
(1.01288 -0.00118789 -5.72937e-22)
(1.00606 -7.63844e-05 3.28412e-22)
(1.01185 0.00378501 -6.45083e-22)
(1.01004 0.00239013 0)
(1.01269 -0.000165715 0)
(1.03312 -0.00198935 -4.07622e-23)
(1.01279 -0.00102287 1.03771e-21)
(1.01112 0.00726297 0)
(1.01072 -0.00096782 -2.05979e-22)
(1.00788 0.000508867 0)
(1.01176 0.00385962 -3.49219e-22)
(1.01888 0.00818198 -5.94002e-22)
(1.02383 0.00697052 1.94938e-23)
(1.00785 0.000479159 0)
(1.01498 -0.00827843 -5.31714e-22)
(1.01186 -0.000800482 0)
(1.01994 -0.031169 -6.54793e-22)
(1.06528 -0.0266388 0)
(1.01854 0.0070189 -1.58962e-21)
(1.07104 -0.0108065 3.75265e-22)
(1.01573 0.00278493 0)
(1.03344 0.00640605 0)
(1.07628 0.0293764 -4.4001e-21)
(1.06416 0.020165 1.43806e-21)
(1.01438 0.000561448 -1.38732e-21)
(1.00682 -2.10194e-05 0)
(1.00757 2.35982e-05 9.27157e-22)
(1.01494 0.0079823 4.91063e-22)
(1.00348 -6.26448e-05 1.35112e-21)
(1.01473 -0.00156258 0)
(1.03927 -0.0199177 -4.5549e-22)
(1.0188 0.00867317 -4.89466e-22)
(1.01019 0.00545154 0)
(1.0217 7.60467e-05 0)
(0.933098 -0.142137 -2.95108e-21)
(1.05394 0.00301266 4.32838e-23)
(1.00346 1.20764e-05 7.96183e-22)
(1.00708 -9.18019e-05 -1.19834e-21)
(1.01864 0.0136242 0)
(1.05144 0.0533284 -2.89296e-21)
(1.01338 0.00407758 -9.95853e-23)
(1.08658 0.059131 1.9637e-21)
(1.00735 0.00024162 -4.02679e-22)
(1.01105 -0.000865428 2.90724e-22)
(1.04313 0.0226626 0)
(0.941187 0.0383068 0)
(0.873205 0.0290066 0)
(1.05873 -0.0362991 0)
(1.02908 0.000486074 2.74566e-23)
(1.01113 -0.000726511 -4.48969e-22)
(1.01737 -0.0175225 -2.01943e-22)
(0.951802 0.052946 -3.7504e-22)
(1.01806 0.0155409 0)
(1.01359 0.00524072 1.27616e-22)
(0.955306 0.0581084 3.90331e-22)
(1.00648 0.00740756 -1.78376e-21)
(1.16216 0.0755974 6.81107e-21)
(0.936265 0.042914 -2.37841e-21)
(1.00683 -0.000150064 6.69076e-22)
(1.0111 -0.000709621 4.63524e-22)
(1.02205 0.000517367 -1.53972e-21)
(1.01328 0.00842325 -5.44083e-22)
(1.01135 -0.000749348 6.39141e-22)
(1.07093 -0.00128821 2.9154e-22)
(1.06354 -0.0443487 0)
(1.00929 -0.000543774 0)
(1.01874 0.00893375 0)
(1.01965 0.0122523 0)
(1.06691 0.029429 -1.076e-21)
(1.01387 0.00562939 -1.04969e-22)
(1.01113 2.04445e-05 -1.60283e-21)
(1.01945 -0.0143962 -1.16775e-21)
(1.00995 -0.00101543 -1.48571e-21)
(1.01253 -0.000464588 0)
(1.05139 -0.0315062 0)
(1.09693 0.0329174 2.64797e-21)
(1.08368 0.0270262 0)
(1.01468 0.000843503 6.70496e-22)
(1.01 -0.000872195 -9.96064e-22)
(1.00954 -0.000611732 1.83598e-21)
(1.0181 -0.000114885 0)
(1.0184 -0.00444508 0)
(1.0068 -0.0105334 7.00742e-22)
(1.00974 0.00190796 1.79803e-21)
(1.00704 -2.95838e-05 0)
(1.01715 -0.000509432 9.54102e-22)
(1.05855 0.0359153 -8.27453e-22)
(1.00797 -0.000120543 -8.17612e-22)
(1.01856 0.000434361 -2.13276e-21)
(1.08126 0.0666888 0)
(1.01004 0.00229651 -7.16137e-22)
(1.00862 0.00103135 -8.33584e-22)
(1.01838 0.00249543 0)
(0.748451 0.201516 4.59353e-21)
(1.00995 -0.000863125 3.11991e-22)
(1.0214 0.00154913 -1.02778e-21)
(1.00807 -0.000140182 0)
(1.0129 -0.00635487 3.93384e-22)
(1.00973 -0.000822064 0)
(1.04035 0.0292755 -4.42794e-21)
(1.06416 0.00751093 3.82943e-21)
(1.01882 0.000541952 -1.83465e-21)
(1.14964 0.0644597 6.64571e-21)
(1.0479 0.0350305 -6.40342e-21)
(1.03509 0.0147783 -4.50838e-21)