/*--------------------------------*- C++ -*----------------------------------*\
| =========                 |                                                 |
| \\      /  F ield         | OpenFOAM: The Open Source CFD Toolbox           |
|  \\    /   O peration     | Version:  v2012                                 |
|   \\  /    A nd           | Website:  www.openfoam.com                      |
|    \\/     M anipulation  |                                                 |
\*---------------------------------------------------------------------------*/
FoamFile
{
    version     2.0;
    format      ascii;
    class       volScalarField;
    location    "250";
    object      ddt0(k);
}
// * * * * * * * * * * * * * * * * * * * * * * * * * * * * * * * * * * * * * //

dimensions      [0 2 -3 0 0 0 0];


internalField   nonuniform List<scalar> 
9793
(
2.90778e-06
0.00153972
2.98841e-06
-2.27342e-08
0.0345973
9.89127e-07
4.77277e-08
1.04222e-07
1.5492e-07
0.0700601
-3.81752e-06
-0.00369772
8.23311e-09
3.53829e-07
-1.25822e-08
2.25341e-07
1.87767e-07
8.93693e-07
7.25044e-06
2.91736e-07
-3.95401e-05
6.26975e-07
0.00080366
1.49549e-08
-1.08763e-06
2.38926e-08
9.52309e-07
-6.02036e-07
-1.34266e-06
1.73115e-07
-2.12094e-05
0.000326499
-0.00186611
-1.60813e-08
-1.50595e-06
1.43307e-05
1.06256e-07
6.61432e-07
1.598e-07
1.81541e-08
-1.463e-05
-1.19106e-08
-2.33356e-08
8.83477e-08
7.86694e-09
3.04644e-08
-1.48297e-06
-0.00119952
-0.0005673
-4.16482e-08
-1.74271e-06
-3.67766e-06
9.06008e-07
2.26157e-07
0.00299935
-0.0108103
5.37541e-08
-7.77961e-06
-0.00734311
2.04956e-07
8.9235e-08
8.67848e-07
-0.00976561
-1.14955e-08
-0.0113633
-0.00375602
-0.00945116
-0.00677976
-0.00494652
-3.71314e-06
0.00130723
1.16836e-07
6.00178e-08
0.000974071
-2.1172e-06
-0.00796483
8.76876e-08
2.93179e-07
-1.29761e-06
-8.37085e-07
-0.00312969
-1.65346e-07
0.000515535
-8.91226e-05
2.1906e-06
-0.000434791
-7.60003e-07
1.11845e-07
8.21653e-07
-8.97453e-08
0.00189008
0.025256
4.50705e-07
0.00070455
8.24958e-07
-0.000169301
-0.0173659
0.00114463
3.74944e-07
4.7901e-08
3.41259e-08
6.53238e-08
1.44098e-07
1.30245e-07
-8.61606e-07
7.7859e-07
7.72996e-07
-5.84255e-08
8.70456e-07
-0.00207316
1.28821e-07
-0.000884853
-5.88974e-08
-0.019706
-3.61199e-06
7.8982e-08
-0.00440786
-1.78625e-06
-2.02539e-06
0.000538071
-0.00200449
2.90639e-07
9.4747e-08
1.03134e-06
2.19751e-07
-9.75678e-06
-2.01864e-06
-5.35538e-05
-9.07154e-07
1.05371e-07
1.61182e-07
1.0785e-07
1.12666e-07
4.01469e-07
1.36475e-07
1.14933e-07
1.15324e-09
8.33085e-08
-4.63736e-08
2.19348e-08
1.00859e-07
-9.21494e-07
-4.37664e-08
-4.53391e-08
5.67148e-07
1.76502e-06
0.00110255
-4.42891e-08
2.95349e-07
0.018953
0.0112467
1.56945e-07
0.0154641
0.0679229
2.96689e-07
2.62209e-07
6.13796e-08
-7.59774e-07
-2.19717e-08
-4.24439e-08
1.20625e-07
-6.97353e-07
2.36643e-07
3.19646e-06
0.00123686
-2.69588e-05
-0.000487619
2.16334e-07
6.16014e-07
5.97223e-07
-3.82174e-07
4.61481e-05
0.00136348
-0.000506398
2.21472e-07
3.91157e-06
1.08247e-07
-6.00473e-09
9.34958e-08
-4.53348e-07
-0.00234895
2.15827e-08
1.54772e-08
-9.59094e-07
-0.00866555
4.50976e-08
-6.82743e-06
8.41721e-08
9.97704e-08
2.0618e-07
2.17345e-07
7.2783e-08
-0.000113101
-0.000851224
-0.00800468
-3.94257e-07
5.57179e-06
2.68619e-08
0.0625127
2.144e-08
1.3117e-07
4.22632e-06
-0.0111905
9.55018e-08
1.08469e-07
1.7999e-07
9.84922e-05
-1.07115e-07
9.19815e-07
2.51395e-07
-4.6199e-07
0.00442934
-0.00219801
2.39215e-07
1.01558e-05
6.24912e-08
6.4612e-07
-0.0109083
2.00672e-07
0.00232095
7.61943e-07
1.1248e-07
2.1841e-07
7.98123e-08
1.03426e-05
2.14728e-07
9.66627e-07
2.6052e-07
9.76159e-07
-2.49609e-06
-7.00996e-08
1.00092e-08
2.4932e-08
3.01135e-08
-2.47755e-06
0.000327
2.70124e-08
-2.93534e-07
-0.0167477
1.2046e-07
1.23554e-06
1.42837e-07
-2.75809e-07
-0.00207033
-2.07161e-07
2.47659e-07
9.7714e-08
-7.43785e-07
3.53397e-07
1.33478e-08
4.17209e-07
6.10891e-10
-3.20146e-06
-2.28901e-06
-2.03314e-07
7.57349e-07
-2.84532e-07
-3.13277e-08
7.10506e-07
-5.92103e-08
-0.00175501
-2.21931e-07
-3.41417e-06
-2.10972e-07
1.07961e-07
7.16415e-08
1.67978e-07
-4.30774e-07
-4.61748e-06
8.1912e-07
-6.93456e-08
4.79379e-08
5.89693e-07
1.22667e-07
0.00182029
0.00188565
1.25036e-07
-0.000588256
4.62495e-08
-2.35273e-06
-5.64717e-07
-1.11006e-07
-3.96896e-08
1.97585e-08
-2.06558e-06
1.1857e-07
4.16454e-07
1.10709e-07
1.83433e-08
1.19304e-07
-3.33624e-08
-0.00397216
8.4594e-07
1.14953e-07
1.31376e-07
5.39486e-07
3.20569e-07
7.31343e-08
5.71651e-08
-1.34584e-05
3.06076e-07
0.000910904
-0.00297048
3.08444e-08
1.28372e-09
-6.63289e-08
7.11348e-07
3.40967e-07
-3.91879e-07
0.000361636
1.66096e-08
-7.72299e-08
4.18614e-07
5.18873e-07
3.80237e-07
4.48054e-07
-6.34559e-05
-2.99525e-07
6.2368e-07
2.29765e-07
-1.43692e-07
0.00119212
8.50335e-06
0.000699273
3.38148e-07
-0.00326753
3.78916e-07
-0.0067202
-1.92808e-06
8.76049e-08
-1.25061e-07
-1.88488e-06
6.18374e-07
6.45552e-07
-4.02127e-06
9.82192e-08
-3.6494e-08
6.75692e-08
-7.24688e-08
-8.73995e-07
5.02747e-06
9.97813e-08
-1.26659e-07
-3.35311e-06
1.39851e-07
1.67662e-07
2.21805e-07
5.37077e-07
9.82678e-08
6.15419e-06
2.4542e-07
1.97376e-07
5.15956e-07
-3.1773e-08
0.00218878
2.3295e-07
1.12789e-07
1.41441e-08
-1.30247e-06
0.00722099
-6.91121e-06
-1.39336e-06
5.30581e-07
1.16312e-07
1.22533e-05
9.27077e-08
-0.00164807
9.29174e-08
3.51072e-08
-0.00320144
6.30147e-07
1.60272e-05
1.92193e-07
-3.00191e-06
-8.24006e-05
-6.25985e-07
6.24033e-08
-0.00247753
-4.10487e-07
0.00102121
7.57673e-07
2.49678e-07
-0.00995882
8.55238e-08
4.39318e-07
-1.39164e-07
2.48484e-08
6.42575e-07
2.32199e-07
7.05355e-07
0.00160692
2.3778e-07
-0.0137703
0.000754269
1.16205e-05
-2.94037e-06
0.000286663
9.48637e-08
7.23486e-08
0.0013366
0.00058386
2.34151e-07
8.74009e-08
7.62619e-06
9.28463e-08
-0.0216243
-3.38542e-07
6.93566e-07
7.63623e-08
-4.2218e-07
9.7034e-08
-4.47064e-07
4.80704e-06
-1.16782e-07
0.000308474
1.61466e-06
3.15784e-07
-5.66173e-08
9.69327e-09
7.30418e-07
1.78849e-06
2.59759e-06
5.0018e-08
3.75324e-07
-3.6856e-06
2.44224e-07
7.21503e-07
3.62154e-07
2.30689e-07
-4.88817e-07
-3.18393e-08
4.05354e-07
1.17206e-07
-0.00238995
1.24292e-06
-0.00313218
5.86069e-07
0.0055051
-4.10949e-09
5.65236e-07
5.38666e-08
2.53294e-07
-0.00841026
-3.34679e-08
0.003887
1.54845e-07
-3.92541e-07
4.04984e-07
-0.000149572
-6.33406e-06
0.0125124
0.00629879
9.59572e-07
2.42595e-08
6.9543e-07
-4.31069e-07
-2.48306e-07
0.000887407
0.00314422
1.25384e-08
-6.23614e-07
-2.8073e-06
1.02432e-07
1.0296e-08
9.40448e-08
1.98385e-07
1.44937e-07
-0.005946
-4.0878e-07
-0.0116009
2.1165e-07
7.88346e-07
-2.49365e-09
-3.37606e-08
1.27771e-07
-2.09585e-07
1.09376e-07
6.57148e-07
-5.04662e-07
1.23132e-07
7.86019e-09
4.75098e-07
-0.00181475
1.62407e-08
-5.36336e-10
-0.00314148
9.01232e-07
2.49094e-07
-0.0106793
0.00307196
-7.42963e-08
-2.47442e-07
4.56151e-07
5.07019e-07
3.95133e-07
-1.94764e-08
3.64325e-08
2.10611e-07
-3.06788e-07
-2.12536e-07
0.000822734
-3.51026e-06
6.20346e-08
-0.00807807
4.65917e-07
1.93955e-07
8.13562e-07
-1.22869e-06
-0.000178068
-5.60763e-07
0.00848119
3.80883e-08
-2.74025e-07
-3.38888e-06
9.98032e-08
-1.22062e-06
-0.00232099
5.79989e-07
1.78465e-07
-0.0122044
7.35531e-07
-1.6201e-07
-5.75159e-07
-3.13699e-06
4.3995e-08
-1.45066e-07
3.37739e-08
3.0298e-08
-0.00338859
-2.59335e-06
7.22075e-07
8.94943e-07
-4.79819e-07
-2.21438e-07
2.51979e-07
6.71582e-08
5.50915e-08
0.000181731
1.26686e-05
5.74901e-08
-6.95553e-07
0.0034477
3.76782e-07
0.000501741
3.79051e-08
3.98705e-08
-4.25499e-06
-0.0108568
1.2941e-07
0.000282613
-6.66911e-08
-0.0182595
4.32969e-08
-0.00518373
6.98169e-08
-2.49592e-07
1.61849e-07
0.00183668
5.34647e-07
-0.00913344
-0.0020403
-0.013565
-1.32809e-06
0.0102174
-2.50024e-07
2.60421e-09
-1.0309e-06
-3.53194e-07
-0.00159458
2.44188e-07
0.00469894
1.43724e-07
0.000528656
-1.02966e-08
8.59753e-08
-1.92026e-07
-0.000303612
1.63727e-07
-5.42467e-08
7.95311e-08
2.47614e-07
-4.37307e-07
7.45798e-08
1.15711e-07
3.48387e-07
3.13665e-07
1.88186e-05
-3.90469e-08
0.00399034
-0.00611397
-3.81512e-08
2.10721e-09
7.46962e-07
9.50541e-08
1.07018e-07
4.57747e-07
-6.09205e-07
2.2064e-08
4.55504e-08
2.38872e-07
-8.0236e-08
-2.0902e-06
4.59828e-07
8.33008e-09
5.25943e-07
5.27943e-07
0.00219101
3.38173e-07
3.24316e-06
-3.69194e-07
5.92948e-08
1.20826e-07
1.06279e-07
-5.46447e-07
-1.9024e-06
-2.03837e-07
2.93372e-07
3.08499e-08
-2.66508e-07
2.82815e-07
2.22086e-08
7.77881e-07
3.29859e-08
1.00124e-07
9.41017e-08
2.28798e-07
7.88917e-07
3.4885e-08
-1.25042e-06
2.69649e-08
-9.57976e-08
1.21715e-07
-1.01113e-07
-1.33022e-07
6.62531e-08
-4.52772e-08
-8.39175e-08
3.61699e-07
1.72017e-07
-6.66689e-07
8.72528e-08
1.11912e-08
1.08014e-07
0.0087027
3.28653e-08
1.15499e-07
-3.80048e-06
-1.17348e-07
5.39783e-08
-0.00152981
-1.10881e-06
-1.3541e-07
1.02152e-07
-5.47994e-06
1.13263e-07
-3.40074e-06
-0.00603152
-0.000642634
-0.0035535
4.48256e-08
1.41463e-07
0.0030548
3.94442e-07
1.25785e-07
0.00055518
0.00212524
0.0137052
1.23131e-07
-3.95667e-06
1.52765e-07
9.08807e-08
-0.0126696
1.90063e-08
1.33746e-05
1.4578e-05
-3.47791e-06
-8.53918e-08
3.51963e-07
4.68318e-07
-0.00056343
0.00403481
-3.89619e-07
5.49588e-06
-7.48549e-07
-6.88586e-08
8.83343e-07
-3.26648e-06
0.000360171
4.80041e-08
0.00065386
5.57532e-07
-0.000423059
0.00045347
-0.00355861
0.00226959
-8.03623e-07
-1.23151e-07
0.00192459
-4.40404e-10
4.41402e-08
6.70378e-08
-3.70638e-07
1.17662e-07
-0.00415356
1.31558e-07
0.00226122
-7.77119e-08
3.89447e-05
-3.62399e-06
2.53872e-07
0.00198449
-0.00307271
2.51448e-07
-0.00793157
1.67005e-07
-5.87364e-06
1.26663e-07
-9.56822e-08
-0.00222624
2.62147e-07
0.00504609
-7.60313e-09
0.00310443
-1.06018e-07
-0.00122356
-0.00217958
-8.15753e-07
-0.00673801
2.11165e-08
6.58017e-08
-1.42039e-06
-0.0202508
-0.0231272
-3.27683e-07
-9.57197e-08
1.21012e-07
-0.00145642
-0.000117275
-1.49311e-08
9.98381e-07
0.000572636
1.26161e-07
2.78365e-08
1.97708e-07
-3.36645e-05
-5.7169e-07
4.15882e-07
-5.89036e-08
1.62793e-07
-0.00366879
0.00568834
0.000265272
-1.1465e-07
8.16001e-09
0.0126947
5.2625e-08
-0.00895844
-1.46299e-06
0.000891523
-0.00195955
0.00299351
5.5326e-08
2.22016e-07
-2.73935e-08
9.95649e-08
-3.40621e-08
8.24537e-08
-3.66397e-06
0.00418039
1.49663e-08
-0.00154272
1.61525e-07
-0.00522231
1.70634e-07
-0.00238462
8.95623e-07
-9.78003e-06
-2.27014e-08
4.26659e-06
0.000104393
0.0062967
0.00306023
5.37942e-07
-1.15537e-07
4.89179e-07
5.79105e-07
3.85139e-07
-0.0025864
1.57632e-07
-5.54951e-06
4.96053e-08
-7.91793e-07
-2.94067e-07
2.95578e-08
8.01838e-08
8.29306e-09
0.0117797
4.44669e-08
4.57775e-07
1.05611e-07
1.92187e-07
1.36761e-07
1.57425e-07
-1.96424e-07
4.47324e-08
3.5952e-08
4.46604e-08
0.00354804
3.20496e-08
-1.26432e-05
6.83346e-09
0.000382843
-3.42643e-08
-6.05659e-05
-8.77946e-08
-0.0063558
5.327e-07
3.13492e-07
4.65422e-09
-0.00235384
0.00387903
-0.00561598
0.0438525
0.0137695
1.9607e-07
9.84519e-09
0.00144847
1.248e-07
-0.00192747
-0.00158691
2.65121e-07
-2.69638e-05
4.88416e-07
0.00201448
1.47595e-07
-0.00363715
0.00173405
4.431e-07
2.75899e-07
0.00330266
1.78722e-06
7.76335e-09
7.74334e-07
4.1834e-08
-2.60038e-07
-1.62807e-06
7.53611e-08
-1.20408e-07
8.10229e-08
0.000700046
-1.37767e-06
8.5114e-07
-0.000656732
3.80969e-09
-5.29859e-08
5.60571e-05
-6.96239e-06
-1.8277e-06
-1.55458e-08
0.00019836
-1.80738e-07
9.87361e-08
-0.00471873
1.54859e-07
4.9621e-07
0.000823332
3.64851e-05
-7.92389e-07
-0.00435014
0.00807747
7.19699e-05
0.00274798
-0.00195468
3.84363e-08
-0.00348437
4.80517e-07
6.0392e-08
3.12683e-07
-1.79489e-07
6.02623e-07
-0.00553556
3.85057e-07
-0.00371555
-3.15963e-07
9.53637e-07
5.15501e-07
-1.69261e-06
4.3642e-07
6.61174e-07
-1.51675e-06
-3.32636e-06
5.01597e-08
4.64524e-07
3.58894e-06
-5.02167e-07
-8.6439e-07
2.41384e-08
0.00290207
-0.0062091
-1.26652e-05
2.86912e-08
-3.50653e-10
2.98896e-07
-1.52097e-06
6.91408e-06
-1.05393e-05
0.00397948
-4.36616e-07
-0.00171484
-3.1038e-07
1.09065e-06
9.89507e-07
-2.69404e-08
-6.18723e-05
-5.21991e-09
-1.64359e-07
3.11768e-06
-8.69387e-07
-0.00180251
2.51519e-08
-0.000517764
-0.00132042
7.54055e-08
-2.06811e-06
-1.5174e-07
2.03057e-05
2.65906e-08
-3.18141e-07
0.000864166
2.1627e-06
9.89524e-09
0.000259807
5.69241e-07
-9.71187e-08
-5.06891e-08
0.0319092
6.10756e-07
-5.65763e-07
-0.00431476
-2.05527e-06
8.83084e-07
-6.40121e-08
-0.000142609
-0.00247396
-5.32078e-06
1.43734e-07
2.9783e-07
1.0735e-07
2.9142e-06
9.37429e-08
0.012908
0.00256795
-1.52958e-07
-0.0033034
0.000611625
-0.00327344
2.6605e-07
0.00250837
1.14839e-07
-0.000772961
-5.60609e-06
-1.94041e-08
-0.014486
0.00327365
7.57008e-09
2.37481e-07
-3.62693e-08
0.00520353
-0.00355481
3.56428e-07
2.07401e-06
0.000166164
1.00873e-05
-0.00196325
0.000195963
4.16582e-08
-5.29115e-09
-0.00734225
2.93094e-06
6.4811e-08
1.58463e-07
-3.42592e-07
4.37852e-07
5.66086e-07
-3.40187e-07
-1.22197e-05
2.53327e-07
2.37566e-07
3.55533e-05
1.25802e-07
2.12809e-07
8.18586e-07
0.00974099
2.36547e-07
-4.54945e-06
3.12762e-05
2.55239e-07
8.78567e-08
2.80113e-07
-1.72138e-08
6.00472e-07
-0.00226398
-0.00365447
-1.05845e-06
-5.76252e-05
-2.87477e-07
0.000332583
3.8564e-08
-1.78545e-07
5.46042e-07
5.58661e-07
0.00279808
3.00735e-07
5.57777e-08
3.57873e-07
-5.34555e-07
4.20189e-06
-5.67769e-07
1.01346e-07
-1.36143e-05
2.96939e-07
3.04704e-08
-0.00182389
2.5064e-08
0.00121852
8.67727e-08
-1.73525e-09
5.50176e-05
-2.52714e-06
-1.19039e-06
-0.00550613
5.50477e-08
-0.00467674
-4.74014e-08
2.7145e-08
-0.00010252
-0.00725097
6.59691e-08
2.78883e-07
7.1852e-08
1.65545e-07
-5.26264e-06
5.18027e-07
-2.68223e-07
2.14173e-08
-1.02108e-07
1.32203e-07
2.67088e-07
2.19572e-08
1.35962e-08
2.39844e-08
-0.00280296
8.27836e-07
2.51009e-08
-2.20481e-06
-7.49493e-07
5.81754e-05
0.000485559
-1.44862e-06
2.61412e-07
9.68183e-08
-5.24341e-06
7.93071e-07
-4.60706e-08
6.53624e-07
-0.00174295
-0.00220548
6.60902e-08
1.92885e-08
-4.50223e-06
8.58703e-07
7.33739e-09
-0.00447518
-1.02858e-06
5.90675e-07
3.30859e-07
-1.73518e-06
2.40971e-07
1.16755e-06
-0.00379725
3.19378e-07
-0.00257607
-3.22417e-06
0.000218664
8.24988e-09
1.57392e-07
4.87891e-08
4.25512e-08
0.00237034
-3.00404e-08
-0.00355831
1.4465e-06
4.40732e-08
2.77573e-07
8.68461e-07
1.10594e-07
1.44623e-07
1.80897e-07
8.23508e-07
0.00263701
5.42251e-08
1.61954e-07
-0.00193912
1.60876e-07
2.19495e-07
-9.74306e-06
2.34402e-08
2.00347e-07
1.18558e-07
6.62777e-08
-1.37578e-05
1.64645e-07
-3.20908e-05
0.00333434
2.64814e-08
7.32135e-08
4.1776e-08
-1.58927e-05
2.99207e-08
8.15959e-07
5.82842e-08
-5.39623e-08
-3.95728e-07
-1.3718e-08
-9.54611e-07
1.20575e-07
-2.78398e-08
0.00038802
0.00501704
2.83821e-08
-6.25104e-09
1.9495e-08
0.00246736
3.11578e-06
1.36926e-07
0.000839811
0.00165639
-2.44035e-07
8.56893e-05
-0.00111804
4.73701e-07
-0.00211926
1.76561e-06
-9.30412e-06
1.01353e-07
2.23458e-06
-4.27208e-06
1.06559e-07
0.000573557
-0.00270811
-1.88689e-08
-0.00181795
-0.000807216
-5.00489e-08
-0.00189488
-9.1557e-08
-3.38194e-07
-8.89405e-07
4.40531e-08
0.00333873
-1.49432e-07
-2.29695e-06
5.97263e-07
-8.5941e-09
0.00226677
6.30432e-07
-1.22302e-08
-1.17089e-06
-1.66359e-07
-0.00211744
-0.0088731
3.35411e-08
-4.16098e-08
-0.00262802
9.65423e-08
-3.51322e-07
8.24132e-08
-0.00197176
0.00588048
-1.34882e-06
3.81753e-07
-4.34457e-07
-0.000383951
-0.00646035
-8.51813e-07
7.15701e-09
-2.12296e-08
-0.0111139
-0.00280081
0.00157628
6.39255e-07
7.44634e-07
-4.66763e-07
9.42388e-09
-1.06069e-07
6.28377e-08
7.91908e-07
1.30465e-07
2.01718e-08
-0.00451111
-1.28231e-05
8.14369e-09
0.000298072
8.30518e-07
-1.43381e-05
-0.00126164
1.53392e-06
0.00272684
-0.00229923
-6.18775e-08
7.98304e-06
1.82061e-05
-0.00278613
0.000618254
2.38116e-07
5.02346e-05
0.00168208
-2.87001e-07
4.54707e-07
0.000693074
0.000708978
4.99378e-08
-4.23716e-07
-2.83466e-07
1.16218e-07
-4.73928e-06
1.15275e-07
1.42712e-07
3.82916e-08
-2.08299e-07
6.48136e-07
1.91714e-07
6.70566e-07
-5.07163e-07
0.00302656
8.18092e-08
0.00296795
7.95059e-08
-6.42142e-07
2.37262e-07
0.0302554
0.00478865
9.37801e-08
-6.48225e-07
5.74367e-07
7.71327e-08
8.23294e-08
-3.42892e-08
-4.41312e-08
-2.66121e-05
2.29225e-07
-2.18862e-05
-8.45576e-07
3.23884e-09
-0.00405248
1.19618e-08
8.58793e-08
3.86198e-08
2.44368e-07
-0.00302279
-4.8632e-06
-0.00154241
0.00215084
0.00720948
2.12978e-07
7.58247e-08
2.66401e-07
-2.14339e-07
5.41116e-06
-4.79258e-06
-0.0146261
-5.19224e-09
-2.63303e-07
1.26784e-07
-3.79133e-06
-0.00409127
-3.88897e-07
-0.00285803
0.00328234
-8.37481e-08
8.37443e-08
7.14102e-08
-2.48582e-06
1.61643e-07
-5.7404e-06
-2.45956e-06
-1.46023e-07
-0.00155382
-0.00225267
1.77616e-07
-7.71236e-08
1.75416e-07
0.00814194
-4.22281e-07
1.41825e-07
0.00269298
5.79105e-08
-0.00861691
2.05042e-07
4.92014e-08
7.14358e-08
1.49131e-07
0.00333868
5.6079e-08
-0.00226182
-3.24429e-07
2.105e-07
1.01675e-07
-0.00234703
6.66875e-07
-0.0108479
4.24358e-07
1.02224e-07
5.71687e-07
-2.2877e-06
-6.47377e-08
3.40004e-07
0.00098497
9.30913e-08
-4.63517e-08
0.000201901
0.000759221
1.44505e-07
-1.23626e-07
1.43447e-07
5.67242e-06
1.03131e-06
4.50745e-08
0.00036427
8.80247e-07
-3.19576e-05
-3.79263e-05
1.64382e-07
6.24826e-08
-3.43586e-06
-2.56528e-08
8.77518e-08
7.09964e-08
-6.44112e-06
-0.00855882
4.78856e-06
5.35363e-08
7.10424e-08
9.84025e-08
-0.000815133
1.89911e-07
-1.14691e-07
8.28781e-08
2.52661e-08
7.06466e-05
0.0020442
0.00113935
9.53574e-08
0.0023959
6.9167e-08
-3.74176e-08
1.85869e-08
1.30359e-07
-9.3903e-07
3.36579e-08
-3.22677e-05
0.000902982
-0.00058132
-2.53642e-07
2.15288e-07
2.25891e-07
-5.11328e-07
1.70617e-08
1.05326e-07
8.19535e-07
2.81729e-07
1.26851e-07
5.39572e-07
2.56809e-09
2.26629e-08
-0.00174333
-2.46536e-06
-1.24163e-07
-8.50815e-08
-2.07577e-06
-6.82326e-08
0.00215886
1.24738e-07
1.35123e-07
1.75945e-07
1.29384e-08
1.90724e-07
1.43413e-07
0.000517058
-4.07926e-05
2.21257e-07
-1.95507e-08
1.02468e-07
-8.88565e-08
7.38948e-07
3.01827e-06
1.62037e-07
-0.000256104
1.30132e-07
3.38025e-07
4.80395e-08
-5.3449e-06
1.03798e-07
-0.00388851
7.55209e-08
2.54322e-07
6.92821e-09
-0.00884904
5.55868e-08
1.74046e-05
-0.0131693
4.3306e-07
1.21257e-07
7.51578e-08
1.05779e-07
1.37375e-05
-2.77097e-08
-2.6771e-07
-0.0106397
2.27501e-07
2.38502e-06
0.00076699
2.74842e-08
-9.09223e-05
4.71039e-07
-1.20393e-07
-8.693e-08
9.84908e-08
8.44671e-08
8.56617e-08
0.000713788
-5.40498e-06
3.50896e-08
0.000516656
-0.0069486
5.97204e-08
4.06372e-06
1.13834e-07
7.83156e-07
3.43839e-09
3.21551e-08
3.60848e-06
3.27224e-07
-1.19824e-07
5.1755e-07
2.11729e-06
-5.93105e-06
3.27943e-07
-4.54869e-08
6.04211e-07
-0.00537376
-0.00582103
-2.02215e-06
-6.73561e-07
2.2195e-07
1.12072e-07
0.000791344
8.00362e-07
-5.03852e-07
2.01747e-05
0.00243176
3.08051e-07
-1.7162e-06
5.21583e-07
3.73601e-07
6.06752e-07
-9.94852e-07
7.74486e-07
5.71829e-08
1.59647e-07
-3.09211e-07
-0.00197063
-2.21117e-05
-1.8731e-08
-4.75021e-07
-4.99537e-06
5.48117e-08
-8.63043e-07
2.17257e-07
2.79425e-07
4.0956e-08
9.83923e-06
0.00623867
2.35938e-06
3.89027e-07
3.96438e-06
-1.01965e-07
-3.14413e-07
1.56456e-07
8.27461e-08
2.45305e-08
-6.90319e-07
1.52559e-06
1.20825e-06
2.86526e-07
1.40226e-07
1.94755e-07
2.82652e-07
0.00389068
-4.53698e-08
1.13105e-07
2.57935e-07
0.000816138
0.000251088
1.91037e-07
-1.77445e-07
8.61559e-08
0.000264701
4.71494e-07
0.00158306
2.76289e-07
1.24329e-06
2.42754e-07
7.57757e-07
-2.665e-05
2.58067e-07
-1.05052e-06
1.29129e-07
4.23116e-08
1.21249e-07
5.90428e-07
0.00238935
6.0898e-07
1.47029e-07
0.00191869
6.33262e-07
5.96087e-07
9.20464e-08
4.11113e-07
-8.21591e-09
3.31978e-07
-0.00643948
8.50115e-08
4.71395e-08
-5.38731e-09
9.65294e-05
9.81406e-08
0.00269689
2.58207e-07
4.75868e-07
0.00492346
-0.00200687
-0.00101004
-6.27611e-07
-1.2031e-08
-0.00105729
3.23866e-07
-0.00455978
8.40498e-07
-1.04491e-05
-6.9072e-08
0.000247308
-0.00328112
-1.48087e-09
4.96683e-07
4.2071e-06
5.9399e-07
-6.37833e-07
-0.00312028
-8.86862e-09
-0.00101604
2.05262e-07
7.59111e-08
3.10331e-07
-6.42671e-07
3.60435e-07
8.53473e-05
1.67499e-07
3.7839e-08
3.92341e-08
6.98558e-07
8.86391e-08
-0.00336659
0.00672736
-0.0025979
3.40048e-07
9.93619e-07
-1.83622e-07
7.8331e-08
1.29933e-07
-1.9347e-06
-2.1393e-06
9.10587e-07
3.75166e-08
-0.00563734
3.14889e-07
0.000618217
-0.00264738
6.49672e-07
1.30909e-07
8.30913e-09
3.16012e-06
-0.000348364
4.61894e-07
9.92412e-08
-0.00202876
-4.52259e-06
-2.74809e-06
0.0172809
9.66752e-08
1.267e-08
2.65738e-08
6.2188e-08
1.70724e-07
0.000106274
0.00323015
-4.66665e-05
1.34823e-07
0.00347038
2.7508e-07
4.68581e-07
1.14657e-07
1.48342e-07
3.73373e-08
3.80258e-06
1.17977e-07
1.34568e-07
3.14953e-07
-8.03236e-11
9.70041e-08
-2.04518e-07
1.89217e-07
0.00059545
-6.73303e-05
-1.48245e-08
2.6637e-08
1.06633e-08
1.55045e-07
1.52887e-07
-1.03072e-05
1.12883e-07
8.20399e-08
1.5594e-07
-0.00104168
1.16135e-07
3.9318e-07
-0.00175474
7.48565e-08
9.64039e-08
0.00124266
-6.74613e-08
3.23544e-08
7.49996e-08
0.0334133
-7.57194e-05
8.43381e-08
2.91418e-07
4.40503e-06
6.57609e-07
-4.53535e-08
-4.38555e-08
1.22056e-07
-4.03187e-06
1.1236e-07
1.10349e-07
-2.31146e-06
2.52729e-07
-0.00426709
-2.27631e-06
-3.16438e-07
9.4476e-08
-0.00161156
-1.26442e-06
3.35323e-07
3.75065e-08
-9.43088e-09
2.25306e-07
1.55318e-07
0.00038045
-1.92771e-08
-2.22669e-05
9.27441e-08
5.68257e-07
0.0459213
4.92816e-08
-0.0205099
-6.73785e-06
1.28169e-07
-0.00789576
6.5446e-08
-1.81225e-08
9.06746e-08
2.56702e-07
8.78143e-08
2.46993e-07
3.0474e-07
4.43737e-07
5.62761e-05
2.66653e-07
-3.30333e-08
1.40835e-07
6.14843e-08
9.90124e-08
1.03846e-07
4.16744e-08
-9.14619e-08
8.46542e-08
2.32182e-07
-1.85751e-08
1.07027e-07
3.65126e-07
0.000885264
3.57434e-07
-4.20537e-09
-4.21658e-05
-0.00275175
1.30297e-07
-1.57251e-06
2.7478e-08
-8.44432e-07
1.16389e-07
5.14884e-07
0.000620107
-0.0026358
6.70482e-08
7.41592e-07
0.00316884
4.27096e-07
5.18816e-05
-0.0122313
1.70819e-07
0.00886576
2.16983e-07
-0.0101544
5.31767e-07
0.000371029
-5.54168e-06
0.00242146
2.04861e-08
5.8126e-08
-1.03682e-06
5.98483e-07
1.21999e-06
6.69564e-07
-0.00509106
0.00238777
5.19998e-08
-0.00586688
-0.000631396
-7.10821e-07
-3.39541e-08
9.72968e-07
7.49955e-07
2.86928e-07
1.28398e-08
-4.19007e-06
-2.55802e-08
2.02217e-08
1.01527e-07
1.70006e-08
6.91492e-08
0.000499733
-7.25806e-08
1.50573e-07
7.69915e-08
-0.000488941
1.23559e-07
1.67011e-08
0.0370286
0.000897145
0.000229225
-3.66049e-08
1.09582e-08
1.29658e-07
-1.57673e-06
2.48428e-09
3.83723e-07
-0.000922097
9.79626e-07
3.0566e-06
-2.0973e-07
-0.000993624
-3.21184e-06
-9.11993e-06
0.00234936
0.00835576
8.82047e-08
1.06298e-09
4.42603e-08
-0.00356036
7.71627e-08
5.43445e-09
1.05534e-07
8.16527e-07
-0.0203322
0.00145136
-1.30963e-07
-4.18976e-06
0.00140732
-4.02094e-07
-0.000853842
-0.000392572
-0.000121764
-1.86928e-06
0.00261969
0.000177144
4.24665e-08
4.63837e-08
8.23182e-08
-0.00424482
-1.02525e-05
7.31657e-05
6.72278e-08
1.29996e-07
2.79869e-08
0.0063301
9.39476e-08
-4.78936e-08
4.05901e-08
1.11265e-07
-2.93293e-08
6.07161e-08
1.3118e-07
9.38738e-07
-1.89918e-06
1.35849e-06
7.05236e-08
8.51918e-08
0.00823748
2.09368e-06
-7.44683e-07
8.15655e-08
-1.61112e-05
0.000832136
5.07157e-07
6.13127e-07
0.0411068
-1.14444e-07
-2.19555e-10
-5.05443e-08
3.36767e-07
9.56453e-05
-5.84444e-09
2.37919e-07
3.89043e-08
4.35823e-07
2.09139e-07
8.25893e-08
3.40208e-08
1.75119e-07
3.2003e-07
-0.000475309
3.20767e-08
1.42765e-08
1.63618e-05
-6.53877e-07
-2.40554e-05
-4.35056e-06
-1.92961e-08
-0.00405037
8.15119e-08
4.33584e-06
4.25348e-08
0.00315536
-1.48369e-07
9.48699e-08
-4.74794e-08
0.00179766
8.3396e-08
1.20363e-07
4.15208e-06
9.1358e-08
-5.24792e-08
5.30948e-08
-6.09126e-09
-3.01165e-07
-6.55327e-08
-0.0100344
1.73692e-07
8.9083e-05
4.34721e-06
2.66374e-07
-1.48395e-06
-6.56781e-09
-1.59259e-07
1.05408e-07
-0.00702313
-6.24051e-07
-2.12218e-05
-1.14034e-05
3.24459e-06
-6.83576e-07
-0.000177824
1.49005e-07
2.9825e-07
-1.2795e-07
0.0308514
0.00184597
2.651e-09
-1.98404e-06
9.68614e-08
-2.78503e-08
-0.00144162
-1.78251e-07
2.62608e-07
-0.0021548
2.93575e-06
-0.00547803
2.01925e-07
4.33521e-08
-4.84301e-05
-3.76041e-08
-1.33155e-06
2.65079e-06
-1.57821e-09
-1.37187e-05
-2.09547e-06
0.000586764
1.00321e-07
6.10804e-07
3.18731e-08
-4.32524e-07
-1.21629e-05
2.21863e-07
-7.08411e-09
1.96445e-06
8.18013e-08
5.58992e-05
3.8261e-07
6.82725e-07
8.5452e-08
0.00404376
4.59478e-08
8.25636e-07
-0.0037377
-5.04565e-05
8.32999e-08
0.00100054
7.74593e-07
2.39726e-07
1.84943e-07
-1.32861e-07
-1.1401e-07
-3.43562e-07
0.000772606
-7.98644e-08
-1.44575e-07
8.84198e-07
-3.49054e-08
-7.83598e-08
9.54903e-08
-5.98078e-07
4.20305e-08
-4.15959e-07
9.18987e-07
4.39213e-07
-0.0123372
-4.36048e-08
9.32687e-07
9.11458e-07
9.59346e-07
8.25332e-08
-0.00150297
-2.55214e-05
-0.0093964
7.15541e-06
-4.09295e-06
-2.2334e-07
5.42907e-07
0.00167449
0.0134322
0.000799628
-0.00129833
-0.00204358
1.69266e-07
0.00187484
-0.00876291
5.82627e-07
0.000364002
3.66358e-07
0.00120737
0.000423452
-0.0136752
4.84024e-07
-2.00098e-07
1.15816e-06
1.03626e-07
1.98268e-07
-0.00121718
-0.0127653
1.24048e-07
1.02709e-07
-3.88604e-07
-0.0227572
-1.59605e-07
-1.23124e-07
1.17168e-07
2.13729e-08
9.35017e-09
0.000228956
1.30379e-07
-1.26281e-08
2.76838e-07
-1.46849e-07
0.000201267
0.0155843
2.85576e-07
-1.22326e-07
6.66006e-07
2.45273e-07
-1.38383e-08
3.49035e-08
0.00207453
1.35968e-07
-6.50781e-07
5.04099e-08
3.53508e-07
1.0623e-07
3.44494e-07
-0.0109244
0.000233149
-6.61891e-08
7.8588e-07
0.000132275
-0.0079624
9.88428e-07
-0.00360254
2.62636e-07
-3.81775e-08
7.93008e-08
-4.78895e-08
-8.88808e-08
-5.31668e-08
4.55645e-08
1.03575e-07
4.72129e-07
0.000166611
1.09585e-07
-0.00163561
0.0108417
-4.2838e-07
-4.73876e-07
1.36065e-06
4.31828e-07
4.63691e-08
7.15169e-08
4.72386e-07
-2.38204e-07
0.000985229
-1.62673e-07
-3.3266e-07
0.000112789
6.99324e-08
9.43895e-08
2.16581e-08
-0.00413565
1.16265e-07
8.08645e-08
0.0147362
8.43711e-08
3.7472e-09
-1.07553e-07
-2.73999e-05
1.22459e-07
-5.85803e-08
7.49833e-08
-3.25563e-08
0.00117046
-2.15119e-05
-1.94711e-08
-0.000682883
-9.07042e-08
1.93587e-07
1.21724e-07
-0.00125724
0.00350938
-4.12948e-08
-5.95492e-07
9.6849e-08
9.5382e-08
-1.39344e-07
4.51822e-08
0.000154535
0.00146379
2.41836e-07
4.0438e-07
1.56128e-06
-9.25819e-09
-9.11752e-08
8.84562e-08
7.83308e-07
0.0100172
2.88285e-07
8.34719e-07
0.00225916
9.88222e-08
-9.40755e-08
-0.00279097
2.89585e-06
5.69836e-08
-4.84642e-08
-7.55475e-07
-2.13897e-07
-1.1291e-08
-0.00075376
-6.68331e-08
0.00264584
0.000892042
8.12023e-08
-1.09032e-07
0.000180749
1.35961e-06
4.18498e-05
0.000619313
0.000443261
9.47075e-07
9.3881e-08
-1.17012e-07
-5.4156e-05
2.84337e-08
-3.89e-05
-3.84878e-08
-3.70788e-08
-1.28669e-08
-4.36618e-08
9.65742e-08
0.000268143
7.23562e-07
-0.00256242
-0.00103142
-5.84549e-06
-0.00913934
-4.37591e-08
2.19905e-08
-4.34513e-08
-0.00139866
7.77966e-08
-0.00196033
7.24835e-06
-3.23636e-08
1.11962e-09
-0.000518513
-3.51497e-08
4.34183e-05
-0.00263572
4.92324e-08
-9.90129e-05
4.25377e-07
-0.000264788
1.03941e-06
8.53092e-08
-2.47528e-08
4.43284e-05
3.04564e-06
-9.72656e-08
2.79e-07
4.23132e-08
-9.26411e-07
1.21899e-08
-0.0013282
-1.38739e-07
-2.44531e-07
-5.4979e-07
-6.22189e-08
-0.000664368
7.44466e-08
4.90189e-08
-3.90988e-07
0.0024831
-8.82694e-08
-8.8819e-09
0.0120119
1.01419e-06
-0.00137323
-7.89365e-07
-6.46054e-08
-5.17428e-06
-0.00227657
0.00252809
0.020781
-1.44142e-08
4.6602e-09
6.74772e-07
1.0971e-07
6.98164e-08
3.9242e-07
-3.21639e-07
9.16168e-10
-1.57472e-06
1.35692e-08
-1.73162e-08
-3.78827e-08
6.19795e-07
-2.77848e-08
2.96425e-07
-1.72222e-05
2.2613e-05
-0.000343968
3.55193e-05
9.46778e-05
0.0026155
-3.35379e-08
2.7327e-10
4.02264e-07
5.57445e-08
2.21089e-08
-9.24678e-07
4.54217e-09
-1.57096e-07
9.03385e-08
-3.18346e-06
1.60124e-07
5.77633e-06
9.0973e-08
1.47852e-07
0.000693679
9.40679e-07
-9.08258e-07
6.24459e-08
2.07634e-08
0.00401295
-1.40668e-05
5.6347e-07
9.12393e-08
-2.01945e-06
-2.52803e-08
1.02069e-07
-3.48603e-08
-0.000194375
2.70661e-09
2.62325e-08
0.000293572
-7.95566e-08
-1.46063e-06
-1.12334e-07
-5.02414e-08
2.06966e-07
-4.28198e-06
-7.17135e-06
0.00208049
0.00872646
1.23681e-07
-1.29117e-07
1.10967e-07
9.79399e-08
2.68842e-05
1.27044e-07
-0.0021027
-0.00294548
7.45707e-07
-8.03852e-05
0.000243286
1.0608e-07
-0.00336096
1.37831e-06
-0.0163767
-6.38164e-06
8.52082e-08
1.07443e-07
3.30383e-07
5.15299e-08
2.18983e-06
0.00683737
4.80043e-06
-1.35048e-07
-7.28128e-10
2.76301e-08
7.07593e-06
7.67775e-07
0.00118089
6.61059e-09
-3.02526e-07
4.47664e-06
-2.17971e-07
0.000426622
5.95009e-06
9.93152e-09
3.89648e-07
-3.89726e-08
-4.58415e-07
0.000376655
7.60278e-06
1.93239e-08
-9.86326e-08
-2.87331e-09
5.89702e-05
5.40848e-08
-1.89438e-07
-0.0337521
0.000103033
0.00308583
9.16331e-05
0.000743856
9.44698e-08
-2.69416e-07
2.00455e-07
-1.43439e-07
-4.00567e-08
0.000103446
-6.96599e-08
-2.03013e-07
-6.92644e-06
4.30108e-08
4.63372e-07
-0.00187369
-5.11401e-07
-2.7958e-07
-6.74632e-06
-0.000959134
-7.34699e-09
6.13329e-08
5.23171e-07
0.000554488
2.45798e-06
-0.0112063
-2.94814e-05
0.00276251
-9.9646e-09
9.8443e-05
3.36178e-06
3.07058e-07
0.00175951
-7.1944e-06
0.00725586
0.000149422
0.0058612
-1.38695e-08
1.58391e-08
-1.29769e-08
1.99148e-07
-4.24553e-06
8.81477e-08
-8.05475e-07
1.63702e-07
2.38174e-07
1.47004e-07
0.00257353
8.34626e-08
0.000180776
-8.13615e-07
-1.4313e-05
4.99025e-05
3.90934e-05
-0.000422637
-2.61191e-08
9.76439e-07
1.85241e-07
-0.000228147
2.78361e-07
-3.43907e-05
-0.0034075
-1.05641e-05
0.000347776
6.6331e-08
-0.00188893
2.32061e-08
-6.1962e-06
2.10952e-07
-0.00309664
4.51565e-07
-2.36217e-09
1.06025e-07
-0.0014108
4.98478e-07
0.000175549
3.91226e-07
5.87924e-07
-1.92317e-06
4.31e-08
-1.77903e-08
-0.00521562
4.11372e-06
-0.0027079
-0.0015569
1.21726e-07
-6.56238e-05
0.00357411
-1.40233e-08
7.59941e-08
1.22001e-05
-0.00197301
8.48443e-08
-3.82586e-07
-2.68863e-09
0.00226981
0.00623845
0.00166409
4.42015e-06
5.72564e-08
7.4187e-08
2.87743e-07
3.84391e-08
7.55391e-06
-1.44197e-07
1.72821e-07
1.2701e-07
0.000116438
-1.33059e-07
-2.7676e-07
-3.43088e-05
0.00129745
-4.35196e-05
-9.26178e-07
1.1539e-05
-4.16185e-06
-0.0115936
1.00928e-07
0.000302769
8.02053e-08
-1.11182e-06
0.000735203
3.51401e-07
0.000280667
-3.97947e-08
-3.75437e-07
1.25591e-07
4.05212e-08
-3.12545e-09
1.31874e-07
-5.06092e-09
3.91804e-05