/*--------------------------------*- C++ -*----------------------------------*\
| =========                 |                                                 |
| \\      /  F ield         | OpenFOAM: The Open Source CFD Toolbox           |
|  \\    /   O peration     | Version:  v2012                                 |
|   \\  /    A nd           | Website:  www.openfoam.com                      |
|    \\/     M anipulation  |                                                 |
\*---------------------------------------------------------------------------*/
FoamFile
{
    version     2.0;
    format      ascii;
    class       volVectorField;
    location    "250";
    object      U_0;
}
// * * * * * * * * * * * * * * * * * * * * * * * * * * * * * * * * * * * * * //

dimensions      [0 1 -1 0 0 0 0];


internalField   nonuniform List<vector> 
9793
(
(1.08667 -0.122829 0)
(0.958134 -0.187223 -1.59326e-21)
(1.07993 -0.129108 -6.41236e-21)
(1.01527 -0.00106557 0)
(0.848605 0.0206503 3.293e-20)
(1.00388 -0.00488263 1.02478e-21)
(1.01081 -0.000313305 0)
(1.01349 -0.00179301 0)
(1.03574 3.79052e-05 8.55441e-22)
(0.94516 -0.041741 3.27717e-20)
(1.11321 -0.00737706 0)
(0.812672 0.0651045 2.38288e-21)
(1.01514 -0.00098234 0)
(1.01878 0.00084378 2.34989e-21)
(1.00299 -3.51351e-05 -1.24626e-21)
(1.0177 0.000234866 -1.41795e-21)
(1.02459 -0.00885562 1.29961e-21)
(1.02596 -0.0103299 1.20573e-21)
(0.979056 -0.219878 8.60669e-21)
(1.01852 0.000189305 0)
(0.905582 -0.0699914 -1.12658e-21)
(1.03357 -0.0323821 0)
(0.877787 0.0185146 -2.52933e-22)
(1.01646 0.000255075 7.23242e-23)
(1.026 -0.00445129 -5.58646e-22)
(1.01513 -0.000801418 -9.47198e-23)
(1.01702 -0.00129732 0)
(1.02167 -0.00225919 1.40542e-21)
(1.1038 -0.0414202 0)
(1.03513 -0.000358543 -6.59406e-22)
(0.976552 0.0278077 -8.55446e-21)
(0.894804 0.0218835 0)
(1.03811 0.194887 -1.1391e-20)
(1.00685 3.56089e-05 0)
(1.1077 -0.0490415 -4.35527e-21)
(0.883615 -0.102949 3.33397e-22)
(1.00875 -1.26929e-05 0)
(1.03143 -0.0325192 4.09783e-21)
(1.01364 -0.00269142 0)
(1.01045 -0.000199738 6.46783e-22)
(0.98174 0.0295547 4.12561e-21)
(1.005 -6.83961e-05 -1.17699e-21)
(1.01378 -0.000548846 -1.58799e-22)
(1.01044 -0.000248801 -7.87448e-22)
(1.01317 -0.000496269 9.90551e-23)
(1.01469 -0.000646257 1.27261e-22)
(1.10814 -0.0423619 4.9458e-21)
(1.0091 0.0661929 -2.52156e-22)
(1.00043 0.11482 9.44713e-22)
(1.01519 -0.00116229 1.3169e-23)
(1.11115 -0.0508239 -8.90969e-21)
(1.11912 -0.0129744 0)
(1.00252 -0.0112523 1.16414e-21)
(1.0343 -0.00836738 -1.81921e-22)
(1.20829 -0.0474103 -1.30908e-20)
(0.757295 -0.0970608 0)
(1.02579 0.00135173 -3.1091e-21)
(1.11318 0.0118816 0)
(0.917694 0.243853 0)
(1.01357 -0.00247313 8.82289e-22)
(1.00872 -0.00015396 0)
(1.00487 -0.0177186 0)
(0.91581 0.194224 -8.31253e-21)
(1.01727 -0.000558341 -9.19126e-22)
(0.618947 0.213549 2.2093e-20)
(1.04645 0.148065 -6.05279e-21)
(0.9268 0.188622 5.10836e-21)
(0.951324 0.16081 -6.17131e-22)
(0.839667 0.0716535 0)
(1.11255 -0.0101569 0)
(1.20763 -0.0609524 -1.25354e-20)
(1.01289 0.00017191 3.30517e-23)
(1.01653 -0.00437813 0)
(1.03766 -0.0823692 0)
(1.11355 -0.0572865 0)
(0.923554 0.244313 0)
(1.02636 0.000718276 7.00164e-22)
(1.01813 -0.00562468 2.36344e-23)
(1.02108 0.00974768 0)
(1.02342 0.000301287 0)
(1.02833 0.159094 0)
(1.01552 0.00950338 1.00566e-21)
(0.92984 -0.20881 5.76023e-23)
(0.998373 0.0470673 -4.0011e-23)
(0.985567 0.0223718 7.75386e-22)
(1.00221 0.0604709 -5.81033e-22)
(1.02503 0.000266723 2.54484e-21)
(1.02691 8.89943e-06 -5.28488e-21)
(1.00781 -0.0154693 -2.06049e-22)
(1.01083 0.008844 -1.09644e-21)
(0.967172 -0.186207 6.483e-21)
(0.809527 0.0958767 0)
(1.00981 -6.62528e-05 -1.50884e-21)
(0.897645 0.0397578 0)
(1.00682 -0.0174482 2.3489e-22)
(0.991871 0.0462035 4.01223e-23)
(0.791565 -0.0808946 0)
(0.938601 -0.203973 4.43591e-22)
(1.01014 -0.000249235 0)
(1.01172 0.00176454 -2.65823e-21)
(1.01196 0.00188808 -8.04951e-22)
(1.00759 0.0018378 0)
(1.01284 -0.00258777 -9.16541e-22)
(1.01283 -0.00230054 -1.80953e-21)
(1.01882 -0.00482831 0)
(0.99026 0.022835 0)
(1.00941 -0.0155871 0)
(1.00931 -0.000178206 -1.42045e-21)
(1.00463 -0.0115159 0)
(1.03936 0.0707882 0)
(1.01202 8.49147e-05 0)
(0.871275 -0.0240855 0)
(1.0237 0.00125373 0)
(0.787608 -0.149164 3.85722e-21)
(1.121 -0.0167813 -7.19813e-21)
(1.02639 0.00114305 1.75804e-21)
(1.08042 0.107273 1.52704e-20)
(1.11039 -0.0617759 1.6453e-20)
(1.0162 0.0115887 0)
(0.913368 0.0420621 0)
(1.03147 0.0830639 1.87921e-21)
(1.00606 6.45099e-05 -1.70655e-23)
(1.02424 -0.00348359 0)
(1.00233 -0.00332329 -3.09576e-21)
(1.04104 -0.0126642 5.98391e-21)
(0.897118 -0.0600694 -4.06383e-22)
(1.09648 0.00182066 -1.54098e-20)
(0.994352 0.062212 -1.05897e-22)
(1.02265 0.0115633 -1.50854e-21)
(1.01809 -0.00459225 0)
(1.01125 9.13834e-05 9.81984e-23)
(1.02702 0.000444449 -5.67164e-21)
(1.01806 -0.00475086 0)
(1.0072 -0.00459224 -1.13467e-21)
(1.03411 0.000140774 7.24955e-22)
(1.02737 -0.000760376 -1.2329e-22)
(1.01661 -0.000418658 9.39949e-22)
(1.01062 -0.000238187 -1.42678e-21)
(1.0233 0.00109105 3.8307e-22)
(1.0134 0.000551995 0)
(1.02373 -0.00338798 -1.90064e-21)
(1.02435 -0.00610083 -1.0757e-21)
(1.01357 -0.000598369 -8.07062e-22)
(1.01317 0.00312193 9.03849e-22)
(1.01974 0.000998539 -1.50327e-21)
(1.02202 0.000457889 7.07807e-24)
(1.0014 -0.0831462 1.26132e-22)
(1.01289 0.00307054 -7.90194e-22)
(1.01059 -0.00126772 1.71873e-21)
(0.747752 0.125196 0)
(1.05941 -0.365495 1.05576e-20)
(1.01086 7.04422e-05 -1.43862e-24)
(1.08068 -0.34888 0)
(1.05378 -0.136159 -1.73118e-20)
(1.01084 -0.00124476 -2.60699e-21)
(1.00899 0.000171994 2.71589e-23)
(1.01209 0.000241172 0)
(1.02306 -0.00618372 1.69273e-21)
(1.01247 0.00252828 1.45855e-21)
(1.01356 -0.000582625 5.63347e-22)
(1.01347 -0.00187588 7.92221e-22)
(1.02147 -0.00323397 0)
(1.01529 -6.4528e-05 1.68085e-21)
(0.96237 -0.199966 0)
(1.01762 -0.096761 0)
(0.901689 -0.0837367 0)
(0.999955 0.0692529 7.08911e-22)
(1.05925 -0.0395602 -5.14293e-21)
(1.01634 -0.000882639 7.45194e-22)
(1.01016 0.000559259 0)
(1.01714 -0.00142586 -6.4554e-22)
(0.813437 -0.0325547 0)
(1.00988 -0.108176 8.77496e-22)
(0.808155 -0.083329 -1.15696e-20)
(1.04097 -0.0104104 0)
(0.977812 -0.20663 -8.43292e-21)
(1.02751 -0.000296939 -1.32725e-22)
(1.01661 0.000361658 1.28835e-22)
(1.01776 -0.00534754 -6.57813e-22)
(1.07888 -0.0211571 5.91756e-21)
(0.2397 -0.0310178 -8.2332e-21)
(1.05298 -0.00282658 9.66688e-22)
(1.01217 0.00241576 3.0981e-21)
(1.0247 -0.00477663 -1.1499e-21)
(0.930496 0.255376 -1.22455e-20)
(1.01649 -0.00412336 -2.70529e-23)
(1.11172 0.0140761 0)
(1.01753 -0.00517752 2.04752e-22)
(1.02328 -0.00443903 -1.69899e-21)
(1.0157 2.98939e-05 -1.92761e-22)
(1.04167 -0.00959423 0)
(1.02042 -0.000153287 0)
(1.01397 0.111917 -5.58566e-22)
(0.880939 -0.036998 0)
(0.93035 0.172113 1.49595e-21)
(1.07712 -0.0202581 -1.54414e-20)
(1.08129 -0.165715 3.40267e-21)
(1.01237 0.00315434 2.15722e-21)
(1.07497 -0.18202 0)
(1.01327 0.000511373 0)
(1.03359 -0.000175401 0)
(0.951644 -0.17784 0)
(0.755688 -0.121382 2.92219e-21)
(1.01841 -0.00440484 0)
(1.02797 -0.0011314 3.21215e-21)
(1.01798 -0.00371008 0)
(0.887799 -0.0883592 0)
(1.01643 0.00256673 1.62659e-21)
(0.993037 0.0170638 0)
(1.04906 -0.0159334 -4.97171e-21)
(1.08301 -0.0338301 -3.56586e-21)
(1.04579 0.0932833 0)
(0.968428 0.128277 2.11252e-22)
(1.03529 -0.00859075 -5.07211e-21)
(1.08059 -0.176881 3.38501e-21)
(1.01234 0.000250908 0)
(1.00932 -0.00182543 0)
(0.947337 0.240811 2.12015e-20)
(1.01838 -0.00315622 0)
(0.873925 0.210168 0)
(1.11345 -0.0887565 -4.50624e-22)
(1.02531 -0.00192677 9.3006e-23)
(1.04186 -0.0117686 4.61237e-22)
(1.02027 -7.21319e-05 1.53268e-23)
(0.992093 0.0547883 -1.33182e-21)
(0.96074 -0.189351 0)
(1.00369 -0.00714359 -6.77081e-22)
(1.01121 -0.00153908 -8.74555e-22)
(1.11762 -0.0819135 -9.5642e-21)
(1.10875 -0.0156795 6.58616e-21)
(1.0168 -4.8581e-05 -8.68226e-23)
(1.0166 0.000263182 -8.13286e-23)
(1.05427 -0.0024624 4.52522e-21)
(1.013 0.000416487 0)
(1.10174 -0.00197063 1.28596e-20)
(0.879574 0.196033 0)
(1.02295 0.000581994 0)
(1.0169 -0.00203627 0)
(0.799972 -0.0594169 -2.21379e-21)
(1.01023 0.00454962 9.70611e-22)
(0.996891 0.0173174 1.25354e-21)
(1.01892 0.00217388 1.63738e-21)
(1.01713 -0.00211943 9.924e-24)
(1.03932 0.182099 1.20637e-20)
(1.01661 -0.00229793 -1.08857e-21)
(1.01047 -0.000808916 -4.29234e-24)
(1.01338 -0.00165572 0)
(1.02237 -0.00726421 5.39034e-22)
(1.01018 -0.000756297 9.27668e-22)
(1.00782 2.86603e-05 0)
(1.0271 -0.0163131 -1.82016e-21)
(1.0624 -0.0208466 1.5686e-20)
(1.11801 -0.0200228 0)
(1.09916 -7.46294e-05 0)
(1.01653 -0.00228467 0)
(1.02475 -0.0376131 0)
(1.01652 -0.00202696 8.46692e-22)
(1.06379 -0.0222101 -1.28902e-20)
(1.00859 0.00553607 -3.30475e-21)
(1.01555 0.00278866 7.69873e-24)
(0.989777 0.193358 2.36841e-21)
(1.01666 -0.00225696 1.17931e-21)
(1.11915 -0.02427 6.65433e-21)
(1.00862 0.000102196 7.13871e-22)
(1.06211 -0.0403577 5.32743e-21)
(1.01729 -0.00135139 0)
(1.01752 -0.00111818 -5.80148e-23)
(1.08201 -0.0368592 -1.20599e-21)
(0.941763 -0.177758 0)
(1.01072 -0.0135841 -3.50697e-23)
(1.01539 0.0030277 0)
(1.01439 0.00114521 0)
(1.03725 -0.0524683 5.20529e-21)
(1.02597 -0.00142017 -6.0954e-22)
(0.993683 -0.163501 0)
(0.988893 -0.160888 -6.00549e-22)
(1.01838 -0.00461149 0)
(0.872015 -0.0504921 -2.03332e-22)
(1.01963 -0.000394024 0)
(1.09832 0.00163433 0)
(1.02121 -0.0071173 2.63317e-22)
(1.01729 -0.000404107 -1.62646e-23)
(1.00787 -0.0001037 -1.38631e-21)
(1.01054 -0.000211815 -6.79887e-22)
(1.09576 0.00311087 0)
(1.02521 -0.00222491 -1.28513e-21)
(1.02609 -0.0163902 -1.54397e-21)
(1.06261 -0.034037 0)
(1.01251 -0.000433538 -1.5395e-21)
(1.02781 -0.00160597 3.26092e-21)
(1.02334 0.000750809 -4.55059e-22)
(1.07012 0.140649 0)
(1.00768 -0.0103454 0)
(1.00875 -0.000169048 1.17842e-21)
(1.01077 6.5937e-05 0)
(1.00659 -0.00323616 0)
(1.04027 -0.0174216 2.52258e-21)
(1.06449 -0.0350405 1.36845e-20)
(1.01918 -0.000832195 2.34565e-21)
(0.892308 -0.223901 -1.70716e-21)
(1.01103 -0.00162997 0)
(0.90315 0.243936 -7.25715e-21)
(0.979967 0.0789019 -1.23978e-20)
(1.00769 -2.45623e-05 1.48415e-21)
(1.00967 -0.000223118 0)
(1.0143 0.00339759 -2.02421e-21)
(1.03691 -0.055557 5.60147e-23)
(1.04938 -0.0367635 2.47912e-21)
(1.01942 -0.00751757 -1.23204e-21)
(0.913226 0.245727 0)
(1.01924 -0.000328722 -1.58525e-21)
(1.01445 0.00320915 4.94905e-22)
(1.04845 -0.0386106 2.76658e-22)
(1.02244 -0.0186245 1.41435e-22)
(1.02793 -0.0115271 3.32273e-21)
(1.01106 0.00712147 -5.62496e-22)
(0.999183 0.0542464 0)
(1.0181 -0.002831 -1.41788e-21)
(1.04104 -0.0481233 0)
(1.05064 -0.0157783 -1.51235e-21)
(1.01671 -0.0026192 0)
(1.0319 -0.0945011 0)
(1.04112 -0.199983 5.88168e-21)
(1.03092 -0.0756888 -1.97408e-22)
(1.01801 -0.00238855 -1.56482e-22)
(0.337938 -0.0324816 0)
(1.0395 -0.019942 3.18205e-21)
(0.914821 0.235132 -7.60377e-21)
(1.11556 -0.0685918 -1.37017e-20)
(1.01468 0.000724347 -1.18059e-21)
(1.06281 0.00102249 -1.48824e-20)
(1.11238 -0.074143 3.89901e-21)
(1.00853 0.000965285 -2.21021e-21)
(0.99879 0.0125831 -1.25832e-21)
(1.11944 -0.00684698 -5.06436e-21)
(1.01318 -0.001433 0)
(1.01363 -0.000531397 -4.70162e-23)
(1.03272 -4.80147e-05 -2.74184e-21)
(1.00936 0.000111926 9.36972e-23)
(1.02267 -0.00187092 -1.24084e-21)
(1.09366 -0.145423 -7.70368e-21)
(1.01736 -0.00528506 -6.24556e-22)
(1.01647 -0.00250781 -7.19484e-22)
(0.885028 -0.220747 6.77942e-21)
(1.00945 0.0033728 -3.06352e-21)
(1.0173 -0.000159336 -1.61424e-21)
(1.01747 -0.00199494 2.03231e-22)
(1.03353 -0.0254364 1.23906e-21)
(1.01326 -0.00156456 -1.16294e-21)
(1.09601 -0.156825 -8.41809e-21)
(1.04081 -0.0149954 -3.27781e-21)
(1.02613 -0.00540089 7.94424e-22)
(1.02209 -0.0155105 0)
(1.00816 0.0032329 2.21961e-21)
(0.78383 0.061845 0)
(1.03384 -0.00752935 1.48571e-22)
(0.986676 -0.053361 4.40869e-22)
(1.01673 0.000240811 -7.87999e-23)
(1.09697 -0.0246589 0)
(1.21931 -0.0687457 -8.81369e-22)
(1.11517 0.0148964 8.44188e-21)
(1.09965 -0.0246738 -8.07567e-21)
(1.03197 -0.024419 0)
(1.00487 -0.00612554 0)
(1.06712 -0.190352 -6.61118e-21)
(1.0085 -0.000151245 8.58012e-22)
(0.984102 0.189157 0)
(1.01236 0.00661015 0)
(1.01286 0.000414403 -9.00918e-22)
(1.01127 0.0428922 0)
(1.00183 0.0125724 0)
(1.03838 -0.210644 -7.74094e-21)
(1.02627 -0.00511516 0)
(1.1036 -0.00197756 -1.42077e-20)
(0.892851 -0.112565 1.09674e-21)
(1.02827 0.00693734 1.84607e-21)
(1.01651 -0.00383503 -9.41915e-23)
(1.05304 0.171448 0)
(1.07384 -0.0129405 3.39838e-21)
(1.0109 -0.086412 0)
(1.02722 -0.0377057 0)
(1.03375 -0.00596587 4.65728e-21)
(0.96038 0.165404 -1.67047e-20)
(1.01905 -0.000751308 -1.16247e-21)
(1.0384 -0.0225687 2.21363e-21)
(1.00783 0.000100818 1.0818e-21)
(1.00966 -0.00017726 8.06385e-22)
(1.01767 -0.000949065 1.54135e-21)
(1.03441 -0.0067553 0)
(1.02832 -0.0351051 -8.58898e-22)
(0.782911 0.0567143 0)
(1.0396 -0.00802303 1.1967e-20)
(0.235929 0.282196 8.18613e-22)
(0.908286 0.0921656 -1.06334e-22)
(1.05543 -0.187993 -5.85923e-21)
(1.10751 -0.0126994 2.37418e-21)
(1.02078 -0.0585143 0)
(1.01003 -0.000144812 -6.67295e-22)
(1.03242 0.000328896 -1.65504e-21)
(1.17609 -0.172022 -1.7749e-20)
(0.918642 0.0997869 0)
(1.01888 0.00280379 -1.6848e-21)
(1.04445 -0.000453273 -1.24592e-20)
(0.879437 -0.18858 4.4961e-22)
(1.01432 0.00114883 1.43865e-21)
(0.811476 -0.152868 1.67785e-21)
(1.01691 -0.00194143 -7.17835e-22)
(1.0306 -0.0350848 -2.86453e-21)
(1.01416 0.00121233 -2.83162e-21)
(1.08336 -0.0430103 1.05098e-21)
(1.01716 -0.00508395 3.40843e-22)
(1.07561 -0.0138647 0)
(0.882183 -0.0627667 -2.47305e-21)
(1.01629 0.00288866 -1.73776e-21)
(0.874837 -8.15918e-05 2.97893e-22)
(1.02275 -0.0221808 0)
(1.0414 -0.0164493 9.06757e-22)
(1.02568 -0.0212022 -1.19894e-21)
(1.01232 0.00523431 0)
(1.01073 -0.0148616 0)
(1.02219 0.00163025 1.63998e-21)
(0.977283 -0.151694 -1.82323e-21)
(1.01961 -0.000432877 9.86409e-22)
(1.02803 -0.0121885 4.1355e-21)
(1.12113 -0.00998085 3.99469e-21)
(1.03355 -0.00447978 6.04211e-22)
(1.01029 0.00708885 -1.6359e-21)
(1.04078 -0.0189744 -3.46919e-21)
(1.01495 0.000221402 -1.5022e-21)
(1.07982 -0.0235473 0)
(1.01316 -0.000472741 0)
(1.02714 -0.0127843 -2.42265e-21)
(1.01395 0.00143949 -1.31847e-21)
(0.886916 -0.0924687 -2.04744e-22)
(1.02073 0.000250432 -1.62499e-21)
(0.895277 -0.105187 0)
(1.00994 -0.000353076 -2.13714e-21)
(1.06619 0.0810477 -2.24275e-22)
(1.01144 -0.000189479 0)
(1.00956 0.00132818 2.19496e-21)
(1.00844 -0.00014503 -7.81354e-23)
(1.03887 -0.00834699 -9.17244e-21)
(0.929472 0.250029 -9.62018e-21)
(1.01315 0.00375228 -2.0704e-21)
(1.22423 -0.0875247 0)
(1.01621 -0.000214519 -5.82085e-22)
(1.01735 -0.00113063 0)
(1.0399 -0.0216193 -2.48766e-21)
(0.870238 -0.185665 1.73805e-21)
(0.972115 0.0317289 3.76912e-22)
(1.20367 -0.0221822 0)
(1.0637 0.0823786 9.70863e-22)
(1.00204 -0.00861554 0)
(1.02077 -0.0016754 1.69834e-21)
(0.976689 -0.0608821 1.48601e-22)
(1.07865 -0.0259563 -9.25692e-21)
(1.07937 -0.0430077 0)
(0.945363 -0.196022 0)
(0.98262 -0.218583 -2.25588e-21)
(1.01947 -0.000337902 9.05662e-22)
(1.02302 -0.016887 -6.28368e-24)
(1.10482 -0.00371908 0)
(1.02448 -0.00400087 -2.23056e-22)
(1.01254 0.00991562 -1.09946e-21)
(1.02363 -0.00416471 1.7633e-21)
(1.01248 -0.00254618 1.65963e-21)
(1.00709 -1.50768e-05 -7.23839e-22)
(0.740451 -0.16392 0)
(1.0754 -0.0162238 6.14948e-21)
(0.960326 0.214607 -1.29193e-20)
(1.01239 -0.0028505 -1.77888e-21)
(1.03256 -0.0575616 0)
(1.01643 0.000458658 0)
(1.00791 3.75506e-05 0)
(1.01001 7.54712e-05 1.49227e-22)
(1.01389 0.00895823 -1.06555e-21)
(0.973634 -0.0564059 1.09685e-21)
(1.00925 -0.000840998 3.44718e-21)
(1.02285 -0.0145731 1.00356e-21)
(1.01411 0.00132292 -1.41517e-21)
(1.0178 -0.000763741 0)
(1.01243 0.0109417 0)
(1.02367 0.0798329 -2.63409e-21)
(1.01245 -0.000438606 -1.06286e-21)
(1.02056 -0.00160176 -3.38215e-22)
(0.978738 0.138665 -3.93691e-21)
(1.00319 0.00881306 5.25174e-22)
(1.0418 -0.0140726 0)
(0.914185 0.202539 1.43241e-21)
(1.04601 0.0974003 -6.94245e-22)
(1.00906 0.000127943 -1.08996e-21)
(1.00708 0.000150378 -1.74409e-21)
(1.03868 -0.0243266 -3.0648e-21)
(1.01008 0.00978966 -2.11155e-21)
(1.02728 -0.0133973 -4.59019e-21)
(1.0136 -0.000419631 1.26085e-22)
(1.01781 -0.000578771 9.71138e-22)
(1.01167 0.00330307 -2.26081e-21)
(1.01665 -0.00169054 -1.44983e-21)
(1.01669 -0.00226246 6.58264e-22)
(0.994273 -0.0680672 -1.11836e-22)
(1.12441 -0.0249924 1.37425e-20)
(1.01192 0.000228561 1.73821e-21)
(0.924822 0.258325 1.03533e-20)
(1.05019 -0.0716998 4.89833e-22)
(1.01075 0.000676995 0)
(1.00817 -0.0121145 0)
(1.01921 0.0100118 0)
(0.881827 -0.0112094 0)
(1.02037 -0.00788395 -3.34808e-22)
(0.706662 -0.0158882 4.75852e-21)
(1.01494 0.000549453 1.55044e-21)
(1.01699 -0.00209695 1.2873e-21)
(1.11268 -0.0157976 -9.77152e-21)
(1.0228 -0.00425668 9.86529e-23)
(1.0919 -0.0160346 0)
(1.0093 -0.0164704 0)
(1.04097 -0.0510299 -3.04339e-21)
(1.0109 0.00102009 0)
(0.200471 0.259117 -8.56265e-22)
(1.00561 0.00874383 0)
(1.01488 -0.000296352 -8.57205e-22)
(1.01913 -0.00155922 1.05276e-21)
(1.10427 0.00482455 3.45079e-20)
(1.01526 -0.00297746 0)
(1.01462 -0.000422748 -1.26594e-21)
(1.01951 -0.000729321 -5.082e-22)
(1.0152 -0.00283613 1.75543e-21)
(1.05393 0.157012 1.58235e-22)
(1.10092 -0.000203635 -1.54258e-20)
(1.04831 -0.0693105 -4.58232e-21)
(1.0059 -0.0099604 0)
(1.01881 -0.00185821 -1.00162e-21)
(1.01734 -0.00274348 0)
(1.03138 -0.00526969 -2.5712e-22)
(1.01229 0.000107243 0)
(1.01948 -0.000631703 4.95704e-22)
(0.905068 -0.00518341 2.641e-21)
(1.12002 0.0186181 -2.04143e-20)
(1.0146 0.0010941 0)
(1.00776 -0.0132122 1.01284e-22)
(1.20109 -0.178738 1.32363e-21)
(1.01743 -0.00875903 -9.61425e-24)
(1.04963 0.0136823 -1.90782e-22)
(0.987417 -0.0585092 4.48493e-22)
(1.01262 0.000175949 -2.4064e-22)
(1.11606 -0.00663678 -1.10686e-20)
(0.949767 0.212901 -5.2061e-22)
(1.02588 -0.0018015 -1.92015e-21)
(1.10546 0.0115489 3.23898e-21)
(1.01761 -0.000481072 1.10193e-22)
(0.786901 -0.128106 1.54276e-21)
(1.06277 -0.0303113 0)
(1.02227 0.0898605 0)
(1.01658 -0.00410628 7.42407e-23)
(1.01697 -0.00219899 -6.24243e-22)
(1.02529 -0.0068275 -1.60771e-21)
(0.9669 -0.17939 0)
(1.00477 -0.00764654 0)
(0.919058 0.212891 0)
(1.01679 0.17937 0)
(0.581544 0.22799 1.54225e-20)
(1.09403 -0.0164643 9.98587e-21)
(0.707575 0.0319428 3.21822e-21)
(1.07751 -0.0462663 7.34461e-21)
(1.00479 -4.4807e-05 2.33563e-21)
(1.08678 -0.00934609 1.30886e-20)
(1.00751 -0.0114565 0)
(1.02907 0.146357 4.27513e-21)
(1.03186 -0.00973412 -2.31246e-21)
(1.07427 0.0709091 -3.64853e-21)
(1.01439 0.00221125 2.56752e-21)
(1.06057 0.000607646 -1.18764e-21)
(1.00877 -0.000113209 2.80288e-21)
(1.04779 0.00122487 0)
(1.01705 -0.00260939 1.85456e-22)
(1.11876 0.0206686 -1.57042e-20)
(1.01409 0.00186129 0)
(1.0109 0.000206664 1.59338e-24)
(1.05221 -0.00708301 8.46357e-21)
(1.0503 -0.0198195 -1.10783e-20)
(1.07726 -0.0172068 2.04824e-20)
(1.01668 -0.00462039 -9.71702e-23)
(1.02153 -0.00373215 4.12851e-23)
(1.01791 -0.00848523 -5.48544e-22)
(1.0178 -0.0079364 0)
(0.993855 -0.225976 -1.22334e-20)
(1.01534 -0.00137646 2.69659e-23)
(0.982546 -0.234388 -3.07469e-21)
(0.84471 -0.160058 0)
(1.01534 -0.00129373 -1.45148e-23)
(1.0091 -0.000173505 -1.65356e-21)
(1.03272 -0.0602633 0)
(1.04445 -0.0014775 -5.9749e-21)
(1.02344 -0.00368204 -1.83344e-21)
(1.02445 -0.0175549 0)
(1.0267 0.00839688 -1.32248e-22)
(1.06438 -0.0289158 3.79464e-21)
(1.05264 0.000113634 1.05048e-20)
(1.05149 -0.0189518 1.49145e-20)
(1.01353 -0.000504387 0)
(1.0184 0.0117557 0)
(1.03212 -0.0223982 0)
(1.06293 -0.0248289 3.74976e-21)
(1.02191 -0.0175072 2.03379e-21)
(1.03394 -0.0268203 -5.93563e-21)
(0.986028 -0.247432 0)
(1.02042 -0.00888794 0)
(0.981394 -0.162153 1.30606e-21)
(1.07238 -0.00951677 3.40542e-21)
(1.01065 -0.000280505 -6.97806e-22)
(1.02193 -0.00388528 -2.30948e-23)
(1.01297 -0.00114746 -1.63363e-21)
(1.00292 -0.000483073 1.77389e-21)
(1.0012 -0.00172943 -2.39899e-21)
(1.01672 -0.00224196 0)
(1.00614 -0.00325631 -2.55197e-21)
(1.0162 0.00062321 0)
(1.01772 -0.00267521 1.90723e-21)
(1.00579 -0.00235172 3.61688e-21)
(1.01855 -0.00163527 -7.14563e-22)
(1.02103 -0.0348808 0)
(1.01372 0.000730115 -1.40061e-21)
(1.04795 0.00011316 0)
(1.00656 -4.635e-05 0)
(1.0342 -0.00513977 0)
(1.01996 -0.032625 0)
(1.05393 -0.000165948 1.47604e-20)
(1.08878 -0.0101021 -1.06685e-20)
(1.0079 8.43953e-06 0)
(1.01611 -0.00239751 9.64157e-22)
(1.02223 -0.00367136 2.37937e-23)
(1.01389 -0.000311998 0)
(1.01572 0.00436989 -1.58781e-21)
(1.01098 0.000279245 -1.25028e-21)
(1.01539 0.00465789 -3.38914e-22)
(1.01618 -0.00247451 6.92991e-22)
(1.02083 -0.00896874 8.63728e-22)
(1.01418 0.00204668 -1.38269e-21)
(1.08944 -0.0361186 0)
(1.00994 -0.000149882 1.45407e-21)
(1.00821 -6.84745e-05 -2.01914e-21)
(1.02485 -0.00319114 0)
(1.10314 0.0390269 3.70507e-21)
(1.01612 -0.0022 -1.32438e-22)
(1.01412 0.00126378 0)
(1.11026 -0.00533474 1.0556e-20)
(1.01765 -0.000270805 -3.03075e-23)
(1.01507 0.000648586 0)
(1.10349 0.0203017 1.59382e-20)
(1.02607 -0.00315448 7.28612e-22)
(1.0116 -0.000337823 7.62984e-24)
(1.01041 0.000103604 -1.52285e-22)
(1.111 0.0106781 0)
(1.01301 -0.00126712 8.34682e-22)
(1.10679 -0.0035758 6.91899e-21)
(0.633433 0.194875 -2.27176e-20)
(0.96854 -0.10043 -3.78776e-21)
(1.0293 0.12344 -3.247e-21)
(1.01498 -0.000153533 0)
(1.02533 -0.00383235 -7.61842e-22)
(1.025 -0.182363 0)
(1.01566 -0.0142748 0)
(1.014 0.0014037 -6.94818e-22)
(1.01468 -0.0667696 0)
(1.05209 0.0949868 3.41528e-21)
(1.22384 -0.155823 1.20915e-20)
(1.02266 -0.00381361 -5.20057e-23)
(1.10538 0.00486525 -1.92353e-20)
(1.02536 -0.00354966 0)
(1.0244 -0.00315569 1.03114e-21)
(0.764774 -0.172653 -1.39237e-20)
(1.01873 -0.00160079 -1.42355e-21)
(0.954003 -0.0566366 0)
(1.00573 0.0117761 0)
(1.12553 -0.0301842 0)
(1.01598 -0.00234742 -9.55659e-22)
(1.04883 -0.0295003 5.44643e-21)
(1.03079 -0.0214645 1.52166e-21)
(1.11447 0.0159118 2.10184e-20)
(0.87215 0.311917 0)
(1.01724 -0.00159479 2.08516e-21)
(1.0057 0.00992576 4.87417e-22)
(1.07905 -0.00197825 -6.97492e-22)
(1.01599 -0.00237873 0)
(1.00655 0.00589537 3.3327e-21)
(1.10821 -0.00571742 1.85064e-20)
(0.476652 0.0226283 -1.81874e-21)
(1.01637 -0.00364609 -3.74502e-23)
(1.05304 0.0060865 -3.54759e-22)
(1.0172 -0.0140944 0)
(1.03898 -0.121887 2.77217e-21)
(1.0518 0.000982886 5.94855e-22)
(1.05234 0.134588 0)
(1.04021 -0.0969374 0)
(1.02284 0.00343206 8.9228e-22)
(0.981212 -0.0047744 -2.45901e-22)
(0.890537 0.260411 1.56646e-20)
(1.01612 -0.00233806 -2.71592e-22)
(1.01835 -0.0018893 -3.04129e-22)
(1.0073 -9.48253e-05 1.5125e-21)
(1.02604 0.00752381 0)
(1.01408 0.00174456 -1.16918e-21)
(0.731455 -0.136618 -2.94044e-21)
(1.01398 0.00153478 0)
(0.955825 -0.231507 0)
(1.06129 0.000283689 -9.20336e-23)
(0.973639 0.070082 0)
(1.11464 -0.0129794 0)
(1.03223 -0.00528295 0)
(1.21127 -0.0251668 -5.78446e-21)
(0.855239 -0.19711 8.43071e-22)
(1.03952 -0.0123093 -3.33004e-21)
(0.985981 0.123268 3.21783e-20)
(0.983617 -0.00707119 0)
(1.10858 0.00650011 1.83919e-20)
(1.01403 0.00160663 1.19334e-21)
(1.0174 -0.000117244 3.23157e-23)
(1.00261 0.175465 0)
(1.01532 -0.00679286 0)
(0.85448 0.310559 1.96571e-21)
(1.01358 -0.000599661 3.63423e-22)
(1.02884 -0.133601 0)
(1.01503 -0.00200923 2.87562e-21)
(1.01074 0.0740985 3.35071e-22)
(1.01003 0.144689 0)
(1.02359 0.00265157 0)
(0.0952452 0.170204 -3.44392e-20)
(1.01955 -0.000335754 0)
(1.05365 -0.00674029 9.01437e-21)
(1.09485 -0.0213362 0)
(0.800405 -0.21169 -4.69628e-21)
(0.821629 -0.203719 0)
(1.01726 0.00533785 -3.5872e-23)
(1.01533 -0.00233126 4.61718e-22)
(1.01417 0.00121459 0)
(0.974178 -0.045026 3.79326e-21)
(0.88005 -0.207739 -5.82904e-21)
(1.0167 -0.000396605 -1.46856e-21)
(0.994302 -0.00780787 3.70165e-21)
(1.04669 0.0211637 7.2486e-23)
(1.01405 0.00141547 7.03542e-22)
(1.01555 -0.00234066 -1.7586e-22)
(1.00673 -0.00572869 0)
(0.960293 -0.0632445 -1.80363e-21)
(1.03725 0.00905252 2.20127e-22)
(1.01452 -0.00722088 -4.802e-23)
(1.00988 0.000119768 7.09047e-22)
(1.01346 -0.00212042 0)
(1.01733 0.135288 3.44225e-22)
(1.21288 -0.160456 -1.30965e-21)
(1.02792 -0.0328728 -1.46531e-21)
(1.01419 -0.000295224 4.24638e-22)
(1.01432 -0.000820532 0)
(1.11997 0.0102795 0)
(1.01854 -0.00185616 3.77613e-22)
(0.998618 0.132966 -1.77429e-20)
(1.10323 -0.0366159 1.91094e-21)
(0.945147 -0.233532 1.21076e-20)
(1.04798 0.0679924 -5.70823e-22)
(1.03801 -0.115144 2.87518e-21)
(1.01464 -0.00237566 -1.5311e-21)
(1.03261 -0.00457617 0)
(1.06101 -0.0137985 0)
(1.0498 -0.00642228 8.7536e-22)
(1.06432 -0.0260504 0)
(1.01901 -0.00109421 0)
(1.10616 0.00403979 0)
(1.03105 -0.195296 0)
(1.01368 -0.00212904 1.34843e-21)
(0.83838 -0.185491 -8.42384e-22)
(1.01338 -0.00197609 0)
(0.880127 -0.060054 -9.83335e-22)
(1.03853 -0.00171444 0)
(1.0648 0.0493439 2.55596e-22)
(1.01443 -0.0387657 -2.16257e-21)
(1.03853 0.00758899 -1.25325e-21)
(1.01621 -0.00361116 1.73609e-22)
(1.02194 0.0112396 3.5566e-23)
(1.03953 -0.0126576 -4.90931e-22)
(0.992121 -0.219047 0)
(0.876338 0.25493 0)
(1.01817 -0.0103573 6.36862e-22)
(1.07986 -0.0499814 -8.45588e-21)
(1.01466 -0.0103785 0)
(1.03294 -0.028331 2.59829e-21)
(1.04999 -0.0304852 0)
(0.387766 -0.0194138 -2.93031e-21)
(1.01136 -0.000241968 0)
(1.11013 0.00619434 -1.65009e-20)
(1.01458 -0.00221639 -4.36121e-23)
(1.08066 -0.00102502 1.19376e-20)
(1.01662 -0.00209351 -6.7453e-22)
(1.01366 0.000645844 0)
(1.0074 -2.16647e-05 0)
(1.0144 -0.00085105 -5.02271e-22)
(0.7408 0.130047 -3.4198e-22)
(1.01816 -0.002151 0)
(1.04087 -0.0270436 3.30156e-21)
(1.00884 -8.45754e-05 1.7983e-21)
(1.00888 0.000206859 -1.94026e-22)
(1.01425 0.00204493 1.35288e-21)
(1.09482 -0.0795224 8.78082e-22)
(1.0084 3.4474e-05 1.12485e-21)
(1.04997 0.00134599 -5.1168e-21)
(1.01486 -0.00252895 1.13927e-21)
(1.01567 -0.00248691 3.13107e-22)
(0.993565 -0.191403 7.01736e-21)
(1.01633 -0.00211423 3.48528e-22)
(0.902491 -0.0488523 -1.96289e-21)
(1.01381 -0.00242536 0)
(1.05213 -0.0056875 -1.58444e-21)
(1.00986 0.000102182 0)
(0.970469 -0.0586458 1.60962e-21)
(1.01001 0.000231465 -7.23522e-22)
(0.815751 0.0459908 -5.48007e-22)
(1.02265 -0.0145855 0)
(1.0151 -0.00732975 -1.06189e-22)
(1.01414 -0.000877278 6.45851e-22)
(0.9233 -0.239684 -6.34059e-21)
(1.00673 -0.172394 0)
(0.875561 -0.0790605 0)
(0.89513 0.0637129 0)
(1.12615 -0.0223086 8.92798e-23)
(1.01513 -0.00616359 -4.60324e-23)
(1.05916 -0.0142712 -2.16311e-21)
(0.982973 -0.167013 -6.41264e-21)
(1.01428 0.00275783 -3.17185e-23)
(1.02568 0.149817 -1.50254e-20)
(1.01473 0.163882 -6.297e-21)
(1.09035 -0.0852198 -7.82823e-21)
(1.16395 -0.0485639 0)
(1.03712 -0.0270521 -2.84644e-21)
(0.965253 -0.219905 -9.82648e-21)
(1.0156 0.0145542 0)
(0.897858 -0.157798 0)
(0.958724 -0.191018 -8.55947e-21)
(1.04058 -0.0250691 0)
(1.03219 -0.0106391 2.41546e-21)
(0.978625 -0.210283 1.98554e-21)
(0.895959 -0.237428 -6.50709e-21)
(1.01542 -0.00021401 -1.31979e-21)
(1.02364 -0.0351053 0)
(1.01902 -0.00119358 9.12554e-22)
(1.01637 -0.0133038 -1.53067e-21)
(1.09231 -0.000306966 1.44246e-20)
(1.01104 0.000183 5.90395e-22)
(1.01627 0.00456343 3.19332e-22)
(1.05114 -0.00602611 -7.96224e-21)
(1.05402 -0.0169431 0)
(1.09558 -0.0189143 -6.80059e-23)
(1.00402 -0.0155615 8.66791e-22)
(1.02415 -0.10035 0)
(1.01423 -0.000900376 0)
(1.01488 0.00431831 -1.07445e-21)
(1.05858 0.0125379 1.01539e-21)
(0.923373 -0.146888 -2.97024e-22)
(1.09301 0.00257775 0)
(1.01805 -0.000331603 -1.36184e-21)
(1.03358 -0.0243829 0)
(1.0158 -0.00143485 -1.86569e-21)
(1.01453 0.00303587 0)
(1.07299 0.100998 0)
(1.01444 0.00243883 -1.36627e-21)
(1.03696 -0.0252592 2.66802e-21)
(0.952875 -0.233681 8.08405e-21)
(0.940777 -0.235007 -9.45797e-22)
(1.02239 0.00565453 8.63312e-22)
(0.853294 -0.113738 0)
(1.2213 -0.0405069 1.45683e-20)
(0.897265 -0.0141718 0)
(1.05636 -0.132037 0)
(0.365817 -0.00103375 -4.75175e-22)
(1.01464 -0.000479255 -1.09679e-21)
(0.963241 0.145104 0)
(1.02263 -0.0164728 -1.90571e-21)
(1.01439 -0.00208842 1.70769e-22)
(1.02347 -0.00759524 -1.15847e-21)
(1.00813 2.03838e-05 -4.20508e-22)
(1.01511 -0.0111341 0)
(0.1576 0.121526 0)
(1.02827 0.00146507 0)
(1.03441 0.121059 0)
(1.01938 0.009991 0)
(1.03738 -0.0854293 0)
(1.02376 -0.018715 -1.44494e-22)
(1.09373 0.000811466 -3.00063e-20)
(1.03332 0.00997415 0)
(1.00868 -0.00254484 0)
(1.10446 -0.0337884 -2.76958e-23)
(1.01793 0.00989674 -1.48016e-21)
(1.01486 0.00376535 -1.30333e-21)
(1.1406 -0.0476106 -5.82067e-21)
(1.01266 -0.0206638 0)
(1.0803 -0.0311753 1.50255e-20)
(1.02611 0.0017111 -1.39937e-21)
(1.01495 0.00112192 3.9126e-22)
(1.0027 -0.162785 0)
(0.846186 -0.149239 0)
(1.02818 0.016346 1.27338e-21)
(1.01636 0.00049868 0)
(1.01616 0.000599583 -3.70325e-23)
(1.01477 -0.00170001 -2.13553e-21)
(1.02466 0.0107353 -4.94249e-22)
(1.0067 -0.213924 2.24445e-21)
(1.13961 -0.0397302 1.18266e-20)
(1.06646 -0.14065 -4.62156e-21)
(1.08486 -0.0397864 -1.21115e-21)
(1.00218 0.181059 5.63558e-21)
(1.01769 0.00119106 -1.29989e-21)
(0.999955 -0.0460237 -3.43375e-23)
(0.990871 -0.00820542 -2.22682e-21)
(1.06187 -0.0169309 6.34076e-21)
(1.1646 -0.0596218 0)
(1.01629 -0.00384744 0)
(1.01631 -0.0023198 0)
(0.911258 -0.0920967 1.10995e-21)
(1.0922 -0.035244 -1.59076e-21)
(0.263022 0.00981754 0)
(1.01614 -0.00328017 1.91436e-23)
(0.992417 -0.12785 0)
(1.01976 0.016065 -1.40548e-20)
(1.01363 -0.000189137 2.11307e-21)
(1.09844 -0.00341334 1.27331e-20)
(1.06442 -0.00134204 1.3008e-20)
(1.02192 -0.218872 2.94365e-21)
(1.01177 -0.00029764 1.23432e-21)
(1.07051 -0.0105255 0)
(1.06131 -0.0660051 3.8361e-21)
(1.00193 0.0055602 -4.48171e-21)
(1.01621 -0.00346075 0)
(1.0384 -0.0216313 -1.35527e-21)
(1.02099 -0.0153696 2.42725e-21)
(1.01373 -0.000457797 -9.89439e-22)
(1.01585 -0.00236412 0)
(0.886844 0.0613927 0)
(1.01914 -0.0159478 0)
(1.07547 0.00142649 0)
(0.90833 -0.010787 1.78821e-21)
(1.09707 -0.00494289 -1.74634e-22)
(1.01532 -0.0417469 1.44719e-21)
(1.07736 -0.0534792 7.70429e-21)
(0.973648 0.0474808 -2.42867e-22)
(0.998842 0.18154 0)
(0.978975 0.0512241 2.31062e-22)
(1.0145 0.00345005 0)
(1.03063 -0.00867258 -3.89867e-21)
(1.04871 -0.00550683 -6.3933e-21)
(1.03138 0.0122333 0)
(1.00916 -7.24374e-05 1.37295e-21)
(1.11187 0.0135172 -4.30119e-21)
(1.0501 -0.0838721 0)
(1.06453 0.000153434 1.39321e-20)
(0.865878 -0.0435196 0)
(1.05527 -0.00919645 1.35851e-21)
(1.05485 0.0957231 0)
(1.03092 -0.0095102 0)
(1.03377 -0.113423 -2.96187e-21)
(1.02122 -0.00389591 -4.11478e-23)