/*--------------------------------*- C++ -*----------------------------------*\
| =========                 |                                                 |
| \\      /  F ield         | OpenFOAM: The Open Source CFD Toolbox           |
|  \\    /   O peration     | Version:  v2012                                 |
|   \\  /    A nd           | Website:  www.openfoam.com                      |
|    \\/     M anipulation  |                                                 |
\*---------------------------------------------------------------------------*/
FoamFile
{
    version     2.0;
    format      ascii;
    class       surfaceVectorField;
    location    "250";
    object      Uf;
}
// * * * * * * * * * * * * * * * * * * * * * * * * * * * * * * * * * * * * * //

dimensions      [0 1 -1 0 0 0 0];


internalField   nonuniform List<vector> 
14516
(
(1.08483 -0.125502 -2.2634e-21)
(1.09223 -0.123947 -2.56779e-21)
(1.08567 -0.116767 7.56984e-21)
(0.963804 -0.186489 2.68613e-21)
(0.951298 -0.192188 1.25933e-23)
(0.960798 -0.180243 -5.38314e-21)
(1.07592 -0.126403 -3.85642e-21)
(1.08159 -0.134734 1.29047e-22)
(1.01522 -0.00102437 3.40291e-23)
(1.01523 -0.00111878 -6.57879e-23)
(1.01534 -0.00105176 0)
(0.891474 -0.00559684 3.26388e-20)
(0.828711 0.0276907 1.09911e-20)
(0.785723 0.0737814 1.72416e-21)
(1.00304 -0.0042452 -1.33654e-22)
(1.00363 -0.00610771 1.91427e-22)
(1.00491 -0.00442176 -1.35943e-22)
(1.00976 -0.000116087 -5.42099e-22)
(1.01065 -0.000298898 -1.01862e-22)
(1.01136 -0.000420522 1.57965e-21)
(1.01349 -0.00184347 -9.19194e-22)
(1.01344 -0.00172762 2.01806e-22)
(1.01357 -0.00182333 2.44752e-23)
(1.03548 -9.93354e-05 -7.13738e-22)
(1.03558 0.000584021 -3.89317e-21)
(1.03638 -0.000151524 -2.91291e-22)
(0.996582 -0.0809424 2.4516e-20)
(0.955644 -0.0326404 1.53377e-20)
(1.11248 -0.00824007 -2.09955e-21)
(1.11438 -0.00651365 4.72083e-21)
(1.11097 -0.0057971 6.47103e-22)
(0.826723 0.0677477 1.15594e-21)
(0.813362 0.0541082 1.26413e-21)
(0.800709 0.0711776 -3.68587e-21)
(1.01514 -0.00090611 4.86032e-23)
(1.01508 -0.000971287 2.04968e-23)
(1.01871 0.000551904 7.7381e-22)
(1.01925 0.000932461 3.99343e-22)
(1.01839 0.0011439 -1.28646e-22)
(1.00403 -7.47176e-05 0)
(1.00407 -8.96622e-06 0)
(1.01811 0.000206456 4.11881e-22)
(1.01755 5.4516e-05 7.91809e-22)
(1.01742 0.000574999 2.21895e-23)
(1.0253 -0.00934156 6.64383e-22)
(1.02516 -0.00770901 1.28776e-21)
(1.0235 -0.00889319 1.01508e-21)
(1.02537 -0.0113578 5.57103e-22)
(1.02747 -0.0100676 1.68934e-22)
(0.979668 -0.213035 -4.29204e-21)
(0.987827 -0.223651 -6.98477e-21)
(0.972239 -0.224825 -4.24764e-21)
(1.01888 -0.000149797 3.78813e-22)
(0.901694 -0.0657744 -1.63196e-22)
(0.904559 -0.0767411 -1.19474e-21)
(0.912437 -0.0689172 -1.95056e-22)
(1.0327 -0.0324044 -1.2466e-21)
(1.03449 -0.0332161 -1.72031e-22)
(1.03396 -0.0310793 -8.28808e-22)
(0.885183 0.0186462 1.37915e-22)
(0.876978 0.00764748 4.87454e-21)
(0.869993 0.0250523 2.29564e-22)
(1.01666 0.00011354 4.02391e-23)
(1.01656 0.000237713 -1.83812e-23)
(1.02532 -0.0045764 1.13466e-21)
(1.02608 -0.00361419 4.82894e-22)
(1.02682 -0.00492828 1.59143e-21)
(1.0149 -0.000703897 2.02664e-22)
(1.01514 -0.000798652 -5.02075e-23)
(1.01671 -0.00108841 1.16307e-23)
(1.01741 -0.00110035 -7.83294e-22)
(1.01712 -0.00178846 -9.49594e-23)
(1.02164 -0.00272158 0)
(1.02221 -0.00200502 3.30466e-22)
(1.021 -0.00184052 0)
(1.10578 -0.0411178 0)
(1.10343 -0.0381503 1.07625e-21)
(1.10169 -0.0420818 0)
(1.03459 -6.70338e-05 5.25676e-23)
(1.03533 -0.000755328 1.2692e-21)
(0.978376 0.0280739 3.9092e-21)
(0.973715 0.030175 3.5934e-21)
(0.974987 0.0230077 8.43372e-22)
(0.895596 0.0298146 5.40906e-22)
(0.903049 0.0151773 1.00523e-21)
(1.03828 0.188365 6.38483e-21)
(1.04519 0.183688 -1.13421e-20)
(1.02354 0.211649 -1.50266e-21)
(1.00741 4.44992e-05 4.60409e-22)
(1.00739 2.67219e-05 0)
(1.00524 2.84115e-05 0)
(1.10798 -0.0448715 0)
(1.10956 -0.0495082 4.49099e-21)
(1.10493 -0.0499489 4.27318e-21)
(0.886223 -0.0970305 1.73052e-21)
(0.890231 -0.109029 1.59058e-21)
(0.877111 -0.105674 3.02379e-21)
(1.00873 -9.03059e-05 -5.79978e-22)
(1.00693 2.23444e-05 -8.3726e-24)
(1.03115 -0.0336855 0)
(1.03098 -0.0314818 0)
(1.01362 -0.00256557 -8.30542e-22)
(1.01356 -0.00275505 7.6584e-23)
(1.01381 -0.00281188 5.48647e-22)
(1.01044 -0.000196852 1.40548e-21)
(1.01002 -0.000197823 3.34846e-22)
(1.0109 -0.000199218 -2.06818e-22)
(0.983328 0.0254286 -1.44983e-21)
(0.983159 0.0328863 -7.46395e-21)
(1.00669 -2.46391e-05 0)
(1.00369 -7.8911e-05 0)
(1.0136 -0.000597032 1.07936e-21)
(1.01425 -0.000549531 -2.27596e-23)
(1.0136 -0.000568659 -8.37608e-22)
(1.01041 -0.000232917 5.20415e-22)
(1.00959 -0.000262785 5.86351e-22)
(1.01131 -0.000222708 4.87517e-22)
(1.01126 -0.000350274 5.01109e-23)
(1.01371 -0.000516206 -1.6436e-22)
(1.01468 -0.00064014 4.80398e-23)
(1.11012 -0.0401401 1.34042e-21)
(1.00405 0.0679121 1.72322e-22)
(1.00917 0.0714007 6.52271e-21)
(1.01356 0.0611099 2.19144e-22)
(1.00528 0.113837 2.77254e-23)
(0.983296 0.121977 -5.43531e-23)
(1.01036 0.107845 6.6907e-22)
(1.01525 -0.00123904 -7.58206e-23)
(1.01514 -0.00118274 1.96881e-23)
(1.11212 -0.0531219 6.51179e-21)
(1.11464 -0.0478702 -5.14883e-21)
(1.11974 -0.0142896 0)
(1.11976 -0.0107359 0)
(1.11642 -0.012316 0)
(1.00355 -0.0115432 -1.76406e-22)
(1.00227 -0.010188 6.30249e-23)
(1.00175 -0.0123716 -1.79089e-22)
(1.03489 -0.00836184 1.51731e-21)
(1.03408 -0.00791276 2.27102e-22)
(1.03398 -0.00876674 -2.21298e-21)
(1.20703 -0.0520585 1.27572e-21)
(1.21538 -0.0409676 -9.1117e-21)
(1.19732 -0.0420624 7.6382e-21)
(0.776327 -0.0896636 -3.80511e-22)
(0.758052 -0.110681 0)
(0.746017 -0.0887546 -1.30019e-21)
(1.02606 0.00126934 -7.55676e-22)
(1.02549 0.00124507 -1.37846e-22)
(1.11166 0.012765 -3.13615e-21)
(1.11085 0.0114531 2.16425e-21)
(1.11337 0.011134 2.82371e-21)
(0.920404 0.243561 2.62904e-22)
(0.9163 0.238895 -3.92366e-21)
(0.916384 0.246082 4.57749e-21)
(1.01366 -0.00245794 3.91815e-22)
(1.01348 -0.0023925 -3.95807e-22)
(1.00854 -0.000151211 -4.70597e-22)
(1.00793 -4.47021e-05 -3.58591e-22)
(1.00939 -0.000203023 1.12596e-22)
(1.00593 -0.0177306 0)
(1.00446 -0.0167828 3.59717e-22)
(1.0044 -0.0189993 0)
(0.919694 0.191291 -4.80231e-22)
(0.914457 0.198942 -3.64332e-21)
(0.911821 0.188707 1.27032e-21)
(1.01697 -0.000506304 1.16699e-22)
(1.01755 -0.000672776 -2.67516e-22)
(1.01662 -0.000500743 1.06369e-22)
(0.621088 0.209205 -7.83711e-21)
(0.655979 0.191217 -3.27469e-21)
(1.03459 0.15466 4.68621e-21)
(1.0493 0.154116 -5.63187e-21)
(1.05026 0.137197 4.37414e-21)
(0.927973 0.179096 1.02836e-21)
(0.931901 0.190672 1.55976e-21)
(0.939743 0.166939 2.0008e-21)
(0.956046 0.153166 -1.39328e-21)
(0.95754 0.160379 -1.77294e-21)
(0.838944 0.0780391 -9.82973e-22)
(0.855115 0.066335 3.23779e-21)
(1.11338 -0.0111501 0)
(1.11003 -0.00996494 0)
(1.21508 -0.0644184 -9.44812e-21)
(1.19654 -0.0618605 -5.81139e-21)
(1.01242 0.000139409 1.55758e-23)
(1.01281 0.000190736 3.85744e-23)
(1.01363 0.000306978 2.25865e-22)
(1.01651 -0.00425555 1.36386e-26)
(1.01663 -0.00452419 6.03266e-23)
(1.01645 -0.00437456 1.9857e-23)
(1.03517 -0.0881918 -3.00693e-21)
(1.03467 -0.0791441 5.60658e-22)
(1.04469 -0.078785 3.37004e-22)
(1.11233 -0.0588361 6.20069e-21)
(1.11797 -0.0573713 -1.40351e-22)
(0.925911 0.246773 -4.78141e-21)
(0.923362 0.238409 2.31545e-22)
(1.02638 0.000941653 1.32318e-22)
(1.02671 0.000579399 -7.7622e-22)
(1.02603 0.000621185 4.20295e-22)
(1.01857 -0.0052716 -1.80066e-23)
(1.01749 -0.00546862 1.90704e-23)
(1.01859 -0.00639051 3.50794e-22)
(1.02176 0.0106902 1.49063e-21)
(1.02007 0.00990205 1.01737e-21)
(1.02109 0.00893068 -5.15423e-22)
(1.02419 0.000393691 0)
(1.02312 0.00109473 -5.72093e-22)
(1.02279 -0.000174387 -1.18187e-22)
(1.02211 0.169542 -1.05201e-21)
(1.02189 0.151328 -8.18208e-22)
(1.01577 0.0105111 4.96697e-22)
(1.01452 0.00921466 -4.365e-22)
(1.01595 0.00891833 1.29996e-23)
(0.934118 -0.206057 -5.91223e-22)
(0.927514 -0.207529 0)
(0.926093 -0.210798 0)
(0.994567 0.046568 8.10386e-22)
(0.994628 0.0511835 -1.87648e-23)
(1.00321 0.0443055 -1.87871e-23)
(0.987755 0.0225221 -2.79114e-21)
(0.983741 0.0186038 -1.47935e-21)
(0.997703 0.0614294 7.59343e-22)
(1.00048 0.0651502 1.33863e-21)
(1.0073 0.0562045 3.33586e-22)
(1.02559 0.00112422 0)
(1.02532 -0.000534811 0)
(1.02697 0.000240339 -1.32241e-21)
(1.02721 -0.000135555 -1.18913e-21)
(1.02657 -6.91994e-05 -1.34e-21)
(1.00731 -0.0166452 0)
(1.00878 -0.0157043 1.59335e-23)
(1.00762 -0.0147074 -2.61428e-22)
(1.0109 0.0078294 0)
(1.01157 0.00936406 0)
(1.00981 0.00918814 -3.13347e-22)
(0.962558 -0.188974 9.17457e-21)
(0.976603 -0.178404 5.86016e-21)
(0.77297 0.114228 -3.48881e-21)
(0.768078 0.117964 -1.88004e-21)
(0.875502 0.066939 -1.09081e-20)
(1.00998 -0.00020813 1.04995e-21)
(1.00967 -0.000270459 -5.11944e-22)
(1.00982 0.00020713 0)
(0.905483 0.0407062 -6.20918e-21)
(0.889938 0.0472385 1.41194e-22)
(1.00734 -0.0185058 0)
(0.984762 0.0491039 4.99361e-21)
(0.994652 0.0421511 6.40914e-22)
(0.797053 -0.071212 -5.11283e-22)
(0.805913 -0.0848426 -4.92089e-22)
(0.94229 -0.200047 1.25417e-21)
(0.941918 -0.202262 -2.99002e-21)
(1.01015 -0.000510679 1.08308e-21)
(1.01026 -0.000105714 -7.21314e-23)
(1.01181 0.00181032 -7.5892e-22)
(1.01163 0.00188394 4.13817e-22)
(1.01164 0.00153691 2.92013e-22)
(1.01204 0.00214071 -5.39766e-23)
(1.01196 0.00178033 7.44469e-22)
(1.00807 0.00128132 1.39493e-21)
(1.0078 0.00248272 1.24339e-21)
(1.00689 0.0015174 5.80109e-22)
(1.01285 -0.00244175 -9.00008e-22)
(1.01269 -0.00257238 7.83364e-22)
(1.01302 -0.00272753 4.50304e-22)
(1.01271 -0.00218992 3.49949e-22)
(1.013 -0.00229287 2.14102e-23)
(1.01846 -0.0042179 -8.86826e-24)
(1.01947 -0.00490407 2.39445e-22)
(0.991432 0.0195217 -5.55603e-21)
(0.991629 0.0252622 -2.66598e-21)
(1.0101 -0.0152115 1.4804e-23)
(1.00968 -0.016803 -3.09067e-22)
(1.00853 -5.32348e-05 3.36344e-22)
(1.00913 -0.000176283 -1.87102e-21)
(1.00997 -0.000229016 -2.7156e-22)
(1.00528 -0.0108275 1.14102e-21)
(1.00491 -0.0126892 1.4619e-24)
(1.0344 0.0779146 -9.99057e-22)
(1.04272 0.0706315 0)
(1.04014 0.0619789 -6.56943e-23)
(1.0122 0.000153868 0)
(1.01104 3.74932e-05 0)
(0.876738 -0.0316288 -1.0718e-21)
(0.876963 -0.0186418 -1.28749e-21)
(0.858397 -0.0271528 0)
(1.02353 0.00120878 -1.74843e-22)
(1.02395 0.00115869 -1.03757e-21)
(0.803254 -0.150906 2.07896e-21)
(0.788825 -0.139501 0)
(0.777477 -0.161293 4.20239e-21)
(1.11923 -0.0176811 0)
(1.12322 -0.0159595 3.71164e-21)
(1.02673 0.00124607 9.91647e-22)
(1.07408 0.127159 0)
(1.0759 0.106774 0)
(1.08559 0.0930591 -5.70891e-21)
(1.11337 -0.0646658 1.45975e-21)
(1.10775 -0.0608387 -4.49597e-21)
(1.01717 0.0116753 0)
(1.0154 0.0123661 0)
(0.920127 0.0346997 4.85004e-22)
(0.91573 0.0475487 -1.61249e-21)
(1.02671 0.0816026 2.99045e-21)
(1.02774 0.0922342 -8.02415e-22)
(1.00765 0.000115609 3.32496e-23)
(1.00474 3.58078e-05 3.51908e-23)
(1.00489 3.08765e-05 2.35046e-23)
(1.02397 -0.00344049 -2.20886e-23)
(1.02436 -0.00371467 1.01828e-21)
(1.02438 -0.00330523 -8.50523e-22)
(1.00269 -0.00224563 -7.97426e-23)
(1.00097 -0.00385278 1.26875e-21)
(1.04151 -0.0121366 3.04245e-21)
(1.04147 -0.0133605 3.00807e-21)
(1.04028 -0.012427 1.17014e-21)
(0.890493 -0.0622816 -1.14903e-21)
(0.900283 -0.0551995 -5.13487e-22)
(1.09699 0.00187294 0)
(1.09579 0.00265024 0)
(1.09558 0.00127772 1.85336e-21)
(0.996389 0.0581824 4.10935e-22)
(0.987741 0.0667107 1.38162e-21)
(1.02356 0.0111969 0)
(1.02224 0.0126738 0)
(1.01808 -0.00470373 3.71586e-23)
(1.01825 -0.00460549 0)
(1.01797 -0.00448132 0)
(1.01096 9.0892e-05 1.87443e-22)
(1.01047 0.000114574 -5.17021e-23)
(1.01214 0.000142841 1.03392e-22)
(1.02736 0.000539564 -1.92988e-21)
(1.01794 -0.00478673 4.17638e-22)
(1.0182 -0.0049308 -9.32994e-22)
(1.00686 -0.00397661 1.76267e-21)
(1.00698 -0.00527814 8.93102e-22)
(1.00798 -0.00463112 2.63317e-22)
(1.0338 -3.26922e-05 1.21105e-21)
(1.03403 0.000539495 -4.26353e-21)
(1.02744 -0.000517032 9.32821e-25)
(1.02769 -0.000947599 -1.62405e-21)
(1.02703 -0.000818344 1.23845e-21)
(1.01506 -0.000290713 1.45325e-26)
(1.01718 -0.000466374 1.67315e-24)
(1.00976 -0.000115259 3.05218e-22)
(1.01122 -0.000309457 0)
(1.02332 0.000909582 6.58003e-23)
(1.02306 0.00118512 -1.95472e-22)
(1.01333 0.000524964 4.81237e-22)
(1.01348 0.000587436 -4.35337e-22)
(1.01333 0.000551568 -4.95151e-22)
(1.02359 -0.00352863 -1.88021e-21)
(1.02359 -0.00317491 2.26976e-23)
(1.02369 -0.00612931 2.87213e-22)
(1.02461 -0.00533288 5.9048e-22)
(1.02492 -0.00665834 0)
(1.01353 -0.000590872 2.6577e-23)
(1.01375 -0.000595883 1.73393e-23)
(1.01338 -0.000578924 -2.20024e-22)
(1.01304 0.00309721 -1.18178e-24)
(1.01312 0.00290725 -1.26809e-21)
(1.0134 0.00334095 8.15049e-22)
(1.02024 0.000697581 -4.86674e-23)
(1.01987 0.00143971 1.89333e-24)
(1.02217 0.00111447 -1.53009e-21)
(1.02138 0.000370441 -7.46609e-22)
(1.02261 8.09716e-05 -7.7201e-22)
(1.00614 -0.0849171 0)
(0.998842 -0.0744133 6.0479e-23)
(0.9936 -0.0865716 0)
(1.01266 0.00280563 7.4495e-22)
(1.01282 0.0032725 -7.14543e-22)
(1.01073 -0.00128473 8.8363e-22)
(1.01052 -0.00104204 3.91281e-23)
(1.0106 -0.0015112 -4.2043e-22)
(0.770249 0.112958 3.45191e-21)
(0.674936 0.156397 -8.39446e-21)
(1.07062 -0.355558 0)
(1.05339 -0.360284 0)
(1.03679 -0.37209 -2.44495e-20)
(1.01185 0.000192412 4.11932e-23)
(1.00977 7.89158e-06 1.93047e-23)
(1.09033 -0.340394 -1.77506e-20)
(1.08313 -0.340579 0)
(1.0575 -0.152026 -2.37133e-20)
(1.09742 -0.159266 -2.75425e-20)
(1.01094 -0.00146357 6.6861e-22)
(1.01087 -0.00109309 2.15655e-22)
(1.00972 0.00015646 0)
(1.00957 0.00016256 0)
(1.01216 0.000250531 0)
(1.01151 0.000192222 0)
(1.01256 0.00033003 -5.18505e-22)
(1.0228 -0.00663768 1.44168e-21)
(1.02265 -0.00553123 1.46124e-21)
(1.01231 0.00246254 1.51144e-21)
(1.01246 0.00236322 1.53808e-21)
(1.01363 -0.000615819 1.86593e-22)
(1.01332 -0.000478982 -3.00586e-22)
(1.01355 -0.00196955 -5.38831e-22)
(1.01342 -0.00185909 -6.44844e-22)
(1.0208 -0.00330964 0)
(1.02184 -0.00368837 -3.88632e-22)
(1.01554 -1.19255e-05 7.35484e-22)
(1.01514 7.35832e-05 8.79196e-23)
(1.01528 -0.000316411 7.3327e-22)
(0.971474 -0.204135 4.65389e-21)
(0.96288 -0.193989 6.78146e-21)
(0.956206 -0.203746 -5.2559e-22)
(1.01428 -0.102291 4.63664e-22)
(1.02618 -0.0955302 -2.01457e-21)
(1.01453 -0.0917121 1.72042e-22)
(0.895516 -0.0870538 2.30636e-21)
(0.907371 -0.0887329 -1.94843e-21)
(0.993935 0.0750225 -3.78634e-22)
(1.06088 -0.0396674 -3.78403e-21)
(1.05893 -0.0377794 -8.30309e-22)
(1.05826 -0.0403539 3.88862e-22)
(1.0163 -0.000515484 0)
(1.01607 -0.000943664 0)
(1.00998 4.96385e-05 -1.09674e-21)
(1.00986 0.000856713 -1.12516e-21)
(1.01055 0.000690444 0)
(1.01723 -0.00125879 7.86778e-22)
(1.01683 -0.00156408 -1.80972e-22)
(1.01717 -0.00150264 -6.50495e-23)
(0.81187 -0.0629495 0)
(0.830324 -0.0341358 3.82256e-21)
(0.806145 -0.00733323 0)
(1.01469 -0.114084 -6.11385e-22)
(1.00295 -0.109007 5.25683e-21)
(0.816326 -0.115187 -1.3846e-21)
(0.80387 -0.0828214 0)
(1.04136 -0.00995712 0)
(1.04147 -0.0110807 0)
(1.04027 -0.0102251 0)
(0.985857 -0.202276 5.19693e-21)
(1.02788 -0.00021119 1.92593e-21)
(1.01668 0.000308028 5.02647e-23)
(1.01653 0.00040638 -3.24027e-23)
(1.01669 0.000354705 -5.4024e-24)
(1.01765 -0.00526973 -2.56198e-23)
(1.01782 -0.00553513 1.06624e-23)
(1.01786 -0.00525611 -8.67785e-23)
(1.07801 -0.0205929 0)
(1.07921 -0.0220371 2.89577e-21)
(1.08011 -0.0198708 0)
(0.295741 -0.0314819 1.01786e-20)
(0.200581 -0.0236194 -4.26166e-21)
(0.226604 -0.0468251 1.52738e-20)
(1.05366 -0.00249694 2.45194e-21)
(1.0523 -0.00225393 4.32686e-21)
(1.05286 -0.00352373 3.17352e-21)
(1.0121 0.0025723 7.61333e-23)
(1.02404 -0.00419406 -4.38163e-22)
(0.938841 0.24931 0)
(0.926785 0.256988 4.86122e-21)
(0.925551 0.257293 4.29822e-22)
(1.01654 -0.00414259 7.20028e-23)
(1.01642 -0.00400204 1.41047e-23)
(1.11258 0.0148516 4.81563e-21)
(1.10866 0.0154295 0)
(1.01745 -0.00524508 1.90786e-22)
(1.0175 -0.00498262 1.5474e-22)
(1.02346 -0.00429655 1.74394e-21)
(1.02305 -0.00434461 8.00521e-22)
(1.02336 -0.00467742 -1.89756e-22)
(1.01597 -9.68243e-05 0)
(1.01564 0.000261413 0)
(1.04251 -0.00969358 2.42575e-21)
(1.04126 -0.00885987 0)
(1.02035 -0.000113827 4.37598e-22)
(1.02037 -0.000230069 -1.49025e-21)
(1.02055 -0.000116205 1.71244e-21)
(1.0285 0.104006 5.09552e-21)
(1.00326 0.119755 2.90056e-23)
(0.877009 -0.0446172 -9.81104e-22)
(0.888805 -0.0381458 -3.39883e-22)
(0.923796 0.169235 1.50054e-21)
(1.07707 -0.0183229 0)
(1.07592 -0.0206836 0)
(1.08218 -0.171657 4.30532e-21)
(1.09033 -0.160541 3.98375e-21)
(1.0758 -0.162708 1.68103e-21)
(1.01268 0.00342766 0)
(1.01199 0.00322828 1.45996e-22)
(1.01237 0.00267059 8.61794e-22)
(1.03193 -0.158567 3.04679e-20)
(1.11329 -0.211876 -2.35352e-20)
(1.01332 0.000494012 9.8626e-22)
(1.01307 0.00045655 6.66104e-22)
(1.03317 -4.60431e-05 -4.86193e-22)
(1.03372 -0.000571506 -1.81427e-21)
(0.956423 -0.184665 -2.38593e-21)
(0.947388 -0.17822 2.80388e-22)
(0.957516 -0.170754 2.5601e-21)
(0.77242 -0.125204 0)
(0.745198 -0.129971 4.05579e-21)
(1.0184 -0.00452608 0)
(1.01829 -0.00428305 0)
(1.01856 -0.00442323 0)
(1.02789 -0.00135874 -1.61054e-21)
(1.02833 -0.00105168 -1.37258e-21)
(1.01824 -0.00342367 -2.67773e-23)
(1.01756 -0.00357715 -3.01807e-23)
(0.882451 -0.0833716 2.95856e-21)
(1.01637 0.00275218 9.10265e-22)
(1.0162 0.00241751 2.54118e-22)
(1.01682 0.00259124 5.08111e-23)
(0.994847 0.0171277 3.03084e-21)
(0.99145 0.0141378 -4.22267e-21)
(1.04991 -0.0157621 7.41845e-22)
(1.04872 -0.0166001 2.48342e-21)
(1.0485 -0.0149327 -7.99688e-22)
(1.08261 -0.0350388 4.58492e-21)
(1.08157 -0.0320534 -1.13277e-21)
(1.08467 -0.0333141 -1.11316e-21)
(1.05253 0.0886675 -2.64612e-23)
(1.0535 0.0866145 4.5652e-23)
(0.962004 0.127054 -2.32263e-22)
(0.958331 0.135989 9.6997e-22)
(1.03562 -0.00920053 4.07739e-21)
(1.03583 -0.00814051 2.05128e-21)
(1.07447 -0.182542 -6.8651e-21)
(1.09112 -0.180949 4.91553e-21)
(1.01188 0.000259801 -2.21884e-22)
(1.01276 0.000301376 0)
(1.00925 -0.00137716 1.69844e-21)
(1.00903 -0.00221163 5.49249e-22)
(1.00976 -0.00201882 2.22995e-22)
(0.952464 0.229268 0)
(0.949742 0.237592 0)
(1.01825 -0.0027992 4.88754e-23)
(1.01889 -0.00321834 -9.82373e-23)
(0.875595 0.202659 -1.71128e-21)
(0.876237 0.213967 4.61708e-21)
(0.865445 0.213762 -1.65485e-21)
(1.11623 -0.0843628 2.12028e-22)
(1.1097 -0.0875379 3.04272e-21)
(1.11635 -0.092807 -1.00385e-20)
(1.02526 -0.0020935 -2.62145e-21)
(1.02562 -0.00185517 -5.55709e-22)
(1.02507 -0.00177129 -1.05107e-21)
(1.04272 -0.0119173 0)
(1.02029 5.21715e-06 4.84302e-22)
(1.02016 -0.000119677 -2.84118e-22)
(0.995159 0.0545262 0)
(0.985004 0.0582071 -9.93671e-23)
(0.970817 -0.185861 -3.63955e-21)
(1.00284 -0.00799907 1.36269e-22)
(1.00476 -0.00777774 -3.83661e-22)
(1.01113 -0.00160631 -5.08105e-22)
(1.0112 -0.00139425 0)
(1.01133 -0.00169097 0)
(1.11551 -0.0775076 -1.72615e-21)
(1.12266 -0.0818039 5.33618e-21)
(1.1078 -0.0137216 0)
(1.11025 -0.01523 -8.84966e-22)
(1.10734 -0.0163204 -4.39316e-21)
(1.01692 -0.000115583 -7.26755e-23)
(1.01672 -9.93575e-05 3.38077e-23)
(1.01668 0.000250249 1.19756e-22)
(1.0165 0.000399474 1.77992e-22)
(1.05443 -0.00167157 -3.87284e-21)
(1.05493 -0.00301304 -9.67503e-21)
(1.01292 0.000412374 0)
(1.01318 0.00043957 0)
(1.01279 0.000398419 0)
(1.10231 -0.00180943 -2.76209e-21)
(1.10083 -0.000827458 1.70051e-21)
(1.10069 -0.00263612 -4.73878e-21)
(0.873334 0.191124 7.24109e-24)
(0.885295 0.195247 0)
(1.02314 0.000666479 -6.15187e-22)
(1.02274 0.000666256 1.46389e-21)
(1.02296 0.000431526 1.21605e-22)
(1.01676 -0.00214563 -5.9686e-22)
(1.01688 -0.00197793 3.78547e-22)
(1.01699 -0.00200384 6.78259e-22)
(0.790004 -0.053127 4.73325e-22)
(0.817658 -0.0539882 4.09666e-22)
(1.00972 0.00390554 -1.97608e-21)
(1.01081 0.00447735 9.60954e-22)
(1.00992 0.00525479 -8.80208e-22)
(0.99765 0.0146281 1.03881e-21)
(0.998045 0.019131 3.29018e-21)
(1.01894 0.00252762 -7.61995e-22)
(1.01938 0.00205831 -2.13807e-21)
(1.01848 0.00203965 -1.98249e-21)
(1.01705 -0.0020984 -3.23207e-22)
(1.01703 -0.00215311 -2.05644e-23)
(1.0173 -0.00204102 4.83068e-22)
(1.04591 0.170121 1.23615e-21)
(1.02616 0.191527 5.65346e-21)
(1.01662 -0.00227408 -5.07921e-23)
(1.01666 -0.00226488 1.12658e-21)
(1.0165 -0.00237614 5.29305e-22)
(1.01034 -0.000825188 4.97976e-22)
(1.01054 -0.000656401 4.76056e-22)
(1.01332 -0.00161273 3.01517e-22)
(1.01339 -0.00160836 -7.96181e-22)
(1.02182 -0.00716899 7.82444e-22)
(1.02274 -0.00788054 9.83902e-22)
(1.01011 -0.00099299 4.85746e-22)
(1.00852 -5.41512e-05 -1.8592e-22)
(1.00718 6.63916e-05 4.1475e-22)
(1.02667 -0.0163426 9.43086e-22)
(1.02729 -0.0157423 -1.34435e-23)
(1.02752 -0.0167706 1.02658e-21)
(1.06313 -0.0213964 4.42099e-21)
(1.06282 -0.0194917 -9.46799e-23)
(1.06133 -0.0208931 -7.82179e-21)
(1.11829 -0.0215467 -3.26701e-21)
(1.11549 -0.0191353 9.36366e-22)
(1.09836 0.000917769 -7.27723e-21)
(1.09968 1.51264e-05 8.05296e-22)
(1.09811 -0.000677448 -7.06201e-21)
(1.0166 -0.00226835 6.09153e-22)
(1.01641 -0.00229273 -8.62664e-23)
(1.01655 -0.00228883 -3.19679e-22)
(1.02624 -0.0376538 -2.69584e-22)
(1.02436 -0.0363397 5.5023e-22)
(1.02412 -0.0389859 -9.59016e-22)
(1.01656 -0.00186147 -9.04778e-22)
(1.01655 -0.0020513 3.24652e-22)
(1.01631 -0.00218519 -4.96936e-22)
(1.06338 -0.0232504 6.21131e-21)
(1.06498 -0.0216929 4.15617e-21)
(1.00922 0.0062543 -1.63846e-21)
(1.00744 0.00572418 -9.52514e-22)
(1.00886 0.00419297 -1.34795e-21)
(1.01544 0.00293515 0)
(1.01592 0.00287678 8.76176e-22)
(1.01539 0.00263092 -6.73715e-22)
(0.985837 0.191841 2.12066e-21)
(0.994692 0.187535 4.04191e-21)
(0.984381 0.201815 -6.93022e-23)
(1.01655 -0.00232973 7.34948e-24)
(1.12156 -0.0238983 1.49474e-21)
(1.11722 -0.0252214 3.80352e-22)
(1.0079 0.000170919 4.59555e-22)
(1.00941 0.000117694 -2.47221e-22)
(1.00839 9.67416e-05 2.10859e-22)
(1.06363 -0.0389022 -2.35897e-21)
(1.06281 -0.0422578 -3.27782e-21)
(1.01746 -0.00127805 1.80957e-23)
(1.01741 -0.00160054 -7.921e-23)
(1.0171 -0.00123545 -2.86943e-23)
(1.01773 -0.00114944 2.93132e-23)
(1.0174 -0.000862011 -2.47624e-22)
(1.08349 -0.037958 5.83429e-22)
(1.08025 -0.0365503 6.12068e-22)
(0.93946 -0.172099 0)
(0.938349 -0.184938 -5.80131e-22)
(1.0107 -0.0144412 5.51697e-23)
(1.01022 -0.0129422 -5.74169e-23)
(1.01155 -0.0134595 3.96278e-23)
(1.01559 0.00324541 0)
(1.01507 0.00298634 -8.62077e-22)
(1.01436 0.00114872 1.08205e-21)
(1.0145 0.00111902 3.58174e-22)
(1.01431 0.00119334 -7.95279e-22)
(1.03734 -0.0540544 1.46295e-21)
(1.03953 -0.051625 -5.49754e-22)
(1.03584 -0.0514728 1.20675e-21)
(1.02593 -0.00161205 -1.00735e-21)
(1.02629 -0.00136776 1.23273e-22)
(1.02572 -0.00124765 -1.27212e-21)
(0.992045 -0.161852 1.79053e-21)
(1.00173 -0.156322 2.76581e-21)
(0.988694 -0.169059 -1.73478e-22)
(0.983092 -0.162719 2.07837e-21)
(0.994812 -0.15276 7.98706e-22)
(1.01852 -0.00475561 0)
(0.877505 -0.0575074 -1.34787e-21)
(0.861783 -0.0537736 9.84082e-23)
(1.01961 -0.000413568 5.29852e-22)
(1.01958 -0.000358427 0)
(1.01966 -0.000361555 -7.15094e-23)
(1.0985 0.00249277 -4.7901e-22)
(1.02083 -0.00748256 4.07941e-22)
(1.02102 -0.00649368 -2.07734e-21)
(1.0175 -0.000446425 -1.63429e-22)
(1.01718 -0.000290494 2.21594e-23)
(1.01729 -0.000559502 -2.08772e-22)
(1.0084 -0.000138323 -2.13675e-22)
(1.00615 -7.56699e-05 0)
(1.0084 -8.89135e-05 -4.87931e-22)
(1.01087 -0.000274972 8.8117e-23)
(1.01005 -0.000145358 -1.23292e-22)
(1.025 -0.00236657 -6.43292e-22)
(1.02544 -0.00241467 1.07172e-22)
(1.02592 -0.0169355 1.48239e-21)
(1.02585 -0.0158959 0)
(1.06366 -0.0342465 0)
(1.06293 -0.0320585 0)
(1.06132 -0.034069 0)
(1.01243 -0.000434445 -2.47459e-22)
(1.01213 -0.000332439 -7.31e-23)
(1.01265 -0.00048995 2.37831e-22)
(1.02747 -0.00164476 -1.6604e-21)
(1.02808 -0.0017949 -1.97383e-21)
(1.02358 0.000660935 2.17434e-22)
(1.06128 0.156767 0)
(1.07015 0.138121 8.9234e-23)
(1.00786 -0.0112924 -1.88516e-22)
(1.0068 -0.0102929 7.13986e-22)
(1.00822 -0.00980432 -4.76114e-22)
(1.00697 -0.000190555 -9.08432e-22)
(1.01157 4.91856e-05 1.59351e-22)
(1.00977 0.000146246 -1.18263e-22)
(1.01065 8.27166e-05 -1.25612e-22)
(1.00709 -0.00278039 -5.09343e-22)
(1.00582 -0.00323852 1.00821e-21)
(1.04092 -0.0168647 -3.50524e-21)
(1.04057 -0.0181311 1.50886e-22)
(1.03953 -0.0171275 -1.73247e-21)
(1.06449 -0.0364328 0)
(1.06621 -0.0342663 0)
(1.01912 -0.000780159 -2.78451e-22)
(1.01917 -0.000911182 6.41955e-22)
(1.01926 -0.000794154 1.25415e-21)
(0.889217 -0.222768 8.30353e-23)
(0.894295 -0.232099 9.56683e-22)
(0.899254 -0.219035 -4.80717e-21)
(1.01108 -0.00184411 -1.00725e-21)
(0.908801 0.244554 3.33129e-21)
(0.895229 0.251849 6.38777e-22)
(0.899569 0.236353 -1.5092e-21)
(0.994695 0.0640038 3.77068e-21)
(0.979787 0.112283 -1.1363e-21)
(0.963376 0.0681323 1.94119e-21)
(1.00621 -1.59399e-05 1.40548e-21)
(1.00804 -2.68672e-05 5.99861e-22)
(1.00876 -8.09085e-05 -4.04217e-23)
(1.00956 -0.000200556 -1.21952e-21)
(1.01032 -0.000302312 5.87207e-23)
(1.01435 0.00330831 2.0197e-22)
(1.01404 0.00328514 3.59454e-22)
(1.01437 0.00363062 -5.62952e-22)
(1.03505 -0.0564226 5.6476e-22)
(1.03903 -0.0566319 -5.37149e-22)
(1.0491 -0.0375572 -1.35895e-22)
(1.05081 -0.0365341 -3.34479e-21)
(1.04881 -0.0353698 6.81596e-22)
(1.01994 -0.00768588 8.67862e-22)
(1.01936 -0.0069877 -6.46371e-22)
(1.01906 -0.00774764 6.16574e-23)
(0.918273 0.241197 -3.98158e-21)
(0.912981 0.253293 -3.55554e-21)
(1.0193 -0.000332149 -3.37334e-22)
(1.01893 -0.000373612 -7.87764e-22)
(1.01943 -0.000163342 9.31511e-22)
(1.01463 0.00326176 5.2596e-22)
(1.01432 0.00297923 -5.58685e-22)
(1.04746 -0.0388378 -1.36614e-22)
(1.04949 -0.040077 7.49315e-23)
(1.02224 -0.018092 9.71086e-22)
(1.02316 -0.0186807 0)
(1.02208 -0.0192086 0)
(1.02802 -0.0118849 1.32224e-21)
(1.02754 -0.0113235 -1.85319e-21)
(1.02838 -0.0112795 1.38797e-21)
(1.01166 0.00686092 -1.09223e-21)
(1.01024 0.00655174 0)
(1.00423 0.0508127 -7.67362e-22)
(1.0179 -0.0027179 4.09088e-22)
(1.01832 -0.00275344 -1.66339e-22)
(1.01805 -0.00295802 4.09741e-22)
(1.0412 -0.0494727 -6.19234e-22)
(1.03982 -0.0471128 1.32008e-21)
(1.04298 -0.0472643 -6.63302e-22)
(1.05121 -0.0163217 4.71537e-21)
(1.0509 -0.0147149 -1.40956e-21)
(1.01659 -0.00254251 6.44452e-22)
(1.01688 -0.00260672 -5.93558e-22)
(1.01666 -0.00266733 -3.6561e-22)
(1.0356 -0.097303 -3.9883e-22)
(1.04102 -0.204996 2.88963e-21)
(1.051 -0.194956 -9.52297e-21)
(1.03526 -0.195573 3.35944e-21)
(1.02561 -0.0757879 6.24454e-23)
(1.03426 -0.069574 9.76009e-25)
(1.01776 -0.00220726 2.59873e-22)
(1.01829 -0.00218972 -3.75647e-23)
(0.36102 -0.0284214 3.35644e-21)
(0.392677 -0.0377449 -1.19701e-21)
(1.04023 -0.0193908 3.29641e-21)
(1.03975 -0.0207093 1.53137e-21)
(1.03874 -0.0195951 1.10579e-21)
(0.913214 0.234641 1.31408e-22)
(0.913376 0.231169 2.82354e-21)
(1.11448 -0.0703583 -4.40545e-21)
(1.12026 -0.0685922 -2.15998e-21)
(1.01481 0.000632664 0)
(1.01465 0.000827348 0)
(1.01458 0.000754868 7.77667e-22)
(1.06196 0.000721867 5.76205e-21)
(1.06366 0.000611813 -2.02273e-21)
(1.10918 -0.0731517 2.0691e-21)
(1.00905 0.00112952 -6.12108e-22)
(1.00833 0.000253442 -2.1139e-22)
(1.0002 0.0125389 1.09506e-21)
(0.997428 0.0103288 -4.17295e-21)
(1.11961 -0.00762733 0)
(1.11735 -0.00628307 5.33944e-21)
(1.12005 -0.00469768 9.93955e-22)
(1.01322 -0.00148733 7.24169e-22)
(1.01319 -0.0014158 -4.45454e-23)
(1.01313 -0.00139003 1.45838e-22)
(1.01257 -0.000286446 8.91008e-22)
(1.01395 -0.000620643 2.9196e-22)
(1.0325 0.000205184 -1.26962e-21)
(1.03243 -0.000375619 5.13365e-22)
(1.00961 0.000113102 6.93163e-22)
(1.00965 0.000111959 -5.13846e-22)
(1.00847 9.22e-05 4.75701e-22)
(1.02347 -0.00199714 6.82929e-23)
(1.02252 -0.00116876 2.10217e-22)
(1.09567 -0.14971 2.33172e-21)
(1.08792 -0.143343 5.606e-21)
(1.09949 -0.140001 4.65608e-21)
(1.01725 -0.00518722 8.62322e-23)
(1.01738 -0.00543818 2.94698e-22)
(1.01632 -0.00248546 7.97755e-22)
(1.01652 -0.0024539 1.09474e-21)
(0.884402 -0.21425 -8.48506e-21)
(1.00877 0.00327268 -7.82044e-22)
(1.00979 0.00276437 -9.7617e-22)
(1.0175 -0.000508092 2.87557e-22)
(1.01697 -5.81987e-05 -5.86985e-23)
(1.01728 -0.0020135 -7.09048e-23)
(1.03291 -0.0249457 2.13665e-22)
(1.03387 -0.0262422 -1.70725e-22)
(1.03441 -0.0248171 6.03322e-22)
(1.01324 -0.00158643 0)
(1.10415 -0.158464 -7.75963e-21)
(1.04117 -0.0157153 1.50752e-21)
(1.04138 -0.0144599 3.25801e-21)
(1.04006 -0.0147374 3.33053e-21)
(1.02622 -0.00526028 -4.69516e-23)
(1.02637 -0.00562972 2.07392e-21)
(1.02586 -0.00558722 1.53843e-21)
(1.02241 -0.015077 1.38936e-23)
(1.02242 -0.0159909 -8.16455e-22)
(1.02157 -0.015454 4.12928e-22)
(1.00763 0.00378521 2.07198e-21)
(0.782884 0.0548376 0)
(0.788975 0.085304 -4.86965e-21)
(0.78416 0.0416651 1.42587e-21)
(1.03418 -0.0071217 2.22728e-21)
(1.03329 -0.00751108 1.37028e-24)
(0.987321 -0.0562861 3.54919e-22)
(0.989677 -0.052023 -1.22941e-22)
(0.984534 -0.0518505 3.33499e-22)
(1.01687 0.000168205 -1.49634e-22)
(1.09818 -0.0241507 3.83781e-21)
(1.09588 -0.02271 -1.05657e-22)
(1.09591 -0.0251911 3.76593e-21)
(1.2198 -0.075958 1.37809e-20)
(1.21506 -0.0585486 1.11428e-20)
(1.11647 0.0174318 8.42717e-21)
(1.11592 0.0136051 -7.51124e-21)
(1.10064 -0.025608 4.21333e-21)
(1.10044 -0.022729 0)
(1.0321 -0.0232553 5.67039e-23)
(1.03125 -0.0246286 -7.91595e-22)
(1.0048 -0.00711698 2.00488e-21)
(1.00587 -0.00598302 -4.84238e-22)
(1.00439 -0.00538377 -1.23267e-21)
(1.06273 -0.188974 -6.26909e-21)
(1.07321 -0.200125 -2.90843e-21)
(1.00787 -0.000189699 -8.70393e-22)
(1.00925 -0.000100697 -9.91529e-23)
(0.97598 0.193849 2.52566e-21)
(0.985048 0.180848 -2.41494e-21)
(1.0123 0.00588806 -6.29863e-22)
(1.01299 0.00692863 1.50925e-22)
(1.0124 0.000372375 0)
(1.01304 0.000430227 -6.00053e-22)
(1.01067 0.0165616 -1.36926e-20)
(1.02493 0.0585977 1.48342e-20)
(1.00236 0.0104345 2.53939e-21)
(1.00278 0.0139478 3.65781e-21)
(1.03003 -0.214468 0)
(1.04849 -0.217066 -1.38625e-21)
(1.026 -0.00492317 -1.20055e-21)
(1.02652 -0.00500757 -1.63521e-21)
(1.10371 -0.00255516 1.32724e-20)
(1.10357 -0.000768136 3.45078e-21)
(0.898817 -0.112102 -2.11534e-22)
(0.890794 -0.120951 -1.53138e-22)
(1.02741 0.00778086 -8.10277e-22)
(1.02944 0.00757604 -5.37758e-22)
(1.0278 0.00598947 -8.28383e-22)
(1.01655 -0.00396048 2.40699e-22)
(1.01643 -0.00374737 -7.94392e-24)
(1.01655 -0.00381367 -1.31989e-23)
(1.04508 0.176167 -4.09459e-21)
(1.07469 -0.0132591 -5.17041e-22)
(1.07383 -0.0116214 1.04635e-20)
(1.07281 -0.0132252 3.34789e-21)