/*--------------------------------*- C++ -*----------------------------------*\
| =========                 |                                                 |
| \\      /  F ield         | OpenFOAM: The Open Source CFD Toolbox           |
|  \\    /   O peration     | Version:  v2012                                 |
|   \\  /    A nd           | Website:  www.openfoam.com                      |
|    \\/     M anipulation  |                                                 |
\*---------------------------------------------------------------------------*/
FoamFile
{
    version     2.0;
    format      ascii;
    class       volScalarField;
    location    "50";
    object      omega;
}
// * * * * * * * * * * * * * * * * * * * * * * * * * * * * * * * * * * * * * //

dimensions      [0 0 -1 0 0 0 0];


internalField   nonuniform List<scalar> 
18355
(
0.0338003
5.28438
0.021885
0.0216628
0.0223448
0.0758325
0.0219577
0.0566332
0.0233225
5.23948
0.0215235
6.68551
0.0953281
0.0219746
0.0220801
0.0236183
7.00345
0.021735
0.0220234
4.35052
0.0255437
0.0223791
5.70862
0.0223511
0.0246052
0.0221463
0.0220715
0.0231084
3.64149
0.0219451
0.021972
0.0230228
0.0217364
0.0217983
0.0529791
0.0348207
0.0225501
0.1637
0.0229994
0.0215399
0.0219742
0.08365
0.0218859
7.83378
0.0217795
0.172245
0.0502687
0.0238189
0.0448076
0.0217556
0.0215564
0.0218322
0.022277
5.52056
0.0220864
0.0220737
0.104833
0.0221047
3.66159
0.132805
0.0217612
0.061242
0.0217182
0.0429664
6.0563
0.0327662
11.8918
0.0322477
0.0220776
0.0223081
0.0608637
0.0222568
0.142099
0.0217977
0.0567576
0.0219538
5.96469
0.022983
0.0269529
0.0218114
0.0219697
0.793312
0.0253288
0.0455374
0.0221384
0.0935649
4.68254
4.31692
3.3574
6.01552
0.331097
0.0218427
0.0221097
0.0214822
20.1622
5.50626
0.0217744
0.0252275
5.26542
6.11702
4.44602
6.46349
0.0421456
3.16568
0.0225524
0.104809
10.0007
0.135313
0.0309215
0.368459
0.0219178
0.0227999
0.022148
0.0229223
4.76336
0.0220038
4.71421
5.96108
4.48681
0.0422844
5.01252
3.48277
0.0229252
0.0604292
0.0217746
0.146324
0.021828
0.0222617
7.45696
0.0214887
0.0215632
5.47439
0.0459236
0.0250244
0.0418705
0.0222575
0.0219211
0.0215213
0.0219509
0.0779047
3.63013
2.05844
0.0223621
0.0219174
0.410469
0.0222661
0.0256032
6.48416
0.0233604
6.40392
0.0221913
0.02229
0.0498037
3.70591
0.0715751
0.0222699
5.18056
3.66808
0.0222675
0.0659375
0.0268688
0.0243822
0.0299615
0.0253485
0.213015
2.09439
9.60597
0.0421958
0.20888
0.0217691
1.97686
5.31154
0.021527
0.0215316
0.0235996
7.12807
0.0529611
0.0221018
4.53659
23.6687
0.0772498
0.207243
0.0270007
0.0219123
0.244428
6.70653
6.1706
0.224096
0.0233838
8.09481
0.101802
0.0218887
0.0251835
3.4745
0.0481156
0.0223473
5.61652
0.0266929
0.036959
0.0215346
0.0227185
0.024094
12.9175
5.93821
24.3168
0.0283867
3.43509
4.94338
5.04942
0.0365025
0.0219257
0.0221358
4.04681
0.0222965
0.0217708
0.72717
4.20025
4.08069
0.0221553
0.0233003
0.560718
0.0219421
0.0441143
0.0219039
8.30313
0.022181
4.82069
6.77807
0.132457
0.0219255
0.0222738
0.0265185
0.0260727
4.95184
0.0227352
0.0221392
0.0221105
0.194604
0.526274
30.4607
0.0302595
0.2068
0.0220243
0.0217812
0.0222392
8.77237
8.30353
3.16247
0.0705657
0.0267409
0.0227259
6.91799
0.0271753
5.18066
0.022104
4.93038
4.50882
0.0661963
0.0219391
0.0219146
0.0317839
0.0667048
15.848
0.0476513
0.021828
0.0217708
0.0222632
0.229481
0.0816557
0.107179
0.0227656
9.71391
0.241436
0.100027
0.0221819
5.48436
0.0218161
0.0219892
9.5533
0.021811
0.021952
0.102285
0.0219021
4.17096
0.026954
0.0243032
0.0218301
0.0422064
5.9067
0.0230573
0.0216697
0.0219857
0.130705
4.62751
0.022267
0.0222792
4.42885
0.0447056
0.0716633
0.263313
0.0219944
0.0621726
0.0225331
0.0222689
0.217505
0.225453
0.312129
0.139118
0.021498
0.0849399
0.0224464
0.0220224
6.43442
0.0219028
0.23175
0.0822873
0.0221023
0.0215888
0.213269
25.1511
5.13133
0.022148
0.0291381
9.1006
0.0216644
0.549556
0.0265507
0.0331969
0.386974
0.0215008
3.17692
0.0219859
0.0445112
0.0221227
0.0705386
5.47867
0.0222708
18.9781
0.0344873
0.0220428
0.0487086
0.0622069
4.31786
5.44105
2.58994
0.0220888
0.0217121
5.52087
0.0611201
0.0221178
0.0225305
0.390331
0.242785
4.19762
5.73348
0.0220962
0.0232151
3.34301
0.0219137
0.0226424
0.279407
0.0368319
0.0237766
21.8725
0.0222756
0.0472575
0.671634
32.2214
0.0216647
0.0219922
0.0219612
0.0217841
0.0661868
0.0217831
0.0399216
0.0219651
0.0241948
0.0220991
0.0231953
0.0217859
0.0220153
0.021777
0.0217733
0.0232743
0.126897
1.91254
0.0219019
5.28653
0.0346404
1.85239
0.0311912
0.073249
0.022292
5.16708
0.0224683
0.0220086
0.0221328
0.0216348
5.21302
0.0239219
0.021673
0.0421653
0.039374
0.021914
0.0216597
5.18421
0.0223034
0.0218209
4.96729
0.021906
3.42323
8.31369
0.278458
0.0252856
0.0225388
5.30696
0.0222454
0.0219281
4.4099
0.0222692
0.0215291
8.51901
0.0217908
5.23444
0.0405968
0.0577732
7.04898
0.022432
0.0219295
5.69198
0.0747603
2.04219
3.18287
0.0219723
0.0219218
0.0222484
3.91509
0.0436376
0.0220529
0.0222748
0.0222801
0.0494049
3.6693
0.0273245
0.0222087
0.0222753
0.0307362
0.34844
4.65368
4.9374
6.35827
0.0523783
0.0471661
6.12679
0.0219805
0.0218354
0.0219857
0.0218968
0.0639672
0.0220162
0.0216213
6.73028
0.0499962
0.0461232
6.18382
0.0548747
8.54443
0.0218818
0.0217779
0.0219295
0.0219751
0.0222834
0.0222812
0.0220001
1.99385
0.0221451
0.0215356
2.2413
0.135807
0.0218441
0.022729
0.0564
11.0831
0.0233643
0.0217696
4.51345
0.0238021
7.13162
0.0267977
0.0217944
6.51824
0.13532
0.021729
5.3708
2.57341
5.9043
0.0217951
0.021757
0.0256053
0.125078
0.0223669
8.24035
3.33852
5.07332
1.58322
0.0216265
0.0400378
4.58152
5.49864
4.94133
0.0221257
0.0266576
0.0268553
5.09354
6.03091
0.356896
0.022187
0.0219506
0.0221243
0.0444951
0.0220051
5.35749
0.027115
4.90566
0.0219687
0.022231
0.0219128
0.0314619
0.0317988
0.332516
0.0219212
0.0984104
4.64943
0.0289122
0.0219392
0.023931
0.0295437
0.0222719
0.0318379
0.0373378
0.0286862
0.142485
0.0226129
0.0217252
0.0219904
0.0222786
0.0405895
0.0237509
0.0616899
0.0218743
0.0223507
3.03542
0.0215117
0.0324462
0.0224815
0.149373
0.0240767
5.19107
0.0224071
33.0184
0.0258945
0.0239012
4.54666
2.93365
10.7163
0.0289365
0.023731
0.0218054
0.0219516
0.102529
0.0471576
0.0329703
0.0788774
2.06099
0.21685
0.0219275
5.43575
6.46856
0.0228422
0.0219482
0.0322761
5.77185
0.03191
0.0222161
0.0601057
0.132513
0.0545311
0.0302133
3.61459
0.0250165
0.0967458
8.50369
0.429906
6.08899
0.0561154
0.165261
0.0265701
0.0220782
0.022875
0.0219386
0.298921
0.291581
5.61226
0.122256
5.23336
5.80721
0.0560084
0.0238944
6.98862
10.6922
0.0215356
0.137924
5.58024
7.83242
0.0274681
0.0216118
0.0249507
0.0253253
0.0292325
0.0847102
0.0219007
32.6273
0.0233506
0.0248056
5.04307
0.0218687
0.0324203
5.08927
0.0219361
0.0227927
5.27691
0.0217572
0.0984355
0.02151
4.46194
0.0291227
0.0390321
0.0333397
0.0250772
0.12203
0.0248447
5.49137
0.0705453
0.0219157
10.1976
0.0394805
3.63306
7.66171
0.979585
0.322562
0.021915
0.0216394
2.85838
0.0240442
0.0323823
0.0222392
0.0266706
6.35606
6.72686
0.0411835
21.2403
0.0613772
0.0234273
0.0216136
0.0222292
0.0435331
0.0795443
0.0216886
10.7388
0.0290041
0.0446234
0.0220045
5.18705
4.96449
0.0219476
0.0215411
0.0750426
0.0222463
0.0217258
3.49079
0.137632
0.0223551
0.0219477
0.14196
0.0447878
0.0272922
0.0596154
0.0220074
4.34014
0.0493004
0.0221586
0.284693
5.25607
0.0219573
6.66246
0.0216599
0.0219388
0.0223394
0.034856
5.12361
0.0339719
7.40103
0.0324632
3.90944
2.3931
0.0265031
5.46021
0.0220032
9.59332
0.0228175
6.01081
5.12953
0.0221525
4.47583
0.0249745
0.0262012
10.8432
0.0776729
5.06623
0.0218125
5.32937
0.0219583
4.61416
0.0220669
0.0273305
0.02902
0.0218037
0.0216136
0.0497768
3.80344
7.50832
0.0219283
2.45713
0.0262718
0.0218102
0.0221174
0.0279374
0.131972
10.6398
0.0328224
0.0220508
0.0269204
4.58941
0.0271947
0.021906
0.0218009
0.0274795
0.0293305
18.4051
0.0218635
0.779521
0.0486764
6.00794
5.85856
8.79705
0.0215872
0.053702
0.0218857
0.022293
0.0271736
5.96019
0.0218332
0.0218059
0.0217849
10.0729
0.0232987
0.0219407
0.0327993
0.0310118
6.3381
8.27536
0.0219308
0.0219732
6.13486
0.0221552
5.135
4.72273
5.00216
0.17384
0.223447
3.21401
0.0294303
0.0221644
0.0217887
0.0220101
0.0222698
0.02211
0.0223007
8.91809
14.28
0.0221962
0.089268
0.0217681
0.0234923
0.0387519
0.0220867
0.0249986
0.0228825
0.4759
3.01341
0.0613885
4.91315
0.0498967
14.1232
0.0849013
3.87143
5.33818
0.0500989
4.2152
0.233388
7.09549
0.021792
0.0219684
0.0219775
0.0254859
4.11564
0.0217667
0.0222764
0.0798446
0.0218347
0.0437781
0.0411008
0.0222173
2.78853
0.0218922
0.0219731
0.150248
0.0216922
0.168773
0.437699
0.0220949
0.0227028
0.0218117
0.0621673
0.0218275
0.0234485
1.17151
0.0219826
5.58002
0.0221065
5.75085
0.0242622
0.103287
0.0219565
0.067308
0.0377082
0.0221714
0.0221034
5.75344
0.0219442
8.8273
7.96692
0.0227498
0.0221124
0.0220795
0.0215745
3.12946
0.0219488
5.98051
11.9956
0.0443838
7.44674
0.0218294
0.0218865
5.16224
5.17694
0.0245159
0.0220025
0.021927
0.0217786
0.023012
0.0440125
1.1188
0.0247926
8.30282
2.63827
3.52118
0.0331867
0.0218676
10.6737
1.95949
0.0329678
0.0219599
0.0221083
5.65651
0.0220107
3.87776
0.0641488
0.0222529
0.0281005
0.0216251
0.0324668
0.0264056
0.0218378
0.0215201
0.0228978
7.51344
0.0222224
0.0539706
6.00913
0.0220775
0.0219051
0.0453381
6.97859
0.0303104
5.17238
0.0224561
0.0215668
0.0234473
8.97539
0.412928
1.82444
0.0218808
0.0309106
0.0219862
5.1193
0.0216603
2.79737
0.0472715
2.44941
0.0221915
0.0219222
0.221663
0.0219165
9.40795
0.0219479
3.28987
0.0222562
0.0217772
0.0240797
0.597567
4.98732
0.0263464
0.0223828
0.0224539
0.0219152
0.0216823
0.0222809
0.110507
0.0223501
4.12741
0.0237218
5.0054
0.021839
0.0215924
0.934219
5.16581
6.60266
0.0224804
4.28311
0.0218619
7.69411
0.0225107
0.185093
0.0218066
6.74688
0.0218769
0.026377
0.0220483
0.0218936
0.0222617
5.17176
1.99611
4.18961
0.0335687
0.0254508
0.0245103
0.0219902
0.0216702
0.0217575
0.0233368
0.159957
0.0220262
27.9616
0.106421
0.0219997
0.0225402
7.6909
0.103153
0.0233919
0.0243806
0.0331343
5.2147
0.0517013
10.1743
0.0537165
0.0700891
0.162268
0.0219835
0.0218614
0.0798856
0.0414833
0.0218131
4.6425
0.0286587
5.05524
0.0223642
0.279188
0.0336709
0.0631022
0.0273394
0.0220587
1.18587
0.0219173
22.176
0.0220084
0.0220525
5.00568
0.0308263
0.0260659
10.7225
0.0218611
0.0962803
9.01785
0.0219444
0.0707203
7.24329
0.0228943
0.0218651
0.0219307
0.0238322
0.0238539
0.0716776
4.42885
0.0230412
0.0264549
4.48471
0.0216092
7.38145
0.0241844
0.0233339
0.560519
6.78091
0.0217464
0.0219024
0.0236781
0.0216994
0.0216783
7.2819
0.0222707
0.0262149
0.0215986
0.0565946
0.0217284
0.122426
0.907514
0.0227213
4.75226
0.021937
0.0235549
0.0218929
5.03738
0.0283276
0.0218675
0.0219965
0.0221173
0.0218754
0.103246
5.5012
8.80419
8.92097
0.0221838
0.0224236
0.0705834
0.0221446
0.0216665
1.66799
5.33975
0.0237063
0.0219055
8.67777
0.0222262
0.0221861
4.0139
0.0764048
3.97002
0.0232267
0.0218643
4.92602
0.0221705
0.0325604
0.0222224
0.0284871
0.0219782
0.0732521
0.175858
0.0395685
0.0221015
10.2185
0.0227207
0.021872
0.022137
0.0220126
0.0219186
0.0220678
5.71463
0.0223904
5.3609
0.0222239
0.0273923
5.29768
0.0218059
0.294365
0.0232263
0.0217963
0.0236246
0.0710905
0.0220375
0.0218174
0.0221277
0.0219661
0.0522428
0.0216905
0.0224429
0.0291251
0.0220937
0.032015
11.2624
3.85907
3.27145
7.2123
0.100349
0.0628263
8.23026
3.99836
0.0218746
0.0222655
0.0216368
0.126355
4.93979
0.0382915
0.02536
0.0215951
0.0218979
0.0221594
0.0232084
25.8723
16.7912
9.63017
0.0659719
0.0221043
0.0222361
0.0221567
6.56129
2.80264
0.0218027
2.4927
0.0216716
0.0317734
0.022925
0.0405793
0.0311551
0.44462
0.0232234
0.124868
0.0216481
0.0219039
0.0830237
0.0219255
0.0220644
0.0527545
0.215792
0.0221294
0.074933
0.0219272
0.0219756
0.0218013
0.0219524
5.79216
0.0298974
0.023088
0.0221343
4.80771
0.149679
0.022076
0.0321676
0.029925
5.07611
0.802469
5.34497
0.193475
0.0570559
0.111952
0.14076
0.0793092
5.12227
0.0215861
0.021912
0.021909
0.150682
0.0221909
10.0108
0.0217723
0.0221541
5.05884
0.0547833
0.0224108
0.077356
0.0219525
0.0230376
0.755836
0.303054
0.0219461
0.672725
0.131545
22.5491
5.32588
0.0219989
6.46447
0.0219238
0.0649779
0.0218687
0.0218423
5.15921
0.0446037
0.0235638
0.0219074
4.8462
0.0249719
5.58596
6.446
0.022263
0.0216478
0.0246323
5.7213
0.225057
0.0387087
0.0331895
0.223968
0.021979
0.0224086
0.0218006
0.0218925
0.0232068
0.0548745
8.74303
0.0661933
0.108248
5.19103
0.0220024
2.29468
0.131687
0.0498652
0.0221929
0.0219834
0.021915
0.0219187
0.0219444
25.0844
0.157271
5.4883
0.0663375
0.0930757
0.022214
0.0974263
5.99248
0.0236735
0.0247543
0.0218593
11.7189
3.99514
0.093623
0.108602
0.0219805
4.12823
0.022702
0.024579
0.0376921
0.0797793
0.0216492
0.069575
4.84656
0.0222776
27.0151
20.0662
5.46272
25.1807
0.0355622
0.475317
0.0567629
0.0544291
5.4132
0.0218171
0.0331595
0.0216843
0.0222514
6.47169
0.0228718
5.76502
0.0217021
0.0218998
5.03578
0.0219229
15.1386
0.0227754
0.465168
0.0231266
0.0221854
5.94737
0.0243945
0.0640343
0.0218747
0.0217668
0.221913
0.208098
0.0220604
0.0282679
0.787965
0.0567578
2.40794
0.0222619
0.0219489
0.0215266
0.0219198
0.0256158
0.0564746
0.0216365
5.56472
0.0218737
0.0220433
0.0597078
6.89126
0.174087
0.0276419
0.0217687
0.0224863
0.0799371
2.05058
1.21656
11.9432
0.0257491
0.0363138
0.238393
0.0218712
0.0542126
4.73299
0.0219412
0.211973
4.19522
0.36116
0.398782
5.28579
0.074324
0.0220977
2.72487
0.0265879
0.0398687
0.158419
0.021867
0.111545
0.0218715
0.0219731
0.0491734
7.54166
0.034503
0.0219434
0.0410134
8.58279
0.0820538
2.86495
0.0219174
4.11906
0.0216565
0.0767717
0.11255
0.0219042
5.42815
0.0218097
0.0218405
0.0220643
0.0219425
5.44076
0.0753801
0.0222528
5.16951
0.0220819
6.13308
0.0216657
6.7207
0.0477557
0.243274
0.0246777
0.0219031
0.0216826
0.0220729
0.285739
0.11892
0.0221294
0.0402174
2.92942
5.51044
0.0396954
3.83301
6.62205
0.0219056
8.47786
0.0217889
0.222342
0.0220056
0.022079
0.0220159
0.0689559
6.62912
0.223011
0.0998788
4.90129
0.438023
0.262715
4.88203
0.0218725
0.0765837
8.17512
0.0215385
0.0485074
6.12269
0.212686
0.0218874
3.99545
0.0663594
5.79151
6.19768
0.0266556
0.221729
0.0246092
0.0218671
0.0215904
4.86506
0.174815
0.288455
0.162834
0.0219075
5.32257
0.0344869
0.0215073
0.0224712
0.0626359
0.023881
0.022216
0.0222691
0.929196
0.0218964
0.0424132
10.6816
0.0216843
0.021892
4.01793
0.021851
0.0434541
0.0263813
0.13017
2.25514
0.0219138
0.0568615
0.0274169
0.0768232
0.0270487
0.0247074
0.0941863
0.836838
0.0501929
6.26099
0.0838009
0.0221224
0.236385
4.68294
0.0707218
0.0217823
0.0220527
0.129122
0.0229639
6.68083
0.636697
0.0278515
1.86109
0.0233961
0.194352
4.4719
0.0219619
0.0221279
0.0220712
0.0219923
2.32268
0.383528
0.024782
0.194505
0.300036
0.047172
0.0220681
0.0236886
0.0591436
0.0219384
0.0218692
2.08688
0.0226501
4.43887
0.0218201
0.021999
0.0222725
0.070696
0.0382238
0.039566
0.0220821
0.0229668
5.65971
1.81413
2.8294
3.63824
0.0257155
0.0224509
5.96739
0.0907447
4.67109
0.0540709
0.021877
0.0544078
0.0266154
0.0223272
0.0217936
0.0930996
0.0713243
5.49577
0.0838569
0.372052
0.0221789
0.0229562
0.0219161
0.110182
10.1395
0.206111
3.38341
0.0218579
4.86992
0.0227294
0.0219711
0.0240733
0.0221589
0.815623
0.0219571
0.0773103
0.0216789
2.96868
0.0328311
9.51535
0.0224036
0.0220105
0.0243499
0.0217138
0.0932598
3.76885
5.99019
0.0544522
0.0216357
6.23516
0.0582749
0.0219219
0.0670558
0.0217442
0.0237966
0.0215244
0.939056
0.024693
0.07118
0.0526313
0.0217672
13.3023
0.0216377
0.0249166
0.0223793
0.023711
0.0217478
0.0219331
0.0298802
0.0222817
0.0250978
0.0216938
0.0237851
2.00734
4.41055
0.0225059
0.0403654
5.60602
0.0219167
0.0221571
0.0309829
0.108918
0.0219444
0.0580035
5.98603
0.0230686
6.0763
5.37188
0.0219381
0.0225648
0.0598977
0.021468
2.8649
4.05099
5.31775
0.0229648
0.0275989
0.0214954
2.07633
0.028567
0.510248
0.0222428
0.141149
8.48558
0.0723222
0.0234035
5.50514
7.47973
5.28018
0.0224252
0.0217611
6.74186
2.68786
0.0218085
0.0221017
0.47846
0.0225216
0.244249
1.96957
0.0217399
0.0225589
5.86414
0.0654342
0.0225719
0.0214981
0.0421692
0.0223025
0.275639
0.0218744
0.0221108
0.0219553
0.0229982
0.0220677
0.106426
0.0217501
0.0258237
4.22306
4.77999
8.86323
0.0218224
0.0793597
0.0706655
0.0220851
0.0247577
0.0382033
0.0219079
0.0238538
6.13488
0.0555012
0.0219393
0.022
0.0217781
5.28708
5.7527
0.021731
0.0222762
0.0219863
0.05311
5.99369
0.0237176
0.0777101
0.0221428
0.0623447
0.0267473
0.356538
10.8881
0.0222898
0.807437
5.45595
0.0406551
0.0218315
0.0412012
0.0283291
0.0436868
0.026519
0.0218123
0.100779
0.0272355
1.54964
0.041981
0.022219
0.0222845
3.9417
0.0221313
0.0234773
0.219664
0.0425297
6.43748
5.5481
0.0217893
0.270987
0.747125
0.311568
0.0447646
0.0237996
0.0220653
6.49198
0.0454264
0.0218357
0.0713688
0.0668442
2.22449
5.3456
0.0220647
0.0281208
0.022239
0.223914
0.952253
0.0221875
0.060376
0.0259078
0.0233396
0.022189
9.43874
0.0714153
0.0219386
0.023666
6.42122
0.0222614
0.0220107
0.0260217
0.0716363
0.0219585
0.0221611
0.0235147
8.54744
0.0298068
0.0218285
0.0218306
0.0218962
0.128865
0.0219993
0.0219439
0.380444
6.17555
0.0218681
0.0222645
0.0527452
0.0287689
0.090527
0.0221329
2.18337
0.0219054
0.0228628
0.0287679
5.89305
11.7243
0.437644
0.0398231
5.21963
2.04399
9.6829
5.80747
0.0244324
0.0219354
0.0216941
0.0415895
0.021883
0.0219405
0.0219257
0.18471
0.0218801
7.70448
0.031346
6.12029
0.0218884
5.18386
0.0219732
0.0275937
0.0216953
0.0229943
0.0407939
0.646781
0.0221991
0.0218464
0.0248812
5.60702
0.0219077
0.0380937
0.0221937
0.038355
5.15917
0.251132
3.80928
0.0307034
0.231919
0.0221357
5.00098
10.0046
0.0218829
5.69103
1.82949
0.0218943
0.0215239
0.0457847
0.0305074
0.0435208
0.0216976
6.48933
0.0329365
0.0612984
0.021618
0.0219564
0.0259148
5.52796
5.43534
5.49029
0.0418243
5.6099
0.0391739
10.8896
0.0219442
2.67801
0.021974
0.0268963
2.094
0.0232185
0.214944
0.0218735
0.0245455
5.91978
6.94151
0.0219659
2.31191
0.0220024
5.91775
0.0218004
6.29796
4.99487
0.0218194
5.81793
0.0272633
5.8326
0.021972
0.0263592
0.0228929
0.0862829
0.0220227
0.450218
0.0218042
5.7139
0.0859835
6.29213
0.0221283
0.021695
0.39164
0.0230632
0.0318067
0.0218788
0.0834326
0.0245185
0.0219578
2.24777
0.0220291
0.0219369
0.0222759
0.0221001
4.09481
0.0387654
0.0219541
5.96627
3.94061
0.564151
0.0216884
0.0914334
3.46801
0.0218407
0.0257822
0.0223531
0.0220468
0.0219518
0.0219853
0.0271068
0.027835
5.0923
0.335968
0.238115
0.0222776
0.0219537
4.07725
0.0335535
0.0219228
0.0223249
4.79484
5.34646
0.0219689
6.19787
0.0390385
0.561441
0.0222785
5.19881
0.0217535
0.0228102
0.0221011
0.0218866
0.0234767
6.66865
0.0217367
5.17054
0.173882
3.74389
4.64446
0.022103
0.0219964
4.86903
0.066818
0.0969232
0.0219792
0.105609
0.0222264
5.27533
5.8337
3.72249
0.0220671
5.35952
11.7715
5.36329
0.544233
0.0257171
0.129794
0.0218626
0.382744
5.85599
0.0282885
4.25846
0.0218192
0.0220431
0.0698701
5.576
0.0401397
0.362356
0.0219887
8.91021
0.0385268
0.0515981
0.0218214
0.0407926
0.261946
0.0220394
0.0377212
0.0404478
0.243023
0.0215829
0.0219018
4.94116
5.57127
0.023841
4.86219
0.0394905
0.0219966
7.82711
9.10744
0.0220982
0.525126
0.0217073
0.0220689
0.0454402
5.11781
0.0223167
4.94456
0.0235041
0.0219211
5.23
0.0221654
0.065857
0.0218562
2.49896
0.0220276
5.21533
0.0217773
0.0554155
0.0218527
0.0276416
0.250305
5.38801
0.0493269
8.6644
0.0280692
5.54681
8.28429
4.19028
0.0218696
9.65452
10.8333
3.01229
0.333445
0.0224313
0.0218483
0.0219475
9.24079
0.0219358
0.0220442
0.414642
0.0222412
8.52769
0.0230406
5.79747
0.0219388
0.0222301
0.109411
0.0215581
0.0522802
0.0218553
0.0742591
0.0959834
1.80925
0.0218128
0.0218912
5.54125
12.991
0.0222444
0.0302023
0.0344896
0.0226033
7.00091
5.53418
5.43575
0.150747
4.85066
3.56042
0.220279
0.0218993
0.0217903
0.022885
0.0219411
0.0330374
7.00604
6.73278
0.0220903
0.0237757
0.0226535
4.28197
7.48608
7.89903
2.62421
0.0220613
2.59099
5.10004
0.0265222
4.74447
0.0471083
0.0221027
6.04785
3.7802
6.15203
0.0222071
0.0230007
0.043161
0.414784
0.0218192
0.0220314
0.0222428
0.0218298
0.0220423
6.103
0.0238978
0.0216926
9.03009
0.022106
6.07604
0.0414178
5.92352
0.356069
0.0219803
5.75439
0.150743
0.946285
0.0227613
0.0278282
0.022016
0.0230256
6.56806
0.144834
0.0795086
0.0224387
0.0219318
0.150173
0.0232515
0.0220639
0.027383
0.0219341
5.06139
0.022
5.14125
8.98175
0.0233738
0.0219822
8.74209
0.0218676
0.0216784
1.18981
0.0245636
0.0236739
0.0846056
1.87016
5.51592
0.0337672
0.0234954
0.0222909
5.21754
1.85098
0.0235087
0.0340303
0.021874
0.021806
0.0239117
0.0217169
0.288236
0.0285948
0.0220045
0.0222298
0.022095
0.02189
0.0218413
0.0219049
2.57154
4.01295
8.22299
0.362441
2.15772
0.391413
0.0247715
5.18952
4.07945
2.87785
0.0220943
0.0216742
3.69618
5.85064
0.422502
0.22855
7.50946
0.0220968
0.0219226
4.32868
0.0218445
0.139647
0.142794
0.0225
10.1533
4.01286
0.0222611
11.2061
6.93306
0.162861
0.700238
0.0221965
3.80708
0.558019
6.47245
0.0218526
0.0662745
1.87476
0.021916
0.0389261
0.0217301
0.0504422
0.0220901
6.42605
0.798419
0.0220106
0.0231776
0.022393
4.95551
0.042494
0.0221412
0.0222165
4.81249
0.0219113
0.0231804
0.115529
0.476639
0.0225185
0.0829801
0.0487002
0.0219467
0.143827
0.0219365
0.0219587
0.026445
0.0219681
0.0296875
5.3095
0.239595
0.0220032
13.3711
2.89402
0.287192
7.21023
0.0392634
0.0234293
5.62938
0.0260554
0.0241708
0.0465136
0.0772608
0.0218776
0.0217295
0.0221108
0.487537
5.07461
5.65613
5.60421
0.0218233
0.026014
0.0782456
0.165628
5.35687
0.0221383
4.55067
0.0223643
7.75026
0.0215725
5.66554
0.0227209
15.4686
7.02206
0.090878
5.14773
0.0590294
0.0218367
0.0848261
5.40983
15.5709
0.0260676
0.0223708
0.0219563
0.0221009
0.0290686
0.0222868
0.0236107
0.0218202
0.0592408
0.0220116
5.79208
0.0222243
5.03345
0.0216812
0.154066
9.26608
0.0230069
2.25004
0.0220187
0.0272656
0.0221537
0.0222002
0.0219129
0.333595
0.214788
0.0218028
0.0243079
0.0219712
4.42514
0.0304691
0.503212
0.220484
0.0219787
0.048845
0.0226288
0.0229192
0.0465993
0.0221076
0.0554572
9.0026
0.022032
5.30311
0.0274633
0.0218815
0.0217262
10.8117
0.0219957
5.47188
0.183955
0.022269
2.73052
0.117017
5.65043
0.0255841
0.0251987
0.0221033
0.0632294
4.31865
0.0221368
0.0459636
0.0220583
0.0942559
3.03309
1.90819
6.1775
21.9312
0.0295052
2.03458
0.0221461
4.99143
0.5383
0.026289
0.470992
0.0649897
0.0215771
0.0485932
0.0220069
0.0217655
0.0243278
0.0219407
2.32204
2.0014
0.152851
3.88703
0.0220768
3.7186
0.0220622
0.0219717
0.0432686
5.11034
0.0217372
5.4819
0.0980149
0.103793
6.63436
0.0222185
0.0461423
6.69443
0.0443801
0.0219535
0.442523
0.0219618
0.0221304
0.0222416
2.01925
10.4933
0.0255545
0.0221025
4.86124
10.8101
0.0222928
0.0222355
3.73333
6.47112
0.0222449
0.294595
0.122339
0.0218787
0.0294774
0.0217034
4.92542
0.0219846
9.40102
6.204
5.50849
0.0248455
0.032347
0.0218005
0.0218011
2.65684
0.0218435
9.57904
5.22969
0.0798166
0.021849
0.0216932
0.697336
0.309118
0.053237
7.90557
0.09412
3.31059
0.0229451
4.86874
2.59276
0.0264481
0.387701
5.8293
4.88038
0.0220372
7.04717
0.021741
1.50005
0.292936
1.11487
0.0216336
0.0418578
0.022107
1.07186
3.70601
0.0226183
0.0228935
9.80894
4.70139
0.0219728
5.26991
2.98217
2.64705
0.0222158
5.62145
0.0221524
6.34107
0.0221133
0.0226422
0.022206
0.0219768
8.76332
0.320266
0.0217228
3.90045
5.50515
0.0215392
0.0216927
0.0419834
0.0667355
0.0936409
0.0492443
26.4634
4.70962
4.85987
5.96421
0.09372
0.0230824
0.149564
0.115189
5.1092
3.8368
5.78163
0.0977817
0.0509684
0.0245427
5.55503
0.0884486
0.671761
0.0221852
0.0256071
11.2441
0.0220963
0.0291955
0.574886
0.0241117
0.0424075
0.0219902
0.0231093
6.41174
0.312543
0.0216409
0.0256066
11.2305
0.282617
0.0299954
1.83027
2.64033
0.0442241
0.200103
4.78735
0.0225944
5.56661
0.0990603
2.31284
0.0221459
0.0214738
1.83442
4.80484
5.16188
6.82946
3.58922
0.040463
0.0835089
0.0239438
4.81163
0.0218806
0.022029
0.0449069
0.0766452
0.103806
6.17666
0.0228498
4.87591
5.66335
0.0223041
0.0949743
0.0233199
0.212854
0.132662
0.041031
5.99008
5.17428
4.01824
1.99227
0.0321682
0.0219589
0.0225774
0.0272158
1.36427
7.25717
5.50242
9.70536
0.0525903
0.0218023
0.294094
0.0402733
5.05863
0.0220979
11.3239
0.0579422
6.30832
0.0220943
3.05559
0.0945206
0.0665832
2.71086
0.0217243
3.27597
5.53819
0.0218186
0.0881953
5.27366
0.0223777
0.39314
0.0231607
0.0229935
0.0222584
4.98534
0.0466809
1.64878
0.0284134
7.72306
0.0217519
0.0215206
0.0218801
0.0220651
0.0219584
8.05647
0.41489
5.68877
0.0222113
0.0217743
6.85288
0.0282279
3.5713
0.0927506
0.0219165
1.09456
0.0306285
0.0372654
6.42556
0.0262892
38.2254
0.704546
0.0276802
0.0216232
0.263388
0.0215372
0.691099
9.43725
0.212929
0.0217914
7.38812
0.36667
0.0219832
2.23024
0.0221309
6.17722
5.23025
0.0281789
0.0250904
0.0741147
0.0388301
0.0222428
0.0216386
0.0219784
20.5647
0.0253246
2.42906
0.673761
11.4656
0.489407
0.119691
0.0219859
0.209841
7.72594
0.0249692
0.0218679
0.023856
0.0222264
8.83485
0.0844495
5.71315
0.0220024
2.47341
2.68373
4.96257
7.45065
0.0219861
3.03384
1.79028
0.0219735
0.022281
1.90085
4.45437
0.0263067
0.300907
3.54258
6.81906
0.0290774
0.0228984
0.490755
0.0423829
0.0231538
0.0274732
0.0221216
0.0780263
5.68918
0.059157
0.022815
10.6282
0.145094
0.0216487
0.204651
0.240998
0.0741352
0.0503296
0.0216605
0.0217985
2.27888
3.21516
0.0403907
0.0218345
4.41555
0.465294
0.55072
1.92856
0.0234466
0.021655
0.0220986
0.022204
0.0292359
4.84096
0.09243
0.0223875
0.12444
0.0220701
5.47519
0.023108
4.2327
0.0228558
1.16894
0.0497869
5.13396
0.0219483
0.0219585
0.0218024
3.59335
0.0260361
5.1511
4.2779
0.0522014
0.0221714
0.0273887
0.0308243
0.022248
5.76549
0.0216025
4.7815
5.07528
1.28052
0.0279947
0.0219782
0.0222774
0.0220211
0.0222304
0.0915813
7.88123
5.82874
22.7764
0.832255
2.52318
0.0235422
0.328771
0.0688645
0.0489391
0.0219756
0.0216527
0.222175
0.0229917
0.0216468
5.00378
0.652893
0.459541
6.20692
4.00769
0.0220999
0.022128
0.0227291
0.0406941
4.26665
0.0220608
0.0453372
0.538946
1.21977
0.0436043
0.0221372
0.349137
0.0270581
6.1881
0.0220696
0.0217297
0.0219939
0.0219733
0.0227104
5.71231
0.464663
0.0908332
0.138873
0.0895827
0.0218527
0.0483359
0.0226951
0.0221028
0.0267809
6.24523
5.86014
0.0218142
0.276398
0.0218588
0.0563835
0.0232629
0.0280304
0.0221045
0.0877041
0.0565514
5.2593
10.0941
8.21335
10.0677
23.4022
5.11294
1.07317
0.0217181
5.90806
0.0217187
6.77246
0.0257998
4.39784
0.0220931
0.0873929
0.0220545
0.0217637
0.0243125
0.021974
1.69013
0.0216606
0.021937
0.0216379
0.0217052
0.0218033
0.0297152
0.022127
5.12296
0.0497056
0.0219614
4.39947
0.0220388
0.0218555
0.0669704
6.38235
0.03877
0.0285453
0.021766
0.0216058
5.0251
0.0221869
0.0256203
0.15888
6.04345
9.12844
5.16599
5.96259
4.8422
17.9354
4.66467
8.27977
0.074249
4.04801
0.0222269
0.0220203
0.073671
0.0257663
2.52346
0.0221295
0.044133
0.0476204
0.363945
0.084727
0.0388078
0.0233643
0.0219864
0.0468253
0.0220649
0.0217196
0.440396
0.0222438
5.06033
5.54182
0.104996
0.0217857
5.30699
0.0232052
5.30482
0.506831
0.021837
8.60676
5.97271
0.0632437
0.0698463
0.030721
3.56974
4.07705
0.0236235
19.1616
0.0536893
0.0403295
5.67292
0.0221245
10.9201
0.0220386
0.0220757
0.0218255
2.04093
0.253168
0.289949
4.98341
0.0250652
0.0460365
3.22373
0.0217908
6.44629
0.0216871
2.00202
4.75469
10.7197
0.122076
11.8802
0.0219611
0.0221688
0.0238926
6.41921
0.045918
0.0224101
0.0219601
0.0214671
0.0218895
0.0643595
0.174578
0.0816654
0.175018
0.0600471
0.0220031
5.10341
0.0295965
2.24956
0.0226261
0.021748
0.0225535
0.0222321
0.0372729
0.313422
4.81447
0.5527
6.16253
0.455848
0.0218206
1.99855
0.021516
0.0220051
0.0229364
0.0217611
0.0305196
0.0219887
0.0680241
0.021824
2.45809
0.022278
0.0224321
0.0217553
4.31436
1.07004
0.0921585
0.021554
4.73934
0.144954
0.079834
4.89188
0.0577487
2.34315
0.0220756
1.97949
0.195404
0.030051
2.13121
0.0325232
0.0414903
0.710029
0.0282145
16.731
0.0998252
6.06502
4.21746
0.0429332
0.0289401
0.0219677
5.09125
0.022005
3.11364
0.021916
0.0218948
0.0215251
0.0308112
6.68807
0.0238641
0.0219176
0.0221143
0.043797
4.5163
0.105135
2.63602
0.216358
0.0693582
0.0219916
0.0594349
0.0221847
0.0228417
7.10182
0.0316602
0.0382435
0.119123
7.36339
0.157207
0.0423882
0.0756901
0.0607756
0.0244394
9.70064
0.0222154
7.14065
0.0250759
12.5655
0.0941952
6.98533
6.15945
0.0961608
4.78402
2.35618
0.150932
0.305758
0.0915655
0.622464
0.022029
0.082673
0.0561229
10.7074
0.0230911
3.79693
6.75087
0.021507
0.0217613
6.01963
0.0223138
0.0219247
0.0216227
14.2787
1.81466
6.00395
0.0267092
2.90617
0.727288
8.06187
1.77779
0.0792511
0.0220327
25.0698
3.09365
1.90551
0.436956
0.0219589
0.0218352
0.0220141
0.0221125
1.59615
0.141819
4.7954
0.0881869
0.0221439
0.0219619
0.0222878
0.0314264
12.631
0.0236842
9.70129
3.95573
0.0538685
0.0221214
4.81134
0.175957
2.56181
0.0219416
20.4534
0.0952823
0.0221554
5.6796
4.40844
0.023068
0.0217649
0.0221045
0.0222557
0.0219856
0.15632
0.0575675
0.334081
0.0424608
0.0225547
0.0304679
0.0220872
0.0257532
0.0219589
8.31684
16.3838
0.0348332
0.0220252
5.03758
0.0216864
0.183178
0.546335
8.75978
4.21968
6.466
0.0220594
0.0222939
0.0221249
0.241029
0.0226088
3.73377
0.0252924
0.0218937
0.021993
0.161077
0.181212
0.0220743
4.36017
0.0748702
3.09461
10.2578
0.0221162
0.743501
3.88049
0.190776
0.0222877
0.0219806
0.141483
1.40343
20.1598
0.0231408
7.89393
0.0217442
0.0834555
2.35317
0.181129
0.021725
7.89378
5.09485
6.22892
7.63732
0.0222766
0.0221901
0.0815525
0.160639
0.0419754
0.0229548
4.55323
0.0233866
6.83675
4.14598
0.0218842
8.78276
0.021847
0.0861591
6.7337
0.083559
0.0577106
2.08193
0.0240203
9.52078
0.0219787
1.21523
6.17105
2.67933
12.4245
0.0242785
0.0531943
0.0217057
5.90685
0.0229759
0.0217353
0.0474598
0.0535495
0.048626
23.0031
5.00394
4.20322
0.212514
0.0306411
0.0386908
0.0262943
0.0332084
28.8083
0.0232377
0.402226
0.0227958
5.16731
0.616433
0.0222151
0.0221644
0.0423534
28.5289
0.0430594
0.0216154
0.0218846
0.0298196
0.0264105
0.0283109
0.0253208
4.83862
0.0239373
3.77901
0.0739437
0.0219298
0.0701317
0.0698895
0.0406116
0.0218436
0.0220675
3.60284
4.12864
5.04585
0.0418849
0.0460646
0.0531487
0.0475926
0.0219188
0.0235429
3.68678
0.0484361
0.0238118
4.17903
6.04108
0.223419
5.62368
0.0783443
0.0226298
6.1317
0.0653197
4.39355
0.0219147
5.11953
0.0495144
0.0320621