/*--------------------------------*- C++ -*----------------------------------*\
| =========                 |                                                 |
| \\      /  F ield         | OpenFOAM: The Open Source CFD Toolbox           |
|  \\    /   O peration     | Version:  v2012                                 |
|   \\  /    A nd           | Website:  www.openfoam.com                      |
|    \\/     M anipulation  |                                                 |
\*---------------------------------------------------------------------------*/
FoamFile
{
    version     2.0;
    format      ascii;
    class       volScalarField;
    location    "200";
    object      omega_0;
}
// * * * * * * * * * * * * * * * * * * * * * * * * * * * * * * * * * * * * * //

dimensions      [0 0 -1 0 0 0 0];


internalField   nonuniform List<scalar> 
18758
(
0.125252
5.35546
0.0214792
3.75254
5.63778
7.7664
7.95661
0.0217161
0.275301
0.0280088
0.0237325
8.6227
0.0220473
0.17377
0.0232179
0.631276
0.0397017
0.0219429
0.0219631
0.0313169
7.33161
0.022271
5.28111
0.74468
2.70379
0.0217202
1.73865
5.96517
9.10119
4.40136
0.0618421
5.47809
0.0221819
0.0227478
0.12374
0.0221724
0.0222265
0.0220314
0.0223031
0.0424376
0.022029
0.0267812
0.0216554
0.0263224
2.38739
0.0216204
5.13325
0.0240443
0.0275675
0.0216236
0.152564
4.60858
0.0215483
0.0235059
5.68263
12.3785
0.0222172
0.363147
0.0219518
0.19699
0.102215
6.85059
0.119696
0.0228996
0.0215575
0.0220123
0.0432151
0.0221776
0.0219482
4.47712
4.3381
0.0223547
0.0216299
14.1867
0.0216907
0.0219463
0.250632
5.30193
0.0904809
4.99617
6.13853
5.57957
0.198006
7.33852
0.258308
0.0300544
21.8644
0.118751
6.34053
0.0219461
6.95975
0.0219528
12.2059
0.027225
6.22387
10.9434
0.248493
0.0216898
0.0218969
6.07625
0.0328524
6.29495
0.0808875
0.0478138
7.24281
3.15988
5.36242
5.48305
0.0226796
0.022336
14.1735
10.6075
0.0217602
0.0220618
7.66235
10.6281
7.67623
0.0232166
6.48356
5.95028
0.0379578
0.0219659
10.4339
1.39579
0.606224
2.25958
4.00896
0.608214
9.55325
0.0220545
0.0408582
1.60528
16.1246
0.0501784
4.79795
0.023933
0.245101
0.0441639
0.0218946
0.0794171
0.0907124
0.252827
0.0219785
14.5068
0.0220343
0.0220587
8.31146
6.58749
0.0607585
7.07659
4.76086
1.64742
0.0300359
0.0222707
5.27561
0.0280742
5.88342
0.0240504
0.0221976
0.0222888
0.0218094
0.191143
16.7832
0.0221902
0.102078
9.00937
0.0220081
10.6176
0.247374
7.81642
5.22193
0.021938
16.3895
5.87309
0.18842
0.722407
8.47621
0.0229997
0.0777189
0.0221417
0.0217979
34.323
0.912928
0.0216633
0.0253054
0.610333
0.0219204
8.7573
0.0216395
0.0219312
0.0505214
0.547501
0.0224374
0.0580916
0.0343731
0.122073
0.0319785
0.284415
0.0221488
0.0216486
0.0748155
0.0239843
0.0372634
0.0850015
0.0220358
0.0339006
0.0851459
0.0222787
7.94947
0.0275858
0.0219303
0.0505231
0.0222332
0.0369484
0.0798043
6.15668
0.0866675
0.555173
0.0216367
7.873
0.0219301
0.0226988
0.217381
6.72275
0.316216
0.0830003
0.0598244
0.0475172
0.0216217
0.0871096
0.0220061
0.121577
5.11439
0.26108
0.0220638
0.0219213
0.0216229
0.0216449
10.868
0.0371252
0.0218367
1.1267
5.42149
0.0230658
6.94807
34.8552
0.256354
0.0221789
6.16978
0.0299667
0.0221535
9.98738
0.0301026
0.0304575
0.0226125
0.0413394
0.483787
0.683679
0.0360436
0.0880191
0.0216908
0.0676465
0.0220313
0.0839986
0.0271262
0.21557
10.9864
0.0216412
0.0225628
0.471422
0.0224919
0.0250662
0.0851431
9.27396
9.58975
0.021972
0.133267
20.0012
2.45859
0.0226348
0.0217578
0.0293806
0.0373084
0.0219713
13.2354
0.869981
4.38211
29.0784
5.29238
0.0216404
0.021472
0.0525986
6.80694
0.0256996
0.0882931
0.120383
0.0293926
5.87595
0.0219261
4.5767
7.52728
0.0216325
3.91588
0.038137
0.0219766
0.0335098
0.09191
0.0229201
0.0221575
7.28909
4.44812
0.0219272
9.01514
5.92283
0.283776
0.0220166
0.0221446
4.54017
0.0230334
0.0216573
0.0217893
0.0230711
0.254288
0.0936484
0.0293595
0.0361042
0.0314692
0.0505072
0.0216743
0.0222784
0.585606
0.057143
0.142812
3.65227
0.0260899
0.022384
0.0221347
4.57105
4.03601
0.0216344
0.021918
0.0216357
0.0238177
0.0448912
1.92589
0.0219651
0.0222279
0.0216148
0.839588
0.228985
0.19445
0.167485
0.022935
0.518673
0.117701
0.0376527
0.0316991
7.94099
5.92967
0.700441
0.0220478
0.0335932
8.5995
9.15324
0.0250657
0.0216445
0.0592036
0.0219915
0.029973
8.08973
2.56195
0.106122
0.030722
9.06763
0.0220024
0.0239686
0.0219043
0.0223086
0.102131
0.024119
8.15719
0.288004
0.0225297
0.0219314
6.66137
0.103631
0.270825
0.022001
0.0499688
0.0217469
0.026171
0.0219662
0.0216503
7.72223
7.21673
4.22525
19.3046
0.0219178
0.231307
4.17324
0.0422252
0.0217546
3.64983
0.0217851
0.0221119
0.0217936
0.105654
0.0219562
0.026198
0.155013
10.0456
0.0217748
5.41862
0.0462051
0.0220229
0.0257762
0.0219727
0.0219197
0.0286819
0.0635804
0.0498536
24.1793
0.0393591
0.0220444
0.424207
5.83259
3.87535
5.28689
0.097822
0.0225631
0.0216508
0.0218396
0.0222531
0.106122
0.0408665
0.0318999
0.0366713
0.0300482
0.998219
0.0830512
0.0219662
0.0350396
5.90852
0.0228734
2.56101
0.0222374
0.022083
4.90718
0.0282685
0.0224929
0.482952
0.127289
0.0518487
8.77499
0.0219514
0.022685
0.761508
7.61518
0.0364416
0.0752678
0.181692
0.726912
25.4862
0.177435
0.022326
0.152912
0.0220605
0.108236
0.0231849
10.7427
0.0491967
6.08488
0.0317365
0.0684802
0.0216335
0.771174
0.0216359
7.50928
0.0219089
0.391935
0.0220583
4.79656
0.0308147
0.0220899
0.0219016
0.0217856
5.66843
9.50212
7.66953
0.0427642
0.0247327
0.0922266
0.0222702
0.0222873
4.70354
0.0219025
0.0220628
0.123494
0.022042
0.0731939
0.0914863
0.0220582
0.0219547
0.028109
0.0227792
0.0286417
6.84377
0.0319906
0.0361231
0.0268644
0.0220486
3.65469
0.0223712
0.0226824
3.64939
9.95546
0.0657274
4.92532
0.0252926
0.022653
6.9405
0.0219874
8.43881
0.355802
0.0220836
6.87423
0.585776
0.0597711
0.0218745
0.0544308
4.38629
0.0220347
0.0218817
0.0232776
0.022904
0.0220759
0.0217048
0.0222939
10.5244
0.0252249
8.92296
0.0219692
0.172571
7.71994
0.0220372
0.0216464
0.02518
0.0221298
0.0227057
0.0233779
0.0221277
0.114942
0.854888
0.0215481
4.44987
5.12129
0.0358751
0.151254
4.56462
0.0265475
0.0311799
0.0282374
4.43984
0.0251276
0.0434389
0.0220175
3.04685
0.0412025
0.23099
0.139376
7.71464
0.025074
0.0219436
0.0597179
2.32968
0.0226407
0.499857
0.0222632
5.76048
0.0228012
0.0218066
0.021782
0.022048
5.03786
5.80182
0.0220152
0.354129
0.0309146
3.8125
6.9298
4.47499
2.05889
0.0219398
6.3738
0.0571161
0.0219958
0.04427
4.51864
6.06778
0.0227254
0.0226041
0.0220243
0.0215152
6.72784
0.112453
5.68871
4.48069
0.0220519
0.0221408
0.0567763
0.022281
0.0218114
0.0233531
0.0230633
0.118182
0.0403689
0.24368
5.42038
0.0755982
0.0220652
0.027642
0.130164
4.99007
0.041909
10.2714
0.0528887
0.0220203
0.315356
4.89792
0.0224983
0.0216533
0.147535
6.70026
0.274214
0.0220426
7.11956
27.3939
3.0857
0.0216173
7.01991
7.37275
21.9647
0.0241099
0.0221964
7.98548
0.0222945
0.192154
6.38369
0.242379
6.76722
0.0795578
4.71538
0.065095
0.0221206
0.0225834
6.30948
3.84737
8.76296
2.90234
0.0219868
0.192647
0.0222771
0.0607331
0.079598
0.143311
0.0220884
0.0253084
0.219873
4.34892
5.87574
10.4095
0.0389135
0.0328984
0.263037
0.022265
0.021722
0.0219542
0.0257928
0.0642779
0.0220346
0.074902
0.0218561
0.0220858
0.0219058
5.72954
0.0223572
0.0222696
0.0533733
0.0518945
0.0215528
10.099
0.0219936
0.0217283
0.0562374
0.0371988
0.0249354
0.0229172
8.55618
0.0362557
0.0350137
4.99508
0.0350232
3.74234
0.0261152
0.114628
27.0887
8.68008
0.0216455
4.39358
0.654074
0.021689
4.93985
0.022065
0.0218932
0.038913
0.0219509
0.116471
4.81398
0.0216335
22.8955
0.0219114
0.037694
3.85727
0.021533
6.34788
0.0235781
0.0220127
0.0219224
0.0219512
0.26146
0.0742927
11.3252
0.0778009
7.46166
0.0571592
0.0220366
0.237496
9.21268
2.99503
0.0771859
0.188675
0.0565639
0.0267447
0.260589
0.0227393
8.40352
0.0220353
6.03464
0.0228177
0.0771534
0.0281467
0.0223784
9.04644
0.0226035
0.0218186
4.50124
0.0236249
0.0219085
0.0425068
0.0918887
0.27018
3.56585
5.20259
5.29978
0.0221333
0.0222049
6.11889
0.0219915
1.15438
0.084787
0.023816
0.0220617
0.0331223
0.0219903
0.0219742
0.0287167
0.921366
0.242806
0.153777
0.064921
0.0221337
0.054905
8.38906
0.0218646
0.0802872
0.0239542
4.67764
0.0233016
5.69795
0.0220299
0.722531
0.0222766
0.0775992
0.0220002
0.0254351
0.0302547
0.0215378
0.0217101
0.0215872
5.73396
31.0691
0.0321279
6.74827
0.0220264
0.0402657
0.0280906
0.285659
5.10495
0.032225
0.021548
0.236966
0.021858
0.0220256
0.028086
8.82831
9.81406
1.19281
4.45731
0.0751281
0.0229979
0.0219052
6.4585
0.0218965
3.16441
0.0275537
0.0221855
6.24829
8.17796
0.0220908
9.4827
0.0272208
0.0970712
0.100704
4.96504
8.1024
1.69714
0.0219992
0.0215116
5.33623
0.021981
0.0219464
0.028147
0.0219989
5.45536
0.274793
0.0572827
6.47233
0.0469999
0.119187
0.0238713
0.0219912
0.0215403
0.0217845
9.56538
7.85871
0.464507
0.0220576
0.0215412
0.0307646
0.0218456
0.0394861
0.0257862
4.00932
5.05721
0.0743122
0.276228
0.569832
0.0219061
0.252414
0.0219083
5.17363
0.648643
5.73009
8.02586
0.0231109
0.0287984
5.62651
6.42306
6.23995
0.0455868
0.139724
5.78254
0.0220484
0.262594
1.60146
0.111599
0.0220426
0.021994
0.0403312
4.56438
3.09776
0.100903
0.0219707
0.0250495
0.0290781
53.9678
0.0223145
0.748793
0.0218923
0.0227681
0.223916
0.0218664
0.0220219
0.0232963
0.0271706
0.0219776
0.0227187
0.0216206
5.08461
3.28969
5.17125
0.0216457
0.0504015
0.0220135
0.246389
0.26332
0.0374684
0.0218957
0.0229234
0.670602
0.123221
0.0288662
7.46731
0.10774
0.021961
0.0220518
3.81635
6.40377
0.0642555
0.0216211
4.45184
0.0221266
0.0360017
0.0216727
1.76753
5.34541
0.0218624
0.0220584
3.59932
0.021952
6.57501
8.65648
0.0543741
0.0222853
0.0221665
0.0216686
0.0220363
26.6126
12.46
0.15126
0.0228932
4.53811
0.0219533
0.0219323
8.49694
0.0217622
6.04803
0.021519
0.0290201
0.0233612
0.0219349
0.0218473
0.0221215
5.30582
0.0225195
0.0221942
0.158887
0.0405571
0.0219731
0.0595376
0.0372875
0.0221265
0.295873
0.0219785
0.0374628
5.7465
0.0857356
0.0219565
0.342456
0.0820607
0.0919146
0.02672
0.0590182
8.87583
0.0245057
0.057803
0.0219509
0.0216056
0.0220077
0.0422527
0.0370209
0.0438301
0.0218915
0.0274597
0.0576686
6.82865
0.264125
0.0219291
0.0217859
0.0228605
0.108877
0.0218171
8.78522
0.0219574
0.0219721
0.0217849
0.437741
6.37026
0.0221553
0.0236512
0.0218853
0.0872099
0.0218111
0.0219652
0.770125
0.0222704
0.021611
0.0221326
0.155404
0.0217977
0.0218907
3.76532
12.9394
0.631548
0.0437415
6.30923
0.0507862
0.0219526
0.0219074
20.2025
0.0219664
0.0634883
0.0775648
0.0411524
0.0268287
0.022397
0.0308529
0.0228851
0.0216278
0.233804
5.07285
0.0441586
0.0217897
6.29074
0.04337
7.32425
4.59592
0.0948357
0.0221417
0.021949
0.0218678
0.0549678
0.0221283
0.0218451
7.2541
0.159755
0.0412265
0.0219083
0.0692876
0.372914
0.0220981
0.0265307
0.0366022
0.143643
0.0677818
0.022035
0.0234331
0.0373298
0.0218232
0.0502198
0.0223293
10.1635
0.0600122
0.130467
0.0217958
0.0372615
6.53771
3.80857
1.31514
0.06497
9.91369
0.0221314
0.0219539
0.0227188
0.0938394
0.02217
0.0234899
0.0310062
0.0545526
0.0220036
0.0219555
0.0220518
0.022277
2.78027
2.82657
1.31123
0.0219959
9.28134
0.0298347
0.0221556
0.0317925
0.0218934
0.0902318
0.0230239
0.0219707
5.28007
35.809
6.04629
0.022414
25.4358
0.0219692
4.6167
5.4085
0.021555
0.0563855
0.30115
0.0216274
0.0219642
4.40663
0.0223278
0.0220203
0.209402
2.16677
0.0220305
0.030948
0.0221512
0.0252051
0.122534
0.0221672
5.67194
0.041888
0.0219611
1.83413
0.0616104
0.0747654
0.0222881
0.378528
0.0220684
5.24123
0.0219707
0.0217762
14.7246
0.021705
6.28474
0.0219664
0.0552628
8.17884
4.61259
0.0220064
0.0223681
0.0220291
0.0232962
0.0269324
0.0267869
0.0214937
9.92304
0.0218856
0.0220006
0.154108
0.216626
0.0442623
0.02203
4.37421
0.0866344
0.0224168
0.0354902
0.0219208
0.0217733
8.68239
0.0216361
0.0217802
0.0218268
6.68736
0.0218377
0.0218461
5.46462
0.0252471
5.23418
0.0321194
0.0215203
0.0218818
5.17848
0.0261595
0.022009
8.08265
5.11835
0.0217955
4.33961
0.126656
0.0219623
0.0220339
0.339894
0.0222211
4.704
0.0337026
0.0220348
2.58987
9.63451
0.243374
0.0218973
6.93446
0.0301638
0.415399
0.991115
0.0219151
9.0274
0.0220119
0.0320525
0.0262595
4.30931
0.0216929
0.0224399
4.76545
0.0222731
0.0358571
0.0216995
0.0221183
5.76149
0.0929897
0.0253215
0.03593
1.56747
0.0223347
0.0233862
0.0550242
0.119339
0.0254378
0.0219575
0.0219239
0.0221478
0.0226279
0.0218504
0.0341457
0.0276729
1.91596
0.0220103
9.81647
0.0219963
0.0283506
0.0219855
0.03654
0.0221125
0.0219373
4.87735
5.57426
0.0241199
0.0220988
15.5556
0.0277205
14.6607
0.036965
0.072517
4.66015
10.34
3.72438
0.0231091
0.022033
0.0218065
3.8031
0.0218333
0.0220238
0.157817
0.0218529
0.0221867
0.0220669
12.0526
1.64258
0.022182
5.41714
4.80443
0.0240286
0.021943
0.0222096
3.74748
0.0217079
0.0873859
0.0222883
0.0219861
0.0221133
0.0217641
0.0712207
0.0220008
0.0219257
0.0217953
0.0216287
0.456137
0.0216152
0.0218243
0.0221496
0.0219581
0.280262
4.42938
0.0604961
0.0226363
0.0220175
0.022194
0.0222249
4.07615
0.0219459
0.0318005
0.069059
4.37603
0.0219585
0.0219199
5.44982
0.0221265
0.109144
0.083328
0.0224686
5.56718
3.74308
0.0312061
8.56247
0.0281246
0.110202
0.0214987
5.74817
0.0220518
8.06621
0.0220526
0.0218513
0.917873
2.34205
0.45605
0.144282
0.0219102
7.21155
0.0221777
6.56132
0.0527953
0.0219357
0.0215015
0.0219408
0.0520849
0.0626714
5.61596
0.0387935
0.0219015
0.0219433
0.0219557
10.9144
0.197878
0.0336385
0.0221466
0.0219109
0.030063
1.09334
0.0219688
0.0329623
0.0695529
0.0219445
0.023911
0.023191
0.0576863
0.158754
0.0244707
0.0792056
0.0216044
0.0220183
7.88564
0.0407608
0.08773
0.933883
0.0216198
9.48921
16.19
0.0515988
5.92415
0.0219404
5.09274
5.88734
0.0948458
0.0218017
9.62845
0.128281
0.0219982
0.0375403
5.77465
0.0226961
0.0219787
0.0399805
0.0222713
8.76386
0.0308863
0.0220969
0.0222821
0.0218837
0.0688695
0.0324262
8.92573
0.0855156
5.01721
0.0789946
0.022261
0.0219429
0.703566
14.4245
0.0219777
0.0219077
0.162762
0.0221422
0.29445
4.62939
9.3261
0.0219606
0.0219932
6.92658
0.0217684
4.8752
0.592684
0.0217327
5.79011
0.0595039
0.0829162
0.0219755
16.483
0.0220368
3.72533
0.0215123
0.0463536
0.0229233
0.0216963
8.81249
0.0227747
0.0219861
0.0234563
4.78034
0.0220846
0.0216086
5.32171
0.021913
0.0216793
0.0221243
0.0252737
0.022062
0.0221862
0.0280812
0.0221805
0.026547
0.0215774
0.285975
7.02753
0.134945
4.90865
0.0279567
0.0265142
0.0218887
0.0218352
0.0221639
7.42191
4.38753
0.0219183
0.0222777
0.0219206
23.6427
0.0216019
0.292988
0.609879
3.71668
6.21586
6.88401
4.50546
0.0216587
3.91619
5.34592
5.67372
0.0263226
0.0221696
0.0401143
0.0216516
4.22626
0.111537
0.0588428
0.0269707
7.89904
0.0219976
0.0214901
4.57574
0.125529
0.0220007
0.0215306
0.0414014
0.0221232
17.0698
3.08026
6.40278
3.80349
0.0718606
1.91831
0.0218546
0.26939
0.0221145
0.0219627
0.0216687
5.44495
0.0221721
0.0218348
2.42756
5.06075
0.274169
0.134515
0.0229761
0.0394184
9.55421
11.4347
5.18019
5.23484
0.123663
6.26854
0.230809
0.5512
0.0514229
0.0388347
0.0218908
0.0366046
0.0318644
0.0220548
5.41326
0.0218215
0.0219962
0.0220027
6.28682
0.025743
0.0218175
0.0218466
0.0219714
0.137135
0.0910655
1.33341
0.0227749
5.70541
0.021524
0.0219254
0.0809675
0.0711094
0.0215079
3.72069
0.0390671
5.29129
0.021991
8.70027
0.0633455
0.0219304
0.0220625
0.0219614
5.86481
5.77316
10.0762
0.0219869
0.0222741
0.0215831
5.23053
0.0284462
0.0220691
0.667658
0.0219429
0.0226423
4.44464
0.0216196
0.021956
0.0220746
0.0221454
0.0214905
0.0225118
0.0215221
0.0222722
0.0713475
0.039859
0.0218399
9.19696
0.0238569
5.19598
11.0459
0.0517763
5.84417
5.27927
0.0218202
0.0393199
0.0220311
0.0218517
4.53804
0.0263482
6.70122
0.027503
0.112881
0.0221033
0.0233308
0.0219154
3.72715
0.0439568
5.18688
0.0220974
0.120422
0.0287872
0.0218056
0.0361695
0.0387071
0.0215565
8.66197
0.0221026
0.0384943
0.0220111
0.0307721
0.0502712
0.204496
0.0267545
0.0700158
8.81226
0.0300565
0.0378663
0.0216154
6.32975
0.0599332
0.0222715
0.0757279
6.09401
17.4864
0.0219758
0.0229413
0.0221731
0.0215986
0.0219456
4.29452
0.0282035
0.0220863
9.36928
0.0221179
0.0215959
0.0259114
4.87928
0.0222048
9.05644
3.88954
0.105684
7.23272
0.0226845
5.18352
0.522079
0.0216207
0.0286951
0.0220385
0.0223998
0.037132
8.36069
0.0561556
1.49476
0.405537
0.0219106
6.84925
0.0219091
3.71535
0.022268
28.9428
3.80643
0.0221612
0.0217731
0.0222786
0.0320218
0.0825747
0.0219719
16.0652
0.0230832
0.039472
0.0776838
0.0231425
0.0219259
2.9047
0.0217714
0.207258
0.0295621
21.3137
0.0221283
0.0219005
3.74072
0.021469
0.0217617
0.0225976
0.0607698
0.0494623
0.261588
0.0244029
0.0217681
0.0251819
0.0223032
0.0225527
6.16575
0.0219466
0.0495003
6.38903
0.18862
0.0219544
0.0883668
0.0218799
0.0222087
0.428719
0.278323
0.0879867
0.0222394
0.0219542
0.0247969
0.0762065
0.0218996
0.0299399
0.0219075
0.0222715
0.0218469
0.0220654
3.71283
0.021561
10.2294
5.62344
0.0251953
0.021688
5.07959
5.77721
0.021808
0.0219743
12.4252
0.0223363
0.0651568
0.235504
2.40147
0.0219182
0.0228548
0.0493233
0.0219828
7.32112
0.209304
0.0218202
0.0314695
0.0386176
0.0220924
0.310417
0.0221548
0.0511925
0.022946
0.0249175
0.0215352
0.0219093
0.26935
0.0219822
6.87391
0.0600972
0.0220097
0.0219977
0.0219854
0.0218773
5.87462
0.0222717
0.197673
0.0219077
0.0218654
0.0565399
4.67871
0.0217729
0.0215613
0.02194
0.0226148
0.0301158
0.030221
4.57763
0.0286398
0.0218436
0.154454
6.09
0.022289
0.0309023
4.56956
0.0356817
0.0224562
8.06433
0.021491
6.91264
0.0404812
0.0220692
0.0702203
0.0218811
0.021928
0.0219434
3.70633
0.0220298
2.64609
5.99746
0.546034
0.0293892
0.021967
4.56372
0.0222778
26.3604
0.0217304
0.688984
0.0259285
0.0753038
0.0227166
2.69143
0.0290169
0.0222245
5.60927
6.08081
0.0215642
3.82427
0.02199
0.0313501
0.0217526
32.5074
0.639174
0.0223311
0.0220435
3.87188
0.301798
0.0218583
0.0235181
0.0220327
0.0218107
0.0217176
0.0241088
5.96409
17.1828
0.0224991
0.216942
0.0237698
0.0591937
0.0220034
31.4132
5.83672
9.1767
0.022773
6.62637
7.86931
0.0250197
0.0303162
0.021883
0.0477794
5.85433
0.0222109
0.021718
0.0217713
0.0273529
0.0215894
0.021985
1.3423
0.0231456
0.212501
0.0220413
0.0219723
0.0225527
0.0220449
0.186163
11.8169
0.0217921
0.0413278
0.0215496
5.55617
0.0218257
0.0243382
5.35128
2.62684
0.0263511
3.55419
0.414307
0.0220679
0.0621522
0.0221416
0.0323258
0.0222351
0.0219262
0.147576
0.110029
3.99028
0.101477
0.0352212
9.60175
0.0233439
0.041037
0.0227819
6.04038
3.72651
3.01177
0.0219536
0.0215206
6.45649
5.47581
0.0221321
4.99712
0.0221406
0.0269025
0.0214977
0.0218919
0.0218304
0.0218449
0.235472
0.0412666
0.0389719
0.0219775
0.0220207
0.0216463
0.0218286
0.0218179
0.0222627
0.0219328
4.09759
4.4638
5.24861
0.0237015
7.78434
0.0555095
7.50294
7.88456
0.0556462
0.0221137
0.0222695
0.211569
0.0224388
4.19957
7.76391
0.0226177
0.0217026
0.0305477
4.95153
0.0219957
7.17747
0.0218738
0.0221027
7.9055
0.0219298
0.0289054
0.0221655
4.43083
0.0215943
0.0219457
0.255491
0.0216299
0.0220581
0.0219022
0.0217034
0.0689879
0.0219056
25.6308
0.0220239
0.0222172
0.0214814
8.43969
0.0344679
0.0222376
6.17584
0.0220894
0.02157
0.279071
4.49662
0.0221318
7.65941
5.68518
0.0263911
4.43119
0.0221122
0.0219829
0.0823004
0.0216814
5.38235
5.04328
0.0214949
0.0261494
0.0218895
8.33563
1.29317
0.0420821
0.0221456
0.496034
0.0367082
0.0500028
0.0268634
0.02203
0.0225888
0.0219051
0.0218144
5.97322
0.0214557
0.021816
0.0412014
8.977
0.0704061
7.60136
0.0220157
0.0426448
0.0219072
0.0220165
0.0221024
0.0217661
0.022154
0.021916
0.0221032
0.0221727
0.0242983
0.0219955
0.0221791
0.0216873
9.3159
8.11077
0.0222302
0.0228032
4.09179
0.0222103
0.114469
5.02701
4.22671
7.75027
0.947034
7.67521
11.1125
7.17915
0.0217912
0.0301266
0.0218841
0.0507691
0.024662
0.0222237
0.021801
8.70489
0.0216401
0.0300811
11.479
0.0215964
0.0217414
0.079372
0.0217045
0.0219056
0.0218992
0.0222201
5.1178
8.88307
0.0220379
0.0219474
0.022058
0.0229025
0.0438204
0.0229166
15.0175
0.245687
0.0221945
5.48636
0.0314011
0.0219426
6.1965
0.021604
0.0488537
0.0217765
0.0224145
0.0224286
5.21999
0.0219464
0.0219633
0.0239498
0.0223482
0.0303777
0.0218272
3.08184
0.0397897
0.0449034
12.9995
7.0343
0.100313
0.0321903
4.49885
0.0220134
0.0220037
0.0252465
4.65221
0.0500101
0.0499846
7.0868
0.0219767
4.7053
0.281469
1.63682
0.0220004
0.0364128
0.0218806
0.135954
0.0337754
0.506576
7.03184
0.022016
0.0356365
0.0278657
0.0219349
1.21986
0.0219685
0.0300922
0.162061
0.0912258
0.0219531
0.0222948
0.0222285
0.0562731
0.0219516
0.0222327
0.0219623
0.0220797
0.0216722
0.0384257
0.0215489
1.07881
4.09712
0.0225705
0.0217597
0.021568
0.0431575
0.0349912
0.0221277
5.90941
0.0503851
0.0217742
0.0218186
5.98389
4.04527
0.0219389
0.196689
0.0352345
0.0220084
6.53923
0.0227068
0.0761481
0.022234
14.5231
6.65821
0.0222563
0.0344657
4.90186
0.0349955
6.90741
0.0222394
0.0255563
4.2692
7.10875
0.0252685
0.0255263
0.0225843
0.0245092
0.0229388
6.14807
4.07382
3.79811
0.0236089
0.0219946
0.0537131
0.0219093
0.280801
0.0248539
7.95386
0.0215892
0.0221893
0.021773
0.0219281
0.0218465
0.0731282
7.98398
0.0302229
0.021625
0.0221058
11.0889
0.0236025
0.0238507
0.0221559
0.0353852
6.14751
0.0217069
0.0218703
0.0385534
0.082523
0.0221152
0.0405663
0.0223563
0.0237508
0.116693
0.028916
7.23177
1.34326
0.0488668
10.9049
0.0218582
0.0219064
0.0231158
7.68676
0.023321
1.66833
0.0216989
4.79487
0.0355746
0.0218712
0.0300165
0.0223326
4.64514
0.055822
0.0301807
0.288726
0.0996773
0.022152
0.0222007
0.0222284
0.0248656
4.56572
0.0485309
0.0221059
0.206677
0.0218733
7.69097
0.0219528
6.75513
0.0290173
7.88035
0.581906
0.0593795
0.021969
0.0220064
0.0218697
6.85138
0.0220201
0.0478523
4.69383
0.0215368
7.4092
0.0331862
0.0219575
0.0714286
0.0219141
0.0218554
5.59587
7.10687
5.63813
0.0219016
0.0217673
0.0228017
0.0243594
0.022991
0.0219709
10.9133
0.0706344
4.64053
0.0225651
0.0430061
2.56003
1.34725
0.0304588
0.0217639
6.43556
0.0229584
4.45601
0.0218961
0.0220286
0.0219808
0.0217269
0.0215347
0.0222893
0.0217879
0.0372417
7.52784
0.034389
4.24166
0.0251674
0.0222087
0.0221262
0.444651
0.022024
0.0225434
0.0220457
5.18038
5.02027
0.0217837
0.023745
0.0218718
0.0219737
0.0222784
0.0220649
0.0219036
1.09101
0.0222707
0.021811
0.140715
0.0218308
5.20527
0.0738554
0.0819099
0.202156
0.0240813
0.0220797
4.0471
0.0220826
0.0695282
0.0291676
0.0217935
0.0506824
0.0220664
7.30648
0.0216176
0.0218114
5.79774
0.0554964
10.418
0.0217548
0.0852318
0.170506
0.032004
3.7377
0.0218823
0.0217507
0.0216263
0.0944792
0.0228359
0.7878
0.0220044
0.038945
5.75919
0.210806
0.0220147
0.956372
0.0254518
6.79181
0.0236012
0.0235105
0.0240292
5.53124
0.0219649
0.0223798
5.76542
0.0215751
0.0263345
0.0218334
0.0473753
4.6294
7.63047
0.0218676
0.10011
0.0220019
0.504697
0.0220162
0.022453
0.0804366
26.4801
0.0399041
0.0219951
0.025524
5.75951
0.0597054
0.0761816
6.93172
0.0220234
12.9116
0.0231272
0.18578
0.0218134
0.0251242
6.59943
0.0255884
0.0219196
0.508013
7.19158
6.51785
0.0217068
3.70916
0.633601
0.0216328
0.164424
8.86298
0.022278
0.0229239
5.16284
0.021501
0.0224372
0.021831
0.0220747
0.112315
0.0839899
0.0345448
4.61828
0.0222709
0.0592463
0.0299422
0.0222258
0.0233425
0.0340864
0.0220042
0.0222271
8.77938
5.13222
7.23829
0.0216892
0.0368976
0.0221374
3.96097
0.0220951
0.0415791
8.18037
6.08524
0.0684602
0.0219848
4.22829
4.40732
0.752576
0.0219997
0.0221273
0.0218377
7.31894
0.0370996
0.154616
7.0516
0.0220715
0.0222113
5.40654
0.0289052
0.0921651
0.0221748
0.0218916
0.021979
2.03091
0.0220362
0.0489315
0.0217681
0.0221131
0.0217954
5.31248
5.37227
0.0238587
0.594699
0.0230416
0.550639
0.0219139
0.021901
0.0768124
0.0220788
0.0219257
0.0255383
0.108516
0.0287822
0.143266
0.022047
0.0622184
6.28533
0.0221241
0.0220551
0.0220328
6.01029
0.0462091
0.0477231
0.0783264
0.0217813
0.0218857
0.144388
0.0258067
10.0138
9.30656
0.0362654
4.98549
3.01446
5.39273
0.0510224
0.0223337
0.022001
0.270881
5.86262
0.0218756
0.0385452
4.9453
0.0221081
0.213995
1.87974
0.122352
0.0219247
0.0811287
0.022153
0.0221064
0.021642
0.873986
0.0221336
0.0507232
0.0369408
0.0219853
0.0221844
5.4253
0.0217927
0.0216002
0.044232
0.725223
0.0358836
0.0220232
0.0404476
4.41692
3.7129
0.0280031
5.28314
0.0741005
0.127297
0.0603928
0.0221316
0.156984
0.0328469
0.0216605
0.0217359
0.0223843
0.0258444
0.291603
5.23296
0.0222183
3.59794
0.0788903
3.6293
10.2182
0.273696
4.00664
0.123421
4.14016
0.048301
5.19948
0.0533423
0.0219775
0.0221364
7.86107
3.81888
0.107836
5.56348
0.0218231
6.08797
4.49322
0.0220368
0.0216491
0.0379854
0.0590197
4.83695
9.58551
0.119889
0.0218735
0.021832
0.0222178
9.1307
0.0255883
3.94086
0.0246288
22.2522
0.200701
4.60112
0.0275135
3.92426
0.0218066
0.0215965
0.0259404
0.0221647
6.07281
0.144083
3.9095
0.0220744
5.65191
5.30566
0.0215503
0.0429183
5.34268
0.0438877
0.0218713
0.0262853
0.0219757
5.00237
0.021462
0.0223776
6.37499
0.0289243
0.0497011
0.0278551
0.0218152
0.0222214
0.0423826
0.0220792
0.0216615
0.0218362
0.0296794
5.94824
3.25834
0.0219722
0.135728
5.92917
0.0221186
6.61265
6.12844
0.0221653
8.67869
0.0220766
0.0889221
4.45159
0.0219649
0.0221673
0.0222087
0.0771212
0.0261503
0.0218604
5.15783
0.0219851
7.55326
0.0220411
6.04046
5.59424
0.0251042
0.021751
0.16357
0.0827257
0.157994
4.10447
0.0447708
0.0222117
4.21265
0.0224892
0.0721634
0.065812
0.0299775
0.0644235
0.021888
0.143185
5.5167
4.90808
0.125113
0.0218856
0.19536
4.0938
0.0222719
0.224511
0.0963648
1.32833
0.0219863
0.025118
0.0215102
0.199861
7.80057
0.0793335
7.70043
0.0892391
0.0367187
5.04881
5.47483
5.02404
0.835565
9.19217
0.0649999
11.8742
0.0473901
6.72758
6.83852
0.0233341
0.0223601
0.027035
0.0597257
0.0219988
0.0262897
0.0222616
0.0242818
0.0220049
0.0218806
7.93542
5.48881
0.0222037
0.0519077
0.0221072
0.0217965
0.0237838
0.0811106
0.0234625
0.0954067
0.0222075
0.0442599
1.90886
0.109019
0.0466287
0.0219765
0.106885
0.0222203
0.0219254
0.651166
0.0229243
5.53312
0.17957
0.0219318
0.0244037
4.07161
0.0220772
0.101607
0.0586583
0.0601578
0.0266568
0.0372311
0.0220097
0.0221682
5.27578
7.41455
0.035101
0.0794745
0.0220514
4.62364
0.025672
7.32976
0.0819222
0.0221119
0.0216839
7.21306
0.176089
6.37657
0.0282571
7.82212
0.0226908
5.65565
9.37502
0.0310199
0.156479
0.0218561
6.7976
0.0222476
10.5608
0.0289292
4.35917
5.56721
5.07275
5.16398
0.0364406
8.2815
0.158404
0.0488298
5.62746
3.79504
4.53241
0.0217151
0.0259798
0.0758274
7.03134
0.0218898
0.0218133
0.0299822
0.0635794
10.8819
0.0606604
0.0458689
0.0219298
0.132843
0.0215582
0.187807
5.2689
0.953701
0.0217808
6.42165
0.0686516
0.0226291
5.04365
3.26853
0.026651
4.64574
4.62691
4.76637
0.0575168
0.0218429
0.0291284
7.01697
0.0375007
0.0219779
7.0228
0.0215061
8.0314
0.0232671
0.0221937
4.13172
4.96941
0.0218653
0.0517933
0.0219499
6.80473
0.0215154
4.22985
0.160004
0.0427492
0.0219097
0.0220043
0.0221614
0.0364391
0.0481702
0.131747
0.028934
5.00385
0.0332157
0.0254348
6.65726
4.13359
0.0216471
0.161422
0.0219666
5.89968
0.0221347
0.0434883
6.9465
0.0274113
0.021928
5.0184
0.0223538
0.0222547
0.0472086
0.0222781
0.0218965
7.18855
0.0571398
6.64486
0.0222785
0.129084
0.0749677
0.0216518
0.0219284
0.023645
0.021859
5.54496
3.92288
4.14809
4.19681
3.90463
5.7517
0.0219185
0.0220278
0.0219421
0.0221682
0.116413
6.7298
0.0307072
0.0249245
3.76319
0.0223494
0.021787
3.94862
0.122428
0.0214798
0.0219685
0.0219041
0.20602
0.021759
0.0219592
0.167618
0.034168
0.102835
0.0239117
5.29039
6.60736
0.0214686
0.0217323
5.71755
0.0343567
0.0252079
6.11504
0.0354699
0.127148
0.550121
0.0235695
0.522706
5.40024
0.021552
0.0259025
4.98552
0.0253224
0.0220119
1.5144
0.0553207
0.0497003
0.0221982
0.356013
0.0239879
4.40449
0.0220549
0.0219774
0.0336044
0.064075
6.86414
0.0357601
0.0219728
24.421
4.72774
0.0240609
0.0771855
0.0220336
0.0219045
0.0217543
5.09482
0.0218616
7.17777
0.263004
4.97055
6.32848
0.035483
4.89427
0.0333288
6.9624
0.573949
0.11578
0.667104
0.0772091
0.0978056
5.90797
0.0500085
0.0220052
0.0220613
15.8477
0.0405298
0.0230404
0.0222208
6.46395
9.43135
0.0220948
4.02106
9.26244
0.0588083
0.434892
0.0410049
0.0408886
0.0395881
0.103942
5.35181
0.0274053
0.208363
0.293401
0.0217641
0.105014
0.0281869
5.5729
0.0623438
0.0219604
0.263742
0.0660797
0.0765846
0.59186
0.0225728
5.19186
0.222399
10.5851
7.50141
0.0221837
0.0220138
0.0218955
5.01625
5.23309
0.0871384
0.156356
0.0218594
0.0217489
0.0226415
0.0709875
3.73884
0.0523816
7.3833
0.0753656
0.379358
0.833701
0.021765
0.0531818
7.37176
7.20261
6.99761
4.89186
3.83049
0.0222862
4.43064
5.21186
5.18924
5.07168
0.0219401
5.38647
0.0226155
5.028
0.0273085
12.1541
11.3307
3.13188
0.0221579
0.0219913
0.0735408
0.0238566
0.113671
0.0222723
0.0500562
0.0491958
0.0218012
0.0220023
0.0341575
0.0219298
7.45821
0.0218867
0.0232249
5.42686
0.0595112
4.99552
0.108657
8.38038
0.0219482
0.0219784
0.0222919
4.80783
7.93816
0.0220258
0.0473809
7.81878
9.48525
0.0218897
4.2113
4.54949
0.021835
4.94778
0.0219085
0.0396231
0.0220123
0.0596383
0.0220724
0.143753
6.45385
0.0218678
0.0221593
8.0158
0.0357825
0.021702
0.0221333
9.48368
0.0218746
0.0222092
4.19217
10.723
4.91849
0.081294
0.0219345
4.46707
5.66793
1.02333
0.0221665
0.0807639
0.0586373
0.0219666
0.232622
0.0218419
0.0218378
0.021839
0.05241
8.04917
4.38604
0.0430527
0.147447
0.0219059
5.25157
0.0218275
0.0282139
0.0473189
0.0234102
0.050298
0.0360443
0.0218964
0.121288
8.12493
0.0588012
16.5548
8.05553
0.0636511
0.0219877
0.0250229
0.246315
0.0297566
0.0221945
0.100914
6.98468
0.0217091
8.09688
0.0284831
0.0219795
1.29116
6.83646
5.32955
0.0219742
0.0267596
0.0250119
0.0567379
0.0489993
0.021893
0.0220015
0.11769
1.37644
5.81478
0.027393
0.0223063
0.0217483
0.169347
0.0220261
4.5126
0.0222728
0.0415605
7.45948
0.208855
7.37728
0.0220525
7.86841
5.12038
6.92254
0.0220036
0.0222919
0.049823
2.40242
0.0218264
7.73473
0.0218737
0.0215054
5.6704
0.0221841
0.0531158
0.0281035
0.022938
0.0320817
0.0292127
0.0699725
0.0472881
0.0376151
21.7757
0.179397
4.44236
0.0477862
0.0339676
0.0573874
5.48438
0.174673
0.0277938
0.0220818
5.58824
0.0227958
1.03014
0.222129
0.533642
0.0216939
10.7602
0.0220577
2.13407
0.0226145
0.894855
4.87611
0.0503443
11.581
3.89407
6.68686
4.44343
7.63418
0.0649161
0.02194
0.0218071
1.02821
0.0218118
0.0219449
0.0220287
0.0411283
0.0234127
0.034244
12.7682
4.55467
0.117135
0.0277315
0.0275825
0.0215881
0.0255968