/*--------------------------------*- C++ -*----------------------------------*\
| =========                 |                                                 |
| \\      /  F ield         | OpenFOAM: The Open Source CFD Toolbox           |
|  \\    /   O peration     | Version:  v2012                                 |
|   \\  /    A nd           | Website:  www.openfoam.com                      |
|    \\/     M anipulation  |                                                 |
\*---------------------------------------------------------------------------*/
FoamFile
{
    version     2.0;
    format      ascii;
    class       volScalarField;
    location    "900";
    object      ddt0(omega);
}
// * * * * * * * * * * * * * * * * * * * * * * * * * * * * * * * * * * * * * //

dimensions      [0 0 -2 0 0 0 0];


internalField   nonuniform List<scalar> 
18758
(
0.0010634
4.31097
5.85576e-06
-0.463347
0.210092
0.623929
0.068621
4.57516e-06
-0.017563
-2.52309e-05
-5.81171e-06
-0.593674
3.4724e-06
-0.0133026
5.08859e-05
-0.386453
-0.000717463
1.55495e-06
5.08183e-06
4.15835e-06
-1.2353
1.12843e-07
-0.192123
-0.850849
-5.14945
4.84734e-06
0.156261
0.323802
-0.0152424
27.1418
-0.00401455
-0.0253312
1.50738e-06
1.14316e-05
-0.00386387
5.58573e-07
1.09448e-06
-9.81059e-07
-3.65071e-07
-0.000803644
-5.59678e-07
1.02724e-05
1.60268e-06
-1.66685e-05
18.4802
4.80263e-06
-0.125797
-1.60259e-05
-5.16239e-06
1.3086e-06
0.0266358
-0.195537
3.19847e-06
-4.66548e-06
0.254323
1.30782
1.08784e-06
-0.225078
5.03925e-06
-0.00628391
-0.000826331
0.0739388
0.00317907
2.38556e-05
3.31994e-06
-5.23178e-07
-0.000979774
1.65981e-06
-9.12979e-11
-0.212798
-0.197254
1.67211e-05
1.32209e-06
1.95974
3.57364e-06
7.14674e-06
0.00231753
0.0954277
0.00789559
-0.0777821
-0.275653
30.4267
-0.00691281
0.664249
-0.00327815
-5.66326e-05
-0.37301
0.00216489
0.0273046
7.60031e-06
0.606798
4.77986e-06
-0.505262
3.22052e-06
-0.220473
-0.436268
0.0227769
3.40474e-06
1.55356e-06
-0.727965
-1.36562e-05
0.472423
-0.00194594
0.00020103
0.244451
-29.4718
0.000397127
0.131521
-3.92922e-06
1.03128e-05
-0.497674
0.0900449
4.43675e-06
1.15972e-05
0.0852053
0.459016
0.0469824
4.9547e-05
-0.430565
-0.145797
5.39344e-05
-2.45956e-06
-0.342944
0.32457
1.20073
9.84765
-2.14819
-0.00871134
-0.481114
5.66033e-06
-0.00082542
0.185996
-4.12838
-0.000457548
-0.0241161
1.77794e-05
0.00352383
-0.000819689
1.67761e-06
-0.00392341
0.00688371
-0.00814349
1.42322e-05
0.110802
-2.49651e-07
6.71063e-06
-0.707726
-0.300675
-0.00395852
0.20337
19.6416
-1.26672
-4.30833e-05
7.93648e-07
-0.0623917
-1.82127e-05
-0.292892
-1.39665e-05
2.26051e-05
1.53314e-07
4.7691e-06
-0.0125471
-0.528269
1.91616e-05
-0.000727991
-0.0265402
4.50077e-06
-0.447346
0.0221728
0.667225
0.165776
1.47728e-06
-0.527356
0.293588
-0.00505277
-0.456207
0.044449
2.36538e-05
-0.0022719
-1.67997e-06
3.70565e-06
1.51326
-1.97351
1.26897e-06
2.11841e-05
-1.39652
6.17622e-07
0.356304
1.64581e-06
-2.07427e-06
-0.000485828
0.064175
7.62352e-06
-0.00360769
-4.19943e-05
0.00248714
-9.24819e-06
-0.169333
1.70988e-06
1.51796e-06
-0.000504523
-1.55586e-05
1.02539e-05
0.00120089
3.54136e-06
-2.5123e-05
-0.000964893
4.97364e-07
-0.824102
-1.41603e-05
1.48388e-06
0.000218201
1.95193e-05
2.97816e-05
0.00290998
-0.390078
-0.030013
0.270503
3.3128e-06
0.575826
1.46964e-06
-5.10001e-06
0.01896
-0.554227
0.228232
-0.00113707
0.000612206
0.0011689
1.07072e-06
0.00127911
-7.73635e-07
0.00359005
-0.109613
0.0248703
3.30279e-06
-9.09013e-07
8.27737e-07
5.23693e-06
-0.316971
6.10883e-05
4.18323e-06
0.382314
0.032421
3.72405e-06
0.15162
-0.163566
-0.0315861
4.32451e-07
-0.246965
3.82239e-05
1.08646e-06
-0.466301
-6.55037e-05
4.59175e-05
2.41003e-05
0.000107166
-0.0234442
-0.0146744
1.8015e-05
0.00152373
2.58068e-06
-0.00125066
1.29425e-06
0.00131698
-8.61682e-06
0.019359
0.437351
3.98194e-06
-4.50213e-06
0.0177349
-2.45494e-06
1.71987e-05
0.00126964
-0.126544
0.111171
1.46045e-05
0.00275974
-0.449332
1.60399
7.47467e-06
1.07709e-06
7.99043e-06
6.56142e-05
1.38551e-05
-1.44352
-1.917
0.17738
-0.0667896
-0.184266
9.01065e-07
5.83443e-06
-0.00340401
-0.476963
1.45934e-05
0.00161027
0.00304761
2.10611e-06
-0.196214
4.24953e-06
0.610501
0.674993
4.95151e-06
-0.401605
0.000270687
-1.55327e-07
1.67611e-05
0.00249983
2.79602e-05
9.30533e-07
0.177021
0.236946
-1.62842e-06
0.126313
-0.176365
0.068056
5.40687e-07
7.24531e-06
0.0203117
3.54118e-06
1.26041e-06
8.92381e-07
1.4883e-05
0.225786
0.0024892
6.41963e-06
4.10368e-05
-4.06021e-06
-0.000812444
2.49612e-06
1.05797e-07
0.0705545
0.000840003
-0.00546717
-0.570247
6.00899e-05
8.17913e-06
1.31907e-05
0.592099
-0.399462
7.81285e-07
1.53844e-06
6.63287e-07
1.64039e-05
-0.0006044
-0.036292
-3.5435e-06
1.26799e-05
1.10345e-06
-0.278765
-0.00879798
0.0516314
-0.0025068
1.77341e-05
-0.00690351
0.000576248
6.71638e-05
-2.15689e-05
-0.552273
-0.596457
-3.12006
2.62268e-06
-2.89284e-05
1.54386
-0.114651
-1.80061e-05
9.23791e-07
0.000470029
3.26968e-06
-8.91094e-05
0.533847
-1.39062
-0.00816854
-2.59002e-05
0.375606
8.57992e-06
-1.5142e-05
8.23035e-06
-2.44239e-06
-0.00469284
-4.14769e-06
0.128332
-0.0196852
2.07377e-05
-1.49601e-06
0.0875132
-0.00766194
0.00134681
7.89239e-06
-0.00229574
1.25386e-06
1.32694e-05
-2.50617e-06
4.25487e-06
-0.116992
-0.745979
7.6996
-0.561104
5.69815e-06
-0.00185643
-0.270349
9.52014e-05
4.51853e-06
-0.521145
8.12824e-07
8.04479e-06
3.92175e-06
-0.00454717
-3.38142e-06
3.69125e-05
0.00104301
-0.310472
1.18822e-06
0.153921
-0.000418104
7.10853e-07
-1.96784e-06
8.75298e-06
1.44603e-06
5.12303e-06
-0.00111052
-0.00111331
-0.0550822
1.0066e-05
6.10474e-07
0.0192245
0.102422
-0.305961
0.16665
-0.00582211
9.49636e-06
4.24876e-06
3.44029e-06
1.82624e-05
-0.00851917
-0.000563221
-0.000258595
-2.4472e-06
-5.16903e-05
-1.65795
-0.00151266
7.03382e-06
4.39115e-05
0.0898261
2.01755e-05
-1.77575
4.50353e-06
3.07503e-08
-0.819821
1.2523e-06
-3.02609e-06
-0.135245
-0.00373132
-0.00114875
-0.405679
7.26474e-06
2.29957e-05
-0.0529348
-0.538654
-6.87106e-05
0.000452918
-0.00915336
-1.13513
1.31767
-0.00877961
1.46532e-05
0.0108639
1.35539e-05
-0.00863331
-9.22772e-06
-0.505266
-0.00237103
-1.84001
-0.000255856
-0.00505567
5.0676e-06
-0.678053
1.37917e-06
-0.909908
9.09035e-06
0.118392
1.71597e-06
0.173251
-0.000103058
2.24966e-06
3.86416e-07
3.98911e-06
0.095273
-0.583652
0.0655978
-0.0010257
2.49645e-05
0.00246654
3.62412e-07
-1.58483e-07
-0.166954
8.05015e-07
2.65863e-07
0.00361619
3.02466e-06
0.000234988
0.00231881
2.42873e-07
-3.11443e-06
9.20326e-06
2.15167e-05
1.22616e-06
0.135421
3.13143e-05
-2.38769e-06
-1.3218e-05
7.09477e-07
-0.0139356
2.79741e-06
-6.20732e-06
8.75563
0.250932
-0.00476057
0.0644555
-1.22283e-05
-4.9517e-06
0.156721
4.87624e-06
-0.0221687
-0.0249948
2.27062e-06
0.161582
0.0861436
0.000415073
7.34109e-06
0.000453939
-0.297144
-7.59755e-07
-1.42018e-07
4.87797e-05
2.64462e-05
6.43315e-06
5.75064e-06
-2.47124e-08
-0.283748
-4.07188e-06
-0.02874
-2.35125e-06
0.00354128
0.671743
1.48077e-06
1.68123e-06
-4.91982e-06
1.81572e-06
5.53858e-06
1.02735e-05
-1.88645e-06
0.00264501
-0.377831
2.67002e-06
-0.270619
0.0958881
2.74111e-05
0.0116175
0.4622
9.69897e-06
4.70566e-05
-2.6156e-05
-0.178073
-4.03716e-06
-0.0013783
1.42634e-05
-0.697249
-0.000147587
-0.0108233
0.00189538
0.0630432
-4.07573e-06
1.07643e-05
0.000605682
6.3814
8.52822e-06
0.0843876
1.77447e-05
0.0889787
2.77951e-06
3.94259e-07
4.1218e-06
2.92008e-06
0.0694288
0.0996041
8.64738e-06
0.0238943
4.49137e-05
-0.397966
-0.405908
0.112453
0.742307
6.26476e-06
0.432643
-0.00367783
8.67185e-06
-0.000939079
-0.199577
-1.41135
1.07906e-05
5.61114e-06
1.08695e-05
5.22797e-06
-0.166483
0.00169443
0.249902
-0.305804
8.31082e-06
1.76391e-06
-0.000196999
3.50544e-08
4.58862e-06
8.23885e-06
3.98218e-05
0.00373698
-0.000179823
0.0641163
0.102281
0.000281903
1.88477e-06
7.57124e-08
0.00285719
-0.0579691
-0.00121211
-12.4677
0.000359203
9.02527e-06
0.0305768
-0.028975
6.71803e-06
8.57299e-07
0.0233387
0.561391
-0.098295
2.74763e-06
-0.935475
1.7712
5.15023
1.25715e-06
0.0278926
0.151268
-0.429762
-5.89858e-06
-1.3841e-08
0.0739194
-4.68378e-09
-0.00438358
-0.0809909
0.0732864
0.0700257
-0.00227444
-0.327405
-0.000903998
1.73904e-05
5.70758e-07
0.2151
-0.280705
0.152072
-1.65172
4.84489e-06
-0.00490324
2.22095e-08
0.000622474
-0.0039711
-0.0164684
2.2683e-06
-1.06702e-05
-0.000411576
-0.273562
0.194429
0.22778
8.0463e-05
-5.84249e-05
-0.050922
1.05918e-05
7.95958e-07
-3.12084e-06
8.96669e-05
-0.0044115
2.91034e-07
-0.00370682
2.78502e-06
5.53467e-06
1.7366e-06
0.240507
1.29233e-05
5.25709e-07
-0.000215247
0.000119518
2.89478e-06
-0.0577513
3.69645e-06
2.12664e-06
0.000499185
-9.012e-07
2.09004e-05
-6.77821e-06
9.01851
7.02639e-06
1.16318e-05
-0.0107414
-8.78364e-06
-0.352062
0.000498496
0.00226539
-0.309193
-0.202561
6.28916e-07
-0.200505
-0.199317
5.08944e-06
-0.359013
1.35693e-06
1.83529e-06
-6.97204e-05
1.7055e-06
0.00133238
-0.0944821
1.55692e-06
-0.525116
5.29167e-06
4.51722e-05
-0.245467
2.82951e-06
0.482415
-7.68678e-06
2.33994e-06
-1.5175e-06
-3.06382e-06
-0.00557406
0.000852028
0.390442
0.00115886
0.636078
2.62017e-05
2.43047e-07
0.00785875
0.226717
-0.658436
-0.00394258
0.00707683
-0.00364209
-5.71758e-06
-0.0143337
-1.69783e-06
-42.9146
2.9891e-06
0.0280707
1.26925e-05
-0.00379412
4.4069e-06
-3.57598e-06
0.201068
2.57224e-06
4.23518e-06
1.47865
-4.63347e-06
1.53776e-06
-0.000610377
0.00235076
0.00302901
-9.7377
0.0763574
0.0570594
1.85029e-06
-5.67387e-08
-0.518455
-1.34983e-06
1.14064
-0.00270489
-3.55701e-06
-5.00285e-08
3.44487e-06
-4.3345e-07
2.09251e-06
-8.79146e-05
-2.19026
0.131307
0.0344268
0.00031213
1.88612e-06
-0.00208399
0.0419882
2.3682e-06
-0.0041949
1.03988e-06
-0.135973
1.9375e-05
-0.213875
3.22099e-06
-0.0414841
1.75603e-07
-0.00111452
9.18947e-06
7.61284e-05
4.85651e-05
2.76777e-06
2.05767e-06
2.62033e-06
0.107781
0.92157
-0.000254968
0.574524
8.88418e-06
-0.000597182
-1.7031e-05
-0.0641003
-0.135841
-0.000267465
2.03155e-06
-0.0114197
2.75786e-06
8.47231e-06
-1.38644e-05
0.187011
-0.246956
-1.57967
0.0402392
0.00799791
-2.89414e-06
1.07015e-05
-6.33139
1.78754e-06
1.80257
-1.42926e-05
1.1485e-07
0.293434
0.367264
1.31352e-07
0.372693
-1.37871e-05
-0.011904
0.00230598
0.0756998
0.451506
-4.90089
3.83943e-06
6.58536e-06
0.069012
1.47241e-05
4.47039e-09
-2.85592e-05
1.52018e-05
0.0637239
-0.00890975
-7.25204e-05
0.436863
-0.000385846
-0.00405762
2.39314e-06
2.69781e-06
3.89036e-06
4.04931e-06
0.12263
-0.318919
0.0616219
-6.32879e-08
2.21244e-06
3.93569e-06
6.29304e-06
-5.54279e-05
4.94669e-05
-39.9685
-0.0840589
-0.0031924
0.0326123
0.09061
2.04142e-07
-0.0247697
1.11067e-05
-0.132019
-0.0444042
-0.336232
-0.00910449
3.88794e-05
-9.02042e-05
23.2329
0.411489
-0.434776
0.00078991
0.020231
0.114345
2.75124e-06
-0.0616023
0.295514
-0.00905924
2.95637e-06
-6.45244e-07
-0.000177785
-0.34449
-0.015529
0.00199573
-2.83882e-06
7.01418e-05
7.80639e-06
0.78321
-2.88406e-06
-0.500097
6.03715e-07
1.9291e-05
0.00914458
2.0465e-06
8.24359e-07
-1.3161e-05
-7.98512e-06
2.68975e-06
-2.4993e-06
1.12986e-06
0.0663081
0.571422
-0.208762
9.09841e-07
-0.000249119
2.28999e-08
0.00614167
0.00549289
-1.45235e-05
2.18571e-07
1.71383e-05
-1.10711
-0.000113105
-4.21738e-05
-0.178131
-0.00896153
6.62057e-06
8.92419e-06
-0.28825
0.0422796
0.000997406
2.8355e-06
0.246869
1.79827e-06
3.61043e-05
2.12964e-06
-0.494794
-0.105725
2.38197e-06
6.73219e-06
0.993084
1.25411e-05
0.120868
0.379834
-0.00218362
1.15401e-05
5.84773e-07
1.83645e-06
3.52177e-06
1.37442
-0.968874
0.0328269
-7.30815e-06
-0.281991
6.54506e-06
-2.44592e-06
0.0544938
8.02822e-07
0.306233
3.18204e-06
-5.30426e-06
1.8794e-05
-2.68055e-06
7.37989e-06
2.08429e-06
0.163443
-1.79882e-06
4.02671e-08
0.012146
-0.000234893
1.51199e-06
0.000607117
1.16613e-05
2.13176e-06
-0.00433605
2.6617e-06
1.99395e-05
-0.262373
-0.00773994
-3.56246e-06
0.0117979
-0.00623623
0.00194622
-1.03853e-05
-0.00200656
0.158781
-1.21286e-05
0.000118357
-2.94825e-06
1.90919e-06
9.47455e-07
-0.0012778
4.77865e-05
-0.0014614
3.1538e-06
-1.90454e-06
-0.00365454
0.213637
-0.00213853
-1.21515e-06
4.72889e-06
-6.3106e-06
0.00174259
4.49476e-06
0.399674
-2.53761e-06
1.37869e-05
4.89758e-06
0.12947
0.456099
1.49738e-06
1.85783e-06
1.922e-06
-0.00217592
3.36062e-06
-1.73589e-06
-2.03654
3.85168e-07
2.00936e-06
1.71104e-06
-0.0197964
3.65349e-06
2.31886e-07
-0.481729
0.791321
0.220312
0.00308117
0.468954
4.57109e-05
-2.97338e-06
-4.54229e-07
0.24021
-1.76745e-06
-0.00118154
-0.00250621
-1.37152e-05
4.50846e-06
1.67651e-05
-2.81018e-05
3.36167e-06
3.11318e-06
-0.0254175
-0.0273178
-4.02525e-05
3.8724e-06
0.0257053
-0.0010165
0.126416
-1.16095
-0.00840227
2.03083e-06
8.75683e-06
6.4977e-06
-0.00218986
2.06132e-06
7.40156e-06
0.358823
0.041902
-0.00106587
-5.01669e-07
0.000230803
0.0167712
2.26151e-06
-0.000138713
-5.13134e-06
0.00381727
-0.00117437
1.07259e-05
-7.01177e-06
-4.07541e-05
3.27368e-06
9.73373e-05
9.04895e-06
-48.1058
0.000615695
0.00445141
4.93911e-07
7.00356e-05
0.463774
-0.326711
1.67487
0.000580571
0.451246
2.05282e-06
-2.95045e-06
-3.72635e-06
0.00262898
4.16482e-07
7.7434e-06
2.38787e-05
-0.00237037
2.54173e-06
1.18808e-06
5.36756e-06
1.96097e-07
0.26891
-1.56995
2.66421
-1.31845e-06
0.429132
-0.000166992
1.53996e-06
-0.000265399
6.88005e-06
0.00195822
-9.64069e-06
-2.76899e-06
0.0655573
1.77565
0.338476
1.31574e-05
1.19934
-2.6472e-06
-0.278492
0.0484054
6.58563e-06
-0.00184404
-0.0975105
2.95219e-06
2.84618e-06
-1.05436
1.45224e-05
9.03731e-07
0.0353891
-5.62424
3.51865e-06
-7.97594e-05
1.58183e-06
-3.99297e-06
0.00186541
1.49067e-06
0.100005
-0.000865688
1.33764e-06
0.520893
-0.00124527
-0.00120496
2.21044e-07
-0.000675879
1.22467e-05
0.0683422
-2.80773e-06
4.66796e-06
-0.31885
5.20152e-06
0.430085
1.34561e-06
0.000439415
0.033811
-0.258718
1.42087e-05
1.73836e-05
1.1692e-06
2.06209e-05
-1.49658e-05
-5.85977e-05
4.27965e-06
0.123124
1.07546e-06
2.92146e-06
-0.00951301
-0.00200854
1.53758e-05
3.37049e-06
-1.28329
0.00153406
-1.86607e-06
-8.40263e-05
-6.94223e-07
7.02629e-07
0.0146819
3.28646e-06
4.77616e-06
1.47469e-06
0.511755
2.65694e-06
7.78139e-06
0.172447
-3.13272e-06
-0.22914
-0.000268408
4.91688e-06
2.12147e-06
0.668793
6.9978e-05
-2.06307e-07
0.0726441
-0.0714068
3.77547e-06
-0.245215
0.00220004
5.23196e-06
6.26874e-06
-0.00620415
3.43577e-07
0.277918
-2.98103e-05
3.09393e-06
1.48789
-0.503675
0.0150371
3.10532e-06
-0.0988583
-6.62317e-05
0.215172
-1.61727
3.85244e-06
-0.114916
6.23707e-07
-3.333e-05
8.14351e-05
-0.295477
5.15517e-06
1.71019e-05
0.214803
1.06162e-07
-2.65727e-05
5.41577e-06
1.7772e-05
0.0301166
0.00214955
2.05792e-06
6.48224e-05
0.682357
3.54564e-06
-9.58049e-06
0.0001829
-0.00189367
3.34963e-06
-3.12622e-06
-2.20021e-06
1.99178e-06
-3.6326e-06
2.76815e-06
1.11507e-05
-1.5193e-05
1.84326
2.58976e-06
-6.69519
1.02904e-05
-6.01641e-05
1.57311e-06
7.70598e-05
1.7834e-05
-3.3872e-06
-0.414153
0.276699
-1.32338e-05
2.20529e-06
0.164277
-1.55105e-05
-0.347107
-1.74328e-05
0.00304607
-0.324791
0.0762187
-0.351342
2.94227e-05
6.1868e-06
3.44775e-06
-0.32766
1.73645e-06
1.04469e-06
-0.00429656
6.39911e-06
1.78143e-07
1.18475e-06
0.564835
1.08867
8.94153e-07
0.232933
-0.13204
4.12284e-06
4.18189e-06
1.63562e-05
-0.499446
2.37354e-06
-0.00904058
1.64558e-07
2.61163e-06
8.0389e-06
4.74606e-06
-0.00136018
3.01953e-06
4.23515e-06
5.12037e-07
4.65271e-06
0.0161292
2.94083e-06
5.44768e-07
7.58741e-06
-1.98447e-06
0.0204072
0.246737
-0.00039792
1.02668e-05
4.47914e-06
1.08577e-07
1.91862e-07
-0.255312
1.40758e-06
-6.26424e-06
-0.000295855
-0.266857
1.7834e-06
-1.16594e-06
-0.110152
1.72138e-06
0.000514793
0.00152199
-3.27946e-06
0.124764
-0.416694
1.55693e-05
0.229945
-1.75574e-05
-0.00965477
2.88765e-06
-1.18315
2.49357e-06
13.7161
6.67133e-07
7.97582e-06
-1
0.386495
-0.456608
0.0449394
-7.76788e-07
0.131632
8.95244e-07
0.47386
-0.000259157
2.59788e-06
2.97579e-06
6.96664e-06
0.000360828
0.000745602
0.225829
-0.000763558
5.63739e-06
4.59512e-06
5.1758e-06
0.497634
0.00369047
-1.72245e-05
1.65998e-06
-6.85672e-07
-2.28856e-05
-0.0964227
7.24729e-06
-2.6418e-05
-0.000487458
5.74521e-07
7.35809e-06
-7.24822e-06
0.00012323
0.00403455
-1.37299e-05
-0.00491794
1.43823e-06
6.28859e-07
0.0707656
0.00011708
0.00201399
-0.42227
2.28379e-06
0.301316
0.291764
0.00183529
0.213158
-3.69006e-06
-0.0138931
0.12512
-0.00575041
4.29745e-06
-0.276044
-0.00137903
1.69345e-06
-0.000284079
-0.353848
6.10804e-06
1.45181e-06
9.02473e-05
3.4443e-07
-0.261846
-3.33098e-05
7.96487e-06
1.60571e-07
1.31025e-06
0.00513079
-0.000184726
0.37227
-0.00624418
-0.0842038
0.000669755
2.29841e-08
-2.99486e-06
2.13059
0.679133
-1.66856e-06
1.07217e-05
-0.00754466
7.73977e-06
0.0540611
-0.113398
0.591167
-1.77679e-06
9.22438e-06
0.565175
4.40193e-06
-0.0985194
0.108654
1.0523e-06
0.10247
0.000509757
-0.00137194
-2.82319e-06
0.0848227
2.61302e-06
-0.0318248
3.80973e-06
-0.000461199
2.52801e-05
3.81477e-06
-0.0112843
1.74582e-05
8.94863e-06
-7.71197e-06
-0.358025
2.31855e-06
2.81235e-06
0.147673
3.23621e-06
1.09577e-06
1.93477e-06
7.18271e-05
6.25362e-07
4.34077e-08
-7.15023e-05
1.55289e-07
-3.78507e-05
2.0909e-06
-0.00367676
-0.0279191
0.00774646
-0.406785
-3.75962e-05
5.3427e-06
2.76209e-06
3.04514e-06
2.90228e-06
0.280292
-0.263244
-2.91557e-08
1.94859e-07
-1.92148e-06
-0.356228
2.68221e-06
-0.0314353
-1.10035
-0.476373
0.39459
-0.539351
-0.306081
2.64822e-06
-0.261129
-0.177424
0.286865
-2.12722e-05
6.60141e-06
-0.00099717
4.91506e-06
0.145135
-0.0022409
0.00021459
-7.2955e-06
-0.081335
-5.43811e-08
5.66644e-06
-0.143657
-0.00112588
8.23174e-06
3.7372e-06
-0.00117577
1.70167e-06
0.383379
-0.749692
0.229598
-0.309753
-0.00282481
0.518088
2.9029e-06
0.00220416
2.0351e-06
-3.29292e-06
1.2352e-06
-0.0348218
-2.81163e-06
2.02165e-06
-11.2919
-0.109874
-0.187005
0.00120763
-8.22953e-06
0.000105303
-0.110458
0.555072
-0.0035716
-0.18008
-0.000396394
0.415548
-0.0137334
0.012291
2.73057e-05
-0.000918895
2.94282e-06
2.7748e-05
-0.000162437
7.29525e-07
0.0630156
6.82359e-06
7.45419e-06
-1.02863e-06
0.370592
-2.35145e-05
3.3604e-06
7.81972e-06
-2.76844e-06
0.00147386
-0.000517339
-2.90335
1.73476e-05
-0.482822
2.92274e-06
-1.26672e-06
0.000550048
0.00036851
3.88664e-06
-0.42459
-0.000721677
0.147256
1.5616e-06
-0.42473
0.00116656
-2.22142e-06
4.51245e-07
-1.69948e-06
0.188876
0.282217
0.274836
3.76105e-06
1.83019e-05
2.63757e-06
0.125574
-2.5556e-05
1.93603e-06
0.227059
-9.90581e-07
-6.75267e-06
-0.278072
1.93431e-06
-3.67914e-06
1.94428e-06
7.41348e-06
3.01136e-06
1.99637e-05
4.20883e-06
1.71959e-05
-0.00254197
8.83399e-05
2.91052e-06
0.411513
4.8845e-07
0.0452359
0.498881
-8.50444e-05
-0.217696
0.142201
1.18488e-06
-0.000754708
2.58489e-06
8.01593e-06
-1.73042
-2.03922e-05
0.116341
5.42774e-06
-0.00999809
1.60644e-05
1.52369e-05
9.37777e-08
-0.5064
-0.000438568
-0.163049
6.49067e-06
0.00474574
-8.73355e-05
3.58863e-06
-0.000246845
-0.000498754
1.79572e-06
0.0143493
2.70721e-07
-0.000800361
1.90329e-06
-1.52117e-05
0.000199046
0.00777305
-1.49608e-05
-0.00295547
20.455
-3.37413e-05
-0.000742683
1.74483e-06
0.307773
0.000616352
7.19183e-08
0.00117725
8.61632
0.427192
-2.38566e-06
-3.58563e-06
1.33434e-06
1.31273e-06
8.999e-06
-0.240246
-6.54711e-05
2.23496e-06
-0.0621861
2.05177e-06
2.59683e-06
-1.12438e-05
-0.0698559
9.0744e-06
-0.703538
-0.204752
0.00834056
-0.249369
1.15159e-05
0.108845
-0.404256
5.12038e-06
-8.72708e-05
8.27657e-06
1.34661e-05
-0.00039687
0.190708
-0.00173281
1.48094
0.280119
1.08281e-05
0.184181
2.00073e-07
-0.503063
3.45488e-07
0.224774
-0.323501
1.30972e-06
7.19709e-07
-3.72264e-07
-0.000255234
0.000966897
2.09387e-06
-1.16469
2.8101e-05
-0.000852663
0.00100587
-1.06735e-05
5.06158e-06
-1.55301
4.45958e-06
-0.00492754
-2.67237e-05
1.14921
2.38569e-06
9.30045e-06
-0.444734
6.2969e-06
4.38313e-06
-4.19353e-06
0.000644577
-0.000344834
0.0045481
1.42627e-05
4.75934e-06
-3.171e-06
2.77786e-08
1.29669e-05
0.34038
5.37083e-06
0.000213603
-0.0590381
-0.00310972
-3.38262e-06
0.00184065
7.36161e-06
-2.00995e-07
0.200327
-0.0503802
0.00135917
7.34978e-07
-3.50896e-06
3.34144e-06
-0.00278836
2.69448e-06
1.94538e-05
9.9512e-06
-3.45429e-06
2.76438e-06
6.15023e-06
-0.497608
3.46681e-06
-0.177864
0.102249
-1.95628e-05
3.26154e-06
-0.0519515
-0.323667
6.45024e-06
-3.03984e-06
-0.406727
1.07186e-05
0.00237546
0.0050965
0.745528
-1.19849e-06
2.11951e-05
0.00023509
-1.89376e-06
0.695031
0.0554734
1.0844e-06
-4.56854e-07
8.97013e-05
2.16791e-06
0.0190013
1.47816e-06
-1.69295e-05
-9.11298e-06
-1.01157e-05
3.96321e-06
1.09731e-05
0.00252173
1.19586e-05
0.0994579
-0.00430081
4.74596e-06
3.03605e-06
2.01783e-06
4.76151e-06
0.158562
1.91429e-07
0.0511132
8.17232e-07
6.97029e-06
0.000499045
-0.248428
4.27989e-06
2.728e-06
8.22094e-06
-2.06861e-06
1.76892e-05
2.3089e-06
-1.402
6.5328e-05
3.00649e-06
0.0067666
0.419707
1.13902e-05
-9.003e-05
-0.251053
1.86741e-05
-5.11943e-06
-10.0419
3.30054e-06
-0.431321
-0.0010667
1.77458e-06
-0.00530298
2.75374e-07
-1.30687e-06
3.03387e-06
-0.370485
3.6996e-06
-0.423385
0.399667
0.147332
5.3619e-05
2.57932e-06
-0.0907097
-1.02415e-08
1.20988
2.89823e-06
0.0512433
7.65312e-06
-0.00662931
2.19329e-05
-1.08318
-4.88008e-05
6.76427e-07
-0.0393754
-0.281825
2.55471e-06
-0.088657
2.06546e-06
5.34806e-07
9.63718e-07
0.970072
-0.431273
1.59844e-05
1.4356e-05
-0.387982
0.00785235
2.67148e-06
1.28179e-05
1.1753e-06
3.51339e-06
4.14601e-06
1.43726e-05
0.197552
-0.125278
1.27711e-05
-0.00229234
7.75238e-05
-0.00420725
1.77663e-06
0.753604
0.179346
0.425273
2.86064e-05
0.372942
0.291173
1.19807e-05
-2.11786e-05
3.54196e-06
-0.0018456
-0.19526
4.74408e-06
4.27314e-06
4.6083e-06
-1.07232e-05
2.99545e-06
-1.82117e-06
-0.578504
1.90056e-05
0.000154683
8.74717e-06
7.59369e-07
1.35982e-05
2.47513e-06
0.0114505
-0.438019
4.37542e-06
-0.000902997
1.71603e-06
0.203592
1.47304e-06
1.53157e-05
-0.419267
-1.54869
0.000103897
-1.19128
0.111253
1.01115e-07
0.000662633
1.92045e-05
-0.000256799
8.98562e-07
-2.21586e-08
0.00128336
0.00126333
-0.263529
-0.00672152
-0.000332426
4.7153
5.94584e-05
-6.10613e-05
1.00744e-05
0.190754
-0.39847
-1.18624
-3.13318e-06
4.14555e-06
-0.514975
0.167877
1.57777e-06
-0.0483791
1.63492e-06
-7.44288e-06
4.02997e-06
4.75695e-09
5.12982e-07
1.85963e-06
-0.0222454
0.000189709
7.00581e-05
-1.68765e-06
-1.17707e-07
5.17047e-06
3.16758e-06
3.45994e-06
3.15646e-07
-1.23735e-06
-0.225673
-0.287932
0.170255
-1.30909e-05
-0.0372122
0.000174977
0.714944
-0.0489881
0.000222492
1.98148e-06
1.2875e-05
-4.48065e-05
1.47984e-05
0.0849663
-0.8808
-5.93431e-06
5.41654e-06
-0.000136006
-0.0602376
-6.00205e-07
-0.196739
2.96196e-06
2.31616e-06
0.629798
-2.0269e-06
-6.26774e-06
1.31656e-06
-0.169326
1.92922e-06
-9.74593e-07
0.00567079
1.02104e-06
4.74753e-07
1.00597e-05
5.11648e-06
0.00198476
3.73117e-06
1.38484
2.03417e-06
-6.93734e-08
3.70405e-06
0.352551
4.74706e-05
1.97661e-05
0.222161
2.16728e-06
1.80299e-06
0.00623063
0.11903
1.62753e-05
0.356633
0.148704
-5.55716e-06
-0.291341
1.90214e-06
6.06404e-07
-0.00837825
1.02851e-06
-0.195352
-0.0915791
3.55382e-06
5.54809e-05
8.88839e-06
0.255974
-1.38971
-0.000676337
1.46721e-06
-0.246316
-2.31105e-05
-0.000319897
-5.75145e-06
3.74654e-06
1.03014e-05
4.53215e-06
4.27929e-06
0.154553
4.86425e-06
4.0862e-06
-0.00011821
1.45748
-0.0031068
-0.0104077
3.67408e-06
0.000383827
-1.09298e-07
2.36135e-06
2.42613e-06
4.60808e-06
1.34564e-06
-1.44421e-06
2.13762e-06
1.33099e-06
1.26337e-05
6.02579e-06
2.59315e-06
5.84732e-06
0.38364
0.428808
4.22973e-06
9.37009e-06
-0.402844
8.99285e-07
-0.0096107
-0.112212
1.62241
0.712361
3.32712
0.718726
25.8433
-0.0423978
1.80561e-06
-8.90398e-06
8.50226e-06
0.000294331
-8.53835e-06
4.3595e-07
8.88929e-07
-0.00497518
1.08559e-06
-1.50038e-05
-0.395905
1.17682e-06
9.31404e-07
0.000832433
4.82925e-06
1.07987e-05
7.29164e-06
9.50077e-06
0.0401465
0.377258
1.64072e-06
-1.57708e-07
4.884e-07
1.61427e-06
-0.000145424
-7.80728e-06
91.4835
-0.11628
4.31549e-07
0.0626878
-0.000207186
-1.79995e-06
-0.447002
1.28551e-06
-0.00205268
4.00097e-06
-5.04081e-06
5.94779e-06
0.171876
5.52628e-06
1.96599e-06
1.04767e-05
6.4606e-07
6.79591e-06
5.91261e-06
-1.56647
7.591e-05
-0.000535256
1.01488
0.591578
-0.00565952
-0.000267054
-0.113271
1.57218e-05
1.23431e-06
-2.95255e-06
-0.140024
-0.00232075
0.00027287
-0.913556
1.88527e-06
17.3779
0.0835812
-2.43573
5.64235e-08
-0.000233207
4.43151e-06
0.00358349
0.000117187
-0.178363
0.566425
1.92209e-06
5.51833e-05
-0.000286757
4.27777e-07
3.43167
-2.50283e-06
-7.74934e-05
0.00174099
0.00194905
-9.98928e-07
-1.80661e-08
4.38771e-07
0.000476634
3.482e-06
1.02316e-05
-3.16838e-06
2.32574e-06
1.08149e-06
0.000269971
3.91603e-06
-1.83225
-0.26683
1.03824e-05
4.08874e-06
1.77106e-06
4.19437e-05
2.2912e-05
1.75202e-06
-0.146419
0.00451802
4.7809e-06
4.06614e-06
0.00392064
-0.263722
2.56026e-06
-0.0099534
8.72588e-06
-3.07243e-07
0.233737
1.39217e-05
0.00131594
7.64551e-07
-0.0191055
0.462912
4.63937e-07
-0.000228902
-0.23005
5.74522e-05
-0.273772
4.64506e-07
-1.78286e-05
-0.200952
0.146999
-5.06489e-06
9.13285e-06
-1.23426e-06
5.73457e-06
2.63232e-05
-0.702739
-0.263766
-0.430049
6.90625e-05
4.31679e-06
-0.00156872
1.072e-05
0.214104
-2.13834e-05
-0.772487
2.10876e-06
1.13942e-06
1.28164e-06
3.16029e-06
2.77933e-06
-0.00242418
0.086481
-5.49377e-05
2.22391e-06
2.01769e-06
0.440676
-7.32028e-06
-1.38102e-05
1.34835e-06
-7.58845e-05
-0.43807
5.41535e-06
5.39815e-07
-0.000480212
0.000675832
7.22826e-07
-0.000270135
1.68288e-05
-1.00385e-05
-0.0095985
-6.84004e-06
0.187415
-0.407535
-0.00123471
-0.170097
2.49811e-06
1.08268e-05
-9.78821e-06
0.523753
1.64835e-05
-0.502345
5.9938e-06
-0.198655
-4.10798e-05
5.26622e-06
1.68208e-05
1.68759e-05
-0.145918
0.000344814
-3.69515e-05
-0.0841089
-0.006629
1.53111e-06
6.52269e-08
7.71942e-07
-1.13858e-06
-0.275319
-0.00237449
2.0224e-06
-0.000146002
2.99472e-06
0.559478
-8.25444e-07
0.360265
-5.29173e-05
0.510268
-0.193874
0.000732825
-1.59172e-06
-7.84806e-08
2.26441e-06
0.524032
6.14918e-06
-0.00191994
-0.80824
3.96054e-06
-1.18116
-5.15566e-06
-2.68749e-06
-0.00609893
7.01729e-07
2.87993e-06
0.163288
0.0542695
-0.49629
5.05114e-06
4.57269e-06
3.35372e-06
8.18565e-06
-2.33777e-06
1.78841e-06
0.362384
-0.00624372
0.429652
3.80078e-06
1.87058e-05
-6.29007
0.0143745
-3.50292e-06
4.1899e-06
0.232049
-7.17056e-06
-0.246249
8.03363e-06
2.05181e-06
-2.23089e-06
2.61554e-06
4.06447e-06
1.45056e-05
3.98704e-06
-6.88655e-05
0.0680861
-0.000210271
-0.249036
-9.38541e-06
2.18599e-09
1.99427e-06
-0.108424
3.76143e-08
4.63158e-06
1.81484e-06
0.132656
0.030108
4.24406e-06
6.54452e-05
5.83433e-06
-2.70671e-06
-3.00826e-08
1.49604e-06
3.11185e-06
-0.59182
2.08402e-05
9.41247e-07
0.00686105
5.90847e-06
0.0469201
-0.00406673
-0.00791556
0.00526839
1.98289e-05
9.03496e-07
-0.418389
-1.02147e-06
-0.0061662
3.47568e-05
5.12285e-06
0.000303894
2.13748e-06
0.330519
1.23495e-06
7.79282e-07
0.191531
0.000306612
0.449393
4.61826e-06
-0.000906103
0.0172557
-2.51687e-05
-0.472061
2.38003e-06
3.82625e-06
1.13333e-06
0.00199354
2.21242e-05
-0.131923
-2.4307e-07
-0.000778617
-0.351039
0.000341975
-2.07053e-07
-0.944284
-5.36985e-05
0.01344
1.19815e-05
2.851e-05
1.03172e-05
0.0748556
-3.24375e-06
1.46296e-06
0.0179811
1.59628e-06
5.48257e-06
6.80799e-06
-0.00138897
-0.167143
0.00224429
2.15606e-06
0.0013436
-6.71494e-07
0.0174117
-9.85225e-08
-5.17864e-06
-0.0078416
1.44013
5.5541e-06
7.22098e-07
-1.5131e-05
0.0671912
0.000567864
-0.00158922
0.61469
9.98843e-07
1.05729
1.27347e-05
-0.00769822
2.04817e-06
-5.11962e-06
-0.12076
1.30739e-05
1.35753e-08
-0.641832
0.0674378
0.360779
4.01735e-06
-0.406243
0.0109343
2.55577e-06
0.0209928
-0.468675
4.5265e-08
2.84624e-05
0.0860603
3.34312e-06
5.50919e-06
3.22533e-06
1.81916e-06
0.00160254
0.00109824
-0.000338174
-0.314286
4.69673e-08
-0.0103219
-5.54787e-05
2.21397e-05
1.66091e-05
-0.000256891
6.63742e-06
6.9771e-07
-0.00560056
-0.110655
-0.78596
8.87983e-07
-8.20569e-05
1.75331e-06
-0.270575
2.90137e-06
0.000101576
0.0381463
0.1433
0.00019722
1.14364e-06
2.26013
-0.174682
0.0476001
-4.82804e-07
1.6747e-06
4.11444e-06
0.68493
-5.29987e-05
0.00464007
0.0523129
-8.69605e-07
1.29713e-06
0.110324
4.82483e-07
0.00218157
1.00507e-06
6.8797e-06
-1.70691e-06
-0.165001
3.66764e-06
-0.00240203
5.07764e-06
2.14173e-06
3.893e-06
-0.182193
0.161571
5.5711e-06
0.241772
-8.23419e-06
-0.176314
-1.16072e-06
-1.26193e-07
-0.00304606
7.40599e-06
-1.24432e-06
-2.05588e-05
0.0011444
-8.53228e-05
0.00870794
1.50412e-05
-0.00142811
0.467552
1.5558e-05
9.40966e-06
6.30727e-06
0.400826
0.000149686
-0.00204991
-0.00301389
3.11191e-06
3.77659e-06
-0.0051154
3.54771e-06
-7.92056
-0.181941
1.88075e-06
0.0307558
-0.965722
-0.0128413
-0.00135125
2.16641e-05
3.70228e-06
-0.101783
0.0434773
1.86515e-06
1.92038e-05
-0.141798
6.71364e-07
-0.000259276
12.8768
-0.00358913
-6.42369e-07
-0.00791476
6.72747e-06
3.00386e-07
2.43079e-06
-0.184162
-2.0448e-06
-0.00245794
-0.000464535
3.05825e-06
5.29177e-07
0.0869114
8.15905e-07
1.94565e-06
-0.000917876
-1.12114
-0.000517124
1.03938e-06
3.63436e-05
-0.97463
-0.510314
-6.07722e-05
-0.166926
-0.00554889
-0.000409225
0.000565276
3.54343e-06
0.0074416
-0.00103098
1.59655e-06
1.00401e-06
1.51764e-05
-3.25765e-06
-0.0986733
0.086964
9.60474e-07
-0.157432
0.00101816
-13.3394
-0.593785
0.0494197
-0.259577
-0.00139276
-0.263689
-2.0368e-05
0.0842091
-0.00246359
-1.86304e-06
8.40715e-06
0.471543
-0.360128
-0.00270484
0.0811187
6.39191e-06
-0.0185642
-0.236397
2.13545e-06
4.95385e-06
6.9471e-05
-0.000466171
-0.342498
0.117641
-0.0119488
3.84862e-06
8.57781e-07
7.19553e-07
-0.0811536
5.1479e-06
-0.101208
2.27603e-05
-0.604752
0.00994363
-0.324904
-3.52138e-05
-0.443244
4.75413e-06
4.67749e-06
-6.58797e-06
1.15608e-06
-0.293007
0.00602497
-0.281769
1.56843e-06
-0.214207
0.0550301
4.0917e-06
3.9558e-05
0.10809
0.000185842
3.83446e-06
3.08159e-05
6.85531e-07
0.0595953
4.64595e-06
1.6289e-05
-0.191431
-7.74879e-05
0.000927614
-0.00017244
4.05653e-06
1.17701e-05
8.52734e-05
2.51552e-06
1.2786e-06
3.08492e-06
-9.89599e-05
0.205792
-8.20714
-2.26351e-06
-0.0030267
0.052594
2.00452e-06
-0.396308
0.0172219
6.46241e-06
-0.574744
1.28286e-06
-0.000485619
-0.150916
-3.57669e-06
9.3112e-07
2.87294e-06
-0.00749966