/*--------------------------------*- C++ -*----------------------------------*\
| =========                 |                                                 |
| \\      /  F ield         | OpenFOAM: The Open Source CFD Toolbox           |
|  \\    /   O peration     | Version:  v2012                                 |
|   \\  /    A nd           | Website:  www.openfoam.com                      |
|    \\/     M anipulation  |                                                 |
\*---------------------------------------------------------------------------*/
FoamFile
{
    version     2.0;
    format      ascii;
    class       volScalarField;
    location    "450";
    object      k_0;
}
// * * * * * * * * * * * * * * * * * * * * * * * * * * * * * * * * * * * * * //

dimensions      [0 2 -2 0 0 0 0];


internalField   nonuniform List<scalar> 
18355
(
0.000265393
0.000137066
0.000219335
0.000140891
0.000219272
0.00538457
0.000146332
0.000216196
0.000151902
0.00385976
0.000158945
0.000195188
0.000196942
0.000450409
0.000142816
0.000135506
0.000140874
0.000154649
0.000209947
0.000152086
0.000318777
0.00014917
0.000136927
0.00531475
0.000136997
0.000149383
0.000146609
0.000141
0.000152608
0.00016031
0.00418175
0.000185092
0.000137799
0.000134326
0.000145024
0.000150651
0.00015965
0.000150992
0.000161176
0.000148431
0.000151205
0.000160051
0.000134497
0.000136881
0.00013698
0.000234303
0.000141128
0.000141004
0.00313718
0.000144804
0.000142203
0.000472786
0.000145188
0.000208433
0.000143099
0.000152453
0.000144801
0.00291246
0.000150044
0.00386532
0.000134433
0.000183477
0.000208171
0.000145142
0.000195673
0.000140221
0.00015489
0.000159785
0.000134009
0.00511888
0.000142225
0.000143129
0.000176991
0.000156301
0.000320157
0.000134186
0.0031594
0.000134295
0.000141924
0.000241477
0.000154804
0.00197506
0.000134116
0.000157236
0.000181832
0.000149381
0.00015325
0.000173007
0.000140412
0.000173327
0.000789638
0.000283561
0.00222488
0.000144759
0.00979318
0.000147922
0.000139992
0.000145261
0.000183067
0.000148791
0.000179727
0.0001416
0.000144412
0.000130547
0.000155385
0.000135617
0.000195284
0.0102168
0.000166199
0.000135132
0.000141693
0.000147114
0.000169053
0.000156686
0.000251577
0.000162251
0.000141333
0.00115311
0.000152723
0.000154397
0.00613953
0.000222254
0.000673332
0.000177585
0.00144116
0.000242434
0.000146585
0.000141224
0.000265447
0.00014767
0.000140063
0.000499184
0.0001434
0.00018032
0.000207721
0.000140462
0.000209774
0.00745902
0.000142354
0.000305879
0.000157138
0.000269108
0.000140869
0.000514182
0.000208791
0.00014654
0.00878943
0.000131417
0.00016872
0.00589864
0.000140925
0.000154235
0.000144972
0.000185649
0.000134615
0.000138268
0.000141394
0.000149279
0.000140945
0.000139296
0.000155764
0.00014351
0.000135191
0.00022747
0.000157511
0.00237592
0.0102884
0.000284655
0.0166202
0.000157121
0.000146254
0.000179315
0.000148344
0.00221746
0.000145377
0.000150578
0.00014638
0.000130234
0.000151489
0.00016378
0.000149644
0.00203637
0.00014852
0.000141264
0.000925526
0.000144303
0.000150195
0.000172896
0.000143302
0.000147264
0.000236674
0.000182473
0.000137325
0.000134824
0.000143807
0.00037011
0.000139381
0.000281277
0.000137162
0.000390737
0.000144015
0.000151874
0.000161516
0.000149417
0.000267567
0.000146886
0.0172272
0.000141231
0.000137263
0.00014443
0.000146771
0.00177974
0.000153281
0.00014841
0.000131584
0.00146434
0.000163893
0.000156644
0.000147087
0.000141252
0.00016517
0.000134045
0.00017098
0.000175828
0.000234024
0.000161808
0.000134232
0.00762564
0.000242547
0.000171758
0.000145007
0.000155416
0.00455622
0.000134207
0.000233071
0.000159015
0.000149178
0.000237925
0.000155497
0.000148614
0.000137395
0.000151228
0.000146303
0.000169813
0.000146892
0.000143102
0.000140935
0.00169065
0.00439155
0.000142859
0.000147715
0.00455942
0.000202324
0.000178144
0.000130265
0.000250766
0.000155525
0.000147405
0.000161018
0.00013961
0.0058525
0.000390836
0.000180742
0.000161155
0.000162564
0.000227029
0.00023688
0.000185336
0.000139564
0.000143144
0.000148449
0.00013521
0.000151912
0.000156887
0.000140656
0.00014683
0.000166043
0.000140318
0.000195741
0.00411645
0.000162396
0.000147017
0.000163527
0.000135086
0.000173
0.000146227
0.000165357
0.000148644
0.000164219
0.00424746
0.000137524
0.000170922
0.000152327
0.000159233
0.000224517
0.000145178
0.000134627
0.000193567
0.000146809
0.000269741
0.000159584
0.0184044
0.00017298
0.000181178
0.000152875
0.000168585
0.000144361
0.000154109
0.000160684
0.00017102
0.00194954
0.00655234
0.000142173
0.00015943
0.000203383
0.000164638
0.000142103
0.000140938
0.000140952
0.000172564
0.0047683
0.0595034
0.00189099
0.000165164
0.00015653
0.00221125
0.000131305
0.000146655
0.000156476
0.000144159
0.000171889
0.000144233
0.00332525
0.00013592
0.00263857
0.00014352
0.000148243
0.000153636
0.00019972
0.00029186
0.000169955
0.00133262
0.000149053
0.000140527
0.000144046
0.000158669
0.00447977
0.000140747
0.000145319
0.00337775
0.000148747
0.000140855
0.000203718
0.000156488
0.000140946
0.000144354
0.000166619
0.000151806
0.00016651
0.000135613
0.000145264
0.000148569
0.000791072
0.00075845
0.000135312
0.000140682
0.00019535
0.000141019
0.000147986
0.00258995
0.000816707
0.000169857
0.000143887
0.000149404
0.000197216
0.000149063
0.000251099
0.000154233
0.000136705
0.000196504
0.000207599
0.000148082
0.000144139
0.000154854
0.000146267
0.000156048
0.000143756
0.000213668
0.000146447
0.000153645
0.000142652
0.000141004
0.000151573
0.000150066
0.000177212
0.0535914
0.00190583
0.000154148
0.000201851
0.000181373
0.000143733
0.00014385
0.00016969
0.000143316
0.00017183
0.000145539
0.000159762
0.0020081
0.000914486
0.000296204
0.000183903
0.000130678
0.0428637
0.000148798
0.000140588
0.000334434
0.000143089
0.000177757
0.000137387
0.00020182
0.000143056
0.0001785
0.00475898
0.000178745
0.000144065
0.000137571
0.000179384
0.000152735
0.000142756
0.00317734
0.000320519
0.000140528
0.000170076
0.000177112
0.000137492
0.000149637
0.000167989
0.000994948
0.000170939
0.000148741
0.000144694
0.000166963
0.000144548
0.000136155
0.000143628
0.000370132
0.0504121
0.000136493
0.000151401
0.000145129
0.00020162
0.000207445
0.000134818
0.000177857
0.000171216
0.000145231
0.000342725
0.000183387
0.000148739
0.000145988
0.000169986
0.000203622
0.00896746
0.000136276
0.00117594
0.000142858
0.000136486
0.000175079
0.000153137
0.000216213
0.000177001
0.000154006
0.000157278
0.000149201
0.000202131
0.000153203
0.000159879
0.000149035
0.000136041
0.000147957
0.000136242
0.00018261
0.0540724
0.000201522
0.000155509
0.000147005
0.000149026
0.000145873
0.000153031
0.000146326
0.000135547
0.000143705
0.00017303
0.000137512
0.000146198
0.0344901
0.000288935
0.000204439
0.000147494
0.000150925
0.000168154
0.000148987
0.0061927
3.02783e-06
0.000158296
0.000157453
0.000157283
0.000150578
0.000154531
0.0297282
0.000167866
0.000149448
0.00420615
0.000146928
0.000283027
0.04076
0.000156118
0.000149341
0.0324597
0.000140722
0.000177918
0.000186262
0.00266308
0.000153201
0.000147809
0.000145117
0.00260389
0.00676365
0.00203361
0.00210488
0.000152269
0.000144979
0.000157229
0.000143161
0.000156789
0.000305741
0.00116433
0.0567903
0.0159387
0.000170704
0.000181987
0.000171051
0.000141194
0.000142175
0.000175418
0.000156505
0.000146429
0.000143108
0.0035855
0.000139902
0.0145249
0.000162259
0.000180319
0.000199283
0.000142227
0.000156681
0.000248806
0.000143666
0.0603117
0.000143486
0.000267931
0.000167998
0.000149211
0.000170577
0.000184514
0.000185082
0.000150252
0.000134015
0.00016596
0.000156432
0.000180345
0.000143483
0.000184085
0.000139848
0.00011342
0.00014626
0.000143553
0.000218535
0.000183887
0.000179178
0.000144302
0.000158244
0.000155938
0.00323047
0.0605211
0.000155542
0.00020825
0.000145299
0.000163256
0.000148257
0.000155208
0.0517795
0.000136795
0.00186211
0.000146695
0.000145801
0.000155841
0.00609968
0.000151871
0.000201254
0.000149157
0.000165938
0.00563008
0.000131437
0.000140999
0.000479699
0.000172715
0.0348403
0.00017817
0.000147715
0.00014312
0.000142624
0.000156398
0.000149482
0.000136652
0.000225445
0.000548762
0.000143335
0.000359399
0.000771732
0.000157123
0.000227937
0.000136372
0.000255144
0.0020982
0.000132474
0.0059476
0.000168476
0.00275917
0.00345172
0.000143238
0.000142561
0.000148319
0.00142372
0.000172008
0.000144493
0.000149019
0.000222828
0.000148538
0.00016902
0.000143378
0.000167329
0.0557448
0.00195027
0.00022958
0.00145656
0.000174536
0.0024229
0.000157453
0.00014054
0.000160971
0.00331763
0.000190596
0.000171033
0.000144263
0.000236492
0.000145309
0.000147993
0.0532433
0.000149075
0.000161904
0.000193602
0.000197574
0.000144583
0.000142872
0.000155708
0.000159098
0.00013416
0.000146266
0.000173051
0.000211974
0.000153503
0.000145351
0.000175726
0.00545084
0.000143682
0.00108072
0.000271192
0.000145125
0.00197719
0.000134779
0.000228098
0.000143664
0.000138353
0.000218554
0.000153744
0.00110285
0.00015315
0.000142888
0.00388034
0.000143637
0.000134961
0.000145639
0.000140636
0.000162796
0.000171259
0.000309737
0.000151767
0.0598032
0.000153
0.000919601
0.00396495
0.000149805
0.000143996
0.000158231
0.00013658
0.00018943
0.000142449
0.000134835
0.000135674
0.0001443
0.000143589
0.000236496
0.000156475
0.000172038
0.000152249
0.000159142
0.000154976
0.000172986
0.000353591
0.00013743
0.00018257
0.000178067
0.000134401
0.00102902
0.0554035
0.000141755
0.000492726
0.000145271
0.00442238
0.000165794
0.000132279
0.000166256
0.000160028
0.000716924
0.000142529
0.000154815
0.00134687
0.000210054
0.000265035
0.000143558
0.00262401
0.000181804
0.000251303
0.000143492
0.000152305
0.000142914
0.000146081
0.000141985
0.000144398
0.000136807
0.000596581
0.000167178
0.000141167
0.000134255
0.000140098
0.000148462
0.00020516
0.000181182
0.000137515
0.000159117
0.000146598
0.000146805
0.00014554
0.000140785
0.000228385
0.000134272
0.000140204
0.000149766
0.00014725
0.000153145
0.000145671
0.000241994
0.000284826
0.000155813
0.00014005
0.000202351
0.000134721
0.000134343
0.000145486
0.000336511
0.000155634
0.000144539
0.000135942
0.000137217
0.000157422
0.000133939
0.000158831
0.000142348
0.000148304
0.000141894
0.000152111
0.000392981
0.000140476
0.000148888
0.000143498
0.00021888
0.00297204
0.000158889
0.000149479
0.000181472
0.000163418
0.000223405
0.0235138
0.000149629
0.0018095
0.000148997
0.0151408
0.000150383
0.000136988
0.000135837
0.0087345
0.000135519
0.000159119
0.000214083
0.000207915
0.000180359
0.000153927
0.000142453
0.000143061
0.000143506
0.000160275
0.000186471
0.00308497
0.000172798
0.000145418
0.000133962
0.000154966
0.000141832
0.00014083
0.000148482
0.000172156
0.000161702
0.00252981
0.000145338
0.000144365
0.000173513
0.00014317
0.000203784
0.000173017
0.000175449
0.000196485
0.00364857
0.000163934
0.000141155
0.000134036
0.000147578
0.000142935
0.0041646
0.000171773
0.000188256
0.00013694
0.000147088
0.000154508
0.000141078
0.0204828
0.00024345
0.000134366
0.000135866
0.000143359
0.000142015
0.000140814
0.000144338
0.000230708
0.000134898
0.000149767
0.000136953
0.000137884
0.000142111
0.000145857
0.000158333
0.000137839
0.000178042
0.000135898
0.00203815
0.000228429
0.00015366
0.00289067
0.000153836
0.000148777
0.000177816
0.00216475
0.000144509
0.000140338
0.000137024
0.000173706
0.000151101
0.000163873
0.000710294
0.000146293
0.000149672
0.000144631
0.0156729
0.00124645
0.000151894
0.000139721
0.000157127
0.000172601
0.000142256
0.000184036
0.000140289
0.000134004
0.000156055
0.000289616
0.00331095
0.00372049
0.000231489
0.000134668
0.000220241
0.000209734
0.000159302
0.000143487
0.00020988
0.000158297
0.000233484
0.000307648
0.000141643
0.000134737
0.000144672
0.000149644
0.000134869
0.00257887
0.00313004
0.000134637
0.000146507
0.000149153
0.00016726
0.000144014
0.000141907
0.000195069
0.000148695
0.00014255
0.002571
0.00018462
0.000181152
0.000142758
0.00013596
0.000134855
0.000145739
0.000171469
0.000192756
0.000140507
0.000139156
0.000153294
0.00235267
0.000137064
0.000143916
0.000184888
0.000140893
0.000139182
0.000143594
0.000551432
0.000135781
0.000144454
0.00013713
0.000152416
0.000135773
0.000158668
0.000199755
0.000143949
0.000211506
0.000162718
0.000219813
0.000177133
0.00014083
0.000160873
0.000140402
0.000139057
0.00014084
0.00409422
0.00407011
0.000237646
0.000159761
0.00107418
0.000178556
0.000150164
0.000185671
0.000204314
0.000155025
0.000135624
8.25387e-05
0.000150109
0.000140782
0.000137979
0.000557361
0.000536523
0.000321181
0.000138893
0.00018508
0.00222856
0.000175233
0.000166909
0.00015602
0.000154385
0.000165063
0.0033581
0.000151925
0.000150249
0.000157629
0.0365081
0.000248319
0.000143936
0.000146622
0.000143079
0.0109485
0.000153089
0.000148739
0.000829517
0.000158573
0.00017629
0.000155955
0.00555728
0.000138598
0.0150563
0.000149871
0.000135902
0.000141219
0.0001356
0.000135952
0.0001407
0.000148059
5.50005e-05
0.000138163
0.0155916
0.000159042
0.000147485
0.000141277
0.00018397
0.000143285
0.000146398
0.000156013
0.00515241
0.000194941
0.000153741
0.000146439
0.0428657
0.000138566
0.000174553
0.000146217
0.000332381
0.000168343
0.00542999
0.000160053
0.000142753
0.000260974
0.00157427
0.000243986
0.000137674
0.00014353
0.000166907
0.0526343
0.000130944
0.000174937
0.000143206
0.000158446
0.000140355
0.000134827
0.000149071
0.000150087
0.000135279
0.000176659
0.00017425
0.000160854
0.000196662
0.000137841
0.000150415
0.00188374
0.000136288
0.00018941
0.0022475
0.000206383
0.000134615
0.000149015
0.00014599
0.0125206
0.000144268
0.000140569
0.000183906
0.000146312
0.000146228
0.000151058
0.000149666
0.000142912
0.0436977
0.0054312
0.000176669
0.000139148
0.000145246
0.000235969
0.00013623
0.000290114
0.000147006
0.000145785
0.000149235
0.000157704
0.000229095
0.000140825
0.000145094
0.00153252
0.000146941
0.000148488
0.000167061
0.0137744
0.00329451
0.000144373
0.000143257
0.0566896
0.00339606
0.000273729
0.000140326
0.000164813
0.000215599
0.000137802
0.000221104
0.000152
0.00376782
0.000154885
0.000145997
0.000150474
0.000135493
0.0539694
0.000144969
0.000138995
0.00262927
0.000192235
0.00118647
0.000135118
0.000152086
0.000135589
0.000132015
0.000136184
0.000149856
0.000146593
0.000148684
0.000135524
0.000148286
0.000174447
0.000159687
0.000161706
0.000140385
0.000154083
0.000141937
0.00435113
0.000147227
0.000149904
0.000148182
0.000135865
0.000148493
0.000148348
0.000143727
0.000143245
0.000141062
0.000136234
0.0101748
0.000433082
0.000144309
0.0509448
0.000166319
0.00014963
0.000147743
0.000150294
0.00456492
0.000147665
0.000136235
0.000134582
0.000134607
0.000260695
0.000144457
0.000136986
0.000221247
0.000134081
0.000133301
0.000169689
0.000176071
0.000219174
0.000197689
0.0237395
0.000135654
0.00761302
0.000157932
0.00014304
0.000136857
0.000165264
0.000143129
0.000164628
0.00017773
0.000152533
0.000151431
0.0534088
0.000194023
0.000797609
0.0046821
0.00199754
0.000228412
0.000139292
0.000317533
0.000612477
0.00013509
0.00737572
0.000138877
0.000150918
0.000199196
0.000140345
0.000268652
0.000158484
0.00015272
0.000148492
0.000197083
0.000143855
0.0154272
0.000142803
0.000136173
0.00368678
0.000133614
0.000149958
0.000148563
0.000175762
0.000142228
0.00014403
0.000153141
0.0017021
0.000144007
0.000144401
0.000136726
0.000154956
0.000142317
0.000150911
0.00151469
0.000141313
0.000157757
0.000148047
0.000157066
0.000165392
0.000140408
0.000148918
0.000186485
0.000146801
0.000148247
0.000161029
0.00584889
0.000150516
0.000141732
0.000143942
0.000161679
0.000219992
0.000150941
0.00014097
0.000141226
0.000137709
0.000131843
0.000135635
0.00015885
0.000225366
0.000176381
0.000146614
0.000621469
0.000139634
0.000144622
0.048398
0.000171348
0.000134201
0.000185238
0.00014599
0.000140954
0.00402132
0.000148294
0.000174818
0.000132476
0.000200481
0.000139385
0.000134816
0.000136024
0.00120583
0.000231807
0.000146597
0.000248457
0.000135856
0.000142159
0.00013902
0.000200786
0.000145563
0.000138465
0.000148523
0.000152285
0.000142947
0.000145641
0.000140431
0.000148189
0.000146488
0.000140276
0.000153675
0.000135169
0.000319516
0.000177362
0.000136477
0.000277841
0.000158232
0.000140704
0.000139859
0.000151314
0.000140614
0.000161487
0.000155956
0.000197875
0.000197495
0.00014749
0.000180639
0.000200519
0.000142951
0.000147377
0.000181956
0.000153531
0.005661
0.000135645
0.000143984
0.000152014
0.000146724
0.000143228
0.000157458
0.000140475
0.000166318
0.000143921
0.000154542
0.000139691
0.000194868
0.000144694
0.000154732
0.000216908
0.000142709
0.00393192
0.00133404
0.000153521
0.000157736
0.000162952
0.000134306
0.000194472
0.000145428
0.000167134
0.000524019
0.000559568
0.000235333
0.000172698
0.000163194
0.000142812
0.00016546
0.000139042
0.037783
0.000217013
0.00014751
0.000140623
0.000270462
0.000175757
0.000142746
0.000143101
0.000877224
0.000147594
0.000138378
0.00579903
0.000174513
0.000134966
0.000244813
0.000136082
0.000188588
0.000175081
0.000142971
0.000144287
0.000157014
0.000342023
0.000140134
0.000159151
0.000144264
0.000143001
0.000139756
0.000411491
0.000148254
0.000144934
0.00014395
0.000232587
0.000159547
0.000140305
0.000132881
0.000188244
0.000142151
0.000136906
0.000262595
0.0152925
0.000148877
0.000243251
0.000157382
0.000172285
0.000150167
0.000175521
0.00435298
0.000147422
0.000141213
0.000137205
0.000155883
0.00014272
0.000856423
0.000280329
0.000137423
0.000150481
0.0001364
0.000135524
0.0431037
0.000142808
0.000151271
0.000152288
0.000223052
0.000144494
0.000147894
0.000155992
0.00461688
0.000146445
0.000145019
0.000137386
0.000138414
0.000155327
0.000171404
0.000146885
0.000142108
0.000144617
0.000143262
0.000137224
0.0404848
0.000147764
0.000143263
0.000141867
0.000175971
0.000136549
0.000136922
0.000168512
0.000142335
0.000183182
0.000144176
0.000144468
0.00206375
0.042484
0.000499122
0.000192151
0.000158927
0.00014783
0.0610724
0.000139741
0.000155917
0.000135172
0.00541754
0.000130394
0.000155761
0.000144586
0.00219973
0.000178506
0.000194119
0.0607343
0.000151404
0.000197519
0.000148053
0.000149226
0.0533152
0.000166003
0.000142087
0.000136022
0.000154463
0.000164546
0.000143968
0.00014465
0.000139731
0.00013487
0.000218547
0.00484282
0.000148085
0.000155188
0.021348
0.000302929
0.000153461
0.00015077
0.000153073
0.000155147
0.000142312
0.000150266
0.000266333
0.000140246
0.000136283
0.000146202
0.0002816
0.000122694
0.000157885
0.000146655
0.00014689
0.000160452
0.00014369
0.000159302
0.000176563
0.000225557
0.000153454
0.000407684
0.000134752
0.000142779
0.000148412
0.000135293
0.00014691
0.000140003
0.000224666
0.00014091
0.00265722
0.000145
0.000139043
0.000137628
0.000180189
0.000151118
0.000170911
0.000186206
0.000136105
0.0409378
0.000155783
0.000138083
0.000133392
0.00297965
0.000191737
0.000133632
0.000140481
0.000141153
0.000150137
0.000208515
0.000223961
0.000149043
0.000149745
0.000198839
0.0618684
0.000149482
0.000142579
0.00571669
0.000154644
0.00141443
0.000153303
0.000142302
0.000176155
0.000173193
0.0421756
0.000179666
0.000334462
0.000136916
0.000142148
0.000149388
0.00014647
0.000154664
0.000147863
0.000146172
0.000139474
0.000148135
0.000146119
0.000148607
0.000145264
0.000152701
0.000149054
0.000143624
0.000141899
0.000174012
0.000159632
0.000140334
0.000145223
0.000214756
0.000144255
0.000147932
0.000148515
0.000372511
0.000136942
0.000167933
0.000152772
0.000136096
0.000143561
0.0511402
0.000226129
0.000149207
0.000149691
0.00015444
0.000172406
0.000139991
0.000162254
0.000180524
0.000141211
0.000187822
0.00014086
0.000143206
0.000143549
0.000148551
0.000161198
0.000186996
0.0567386
0.000173133
0.000136273
0.000144942
0.000143168
0.000211581
0.000149151
0.00112231
0.000139704
0.000143833
0.000143488
0.000179168
0.000142425
0.000146602
0.000144195
0.000196744
0.000137016
0.0269249
0.000137042
0.000166057
0.000144475
0.000161466
0.000140781
0.000154132
0.000329197
0.000220565
0.000136347
0.000181634
0.00014522
0.000146612
0.0475281
0.000369865
0.000136194
0.000142722
0.000154656
0.000135923
0.000143914
0.000148507
0.000147669
0.000158919
0.000173688
0.000150251
0.000158693
0.000237927
0.000147358
0.000140803
0.000142071
0.000152877
0.000162517
0.000144118
0.0506777
0.000140759
0.0616445
0.000167089
0.000136604
0.000140123
0.000139864
0.000176853
0.000145935
0.000153202
0.000146175
0.000140614
0.000479865
0.000153158
0.000170746
0.000147303
0.000145585
0.000151725
0.000143156
0.000152962
0.000143426
0.00015116
0.000149429
0.000148625
0.0108851
0.000178631
0.00311284
0.000140894
0.000168681
0.000151467
0.00212552
0.000183475
0.00698925
0.000150512
0.000134821
0.000169328
0.000142832
0.0059763
0.000149824
0.000190481
0.000151121
0.0544359
0.037927
0.000154261
0.000170442
0.000139384
0.000137448
0.000148636
0.00013459
0.000148025
0.000153074
0.00013943
0.000163771
0.000209691
0.00162363
0.00014058
0.000273385
0.000134672
0.000142366
0.00014344
0.000186283
0.000147817
0.000271257
0.000148024
0.000143704
0.0253926
0.000140148
0.000153008
0.000142143
0.000156146
0.00678228
0.000167715
0.0361272
0.000145517
0.000183118
0.000152838
0.000141705
0.000144128
0.00020896
0.000164977
0.000143071
0.000151911
0.000143161
0.01056
0.000139071
0.00431877
0.000122494
0.000182701
0.000158481
0.000231129
0.000177221
0.00013459
0.00177553
0.000142325
0.0144362
0.000148772
0.000152045
0.00515679
0.0050819
0.000161193
0.0107163
0.000143537
0.00158098
0.000131078
0.000498001
0.000135266
0.000155701
0.000190067
0.000146449
0.000139127
0.000149481
0.000144436
0.000174065
0.00211258
0.00016911
0.00157991
0.000141022
0.000618675
0.000144333
0.000146911
0.000142896
0.000144869
0.00647049
0.000147279
0.000137965
0.000166711
0.000148218
0.00382291
0.000201926
0.000142945
0.000205508
0.000167794
0.000140439
0.00014482
0.000155569
0.000136537
0.000175211
0.000163414
0.000150963
0.000151018
0.000137275
0.000145847
0.000175654
0.00014919
0.000144959
0.000150388
0.000135012
0.000135614
0.00286651
0.000162114
0.0580482
0.000159803
0.000174304
0.000158691
0.000142011
0.000167785
0.000138571
0.000140753
0.000830347
0.000164912
0.000167655
0.000175336
0.000147305
0.000244023
0.0169924
0.000143702
0.000167157
0.000185215
0.0499723
0.000136387
0.000137972
0.000147313
0.000186252
0.00155384
0.000168105
0.000154502
0.000148321
0.000142001
0.000135384
0.00346235
0.000153267
0.000155953
0.00551074
0.000146765
0.000154107
0.000156392
0.000145014
0.000142757
0.00014327
0.000174973
0.000197034
0.000148584
0.000151682
0.000250662
0.000142327
0.000149306
0.000154286
0.000146807
0.00483332
0.00577056
0.00147156
0.000202564
0.000560773
0.00015267
0.000139757
0.000250604
0.000155656
0.00016147
0.000143172
0.00013539
0.00393739
0.000371
0.000141385
0.000139555
0.000162852
0.000280756
0.00015413
0.000134919
0.0489448
0.000152621
0.000166891
0.000135014
0.000158975
0.000131107
0.000150748
0.000159624
0.000142005
0.0410258
0.000149266
0.000169247
0.000200522
0.00151494
0.000195407
0.000142172
0.000176581
0.000155531
0.000164893
0.000150512
0.000152798
0.000145367
0.00015257
0.00171699
0.000152046
0.00169535
0.000139963
0.000218375
0.000135919
0.000148928
0.00363447
0.000155951
0.000217178
0.000165684
0.00014969
0.0494845
0.0517864
0.000139983
0.0304669
0.000174195
0.000138845
0.000133956
0.000330303
0.0231606
0.000139073
0.000136151
0.000144158
0.000136761
0.0611741
0.00025597
0.000130212
0.000133115
0.000139906
0.000231695
0.000172235
0.00449882
0.000135995
0.00403176
0.000146939
0.000187635
0.0378085
0.000164511
0.000139414
0.000140057
0.00461373
0.000136631
0.000141227
0.000136454
0.000163172
0.000153306
0.0484952
0.00016384
0.0001485
0.000142338
0.000158291
0.000215748
0.000185644
0.000141662
0.000141904
0.000201854
0.000173033
0.000150039
0.00332275
0.000162198
0.000153003
0.0487145
0.000151947
0.000160034
0.000148435
0.00253602
0.00014522
0.000148684
0.000333403
0.000159733
0.000141157
0.000143311
0.000131151
0.000177314
0.000197423
0.000141008
0.000136024
0.000149677
0.000179816
0.000160627
0.000135087
0.000142762
0.000139144
0.00015321
0.000169768
0.000146215
0.000142832
0.0489234
0.000141962
0.00133059
0.000164652
0.000168842
0.000152292
0.000150407
0.000145005
0.00299153
0.000194968
0.000179593
0.0462207
0.00016398
0.000140051
0.0422746
0.000136426
0.000181267
0.0601936
0.000153773
0.000141758
0.000154747
0.000179187
0.000142613
0.000143259
0.0178055
0.000142864
0.000151337
0.000140391
0.000146601
0.000137477
0.000198621
0.000196162
0.000135831
0.000141061
0.00286469
0.000142523
0.000136575
0.000140852
0.000140699
0.000350868
0.000159737
0.000153357
0.000153549
0.000149296
0.000137322
0.00017545
0.000190925
0.000158976
0.000399948
0.000152442
0.000154804
0.0470959
0.000140073
0.000136285
0.000143504
0.000140507
0.0001487
0.000132656
0.00015021
0.0583088
0.000144779
0.000141783
0.00015592
0.000140652
0.00144857
0.000147713
0.0445098
0.000216206
0.000172127
0.000162098
0.00220212
0.000161505
0.000143083
0.000153398
0.00014046
0.000151501
0.000146903
0.00014793
0.0365653
0.000135845
0.000143775
0.000171812
0.000152847
0.000147895
0.000139719
0.000214509
0.00015067
0.000180746
0.000143046
0.000139843
0.000143811
0.00246859
0.000146162
0.000129645
0.000175036
0.000149093
0.000139634
0.000143437
0.000160585
0.00244792
0.000135877
0.00018077
0.000141765
0.0416966
0.000231236
0.000149617
0.000209372
0.000146171
0.00015337
0.000155071
0.000395111
0.00015909
0.000157227
0.000159411
0.00517676
0.000147449
0.000176233
0.000144543
0.000210499
0.00019921
0.000216105
0.000142821
0.000165047
0.0017403
0.00227723
0.000154174
0.000155085
0.00272592
0.00272386
0.000140331
0.000175562
0.000143269
0.000156168
0.000145939
0.000152573
0.000151828
0.00561536
0.000147223
0.000148195
0.000175241
0.00560369
0.00391933
0.000193341
0.00618886
0.000139854
0.00219215
0.000177017
0.000142083
0.000141732
0.00495794
0.000158215
0.000145116
0.00014256
0.000174991
0.000138643
0.0001428
0.0148765
0.000145566
0.000148269
0.000141098
0.000143832
0.00015147
0.000138973
0.0541578
0.0001678
0.000151987
0.000139473
0.0001654
0.0105675
0.000142394
0.000148208
0.00252577
0.000214175
0.000143459
0.00015508
0.000138716
0.00014038
0.000198676
0.000207028
0.000140417
0.000143416
0.00240478
0.000325737
0.000135987
0.000184181
0.000151009
0.00453722
0.000140647
0.00015611
0.000155022
0.000139898
0.0180521
0.00140846
0.000168252
0.000182951
0.00495948
0.00013396
0.000133113
0.000151455
0.000169479
0.00349636
0.000136441
0.000173124
0.00917938
0.0123398
0.000147104
0.000151288
0.000333492
0.000142861
0.000155549
0.00625021
0.000140829
0.00014247
0.000139269
0.000243698
0.000141828
0.000164535
0.000148854
0.000219526
0.000163028
0.00466137
0.000143084
0.000142155
0.000162143
0.000147635
0.000167008
0.000149721
0.000187232
0.000193937
0.000140789
0.000144318
0.0573788
0.0181201
0.000466841
0.000139052
0.000143361
0.000155297
0.000145286
0.000143098
0.000143997
0.000150916
0.000148508
0.000139413
0.000139678
0.000181547
0.000152349
0.000172123
0.000487268
0.000177688
0.000172768
0.000157033
0.00019641
0.00021248
0.000162384
0.000156191
0.000160338
0.00014171
0.0037729
0.00013615
0.000135741
0.000140767
0.00546802
0.00014238
0.00505869
0.000148078
0.00013503
0.000185569
0.000142922
0.000142214
0.000142897
0.000185743
0.00025563
0.000147263
0.00013991
0.000151848
0.0210262
0.000172509
0.00355047
0.000143124
0.000172908
0.00014676
0.000145626
0.000136208
0.000138885
0.00014337
0.000151807
0.000521251
0.000151894
0.000151654
0.000191935
0.00307532
0.000196046
0.00014197
0.000187252
0.000163796
0.00768258
0.000137917
0.000143018
0.000152969
0.000316708
0.000132437
0.000144508
0.000138842
0.000136565
0.000195077
0.000153057
0.000189603
0.00014556
0.000132215
0.000168446
0.000143972
0.00463765
0.00014436
0.000169856
0.000148021
0.000159542
0.000149469
0.000176382
0.00366342
0.000142451
0.000185806
0.0289081
0.000141646
0.000146541
0.000169578
0.000131869
0.0369236
0.000180997
0.000142398
0.000175206
0.00013428
0.000147495
0.000147834
0.000141423
0.000136548
0.00015005
0.000140493
0.000138771
0.000145214
0.00014788
0.000172289
0.000136071
0.000201531
0.000138494
0.000140303
0.00015962
0.000174892
0.000149793
0.000131971
0.000142382
0.000153945
0.000173463
0.0169233
0.000164149
0.000149162
0.00014912
0.000139487
0.000162097
0.000140619
0.000152413
0.00308027
0.00023551
0.00017212
0.00014137
0.000147842
0.000150016
0.000132091
0.000185406
0.000134895
0.000233367
0.000149399
0.000215714
0.000158868
0.00139304
0.000146978
0.000181694
0.0311931
0.00464996
0.000902385
0.000158002
0.00476347
0.0141336
0.000148773
0.000165045
0.0473116
0.000138446
0.000139005
0.000143896
0.000156019
0.0002388
0.000145828
0.000159673
0.00658514
0.000130237
0.000144542
0.00154371
0.00279636
0.000189945
0.00112756
0.00667007
0.000150084
0.000193536
0.000152524
0.000153618
0.00505847
0.000154298
0.0526138
0.000112974
0.000154013
0.000145805
0.000151022
0.000157269
0.000139407
0.032137
0.000132336
0.00014281
0.000143244
0.000341865
0.0476111
0.00023425
0.000144578
0.000150123
0.000138955
0.0613434
0.000143451
0.000149676
0.000154244
0.00020447
0.000138625
0.000180702
0.0370543
0.0034941
0.000147198
0.000909541
0.000139705
0.00299777
0.000132759
0.00027585
0.000147523
0.000179267
0.000158868
0.00136536
0.000202918
0.00015254
0.000152858
0.000187254
0.00015541
0.000141837
0.000138704
0.000157162
0.000147809
0.00176527
0.000131543
0.000142657
0.000144186
0.000143763
0.00136449
0.000139281
0.000134615
0.000146511
0.00146102
0.000164536
0.000174552
0.000152372
0.000151342
0.000182632
0.000140101
0.000143182
0.000186181
0.000170701
0.000134629
0.000172992
0.000152605
0.00201786
0.000142687
0.000259142
0.000147236
0.000143061
0.000135267
0.000134914
0.000142223
0.000141332
0.0176165
0.000181367
0.000146744
0.000143095
0.000142272
0.000152951
0.000158789
0.0543645
0.000146603
0.000199137
0.000164868
0.00351847
0.000147201
0.000173134
0.000143049
0.000142719
0.000164036
0.000142539
0.000145608
0.000140365
0.000136075
0.0490037
0.00014354
0.000139226
0.000208014
0.00462716
0.000195559
0.000145729
0.000135001
0.000155344
0.042872
0.000153519
0.000147906
0.000146861
0.0160124
0.000148536
0.000143745
0.00241804
0.000141405
0.000156519