/*--------------------------------*- C++ -*----------------------------------*\
| =========                 |                                                 |
| \\      /  F ield         | OpenFOAM: The Open Source CFD Toolbox           |
|  \\    /   O peration     | Version:  v2012                                 |
|   \\  /    A nd           | Website:  www.openfoam.com                      |
|    \\/     M anipulation  |                                                 |
\*---------------------------------------------------------------------------*/
FoamFile
{
    version     2.0;
    format      ascii;
    class       surfaceScalarField;
    location    "450";
    object      meshPhiCN_0;
}
// * * * * * * * * * * * * * * * * * * * * * * * * * * * * * * * * * * * * * //

dimensions      [0 3 -1 0 0 0 0];
oriented        oriented;


internalField   nonuniform List<scalar> 
27284
(
0.000240399
-0.00039793
0.00015766
-0.000200498
0.000184021
2.26259e-05
0.000142412
0.000119557
-0.000261919
-0.000128681
0.000203455
-5.97386e-05
2.2598e-05
0.000422485
-0.000442946
-0.000441633
-0.000124764
0.000567866
0.000273695
-0.000436238
0.000165451
0.000440797
-0.000416076
-3.18533e-05
4.292e-05
5.51364e-07
0.000300851
-0.00035399
5.42618e-05
0.000651158
-0.000220896
-0.000428645
0.000247908
-0.00012018
-0.000127686
8.76012e-05
0.000160345
0.000173817
0.000316568
-0.000489781
-7.38827e-05
7.28004e-05
1.34555e-05
0.000108479
-0.000146497
4.23853e-05
-0.000172934
6.2204e-05
-0.000132101
0.000546141
-0.00041234
0.000153546
0.000159675
-0.000313129
0.000255999
0.000144634
-0.000397837
0.000199148
-0.000447235
0.000248318
0.000110877
-0.000524459
0.000416904
-7.29412e-05
0.00014706
-6.55014e-05
0.000107793
-0.000547934
5.46403e-05
-0.000119945
0.000396982
-0.00054304
0.000149728
0.000115843
0.000348263
-0.000459074
-0.000330258
3.62324e-05
0.000308945
-2.34647e-05
2.2138e-06
0.000610082
-0.000238125
-0.000370831
0.000243847
0.000206712
-0.000450387
0.000175857
-0.000495023
0.00031975
-0.0001375
-1.94175e-05
0.000159918
8.08452e-05
7.27069e-06
-8.44814e-05
3.73855e-07
3.18342e-07
-4.32117e-07
0.000338696
-0.000459912
0.000123229
0.000223946
0.000167231
-0.000390693
-4.76915e-05
0.000388068
0.000210099
0.000401173
-0.000540958
0.000470198
7.29046e-05
4.01065e-05
4.44514e-05
-5.442e-05
0.000414224
1.3606e-05
8.41754e-05
-9.41123e-05
0.000164392
-0.000199425
4.13371e-05
-2.97198e-05
0.000161259
-0.000206025
4.47789e-05
-0.0003241
-4.73308e-05
0.000380741
4.29802e-05
-0.000357697
-0.00029695
0.000542115
-8.84677e-05
-0.000447227
2.35203e-05
-1.16044e-05
-8.13926e-06
0.000253512
-0.000416672
0.000163224
0.000446421
0.000101868
-0.000185979
0.000333016
-0.000146905
0.000531889
-0.000164441
-0.000355363
-0.000167795
0.000426913
6.64647e-06
-2.989e-06
-2.01032e-06
-0.000469019
0.000545179
-0.000144618
-0.000191763
6.73122e-05
0.00012446
9.81713e-05
0.00010994
0.000141337
-0.000251194
-0.000363401
0.0001776
0.000241902
-8.10964e-05
-0.000158559
2.05152e-06
0.000337015
-0.000338584
-2.2388e-05
2.07046e-05
5.66879e-06
-7.99283e-05
-0.000292794
0.00037386
-8.12259e-05
0.000305584
7.21504e-05
1.0509e-05
-7.95601e-05
-0.000581742
0.0003904
0.000192823
-0.000327711
0.000425793
-9.24699e-05
0.000263029
0.000277978
-8.4834e-05
0.000457705
-0.000372173
0.000568204
-0.000140914
-0.000425905
-5.80023e-05
0.000398135
-0.00033857
8.12672e-05
1.27755e-05
-9.06929e-05
-0.00041274
-5.61721e-05
-7.13218e-06
9.18239e-05
-0.00039978
7.70618e-05
0.000358253
-0.000414606
0.000332521
-0.000411191
-0.000337511
0.000481199
-0.000142333
8.80726e-05
-0.000366514
-3.25824e-05
0.00040022
-0.000465616
0.00020018
0.000265867
1.42659e-05
5.19522e-06
-1.26049e-05
8.36393e-05
-3.7095e-05
-2.61828e-05
0.000107482
-0.000372296
0.000265267
0.000348389
2.93963e-05
-0.000368983
-0.000284296
0.000392268
-5.15744e-05
-0.000371283
0.000543412
-0.000365445
-0.000177706
0.000198488
-0.000534234
-0.000494109
0.000411614
0.000615915
-0.000235514
-0.000379538
-0.000247187
9.21715e-05
0.000157096
0.000339336
-0.000104584
-0.000224963
-7.75204e-05
-0.000167217
-4.84651e-05
0.000282499
-0.000233858
-0.000410073
-4.36974e-05
0.000456419
-0.000296201
-0.000169024
-0.000337875
-5.57101e-05
-8.72516e-05
-0.000401096
-1.818e-06
2.66481e-06
-5.9588e-07
-7.99489e-06
0.000377408
-0.000368407
0.000166524
-5.26368e-05
0.000368013
-0.000365436
0.000182327
0.000433495
-0.000457562
0.000232918
0.000225018
4.38197e-06
0.000107234
-0.000107541
5.40398e-06
2.77247e-06
6.37723e-06
-5.74333e-06
2.60397e-06
-6.38156e-05
0.000371949
-0.000307656
3.95385e-05
-0.000404909
0.000189223
-0.000233029
4.38253e-05
0.000461179
-0.000108544
-0.000351749
-0.000421594
8.95306e-05
-6.28337e-05
0.00042307
-7.11788e-05
0.000446012
-0.000373233
-0.000592362
0.000300931
-0.000257809
-0.00032329
-9.70226e-05
0.000239476
-0.000486718
-0.000450252
0.000221512
0.000229114
0.000324978
-0.000386031
-0.000183438
0.00016168
2.1774e-05
0.000393571
-0.0001291
-2.61702e-05
0.000402614
-0.000162114
-0.000518465
0.000476522
4.50387e-05
9.25304e-05
0.000256352
0.000495194
-0.000241614
0.000496398
-0.000327307
-0.00016278
-0.000356895
0.000161696
0.000195323
0.000123773
-0.000319858
0.000196256
-0.000299322
-3.42398e-05
0.00034112
0.000307915
-0.000154292
-0.000337215
-0.000145204
0.000483393
-0.000134742
-4.73204e-06
0.000162693
0.000255709
0.000287937
1.02532e-05
-0.000283921
0.000274217
-8.28834e-05
-0.000358105
0.000442493
0.000307608
-0.00036622
6.7363e-05
-0.000186929
-0.000287285
-0.0002378
0.000361774
-0.00010176
7.22491e-05
4.85006e-05
7.32729e-05
0.000125912
-0.000199175
6.36658e-06
-2.32909e-06
-3.99011e-06
0.000329342
-0.000392627
-7.05274e-06
1.05585e-05
-3.52239e-06
-0.000308965
-6.00156e-06
-0.000237108
-0.00035383
0.000284072
-8.8356e-05
-0.000192975
8.23284e-05
0.000341263
-0.000421734
0.000106342
-1.84189e-05
-8.56254e-05
5.06072e-05
4.32128e-05
2.71328e-05
-0.000138128
-3.32511e-06
2.30089e-05
-1.71876e-07
0.000314035
-3.43756e-05
-4.08281e-05
-0.000506352
0.000110811
0.000396943
0.000141946
0.000359298
8.99823e-05
-8.23766e-05
8.69888e-05
0.00035508
-0.000440171
-0.000548791
0.000140082
0.00041025
-0.000216556
0.000310827
-9.31602e-05
-8.83568e-05
0.000161638
-0.000160522
0.000392038
-0.000231379
-0.000298696
-0.000146335
0.000445173
0.000332547
-0.000321648
4.29798e-06
3.60845e-06
-4.9978e-06
-0.000176621
-0.000180137
9.03903e-06
8.22759e-06
-1.09653e-05
0.000224654
-0.000521676
1.56665e-06
1.74255e-06
-2.11055e-06
-3.96436e-05
-3.74541e-05
-3.01789e-06
1.24019e-05
-3.26725e-06
1.52655e-08
3.30335e-06
-0.000513697
0.000266373
0.000248723
-0.000136242
-0.000247556
0.000384635
1.0002e-05
1.00927e-05
-1.28588e-05
-0.000293231
7.77956e-05
0.000443143
3.59475e-05
-0.000476246
-6.67893e-05
0.000334171
-0.000257273
0.000289844
-0.000239617
-4.86272e-05
-0.000483694
0.000402039
-2.51333e-06
-2.1749e-05
3.33806e-05
-0.000101299
0.00040154
-0.000299734
0.000384196
-7.69652e-05
-0.000289564
0.000385928
-3.32881e-05
1.63115e-05
-0.000199732
-0.000269244
0.00022094
0.000239286
-0.000191421
-4.12524e-05
-8.12016e-05
-1.25244e-05
9.62004e-05
0.000144194
-0.000172112
5.68999e-05
0.0001568
-0.000241948
8.5172e-05
1.69347e-05
1.02602e-05
0.000239788
-0.000396721
0.000157044
-1.62755e-05
0.000206639
0.000589661
-0.000415057
-5.65597e-05
-0.000422495
7.69371e-05
0.00045535
-0.000529917
0.000597126
-0.000385855
-1.87206e-05
-1.75093e-06
2.81607e-05
-0.000395119
0.000234748
0.0001661
-0.000544142
0.000382095
0.00013077
-0.000429322
0.000221039
-0.000278624
0.00014689
-0.000176335
3.27352e-05
0.000292633
-8.00031e-05
-0.000209621
0.000434334
-0.000456306
2.57837e-05
-0.000447767
0.000535096
-8.65077e-05
-0.000309877
8.67467e-05
0.000225722
-0.000106796
-0.000200521
4.45091e-06
2.04183e-06
-0.00033169
0.00055642
0.000275875
-0.000411244
0.000286135
-0.000333054
4.75671e-05
-0.00058888
0.000167878
0.000425032
-0.000434286
0.00013659
0.00030669
-0.000185004
-0.000272077
6.72159e-05
1.39251e-05
-7.89368e-05
0.000269156
0.000104895
-0.000373574
-2.61767e-05
0.000185898
-0.000158096
-0.000569271
0.000475692
9.50713e-05
9.20167e-05
-0.000354647
0.000265344
1.44109e-05
7.434e-05
-8.64133e-05
0.000125365
-0.000461735
-0.000217499
0.000443611
-0.000225933
-5.00532e-05
0.00042117
-0.000370358
0.000292373
-0.000342504
5.3836e-05
0.000325404
-2.94843e-05
-0.000145584
0.000175985
8.38566e-05
-0.000342375
0.000430963
-0.000466625
-0.000100026
0.000517697
-0.000112074
-0.000403344
0.000177586
-6.27367e-05
0.000299876
-0.000236505
-0.000296914
0.000192444
0.000273069
-8.90118e-05
-0.000177685
-0.000268526
-0.000244072
-9.04158e-05
-0.000203758
0.000396391
-3.13157e-05
-0.000364388
-0.000418413
0.000503809
-0.000144314
-0.000347522
-4.00805e-05
0.000331916
-0.000282093
-0.000536054
8.9115e-05
-0.000361229
0.000525539
-0.000163146
-0.000483589
0.000421726
6.7048e-05
8.17239e-05
0.000162306
0.000174939
-0.000135024
0.000235674
-0.000100606
0.000169259
-0.000193753
-2.56717e-06
-5.23798e-07
-7.72126e-06
0.000180362
-0.000170977
0.000247242
-0.000309361
0.000117535
-0.000105012
1.37929e-05
-0.000283623
0.000378612
9.23698e-05
0.00020406
-0.000287514
-8.06432e-06
1.02215e-06
-0.000381171
8.41845e-05
0.000298688
0.00041449
-0.000225839
-0.000188473
-0.000376845
0.000257002
0.00012015
0.000406112
0.000192119
0.000108162
0.000416366
-0.000521901
-7.61692e-05
0.000440516
-0.000362223
-0.000102181
-0.000200277
0.00030262
-0.000189555
0.000290663
0.000350592
3.60724e-05
0.000362444
-0.000395112
-9.81598e-05
-1.47352e-05
0.000116493
-0.000435996
0.000515188
0.000331061
-4.4303e-05
2.21818e-05
0.000270024
-0.000277514
-3.18984e-06
-0.000410605
0.00041736
0.000698798
-0.000277582
-0.000419843
5.27822e-05
-0.000344372
-0.000376915
0.000201955
0.000175159
-0.000593022
0.000111113
0.000692245
-0.000283435
-0.00040701
-3.26735e-05
0.000469869
0.000530903
-0.000151536
-0.000378393
-0.000109612
1.4974e-05
-0.000402616
0.000280588
0.000122404
0.000425556
6.79744e-05
-0.000489125
-0.000582548
0.000315443
0.000267896
0.000107953
-4.09951e-05
-0.000305711
-7.79954e-06
-1.2437e-06
1.61549e-05
-0.00015072
5.22773e-05
-0.000262043
0.000209943
-0.000390242
0.00042165
-2.97476e-05
-0.000379353
0.000117616
0.000264364
0.000391309
-0.000465514
-2.20548e-05
-3.89695e-05
1.56327e-05
-9.44357e-05
-0.000167972
-0.000208727
0.000446455
-0.000445802
0.00035912
0.000169552
-0.000387196
0.00021813
-0.000514473
-3.86904e-05
0.000338533
-0.000299472
0.00014541
1.54672e-05
0.000488655
-0.000501643
0.000278788
0.000421303
0.000386755
-0.000451033
7.08924e-05
0.000348521
3.60574e-05
-0.000384298
-0.000181124
-0.000195341
0.000247588
-0.000195141
3.35542e-05
0.0001435
-0.000176142
-7.80335e-05
-0.000137066
0.000215125
-0.000536836
0.000299726
0.000243841
-0.000425162
-9.66099e-05
0.000523224
0.000210136
-0.000367223
0.00015723
0.000254781
0.000276935
-0.000204551
-0.000324571
0.000374713
-0.000321991
4.31558e-05
0.000283484
-0.00031523
-0.000198573
-9.47083e-05
0.000293422
-0.0002128
0.000134793
0.00013091
0.000132246
-0.000263129
-0.00013422
0.000168669
0.000415923
-6.61251e-05
-0.000251886
0.000318549
1.14471e-05
0.00037077
-0.000380334
8.9584e-06
-7.1747e-06
-1.45899e-06
-0.000458567
-8.04351e-05
-0.000349475
-0.000466514
1.68117e-05
0.000456566
0.000347051
-2.32569e-07
8.27726e-07
-0.000341409
-7.01136e-05
0.000412475
3.18483e-06
-0.000142367
0.000143418
0.000558222
-0.000231683
-0.000160665
0.000163504
2.158e-05
-8.27446e-05
-0.000455449
-5.02524e-05
-0.000456359
0.000508785
0.000247189
-0.000106547
-0.0001406
-0.000228591
-0.000170007
0.000398721
-0.000361468
0.000330784
3.40587e-05
-0.000167344
0.000524537
-0.000423096
-9.91253e-05
0.000380142
-2.30202e-05
-2.72247e-05
-0.000432345
-0.000476158
0.000430815
4.81015e-05
2.41178e-05
0.000278053
4.32748e-05
0.00034293
-0.000377655
7.31493e-05
-8.6202e-05
3.47509e-05
-9.37296e-06
2.54892e-06
6.88215e-06
9.79997e-05
0.000380141
-0.000476359
-4.09793e-05
-0.000334061
0.000383024
-0.000133797
0.000239458
-0.000105626
-0.000452691
-2.12323e-05
-3.28148e-05
0.000312798
-0.000270284
-0.000423432
6.02123e-05
0.000368046
-4.25452e-05
0.000358639
0.000106979
-3.67138e-05
-4.46252e-05
0.000322115
-0.00036399
-7.1843e-05
-1.41608e-05
8.77499e-05
-1.97288e-05
0.000109131
-0.000466262
5.89998e-05
-7.8486e-05
-0.00011327
-2.35224e-05
0.000180567
-0.000156011
1.3664e-05
-8.37614e-05
0.000322563
2.57812e-05
-0.000338404
-0.000544023
0.000444786
0.00010184
-0.000217625
0.00027024
-1.31318e-05
1.74638e-05
6.88369e-07
-6.32779e-05
0.000399548
-0.000334772
0.000155207
-0.000177758
0.000688288
-0.000408137
0.000434322
-0.000437132
9.83531e-06
0.000210424
0.000309181
0.000226528
-0.000138891
0.000327591
-0.000103541
-0.000221294
-0.000182651
0.000176591
0.000368583
-1.9764e-05
-0.000134863
0.000165708
-2.72442e-05
-0.000531907
-1.00433e-05
-0.000274682
0.000465745
-0.000188915
0.000424824
5.2565e-05
-0.000474951
1.50465e-05
-9.09693e-05
9.47575e-05
0.000409789
-0.000540357
4.74407e-05
-5.27403e-05
1.91074e-05
-0.00043635
-4.14148e-05
0.00048068
-2.75406e-05
0.000194318
0.00039938
-0.000413193
1.43494e-05
0.000196204
0.000578067
-0.000206839
-0.000370135
-7.95423e-06
-1.05463e-05
0.000259597
-0.000525143
9.11673e-05
-4.35843e-05
-0.000355571
0.000403629
-4.54993e-06
-0.000200572
0.000205229
-0.000148502
-6.19969e-05
0.000210512
2.96481e-05
0.00015174
6.02107e-05
0.000317492
-0.000374404
-0.000254901
0.000119929
-0.000148367
0.000511175
-0.000359856
-1.06299e-05
-0.000129244
-1.7284e-07
1.7284e-07
0.000396346
-0.000213005
-0.000183095
0.00012918
0.000270808
0.000317015
0.000372451
-0.000274605
-0.00015884
-0.000559841
0.000155969
0.000405107
-0.000297756
0.000310719
-0.000546338
0.000519076
2.80138e-05
0.000167303
-0.000395764
0.000116584
0.000211528
-0.00032793
-1.90848e-06
2.24922e-07
0.000115311
0.000154906
-0.000270198
-0.000477586
0.000436707
-0.000230562
0.000266014
0.000431363
-0.000231979
0.000178087
8.56479e-06
-0.000334823
-0.000194166
-7.86677e-06
3.41396e-06
4.4544e-06
3.80953e-05
0.000330331
0.000219246
-2.30127e-05
-0.000332585
0.000156083
0.000369156
-0.00025033
-0.000118
0.000410511
-0.000182269
-0.000228053
0.000525046
-0.000391209
-0.000129016
-0.000261195
0.000149779
0.000116446
0.000184837
0.000347907
-0.000417596
0.000279931
7.1567e-05
-0.000347961
-0.000113413
-0.000239334
-0.000288748
-9.06932e-05
3.19848e-05
-0.000248869
0.000134495
0.000212142
-0.000216578
-9.53607e-05
-0.00016024
-0.000587802
0.000102771
0.000487228
9.72882e-06
-0.000370596
-0.00036581
-0.000117295
0.000483207
-0.000352023
0.000187527
0.000164765
-0.000372374
0.000472033
0.000521015
-0.000129123
0.000208209
-0.000323483
0.000115521
1.08881e-05
-5.49129e-05
5.54454e-05
0.000116162
2.04236e-05
-0.000133591
-0.000325154
-9.34196e-05
-6.81643e-05
-0.000203043
5.45514e-05
2.3066e-05
-0.000154385
1.37948e-05
-3.19327e-06
-3.70363e-06
-0.00010412
-2.35142e-05
0.00015139
0.000173853
7.3371e-05
0.000172836
-0.000445112
-1.65465e-05
-7.69452e-05
9.57391e-05
-0.000519939
0.000187823
-0.000133087
-0.000399468
0.000514852
-0.000110683
-1.74912e-05
0.000174308
-0.0001577
0.000267723
0.000521697
-7.55986e-05
-1.61329e-05
7.49834e-05
-0.000162911
-0.000188817
-0.000173573
-5.416e-06
0.00017902
0.000300447
0.000163312
-0.000463689
0.000133399
9.8415e-06
-0.000139712
-0.000199841
-0.000206973
0.000406839
-0.000142727
3.05493e-05
0.000160119
-0.000120077
-0.000239207
0.000359661
-0.000458447
8.92286e-05
0.000370633
-8.24658e-06
0.000408134
0.000354337
-0.000438503
0.000342204
0.000429945
0.000139767
-0.000284688
0.000397973
-0.000248922
0.000115163
7.59022e-05
0.000371837
0.000350213
-0.000157558
-0.00019229
8.90359e-05
-0.000475372
0.000388326
0.000117921
1.76798e-05
-0.000132356
-0.000545248
0.000279982
0.00026744
0.000131027
-9.84626e-05
0.000258032
-0.000159493
0.000175938
-0.00023792
0.000367459
-0.000328952
0.000421128
0.000126521
-0.000569684
0.000129538
0.00044174
0.000471122
9.79073e-05
0.000197354
0.000378859
-0.000361534
7.77146e-05
0.000174414
-0.000249757
1.45659e-05
6.20093e-05
-7.52152e-05
0.000118003
0.00032286
-0.000428982
0.000378476
-9.74765e-05
0.000183721
-0.000163327
0.000243361
-0.000370405
0.000241786
0.000128664
0.000363082
-0.000123181
-0.000153132
-0.000431331
-8.41444e-05
1.02794e-05
9.11173e-06
0.000332384
3.45294e-08
-6.69756e-06
-1.17863e-06
-0.000163728
-8.81473e-05
0.000251917
9.09277e-05
-0.000513526
-4.80434e-05
0.00042283
-0.0003736
0.000436993
7.06506e-05
-0.000506067
-0.000463864
4.2006e-05
0.00042364
0.000438634
-9.16669e-05
-0.000346156
0.000111536
-0.000145087
3.35546e-05
-0.000134606
-0.000217554
0.000352689
0.000398169
-0.000548527
0.000154641
0.000159162
2.99638e-05
-0.000188843
6.02619e-05
4.13045e-05
0.000222149
-0.000171466
0.000286799
0.000359068
-0.000325193
-3.33886e-05
-0.000442475
-0.000142679
0.000138334
-2.67932e-05
0.000284908
-9.45834e-07
-0.000153918
-0.000178536
-0.00018461
0.000360898
-0.000118669
-2.98002e-05
0.0001491
0.000450673
-0.000373037
-0.000148088
-0.00039421
-0.00046018
-5.04392e-05
0.000516645
-0.000286333
0.00037111
-8.3719e-05
-0.000319793
3.2206e-05
-0.000150239
0.00034655
-0.000238919
-0.000106778
0.000514895
-5.73117e-05
1.57336e-05
-0.000470152
0.000358996
-0.000390482
-0.000463832
0.000330669
0.000417407
0.00010018
-0.000516172
-0.000191315
0.000224609
-0.000556156
9.12259e-06
0.000166828
0.000424894
3.5423e-05
-0.000459935
0.000589778
-0.000109509
-0.000478007
-0.000388784
-0.000105492
-5.19572e-05
0.000382045
0.0003256
-0.000363871
-8.76468e-06
0.000365109
-0.000347715
0.00017211
0.000418976
0.000435313
-0.000545367
0.000111901
0.000489916
-6.0243e-05
-0.000118286
-0.000333557
0.000302823
0.000256032
9.39083e-05
0.000240357
-0.000324773
0.000450665
-2.53838e-05
0.000417388
0.000125284
-0.000539732
7.70306e-05
-0.000245041
0.000168093
0.000119657
0.000106902
-0.000302224
0.0003007
0.000417773
-0.000377066
0.000161826
0.000240952
-0.000267213
0.000395842
-7.99346e-05
-0.000134871
0.000214817
0.000120508
-8.42244e-05
0.00046058
-0.000117736
-0.000342531
0.000234091
-0.000368089
-4.5544e-05
0.000120299
0.000344663
-0.000395809
0.000180463
-0.000210325
0.000327081
-1.658e-05
5.35581e-06
-1.64992e-05
8.53566e-05
-6.61215e-05
0.000210993
0.000112641
-0.000323357
0.000153609
0.000205942
-0.00017079
0.000247907
0.000340209
-0.000263426
-6.06363e-05
-9.41883e-05
0.000235592
-0.000215587
0.000318514
9.71702e-05
-0.000260854
-4.22298e-08
-4.8708e-08
-0.000475643
0.000147852
0.000332966
-8.36948e-05
0.000232172
-0.000148443
-0.000103863
-0.000302884
0.000409617
-0.000531951
6.85624e-05
4.2193e-06
-1.61642e-06
0.000425921
-6.06839e-05
-0.000364195
0.000369996
-0.000115071
-0.000252224
7.44461e-05
-0.00041483
0.000243196
-0.000112268
-0.00047036
0.000195793
0.000275342
2.88935e-05
0.000158522
-5.56131e-06
7.70377e-06
1.05364e-07
0.000310431
-5.72493e-05
0.000470774
-0.00041121
-0.000119433
-0.000350195
-7.28985e-05
-0.000104186
0.00017709
0.000178915
-5.37535e-05
-0.000118774
0.000176192
-0.00014572
0.000414831
-0.000487069
7.60879e-05
1.07985e-05
-3.71783e-06
0.000118393
-0.000426983
0.000309518
5.65092e-07
-7.23617e-06
8.35715e-05
0.00024677
-0.000449792
0.000295529
0.000154511
6.74918e-05
0.000286206
-0.000350649
-0.000139685
0.000258849
-0.000118973
0.000366381
-0.000136609
-0.0002292
6.71675e-06
0.000282032
0.000407213
-0.000267664
-0.000139452
-0.000385079
-4.69179e-05
-0.000323449
-0.000431323
9.39935e-05
0.000337873
-0.000498603
-1.82055e-05
0.000520023
0.000419188
-7.60047e-05
-0.000331195
0.000157002
0.000275015
0.000388977
-0.000528628
0.000272365
-0.000460719
0.000190377
-5.73582e-06
-1.97997e-06
-0.000120573
0.000369541
-0.000248724
-0.000446075
0.000254459
0.00019166
-0.000364134
-0.00010646
-0.000119255
-0.000381154
0.000500578
-0.000484902
0.000369563
0.000125125
-0.000493351
-9.64047e-05
0.000240847
-0.000144409
-8.91801e-06
0.000128103
-0.000288816
-0.000108952
-3.60187e-05
0.000149519
-0.00011298
-3.71107e-06
-1.64662e-06
5.49747e-06
0.000248183
0.000118778
0.000372141
-0.000235296
-0.000136614
-3.25017e-05
-0.000136221
0.000168737
-0.000336453
0.000411948
-0.000292367
-5.26076e-05
0.000349901
-0.000319576
2.33775e-05
-8.36383e-06
5.37534e-05
0.000237526
8.94095e-05
-0.000287838
-0.000549706
0.000373983
0.00017956
0.000458433
-0.000382513
-7.39596e-05
0.000242745
-0.000363086
-0.000438759
0.000159335
-4.53967e-05
-0.000328062
0.000377972
-0.000119578
0.000328038
-3.61562e-05
-0.000156837
0.00019301
-0.000383396
9.80744e-05
0.000310995
4.46274e-05
-0.000353548
-0.000329688
-5.22048e-05
0.000326199
7.58695e-05
-0.000456916
4.42967e-05
0.000370894
0.000275263
7.37398e-05
-0.000340108
0.000422397
-0.000466531
4.53612e-05
7.60641e-05
-0.000411415
0.000393201
-0.000309017
0.000136578
0.000148077
-0.000284504
0.000174353
0.000354098
-0.000370651
0.000153307
1.47168e-05
-9.50214e-05
0.000566827
-0.000485123
-7.86832e-05
-6.63441e-05
-0.000223904
0.000290295
-9.86549e-06
1.423e-06
0.000520404
-9.69372e-05
-8.46396e-05
-0.000276805
-0.000172605
0.000430819
2.46748e-06
-0.00042605
-9.70003e-05
-0.000123153
0.000231453
0.000254441
0.000196107
-0.000449649
6.79857e-05
0.000358997
-1.65174e-05
8.01135e-05
-6.15942e-05
2.5339e-05
0.000167936
-0.000191234
3.76407e-05
0.000381371
-0.000417997
2.49112e-05
0.000308214
-0.000543375
0.000337624
6.25952e-05
-2.0474e-05
-3.21248e-05
-0.000305731
-0.000144057
0.000233057
-0.000437776
0.00052881
-8.40456e-05
3.5762e-05
-0.000363833
0.000171748
-0.000444593
0.000420707
-0.000273208
-0.000147442
-1.54793e-05
8.31266e-05
-6.58301e-05
0.00027976
-0.000160155
-0.000243927
0.000430745
-0.00017854
4.66802e-06
-1.20246e-06
0.000136338
-0.000220002
-8.30116e-05
0.000464015
-0.000379424
-0.000450279
0.000333063
-0.000124367
-0.000417679
-0.00026367
0.000180958
0.00028563
0.000135126
0.000204818
-0.000440234
-9.64257e-05
-9.2196e-06
5.58387e-05
7.4063e-05
-7.26124e-05
0.000356845
0.000139585
0.000381664
-0.000266919
0.000399356
-0.000231928
1.5586e-05
-1.84517e-05
1.21612e-05
-0.000177225
9.73007e-05
0.000437897
6.64633e-05
-0.000501433
-0.000335852
0.000373313
-0.000398595
-0.000194288
-0.000412616
0.000517428
0.000413663
0.000363178
-6.81482e-05
-1.13074e-05
8.09145e-05
-0.000167949
-7.51633e-05
0.000243169
-0.00038676
0.000472345
-7.64911e-05
-9.6751e-05
0.000116897
-1.63327e-05
9.74863e-05
1.71119e-05
-0.000112135
-0.0003716
0.000137128
-0.000393415
0.000231983
-0.00010166
-0.000130293
-0.000125828
2.89295e-05
0.000218832
-0.000260583
0.000407661
-0.000532401
0.000437177
-0.00045901
-4.60695e-05
-9.91302e-05
-0.000293616
0.000395565
0.000389996
-0.000304006
0.000155678
-0.000256085
0.000370678
-0.000148847
9.14693e-05
-1.47446e-05
0.000457764
-0.000232988
0.000176497
-0.000212634
-9.8982e-06
1.33836e-05
-1.49033e-06
0.000280773
-0.000353504
7.41022e-05
1.39604e-06
-5.11361e-06
5.81726e-06
-0.000172349
0.000143721
-0.000281311
0.000141818
-4.12067e-06
4.96058e-07
-0.000112219
-0.000414944
-5.03761e-05
5.84753e-05
-0.000392663
1.32537e-06
-8.87224e-06
-0.000289503
0.000395096
-0.00010485
0.000376227
-0.00026124
-0.000114087
-0.000473102
0.000300418
0.00017296
-0.000423261
-0.000111578
-0.000187293
0.000333253
3.06419e-05
-0.000155873
0.000125917
-0.000220915
0.000235997
-1.50059e-05
0.000154975
0.000296463
5.92584e-05
-0.000508547
0.000268503
0.000241149
-0.000334296
4.64239e-05
-0.000438691
0.000515249
-7.19981e-05
-0.000199343
0.00055026
-0.000342596
9.46578e-07
-3.97586e-07
-5.59962e-05
-0.000136693
0.000340663
-0.000501669
-1.58476e-05
4.48934e-05
-5.84527e-05
2.41146e-05
7.68965e-05
-6.64556e-05
-5.18765e-06
5.88684e-06
5.22481e-07
0.000531081
-0.000113638
-0.000415065
-0.000221501
-0.000251385
4.45463e-05
-0.000265374
0.000166302
-0.000364186
0.000433244
0.000569989
-0.000149833
-0.000417348
-0.000126299
-0.000440706
0.000353972
-5.82046e-05
-3.42219e-05
-0.000400433
0.000511233
-3.59804e-06
7.96608e-05
-7.28071e-05
7.75105e-05
0.000254573
-0.000322538
-2.0302e-05
2.5356e-05
-0.000566256
0.000138321
0.000422887
9.57937e-05
-0.000516576
3.1114e-05
0.000145602
-0.000174868
-0.000104156
-0.000128852
9.54552e-05
0.000481373
-0.000284608
0.000239323
-0.000333921
-0.000230581
5.70391e-05
1.32862e-05
7.6513e-05
-0.000141765
0.000174751
-0.000528235
0.000107136
0.000521989
2.70073e-05
-0.00016689
1.98427e-05
0.000105128
-0.000122428
-0.000201379
0.000530598
7.56613e-05
-6.2317e-05
0.000327088
0.000237869
-0.000563806
-0.000423063
4.73672e-05
-3.8511e-05
0.000530551
-0.00017454
-0.000347422
-0.000240767
-0.000266413
-9.91908e-05
-0.000423673
0.000523436
-0.000268263
0.000350949
0.000589217
-0.000389762
-0.000197117
7.80203e-05
-5.33251e-05
7.50538e-05
0.000232918
-0.000153197
0.000124022
0.000392376
-0.000241101
-0.000150896
-0.000199334
0.000473471
-0.000435357
0.00028912
0.000530721
-0.000110988
-0.000105657
-0.000393553
0.000502295
-0.000104782
-4.03004e-05
2.27736e-05
-7.28773e-06
0.000146641
-0.000113792
0.00030694
0.00017638
-0.00046299
0.000287057
-0.000413253
-0.000130294
0.000546436
-4.39823e-05
-0.000129048
-1.38866e-05
-5.72244e-05
7.24027e-05
0.000302559
-0.000537202
7.49228e-05
-5.89828e-05
0.000258804
0.000133931
-0.00015224
0.000135046
0.000104447
6.97389e-05
5.82388e-05
-2.14959e-05
-2.26636e-05
3.83392e-05
3.27606e-05
-1.08512e-06
-2.13547e-07
1.81674e-06
5.4706e-05
-0.000484933
0.000169402
-0.000283182
0.000120955
0.0001623
-0.000410067
0.000340878
0.000186742
-0.000356677
0.000170204
-0.000591002
0.000354697
0.00024088
-8.2733e-06
7.83803e-05
-6.72024e-05
-3.40373e-05
1.50514e-05
0.000519836
-0.000151574
-0.000359126
0.000388563
-0.000102394
-0.000280703
0.000352266
-0.000480263
0.000130324
0.000231479
-0.000202391
-6.70773e-05
0.000308828
-0.000202643
-0.000383882
0.00042968
-0.000484669
6.30887e-05
0.000383227
0.000311964
0.000168466
0.000353729
-0.000166755
0.000413646
-8.6988e-05
0.000161653
9.45014e-05
-0.000256098
-5.02087e-05
0.000117526
9.46588e-06
-0.000378884
0.000370159
-0.000368509
-5.50971e-05
7.02428e-05
0.000488958
-0.000121366
-0.000364777
0.000186406
-4.66504e-05
-0.000121427
0.000549189
-0.000157219
0.000193072
-0.000294906
0.000101985
8.78197e-05
-0.000255706
-2.19808e-05
0.000151771
-0.000126473
-0.000394632
4.45688e-05
-0.000477977
0.000126455
0.000267846
3.59086e-05
-0.000140686
-8.01657e-06
0.000321172
7.55243e-05
8.04718e-05
-1.70503e-05
2.71225e-05
-8.77445e-06
-1.39183e-05
0.000339182
-0.000257468
0.000307526
-0.000278354
0.000121833
8.67517e-05
-0.000208562
5.59129e-05
1.09483e-05
-6.55547e-05
-5.93531e-05
0.000131515
-0.000150201
-9.88309e-05
-8.40773e-05
0.000190369
0.000353695
-0.000502202
6.79198e-05
2.83001e-06
0.000435528
-0.000179371
8.78277e-05
-0.000414731
0.000313785
0.000119798
-2.24763e-06
-7.06858e-06
0.000135799
0.000440435
-0.000277203
0.000520248
-0.000242036
-9.03328e-05
-0.00028599
-0.000470051
0.000401222
7.09728e-05
0.000327088
-0.000114827
-0.000215611
-3.78234e-05
0.000254569
0.000114476
4.89643e-05
6.37234e-06
-4.77201e-05
-8.39761e-05
0.000144883
8.62199e-05
-0.000364922
0.000281052
-1.91688e-05
6.54851e-06
-0.000413787
0.000424092
-0.000285965
4.78947e-05
0.000528162
-8.36274e-05
-0.000439087
0.000539912
-0.000121122
-0.000415368
0.000435093
-0.000453713
-0.000345091
0.000521955
0.000163684
-0.000128682
1.48977e-05
1.03495e-05
-1.70415e-05
1.87283e-05
-2.48535e-05
1.07401e-05
0.000550339
-0.000113002
-0.000267937
0.000229527
-4.06668e-05
-0.000361779
0.000410872
0.000315835
-0.000104124
1.29272e-05
6.98187e-05
7.82039e-05
-6.21316e-05
0.000230213
0.000618345
-0.000405148
-0.000212535
0.000102674
0.000244655
-0.000180132
3.53773e-05
0.00020907
-8.7218e-05
-9.4605e-06
9.06039e-05
-7.86802e-05
0.000171424
1.72987e-05
-0.000187172
-2.31101e-05
0.000381403
-0.000357888
0.000593485
-0.000100681
-0.000490507
-0.000411602
0.000473484
0.000344733
0.000516133
-0.000422691
-0.000118465
0.000309477
-0.000190933
0.000245233
0.000373507
4.22475e-08
-4.2177e-06
8.20386e-05
-8.90705e-05
-7.13979e-06
0.000445087
0.000401838
-0.000543723
0.000144522
8.03935e-05
0.000243379
0.000198433
1.82547e-05
8.31201e-05
-9.76183e-05
7.89974e-05
0.000454151
8.61459e-05
0.00043962
0.000323111
-0.000205761
-0.000117117
-0.000145641
0.000393263
-0.000243053
0.000277446
4.3798e-05
-0.000316764
0.000331243
-0.00040669
7.73707e-05
-0.000270159
0.000308914
-0.000209169
0.000186724
2.47199e-05
-3.58118e-05
0.000196899
-0.000260548
6.37408e-05
0.00016673
-0.000249017
8.237e-05
6.65288e-05
0.000139122
-9.84032e-05
0.000104556
-0.000107688
1.51554e-05
2.67301e-05
0.000115072
-0.000140266
0.000289609
-0.000386109
0.000430197
-8.67842e-05
-0.000334172
0.000307364
4.89984e-05
6.52617e-06
-4.86487e-05
-0.00029135
0.000157701
-0.000126329
0.000188573
-0.000125157
-5.6748e-05
0.000435389
-7.56173e-05
-0.00034829
-0.00033787
0.000127718
0.000309056
8.90826e-05
-0.000233798
0.000153345
-0.000307776
-9.5791e-05
0.000412063
-0.000484473
0.000235548
0.000248964
2.86483e-05
-3.68494e-05
0.000474065
0.000136139
5.90227e-05
-3.0791e-05
-0.00015049
0.000183096
0.00016567
-0.000112399
-4.90304e-05
-4.60623e-05
0.000353943
-0.000307295
-9.29895e-05
-0.000155889
7.71095e-05
0.000369238
0.000341395
-0.000181626
-0.000243963
-0.000116396
0.000360802
-0.000223264
4.74195e-05
0.000175869
0.000362281
-0.000170547
-0.000191565
-2.19698e-05
-0.000271419
0.000306332
0.000170293
0.00042515
-5.66155e-05
-0.000288961
0.000352909
0.000111125
0.000152476
-0.000254815
0.00024529
3.03295e-05
-0.00026159
-0.000321136
-7.70372e-05
0.000399169
-3.80394e-05
0.000441807
-8.50474e-05
0.000337205
0.000142762
0.000238291
-0.00038054
0.000217734
0.000109465
0.000322963
-8.62111e-05
-0.000578491
0.000174253
0.000405634
-0.000446015
-8.80187e-05
0.000536229
7.53406e-05
-8.77693e-05
0.000114926
-0.000495885
0.000405234
-0.000460463
5.68222e-05
2.18093e-05
-3.17829e-05
1.58808e-05
2.29984e-05
1.18716e-06
0.000103382
0.000128628
-0.000186818
-0.000259179
0.00016738
0.000232076
0.000193499
-0.000248107
6.28804e-05
-0.000163692
0.000258717
-9.49547e-05
0.000111096
0.000104047
-0.000404069
0.000403995
3.82834e-05
-0.000441274
-0.000181137
-0.000212351
0.000394471
0.00048549
-0.000322664
4.15786e-05
-3.30433e-05
-0.00013855
0.000220464
0.000257729
-0.000475952
0.000405463
0.00048684
-0.000116131
-0.000232661
0.000139218
0.000307