/*--------------------------------*- C++ -*----------------------------------*\
| =========                 |                                                 |
| \\      /  F ield         | OpenFOAM: The Open Source CFD Toolbox           |
|  \\    /   O peration     | Version:  v2012                                 |
|   \\  /    A nd           | Website:  www.openfoam.com                      |
|    \\/     M anipulation  |                                                 |
\*---------------------------------------------------------------------------*/
FoamFile
{
    version     2.0;
    format      ascii;
    class       volScalarField;
    location    "450";
    object      omega;
}
// * * * * * * * * * * * * * * * * * * * * * * * * * * * * * * * * * * * * * //

dimensions      [0 0 -1 0 0 0 0];


internalField   nonuniform List<scalar> 
18355
(
0.161355
0.020435
0.225303
0.0210096
0.0344643
0.685955
0.0215409
0.0344986
0.0220168
0.395999
0.025233
0.107158
0.11527
0.11982
0.0210843
0.0202023
0.021006
0.0236453
0.141635
0.0226154
0.14986
0.0219145
0.0204593
0.68209
0.0204697
0.0220139
0.0215801
0.0210154
0.0222078
0.0258754
0.556311
0.0457716
0.0203573
0.0200684
0.0210714
0.0221926
0.0267339
0.0222627
0.0263199
0.0218165
0.0221482
0.025788
0.0200879
0.0204205
0.0204309
0.271848
0.0209896
0.0209786
0.455841
0.0212529
0.0208265
0.251078
0.0213091
0.0998264
0.0212847
0.0226438
0.0211059
0.774566
0.0221032
2.79546
0.0200791
0.0707551
0.0993208
0.0213743
0.0567304
0.0206197
0.0237496
0.026824
0.0200209
0.612724
0.0209331
0.0212845
0.0380362
0.0244295
0.0759606
0.0200409
0.821925
0.0200513
0.0209047
0.106256
0.023695
0.365683
0.0200316
0.0247678
0.0466874
0.0217503
0.0222588
0.0377143
0.0208699
0.0378033
0.196244
0.124956
0.393103
0.0212447
0.693212
0.0217526
0.0208566
0.0214098
0.0603149
0.0218371
0.0442711
0.0208745
0.0211965
0.0195588
0.0239384
0.0202126
0.0562921
0.700604
0.0315013
0.0201569
0.0207258
0.0214106
0.0313703
0.0244916
0.358634
0.0272542
0.0208515
0.279396
0.0228733
0.0235412
0.637937
0.225747
0.177395
0.04286
0.312096
0.298154
0.0215794
0.0210387
0.168328
0.0216631
0.0208603
0.26244
0.021262
0.0632574
0.0788467
0.0208611
0.146639
0.656196
0.0211901
0.136447
0.0250189
0.0391999
0.0209507
0.298727
0.0790261
0.0216471
3.58979
0.0196051
0.0310432
0.302628
0.0210087
0.0234752
0.0213431
0.0282339
0.0200991
0.0205827
0.0210521
0.0217392
0.0209576
0.0206813
0.023962
0.0212678
0.0201652
0.0347291
0.0247886
0.348358
3.54477
0.177422
1.3293
0.0249949
0.0212829
0.0596797
0.0216117
0.369042
0.0211452
0.0221102
0.0213303
0.0195227
0.0226129
0.0286245
0.0218068
0.324756
0.0217923
0.0210383
0.237729
0.021179
0.0218072
0.0370623
0.0213475
0.0216692
0.279222
0.0604893
0.0204635
0.0200511
0.0214081
0.501066
0.0205368
0.228318
0.0204442
0.105595
0.0211446
0.0229753
0.0264523
0.021724
0.17592
0.0215816
1.35158
0.0210334
0.0203086
0.0212849
0.0215499
0.439827
0.0227811
0.021839
0.0196161
0.306056
0.0286773
0.024924
0.0215993
0.0209903
0.0305798
0.0199747
0.0357656
0.0257593
0.0769903
0.0238403
0.0199947
0.655892
0.127581
0.034195
0.021369
0.0239621
0.364246
0.0199867
0.0345894
0.0398214
0.0219711
0.281808
0.0244305
0.0218724
0.0204614
0.0225171
0.0215033
0.0327761
0.0215776
0.0212906
0.0209819
0.448202
0.615015
0.0210051
0.0218079
0.626058
0.142276
0.0254962
0.0195285
0.0286891
0.0244174
0.021737
0.023763
0.0208068
0.299734
0.0615546
0.0556667
0.0283144
0.0270177
0.0391507
0.037115
0.0651497
0.0207996
0.021292
0.0218464
0.0201556
0.0229727
0.0250523
0.0209764
0.0215598
0.0288278
0.0208503
0.0675607
0.547455
0.0272181
0.0215766
0.0279514
0.0201448
0.0380386
0.0215296
0.0296102
0.0218677
0.0288776
0.275241
0.0203343
0.0395205
0.0227572
0.0234225
0.0354512
0.0213161
0.0200363
0.0639221
0.0215546
0.0405847
0.0267527
1.20972
0.038248
0.0566179
0.0232287
0.0299989
0.0211897
0.0237287
0.0279086
0.0394619
0.284821
2.82036
0.0210718
0.0242134
0.0879727
0.0286508
0.0210674
0.0209699
0.0209944
0.0426118
2.37704
3.32363
0.297688
0.0285664
0.0247084
0.396416
0.0196047
0.0215592
0.0246571
0.0213676
0.0343165
0.0209481
0.424578
0.020233
0.413115
0.0213519
0.0217769
0.0235253
0.126584
0.191204
0.0329043
0.250877
0.0218895
0.0208787
0.0213587
0.0238709
0.413052
0.0209007
0.0214697
0.267167
0.0218317
0.020902
0.146136
0.0234745
0.0209884
0.0212546
0.0305724
0.0222487
0.0304137
0.0200642
0.0214614
0.0217981
1.44676
0.199047
0.0200407
0.0209365
0.0309827
0.0210022
0.0215153
0.422487
0.182228
0.0304926
0.0213419
0.0220201
0.115558
0.0219722
0.0310213
0.0237732
0.0202746
0.0310843
0.0314622
0.0217185
0.0213429
0.0236822
0.0214641
0.023171
0.0214031
0.0638064
0.0215354
0.0232509
0.0208635
0.0209955
0.0228734
0.0220988
0.0543414
3.72295
0.267752
0.0227879
0.14134
0.0269683
0.0213704
0.0208984
0.0375657
0.0213471
0.0314285
0.0214226
0.0259207
0.378605
0.25143
0.183012
0.0595986
0.0195665
2.25712
0.0218397
0.020966
0.157257
0.021317
0.0276431
0.0201813
0.0617027
0.0213119
0.0580542
0.422237
0.0522441
0.0212702
0.0204668
0.0539012
0.0228818
0.0210004
0.377757
0.0515968
0.0209601
0.0381072
0.0543287
0.0204615
0.0220445
0.0314591
0.368002
0.0367863
0.0218302
0.0212337
0.0339913
0.0212889
0.0202014
0.0211317
0.156448
3.77692
0.0202587
0.0221555
0.0214921
0.135593
0.0311708
0.0200363
0.0274153
0.0359902
0.0214786
0.512655
0.0704633
0.0218302
0.0214472
0.0356785
0.142735
1.02097
0.0202365
0.750124
0.0212343
0.0202518
0.0405606
0.0230277
0.0669405
0.0381795
0.023396
0.0248874
0.0219249
0.140476
0.0230322
0.0273096
0.021883
0.020213
0.0217276
0.020228
0.0692085
3.70718
0.0611746
0.0239966
0.0215737
0.0218798
0.0214898
0.023257
0.0215787
0.0200351
0.0213852
0.0380113
0.0204693
0.0215684
2.56192
0.269385
0.0895319
0.0216411
0.0220218
0.0316103
0.0218785
0.309664
0.606031
0.0238634
0.0248239
0.024987
0.0222641
0.023674
4.30008
0.0322233
0.0219562
0.337345
0.0215781
0.194328
2.19412
0.0247899
0.0219903
4.27701
0.0209828
0.0556445
0.0461759
0.327606
0.0230265
0.0217044
0.0214652
0.354989
0.86789
0.294266
0.321537
0.0230752
0.0214549
0.0247797
0.0212988
0.0236128
0.139846
0.287546
3.64583
1.2354
0.0276668
0.0426329
0.0326751
0.0209986
0.0211446
0.0292462
0.0240764
0.0215452
0.0212965
0.475132
0.0208416
1.21115
0.0251434
0.0650033
0.124675
0.0211509
0.0244811
0.183904
0.0213802
3.44997
0.0212723
0.112719
0.0322999
0.0219427
0.0322217
0.064968
0.0606551
0.021916
0.0200064
0.0327611
0.0249797
0.0650354
0.0213736
0.0717567
0.0208337
0.423306
0.0211609
0.0211697
0.203455
0.0274841
0.0349964
0.0210373
0.0251952
0.0230147
0.423647
3.32539
0.0242349
0.0293782
0.0211548
0.0278508
0.0217448
0.0240599
3.70627
0.0204223
0.289008
0.021539
0.021256
0.0242969
0.307343
0.0223876
0.06988
0.0220265
0.0330496
0.440655
0.0196122
0.0209897
0.463241
0.0371127
2.60811
0.0397157
0.0216821
0.0213023
0.0209762
0.024443
0.0219773
0.0200913
0.0976364
0.280673
0.0211529
0.279992
0.326282
0.0244474
0.238985
0.0202177
0.147042
0.253364
0.0196775
0.448643
0.0359062
1.81275
0.436725
0.0210712
0.0209672
0.0215921
0.277245
0.0417148
0.0212935
0.0219505
0.0973956
0.0217923
0.0367603
0.0210677
0.0344093
2.78795
0.273097
0.0331153
0.241161
0.0389049
0.716173
0.024837
0.0209147
0.0266064
0.43484
0.029037
0.0400737
0.0212808
0.124766
0.0215093
0.0217252
2.96511
0.0217269
0.0271839
0.0311822
0.06523
0.021469
0.0212908
0.0242167
0.0256368
0.0199701
0.0215671
0.033904
0.108032
0.0232073
0.0212944
0.0405619
0.43811
0.0212294
0.178252
0.400354
0.0214702
1.00939
0.0200075
0.214645
0.0213501
0.0203286
0.20443
0.023208
0.442973
0.0230746
0.0212928
1.40415
0.0213468
0.020138
0.021518
0.0209243
0.0277165
0.0358244
0.185954
0.0220786
3.51767
0.022718
0.143883
0.51951
0.0220728
0.0213512
0.025207
0.0201387
0.0915072
0.0211884
0.0201152
0.0201362
0.0212804
0.0213703
0.313759
0.0243185
0.0412178
0.0226391
0.0242037
0.0236529
0.0258881
0.053355
0.0204704
0.069051
0.0431308
0.0200074
0.28979
2.74516
0.020778
0.0606103
0.0211686
0.360093
0.0329013
0.0196589
0.0330527
0.0260607
0.105318
0.0208503
0.0240703
0.168224
0.0746579
0.15041
0.0213666
0.314072
0.0639869
0.14024
0.0213729
0.0228438
0.0210202
0.021481
0.0210645
0.0209822
0.0204173
0.0813325
0.025328
0.0208899
0.0200598
0.0205394
0.0217846
0.0705168
0.0625988
0.020329
0.0256314
0.0215176
0.0215436
0.0214554
0.0209458
0.0360359
0.0200557
0.0208826
0.0217847
0.0216143
0.0231184
0.0214133
0.318666
0.122918
0.0243448
0.0208649
0.136419
0.0201049
0.0200639
0.0213874
0.150798
0.0239423
0.0212637
0.0201619
0.0204536
0.0247754
0.0200124
0.0255798
0.021179
0.0217514
0.0210638
0.0227708
0.107276
0.0209063
0.0218626
0.0211829
0.165335
0.331963
0.0264396
0.0219752
0.027066
0.0255013
0.0333482
4.24129
0.021774
0.274764
0.0218812
1.21334
0.0221565
0.020288
0.020058
0.675094
0.0200267
0.0266402
0.0299157
0.165067
0.0408865
0.0222881
0.0210178
0.0208469
0.0212163
0.0276676
0.0845299
0.415483
0.0406973
0.021526
0.0200086
0.0224994
0.0210657
0.0208166
0.0217964
0.0412545
0.0244129
0.419634
0.0215205
0.0214367
0.0343194
0.0213046
0.143284
0.0409527
0.039918
0.122118
2.77951
0.0277517
0.0209857
0.0200172
0.021678
0.0212799
0.588033
0.0413398
0.0889051
0.0203108
0.0215942
0.0229367
0.020836
4.22857
0.034594
0.0200601
0.0200629
0.0209791
0.0210724
0.0209102
0.0212511
0.255869
0.01997
0.022016
0.0203175
0.0205855
0.0210734
0.0214625
0.0253558
0.0205802
0.0269808
0.0201535
0.23519
0.240599
0.0235375
0.490711
0.022747
0.0218926
0.0564357
0.342081
0.0214251
0.0207468
0.0204729
0.0251136
0.021984
0.0276949
0.195211
0.0214968
0.0220018
0.02148
1.21043
0.25102
0.0221025
0.0205974
0.024267
0.0381434
0.0211384
0.0603834
0.0208378
0.0199658
0.0244529
0.0706604
0.381249
0.345256
0.260858
0.0200467
0.0364307
0.0671635
0.0248878
0.0212099
0.0677387
0.0238371
0.150748
0.0755573
0.0207302
0.0200562
0.0214771
0.0220295
0.0200596
0.47159
0.373269
0.0201111
0.0215204
0.0219119
0.0344462
0.0212497
0.0208737
0.028594
0.0218875
0.0209614
0.320354
0.0759034
0.068208
0.0212667
0.0202412
0.0201277
0.0214588
0.0256995
0.0296943
0.0208697
0.0206293
0.0226742
0.308675
0.0204619
0.0214155
0.0596132
0.0209099
0.02076
0.0213496
0.264419
0.0202224
0.021445
0.0204652
0.0222478
0.0202313
0.0258514
0.130117
0.021416
0.146034
0.0287714
0.21392
0.0491595
0.0209906
0.0254813
0.0208437
0.0207448
0.0210025
0.472943
0.337416
0.0361849
0.0268517
0.169662
0.0583556
0.0221068
0.0803671
0.0471864
0.0234943
0.0200703
0.32268
0.0222321
0.0207383
0.0203928
0.743646
0.267196
0.202252
0.0207136
0.0762329
0.282096
0.0263944
0.0294736
0.024035
0.0229084
0.0320759
0.340175
0.022732
0.0222726
0.0246429
2.12341
0.312934
0.0212399
0.0213566
0.0210467
3.26868
0.0233954
0.0218707
0.134757
0.0258513
0.0360656
0.024003
0.295046
0.0206775
1.19965
0.0220942
0.0200777
0.0209851
0.0200074
0.0200871
0.02089
0.0217131
0.423564
0.0205278
1.19727
0.0263646
0.0216747
0.0207535
0.0732474
0.0211947
0.0214958
0.0230803
0.638023
0.0438039
0.023214
0.0215367
3.56377
0.0206729
0.040273
0.0215197
0.203195
0.0302215
0.285848
0.0264358
0.0210003
0.0377331
0.594415
0.034727
0.0205556
0.0213426
0.0342763
3.70655
0.0195693
0.0436918
0.0209644
0.025264
0.0208606
0.0200433
0.0219515
0.0221475
0.0200324
0.0363485
0.0360838
0.0245072
0.117086
0.448298
0.0222243
0.289875
0.0201141
0.0915247
1.96005
0.160919
0.0200213
0.022003
0.021498
1.14875
0.0210319
0.0208367
0.0738481
0.021503
0.0215253
0.0221355
0.0220467
0.0212464
2.28047
0.352771
0.0528059
0.0207546
0.0214513
0.107773
0.0201015
0.0396275
0.0215722
0.0214836
0.0219976
0.0238532
0.25279
0.0208427
0.0214742
0.857261
0.0215658
0.0217961
0.0344378
3.3184
0.327686
0.021428
0.0210509
3.52333
0.443394
0.163443
0.0206417
0.0318032
0.194141
0.0203613
0.0351825
0.0227372
0.466308
0.023617
0.0215318
0.0222078
0.0200184
3.50587
0.0214649
0.0204631
0.319794
0.0285521
0.27964
0.0199814
0.0226818
0.0200537
0.0196447
0.0202111
0.022189
0.0216143
0.0218247
0.0200249
0.0217505
0.0429273
0.0258899
0.0236626
0.0206432
0.0233945
0.0210724
0.277641
0.0216084
0.0220976
0.0215798
0.0200626
0.0217888
0.0216798
0.0211463
0.0212264
0.0208292
0.02022
0.729938
0.0693432
0.0212094
3.54868
0.0329981
0.0217554
0.0217001
0.0221963
0.535946
0.0218207
0.0201026
0.020103
0.0200289
0.182148
0.0212827
0.0202936
0.150252
0.0200147
0.0197389
0.0237575
0.0246141
0.0750187
0.124541
2.43897
0.0200483
0.823671
0.025433
0.0212238
0.0204253
0.0243281
0.0212828
0.0296963
0.0506486
0.0229468
0.0219483
2.99014
0.0523228
0.547362
0.833446
0.32157
0.0817659
0.0205027
0.662389
0.271827
0.0201336
0.799572
0.0207105
0.0223737
0.125393
0.0207251
0.0387336
0.0252582
0.022882
0.0218523
0.0428871
0.0213772
1.1851
0.0212364
0.0201799
0.46648
0.0197702
0.022149
0.0218504
0.0466829
0.0212028
0.021442
0.0230204
0.304741
0.0211749
0.021277
0.0202252
0.0238739
0.0211782
0.0223743
0.298192
0.0209643
0.0257601
0.0217149
0.0236308
0.0233015
0.0209408
0.0219223
0.0820568
0.021545
0.0217551
0.0244904
0.306931
0.0221559
0.0211257
0.0214229
0.0256445
0.0748611
0.0223412
0.0210231
0.0209589
0.0205601
0.0196283
0.020062
0.0252299
0.0335307
0.0479746
0.0215355
0.155685
0.0206512
0.0209528
3.8481
0.0404666
0.0199788
0.0645052
0.0210857
0.0210212
0.46446
0.021784
0.0402485
0.0197332
0.137608
0.0205156
0.0200156
0.0202546
0.261552
0.0849934
0.021521
0.119376
0.0202356
0.0209113
0.0207393
0.130012
0.0212237
0.0206557
0.0217694
0.0227362
0.0212722
0.0214454
0.0207999
0.0217775
0.0215141
0.020842
0.0233125
0.0199906
0.0851678
0.0549165
0.0202091
0.0600078
0.0258356
0.0209325
0.0206651
0.0219371
0.0207469
0.0283394
0.0246582
0.0392556
0.0393367
0.0216467
0.0615559
0.137746
0.0212155
0.0216867
0.0700659
0.0232528
0.301715
0.02022
0.0212062
0.0224302
0.021546
0.0212716
0.025558
0.02095
0.0224498
0.0212439
0.0233583
0.0205625
0.106706
0.0213425
0.0240395
0.0302641
0.0209885
0.473836
0.176239
0.0229694
0.0251942
0.0285477
0.0198677
0.0518614
0.0214287
0.0328606
0.0859144
0.292763
0.0407888
0.0227827
0.0262488
0.0210149
0.0304418
0.0205325
3.57634
0.0312737
0.0214536
0.0208077
0.0582847
0.0375772
0.0212217
0.0212151
1.07279
0.0216111
0.0206462
0.749304
0.0465562
0.0201229
0.117818
0.0203098
0.0386153
0.0484287
0.0212656
0.0214326
0.0231985
0.154226
0.0207975
0.0261429
0.0214369
0.0212744
0.0208242
0.110506
0.0218114
0.0213459
0.0211304
0.107245
0.026359
0.0208107
0.0197691
0.0888639
0.0211479
0.0204569
0.110493
3.83171
0.0219203
0.321796
0.0232301
0.042148
0.0221848
0.0498536
0.484931
0.0219026
0.020765
0.0203231
0.0242969
0.0211984
0.131272
0.104482
0.0205283
0.0221563
0.0203361
0.0200265
2.91205
0.021206
0.0224203
0.0227865
0.0573307
0.0214516
0.0216945
0.024669
0.489171
0.021474
0.0213578
0.0204477
0.0205718
0.0240448
0.0405935
0.0215485
0.021122
0.0212481
0.0210765
0.0203297
2.20008
0.0216888
0.0210493
0.0210961
0.0509198
0.0203745
0.0204594
0.0341683
0.0209255
0.0341119
0.0212528
0.0214334
0.29341
3.99427
0.204331
0.046032
0.0234606
0.0217221
3.0066
0.0206476
0.0246752
0.0199923
0.727581
0.0195441
0.0242244
0.0214601
0.404652
0.0398071
0.0280735
3.23859
0.0223265
0.0541683
0.0217269
0.0219344
2.84705
0.0326771
0.0211748
0.0203014
0.0236655
0.0265951
0.021423
0.0212543
0.020644
0.019929
0.177244
0.352834
0.0217236
0.0223361
3.75848
0.0791298
0.023139
0.0223905
0.0231046
0.0242348
0.0212143
0.022194
0.0628724
0.020909
0.0203253
0.0215139
0.0684423
0.183293
0.0254462
0.0215436
0.0215546
0.026665
0.0213461
0.02565
0.0412288
0.0371565
0.0229682
0.0618404
0.0201224
0.0212254
0.0218402
0.0199708
0.0215492
0.0208519
0.0343761
0.0210098
0.422611
0.021351
0.0207211
0.020491
0.0263675
0.0223559
0.0397994
0.054068
0.0201488
3.03451
0.0225784
0.0205051
0.0197969
0.323924
0.484123
0.0198162
0.0208171
0.0207501
0.0222059
0.167979
0.0376996
0.0218452
0.0220467
0.127222
3.27597
0.0219774
0.021213
2.49519
0.0238048
0.265501
0.0230637
0.0211457
0.0519718
0.0245117
3.99493
0.0255705
0.0599904
0.0204022
0.0209112
0.0217579
0.021581
0.0237741
0.0216873
0.0215516
0.0207901
0.021778
0.0215595
0.0216957
0.0213938
0.0229229
0.0218895
0.0213416
0.020866
0.0317996
0.0229681
0.0209179
0.0215106
0.166622
0.0212116
0.0219133
0.0218503
0.0996314
0.020461
0.0354255
0.0227814
0.0201915
0.0210842
3.37727
0.0493748
0.021998
0.0221403
0.0234456
0.0376279
0.0208679
0.0276512
0.0388843
0.021057
0.0832131
0.0208248
0.0213328
0.0212591
0.0218112
0.0282052
0.0550804
3.6099
0.0250294
0.0201987
0.0214981
0.0210939
0.0556679
0.021953
0.212232
0.0208166
0.0213732
0.0213568
0.0609349
0.0209498
0.0215753
0.0212577
0.122427
0.0204692
2.48912
0.0204287
0.0241572
0.0212878
0.0285851
0.0209935
0.023583
0.058659
0.03489
0.0202093
0.0330499
0.0215076
0.0213585
2.66508
0.067758
0.0203206
0.0212463
0.0234952
0.0202507
0.0211299
0.0218658
0.0216994
0.0234045
0.045263
0.0221791
0.0261456
0.0380973
0.0216273
0.0209996
0.0211754
0.0221747
0.0286687
0.0214279
3.75687
0.0206939
3.1124
0.0347089
0.0201441
0.0207139
0.0206946
0.0631922
0.0215055
0.0232037
0.0214745
0.0207371
0.0877163
0.0229092
0.0257002
0.0216551
0.0214685
0.0227183
0.0212251
0.0229005
0.021367
0.0220547
0.021991
0.0218224
0.714948
0.0268292
0.368128
0.0209995
0.0235108
0.0223307
0.265777
0.0562089
0.814457
0.0223601
0.0199584
0.0375377
0.0209008
0.507594
0.0221457
0.0363397
0.0223608
3.38389
2.5568
0.0234004
0.0256577
0.02075
0.0205314
0.0218918
0.0198983
0.0217333
0.0230574
0.0207832
0.0251897
0.0421642
0.231947
0.0208878
0.0342525
0.0201076
0.0211858
0.021118
0.0793187
0.0216727
0.057945
0.0216745
0.0211241
2.90105
0.0208745
0.023062
0.0210402
0.023204
0.804725
0.0261952
2.09684
0.0214424
0.055267
0.0230187
0.021118
0.0211962
0.0285161
0.0238053
0.021275
0.0227575
0.0213261
0.71757
0.0207333
2.46464
0.551334
0.058838
0.0252672
0.0920137
0.0249982
0.0198975
0.638184
0.0211847
1.183
0.0218328
0.0227073
0.283495
0.278882
0.027028
1.18548
0.0213832
0.186692
0.0196046
0.212533
0.0201642
0.0231217
0.0365721
0.0215369
0.0207219
0.0219797
0.0212672
0.0316635
0.259762
0.0338706
0.279875
0.0206406
0.15869
0.0214398
0.0216808
0.0210149
0.0211036
0.518299
0.0216027
0.0205625
0.034188
0.0218073
0.333384
0.0675718
0.0212665
0.0399001
0.0336453
0.0208524
0.0214387
0.0238802
0.0203195
0.0480718
0.0288352
0.0224571
0.0226485
0.0204509
0.0211672
0.0498165
0.0219293
0.021449
0.0222803
0.0199225
0.0201268
1.21885
0.0272294
3.60225
0.0267744
0.0459968
0.02552
0.0211129
0.0261158
0.0203843
0.0209826
0.200723
0.0237857
0.0228239
0.0435201
0.0217385
0.298537
1.39283
0.0211209
0.0247473
0.0266528
2.52556
0.0203098
0.0202978
0.0216249
0.0263776
0.254069
0.0247148
0.0237687
0.0217741
0.021169
0.0199298
0.268652
0.0232581
0.0229462
0.496974
0.0216282
0.0228128
0.0241632
0.0214924
0.0212344
0.0210536
0.0471469
0.0853825
0.0218178
0.0228763
0.331158
0.0209213
0.0219326
0.0233953
0.0215922
0.342195
0.416335
0.332591
0.0722131
0.151569
0.022546
0.0208409
0.0335336
0.0224689
0.0267755
0.0210455
0.0201937
0.339508
0.137956
0.0210789
0.020755
0.0280462
0.0394799
0.0230468
0.0199661
2.4559
0.0229448
0.0340082
0.0201468
0.0256588
0.0195837
0.0225685
0.0257339
0.0211687
3.59295
0.0219837
0.0350838
0.0806522
0.210676
0.0727962
0.0211934
0.0522715
0.0243546
0.0242548
0.022199
0.0226931
0.0214478
0.0225408
0.309807
0.0228378
0.317418
0.0207861
0.20725
0.0202909
0.0219073
1.94544
0.0245256
0.202976
0.0234071
0.0221131
3.8272
2.56549
0.0208617
3.00166
0.0359639
0.0207218
0.0198365
0.194349
2.86348
0.0204788
0.0202774
0.0212215
0.0202327
3.06298
0.351892
0.0195222
0.0197847
0.020859
0.259545
0.0420569
0.277249
0.0202039
2.34582
0.0215588
0.0567354
2.10633
0.0239673
0.0205924
0.0206025
0.27645
0.0203389
0.0210593
0.0202025
0.0244438
0.023016
3.62921
0.0252249
0.0217867
0.021191
0.0260889
0.195315
0.0422966
0.021118
0.0208713
0.141643
0.0437612
0.0220878
0.514049
0.0268003
0.0229365
2.96752
0.0227599
0.0260934
0.0218251
0.303061
0.0214135
0.0218243
0.310158
0.0270575
0.02105
0.021351
0.0195909
0.0354033
0.0884189
0.0209728
0.0202705
0.0220388
0.058082
0.0230008
0.0202025
0.0212407
0.0207288
0.0220774
0.0381259
0.02148
0.0209875
2.75314
0.0211054
0.499679
0.0302948
0.032875
0.0230811
0.0221852
0.0214778
1.64425
0.0722081
0.0585327
3.60707
0.029639
0.0208707
3.38809
0.0202274
0.0629318
3.18394
0.0221286
0.021126
0.0237862
0.0608671
0.021192
0.0210494
2.66797
0.0212632
0.0221212
0.0207171
0.0216302
0.0203423
0.0639412
0.112875
0.0201364
0.0210241
0.656711
0.0211837
0.0201201
0.0209985
0.0208322
0.156617
0.0227351
0.0230671
0.0222866
0.0219832
0.0202459
0.0327732
0.0916969
0.0262749
1.08197
0.0222969
0.023606
3.61039
0.0208838
0.0203681
0.0210819
0.0208322
0.0218264
0.0197467
0.0222061
3.20284
0.0212058
0.0210917
0.0226935
0.0208158
0.260365
0.0216772
2.31666
0.191438
0.0243014
0.028856
0.339009
0.0238137
0.0211743
0.0230773
0.0209498
0.0224585
0.0214914
0.0217238
3.33838
0.0202875
0.0213231
0.0389625
0.171886
0.0217035
0.0208396
0.191719
0.0222208
0.0258891
0.0213114
0.02085
0.0209385
1.10756
0.0214337
0.217474
0.045756
0.0211488
0.0208307
0.0210872
0.024038
0.270069
0.0201457
0.0391185
0.021096
2.21537
0.253706
0.022126
0.169178
0.021548
0.0230641
0.0236157
0.628678
0.0226481
0.0248746
0.0256287
0.418473
0.0216402
0.0351126
0.0214497
0.0418249
0.134048
0.166822
0.0209842
0.0288325
0.20826
0.321874
0.0228448
0.0239103
0.293818
0.285412
0.0208186
0.0483215
0.0211886
0.0241313
0.0214519
0.0223227
0.022238
2.30672
0.0216065
0.0218082
0.048855
0.420683
0.841294
0.108211
0.637326
0.0207851
0.245577
0.0524522
0.0210319
0.0211184
0.402166
0.0233745
0.0214869
0.0212433
0.0397149
0.0206977
0.0212548
3.8635
0.0214628
0.0217505
0.0210411
0.0214012
0.022578
0.0204588
2.87623
0.0236498
0.0227832
0.0205205
0.0288694
1.19771
0.0209253
0.0217338
0.273823
0.18313
0.0213536
0.0241077
0.020709
0.0209329
0.0376246
0.162703
0.0209336
0.0210882
0.277733
0.0531917
0.387364
0.025925
0.0223962
0.411765
0.0207382
0.0246684
0.0240008
0.0205756
2.51059
0.568903
0.0354029
0.0266611
1.0072
0.0198404
0.0197784
0.0225489
0.0341911
0.563865
0.0203328
0.036498
0.897461
3.53117
0.0216347
0.022522
0.479268
0.0209966
0.0239769
0.400544
0.0209594
0.0211884
0.0204985
0.301967
0.0208585
0.023816
0.0218615
0.0331612
0.0274779
0.408405
0.0211811
0.0211294
0.0271392
0.0216801
0.0226726
0.0221271
0.0868956
0.105986
0.0209925
0.0213334
3.50584
3.49584
0.1281
0.0207553
0.0213576
0.0226596
0.021531
0.0212699
0.0214309
0.0219508
0.0218649
0.0206695
0.0207657
0.051598
0.0231384
0.0274838
0.140651
0.0546461
0.0433879
0.0244497
0.0471636
0.101895
0.0290586
0.0230312
0.0261419
0.0210687
0.600911
0.0200347
0.0202768
0.0206959
0.499203
0.0209222
0.494799
0.021732
0.020136
0.0457446
0.0211685
0.0211414
0.0211616
0.0268622
0.15886
0.0216054
0.0205748
0.0226966
1.15534
0.0429152
0.327977
0.0210446
0.0309994
0.0215102
0.0215363
0.0201878
0.020723
0.021357
0.0216372
0.149015
0.0224155
0.0223933
0.105566
0.649574
0.115621
0.0208669
0.0806235
0.0309655
0.662197
0.0205501
0.0210329
0.02233
0.0522756
0.0197922
0.0213476
0.0207149
0.0203403
0.112952
0.0221591
0.0586514
0.0215129
0.0197753
0.0238162
0.0214308
0.510702
0.0211332
0.0252005
0.021781
0.0265568
0.0220584
0.0515764
0.337708
0.0212301
0.0425631
4.11243
0.0211178
0.0215243
0.0378283
0.019722
2.92797
0.027316
0.0209485
0.0495403
0.0200116
0.0217463
0.0214565
0.0206899
0.0202195
0.0221661
0.0206777
0.0207138
0.0215262
0.0217613
0.0425899
0.0200581
0.115828
0.0205356
0.0208924
0.027025
0.0429075
0.022044
0.0197179
0.0211926
0.0223245
0.0410329
1.40793
0.0313287
0.0219362
0.0219652
0.0207561
0.0287852
0.0209279
0.0222688
2.54354
0.27808
0.0418519
0.0210775
0.0217196
0.0221618
0.0197255
0.0404273
0.0201242
0.0952404
0.0219901
0.165853
0.0261652
1.70801
0.0215566
0.0559292
2.62522
0.339494
0.143341
0.0252681
0.354408
3.39589
0.0218741
0.032246
3.7191
0.0204554
0.0207468
0.0213337
0.0242039
0.0780643
0.0214556
0.0240513
0.643365
0.0195263
0.0214626
1.64191
0.498531
0.0888896
0.18326
0.527782
0.0221601
0.0595825
0.0231505
0.0234748
0.604504
0.0223752
3.52643
0.035237
0.0236572
0.0213883
0.0224593
0.0222692
0.0205209
2.53555
0.0197869
0.0212423
0.0213084
0.0865716
3.62393
0.032012
0.0212418
0.0222379
0.0204769
3.06114
0.0209814
0.0220047
0.0235535
0.0511814
0.0206957
0.0622467
2.11478
0.296917
0.0217534
0.205038
0.0205649
0.510373
0.0198245
0.0320499
0.021392
0.0566883
0.0254007
0.544492
0.0994787
0.0227872
0.022778
0.0269876
0.023836
0.0210994
0.0207041
0.0244438
0.0217591
0.270085
0.0196456
0.0210574
0.0214291
0.0214008
0.24474
0.0207401
0.0201352
0.0214878
0.246918
0.0263815
0.0477051
0.0227492
0.0225466
0.0677201
0.0206131
0.0213107
0.06095
0.0395009
0.0201373
0.0365484
0.0229495
0.283872
0.0212458
0.0447862
0.0213238
0.021207
0.0202288
0.0201771
0.0211558
0.0210717
1.37918
0.0548671
0.0215439
0.0213188
0.0211262
0.0221592
0.0263453
3.32205
0.0215614
0.0298315
0.0237494
0.300968
0.0216025
0.0406078
0.0212943
0.0212536
0.0280909
0.0212158
0.021438
0.0206604
0.0199999
3.74266
0.0213824
0.0207318
0.0489346
0.496645
0.0358823
0.0212117
0.0199035
0.0240186
2.26396
0.0232694
0.0217016
0.021534
1.39694
0.021865
0.0211113
1.64205
0.0207941
0.024818
0.0227072
0.0215422
0.0201572
0.0470375
0.0257055
0.0206235
0.0212794
0.0213895
0.020893
0.421728
0.0226525
0.0213948
0.0197664
0.0219924
0.0201816
0.0212333
0.0645249
0.0206409
0.0238114
0.0234556
0.413046
0.0197212
0.0225078
0.0471272
0.0265054
0.150373
0.0209758
0.02151
0.15664
0.0214011
0.0201323
0.330309
0.0214063
2.6487
1.14002
0.0572686
0.933506
0.0214144
0.0274698
1.25507
0.0212337
0.0200001
0.632867
0.441548
0.0208913
0.0201431
0.0227521
0.0207382
0.233235
0.0564487
1.17283
0.0214832
0.0216517
0.0212104
0.0211236
3.25881
0.48159
3.6548
0.024555
0.0223645
2.6985
0.0213369
0.0208906
0.0226512
0.0209252
0.0218512
0.156774
0.0197186
0.482296
0.0219093
0.0220125
0.0213929
0.0260758
0.0207569
3.09907
0.020678
0.0211913
0.0226501
0.0201627
3.37655
0.0245749
0.0250702
2.21186
0.204968
0.0327373
3.25611
0.0213361
2.91512
0.0264759
0.020766
0.0223849
0.0217295
0.414188
3.14277
0.0214717
0.0233252
0.415778
0.0210667
0.0205676
0.0235957
2.46104
0.524873
0.0214996
0.022061
0.0798179
0.0230566
0.0580381
0.0571714
0.0598612
0.0201486
1.74233
0.0215485
0.300874
0.0526093
0.032922
3.98881
3.40153
3.60301
0.0203656
0.733149
0.0199502
0.0197752
0.301586
0.0197541
0.0222071
0.02114
0.0566064
0.020609
0.11791
0.0201659
0.0270733
0.489281
0.0258759
0.0248496
0.417464
0.0218148
0.0202416
0.021863
0.0762433
0.0237902
0.118844
0.0214158
0.0259215
0.0217383
0.145715
0.0214188
0.0215672
0.0213677
0.321074
0.0302565
0.02149
3.52146
0.0210709
0.0213819
0.0241931
1.15755
0.0213933
4.04618
0.0214847
2.92588
0.0214204
0.0388098
0.0209843
0.045476
0.0214241
0.0555653
0.0246344
0.034725
0.0208917
0.0216928
3.32548
0.0203671
0.024081
0.0273861
0.0200706
0.0629424
1.96393
0.107068
0.0221214
0.0197291
0.0211827
0.100329
0.0235351
3.83185
0.0240063
0.265626
0.0212651
0.431748
0.0205346
0.0323642
0.104821
0.0227238
0.139335
0.0233433
3.22495
0.160894
0.0207748
0.244633
0.0223186
0.0211362
0.0228753
0.0703856
0.0232978
0.158994
0.0239721
0.0974359
0.0391206
0.0556516
0.0430289
0.37341
0.0214591
0.0215232
3.44921
3.34008
0.0337087
0.0234713
2.45062
2.05269
0.0212501
0.0214344
0.0212018
1.10864
0.0207099
0.0209441
0.0318613
0.0497174
0.0198225
0.020612
0.0222224
4.0756
0.0205033
0.0238502
0.0198215
0.107341
0.0218717
0.854992
0.0218352
0.0206471
0.0213346
0.0202794
0.645499
0.0345793
1.45854
0.0213256
0.0282732
0.0202061
0.226376
0.138534
0.0445473
0.0207947
0.0539749
0.0208826
0.0215866
3.45088
0.0210737
0.0242138
0.421779
0.0201507
0.0974153
0.0207594
0.0198313
0.021548
0.132341
0.0207965
4.08423
0.0947411
0.0533404
0.305123
0.0207093
0.184041
0.0555877
3.60631
0.0349322
3.06878
0.184077
0.0215685
0.0355046
0.0217039
0.0295756
0.0209275
0.0227456
0.0212029
0.025705
0.117303
4.13947
0.0237734
0.0230349
0.5675
0.411587
0.0211985
0.0214541
0.15712
0.0341554
0.0204418
0.320261
0.0355245
0.0221483
0.0203905
0.022419
0.487671
0.0216191
0.0506136
0.0195893
0.198928
3.59543
0.0829933
0.0221671
0.0214805
0.0211409
0.021272
0.0214419
0.0247273
0.0222881
0.0215561
3.65288
0.0208334
0.0214941
0.021059
0.307107
3.77218
0.0212448
0.0213199
2.37884
0.0204826
4.22128
0.0215188
0.0213551
0.0197175
0.0216256
0.0205945
0.0227019
0.0202436
0.144682
0.0218339
0.481229
0.0213526
0.173787
0.0214657
0.0244561
0.198647
0.195065
0.0212392
0.0214437
0.0332007
0.0197197
0.464084
0.399734
0.0224546
0.0207562
0.0212323
0.0203366
0.0487833
0.0815366
0.0409889
0.422924
0.0396101
0.0214099
0.0211823
0.0205271
0.321911
3.15058
0.021956
0.0211274
0.0208128
0.0270209
0.0213782
2.98115
2.47792
0.0303645
0.0202719
2.92681
0.111002
0.0214414
0.34728
0.0215855
0.422363
0.031873
0.0320426
0.0267148
0.81141
0.0315304
3.62153
0.020864
0.0205237
0.020697
0.0203212
0.0215042
0.0280831
0.0205332
0.0255172
0.0200033
0.256579
0.0209794
0.0296567
2.12809
0.0221006
0.0198038
0.029562
4.16969
0.0212457
0.0206018
0.18798
4.06546
2.58967
0.0216356
0.0197269
3.03688
0.110937
0.0239681
0.0467773
0.0213758
0.0327061
0.0214853
0.113359
0.0206642
0.0209533
0.416031
0.0204209
0.0227155
3.46291
0.0528514
0.0206369
0.0217313
0.0207476
2.2514
0.0242914
0.0259961
0.0214246
0.0207817
0.107598
0.0291721
0.0211495
0.0212935
0.0197261
0.022702
0.0206541
0.0226474
0.199356
2.83631
0.0231139
0.0371466
0.0208127
0.0451539
0.0212172
0.0215139
0.0207653
0.253998
0.0415865
0.020023
0.0226779
0.791197
0.0350568
3.76446
0.0449711
0.0212943
0.0207742
0.0274765
0.0224172
3.97667
0.0205218
3.59826
4.07348
0.0208988
0.0357444
3.40448
0.0254265
0.392957
0.096524
0.0216285
4.0277
0.02555
0.0204319
3.56272
2.9665
0.0849324
0.0217098
3.26258
2.80263
0.0213397
0.171677
3.31596
0.0213791
0.0207089
0.0218244
0.0200269
0.0215421
0.583458
4.10276
0.0214222
0.0231622
2.49451
3.50106
0.0332956
0.0469133
0.0210714
0.0263418
4.00247
0.0557482
3.30158
3.933
0.0212539
0.0214302
0.0210446
0.0218871
3.98275
3.22908
0.0210364
0.0337617
2.86546
0.106482
0.0538744
0.0211307
0.0214759
0.0219486
0.322292
0.0221707
0.0338713
0.030531
0.0220273
0.412615
0.023357
0.0540047
0.127182
3.72333
0.0212148
0.0211963
0.0224896
0.0338842
0.223051
2.37885
0.0218779
2.08215
4.05103
0.0331665
0.0307882
3.6202
0.313549
0.309636
2.96806
0.0213266
0.250804
1.16004
0.0286005
0.0277122
0.114054
0.0224109
0.104013
0.023279
0.0208539
0.0199836
0.0215636