/*--------------------------------*- C++ -*----------------------------------*\
| =========                 |                                                 |
| \\      /  F ield         | OpenFOAM: The Open Source CFD Toolbox           |
|  \\    /   O peration     | Version:  v2012                                 |
|   \\  /    A nd           | Website:  www.openfoam.com                      |
|    \\/     M anipulation  |                                                 |
\*---------------------------------------------------------------------------*/
FoamFile
{
    version     2.0;
    format      ascii;
    class       volScalarField;
    location    "450";
    object      omega_0;
}
// * * * * * * * * * * * * * * * * * * * * * * * * * * * * * * * * * * * * * //

dimensions      [0 0 -1 0 0 0 0];


internalField   nonuniform List<scalar> 
18355
(
0.161435
0.020435
0.225143
0.0210096
0.0344604
0.686127
0.0215407
0.0345052
0.0220168
0.395875
0.0252277
0.10707
0.115172
0.117911
0.0210843
0.0202023
0.021006
0.0236444
0.141424
0.0226164
0.150138
0.0219143
0.0204593
0.682059
0.0204697
0.0220133
0.0215799
0.0210154
0.0222079
0.025869
0.549984
0.0457732
0.0203574
0.0200684
0.0210713
0.0221923
0.0267384
0.0222623
0.026313
0.0218164
0.0221482
0.0257819
0.0200879
0.0204206
0.0204309
0.271586
0.0209896
0.0209786
0.449402
0.0212529
0.0208264
0.251387
0.0213091
0.0998367
0.0212847
0.0226446
0.0211058
0.761802
0.0221025
2.83915
0.0200791
0.0707112
0.0993431
0.021375
0.0567541
0.0206196
0.0237492
0.0268288
0.0200209
0.614113
0.020933
0.0212845
0.0380326
0.0244285
0.077779
0.0200409
0.809757
0.0200512
0.0209046
0.110037
0.0236945
0.367709
0.0200316
0.0247667
0.0467165
0.0217503
0.0222588
0.0377353
0.0208699
0.0378243
0.193614
0.125134
0.394607
0.0212447
0.69432
0.0217518
0.0208566
0.0214101
0.060354
0.0218368
0.0442974
0.0208744
0.0211964
0.0195588
0.0239376
0.0202126
0.0563122
0.701744
0.0315138
0.0201569
0.0207257
0.0214105
0.0313615
0.0244903
0.360833
0.027249
0.0208515
0.28264
0.0228725
0.0235409
0.638609
0.225566
0.176082
0.0428896
0.315103
0.298194
0.0215792
0.0210387
0.168533
0.021663
0.0208603
0.26316
0.021262
0.0632621
0.0789125
0.0208611
0.146291
0.657044
0.0211901
0.136655
0.0250211
0.0390648
0.0209507
0.29832
0.0790888
0.0216471
3.61578
0.0196051
0.0310339
0.302311
0.0210087
0.0234749
0.0213426
0.0282617
0.0200991
0.0205827
0.0210521
0.0217392
0.0209576
0.0206813
0.02396
0.0212677
0.0201653
0.0347425
0.0247862
0.348358
3.57197
0.177561
1.33368
0.024997
0.0212829
0.0596865
0.0216117
0.36409
0.0211451
0.0221102
0.0213303
0.0195227
0.0226133
0.0286237
0.0218067
0.324812
0.0217921
0.0210383
0.238046
0.0211789
0.0218073
0.0370791
0.0213476
0.021669
0.279449
0.0605263
0.0204635
0.0200512
0.0214081
0.508411
0.0205367
0.225109
0.0204442
0.104528
0.0211445
0.0229762
0.026445
0.021724
0.175867
0.0215816
1.35585
0.0210335
0.0203087
0.0212851
0.0215498
0.442825
0.0227854
0.0218403
0.0196161
0.303261
0.0286762
0.0249263
0.0215992
0.0209902
0.0305899
0.0199748
0.0357834
0.0258026
0.0765295
0.0238346
0.0199947
0.656614
0.12763
0.0341927
0.0213691
0.0239615
0.364176
0.0199868
0.0345785
0.0398202
0.0219711
0.281762
0.0244319
0.0218734
0.0204614
0.0225174
0.021503
0.0327732
0.0215776
0.0212906
0.0209819
0.45101
0.616531
0.021005
0.021808
0.627283
0.142184
0.0255196
0.0195284
0.0285817
0.0244189
0.021737
0.0237573
0.0208068
0.299474
0.0609884
0.0557025
0.0283186
0.0270097
0.0390302
0.0371755
0.0651908
0.0207996
0.021292
0.0218459
0.0201556
0.0229737
0.0250547
0.0209764
0.0215597
0.0288262
0.0208503
0.0676282
0.55105
0.0272173
0.0215765
0.0279455
0.0201448
0.0380621
0.0215295
0.029609
0.0218677
0.0288762
0.275394
0.0203343
0.0395348
0.0227565
0.0234204
0.0355397
0.0213161
0.0200363
0.0639812
0.0215545
0.0405462
0.0267572
1.21101
0.0382728
0.0566524
0.0232288
0.0299954
0.0211897
0.0237297
0.0279126
0.039476
0.284789
2.83402
0.0210718
0.0242132
0.0880261
0.0286445
0.0210673
0.0209699
0.0209944
0.04261
2.39753
3.32472
0.297406
0.0285645
0.0247104
0.397059
0.0196047
0.0215592
0.0246589
0.0213676
0.0343137
0.0209481
0.425091
0.020233
0.414462
0.0213519
0.0217767
0.023526
0.126488
0.191092
0.0329017
0.250406
0.0218892
0.0208787
0.0213586
0.0238712
0.412951
0.0209007
0.0214697
0.267371
0.0218314
0.020902
0.146055
0.0234742
0.0209884
0.0212547
0.0305712
0.0222486
0.0304118
0.0200642
0.0214614
0.0217978
1.49362
0.199821
0.0200407
0.0209365
0.0309669
0.0210022
0.0215153
0.422636
0.183172
0.0304898
0.0213418
0.0220201
0.115461
0.0219713
0.0309482
0.0237741
0.0202747
0.0310626
0.0314636
0.0217183
0.0213429
0.0236811
0.0214641
0.0231694
0.0214031
0.0638484
0.0215351
0.0232507
0.0208635
0.0209955
0.0228745
0.0220991
0.0543363
3.72251
0.26823
0.0227885
0.141253
0.0269627
0.0213704
0.0208983
0.0375793
0.0213471
0.0314252
0.0214225
0.0259179
0.379505
0.250116
0.182985
0.0596489
0.0195665
2.26111
0.0218394
0.020966
0.15758
0.021317
0.0276195
0.0201817
0.0617358
0.0213119
0.05806
0.422633
0.0522777
0.0212703
0.0204668
0.0539356
0.022881
0.0210004
0.377681
0.0512215
0.0209601
0.0381192
0.0543223
0.0204615
0.0220441
0.0314569
0.362787
0.0368091
0.0218299
0.0212338
0.0340015
0.0212889
0.0202014
0.0211317
0.15531
3.77642
0.0202587
0.0221555
0.0214921
0.135533
0.0311553
0.0200364
0.0273948
0.0360097
0.0214786
0.523437
0.0704219
0.02183
0.0214473
0.0356995
0.142696
1.0074
0.0202365
0.72167
0.0212343
0.0202518
0.0405899
0.0230269
0.0669744
0.0381762
0.0233958
0.0248865
0.0219248
0.140404
0.0230311
0.0273131
0.0218827
0.020213
0.0217276
0.020228
0.0691728
3.70682
0.061207
0.0239956
0.0215737
0.0218795
0.0214893
0.023257
0.0215789
0.020035
0.0213852
0.038035
0.0204693
0.0215687
2.56236
0.26329
0.0895921
0.021641
0.0220217
0.0316088
0.0218783
0.309425
0.616595
0.0238628
0.0248221
0.0249886
0.022264
0.0236746
4.30161
0.032231
0.0219559
0.337415
0.0215782
0.193954
2.19746
0.0247916
0.02199
4.27768
0.0209828
0.0556561
0.0461861
0.327001
0.0230254
0.0217044
0.0214653
0.351683
0.853378
0.293335
0.324123
0.0230758
0.021455
0.0247787
0.0212988
0.0236129
0.139999
0.286839
3.64546
1.23581
0.0276741
0.0426338
0.0326657
0.0209985
0.0211446
0.0292496
0.0240793
0.0215452
0.0212965
0.475561
0.0208416
1.21054
0.0251441
0.0649827
0.12458
0.0211509
0.0244798
0.183266
0.0213803
3.44936
0.0212723
0.112827
0.0323075
0.0219427
0.0322116
0.0650026
0.0607087
0.021916
0.0200064
0.0327714
0.0249815
0.0650178
0.0213736
0.0717085
0.0208337
0.433172
0.0211609
0.0211696
0.20341
0.0274886
0.0350035
0.0210373
0.0251929
0.0230139
0.424211
3.32649
0.0242365
0.0294078
0.0211547
0.0278452
0.0217446
0.0240612
3.70646
0.0204223
0.289292
0.0215388
0.021256
0.0242979
0.307124
0.0223887
0.0699354
0.0220268
0.0330548
0.440634
0.0196122
0.0209897
0.445324
0.0371302
2.60748
0.0397152
0.021682
0.0213023
0.0209761
0.0244419
0.0219768
0.0200911
0.097712
0.280815
0.0211529
0.278172
0.322202
0.0244435
0.239185
0.0202177
0.146901
0.251647
0.0196775
0.448443
0.0359175
1.84914
0.437273
0.0210713
0.0209671
0.0215921
0.277423
0.0417145
0.0212936
0.0219505
0.0974494
0.0217921
0.0367722
0.0210676
0.0344183
2.78921
0.269817
0.0331569
0.238564
0.0389245
0.706272
0.0248353
0.0209147
0.0266022
0.435303
0.0290541
0.0400715
0.0212808
0.124761
0.0215093
0.0217251
2.96708
0.0217269
0.0271803
0.031199
0.0652828
0.021469
0.0212908
0.0242176
0.025634
0.0199701
0.0215663
0.0338935
0.108012
0.0232072
0.0212944
0.0405882
0.438253
0.0212294
0.17625
0.405707
0.0214702
0.975983
0.0200075
0.214124
0.0213501
0.0203305
0.204389
0.0232066
0.437785
0.0230745
0.0212928
1.36751
0.0213468
0.020138
0.021518
0.0209243
0.0277121
0.0358418
0.186097
0.0220787
3.51719
0.0227172
0.142042
0.522997
0.0220724
0.0213512
0.0252048
0.0201387
0.0914347
0.0211884
0.0201152
0.0201362
0.0212804
0.0213703
0.316305
0.0243164
0.0412346
0.02264
0.024204
0.023651
0.0258729
0.0530174
0.0204704
0.0690112
0.0431601
0.0200075
0.292227
2.74699
0.0207779
0.0596536
0.0211685
0.360066
0.032907
0.0196589
0.0330619
0.0260572
0.103909
0.0208503
0.0240714
0.165641
0.074715
0.153692
0.0213666
0.313627
0.0639478
0.14013
0.0213729
0.0228442
0.0210204
0.0214809
0.0210645
0.0209821
0.0204173
0.0800429
0.0253239
0.0208899
0.0200598
0.0205393
0.0217843
0.0705718
0.0625583
0.0203291
0.0256285
0.0215176
0.0215436
0.0214555
0.0209458
0.0358596
0.0200556
0.0208826
0.0217848
0.0216142
0.0231204
0.0214133
0.32022
0.12315
0.0243463
0.0208649
0.136341
0.0201049
0.0200639
0.0213874
0.154044
0.0239404
0.0212642
0.0201619
0.0204536
0.024773
0.0200124
0.0255788
0.0211789
0.0217512
0.0210638
0.0227711
0.107031
0.0209063
0.0218625
0.0211829
0.165068
0.331687
0.0264428
0.0219747
0.0270649
0.0255028
0.0332622
4.24582
0.0217739
0.273455
0.021881
1.21439
0.0221564
0.020288
0.020058
0.676416
0.0200266
0.0266438
0.0299268
0.165016
0.0408843
0.0222882
0.0210178
0.0208469
0.0212163
0.0276713
0.084497
0.415528
0.0407239
0.021526
0.0200086
0.0224994
0.0210657
0.0208166
0.0217964
0.0412717
0.0244142
0.419816
0.0215205
0.0214367
0.0343096
0.0213046
0.143273
0.0409755
0.0399411
0.12203
2.82457
0.0277435
0.0209856
0.0200172
0.021678
0.0212799
0.589748
0.0413418
0.0888398
0.0203108
0.0215942
0.0229355
0.0208359
4.23426
0.034609
0.0200601
0.0200628
0.020979
0.0210724
0.0209103
0.0212512
0.25589
0.0199699
0.0220158
0.0203175
0.0205855
0.0210734
0.0214624
0.0253568
0.0205802
0.0270001
0.0201534
0.235571
0.240824
0.023538
0.489877
0.0227459
0.0218926
0.0564316
0.341769
0.0214251
0.0207468
0.0204729
0.0251114
0.021984
0.0276869
0.195599
0.0214967
0.0220013
0.02148
1.21147
0.250456
0.0221026
0.0205974
0.0242703
0.038169
0.0211384
0.0604319
0.0208378
0.0199658
0.0244545
0.0708287
0.382879
0.345148
0.26138
0.0200467
0.0366362
0.0672072
0.0248921
0.0212099
0.0677806
0.0238364
0.151361
0.0757856
0.0207302
0.0200562
0.0214771
0.0220297
0.0200596
0.470779
0.373166
0.0201111
0.0215202
0.0219115
0.0344541
0.0212498
0.0208738
0.02862
0.0218871
0.0209611
0.320322
0.0758925
0.0681891
0.0212667
0.0202413
0.0201277
0.021457
0.0256993
0.0297309
0.0208697
0.0206293
0.022675
0.30798
0.0204619
0.0214155
0.059671
0.0209099
0.02076
0.0213497
0.267812
0.0202224
0.021445
0.0204652
0.0222602
0.0202314
0.0258542
0.130023
0.021416
0.145893
0.0287789
0.2139
0.0491895
0.0209906
0.0254858
0.0208437
0.0207448
0.0210025
0.473285
0.337428
0.036178
0.0268564
0.166205
0.058347
0.0221069
0.080337
0.0471179
0.0234965
0.0200703
0.330479
0.0222322
0.0207383
0.0203927
0.760817
0.268094
0.201988
0.0207137
0.0761838
0.280478
0.026404
0.029464
0.024032
0.0229073
0.0320818
0.340229
0.0227314
0.0222727
0.0246387
2.12432
0.314726
0.0212399
0.0213565
0.0210467
3.28993
0.0233964
0.0218705
0.132192
0.0258543
0.036054
0.024
0.294744
0.0206775
1.20081
0.0220942
0.0200777
0.020985
0.0200075
0.020087
0.02089
0.0217129
0.429227
0.0205278
1.19837
0.0263686
0.0216747
0.0207535
0.0732413
0.0211947
0.0214958
0.0230821
0.632033
0.0436958
0.0232126
0.0215367
3.56477
0.0206729
0.0403025
0.0215197
0.203302
0.0302098
0.286122
0.0264362
0.0210003
0.0375818
0.588026
0.0346665
0.0205556
0.0213427
0.0342815
3.70675
0.0195693
0.0437206
0.0209662
0.0252616
0.0208606
0.0200433
0.0219516
0.0221475
0.0200324
0.0363378
0.0360804
0.0245067
0.116995
0.459792
0.0222242
0.28917
0.020114
0.0914524
2.00161
0.160818
0.0200213
0.0220033
0.021498
1.14218
0.0210319
0.0208367
0.0738036
0.0215029
0.0215253
0.0221354
0.0220466
0.0212463
2.28617
0.353347
0.0528149
0.0207546
0.0214513
0.107855
0.0201014
0.0396316
0.0215722
0.0214836
0.0219977
0.0238535
0.252983
0.0208471
0.0214742
0.826492
0.0215657
0.0217961
0.0344423
3.33931
0.327817
0.021428
0.0210507
3.52239
0.443865
0.163381
0.0206415
0.031809
0.194041
0.0203614
0.0350715
0.0227366
0.466666
0.023615
0.0215318
0.0222078
0.0200184
3.50638
0.0214649
0.0204632
0.319184
0.0285701
0.279481
0.0199814
0.0226812
0.0200537
0.0196447
0.0202111
0.0221899
0.0216143
0.0218244
0.0200248
0.0217503
0.0429585
0.0258874
0.0236605
0.0206432
0.0233934
0.0210724
0.277591
0.0216084
0.0220974
0.0215798
0.0200625
0.0217885
0.0216754
0.0211463
0.0212264
0.0208291
0.02022
0.730605
0.0688877
0.0212094
3.5492
0.0330085
0.0217553
0.0217002
0.0221963
0.529713
0.0218213
0.0201025
0.020103
0.020029
0.18192
0.0212828
0.0202937
0.150276
0.0200147
0.0197389
0.0237581
0.0246185
0.075081
0.124446
2.43488
0.0200483
0.825073
0.0254356
0.0212238
0.0204253
0.0243324
0.0212828
0.0297016
0.0506777
0.0229462
0.0219484
2.99258
0.0523198
0.528237
0.828515
0.320732
0.0818507
0.0205029
0.668534
0.274544
0.0201336
0.80195
0.0207105
0.0223737
0.125312
0.0207251
0.0385949
0.025255
0.0228813
0.0218518
0.0431922
0.0213773
1.18625
0.0212364
0.0201799
0.459556
0.0197703
0.0221447
0.0218504
0.0467103
0.0212028
0.021442
0.0230195
0.304218
0.0211748
0.021277
0.0202251
0.0238746
0.0211782
0.0223744
0.298332
0.0209643
0.0257627
0.0217148
0.0236306
0.023294
0.0209407
0.0219223
0.081999
0.021545
0.0217553
0.0244896
0.306499
0.0221552
0.0211257
0.021423
0.0256492
0.0749123
0.0223405
0.0210231
0.0209588
0.0205601
0.0196282
0.0200621
0.0252249
0.0335006
0.0480011
0.0215354
0.151844
0.0206513
0.0209519
3.84655
0.0404658
0.0199788
0.0645478
0.021085
0.0210212
0.464877
0.0217839
0.0402767
0.0197332
0.137521
0.0205157
0.0200157
0.0202546
0.261724
0.0850986
0.021521
0.119439
0.0202357
0.0209114
0.0207393
0.129901
0.0212236
0.0206557
0.0217673
0.0227355
0.0212722
0.0214453
0.0207999
0.0217779
0.021514
0.020842
0.0233118
0.0199906
0.0848435
0.0549249
0.0202091
0.0600805
0.0258391
0.0209325
0.0206652
0.0219372
0.020747
0.0283452
0.02466
0.0392592
0.039381
0.0216466
0.0615209
0.137641
0.0212155
0.0216864
0.0700409
0.023255
0.30133
0.02022
0.0212051
0.0224295
0.0215452
0.0212718
0.0255604
0.0209499
0.0224411
0.0212439
0.0233601
0.0205629
0.106622
0.0213425
0.0240408
0.0301668
0.0209884
0.474167
0.174908
0.0229695
0.0251945
0.0285524
0.0198678
0.0518833
0.0214286
0.0328759
0.0846709
0.293345
0.0405862
0.0227692
0.0262551
0.021015
0.0304487
0.0205325
3.57767
0.031224
0.0214535
0.0208077
0.0583268
0.0375755
0.0212217
0.0212151
1.10673
0.0216112
0.0206462
0.746629
0.046553
0.0201229
0.11786
0.0203098
0.038769
0.0484274
0.0212656
0.0214326
0.0231955
0.155076
0.0207975
0.0261458
0.0214369
0.0212744
0.0208242
0.109733
0.0218114
0.021346
0.0211305
0.107295
0.0263623
0.0208107
0.0197692
0.0887998
0.0211479
0.0204569
0.110651
3.84714
0.0219204
0.323679
0.0232272
0.0421489
0.0221851
0.0498647
0.485137
0.0219091
0.0207651
0.0203232
0.0242979
0.0211983
0.128395
0.102747
0.0205283
0.0221556
0.0203361
0.0200264
2.91154
0.0212059
0.0224195
0.0227865
0.0572864
0.0214516
0.0216944
0.0246707
0.489398
0.021474
0.0213578
0.0204477
0.0205718
0.0240458
0.0405911
0.0215487
0.0211221
0.0212479
0.0210766
0.0203298
2.20247
0.0216887
0.0210491
0.0210961
0.0509181
0.0203744
0.0204594
0.0341865
0.0209256
0.0341392
0.0212528
0.0214335
0.292918
3.99098
0.204015
0.0462963
0.0234633
0.0217217
3.00947
0.0206477
0.0246768
0.0199922
0.724111
0.0195441
0.0242252
0.0214601
0.410388
0.0398061
0.0281137
3.24022
0.0223257
0.0541922
0.0217268
0.021934
2.85171
0.0326883
0.0211748
0.0203014
0.0236662
0.0266003
0.021423
0.0212541
0.0206441
0.0199292
0.176983
0.352607
0.0217236
0.0223295
3.76613
0.0790064
0.023141
0.0223922
0.0231051
0.0242361
0.0212143
0.0221955
0.0626864
0.020909
0.0203253
0.0215139
0.0682075
0.179301
0.0254488
0.0215435
0.0215542
0.026666
0.0213461
0.0256465
0.0412524
0.0371474
0.0229684
0.0613997
0.0201224
0.0212253
0.0218402
0.0199708
0.0215493
0.0208519
0.0345916
0.0210098
0.42357
0.0213505
0.0207211
0.020491
0.0263595
0.0223551
0.039803
0.0541193
0.0201488
3.03385
0.0225719
0.0205051
0.019797
0.323478
0.485409
0.0198163
0.0208171
0.0207503
0.0222075
0.167892
0.037643
0.0218427
0.0220469
0.127138
3.27712
0.0219771
0.021213
2.49609
0.0238059
0.265627
0.0230627
0.0211457
0.0519795
0.0245073
3.99156
0.0255624
0.0597737
0.0204022
0.0209113
0.0217578
0.021581
0.023775
0.0216872
0.0215516
0.0207901
0.0217784
0.0215584
0.0216925
0.0213944
0.0229229
0.0218891
0.0213416
0.020866
0.0318003
0.0229688
0.0209179
0.0215106
0.166347
0.0212119
0.0219189
0.0218498
0.0996306
0.020461
0.0354337
0.0227822
0.0201915
0.0210843
3.37789
0.0493304
0.0219973
0.0221355
0.0234436
0.037652
0.0208678
0.0276506
0.0388751
0.021057
0.0831931
0.0208248
0.0213328
0.0212602
0.0218115
0.0282109
0.0550057
3.60978
0.0250276
0.0201987
0.0214981
0.0210939
0.0556017
0.021953
0.210774
0.0208166
0.0213732
0.0213568
0.0609225
0.0209499
0.0215753
0.0212577
0.122322
0.0204692
2.48408
0.0204287
0.024154
0.0212879
0.0285894
0.0209935
0.023584
0.0585517
0.0350054
0.0202092
0.0330598
0.0215076
0.0213584
2.67188
0.067253
0.0203206
0.0212463
0.0234974
0.0202507
0.02113
0.0218659
0.0216994
0.0234027
0.045264
0.022179
0.0261496
0.0382077
0.0216269
0.0209996
0.0211754
0.0221779
0.0286765
0.021428
3.75633
0.020694
3.11449
0.03471
0.020144
0.020714
0.0206946
0.0628578
0.0215058
0.0232033
0.0214745
0.0207389
0.0865538
0.0229104
0.0257009
0.0216551
0.0214685
0.0227186
0.0212251
0.0229018
0.021367
0.0220614
0.0219909
0.0218221
0.716076
0.0268312
0.364245
0.0209995
0.0235114
0.0223298
0.264795
0.0562621
0.814266
0.0223598
0.0199583
0.0375423
0.0209008
0.508319
0.0221458
0.0363387
0.02236
3.38468
2.56018
0.0233987
0.0256589
0.02075
0.0205314
0.0218918
0.0198984
0.0217333
0.0230573
0.0207832
0.02519
0.0421443
0.230766
0.0208879
0.0341846
0.0201076
0.0211858
0.021118
0.0792571
0.0216725
0.057889
0.0216745
0.0211242
2.8956
0.0208745
0.0230613
0.0210402
0.0232025
0.804025
0.0261931
2.09801
0.0214404
0.0553222
0.0230191
0.021118
0.0211963
0.0284809
0.0238051
0.021275
0.0227579
0.0213261
0.718716
0.0207333
2.51062
0.549529
0.058883
0.0252641
0.0920806
0.0250027
0.0198975
0.631441
0.0211847
1.18414
0.0218325
0.0227072
0.283846
0.279036
0.027028
1.18328
0.0213832
0.185397
0.0196046
0.213707
0.0201642
0.0231227
0.0365823
0.0215363
0.0207219
0.0219795
0.0212672
0.0316654
0.25889
0.0338852
0.278915
0.0206406
0.15723
0.0214399
0.0216813
0.021015
0.0211035
0.519137
0.0216029
0.0205625
0.0341902
0.0218073
0.332915
0.0676121
0.0212665
0.0399289
0.0336624
0.0208524
0.0214387
0.0238777
0.0203195
0.0480669
0.0288398
0.0224567
0.0226494
0.0204509
0.0211672
0.0498133
0.0219289
0.021449
0.0222804
0.0199225
0.0201268
1.18232
0.0272245
3.60199
0.0267789
0.0459918
0.0255192
0.0211129
0.026111
0.0203844
0.0209826
0.200051
0.0237855
0.022825
0.0435515
0.021738
0.299125
1.39737
0.021121
0.0247371
0.0266537
2.52772
0.0203098
0.0202973
0.0216245
0.0263737
0.25312
0.0247208
0.0237698
0.0217739
0.021169
0.0199296
0.268767
0.0232577
0.0229507
0.49755
0.0216282
0.0228117
0.0241599
0.0214924
0.0212344
0.0210536
0.0471355
0.0854158
0.0218175
0.0228775
0.331177
0.0209215
0.0219326
0.0233936
0.0215923
0.342728
0.416319
0.334114
0.0722716
0.150729
0.022545
0.0208409
0.0338231
0.0224617
0.0267701
0.0210456
0.0201937
0.339104
0.135231
0.0210789
0.020755
0.0280462
0.0395065
0.0230475
0.0199661
2.46225
0.0229452
0.034017
0.0201468
0.0256584
0.0195837
0.0225695
0.0257293
0.0211687
3.59497
0.0219837
0.0351036
0.0807261
0.209328
0.0728735
0.0211934
0.0522676
0.0243563
0.0242597
0.0221982
0.0226871
0.0214478
0.0225398
0.309719
0.0228382
0.317052
0.0207861
0.207247
0.0202909
0.0219073
1.94765
0.0245275
0.202958
0.0234026
0.0221132
3.8259
2.57245
0.0208617
2.99862
0.0359601
0.0207218
0.0198366
0.194417
2.85532
0.0204789
0.0202774
0.0212205
0.0202327
3.06583
0.353396
0.0195222
0.0197847
0.020859
0.259482
0.0420538
0.277295
0.0202039
2.38466
0.021559
0.0567894
2.10904
0.0239672
0.0205924
0.0206025
0.276686
0.0203388
0.0210593
0.0202024
0.024446
0.0230177
3.63193
0.0252246
0.0217865
0.021191
0.0260919
0.195452
0.0422864
0.021118
0.0208714
0.14156
0.0437641
0.0220879
0.516309
0.026793
0.0229351
2.96841
0.0227602
0.0260901
0.0218251
0.303105
0.0214134
0.0218241
0.301501
0.0270617
0.02105
0.021351
0.0195909
0.0353858
0.0884427
0.0209728
0.0202705
0.0220383
0.0580505
0.0229937
0.0202025
0.0212407
0.0207288
0.022077
0.0381293
0.02148
0.0209875
2.75778
0.0211054
0.493633
0.0303053
0.0328827
0.0230816
0.0221842
0.0214778
1.60237
0.072285
0.0585086
3.6108
0.0296477
0.0208707
3.38855
0.0202273
0.0628956
3.18604
0.0221279
0.021126
0.023787
0.0608516
0.021192
0.0210495
2.65377
0.0212632
0.0221176
0.0207192
0.0216305
0.0203423
0.0639839
0.112785
0.0201363
0.0210241
0.663675
0.0211837
0.0201201
0.0209985
0.0208322
0.157001
0.0227349
0.0230657
0.0222867
0.0219832
0.0202461
0.0327709
0.0916144
0.0262789
1.11007
0.0222926
0.0236041
3.61378
0.0208838
0.0203681
0.021082
0.0208322
0.0218263
0.0197467
0.0222069
3.20458
0.0212058
0.0210917
0.0226934
0.0208158
0.258959
0.0216771
2.32409
0.191294
0.0242975
0.0288632
0.338733
0.0238183
0.0211744
0.0230762
0.0209498
0.0224575
0.0214902
0.0217237
3.33839
0.0202875
0.0213231
0.0389859
0.169668
0.0217035
0.0208396
0.191749
0.02222
0.0258796
0.0213114
0.02085
0.0209385
1.07303
0.0214335
0.213732
0.0457796
0.0211463
0.0208307
0.0210874
0.0240399
0.269314
0.0201456
0.0391095
0.021096
2.22091
0.253998
0.0221268
0.16927
0.021548
0.0230626
0.0236181
0.646221
0.0226481
0.0248739
0.0256315
0.418376
0.0216401
0.0350909
0.0214497
0.0418023
0.133945
0.166555
0.0209842
0.0288255
0.206813
0.31599
0.0228438
0.023911
0.292224
0.283838
0.0208186
0.0483082
0.0211886
0.0241285
0.0214519
0.0223227
0.022238
2.27887
0.0216065
0.0218082
0.0488677
0.420731
0.832338
0.108121
0.6379
0.0207852
0.243785
0.0524677
0.0210319
0.0211184
0.401731
0.0233779
0.0214869
0.0212433
0.0397379
0.0206977
0.0212548
3.87714
0.0214628
0.0217504
0.0210411
0.0214012
0.0225783
0.020459
2.88043
0.023648
0.0227827
0.0205206
0.028861
1.19464
0.0209252
0.0217336
0.273173
0.182999
0.0213536
0.0241092
0.020709
0.0209329
0.0376063
0.162646
0.0209336
0.0210884
0.27703
0.0530749
0.400071
0.0259342
0.0223975
0.411726
0.0207383
0.0246703
0.0240022
0.0205757
2.49682
0.577645
0.0354163
0.0267113
1.02506
0.0198404
0.0197785
0.0225482
0.0342063
0.566282
0.0203328
0.036507
0.898901
3.55073
0.0216347
0.0225223
0.4896
0.0209968
0.0239757
0.400633
0.0209594
0.0211884
0.0204988
0.302504
0.0208586
0.0238158
0.0218612
0.0331478
0.0274705
0.408406
0.0211811
0.0211294
0.0271373
0.0216803
0.0226737
0.0221278
0.0868358
0.105894
0.0209925
0.0213333
3.50499
3.50943
0.127456
0.0207553
0.0213576
0.0226597
0.021531
0.0212699
0.0214309
0.0219516
0.0218649
0.0206695
0.0207657
0.051648
0.02314
0.0274957
0.142855
0.0546612
0.0433938
0.0244459
0.0471001
0.10192
0.0290652
0.0230302
0.0261373
0.0210687
0.586736
0.0200345
0.0202768
0.0206959
0.499565
0.0209222
0.495012
0.0217318
0.020136
0.0457513
0.0211685
0.0211414
0.0211617
0.0268757
0.159047
0.0216056
0.0205749
0.0226969
1.15902
0.04292
0.327174
0.0210447
0.0310037
0.0215103
0.0215363
0.0201877
0.020723
0.021357
0.0216364
0.151241
0.0224145
0.0223961
0.105479
0.657564
0.115529
0.0208668
0.0806142
0.0309686
0.663818
0.0205502
0.0210327
0.0223535
0.0522908
0.0197922
0.0213476
0.0207149
0.0203403
0.112866
0.0221592
0.0587098
0.0215166
0.0197753
0.0238139
0.0214308
0.513583
0.0211332
0.0252186
0.021781
0.0265611
0.0220585
0.0515887
0.336943
0.02123
0.0425547
4.11447
0.0211178
0.0215242
0.0378334
0.019722
2.92609
0.027315
0.0209483
0.049544
0.0200116
0.021743
0.0214564
0.0206898
0.0202195
0.0221661
0.0206778
0.0207138
0.0215262
0.0217609
0.0425979
0.020058
0.115703
0.0205356
0.0208924
0.0270291
0.0429407
0.0220436
0.0197179
0.0211926
0.0223246
0.0410584
1.4126
0.0313317
0.0219362
0.0219653
0.0207561
0.0287926
0.0209279
0.0222688
2.59565
0.278498
0.0418476
0.0210775
0.0217192
0.0221619
0.0197255
0.0404
0.0201242
0.0953142
0.02199
0.165568
0.0261691
1.75884
0.0215567
0.0559738
2.62192
0.33974
0.141906
0.0252682
0.354056
3.41072
0.0218741
0.0322488
3.71898
0.020456
0.0207468
0.0213337
0.024203
0.0772071
0.0214555
0.0240501
0.644496
0.0195263
0.0214626
1.68967
0.484505
0.0888127
0.18155
0.528386
0.0221602
0.0596195
0.0231522
0.023477
0.604405
0.0223753
3.52533
0.0354118
0.0236582
0.0213881
0.0224589
0.0222722
0.020521
2.53543
0.0197869
0.0212422
0.0213084
0.0880181
3.62686
0.0320171
0.0212417
0.0222377
0.0204771
3.06301
0.0209813
0.0220041
0.0235539
0.0511448
0.0206957
0.062258
2.1162
0.296693
0.0217538
0.204507
0.0205653
0.506778
0.0198245
0.0319097
0.021389
0.0566592
0.0254038
0.555441
0.0994603
0.022786
0.0227788
0.0269821
0.0238337
0.0210994
0.0207041
0.0244398
0.0217587
0.2693
0.0196456
0.0210574
0.0214291
0.0214009
0.244062
0.0207401
0.0201352
0.0214875
0.247169
0.0263858
0.047711
0.0227483
0.0225469
0.0677237
0.0206131
0.0213107
0.0610105
0.0395064
0.0201373
0.0365575
0.0229499
0.283155
0.0212458
0.0446091
0.0213229
0.021207
0.0202288
0.0201771
0.0211558
0.0210717
1.38233
0.0549137
0.0215437
0.0213188
0.0211263
0.0221593
0.0263491
3.32289
0.0215609
0.0298581
0.0237493
0.300858
0.0216025
0.0406361
0.0212943
0.0212536
0.0280834
0.0212158
0.0214379
0.0206605
0.0199996
3.74246
0.0213824
0.0207318
0.0492475
0.494719
0.0358608
0.0212122
0.0199032
0.0240191
2.27205
0.0232699
0.0217016
0.0215342
1.39973
0.021865
0.0211111
1.59249
0.020794
0.0248203
0.0227073
0.0215421
0.0201572
0.0470518
0.0257009
0.0206235
0.0212793
0.0213898
0.020893
0.421833
0.0226526
0.0213948
0.0197663
0.0219921
0.0201816
0.0212333
0.0644899
0.0206409
0.0238112
0.0234535
0.417314
0.0197212
0.0225073
0.047131
0.0265098
0.150856
0.020976
0.0215101
0.155724
0.0214011
0.0201319
0.329722
0.0214062
2.64573
1.13833
0.0572399
0.956594
0.0214144
0.0274695
1.21746
0.0212337
0.02
0.629075
0.439039
0.0208913
0.0201431
0.0227512
0.0207379
0.233308
0.0564134
1.17255
0.0214832
0.0216517
0.0212104
0.0211237
3.25786
0.481247
3.65533
0.0245568
0.0223637
2.69272
0.0213369
0.0208906
0.0226519
0.0209252
0.0218512
0.157663
0.0197186
0.482593
0.0219095
0.0220131
0.0213929
0.0260787
0.0207567
3.10014
0.0206781
0.0211914
0.0226491
0.0201627
3.37422
0.0245752
0.0250656
2.21348
0.205556
0.0327431
3.25757
0.0213362
2.91337
0.0264793
0.020766
0.0223844
0.0217295
0.414181
3.14514
0.0214718
0.0233273
0.415841
0.0210667
0.0205676
0.0235931
2.47203
0.526863
0.0214995
0.0220617
0.0798851
0.0230573
0.0580104
0.0571478
0.0599244
0.0201487
1.78153
0.0215487
0.300085
0.0526612
0.0329336
3.98599
3.40194
3.60527
0.0203656
0.739428
0.0199499
0.0197752
0.302073
0.0197541
0.0222068
0.0211401
0.0566635
0.020609
0.117783
0.020166
0.0270633
0.48973
0.025879
0.0248518
0.417449
0.0218148
0.0202416
0.0218631
0.076235
0.0237872
0.11871
0.0214158
0.0259252
0.0217381
0.145813
0.0214188
0.0215674
0.0213677
0.327752
0.0302595
0.02149
3.52074
0.0210709
0.0213823
0.0241898
1.16903
0.0213933
4.04399
0.0214848
2.92743
0.0214203
0.0388163
0.0209842
0.0454816
0.0214241
0.0556232
0.0246363
0.0346778
0.0208916
0.0216926
3.32569
0.0203671
0.0240799
0.0273911
0.0200705
0.0629848
2.00688
0.107061
0.0221213
0.0197291
0.0211826
0.100361
0.0235327
3.82804
0.0240077
0.264908
0.0212667
0.428396
0.0205346
0.0323679
0.104732
0.0227238
0.139411
0.0233411
3.21776
0.160751
0.0207748
0.248982
0.0223187
0.0211362
0.0228756
0.0704367
0.0232958
0.158878
0.0239713
0.097358
0.0391253
0.0556254
0.0430244
0.376346
0.0214591
0.0215232
3.44627
3.33421
0.0337259
0.0234721
2.46129
2.03303
0.0212513
0.0214344
0.0212019
1.10799
0.0207099
0.0209442
0.0318715
0.0496938
0.0198224
0.020612
0.0222222
4.07425
0.0205034
0.02385
0.0198215
0.107245
0.0218687
0.86065
0.0218352
0.020647
0.0213346
0.0202795
0.645005
0.0345665
1.4617
0.0213256
0.0282793
0.0202061
0.22651
0.138099
0.0445452
0.0207947
0.0539135
0.0208826
0.0215866
3.45156
0.0210738
0.0242128
0.42176
0.0201507
0.0973387
0.0207594
0.0198313
0.021548
0.132427
0.0207966
4.08139
0.0948126
0.0525518
0.304928
0.0207093
0.179087
0.0555655
3.60707
0.0349405
3.0591
0.183997
0.0215685
0.0355094
0.0217037
0.0295692
0.0209276
0.0227457
0.0212029
0.0257083
0.115942
4.13773
0.0237733
0.0230356
0.573398
0.411517
0.0211985
0.0214541
0.153364
0.0341688
0.020442
0.321985
0.0355416
0.0221482
0.0203905
0.0224192
0.494665
0.0216191
0.0506154
0.0195893
0.210359
3.59872
0.0831514
0.0221671
0.0214799
0.0211408
0.0212721
0.0214419
0.0247265
0.0222876
0.0215558
3.65461
0.0208334
0.0214946
0.021059
0.30704
3.7743
0.0212448
0.0213198
2.3806
0.0204826
4.22078
0.0215188
0.0213552
0.0197175
0.0216259
0.0205946
0.0227018
0.0202441
0.143553
0.0218336
0.479345
0.0213526
0.173834
0.0214657
0.0244578
0.198756
0.194908
0.0212391
0.0214437
0.0331481
0.0197197
0.46692
0.399661
0.0224545
0.0207562
0.0212323
0.0203367
0.0489534
0.0805349
0.0410093
0.422968
0.039615
0.0214099
0.0211823
0.0205271
0.334172
3.15002
0.0219512
0.0211274
0.0208129
0.0270253
0.0213782
2.98486
2.47464
0.0303744
0.0202719
2.91717
0.110886
0.0214415
0.348019
0.0215848
0.421843
0.0318762
0.0320449
0.0267133
0.838821
0.0315411
3.62646
0.0208639
0.0205237
0.020697
0.0203214
0.0215042
0.0280895
0.0205331
0.0255203
0.0200033
0.256639
0.02098
0.0296537
2.13409
0.0221006
0.0198038
0.0295616
4.16713
0.0212458
0.0206018
0.187818
4.06572
2.57232
0.021635
0.0197269
3.04026
0.110846
0.0239669
0.0467849
0.0213759
0.0326947
0.0214854
0.113272
0.0206642
0.0209533
0.415932
0.0204209
0.0227156
3.46373
0.0529055
0.0206368
0.02173
0.0207476
2.25064
0.0242917
0.0259994
0.0214247
0.0207817
0.107512
0.0291762
0.0211495
0.0212935
0.0197261
0.0227012
0.0206541
0.0226475
0.199264
2.8396
0.023114
0.0371668
0.0208126
0.0451636
0.0212172
0.0215139
0.0207652
0.254126
0.0415815
0.020023
0.022678
0.79686
0.0350741
3.76383
0.0449753
0.0212943
0.0207742
0.0274689
0.0224179
3.97394
0.0205219
3.60007
4.07077
0.0208988
0.0357581
3.40785
0.0254238
0.385651
0.0964409
0.0216285
4.02563
0.0255527
0.0204327
3.5637
2.97077
0.0848661
0.0217096
3.26357
2.79179
0.0213397
0.171721
3.31662
0.0213791
0.0207089
0.0218244
0.0200269
0.0215421
0.579416
4.10683
0.0214222
0.0231665
2.50237
3.4995
0.0332825
0.047725
0.0210714
0.0263546
4.0023
0.0557593
3.29487
3.93107
0.0212539
0.0214301
0.0210446
0.0218863
3.98124
3.22877
0.0210362
0.0337757
2.89702
0.10543
0.053893
0.0211307
0.0214758
0.0219486
0.3246
0.02217
0.0338842
0.0305356
0.0220274
0.412583
0.0233587
0.0536914
0.127094
3.72571
0.0212147
0.0211963
0.0224896
0.0338928
0.222947
2.35752
0.0218779
2.08414
4.04979
0.0331617
0.0307952
3.62008
0.312261
0.309309
2.96906
0.0213265
0.252552
1.16006
0.0286045
0.0277075
0.113958
0.0224102
0.103922
0.0232797
0.0208567
0.0199836
0.0215636
0.0208779
0.205736
0.04979