/*--------------------------------*- C++ -*----------------------------------*\
| =========                 |                                                 |
| \\      /  F ield         | OpenFOAM: The Open Source CFD Toolbox           |
|  \\    /   O peration     | Version:  v2012                                 |
|   \\  /    A nd           | Website:  www.openfoam.com                      |
|    \\/     M anipulation  |                                                 |
\*---------------------------------------------------------------------------*/
FoamFile
{
    version     2.0;
    format      ascii;
    class       pointVectorField;
    location    "1000";
    object      pointDisplacement;
}
// * * * * * * * * * * * * * * * * * * * * * * * * * * * * * * * * * * * * * //

dimensions      [0 1 0 0 0 0 0];


internalField   nonuniform List<vector> 
10400
(
(0 0 0)
(0 0 0)
(0 0 0)
(0 0 0)
(0 0 0)
(0 0 0)
(0 0 0)
(0 0 0)
(0 0 0)
(0 0 0)
(0 0 0)
(0 0 0)
(0 0 0)
(0 0 0)
(0 0 0)
(0 0 0)
(0 0 0)
(0 0 0)
(0 0 0)
(0 0 0)
(0 0 0)
(0 0 0)
(0 0 0)
(0 0 0)
(0 0 0)
(0 0 0)
(0 0 0)
(0 0 0)
(0 0 0)
(0 0 0)
(0 0 0)
(0 0 0)
(0 0 0)
(0 0 0)
(0 0 0)
(0 0 0)
(0 0 0)
(0 0 0)
(0 0 0)
(0 0 0)
(0 0 0)
(0 0 0)
(0 0 0)
(0 0 0)
(0 0 0)
(0 0 0)
(0 0 0)
(0 0 0)
(0 0 0)
(0 0 0)
(0 0 0)
(0 0 0)
(0 0 0)
(0 0 0)
(0 0 0)
(0 0 0)
(0 0 0)
(0 0 0)
(0 0 0)
(0 0 0)
(0 0 0)
(0 0 0)
(0 0 0)
(0 0 0)
(0 0 0)
(0 0 0)
(0 0 0)
(0 0 0)
(0 0 0)
(0 0 0)
(0 0 0)
(0 0 0)
(0 0 0)
(0 0 0)
(0 0 0)
(0 0 0)
(0 0 0)
(0 0 0)
(0 0 0)
(0 0 0)
(0 0 0)
(0 0 0)
(0 0 0)
(0 0 0)
(0 0 0)
(0 0 0)
(0 0 0)
(0 0 0)
(0 0 0)
(0 0 0)
(0 0 0)
(0 0 0)
(0 0 0)
(0 0 0)
(0 0 0)
(0 0 0)
(0 0 0)
(0 0 0)
(0 0 0)
(0 0 0)
(0 0 0)
(0 0 0)
(0 0 0)
(0 0 0)
(0 0 0)
(0 0 0)
(0 0 0)
(0 0 0)
(0 0 0)
(0 0 0)
(0 0 0)
(0 0 0)
(0 0 0)
(0 0 0)
(0 0 0)
(0 0 0)
(0 0 0)
(0 0 0)
(0 0 0)
(0 0 0)
(0 0 0)
(0 0 0)
(0 0 0)
(0 0 0)
(0 0 0)
(0 0 0)
(0 0 0)
(0 0 0)
(0 0 0)
(0 0 0)
(0 0 0)
(0 0 0)
(0 0 0)
(0 0 0)
(0 0 0)
(0 0 0)
(0 0 0)
(0 0 0)
(0 0 0)
(0 0 0)
(0 0 0)
(0 0 0)
(0 0 0)
(0 0 0)
(0 0 0)
(0 0 0)
(0 0 0)
(0 0 0)
(0 0 0)
(0 0 0)
(0 0 0)
(0 0 0)
(0 0 0)
(0 0 0)
(0 0 0)
(0 0 0)
(0 0 0)
(0 0 0)
(0 0 0)
(0 0 0)
(0 0 0)
(0 0 0)
(0 0 0)
(0 0 0)
(0 0 0)
(0 0 0)
(0 0 0)
(0 0 0)
(0 0 0)
(0 0 0)
(0 0 0)
(0 0 0)
(0 0 0)
(0 0 0)
(0 0 0)
(0 0 0)
(0 0 0)
(0 0 0)
(0 0 0)
(0 0 0)
(0 0 0)
(0 0 0)
(0 0 0)
(0 0 0)
(0 0 0)
(0 0 0)
(0 0 0)
(0 0 0)
(0 0 0)
(0 0 0)
(0 0 0)
(0 0 0)
(0 0 0)
(0 0 0)
(0 0 0)
(0 0 0)
(0 0 0)
(0 0 0)
(0 0 0)
(0 0 0)
(0 0 0)
(0 0 0)
(0 0 0)
(0 0 0)
(0 0 0)
(0 0 0)
(0 0 0)
(0 0 0)
(0 0 0)
(0 0 0)
(0 0 0)
(0 0 0)
(0 0 0)
(0 0 0)
(0 0 0)
(0 0 0)
(0 0 0)
(0 0 0)
(0 0 0)
(0 0 0)
(0 0 0)
(0 0 0)
(0 0 0)
(0 0 0)
(0 0 0)
(0 0 0)
(0 0 0)
(0 0 0)
(0 0 0)
(0 0 0)
(0 0 0)
(0 0 0)
(0 0 0)
(0 0 0)
(0 0 0)
(0 0 0)
(0 0 0)
(0 0 0)
(0 0 0)
(0 0 0)
(0 0 0)
(0 0 0)
(0 0 0)
(0 0 0)
(0 0 0)
(0 0 0)
(0 0 0)
(0 0 0)
(0 0 0)
(0 0 0)
(0 0 0)
(0 0 0)
(0 0 0)
(0 0 0)
(0 0 0)
(0 0 0)
(0 0 0)
(0 0 0)
(0 -0.000844726 0)
(0 -0.00106874 0)
(0 -0.000373425 0)
(0 -0.000257972 0)
(0 -0.000497092 0)
(0 -0.000126335 0)
(0 -0.00126357 0)
(0 -0.000599694 0)
(0 -0.000199822 0)
(0 -0.00150539 0)
(0 -0.000135538 0)
(0 -0.00155455 0)
(0 -0.000144952 0)
(0 -0.00011206 0)
(0 -9.5455e-05 0)
(0 -7.83594e-05 0)
(0 -7.45118e-05 0)
(0 -6.55266e-05 0)
(0 -0.000434193 0)
(0 -0.00031791 0)
(0 -4.52947e-05 0)
(0 -4.70311e-05 0)
(0 -0.00123554 0)
(0 -0.00167189 0)
(0 -0.00119455 0)
(0 -0.000979096 0)
(0 -0.000748609 0)
(0 -0.000561154 0)
(0 -0.000166477 0)
(0 -0.000228675 0)
(0 -0.000107591 0)
(0 -0.000129574 0)
(0 -0.000122349 0)
(0 -2.33843e-05 0)
(0 -2.43071e-05 0)
(0 -0.00111031 0)
(0 -0.000893135 0)
(0 -0.00075532 0)
(0 -0.000511773 0)
(0 -0.000445624 0)
(0 -0.000406344 0)
(0 -0.000347424 0)
(0 -0.000293024 0)
(0 -5.42035e-05 0)
(0 -0.000110005 0)
(0 -0.000219872 0)
(0 -0.000127083 0)
(0 -5.62834e-05 0)
(0 -7.23945e-05 0)
(0 -8.62762e-05 0)
(0 -0.000182982 0)
(0 -1.00427e-05 0)
(0 -0.0232419 0)
(0 -0.0230801 0)
(0 -0.0232731 0)
(0 -0.0231081 0)
(0 -0.0232941 0)
(0 -0.0231211 0)
(0 -0.023308 0)
(0 -0.0231348 0)
(0 -0.0233149 0)
(0 -0.0231409 0)
(0 -0.0233111 0)
(0 -0.0231303 0)
(0 -0.0232953 0)
(0 -0.0231134 0)
(0 -0.0232702 0)
(0 -0.023083 0)
(0 -0.0232354 0)
(0 -0.0230395 0)
(0 -0.0231849 0)
(0 -0.0229497 0)
(0 -0.0231263 0)
(0 -0.0229065 0)
(0 -0.023061 0)
(0 -0.0185002 0)
(0 -0.0182601 0)
(0 -0.0179744 0)
(0 -0.0180103 0)
(0 -0.0177225 0)
(0 -0.0174342 0)
(0 -0.0174676 0)
(0 -0.0171771 0)
(0 -0.0168825 0)
(0 -0.0169154 0)
(0 -0.0166221 0)
(0 -0.0165804 0)
(0 -0.0163234 0)
(0 -0.0163591 0)
(0 -0.0160628 0)
(0 -0.0160212 0)
(0 -0.0157633 0)
(0 -0.0154611 0)
(0 -0.0155018 0)
(0 -0.0152019 0)
(0 -0.0151564 0)
(0 -0.0149003 0)
(0 -0.014947 0)
(0 -0.0146418 0)
(0 -0.0145966 0)
(0 -0.0143406 0)
(0 -0.014372 0)
(0 -0.0140798 0)
(0 -0.0140399 0)
(0 -0.0137837 0)
(0 -0.0134887 0)
(0 -0.0135243 0)
(0 -0.0132334 0)
(0 -0.0132027 0)
(0 -0.0129439 0)
(0 -0.0129738 0)
(0 -0.0126865 0)
(0 -0.0126355 0)
(0 -0.0123939 0)
(0 -0.0124335 0)
(0 -0.0121524 0)
(0 -0.0121088 0)
(0 -0.0118724 0)
(0 -0.0228401 0)
(0 -0.0229761 0)
(0 -0.0115915 0)
(0 -0.0116295 0)
(0 -0.0113516 0)
(0 -0.0110693 0)
(0 -0.0111149 0)
(0 -0.0108434 0)
(0 -0.0107947 0)
(0 -0.0105752 0)
(0 -0.0106062 0)
(0 -0.0103449 0)
(0 -0.0103096 0)
(0 -0.0100818 0)
(0 -0.00982292 0)
(0 -0.00982989 0)
(0 -0.00959381 0)
(0 -0.00935018 0)
(0 -0.00935297 0)
(0 -0.00912341 0)
(0 -0.00910247 0)
(0 -0.00889147 0)
(0 -0.00891864 0)
(0 -0.00868455 0)
(0 -0.00864932 0)
(0 -0.00844692 0)
(0 -0.0227486 0)
(0 -0.0228758 0)
(0 -0.00847316 0)
(0 -0.00824182 0)
(0 -0.00821243 0)
(0 -0.00801351 0)
(0 -0.00778568 0)
(0 -0.00781324 0)
(0 -0.00759184 0)
(0 -0.00755448 0)
(0 -0.0073697 0)
(0 -0.0073972 0)
(0 -0.00718349 0)
(0 -0.00714844 0)
(0 -0.0069717 0)
(0 -0.00699447 0)
(0 -0.00678993 0)
(0 -0.00676367 0)
(0 -0.00658675 0)
(0 -0.00638491 0)
(0 -0.00640926 0)
(0 -0.00621239 0)
(0 -0.00601775 0)
(0 -0.00603901 0)
(0 -0.00585011 0)
(0 -0.00582456 0)
(0 -0.0226249 0)
(0 -0.0227555 0)
(0 -0.00586515 0)
(0 -0.00568196 0)
(0 -0.00569063 0)
(0 -0.00551333 0)
(0 -0.0224922 0)
(0 -0.0226221 0)
(0 -0.0228808 0)
(0 -0.0227442 0)
(0 -0.0229978 0)
(0 -0.02286 0)
(0 -0.023107 0)
(0 -0.0229619 0)
(0 -0.0232022 0)
(0 -0.0230206 0)
(0 -0.0232885 0)
(0 -0.0231443 0)
(0 -0.0233728 0)
(0 -0.0232227 0)
(0 -0.023442 0)
(0 -0.0232933 0)
(0 -0.0235024 0)
(0 -0.0233454 0)
(0 -0.0235573 0)
(0 -0.0233746 0)
(0 -0.0236007 0)
(0 -0.0234071 0)
(0 -0.0236362 0)
(0 -0.0234466 0)
(0 -0.0236643 0)
(0 -0.0234649 0)
(0 -0.0236811 0)
(0 -0.00551648 0)
(0 -0.023485 0)
(0 -0.0236919 0)
(0 -0.00534518 0)
(0 -0.0235007 0)
(0 -0.0236933 0)
(0 -0.0234945 0)
(0 -0.0236862 0)
(0 -0.00534351 0)
(0 -0.0223517 0)
(0 -0.0235827 0)
(0 -0.0229979 0)
(0 -0.00517689 0)
(0 -0.00517088 0)
(0 -0.00500745 0)
(0 -0.00499813 0)
(0 -0.00515596 0)
(0 -0.0232248 0)
(0 -0.00497966 0)
(0 -0.00513304 0)
(0 -0.0048254 0)
(0 -0.00480337 0)
(0 -0.00465392 0)
(0 -0.0238388 0)
(0 -0.00462817 0)
(0 -0.00448278 0)
(0 -0.00445427 0)
(0 -0.00500705 0)
(0 -0.00431261 0)
(0 -0.00428147 0)
(0 -0.022218 0)
(0 -0.0220671 0)
(0 -0.0219293 0)
(0 -0.0217663 0)
(0 -0.0216273 0)
(0 -0.0214528 0)
(0 -0.0213215 0)
(0 -0.0211277 0)
(0 -0.0209939 0)
(0 -0.0207871 0)
(0 -0.0206412 0)
(0 -0.0204333 0)
(0 -0.0202994 0)
(0 -0.020066 0)
(0 -0.0199291 0)
(0 -0.0041443 0)
(0 -0.00410982 0)
(0 -0.00423917 0)
(0 -0.0196823 0)
(0 -0.0195222 0)
(0 -0.0198239 0)
(0 -0.00406477 0)
(0 -0.00418911 0)
(0 -0.00394021 0)
(0 -0.019289 0)
(0 -0.0191348 0)
(0 -0.00389236 0)
(0 -0.00377251 0)
(0 -0.00372212 0)
(0 -0.0188881 0)
(0 -0.0187396 0)
(0 -0.00360663 0)
(0 -0.00355401 0)
(0 -0.0184779 0)
(0 -0.0183347 0)
(0 -0.00344268 0)
(0 -0.00338795 0)
(0 -0.0180533 0)
(0 -0.0179158 0)
(0 -0.00328079 0)
(0 -0.00333071 0)
(0 -0.00322414 0)
(0 -0.00332633 0)
(0 -0.0234423 0)
(0 -0.0176168 0)
(0 -0.0174863 0)
(0 -0.0177537 0)
(0 -0.00316095 0)
(0 -0.00325783 0)
(0 -0.00306258 0)
(0 -0.0171703 0)
(0 -0.0170463 0)
(0 -0.00299814 0)
(0 -0.00290289 0)
(0 -0.0167151 0)
(0 -0.0165936 0)
(0 -0.0028381 0)
(0 -0.0162493 0)
(0 -0.0161296 0)
(0 -0.00274589 0)
(0 -0.0229027 0)
(0 -0.00268124 0)
(0 -0.0157718 0)
(0 -0.0156571 0)
(0 -0.00259409 0)
(0 -0.00252778 0)
(0 -0.015995 0)
(0 -0.0155285 0)
(0 -0.0151789 0)
(0 -0.0150618 0)
(0 -0.0153874 0)
(0 -0.0149319 0)
(0 -0.0145898 0)
(0 -0.0144768 0)
(0 -0.0148072 0)
(0 -0.0143576 0)
(0 -0.0140216 0)
(0 -0.0139001 0)
(0 -0.0142325 0)
(0 -0.0137752 0)
(0 -0.0187844 0)
(0 -0.00244549 0)
(0 -0.00237819 0)
(0 -0.00245471 0)
(0 -0.0134374 0)
(0 -0.0133094 0)
(0 -0.0136515 0)
(0 -0.0131785 0)
(0 -0.0128393 0)
(0 -0.0127297 0)
(0 -0.0130541 0)
(0 -0.0126155 0)
(0 -0.0122665 0)
(0 -0.0121625 0)
(0 -0.012495 0)
(0 -0.0120503 0)
(0 -0.0238797 0)
(0 -0.0123672 0)
(0 -0.0119293 0)
(0 -0.011613 0)
(0 -0.0114913 0)
(0 -0.0204992 0)
(0 -0.00230521 0)
(0 -0.00237591 0)
(0 -0.00223261 0)
(0 -0.0118046 0)
(0 -0.0113716 0)
(0 -0.0109988 0)
(0 -0.010946 0)
(0 -0.0112589 0)
(0 -0.0108393 0)
(0 -0.0105228 0)
(0 -0.0104043 0)
(0 -0.0107257 0)
(0 -0.0103093 0)
(0 -0.0177696 0)
(0 -0.00997008 0)
(0 -0.00989644 0)
(0 -0.0102026 0)
(0 -0.00979996 0)
(0 -0.00948997 0)
(0 -0.00940267 0)
(0 -0.00969098 0)
(0 -0.00930226 0)
(0 -0.00415962 0)
(0 -0.0158795 0)
(0 -0.00250581 0)
(0 -0.009009 0)
(0 -0.00891829 0)
(0 -0.00919648 0)
(0 -0.00882052 0)
(0 -0.00908469 0)
(0 -0.00871591 0)
(0 -0.00844519 0)
(0 -0.0083509 0)
(0 -0.00860755 0)
(0 -0.00825118 0)
(0 -0.00799487 0)
(0 -0.00790463 0)
(0 -0.00215962 0)
(0 -0.00209062 0)
(0 -0.00814805 0)
(0 -0.00780293 0)
(0 -0.00753829 0)
(0 -0.00746616 0)
(0 -0.00770342 0)
(0 -0.00736987 0)
(0 -0.00710432 0)
(0 -0.00703824 0)
(0 -0.00727517 0)
(0 -0.00695168 0)
(0 -0.00667257 0)
(0 -0.00663369 0)
(0 -0.00686532 0)
(0 -0.00655533 0)
(0 -0.00629197 0)
(0 -0.00625337 0)
(0 -0.00647206 0)
(0 -0.0061774 0)
(0 -0.00596107 0)
(0 -0.00588744 0)
(0 -0.00201775 0)
(0 -0.00638158 0)
(0 -0.00195204 0)
(0 -0.00566602 0)
(0 -0.00560122 0)
(0 -0.00187942 0)
(0 -0.0053786 0)
(0 -0.00532052 0)
(0 -0.00181696 0)
(0 -0.00174472 0)
(0 -0.00180316 0)
(0 -0.00509807 0)
(0 -0.00504625 0)
(0 -0.00525724 0)
(0 -0.00499007 0)
(0 -0.00514964 0)
(0 -0.00477799 0)
(0 -0.00472791 0)
(0 -0.00168493 0)
(0 -0.0017545 0)
(0 -0.00161377 0)
(0 -0.00451518 0)
(0 -0.00447128 0)
(0 -0.00493075 0)
(0 -0.00155543 0)
(0 -0.00148673 0)
(0 -0.00425864 0)
(0 -0.00422133 0)
(0 -0.00400868 0)
(0 -0.00397788 0)
(0 -0.00142956 0)
(0 -0.00136396 0)
(0 -0.00376551 0)
(0 -0.00374095 0)
(0 -0.00394203 0)
(0 -0.00371066 0)
(0 -0.00351138 0)
(0 -0.00348526 0)
(0 -0.00378461 0)
(0 -0.00130869 0)
(0 -0.00124553 0)
(0 -0.00129483 0)
(0 -0.00367547 0)
(0 -0.00345497 0)
(0 -0.0032653 0)
(0 -0.00324051 0)
(0 -0.00117849 0)
(0 -0.00122153 0)
(0 -0.0229912 0)
(0 -0.0212597 0)
(0 -0.00305107 0)
(0 -0.00303227 0)
(0 -0.00195011 0)
(0 -0.00208393 0)
(0 -0.00196866 0)
(0 -0.00210116 0)
(0 -0.00198347 0)
(0 -0.00211432 0)
(0 -0.00199447 0)
(0 -0.00119245 0)
(0 -0.00124958 0)
(0 -0.00363608 0)
(0 -0.0233045 0)
(0 -0.00186524 0)
(0 -0.00187423 0)
(0 -0.00284377 0)
(0 -0.00283054 0)
(0 -0.00212346 0)
(0 -0.0234663 0)
(0 -0.00110758 0)
(0 -0.00114391 0)
(0 -0.00224519 0)
(0 -0.00264523 0)
(0 -0.00263612 0)
(0 -0.00174639 0)
(0 -0.00175361 0)
(0 -0.00113544 0)
(0 -0.00118686 0)
(0 -0.00225216 0)
(0 -0.00237606 0)
(0 -0.00264776 0)
(0 -0.0175448 0)
(0 -0.0182003 0)
(0 -0.0177457 0)
(0 -0.0170627 0)
(0 -0.0172707 0)
(0 -0.0179348 0)
(0 -0.0174631 0)
(0 -0.0181072 0)
(0 -0.0176347 0)
(0 -0.0182599 0)
(0 -0.0177877 0)
(0 -0.0171421 0)
(0 -0.017292 0)
(0 -0.017924 0)
(0 -0.0174294 0)
(0 -0.0167735 0)
(0 -0.0169148 0)
(0 -0.018043 0)
(0 -0.0162364 0)
(0 -0.0163815 0)
(0 -0.0156783 0)
(0 -0.0158324 0)
(0 -0.015102 0)
(0 -0.015267 0)
(0 -0.0159736 0)
(0 -0.0154116 0)
(0 -0.0160934 0)
(0 -0.0155353 0)
(0 -0.0148306 0)
(0 -0.0149626 0)
(0 -0.0149204 0)
(0 -0.0142338 0)
(0 -0.0143754 0)
(0 -0.0161909 0)
(0 -0.013622 0)
(0 -0.0137738 0)
(0 -0.0129973 0)
(0 -0.0131595 0)
(0 -0.0128202 0)
(0 -0.0139075 0)
(0 -0.0132982 0)
(0 -0.0125346 0)
(0 -0.0126748 0)
(0 -0.00281189 0)
(0 -0.00262128 0)
(0 -0.00244893 0)
(0 -0.00243731 0)
(0 -0.00103272 0)
(0 -0.00106183 0)
(0 -0.00226629 0)
(0 -0.00225963 0)
(0 -0.00162708 0)
(0 -0.00163277 0)
(0 -0.0118978 0)
(0 -0.0120506 0)
(0 -0.0193364 0)
(0 -0.0058684 0)
(0 -0.00107444 0)
(0 -0.00112048 0)
(0 -0.0226638 0)
(0 -0.00260248 0)
(0 -0.00209062 0)
(0 -0.00208834 0)
(0 -0.00238063 0)
(0 -0.00250701 0)
(0 -0.0231513 0)
(0 -0.0233111 0)
(0 -0.0140175 0)
(0 -0.0112545 0)
(0 -0.0114268 0)
(0 -0.000952311 0)
(0 -0.000926527 0)
(0 -0.000971985 0)
(0 -0.00108599 0)
(0 -0.00150735 0)
(0 -0.0015119 0)
(0 -0.00163517 0)
(0 -0.00151352 0)
(0 -0.0016341 0)
(0 -0.00151161 0)
(0 -0.00162925 0)
(0 -0.00150589 0)
(0 -0.00162056 0)
(0 -0.00149672 0)
(0 -0.00192355 0)
(0 -0.00192391 0)
(0 -0.0121783 0)
(0 -0.0115686 0)
(0 -0.0108051 0)
(0 -0.0109694 0)
(0 -0.00138335 0)
(0 -0.00137412 0)
(0 -0.00100936 0)
(0 -0.00105022 0)
(0 -0.00192523 0)
(0 -0.0233387 0)
(0 -0.0165598 0)
(0 -0.00139101 0)
(0 -0.0116936 0)
(0 -0.0111149 0)
(0 -0.010356 0)
(0 -0.0105077 0)
(0 -0.0112717 0)
(0 -0.0106175 0)
(0 -0.00988036 0)
(0 -0.0100209 0)
(0 -0.0107482 0)
(0 -0.0101433 0)
(0 -0.00942087 0)
(0 -0.00958217 0)
(0 -0.000989562 0)
(0 -0.00110664 0)
(0 -0.00084911 0)
(0 -0.000825718 0)
(0 -0.0103471 0)
(0 -0.00970572 0)
(0 -0.00899639 0)
(0 -0.00913753 0)
(0 -0.00250897 0)
(0 -0.00263775 0)
(0 -0.00176092 0)
(0 -0.00176508 0)
(0 -0.00160802 0)
(0 -0.00984301 0)
(0 -0.00927317 0)
(0 -0.00856382 0)
(0 -0.00870033 0)
(0 -0.00207996 0)
(0 -0.00938262 0)
(0 -0.00882334 0)
(0 -0.00814359 0)
(0 -0.00827922 0)
(0 -0.00126185 0)
(0 -0.00125282 0)
(0 -0.00100714 0)
(0 -0.00759292 0)
(0 -0.00774137 0)
(0 -0.0083988 0)
(0 -0.00787199 0)
(0 -0.00850174 0)
(0 -0.00798561 0)
(0 -0.00735397 0)
(0 -0.00747928 0)
(0 -0.00808353 0)
(0 -0.00758552 0)
(0 -0.00698084 0)
(0 -0.00709674 0)
(0 -0.00767791 0)
(0 -0.00719803 0)
(0 -0.00661477 0)
(0 -0.0067267 0)
(0 -0.00116427 0)
(0 -0.0214768 0)
(0 -0.00728809 0)
(0 -0.00682464 0)
(0 -0.00626237 0)
(0 -0.00637082 0)
(0 -0.0016043 0)
(0 -0.00094028 0)
(0 -0.000902011 0)
(0 -0.000976014 0)
(0 -0.000752371 0)
(0 -0.000730233 0)
(0 -0.00691105 0)
(0 -0.00646746 0)
(0 -0.00592592 0)
(0 -0.00603251 0)
(0 -0.00549033 0)
(0 -0.00560644 0)
(0 -0.00612549 0)
(0 -0.00570807 0)
(0 -0.025072 0)
(0 -0.0251468 0)
(0 -0.0250377 0)
(0 -0.0251138 0)
(0 -0.0250092 0)
(0 -0.0250823 0)
(0 -0.0249799 0)
(0 -0.025048 0)
(0 -0.0249426 0)
(0 -0.0250074 0)
(0 -0.0248806 0)
(0 -0.0249591 0)
(0 -0.0248425 0)
(0 -0.0249055 0)
(0 -0.0247857 0)
(0 -0.0248444 0)
(0 -0.0249594 0)
(0 -0.0248979 0)
(0 -0.0250074 0)
(0 -0.0249464 0)
(0 -0.0250483 0)
(0 -0.024985 0)
(0 -0.0250843 0)
(0 -0.0250154 0)
(0 -0.0251131 0)
(0 -0.025041 0)
(0 -0.0251341 0)
(0 -0.0250605 0)
(0 -0.0251501 0)
(0 -0.0250746 0)
(0 -0.0251618 0)
(0 -0.0250838 0)
(0 -0.0249929 0)
(0 -0.0249999 0)
(0 -0.025088 0)
(0 -0.0249087 0)
(0 -0.0249055 0)
(0 -0.0250018 0)
(0 -0.0250877 0)
(0 -0.0247798 0)
(0 -0.0249989 0)
(0 -0.0250845 0)
(0 -0.0249902 0)
(0 -0.0250719 0)
(0 -0.0249064 0)
(0 -0.0251723 0)
(0 -0.0249758 0)
(0 -0.0250537 0)
(0 -0.0248643 0)
(0 -0.00620423 0)
(0 -0.00579532 0)
(0 -0.00530106 0)
(0 -0.00539664 0)
(0 -0.00586909 0)
(0 -0.00547838 0)
(0 -0.0050087 0)
(0 -0.00509787 0)
(0 -0.00554846 0)
(0 -0.00517551 0)
(0 -0.00472612 0)
(0 -0.00481177 0)
(0 -0.0187254 0)
(0 -0.0052419 0)
(0 -0.00488536 0)
(0 -0.00445767 0)
(0 -0.0045392 0)
(0 -0.00411403 0)
(0 -0.00420347 0)
(0 -0.00460966 0)
(0 -0.00428102 0)
(0 -0.00112366 0)
(0 -0.00100418 0)
(0 -0.00387746 0)
(0 -0.0039611 0)
(0 -0.00434696 0)
(0 -0.00403315 0)
(0 -0.00173364 0)
(0 -0.00171756 0)
(0 -0.00184507 0)
(0 -0.0252336 0)
(0 -0.00365088 0)
(0 -0.0037291 0)
(0 -0.00263699 0)
(0 -0.00276807 0)
(0 -0.00276645 0)
(0 -0.00289921 0)
(0 -0.00289431 0)
(0 -0.00303023 0)
(0 -0.00302226 0)
(0 -0.00316142 0)
(0 -0.0031501 0)
(0 -0.00329228 0)
(0 -0.00327708 0)
(0 -0.00342264 0)
(0 -0.00340345 0)
(0 -0.00355249 0)
(0 -0.00352907 0)
(0 -0.00368146 0)
(0 -0.00381005 0)
(0 -0.0110608 0)
(0 -0.000661008 0)
(0 -0.000640076 0)
(0 -0.024958 0)
(0 -0.000892303 0)
(0 -0.00114156 0)
(0 -0.00182543 0)
(0 -0.00195472 0)
(0 -0.0251887 0)
(0 -0.00113297 0)
(0 -0.000834114 0)
(0 -0.000798527 0)
(0 -0.025105 0)
(0 -0.00335048 0)
(0 -0.00343494 0)
(0 -0.0247203 0)
(0 -0.0227166 0)
(0 -0.0033016 0)
(0 -0.00161242 0)
(0 -0.00145446 0)
(0 -0.00143815 0)
(0 -0.000575524 0)
(0 -0.000555352 0)
(0 -0.0016977 0)
(0 -0.00129256 0)
(0 -0.000588395 0)
(0 -0.00440187 0)
(0 -0.00276473 0)
(0 -0.00396921 0)
(0 -0.00306034 0)
(0 -0.0031508 0)
(0 -0.0035089 0)
(0 -0.00323021 0)
(0 -0.00287669 0)
(0 -0.00296117 0)
(0 -0.00329899 0)
(0 -0.00303659 0)
(0 -0.00270163 0)
(0 -0.00278178 0)
(0 -0.000731617 0)
(0 -0.000699031 0)
(0 -0.00102244 0)
(0 -0.00102774 0)
(0 -0.00101468 0)
(0 -0.00193135 0)
(0 -0.00206262 0)
(0 -0.0252057 0)
(0 -0.000494924 0)
(0 -0.000475903 0)
(0 -0.00131232 0)
(0 -0.0167322 0)
(0 -0.0168082 0)
(0 -0.0173361 0)
(0 -0.0173882 0)
(0 -0.0179026 0)
(0 -0.0179247 0)
(0 -0.0184163 0)
(0 -0.0184255 0)
(0 -0.018886 0)
(0 -0.0179474 0)
(0 -0.0189024 0)
(0 -0.0193356 0)
(0 -0.0193315 0)
(0 -0.0197527 0)
(0 -0.0197584 0)
(0 -0.0201548 0)
(0 -0.020164 0)
(0 -0.0205416 0)
(0 -0.0205519 0)
(0 -0.0197516 0)
(0 -0.0209138 0)
(0 -0.0209259 0)
(0 -0.0208942 0)
(0 -0.00245148 0)
(0 -0.00253768 0)
(0 -0.00295852 0)
(0 -0.00126772 0)
(0 -0.00112153 0)
(0 -0.0010042 0)
(0 -0.000898085 0)
(0 -0.000888767 0)
(0 -0.00115725 0)
(0 -0.000632963 0)
(0 -0.000603799 0)
(0 -0.000660189 0)
(0 -0.0212481 0)
(0 -0.0212181 0)
(0 -0.0143173 0)
(0 -0.0141041 0)
(0 -0.0134736 0)
(0 -0.0132271 0)
(0 -0.012568 0)
(0 -0.012285 0)
(0 -0.0115971 0)
(0 -0.0112788 0)
(0 -0.0119788 0)
(0 -0.0109381 0)
(0 -0.0116528 0)
(0 -0.0105604 0)
(0 -0.0105641 0)
(0 -0.0112954 0)
(0 -0.0101718 0)
(0 -0.0110395 0)
(0 -0.00974765 0)
(0 -0.0104922 0)
(0 -0.0205517 0)
(0 -0.0209223 0)
(0 -0.000419716 0)
(0 -0.000401956 0)
(0 -0.00122611 0)
(0 -0.00125004 0)
(0 -0.00336289 0)
(0 -0.000451442 0)
(0 -0.000378772 0)
(0 -0.0205361 0)
(0 -0.0209013 0)
(0 -0.0212736 0)
(0 -0.0212449 0)
(0 -0.00221166 0)
(0 -0.00230416 0)
(0 -0.00926384 0)
(0 -0.0100215 0)
(0 -0.0111783 0)
(0 -0.0107584 0)
(0 -0.00033369 0)
(0 -0.0208651 0)
(0 -0.0212134 0)
(0 -0.00117695 0)
(0 -0.00940865 0)
(0 -0.0095498 0)
(0 -0.00135047 0)
(0 -0.00137871 0)
(0 -0.0014793 0)
(0 -0.00203521 0)
(0 -0.00216859 0)
(0 -0.000943217 0)
(0 -0.000421649 0)
(0 -0.000350153 0)
(0 -0.000386532 0)
(0 -0.0215689 0)
(0 -0.0215408 0)
(0 -0.0211726 0)
(0 -0.021501 0)
(0 -0.0211164 0)
(0 -0.0214483 0)
(0 -0.0210555 0)
(0 -0.0213861 0)
(0 -0.0209921 0)
(0 -0.0213136 0)
(0 -0.0028843 0)
(0 -0.00102665 0)
(0 -0.00263095 0)
(0 -0.00239428 0)
(0 -0.00207748 0)
(0 -0.00216113 0)
(0 -0.00246781 0)
(0 -0.00223379 0)
(0 -0.00194525 0)
(0 -0.00202076 0)
(0 -0.00229388 0)
(0 -0.00208725 0)
(0 -0.00182025 0)
(0 -0.00189036 0)
(0 -0.00150815 0)
(0 -0.00161292 0)
(0 -0.000783455 0)
(0 -0.000774368 0)
(0 -0.0254573 0)
(0 -0.00263132 0)
(0 -0.00275594 0)
(0 -0.00162908 0)
(0 -0.00170211 0)
(0 -0.0108945 0)
(0 -0.00982531 0)
(0 -0.0101753 0)
(0 -0.00907384 0)
(0 -0.00944018 0)
(0 -0.00830915 0)
(0 -0.00868969 0)
(0 -0.00792388 0)
(0 -0.00225487 0)
(0 -0.00163977 0)
(0 -0.00175108 0)
(0 -0.00161797 0)
(0 -0.00211357 0)
(0 -0.000795733 0)
(0 -0.0011068 0)
(0 -0.00104681 0)
(0 -0.000538444 0)
(0 -0.0124267 0)
(0 -0.0209115 0)
(0 -0.0215545 0)
(0 -0.0215146 0)
(0 -0.0211798 0)
(0 -0.021467 0)
(0 -0.0211311 0)
(0 -0.00089978 0)
(0 -0.000920528 0)
(0 -0.00177555 0)
(0 -0.00189424 0)
(0 -0.00753557 0)
(0 -0.00792077 0)
(0 -0.0218149 0)
(0 -0.000826758 0)
(0 -0.000961091 0)
(0 -0.000843653 0)
(0 -0.00208546 0)
(0 -0.0254131 0)
(0 -0.0254701 0)
(0 -0.000977261 0)
(0 -0.000858937 0)
(0 -0.000664272 0)
(0 -0.00144681 0)
(0 -0.00152248 0)
(0 -0.0214105 0)
(0 -0.0210709 0)
(0 -0.0237646 0)
(0 -0.0231191 0)
(0 -0.0238768 0)
(0 -0.00077904 0)
(0 -0.000802915 0)
(0 -0.025105 0)
(0 -0.0254264 0)
(0 -0.0254832 0)
(0 -0.0254363 0)
(0 -0.0254951 0)
(0 -0.0254427 0)
(0 -0.0255008 0)
(0 -0.000882556 0)
(0 -0.000316078 0)
(0 -0.000346014 0)
(0 -0.023446 0)
(0 -0.0184661 0)
(0 -0.0234777 0)
(0 -0.0185154 0)
(0 -0.0218776 0)
(0 -0.0218957 0)
(0 -0.0146083 0)
(0 -0.0146862 0)
(0 -0.00902414 0)
(0 -0.00176649 0)
(0 -0.00158979 0)
(0 -0.00135122 0)
(0 -0.00142139 0)
(0 -0.0233857 0)
(0 -0.00662195 0)
(0 -0.00262011 0)
(0 -0.00274144 0)
(0 -0.00288025 0)
(0 -0.00286256 0)
(0 -0.00300445 0)
(0 -0.00272135 0)
(0 -0.00284047 0)
(0 -0.0168734 0)
(0 -0.0186186 0)
(0 -0.00370329 0)
(0 -0.00186072 0)
(0 -0.00471812 0)
(0 -0.00475636 0)
(0 -0.00507424 0)
(0 -0.0050961 0)
(0 -0.00478529 0)
(0 -0.00541514 0)
(0 -0.00510906 0)
(0 -0.00480529 0)
(0 -0.00540051 0)
(0 -0.00574195 0)
(0 -0.00573495 0)
(0 -0.00221836 0)
(0 -0.00945616 0)
(0 -0.00667385 0)
(0 -0.00657233 0)
(0 -0.00686251 0)
(0 -0.00675013 0)
(0 -0.0070379 0)
(0 -0.00691465 0)
(0 -0.00719817 0)
(0 -0.00706524 0)
(0 -0.00734396 0)
(0 -0.00720154 0)
(0 -0.00693035 0)
(0 -0.00705704 0)
(0 -0.00679318 0)
(0 -0.00747503 0)
(0 -0.00691096 0)
(0 -0.00665405 0)
(0 -0.00762432 0)
(0 -0.00775096 0)
(0 -0.00790742 0)
(0 -0.00676337 0)
(0 -0.00651338 0)
(0 -0.00802987 0)
(0 -0.00819548 0)
(0 -0.00831155 0)
(0 -0.00848667 0)
(0 -0.00813674 0)
(0 -0.00661472 0)
(0 -0.00637132 0)
(0 -0.00859433 0)
(0 -0.00877493 0)
(0 -0.0088775 0)
(0 -0.00906331 0)
(0 -0.0068605 0)
(0 -0.00670427 0)
(0 -0.00916163 0)
(0 -0.00935417 0)
(0 -0.00924761 0)
(0 -0.00954561 0)
(0 -0.00694529 0)
(0 -0.0062661 0)
(0 -0.00613082 0)
(0 -0.0096463 0)
(0 -0.0098452 0)
(0 -0.00973607 0)
(0 -0.0100431 0)
(0 -0.0101463 0)
(0 -0.0103514 0)
(0 -0.00678189 0)
(0 -0.0102401 0)
(0 -0.0105545 0)
(0 -0.0106601 0)
(0 -0.0108685 0)
(0 -0.0107558 0)
(0 -0.0110756 0)
(0 -0.0109516 0)
(0 -0.0112821 0)
(0 -0.0113941 0)
(0 -0.0116151 0)
(0 -0.0114845 0)
(0 -0.0118238 0)
(0 -0.0119443 0)
(0 -0.0121644 0)
(0 -0.0120143 0)
(0 -0.0123762 0)
(0 -0.0125027 0)
(0 -0.0127228 0)
(0 -0.0125623 0)
(0 -0.0129433 0)
(0 -0.0130667 0)
(0 -0.0132943 0)
(0 -0.0131658 0)
(0 -0.0135185 0)
(0 -0.0133785 0)
(0 -0.0137368 0)
(0 -0.013858 0)
(0 -0.0140859 0)
(0 -0.0139464 0)
(0 -0.014315 0)
(0 -0.0144491 0)
(0 -0.0146804 0)
(0 -0.0145386 0)
(0 -0.0149067 0)
(0 -0.0150285 0)
(0 -0.0152673 0)
(0 -0.0151458 0)
(0 -0.0155004 0)
(0 -0.0156263 0)
(0 -0.0158567 0)
(0 -0.015725 0)
(0 -0.0160887 0)
(0 -0.0162205 0)
(0 -0.016452 0)
(0 -0.0163165 0)
(0 -0.0166802 0)
(0 -0.01681 0)
(0 -0.0170386 0)
(0 -0.016906 0)
(0 -0.0172696 0)
(0 -0.0173916 0)
(0 -0.017625 0)
(0 -0.0177359 0)
(0 -0.0179693 0)
(0 -0.0180717 0)
(0 -0.0183071 0)
(0 -0.0181967 0)
(0 -0.0185353 0)
(0 -0.0186375 0)
(0 -0.0188628 0)
(0 -0.0189627 0)
(0 -0.0192166 0)
(0 -0.0192803 0)
(0 -0.0195211 0)
(0 -0.0195803 0)
(0 -0.0198097 0)
(0 -0.0198761 0)
(0 -0.0201273 0)
(0 -0.0201688 0)
(0 -0.0204034 0)
(0 -0.0204454 0)
(0 -0.0206715 0)
(0 -0.0206213 0)
(0 -0.0171296 0)
(0 -0.0197473 0)
(0 -0.0187427 0)
(0 -0.0207096 0)
(0 -0.0209347 0)
(0 -0.006022 0)
(0 -0.00589363 0)
(0 -0.00599473 0)
(0 -0.00576436 0)
(0 -0.00565932 0)
(0 -0.00553686 0)
(0 -0.00542797 0)
(0 -0.00531009 0)
(0 -0.00520007 0)
(0 -0.00508726 0)
(0 -0.0178324 0)
(0 -0.00896802 0)
(0 -0.019037 0)
(0 -0.0209632 0)
(0 -0.00497569 0)
(0 -0.00486899 0)
(0 -0.0211878 0)
(0 -0.0207353 0)
(0 -0.00701781 0)
(0 -0.00585886 0)
(0 -0.0199296 0)
(0 -0.00496119 0)
(0 -0.00475505 0)
(0 -0.0046538 0)
(0 -0.0212083 0)
(0 -0.00684753 0)
(0 -0.00835895 0)
(0 -0.00453793 0)
(0 -0.00444006 0)
(0 -0.021432 0)
(0 -0.0214077 0)
(0 -0.0043239 0)
(0 -0.00423106 0)
(0 -0.00411426 0)
(0 -0.00402665 0)
(0 -0.00390936 0)
(0 -0.00382612 0)
(0 -0.00463213 0)
(0 -0.00370896 0)
(0 -0.00363026 0)
(0 -0.00646884 0)
(0 -0.0214444 0)
(0 -0.00530945 0)
(0 -0.00707813 0)
(0 -0.0037327 0)
(0 -0.0216495 0)
(0 -0.02162 0)
(0 -0.00725538 0)
(0 -0.00351319 0)
(0 -0.00343952 0)
(0 -0.00690116 0)
(0 -0.00667737 0)
(0 -0.00731028 0)
(0 -0.00749417 0)
(0 -0.00433197 0)
(0 -0.0067246 0)
(0 -0.00650715 0)
(0 -0.00332258 0)
(0 -0.00325498 0)
(0 -0.0218595 0)
(0 -0.021824 0)
(0 -0.0215777 0)
(0 -0.0217747 0)
(0 -0.0215206 0)
(0 -0.0217113 0)
(0 -0.0214473 0)
(0 -0.0216317 0)
(0 -0.0213576 0)
(0 -0.0031369 0)
(0 -0.00307608 0)
(0 -0.0029559 0)
(0 -0.00290093 0)
(0 -0.00278088 0)
(0 -0.00273041 0)
(0 -0.00261214 0)
(0 -0.00754328 0)
(0 -0.00773409 0)
(0 -0.00283601 0)
(0 -0.00255608 0)
(0 -0.00654824 0)
(0 -0.0063369 0)
(0 -0.0033845 0)
(0 -0.00777717 0)
(0 -0.00797478 0)
(0 -0.0218817 0)
(0 -0.00715884 0)
(0 -0.0134104 0)
(0 -0.00710834 0)
(0 -0.010967 0)
(0 -0.00924581 0)
(0 -0.00904435 0)
(0 -0.00931516 0)
(0 -0.00910554 0)
(0 -0.00936556 0)
(0 -0.00958481 0)
(0 -0.00962362 0)
(0 -0.00985459 0)
(0 -0.00735295 0)
(0 -0.0107503 0)
(0 -0.0110503 0)
(0 -0.0108243 0)
(0 -0.0111159 0)
(0 -0.0108746 0)
(0 -0.0113492 0)
(0 -0.0114063 0)
(0 -0.0116517 0)
(0 -0.00385662 0)
(0 -0.0128087 0)
(0 -0.00213622 0)
(0 -0.00200299 0)
(0 -0.00227167 0)
(0 -0.0131704 0)
(0 -0.0135042 0)
(0 -0.0132558 0)
(0 -0.0135754 0)
(0 -0.0133243 0)
(0 -0.0136382 0)
(0 -0.0138908 0)
(0 -0.000669038 0)
(0 -0.000655987 0)
(0 -0.000674393 0)
(0 -0.0212166 0)
(0 -0.0214447 0)
(0 -0.0212119 0)
(0 -0.00667856 0)
(0 -0.00709545 0)
(0 -0.00713061 0)
(0 -0.00754569 0)
(0 -0.00756056 0)
(0 -0.00797357 0)
(0 -0.00796789 0)
(0 -0.00910076 0)
(0 -0.00961748 0)
(0 -0.00966811 0)
(0 -0.0101771 0)
(0 -0.0101979 0)
(0 -0.0106993 0)
(0 -0.0106897 0)
(0 -0.0112111 0)
(0 -0.0112071 0)
(0 -0.0014503 0)
(0 -0.00506487 0)
(0 -0.00492436 0)
(0 -0.00449933 0)
(0 -0.00433242 0)
(0 -0.00390911 0)
(0 -0.00371473 0)
(0 -0.00414735 0)
(0 -0.00329493 0)
(0 -0.00349874 0)
(0 -0.00442227 0)
(0 -0.000431637 0)
(0 -0.00149299 0)
(0 -0.00342744 0)
(0 -0.00436832 0)
(0 -0.000360992 0)
(0 -0.000365967 0)
(0 -0.000284209 0)
(0 -0.00704987 0)
(0 -0.00687104 0)
(0 -0.00632116 0)
(0 -0.00610836 0)
(0 -0.00555418 0)
(0 -0.00530408 0)
(0 -0.0058743 0)
(0 -0.0047522 0)
(0 -0.0050131 0)
(0 -0.00503026 0)
(0 -0.00561453 0)
(0 -0.00473143 0)
(0 -0.00533363 0)
(0 -0.00202154 0)
(0 -0.00550759 0)
(0 -0.00154684 0)
(0 -0.003067 0)
(0 -0.00208147 0)
(0 -0.00933195 0)
(0 -0.00969876 0)
(0 -0.00956218 0)
(0 -0.00992328 0)
(0 -0.00977467 0)
(0 -0.0100686 0)
(0 -0.0102875 0)
(0 -0.0104408 0)
(0 -0.00715461 0)
(0 -0.00541641 0)
(0 -0.00549978 0)
(0 -0.00228131 0)
(0 -0.00381394 0)
(0 -0.00383718 0)
(0 -0.0046647 0)
(0 -0.00187945 0)
(0 -0.00970399 0)
(0 -0.0102016 0)
(0 -0.00972582 0)
(0 -0.0102021 0)
(0 -0.00973893 0)
(0 -0.0126637 0)
(0 -0.013097 0)
(0 -0.0129368 0)
(0 -0.0133558 0)
(0 -0.0131872 0)
(0 -0.013596 0)
(0 -0.0137539 0)
(0 -0.00756488 0)
(0 -0.00716797 0)
(0 -0.00401207 0)
(0 -0.00477182 0)
(0 -0.00354227 0)
(0 -0.00354928 0)
(0 -0.00379824 0)
(0 -0.00267311 0)
(0 -0.0025529 0)
(0 -0.00227287 0)
(0 -0.00367187 0)
(0 -0.00354853 0)
(0 -0.00321228 0)
(0 -0.00306689 0)
(0 -0.00273594 0)
(0 -0.00487255 0)
(0 -0.0182967 0)
(0 -0.0185769 0)
(0 -0.00102533 0)
(0 -0.00431304 0)
(0 -0.00449718 0)
(0 -0.0169113 0)
(0 -0.00614911 0)
(0 -0.00192449 0)
(0 -0.0130203 0)
(0 -0.0160777 0)
(0 -0.00942227 0)
(0 -0.00962302 0)
(0 -0.00927896 0)
(0 -0.00341055 0)
(0 -0.00290572 0)
(0 -0.0205682 0)
(0 -0.016755 0)
(0 -0.0169687 0)
(0 -0.0165834 0)
(0 -0.0167864 0)
(0 -0.01639 0)
(0 -0.0165827 0)
(0 -0.0169843 0)
(0 -0.016176 0)
(0 -0.0159883 0)
(0 -0.0167707 0)
(0 -0.017177 0)
(0 -0.0157656 0)
(0 -0.0155824 0)
(0 -0.0127758 0)
(0 -0.0103994 0)
(0 -0.019025 0)
(0 -0.0153828 0)
(0 -0.0154758 0)
(0 -0.014962 0)
(0 -0.0150366 0)
(0 -0.014511 0)
(0 -0.0155572 0)
(0 -0.0150988 0)
(0 -0.0156231 0)
(0 -0.0151476 0)
(0 -0.0156781 0)
(0 -0.0151863 0)
(0 -0.0157235 0)
(0 -0.0146391 0)
(0 -0.0146593 0)
(0 -0.0162003 0)
(0 -0.0162508 0)
(0 -0.0167131 0)
(0 -0.016771 0)
(0 -0.017213 0)
(0 -0.0172776 0)
(0 -0.0177 0)
(0 -0.0168396 0)
(0 -0.000613066 0)
(0 -0.0255078 0)
(0 -0.025533 0)
(0 -0.0254697 0)
(0 -0.0254938 0)
(0 -0.0160907 0)
(0 -0.0163811 0)
(0 -0.0161033 0)
(0 -0.0163879 0)
(0 -0.0160996 0)
(0 -0.016378 0)
(0 -0.0160794 0)
(0 -0.0158077 0)
(0 -0.0163514 0)
(0 -0.0166503 0)
(0 -0.0157761 0)
(0 -0.015519 0)
(0 -0.0130102 0)
(0 -0.0130712 0)
(0 -0.0009915 0)
(0 -0.000872498 0)
(0 -0.00825355 0)
(0 -0.0180379 0)
(0 -0.0183248 0)
(0 -0.0180507 0)
(0 -0.0183297 0)
(0 -0.0180549 0)
(0 -0.0186476 0)
(0 -0.0224934 0)
(0 -0.0246578 0)
(0 -0.0245895 0)
(0 -0.0245213 0)
(0 -0.024447 0)
(0 -0.0243736 0)
(0 -0.0245308 0)
(0 -0.0242894 0)
(0 -0.0242147 0)
(0 -0.0242979 0)
(0 -0.0241354 0)
(0 -0.0242157 0)
(0 -0.0240481 0)
(0 -0.0241254 0)
(0 -0.0242876 0)
(0 -0.0241943 0)
(0 -0.0243509 0)
(0 -0.0242542 0)
(0 -0.0240943 0)
(0 -0.0241509 0)
(0 -0.0243054 0)
(0 -0.0242003 0)
(0 -0.0243482 0)
(0 -0.0242441 0)
(0 -0.0243819 0)
(0 -0.0242748 0)
(0 -0.0244062 0)
(0 -0.024294 0)
(0 -0.0244226 0)
(0 -0.0243074 0)
(0 -0.0244323 0)
(0 -0.0243138 0)
(0 -0.0244373 0)
(0 -0.0243125 0)
(0 -0.0244301 0)
(0 -0.0243029 0)
(0 -0.0244121 0)
(0 -0.0239529 0)
(0 -0.0242884 0)
(0 -0.0244059 0)
(0 -0.0241687 0)
(0 -0.0226708 0)
(0 -0.0219 0)
(0 -0.0121779 0)
(0 -0.0207584 0)
(0 -0.014444 0)
(0 -0.0139777 0)
(0 -0.0139188 0)
(0 -0.013437 0)
(0 -0.0133864 0)
(0 -0.0134795 0)
(0 -0.0128906 0)
(0 -0.0177679 0)
(0 -0.0181729 0)
(0 -0.0084736 0)
(0 -0.00118881 0)
(0 -0.00126147 0)
(0 -0.00914868 0)
(0 -0.0132203 0)
(0 -0.0128725 0)
(0 -0.0241861 0)
(0 -0.00325747 0)
(0 -0.0241731 0)
(0 -0.0229576 0)
(0 -0.0249603 0)
(0 -0.00350261 0)
(0 -0.00394483 0)
(0 -0.0254422 0)
(0 -0.010168 0)
(0 -0.00948385 0)
(0 -0.0249561 0)
(0 -0.00607644 0)
(0 -0.00607734 0)
(0 -0.0229168 0)
(0 -0.0166173 0)
(0 -0.00755886 0)
(0 -0.00717132 0)
(0 -0.0169527 0)
(0 -0.0173616 0)
(0 -0.0175723 0)
(0 -0.017745 0)
(0 -0.00279836 0)
(0 -0.00213387 0)
(0 -0.00419635 0)
(0 -0.0215342 0)
(0 -0.0212506 0)
(0 -0.0210729 0)
(0 -0.0209617 0)
(0 -0.0207772 0)
(0 -0.0206579 0)
(0 -0.0204693 0)
(0 -0.0203407 0)
(0 -0.0201502 0)
(0 -0.0200114 0)
(0 -0.0198213 0)
(0 -0.0196723 0)
(0 -0.0194821 0)
(0 -0.0193234 0)
(0 -0.00234752 0)
(0 -0.00572799 0)
(0 -0.00335616 0)
(0 -0.0214328 0)
(0 -0.0211941 0)