/*--------------------------------*- C++ -*----------------------------------*\
| =========                 |                                                 |
| \\      /  F ield         | OpenFOAM: The Open Source CFD Toolbox           |
|  \\    /   O peration     | Version:  v2012                                 |
|   \\  /    A nd           | Website:  www.openfoam.com                      |
|    \\/     M anipulation  |                                                 |
\*---------------------------------------------------------------------------*/
FoamFile
{
    version     2.0;
    format      ascii;
    class       volVectorField;
    location    "1000";
    object      U_0;
}
// * * * * * * * * * * * * * * * * * * * * * * * * * * * * * * * * * * * * * //

dimensions      [0 1 -1 0 0 0 0];


internalField   nonuniform List<vector> 
10042
(
(1.05089 -0.00379036 8.68776e-22)
(0.894272 0.261466 -1.05989e-20)
(0.995199 0.0635776 1.71287e-21)
(1.01704 0.00147582 -1.79965e-21)
(1.01312 0.000572499 0)
(1.03957 -0.115986 -1.5523e-20)
(0.726179 -0.0403764 0)
(0.839812 0.0472333 1.36752e-20)
(1.0128 -0.0003039 0)
(1.0692 -0.0376478 2.71619e-21)
(1.00979 0.0793543 1.04217e-21)
(0.8944 0.258142 0)
(1.01008 0.0290908 0)
(1.00876 -0.00111478 -3.87447e-21)
(1.02699 0.00140549 1.28725e-22)
(1.00894 -0.00181703 9.75358e-22)
(1.03155 -0.0273672 0)
(1.02046 0.0849178 2.37485e-22)
(1.03294 0.0118459 1.71534e-20)
(1.03529 0.0269863 4.04081e-22)
(1.0077 0.0253883 0)
(1.05224 0.00356408 0)
(1.01687 0.00143479 1.28456e-21)
(0.929426 -0.268373 9.2349e-21)
(1.01468 0.00272851 -3.76798e-22)
(1.0097 -0.000132551 7.9638e-22)
(1.06893 -0.0313217 7.08924e-22)
(1.01241 -0.000228011 2.0698e-23)
(1.03525 -0.108144 -9.21226e-21)
(0.914995 -0.207519 -2.5156e-20)
(1.00915 0.000207359 0)
(1.04114 0.0646102 0)
(1.01274 -0.000328399 -6.37217e-24)
(1.01266 -0.00031211 -3.25511e-21)
(0.830478 0.0797941 -9.92944e-21)
(0.87725 0.149719 1.6205e-20)
(1.0179 0.000424898 -2.34535e-21)
(1.01218 -0.000497377 0)
(1.01068 0.000372479 0)
(1.02407 -0.0140326 0)
(0.910833 -0.237259 0)
(1.0127 -0.000295218 0)
(0.906367 0.0986142 3.4916e-22)
(0.954512 0.209644 -8.42467e-22)
(1.01623 0.0025436 7.10216e-22)
(1.01465 0.00273337 -2.10598e-22)
(1.01292 -0.000395678 -2.75589e-21)
(1.02649 0.00131646 4.56204e-21)
(1.00106 -0.054537 0)
(0.779046 0.105561 -5.59882e-21)
(0.892887 0.0952569 0)
(1.0149 0.00121618 -3.69383e-22)
(1.0469 -0.0480796 0)
(1.03256 0.010791 7.03793e-21)
(0.819308 -0.267687 7.01607e-21)
(0.2446 0.334961 1.20426e-20)
(1.01025 0.0220094 1.76963e-21)
(1.02051 0.0436544 -1.53004e-21)
(1.02599 0.00395875 4.01751e-21)
(1.01622 -0.00157122 0)
(1.01003 -0.0583567 0)
(0.820154 -0.272358 2.6836e-22)
(0.921664 0.0904081 -1.21098e-20)
(0.818972 -0.00464726 7.43672e-21)
(0.975559 0.0435842 -5.85712e-22)
(1.01359 0.000567818 1.39315e-21)
(1.02986 0.0268382 -1.41145e-22)
(1.0298 -0.0390638 0)
(1.01307 -0.000493389 2.30679e-21)
(1.03618 -0.0319843 -1.0048e-22)
(0.868152 0.111479 0)
(1.02991 0.00930215 -2.21333e-22)
(1.01372 -0.00145944 -1.27291e-21)
(1.02575 0.00374663 -7.73897e-21)
(1.01397 0.000663843 0)
(0.881636 0.114584 -1.88397e-22)
(1.01992 0.0480272 0)
(1.01296 -0.000414344 2.73016e-21)
(1.02464 0.0500556 -9.42754e-22)
(1.03419 0.0122705 4.27463e-21)
(0.957802 0.224923 0)
(0.929212 -0.256117 -2.07892e-21)
(1.00607 0.000129723 4.60281e-22)
(1.01369 0.000960528 3.00151e-22)
(1.06761 0.00769296 4.68714e-22)
(0.976742 -0.117138 -1.03211e-21)
(1.02803 0.0252105 2.88878e-22)
(0.98865 0.0606268 -2.04266e-21)
(1.01624 0.00271904 0)
(1.00103 0.0450058 -2.18392e-21)
(1.02303 0.0218824 -1.06801e-20)
(1.02737 0.00113253 0)
(0.921343 0.0798549 1.05479e-20)
(0.947816 -0.123561 0)
(0.96146 0.0222467 0)
(1.01986 0.0054692 0)
(0.208958 0.235276 -1.29361e-20)
(1.03276 0.0255931 -9.68142e-22)
(0.952057 0.204555 -2.55202e-21)
(1.02568 0.00346398 -1.06588e-21)
(1.02382 0.0200059 1.31609e-20)
(1.09444 -0.0733484 -1.62324e-21)
(1.0257 0.00660505 -7.81208e-22)
(1.04527 0.0510256 0)
(1.02762 0.0121842 0)
(1.02421 0.00547068 -1.87475e-21)
(0.475579 0.174031 -1.34736e-20)
(1.01393 0.00140168 5.42753e-22)
(0.700661 -0.0539973 0)
(1.02472 0.00549677 0)
(1.02519 0.00393028 6.55597e-21)
(0.76942 -0.078688 9.88058e-21)
(1.0965 -0.0616184 0)
(0.820916 0.0214668 -3.77532e-21)
(0.977977 0.0360141 -3.12002e-21)
(1.01328 -0.000558492 1.29477e-21)
(1.02967 -0.0425351 2.3874e-21)
(1.01001 0.000281425 -7.79539e-22)
(1.01818 0.0370469 8.34538e-22)
(1.01328 -0.000734099 -8.99806e-22)
(1.01615 -0.00176577 0)
(0.876447 0.252548 -5.84605e-21)
(0.87495 0.244762 5.80833e-21)
(1.01638 0.00274066 -4.71997e-22)
(1.00566 0.0484976 1.40736e-21)
(1.01723 0.00305425 1.21554e-21)
(1.01777 0.00297193 2.3222e-22)
(0.82949 -0.257449 7.10746e-21)
(0.970866 0.155688 -3.97503e-20)
(1.03519 -0.0426935 -1.04478e-21)
(1.01291 -0.0003285 2.00951e-22)
(1.01505 0.000878463 0)
(1.01941 0.00486818 1.56084e-21)
(1.01405 0.00303515 -1.36619e-21)
(0.758611 -0.0930668 -2.16636e-20)
(0.847916 0.0557413 -1.47754e-21)
(1.02116 0.0286087 0)
(0.78759 -0.0874328 0)
(1.02928 0.00618209 -1.31515e-20)
(0.963046 0.198026 -1.40354e-21)
(0.95712 0.0587351 6.90594e-21)
(1.01176 -6.00727e-05 3.88429e-22)
(0.495991 0.141405 1.0968e-20)
(1.01234 -0.000193543 0)
(1.0275 -0.00176238 9.07038e-22)
(1.01237 -0.000522147 0)
(1.06292 0.00816176 -5.4234e-22)
(1.01306 -0.000532707 6.31669e-22)
(1.02603 0.0122801 3.0195e-23)
(0.942417 -0.231323 -3.93407e-21)
(1.01428 0.00144276 -1.14057e-21)
(1.0105 -4.80108e-05 -1.5805e-21)
(1.02917 0.00689264 4.6279e-21)
(1.00345 0.0379195 -1.67741e-21)
(0.966635 0.0163917 7.7127e-22)
(1.02814 -0.00298317 0)
(0.969045 0.144908 3.1791e-20)
(0.218899 0.312123 -1.01315e-20)
(1.01995 0.00423803 0)
(1.00785 -0.000259293 0)
(1.01229 0.000388069 0)
(1.02633 -0.0148623 -1.94859e-22)
(0.842789 0.0359863 1.79351e-21)
(1.01673 0.00268858 -1.5648e-21)
(1.02898 0.00523936 -8.44112e-21)
(0.948736 -0.23795 -3.50524e-21)
(1.0139 -0.00136338 -3.63921e-22)
(1.04166 0.0550117 1.15985e-20)
(0.859196 0.127402 -1.69544e-20)
(1.01259 -0.000303319 0)
(0.955655 -0.00346954 0)
(0.903973 -0.177064 3.95313e-20)
(0.846858 0.227088 -1.5091e-20)
(1.01268 -0.000326836 -1.66921e-21)
(1.03163 0.0103813 0)
(0.859421 0.234377 1.56895e-20)
(1.01524 0.00322081 2.01817e-23)
(1.0124 -0.000481279 -1.56951e-21)
(1.01505 0.00106467 0)
(1.01302 -0.000472136 -2.74915e-21)
(1.02907 0.00582031 7.0768e-21)
(1.02537 0.00864798 1.15296e-20)
(1.02591 0.00363936 -4.53487e-21)
(1.01314 -0.00073688 -2.276e-21)
(1.01122 -0.0954651 -2.22964e-22)
(1.03178 0.0284351 7.37651e-21)
(1.03037 0.00848216 -8.8308e-22)
(1.01602 -0.0012517 -8.97791e-23)
(0.814533 0.145456 2.79632e-22)
(1.01011 0.000173473 1.47722e-21)
(0.897457 0.256271 0)
(1.00891 0.0184611 -7.83915e-21)
(1.01309 -0.000347378 -2.61208e-23)
(1.02627 0.00864411 -5.14258e-21)
(0.838104 -0.243616 5.62366e-21)
(1.02728 0.000794733 3.34476e-21)
(0.996167 0.252712 2.01738e-20)
(0.959935 -0.0302537 0)
(0.580079 0.318359 -1.81224e-19)
(1.01382 0.000886468 -1.49782e-24)
(0.961378 0.178841 0)
(0.939683 0.0684474 3.39054e-21)
(0.918133 -0.0864087 0)
(1.01204 -0.000118607 -1.0334e-21)
(0.950743 0.216457 4.63151e-21)
(1.01848 0.0047117 -1.77117e-21)
(0.932769 -0.250597 1.13864e-20)
(1.00324 0.0338929 0)
(1.02475 0.00391563 -5.19476e-21)
(1.01397 0.00332464 1.18357e-21)
(1.04427 0.0604395 -1.32571e-20)
(1.01231 -0.000130768 8.85686e-22)
(0.905896 -0.0958162 1.23329e-21)
(0.927072 -0.0711478 0)
(1.01719 0.000354976 1.47088e-21)
(1.03636 -0.0258509 0)
(1.01223 -0.000158476 0)
(0.807685 0.121139 -4.10517e-22)
(1.01637 0.000812103 0)
(0.956342 0.166775 0)
(0.973136 0.28824 -6.36772e-20)
(0.963853 -0.00729982 2.34937e-21)
(0.955264 0.297636 5.98996e-20)
(1.03909 -0.0252143 -1.75967e-22)
(1.01714 0.00156388 1.09562e-21)
(0.937996 0.0775924 1.6493e-21)
(1.02307 0.0106531 3.57091e-22)
(1.02001 0.0266336 -4.81372e-22)
(1.05949 -0.0213569 -1.82491e-22)
(1.02611 0.00631161 -2.98177e-21)
(1.01258 -0.000481906 1.61709e-21)
(1.01835 0.00313147 0)
(1.02968 0.0271356 0)
(1.00818 0.000242624 0)
(1.01509 0.00317541 3.27382e-23)
(0.856114 0.0715539 -8.83257e-21)
(1.01382 0.0229569 1.15877e-21)
(0.306806 0.271525 4.93307e-20)
(1.02788 -0.000411549 -4.83624e-21)
(0.920041 -0.265986 6.28988e-21)
(0.78352 0.0480786 0)
(0.814916 0.0101693 0)
(1.01637 -0.00196174 0)
(1.02644 -0.0174404 2.21874e-22)
(0.788888 -0.300802 7.37537e-21)
(1.01314 0.000590464 4.09631e-22)
(0.813799 -0.0102651 0)
(1.02887 0.000120384 3.02751e-21)
(1.02903 0.00702225 -5.95206e-21)
(1.01245 0.000400194 0)
(1.02885 0.0119147 -5.81615e-21)
(1.01327 -0.000278593 1.09196e-22)
(1.02967 -0.0835147 -1.78136e-21)
(0.793912 -0.295658 4.12196e-21)
(1.02501 0.0118639 0)
(1.01367 0.0212037 4.98118e-22)
(1.00921 0.000147526 -1.77644e-21)
(1.02256 0.013719 2.86763e-23)
(0.125929 0.221189 4.97229e-20)
(1.01597 0.00102066 -1.46812e-21)
(0.994339 0.0495156 0)
(1.01228 -0.000695412 0)
(1.01475 0.00119532 -3.2541e-22)
(1.01292 -0.000384411 2.09717e-21)
(1.00892 0.0323764 0)
(0.801794 -0.293048 -5.5841e-21)
(0.989234 0.0453237 0)
(1.04299 -0.0734564 1.92949e-21)
(1.00474 -9.78138e-05 -1.53029e-22)
(1.01848 0.00358167 0)
(1.02106 0.000925544 -2.80289e-21)
(0.79235 0.080054 2.89953e-21)
(1.01003 0.00193806 0)
(0.85636 0.130234 -1.43718e-21)
(1.02175 0.0129362 0)
(1.00585 0.0266974 2.09463e-21)
(1.03306 0.00485712 0)
(1.01552 0.00274021 0)
(1.00465 -2.32651e-05 1.53023e-21)
(0.838626 -0.232992 -6.48689e-21)
(1.01246 -0.000255814 1.8619e-21)
(0.836212 0.113212 1.52175e-21)
(1.01104 0.25057 1.78397e-21)
(1.03244 0.00440336 0)
(1.01458 0.00012001 -2.49286e-21)
(0.801621 0.370391 -7.79275e-22)
(1.05258 -0.0300936 -7.62136e-22)
(1.01347 -0.000419598 0)
(1.05071 0.017389 0)
(1.00952 -1.93305e-05 2.02982e-21)
(1.01035 0.012718 -2.91549e-22)
(1.04078 -0.017022 0)
(1.01332 0.000210226 0)
(0.841463 0.128733 1.04328e-20)
(0.981062 0.0491031 6.24053e-22)
(1.01059 -0.00385014 1.24163e-21)
(1.08589 0.134968 4.26053e-21)
(1.01706 0.0259397 4.07088e-22)
(1.02118 0.000790949 0)
(1.01215 -0.000146588 1.47188e-21)
(1.02887 0.00642569 4.0888e-21)
(0.910464 -0.078983 0)
(1.01614 -0.00122584 0)
(0.795796 0.0737197 0)
(1.04759 -0.0327503 0)
(0.80207 -0.274981 2.63109e-21)
(1.00929 0.00223974 -9.07221e-22)
(1.02937 -0.0184322 -2.27815e-22)
(1.07946 0.150865 0)
(0.843721 0.148893 -1.35817e-20)
(1.01638 0.000166433 0)
(1.01431 0.00263889 5.25152e-22)
(1.01989 0.00516745 0)
(1.01021 -0.00327924 1.31682e-21)
(1.04321 -0.0139817 -2.09311e-21)
(1.04762 0.0229778 0)
(1.01287 -0.000360844 -3.66819e-21)
(1.01775 -0.0850301 -6.90363e-22)
(0.900077 -0.245964 1.19218e-20)
(1.01325 -0.000623703 1.3096e-21)
(1.0072 -7.94233e-05 0)
(0.843568 0.125938 1.19439e-21)
(1.00618 0.0225676 0)
(0.958901 -0.0805056 -3.79021e-22)
(0.984437 -0.114641 1.27749e-21)
(1.01618 0.00025058 -2.04034e-21)
(1.00238 -0.0268016 4.93163e-23)
(1.0153 0.000957575 0)
(1.01644 0.0240308 0)
(1.01277 0.0109439 -2.45613e-22)
(1.01801 0.0052035 0)
(1.02256 0.00387096 0)
(1.04833 -0.00638773 -1.49485e-21)
(1.00969 -8.39363e-05 1.67524e-21)
(0.924179 -0.254386 0)
(1.05482 0.0159462 1.97725e-22)
(0.394931 0.23398 0)
(0.969511 -0.0729626 0)
(1.01348 -0.000278097 2.22834e-22)
(0.965174 -0.229409 0)
(0.951542 0.0497967 3.5217e-21)
(1.00383 0.0132637 0)
(1.01633 -0.0021533 1.47125e-22)
(0.99075 -0.0174037 5.37515e-21)
(1.01152 0.000329478 2.26369e-23)
(1.01259 -0.000431619 -1.57982e-21)
(1.01096 0.00208465 -2.29171e-22)
(1.0138 0.000628192 -1.04808e-22)
(1.03453 -0.00153249 0)
(0.434648 0.282821 4.49589e-20)
(1.02978 0.00272566 -3.91648e-21)
(0.964732 0.030292 0)
(1.03486 0.00112047 -9.90797e-22)
(1.01664 -0.00305631 -1.85143e-21)
(0.82525 -0.265868 -1.91212e-21)
(0.998557 -0.0298211 -2.61951e-21)
(1.02389 0.010319 -6.21491e-23)
(1.00356 9.66693e-05 0)
(0.933307 0.214768 -1.74686e-20)
(1.00406 2.20277e-05 0)
(1.02394 0.00514347 1.76056e-21)
(1.0178 0.000403113 0)
(1.0287 0.00510741 1.66616e-21)
(0.851656 -0.185771 0)
(0.976675 -0.226194 4.05107e-22)
(1.02927 0.00551267 7.39386e-21)
(1.01414 0.000828809 -4.32688e-23)
(1.03235 0.00462946 -1.84829e-21)
(1.03257 0.00229799 -3.92284e-24)
(0.843973 -0.261049 -3.85472e-21)
(1.01603 -0.00141707 8.7744e-23)
(1.00735 0.000179137 0)
(1.00986 0.00238216 1.01145e-21)
(1.01181 -0.000355522 -3.83083e-24)
(1.00661 -0.106045 -1.87998e-20)
(1.00937 0.00416577 2.35131e-21)
(1.01103 0.0296031 0)
(0.784713 -0.0515664 3.10106e-22)
(0.822961 -0.252076 0)
(1.00589 -0.0934168 1.57571e-20)
(1.02277 0.00462117 0)
(0.776711 -0.0189105 5.13604e-22)
(1.06393 -0.0161828 4.73535e-22)
(1.01527 0.00108775 0)
(1.00058 0.0595148 -1.08971e-20)
(1.01331 -0.000642856 -1.58692e-21)
(1.01334 0.000548777 0)
(1.01323 -0.000774873 0)
(1.01948 -1.00499e-05 1.59557e-21)
(1.01333 -0.000419432 -8.59111e-22)
(1.02054 0.0130473 3.61538e-23)
(0.419852 0.364419 0)
(1.02941 0.00293865 0)
(1.01475 -0.0346124 8.92597e-23)
(0.995927 -0.204806 4.32873e-21)
(0.790832 -0.2886 0)
(1.01818 0.0016633 1.18195e-21)
(0.822715 0.0579248 1.23081e-20)
(1.01731 0.000139613 -3.45325e-21)
(1.03598 0.0639264 -1.68996e-20)
(1.01505 0.00110566 3.79278e-22)
(0.925126 0.342004 -6.97194e-20)
(1.00641 0.00210487 1.34915e-22)
(0.817927 -0.271158 -6.41578e-21)
(0.0994877 0.257931 -2.8098e-20)
(1.01643 -0.00338584 2.11486e-21)
(0.958197 0.041598 5.27975e-21)
(1.01708 -0.00565733 1.00806e-21)
(0.801814 0.0258107 -2.81476e-22)
(1.01993 0.0121805 -3.57351e-23)
(1.05769 0.17046 -2.7796e-20)
(1.02228 0.000163409 0)
(0.820714 0.0608176 6.44198e-21)
(1.02883 0.0027783 -8.70252e-22)
(0.849012 -0.0616197 3.04224e-22)
(1.01552 -0.00578476 0)
(1.02781 -0.00668585 0)
(0.837498 -0.258405 -2.43089e-21)
(1.01282 -0.000335569 1.02179e-22)
(1.01514 -0.00480518 -1.48028e-21)
(1.01048 -4.46335e-05 0)
(1.00774 -0.190193 -6.20093e-21)
(1.01276 -0.000414212 8.36987e-22)
(1.01317 -0.00080925 -1.14447e-21)
(0.953929 0.066276 -1.24317e-20)
(1.00679 -0.00466353 0)
(1.07087 -0.00409914 -1.22246e-21)
(1.07105 0.167488 3.7163e-21)
(1.01583 0.00102248 -9.98477e-22)
(1.0047 0.017454 6.20154e-21)
(1.00795 -0.00514846 1.00872e-21)
(1.01305 -0.000443944 1.58057e-21)
(1.02257 -0.00147546 -2.01561e-21)
(0.895632 0.132785 0)
(1.01631 -0.00500062 -1.07425e-21)
(1.02847 0.00484741 0)
(0.492179 -0.0501772 0)
(1.01162 0.0345642 1.05211e-21)
(1.00731 -3.68493e-05 0)
(0.264435 0.352599 2.79988e-21)
(1.01228 -0.000159318 -1.59285e-21)
(1.04129 -0.00981838 1.01463e-21)
(1.00443 0.0424209 0)
(0.836915 0.144544 4.88628e-23)
(0.838012 0.0680996 8.90568e-21)
(1.01066 -0.12789 -9.09742e-22)
(0.863212 -0.0638376 1.23253e-22)
(0.858062 0.0222366 7.75571e-21)
(0.820775 0.0114998 -1.25343e-20)
(1.01325 -0.000986969 0)
(1.00238 0.0192836 -2.31086e-21)
(1.03833 0.146811 0)
(1.02815 0.139781 -9.24891e-22)
(1.0023 0.0557332 1.75308e-20)
(1.01681 0.00128774 5.5018e-22)
(1.01098 0.00245098 1.463e-23)
(0.973539 0.0300209 -2.03352e-21)
(0.330021 0.367606 -4.34965e-21)
(1.01317 -0.000724146 8.94867e-22)
(1.02076 -0.00892509 -4.84781e-22)
(1.01015 0.000329829 -5.67355e-22)
(1.01789 0.00177732 1.26322e-21)
(1.01561 0.00412907 1.86192e-21)
(1.01635 0.00489582 -1.86871e-21)
(1.01909 0.000426098 -2.24164e-21)
(1.00854 0.000112909 0)
(1.05507 0.00791028 -4.91462e-22)
(1.03376 0.00367958 0)
(1.04311 -0.00716401 1.31647e-21)
(0.955904 0.00567156 -4.32544e-23)
(0.855512 0.00239358 -9.13031e-21)
(1.014 -0.000984823 -2.01082e-21)
(0.850185 0.318505 1.62786e-20)
(0.467861 0.00496149 1.97936e-22)
(0.91889 0.191704 1.70077e-21)
(1.01022 -0.000101244 -1.04198e-21)
(1.04332 0.0219429 -4.44829e-21)
(1.00829 -8.45018e-05 0)
(0.787637 -0.2855 0)
(1.02175 0.00146262 -2.88297e-21)
(0.970012 -0.0311257 1.8901e-22)
(1.02852 0.00296472 -5.72068e-21)
(0.962045 0.183114 3.47405e-21)
(1.01135 -4.00058e-05 2.90931e-23)
(1.02991 0.0129462 0)
(1.02156 -0.00863993 -1.65145e-22)
(1.00346 0.0159613 -3.35718e-21)
(1.01303 0.241005 1.49714e-20)
(1.0086 -2.71696e-05 -1.4331e-21)
(1.01239 0.000576039 0)
(1.01423 0.00299514 3.98703e-22)
(0.929149 0.229764 1.61009e-20)
(1.01236 -0.000676002 -1.83825e-21)
(0.983195 -0.0238925 2.80457e-21)
(0.971005 0.0475459 1.86898e-21)
(0.955623 0.032464 2.78845e-21)
(1.01617 -0.00252198 -1.30166e-22)
(0.97685 -0.0236409 -2.78866e-21)
(0.855642 0.134766 -1.46357e-20)
(0.567718 -0.00445127 0)
(1.02406 0.00357976 2.69213e-21)
(1.01115 0.000311895 0)
(0.823496 0.0783492 -7.00066e-21)
(0.921136 0.220383 -1.21017e-20)
(1.00528 -0.0201232 3.43541e-22)
(0.986874 -0.139246 -2.85191e-21)
(1.00997 0.000266364 -1.68395e-22)
(1.02901 -0.0575454 0)
(1.0533 -0.00548098 -2.11162e-22)
(1.04004 -0.00800593 0)
(1.02922 0.0018677 3.58418e-21)
(0.937095 -0.254494 -6.68727e-21)
(1.01572 -0.00237445 9.66414e-22)
(1.01657 0.00126218 1.5886e-21)
(1.02544 0.00526271 0)
(0.874461 0.165936 1.8929e-20)
(1.01661 0.00257257 6.11897e-22)
(0.797689 -0.00041403 1.33098e-21)
(1.01774 0.00171066 -1.15077e-21)
(1.02375 0.00296781 0)
(1.01359 -0.000888165 -1.32862e-22)
(1.02997 -0.0068169 -5.13876e-22)
(0.973563 -0.14402 0)
(1.02604 0.00594073 -1.51043e-22)
(1.02826 0.00475582 0)
(0.939826 -0.166191 3.29649e-21)
(0.956593 -0.0215814 0)
(1.06436 0.0297166 9.22779e-23)
(1.02569 0.0057827 9.58763e-22)
(1.01466 0.000490478 1.45505e-21)
(1.02373 -0.0652236 -2.2485e-22)
(0.614299 0.000829824 0)
(1.02323 0.00471996 0)
(1.01394 -0.000558506 -2.66232e-21)
(0.974017 0.0404836 -4.84493e-21)
(1.02021 0.00576785 -9.39154e-23)
(1.02149 0.00378024 -4.09708e-22)
(1.10343 0.0801964 2.34868e-21)
(1.01276 -0.000365413 -8.86619e-22)
(0.793235 -0.301353 0)
(1.01427 0.000888776 0)
(1.06077 -0.0283888 -2.18407e-21)
(1.00438 -0.0011823 -2.56545e-21)
(0.959263 0.331466 7.2486e-20)
(1.01681 0.0025767 -6.81851e-22)
(1.03986 0.0241084 0)
(1.01629 0.000701574 -9.41286e-22)
(1.0133 -0.00111762 -2.06104e-21)
(0.940729 -0.160411 -2.32774e-21)
(1.01665 -0.00237272 -1.34793e-22)
(0.779171 -0.197066 -7.62188e-21)
(1.00176 -0.0186 5.55143e-22)
(1.01264 -0.000238227 -9.20454e-22)
(1.01547 -0.02293 2.37577e-23)
(0.394493 0.239945 0)
(0.84391 0.0815669 -1.57801e-21)
(0.965402 0.008776 -3.86379e-21)
(1.00981 -5.9467e-05 0)
(1.01402 -0.000530965 1.8055e-21)
(1.01303 -0.000575086 -1.24949e-21)
(1.0136 0.00349712 0)
(1.00242 0.0100316 0)
(1.02495 0.00523753 0)
(0.977534 0.159169 2.37785e-21)
(1.02022 0.00467829 0)
(1.01509 -0.000743231 -1.07612e-22)
(0.866967 -0.341531 3.49144e-21)
(1.02673 0.0110507 5.82892e-21)
(1.00103 0.0127335 -1.30436e-21)
(1.00668 -7.35298e-05 0)
(1.01281 0.000719579 0)
(0.85094 -0.337652 -3.09717e-21)
(0.858184 -0.181218 5.9251e-21)
(1.00605 -0.00191282 0)
(0.941951 -0.253877 -1.03441e-20)
(1.02059 0.00046508 0)
(1.03575 0.0258282 0)
(1.01469 -0.000968913 1.9027e-21)
(1.01273 -0.000241719 0)
(1.01402 0.00247851 7.26263e-22)
(1.01427 0.00237293 -1.09012e-21)
(1.02392 0.00458918 1.74166e-21)
(1.00954 8.89174e-05 -2.31956e-23)
(0.886043 0.364122 -4.05593e-20)
(1.02771 0.00298064 5.64193e-21)
(1.14474 -0.00318383 -1.89374e-22)
(1.01509 0.00234235 0)
(1.00915 -0.00535959 0)
(1.01287 -0.000359987 -2.36053e-22)
(1.0716 0.0298251 3.47042e-22)
(0.785472 0.10361 2.74067e-22)
(1.01257 -0.000216706 9.36357e-22)
(1.01539 0.0025671 0)
(0.994534 -0.103453 -3.82131e-21)
(0.965848 -0.015157 8.13669e-22)
(1.01283 -0.000342546 -2.7348e-21)
(0.805436 -0.285065 -2.22108e-20)
(1.01392 0.000721993 8.75994e-23)
(1.04948 0.00650087 0)
(1.01214 -0.000524112 0)
(1.01445 0.000460029 4.62161e-23)
(1.01314 -0.00101195 1.94134e-21)
(0.947303 0.224863 -2.48304e-20)
(1.01281 -0.00033425 0)
(1.01422 0.00489082 1.76172e-21)
(1.00866 0.00421967 -2.12467e-21)
(0.787422 -0.297729 -2.0592e-20)
(1.01007 -0.000200362 2.35678e-23)
(1.01413 0.00226067 3.21756e-22)
(1.00951 -6.98817e-06 -2.48767e-21)
(0.989618 0.0853933 1.65938e-21)
(1.01827 0.00178932 -1.28479e-21)
(1.01618 0.00364382 8.52765e-22)
(1.01183 -6.42949e-05 -1.95014e-21)
(1.01637 0.00372727 -5.15573e-22)
(1.0287 0.00144902 0)
(1.01539 0.00340898 -7.89445e-23)
(1.01039 -0.00524715 -5.80177e-22)
(1.01491 -0.00105068 -3.13164e-21)
(0.0742363 0.233175 -3.60235e-21)
(0.971449 0.199365 3.86193e-21)
(0.984557 0.235299 6.82029e-21)
(1.01881 0.0120972 0)
(1.04069 0.0138342 -3.1526e-21)
(1.0163 0.00081907 -6.61283e-22)
(1.06971 0.0899147 0)
(1.01774 -7.32356e-05 2.95802e-23)
(0.903207 -0.254967 -2.19773e-20)
(0.9488 -0.100142 2.84355e-22)
(0.973338 0.222378 0)
(1.04804 0.0120186 0)
(0.815908 -0.0527531 -3.09885e-21)
(1.02033 0.000459246 5.12379e-23)
(1.02278 0.00413975 1.93195e-21)
(0.924721 0.0449945 6.17845e-20)
(0.98805 0.0777894 -1.022e-21)
(1.00718 -0.0282993 -2.47621e-21)
(1.00374 0.110082 1.5598e-20)
(1.02629 0.00303985 4.88991e-21)
(0.863549 -0.148487 -1.47099e-21)
(1.01437 0.001576 1.23429e-21)
(1.02412 0.00398318 0)
(1.01424 -0.00112044 1.26775e-21)
(1.01222 -0.000609876 -2.07349e-21)
(1.01263 0.000403669 0)
(0.914393 0.0912611 -8.13761e-21)
(1.03188 0.00458442 0)
(1.00967 -0.000153515 4.3978e-22)
(0.531009 0.358651 -1.19035e-20)
(1.01912 0.00431204 6.7192e-22)
(1.08027 0.084484 -1.08151e-21)
(1.02395 -0.0124239 -1.45101e-22)
(1.03287 0.00344902 -9.49616e-21)
(0.986246 -0.0176339 -2.93748e-21)
(1.01047 0.000261782 -8.59656e-22)
(0.91297 -0.246334 0)
(1.01716 0.000593316 -2.39926e-22)
(1.01445 0.00257312 0)
(1.1257 -0.0105778 0)
(1.02398 0.00319629 -3.01737e-21)
(1.01559 -0.000892396 2.63952e-22)
(1.0078 5.65097e-05 0)
(1.01513 0.00159702 1.31277e-21)
(1.01331 0.00126112 9.33082e-22)
(1.08064 0.104127 -3.59819e-21)
(1.11835 0.0831997 0)
(0.967953 0.184253 -3.95232e-21)
(1.02619 0.000946739 0)
(1.01591 0.00246845 0)
(1.01485 0.0015152 0)
(0.849868 -0.152982 -6.33046e-21)
(1.03071 0.0100877 0)
(1.0144 0.000334669 -1.52551e-21)
(1.01181 -0.000174489 3.51983e-22)
(1.01157 0.00219965 -5.03552e-23)
(0.820356 -0.086019 6.01547e-21)
(0.705234 0.138601 3.77848e-21)
(1.02867 -0.0349134 -2.3633e-22)
(1.02306 0.0116488 -1.92167e-22)
(1.01311 -2.63443e-05 -2.27408e-21)
(-0.0372296 0.18763 -4.51207e-20)
(1.03856 0.0258841 1.78973e-20)
(1.03679 -0.00358323 2.17551e-22)
(1.07117 0.0128332 -2.1485e-22)
(0.931823 -0.21425 2.02101e-23)
(0.793649 -0.279179 1.99411e-21)
(0.827794 -0.12367 -1.02756e-20)
(1.01432 0.00163163 -1.22094e-21)
(1.00955 -2.34763e-05 1.56485e-24)
(1.0174 0.000285166 0)
(0.829797 -0.0255155 8.5877e-22)
(1.01409 0.00160001 1.19675e-21)
(1.04135 0.0168959 2.82475e-20)
(1.01998 0.00208209 0)
(1.01665 -0.00258404 0)
(0.994273 -0.0209272 0)
(1.02379 0.00393802 1.86645e-21)
(0.916293 0.224563 1.69008e-20)
(0.993422 0.268651 -2.67087e-20)
(1.01356 -0.000403322 -1.84833e-22)
(1.01602 0.00252526 -5.70176e-22)
(1.01323 -0.000882858 1.12666e-21)
(1.0068 -0.119386 9.28505e-22)
(1.01228 -0.000584412 -1.53968e-21)
(1.05048 0.127307 5.98003e-21)
(1.03018 0.00540607 1.90998e-21)
(0.794884 0.133169 3.49491e-21)
(1.0157 0.00206818 -1.92424e-21)
(1.01351 -0.00459578 -1.11114e-21)
(1.0126 -0.00021326 0)
(1.01654 0.00135158 0)
(1.02213 0.0037706 -1.94193e-21)
(1.01942 -0.00547115 -8.97624e-24)
(1.02189 0.00133177 3.18669e-21)
(1.02837 0.0034905 -8.52275e-22)
(1.00871 -0.0341575 2.41815e-21)
(1.03095 0.0122756 0)
(1.02269 0.200948 0)
(1.01974 5.66113e-05 2.08258e-21)
(0.996241 0.0707307 -1.89827e-21)
(0.916645 -0.228577 -5.955e-22)
(1.01667 -4.38722e-05 0)
(0.255643 0.280125 1.20962e-20)
(1.01462 0.0021513 0)
(1.01125 0.00585199 3.29184e-23)
(1.00577 0.00370895 -2.49917e-21)
(1.00943 -0.000133193 0)
(0.939006 -0.256937 2.06233e-20)
(1.01977 0.00163873 -5.49684e-22)
(1.01838 0.011244 4.01212e-23)
(1.01375 -0.001041 1.23029e-21)
(0.823058 -0.234973 -3.47447e-21)
(1.01368 -0.00421255 1.1622e-21)
(0.839744 -0.0339127 5.23053e-22)
(1.00345 -0.0082762 0)
(1.01604 0.00222258 0)
(1.11058 -0.0851823 9.75331e-22)
(0.827014 0.00732361 -3.0633e-21)
(1.02506 -0.0112483 1.3799e-22)
(1.01384 -0.00163971 -3.9098e-23)
(0.996895 0.104995 -1.42627e-20)
(1.00439 9.84413e-05 0)
(0.760096 -0.121209 6.54081e-21)
(1.01718 -0.0303431 1.04625e-23)
(1.02907 0.0456328 1.01624e-21)
(0.993398 -0.0270049 0)
(1.02564 0.000951979 -1.14313e-21)
(1.02447 0.0036261 1.90729e-22)
(1.01328 0.00176508 0)
(1.05109 0.0126082 -2.87993e-22)
(1.00279 0.00130559 2.43894e-21)
(0.999709 -0.0788346 -2.94889e-22)
(0.870225 -0.0760498 0)
(1.01702 -0.0028136 -1.69014e-22)
(1.01198 0.00354042 5.01994e-23)
(1.01787 1.15019e-05 9.78171e-22)
(1.00023 0.0403827 -7.77597e-23)
(1.00461 8.24063e-05 2.01686e-22)
(1.0538 0.075914 -6.90154e-21)
(1.02816 0.00157594 -8.56742e-21)
(1.02348 0.00505483 0)
(0.936904 -0.102966 -3.22358e-22)
(1.01543 0.00178201 -1.39645e-21)
(0.998398 0.0959181 2.53593e-20)
(1.03975 -0.0110273 -7.2225e-22)
(1.0137 0.000184124 3.356e-21)
(0.875764 -0.0806503 7.84786e-23)
(1.02384 0.00537113 -2.74619e-23)
(1.01522 0.00416145 0)
(1.02352 0.00739019 0)
(1.06124 -0.0106381 -9.95633e-22)
(1.00912 0.00275619 0)
(0.79343 -0.285473 -3.08938e-21)
(1.02789 0.00333283 0)
(1.06365 -0.00451518 -2.9595e-22)
(1.0427 0.0182252 -1.49909e-20)
(0.910019 0.155654 0)
(1.022 0.0071899 -2.39205e-22)
(1.03741 -0.00611874 5.22309e-22)
(1.0074 -0.0172157 0)
(1.02849 0.00382239 -5.18451e-23)
(1.00759 -0.00850197 -1.27785e-21)
(1.01232 -0.00018978 1.47968e-21)
(1.0549 -0.00961678 1.69182e-21)
(1.01345 0.00538902 3.6628e-23)
(1.02895 0.00207738 0)
(1.01284 -0.00497422 2.23763e-21)
(1.0157 0.000775351 7.51567e-22)
(1.02999 0.00690715 4.6001e-21)
(1.00859 -0.0283023 0)
(1.01025 0.000283721 0)
(1.02628 0.00212634 4.76275e-21)
(1.02481 -0.115449 0)
(1.01231 -0.000140189 -1.65112e-21)
(1.01577 0.00187101 1.13196e-21)
(1.01531 0.0022633 0)
(1.01321 -0.000890136 -1.69228e-23)
(1.02458 -0.0394826 0)
(1.01522 -0.0076357 3.55511e-21)
(1.02326 0.0160658 2.05636e-22)
(1.0343 0.0114725 1.70419e-21)
(1.03145 -0.109576 0)
(1.02189 0.00391424 -1.776e-21)
(1.02 0.0270274 1.30664e-21)
(0.759094 -0.0804751 0)
(1.01149 0.00193882 0)
(1.01657 0.00534387 -9.16352e-22)
(1.01326 -0.000981489 1.38641e-22)
(0.963002 -0.15956 0)
(0.928439 -0.225915 1.4834e-21)
(1.02695 0.0098253 -1.27457e-20)
(1.01242 0.000510726 0)
(1.02099 -0.0374561 0)
(0.685243 -0.0171295 2.76073e-21)
(0.631919 0.332856 8.70641e-22)
(1.02661 0.00460983 -2.13312e-21)
(0.950889 -0.155241 2.91374e-21)
(0.871126 -0.00794405 9.11584e-21)
(1.00029 0.231797 2.09527e-21)
(1.0227 0.00645909 1.85297e-21)
(1.01953 -0.00601588 0)
(1.01105 0.00409233 1.08907e-22)
(1.02401 0.148974 -3.77497e-21)
(1.08754 0.0640486 1.2829e-21)
(1.028 0.0028185 6.33222e-21)
(0.775825 0.32782 1.76152e-20)
(1.04095 0.0474346 0)
(0.890325 -0.0763689 -2.01477e-22)
(0.940886 -0.255919 -9.96218e-21)
(1.01063 0.00628043 1.42617e-22)
(1.01077 0.0455607 1.13122e-21)
(0.761546 -0.160821 1.28123e-20)
(0.947289 0.0160894 2.94771e-21)
(0.801206 -0.297823 0)
(1.05171 0.0101829 0)
(0.801933 0.360135 -2.89782e-20)
(1.0222 0.0150115 -2.88496e-23)
(0.839424 -0.15746 1.06208e-20)
(1.0238 0.00334275 -2.75064e-21)
(1.03091 0.0109038 -1.75817e-21)
(1.01034 0.000250398 0)
(1.01551 -0.0290814 1.9652e-21)
(1.01574 -0.00123868 3.06212e-22)
(1.02456 0.0040592 -4.46047e-21)
(1.01577 0.00264942 1.13397e-21)
(0.894818 -0.147341 -3.50886e-20)
(1.01884 0.00273519 -4.91874e-22)
(1.01706 -0.00306598 1.3627e-22)
(0.873492 -0.316406 -3.6224e-21)
(1.02274 0.00296982 2.68842e-21)
(1.02331 0.0160266 1.15754e-20)
(1.0283 0.00404723 1.95069e-21)
(1.00593 -0.0687902 -6.15059e-22)
(1.01185 -0.00035537 9.18259e-23)
(1.02829 0.00485358 6.07527e-21)
(1.01672 0.00864363 0)
(1.01838 0.00609557 0)
(1.0191 0.00402821 1.223e-22)
(1.04185 0.020295 0)
(1.01347 0.00132663 -9.9519e-22)
(0.649065 -0.222525 0)
(1.03619 0.0499809 0)
(0.976146 0.0531223 2.9915e-21)
(1.01944 0.00267353 5.18299e-22)
(0.9811 0.174525 -2.16775e-21)
(1.0131 0.00122205 0)
(0.991113 0.0908657 0)
(0.989488 -0.126864 -3.33006e-22)
(1.00036 0.000647044 -2.57831e-21)
(1.01948 0.00454317 -2.67082e-21)
(1.0132 -0.000549796 -1.41586e-21)
(1.01764 0.00653737 0)
(1.01733 0.00032535 6.86995e-22)
(0.836014 0.102963 1.30556e-22)
(1.05876 0.0463496 3.81648e-22)
(1.01512 0.00151146 0)
(0.910913 0.138303 0)
(1.01075 -2.75782e-05 -2.22797e-22)
(1.0153 0.0006733 -1.60034e-21)
(0.925019 -0.264695 -1.22821e-20)
(1.01322 -0.000627437 -1.36344e-21)
(1.01786 0.000469378 7.06472e-22)
(0.895572 0.128965 2.09148e-22)
(1.01357 0.000927373 -4.30618e-22)
(1.01133 0.106338 0)
(1.02973 0.00644992 2.22114e-21)
(1.10013 0.0163636 0)
(1.02595 0.0198278 0)
(1.05257 0.0442674 -3.79079e-22)
(1.01409 -0.0258664 -4.79524e-21)
(1.02031 0.00508166 0)
(-0.0439195 0.163776 6.35187e-21)
(-0.0583362 0.166717 8.0238e-21)
(1.01521 0.00251163 0)
(1.05497 -0.00175921 -7.41264e-22)
(0.900082 0.211522 3.61824e-22)
(0.596452 -0.143431 0)
(0.793773 -0.107792 0)
(1.00781 -1.81037e-05 1.0753e-21)
(1.01399 -0.0026709 3.82081e-21)
(1.00775 -0.0201961 0)
(1.02418 0.00490266 -1.97849e-21)
(1.02099 0.00584706 -1.84159e-21)
(0.898318 -0.0933361 -6.48776e-22)
(1.03917 0.0139999 -9.01806e-21)
(1.01307 -0.000622496 1.48761e-21)
(1.03003 0.043915 2.08608e-20)
(0.913989 0.17762 0)
(0.917124 -0.231305 5.955e-21)
(1.01302 -0.000531513 0)
(1.01329 -0.000864678 -1.12602e-21)
(1.00901 -0.000103986 -1.45301e-21)
(1.02652 0.00329922 0)
(1.01075 -0.0663876 0)
(1.05198 0.137705 -6.04644e-21)
(1.01371 -0.00136589 0)
(1.03677 0.0184705 0)
(0.995441 0.103857 0)
(1.01302 0.00219898 6.98625e-22)
(1.01378 0.00038878 -3.04174e-23)
(0.774006 0.264369 1.05275e-20)
(1.03292 0.0104583 -9.24184e-22)
(0.922594 -0.0492619 -2.75666e-21)
(1.01728 0.00584937 0)
(1.00999 8.1666e-05 -9.44355e-22)
(1.02624 0.00156012 0)
(1.01578 -0.00681571 -1.1981e-21)
(1.07914 0.0712722 1.0833e-21)
(0.95411 0.0102227 -1.03139e-22)
(1.01362 0.00189344 -7.0195e-22)
(0.954709 0.220235 -4.57446e-22)
(0.814219 0.145265 7.03255e-22)
(0.963667 0.152845 -9.35164e-22)
(1.02785 0.00947329 1.73893e-20)
(1.03203 0.00981123 9.21839e-22)
(0.796192 0.282129 0)
(1.027 0.0509415 2.24967e-20)
(0.931587 -0.24428 2.22308e-20)
(1.04262 0.0395031 4.45339e-20)
(1.02253 0.004301 2.90464e-23)
(1.01581 0.000799997 6.07604e-22)
(0.937269 0.155314 0)
(0.826492 0.0664082 0)
(1.01412 -0.00392829 0)
(1.03592 0.0169137 -9.06689e-21)
(1.02446 0.0585885 7.31886e-21)
(1.01317 0.0059479 2.01323e-21)
(0.989009 0.0535988 -1.47561e-21)
(1.01338 -0.00391292 3.45248e-23)
(1.0159 0.00503067 1.80669e-21)
(1.00814 -5.58424e-05 0)
(1.03089 0.0476823 -2.31956e-20)
(1.01477 0.00429905 0)
(1.01572 0.00279432 -5.65759e-22)