/*--------------------------------*- C++ -*----------------------------------*\
| =========                 |                                                 |
| \\      /  F ield         | OpenFOAM: The Open Source CFD Toolbox           |
|  \\    /   O peration     | Version:  v2012                                 |
|   \\  /    A nd           | Website:  www.openfoam.com                      |
|    \\/     M anipulation  |                                                 |
\*---------------------------------------------------------------------------*/
FoamFile
{
    version     2.0;
    format      ascii;
    class       volVectorField;
    location    "250";
    object      cellDisplacement;
}
// * * * * * * * * * * * * * * * * * * * * * * * * * * * * * * * * * * * * * //

dimensions      [0 1 0 0 0 0 0];


internalField   nonuniform List<vector> 
18355
(
(0 -4.39612e-05 0)
(0 -0.000128591 0)
(0 -9.53106e-06 0)
(0 -4.37207e-05 0)
(0 -0.000257483 0)
(0 -0.000230767 0)
(0 -0.000235694 0)
(0 -0.000256786 0)
(0 -1.78419e-05 0)
(0 -0.000236939 0)
(0 -0.000110003 0)
(0 -4.19722e-06 0)
(0 -3.94275e-06 0)
(0 -0.000193273 0)
(0 -3.07384e-05 0)
(0 -0.000110747 0)
(0 -4.17846e-05 0)
(0 -0.000132348 0)
(0 -2.00843e-05 0)
(0 -0.0002384 0)
(0 -7.47027e-05 0)
(0 -7.42059e-05 0)
(0 -8.70758e-05 0)
(0 -0.000231983 0)
(0 -8.44103e-05 0)
(0 -0.000208902 0)
(0 -0.000236375 0)
(0 -7.69835e-05 0)
(0 -1.37098e-05 0)
(0 -0.000113126 0)
(0 -0.000237162 0)
(0 -8.36215e-05 0)
(0 -0.000147064 0)
(0 -8.05198e-05 0)
(0 -6.03055e-07 0)
(0 -0.000187291 0)
(0 -3.48836e-05 0)
(0 -0.000189226 0)
(0 -0.000113383 0)
(0 -0.000115507 0)
(0 -4.12442e-06 0)
(0 -0.000110286 0)
(0 -8.46911e-05 0)
(0 -0.000119623 0)
(0 -0.000123837 0)
(0 -1.09651e-06 0)
(0 -0.000119344 0)
(0 -0.000116817 0)
(0 -0.000238726 0)
(0 -0.000221772 0)
(0 -1.51147e-05 0)
(0 -6.73616e-05 0)
(0 -0.000223582 0)
(0 -3.26363e-05 0)
(0 -5.79867e-05 0)
(0 -0.000240042 0)
(0 -4.25185e-06 0)
(0 -0.000119345 0)
(0 -0.00020891 0)
(0 -4.38913e-07 0)
(0 -8.43119e-05 0)
(0 -8.90372e-06 0)
(0 -3.39858e-05 0)
(0 -0.000202252 0)
(0 -7.393e-05 0)
(0 -1.69363e-05 0)
(0 -6.56946e-05 0)
(0 -3.52716e-05 0)
(0 -7.76513e-05 0)
(0 -0.000251284 0)
(0 -0.000207336 0)
(0 -5.99353e-05 0)
(0 -8.51447e-05 0)
(0 -0.000139484 0)
(0 -0.000267356 0)
(0 -8.15254e-05 0)
(0 -0.000118299 0)
(0 -8.50662e-05 0)
(0 -0.000204681 0)
(0 -0.000267649 0)
(0 -6.71537e-05 0)
(0 -0.000269327 0)
(0 -8.11435e-05 0)
(0 -6.94544e-05 0)
(0 -5.18724e-05 0)
(0 -1.1179e-05 0)
(0 -1.54616e-05 0)
(0 -4.65774e-05 0)
(0 -0.000149962 0)
(0 -4.79027e-05 0)
(0 -0.000197247 0)
(0 -7.74064e-05 0)
(0 -0.000268973 0)
(0 -0.00022254 0)
(0 -0.000259778 0)
(0 -0.000196642 0)
(0 -0.000119896 0)
(0 -0.000194667 0)
(0 -2.33839e-05 0)
(0 -7.97701e-05 0)
(0 -5.23095e-05 0)
(0 -0.000200687 0)
(0 -0.000220618 0)
(0 -2.61804e-06 0)
(0 -6.89214e-05 0)
(0 -0.000114747 0)
(0 -7.59038e-05 0)
(0 -0.000260521 0)
(0 -4.22063e-05 0)
(0 -0.000101714 0)
(0 -5.88364e-06 0)
(0 -7.03503e-06 0)
(0 -9.60596e-05 0)
(0 -7.09206e-05 0)
(0 -2.55369e-06 0)
(0 -8.63205e-05 0)
(0 -0.000197916 0)
(0 -0.000268959 0)
(0 -7.74035e-05 0)
(0 -6.47204e-05 0)
(0 -0.000250491 0)
(0 -8.88414e-06 0)
(0 -0.000199505 0)
(0 -4.53983e-05 0)
(0 -0.000269266 0)
(0 -1.27286e-06 0)
(0 -0.0002372 0)
(0 -3.58276e-05 0)
(0 -4.22277e-05 0)
(0 -7.53767e-05 0)
(0 -0.000124504 0)
(0 -6.9255e-05 0)
(0 -9.24246e-05 0)
(0 -1.60938e-05 0)
(0 -5.24108e-05 0)
(0 -0.000157533 0)
(0 -1.90469e-05 0)
(0 -0.000255099 0)
(0 -1.88812e-05 0)
(0 -7.7402e-05 0)
(0 -4.46964e-05 0)
(0 -0.000263204 0)
(0 -0.000128609 0)
(0 -6.03839e-05 0)
(0 -5.37526e-05 0)
(0 -7.52972e-06 0)
(0 -9.60306e-07 0)
(0 -5.76286e-06 0)
(0 -9.804e-05 0)
(0 -1.05633e-05 0)
(0 -7.43304e-05 0)
(0 -6.50411e-05 0)
(0 -0.000211574 0)
(0 -0.00025631 0)
(0 -8.8405e-05 0)
(0 -4.2871e-05 0)
(0 -3.29235e-05 0)
(0 -1.40913e-05 0)
(0 -0.000130436 0)
(0 -3.70098e-05 0)
(0 -0.000125274 0)
(0 -9.4288e-05 0)
(0 -0.000102643 0)
(0 -0.000259701 0)
(0 -0.000132032 0)
(0 -0.000237082 0)
(0 -7.47975e-07 0)
(0 -4.6773e-05 0)
(0 -9.31915e-05 0)
(0 -4.56393e-05 0)
(0 -6.03792e-06 0)
(0 -1.6585e-05 0)
(0 -1.07356e-05 0)
(0 -0.000240232 0)
(0 -2.7729e-06 0)
(0 -5.59392e-06 0)
(0 -8.58734e-06 0)
(0 -2.93766e-06 0)
(0 -4.04937e-05 0)
(0 -6.82481e-05 0)
(0 -1.19239e-05 0)
(0 -0.000234874 0)
(0 -7.55397e-05 0)
(0 -8.7508e-05 0)
(0 -0.00023444 0)
(0 -0.000221056 0)
(0 -1.82613e-05 0)
(0 -5.11198e-05 0)
(0 -2.44409e-05 0)
(0 -0.000238525 0)
(0 -1.31476e-06 0)
(0 -2.25555e-05 0)
(0 -0.000136268 0)
(0 -9.48828e-05 0)
(0 -6.05027e-06 0)
(0 -3.1571e-06 0)
(0 -1.8712e-05 0)
(0 -4.34607e-05 0)
(0 -0.000132564 0)
(0 -0.000195681 0)
(0 -0.000218725 0)
(0 -0.000145305 0)
(0 -0.000116207 0)
(0 -1.64448e-05 0)
(0 -4.52761e-05 0)
(0 -6.99483e-05 0)
(0 -9.51741e-05 0)
(0 -8.82671e-05 0)
(0 -0.000138778 0)
(0 -0.0002138 0)
(0 -9.32229e-05 0)
(0 -0.00023341 0)
(0 -0.00021576 0)
(0 -0.000213848 0)
(0 -5.50905e-06 0)
(0 -0.000241933 0)
(0 -6.9898e-05 0)
(0 -3.54287e-05 0)
(0 -7.26753e-05 0)
(0 -0.000129884 0)
(0 -4.27682e-05 0)
(0 -7.97205e-05 0)
(0 -4.57927e-05 0)
(0 -0.000185138 0)
(0 -0.000246656 0)
(0 -0.000247331 0)
(0 -8.36473e-05 0)
(0 -0.000255507 0)
(0 -4.59991e-05 0)
(0 -8.02826e-05 0)
(0 -0.000231522 0)
(0 -6.74539e-05 0)
(0 -0.000172819 0)
(0 -8.27551e-05 0)
(0 -0.000260221 0)
(0 -0.000245356 0)
(0 -4.54519e-05 0)
(0 -1.09455e-06 0)
(0 -2.86663e-05 0)
(0 -0.000214832 0)
(0 -0.000141295 0)
(0 -4.08668e-05 0)
(0 -0.000212788 0)
(0 -7.79055e-05 0)
(0 -7.17704e-05 0)
(0 -5.38497e-05 0)
(0 -0.000106686 0)
(0 -0.000234286 0)
(0 -0.000233374 0)
(0 -0.000215273 0)
(0 -0.000204266 0)
(0 -0.000234477 0)
(0 -7.39016e-06 0)
(0 -0.000187127 0)
(0 -3.4802e-06 0)
(0 -0.000182735 0)
(0 -2.93622e-05 0)
(0 -8.20052e-06 0)
(0 -0.000247145 0)
(0 -0.000119691 0)
(0 -7.95958e-06 0)
(0 -0.000257484 0)
(0 -2.30131e-05 0)
(0 -2.24268e-05 0)
(0 -0.000116561 0)
(0 -0.00023256 0)
(0 -0.000261052 0)
(0 -2.37622e-05 0)
(0 -0.000121214 0)
(0 -5.60489e-05 0)
(0 -0.000240431 0)
(0 -0.00010434 0)
(0 -0.000147898 0)
(0 -3.44712e-05 0)
(0 -7.16548e-05 0)
(0 -8.78404e-05 0)
(0 -0.000157891 0)
(0 -0.000154417 0)
(0 -4.42921e-05 0)
(0 -0.000251154 0)
(0 -0.000154237 0)
(0 -9.27032e-05 0)
(0 -8.85668e-05 0)
(0 -0.000100449 0)
(0 -4.3771e-05 0)
(0 -6.6601e-05 0)
(0 -7.07237e-05 0)
(0 -4.49234e-06 0)
(0 -7.12203e-05 0)
(0 -1.01079e-05 0)
(0 -0.000143446 0)
(0 -2.02469e-05 0)
(0 -7.36195e-05 0)
(0 -0.000244523 0)
(0 -0.00026047 0)
(0 -2.50369e-05 0)
(0 -9.16419e-05 0)
(0 -4.4671e-05 0)
(0 -8.95541e-05 0)
(0 -0.000262624 0)
(0 -3.30396e-05 0)
(0 -0.000176054 0)
(0 -3.97507e-05 0)
(0 -2.23897e-05 0)
(0 -0.000140055 0)
(0 -0.000158398 0)
(0 -0.000216954 0)
(0 -3.09327e-05 0)
(0 -2.30035e-05 0)
(0 -2.08112e-05 0)
(0 -0.000167731 0)
(0 -8.40684e-06 0)
(0 -0.000140427 0)
(0 -0.000199218 0)
(0 -3.58458e-05 0)
(0 -8.84908e-05 0)
(0 -0.000137448 0)
(0 -0.000118411 0)
(0 -9.56097e-05 0)
(0 -1.28933e-05 0)
(0 -7.98183e-06 0)
(0 -1.06434e-05 0)
(0 -0.000165472 0)
(0 -0.000154691 0)
(0 -4.36046e-05 0)
(0 -0.000268383 0)
(0 -8.40691e-06 0)
(0 -6.89264e-05 0)
(0 -4.46155e-05 0)
(0 -6.69854e-05 0)
(0 -7.82314e-05 0)
(0 -5.43227e-07 0)
(0 -0.000274115 0)
(0 -0.000122525 0)
(0 -0.000270464 0)
(0 -1.24199e-05 0)
(0 -0.000114122 0)
(0 -0.000144187 0)
(0 -4.50342e-06 0)
(0 -4.82182e-05 0)
(0 -7.60491e-05 0)
(0 -0.000162861 0)
(0 -9.31267e-05 0)
(0 -0.000152752 0)
(0 -6.69662e-05 0)
(0 -0.000237475 0)
(0 -0.000238933 0)
(0 -0.000154204 0)
(0 -1.39873e-05 0)
(0 -8.4371e-06 0)
(0 -8.85623e-05 0)
(0 -0.000159963 0)
(0 -5.78085e-06 0)
(0 -0.000235662 0)
(0 -0.000101097 0)
(0 -0.0002292 0)
(0 -7.18067e-05 0)
(0 -6.63721e-06 0)
(0 -7.35017e-05 0)
(0 -8.85062e-05 0)
(0 -1.64807e-05 0)
(0 -8.07908e-05 0)
(0 -5.115e-07 0)
(0 -0.000178744 0)
(0 -8.56567e-05 0)
(0 -0.000121672 0)
(0 -0.000243593 0)
(0 -9.47962e-05 0)
(0 -1.23825e-05 0)
(0 -0.00026951 0)
(0 -0.00018079 0)
(0 -0.00016156 0)
(0 -6.8583e-05 0)
(0 -4.5609e-05 0)
(0 -4.09354e-06 0)
(0 -0.0002307 0)
(0 -0.000184811 0)
(0 -3.00879e-05 0)
(0 -0.000134125 0)
(0 -0.000241999 0)
(0 -0.000258092 0)
(0 -8.09366e-05 0)
(0 -1.86713e-05 0)
(0 -0.00012967 0)
(0 -2.26495e-05 0)
(0 -0.000221131 0)
(0 -6.92729e-06 0)
(0 -0.000100636 0)
(0 -0.0002137 0)
(0 -6.36218e-05 0)
(0 -1.3598e-05 0)
(0 -9.98725e-05 0)
(0 -0.000149097 0)
(0 -0.000243212 0)
(0 -1.28032e-05 0)
(0 -4.0041e-06 0)
(0 -0.000178873 0)
(0 -0.000245192 0)
(0 -7.95486e-06 0)
(0 -0.00025626 0)
(0 -1.07039e-05 0)
(0 -1.09012e-07 0)
(0 -2.0885e-05 0)
(0 -2.66613e-05 0)
(0 -0.000161912 0)
(0 -0.000233248 0)
(0 -0.000139137 0)
(0 -0.000268426 0)
(0 -0.0002482 0)
(0 -4.99871e-05 0)
(0 -2.6407e-05 0)
(0 -1.89825e-06 0)
(0 -1.33158e-05 0)
(0 -7.80173e-05 0)
(0 -7.31863e-05 0)
(0 -7.66505e-05 0)
(0 -1.43574e-05 0)
(0 -0.000240913 0)
(0 -7.86436e-06 0)
(0 -7.6417e-05 0)
(0 -1.62891e-05 0)
(0 -1.61078e-05 0)
(0 -0.000257029 0)
(0 -2.28079e-05 0)
(0 -0.000123422 0)
(0 -0.0001503 0)
(0 -2.23028e-05 0)
(0 -7.57496e-05 0)
(0 -0.000220097 0)
(0 -0.00023647 0)
(0 -0.000256263 0)
(0 -7.0062e-05 0)
(0 -2.02704e-05 0)
(0 -1.32558e-05 0)
(0 -0.000146254 0)
(0 -0.000110455 0)
(0 -7.56639e-05 0)
(0 -0.000131253 0)
(0 -3.41813e-05 0)
(0 -9.04048e-05 0)
(0 -0.000218467 0)
(0 -2.19474e-05 0)
(0 -2.76713e-05 0)
(0 -0.000119858 0)
(0 -0.000226359 0)
(0 -0.00024682 0)
(0 -3.79261e-06 0)
(0 -0.000130353 0)
(0 -5.09689e-06 0)
(0 -1.02193e-05 0)
(0 -4.28435e-06 0)
(0 -0.000258042 0)
(0 -9.17464e-05 0)
(0 -0.000241324 0)
(0 -4.42372e-05 0)
(0 -5.40839e-05 0)
(0 -2.8361e-06 0)
(0 -9.1135e-06 0)
(0 -7.44268e-05 0)
(0 -2.57388e-05 0)
(0 -3.47769e-05 0)
(0 -3.63847e-06 0)
(0 -0.000183387 0)
(0 -0.000125689 0)
(0 -4.01988e-05 0)
(0 -1.67312e-05 0)
(0 -0.000129516 0)
(0 -4.03492e-05 0)
(0 -7.27293e-05 0)
(0 -9.90735e-05 0)
(0 -8.29187e-05 0)
(0 -6.34296e-05 0)
(0 -0.00014034 0)
(0 -7.26207e-05 0)
(0 -6.29738e-06 0)
(0 -7.76918e-05 0)
(0 -2.31815e-05 0)
(0 -8.56055e-05 0)
(0 -0.000120927 0)
(0 -5.40893e-05 0)
(0 -0.000124769 0)
(0 -1.00483e-05 0)
(0 -4.47798e-06 0)
(0 -7.83963e-05 0)
(0 -0.000133187 0)
(0 -0.000120879 0)
(0 -8.7388e-05 0)
(0 -0.000216041 0)
(0 -0.000137649 0)
(0 -0.000200069 0)
(0 -7.59328e-05 0)
(0 -3.2366e-05 0)
(0 -4.22711e-05 0)
(0 -0.000145506 0)
(0 -0.000198899 0)
(0 -3.23609e-05 0)
(0 -4.19569e-05 0)
(0 -3.43699e-05 0)
(0 -7.43848e-05 0)
(0 -9.86192e-06 0)
(0 -7.39447e-05 0)
(0 -7.51228e-05 0)
(0 -9.302e-06 0)
(0 -1.03411e-05 0)
(0 -0.000199733 0)
(0 -7.45962e-05 0)
(0 -0.000153246 0)
(0 -6.15814e-05 0)
(0 -5.24624e-05 0)
(0 1.39829e-07 0)
(0 -5.54844e-05 0)
(0 -0.000186275 0)
(0 -0.000186668 0)
(0 -2.1177e-05 0)
(0 -4.6693e-05 0)
(0 -1.40678e-05 0)
(0 -2.77621e-05 0)
(0 -0.000111085 0)
(0 1.13024e-07 0)
(0 -7.45867e-05 0)
(0 -1.65959e-05 0)
(0 -8.54418e-05 0)
(0 -0.000151192 0)
(0 -7.94432e-05 0)
(0 -5.37773e-05 0)
(0 -5.63643e-05 0)
(0 -0.00026655 0)
(0 -0.000185509 0)
(0 -0.000148761 0)
(0 -0.000259913 0)
(0 -0.000144035 0)
(0 -5.6601e-05 0)
(0 -6.78459e-05 0)
(0 -5.22032e-05 0)
(0 -0.000192666 0)
(0 -7.48575e-05 0)
(0 -0.000243418 0)
(0 -4.64216e-06 0)
(0 -0.000124737 0)
(0 -0.00020478 0)
(0 -8.34449e-05 0)
(0 -9.88621e-05 0)
(0 -0.000117687 0)
(0 -9.14974e-05 0)
(0 -0.000206124 0)
(0 -0.000172463 0)
(0 -6.60358e-05 0)
(0 -5.00197e-05 0)
(0 -0.000271207 0)
(0 -0.000123102 0)
(0 -0.000126092 0)
(0 -0.000197692 0)
(0 -1.2672e-05 0)
(0 -3.85538e-06 0)
(0 -9.02007e-05 0)
(0 -7.26076e-05 0)
(0 -4.20973e-05 0)
(0 -3.39512e-05 0)
(0 -5.37017e-06 0)
(0 -1.937e-05 0)
(0 -7.9279e-05 0)
(0 -5.69229e-05 0)
(0 -5.39154e-06 0)
(0 -0.00010095 0)
(0 -2.30346e-05 0)
(0 -2.71892e-05 0)
(0 -1.22346e-05 0)
(0 -8.12961e-05 0)
(0 -2.34093e-05 0)
(0 -2.70779e-05 0)
(0 -1.30102e-05 0)
(0 -1.97589e-05 0)
(0 -8.37037e-06 0)
(0 -0.000124694 0)
(0 -1.10495e-05 0)
(0 -1.43557e-07 0)
(0 -0.000156416 0)
(0 -6.76369e-06 0)
(0 -0.000254133 0)
(0 -0.000245234 0)
(0 -3.43976e-06 0)
(0 -7.66866e-05 0)
(0 -0.000241794 0)
(0 -0.000273309 0)
(0 -9.98014e-06 0)
(0 -4.26314e-05 0)
(0 -0.000185982 0)
(0 -6.64446e-06 0)
(0 -8.64166e-05 0)
(0 -8.52145e-05 0)
(0 -4.28963e-05 0)
(0 -1.04824e-06 0)
(0 -0.000109634 0)
(0 -0.000176851 0)
(0 -9.9419e-05 0)
(0 -7.23043e-06 0)
(0 -5.08128e-05 0)
(0 -7.07689e-06 0)
(0 -0.000232756 0)
(0 -5.3996e-05 0)
(0 -0.000238316 0)
(0 -1.81669e-05 0)
(0 -0.000256496 0)
(0 -7.97173e-06 0)
(0 -0.000105268 0)
(0 -3.88749e-05 0)
(0 -4.96332e-05 0)
(0 -3.20596e-05 0)
(0 -7.88618e-05 0)
(0 -0.00011366 0)
(0 -4.62097e-05 0)
(0 -0.000211067 0)
(0 -0.000136695 0)
(0 -9.64301e-05 0)
(0 -8.2328e-06 0)
(0 -5.3263e-05 0)
(0 -7.36299e-05 0)
(0 -0.000153681 0)
(0 -0.000135936 0)
(0 -0.000133279 0)
(0 -0.000109261 0)
(0 -6.90348e-06 0)
(0 -0.000123524 0)
(0 -4.39945e-05 0)
(0 -0.000143662 0)
(0 -6.09362e-06 0)
(0 -0.00025688 0)
(0 -2.09853e-05 0)
(0 -2.74565e-06 0)
(0 -0.00027329 0)
(0 -0.000223479 0)
(0 -0.00021193 0)
(0 -1.29209e-05 0)
(0 -0.000235356 0)
(0 -1.35566e-05 0)
(0 -0.000129701 0)
(0 -4.1201e-05 0)
(0 -5.18173e-05 0)
(0 -7.72922e-05 0)
(0 -2.04798e-05 0)
(0 -0.000218125 0)
(0 -2.10561e-05 0)
(0 -9.5541e-06 0)
(0 -0.000265182 0)
(0 -0.000249438 0)
(0 -0.000264325 0)
(0 -5.10074e-05 0)
(0 -0.000120135 0)
(0 -7.28148e-05 0)
(0 -0.000126917 0)
(0 -8.19001e-05 0)
(0 -0.000272403 0)
(0 -0.000256569 0)
(0 -1.2905e-05 0)
(0 -0.000125463 0)
(0 -4.45876e-05 0)
(0 -8.75244e-06 0)
(0 -0.000110101 0)
(0 -2.01382e-05 0)
(0 -9.15677e-06 0)
(0 -8.00211e-05 0)
(0 -0.000243784 0)
(0 -5.4108e-05 0)
(0 -3.29211e-05 0)
(0 -2.63797e-05 0)
(0 -5.34507e-05 0)
(0 -7.69389e-05 0)
(0 -7.94475e-05 0)
(0 -0.000174151 0)
(0 -0.000104006 0)
(0 -3.20063e-05 0)
(0 -6.2025e-05 0)
(0 -2.51725e-05 0)
(0 -4.58746e-05 0)
(0 -0.000257512 0)
(0 -0.000127895 0)
(0 -0.000262843 0)
(0 -2.59558e-06 0)
(0 -5.45542e-05 0)
(0 -4.32003e-05 0)
(0 -8.42197e-05 0)
(0 -9.99201e-06 0)
(0 -5.27846e-05 0)
(0 -5.74478e-06 0)
(0 -6.41474e-06 0)
(0 -8.16352e-05 0)
(0 -0.000128753 0)
(0 -6.20531e-05 0)
(0 -2.50448e-05 0)
(0 -4.26133e-05 0)
(0 -5.36014e-05 0)
(0 -9.69737e-05 0)
(0 -9.38043e-06 0)
(0 -0.000129477 0)
(0 -8.02914e-05 0)
(0 -4.69513e-05 0)
(0 -5.15852e-05 0)
(0 -1.37474e-05 0)
(0 -5.0329e-06 0)
(0 -0.000222001 0)
(0 -0.000262227 0)
(0 -0.000250545 0)
(0 -0.000107971 0)
(0 -6.87088e-05 0)
(0 -7.48391e-05 0)
(0 -8.20994e-05 0)
(0 -8.16859e-06 0)
(0 -7.96602e-05 0)
(0 -9.53601e-05 0)
(0 -0.000109376 0)
(0 -0.000127747 0)
(0 -3.37515e-05 0)
(0 -7.08119e-06 0)
(0 -0.000131221 0)
(0 -2.03968e-05 0)
(0 -0.000238345 0)
(0 -0.000196809 0)
(0 -0.000124323 0)
(0 -0.000250926 0)
(0 -0.000256819 0)
(0 -0.000140594 0)
(0 -9.78028e-06 0)
(0 -4.65282e-05 0)
(0 -8.6689e-05 0)
(0 -0.000244996 0)
(0 -1.01435e-05 0)
(0 -1.17632e-05 0)
(0 -0.000258328 0)
(0 -5.62476e-06 0)
(0 -0.000174974 0)
(0 -1.88016e-05 0)
(0 -4.49524e-06 0)
(0 -2.24617e-05 0)
(0 -8.13556e-05 0)
(0 -0.000260627 0)
(0 -1.03463e-05 0)
(0 -2.89741e-05 0)
(0 -0.000264568 0)
(0 -6.25174e-05 0)
(0 -0.000233036 0)
(0 -3.5243e-05 0)
(0 -0.000158631 0)
(0 -8.00462e-06 0)
(0 -4.57414e-05 0)
(0 -2.18268e-05 0)
(0 -4.62882e-05 0)
(0 -0.000220625 0)
(0 -9.08828e-05 0)
(0 -0.000131459 0)
(0 -8.84275e-07 0)
(0 -0.000114956 0)
(0 -0.000259957 0)
(0 -0.000240041 0)
(0 -3.29525e-05 0)
(0 -7.99308e-05 0)
(0 -6.04499e-06 0)
(0 -9.35395e-05 0)
(0 -6.30211e-05 0)
(0 -8.47404e-06 0)
(0 -0.000142421 0)
(0 -7.88593e-05 0)
(0 -0.000115169 0)
(0 -0.00011931 0)
(0 -0.000233903 0)
(0 -0.00012425 0)
(0 -0.000234248 0)
(0 -8.25012e-05 0)
(0 -0.000119225 0)
(0 -1.79638e-05 0)
(0 -7.53605e-05 0)
(0 -0.000167667 0)
(0 -0.000164324 0)
(0 -2.78533e-06 0)
(0 -7.96357e-05 0)
(0 -4.36263e-05 0)
(0 -0.000118196 0)
(0 -3.64567e-06 0)
(0 -9.17057e-05 0)
(0 -8.32845e-05 0)
(0 -0.000162596 0)
(0 -0.000233824 0)
(0 -0.00012779 0)
(0 -0.000159503 0)
(0 -0.00011378 0)
(0 -0.000132269 0)
(0 -0.000134716 0)
(0 -7.69915e-05 0)
(0 -0.000143866 0)
(0 -7.87537e-05 0)
(0 -8.00221e-05 0)
(0 -0.00012557 0)
(0 -4.67205e-05 0)
(0 -0.000199138 0)
(0 -0.00012877 0)
(0 -7.13642e-05 0)
(0 -2.83813e-05 0)
(0 -1.8595e-05 0)
(0 -0.000153652 0)
(0 -2.74108e-05 0)
(0 -9.79698e-05 0)
(0 -0.00025544 0)
(0 -0.000196811 0)
(0 -0.000236203 0)
(0 2.33777e-08 0)
(0 -1.42774e-05 0)
(0 -0.000146315 0)
(0 -7.1402e-05 0)
(0 -0.000127573 0)
(0 -0.000181726 0)
(0 -0.000136115 0)
(0 -7.33627e-05 0)
(0 -0.000258371 0)
(0 -7.42407e-05 0)
(0 -2.67368e-05 0)
(0 -0.000183938 0)
(0 -5.54251e-06 0)
(0 -8.5457e-05 0)
(0 -1.56442e-05 0)
(0 -3.06137e-05 0)
(0 -1.67558e-06 0)
(0 -0.000127286 0)
(0 -2.265e-05 0)
(0 -1.54872e-05 0)
(0 -0.000274053 0)
(0 -2.667e-05 0)
(0 -3.70986e-05 0)
(0 -7.92195e-05 0)
(0 -1.24059e-05 0)
(0 -0.000119683 0)
(0 -0.000188827 0)
(0 -6.38796e-05 0)
(0 -2.10147e-05 0)
(0 -0.000238262 0)
(0 -0.000269508 0)
(0 -3.70346e-05 0)
(0 -3.96257e-05 0)
(0 -0.000101744 0)
(0 -4.84728e-05 0)
(0 -3.90029e-06 0)
(0 -2.5489e-05 0)
(0 -4.92638e-05 0)
(0 -8.87617e-06 0)
(0 -5.39075e-07 0)
(0 -0.000126716 0)
(0 -0.00012555 0)
(0 -7.99268e-05 0)
(0 -5.1636e-05 0)
(0 -1.41343e-05 0)
(0 -0.000250494 0)
(0 -1.44968e-05 0)
(0 -8.76233e-06 0)
(0 -0.000141388 0)
(0 -7.45211e-05 0)
(0 -0.000220645 0)
(0 -0.000192727 0)
(0 5.61966e-08 0)
(0 -0.000251333 0)
(0 -8.57231e-05 0)
(0 -7.85393e-05 0)
(0 -1.68214e-05 0)
(0 -0.000128942 0)
(0 -0.000153507 0)
(0 -0.000228966 0)
(0 -3.6835e-06 0)
(0 -6.75147e-05 0)
(0 -0.00018581 0)
(0 -0.000142166 0)
(0 -0.000103644 0)
(0 -0.000134757 0)
(0 -9.14104e-05 0)
(0 -0.000151972 0)
(0 -0.000102441 0)
(0 -0.000253883 0)
(0 -0.000112718 0)
(0 -9.37252e-06 0)
(0 -6.53043e-06 0)
(0 -0.000141501 0)
(0 -0.000248086 0)
(0 -0.000242482 0)
(0 -4.45994e-05 0)
(0 -1.31835e-05 0)
(0 -0.000228731 0)
(0 -1.00143e-05 0)
(0 -3.37992e-05 0)
(0 -8.69623e-05 0)
(0 -0.00024763 0)
(0 -1.33061e-05 0)
(0 -0.000129028 0)
(0 -0.000232148 0)
(0 -9.44018e-05 0)
(0 -0.000195639 0)
(0 -3.02648e-05 0)
(0 -0.000130013 0)
(0 -0.00016061 0)
(0 -1.32488e-05 0)
(0 -2.18219e-05 0)
(0 -0.000171232 0)
(0 -3.86609e-05 0)
(0 -0.000101137 0)
(0 -2.52754e-05 0)
(0 -3.56849e-05 0)
(0 -7.87026e-05 0)
(0 -4.3132e-05 0)
(0 -0.000210577 0)
(0 -0.000260476 0)
(0 -0.000170437 0)
(0 -3.32535e-06 0)
(0 -9.37374e-05 0)
(0 -0.000174032 0)
(0 -8.09882e-05 0)
(0 -0.000175524 0)
(0 -0.000129583 0)
(0 -7.88929e-05 0)
(0 -0.000201964 0)
(0 -2.15071e-05 0)
(0 -0.000210409 0)
(0 -4.87441e-06 0)
(0 -9.49012e-05 0)
(0 -3.2911e-05 0)
(0 -0.00017211 0)
(0 -9.60392e-05 0)
(0 -0.000248737 0)
(0 -0.000237964 0)
(0 -8.57772e-05 0)
(0 -9.58417e-05 0)
(0 -9.39853e-05 0)
(0 -1.98179e-05 0)
(0 -0.000133045 0)
(0 -0.000211812 0)
(0 -0.000258819 0)
(0 -0.000240465 0)
(0 -0.000177753 0)
(0 -0.000170248 0)
(0 -1.65907e-05 0)
(0 -1.37071e-05 0)
(0 -1.68517e-05 0)
(0 -0.000123556 0)
(0 -9.30808e-05 0)
(0 -0.000138716 0)
(0 -0.000250844 0)
(0 -0.000257542 0)
(0 -0.000156186 0)
(0 -3.63108e-05 0)
(0 -0.00024512 0)
(0 -0.000156247 0)
(0 -0.000110861 0)
(0 -2.75198e-05 0)
(0 -2.84278e-05 0)
(0 -0.000158457 0)
(0 -0.000106844 0)
(0 -4.89968e-05 0)
(0 -8.05713e-05 0)
(0 -0.000118646 0)
(0 -3.93825e-05 0)
(0 -0.000116016 0)
(0 -0.000171564 0)
(0 -0.000118483 0)
(0 -4.73219e-05 0)
(0 -6.54617e-06 0)
(0 -2.92138e-05 0)
(0 -2.08512e-05 0)
(0 -3.95261e-05 0)
(0 -3.12289e-06 0)
(0 -2.26237e-05 0)
(0 -8.17975e-05 0)
(0 -0.000176856 0)
(0 -0.000161794 0)
(0 -0.000104582 0)
(0 -6.70872e-05 0)
(0 -0.000273131 0)
(0 -0.00018845 0)
(0 -0.000260675 0)
(0 -3.35902e-05 0)
(0 -0.000265298 0)
(0 -1.26661e-05 0)
(0 -0.000242817 0)
(0 -1.56975e-05 0)
(0 -0.000162666 0)
(0 -0.000174452 0)
(0 -8.99906e-05 0)
(0 -0.000138015 0)
(0 -3.59665e-05 0)
(0 -2.56274e-05 0)
(0 -1.99374e-05 0)
(0 -6.87283e-06 0)
(0 -7.36354e-05 0)
(0 -5.14269e-05 0)
(0 -0.000113254 0)
(0 -9.0547e-06 0)
(0 -0.000146183 0)
(0 -0.00025247 0)
(0 -0.000137692 0)
(0 -9.47327e-05 0)
(0 -0.000222416 0)
(0 -1.95837e-05 0)
(0 -0.000174965 0)
(0 -0.000126213 0)
(0 -3.506e-05 0)
(0 -0.000107433 0)
(0 -1.26229e-05 0)
(0 -6.69972e-06 0)
(0 -0.000133943 0)
(0 -4.77314e-06 0)
(0 -0.000222733 0)
(0 -4.03152e-06 0)
(0 -0.00014543 0)
(0 -0.000114789 0)
(0 -0.000265975 0)
(0 -4.63009e-05 0)
(0 -0.000107174 0)
(0 -9.64582e-05 0)
(0 -1.02124e-05 0)
(0 -0.000108005 0)
(0 -0.000132287 0)
(0 -5.98352e-05 0)
(0 -8.34754e-05 0)
(0 -0.000132023 0)
(0 -4.51624e-05 0)
(0 -8.51327e-05 0)
(0 -0.000157333 0)
(0 -8.26389e-05 0)
(0 -9.79058e-06 0)
(0 -3.85237e-05 0)
(0 -0.000134787 0)
(0 -3.35893e-05 0)
(0 -4.70585e-05 0)
(0 -2.06707e-05 0)
(0 -1.65724e-05 0)
(0 -0.000128481 0)
(0 -0.000111338 0)
(0 -0.000247132 0)
(0 -0.000235529 0)
(0 -0.000162001 0)
(0 -7.97489e-05 0)
(0 -7.15148e-05 0)
(0 -8.04566e-06 0)
(0 -0.000110445 0)
(0 -3.93728e-05 0)
(0 -7.20696e-05 0)
(0 -5.30877e-05 0)
(0 -0.000136208 0)
(0 -1.91614e-06 0)
(0 -6.23195e-05 0)
(0 -0.000220451 0)
(0 -0.000262196 0)
(0 -0.000125636 0)
(0 -0.000251926 0)
(0 -0.00010435 0)
(0 -4.88576e-05 0)
(0 -1.75069e-05 0)
(0 -1.30295e-06 0)
(0 -3.88573e-06 0)
(0 -2.5718e-05 0)
(0 -4.9761e-06 0)
(0 -0.000138288 0)
(0 -0.000151624 0)
(0 -9.27886e-05 0)
(0 -0.000241232 0)
(0 -6.03289e-05 0)
(0 -8.41594e-05 0)
(0 -0.000104793 0)
(0 -8.05315e-05 0)
(0 -0.000203748 0)
(0 -6.52171e-06 0)
(0 -0.000140681 0)
(0 -6.24937e-05 0)
(0 -0.000158709 0)
(0 -8.46133e-05 0)
(0 -7.86398e-06 0)
(0 -3.0234e-06 0)
(0 -7.04222e-06 0)
(0 -8.87357e-05 0)
(0 -0.000238085 0)
(0 -7.43527e-05 0)
(0 -0.000180686 0)
(0 -3.24073e-06 0)
(0 -3.62211e-05 0)
(0 -9.70049e-06 0)
(0 -9.23049e-05 0)
(0 -6.83738e-05 0)
(0 -5.75253e-06 0)
(0 -6.10087e-05 0)
(0 -7.17741e-05 0)
(0 -1.48667e-05 0)
(0 -0.000181326 0)
(0 -1.66197e-05 0)
(0 -0.000108121 0)
(0 -1.52304e-05 0)
(0 -5.46554e-05 0)
(0 -7.94645e-05 0)
(0 -0.00024915 0)
(0 -0.000123492 0)
(0 -7.29308e-05 0)
(0 -4.15822e-05 0)
(0 -0.000192045 0)
(0 -1.2668e-06 0)
(0 -6.59685e-06 0)
(0 -5.09863e-05 0)
(0 -3.87513e-05 0)
(0 -9.86912e-05 0)
(0 -6.49282e-05 0)
(0 -1.69293e-05 0)
(0 -3.6369e-06 0)
(0 -0.000177007 0)
(0 -4.47166e-05 0)
(0 -0.00021804 0)
(0 -2.83027e-06 0)
(0 -0.000272365 0)
(0 -4.54874e-05 0)
(0 -3.48172e-05 0)
(0 -1.97461e-05 0)
(0 -3.37458e-06 0)
(0 -0.000148118 0)
(0 -0.000234519 0)
(0 -0.000124333 0)
(0 -0.000272219 0)
(0 -8.64659e-05 0)
(0 -2.08444e-05 0)
(0 -0.000241935 0)
(0 -6.3445e-05 0)
(0 -8.4043e-06 0)
(0 -5.12068e-05 0)
(0 -0.000125866 0)
(0 -0.000153772 0)
(0 -0.000257859 0)
(0 -0.000230368 0)
(0 -6.47203e-05 0)
(0 -7.29011e-05 0)
(0 -8.39176e-05 0)
(0 -5.01539e-06 0)
(0 -0.00012178 0)
(0 -0.00015681 0)
(0 -3.66005e-05 0)
(0 -9.44189e-05 0)
(0 -6.54031e-05 0)
(0 -8.34562e-05 0)
(0 -2.6863e-05 0)
(0 -0.000141732 0)
(0 -0.00024373 0)
(0 -0.000167357 0)
(0 -0.000128465 0)
(0 -0.000123202 0)
(0 -1.32495e-05 0)
(0 -0.000124986 0)
(0 -0.000240226 0)
(0 -1.33276e-05 0)
(0 -7.51025e-05 0)
(0 -9.1535e-05 0)
(0 -7.55204e-05 0)
(0 -0.000186587 0)
(0 -0.000107068 0)
(0 -0.000193928 0)
(0 -0.000122814 0)
(0 -0.000263269 0)
(0 -0.000257899 0)
(0 -0.000191209 0)
(0 -7.94683e-06 0)
(0 -2.38394e-05 0)
(0 -1.44608e-05 0)
(0 -5.21614e-05 0)
(0 -5.95313e-05 0)
(0 -0.000263064 0)
(0 -0.000227557 0)
(0 -8.28919e-05 0)
(0 -8.54223e-05 0)
(0 -9.06999e-05 0)
(0 -4.36115e-05 0)
(0 -0.000134418 0)
(0 -0.000137036 0)
(0 -2.0587e-05 0)
(0 -8.21354e-05 0)
(0 -2.95429e-06 0)
(0 -7.0696e-05 0)
(0 -7.31419e-05 0)
(0 -8.14587e-05 0)
(0 -8.26113e-06 0)
(0 -3.67684e-05 0)
(0 -1.36685e-06 0)
(0 -0.000221573 0)
(0 -4.64251e-05 0)
(0 -9.70024e-05 0)
(0 -0.000114369 0)
(0 -0.00025182 0)
(0 -6.17552e-05 0)
(0 -5.3695e-05 0)
(0 -2.21081e-05 0)
(0 -0.00012904 0)
(0 -1.6138e-05 0)
(0 -1.91862e-05 0)
(0 -0.000163978 0)
(0 -4.17596e-05 0)
(0 -0.000155113 0)
(0 -0.000223768 0)
(0 -8.80337e-05 0)
(0 -0.000120704 0)
(0 -1.15913e-05 0)
(0 -8.04952e-05 0)
(0 -0.000102154 0)
(0 -0.000220069 0)
(0 -0.000115648 0)
(0 -5.50155e-05 0)
(0 -4.33891e-06 0)
(0 -0.000195646 0)
(0 -0.000253781 0)
(0 -8.26695e-05 0)
(0 -7.23927e-05 0)
(0 -0.000206481 0)
(0 -0.000233259 0)
(0 -4.70711e-05 0)
(0 -0.000139321 0)
(0 -7.12376e-05 0)
(0 -0.000117044 0)
(0 -0.000263994 0)
(0 -2.99058e-06 0)
(0 -0.000148406 0)
(0 -4.40617e-05 0)
(0 -2.24854e-05 0)
(0 -2.70262e-05 0)
(0 -4.69538e-06 0)
(0 -7.43217e-05 0)
(0 -0.000226538 0)
(0 -0.000187944 0)
(0 -0.000135019 0)
(0 -0.000122665 0)
(0 -5.23941e-05 0)
(0 -7.55444e-05 0)
(0 -5.60544e-05 0)
(0 -0.000233994 0)
(0 -0.000152586 0)
(0 -2.67528e-05 0)
(0 -7.20231e-05 0)
(0 -0.00019501 0)
(0 -0.00015528 0)
(0 -7.73818e-05 0)
(0 -4.3592e-05 0)
(0 -8.73319e-06 0)
(0 -0.000116657 0)
(0 -0.000167268 0)
(0 -0.000205972 0)
(0 -1.59597e-05 0)
(0 -0.000199917 0)
(0 -5.42529e-05 0)
(0 -2.43572e-05 0)
(0 -0.000179576 0)
(0 -8.3589e-05 0)
(0 -0.00011025 0)
(0 -5.01877e-05 0)
(0 -0.000149983 0)
(0 -0.000106042 0)
(0 -3.60866e-06 0)
(0 -8.55019e-05 0)
(0 -0.000107543 0)
(0 -0.000259126 0)
(0 -2.19911e-05 0)
(0 -8.63459e-05 0)
(0 -0.000191332 0)
(0 -0.000186732 0)
(0 -3.67126e-05 0)
(0 -1.08469e-06 0)
(0 -1.30814e-05 0)
(0 -8.06534e-05 0)
(0 -2.4879e-05 0)
(0 -3.89985e-05 0)
(0 -5.21655e-05 0)
(0 -0.00027319 0)
(0 -0.000111512 0)
(0 -4.18052e-05 0)
(0 -3.16686e-05 0)
(0 -8.99062e-06 0)
(0 -0.000128969 0)
(0 -8.56507e-05 0)
(0 -0.00012503 0)
(0 -0.000231738 0)
(0 -8.62386e-05 0)
(0 -0.000112709 0)
(0 -5.61159e-05 0)
(0 -0.000121861 0)
(0 -0.000214703 0)
(0 -0.000106733 0)
(0 -3.49592e-06 0)
(0 -7.65658e-06 0)
(0 -0.000113642 0)
(0 -0.000172164 0)
(0 -7.52949e-05 0)
(0 -5.50173e-05 0)
(0 -8.982e-05 0)
(0 -0.00017825 0)
(0 -0.000150848 0)
(0 -9.80043e-05 0)
(0 -0.000155948 0)
(0 -0.000129423 0)
(0 -6.65462e-05 0)
(0 -0.000196743 0)
(0 -1.61443e-05 0)
(0 -0.000121628 0)
(0 -0.000217494 0)
(0 -3.52327e-05 0)
(0 -0.000127852 0)
(0 -0.000189927 0)
(0 -1.69967e-05 0)
(0 -0.00019886 0)
(0 -2.71304e-05 0)
(0 -2.93568e-05 0)
(0 -0.000193355 0)
(0 -0.000195408 0)
(0 -0.000114299 0)
(0 -9.21897e-06 0)
(0 -9.40011e-06 0)
(0 -9.67092e-05 0)
(0 -0.000238129 0)
(0 -1.29966e-05 0)
(0 -0.000166668 0)
(0 -1.3056e-05 0)
(0 -0.00011464 0)
(0 -0.000131929 0)
(0 -0.000236774 0)
(0 -0.000167328 0)
(0 -7.76291e-05 0)
(0 -2.72977e-05 0)
(0 -7.59939e-05 0)
(0 -6.31062e-06 0)
(0 -0.000130517 0)
(0 -0.00017525 0)
(0 -0.00012369 0)
(0 -4.10474e-06 0)
(0 -2.44989e-05 0)
(0 -2.98543e-05 0)
(0 -0.00025848 0)
(0 -0.000216876 0)
(0 -0.000272058 0)
(0 -0.000265158 0)
(0 -0.000234291 0)
(0 -0.000149172 0)
(0 -5.38432e-05 0)
(0 -3.64398e-05 0)
(0 -9.25467e-05 0)
(0 -9.01981e-05 0)
(0 -3.43363e-05 0)
(0 -0.000268563 0)
(0 -7.14685e-05 0)
(0 -0.000231965 0)
(0 -8.48252e-06 0)
(0 -0.000180576 0)
(0 -0.000198638 0)
(0 -5.35542e-05 0)
(0 -2.37773e-05 0)
(0 -7.59239e-06 0)
(0 -0.000258245 0)
(0 -6.5393e-06 0)
(0 -0.000183524 0)
(0 -0.000218418 0)
(0 -7.86455e-05 0)
(0 -7.81675e-05 0)
(0 -0.000106324 0)
(0 -2.67726e-06 0)
(0 -2.14812e-05 0)
(0 -0.000109996 0)
(0 -0.000226861 0)
(0 -1.26221e-05 0)
(0 -9.84993e-05 0)
(0 -5.4569e-05 0)
(0 -0.000112355 0)
(0 -0.000232517 0)
(0 -1.34314e-05 0)
(0 -6.19426e-05 0)
(0 -3.81195e-05 0)
(0 -0.000244941 0)
(0 -8.59505e-05 0)
(0 -0.000166145 0)
(0 -4.94642e-05 0)
(0 -3.4938e-05 0)
(0 -5.76265e-05 0)
(0 -0.000121498 0)
(0 -0.00019644 0)
(0 -6.78348e-06 0)
(0 -0.000231733 0)
(0 -0.00021356 0)
(0 -5.31736e-05 0)
(0 -4.81461e-05 0)
(0 -0.000169172 0)
(0 -3.7459e-05 0)
(0 -9.08348e-06 0)
(0 -8.69443e-05 0)
(0 -7.78396e-05 0)
(0 -7.69752e-05 0)
(0 -1.03315e-06 0)
(0 -4.21649e-05 0)
(0 -3.32489e-06 0)
(0 -0.00024496 0)
(0 -1.38007e-05 0)
(0 -0.000240645 0)
(0 -1.6657e-05 0)
(0 -0.000272795 0)
(0 -0.000157076 0)
(0 -3.71054e-05 0)
(0 -0.000143581 0)
(0 -5.19246e-05 0)
(0 -9.32815e-05 0)
(0 -0.000268566 0)
(0 -0.000170742 0)
(0 -9.26651e-05 0)
(0 -0.000197632 0)
(0 -0.000125226 0)
(0 -7.08191e-05 0)
(0 -2.32814e-05 0)
(0 -9.38063e-05 0)
(0 -0.000110095 0)
(0 -5.89563e-05 0)
(0 -0.000146638 0)
(0 -3.76116e-05 0)
(0 -7.26733e-05 0)
(0 -3.00773e-05 0)
(0 -0.000272547 0)
(0 -2.30882e-05 0)
(0 -0.000232382 0)
(0 -4.06213e-05 0)
(0 -3.8788e-05 0)
(0 -5.09158e-05 0)
(0 -1.23687e-05 0)
(0 -0.000135462 0)
(0 -0.000101287 0)
(0 -0.000187281 0)
(0 -0.000223435 0)
(0 -0.000144473 0)
(0 -1.26665e-05 0)
(0 -0.000111093 0)
(0 -0.000215861 0)
(0 -9.98627e-05 0)
(0 -1.33028e-05 0)
(0 -4.52826e-05 0)
(0 -7.34522e-05 0)
(0 -3.45683e-05 0)
(0 -0.000214771 0)
(0 -0.000187829 0)
(0 -0.000137975 0)
(0 -4.61031e-05 0)
(0 -0.000160957 0)
(0 1.03399e-07 0)
(0 -8.51124e-05 0)
(0 -8.10867e-06 0)
(0 -0.000248838 0)
(0 -0.000201932 0)
(0 -1.19496e-05 0)
(0 -0.000188491 0)
(0 -2.78203e-05 0)
(0 -7.00193e-05 0)
(0 -0.000228514 0)
(0 -2.66659e-06 0)
(0 -5.4284e-05 0)
(0 -3.74023e-05 0)
(0 -0.000248072 0)
(0 -8.09502e-05 0)
(0 -0.00026022 0)
(0 -1.12725e-05 0)
(0 -0.000201801 0)
(0 -9.21221e-05 0)
(0 -6.16503e-05 0)
(0 -9.97649e-05 0)
(0 -2.11902e-05 0)
(0 -2.48547e-05 0)
(0 -4.752e-05 0)
(0 -0.000112274 0)
(0 -5.11915e-05 0)
(0 -0.000183153 0)
(0 -2.60261e-05 0)
(0 -0.000185518 0)
(0 -0.000186699 0)
(0 -4.28565e-05 0)
(0 -1.56815e-05 0)
(0 -0.000188012 0)
(0 -7.02967e-05 0)
(0 -0.000145384 0)
(0 -3.45036e-06 0)
(0 -0.000198303 0)
(0 -0.000170179 0)
(0 -0.00021099 0)
(0 -4.90075e-05 0)
(0 -2.84976e-05 0)
(0 -2.64061e-05 0)
(0 -0.000229488 0)
(0 -6.4601e-05 0)
(0 -9.31998e-05 0)
(0 -0.000120968 0)
(0 -7.39116e-05 0)
(0 -6.73412e-05 0)
(0 -2.21905e-05 0)
(0 -4.54237e-05 0)
(0 -8.48486e-05 0)
(0 -0.000192761 0)
(0 -6.09223e-05 0)
(0 -5.71542e-05 0)
(0 -8.30915e-05 0)
(0 -4.93976e-05 0)
(0 -0.000257507 0)
(0 -0.000234676 0)
(0 -0.000257251 0)
(0 -8.95956e-05 0)
(0 -7.74418e-05 0)
(0 -3.83076e-05 0)
(0 -4.29279e-05 0)
(0 -2.17629e-05 0)
(0 -0.000126083 0)
(0 -0.000176388 0)
(0 -6.98666e-05 0)
(0 -0.000270452 0)
(0 -0.000212345 0)
(0 -4.49439e-05 0)
(0 -4.12256e-05 0)
(0 -6.55019e-05 0)
(0 -9.33479e-05 0)
(0 -1.49446e-05 0)
(0 -4.29434e-05 0)
(0 -0.000109755 0)
(0 -2.03049e-05 0)
(0 -0.000182533 0)
(0 -3.67775e-05 0)
(0 -3.61313e-05 0)
(0 -0.000156187 0)
(0 -1.49586e-05 0)
(0 -3.83036e-05 0)
(0 -0.000174661 0)
(0 -0.000175412 0)
(0 -0.000228865 0)
(0 -7.08275e-06 0)
(0 -0.000256434 0)
(0 -0.000173915 0)
(0 -0.000174185 0)
(0 -6.26977e-06 0)
(0 -9.72246e-06 0)
(0 -7.64893e-05 0)
(0 -1.76878e-05 0)
(0 -1.20101e-05 0)
(0 -4.20919e-05 0)
(0 -0.000172142 0)
(0 -0.000120794 0)
(0 -9.95064e-05 0)
(0 -1.61956e-05 0)
(0 -0.000127474 0)
(0 2.41254e-07 0)
(0 -0.000130154 0)
(0 -0.000264504 0)
(0 -4.13799e-05 0)