/*--------------------------------*- C++ -*----------------------------------*\
| =========                 |                                                 |
| \\      /  F ield         | OpenFOAM: The Open Source CFD Toolbox           |
|  \\    /   O peration     | Version:  v2012                                 |
|   \\  /    A nd           | Website:  www.openfoam.com                      |
|    \\/     M anipulation  |                                                 |
\*---------------------------------------------------------------------------*/
FoamFile
{
    version     2.0;
    format      ascii;
    class       volVectorField;
    location    "250";
    object      ddtCorrDdt0(U);
}
// * * * * * * * * * * * * * * * * * * * * * * * * * * * * * * * * * * * * * //

dimensions      [0 1 -2 0 0 0 0];


internalField   nonuniform List<vector> 
18355
(
(-0.252027 -0.214101 -2.70949e-20)
(-0.000115464 -2.42848e-05 3.65837e-20)
(-0.0191837 0.0868686 1.06244e-18)
(-0.000295997 2.23868e-05 -2.71392e-20)
(0.00897582 -0.0180107 -5.02515e-19)
(0.0531326 0.0502663 5.64815e-20)
(-0.00030789 0.00101972 -2.52941e-19)
(0.0066924 -0.019521 1.28921e-20)
(-0.000188716 -1.27368e-05 2.1079e-19)
(-0.0512959 0.0348703 -1.1956e-19)
(0.00469918 0.00359501 -4.69132e-20)
(0.0170407 0.0357751 -1.46759e-17)
(0.0182058 0.0371122 -1.37184e-17)
(-0.0887797 -0.228356 6.14576e-18)
(-0.000214463 -2.1776e-05 -1.64509e-19)
(1.56026e-05 3.16992e-05 1.05319e-20)
(-0.000299033 1.82654e-05 5.98235e-20)
(-0.00119779 0.00449179 -5.95904e-19)
(-0.085473 0.0520704 -6.27786e-18)
(-0.00110215 -0.00286232 5.34052e-19)
(0.113138 -0.0212324 -4.581e-18)
(-0.000450746 -0.000260504 -1.39534e-18)
(-0.000120906 4.8469e-06 -2.26099e-19)
(0.0482854 0.0512115 1.79748e-20)
(-0.000119882 -5.39127e-07 1.40535e-19)
(0.000720691 0.00121983 -1.86241e-19)
(0.000189628 0.000996116 -7.13183e-20)
(-0.000304622 4.79045e-05 -2.99265e-19)
(-0.000183796 -8.67097e-06 -1.0204e-19)
(0.00483192 0.00506492 1.76213e-19)
(0.0912561 0.165787 -1.31002e-18)
(0.0245588 -0.00985747 -1.91524e-19)
(0.000147564 -3.18607e-05 2.52429e-19)
(1.16641e-05 -0.000101894 1.63825e-19)
(-3.57967e-05 9.95309e-07 2.06043e-20)
(0.000862287 -0.00143992 -1.11767e-19)
(-0.00633629 0.00216682 -4.92376e-18)
(0.0011081 -0.00149398 3.9345e-19)
(0.00534968 0.00564075 -5.31445e-19)
(-0.000175104 0.000450074 8.74982e-20)
(-0.000187848 2.03634e-05 -2.17419e-18)
(0.00533137 0.00409764 -1.75758e-19)
(6.19663e-06 -8.49985e-05 -6.47339e-20)
(-0.000118242 -2.57845e-05 3.78298e-19)
(-0.000118022 -1.63448e-05 -6.7769e-19)
(0.0400864 0.0461594 6.02447e-18)
(-0.000303528 -9.08442e-05 -1.64557e-19)
(-0.000300662 -9.71036e-05 1.32033e-19)
(0.0701464 0.233557 1.0474e-19)
(6.42681e-05 -0.000556293 -4.38422e-19)
(2.38594e-05 -1.25969e-05 1.09523e-18)
(-0.0140011 -0.282584 1.05279e-17)
(5.30714e-05 -0.000652687 4.26034e-19)
(-0.0955146 -0.0329902 1.40679e-18)
(-0.000322397 5.89316e-05 2.61122e-20)
(-0.000691317 -0.00330917 -1.21326e-19)
(9.17469e-06 -1.38634e-06 -1.61305e-19)
(0.117788 0.0637549 1.24329e-17)
(0.00102023 0.00124187 3.89558e-19)
(0.0537013 0.0565504 -2.19762e-17)
(1.04611e-05 -9.89034e-05 -3.19325e-19)
(-0.000661191 0.0338669 8.42229e-18)
(-0.0913131 -0.0400394 3.24087e-19)
(-0.00175038 -0.000295743 -1.84575e-20)
(0.0282612 -0.0247645 4.98856e-20)
(4.31429e-05 -7.54454e-06 -1.79033e-19)
(-0.00115227 -0.00240092 -2.50875e-18)
(-0.00663013 0.00196721 3.87878e-18)
(4.30172e-05 -0.000108258 3.52016e-19)
(-0.050174 0.0300259 -2.90099e-19)
(1.39054e-06 -0.000159898 -1.3496e-19)
(-0.000326344 5.75477e-05 -9.94484e-19)
(0.0182037 -0.00726524 6.44342e-20)
(-0.00342563 0.00568981 2.45122e-19)
(0.0476527 0.00454852 5.54978e-19)
(3.3868e-05 -0.000122688 3.14961e-20)
(0.134995 0.028098 -7.02635e-18)
(3.04633e-05 -0.000128479 -3.55592e-19)
(-3.16259e-05 -0.000157013 -1.23948e-19)
(0.0438156 0.0083295 -9.41984e-20)
(-0.000896091 -0.00244219 1.58686e-18)
(0.0333499 0.0292871 -2.85985e-19)
(3.94759e-05 -0.000117451 -2.27376e-19)
(-8.86854e-05 -0.00394396 1.59261e-18)
(-0.0102475 -0.0282071 -4.65468e-21)
(-5.29861e-05 -6.5188e-06 2.77713e-19)
(-0.000261679 -9.44331e-06 -1.26098e-19)
(-0.0138001 -0.0138524 2.14667e-19)
(-0.000254407 -2.85937e-05 -4.85329e-20)
(-0.0128231 -0.015412 -2.41299e-20)
(0.00688889 -0.433041 6.96838e-18)
(0.0938146 -0.0162291 -8.69659e-19)
(0.0268446 0.0306811 -4.55994e-20)
(0.000201718 -0.000507704 -5.46357e-19)
(-0.0919387 0.0122437 2.80679e-18)
(-0.00117655 -0.00190683 5.7247e-19)
(-0.000239157 -8.73342e-05 -7.60505e-21)
(-0.000963203 -0.00154277 2.07595e-19)
(-0.043209 0.0161158 2.10444e-19)
(-0.000274846 -0.000242108 2.74381e-18)
(-0.00935484 -0.0262851 -2.3238e-19)
(-6.89063e-05 -0.000164154 1.27944e-19)
(0.000182571 -0.000435924 1.40806e-19)
(-4.26814e-05 -8.22909e-08 -1.21202e-20)
(-0.000565454 -0.00284693 1.96935e-18)
(1.81914e-05 3.05761e-05 1.67164e-19)
(0.0299618 -0.0219874 1.08668e-19)
(-0.0980567 0.0117798 1.12851e-18)
(-0.0115411 -0.00436255 -1.24257e-18)
(9.95427e-06 -4.43632e-07 8.13732e-19)
(1.97358e-05 -3.52087e-06 -2.40811e-19)
(1.52997e-05 -7.43278e-07 -3.58681e-19)
(0.0128113 0.00036721 7.08784e-20)
(0.000101552 -0.00359149 -3.72303e-18)
(0.0343674 0.0682023 -2.78121e-18)
(0.00651236 -0.00371052 -1.64404e-19)
(-9.09072e-05 -0.000166142 -1.11435e-19)
(0.0496378 0.0165504 -1.28892e-19)
(0.000176072 -0.00149909 -2.0361e-18)
(-0.00130085 -0.00211902 2.53213e-18)
(-0.0436076 0.0288863 -5.74975e-20)
(-0.0145808 0.0884651 -9.71896e-19)
(0.0176161 -0.423798 8.85029e-18)
(-0.0174857 -0.0186374 7.24166e-20)
(0.045603 0.0219376 6.49281e-20)
(0.0402593 0.0517712 1.58033e-17)
(-9.70329e-05 0.00114687 5.62516e-19)
(-0.000297401 1.54808e-05 1.40939e-18)
(-0.307902 -0.19897 8.05026e-19)
(-0.000418248 -6.13455e-06 2.71009e-18)
(-0.000239347 -8.72398e-05 -5.60531e-21)
(0.0275462 -0.165892 3.84948e-18)
(-0.000343637 -7.45062e-05 -8.51173e-20)
(-0.0252344 0.0315597 2.90655e-18)
(-0.00506071 -0.0706139 2.47362e-19)
(-0.000264565 8.91993e-06 5.33637e-19)
(-0.0812981 0.0591998 -1.81501e-18)
(-0.0559052 0.0160469 -1.13589e-19)
(-0.000253347 -9.815e-06 4.84093e-19)
(0.0992701 -0.0148853 -8.55265e-19)
(-0.00471745 -0.000275098 -5.28626e-18)
(0.0169123 0.00921262 2.66125e-19)
(-0.000274793 -0.000157607 -2.14148e-20)
(-0.226663 -0.621594 7.03136e-18)
(0.000881624 -0.0717618 1.04535e-19)
(-0.000216024 2.96989e-05 8.51421e-19)
(0.05178 0.0659785 1.55326e-17)
(-8.80412e-05 5.62348e-05 4.01362e-20)
(0.012599 0.00151458 5.2452e-19)
(0.00402607 0.0807446 1.86464e-20)
(-0.000305332 4.23905e-05 2.67041e-19)
(-0.00126715 -0.00196716 1.30794e-18)
(-9.94386e-05 0.00115314 4.82432e-20)
(0.00394893 0.00662357 4.55735e-19)
(6.29496e-06 -7.80259e-05 -6.9503e-20)
(-0.000121849 3.4382e-08 -1.14026e-19)
(-0.000299083 1.19085e-05 -1.33381e-18)
(-4.68415e-05 -8.63473e-06 5.95546e-20)
(-0.000276488 -0.000157254 2.27216e-21)
(-0.000121403 -7.68988e-07 2.96431e-19)
(0.000530003 0.00470167 -5.23054e-19)
(-0.000346333 -7.29534e-05 7.26637e-20)
(9.80213e-06 1.13541e-05 -1.93828e-19)
(0.00941156 0.00726723 2.86769e-19)
(-0.00118501 0.00660112 1.31824e-18)
(-0.0229026 0.0282801 -1.5577e-19)
(0.0534408 0.0637151 -5.71529e-18)
(-0.327082 -0.299182 4.53715e-18)
(0.0734037 0.0441102 1.79904e-19)
(-0.00471046 -0.000565255 1.07967e-18)
(-5.49282e-07 2.34146e-06 2.08337e-19)
(-0.0246895 0.0294378 2.07002e-19)
(-2.90429e-05 -1.28323e-06 -1.73173e-20)
(0.0588309 0.266859 4.46395e-18)
(4.06484e-06 2.15317e-06 -8.47275e-21)
(-0.000213306 2.12977e-05 1.69349e-18)
(2.24243e-05 2.63387e-07 1.27051e-19)
(-5.30598e-05 -6.77073e-06 1.66886e-20)
(-0.00167955 0.00105188 -5.03146e-18)
(0.0015195 -0.0087679 -4.09477e-19)
(-8.31812e-05 -7.54119e-06 -3.29584e-19)
(-0.0244582 0.0211212 8.95825e-21)
(-0.000421867 -0.000132654 -2.28445e-18)
(-0.00031046 6.52234e-05 -5.88223e-19)
(-0.0122333 0.0170046 -7.05549e-19)
(0.000267001 -0.000372097 9.1878e-19)
(-0.000118788 -1.6446e-06 -6.28077e-19)
(-0.0097882 -0.016649 -1.14893e-18)
(-0.000200745 0.000149121 -1.80836e-18)
(0.000448804 0.00114068 -5.34924e-19)
(0.0393013 0.0499135 -2.91744e-17)
(-0.0409188 0.0183848 -2.0118e-19)
(-0.000116376 3.07882e-06 6.74908e-19)
(6.33563e-05 -6.59258e-05 -4.60212e-20)
(-0.000125512 4.7512e-05 1.38813e-19)
(0.0307579 0.0739046 3.47693e-18)
(2.97054e-05 -1.78151e-05 -2.77581e-19)
(-0.323909 -0.229994 -4.58292e-18)
(-0.000114754 -1.65408e-05 2.05854e-19)
(-0.0719968 -0.258439 -9.62493e-18)
(0.000223036 -0.000313746 5.52775e-20)
(-0.00308044 0.0021019 -1.09774e-19)
(0.00466111 0.0066848 4.71232e-19)
(-0.000106785 -1.01791e-05 -7.46136e-22)
(-0.310932 -0.25939 6.96033e-19)
(-0.000467003 0.000146275 2.0581e-18)
(0.0749945 0.0407822 -1.52337e-18)
(-0.000311607 5.8739e-05 1.34301e-19)
(0.00013669 1.94297e-06 2.6609e-21)
(0.000673527 0.000836124 1.68084e-19)
(-0.000236077 -7.46903e-05 2.46483e-19)
(0.0177324 0.0416558 8.97753e-19)
(-0.0017206 0.00213477 2.32223e-19)
(-0.00130924 0.00170875 -1.06188e-20)
(-9.82154e-05 6.6363e-05 -1.0221e-20)
(0.0339081 0.30854 -1.26263e-19)
(0.00214407 -0.00845621 2.78035e-18)
(-0.0041346 0.00210299 -1.39223e-18)
(-0.000444656 8.736e-05 -1.94596e-18)
(-0.000290252 -0.000132828 7.61778e-20)
(-0.0106579 -0.00411776 -2.25917e-19)
(9.8718e-05 7.28868e-05 -4.32311e-19)
(-0.0132357 -0.0109702 -1.36703e-18)
(0.00649007 0.00141734 -5.4159e-19)
(-0.0258507 0.00688139 -6.19631e-19)
(-0.00454742 0.000753554 2.7301e-20)
(9.57831e-05 4.05713e-05 1.43965e-19)
(-0.0536367 0.0118655 9.01875e-20)
(-0.0310648 -0.154373 2.68097e-19)
(0.0123891 -0.00956162 1.39656e-19)
(-0.00132675 0.000117754 1.08971e-18)
(-0.000835321 -0.00280475 -1.86756e-18)
(-0.0238086 0.0435503 1.15824e-18)
(0.000101876 5.9389e-05 3.05998e-19)
(0.0081897 0.00930629 1.42572e-19)
(-0.0218936 0.00679992 7.74647e-19)
(-0.000994549 0.000634244 -1.6197e-18)
(0.040811 0.0478836 -4.95536e-18)
(-0.00231973 0.00300409 2.097e-18)
(-0.000792826 0.00187 -2.43455e-19)
(-0.000111065 -1.55371e-05 4.35498e-19)
(-0.00158761 0.00101133 6.14879e-19)
(-0.000586627 0.00146319 -9.13419e-21)
(0.00986576 -0.0100233 1.61677e-19)
(-0.00044719 0.00011287 -1.4685e-18)
(-0.000315377 8.41447e-05 1.91064e-18)
(-0.000308367 -5.66506e-05 -1.07816e-19)
(0.0128183 0.0406994 -1.23684e-18)
(0.0270122 0.0496046 1.1092e-18)
(9.19296e-05 -8.12072e-05 -1.27658e-19)
(-0.00217754 -0.000355316 1.01553e-19)
(0.0213892 0.0493803 -5.63959e-19)
(-0.00147591 0.0636649 -2.37191e-18)
(0.00669273 0.000205431 5.79366e-19)
(-5.06301e-05 1.73897e-07 -1.30094e-20)
(0.0077365 0.00695078 2.25762e-19)
(-0.00247512 0.0029236 -8.08247e-18)
(-0.000266908 1.32111e-05 2.4554e-18)
(-0.00471045 -2.67826e-05 1.44453e-19)
(-0.000228125 -2.4983e-06 -3.87333e-20)
(-0.00315859 0.0783479 -5.03252e-20)
(0.00249867 -0.0282002 -6.59428e-20)
(-0.0361322 0.0159557 7.60335e-19)
(-0.00360109 0.00626656 -1.27474e-18)
(0.00513276 0.00744814 1.23129e-19)
(0.00243525 0.0182077 1.36951e-18)
(0.0149546 0.00363758 -1.79212e-19)
(-0.0497427 0.0163964 -6.879e-19)
(-0.000228894 9.85241e-06 -6.42179e-20)
(-0.000321325 8.19375e-05 -1.55699e-18)
(0.00102886 0.00109049 -2.42454e-19)
(1.61399e-05 -2.15161e-05 2.56514e-19)
(-0.00345472 0.00180788 7.86829e-20)
(-0.00418923 0.00232273 3.26182e-19)
(-0.000307117 6.74855e-06 1.03604e-19)
(-0.000270394 -7.47012e-05 9.44731e-19)
(-0.0151736 0.00422578 -6.62124e-19)
(-0.000257851 1.67787e-05 -1.88646e-19)
(-0.0327817 -0.0482086 -1.0358e-18)
(-0.0660029 0.171362 4.34667e-18)
(-0.0119631 0.00556429 8.44435e-21)
(-0.000218371 -8.12435e-05 1.14639e-18)
(0.00788841 -0.00320299 -3.16242e-19)
(1.16047e-05 -3.17055e-05 4.04291e-19)
(-0.0159343 -0.0117586 2.53709e-19)
(-0.000454864 0.000217619 -2.15701e-18)
(0.00343453 -0.00949363 6.99933e-19)
(-0.000172424 2.55133e-05 1.23886e-18)
(0.00316496 -0.00893826 -1.20126e-18)
(-0.000121114 0.141181 1.66066e-20)
(0.00013584 -1.36899e-05 5.32754e-20)
(-0.0128642 0.013702 3.06244e-18)
(-0.000296248 -0.00134718 -2.22612e-19)
(-0.00356457 -0.00272603 -4.88614e-19)
(0.0153415 0.000712628 -1.37268e-19)
(-0.000214624 -1.58378e-05 1.37056e-20)
(7.18079e-05 -4.34238e-05 1.86778e-19)
(-0.0296106 -0.0443622 -1.01487e-18)
(-0.000258834 -7.75359e-05 -2.25817e-18)
(0.0178597 0.00579705 -7.83618e-21)
(-0.00604284 0.00282613 -1.55949e-18)
(-0.0149849 0.0550133 1.20001e-18)
(-0.0189642 -0.00870918 2.50564e-19)
(-0.0371923 0.0174515 3.09843e-19)
(-0.00265461 0.00324991 9.49149e-20)
(-0.0171709 0.00486993 9.5005e-19)
(-0.000158162 -0.00046055 -1.4054e-19)
(-0.00202892 0.00233279 1.87251e-18)
(-0.00359876 0.00599492 7.13513e-18)
(-0.013806 0.0133319 -2.44225e-18)
(-0.0202552 0.0196416 2.40896e-19)
(-0.00888752 0.107754 1.13353e-19)
(-0.000298508 -7.99645e-05 -3.86198e-20)
(0.00429138 -0.00325557 1.23235e-18)
(-0.0757459 -0.0434096 4.62758e-19)
(0.0086992 -0.00336763 1.02222e-19)
(-0.000303967 -7.05328e-05 1.95606e-19)
(-0.000295155 -0.000113298 -1.29347e-19)
(-0.000313286 -5.30644e-06 -3.22025e-19)
(-0.00189038 0.0161464 -5.44161e-18)
(-0.00539167 0.104074 -7.41649e-19)
(0.213843 0.0452893 -7.76345e-19)
(-0.0263959 0.0152599 -1.69002e-19)
(-0.0136556 0.00633658 -8.41055e-19)
(-0.0044077 0.000146487 -7.58587e-18)
(0.00426206 0.0337084 8.91911e-19)
(-6.34148e-05 7.93327e-05 -3.25816e-20)
(-0.000460212 0.000169234 1.57672e-18)
(-0.00438429 -0.000111763 1.65724e-18)
(-0.000362055 0.000132868 2.93345e-18)
(0.0113802 -0.0107179 -2.45229e-19)
(-3.62711e-05 9.64244e-07 -6.15076e-21)
(-0.0122091 0.0964194 1.35344e-19)
(2.60504e-05 2.51373e-05 1.69985e-19)
(0.0465785 0.0320083 2.10298e-20)
(-0.000233729 4.70724e-05 7.65594e-19)
(-0.000176827 0.000368055 7.005e-19)
(-0.00374474 0.00339538 3.93032e-19)
(0.0157005 0.04564 -2.1152e-18)
(-0.331721 -0.344986 4.15156e-19)
(0.00887125 -0.0108676 -1.71334e-19)
(-0.0247054 0.00877046 1.7157e-19)
(0.000127363 -0.000185639 8.58501e-19)
(-0.00025863 -3.99317e-05 5.05359e-20)
(-0.000358642 0.0001195 -3.31549e-18)
(-0.00601794 -0.000404929 5.23024e-19)
(-0.0504633 0.0487776 4.40504e-19)
(-0.000262447 -6.96881e-05 4.70294e-20)
(-0.00024673 1.55572e-07 -2.707e-19)
(0.00296157 0.0220603 -6.44745e-19)
(-3.02094e-05 -0.000232494 -1.33916e-18)
(-0.000272781 -4.00499e-05 -1.31494e-19)
(0.00817176 0.0586664 7.57696e-18)
(-0.0052606 4.75184e-05 -1.16078e-19)
(-0.000312111 -3.00259e-05 -1.04019e-19)
(-0.00101072 0.000257111 6.53378e-19)
(0.00459108 -0.0101266 -4.49592e-19)
(-0.000282791 -4.54946e-06 2.60626e-19)
(0.00546445 -0.0095904 3.81131e-19)
(0.000247706 0.000122857 -2.99413e-19)
(-0.000250674 3.22012e-06 7.76922e-19)
(-0.000266097 -0.00020828 -3.17418e-18)
(0.0520407 0.0555232 -2.44945e-17)
(0.000771534 0.0216158 -2.41861e-20)
(0.00021775 0.000133797 3.14576e-19)
(-0.000274947 -0.000148359 -4.21858e-20)
(-0.0139438 0.00125851 4.27491e-19)
(-0.00031353 1.01205e-05 -2.54824e-19)
(-2.86836e-05 3.25426e-07 9.33149e-19)
(-0.00141407 0.0400092 -5.26784e-19)
(0.00456446 0.0208498 -3.08777e-19)
(-0.0188531 0.00213283 -8.98893e-19)
(-0.000356829 8.19424e-05 6.65953e-18)
(-0.00105881 0.00064297 3.01163e-18)
(0.0175473 0.0390473 1.16063e-17)
(0.00189164 -0.00152803 8.48312e-19)
(0.00874596 0.00542613 -2.2273e-19)
(-0.00198455 0.00245874 -1.26384e-18)
(7.87021e-05 1.08201e-05 2.18667e-19)
(-0.0122146 0.00188641 -1.04364e-19)
(0.0117626 -0.00944222 4.18262e-19)
(-0.000299328 -0.000132287 2.82603e-18)
(-0.000255605 6.15447e-06 2.6497e-19)
(-0.000579883 0.00445085 6.04427e-19)
(-0.000210612 -3.01353e-06 1.71263e-20)
(0.000546612 0.00380946 2.65867e-21)
(-0.000133825 5.41527e-05 -9.65536e-19)
(0.0347012 0.012912 9.31669e-19)
(-0.000176486 0.00150484 -2.52966e-19)
(-0.00144818 -0.00158723 -3.00777e-19)
(3.5819e-05 -6.01657e-06 2.51078e-19)
(-0.000313838 -1.40049e-05 -4.62365e-19)
(-0.00333027 0.00140879 3.94887e-19)
(0.000810662 0.00178811 1.56454e-19)
(-0.00866294 0.0265685 -1.33039e-18)
(0.0770083 0.106295 2.00642e-18)
(0.00343994 0.025476 -2.70217e-19)
(-0.00327854 0.00125925 -1.43397e-19)
(-0.0048718 0.0633183 9.93003e-19)
(0.0090206 4.52552e-05 -4.23818e-19)
(-0.000226848 4.25822e-05 -1.83002e-18)
(-3.45559e-05 -5.8791e-07 9.89462e-21)
(-0.0116287 0.0122444 5.93576e-18)
(-0.000207002 0.000158908 -2.43428e-19)
(-0.0207881 0.00229635 2.28384e-18)
(-0.000336328 0.000806219 -1.40679e-19)
(-0.00429306 0.00837918 -1.06064e-19)
(0.00883646 0.0337023 1.1823e-19)
(-0.0308278 0.0111353 1.74823e-18)
(-0.307636 -0.363942 -9.35678e-19)
(-0.0452522 0.00739902 1.95304e-19)
(-4.21289e-05 -5.35954e-06 -1.4561e-20)
(0.0893498 0.229315 2.3759e-18)
(-0.000331695 -0.000223823 -2.80525e-18)
(-0.000306279 -6.48937e-06 -2.65133e-19)
(0.110361 -0.0117583 1.69317e-18)
(-0.000228975 6.17288e-05 3.34747e-19)
(-0.01003 0.00130979 -7.5623e-19)
(-0.000362561 0.00134192 -8.20284e-20)
(0.0343803 -0.0228891 1.50063e-19)
(-0.000235894 6.40431e-05 3.00864e-19)
(-0.0218718 0.0287744 -6.75329e-19)
(0.0637224 0.0369573 -2.18681e-20)
(-0.031177 0.0155108 9.62868e-19)
(-0.00045141 6.71636e-05 3.09589e-19)
(-9.75866e-05 -4.45787e-05 -4.32392e-19)
(-0.03272 0.0169755 -2.41909e-18)
(-1.56404e-06 -0.00152105 7.47126e-20)
(-0.000541076 9.04111e-05 -4.62887e-19)
(-0.0400404 0.0304839 4.6433e-19)
(0.00272565 -0.0225967 4.55644e-21)
(-0.000305677 -1.3036e-05 7.19984e-20)
(-0.0117712 0.0129303 -1.41402e-18)
(-0.00991599 0.0266258 -3.26362e-18)
(-0.00010264 -3.89855e-05 -9.76697e-20)
(0.000269154 0.000527317 8.59296e-19)
(0.00744285 -0.00995824 3.12493e-19)
(0.0198568 0.403642 1.29216e-18)
(-0.0187953 -0.0014288 -1.60262e-18)
(1.15118e-05 -0.000209919 -1.08251e-19)
(-0.000231942 -0.000521453 1.48345e-19)
(-0.00908071 0.00992308 -5.59267e-18)
(-0.000218022 7.66118e-07 -4.4591e-20)
(5.23486e-05 -7.33848e-05 2.95533e-19)
(-0.000798285 0.000202331 -7.28598e-19)
(-0.0285458 0.0119578 -1.40253e-18)
(0.0470255 0.108354 -4.59405e-18)
(7.14566e-05 1.41417e-05 -4.65742e-19)
(-6.89426e-05 -2.76493e-06 1.2683e-19)
(-0.000261886 2.18851e-05 -1.12308e-18)
(0.0171821 0.0476544 1.88148e-18)
(0.0123423 -0.00715453 -3.80477e-19)
(9.8321e-05 -2.4023e-06 -3.5264e-19)
(-0.0098094 1.62044e-05 3.86779e-19)
(-0.0145437 -0.0106672 -5.52911e-19)
(-0.000388289 0.000355422 2.58177e-18)
(0.0336806 0.0733276 -5.86832e-18)
(-0.00200737 0.0352386 -6.06111e-18)
(-0.000448593 -0.000158363 2.06207e-18)
(-0.000213602 -8.7363e-07 -2.84747e-20)
(-0.0175435 -0.00151983 -1.07477e-18)
(0.020625 0.0460985 -1.11721e-17)
(-0.0519835 -0.0657903 -1.01272e-17)
(6.69414e-05 4.97245e-06 1.81243e-20)
(-0.265823 -0.126019 2.07109e-18)
(-0.000251157 -8.03628e-06 -5.78619e-19)
(7.7857e-05 8.90652e-06 -2.87815e-20)
(-0.0207025 -0.0115396 5.14946e-19)
(-0.000295256 -0.00169725 -8.7842e-19)
(0.0377517 0.0120627 -2.64717e-19)
(0.0172562 -0.00904411 -1.01127e-19)
(-0.00152299 -0.00175298 1.04867e-18)
(-0.00400211 0.006401 -9.97544e-19)
(-0.000512427 -0.000235473 -3.9552e-19)
(0.00525771 0.0586284 -5.5578e-18)
(0.000322505 -0.0016917 4.73465e-19)
(-0.00315734 0.00552865 -6.12114e-18)
(-5.72101e-05 -0.000297728 5.88864e-18)
(5.61302e-05 -1.42895e-05 -7.32613e-20)
(-0.000707665 0.000395783 2.14779e-19)
(6.81994e-05 -5.39361e-06 -2.15137e-19)
(-0.00542168 0.0357312 -2.89112e-18)
(0.0551364 0.116554 5.05549e-19)
(0.0358435 -0.0196437 -2.38167e-19)
(-0.00143822 0.00516415 1.57695e-19)
(-0.000470449 0.000256862 -1.25077e-19)
(-6.87112e-06 -0.000279611 -1.86515e-19)
(0.000807745 0.00112707 5.997e-19)
(-0.00220703 0.00346056 4.17245e-19)
(-0.0017493 -0.00094378 8.90852e-19)
(8.88119e-05 0.000195455 -3.09062e-19)
(-0.000201462 0.000218601 -2.01653e-18)
(-0.0173121 -0.0112196 7.18551e-19)
(-0.00010773 -2.02658e-05 2.76146e-19)
(-0.00159988 -0.00128538 -1.13121e-18)
(0.0783473 0.0617583 6.77927e-19)
(-0.310476 -0.189646 3.06469e-18)
(-0.0816167 -0.0383271 1.20667e-18)
(-0.000434851 3.11609e-05 -6.33079e-18)
(-6.53378e-05 -5.16868e-06 2.57289e-19)
(0.00651152 -0.0106019 -1.27998e-18)
(-0.000420507 -0.000220823 2.21111e-18)
(0.00206161 0.0638147 -5.74842e-19)
(-0.0269956 0.099731 5.56112e-19)
(0.00399756 -0.00253332 -8.74664e-19)
(0.00119696 -0.00390209 7.72279e-19)
(-0.00773538 0.00324784 1.54537e-19)
(-0.00117192 -0.00024202 1.52907e-18)
(-0.0028776 -0.000790888 -2.30082e-18)
(0.0728689 0.0523647 1.13528e-18)
(-0.00524399 -0.0121236 -9.66039e-19)
(0.000722677 -0.00108432 7.26415e-19)
(-0.00850437 0.182985 7.82805e-18)
(-0.000253088 -1.61679e-05 -1.53164e-19)
(-0.326869 -0.302559 -1.09538e-17)
(0.0574484 0.251397 -2.15043e-18)
(-0.00247386 0.00333097 -6.3945e-18)
(0.000154548 0.000500374 -1.009e-18)
(0.0824743 0.0520204 -2.87856e-18)
(-0.000307377 1.39946e-05 2.63779e-20)
(-0.0214444 0.0268391 5.25162e-18)
(0.0259735 -0.00817028 1.50788e-19)
(-0.033691 -0.0699401 -1.04919e-20)
(0.000537522 -0.00165075 -1.41808e-18)
(-0.000674255 0.000400864 9.498e-19)
(-0.000389907 0.00033672 -4.13017e-19)
(-0.0147657 -0.0776478 -6.81694e-19)
(-0.0456425 -0.154268 -1.53312e-17)
(-0.0239229 -0.0657445 3.53555e-19)
(0.0639864 -0.0146447 3.99817e-19)
(-0.00312407 0.00252936 -2.37612e-19)
(-0.000380904 0.000325607 1.44435e-18)
(-0.000497249 -0.00390436 -2.46671e-19)
(-0.000310603 0.000109097 9.9817e-19)
(0.00220904 -0.00372046 1.67897e-20)
(0.102906 -0.0254775 2.70206e-19)
(0.0154503 0.301116 3.38643e-19)
(0.114456 0.104914 1.03824e-18)
(0.0572981 0.0862476 1.23405e-18)
(0.00953542 -0.00519908 4.03447e-19)
(0.0219762 -0.00951007 -2.89182e-19)
(0.0141303 0.00242767 -4.28409e-19)
(-0.000308356 -7.16757e-05 1.60015e-19)
(-0.000312046 2.57549e-05 -7.07904e-19)
(0.011265 -0.00543162 6.72591e-19)
(-0.00455559 -0.00362875 -2.11303e-19)
(-0.0004716 0.000225979 5.32978e-18)
(-0.000304854 0.000108364 -7.83227e-19)
(0.0528838 0.0368469 -2.27486e-19)
(-0.000233828 -5.68196e-05 8.92588e-21)
(0.0718874 0.0812286 -1.29731e-18)
(0.00453057 -0.00519962 3.63077e-19)
(-0.0137884 0.0343489 -4.50607e-18)
(0.0188789 0.0404147 1.28693e-17)
(-0.00031123 1.33741e-05 4.0852e-19)
(0.000495583 -0.00358534 -2.98744e-18)
(-0.314539 -0.195342 4.31678e-19)
(-0.000212009 0.000222873 -1.46302e-18)
(0.301995 0.0476204 2.83467e-19)
(-0.000261014 7.55893e-06 7.39043e-20)
(0.0785925 -0.0166525 -5.92138e-19)
(-0.0043827 -0.012332 -9.98496e-19)
(-0.000192268 2.51543e-05 1.71269e-18)
(0.0137916 0.00369779 1.08881e-19)
(-0.0468349 0.0183679 -3.34609e-19)
(-0.048242 0.00463013 1.07907e-19)
(-0.000102198 -5.97677e-06 -1.46288e-19)
(6.09628e-05 -6.87496e-05 -2.38666e-20)
(-0.0089479 0.00857944 -1.64483e-18)
(-0.00245918 0.00351928 -2.41077e-18)
(-0.0156876 0.0352364 3.06415e-19)
(-0.000164598 0.00013862 8.0982e-19)
(0.00102436 0.0343942 -1.0852e-17)
(-0.000232499 -4.07414e-05 -3.68056e-20)
(-0.0330018 0.096649 2.40238e-18)
(-3.65135e-05 2.9687e-07 -1.17117e-20)
(-0.000248639 -0.000153239 1.93414e-20)
(0.00149551 0.0758178 -3.04838e-18)
(-0.00201083 0.00623946 8.65535e-20)
(-0.0191003 0.00340231 -4.59396e-19)
(9.56474e-06 2.79059e-06 7.74911e-20)
(0.00201132 -0.00415276 6.26685e-19)
(-0.00164004 -0.00363694 4.02431e-19)
(-0.0198824 0.0808467 -6.33123e-19)
(0.223393 0.0457044 8.96063e-19)
(-0.00385123 0.000585413 -3.02607e-18)
(0.0078413 0.00233598 1.57801e-20)
(-4.24488e-06 1.07279e-06 -9.34375e-20)
(0.00728933 -0.00396418 4.47849e-19)
(-0.000186131 -0.000181826 -1.83155e-18)
(-0.00361778 0.000601427 -6.60848e-18)
(0.210709 0.0537845 4.23387e-18)
(-0.000122522 -3.56538e-06 8.35541e-19)
(-0.000495508 0.0257741 3.32451e-19)
(-0.000232878 -3.79062e-05 -6.88227e-19)
(1.04598e-06 3.25427e-06 -1.5598e-19)
(-0.00353729 -0.00103828 -2.5708e-18)
(-0.00351032 0.0600281 4.81127e-19)
(0.00246676 -0.00179399 -2.42316e-20)
(-0.00158636 -0.0584758 1.41408e-19)
(-0.00226232 -0.00124228 3.23318e-19)
(-0.0043101 0.0102557 -5.46799e-18)
(0.0694504 0.0432072 -8.06486e-20)
(-7.11607e-05 8.45575e-05 -1.56841e-20)
(-0.000311381 -3.95032e-05 2.16053e-19)
(-0.280876 -0.109274 1.39262e-18)
(-0.0110271 -0.0153037 -3.59246e-19)
(0.0239369 0.0789263 -1.50044e-18)
(0.0167897 -0.0127439 3.99249e-22)
(-0.000243132 0.000260434 5.92793e-19)
(-0.000294115 0.000129601 1.20001e-18)
(5.94195e-05 -0.000149452 -4.30038e-19)
(-0.00257195 0.00585044 -3.90312e-19)
(0.000306459 -0.000130118 -1.22138e-18)
(-0.000310141 0.00113431 -8.88605e-21)
(0.00972128 -0.0987416 4.0072e-20)
(0.10528 0.049944 1.10223e-17)
(-0.00026528 -0.00013242 -1.84968e-20)
(-0.051059 0.446676 2.20572e-18)
(-0.00610101 0.412737 -4.86417e-18)
(0.00377039 0.00260239 -2.02217e-20)
(0.000926593 0.0828981 2.46852e-19)
(6.58463e-05 -5.56266e-05 2.33151e-19)
(-0.155074 -0.196895 -2.57304e-19)
(0.00124825 -0.0808093 1.09503e-19)
(-0.000135397 0.000151013 1.20526e-20)
(0.0730424 0.0458934 -2.89984e-19)
(-0.0100285 0.0113686 1.73827e-18)
(0.0375149 0.0784556 -6.89821e-19)
(-0.0357518 0.0764852 -4.98678e-19)
(-0.000823901 -7.65608e-06 -1.84644e-19)
(4.98186e-05 -0.000116116 6.29798e-19)
(-2.47075e-05 -5.81291e-07 -3.1863e-19)
(-0.0143841 0.0201924 6.06279e-19)
(-0.00274452 0.0161087 -4.19189e-18)
(-0.000502278 7.87735e-05 4.98272e-20)
(-0.000882561 0.000720453 1.3681e-18)
(-0.0011081 -0.0980781 2.9921e-20)
(-0.00036986 -0.000162223 1.51426e-19)
(-0.0103186 0.0120699 -4.64101e-18)
(0.000197381 -0.00013475 -2.61818e-19)
(-0.00867236 0.010547 2.91279e-18)
(0.222578 0.107628 -6.70661e-18)
(-0.00586834 -0.0715418 7.78913e-19)
(0.0134576 -0.0076506 1.35614e-19)
(-0.0108784 -0.0581897 1.16122e-18)
(-0.0102809 -0.0185318 2.4532e-19)
(0.141424 0.0558727 -1.17032e-18)
(0.00076075 -0.00397996 1.46124e-18)
(-0.000260515 -0.000149585 2.31026e-20)
(0.00467901 -0.00449878 -5.89963e-19)
(-0.0389585 0.0610094 8.33122e-20)
(0.00272573 0.0074985 -1.07e-18)
(-0.000807969 0.0140984 1.71686e-17)
(-0.000471111 7.35811e-05 -2.26593e-19)
(-0.0465224 -0.142597 -8.10376e-19)
(-0.000257528 2.346e-05 1.07693e-18)
(-0.000126098 0.000220118 4.91374e-19)
(0.00742388 0.17494 1.51933e-18)
(-3.48797e-05 -6.98687e-07 -1.06809e-18)
(0.00478135 -0.00524314 7.19165e-20)
(-0.015717 0.0034889 8.00205e-20)
(-0.00243189 -0.053056 -3.80364e-19)
(-0.000204864 0.000267228 2.06879e-18)
(-0.000253973 8.88827e-05 -5.21911e-19)
(-0.00318918 -0.0014138 -1.57318e-18)
(0.00244577 -0.00455757 1.6507e-19)
(0.0001136 0.000100175 -3.63216e-19)
(0.00217052 0.000438739 3.41861e-19)
(0.0148124 0.00643867 1.62047e-19)
(-0.103864 -0.032241 -1.59166e-18)
(-0.00165304 -0.00138623 -8.63073e-19)
(-0.000162421 -2.13805e-05 3.19561e-20)
(-0.0159884 -0.0171177 1.32615e-18)
(0.0691883 0.0392191 2.35125e-19)
(-0.000436843 7.43283e-05 4.99954e-19)
(-0.00606848 -0.0541833 -6.9185e-19)
(0.0350746 0.0705288 1.26493e-17)
(-0.00038331 0.000349645 -1.95002e-18)
(-0.193089 -0.174574 -4.79239e-18)
(0.000159393 0.000108555 9.91284e-20)
(-0.0234028 0.0905003 4.83799e-18)
(-0.000309447 0.000217235 6.68089e-19)
(-0.000615671 0.00140198 -1.62266e-20)
(0.0038989 0.0731363 2.26008e-18)
(0.000966219 -0.00175498 2.9233e-19)
(0.0711693 0.30389 -1.66066e-18)
(-0.00158385 -0.00123005 -6.55079e-20)
(-0.000246818 9.33479e-05 -1.59341e-18)
(-0.135523 -0.140403 -8.42496e-18)
(-0.000314457 0.000203776 -3.1754e-19)
(6.44366e-06 -2.48032e-05 1.06253e-18)
(-0.0002629 -3.74327e-06 -3.61512e-19)
(-0.000263781 -0.000155774 2.46859e-20)
(0.00551391 -0.00574432 4.90573e-19)
(-0.0127117 -0.0124634 4.20255e-19)
(-0.309392 -0.403566 7.16759e-18)
(-0.000120415 -3.01248e-06 2.0653e-19)
(0.267218 0.0601213 9.45115e-19)
(-0.000818223 0.00305785 -2.20735e-19)
(0.0038878 -0.056785 4.45237e-20)
(-0.0738797 0.170857 -4.98812e-18)
(0.000390095 0.000427739 3.48791e-19)
(-0.000359314 9.38955e-05 -5.62827e-18)
(0.00153626 -0.00430356 -1.24371e-18)
(0.000201649 0.000374865 -8.51544e-19)
(-0.00194811 0.0454289 2.47326e-18)
(-0.000309153 -5.3148e-05 -3.81219e-19)
(1.15375e-05 -7.73796e-05 4.15277e-19)
(1.52306e-06 -0.000150914 1.36945e-19)
(-0.000479871 7.56861e-05 -5.49813e-19)
(-0.000215319 0.000213731 2.08716e-18)
(-9.67623e-05 0.0899618 7.49145e-19)
(-0.000959164 0.00578714 -1.28748e-18)
(-0.0147918 0.0145615 -1.05877e-18)
(-0.00151997 -0.0029708 -5.59552e-19)
(0.00362574 -0.00381896 -1.76025e-18)
(0.000569857 0.00407689 3.55791e-19)
(-0.0046121 0.00318585 -1.32078e-19)
(0.00977583 -0.0260723 -6.20541e-20)
(-0.000114642 -5.90817e-07 -1.10425e-18)
(-0.00385741 0.0344901 2.2795e-19)
(-0.0165953 -0.020874 -6.50293e-19)
(9.49544e-05 2.17519e-05 -3.38852e-19)
(-0.00386878 0.306895 1.85915e-18)
(0.209461 0.122373 -2.30163e-18)
(2.02759e-05 9.37853e-06 -4.91084e-19)
(0.0229093 -0.0345744 -1.84015e-19)
(-5.72364e-06 -1.5117e-06 1.33324e-19)
(-0.0130214 0.0442421 -9.86762e-19)
(-0.00473069 0.0100195 6.20946e-18)
(-0.000149001 0.000108905 -2.09906e-20)
(-0.00862658 0.00922915 2.68117e-18)
(0.004017 -0.00430765 1.24565e-19)
(0.00867271 -0.0495246 2.1724e-19)
(1.99263e-05 7.06902e-06 4.19823e-19)
(-0.00207314 0.00275745 1.35794e-17)
(0.0303198 -0.0845932 -3.6923e-18)
(0.0257834 -0.0542709 -5.52617e-20)
(0.0128388 0.0333196 -1.36946e-18)
(-0.000224959 0.000215946 -1.40283e-18)
(-0.0448736 -0.0111903 4.09884e-19)
(0.00417948 0.0269568 1.53778e-17)
(-0.0808878 -0.184799 2.70647e-19)
(-0.00017128 0.000150631 2.00625e-19)
(-0.00218726 0.00055448 -3.82368e-19)
(-0.000738641 -7.59739e-05 -2.27492e-19)
(-0.000291191 -6.3502e-05 5.88019e-19)
(-0.000315771 -3.6202e-05 -1.69451e-19)
(-3.52825e-05 1.98122e-06 -2.90107e-20)
(-0.000120038 -2.04168e-05 2.59759e-19)
(0.0184567 -0.0456857 2.63273e-19)
(-0.00820395 -0.000226206 -1.54264e-19)
(-0.000148098 -2.85188e-05 6.75011e-20)
(1.59676e-05 -0.000109358 -4.30331e-19)
(2.67388e-05 2.54402e-06 2.36564e-19)
(3.96502e-06 -0.000140911 -2.12331e-18)
(0.0240552 -0.0503741 -1.53151e-19)
(0.00276473 0.0270774 -1.35563e-17)
(0.000151171 -5.79103e-06 1.24477e-19)
(0.002951 -0.00433465 1.1694e-20)
(-0.000385147 0.000137228 -5.10542e-19)
(-0.000445608 0.000206639 1.93603e-19)
(-0.0014405 0.000302632 -7.53325e-19)
(-0.000278176 -0.000149467 7.96491e-20)
(-0.000487494 0.0191414 -3.11298e-19)
(2.33409e-05 -0.000121414 -1.11121e-19)
(-0.000249866 -0.000123127 6.16964e-20)
(-0.000118676 -2.16668e-06 -2.57584e-19)
(-0.000414301 3.02515e-05 5.04034e-18)
(-0.00348308 -0.00194083 1.30829e-19)
(0.000961718 0.00176864 -1.13642e-19)
(0.0313451 0.0670293 -1.89643e-17)
(0.0863203 -0.0119308 1.64209e-19)
(-0.00396518 0.000323611 -8.19863e-19)
(-0.000242081 -0.000100687 -1.34038e-20)
(0.020146 0.0439126 9.07139e-18)
(1.05101e-05 -8.62509e-05 -3.33882e-19)
(1.91801e-05 -0.000117484 7.93767e-19)