/*--------------------------------*- C++ -*----------------------------------*\
| =========                 |                                                 |
| \\      /  F ield         | OpenFOAM: The Open Source CFD Toolbox           |
|  \\    /   O peration     | Version:  v2012                                 |
|   \\  /    A nd           | Website:  www.openfoam.com                      |
|    \\/     M anipulation  |                                                 |
\*---------------------------------------------------------------------------*/
FoamFile
{
    version     2.0;
    format      ascii;
    class       volScalarField;
    location    "250";
    object      k;
}
// * * * * * * * * * * * * * * * * * * * * * * * * * * * * * * * * * * * * * //

dimensions      [0 2 -2 0 0 0 0];


internalField   nonuniform List<scalar> 
18355
(
0.0161725
0.000137017
0.000241017
0.000140882
0.000217871
0.000353671
0.000146615
0.000223691
0.000151966
0.00421108
0.000160364
0.000204252
0.000205981
0.0171322
0.000142833
0.000135444
0.000140869
0.000156556
0.000231978
0.000151304
0.000267749
0.000149237
0.00013691
0.000345082
0.000136983
0.000150136
0.000146876
0.000140976
0.000152692
0.000161989
0.00761287
0.000182296
0.000137686
0.00013435
0.000144995
0.0001498
0.000158568
0.000150147
0.000162929
0.000148938
0.000151189
0.000161536
0.000134502
0.00013684
0.000136935
0.000240231
0.000141128
0.000141012
0.00816455
0.000144583
0.000142258
0.00812837
0.000144809
0.000214301
0.000143098
0.000151406
0.000144877
0.0127852
0.000150634
0.000322806
0.000134451
0.000192268
0.000212513
0.000145086
0.000189482
0.000140253
0.000154561
0.000158651
0.000134064
0.00344071
0.000142352
0.000143132
0.000175314
0.000158899
0.000460589
0.000134242
0.0111057
0.000134354
0.000142057
0.000383804
0.000154526
0.000323164
0.000134174
0.000156787
0.000175295
0.000149468
0.000153291
0.000167758
0.000140416
0.00016823
0.0167877
0.000254268
0.000317023
0.000144581
0.00263735
0.000147459
0.000140019
0.000144716
0.000185235
0.000148916
0.000173783
0.000141692
0.000144307
0.000130551
0.0001551
0.000135556
0.000189411
0.00306904
0.000162782
0.000135073
0.000141743
0.000147154
0.000169347
0.000156373
0.000252135
0.000162277
0.000141442
0.000433971
0.000152844
0.000154129
0.00417417
0.000240801
0.0171247
0.000171184
0.000416431
0.000245101
0.000146869
0.000141219
0.02639
0.000147709
0.000140092
0.00575973
0.000143478
0.000188824
0.000197189
0.000140432
0.000231858
0.00260855
0.000142352
0.000269854
0.000156173
0.000228775
0.000140915
0.0302577
0.000197679
0.000146539
0.000319003
0.000131389
0.000169182
0.00629828
0.000140903
0.00015395
0.000144921
0.000179968
0.000134615
0.000138256
0.000141392
0.000149364
0.000140992
0.000139283
0.000157559
0.00014359
0.000135127
0.000202354
0.000159969
0.00204268
0.000335485
0.0326379
0.000490272
0.000156206
0.000146217
0.000186711
0.000148351
0.0080744
0.000145395
0.000150571
0.000146416
0.000130242
0.000151192
0.0001624
0.000149716
0.00181184
0.000148587
0.000141229
0.000262426
0.000144251
0.00015013
0.000168166
0.000143273
0.00014747
0.000241705
0.000185327
0.000137266
0.000134863
0.000143786
0.000255721
0.000139417
0.0477036
0.000137108
0.0179013
0.000144009
0.000153423
0.000163536
0.000149444
0.0322472
0.00014686
0.000481775
0.000141197
0.000137192
0.000144691
0.000146979
0.000302676
0.000151876
0.000148474
0.000131569
0.0081638
0.000162556
0.000155949
0.0001471
0.000141272
0.000162129
0.000134003
0.000166179
0.000177861
0.000167555
0.00016011
0.000134211
0.00293761
0.000186877
0.0001703
0.000145133
0.00015511
0.00383509
0.000134164
0.000201636
0.000164926
0.000149037
0.000242241
0.000155081
0.000148599
0.000137332
0.000150963
0.000146389
0.000168368
0.000146879
0.000143093
0.000140927
0.000302336
0.00029777
0.000143071
0.000147111
0.000279943
0.000216444
0.000179458
0.00013027
0.000212925
0.000155092
0.000147427
0.000159173
0.0001396
0.0064028
0.000934865
0.000182557
0.000160913
0.000164594
0.00020516
0.000216388
0.000187995
0.000139548
0.000143136
0.000148485
0.000135155
0.000153381
0.000156197
0.000140649
0.000146993
0.000170204
0.000140289
0.00018606
0.00557812
0.000166522
0.000147242
0.00016363
0.000135037
0.000167596
0.000146171
0.000163893
0.000148622
0.000163022
0.00655341
0.000137431
0.000172286
0.000152365
0.000162211
0.000212562
0.000145196
0.000134661
0.00018413
0.000146988
0.000230014
0.000158613
0.00466405
0.000167792
0.000183316
0.000154917
0.000172689
0.000144077
0.00015371
0.000160401
0.000172251
0.00161413
0.00028928
0.000142142
0.00015751
0.000201145
0.000164569
0.000142072
0.000140953
0.000140933
0.00017544
0.000281718
0.0179094
0.0018589
0.000169419
0.000155697
0.000286606
0.00013126
0.000146616
0.000155678
0.000144128
0.000170346
0.000144208
0.00434758
0.000135848
0.000399416
0.000143514
0.000148692
0.000155795
0.000210466
0.0422808
0.000168443
0.00153881
0.000149384
0.000140531
0.000144017
0.000161704
0.0047228
0.00014077
0.000145295
0.000581263
0.000149002
0.000140863
0.000216242
0.000159125
0.000140931
0.000144503
0.000165138
0.000151833
0.000165048
0.000135526
0.000145239
0.000148703
0.000293816
0.000316407
0.000135223
0.000140726
0.000217222
0.000140995
0.000147936
0.00124103
0.000356973
0.00017418
0.000143871
0.000149246
0.000206777
0.000149212
0.000216641
0.000153843
0.000136596
0.000203235
0.000205873
0.000148207
0.000144115
0.000156652
0.000146231
0.000156866
0.000143734
0.000204821
0.000146478
0.000153393
0.000142694
0.000140985
0.000152682
0.000149964
0.000183755
0.000901011
0.000349096
0.000155006
0.000215572
0.000178314
0.000143728
0.000143859
0.000170519
0.000143286
0.000178442
0.000145855
0.000163052
0.000306859
0.000654765
0.0312513
0.000183423
0.000130686
0.0487023
0.000148906
0.000140584
0.000282305
0.000143078
0.000179882
0.000137193
0.000194693
0.000143046
0.000185626
0.00132555
0.000180548
0.000144036
0.000137508
0.000181539
0.00015282
0.00014284
0.00328012
0.000514637
0.000140528
0.000171147
0.000183868
0.000137428
0.000150313
0.000166577
0.0116252
0.000167401
0.000149022
0.000144328
0.00016719
0.000144518
0.000136164
0.000143781
0.000163569
0.000533526
0.000136396
0.000151469
0.000145142
0.000212355
0.000203801
0.000134785
0.000180683
0.000166452
0.00014517
0.000256043
0.000192213
0.000148796
0.000145946
0.000166481
0.00021386
0.00729225
0.000136186
0.0493175
0.00014285
0.000136396
0.000169341
0.000153127
0.000207053
0.000175157
0.000153703
0.000160151
0.000149253
0.000215056
0.000153313
0.0001596
0.000149248
0.000135968
0.000147862
0.000136166
0.000191843
0.000561913
0.000194416
0.0001576
0.000147159
0.000149263
0.000145881
0.000154993
0.000145815
0.000135591
0.000143673
0.000167754
0.000137438
0.000145652
0.0180971
0.0501694
0.000203304
0.000147522
0.000151009
0.00016668
0.000149064
0.00537189
0.000262698
0.000156739
0.000157201
0.000159688
0.000150493
0.000154009
0.00396894
0.000164674
0.000149004
0.00710552
0.000146928
0.0415987
0.043957
0.000155712
0.000149992
0.00581508
0.00014071
0.000184151
0.000183041
0.00548819
0.000153363
0.000147715
0.000145051
0.00382034
0.0083597
0.00479229
0.00276614
0.000154118
0.000144914
0.000156728
0.000143146
0.000154687
0.000273139
0.00743399
0.0014798
0.00032983
0.000168431
0.000179232
0.000171384
0.000141185
0.000142183
0.000171403
0.000154485
0.000146374
0.000143094
0.000410688
0.000139917
0.000526202
0.000159893
0.000189902
0.000208863
0.000142241
0.000156415
0.037803
0.000143633
0.00930447
0.000143464
0.000242466
0.000164747
0.000149195
0.000171089
0.000187907
0.000183947
0.000150287
0.000134061
0.000165854
0.000156032
0.000189978
0.000143456
0.000192465
0.000139856
0.00025833
0.000146257
0.000143525
0.000230606
0.000171572
0.000192044
0.00014432
0.000158012
0.000157572
0.00388001
0.0177237
0.000154848
0.000192228
0.000145277
0.000163217
0.000148444
0.000154561
0.0200407
0.00013676
0.000421354
0.000146936
0.000145763
0.000155086
0.00541929
0.000152568
0.00019152
0.000149401
0.000166576
0.00151661
0.000131392
0.000140986
0.0520415
0.000167773
0.0219795
0.000175707
0.000148063
0.000143102
0.000142752
0.000158903
0.000149903
0.000136496
0.000213391
0.002479
0.000143301
0.00880445
0.0105048
0.000158461
0.000238715
0.000136379
0.00272351
0.00469039
0.000132435
0.00228356
0.000169045
0.000272646
0.00379231
0.000143274
0.000142737
0.000148306
0.000776668
0.000174729
0.000144412
0.000148876
0.000213562
0.000148617
0.000169928
0.000143539
0.000167693
0.0493929
0.00382292
0.000255713
0.00347362
0.000169318
0.0123231
0.000157152
0.000140591
0.000160836
0.00346063
0.00017963
0.000173279
0.000144213
0.000196018
0.000145322
0.000148403
0.0565973
0.000149052
0.000161545
0.000228644
0.000188118
0.000144584
0.000142865
0.000155004
0.00015886
0.000134077
0.000146558
0.000173483
0.000221604
0.000153221
0.000145395
0.00016996
0.00139598
0.000143604
0.00303609
0.000253574
0.000145061
0.0374536
0.000134679
0.000244714
0.000143618
0.000137981
0.000229533
0.000153953
0.0131202
0.000152909
0.00014288
0.0331437
0.000143595
0.000134917
0.000145644
0.00014069
0.000162374
0.000166604
0.0306496
0.000151776
0.00588148
0.000154522
0.0030071
0.00518621
0.000150453
0.000143979
0.000157965
0.00013664
0.000200926
0.000142495
0.000134827
0.000135804
0.000144231
0.000143555
0.000250032
0.00015869
0.000173557
0.000151613
0.000157131
0.000156607
0.000165611
0.000839567
0.000137364
0.000191521
0.000171868
0.000134382
0.00753381
0.0517241
0.000141717
0.00171582
0.000145302
0.00311228
0.000166403
0.000132264
0.000166264
0.000159914
0.00244261
0.00014249
0.000154407
0.00462424
0.000199309
0.000272018
0.000143523
0.00423247
0.000188474
0.00155514
0.000143464
0.00015198
0.000142858
0.000146225
0.000141941
0.000144357
0.000136772
0.00223931
0.000170986
0.00014118
0.000134285
0.000140126
0.000148775
0.00019603
0.000187855
0.000137422
0.000158919
0.000146762
0.000146949
0.000145769
0.000140827
0.000207964
0.000134316
0.000140244
0.000149717
0.000147299
0.000151788
0.000146304
0.00024678
0.000253531
0.000155084
0.000140082
0.000212122
0.000134719
0.000134383
0.000146227
0.000274586
0.000157531
0.00014503
0.000136077
0.000137162
0.000159992
0.000133989
0.000161986
0.000142389
0.000148416
0.000141842
0.000151798
0.0185333
0.000140527
0.000148924
0.000143475
0.000239467
0.00549379
0.000158342
0.000149918
0.000178689
0.00016076
0.000208423
0.000892334
0.000149691
0.00456483
0.000149035
0.0004181
0.000149342
0.000136893
0.000135938
0.00191021
0.000135587
0.000158603
0.000188281
0.000220354
0.000178359
0.000153887
0.000142473
0.000142986
0.000143431
0.000160065
0.000199098
0.00435285
0.000171703
0.000145424
0.000134013
0.000155117
0.000141776
0.000140857
0.000148447
0.000173537
0.000165407
0.000762302
0.000145348
0.000144336
0.000173795
0.00014315
0.000213963
0.000172353
0.000169999
0.000210369
0.000322292
0.000166907
0.000141173
0.000134092
0.000147484
0.000142951
0.0033223
0.000174443
0.000199793
0.000136842
0.000147108
0.00015569
0.000141119
0.000914373
0.000284526
0.000134419
0.000135908
0.000143322
0.000141955
0.000140853
0.000144469
0.000237057
0.000135004
0.000149114
0.000136875
0.000137912
0.000142066
0.00014599
0.000161048
0.000137867
0.000171739
0.000136037
0.000276388
0.000237823
0.00015581
0.00184862
0.000154009
0.000148648
0.000184915
0.00257662
0.000144523
0.000140322
0.000137011
0.000182661
0.000151061
0.000166907
0.000285582
0.00014647
0.00014961
0.000144646
0.000344995
0.00153922
0.000151884
0.000139712
0.000155424
0.000167575
0.000142238
0.000184553
0.000140302
0.000133944
0.000155312
0.000276964
0.00302011
0.00323593
0.000239139
0.000134731
0.00024735
0.000201008
0.000157022
0.000143396
0.000201117
0.000156849
0.000261688
0.000359404
0.000141675
0.000134813
0.000144677
0.000148603
0.000134928
0.00159415
0.00289568
0.000134612
0.000146719
0.000149509
0.000167842
0.000143908
0.000141773
0.000219962
0.000148665
0.000142309
0.00181771
0.00019516
0.000191402
0.000142777
0.000135897
0.000134818
0.000144887
0.000165827
0.00018542
0.000140492
0.00013916
0.000154347
0.00435647
0.000137031
0.0001439
0.000182634
0.000140918
0.000139156
0.000143551
0.000539506
0.000135711
0.000144428
0.000137093
0.000154275
0.000135724
0.000157418
0.000212532
0.00014393
0.000235429
0.000160619
0.00022921
0.000178586
0.000140813
0.000158353
0.000140341
0.00013903
0.000140824
0.00368096
0.00743142
0.000211175
0.000158747
0.00693568
0.000186345
0.000150023
0.000197525
0.000229373
0.000152735
0.00013553
0.00742688
0.000149904
0.00014079
0.000138004
0.000261291
0.00205213
0.0381058
0.000138863
0.000194855
0.00491087
0.000168816
0.00017116
0.000156675
0.000155622
0.000165461
0.00171819
0.000153279
0.000150037
0.000158895
0.0412234
0.000248048
0.000143824
0.000146613
0.000143243
0.000289407
0.000155054
0.000149308
0.00740155
0.000157302
0.000176597
0.00015665
0.0068157
0.000138585
0.000273385
0.00014979
0.000135866
0.000141249
0.000135546
0.000135902
0.000140703
0.000148205
0.000254414
0.000138177
0.000507697
0.000158117
0.000147398
0.000141254
0.000193953
0.000143199
0.000146567
0.000156957
0.0073942
0.000212781
0.000153889
0.000146417
0.000353179
0.000138556
0.000168873
0.000146194
0.0368445
0.000172425
0.00515493
0.000158882
0.000142834
0.000219376
0.0135947
0.000295776
0.000137699
0.000143489
0.000167861
0.0180888
0.000130944
0.000174156
0.000141311
0.000161413
0.000140344
0.000134824
0.000149077
0.000149998
0.0001352
0.000176799
0.000172553
0.000159311
0.000208885
0.00594284
0.000150337
0.00311469
0.000136285
0.000200439
0.000271909
0.00022056
0.000134583
0.000149181
0.000145979
0.00663619
0.000144261
0.000140581
0.000193776
0.000146482
0.000146181
0.000151087
0.000149599
0.000142955
0.0455131
0.00524325
0.000182523
0.00013912
0.000145219
0.000226706
0.000136302
0.000306676
0.00014713
0.000145757
0.000149077
0.000155248
0.000236293
0.000140199
0.00014504
0.0512247
0.000147196
0.000148462
0.000167985
0.00028872
0.00128132
0.00014433
0.000143462
0.0187341
0.00335233
0.0159412
0.000140288
0.000165157
0.000225502
0.000137688
0.00020243
0.000153315
0.0033441
0.000155218
0.00014598
0.000149875
0.000135585
0.00129082
0.000144916
0.000138972
0.0051864
0.000188034
0.000859009
0.000135254
0.000152118
0.00013553
0.000131987
0.000136158
0.000149254
0.00014659
0.000149032
0.000135636
0.000148445
0.000173168
0.000162988
0.000167572
0.000140242
0.00015572
0.000141874
0.00724114
0.000147369
0.000149396
0.000148187
0.000135956
0.000148776
0.000145866
0.000143889
0.000143278
0.000141142
0.000136186
0.00408358
0.00133607
0.000144525
7.37032e-05
0.000166045
0.000149708
0.000147647
0.000150202
0.00428908
0.000147327
0.000136257
0.000134569
0.000134616
0.0413805
0.000144334
0.000136883
0.000254167
0.000134135
0.000133268
0.000178854
0.000187376
0.000208502
0.00021211
0.0215813
0.000135645
0.000523785
0.00015684
0.000143097
0.000136818
0.00016356
0.000143135
0.00016205
0.000179783
0.000154031
0.000151378
0.0565266
0.000172952
0.0497559
0.00309427
0.00303693
0.000216876
0.000139049
0.000269273
0.000434315
0.000135074
0.000639712
0.000138848
0.000150749
0.000209297
0.00014034
0.000352817
0.000158502
0.000152732
0.000149185
0.000227963
0.000143806
0.00183414
0.000142848
0.000136315
0.00541952
0.000133527
0.000147485
0.000148448
0.000176997
0.00014225
0.000144018
0.000153169
0.00217962
0.000144197
0.000144272
0.000136882
0.000154349
0.000142356
0.00015074
0.000902264
0.000141392
0.000157301
0.000148061
0.000155038
0.000158936
0.000140415
0.000148784
0.000197203
0.000146968
0.000147548
0.000159514
0.00623218
0.000150498
0.00014174
0.000143932
0.000159016
0.000208966
0.000151715
0.000140953
0.000141304
0.000137736
0.000131835
0.000135563
0.000160167
0.000195663
0.000178058
0.000146743
0.0168635
0.000139545
0.00014482
0.010606
0.000173636
0.000134132
0.000186968
0.000146533
0.000140937
0.00365989
0.00014877
0.000168955
0.000132437
0.000215244
0.000139454
0.000134717
0.000135987
0.000822918
0.000218585
0.000146776
0.000263271
0.000135804
0.000142082
0.000138991
0.000210268
0.000145525
0.000138469
0.000149273
0.000152356
0.000142951
0.000145756
0.000140395
0.000147773
0.000146697
0.000140233
0.00015543
0.000135305
0.0138028
0.000183794
0.000136607
0.000231712
0.00015734
0.000140755
0.000139757
0.000151278
0.0001406
0.000160808
0.000155505
0.000199014
0.000201688
0.000147799
0.000187543
0.000216723
0.000143003
0.000147546
0.000192536
0.000152405
0.00663676
0.000135596
0.000143458
0.000152318
0.000147542
0.000142166
0.000156991
0.000140479
0.000151886
0.000143828
0.000152242
0.000139485
0.000203338
0.00014469
0.000154328
0.000189187
0.000142977
0.00346813
0.00504699
0.000155321
0.000160619
0.000160731
0.000134224
0.000189978
0.000145535
0.000164506
0.00872116
0.00444408
0.000211318
0.000151915
0.000160444
0.000142617
0.000162644
0.000139034
0.000333118
0.000189467
0.000147532
0.000140614
0.000225167
0.000173622
0.000142801
0.00014313
0.000265679
0.000147559
0.000138387
0.00036324
0.00017852
0.000134957
0.000242665
0.000136137
0.000229522
0.00017992
0.000142989
0.000144262
0.000156658
0.000284285
0.000140057
0.000157752
0.000144248
0.000143007
0.000139758
0.0183387
0.000148261
0.000145182
0.000143717
0.000228668
0.00015809
0.000140222
0.000132871
0.00020021
0.000142168
0.000136888
0.000240063
0.000338895
0.000148739
0.000247963
0.000157152
0.000175101
0.000150617
0.000180543
0.00375188
0.000147049
0.000141376
0.000137096
0.000155169
0.000142766
0.00913701
0.00200498
0.000137434
0.000150359
0.000136468
0.000135643
0.0560796
0.000142857
0.000152044
0.000152069
0.000217857
0.000144474
0.000147911
0.000155527
0.00398202
0.000146407
0.00014526
0.000137403
0.000138405
0.000154681
0.000173651
0.000146785
0.00014208
0.000144919
0.000143311
0.00013712
0.0474176
0.000148139
0.00014339
0.000141828
0.000181544
0.000136562
0.000136905
0.000165472
0.000142127
0.000183662
0.00014404
0.000144421
0.00304158
0.0195905
0.000343294
0.000276868
0.000159071
0.000148395
0.0479549
0.000139617
0.000155517
0.00013529
0.000474695
0.000130398
0.000155084
0.000144571
0.00868668
0.000176205
0.000234357
0.0291359
0.000151332
0.000192593
0.00014799
0.0001497
0.0504673
0.000165592
0.000142114
0.000136074
0.000153915
0.000161468
0.000143956
0.00014496
0.0001396
0.000134846
0.000239121
0.00713114
0.000148081
0.000155256
0.00029974
0.00976925
0.000151759
0.000149825
0.000152684
0.000154731
0.000142335
0.000150744
0.000313134
0.000140272
0.00013635
0.000146188
0.000339358
0.000343077
0.000156765
0.000146771
0.000147248
0.000159179
0.000143648
0.000159411
0.000170756
0.000252334
0.000155188
0.001196
0.00013472
0.000142833
0.000148297
0.000135218
0.000146884
0.000140025
0.000257663
0.000140889
0.000371718
0.000144989
0.000139051
0.000137631
0.000185916
0.000151536
0.00017311
0.000177932
0.000136151
0.0500649
0.000156594
0.000138104
0.000133326
0.00508317
0.000275185
0.000133579
0.000140399
0.00014085
0.00015064
0.000222157
0.000285707
0.000149699
0.000148682
0.000210998
0.024166
0.000149581
0.000142579
0.000292045
0.000154073
0.000585432
0.000154559
0.000142294
0.000182045
0.000176356
0.0217571
0.000183501
0.00279123
0.000136931
0.000142083
0.000149476
0.000146448
0.000154072
0.000147905
0.000146109
0.000139453
0.000147777
0.000146288
0.000146159
0.000145184
0.00015247
0.000149371
0.000143584
0.000141557
0.000177003
0.00016225
0.000140358
0.000145224
0.000236088
0.00014482
0.00014746
0.00014912
0.0156208
0.000136925
0.000168839
0.000150763
0.000136134
0.000143326
0.00320978
0.00021616
0.000149344
0.000147058
0.000154826
0.000167148
0.000140021
0.000161042
0.000180453
0.000141192
0.000199156
0.000140857
0.000143179
0.000142483
0.000147788
0.000160621
0.000190629
0.0146269
0.000182514
0.000136359
0.000144917
0.000143297
0.000210934
0.000149029
0.00197505
0.000139699
0.000143784
0.000143453
0.00018783
0.00014241
0.000146529
0.000144064
0.000211993
0.000137
0.0213659
0.000137052
0.000176795
0.000144757
0.000161272
0.000140766
0.000153623
0.00221707
0.000218098
0.000136403
0.000178984
0.000145219
0.000146631
0.0300032
0.0037891
0.00013625
0.000142743
0.000152745
0.0001359
0.00014364
0.00014839
0.000147576
0.000161772
0.000177549
0.000150207
0.000157759
0.000222391
0.000147728
0.000140793
0.000142096
0.000154473
0.00016038
0.000144094
0.0183639
0.00014054
0.0411714
0.000168205
0.000136653
0.000140163
0.000139901
6.61361e-05
0.000146321
0.000154969
0.00014635
0.000140634
0.00548604
0.000151029
0.000174616
0.000147223
0.000145554
0.000151431
0.0001432
0.000150964
0.000143398
0.000151874
0.000149371
0.000149046
0.00373176
0.000168599
0.00414916
0.000140873
0.000178352
0.00015156
0.0052307
0.00018053
0.000462838
0.000151642
0.000134969
0.000171049
0.000142851
0.00485139
0.000149634
0.00019653
0.000151518
0.00433498
0.0135508
0.00015446
0.000174815
0.000139331
0.00013746
0.000148517
0.000134533
0.000147938
0.000152803
0.000139405
0.000162502
0.000202794
0.00454536
0.000140602
0.00023629
0.000134655
0.000142409
0.000143585
0.000195925
0.000147531
0.000227757
0.000148013
0.000143377
0.0452724
0.000140185
0.0001545
0.00014223
0.000156915
0.00040233
0.00016594
0.0334768
0.00014464
0.000179452
0.000152465
0.000141708
0.000143754
0.000186823
0.000165026
0.000143083
0.000151589
0.000143136
0.00371986
0.000139071
0.000297919
0.000288533
0.000183667
0.00015849
0.000218938
0.000188132
0.000134524
0.0130544
0.000142364
0.000358162
0.000148967
0.000151853
0.00551973
0.00604321
0.000160041
0.00185368
0.000143513
0.0041846
0.000131084
0.000331539
0.000135201
0.000150238
0.000196159
0.000146038
0.000139087
0.000149563
0.000144278
0.000176443
0.00440192
0.000164875
0.00249567
0.000140964
0.0179353
0.000144312
0.000146701
0.000142819
0.000144904
0.00515333
0.000146977
0.000137994
0.000167729
0.000148118
0.00659273
0.000192878
0.000142958
0.000201459
0.000165142
0.000140391
0.000144755
0.000155985
0.000136595
0.00017961
0.000161048
0.000152187
0.000151947
0.000137216
0.000145796
0.000180882
0.000149684
0.000144893
0.000150166
0.000134831
0.000135734
0.0452662
0.000162031
0.00114914
0.000158615
0.00017805
0.000161796
0.000141982
0.000166267
0.00013886
0.00014074
0.00117839
0.000165005
0.000176448
0.000173464
0.000147591
0.000245953
0.000499331
0.00014336
0.000163715
0.000190929
0.0545607
0.00013644
0.000138186
0.00014776
0.000199576
0.00330238
0.000166081
0.000153942
0.000148747
0.000142022
0.000135356
0.00104198
0.000155161
0.000150881
0.00453398
0.000146759
0.000154292
0.000157187
0.000144995
0.000142797
0.000143031
0.000178652
0.000199441
0.000149033
0.000152567
0.00025098
0.0001421
0.000149313
0.000154553
0.000146731
0.00593156
0.00468751
0.00029212
0.000192014
0.0180623
0.000152859
0.000139775
0.00026514
0.000155088
0.000161699
0.000142949
0.000135329
0.00642524
0.00221385
0.00014137
0.000139497
0.00016152
0.000316138
0.000154846
0.000134917
0.0509408
0.000152271
0.000167347
0.000134962
0.000162108
0.000131089
0.000151355
0.00016007
0.000142027
0.0288115
0.000149127
0.000166176
0.00019479
0.00428019
0.000188838
0.000142195
0.000182462
0.000154972
0.00016399
0.000150637
0.000148699
0.000145352
0.000152646
0.00168926
0.000151726
0.00167888
0.000139893
0.00022727
0.000135968
0.000148818
0.000281882
0.000155299
0.000226473
0.000158248
0.000149505
0.0093984
0.0520741
0.000140012
0.0393189
0.000172692
0.000138821
0.000133891
0.0271046
0.0375257
0.000138875
0.000136157
0.000143662
0.00013691
0.0474231
0.000252659
0.000130223
0.000133087
0.000139933
0.000239553
0.000174951
0.006856
0.000135941
0.000271621
0.000146855
0.000179195
0.0341569
0.000164498
0.00013942
0.000139612
0.0062864
0.000136713
0.000141207
0.000136606
0.000163251
0.000151285
0.0295998
0.000162495
0.000148704
0.000142377
0.000157811
0.000226298
0.000185123
0.000141665
0.000141759
0.000217137
0.000176381
0.000149027
0.00260249
0.00016475
0.000153348
0.0566143
0.000151629
0.000159844
0.000148323
0.00137783
0.000145314
0.000148703
0.0505032
0.000159187
0.000141137
0.000143283
0.000131119
0.000182407
0.000202552
0.000141031
0.000136035
0.00015027
0.000184926
0.000156844
0.000135082
0.000142795
0.000139153
0.0001573
0.00017159
0.000145703
0.000142707
0.0368318
0.000141925
0.0135645
0.000161786
0.000165807
0.000154124
0.000150513
0.000144968
0.0247007
0.000187985
0.000186005
0.0304153
0.00016132
0.000140084
0.000736851
0.000136408
0.000188174
0.0375101
0.000157643
0.000141766
0.000154175
0.000187614
0.000142657
0.000143023
0.0430535
0.000142874
0.000151753
0.000140444
0.000146758
0.00013736
0.000190338
0.000205649
0.000135918
0.000141034
0.00358407
0.000142563
0.000136519
0.000140833
0.000140611
0.000290934
0.000163946
0.000153608
0.000153553
0.000149165
0.000137312
0.000179904
0.000198691
0.000157955
0.000263396
0.000152606
0.000155062
0.0304442
0.000140104
0.000136281
0.000143252
0.000140413
0.000148742
0.000132619
0.000149045
0.0365098
0.000144773
0.000141748
0.000155988
0.000140612
0.00246777
0.000147664
0.0415849
0.000232116
0.000175243
0.000161325
0.0025762
0.00016142
0.000142992
0.000154601
0.000140464
0.000151984
0.000147642
0.000148331
0.000326145
0.000135888
0.000143789
0.000170453
0.000302737
0.000147833
0.000139736
0.000224936
0.000151326
0.000184862
0.000143027
0.000139866
0.000143745
0.04177
0.000146335
0.000293822
0.000176658
0.000149296
0.000139647
0.000143112
0.000159457
0.00435698
0.000135991
0.000180649
0.000141738
0.0402491
0.000237488
0.000148939
0.000220467
0.000146106
0.000153679
0.00015334
0.000257855
0.000163267
0.000160156
0.000161097
0.00533434
0.000147724
0.000180926
0.000144513
0.000204047
0.000214835
0.000235713
0.000142716
0.000165176
0.0045109
0.00605117
0.000154858
0.000154508
0.00537601
0.00536028
0.000140244
0.000179453
0.000143172
0.000156571
0.000146098
0.000152591
0.000151845
0.0288336
0.000147461
0.000148094
0.000179727
0.00537942
0.00483793
0.000207438
0.00413471
0.000139785
0.00474197
0.000182024
0.000142181
0.000141735
0.00714358
0.000158838
0.000145084
0.000142579
0.000169373
0.000138628
0.000142816
0.000324278
0.000145552
0.000148272
0.000141078
0.000143806
0.00015119
0.000138959
0.0538986
0.000170791
0.000153479
0.00013927
0.000166074
0.00163334
0.000142389
0.000147794
0.00502883
0.000229748
0.000143424
0.000154548
0.000138701
0.000140392
0.000192903
0.000220332
0.000140431
0.000143127
0.00534711
0.00079528
0.00592298
0.000188968
0.00015001
0.00444754
0.000140552
0.000155541
0.000154399
0.000139693
0.0533839
0.00474629
0.0001683
0.000188056
0.00036149
0.000133899
0.000133063
0.000152605
0.000165147
0.00229802
0.000136515
0.000169411
0.000711637
0.000292057
0.000147035
0.00015102
0.000255994
0.000142593
0.000155372
0.00155595
0.00014085
0.000142516
0.000139002
0.000245748
0.000141517
0.000164633
0.000149286
0.000215804
0.000163827
0.00541389
0.000143009
0.000142136
0.000166052
0.00014765
0.000177626
0.000148921
0.000199268
0.000205428
0.000140773
0.000144422
0.0176468
0.000293426
0.0184122
0.000139035
0.000143333
0.000155279
0.00014526
0.000143124
0.000143991
0.00014532
0.000148481
0.000139493
0.000139617
0.000176893
0.000153384
0.000170498
0.0160378
0.000183327
0.000176014
0.000157835
0.000203702
0.000216491
0.000161677
0.00015809
0.000160553
0.000141657
0.0103091
0.00013601
0.00013578
0.000140518
0.0044624
0.000142396
0.00404402
0.000148472
0.000134995
0.000182698
0.000142849
0.000142209
0.000142815
0.000201344
0.00186647
0.00014699
0.000139716
0.000151536
0.000215612
0.000175686
0.00619535
0.000142899
0.000174299
0.000146366
0.000145623
0.000136332
0.000138857
0.000143341
0.000156836
0.000677919
0.000152092
0.000152404
0.000205547
0.00354067
0.000207523
0.000142048
0.000197039
0.000164219
0.00172282
0.000137904
0.000142634
0.000155106
0.000514417
0.000132484
0.000144618
0.000138814
0.000136648
0.000206979
0.000153029
0.000180796
0.000144072
0.00013226
0.000171783
0.000143969
0.00548915
0.000144397
0.000163195
0.000147933
0.000158286
0.0001493
0.000181549
0.00609735
0.000142469
0.000185249
0.000409476
0.000141648
0.000146718
0.000171286
0.000131908
0.0553569
0.000189489
0.000142645
0.000180566
0.000134308
0.000145921
0.000147858
0.000141437
0.000136654
0.000149875
0.000140414
0.00013875
0.000145188
0.000148589
0.000175335
0.000135972
0.000217386
0.000138401
0.000140347
0.000159113
0.000172593
0.000149932
0.000131996
0.000142424
0.000153922
0.000171978
0.000501682
0.00016462
0.000149096
0.000148972
0.00013943
0.000161141
0.000140666
0.000152404
0.000288462
0.000241181
0.000174668
0.000141352
0.00014832
0.000149833
0.000132121
0.000197019
0.000134868
0.000219932
0.000149324
0.000240511
0.000157774
0.000285213
0.000146742
0.000181906
0.0309412
0.0063538
0.00191904
0.000157164
0.00715646
0.000293608
0.000148667
0.000165734
0.00044647
0.000138397
0.000138985
0.000143908
0.00015574
0.00120896
0.000145974
0.000158707
0.00296213
0.000130246
0.000144537
0.000268254
0.0119671
0.000197779
0.00240278
0.00535115
0.000149941
0.000185173
0.000153266
0.000154095
0.00380435
0.000154235
0.0267824
0.000247057
0.000153592
0.000146008
0.000152165
0.000159248
0.000139462
0.0181775
0.000132377
0.000142846
0.000143257
0.00821098
0.0299852
0.000205655
0.000144838
0.000151136
0.000138798
0.0414919
0.000143512
0.000149524
0.000153751
7.76144e-05
0.000138614
0.000187789
0.0378539
0.00494694
0.000147384
0.0012331
0.000139523
0.00344802
0.000132779
0.00023317
0.00014826
0.000184249
0.000159979
0.00464262
0.000213057
0.000152866
0.000150833
0.000192676
0.000155736
0.000141806
0.000138685
0.000158564
0.000148584
0.00335507
0.000131548
0.000142796
0.000144165
0.00014374
0.00231618
0.000139231
0.000134594
0.000146763
0.000488803
0.000161222
0.000179272
0.00015257
0.000151066
0.000190707
0.000139705
0.000143159
0.000183232
0.00017282
0.00013461
0.000169128
0.000152236
0.00424499
0.000142705
0.000291615
0.000148129
0.000143074
0.000135273
0.000134897
0.000142245
0.000141315
0.000448355
0.000180754
0.000146959
0.000143073
0.000142226
0.000152866
0.000158134
0.013929
0.00014621
0.000197724
0.000164916
0.00571722
0.000147403
0.00017116
0.000143036
0.00014273
0.000164609
0.000142579
0.000145745
0.00014046
0.000135985
0.000415058
0.000143515
0.00013918
0.000266106
0.0042285
0.000189039
0.00014631
0.000134868
0.000154745
0.0363001
0.000153095
0.000147854
0.000146511
0.000482508
0.00014842
0.0001439
0.0340252
0.000141172
0.00015579