/*--------------------------------*- C++ -*----------------------------------*\
| =========                 |                                                 |
| \\      /  F ield         | OpenFOAM: The Open Source CFD Toolbox           |
|  \\    /   O peration     | Version:  v2012                                 |
|   \\  /    A nd           | Website:  www.openfoam.com                      |
|    \\/     M anipulation  |                                                 |
\*---------------------------------------------------------------------------*/
FoamFile
{
    version     2.0;
    format      ascii;
    class       volScalarField;
    location    "250";
    object      k_0;
}
// * * * * * * * * * * * * * * * * * * * * * * * * * * * * * * * * * * * * * //

dimensions      [0 2 -2 0 0 0 0];


internalField   nonuniform List<scalar> 
18355
(
0.0156752
0.000137017
0.000241077
0.000140882
0.000217852
0.000356498
0.000146613
0.000223654
0.000151967
0.00421538
0.000160359
0.000204209
0.000205937
0.0171894
0.000142833
0.000135444
0.000140869
0.000156544
0.000231884
0.000151298
0.000268629
0.000149237
0.00013691
0.000345792
0.000136983
0.000150134
0.000146874
0.000140976
0.000152693
0.000161984
0.00764473
0.000182329
0.000137687
0.00013435
0.000144995
0.00014981
0.00015857
0.000150157
0.000162924
0.000148933
0.000151189
0.000161531
0.000134502
0.00013684
0.000136935
0.000240228
0.000141128
0.000141012
0.00819529
0.000144586
0.000142257
0.00771949
0.000144813
0.00021406
0.000143098
0.000151405
0.000144875
0.0128896
0.000150634
0.000322815
0.000134451
0.000192216
0.000212272
0.000145084
0.000189537
0.000140252
0.000154566
0.000158653
0.000134063
0.00341966
0.000142352
0.000143132
0.000175339
0.000158883
0.000454752
0.000134242
0.0112952
0.000134354
0.000142057
0.000380025
0.000154531
0.000321329
0.000134173
0.000156795
0.000175345
0.000149467
0.000153291
0.000167796
0.000140416
0.000168269
0.0168617
0.00025434
0.000316013
0.000144584
0.00266529
0.000147465
0.000140019
0.000144717
0.000185153
0.000148916
0.000173831
0.000141692
0.000144309
0.000130551
0.000155105
0.000135556
0.000189461
0.00310012
0.000162797
0.000135074
0.000141742
0.000147153
0.000169355
0.00015638
0.000252133
0.000162286
0.000141442
0.000430508
0.000152845
0.000154134
0.00417295
0.000240785
0.0171466
0.000171224
0.000414184
0.000245071
0.000146868
0.000141219
0.0258578
0.00014771
0.000140091
0.00546455
0.000143478
0.000188751
0.000197227
0.000140432
0.000231735
0.00260691
0.000142352
0.000269845
0.000156179
0.000228569
0.000140915
0.029809
0.00019772
0.000146539
0.00031899
0.00013139
0.00016919
0.00631853
0.000140904
0.000153955
0.000144921
0.000179961
0.000134616
0.000138256
0.000141392
0.000149363
0.000140992
0.000139284
0.000157548
0.00014359
0.000135128
0.000202235
0.000159955
0.0020526
0.000335546
0.0319755
0.000490882
0.000156212
0.000146216
0.000186646
0.00014835
0.00808279
0.000145393
0.000150571
0.000146415
0.000130242
0.000151194
0.00016242
0.000149715
0.00181985
0.000148588
0.000141229
0.000265163
0.000144252
0.000150131
0.000168206
0.000143274
0.000147469
0.000241671
0.000185245
0.000137266
0.000134862
0.000143786
0.000255631
0.000139416
0.0474766
0.000137109
0.017933
0.00014401
0.00015341
0.000163529
0.000149444
0.031717
0.000146861
0.000482162
0.000141197
0.000137192
0.000144687
0.000146978
0.000302673
0.000151876
0.000148472
0.00013157
0.00816483
0.000162575
0.000155951
0.000147101
0.000141272
0.000162144
0.000134002
0.000166214
0.000177837
0.000167114
0.000160113
0.00013421
0.00294886
0.000188596
0.000170323
0.000145131
0.000155116
0.00385491
0.000134164
0.000201471
0.000163183
0.000149038
0.000242192
0.000155081
0.000148598
0.000137333
0.000150965
0.00014639
0.00016839
0.000146879
0.000143094
0.000140928
0.000302209
0.000297124
0.000143071
0.00014711
0.000279403
0.000216374
0.000179444
0.00013027
0.000213148
0.000155092
0.000147427
0.000159176
0.000139599
0.00641846
0.000929581
0.000182486
0.000160908
0.000164588
0.000205119
0.000216446
0.000187902
0.000139548
0.000143136
0.000148485
0.000135155
0.000153365
0.000156199
0.000140649
0.000146992
0.000170164
0.000140288
0.000186085
0.00548953
0.000166492
0.000147241
0.000163639
0.000135038
0.000167628
0.000146171
0.000163914
0.000148622
0.000163039
0.00652231
0.000137432
0.000172257
0.000152367
0.000162215
0.000212666
0.000145196
0.00013466
0.000184163
0.000146987
0.000229882
0.000158614
0.00477738
0.000167802
0.000183244
0.000154905
0.000172652
0.00014408
0.000153711
0.000160397
0.000172221
0.00162685
0.000289572
0.000142143
0.000157532
0.000200995
0.00016458
0.000142072
0.000140953
0.000140933
0.000175415
0.00028238
0.018715
0.00187063
0.000169387
0.000155702
0.000289233
0.00013126
0.000146617
0.000155683
0.000144128
0.00017037
0.000144208
0.00433954
0.000135848
0.000397631
0.000143514
0.000148688
0.000155782
0.000210414
0.0417705
0.000168466
0.00154435
0.000149383
0.000140531
0.000144017
0.000161678
0.0047266
0.000140769
0.000145296
0.00060376
0.000149001
0.000140862
0.000216176
0.000159105
0.000140932
0.000144501
0.000165159
0.000151832
0.000165069
0.000135527
0.000145239
0.000148703
0.000294
0.000314349
0.000135223
0.000140726
0.000217145
0.000140995
0.000147936
0.00126711
0.000355487
0.000174144
0.000143871
0.000149247
0.000206732
0.000149214
0.000216783
0.000153844
0.000136597
0.000203496
0.000205876
0.000148207
0.000144115
0.000156642
0.000146231
0.000156864
0.000143734
0.00020481
0.000146479
0.000153397
0.000142693
0.000140985
0.000152666
0.000149964
0.00018371
0.000950682
0.000354282
0.000155001
0.000215499
0.000178283
0.000143728
0.000143859
0.000170494
0.000143286
0.000178375
0.000145853
0.000163033
0.000308879
0.000663079
0.0306051
0.00018334
0.000130686
0.0485367
0.000148907
0.000140584
0.000283401
0.000143078
0.000179901
0.000137196
0.000194747
0.000143047
0.000185564
0.00130681
0.000180484
0.000144036
0.000137509
0.000181472
0.000152822
0.000142839
0.00328682
0.000512556
0.000140528
0.000171123
0.00018382
0.000137429
0.000150309
0.000166598
0.0115309
0.000167382
0.000149021
0.000144331
0.000167173
0.000144518
0.000136165
0.000143779
0.000165124
0.000549122
0.000136396
0.000151469
0.000145142
0.000212302
0.00020376
0.000134784
0.000180704
0.000166484
0.00014517
0.000256102
0.000192159
0.000148797
0.000145947
0.000166466
0.000213812
0.0073689
0.000136186
0.0494379
0.00014285
0.000136396
0.000169361
0.00015313
0.000207038
0.000175182
0.000153708
0.000160134
0.000149254
0.000215
0.000153316
0.000159597
0.000149248
0.000135969
0.000147863
0.000136166
0.000191788
0.000586494
0.000194471
0.000157588
0.000147156
0.000149262
0.000145878
0.000154982
0.000145816
0.000135591
0.000143673
0.000167781
0.000137438
0.000145652
0.0184039
0.0500703
0.000203131
0.000147522
0.000151009
0.000166702
0.000149065
0.00540071
0.000263083
0.00015676
0.000157208
0.000159667
0.000150494
0.000154014
0.00397488
0.000164706
0.000149011
0.00707103
0.000146928
0.0411794
0.043757
0.000155712
0.000149988
0.00583156
0.00014071
0.000184088
0.000183064
0.00547765
0.000153365
0.000147716
0.000145052
0.00383328
0.00847546
0.0047758
0.00274032
0.000154105
0.000144915
0.000156736
0.000143146
0.000154709
0.000273354
0.00742187
0.00155784
0.000324402
0.000168444
0.000179269
0.000171392
0.000141185
0.000142183
0.000171425
0.000154477
0.000146374
0.000143094
0.000403942
0.000139917
0.000575129
0.000159917
0.000189839
0.000208815
0.00014224
0.000156422
0.0373834
0.000143633
0.00991407
0.000143464
0.000242578
0.00016478
0.000149195
0.000171095
0.000187815
0.000183859
0.000150288
0.000134061
0.00016584
0.000156032
0.000189914
0.000143456
0.000192416
0.000139855
0.000258663
0.000146257
0.000143526
0.000230571
0.000171567
0.000190922
0.000144318
0.00015802
0.000157567
0.00387294
0.0184965
0.000154852
0.000192185
0.000145276
0.000163226
0.000148443
0.000154565
0.0201998
0.000136761
0.000430602
0.000146934
0.000145762
0.000155093
0.00544653
0.000152564
0.000191564
0.000149395
0.000166563
0.00152892
0.000131393
0.000140986
0.0520145
0.000167813
0.0222286
0.00017574
0.00014806
0.000143102
0.000142752
0.000158888
0.000149901
0.000136499
0.000213374
0.00236491
0.000143302
0.00868866
0.0103802
0.000158456
0.000238694
0.000136379
0.00255946
0.00466934
0.000132436
0.0023304
0.000169025
0.000272822
0.00378129
0.000143273
0.000142737
0.000148305
0.000785386
0.000174705
0.000144412
0.000148877
0.000213491
0.000148617
0.000169905
0.000143539
0.000167676
0.0498086
0.00383494
0.000255496
0.00347849
0.000169361
0.0124714
0.00015716
0.000140591
0.000160845
0.00345278
0.000179594
0.000173259
0.000144213
0.000197555
0.000145322
0.000148399
0.0566747
0.000149052
0.000161556
0.000228495
0.000188178
0.000144584
0.000142865
0.000155011
0.000158868
0.000134078
0.000146554
0.00017349
0.000221306
0.000153226
0.000145395
0.00017
0.00138307
0.000143604
0.00303064
0.000253581
0.000145061
0.0377637
0.000134679
0.000244602
0.000143619
0.000137984
0.000229476
0.000153955
0.0130385
0.000152913
0.00014288
0.0334426
0.000143595
0.000134918
0.000145644
0.00014069
0.000162386
0.00016664
0.029931
0.000151776
0.00635459
0.000154518
0.00299836
0.00511696
0.000150449
0.000143979
0.000157973
0.000136639
0.000200861
0.000142495
0.000134827
0.000135803
0.00014423
0.000143555
0.000250106
0.000158678
0.000173524
0.000151607
0.000157152
0.000156598
0.00016562
0.00083375
0.000137364
0.000191468
0.000171911
0.000134382
0.0075157
0.052072
0.000141717
0.00170408
0.000145301
0.00313538
0.00016639
0.000132265
0.00016625
0.000159922
0.00243183
0.000142489
0.000154408
0.00462479
0.000199375
0.000272871
0.000143523
0.00423055
0.000188435
0.00146337
0.000143464
0.000151983
0.000142857
0.000146224
0.000141942
0.000144357
0.000136773
0.00222529
0.000170967
0.00014118
0.000134285
0.000140125
0.000148774
0.000196095
0.000187815
0.000137423
0.000158927
0.000146759
0.000146946
0.000145766
0.000140827
0.000208168
0.000134316
0.000140244
0.000149717
0.0001473
0.000151782
0.000146302
0.000246733
0.000253728
0.000155089
0.000140082
0.000212077
0.000134719
0.000134383
0.000146225
0.000275333
0.00015752
0.000145027
0.000136076
0.000137163
0.000159978
0.000133989
0.000161966
0.000142389
0.000148416
0.000141843
0.0001518
0.0185008
0.000140527
0.000148925
0.000143475
0.000239293
0.00548653
0.000158341
0.000149916
0.000178664
0.000160786
0.000208723
0.000896313
0.000149691
0.00454466
0.000149036
0.000421535
0.000149352
0.000136894
0.000135938
0.00193796
0.000135587
0.000158601
0.000188199
0.000220295
0.000178388
0.000153887
0.000142473
0.000142986
0.000143431
0.00016006
0.000199006
0.00434995
0.00017167
0.000145423
0.000134013
0.000155117
0.000141776
0.000140858
0.000148448
0.000173503
0.000165376
0.000782015
0.000145348
0.000144336
0.000173804
0.00014315
0.000213917
0.00017232
0.000170042
0.000210293
0.000322286
0.000166895
0.000141173
0.000134092
0.000147485
0.000142951
0.0032966
0.000174418
0.00019973
0.000136843
0.000147109
0.000155688
0.000141119
0.000916308
0.000284141
0.000134419
0.000135908
0.000143322
0.000141956
0.000140853
0.000144467
0.000237052
0.000135003
0.000149122
0.000136875
0.000137911
0.000142066
0.000145989
0.000161027
0.000137867
0.000171739
0.000136036
0.000275219
0.00023775
0.000155796
0.00187183
0.000154012
0.000148649
0.000184862
0.00257642
0.000144523
0.000140323
0.000137011
0.000182516
0.000151062
0.000166895
0.000288199
0.000146469
0.000149615
0.000144646
0.00035749
0.00154363
0.000151884
0.000139712
0.000155412
0.000167577
0.000142238
0.000184468
0.000140302
0.000133944
0.000155317
0.000275672
0.00298458
0.00325302
0.000239103
0.00013473
0.000247505
0.000201065
0.000157019
0.000143396
0.000201176
0.000156867
0.000261719
0.000354229
0.000141674
0.000134812
0.000144677
0.00014861
0.000134928
0.00162084
0.00290479
0.000134612
0.000146717
0.000149507
0.000167826
0.000143908
0.000141773
0.000220323
0.000148666
0.000142312
0.00183449
0.00019507
0.000191332
0.000142777
0.000135897
0.000134818
0.000144897
0.000165837
0.000185419
0.000140492
0.00013916
0.000154338
0.00434745
0.000137032
0.0001439
0.000182547
0.000140917
0.000139157
0.000143551
0.000529026
0.000135712
0.000144428
0.000137093
0.00015426
0.000135724
0.000157427
0.000212468
0.00014393
0.000235232
0.000160624
0.000229164
0.000178531
0.000140813
0.000158349
0.000140341
0.00013903
0.000140824
0.00367343
0.00741237
0.00021109
0.000158748
0.00696953
0.00018629
0.000150024
0.000197434
0.000229142
0.000152735
0.000135531
0.00730795
0.000149905
0.00014079
0.000138004
0.00026136
0.00195146
0.0376035
0.000138863
0.000194799
0.004892
0.000168823
0.000171141
0.000156675
0.000155621
0.000165449
0.00174128
0.000153271
0.000150038
0.000158891
0.0410071
0.00024801
0.000143824
0.000146613
0.000143241
0.00028975
0.000155039
0.000149303
0.00741288
0.000157311
0.000176607
0.000156649
0.0068266
0.000138585
0.000273448
0.000149792
0.000135866
0.000141249
0.000135545
0.000135902
0.000140703
0.000148205
0.00025447
0.000138177
0.000580191
0.000158118
0.000147398
0.000141254
0.000193864
0.0001432
0.000146565
0.000156953
0.00743654
0.000213085
0.000153891
0.000146417
0.000348517
0.000138557
0.000168884
0.000146194
0.0361638
0.00017241
0.00512887
0.000158897
0.000142833
0.00021916
0.0136513
0.000295283
0.000137699
0.00014349
0.000167846
0.0182752
0.000130944
0.000174114
0.000141322
0.000161397
0.000140343
0.000134823
0.000149076
0.00015
0.000135201
0.000176811
0.000172578
0.000159328
0.000208825
0.00583468
0.000150338
0.00311293
0.000136285
0.000200381
0.000272063
0.000220496
0.000134583
0.000149174
0.000145979
0.00669981
0.00014426
0.00014058
0.000193718
0.000146481
0.000146182
0.000151087
0.0001496
0.000142955
0.0453316
0.00520761
0.000182468
0.00013912
0.000145219
0.000226189
0.000136302
0.000306254
0.000147128
0.000145757
0.000149078
0.000155271
0.000236281
0.000140198
0.00014504
0.0512747
0.000147195
0.000148463
0.00016797
0.000288976
0.00130294
0.00014433
0.000143462
0.0191019
0.00334351
0.0153527
0.000140286
0.000165145
0.000225458
0.000137689
0.000202537
0.000153307
0.00333878
0.00015522
0.00014598
0.000149883
0.000135584
0.00163324
0.000144916
0.000138971
0.00517496
0.000188037
0.000865102
0.000135253
0.00015212
0.00013553
0.000131988
0.000136159
0.000149251
0.00014659
0.00014903
0.000135635
0.000148445
0.000173128
0.000162969
0.000167503
0.000140245
0.00015571
0.000141874
0.00723864
0.000147366
0.000149403
0.000148187
0.000135956
0.000148775
0.000145893
0.000143887
0.000143277
0.000141142
0.000136187
0.00409804
0.00132711
0.000144522
7.87351e-05
0.000166031
0.000149707
0.000147647
0.000150203
0.00436026
0.000147324
0.000136258
0.000134569
0.000134615
0.0409792
0.000144334
0.000136883
0.000254114
0.000134135
0.000133269
0.000178769
0.000187248
0.00020857
0.000212044
0.0218905
0.000135646
0.000514986
0.000156848
0.000143097
0.000136818
0.000163591
0.000143135
0.000162076
0.000179723
0.000154022
0.000151379
0.056642
0.000171765
0.049796
0.0031724
0.00303066
0.000216936
0.000139049
0.000269519
0.000428873
0.000135075
0.000626725
0.000138848
0.000150751
0.000209249
0.00014034
0.000351956
0.000158508
0.000152735
0.000149183
0.000228496
0.000143806
0.0019824
0.000142848
0.000136314
0.00549424
0.000133528
0.000147499
0.000148449
0.000176948
0.00014225
0.000144018
0.000153172
0.00217915
0.000144195
0.000144273
0.000136881
0.000154355
0.000142356
0.000150742
0.000910226
0.000141392
0.000157301
0.000148062
0.000155059
0.000159059
0.000140415
0.000148784
0.000197143
0.000146965
0.000147553
0.000159536
0.00626028
0.000150503
0.00014174
0.000143932
0.00015902
0.000209032
0.000151711
0.000140953
0.000141303
0.000137735
0.000131835
0.000135564
0.000160163
0.00019555
0.000178006
0.000146743
0.0169645
0.000139545
0.000144816
0.0107606
0.000173615
0.000134132
0.000186874
0.000146523
0.000140937
0.00365195
0.000148766
0.000168982
0.000132437
0.000215171
0.000139453
0.000134717
0.000135986
0.000828759
0.00021866
0.000146774
0.000263381
0.000135804
0.000142082
0.000138992
0.000210223
0.000145524
0.000138469
0.000149279
0.000152358
0.000142952
0.000145755
0.000140396
0.000147773
0.000146695
0.000140233
0.000155421
0.000135305
0.0136151
0.000183735
0.000136607
0.000231643
0.000157342
0.000140755
0.000139758
0.000151278
0.0001406
0.000160804
0.000155506
0.000199081
0.000201759
0.000147796
0.0001875
0.000216644
0.000143003
0.000147546
0.000192467
0.000152395
0.00665679
0.000135597
0.000143465
0.000152314
0.000147544
0.000142168
0.000156991
0.000140479
0.00015196
0.000143828
0.000152245
0.000139484
0.000203298
0.00014469
0.000154329
0.000189292
0.000142975
0.00347119
0.00505252
0.000155304
0.000160598
0.000160754
0.000134224
0.000190011
0.000145535
0.000164497
0.00871689
0.0042358
0.000211347
0.00015197
0.000160446
0.000142618
0.000162672
0.000139034
0.000335215
0.00018946
0.000147531
0.000140615
0.000225151
0.00017365
0.000142801
0.000143129
0.000265824
0.000147559
0.000138387
0.000362576
0.000178489
0.000134957
0.000244365
0.000136137
0.000229887
0.000179882
0.000142989
0.000144262
0.000156664
0.000284477
0.000140058
0.000157764
0.000144248
0.000143007
0.000139758
0.0183758
0.000148261
0.00014518
0.000143719
0.000228319
0.000158102
0.000140223
0.000132871
0.000200141
0.000142167
0.000136888
0.000240223
0.000339202
0.00014874
0.000247952
0.000157156
0.000175075
0.000150609
0.000180494
0.00375371
0.000147041
0.00014137
0.000137097
0.000155176
0.000142765
0.00917083
0.0019987
0.000137434
0.000150364
0.000136468
0.000135642
0.0561454
0.000142856
0.00015204
0.000152072
0.000217742
0.000144474
0.000147912
0.000155527
0.00398834
0.000146407
0.000145258
0.000137403
0.000138406
0.000154687
0.000173632
0.000146784
0.00014208
0.000144917
0.000143309
0.00013712
0.0472397
0.000148135
0.00014339
0.000141828
0.000181502
0.000136562
0.000136906
0.000165459
0.000142128
0.000183575
0.00014404
0.000144421
0.0030449
0.0196378
0.000343896
0.000277074
0.000159073
0.000148393
0.0484084
0.000139618
0.000155517
0.00013529
0.000504828
0.000130398
0.000155091
0.00014457
0.00861614
0.000176235
0.000234752
0.0298753
0.000151337
0.000192653
0.000147991
0.000149698
0.0504277
0.000165579
0.000142114
0.000136074
0.00015392
0.000161475
0.000143956
0.000144958
0.000139601
0.000134845
0.000239012
0.00713311
0.000148082
0.000155311
0.000299767
0.00954276
0.000151756
0.000149824
0.000152688
0.000154732
0.000142335
0.000150741
0.000313091
0.000140272
0.000136349
0.000146188
0.000339286
0.000343695
0.000156772
0.000146771
0.000147247
0.000159194
0.000143648
0.000159418
0.000170801
0.000252007
0.000155171
0.00118676
0.000134721
0.000142833
0.000148298
0.000135217
0.000146884
0.000140025
0.000257962
0.000140889
0.000370801
0.000144987
0.000139051
0.000137631
0.000185878
0.000151534
0.000173087
0.000177966
0.00013615
0.0503234
0.000156595
0.000138104
0.000133326
0.00507665
0.000275684
0.000133579
0.0001404
0.000140852
0.000150636
0.0002221
0.000285114
0.0001497
0.000148689
0.000210937
0.0249647
0.000149582
0.000142579
0.00029282
0.000154077
0.000594759
0.000154551
0.000142294
0.000181995
0.000176327
0.0217884
0.000183469
0.00274751
0.000136931
0.000142083
0.000149476
0.000146448
0.000154077
0.000147905
0.000146109
0.000139453
0.000147777
0.000146284
0.000146183
0.000145183
0.000152473
0.00014937
0.000143584
0.000141559
0.000176949
0.000162251
0.000140358
0.000145224
0.000235976
0.000144817
0.000147453
0.000149118
0.015374
0.000136925
0.000168821
0.000150773
0.000136135
0.000143328
0.00390877
0.000216446
0.000149345
0.000147073
0.000154827
0.000167169
0.000140021
0.000161059
0.00018047
0.000141192
0.00019905
0.000140857
0.00014318
0.000142485
0.000147793
0.000160617
0.000189771
0.0149671
0.000182387
0.000136359
0.000144917
0.000143295
0.000210826
0.00014903
0.0019693
0.000139699
0.000143784
0.000143453
0.000187771
0.000142409
0.00014653
0.000144064
0.000211921
0.000137001
0.0216693
0.000137052
0.00017669
0.000144754
0.000161266
0.000140766
0.000153626
0.00217942
0.000218087
0.000136403
0.000178962
0.000145218
0.00014663
0.0300075
0.00373786
0.00013625
0.000142743
0.000152741
0.0001359
0.000143642
0.000148391
0.000147577
0.000161773
0.000177515
0.000150208
0.000157761
0.000222523
0.000147727
0.000140794
0.000142095
0.000154463
0.000160387
0.000144094
0.0185153
0.000140543
0.0417672
0.000168192
0.000136653
0.000140162
0.0001399
6.64348e-05
0.00014632
0.000154959
0.000146348
0.000140632
0.00544498
0.000151037
0.000174576
0.000147223
0.000145555
0.000151432
0.000143199
0.00015097
0.000143398
0.000151861
0.000149373
0.000149044
0.00375573
0.000168603
0.00415985
0.000140874
0.00017826
0.000151565
0.00521519
0.000180456
0.000460467
0.000151634
0.000134968
0.000171029
0.000142851
0.00485953
0.000149635
0.000196315
0.000151516
0.0048446
0.0138745
0.000154462
0.000174771
0.000139331
0.00013746
0.000148518
0.000134532
0.000147939
0.000152807
0.000139405
0.000162512
0.00020281
0.0045272
0.000140602
0.000236102
0.000134656
0.000142408
0.000143583
0.000195872
0.000147536
0.000228033
0.000148013
0.000143379
0.0455232
0.000140184
0.000154491
0.00014223
0.000156914
0.000399462
0.000165966
0.0332837
0.000144651
0.000179378
0.000152469
0.000141708
0.000143756
0.000187055
0.000165027
0.000143083
0.000151591
0.000143136
0.00373833
0.000139071
0.000298012
0.000288987
0.000183587
0.000158496
0.000218946
0.00018798
0.000134524
0.0131538
0.000142364
0.000404989
0.000148966
0.000151856
0.00548626
0.00601184
0.000160056
0.00204391
0.000143513
0.0041602
0.000131084
0.000332117
0.000135201
0.000150237
0.000196033
0.000146042
0.000139087
0.000149564
0.000144279
0.00017639
0.00439061
0.00016491
0.00248961
0.000140964
0.0180018
0.000144312
0.000146698
0.000142819
0.000144903
0.00516393
0.000146977
0.000137993
0.000167716
0.000148118
0.0065815
0.000192966
0.000142958
0.000201527
0.000165131
0.000140391
0.000144755
0.000155986
0.000136594
0.000179577
0.000161073
0.00015218
0.000151933
0.000137217
0.000145796
0.000180842
0.000149681
0.000144893
0.000150167
0.000134832
0.000135733
0.0454839
0.00016204
0.00124279
0.000158618
0.00017802
0.000161776
0.000141982
0.00016629
0.000138858
0.00014074
0.00117931
0.000165006
0.000176464
0.000173424
0.000147585
0.000245939
0.000500441
0.000143363
0.000163718
0.000190891
0.054717
0.000136439
0.000138186
0.000147759
0.000199555
0.00329107
0.00016613
0.000153945
0.000148744
0.000142021
0.000135358
0.0010671
0.00015515
0.000150883
0.00454733
0.000146759
0.000154297
0.000157186
0.000144995
0.000142797
0.000143034
0.000178625
0.000199285
0.00014903
0.00015255
0.000250957
0.0001421
0.000149313
0.000154554
0.000146732
0.0058917
0.00469018
0.000291513
0.000192063
0.0180782
0.000152863
0.000139775
0.000265491
0.000155152
0.000161706
0.000142951
0.000135329
0.00642225
0.00221442
0.00014137
0.000139498
0.000161538
0.000315508
0.00015483
0.000134917
0.0508241
0.000152274
0.000167331
0.000134962
0.000162087
0.00013109
0.000151342
0.000160074
0.000142027
0.0288632
0.000149128
0.000166159
0.000194698
0.0042592
0.000188769
0.000142195
0.000182419
0.000154974
0.000164011
0.000150636
0.00014871
0.000145353
0.000152651
0.00169271
0.000151727
0.00168191
0.000139894
0.000227232
0.000135967
0.000148819
0.000281812
0.000155301
0.000226438
0.000158341
0.000149506
0.00957412
0.0519825
0.000140012
0.0396695
0.000172717
0.000138822
0.000133891
0.0264
0.0378541
0.000138876
0.000136156
0.000143669
0.000136909
0.0478789
0.000252667
0.000130223
0.000133086
0.000139933
0.000239539
0.000174928
0.00682974
0.000135942
0.000271789
0.000146854
0.00017923
0.0339619
0.000164498
0.00013942
0.000139614
0.00624889
0.000136712
0.000141207
0.000136605
0.000163232
0.000151289
0.0296715
0.000162507
0.000148703
0.000142376
0.00015781
0.000226236
0.000185145
0.000141665
0.000141759
0.000217068
0.00017635
0.000149036
0.00256965
0.00016474
0.000153349
0.0567016
0.000151631
0.000159853
0.000148323
0.00139491
0.000145313
0.000148704
0.0503542
0.000159185
0.000141137
0.000143283
0.00013112
0.000182403
0.000202386
0.000141031
0.000136034
0.000150267
0.000184896
0.000156922
0.000135082
0.000142795
0.000139153
0.000157268
0.00017157
0.000145707
0.000142709
0.036825
0.000141925
0.0135588
0.000161797
0.000165839
0.000154111
0.000150512
0.000144968
0.0249458
0.000187927
0.000185963
0.0304838
0.000161333
0.000140084
0.000814221
0.000136408
0.000188132
0.0381222
0.000157615
0.000141766
0.00015418
0.000187559
0.000142657
0.000143026
0.0432772
0.000142875
0.000151751
0.000140441
0.000146754
0.000137361
0.00019039
0.0002056
0.000135917
0.000141034
0.00350689
0.000142563
0.00013652
0.000140833
0.000140612
0.000290985
0.000163898
0.000153609
0.000153555
0.000149166
0.000137312
0.000179837
0.000198652
0.000157958
0.000263464
0.000152603
0.000155064
0.0305172
0.000140104
0.000136281
0.000143254
0.000140414
0.000148742
0.000132619
0.000149048
0.0371098
0.000144773
0.000141748
0.000155988
0.000140613
0.00246135
0.000147665
0.0414043
0.000232113
0.000175217
0.00016132
0.00257629
0.000161426
0.000142992
0.000154594
0.000140464
0.000151982
0.000147647
0.000148327
0.000361868
0.000135887
0.00014379
0.000170426
0.000302969
0.000147834
0.000139736
0.000224887
0.000151326
0.000184829
0.000143027
0.000139866
0.000143745
0.0420311
0.000146335
0.000294071
0.000176611
0.000149293
0.000139647
0.000143114
0.000159455
0.00434964
0.000135989
0.000180667
0.000141738
0.0400537
0.000237447
0.000148938
0.000220419
0.000146106
0.00015368
0.000153332
0.000257943
0.000163216
0.000160138
0.00016107
0.00533013
0.00014772
0.000180908
0.000144513
0.000204102
0.000214757
0.000235572
0.000142718
0.000165185
0.00448956
0.00610462
0.00015486
0.000154514
0.00535956
0.00534316
0.000140245
0.000179426
0.000143172
0.000156573
0.000146096
0.000152591
0.000151844
0.0291411
0.000147458
0.000148095
0.000179679
0.00537385
0.00492482
0.000207367
0.00413404
0.000139786
0.00472094
0.000181966
0.000142181
0.000141735
0.00714411
0.000158836
0.000145084
0.000142579
0.000169415
0.000138628
0.000142816
0.000324443
0.000145553
0.000148273
0.000141078
0.000143806
0.000151192
0.000138958
0.0538838
0.00017075
0.000153471
0.000139272
0.000166078
0.00173832
0.000142391
0.000147799
0.00501905
0.000229683
0.000143424
0.00015455
0.000138702
0.000140392
0.000192777
0.00022027
0.000140431
0.000143129
0.00533636
0.000782967
0.00581732
0.000188944
0.00015001
0.00445464
0.000140552
0.000155542
0.000154403
0.000139695
0.0534599
0.00464949
0.000168279
0.000188029
0.000362001
0.000133899
0.000133063
0.000152599
0.000165181
0.00227457
0.000136515
0.00016945
0.000704002
0.000292324
0.000147035
0.000151022
0.000255962
0.000142594
0.000155378
0.00159223
0.00014085
0.000142516
0.000139002
0.000245739
0.000141519
0.000164633
0.000149284
0.000215824
0.00016383
0.00542147
0.000143009
0.000142135
0.000166026
0.000147648
0.00017759
0.000148921
0.000199203
0.000205369
0.000140773
0.000144421
0.018061
0.000293759
0.01836
0.000139035
0.000143333
0.000155281
0.00014526
0.000143124
0.000143991
0.000145325
0.000148481
0.000139493
0.000139617
0.000176834
0.000153366
0.000170502
0.0158197
0.000183266
0.000175982
0.000157834
0.000203638
0.000216245
0.000161672
0.000158084
0.000160559
0.000141657
0.0104602
0.000136012
0.00013578
0.00014052
0.0044772
0.000142398
0.00405808
0.00014847
0.000134996
0.000182738
0.00014285
0.000142209
0.000142816
0.000201108
0.00183005
0.000146989
0.000139719
0.000151539
0.000222793
0.000175655
0.00618182
0.0001429
0.000174256
0.000146368
0.000145622
0.000136332
0.000138858
0.000143341
0.000156806
0.000676768
0.000152088
0.0001524
0.000205478
0.00346291
0.000207464
0.000142049
0.000196938
0.00016421
0.00173503
0.000137904
0.000142638
0.000155099
0.000507694
0.000132484
0.000144617
0.000138815
0.000136648
0.000206918
0.00015303
0.000180833
0.000144074
0.000132259
0.000171743
0.000143968
0.00539855
0.000144396
0.000163169
0.000147933
0.000158291
0.000149301
0.000181495
0.00609048
0.000142469
0.00018527
0.000412542
0.000141648
0.000146717
0.000171265
0.000131907
0.0554737
0.000189441
0.000142643
0.000180522
0.000134307
0.000145935
0.000147857
0.000141436
0.000136654
0.000149876
0.000140414
0.00013875
0.000145188
0.000148586
0.000175303
0.000135971
0.000217238
0.000138402
0.000140347
0.00015911
0.000172553
0.000149932
0.000131996
0.000142423
0.000153923
0.000171946
0.000505048
0.000164611
0.000149097
0.000148973
0.00013943
0.000161138
0.000140666
0.000152404
0.000288539
0.000241153
0.000174647
0.000141352
0.000148319
0.000149834
0.000132121
0.000197069
0.000134868
0.000220107
0.000149325
0.0002404
0.000157778
0.000285309
0.000146742
0.000181834
0.0311544
0.00631615
0.00191105
0.000157175
0.0071645
0.000293962
0.000148668
0.000165723
0.00045766
0.000138395
0.000138985
0.000143908
0.000155746
0.00120131
0.000145974
0.00015872
0.00295584
0.000130246
0.000144537
0.000268414
0.0121507
0.000197742
0.00239326
0.00535189
0.000149943
0.000185231
0.000153247
0.000154074
0.0038198
0.000154237
0.0269898
0.000247404
0.000153594
0.000146008
0.000152159
0.000159242
0.000139461
0.0185061
0.000132377
0.000142846
0.000143257
0.008136
0.0300473
0.000205599
0.000144835
0.000151129
0.000138799
0.0420942
0.000143511
0.00014953
0.000153756
7.75555e-05
0.000138614
0.000187715
0.037642
0.00494751
0.000147378
0.00123456
0.000139522
0.00354528
0.000132779
0.00023321
0.000148259
0.000184219
0.000159953
0.00454664
0.00021284
0.000152866
0.000150845
0.000192632
0.000155738
0.000141806
0.000138685
0.000158558
0.00014858
0.00334592
0.000131549
0.000142795
0.000144165
0.00014374
0.0023125
0.000139232
0.000134594
0.000146763
0.000498137
0.000161238
0.00017923
0.000152571
0.000151068
0.000190623
0.000139707
0.00014316
0.000183146
0.000172795
0.00013461
0.000169168
0.000152239
0.00423272
0.000142705
0.000291443
0.000148129
0.000143073
0.000135273
0.000134897
0.000142244
0.000141315
0.000448832
0.000180681
0.000146958
0.000143073
0.000142226
0.000152867
0.000158133
0.0147589
0.000146214
0.000197693
0.000164917
0.00571266
0.0001474
0.000171128
0.000143036
0.000142731
0.000164615
0.000142578
0.000145744
0.000140458
0.000135987
0.000421939
0.000143515
0.000139181
0.000266622
0.00422323
0.000189039
0.000146308
0.000134869
0.000154751
0.0361263
0.000153099
0.000147855
0.000146512
0.000486408
0.000148421
0.000143901
0.0342056
0.000141174
0.000155793
0.000155801