/*--------------------------------*- C++ -*----------------------------------*\
| =========                 |                                                 |
| \\      /  F ield         | OpenFOAM: The Open Source CFD Toolbox           |
|  \\    /   O peration     | Version:  v2012                                 |
|   \\  /    A nd           | Website:  www.openfoam.com                      |
|    \\/     M anipulation  |                                                 |
\*---------------------------------------------------------------------------*/
FoamFile
{
    version     2.0;
    format      ascii;
    class       volScalarField;
    location    "400";
    object      ddt0(omega);
}
// * * * * * * * * * * * * * * * * * * * * * * * * * * * * * * * * * * * * * //

dimensions      [0 0 -2 0 0 0 0];


internalField   nonuniform List<scalar> 
10042
(
-0.00067813
0.671918
-0.0243877
-1.73397e-05
9.24497e-06
0.0391762
1.48362
-0.0814672
-4.99007e-06
0.00115611
0.00508944
0.590041
-0.00158081
-1.79721e-05
-8.81859e-06
-1.83694e-05
-0.412767
-0.00726055
-0.000196245
0.000235424
-0.00157507
0.00434374
-7.27873e-06
-0.0218863
-1.48416e-05
1.35852e-06
0.000853364
-3.92747e-06
0.0299916
-0.0509638
5.27527e-07
-0.00234915
-5.08256e-07
2.27595e-06
-0.0310477
0.0234387
-3.47141e-06
-8.70783e-06
2.86231e-06
0.000373379
-0.0417841
-6.07775e-07
0.322417
0.13967
-8.43165e-06
-2.59956e-05
8.91352e-07
-1.31757e-05
0.000382561
-0.241009
0.209285
-6.68551e-06
-0.262364
-0.000158358
0.473123
0.570964
-0.00130464
-0.0778941
1.4254e-05
-1.30379e-06
0.000341751
1.04809
0.0434312
-0.0547772
-0.0658493
-5.73925e-05
0.000210509
0.0658661
3.01104e-06
0.0458575
0.0222079
0.000111176
3.25091e-06
1.25389e-05
-4.94728e-05
0.0731644
0.00354241
1.84408e-06
0.0057806
-0.000207149
0.0126069
-0.0297602
7.09138e-06
-1.07143e-05
0.00029134
0.00941078
0.000208803
-0.018952
9.05758e-06
-0.0509829
-0.000765933
-7.2393e-06
0.0374743
0.0115706
-0.0255262
-6.1995e-06
-0.044593
0.00022926
0.138768
2.71089e-06
-0.000676911
0.00248035
5.29169e-05
-0.00179403
-0.000268342
1.4126e-05
-1.19185
-4.42375e-05
1.44158
2.42102e-05
7.3725e-06
0.798052
0.00189294
-0.0562279
-0.068381
2.11612e-06
0.00169102
7.18261e-06
-0.0866266
8.61411e-07
-1.36289e-06
0.425155
0.35728
-1.24351e-05
-0.0490096
2.04993e-05
3.32597e-05
0.789471
-0.122778
0.0012294
-8.53776e-07
-3.62403e-05
4.62584e-05
-3.61963e-05
0.649706
0.217673
1.99273e-05
-1.6274
-3.07341e-05
0.110461
-0.0029583
-5.8925e-07
-0.742113
-4.35011e-06
-5.85417e-05
-8.24563e-06
0.000411866
2.66049e-06
9.55977e-05
0.476728
-4.46786e-05
-3.19496e-06
-6.8935e-05
-0.00215764
-0.0360564
-5.49392e-05
-0.0675845
0.550963
4.49644e-05
1.2073e-06
3.89628e-06
0.000919701
0.151852
2.1425e-05
-6.65565e-06
0.411454
4.08327e-06
-0.0020083
0.00592496
3.12552e-06
-0.000475417
-0.0568642
0.240456
3.41022e-06
-0.000149188
0.251242
-1.45909e-05
-8.39744e-06
-2.97651e-05
3.85208e-06
-1.18124e-05
-0.000233881
9.32179e-06
-1.83152e-06
0.0689756
-0.000843197
0.000109356
-1.85317e-06
-0.145437
-8.80468e-06
0.774955
-0.00129368
2.87432e-06
-0.000214913
0.847622
-8.42425e-06
-0.211444
0.0467395
0.15152
-5.94562e-06
-0.556572
-0.00719226
0.38632
-7.19965e-06
0.104688
3.52235e-05
-0.0170056
-0.00205153
-2.81158e-07
-3.53122e-05
-0.0022421
-6.08042e-06
0.311593
0.333247
-1.02587e-05
0.0388231
-1.32597e-06
-0.109318
-1.64142e-05
-0.55166
0.125232
0.0151328
0.122396
0.0376692
-1.6385e-05
-0.00704934
4.59407e-05
9.46574e-05
0.000460731
5.51234e-05
-5.12292e-06
3.30514e-05
-0.000869083
9.53409e-06
-1.33525e-05
-0.0529153
2.94851e-05
0.010328
-4.29232e-05
-0.0188239
-0.0965766
-0.102466
-1.04535e-06
0.00148686
-0.0174163
9.03027e-06
-0.0948403
1.79322e-05
-7.94781e-05
8.41081e-06
-0.000251147
3.72122e-06
0.0169054
0.0484459
8.86795e-05
4.41988e-05
-1.25912e-05
6.61716e-05
-0.166777
-1.50154e-05
-0.0994373
-2.35867e-06
-7.05248e-06
6.31352e-07
-0.00179543
0.0406066
-0.123512
0.00847434
-5.42253e-06
3.11768e-05
-2.12931e-05
-0.212131
-3.58904e-06
-0.125283
5.36091e-05
-0.0620366
-4.84741e-05
-3.55387e-06
-5.58809e-06
0.63843
-1.56823e-06
-0.0542085
-0.311912
-3.19195e-05
3.11854e-05
0.0914724
0.00101759
1.77609e-06
0.013507
-4.99448e-06
-0.0010607
0.000317265
2.2532e-06
-0.145167
-0.085848
-3.20777e-05
0.102771
3.19694e-05
-2.04713e-05
-1.3227e-06
-4.96785e-05
0.197625
-2.08193e-06
-0.100789
0.000926238
0.656505
-8.68697e-06
0.00184541
-0.413328
-0.0564305
-1.40176e-05
-3.92421e-05
1.21413e-06
-3.13179e-05
0.000257202
0.0106915
5.37642e-07
0.066643
-0.029851
1.61222e-06
4.50032e-06
-0.138039
-0.0461992
-0.0182889
0.00333672
-7.76085e-06
0.0107868
-2.70264e-05
7.69942e-05
-0.000853742
3.34519e-05
-6.23131e-06
0.00740423
-5.99832e-06
-0.0189634
0.0209152
0.103812
-0.0150758
9.93609e-06
0.297385
0.00177807
-0.00143056
-1.28207e-06
0.00432607
3.93847e-06
-5.61519e-06
-6.90597e-06
4.69986e-06
0.000116992
0.111423
-2.23776e-05
-0.0335497
9.64568e-05
-2.91703e-05
0.862967
0.0206474
5.33293e-05
3.5941e-06
-0.08722
1.06781e-05
8.60843e-06
4.24568e-07
-3.71729e-06
-0.0519828
0.218748
-1.70476e-05
-3.70928e-06
8.75151e-05
7.3959e-05
1.27906
-1.64949e-06
6.79996e-06
-3.79869e-06
-1.7205e-05
0.00278639
-2.8011e-06
-0.0635391
-0.125812
0.0564963
0.00162156
5.36935e-06
-0.122021
0.000480277
-2.30192e-05
-0.00312268
1.88177e-06
5.03346e-06
-1.66342e-06
2.33348e-06
2.12765e-07
3.99871e-05
-0.0365611
-2.01269e-05
0.0111066
0.131531
0.0799701
-9.25157e-06
-0.0676266
3.2016e-05
-0.00241611
-1.34226e-05
0.124882
-4.52356e-05
0.56078
-0.262288
-4.93583e-05
-0.00155643
-9.48532e-05
-0.0920211
2.86295e-05
-0.157787
-0.00025311
-0.122106
-2.31345e-05
-0.0321179
-8.92598e-05
-0.000108535
1.12652
-1.10489e-06
-9.42543e-05
-2.42346e-06
0.103028
-4.39341e-07
-2.36187e-06
-0.000517852
-0.000155284
0.000402141
-0.183379
-1.54037e-05
-0.0014189
-0.000152956
3.606e-06
-0.000249156
0.016792
-4.6001e-05
-2.61499e-06
-0.503601
-0.0721144
1.05346e-05
0.182873
-4.98282e-06
0.000190666
-0.00233834
-0.147274
-0.145243
0.0646501
-0.031032
0.649639
-0.0681517
-2.72922e-06
-0.038099
-0.748681
-0.612819
-0.002963
-3.85744e-06
-5.97192e-06
-0.0632814
-0.0796918
-2.02376e-06
4.21963e-05
1.30538e-05
-6.62194e-06
-0.000129812
-0.000190296
7.12796e-06
-7.79965e-06
0.0144427
-3.57749e-05
0.000192734
-0.00583595
1.01501
-1.44539e-05
0.0656474
-0.460214
0.157104
-7.9483e-06
-0.000500494
2.39162e-06
0.0451078
-1.61195e-05
0.0490764
-2.06278e-05
0.131163
-1.61694e-06
-0.000259344
-4.71311e-05
-0.0221416
-0.0420234
1.10188e-05
-1.3345e-05
-3.66022e-05
0.390594
-1.70138e-06
0.0329279
-0.0641766
-0.00117606
-3.74081e-05
0.0510696
-0.184526
-0.00369954
-1.53876e-07
2.03125e-06
-0.114086
0.409435
-0.000718926
0.112892
-8.62247e-06
0.0500649
0.000401245
0.00017683
2.57248e-05
-0.0190201
-1.16505e-05
-7.76138e-06
2.78956e-05
-0.0796136
-2.15338e-05
-0.100364
-2.46085e-05
-6.20043e-06
-1.36611e-05
-2.54907e-05
0.165123
4.84307e-05
4.35062e-06
0.448771
0.0212241
0.000485114
4.23895e-05
-3.9376e-05
0.0572897
0.364633
4.87001e-06
1.47788e-06
-0.0319933
-6.25161e-06
1.00908e-05
-0.00243479
-1.37378e-06
0.0502862
-4.00645e-06
0.000438395
-0.0021616
0.141679
-2.30526e-05
-0.000601279
-2.00615e-05
2.54332e-07
0.451991
-8.4546e-07
-0.18177
-0.000812342
-2.38457e-06
0.00123204
0.24805
-0.0385074
-0.00162358
-1.8777e-06
2.62647e-06
7.87965e-07
-0.000152128
-0.0132477
2.46078e-05
-0.0548081
7.62582e-06
-5.65367e-06
-0.383461
-0.000271709
-0.0204335
9.61994e-06
-1.76195e-06
-0.28553
-0.0540784
-0.00112652
0.00520422
-2.20528e-05
-0.000714293
-4.83174e-06
-4.63681e-06
-3.64609e-05
-3.91767e-05
6.17208e-06
-9.03085e-06
0.1236
-1.73056e-05
0.00299058
-1.55837e-05
-0.000347699
4.92933e-07
0.000907355
-0.155572
-2.76709e-06
-7.05817e-06
0.0322107
0.0364642
-9.01264e-07
-0.0264801
-2.83733e-06
0.00236353
-8.90846e-06
-7.95112e-07
4.01549e-06
-0.157392
-6.41298e-07
2.20644e-05
-1.65502e-06
0.0173713
-2.09445e-05
-4.18029e-05
-1.58029e-05
-0.364928
-4.34894e-06
-8.3631e-06
-1.19567e-06
-9.18679e-06
5.01289e-07
-1.09429e-05
-0.000188416
-4.49847e-06
-0.247217
-0.0269336
-0.0246873
1.76402e-05
-0.000264943
-1.6577e-05
-0.0154692
1.47057e-05
-0.0296996
0.290306
0.0471926
0.00604822
-0.0832907
-2.57405e-05
2.65836e-06
-0.146704
-0.214415
0.00708307
-0.00640268
-8.08834e-06
-0.0608232
-7.50818e-06
1.62789e-06
-1.60367e-05
-5.48927e-06
1.74131e-07
-0.185512
-2.72888e-05
3.70352e-06
-0.0349927
1.22121e-05
-0.018475
0.000178144
-2.34262e-05
0.00839278
-8.37044e-06
-0.0245953
-9.98107e-06
-2.69062e-05
-0.000422557
-5.20343e-06
-3.69725e-06
6.88942e-06
-4.04329e-06
-2.1077e-05
-0.361139
-0.00129938
-0.03455
-1.06953e-05
1.30154e-05
-9.52994e-06
-0.0618176
0.000128018
-4.64468e-05
1.20091e-06
-1.37993e-05
-0.0721995
-0.24534
0.0255129
5.89737e-05
-2.82465e-05
-0.33656
-0.000683967
0.000139217
0.000539597
0.026308
0.358181
-0.0644877
-7.15332e-06
-1.07707e-05
-1.2636e-05
-0.0414746
2.54133e-06
-0.000353583
2.95446e-05
-1.26932e-06
0.00369396
6.5788e-05
-0.0351574
-0.0045888
3.584e-06
-8.25011e-06
-1.95246e-06
0.0538407
-5.08462e-06
-0.219491
8.13702e-05
-0.182224
1.33994e-05
-1.7276e-05
-3.28625e-06
-6.91946e-06
3.59603e-07
6.15656e-06
-1.63968e-05
-1.46037e-05
0.015791
-0.000224049
-0.0211285
-2.86238e-05
-0.0239547
0.0274452
2.41012e-05
0.552797
-1.78572e-05
1.69927e-05
-0.000148854
-3.68762e-06
0.117037
2.66254e-05
9.1433e-06
-1.7782e-05
0.432551
-1.33835e-05
-0.0378072
-0.00101681
1.24985e-05
0.00186013
-0.0480305
0.000286416
-2.38451e-06
-0.00743198
8.1986e-06
-0.169839
0.00596696
0.00956336
0.02736
-1.26837e-05
-1.16736e-06
-5.21355e-05
0.000418048
-0.0017627
0.105536
0.447966
-1.02671e-06
-0.000120606
3.10076e-05
5.12404e-06
6.12788e-06
-0.256686
-1.18071e-05
2.29182e-06
0.329598
3.76508e-06
-0.00533866
0.00018413
-2.52795e-05
-0.0291337
-1.13815e-05
1.80275e-05
7.70201e-05
0.000476294
-1.01971e-05
0.252092
-1.23964e-05
0.000495525
-0.000384733
0.192459
6.81939e-05
0.000150741
-0.000411721
-9.15027e-06
-0.000727571
-4.41822e-06
0.000463248
2.59082e-05
-2.14038e-05
-2.69269e-05
-1.46242e-05
-5.99896e-05
-0.000553956
4.68627e-06
-8.26164e-06
0.0771463
-7.13144e-06
8.50034e-06
-1.50569e-05
-1.98841e-06
0.0341178
-9.04151e-05
8.67022e-05
-0.000684117
0.079336
-1.94648e-07
-0.0397987
-0.158917
-1.06107e-05
2.80103e-05
-2.18364e-06
0.286974
0.0193861
-0.000214727
-1.11952e-05
-3.02228e-05
1.43444
0.0065486
6.77628e-05
0.336775
0.887305
-0.0251727
-0.000269822
1.76914e-05
2.5474e-05
-0.0281206
0.00399855
-2.01795e-05
0.0412629
0.0011004
-0.0286475
0.186089
1.74473e-05
0.00445478
-0.190625
0.0539312
0.0186366
0.000412706
0.0694292
7.18769e-05
-0.0584135
-4.02519e-06
-0.00109718
4.36713e-06
0.000312962
-2.06069e-06
1.10498e-06
-5.74364e-06
0.190299
3.39925e-05
-2.13063e-06
-0.378303
-7.54487e-06
-0.000550602
6.00374e-05
0.117975
-1.08623e-05
6.62403e-07
-1.60855e-05
4.16862e-05
1.17092e-05
-0.000466338
-1.77816e-05
-0.53873
0.00353861
-0.0702012
3.23153e-05
-0.0594555
-1.3776e-05
-0.00606488
0.00122711
-0.00519247
6.53919e-06
3.00532e-06
4.31535e-05
-1.37213e-05
-0.0368329
-0.000913034
-7.07251e-06
0.095738
-2.25846e-06
-7.40382e-06
-0.0161044
9.17222e-07
-2.24193e-05
0.0685747
-1.0323e-05
-0.635347
-3.21439e-05
0.00117529
-0.000678226
-0.000322572
0.00230951
2.68057e-06
-0.292572
-0.329442
-7.49246e-06
0.000453333
-0.0643425
-0.478571
0.386154
1.18551e-05
1.01413e-05
4.64129e-05
8.40399e-06
-9.60569e-05
-0.0428521
-0.00026314
-7.74408e-07
-0.00164297
0.128234
0.0239826
1.16571e-06
-1.47864e-06
1.07713e-05
-2.83156e-06
-0.217848
-0.129797
-3.00644e-05
-0.000408675
-0.0164557
-5.33619e-05
-1.58581e-05
0.020201
0.000168127
-0.0225592
-0.000530972
-9.4796e-06
-1.12249e-05
-5.68556e-05
0.00211385
0.0309328
-4.43466e-05
0.0377598
-0.124867
-0.0344243
-0.000162898
0.000142373
0.0336089
-0.00209418
0.139761
-0.00123502
2.2794e-06
-2.11098e-05
0.111211
-0.0383966
-9.15421e-05
-0.000346965
-0.00254769
3.2274e-05
-0.00998723
-9.56643e-05
2.93854e-05
8.81968e-06
-0.00184098
1.61694e-05
-3.52602e-06
0.240746
-2.21134e-06
1.12032e-05
0.000223565
-0.000441007
0.0454582
4.32778e-06
1.55633e-06
0.123952
0.000154245
-8.85007e-06
-0.000442927
-0.0520647
-1.32466e-05
-7.35094e-06
-0.00046592
-0.0129334
-1.8065e-05
6.68432e-05
-1.65165e-05
0.000135503
-2.41496e-05
0.597059
-5.97989e-05
0.0225359
6.88381e-07
-0.000206673
-5.22261e-07
-1.71493e-05
0.000312206
-0.0690428
0.920651
7.68013e-06
-0.000133753
-0.152432
0.00653644
-0.00232573
-2.14884e-05
-0.0594739
-1.31832e-05
-0.00510933
-0.0246149
-0.000106602
-9.27198e-05
-8.76452e-06
-0.00615315
-0.16222
0.0170175
7.43589e-05
8.81415e-05
-0.00053159
0.00339509
-1.37837e-05
-8.53483e-06
-0.00244058
-2.07611e-06
-8.37462e-06
-0.0349124
9.15518e-05
0.0771955
-3.06363e-06
-6.07687e-06
-1.36002e-05
-1.75817e-05
6.92797e-05
-0.000182353
-0.338875
-1.15999e-05
-6.23763e-06
0.181484
2.94196e-05
-0.00302954
5.78783e-06
-0.399286
0.0454103
-0.000159804
0.268737
0.000246017
4.0909e-06
-0.0320489
-1.44658e-05
1.94857e-05
4.08606e-06
-1.06983e-05
7.05008e-06
0.258233
-0.000156839
0.0141685
0.200614
-0.0959837
-0.00461144
0.043476
-0.000187954
0.0468136
1.65222e-06
-0.000787124
-8.55802e-06
4.49522e-06
7.22089e-05
0.165668
-0.0118302
2.54133e-06
-0.0419685
6.77165e-06
0.0698449
-1.5066e-05
-1.39805e-06
0.000266989
0.00187679
-0.0226521
-1.79644e-05
-2.55804e-06
-0.294106
-0.000815545
-0.011442
-0.00287923
-0.271826
8.75864e-05
0.156834
0.0623481
-1.65691e-06
-9.04365e-06
1.69462e-06
3.84115e-05
-1.02459e-05
8.9354e-06
-1.23979e-05
-2.70133e-05
0.000113746
-5.35343e-07
-1.52484e-05
0.135712
-0.0183239
2.57037e-06
0.0045058
-8.75291e-05
-0.00262237
0.000572708
0.00334028
-1.58253e-05
-0.00293884
-0.000608177
-7.76099e-07
-0.000288388
-0.193546
-7.27887e-06
-9.22009e-06
1.23999e-05
-0.0132572
0.111811
-2.42839e-05
0.0138
4.08496e-06
9.9327e-06
-0.303751
-1.83392e-05
-3.91746e-05
1.28326e-05
-6.3378e-05
-0.000563114
0.0652745
7.74461e-06
5.06379e-06
-9.49177e-06
3.33093e-05
-1.45035e-05
0.0555113
2.91683e-06
-6.07761e-05
0.0975017
-0.318909
7.92625e-06
-0.0791092
1.08369e-06
-0.00143879
-9.19577e-05
-0.0434377
-6.58882e-06
-0.0450279
-0.254124
-0.0362679
-8.78344e-06
-0.0861906
-0.00479978
-0.0465485
7.35215e-05
-0.0289931
2.92426e-05
-0.0174495
-0.0119157
0.000115894
-0.31488
-0.0115833
0.00588431
0.0891384
0.303167
-0.0102822
-1.59838e-05
-7.5838e-06
-0.0453085
0.00240956
-7.57816e-06
0.131484
-1.28986e-05
2.48678e-06
-5.3886e-05
-0.0520083
-0.0019862
-0.000237184
-0.369573
-1.68533e-05
-0.0369616
-5.39168e-05
-1.59817e-05
3.26612e-05
0.0417957
-0.0258366
7.75877e-05
-0.0513457
6.10514e-05
8.33417e-05
-0.000544029
-0.0449483
8.82589e-05
1.161e-05
-0.0226892
0.0330614
-7.96647e-05
-0.0251989
5.31603e-06
-0.00160405
-0.0227059
-2.41043e-05
-0.140942
-0.0709373
-6.94099e-06
-3.25286e-05
-1.25333e-05
0.124597
1.17993e-05
0.0174565
0.118699
-1.24267e-05
1.57565e-05
-4.83901e-06
-0.000411455
-1.42236e-06
-0.00666166
0.000188372
-0.000595802
-0.0284123
7.75358e-05
-0.000657867
-0.0128064
-5.81766e-05
-0.00305833
5.14003e-06
-8.91452e-06
0.0327078
-0.0598193
7.08719e-05
-0.228792
0.000708996
-0.0243934
5.94721e-07
-1.8292e-05
0.000111626
-6.28207e-06
0.00031547
-0.0295861
-2.31932e-05
-6.60596e-06
6.25885e-05
-0.00133119
4.66884e-05
-0.0674288
0.601015
-0.0123753
-1.1387e-05
3.51725e-06
0.00309836
6.85427e-06
-0.0953123
-0.129549
0.00142568
-0.00923527
6.50264e-05
1.87717e-05
-0.0299451
-0.159991
2.48465e-05
-0.0500809
7.50096e-06
-5.55687e-06
-0.00312516
-3.85995e-05
-1.19678e-05
-0.00257692
3.95962e-05
-2.01724e-05
-0.000133937
-2.33744e-05
-6.33872e-06
-0.0564705
-0.00122115
-0.017182
8.97678e-06
-0.000624331
-8.06593e-06
-1.27948e-05
-0.0390258
-7.36294e-06
0.0327321
0.0171067
2.39272e-05
0.227589
-0.00153821
0.100606
-1.36272e-06
0.0280441
0.00364659
-0.00930181
1.75094e-05
-8.76382e-06
-1.16718e-05
1.03347
8.27819e-05
-0.03718
-0.00181196
1.04317e-05
0.000558274
-1.72683e-06
0.196431
-1.80151e-05
-0.0443532
4.00718e-05
-7.90093e-06
-7.18116e-06
0.00669887
-1.84837e-05
-1.85611e-05
-5.91275e-06
-1.87337e-05
-3.48092e-05
-0.0049797
0.00845674
5.47197e-05
-0.000421313
-1.38825e-05
-1.81199e-05
1.42833e-06
0.000141316
0.00158357
-0.000409311
-2.49679e-06
-2.93246e-06
-1.46374e-05
4.12028e-05
-0.000344854
-2.25652e-06
0.225592
1.18891
0.152131
4.06554e-05
-1.37571e-05
-7.72275e-06
-0.000113824
-1.55395e-05
2.38859e-05
-2.31133e-05
1.54875e-05
0.00191532
-0.000101654
-0.00241063
0.177142
-0.319232
0.000284359
-2.42708e-05
2.71994e-05
0.0572004
2.62648e-05
-0.000607619
-1.02174e-06
-7.25219e-06
-1.07492e-05
-5.47405e-06
0.561529
-4.55343e-05
0.185858
-0.0144788
-0.00336629
7.4974e-06
-0.000390915
-0.0323468
-0.000114827
-0.000669274
6.21381e-06
-0.00203445
9.54597e-06
-0.000455218
1.54869
-0.0123543
-2.11607e-05
-6.73411e-06
0.0151882
-0.000304705
-0.00291587
8.49296e-06
-0.0995341
3.16832e-06
-0.000392103
0.0635185
0.0552165
-0.00233131
5.0073e-06
-7.39604e-06
-4.86908e-06
-1.12577e-05
0.00173632
0.00428738
-0.0441078
-9.66325e-06
0.00791233
-1.81187e-05
-0.110386
-0.0177887
-1.05678e-05
-0.0691731
-0.00186021
-6.93949e-06
-0.000454159
-0.000482602
-2.21981e-06
0.12584
-1.89286e-05
-0.0560652
0.000310649
0.0677564
-0.175725
-0.00261775
-8.80804e-06
-0.000465183
3.11887e-05
-1.81746e-05
-3.44336e-06
-9.87573e-06
0.395892
-1.39175e-05
-0.000369174
-0.0536103
-0.320098
-0.000283208
-0.00158481
-4.39246e-05
0.0390594
-3.20026e-06
-0.0140594
-0.127782
-0.316066
-0.302595
-0.000323494
-0.486286
-5.98968e-06
-9.73067e-07
-5.41592e-06
0.00127989
7.68956e-06
0.0288838
-0.00030754
0.089057
-0.000534381
-1.45773e-05
3.48774e-05
-1.17899e-05
2.91668e-06
-0.0739939
0.00606608
0.0395928
-2.48743e-05
6.87979e-06
-0.00011147
-0.000114844
-0.00733611
-1.66945e-05
0.00624005
0.253165
2.70871e-05
0.000284005
-0.0451819
-0.000495121
0.0407614
-0.0138183
-2.66891e-06
-0.0087437
9.55832e-06
0.215622
-1.73647e-05
-0.029459
-1.69663e-06
0.013585
0.00317992
0.2036
-0.0681069
0.0334499
-0.0238787
-0.0074456
0.000115655
-1.82591e-05
0.0287465
-0.062398
0.000782331
-0.000642081
0.222085
0.144488
-0.0280147
-0.00227512
0.392616
3.21055e-05
-0.00113911
-0.0314662
3.56727e-06
-2.78974e-05
7.77453e-06
-3.50637e-06
-5.32614e-06
-1.10046e-05
-3.67228e-05
-0.323652
-1.24971e-05
-0.0417514
-0.0156007
0.36967
0.00621323
0.0065867
3.47712e-05
-1.79346e-05
-0.0387839
-0.0300002
0.00030136
0.171797
0.0927005
0.00664845
7.08299e-06
-0.0010697
8.47179e-05
-0.00724711
-0.0110067
-0.023193
-0.0408159
-0.00366798
3.38477e-06
-1.43193e-05
0.291251
-0.0190995
-0.00336048
0.211982
-2.80575e-05
-9.6414e-06
-9.95929e-05
0.280508
-0.000127091
-3.49204e-06
-1.40541e-05
-8.46502e-05
0.00580228
0.0855009
-1.98046e-05
-0.0013439
0.016383
-6.04665e-05
0.00278678
2.75286e-06
-0.000442621
-3.1196e-05
-0.000360585
0.425793
6.37855e-06
-2.54873e-05
-5.19226e-06
0.2256
-0.00995855
-0.00078735
-1.08467e-05
-3.23025e-05
-1.79383e-05
0.06265
-0.000224308
-0.000114408
-1.4963e-05
-0.0494834
1.09156e-05
-0.0545332
-2.47394e-07
-0.000432146
-2.22335e-05
0.257652
0.0724653
-0.00341177
-0.000474262
-2.95299e-05
1.25875e-05
0.0699129
7.61548e-06
-0.0210665
-0.0965122
-9.37391e-06
-8.69986e-05
-0.36036
-1.91551e-05
0.0151053
1.51083e-06
-0.0577806
0.114995
0.0990022
-4.39577e-05
-1.59996e-05
-2.095e-05
7.56112e-06
-0.000163361
1.08541e-06
1.95121e-05
-2.47755e-05
-6.91383e-06
-6.48519e-05
7.99028e-06
-1.08403e-05
-1.8922e-05
-0.185942
-3.23856e-06
-0.202925
-1.59451e-05
-1.17642e-06
-0.273646
6.37529e-06
-2.56464
0.043467
3.60903e-06
1.6267e-05
-0.00221923
-0.171559
3.60197e-06
-0.149742
-0.000504847
0.000142453
0.00876655
-1.52065e-05
0.243405
-7.18455e-06
-0.0752806
-3.60192e-06
0.0124885
0.0251729
0.0303144
-2.15812e-05
-8.1272e-06
-1.95835e-05
-0.000132481
-0.00248597
1.39056e-05
-2.17132e-05
-0.00281839
-1.73212e-05
0.13011
0.122224
-1.15345e-05
-7.42533e-05
-9.5733e-06
-0.000650337
-4.22482e-05
-1.80155e-05
-1.80556e-06
-0.341598
0.0803738
-0.000279448
-1.99381e-05
-1.90498e-06
-5.73715e-05
-0.0235886
0.277119
0.000294304
0.00524429
-0.136256
-8.60512e-05
-0.000153932
-0.00166583
5.78159e-06
-8.45787e-05
0.000420185
-6.45963e-05
0.00769647
-8.52436e-05
0.172482
0.000132924
2.17852e-05
0.00160837
-0.000100121
-0.000178812
-2.08741e-05
2.95658e-05
0.193726
8.39996e-05
-5.22856e-05
1.02666e-05
0.12092
-0.0355441
-0.000108845
3.38063e-05
3.97277e-06
4.74358e-06
-3.87051e-05
-0.0229177
-1.25294e-05
7.97103e-05
-1.13078e-05
-6.2724e-05
-0.00107245
7.02744e-06
-0.0151961
-1.74332e-05
7.67495e-06
1.87195
-3.84442e-05
-9.90014e-05
-0.100353
2.3313e-05
0.418502
7.09406e-06
1.77453e-06
-5.69607e-06
0.000676778
-7.68626e-06
-0.0106292
-8.3609e-06
-1.65967e-05
-0.895282
-0.0456167
-0.00799258
-0.124495
-0.0758038
3.97774e-05
-8.81674e-06
-6.84209e-06
-0.0276416
-0.000440688
-0.17364
1.28612e-05
-0.00136355
0.0134013
-0.0150938
-4.13626e-06
0.0595841
-0.00782134
-2.29735e-05
8.77709e-05
2.30347e-05
-4.76298e-05
0.0122172
-0.000570949
-2.60106e-06
1.52709e-05
-4.04225e-07
0.0209786
-2.03701e-05
-0.0162527
-0.0018522
-1.72592e-05
-1.76472e-05
-1.63521e-05
-0.789417
-0.0154412
-1.05825e-05
-0.513899
-0.0236676
1.55027e-05
0.0295332
-1.05637e-05
-1.29939e-05
4.16402e-06
5.33895e-06
3.04119e-05
-4.51878e-05
2.58042e-05
1.28939e-05
1.74543e-05
-0.00182198
1.18571e-05
-0.074824
-0.00062219
2.94146e-06
0.849413
-4.69018e-06
0.000112102
0.000499765
-2.72193e-05
0.034062
-1.35809e-05
-0.00908381
0.156019
-2.48768e-06
0.0810002
-0.0198033
3.22733e-06
-4.18214e-06
-3.9348e-05
1.29665
-8.21962e-06
-0.0152657
0.250402
-2.7038e-06
-0.000425804
-0.000271097
0.00673538
-2.93118e-06
0.0462687
-1.39861e-05
-0.00970363
1.86344
-0.00681271
-0.0649703
2.57836e-05
0.0078445
-0.0572096
0.452114
-1.85494e-06
-0.00366483
1.21969e-06
-0.00330922
-6.70436e-06
-1.73707e-05
-0.0126844
-0.000414083
-0.00654515
-0.0118662
5.69193e-06
0.00144154
3.3648e-06
-0.0225708
-1.36925e-05
-0.000391489
-0.149537
0.00190219
0.0858463
-0.00187618
-0.000344614
0.114372
1.03979e-05
-2.44947e-05
-5.70932e-06
3.32103e-05
-9.95344e-05
-0.00031791
-1.31818e-05
0.0180773
-0.000541868
-7.31955e-07
2.49915e-05
-4.33266e-06
-2.75908e-05
0.0465682
-1.76894e-05
-0.186188
-7.79645e-05
0.0071654
3.24057e-05
-2.11604e-05
-1.59997e-06
-0.0034729
3.0329e-05
-0.111266
-0.900991
-0.00246184
8.82644e-05
-8.85693e-06
9.14083e-07
-2.45442e-05
5.04929e-06
0.153004
7.4017e-05
1.82144e-05
-0.973059
-5.09661e-07
3.22537e-06
-0.0603143
1.58213
0.158685
5.38542e-05
0.135077
-0.838262
-6.8752e-06
-1.98822e-05
-0.00013441
-0.0164494
0.495978
0.0777364
1.16419
-1.20403e-05
7.58003e-06
-0.0496025
0.000159143
1.91073e-05
-0.000128969
2.20459e-05
-0.000117131
-0.0157811
-0.586109
0.00198825
-0.00054293
-2.19518e-05
-0.000366979
-0.186162
-2.46427e-06
-2.45341e-05
-1.62433e-05
-0.0386219
-1.1638e-05
-0.000285036
-0.15077
-0.0336671
-8.44288e-06
6.32523e-06
-1.28778e-06
4.19223e-06
-2.63453e-06
0.000120741
-0.0434607
-2.39389e-05
0.472253
0.158941
-0.198082
-2.63091e-05
8.58856e-05
2.69386e-06
-2.90354e-05
1.41804e-05
1.80367e-05
1.4087e-05
-0.418239
-0.30092
4.65717e-05
-1.39401e-06
6.03399e-05
1.27068e-05
0.0252058
0.000107768
-0.0375563
0.200735
0.0908764
-0.000423622
8.77163e-06
-4.01514e-05
-2.18511e-06
1.57836e-05
-0.0958129
-1.0706e-05
-0.000255174
0.329439
0.013523
-0.063024
0.0828789
-0.172652
0.273517
-2.93759e-05
0.000391755
0.00784911
-0.259579
3.29259e-06
-3.74896e-06
9.02798e-05
6.32176e-06
4.99803e-06
0.0158745
-2.68664e-05
3.82964e-06
-0.15841
-0.000226765
0.257897
-6.6542e-06
-7.03372e-07
0.000216253
0.70335
-0.0200848
-0.121225
-6.11455e-05
0.00226146
-0.00171082
-2.27361e-05
0.0107172
-1.2329e-05
-0.000195691
1.19018e-05
-6.57269e-06
0.252819
0.0362058
-0.0169959
0.176004
0.182908
0.0495236
-0.173648
1.16297e-05
4.01071e-05
1.76835
-1.71755e-05
1.70549e-05
4.76628e-05
5.49269e-06
-0.0231124
-4.12818e-06
0.0556259
0.00681765
2.80926e-06
0.208384
7.41905e-05
-2.08126e-05
2.40377e-05
-7.20745e-05
1.16918e-05
-4.50426e-06
-2.33682e-05
0.00945118
1.59059e-05
-1.65375e-05
8.72055e-05
-0.00248425
0.00634137
-1.558e-05
4.97966e-05
0.0356656
0.0290034
-6.81785e-06
8.88414e-06
7.97189e-06
2.58243e-05
1.00524e-05
3.29215e-05
-0.0507721
-0.391905
5.92165e-06
-3.62214e-05
-1.76943e-05
0.000284839
0.0183795
5.69829e-06
0.0482695
0.186356
-7.72026e-06
0.00033536
-0.80514
-0.851602
-3.67654e-05
-2.39539e-06
-1.2346e-05
-0.0146203
-0.00810818
0.201457
-0.00012528
-0.0985549
-0.00150069
-0.121221
-0.0671117
0.0299098
0.0172363
-0.110719
-0.0567353
-0.79923
3.13346e-05
-0.0717987
3.8587e-05
0.141017
-6.50027e-05
1.56956e-05
4.00097e-06
-0.0050581
-0.0157173
8.8888e-06
-2.1681e-07
0.0273275
-0.0428756
-0.989907
-1.79475e-05
2.25919e-05
7.99161e-06
0.000123353
4.14452e-05
-0.00220308
-0.0921953
0.00296918
7.7781e-05
-4.8697e-06
0.00577691
1.43514e-05
-5.6303e-06
-0.115284
-4.18228e-05
-6.91695e-05
2.19172e-05
-0.156062
-0.00236433
-0.0511285
7.91196e-05
0.0307371
-0.834666
-0.00142063
-0.0348837
0.173536
-0.584131
-0.201282
-4.46197e-06
5.01147e-06
-0.00455947
-7.7668e-07
-7.90554e-06
-3.34528e-05
6.46973e-05
0.000232302
0.000727019
-1.85942e-05
-0.321767
-0.000208907
0.0184951
7.54899e-05
-0.283155
0.00367911
0.00152445
-0.39874
0.319664
-0.00317792
-0.412864
0.137493
2.85765e-05
-5.473e-06
-0.00314352
0.000120996
0.0739761
-2.40907e-05
-5.88299e-05
0.137914
-1.07188e-05
9.12578e-06
2.66357e-05
3.35711e-05
-0.0201418
1.32334e-05
-0.000884146
2.70912e-05
0.301036
-5.24322e-06
0.356249
0.134066
0.0281216
0.272002
-5.75276e-06
6.09231e-06
4.40848e-05
-6.23471e-06
-0.816642
0.00848599
-0.0544877
0.155331
1.41434e-05
0.00012254
0.000115686
3.75757e-06
-0.00843819
-1.24985e-05
-0.000611957
0.181542
0.181377
0.0234879
1.10861e-06
3.85809e-05
0.280594
-7.96678e-05
0.0410331
0.00436562
-0.97564
0.0569111
1.28513e-05
1.79486e-05
-1.02249e-05
2.6271e-05
-0.0161168
-2.105e-05
0.0564954
-1.58682e-05
1.96076e-05
-0.195448
4.71084e-05
0.0229974
1.43401e-05
9.78877e-06
6.1967e-06
0.000655284
-1.11665e-05
-0.000211542
0.287704
7.75242e-06
5.42702e-06
-0.00250576
0.106934
-9.02256e-05
0.00225242
-6.64825e-06
0.0117091
-0.0666752
0.0021707
-4.37099e-06
-7.077e-06
-0.000647963
4.14934e-06
-0.100946
-0.101921
0.220309
0.156398
1.93615e-06
0.00139798
-1.1567e-05
0.0022034
3.92066e-06
-0.153453
-0.0114214
5.93543e-06
-0.266263
-1.32574e-05
0.189814
-0.0020214
-7.10278e-06
-0.0312578
3.29555e-06
-1.98608e-05
-1.55503e-05
1.89006e-06
0.00126158
0.219158
-6.48923e-08
8.10332e-06
0.00382596
-2.05712e-06
3.45007e-05
-2.08339e-05
-3.61792e-05
-6.08139e-06
-0.0107365
0.00237631
1.00856e-05
-7.80723e-05
-7.19836e-06
4.66553e-06
0.292498
-0.0774568
6.44427e-06
-1.29743e-05
-4.51157e-05
0.00773821
7.37464e-06
7.96767e-05
1.37487e-05
0.00120755
1.32238e-05
8.78539e-05
-0.0133729
-1.02409e-05
-0.0980396
-5.11566e-06
-4.04244e-06
-8.34227e-06
-2.32719e-05
-3.06511e-06
8.91205e-06
0.309878
-0.00611709
-2.1687e-07
7.14319e-05
-5.25009e-05
0.0519077
-0.000536096
0.000335882
2.7579e-06
1.08901e-06
-3.05841e-05
0.000107953
0.0167032
-0.00206607
-1.21077e-05
3.34545e-05
-0.104607
-6.49311e-06
0.256243
0.0140508
-7.12931e-07
-0.0642247
0.0389831
-0.0271417
-0.0318463
-0.011385
-0.000815922
-1.52644e-05
0.0202138
-8.4419e-08
-5.21341e-05
0.00102255
2.41011e-05
-2.24309e-05
-0.0829514
-1.53917e-05
0.621951
-0.979476
-7.47501e-06
5.52328e-06
0.559644
-3.5177e-05
-0.019552
-7.13213e-06
-0.0674733
-0.00174373
0.039236
-3.57771e-05
-1.6606e-05
-7.75406e-06
0.0343301
-0.174894
0.168924
-0.0379612
0.00175701
8.61395e-06
-0.0312684
-0.249498
-2.84523e-05
3.45799e-05
5.43606e-06
-3.97302e-06
0.0376381
0.0109214
2.04427e-05
0.121663
-1.15869e-05
3.84186e-06
-5.27024e-06
-5.97127e-06
3.93415e-06
-0.0731427
-1.09951e-05
0.000208237
-8.93434e-06
-4.69265e-06
4.56363e-05
1.59262e-05
-2.37001e-05
6.29071e-06
-0.0147949
-2.94328e-06
-0.00770469
-0.210665
0.0433648
-3.28983e-05
-0.00530243
0.000889529
-4.32141e-05
-2.61896e-06
-6.14678e-06
-4.65879e-07
-0.0577123
0.000645207
6.00433e-06
1.31089e-05
-0.0604912
9.96217e-05
-0.0120294
2.10803e-05
-1.12834e-06
-2.71806e-06
0.109121
0.180439
0.0119771
0.554382
7.99215e-06
0.0913497
0.0550878
-3.94318e-05
-1.11192e-05
-1.31929e-05
-0.000420895
-0.00032611
-0.0798158
-0.148156
-0.00023503
-1.7952e-05
0.00181322
-3.63457e-05
0.260696
2.35535e-05
0.0434654
-1.5363e-05
0.0642456
-0.00151773
-1.31701e-05
8.5891e-06
0.258061
-1.89501e-05
-0.016499
4.23397e-06
7.30416e-06
9.69423e-06
-5.20856e-06
0.105269
-6.58462e-06
2.40082e-05
0.000172442
1.16063e-05
0.19517
-0.822227
-0.000436311
-4.21726e-05
1.10554e-05
0.0253759
0.0488359
-2.3516e-06
-6.38963e-06
0.0108574
3.72508e-06
1.17841e-05
0.0290029
-1.34101e-05
-0.0385265
-0.0178482
-0.0104498
-5.11562e-05
-2.15975e-05
-3.94212e-05
-0.000446202
-7.1153e-07
-1.42694e-05
-0.171481
0.00492629
0.000199871
-3.17103e-05
-2.45223e-05
4.28879e-06
-0.27517
-2.99579e-05
-2.15878e-05
1.151e-05
-4.57117e-06
-2.02308e-06
0.207276
-0.000412007
-5.71491e-06
3.76671e-05
-2.00587e-05
-1.14913e-05
0.000529172
-0.0137918
-0.00934062
-1.01015e-05
-4.07525e-05
-3.40103e-05
-2.46623e-05
0.0368183
-1.76518e-05
0.141081
0.00157738
4.41254e-06
-4.76498e-06
-0.0316722
-4.38401e-06
3.38953e-06
-1.81118e-05
-0.00949272
7.62696e-06
0.00231507
-1.47128e-05
1.00706e-05
1.02087e-05
0.155507
-1.9379e-05
4.6317e-05
-0.000232004
0.118417
0.000953754
-1.87107e-06
0.00257327
-6.50396e-07
0.00338281
-2.7002e-05
3.14175e-05
-4.16047e-06
-1.04461e-05
-3.46739e-05
-0.831137
-0.0131019
-0.0285843
-0.00401535
-5.18042e-06
-0.478804
-2.48037e-06
0.498918
-0.0022152
7.12312e-05
0.11942
0.0135904
-0.0898669
-1.22918e-05
-0.174443
-3.3471e-06
-1.04774e-05
-7.64505e-05
0.209832
-0.0522977
-0.000354399
0.380881
-0.308906
0.155268
4.73029e-06
-6.16708e-06
-0.00214756
-0.0546619
0.0310613
2.60589e-05
-2.47623e-06
-0.0020933
0.163336
-1.73706e-05
0.293119
4.34698e-05
-0.101221
-6.60624e-07
-7.29721e-06
9.06581e-05
1.04796e-05
0.134952
-0.0246971
0.0372961
-2.01071e-05
8.21976e-06
0.0123984
-0.0303032
0.00956667
-2.46806e-05
-5.68482e-05
-8.78216e-06
-1.33944e-05
-3.68387e-06
0.117352
0.107201
0.134074
0.0611237
-0.000770154
-0.0201368
-6.87654e-06
-3.61534e-07
-4.38494e-05
-1.55517e-05
5.93645e-05
-4.0087e-06
-4.78261e-05
8.5092e-06
-1.39489e-05
0.000272881
0.0325217
0.000439181
1.07083e-05
-7.74627e-07
-0.834674
-0.000119807