/*--------------------------------*- C++ -*----------------------------------*\
| =========                 |                                                 |
| \\      /  F ield         | OpenFOAM: The Open Source CFD Toolbox           |
|  \\    /   O peration     | Version:  v2012                                 |
|   \\  /    A nd           | Website:  www.openfoam.com                      |
|    \\/     M anipulation  |                                                 |
\*---------------------------------------------------------------------------*/
FoamFile
{
    version     2.0;
    format      ascii;
    class       surfaceScalarField;
    location    "400";
    object      meshPhi;
}
// * * * * * * * * * * * * * * * * * * * * * * * * * * * * * * * * * * * * * //

dimensions      [0 3 -1 0 0 0 0];
oriented        oriented;


internalField   nonuniform List<scalar> 
14885
(
8.36907e-05
0.000239756
-0.000326449
0.00164143
-0.000880438
-0.000761862
0.000132107
-0.0012575
0.00111924
0.000495872
-0.000716617
0.00017323
-2.56204e-05
0.000214292
-0.000240738
-0.00150197
0.00032488
0.00117721
-0.000235495
-0.000913844
0.00114605
0.00051918
-0.000614112
9.40541e-05
0.000325974
-0.000224917
-0.000114598
0.00142071
-0.000559355
-0.000864392
-0.000107855
-0.00046296
0.000567523
0.000797612
0.000843138
0.000177149
-0.00114229
0.000961976
-0.000268838
0.000653766
-0.000399351
0.00137777
-0.000429644
-0.000965298
-0.000662052
0.000378765
0.00116383
-0.0010735
-9.07977e-05
0.000437755
-0.000548566
0.00123179
-0.000260831
-0.000978082
0.00163544
-0.000439312
-0.00120487
0.00110191
-0.000927832
-0.000246149
0.000326523
0.000630006
-0.00018478
-8.37605e-05
0.000834551
-0.000750038
-0.0011105
0.000242455
0.000834447
1.20805e-05
-3.11479e-06
-1.41522e-05
0.00122961
0.000186062
0.000165786
-0.00017939
1.48259e-06
-0.000208616
-0.00129355
0.000220582
0.000496696
-0.000717681
-0.00013722
5.46817e-05
4.88759e-05
0.00104921
-0.000168553
-0.000882345
0.000296891
-8.55926e-05
-0.000226308
9.35427e-05
0.00018796
0.000600214
-8.18167e-05
0.000595453
-0.000532794
-6.25358e-05
0.000165718
-3.83867e-05
-0.000206665
-0.000270299
2.91401e-05
0.000228442
-0.000105854
-6.53747e-05
-2.68989e-05
2.78988e-05
-1.0754e-06
-0.000729891
0.000950012
0.00022529
-0.000963252
0.0011553
-0.000192979
-0.00169618
0.00151911
0.000173623
-0.000852602
0.000125135
0.000690402
-0.000329825
-0.000803513
-9.15706e-05
-6.01011e-06
9.16193e-05
0.00120711
0.000151983
0.000126359
-0.00105219
0.000922824
0.0011571
-0.00121706
5.85603e-05
-0.00105796
9.35009e-05
-1.55955e-05
0.0004139
-0.000447457
0.000955361
0.000131557
0.00109349
-0.00139164
0.00129533
9.50535e-05
-0.0010775
0.000999398
7.75662e-05
0.000157865
0.000941008
0.000716426
-0.000233762
-0.000491022
0.00132345
-0.00116954
-0.000169224
-7.47797e-06
6.68294e-06
2.8276e-07
0.0011796
-0.0010567
0.00140255
-0.00130254
-0.000101659
0.00102995
0.000123855
0.000480199
-0.000559502
7.83344e-05
0.000936447
-0.00013434
-0.000809428
0.00141454
-0.00040647
-0.00102981
0.00154966
-0.000530576
-0.00102866
0.00028963
-0.000364307
7.16674e-05
2.61217e-05
5.47275e-05
-8.58753e-05
0.000340576
-5.4049e-05
0.00103397
-0.00107347
3.81458e-05
-0.000107938
-0.00119335
0.00129252
-6.60217e-05
-0.000353142
0.000404083
0.000238268
0.00106916
0.00109224
0.000297601
-2.50071e-05
-0.000419166
0.000916676
-0.000504584
-0.000100281
2.27486e-06
0.000453677
-0.00087978
0.000846364
-0.00111374
-0.00150965
-0.000189631
-0.000813034
3.06902e-05
-0.000107889
2.32458e-05
0.000389862
-5.42105e-05
-0.000377984
0.00163601
-0.000645956
-0.000995888
-0.00114358
0.00118491
-4.38465e-05
0.00113689
0.000401348
0.00123456
-0.0011086
-0.00086072
0.000877984
-3.49782e-05
-0.000319359
-0.000724828
0.00103671
0.00135384
-0.000919107
-0.000438868
0.000713064
-0.00115813
0.0010459
-1.7673e-05
0.000128126
-0.00127459
0.0008763
-9.91088e-05
-0.000782112
0.00105577
-0.00121618
0.000139572
0.000728719
-0.000712435
0.00109459
0.000869101
-0.00101936
0.000148228
-0.00124428
0.00013938
0.0010893
0.000991945
0.000357137
0.00124222
-0.00134726
0.000101107
-0.000408343
-0.00101631
0.00140726
-0.000806281
0.00109551
0.00120978
-0.000127174
-0.00108877
-0.00125077
0.0012344
6.91789e-08
0.000344281
-0.000925924
0.000581247
0.00132876
-0.000260886
0.000863245
-0.0011018
0.000115063
-0.00138385
0.00129606
-0.00156276
0.000246858
-0.000303958
0.001164
0.00137054
-0.000132683
0.000566744
-8.79642e-05
0.000124563
0.000805106
1.01199e-05
9.45318e-05
-0.000109549
-0.00041552
0.00107892
-0.000672705
0.000102853
-2.4274e-05
-0.000119524
0.000179782
0.000526479
-1.36851e-05
9.79715e-05
-8.88742e-05
-8.14604e-06
-7.65968e-08
0.0015255
-0.000803277
-0.000723837
0.00107904
0.000445458
-0.00020903
-0.000677447
0.000482684
-0.000807743
-0.00083986
0.000904926
-8.58343e-05
-0.000964732
0.000105596
-9.53014e-05
-0.00129729
0.000903128
-0.000841077
-6.28771e-05
-0.00112581
0.000700572
-0.000321867
0.00032446
-1.6912e-05
0.00123369
-0.000889071
-0.000363012
-0.000101761
0.000897423
-0.000811401
-0.000815447
0.00134537
-0.000550649
0.000703876
-0.00101062
7.55395e-05
-0.00104787
0.000970612
0.00147231
-0.000347698
-0.00113355
0.000573012
0.000684292
0.00144163
-0.00129361
-0.000158367
0.00108241
-0.000215759
0.000128619
-0.00107642
0.000945493
8.39678e-05
-1.02991e-05
-8.80188e-05
0.00112709
-0.000783301
5.98159e-06
0.000146079
-0.000881588
0.00133895
-0.000462489
-5.06688e-05
-0.000230732
0.00070216
0.000928271
0.0001012
-8.16327e-05
0.00133507
-4.39949e-05
-0.001305
-0.000254688
0.000950442
-0.00069635
0.000962018
0.000348714
6.05433e-05
-6.32945e-05
-1.09409e-05
-0.00139273
0.00117057
0.000215981
0.00100766
-0.00110264
9.28606e-05
0.000112617
0.000758413
0.00029765
-0.00118467
0.000836097
6.61235e-05
-0.000855709
-0.000222242
-0.000872532
0.000755805
1.63807e-06
6.94722e-06
-0.000214909
8.61171e-05
7.51808e-05
-2.47775e-05
-1.33972e-06
0.00103725
-0.000963467
2.33992e-05
0.000139962
-0.00130542
0.0011537
0.00101116
-0.00126677
0.000397466
-0.000481188
-0.00109491
0.000286242
5.22911e-05
0.000542896
-0.000243134
9.98782e-05
0.000131774
0.000863662
-0.000110178
-0.000758492
-0.000471508
0.000968013
-0.00114659
-0.000252848
0.00139734
-0.000164651
-0.00103095
0.00115618
-0.00139366
0.000244749
-0.000303976
-0.000492311
0.000773022
-0.000324961
0.00026099
0.000336588
0.000874008
-4.87876e-05
9.858e-05
0.00127068
0.000159312
0.00146695
-0.000595233
-0.000876813
-0.00102076
7.98715e-06
-8.99243e-05
7.8354e-05
3.60906e-05
-1.1e-05
-2.67489e-05
0.00070906
0.000364262
-0.00107658
0.00107802
-0.00119386
2.30475e-06
-6.24252e-06
3.51075e-06
0.000972069
-3.92384e-05
-0.000933689
0.000105713
-0.000108668
-2.21415e-05
0.000249774
-0.000970579
0.00112533
-0.000333705
-3.72262e-06
0.000322404
0.00113876
-0.00132645
0.00139677
-7.09854e-05
0.00120298
-0.000502698
0.000505662
-0.000885854
0.000379767
0.000868022
-0.000106362
-0.000769039
-0.000761643
0.000710373
5.11206e-05
0.000352821
-1.33125e-06
0.000771028
-0.000897454
0.000125815
-0.00107929
0.00105332
2.39349e-05
-0.00132155
0.000229943
0.00108764
-5.55311e-05
5.28621e-05
-3.10209e-06
-0.000870133
-0.000150895
7.29565e-05
0.000809252
-6.1143e-05
-0.000719684
0.000781468
0.00108591
-8.11383e-05
0.00126747
8.82035e-06
-0.00103151
0.000199462
-4.76204e-05
-6.87145e-05
7.15703e-06
-0.00119903
-0.000126341
-0.0013404
0.0012496
8.51267e-05
0.000111288
-0.000325541
0.000134232
-0.000264786
-7.31306e-05
0.000334592
-4.1292e-06
5.23384e-05
-5.55255e-05
-0.000208828
0.0013262
-0.0011202
0.000233046
-8.7802e-06
-0.000275442
-7.08379e-05
-0.000778891
-6.00929e-05
0.00083873
9.85821e-05
0.000758705
-0.000837878
5.86269e-05
7.36481e-05
-0.000367011
-0.000381907
-3.52844e-05
-0.000114922
-0.00114028
0.00124069
0.000423339
0.00103788
0.000180119
-0.00136415
0.00117597
0.000629462
-0.00105036
-5.68844e-05
-0.000281297
-0.000604622
-0.000377216
0.00110806
-0.000402392
9.82483e-06
6.07182e-05
0.000469933
-0.000796849
-0.000562138
0.00160512
-0.000558316
-0.0010612
0.000773826
-4.52305e-05
0.0011784
0.000155084
0.000761594
7.36104e-05
-0.000115152
0.00123375
-0.00112199
0.000926992
-0.000115152
-0.000816308
-8.74699e-06
2.10494e-07
-2.15537e-05
-3.87057e-06
0.00117588
7.52025e-05
-0.00125223
0.000199903
-0.000277395
0.000132955
0.000789457
0.00125623
-8.48047e-05
-0.000778294
-0.000618563
0.000176943
-5.14621e-06
-0.000118324
0.00132118
-0.000332959
-1.50689e-05
0.00149435
-0.000718535
-0.000781018
0.000372389
0.0007433
-0.00111738
0.00117837
0.000139118
0.000440006
0.00115074
1.06292e-05
7.45395e-05
0.00141527
-0.00114477
-0.000286084
-0.000423021
-0.000289512
1.16671e-05
-0.000360515
0.000301189
0.000182413
-0.000914199
-2.04919e-05
-0.000279529
0.000284788
-0.000416612
0.000355724
9.82805e-05
-0.000110412
-5.9322e-05
-0.00112955
0.00149959
-0.000752615
0.000927931
0.000635087
0.000854081
2.49289e-06
1.6436e-05
-4.39817e-05
0.000191317
-0.00081122
-0.000198123
0.000934687
-0.000762535
0.00107878
7.63561e-05
-0.000704596
0.000683352
3.86297e-06
-0.00102022
-5.45223e-05
0.000308088
0.00109147
0.000665359
-0.000179197
-0.000495006
0.00135537
-0.000444652
-0.000918361
0.000790268
-9.61975e-05
-0.000727814
-3.48486e-05
1.35453e-05
-0.000135095
-0.000113932
-7.55478e-05
0.000103866
-0.000978122
0.00086787
0.000822525
-0.000317233
0.000171109
0.00117361
-0.000205112
5.5278e-05
4.71281e-05
0.00075885
2.09289e-05
-0.00078003
0.000417548
0.000741522
-0.00116626
0.000144302
1.24735e-05
-0.000163816
3.64583e-05
-0.000288316
0.000248722
2.82155e-06
4.64524e-05
0.00111773
-0.000972659
-0.000148464
-5.16164e-05
0.000967214
-0.000926825
4.40285e-05
-0.000167802
3.99034e-05
0.000667706
-0.000965894
0.000294742
-0.00089387
0.000318491
-0.000620286
0.000291902
-0.0013076
-7.43041e-05
0.00137781
0.00165465
-0.00124403
0.000715781
-0.000939062
4.80009e-05
-5.9359e-05
-0.000131123
-0.00111439
3.28635e-06
-1.23914e-06
-0.001186
0.00106756
-0.000566196
0.000977386
0.00055979
0.000841255
0.000730196
-0.000805521
5.72279e-05
4.6277e-07
-2.21375e-05
-0.00125348
-5.67036e-05
0.000945716
-0.000280423
9.87991e-05
5.5406e-06
-0.000469962
-0.00069238
0.00114417
-0.000171049
0.00119942
-0.000244889
0.000554539
0.000887857
-0.000950574
0.000273736
-0.000240342
8.37791e-06
8.52328e-05
2.27476e-05
1.30395e-05
-0.000847126
7.12759e-05
0.000774338
-8.75674e-05
9.29971e-05
-1.63836e-05
-8.63597e-06
1.61241e-05
-0.00101248
-9.10586e-06
0.000173508
0.000483282
0.000417107
-5.03556e-05
-0.000368553
5.40778e-05
-4.87603e-05
-5.93544e-06
-0.000123015
0.000156973
-0.000771196
8.19739e-05
0.000678761
0.00110557
-0.000789063
0.00108179
0.000146471
0.000967768
-0.000799919
0.00085803
-0.00118583
0.00123095
-6.6099e-05
-0.00012816
0.000364871
-5.35925e-05
6.81664e-05
-3.27453e-05
0.000756589
-0.000817036
-4.63082e-05
-0.000245425
0.00123182
-0.000811956
-0.000420751
0.00035344
6.15399e-05
-0.000328864
-2.03654e-05
-0.000147798
0.00115755
0.00102129
-0.000894804
-0.000143421
0.00113019
-0.000989759
-8.53253e-06
-9.5736e-07
-0.000830231
8.98269e-05
0.000730854
0.000109628
-9.50154e-05
-6.79721e-05
-0.000336591
0.00026627
-0.000646702
0.000675521
-4.54508e-05
0.000133326
-0.000314109
0.000131375
0.000130299
-0.00112823
0.000985928
0.000103363
0.00104759
-0.00116097
0.000810451
-0.000914673
0.00105614
-0.000937501
-0.000234138
0.000286753
-5.9249e-05
5.54597e-06
-0.00130968
-9.33744e-05
-0.000687154
-0.001282
0.00115231
-1.56933e-05
-0.000102459
-0.000771706
0.000873551
-2.03353e-05
4.71972e-06
5.45538e-06
0.0012956
-7.85969e-05
-0.000228275
0.000116607
0.00123248
-0.00110372
0.000902703
-0.000116922
-0.000789036
0.000881152
-0.00103017
-4.54174e-05
-0.000208353
0.000285431
-0.000120802
-0.00010667
0.00104539
-0.000950091
0.000938379
0.00137551
-0.0012193
-0.000156821
-2.83294e-07
3.09621e-05
2.39777e-05
8.32825e-06
5.18525e-07
-5.18525e-07
0.00084357
0.000337664
-0.00078228
0.000737397
3.05858e-05
-0.000668184
0.00048018
-0.000152754
0.00124623
-0.00109774
-0.000110092
0.00125984
-0.00115205
0.00115783
-0.000317026
-0.00127362
0.00119448
5.8044e-05
0.00107383
-0.00123064
0.00135058
-0.00117861
0.00089823
0.000185894
0.00116932
-0.000441355
-0.000729586
-0.000105797
-0.000130486
8.448e-05
1.01123e-05
0.000943207
-0.000808677
-0.000148359
0.000139606
-2.12535e-06
0.00145997
-0.0011684
-0.000857519
0.000857265
-1.65986e-07
0.00116054
-0.00106733
-8.45143e-05
0.000767882
-0.000692166
-0.000167047
0.00104789
0.00150389
-0.000762153
-0.000793238
4.57136e-05
0.000704197
9.2124e-05
0.000506948
-0.000115259
-0.000165932
0.00061612
-0.000785987
0.000419026
-4.78765e-05
0.00077817
-0.000830422
5.18377e-05
-0.00014978
0.000140035
7.2264e-06
0.00129929
-0.000202606
-0.000684691
0.000887118
5.31676e-05
-0.000294157
7.05397e-05
0.000947917
0.000284281
4.00163e-05
-0.000328913
0.000130237
0.00109978
0.00030187
0.00114203
0.0014289
-0.000683321
-0.000747194
-0.00056869
0.00110048
-0.000536497
0.000830124
-0.000949915
7.62244e-05
0.0010741
0.000544346
-7.27586e-05
-0.000473265
0.00126891
-0.000156048
-0.00112582
0.000295833
-0.00124006
0.000938565
0.00127924
4.19485e-06
9.87705e-05
-0.00010996
0.000460274
0.000797977
6.75189e-05
-7.28992e-05
-1.03765e-05
0.000762346
-0.000929678
-6.76454e-05
-0.000282988
-7.33238e-05
7.78658e-05
-2.47882e-05
0.000868585
0.000336113
-0.00121724
0.00135495
-0.000105234
-0.00125648
0.000620181
0.000806382
0.00026423
-0.000292703
-0.0011169
-0.000271676
0.00112889
-5.62859e-05
-5.05517e-05
0.000566006
-0.0011393
-0.000209351
-0.000322641
-3.15671e-05
0.000310897
0.000116784
0.00110475
0.000981676
5.20115e-05
-0.00103433
-0.000497756
-1.56746e-05
-1.06106e-05
1.67107e-05
0.000898551
0.000100312
-0.000142287
0.000129398
1.46337e-06
-0.000273288
0.00114821
8.50368e-05
0.00112969
-0.00122354
-4.14788e-05
2.9237e-05
3.12229e-05
-1.08063e-06
-2.99893e-05
0.000117292
0.000424017
4.71042e-05
0.000988653
-0.000468546
-1.14107e-05
8.05798e-05
-7.25556e-05
0.000628828
-0.000463451
0.000983528
-0.00126914
0.000282543
-0.000303707
0.00128445
0.000850761
0.000316323
0.000298603
0.000293261
-0.000666135
3.45425e-06
0.000928234
-0.000917738
5.9831e-05
-9.14547e-06
1.99747e-06
-2.24262e-05
1.96088e-05
-6.62557e-05
-8.7169e-05
0.000883721
-0.000483848
-0.000438391
-0.000503424
0.000494693
8.16914e-07
-2.58466e-05
-0.000485811
0.000129373
0.000800088
-3.5389e-05
-0.000295879
0.00122187
-0.00120715
0.000609374
-0.000892909
0.000769231
-0.000884401
0.00104945
-0.00100388
-0.000241774
0.000211064
2.36164e-05
-0.000836578
6.53827e-06
0.000829676
0.00106142
-8.06202e-05
0.00107837
-0.00017543
-0.000905882
2.58718e-05
-9.37676e-05
0.00105194
-0.000943833
9.37659e-06
-3.38022e-05
0.000435767
0.00106632
-0.000119838
0.000979129
-0.000883801
0.000817221
4.24539e-05
0.00117041
-0.00110465
0.000934157
0.000145415
7.28089e-05
-7.31667e-07
0.00104948
-0.00117387
1.19458e-05
-1.07089e-05
0.000159832
0.000460582
0.000177241
-0.000993577
0.000814823
1.39979e-05
-3.96357e-05
0.000224322
-0.000236854
-1.42894e-05
0.000853721
0.000989542
0.000424368
-0.00141519
0.000245121
-0.00028026
-0.00089114
0.000810558
7.15304e-05
0.0012739
-0.00011424
-0.00116671
-0.000956577
0.00102427
0.000205857
7.39143e-05
-8.26028e-05
-0.00083496
-0.000132461
0.000916501
0.000130264
-0.0010485
-0.00120484
0.00119957
-1.42903e-05
-6.58317e-05
0.00010255
0.00092776
-0.000480659
0.00146881
-0.000834658
-0.000476925
0.00130707
6.82258e-05
-0.00104882
0.000978094
-6.50695e-05
-3.83306e-05
7.71436e-05
-1.94525e-05
1.91944e-06
1.66952e-05
-0.00132101
0.000150393
0.00116337
-0.00129103
0.0011388
0.000146727
-0.00132523
0.00126002
5.75287e-05
7.27856e-05
-0.000790518
0.000255803
-5.77926e-05
-0.000571066
0.000417066
0.000107912
0.00119989
3.7694e-05
-0.00125331
1.52043e-05
-0.000851501
-0.000182815
-0.000554615
0.000710008
0.00120034
0.000349486
0.000499674
-0.00117243
0.00119877
-4.65445e-05
-0.000245065
0.000223912
1.40135e-05
-0.000925269
0.0012154
-0.00088478
0.000950833
0.0015424
-0.000927019
-0.00111023
0.00121608
0.00164666
-0.00086171
-0.000790002
0.000740257
-0.000853768
-0.00129352
0.000219841
0.00106601
0.000307024
0.00121745
-0.00117195
8.39783e-05
0.00106888
-1.74564e-05
-2.42754e-06
0.00112736
-0.000212371
-0.00121826
-7.47774e-05
-8.32056e-05
-9.11728e-05
0.000166858
0.000172932
0.00109451
-0.000646611
-0.000584614
-0.00118311
8.89271e-05
0.00106712
-0.00126792
3.912e-05
0.00122388
0.000243746
0.00128223
-0.000107812
0.000117665
-0.000363394
-0.000142039
0.000444758
-4.9986e-05
-0.000402191
-6.00489e-05
0.000557178
-0.000767792
-0.00108419
0.00115571
-7.52346e-05
0.000229863
-4.79285e-05
0.000361478
-0.00036298
-1.21797e-05
0.000743387
0.000899265
-9.16405e-06
2.66482e-07
-0.00012844
-0.00111521
0.00124148
-0.00122709
0.000388334
-0.000307064
0.000111189
0.000184009
-0.000724863
0.000691212
2.31373e-05
0.000610522
0.000620816
-0.00138469
0.000178083
0.00120157
0.000876544
-4.29323e-05
-4.33714e-05
6.77218e-05
8.11087e-05
-0.00017152
-7.71083e-05
-6.55521e-06
7.82955e-05
-0.000171513
-1.01009e-06
0.00016893
-0.000582458
0.000101562
0.000471905
0.00129799
-0.00136378
0.000150079
0.0012104
-0.00113296
0.001163
-5.72714e-05
-4.79951e-06
1.82494e-06
2.26301e-06
0.0011364
-0.00105211
-8.5118e-05
0.00102344
-0.00115662
-0.000430614
-1.38833e-05
-1.51727e-05
-0.000313133
0.00025392
2.61045e-05
0.000118624
0.0010167
0.000838654
6.11379e-05
6.14069e-05
0.000376729
-0.000703369
0.000778079
0.00107609
-0.00050346
-0.000599399
0.000143375
-0.00119363
0.00104683
-0.000277804
0.000108837
0.000161667
-0.000122255
-0.000195329
0.000796529
-0.00136955
-0.000980201
0.000272048
-0.00124885
0.00128802
-5.75624e-05
-6.40819e-05
8.74304e-05
-4.88511e-05
-7.1896e-05
-0.00114802
-4.9606e-05
0.00118638
0.00112097
-0.0012348
0.000109532
-0.000748494
6.87077e-05
0.000648002
0.000427928
-4.44979e-05
-0.000390035
0.000102298
-9.8836e-05
-0.00112217
-0.000178037
-0.00139778
-0.000133101
0.000233052
8.92074e-05
0.000667913
4.16941e-05
0.000832544
9.17875e-05
-9.40858e-05
-0.00123038
0.0011181
-0.000157773
-0.000192206
3.2589e-05
0.000290642
-0.000241341
0.000257915
-0.000241947
9.637e-05
8.56807e-05
1.26329e-05
0.000334161
-0.000764904
0.000661914
1.44638e-05
8.17693e-05
-0.000778496
1.79767e-05
0.000742888
-0.00070839
-8.50159e-05
-0.00115632
1.08786e-07
1.34416e-07
-0.000199919
-5.85455e-05
7.92344e-05
-4.03874e-05
0.00129379
-0.0012083
-9.12903e-05
-0.000202639
-0.000631387
-0.000649088
0.000917228
-0.000290847
7.23254e-05
-9.68264e-05
-0.000933633
0.000261391
-7.62774e-05
0.000441547
-0.000954444
7.06837e-05
0.000350529
-0.000156505
-0.000127836
-0.000625735
0.00136936
0.00014672
0.000236397
0.000750043
-0.000988412
0.00138537
-0.00109898
0.000130693
0.000192195
-0.000245089
-0.000127283
0.00131691
-0.00119552
-0.000257064
-8.66243e-05
-0.00071712
0.00118646
-0.000473791
0.00111001
-0.000875589
0.000278438
-0.000722553
0.000851087
0.000500961
0.000548992
8.17585e-06
-0.00121513
0.000514308
-0.000889957
0.000376354
0.00115623
0.000131675
-0.00068742
0.000758836
0.000346155
-0.000833359
0.000486428
-0.0011382
0.00107915
4.58421e-05
-0.000880037
0.000818857
5.78018e-05
4.2767e-05
-0.000723757
0.000658898
-0.00133152
0.00123139
8.05164e-05
-2.09122e-05
-0.000227741
-1.88792e-05
0.000250802
-0.000212766
0.000870148
-0.000355079
0.00119946
-0.00103761
-1.9351e-05
1.12344e-05
0.000891746
-3.47389e-05
0.00100724
-0.00115138
0.000113376
0.00120024
-0.00133343
6.48484e-06
2.03415e-05
6.78893e-05
0.00114214
-2.78213e-05
-0.000116789
3.12813e-05
0.000826485
-0.000858346
8.56843e-05
0.000758352
0.000585563
0.00054253
-0.000119083
0.00123582
-6.63976e-06
-0.00118501
-3.05576e-06
-2.37293e-06
-1.92597e-05
4.65295e-05
4.53147e-05
-0.000804492
0.000738195
-0.000568039
4.03739e-05
0.000504203
-0.00105696
0.0010893
-3.79574e-05
-6.43994e-05
-0.00120825
0.0013061
5.94252e-05
0.00122945
-4.29785e-05
0.000109962
0.00074896
-0.000777495
0.000747822
8.25189e-06
-4.46515e-05
-0.00117484
-2.59815e-05
-0.0008954
5.71252e-05
-1.17649e-05
0.000651697
-0.000682027
1.42826e-05
0.000129779
-0.000856015
-0.000491244
-0.000726642
-3.37984e-05
3.19619e-06
2.99704e-05
0.000190509
-0.00134685
6.70181e-06
4.0499e-05
-0.000107174
0.00082767
-0.000432885
-0.000394876
-0.000943882
-0.00103567
-0.000107799
0.000554273
-0.00120559
2.64554e-07
-1.99561e-05
1.96899e-05
-0.000592505
0.00115092
-0.000729892
0.000855882
0.000712682
-0.00069272
-5.24099e-05
7.5945e-05
-4.37592e-05
-9.29285e-05
-0.000779049
0.000547761
-0.00011303
-0.000436449
4.32587e-05
0.000643071
-0.00112141
0.000148543
0.000446495
0.00047993
-0.000940987
-8.89164e-06
-7.98636e-07
-0.000690771
0.000771565
7.98225e-05
-0.000978821
0.000884961
7.98798e-05
-0.000852265
-0.000630731
-0.000255383
0.0001405
-0.000159276
1.17141e-05
-0.000673921
0.000763645
-7.21707e-05
7.0423e-05
-1.86681e-06
4.05234e-06
2.74492e-05
-0.000274235
0.000274768
-0.000959377
0.000971876
6.16047e-05
0.000902221
-0.000942303
-0.00088263
0.000127649
0.000733838
0.00074479
-0.000298074
-0.000456899
8.15931e-05
-0.000224706
-0.000211265
-0.000397301
0.000154174
0.00105355
-1.03445e-05
2.05784e-07
9.82127e-06
-0.000962254
0.000819241
0.00119728
-0.00114034
-6.78276e-05
-0.000780599
0.00117564
-0.000132762
0.00117274
-0.000397472
-0.00077899
-0.000981748
0.000849939
9.321e-05
-0.00010678
5.07463e-05
-3.525e-05
-1.54622e-05
-0.000150933
-3.31951e-05
0.000115971
3.19027e-05
-0.000691295
0.000607444
5.43252e-05
-0.000776955
1.05141e-05
0.000750487
-0.000143556
-8.87981e-06
5.26101e-05
2.38564e-06
6.95788e-05
-0.00077098
0.000816332
-0.000382944
0.000245998
0.00112381
-9.14457e-06
-0.000242708
0.00127373
0.000446855
0.000286859
0.000473353
0.00135558
-8.3677e-05
-0.00127674
-0.000792047
-0.000814255
-0.000536483
0.000451996
1.14607e-05
-6.51108e-06
-0.00046653
0.000103184
0.000983088
-0.000637816
-2.39336e-05
0.00111048
0.000119192
-0.0012338
0.000703745
5.42886e-05
-0.000632512
0.00107887
-0.000793633
0.00110133
0.00010952
4.42767e-05
-0.000401802
0.00102497
-0.00063906
-0.000845757
0.00129385
-0.00045411
-0.000140899
0.000152984
-1.5169e-05
0.000401384
-0.000330964
-7.28322e-05
-0.00111019
4.02725e-05
0.00106769
-9.01393e-06
-8.78106e-09
-0.000158809
5.79902e-06
0.000150173
4.59173e-05
-0.000259339
-0.0010948
0.00117127
-3.08898e-05
-2.43123e-05
0.00127066
-0.000997582
-0.00115557
0.0010499
9.2993e-05
6.02563e-05
0.000403759
-0.00112573
-0.000854943
5.78504e-05
0.000774567
0.000112778
0.00086933
-0.000161201
-0.00113578
3.20988e-05
-8.73577e-05
0.000491418
-0.00037695
1.5537e-06
0.000220917
-0.000226915
-1.37673e-05
-0.000765621
0.000762883
0.000923268
-7.79094e-05
-0.000859252
0.000166663
0.00117608
-5.37475e-06
-0.000816074
-0.00135618
3.74876e-05
0.00151249
-0.000956736
0.00133352
-0.000139365
-0.00119787
8.57296e-05
0.000822969
0.00128254
-0.000149162
-8.33925e-05
8.72426e-05
-6.16692e-06
5.63551e-06
-0.00115711
0.000200931
0.00114888
-0.00014842
-0.000153394
-0.000774107
1.35805e-05
0.000743257
0.00101924
0.000110554
-0.00114023
0.000317041
-0.000625665
0.000161758
-0.000348994
0.000132411
0.0012641
-3.66188e-05
-0.00123454
-0.00149063
0.00100905
-0.000143931
8.10431e-05
0.00125405
-0.000182495
-0.00108818
-1.03936e-05
9.53076e-06
0.000113283
6.52938e-06
-0.000747565
0.000637481
-0.000727973
5.71358e-05
-8.80394e-05
-3.23765e-05
-1.79483e-06
0.000345353
-0.000320187
-2.97064e-05
0.00136904
-0.000240175
-0.00114126
0.000264689
-0.000229143
-3.85919e-05
-1.03936e-05
-0.00105189
-0.000586592
6.45145e-05
0.000514553
0.00124444
-0.000138146
3.26257e-05
0.000601524
0.000808115
-8.71694e-06
-0.000814675
5.14249e-06
0.000345895
-0.00123382
2.9865e-05
-2.96021e-05
0.00134044
2.58247e-05
0.000171352
0.000154396
0.00124455
-0.00140458
0.000211638
4.31029e-05
0.000848294
-0.00101473
0.000921464
7.98842e-05
0.00108619
0.00100174
4.63625e-05
0.000925769
0.000205263
-0.000208016
-1.08261e-05
-2.8496e-07
3.24345e-06
-0.000164817
-0.00108133
0.00104519
3.08488e-05
0.000132753
-0.00132406
0.00118547
0.00110992
-0.000854896
1.80658e-05
-0.000266161
0.000874484
-0.000613964
8.28425e-05
0.000405801
-0.000689004
0.000760621
-0.000745021
-4.56547e-05
0.000923758
-0.000445928
0.00114331
-0.00127384
0.00136206
-0.000173683
-0.00119459
0.00015036
0.000320425
-0.00117157
0.000761207
-0.000740522
0.000210819
-0.000849937
0.00117349
0.000230298
3.15305e-05
-3.5717e-07
-0.000135613
9.33188e-05
-0.00143975
0.000765618
0.000664501
5.11873e-06
-1.03553e-05
4.4112e-06
-0.00134346
-0.000698376
-0.000115349
0.000779104
-0.000114071
0.00127902
-0.00116783
-0.0011532
0.000758807
-8.37088e-06
-7.67705e-07
-0.000986839
-6.54556e-05
-0.00114756
0.00103808
8.83421e-05
-0.00123732
0.00104057
0.000192001
-5.54005e-05
7.77666e-05
0.000321276
-5.74512e-06
-4.1321e-06
8.11274e-06
9.92808e-05
-0.00121948
-0.00105801
-0.000122971
0.00116575
5.41295e-05
-0.000868471
-5.86658e-05
0.00103501
9.1749e-05
-3.83526e-05
-0.00055407
-4.15856e-05
0.0010453
-0.00100442
-0.000904748
0.00108526
-0.00120596
-0.000688432
-6.10192e-05
-0.000536211
0.000487191
2.44949e-05
-0.000807595
0.000919468
-4.4507e-05
2.9445e-06
-0.000146171
-0.000138527
-0.00104132
-8.38764e-06
9.76509e-05
0.00084697
-0.000807302
8.05639e-05
-0.000262493
-6.34563e-05
0.00131673
-0.000154855
-0.00116979
-0.000752443
0.000115123
0.00121424
3.72362e-06
-5.19463e-05
3.77573e-05
-0.000132743
-0.000742675
6.35535e-05
-5.41611e-06
-6.29948e-05
-0.000174611
-0.000204006
0.00133826
-0.00122734
-0.000378637
0.000286848
-0.000938421
0.00133716
-0.000402659
0.00109677
0.00121949
3.46696e-05
-0.00125914
-0.000153671
0.00114157
0.00115449
0.000154003
-3.28773e-05
-0.001333
0.000580841
7.5138e-05
0.000699805
-0.000119004
-0.000692811
0.00122432
-0.00108083
0.000891488
-0.000812316
0.00102305
-0.00106534
0.00139897
-0.000697639
-1.32251e-05
-4.07183e-06
1.2554e-05
0.000581363
-0.000431797
-0.000165739
-1.18094e-06
-8.36409e-05
-0.00134516
1.93587e-06
0.000199131
-0.000839986
0.00078673
4.90341e-05
-0.000950506
0.00107669
5.87919e-06
-8.71136e-05
-0.000998522
0.000103924
0.00089213
0.000218838
0.000854885
2.52257e-05
2.51895e-05
8.84768e-05
6.22752e-05
4.66196e-06
-1.41456e-06
-1.62829e-05
-4.81513e-05
-0.00110355
-0.00111444
4.07774e-05
0.00108228
-2.18172e-05
-0.00106551
0.000260776
2.4673e-06
-0.000270168
0.00108981
-0.000987853
-0.000106146
-5.29079e-05
0.000948486
-0.000901184
0.000764132
-0.00118349
-9.96612e-05
0.000124076
-8.16306e-05
-2.44079e-05
-0.000857462
0.00088143
0.00122644
-0.000135075
-0.00109763
-0.000826156
4.33513e-05
0.000777535
-2.35917e-06
0.000178103
-0.000179622
3.55286e-05
-0.000119145
-0.0010542
0.00118981
4.92012e-05
0.000292073
0.0013271
0.00124755
0.000108464
0.000745651
0.000546713
3.40885e-05
-0.000582151
-0.00134926
0.00022668
-0.00117588
0.00132264
0.00050837
0.000827897
4.55126e-05
0.000841266
-0.000866104
0.00087225
0.000107753
-0.00098213
-5.96208e-05
0.000733254
-0.000671615
0.000114086
0.000845115
-0.000961542
0.00118156
0.00010593
0.00074732
-0.000869122
-0.000163534
-0.00117319
0.00133286
0.001241
-0.00070347
0.00115134
0.000128668
0.000956421
-0.000406199
0.000822644
-0.00041768
-2.96444e-05
-0.000760643
0.000140683
0.00108741
-0.000983652
0.000269207
0.000780817
1.03626e-05
-3.33326e-05
-0.000128341
-0.000756802
0.000726659
-0.000827628
-0.000717544
0.000743089
-1.93764e-06
0.000668009
0.000101661
0.000463114
-0.00110669
-0.00108822
8.07669e-05
0.00100311
0.000556297
-8.98786e-06
-0.000548049
-0.000133843
8.9912e-05
0.00127511
-0.00104388
-0.00134321
0.00125555
-0.00110622
-7.75066e-05
0.000117939
0.00015815
-0.00126603
0.00110283
-0.00085391
0.000801078
4.9246e-05
-0.000803261
5.52243e-05
0.00072379
-3.99564e-05
0.000257921
-0.000228409
0.000120805
-0.0011129
0.00119847
0.000112022
-1.41487e-05
-0.000728196
-0.000873155
0.000938961
0.000844732
-0.000754748
3.62905e-06
7.76427e-06
0.000566057
-0.000258181
9.86915e-05
-0.00106168
0.000428428
0.000716116
-0.00114902
0.00119725
0.00132666
-0.000179886
-0.000234475
2.54452e-05
0.000203625
-0.000146914
-0.000723741
-0.000725361
0.000340208
-0.000811501
3.37497e-05
0.000996911
-0.0012357
0.00118572
3.63483e-05
-0.00102303
6.06261e-05
0.000956629
0.000245078
2.62149e-05
-0.000100854
0.000106398
-8.01893e-06
0.00122937
-3.88491e-05
-0.000783842
-4.28851e-05
0.00048869
-8.5912e-05
-0.000411371
-0.00111545
0.0012818
-0.000168612
7.85495e-05
-0.0011537
0.00107014
0.000650897
-5.00468e-05
0.00132238
-8.13237e-05
0.000314464
0.00105908
-2.8046e-05
0.000243196
-0.00022029
0.0011208
8.87795e-05
-0.00121903
-0.00102636
-6.56395e-05
0.000270258
-2.77625e-05
9.02682e-05
0.000571154
-0.000447346
0.000441717
-6.58723e-06
-0.00073309
-0.000371818
9.15683e-06
-4.98386e-06
-0.000577759
9.64317e-06
0.000550241
0.00080905
-4.8961e-05
-0.000764997
-0.000823141
0.000894445
0.00114296
0.000260635
1.40102e-06
-0.00027213
1.65654e-05
-0.000477703
0.00027787
-0.000208109
-7.67627e-05
0.00015593
0.00116359
-0.000965136
-0.000190951
0.000184748
0.00098992
7.08204e-05
-0.000561484
-0.00119962
0.000124584
0.000102967
0.00117351
0.000833655
0.00120866
0.000107227
-8.65013e-05
0.000109611
-7.78056e-05
0.000315503
-0.00125789
0.000470707
-0.000573227
0.000101148
-0.000910692
-0.00101661
0.000922275
9.33252e-05
-0.00120695
0.000761113
0.00119395
-0.000778166
1.28363e-05
0.00108457
0.000133171
-4.88117e-07
-0.00010996
-5.34624e-05
-0.000668951
-0.000109609
-0.00131614
0.00149914
-0.000951231
-0.000294592
-4.00489e-05
0.000334697
-0.00074672
-3.5215e-05
0.000265906
-0.000234139
-0.00132231
0.000124455
0.00119047
-7.88641e-05
0.000548753
0.000138828
5.0215e-05
0.000753791
0.0002016
6.18408e-06
-0.000221382
-0.00083245
0.0011377
9.87326e-05
7.95068e-06
0.000135735
-0.000183905
-0.00119432
0.00105201
0.000130191
-6.16474e-05
0.000879844
4.24606e-05
-0.000337428
0.000131807
-0.00107967
-7.59846e-06
-0.000536794
9.41084e-05
0.000430111
0.000995024
0.000401379
-0.000111574
3.62291e-05
0.00122999
2.25623e-05
-0.000691163
0.000708273
-2.63164e-05
3.84518e-05
8.85338e-05
-0.000123748
0.000126215
-4.57326e-06
-0.000128131
0.000100462
0.000973616
-0.00107571
-0.000847193
3.58603e-05
0.000810233
0.000498625
-0.00040509
0.000430956
-5.76025e-05
-0.00100354
-7.01646e-05
-0.000823192
0.000880043
0.000505118
5.31391e-05
0.00108803
-1.683e-05
-0.00032838
-0.000545752