/*--------------------------------*- C++ -*----------------------------------*\
| =========                 |                                                 |
| \\      /  F ield         | OpenFOAM: The Open Source CFD Toolbox           |
|  \\    /   O peration     | Version:  v2012                                 |
|   \\  /    A nd           | Website:  www.openfoam.com                      |
|    \\/     M anipulation  |                                                 |
\*---------------------------------------------------------------------------*/
FoamFile
{
    version     2.0;
    format      ascii;
    class       volVectorField;
    location    "50";
    object      cellDisplacement;
}
// * * * * * * * * * * * * * * * * * * * * * * * * * * * * * * * * * * * * * //

dimensions      [0 1 0 0 0 0 0];


internalField   nonuniform List<vector> 
18758
(
(0 -0.000443884 0)
(0 -0.000348572 0)
(0 -2.7883e-05 0)
(0 -0.000442429 0)
(0 -0.00036959 0)
(0 -6.22315e-06 0)
(0 -0.000119603 0)
(0 -0.00011757 0)
(0 -0.000365276 0)
(0 -0.00035545 0)
(0 -0.000334774 0)
(0 -0.000556271 0)
(0 -0.000374224 0)
(0 -8.04699e-05 0)
(0 -0.000120918 0)
(0 -6.60523e-05 0)
(0 -0.00055456 0)
(0 -1.96938e-06 0)
(0 -0.000117356 0)
(0 -0.000189606 0)
(0 -0.000556966 0)
(0 -4.31537e-06 0)
(0 -5.49359e-06 0)
(0 -1.42647e-05 0)
(0 -4.11069e-06 0)
(0 -1.63954e-05 0)
(0 -0.000404646 0)
(0 -7.42642e-05 0)
(0 -3.17571e-05 0)
(0 -0.000358312 0)
(0 -0.000173292 0)
(0 -0.000399835 0)
(0 -0.000118845 0)
(0 -5.54698e-06 0)
(0 -0.000379838 0)
(0 -0.000353804 0)
(0 -0.000369272 0)
(0 -0.000375867 0)
(0 -0.000312165 0)
(0 -2.3123e-05 0)
(0 -0.000335756 0)
(0 -0.000344526 0)
(0 -0.000312309 0)
(0 -0.000451285 0)
(0 -3.34936e-05 0)
(0 -0.000175289 0)
(0 -0.000340988 0)
(0 -3.62211e-05 0)
(0 -2.30878e-06 0)
(0 -0.000432753 0)
(0 -0.000333352 0)
(0 -1.96501e-05 0)
(0 -0.000431084 0)
(0 -0.000265783 0)
(0 -9.44239e-06 0)
(0 -0.000374277 0)
(0 -0.000316812 0)
(0 -0.000191485 0)
(0 -3.95807e-05 0)
(0 -0.000311202 0)
(0 -3.26237e-05 0)
(0 -0.000448071 0)
(0 -0.000268591 0)
(0 -7.96164e-05 0)
(0 -2.91827e-05 0)
(0 -2.93824e-06 0)
(0 -4.84366e-05 0)
(0 -0.000114591 0)
(0 -7.70582e-05 0)
(0 -3.96504e-06 0)
(0 -1.99708e-05 0)
(0 -1.66258e-05 0)
(0 -0.000172923 0)
(0 -0.000163512 0)
(0 -0.000162168 0)
(0 -0.000168786 0)
(0 -0.000232821 0)
(0 -0.000551001 0)
(0 -0.000359455 0)
(0 -0.000306726 0)
(0 -1.76557e-05 0)
(0 -0.000315045 0)
(0 -0.000551464 0)
(0 -0.000155869 0)
(0 -0.00047277 0)
(0 -1.07139e-05 0)
(0 -4.74448e-05 0)
(0 -0.000164652 0)
(0 -0.000268568 0)
(0 -1.05427e-05 0)
(0 -1.8155e-05 0)
(0 -1.64535e-05 0)
(0 -1.99012e-05 0)
(0 -2.18563e-06 0)
(0 -0.00016946 0)
(0 -0.000176975 0)
(0 -1.59014e-05 0)
(0 -3.67039e-05 0)
(0 -0.000551478 0)
(0 -0.00023982 0)
(0 -0.000170599 0)
(0 -0.000200938 0)
(0 -0.000111591 0)
(0 -0.000172905 0)
(0 -3.27719e-06 0)
(0 -0.000557229 0)
(0 -3.43903e-05 0)
(0 -1.78205e-05 0)
(0 -0.000242124 0)
(0 -0.000500225 0)
(0 -5.79425e-05 0)
(0 -7.8597e-05 0)
(0 -0.000481197 0)
(0 -4.10046e-05 0)
(0 -0.000204928 0)
(0 -6.89481e-05 0)
(0 -3.85603e-05 0)
(0 -0.000279858 0)
(0 -6.38641e-05 0)
(0 -0.000483229 0)
(0 -5.23272e-05 0)
(0 -0.000235049 0)
(0 -0.000474791 0)
(0 -0.000319625 0)
(0 -1.69588e-06 0)
(0 -0.000261231 0)
(0 -0.000436529 0)
(0 -0.000317149 0)
(0 -2.54452e-05 0)
(0 -2.64696e-07 0)
(0 -3.75089e-05 0)
(0 -2.71983e-05 0)
(0 -9.70582e-05 0)
(0 -5.77203e-06 0)
(0 -1.96742e-05 0)
(0 -5.1619e-05 0)
(0 -0.000227874 0)
(0 -0.000474522 0)
(0 -5.20408e-05 0)
(0 -1.88062e-05 0)
(0 -0.000485736 0)
(0 -0.000480845 0)
(0 -3.61144e-05 0)
(0 -0.000241056 0)
(0 -1.49726e-06 0)
(0 -2.43113e-05 0)
(0 -3.33896e-06 0)
(0 -2.56542e-05 0)
(0 -0.000339934 0)
(0 -4.3123e-05 0)
(0 -3.05996e-07 0)
(0 -4.6312e-07 0)
(0 -8.24117e-05 0)
(0 -0.000388608 0)
(0 -0.000331211 0)
(0 -0.00012465 0)
(0 -2.09768e-05 0)
(0 -2.44454e-05 0)
(0 -0.000168467 0)
(0 -0.000343547 0)
(0 -3.56792e-05 0)
(0 -0.000360391 0)
(0 -1.00275e-06 0)
(0 -3.68326e-06 0)
(0 -0.000178947 0)
(0 -0.000302358 0)
(0 -0.00035456 0)
(0 -3.27768e-05 0)
(0 -3.30158e-07 0)
(0 -0.000558508 0)
(0 -4.93913e-07 0)
(0 -1.92846e-05 0)
(0 -3.14744e-05 0)
(0 -3.84048e-06 0)
(0 -0.000248353 0)
(0 -0.000299191 0)
(0 -0.000163133 0)
(0 -1.49686e-05 0)
(0 -6.12056e-06 0)
(0 -6.83002e-05 0)
(0 -8.64042e-05 0)
(0 -0.000247122 0)
(0 -1.0233e-05 0)
(0 -6.19486e-05 0)
(0 -4.48696e-05 0)
(0 -5.99737e-05 0)
(0 -0.000361947 0)
(0 -0.000256676 0)
(0 -2.29842e-06 0)
(0 -0.000177478 0)
(0 -3.78613e-07 0)
(0 -6.0036e-05 0)
(0 -7.66961e-05 0)
(0 -0.000216658 0)
(0 -5.25789e-05 0)
(0 -6.55643e-05 0)
(0 -5.26629e-05 0)
(0 -8.20397e-05 0)
(0 -2.56315e-06 0)
(0 -2.20356e-05 0)
(0 -0.000396916 0)
(0 -2.43979e-05 0)
(0 -0.000178011 0)
(0 -5.04794e-05 0)
(0 -6.23826e-05 0)
(0 -1.20343e-06 0)
(0 -0.000406549 0)
(0 -0.000385075 0)
(0 -2.39945e-07 0)
(0 -1.75749e-07 0)
(0 -1.59825e-05 0)
(0 -2.16544e-05 0)
(0 -0.00040284 0)
(0 -0.00043999 0)
(0 -0.000194033 0)
(0 -1.85722e-05 0)
(0 -1.08946e-05 0)
(0 -2.18987e-05 0)
(0 -8.12376e-06 0)
(0 -0.00034432 0)
(0 -0.000218299 0)
(0 -0.000384425 0)
(0 -3.7784e-05 0)
(0 -2.53179e-05 0)
(0 -0.000175476 0)
(0 -3.69727e-05 0)
(0 -0.000165581 0)
(0 -8.71431e-06 0)
(0 -3.4007e-05 0)
(0 -0.000400663 0)
(0 -1.74102e-05 0)
(0 -2.55335e-05 0)
(0 -0.000248704 0)
(0 -4.3353e-05 0)
(0 -0.000108005 0)
(0 -0.000391215 0)
(0 -0.000135062 0)
(0 -2.17428e-06 0)
(0 -5.34049e-05 0)
(0 -0.000127151 0)
(0 -6.60524e-05 0)
(0 -0.00013639 0)
(0 -5.17876e-05 0)
(0 -2.20245e-05 0)
(0 -4.2771e-05 0)
(0 -3.45307e-05 0)
(0 -0.000100259 0)
(0 -0.000204172 0)
(0 -0.000321924 0)
(0 -0.000246121 0)
(0 -6.0243e-07 0)
(0 -0.000447761 0)
(0 -1.85771e-05 0)
(0 -0.000393906 0)
(0 -2.48765e-06 0)
(0 -4.85849e-05 0)
(0 -0.00030525 0)
(0 -1.67229e-05 0)
(0 -1.15421e-05 0)
(0 -0.00035305 0)
(0 -0.00047861 0)
(0 -0.000328925 0)
(0 -0.000101228 0)
(0 -7.83251e-05 0)
(0 -0.000124503 0)
(0 -0.000128101 0)
(0 -0.000335148 0)
(0 -5.03875e-05 0)
(0 -8.11207e-05 0)
(0 -0.000292827 0)
(0 -6.93715e-05 0)
(0 -1.28027e-05 0)
(0 -0.000287556 0)
(0 -0.000390702 0)
(0 -4.37976e-05 0)
(0 -0.00019481 0)
(0 -8.2242e-05 0)
(0 -8.69971e-06 0)
(0 -0.000443433 0)
(0 -8.2431e-05 0)
(0 -0.000194796 0)
(0 -2.60932e-05 0)
(0 -5.08313e-05 0)
(0 -4.12777e-06 0)
(0 -0.00011745 0)
(0 -0.000384425 0)
(0 -6.5346e-06 0)
(0 -5.01678e-05 0)
(0 -0.000188558 0)
(0 -0.000179111 0)
(0 -1.58513e-05 0)
(0 -7.33643e-05 0)
(0 -0.000316946 0)
(0 -3.2053e-05 0)
(0 -1.91968e-05 0)
(0 -0.00033389 0)
(0 -4.04203e-05 0)
(0 -1.11351e-05 0)
(0 -1.19792e-05 0)
(0 -2.43679e-06 0)
(0 -6.22721e-05 0)
(0 -4.83965e-05 0)
(0 -5.06676e-05 0)
(0 -0.000292143 0)
(0 -0.000302321 0)
(0 -8.41329e-05 0)
(0 -0.00052209 0)
(0 -0.000558399 0)
(0 -0.00045107 0)
(0 -0.000379886 0)
(0 -5.12249e-05 0)
(0 -0.000131831 0)
(0 -5.08353e-05 0)
(0 -5.37285e-05 0)
(0 -3.07467e-05 0)
(0 -5.07003e-06 0)
(0 -0.000103071 0)
(0 -0.000283134 0)
(0 -2.54674e-05 0)
(0 -4.84974e-05 0)
(0 -5.51661e-05 0)
(0 -0.000164542 0)
(0 -4.56581e-05 0)
(0 -0.000153434 0)
(0 -0.000105995 0)
(0 -1.93851e-07 0)
(0 -1.62727e-05 0)
(0 -0.000318809 0)
(0 -1.81598e-06 0)
(0 -0.000134447 0)
(0 -0.000497617 0)
(0 -6.39647e-06 0)
(0 -0.000146152 0)
(0 -0.000307135 0)
(0 -1.24372e-05 0)
(0 -4.59123e-05 0)
(0 -0.000227498 0)
(0 -0.000400168 0)
(0 -0.000114496 0)
(0 -0.000413471 0)
(0 -0.000223805 0)
(0 -0.000121309 0)
(0 -0.000100645 0)
(0 -0.000291809 0)
(0 -0.000472779 0)
(0 -0.000287846 0)
(0 -0.000549527 0)
(0 -0.000310256 0)
(0 -4.30507e-05 0)
(0 -0.000300519 0)
(0 -3.26948e-06 0)
(0 -0.000474453 0)
(0 -6.48275e-05 0)
(0 -5.62337e-05 0)
(0 -1.34376e-06 0)
(0 -0.000343116 0)
(0 -0.000280091 0)
(0 -0.000120152 0)
(0 -0.000499077 0)
(0 -0.000435951 0)
(0 -0.000447672 0)
(0 -5.16165e-05 0)
(0 -0.000221018 0)
(0 -0.000467816 0)
(0 -0.000168445 0)
(0 -0.000218586 0)
(0 -0.000108355 0)
(0 -5.62943e-05 0)
(0 -0.000245688 0)
(0 -3.93227e-05 0)
(0 -2.05682e-06 0)
(0 -6.65055e-05 0)
(0 -0.000254973 0)
(0 -0.000107408 0)
(0 -0.000338116 0)
(0 -6.65955e-05 0)
(0 -1.73089e-06 0)
(0 -2.90364e-06 0)
(0 -2.47186e-05 0)
(0 -0.00031878 0)
(0 -0.000464201 0)
(0 -6.03213e-05 0)
(0 -1.36425e-05 0)
(0 -3.98503e-06 0)
(0 -0.00047074 0)
(0 -0.00053105 0)
(0 -7.09493e-05 0)
(0 -1.60621e-06 0)
(0 -0.000124622 0)
(0 -0.000557075 0)
(0 -0.000503207 0)
(0 -6.51417e-05 0)
(0 -8.76572e-05 0)
(0 -0.000208342 0)
(0 -0.000460642 0)
(0 -5.03164e-05 0)
(0 -0.000434626 0)
(0 -6.43073e-05 0)
(0 -1.86101e-05 0)
(0 -2.39068e-05 0)
(0 -0.000312863 0)
(0 -0.000116801 0)
(0 -0.000326541 0)
(0 -4.35467e-05 0)
(0 -0.000191798 0)
(0 -0.000190536 0)
(0 -1.48463e-06 0)
(0 -0.000329189 0)
(0 -2.98053e-05 0)
(0 -0.000328348 0)
(0 -1.1688e-05 0)
(0 -0.000315507 0)
(0 -8.96311e-05 0)
(0 -0.000132882 0)
(0 -0.000238393 0)
(0 -4.1313e-05 0)
(0 -0.000507225 0)
(0 -0.000310029 0)
(0 -0.00010265 0)
(0 -3.37895e-05 0)
(0 -6.20485e-05 0)
(0 -6.96949e-05 0)
(0 -2.85393e-06 0)
(0 -0.000128274 0)
(0 -0.000477081 0)
(0 -2.03331e-05 0)
(0 -6.32762e-06 0)
(0 -1.91894e-05 0)
(0 -7.86258e-06 0)
(0 -0.000457482 0)
(0 -1.40787e-05 0)
(0 -0.00025487 0)
(0 -1.56835e-05 0)
(0 -3.35365e-05 0)
(0 -0.000174121 0)
(0 -4.20385e-05 0)
(0 -0.000129941 0)
(0 -0.000159948 0)
(0 -0.000127515 0)
(0 -0.000118888 0)
(0 -7.50255e-05 0)
(0 -0.000293278 0)
(0 -2.145e-06 0)
(0 -2.7696e-06 0)
(0 -6.72678e-05 0)
(0 -0.000403979 0)
(0 -8.97532e-06 0)
(0 -1.25221e-05 0)
(0 -0.000178106 0)
(0 -2.27712e-06 0)
(0 -0.000120394 0)
(0 -2.63406e-05 0)
(0 -6.74607e-05 0)
(0 -0.000339536 0)
(0 -6.29142e-05 0)
(0 -2.04867e-06 0)
(0 -0.000307842 0)
(0 -6.65456e-06 0)
(0 -5.79064e-05 0)
(0 -0.000393305 0)
(0 -5.53013e-05 0)
(0 -4.03859e-05 0)
(0 -3.92134e-06 0)
(0 -0.00012419 0)
(0 -1.73193e-05 0)
(0 -9.12228e-05 0)
(0 -5.93957e-05 0)
(0 -0.000220356 0)
(0 -1.56378e-05 0)
(0 -0.000384669 0)
(0 -3.66591e-05 0)
(0 -0.000381401 0)
(0 -0.000263984 0)
(0 -3.07485e-05 0)
(0 -0.000133117 0)
(0 -0.000140027 0)
(0 -0.000122223 0)
(0 -0.000346674 0)
(0 -0.000525306 0)
(0 -0.000487751 0)
(0 -5.54845e-05 0)
(0 -0.000123897 0)
(0 -0.000211796 0)
(0 -1.03807e-05 0)
(0 -0.000208631 0)
(0 -4.82598e-06 0)
(0 -0.000399561 0)
(0 -2.84641e-05 0)
(0 -5.47961e-05 0)
(0 -1.80866e-05 0)
(0 -2.84481e-05 0)
(0 -2.489e-05 0)
(0 -3.19585e-05 0)
(0 -0.000391292 0)
(0 -0.000522583 0)
(0 -0.000558042 0)
(0 -0.000407525 0)
(0 -0.000328 0)
(0 -1.36096e-06 0)
(0 -4.55287e-05 0)
(0 -1.59751e-05 0)
(0 -1.51886e-05 0)
(0 -0.00010373 0)
(0 -1.45052e-05 0)
(0 -5.65633e-05 0)
(0 -1.63723e-05 0)
(0 -5.78289e-06 0)
(0 -0.000421024 0)
(0 -0.000312843 0)
(0 -0.000304004 0)
(0 -3.7252e-06 0)
(0 -5.2107e-06 0)
(0 -1.27792e-06 0)
(0 -3.99967e-05 0)
(0 -0.000189001 0)
(0 -1.91176e-05 0)
(0 -0.000417613 0)
(0 -0.000460336 0)
(0 -6.12046e-05 0)
(0 -0.000214631 0)
(0 -0.000290069 0)
(0 -1.07376e-05 0)
(0 -6.87972e-06 0)
(0 -0.000398967 0)
(0 -2.69905e-05 0)
(0 -0.000543465 0)
(0 -7.33839e-05 0)
(0 -0.000509837 0)
(0 -0.000224977 0)
(0 -5.28243e-06 0)
(0 -7.55853e-05 0)
(0 -2.0487e-05 0)
(0 -6.80544e-05 0)
(0 -0.000232089 0)
(0 -0.000290718 0)
(0 -0.000235485 0)
(0 -0.000174706 0)
(0 -0.000112354 0)
(0 -0.000143217 0)
(0 -0.000398551 0)
(0 -0.000307179 0)
(0 -0.000327635 0)
(0 -9.56788e-05 0)
(0 -9.45792e-05 0)
(0 -4.89881e-06 0)
(0 -4.27789e-05 0)
(0 -0.000184166 0)
(0 -0.000392626 0)
(0 -7.4574e-05 0)
(0 -3.10028e-05 0)
(0 -7.41902e-05 0)
(0 -1.64082e-05 0)
(0 -3.74506e-06 0)
(0 -5.759e-05 0)
(0 -0.000376334 0)
(0 -0.000392439 0)
(0 -0.00020638 0)
(0 -6.12634e-05 0)
(0 -4.04266e-05 0)
(0 -0.000229034 0)
(0 -2.23269e-05 0)
(0 -0.000110328 0)
(0 -1.46393e-05 0)
(0 -0.000486754 0)
(0 -0.000439011 0)
(0 -0.000270306 0)
(0 -1.80575e-05 0)
(0 -0.000135882 0)
(0 -0.000480366 0)
(0 -0.000499809 0)
(0 -0.000313513 0)
(0 -7.10165e-05 0)
(0 -0.000492301 0)
(0 -0.000272276 0)
(0 -4.16461e-05 0)
(0 -0.000440697 0)
(0 -1.87701e-05 0)
(0 -2.57157e-05 0)
(0 -7.83399e-06 0)
(0 -7.16769e-06 0)
(0 -0.000499901 0)
(0 -3.01291e-05 0)
(0 -6.60667e-05 0)
(0 -0.000172797 0)
(0 -4.58225e-05 0)
(0 -7.15618e-05 0)
(0 -2.57245e-06 0)
(0 -0.000275573 0)
(0 -0.000409193 0)
(0 -0.000288905 0)
(0 -3.4533e-05 0)
(0 -2.56857e-05 0)
(0 -0.000156806 0)
(0 -0.000133925 0)
(0 -0.000236331 0)
(0 -0.000293631 0)
(0 -0.000346657 0)
(0 -0.000495171 0)
(0 -0.000379058 0)
(0 -0.000227129 0)
(0 -2.53534e-06 0)
(0 -4.4954e-05 0)
(0 -1.49629e-05 0)
(0 -0.000209178 0)
(0 -0.000421238 0)
(0 -0.000176046 0)
(0 -0.000101509 0)
(0 -0.000410232 0)
(0 -6.36768e-05 0)
(0 -0.00048085 0)
(0 -9.42668e-05 0)
(0 -0.000304843 0)
(0 -7.25643e-05 0)
(0 -0.000525533 0)
(0 -6.535e-05 0)
(0 -1.94104e-06 0)
(0 -9.50817e-05 0)
(0 -0.00050859 0)
(0 -0.000304836 0)
(0 -0.000418687 0)
(0 -4.41591e-05 0)
(0 -3.67369e-05 0)
(0 -0.000312556 0)
(0 -7.59427e-05 0)
(0 -0.000283484 0)
(0 -9.34369e-05 0)
(0 -0.000290464 0)
(0 -1.46145e-05 0)
(0 -0.00049861 0)
(0 -0.000509864 0)
(0 -0.000389679 0)
(0 -0.000215747 0)
(0 -0.000176093 0)
(0 -0.00051294 0)
(0 -3.50884e-06 0)
(0 -2.88499e-05 0)
(0 -4.01714e-05 0)
(0 -4.22202e-07 0)
(0 -4.4525e-06 0)
(0 -1.00924e-05 0)
(0 -4.23997e-06 0)
(0 -0.000159604 0)
(0 -0.00039069 0)
(0 -4.24478e-05 0)
(0 -0.000294901 0)
(0 -0.000276788 0)
(0 -1.90413e-05 0)
(0 -4.67926e-05 0)
(0 -6.64672e-06 0)
(0 -9.23179e-05 0)
(0 -0.000457449 0)
(0 -0.000195592 0)
(0 -0.000457606 0)
(0 -0.000288524 0)
(0 -2.70221e-05 0)
(0 -0.000533366 0)
(0 -0.000441812 0)
(0 -0.000382915 0)
(0 -6.47366e-05 0)
(0 -1.88575e-05 0)
(0 -6.59626e-05 0)
(0 -0.00054227 0)
(0 -0.000282794 0)
(0 -0.000232193 0)
(0 -0.000469057 0)
(0 -0.00044589 0)
(0 -0.000227825 0)
(0 -7.61949e-06 0)
(0 -7.92431e-06 0)
(0 -0.000122823 0)
(0 -0.00013532 0)
(0 -0.000398067 0)
(0 -7.37419e-05 0)
(0 -2.67914e-06 0)
(0 -1.75811e-06 0)
(0 -0.000280623 0)
(0 -0.000400293 0)
(0 -0.000559233 0)
(0 -6.70319e-05 0)
(0 -0.000200927 0)
(0 -0.000266734 0)
(0 -6.68278e-05 0)
(0 -8.3661e-05 0)
(0 -0.000548255 0)
(0 -2.03135e-05 0)
(0 -4.07665e-05 0)
(0 -3.07618e-05 0)
(0 -5.76759e-05 0)
(0 -6.82794e-05 0)
(0 -0.000234869 0)
(0 -0.00040426 0)
(0 -0.000180347 0)
(0 -0.000205221 0)
(0 -5.54147e-05 0)
(0 -0.00011671 0)
(0 -0.000334543 0)
(0 -0.000261233 0)
(0 -0.000152444 0)
(0 -0.000399992 0)
(0 -6.80784e-05 0)
(0 -0.00038858 0)
(0 -0.000297227 0)
(0 -5.0401e-05 0)
(0 -5.8762e-05 0)
(0 -1.89684e-05 0)
(0 -5.59316e-05 0)
(0 -0.00029217 0)
(0 -4.50929e-05 0)
(0 -0.00017136 0)
(0 -0.000441435 0)
(0 -0.000453583 0)
(0 -1.90878e-05 0)
(0 -1.52477e-05 0)
(0 -5.18675e-05 0)
(0 -0.0002776 0)
(0 -7.74877e-05 0)
(0 -0.000258346 0)
(0 -0.000393727 0)
(0 -6.00575e-05 0)
(0 -0.000187506 0)
(0 -9.24357e-05 0)
(0 -0.000310474 0)
(0 -4.91693e-05 0)
(0 -3.43511e-05 0)
(0 -6.05741e-05 0)
(0 -2.6427e-05 0)
(0 -2.45118e-05 0)
(0 -6.92197e-05 0)
(0 -1.90039e-05 0)
(0 -2.27895e-05 0)
(0 -0.000493584 0)
(0 -0.000180117 0)
(0 -7.33301e-05 0)
(0 -5.79338e-05 0)
(0 -0.000503963 0)
(0 -0.000322008 0)
(0 -7.93606e-06 0)
(0 -0.000449845 0)
(0 -0.000100584 0)
(0 -0.000266731 0)
(0 -0.000263419 0)
(0 -0.000102126 0)
(0 -1.12192e-05 0)
(0 -0.000460801 0)
(0 -6.14795e-05 0)
(0 -0.000197675 0)
(0 -0.000124159 0)
(0 -0.000292956 0)
(0 -4.99063e-05 0)
(0 -0.000338859 0)
(0 -9.79547e-06 0)
(0 -0.00038532 0)
(0 -0.000283873 0)
(0 -0.000103262 0)
(0 -7.71984e-05 0)
(0 -0.00010525 0)
(0 -0.000518803 0)
(0 -0.000201309 0)
(0 -0.000526827 0)
(0 -0.00010383 0)
(0 -0.00028273 0)
(0 -4.39114e-05 0)
(0 -0.000552204 0)
(0 -6.56958e-05 0)
(0 -3.83335e-05 0)
(0 -0.000287612 0)
(0 -4.15641e-05 0)
(0 -0.00044187 0)
(0 -8.40091e-05 0)
(0 -0.000100502 0)
(0 -6.00234e-05 0)
(0 -0.000274489 0)
(0 -5.87293e-05 0)
(0 -0.000302196 0)
(0 -4.20292e-05 0)
(0 -7.91886e-06 0)
(0 -5.15503e-06 0)
(0 -4.56807e-05 0)
(0 -6.01265e-05 0)
(0 -3.36053e-05 0)
(0 -0.000394748 0)
(0 -4.27237e-05 0)
(0 -9.76819e-06 0)
(0 -0.000311136 0)
(0 -0.000329774 0)
(0 -0.00052901 0)
(0 -0.00019771 0)
(0 -0.000154401 0)
(0 -0.000253064 0)
(0 -0.000159809 0)
(0 -1.46284e-07 0)
(0 -0.000457033 0)
(0 -0.00038132 0)
(0 -7.36764e-05 0)
(0 -0.000144571 0)
(0 -0.000196741 0)
(0 -0.00046018 0)
(0 -0.0001591 0)
(0 -4.20304e-05 0)
(0 -0.000382542 0)
(0 -6.11541e-05 0)
(0 -7.47606e-05 0)
(0 -0.000328383 0)
(0 -0.000233958 0)
(0 -3.35438e-05 0)
(0 -9.08466e-05 0)
(0 -9.67836e-05 0)
(0 -4.60692e-05 0)
(0 -0.00048154 0)
(0 -9.16867e-06 0)
(0 -0.000150607 0)
(0 -0.000251853 0)
(0 -0.000203489 0)
(0 -0.0003813 0)
(0 -8.90053e-05 0)
(0 -6.43329e-05 0)
(0 -4.78298e-05 0)
(0 -0.000115831 0)
(0 -7.70008e-05 0)
(0 -1.51867e-05 0)
(0 -0.0002875 0)
(0 -0.00022969 0)
(0 -0.000234614 0)
(0 -0.000109296 0)
(0 -0.000120692 0)
(0 -7.78477e-05 0)
(0 -1.16252e-05 0)
(0 -0.00044912 0)
(0 -0.000269515 0)
(0 -5.66502e-06 0)
(0 -0.000215496 0)
(0 -0.000505006 0)
(0 -4.23703e-05 0)
(0 -3.32379e-05 0)
(0 -2.81009e-05 0)
(0 -0.000438282 0)
(0 -1.60169e-07 0)
(0 -0.000359765 0)
(0 -0.000194539 0)
(0 -4.02763e-05 0)
(0 -1.95187e-05 0)
(0 -6.68197e-06 0)
(0 -0.000145909 0)
(0 -0.000106966 0)
(0 -5.50987e-05 0)
(0 -0.000363241 0)
(0 -0.000129617 0)
(0 -2.62117e-05 0)
(0 -0.00049883 0)
(0 -4.72414e-05 0)
(0 -0.000176313 0)
(0 -3.59789e-05 0)
(0 -0.000360096 0)
(0 -0.000129845 0)
(0 -0.000373085 0)
(0 -7.41649e-05 0)
(0 -0.000163017 0)
(0 -0.00014883 0)
(0 -0.000498021 0)
(0 -5.26626e-06 0)
(0 -0.000119209 0)
(0 -0.000352127 0)
(0 -1.04453e-05 0)
(0 -0.000241351 0)
(0 -0.000409218 0)
(0 -0.000384935 0)
(0 -1.93181e-06 0)
(0 -0.000223725 0)
(0 -0.000243862 0)
(0 -3.2636e-05 0)
(0 -9.79667e-05 0)
(0 -0.000371857 0)
(0 -0.000130272 0)
(0 -1.19807e-05 0)
(0 -8.38571e-05 0)
(0 -4.05606e-05 0)
(0 -0.000369189 0)
(0 -0.000430154 0)
(0 -8.39413e-05 0)
(0 -0.000105984 0)
(0 -6.47468e-05 0)
(0 -8.06897e-05 0)
(0 -6.37927e-05 0)
(0 -6.04552e-05 0)
(0 -6.89958e-05 0)
(0 -0.000172991 0)
(0 -0.000304678 0)
(0 -0.000192317 0)
(0 -2.8865e-05 0)
(0 -3.66698e-05 0)
(0 -0.000483415 0)
(0 -7.6174e-05 0)
(0 -3.26059e-05 0)
(0 -0.000363353 0)
(0 -0.000145321 0)
(0 -0.000385517 0)
(0 -7.59888e-05 0)
(0 -0.000298371 0)
(0 -7.15449e-05 0)
(0 -0.000345434 0)
(0 -1.48932e-05 0)
(0 -5.03365e-05 0)
(0 -0.000293523 0)
(0 -0.000264192 0)
(0 -1.7557e-05 0)
(0 -2.54461e-05 0)
(0 -4.81785e-05 0)
(0 -0.000108411 0)
(0 -4.48922e-06 0)
(0 -9.13567e-05 0)
(0 -0.000318717 0)
(0 -5.93205e-05 0)
(0 -0.000279535 0)
(0 -0.00010024 0)
(0 -0.000393289 0)
(0 -0.000519872 0)
(0 -0.000405144 0)
(0 -9.56814e-05 0)
(0 -0.000181517 0)
(0 -1.19966e-05 0)
(0 -0.000375168 0)
(0 -0.000397905 0)
(0 -7.72318e-05 0)
(0 -0.000176928 0)
(0 -0.000525204 0)
(0 -4.9554e-05 0)
(0 -0.000545528 0)
(0 -0.000295581 0)
(0 -5.9483e-05 0)
(0 -6.80942e-05 0)
(0 -6.82806e-05 0)
(0 -3.01899e-05 0)
(0 -0.000310415 0)
(0 -8.08674e-05 0)
(0 -0.000262835 0)
(0 -0.000271344 0)
(0 -0.000136032 0)
(0 -9.8701e-05 0)
(0 -0.000213085 0)
(0 -0.000160024 0)
(0 -1.80782e-05 0)
(0 -0.000168009 0)
(0 -5.64387e-05 0)
(0 -0.000163149 0)
(0 -0.00024538 0)
(0 -0.000199384 0)
(0 -1.48856e-06 0)
(0 -0.000429357 0)
(0 -0.000164594 0)
(0 -8.53124e-05 0)
(0 -0.000389482 0)
(0 -0.00019942 0)
(0 -7.86941e-05 0)
(0 -0.000532696 0)
(0 -1.87981e-05 0)
(0 -0.000563574 0)
(0 -4.27378e-05 0)
(0 -0.000356152 0)
(0 -0.000126871 0)
(0 -0.000114348 0)
(0 -0.000321867 0)
(0 -0.000564192 0)
(0 -2.45764e-06 0)
(0 -0.000145426 0)
(0 -0.000527433 0)
(0 -0.000322689 0)
(0 -2.89887e-05 0)
(0 -0.000463752 0)
(0 -0.000274029 0)
(0 -7.18215e-07 0)
(0 -0.000180581 0)
(0 -3.47239e-05 0)
(0 -6.00854e-07 0)
(0 -4.32154e-05 0)
(0 -3.79816e-05 0)
(0 -0.000496914 0)
(0 -0.000380998 0)
(0 -0.00041249 0)
(0 -0.000138885 0)
(0 -0.000393251 0)
(0 -0.000290959 0)
(0 -7.03967e-05 0)
(0 -0.000406019 0)
(0 -0.00021139 0)
(0 -1.01179e-05 0)
(0 -5.29979e-05 0)
(0 -5.33699e-05 0)
(0 -0.000141988 0)
(0 -0.000259184 0)
(0 -0.000276475 0)
(0 -0.000286532 0)
(0 -0.000461171 0)
(0 -4.04754e-05 0)
(0 -7.76373e-05 0)
(0 -0.000563853 0)
(0 -7.60981e-05 0)
(0 -1.03139e-05 0)
(0 -0.000286181 0)
(0 -8.73786e-05 0)
(0 -0.000146163 0)
(0 -0.000293115 0)
(0 -0.000145578 0)
(0 -0.000298718 0)
(0 -9.1726e-05 0)
(0 -0.000467934 0)
(0 -0.000153682 0)
(0 -7.24146e-05 0)
(0 -0.000312461 0)
(0 -0.000102926 0)
(0 -0.000557991 0)
(0 -2.94843e-05 0)
(0 -0.00056419 0)
(0 -1.53821e-06 0)
(0 -0.000553157 0)
(0 -6.56929e-05 0)
(0 -0.000351899 0)
(0 -0.000307812 0)
(0 -0.000321427 0)
(0 -9.3616e-05 0)
(0 -1.11547e-05 0)
(0 -5.60068e-06 0)
(0 -0.000540115 0)
(0 -0.00016044 0)
(0 -1.01182e-05 0)
(0 -5.15952e-05 0)
(0 -2.64749e-05 0)
(0 -0.000163585 0)
(0 -0.0002268 0)
(0 -0.000396499 0)
(0 -0.000556424 0)
(0 -0.000291962 0)
(0 -0.000198035 0)
(0 -0.000256933 0)
(0 -7.86376e-05 0)
(0 -7.32982e-05 0)
(0 -0.000464475 0)
(0 -0.000267923 0)
(0 -0.000163657 0)
(0 -0.00039644 0)
(0 -0.000311176 0)
(0 -0.00015344 0)
(0 -0.000343416 0)
(0 -0.00019873 0)
(0 -0.000144383 0)
(0 -0.00026842 0)
(0 -0.000294372 0)
(0 -7.59989e-06 0)
(0 -2.03414e-05 0)
(0 -2.50084e-05 0)
(0 -0.000266077 0)
(0 -0.000113271 0)
(0 -0.000392147 0)
(0 -0.000142261 0)
(0 -0.000213781 0)
(0 -0.000110991 0)
(0 -1.18744e-06 0)
(0 -3.02368e-05 0)
(0 -0.000296226 0)
(0 -0.00031703 0)
(0 -0.000130328 0)
(0 -0.000516726 0)
(0 -0.000286289 0)
(0 -6.44105e-05 0)
(0 -0.000521666 0)
(0 -0.000469741 0)
(0 -0.000117098 0)
(0 -8.91567e-07 0)
(0 -5.14208e-06 0)
(0 -0.000229218 0)
(0 -0.00010302 0)
(0 -8.17047e-05 0)
(0 -0.000560767 0)
(0 -0.000258151 0)
(0 -2.58429e-05 0)
(0 -6.1553e-05 0)
(0 -0.000283398 0)
(0 -3.73736e-05 0)
(0 -5.76705e-05 0)
(0 -1.43081e-06 0)
(0 -5.60033e-05 0)
(0 -0.000384878 0)
(0 -0.000234959 0)
(0 -8.48375e-05 0)
(0 -0.000466486 0)
(0 -8.73621e-05 0)
(0 -5.80267e-05 0)
(0 -0.000262981 0)
(0 -0.000251275 0)
(0 -0.000393264 0)
(0 -9.86898e-05 0)
(0 -0.00027334 0)
(0 -0.000562047 0)
(0 -7.58737e-05 0)
(0 -9.39181e-05 0)
(0 -0.000532184 0)
(0 -5.33372e-05 0)
(0 -4.07954e-05 0)
(0 -1.74887e-05 0)
(0 -9.71019e-05 0)
(0 -0.000398791 0)
(0 -0.000477073 0)
(0 -2.73187e-05 0)
(0 -0.000560214 0)
(0 -0.000375135 0)
(0 -7.2233e-05 0)
(0 -1.88224e-05 0)
(0 -0.000380556 0)
(0 -7.3476e-05 0)
(0 -0.000533399 0)
(0 -0.000248588 0)
(0 -7.63999e-05 0)
(0 -1.66585e-05 0)
(0 -8.39284e-05 0)
(0 -9.64826e-05 0)
(0 -0.000389918 0)
(0 -0.000156557 0)
(0 -0.000113195 0)
(0 -2.54685e-05 0)
(0 -0.000111274 0)
(0 -0.000197387 0)
(0 -0.00039091 0)
(0 -2.47298e-05 0)
(0 -4.53583e-05 0)
(0 -0.000202315 0)
(0 -0.000239787 0)
(0 -5.23182e-05 0)
(0 -0.000528074 0)
(0 -7.01463e-05 0)
(0 -6.26981e-06 0)
(0 -0.000219004 0)
(0 -0.000236495 0)
(0 -5.35849e-05 0)
(0 -0.00048509 0)
(0 -0.00021705 0)
(0 -0.000106406 0)
(0 -0.000299046 0)
(0 -0.00040968 0)
(0 -0.000389846 0)
(0 -8.50037e-05 0)
(0 -0.000253421 0)
(0 -1.04407e-05 0)
(0 -4.21579e-05 0)
(0 -0.000131658 0)
(0 -0.000298304 0)
(0 -0.00053178 0)
(0 -9.53609e-05 0)
(0 -1.10154e-05 0)
(0 -0.000496962 0)
(0 -4.03834e-05 0)
(0 -0.000302899 0)
(0 -9.86323e-07 0)
(0 -2.20238e-05 0)
(0 -9.55647e-07 0)
(0 -1.28756e-05 0)
(0 -0.000138044 0)
(0 -0.000335861 0)
(0 -0.000319004 0)
(0 -3.55326e-05 0)
(0 -0.000252538 0)
(0 -3.01921e-06 0)
(0 -0.000180515 0)
(0 -0.000272943 0)
(0 -0.000193907 0)
(0 -0.00017216 0)
(0 -1.72052e-05 0)
(0 -0.000426266 0)
(0 -4.18345e-05 0)
(0 -0.000146732 0)
(0 -0.000353615 0)
(0 -2.26115e-05 0)
(0 -0.0005613 0)
(0 -0.00049097 0)
(0 -0.000471153 0)
(0 -8.50919e-05 0)
(0 -3.77268e-05 0)
(0 -3.75988e-05 0)
(0 -3.48218e-06 0)
(0 -7.84716e-05 0)
(0 -0.000182431 0)
(0 -1.53071e-06 0)
(0 -5.66752e-07 0)
(0 -9.29828e-05 0)
(0 -0.000125025 0)
(0 -5.80982e-05 0)
(0 -1.36198e-06 0)
(0 -7.70963e-05 0)
(0 -0.000528489 0)
(0 -0.000499235 0)
(0 -0.00022486 0)
(0 -1.85676e-05 0)
(0 -3.35367e-05 0)
(0 -8.63256e-05 0)
(0 -0.000170831 0)
(0 -0.000559728 0)
(0 -0.000503253 0)
(0 -7.17146e-06 0)
(0 -0.000290517 0)
(0 -0.000317792 0)
(0 -0.00022569 0)
(0 -0.000518727 0)
(0 -1.82869e-07 0)
(0 -0.000270296 0)
(0 -0.000110138 0)
(0 -0.000292555 0)
(0 -0.000309935 0)
(0 -0.000157891 0)
(0 -0.000321676 0)
(0 -0.000157899 0)
(0 -3.79565e-06 0)
(0 -6.02991e-05 0)
(0 -0.000270826 0)
(0 -2.48324e-05 0)
(0 -7.35599e-05 0)
(0 -5.87445e-05 0)
(0 -0.000503306 0)
(0 -0.000560391 0)
(0 -0.000189615 0)
(0 -1.89443e-05 0)
(0 -3.46879e-06 0)
(0 -0.000406866 0)
(0 -0.000451403 0)
(0 -1.7818e-05 0)
(0 -0.000519143 0)
(0 -0.000412807 0)
(0 -5.00693e-05 0)
(0 -0.000328847 0)
(0 -6.22625e-05 0)
(0 -0.000145346 0)
(0 -0.000139037 0)
(0 -0.000323368 0)
(0 -0.000162278 0)
(0 -0.000372188 0)
(0 -0.000253391 0)
(0 -0.000311196 0)
(0 -0.000180197 0)
(0 -5.39597e-05 0)
(0 -0.000208889 0)
(0 -0.000203877 0)
(0 -0.000365827 0)
(0 -0.000457971 0)
(0 -0.000225544 0)
(0 -0.000428689 0)
(0 -4.84054e-05 0)
(0 -9.2751e-05 0)
(0 -0.000298612 0)
(0 -0.000262574 0)
(0 -5.5553e-05 0)
(0 -1.7249e-05 0)
(0 -0.000454398 0)
(0 -0.000263272 0)
(0 -8.91932e-06 0)
(0 -0.000561686 0)
(0 -1.567e-06 0)
(0 -0.000108593 0)
(0 -0.000191967 0)
(0 -0.000171349 0)
(0 -2.33827e-05 0)
(0 -8.30656e-05 0)
(0 -0.000403953 0)
(0 -0.000259975 0)
(0 -9.73891e-05 0)
(0 -0.000142678 0)
(0 -1.74682e-06 0)
(0 -0.000179212 0)
(0 -0.000143668 0)
(0 -0.000389476 0)
(0 -0.000395553 0)
(0 -0.000113518 0)
(0 -0.00039167 0)
(0 -0.00043064 0)
(0 -6.48654e-05 0)
(0 -0.000317241 0)
(0 -2.14875e-05 0)
(0 -0.000277977 0)
(0 -0.00044875 0)
(0 -0.000304121 0)
(0 -0.000350031 0)
(0 -2.57298e-06 0)
(0 -2.10252e-05 0)
(0 -0.000549399 0)
(0 -6.82848e-06 0)
(0 -0.000539075 0)
(0 -0.000117234 0)
(0 -2.0757e-05 0)
(0 -0.000466287 0)
(0 -0.000275213 0)
(0 -4.54261e-05 0)
(0 -2.26436e-06 0)
(0 -0.000239075 0)
(0 -0.000358889 0)
(0 -0.000324143 0)
(0 -2.72177e-05 0)
(0 -0.000162695 0)
(0 -0.000546293 0)
(0 -0.000211847 0)
(0 -4.0675e-05 0)
(0 -3.77219e-06 0)
(0 -4.49764e-05 0)
(0 -8.04991e-05 0)
(0 -2.93147e-05 0)
(0 -8.14573e-05 0)
(0 -9.74439e-06 0)
(0 -0.000288445 0)
(0 -8.31699e-05 0)
(0 -0.000438824 0)
(0 -4.98972e-05 0)
(0 -1.94433e-05 0)
(0 -5.51879e-05 0)
(0 -0.000502704 0)
(0 -0.000308374 0)
(0 -0.000179901 0)
(0 -0.000100127 0)
(0 -1.00932e-05 0)
(0 -0.000180683 0)
(0 -9.9813e-06 0)
(0 -0.000267555 0)
(0 -0.000260569 0)
(0 -8.06813e-05 0)
(0 -6.4216e-05 0)
(0 -0.000181934 0)
(0 -0.000390557 0)
(0 -5.52581e-05 0)
(0 -4.65189e-05 0)
(0 -0.000296339 0)
(0 -0.000497622 0)
(0 -7.01876e-05 0)
(0 -6.54073e-05 0)
(0 -1.48115e-07 0)
(0 -8.20171e-05 0)
(0 -4.11216e-06 0)
(0 -0.000448491 0)
(0 -2.69982e-06 0)
(0 -8.10702e-05 0)
(0 -2.71884e-05 0)
(0 -1.46304e-05 0)
(0 -0.000440123 0)
(0 -0.000265991 0)
(0 -8.73584e-05 0)
(0 -5.69749e-06 0)
(0 -0.000466192 0)
(0 -0.000157094 0)
(0 -1.12154e-05 0)
(0 -0.00013404 0)
(0 -0.000333896 0)
(0 -0.000153664 0)
(0 -0.000204144 0)
(0 -9.69189e-05 0)
(0 -6.94477e-05 0)
(0 -0.000209232 0)
(0 -0.000325584 0)
(0 -0.000458173 0)
(0 -8.13731e-05 0)
(0 -0.000499972 0)
(0 -3.91069e-05 0)
(0 -3.54091e-05 0)
(0 -1.6261e-05 0)
(0 -1.33414e-05 0)
(0 -0.000208456 0)
(0 -2.15074e-05 0)
(0 -0.000163685 0)
(0 -5.43969e-07 0)
(0 -0.000438195 0)
(0 -0.000153701 0)
(0 -0.00019927 0)
(0 -1.93354e-05 0)
(0 -0.000158569 0)
(0 -0.00021628 0)
(0 -3.98744e-05 0)
(0 -4.68175e-05 0)
(0 -0.000447254 0)
(0 -0.000395845 0)
(0 -0.000411762 0)
(0 -2.00633e-05 0)
(0 -5.60865e-05 0)
(0 -1.33895e-06 0)
(0 -7.65285e-05 0)
(0 -0.000108097 0)
(0 -0.000282572 0)
(0 -0.000362985 0)
(0 -9.98665e-05 0)
(0 -0.000254588 0)
(0 -9.45306e-05 0)
(0 -0.000264086 0)
(0 -0.000354544 0)
(0 -0.000162978 0)
(0 -0.000197029 0)
(0 -3.7148e-05 0)
(0 -9.73989e-05 0)
(0 -4.39266e-07 0)
(0 -0.000378562 0)
(0 -4.75667e-05 0)
(0 -0.00053689 0)
(0 -0.000368161 0)
(0 -0.000336759 0)
(0 -0.000546293 0)
(0 -7.03715e-05 0)
(0 -0.000412538 0)
(0 -1.19122e-06 0)
(0 -4.41237e-05 0)
(0 -1.59538e-05 0)
(0 -4.00548e-05 0)
(0 -0.000542436 0)
(0 -0.000258969 0)
(0 -0.000520156 0)
(0 -0.000147239 0)
(0 -0.000237532 0)
(0 -0.000227053 0)
(0 -0.000109441 0)
(0 -1.45945e-06 0)
(0 -0.000222801 0)
(0 -0.000166672 0)
(0 -7.2252e-05 0)
(0 -0.000315288 0)
(0 -2.19311e-05 0)
(0 -0.00014907 0)
(0 -0.00024549 0)
(0 -0.000152966 0)
(0 -3.76949e-06 0)
(0 -0.000240298 0)
(0 -0.000260629 0)
(0 -0.000463104 0)
(0 -0.00035421 0)
(0 -0.000481786 0)
(0 -5.56981e-05 0)
(0 -2.56914e-05 0)
(0 -0.000380319 0)
(0 -4.33552e-05 0)
(0 -0.000253769 0)
(0 -0.000153426 0)
(0 -9.25821e-06 0)
(0 -0.0003248 0)
(0 -7.59276e-05 0)
(0 -3.88271e-05 0)
(0 -0.000235828 0)
(0 -0.000249449 0)
(0 -5.19289e-06 0)
(0 -2.81033e-05 0)
(0 -0.000523271 0)
(0 -0.000230453 0)
(0 -2.48732e-05 0)
(0 -0.000149755 0)
(0 -2.95943e-05 0)
(0 -7.94064e-05 0)
(0 -4.68033e-05 0)
(0 -6.58914e-05 0)
(0 -0.000269032 0)
(0 -0.000210649 0)
(0 -2.85464e-05 0)
(0 -0.000515044 0)
(0 -2.89536e-06 0)
(0 -2.11407e-05 0)
(0 -0.000100777 0)
(0 -4.36385e-05 0)
(0 -0.000509147 0)
(0 -4.16995e-06 0)
(0 -0.000520635 0)
(0 -0.000504924 0)
(0 -6.89637e-05 0)
(0 -6.33144e-06 0)
(0 -0.00035452 0)
(0 -6.22052e-05 0)
(0 -0.000281003 0)
(0 -6.85429e-05 0)
(0 -4.58895e-05 0)
(0 -7.14239e-05 0)
(0 -0.000254201 0)
(0 -5.65557e-05 0)
(0 -0.000315926 0)
(0 -0.000358784 0)
(0 -0.000205822 0)
(0 -0.00014484 0)
(0 -9.28592e-05 0)
(0 -0.000198007 0)
(0 -0.00027309 0)
(0 -0.000138582 0)
(0 -0.000223571 0)
(0 -0.00051544 0)
(0 -0.000444054 0)
(0 -0.000185697 0)
(0 -0.000166047 0)
(0 -6.95714e-05 0)
(0 -0.000229376 0)
(0 -0.000279465 0)
(0 -0.000343186 0)
(0 -0.000297994 0)
(0 -0.000168974 0)
(0 -0.000457391 0)
(0 -1.6209e-05 0)
(0 -2.99977e-05 0)
(0 -0.00021819 0)
(0 -2.13396e-05 0)
(0 -0.000442788 0)
(0 -0.000308714 0)
(0 -0.000471064 0)
(0 -0.000298031 0)
(0 -8.72331e-05 0)
(0 -0.00021493 0)
(0 -0.000522167 0)
(0 -0.000513274 0)
(0 -0.000115888 0)
(0 -0.000381532 0)
(0 -0.000272852 0)
(0 -0.000260828 0)
(0 -0.000390205 0)
(0 -0.000237268 0)
(0 -5.34547e-05 0)
(0 -0.000379258 0)
(0 -8.59602e-05 0)
(0 -1.60364e-05 0)
(0 -3.46697e-05 0)
(0 -0.00030496 0)
(0 -9.1144e-05 0)
(0 -5.42994e-05 0)
(0 -0.000513326 0)
(0 -6.3108e-05 0)
(0 -1.91215e-05 0)
(0 -3.08299e-06 0)
(0 -0.00017493 0)
(0 -3.90714e-05 0)
(0 -0.000521586 0)
(0 -0.000211244 0)
(0 -0.000113585 0)
(0 -0.00030509 0)
(0 -4.27135e-05 0)
(0 -0.000130236 0)
(0 -0.000510145 0)
(0 -6.33202e-05 0)
(0 -0.000131828 0)
(0 -0.00046472 0)
(0 -4.18406e-06 0)
(0 -0.000494492 0)
(0 -5.97175e-05 0)
(0 -0.00022641 0)
(0 -0.000195239 0)
(0 -8.66971e-05 0)
(0 -8.0781e-05 0)
(0 -8.13712e-05 0)
(0 -0.000394789 0)
(0 -0.000423606 0)
(0 -0.000333257 0)
(0 -0.000503248 0)
(0 -0.000372452 0)
(0 -0.00051994 0)