/*--------------------------------*- C++ -*----------------------------------*\
| =========                 |                                                 |
| \\      /  F ield         | OpenFOAM: The Open Source CFD Toolbox           |
|  \\    /   O peration     | Version:  v2012                                 |
|   \\  /    A nd           | Website:  www.openfoam.com                      |
|    \\/     M anipulation  |                                                 |
\*---------------------------------------------------------------------------*/
FoamFile
{
    version     2.0;
    format      ascii;
    class       volScalarField;
    location    "50";
    object      k_0;
}
// * * * * * * * * * * * * * * * * * * * * * * * * * * * * * * * * * * * * * //

dimensions      [0 2 -2 0 0 0 0];


internalField   nonuniform List<scalar> 
18758
(
0.000163329
0.000669345
0.000153899
0.000162545
0.000164583
0.000140996
0.000143468
0.000152642
0.000162969
0.000161425
0.000390877
0.00291924
0.000241578
0.000151814
0.000143246
0.000141833
0.00314037
0.000139238
0.000143109
0.000154577
0.00205273
2.61881e-05
0.000141201
0.000141532
0.00142602
0.0218849
0.00139927
0.00021068
0.00018328
0.00153792
0.0208815
0.000549948
0.000152242
0.0409331
0.000166403
0.00134249
0.000243389
0.000165291
0.0133067
0.000137818
0.00123672
0.000162715
0.000457981
0.000150742
0.000144831
0.0218291
0.000161059
0.00018459
0.0274195
0.000158432
0.000417854
0.0443873
0.000158011
0.000153589
0.000197937
0.000231332
0.000141321
0.000154037
0.000183553
0.000141074
0.00014675
0.000150744
0.000584835
0.0014311
0.000147075
0.0521691
0.000146327
0.000140117
0.000211599
0.000139356
0.0413392
0.0439624
0.000143075
0.000160321
0.000209375
0.0210731
0.0014952
0.00200754
0.000162903
0.000405339
0.000181937
0.013377
0.00241022
0.000181667
0.000151659
0.000191389
0.000156075
0.000161372
0.000473153
0.000191265
0.033994
0.00015303
0.00017799
0.0279305
0.000142955
0.000138974
0.000138268
0.000176508
0.00267772
0.000142391
0.0213747
0.000161917
0.000139985
0.000138942
0.0528546
0.00204366
0.000184545
0.0342634
0.000672813
0.00755539
0.000142006
0.00322624
0.00016592
0.000150337
0.000161839
0.000271173
0.000176181
0.000140662
0.000244286
0.000151278
0.000145802
0.00134841
0.000151434
0.000139646
0.0241034
0.000153626
0.000149551
0.0001398
0.000194423
0.0185604
0.000183494
0.00015276
0.00016214
0.0436912
0.000137745
0.000145181
0.00174495
0.000149952
0.000213662
0.000181485
0.000172177
0.00732303
0.000171592
0.000850031
0.0227159
0.000173156
0.0539765
0.000190625
0.000444164
0.04187
0.0160125
0.0223858
0.000146593
0.000167433
0.00115031
0.00294331
0.000177784
0.000194956
0.000184715
0.000577568
0.0396769
0.000142209
0.0298989
0.0545015
0.0213474
0.000142197
0.000141845
0.0373809
0.0179481
0.00191921
0.0237153
0.000154048
0.000185451
0.00013805
0.000729645
0.000142368
0.000142875
0.00178678
0.0345399
0.000149359
0.000139784
0.000153288
0.000195642
0.000151106
0.0438687
0.00014367
0.00183653
0.000163313
0.0289338
0.0121399
0.0224092
0.000143601
0.000193121
0.0109635
0.000138694
0.000150851
0.000224745
0.00014639
0.0296251
0.000144198
0.000148374
0.000201266
0.000291581
0.000141781
0.000142043
0.0310546
0.000142788
0.000168672
0.0169091
0.0200029
0.000146883
0.000178191
0.000149565
0.000148487
0.000152728
0.000138034
0.000144507
0.000177966
0.000140338
0.00158517
0.0132885
0.000145466
0.000171181
0.00020288
0.000286168
0.000138076
0.000215794
0.000192281
0.0391173
0.000142465
0.0236302
0.000172956
0.00172185
0.000147114
0.000140725
0.00014637
0.000212454
0.0266619
0.000238949
0.000149361
0.000142154
0.000207078
0.000205404
0.000151359
0.0441048
0.000443252
0.000140803
0.000138136
0.000145421
0.000142452
0.0242411
0.000149282
0.000138052
0.000147015
0.000142419
0.000285505
0.000141784
0.049303
0.000142887
0.00537929
0.000166926
0.00013999
0.000140892
0.000191591
0.00043858
0.000471474
0.000140325
0.000209798
0.000146714
0.000146207
0.000255477
0.0566673
0.000145982
0.000141559
0.000137684
0.000152208
0.000159338
0.000140218
0.000149215
0.000151806
0.000138149
0.000152775
0.000142369
0.0546317
0.000143343
0.000141331
0.00013886
0.000202453
0.000138859
0.000138867
0.000152207
0.00014973
0.000141175
0.000147135
0.000148842
0.000150251
0.000138103
0.000157398
0.000142184
0.0246848
0.000154803
0.000147711
0.00014762
0.00823809
0.000214678
0.000139709
0.000164764
0.00205589
0.000151149
0.000228067
0.0001424
0.000558586
0.00021876
0.000193659
0.000182586
0.0379385
0.000139825
0.00355733
0.000209735
0.000146308
0.000192848
0.000182084
0.0372119
0.000140692
0.000139975
0.0194668
0.000138077
0.000139456
0.0255835
0.000198011
0.00018064
0.037863
0.00014062
0.000142296
0.000142668
0.000150008
0.000149217
0.000150844
0.00015279
0.000143343
0.000149015
0.000149313
0.0030183
0.00896099
0.000149112
0.00553995
0.00238747
0.000139296
0.000164472
0.000220437
0.000347754
0.00660288
0.000231143
0.00014365
0.024964
0.00938684
0.00016637
0.000149283
0.000178218
0.000148624
0.000150176
0.000231651
0.00510201
0.00581839
0.000234235
0.00473557
0.000140806
0.000157389
0.000153708
0.00017726
0.026828
0.000262956
0.00436151
0.000237556
0.00137353
0.000236649
0.000142872
0.0474186
0.000191302
0.000273876
0.00676929
0.000142113
0.000141252
0.000145985
0.00741794
0.0154896
0.000283935
0.0247081
0.000149506
0.00262877
0.00873393
0.000141913
0.000151612
0.000152072
0.000152518
0.000146681
0.000149061
0.000144233
0.000156064
0.000152031
0.000145874
0.000167299
0.0125501
0.0001598
0.0207644
0.0199299
0.0174163
0.0114927
0.000192363
0.000148447
0.000141202
0.000535502
0.000151612
0.00014949
0.000912116
0.000177024
0.00637845
0.000141883
0.00204695
0.000144376
0.000154985
0.000139124
0.0323692
0.000500742
0.00776654
0.000148605
0.0351799
0.000177738
0.000144115
0.000151756
0.000146429
0.00762737
0.000148028
0.000146987
0.0193269
0.000160106
0.000149605
0.00014275
0.000152323
0.000156523
0.013745
0.000513309
0.000145138
0.0504716
0.000139102
0.00015187
0.000191194
0.000143697
0.0191505
0.000145431
0.000156995
0.000153353
0.00025154
0.000152854
0.000144177
0.0263161
0.000227972
0.000138872
0.000157392
0.000156215
0.0001418
0.000149884
0.000150951
0.000396712
0.0261673
0.000147647
0.000167856
0.00298702
0.00123915
0.0044279
0.000377015
0.0040451
0.000140608
0.000191083
0.000201386
0.000165438
0.000152086
0.00189849
0.000183429
0.00017008
0.000145152
0.000143488
0.000138901
0.00014368
0.000138861
0.000143798
0.000282601
0.000152629
0.000138679
0.000177647
0.000151856
0.000153511
0.000137963
0.000154953
0.000183179
0.00172232
0.000143024
0.000374856
0.000141636
0.000160127
0.000191726
0.0227786
0.000240383
0.000142961
0.000143727
0.0253368
0.0396394
0.000161421
0.000141525
0.00118309
0.0544246
0.000138878
0.000141223
0.0359634
0.000152977
0.000182161
0.000160385
0.000152784
0.000167871
0.000138217
0.000141852
0.000152345
0.000142165
0.000142147
0.000146821
0.0149948
0.00013882
0.00470883
0.00231912
0.00013896
0.000139098
0.000153174
0.000158114
0.000159013
0.00086552
0.000142474
0.00522378
0.000164555
0.000165442
0.00014852
0.000144854
0.000146289
0.000147868
0.000147747
0.0282658
0.0448484
0.00013806
0.000141845
0.00014951
0.037901
0.000139272
0.000137952
0.000144047
0.000138784
0.000140892
0.00014787
0.00015097
0.000141797
0.000184891
0.00014239
0.000137737
0.00021686
0.0216514
0.00016433
0.000149409
0.000142483
0.00015409
0.000142526
0.000150414
0.00253058
0.000314769
0.000149549
0.00336518
0.000142333
0.000165148
0.00014998
0.000143786
0.000173443
0.000139311
0.000142422
0.00525843
0.000153243
0.000151038
0.000231447
0.000148835
0.000143382
0.031309
0.000140691
0.00024589
0.000177288
0.000149911
0.000153771
0.000178998
0.000153466
0.000158973
0.000142164
0.00729159
0.00416378
0.00290466
0.000138392
0.0236681
0.000138311
0.000146954
0.000142391
0.000155581
0.0151366
0.000225064
0.000149357
0.000150851
0.000151749
0.0044149
0.000496652
0.000141204
0.000170143
0.000155145
0.0262525
0.000161791
0.000197726
0.000139528
0.000155441
0.000177805
0.000149383
0.000139599
0.000139312
0.000138814
0.000159549
0.000252899
0.000138019
0.00425039
0.000195903
0.0001582
0.000142501
0.000137633
0.00465844
0.000113833
0.000137883
0.000171799
0.0219099
0.0281069
0.000147211
0.000143355
0.000184401
0.00549419
0.000138173
0.000208477
0.000143916
0.000154736
0.0001619
0.000144896
0.000147765
0.000151881
0.000138438
0.000151683
0.000315499
0.000173268
0.0160106
0.000148334
0.000141126
0.000279802
0.000137811
0.000244995
0.0169359
0.000144088
0.00115352
0.000153824
0.000149452
0.00171333
0.000138045
0.000138064
0.000418838
0.000152964
0.000647266
0.000138447
0.0399776
0.0184317
0.000164883
0.000147921
0.000956281
0.000154769
0.000200308
0.0223274
0.00814475
0.000146109
0.00779286
0.000144545
0.00017289
0.000184376
0.000145237
0.000163696
0.00123987
0.00027785
0.000158488
0.000151309
0.000138774
0.000149277
0.000151686
0.000162727
0.000218999
0.000141825
0.000280455
0.000157374
0.00014608
0.000157559
0.00013893
0.00013821
0.000142281
0.000138879
0.0431488
0.000137842
0.000149599
0.00408994
0.000177902
0.000179231
0.000143846
0.000145919
0.000182989
0.000145665
0.00545949
0.000154362
0.000153469
0.000150735
0.00014576
0.000138491
0.0379676
0.000138991
0.00659132
0.000207084
0.000149604
0.0366104
0.000142951
0.000174024
0.000157848
0.02032
0.000153975
0.00575435
0.000819496
0.000144598
0.00489403
0.000138286
0.0227194
0.000145893
0.000148493
0.0522012
0.00487159
0.000142137
0.000146995
0.000152484
0.000143675
0.000143778
0.00131498
0.0294451
0.000144506
0.000143908
0.000138279
0.0117085
0.000225152
0.000220657
0.000138383
0.000172018
0.000148476
0.000146126
0.000160416
0.00295211
0.000141215
0.000172195
0.0066317
0.000137661
0.000200852
0.000144274
0.000162026
0.000141218
0.000141388
0.000157674
0.000146326
0.000178058
0.00014358
0.0493071
0.000145961
0.000154656
0.000183103
0.000281771
0.000172498
0.000141642
0.000145637
0.00111958
0.000182253
0.000193348
0.00013956
0.00014235
0.0001604
0.0275392
0.00594163
0.000143766
0.000142076
0.000149785
0.000146739
0.000152417
0.000142536
0.000149993
0.0032254
0.000142251
0.000143473
0.00101864
0.00013828
0.000971147
0.000205063
0.00381799
0.0327
0.00820095
0.0293794
0.000142559
0.000142497
0.000152244
0.000144376
0.000141277
0.000143539
0.000146587
0.000149086
0.00191772
0.000191498
0.00300499
0.000143626
0.000141935
0.000165211
0.000166818
0.000186959
0.000147936
0.000149094
0.000141466
0.028882
0.0200743
0.00617085
0.000147003
0.000185492
0.000192501
0.000188301
0.0262515
0.00158732
0.000150596
0.000137655
0.000137653
0.0387212
0.000146847
0.000138806
0.000188853
0.00277193
0.000142247
0.000138097
0.00908557
0.000142462
0.000142287
0.000142553
0.000143971
0.000143394
0.000154783
0.000163471
0.000143443
0.000146951
0.00474278
0.0288489
0.000143011
0.0022929
2.89397e-05
0.000149514
0.000149525
0.000145066
0.000140444
0.000151308
0.000149516
0.000150575
0.000147885
0.000153776
0.000146789
0.0537347
0.000159706
0.000149378
0.000144075
0.00817308
0.000146295
0.000139343
0.0276924
0.000141349
0.00016706
0.000157702
0.000143513
0.000139407
0.000143541
0.000155106
0.000168427
0.00015064
0.00820643
0.000188127
0.000191029
0.000937435
0.00014952
0.000219251
0.000138784
0.0019285
0.000149774
0.000143231
0.000194639
0.000285393
0.000148252
0.0120771
0.0373725
0.000142558
0.000161132
0.000139609
0.000149362
0.00016025
0.000151517
0.00014262
0.000165485
0.000141044
0.000141468
0.00998729
0.00014902
0.00014128
0.000139415
0.0559789
0.000144281
0.000147715
0.000163209
0.000297445
0.0133153
0.000249616
0.0121708
0.000142027
0.000138902
0.000143589
0.0074521
0.000153055
0.000141005
0.000153306
0.000141314
0.0214263
0.000147144
0.00014605
0.0176632
0.000142235
0.000177895
0.0208929
0.000138863
0.000143358
0.000847364
0.000151969
0.0176571
0.00778425
0.000137572
0.000144476
0.000290389
0.000138513
0.000153403
0.0159171
0.000139891
0.00135587
0.000142466
0.000143689
0.000143264
0.000166544
0.000151862
0.00061936
0.000154271
0.000140773
0.000391335
0.000834237
0.000168725
0.000167308
0.000162144
0.0253981
0.000584931
0.000138068
0.0247694
0.000147969
0.0372881
0.00417448
0.00014484
0.000153448
0.000147292
0.00540829
0.000139574
0.0222529
0.000148876
0.0196913
0.000194017
0.000145544
0.000138878
0.000142581
0.0103159
0.0217817
0.000143964
0.0114345
0.000145977
0.000141221
0.00118995
0.000143155
0.00219922
0.000139906
0.000153915
0.00014054
0.000139977
0.000140851
0.000139642
0.000201143
0.000170811
0.00016781
0.000166207
0.000148789
0.000142741
0.00194305
0.00014264
0.000696765
0.000145532
0.00307938
0.000158118
0.000884538
0.000141357
0.000142589
0.000141068
0.0320551
0.000142369
0.0174824
0.000195224
0.000143603
0.000157122
0.000142598
0.000137977
0.000152006
0.000141358
0.00237106
0.00014409
0.000150847
0.000143825
0.000152025
0.0206283
0.00952497
0.000145785
0.00013948
0.000147488
0.000148342
0.000141953
0.000153508
0.000148622
0.000142495
0.000140496
0.000141386
0.000210712
0.000181916
0.000151846
0.000140885
0.00026529
0.000150143
0.0137274
0.0201674
0.000148692
0.0334884
0.000152133
0.000141923
0.000145051
0.000153657
0.000184137
0.000140814
0.000166342
0.0129012
0.000177503
0.000263159
0.0501785
0.0280706
0.000160754
0.000146168
0.000144557
0.000191257
0.000141426
0.000152317
0.000162562
0.000172297
0.000150227
0.000145291
0.0249978
0.000153611
0.000149036
0.000144087
0.000154
0.000177454
0.000144573
0.000154336
0.000144028
0.000160453
0.000149825
0.000147965
0.000147959
0.000410972
0.00014785
0.000142791
0.0146662
0.000138872
0.000149204
0.000148517
0.000150289
0.000148154
0.00169675
0.000190497
0.000287938
0.00369801
0.0169728
0.00013807
0.000148163
0.00354595
0.015096
0.000145541
0.000149472
0.000152142
0.000144614
0.000150574
0.000149522
0.000218894
0.00022329
0.000152613
0.000138229
0.000178954
0.000149799
0.000138084
0.00014871
0.000148834
0.000142099
0.000248023
0.00058749
0.00016295
0.0506063
0.000142398
0.000142222
0.000189515
0.000165768
0.000141899
0.000218402
0.000148762
0.000153382
0.00540162
0.000202268
0.000160015
0.000148466
0.000147257
0.000148804
0.000138679
0.0155848
0.000199923
0.0315025
0.00330298
0.0469165
0.000148525
0.0285187
0.0354848
0.0503297
0.000188455
0.0105727
0.000160735
0.000348803
0.000193038
0.000162226
0.000139224
0.000142616
0.000146026
0.000176432
0.000139484
0.00014782
0.000163079
0.0360189
0.0149702
0.00231296
0.00018111
0.00346438
0.00016909
0.000153958
0.00014284
0.0390248
0.000244953
0.000141218
0.000163905
0.018212
0.0254403
0.0220747
0.000170186
0.000189021
0.00013895
0.0162422
0.000147842
0.0148707
0.00924446
0.000160962
0.000190925
0.000193143
0.000144373
0.000143187
0.00123461
0.00318945
0.00021247
0.000148471
0.000146537
0.000152391
0.0122111
0.000164221
0.000221521
0.000148571
0.000427858
0.000267603
0.000157203
0.000355281
0.000211008
0.0268445
0.000138965
0.000164402
0.0361539
0.000161148
0.000141922
0.00606409
0.000834929
0.000142395
0.000142586
0.000137966
0.000150085
0.000151749
0.0510919
0.000546513
0.000150183
0.000160866
0.013314
0.000163083
0.00015307
0.000152788
0.000645093
0.000156987
0.000140034
0.000141316
0.000373008
0.000139172
0.0135582
0.000141473
0.000138448
0.00294766
0.000150421
0.000142502
0.000164042
0.000138437
0.000153826
0.000141638
0.000142331
0.000144791
0.000181618
0.000145156
0.000203378
0.00019825
0.00334343
0.0478337
0.000155712
0.000137514
0.000139179
0.0348237
0.000158676
0.000148414
0.000198232
0.000168287
0.0118717
0.000140153
0.000140642
0.00013756
0.000140971
0.000144357
0.000138932
0.000148859
0.00014864
0.000143189
0.00028425
0.000137668
0.000255041
0.000151668
0.000141295
0.000156516
0.0449117
0.03556
0.00410665
0.0528396
0.0172646
0.000221082
0.0351526
0.000153154
0.000166606
0.000173253
0.0267103
0.000141114
0.000260458
0.000299914
0.000209923
0.000142656
0.00464981
0.000141767
0.000142552
0.000142602
0.000162028
0.00288191
0.0357987
0.000145939
0.000139288
0.000141255
0.000140686
0.000181721
0.000143447
0.0343739
0.000185505
0.000184192
0.000149033
0.000142403
0.000138683
0.0262003
0.000281168
0.000144349
0.000144721
0.0209816
0.000140637
0.000143557
0.000137596
0.000144136
0.000144638
0.000149543
0.00014342
0.00545705
0.000152753
0.00024609
0.000164022
0.000147001
0.000235459
0.000150424
0.00420141
0.000147097
0.000173729
0.000138221
0.000750666
0.000164821
0.000206123
0.0281798
0.000153603
0.000168813
0.000152481
0.000142335
0.000139629
0.000140462
0.000241561
0.000173398
0.000154713
0.000241182
0.000139268
0.000145285
0.000171137
0.00620305
0.000138058
0.000170723
0.0100213
0.000188469
0.00109352
0.000153998
0.000146566
0.0215472
0.000175589
0.000139797
0.000142396
0.000189176
0.000137412
0.000138314
0.0469412
0.00018124
0.00014923
0.000148737
0.0001503
0.0365396
0.000153991
0.0182079
0.0141173
0.000142733
0.000141716
0.000290718
0.000168999
0.000147746
0.000150725
0.000150474
0.000156783
0.000139565
0.000153771
0.000218683
0.000176414
0.0143655
0.00411948
0.000166213
0.0171729
0.000293366
0.000142363
0.0117573
0.0227733
0.000151426
0.049954
0.000146292
0.00019627
0.00018741
0.000376765
0.000149473
0.000218063
0.000165474
0.000162958
0.000141852
0.000139059
0.0488265
0.000151662
0.000142298
0.000142157
0.000148114
0.000137804
0.000149389
0.000141238
0.00014247
0.0490261
0.00104322
0.000142476
0.00015043
0.00024697
0.00809963
0.000138742
0.000233045
0.00022173
0.000173608
0.000145786
0.00014077
0.0270811
0.000148278
0.000184602
0.000188634
0.000138378
0.000147016
0.0453604
0.000146857
0.0129586
0.00155461
0.0364829
0.000149108
0.000146742
0.000143253
0.00014868
0.00014225
0.000217721
0.00729553
0.000142384
0.00193337
0.000402528
0.000153078
0.000146187
0.000142193
0.0101923
0.0283102
0.00018755
0.000191515
0.000152723
0.0466348
0.00251491
0.000143241
0.000142328
0.000158577
0.000166423
0.00456727
0.000190093
0.000145215
0.000450464
0.00263907
0.000142022
0.00013987
0.000146244
0.000153081
0.000141704
0.000149677
0.000138197
0.000211921
0.000931608
0.000144763
0.000146697
0.000166433
0.000138483
0.000142468
0.000147894
0.000498654
0.000137752
0.000152549
0.0227342
0.000213433
0.000215506
0.000181148
0.000151046
0.000148135
0.000150338
0.000138346
0.000141349
0.000148876
0.000536338
0.000162442
0.000150545
0.000162091
0.000141066
0.017931
0.00023571
0.000143692
0.0207469
0.000140355
0.000151781
0.000216392
0.044707
0.000155216
0.000154264
0.000153641
0.000203434
0.00013917
0.0488715
0.0353189
0.000138064
0.000186094
0.0101676
0.000145038
0.000151223
0.000671217
0.00018487
0.000147051
0.0106188
0.00015529
0.000142426
0.00419011
0.000145753
0.00638691
0.000144896
0.00191958
0.000168539
0.000138532
0.000182515
0.000163742
0.000147525
0.000223119
0.011605
0.00870957
0.000182237
0.000191107
0.000137884
0.0486653
0.000238957
0.000205361
0.00466251
0.000145158
0.000289728
0.000145276
0.000141709
0.000174344
0.000149788
0.000193804
0.000362123
0.000147068
0.056169
0.0199812
0.0301411
0.000161399
0.00018657
0.000138106
0.000150993
0.000153581
0.000137792
0.00659479
0.0135095
0.0503636
0.00138251
0.000228028
0.0073273
0.0446508
0.000144017
0.000151872
0.019391
0.000181296
0.000145414
0.000142214
0.00024949
0.000182971
0.000160753
0.000142805
0.000146215
0.000197588
0.000142491
0.000218559
0.000281754
0.000137905
0.0439762
0.000140331
0.0193347
0.00135607
0.0565758
0.000150155
0.00186874
0.000148209
0.000142504
0.000150641
0.0274366
0.00017249
0.000404752
0.000149502
0.000142498
0.000270752
0.0461541
0.000146991
0.000190163
0.00488071
0.0302888
0.000536696
0.000140203
0.000145651
0.0135165
0.000137938
0.000140398
0.000156228
0.0001439
0.000146265
0.000139949
0.000142047
0.00015507
0.000142036
0.000166472
0.00017799
0.000144395
0.0187504
0.0261258
0.00015774
0.00013821
0.000143129
0.000190922
0.000143634
0.00014275
0.000144718
0.000189157
0.000143481
0.000154484
0.000153249
0.000165701
0.00647618
0.000140889
0.000194897
0.000209634
0.00016057
0.000224059
0.000173075
0.00014745
0.00014268
0.000156909
0.000153638
0.000158137
0.000304996
0.0166297
0.000143105
0.00113884
0.000149092
0.000197368
0.000867253
0.000299199
0.0275823
0.000151673
0.000141316
0.000509167
0.000152568
0.00500026
0.000143036
0.00199195
0.0149967
0.000142441
0.000169662
0.000141972
0.000163985
0.000196239
0.0291598
0.000141444
0.000144931
0.000222454
0.000148142
0.00166208
0.000142053
0.0111114
0.00899315
0.000173999
0.0539838
0.0256306
0.000140419
0.000140729
0.000144172
0.000425574
0.000977768
0.000148616
0.000154749
0.000148431
0.000138165
0.000143468
0.000140825
0.000139434
0.000231067
0.000148212
0.000138328
0.000154995
0.0463201
0.0217826
0.0367622
0.000146021
0.000207437
0.000145679
0.000156366
0.000191693
0.000301894
0.0268354
0.000137636
0.000189064
0.000138755
0.000167593
0.000143485
0.000179952
0.00209459
0.000152669
0.000203111
0.000141611
0.00195749
0.000622185
0.00013921
0.000151369
0.000150699
0.000151099
0.020442
0.000144578
0.000144749
0.000149277
0.000148139
0.000142929
0.000151479
0.000143212
0.000148546
0.000143445
0.000141651
0.00517341
0.004251
0.0559154
0.000140128
0.000139178
0.000138734
0.000141448
0.000138897
0.000171871
0.000140099
0.000137947
0.000142864
0.0001398
0.000162146
0.000142598
0.000273046
0.0381141
0.000170032
0.018885
0.000146278
0.00791353
0.000194833
0.000232186
0.000141408
0.00143059
0.000150319
0.000144299
0.000145276
0.000218724
0.000193392
0.000140325
0.000161813
0.000158203
0.000142717
0.000206742
0.0095974
0.000165648
0.000140648
0.000152549
0.000286791
0.000141377
0.0159988
0.000140406
0.000148109
0.000144574
0.000150549
0.000168315
0.00358955
0.000168284
0.000137898
0.00167262
0.000141261
0.000164019
0.000141223
0.00015628
0.0512306
0.00014233
0.000148145
0.000163703
0.0101243
0.000137783
0.000142746
0.00013904
0.00016882
0.000149275
0.000504012
0.000145392
0.000156399
0.000162728
0.0480004
0.000138567
0.000140525
0.000138963
0.000164989
0.000138171
0.0476895
0.000371878
0.000167252
0.0118924
0.000142949
0.0014071
0.000145457
0.000137609
0.00019845
0.000191925
0.00021428
0.000180279
0.0190677
0.00287015
0.000172648
0.000167336
0.000150134
0.00346204
0.000144894
0.000149503
0.000246494
0.000147788
0.00842775
0.000137979
0.000138045
0.0168868
0.000166676
0.00164734
0.00219623
0.000181869
0.000150144
0.00017469
0.000144492
0.000137998
0.00014153
0.0380743
0.0434464
0.00532147
0.000158114
0.000155341
0.00968165
0.000140471
0.000164983
0.000140258
0.000172076
0.000142201
0.000137969
0.000149192
0.000170165
0.0011095
0.00016494
0.000161922
0.000138595
0.00016253
0.0124757
0.00014129
0.000201408
0.0239311
0.000137871
0.000176865
0.000137509
0.0286799
0.000147638
0.00472886
0.000148633
0.000146172
0.000161395
0.000194704
0.0107363
0.000141505
0.00233942
0.000151446
0.000144829
0.000145163
0.000145091
0.00013784
0.0001433
0.00752763
0.045196
0.000176235
0.00014741
0.00015512
0.000152828
0.000146106
0.000149339
0.000190126
0.00526791
0.000390123
0.000144196
0.00984246
0.000137479
0.00017836
0.000151491
0.000170259
0.00370044
0.00807409
0.000622212
0.000137952
0.000144443
0.00014047
0.000142499
0.000144526
0.000142134
0.0347468
0.00014586
0.000150963
0.000148898
0.000172831
0.000141691
0.0276566
0.0421154
0.000160093
0.000145528
0.0278245
0.000137785
0.00643586
0.0016292
0.000152429
0.000163544
0.000154411
0.000178922
0.000147048
0.000147981
0.000160341
0.000189105
0.000197539
0.0019504
0.000216413
0.000193863
0.00017454
0.00015017
0.00014389
0.00523923
0.000153663
0.00389519
0.000149222
0.0560877
0.00736212
0.00799115
0.00015104
0.018597
0.000154866
0.000142539
0.00014085
0.000152619
0.000180636
0.000142739
0.0110042
0.000214661
0.000197661
0.000141392
0.000155076
0.0141795
0.0142148
0.00603245
0.000156412
0.000144575
0.0536513
0.00156521
0.000148121
0.00018775
0.00058521
0.000180061
0.000271201
0.000158273
0.000161266
0.000737647
0.000138653
0.000138115
0.000174314
0.000144312
0.000261771
0.00794492
0.0246527
0.000152327
0.000194031
0.000166718
0.000140576
0.000179799
0.000148874
0.000134081
0.000137577
0.0387821
0.0293692
0.00434425
0.000314867
0.000187981
0.0131694
0.000155135
0.000158841
0.000343005
0.0338558
0.000151206
0.000149558
0.00014183
0.000156099
0.000138874
0.000141283
0.0210942
0.000141659
0.000138561
0.000166393
0.000149853
0.000139886
0.000141525
0.000628364
0.000177894
0.000151871
0.000144856
0.000161485
0.000150503
0.000141581
0.000140539
0.000139642
0.00122694
0.000157457
0.000204608
0.000159731
0.00014362
0.000137942
0.0021854
0.000208736
0.000266552
0.000143977
0.000147682
0.000170532
0.00014055
0.000159003
0.0047198
0.000329845
0.000145542
0.000152942
0.000141596
0.000163095
0.00880416
0.00216006
0.00433768
0.000156895
0.000141678
0.000137715
0.000155922
0.000224866
0.031504
0.00013905
0.0109941
0.000137939
0.000147972
0.000198969
0.000140254
0.00132406
0.000199312
0.00864437
0.000138553
0.000167224
0.000170901
0.038409
0.000141719
0.000150699
0.000225182
0.00222095
0.000816332
0.00188575
0.037939
0.000151013
0.000219923
0.000157421
0.000137774
0.0356512
0.000142467
0.00014085
0.000145763
0.000140343
0.0196048
0.0551557
0.000157037
0.0368397
0.000140792
0.000140973
0.000146008
0.000213253
0.000159041
0.0440274
0.00014371
0.000149137
0.000169301
0.0174684
0.000137762
0.00431461
0.000143569
0.000141689
0.0408345
0.000139873
0.0120328
0.000342952
0.00176066
0.0189341
0.000148585
0.00015361
0.000150185
0.0259692
0.00018774
0.000145336
0.0147372
0.000188323
0.000137771
0.000151474
0.0167836
0.000140965
0.0238078
0.0377477
0.000156774
0.000138999
0.000155725
0.000158263
0.0516121
0.000137528
0.000164761
0.000150164
0.0131676
0.0317619
0.000142692
0.000141092
0.000208707
0.000158886
0.000144717
0.000142817
0.000140031
0.000178952
0.000152641
0.01239
0.00014843
0.000147553
0.000144137
0.000151832
0.000145081
0.000151118
0.000374526
0.000324265
0.00884665
0.000148304
0.00013774
0.0104181
0.000157365
0.000178982
0.0115173
0.000187987
0.0026868
0.0395262
0.000137614
0.00832482
0.000202845
0.000150733
0.00014
0.000143713
0.000143639
0.00608437
0.000138802
0.000144689
0.0506658
0.000139791
0.0403851
0.000138816
0.000141972
0.0162519
0.000140094
0.000146039
0.000164765
0.000141818
0.00294055
0.000155421
0.035678
0.00268552
0.00014489
0.00028069
0.000221941
0.0480389
0.000337613
0.000143027
0.000155871
0.000172541
0.0224748
0.000289783
0.000200111
0.000148067
0.000143808
0.000188648
0.000140998
0.0465603
0.00169938
0.000140484
0.0231263
0.000138098
0.0277437
0.000150115
0.000172871
0.000150431
0.0114711
0.000267717
0.028391
0.0157492
0.000140343
0.00880738
0.0345911
0.000149028
0.0294288
0.000148527
0.000137957
0.000143769
0.000161382
0.000155158
0.000145837
0.000141093
0.000198683
0.000171556
0.000180666
0.0484092
0.000182443
0.000158071
0.000148004
0.000191836
0.000141104
0.000188457
0.0196299
0.000348439
0.00614027
0.000151124
0.000153283
0.00015085
0.000141803
0.000152743
0.000141261
0.0211999
0.000463203
0.0398617
0.000137598
0.000145756
0.000174856
0.000327389
0.000150746
0.000140011
0.000150076
0.000151685
0.000171321
0.000143387
0.0108922
0.000147582
0.0354745
0.000142453
0.000220887
0.000483055
0.0148986
0.000140142
0.000188619
0.000145057
0.000138239
0.000190784
0.000512353
0.00014155
0.000149665
0.0278183
0.000144217
0.000183862
0.00206923
0.000159747
0.00344613
0.000145778
0.0010622
0.000162795
0.0248644
0.000137756
0.00014129
0.0569945
0.000139921
0.000175142
0.000156067
0.000165116
0.0366926
0.000150922
0.000143813
0.000149941
0.00014148
0.0202886
0.0303092
0.000138255
0.0110911
0.000142641
0.000280465
0.000144079
0.000398189
0.000342517
0.000160961
0.000161303
0.000144054
0.0518103
0.000138112
0.0332913
0.000137753
0.000143087
0.000154761
0.000146016
0.000138391
0.000219579
0.000153411
0.000141558
0.000139115
0.000138754
0.000184063
0.000157463
0.00801827
0.00016229
0.000141674
0.00016956
0.000141052
0.000140472
0.000155555
0.0343435
0.000142423
0.000139348
0.0207358
0.00013905
0.000143465
0.000144445
0.000140251
0.000140242
0.0426874
0.000139554
0.000154265
0.000223258
0.000149441
0.00265733
0.000144781
0.000139346
0.032799
0.000345522
0.000146246
0.000172758
0.000165255
0.000294696
0.000141575
0.000152221
0.00379734
0.000147248
0.00014203
0.000238092
0.000149711
0.000150344
0.0190393
0.000155709
0.000183669
0.000628325
0.0152444
0.000154293
0.000143717
0.000173706
0.0316357
0.000149184
0.00237945
0.00206241
0.0213511
0.0297288
0.000140157
0.000144254
0.000142219
0.000381801
0.000334227
0.00028996
0.0284681
0.000140035
0.0116031
0.000140358
0.051224
0.000143408
0.000175089
0.000195148
0.000149215
0.000149845
0.000192324
0.00015774
0.00014831
0.00014911
0.000194735
0.000153647
0.000140665
0.000715732
0.000148618
0.000148594
0.00014336
0.0103487
0.000160807
0.00360843
0.000163887
0.000153029
0.0286278
0.000157543
0.000206911
0.000138062
0.000142275
0.0554723
0.0259289
0.000394799
0.000150062
0.000155079
0.0472902
0.000207255
0.00019143
0.000141213
0.00297775
0.00435855
0.000138549
0.00030748
0.000142312
0.000180034
0.0106825
0.000188181
0.000188673
0.000151518
0.0282201
0.000190579
0.000267829
0.000210532
0.000141705
0.000143371
0.000144296
0.00939816
0.000138589
0.00198042
0.000182193
0.00629108
0.000140326
0.0407042
0.0561684
0.000154712
0.00313081
0.000150473
0.000147402
0.000142195
0.000156129
0.000144388
0.000156075
0.0521087
0.000146138
0.000150922
0.0287213
0.000157339
0.000147291
0.000158655
0.000167993
0.000139638
0.0270112
0.000151519
0.0483939
0.000172237
0.000140605
0.000165766
0.000189481
0.0160452
0.000142947
0.000142328
0.0167642
0.000142859
0.000240745
0.00019539
0.000175173
0.000141969
0.000220986
0.0001439
0.000271597
0.000143639
0.000151409
0.00262094
0.00014969
0.000189053
0.00013739
0.0552269
0.0117557
0.00014249
0.000164913
0.0296647
0.000157352
0.000137982
0.030771
0.0558741
0.0267718
0.000140028
0.000148354
0.00236065
0.0464885
0.0143517
0.000146177
0.000153789
0.00014631
0.000159794
0.000148347
0.000138337
0.000779481
0.000140776
0.0409294
0.000154005
0.0108583
0.000140056
0.0382647
0.0148466
0.000186929
0.0021672
0.000367209
0.00013873
0.000192821
0.00403368
0.000139729
0.000148033
0.000145212
0.0292421
0.0180231
0.000144601
0.0248032
0.000176381
0.000142661
0.0302984