/*--------------------------------*- C++ -*----------------------------------*\
| =========                 |                                                 |
| \\      /  F ield         | OpenFOAM: The Open Source CFD Toolbox           |
|  \\    /   O peration     | Version:  v2012                                 |
|   \\  /    A nd           | Website:  www.openfoam.com                      |
|    \\/     M anipulation  |                                                 |
\*---------------------------------------------------------------------------*/
FoamFile
{
    version     2.0;
    format      ascii;
    class       volScalarField::Internal;
    location    "150";
    object      V0;
}
// * * * * * * * * * * * * * * * * * * * * * * * * * * * * * * * * * * * * * //

dimensions      [0 3 0 0 0 0 0];


value           nonuniform List<scalar> 
18758
(
0.0799859
0.0925212
0.113664
0.0826258
0.061648
0.124493
0.0737671
0.0415587
0.0597793
0.056716
0.10247
0.103846
0.0639088
0.0371073
0.0989789
0.081843
0.105347
0.113364
0.0836266
0.0506382
0.0827351
0.00494009
0.133429
0.1063
0.00433123
0.00754995
0.0484719
0.0169086
0.0122106
0.0761821
0.0291722
0.0448395
0.0407882
0.00525821
0.0511223
0.095681
0.0528863
0.0614685
0.0392356
0.11802
0.093968
0.0590953
0.0978873
0.0922428
0.106878
0.0265308
0.0500554
0.013817
0.00342833
0.0801875
0.104953
0.00729303
0.0807339
0.0508388
0.00581905
0.0659533
0.0916096
0.0518864
0.0144857
0.104868
0.0942172
0.0938881
0.0340056
0.017464
0.112713
0.00397115
0.104442
0.110919
0.0182972
0.124686
0.00683219
0.00730045
0.0815207
0.0319719
0.0321909
0.0258402
0.0271259
0.0818283
0.05076
0.102586
0.00829831
0.0358992
0.061643
0.0269087
0.0980172
0.00686656
0.0239749
0.0392441
0.0376031
0.00686779
0.00832928
0.107366
0.00995296
0.00268067
0.0837087
0.0933387
0.10763
0.0130665
0.0858612
0.0862386
0.0196359
0.0329448
0.112228
0.101944
0.00419116
0.0635499
0.0122291
0.00744851
0.0343028
0.0672431
0.0922902
0.0149379
0.082876
0.104926
0.0330709
0.0151337
0.0160228
0.113305
0.0143119
0.0937145
0.113891
0.0229601
0.0979388
0.102338
0.00271442
0.0481627
0.0974607
0.0956042
0.0111696
0.00174241
0.0137737
0.105622
0.0261589
0.00421091
0.11606
0.0978452
0.031177
0.0926325
0.0147728
0.00979198
0.0843193
0.0990986
0.014808
0.0403803
0.0024935
0.0112424
0.00350097
0.0113575
0.10187
0.0114231
0.00211866
0.00177057
0.0369373
0.0634956
0.0793908
0.0189473
0.010962
0.00913435
0.0326574
0.0917664
0.00999332
0.0799151
0.00227744
0.00405686
0.0232642
0.112008
0.0816048
0.00836702
0.00202858
0.0949818
0.00196095
0.0930445
0.0120338
0.09951
0.0359284
0.0689883
0.0747852
0.00607001
0.00526616
0.0370191
0.106826
0.0439757
0.00640892
0.033156
0.0125189
0.0620566
0.0721907
0.0432979
0.00272257
0.0260676
0.00177361
0.07119
0.0192893
0.0287453
0.117131
0.0352669
0.0132869
0.0492171
0.00345211
0.11626
0.0982398
0.00904798
0.0260095
0.0835742
0.0823428
0.00264934
0.0842255
0.0478838
0.00178869
0.00175242
0.120162
0.00986663
0.100167
0.0722274
0.0452982
0.11057
0.100315
0.0110198
0.102279
0.0927064
0.033413
0.103471
0.0163256
0.00981439
0.0236164
0.0979296
0.0315376
0.0059035
0.00986646
0.0777323
0.00687107
0.0128918
0.0349956
0.101455
0.0878928
0.0994597
0.0239215
0.00279801
0.0129429
0.0470939
0.0967519
0.0226921
0.0163602
0.115544
0.0111704
0.0113729
0.0926534
0.103879
0.105004
0.0735094
0.00219176
0.096087
0.119556
0.097627
0.115283
0.0118068
0.112281
0.00748401
0.0843925
0.0412879
0.0719569
0.0956699
0.0750944
0.0199024
0.0163028
0.0201275
0.0798582
0.0145567
0.0356548
0.0597667
0.0153398
0.0052578
0.059842
0.0738265
0.115863
0.0438888
0.0245234
0.104207
0.0700384
0.0298624
0.102811
0.102337
0.0888983
0.00368963
0.078841
0.0821528
0.102966
0.0142666
0.0802532
0.0946344
0.103844
0.0337762
0.0780408
0.10988
0.116786
0.104409
0.105762
0.104038
0.108509
0.00277672
0.0264587
0.123757
0.123258
0.0302924
0.0968144
0.0672832
0.0753036
0.0630305
0.0911451
0.0572102
0.0858813
0.0199202
0.012774
0.0153476
0.00958781
0.00455759
0.111965
0.0293755
0.0107526
0.107103
0.0165167
0.0321205
0.0109312
0.0868023
0.109773
0.00126439
0.121767
0.0891478
0.00266902
0.0224113
0.0729069
0.00441794
0.0874984
0.106877
0.0748716
0.0802223
0.0473112
0.0954
0.0375784
0.0865365
0.0488794
0.037178
0.013945
0.0333652
0.0717097
0.0317401
0.0810795
0.0698187
0.0144675
0.0987957
0.00405167
0.0966985
0.0124187
0.0761035
0.00235021
0.0405125
0.0433258
0.0404485
0.0741246
0.0735744
0.0925757
0.0128661
0.0321534
0.0914693
0.0264544
0.0314573
0.0750987
0.0200292
0.0409613
0.0141916
0.00246621
0.0140795
0.0389797
0.0226149
0.106934
0.0132823
0.109263
0.00380245
0.00957016
0.0983012
0.0893695
0.103656
0.0916884
0.00409346
0.0871058
0.0898709
0.0125872
0.00243659
0.0383083
0.087701
0.0664018
0.0824302
0.0252526
0.0511046
0.0882286
0.101469
0.0563673
0.0683123
0.0936708
0.105566
0.0954265
0.030408
0.031599
0.019282
0.0209046
0.0219107
0.00246001
0.0388572
0.0109336
0.105198
0.096033
0.0805924
0.0325565
0.0453153
0.0362665
0.0145338
0.0642522
0.106334
0.0151639
0.0860528
0.0206537
0.0930796
0.00302579
0.0185514
0.0886149
0.117389
0.00357023
0.0102977
0.108198
0.0911576
0.0907173
0.0299163
0.113442
0.11376
0.0215473
0.0164697
0.0389538
0.072211
0.0376701
0.0310939
0.0130005
0.0471065
0.0993487
0.00377504
0.101273
0.0924976
0.00545392
0.0798017
0.029259
0.0957444
0.0301023
0.116928
0.0153592
0.104981
0.0571812
0.0026243
0.0959915
0.106706
0.0188865
0.058818
0.0833481
0.0997635
0.0881896
0.0212338
0.00578189
0.0405782
0.0163644
0.0320317
0.00606814
0.0848686
0.0126764
0.0914232
0.102449
0.0109367
0.0207919
0.030548
0.0369432
0.0984712
0.0761877
0.0747847
0.104727
0.0480402
0.0903006
0.0832968
0.0764794
0.0790177
0.0571023
0.104943
0.110703
0.00885038
0.108621
0.092669
0.0998042
0.048109
0.0744503
0.0900434
0.0744275
0.107048
0.086625
0.0172961
0.00666185
0.00492957
0.0210993
0.0984654
0.0632474
0.00433542
0.00357222
0.0773372
0.0991617
0.0487619
0.00321832
0.11235
0.106451
0.00932765
0.0476297
0.00881343
0.0942587
0.0937281
0.0162494
0.102812
0.0757438
0.107029
0.0890289
0.0862187
0.108369
0.0810488
0.085923
0.0707406
0.0320152
0.104144
0.0825316
0.09642
0.0252135
0.0364418
0.0349178
0.0672105
0.0143214
0.0259614
0.0288433
0.0801756
0.0927464
0.102533
0.0356086
0.040389
0.00346355
0.0108445
0.100339
0.0824329
0.0334638
0.00771441
0.0978851
0.0964176
0.0816746
0.0907084
0.0789797
0.0865667
0.0442193
0.0838575
0.0131868
0.074496
0.104211
0.0226457
0.0053822
0.0735967
0.0903092
0.0736863
0.0844337
0.0750671
0.0822647
0.0699907
0.0993404
0.0340373
0.0511969
0.0701443
0.0138599
0.0942912
0.0980348
0.0105975
0.1227
0.0845834
0.0616331
0.113757
0.0300261
0.0244046
0.100795
0.0654325
0.00261139
0.106425
0.0563317
0.0943923
0.0918862
0.106078
0.0246035
0.0354755
0.0337192
0.0684973
0.0369646
0.048755
0.102243
0.0955671
0.00258645
0.106289
0.121025
0.0679587
0.0753734
0.0268658
0.0217891
0.0941315
0.0328524
0.0883687
0.0164726
0.0517318
0.0905286
0.0770885
0.0251116
0.00254078
0.0205907
0.0765916
0.0826853
0.094172
0.0139019
0.0873805
0.0798432
0.0808825
0.0898753
0.023951
0.0448366
0.115049
0.0613023
0.0770512
0.0655349
0.0669988
0.10506
0.0730367
0.00406783
0.108065
0.0161769
0.00158052
0.00250111
0.0855999
0.091997
0.0286244
0.0828541
0.103699
0.0965266
0.069942
0.0906951
0.0162867
0.0777953
0.0353859
0.0999992
0.0890758
0.088567
0.0434086
0.0110017
0.0948849
0.0723132
0.0674037
0.0148582
0.0924575
0.0129001
0.0833535
0.0645949
0.0362685
0.0932809
0.0880673
0.0283882
0.0943516
0.107489
0.0158766
0.0364508
0.0427846
0.0948827
0.0038714
0.00250756
0.0428887
0.0958621
0.0665066
0.0297842
0.0302733
0.0310899
0.0120768
0.0504176
0.0818736
0.0914866
0.0143598
0.0104069
0.0925603
0.0190075
0.0275952
0.0553049
0.0336848
0.0375861
0.104028
0.0364894
0.103255
0.0465912
0.0267346
0.076083
0.0150916
0.0540512
0.0590043
0.0186483
0.0969911
0.0995367
0.0864507
0.0705347
0.0116238
0.103419
0.0679477
0.085464
0.00912462
0.00862121
0.0522812
0.0612035
0.0203085
0.0643208
0.0841882
0.0258584
0.044988
0.0347905
0.0546069
0.108817
0.00893112
0.0907027
0.0060148
0.00885929
0.0324456
0.0057861
0.082538
0.0732802
0.0337629
0.0126346
0.0256047
0.0646799
0.0867468
0.100263
0.0913448
0.0944252
0.0304916
0.0584678
0.0360718
0.00456182
0.0945945
0.0938731
0.0467494
0.037453
0.0803858
0.0632668
0.0948908
0.00432872
0.094256
0.0788403
0.0916683
0.0134144
0.0233124
0.0724956
0.0836496
0.0745877
0.0342686
0.0678433
0.0157056
0.0868285
0.0915769
0.0147093
0.0367413
0.103562
0.081917
0.0561348
0.0291225
0.0932524
0.0998826
0.020057
0.0565323
0.0134488
0.0841415
0.00409357
0.104218
0.0236998
0.0127105
0.0563847
0.0150466
0.0947356
0.0511803
0.0906926
0.0717218
0.0299609
0.0895552
0.0772741
0.0307463
0.00146906
0.0924138
0.101216
0.0871406
0.0444323
0.0461722
0.0954731
0.0735159
0.106809
0.0912081
0.0821632
0.0658586
0.070512
0.0947359
0.00846114
0.018675
0.0126878
0.0110222
0.085624
0.00415569
0.0731119
0.0683284
0.0503229
0.100499
0.0819458
0.102177
0.0894354
0.0322478
0.0140155
0.00747704
0.0276614
0.0927858
0.0745833
0.0197894
0.0292475
0.01999
0.115013
0.0703617
0.100423
0.00418457
0.0301476
0.0707149
0.0986133
0.0111789
0.0100375
0.0726313
0.0014192
0.0394754
0.0418252
0.117058
0.102703
0.00485154
0.0439275
0.108535
0.0165016
0.0421457
0.0707254
0.119539
0.0638341
0.070797
0.0724552
0.0839892
0.0699748
0.0704655
0.0503044
0.024326
0.0512243
0.040515
0.0618306
0.00346468
0.0693355
0.098078
0.00498473
0.0485563
0.0935342
0.099687
0.101035
0.0434769
0.0472321
0.0877308
0.0386509
0.0512792
0.04243
0.00568733
0.0257409
0.0873373
0.0731776
0.0465545
0.0471109
0.0901837
0.0123164
0.0898781
0.0169659
0.0187244
0.0667707
0.0817238
0.0860742
0.0420369
0.0119276
0.0891334
0.0703489
0.0187785
0.011056
0.0414723
0.0452315
0.050904
0.0880022
0.0405832
0.0310101
0.0701372
0.00737911
0.0116498
0.0586083
0.0287111
0.00673106
0.107333
0.0171288
0.0924943
0.0857641
0.0227967
0.0536868
0.0812333
0.0932169
0.0802245
0.0722234
0.0845775
0.0877671
0.0778983
0.0868749
0.00471961
0.0673741
0.0915991
0.0214162
0.0223749
0.0842757
0.0126618
0.0830975
0.074434
0.104577
0.0624063
0.011579
0.102248
0.0830677
0.0248156
0.102179
0.0361589
0.0454788
0.0469617
0.0304572
0.0758511
0.00795562
0.0204188
0.104366
0.0508744
0.0345181
0.0442618
0.00234124
0.0435709
0.10523
0.0619635
0.053797
0.0734345
0.0261019
0.0789012
0.108852
0.0645033
0.076033
0.0667003
0.0922334
0.0278766
0.0525648
0.0648422
0.101214
0.0836846
0.0706421
0.084564
0.0102445
0.0567434
0.0950316
0.00214476
0.0252173
0.102772
0.00179767
0.113341
0.00935407
0.0603369
0.0909703
0.0927922
0.0437066
0.0839058
0.0807512
0.0129478
0.0782468
0.0281645
0.00774732
0.0841214
0.0867044
0.0719573
0.0238225
0.0367726
0.0646051
0.0427746
0.0879383
0.0868339
0.063268
0.0675225
0.00484538
0.0791748
0.0274813
0.0851538
0.0669402
0.083321
0.0792173
0.018629
0.057012
0.0264577
0.0198365
0.0617616
0.0689798
0.085139
0.0812174
0.0659321
0.0998933
0.0674936
0.023492
0.0919244
0.0945252
0.0993612
0.0746618
0.00436083
0.0869641
0.0836652
0.0284678
0.0827533
0.01749
0.0812481
0.102243
0.0446272
0.0741668
0.0975541
0.0570722
0.0411996
0.064936
0.0228547
0.0132035
0.0443917
0.0625976
0.0949779
0.0883837
0.0611134
0.0724535
0.0505773
0.0447736
0.0729821
0.0999178
0.103568
0.00463403
0.00890154
0.0959379
0.0986624
0.0196317
0.0559988
0.0206382
0.0297523
0.0356517
0.00246646
0.100884
0.0934398
0.0994721
0.0354789
0.0770011
0.0905221
0.0165659
0.0839219
0.076624
0.0198283
0.00198888
0.00333524
0.0370988
0.0493607
0.0506997
0.0500446
0.0990327
0.0865219
0.0190183
0.0945938
0.085401
0.104982
0.00250879
0.023201
0.0757716
0.0942449
0.0270468
0.0688274
0.0630094
0.0239781
0.0624436
0.0348359
0.0952873
0.0328863
0.0544296
0.0806132
0.0316715
0.0762446
0.0885697
0.0818819
0.0857432
0.106443
0.0310563
0.0889153
0.0518365
0.0101743
0.0499317
0.0760711
0.00912509
0.0926264
0.0797165
0.0147676
0.0886737
0.0596415
0.0339727
0.0937064
0.0509341
0.0242799
0.0518735
0.0256913
0.0222263
0.0839686
0.0999025
0.0342159
0.0939061
0.0764939
0.105072
0.0443562
0.0756169
0.0125524
0.0704364
0.0219843
0.00433616
0.0698687
0.0814566
0.0148343
0.0730476
0.0724163
0.0204299
0.0563421
0.0802501
0.0769266
0.0179811
0.0373407
0.0846677
0.086465
0.0454215
0.0843084
0.0862447
0.0203453
0.00440025
0.0651857
0.00975703
0.0654747
0.00175142
0.00761176
0.00209201
0.00539418
0.0209751
0.0431765
0.0968361
0.0108263
0.0311741
0.0826637
0.0671869
0.0617512
0.0279436
0.0899969
0.110748
0.0838934
0.00944024
0.0213187
0.0960401
0.00856033
0.0593859
0.0736881
0.0729929
0.0747749
0.00932202
0.0104224
0.114082
0.0222625
0.0239449
0.00247706
0.00163202
0.0217601
0.0224697
0.10196
0.00223189
0.0300409
0.086992
0.0604881
0.0306213
0.00738298
0.0105516
0.0527803
0.0576977
0.0921622
0.0681285
0.00434039
0.0398777
0.0975413
0.0445161
0.0846545
0.110661
0.0953921
0.0380694
0.0968254
0.106317
0.0358551
0.042407
0.0243827
0.00250161
0.0930549
0.0415242
0.00710965
0.0211597
0.0873354
0.058958
0.079609
0.0690637
0.0819483
0.0941027
0.0944271
0.0901115
0.00755072
0.0675309
0.0888672
0.0181084
0.0387183
0.0168458
0.0381705
0.0377596
0.090651
0.0373259
0.0746049
0.0776827
0.0433076
0.0882262
0.0112165
0.0942374
0.0732212
0.097437
0.0807902
0.0682285
0.0723529
0.105241
0.0278799
0.0817968
0.0711549
0.0520118
0.00612903
0.0752999
0.0963622
0.00408444
0.0572889
0.00230991
0.0290237
0.0897351
0.0820262
0.00703604
0.0198113
0.0921095
0.0971758
0.0242086
0.0206232
0.0992628
0.0971188
0.0963019
0.0728995
0.0616022
0.0912572
0.059562
0.0515315
0.0707479
0.0960312
0.0901738
0.0963574
0.0845687
0.0811751
0.0687356
0.00328147
0.00668986
0.0815189
0.00450799
0.0860184
0.0218645
0.00690542
0.0859251
0.04066
0.0147846
0.00271631
0.077066
0.0419397
0.0978933
0.0102342
0.0717915
0.0809845
0.0737823
0.0767004
0.109541
0.0156457
0.0110571
0.00881574
0.0490279
0.103801
0.0976432
0.09244
0.0533732
0.0746939
0.00661889
0.0165324
0.0700072
0.0605772
0.0720656
0.0910617
0.00430716
0.0223962
0.106343
0.0962227
0.0312231
0.0903267
0.0657074
0.0996727
0.0563395
0.0592126
0.107067
0.086053
0.0621952
0.0246738
0.0140472
0.10318
0.0330094
0.00397363
0.0866186
0.00336179
0.0293941
0.0115252
0.10979
0.0772613
0.0421392
0.0179931
0.0036803
0.0919028
0.033361
0.100555
0.0673692
0.0886665
0.0824398
0.0306633
0.0203729
0.0258743
0.0309545
0.0892381
0.0686917
0.0206337
0.0556581
0.104353
0.0132747
0.00674617
0.00686717
0.0300635
0.0936422
0.0471853
0.00175535
0.0532706
0.0839677
0.069207
0.00756863
0.0917366
0.0952648
0.00783276
0.0136056
0.0710898
0.0585736
0.0912895
0.00568627
0.0224121
0.00185592
0.0142624
0.0542127
0.0739938
0.0471524
0.0236268
0.0963229
0.0234648
0.0936913
0.0781863
0.0836294
0.0482192
0.01159
0.021837
0.00200076
0.0710094
0.014018
0.0830469
0.0468307
0.0845419
0.0828173
0.0125611
0.0894179
0.00262857
0.0938148
0.00707816
0.0130692
0.0643454
0.0893334
0.0702928
0.0261907
0.0998334
0.0743212
0.100026
0.00240115
0.0416091
0.0736027
0.0838088
0.0613119
0.088858
0.0426401
0.0755175
0.070394
0.00351985
0.0240003
0.0663837
0.0791218
0.0391156
0.0773265
0.100912
0.00906154
0.0516093
0.0145166
0.0604329
0.0794411
0.00414866
0.0594904
0.0175175
0.0121147
0.0918448
0.0978246
0.00389312
0.103079
0.0852555
0.0241732
0.00744064
0.0431869
0.102502
0.0664481
0.0999004
0.0730096
0.0958675
0.0305854
0.0892932
0.062393
0.00325672
0.0921195
0.0424327
0.0871612
0.0718222
0.00275314
0.0729892
0.0725729
0.0235305
0.00425664
0.0967836
0.103391
0.0655752
0.0234749
0.0138669
0.0107862
0.0963863
0.0925251
0.0424634
0.0917745
0.0979458
0.0859659
0.0454939
0.0469546
0.0730407
0.0371764
0.0923463
0.069298
0.0751667
0.0573016
0.0469558
0.0208115
0.0884788
0.0646785
0.0937814
0.0945724
0.0922304
0.087953
0.0048367
0.00956455
0.0331395
0.00923604
0.0824539
0.0938
0.0995115
0.0946735
0.0858145
0.0459713
0.0660105
0.0754919
0.035504
0.0853274
0.0977534
0.0262717
0.0479121
0.0627387
0.0103808
0.070541
0.0200053
0.00600301
0.00789394
0.0415435
0.0280731
0.0227941
0.0732456
0.0795278
0.00855867
0.00377402
0.0964391
0.0135187
0.0839631
0.0583974
0.030017
0.0954721
0.0133617
0.044181
0.0866562
0.0186164
0.0723151
0.0535905
0.00425284
0.0650171
0.0941618
0.0183167
0.034722
0.0877256
0.0199898
0.0219667
0.0897467
0.0540861
0.0379941
0.0851028
0.0491664
0.0752563
0.0990982
0.0045817
0.0947246
0.00833491
0.00972528
0.0618296
0.0475657
0.062188
0.0750748
0.0144342
0.0399499
0.0927742
0.0951631
0.0352319
0.00448024
0.025592
0.00443055
0.0203041
0.0150894
0.103557
0.0914847
0.0283548
0.100215
0.0337211
0.0243239
0.00366642
0.0665008
0.0215182
0.0854227
0.00809006
0.0622726
0.108079
0.0132663
0.0133279
0.0592394
0.0725813
0.0553741
0.0701724
0.0259632
0.0714047
0.0530856
0.0727425
0.0655387
0.0219854
0.0962566
0.0897154
0.00223387
0.0904135
0.00638683
0.00845305
0.00655947
0.0721068
0.0812107
0.086742
0.0685793
0.0331596
0.00284351
0.0183588
0.062335
0.0884473
0.071419
0.0213065
0.00460954
0.0349779
0.00692946
0.00800112
0.00329667
0.0385842
0.0712108
0.0598262
0.0851286
0.101495
0.0964107
0.0282464
0.0615154
0.075783
0.0727782
0.0693635
0.0243525
0.0833754
0.026515
0.0517058
0.0929687
0.0130887
0.00272199
0.0299512
0.0950711
0.0699706
0.0677375
0.0659405
0.0733172
0.0535394
0.00727494
0.0676306
0.0973383
0.0381659
0.0765565
0.086226
0.0801634
0.0686757
0.0745978
0.0258705
0.0335713
0.078814
0.0703896
0.0705466
0.0931486
0.0917369
0.0826174
0.0537649
0.00465823
0.071429
0.0167221
0.0456732
0.0203455
0.0516905
0.0469285
0.00345007
0.0440651
0.0868533
0.0386547
0.0727046
0.0478436
0.0997647
0.0792117
0.00605346
0.0959927
0.0102201
0.0741407
0.0826366
0.0148992
0.003678
0.0757517
0.0591872
0.0158406
0.0581088
0.0529928
0.096319
0.0844369
0.0247824
0.0149107
0.0054229
0.00257408
0.0756094
0.0756153
0.0516825
0.0691454
0.0905966
0.0437386
0.104084
0.0448448
0.0984927
0.10069
0.0778456
0.0904091
0.0350555
0.0349244
0.09183
0.0391969
0.00550714
0.0249244
0.00753333
0.0462594
0.0407023
0.0949665
0.0184206
0.00538328
0.054503
0.00280091
0.0870899
0.0490533
0.102862
0.0117502
0.0987684
0.0142748
0.0772129
0.108742
0.0138291
0.0963026
0.0673861
0.0800115
0.089294
0.0358233
0.0842695
0.0809013
0.0025887
0.0577114
0.0525166
0.0343774
0.0485721
0.089606
0.0354072
0.0712081
0.0593777
0.0728653
0.0883039
0.0482146
0.0844933
0.0052712
0.0919481
0.0810559
0.0934625
0.097631
0.100151
0.0345501
0.0963363
0.0965818
0.0696277
0.0837956
0.0186239
0.0790749
0.0205173
0.00930453
0.0146803
0.014395
0.0384276
0.0497862
0.067984
0.00404462
0.0852952
0.0526387
0.0872237
0.0498786
0.0569387
0.0394762
0.0117677
0.0814631
0.0777294
0.0343808
0.065476
0.0729491
0.0715268
0.0270232
0.0700317
0.0697275
0.0220294
0.0947007
0.022308
0.0804988
0.0531645
0.0504562
0.103658
0.0490854
0.0947732
0.033242
0.0955268
0.0160634
0.0970881
0.0802043
0.0813166
0.0355839
0.00287606
0.0808411
0.0370506
0.0274664
0.0382832
0.0860896
0.0644044
0.0935108
0.0331594
0.0812591
0.0801919
0.0587354
0.0179439
0.0226832
0.00369096
0.0830442
0.0916411
0.0746844
0.0207525
0.0962729
0.00672311
0.0707946
0.0354597
0.086245
0.0721014
0.0165699
0.0571486
0.0972029
0.072781
0.0215876
0.00922997
0.0976644
0.0096221
0.00438866
0.051437
0.0155985
0.0406325
0.0674428
0.0547316
0.0900077
0.0208131
0.0419206
0.0843219
0.0998687
0.0924233
0.0840332
0.0992793
0.0520008
0.0607852
0.00859951
0.0965168
0.0722857
0.0543015
0.095036
0.076319
0.00443921
0.00772947
0.0861051
0.0295471
0.0307819
0.0836155
0.0814311
0.0747227
0.0964704
0.0173666
0.0860509
0.0986272
0.0931565
0.0110435
0.0159004
0.0284126
0.0221076
0.0935625
0.0723928
0.0250403
0.0987254
0.0278422
0.00488011
0.10144
0.00985717
0.0942297
0.00273154
0.0990765
0.00207645
0.0442383
0.0446418
0.0448563
0.0728544
0.0134222
0.0953813
0.0657052
0.0260837
0.0557161
0.0568116
0.0889992
0.0953828
0.0688101
0.0134813
0.00207238
0.0734868
0.0800346
0.0502345
0.0705252
0.0475073
0.0895118
0.0121408
0.0868673
0.104598
0.0674501
0.0853783
0.089978
0.00995958
0.0273644
0.015408
0.01027
0.0843269
0.0958058
0.0955927
0.0597974
0.0859176
0.068533
0.0577711
0.0731604
0.00700431
0.0908493
0.0819308
0.0433272
0.0326799
0.0832097
0.00269653
0.00288671
0.09671
0.0601693
0.00813893
0.0956193
0.0860252
0.0286478
0.0878758
0.096534
0.0290828
0.0101534
0.0737108
0.0901318
0.0182851
0.0304669
0.011899
0.0771344
0.0115579
0.00596403
0.0481593
0.0376465
0.0637085
0.0485085
0.0257635
0.0577226
0.0529031
0.00456
0.0248834
0.0663982
0.03657
0.0318079
0.0269881
0.0878237
0.0939417
0.0371464
0.00941661
0.071969
0.0721782
0.0554404
0.011668
0.0880149
0.051153
0.00956148
0.0816286
0.087239
0.0239686
0.0951163
0.00577439
0.0297855
0.0422277
0.0319351
0.0921146
0.0102035
0.02108
0.0252166
0.0300008
0.00857924
0.0894535
0.100772
0.0101134
0.0555494
0.0997001
0.0855454
0.0131111
0.0907076
0.0103
0.0663622
0.0907144
0.0146791
0.105193
0.0070547
0.0804203
0.00853437
0.00363729
0.0551116
0.0950925
0.00621104
0.0253803
0.0248488
0.0899628
0.0960736
0.00470168
0.0298437
0.0594305
0.0730554
0.0478193
0.0904793
0.0732844
0.0260686
0.0765739
0.0795918
0.0253839
0.0586523
0.0909099
0.0963125
0.0419879
0.00782984
0.109286
0.0523516
0.0181973
0.0415161
0.0740954
0.0834801
0.095928
0.0411607
0.0227424
0.0406356
0.0321156
0.0631846
0.0963865
0.0109707
0.00959441
0.0428048
0.0987339
0.0384051
0.0187289
0.0810399
0.0178051
0.0320546
0.0170789
0.0956169
0.0246624
0.0961735
0.0232803
0.0803043
0.0931276
0.0868792
0.0228647
0.0974658
0.0928212
0.0247145
0.0321332
0.00311774
0.092995
0.0846197
0.0981108
0.0862595
0.0151726
0.0683304
0.05284
0.0139602
0.0809677
0.0821273
0.0422761
0.0155508
0.00577517
0.0974441
0.0820937
0.0110776
0.0515644
0.0320906
0.076997
0.00831029
0.0563146
0.00536608
0.025057
0.0848734
0.00442478
0.0971816
0.075351
0.0478974
0.0951473
0.0370597
0.00434151
0.0340987
0.00309816
0.0968533
0.0749553
0.0546623
0.0143828
0.0726959
0.00369681
0.0692774
0.0407179
0.0231683
0.0203748
0.0941578
0.0859245
0.0912821
0.0967533
0.0088573
0.0849518
0.0298601
0.0481924
0.0797728
0.00361193
0.0924808
0.0250283
0.0863689
0.00255741
0.0711441
0.0582461
0.00186744
0.0977798
0.101297
0.0270558
0.0250419
0.0946836
0.00249921
0.00931765
0.0240882
0.0684757
0.0313167
0.042172
0.0041093
0.0921151
0.0430656
0.071697
0.0202735
0.00567013
0.0727206
0.101256
0.00828967
0.0294493
0.053767
0.0559679
0.0862066
0.0138953
0.0298579
0.0327539
0.0866452
0.104383
0.095322
0.0381424
0.0989516
0.0723821
0.0493313
0.0930936
0.0856562
0.0365098
0.0943779
0.0627835
0.0483161
0.00947256
0.0248553
0.00813715
0.0888332
0.00961902
0.0986923
0.0712708
0.0911757
0.0274017
0.0734093
0.0700522
0.0675644
0.0140657
0.0987107
0.0559413
0.00284538
0.0465597
0.00216718
0.090268
0.0816474
0.0216934
0.0833392
0.0476339
0.118016
0.0727184
0.00855241
0.0886948
0.00523738
0.0845646
0.0860968
0.0209612
0.0337844
0.00869468
0.0135033
0.0722785
0.0316229
0.0253592
0.00339197
0.0159389
0.0949208
0.0442426
0.0605659
0.0112718
0.093163
0.00814966
0.0556557
0.0794715
0.0360842
0.0950101
0.00283138
0.0841848
0.0967432
0.0328201
0.0136856
0.0149205
0.00494614
0.00198123
0.0944634
0.0333539
0.00224566
0.0396254
0.00383931
0.034766
0.0954258
0.0639919
0.0252536
0.030495
0.048532
0.0776546
0.0345366
0.0149028
0.0189329
0.00253036
0.0150806
0.0325966
0.0833916
0.0195741
0.0981255
0.00642448
0.0204814
0.0193963
0.0869553
0.0722405
0.023168
0.0368021
0.0955762
0.0363151
0.0907161
0.00268077
0.0334629
0.00276558
0.109724
0.0486616
0.0149196
0.0180576
0.0879176
0.0976411
0.0711338
0.0382267
0.0150629
0.0629711
0.0834865
0.0358808
0.00509589
0.0827697
0.0970454
0.0456201
0.0280754
0.0871615
0.00505496
0.0572108
0.0939284
0.0155299
0.0431436
0.0730296
0.0336984
0.00465219
0.0601846
0.015771
0.0767437
0.0291691
0.05362
0.0518961
0.0243838
0.0244856
0.010312
0.0950705
0.088862
0.00545659
0.0756561
0.0977985
0.0314976
0.0255843
0.00750171
0.036655
0.0575742
0.0336943
0.0753717
0.026273
0.00410935
0.0938507
0.0851703
0.0954189
0.0173985
0.0651881
0.0494667
0.0960078
0.0305761
0.0175516
0.0557449
0.00250511
0.0964953
0.00634565
0.0951038
0.0912747
0.0284487
0.0492316
0.106533
0.0302529
0.0291789
0.0742003
0.0975323
0.0923469
0.0230785
0.0195968
0.0474246
0.0746588
0.0857
0.0315642
0.0744264
0.0861848
0.031884
0.00735707
0.0961306
0.0981594
0.00465273
0.0956062
0.0720351
0.0692362
0.0816217
0.0889191
0.00836567
0.100903
0.0684725
0.00523131
0.0434375
0.011747
0.0978005
0.093715
0.00323779
0.0196219
0.0536619
0.00770614
0.102339
0.0163321
0.0738371
0.0379033
0.0574733
0.0740416
0.0969871
0.0107231
0.0342063
0.0342355
0.00410469
0.0353902
0.0160265
0.00415843
0.0254994
0.030657
0.0924102
0.0249434
0.00483925
0.0606584
0.0554371
0.0521418
0.0260275
0.00466255
0.0885692
0.0529656
0.0696351
0.0997295
0.066038
0.0170457
0.0036135
0.0933579
0.0317089
0.0880671
0.00275552
0.0621464
0.0200262
0.0113517
0.0719352
0.0602121
0.00494998
0.0237898
0.045899
0.0344311
0.0192858
0.0287568
0.0787564
0.0298333
0.0438555
0.0362479
0.0719332
0.0242423
0.0651038
0.0941082
0.0228819
0.0298561
0.00457059
0.0295899
0.014743
0.0945644
0.0725663
0.00397132
0.00273929
0.0687891
0.0832477
0.0367784
0.00249992
0.0137985
0.0117644
0.0970021
0.0587904
0.0582581
0.0958005
0.0482938
0.0883603
0.0112534
0.0634083
0.00618602
0.00613703
0.0954974
0.00334401
0.0154813
0.0931433
0.0644506
0.0733194
0.0716326
0.0495014
0.0622578
0.0921546
0.0765837
0.0145082
0.085418
0.0858802
0.00175629
0.00415091
0.09686
0.0922464
0.029015
0.0374366
0.0771085
0.0463943
0.0513986
0.0311603
0.00256094
0.0928462
0.0284344
0.00364961
0.0962179
0.0950606
0.0251241
0.0249943
0.0764633
0.00290024
0.078849
0.00459255
0.0146893
0.0975189
0.0340592
0.00553857
0.0301049
0.0711973
0.0728344
0.00194222
0.0961119
0.0542778
0.00746795
0.0146642
0.0701165
0.0270918
0.0606503
0.0435408
0.0680534
0.0237181
0.0918194
0.0336295
0.00713499
0.096527
0.00380878
0.0296241
0.0959024
0.0206124
0.00372962
0.0464849
0.0943328
0.00500598
0.00400068
0.00267133
0.086935
0.0449207
0.0357187
0.00377479
0.00214597
0.0475926
0.0506126
0.0540911
0.0264646
0.0426175
0.0919612
0.0406071
0.0775727
0.00665298
0.0367147
0.0368075
0.0915231
0.00366068
0.0386408
0.00674104
0.00331457
0.068064
0.0787486
0.0151239
0.014366
0.0855254
0.0413163
0.0572123
0.0039001
0.00195259
0.0600092
0.00266845
0.021873
0.0717988
0.00392077
0.0214996
0.0154529
0.0041201
0.00355164
0.0805939
0.00542666
0.0943102
0.0973609
0.00284923
0.0234842
0.0949317
0.00771816
0.0733063
0.00511153
0.0845627
0.0304581
0.0392057
0.00434371
0.00338038
0.031748
0.0928888
0.0720563
0.0378678
0.0962994
0.0205847
0.00755652
0.0156641
0.0223827
0.0925348
0.0970679
0.0337211
0.0956685
0.0844951
0.0867184
0.0983367
0.09517
0.0280901
0.00282617
0.0159867
0.021182
0.00858267
0.0640376
0.00200595
0.0948225
0.0249731
0.035981
0.100134
0.0969001
0.0519224
0.0976076
0.00786788
0.10029
0.0970282
0.00686918
0.091846
0.0121907
0.0299931
0.0147928
0.0148797
0.0957255
0.00825748
0.00536915
0.070815
0.0481978
0.00333893
0.0150414
0.0330809
0.0916898
0.0416541
0.0941761
0.0244753
0.099506
0.00344666
0.0861151
0.0690031
0.0021231
0.0403524
0.0946005
0.0719658
0.0834373
0.084518
0.0595587
0.0902566
0.0865269
0.0202748
0.0091919
0.00817397
0.0930521
0.00756126
0.0386821
0.0863523
0.0969153
0.0861347
0.06079
0.0765083
0.00916374
0.085831
0.059816
0.0622008
0.00442887
0.00408578
0.088905
0.0318702
0.00810041
0.00722055
0.0421456
0.00692798
0.0661927
0.0343691
0.0889805
0.0151245
0.0131316
0.0619782
0.0102876
0.0938556
0.100724
0.0770993
0.0963734
0.0597362
0.0784038
0.0948186
0.0337682
0.10791
0.00840153
0.0255034
0.0419378
0.0257292
0.0491439
0.0439912
0.0233475
0.0212826
0.0118488
0.00844705
0.0927671
0.0626648
0.0945711
0.00425534
0.0717836
0.094189
0.0584749
0.0958402
0.00603325
0.00448886
0.0941512
0.00391796
0.00472261
0.00548423
0.00479338
0.0678014
0.0948844
0.0114283
0.0757433
0.0862086
0.00489821
0.0919901
0.00560292
0.093588
0.0608959
0.0254007
0.00469308
0.0975695
0.0205651
0.0925241
0.0784668
0.00747007
0.0956868
0.0144205
0.0313636
0.00961148
0.039481
0.0234353
0.0538802
0.00821072
0.0857
0.0140772
0.0134957
0.0599851
0.0615916
0.00918718
0.00426319
0.00472744
0.0489223
0.0145863
0.0955793
0.00448367
0.022799
0.0744028
0.0384938
0.00853595
0.0235738
0.0935209
0.0103197
0.0676653
0.00709998
0.00990093
0.0751969
0.00584172
0.0700477
0.0382028
0.0840332
0.0952976
0.0405392
0.0292153
0.0103268
0.0481121
0.00884266
0.0942903
0.0608804
0.0942003
0.0860431
0.0487399
0.063454
0.097054
0.0150547
0.0795421
0.0850965
0.0737691
0.00182977
0.0145259
0.00560265
0.047595
0.00956592
0.084253
0.0620602
0.0437916
0.00920973
0.0326741
0.095352
0.00729946
0.0635384
0.027602
0.0437628
0.0336715
0.0360127
0.0215822
0.00826918
0.0714217
0.0862565
0.0783988
0.0550024
0.00880259
0.0268926
0.00317384
0.090967
0.0424541
0.0432284
0.0130552
0.0731672
0.0825088
0.0855881
0.0482132
0.0314168
0.0796094
0.0626643
0.00432047
0.100839
0.0123843
0.0868019
0.0158233
0.00312279
0.0459017
0.0104709
0.00514164
0.00503707
0.00564176
0.0494923
0.00307761
0.0417174
0.00949764
0.0892865
0.0102629
0.0500032
0.02342
0.0513586
0.0117509
0.0136931
0.012996
0.0843363
0.0614143
0.0947323
0.0950164
0.00979664
0.0197825
0.0058686
0.0331687
0.00521471
0.0602718
0.00702201
0.010913
0.0795751
0.0967204
0.0584516
0.0146362
0.0100506
0.0366604
0.098478
0.0926541
0.106684
0.110246
0.108056
0.0943859
0.0738174
0.011853
0.00311185
0.0662257
0.025394
0.0711709
0.00315903
0.0412362
0.0502953
0.0103865
0.0930908
0.083836
0.0328458
0.088383
0.0925803
0.00250708
0.0990087
0.0206801
0.0109892
0.0112785
0.0935937
0.0451474
0.0512776
0.0923738
0.102289
0.106205
0.0966374
0.0216554
0.0869192
0.00757101
0.0539245
0.0323351
0.0252181
0.0485435
0.102885
0.00524809
0.041582
0.0145038
0.0364169
0.0249782
0.0144338
0.00462024
0.0119926
0.00404041
0.0261669
0.0108214
0.0129572
0.0701166
0.0140457
0.0324749
0.0905738
0.0231826
0.0104878
0.0894957
0.00487611
0.0771912
0.00674533
0.0869845
0.0985193
0.0104951
0.0351806
0.00424016
0.00464764
0.0896472
0.0086337
0.024908
0.00941053
0.007743
0.0939929
0.0723371
0.0867737
0.0145067
0.0116626
0.0690315
0.0531253
0.113797
0.0134865
0.0730589
0.00622725
0.00866198
0.026513
0.0877411
0.0406361
0.00396774
0.0873044
0.0207629
0.0156501