/*--------------------------------*- C++ -*----------------------------------*\
| =========                 |                                                 |
| \\      /  F ield         | OpenFOAM: The Open Source CFD Toolbox           |
|  \\    /   O peration     | Version:  v2012                                 |
|   \\  /    A nd           | Website:  www.openfoam.com                      |
|    \\/     M anipulation  |                                                 |
\*---------------------------------------------------------------------------*/
FoamFile
{
    version     2.0;
    format      ascii;
    class       surfaceScalarField;
    location    "850";
    object      phi;
}
// * * * * * * * * * * * * * * * * * * * * * * * * * * * * * * * * * * * * * //

dimensions      [0 3 -1 0 0 0 0];
oriented        oriented;


internalField   nonuniform List<scalar> 
27274
(
0.132518
0.0304468
-0.162964
0.00556832
-0.00375123
-0.00181709
0.231164
-0.309398
0.0782483
-0.322186
0.517421
-0.19516
0.288258
-0.245128
-0.0431208
0.137042
-0.127842
-0.00919963
0.362364
-0.416748
0.0544289
-0.167319
0.0813687
0.0859507
-0.144968
0.152608
-0.00110705
0.000752253
0.000354801
0.434037
-0.210118
-0.223877
-0.00938231
0.0107478
-0.0013655
-0.0374655
0.095039
-0.0575734
0.219898
0.0910321
-0.31093
-0.0552677
0.282642
-0.227364
0.0328402
0.148716
-0.181555
-0.00809516
-0.0025057
0.0106009
0.0374907
0.249687
-0.287134
-0.295376
0.250864
0.04452
0.0512254
-0.0354122
-0.0158132
-0.119779
0.164889
-0.0451098
-0.0400388
-0.142606
0.182647
-0.000735794
-0.0041165
0.0048523
0.257691
0.0305744
-0.225198
-0.0225176
0.374009
0.0368394
-0.410832
-0.421951
0.169569
-0.15826
0.164852
-0.00659147
-0.0063241
0.00031821
0.00600589
-0.217577
-0.0553495
0.272935
0.137043
-0.268699
0.131668
-0.27152
0.107159
0.164367
-0.293967
0.331508
0.208782
-0.529317
0.320678
-0.0518788
-0.07925
0.131129
0.166364
-0.0338451
-0.215769
0.0806016
0.0659266
-0.10949
0.0435638
-0.199882
0.0416223
0.419721
-0.31211
-0.107577
-0.0214689
0.241368
-0.0961282
0.0715916
0.0245367
0.308755
-0.0775776
0.00323327
-0.00122146
-0.00201181
-0.524851
0.363556
0.161437
0.0817362
-0.0158096
-0.127969
0.152097
-0.0241277
0.0609312
0.107883
-0.168813
0.129919
-0.154187
0.0242687
-0.479397
0.212747
0.266685
-0.415147
0.0822391
0.332956
0.18568
0.131109
-0.316771
0.286326
0.171427
-0.45775
0.00734016
-0.0155228
0.00818266
-0.0784384
0.383539
-0.305078
-0.461145
0.487194
-0.0259689
0.0767313
-0.129364
0.0526328
-0.196097
0.140837
-0.0220651
0.0141452
0.00791996
-0.0474315
0.118536
-0.0711047
-0.242969
-0.236394
0.147735
-0.156816
0.00908168
0.0591901
-0.354009
0.294861
-0.00462716
-0.118004
0.122632
-0.000163064
-0.00921925
-0.142842
0.17329
-0.00505134
0.0040509
0.00100044
-0.120184
0.123236
-0.00305136
-0.23944
0.160345
-0.200382
-0.137546
0.105102
0.0324444
0.560141
-0.320139
-0.239986
-0.105336
0.0579048
0.399782
-0.285362
-0.114383
-0.0874068
-0.0799118
0.0650377
0.297362
0.0406979
-0.0219578
-0.0187402
0.283597
-0.246833
-0.0367587
0.0239198
0.161236
-0.185154
0.184935
0.15407
-0.338985
-0.340632
-0.0760668
0.0698582
0.0149875
-0.0848457
-0.171191
0.0514138
-0.126015
0.0113356
0.11468
0.0573828
0.316639
-0.0926908
0.0552254
-0.00152995
0.0118466
-0.0103167
0.0267233
0.0245021
-0.00726754
0.000943442
0.00812768
0.00501916
-0.0131468
-0.0606087
0.112757
-0.052148
-0.441528
-0.0831313
0.480062
-0.163749
-0.316294
-0.300555
-0.117408
0.418029
-0.00556656
0.00556656
-0.00283446
0.00209866
-0.3613
0.243893
0.117424
0.212424
-0.217606
0.005185
0.0129071
-0.00556691
-0.00718237
0.00828985
-0.00110748
-0.00594196
0.00685053
-0.000908572
0.0102239
-0.00786534
-0.00235855
-0.17506
0.121526
0.0535346
-0.0897828
0.052114
0.0376688
0.302633
-0.224659
-0.0779648
-0.066399
0.117473
-0.0510742
-0.0118101
0.0121186
-0.000308439
-0.0264123
-0.062544
0.0889564
-0.00555212
-0.117096
0.122649
-0.0385069
0.0166141
-0.316381
0.11022
0.20617
0.161255
-0.207196
0.0459414
-0.434608
0.0633728
0.371238
-0.0114876
0.172743
0.00915856
0.00547329
-0.0146318
-0.411858
0.549397
-0.137445
-0.0109801
0.0128311
-0.00185102
0.0204667
0.0202312
-0.0139146
0.0134204
0.000494209
-0.146525
-0.0285353
-0.000879624
-0.00022743
0.0432525
0.0462712
-0.0895236
0.211685
0.0719161
-0.102795
-0.0347502
-0.144368
-0.216914
-0.088718
0.0623057
-0.156415
0.342118
0.280116
0.195188
-0.475308
0.0414592
-0.082631
0.0411718
-0.414148
0.113672
-0.308293
-0.106805
0.0797713
-0.0697167
-0.0100546
-0.0221453
0.130948
-0.108803
0.193277
0.0191502
0.0797113
-0.108707
0.028996
-0.172053
0.452175
-0.191923
0.00548567
0.186449
0.273065
0.161007
-0.219488
-0.0458874
0.265381
0.0597886
-0.122274
0.0624851
-0.000402095
-0.00553986
0.00440436
0.00180954
-0.0062139
-0.217624
-0.0374094
0.255038
-0.268299
-0.0480743
-0.0247035
0.0209958
0.00370761
0.258414
-0.10613
-0.152281
-0.156743
0.0412738
0.115469
0.00773338
0.00204205
-0.00977543
-0.133271
0.210346
-0.0770709
0.00971001
-0.00197663
-0.144607
-0.118512
0.263128
0.11581
0.0411728
-0.0930513
-0.0148397
-0.00722543
0.109238
-0.134949
0.0257116
0.0348558
0.425102
-0.459949
0.0659175
0.0138539
-0.00446123
-0.00945335
0.350056
-0.315192
-0.149696
0.0395824
0.110114
0.00409049
-0.12193
0.11784
-0.0286748
0.190508
-0.161831
-0.139023
0.0194125
0.119611
0.219283
-0.0260031
-0.0507046
0.102688
-0.0519835
0.0298557
0.00978473
-0.0396404
-0.00567621
0.0115808
-0.00590463
-0.175372
0.145947
0.0294255
0.114842
-0.0518193
-0.0630229
-0.34706
0.320365
0.0267294
-0.0117207
0.00752089
0.00419978
-0.000521618
-0.000506758
0.00102838
0.00293099
-0.382568
0.379698
-0.371542
-0.0164594
0.388049
-0.159344
0.192186
-0.00088878
0.00482581
-0.00393703
0.143513
-0.150306
0.00679384
-0.360482
0.0214493
0.339049
0.0931209
-0.0516617
-0.0103544
-0.0138879
0.0242422
0.0423918
0.0140389
-0.0564307
0.0617509
0.0530915
0.198616
-0.201888
0.00327318
-0.441767
0.371167
0.070652
0.101922
-0.0471845
-0.0547377
-0.00339864
0.00717295
-0.00377432
-0.00221113
0.0112831
-0.00907199
-0.0362803
0.106077
-0.0697967
-0.0289139
-0.136795
0.165709
-0.0107215
0.0026263
-0.0349389
-0.187668
-0.137931
0.325612
0.191345
0.0279397
-0.0360084
-0.0330378
0.0690463
0.110168
-0.0751543
-0.0350133
-0.284107
0.129947
0.154163
-0.102511
0.0366028
0.0659085
0.178825
0.0197923
0.17049
-0.155287
-0.0152029
-0.368563
-0.273745
0.106259
0.167491
-0.182644
0.0354962
0.147148
-0.00328295
0.006891
-0.00360804
-0.00684949
0.00463836
-0.0113208
0.00258259
0.00873823
0.170477
-0.198665
0.0281884
-5.56213e-05
-0.0109245
-0.00116255
0.00337762
-0.00221507
-0.000118255
-0.00161431
0.00173257
0.15187
0.0186217
-0.385757
0.193844
0.0799967
-0.224595
-0.0451842
0.0251232
0.020061
-0.243621
0.026003
0.0825932
-0.429608
0.0943738
-0.0245155
0.0204616
-0.0768641
0.0564025
-0.0184609
-0.366664
-0.0679482
0.0827476
-0.216015
-0.041884
-0.0490954
0.0909794
-0.025081
-0.276538
0.301628
0.0102408
-0.136256
0.233037
-0.227538
-7.00753e-05
-0.00560613
0.118512
-0.259502
0.140994
0.00230914
-0.00450655
0.00219742
-0.00427589
-0.00449977
0.00877566
-0.0429801
0.0364865
0.00649364
-0.158853
-0.226891
-0.189637
0.475965
-0.170986
0.194908
-0.153226
-0.0120106
0.165238
0.00345484
-0.0011457
-0.146671
-0.0621046
0.20878
0.341011
0.0716943
-0.41269
0.0299047
-0.390369
-0.0513375
-0.0332007
0.0845382
-0.115261
0.0673778
0.0478835
-0.0113208
0.154675
-0.160225
0.0718462
-0.118254
0.0464083
-0.0326816
-0.241608
-0.415544
0.153448
0.26214
0.120066
-0.239984
0.119921
-0.00622732
0.00195144
-0.0442656
0.08201
-0.0377444
-0.0029725
-0.00308133
0.00605383
0.133795
-0.0245571
-0.14117
0.145262
-0.147473
-0.126266
-0.0267881
-0.00478705
0.0315752
0.204219
-0.0253926
0.000351535
-0.000469788
-0.286775
0.0640798
0.2227
-0.0104154
0.0046093
0.00580612
-0.0773365
0.0434567
0.0338798
-0.0808759
-0.0688202
0.12647
0.126698
-0.253161
-0.48878
0.444211
0.0446868
-0.16239
0.0195489
-0.0261259
0.107029
-0.0809032
-0.0163354
0.0130524
0.104299
-0.126444
0.12716
-0.415048
0.287949
0.282187
-0.380989
0.0988448
0.0765613
-0.352447
0.275894
-0.114631
0.0628115
0.0651483
0.0192264
-0.0843746
-0.0476243
0.0437239
0.00390042
-0.233988
0.214037
0.0199526
0.0063306
-0.00249285
-0.00383775
-0.0949405
0.0586602
-0.104833
0.0384346
-0.240156
0.0113403
0.228823
-0.0577219
-0.0447894
-0.157509
0.342464
-0.437077
0.159711
0.277376
-0.0572984
-0.0130333
0.0703317
-0.575128
0.313752
0.261487
0.308223
-0.243152
-0.135538
0.0775873
0.0579512
-0.26704
-0.0451923
0.312252
-0.00233193
0.00544916
-0.00311722
0.174298
0.0299231
-0.178568
0.129641
0.0489269
-0.296624
-0.278388
-0.136723
-0.0386483
-0.00417488
-0.00722475
0.0113996
-0.0598304
0.0910471
-0.413156
-0.124984
0.282904
-0.157921
0.0611333
-0.110821
0.0496875
0.00578185
-0.00705106
0.00126921
-0.345962
0.422525
0.400883
-0.462225
0.0613492
0.0594781
-0.0390164
-0.158342
0.0872893
0.0710531
-0.102513
0.132255
-0.0297417
-0.0595104
0.0375255
0.021985
-0.251439
-0.185627
0.0789759
-0.0386117
-0.163469
0.202083
-0.000841621
0.401735
-0.0222785
-0.0372319
-0.100273
0.0495685
0.0412756
-0.0948492
0.0535738
0.113272
-0.0521387
-0.301731
-0.112348
-0.0161891
0.0585809
-0.123723
-0.18204
-0.0868216
-0.208545
-0.0887685
0.0445029
0.338111
-0.109797
-0.2283
-0.0427845
-0.0670399
-0.0290882
0.239755
0.240323
-0.397953
0.120462
0.277553
-0.0817928
-0.0364616
0.00558294
-0.00152548
-0.00405745
-0.00115451
-8.0377e-06
0.25445
-0.0116401
-0.242803
-0.00226734
-0.136756
0.00302864
0.000204631
0.347168
-0.137129
-0.210025
-0.0626926
-0.0525686
0.17645
-0.189697
0.0132494
0.134092
-0.0396678
-0.0944237
-0.101787
0.039094
-0.419031
0.117375
0.0429286
-0.0130729
0.181942
0.0970309
-0.278965
-0.0352729
0.114984
0.533364
-0.357755
-0.17555
0.0312832
0.00794747
0.000644569
-0.00859204
-0.390808
-0.0134609
0.404269
0.000720256
-0.0110746
-0.159905
0.182464
-0.0225586
-0.388558
0.238101
0.150459
0.013121
-0.141089
0.0252151
0.12252
0.0859702
-0.0493677
-0.0366026
-0.00458245
0.0178867
-0.0133042
-0.0781617
0.0421533
-0.0606319
-0.226138
0.256489
-0.197267
0.000188229
0.00159298
-0.00178121
-0.0793434
0.0473344
0.032009
0.404265
-0.253107
-0.151144
0.17221
0.0276871
-0.199893
-0.0464183
0.0876939
0.0691473
0.032775
-0.0351673
0.00837921
0.00398615
-0.00379792
-0.251578
-0.0380557
0.289639
0.238442
-0.20979
-0.0286475
0.00374286
-0.00602384
0.00228098
0.303604
-0.193373
-0.205117
0.0584501
0.0942351
-0.0272356
-0.0669995
-0.155434
0.139816
0.0156189
0.25358
-0.030877
-0.222699
0.00219519
0.00338775
0.266594
0.211364
-0.477955
0.0835983
-0.0933263
0.00972816
0.0442877
-0.0861716
-0.00986691
0.00986691
-0.307046
0.398171
0.269915
-0.16556
-0.10435
-0.351638
0.289348
0.0622954
0.371164
-0.197077
-0.174068
-0.089199
0.0666447
0.0225544
0.218472
0.152707
-0.100202
0.149654
-0.049452
-0.23163
-0.12
0.0501705
0.136619
-0.186787
0.138143
-0.389714
0.0348216
-0.17979
-0.124426
0.268917
-0.144473
0.0145791
-0.216717
0.202146
0.306631
-0.266632
-0.0399856
0.285766
0.0208828
-0.0221907
-0.16618
0.188373
-0.0481883
0.0121593
0.036029
0.000122261
-0.00426975
0.00414749
0.0782002
0.154847
-0.0499458
0.0589299
-0.00898414
-0.133212
0.0445686
0.0886441
0.00570405
-0.00558179
-0.15057
-0.02712
0.177691
0.135351
-0.0796023
-0.0557487
-0.09578
0.215849
-0.0460037
0.0780265
-0.0320229
-0.125475
-0.437215
0.0254421
-0.0151002
0.356123
0.382189
-0.152689
-0.229449
-0.0119091
0.00732661
-0.00139686
-0.182895
0.184295
0.458393
-0.0947291
-0.0154107
-0.11706
0.132471
-0.14786
0.0476586
0.127758
0.175857
0.182458
0.164722
-0.00188386
-8.95335e-05
0.00197339
-0.12376
-0.313902
-0.027033
0.284065
-0.383042
0.0989974
-0.0046319
0.00165941
0.00651568
-0.00917913
0.00266346
0.0537023
0.0405328
-0.0193265
-0.137417
0.17892
0.00452715
-0.00870203
0.270836
0.289322
-0.238334
-0.103977
0.342328
-0.0147704
-0.0203969
-0.366951
-0.08661
0.453576
-0.328976
-0.0535566
-0.0035526
-0.00716885
0.300349
0.0994692
-0.000963151
0.00891062
0.140106
-0.13073
-0.00937507
-0.144272
0.145809
-0.00153622
-0.00307334
0.00958902
0.0182134
0.178596
-0.196809
-0.336108
0.0977917
0.0135569
-0.0362269
0.0226701
0.12445
0.0125923
-0.00373857
-0.0467609
-0.0430219
0.347189
-0.207298
-0.139886
-0.345292
-0.0964181
-0.265523
0.159396
-0.0267599
-0.0362813
0.0630412
0.0527552
0.0611901
-0.113945
0.0146584
0.236213
-0.444025
0.38848
0.0555572
-0.224977
-0.0186378
0.0184308
0.0651675
-0.00378702
0.00752988
0.204216
-0.150018
-0.0541968
-0.139837
-0.125684
-0.285473
0.398142
-0.112667
-0.17691
0.026341
0.107322
-0.0721144
-0.0352077
-0.00160249
0.00738434
-0.00793048
-0.00248493
-0.0582025
0.0592782
-0.00107575
0.0597695
-0.0758093
0.0160399
0.066988
0.0171262
-0.0841142
0.000325285
-0.00154675
-0.195086
-0.0630811
0.258177
-0.404228
0.27731
0.126959
-0.269966
-0.194894
0.273107
-0.0842109
0.0554735
0.0287374
0.369455
-0.217856
-0.15159
0.180922
-0.00885891
0.00167654
-0.0350424
0.0534733
0.14304
0.0178404
-0.00971271
0.0699142
-0.0101446
-0.00510569
0.00170705
-0.212617
-0.0712861
0.283915
0.161358
0.125097
0.185305
-0.310394
0.107872
-0.448463
0.0115836
-0.455602
-0.475117
-0.406936
0.155508
0.00114059
0.0061393
-0.0072799
0.053692
0.200765
0.395881
-0.283255
-0.112565
-0.0484492
0.0917017
0.123112
-0.0847472
-0.0383649
-0.320406
-0.0837846
0.157524
-0.236916
0.0793986
-0.0973045
0.0209562
0.0763485
0.00821965
-0.0655181
0.0214117
-0.180753
0.0541088
0.216862
-0.270952
0.0392094
-0.196116
0.013473
-0.00546532
0.00824923
-0.0027839
-0.0333873
-0.400969
0.20391
-0.000172257
0.00646175
-0.0062895
0.068783
0.0543292
0.104146
0.268376
-0.372475
0.00088577
-0.00126912
0.00038335
-0.00461624
-0.00101594
0.00563218
-0.000147379
0.00176419
-0.00161681
-0.193508
-0.207442
0.26604
-0.211912
0.00243742
-0.155662
-0.102611
0.111947
-0.00933534
-0.13432
-0.0824845
0.216805
-0.000675197
0.0070058
-0.069513
0.0427531
0.0197248
-0.0696706
-0.0297653
0.0884623
-0.058697
0.134745
0.247496
0.0138112
0.126295
-0.00703117
-0.000808417
0.00783959
-0.00335607
0.0121061
-0.0261887
0.0140827
0.213449
-0.276612
0.0631658
0.126675
0.0355111
-0.162185
0.0348536
-0.156782
-0.00109437
0.000518571
0.000575802
0.00573359
0.0044903
-0.0887537
0.0281451
-0.126624
0.24514
0.022586
-0.24207
0.376499
-0.0851382
-0.291358
-0.0486219
0.101377
-0.226414
-0.180511
-0.0353005
0.0488573
-0.105654
0.140508
-0.00933966
0.0184982
-0.294247
0.229636
0.0646146
-0.274498
0.0495275
-0.426174
-0.0624956
-0.118811
-0.00137287
-0.0222275
-0.119703
0.141931
0.0661788
0.0411433
-0.27115
0.380997
-0.109827
0.1247
-0.0685653
-0.0561342
0.0121057
0.0359939
-0.0480996
-0.159753
0.177469
-0.0177141
0.302824
-0.176343
0.211115
-0.127911
-0.0832027
0.183262
-0.169183
-0.0140775
0.487271
-0.249659
-0.237604
0.132559
-0.165003
0.0324455
-0.00356408
-0.173777
0.0140254
-0.0429109
-0.0470875
0.0899985
-0.0329031
-0.296105
0.400304
-0.19932
-0.50036
0.109553
-0.14734
0.0106175
0.189392
0.0641928
-0.117233
0.0870723
-0.299676
0.132797
0.124901
0.0101612
0.268454
0.140251
-0.408637
0.0181813
0.0800435
-0.0982248
0.187115
-0.195708
0.00859373
-0.0561303
-0.0432035
0.0993339
-0.171378
-0.00719013
-0.0150407
0.00313168
-0.262435
0.0856678
0.176773
0.00529825
-0.00529825
0.133436
0.0266807
-0.160116
-0.0920422
0.152974
-0.0577832
-0.0195533
0.00533329
-0.0357538
-0.0257694
0.0615231
0.142286
0.0351856
0.19288
-0.194273
-0.394908
0.201419
0.213806
0.108961
-0.322755
-0.136445
0.0786019
0.0578434
0.152494
-0.128371
-0.0241218
-0.0430127
0.132169
-0.0891557
-0.106578
0.0699976
0.0365808
0.00554495
-0.0503413
0.105676
-0.0553345
-0.356345
0.505948
-0.149491
0.000257734
-0.00161343
0.0013557
-0.00828748
0.0498402
-0.0415527
0.145801
-0.229251
0.0834563
0.239214
-0.0254038
-0.0592061
0.0773874
0.0095975
-0.00457834
-0.135526
-0.0268635
-0.277278
-0.136875
0.414168
-0.0812699
0.0244181
0.0568517
-0.0966182
0.0537073
-0.143758
0.0645081
0.103294
0.0104622
-0.113756
-0.0379006
-0.00945122
0.0473518
-0.166289
-0.0513139
0.0632873
0.0356078
-0.0988949
0.00123711
-0.00148121
0.000244109
-0.0623266
-0.03946
-0.0424974
0.0988794
-0.0579263
-0.0409531
0.0315164
-0.0828539
0.149214
-0.185997
0.0367853
-0.40223
-0.0588373
-0.101028
-0.318808
0.101242
-0.00205485
-0.0226486
0.0195197
0.0153707
-0.0348904
0.00446798
-0.00535676
-0.0107427
-0.0374456
-0.00659516
0.0086053
-0.00201013
0.00124623
-0.00180393
0.000557698
-0.0707553
-0.0105145
-0.0334171
0.182135
-0.00172794
-0.00256752
0.00429546
0.00681947
0.0287885
-0.035608
0.209632
0.0237219
-0.0477588
0.0240369
0.000185681
0.0047301
-0.00491578
0.0541355
0.0145922
-0.0687277
0.0814828
0.122735
-0.106489
0.401846
-0.295297
-0.194441
0.028155
-0.212712
0.185686
0.0270282
0.158184
0.0250797
-0.0641169
-0.0597138
0.123831
0.0758249
0.262298
0.00393287
-0.00393287
-0.189687
0.167498
0.144287
0.0156629
-0.159948
-0.000848927
-0.000245445
-0.220024
-0.0948733
0.314912
-0.146936
0.124709
0.0303758
-0.0182697
-0.24147
-0.0946188
0.0285527
0.182441
-0.210989
-0.000922399
0.00041325
0.00050915
-0.113112
0.416133
-0.302924
0.0441094
0.0805905
-0.150519
-0.00407353
0.00152783
0.0025457
0.187806
-0.0455189
0.131908
-0.143142
0.0112342
0.0910797
-0.193772
0.0462942
0.14748
0.0118494
-0.114461
-0.10925
0.00422044
0.105029
0.010933
-0.00122294
0.114772
-0.12483
0.0100586
0.150962
-0.272165
0.121217
0.00654236
-0.00671262
0.000170259
0.148992
-0.0170829
0.00502797
0.0131241
-0.00501959
-0.00810447
0.0420013
-0.0904505
0.0406424
-0.082926
-0.185367
0.136154
0.23268
-0.368784
-0.0054027
0.000786468
0.103285
0.107831
-0.0266209
0.159181
0.442824
-0.305939
-0.136862
-0.0526726
-0.00187427
-0.0563282
-0.016927
-0.0128841
0.0298111
0.00231518
0.000545266
0.00475299
-0.0332408
-0.05097
0.133687
-0.185834
0.0521497
-0.381444
0.275013
0.165571
-0.128762
0.113352
0.109238
-0.0440895
0.328389
-0.202999
-0.125368
0.0345956
-0.0703493
0.135658
0.0348204
-0.0368154
-0.45434
0.442522
0.0119679
0.00123731
0.00157098
0.18237
-0.237713
-0.328528
-0.126101
0.0132683
0.112832
0.168755
-0.47468
-0.103841
0.372262
-0.00251631
0.000795838
0.00172047
0.0358812
-0.225954
0.178784
0.047172
-0.255131
0.364103
-0.0531082
0.114843
-0.0617346
-0.0336875
-0.120499
-0.0211969
0.182435
-0.021908
-0.0574354
-0.215304
0.229891
0.00384293
-0.0108741
-0.128305
0.018062
0.110243
0.100936
0.155754
-0.256687
0.0306716
-0.0166956
-0.013976
-0.00133473
0.000827972
0.257408
-0.402209
0.144833
-0.0344445
0.0175175
0.238121
0.279355
-0.331908
0.0904566
-0.244132
0.109813
-0.0846648
-0.0148469
0.0995117
-0.000271132
-0.00246188
0.00273302
-0.0359513
-0.123953
6.56433e-05
0.00117146
0.0308528
0.110141
-0.140993
0.00463954
-0.0195325
0.014893
-0.0755886
0.0458233
-0.16392
-0.0220747
-0.00675823
0.108005
0.161914
0.0144739
-0.028252
0.0137781
-0.0717217
0.00638768
-0.00791763
0.00346986
0.00209846
0.0737693
0.172566
-0.24633
-0.0141196
0.0263151
-0.0121956
0.167067
-0.193091
0.0260263
0.00313412
0.130302
-0.0237777
0.0538413
-0.0300636
0.0191243
-0.0604668
0.0413425
-0.00342024
0.00794739
-0.391841
0.289097
0.102788
-0.00809904
-0.0069417
-0.146637
0.320247
-0.173605
-0.00394695
0.0148799
0.0386566
0.167247
-0.205895
-0.212108
0.106455
-0.172113
0.00293248
-0.344522
0.19158
0.152975
0.197792
-0.498869
0.301224
-0.0249735
-0.110594
0.135568
0.0718389
-0.023373
0.0775085
-0.441958
0.0967168
0.0075518
-0.00775767
0.000205873
-0.185231
0.0213137
-0.242331
-0.10216
0.108502
0.268001
0.0626639
0.0749753
-0.137639
0.0573977
0.0525441
-0.109942
0.0214016
-0.0451794
0.11106
-0.14701
-0.157912
0.366799
0.138008
-0.171069
0.033063
-0.00566158
0.0111349
-0.130625
-0.32836
0.218575
0.338374
-0.14677
-0.035329
0.173338
-0.0158417
-0.148362
0.164205
0.000233164
0.0036997
-0.317337
0.0973286
-0.0506739
0.0726227
-0.0219488
0.0482014
0.0619665
0.049214
-0.0575014
0.000160398
-0.000307776
-0.00215707
-0.00289426
-0.110938
-0.285884
0.39689
0.0287992
-0.155567
0.126768
0.121103
0.235233
-0.19963
-0.035598
-0.194935
0.172578
0.0223591
0.00557273
-0.00538705
-0.316826
-0.0649453
0.38184
-0.163047
-0.231843
-0.498677
0.214497
0.284323
0.0358755
0.109951
0.0540916
-0.164041
0.250798
-0.0998266
0.101231
0.0409884
-0.142219
0.026889
-0.162414
-0.00542396
0.0139242
-0.00850021
-0.00258647
-0.00922366
0.365547
-0.229467
-0.136056
0.172494
0.128592
-0.301083
0.00585917
-0.158562
0.00174003
-0.000519549
-0.00122048
0.0016488
-0.00540003
0.000884248
0.00167909
-0.00256334
-0.0605628
0.0382843
-0.0415716
-0.0181299
0.0597015
0.0826294
-0.0429662
-0.0396632
0.0156943
-0.418146
0.0514774
-0.115157
0.275335
-0.0933861
0.168891
0.049223
-0.218112
0.143998
0.26028
-0.0570619
0.0235578
0.0298788
-0.0534366
-0.00175741
-0.00380914
-0.242905
0.00275544
-0.0175002
-0.0357957
0.0532959
0.0986041
0.31841
-0.416928
-0.0699488
0.203638
-0.121952
-0.0259076
0.299583
-0.378004
-0.0269032
-0.139978
0.168534
0.00678797
0.0142079
-0.008365
0.00528367
0.0922758
-0.143152
0.0508762
0.00323106
-0.0066513
0.0849448
-0.0179567
0.000657781
0.00339311
-0.0606711
0.0798976
0.0417001
-0.0165769
0.00127013
-0.00180455
0.000534418
-0.122324
-0.00598053
0.0542453
-0.0421396
-0.101675
0.0513336
0.0065056
0.00661847
0.222206
-0.30128
0.0790893
0.115563
0.334316
-0.448859
0.114589
-0.0213646
0.0505291
-0.032068
-0.018461
0.364823
-0.476695
0.0930738
0.383617
0.0976903
-0.00391515
-0.0937749
-0.234924
0.398552
-0.163555
-0.0869253
0.0822984
0.0149937
-0.132997
-0.533946
0.310593
0.223374
-0.0755912
0.0583298
0.0172614
0.192678
-0.281616
0.0889531
0.263527
-0.11125
0.0581422
-0.270132
-0.0986366
0.368816
-0.0485694
0.088537
-0.0399676
-0.0130974
0.0326171
0.283004
-0.107558
-0.175441
-0.243138
0.17218
0.070963
-0.350479
0.10818
-0.100906
0.0679961
0.0329104
-0.272255
0.39948
0.060057
0.15114
-0.211194
0.0337833
0.0549858
-0.0887691
-0.13464
-0.159196
0.293836
-0.00264111
0.000407539
0.00223357
-0.204074
-0.0616351
0.265718
0.00135337
0.00263278
0.23663
-0.0182207
-0.218405
0.0844879
-0.12932
0.0448322
-0.238971
0.329193
-0.0902053
0.00207253
-0.115536
0.113464
-0.150333
0.0283822
-0.350053
-0.0680939
0.171268
0.11174
-0.00380629
0.00116519
0.236731
-0.261805
-0.00673406
-0.0050082
0.0117423
-0.0085712
0.0115596
-0.00298837
-0.169531
-0.0644544
0.296187
0.237227
0.303086
0.0804707
0.386864
-0.0601614
-0.326659
-0.000885655
-0.00163065
0.101425
-0.356544
0.00619227
-0.0048389
0.00414886
0.0014177
-0.0151883
0.102478
0.0019002
-0.0018392
-6.10017e-05
-0.398314
-0.130866
0.228852
0.0817285
-0.310566
-0.00089678
-0.000419615
0.00168975
0.0656866
-0.174936
0.130416
0.225609
-0.356008
-0.148117
0.273222
-0.276112
0.0704385
-0.241436
0.171003
0.075999
-0.100563
0.0245637
-0.00636125
-0.0173565
0.0237178
0.168257
-0.165318
-0.00293757
-0.00614052
0.00973893
-0.00218713
0.0348823
-0.0835538
0.0486715
0.122346
-0.0416971
-0.0806483
-0.279964
0.247986
0.0319884
-0.00762271
-3.82419e-05
0.00766095
0.00664967
-0.0401862
0.141418
-0.325285
0.0863299
-0.276029
0.107434
0.168598
0.00205228
0.00140726
-0.00345954
0.143049
-0.00237488
-0.00169865
-0.0337255
-0.525391
0.340995
0.184407
-0.0606462
0.123311
0.18758
0.177095
-0.364565
-0.053367
0.164428
-0.218815
0.122217
0.0965991
-0.400692
0.165859
-0.103636
-0.282599
0.386306
0.25533
-0.184887
0.00474963
-0.00388893
-0.000860703
-0.0914208
-0.306924
0.39836
0.012267
-0.000247154
0.000999407
-0.0946669
-0.181359
0.0573337
-0.324354
-0.0726519
-0.0206744
-0.00645887
0.00213158
0.00432729
0.147983
-0.172266
0.0242842
-8.4338e-06
0.00161853
-0.0016101
-0.236172
0.110697
0.0786229
0.125368
-0.154282
-0.002707
0.000979062
0.0199783
0.0106932
0.0102742
-0.00484915
-0.005425
-0.444921
0.0467496
-0.0155175
-0.190446
0.287486
-0.00230857
0.00230013
-0.352249
0.127165
0.225113
-0.0503366
-0.0252546
0.0931254
0.0023625
-0.00324815
-0.102426
-0.292006
0.394456
0.137151
0.311767
-0.448833
-0.0590546
0.017483
-0.326528
0.0592057
0.267331
0.00480582
-5.61903e-05
0.0669654
-0.262038
0.0102833
-0.0244029
-0.175326
-0.108949
-0.271998
-0.0274268
0.13531
-0.084826
0.0341521
-0.00904963
0.00317225
0.00587738
0.152339
-0.164348
0.167026
0.0767209
-0.24374
-0.16957
0.187785
-0.0794755
0.218507
0.109903
-0.0591155
-0.417582
-0.111921
0.0741585
0.0377627
0.280582
-0.129424
-0.151153
0.00863519
0.0144255
-0.0230607
0.00701587
-0.162262
0.155248
-0.00157544
0.00331546
0.21696
0.0757428
-0.292691
-0.292364
0.394573
-0.102175
-0.0406369
0.0880038
-0.0473669
-0.00071981
0.00141721
-0.000697401
0.0190975
-0.0384339
0.0193364
-0.19567
-0.0171621
0.212837
0.01195
-0.000103418
-0.0604323
0.277404
0.00716609
-0.00313383
-0.00403226
0.139985
0.0685377
0.0225199
-0.0910575
-0.173036
0.327127
-0.0020012
0.0021616
0.0881079
0.232647
-0.320739
-0.114467
-0.104346
-0.217291
-0.171264
0.332593
-0.23752
-0.095061
0.278213
0.209065
0.0102551
-0.0195947
0.0471652
0.0390306
-0.0861957
-0.00547393
-0.00672778
0.0122017
0.0653031
0.0570426
-0.194051
0.171054
0.0229994
0.149023
-0.177695
-0.469556
0.148482
0.321113
-0.409534
0.102557
-0.424055
0.311039
-0.168273
0.0382782
-0.0868475
0.25065
-0.211982
0.00875831
-0.00533425
-0.00342406
-0.0565548
-0.0590692
0.115624
0.348157
-0.217724
0.155482
0.0316341
0.00345511
0.00371098
-0.0769502
-0.0594947
-0.05812
0.168072
0.148479
0.0420312
0.110889
-0.123756
0.0128679
-0.00186659
-0.00726211
0.0091287
0.0942466
-0.119219
0.0227498
-0.0159303
-0.0195205
-0.130785
0.116776
-0.120687
0.00391103
-0.0369976
-0.0235652
0.148262
0.223428
0.0991261
-0.322539
-0.110557
0.0464403
-0.0854238
-0.023283
0.297962
-0.0728966
0.026893
0.0411402
0.0878949
-0.129035
0.00618814
-0.00715272
0.000964581
0.146131
0.134455
-0.0231362
-0.102576
0.0179116
-0.120313
0.0164793
0.103834
0.167625
-0.0409487
0.388274
-0.201192
-0.18708
0.0478254
-0.249211
0.210854
0.0383625
0.00341556
0.00534275
0.222132
-0.222934
0.000802636
0.170984
-0.00262576
0.00101144
-0.0289255
0.171039
-0.194353
0.0233164
0.028072
0.216812
-0.30818
0.091383
-0.00219352
-0.0454308
-0.000398516
-1.17587e-05
0.000410275
0.0875755
0.0590946
-0.082239
0.0231445
-0.000698914
0.000300399
0.170547
0.0257373
-0.196281
-0.0938939
-0.211105
-0.0380981
0.0291388
0.153703
-0.182839
-0.157722
0.212175
-0.0544492
-0.020177
-0.0678639
0.0334515
0.0344124
-0.0757711
-0.16566
-0.0208637
-0.140727
0.161592
0.0139921
-0.323102
-0.136454
0.459698
0.000740013
-0.00860535
0.188126
0.048507
-0.146613
0.206673
0.0387607
0.0496418
-0.0884025
0.00538344
-0.0055557
-0.108507
0.427074
-0.318469
0.341418
-0.217047
0.0593287
0.0825695
0.257197
-0.339736
0.476866
-0.168423
-0.308381
0.0142986
-0.038576
0.0242773
-0.23973
0.506329
-0.187047
0.0160638
-0.286143
-0.111747
-0.0656444
0.0722074
-0.00656306
-0.392012
0.0959592
-0.000326354
-0.0426538
-0.030573
0.0242117
-0.155958
-0.0871737
-0.00120759
0.00315712
-0.00194953
-0.327808
-0.114101
-0.1803
-0.0223692
0.202673
-0.0615563
-0.211735
0.273302
0.00054259
-9.93868e-05
-0.000443203
-0.0759293
-0.399294
0.400662
-0.00128338
0.120844
0.228333
-0.349162
-0.239407
0.193048
0.0463659
-0.0824984
-0.229456
0.311969
-0.0848731
-0.0506651
7.99101e-05
-0.000351041
0.00321759
0.00890098
-0.0022739
0.0041741
0.0704676
0.279523
-0.349976
0.0445688
-0.214136
-0.110822
0.112895
0.208601
0.00484986
-0.268198
-0.0840229
-0.0385463
0.048331
-0.000796324
-0.00211634
0.00291266
-0.134233
0.141251
-0.0768482
-0.134247
-0.00152184
-0.00610087
-0.325885
-0.208041
-0.30488
0.375359
-0.013809
0.00833507
-0.00165005
-0.0419818
0.0280575
0.00668673
-0.286635
0.00601108
-0.00697423
-0.0732708
-0.138805
0.212077
-0.127156
0.0429988
0.0841575
-0.378818
0.287413
0.158714
-0.175831
0.0171191
-0.287137
0.148349
0.138788
0.0884678
0.0468836
0.119326
-0.0507881
0.113025
0.0359679
0.349531
0.0750889
-0.424592
-0.00547162
0.0072805
-0.00180888
-0.0818054
-0.12539
-0.411715
0.0125006
-0.426743
0.426838
0.0215697
0.200562
-0.21926
-0.107257
0.0738616
-0.277926
-0.0457456
0.00951863
0.0193091
-0.214974
0.0286589
-0.260174
0.0651759
0.195005
-0.0206361
-0.000274919
-0.00044489
0.176276
-0.387451
0.211265
0.00238835
0.0541774
-0.0565657
-0.0215144
-0.136132
0.157648
0.384457
-0.208096
0.0959165
-0.187958
-0.117938
-0.0036484
0.121587
-0.402235
0.136912
0.265333
0.384881
-0.221592
-0.163272
-0.0914251
0.388415
-0.296968
-0.134319
-0.159924
-0.0966867
0.121769
-0.0250819
0.427394
-0.144335
-0.283002
0.0944225
-0.239654
0.145234
-0.123481
0.121214
-0.0687908
0.418349
-0.116082
0.00325961
-0.00999367
-0.0100512
0.0146908
0.0322929
-0.0287095
0.0430082
-0.0272459
-0.0914776
-0.0288352
0.0159755
-0.0399213
0.0239458
-0.022237
0.0469404
-0.0247033
-0.00743077
0.409107
-0.40153
-0.190058
0.239283
0.162383
-0.398559
0.236233
0.0122788
0.0285469
-0.0408257
-0.025543
0.0531592
-0.0276162
-0.137039
0.106997
0.0300426
0.169506
-0.362343
0.0700237
-0.27041
0.208864
-0.100278
-0.304986
0.405292
0.157826
0.0806198
-0.0456122
0.0317243
-0.00839854
-0.00793685
-0.00771251
-0.00146663
0.012801
0.0830195
-0.0958202
0.373844
-0.352377
-0.387431
0.51616
-0.128703
-0.0914152
-0.28893
0.380362
-0.00981122
-0.0557508
0.0895342
-0.309971
0.203549
0.106438
-0.00592101
0.00454947
0.00137154
0.281766
-0.141841
-0.0231613
0.254022
-0.146857
0.106881
-0.130694
0.0238139
0.020187
-0.162027
0.0894139
-0.0506533
-0.149704
0.128191
0.0433976
-0.412844
0.0899068
-0.402888
0.282599
0.120374
0.0963246
-0.0365359
0.0970095
-0.368139
0.325145
0.162107
-0.123013
0.0263271
0.0443588
-0.104735
0.0603765
0.289382
-0.380787
0.0183158
-0.0796391
0.0613234
0.27263
-0.373597
0.100988
0.20468
-0.226147
-0.380486
0.0883106
0.292216
-0.246063
0.200182
0.051983
-0.0290171
-0.0229658
0.119653
0.0305001
-0.150152
-0.19487
0.0286924
-0.178488
0.105219
-0.00208721
-0.0405538
0.00997553
0.0305783
-0.397938
0.192897
0.205044
-0.103675
-0.0234808
0.138835
0.0073787
-0.00119056
0.0220318
0.0479505
-0.0699823
0.000311978
-0.000564958
0.000252981
-0.0592728
-0.129961
-0.103838
0.115687
0.108005
-0.0506077
0.0389424
0.0702956
0.00704612
-0.00909398
0.00204785
-0.287452
0.40798
-0.117291
-0.265731
-0.117858
-0.210491
0.0329511
0.00353537
-0.0842263
4.10458e-05
-0.0110942
0.0110531
-0.173912
-0.0927064
-0.163828
0.237603
-0.00103573
-0.00159002
0.0195737
0.0825022
-0.102076
0.204364
-0.0255772
0.0582639
-0.044225
0.371778
-0.114341
0.138197
-0.149685
0.0376854
0.0479683
-0.0856537
-0.0346031
0.0729534
-0.0383503
-0.226958
-0.104932
-0.0419852