/*--------------------------------*- C++ -*----------------------------------*\
| =========                 |                                                 |
| \\      /  F ield         | OpenFOAM: The Open Source CFD Toolbox           |
|  \\    /   O peration     | Version:  v2012                                 |
|   \\  /    A nd           | Website:  www.openfoam.com                      |
|    \\/     M anipulation  |                                                 |
\*---------------------------------------------------------------------------*/
FoamFile
{
    version     2.0;
    format      ascii;
    class       surfaceScalarField;
    location    "100";
    object      phi;
}
// * * * * * * * * * * * * * * * * * * * * * * * * * * * * * * * * * * * * * //

dimensions      [0 3 -1 0 0 0 0];
oriented        oriented;


internalField   nonuniform List<scalar> 
27274
(
0.130453
0.0323156
-0.162769
0.0115947
-0.006586
-0.00500873
0.228555
-0.309498
0.0809419
-0.319205
0.516654
-0.197454
0.290254
-0.243767
-0.0464879
0.13386
-0.122028
-0.011832
0.360267
-0.417051
0.056781
-0.165764
0.0799522
0.0858112
-0.143897
0.153115
-0.00415801
0.00112063
0.00303738
0.433497
-0.212456
-0.221044
-0.0122739
0.014485
-0.00221108
-0.0374504
0.0943776
-0.0569272
0.217667
0.093549
-0.311217
-0.0587866
0.283447
-0.224661
0.0347035
0.147047
-0.18175
-0.00798534
-0.00242323
0.0104086
0.0415566
0.247184
-0.288744
-0.295391
0.248712
0.046679
0.0436968
-0.0310543
-0.0126425
-0.117966
0.164285
-0.0463188
-0.0376624
-0.143792
0.181454
0.00253009
-0.00515601
0.00262592
0.2568
0.0334532
-0.224802
-0.0264364
0.373137
0.0377958
-0.410934
-0.422232
0.17113
-0.157027
0.164965
-0.007938
0.0103919
-0.00160249
-0.00878938
-0.21493
-0.0582457
0.273175
0.14041
-0.269085
0.128674
-0.27361
0.111253
0.162356
-0.291185
0.332738
0.208762
-0.528457
0.319686
-0.0501892
-0.0802563
0.130446
0.165752
-0.0352989
-0.21583
0.0820473
0.0640556
-0.1089
0.0448441
-0.200002
0.0429748
0.419844
-0.309535
-0.110311
-0.0239563
0.241624
-0.095737
0.070606
0.0251309
0.308421
-0.0798663
0.00161117
-0.00129689
-0.000314284
-0.524136
0.362635
0.161492
0.0811093
-0.0170537
-0.126469
0.151587
-0.0251189
0.0624048
0.106554
-0.168959
0.128481
-0.154034
0.0255525
-0.478612
0.210104
0.268506
-0.416146
0.0847946
0.331348
0.18881
0.127965
-0.316777
0.2858
0.171952
-0.457753
0.00965377
-0.0192693
0.00961549
-0.0801339
0.383911
-0.303779
-0.460703
0.486524
-0.0258266
0.0844123
-0.126169
0.0417567
-0.197023
0.138236
-0.0217902
0.0139776
0.0078126
-0.0489999
0.119125
-0.0701246
-0.2405
-0.238114
0.143207
-0.153856
0.0106483
0.062446
-0.354794
0.292345
-0.00600493
-0.116584
0.122589
0.000412398
-0.0126863
-0.140884
0.173199
0.00160779
-0.00286732
0.00125953
-0.119407
0.123313
-0.00390602
-0.23799
0.161457
-0.199119
-0.13784
0.104365
0.0334748
0.560027
-0.320013
-0.240016
-0.105959
0.0569592
0.399918
-0.283112
-0.116808
-0.0858658
-0.0798977
0.0624767
0.297788
0.0470227
-0.0260145
-0.0210082
0.286097
-0.245945
-0.0401527
0.028241
0.158602
-0.186843
0.182122
0.156827
-0.33895
-0.338389
-0.0786654
0.0703667
0.013371
-0.0837377
-0.170899
0.0529326
-0.124512
0.00990167
0.11461
0.0563193
0.316817
-0.0920039
0.0545534
0.00295124
0.0135791
-0.0165303
0.0241748
0.019522
0.0100368
0.000355045
0.00800114
0.00785866
-0.0158598
-0.05347
0.10442
-0.0509501
-0.44036
-0.0837878
0.480008
-0.164912
-0.315098
-0.297422
-0.119666
0.417084
0.00893354
-0.00893354
-2.48554e-05
0.00255494
-0.360156
0.245601
0.114554
0.21468
-0.216559
0.00187832
0.0166942
-0.00704042
-0.00695695
0.00806185
-0.0011049
0.00402616
-0.00532962
0.00130346
0.00992387
-0.00763413
-0.00228974
-0.175335
0.12
0.0553347
-0.0906509
0.0569684
0.0336825
0.304364
-0.223082
-0.0812827
-0.0643215
0.113549
-0.0492272
-0.0146028
0.0151309
-0.000528134
-0.0275356
-0.0609751
0.0885108
-0.00294349
-0.117844
0.120787
-0.0387799
0.0167911
-0.316912
0.112677
0.204235
0.160027
-0.207456
0.0474293
-0.435044
0.0642655
0.370778
-0.0131538
0.173181
0.0119511
0.00649095
-0.0184421
-0.410969
0.548719
-0.137756
-0.0111248
0.0130209
-0.00189605
0.0229992
0.0240235
-0.0137304
0.0132311
0.000499323
-0.14528
-0.0300544
-0.00150664
-0.00265136
0.0455497
0.0443746
-0.0899243
0.210762
0.0753351
-0.102127
-0.0357122
-0.141452
-0.218705
-0.0884633
0.0609276
-0.153173
0.341982
0.279913
0.19538
-0.475293
0.0427797
-0.0805189
0.0377392
-0.413448
0.116021
-0.306665
-0.109485
0.0804616
-0.0749731
-0.00548853
-0.0236066
0.129564
-0.105958
0.192045
0.0226346
0.0786891
-0.108475
0.0297858
-0.172211
0.452124
-0.193587
0.00955649
0.18403
0.274761
0.158734
-0.217083
-0.0490138
0.266096
0.0583289
-0.121989
0.0636598
-0.00170916
0.00573533
-0.0095794
0.00177631
0.00780309
-0.215053
-0.0396366
0.254689
-0.266913
-0.0500001
-0.024653
0.0210471
0.0036059
0.258117
-0.107788
-0.150329
-0.157318
0.0425405
0.114778
0.0197233
-0.00498846
-0.0147349
-0.129485
0.20909
-0.0796053
0.0146605
0.00506281
-0.141036
-0.121599
0.262635
0.114325
0.0421
-0.0922892
-0.0146818
-0.00710839
0.112327
-0.130905
0.018578
0.0345924
0.425174
-0.459767
0.0713239
0.00913773
-0.00442977
-0.00930062
0.349917
-0.315326
-0.146589
0.0400844
0.106505
0.00621058
-0.122639
0.116428
-0.0312257
0.190864
-0.159638
-0.138029
0.018269
0.11976
0.221236
-0.0291903
-0.054249
0.0956084
-0.0413593
0.0293983
0.00982708
-0.0392254
-0.00497409
0.009101
-0.00412691
-0.175588
0.144694
0.0308937
0.114899
-0.0506879
-0.0642107
-0.344546
0.320672
0.023871
0.0104822
-0.0102169
-0.000265337
-0.00356929
0.00338409
0.000185193
-6.1176e-05
-0.380502
0.38056
-0.368732
-0.0193784
0.388107
-0.157568
0.192271
-0.000962914
0.00933445
-0.00837154
0.137963
-0.152788
0.0148247
-0.361267
0.0228862
0.33838
0.0926014
-0.0498217
-0.00957461
-0.0125361
0.0221107
0.0427001
0.0137886
-0.0564887
0.0606839
0.0542147
0.200031
-0.200449
0.000418152
-0.442209
0.369504
0.0727015
0.0910927
-0.0384038
-0.0526889
-0.00692223
0.0128298
-0.0059076
0.000628301
0.0120633
-0.0126916
-0.0321506
0.0999366
-0.067786
-0.0306236
-0.135439
0.166063
-0.0105357
0.00255036
-0.0240854
-0.184741
-0.140013
0.324753
0.190002
0.0312332
-0.0394636
-0.0320031
0.0714667
0.109678
-0.0740576
-0.0356209
-0.283513
0.12805
0.155463
-0.103763
0.0390214
0.0647412
0.177207
0.0228241
0.170135
-0.152686
-0.0174495
-0.368796
-0.273603
0.108656
0.164946
-0.181459
0.0338436
0.147615
-0.00233982
0.00547998
-0.00314016
-0.00618617
0.00681447
-0.0158067
0.00389641
0.0119103
0.168912
-0.19862
0.0297081
-3.0517e-06
-0.0111218
-0.000297987
0.00419278
-0.0038948
0.00258553
-0.0044586
0.00187307
0.148751
0.021384
-0.384907
0.191319
0.0829164
-0.223953
-0.0383308
0.0236214
0.0147094
-0.24324
0.0281865
0.085416
-0.429965
0.0933074
-0.0229408
0.0106129
-0.0621303
0.0515174
-0.014156
-0.366303
-0.0687408
0.0856276
-0.215113
-0.0437046
-0.0471385
0.0908431
-0.0280991
-0.273907
0.302005
0.0116563
-0.136169
0.234182
-0.224626
-0.000765828
-0.00420826
0.12057
-0.259604
0.139034
0.00348667
-0.00543555
0.00194888
-0.00758831
-0.0073265
0.0149148
-0.0430179
0.0364826
0.00653533
-0.161087
-0.223821
-0.190084
0.475884
-0.168504
0.196745
-0.151225
-0.0141962
0.165421
0.00423625
-0.000749576
-0.143881
-0.0642696
0.20815
0.340083
0.0727009
-0.412784
0.0287416
-0.390009
-0.0498238
-0.0342183
0.0840421
-0.102757
0.058991
0.0437657
-0.0158067
0.154809
-0.157753
0.0731408
-0.118374
0.0452337
-0.0356738
-0.24096
-0.415662
0.156417
0.259242
0.117951
-0.239941
0.12199
-0.0115335
0.00394519
-0.0408272
0.0773197
-0.0364926
-0.0031097
-0.00306328
0.00617298
0.129549
-0.0172226
-0.139368
0.145578
-0.149787
-0.123816
-0.0264278
-0.00474516
0.031173
0.205289
-0.0280825
0.00314075
-0.000555224
-0.28533
0.0620116
0.223318
-0.010621
0.00446875
0.00615221
-0.0573882
0.0296313
0.0277569
-0.078277
-0.0683125
0.128786
0.124362
-0.253148
-0.488213
0.443324
0.0448816
-0.162327
0.0214431
-0.0248328
0.106244
-0.0814114
-0.0141157
0.0117759
0.101481
-0.125088
0.12947
-0.415597
0.286122
0.279668
-0.381083
0.101413
0.0760883
-0.352138
0.276049
-0.114893
0.0642054
0.0659266
0.017822
-0.0837486
-0.0476176
0.0438243
0.00379331
-0.234508
0.212684
0.0218243
0.0127948
-0.0145757
0.00178092
-0.0890719
0.0569213
-0.101672
0.0373509
-0.241848
0.0147892
0.227059
-0.0560413
-0.0477213
-0.160579
0.342699
-0.436169
0.15717
0.278998
-0.0567534
-0.0123286
0.069082
-0.574097
0.312873
0.261216
0.307554
-0.245079
-0.131662
0.0751386
0.0565236
-0.264453
-0.0481481
0.3126
0.00145223
-0.00938821
0.00793598
0.17253
0.0327585
-0.177767
0.130212
0.0475548
-0.295796
-0.278309
-0.135678
-0.0399095
-0.00475799
-0.009731
0.014489
-0.0628484
0.093691
-0.412902
-0.127829
0.28344
-0.155612
0.0576289
-0.105484
0.0478547
0.00929885
-0.0109531
0.00165425
-0.346335
0.422423
0.400868
-0.462178
0.0613092
0.0447079
-0.034095
-0.158092
0.0882506
0.0698412
-0.092001
0.127756
-0.0357552
-0.0590436
0.037382
0.0216616
-0.253148
-0.183022
0.079532
-0.0406283
-0.161627
0.202255
-0.000791168
0.401659
-0.0219372
-0.0371064
-0.0947277
0.0404786
0.0245442
-0.0831535
0.0586093
0.107235
-0.0496065
-0.298837
-0.114616
-0.0160419
0.058742
-0.127358
-0.179528
-0.0891876
-0.206204
-0.086698
0.0458708
0.338709
-0.112547
-0.226162
-0.0417526
-0.0660802
-0.0296567
0.240864
0.239143
-0.398336
0.122913
0.275419
-0.0826332
-0.0357412
0.0160902
-0.00171734
-0.0143728
-0.00232467
0.00202668
0.255392
-0.0141142
-0.241278
-0.000996702
-0.137032
0.00113598
0.000475188
0.347318
-0.13986
-0.20746
-0.0575764
-0.0451802
0.173758
-0.19158
0.017822
0.134059
-0.0408938
-0.0931655
-0.0913881
0.0338117
-0.418623
0.119781
0.0423977
-0.0129994
0.179658
0.0992817
-0.27894
-0.0360784
0.114767
0.532857
-0.357326
-0.175535
0.0375481
0.00959161
0.000351824
-0.00994343
-0.391224
-0.0129262
0.40415
0.000249726
-0.00982433
-0.157314
0.181458
-0.0241448
-0.38849
0.236234
0.152255
0.0144366
-0.140905
0.0228133
0.120394
0.0905122
-0.0493033
-0.0412089
-0.00562139
0.0216742
-0.0160528
-0.0774511
0.0379875
-0.0585401
-0.22679
0.257679
-0.195235
-0.0036685
0.000782486
0.00288602
-0.0794046
0.0476105
0.0317941
0.40436
-0.25208
-0.152281
0.169706
0.0304053
-0.200112
-0.0504981
0.0750423
0.0650659
0.0260268
-0.0347478
0.00832003
7.33429e-05
-0.00374185
-0.252923
-0.0365569
0.289479
0.238841
-0.207374
-0.0314673
0.00385337
-0.00616415
0.00231078
0.303588
-0.190912
-0.204631
0.0607498
0.0889037
-0.0233707
-0.065533
-0.154786
0.136458
0.0183278
0.255281
-0.0340578
-0.221223
0.0163256
-0.000235455
0.266169
0.211766
-0.477936
0.0829026
-0.0932816
0.010379
0.0426822
-0.0863867
-0.0128989
0.0128989
-0.304631
0.398317
0.270066
-0.163754
-0.106313
-0.350688
0.290318
0.0603701
0.370443
-0.199425
-0.171019
-0.0887354
0.0666791
0.0220564
0.220332
0.15011
-0.0981459
0.148784
-0.0506381
-0.233384
-0.117305
0.0524613
0.134597
-0.187058
0.136755
-0.389678
0.0362035
-0.180101
-0.120074
0.267307
-0.147235
0.0176249
-0.217905
0.200279
0.308661
-0.265635
-0.0430274
0.284373
0.024287
-0.0241935
-0.164412
0.188606
-0.0480483
0.0120781
0.0359702
-0.00610015
0.0113116
-0.00521141
0.0816228
0.152558
-0.0580251
0.0643401
-0.006315
-0.133291
0.0457536
0.0875378
-0.0117748
0.00567463
-0.146753
-0.0294365
0.17619
0.134748
-0.0787539
-0.0559944
-0.097286
0.215237
-0.0533848
0.0844243
-0.0310395
-0.124081
-0.436744
0.0257691
-0.0162147
0.356297
0.382444
-0.155369
-0.227078
-0.0150037
0.00938235
0.00164325
-0.183956
0.182313
0.457809
-0.0951813
-0.0167223
-0.11516
0.131882
-0.147298
0.0491516
0.130016
0.173572
0.180332
0.166985
-0.00295784
0.00030722
0.00265062
-0.122056
-0.313753
-0.0273872
0.281612
-0.383129
0.101516
-0.00476184
0.00165214
0.00637475
-0.00895105
0.0025763
0.0530061
0.0358976
-0.0205733
-0.136745
0.177006
0.00666793
-0.0114259
0.270784
0.289243
-0.235151
-0.106726
0.341876
-0.014603
-0.0201448
-0.367197
-0.0862592
0.453455
-0.329395
-0.051109
-0.00347204
-0.00706365
0.298048
0.101868
-0.000566375
0.010158
0.141662
-0.127419
-0.0142433
-0.138285
0.147609
-0.0093242
-0.00298259
0.00935734
0.0160751
0.179332
-0.195407
-0.335361
0.100208
0.0152229
-0.040695
0.0254721
0.118298
0.0155617
0.00702629
-0.0448997
-0.0457512
0.346753
-0.209257
-0.137496
-0.343421
-0.0987917
-0.2653
0.157511
-0.0179709
-0.0380609
0.0560318
0.0513188
0.0615528
-0.112872
0.0121649
0.236546
-0.444169
0.388341
0.0558271
-0.222462
-0.0207779
0.0177548
0.0651477
-0.00381293
0.0076663
0.203954
-0.148285
-0.0556698
-0.141093
-0.124207
-0.285014
0.398091
-0.113077
-0.175811
0.0290577
0.098354
-0.0685765
-0.0297775
-0.00211539
0.0114142
-0.00839143
-0.00222953
-0.0675317
0.0640916
0.00344006
0.0592995
-0.075763
0.0164635
0.0662239
0.0177826
-0.0840065
-0.00135082
5.39293e-05
-0.192476
-0.0665202
0.258995
-0.40481
0.275408
0.129399
-0.270793
-0.191926
0.273548
-0.0838267
0.0555942
0.0282325
0.369052
-0.219696
-0.149357
0.18106
-0.00859199
0.00163503
-0.0353253
0.0530801
0.142918
0.0215587
-0.0135575
0.069811
-0.0105115
-0.0103056
0.00338336
-0.209957
-0.0739058
0.283862
0.164298
0.127473
0.183029
-0.310503
0.109877
-0.448269
0.0113262
-0.455496
-0.475097
-0.406299
0.15315
0.00279571
-0.0115157
0.00871995
0.0567039
0.198688
0.395962
-0.281055
-0.114911
-0.0480268
0.0935765
0.123098
-0.0855429
-0.0375548
-0.318745
-0.0860675
0.153961
-0.236691
0.0827301
-0.0973038
0.0218609
0.0754429
0.00765127
-0.0644047
0.023635
-0.181203
0.0577398
0.213976
-0.271717
0.0456125
-0.196352
0.0148933
-0.0107475
-0.00056621
0.0113137
-0.037348
-0.400602
0.201176
-0.00019847
0.00630369
-0.00610522
0.0695317
0.0535661
0.106885
0.265787
-0.372674
-0.00200696
0.00121774
0.000789223
0.00773311
-0.00197171
-0.0057614
0.000327226
0.00181578
-0.00214301
-0.195944
-0.20466
0.267265
-0.209526
0.00462473
-0.15585
-0.0964913
0.106277
-0.0097856
-0.135747
-0.0809524
0.2167
0.0134029
-0.000608091
-0.0626032
0.0446322
0.0172665
-0.0752916
-0.0324511
0.0900963
-0.0576452
0.137339
0.245101
0.0190961
0.122566
-0.0101514
-0.00203764
0.012189
-0.00359414
0.0138057
-0.0284346
0.0146289
0.211955
-0.277025
0.0650702
0.125126
0.0371369
-0.162263
0.0324936
-0.155133
-0.0025332
0.0010003
0.0015329
0.005566
0.00435787
-0.0831072
0.0296372
-0.124682
0.245252
0.024416
-0.241499
0.376756
-0.086192
-0.290564
-0.0491238
0.100443
-0.228217
-0.178083
-0.0381683
0.0533913
-0.106784
0.139278
-0.0106323
0.0225834
-0.294722
0.227905
0.0668173
-0.27447
0.0520066
-0.425359
-0.0628616
-0.11891
-0.000496492
-0.0238827
-0.118084
0.141966
0.06228
0.036074
-0.268743
0.381091
-0.112349
0.119721
-0.0652644
-0.0544567
0.0124335
0.0352041
-0.0476376
-0.155589
0.177358
-0.021769
0.302815
-0.17403
0.210925
-0.126542
-0.0843827
0.186595
-0.167993
-0.0186029
0.48719
-0.249268
-0.237922
0.12986
-0.164116
0.0342561
-0.00603481
-0.174257
0.018668
-0.0414059
-0.0482391
0.089645
-0.034925
-0.293419
0.4003
-0.197196
-0.500241
0.109018
-0.147893
0.0122141
0.18744
0.0678405
-0.113771
0.0894973
-0.299455
0.13496
0.12184
-0.00356007
0.266142
0.142537
-0.408684
0.0191039
0.0797307
-0.0988346
0.186113
-0.196087
0.00997371
-0.0572729
-0.0416724
0.0989453
-0.171815
-0.00595178
-0.0191042
0.0041005
-0.262851
0.0886232
0.174227
0.00401511
-0.00401511
0.132239
0.0280612
-0.160301
-0.0908883
0.153293
-0.0417441
-0.0156442
-0.0133813
-0.0305302
-0.0240327
0.0545629
0.13756
0.0397976
0.193587
-0.191944
-0.39481
0.198865
0.210742
0.111676
-0.322418
-0.129695
0.0798412
0.0498541
0.152296
-0.127017
-0.0252787
-0.0442059
0.132104
-0.0878979
-0.105977
0.0706458
0.035331
-0.00678369
-0.0537897
0.0983474
-0.0445577
-0.355513
0.505196
-0.14969
-0.000400483
0.000509022
-0.000108539
-0.0140099
0.0553097
-0.0412997
0.141958
-0.228751
0.0867922
0.238312
-0.0275704
-0.0586931
0.077797
0.012442
-0.00458331
-0.133687
-0.0286397
-0.277028
-0.137006
0.414034
-0.0813901
0.0247196
0.0566705
-0.0964304
0.0550246
-0.143383
0.0631263
0.102623
0.0113249
-0.113948
-0.0375817
-0.00910217
0.0466839
-0.162443
-0.0541155
0.0615463
0.0350102
-0.0965565
0.00598209
-0.00629894
0.000316855
-0.0578528
-0.0335354
-0.0423234
0.0983224
-0.0570861
-0.0412363
0.0324917
-0.0823155
0.145489
-0.184988
0.0394982
-0.401687
-0.0590204
-0.103987
-0.318641
0.10371
-0.00196925
-0.0226837
0.0196692
0.0154429
-0.0351121
0.00817083
-0.00913374
-0.0106144
-0.0374339
-0.00982872
0.0118179
-0.0019892
-0.0106814
0.0107069
-2.54879e-05
-0.0705188
-0.0108713
-0.0351624
0.182209
-0.00499545
-0.00462041
0.00961586
0.00420721
0.0260911
-0.0302983
0.207386
0.0237326
-0.0477182
0.0239856
-0.00215707
-0.000517287
0.00267436
0.0518018
0.0156347
-0.0674365
0.0826164
0.121338
-0.108874
0.402223
-0.293353
-0.194172
0.031728
-0.214669
0.18387
0.0307988
0.156324
0.0302714
-0.0634287
-0.0589149
0.122344
0.0781909
0.260517
0.00108452
-0.00108452
-0.190011
0.165817
0.142684
0.0173804
-0.160065
-0.00224791
-0.000285286
-0.217395
-0.0973793
0.314773
-0.147012
0.12313
0.0312985
-0.0174928
-0.238189
-0.0971731
0.0253432
0.183585
-0.208928
-0.00369299
-0.00182269
0.00551568
-0.114646
0.416052
-0.301412
0.0416594
0.0780617
-0.152485
0.0121087
-0.00734639
-0.00476232
0.187117
-0.0495567
0.126846
-0.142516
0.0156699
0.0898534
-0.194222
0.0486327
0.145589
0.0124028
-0.108894
-0.110256
0.00558908
0.104667
0.00638357
0.00827693
0.105975
-0.1221
0.0161249
0.147918
-0.272227
0.124308
0.00959824
-0.00999733
0.000399091
0.147557
-0.0207106
0.00481606
0.0134285
-0.00504996
-0.00837855
0.0446139
-0.0926407
0.0358436
-0.0806694
-0.186244
0.138928
0.229932
-0.368863
0.00693831
0.0007948
0.104234
0.106691
-0.0282202
0.15808
0.442656
-0.305877
-0.136781
-0.05496
-0.00707614
-0.0604555
-0.0236768
-0.0124215
0.0360982
0.000891317
3.14894e-05
0.00398362
-0.0327105
-0.0511162
0.135621
-0.185603
0.0499823
-0.381869
0.272991
0.165626
-0.128181
0.111459
0.108889
-0.042962
0.328788
-0.200537
-0.128252
0.0328333
-0.0633635
0.135843
0.0330685
-0.0380921
-0.453857
0.441554
0.0122935
0.00113379
0.00127841
0.180744
-0.23899
-0.328916
-0.12326
0.0166801
0.10658
0.168699
-0.474576
-0.106573
0.372356
0.00919781
0.00135064
-0.0105484
0.0358107
-0.226044
0.177049
0.0489947
-0.252201
0.363876
-0.0586163
0.108754
-0.0501373
-0.0347766
-0.119257
-0.0258193
0.184421
-0.0216238
-0.0577808
-0.213204
0.230829
0.00625309
-0.0164045
-0.12719
0.0203366
0.106854
0.102843
0.153843
-0.256686
0.0305509
-0.0166638
-0.013887
0.000825143
0.00255895
0.255152
-0.402103
0.146949
-0.0413682
0.0176915
0.235897
0.280753
-0.331284
0.093094
-0.24416
0.108413
-0.0840585
-0.0156104
0.0996689
7.81381e-05
-0.00324419
0.00316605
-0.0336269
-0.123687
0.00136122
0.00462087
0.032615
0.108323
-0.140938
0.00739653
-0.0222496
0.0148531
-0.0767441
0.0442931
-0.160421
-0.0245664
-0.00941632
0.109905
0.160161
0.0138216
-0.0237784
0.00995674
-0.0747908
0.0149703
-0.0120191
0.00696911
0.00462562
0.0760106
0.170484
-0.246495
-0.0139544
0.0259948
-0.0120405
0.165148
-0.193208
0.0280597
0.00205515
0.130184
-0.0222143
0.0472712
-0.0250568
0.0193277
-0.0604766
0.0411488
-0.00373386
0.0104018
-0.392249
0.286926
0.10532
-0.0101974
-0.00890683
-0.144054
0.319577
-0.175524
-0.0136826
0.0200662
0.042191
0.165307
-0.207499
-0.211705
0.104921
-0.175867
0.00787442
-0.343981
0.188507
0.155472
0.198208
-0.498277
0.30006
-0.0285615
-0.106192
0.134754
0.0742349
-0.0250996
0.0769014
-0.442105
0.0986803
0.00750933
-0.00760224
9.29047e-05
-0.184732
0.0243102
-0.239422
-0.104561
0.109631
0.267125
0.0640166
0.0737804
-0.137797
0.05503
0.0502314
-0.105261
0.016984
-0.0391984
0.112441
-0.146068
-0.157385
0.36614
0.135706
-0.170777
0.0350703
-0.00826397
0.0147549
-0.129089
-0.328734
0.216186
0.336951
-0.148446
-0.0369451
0.172651
-0.0183822
-0.145746
0.164128
-0.000468393
0.00155292
-0.317356
0.0999605
-0.0492319
0.0718385
-0.0226066
0.0485825
0.0610959
0.0488132
-0.0628232
0.000826189
-0.000498963
0.000127266
0.00148053
-0.113181
-0.283805
0.396981
0.0212887
-0.151425
0.130137
0.123679
0.235696
-0.19756
-0.038136
-0.19599
0.170391
0.0255994
-0.00573433
0.00357726
-0.314843
-0.0671269
0.381965
-0.165381
-0.229431
-0.49788
0.214505
0.283366
0.0308056
0.111312
0.0524777
-0.16379
0.249997
-0.102079
0.102457
0.039283
-0.14174
0.028675
-0.162362
-0.00348183
0.0156947
-0.0122128
-0.00287813
-0.0117247
0.365731
-0.227402
-0.138331
0.1701
0.130856
-0.300956
0.00858146
-0.156762
0.00176561
0.00245749
-0.00422309
0.00355136
-0.0101374
9.85335e-05
0.0032581
-0.00335663
-0.0601319
0.0381948
-0.0415938
-0.0175218
0.0591156
0.0801592
-0.0387362
-0.041423
0.0112497
-0.418588
0.052285
-0.117617
0.275279
-0.0956215
0.167256
0.0510295
-0.218286
0.145204
0.259155
-0.0587881
0.020445
0.0282895
-0.0487345
0.00145905
0.00747449
-0.241841
-8.01795e-06
-0.0176828
-0.0354321
0.0531148
0.100184
0.316752
-0.416942
-0.0678558
0.203477
-0.119978
-0.0273198
0.298517
-0.378652
-0.0282142
-0.141714
0.167057
0.00688422
0.0141629
-0.00851512
0.00545185
0.0927206
-0.142668
0.0499472
0.00545398
-0.00918784
0.084688
-0.0184641
0.00491862
-0.00778595
-0.061124
0.078946
0.0347483
-0.0111269
0.00225653
0.0011711
-0.00342763
-0.119239
-0.0079512
0.0538364
-0.0414029
-0.0940274
0.0402378
0.00676739
0.00666113
0.219529
-0.301771
0.0822413
0.113369
0.332251
-0.448756
0.116502
-0.024667
0.0352259
-0.0210177
-0.0142082
0.365081
-0.477021
0.0935815
0.38344
0.0967868
-0.0038536
-0.0929332
-0.233164
0.397624
-0.164465
-0.0873344
0.0813295
0.0163111
-0.132895
-0.533806
0.310396
0.223409
-0.0706744
0.0568785
0.013796
0.189828
-0.281726
0.0918981
0.263649
-0.106475
0.0478587
-0.267554
-0.101466
0.369017
-0.0483453
0.0889965
-0.0406512
-0.0131872
0.0328564
0.283241
-0.109615
-0.173627
-0.244221
0.169928
0.0742922
-0.350124
0.1107
-0.100572
0.0670474
0.033525
-0.270409
0.399876
0.0623403
0.149142
-0.211483
0.0318191
0.0578857
-0.0897048
-0.137128
-0.156928
0.294056
-0.00239643
0.00252635
-0.00012992
-0.201062
-0.0651063
0.266167
-0.00213353
0.00220687
0.239134
-0.0218359
-0.217298
0.0879469
-0.124032
0.0360848
-0.236203
0.328773
-0.0925711
-0.00642413
-0.109517
0.115941
-0.150045
0.0300669
-0.349823
-0.0687654
0.16953
0.113711
-0.000522744
-0.00187369
0.234628
-0.262727
-0.00724668
-0.00517179
0.0124185
-0.0095193
0.0125804
-0.00306114
-0.168335
-0.0661727
0.295991
0.236862
0.301993
0.0819171
0.388171
-0.0626237
-0.32555
-0.00079539
0.0099932
0.104096
-0.356298
0.00305402
-0.00518755
-0.00553138
-0.00340216
-0.0135278
0.101778
0.00181015
-0.00205705
0.000246897
-0.397283
-0.131183
0.226425
0.0843016
-0.310728
-0.00272515
-0.00340917
0.0056657
0.0649105
-0.175166
0.132742
0.223533
-0.356276
-0.145739
0.273212
-0.273551
0.0739398
-0.242849
0.168909
0.0751475
-0.100396
0.0252489
-0.00631437
-0.0171814
0.0234958
0.16672
-0.166288
-0.000432585
0.00265537
0.00957778
-0.00206845
0.0229934
-0.070678
0.0476846
0.122197
-0.0423091
-0.0798876
-0.277606
0.248351
0.0292539
-0.0122992
-2.75056e-05
0.0123267
-0.00357456
-0.0386349
0.141092
-0.325362
0.0891585
-0.276219
0.109485
0.166734
-3.9211e-05
-0.000472117
0.000511327
0.140835
0.00301925
0.00908946
-0.0331413
-0.525336
0.340889
0.184446
-0.05942
0.123437
0.187898
0.1761
-0.364005
-0.0512652
0.163706
-0.217452
0.123001
0.0944503
-0.400209
0.167039
-0.105855
-0.280433
0.386283
0.256727
-0.182787
0.00518809
-0.00356146
-0.00162663
-0.0915243
-0.306783
0.398306
0.00334858
0.00203987
-0.000919248
-0.0965063
-0.179713
0.0599733
-0.324428
-0.0719507
-0.0213309
0.00706221
0.00245099
-0.0095132
0.144646
-0.171398
0.0267518
-0.00160551
0.00671712
-0.00511161
-0.23622
0.112139
0.0815024
0.124467
-0.15509
-0.0074678
0.00247234
0.0198538
0.0106971
0.0102026
-0.00493062
-0.00527196
-0.444294
0.047001
-0.0162872
-0.188114
0.287395
-0.0067849
0.00517939
-0.353166
0.130421
0.222743
-0.0504918
-0.0201827
0.09293
-0.0107264
0.00993096
-0.102726
-0.291672
0.394397
0.137963
0.310445
-0.448413
-0.0585846
0.0169908
-0.327188
0.061347
0.265841
0.00494422
0.000243872
0.0701814
-0.262658
0.0101647
-0.024119
-0.175419
-0.111538
-0.269548
-0.0284944
0.135048
-0.0838134
0.0345815
-0.00888297
0.00304738
0.0058356
0.150299
-0.164495
0.16401
0.0798666
-0.243877
-0.170389
0.186464
-0.0824
0.216176
0.112611
-0.0596366
-0.417384
-0.110793
0.0739703
0.0368232
0.279619
-0.130729
-0.14889
0.0103479
0.0146266
-0.0249745
0.00955914
-0.162901
0.153341
-0.00441215
0.00617776
0.214253
0.0789098
-0.293164
-0.289877
0.394293
-0.104419
-0.0433119
0.0895641
-0.0462523
0.00210404
0.0026152
-0.00471925
0.0259458
-0.0450904
0.0191446
-0.19364
-0.0197791
0.213418
0.0177974
-0.00421833
-0.0636927
0.277944
-0.0034854
0.00132659
0.00215881
0.138704
0.0679483
0.0235473
-0.0914956
-0.170228
0.327053
-0.00141779
0.00224398
0.0907126
0.230181
-0.320895
-0.115306
-0.102146
-0.215669
-0.172821
0.332544
-0.23514
-0.0974051
0.278363
0.208827
0.0123763
-0.0230086
0.048948
0.0336955
-0.0826435
-0.00811793
-0.00925641
0.0173743
0.0657716
0.056425
-0.195459
0.168795
0.0266637
0.147047
-0.178272
-0.469341
0.150287
0.319051
-0.409455
0.104819
-0.423946
0.309293
-0.166376
0.038978
-0.0873232
0.251619
-0.209429
0.0111685
-0.00652958
-0.00463892
-0.0570011
-0.0587032
0.115704
0.348426
-0.215685
0.155897
0.0302162
-0.000980131
-0.00250527
-0.0692774
-0.0604178
-0.0565868
0.167899
0.146413
0.0444511
0.109996
-0.124182
0.0141866
-0.00171485
-0.00728459
0.00899945
0.0891438
-0.117705
0.018165
-0.0139578
-0.0271089
-0.125679
0.10951
-0.118585
0.00907519
-0.0369316
-0.0232003
0.146313
0.220924
0.101659
-0.322584
-0.109387
0.0459578
-0.0843711
-0.0241038
0.298438
-0.0765578
0.023173
0.0424018
0.0868097
-0.129211
0.00605169
-0.00696004
0.000908353
0.147317
0.132302
-0.023337
-0.102656
0.0185977
-0.120452
0.0172998
0.103152
0.167613
-0.0424878
0.388399
-0.199572
-0.188827
0.0467844
-0.250952
0.209166
0.0417849
0.00433659
0.00683192
0.220692
-0.223455
0.00276319
0.17273
-0.00491927
0.000460678
-0.0311654
0.168516
-0.195946
0.0274305
0.0232385
0.21406
-0.308104
0.0940424
-0.00205694
-0.0455607
-0.00407696
0.00428193
-0.000204964
0.0899691
0.0579024
-0.0823841
0.0244817
-0.00097569
-0.00310127
0.168696
0.0279171
-0.196614
-0.0964333
-0.210104
-0.0408482
0.0326659
0.151386
-0.184052
-0.154679
0.211592
-0.0569134
-0.0249296
-0.0476466
0.0221899
0.0254566
-0.0793902
-0.163459
-0.0226709
-0.13912
0.161791
0.0128089
-0.321844
-0.137033
0.458869
0.000716316
-0.00835044
0.186852
0.0522816
-0.144526
0.206866
0.0341165
0.0523763
-0.0864928
0.00523707
-0.00543554
-0.109798
0.426795
-0.317003
0.341584
-0.21704
0.0623605
0.085533
0.254366
-0.339901
0.476889
-0.170852
-0.306041
0.0125015
-0.0403866
0.0278851
-0.240069
0.506238
-0.188931
0.0204267
-0.284029
-0.114312
-0.0659627
0.0721676
-0.00620494
-0.392008
0.0985856
-0.000382175
-0.0426358
-0.0303181
0.0240037
-0.153537
-0.0906843
-0.00304145
0.00646165
-0.0034202
-0.326056
-0.116051
-0.177824
-0.0253501
0.203173
-0.064131
-0.209419
0.273549
0.00200214
-0.00174868
-0.000253457
-0.0772823
-0.399814
0.399871
-6.29088e-05
0.123273
0.226143
-0.349417
-0.240205
0.190829
0.0493757
-0.0851111
-0.227029
0.312139
-0.082747
-0.0489152
0.00114953
-0.00107139
0.00433714
0.0107938
-0.00148925
0.00329939
0.0709276
0.279069
-0.349998
0.0427027
-0.213092
-0.112852
0.106428
0.208927
0.00302763
-0.266023
-0.0871445
-0.0380728
0.0478999
-0.00066761
-0.00423181
0.00489942
-0.132502
0.142061
-0.073132
-0.136973
-0.002527
-0.00977222
-0.325763
-0.208044
-0.304501
0.375427
-0.0182365
0.0101186
-0.00496151
-0.0391369
0.0295261
0.00967213
-0.287279
0.00761867
-0.00818505
-0.071162
-0.140234
0.211395
-0.126871
0.0423129
0.0845584
-0.378738
0.287212
0.15503
-0.176218
0.0211882
-0.287373
0.146403
0.14097
0.08839
0.0463583
0.11951
-0.0515613
0.107313
0.0402435
0.348043
0.076535
-0.42458
-0.0041293
0.00597533
-0.00184603
-0.0834031
-0.124053
-0.411008
0.0111887
-0.426173
0.426167
0.0195881
0.201104
-0.217116
-0.110072
0.0769705
-0.278033
-0.0517387
0.0110437
0.0218855
-0.215526
0.035121
-0.261221
0.0685204
0.1927
-0.0234598
0.00319945
-0.0010954
0.1742
-0.386478
0.212272
0.00346213
0.0532055
-0.0566677
-0.0234474
-0.134605
0.158053
0.383362
-0.209167
0.0973537
-0.188242
-0.111478
-0.00792941
0.119407
-0.401432
0.13494
0.266491
0.384903
-0.219041
-0.165863
-0.0923877
0.388478
-0.296091
-0.136597
-0.158126
-0.098489
0.118894
-0.0204055
0.427521
-0.146848
-0.280677
0.0962857
-0.240031
0.143745
-0.12241
0.121414
-0.0704813
0.418523
-0.114397
0.00335192
-0.0105986
-0.0109908
0.0183873
0.0296674
-0.0329534
0.0454549
-0.0265338
-0.0908225
-0.0296295
0.015368
-0.0371503
0.0217824
-0.01511
0.0366419
-0.0215319
-0.00804095
0.40864
-0.400608
-0.188688
0.239718
0.165074
-0.399306
0.234229
0.0123767
0.0285864
-0.0409631
-0.0248748
0.0469706
-0.0220957
-0.1369
0.105585
0.0313153
0.169772
-0.362264
0.0723839
-0.270686
0.206554
-0.100714
-0.30452
0.405233
0.155591
0.0832496
-0.0428746
0.0303385
-0.00707153
-0.00704415
-0.00752035
-0.0014307
0.0135013
0.0808976
-0.0943989
0.374262
-0.351377
-0.387318
0.51599
-0.128674
-0.0921185
-0.288322
0.38044
-0.0126091
-0.0570655
0.0888846
-0.310881
0.20119
0.10969
-0.00586888
0.00465455
0.00121433
0.279431
-0.139349
-0.0247674
0.255424
-0.144172
0.10541
-0.13056
0.0251497
0.0222374
-0.161586
0.0871069
-0.0529904
-0.150599
0.127152
0.0434421
-0.412287
0.0904335
-0.402495
0.281193
0.121296
0.0957765
-0.0374476
0.0995855
-0.368329
0.324814
0.161707
-0.120355
0.0218658
0.0401986
-0.0968878
0.0566893
0.288478
-0.380867
0.0187897
-0.0793987
0.060609
0.270267
-0.373798
0.103529
0.203867
-0.227823
-0.380752
0.0907226
0.290027
-0.247599
0.198585
0.058864
-0.0350089
-0.0238551
0.118019
0.0321645
-0.150184
-0.195207
0.0307943
-0.17793
0.106768
-0.00454809
-0.0405442
0.00998208
0.0305622
-0.398034
0.191382
0.206652
-0.1042
-0.0226711
0.136427
0.00717368
-0.001122
0.0210192
0.0479627
-0.0689819
0.000950453
-0.00228702
0.00133657
-0.0590859
-0.132623
-0.0980521
0.110455
0.102968
-0.0479376
0.0400514
0.0688372
0.00809813
-0.00998627
0.00188814
-0.285313
0.40822
-0.119757
-0.263373
-0.120463
-0.208272
0.0329773
0.00350528
-0.0860985
-9.91786e-05
-0.0154713
0.0155705
-0.170327
-0.0953088
-0.161775
0.237785
-0.000529936
-0.00438934
0.0204018
0.0813514
-0.101753
0.204243
-0.0271937
0.0583653
-0.0445768
0.371537
-0.116388
0.137378
-0.150532
0.035998
0.048818
-0.084816
-0.0335828
0.0720062
-0.0384234
-0.223804
-0.107481
-0.044436
-0.0462788
0.0907148
-0.109823
0.0819939
0.0278288
-0.0178473
0.00769839
0.0101489
0.0249341
-0.0125577
-0.316842