/*--------------------------------*- C++ -*----------------------------------*\
| =========                 |                                                 |
| \\      /  F ield         | OpenFOAM: The Open Source CFD Toolbox           |
|  \\    /   O peration     | Version:  v2012                                 |
|   \\  /    A nd           | Website:  www.openfoam.com                      |
|    \\/     M anipulation  |                                                 |
\*---------------------------------------------------------------------------*/
FoamFile
{
    version     2.0;
    format      ascii;
    class       volScalarField;
    location    "700";
    object      ddt0(k);
}
// * * * * * * * * * * * * * * * * * * * * * * * * * * * * * * * * * * * * * //

dimensions      [0 2 -3 0 0 0 0];


internalField   nonuniform List<scalar> 
18355
(
8.82761e-08
0.00111959
5.4813e-08
-4.53124e-08
-3.88549e-08
-4.28458e-07
-2.09646e-08
-2.7463e-07
1.84341e-08
-0.000532646
3.07856e-09
0.000665526
-8.48364e-07
2.39425e-08
-1.09312e-07
-1.37455e-07
0.000282855
-4.5089e-08
-8.20479e-08
0.0115262
-1.18833e-07
-4.45295e-08
-0.00312423
-4.22601e-08
-3.01104e-09
-1.51386e-09
7.3299e-09
-4.12879e-09
0.00232093
6.76667e-08
-6.21465e-08
-2.47247e-08
-4.49377e-08
-5.33416e-08
-1.60572e-07
1.09294e-07
9.51897e-09
1.87275e-07
2.71489e-09
-2.02722e-09
2.36756e-08
7.48077e-07
4.17787e-08
-0.00138616
-4.25112e-08
-1.38745e-07
2.5923e-10
-3.26511e-08
2.13637e-07
-3.99103e-08
-2.13742e-08
-8.82781e-08
-1.84058e-10
0.00316137
-1.7436e-08
-1.68404e-08
2.03233e-06
-1.14036e-07
-6.26266e-06
2.9004e-07
-3.496e-08
-3.92348e-07
-4.81735e-08
-4.06197e-09
0.000559124
7.57838e-08
-0.00114047
-3.82294e-08
8.3582e-09
-3.30586e-08
-2.37826e-07
-3.94882e-09
1.24802e-07
-1.0995e-08
-2.90188e-07
-2.01286e-08
0.0105113
-7.05568e-09
2.16419e-07
-6.99733e-08
-2.27683e-08
-5.81352e-05
-1.22695e-07
4.3366e-08
-2.68053e-09
-8.53833e-07
0.00245965
0.0113239
0.000898322
2.62995e-05
-2.38665e-05
-4.50456e-08
-9.36154e-09
-5.0416e-09
-0.000398614
-0.002996
-6.12529e-08
1.34797e-07
0.00258062
7.10624e-05
-0.00237617
0.00012421
-1.20331e-07
0.00643674
-8.26801e-08
-1.72887e-06
0.000910344
2.56177e-07
1.08776e-07
9.40131e-06
7.28506e-08
-1.98356e-08
6.01188e-11
-1.60066e-08
0.00439291
-2.52304e-08
3.9339e-06
0.0109213
7.70419e-07
4.94094e-08
-0.000472406
-0.00633324
-1.28008e-08
2.90628e-08
-6.24095e-08
-2.83962e-07
-8.96006e-08
2.57678e-09
-0.00327867
-4.46998e-09
-2.28723e-08
-0.00952719
-2.72623e-08
1.21915e-07
4.04925e-08
5.02266e-10
-1.10262e-07
5.41028e-09
6.17815e-08
4.65314e-07
-0.00228622
-0.00194818
-1.28034e-07
7.61667e-08
8.57448e-07
-1.37158e-08
-8.05544e-08
-0.00063887
9.89651e-08
-0.00220848
6.01021e-10
-1.83524e-08
2.17136e-08
-1.08309e-06
6.97659e-07
-2.33698e-09
-0.00776005
-1.40905e-06
-1.99658e-09
-5.29602e-07
-4.60275e-08
3.32578e-08
-8.12967e-08
1.36249e-07
-5.39286e-07
1.95427e-05
0.00184153
-9.19537e-08
-2.44432e-06
-2.864e-08
-0.00122318
-0.00279652
-1.93332e-09
-1.63254e-09
-1.37541e-07
0.00116342
1.75004e-06
-9.7763e-09
0.0143233
0.000601422
-2.98555e-07
-2.30315e-06
1.58449e-07
-1.60149e-08
-4.09501e-06
0.00139306
-0.00235149
-1.24438e-05
-2.58991e-09
0.000236122
2.30962e-06
3.34924e-08
1.27169e-07
0.00801277
-2.47347e-07
-3.3303e-08
-0.0146047
1.48954e-07
1.22643e-07
-2.56497e-09
9.81449e-08
-6.65301e-08
0.000659401
-0.00225522
0.000413807
-5.43337e-08
3.48622e-06
0.00168407
0.000786245
1.1322e-07
-1.2014e-07
6.70977e-09
0.0104231
-1.21937e-07
-2.62491e-08
-7.57452e-05
-0.00158467
0.0104716
3.32846e-09
9.51306e-08
9.77323e-05
7.2923e-08
7.43103e-08
-1.17224e-07
0.00152105
-2.63012e-08
0.00137464
0.00143471
1.10158e-05
-1.21403e-07
2.93668e-10
1.84948e-07
-2.18212e-08
0.00158826
-1.4204e-07
-3.78073e-09
-9.42559e-09
5.98764e-07
-0.00544388
0.000128679
1.19294e-07
7.13167e-06
-7.62853e-08
-2.02999e-08
-3.6141e-08
0.000932539
-0.0101243
6.40114e-06
7.42721e-07
-2.55587e-08
9.82911e-08
-4.79694e-06
1.616e-07
0.00104267
-2.19231e-08
0.000794557
0.00734394
-5.60537e-07
2.11311e-08
-4.12837e-08
6.03477e-08
-5.61338e-08
0.00128003
-5.24776e-08
-1.10917e-08
-2.36686e-08
-1.69696e-09
-1.93562e-06
5.35465e-07
2.36717e-06
-1.15374e-07
-0.0020912
-5.34757e-06
-1.90279e-06
4.31613e-09
-0.0165736
-7.87155e-08
-2.31951e-08
0.0170718
-4.05329e-08
-1.78993e-08
-1.64665e-06
5.26931e-08
-0.00204714
1.5676e-07
-2.92006e-08
-4.2892e-08
-8.89771e-08
0.000745239
-1.58667e-08
-4.71599e-08
3.42658e-09
-2.59512e-06
0.00128232
1.03337e-09
-2.0231e-09
0.0119264
4.96686e-08
8.23443e-07
1.38511e-05
-2.95295e-08
-1.38366e-07
-2.46225e-08
-3.52167e-09
4.02213e-06
2.48057e-07
-2.0172e-05
-3.09825e-06
-5.63579e-09
-1.18625e-06
-9.36249e-08
-7.45298e-08
0.0109645
7.96655e-08
3.14658e-06
-6.93289e-07
-1.12313e-08
-3.64334e-08
-1.86747e-06
-0.00255683
0.00203088
-1.44039e-07
-4.25443e-08
-0.00138496
-1.08123e-08
-0.00268572
1.81804e-07
-2.36426e-07
0.00369251
-5.80795e-09
0.000108387
-4.23822e-08
-1.48838e-08
-1.45912e-08
9.51737e-07
0.000884684
4.48214e-10
2.19847e-05
5.54254e-08
-1.27131e-08
1.43117e-07
-4.48394e-07
0.000971115
0.00492323
0.00608618
-1.76644e-08
-5.11932e-08
-0.00296167
-1.05105e-06
-7.08534e-09
-1.54264e-07
1.37335e-05
-4.7053e-06
-7.43818e-07
-0.00320044
-9.71746e-09
1.19135e-07
8.92919e-06
7.01727e-08
-1.44094e-07
1.22773e-05
1.02259e-07
7.21177e-08
-0.00267358
-4.07032e-10
2.8483e-07
9.08791e-05
0.000289126
-4.82798e-08
5.56392e-08
2.96647e-08
-7.66689e-08
-6.69586e-09
-7.7923e-08
2.23638e-07
1.7822e-08
-4.91569e-08
-8.07064e-09
1.4657e-08
1.33499e-08
-1.10374e-07
2.77935e-09
4.55345e-09
-1.33114e-07
3.51463e-06
-0.0014735
-1.11354e-07
0.00514281
-3.75509e-07
-0.00136535
1.60856e-07
-1.73085e-07
-4.84979e-08
0.00157645
3.64875e-09
-2.4442e-08
-4.74478e-09
-4.63553e-08
0.00383011
9.82569e-08
-3.78495e-08
-5.48996e-08
1.38226e-07
5.74438e-08
-1.01996e-08
0.00188862
-2.89183e-08
-7.89446e-08
1.88219e-07
4.04933e-08
1.08783e-05
0.000144412
4.77195e-06
-4.31566e-08
-9.52057e-08
0.000656594
-3.71799e-09
5.86325e-08
2.48615e-06
-2.92506e-09
-1.5813e-09
0.000274706
-1.46365e-08
0.000907969
6.21344e-07
1.55496e-06
0.000192769
-1.18674e-08
4.88556e-08
0.0135402
-3.90848e-07
-0.000931173
0.00845247
5.79791e-09
-1.69396e-08
-6.01481e-09
0.0155685
-1.37396e-07
-9.08318e-08
-3.41292e-09
-1.12168e-07
-3.53183e-07
4.7147e-06
-1.26131e-07
5.44238e-10
-2.85747e-10
1.52834e-07
-0.000281228
0.00165554
0.000821555
-0.00404645
-1.08643e-07
-8.60267e-08
-0.00123838
-4.79212e-09
-3.95415e-09
2.72392e-09
-1.07511e-07
-2.21233e-07
-3.9636e-08
-3.85234e-08
6.46728e-05
-1.73004e-07
1.6979e-07
0.000577959
6.26038e-08
0.00100165
-6.96035e-08
9.44329e-09
8.40861e-08
-2.49869e-08
-2.15057e-09
2.5554e-09
-3.2488e-08
-0.00179262
-1.4182e-07
-1.83959e-08
0.00246051
2.63287e-07
-1.50406e-09
7.72653e-09
1.7065e-09
-0.00178989
-1.41283e-07
-4.12783e-08
0.00288151
-6.02365e-08
0.00212553
2.01548e-07
-8.69997e-08
-5.47725e-05
1.99971e-07
-3.92242e-08
0.00151396
-0.00214991
0.00145311
-8.49785e-08
-4.52525e-08
-6.15139e-08
-2.32005e-06
-2.09249e-09
-0.00119028
0.0141202
0.00508694
-0.00125237
-4.38073e-08
6.57375e-07
0.00220016
-0.00299644
0.00964174
1.63579e-08
-9.79419e-08
-7.27462e-08
-0.00156392
0.000115032
9.91571e-05
-3.1725e-08
5.93943e-08
-2.59373e-09
-8.26578e-08
-3.55976e-08
0.0148033
-5.99267e-08
0.00535106
6.20543e-08
-1.04463e-07
-3.22322e-08
-4.17133e-08
6.33386e-08
-0.000131003
3.22605e-08
-1.51013e-06
-0.00208904
3.12327e-07
1.73416e-08
-5.78947e-08
4.20882e-07
-1.70958e-09
1.02069e-07
1.13671e-07
2.83164e-07
5.7449e-08
-1.46755e-07
-4.03288e-08
1.61584e-09
8.34948e-10
4.63103e-08
6.14417e-08
-4.49879e-07
-5.93262e-08
-4.6989e-08
0.00216749
-1.24998e-08
-1.30417e-07
-4.80428e-09
-4.1389e-07
-3.32645e-08
0.00341911
7.32189e-08
-0.00106293
-7.64059e-08
-3.26477e-08
0.00589922
0.00148884
-0.00119892
3.24701e-07
9.82453e-08
-9.47482e-08
5.02476e-08
-1.32238e-07
1.16062e-07
-2.08777e-07
-7.88885e-07
-0.00187223
-1.92935e-06
-3.85744e-08
0.00245861
-0.0103411
-2.27125e-09
5.66205e-08
-3.6444e-07
-0.00014404
8.08768e-08
-8.88932e-10
5.56186e-07
-6.56145e-09
-1.07344e-08
-5.45295e-08
-0.000217651
1.27647e-07
-1.35413e-06
-0.000309163
-0.00170821
0.0146972
3.30775e-08
-6.72527e-07
1.52787e-07
-1.87463e-08
-1.51929e-09
7.67533e-08
-1.52205e-05
-3.20383e-05
0.00150189
3.19575e-06
0.000441378
-0.00160989
4.11542e-07
-1.35146e-07
0.000985521
-0.00052374
9.19654e-10
7.2652e-06
-0.00144401
-0.016636
-1.07134e-07
-4.15219e-08
1.26224e-07
1.30001e-07
3.81455e-07
-6.67515e-07
7.12364e-08
-0.000841949
-1.42598e-07
-1.23581e-07
-0.00159215
-2.83204e-08
2.83583e-07
0.0116784
4.20108e-08
7.69896e-09
-0.00224061
-2.61327e-08
-1.42457e-06
-6.98734e-09
-0.00169595
3.32664e-07
4.0715e-07
-6.2893e-07
3.81601e-08
-2.32569e-06
5.27685e-09
-0.00441154
5.4231e-07
-3.8542e-08
-0.00128012
4.51326e-07
0.000155535
0.000555808
-0.000437579
1.91202e-05
7.95032e-08
-4.57133e-08
-0.00212484
-5.99394e-08
8.79983e-08
-4.98002e-09
1.51378e-07
-0.00501636
-0.000116587
1.56612e-07
-0.000659293
-5.2058e-07
-1.3498e-07
-4.29164e-08
-3.54855e-09
-5.47663e-08
3.39283e-07
-3.41624e-08
-0.0285576
-7.50779e-08
-2.21018e-08
-4.6422e-08
0.00115606
0.00164585
6.30948e-08
-2.47982e-09
-2.75893e-07
-1.87412e-09
-4.23271e-08
-0.0015381
3.75121e-06
-1.72213e-08
5.62116e-08
4.34991e-07
2.29095e-07
2.50611e-07
-4.44786e-07
-1.09266e-07
0.00259268
-1.69412e-07
-1.21662e-08
-2.74975e-05
-0.00274586
-2.05212e-08
0.000388949
-4.58725e-08
3.28115e-08
3.06214e-10
-2.68449e-08
0.00163473
6.86348e-08
9.08467e-05
-2.10598e-08
0.00674222
-0.00151342
1.5219e-07
0.000437947
4.90947e-08
0.00110612
8.46737e-09
0.000918029
0.00108711
-8.32103e-08
-2.6479e-06
-5.87481e-08
-8.1285e-08
-0.00224285
1.10275e-06
0.000671931
-6.00428e-09
0.00342201
6.02636e-08
-0.00150883
1.14677e-08
-6.58525e-08
3.40191e-07
-1.3926e-08
-4.51869e-08
1.98954e-07
0.00459102
-0.0182513
-1.86619e-08
-9.71487e-07
1.51155e-07
-9.62235e-09
-3.38803e-09
-1.08903e-07
-2.81203e-06
-0.00173695
8.47104e-08
-8.76587e-08
7.85844e-08
0.00369875
-7.87794e-08
7.96756e-08
-1.9222e-08
-9.71001e-08
1.31955e-07
-0.000839892
-1.8138e-08
-3.43207e-05
-4.24459e-08
-0.00834846
0.0013569
-0.00120473
-3.8745e-08
1.33823e-06
3.76075e-08
-1.43296e-07
1.65032e-07
-0.000684892
-1.47455e-08
-8.59705e-08
-4.16545e-08
-0.000225089
-8.42037e-08
-4.04857e-08
1.23728e-08
1.28418e-07
-0.00152998
0.000907018
2.69796e-09
2.69508e-08
-0.0016675
-1.83097e-08
0.000443327
0.00135081
0.0017675
-5.8963e-06
2.35461e-06
0.0209031
3.82214e-07
5.06255e-09
-1.76737e-08
-5.22532e-08
-4.16371e-09
-8.64639e-09
-1.15074e-08
-0.00991028
-0.00157044
-6.5687e-09
2.84344e-07
-2.17354e-08
-1.27634e-07
2.03233e-08
-1.53801e-08
-1.18277e-07
9.22514e-09
1.05624e-05
3.99395e-06
-1.93418e-07
0.000684271
-4.96542e-08
-0.0010488
9.51788e-07
0.0100363
-0.000751823
-1.76691e-07
-0.000185577
-3.45078e-06
0.000566977
4.11088e-09
1.44095e-08
-2.48884e-08
1.37784e-07
0.00811483
-2.70989e-08
1.54742e-09
-7.09646e-07
-2.11543e-08
-1.99652e-08
1.57096e-07
-5.52879e-09
0.0133698
-2.69058e-08
2.68899e-08
-6.14349e-08
-4.89525e-08
-6.70275e-07
2.40502e-05
-8.048e-08
-5.88867e-08
-7.99138e-09
2.80702e-08
-1.29123e-08
2.24489e-08
0.000783892
6.03941e-09
-0.00292282
1.31632e-08
-0.00324386
4.19106e-08
7.37081e-07
3.5135e-09
1.60379e-06
-4.72092e-08
3.71828e-09
-8.8507e-08
-0.00314136
6.92637e-08
0.000658007
0.000794717
-1.0765e-07
-1.44315e-08
-1.83827e-08
-2.90544e-08
-0.00161892
5.34519e-08
-0.00345795
-0.00102115
1.19427e-07
0.000768364
-5.60172e-08
6.0174e-08
0.00205675
-0.000724849
7.76848e-09
-3.78196e-08
7.53137e-08
-2.25813e-08
-6.5433e-08
5.79053e-08
7.0705e-06
5.27645e-09
0.000595104
-1.13125e-06
0.000723705
-3.60591e-08
1.59976e-08
-0.0006686
-0.00155625
4.84291e-08
-1.353e-09
2.24528e-08
-0.00152138
-3.78776e-08
-0.00187571
1.58323e-08
-2.86231e-09
-1.33707e-07
-3.24698e-08
8.94019e-08
8.80356e-08
-2.29706e-08
-1.4196e-08
-7.42623e-08
-0.00156897
-3.72457e-09
1.71695e-06
-0.000755578
2.87359e-08
4.62218e-08
1.59948e-07
0.00501016
1.45654e-07
-0.0021747
4.32319e-09
-2.62027e-08
6.32008e-10
0.000789761
1.00625e-05
1.18211e-06
-6.63362e-08
-4.02833e-08
-4.9252e-08
-0.00201616
-3.91995e-08
0.0115764
4.56394e-08
-0.00171578
-6.05996e-09
-2.96134e-08
4.56756e-06
8.34327e-08
-0.00147815
-3.94036e-09
-4.34087e-06
-2.63105e-09
-2.10405e-08
-2.54863e-08
1.03702e-05
0.000525022
-7.93579e-08
8.55401e-08
-1.28369e-08
-3.00278e-08
-3.62519e-08
1.11577e-09
-1.07043e-06
-1.35254e-07
0.00786907
-1.30925e-07
0.000325238
7.07883e-09
-3.45123e-08
0.000860738
-0.000556732
0.00035219
-1.52133e-07
0.00320642
1.00982e-09
-0.00144684
-2.58344e-08
-1.7834e-06
-6.80342e-08
0.0014693
5.28347e-08
8.39949e-08
-1.4199e-08
4.92753e-08
-1.15632e-09
0.00650664
0.0118416
0.00326672
-4.07744e-08
1.31126e-07
2.43076e-08
-2.60137e-08
-4.57648e-08
-2.41111e-08
-1.35795e-07
7.45527e-08
3.27824e-09
-0.00134566
-3.26031e-07
-3.71647e-08
-1.57921e-08
-0.00133464
-2.11306e-07
-8.73338e-08
3.74984e-08
3.69307e-08
0.000562668
1.77328e-07
0.000614876
1.54944e-06
2.2896e-07
-2.02534e-06
5.27786e-09
5.96709e-10
-6.14059e-07
1.18208e-07
3.99683e-09
0.000749466
-1.25178e-07
0.000307188
-1.3903e-07
-1.74583e-05
3.06353e-07
5.56331e-08
-4.65586e-08
-1.03232e-08
0.000180138
3.83589e-08
-0.000976056
4.41832e-09
-1.22393e-08
0.000591049
1.47089e-07
1.48531e-07
-0.00525903
-5.3569e-08
-6.29136e-06
-0.000996054
6.67389e-08
-1.81288e-07
-0.000760721
-1.36194e-07
-7.32177e-09
3.78049e-08
9.37168e-08
1.32228e-07
5.17603e-07
0.00794451
-4.89254e-08
-9.87288e-08
0.00189551
-3.60954e-08
9.24639e-05
2.90546e-08
2.5533e-08
-0.00101197
-5.50192e-05
-2.86183e-08
4.66434e-08
1.30039e-07
-5.61883e-08
-4.48081e-08
-0.00759693
-6.49938e-10
1.58915e-07
-3.95719e-08
2.58916e-06
-3.68063e-08
3.87283e-06
-4.17045e-05
-5.03786e-08
-0.000130628
-1.99624e-08
1.05565e-07
-4.47354e-08
-0.000998438
-5.32925e-08
-2.59983e-08
-3.67919e-08
-9.1074e-08
3.58825e-08
-1.58905e-06
0.00195675
0.000925849
0.000936935
-8.11319e-10
-7.79937e-09
1.40946e-06
1.11429e-08
-4.2401e-08
1.84421e-05
-0.00181201
-1.24695e-07
3.4526e-08
-0.000844658
-5.45892e-09
7.99986e-10
0.00399916
-3.03838e-07
-0.00525804
5.1741e-09
9.14793e-09
0.000984465
6.96417e-09
-3.38734e-08
-4.40219e-09
2.55811e-07
3.80943e-09
-1.54295e-07
-2.21456e-06
4.77802e-07
-1.31916e-08
0.00085804
-8.95377e-09
-2.57202e-08
5.136e-08
3.00967e-09
8.52352e-08
-7.63949e-10
0.0128749
-1.56353e-07
0.00302219
2.66334e-08
1.681e-07
-0.000481476
-2.06567e-08
-6.63914e-07
-9.79138e-08
-1.97032e-08
-4.17707e-08
-2.08057e-08
-3.85266e-08
-9.20115e-08
-6.29515e-09
6.21519e-08
2.79384e-07
-4.5414e-08
-5.12912e-08
-9.85151e-08
-1.46837e-08
-4.82227e-08
0.000552493
0.00576888
0.0153287
-0.00849032
-1.8551e-06
4.03006e-08
-0.00833534
0.0101606
-3.80546e-08
-4.49875e-09
-4.6154e-08
5.15459e-06
0.0153851
2.24771e-08
-4.06573e-08
-3.54148e-08
-4.12337e-08
-7.40531e-09
1.18618e-07
0.000141791
0.001459
0.000176312
-5.41708e-07
-1.03406e-08
-6.411e-09
-1.86535e-09
0.000792388
0.00165237
1.83688e-08
-4.87681e-07
-4.59293e-08
1.02869e-07
-4.67137e-08
-3.61585e-08
1.07245e-07
5.53506e-05
-1.02942e-07
7.25115e-06
-3.33085e-08
-3.04544e-08
5.43774e-07
2.50806e-08
-1.8784e-08
2.95455e-07
-4.97463e-06
-5.47191e-09
4.65675e-07
1.80758e-08
2.19249e-08
-9.42896e-09
5.96572e-08
0.00724591
1.53654e-08
-1.34623e-07
8.36607e-09
-0.000310738
1.06836e-06
-8.6059e-09
-2.48563e-08
1.2313e-07
0.000320764
-8.90377e-06
0.00232977
-1.23634e-05
1.89098e-06
-1.88651e-06
-2.98369e-06
6.41659e-07
0.000892613
-3.60566e-08
3.78529e-08
8.49817e-08
5.01189e-06
-2.47414e-08
0.000636919
-3.57278e-09
-8.78541e-08
0.000583805
-1.02256e-07
-1.84804e-08
1.37595e-06
-1.82189e-08
-1.20066e-08
-1.66409e-05
-2.17445e-06
2.14508e-08
-0.000184924
-1.51362e-07
-0.000248793
0.00792792
-1.39048e-08
0.000570173
6.73591e-09
2.21002e-07
-1.40267e-08
-1.21855e-08
0.000849912
3.85053e-08
-8.21434e-08
-2.05464e-09
0.00107869
-5.79847e-08
-0.000790274
-0.00241504
-1.45672e-09
-4.06566e-08
-1.6588e-08
0.0127882
5.97704e-07
2.5866e-07
-1.4371e-07
-5.30388e-06
3.87543e-09
7.114e-08
6.66652e-09
3.0436e-08
-1.00642e-08
-8.76367e-08
-0.00807696
-5.31025e-07
-1.9166e-06
0.00078221
-2.66345e-08
-0.001694
-3.62057e-08
8.43941e-08
-4.8003e-09
-5.54395e-09
3.77052e-08
-3.09495e-08
-2.77855e-08
0.00051577
-5.26098e-07
0.00203376
-5.23867e-07
-1.16729e-06
-9.08791e-08
-1.36472e-06
0.00221409
-9.06448e-08
1.29105e-07
-3.34228e-08
0.0018924
0.0040511
4.83517e-07
-1.52851e-06
-1.35789e-09
-0.00208872
2.61117e-08
4.07854e-09
2.48888e-07
-3.89002e-08
-3.55003e-08
4.96396e-08
0.0014827
-3.03372e-09
-0.000422146
0.00220808
-0.00150583
0.000542733
-5.04607e-09
0.00174623
4.94297e-07
-1.1581e-06
-0.00107723
-9.40882e-08
-1.87158e-07
-1.01067e-08
-4.64572e-09
0.00131267
-9.28896e-08
-0.00312552
-4.45135e-08
-4.12569e-08
0.0160711
3.94353e-08
0.00232668
7.87762e-09
3.7094e-05
1.18612e-07
-3.53044e-10
-0.00333101
3.34859e-08
8.75737e-08
-1.52215e-08
-5.99522e-09
-2.46785e-06
5.44549e-06
-2.42882e-08
2.00459e-09
0.000107063
1.30572e-06
5.32436e-06
6.39544e-10
1.484e-08
-1.63851e-08
8.53433e-08
1.41024e-07
7.34863e-08
-4.9852e-08
0.00233202
4.85355e-08
-3.87734e-08
-1.64226e-07
-0.00147661
-8.59476e-08
1.86299e-07
-2.26976e-08
-7.85039e-08
-7.05446e-07
4.75893e-07
3.33526e-05
0.0250027
1.40036e-07
3.26105e-08
-7.3282e-07
-8.95535e-09
-8.18986e-08
8.55349e-05
-2.85645e-08
-7.27208e-06
-0.00442793
4.34352e-05
0.00163078
0.000707629
-5.03754e-07
2.26423e-08
0.00875635
-7.87034e-08
4.74541e-07
2.73058e-07
-8.75811e-08
-1.08727e-06
-5.79536e-08
6.05741e-08
-8.67237e-08
0.000206652
-3.04847e-07
-2.10989e-08
1.64484e-09
-0.0013351
6.69544e-07
-0.00200387
8.55744e-08
0.00322242
-3.73654e-08
3.0272e-07
-4.6438e-07
5.07454e-09
0.000722983
1.97146e-08
-1.49783e-08
2.98923e-08
-1.2614e-07
-0.00243344
-1.11362e-07
1.09749e-10
-0.00213587
-6.85135e-09
0.000408227
-4.27006e-08
0.00346895
-5.74669e-08
1.36108e-06
-3.33197e-09
-1.57097e-08
-4.6698e-08
2.53806e-09
8.26438e-06
3.21937e-07
-1.32975e-08
1.65861e-07
-0.00202952
-0.000585952
5.1719e-07
0.00968362
-0.00268999
-1.48112e-08
0.000548243
-1.55966e-08
4.20674e-07
-2.53426e-08
1.66376e-08
-9.01464e-10
-2.64754e-07
-0.0152144
-2.70419e-06
-4.52139e-07
0.0014312
1.17862e-05
4.06903e-06
-0.00011972
6.97449e-09
-1.5286e-07
0.00044305
-1.80379e-08
-5.955e-08
-0.00246231
-7.67723e-06
6.45954e-08
0.00651621
3.13692e-07
0.00667845
0.0344995
1.32952e-07
-2.56552e-06
1.29181e-07
-9.49832e-08
-3.8667e-08
0.000635463
-2.2957e-06
3.89619e-06
-1.51695e-06
-1.43248e-08
-0.0307779
-3.47441e-07
-1.6159e-08
-2.61894e-08
-4.85256e-07
1.34618e-07
3.17066e-09
-1.12369e-09
-0.000553077
-1.56167e-10
-3.23171e-08
0.000718485
-4.21991e-08
9.26775e-10
0.017864
-3.09553e-08
1.97609e-09
1.76494e-07
2.76746e-07
5.94274e-07
4.50483e-08
1.57409e-06
1.74782e-07
5.94161e-07
1.31796e-07
5.8616e-08
-2.58956e-06
-1.93983e-05
-7.44971e-08
-0.00104903
2.90174e-06
-9.25071e-08
1.41124e-06
0.0133283
-1.95229e-07
-2.06488e-08
-3.25915e-08
1.11269e-06
-1.03468e-07
0.00013361
-2.34446e-05
1.48476e-07
-0.00327823
9.14542e-08
-3.15447e-06
0.00837542
-3.65736e-08
-9.78727e-09
-2.07719e-08
-2.61609e-08
0.000882424
-9.01894e-05
1.29994e-07
-2.54406e-06
5.49597e-06
2.16869e-07
2.74091e-08
8.70511e-08
3.38216e-07
-3.946e-08
5.68363e-09
0.010208
2.43155e-08
-6.13166e-06
-4.44288e-09
-2.59101e-08
-1.98425e-09
-1.35161e-07
-8.09767e-08
-4.16528e-09
-1.1218e-07
1.10459e-07
-0.0027366
-0.00146888
-1.60301e-06
0.115894
-1.59213e-08
8.99064e-08
-0.00330545
-9.28805e-07
-0.00174706
1.02714e-07
4.5701e-08
-1.83521e-08
-8.22081e-08
7.91934e-08
-1.95833e-08
-1.94969e-07
4.15285e-07
-0.00207695
-7.75658e-07
-0.0011253
-1.40376e-07
-1.39731e-07
-1.79333e-09
-7.60134e-07
0.000905879
-3.09207e-06
9.26272e-06
-7.29852e-09
0.000806329
2.04863e-08
-2.44998e-08
-4.5118e-08
-9.45122e-09
-2.89724e-05
5.77527e-08
-7.24627e-08
-4.5588e-08
-1.77387e-06
-3.40402e-08
-0.00349403
8.68273e-08
4.07926e-08
2.55188e-08
-4.50873e-08
-1.35624e-06
-2.83362e-06
-0.00347857
-4.2345e-08
-4.58384e-08
-0.00365557
1.85893e-07
8.16887e-08
-1.01902e-07
-4.39137e-08
1.3291e-07
-1.70157e-08
0.00063149
5.64229e-08
-4.09773e-07
-9.14439e-08
-6.98011e-08
0.0020785
-4.61281e-08
1.27878e-07
2.13274e-09
1.00303e-07
-2.72587e-08
-1.26231e-07
1.42304e-07
1.62459e-09
2.99688e-08
-4.61016e-08
2.57962e-08
3.27306e-06
0.00279105
-1.49294e-08
5.15293e-07
0.00205432
-3.07892e-08
-2.31465e-09
-9.02787e-08
-7.14988e-07
-1.26635e-07
-2.38677e-07
-0.0101139
-1.31926e-07
0.00293454
-0.0019271
8.29318e-08
-9.97203e-08
-4.78545e-07
-8.28814e-09
0.0132214
0.00777395
-0.00123041
1.11837e-07
1.78044e-07
5.20777e-09
2.92328e-06
-9.19381e-08
1.9272e-05
-3.45211e-09
-1.75179e-06
0.000376191
1.17287e-06
9.4264e-08
-0.0162504
0.000403009
-0.00217066
-5.78639e-09
-6.78583e-08
0.00185229
1.71537e-06
-6.91269e-09
5.08983e-09
2.8625e-05
-9.82646e-08
-1.99835e-06
-4.84544e-06
-3.11275e-08
-9.92087e-08
-0.0078996
-3.45277e-08
3.54803e-08
-1.62661e-08
2.60571e-08
-7.48552e-11
-9.44543e-07
4.98259e-08
4.44183e-08
-3.5578e-08
-8.74513e-08
-2.57664e-08
-5.36535e-07
-3.95102e-08
-9.68896e-08
0.00919764
0.000748014
-0.00138467
-5.50691e-08
-4.66089e-08
1.21955e-06
2.57574e-08
-1.34168e-07
2.37702e-07
-3.04984e-08
-1.35747e-07
-0.00122194
2.64705e-08
8.07869e-08
5.3491e-08
6.22427e-09
0.000219101
0.00255936
-4.00001e-08
7.43683e-08
-2.52183e-08
1.23771e-06
0.00083374
-4.35084e-08
1.18428e-07
-6.2123e-10
-1.40059e-07
1.99191e-07
0.000185019
0.000194174
-1.46158e-07
0.000176255
-0.00253269
6.67398e-08
-4.33614e-08
1.07055e-07
1.43967e-07
-1.8929e-07
-5.35916e-08
1.56322e-08
1.26426e-06
-1.18519e-07
-1.57658e-06
-4.47266e-07
-8.71096e-08
6.49883e-08
0.00973656
-2.61711e-08
-9.26139e-08
-4.0859e-06
-1.6634e-07
-0.00354173
0.00711692
1.71679e-08
3.21334e-06
0.000121393
-8.21558e-06
-7.11399e-08
-1.35292e-07
-2.13393e-08
0.0287476
-1.66043e-07
1.66467e-08
-9.96022e-08
-6.21912e-07
1.40524e-06
0.00141557
-2.2916e-08
-2.99028e-08
-4.60075e-10
-4.10131e-06
-0.000465477
-1.03181e-08
-7.05706e-10
-1.1265e-07
-6.95072e-08
-9.91787e-09
0.000753742
-4.63388e-07
8.32464e-08
1.25171e-07
-0.00203829
-3.06829e-09
-2.65536e-08
1.48744e-07
1.07542e-06
6.98744e-08
-7.28375e-09
1.21043e-07
-0.0487867
1.20846e-07
-2.68088e-09
5.00944e-09
-2.22319e-08
1.107e-05
-3.80566e-08
5.35945e-09
0.000204472
-0.003345
-6.34459e-08
-2.5051e-09
6.40384e-07
2.80973e-07
7.73578e-08
4.88987e-08
-0.00205141
-3.23405e-08
-1.41793e-07
1.39642e-07
-0.00159019
0.000602677
-6.65178e-06
1.64985e-07
0.00205713
-0.00175739
0.0240837
0.00780107
-2.67618e-08
8.06852e-08
-5.58917e-08
7.88156e-08
5.75815e-08
8.14475e-08
-4.69262e-08
6.37269e-07
-3.81862e-08
-0.00138292
1.03064e-07
0.000871891
-7.01868e-10
-0.00162104
5.86726e-08
5.39055e-08
-4.66272e-08
-1.36308e-07
-9.19865e-08
2.16353e-05
-1.43503e-07
7.59191e-09
3.78004e-08
-5.29525e-05
-1.04551e-09
2.01606e-07
-4.76131e-11
2.68437e-08
-0.0019623
1.13936e-05
-2.73261e-06
-2.74179e-08
-5.36908e-06
5.78494e-09
-0.00116943
0.000366393
-2.68878e-08
-0.00309601
-0.00274307
4.11963e-08
1.52482e-09
-2.91834e-08
1.14189e-07
-4.48716e-08
-3.95147e-08
0.000744469
-1.32237e-07
2.33753e-08
-2.94076e-08
-2.80624e-08
1.48153e-07
0.000236282
-0.00668821
0.000160139
-5.29496e-09
0.000526604
-1.21663e-07
-0.0185199
4.29729e-08
-4.57504e-07
-2.46761e-08
6.47121e-09
-0.00256883
-6.15311e-08
-7.59017e-07
-2.54397e-08
-7.68315e-08
0.00168672
-0.011008
-2.7065e-08
-0.00431815
-2.72922e-08
-0.00322828
-1.07419e-08
-0.00129891
0.000553503
1.89207e-08
0.000559132
5.88666e-08
-0.0017437
3.05375e-08
-6.35777e-08
-1.20162e-07
-4.90462e-07
-2.60835e-08
-6.02626e-05
-1.27996e-08
0.00278649
-1.04518e-06
0.00179248
3.23056e-08
-5.13339e-08
5.9168e-05
5.87299e-08
-1.88327e-07
3.936e-08
-2.7158e-06
-3.0063e-08
6.8119e-08
-0.00181521
-1.3218e-08
1.12953e-08
6.52482e-08
-7.53618e-08
0.0040208
-7.39203e-08
-2.77892e-08
-0.00157294
0.000454488
2.83866e-05
-1.59639e-08
-8.92218e-08
-1.73699e-06
1.58524e-09
1.4824e-07
7.43675e-08
-3.65767e-08
-2.19848e-08
5.54704e-08
7.16025e-08
1.97556e-07
0.00198283
7.48733e-07
4.7605e-07
-1.21116e-09
-3.68172e-09
0.00979355
5.80604e-07
2.5558e-08
8.14859e-08
-0.00436492
-0.00183385
6.05872e-08
0.00407094
3.80166e-07
6.88612e-06
-3.95108e-11
0.00194562
-2.45614e-08
-5.9364e-08
-1.05763e-08
-2.9319e-08
-6.56603e-08
-0.00159003
-3.46306e-08
-0.00257625
-2.49261e-06
0.000528481
-0.00134897
-1.10048e-08
5.12476e-08
0.0146051
8.23826e-08
-7.44018e-06
1.61644e-10
1.87271e-06
-1.43225e-07
-0.000164636
-0.00167642
0.00625663
7.16245e-09
0.001639
0.00099235
0.0050109
2.26238e-05
4.14578e-07
9.65719e-08
-4.28494e-08
-0.00057748
-0.00219601
2.34788e-07
0.00330836
-2.09161e-08
-1.05253e-08
-7.65412e-08
-0.00856769
7.7672e-08
0.000505475
-2.49752e-08
-0.0121421
2.37167e-07
-6.8501e-08
-3.14342e-08
1.70641e-07
-1.67171e-05
-1.22731e-08
1.28088e-07
1.93271e-08
-5.2197e-06
7.97607e-09
-2.71595e-10
-0.00124988
-0.000531831
-1.32305e-07
0.000799303
4.51327e-08
-3.54615e-08
0.00222363
-0.000837801
-5.97047e-09
4.87452e-06
-4.60545e-08
1.56792e-08
6.26537e-08
-0.00187912
-1.46516e-07
0.0181034
-7.82189e-08
8.04304e-08
0.000224999
6.41708e-08
1.55615e-07
-1.74117e-08
1.84575e-06
-3.73013e-08
0.000241291
-7.81159e-08
-2.53467e-07
-8.05946e-10
-8.17914e-08
1.93743e-05
-0.00161229
-1.24698e-07
-0.00911289
2.14635e-07
0.00616886
-0.0111939
0.00328803
1.10596e-08
0.000964804
-0.00199263
-0.00206025
-1.83023e-05
-4.75847e-08
8.53065e-09
4.23789e-08
-0.114478
8.39923e-08
4.40161e-08
-0.00390548
-4.63718e-09
-0.00155572
-1.01947e-07
0.0115315
-1.44225e-09
-4.56053e-09
-1.60402e-06
-3.23335e-08
4.02677e-07
4.87736e-09
3.30831e-08
-4.28432e-07
-0.0016883
-1.17243e-08
4.978e-08
-0.00196823
0.00155295
4.98755e-10
9.83105e-08
5.5837e-08
-1.08984e-07
8.13323e-05
-0.00128366
-4.46411e-05
-1.36626e-06
0.000668294
0.00388122
-4.65271e-06
-3.05707e-08
-1.40459e-08
-1.41757e-07
-1.4237e-08
4.97311e-08
0.000887829
0.00264484
-1.31188e-08
3.41352e-08
3.40131e-08
-0.00480596
-0.00799457
-0.039676
-0.00218572
8.65641e-09
-0.00107805
0.00196143
-7.6019e-08
-0.000106564
4.06847e-08
3.36009e-08
-0.00260597
0.00461604
-0.00130727
2.78779e-09
-9.27354e-08
6.87984e-08
-6.64066e-05
-4.48092e-08
-1.68101e-08
-5.34297e-09
-3.04412e-08
-1.04154e-08
0.00285658
-1.32996e-07
-4.15582e-08
0.000922666
-9.66129e-09
-0.00108488
3.97437e-08
-0.000445688
3.60389e-06
-2.48322e-08
-0.000553755
-1.11677e-05
-7.35824e-06
-1.28863e-07
1.91049e-07
-3.48511e-08
-2.00991e-08
0.00044884
-2.57222e-06
1.50698e-07
8.44229e-08
-1.33196e-08
1.35344e-07
9.22909e-08
-8.7054e-09
-5.11543e-08
1.34427e-08
-0.0018881
-2.2247e-08
0.0179689
0.000321819
-5.0737e-08
-2.48575e-08
-0.00110291
9.07582e-09
-1.04609e-08
-5.27792e-06
-7.65589e-08
4.66003e-09
2.44864e-07
2.43752e-06
0.000881169
-8.84619e-08
-3.66324e-08
-1.49675e-07
-0.00133971
-0.00176022
-8.56603e-08
5.75279e-07
4.17661e-08
1.29852e-08
2.67091e-08
-4.03259e-08
1.04273e-06
2.55353e-07
1.7228e-08
1.87942e-08
-8.31207e-09
2.05942e-08
1.82202e-08
5.18908e-08
-7.1534e-06
0.00241186
-0.0102417
-1.57306e-06
-0.00165151
4.30514e-07
-1.15271e-08
0.000631707
-0.00599214
0.0109286
6.06994e-09
-1.13143e-08
1.11974e-06
0.0105159
-1.20173e-06
2.60842e-07
-0.00941489
-1.15838e-08
8.39869e-08
0.00480536
-1.54228e-08
-8.99737e-07
-1.28987e-06
4.52735e-08
0.000515321
0.00914519
-3.17919e-09
-8.39619e-05
-0.000907913
-4.107e-07
7.94485e-07
-1.77098e-08
0.00711541
1.94266e-05
-0.000934481
-1.80717e-08
-5.83713e-08
-0.00149599
-3.96022e-08
2.55373e-07
-1.68706e-08
-1.92946e-07
-6.77303e-08
0.000882989
0.000252077
4.69145e-08
7.3239e-08
-1.55363e-08
0.000931903
-1.25013e-07
-2.81333e-08
9.23393e-10
0.013272
8.5555e-08
7.26079e-08
6.89928e-07
1.31282e-05
-1.53854e-07
4.97496e-06
3.05504e-07
3.0521e-09
9.70775e-07
-1.24532e-07
3.60162e-08
1.66599e-07
-1.03411e-08
4.79122e-07
-0.00274696
-4.96397e-06
-1.78356e-08
0.0016197
-0.00168596
-1.86978e-06
0.000369754
3.57611e-07
5.98353e-08
-1.48494e-05
1.52863e-07
9.30829e-09
3.15372e-08
-6.679e-07
-6.66523e-09
-3.73103e-08
-9.51768e-09
3.33736e-06
0.000307298
0.00178115
0.00298203
-2.05234e-08
-4.78565e-08
5.58598e-08
2.61728e-06
-5.88412e-05
-1.21245e-08
0.0125334
-1.50587e-07
0.00080314
9.42713e-09
-0.00145995
-6.38356e-09
0.00199878
-0.00038381
-1.24568e-06
-0.00191715
1.04524e-08
-1.04404e-08
-8.03186e-08
0.000151496
0.00271462
1.47524e-07
1.087e-09
-2.5797e-08
1.13342e-09
1.3234e-07
1.4372e-09
-1.38557e-07
-2.07042e-09
-3.44435e-07
-2.29943e-08
-0.00244203
-6.59702e-09
-0.00106315
-5.13297e-08
-2.60718e-06
0.00190459
-9.28712e-08
0.0148975
-3.34916e-08
5.75291e-08
-5.31592e-08
7.58585e-10
5.27798e-08
-1.47242e-05
9.19544e-07
-6.00528e-08
3.05829e-08
2.95343e-08
0.0102633
1.38251e-07
7.35407e-06
-1.05212e-05
2.39991e-10
-1.86186e-07
-3.18958e-08
-1.3234e-07
-1.93189e-07
-7.52243e-10
1.72782e-07
0.00246475
-3.62432e-08
-0.00176148
-1.49855e-07
4.97967e-08
-4.88406e-08
-0.000116189
-1.18409e-08
-0.00172267
2.05188e-06
6.43838e-10
-0.00165631
-1.32985e-06
0.000272606
1.33675e-07
-1.15135e-07
-1.16814e-08
-1.53391e-07
0.0075481
-2.04846e-09
2.48559e-07
2.08783e-08
1.55485e-06
-3.77348e-06
-0.00184466
0.00320021
0.00108978
-7.71716e-09
-0.00183488
-5.73338e-08
-0.00124399
-4.10663e-05
1.49626e-07
2.34356e-05
-1.38702e-07
-2.65287e-08
-3.18079e-08
-2.06395e-08
-7.72687e-08
-1.24564e-07
8.1573e-08
-0.00640254
4.75952e-05
4.69539e-07
0.00667689
-1.4904e-08
-0.00520584
-2.95006e-08
-1.64817e-08
-9.39218e-08
-0.00198046
-3.92142e-08
0.000812518
-2.36425e-07
6.29263e-07
0.000270245
6.37681e-08
1.07648e-08
-0.000881614
-5.61646e-08
-9.63315e-08
7.76035e-06
5.63509e-08
-9.36333e-09
-4.19755e-09
-7.76132e-06
0.00155134
8.92936e-08
-5.98832e-10
0.00156323
0.00198446
-3.04718e-09
-9.94238e-10
0.0218271
-0.00379068
-1.44883e-07
-1.2099e-05
-1.47297e-07
5.44211e-08
4.32917e-07
-4.95792e-08
0.0149942
-2.54473e-08
0.000110188
0.00331159
0.00236045
4.55915e-09
-8.91525e-08
1.641e-08
-1.00097e-08
-0.00188836
1.43346e-08
-0.00139123
0.00793201
2.65324e-07
-1.56461e-08
-5.46299e-08
-3.89472e-05
-4.4914e-06
2.21388e-07
-0.00569529
-2.79733e-07
0.00767903
6.45635e-08
0.00103283
-1.64712e-06
1.77574e-07
1.09023e-05
0.000907416
0.00713188
9.87255e-09
-4.53961e-05
-4.13777e-08
0.0147022
-8.78304e-06