/*--------------------------------*- C++ -*----------------------------------*\
| =========                 |                                                 |
| \\      /  F ield         | OpenFOAM: The Open Source CFD Toolbox           |
|  \\    /   O peration     | Version:  v2012                                 |
|   \\  /    A nd           | Website:  www.openfoam.com                      |
|    \\/     M anipulation  |                                                 |
\*---------------------------------------------------------------------------*/
FoamFile
{
    version     2.0;
    format      ascii;
    class       volScalarField;
    location    "700";
    object      omega_0;
}
// * * * * * * * * * * * * * * * * * * * * * * * * * * * * * * * * * * * * * //

dimensions      [0 0 -1 0 0 0 0];


internalField   nonuniform List<scalar> 
18355
(
0.0337585
5.65624
0.0218825
0.0216609
0.0223331
0.0814285
0.0219584
0.0558733
0.0233119
5.85263
0.0215262
6.05008
0.0892095
0.0219771
0.0220749
0.0235716
6.96643
0.0217313
0.0219949
5.12234
0.0254937
0.0223393
4.9865
0.0223383
0.0244987
0.0221455
0.0220714
0.0230961
3.81724
0.0219426
0.0219692
0.022992
0.0217328
0.0217958
0.0523171
0.0347485
0.0225455
0.161931
0.0229763
0.0215433
0.0219762
0.083808
0.0218824
8.76642
0.021775
0.170211
0.0494891
0.0237856
0.0443378
0.0217514
0.0215591
0.0218209
0.0222772
5.50914
0.0220841
0.0220735
0.120989
0.0220993
3.66851
0.126417
0.021757
0.0630453
0.0217151
0.0428707
5.52103
0.0327383
9.03286
0.032191
0.0220777
0.0222801
0.0594309
0.0222568
0.135288
0.0217953
0.0559732
0.0219548
5.83123
0.0229617
0.0270122
0.0218023
0.0219702
0.793155
0.0252677
0.0453706
0.0221374
0.0877184
6.31573
5.10463
3.50885
5.47218
0.351312
0.0218369
0.0221077
0.0214831
23.1903
4.91565
0.0217748
0.0253222
5.37754
6.24389
8.0599
6.5363
0.0419657
5.4457
0.0225242
0.102987
9.12193
0.134296
0.0311456
0.375029
0.0219167
0.022764
0.0221474
0.0228906
5.36343
0.0220031
4.69168
5.80998
4.51745
0.0420996
5.5156
1.49677
0.0229029
0.059022
0.0217749
0.145876
0.0218176
0.022262
4.69346
0.0214899
0.0215658
6.18833
0.0469831
0.0251066
0.0418304
0.022258
0.0219144
0.0215241
0.0219602
0.0762735
4.86125
2.69245
0.0223191
0.0219173
0.424847
0.0222341
0.0256173
10.8474
0.0233754
11.6302
0.022187
0.0222563
0.0492435
3.71472
0.0811747
0.02227
6.13981
3.66775
0.0222675
0.0672029
0.026876
0.0244309
0.0299316
0.0254433
0.221806
2.11475
10.8989
0.0418867
0.182254
0.0217653
2.38293
4.87268
0.0215299
0.0215348
0.0235602
7.81869
0.0597662
0.0220998
3.0092
24.4999
0.07597
0.180586
0.0272005
0.0219133
0.246417
7.32007
5.35307
0.210757
0.0233683
8.0888
0.118022
0.0218812
0.0252736
5.43099
0.0480926
0.0223108
4.55346
0.026877
0.0379696
0.0215377
0.0227267
0.024041
13.9116
5.23445
21.324
0.028407
3.4425
5.01751
4.8872
0.0375058
0.0219154
0.0221346
5.05771
0.0222525
0.0217673
0.723961
2.34977
5.10573
0.0221549
0.0233141
0.539702
0.0219513
0.044047
0.0218951
9.45822
0.0221484
4.88648
7.59228
0.129277
0.0219142
0.0222741
0.0265214
0.0261016
5.15943
0.0227198
0.0221383
0.0221087
0.193197
1.36308
28.2921
0.0304806
0.180729
0.022018
0.0217778
0.0222048
9.86706
5.75034
3.21327
0.0803944
0.0267576
0.0227349
6.99004
0.0273991
5.09323
0.0220747
4.74002
3.6319
0.0672353
0.0219263
0.0219115
0.0317847
0.0647378
16.896
0.0486303
0.0218285
0.0217679
0.0222635
0.198883
0.0811923
0.10767
0.0227109
11.7614
0.227878
0.0986734
0.022195
4.39432
0.0218065
0.0219934
9.88338
0.02181
0.0219533
0.0991221
0.0219079
4.35722
0.0271696
0.0242658
0.0218284
0.041881
5.35379
0.0230297
0.0216677
0.0219848
0.129892
5.07264
0.0222674
0.0222792
2.96
0.0444183
0.0821931
0.258592
0.0219979
0.0604659
0.0224925
0.0222689
0.230939
0.23267
0.303751
0.13861
0.0214996
0.0858233
0.0224217
0.0219943
3.24058
0.0219054
0.202011
0.0827221
0.0221001
0.0215897
0.187876
24.2501
5.34887
0.0221298
0.0290908
10.1349
0.0216694
1.57322
0.0264844
0.0328859
0.722452
0.0215024
3.1816
0.0219608
0.0447681
0.0221227
0.0807253
5.04737
0.0222708
19.8364
0.0347622
0.0220416
0.0480321
0.0644707
5.77083
5.59332
5.25681
0.0220609
0.0217094
4.86359
0.0615779
0.0221161
0.0225025
0.334051
0.245113
4.23779
4.94695
0.022094
0.0232341
3.36626
0.0219118
0.0226188
0.257789
0.0380021
0.0237881
21.934
0.0222758
0.046577
0.645672
30.5383
0.021663
0.0219882
0.0219696
0.0217824
0.0658986
0.0217817
0.0397037
0.0219734
0.0242199
0.0220973
0.023183
0.0217893
0.0219876
0.0217803
0.0217758
0.0232382
0.1277
2.11698
0.0218946
5.89991
0.0345787
2.09449
0.0317195
0.0700709
0.0222497
5.9699
0.0224634
0.022008
0.0221315
0.0216343
5.47151
0.0239703
0.0216687
0.042378
0.0391841
0.0219102
0.0216648
5.57141
0.0222693
0.0218109
4.9385
0.0219118
3.45751
8.3904
0.250876
0.0252553
0.0225095
4.88657
0.0222455
0.0219367
4.44505
0.0222694
0.021532
8.51755
0.0217881
4.85416
0.0433207
0.0656759
7.08187
0.0224061
0.0219384
5.69443
0.0804546
2.33395
5.40396
0.0219794
0.0219228
0.0222212
3.90924
0.0441105
0.0220225
0.0222749
0.0222345
0.0490859
3.70643
0.0273187
0.0221844
0.0222756
0.0312035
0.40663
5.09421
4.73989
6.4606
0.0525229
0.0470189
6.81115
0.0219813
0.021836
0.0219845
0.0218912
0.0635246
0.0220165
0.0216177
6.85134
0.0502155
0.0455866
5.58186
0.054906
9.39216
0.0218657
0.0217815
0.0219321
0.0219752
0.0222835
0.0222814
0.0220026
2.70916
0.0221279
0.0215379
1.15302
0.127974
0.0218449
0.0227154
0.0564999
11.466
0.0233171
0.021771
5.79666
0.0237376
7.38778
0.0267085
0.0217918
6.64992
0.127425
0.0217259
5.42647
3.50485
6.65205
0.0217919
0.0217585
0.0256377
0.127071
0.0223473
11.3935
3.53976
5.8496
1.03565
0.0216262
0.0426441
5.32627
4.91067
5.59276
0.0221079
0.0266478
0.0268537
5.24224
6.08763
0.403559
0.0221536
0.02196
0.0221237
0.0446675
0.022007
5.56102
0.0270858
5.46098
0.021973
0.0221877
0.0219106
0.0314077
0.0317415
0.358347
0.0219277
0.09975
4.77469
0.0293043
0.0219254
0.0238733
0.0299217
0.0222721
0.0319266
0.038504
0.0290736
0.137064
0.0225935
0.0217223
0.0219894
0.0222787
0.0403077
0.023755
0.063479
0.0218587
0.0223383
2.43024
0.0215135
0.0323067
0.0224607
0.146378
0.0240261
5.41571
0.0224196
32.7933
0.0258461
0.0238616
3.61772
2.34584
10.6878
0.029303
0.0237733
0.0218017
0.0219612
0.114346
0.046629
0.0329509
0.0788463
2.71992
0.223122
0.0219261
5.82848
6.67103
0.022825
0.0219572
0.0322599
5.35549
0.0319019
0.0222165
0.0599238
0.127714
0.0538156
0.0301401
3.6328
0.0250967
0.0935892
8.59342
0.967516
3.57045
0.0561185
0.164506
0.0267359
0.022078
0.0228572
0.0219387
0.308854
0.359833
6.29327
0.124065
4.83373
4.95758
0.0552085
0.0238413
7.38003
11.5026
0.021539
0.130877
8.10356
7.66957
0.0274639
0.0216118
0.0250278
0.0254169
0.0295648
0.0807751
0.0219013
33.3938
0.0233091
0.024745
5.11755
0.0218563
0.0323602
5.57581
0.0219449
0.0228154
4.74058
0.0217565
0.100048
0.0215119
3.89356
0.0295222
0.0411017
0.0332066
0.0251362
0.123507
0.0248462
12.1306
0.0793452
0.0219165
10.3469
0.0417263
3.6861
7.34925
0.644011
0.313997
0.0219165
0.021639
3.89467
0.0239846
0.0324896
0.0222396
0.0268403
6.46689
6.11434
0.0408721
22.4617
0.0611492
0.0234166
0.0216135
0.0222296
0.0437
0.0790608
0.0216914
10.2208
0.0290531
0.0443567
0.0219988
5.12874
5.18818
0.0219448
0.0215446
0.0815311
0.0222467
0.0217225
3.0457
0.130329
0.0223286
0.0219576
0.155976
0.0443333
0.0273486
0.0590475
0.0219817
5.13746
0.0513676
0.0221282
0.337782
4.86383
0.0219586
6.18361
0.0216581
0.0219471
0.0223254
0.0346454
5.48474
0.0341974
7.46346
0.032431
5.17422
1.31875
0.0266591
5.02443
0.0219972
10.596
0.0228039
8.32316
5.67001
0.0221152
4.50085
0.0249978
0.0261465
11.3034
0.07778
4.7041
0.0218119
5.47259
0.0219655
9.24985
0.022066
0.0273163
0.0293858
0.0218
0.021614
0.0534197
5.57048
7.13524
0.0219291
2.41914
0.0264047
0.021807
0.0221166
0.0278758
0.128934
11.3592
0.033049
0.0220367
0.0269603
5.24783
0.0272295
0.0219088
0.0217968
0.0275173
0.029547
21.8657
0.0218521
0.796641
0.048654
6.43159
6.5793
9.19958
0.021588
0.0604869
0.0218804
0.02228
0.0274205
4.83808
0.0218338
0.0218017
0.0217832
10.932
0.0232412
0.0219398
0.032817
0.0310221
5.48602
7.4883
0.0219349
0.0219778
5.36111
0.0221257
4.90551
5.26138
5.22159
0.179274
0.222171
4.58105
0.029836
0.0221642
0.0217856
0.0219812
0.0222467
0.022108
0.0222734
9.18817
15.3442
0.0222066
0.0900299
0.0217676
0.0234856
0.0386005
0.0220844
0.0249373
0.0229118
0.480139
3.05231
0.0597455
4.62011
0.0500146
7.89131
0.0846183
5.01897
4.90195
0.0520857
4.32775
0.236725
6.78888
0.0217962
0.0219758
0.0219774
0.025584
4.49934
0.0217634
0.0222765
0.076161
0.0218354
0.0437043
0.0409471
0.0222174
4.14914
0.021894
0.021977
0.162922
0.0216899
0.153977
0.421865
0.0220626
0.0226753
0.0218091
0.0622434
0.0218281
0.0234847
0.919269
0.021982
4.88944
0.0221136
4.95494
0.0242333
0.117951
0.0219637
0.0776995
0.0375771
0.0221713
0.0220706
4.9536
0.0219529
8.34253
7.35293
0.0226949
0.0221124
0.0220771
0.0215768
2.72479
0.0219581
5.06546
17.7692
0.0441091
8.13328
0.0218258
0.0218869
5.38589
4.763
0.0244936
0.0220032
0.0219289
0.0217753
0.0229676
0.0439928
1.11539
0.0248464
7.66768
2.61447
1.6503
0.0331172
0.0218715
10.2764
2.45892
0.0329479
0.0219663
0.0220948
5.05836
0.0220118
3.92466
0.0637148
0.022253
0.0280641
0.0216234
0.0326968
0.026469
0.0218384
0.021522
0.0228572
8.10311
0.0222226
0.0610789
6.84469
0.0220668
0.0219111
0.0454787
4.13203
0.0307075
4.74038
0.0224499
0.0215692
0.0234345
9.51333
0.427116
1.82894
0.021875
0.0308432
0.0219618
4.79027
0.021662
4.17824
0.0472324
2.42267
0.0221916
0.0219219
0.220236
0.0219204
10.0873
0.021949
3.29444
0.0222563
0.0217744
0.0240538
0.612333
4.90197
0.0263798
0.0223916
0.0224262
0.0219159
0.0216853
0.022281
0.102071
0.0223129
5.33248
0.0237095
4.74517
0.0218429
0.021594
0.714288
4.78803
6.2495
0.0224595
5.76497
0.0218651
18.6131
0.0224753
0.163421
0.021798
7.75809
0.0218762
0.0264387
0.0220471
0.0218882
0.022262
5.59282
4.81519
5.22326
0.0334872
0.0255367
0.0245565
0.0219899
0.0216682
0.0217568
0.0232837
0.146474
0.0220268
26.2579
0.0987013
0.0220007
0.022514
16.0973
0.114865
0.0233432
0.02443
0.0329621
5.08033
0.0553591
11.1376
0.0606399
0.0782601
0.158166
0.0219824
0.0218529
0.0763992
0.041443
0.0218171
5.89068
0.0286436
5.09188
0.0223273
0.340053
0.0336698
0.0612514
0.0273087
0.0220573
0.810227
0.0219207
20.9117
0.0220057
0.022051
4.79889
0.0312783
0.0261055
11.1621
0.0218474
0.100413
9.99101
0.0219543
0.0706373
8.0967
0.0228513
0.0218551
0.0219341
0.0238526
0.0238901
0.0808781
3.87231
0.0230014
0.0264612
6.78196
0.0216099
7.47232
0.0241508
0.0233691
0.540114
6.86668
0.0217454
0.021908
0.0237137
0.0216982
0.0216761
7.07582
0.022271
0.026224
0.0215993
0.056388
0.0217255
0.126129
0.918193
0.0226972
5.07403
0.0219377
0.0235916
0.0218763
5.41973
0.0282493
0.021868
0.0219982
0.0221184
0.0218705
0.0995899
6.09281
7.97353
9.77472
0.0221841
0.022397
0.0822897
0.022126
0.0216679
1.72011
5.53658
0.0236952
0.0219095
8.45237
0.0222263
0.0221863
5.09766
0.0828239
2.29851
0.0231988
0.0218683
4.65312
0.0221619
0.0325053
0.0222225
0.0288683
0.0219767
0.0700704
0.156015
0.0418837
0.0220997
11.1882
0.0226919
0.0218725
0.0221369
0.0220097
0.021924
0.0220757
5.69935
0.0223661
5.97655
0.0222373
0.0276419
4.92057
0.0218063
0.293896
0.023162
0.0217966
0.0235786
0.0782402
0.0220355
0.0218122
0.0221269
0.0219713
0.0564997
0.0216881
0.0223981
0.0290611
0.0220916
0.0321354
10.8257
5.10479
4.61004
7.07893
0.0983017
0.0610072
8.46441
4.9049
0.0218716
0.0222418
0.0216358
0.122583
4.59709
0.0382946
0.0253892
0.0215965
0.0218818
0.0221594
0.0232289
26.629
17.7174
9.77704
0.065625
0.0221025
0.0222361
0.0221564
5.93493
1.78648
0.0218061
2.46083
0.0216696
0.0318582
0.0228951
0.0405359
0.0312212
0.419809
0.0231611
0.122147
0.0216484
0.0219039
0.0813417
0.0219318
0.0220642
0.0569442
0.216533
0.0221286
0.0748637
0.0219329
0.021978
0.0217998
0.0219613
5.91416
0.0299551
0.023049
0.0221257
5.183
0.139054
0.0220742
0.0320897
0.0301547
5.16072
0.831336
5.77746
0.171034
0.0652511
0.114667
0.137349
0.0787477
4.78423
0.0215872
0.021918
0.0219133
0.139036
0.0221584
9.0544
0.021775
0.0221178
4.86131
0.0539337
0.0223767
0.0769615
0.0219542
0.0230117
0.749797
0.30696
0.0219542
0.617311
0.123231
20.0874
5.65294
0.022001
5.84398
0.021928
0.0644782
0.0218698
0.0218431
5.58144
0.0447003
0.0235788
0.0218944
4.63779
0.0249934
6.13117
6.42622
0.0222633
0.021649
0.0245957
5.71702
0.226562
0.040601
0.0330854
0.228346
0.0219777
0.022421
0.0218046
0.0218965
0.0231761
0.0547118
9.11881
0.0655102
0.111161
4.9191
0.0220014
2.33351
0.123471
0.0498722
0.022193
0.0219885
0.0219214
0.0219185
0.021944
22.1365
0.154594
5.41247
0.0655735
0.0908488
0.0221745
0.094296
6.84438
0.0236152
0.0248235
0.0218595
12.9376
5.14128
0.0911676
0.114141
0.0219774
5.85238
0.022724
0.0245492
0.0392056
0.0798009
0.0216516
0.076325
4.92391
0.0222777
24.6974
20.8989
4.90466
22.292
0.0354851
1.15375
0.0566489
0.0538181
5.92846
0.0218127
0.0331907
0.0216892
0.0222514
7.3406
0.0228274
4.95586
0.0216994
0.0218959
4.84182
0.0219134
16.0849
0.022797
0.441769
0.0231474
0.0221853
5.08279
0.0243496
0.0700623
0.0218757
0.0217696
0.229453
0.208577
0.0220577
0.0282143
0.767282
0.0645058
2.43161
0.0222623
0.0219566
0.0215287
0.021927
0.025714
0.056519
0.0216356
6.19346
0.0218729
0.0220409
0.0584798
7.36632
0.17324
0.0279466
0.0217683
0.0224629
0.0763
2.04571
1.26138
11.3981
0.0258162
0.0362274
0.237607
0.021874
0.0535615
5.16086
0.0219408
0.190078
8.32342
0.500618
0.638122
5.1221
0.0793273
0.0220841
5.15351
0.0265509
0.0422406
0.156448
0.0218524
0.102747
0.0218665
0.0219768
0.0506181
7.5671
0.0343132
0.0219439
0.0407968
8.75524
0.0820533
3.14456
0.0219236
6.04243
0.0216586
0.0761931
0.104095
0.0218922
5.15019
0.0218128
0.0218412
0.0220563
0.0219277
4.80476
0.0827275
0.0222532
4.72934
0.0220802
6.00878
0.0216669
3.90202
0.0475845
0.245288
0.0246655
0.021888
0.0216804
0.0220732
0.255978
0.118599
0.0221294
0.0418251
3.76578
5.0932
0.0421601
4.96161
6.47514
0.0218911
7.6544
0.0217884
0.225116
0.0220043
0.0220748
0.0220166
0.0663086
6.6581
0.230085
0.0936162
5.09516
0.442243
0.260932
5.40036
0.0218744
0.0752477
7.94342
0.0215406
0.049952
6.30082
0.190752
0.0218869
5.22455
0.0665761
4.32065
3.33275
0.0267332
0.223302
0.0246721
0.0218519
0.021591
4.78692
0.15541
0.265994
0.145183
0.0219087
5.38431
0.0345446
0.0215085
0.0224391
0.0629205
0.0239185
0.0222162
0.0222693
0.939309
0.0218986
0.0423318
9.66762
0.0216821
0.0218942
2.04023
0.0218517
0.0434327
0.0264174
0.128416
2.24897
0.0219075
0.0648532
0.027695
0.0775851
0.0271289
0.0247624
0.097756
0.857707
0.0494112
6.07307
0.0834866
0.0221216
0.227485
4.95393
0.0771158
0.0217822
0.02205
0.125147
0.0229084
6.20018
0.64188
0.0280017
3.04621
0.0234313
0.170765
3.84772
0.0219401
0.0221278
0.0220687
0.0219916
5.11007
0.358562
0.024852
0.170886
0.280768
0.0466608
0.0220761
0.0237055
0.0580176
0.0219368
0.0218709
4.89164
0.0226401
4.46934
0.0218197
0.0219984
0.0222727
0.0706652
0.0383019
0.0394084
0.0220785
0.0229793
4.9108
2.18914
2.81125
2.25988
0.0256686
0.0224587
5.05853
0.0852646
4.19933
0.0537117
0.0218751
0.0534061
0.0266255
0.022332
0.0217937
0.0937037
0.0798522
5.59397
0.0795685
0.518569
0.0221685
0.0229417
0.0219179
0.120659
9.28722
0.217044
3.42568
0.0218492
4.63199
0.0227202
0.0219713
0.0241062
0.022134
0.733092
0.0219651
0.0854217
0.0216769
2.93491
0.0327632
14.0978
0.0224084
0.0220124
0.0243003
0.0217109
0.0910143
3.77785
5.07057
0.0534398
0.0216355
5.20462
0.0583135
0.021925
0.0667363
0.0217457
0.0238271
0.0215263
0.777086
0.0247456
0.0683797
0.0518762
0.021762
14.4257
0.0216372
0.0249927
0.0223737
0.0237489
0.0217469
0.0219202
0.030214
0.0222818
0.0251546
0.0216914
0.0238232
2.0343
2.7965
0.0224769
0.0429238
5.84529
0.0219166
0.0221569
0.031008
0.119971
0.021929
0.0575108
5.8537
0.0230285
5.67557
8.59709
0.0219435
0.0225679
0.059688
0.0214683
5.07548
4.46534
5.75128
0.0229782
0.0278772
0.0214964
2.09668
0.0285764
0.475998
0.0222428
0.139336
8.37903
0.0829877
0.0234178
3.91265
7.30272
5.2802
0.0224052
0.021756
7.79369
2.68475
0.0218074
0.0221022
0.428773
0.022528
0.225853
1.9641
0.0217372
0.0225618
5.6405
0.0713489
0.0225649
0.0214991
0.0418833
0.0222961
0.245975
0.0218746
0.0221189
0.0219341
0.0229463
0.0220646
0.0989784
0.0217517
0.0257979
5.36694
4.7795
9.35905
0.0218126
0.0795155
0.0820472
0.0220749
0.0247115
0.0399079
0.0219078
0.0238207
6.26341
0.0556682
0.0219416
0.0219977
0.0217821
5.33234
5.54162
0.0217324
0.0222801
0.0219861
0.0596762
5.46054
0.0236627
0.0755928
0.022142
0.0624089
0.0268767
0.357287
10.9998
0.0222767
0.781321
4.80873
0.0405843
0.0218279
0.041061
0.0284898
0.0439748
0.0265374
0.0218159
0.115246
0.027172
1.54234
0.0421711
0.0221762
0.022296
4.85938
0.022101
0.0234278
0.212232
0.0427302
5.3839
4.7466
0.0217926
0.254898
0.578157
0.323536
0.0449688
0.0237762
0.0220628
5.21861
0.0454383
0.0218392
0.0713927
0.0689086
2.20254
5.82695
0.0220622
0.0280497
0.0222161
0.225474
0.910498
0.0221876
0.0588813
0.0258514
0.0232852
0.022189
8.79605
0.0686461
0.0219427
0.0236998
6.38447
0.0222614
0.0220099
0.0261367
0.0716741
0.0219572
0.0221612
0.023546
5.39539
0.0298781
0.0218319
0.0218291
0.0218981
0.127116
0.0220004
0.0219495
0.632665
5.19867
0.0218534
0.0222648
0.0581438
0.0291714
0.0903803
0.0221407
2.84931
0.0219054
0.0228175
0.0289627
5.2568
10.509
0.444674
0.0414543
5.60179
2.81942
7.73771
5.89506
0.0244671
0.0219372
0.0216928
0.0414809
0.021883
0.0219472
0.0219195
0.186346
0.0218655
8.52881
0.0315685
5.57145
0.0218909
4.97566
0.0219688
0.0276452
0.0216928
0.0229842
0.0407575
0.63485
0.0221858
0.0218469
0.0249361
5.28718
0.0219102
0.0396008
0.0221936
0.0383222
4.79075
0.24338
3.81285
0.0307786
0.211951
0.0221455
5.28018
9.84454
0.0218834
4.98962
2.88257
0.0218884
0.0215268
0.0453694
0.030563
0.0431579
0.0216954
5.87449
0.0329678
0.0596965
0.0216185
0.021956
0.0260098
5.68369
4.93443
5.56685
0.0418518
5.43091
0.039174
9.0104
0.0219473
2.65961
0.0219737
0.0269315
0.961326
0.0231634
0.187093
0.0218606
0.0245631
6.69272
5.9275
0.0219655
1.57592
0.0220017
5.08939
0.0217985
5.48938
4.90291
0.0218229
6.14895
0.0272974
6.10712
0.0219769
0.0263891
0.0228353
0.085164
0.0220217
0.436483
0.0218042
6.37166
0.085058
5.70219
0.0221301
0.0216926
0.426364
0.0230641
0.031709
0.0218743
0.0827681
0.0245519
0.021956
2.58694
0.0220052
0.0219427
0.0222855
0.0220667
5.10781
0.0386811
0.0219537
6.32758
4.06059
0.505767
0.0216926
0.0871612
3.43548
0.0218443
0.0258807
0.0223648
0.0220443
0.0219521
0.0219875
0.0271596
0.0281612
5.3256
0.338179
0.240662
0.0222777
0.0219589
4.71783
0.0347758
0.0219288
0.0223303
9.6883
4.78562
0.0219654
5.7691
0.0390961
0.540939
0.0222786
5.60094
0.0217526
0.0227786
0.0221002
0.0218868
0.0234259
7.04884
0.0217338
4.87365
0.154349
3.80532
5.90424
0.0221018
0.0219985
4.75763
0.0669203
0.0944105
0.0219849
0.121696
0.0222086
4.93242
6.16508
5.07985
0.0220668
5.44909
12.8177
5.59307
0.494144
0.0256916
0.12744
0.0218496
0.470866
5.18009
0.0286572
5.11547
0.0218198
0.0220422
0.0695758
6.2849
0.0401196
0.369114
0.0219881
8.96813
0.0402257
0.0517065
0.0218219
0.0406217
0.246975
0.0220387
0.0390545
0.0404468
0.245384
0.0215868
0.0219041
5.04672
5.25854
0.0238205
4.97263
0.0392635
0.0219981
9.10552
9.93069
0.0220967
0.500704
0.0217046
0.0220679
0.0474753
5.20057
0.0222852
4.81244
0.02352
0.0219226
5.32689
0.022168
0.0724126
0.021857
2.50928
0.0220268
5.30795
0.0217721
0.0552066
0.0218563
0.0275875
0.233646
4.83615
0.0492795
8.27248
0.0284178
5.67502
8.48687
5.14098
0.0218715
10.1013
11.5115
3.85598
0.390631
0.0223871
0.021849
0.0219505
9.57705
0.0219398
0.0220459
0.862997
0.0222412
8.92525
0.0230471
5.78222
0.0219229
0.0222302
0.114658
0.021557
0.0568761
0.0218481
0.0743181
0.0903892
2.45072
0.021813
0.0218885
4.90054
14.1887
0.0222449
0.030224
0.034786
0.0226073
7.12842
5.363
5.12229
0.135187
4.7725
3.33993
0.227077
0.0218995
0.0217899
0.0228426
0.0219427
0.0328657
6.38839
7.91526
0.022089
0.0238135
0.0226473
3.45417
7.32138
8.19451
2.34165
0.0220388
2.32837
5.35191
0.0264632
5.11032
0.0491628
0.0221108
5.22234
5.40853
9.13531
0.0222073
0.0230072
0.0428106
0.387794
0.0218103
0.0220064
0.0222428
0.0218303
0.0220415
7.02746
0.0238653
0.0216904
8.23147
0.0221048
5.93325
0.0413526
5.60219
0.472455
0.0219798
5.34145
0.138835
0.969555
0.0227066
0.0281372
0.0220152
0.0229956
6.40583
0.152509
0.0774422
0.0224409
0.0219334
0.137219
0.023283
0.0220622
0.0273253
0.0219398
5.04095
0.0219993
4.97879
8.13058
0.0233226
0.0219819
8.6575
0.0218693
0.0216835
1.26099
0.0245788
0.0237102
0.0811946
1.84471
5.42298
0.0337308
0.023455
0.0222676
5.01601
2.45643
0.0234608
0.0353619
0.0218706
0.0218099
0.0239519
0.0217185
0.291428
0.0289896
0.0219869
0.0222413
0.022093
0.0218815
0.0218444
0.021911
2.54818
5.9683
8.32126
0.353573
2.92056
0.437852
0.0248124
4.99477
8.16872
3.44725
0.0220946
0.0216787
3.69005
3.32427
0.423551
0.21303
7.41828
0.0220957
0.0219302
5.24423
0.0218453
0.151681
0.128509
0.022496
9.94082
4.68693
0.0222611
11.3702
8.04687
0.162731
0.685195
0.022166
1.73504
0.532493
5.62375
0.0218533
0.0665637
2.19692
0.0219151
0.0408149
0.0217341
0.0499124
0.0220581
5.84881
0.65529
0.0220059
0.0231798
0.0223608
4.6802
0.042583
0.0221103
0.0221954
4.30594
0.0219161
0.0231855
0.114408
0.466096
0.0224921
0.0822102
0.0491406
0.0219524
0.157818
0.0219232
0.0219674
0.0265578
0.0219738
0.0299289
4.87439
0.234762
0.0220048
14.4661
2.91911
0.292255
7.09193
0.0413524
0.0234344
5.25102
0.0261383
0.0241471
0.046103
0.0768542
0.0218803
0.0217277
0.02211
0.490807
5.59514
5.83497
5.52432
0.0218238
0.0259416
0.075631
0.165134
4.9956
0.0221383
5.10468
0.0223436
7.23836
0.0215761
6.07863
0.0227001
16.5813
7.47415
0.0878617
4.98287
0.0591251
0.0218374
0.084453
5.48182
16.1992
0.0261824
0.0223636
0.0219559
0.0220781
0.0292276
0.0222869
0.0235679
0.0218185
0.0601292
0.0220125
5.11158
0.0222243
5.37587
0.0216806
0.162008
10.6126
0.0229483
4.79403
0.0220177
0.0273174
0.0221611
0.0222001
0.0219074
0.397003
0.213155
0.0217946
0.0242787
0.0219761
5.40994
0.0308522
0.493773
0.210201
0.0219761
0.0505702
0.0226115
0.0228668
0.046411
0.0221072
0.0551148
10.3796
0.0220302
4.99781
0.0274117
0.0218785
0.0217228
9.88258
0.0219978
4.88024
0.187268
0.0222692
2.84047
0.107607
6.11348
0.0256647
0.0251724
0.0221012
0.0612786
4.05913
0.0221357
0.0456017
0.0220542
0.109476
3.03417
2.6319
7.09745
22.5136
0.0294477
2.48024
0.0221528
5.23356
0.500393
0.0264219
0.449456
0.0702579
0.0215796
0.0485943
0.0220083
0.0217617
0.0242799
0.0219462
1.39494
2.02946
0.165651
4.09391
0.0220759
2.03564
0.0220592
0.0219767
0.0433019
4.81877
0.0217389
5.02772
0.0971665
0.118249
6.93817
0.022221
0.0456217
7.87418
0.0445826
0.0219519
0.417728
0.0219685
0.0221302
0.0222417
2.05544
11.757
0.0256235
0.0221018
5.51563
12.0656
0.0222877
0.022236
2.3974
5.35653
0.0222129
0.320295
0.117091
0.0218801
0.0297779
0.0217007
4.5732
0.0219846
10.2974
7.08644
5.85735
0.0248967
0.0323767
0.0218036
0.0218002
2.96855
0.0218429
10.481
5.64082
0.0778013
0.0218498
0.0216927
0.704116
0.315198
0.0529817
8.06947
0.0881973
5.43499
0.0229448
4.70522
2.61093
0.026597
0.39432
5.78602
4.97897
0.0220177
7.20136
0.0217375
3.95175
0.270821
1.17368
0.0216334
0.0415635
0.022105
1.1037
4.8786
0.0225989
0.0228513
10.5774
5.2183
0.0219475
5.40519
4.06706
5.02748
0.0222163
5.40143
0.0221518
5.58966
0.0221115
0.0226304
0.0222061
0.0219766
10.1221
0.30803
0.0217203
5.0851
5.39409
0.0215406
0.0216921
0.0416284
0.0668237
0.107821
0.0487223
27.1438
5.04566
4.62453
6.36254
0.106563
0.0230295
0.16176
0.109874
5.18604
3.37538
6.11892
0.107765
0.0561292
0.0245892
5.44817
0.0883375
0.58201
0.0221851
0.0256075
11.1797
0.0220942
0.0292158
0.550508
0.0241561
0.0428454
0.0219746
0.0231376
5.72
0.341776
0.0216438
0.0256082
10.5917
0.268457
0.0302869
1.81231
3.49765
0.0438253
0.200319
4.62128
0.0225792
5.6476
0.111267
3.03425
0.022146
0.0214745
2.11642
4.79719
4.8475
7.92658
4.51175
0.0407602
0.0826241
0.0238919
4.65493
0.0218837
0.0220278
0.0466286
0.0732518
0.101306
5.62475
0.0227932
4.91715
6.04609
0.0222902
0.094633
0.0232717
0.225474
0.125962
0.0414681
6.57806
4.79023
5.20826
2.00766
0.0323457
0.0219656
0.0225728
0.0274787
0.746086
6.56704
5.04903
9.55567
0.0526237
0.0217971
0.273479
0.0404023
4.74137
0.022096
10.5882
0.0572993
5.92584
0.0220932
2.61128
0.0931107
0.0749658
2.59254
0.0217259
4.03647
6.18071
0.0218164
0.0832339
5.25242
0.0223796
0.43071
0.0231171
0.0230088
0.0222588
5.60107
0.0462252
1.67801
0.028793
9.08501
0.0217484
0.021522
0.0218823
0.0220647
0.0219585
8.25307
0.413299
5.96011
0.0222113
0.0217699
8.02452
0.028588
4.53496
0.102405
0.0219072
1.08047
0.0305754
0.0390211
6.15259
0.0264093
39.3814
0.707057
0.0276396
0.0216229
0.25113
0.021539
0.650607
8.4999
0.21205
0.0217853
6.66779
0.372318
0.0219882
3.43449
0.022131
5.63773
5.41865
0.0281411
0.0250804
0.0740909
0.0389726
0.0222255
0.0216437
0.0219762
21.033
0.0252888
2.42823
0.668374
10.3766
0.753638
0.115941
0.0219588
0.21749
9.03278
0.024984
0.0218542
0.0238567
0.0222268
9.11803
0.0824836
5.36553
0.022002
2.53023
2.75371
4.82452
8.28058
0.0219906
3.06899
2.16448
0.0219494
0.022281
1.88939
5.3409
0.0263784
0.285875
3.52303
8.02413
0.0293127
0.0228827
0.471534
0.0423768
0.0231387
0.0274557
0.0221211
0.0780341
5.68378
0.0587822
0.0227941
11.5761
0.154911
0.0216496
0.197631
0.231953
0.073938
0.0563422
0.0216619
0.0217906
2.25412
3.21594
0.0402867
0.0218352
4.40668
0.435252
1.49896
2.07583
0.0234621
0.0216554
0.022097
0.0222041
0.0295349
4.8231
0.100237
0.0223411
0.121606
0.0220685
5.3272
0.0230582
5.11744
0.0228293
1.10584
0.05545
5.24527
0.0219257
0.0219524
0.0218014
4.65329
0.0259976
4.90636
2.35607
0.058672
0.0221425
0.0275243
0.0308407
0.0222057
6.37715
0.0216028
4.9318
4.83301
2.31963
0.0283226
0.0219761
0.0222775
0.022021
0.0222027
0.0974222
7.87385
5.50262
23.1117
0.819745
2.50178
0.0234933
0.320659
0.0748809
0.0539857
0.0219777
0.0216577
0.224641
0.0230169
0.0216496
5.56584
1.86543
0.446332
5.20433
4.14223
0.0220993
0.0221267
0.0227086
0.0435727
4.36178
0.0220579
0.0464495
0.515554
1.20972
0.0450746
0.0221225
0.3632
0.0271763
5.20512
0.0220647
0.0217263
0.0219959
0.0219784
0.0226649
5.61619
0.837607
0.0947863
0.14279
0.0915831
0.0218462
0.0527693
0.0226805
0.0221027
0.0269923
7.05571
5.64771
0.0218048
0.288462
0.0218595
0.0563957
0.0232121
0.0283664
0.0221032
0.0881138
0.0560088
5.77737
10.4556
8.38701
9.11684
24.0939
4.80349
1.10476
0.0217165
5.0476
0.0217156
7.78723
0.0257975
4.39037
0.0220923
0.0848038
0.0220379
0.021763
0.0242667
0.0219504
1.67178
0.021665
0.0219174
0.0216378
0.0217025
0.0217983
0.0297329
0.0221271
4.86757
0.0491064
0.0219653
2.80015
0.0220379
0.0218561
0.0645416
5.47044
0.0392438
0.0287584
0.0217607
0.0216058
4.69831
0.0221979
0.0255842
0.1561
5.87772
8.8122
4.81205
5.08095
4.90714
18.7724
5.92776
8.31227
0.0743508
1.92888
0.0222273
0.021991
0.0704398
0.0258627
2.55431
0.0221394
0.0458562
0.0512748
0.393692
0.0829645
0.0386885
0.0233945
0.0219852
0.0498227
0.0220384
0.0217179
0.451507
0.0222309
4.71088
5.42214
0.100746
0.0217896
5.46662
0.0231515
5.15848
0.478275
0.0218377
7.70838
5.2194
0.0666362
0.0696934
0.0308307
2.42989
5.14203
0.0236528
19.6717
0.0527527
0.0402888
4.914
0.0220987
5.00282
0.0220378
0.0220692
0.0218288
2.0268
0.23354
0.338332
4.98648
0.02504
0.0460814
3.24042
0.0217843
5.37602
0.0216865
1.93405
4.45224
10.2344
0.116798
11.9461
0.0219402
0.0221721
0.0238589
6.07848
0.0482304
0.0224147
0.0219362
0.0214673
0.0218904
0.0643676
0.178781
0.0792189
0.176328
0.0597534
0.0219786
4.93688
0.0299531
2.24821
0.0226467
0.0217455
0.0225409
0.0222322
0.0386127
0.330296
4.71233
0.551044
5.20637
0.425663
0.0218126
2.0097
0.0215185
0.0219903
0.0228835
0.0217561
0.031103
0.0219887
0.0680409
0.0218241
4.77738
0.0222783
0.0224286
0.021752
5.16872
0.672957
0.0909631
0.0215567
5.03803
0.157264
0.0794606
5.51646
0.0564186
2.39559
0.0220558
2.04548
0.20441
0.0301759
1.01114
0.0329125
0.0413179
0.711306
0.0281616
17.5373
0.100832
5.61923
4.1843
0.0428397
0.0291195
0.0219574
4.82523
0.0220121
3.1089
0.0219231
0.0218949
0.0215265
0.0314661
5.53342
0.0238974
0.0219211
0.0221141
0.0449353
3.92285
0.105833
2.61583
0.189175
0.0700927
0.0219909
0.0600991
0.0221851
0.0228423
6.45535
0.0325322
0.0382785
0.122127
4.40323
0.153597
0.0431349
0.0738936
0.0611093
0.0244934
4.51928
0.0221795
6.95876
0.0251481
6.13756
0.0959318
5.22703
5.76618
0.0905931
4.68001
4.21821
0.136079
0.283306
0.0958499
0.542982
0.0220282
0.0785823
0.0557563
9.89851
0.0230328
5.73882
7.5988
0.0215087
0.0217562
5.74512
0.0222994
0.02192
0.0216225
15.163
2.54964
5.12106
0.0267877
1.76514
0.528417
4.351
1.77894
0.0782446
0.0220404
25.7302
3.07295
1.27654
0.427439
0.0219635
0.0218341
0.0220132
0.0221125
1.36486
0.130615
2.66121
0.0832188
0.022143
0.0219683
0.0222878
0.0315981
11.0541
0.0237198
5.26067
5.22852
0.0536373
0.0221198
5.3047
0.17079
2.55654
0.0219268
21.2322
0.0937659
0.022155
5.82205
3.24633
0.0230822
0.0217637
0.0221029
0.022256
0.0219904
0.155497
0.0577104
0.316978
0.0424343
0.0225742
0.030361
0.0220854
0.025668
0.0219352
7.76695
16.7689
0.034765
0.0220085
5.35859
0.0216867
0.185435
0.513303
10.1365
5.3261
5.37386
0.0220565
0.0222698
0.0221234
0.243663
0.0225556
3.71729
0.0253555
0.0218938
0.0219925
0.144071
0.182561
0.0220722
5.22847
0.0749471
4.19029
11.5551
0.0221148
0.718169
5.17906
0.185213
0.0222878
0.0219832
0.140258
1.39694
20.2723
0.0231562
7.94348
0.0217416
0.0831262
2.35354
0.180552
0.0217222
8.49023
6.73723
5.5218
8.98889
0.0222767
0.02215
0.0810053
0.158439
0.041849
0.0229568
3.46542
0.0234216
7.83075
5.23634
0.0218861
8.99312
0.021848
0.0814004
7.89979
0.0837898
0.0565956
2.56705
0.0239912
4.40032
0.0219665
0.72891
5.54654
3.49682
12.6118
0.0243171
0.0579132
0.0217035
5.73859
0.0229431
0.021732
0.0474992
0.0537501
0.0482117
23.8808
4.86292
5.12125
0.221678
0.0306655
0.0387071
0.0262591
0.0343253
29.6213
0.0232252
0.38262
0.0227381
5.09655
0.611343
0.0222191
0.0221642
0.0422427
29.2993
0.0429899
0.0216207
0.0218856
0.0300015
0.0264747
0.0282765
0.0253327
5.04191
0.0239053
5.61053
0.0741229
0.0219388
0.0750879
0.0773812
0.0405829
0.021847
0.0220744
4.45115
5.12095
5.58969
0.0417636
0.0459438
0.0530138
0.0475887
0.0219213
0.0235334
5.04736
0.0483698
0.023788
5.11637
6.31857
0.230981
3.21372
0.0783401
0.0226154
6.22258
0.0652904
5.44014
0.0219146
4.79448
0.0489501
0.0322224
7.02226