/*--------------------------------*- C++ -*----------------------------------*\
| =========                 |                                                 |
| \\      /  F ield         | OpenFOAM: The Open Source CFD Toolbox           |
|  \\    /   O peration     | Version:  v2012                                 |
|   \\  /    A nd           | Website:  www.openfoam.com                      |
|    \\/     M anipulation  |                                                 |
\*---------------------------------------------------------------------------*/
FoamFile
{
    version     2.0;
    format      ascii;
    class       volScalarField;
    location    "700";
    object      p;
}
// * * * * * * * * * * * * * * * * * * * * * * * * * * * * * * * * * * * * * //

dimensions      [0 2 -2 0 0 0 0];


internalField   nonuniform List<scalar> 
18355
(
-0.0973125
-0.216725
0.00871042
-0.00989292
-0.0369138
-0.148683
0.004291
-0.164432
0.0806406
-0.265031
-0.0162393
-0.394799
-0.210901
0.0329986
-0.0161786
0.0246344
-0.486415
-0.00878459
0.00777431
-0.183555
0.0429976
0.0415076
-0.318469
-0.0360755
-0.0464763
0.0182378
0.025324
0.0761939
-0.201923
0.0218841
-0.0289709
-0.0437233
-0.0087023
-0.00559969
-0.144798
-0.101834
0.065185
-0.224754
0.0747221
-0.0167734
0.0336465
0.0162738
0.00885502
-0.285141
-0.011175
-0.235362
-0.15298
0.0820843
-0.13853
-0.00804849
-0.0143363
-0.00741361
0.0175232
-0.255863
0.0125286
0.00359467
-0.0978689
-0.0158416
0.402225
-0.244942
-0.00755432
-0.152343
-0.0100722
-0.0239152
-0.393347
-0.0945125
-0.164657
0.150903
0.0250381
0.0400103
-0.169924
0.00632883
-0.251872
-0.00409376
-0.16397
0.00418631
-0.273234
-0.0445921
-0.0584991
-0.00721523
0.00470917
-0.336827
0.0409691
-0.0727666
0.0184648
-0.207079
-0.165327
-0.182331
-0.197697
-0.288987
-0.252765
-0.0112571
0.0143856
-0.0136911
-0.153417
-0.319104
-0.0180746
-0.0679476
-0.252057
-0.487862
-0.179876
-0.489491
-0.103149
-0.286876
-0.0359606
-0.195412
-0.407142
-0.171653
-0.102386
0.358693
0.0162746
0.0677018
0.0197236
0.0697287
-0.222218
0.00237279
0.477425
-0.269044
0.456042
-0.09935
-0.267872
-0.363997
-0.0436817
-0.169925
-0.0173602
-0.175498
-0.00791979
0.0137655
-0.411084
-0.0135277
-0.0143224
-0.310433
-0.135659
-0.066577
0.0793292
0.0135216
-0.0126983
-0.0162787
0.0256963
-0.180451
-0.179432
-0.169264
0.0145877
0.0168713
0.449087
0.0420155
0.10718
-0.161735
-0.0563048
-0.160516
-0.0369655
0.0423823
-0.139512
0.428212
-0.116956
0.0077139
-0.309472
0.464889
0.00754978
-0.160599
-0.00433242
-0.0435454
0.10081
-0.0678698
-0.15251
0.162215
-0.477946
-0.127742
-0.261404
-0.00658033
-0.127133
-0.320524
-0.0154847
-0.0161241
0.0217883
-0.184997
-0.0807878
0.012899
-0.4037
-0.475185
0.294147
-0.260483
-0.081517
0.0016318
-0.182208
-0.182369
-0.303918
-0.235899
0.0803841
-0.485463
-0.0950452
0.00834399
-0.066681
-0.283403
0.0939489
0.0391908
-0.314294
-0.0801494
-0.113606
-0.0159168
-0.047578
0.0736577
-0.482513
-0.308747
-0.363217
0.00940537
0.480334
-0.431615
-0.388492
-0.111413
-0.0121916
-0.0362759
-0.182054
0.0142183
-0.00621054
-0.327269
-0.163842
-0.182489
0.0197625
-0.0549996
-0.340429
0.0233761
-0.066365
-0.0128419
-0.481905
0.0307418
-0.45176
-0.172001
0.371163
-0.0111294
0.0172733
-0.056809
-0.0249253
-0.45416
-0.00480383
0.0172568
0.0131298
-0.211473
-0.254343
-0.362624
-0.0995788
-0.263592
-0.029069
-0.00546257
0.0339359
-0.1702
-0.376213
0.51397
-0.113409
-0.00608886
-0.046998
0.163131
-0.0821293
-0.392615
0.0250706
-0.472319
-0.165511
-0.161894
0.0147524
-0.00143421
-0.0901095
-0.180947
-0.486091
-0.139172
-0.00222614
-0.00590036
0.016289
-0.266708
-0.115681
0.348657
0.0312343
-0.170269
-0.23991
-0.192935
-0.0301559
-0.320902
-0.0077669
0.0214346
-0.353011
-0.00432268
0.00434526
-0.196411
0.00918726
-0.14553
-0.0809466
0.0913463
-0.00401898
-0.127016
-0.405946
-0.0445252
-0.00953896
0.0319235
-0.195361
-0.24719
0.0160288
0.00558991
-0.166029
-0.114516
-0.111019
0.235131
0.0212197
-0.17595
0.0536371
0.00559227
0.246468
-0.155359
-0.136768
-0.198216
-0.0135357
0.307034
-0.0340944
0.0090863
-0.36759
0.0135468
-0.268154
0.0319689
0.014299
-0.0119993
-0.265413
-0.154166
-0.428347
-0.00765594
0.0972747
-0.286194
-0.0226696
-0.259151
-0.0526204
0.0415832
-0.253247
-0.0133413
0.116219
0.0113098
0.0802382
0.00443304
-0.111055
-0.432913
0.0214933
-0.489199
-0.115558
0.0253811
-0.148495
-0.153616
-0.301937
-0.239809
-0.283081
0.024774
-0.00991431
-0.329676
0.27565
0.0155192
-0.00135398
-0.138451
-0.179546
0.211905
-0.326973
0.0210437
-0.0540536
0.507548
0.0153894
-0.00439786
-0.256079
-0.110763
-0.0563276
-0.15315
0.0123948
0.160014
-0.349824
-0.377643
-0.00950493
0.031434
0.0242409
-0.015488
0.135141
-0.0161225
-0.116614
0.0238774
-0.0272835
0.0211692
0.0790697
-0.025746
0.00181457
-0.0241542
-0.024169
0.0140438
0.355936
-0.113503
-0.0141599
-0.296433
0.053475
-0.115866
-0.0995105
-0.191941
0.0354404
-0.300939
0.06332
0.0025529
0.0175096
-0.0117243
-0.245536
-0.0536829
-0.0111374
-0.134406
-0.11211
0.0149859
-0.0225666
-0.458095
0.0388237
-0.0073021
0.294843
0.00830009
0.516426
-0.487073
-0.254069
0.104179
-0.0351071
-0.404855
0.00630958
0.0159247
0.274553
0.00992082
-0.0152859
-0.485027
-0.00458702
-0.434666
-0.0938403
-0.0897588
-0.488282
0.0544919
0.0154994
-0.267372
-0.145185
-0.121194
-0.293195
0.0239097
0.00201492
0.0435095
-0.194748
0.0411196
0.00772029
0.008199
0.0159586
0.165126
0.504029
0.017533
0.0427236
0.0167305
-0.097849
-0.254428
-0.246316
-0.46981
-0.306546
0.211796
0.14347
-0.284001
-0.0323244
-0.00139382
0.031796
-0.0142402
0.152583
0.0215376
-0.0109979
-0.487916
0.173283
-0.143549
-0.287761
0.2206
-0.181105
-0.00136779
-0.0250171
0.0206624
0.00474823
0.00810158
0.0169447
0.0216414
-0.174396
-0.00896733
-0.0132789
-0.35583
-0.247868
-0.00101484
-0.0442334
0.0511709
-0.385857
0.0217691
-0.0194006
-0.294974
0.0711244
-0.190857
-0.0522121
-0.0154158
-0.489153
-0.250379
-0.00827029
-0.396742
-0.172179
-0.479497
-0.0147451
-0.0190241
-0.0219478
-0.188366
0.0548776
-0.177751
-0.194696
-0.293924
-0.373558
-0.0119885
-0.0913676
-0.190753
-0.317937
-0.200865
0.0395602
0.0261789
0.000710324
-0.306269
-0.489762
-0.259552
0.0291393
0.0251253
0.0221937
0.0446894
0.0214301
-0.261559
0.00237228
-0.220552
0.0329672
0.0156193
-0.00118796
0.145244
-0.0261742
-0.252399
0.00990245
-0.181185
-0.253133
-0.072809
0.0135694
0.0754082
-0.066296
0.011545
-0.103888
-0.11309
-0.0726808
-0.249197
-0.0020675
-0.00829132
0.0311669
0.0214015
-0.120953
-0.0552758
-0.155536
-0.00111916
-0.036395
-0.0585858
-0.0130983
0.161296
0.0592544
-0.231072
0.088702
-0.243961
-0.0395018
-0.293339
0.0860439
0.0812848
-0.167412
-0.062281
-0.408152
-0.0704076
-0.0522876
-0.0146747
0.0236267
-0.136882
-0.142757
0.03056
-0.102235
-0.17379
-0.141688
1.16239e-05
-0.423017
-0.313136
-0.0442984
0.0241689
0.162619
-0.284452
-0.0880175
0.0115136
0.274883
-0.241389
-0.146372
0.137308
0.00857159
-0.0687799
-0.195555
-0.229543
-0.256695
-0.374078
0.147464
-0.198123
-0.080238
0.00377367
-0.0451494
0.0212402
0.438575
0.381048
-0.187412
0.34475
-0.392503
-0.108892
0.266654
0.024955
-0.202386
-0.437248
-0.0166194
0.36729
-0.178523
-0.33407
0.0134436
-0.0113605
-0.0674789
-0.0659289
-0.0645095
-0.197133
0.0129942
-0.275917
0.0164473
0.0423243
-0.307371
0.00110607
-0.0247776
-0.196548
0.0158361
-0.0354166
-0.337684
-0.005105
-0.179255
-0.0133196
-0.128821
-0.0709417
-0.101407
0.0357232
-0.0484716
-0.187221
0.0975208
-0.169461
-0.121073
-0.0294216
-0.319585
-0.10155
0.0513026
-0.472516
-0.35052
-0.25199
0.0168002
-0.0123796
-0.168864
0.0774187
-0.106558
0.0114111
-0.0820171
-0.304027
-0.310361
-0.120436
-0.294104
0.155238
-0.00571407
-0.0115202
0.0113242
-0.138183
-0.118007
-0.0206776
-0.400248
0.0085482
-0.110692
-0.0109787
-0.394508
-0.455999
0.0228224
-0.0165327
-0.141571
0.0111843
-0.00867926
-0.102444
0.364072
0.0496777
0.0228185
-0.127985
-0.138092
-0.0582643
0.268624
0.00123967
-0.194445
-0.134962
0.0325963
0.413372
-0.320827
0.00516961
-0.311247
-0.0101872
0.0154343
0.0551629
0.179818
-0.465913
-0.113369
-0.228389
-0.0147465
-0.179171
-0.381443
-0.0809964
-0.390857
0.0316231
-0.432952
-0.0450228
-0.158708
-0.213143
0.0165144
0.352023
-0.0208154
0.0893661
-0.416328
0.299589
-0.406872
-0.00286405
-0.246973
0.0297312
-0.175648
-0.0345139
0.00576307
-0.0667804
-0.00386268
-0.00968387
-0.12235
-0.28885
-0.331927
0.00216397
0.4971
-0.0792704
-0.00323988
0.0222976
0.0666283
-0.202111
-0.421395
-0.108747
-0.00567957
-0.0304895
-0.216647
0.00912777
0.0144727
-0.00400772
-0.0329065
-0.0957467
-0.277178
0.00129325
-0.272613
0.0857366
-0.308847
-0.475644
-0.167949
-0.0114187
-0.0891099
0.00807309
-0.0105988
-0.0808581
-0.182227
-0.00212432
-0.0141154
-0.00862427
-0.425804
0.0552908
-0.0299639
-0.0477016
-0.0838419
-0.303989
-0.40549
0.0066635
0.0322112
-0.304339
0.0309516
-0.381344
-0.219214
-0.446808
0.233982
0.0757598
-0.231835
-0.0689139
0.0194618
-0.00491698
0.0116692
0.0474458
0.0154761
0.0490028
-0.367571
-0.148047
-0.0295888
0.279487
-0.0046537
-0.00745255
-0.1092
0.0128756
0.0435613
-0.0362562
0.458372
0.510966
-0.175826
-0.405304
0.147865
-0.166529
-0.124529
-0.182942
-0.358688
-0.137339
-0.211557
-0.146003
-0.474933
-0.0274331
0.0242188
0.00439898
-0.0672788
-0.176516
-0.00626958
0.0202987
-0.194378
-0.0022676
-0.0217077
-0.0180955
0.00592541
-0.219452
-0.0293566
0.0328751
-0.131265
-0.0102526
-0.265106
0.393341
0.0129138
-0.0399122
-0.00302464
0.0362429
-0.00229429
-0.0408612
-0.375119
0.0327807
-0.321644
-0.0296888
-0.325793
-0.0525542
-0.118502
0.0155756
-0.0960469
-0.1043
0.0195204
0.0119261
-0.326449
0.0240384
-0.458753
-0.448753
0.0325635
0.00429829
0.0123186
-0.0139544
-0.100865
0.0221506
-0.325344
-0.156168
-0.113382
-0.486448
-0.00534493
0.00930481
-0.42458
-0.362446
0.0963712
0.0132769
0.0197308
-0.00563246
-0.0409424
0.12785
0.38197
-0.0432463
-0.181367
0.499714
-0.163255
0.150036
-0.0266996
-0.332528
-0.132023
-0.050063
0.0152179
0.040398
-0.348162
0.021766
-0.124511
0.138664
0.00744478
0.0625669
-0.0110739
-0.106633
-0.0646319
-0.00210454
-0.0126815
-0.0396985
-0.302341
0.00707874
-0.0792087
-0.265442
0.0398862
0.00913098
0.163253
-0.198629
-0.0975169
-0.336603
0.0624966
-0.013955
0.080425
-0.201828
0.420458
0.498594
-0.00490762
0.142611
0.00995826
-0.33436
-0.0172769
-0.225621
0.132358
-0.102071
0.00676228
0.000474481
0.092047
0.0172771
-0.302988
-0.031781
0.363972
0.00743365
-0.00539409
0.0846303
-0.255321
-0.48562
-0.0234742
-0.0409012
0.0557861
-0.029859
-0.0208622
0.0201952
-0.218269
0.00736395
-0.181198
-0.000954913
-0.383543
-0.0288657
-0.0137945
-0.360462
-0.359867
-0.311777
-0.00568812
-0.167906
-0.0294253
-0.182194
0.0547163
-0.259133
-0.007542
-0.479213
0.00694151
-0.062113
0.0251183
0.0100368
0.0115336
-0.222864
-0.281616
-0.174685
0.153297
-0.0650782
-0.0441162
0.00505679
-0.00917899
-0.00505989
0.0193442
-0.260262
-0.0336608
-0.316488
-0.225429
0.0128246
0.0608739
-0.175938
-0.14016
0.0537937
-0.0461117
0.0578857
-0.483738
-0.125658
-0.431191
-0.0843942
-0.125599
0.24215
0.0326287
0.00232299
-0.193701
0.0871077
-0.0279959
-0.296809
0.0739158
-0.488464
0.00606072
0.36403
0.174688
-0.176836
0.0262669
0.0244534
-0.370941
-0.0304886
-0.312034
0.0416727
0.0247288
-0.392025
-0.0993312
-0.0591038
-0.413576
-0.00159729
0.337961
-0.241825
0.0228352
-0.0771914
-0.244061
0.0168976
0.00219154
-0.0305023
-0.0589561
-0.0594563
-0.120926
-0.16591
-0.041929
0.0143427
-0.168552
-0.0103812
-0.48931
-0.0512511
-0.0402511
-0.286247
-0.488459
-0.00545579
0.00843146
-0.0573445
-0.0135167
-0.00962553
-0.322536
0.0120902
-0.0571181
-0.0118433
0.264175
-0.00791361
0.360549
0.369835
-0.0406385
-0.270559
0.00251188
-0.0516841
0.00224925
-0.284293
0.0133357
-0.00125246
0.0148209
-0.020323
0.00623699
-0.198078
-0.463664
-0.408735
-0.486128
0.0112752
0.0551525
-0.0976995
0.0409218
-0.0170818
0.152293
-0.312688
-0.00211982
-0.02983
-0.33189
0.00599022
0.011002
-0.176751
-0.145146
-0.166679
0.078244
-0.0258826
-0.433531
0.0490789
0.165265
0.0072451
-0.0747532
0.0345667
-0.1923
-0.254412
-0.0986204
0.0118151
-0.482537
0.0658642
-0.00102595
0.00187037
0.042479
0.0176563
-0.0283692
-0.265023
-0.00459492
-0.305909
-0.0324369
-0.0823639
-0.363295
-0.00323303
-0.192307
0.0446207
-0.00335768
0.0777368
-0.134145
0.0188805
-0.0133632
0.0100799
0.0325322
-0.120337
-0.00937811
0.0426636
0.0911329
0.0119828
-0.0180047
-0.456305
-0.174462
-0.227825
-0.321147
-0.19299
-0.177058
-0.349028
-0.183167
-0.0107183
0.0463753
-0.0108111
0.364991
-0.1827
-0.0158136
-0.0231134
-0.0134858
0.00305874
0.00634398
-0.0537421
-0.46086
-0.483544
-0.488181
-0.166302
0.0125856
0.00544295
0.0105783
-0.404246
-0.387601
-0.0271019
0.514717
-0.00992591
-0.103176
-0.0424834
-0.0600216
-0.0999504
-0.281384
0.046453
0.360686
-0.0102338
-3.26325e-05
-0.18838
0.00971787
0.00346999
-0.123339
-0.211537
0.0103758
0.11012
0.00894571
0.0338412
-0.00365399
0.0261631
-0.293662
-0.0136025
0.0143825
0.0479585
-0.271702
0.381619
0.0234014
0.159816
-0.0986563
-0.488713
-0.234093
-0.439943
-0.263763
-0.0810659
-0.181601
-0.205009
-0.130306
-0.448306
-0.0118384
0.00877739
0.0149374
0.38135
0.0340262
-0.375985
-0.0236478
0.0149421
-0.388322
-0.161976
0.0514307
0.286135
0.00520723
0.0703019
-0.352027
-0.0836095
0.0157054
-0.354697
-0.246814
-0.336699
-0.221288
0.0279474
-0.388024
0.00631724
-0.0851334
-0.000354643
-0.00158352
-0.225454
0.0915832
-0.0211285
0.007733
-0.435796
-0.0172605
-0.305933
-0.316649
0.01267
-0.0160718
0.0976244
-0.263951
-0.160382
-0.104042
0.0475202
-0.214482
0.0339283
-0.0387533
-0.0276173
-0.029014
0.0748275
0.242566
-0.364065
-0.17157
-0.180422
-0.468305
0.00212669
-0.104696
-0.244497
0.211713
0.00691963
0.0258395
0.00946836
0.000332206
0.00130388
-0.375818
-0.237016
-0.263752
-0.171675
-0.190428
0.0169631
-0.198489
-0.46544
-0.0110047
-0.0672334
-0.00173781
-0.478411
-0.17299
-0.199699
-0.169566
0.0368589
-0.180361
-0.0357997
0.0967076
-0.107761
-0.074446
-0.0176905
-0.134424
-0.450332
0.00975747
-0.342437
-0.481113
-0.344344
-0.379332
-0.0941915
-0.24979
0.143546
0.253615
-0.28229
-0.0140707
0.0248179
-0.0234743
0.00590197
-0.480781
-0.038711
-0.327641
-0.00906838
-0.0109089
-0.184585
0.0138077
-0.475593
-0.0365824
0.408956
-0.0527744
0.0221
-0.319561
-0.0515763
-0.131326
-0.000226101
-0.0229375
-0.179963
0.119506
0.0216448
0.0880127
-0.362224
-0.0913342
0.510142
0.0154483
0.0153049
-0.0133069
0.0174905
-0.0665955
0.0625358
-0.0106692
-0.454065
0.00620563
0.0187994
-0.167184
-0.308065
-0.114708
-0.0799811
-0.00469524
-0.03603
-0.191633
0.501598
-0.260113
-0.426617
-0.0624554
-0.0961815
-0.135416
-0.0292529
-0.142295
-0.25999
0.0011674
-0.247361
-0.192872
-0.233245
-0.255712
-0.384774
-0.149021
0.0391458
-0.28566
0.0221874
-0.0993937
-0.217206
-0.00481312
-0.219592
-0.00463809
0.0337672
-0.140423
-0.487668
0.0584518
0.00261498
-0.102969
-0.31969
0.292641
-0.145949
0.0171506
-0.174813
-0.0180899
-0.126167
-0.230093
0.00813881
-0.472738
-0.0270843
-0.0018854
0.0402493
-0.00752478
-0.336382
-0.137427
0.0156715
-0.336903
0.0231844
-0.485328
-0.0164447
-0.195385
0.202543
-0.179739
0.0975552
0.00597927
-0.00970306
0.00250553
-0.270164
-0.159363
0.00451663
-0.115903
-0.180636
-0.359823
-0.0943061
-0.186367
-0.319958
0.00674046
-0.37452
-0.00412599
-0.130928
0.0020643
0.045168
-0.0332667
-0.187159
-0.311153
-0.183582
-0.222153
-0.464128
0.376932
-0.140488
-0.260913
0.00132821
-0.175678
-0.475829
-0.0130327
-0.138703
-0.308981
-0.244548
0.00942956
-0.179154
0.124788
-0.206364
-0.332096
-0.0768631
-0.148709
-0.0668568
-0.00571211
-0.0115489
-0.483295
-0.254321
0.191996
-0.248741
0.00147794
-0.310966
0.047707
-0.0113623
0.0519266
-0.162936
-0.0600957
0.0202277
0.0101496
-0.356296
0.00238251
-0.0654855
-0.383308
-0.00856055
0.00206418
-0.329756
-0.0019553
0.132864
-0.0590765
-0.197405
0.49323
0.0133921
-0.0862944
-0.0805338
-0.0901747
-0.0789206
-0.0513871
0.324988
0.427631
-0.153032
-0.337653
0.327995
-0.0191476
-0.234234
-0.181756
-0.138066
-0.00405935
0.0197937
0.371207
-0.0379
-0.312622
0.417395
-0.0888027
-0.170967
-0.0495039
-0.255642
-0.168226
0.00982932
0.00587746
0.0124794
0.0021389
-0.290219
-0.275977
-0.0681221
-0.255555
-0.138517
-0.14309
-0.0307854
-0.0574978
-0.164737
0.000263411
0.0010512
-0.263372
-0.0440405
0.302859
-0.00241049
0.00533706
0.0198281
-0.0711309
-0.00805425
-0.12758
-0.0176842
-0.0510982
-0.334265
-0.132939
0.489983
-0.396319
0.107075
-0.0422933
-0.328832
-0.205983
-0.111718
0.255021
0.00697136
-0.163919
0.0181176
-0.0402888
-0.00374884
0.28951
-0.125164
-0.320469
-0.199448
-0.25272
-0.011888
-0.00580312
-0.0308477
-0.149894
-0.416054
-0.181754
0.517161
0.00160149
-0.407106
-0.0448788
0.00438395
-0.0279015
0.0355578
-0.366945
0.0288585
-0.136749
-0.00885998
0.495627
0.15301
-0.165643
-0.0418096
-0.03378
-0.0503946
-0.00914944
-0.188293
0.508115
-0.324051
-0.16229
-0.0122531
-0.323874
0.221131
0.019019
-0.0766643
-0.0191385
-0.0594974
-0.0128662
-0.363935
-0.0491949
-0.188015
-0.1584
-0.0106065
-0.478578
-0.0118547
-0.0684874
0.0607225
-0.0531343
-0.00543687
-0.00927882
-0.0969412
0.0107619
-0.0464356
-0.00942543
-0.0420167
0.511272
-0.160508
0.0560756
-0.0969247
-0.40128
0.000306311
0.0108597
-0.022536
-0.146227
-0.00865457
-0.164622
-0.313116
0.0168999
-0.271263
-0.192145
0.0237504
-0.0180204
-0.076564
-0.0132408
-0.264936
-0.174063
-0.289603
-0.0501736
-0.0820457
-0.0159491
0.504417
0.0695388
0.391327
0.0059775
-0.203785
-0.482514
-0.106576
-0.0554238
-0.318962
-0.481672
-0.32108
0.057859
-0.0107071
-0.474628
0.490788
-0.00317783
0.0242043
0.415069
-0.0198594
-0.251761
0.486428
-0.00714052
-0.0197123
-0.315281
-0.134943
-0.0436457
-0.0114011
-0.109503
0.0581046
-0.266767
0.00619154
-0.0326787
0.00865626
-0.0389239
0.0160977
-0.227203
-0.0195085
0.0152406
-0.181215
-0.482019
-0.309046
-0.00516632
-0.063462
-0.102736
0.0408305
0.0384827
-0.10607
2.00455e-05
0.0125702
-0.307839
0.046039
0.0225687
0.0342592
-0.0269861
-0.489341
-0.266375
-0.0192277
-0.0392184
0.00470605
-0.091392
-0.418097
0.0766247
-0.186497
0.0166556
0.0469931
-0.0644737
-0.268536
-0.483767
-0.0122993
-0.357779
-0.335484
-0.0769083
-0.00844902
-0.0817893
-0.0915385
0.0276793
-0.0175233
-0.0278969
-0.115402
0.0595284
0.490637
0.0433301
0.0187848
-0.0370897
-0.184801
0.0276748
-0.0110055
-0.22891
0.156539
-0.32875
-0.21009
-0.0262013
0.398058
-0.341534
0.43698
0.0530435
0.00836371
0.0218463
-0.325132
0.200849
-0.0287268
-0.0459702
-0.156949
0.462318
-0.474682
0.0122513
0.108326
0.0447901
-0.202589
-0.364425
0.0050859
-0.172689
0.0407945
0.0593665
0.00516051
-0.446829
-0.188227
0.0236421
-0.0567529
-0.310124
0.00644693
0.00593173
-0.0779757
0.293651
0.0251793
0.00651279
-0.0546517
-0.38566
-0.0934204
-0.0244546
-0.00121996
-0.0297758
0.371258
0.0140455
0.0102758
-0.223792
-0.329891
-0.0019014
0.0132227
-0.109517
-0.0750337
0.00900362
-0.0337804
-0.168824
-8.9575e-05
0.0106578
-0.0934558
-0.34644
-0.36325
-0.0524572
-0.11348
-0.44961
-0.178525
-0.397817
-0.294045
-0.0297958
0.0214813
-0.0133759
0.0701101
0.00849534
0.024712
-0.0110369
0.00129341
0.00177771
-0.288147
-0.103917
-0.28355
-0.0303064
-0.299407
0.0273677
-0.0594884
-0.00985524
-0.00736403
0.127618
-0.340194
-0.0116086
-0.000286794
-0.0474815
-0.28498
0.00316582
-0.110227
0.0219825
-0.0795815
-0.149518
0.208149
0.504283
-0.0167095
-0.248407
-0.0294313
-0.291272
-0.474091
-0.000691188
-0.318054
-0.166962
0.00932023
-0.0158661
-0.138562
-0.0960023
-0.133774
-0.00795436
-0.401644
0.167382
-0.173963
-0.0107535
0.00176667
-0.0641305
-0.488946
-0.310682
-0.489102
-0.133728
-0.483186
0.0849836
-0.421031
-0.0315882
0.455775
0.00342267
-0.0261534
-0.338388
0.0622541
-0.269037
0.00192769
-0.0152812
-0.472385
-0.32539
0.00205737
-0.387926
0.00566073
-0.317423
-0.00378611
-0.301066
-0.484627
-0.0280175
-0.225858
-0.0578894
-0.313067
0.0314104
-0.0190861
0.0321004
-0.169632
0.00653838
-0.329169
-0.00335941
-0.436873
-0.183823
-0.28288
0.00267197
-0.0103285
-0.16946
-0.0505182
0.159574
0.00703682
0.312441
-0.0327796
0.0244065
-0.141067
0.0205986
0.00991565
-0.0365458
0.0145312
-0.182959
-0.0786796
0.00163832
-0.309364
-0.281109
0.42097
-0.0232711
-0.21217
0.479582
-0.0252263
-0.0765015
-0.0385389
0.0195019
0.00293102
0.0352654
-0.0595189
-0.0790151
-0.43476
-0.036647
-0.070031
0.0105641
0.0112006
-0.181861
-0.0768085
0.00909433
-0.0398512
-0.187251
-0.344008
0.0268515
-0.269727
0.0379814
0.455879
0.0205798
-0.452625
-0.0052905
-0.0402909
0.00808093
-0.000558913
0.0614564
-0.311845
-0.0074933
-0.318917
-0.247504
-0.0961813
-0.302554
0.00907539
0.0361531
-0.18004
-0.0216531
0.338975
0.0262201
-0.101553
-0.00948242
-0.365506
-0.311721
-0.178061
0.00211581
-0.399782
-0.483552
-0.237714
0.371712
0.108388
-0.222375
-0.000625879
-0.266604
-0.305019
-0.0764385
-0.194477
-0.00291597
0.0258161
-0.0607865
-0.303512
-0.0200903
-0.164943
0.00334557
-0.36279
-0.108497
0.141152
-0.00298433
-0.0993487
0.388091
0.0261178
-0.111679
-0.130914
-0.175553
-0.0197013
0.00280978
-0.294626
-0.354522
0.0061223
-0.482826
0.0688285
0.0135544
-0.471353
-0.240538
0.0222278
-0.346645
-0.00958473
0.00167206
-0.125922
-0.31223
0.000287363
-0.202046
-0.0218773
0.0182155
-0.489197
-0.0371921
-0.131048
-0.00128222
0.473813
0.0223749
-0.489287
-0.0115462
0.239107
-0.0290614
0.10394
0.372568
-0.347042
0.225607
-0.34995
-0.0778643
-0.237377
-0.345456
-0.180482
0.00147632
-0.18293
-0.430509
-0.155427
-0.2336
0.0411041
1.79703e-05
-0.0315243
-0.384945
0.0226592
-0.0346918
-0.229129
0.00617052
-0.313497
-0.0188234
-0.274441
0.0115948
0.0059357
-0.172663
-0.0111706
-0.118977
0.00176411
-0.0296477
-0.217707
-0.158539
-0.00299807
0.00980719
-0.341626
-0.483812
0.0141149
-0.0817475
-0.114441
-0.0180509
-0.488355
-0.340127
-0.366893
-0.244669
-0.482509
-0.189215
-0.171906
-0.000214798
-0.00404895
0.0147778
0.00409917
0.0634122
-0.432068
-0.462156
0.00853625
-0.0440325
-0.0445461
-0.307834
-0.32435
-0.35147
-0.383527
0.0274757
-0.386673
-0.438026
0.0962862
-0.265958
-0.129092
-0.0320195
-0.311377
-0.178841
-0.175825
0.020272
-0.0194034
-0.133094
-0.280896
-0.00483714
0.0194437
0.00546639
-0.00276467
0.0261951
-0.45052
0.0138377
-0.00824113
-0.417501
0.00938344
-0.339972
-0.134003
-0.353788
-0.237962
0.00308733
-0.357196
0.368905
0.460238
0.0270366
-0.0816345
0.00988908
0.0730322
-0.484077
-0.172716
-0.190785
-0.0429019
0.00415101
0.361501
-0.0482924
0.0240563
0.113393
0.00933171
-0.310332
0.00381296
-0.201777
-0.357569
0.0687089
0.00370719
-0.328294
0.00120459
-0.0233
0.192912
-0.0119826
-0.0381272
-0.205968
0.453563
-0.380701
-0.0183518
0.0759341
-0.00454128
-0.341388
-0.159438
-0.0111391
-0.07929
0.0062248
-0.0278216
-0.0406356
-0.0192145
-0.142847
-0.0769119
0.022804
-0.0318123
0.0215348
0.00775455
-0.0287926
0.00975703
0.399521
-0.173577
-0.342244
-0.314105
-0.19703
0.318462
-0.0350894
-0.480085
-0.196211
-0.199002
0.0244625
-0.0230229
0.456984
-0.381472
-0.276465
-0.289482
-0.327106
0.00846545
0.0183659
-0.195872
-0.00160764
-0.146556
-0.23963
-0.043095
-0.468424
-0.180935
0.00587578
-0.491053
-0.264632
0.263061
0.454981
0.0355613
-0.159903
-0.343654
-0.300703
-0.00144543
0.281578
-0.129172
-0.000259291
-0.106699
-0.024831
-0.153992
0.0154862
-0.433912
-0.361102
0.0345888
-0.0520262
0.0526944
-0.449869
-0.13634
0.0262793
0.0432074
-0.180702
0.0159075
-0.0523783
-0.185498
0.445394
-0.00266856
0.317417
0.246664
0.0108597
-0.116701
-0.0103959
0.023974
-0.064494
0.0154409
-0.0586132
-0.318375
-0.207477
0.0275261
-0.478519
-0.12405
-0.114529
-0.48454
-0.104444
-0.053466
-0.370984
-0.0625999
0.0915677
-0.128367
-0.104215
-0.0295876
-0.00969105
0.00828941
-0.285236
-0.239459
-0.393529
-0.257849
-0.00265244
0.104659
-0.197415
-0.0968588
-0.372011
0.0049357
-0.177816
-0.00549726
-0.456102
-0.0192074
-0.301023
0.068526
-0.478531
-0.240158
-0.193911
-0.328656
0.122991
-0.00190648
0.290768
-0.488513
-0.467846
-0.0784296
0.0597532
0.00214192
0.0314882
-0.0945257
0.020852
0.0160076
-0.00223707
-0.156765
0.0266418
-0.308609
0.0053823
-0.286238
-0.0136175
-0.17406
-0.476715
0.0463437
-0.257916
0.010271
-0.0625316
-0.0252927
0.0217857
0.0139899
0.408608
-0.217162
-0.00708138
0.0937611
0.0321213
-0.18274
-0.0988063
-0.32521
-0.233668
0.0361563
-0.136243
-0.0408993
0.0274991
0.221014
0.0233165
-0.110017
-0.467427
0.0125047
-0.298751
0.0558647
0.00783491
-0.00970351
-0.342153
0.0284613
-0.346059
-0.0351751
0.0196308
-0.120243
-0.220519
-0.304608
-0.0638782
0.0196654
0.0136729
-0.178426
-0.168904
0.0169117
-0.121931
0.0440658
-0.0943655
0.46297
-0.17029
-0.439574
-0.468843
-0.0158619
-0.145657
-0.024099
-0.293033
-0.341688
-0.0798513
-0.333794
-0.138792
-0.0146329
0.0770743
0.0270318
-0.0123453
0.0377085
0.0246817
-0.320594
0.0467771
-0.120914
-0.30812
0.00646744
-0.368354
0.0163829
0.0151046
-0.137737
-0.335434
-0.0196013
-0.419331
0.293958
-0.121611
-0.489214
-0.038344
-0.143172
-0.262487
0.0622389
-0.0174697
0.446134
0.0308759
0.00604373
0.00599461
0.301791
-0.479273
-0.0605385
0.0232471
-0.201636
-0.474279
0.0572879
0.0143774
-0.31769
-0.324858
0.000968203
0.323969
-0.234718
0.00685249
-0.0615562
-0.00999041
-0.181826
0.00509852
-0.418432
-0.429955
-0.413216
-0.041446
0.164699
-0.0262112
-0.00363795
-0.141518
0.000126238
-0.295014
-0.217913
-0.18767
-0.00149047
-0.0148019
0.454444
-0.133759
0.249685
-0.349627
-0.215335
-0.294077
-0.0494642
-0.411643
0.27781
-0.0677446
0.404877
-0.375276
-0.217489
0.0264637
-0.489651
-0.0082197
-0.250324
-0.257068
0.303741
-0.00951987
-0.128872
0.013555
-0.274065
-0.186655
-0.040146
0.0125887
-0.413727
-0.228346
0.00527463
-0.315995
-0.161277
-0.295877
0.0125309
-0.370101
0.0167278
-0.140242
0.0147883
-0.0427671
0.00527994
0.0311081
-0.278651
-0.140097
-0.0128335
-0.174881
-0.486188
-0.0110054
-0.0143304
0.0522746
0.10207
-0.107264
-0.132706
-0.472339
-0.262416
-0.409815
-0.397691
-0.119222
0.0596126
-0.145142
-0.231057
-0.489208
-0.182098
-0.227168
-0.145254
-0.107415
-0.0422122
-0.486184
-0.0117182
-0.351268
0.0222918
0.00159673
-0.417498
0.0123783
-0.0227148
0.358843
-0.0409259
-0.133757
0.0220042
-0.0462108
-0.289116
0.344281
-0.0184355
0.00547382
-0.411127
-0.133287
-0.0607079
0.507414
-0.164316
-0.138716
-0.211285
-0.44838
0.0658079
-0.323695
-0.133414
-0.17286
0.0227489
-0.0131305
-0.121448
-0.484594
-0.45942
-0.425451
-0.191404
0.00649304
-0.180754
0.0336337
-0.466348
-0.0280863
0.0064827
-0.12753
-0.192449
-0.20559
-0.426318
0.0466737
0.396001
-0.302273
-0.0351146
-0.184135
-0.0107814
0.136611
-0.245911
-0.130156
-0.289991
-0.423506
-0.174821
0.499994
-0.106153
0.0302099
-0.0440424
-0.0775757
-0.318714
-0.387253
-0.421477
-0.324761
0.120654
-0.00465676
-0.255102
-0.130031
-0.352162
0.0114259
-0.431713
-0.144867
-0.35886
0.00815766
-0.18163
-0.184502
-0.117404
-0.305205
-0.0195827
-0.205482
-0.194032
-0.00242321
-0.209043
-0.324508
-0.0416933
-0.271642
-0.0431831
-0.0509486
0.0129793
-0.201513
-0.145979
0.285887
-0.0784492
-0.457665
-0.0130045
-0.0113972
0.00680777
0.00417155
0.00301714
-0.349474
0.360996
-0.315338
0.0217075
-0.0121723
-0.435522
-0.0796626
-0.196116
-0.142345
-0.00647126
0.476323
0.144505
-0.100949
-0.344946
-0.0660516
-0.480237
0.459574
0.11546
-0.0113114
0.345498
-0.0122163
0.374306
-0.384255
-0.2143
-0.00634703
-0.399567
0.435327
0.0205855
-0.192431
0.0230207
-0.381608
-0.415796
0.0307616
0.00663603
0.100346
-0.126372
-0.00872958
-0.0213945
0.0357368
-0.435361
0.104005
0.483647
0.46083
-0.346774
-0.274538
-0.229552
0.00648661
-0.185027
-0.471157
0.100541
0.000138402
-0.0553974
0.019591
-0.488065
-0.191687
-0.36004
0.00794012
-0.0763701
0.516967
-0.480725
-0.17412
0.0201995
0.338714
-0.130654
0.000788773
0.0209729
0.47732
-0.199003
-0.0725365
-0.130273
0.437525
-0.445214
-0.0948701
0.0722925
0.439159
-0.137052
-0.00587348
0.022117
0.00782164
-0.00387921
-0.243813
0.271606
0.070562
-0.487996
-0.163373
-0.0155848
-0.22604
0.32931
0.122068
-0.0791562
-0.0161164
-0.00739482
0.50996
0.391098
-0.0912075
-0.00197892
0.389714
-0.336751
-0.261915
-0.103843
-0.056277
-0.0148347
0.0216952
0.00525013
-0.0938341
-0.433927
-0.151325
0.0280614
0.357082
0.0237945
-0.340602
0.0573539
-0.193135
0.0708922
0.0789408
-0.0889837
-0.310666
0.00105253
-0.0111356
-0.00350235
-0.192686
-0.0533609
-0.321674
-0.161433
-0.0861014
0.000511938
-0.0864907
-0.050348
0.0222502
-0.425348
-0.0115158
-0.18046
-0.467481
-0.200316
-0.072371
0.0350584
0.0118197
0.022637
-0.000145239
-0.160125
-0.331357
-0.468998
-0.457525
0.470324
0.371452
0.0732999
-0.304866
-0.138201
-0.0979251
0.0323053
-0.021951
-0.127242
-0.0341864
-0.018323
-0.194811
-0.266568
-0.326874
-0.320858
-0.226086
0.006591
0.0145787
-0.042179
-0.0837286
-0.174545
0.0148581
-0.133611
0.452198
0.485892
-0.1266
0.042099
0.431659
-0.0842492
-0.319162
0.0464569
-0.00867264
0.0143469
0.0308487
0.0109925
-0.223058
-0.269626
-0.168089
-0.18588
-0.174307
-0.0067269
-0.106214
0.0678355
0.00478659
-0.0785147
-0.419644
-0.260668
-0.00639084
0.418337
-0.00123303
-0.159
0.0675187
-0.0807747
0.0220677
-0.179642
-0.131897
-0.244501
-0.486823
-0.346706
-0.347059
-0.47735
-0.354632
-0.292329
-0.0141893
-0.332347
-0.00912359
-0.476131
0.0192196
0.402003
0.00663479
-0.191476
0.0305069
-0.00495185
0.034292
-0.000507024
0.50096
-0.0224274
-0.00316176
-0.0127743
-0.0090888
-0.00434952
-0.0487933
0.0231344
-0.328426
-0.142856
0.0102793
-0.156072
0.0257447
-0.00154586
-0.184891
-0.305913
0.00922129
-0.0920526
-0.00899845
-0.0107124
-0.364686
-0.0316563
0.106907
-0.234079
-0.279412
-0.469182
-0.37526
-0.320035
-0.485093
-0.480846
-0.300121
-0.340133
-0.0417947
-0.330848
0.0193631
0.0106145
-0.189827
-0.0654467
0.513128
-0.0301631
-0.125115
-0.113032
0.439793
-0.185955
-0.124517
-0.0520218
0.00158683
-0.11926
0.0230803
-0.00637203
0.4391
-0.0331432
-0.349264
-0.378181
-0.223399
-0.027053
-0.249617
0.0518694
-0.484089
0.443612
-0.00204306
-0.345522
-0.306824
-0.147764
-0.115325
-0.100535
-0.173412
-0.182921
-0.057878
-0.480634
-0.155891
0.131299
-0.333271
0.0327469
-0.177121
0.0264892
-0.0108093
-0.0279594
0.412175
-0.250827
0.377084
-0.293944
0.0165294
0.208341
0.502233
-0.00682168
-0.328586
-0.0137473
0.506741
-0.19307
-0.33546
-0.23738
-0.316164
-0.00360209
-0.0369273
0.0190769
-0.470441
-0.124032
-0.042281
0.0075701
-0.012936
0.000321343
-0.0262406
-0.0456395
-0.187938
0.0608584
-0.067062