/*--------------------------------*- C++ -*----------------------------------*\
| =========                 |                                                 |
| \\      /  F ield         | OpenFOAM: The Open Source CFD Toolbox           |
|  \\    /   O peration     | Version:  v2012                                 |
|   \\  /    A nd           | Website:  www.openfoam.com                      |
|    \\/     M anipulation  |                                                 |
\*---------------------------------------------------------------------------*/
FoamFile
{
    version     2.0;
    format      ascii;
    class       volVectorField;
    location    "700";
    object      U_0;
}
// * * * * * * * * * * * * * * * * * * * * * * * * * * * * * * * * * * * * * //

dimensions      [0 1 -1 0 0 0 0];


internalField   nonuniform List<vector> 
18355
(
(1.09631 0.0810281 2.22262e-20)
(0.108218 -0.0290439 -1.5278e-20)
(1.00375 0.0216908 1.93396e-21)
(1.01474 0.00498876 0)
(1.04299 -0.00341455 0)
(1.13465 -0.075975 -2.19514e-20)
(1.00378 0.00698572 -5.7283e-22)
(1.15602 0.0229668 -2.85738e-20)
(0.9395 -0.00815635 9.40735e-21)
(-0.0174689 -0.0181526 0)
(1.0219 0.00083079 9.53819e-21)
(-0.218974 -0.00470137 -5.54509e-20)
(1.19541 0.019412 7.43965e-20)
(0.987396 0.00536048 -1.00323e-20)
(1.02508 0.0340278 4.23609e-21)
(0.987424 0.068914 2.20359e-21)
(-0.255459 0.0125605 -8.09879e-20)
(1.01511 0.00996211 2.88306e-21)
(1.00474 0.0348448 -2.45209e-21)
(0.719576 -0.180329 6.34977e-20)
(0.968271 0.0860542 0)
(0.975138 0.0330825 -4.85854e-21)
(0.0927566 -0.017562 2.173e-21)
(1.04231 -0.0037689 5.25154e-21)
(1.05059 -0.0176532 -5.63027e-21)
(0.999326 0.00355232 -2.45549e-21)
(0.99625 -0.000769196 1.17189e-20)
(0.943256 0.00468651 -2.44377e-20)
(0.0362119 0.145385 -1.23049e-20)
(0.993655 0.0240235 1.28498e-20)
(1.03597 -0.00434771 9.70811e-21)
(1.04887 -0.0073069 8.56264e-21)
(1.0149 0.00954066 -2.58634e-21)
(1.00974 0.000538197 2.2114e-21)
(1.13324 0.128156 1.99995e-20)
(1.10025 0.0810434 -1.90665e-20)
(0.955708 -0.00446406 0)
(1.17975 0.260329 -1.68224e-20)
(0.944959 0.00590074 3.53742e-20)
(1.02243 0.00136263 2.86919e-21)
(0.986784 0.00521967 1.28263e-20)
(0.945455 0.317008 0)
(1.00368 0.0223081 0)
(-0.101507 -0.00826689 5.60549e-20)
(1.01487 4.73661e-06 2.53583e-21)
(1.18983 0.259424 -1.02714e-20)
(1.14437 0.0742948 -4.57105e-20)
(0.935531 0.0243645 3.98213e-20)
(1.1321 0.0753649 0)
(1.01462 0.010932 1.66128e-22)
(1.0194 0.0028822 -3.61714e-21)
(1.01635 0.0213532 -1.69959e-21)
(0.999993 0.000642395 7.63677e-21)
(0.286741 -0.076765 2.78765e-20)
(1.00042 0.00544654 0)
(1.00178 0.00027979 6.93012e-22)
(1.05414 -0.135422 1.07765e-20)
(1.02491 0.0349064 0)
(0.116378 0.460299 -3.37542e-20)
(1.21397 0.134053 3.33785e-20)
(1.01421 0.0110011 -1.74465e-22)
(1.14372 -0.0334734 0)
(1.01609 0.00928648 0)
(1.01709 0.192036 4.76968e-21)
(-0.202834 -0.00696592 0)
(1.09411 0.0774747 0)
(0.0608603 0.169224 0)
(0.857513 0.0530356 -4.12293e-20)
(0.996534 -0.000705734 9.66823e-21)
(0.97675 0.0333067 -4.18887e-21)
(1.15691 0.0999557 0)
(1.00008 0.000494983 -1.25946e-21)
(1.21924 0.137642 4.21986e-20)
(1.01126 0.01097 -5.89315e-23)
(1.15566 0.0266943 2.51964e-20)
(1.00395 0.0072395 9.92615e-22)
(0.684651 -0.122511 0)
(1.04975 -0.00494786 -2.6752e-20)
(1.05904 -0.0240026 5.28611e-21)
(1.01578 0.0186764 -7.67479e-22)
(1.00349 0.00680878 -5.78637e-22)
(1.24536 0.344671 -2.11638e-20)
(0.970224 0.0837634 0)
(1.06434 0.180078 -2.8042e-20)
(0.999201 0.00362738 0)
(1.19206 0.0201819 0)
(0.3581 -0.0312167 0)
(0.732752 -0.186143 1.16374e-20)
(0.0215246 0.162994 -2.53367e-20)
(0.242182 -0.0550152 0)
(1.23939 -0.0986276 1.11348e-20)
(1.01502 -2.34855e-05 -1.94363e-21)
(0.999965 0.00490753 0)
(1.01869 0.000685569 -1.91616e-21)
(-0.00658091 0.167611 2.67538e-20)
(0.0589162 -0.0151116 0)
(1.02488 0.0155524 2.41596e-21)
(1.07026 -0.00138634 0)
(0.243465 -0.0707442 0)
(-0.193972 0.015762 4.20227e-20)
(-0.00291185 0.253026 0)
(-0.215847 0.0124833 0)
(1.09698 0.13625 -2.35715e-20)
(1.13011 -0.111551 -3.37601e-20)
(1.04244 -0.00779556 -1.2933e-20)
(1.18309 -0.0474246 5.22608e-20)
(-0.272965 -0.00142091 0)
(1.12743 0.299909 0)
(1.10189 0.0241639 1.69059e-20)
(0.484257 -0.308205 0)
(0.998089 0.0233623 -4.01115e-21)
(0.951336 0.0165975 0)
(0.999066 0.00297138 -5.73075e-21)
(0.949087 0.0159154 0)
(0.30153 -0.0812359 0)
(1.00284 0.000793485 3.3417e-22)
(0.0687242 -0.299546 6.05236e-21)
(0.682184 -0.126676 4.78034e-20)
(0.075549 0.351792 0)
(1.09285 0.140876 1.77134e-20)
(-0.0102063 -0.0206019 0)
(1.34046 0.107917 0)
(1.04895 -0.00542245 2.79994e-20)
(1.15658 0.103217 2.09221e-20)
(1.02424 0.0156416 2.17531e-21)
(1.12854 0.311065 0)
(1.01672 0.0207751 1.53563e-21)
(1.00002 0.00113893 -7.31065e-22)
(1.38157 0.231438 -1.24333e-19)
(1.01845 0.000756468 1.76996e-21)
(1.01938 0.00312904 9.84969e-21)
(1.13489 -0.0398837 -3.98664e-20)
(1.12987 -0.00954776 -6.04211e-20)
(1.06889 -0.00213345 4.73782e-21)
(0.915016 0.187359 3.80868e-20)
(1.00003 0.001289 7.38091e-22)
(1.02175 0.0270467 0)
(1.02195 0.000593767 1.62894e-21)
(0.991887 0.014468 0)
(1.15829 0.168489 9.17593e-20)
(-0.00565181 0.241809 0)
(-0.0404914 0.178669 1.16513e-20)
(0.998474 0.0462327 -4.39793e-21)
(0.997663 0.0226425 -5.18594e-21)
(0.379562 0.0309507 -8.75215e-20)
(0.975195 0.029672 1.52821e-20)
(0.910154 0.00211647 2.13788e-20)
(0.3463 -0.00966628 0)
(1.06031 0.0098861 0)
(0.326647 0.00280492 1.26766e-20)
(1.04278 0.00194964 3.151e-21)
(0.974573 0.0307628 2.04891e-20)
(1.12839 0.126337 -2.11915e-20)
(0.109551 0.413018 2.58984e-19)
(1.09512 -0.0976976 3.44624e-20)
(1.00004 0.000538598 2.82118e-21)
(1.15627 -0.0423929 -4.33333e-20)
(0.0841043 0.319597 1.50204e-21)
(1.00005 0.000547912 1.80998e-21)
(1.15141 -0.0321805 2.93864e-20)
(1.01164 0.102206 -1.90671e-22)
(1.0498 0.0612921 -1.24073e-20)
(0.908345 0.0925332 2.59694e-20)
(1.06972 -0.00430291 0)
(1.10761 -0.180207 2.40513e-20)
(0.506356 0.678429 4.49262e-22)
(0.207693 0.0481523 -5.07447e-20)
(1.12247 0.086641 -8.11121e-21)
(1.23651 0.0175652 5.15486e-20)
(1.01335 0.0107665 -2.48886e-21)
(-0.0756281 -0.0142947 2.58239e-20)
(0.0206189 -0.0115985 -4.19772e-23)
(1.02084 0.0014019 0)
(1.02161 0.00139997 -3.29151e-22)
(0.990137 0.06822 -1.28331e-21)
(0.173106 -0.0204597 0)
(1.06058 -0.0783202 0)
(1.00032 0.0050427 3.8176e-21)
(1.36546 0.228501 -4.94231e-20)
(0.443902 0.208513 -1.63603e-19)
(0.66604 -0.114362 -4.93519e-20)
(1.23625 0.0147581 -3.6713e-21)
(1.08284 0.00634729 0)
(1.00526 0.00663403 1.00315e-22)
(1.14852 -0.174257 -3.37832e-20)
(0.208 -0.0246481 -2.73781e-20)
(0.202015 -0.0389316 0)
(1.22327 -0.0789267 3.92723e-20)
(0.93864 0.00456369 -1.08219e-20)
(-0.274495 0.0106166 -4.12825e-20)
(1.05129 -0.132097 0)
(1.00414 0.0236361 3.16412e-22)
(1.06853 -0.00499785 5.04791e-21)
(1.0794 -0.128351 3.74195e-20)
(0.894222 0.209188 0)
(0.977205 0.0360951 -7.20034e-21)
(1.26625 0.0133942 -1.96105e-20)
(1.08143 0.00517079 6.84473e-21)
(1.10991 -0.0114273 0)
(1.02135 0.00157831 -1.27658e-21)
(1.05266 0.0163757 -1.12849e-20)
(0.942346 0.0440847 0)
(0.144275 0.0680475 0)
(0.161362 -0.0338074 0)
(-0.274641 0.00119072 -1.30266e-19)
(0.997103 0.113589 0)
(0.0851151 -0.267317 0)
(-0.0571038 -0.0100074 -9.00344e-20)
(-0.0239141 -0.0198064 6.30142e-23)
(1.10771 -0.0131682 2.58675e-20)
(1.02118 0.0279046 0)
(1.04205 0.00237813 7.38263e-21)
(0.68872 -0.17645 5.09716e-20)
(0.998786 0.0446229 5.45034e-21)
(1.01293 0.0105443 1.87314e-21)
(1.24452 0.333544 0)
(1.07211 -0.258495 -1.77675e-20)
(0.676999 -0.170071 0)
(0.999127 0.00284667 4.05253e-21)
(1.05907 0.0103633 9.91888e-21)
(1.274 0.229498 -3.76351e-20)
(0.993428 0.0157038 -3.60456e-21)
(1.05856 0.177241 1.29695e-20)
(1.02172 0.0263793 -3.59026e-21)
(0.110038 0.0406552 -1.14716e-19)
(0.984971 0.0346976 -5.17876e-21)
(-0.103302 -0.00307996 -1.80139e-19)
(0.263165 -0.0254178 0)
(0.547924 0.00604856 0)
(1.02028 0.0278829 -2.57633e-21)
(1.00001 0.000804076 -4.02625e-21)
(1.05792 -0.0228561 1.37963e-20)
(1.03139 0.0895975 -2.66947e-22)
(-0.0736885 -0.00172511 1.24053e-19)
(1.01527 0.055101 -4.78784e-22)
(0.999473 0.00393467 0)
(1.00025 0.00488298 -4.31853e-21)
(1.15957 0.308427 1.18806e-20)
(1.25492 -0.148878 0)
(-0.200326 0.00569495 1.35034e-19)
(1.09918 0.0237896 -2.54685e-21)
(1.23745 0.0254643 1.25373e-19)
(1.03625 -0.00540804 -7.97445e-21)
(1.01248 0.0111341 0)
(0.982017 0.0351055 9.09686e-21)
(0.23607 -0.0146705 -2.4697e-20)
(1.30912 0.0890563 5.10771e-20)
(0.0665583 -0.102851 0)
(1.0912 -0.0964286 -4.02545e-20)
(1.01355 0.0989682 -2.18889e-21)
(1.05229 0.017389 0)
(0.211232 0.829516 3.12734e-21)
(1.08284 0.00267225 -1.55309e-20)
(0.00539317 -0.0199648 9.92194e-20)
(0.990134 0.0342148 0)
(-0.207924 0.0067618 -3.02831e-19)
(0.994473 -0.261294 -3.21016e-20)
(1.15317 -0.0286599 0)
(0.999111 0.0278029 -4.49731e-21)
(1.0059 0.000405387 -3.25302e-22)
(1.09018 0.0777859 -2.00934e-20)
(1.16623 0.0965803 4.66097e-20)
(0.277585 0.108264 -5.06325e-20)
(1.13307 -0.00957112 3.89895e-20)
(1.00816 0.00636682 6.48019e-22)
(1.01243 0.00972034 -1.01734e-21)
(0.99999 0.000921773 4.12277e-21)
(1.24069 0.0191884 5.35152e-20)
(1.08795 0.258798 0)
(0.587307 -0.0404799 -8.10613e-21)
(0.982825 0.0518466 7.16886e-21)
(0.240561 0.0477824 0)
(1.22803 -0.0794329 9.84454e-20)
(1.18083 -0.0441519 -9.12833e-20)
(1.0374 0.0282249 -5.46955e-21)
(1.27175 0.0153728 -5.34826e-20)
(1.01635 0.0194008 0)
(0.995847 0.00954203 3.73319e-21)
(1.09247 0.832337 -5.73784e-20)
(1.00869 0.000642253 -1.01839e-21)
(1.00395 0.00754229 -3.68517e-22)
(1.18525 -0.0379026 -2.35619e-20)
(1.00301 0.0161792 3.60041e-21)
(-0.0236569 0.186811 -1.29735e-20)
(1.08167 0.00154364 1.74032e-22)
(0.926535 0.0149381 -1.57706e-20)
(1.00836 0.00063421 -8.55776e-22)
(1.12147 0.0903308 0)
(-0.209937 -0.00581389 -6.42254e-21)
(1.04955 -0.00663575 0)
(1.01433 0.00478635 1.78793e-21)
(0.989447 8.51749e-06 1.17633e-20)
(1.18171 -0.0820842 -1.29732e-20)
(0.135764 -0.0477573 -5.42933e-20)
(0.999989 0.000978185 0)
(1.00002 5.13137e-05 0)
(1.04948 -0.257945 4.66131e-20)
(1.10703 0.136033 -2.26106e-20)
(1.08579 -0.100419 4.05429e-20)
(0.637844 0.400054 6.60991e-20)
(0.996069 0.00908893 7.19952e-21)
(1.16168 0.095458 0)
(0.964011 0.0276438 1.63081e-20)
(1.00003 8.97903e-05 0)
(0.636763 0.369772 -5.81342e-20)
(1.11075 -0.184603 -5.52365e-20)
(1.05911 -0.219414 2.195e-20)
(1.18437 -0.085491 -2.98855e-20)
(1.01847 0.00106567 3.88353e-21)
(0.647336 -0.11275 0)
(1.04083 -0.00797224 -2.61692e-21)
(1.00362 0.0343196 0)
(1.34134 0.0980221 0)
(1.00024 0.0211288 -2.80549e-21)
(1.24132 0.0225843 5.1071e-20)
(0.931039 0.312973 2.20089e-23)
(0.999987 0.00511636 -4.08527e-21)
(1.01664 0.00336384 0)
(1.23839 0.029034 -1.35965e-19)
(0.16684 0.0161782 2.97488e-22)
(-0.0189906 -0.0129381 8.52673e-20)
(1.01776 0.0390678 -8.75398e-23)
(0.912613 0.0887431 -2.16117e-20)
(-0.117015 -0.00621832 0)
(1.02899 0.00189727 5.62035e-21)
(1.25579 -0.143392 0)
(1.05427 -0.0242698 -1.16533e-20)
(0.961769 0.143196 0)
(1.25239 -0.137354 0)
(1.01818 0.00113606 -3.46895e-21)
(0.50415 0.735222 -5.63326e-22)
(1.0018 0.0324547 1.64724e-21)
(0.911314 0.198355 -1.09951e-20)
(1.00111 0.000285785 2.92183e-23)
(1.08739 -0.0979395 -3.84966e-20)
(-0.211678 -0.00379225 9.11901e-21)
(0.999944 0.000301708 0)
(0.161912 0.112582 2.76038e-19)
(1.11319 0.0244827 6.5632e-21)
(0.99514 0.00214365 1.01253e-20)
(1.14038 0.0759357 4.62602e-20)
(1.14425 -0.0372146 0)
(1.07176 -0.0978226 3.80909e-20)
(0.335149 -0.089811 -4.2579e-20)
(1.13942 -0.128338 -3.40926e-20)
(0.990448 0.0333488 0)
(1.01589 0.00896209 0)
(0.053335 -0.00995834 8.71082e-23)
(0.69931 -0.0737445 0)
(0.999738 0.00465501 -4.68889e-21)
(1.01217 0.0513679 0)
(1.05786 -0.224963 -2.53156e-20)
(1.14468 -0.176401 4.1796e-20)
(0.267276 0.730173 0)
(0.0859803 -0.0137619 -1.51487e-20)
(0.997983 0.00345159 -7.75247e-21)
(1.0587 0.0195079 1.30609e-20)
(0.0464496 -0.156895 2.1021e-21)
(0.998787 0.0234133 3.88832e-21)
(1.01478 0.0533775 6.3687e-22)
(1.24044 -0.0619154 6.80437e-20)
(1.10639 -0.0180072 -7.38585e-21)
(1.05995 -0.00107991 -2.09598e-20)
(0.211103 0.0195823 5.03409e-20)
(1.00001 0.000715415 -9.205e-24)
(0.829633 0.166343 7.06309e-20)
(1.27765 0.234661 0)
(-0.206656 0.000694579 8.3729e-20)
(1.01422 0.00448311 -3.81498e-21)
(0.985864 0.0218145 8.14418e-21)
(0.993366 0.0120445 -6.94187e-21)
(1.02272 0.0168009 0)
(0.834029 0.256223 -2.60159e-20)
(1.02328 0.0166825 4.54506e-21)
(1.11225 0.0971978 -1.79519e-20)
(0.993707 0.0116901 1.25679e-22)
(1.03473 0.0703463 -1.09448e-20)
(0.998008 0.00329091 7.96701e-21)
(0.941179 -0.00615839 -1.93142e-20)
(1.03198 0.010282 0)
(1.0097 0.0351987 -8.332e-22)
(1.03052 0.0114006 0)
(1.03052 0.0110196 0)
(0.997623 0.0650138 -5.91744e-21)
(0.56378 0.116987 0)
(-0.0590493 0.0998613 2.20505e-20)
(1.02284 0.0262089 2.1773e-21)
(0.943016 -0.105341 -8.24718e-20)
(0.947815 0.155587 -7.82356e-21)
(-0.065238 0.097635 -2.88123e-20)
(1.0977 -0.00231959 0)
(1.17767 0.0552721 2.14305e-20)
(0.980526 0.0358359 -1.00637e-20)
(1.01063 -0.0886056 -3.73436e-20)
(0.957691 -0.00433852 -1.61062e-20)
(1.00268 0.000652689 2.70054e-22)
(0.999361 0.00402487 3.3626e-22)
(1.01663 0.00497829 5.88346e-21)
(0.286635 -0.0795718 0)
(1.05898 0.0430825 -1.40639e-20)
(1.01525 -2.45487e-05 0)
(1.12973 0.0198111 -1.16242e-19)
(1.10811 0.0966206 0)
(0.99907 0.0242137 0)
(1.02892 0.00144384 0)
(-0.0394935 0.0006139 1.70862e-19)
(0.977627 0.0345171 -7.92677e-21)
(1.01608 0.0199054 -1.3002e-21)
(0.136794 -0.658332 -1.02777e-19)
(1.00342 0.0149485 5.22909e-21)
(0.0550505 -0.0749417 -1.02076e-19)
(-0.261547 0.00819384 -2.71823e-20)
(1.23901 -0.0654913 9.06387e-20)
(0.9137 0.000521574 -4.07201e-20)
(1.04177 -0.00828278 0)
(-0.181215 -0.00799683 1.27091e-19)
(1.00011 0.000609544 0)
(0.998669 0.0160648 0)
(0.202685 0.664848 1.21549e-19)
(1.00003 0.000751877 -9.30254e-22)
(1.02058 0.00162737 -2.85227e-23)
(-0.270951 0.0104706 -4.7624e-20)
(1.01165 0.0108564 7.60533e-22)
(-0.197837 -0.00482696 0)
(1.08441 -0.0509638 0)
(1.06792 -0.085526 -3.48416e-21)
(-0.244134 0.0121995 1.07952e-20)
(0.963909 0.0236186 3.37667e-20)
(0.998991 0.0156697 0)
(0.762336 -0.143296 5.28124e-20)
(1.1306 -0.0768408 1.47298e-20)
(-0.0754794 -0.0175957 -2.10088e-20)
(1.13046 -0.10789 0)
(0.993911 0.0105507 -5.55973e-21)
(1.00497 0.00656506 0)
(0.974075 0.0278415 1.71763e-20)
(1.06289 -0.234219 -7.46151e-20)
(0.952691 0.20227 -3.5902e-21)
(1.00478 0.0360546 3.8496e-21)
(1 0.000505674 -9.84046e-22)
(0.997346 0.043504 -3.98442e-22)
(0.822031 0.175221 -9.31267e-20)
(0.0649767 -0.175826 5.74251e-20)
(0.990297 0.104508 0)
(0.974934 0.0264987 8.61128e-21)
(1.00002 0.000731147 0)
(1.09643 -0.000323409 0)
(1.2446 -0.108795 -5.02976e-20)
(0.155117 -0.0522781 6.187e-20)
(-0.203713 0.00631176 5.94955e-20)
(0.928527 -0.0547318 -5.50281e-21)
(0.771419 0.137938 -6.42966e-20)
(0.84499 0.183377 0)
(-0.0751133 -0.0116881 0)
(1.03853 0.00185518 0)
(1.00838 0.00897416 3.86023e-22)
(0.989676 -0.000521245 4.2831e-21)
(1.02283 0.0252661 0)
(0.819001 0.242517 0)
(0.996281 0.00727622 0)
(1.0152 -4.97367e-05 5.39542e-21)
(-0.212157 0.0126442 0)
(0.810872 0.173632 7.01129e-20)
(1.13638 0.0731273 2.38362e-20)
(0.285839 -0.0618563 0)
(0.75928 0.141008 -3.33678e-20)
(0.182035 -0.0148289 0)
(1.01192 0.0257648 3.62081e-22)
(1.03118 0.0102353 -6.04165e-21)
(0.994853 0.0217253 -2.44746e-21)
(1.00336 0.00640027 1.20248e-21)
(1.00001 0.000350787 -1.23314e-22)
(1.00002 0.000597854 -4.94852e-21)
(0.995909 0.00854012 2.07549e-21)
(-0.0445948 0.157775 1.42204e-21)
(1.01901 0.0389393 -7.80549e-22)
(1.01808 0.00212533 -1.08102e-21)
(1.31923 0.104613 0)
(1.21716 0.119783 -4.49899e-20)
(1.00808 0.00900066 -3.2432e-22)
(1.04935 -0.00114492 1.14956e-21)
(0.928337 0.254087 -2.89008e-21)
(1.03392 0.84352 -1.72683e-19)
(0.990413 0.0655473 0)
(1.02608 0.0144396 -5.25726e-21)
(1.06136 -0.100892 -3.71123e-20)
(0.945187 0.0427326 0)
(0.244209 0.0634741 0)
(1.05367 -0.025395 1.30402e-20)
(1.02281 0.017673 0)
(-0.185298 0.00298306 -1.92507e-19)
(1.2192 0.116458 0)
(1.01407 0.00810413 0)
(0.0402078 -0.021358 -1.6403e-19)
(-0.0236204 0.213969 -3.52523e-20)
(-0.00414573 0.0233531 -1.22528e-22)
(1.02219 0.0178102 0)
(1.02568 0.0139467 5.33606e-21)
(1.0289 0.0871136 3.68625e-21)
(1.17344 -0.0892324 1.31409e-20)
(0.964205 0.0163113 1.34136e-20)
(0.272205 0.0394701 0)
(1.09769 -0.237123 2.30355e-20)
(0.995635 -0.104413 7.56078e-20)
(1.32648 0.166307 9.31325e-20)
(1.01686 0.00477343 0)
(1.08184 -0.0509772 0)
(0.226413 -0.045377 7.61187e-20)
(0.055621 -0.0140869 -1.06139e-19)
(0.526929 -0.130846 -3.81738e-20)
(0.978132 0.0246639 0)
(0.982791 0.0993394 0)
(1.00702 0.101464 3.90645e-22)
(-0.0450846 -0.012528 2.60433e-21)
(-0.215401 0.0114563 0)
(1.24762 -0.0978278 2.5779e-20)
(0.986336 0.0353567 5.53618e-21)
(0.992415 0.014118 -1.22135e-21)
(0.998176 0.00187261 1.97973e-21)
(0.948223 0.206731 -5.64415e-21)
(0.996139 0.00812895 -1.97782e-21)
(0.83146 -0.153458 -8.15261e-20)
(1.00543 0.104173 -2.34317e-23)
(0.342684 -0.0912414 -2.07495e-20)
(0.985714 0.0146254 0)
(0.997728 0.0421863 0)
(1.00588 0.000554445 -2.20887e-22)
(0.863961 0.0537158 6.46627e-20)
(1.02871 0.129398 0)
(1.2399 -0.113446 -4.97572e-20)
(1.00235 0.0142196 0)
(1.16894 -0.0634727 -2.72466e-20)
(0.976172 0.856758 0)
(1.07088 -0.0258934 3.29322e-20)
(1.00007 0.0277879 2.17592e-22)
(0.941124 0.0368352 1.91128e-20)
(1.064 -0.0315797 2.67315e-20)
(1.00003 0.000757657 -2.60267e-21)
(1.10305 0.0439275 -4.6995e-20)
(1.10873 -0.0163459 -3.2021e-20)
(1.07119 -0.0243258 -2.24681e-20)
(1.21477 0.15828 -9.98936e-20)
(1.01279 0.0528099 8.28436e-23)
(1.01398 0.00769082 2.48103e-21)
(0.990328 -0.000617146 -1.13244e-20)
(0.999971 0.000245359 2.29979e-21)
(1.11652 0.0913614 5.42552e-22)
(1.05901 -0.00204399 2.56858e-20)
(1.14682 -0.0311828 2.7198e-20)
(1.01165 0.0249463 -6.08727e-22)
(1.04244 -0.00457867 -8.03329e-21)
(-0.00810297 0.00195618 0)
(1.01786 0.0014522 0)
(0.849023 -0.0276751 -2.71644e-20)
(0.95987 0.0171985 -1.08888e-21)
(1.19251 0.221977 0)
(0.929466 0.0154979 3.32713e-20)
(0.266878 -0.0760538 -3.59723e-21)
(1.04567 0.0241013 -8.16749e-21)
(-0.137355 0.00307727 1.7758e-19)
(0.928033 0.0573071 0)
(0.936054 0.0272561 -3.74768e-22)
(0.986879 -0.256284 1.97445e-20)
(-0.0246204 -0.000610362 1.31843e-20)
(1.05932 0.0723026 -1.65224e-20)
(1.06874 -0.0268499 6.16272e-21)
(1.05759 0.0416342 -1.39943e-20)
(1.02232 0.0187064 0)
(0.993545 0.0138745 4.97734e-21)
(1.11055 -0.121496 -1.6142e-20)
(1.13511 0.0863573 2.42991e-20)
(0.972566 0.144794 -2.51695e-21)
(1.07365 0.266742 0)
(-0.039055 0.174568 -1.60656e-20)
(1.09014 -0.18557 -2.42479e-20)
(1.00483 0.000525526 -3.1975e-23)
(0.0338713 -0.014836 -9.85042e-20)
(1.06518 -0.0373496 5.53629e-20)
(1.04939 -0.00307114 -2.78744e-20)
(0.993049 0.0141157 -1.62553e-20)
(0.847266 -0.0213742 0)
(0.198842 -0.0504305 7.24229e-20)
(1.08824 0.0811982 4.14843e-20)
(1.0001 0.00208948 0)
(0.701046 0.0347457 -3.60475e-20)
(1.20848 0.158836 8.80743e-20)
(1.13423 0.135525 0)
(0.873335 0.0484537 0)
(0.626755 0.791388 4.96213e-21)
(1.07081 0.000774417 0)
(1.18353 -0.0294459 5.38233e-20)
(0.0196443 -0.0107171 0)
(1.25574 -0.131045 5.93165e-20)
(1.33818 0.103629 0)
(0.83264 0.212892 -4.63593e-21)
(1.14876 0.305727 0)
(1.08157 0.00987984 -2.08083e-20)
(1.00167 0.000344125 1.87182e-22)
(1.05007 -0.00366819 3.76768e-20)
(0.994314 0.0232431 -9.79602e-21)
(0.40748 0.0182016 -1.31807e-19)
(0.472427 -0.249264 0)
(0.194878 -0.0286622 0)
(0.583808 0.114513 0)
(-0.160114 -0.00978837 0)
(-0.0166011 0.105734 -2.18425e-20)
(0.713552 0.026259 -4.31499e-20)
(0.986824 0.0717601 -2.14933e-21)
(0.118864 -0.0199492 3.32203e-20)
(0.723045 0.0473845 0)
(1.02233 0.00105809 -3.24082e-21)
(0.547382 0.082168 -8.02989e-20)
(0.0352517 0.240084 -1.64105e-20)
(1.08637 0.00269431 -2.35601e-20)
(0.994309 0.1064 0)
(1.01597 0.00374704 -1.80382e-21)
(1.06985 0.00179759 4.6345e-21)
(1.0677 -0.00787188 -9.47321e-21)
(1.06237 -0.0314437 -1.18861e-20)
(1.18388 0.0113262 -4.35015e-20)
(1.00063 0.0217015 2.74427e-23)
(-0.112722 0.00193829 1.14933e-19)
(0.99537 0.0661066 0)
(0.96968 0.077616 7.46808e-21)
(-0.0319272 -0.0142286 0)
(1.00974 0.0237593 -3.21809e-22)
(1.02659 0.134531 -5.38365e-21)
(0.586067 -0.145709 0)
(0.998768 0.0149071 -1.57732e-21)
(1.0425 0.0419091 4.18757e-21)
(0.00941829 -0.0116673 -7.96715e-20)
(1.00971 0.00281757 -1.85165e-21)
(1.16711 -0.0659954 -1.25798e-22)
(1.01817 0.00139853 -6.91134e-23)
(-0.0262398 0.150083 -1.10143e-20)
(1.06866 -0.0282481 0)
(1.09436 -0.0397697 0)
(0.967031 0.147279 2.47622e-21)
(1.05387 0.0675348 1.52774e-20)
(1.17274 -0.0853756 0)
(0.920466 -0.00204366 -3.09936e-21)
(0.347663 0.00626103 0)
(1.10115 -0.0922192 0)
(1.03606 -0.00183528 9.45392e-21)
(-0.184942 -0.00118831 -6.037e-20)
(1.09397 -0.0420485 0)
(0.556739 0.800803 2.95716e-21)
(-0.286565 0.00545949 -8.3006e-20)
(1.29818 0.106487 0)
(1.23617 -0.10341 3.67452e-20)
(0.997788 0.0220541 9.18165e-21)
(1.01748 0.00566615 2.11069e-21)
(-0.0226909 0.217091 8.65386e-21)
(0.938973 0.0385297 3.35738e-21)
(1.10562 0.0428682 5.26608e-20)
(1.00006 0.00160715 0)
(1.08303 0.0089073 3.50327e-20)
(0.968275 -0.0512888 -1.13553e-20)
(0.520247 -0.060018 -2.62301e-20)
(1.11579 0.0949939 4.81532e-21)
(-0.175587 -0.00110872 -1.98541e-19)
(0.819396 0.229231 -2.80637e-20)
(1.01516 0.0674981 2.01649e-21)
(1.01621 0.00398684 -3.89561e-21)
(1.00011 0.00191637 0)
(1.13305 0.0199687 7.51779e-20)
(1.09098 0.252102 0)
(1.02676 0.00787326 -2.72918e-21)
(1.18241 0.0941602 0)
(0.997916 0.118064 0)
(1.10327 0.138433 1.84898e-20)
(1.01404 8.70084e-05 2.61319e-21)
(0.00610369 -0.0203512 6.69719e-20)
(-0.0731784 -0.000484707 -2.17086e-19)
(0.99283 0.0237926 1.26927e-22)
(1.02211 0.00155043 3.91126e-22)
(1.12576 -0.082103 4.44651e-20)
(1.00006 0.00145141 0)
(1.01451 0.00832878 0)
(-0.0234688 0.087631 -9.50465e-21)
(0.548529 0.0988616 0)
(0.968336 0.025383 5.00604e-21)
(0.993998 0.0145399 1.24195e-20)
(1.08547 -0.155071 3.13295e-20)
(1.13158 0.0792852 1.23122e-20)
(1.0585 -0.0254799 9.8778e-21)
(0.710061 -0.0635311 0)
(1.01021 0.0342855 0)
(0.241774 -0.0530154 -4.72182e-20)
(1.1276 -0.0294722 2.3889e-20)
(0.983545 0.032442 0)
(0.433558 0.160533 0)
(0.0109901 -0.0110828 0)
(1.00365 0.00797913 7.71768e-22)
(0.581671 -0.0640228 2.6263e-20)
(1.015 0.00489467 4.07349e-23)
(0.999049 0.0146016 0)
(0.964167 0.0147118 3.15108e-21)
(0.826818 -0.000525304 0)
(-0.0579768 0.00502782 1.34147e-19)
(1.11123 0.0264009 3.48863e-22)
(0.0349882 -0.0147895 4.91631e-20)
(1.01699 0.138724 3.94336e-21)
(0.477071 -0.100714 2.61667e-20)
(1.35738 0.16927 0)
(1.08242 0.0125349 -4.65901e-22)
(-0.173898 -0.00861655 1.65212e-20)
(0.985568 0.0228929 -1.40927e-20)
(0.559273 0.0223766 -1.48344e-19)
(1.05002 -0.00183807 0)
(0.331603 -0.0184731 0)
(0.114979 -0.0289389 -4.99237e-20)
(0.997134 0.039273 0)
(0.128606 0.572642 6.35955e-21)
(1.02819 0.0816466 -8.60581e-22)
(0.924481 0.0588761 -3.07813e-21)
(0.930526 0.0613821 -9.73814e-20)
(0.656899 0.0932155 5.08837e-20)
(-0.159443 -0.00958915 -1.66725e-19)
(1.00978 0.00957111 -8.91544e-22)
(0.278212 -0.0769353 4.89001e-20)
(0.988766 0.0131229 3.56097e-21)
(0.397721 -0.0214812 -1.66908e-20)
(1.04065 0.00291878 1.11531e-20)
(1.00138 0.105388 0)
(1.06488 -0.0297141 0)
(1.01169 0.0131256 -1.48865e-21)
(1.01381 0.000640751 0)
(1.11268 -0.0498898 -3.85304e-20)
(1.07298 -0.111231 7.6884e-20)
(1.14426 0.00477998 5.27257e-21)
(1.00475 0.00617624 -2.68485e-22)
(0.143375 0.161902 -1.17095e-19)
(1.08089 0.0137319 3.13739e-21)
(1.01119 0.0130538 6.41272e-22)
(0.998013 0.00195934 -8.50589e-21)
(0.94304 0.0976837 1.67528e-20)
(1.18934 -0.0691682 0)
(0.798484 0.0457581 1.7036e-19)
(1.10777 0.0264471 1.38491e-20)
(1.00907 0.000454548 -1.60621e-21)
(1.03603 0.0944694 1.40854e-20)
(0.266252 -0.0739163 -5.12194e-20)
(0.998407 0.103667 0)
(0.999544 0.0212179 0)
(1.01195 0.0134382 2.72502e-21)
(1.0382 0.0968082 -1.34386e-20)
(1.09565 0.0202558 -1.91064e-20)
(-0.13712 -0.00181346 -5.49141e-20)
(1.00951 0.0229505 1.69078e-22)
(1.17266 0.454805 0)
(0.900968 0.216753 0)
(1.13305 -0.0341743 0)
(-0.0130135 0.0230804 -1.3265e-19)
(0.0547318 0.187867 5.08216e-20)
(1.01588 0.00286425 1.66729e-21)
(1.07019 -0.0790402 1.37853e-20)
(1.00429 0.0229874 -1.83098e-21)
(1.02049 0.0429961 0)
(1.08131 -0.00217412 0)
(0.0402011 0.21881 7.34806e-20)
(1.0078 0.00550879 3.16924e-22)
(1.02177 0.0188445 3.46627e-21)
(1.01236 0.00045129 9.68432e-22)
(0.673432 0.0282883 9.49673e-22)
(0.960085 0.0480077 0)
(1.0366 -0.00217786 -1.21999e-20)
(1.04866 0.125792 0)
(1.08453 0.0809975 -2.03988e-20)
(0.247237 -0.0445848 0)
(-0.256657 -0.00255778 6.97917e-20)
(1.00371 0.0111797 -1.35351e-21)
(0.987891 0.00651809 -8.40408e-21)
(0.20514 -0.0397968 0)
(0.984931 0.0330511 0)
(-0.00504502 -0.0193215 -9.96232e-20)
(0.12987 -0.0367693 -1.76124e-20)
(-0.0579257 -0.00566776 4.65335e-20)
(0.66591 0.35432 0)
(0.826792 0.447718 2.10487e-20)
(1.0657 -0.205648 8.92124e-20)
(1.06683 -0.0298599 -1.66224e-21)
(0.999257 0.00281052 0)
(1.01204 0.0112386 0)
(1.00149 0.0336206 0)
(0.970754 0.0236805 -2.08488e-20)
(0.999715 0.00487556 0)
(0.969184 0.0234661 2.07315e-20)
(0.912994 0.0104863 -5.66129e-20)
(-0.00777053 0.219717 -2.49744e-20)
(1.03688 0.0291652 3.97731e-22)
(0.665913 0.184946 6.75519e-21)
(1.00947 0.00349894 6.30457e-22)
(1.01698 0.0669185 -6.50139e-22)
(1.10545 0.101237 -3.65973e-20)
(1.00033 0.00548435 0)
(0.968178 0.0798363 -1.73224e-20)
(1.04345 0.0429424 5.15889e-21)
(0.354265 0.0240151 3.32183e-19)
(0.0954721 -0.109618 0)
(1.16224 0.0888454 -4.20865e-20)
(-0.131558 -0.0118299 5.36005e-20)
(0.837853 0.191377 2.01722e-20)
(0.0972159 0.151271 2.94155e-20)
(1.09514 0.263828 1.28063e-20)
(0.643411 -0.162336 -5.35042e-20)
(0.0347334 -0.0192629 0)
(1.13012 -0.0273873 -7.65441e-20)
(0.924483 0.787426 0)
(1.09389 -0.189968 -3.28747e-21)
(-0.286964 0.0044248 -9.49967e-21)
(1.0337 0.00324227 1.85117e-21)
(0.993572 0.0109796 -6.04094e-21)
(1.00335 0.00593266 5.80958e-22)
(1.06897 -0.00702442 0)
(0.813156 -0.23635 -4.24733e-20)
(1.01286 0.0100201 0)
(0.99995 0.000468948 -2.59901e-21)
(1.18175 0.0208207 3.95796e-20)
(1.00726 0.00308036 -3.11827e-22)
(1.0146 0.198017 0)
(1.01249 0.185778 0)
(1.00025 0.000745537 1.29501e-21)
(1.09243 -0.214958 0)
(1.03587 -0.000600247 4.62988e-21)
(0.987313 0.00622616 0)
(1.08872 -0.159212 -1.83583e-20)
(1.0157 0.00717936 1.67081e-21)
(1.23357 0.0776561 2.6675e-22)
(0.442964 -0.252758 7.51617e-20)
(1.00032 0.0372876 2.33436e-22)
(1.04567 -0.00642731 1.68744e-22)
(1.01088 0.012694 -1.24086e-21)
(0.939431 0.271981 -1.18694e-21)
(1.00812 0.00602721 -5.9491e-22)
(1.0474 0.0502606 -1.27733e-20)
(1.32182 0.183474 0)
(0.9885 0.000693413 1.69046e-20)
(0.0623443 -0.0148466 4.80456e-20)
(1.03676 0.0250856 -4.78287e-21)
(0.0885162 -0.0135716 5.23907e-20)
(1.05601 -0.0116418 0)
(1.08383 -0.131409 1.43864e-20)
(0.999004 0.0127708 0)
(1.0696 -0.0980603 -1.92791e-20)
(1.10104 0.100648 2.79515e-20)
(0.999327 0.00266233 -3.03453e-21)
(1.00113 0.0381485 2.32847e-21)
(0.088531 -0.0138796 -1.71266e-20)
(0.992936 0.015275 1.42415e-21)
(-0.295332 0.00412089 0)
(-0.286579 0.00419222 0)
(0.981732 0.050372 -8.08308e-21)
(1.00123 0.000296693 -1.07698e-21)
(1.0005 0.00563366 0)
(1.01897 0.00349647 -4.16727e-21)
(-0.026549 0.0842121 1.0439e-21)
(0.994603 0.0142769 -8.45769e-21)
(0.125246 -0.0158194 0)
(-0.0126889 0.239101 -3.03734e-20)
(1.10717 0.13041 -6.32646e-21)
(-0.010963 0.0386721 -9.92642e-21)
(1.0095 0.00058897 -1.13533e-21)
(1.00326 0.0204329 0)
(-0.0115698 -0.0142382 0)
(0.00093574 -0.0156907 1.71049e-22)
(0.922552 -0.00431184 -2.27982e-20)
(1.00028 0.0091444 -2.51824e-21)
(0.995544 0.0220974 5.65904e-21)
(1.01249 0.0106828 0)
(1.04654 -0.0094105 -4.6755e-21)
(0.86428 0.177188 0)
(0.351956 0.390084 0)
(1.04921 0.0681508 0)
(0.229203 0.0729279 -5.03293e-20)
(0.117729 0.168736 -1.27441e-19)
(1.09184 -0.254696 -1.94075e-20)
(0.856781 0.0672488 -2.69402e-20)
(1.03326 0.0158444 0)
(-0.205743 -0.000876721 2.18331e-21)
(-0.0698244 -0.0246685 -1.46649e-20)
(1.05122 0.124065 4.05824e-21)
(0.999222 0.012464 -1.46213e-21)
(0.977647 0.0223145 1.2899e-20)
(0.0873705 -0.0186997 -6.80151e-20)
(0.996036 0.00765638 0)
(-0.0263093 0.141644 3.00513e-20)
(0.833029 0.245365 -2.39617e-20)
(1.00007 0.000762756 -1.9162e-21)
(0.946968 0.0992163 8.57787e-21)
(1.01515 7.88642e-05 3.20615e-21)
(1.10591 0.0251962 -2.83614e-22)
(1.06796 0.0660859 0)
(1.00706 0.0029231 0)
(1.01732 0.00159356 -1.99041e-21)
(1.04553 -0.0090378 8.32953e-21)
(-0.130296 -0.00504603 -1.26276e-20)
(1.00021 0.00119274 -2.7436e-21)
(1.0576 -0.0803769 0)
(-0.040356 -0.0152604 0)
(0.978306 0.020855 0)
(1.00299 0.0155997 -2.79248e-21)
(0.827758 0.154987 1.82603e-21)
(0.125658 0.131709 0)
(1.09645 0.00412452 0)
(-0.0210951 -0.00958165 -6.03203e-20)
(0.958392 -0.00242869 2.95107e-20)
(1.01897 0.0032581 2.28036e-21)
(0.938973 0.00133415 -2.54153e-20)
(0.0961768 -0.0121871 -2.08045e-20)
(0.410768 0.175267 7.81185e-20)
(0.180016 0.111491 0)
(1.00888 0.000421681 0)
(0.867366 0.046816 -2.41555e-20)
(1.0029 0.0322066 -1.58985e-21)
(-0.0485111 -0.00866239 0)
(1.02311 0.00775245 1.09909e-20)
(1.10224 -0.214142 0)
(0.856844 0.186528 -2.95045e-20)
(-0.0337038 0.0882353 0)
(1.00041 0.00155526 -1.68641e-21)
(1.00462 0.00199905 1.43486e-22)
(0.802922 0.454036 -2.52887e-20)
(0.997497 0.0208446 0)
(-0.149687 -0.00352009 0)
(1.03798 0.00250881 -2.72344e-21)
(0.184409 0.524848 1.09476e-19)
(1.00005 0.00065491 -3.6229e-21)
(1.01204 0.00985521 0)
(0.932725 0.024258 -4.13903e-20)
(1.15094 0.447008 0)
(-0.20264 0.0148365 -1.38203e-19)
(1.02987 0.0927487 2.67286e-22)
(1.04674 0.0182948 0)
(0.962729 0.0223653 0)
(1.03638 -0.00102895 0)
(1.02691 0.00741708 2.82798e-21)
(0.999978 0.000356971 5.54427e-21)
(1.20206 0.0109347 0)
(1.00461 0.0463307 0)
(0.510557 -0.118094 1.56025e-22)
(1.01092 0.0718318 -6.44369e-22)
(-0.0394074 -0.0166631 -4.21565e-20)
(1.03513 0.00306825 0)
(1.01883 0.00420174 0)
(1.30233 0.152631 -9.71877e-20)
(0.00177468 -0.0186251 4.82342e-20)
(0.650315 -0.065658 -2.64993e-20)
(1.01618 0.0490404 -7.21585e-23)
(0.385421 -0.0401094 -1.99008e-20)
(1.03571 0.00254767 0)
(0.00654222 0.25069 -1.26347e-21)
(0.963083 0.0258649 -6.86003e-21)
(1.23284 0.0327252 1.01925e-19)
(1.01595 0.018084 0)
(0.0339776 0.0264907 0)
(1.00491 0.0197894 8.03356e-22)