/*--------------------------------*- C++ -*----------------------------------*\
| =========                 |                                                 |
| \\      /  F ield         | OpenFOAM: The Open Source CFD Toolbox           |
|  \\    /   O peration     | Version:  v2012                                 |
|   \\  /    A nd           | Website:  www.openfoam.com                      |
|    \\/     M anipulation  |                                                 |
\*---------------------------------------------------------------------------*/
FoamFile
{
    version     2.0;
    format      ascii;
    class       surfaceVectorField;
    location    "800";
    object      ddtCorrDdt0(Uf);
}
// * * * * * * * * * * * * * * * * * * * * * * * * * * * * * * * * * * * * * //

dimensions      [0 1 -2 0 0 0 0];


internalField   nonuniform List<vector> 
27284
(
(0.0515599 0.0945387 -6.81469e-19)
(0.0454111 0.0933336 1.17919e-18)
(0.0469754 0.0993397 6.13172e-19)
(9.11064e-05 -6.60641e-06 3.91715e-19)
(8.94675e-05 -8.69985e-06 -1.43741e-20)
(9.01898e-05 7.75453e-06 -1.53199e-19)
(0.0811982 -0.0556423 2.40201e-18)
(0.0841189 -0.0500678 1.62813e-18)
(0.0779777 -0.0498004 1.13554e-18)
(0.000227495 -6.25582e-07 1.23426e-20)
(0.000223554 -3.34631e-06 4.28322e-19)
(0.000225611 -2.27366e-06 8.56844e-20)
(-0.0107428 0.0145339 1.18661e-18)
(-0.0133238 0.0139611 4.97617e-19)
(-0.0112028 0.0114906 -4.55638e-19)
(-0.0703102 -0.104455 1.2505e-18)
(-0.0759333 -0.0798056 -6.47092e-20)
(-0.0730339 -0.104862 -1.82422e-18)
(0.000616822 -0.00104643 6.23815e-19)
(0.000646025 -0.000834204 6.71025e-19)
(0.000843775 -0.000922587 -3.46026e-19)
(-0.00954922 0.0174801 5.7865e-19)
(-0.00800412 0.0145925 7.17304e-19)
(0.000107521 9.21403e-06 1.32287e-19)
(0.000103374 1.25732e-05 -2.34338e-19)
(0.000109653 1.03007e-05 -1.99775e-19)
(0.0515292 0.00340342 1.16681e-19)
(0.0465745 0.00436872 -1.33137e-19)
(0.0489439 0.0156991 -1.93926e-19)
(-0.00317282 -0.00588941 2.4095e-19)
(-0.00334247 -0.00511862 1.59568e-18)
(-0.0024957 -0.00548234 -7.90325e-19)
(-0.000788829 -0.0469743 8.80996e-18)
(-0.00138491 -0.0449121 7.27747e-18)
(0.000923061 -0.0454861 4.96608e-18)
(-6.90449e-05 -0.0493011 -2.57936e-18)
(-0.00266215 -0.0485539 -2.7257e-18)
(-0.0199242 0.148501 -1.29943e-19)
(0.000148958 0.150481 5.3132e-19)
(-0.00211226 0.126175 1.6581e-19)
(0.000124018 1.78989e-05 1.16545e-18)
(0.000124306 2.3367e-05 -5.35443e-19)
(0.000118199 2.21495e-05 3.90082e-19)
(6.01791e-05 -7.9875e-05 4.10655e-20)
(6.43293e-05 -7.44749e-05 6.1523e-19)
(6.3223e-05 -6.97923e-05 8.51633e-20)
(0.000228394 5.17672e-07 -3.5443e-20)
(0.000226657 4.97436e-06 -3.2599e-19)
(0.00271701 -0.00383274 2.63428e-19)
(0.0032695 -0.00397367 1.25375e-18)
(0.00307025 -0.00339057 8.84245e-20)
(0.0751618 0.00863436 -4.6722e-19)
(0.0743028 0.0128647 -1.36525e-18)
(0.0712102 0.0100513 -8.9275e-20)
(-0.000536925 0.00285817 3.2827e-19)
(-0.000176536 0.00286387 1.80424e-19)
(-0.0002847 0.00242402 -1.2547e-19)
(-0.0585854 0.110312 -1.1928e-18)
(-0.0478237 0.104192 1.48132e-18)
(-0.0459032 0.118778 -3.12677e-18)
(0.000262345 0.000392214 -1.51775e-19)
(0.000226874 0.000372881 1.04004e-20)
(0.000195505 0.000438643 5.56616e-20)
(7.74481e-05 -4.47137e-05 -2.30709e-19)
(7.96617e-05 -4.95926e-05 -9.58296e-19)
(8.13112e-05 -4.58526e-05 -1.78399e-20)
(-0.0662334 -0.123772 -1.02067e-18)
(-0.0688732 -0.103981 -6.63136e-19)
(7.40344e-05 -4.24553e-05 6.20093e-19)
(7.59268e-05 -3.96258e-05 7.79502e-20)
(-0.000404644 -0.00148656 -2.26212e-19)
(-0.000251002 -0.00121922 -7.48218e-19)
(-0.000114528 -0.00147308 2.82193e-20)
(0.000394235 -0.00112255 3.18925e-19)
(0.00013936 -0.00122383 -1.32364e-19)
(0.000169668 -0.000966334 -2.74874e-20)
(0.00022868 -1.51224e-06 2.92343e-19)
(0.00022824 -1.00566e-05 3.52154e-19)
(0.000229906 -1.57449e-06 -4.62928e-19)
(0.000117369 4.86331e-06 4.3141e-19)
(0.000104287 6.83555e-06 -1.01112e-19)
(-0.00255571 -0.00738581 7.94093e-21)
(-0.00292144 -0.00666439 -3.07046e-19)
(-0.00192293 -0.00684823 1.00545e-18)
(-0.00680881 -0.339342 -2.10535e-18)
(-0.018418 -0.324241 2.94613e-18)
(-0.0168923 -0.316923 -2.72385e-18)
(-0.0323742 0.00318794 -1.96023e-18)
(-0.0295823 0.0045175 -2.33977e-18)
(-0.0321046 0.00671244 -7.82616e-20)
(-5.71129e-05 -8.21824e-05 -1.11743e-19)
(-6.42379e-05 -7.52472e-05 2.49623e-21)
(-8.7397e-05 -7.82048e-05 2.38287e-19)
(7.62636e-05 8.58065e-05 -5.01707e-21)
(7.34886e-05 8.79997e-05 1.38402e-19)
(7.50816e-05 8.29191e-05 -5.78975e-20)
(4.2527e-05 2.65533e-06 -3.86484e-21)
(4.38915e-05 1.59884e-06 -3.51522e-20)
(4.05673e-05 7.02884e-07 -1.26923e-20)
(-0.00155398 0.00107041 4.05873e-19)
(-0.00132384 0.00100923 -2.55061e-19)
(-0.00144567 0.00120998 -5.75628e-19)
(0.00648456 6.89384e-05 -1.35044e-18)
(0.00649669 -0.000306101 4.53721e-19)
(0.00616379 -6.16581e-05 -4.16644e-19)
(-0.00168812 0.000925751 1.06568e-18)
(-0.00184221 0.00116533 1.43653e-18)
(-0.00210188 -0.0081641 -1.38494e-18)
(-0.00323492 -0.00798009 7.57536e-19)
(0.00034717 -0.000411368 -1.24748e-19)
(0.000334769 -0.000483149 -5.06083e-19)
(0.000412874 -0.000461459 -2.04227e-19)
(0.00018501 -2.0152e-05 -1.23506e-19)
(0.000193539 -1.95903e-05 -5.62728e-20)
(0.000205096 -1.16263e-05 -6.85888e-20)
(-0.00389394 -0.0062932 -7.09918e-19)
(7.89433e-05 8.02555e-05 -3.02296e-19)
(8.07933e-05 7.26912e-05 -1.30457e-19)
(8.03356e-05 7.18482e-05 -1.48575e-19)
(9.32306e-05 -3.0756e-06 5.32531e-19)
(9.44623e-05 6.72722e-07 -6.8914e-19)
(9.40146e-05 1.33974e-05 8.68329e-20)
(9.12404e-05 -1.79776e-05 3.75966e-19)
(-0.0282413 -0.0784323 -1.92439e-18)
(-0.0269121 -0.0755748 6.19718e-18)
(-0.0307484 -0.0752728 7.30592e-19)
(0.000186581 0.000152808 -1.55563e-19)
(0.000191337 0.000145311 4.21437e-19)
(0.000185217 0.000157998 3.7642e-19)
(0.000182113 0.000157947 -3.80403e-19)
(0.000187961 0.000147623 -9.0527e-19)
(0.0108368 -0.339475 4.48224e-18)
(-0.000420915 0.000426455 8.65177e-20)
(-0.000458004 0.000348818 -1.49825e-21)
(-0.000337283 0.000377347 -6.27658e-19)
(4.03881e-05 9.8003e-06 6.41006e-19)
(4.15293e-05 8.1932e-06 -3.52156e-19)
(3.87584e-05 7.39897e-06 2.10391e-19)
(-0.192089 0.261247 -3.63341e-19)
(-0.19604 0.306123 -2.49132e-19)
(-0.201929 0.351453 -1.3547e-19)
(-0.000548699 0.000495922 -2.82029e-19)
(-0.000374873 0.000511664 4.05394e-20)
(0.0483584 0.043053 -9.79409e-20)
(0.0508323 0.0431226 9.85165e-19)
(0.0491101 0.039774 -9.57953e-19)
(0.000289301 2.80837e-05 -2.25151e-20)
(0.000290226 1.44984e-05 3.4197e-20)
(0.000287346 3.13241e-05 -6.50759e-20)
(-0.000995003 0.00282144 -2.25817e-19)
(-0.000903492 0.00336492 -4.13906e-20)
(2.75377e-05 3.11534e-06 -7.01497e-20)
(2.83141e-05 2.2638e-06 -1.86897e-19)
(2.69937e-05 2.1507e-06 5.92254e-20)
(-0.0851533 -0.512484 1.23049e-17)
(-0.00057607 -0.00169269 9.95695e-20)
(-0.000687658 -0.00139108 7.36587e-19)
(-0.137545 -0.0877 -1.31777e-18)
(-0.144416 -0.0882104 1.43265e-17)
(-0.138698 -0.0793507 -4.14345e-18)
(7.80654e-05 8.7453e-05 -9.53662e-20)
(0.0183718 -0.0322896 -2.31805e-18)
(0.0166265 -0.0329011 1.15328e-17)
(0.0169453 -0.0305542 -2.17092e-18)
(0.0446726 0.0429402 5.39545e-20)
(0.0466134 0.0466385 2.73037e-19)
(0.00183647 0.000859186 -2.54693e-19)
(0.00171301 0.000633143 -2.92103e-19)
(0.00149513 0.000814639 -3.00026e-19)
(-0.03624 0.0230872 -1.64113e-18)
(-0.0356562 0.0273977 2.35643e-19)
(-0.0326536 0.0236113 -2.20661e-19)
(3.52388e-05 8.31913e-07 2.14138e-19)
(3.55551e-05 1.45119e-06 -2.85174e-19)
(3.55879e-05 -1.73923e-06 6.25885e-20)
(3.17052e-05 0.00263184 1.47609e-20)
(0.000229715 0.00252896 4.79961e-20)
(0.000197997 0.00284058 5.98354e-20)
(0.00648369 0.000377509 5.07591e-19)
(0.00682835 0.000128715 -1.77609e-18)
(5.56903e-05 6.97621e-05 1.69279e-20)
(5.20687e-05 5.75567e-05 -1.89113e-19)
(5.29638e-05 6.4909e-05 -2.94461e-19)
(0.0657249 0.0146356 3.44033e-19)
(0.0753752 0.01847 8.92476e-19)
(0.0687651 0.0226118 2.02551e-19)
(-8.35298e-05 7.07121e-05 1.90973e-19)
(-0.000125803 5.83614e-05 6.7026e-19)
(-0.000110388 8.04088e-05 1.25495e-18)
(0.000290118 3.85694e-05 -1.00306e-20)
(0.000294992 2.23565e-05 7.86738e-21)
(-0.0220795 0.00341075 5.69535e-19)
(-0.0240195 0.00203656 3.59815e-19)
(-0.0214631 0.00104941 4.54259e-19)
(0.00598364 -0.00395961 -1.3623e-18)
(0.00520992 -0.00404594 -2.7857e-18)
(0.00544202 -0.0033292 7.73441e-19)
(-0.0379666 -0.00592764 -1.67448e-19)
(-0.0397853 -0.00107277 -5.51925e-19)
(-0.035354 -0.00113554 -2.36765e-18)
(6.3774e-05 8.90416e-05 2.35966e-20)
(5.99284e-05 7.97274e-05 4.13807e-19)
(6.09223e-05 8.43219e-05 -2.36464e-19)
(-0.0935341 -0.511417 -9.89287e-18)
(-0.09775 -0.460451 5.33517e-18)
(6.83941e-05 9.52148e-05 -5.31023e-20)
(6.78674e-05 9.37842e-05 -2.5546e-19)
(-5.05845e-05 9.01397e-05 -8.11186e-19)
(-5.23124e-05 6.2805e-05 -9.06457e-19)
(-0.0408149 -0.011025 2.38479e-19)
(-0.035782 -0.0113361 1.72396e-18)
(-0.00018595 0.00279786 3.1331e-20)
(-0.000142229 0.00249282 8.10465e-20)
(-0.034214 -0.0399396 8.51268e-20)
(-0.0388588 -0.0406062 -7.92242e-20)
(-0.0372341 -0.0313291 -4.24518e-20)
(5.89711e-05 7.48861e-05 5.73227e-19)
(-0.00136862 0.00361427 2.28164e-19)
(-0.00113096 0.00381892 -2.22625e-19)
(-0.00146912 0.00396697 -3.92711e-19)
(0.00306768 0.0261795 -1.19873e-19)
(0.00458211 0.0271549 -4.3153e-19)
(0.00246374 0.0276999 -1.73596e-19)
(4.97805e-05 3.30505e-06 -3.21227e-21)
(5.21928e-05 4.05371e-06 -5.08967e-19)
(5.79541e-05 1.91377e-06 6.36696e-20)
(0.000152935 1.21261e-05 4.09225e-20)
(0.000169608 7.48045e-06 -5.90649e-20)
(0.000163997 6.27763e-06 -2.48893e-19)
(0.00770135 0.0166468 1.50006e-19)
(0.0078944 0.0153794 -4.88357e-19)
(0.00885978 0.0162445 -1.24047e-19)
(0.000129024 -5.45201e-06 3.31789e-19)
(0.00012941 -1.79004e-05 4.27396e-19)
(0.000125898 -5.00657e-06 -2.91304e-19)
(0.00637274 0.01692 3.66409e-20)
(0.00727443 0.0178901 -1.66867e-19)
(-0.059675 0.278195 3.63094e-18)
(-0.0486744 0.328495 9.32225e-18)
(-0.0632306 0.0753853 2.84426e-18)
(-0.0747908 0.0631944 1.42246e-18)
(-0.0603838 0.0714598 1.65801e-18)
(-0.029938 -0.0485303 3.79309e-19)
(-0.0285613 -0.0391363 7.91561e-21)
(-0.000462862 0.000274698 8.98563e-20)
(-0.000594661 0.000310802 -1.42573e-19)
(0.0832373 0.0599384 -2.8872e-20)
(0.0800652 0.0506059 -2.32171e-18)
(0.0722133 0.0598853 5.08136e-19)
(0.000399043 0.00179859 3.38295e-19)
(0.000203743 0.00208061 1.71252e-19)
(0.000632043 0.00216564 3.19488e-19)
(0.000122374 5.67524e-05 4.35537e-19)
(0.000123645 6.66635e-05 1.18549e-19)
(0.000122138 5.00312e-05 1.40915e-18)
(0.000577864 0.00154371 -1.03275e-18)
(0.00023181 0.00150202 -3.97391e-19)
(0.0386104 0.0033336 5.35712e-19)
(0.0405671 0.00479834 3.61984e-19)
(0.037927 0.00555955 -1.55588e-19)
(0.000110442 0.000313636 -2.62093e-20)
(0.000128969 0.000332247 -1.55956e-20)
(7.44638e-05 0.00035322 -2.46245e-20)
(0.00187611 0.0250096 8.39737e-19)
(0.0039853 0.0245506 3.66827e-19)
(-2.62071e-05 0.000100573 -4.35202e-19)
(-4.39069e-05 0.000103892 1.51919e-19)
(-0.000463278 0.000216757 1.18014e-18)
(-0.000372059 0.000254396 1.50208e-19)
(5.60148e-05 3.64139e-05 2.7429e-20)
(5.66957e-05 3.95735e-05 5.91915e-20)
(6.04098e-05 3.14989e-05 2.05643e-20)
(-0.000402975 0.00289751 5.74968e-20)
(-0.000647317 0.00303215 -5.33644e-20)
(-0.000581814 0.00274731 -4.30059e-21)
(5.49089e-05 -8.50912e-05 -1.76721e-19)
(5.64766e-05 -8.76444e-05 -1.53228e-19)
(-0.0407869 0.0226229 1.92888e-19)
(-0.0367338 0.0187973 2.33761e-19)
(0.0839842 0.0778865 3.98411e-19)
(0.092103 0.058456 -5.87254e-19)
(0.00845469 0.00716663 -8.87849e-19)
(0.00870174 0.00782484 4.84596e-19)
(0.00921269 0.00711236 -2.76713e-19)
(7.58187e-05 -2.29865e-05 4.89742e-19)
(7.66502e-05 -1.03505e-05 1.34358e-19)
(7.86748e-05 -7.72984e-06 1.28223e-19)
(2.87913e-05 4.87608e-06 1.29042e-19)
(2.71353e-05 2.83494e-06 -1.80177e-20)
(3.61704e-05 -1.81071e-06 1.2072e-19)
(3.52424e-05 -5.86408e-07 1.88141e-19)
(3.51525e-05 -1.0993e-06 9.57556e-20)
(-0.0128748 -0.00611603 1.90771e-19)
(-0.014256 -0.0056121 9.91789e-19)
(-0.0124881 -0.00469629 8.33443e-19)
(-0.00157734 0.00332856 3.66105e-19)
(-0.00123691 0.00325613 2.69994e-19)
(0.00270792 -0.114538 3.8928e-18)
(0.00974255 -0.10865 -7.16955e-18)
(-0.00191129 -0.111356 -4.1327e-18)
(-0.00832463 0.00129903 -2.38288e-19)
(-0.00766691 0.00170606 -4.59321e-20)
(-0.00757992 0.000947185 -3.24389e-19)
(-3.05986e-06 0.000114184 -3.20259e-19)
(-3.96839e-06 9.71343e-05 -1.09613e-20)
(-0.0443825 -0.0174586 -3.27589e-20)
(-0.0478556 -0.011334 -4.77041e-19)
(-0.000737018 0.00135871 -1.54705e-20)
(-0.000916694 0.00138354 9.25565e-20)
(-0.00079833 0.00122646 1.16942e-19)
(0.00036826 0.00235117 3.58215e-20)
(0.000526234 0.00251792 -1.02385e-19)
(0.0571501 0.014564 5.22448e-19)
(0.0614825 0.00912068 2.15015e-18)
(0.0779279 -0.0589417 -2.28278e-18)
(0.0827981 -0.0598676 -2.30063e-18)
(-0.0831697 0.196404 -1.32473e-18)
(0.00979183 0.0199021 3.69349e-19)
(0.00968316 0.0214711 -7.8698e-19)
(0.0114205 0.020688 -1.80398e-19)
(-0.0450273 -0.0273897 -1.8901e-18)
(-0.0408414 -0.0234581 -9.3465e-18)
(-0.0233639 -0.0860249 2.98421e-18)
(-0.0285224 -0.0896702 -5.49321e-18)
(-0.0221443 -0.0899217 8.08443e-18)
(0.000658658 -0.00131817 3.99829e-19)
(0.000227961 1.27931e-06 -3.87342e-20)
(0.000227692 -1.8787e-06 -1.13471e-20)
(0.0572888 0.0953955 2.59953e-18)
(0.0554121 0.0901307 -2.71536e-19)
(0.0003127 0.000135191 1.98105e-20)
(0.000303817 0.000156756 1.60798e-20)
(0.000283706 0.000157919 2.40574e-20)
(0.000120963 4.55284e-05 6.01286e-20)
(0.000122442 6.29515e-05 -4.98051e-19)
(-0.167202 0.193743 -1.03061e-18)
(-0.165185 0.168322 -8.15038e-20)
(0.000287615 0.000107805 -1.15238e-19)
(0.000283725 0.000104256 -8.50498e-20)
(0.000285611 0.000113503 1.65446e-19)
(0.0349147 -0.0138036 -7.27004e-20)
(0.0354988 -0.0157385 -5.3816e-19)
(0.0369122 -0.0136893 1.00823e-18)
(0.00100884 0.0584708 -2.94731e-18)
(0.00223519 0.0554836 -1.20538e-18)
(0.00435744 0.0587569 -1.38335e-18)
(0.000131561 -4.20067e-05 -3.01216e-20)
(0.000133028 -3.4516e-05 -1.01433e-18)
(0.000136458 -4.16563e-05 2.74922e-19)
(0.0779378 0.00697822 5.0216e-19)
(0.0746005 0.00469783 -2.88845e-19)
(0.0525503 0.0378358 -1.25303e-18)
(0.0572046 0.0325846 -1.03405e-18)
(0.0601028 0.0402264 -1.20261e-18)
(0.000200555 1.14472e-05 1.9675e-21)
(0.000200717 1.45554e-05 7.40318e-19)
(0.000201155 1.1534e-05 1.80675e-19)
(-0.0522707 0.0897088 1.75143e-18)
(-0.0672157 0.0821476 1.00099e-18)
(0.00405853 0.00177821 -1.63388e-18)
(0.00399791 0.00155571 1.53748e-19)
(0.00426233 0.00166078 -2.09971e-18)
(-0.0166932 -0.0142889 3.23567e-19)
(-0.0127223 -0.0158592 -4.31779e-19)
(-0.0176212 -0.0185173 -1.35501e-19)
(0.000151559 0.000182414 -3.77641e-19)
(0.000153591 0.000177105 2.15339e-19)
(0.000148192 0.000176845 3.29042e-19)
(-0.15112 0.496488 2.63787e-18)
(-0.178685 0.490857 3.33238e-18)
(-0.00321406 0.0581604 2.29446e-20)
(-0.000487809 0.0619936 -1.89229e-18)
(0.000212069 -1.94906e-05 -1.95991e-21)
(0.000212083 -2.46907e-05 5.12004e-20)
(0.000218128 -2.19184e-05 1.33943e-19)
(-0.161336 -0.10399 -4.46839e-18)
(-0.167387 -0.111099 -1.34384e-18)
(-0.160413 -0.112466 -7.72685e-18)
(0.000110356 6.66968e-05 7.02916e-20)
(0.000101522 5.35093e-05 -3.00169e-21)
(0.000104283 7.74739e-05 3.406e-21)
(-0.0131832 -0.00768757 -1.01066e-18)
(-0.0115753 -0.0066849 -3.66535e-20)
(0.0183041 -0.0713522 5.57201e-19)
(0.0147645 -0.0804844 1.18856e-20)
(0.00978676 -0.0799869 -2.73275e-19)
(0.000228954 -3.30787e-06 -2.84732e-19)
(0.000227246 7.35879e-06 -1.63369e-19)
(0.000538822 0.00220345 2.1695e-20)
(0.000280684 0.00220205 5.03518e-20)
(0.000917792 -0.00127125 2.91882e-19)
(0.000641278 -0.00117209 -7.34884e-23)
(0.000840944 -0.000993339 1.66521e-20)
(-0.000445464 -0.00791295 3.78596e-19)
(-0.00170469 -0.00822398 -2.1645e-19)
(-0.00119529 -0.00684604 4.82387e-19)
(8.19123e-05 7.24071e-05 4.28728e-19)
(8.25898e-05 6.24985e-05 -2.72635e-19)
(8.47652e-05 -1.49141e-05 4.49094e-19)
(8.66284e-05 -1.73691e-05 8.13561e-20)
(8.31855e-05 -1.64536e-05 3.35841e-19)
(0.000225593 7.10735e-06 -1.61726e-19)
(0.000224633 -1.41895e-07 -1.07324e-19)
(4.77326e-05 3.51705e-06 -5.51448e-19)
(4.77025e-05 5.43308e-06 5.36376e-19)
(0.000155262 0.000185364 -4.56266e-19)
(0.000150357 0.000186431 -3.64133e-19)
(8.18524e-05 -1.17958e-05 3.65859e-19)
(8.60841e-05 -1.20316e-05 -8.3429e-20)
(0.00138781 -0.00438106 1.089e-18)
(0.00185729 -0.00465062 2.14981e-19)
(0.00136596 -0.00500409 5.39206e-19)
(0.000289909 0.000100054 -2.72785e-19)
(0.000290628 0.000110386 1.09658e-19)
(7.27124e-05 -3.56979e-05 1.12824e-20)
(7.5546e-05 -3.31878e-05 2.63895e-19)
(-0.00483134 -0.0111831 -3.0954e-19)
(-0.00698207 -0.010984 6.26075e-19)
(-0.00548562 -0.00910578 -4.29903e-19)
(0.00373895 -0.00534375 -2.98252e-19)
(0.00445268 -0.00546159 3.43932e-19)
(0.00392322 -0.00615998 -3.87012e-19)
(0.0346157 -0.00428686 -9.69343e-19)
(0.0386556 -0.00838639 5.97835e-19)
(0.0332989 -0.011703 7.88421e-20)
(-0.155782 -0.0969205 1.2724e-17)
(-0.16209 -0.0949403 -8.94571e-18)
(0.0502926 0.113673 1.38603e-18)
(0.0615579 0.118116 2.08024e-18)
(0.0452891 0.118734 1.08518e-18)
(0.00803853 0.0798433 5.23494e-19)
(0.00107196 0.0603016 6.17653e-19)
(0.0112359 0.0676749 -2.50239e-18)
(0.00414476 0.00209073 -2.88978e-20)
(0.00383801 0.00194809 -3.31412e-19)
(5.6401e-05 -1.97807e-06 1.01473e-20)
(5.56754e-05 -2.72925e-06 -1.91722e-19)
(4.79079e-05 -1.1314e-06 -6.9714e-20)
(0.0326711 -0.0138936 -1.19963e-19)
(0.0339399 -0.0120134 1.63377e-18)
(5.56567e-05 -2.75006e-06 -2.95e-19)
(5.34332e-05 -2.61517e-06 1.029e-18)
(5.75756e-05 -3.72534e-07 8.75863e-19)
(0.0236436 -0.324228 -4.23499e-18)
(0.0154913 -0.317652 1.5905e-18)
(2.7284e-05 -2.44805e-06 -7.89051e-20)
(2.88216e-05 -3.05128e-06 -1.82775e-20)
(2.90257e-05 -1.25728e-06 -1.63993e-19)
(0.000209901 -1.46442e-05 2.40006e-20)
(0.000216686 -1.3833e-05 -4.66248e-20)
(3.76906e-05 -1.66744e-06 -5.21465e-20)
(3.89044e-05 -3.32724e-06 -8.719e-20)
(6.3681e-05 6.63949e-05 4.32968e-21)
(6.02729e-05 7.53773e-05 -3.41371e-21)
(6.45356e-05 6.97879e-05 4.79709e-21)
(0.00173795 -0.000600873 -2.04604e-19)
(0.00181351 -0.00065799 -6.65542e-19)
(0.0018287 -0.000568685 3.98518e-19)
(-0.00443803 0.00786132 8.96555e-19)
(-0.0037195 0.00778658 2.93172e-20)
(-0.00415968 0.00863733 3.68426e-19)
(7.03475e-05 5.83574e-06 -3.63327e-21)
(6.70494e-05 5.69396e-06 1.72465e-20)
(7.20658e-05 2.46848e-06 2.84747e-19)
(0.0308673 -0.00158652 -4.79914e-19)
(0.0344662 0.00231344 3.58622e-19)
(0.00026532 0.000288218 -2.04405e-20)
(0.0002348 0.00027847 -1.10955e-20)
(0.000280283 0.000245379 9.95727e-20)
(0.000230062 -1.43296e-05 4.86833e-19)
(0.000229323 -1.62438e-05 -3.2276e-19)
(0.000233991 -1.95975e-05 2.08268e-19)
(0.023477 -0.00764389 5.78224e-19)
(0.0203357 -0.00573006 -1.50508e-20)
(0.0200667 -0.00948594 2.25343e-19)
(-0.000439792 0.0001508 3.98674e-19)
(-0.000549698 0.000157333 2.18848e-19)
(8.71003e-05 -1.3025e-06 -2.68168e-19)
(8.95754e-05 -1.71476e-07 2.89496e-19)
(9.09749e-05 -3.85258e-06 -7.18661e-19)
(0.00509112 0.0170581 -6.21433e-19)
(0.00447554 0.0183348 -4.83865e-19)
(0.00365977 0.0171724 -3.54352e-19)
(0.000212816 -0.000127067 1.69552e-20)
(0.000204258 -0.000126184 -1.30768e-20)
(0.000211663 -0.000118199 -1.75458e-19)
(0.000122262 -0.00151983 -1.40917e-19)
(-0.000111107 -0.00128187 -3.45161e-19)
(-0.0257313 -0.081758 -4.63422e-18)
(-0.0213017 -0.0824394 -7.2943e-18)
(0.037327 0.00171487 3.62473e-19)
(0.039869 0.00134365 4.84966e-19)
(8.20081e-05 -4.18781e-05 -6.59237e-19)
(8.52601e-05 -3.75363e-05 -2.00002e-19)
(8.20134e-05 -5.09328e-05 -3.11497e-19)
(4.91744e-05 -1.41776e-06 -1.93957e-19)
(5.89579e-05 1.8834e-05 -1.77395e-20)
(5.28176e-05 1.17574e-05 1.92537e-19)
(0.000142242 -4.91809e-05 8.76055e-20)
(0.000139124 -4.03801e-05 -1.04005e-19)
(0.000132764 -4.73563e-05 -1.14408e-19)
(0.00934716 -0.121767 3.67708e-18)
(0.023128 -0.110628 -6.20972e-18)
(0.0218997 -0.121215 -4.41242e-18)
(4.19418e-05 1.28862e-05 6.07443e-20)
(3.89959e-05 1.02211e-05 -9.59718e-20)
(0.0660748 0.109273 -7.08111e-19)
(0.0594509 0.109396 -1.37618e-18)
(0.0662396 0.109337 -2.41106e-18)
(8.72433e-05 -2.34128e-05 4.13549e-19)
(8.67555e-05 -1.13497e-05 3.17507e-19)
(-0.0506747 0.165829 3.29046e-18)
(-0.0416001 0.139276 -3.2345e-18)
(-0.000396019 0.000100871 1.21424e-19)
(-0.000343972 0.000162358 -3.95413e-19)
(0.00368063 -0.000603937 5.92154e-19)
(0.00367099 -0.000993285 -3.88697e-19)
(0.00332122 -0.000817655 -2.08046e-20)
(-0.00152814 -0.00899634 -1.69176e-18)
(-0.000975881 -0.00830734 -8.77113e-19)
(8.4936e-05 6.14554e-06 2.41518e-19)
(8.79143e-05 7.34756e-06 7.36187e-20)
(8.57835e-05 9.54755e-06 1.55238e-19)
(0.0480377 0.106219 2.72476e-18)
(0.0546272 0.107358 -2.31954e-18)
(0.000373149 2.62175e-05 -9.95946e-20)
(0.000385576 -7.50142e-07 1.41676e-20)
(0.00039341 9.52918e-06 -9.36765e-20)
(0.0107757 0.0869749 -3.08836e-19)
(0.00629982 0.0855302 3.39998e-20)
(0.000230554 -1.97084e-06 8.71165e-20)
(0.000230492 -4.14245e-06 2.88009e-19)
(-3.6368e-05 -8.37125e-05 -1.28917e-19)
(-1.47037e-05 -7.51905e-05 -5.17045e-20)
(-2.21345e-05 -7.74345e-05 -1.57529e-19)
(-5.77987e-05 -0.00129471 -5.27573e-20)
(-0.000214506 -0.0011132 -1.95741e-19)
(3.6512e-05 -0.00106576 4.08021e-19)
(0.000183534 0.000127265 -1.25553e-19)
(0.00020411 0.000131394 1.5424e-19)
(0.000195527 0.000118059 3.95472e-19)
(0.00323106 -0.0620263 8.09484e-19)
(-0.0126474 -0.0797508 6.7154e-19)
(-0.0138087 -0.0642587 3.90829e-19)
(0.00244333 -0.00127925 1.9055e-20)
(0.00294879 -0.0010871 9.9178e-20)
(0.00275847 -0.00171778 -9.46607e-20)
(0.00196724 -0.00133823 -4.24546e-20)
(0.00209962 -0.000917101 2.42533e-20)
(0.000116583 4.85548e-05 1.08721e-20)
(0.000121529 7.87251e-05 -4.44949e-21)
(0.0388144 -0.301591 -6.80852e-18)
(0.0287802 -0.325371 -1.46451e-17)
(-0.00522242 0.00783193 9.68745e-19)
(-0.00463565 0.00706372 2.35039e-19)
(0.0044519 -0.000898959 -7.43626e-19)
(0.00426953 -0.000802034 2.17494e-19)
(0.0044575 -0.000690269 -5.67203e-20)
(0.000355403 5.32583e-05 -4.24486e-20)
(0.00033746 7.86907e-05 9.26265e-20)
(0.000359057 6.55748e-05 -1.17148e-19)
(0.000170046 0.000180301 5.64412e-20)
(0.0001628 0.000188517 -3.06182e-19)
(0.000167505 0.00018468 1.50947e-19)
(0.0082431 0.0064248 -2.32377e-19)
(0.00770702 0.0070665 -1.09622e-19)
(2.46755e-05 -9.04317e-05 -1.88393e-19)
(2.60525e-05 -9.53838e-05 -3.77208e-19)
(2.96225e-05 -9.15958e-05 1.4429e-20)
(0.00897714 0.0136181 -1.28693e-19)
(0.00804465 0.0141611 -1.35008e-19)
(0.0080539 0.0129545 2.81365e-19)
(-0.00619389 -0.00408253 -4.52953e-19)
(-0.00616114 -0.00541873 3.3156e-19)
(-0.0048248 -0.00459809 7.83385e-20)
(0.0211514 0.00517347 6.67044e-19)
(0.0245974 0.00582594 6.06902e-19)
(0.0211927 0.00822051 2.46994e-19)
(0.00412911 0.00117272 1.31358e-18)
(0.00374281 0.000620336 -4.49384e-19)
(0.00458189 0.000637668 3.73446e-20)
(2.39921e-05 -8.21061e-05 2.01654e-19)
(2.60351e-05 -7.04259e-05 2.07084e-20)
(2.88664e-05 -7.54654e-05 2.10553e-19)
(0.0486459 0.041382 1.21144e-18)
(0.0471451 0.0349993 2.38086e-19)
(0.0330399 0.0826621 -2.33892e-18)
(0.0334074 0.0882864 -4.11976e-18)
(0.0278095 0.08643 -2.25722e-18)
(-0.0154194 0.00709772 -4.64064e-19)
(-0.0170009 0.00642154 -3.36577e-19)
(-0.0154041 0.00538784 -7.81374e-19)
(0.00127023 0.000108821 3.30501e-19)
(0.00109195 0.0001065 7.63107e-21)
(0.00117885 0.000249951 2.59897e-19)
(-0.000239141 0.00309757 4.75091e-20)
(0.0372635 -0.0162331 -1.16918e-19)
(0.0372088 -0.00892478 6.30087e-19)
(0.0417092 -0.0117448 6.16973e-20)
(1.79658e-05 -8.73851e-05 -2.55289e-19)
(-0.00257961 -0.0113892 1.20556e-19)
(-0.00345567 -0.0136016 -8.18368e-20)
(0.0181864 0.0048781 -7.1335e-19)
(0.0206957 0.00237067 5.81716e-19)
(0.00105288 -0.000399951 2.90343e-20)
(0.00101302 -0.000430778 3.27831e-19)
(0.000996362 -0.000390723 -9.90559e-20)
(-0.0305539 -0.082114 2.09305e-18)
(0.00313759 -0.00219753 1.35825e-18)
(0.00312616 -0.00236779 -1.59205e-18)
(0.00298146 -0.00223037 1.08791e-18)
(0.00158508 -0.00136043 -3.88239e-19)
(0.00173417 -0.00178874 3.45805e-19)
(7.975e-05 -2.21683e-05 -2.48329e-19)
(8.04602e-05 -3.16767e-05 -1.90049e-19)
(8.41009e-05 -1.44767e-05 2.07254e-19)
(0.00166521 -0.00055253 -8.51246e-19)
(0.00165049 -0.000627864 1.36214e-19)
(0.00120311 -0.00132152 -4.64479e-20)
(0.00139223 -0.00103291 -2.19872e-19)
(-0.0140949 0.0076756 -3.06432e-19)
(-0.0126581 0.00802148 -8.17271e-19)
(-0.0127479 0.0065494 -1.69409e-19)
(0.000354087 4.2658e-05 -1.78373e-20)
(0.000288966 8.34787e-07 -1.54879e-20)
(0.000288225 -1.35412e-05 -2.24988e-19)
(0.000285424 4.95765e-06 -1.29282e-19)
(0.000204227 0.000110475 2.93681e-19)
(0.00019914 0.000123541 -2.00628e-19)
(0.00020044 0.000119119 -2.10353e-19)
(0.0104263 -0.0478453 -7.22333e-19)
(0.0158827 -0.0526639 -1.48854e-18)
(-0.0289929 -0.0973792 -2.79545e-18)
(-0.0438377 -0.109248 3.92413e-19)
(-0.0420545 -0.0908543 -1.27497e-19)
(-0.000122831 -2.04317e-05 -1.45993e-19)
(-0.000167775 -6.13998e-05 7.54843e-20)
(-9.54702e-05 -6.8831e-05 -6.90231e-19)
(0.00196133 0.00117367 -4.28051e-20)
(0.00223794 0.000930172 6.08853e-20)
(-0.0127861 -0.0933237 9.18924e-19)
(0.0454518 -0.0570703 -4.74763e-19)
(0.0449775 -0.0607964 2.92681e-18)
(0.0419685 -0.0582986 -5.70394e-19)
(-0.00732522 -0.00334687 1.17479e-19)
(-0.00581609 -0.00283125 -7.07178e-20)
(6.22995e-05 6.37025e-05 -8.95105e-21)
(6.64886e-05 5.57328e-05 1.76955e-20)
(-0.00493114 -0.0108868 -4.90705e-20)
(-0.0034137 -0.0131388 -5.29199e-19)
(-0.00280312 -0.010411 -1.39165e-18)
(0.00331432 -0.00218116 1.0063e-18)
(0.00316369 -0.00204584 2.52965e-18)
(0.000234677 -2.84774e-06 1.49356e-19)
(0.000236203 -4.77633e-06 1.5136e-19)
(0.000232048 2.6924e-06 4.91895e-20)
(0.00354893 0.00167031 -2.83303e-19)
(0.00438046 0.00187339 5.85682e-19)
(0.000121126 -3.1961e-05 -1.35769e-19)
(0.000120279 -2.33343e-05 3.99388e-20)
(0.000120467 -2.52299e-05 6.9149e-19)
(0.0199118 -0.0617005 -6.95229e-19)
(0.0252376 -0.0580484 1.44414e-19)
(-0.0109426 0.0180162 9.76855e-19)
(-0.0138149 0.0182816 -1.7434e-19)
(-0.0107258 0.0215711 1.61906e-19)
(0.0352881 0.00124782 -2.68391e-20)
(0.0336941 0.000420632 2.08608e-18)
(0.0342281 0.00253623 -1.87484e-18)
(0.00545366 -0.0047205 5.93483e-19)
(0.00569489 -0.00484883 -3.75003e-20)
(0.00538332 -0.00500031 2.93283e-18)
(-0.00214536 -0.00977262 3.1414e-19)
(-0.000864002 -0.00983939 -5.14333e-19)
(0.0073322 -0.0186607 -3.39184e-20)
(0.00461706 -0.0208809 -5.61554e-19)
(0.0047902 -0.0172961 6.02947e-19)
(-0.0146735 -0.00752002 -6.15165e-19)
(-0.0156066 -0.0104715 -3.45664e-19)
(-0.0118693 -0.00902378 -4.90848e-19)
(0.042172 0.00621487 1.42304e-18)
(0.041708 0.00862357 2.31022e-19)
(0.0444896 0.00776131 -2.84056e-20)
(0.000122505 -3.87503e-05 -2.42778e-20)
(0.000122049 -3.7899e-05 -3.13191e-19)
(0.00029284 -4.35241e-06 1.10527e-19)
(-0.000711626 -0.00141748 -9.52729e-20)
(-0.000484044 -0.00170695 2.70909e-19)
(-0.000400933 -0.00136132 3.3359e-19)
(7.98564e-05 1.59773e-05 -2.81886e-19)
(7.7038e-05 -2.55298e-07 -9.8252e-19)
(7.72636e-05 1.16715e-05 -3.26812e-19)
(0.00361044 -0.000243275 2.25182e-19)
(0.00403113 -0.000367496 -3.97054e-19)
(0.00466734 -0.000982518 -7.03205e-19)
(0.00445383 -0.00111164 -5.97533e-19)
(0.000219442 4.28379e-05 -1.88425e-20)
(0.000222177 3.31174e-05 6.48571e-20)
(0.000221724 3.12005e-05 8.91552e-20)
(0.000200822 0.000150974 2.89872e-20)
(0.000217113 0.000151958 4.34953e-20)
(0.000195373 0.000157611 5.31552e-20)
(0.0149097 0.00297188 1.05698e-18)
(0.014052 0.00169582 -3.21339e-19)
(0.0132081 0.00336606 -1.90698e-19)
(0.000128972 -4.74245e-05 1.12572e-18)
(0.000128261 -4.45187e-05 3.40528e-19)
(0.0168969 0.0410012 -2.98615e-18)
(0.019279 0.0420895 -1.31754e-18)
(0.0168079 0.0438016 -1.15013e-18)
(0.0544786 -0.031808 1.10642e-18)
(0.0397485 0.0141544 -3.37235e-18)
(0.0131354 0.000433189 -8.24076e-19)
(0.0119513 -0.000528713 -5.0916e-20)
(0.0115715 0.00105585 7.23598e-19)
(0.000170559 0.000137499 -4.83072e-19)
(0.000159395 0.000123926 2.83437e-20)
(-0.00963096 0.000199168 1.57896e-19)
(-0.00892507 0.000822779 1.08624e-18)
(-0.00879261 -0.000116275 -1.55381e-19)
(8.13765e-05 1.93357e-05 5.88232e-19)
(8.14611e-05 3.15879e-05 1.05362e-20)
(0.00995804 0.0141344 -4.30227e-21)
(0.0110456 0.0147865 6.48168e-22)
(0.0100775 0.0156297 2.91518e-19)
(0.000399597 -6.99484e-05 2.19507e-20)
(0.000386396 -5.20838e-05 -8.78321e-20)
(0.000394061 -7.9108e-05 -5.92414e-20)
(-0.00610208 0.00799841 5.22278e-19)
(-0.00702405 0.00841389 6.52576e-19)
(-0.00590878 0.00896848 -1.94276e-19)
(0.000180855 -2.66486e-05 5.32351e-20)
(0.00017662 -1.8777e-05 -1.58289e-20)
(-0.00596504 0.00728201 -4.40064e-19)
(0.00507498 -0.12125 -7.79539e-19)
(0.0001807 -0.135768 3.68059e-18)
(-4.92466e-05 -8.44992e-05 -2.83367e-19)
(-3.35104e-05 -8.18677e-05 4.78118e-20)
(0.0170429 -0.00707672 -7.88201e-19)
(0.0161902 -0.00723729 -1.11957e-18)
(0.0169391 -0.00817886 -2.67888e-18)
(-0.000266613 0.00128239 3.01974e-19)
(-0.000325665 0.00143529 -5.23743e-20)
(-0.000407945 0.00129705 5.39414e-20)
(0.0018113 0.00304135 -6.28186e-19)
(0.00159844 0.00365703 -1.81371e-19)
(0.00234415 0.00359696 -3.06308e-19)
(-0.0172416 -0.00556486 1.00074e-19)
(-0.0134657 -0.0047994 -2.75863e-20)
(0.000126465 1.32021e-05 3.22271e-19)
(0.000120931 1.45665e-05 4.16835e-19)
(4.07526e-05 -2.12419e-05 -2.7573e-19)
(4.5214e-05 -1.2692e-05 -5.18868e-19)
(0.0168918 0.0383572 5.13378e-19)
(0.014579 0.0398494 -1.0006e-18)
(0.00018519 0.000147039 -1.13456e-19)
(0.000207194 0.000144865 1.03199e-19)
(-0.0200961 -0.012216 -4.27364e-20)
(0.00646872 -0.000633113 5.36144e-20)
(0.00615648 -0.000753329 -9.37633e-19)
(0.00644624 -0.000997966 -2.22236e-18)
(0.0977904 0.0372914 8.92319e-19)
(0.0139478 0.0123573 2.51094e-19)
(0.0142179 0.0137179 1.08004e-20)
(0.0129508 0.0130414 1.2912e-19)
(0.0364327 -0.000472008 -6.65757e-19)
(0.00349896 -0.00223145 5.17763e-19)
(0.00401025 -0.00209251 -4.91217e-19)
(0.00357901 -0.00179213 -6.47578e-19)
(0.0156869 0.00450317 1.61674e-18)
(0.016553 0.00241085 8.41282e-19)
(-0.000175238 0.000409788 2.03741e-20)
(-0.00015041 0.000332824 -7.1684e-19)
(-0.00023909 0.000365304 -1.54009e-18)
(0.00258491 -0.00179224 5.44215e-20)
(0.00265628 -0.0016749 -2.77768e-18)
(0.00249602 -0.00169184 -1.84368e-18)
(0.00515052 -0.00456968 -1.5842e-18)
(0.00547599 -0.00441993 1.65953e-18)
(0.0180311 -0.00700099 9.56026e-19)
(0.0171519 -0.00611842 2.42515e-19)
(0.0281987 0.000453609 -3.22957e-19)