/*--------------------------------*- C++ -*----------------------------------*\
| =========                 |                                                 |
| \\      /  F ield         | OpenFOAM: The Open Source CFD Toolbox           |
|  \\    /   O peration     | Version:  v2012                                 |
|   \\  /    A nd           | Website:  www.openfoam.com                      |
|    \\/     M anipulation  |                                                 |
\*---------------------------------------------------------------------------*/
FoamFile
{
    version     2.0;
    format      ascii;
    class       surfaceVectorField;
    location    "150";
    object      ddtCorrDdt0(Uf);
}
// * * * * * * * * * * * * * * * * * * * * * * * * * * * * * * * * * * * * * //

dimensions      [0 1 -2 0 0 0 0];


internalField   nonuniform List<vector> 
27907
(
(-0.00968493 0.000243597 -9.98407e-18)
(-0.00982398 -0.000270284 1.25175e-18)
(-0.0100679 0.000164783 -7.56806e-18)
(-0.00390737 -0.0157442 1.49045e-17)
(-0.0439204 -0.0170354 -5.80789e-18)
(-0.00793985 -0.0145372 3.74866e-17)
(0.000116603 -8.63393e-05 -4.65076e-20)
(9.96539e-05 -8.36985e-05 7.38516e-21)
(0.00010934 -7.1234e-05 1.42004e-20)
(0.0415664 0.110216 5.04776e-19)
(0.0414177 0.104651 -3.28173e-19)
(0.0479315 0.107745 -3.50147e-18)
(-0.0115416 0.0298546 -1.06715e-18)
(-0.00436814 0.0316176 -2.39676e-18)
(-0.0147423 0.0291576 -4.20077e-18)
(-0.0512827 -0.014536 1.52397e-17)
(-0.0513189 -0.0137484 -4.57665e-18)
(-0.0512228 -0.0128805 -3.51349e-18)
(0.0134452 0.0012366 4.31481e-18)
(0.014752 0.0007756 -1.75754e-17)
(0.0138644 0.00124932 5.89746e-17)
(-0.000229213 -6.39297e-05 -1.55248e-19)
(-0.000228255 -7.33574e-05 3.8856e-19)
(-0.000236917 -6.69668e-05 2.78274e-19)
(0.0138067 0.0317312 -2.27858e-17)
(0.0149521 0.0303793 2.11052e-18)
(0.0157745 0.0322604 1.3717e-17)
(-0.00249869 0.000534431 -3.84268e-19)
(-0.00256747 0.000542662 1.47964e-18)
(-0.00251862 0.000464667 8.83146e-20)
(-0.00156289 -0.000434491 2.69578e-18)
(-0.00158389 -0.0004359 -1.19745e-19)
(-0.00157424 -0.000413521 1.48498e-18)
(-0.00630937 0.00615986 3.28175e-18)
(-0.00605247 0.00603785 4.21291e-17)
(-0.0140069 0.00676327 6.23834e-17)
(-0.000160728 2.32432e-05 1.2856e-18)
(-0.00015578 1.81517e-05 2.11337e-19)
(-0.000164659 1.56913e-05 9.96099e-19)
(-0.052786 0.00117496 -3.30639e-18)
(-0.0515413 0.0025947 2.58207e-18)
(-0.05082 0.000555578 6.6021e-18)
(-3.49268e-05 -0.00310377 -3.74329e-19)
(-0.000159184 -0.00310908 5.86473e-20)
(-8.5013e-05 -0.00297231 -3.60375e-19)
(-0.00469176 0.0112001 1.48748e-17)
(-0.00416835 0.0109807 4.61163e-17)
(-0.00453297 0.010559 2.30466e-17)
(-0.00729459 0.00179104 -4.04361e-18)
(-0.0072111 0.00142876 -4.4896e-18)
(-0.00688894 0.00170421 2.51663e-18)
(-0.000278684 3.60428e-05 -6.17018e-19)
(-0.000278532 2.75483e-05 2.0631e-18)
(-0.000275182 3.6832e-05 -5.21907e-19)
(-0.000463345 -0.00122849 9.24972e-19)
(-0.000495939 -0.00125854 4.44806e-19)
(-0.000449295 -0.00127703 9.90276e-19)
(-0.00303837 0.000214159 1.54205e-20)
(-0.0031128 0.000343339 1.87795e-20)
(-0.00292841 0.000333301 5.27391e-20)
(0.0195836 0.00553306 -9.78245e-19)
(0.0205247 0.00338386 -3.36617e-19)
(0.0175746 0.00544101 -5.51545e-19)
(5.05816e-09 2.17428e-05 -3.21651e-19)
(1.28351e-07 4.392e-05 -2.2709e-18)
(-1.36514e-06 3.04448e-05 3.0214e-18)
(0.0107284 0.00252017 2.30579e-17)
(0.00793077 0.00305958 -1.72702e-17)
(0.0107414 0.00285941 -9.32526e-17)
(-0.0018997 0.0601501 1.18089e-18)
(0.000725754 0.0605739 -1.89933e-17)
(-0.000462785 0.0633394 -4.54704e-18)
(-0.00122608 -0.0311083 4.91367e-18)
(-0.0113142 -0.030208 -5.65743e-18)
(-0.0148908 -0.0299707 1.60389e-17)
(-0.000229971 -5.55006e-05 1.44737e-19)
(-0.000222882 -6.13233e-05 -3.32929e-19)
(-0.00861641 0.0120451 -6.37015e-19)
(-0.00815638 0.0121904 -3.70039e-19)
(-0.00796527 0.0120658 5.16113e-18)
(-0.0337241 0.0249561 9.44718e-19)
(-0.0246542 0.0271521 5.96467e-18)
(-0.0298149 0.0257519 6.76308e-18)
(-0.0942029 -0.0255605 -1.9774e-17)
(-0.0991622 -0.0246798 -2.47387e-17)
(-0.0966635 -0.0256686 1.46603e-17)
(-0.0142614 0.0138992 -1.04822e-17)
(-0.0126217 0.0120253 -7.29118e-18)
(-0.0123594 0.0156151 -1.00717e-17)
(-0.0207999 0.000701394 1.95615e-18)
(-0.021227 0.00151698 5.75246e-18)
(-0.0201953 0.00153182 -4.2768e-18)
(0.0575581 0.00579326 1.31716e-18)
(0.0543822 0.00737398 -1.80212e-18)
(0.0562396 0.00755907 6.45611e-19)
(-3.25875e-05 1.53862e-05 3.2252e-19)
(-2.56595e-05 1.3436e-05 -9.3077e-19)
(-2.86575e-05 8.08452e-06 -1.01699e-18)
(-0.00132458 -0.00127107 -2.72801e-18)
(-0.00134611 -0.00132782 -1.37253e-18)
(-0.00129159 -0.00132417 2.76462e-19)
(-0.0252944 0.0186315 1.22138e-20)
(-0.0255852 0.0174729 2.30422e-18)
(-0.0265261 0.0182365 2.80771e-18)
(-2.623e-05 0.00057528 1.6822e-18)
(-2.69093e-05 0.000620996 1.01026e-18)
(-3.16324e-05 0.000606539 4.00149e-19)
(-1.02844e-05 1.62685e-05 -3.82196e-19)
(-7.40651e-06 1.16931e-05 -1.03638e-18)
(-7.71218e-06 1.55272e-05 5.02809e-19)
(-0.000977556 -0.000517736 3.36229e-19)
(-0.000960313 -0.000494526 -3.45193e-19)
(-0.000989604 -0.00048517 -1.86265e-19)
(-0.00117889 -0.0005607 5.9735e-19)
(-0.00117254 -0.000597135 -4.1824e-19)
(-0.00114865 -0.000564959 -3.06295e-18)
(-0.00652753 0.00322943 4.0192e-18)
(-0.00618361 0.00301685 -7.00832e-18)
(-0.00661744 0.00282421 3.37034e-18)
(-0.000959819 -0.000582376 9.07487e-19)
(-0.000969845 -0.000545678 -5.66483e-19)
(-0.000938099 -0.000561222 -3.84176e-19)
(-0.00172009 0.00227958 -6.41487e-18)
(-0.00163229 0.00226908 -1.50516e-18)
(-0.00169999 0.00219762 -1.08131e-18)
(-0.000271973 -0.000439542 6.65891e-20)
(-0.000288554 -0.000433178 1.72317e-19)
(-0.000282642 -0.000456525 2.48487e-19)
(-0.00209651 0.00148162 -3.00559e-18)
(-0.00215562 0.00143443 -1.31906e-17)
(-0.002081 0.00140897 -9.68373e-18)
(-0.0185762 0.00270696 -2.06802e-18)
(-0.0160384 0.00558716 -1.19463e-17)
(-0.0194502 0.0060468 -4.00877e-18)
(-0.000118108 -6.94542e-05 -3.14926e-19)
(-0.000109785 -6.82926e-05 -1.09951e-20)
(-0.000112919 -7.7398e-05 3.67243e-21)
(0.0108277 0.00221107 7.86971e-17)
(0.0127435 0.00213805 2.47368e-17)
(-0.00163373 -0.000241666 -1.84582e-18)
(-0.00162897 -0.000265365 -4.04136e-18)
(-0.00161205 -0.0002473 -2.46296e-19)
(-0.00246997 0.0006136 1.64746e-19)
(-0.00242117 0.000530514 -4.02197e-19)
(-0.000197909 -0.000465713 -8.41689e-21)
(-0.000178885 -0.00046807 8.67693e-20)
(-0.000186187 -0.000447356 5.93419e-20)
(-0.00108429 -0.010909 1.06404e-17)
(-0.000356227 -0.0112476 3.09828e-17)
(-0.00109296 -0.011838 2.21806e-18)
(0.0341713 0.024061 -8.11305e-20)
(0.0327156 0.0241705 1.97873e-18)
(0.038711 0.0250454 1.02691e-18)
(-3.50543e-05 -0.000184588 4.26011e-20)
(-2.95884e-05 -0.0002002 2.84186e-21)
(-2.34191e-05 -0.000188478 2.79282e-20)
(-0.00153726 -0.000428544 1.95334e-18)
(-0.00154877 -0.00045598 -1.12109e-19)
(-0.0414928 0.0219668 -1.21468e-17)
(-0.0384027 0.0233968 -8.70191e-18)
(-0.0649155 0.00177927 -1.90408e-17)
(-0.0627885 -0.00267222 -1.33583e-17)
(-0.0567655 -0.00275005 3.54023e-18)
(-1.3666e-05 1.71396e-05 1.04341e-19)
(-1.37989e-05 2.1968e-05 -1.59177e-18)
(-0.0028967 0.0100346 -1.03771e-17)
(-0.00283971 0.00962305 1.68923e-17)
(-0.0005657 0.000591324 2.25326e-19)
(-0.000574311 0.000579233 1.54059e-18)
(-0.000582311 0.000606575 -5.67055e-18)
(-0.0518577 0.00646547 1.19658e-18)
(-0.0518455 0.00446487 2.10539e-18)
(-0.0534991 0.00545929 8.44721e-20)
(-0.00858987 -0.0018731 1.42319e-17)
(-0.0086795 -0.00149546 3.86484e-18)
(-0.00900322 -0.00187233 -7.44399e-18)
(0.0130738 0.00116835 -6.59858e-17)
(0.0121644 0.00168563 -3.12935e-17)
(0.00621548 0.015287 2.09429e-19)
(0.00540269 0.0162138 -9.75898e-18)
(0.00672577 0.0163229 7.68774e-18)
(-0.00105406 0.00145472 2.61756e-18)
(-0.00103674 0.00141072 6.21939e-18)
(-0.00100571 0.0014478 3.56546e-18)
(-4.52342e-05 -0.00018279 1.56183e-19)
(-3.89318e-05 -0.000170511 6.72075e-20)
(-0.000131111 0.000540533 2.01922e-18)
(-0.000123122 0.000559163 1.93863e-18)
(-0.000133545 0.000552934 -1.8782e-18)
(-0.00754926 0.00304149 3.38397e-19)
(-0.00796772 0.00268893 -1.47387e-19)
(-0.00742415 0.00260891 -6.16344e-19)
(-3.94479e-05 1.53913e-05 1.48843e-19)
(-3.58052e-05 2.17219e-05 3.22952e-19)
(-0.000903797 -0.000507971 1.0908e-18)
(-0.000891444 -0.000478162 1.73845e-19)
(-0.0008754 -0.000511558 -1.07513e-19)
(0.0312604 0.0231884 1.32419e-19)
(0.0351578 0.0240762 -1.5547e-18)
(0.0215348 0.0229114 -4.39186e-18)
(0.0228713 0.0225348 7.59561e-19)
(0.0194559 0.0211036 -1.42196e-18)
(-0.00058324 0.00130271 -2.20896e-18)
(-0.000618647 0.00131351 -6.59539e-19)
(-0.000604228 0.00127002 6.27057e-18)
(-0.00021645 -0.000461432 -4.5348e-20)
(-0.000209426 -0.000483414 -1.06971e-19)
(0.00164927 0.0126944 -2.38712e-17)
(-0.00260022 0.0127204 3.25128e-17)
(0.00241494 0.00718074 -4.3522e-18)
(-0.000330631 -0.000223854 1.83613e-19)
(-0.000327869 -0.000206517 -6.71487e-20)
(-0.000317452 -0.000219503 -5.79435e-20)
(-0.000603117 0.000563379 -3.78671e-20)
(-0.000593727 0.000570877 -1.22497e-18)
(-0.000586367 0.000545007 -3.2648e-18)
(-0.0130944 0.0385396 -2.078e-18)
(-0.0113715 0.0380507 4.46356e-18)
(-0.0115886 0.0398953 1.00657e-17)
(-0.00193821 0.0299565 3.78761e-19)
(-0.00826837 0.0273466 1.2983e-18)
(-0.00477772 0.0294233 -1.21607e-18)
(-0.00651305 0.00527457 5.65479e-18)
(-0.00666051 0.00498106 1.93674e-18)
(-0.00687954 0.00528016 -1.00791e-17)
(0.00937601 0.00448646 3.9881e-17)
(0.00961822 0.00440148 -3.40963e-17)
(0.0108467 0.00403989 3.32775e-17)
(-0.00157675 -0.0110832 -3.52624e-17)
(-0.000654772 -0.0101728 8.21254e-18)
(-0.00844475 -0.0109898 -2.20439e-17)
(-0.0210456 0.00381634 -1.80754e-17)
(-0.0198784 0.00404537 -1.29797e-17)
(-0.0225495 0.00521826 4.05667e-17)
(-0.0504275 0.0070078 -1.9423e-18)
(-0.051686 0.00817802 5.08534e-18)
(-0.0519845 -0.00592603 -9.24687e-18)
(-0.0498585 -0.00648305 1.26026e-18)
(-0.0488732 -0.00413721 -1.6656e-17)
(-0.0146801 0.0380141 -6.1792e-18)
(-0.0144623 0.0399076 -2.55443e-17)
(-0.00215177 0.000238824 -4.97839e-19)
(-0.00204439 0.000217954 3.96964e-18)
(-0.00215343 0.000143105 -1.65771e-18)
(-0.00697942 0.00497719 5.23478e-17)
(-0.00766831 0.00533655 -1.32231e-17)
(-0.0131161 0.00624174 3.0618e-17)
(0.00701508 0.0146486 -3.24485e-18)
(0.00572004 0.0145 1.1073e-18)
(0.00704662 0.000290932 1.2317e-17)
(0.00690867 0.000149465 1.71192e-17)
(0.00813455 0.000460114 1.17061e-17)
(-0.000614013 0.000548466 -4.88621e-18)
(-0.00062523 0.000575583 -4.69371e-19)
(-0.0544175 -0.00510734 5.18112e-18)
(-0.0545961 -0.00699442 -1.69796e-17)
(-0.000556853 0.000601883 -1.51655e-18)
(-0.000549033 0.000575018 4.02275e-18)
(0.00142494 0.00377701 -3.99763e-17)
(0.00135895 0.00371329 2.22368e-17)
(-0.00212296 0.00405148 -3.25722e-17)
(-0.00182516 0.00230204 6.20461e-18)
(-0.00173705 0.00238217 1.31796e-17)
(-0.00527545 -0.0141949 -3.93347e-18)
(-0.00435518 -0.0134689 -6.23309e-18)
(-0.0123785 -0.0150369 -6.15354e-18)
(0.00134866 0.00354362 -4.38468e-17)
(0.00319845 0.00340843 -5.69277e-17)
(-0.0167807 0.0380059 1.52084e-17)
(-0.0153281 0.0361062 1.9431e-18)
(-0.000333204 -0.000238587 1.68484e-19)
(-0.000343889 -0.000224899 1.06167e-20)
(-0.000485341 0.000245273 -4.34061e-19)
(-0.000477856 0.000244227 -9.99425e-20)
(-0.000492259 0.000258214 -9.9422e-19)
(0.0189571 0.00751171 1.06756e-19)
(0.0217319 0.0055984 -3.58959e-18)
(-0.00305985 -6.90069e-05 -5.27096e-18)
(-0.00314398 -3.16981e-05 -8.35472e-19)
(-0.00306035 8.97815e-06 1.45683e-19)
(-0.0572641 -0.00399189 1.37262e-17)
(-0.0607228 -0.0051175 -1.344e-17)
(-0.0613449 -0.00340908 -7.77866e-19)
(-0.0101689 0.0143629 -7.82437e-19)
(-0.0102514 0.0134627 2.16229e-18)
(-0.0110335 0.0140365 -3.94534e-19)
(-0.00220215 -0.00281795 1.43944e-17)
(-0.0023891 -0.0028224 -4.86826e-20)
(-0.00230483 -0.00267863 1.07088e-18)
(0.0587077 0.00407706 1.18791e-18)
(0.0606553 0.00418157 2.71796e-19)
(-0.0165525 0.012662 3.69254e-18)
(-0.0150883 0.0117945 -7.57386e-18)
(0.0662282 0.0351781 -4.02623e-19)
(0.0663557 0.0366713 1.25853e-18)
(0.0590142 0.0379006 3.44283e-18)
(0.000716452 0.029735 7.00394e-18)
(0.00817601 0.0318458 2.11295e-18)
(-0.00136522 -0.000369093 2.04816e-19)
(-0.00134314 -0.000383412 1.99247e-18)
(-0.00137022 -0.000401301 -2.914e-18)
(-0.000273213 0.0014175 8.8132e-19)
(-0.00024775 0.00138332 6.79337e-19)
(-0.00023471 0.00143136 -1.38844e-18)
(-0.00218125 0.00401116 1.41843e-17)
(0.00151572 0.00371557 4.34247e-17)
(-0.00998647 0.00992995 2.36161e-17)
(-0.000245581 -2.72717e-05 1.36854e-18)
(-0.000238923 -2.73576e-05 -5.01064e-19)
(-0.00024213 -2.2536e-05 1.63247e-18)
(-0.000983673 0.000433064 -1.3026e-18)
(-0.000997993 0.000413047 1.76708e-18)
(-0.000970143 0.000412852 6.51538e-19)
(-0.0370892 0.0236365 2.1303e-17)
(-0.0340333 0.0271691 2.53414e-18)
(-0.0351081 0.0223874 -6.36831e-18)
(-0.052049 -0.00520203 -2.98233e-17)
(-0.0494691 -0.00268119 4.65783e-17)
(-0.0542044 -0.00476388 -3.30059e-17)
(-0.0884759 -0.00279106 -2.33916e-17)
(-0.0874883 -0.00248295 1.38894e-17)
(-0.0853286 -0.00353119 1.11923e-17)
(3.74221e-05 -0.00322139 2.68728e-18)
(9.31782e-05 -0.00308421 -4.17965e-19)
(0.00459443 0.00505624 1.8107e-17)
(-0.000497493 0.00556425 -3.49056e-17)
(0.00472777 0.00492065 -2.19427e-17)
(-0.00536318 -0.0150142 7.58771e-18)
(-0.00119029 -0.0137686 2.45742e-17)
(-0.000560711 1.71184e-05 -3.01442e-18)
(-0.000690867 7.55272e-05 1.01802e-17)
(-0.000679888 -8.6387e-05 1.39509e-17)
(-0.000253009 0.000552173 6.0163e-18)
(-0.000262395 0.000568059 -4.95303e-19)
(-0.00024862 0.000575392 9.53686e-18)
(-0.0716197 -0.0103622 -3.78136e-18)
(-0.0707927 -0.011102 1.43694e-17)
(-0.0654901 -0.00994022 3.03726e-17)
(-0.00534772 0.0123749 -1.52626e-17)
(-0.00601827 0.0119731 -1.47715e-18)
(-0.0060989 0.0128956 -5.00683e-18)
(-0.0155129 0.000388799 -1.13898e-17)
(-0.0157343 0.00119739 1.19697e-17)
(-0.0161333 0.000234155 2.85081e-17)
(-0.0178762 0.00421079 1.10985e-17)
(-0.0175307 0.00372624 -7.0972e-18)
(-0.00120583 -0.0174987 4.23285e-18)
(0.021554 -0.015128 -6.19709e-18)
(0.0253186 0.0429709 1.45775e-18)
(0.0234124 0.04553 1.31669e-18)
(0.0277733 0.0451847 -1.87673e-18)
(0.00187416 0.00393604 1.97188e-17)
(0.00359722 0.00314308 4.2098e-17)
(-0.000164009 3.57198e-06 4.2271e-19)
(-0.000179106 8.59338e-07 -2.34395e-18)
(-0.000202514 -2.54096e-06 -3.76851e-19)
(-0.00734892 0.00215651 -1.07734e-18)
(-0.00769583 0.00185126 -7.68729e-18)
(-0.00929541 0.0114334 -2.92977e-18)
(-0.00845858 0.0113116 -1.96419e-18)
(0.0192539 0.00172825 -2.63063e-19)
(0.0208672 0.00197802 6.0368e-18)
(-0.00489388 0.00327516 -1.16357e-17)
(-0.00473648 0.00344942 1.19295e-17)
(-0.00471858 0.00315973 3.20853e-18)
(-0.0019107 0.0134718 1.86903e-17)
(-0.00185197 0.0140772 3.55618e-19)
(-0.00145644 0.00151266 7.41652e-19)
(-0.00150295 0.00154731 -7.10658e-18)
(-0.00150918 0.00147254 -4.64378e-18)
(-0.00973025 0.0378154 -1.99164e-18)
(-0.0112205 0.0365356 -2.31983e-19)
(-0.00683433 0.00345947 8.01926e-19)
(-0.00639312 0.0036746 2.75801e-19)
(-0.000495566 0.000247676 5.62984e-19)
(-0.000479329 0.00023281 2.00973e-19)
(-0.00428691 0.00630809 8.08896e-18)
(-0.00406832 0.0062609 1.71375e-17)
(-0.00418255 0.00652574 -8.05738e-18)
(-0.00626759 0.00531315 6.48607e-18)
(-0.0064432 0.00560195 1.01395e-18)
(-0.00951908 0.00669825 4.44408e-20)
(-0.00943165 0.00714574 1.12821e-19)
(-0.00990861 0.00689032 1.61587e-18)
(-0.000833752 0.000490134 -8.0041e-19)
(-0.000852234 0.000484317 1.60184e-18)
(-0.000851904 0.000508953 -4.93321e-18)
(-0.0641306 0.00271229 -4.03886e-17)
(-0.0658356 0.0032363 5.26639e-17)
(-0.0009535 -0.00061431 1.50153e-20)
(-0.000979538 -0.000598593 1.85412e-19)
(-0.000444212 -0.00147676 3.29258e-20)
(-0.000393404 -0.00149014 -1.62818e-18)
(-0.000404477 -0.00143099 -1.08841e-18)
(-0.0324503 0.00672132 -1.39347e-18)
(-0.0348749 0.00651721 -1.0973e-17)
(-0.032886 0.0044701 -1.19751e-18)
(0.117401 0.0180461 1.93168e-18)
(0.112856 0.0251051 3.24069e-18)
(0.123622 0.0258155 -5.68929e-19)
(-0.020272 -1.21039e-05 -1.76235e-18)
(-0.0211969 -0.000222623 4.46124e-19)
(0.0153065 0.0537194 7.23748e-18)
(0.011111 0.0509459 2.46303e-17)
(0.0139637 0.0503036 2.39254e-17)
(-0.0216108 0.00241736 -5.36991e-19)
(-0.0192004 0.00254987 -3.2465e-17)
(-0.0317975 0.0406602 4.93466e-19)
(-0.00148156 0.0403276 -4.79895e-18)
(-0.0247201 0.0398534 -4.73774e-18)
(-0.00194864 0.000190532 -4.35141e-18)
(-0.00194775 9.81702e-05 -7.43882e-18)
(-0.0018464 0.000161977 -9.21724e-18)
(2.28995e-06 2.1791e-05 -5.75005e-19)
(-2.64693e-07 3.96398e-05 -1.78383e-18)
(4.47389e-07 2.50059e-05 -4.38248e-19)
(0.00877511 -0.00736416 -1.03478e-17)
(0.0078788 -0.008166 -5.00817e-18)
(0.0105818 -0.00718584 9.33516e-18)
(-0.0016269 -0.000225608 -3.76292e-18)
(-0.00166597 -0.000235099 -1.95718e-18)
(-0.00164241 -0.000261126 -1.24572e-17)
(0.00765181 0.00490352 -1.66552e-18)
(0.00497484 0.00523358 -2.30592e-17)
(-0.00163617 -0.000218181 9.99789e-19)
(-0.00165473 -0.000234075 6.29003e-19)
(-0.00091762 0.000852566 -3.20082e-18)
(-0.000932579 0.000876835 -3.22194e-18)
(-0.000898348 0.000869709 3.06146e-18)
(1.45439e-07 1.24408e-05 1.82785e-18)
(-1.70599e-08 2.69843e-06 1.22486e-18)
(-2.70035e-08 2.94578e-06 -1.01776e-18)
(-0.00042483 5.36925e-05 -3.27954e-19)
(-0.000433708 5.33546e-05 -8.18293e-19)
(-0.000433863 6.02801e-05 -1.08251e-18)
(-0.0484246 0.00935747 2.1726e-19)
(-0.049053 0.00791251 -4.31419e-18)
(-0.0498433 0.00962912 -1.9714e-18)
(0.00103404 0.00416769 -4.26568e-17)
(0.000206962 0.0039932 1.23508e-17)
(0.0026072 0.00370637 -2.8754e-17)
(-0.000896766 0.000828396 -8.21497e-19)
(-0.00092977 0.000831506 2.60982e-18)
(-0.00843625 -0.00216147 -1.7941e-17)
(-0.00825458 -0.00182948 3.84593e-18)
(-0.0914508 -0.0251593 3.95364e-18)
(-0.0889705 -0.0269801 -5.2048e-18)
(-0.000582759 -0.0012184 -7.57776e-19)
(-0.000620456 -0.00124426 -7.0127e-19)
(-0.000622895 -0.00118884 -2.65872e-18)
(-0.0545661 -0.00246384 -1.69795e-17)
(-0.0592456 -0.00257624 2.14681e-17)
(-0.0514121 -0.00132649 1.68888e-19)
(-0.0115755 -0.00785655 1.87864e-17)
(-0.0116416 -0.00725109 -2.77761e-17)
(-0.01105 -0.0075208 -1.6173e-18)
(-0.0487791 -0.00690521 1.8108e-17)
(-0.0470515 -0.00483026 1.49605e-17)
(-0.0483509 -0.00709493 9.53238e-18)
(-0.023873 -0.0132177 -2.22023e-17)
(-0.0219867 -0.0128323 5.21874e-19)
(-0.0214806 -0.0151857 -2.16211e-17)
(-0.000278571 4.41287e-05 -1.05238e-18)
(-0.000283947 3.39582e-05 4.59369e-19)
(-0.00260027 0.00465287 -5.87949e-17)
(0.00170991 0.00393506 3.63858e-17)
(-0.0280254 0.0265823 4.00008e-18)
(-0.0258742 0.0271482 7.88098e-18)
(-0.019219 0.0285599 1.47763e-17)
(-0.0470554 0.0091344 -4.57734e-19)
(-0.0478762 0.0108074 5.45362e-18)
(-0.00337237 0.0577037 8.6387e-18)
(-0.00487258 0.0601505 3.76333e-18)
(-0.0736252 -0.0145341 2.72343e-17)
(-0.0747207 -0.0167175 -1.99388e-17)
(-0.0757328 -0.0151534 9.87901e-18)
(-0.00109264 0.00146884 -4.11447e-18)
(-0.00105643 0.00150321 -1.30023e-17)
(-0.00420937 0.00604784 1.30063e-17)
(-0.00444894 0.00619077 -7.90333e-18)
(-0.00110482 -0.000202191 -1.62259e-19)
(-0.00112257 -0.000225481 4.89431e-20)
(-0.00109647 -0.000233567 -1.59221e-19)
(-0.00023755 -9.31861e-06 -3.5475e-19)
(-0.000234182 -8.68395e-06 -5.79506e-19)
(-0.000231608 -1.02017e-05 4.44237e-19)
(-0.0520912 -0.00187995 -3.70879e-18)
(-0.0541345 -0.00220799 2.56804e-17)
(-0.0416962 0.0430641 1.02261e-17)
(-0.0367072 0.0434161 4.19666e-18)
(-0.000202233 -0.000690132 6.87958e-19)
(-0.000191912 -0.000715238 -1.3631e-19)
(-0.00022357 -0.000707721 -2.28703e-19)
(-0.00259556 -0.00224825 -9.04086e-19)
(-0.00268263 -0.00233936 -3.6794e-18)
(-0.00270973 -0.00218606 7.93616e-19)
(-0.0422018 0.0449176 -7.26418e-18)
(-0.035686 0.0443748 3.12707e-18)
(-0.0387717 0.0427604 -1.15837e-17)
(-0.000477741 0.000375719 3.96463e-19)
(-0.000490343 0.000393926 5.36496e-19)
(-0.000488112 0.000375182 7.80213e-19)
(-0.0495984 -0.00480015 4.19896e-17)
(-0.0494411 -0.00718381 3.89506e-18)
(-0.000246331 -0.000410155 2.19289e-20)
(-0.000228822 -0.000417157 3.21076e-19)
(-0.000234041 -0.000394731 6.26587e-20)
(-0.000417521 0.000383667 -3.17712e-18)
(-0.000430693 0.00038809 -4.27019e-18)
(-0.000427385 0.000404202 5.18318e-18)
(-0.00502748 0.0030458 -6.82549e-18)
(-0.0050698 0.00332977 -1.1609e-17)
(0.0271391 0.0407712 8.46875e-20)
(0.0237861 0.0410441 2.78599e-18)
(-0.00126326 0.000445825 1.98304e-18)
(-0.00129193 0.000450066 4.01567e-19)
(-0.00127286 0.000476875 -1.21721e-18)
(-0.0196864 -0.000669834 -2.41487e-18)
(-0.0192931 0.000169146 3.69458e-18)
(-0.00349349 0.00165832 -1.57306e-18)
(-0.00350325 0.00175611 -2.82456e-18)
(-0.00359474 0.00164116 1.15407e-18)
(0.00779388 0.0140238 2.32893e-18)
(0.00818508 0.0149114 1.20041e-17)
(-0.00305068 0.00011491 1.58599e-18)
(-0.00314597 0.000189171 -2.89259e-19)
(-0.011587 -0.0085256 2.63685e-17)
(-0.0122913 -0.00828981 1.33326e-17)
(-7.38403e-05 0.000241865 -2.01027e-18)
(-6.45474e-05 0.000227142 -5.65515e-20)
(-6.45971e-05 0.000237402 -1.14272e-18)
(-0.000259397 -0.00042529 3.80766e-21)
(-0.000253113 -0.000447914 -1.50474e-20)
(-0.0030118 0.00656209 2.50129e-17)
(-0.00326015 0.0065492 -2.80892e-18)
(-0.00314288 0.00632467 -1.38202e-18)
(-0.00163831 -0.000188675 -4.70244e-19)
(-0.00161453 -0.000194239 3.90708e-19)
(-0.00291091 -0.00107324 3.48332e-18)
(-0.00299217 -0.000968785 3.81511e-18)
(-0.00307651 -0.00110629 -1.05903e-18)
(0.00410244 0.0088594 -1.05499e-21)
(0.00458056 0.00844424 -1.21237e-17)
(0.00475408 0.00926368 3.22625e-18)
(-0.000155988 2.89649e-05 -1.24511e-19)
(-0.000164244 2.57836e-05 2.08366e-19)
(-0.00338887 0.00164739 3.83089e-18)
(-0.00347654 0.00153212 -1.71005e-19)
(-0.008463 0.0148707 8.13492e-18)
(-0.00770698 0.0152059 8.68526e-19)
(-0.00843271 0.0156325 3.9755e-18)
(1.14593e-06 9.03719e-06 -4.10181e-19)
(8.1368e-07 2.28129e-05 2.75689e-18)
(0.0285168 0.00535102 1.73834e-18)
(0.0291455 0.00348863 -3.57484e-18)
(0.0262912 0.0056405 3.17066e-18)
(-0.00244069 0.000681551 5.55798e-20)
(-0.00251746 0.000693189 1.829e-18)
(-0.000278268 1.92107e-05 7.2703e-19)
(-0.000279219 1.32398e-05 -2.17793e-18)
(-0.000274806 1.83797e-05 -1.86481e-18)
(-0.00230713 -0.00292025 -3.36607e-19)
(-0.00213597 -0.00301348 7.53635e-18)
(-0.000986838 0.000846487 -4.38336e-18)
(-0.000989667 0.000823673 1.19191e-18)
(-0.000964116 0.000827663 3.6927e-18)
(-0.00261093 -0.00112888 -1.02326e-18)
(-0.0025412 -0.00121574 -3.40433e-18)
(-0.0026552 -0.00125235 4.10585e-18)
(-0.00563656 0.00550847 6.48368e-18)
(-0.00534668 0.00542079 -8.70695e-18)
(-0.00559411 0.00523712 -8.94967e-18)
(-0.00455375 -0.00442078 -1.52022e-17)
(0.00172814 -0.00373919 -2.32143e-17)
(0.00136825 -0.00478327 2.32588e-17)
(-0.00561428 0.00581012 1.08561e-17)
(-0.00587074 0.00560245 1.05408e-17)
(-0.00333656 0.0105888 -4.74189e-18)
(-0.00376655 0.0108976 -4.57737e-18)
(-0.00375042 0.0103321 -1.3963e-17)
(-0.000187101 -0.000194141 2.46314e-19)
(-0.000184721 -0.000206191 -1.05109e-19)
(-0.00019752 -0.000196794 1.64372e-19)
(-0.0529934 -0.0145769 1.45822e-17)
(-0.0517973 -0.0158189 7.16967e-18)
(-0.000284131 1.90608e-05 8.32846e-19)
(-0.00135882 -0.000343452 -2.14813e-19)
(-0.0013832 -0.000359501 -5.45078e-20)
(-0.0225699 0.0314891 6.82856e-18)
(-0.0219584 0.0329346 4.15915e-18)
(-0.0211548 0.0313967 -1.55416e-18)
(-0.0298637 0.00607972 -2.75835e-19)
(-0.0319694 0.00843255 2.92841e-18)
(-0.0047731 -0.0164517 5.67848e-18)
(-0.00502188 -0.017324 -8.34274e-19)
(-0.00586107 -0.0168095 1.6859e-17)
(-0.00940206 0.0146271 -1.8173e-18)
(-0.00860204 0.0139778 -2.42393e-18)
(0.00250415 -0.00059271 1.12872e-17)
(0.00255457 -0.000159671 -2.83183e-18)
(0.00217621 -0.000413928 -6.70094e-18)
(-0.00502186 0.00186288 -1.32875e-18)
(-0.00519323 0.00179404 1.81404e-18)
(-0.00518661 0.00201704 3.11531e-18)
(-3.87807e-05 -0.000722985 1.4206e-19)
(-1.61622e-05 -0.000729818 -1.84967e-19)
(-3.41065e-05 -0.000750208 1.55571e-19)
(0.00520068 0.00786385 1.00282e-17)
(0.00567625 0.00743517 2.13505e-17)
(0.00584322 0.0082696 3.56645e-18)
(-0.000137546 0.000522693 -2.32451e-18)
(-0.00012769 0.000530101 1.59132e-18)
(0.00730195 0.0131252 -1.10056e-18)
(0.00859527 0.013225 9.7933e-19)
(0.0112327 0.00178099 -9.32314e-18)
(0.0119607 0.000947318 -4.41844e-17)
(0.013313 0.00117567 -2.48969e-17)
(-0.0181564 0.0378454 5.71652e-18)
(-0.0178854 0.0393641 6.62027e-18)
(-0.00014651 1.0921e-05 -6.83702e-20)
(-0.000147711 1.8986e-05 -7.94153e-19)
(-0.000463306 0.000354872 -3.86269e-18)
(-0.00046271 0.000375074 3.42374e-20)
(-6.57989e-05 -0.000720789 -1.58922e-19)
(-4.98222e-05 -0.000697517 -3.43104e-19)
(-0.000133109 -6.89722e-05 5.75306e-19)
(-0.000139511 -6.83599e-05 2.84264e-19)
(-0.000137485 -6.10743e-05 8.76635e-21)
(-0.0771958 -0.011283 -5.87929e-17)
(-0.071485 -0.00928821 -2.72962e-17)
(-0.00167286 -0.00130083 4.33275e-18)
(-0.00175557 -0.00123708 5.51796e-18)
(-0.00177481 -0.00138241 1.81119e-18)
(-0.000403886 6.90018e-05 8.89147e-19)
(-0.00041265 7.38009e-05 6.65854e-19)
(-0.000411529 7.15508e-05 1.9256e-18)
(-0.0148365 -0.0105629 8.82741e-18)
(-0.0144348 -0.00904854 -2.13285e-17)
(-0.0148761 -0.01186 3.92176e-17)
(0.0694107 0.0338237 -1.26959e-18)
(0.0662763 0.0333299 -1.48715e-18)
(-0.00150298 -0.000825165 -2.32798e-19)
(-0.00153849 -0.00083258 -7.40834e-18)
(-0.0015067 -0.00086868 1.33282e-18)
(0.0201066 0.0569353 -4.57343e-17)
(0.0175988 0.0573998 -2.54142e-17)
(0.00448141 -0.00640854 -1.82619e-17)
(-0.00655764 -0.00448854 2.297e-17)
(0.00188874 0.00738312 4.7978e-17)
(-0.0196748 0.0375939 -8.31708e-18)
(-0.0183631 0.036147 1.55221e-18)
(-2.43699e-05 0.000527486 -1.32278e-18)
(-2.32044e-05 0.000539782 2.28291e-19)
(-0.0020786 -0.0118574 7.53411e-18)
(-0.00327772 -0.0126995 1.00923e-17)
(-0.0106251 -0.0130568 1.32839e-17)
(-0.00159884 0.00316531 -6.66215e-18)
(-0.00150813 0.00321701 8.52993e-18)
(-0.00152242 0.0031099 -7.69833e-18)
(-4.73296e-05 0.00067681 1.55845e-19)
(-5.03162e-05 0.000682636 -9.46667e-19)
(-4.89122e-05 0.000706823 -9.7377e-19)
(-0.0558258 -0.0036179 3.14665e-18)
(-0.0439234 -0.00286486 2.17105e-17)
(-0.00213849 0.000337184 3.33719e-18)
(-0.00224494 0.00027652 4.1417e-18)
(-0.00167404 0.00325144 1.44626e-17)
(-0.00170284 0.0031331 -3.34268e-18)
(-0.000206023 -0.00228244 -1.17954e-18)
(-0.000163752 -0.00235741 -1.75009e-18)
(-0.000268133 -0.00234355 -8.99791e-19)
(-0.000190383 -0.000214656 1.15763e-17)
(-0.000330489 -0.000192586 -9.90652e-19)
(-0.00022365 -4.94911e-05 8.03875e-18)
(-0.0171113 0.0518238 -1.74033e-18)
(-0.0160014 0.0539787 7.44826e-19)
(-0.0146124 0.0516527 -3.16856e-18)
(-0.00325498 0.0109016 -6.34494e-17)
(-0.00302538 0.0106213 3.10391e-17)
(-0.0026714 -0.00105881 2.67923e-18)
(-0.00258229 -0.00104633 -1.67479e-18)
(-0.00680445 0.00464559 1.23724e-19)
(-0.00713581 0.0046262 -2.37847e-18)
(-0.00691261 0.00433243 -7.54391e-19)
(0.000317316 -0.00100681 -3.53539e-19)
(0.000323573 -0.00104381 -4.514e-19)
(-0.00702965 0.0107712 -2.88257e-18)
(-0.00758189 0.0113842 1.27643e-17)
(-0.00783376 0.0105152 -1.19428e-18)
(-0.000230588 0.00048152 7.91046e-19)
(-0.000244348 0.000452169 -7.49002e-19)
(-0.000237834 0.000463196 -2.96913e-18)
(0.00347744 0.00940981 -2.5052e-18)
(0.00340624 0.00852076 -2.40732e-17)
(-0.00240835 0.000750882 -4.92223e-19)
(-0.00236669 0.000671476 3.1508e-19)
(-0.0232736 0.0303612 7.34142e-18)
(-0.0235098 0.0318061 -1.58678e-18)
(0.011088 -0.00230993 1.4815e-17)
(0.0141575 -0.00182761 -2.50645e-17)
(0.0104855 -0.00251635 -5.84694e-18)
(-0.000191903 -0.000181096 2.07685e-19)
(-0.000180535 -0.000189336 -1.21732e-19)
(-0.00129743 -0.000417011 -1.21955e-18)
(-0.0013234 -0.000434867 -2.12251e-18)
(-0.00131878 -0.000399886 1.16231e-18)
(-0.0116178 0.00628963 -3.59715e-18)
(-0.0121085 0.00594843 1.04992e-18)
(-0.0122309 0.0067534 1.39214e-17)
(-0.00127751 -0.000433209 -3.76548e-20)
(-0.00127266 -0.0003996 -3.1847e-19)
(-0.00247639 -0.00229127 -1.49232e-18)
(-0.0025281 -0.00215019 -3.65867e-18)
(0.00450317 0.00748035 -2.02726e-17)
(-0.088201 -0.0287423 -1.0935e-17)
(-0.0914134 -0.029258 2.30486e-17)
(-0.0883909 -0.0289347 2.95642e-17)
(-0.0893835 -0.00270068 -1.89473e-17)
(-0.0869709 -0.00161551 -3.99539e-17)
(-0.000813938 0.000526401 1.95407e-18)
(-0.000805108 0.000507055 -2.22971e-18)
(-0.000789321 0.000518788 -7.78132e-19)
(0.000662421 -0.0103687 -4.05505e-17)
(0.000988812 -0.00971153 7.66455e-18)
(0.000164884 -0.0098254 4.02624e-18)
(0.156029 0.0808194 -1.07396e-17)
(0.0947197 0.0502914 -2.41953e-18)
(0.180166 0.0509875 -4.30148e-18)
(-0.0177031 0.0042346 5.71765e-18)
(-0.0182301 0.00206962 2.27698e-18)
(-0.00138189 0.000531128 -1.96926e-18)
(-0.00136067 0.000558871 -8.09216e-19)
(-0.00134762 0.000522156 -1.48283e-18)
(-0.00042899 -0.000760812 5.54853e-19)
(-0.00045117 -0.000779304 -2.47693e-21)
(-0.000417671 -0.000794527 1.33849e-18)
(-0.00171632 -0.000583373 3.52267e-18)
(-0.00168058 -0.00060851 -5.70724e-18)
(-0.00167951 -0.000550544 3.10658e-18)
(-0.00155912 -0.00137267 -2.594e-18)
(-0.0015743 -0.00121678 5.18944e-18)
(-0.000815592 0.000494238 -3.31517e-19)
(-0.000816043 0.000471388 -9.25527e-19)
(0.13836 0.113002 3.01697e-18)
(0.139687 0.0814685 2.46021e-18)
(-0.0157001 -0.0116339 -2.09055e-17)
(-0.0153827 -0.0101914 2.12819e-18)
(0.0254427 0.0427304 -2.16864e-18)
(0.0277066 0.0463178 -1.82051e-18)
(0.0299479 0.0435937 -1.05055e-18)
(0.017668 0.00141292 -1.56636e-18)
(0.00805186 0.00214783 -8.35265e-18)
(-0.000186955 -0.000624342 1.82235e-19)
(-0.000173179 -0.000649138 -2.51988e-19)
(-0.000162117 -0.000625693 3.95549e-19)
(0.000123606 -9.92205e-05 -1.5274e-20)
(0.000129665 -8.90977e-05 2.97557e-21)
(-0.00557099 0.00180587 -7.60326e-19)
(-0.00556979 0.00203155 1.39913e-19)
(-0.00580201 0.00191192 1.38949e-18)
(-0.0130249 -0.0055349 1.84808e-17)
(-0.0124239 -0.00395347 3.68125e-17)
(-0.000911552 0.00257612 -5.47766e-18)
(-0.000844313 0.00253188 -7.68495e-18)
(-0.00091228 0.00249086 1.74586e-18)
(-0.00645601 0.00467223 -2.09044e-18)
(0.0111527 0.00491178 5.20061e-18)
(0.0109106 0.00580257 -7.33974e-18)
(0.010311 0.0050451 1.27425e-18)
(-0.00181252 -0.000551412 -1.06504e-18)
(-0.00179459 -0.000593271 -3.7289e-18)
(-0.00185624 -0.000592726 -2.90134e-18)
(0.00269555 -0.0107726 -7.02108e-18)
(-0.000475358 -0.00118131 1.28626e-18)
(-0.000432059 -0.0011998 -2.72267e-19)
(0.029644 0.0183116 -1.53518e-18)
(0.0293727 0.0160669 -1.75489e-19)
(0.0332755 0.0192987 -1.97739e-18)
(-0.0505607 -0.00841008 2.35595e-17)