/*--------------------------------*- C++ -*----------------------------------*\
| =========                 |                                                 |
| \\      /  F ield         | OpenFOAM: The Open Source CFD Toolbox           |
|  \\    /   O peration     | Version:  v2012                                 |
|   \\  /    A nd           | Website:  www.openfoam.com                      |
|    \\/     M anipulation  |                                                 |
\*---------------------------------------------------------------------------*/
FoamFile
{
    version     2.0;
    format      ascii;
    class       volScalarField;
    location    "600";
    object      ddt0(k);
}
// * * * * * * * * * * * * * * * * * * * * * * * * * * * * * * * * * * * * * //

dimensions      [0 2 -3 0 0 0 0];


internalField   nonuniform List<scalar> 
18758
(
-8.08888e-06
-0.00238038
-7.78146e-08
-7.28363e-06
-1.68003e-06
6.65911e-08
-5.69855e-08
-4.12173e-07
-1.62142e-06
-1.1834e-06
-0.00183028
0.000248016
0.00200916
-1.60322e-07
-4.68877e-08
-1.95639e-08
-0.000530178
-1.89303e-08
-4.32992e-08
-8.68417e-08
-0.00168704
-4.34442e-06
8.52882e-08
8.04968e-08
-1.13622e-05
-2.31619e-05
-0.00865673
1.68223e-05
3.77792e-06
-0.00353391
0.0342777
-0.00688152
-3.77537e-07
0.000527062
-2.08539e-06
-0.00301507
0.00290532
-1.95821e-06
0.014478
5.54308e-08
0.00109689
4.49287e-07
-1.03755e-05
4.41349e-07
-2.50391e-08
0.0270483
4.76972e-07
3.93314e-06
-0.00485798
-2.73561e-06
-0.0017851
-0.0606653
-1.98746e-06
8.85206e-07
2.75908e-08
0.000951428
-1.24917e-07
-5.73186e-08
4.09191e-06
-8.36731e-08
-1.96815e-08
3.76692e-07
-0.00890502
-0.00499591
-2.32034e-08
0.0110563
-4.58917e-08
-6.42302e-08
1.93341e-05
-2.82638e-08
-0.056229
6.63813e-06
2.9235e-08
-1.05311e-06
-4.32339e-06
0.0404899
0.000123327
-0.00272741
-1.2923e-06
-0.000228705
1.63249e-06
0.0193406
-0.0023093
-3.384e-06
5.1239e-07
4.19461e-07
1.34154e-07
-1.30641e-06
-0.00931404
3.36136e-07
-0.0110868
1.65573e-08
1.46201e-06
-0.00520571
2.83712e-08
-1.18414e-08
-5.70841e-08
2.55695e-06
-0.00315188
-4.71224e-08
0.0368321
-4.62029e-07
-5.6918e-08
-1.16069e-08
0.00861037
-0.00264895
4.60278e-06
-0.0190576
0.00152814
0.000350459
-2.20048e-08
0.00474718
-5.43363e-07
-5.32573e-08
-3.96563e-07
-0.0199782
2.47106e-06
-1.02098e-07
-0.0135463
-2.40839e-07
-1.08423e-08
0.000136631
1.72588e-07
-7.64612e-08
-0.00149876
8.21274e-07
9.33464e-08
-7.70679e-08
3.15608e-06
-0.000762676
4.22822e-06
5.99853e-08
-6.0422e-07
0.00266065
-9.34051e-08
-2.91479e-08
0.000297074
-1.59201e-07
-3.19904e-06
2.00745e-06
1.74744e-06
0.00200597
1.67618e-06
0.00166798
-0.00104613
1.01383e-06
0.0103398
3.4196e-06
-0.00166426
-0.00826378
0.00163362
-0.00274221
-2.62628e-09
-2.21079e-06
0.000704204
-0.0379519
1.52517e-06
3.02604e-06
-3.31465e-06
-0.00256212
0.00641022
-9.62018e-08
-0.0119424
0.0102085
0.00593636
-1.37995e-07
-9.37964e-08
0.0121407
-0.000349507
0.00184454
-0.00403035
-7.79427e-08
3.88415e-06
0.00137661
-0.00341783
-4.13041e-08
1.83261e-08
-4.02021e-06
0.000256942
-3.49955e-08
-1.97422e-08
7.13589e-07
5.02861e-07
-3.15758e-08
0.0204624
-3.90218e-08
-0.00375449
6.066e-07
-0.00520638
0.000297835
-0.00293384
-4.06086e-08
7.31346e-06
-1.66774e-06
2.0741e-08
-5.43372e-08
5.98781e-05
-1.78453e-10
-0.00452798
-2.89972e-09
-1.8583e-06
2.59578e-06
-7.61462e-06
-2.15165e-08
-2.87372e-08
-0.0110055
-1.21307e-07
-2.11627e-06
0.000685494
-0.00178262
1.86066e-08
1.84059e-06
-2.53257e-06
7.24352e-07
6.13432e-08
-5.91097e-08
-3.36973e-08
1.77767e-06
5.19166e-08
0.00235905
1.5372e-05
4.24048e-08
1.58627e-06
2.52949e-06
-9.62446e-06
-0.00342659
-4.31679e-06
-3.57303e-07
0.00534147
-1.08951e-07
-7.19995e-06
1.15562e-06
-0.00498547
-4.68744e-08
-3.68437e-08
-2.24679e-09
-2.53712e-06
-0.00416906
-0.000638584
-1.95581e-07
-2.60183e-08
-3.2937e-06
8.26723e-06
-1.04891e-07
0.000357891
-3.8539e-05
-3.5774e-08
-2.21298e-08
6.01666e-08
-4.93271e-08
-0.00436735
3.07171e-07
-0.00380697
-2.02999e-08
8.96605e-08
-0.00714843
-1.6653e-07
-9.02865e-05
-3.92303e-08
0.00166519
-6.93576e-07
-7.69707e-08
-3.68566e-08
7.32361e-06
-0.0158114
-0.0119277
-7.86908e-08
-5.29545e-06
-2.38309e-09
-1.69242e-07
-0.0071163
-0.000385582
-1.44185e-07
-5.65851e-08
2.7057e-06
6.92245e-08
-1.18673e-07
3.68764e-08
7.18143e-07
-1.6564e-07
-2.32226e-08
8.2738e-08
-3.87027e-08
0.00957352
-5.26393e-08
-5.42172e-08
-1.05279e-08
5.31963e-06
-1.56858e-08
-1.3741e-08
-1.08543e-07
-6.49665e-08
-7.93582e-08
-4.44111e-08
-1.73093e-08
3.93823e-07
-0.00326409
2.88066e-08
9.0839e-08
-0.000861635
-1.90921e-08
-3.47425e-08
-3.64114e-08
-0.00920003
-0.000368269
-1.4689e-08
9.44253e-06
-0.00315172
5.53885e-07
0.000592258
-3.91645e-08
-0.0177742
2.77896e-05
7.24727e-06
3.45001e-06
0.000656933
-3.01546e-08
-0.0112141
1.64812e-06
-2.78258e-08
6.83411e-06
-3.14186e-06
-0.00690417
-3.85441e-08
-4.40112e-08
-0.00145485
-0.000179276
-4.5569e-08
-0.00245002
-3.48454e-06
4.71263e-06
-6.39209e-05
-3.89505e-08
-1.4883e-07
-4.16293e-08
-4.52371e-08
3.62541e-07
7.192e-07
-4.09949e-07
-1.48237e-07
3.14098e-07
-1.93706e-07
-0.000224292
-0.00546139
2.51683e-08
-0.0125241
-0.00276227
-3.93185e-08
8.30476e-07
7.37648e-05
4.7584e-05
0.00127262
-0.000280883
-3.59274e-08
-0.00310468
0.00484913
1.96457e-06
-1.89372e-07
4.45055e-06
5.89617e-07
2.56361e-07
0.000209359
-9.52418e-05
0.000517349
-5.51705e-06
-4.28834e-05
-3.59313e-08
1.17395e-07
7.46368e-07
2.81547e-06
-0.00449884
-0.024615
-0.0139177
0.000327558
0.00166812
-0.00220636
5.92146e-08
0.0069028
3.53727e-06
-0.00101898
0.000216042
-3.34236e-08
8.7658e-08
-2.21965e-06
0.000769462
-0.000463962
-0.00403474
-0.00197757
-2.06002e-07
0.000713806
0.00167294
-2.01835e-08
-1.90663e-07
2.24359e-07
1.5187e-06
-1.58161e-08
5.55876e-07
-1.13791e-08
8.36782e-08
-1.0693e-07
-1.61936e-09
-2.56412e-06
0.0179529
3.29652e-07
0.00698046
0.0086796
0.00123453
0.0156414
4.38572e-06
2.44158e-07
1.03567e-07
2.68734e-05
-1.92941e-07
-1.99044e-07
0.000950571
2.65869e-06
0.000242718
-1.08022e-07
0.000478901
-2.77001e-08
-1.35506e-08
9.52508e-09
-0.00297289
-0.0191142
0.0015552
-2.45178e-08
-0.00149313
1.24786e-06
-3.77673e-08
1.05208e-06
6.8311e-09
-0.0100106
2.26405e-08
-5.26927e-08
0.0103147
3.7025e-07
-2.10058e-07
1.98054e-08
-3.95079e-07
-9.62844e-07
0.00370078
-0.00127825
8.74971e-08
0.00854523
1.16919e-08
1.55414e-06
-1.67675e-07
-2.64972e-08
0.024116
8.46541e-08
-1.04631e-06
-7.28008e-08
-0.0146847
9.93724e-07
-1.6772e-08
-0.00375098
-0.000529684
-1.22426e-08
1.27232e-07
-1.38568e-06
-2.30521e-08
-4.6811e-08
-1.77167e-08
-0.00250484
0.00306476
-6.03586e-08
1.3585e-06
-7.59322e-05
-2.54928e-06
-0.00240895
1.41148e-05
-0.00193717
-3.94193e-08
4.16629e-06
-3.10992e-06
-2.13936e-06
-3.6664e-07
0.0026322
-0.000184607
2.37403e-06
-1.89408e-08
-5.58476e-08
-1.83192e-08
-2.80314e-08
-1.97971e-08
-2.99545e-08
0.00124684
-9.2667e-08
1.70129e-08
1.10035e-06
3.83626e-08
-7.50737e-08
1.88077e-08
-1.29536e-06
-0.000158856
-0.000453681
-1.36737e-07
-0.00153614
6.00852e-08
3.61549e-07
2.26895e-06
0.000750297
0.000640071
-3.117e-08
-3.32667e-08
0.00231326
0.000613468
-4.29809e-05
-2.34773e-08
-0.00872069
0.0100468
-1.10077e-08
5.22157e-08
0.00895402
-2.52648e-08
2.17913e-06
-3.26311e-05
1.21498e-06
1.37817e-06
-2.43077e-08
-1.95095e-08
1.80225e-08
1.41377e-07
-8.64252e-08
-1.60599e-08
-0.000878697
-1.99481e-08
0.000207993
-0.000215694
-1.30383e-08
-2.07377e-08
-8.43302e-08
6.61982e-08
3.63661e-07
-0.000861191
-3.83187e-08
0.000389381
-2.28696e-06
-2.13329e-06
-8.43751e-08
8.1193e-08
8.15946e-08
-9.74516e-08
-7.89735e-08
-0.00180997
0.0190295
-2.23205e-08
-8.24863e-08
-6.65746e-08
0.0114878
5.6984e-09
-5.55402e-08
-3.61626e-08
1.29925e-08
-2.76633e-08
-8.51093e-08
1.93226e-07
-2.06208e-08
4.42677e-06
-3.10085e-08
4.85116e-08
6.4442e-06
-0.000106786
1.99413e-06
1.86621e-07
-7.22793e-08
-8.57746e-08
2.66915e-10
-6.70694e-07
-0.00213216
-3.35152e-05
-5.01686e-08
-0.00229927
-7.24356e-08
8.5026e-07
1.88894e-07
-2.99054e-09
1.27152e-06
-2.15447e-08
1.27022e-07
-0.00560995
-7.93544e-08
-5.17701e-08
-5.70211e-06
-5.51471e-08
-5.84094e-08
-0.00400814
-7.78178e-08
0.00154105
-0.00015153
-1.13964e-07
-7.41185e-08
-3.28234e-06
-5.30051e-07
4.72063e-07
-4.27811e-08
0.00303561
-0.000530915
-0.00131946
-2.77023e-08
-0.000233063
1.75855e-08
1.84542e-08
-1.17836e-08
3.34866e-07
0.00283679
2.90323e-05
9.59713e-08
-3.72847e-08
2.60822e-07
-0.000109654
-0.00513183
-3.09591e-08
1.85197e-05
-3.95698e-08
-0.00387609
-4.36851e-07
-1.61048e-05
-3.54514e-08
2.10195e-06
2.89672e-06
-9.34348e-08
-3.64346e-08
1.70731e-09
-3.64445e-08
-3.99209e-07
0.000144699
-0.00332851
-0.00582721
-5.7377e-06
-1.6487e-06
-1.32279e-08
-1.18386e-08
0.000466971
2.93373e-05
1.0185e-07
1.74539e-06
-0.00216695
-0.0016106
8.79578e-09
1.09195e-07
-3.47221e-06
-0.00361728
1.76411e-08
0.000516653
-9.03335e-08
7.14958e-08
5.21225e-07
-3.81105e-08
-7.43774e-08
9.22095e-07
-2.51103e-08
8.09167e-07
0.000236665
1.38273e-06
0.000298458
7.1771e-07
-3.52775e-08
-0.0204684
-5.08595e-08
-0.00766041
-0.000278009
-1.05318e-07
0.00166084
2.48682e-06
2.4745e-07
0.000346383
0.000419081
0.000602063
-0.0116157
-4.68101e-07
-0.00723261
-2.05108e-08
0.00454247
0.00107079
1.55434e-06
-2.32856e-08
0.00229984
-5.40506e-08
-3.9202e-06
-0.00569613
0.0112007
-7.4655e-10
-0.0026282
7.74303e-10
2.05803e-06
3.65183e-06
-5.28312e-08
6.14767e-07
-0.000116069
0.00224445
-5.46525e-07
1.98088e-07
2.07843e-08
-1.89392e-07
7.10306e-07
9.11247e-07
-4.06908e-06
4.68695e-09
-0.017072
-1.61472e-06
-1.79191e-07
1.79269e-07
-6.7517e-09
-4.92149e-05
-3.4236e-08
-3.65407e-08
0.014169
-1.80394e-08
6.66671e-07
-4.54882e-06
1.19939e-06
6.3228e-07
-2.13414e-08
-1.05026e-07
4.84148e-06
-2.55631e-08
-0.00215923
-1.71941e-08
-5.80858e-08
-1.86572e-07
-1.95494e-07
1.92214e-08
0.00862778
-6.67402e-09
0.00768967
-2.94209e-08
-4.37242e-08
-0.0404024
2.80749e-09
6.85752e-06
-4.89377e-07
0.00181535
8.18236e-09
-0.000639743
-0.000355191
5.86843e-08
-0.00024333
-6.58118e-09
-0.00445993
-4.47729e-08
-1.34922e-07
-0.001945
0.000210282
-3.00786e-08
1.17856e-07
-4.09384e-07
1.37872e-08
-2.30823e-08
0.00207981
-0.00917781
2.74778e-08
9.80776e-09
-8.40257e-09
0.00186984
1.75849e-05
0.000215484
-2.55365e-08
-8.85753e-06
-1.39179e-07
-1.28485e-07
4.01949e-07
-0.00287903
-3.14118e-08
1.83903e-06
-0.0096662
1.77363e-06
-0.000127843
-4.95502e-08
-8.31359e-07
-3.13672e-08
5.43013e-08
1.11545e-07
-2.05915e-07
3.12374e-06
-3.33775e-08
0.00551376
1.79621e-08
-3.97617e-09
3.42438e-06
0.0019453
1.92268e-06
1.0753e-07
-1.95349e-07
0.0002202
-0.000158305
-3.27784e-06
-6.33685e-09
-5.83266e-08
-1.20649e-06
2.19362e-05
1.24735e-06
4.74725e-08
-1.90039e-08
-1.81876e-07
1.11203e-07
1.19135e-06
1.8303e-08
-5.75226e-08
-0.00185845
-3.16891e-08
-5.57463e-08
0.000165289
-2.51115e-08
-4.08924e-05
1.03061e-05
-0.000120515
-0.0154936
0.00199888
-0.00781455
1.30419e-08
-5.75158e-08
1.61093e-07
6.10232e-08
-2.32657e-08
-1.68637e-08
-4.13137e-08
-1.81378e-07
-0.0076918
1.15075e-06
-0.00540725
-3.3379e-07
-5.08195e-08
-2.03803e-06
-2.51487e-06
5.65642e-06
1.93099e-08
8.28396e-07
6.90004e-08
-0.00819923
-1.69906e-05
-0.00629498
-3.9591e-08
4.16996e-06
3.88317e-06
7.59746e-05
-0.00193434
-5.14108e-05
9.08827e-08
2.49955e-06
-3.11081e-07
2.64313e-05
-7.58829e-08
-1.24926e-08
5.83703e-06
0.000319337
3.78295e-09
-0.00141874
-0.00129996
-4.13822e-08
1.06527e-08
-5.10398e-08
1.14952e-07
-4.42054e-08
-1.52935e-06
4.29376e-07
4.19623e-09
-6.65666e-08
-0.00377289
-0.00738882
-3.65448e-08
0.00278748
4.90618e-07
4.36631e-07
1.7331e-07
7.70428e-08
2.95989e-08
3.67345e-07
4.30174e-07
-9.20716e-08
-1.02755e-07
-1.3483e-06
-1.06919e-07
-0.00307038
-1.12232e-07
-7.37697e-08
1.56113e-07
0.001295
-2.10158e-09
-2.09925e-08
0.00601038
-2.19506e-08
1.23971e-06
1.23023e-07
-4.97614e-08
-3.49294e-09
-1.78371e-08
-9.96075e-08
8.29751e-07
-5.30131e-08
0.0022565
5.90676e-06
4.19906e-06
0.000144322
-1.66549e-07
0.000181158
-2.10057e-08
-0.00796496
-5.56095e-08
8.91824e-08
2.53423e-06
-0.0258741
-1.18148e-07
-0.0183913
-1.34515e-05
-2.25214e-09
4.57296e-07
-2.55175e-08
-2.17612e-08
-3.4707e-07
-2.26422e-07
-3.36129e-08
-7.34948e-05
-2.33807e-08
8.84411e-09
-0.00240898
-8.78889e-08
-3.00186e-08
4.91868e-10
0.000128192
1.90149e-07
4.77719e-07
3.6121e-07
-7.04484e-06
0.0043297
-0.00327802
-0.00152315
-3.02889e-08
2.71979e-09
-4.74685e-08
0.0106857
-8.51769e-08
5.36627e-08
-1.88838e-07
5.46356e-08
-0.00543249
-1.01303e-07
-4.31821e-08
-5.28679e-05
1.34174e-08
1.09133e-06
0.0435885
4.03527e-09
1.28211e-08
-0.00454403
1.46537e-07
0.00366022
0.00134089
-1.04865e-08
-4.18603e-08
0.00564101
-2.48984e-08
-1.71248e-07
-0.00031826
5.51167e-08
-0.00547749
-4.61565e-08
1.18832e-07
-4.14427e-08
-2.41386e-06
-2.1507e-07
-0.0020307
-1.06546e-08
-3.72725e-08
-0.00260782
-0.000411414
9.25447e-07
1.09006e-06
-3.89846e-05
-0.00568249
-1.00065e-05
1.38752e-08
-0.0050499
-1.82514e-08
0.00802839
-0.00450179
8.3609e-08
1.23503e-06
-9.95727e-08
-0.0032305
-1.82877e-08
0.00348868
-9.51098e-08
-6.03443e-05
7.82337e-07
-3.00042e-08
3.52257e-08
7.83349e-09
-0.00700898
-0.00896016
-1.06506e-07
0.00392249
-2.25171e-08
-3.04129e-08
-0.00475983
-5.763e-08
1.38742e-06
7.95919e-09
-2.65482e-07
-3.78769e-08
6.52673e-09
-3.73535e-08
-1.96602e-08
7.61021e-06
-8.73277e-07
-2.2077e-06
8.93923e-07
-3.03368e-07
-3.51265e-08
0.00129137
-5.15386e-08
-0.00262375
-4.49402e-08
-0.00200396
7.31575e-08
-0.00318271
-3.57619e-09
-1.97915e-08
-2.96292e-08
-0.0232984
1.38092e-07
0.000232476
-3.89662e-06
-3.03371e-08
1.52091e-07
-5.11141e-08
-2.05184e-08
4.14277e-07
6.51515e-08
0.00061515
-1.18101e-07
1.13416e-07
-4.52667e-08
-1.49649e-07
0.00151589
0.00349195
-5.98535e-08
-4.47889e-09
-1.23117e-06
-2.81008e-07
1.97723e-09
1.27869e-06
1.58978e-07
1.03594e-08
-6.16971e-08
-1.30595e-07
6.8355e-07
2.41589e-06
-1.04342e-07
-5.26335e-09
0.0102176
-5.32336e-07
-0.0036371
-2.67018e-05
-1.558e-07
-0.0111248
6.00825e-08
-1.42567e-07
-5.0264e-08
-5.65107e-07
3.4666e-06
-1.09486e-07
1.04812e-06
0.00354359
4.23025e-06
0.00526485
0.0168426
-0.000897571
2.96736e-07
-5.83958e-08
-3.06919e-08
0.00337127
6.54659e-08
-9.62085e-08
6.0881e-07
-5.85809e-05
-8.31269e-08
-2.00503e-08
-0.00279336
1.10886e-08
1.63345e-06
-4.96314e-06
-2.43375e-07
1.26768e-06
-3.90109e-08
8.08095e-09
-6.10242e-08
6.11403e-07
1.25738e-06
-1.02388e-07
9.80129e-09
0.00103092
-3.07929e-08
-4.28114e-08
0.00255897
3.74344e-08
-6.68342e-08
-2.25469e-09
-1.81286e-07
-1.95828e-06
-0.0022703
3.74462e-06
0.00353971
-0.00430467
0.00570046
-0.000573488
1.28742e-06
0.00230849
0.00271964
8.46848e-09
-7.58719e-08
-9.97784e-08
-2.96964e-08
-1.94941e-07
-4.64439e-07
-4.43233e-06
9.25392e-06
-1.04497e-07
-6.61832e-10
-2.18624e-06
1.51579e-06
-0.00117802
-3.53316e-08
1.956e-07
-5.28347e-08
-0.00180824
-0.00260431
4.99936e-07
0.00360913
-1.89699e-08
-4.8496e-08
5.89771e-06
1.65452e-06
-3.44401e-08
1.06258e-05
-1.62741e-07
2.10163e-06
-0.00345325
1.12576e-05
8.77575e-07
1.57917e-08
-2.334e-08
-1.61148e-07
-7.04968e-09
7.27408e-05
5.7649e-06
-0.0232042
-0.00164372
-0.0040786
-1.89153e-07
-0.0102971
0.00270556
0.0161985
1.12596e-06
-0.00821608
1.12117e-06
-0.00018876
4.80714e-06
6.51223e-07
-2.09348e-08
2.28629e-08
-8.55847e-08
-2.05206e-06
-2.65803e-09
2.20987e-08
-8.79437e-05
0.0120096
-0.00262768
0.00279351
2.4601e-06
0.00735548
4.26868e-06
1.40099e-06
-4.69362e-08
0.00825974
-5.41571e-06
5.4101e-08
4.28648e-07
0.0168224
-0.00340863
-0.00195607
4.0812e-07
-3.39918e-06
-1.62191e-09
0.00234489
-3.73888e-08
0.00010844
-0.000533518
1.29113e-07
2.41664e-06
4.37336e-06
-4.80544e-08
2.71621e-08
-0.000615786
-0.00135922
-1.98862e-06
-8.87296e-08
-9.348e-08
4.31985e-07
0.0044137
-6.5386e-08
0.00183219
-1.54165e-07
-0.000940107
-0.000125307
-7.38447e-07
-0.00416123
-3.89932e-06
-0.00110391
-1.81167e-09
3.11472e-07
0.0103614
2.21767e-07
-2.25295e-08
0.0025586
0.000337786
8.26971e-09
-4.99296e-08
-0.00320469
-2.77095e-06
-5.8392e-07
-7.59737e-05
-0.00131549
2.52494e-07
4.45414e-07
0.0026696
5.75402e-07
-4.26878e-07
-4.31479e-07
0.000876559
-7.14179e-07
7.09742e-08
-4.13275e-08
-0.00765113
-5.43824e-09
-0.00521984
-1.6061e-08
-2.62041e-08
0.000604461
3.51504e-07
-2.47823e-08
-9.81558e-05
1.72835e-08
-3.08187e-07
-3.76881e-08
-6.8267e-08
7.88633e-10
1.74183e-06
1.7606e-07
0.00148508
-1.75683e-07
0.00477974
0.00554824
-6.64308e-07
-7.16435e-09
-6.23611e-09
0.00898124
-1.44e-07
3.58249e-08
0.00144467
-6.51055e-07
-0.00269581
2.44882e-08
-1.67509e-08
-1.06198e-08
6.60814e-08
1.72313e-07
3.50885e-08
-2.60077e-07
4.83811e-07
-5.40241e-08
-0.000715787
-4.45337e-07
0.00102413
-1.09261e-06
-4.58238e-08
2.93857e-06
0.00716061
-0.015791
-0.00293067
0.00229439
0.000584231
5.38125e-06
-0.00812557
1.68722e-06
1.14087e-06
2.1387e-06
-0.00337969
-4.49538e-08
-0.00339319
-0.0011944
7.29901e-07
2.09156e-08
-0.00194894
-3.90903e-08
-4.88641e-08
1.07186e-07
5.59606e-07
0.00256883
0.000279866
3.29588e-09
-3.23478e-08
-1.14369e-07
-1.86635e-08
-3.38988e-06
-4.37395e-08
-0.00578525
5.34402e-06
-5.70053e-06
-2.52671e-07
1.74166e-08
6.68752e-08
-0.00112937
-6.25613e-06
5.2013e-08
3.93256e-07
-0.00226545
-1.99015e-08
-4.6968e-08
-1.82409e-08
1.65713e-07
1.939e-09
-3.3141e-08
-2.32986e-08
-0.00268594
-1.00813e-07
-0.00762278
-6.36459e-08
-1.06667e-08
-2.48259e-06
3.83999e-07
0.000314428
-1.63924e-08
1.50056e-06
8.38584e-06
0.00115225
2.80808e-07
1.29653e-05
-0.000855269
2.06352e-06
-2.18179e-06
-3.59126e-09
3.80857e-09
-3.32036e-09
-3.64068e-08
-7.74802e-06
-4.97788e-07
-9.202e-08
-8.71915e-06
-7.02755e-09
1.45279e-07
1.59968e-06
0.00085507
1.71772e-08
1.44916e-06
-8.74767e-06
1.35187e-06
-7.66045e-06
-9.54609e-08
-1.64906e-08
-0.00177512
-2.41787e-06
-1.18088e-08
-6.38037e-10
2.6331e-06
-3.8999e-09
-2.62703e-08
0.00505556
4.03147e-06
8.44754e-07
-2.23474e-07
2.7807e-07
-0.0341017
1.41278e-08
0.00063377
0.00235057
-3.16935e-08
-2.9134e-08
-0.00606101
-1.11853e-06
-2.8362e-06
-1.88219e-07
-8.19477e-06
4.1486e-06
-5.42747e-09
4.33978e-08
-1.09801e-05
-5.59413e-07
0.00457982
-0.00451563
1.10878e-06
0.000801158
-0.005635
-3.61716e-08
-0.00194581
0.00416508
-3.74795e-06
0.0184803
-2.6366e-09
-8.43557e-07
4.39809e-06
-0.00420536
-6.26595e-06
0.000159133
-2.02388e-06
0.00158375
-4.4621e-08
-1.68178e-08
0.00690217
3.74153e-07
1.78544e-08
-2.2215e-08
-3.17578e-07
-3.8604e-08
-1.41511e-07
-4.43845e-08
1.37452e-08
0.0073432
0.00150312
-6.93454e-08
3.11051e-07
-0.00127672
0.00201612
8.98092e-09
-1.00024e-05
0.000285485
2.29513e-06
-1.0985e-08
-3.85667e-08
-0.00144982
-4.07256e-07
5.08447e-06
5.20255e-06
-2.763e-08
-4.43533e-06
0.00459323
-1.64792e-08
0.00558904
1.20401e-07
0.00946405
-1.30548e-07
-2.81518e-08
-5.77755e-08
-9.57599e-08
-3.11087e-08
0.00146705
-2.81565e-05
-8.95543e-09
3.34504e-05
3.13739e-05
-8.17171e-08
-4.97925e-08
-3.1541e-08
-0.00236821
-0.00246903
2.24108e-05
-1.9014e-05
-9.52677e-08
0.00229824
0.00267164
-1.25932e-08
-7.10138e-08
7.16861e-08
1.07636e-06
0.00507142
0.00155929
-3.27577e-08
-0.00527926
0.00264914
8.91489e-07
-1.67969e-08
-2.61398e-08
6.40666e-08
-4.8278e-08
-1.95811e-07
-2.32299e-08
6.41561e-05
0.000537206
4.79831e-08
-9.20551e-09
1.04338e-06
-2.92703e-08
-7.48192e-08
9.21954e-07
-0.00165572
-1.5559e-08
8.56627e-08
0.00108849
2.25258e-06
-6.10098e-06
2.38416e-06
-1.01975e-06
1.08274e-06
-6.8944e-08
-2.39831e-08
-2.04778e-08
2.6469e-07
-0.00185247
4.07221e-07
-2.52723e-07
1.78606e-05
-5.86528e-09
-0.00968794
0.000405805
-1.7384e-09
0.00305191
7.57171e-08
-1.86207e-07
-1.29042e-06
0.00586186
1.41238e-06
-3.10336e-07
2.37013e-08
4.00567e-05
4.99143e-08
-2.76821e-05
0.0022569
-2.17819e-08
4.99058e-06
-0.000716787
7.68311e-08
-2.91e-07
-0.0029032
4.43719e-06
-1.09591e-07
0.00239323
-1.01598e-08
2.68771e-09
-4.63132e-05
-1.57139e-06
-0.00301739
-5.38188e-08
-3.86452e-05
-1.29081e-06
7.58784e-08
4.3251e-06
4.21943e-07
-1.85155e-06
8.79252e-07
0.00226053
-0.00483463
3.4143e-06
3.05857e-05
-1.80838e-08
0.000138539
0.00142766
5.41831e-06
9.86513e-06
7.33828e-08
-0.00613172
5.75779e-08
-5.66478e-08
2.47414e-06
-2.10506e-07
-0.00027222
-0.000507937
-8.30186e-08
0.000716808
0.00147868
-0.0123418
3.08826e-07
5.3314e-06
1.44461e-08
-7.80794e-07
-2.22569e-07
1.19409e-08
-0.00912266
0.0047876
0.00674723
-0.000496385
9.16498e-06
-0.00387586
0.0108053
-1.17699e-07
1.20972e-06
0.00289079
3.96694e-06
3.69744e-08
1.45289e-08
0.00314753
5.87119e-05
-1.23005e-06
-4.19486e-08
-6.47968e-08
2.72713e-05
5.03001e-09
-3.69769e-06
-3.24299e-05
-3.0503e-08
-0.000849791
6.77234e-08
0.00212311
-3.92001e-05
-0.0012959
9.26541e-07
0.000217621
1.05258e-07
-5.07898e-08
-2.55085e-07
-0.0032432
7.58782e-08
-0.00488007
-1.20315e-08
-5.41782e-09
-7.55948e-06
-0.000166419
-8.57025e-08
2.96693e-06
4.75964e-05
0.00407063
-0.00332354
2.7565e-08
2.18553e-08
0.00279277
1.33285e-08
8.00294e-08
-7.4816e-07
-1.54015e-08
-3.685e-08
2.03125e-08
6.7445e-09
-1.15295e-07
-2.0895e-08
-1.96914e-06
2.73893e-07
6.07707e-07
0.00068289
-0.00324844
-1.13616e-06
-3.0153e-09
-5.56654e-08
2.531e-05
-4.48949e-08
-4.48389e-08
2.99634e-08
1.71246e-07
8.62179e-08
6.79711e-08
-4.76209e-07
-0.000205592
-0.00372069
5.47367e-08
2.51599e-05
9.2606e-05
-1.52966e-06
-6.21692e-06
-0.000334403
6.04098e-09
1.58302e-08
-6.32171e-05
-3.61931e-05
-3.93983e-08
0.00213073
2.55321e-06
-5.41215e-08
-0.0159355
3.05812e-07
4.02554e-06
0.00501832
-0.00771265
-0.00463091
2.21102e-07
-2.72123e-08
-0.00829498
1.29252e-06
-0.00801203
4.16228e-06
4.62964e-05
0.00222733
-6.04595e-08
1.25136e-06
-4.22409e-08
-6.61854e-05
7.6927e-06
-0.00975345
-4.47899e-08
7.37638e-08
-2.82685e-06
-4.33981e-08
-0.00573363
-1.5026e-08
0.00216829
0.00187157
2.29776e-06
-4.50075e-06
-0.00284504
7.11382e-08
3.94345e-08
-7.56608e-08
-0.00188053
-0.00288848
-1.57155e-07
-2.08153e-08
6.05348e-08
-4.14427e-09
3.27364e-06
7.40283e-08
-3.73214e-08
0.000903611
-1.33859e-07
-3.68784e-08
1.42863e-06
0.00892182
0.00486708
0.0115635
-2.24676e-08
3.36106e-05
-2.69937e-06
1.29383e-07
2.29609e-07
0.00407561
-0.00310747
7.26128e-07
4.54604e-06
1.20293e-08
1.29026e-06
5.26511e-06
3.77029e-06
0.000370102
-7.89749e-08
1.22596e-05
6.52886e-08
-0.00440208
0.000482156
-4.11417e-08
-3.12709e-07
-1.27134e-08
-1.4408e-08
0.000315249
5.88346e-08
-2.77471e-08
-6.9319e-08
1.79458e-08
-1.83657e-09
-3.16952e-07
-5.65701e-08
-3.69304e-07
-4.11106e-08
-3.1357e-08
-0.0087658
-0.00259745
-0.000120587
2.48999e-09
4.58421e-08
7.00191e-08
5.7396e-09
-6.96757e-09
-1.4066e-06
-3.21507e-08
-1.97678e-08
-4.7736e-08
-1.01128e-08
5.46488e-07
-5.20604e-08
0.00965733
0.0188776
1.52998e-06
0.00335742
-6.34717e-08
-0.00201436
9.61384e-05
-2.58372e-06
-1.00941e-07
-0.00515601
-4.95059e-08
-7.38536e-08
7.97717e-08
4.09074e-05
5.60992e-06
-2.69e-08
1.57749e-07
7.69056e-07
2.10944e-08
6.70029e-05
-0.00183234
-1.03083e-06
4.04808e-08
1.43069e-06
-5.72835e-06
2.62804e-07
0.00757639
-2.93289e-08
2.5217e-07
-3.54239e-08
-5.71371e-07
3.44045e-06
-0.000137975
-1.32378e-06
-1.67164e-08
-0.0017735
-1.77962e-06
2.86177e-05
-2.55709e-08
-6.07677e-07
0.0112718
-2.39634e-08
-5.60409e-08
-2.12236e-06
-0.0166041
-1.21952e-07
5.79352e-08
-1.53752e-08
-1.99692e-06
3.6357e-07
0.000144072
6.8053e-08
1.3865e-07
3.18928e-07
0.00651212
-2.65269e-09
-3.17934e-08
1.55681e-08
6.62374e-07
-5.57195e-10
-0.00262674
0.00487785
-1.58934e-06
0.00371049
-5.23999e-08
-0.000294404
7.69296e-08
-1.14551e-08
3.67481e-05
-3.08148e-06
1.17688e-06
0.00137268
-0.00493079
-4.48804e-06
-4.18633e-07
1.30387e-06
3.47069e-08
0.000321103
4.21687e-08
-9.44445e-07
0.00105535
-1.12303e-07
-0.00463323
-0.00367923
-0.00232895
0.000168413
0.00138511
0.00331652
-0.00494353
2.60932e-06
4.71921e-07
-4.15765e-06
-6.55691e-08
-2.02945e-08
-4.34177e-08
-0.019611
-0.0519012
-0.00304098
-1.15544e-06
-7.81745e-07
-0.000375118
-3.38724e-08
-1.56997e-05
-2.00415e-08
1.65964e-06
-3.34847e-08
1.04238e-09
1.74772e-06
1.31957e-06
-0.0348262
-9.58261e-07
2.44819e-07
-2.46427e-08
-1.39105e-05
0.0252103
5.19565e-08
-4.19193e-06
1.10187e-05
1.43434e-08
1.25024e-06
-7.5556e-09
-0.00321946
3.85689e-07
0.00048808
8.49526e-08
-9.24543e-08
-8.56686e-07
2.34885e-05
0.000517681
6.29156e-06
-0.00315561
-4.23175e-08
6.25958e-08
7.94031e-08
-4.09302e-08
-1.05503e-08
-5.82569e-08
0.00037102
0.00115613
6.06214e-06
-6.06669e-08
1.05714e-06
1.29613e-06
9.07155e-09
-2.03687e-08
5.42138e-06
-0.00206368
-0.000476738
1.8597e-07
0.00156818
-4.12193e-09
2.23536e-06
-8.85056e-08
1.56652e-06
-0.00189676
-0.000900568
-0.00267715
5.1896e-09
6.22468e-08
-3.6842e-08
2.06191e-08
-5.34248e-08
1.01054e-08
0.00684739
-3.23341e-08
6.16414e-07
-1.2678e-07
-1.68902e-06
-2.15172e-08
-0.00107111
0.00318034
0.000695657
4.97172e-08
3.7166e-06
-6.48132e-09
-0.00293572
-7.20542e-06
1.33479e-06
0.00133209
-3.51948e-08
2.49928e-06
-2.6043e-09
-7.34735e-07
4.07602e-07
-3.687e-06
5.54206e-06
0.000162848
-3.25982e-05
2.34176e-06
-8.86768e-07
-1.66393e-07
-6.55577e-08
0.00269684
-2.04273e-07
-0.00238836
3.77378e-07
0.000523156
0.00106151
0.00209298
-2.89315e-07
-0.0143359
-5.45025e-07
1.34226e-07
4.32447e-08
-3.79098e-07
2.96016e-06
-4.62379e-08
-0.0034795
-3.45182e-07
5.45168e-06
-2.89825e-08
1.07328e-06
-0.00383333
0.00163441
-0.00123685
-8.3614e-08
1.0884e-05
-0.0482932
-0.00532278
-1.26996e-07
-2.83763e-06
-0.00218083
2.88008e-06
0.00644629
-4.54754e-07
-1.87208e-06
-5.62014e-06
7.36027e-08
-0.00192793
1.67522e-06
-6.39862e-08
-0.00051039
0.00232921
0.004203
-1.84354e-06
4.02383e-06
-1.10209e-05
-2.77281e-08
3.4925e-06
2.93551e-08
6.80094e-07
1.25869e-07
0.0216527
-0.00722561
8.87121e-06
-6.9278e-05
1.46668e-06
0.000520934
-7.63028e-08
-1.26352e-05
-0.000675131
-0.00436557
-1.06007e-07
-6.52301e-07
-3.73117e-08
1.21123e-06
4.87085e-08
-2.61205e-08
0.00249288
-4.13677e-08
1.44403e-08
-2.07755e-06
-6.29981e-07
-2.9977e-08
3.71562e-06
-0.00927514
9.10316e-07
-5.21272e-08
2.27104e-08
4.63889e-07
2.7631e-08
-3.59939e-08
-3.80894e-08
-2.31081e-08
0.000950181
-2.23633e-08
-0.000129606
-8.90745e-07
1.53857e-08
-1.96181e-09
-0.000337492
1.2213e-06
-0.00426363
5.74568e-06
-1.05924e-07
1.56277e-06
-3.63473e-08
2.98245e-07
-1.70053e-05
0.00384435
1.72812e-05
4.19367e-09
6.887e-08
-2.15927e-06
-0.00154561
0.00295993
0.00027161
-1.01376e-07
9.63862e-08
-1.49068e-08
-1.26972e-07
-7.21154e-06
-0.0024717
-3.70935e-08
0.00228684
-2.02291e-09
-4.74306e-08
9.09994e-06
2.87608e-08
-0.0101565
9.08708e-06
-0.000362641
7.208e-08
2.76372e-06
1.72379e-06
-0.0488214
8.61778e-08
3.71373e-07
-4.47558e-05
-0.00525596
0.00154375
0.000468397
0.00779999
-7.74103e-07
6.60364e-07
-1.82198e-07
5.08927e-06
-0.0259865
1.06241e-06
-9.72845e-09
8.84612e-09
4.66785e-08
0.00860059
0.00197163
-1.08617e-06
0.00616214
4.86726e-08
-1.50491e-08
-7.08324e-08
-7.45112e-06
-6.96625e-06
0.00430089
-2.38945e-08
-1.84587e-07
1.08306e-07
0.00339363
-1.04058e-09
-0.00130557
2.11895e-07
1.84491e-07
0.0223652
-1.49139e-08
-2.55657e-05
-0.00860131
-0.00234984
-0.00325983
5.94522e-08
-9.46909e-09
-4.35677e-07
-0.00345231
8.4627e-06
7.96727e-08
0.00278597
-0.000118787
1.12664e-08
-1.05507e-07
0.00125953
-1.56587e-08
-0.000871275
0.014763
-2.1587e-07
1.25066e-08
-8.35686e-07
1.59242e-06
0.00467902
-8.1663e-09
1.91068e-06
5.71632e-07
-0.00719604
-0.0236215
-3.92418e-08
4.12727e-08
4.4701e-06
-9.71249e-07
5.04476e-10
7.22682e-08
-2.40193e-08
3.40283e-06
-1.64181e-07
-2.25693e-06
-1.2995e-08
-7.23313e-10
2.96009e-07
-3.14897e-07
-8.90309e-06
1.08552e-06
-0.00640929
-0.00041706
0.000322786
-5.64675e-08
2.74103e-09
0.00236329
1.40133e-06
2.13031e-06
0.0032621
2.73004e-06
0.000303629
0.0135051
-1.68561e-08
0.00277623
-0.0002979
-2.06877e-07
2.00966e-08
-2.25191e-08
-2.92488e-08
0.000296038
0.00218092
-4.39776e-08
0.0180593
-0.0115174
-0.00553889
6.74158e-08
3.3105e-08
-0.00506807
-2.5401e-08
-7.58847e-08
-9.68146e-08
-5.32125e-08
-4.52264e-06
-9.79771e-09
-0.0321092
-0.000896662
-6.83985e-08
0.00425825
-1.24842e-05
-0.0702124
-0.00500409
-5.30565e-08
-7.80963e-07
-3.04377e-06
4.10996e-05
-0.00492901
-0.000513835
3.14214e-08
-1.86894e-08
4.35888e-06
-1.75196e-08
-0.0243944
-0.00393509
-3.24573e-08
0.00829011
-2.72315e-08
-0.00389081
-6.32063e-07
0.00156488
-2.31771e-07
0.00120909
-0.0162098
-0.0042503
0.00142738
4.85304e-08
-0.00369466
-0.0120632
-1.71824e-07
-0.0103766
-1.47264e-07
4.91471e-09
-2.24286e-08
-1.54035e-06
-7.77184e-07
-1.79019e-08
-4.79959e-08
-7.88701e-06
1.90382e-06
3.77815e-06
0.0188375
4.28176e-06
7.60346e-07
5.99826e-07
2.05234e-06
4.84027e-08
2.60589e-07
0.0104041
0.011226
-0.00081074
7.53411e-07
1.60531e-08
-2.73224e-07
6.39424e-06
-4.47839e-07
-3.04526e-08
-0.000436121
-0.00639483
0.000754512
1.01776e-06
1.46262e-09
2.58298e-06
0.0187335
5.93138e-07
-2.07728e-08
7.91807e-07
-2.7607e-07
1.88919e-06
1.32045e-10
0.00142336
-1.22123e-08
-0.0241509
2.84931e-08
-0.000792608
-0.0107595
0.00425816
-4.34783e-09
-1.56886e-07
7.22497e-08
-1.03499e-08
6.8855e-06
-0.00712152
-4.08829e-08
-9.1603e-08
-0.00273042
5.76588e-08
5.17178e-06
0.000594171
-8.18816e-07
-3.2571e-05
-7.26612e-08
0.000644348
4.26816e-07
-0.0414919
6.90784e-09
1.12544e-07
9.48498e-05
1.50414e-08
0.00157143
-8.16588e-07
-2.3372e-06
0.00826881
-2.83393e-07
-2.05398e-08
-1.44071e-07
-3.84646e-08
4.15135e-05
-0.0138922
-3.37581e-08
0.00314534
1.16668e-05
0.0208
-8.66207e-08
-0.00147992
-0.000534879
-1.04775e-06
4.92145e-07
-5.80072e-08
0.0163761
-3.55737e-09
0.00534301
9.78568e-09
1.25796e-07
-5.65691e-07
6.04224e-09
-2.5085e-08
-5.29479e-06
-2.79557e-07
-5.06093e-08
0.00197655
-1.72351e-08
-3.47409e-06
4.1552e-08
0.00330403
-1.5219e-05
-7.20538e-08
-2.00762e-06
-4.55345e-08
-3.72629e-08
-8.32359e-07
0.0136486
-0.000930349
0.000978825
8.68367e-06
-2.52633e-08
1.43648e-07
2.14837e-07
-2.36292e-08
2.82797e-09
-0.0324682
-2.6356e-08
1.45697e-06
8.0035e-07
4.08695e-07
0.000508933
-4.53081e-08
-2.51729e-08
-0.000936551
0.0338437
5.98261e-09
9.5907e-07
-9.58739e-08
-0.00360857
-2.64465e-08
-3.4629e-07
-9.08277e-05
-5.31723e-07
-0.000549593
2.01529e-05
-8.1784e-08
-2.3566e-07
3.23017e-05
-5.86166e-07
4.55499e-06
-2.7483e-06
1.83082e-05
-5.50826e-07
5.32186e-06
-3.16313e-06
-7.95452e-05
-6.54194e-07
-0.0029194
0.00172771
-4.9829e-07
-0.00844471
-8.92526e-08
-6.81577e-08
-2.94026e-09
-0.00110147
-0.00332488
-0.0106452
-0.00161092
-2.76895e-08
-3.42949e-06
1.34734e-07
0.0170565
7.81734e-09
-1.78598e-08
5.14284e-06
4.40632e-07
-7.46983e-07
-5.87103e-07