/*--------------------------------*- C++ -*----------------------------------*\
| =========                 |                                                 |
| \\      /  F ield         | OpenFOAM: The Open Source CFD Toolbox           |
|  \\    /   O peration     | Version:  v2012                                 |
|   \\  /    A nd           | Website:  www.openfoam.com                      |
|    \\/     M anipulation  |                                                 |
\*---------------------------------------------------------------------------*/
FoamFile
{
    version     2.0;
    format      ascii;
    class       volScalarField;
    location    "600";
    object      omega_0;
}
// * * * * * * * * * * * * * * * * * * * * * * * * * * * * * * * * * * * * * //

dimensions      [0 0 -1 0 0 0 0];


internalField   nonuniform List<scalar> 
18758
(
0.026209
0.242771
0.0215979
0.0262532
0.0252186
0.0204715
0.0212937
0.0227368
0.024769
0.024422
0.26413
0.398639
0.421893
0.022525
0.0212733
0.0211444
0.402881
0.0195425
0.0212636
0.0239448
0.471591
0.289065
0.0205904
0.0205394
0.330387
0.292849
0.910054
0.106232
0.073398
0.322519
1.66
0.857217
0.0226248
0.564446
0.0256416
0.347051
0.570786
0.0253321
1.23807
0.0198956
0.334203
0.0249732
0.348691
0.0214388
0.0214233
1.3298
0.0244768
0.0721161
3.21224
0.025711
0.30597
3.01603
0.0256313
0.0235637
0.152504
0.214486
0.0205594
0.0237259
0.0640537
0.0205204
0.0216361
0.0213628
1.00531
1.65231
0.0216558
3.0401
0.0214417
0.019868
0.10249
0.0195605
3.01611
0.338144
0.0212223
0.0264837
0.0591014
1.79009
0.207934
0.447963
0.0248167
0.346866
0.0882515
1.22211
0.438194
0.0402237
0.0222322
0.125853
0.0245479
0.0271694
1.00594
0.124848
2.61124
0.022369
0.064952
3.34721
0.0212112
0.0207429
0.0196785
0.0490061
0.456886
0.0211009
1.59891
0.0286594
0.0198612
0.0207394
2.99066
0.454214
0.0733545
2.72416
0.154418
0.614773
0.0211695
1.5889
0.0255803
0.0213154
0.0287036
2.34532
0.0473679
0.0203757
2.40762
0.0229425
0.0212285
0.196532
0.0223339
0.0204769
2.24622
0.023662
0.0210827
0.020478
0.131243
2.14973
0.0662539
0.0222669
0.0264543
3.54296
0.0199176
0.0213279
0.282675
0.0221425
0.150935
0.0853491
0.0271682
0.399441
0.0404898
0.171266
2.21657
0.0470362
3.25931
0.115697
0.234119
2.47731
2.26693
2.42643
0.0215858
0.0258238
0.329292
1.36049
0.0643669
0.135934
0.0427065
0.280571
2.57238
0.0205766
4.12443
3.26441
0.50493
0.0206324
0.0205682
2.17757
2.16768
0.41015
2.95084
0.0217247
0.0815074
0.312673
0.367068
0.0210774
0.0212102
0.246272
0.460213
0.021994
0.0197911
0.0237504
0.146481
0.0224246
2.16552
0.0213581
0.325071
0.0314313
3.43173
0.176909
2.49189
0.0213489
0.0587997
0.151249
0.0196888
0.0223418
0.181424
0.0215752
3.42384
0.0207483
0.022059
0.153247
0.0979815
0.0211413
0.0211728
4.00963
0.0209578
0.0261864
2.20536
2.17414
0.0212131
0.0657531
0.0224527
0.0220961
0.0231542
0.0196961
0.0214164
0.0646055
0.020154
0.377897
0.14544
0.0208584
0.0394102
0.155401
0.100468
0.301974
0.0615904
0.124501
2.41728
0.0209352
0.292912
0.0466331
0.274192
0.0215301
0.0209865
0.0209343
0.0657128
2.96782
0.326701
0.021918
0.0211829
0.0609029
0.122543
0.0214302
2.39639
0.249996
0.0209975
0.0206272
0.021119
0.0211023
3.05411
0.0212609
0.223913
0.0210274
0.0209972
0.897654
0.0205912
0.356896
0.0212652
0.229328
0.0258862
0.0204979
0.0210088
0.0563117
1.86681
1.88415
0.0205073
0.141867
0.0216013
0.0214099
2.28944
0.933102
0.0213791
0.0208631
0.0212775
0.0229834
0.0252739
0.0200311
0.022273
0.0225194
0.0206272
0.0222838
0.0212178
3.42779
0.0212838
0.0208479
0.0195305
0.115469
0.0207214
0.020727
0.0216057
0.022053
0.0205265
0.0209101
0.0213151
0.0219804
0.296243
0.0228924
0.0207308
2.19027
0.0236461
0.0208813
0.0208982
1.30012
0.288717
0.0197856
0.0313682
0.461555
0.0214943
0.152495
0.0212211
1.79834
0.170419
0.078013
0.0719238
0.686457
0.0198378
1.20514
0.177442
0.0214499
0.0739297
0.0408599
2.42943
0.0209696
0.0198445
2.15016
0.313609
0.0207301
2.36439
0.0531473
0.0289029
3.49741
0.0209641
0.0206633
0.0212492
0.0212973
0.0219776
0.0229607
0.0227764
0.0210066
0.0219276
0.0219087
0.387607
1.30453
0.0219445
1.26006
0.470078
0.0207176
0.0306014
0.311998
0.337493
0.388763
0.248894
0.0213583
2.58876
0.390538
0.0326403
0.0219033
0.0280737
0.0221927
0.0212912
0.187638
0.169489
0.387822
0.0711088
0.170824
0.0209967
0.0249034
0.0240501
0.0489705
3.11076
2.28607
0.55246
0.182647
0.345636
0.594279
0.0210759
2.49296
0.121821
0.297705
0.382902
0.0210322
0.0205022
0.295193
0.380073
0.485045
2.20439
2.30882
0.021951
0.400322
0.603052
0.0211546
0.0224518
0.0229918
0.0224265
0.021228
0.022315
0.0214188
0.022702
0.0214214
0.0211895
0.0292251
0.922247
0.0269161
0.850956
0.925195
2.23727
0.828694
0.114053
0.0216199
0.0205908
0.342583
0.0224474
0.0219502
0.277047
0.0475224
0.532447
0.020615
0.361741
0.0213704
0.0237234
0.0197464
3.54915
1.78205
0.387758
0.021278
3.48505
0.0637207
0.0213872
0.0221912
0.0212522
0.463346
0.0213107
0.0208731
0.746477
0.0271917
0.0219754
0.0211985
0.0226698
0.0240791
1.08896
0.17612
0.0216463
2.83124
0.0197388
0.0231543
0.119701
0.0214038
1.35618
0.0216844
0.0242761
0.021542
1.71328
0.0226155
0.0214127
2.73793
0.285129
0.0195343
0.0249005
0.0233635
0.0211439
0.0210407
0.0221139
1.99952
2.2258
0.0216626
0.0315008
0.19111
0.237504
0.386092
0.245457
0.392541
0.0203078
0.106137
0.0562979
0.0287608
0.0225877
0.377962
0.283976
0.0264641
0.0206409
0.021292
0.0207239
0.0214021
0.0207178
0.0214202
0.18373
0.0217278
0.0196995
0.0627091
0.0221691
0.021581
0.0198856
0.0231473
0.286608
0.489891
0.0209817
0.321795
0.0207355
0.0270019
0.135204
2.2089
0.246804
0.0212605
0.0213689
2.22256
3.54147
0.109216
0.0205861
0.788105
3.42525
0.0195266
0.0205886
2.45063
0.0232365
0.0887878
0.102459
0.0225897
0.0313877
0.0206326
0.0210312
0.0222756
0.0209286
0.0209061
0.0216363
0.504007
0.0197934
0.527264
0.201614
0.019532
0.0197934
0.0219074
0.0249699
0.027566
0.217658
0.0211093
0.182204
0.0277042
0.0287874
0.0207404
0.0210255
0.0212648
0.0216811
0.0216693
2.19146
2.20266
0.0206238
0.0208872
0.0220076
2.18505
0.0197571
0.0197161
0.021436
0.0197111
0.0208131
0.0207182
0.0225634
0.0211404
0.0671342
0.0211062
0.0199901
0.0860227
2.21285
0.0249398
0.0211268
0.021098
0.0216999
0.0211946
0.0224778
0.37309
0.359415
0.0220242
0.664375
0.0210853
0.0314508
0.0211804
0.020767
0.0473007
0.0195656
0.0209893
0.76606
0.0215242
0.0223906
0.0697189
0.0210531
0.0213152
3.54718
0.0203584
0.176801
0.194201
0.0209738
0.0215789
0.0384083
0.0230654
0.0275631
0.0210608
0.287474
0.694485
0.390595
0.0206528
2.17758
0.0196828
0.0212381
0.0211199
0.025106
0.312553
0.10823
0.0213188
0.0223551
0.0227573
0.400325
0.588665
0.0210559
0.0321203
0.0237351
2.87091
0.0262427
0.0485461
0.0207484
0.0247055
0.047442
0.0209805
0.0207511
0.0197629
0.0206843
0.025277
0.0810108
0.224525
0.746325
0.0422184
0.0237015
0.0211239
0.0205814
0.515326
0.321315
0.0199315
0.0395652
2.34312
2.1935
0.0214241
0.0212424
0.0422068
0.349846
0.0196702
0.314103
0.0212044
0.0225324
0.0281237
0.0214655
0.0216758
0.021706
0.0206655
0.0219931
0.0778416
0.0467696
0.486786
0.0220082
0.0208298
2.41506
0.0197368
2.32058
0.510329
0.0212181
0.254855
0.0225079
0.0212155
0.271313
0.323583
0.313388
1.92482
0.0229019
0.830007
0.0198042
2.01796
2.22828
0.0311049
0.021126
0.423247
0.0235828
0.0515824
0.465222
1.97623
0.0215514
0.499499
0.0208091
0.0409589
0.0793746
0.020754
0.0279037
0.199204
0.239231
0.0258538
0.0226778
0.0197007
0.0219003
0.0223215
0.0307216
0.0660038
0.0208765
2.39152
0.0235351
0.0213952
0.0252067
0.0197526
0.0427286
0.0212041
0.0206883
2.26008
0.0206072
0.0224008
0.401589
0.0647994
0.0688472
0.0213885
0.0213722
0.044153
0.0213545
0.347719
0.0235068
0.0234164
0.0222261
0.0213752
0.0196845
2.27553
0.0197525
2.8911
0.172189
0.0220451
2.94188
0.0205629
0.0270914
0.0255528
0.648229
0.0233926
0.517947
0.323957
0.0212593
0.401996
0.020291
0.370323
0.0213776
0.0217658
2.12186
0.394589
0.021185
0.0215635
0.0227089
0.0205322
0.0213822
0.364417
2.50109
0.0207892
0.0205218
0.0203024
0.869956
0.100763
0.137837
0.0206558
0.0385047
0.0217596
0.0213975
0.0272763
0.433986
0.021059
0.040698
0.616149
0.020887
0.293532
0.0213899
0.026324
0.0210591
0.0204167
0.0249584
0.0214305
0.049135
0.0213891
3.56562
0.0214767
0.0236242
0.0700399
0.257741
0.0398045
0.0207203
0.0213645
0.323991
0.0756729
0.048062
0.0208254
0.0210924
0.026503
4.16467
0.39293
0.0207349
0.0211707
0.0220324
0.0215349
0.0218713
0.0211763
0.0211248
0.385867
0.0211967
0.0213224
0.322994
0.0206413
0.269481
0.0769142
0.391224
2.50209
0.392398
2.46494
0.0211861
0.021104
0.023064
0.0207622
0.0210614
0.0205568
0.0207326
0.0218604
1.80756
0.134521
0.449638
0.0220256
0.0210638
0.0279887
0.0289269
0.0495463
0.021441
0.0220873
0.0203873
2.72728
0.12968
0.771923
0.021524
0.0799066
0.118553
0.29636
3.9147
0.271233
0.0223846
0.0218629
0.0200349
0.436527
0.0215532
0.0198721
0.0639123
0.176497
0.0211657
0.191556
0.525369
0.0212307
0.0211345
0.0212451
0.0212035
0.0212815
0.0229665
0.027544
0.0212641
0.0215671
0.765615
2.66676
0.0212521
0.394199
0.246491
0.0220247
0.0213881
0.0208232
0.0202592
0.0227313
0.0220038
0.0211327
0.0216795
0.0227766
0.0215498
1.74783
0.0254213
0.0209669
0.0212087
0.999212
0.0215637
0.0198626
1.04595
0.0210742
0.030433
0.0249654
0.021331
0.0208004
0.0205048
0.0242504
0.0375118
0.0211166
0.402675
0.0516618
0.101826
0.28268
0.021975
0.0738819
0.0198041
0.695417
0.0220718
0.0211255
0.152609
1.62875
0.0216665
0.715079
0.324616
0.0204406
0.0274832
0.0198636
0.0219323
0.0255882
0.0222321
0.0210855
0.146656
0.0210284
0.0208526
0.385629
0.0207984
0.0210586
0.020799
1.16503
0.0212395
0.0212344
0.0272879
0.109296
0.459461
0.542755
0.503921
0.021047
0.0197296
0.0213396
2.00526
0.0217385
0.0209164
0.0229574
0.0203469
0.420082
0.0215822
0.0215164
0.115503
0.0211438
0.0642631
1.76657
0.0197265
0.0212561
0.398792
0.0228976
2.46918
1.00319
0.0205788
0.0214075
0.617175
0.0206775
0.0230056
0.482535
0.0201054
0.450285
0.021232
0.0211729
0.0212713
0.0286896
0.0222968
0.563049
0.0224722
0.0209812
0.531617
0.322704
0.0380433
0.0259473
0.137784
3.44613
0.110487
0.0196736
3.31644
0.021458
2.43218
0.752182
0.0207912
0.0239987
0.0216032
0.357059
0.0207647
0.850236
0.0207979
0.121089
0.137555
0.0206349
0.0196896
0.0211953
0.524576
0.538798
0.0212076
0.301854
0.0215077
0.0210581
0.492771
0.0212893
0.262363
0.0208083
0.0231262
0.0209538
0.0208104
0.0209909
0.0207681
0.0678804
0.0267858
0.0306248
0.0292606
0.0217612
0.0212339
0.408823
0.0212582
0.555752
0.0215415
0.416383
0.0250178
0.27785
0.0205485
0.0207372
0.0210334
3.10662
0.0210369
0.506482
0.0498853
0.0213924
0.0249511
0.0212542
0.0206214
0.0230662
0.0208347
0.402688
0.0212187
0.022495
0.021204
0.0225903
0.5589
0.257979
0.0213606
0.0208127
0.0214334
0.0216943
0.0211146
0.0228451
0.0218531
0.0211854
0.0203257
0.0205012
0.196334
0.085966
0.0213781
0.0203385
0.973908
0.0223207
1.51712
0.1367
0.0217929
4.10471
0.0221905
0.0205778
0.0210361
0.0231092
0.0313972
0.0204082
0.0298382
0.459511
0.0274648
0.680555
4.56166
2.16684
0.0286843
0.0215185
0.0214212
0.478562
0.0203245
0.0214096
0.0276204
0.19231
0.0210602
0.0206645
2.47794
0.0232787
0.0222388
0.0223182
0.0231689
0.0275404
0.0214147
0.0235268
0.0212176
0.0289955
0.0225896
0.0216899
0.0216276
0.530112
0.0217181
0.0212435
0.4856
0.0196888
0.0209739
0.0213439
0.022121
0.021737
0.212434
0.111308
0.456988
0.321881
1.27884
0.317983
0.0220258
1.89162
0.488316
0.0213508
0.0219912
0.0215644
0.0214234
0.0221842
0.0222248
0.0660857
0.0900315
0.0213935
0.0202561
0.03986
0.0225634
0.31571
0.0209706
0.0219094
0.0210765
0.453357
0.527137
0.027403
3.29903
0.0211133
0.0210871
0.0672358
0.0254121
0.0210692
0.0880982
0.0217464
0.0238227
0.363521
0.0746925
0.0285128
0.0215096
0.0215919
0.021818
0.0206453
0.487578
0.0641813
3.03326
0.316189
2.44815
0.0217114
3.99671
2.42952
4.51519
0.117227
1.49913
0.0244836
0.358677
0.104222
0.0304297
0.0195433
0.0211675
0.021387
0.0382372
0.0208113
0.0212605
0.133666
2.56738
1.58574
0.386388
0.0787022
0.467181
0.0259833
0.0227871
0.021253
2.58482
0.218222
0.0205725
0.0276404
1.12924
2.68154
2.31308
0.0309976
0.045526
0.0197397
2.33596
0.0217129
0.488651
0.56321
0.0287264
0.131299
0.109113
0.0213977
0.0212344
0.509897
0.450732
0.197009
0.0216994
0.02128
0.0232525
0.380044
0.0239562
0.349535
0.0217713
0.378485
0.340439
0.0248003
0.881791
0.0596289
2.17822
0.0197389
0.0317304
2.23105
0.0263122
0.0211594
0.629428
0.512027
0.0211364
0.0212551
0.24893
0.0225429
0.0220666
0.36927
0.510537
0.0214747
0.0272049
0.527634
0.0278182
0.0229864
0.0228634
0.358532
0.0247579
0.0207328
0.020999
0.709513
0.0207676
2.3677
0.0204362
0.0206663
0.406704
0.0215366
0.0211172
0.177111
0.0196844
0.023089
0.020476
0.0210879
0.021493
0.0860499
0.0213225
0.336571
0.15447
0.401603
4.12399
0.0237311
0.0205673
0.0207712
2.23647
0.0249725
0.0211862
0.337215
0.0297106
1.52817
0.0201094
0.0204254
0.0205795
0.0208118
0.021195
0.0199126
0.0221192
0.022227
0.0212993
0.323522
0.0227769
0.364563
0.0220093
0.0204799
0.0240398
2.50152
2.66939
0.484298
2.83041
0.493776
0.087034
2.54419
0.0221695
0.0334186
0.040007
2.50519
0.0209841
0.894151
0.281178
0.171285
0.0211875
0.478932
0.0210583
0.0212435
0.0210373
0.0283833
1.25755
0.339752
0.0215432
0.0195805
0.0204682
0.0201462
0.0283052
0.0213413
2.51843
0.0561552
0.0315835
0.0217932
0.0211456
0.0198721
2.19259
0.0842889
0.0211484
0.0209147
0.25039
0.0201331
0.02134
0.0203115
0.0211702
0.0214771
0.0212866
0.0204939
0.418786
0.0228555
1.19486
0.0239803
0.0216213
0.252958
0.0215099
0.511258
0.0216292
0.0475033
0.0456978
0.399057
0.03241
0.0809198
2.16601
0.0223296
0.0313632
0.0223145
0.0211741
0.020489
0.020942
0.0681262
0.0330962
0.0235242
0.0672758
0.0204693
0.0213916
0.0321082
0.634521
0.0196694
0.0394281
0.268407
0.119013
0.0893423
0.0218155
0.0215244
2.2511
0.0273591
0.020856
0.0211285
0.122153
0.0205495
0.0206451
2.38557
0.0525083
0.0221865
0.0221145
0.0215696
2.86479
0.0234298
2.20395
0.844241
0.0212305
0.021024
0.894388
0.0301075
0.0258075
0.0222226
0.0292049
0.0244462
0.0208245
0.0236564
0.181148
0.0353418
2.53839
0.312659
0.031703
0.491399
0.909431
0.0206943
0.507169
0.982363
0.0230805
4.26764
0.0214965
0.18871
0.0752017
0.586358
0.0281812
0.109033
0.0289579
0.293414
0.0210606
0.0198717
4.19119
0.0228798
0.0211439
0.0211835
0.0216693
0.0198511
0.0219522
0.0209958
0.0211759
3.77919
0.18645
0.0210996
0.0216475
0.879012
0.401392
0.0197134
0.208732
0.0917791
0.0411629
0.0213737
0.0209795
2.1945
0.0217114
0.0462138
0.0826553
0.0206513
0.0250625
3.57274
0.020935
0.444437
0.253424
2.30964
0.0218999
0.0209455
0.021297
0.0211543
0.0211967
0.338944
0.101356
0.0203602
0.511324
0.370401
0.0218644
0.0215241
0.0211985
0.450344
2.23474
0.0325985
0.0356343
0.0228508
3.37481
0.396737
0.0205185
0.0210824
0.0251634
0.0320036
1.92576
0.333246
0.0207022
0.843863
0.400505
0.0228031
0.0208679
0.0215408
0.0233888
0.0210287
0.0219985
0.0206328
0.0854042
0.399013
0.0213537
0.0215381
0.0295872
0.020663
0.0210947
0.0218027
0.373647
0.0205955
0.0224084
2.21188
0.177742
0.0709039
0.0805536
0.0217962
0.0215766
0.0219741
0.0204136
0.0210709
0.0219045
0.514827
0.0259461
0.0221745
0.035697
0.0203754
0.511072
0.0980015
0.0212087
2.29562
0.0207532
0.0225002
0.180089
2.41498
0.0232741
0.0232314
0.0233253
0.0571934
0.0197204
0.356612
1.48305
0.0206249
0.0732821
0.382292
0.0213492
0.0223394
0.361555
0.0645054
0.0215718
0.196861
0.0238369
0.0211849
0.0759294
0.270081
0.348547
0.02076
0.262912
0.0327982
0.0198417
0.0426992
0.0274445
0.0216653
0.0360596
0.444104
0.294748
0.0318363
0.0349468
0.0206098
0.532368
0.355152
0.196895
0.312927
0.0213486
0.917837
0.0213476
0.0210337
0.0413205
0.0220225
0.142757
0.375496
0.0215852
1.8733
0.261912
2.63682
0.0265513
0.0593686
0.0196733
0.0217401
0.0230308
0.0196478
1.04558
0.569391
3.58433
0.511747
0.090868
0.388815
2.34814
0.0212127
0.0224772
0.841284
0.0544867
0.0213489
0.021134
0.476688
0.0477953
0.0257938
0.0212436
0.0214965
0.0357791
0.0211391
0.0681995
0.370259
0.0198393
4.11301
0.020246
2.63851
0.243256
0.827619
0.0221028
0.483931
0.0214546
0.0210913
0.0221962
2.38743
0.0324891
0.600778
0.0215189
0.0211314
0.081219
0.621797
0.0215787
0.128256
0.294984
1.4744
0.340364
0.0208602
0.0213692
0.474199
0.019664
0.0203161
0.0239283
0.02122
0.0214382
0.0208278
0.0211231
0.0236261
0.021169
0.0297636
0.0277028
0.0209587
0.458878
2.53285
0.024742
0.0202725
0.0212893
0.0345738
0.0213488
0.0212464
0.0213569
0.113179
0.0211501
0.0225237
0.0230261
0.114522
0.368403
0.0209129
0.0395334
0.0697491
0.0257477
0.0660276
0.182073
0.0207101
0.0211975
0.0652826
0.0493291
0.0230156
0.194504
0.32888
0.0212938
0.797828
0.0219605
0.0592977
0.361642
0.896418
3.1366
0.022844
0.0210701
0.624412
0.0225287
0.982466
0.0269011
0.46567
2.70804
0.0207013
0.0382086
0.0210712
0.0547204
0.0812441
2.88782
0.0210101
0.0213502
0.0710291
0.0216503
0.273953
0.0206522
0.305522
0.348615
0.0401026
0.428759
2.45449
0.0207691
0.0208984
0.0213495
0.526624
0.325178
0.0217806
0.0225809
0.0218072
0.0202822
0.026086
0.0207925
0.020395
0.387528
0.0217182
0.0203663
0.0232631
2.36408
0.435365
2.2911
0.0215253
0.0643491
0.0236661
0.0246315
0.125006
0.488976
2.40842
0.0203165
0.0342448
0.0197102
0.0324542
0.0285062
0.0495284
0.458373
0.021681
0.0780297
0.0202835
0.273717
0.348245
0.0203952
0.0223866
0.0220069
0.0220401
2.18875
0.0213323
0.0213722
0.0219537
0.0216521
0.0204909
0.0224119
0.0212992
0.0217401
0.0213438
0.021105
0.981156
0.486408
0.482477
0.0200658
0.019719
0.0197779
0.0201378
0.0198916
0.035353
0.0198346
0.0206101
0.0212534
0.0208545
0.0275446
0.0212562
0.838658
2.71335
0.0369508
0.932024
0.0215252
0.987544
0.0566451
0.24337
0.0205452
0.234397
0.0220485
0.0213563
0.0213658
0.0670172
0.0964231
0.0209181
0.0303715
0.027209
0.0211701
0.0586064
0.458284
0.0307436
0.0208968
0.022651
0.0910422
0.0225361
0.729571
0.0209255
0.0221029
0.0213617
0.0228325
0.027486
0.410516
0.0325566
0.0203664
0.433995
0.0255706
0.0468587
0.0210551
0.0244592
4.19506
0.0206824
0.0217451
0.0274665
0.911473
0.0198234
0.0210118
0.0204562
0.0320144
0.0213618
0.527671
0.0213657
0.0246952
0.0269065
3.73464
0.0206364
0.0204149
0.0197215
0.0284534
0.0202657
2.44963
0.507329
0.030988
0.332536
0.0212784
0.450033
0.0214035
0.0205809
0.0435071
0.0482313
0.183731
0.333479
0.645951
0.250454
0.0268966
0.0320185
0.0222364
0.515349
0.0213682
0.0219076
0.261983
0.021662
0.357141
0.250488
0.186477
0.485387
0.318536
0.253832
0.398661
0.0814186
0.0220073
0.0283889
0.0213638
0.0203789
0.0210374
3.18456
2.93687
0.393236
0.0249107
0.0236722
0.239798
0.0209363
0.02949
0.0204134
0.0328047
0.0212014
0.0199109
0.0221521
0.0391498
1.08607
0.0302939
0.0266881
0.0204295
0.027573
1.19026
0.0202928
0.0533341
0.357545
0.0196579
0.0601468
0.020567
2.28587
0.0216168
0.585205
0.0218587
0.0215044
0.024477
0.0392335
0.499617
0.0246574
0.248942
0.0225089
0.021351
0.021366
0.0215129
0.020355
0.0213059
0.487085
4.07069
0.027823
0.0211002
0.0245657
0.0228011
0.0215671
0.0215081
0.084834
0.420707
0.343686
0.0212148
0.178573
0.0205552
0.0643572
0.0224818
0.0378543
0.454393
0.365982
0.354223
0.0199365
0.0213176
0.0209481
0.0211568
0.0213623
0.0211339
2.31937
0.0214855
0.021571
0.0218509
0.0356593
0.0211293
2.17125
3.81016
0.276563
0.0213675
0.337894
0.0203432
0.39928
0.0948977
0.0220445
0.285501
0.0234777
0.0645625
0.0206878
0.0215869
0.0267977
0.0457665
0.109155
0.440164
0.177917
0.14753
0.029167
0.0220956
0.0212047
0.6444
0.0230732
0.748441
0.0219629
1.77224
0.308425
0.413705
0.0223035
0.710084
0.0234298
0.0210945
0.0201646
0.0228405
0.0667774
0.0212467
0.398181
0.0341398
0.114431
0.0210825
0.024355
0.734382
0.489481
0.429159
0.0241315
0.0263115
2.49253
0.498233
0.0217021
0.0451812
0.371375
0.0638366
0.608614
0.0247307
0.0261209
0.234887
0.0198849
0.211048
0.047741
0.0213496
0.327472
0.405604
0.866284
0.0235409
0.127315
0.0267772
0.0204149
0.0478052
0.0217779
0.213612
0.0204102
2.8533
2.5023
0.0575075
0.376083
0.118174
0.220076
0.0236874
0.071917
0.364296
3.38975
0.0223943
0.0219466
0.0210359
0.0245249
0.0199262
0.0210514
0.315907
0.0210482
0.020606
0.0295007
0.0219759
0.0198344
0.0261339
0.577014
0.0636306
0.021259
0.021371
0.0270502
0.0223304
0.0210462
0.0209521
0.0203978
0.357197
0.0245987
0.0898282
0.0264483
0.021213
0.0198955
0.399932
0.165166
0.743011
0.027434
0.0216481
0.032015
0.0209466
0.0264257
0.0948782
2.11343
0.0342395
0.0230487
0.0203044
0.0269853
0.489749
0.381601
0.43859
0.0243227
0.0203634
0.0205938
0.0239262
0.0719376
3.48166
0.0204587
0.299839
0.0198926
0.021066
0.0847265
0.0208605
0.419674
0.089426
0.468996
0.0198319
0.0314024
0.0380869
3.01937
0.0203399
0.0213993
0.196027
0.349254
0.297198
0.434376
2.72867
0.0224247
0.202327
0.024466
0.0236141
3.18817
0.0236721
0.0209452
0.0215461
0.0200941
0.9839
2.4833
0.0243307
2.11095
0.0201491
0.020957
0.0215013
0.148246
0.0694054
1.78852
0.0213884
0.0218752
0.0303688
1.81121
0.0203321
0.429404
0.0206814
0.0223663
2.81915
0.0208667
0.107878
0.908725
0.472702
1.06995
0.0212538
0.0232413
0.0227454
2.64697
0.0332993
0.0213871
2.37041
0.242353
0.0196494
0.022469
0.262471
0.02043
2.19553
2.67585
0.0241939
0.0197304
0.0238634
0.0239604
3.28349
0.0205678
0.0305183
0.0219582
1.64734
2.87973
0.0212358
0.0202029
0.164562
0.0256792
0.0214837
0.0210222
0.020892
0.0493003
0.0227709
0.0971623
0.0217769
0.0216165
0.0207878
0.0225828
0.0231382
0.0222857
0.932847
0.345679
0.367114
0.0217704
0.0203207
0.423507
0.024727
0.0667097
0.434717
0.117709
0.402351
2.67908
0.0203111
0.539804
0.137458
0.0222172
0.0208285
0.0213916
0.0213762
0.558758
0.302004
0.0213722
4.24759
0.802864
4.11971
0.0197738
0.0205784
1.72037
0.0208973
0.0214799
0.0240187
0.0210399
0.247466
0.0226727
3.16556
0.42318
0.0208384
0.440913
0.0654016
2.75479
1.95282
0.0212835
0.0240132
0.0329144
0.39815
2.16436
0.196521
0.0217411
0.0213932
0.0849334
0.0204298
1.55275
0.685289
0.0209359
0.95149
0.0203907
2.45469
0.0215475
0.332271
0.0221467
0.667133
2.35197
2.35384
2.26695
0.0200801
1.10886
4.2918
0.0218576
2.97284
0.0217657
0.0199741
0.0212064
0.0261047
0.0236286
0.0215159
0.0209903
0.0704731
0.0382335
0.0406033
4.10639
0.0505647
0.0270664
0.0220355
0.0517814
0.0201871
0.112855
1.82984
2.09425
0.414104
0.0221188
0.023182
0.0222498
0.0255866
0.0228079
0.0210651
2.18631
0.719193
3.79493
0.0217223
0.0215291
0.0402879
2.12448
0.021762
0.0204102
0.0220188
0.0225497
0.0372788
0.0212651
0.262161
0.0216972
2.76398
0.0205671
0.253307
0.752413
0.626772
0.0200771
0.108297
0.0213662
0.0204003
0.0654324
0.733702
0.0210151
0.0220218
2.31842
0.0213001
0.051128
0.435164
0.0264991
0.0791476
0.0214611
0.223689
0.0272225
2.60547
0.02031
0.0206457
0.601359
0.0208178
0.322858
0.0240506
0.0279981
2.38909
0.0222782
0.021392
0.0220513
0.0210366
0.163513
2.71086
0.0204047
0.251453
0.029545
2.23569
0.0212184
0.27717
0.34935
0.0258731
0.0273334
0.0213645
4.26558
0.0200016
2.31106
0.0202993
0.0206074
0.0234001
0.0215526
0.0206692
0.0593842
0.022956
0.0210214
0.314881
0.0204403
0.0411662
0.0247139
0.989736
0.0296494
0.0205963
0.0321997
0.020982
0.0209501
0.02383
2.84619
0.168355
0.321423
0.320586
0.0203848
0.0211303
0.0212504
0.020908
0.0202176
2.01223
0.0198588
0.0229491
0.213331
0.0220123
0.271213
0.0214781
0.0203895
3.517
2.09653
0.0215693
0.0464478
0.0240683
2.21086
0.0210555
0.0226989
0.056498
0.0214757
0.116633
0.216415
0.0220399
0.0221268
0.372906
0.0241589
0.0492847
0.277705
0.180901
0.0232441
0.0230183
0.0335606
0.38438
0.0219219
0.722836
0.0840043
0.156538
2.48574
0.0205046
0.0213709
0.0211656
0.343697
0.571474
2.34515
2.1818
0.0200615
0.0999429
0.0205574
4.30824
0.0211971
0.0343979
0.106574
0.0218156
0.0220271
0.125577
0.0245292
0.0217255
0.0219305
0.0554636
0.0230244
0.0209329
0.0877484
0.0218053
0.0217779
0.0211109
0.499324
0.0262575
0.408614
0.0275204
0.0228414
2.38109
0.0245971
0.087987
0.0203853
0.0211768
2.85347
2.27387
0.544101
0.0214624
0.0239045
4.11645
0.0913837
0.0936614
0.231167
0.055575
0.0596762
0.0203696
0.955484
0.0206445
0.0615255
0.453652
0.113891
0.114036
0.0221984
3.2005
0.0626077
0.34632
0.0407913
0.0210566
0.0213379
0.0213336
0.486785
0.0205102
0.430519
0.0656495
0.392389
0.020219
5.33959
2.10922
0.244404
0.409495
0.0221586
0.021679
0.021081
0.0247638
0.0213806
0.0248543
4.21408
0.0211924
0.0222611
2.23217
0.268124
0.172232
0.0254965
0.0296924
0.0207745
2.78333
0.0219763
3.07921
0.0383602
0.197518
0.0299361
0.112286
0.137133
0.0212796
0.0211873
2.20395
0.127453
0.251791
0.151616
0.0415152
0.0207966
0.0635732
0.021415
0.194404
0.0213787
0.0225123
0.400942
0.022
0.112528
0.0205513
2.84945
0.522511
0.0248817
0.0278302
3.08357
0.0249761
0.0202888
2.7237
2.1753
2.69864
0.0208932
0.0217871
0.921402
1.66214
2.78049
0.0214979
0.0229886
0.0215773
0.0253993
0.0217398
0.020664
0.344871
0.0209434
2.95508
0.0234404
0.46289
0.0200769
1.20501
0.866722
0.114316
0.327347
0.560728
0.0206165
0.0707865
0.512137
0.0208501
0.0216894
0.0213261
2.77655
2.17294
0.0214778
2.23268
0.0350615
0.0212415
3.16568
0.0227068
0.0613082
2.68998
3.33209
0.0211299
2.40013
0.0229911
0.0202733
2.31142
0.0401833
0.349988
0.475953
0.0274599
3.02944
0.279596
0.0260501
0.383532
1.52446
2.27169
0.0220506
0.0200337
0.0211146
0.0224932
0.342838
0.6546
2.83768
1.20242
0.0242353
0.0200209
0.0209172
0.023794
0.212151
0.0211989
0.422963
0.30904
0.0203728
0.0222157
2.26079
0.0545153
0.17202
0.337515
0.0213311
2.17028
0.363074
0.43082
0.0224354
0.0241321
0.148591
0.0213451
0.0226452
0.109291
0.0233979
0.179707
2.93257
0.0214451
0.0983235
0.146005
0.0455711
0.0368036
0.200838
0.255023
0.889326
0.0213562
0.932198
3.52685
0.0386941
0.0220598
0.0205234
0.0217537
0.0215378
0.958711
0.0224388
2.22326
0.0224553
0.0212503
2.5359
0.918656
0.0202788
0.0211257
0.222749
0.439635
0.0213794
0.0204514
0.0240635
0.0248408
0.214511
0.0616852
0.0205519
0.10845
0.0220589
0.426609
0.20471
0.410541
0.021274
0.107455
2.77115
0.407776
0.022055
0.459271
0.259197
0.276417
0.0202762
0.0225102
2.39078
0.146566
0.0694418
2.76085
0.0214194
0.0654644
0.0226569
0.048651
0.0674845
0.777292
0.146485
0.0250735
0.0209497
0.0486403
0.367593
0.0213469
0.0541707
0.288115
0.0709241
0.0206653
2.95254
0.141209
0.0707317
0.0225658
0.0215443
0.0215215
0.0241923
0.0358358
2.14058
0.108004
0.020431
0.0213003
0.338089
0.243426
0.0214411
0.317033
0.0545367
0.0224416
2.23722
1.36612
0.020277
2.21989
0.435941
3.07937
2.67971
0.020752
0.0891968
0.134433
0.0219463
0.0232125
0.364928
0.345246
3.07555
0.0294972
0.0213017
0.0246707
0.661774
0.023346
1.71361
0.0197584
0.021669
2.6195
0.364883
0.0316996
0.0949816
0.058789
0.0230116
0.243398
0.0615784
0.227173
0.431491
0.0548177
0.0603462
0.0213255
0.0213142
0.0575453
0.299376
2.56346
0.978892
0.127981
0.294646
0.295966
0.0280211
0.0209806
0.0217711
0.0668773
0.886256
0.0204704
0.0601441
0.294158
0.107047
2.11479
0.0360508
2.96324
0.0216514
0.0227247
0.367509
0.0313038
0.0217944
0.0223222
1.58483
0.0285631
0.0588142
0.0204049
0.0213089
0.345795
0.417206
0.0221539
0.616529
0.328574
0.0781519
0.0223041
0.40823
0.0210459
3.48918
0.107217
3.12867
0.0215338
0.190972
0.0200619
0.0213071
0.787657
2.5119
0.0921681
0.0203972
0.224097
0.495645
0.576092
0.494261
0.0414475
0.0223454
1.77797
0.185865
0.021226
0.0209456
0.412146
0.141339
1.02926
0.0256942
3.31239
0.0203662
0.0218007
0.798187
0.0649491
0.0211809
0.365385
0.0214277
0.0215159
0.0220703
0.0222401
0.410437
0.259102
0.0196401
0.0857408
0.0208899
0.0316389
0.382321
0.0218798
2.60318
3.37804
0.209634
0.219748
0.0214809
2.99509
0.0224497
0.148533
0.02074
0.136284
0.0304928
0.0244357
0.0214873
0.118932
0.0580704
0.566512
0.360506
0.0218924
0.0202682
0.327743
0.141273
0.0301069
0.822005
0.0241137
3.09563
0.0214711
0.19769
0.129312
0.468567
0.0203037
0.0578906
0.0500181
0.160438
0.0225602
0.0238699
0.0241203
0.0236439
0.0240772
0.0237617
0.0235937
0.0210468
0.0920154
3.13571
0.523315
0.024475
0.0212088
2.41016
0.384863
0.0212247
0.0609112
0.0233433
0.0227472
1.12788
0.345019
0.020254
3.97348
0.0214461
1.76045
0.227441
0.192221
0.0231626
0.0218074
0.0229175
0.0204426
0.0224156
0.346127
0.335849
0.0310165
0.412671
0.155017
0.0213738
0.0462142
0.38776
0.0215023
0.0241012
0.184899
0.0235352
0.0529666
0.0233517
0.0238638
0.045266
0.276949
0.0952614
3.31632
0.0248887
0.337763
0.0626566
0.570098
0.0627547
0.0274528
0.0210515
0.0241507
0.167414
0.395588
0.410623
0.0209803
2.20874
0.397675
0.333642
0.139452
1.069
3.13149
2.22821
0.0197577
0.0977332
0.0237387
0.206855
0.300631
0.353342
0.0211183
0.414689
0.0475954
0.127981
0.0210506
0.176573
0.0230585
0.220612
0.0226415
0.105716
0.174314
0.0249515
0.0208476
0.0217348
2.9417
0.0207659
0.242831
0.0575683
1.16614
0.0284499
0.475468
0.0667939
0.0212167
0.0206892
2.93876
0.0231919
0.0208509
0.0211474
0.418563
4.27275
0.123763
0.021389
0.0359542
0.35398
0.489153
0.0417398
0.0209682
0.126064
0.275753
0.0265514
0.0235158
0.0208049
1.65093
0.0206982
3.40443
0.32641
0.0394172
0.921208
0.206964
0.0203007
0.022732
0.412852
0.0233806
0.0255985
0.0210941
0.021351
0.41596
0.844703
0.0388977
0.0205075
3.61063
0.0624949
0.168709
0.0212187
0.0266883
0.0242929
0.152903
0.0212614
0.0503027
0.395642
0.0940263
0.0242858
0.0208191
0.0264841
0.025832
0.0437997
0.020228
0.021845
0.0215498
0.0215014
2.74417
2.77937
2.55577
0.0447722
0.0220291
0.0196711
2.51159
0.115152
1.79672
0.0238018
0.105191
0.0213057
0.0217603
0.0722909
0.020726
0.124253
0.0217926
2.29549
0.0202011
2.73866
0.0214642
0.291544
0.343105
0.0360748
0.260654
0.0196687
2.62928
0.020325
0.128545
0.427402
0.16205
0.020608
0.499331
0.920042
0.0678547
0.10598
0.0274046
0.111698
0.0200808
0.0370177
0.0204009
0.332207
2.05079
2.29765
3.46484
0.0217043
0.323206
0.0209312
0.0211168
0.956863
0.0201566
0.021027
0.0210855
0.0210059
0.237945
0.0224438
0.0232108
0.0219795
0.0212307
0.0210805
0.0225282
0.0240088
0.021477
0.0306455
0.0351604
0.0241737
0.393977
0.0231225
0.0573991
0.445486
0.0351651
0.0474169
0.104337
0.199018
0.0553817
2.06545
2.7496
2.40978
0.0203575
0.0209006
0.0234489
0.0199054
0.102119
0.0395688
0.0202412
2.7545
0.52387
0.643302
0.0378103
0.0578
0.0385367
0.021377
0.386887
0.117899
0.0223487
1.66612
2.13318
0.0215515
0.229604
0.329354
0.342643
0.0764635
0.0600459
0.0515959
0.0206672
0.0198711
0.0508826
2.63731
0.367806
0.0229041
0.021106
0.679283
0.0276937
0.0230105
0.0198199