/*--------------------------------*- C++ -*----------------------------------*\
| =========                 |                                                 |
| \\      /  F ield         | OpenFOAM: The Open Source CFD Toolbox           |
|  \\    /   O peration     | Version:  v2012                                 |
|   \\  /    A nd           | Website:  www.openfoam.com                      |
|    \\/     M anipulation  |                                                 |
\*---------------------------------------------------------------------------*/
FoamFile
{
    version     2.0;
    format      ascii;
    class       surfaceScalarField;
    location    "950";
    object      meshPhi;
}
// * * * * * * * * * * * * * * * * * * * * * * * * * * * * * * * * * * * * * //

dimensions      [0 3 -1 0 0 0 0];
oriented        oriented;


internalField   nonuniform List<scalar> 
14885
(
0.000162717
0.000464642
-0.000633579
0.00382881
-0.00205221
-0.00178007
0.000306083
-0.00291169
0.00259274
0.00127359
-0.00183356
0.000440669
-5.77069e-05
0.000487433
-0.000543921
-0.00358413
0.000776104
0.00280349
-0.00048404
-0.00187077
0.00235065
0.00102535
-0.00121146
0.000184848
0.000689464
-0.00047237
-0.000243367
0.00309158
-0.00121406
-0.00188277
-0.000216179
-0.0009279
0.00113653
0.00186197
0.00196355
0.000349272
-0.00224312
0.00189003
-0.000620655
0.00151366
-0.000924133
0.00285968
-0.00089
-0.0020009
-0.00152581
0.000873275
0.00277072
-0.00256026
-0.000215879
0.000879051
-0.00110245
0.00247174
-0.000520731
-0.00195732
0.00378322
-0.00101511
-0.00278936
0.00218214
-0.00183641
-0.00048167
0.000637984
0.00163502
-0.00048207
-0.000185025
0.00183846
-0.00165376
-0.00270195
0.000589818
0.00203248
2.56573e-05
-6.41841e-06
-2.99633e-05
0.00267771
0.000406627
0.000388699
-0.000416906
3.47822e-06
-0.000497215
-0.00309267
0.000489106
0.00110341
-0.00159298
-0.000368763
0.000151253
0.000125754
0.00196603
-0.000316477
-0.00164967
0.000630867
-0.000181044
-0.000475007
0.000200632
0.000406568
0.00118582
-0.000162221
0.00118544
-0.00106148
-0.000125314
0.000451402
-0.000103272
-0.000521407
-0.00064419
6.95756e-05
0.000538988
-0.00028465
-0.000168228
-4.50568e-05
4.65622e-05
-1.82196e-06
-0.00161399
0.00210258
0.000482312
-0.00187087
0.0022417
-0.000373283
-0.00390976
0.00350078
0.000400992
-0.00209714
0.000308136
0.00170253
-0.000804963
-0.0019586
-0.000194941
-1.28228e-05
0.000194289
0.00250666
0.000315811
0.000264894
-0.00219719
0.0019286
0.00228198
-0.00239953
0.000115013
-0.00205673
0.000182336
-3.71138e-05
0.000987775
-0.00107229
0.00226999
0.000265248
0.00219949
-0.00301939
0.0028081
0.00020682
-0.00207253
0.00192069
0.000149759
0.000313962
0.00186426
0.00145484
-0.00047301
-0.000990192
0.00288282
-0.00254025
-0.000369415
-1.8662e-05
1.68289e-05
7.29976e-07
0.00248394
-0.00222332
0.00301616
-0.00280291
-0.000217864
0.00200066
0.000239603
0.000943882
-0.00109947
0.000153519
0.0022296
-0.000320239
-0.00192614
0.00345688
-0.000992526
-0.00251423
0.00359024
-0.00122926
-0.00238407
0.000559531
-0.000703217
0.000138646
5.50187e-05
0.000114864
-0.000180309
0.000658812
-0.000104313
0.00201061
-0.00208737
7.44549e-05
-0.000242327
-0.00269182
0.00291145
-0.000152238
-0.000814475
0.000936525
0.000517892
0.00233586
0.00267263
0.000728099
-4.84315e-05
-0.00100068
0.00219042
-0.00120541
-0.000213585
4.81644e-06
0.00108267
-0.00209903
0.00168537
-0.00221188
-0.00348127
-0.000436341
-0.00179942
7.61944e-05
-0.000261425
5.49438e-05
0.000924791
-0.00012832
-0.000906545
0.00366539
-0.00144999
-0.00222537
-0.00239942
0.00248681
-9.16729e-05
0.00263653
0.000931085
0.00286125
-0.00256814
-0.00210679
0.00214342
-8.48264e-05
-0.000762761
-0.00173204
0.00247439
0.00268077
-0.00181783
-0.00086566
0.00147478
-0.00239222
0.0020332
-3.44589e-05
0.000269783
-0.00267361
0.00206495
-0.000234489
-0.00184617
0.002447
-0.0028213
0.000324482
0.00133519
-0.0013058
0.00253112
0.00202002
-0.00236649
0.000343251
-0.00269754
0.000301129
0.0023665
0.00196727
0.00071021
0.00269514
-0.0029188
0.000218514
-0.000914505
-0.00228257
0.00316792
-0.00151499
0.00205989
0.00244322
-0.000257388
-0.00219202
-0.00282061
0.00278446
1.5646e-07
0.000686772
-0.00184286
0.00115488
0.00325478
-0.000638298
0.00178129
-0.00226914
0.000258291
-0.00311452
0.00285139
-0.00343255
0.000541338
-0.000629871
0.00240733
0.00297771
-0.000288978
0.00111438
-0.00017341
0.000295826
0.00191551
2.20899e-05
0.000202381
-0.000236116
-0.000982806
0.00255339
-0.00158976
0.000263633
-6.06195e-05
-0.000304437
0.0003665
0.00107683
-3.07649e-05
0.00022052
-0.000200994
-2.00577e-05
-1.87356e-07
0.00356402
-0.00187484
-0.00169296
0.0025187
0.00104197
-0.000514193
-0.00166426
0.00115286
-0.00193147
-0.00205275
0.00221138
-0.000208799
-0.00234815
0.000258151
-0.000206226
-0.00281754
0.00170685
-0.00158821
-0.000118397
-0.00266191
0.00165888
-0.000741638
0.000749194
-3.86851e-05
0.00303033
-0.00218875
-0.000890411
-0.000248081
0.00218559
-0.00197904
-0.00199444
0.00329
-0.00134832
0.00146346
-0.00209646
0.000149606
-0.00206768
0.00191529
0.00341544
-0.000806825
-0.00263508
0.00115242
0.0013825
0.00298251
-0.00266941
-0.000326015
0.00251783
-0.000503117
0.000251738
-0.00209841
0.00184496
0.00019557
-2.34323e-05
-0.000202917
0.00225381
-0.001569
1.40152e-05
0.000346008
-0.00188113
0.00285521
-0.000981965
-0.000120529
-0.000554825
0.00157037
0.00208556
0.000213979
-0.000172604
0.00309924
-0.000101585
-0.00302267
-0.000607779
0.00226427
-0.00165985
0.00235284
0.000852958
0.000155298
-0.00016167
-2.73732e-05
-0.00286439
0.00241071
0.000442904
0.00197284
-0.00215532
0.000180939
0.000264212
0.00178363
0.000637881
-0.00252784
0.00158097
0.000125385
-0.00164857
-0.00042619
-0.00212574
0.00183864
3.58517e-06
1.455e-05
-0.000508266
0.000206978
0.000177334
-4.19808e-05
-2.2183e-06
0.00206287
-0.00191606
5.75475e-05
0.000292856
-0.00271603
0.00240761
0.00241564
-0.00302796
0.000914601
-0.00110205
-0.00205461
0.000539364
0.00010356
0.00108164
-0.000530657
0.000221135
0.000292235
0.00200519
-0.000256929
-0.00176399
-0.00104964
0.0021528
-0.00268576
-0.000593305
0.00327387
-0.00035255
-0.00208206
0.00234062
-0.00326318
0.000572207
-0.000737771
-0.00119585
0.00187765
-0.000771527
0.000613525
0.000828776
0.00214389
-0.000102726
0.000208269
0.00263656
0.000331351
0.0030022
-0.00121979
-0.00178781
-0.00220661
1.71188e-05
-0.0001953
0.000166536
5.80839e-05
-1.76682e-05
-4.18989e-05
0.00137889
0.000706008
-0.00208666
0.00241099
-0.00267387
6.01974e-06
-1.59735e-05
8.96767e-06
0.00188897
-7.65345e-05
-0.00181447
0.000320132
-0.000321904
-6.48536e-05
0.000581309
-0.00193736
0.00224722
-0.000763134
-8.58707e-06
0.000658264
0.00233685
-0.00288669
0.00303673
-0.000153917
0.00248919
-0.00103721
0.000935117
-0.00163995
0.000704733
0.00198733
-0.000244384
-0.00175847
-0.00139429
0.00129982
9.38465e-05
0.00083261
-3.19011e-06
0.00145448
-0.00169114
0.000236449
-0.00210064
0.00205219
4.67525e-05
-0.00312453
0.000543131
0.00257085
-0.000130508
0.000120812
-7.4729e-06
-0.00201807
-0.000351241
0.000177423
0.00196705
-0.000133103
-0.00156338
0.00169475
0.00212956
-0.000159623
0.00278893
1.94398e-05
-0.00252108
0.000486877
-8.89804e-05
-0.00016346
1.6256e-05
-0.00283687
-0.000299136
-0.00316264
0.00294868
0.000200711
0.000241134
-0.000712919
0.00029148
-0.000512611
-0.000141891
0.000649136
-8.2696e-06
0.000101408
-0.000110594
-0.000491911
0.0031199
-0.00263602
0.000629933
-2.33372e-05
-0.000741144
-0.000134121
-0.00144944
-0.000111438
0.00156016
0.000228128
0.00176063
-0.00156002
0.000109491
0.000142443
-0.000934946
-0.000981342
-6.84155e-05
-0.000269743
-0.00268277
0.00292264
0.000982642
0.00240473
0.000395061
-0.00297787
0.0025744
0.00140743
-0.00234335
-0.000134228
-0.00067113
-0.00146726
-0.000915698
0.00216226
-0.000785231
2.57428e-05
0.000154903
0.00113805
-0.00193002
-0.00110803
0.00373658
-0.00129904
-0.00246867
0.00141715
-8.31131e-05
0.00251657
0.000329539
0.00167555
0.000161638
-0.000271623
0.00291002
-0.00264816
0.00209875
-0.00026102
-0.00184074
-2.14733e-05
5.32236e-07
-3.68439e-05
-6.61928e-06
0.00257627
0.000165227
-0.00274584
0.00045014
-0.000621868
0.000300485
0.00179363
0.00268598
-0.000181965
-0.00159704
-0.00127467
0.000405892
-1.18263e-05
-0.000238324
0.00267521
-0.000755425
-3.41313e-05
0.00355369
-0.0017094
-0.00185525
0.000812435
0.00161771
-0.0024341
0.00274449
0.00032504
0.00102673
0.00268564
3.29334e-05
0.000229097
0.00332768
-0.00268419
-0.000670454
-0.000776498
-0.000529818
3.02396e-05
-0.000940899
0.000785548
0.000435807
-0.00218562
-4.95273e-05
-0.000671308
0.00068684
-0.000994865
0.000845484
0.000209734
-0.00023637
-0.000115928
-0.0024727
0.00327974
-0.00179705
0.00221454
0.00150935
0.0020329
8.61537e-06
5.04974e-05
-0.00014502
0.000465621
-0.00196909
-0.000422017
0.00199255
-0.00163177
0.00212789
0.000151192
-0.00165428
0.0016093
9.05115e-06
-0.00198347
-0.000105603
0.000726356
0.00257193
0.00136282
-0.000366843
-0.00100777
0.00273594
-0.000894949
-0.00185294
0.00195029
-0.000236111
-0.00178764
-0.000126585
5.36383e-05
-0.000294912
-0.000261726
-0.000173463
0.000238003
-0.0022424
0.00199867
0.00151955
-0.000584659
0.000347029
0.00237433
-0.000379126
9.7712e-05
9.17133e-05
0.00141415
3.91401e-05
-0.00145421
0.000992543
0.00176552
-0.00277401
0.000312858
2.6656e-05
-0.000353117
7.20797e-05
-0.000568016
0.000490925
7.35092e-06
0.000118002
0.00225183
-0.00195825
-0.000297756
-0.000123478
0.00231418
-0.00221184
9.89691e-05
-0.000366528
8.45773e-05
0.00152039
-0.00219066
0.000669631
-0.00213317
0.000730178
-0.00142381
0.00066792
-0.00296883
-0.000168473
0.00313044
0.00384165
-0.00289179
0.00151634
-0.00199726
9.77238e-05
-0.000123278
-0.000271372
-0.00263006
8.6161e-06
-3.27232e-06
-0.00279617
0.00251528
-0.00134386
0.00232207
0.00120672
0.00180603
0.00170874
-0.00188006
0.000133342
7.89339e-07
-3.81501e-05
-0.00284581
-0.000129002
0.00215952
-0.000639222
0.000290597
1.43012e-05
-0.00114893
-0.00168777
0.0027848
-0.000396256
0.00278469
-0.00056272
0.00127031
0.00212739
-0.00227169
0.000542282
-0.000475179
1.79247e-05
0.000181705
3.723e-05
2.08869e-05
-0.00186542
0.000156466
0.00170687
-0.000193966
0.000204782
-4.11043e-05
-2.16794e-05
4.06118e-05
-0.00196774
-1.77666e-05
0.000355258
0.000995072
0.00080995
-9.78229e-05
-0.000715735
8.77488e-05
-7.84691e-05
-9.76258e-06
-0.000266129
0.000333388
-0.0017455
0.000184953
0.00154297
0.00272467
-0.00194721
0.00251331
0.000296412
0.00195095
-0.00194082
0.00207756
-0.00265694
0.00275543
-0.000147474
-0.000247767
0.000706545
-0.000132704
0.000169461
-8.04987e-05
0.00165181
-0.0017867
-9.08327e-05
-0.000482097
0.00245365
-0.00162089
-0.000836048
0.000686277
0.000119451
-0.000735025
-4.59219e-05
-0.000353614
0.00276486
0.00200561
-0.00175549
-0.000287383
0.0022743
-0.00199122
-2.08972e-05
-2.31852e-06
-0.0019107
0.000206513
0.00168531
0.000262785
-0.000226809
-0.00016222
-0.000791099
0.00062218
-0.00153713
0.00160432
-0.000107509
0.000315887
-0.0007465
0.000315478
0.000315655
-0.00273427
0.00239392
0.000213432
0.00215792
-0.00239013
0.00192029
-0.00217082
0.00256137
-0.0022693
-0.000473047
0.000580576
-0.000119602
1.19823e-05
-0.00281984
-0.000212324
-0.00155117
-0.00299267
0.00269298
-3.89616e-05
-0.000192643
-0.00145653
0.00164839
-4.91155e-05
1.19013e-05
1.261e-05
0.00292183
-0.000176733
-0.00059745
0.00033474
0.00259198
-0.00231406
0.00200971
-0.00026062
-0.00175297
0.00211064
-0.00246801
-9.39881e-05
-0.000500228
0.000683781
-0.000290848
-0.000258575
0.00253514
-0.00230322
0.00227656
0.00296704
-0.00263371
-0.000337317
-7.06871e-07
7.41887e-05
5.74999e-05
1.95839e-05
1.64981e-06
-1.64981e-06
0.00177107
0.000711441
-0.00183573
0.00173241
7.20809e-05
-0.00136609
0.000987502
-0.00036063
0.00294477
-0.00259388
-0.000243033
0.00279006
-0.00255152
0.00243067
-0.000662944
-0.0028678
0.00268997
0.000131005
0.00253477
-0.00290489
0.00297633
-0.00258989
0.00221255
0.000458959
0.00224795
-0.000845676
-0.00140343
-0.00023554
-0.000305567
0.00018707
2.2537e-05
0.00232599
-0.0019922
-0.000367081
0.00030358
-4.65923e-06
0.00345129
-0.00275587
-0.00163493
0.00163382
-3.17538e-07
0.00240444
-0.00220996
-0.000188001
0.00170191
-0.00153128
-0.000400172
0.00250691
0.00326647
-0.00165294
-0.00199556
0.000115114
0.00178171
0.000181407
0.00100233
-0.000215226
-0.000299244
0.00115984
-0.00147631
0.000991135
-0.000114204
0.00144928
-0.00154695
9.6883e-05
-0.00030039
0.0002818
1.44018e-05
0.00281513
-0.000373011
-0.00126578
0.00163766
0.000107417
-0.000592616
0.000139061
0.0018643
0.000574624
8.08199e-05
-0.000666179
0.000307153
0.00259221
0.000714907
0.00270341
0.00337444
-0.00161589
-0.00176479
-0.00119169
0.00230481
-0.00111931
0.0018914
-0.00215583
0.000158315
0.00222469
0.00106093
-0.000141995
-0.000921973
0.00307901
-0.000378844
-0.00272715
0.000633402
-0.00264224
0.00200158
0.00275656
9.26258e-06
0.000221339
-0.000245392
0.0011164
0.00193988
0.000164788
-0.000177425
-2.48437e-05
0.00182437
-0.00222763
-0.000157352
-0.000664525
-0.000158711
0.000164663
-4.81489e-05
0.00208313
0.00080415
-0.00291129
0.00300663
-0.000234223
-0.00278249
0.00146322
0.00190488
0.000675154
-0.000750502
-0.00222891
-0.00065231
0.00271147
-0.000118927
-0.000107327
0.00119196
-0.00239003
-0.000415574
-0.000644743
-6.39071e-05
0.000627621
0.000246676
0.00232883
0.00201323
0.000107048
-0.00212294
-0.00101009
-3.39362e-05
-2.36774e-05
3.67923e-05
0.00172651
0.000192014
-0.000332107
0.000303723
3.38776e-06
-0.000656296
0.00276025
0.000197731
0.00263012
-0.002842
-8.03162e-05
5.74592e-05
4.71645e-05
-1.57617e-06
-4.53152e-05
0.000228552
0.000827727
9.40468e-05
0.00196576
-0.000919995
-2.4867e-05
0.000173854
-0.000159623
0.00128557
-0.000942409
0.00225102
-0.00290308
0.000645316
-0.000696234
0.00294004
0.00163613
0.000610717
0.000773184
0.000773162
-0.00158487
8.24996e-06
0.00219768
-0.00175016
0.00011367
-2.00953e-05
3.59145e-06
-4.02406e-05
3.62533e-05
-0.000154972
-0.000207533
0.00223754
-0.00122089
-0.00110428
-0.00105794
0.0010369
1.7165e-06
-5.43049e-05
-0.00102314
0.000318323
0.00197746
-7.95489e-05
-0.000577393
0.00245788
-0.00242188
0.00146556
-0.00214035
0.00179968
-0.00207246
0.00210391
-0.002013
-0.000495987
0.000433897
4.83056e-05
-0.00158048
1.23072e-05
0.00156708
0.00217552
-0.000164784
0.00248413
-0.000404556
-0.00208336
6.51808e-05
-0.000233496
0.00202624
-0.00181358
2.34518e-05
-8.4484e-05
0.000944039
0.0023182
-0.000259027
0.00212258
-0.00191917
0.00187538
9.69421e-05
0.00243884
-0.00230237
0.00217588
0.000337587
0.000170413
-1.73457e-06
0.00210889
-0.00235275
2.18379e-05
-1.86268e-05
0.000326248
0.00094677
0.00041599
-0.00233552
0.00191502
2.852e-05
-8.32948e-05
0.000571673
-0.000608382
-3.69716e-05
0.0020847
0.0022911
0.000980233
-0.00327628
0.000595045
-0.000677162
-0.00204724
0.00186446
0.000163922
0.00296313
-0.000265198
-0.00271293
-0.00189001
0.00202683
0.000418964
0.00015032
-0.000190248
-0.00189239
-0.000299526
0.00187517
0.00026732
-0.00214596
-0.00265253
0.00264197
-3.15143e-05
-0.000157882
0.000246702
0.00212362
-0.00111575
0.0034018
-0.00173101
-0.000994331
0.00271967
0.000162463
-0.00249835
0.00232646
-0.000223787
-0.000132669
0.000280972
-3.19278e-05
3.12451e-06
2.77136e-05
-0.00292754
0.000334238
0.00258285
-0.00282558
0.00249213
0.000322473
-0.00283711
0.00270055
0.000123731
0.000158074
-0.0017234
0.000523431
-0.000117701
-0.00150894
0.00111106
0.000287176
0.00268232
8.39294e-05
-0.00279687
3.45486e-05
-0.00192918
-0.000452295
-0.00137087
0.00175043
0.00283136
0.000883542
0.00126085
-0.00257286
0.00263144
-0.000101934
-0.000499903
0.000456862
2.85753e-05
-0.00198921
0.00261533
-0.00210828
0.0022624
0.00344834
-0.00206463
-0.0023491
0.00257927
0.00391445
-0.00204801
-0.00187469
0.00170857
-0.00196801
-0.00293738
0.000501289
0.00242533
0.000685769
0.00273024
-0.00287369
0.000206276
0.00262299
-2.83444e-05
-4.00342e-06
0.0023056
-0.000433172
-0.00274382
-0.000168053
-0.000181582
-0.000199469
0.000368283
0.000402742
0.00254471
-0.00149852
-0.00135887
-0.00267308
0.000202386
0.00241897
-0.00286761
8.86929e-05
0.00277131
0.000562862
0.0028074
-0.000235586
0.00028158
-0.000873578
-0.000308733
0.000904081
-0.000101675
-0.000813148
-0.000111436
0.00138324
-0.00191043
-0.00209061
0.00223377
-0.000144807
0.00062338
-0.000131642
0.000842932
-0.000844137
-2.82971e-05
0.00176913
0.00213674
-2.24036e-05
6.67554e-07
-0.000302808
-0.00263187
0.00292905
-0.00253779
0.000801513
-0.000664149
0.000243143
0.000398085
-0.00162294
0.00155505
5.15897e-05
0.00121826
0.00123306
-0.00325943
0.000419397
0.00282853
0.00204652
-0.000102239
-0.000102439
0.00016223
0.000176765
-0.000370743
-0.000162224
-1.38055e-05
0.00016318
-0.000350358
-2.06194e-06
0.00034542
-0.00118701
0.000206925
0.000968555
0.00290713
-0.0031465
0.000346815
0.00279163
-0.00262107
0.00269992
-0.000132547
-1.26142e-05
4.96783e-06
6.01047e-06
0.00239919
-0.002223
-0.000179263
0.00208092
-0.00234435
-0.000872676
-3.27687e-05
-3.6925e-05
-0.000756498
0.000614832
6.24072e-05
0.000251073
0.0021449
0.00187051
0.000135905
0.000124408
0.000768023
-0.00152865
0.00168483
0.00225006
-0.0010573
-0.00125543
0.00027695
-0.00231063
0.00203137
-0.000582534
0.000230337
0.000339807
-0.000262026
-0.000422986
0.00195049
-0.00335414
-0.00239421
0.000661561
-0.00279789
0.00288537
-0.000128515
-0.000179452
0.000253642
-0.000138865
-0.000133511
-0.00240939
-0.000103665
0.00248842
0.00248041
-0.00272954
0.000243114
-0.00186351
0.000171208
0.00161265
0.000869939
-9.01642e-05
-0.000792243
0.000220317
-0.000212951
-0.00254423
-0.000402765
-0.00329635
-0.000292658
0.000512962
0.000221028
0.00165378
6.87132e-05
0.00192052
0.000201174
-0.000205613
-0.00270863
0.00246127
-0.000373888
-0.000460161
6.40856e-05
0.00056767
-0.000582572
0.000616974
-0.000585948
0.00023742
0.00020493
2.96924e-05
0.000784632
-0.00143351
0.00124022
3.13097e-05
0.000175735
-0.00185128
4.28466e-05
0.00176812
-0.00166356
-0.000199024
-0.00254771
4.50318e-07
4.54559e-07
-0.000488428
-0.000156881
0.000211937
-0.000108324
0.00299326
-0.00279197
-0.000210954
-0.00050838
-0.00157751
-0.00155893
0.00220653
-0.000698875
0.000164624
-0.000218879
-0.00223882
0.000627477
-0.000162523
0.00107199
-0.00231549
0.000144117
0.000712843
-0.000328317
-0.000266489
-0.00115025
0.0031573
0.000337632
0.000553109
0.00175802
-0.00231619
0.00328579
-0.00260287
0.000255018
0.000506876
-0.000646311
-0.000289886
0.00300532
-0.00272448
-0.000494204
-0.000191352
-0.00170245
0.00281702
-0.00112566
0.00259208
-0.00204417
0.000549411
-0.00162588
0.00192196
0.00104186
0.00114488
1.83743e-05
-0.00272196
0.00115957
-0.00200615
0.000845694
0.00267643
0.000304781
-0.00153829
0.00170545
0.000652925
-0.00156812
0.000914631
-0.00242761
0.00230261
9.73939e-05
-0.00196715
0.00183349
0.000128945
0.000107654
-0.00182385
0.00165895
-0.00294288
0.00272137
0.000178411
-4.30194e-05
-0.000466188
-4.57421e-05
0.000607895
-0.000508467
0.00196225
-0.00080321
0.0024411
-0.00210691
-3.93541e-05
2.25673e-05
0.00169864
-6.59477e-05
0.00236817
-0.00269041
0.000266219
0.00273087
-0.00302973
1.06615e-05
3.413e-05
0.000137189
0.00230568
-6.41824e-05
-0.000390731
0.000108167
0.00180628
-0.00212942
0.000212608
0.0018816
0.00142684
0.00131798
-0.000262678
0.00273721
-1.46017e-05
-0.00260003
-7.95201e-06
-6.23577e-06
-5.59833e-05
0.000131429
0.000115336
-0.00204575
0.00187788
-0.00141786
0.000100013
0.00124734
-0.00251274
0.0025927
-9.04337e-05
-0.000145287
-0.00272923
0.00301318
0.000137293
0.00255667
-8.92709e-05
0.000270892
0.00182782
-0.00197655
0.00190045
2.09381e-05
-9.99533e-05
-0.00265269
-5.88612e-05
-0.00219266
0.000107432
-2.20896e-05
0.00154247
-0.00162399
3.40447e-05
0.000290982
-0.00192103
-0.000971127
-0.00143056
-5.87964e-05
5.53343e-06
5.21344e-05
0.000448762
-0.00316137
1.67462e-05
8.56678e-05
-0.000250383
0.00152079
-0.000797165
-0.000724697
-0.00181567
-0.00249979
-0.00026078
0.0012477
-0.00270667
4.80299e-07
-3.56809e-05
3.50565e-05
-0.00128092
0.00248391
-0.00163121
0.00191804
0.00178736
-0.00173907
-0.000134947
0.000197654
-0.000113745
-0.000230621
-0.00193346
0.00107136
-0.000221609
-0.00085352
0.000108596
0.00161896
-0.0021692
0.000288483
0.0010837
0.00116244
-0.00228136
-2.19522e-05
-1.94693e-06
-0.00158007
0.00176834
0.000194283
-0.00238107
0.00215387
0.000151321
-0.0016087
-0.00116639
-0.000473906
0.000297647
-0.000335528
2.45789e-05
-0.00165913
0.00188501
-0.00015311
0.00014659
-3.92019e-06
6.30361e-06
4.20817e-05
-0.000663174
0.000650498
-0.0022716
0.00235817
0.000149488
0.00176558
-0.00184409
-0.00219184
0.000320072
0.00182546
0.00167329
-0.000673936
-0.00102553
0.000180607
-0.000494213
-0.000554597
-0.0010424
0.000346773
0.00235937
-2.3064e-05
4.63854e-07
2.22771e-05
-0.00207561
0.00176384
0.00251147
-0.0023906
-0.000141751
-0.00174351
0.00236941
-0.000266247
0.00275327
-0.000933871
-0.00182657
-0.00201792
0.00173461
0.000191515
-0.000247127
9.10913e-05
-6.31196e-05
-2.81852e-05
-0.000293233
-6.65109e-05
0.000232573
6.17023e-05
-0.00172798
0.00151625
0.000135508
-0.0018335
2.48393e-05
0.00177585
-0.000286959
-1.79115e-05
0.00012797
5.92471e-06
0.000151302
-0.00168148
0.00198625
-0.000932556
0.000584062
0.002668
-1.86681e-05
-0.000495172
0.00278887
0.00100666
0.000641342
0.000926239
0.00279529
-0.000171559
-0.00262743
-0.00196675
-0.00176482
-0.00115829
0.000888876
1.90035e-05
-1.05932e-05
-0.00107748
0.000239466
0.00186044
-0.00120791
-5.73478e-05
0.00262015
0.000281182
-0.00290849
0.00156514
0.000120058
-0.00151049
0.002578
-0.00181048
0.00229204
0.000227866
9.73013e-05
-0.000981018
0.00250563
-0.00156003
-0.00190741
0.00292457
-0.00102754
-0.000275159
0.000300691
-2.99384e-05
0.000777957
-0.000640883
-0.000141218
-0.00227802
8.29561e-05
0.00219129
-2.2481e-05
-2.22562e-08
-0.00032451
1.18655e-05
0.000306883
8.47945e-05
-0.000488293
-0.00254161
0.00272554
-7.53592e-05
-5.93128e-05
0.00301007
-0.00236613
-0.00238177
0.00216582
0.000192214
0.000136151
0.000957378
-0.002671
-0.0021558
0.000146697
0.00195721
0.000214245
0.00164483
-0.000351084
-0.00248419
0.000108541
-0.00024371
0.000957367
-0.000733153
3.08778e-06
0.000441364
-0.00045091
-3.29423e-05
-0.00183509
0.00182618
0.00224866
-0.000189719
-0.00208997
0.00036884
0.00259793
-1.25847e-05
-0.00190289
-0.00293778
7.89247e-05
0.00336431
-0.00184682
0.00311177
-0.000324516
-0.00279489
0.000208816
0.00200692
0.00280786
-0.000325199
-0.000154693
0.000164289
-1.15498e-05
1.18381e-05
-0.00242173
0.000416432
0.0023722
-0.000343461
-0.000338495
-0.0018322
3.21796e-05
0.00176282
0.00209969
0.000228364
-0.00234951
0.00072054
-0.00142053
0.000397276
-0.000877867
0.000336592
0.00259061
-7.47965e-05
-0.0025266
-0.00311409
0.00211497
-0.000357457
0.000200395
0.00262941
-0.000380797
-0.0022807
-1.51754e-05
1.38864e-05
0.000264962
1.54138e-05
-0.00188124
0.00158227
-0.00180852
0.000141952
-0.000194028
-5.61636e-05
-3.12491e-06
0.000706079
-0.000655388
-6.09337e-05
0.00320456
-0.00056045
-0.00266711
0.000523408
-0.000453286
-7.63355e-05
-1.51754e-05
-0.00237514
-0.00120999
0.000133179
0.00106686
0.00293816
-0.00032593
7.6843e-05
0.00141832
0.00194056
-2.10232e-05
-0.00195966
1.10216e-05
0.000823564
-0.00293996
5.46033e-05
-5.42604e-05
0.00273282
6.50339e-05
0.00043444
0.00032722
0.00262753
-0.00296132
0.000431913
8.23865e-05
0.00161507
-0.00246407
0.00223973
0.000194141
0.00258493
0.00200756
9.33164e-05
0.00216954
0.000409191
-0.000412354
-2.28312e-05
-6.13261e-07
6.61964e-06
-0.00033683
-0.00254743
0.00246694
7.26401e-05
0.000301706
-0.00300071
0.00268986
0.00231124
-0.00161581
3.42623e-05
-0.000635772
0.00209265
-0.00146771
0.000161423
0.000792195
-0.00149856
0.00164839
-0.00175513
-0.000107717
0.00220633
-0.0010663
0.00269463
-0.00300312
0.00318213
-0.000405881
-0.00279242
0.000330025
0.000720687
-0.00263787
0.00142808
-0.00138983
0.000495074
-0.00189561
0.00258509
0.00045508
6.23099e-05
-9.25904e-07
-0.000345167
0.000241208
-0.00342644
0.00182589
0.00158359
1.26599e-05
-2.56342e-05
1.11121e-05
-0.00296862
-0.00171641
-0.000283572
0.00192204
-0.000253534
0.00285294
-0.00260407
-0.00279386
0.00184363
-2.19216e-05
-1.95671e-06
-0.0020876
-0.000138807
-0.0025272
0.0022859
0.000194906
-0.00247037
0.00208109
0.000384913
-0.000134444
0.000150635
0.000623148
-1.52443e-05
-1.09328e-05
2.10311e-05
0.000210544
-0.00257561
-0.00253256
-0.000293201
0.00278968
0.000130894
-0.00210919
-0.000138173
0.00245044
0.000177388
-9.61577e-05
-0.00139066
-8.57174e-05
0.00216092
-0.00207781
-0.0021584
0.00251745
-0.00279659
-0.00166598
-0.000140499
-0.00134977
0.00122052
6.19287e-05
-0.00154011
0.00175312
-7.09461e-05
5.68841e-06
-0.000283826
-0.000322745
-0.00242322
-1.77149e-05
0.000208672
0.0020368
-0.00194362
0.000174792
-0.000575313
-0.000149218
0.00302352
-0.000354476
-0.00267991
-0.00191218
0.00026925
0.00283412
9.11662e-06
-0.000126684
9.37413e-05
-0.000320119
-0.00162625
0.000127124
-1.09112e-05
-0.000127302
-0.000388386
-0.000452831
0.00313609
-0.00287544
-0.000893943
0.000668364
-0.00215419
0.00307208
-0.000925518
0.00225339
0.00272714
7.77524e-05
-0.00281273
-0.000303924
0.00226746
0.0026571
0.000354732
-7.37575e-05
-0.0030789
0.00107326
0.000139215
0.00129119
-0.000219209
-0.00171869
0.00272998
-0.00240559
0.001695
-0.00154458
0.00210094
-0.00218929
0.00291629
-0.00145582
-2.55635e-05
-7.97502e-06
2.42983e-05
0.00131483
-0.00096687
-0.000372112
-2.17488e-06
-0.000153439
-0.00301462
3.86921e-06
0.000399015
-0.00189022
0.00177266
0.000110008
-0.00185793
0.00210965
1.2464e-05
-0.000186313
-0.00190362
0.000198896
0.00170381
0.000504173
0.00197494
4.51672e-05
4.58722e-05
0.000185521
0.000127337
9.64163e-06
-2.70321e-06
-3.14576e-05
-0.000103003
-0.00235063
-0.00266127
9.74986e-05
0.00256462
-5.15968e-05
-0.002521
0.000531288
5.02462e-06
-0.0005501
0.00213355
-0.0019293
-0.000206883
-0.000124971
0.0022408
-0.00212494
0.00186547
-0.00288528
-0.000251168
0.00031005
-0.000208163
-4.6615e-05
-0.00164387
0.00168928
0.0027723
-0.000306362
-0.00248162
-0.00188143
9.8355e-05
0.00177292
-4.7512e-06
0.000360339
-0.000361899
9.84748e-05
-0.000327265
-0.00219493
0.0024786
0.000100053
0.000595288
0.00302323
0.00291238
0.000253277
0.00182466
0.00111689
6.96273e-05
-0.00119003
-0.0031744
0.000532625
-0.00272321
0.00306203
0.00103515
0.00169282
0.000102439
0.00160046
-0.00164826
0.00166028
0.00020554
-0.00186655
-0.000129606
0.00158599
-0.00145699
0.000216563
0.00160145
-0.00181856
0.00266177
0.000261968
0.0018468
-0.00214833
-0.000379388
-0.00272676
0.00309819
0.00292408
-0.00170503
0.00279564
0.000253059
0.00187722
-0.000771552
0.00156125
-0.000790555
-7.00459e-05
-0.00179582
0.000326086
0.00252087
-0.0023803
0.00065213
0.00187549
2.48226e-05
-7.60568e-05
-0.000243773
-0.00180942
0.00173496
-0.00202493
-0.00131211
0.00135858
-4.57951e-06
0.00157576
0.000231854
0.001059
-0.00246787
-0.00214994
0.000160311
0.00198587
0.00112937
-1.8205e-05
-0.00111465
-0.0003451
0.000237027
0.00303208
-0.00247978
-0.00311045
0.00267319
-0.00235194
-0.000191342
0.000288618
0.000331064
-0.00263804
0.0022993
-0.00191593
0.00179978
0.000110193
-0.00194963
0.000134001
0.00175921
-8.31946e-05
0.000535555
-0.000472439
0.00023643
-0.00216845
0.00273942
0.000256218
-3.58487e-05
-0.00184461
-0.00212654
0.00228806
0.00209026
-0.00186802
6.05313e-06
1.29017e-05
0.00128587
-0.000588845
0.000215135
-0.00258927
0.00101661
0.00169816
-0.0027266
0.00264714
0.00305787
-0.000413328
-0.000482697
5.24578e-05
0.00042004
-0.00030206
-0.00171846
-0.00172361
0.000759547
-0.00180986
6.89718e-05
0.00232366
-0.00295659
0.0028439
8.69454e-05
-0.00242413
0.000143689
0.00227006
0.000485603
5.19468e-05
-0.000188572
0.000201194
-1.51264e-05
0.00249612
-8.73331e-05
-0.00190005
-0.00010412
0.000996448
-0.000175143
-0.000832331
-0.0026011
0.00298769
-0.000344413
0.000159673
-0.00234072
0.0021723
0.0016192
-0.000124486
0.00308563
-0.000189853
0.000630361
0.00251526
-5.74329e-05
0.000498881
-0.00045131
0.00250357
0.000198975
-0.00272384
-0.00202394
-0.000129104
0.000535197
-5.49648e-05
0.000214436
0.00135005
-0.00102963
0.00101397
-1.51864e-05
-0.00143321
-0.000723454
2.29117e-05
-1.23012e-05
-0.00135499
2.2575e-05
0.00128842
0.0018149
-0.000110116
-0.00171405
-0.00199784
0.0021736
0.00253202
0.000584292
3.12619e-06
-0.00060753
3.79362e-05
-0.00109841
0.000574462
-0.000428438
-0.000159204
0.000360321
0.00268432
-0.00234751
-0.000383387
0.000372377
0.00202715
0.000145512
-0.00132217
-0.00286551
0.000298676
0.000230446
0.00261781
0.00201543
0.00281825
0.000250016
-0.000207291
0.000267086
-0.000186049
0.000723271
-0.00288495
0.000951675
-0.00116165
0.000204013
-0.0021731
-0.00233745
0.0021219
0.000213937
-0.00278668
0.00175592
0.00267376
-0.00145798
2.39668e-05
0.00220966
0.000271625
-1.1729e-06
-0.000230974
-0.000133362
-0.00166764
-0.000265026
-0.00305867
0.0033854
-0.00214843
-0.000573791
-7.80305e-05
0.000651584
-0.00162882
-6.73735e-05
0.000512122
-0.000447578
-0.00302713
0.00028569
0.00273075
-0.000159646
0.00110567
0.000280932
0.000112316
0.00169253
0.000445493
1.35772e-05
-0.000479443
-0.00160612
0.00238648
0.00020804
1.96494e-05
0.000331993
-0.000443652
-0.00266875
0.00235346
0.000292046
-0.000116121
0.00166173
8.25166e-05
-0.000656322
0.000306871
-0.0025387
-1.79084e-05
-0.00123363
0.000217001
0.000995769
0.0020732
0.000839383
-0.000299149
9.69165e-05
0.00264029
4.8207e-05
-0.00159968
0.00163764
-6.09316e-05
7.61271e-05
0.000207752
-0.000308135
0.000281241
-1.03053e-05
-0.000285208
0.000200664
0.0019359
-0.00213933
-0.00160255
6.80698e-05
0.00153344
0.00101614
-0.000819554
0.000883421
-0.000136676
-0.0023836
-0.000169685
-0.00198059
0.00211978
0.00102913
0.000107795
0.00259863
-4.10672e-05
-0.00079205
-0.00127148
3.24052e-05
0.00119559
-0.0019483
0.00279057
-0.00298624
-3.09632e-05
1.09616e-05
0.00259365
-0.00239925
-0.000586694
0.00059061
-6.91214e-05
-0.000532456
-0.00219798
0.00265223
0.000346265
7.96945e-05
0.000499981
0.00175396
-0.00165164
0.000105059
0.000784472
-0.000889855
9.93101e-05
-1.15426e-05
-9.96603e-05
0.000262781
-0.00278861
0.00252034
0.00232236
-0.00217137
0.000746821
-0.00151913
-0.00246961
-0.00024376
0.00306212
-0.000306251
-0.00276657
-6.92955e-05
-0.00134716
0.000149663
-0.00157264
-0.0028048
0.000327098
9.92897e-05
-9.52239e-05
-1.57102e-05
-0.00188081
-0.00123773
0.00242003