/*--------------------------------*- C++ -*----------------------------------*\
| =========                 |                                                 |
| \\      /  F ield         | OpenFOAM: The Open Source CFD Toolbox           |
|  \\    /   O peration     | Version:  v2012                                 |
|   \\  /    A nd           | Website:  www.openfoam.com                      |
|    \\/     M anipulation  |                                                 |
\*---------------------------------------------------------------------------*/
FoamFile
{
    version     2.0;
    format      ascii;
    class       surfaceVectorField;
    location    "950";
    object      Uf_0;
}
// * * * * * * * * * * * * * * * * * * * * * * * * * * * * * * * * * * * * * //

dimensions      [0 1 -1 0 0 0 0];


internalField   nonuniform List<vector> 
14885
(
(1.02633 -0.0333664 -2.49221e-23)
(1.02282 -0.0337302 -6.64144e-23)
(1.01988 -0.0398565 -1.55721e-21)
(0.906642 0.33274 -8.84526e-21)
(0.886001 0.333697 2.47566e-21)
(0.889316 0.31891 -1.89822e-20)
(1.04679 0.064498 -2.16506e-22)
(1.05334 0.0653826 3.84999e-23)
(1.04976 0.0583477 9.45939e-23)
(1.0168 0.00140489 2.64169e-22)
(1.01694 0.00150078 0)
(1.01694 0.00139569 0)
(1.01283 0.000608274 0)
(1.01251 0.000466238 0)
(1.01289 0.000661839 0)
(0.962822 -0.211721 -1.92554e-21)
(0.953455 -0.200955 4.57137e-22)
(0.96963 -0.20013 -1.73988e-21)
(0.813394 0.0459616 1.45048e-21)
(0.815453 0.062714 -8.63484e-22)
(0.833283 0.0476238 -9.18849e-22)
(0.911266 0.22412 4.55391e-21)
(0.910885 0.232391 -3.93403e-21)
(0.901351 0.220077 2.32673e-21)
(1.01252 0.00032677 -1.42445e-21)
(1.01259 0.000395698 8.63363e-22)
(1.01264 0.00039338 -2.18585e-24)
(1.00097 -0.0575521 -1.69727e-21)
(0.992928 -0.0586596 -7.42884e-21)
(0.999177 -0.0665127 3.81471e-21)
(1.07432 0.0514289 -9.58859e-22)
(1.07043 0.0665843 -5.27813e-21)
(1.06999 0.0587312 1.23859e-21)
(0.921562 0.323693 1.82772e-21)
(0.926389 0.341723 -3.37902e-21)
(1.01252 0.0556387 4.9906e-21)
(1.0153 0.0596039 4.55134e-21)
(1.01746 0.0550559 -1.55932e-21)
(1.00966 0.00104845 2.90587e-23)
(1.01005 0.00125446 9.08272e-22)
(1.00965 0.0017188 -1.64355e-21)
(1.02649 0.00254879 1.13075e-21)
(1.02699 0.00256424 1.97469e-21)
(1.02678 0.00295505 1.97159e-21)
(1.00921 0.000743633 -8.19877e-22)
(1.0098 0.000404609 9.80504e-22)
(0.977503 -0.226202 3.79924e-21)
(0.96676 -0.23724 -7.42053e-21)
(0.981751 -0.227293 -6.50547e-21)
(1.07535 0.0382012 -9.86498e-22)
(1.07537 0.0422038 -2.3736e-21)
(1.03393 0.0193538 0)
(1.03547 0.0203336 0)
(1.03388 0.0215222 -9.43294e-22)
(1.04378 0.00679573 6.0809e-22)
(1.04508 0.00425587 5.19965e-22)
(1.0469 0.00718328 9.43526e-22)
(1.01064 0.0514705 -4.88464e-21)
(1.00761 0.0558415 8.58975e-21)
(1.03014 -0.0330293 -4.42496e-22)
(1.03117 -0.0276063 -1.15307e-21)
(1.01666 0.00129479 1.52458e-22)
(1.01663 0.00140942 6.61419e-23)
(0.905222 -0.0471345 2.01795e-20)
(0.889296 -0.0891017 2.27208e-21)
(0.917632 -0.0935626 -6.79356e-21)
(1.01455 0.00344651 0)
(1.01472 0.003394 0)
(1.01449 0.0032153 3.10988e-22)
(1.00866 -0.000202535 -1.40022e-22)
(1.00967 -0.000147376 1.69546e-22)
(1.01053 -0.000178466 2.3278e-22)
(1.00471 -0.0504132 -3.43715e-22)
(1.01004 -0.0560855 1.49919e-21)
(1.012 8.25415e-06 -3.24423e-22)
(1.01203 1.28705e-05 2.44211e-22)
(1.01201 -2.06637e-05 -2.59764e-22)
(0.972401 -0.220039 0)
(0.956448 -0.222751 0)
(0.884381 0.0541862 -1.62161e-20)
(0.883323 0.0986953 3.8835e-21)
(0.906372 0.0884105 3.34959e-20)
(1.0098 0.000253479 -3.65784e-22)
(1.00833 8.10829e-05 3.60676e-22)
(1.00821 0.000119593 -2.92731e-22)
(1.06688 0.0777263 1.72376e-20)
(1.06295 0.0813016 3.00803e-20)
(1.06906 0.0829676 1.13794e-20)
(1.01234 0.000216438 -7.96994e-22)
(1.01242 0.000268616 -6.70498e-22)
(1.0124 0.000248331 6.23676e-22)
(1.01227 0.000166479 -6.41019e-22)
(1.01229 0.000197824 -5.84297e-22)
(0.912496 0.21447 -2.63742e-21)
(0.92224 0.225466 2.43515e-21)
(0.924819 0.248834 -3.18833e-21)
(0.925133 0.251667 6.32679e-21)
(0.928166 0.253082 1.33797e-20)
(1.01697 0.000262632 2.79432e-22)
(1.01765 0.000453942 -3.24567e-22)
(1.01803 0.000501044 -6.17969e-22)
(1.01256 -0.000380015 0)
(1.01243 -0.00037672 -8.08033e-22)
(1.01238 -0.000330152 -7.58935e-22)
(1.01092 0.00035698 -9.70116e-24)
(1.01078 0.000271561 -2.85305e-22)
(1.01951 -0.0148146 4.62763e-22)
(1.01922 -0.0132086 1.51142e-22)
(1.01764 -0.0139417 2.25023e-22)
(0.893391 0.000173061 1.12974e-21)
(0.864462 0.00964396 -1.98788e-20)
(1.01245 0.000290511 -6.37689e-22)
(0.947257 0.175464 1.708e-21)
(0.957524 0.166767 -1.4854e-20)
(0.957971 0.181917 -5.38162e-23)
(1.09166 0.250237 -3.40283e-21)
(1.11201 0.236238 7.54444e-21)
(1.08696 0.264795 5.73971e-21)
(1.0164 0.00254994 1.02321e-22)
(1.01619 0.00247095 1.00588e-22)
(1.0163 0.00237503 -4.51244e-23)
(1.01441 0.00345103 0)
(1.0146 0.00360903 0)
(1.01275 -0.000715181 7.24019e-23)
(1.01269 -0.000677996 1.05681e-21)
(1.0127 -0.000655337 0)
(1.02605 0.00223477 -1.71222e-21)
(1.02594 0.00261785 2.32001e-21)
(0.942706 -0.0133919 3.33477e-21)
(0.93706 -0.00714325 2.78073e-21)
(0.946719 -0.00511424 3.80011e-22)
(0.858383 0.19444 7.39384e-22)
(0.847381 0.206383 4.26983e-21)
(0.867231 0.210248 -4.04858e-21)
(0.93859 0.187333 8.90761e-21)
(0.935259 0.169907 7.24873e-21)
(1.01472 0.00123421 1.73062e-22)
(1.01487 0.00117718 -2.15845e-24)
(1.0148 0.00133785 6.3813e-23)
(0.987577 -0.214118 3.24691e-21)
(1.03251 0.0185808 -3.19626e-21)
(1.0338 0.0178013 3.29387e-21)
(0.881454 -0.335897 -5.46964e-21)
(0.862918 -0.341407 -2.95802e-21)
(0.867085 -0.316321 1.90153e-21)
(0.373853 0.338417 2.72084e-20)
(0.49134 0.363681 2.62406e-20)
(0.465768 0.360238 2.08127e-20)
(1.00894 0.0476193 -8.27278e-21)
(1.01319 0.047913 -5.45366e-21)
(1.05916 0.0318191 -1.25826e-22)
(1.06648 0.0295781 5.40205e-23)
(1.06289 0.0392664 1.13858e-22)
(1.02371 0.00466394 -4.24425e-22)
(1.02382 0.00487351 3.51504e-21)
(1.02356 0.00467698 3.01592e-21)
(1.01633 -0.00160343 0)
(1.01628 -0.00140806 0)
(1.01646 -0.001497 1.39917e-23)
(0.949287 -0.0196378 -3.24425e-21)
(0.939218 -0.0227675 2.87283e-21)
(0.787572 -0.339733 3.22245e-21)
(0.826906 -0.365593 3.25169e-21)
(0.791171 -0.335858 1.24585e-20)
(0.959367 0.156311 2.29324e-22)
(0.97023 0.162678 2.67733e-21)
(0.89628 0.175318 -7.22306e-22)
(0.891742 0.187537 1.57945e-22)
(0.881095 0.169309 5.18774e-22)
(1.01201 0.050713 -1.48349e-21)
(1.01696 0.0551886 -1.82349e-21)
(1.00989 0.0584105 1.284e-21)
(1.01166 0.00446287 7.3144e-23)
(1.01156 0.00515526 1.24665e-21)
(1.01105 0.00444481 -9.95508e-22)
(1.04092 0.010414 -3.3807e-22)
(1.04243 0.00861818 -4.26909e-22)
(1.04334 0.0113927 -4.10366e-22)
(0.989711 -0.0546143 1.32262e-21)
(0.981001 -0.0610212 1.44939e-22)
(0.982391 -0.0536937 -1.0808e-21)
(1.01303 -0.000919354 -2.23487e-22)
(1.01298 -0.000885143 0)
(1.01308 -0.000958508 0)
(0.998026 -0.0479406 5.00918e-22)
(0.996626 -0.0531816 1.33789e-21)
(0.931366 0.198468 7.55048e-22)
(0.922737 0.20991 -1.6037e-20)
(0.918221 0.193119 -1.16054e-21)
(1.02675 0.00175955 2.08812e-22)
(1.02752 0.00174102 0)
(1.02683 0.00238211 1.97258e-22)
(1.01385 -0.00155359 -6.15897e-22)
(1.01376 -0.00169614 -3.65772e-22)
(1.01356 -0.00143521 0)
(1.02384 0.00459546 4.67844e-22)
(1.02356 0.0044352 -2.28917e-21)
(1.01214 0.00445464 -6.47667e-22)
(1.01175 0.00389916 -1.5936e-21)
(0.94399 0.203469 -1.68336e-21)
(1.0533 0.0279083 8.14927e-22)
(1.04735 0.0266981 -1.46012e-21)
(1.05078 0.0328344 -5.05628e-21)
(1.01283 -0.000794739 -2.05616e-23)
(1.01282 -0.000764031 5.75508e-22)
(1.05534 0.0230382 -2.24681e-21)
(1.06097 0.0291065 3.3125e-22)
(1.03687 0.0194164 -3.54195e-22)
(1.03696 0.0215953 -2.56831e-21)
(1.07201 0.255914 2.35794e-20)
(1.08565 0.203295 -4.07161e-21)
(0.922855 -0.00485847 2.63032e-20)
(1.00458 0.000123669 -5.13102e-22)
(1.00813 0.000214434 6.82381e-22)
(1.00436 9.09719e-05 -4.22232e-22)
(1.01354 0.000991763 1.21767e-22)
(1.0134 0.00102295 -2.6974e-22)
(1.01347 0.00113252 1.01166e-22)
(1.04288 -0.0318579 -1.00992e-21)
(1.04792 -0.0342557 8.27739e-22)
(1.0419 -0.0373004 8.53026e-22)
(0.883577 -0.0424138 4.71761e-22)
(0.896404 -0.0402242 -3.2136e-21)
(0.882577 -0.0299416 4.22048e-22)
(1.03873 0.00947462 -6.16647e-22)
(1.03922 0.0118893 1.39764e-21)
(1.04047 0.0633078 -3.83442e-23)
(1.04218 0.070809 -4.46737e-23)
(1.01534 0.000489776 -1.52661e-21)
(1.01505 0.000606004 -1.47765e-21)
(1.01531 0.000654083 -2.57046e-21)
(1.03729 0.0399431 1.43811e-21)
(1.03255 0.0445283 4.08806e-22)
(1.03144 0.0375662 1.16084e-21)
(1.02572 0.0388451 -4.33736e-21)
(1.024 0.0415434 0)
(1.028 0.0412592 -2.48198e-21)
(1.02723 0.00220414 0)
(1.02759 0.00261316 -3.27712e-21)
(0.964154 0.146119 1.47106e-20)
(0.950341 0.147702 7.21975e-21)
(0.879828 -0.0578807 -3.6399e-21)
(0.859816 -0.0438919 0)
(0.99091 0.0434365 2.18791e-21)
(0.993745 0.0491295 -2.1101e-21)
(0.986516 0.0497421 -1.45939e-21)
(1.02028 0.00426963 -1.15428e-22)
(1.02056 0.00443288 1.47862e-22)
(1.0202 0.00441008 1.51301e-22)
(0.288888 0.0645799 5.70468e-20)
(0.199775 0.0245548 1.50919e-19)
(1.04117 0.00596586 -4.82137e-22)
(1.02904 0.231117 0)
(1.01335 0.244678 -9.82608e-21)
(1.01229 0.245981 6.33338e-21)
(1.02397 0.00454174 3.68482e-21)
(1.0241 0.00444143 1.48514e-21)
(1.0238 0.00430416 -3.06502e-22)
(1.02692 0.0367232 6.16516e-22)
(1.02392 0.0366148 -4.3024e-21)
(0.985895 -0.0964877 -3.86167e-22)
(0.976056 -0.105992 -8.91637e-22)
(0.97361 -0.0910134 -2.62977e-21)
(1.02371 0.00370242 -1.7118e-22)
(1.02391 0.00373077 -8.84362e-23)
(1.0236 0.0038322 -4.66642e-22)
(1.06408 0.0665812 -1.32685e-20)
(1.06409 0.061994 -6.30015e-21)
(1.02688 0.0234825 -9.99194e-22)
(1.02506 0.0236122 -6.01105e-21)
(1.02636 0.0255011 -9.0986e-21)
(1.02279 0.00394304 -5.87431e-22)
(1.02259 0.00393471 -5.57337e-22)
(1.02268 0.00397189 5.18392e-22)
(0.511849 0.334554 -1.22697e-21)
(0.477682 0.339165 -2.90734e-21)
(0.525924 0.335923 -3.66247e-22)
(1.01258 0.0044019 7.01786e-22)
(1.01254 0.00497165 7.27765e-22)
(0.8145 0.029447 -1.3764e-21)
(0.777804 0.0553732 2.84238e-21)
(1.02288 0.00395566 -1.35149e-21)
(1.02302 0.00392562 -8.52717e-22)
(1.02308 0.00418703 9.32159e-22)
(1.02327 0.00435239 0)
(1.02331 0.00429266 0)
(0.816711 0.0123491 -2.25711e-21)
(0.838135 0.0151012 3.88198e-21)
(0.993631 -0.0829582 -5.89587e-21)
(1.00078 -0.0976549 1.22552e-21)
(0.902521 0.16285 -2.00614e-21)
(0.912099 0.177071 -2.16463e-21)
(1.00721 0.0462331 -8.94414e-22)
(1.0129 0.0441974 -1.89268e-21)
(1.01347 -0.00115076 1.04822e-21)
(1.01337 -0.00110149 7.22201e-23)
(1.01352 -0.00115896 -1.97249e-22)
(0.985102 -0.0284531 1.94335e-21)
(0.985253 -0.0226547 1.0322e-21)
(0.980534 -0.0257749 0)
(1.00877 0.000267116 0)
(1.00981 0.000235771 -2.82457e-22)
(1.01074 0.000220915 4.57907e-22)
(1.05205 0.0325729 8.05526e-22)
(1.0552 0.0263976 -1.25296e-22)
(1.01366 -0.00125011 -5.28562e-22)
(1.01363 -0.00125472 2.39216e-22)
(1.01376 -0.00130276 -4.25271e-22)
(1.01638 -0.00178012 5.15677e-23)
(1.01618 -0.00168323 1.03211e-22)
(0.944711 0.284899 -2.84053e-22)
(0.943154 0.299691 -7.18356e-21)
(0.931946 0.280873 7.01352e-21)
(0.958377 0.284535 1.47795e-21)
(0.947858 0.269103 3.7786e-21)
(1.0166 0.00263083 0)
(1.01649 0.0027348 0)
(1.04037 0.036516 2.08823e-21)
(1.04277 0.0430319 -8.59365e-22)
(1.01605 0.000115322 8.55743e-22)
(1.01568 0.000325245 -2.55181e-22)
(1.01606 0.000392954 -7.0525e-22)
(1.01639 -9.6209e-05 1.55344e-21)
(1.01589 -7.40866e-05 9.42999e-22)
(0.897851 -0.356085 -5.32537e-21)
(0.895336 -0.325589 -9.25378e-21)
(1.03158 0.195773 5.87983e-21)
(1.02999 0.206725 2.6138e-20)
(1.04218 0.199598 2.53636e-20)
(0.985891 -0.0356333 -1.03535e-21)
(0.990375 -0.0311042 -1.4893e-21)
(1.0135 -0.000117964 1.18418e-23)
(1.01327 -0.00013197 -8.29223e-22)
(1.01337 -4.47109e-05 -8.11798e-22)
(1.01278 0.00277902 1.44878e-21)
(1.01258 0.00261384 7.08468e-22)
(1.01262 0.00310083 -2.06329e-22)
(1.01842 -0.000432207 -1.63407e-21)
(1.01817 9.519e-05 -4.13596e-22)
(1.01905 -0.000125352 -1.8448e-21)
(1.01403 0.0056082 2.83632e-22)
(1.01396 0.00520721 4.37766e-23)
(1.01367 0.00522936 8.71842e-22)
(0.815656 -0.00359251 6.14079e-21)
(0.782222 0.0222893 -2.53046e-21)
(0.877921 0.157954 1.71319e-21)
(0.88209 0.172585 0)
(0.893379 0.161529 3.0404e-22)
(1.03732 0.0181034 -4.29474e-22)
(1.03959 0.0169325 -8.97492e-22)
(1.03923 0.0197826 -1.04952e-21)
(0.478249 0.305711 -4.79397e-22)
(0.499738 0.300394 -1.06515e-20)
(1.02611 0.0110254 1.51023e-21)
(1.02568 0.0118461 -2.49043e-21)
(1.02684 0.0116703 5.0342e-22)
(1.0423 0.215293 0)
(1.04419 0.202267 0)
(0.974311 0.112514 2.51152e-22)
(0.979698 0.12046 -1.27637e-21)
(0.984544 0.111611 -9.58803e-21)
(1.01147 4.37273e-05 0)
(1.01168 3.19136e-05 -6.83104e-22)
(1.01188 8.68814e-06 0)
(0.533681 0.328253 1.92886e-20)
(0.496778 0.3286 -2.46193e-20)
(1.01201 3.24703e-05 8.53444e-24)
(1.01202 6.56192e-06 -2.99348e-23)
(1.0097 0.0047565 -2.85664e-22)
(1.01119 0.00565894 -1.48853e-21)
(1.00928 0.00712488 1.22985e-21)
(1.01269 -0.000366233 6.45582e-22)
(1.01276 -0.000427247 0)
(1.03804 -0.0295222 3.19412e-21)
(1.04273 -0.0275074 -2.27548e-21)
(1.01304 -0.000897343 -7.77835e-23)
(1.01312 -0.000975198 -6.90658e-22)
(1.02752 0.00546361 -1.44356e-23)
(1.02771 0.00483742 0)
(1.02833 0.00538738 6.72101e-23)
(0.904163 -0.231743 -4.44456e-22)
(0.895228 -0.230742 1.0194e-21)
(0.898852 -0.24473 4.38848e-21)
(1.01291 0.00436335 1.1135e-23)
(1.01258 0.00402448 -8.73072e-22)
(1.00996 3.85402e-05 4.71775e-22)
(1.01095 -3.1517e-05 0)
(1.01051 8.52946e-06 -9.46403e-22)
(1.02553 0.0136927 3.3983e-21)
(1.02549 0.0128052 1.83366e-21)
(1.02645 0.0134262 8.0471e-21)
(1.01168 0.0688222 1.05971e-21)
(1.01123 0.0729469 -3.73441e-22)
(1.01622 0.0710093 1.19418e-20)
(0.988358 0.0377008 1.16488e-21)
(0.994319 0.0380879 1.43929e-21)
(1.00994 0.0024544 3.39087e-22)
(1.00751 0.00393321 9.5225e-22)
(1.03278 0.183674 -1.83241e-20)
(1.02146 0.189561 -1.29276e-20)
(0.285412 0.296976 3.09547e-21)
(0.279825 0.292223 -5.22111e-21)
(1.01869 -0.00103881 7.49584e-23)
(1.01789 -0.000667059 0)
(1.00778 -0.000197159 0)
(1.00635 -0.000235969 0)
(1.01264 0.000493945 5.08468e-22)
(1.01153 0.000363547 3.48963e-22)
(1.01131 0.000344285 5.65921e-22)
(1.01956 -0.0165576 -2.65662e-22)
(1.02137 -0.0153827 -2.53704e-22)
(0.875932 0.142893 2.05577e-21)
(0.863001 0.153659 1.53462e-21)
(1.01534 0.000327705 1.36685e-21)
(1.02591 0.00902301 2.69126e-21)
(1.02649 0.00954939 0)
(1.02656 0.00885598 -4.2301e-22)
(0.910981 -0.217931 3.16662e-21)
(0.912882 -0.229538 -1.00272e-20)
(1.01391 -0.00140201 -1.69118e-22)
(1.01425 -0.00166046 7.60244e-23)
(1.06534 0.072781 -1.43067e-20)
(1.05979 0.0700884 -1.63385e-20)
(0.919688 0.241837 -8.7773e-21)
(0.926804 0.242273 -2.1922e-21)
(1.0122 0.000121806 -2.52622e-22)
(1.01215 8.87511e-05 9.98462e-22)
(1.01216 0.000114935 -7.78215e-22)
(0.975023 0.0278081 0)
(0.975368 0.0346337 0)
(0.968887 0.0317922 0)
(0.890125 0.140511 8.85833e-21)
(0.867498 0.120439 0)
(0.955791 0.244048 -8.69216e-21)
(0.944672 0.234824 9.70412e-21)
(0.958231 0.232257 9.29512e-21)
(1.01226 0.000131258 1.44702e-21)
(1.03112 0.0193273 -2.20333e-21)
(1.0313 0.0177457 -3.02611e-21)
(0.951447 0.254298 -9.89622e-21)
(0.965604 0.256439 -1.31925e-20)
(1.01539 0.00363098 -1.70048e-22)
(1.01558 0.00370091 -1.44483e-22)
(1.01547 0.0034568 -1.39447e-22)
(1.01282 -0.000341859 -1.30143e-23)
(1.01261 -0.00030331 6.8206e-22)
(1.01292 0.00250544 -3.36214e-22)
(1.013 0.00287501 -4.36695e-22)
(1.01294 -0.000883462 0)
(1.0129 -0.000831871 4.21929e-22)
(1.02624 0.0102248 -2.96449e-21)
(1.02534 0.0104165 -9.42158e-21)
(1.0205 0.0205502 -3.82135e-21)
(1.0187 0.020672 2.7688e-21)
(1.02013 0.0222324 6.00611e-21)
(1.02412 0.00478376 1.10308e-21)
(1.0134 -0.00113522 0)
(1.0134 -0.00113648 0)
(1.01331 -0.00106526 0)
(0.960371 -0.0756504 -8.02174e-22)
(0.946467 -0.0756272 1.61448e-21)
(0.954292 -0.0856384 -2.82601e-22)
(1.03846 0.0430731 -3.33595e-21)
(1.04136 0.0422377 -9.1578e-21)
(1.04024 0.0459559 -2.77955e-21)
(1.02608 0.00182653 1.77561e-22)
(1.02653 0.00108329 -1.84046e-23)
(1.01625 -0.00117804 0)
(1.01621 -0.0012802 0)
(1.0161 -0.00112982 6.48562e-23)
(0.893086 0.247809 -4.66828e-22)
(0.87647 0.24325 1.95387e-20)
(0.880441 0.263097 6.94994e-21)
(1.00993 0.000149449 8.64757e-22)
(1.0109 0.000111264 1.11854e-22)
(1.01044 0.000116731 6.1909e-22)
(0.880335 0.331009 1.18433e-20)
(1.00455 0.047273 -7.45992e-21)
(1.00749 0.0440046 8.9588e-22)
(1.01376 -0.000104312 -7.28101e-22)
(1.01363 -0.000211267 8.68637e-22)
(1.02218 0.0205118 -3.77245e-21)
(1.02094 0.0192815 -2.77602e-21)
(0.922739 -0.302659 1.104e-20)
(0.909702 -0.314778 1.70099e-20)
(0.9284 -0.328768 2.90575e-21)
(1.027 0.00187336 0)
(1.02753 0.00189512 0)
(1.10699 0.278441 -7.0325e-21)
(1.10134 0.293235 -4.01662e-20)
(1.08838 0.278615 -5.01571e-21)
(0.966378 0.00585775 3.68169e-21)
(0.964395 0.0129718 -1.39337e-21)
(0.957687 0.00782323 -1.57534e-21)
(0.520509 0.149062 -3.12723e-20)
(0.643454 0.187465 3.60428e-21)
(0.616273 0.200861 0)
(1.0136 0.000896375 7.23399e-22)
(1.01366 0.000982478 3.17967e-23)
(1.03008 0.221637 0)
(1.03314 0.233534 8.91672e-21)
(1.043 0.22326 -3.37071e-20)
(0.969676 0.13738 2.09216e-21)
(0.974768 0.127937 0)
(0.962036 0.128999 -5.87608e-21)
(0.889702 -0.00210136 -4.34972e-22)
(0.901554 0.00560296 -8.15464e-22)
(0.907431 -0.00722125 -5.40232e-22)
(1.01187 -0.000129852 -2.02471e-22)
(1.01147 -0.000129816 -5.3274e-22)
(1.01172 -0.000129006 -1.91828e-21)
(0.996444 0.256929 -2.59333e-21)
(1.01099 0.232315 -1.61676e-20)
(1.01802 0.000519307 2.4118e-21)
(1.01748 0.000241626 6.78485e-22)
(0.858141 -0.184087 8.88527e-21)
(0.872187 -0.212956 1.52388e-21)
(0.856695 -0.201524 7.7468e-21)
(1.01308 0.063548 0)
(1.00754 0.0647119 -4.42406e-21)
(1.0229 0.0040079 -2.43499e-22)
(1.02285 0.0040745 9.39868e-22)
(1.01402 0.00594301 0)
(1.01435 0.00585065 0)
(1.07145 0.0738842 -6.66332e-21)
(1.01208 -0.000177858 8.22386e-23)
(1.012 -0.0001677 7.7691e-22)
(0.87256 0.00352116 1.17817e-21)
(0.877117 -0.0123137 1.20442e-21)
(0.911901 0.0134663 -8.39199e-22)
(0.925297 0.00902322 1.60213e-21)
(0.921412 0.0211173 1.40013e-21)
(1.01651 0.000321895 -1.17184e-21)
(1.01741 0.000468031 -4.44526e-22)
(1.01622 0.000319905 3.78795e-22)
(1.0007 -0.0430207 -1.1382e-22)
(0.996436 -0.0415486 -1.03248e-21)
(1.00479 -0.0377382 -7.93612e-22)
(1.0119 -0.000211111 0)
(1.01178 -0.000233949 0)
(1.01215 -0.000254879 0)
(0.935989 0.167248 9.83151e-22)
(0.948767 0.163548 4.18119e-21)
(0.945412 0.178341 1.50395e-21)
(1.01621 0.000763815 0)
(1.01619 0.000800121 2.42171e-22)
(1.01632 0.000835953 -3.03671e-22)
(1.01847 0.215573 2.42842e-20)
(1.08371 0.339741 3.29875e-21)
(1.104 0.336995 3.86734e-20)
(1.08468 0.319755 5.89858e-20)
(0.974798 0.0214925 0)
(0.980121 0.0247094 0)
(1.08398 0.367334 -2.20511e-21)
(1.06146 0.344725 8.56442e-22)
(1.00625 -0.0426043 -1.44221e-21)
(1.01709 0.00156291 0)
(1.01696 0.00157474 0)
(0.978026 0.143264 1.82439e-21)
(1.0254 0.00585316 5.23719e-23)
(1.02563 0.00638281 -8.2857e-24)
(1.02489 0.00622652 -8.20378e-24)
(1.0352 0.0186875 7.36346e-22)
(1.03569 0.01644 0)
(1.0136 -0.0413217 2.16937e-21)
(1.00693 -0.0429767 5.42619e-22)
(1.00919 -0.0359854 2.59985e-21)
(1.0236 0.00369935 1.90686e-22)
(1.0238 0.003598 -3.16967e-22)
(1.01294 -0.000302374 -1.43777e-21)
(1.01303 -0.000379188 -6.89452e-22)
(1.01687 -0.000243316 4.93654e-22)
(1.01664 -0.000507898 3.52331e-22)
(1.03672 0.0401983 -3.10655e-21)
(1.03552 0.0434855 1.8376e-21)
(1.008 0.000159199 2.83285e-22)
(1.00622 0.000198753 0)
(1.01521 0.00356575 2.416e-22)
(1.01529 0.00381059 5.64142e-22)
(0.914606 0.238582 6.02982e-21)
(1.02873 0.0198341 -1.87214e-22)
(1.03067 0.019642 -4.31353e-22)
(1.02941 0.0216052 -1.42635e-22)
(0.407599 0.107669 -9.99913e-20)
(0.364424 0.113011 -1.10402e-19)
(1.01295 0.00557421 -7.79292e-23)
(1.01248 0.00731123 -3.0193e-22)
(0.860783 -0.0834599 -1.35697e-20)
(0.874598 -0.126384 -6.18907e-21)
(0.921762 0.143591 4.11143e-22)
(0.915364 0.131317 7.7754e-22)
(0.906384 0.145768 -2.22756e-21)
(0.861622 0.156858 0)
(0.873731 0.17407 7.80182e-22)
(0.858036 0.172464 0)
(1.01646 -0.00196361 1.59718e-23)
(1.0166 -0.00186874 6.14995e-23)
(1.01992 -0.0185522 -6.43818e-24)
(1.01773 -0.0174341 0)
(0.853432 -0.271474 4.28974e-21)
(0.856931 -0.262367 -1.16155e-21)
(0.862701 -0.270829 -2.16312e-21)
(1.01282 0.000604308 2.47246e-22)
(1.01301 0.000663962 5.18561e-22)
(0.850585 0.134602 4.29579e-21)
(0.869518 0.139318 -1.83477e-22)
(1.01479 0.00568717 1.3814e-21)
(1.01388 0.00392349 1.4663e-21)
(1.02555 0.014612 -1.59651e-21)
(1.02466 0.0139549 -6.53682e-21)
(1.01163 0.000348558 -2.71461e-23)
(1.01213 0.000399918 0)
(1.02889 0.0232366 8.84325e-21)
(1.02746 0.0216885 2.71366e-21)
(1.01404 -7.1892e-05 1.45985e-22)
(1.01387 1.49181e-05 -7.6857e-22)
(0.95077 -0.105961 2.39999e-22)
(0.94861 -0.112787 1.31937e-22)
(0.938288 -0.111608 4.59361e-21)
(0.834013 -0.285844 3.08082e-22)
(0.825483 -0.298871 -6.66277e-22)
(0.838199 -0.301836 0)
(1.02661 0.00543843 -2.69285e-22)
(1.02711 0.00605316 1.17716e-22)
(1.02675 0.0197201 -4.87747e-22)
(1.0282 0.0181917 2.01895e-22)
(1.0095 7.51728e-05 9.08873e-22)
(1.00864 0.000127988 2.78421e-22)
(1.02677 0.00816597 9.13957e-23)
(1.0277 0.00858928 1.61364e-22)
(1.02755 0.0076319 -3.6718e-23)
(0.15376 0.0244714 9.74779e-20)
(0.127213 -0.00153226 3.06578e-20)
(1.01577 0.00100654 -1.82745e-22)
(1.01583 0.00108648 3.48866e-24)
(1.01591 0.000946219 -1.28177e-22)
(1.0282 0.0482471 6.93379e-22)
(1.03385 0.0516003 0)
(1.01258 -0.000573938 0)
(1.0126 -0.000627415 -1.09829e-22)
(1.01242 -0.000540872 0)
(1.01458 0.00131335 1.05449e-22)
(1.01463 0.00116313 -2.22682e-22)
(1.01261 -0.000635091 -1.1288e-21)
(1.01268 -0.000711451 2.03155e-21)
(1.01879 0.0624097 -1.93485e-22)
(0.841894 -0.269235 3.41598e-22)
(0.831979 -0.269394 2.03689e-21)
(1.02281 0.052122 -1.06621e-21)
(1.02307 0.0447435 6.9834e-22)
(0.953829 -0.0990728 -5.49116e-21)
(0.964009 -0.100725 1.54779e-22)
(1.00459 -6.81958e-05 -7.59962e-22)
(1.00323 -9.2403e-05 0)
(1.0067 -4.52628e-05 1.0853e-21)
(1.01706 1.03356e-06 -4.7949e-22)
(1.01737 -0.000400687 0)
(1.02088 0.00117251 0)
(1.02066 0.00120861 7.68694e-22)
(1.02089 0.00133116 0)
(0.870324 0.183255 -2.90726e-21)
(0.850787 0.179172 -1.39429e-21)
(1.01207 0.00262351 5.41348e-22)
(1.01213 0.00232411 9.23961e-22)
(1.01182 0.00226653 -9.19035e-23)
(0.91347 0.221902 -2.87868e-21)
(0.928128 0.228149 8.94294e-23)
(1.02599 0.00853847 2.50807e-22)
(1.02592 0.0077152 -2.88395e-22)
(1.03365 0.0310593 0)
(1.03906 0.031991 0)
(1.03426 0.0366042 -5.19424e-22)
(1.03335 0.00814895 -3.58768e-22)
(1.03446 0.00840223 -6.19725e-21)
(1.03371 0.00926728 6.5518e-21)
(1.01555 0.0027484 5.31428e-24)
(1.01575 0.00283762 -1.10274e-22)
(1.01563 0.00293271 -8.55122e-23)
(1.00632 9.63853e-05 -6.9322e-22)
(1.00335 -4.84068e-05 9.71947e-22)
(0.918089 -0.284882 -8.09459e-21)
(1.01207 6.44521e-06 3.70517e-22)
(1.01206 3.82819e-05 3.59039e-22)
(0.908868 0.166218 -6.25645e-22)
(0.92091 0.176762 7.81776e-22)
(0.926773 0.158704 -1.91039e-21)
(1.11271 0.264575 -2.30704e-20)
(1.12282 0.277578 1.86599e-20)
(1.03234 0.00803104 1.80497e-21)
(1.03286 0.00738288 -1.85512e-21)
(1.01612 9.8899e-05 -4.48516e-22)
(1.01208 3.0231e-05 0)
(1.0115 0.000105256 0)
(1.00376 0.407621 -1.85696e-20)
(0.981553 0.417746 2.79482e-20)
(0.895469 0.386065 -4.01195e-20)
(1.00412 -0.0384493 -4.63206e-21)
(1.00983 -0.0376191 -1.31074e-23)
(1.00815 -0.0439316 2.27029e-21)
(1.01285 -0.000843435 4.43629e-22)
(1.01297 -0.000905114 -9.10109e-24)
(1.01298 -0.000918648 7.74818e-23)
(1.04176 -0.0181279 -8.46533e-22)
(1.03828 -0.0243901 -2.32128e-21)
(1.0384 -0.0207138 4.59465e-22)
(1.0095 -1.49633e-05 4.35581e-22)
(1.00872 4.90894e-05 2.08664e-22)
(1.00532 0.0368223 3.49585e-21)
(1.0022 0.0394309 6.12016e-21)
(1.00612 0.0404137 1.01661e-20)
(1.01418 -0.025927 8.06017e-22)
(1.0115 -0.0233784 3.02822e-22)
(1.011 -0.0277181 8.14106e-22)
(1.01086 0.000182203 0)
(1.01497 0.000231202 -1.23912e-21)
(1.01049 0.000200849 0)
(0.912986 0.202439 -3.74886e-21)
(0.907229 0.217496 -1.58441e-21)
(0.898857 0.201711 1.47157e-21)
(1.02238 0.0598782 -9.10084e-22)
(1.00981 -0.0012548 8.58633e-23)
(1.0096 -0.00174368 4.37343e-22)
(1.01014 -0.00180606 -9.51994e-22)
(1.16331 0.0175869 -4.27829e-21)
(1.15678 -0.00385519 4.8232e-21)
(1.16888 0.0245535 5.07648e-21)
(1.03282 0.0194199 7.16038e-22)
(1.03411 0.0212115 4.35726e-22)
(1.02086 0.00100219 6.03599e-22)
(1.02112 0.00113543 0)
(1.0117 -0.000157853 2.88048e-22)
(1.01209 -0.000252183 -7.52068e-22)
(1.0247 0.0118877 -5.52638e-21)
(0.898283 0.0204053 -9.39499e-22)
(1.0162 -0.00106086 -1.2239e-23)
(1.01638 -0.00118883 0)
(0.928181 0.155164 -1.47415e-22)
(0.933982 0.142546 -2.4211e-22)
(0.999527 -0.0379883 -8.99199e-22)
(1.00242 -0.0328097 -9.26204e-22)
(0.783836 -0.333776 3.12552e-21)
(0.737743 -0.302768 1.4363e-20)
(1.01195 0.00297667 -1.66672e-21)
(1.01184 0.00338731 3.84716e-22)
(1.01147 0.00292202 -3.32408e-21)
(1.02216 -0.0194772 1.48748e-22)
(1.02026 -0.0208407 -4.84764e-23)
(1.13988 0.00126607 -5.53821e-21)
(1.16819 0.0396105 -5.12096e-21)
(0.921217 0.189426 -4.32666e-21)
(0.925072 0.204141 -2.82072e-21)
(1.0146 0.000149541 0)
(1.01619 0.00027735 0)
(1.01391 0.00478894 -4.162e-23)
(1.01365 0.00446825 2.85728e-22)
(1.01388 0.0043718 2.62543e-22)
(1.02033 0.00409878 8.37981e-23)
(1.01999 0.00407936 -3.74185e-22)
(1.0096 -0.000719932 -4.10945e-22)
(1.01005 -0.000886254 6.18041e-22)
(1.01721 -0.0243551 2.4715e-22)
(1.01727 -0.0289151 -3.14169e-22)
(1.04348 -0.0123311 -2.91893e-21)
(1.04497 -0.0148425 -3.07394e-21)
(1.01257 -0.000605531 -1.65996e-21)
(1.01258 -0.000590764 -1.60379e-21)
(0.965181 -0.0673213 -3.46157e-21)
(0.971904 -0.0730861 1.1337e-21)
(0.835616 -0.0757813 -3.89962e-21)
(0.829038 -0.110435 1.76291e-21)
(0.81702 -0.0690855 1.00289e-20)
(1.01356 -0.00119827 6.1192e-23)
(1.01343 -0.00114061 6.4039e-22)
(1.00759 -8.40262e-05 0)
(1.00749 -5.27929e-05 -7.19601e-22)
(1.00532 -5.31733e-05 -2.5938e-25)
(0.903602 0.234942 -1.78622e-21)
(0.899126 0.216499 5.88816e-21)
(1.02868 0.0297496 6.62064e-22)
(1.03272 0.0265273 7.31669e-22)
(0.908414 -0.0362196 8.50258e-22)
(0.898391 -0.0259402 1.27294e-21)
(0.897799 -0.0413372 -2.2419e-22)
(0.933935 -0.0742805 -6.90723e-22)
(0.925137 -0.0826706 3.16353e-21)
(0.920696 -0.0677967 2.22043e-22)
(1.01668 0.00028531 4.49838e-22)
(1.01421 0.000205947 -1.00842e-21)
(0.98825 -0.0107554 -5.06856e-22)
(0.991326 -0.0128422 -2.13873e-22)
(0.991614 -0.00888937 -1.51011e-21)
(1.01302 0.00225046 0)
(1.01288 0.00210499 2.50806e-22)
(1.03183 0.0176731 -4.2072e-22)
(1.00461 0.0334434 -3.37107e-21)
(1.00807 0.0346643 -7.55388e-21)
(1.01847 0.000852979 4.27507e-22)
(1.01774 0.000927367 1.06175e-21)
(1.02164 0.00356026 -9.48654e-24)
(1.02142 0.00344966 1.49623e-22)
(1.02164 0.00349396 -7.63689e-22)
(1.01814 -0.034715 1.99232e-21)
(1.02348 -0.0300112 6.41383e-22)
(1.01019 -5.74649e-05 2.47315e-22)
(1.00892 -3.32242e-05 7.32963e-22)
(1.01021 -3.21851e-05 1.19123e-21)
(0.843401 -0.150912 -1.06422e-21)
(0.864807 -0.159089 -1.41124e-21)
(1.03448 -0.0311616 -1.47909e-21)
(1.03873 -0.0288263 -4.50464e-22)
(0.644395 0.295777 1.59185e-21)
(0.588706 0.309347 2.66669e-21)
(0.611502 0.310271 0)
(0.920075 -0.0316499 4.7055e-21)
(0.918586 -0.0431801 1.07556e-21)
(1.01435 -3.7787e-05 7.57869e-22)
(1.01421 -0.000179499 7.76637e-22)
(0.919022 -0.210048 6.11642e-21)
(0.910691 -0.206 2.86665e-21)
(0.971107 0.103961 1.41385e-21)
(0.964564 0.112425 2.01665e-21)
(0.999884 0.0463137 -6.71588e-21)
(0.998972 0.0420327 -3.43047e-21)
(0.995247 0.0451 1.45955e-21)
(1.01657 -0.00216752 -9.21349e-23)
(1.01631 -0.00205619 -3.1151e-25)
(0.986478 0.00375302 8.15844e-22)
(0.987837 0.000299758 0)
(0.990267 0.00351502 -1.56379e-21)
(1.00927 0.000246911 0)
(1.01192 0.000377505 1.48804e-23)
(1.01213 0.000395576 -3.18286e-24)
(1.01306 -0.000255366 4.2241e-23)
(1.01284 -0.000234459 1.24504e-22)
(1.01262 0.00202101 -9.46775e-22)
(1.01254 0.00179325 -9.19851e-23)
(1.01237 0.00180806 8.94141e-22)
(1.01338 0.000614885 -2.15165e-22)
(1.01368 0.000736101 -2.82467e-22)
(1.01354 0.000633016 -2.62349e-22)
(1.02277 -0.0127455 -1.78675e-21)
(1.02126 -0.0144588 1.4209e-22)
(1.02039 -0.0123399 -1.4484e-21)
(1.02929 0.00516312 -1.72865e-21)
(1.02954 0.00468349 1.85544e-21)
(1.02997 0.00523006 -3.13401e-21)
(1.00073 0.0482845 -9.59228e-22)
(0.997929 0.0549824 -2.02165e-21)
(1.02373 -0.0110775 -1.37965e-22)
(1.02543 -0.0131486 0)
(1.01184 -0.00238473 1.75357e-22)
(1.01214 -0.00215102 -8.25225e-22)
(1.01214 -0.00271226 -1.31387e-21)
(0.8555 -0.364951 4.38853e-22)
(0.868681 -0.380823 7.12457e-21)
(0.98492 -0.00781266 -8.39157e-22)
(0.984319 -0.0126931 -3.41279e-22)
(1.02582 0.00545321 8.30428e-24)
(1.02511 0.00539575 8.06113e-24)
(1.00444 0.000137318 1.13813e-21)
(1.0328 0.272461 -1.15651e-20)
(1.01636 0.2786 -6.08721e-21)
(1.02066 0.261453 -1.89977e-20)
(1.00529 -1.92723e-05 -5.95993e-22)
(1.00297 3.43666e-05 7.32213e-22)
(1.00292 -2.78837e-05 -9.52076e-22)
(1.02237 0.0039018 -1.97306e-23)
(1.0225 0.00392434 7.89508e-23)
(1.01815 0.000325135 -1.74063e-21)
(1.01713 0.000484152 3.26205e-22)
(1.02551 0.00845798 9.2721e-23)
(1.02528 0.00909373 5.88678e-21)
(0.800093 0.0176334 4.12516e-21)
(0.805692 0.055364 1.14316e-21)
(0.805144 0.0160578 4.69315e-21)
(0.9265 -0.204797 3.06187e-21)
(0.924333 -0.215043 -3.13481e-21)
(1.02706 0.0100497 3.97378e-21)
(1.01404 0.000904488 0)
(1.01393 0.000777578 0)
(1.01391 0.00088281 0)
(1.02457 -0.0093113 -1.50902e-21)
(1.02506 -0.00758206 -7.68109e-22)
(1.02685 -0.00911324 -2.11234e-21)
(1.0225 -0.009402 -7.27649e-22)
(0.918909 -0.372576 8.48124e-21)
(0.935904 -0.356412 8.84653e-21)
(0.941968 -0.382861 2.43487e-20)
(1.01612 -0.00136742 0)
(1.00573 0.000151783 -1.83813e-22)
(1.00554 0.000143712 0)
(1.01237 0.00294999 -4.65821e-22)
(1.01091 -0.000245285 1.82354e-22)
(1.01288 -0.000443267 -1.45956e-23)
(0.908171 -0.0322308 -1.48252e-21)
(0.910979 -0.0468932 5.4447e-22)
(1.01268 0.00467065 6.22062e-23)
(1.01272 0.00413498 -4.81563e-22)
(1.01324 0.00449847 -6.94038e-24)
(1.04545 0.0328614 3.80345e-22)
(1.04286 0.0272955 1.25819e-22)
(0.876636 0.120051 -3.73374e-23)
(0.872144 0.104927 4.27946e-22)
(0.856992 0.121549 1.00085e-21)
(0.853279 -0.249996 1.71018e-22)
(0.848682 -0.249886 -4.11066e-21)
(0.853917 -0.247716 -1.8709e-21)
(0.916334 -0.0266624 1.10785e-21)