/*--------------------------------*- C++ -*----------------------------------*\
| =========                 |                                                 |
| \\      /  F ield         | OpenFOAM: The Open Source CFD Toolbox           |
|  \\    /   O peration     | Version:  v2012                                 |
|   \\  /    A nd           | Website:  www.openfoam.com                      |
|    \\/     M anipulation  |                                                 |
\*---------------------------------------------------------------------------*/
FoamFile
{
    version     2.0;
    format      ascii;
    class       volScalarField;
    location    "300";
    object      omega;
}
// * * * * * * * * * * * * * * * * * * * * * * * * * * * * * * * * * * * * * //

dimensions      [0 0 -1 0 0 0 0];


internalField   nonuniform List<scalar> 
18758
(
0.118383
5.99476
0.0214732
4.44421
5.63593
5.66822
7.41106
0.0217116
0.277049
0.0278565
0.0237073
10.534
0.0220464
0.182996
0.0230312
0.62003
0.0427034
0.0219438
0.0219284
0.0310935
8.80396
0.0222713
5.67852
4.77335
1.58127
0.0217159
1.73248
5.49454
8.81262
4.18412
0.0741821
6.07304
0.022182
0.0226845
0.145149
0.0221715
0.0222265
0.0220112
0.0222723
0.0460656
0.0220085
0.0266253
0.0216481
0.0261984
2.04857
0.0216171
5.31145
0.0240175
0.0274062
0.0216166
0.136279
5.99346
0.0215444
0.0234751
5.3652
9.34274
0.0222172
0.353637
0.0219355
0.202258
0.0969141
6.33634
0.120263
0.0228212
0.0215538
0.0220148
0.0475121
0.0221776
0.0219308
5.93228
5.68442
0.0223024
0.0216229
14.4165
0.0216849
0.0219273
0.268146
5.68523
0.0882998
5.18905
6.12251
4.13576
0.201771
5.43833
0.274493
0.0304836
23.0936
0.119048
5.94363
0.0219258
5.26962
0.0219371
14.6909
0.0270581
5.95466
13.2923
0.266454
0.021684
0.0218919
7.02256
0.0325702
5.0679
0.093495
0.0468073
7.77031
2.84184
5.56083
5.79712
0.0226535
0.0222972
16.7646
10.6157
0.0217565
0.0220317
7.05195
9.97389
8.32569
0.0230327
7.89359
5.58818
0.0382844
0.0219637
11.1759
1.37863
0.561422
1.84943
4.87946
1.85723
11.9651
0.0220422
0.0444049
1.5864
19.646
0.0493758
4.86943
0.0238344
0.260951
0.0482052
0.0218896
0.0780249
0.0889494
0.243322
0.0219477
13.6054
0.0220127
0.0220145
10.7819
7.42914
0.0732536
6.57293
3.61228
4.23356
0.0304064
0.0222709
5.01021
0.0282181
6.86174
0.024024
0.0221476
0.0222889
0.0218019
0.199623
19.7809
0.0221432
0.0963775
8.61522
0.0219733
11.7995
0.219044
5.76521
4.90231
0.0219388
19.3329
5.52239
0.199299
4.02683
7.78939
0.0229205
0.076441
0.0221251
0.0217955
29.6854
3.97887
0.0216516
0.0252371
2.15145
0.0219148
8.36535
0.021633
0.0219299
0.0496684
1.21278
0.0224023
0.0688965
0.0340274
0.12077
0.0317271
0.247621
0.0221483
0.0216417
0.073314
0.0239575
0.0368109
0.086718
0.0220349
0.0335784
0.0961721
0.0222789
8.53614
0.0274402
0.021931
0.0492691
0.0221847
0.0365259
0.076495
6.60361
0.0854856
0.556759
0.021632
5.77942
0.0219309
0.0226721
0.235785
8.46609
0.262954
0.0948379
0.0590531
0.046625
0.0216095
0.0877488
0.0220089
0.12009
5.21252
0.282898
0.0220628
0.0219174
0.0216112
0.0216412
11.5671
0.0367948
0.021831
0.839679
5.56959
0.0230192
6.57533
38.7407
0.28169
0.0221781
6.03564
0.0297668
0.0221519
11.1956
0.0305716
0.0302604
0.0225066
0.0415675
1.2803
0.687048
0.0356567
0.0853117
0.0216674
0.0762989
0.0220316
0.0858654
0.026984
0.234234
9.38338
0.0216368
0.0225361
0.444809
0.0224642
0.0249922
0.0861808
9.03044
10.2332
0.0219411
0.119073
26.5903
2.05055
0.0225949
0.0217418
0.029359
0.0369934
0.0219403
24.1816
0.649918
2.73615
34.3889
5.60692
0.0216304
0.0214661
0.0517271
7.5252
0.0255697
0.085607
0.113062
0.0293334
5.71189
0.0218945
0.512829
5.53165
0.0216291
5.79037
0.0377062
0.0219578
0.0332263
0.0865527
0.0228045
0.0221563
6.42779
1.99834
0.0219306
8.24685
5.67146
0.242838
0.022019
0.022121
1.44804
0.0229907
0.0216463
0.0217729
0.0229997
0.232897
0.0879768
0.0293249
0.0358238
0.0312327
0.0495565
0.0216524
0.0222787
1.80859
0.0555842
0.12713
4.35425
0.0259566
0.0223496
0.0220766
0.497807
5.84052
0.0216221
0.0219185
0.021624
0.0237258
0.0441683
1.07141
0.0219643
0.0221943
0.0216072
0.811648
0.218343
0.174742
0.155597
0.0228508
0.98179
0.111604
0.0375265
0.031464
9.74903
7.77096
3.64486
0.0220469
0.0332653
7.33051
8.80976
0.0250003
0.0216345
0.0599819
0.0219605
0.0305221
8.25811
4.06269
0.12848
0.0305065
7.77243
0.0219772
0.0239424
0.0218856
0.0222822
0.122596
0.0240965
7.36511
0.27657
0.0224331
0.0219349
7.10291
0.126158
0.269248
0.0219769
0.0572026
0.0217315
0.0260239
0.0219639
0.0216459
8.85413
7.65426
4.14572
21.7023
0.0219111
0.24059
5.20691
0.0424671
0.0217507
4.32454
0.021771
0.0220619
0.0217909
0.126581
0.0219576
0.0260757
0.144175
10.5433
0.0217589
5.55992
0.0492869
0.0220246
0.0258212
0.0219495
0.0219204
0.028617
0.0711735
0.0489075
26.7576
0.0399278
0.0220442
0.39721
5.84808
4.70808
5.03686
0.119217
0.0225214
0.0216465
0.0218348
0.0222036
0.128584
0.0437339
0.0327715
0.03629
0.030458
1.88889
0.0949719
0.0219455
0.0347994
5.38471
0.0228101
3.98652
0.0222087
0.0220822
5.89645
0.0280821
0.0224628
1.17342
0.148435
0.0508112
10.6837
0.0219316
0.0226171
0.750608
9.30666
0.0360839
0.0715073
0.187402
1.08426
23.2137
0.185201
0.0222779
0.135519
0.0220288
0.130745
0.0231596
13.0605
0.0564872
4.60286
0.0326129
0.0836386
0.0216299
4.42637
0.021629
10.1545
0.0218892
0.362801
0.0220564
1.25193
0.0315144
0.0220871
0.0218982
0.0217826
5.49953
12.3408
7.12505
0.0470538
0.0246282
0.0871363
0.0222703
0.0222875
6.0158
0.0218987
0.0220618
0.115211
0.022041
0.0697644
0.0867198
0.0220574
0.0219544
0.0279358
0.0227104
0.0287721
6.54232
0.0315324
0.0357601
0.0267791
0.0220481
3.71663
0.0223258
0.0226608
3.74742
9.74094
0.0795798
3.09459
0.0252098
0.0226296
7.09843
0.0219524
9.34945
0.33067
0.0220808
6.51102
1.55231
0.0609148
0.0218587
0.0530126
6.00419
0.0220138
0.0218673
0.0230928
0.022794
0.0220323
0.0216994
0.022294
10.9974
0.0252476
8.50633
0.0219685
0.150481
8.07624
0.0220371
0.0216399
0.0251962
0.022129
0.0226674
0.0232865
0.0221126
0.117538
0.778958
0.0215432
6.00979
5.19072
0.035523
0.134128
4.4583
0.0263956
0.0307077
0.0285036
5.74307
0.0251461
0.0480145
0.0219852
11.3347
0.0427207
0.220197
0.1501
7.20409
0.0250836
0.021919
0.0593043
1.19618
0.0226
0.456927
0.0222127
5.71265
0.0227649
0.0217929
0.0217787
0.0220471
5.24643
5.72904
0.0219899
0.294035
0.0306734
4.86475
8.2313
1.22312
3.11929
0.0218969
5.64849
0.0681771
0.0219733
0.0485035
5.93175
7.52545
0.0226647
0.0225566
0.0219979
0.0215096
7.52071
0.116792
5.42301
5.36068
0.0220254
0.0221401
0.0600595
0.0222812
0.0218045
0.0232625
0.022909
0.119897
0.0419795
0.217092
5.84099
0.0717441
0.0220631
0.0274767
0.117048
5.96381
0.0457131
7.10896
0.0528213
0.0219941
0.288525
4.92097
0.0224636
0.0216416
0.147336
5.19204
0.244504
0.0220417
9.6663
33.4111
1.65203
0.0216103
6.70361
6.66978
23.6167
0.0240944
0.0221964
7.36995
0.0222945
0.211673
7.20561
0.213355
6.28171
0.0929435
5.70148
0.0723041
0.0220758
0.0225397
6.01915
4.57332
7.99484
4.11868
0.0219518
0.211925
0.0222772
0.0598594
0.0959719
0.128105
0.0220856
0.0252031
0.229421
5.96714
5.59368
9.25192
0.0387497
0.0326153
0.287489
0.0222292
0.0217084
0.0219601
0.0254463
0.0778186
0.0220349
0.0896082
0.0218526
0.0220721
0.0219061
5.6011
0.0223153
0.0222696
0.0565028
0.0532558
0.0215479
11.4245
0.0219617
0.0217026
0.0552073
0.0368635
0.024852
0.0228922
5.34682
0.0358976
0.0346606
4.92139
0.0346859
4.44818
0.0259975
0.118091
28.6758
9.71391
0.0216337
5.79065
3.01387
0.0216846
6.03723
0.0220631
0.0218931
0.0399872
0.0219516
0.108575
5.88714
0.021627
26.1192
0.0218729
0.0380884
4.49228
0.0215278
5.16128
0.0235423
0.0219832
0.0219213
0.0219569
0.236009
0.072819
11.235
0.0736765
5.44373
0.0598736
0.0220366
0.252809
8.07306
4.44317
0.0755239
0.169909
0.0672015
0.026729
0.233792
0.0227114
6.08581
0.0220344
5.76036
0.0227518
0.0757001
0.0279714
0.0223529
8.81567
0.0225591
0.0218125
3.21165
0.0235772
0.0219088
0.0458707
0.086176
0.245248
1.99655
4.49475
5.54899
0.0221326
0.0222049
7.81606
0.0219962
0.851803
0.099643
0.0237925
0.0220608
0.0328408
0.0219892
0.0219468
0.0291586
0.683641
0.216622
0.154669
0.0622687
0.0221323
0.063536
7.75217
0.0218621
0.0969189
0.023929
5.88484
0.0232152
5.68441
0.022029
2.92033
0.0222766
0.087929
0.0219765
0.0251243
0.029844
0.0215327
0.0216861
0.0215829
5.60197
31.6135
0.0331766
5.28901
0.0220003
0.0432431
0.0282384
0.288962
5.53835
0.0333309
0.0215413
0.225765
0.0218548
0.0220003
0.0282697
9.14044
10.0085
2.00863
1.59819
0.0742275
0.0229328
0.0218828
4.42875
0.0218964
2.91857
0.027743
0.0221854
6.16489
6.32732
0.02209
9.41668
0.0271225
0.115396
0.0969194
2.85491
6.13526
1.16672
0.0219979
0.0215016
5.87329
0.0219479
0.0219293
0.0284206
0.0219647
5.24776
0.266168
0.0603061
5.02194
0.0499977
0.140664
0.0238397
0.0219906
0.0215366
0.0217806
10.1313
8.86309
0.293448
0.0220568
0.0215345
0.0304559
0.0218316
0.0405443
0.0256753
3.21934
6.08074
0.0890439
0.30222
0.304292
0.0218904
0.222171
0.0218854
5.57518
2.4821
6.72359
7.73046
0.0229573
0.0292427
5.14134
5.00511
7.58116
0.0447291
0.12614
5.95246
0.0220475
0.287241
1.57942
0.13385
0.0220417
0.0219755
0.041971
5.48516
3.12477
0.0966733
0.0219717
0.0247784
0.0288722
51.0856
0.0222906
0.619581
0.0218908
0.0227046
0.191023
0.0218643
0.0220234
0.0232736
0.0270365
0.0219771
0.0226907
0.021613
3.85596
0.316103
5.84969
0.0216349
0.0495757
0.022014
0.261812
0.263233
0.0370255
0.0218947
0.0228411
0.604616
0.135932
0.0291937
8.68569
0.130029
0.0219413
0.0220245
4.58569
6.06099
0.0619497
0.0216164
0.701795
0.0221254
0.0363793
0.0216661
1.0596
5.16545
0.0218612
0.0220139
3.9667
0.0219249
6.39448
7.75367
0.0630032
0.0222505
0.0221657
0.0216619
0.0220354
22.2882
8.97
0.135921
0.0228691
5.46855
0.0219417
0.0219319
7.68558
0.0217505
5.82592
0.0215135
0.0288223
0.0232736
0.0219369
0.0218321
0.0221202
5.0544
0.0224891
0.0221941
0.155095
0.0424292
0.021974
0.0582231
0.0368338
0.0221258
0.286627
0.0219781
0.0370142
5.83719
0.103298
0.0219609
0.292473
0.101203
0.0858466
0.0265882
0.0685517
8.67416
0.0244776
0.0602473
0.0219567
0.0215906
0.0220096
0.0455778
0.0366046
0.0484774
0.0218636
0.0275847
0.068272
5.97528
0.28684
0.0219266
0.0217779
0.0228366
0.101574
0.0218104
7.90595
0.0219635
0.0219418
0.0217768
0.433909
4.99721
0.0221548
0.0236123
0.0218848
0.101376
0.021808
0.0219614
1.89942
0.0222705
0.0215946
0.0221302
0.13483
0.0217943
0.0218775
5.13017
10.0645
0.615086
0.0435141
5.04803
0.0500104
0.0219586
0.0219057
22.3399
0.0219631
0.0711796
0.0915201
0.0421466
0.0266861
0.022315
0.0306247
0.0228464
0.0216231
0.199942
5.94073
0.0433286
0.0217863
6.35611
0.0475732
6.61274
7.59571
0.113023
0.0221398
0.021923
0.0218304
0.0637085
0.0221259
0.02183
5.48343
0.159649
0.0439748
0.0219069
0.0663533
0.291939
0.0220953
0.0263985
0.036174
0.136804
0.0763916
0.0220079
0.0234053
0.038236
0.0218205
0.0490267
0.0222949
9.69558
0.0594758
0.123647
0.0217816
0.0372121
5.04638
4.58116
0.883712
0.0625822
8.84083
0.0221293
0.02196
0.0226901
0.0878556
0.0221696
0.0234045
0.0307617
0.063448
0.0220029
0.0219567
0.022013
0.022277
0.302664
4.23127
2.50512
0.0220006
8.05256
0.029625
0.0221552
0.0327281
0.0218748
0.0869402
0.0230005
0.021971
4.74685
31.9984
4.88683
0.0223446
22.094
0.0219693
5.3972
4.83996
0.0215421
0.0647899
0.286428
0.0216228
0.0219638
15.9021
0.022253
0.0220214
0.177949
1.39219
0.0220295
0.0315482
0.0221508
0.0252319
0.135377
0.022167
4.90617
0.0455074
0.021962
1.16813
0.0596913
0.0842247
0.0222883
0.298888
0.0220384
5.72332
0.0219721
0.021767
15.4773
0.0217008
4.97503
0.0219675
0.0549441
7.66652
6.00355
0.0219746
0.0223139
0.0220299
0.0232076
0.0269514
0.0266652
0.0214887
9.08899
0.0218834
0.0219697
0.136189
0.205135
0.0434216
0.022029
12.3114
0.0864814
0.0223864
0.0351693
0.0219178
0.0217603
8.15544
0.0216316
0.0217711
0.0218164
5.09949
0.0218108
0.0218304
5.51853
0.0252703
6.05725
0.0330808
0.0215151
0.0218813
5.28953
0.0258826
0.0220098
7.40706
5.66397
0.0217919
5.24704
0.12014
0.0219235
0.0220114
0.316431
0.0222213
0.676164
0.033383
0.0220339
1.84105
11.835
0.256743
0.0218848
7.55571
0.0299641
0.393475
2.68244
0.0219036
10.2637
0.0220135
0.03183
0.025938
5.98079
0.0216886
0.0223561
1.17967
0.0222734
0.0355253
0.0216954
0.0220743
6.19698
0.0867554
0.025208
0.0359021
2.84282
0.0222932
0.0233598
0.0563052
0.13684
0.0254429
0.0219577
0.0219266
0.022146
0.022597
0.021849
0.0338471
0.0275844
1.11375
0.0220095
6.74627
0.0219701
0.0285562
0.0219862
0.0361465
0.0220688
0.0219397
5.79439
4.79473
0.0240956
0.0220958
14.9542
0.0276313
15.3626
0.0366102
0.070577
5.66716
9.62766
5.02239
0.022986
0.0219894
0.0218033
4.66141
0.0218231
0.0220246
0.151953
0.0218382
0.0221861
0.0220651
10.2436
3.3218
0.0221814
5.15152
6.00884
0.0240011
0.0219421
0.0221634
5.50884
0.0216833
0.105127
0.0222883
0.0219855
0.0220635
0.0217564
0.0810269
0.0219695
0.0218945
0.0217815
0.0216239
0.304958
0.0216108
0.0218094
0.0221008
0.0219549
0.303682
0.777737
0.0586771
0.0225926
0.0219989
0.0221936
0.0222251
5.18313
0.0219365
0.0315557
0.0670206
5.30621
0.0219591
0.0219219
5.22776
0.0221257
0.101935
0.0809451
0.0224416
4.81937
5.54979
0.0309644
7.53416
0.0282979
0.132211
0.0214879
10.1295
0.0220506
7.2807
0.022052
0.0218354
5.36816
2.23946
0.418692
0.151694
0.0219114
6.69963
0.0221768
5.76592
0.056142
0.0219355
0.0214899
0.0218973
0.0518613
0.0608703
5.452
0.0418167
0.0218879
0.021943
0.0219167
10.1092
0.18593
0.0333318
0.0221452
0.0219117
0.030336
1.03342
0.0219231
0.0326631
0.0681573
0.0219367
0.0238726
0.0231333
0.0598546
0.153712
0.0244432
0.0778277
0.0215925
0.0220199
8.46944
0.0404429
0.0864197
5.01513
0.0216147
9.20281
14.5362
0.0506259
6.0654
0.0219442
5.00135
5.82416
0.115915
0.0218001
9.85812
0.14388
0.0219986
0.0394244
6.6444
0.0226558
0.0219796
0.0395384
0.0222713
10.3788
0.0306483
0.0220473
0.0222822
0.0218808
0.0684443
0.0328006
8.44555
0.105248
5.67228
0.0745909
0.0222612
0.0219464
0.604382
11.9258
0.0219754
0.0218854
0.143587
0.0220929
0.317574
4.91169
9.81897
0.0219572
0.0219683
5.93998
0.0217597
5.98948
0.518492
0.0217184
5.73812
0.0599123
0.0818172
0.0219806
16.8579
0.0220356
3.76729
0.0215075
0.0495589
0.0228182
0.0216905
8.20133
0.0226944
0.0219627
0.0234272
5.78062
0.0220819
0.021604
4.75847
0.021903
0.0216607
0.0221228
0.0249973
0.0220608
0.022186
0.0279279
0.0221801
0.026387
0.0215623
0.266635
7.61651
0.131085
5.73856
0.0280706
0.0263658
0.0218817
0.0218329
0.0221294
7.92722
5.27505
0.0219027
0.0222778
0.0219222
22.1839
0.0215975
0.299605
0.864694
5.52106
4.93872
8.73049
5.49131
0.0216376
4.56568
6.15544
4.80333
0.0262056
0.0221394
0.0433176
0.0216457
3.18139
0.128904
0.0607981
0.0269938
8.92141
0.0219976
0.0214842
5.07715
0.140108
0.0219785
0.0215264
0.045264
0.0221223
15.3899
12.0441
6.04417
4.93745
0.0845126
1.82522
0.0218274
0.277402
0.0221115
0.0219636
0.0216517
6.02244
0.0221567
0.0218246
1.65031
5.27702
0.22943
0.146518
0.0229537
0.0391687
10.9248
9.87151
5.09844
5.65627
0.118414
4.96006
0.219648
1.57637
0.0531179
0.0412654
0.0218841
0.0362094
0.0321161
0.0220538
5.13291
0.0218107
0.0219755
0.022007
5.88121
0.0256153
0.0218146
0.0218308
0.0219736
0.128421
0.0878241
3.20445
0.022693
6.85738
0.0215186
0.021924
0.0849432
0.0690532
0.0215031
5.50131
0.042128
5.22898
0.0219917
10.6287
0.0614939
0.0219317
0.0220614
0.0219586
5.62504
5.36087
8.84966
0.0219858
0.0222245
0.0215788
5.29741
0.0282702
0.0220668
1.62882
0.0219388
0.0226234
5.31473
0.0216026
0.02196
0.0220722
0.0221142
0.0214805
0.0224192
0.0215179
0.0222221
0.0842437
0.0399349
0.0218377
7.99789
0.0238272
5.76776
9.48315
0.0505221
5.77547
5.268
0.0218095
0.0422827
0.02203
0.0218357
4.53586
0.02623
6.45891
0.0273445
0.134054
0.0220599
0.023255
0.0219169
5.44546
0.0433227
5.61162
0.0220531
0.113741
0.0291875
0.0218034
0.037737
0.0411857
0.0215496
8.02861
0.0221017
0.0414777
0.0220111
0.0305357
0.0490483
0.221018
0.0266266
0.0833371
5.96858
0.0303756
0.0397727
0.0215994
6.20474
0.0588518
0.0222717
0.0719197
3.49013
19.464
0.0219771
0.0229065
0.0221728
0.0215874
0.0219229
5.21394
0.0285474
0.0220834
10.5194
0.022115
0.0215915
0.0258028
5.8619
0.0221726
11.6737
4.39853
0.100893
8.55434
0.0226221
5.33358
1.43826
0.0216173
0.0291076
0.0220127
0.0223296
0.0391515
7.38146
0.0644631
0.857416
0.372934
0.021888
6.48104
0.0219102
5.18131
0.0222681
29.4707
4.65906
0.0221598
0.0217607
0.0222789
0.0329962
0.085556
0.0219722
18.295
0.0229655
0.041753
0.0735363
0.0231187
0.0219224
4.03279
0.0217625
0.224771
0.0293823
20.1105
0.0221279
0.0218819
5.02843
0.0214622
0.0217572
0.0225704
0.0596563
0.0527021
0.26956
0.0242968
0.0217602
0.0252026
0.0222722
0.0225059
4.92932
0.0219413
0.0482762
5.64649
0.208313
0.0219564
0.0871003
0.0218618
0.0222087
0.431515
0.239472
0.0877097
0.0222395
0.0219568
0.0246855
0.0906843
0.0218874
0.0296343
0.0218862
0.0222516
0.0218451
0.0220229
5.47096
0.0215573
10.4442
5.56023
0.0251546
0.0216822
5.13575
6.30189
0.0217959
0.0219791
13.5589
0.0222989
0.0645247
0.218549
1.4626
0.0219204
0.0227812
0.0493285
0.0219866
5.8886
0.186249
0.0218094
0.0312163
0.0382704
0.0220894
0.292552
0.0221532
0.0503842
0.0229226
0.0249075
0.0215312
0.0218862
0.275216
0.0219557
5.62196
0.0715565
0.0219908
0.0219823
0.0219857
0.021867
4.94043
0.0222718
0.169653
0.0219085
0.0218523
0.0560061
5.95558
0.0217686
0.0215565
0.0219194
0.0225924
0.030204
0.0303887
5.90607
0.0282731
0.0218424
0.149857
5.00426
0.0222518
0.0315679
5.35413
0.0361173
0.0224368
4.63052
0.0214803
8.75513
0.0433546
0.0220671
0.0856856
0.0218673
0.0219266
0.0219155
5.03268
0.0220115
0.934418
5.01082
1.98929
0.0290156
0.0219666
4.78096
0.022278
24.6136
0.0217229
0.296679
0.0257895
0.0916387
0.0226455
5.28994
0.0293504
0.0222245
6.17308
7.13352
0.0215594
0.95737
0.02199
0.0310993
0.0217412
28.1927
1.24408
0.0222868
0.0220113
5.73161
0.284245
0.0218571
0.0234379
0.0220329
0.0218086
0.0217115
0.0240094
5.25324
15.5693
0.0224544
0.210109
0.0235015
0.070427
0.0220036
27.6199
5.68067
8.10301
0.0227111
5.11602
7.42778
0.0249124
0.0306002
0.0218744
0.0515741
6.84726
0.0221715
0.0217118
0.0217641
0.0275015
0.0215853
0.0219889
1.20804
0.0230681
0.200796
0.0220145
0.0219745
0.0224586
0.0220437
0.179607
13.0378
0.0217902
0.0448781
0.0215426
5.49117
0.0218155
0.0242331
6.60386
2.60071
0.0261889
9.98174
0.405305
0.022067
0.0601258
0.0220956
0.0334508
0.0222351
0.0219283
0.157791
0.116202
5.19696
0.123982
0.0348971
5.26278
0.0231313
0.0422579
0.0227225
4.98926
5.46456
6.30151
0.0219546
0.0215163
7.91315
5.30364
0.0221298
5.02799
0.0221384
0.0269172
0.0214928
0.021878
0.0218137
0.0218348
0.255325
0.0407539
0.0385388
0.0219752
0.022021
0.0216426
0.021826
0.021816
0.0222629
0.0219363
5.23881
5.45287
4.96383
0.0236737
7.52839
0.0572133
5.64257
7.67233
0.0571737
0.022113
0.0222265
0.196283
0.022392
3.40378
10.1956
0.0225966
0.0216986
0.0308089
5.39685
0.022
6.56639
0.0218462
0.0221002
5.91938
0.0219302
0.0287127
0.0221651
5.21918
0.0215796
0.0219405
0.224194
0.021621
0.0220571
0.0218805
0.021699
0.0679002
0.0218952
20.6757
0.0220234
0.0222172
0.0214714
7.84055
0.0341988
0.0221899
5.02648
0.0220865
0.0215558
0.232403
5.17092
0.0220891
5.74211
6.01351
0.0264033
5.45027
0.0221113
0.0219633
0.0999358
0.0216711
5.58991
5.61696
0.0214886
0.025924
0.0218705
7.28468
2.54935
0.0455917
0.0221435
1.35185
0.036373
0.0530931
0.026862
0.0220287
0.0225301
0.0218935
0.0218083
5.86379
0.0214496
0.0218103
0.0426458
7.72885
0.0834505
6.36687
0.0220146
0.0420623
0.0218908
0.0219864
0.0220839
0.0217591
0.0221522
0.0219169
0.0221004
0.0221725
0.0242516
0.021977
0.0221449
0.0216825
7.92498
6.12273
0.0221908
0.0227456
5.8117
0.0222103
0.13596
5.64981
0.34849
5.86898
0.817091
5.95941
8.87228
7.82071
0.0217695
0.0303128
0.021867
0.049826
0.0246443
0.0222238
0.0217896
9.48873
0.0216309
0.0298561
12.4977
0.0215862
0.0217298
0.0748671
0.0216999
0.0218823
0.0218827
0.0221665
5.32035
7.58502
0.0220373
0.0219408
0.0220571
0.0228681
0.0432512
0.0228937
13.8483
0.213723
0.0221941
4.8579
0.0323218
0.0219396
7.49688
0.0215931
0.053143
0.0217723
0.0223964
0.0223973
4.86609
0.0219296
0.0219638
0.0239022
0.0223145
0.0306009
0.0218167
4.52225
0.0400209
0.0441924
8.75084
6.0519
0.121308
0.0332713
4.63809
0.0219782
0.022005
0.0252763
5.22681
0.0550325
0.0489533
10.2559
0.0219771
3.18923
0.234357
3.86269
0.0220003
0.0360447
0.0218706
0.123642
0.0334582
1.33808
6.24981
0.0220158
0.0356404
0.027697
0.021917
0.98808
0.021967
0.0302022
0.153539
0.0870848
0.0219487
0.0222949
0.0222286
0.0561414
0.0219509
0.0221759
0.0219632
0.022078
0.0216611
0.0379787
0.0215452
0.737746
5.20021
0.022528
0.0217515
0.021555
0.0424019
0.0346569
0.0221252
6.79146
0.0496303
0.0217662
0.0218174
5.25306
5.20447
0.0219388
0.214053
0.0349575
0.0220116
5.71807
0.0225974
0.0721707
0.022234
13.3378
6.05074
0.0222563
0.0358123
5.70456
0.0347408
7.53727
0.0222395
0.0254507
5.18794
6.64557
0.0253032
0.025391
0.0225614
0.0244049
0.0228286
6.9661
5.19542
5.00354
0.0233642
0.0219783
0.0610024
0.021886
0.235837
0.0248251
10.4214
0.021574
0.0221892
0.0217564
0.0218996
0.0218448
0.0853451
7.2688
0.0300117
0.0216195
0.0221033
9.40293
0.0235687
0.0238206
0.0221554
0.0362777
7.32733
0.0217025
0.0218581
0.0410297
0.0862527
0.0221141
0.0425598
0.0223066
0.0237158
0.13756
0.0287275
6.64585
0.982202
0.0476145
11.1199
0.0218569
0.0218843
0.023093
5.61683
0.0232461
0.651209
0.0216942
5.50926
0.0363324
0.0218604
0.0300952
0.0222868
5.88489
0.0564439
0.0305221
0.250942
0.12194
0.0221507
0.0222005
0.0222285
0.024872
5.49007
0.0551486
0.0221029
0.209214
0.0218457
5.61254
0.0219477
5.19386
0.0293889
5.78183
2.26681
0.0577805
0.0219644
0.0220067
0.0218688
6.1137
0.021976
0.0542729
7.26237
0.0215331
9.32648
0.0328849
0.0219556
0.0862547
0.0219152
0.0218282
5.45441
6.67018
7.02831
0.0218892
0.0217606
0.0227645
0.0243239
0.0229533
0.0219446
10.4175
0.085329
0.62816
0.0225231
0.042279
1.97699
1.31012
0.0302448
0.0217555
5.6187
0.0229348
5.33371
0.0218783
0.0220279
0.0219833
0.0217194
0.0215307
0.0222161
0.0217847
0.036922
7.04181
0.0357167
5.22938
0.0250678
0.0222086
0.0221234
0.412367
0.0220239
0.0224984
0.0220446
4.67181
4.79003
0.0217802
0.0235068
0.02186
0.0219756
0.0222785
0.022063
0.0218948
0.882201
0.0222173
0.0217998
0.128027
0.02182
5.09293
0.088951
0.0993385
0.208286
0.0240088
0.0220779
5.7586
0.0220675
0.0834431
0.0288815
0.0217831
0.0496819
0.0220649
5.54602
0.0216096
0.0217947
5.98637
0.0565328
9.41352
0.021751
0.0960784
0.148125
0.0317531
5.07257
0.0218819
0.021743
0.0216179
0.0902616
0.022766
2.66739
0.0220079
0.041845
6.71308
0.219624
0.0220167
0.875093
0.0253047
7.30456
0.0235229
0.0233941
0.0239831
5.30564
0.0219662
0.022344
5.0959
0.0215613
0.0261871
0.0218191
0.0466693
5.95299
7.27444
0.0218562
0.0964184
0.0220058
0.281892
0.0220165
0.0224342
0.0963204
21.4141
0.039352
0.0219976
0.0254192
5.34352
0.0581169
0.0871858
5.33437
0.0220245
10.4411
0.0229713
0.159991
0.0217892
0.0251307
5.92759
0.0254509
0.0219214
0.447799
7.4176
6.25101
0.0217008
5.42188
0.463107
0.0216155
0.146132
10.8474
0.0222783
0.022807
4.15828
0.0214947
0.022408
0.0218294
0.0220587
0.117411
0.0866608
0.0351921
5.56373
0.0222712
0.0582202
0.0297074
0.0221757
0.0232523
0.0344398
0.0219846
0.0222272
8.20341
5.19843
9.32155
0.0216783
0.0379016
0.0221358
5.28495
0.0220945
0.0416767
7.61201
5.44552
0.0672116
0.0219594
0.364804
5.19447
2.05338
0.0220038
0.0221248
0.0218314
5.50793
0.0379492
0.14978
5.82783
0.0220572
0.0222113
5.52837
0.0287091
0.0876091
0.0221738
0.0218767
0.0219764
1.41682
0.0220171
0.0559774
0.0217537
0.0221101
0.0217925
5.5454
5.21249
0.0237885
0.510589
0.0230171
2.23425
0.0219137
0.0219008
0.0912733
0.0220523
0.021925
0.0253958
0.102214
0.0292323
0.126814
0.0220136
0.0703319
5.10538
0.022083
0.0220171
0.0220103
5.02614
0.0452454
0.047035
0.092401
0.0217726
0.0218551
0.138627
0.0258122
6.90595
9.16562
0.0358652
5.17885
7.74472
5.82922
0.0573127
0.0222776
0.0219999
0.292005
5.10448
0.0218725
0.0380211
5.59087
0.0221069
0.232095
1.54368
0.142887
0.021921
0.0974705
0.0221245
0.0221057
0.0216237
0.864845
0.0221162
0.055927
0.0376456
0.0219844
0.0221838
4.95897
0.021781
0.0215948
0.048497
4.65136
0.0378552
0.0220242
0.0398356
6.89346
5.37004
0.0283377
6.31707
0.0906379
0.117432
0.0583543
0.0220961
0.152094
0.0330039
0.0216534
0.0217222
0.0223392
0.0258858
0.31294
5.35777
0.0222183
1.34937
0.0745901
2.38195
12.5559
0.296251
5.24964
0.140539
5.19685
0.0499163
5.3059
0.062337
0.0219774
0.0221099
5.78237
4.76914
0.125582
5.34975
0.02181
6.36307
5.35611
0.0220358
0.0216453
0.0375493
0.064243
5.87189
10.2318
0.108869
0.0218731
0.0218206
0.0222178
8.74512
0.0254536
4.13236
0.0245438
24.993
0.193716
5.642
0.027741
5.69829
0.021799
0.0215915
0.0258299
0.0221634
6.16738
0.128898
5.29088
0.022059
6.60396
5.06937
0.0215468
0.0421758
5.4701
0.0433193
0.0218709
0.0261674
0.0219779
5.09455
0.0214558
0.0223291
5.95938
0.0293758
0.0487647
0.0277124
0.0218138
0.0221811
0.0416567
0.0220473
0.0216494
0.0218348
0.0302431
5.61071
3.30917
0.0219782
0.129726
6.34299
0.0221157
7.45401
6.67027
0.0221016
10.6842
0.0220743
0.0990876
4.8357
0.0219691
0.0221662
0.022189
0.0937151
0.0261391
0.0218596
6.09374
0.0219532
6.92848
0.0220401
6.81193
4.98482
0.0249779
0.0217388
0.160799
0.0801378
0.153605
4.95219
0.0442946
0.0221914
5.1297
0.0224703
0.0872928
0.0751253
0.0299711
0.0619022
0.0218727
0.126716
5.43051
5.88797
0.114013
0.0218772
0.210647
5.28331
0.0222719
0.202584
0.115129
1.82371
0.0219534
0.0249878
0.0215013
0.217347
6.01749
0.0939262
6.09544
0.0842134
0.038834
5.46972
4.88115
5.70911
0.563434
9.35045
0.0720401
12.2905
0.0540255
5.17447
5.88415
0.0233084
0.0223106
0.0270665
0.0604397
0.0219987
0.0261806
0.0222617
0.0242434
0.0220079
0.021863
6.67856
5.24829
0.0222037
0.0512294
0.0221063
0.0217933
0.0235832
0.0800353
0.023423
0.0892551
0.0221644
0.043446
0.47642
0.0999191
0.0459138
0.0219767
0.098324
0.0222203
0.0219271
0.614316
0.0228397
5.63506
0.17657
0.0219357
0.0242973
4.19092
0.0220747
0.0943089
0.0571159
0.0595354
0.0265444
0.0370826
0.0220128
0.022168
5.40657
9.01847
0.0360434
0.0802086
0.022038
5.66193
0.0255475
5.8395
0.077943
0.0221091
0.0216787
6.21387
0.159838
6.14323
0.02807
5.78595
0.022621
5.51892
9.16748
0.0308102
0.146483
0.0218552
7.23261
0.0222077
10.9873
0.0287312
5.1548
4.87464
5.14087
5.58095
0.0360902
7.83521
0.179694
0.0490003
5.03657
4.85701
5.37611
0.0217112
0.0258379
0.0736752
8.41627
0.0218699
0.0217892
0.0297702
0.0610104
10.9847
0.0583951
0.0449881
0.0219336
0.118343
0.0215453
0.191086
5.20276
0.843367
0.0217787
6.75273
0.067435
0.0225272
5.76165
0.480445
0.0265859
5.41614
5.14846
4.57801
0.0556027
0.0218387
0.0289569
6.30191
0.0377921
0.0219838
7.30279
0.0214955
6.21287
0.0232422
0.0221535
5.86099
5.17266
0.0218348
0.0522654
0.0219559
7.96383
0.0215073
5.14667
0.155266
0.0426517
0.0219074
0.0220074
0.0221604
0.038587
0.0543347
0.117957
0.0291459
5.78917
0.0337017
0.0253711
6.17025
3.42018
0.0216434
0.157454
0.0219401
5.33317
0.0220763
0.0429489
5.21132
0.0276269
0.0219312
5.45409
0.0222812
0.0222549
0.0463147
0.0222782
0.0218953
5.97021
0.0673431
5.64009
0.0222788
0.116826
0.0917416
0.0216454
0.02193
0.0236188
0.0218465
5.15812
0.481823
3.24098
5.68207
4.37596
5.26265
0.0219198
0.0220093
0.0219473
0.0221241
0.108874
7.08322
0.0305134
0.0248301
5.57608
0.0222621
0.0217781
1.99934
0.13316
0.0214703
0.0219643
0.0218813
0.223417
0.0217555
0.02193
0.147214
0.0342098
0.122378
0.0238794
5.82943
5.70937
0.0214633
0.0217212
5.14812
0.0340391
0.0251436
5.5096
0.0361638
0.117045
1.04954
0.0234429
0.611663
5.08593
0.0215398
0.0257947
5.66947
0.0251884
0.0220147
4.29523
0.0557038
0.0567555
0.0221554
0.346802
0.0237693
5.29219
0.0220324
0.0219791
0.0334196
0.0620526
6.73649
0.0360687
0.0219506
25.29
5.58679
0.023993
0.0737152
0.0220339
0.021897
0.0217472
5.29567
0.0218462
6.91458
0.225478
5.68784
6.08528
0.0354102
4.67652
0.0331122
6.67755
2.56133
0.111904
1.03383
0.0744425
0.0932985
5.3397
0.0524314
0.0220049
0.0220601
16.3471
0.0401441
0.023019
0.0221503
6.1259
9.24299
0.0220939
4.29424
9.4773
0.0694408
0.76992
0.0405718
0.0403833
0.0428034
0.0987689
5.30379
0.0276013
0.207441
0.231558
0.0217577
0.127073
0.0280183
5.78555
0.0680318
0.0219665
0.224025
0.0640283
0.0748363
0.55758
0.0225294
5.12128
0.193764
10.4355
6.07818
0.0221836
0.0220145
0.0218795
7.1687
5.17445
0.0830777
0.174764
0.021845
0.0217342
0.0225817
0.0851157
4.42921
0.0529686
6.45324
0.0749751
0.382722
1.54674
0.0217606
0.0560567
8.94912
7.08117
5.89628
6.54523
5.69281
0.0222188
5.29763
6.04023
5.09265
4.21677
0.0219386
6.07198
0.0225762
5.21656
0.0274311
12.3941
11.733
4.30133
0.0221564
0.0219771
0.074736
0.0237654
0.124309
0.0222726
0.0488414
0.0487655
0.0217983
0.0220031
0.0345799
0.0219314
8.48292
0.0218864
0.0230573
6.10192
0.0704182
6.14159
0.12237
7.88052
0.0219246
0.0219808
0.0222529
5.34831
7.5751
0.022025
0.0508317
6.31073
9.29281
0.0218885
5.9115
5.19303
0.0218031
5.52125
0.0219094
0.041524
0.0220118
0.059642
0.0220708
0.127681
5.70375
0.0218565
0.0221592
6.29509
0.035686
0.021696
0.0220969
9.43149
0.021874
0.022168
5.19995
9.54731
6.01806
0.0940016
0.021925
5.20234
6.14306
1.15805
0.0221662
0.0963621
0.0700321
0.0219498
0.251302
0.0218074
0.021814
0.0218245
0.0579593
6.17099
5.86765
0.042417
0.16869
0.0218748
5.82398
0.0218141
0.0280432
0.0466067
0.023383
0.0529786
0.0363005
0.0218628
0.110164
6.17406
0.0580848
19.3058
7.89368
0.061433
0.0219572
0.0250148
0.256262
0.0295584
0.0221944
0.118111
8.20387
0.0217042
6.16989
0.028822
0.0219501
0.747131
6.26688
4.95889
0.0219763
0.0268489
0.0249051
0.0550497
0.0496026
0.0218676
0.0219665
0.111663
1.03829
4.8816
0.0274965
0.0222766
0.0217406
0.186991
0.0220251
4.95642
0.0222731
0.0409099
7.66246
0.192877
6.1583
0.0220515
6.27168
4.65066
6.75722
0.0220033
0.0222132
0.0544874
5.12982
0.0218257
6.31498
0.0218698
0.0214959
6.48947
0.0221839
0.0567258
0.0279313
0.0228603
0.0318107
0.0293997
0.0668186
0.0466326
0.0401999
25.1361
0.170974
5.25437
0.0469184
0.0346138
0.0567972
5.20029
0.193952
0.0277062
0.0220794
6.1065
0.0226766
2.66232
0.196834
0.846841
0.0216895
7.48585
0.0220561
2.0749
0.0225485
0.848079
5.57811
0.0496327
11.4542
5.62609
8.78467
5.28442
5.60763
0.0640037
0.021945
0.0217962
0.807457
0.0218017
0.0219319
0.0219854
0.0405046
0.0233884
0.0345595
9.49675
6.72632
0.131688
0.0276854
0.027424
0.0215769
0.0254598
0.220835