/*--------------------------------*- C++ -*----------------------------------*\
| =========                 |                                                 |
| \\      /  F ield         | OpenFOAM: The Open Source CFD Toolbox           |
|  \\    /   O peration     | Version:  v2012                                 |
|   \\  /    A nd           | Website:  www.openfoam.com                      |
|    \\/     M anipulation  |                                                 |
\*---------------------------------------------------------------------------*/
FoamFile
{
    version     2.0;
    format      ascii;
    class       surfaceScalarField;
    location    "300";
    object      phi;
}
// * * * * * * * * * * * * * * * * * * * * * * * * * * * * * * * * * * * * * //

dimensions      [0 3 -1 0 0 0 0];
oriented        oriented;


internalField   nonuniform List<scalar> 
27907
(
-0.0835749
0.0646698
0.0189051
-0.059332
-0.0121874
0.0715193
0.415346
-0.465796
0.0504351
0.0416868
-0.0202535
-0.0214333
0.00962115
-0.00379874
-0.00582241
-0.0105869
0.00256205
0.00802487
0.00990396
-0.000270289
-0.00963367
-0.333216
0.422429
-0.0892205
0.0955116
-0.081676
-0.0138356
-0.169403
0.022931
0.146472
-0.0230881
0.18398
-0.160892
-0.00871592
0.00672647
0.00198945
0.080585
-0.436514
0.355921
0.0934858
-0.10125
0.00776403
0.259322
-0.176661
-0.0826617
0.0501666
-0.0304442
-0.0197224
0.0361095
0.0920071
-0.128117
-0.0880617
0.368954
-0.280896
-0.120707
-0.13644
0.257146
0.145878
-0.121799
-0.0240786
-0.00167424
0.000438899
0.00123534
-0.430261
0.448943
-0.0186823
-0.00242332
0.00085238
0.00157094
0.0673554
-0.0859287
0.0185733
0.0246513
-0.088384
0.0637328
-0.420059
0.0868359
0.0384377
0.00622264
-0.0446603
-0.00274944
-0.0027557
0.00550514
0.0302712
0.014935
-0.0452061
0.0780019
-0.0613824
-0.0166195
0.089136
0.0155146
-0.104651
0.00152063
-0.00599274
0.00447211
0.474259
-0.461806
-0.0124564
-0.244037
0.125432
0.118605
-0.100263
0.0245738
0.0756896
-0.484397
0.293826
0.19057
0.557025
-0.334931
-0.222097
0.280861
-0.13567
-0.145192
-0.153218
0.243236
-0.0900182
0.0282969
-0.126217
0.0979204
0.274025
-0.189826
-0.0841998
0.160028
-0.13962
-0.0204081
0.174489
-0.34002
0.165528
-0.1188
0.159417
-0.0406174
0.0984273
-0.07564
-0.0227873
-0.495709
0.26071
0.234989
-0.00166607
-0.000757257
-0.152923
0.192887
-0.0399647
-0.148509
-0.0208936
-0.20415
0.399072
-0.194926
-0.0892711
0.113705
-0.024434
0.0238875
-0.0157935
-0.00809393
-0.47505
0.0933315
0.38171
-0.194421
0.171333
0.0019903
-0.00473974
-0.0244533
0.082971
-0.0585176
0.299323
0.257699
0.0446134
-0.0229368
-0.217139
-0.016348
0.233487
-0.0981131
0.0239016
0.0742115
0.0557961
-0.0864459
0.0306498
0.00843947
0.00146449
-0.117448
0.111483
0.00596501
0.188986
-0.0333357
-0.155651
-0.385443
-0.0896138
0.345054
-0.190247
-0.154808
-0.072766
0.134515
-0.0617492
0.364378
0.109878
0.146715
-0.277796
0.13108
0.0057194
0.0181681
-0.0144645
0.0108917
0.0035728
-0.122481
0.224745
-0.102264
-0.379532
0.175378
-0.0171277
0.0112226
0.00590506
0.149829
-0.376857
0.227024
0.209509
-0.00972631
-0.199784
0.0947963
-0.073079
-0.0217173
0.005749
0.00253027
-0.00827927
-0.0819016
0.0236265
0.0582751
0.00319206
-0.00159799
-0.00159407
0.00240748
-0.00189817
-0.000509312
0.0791341
-0.0587832
-0.0203509
-0.0639306
-0.0341825
0.000550566
-0.0069506
0.00640003
0.0918519
0.00294438
0.169286
-0.150392
-0.0188941
0.0213132
-0.032088
0.0107748
-0.098436
-0.0190118
0.00338636
-0.00263624
-0.000750126
-0.0468248
0.256333
0.00375725
-0.00320668
0.00142447
-0.218565
-0.00625782
0.00268542
0.0035724
0.141119
0.0189086
0.00254863
-0.00235224
-0.000196386
-0.00425726
-0.00200056
0.0842553
0.00759657
0.348921
-0.199096
0.122415
-0.260936
0.13852
-0.00121253
-0.00046171
0.148853
-0.0216051
-0.127248
1.83336e-05
-0.00144595
0.00142762
-0.0799967
-0.027629
0.107626
0.0187756
-0.111179
0.0924037
-0.00314331
0.00466394
0.0516863
0.0263156
0.0693169
-0.0420195
-0.0272973
0.00954979
-0.00380079
-0.162967
-0.0337956
0.196762
0.142948
-0.24209
0.0991414
0.00325723
-0.00751449
-0.0171277
0.197067
0.216347
-0.41342
-0.15282
0.260952
-0.108133
-0.0412219
0.0370062
0.0042157
0.0098986
0.000233178
-0.0101318
-0.00918134
0.00907949
0.000101847
0.127401
0.13192
-0.00197299
0.0014353
0.000537692
0.0022039
0.000344727
0.0202357
0.111948
-0.132183
-0.270224
0.239603
0.0306211
-0.0240754
0.0304507
-0.00637524
-0.0407395
0.000413643
0.0403259
0.0190189
-0.0766242
0.0576052
0.0650513
0.033376
-0.073866
0.0145341
-0.0632223
0.0819734
-0.0187511
0.00455953
-0.00187411
0.440009
-0.624184
0.184164
-0.0764859
0.112595
0.0625942
-0.0241566
0.00329974
-0.00286084
0.131487
-0.0538252
-0.077662
-0.0096171
0.0313212
-0.199731
0.119507
0.080223
-0.0887123
0.0156333
0.127485
-0.0991879
0.276128
-0.153715
0.00337802
-0.0479275
0.0445495
-0.0758839
-0.0060177
-0.00635597
-0.0466425
0.0529985
-0.262253
0.237703
0.024549
-0.0631748
0.0387215
0.225057
0.048967
-0.186102
0.276844
-0.0907429
-0.00597676
0.00623754
-0.000260776
-0.0114591
-0.00130079
0.0127599
-0.0189222
0.108058
0.0225749
-0.0340407
0.0114657
0.0585813
0.0205527
-0.0602059
-0.00339678
0.0636027
0.186874
-0.0490502
-0.137824
-0.459197
0.457347
0.00184823
0.00168499
-0.00145195
-0.000233044
-0.000632955
0.154897
-0.154264
-0.00157716
-0.000395829
-0.198795
0.0458727
0.00379187
0.166242
-0.170034
0.486231
-0.299321
-0.18691
-0.193041
0.355611
-0.162573
-0.0983285
0.0672098
0.0311187
0.0123747
-0.00746996
-0.00490476
-0.184006
0.187798
0.0849999
-0.0292038
0.0445802
-0.014309
0.1619
0.090238
-0.252139
0.027087
-0.00669082
-0.0203962
0.0692153
-0.0884492
0.0192339
0.00117351
0.00914777
-0.0103213
-0.00721501
0.00693667
0.000278332
-0.322229
0.234164
0.00754955
0.00482517
-0.0043841
0.00642771
-0.00204361
-0.0421718
-0.0561567
-0.00422869
0.0715841
0.0382232
-0.0104273
-0.0277959
0.170644
0.0183416
-0.0611749
0.0645529
-0.265906
0.145818
0.120087
0.263144
-0.460023
0.196872
0.00973976
-0.00973976
0.0113737
-0.0715796
-0.181899
0.346779
-0.164882
-0.0766049
0.157538
-0.0809334
-0.00586844
-0.0647899
0.0706584
-0.317279
0.235001
0.0822773
0.00871668
0.00118192
-0.217549
0.386909
-0.169364
-0.313308
0.183258
0.130049
0.0673853
0.0641019
-0.0798938
0.0166715
-0.0308784
0.209486
-0.178608
0.0938111
-0.112733
-0.0477118
-0.054018
0.10173
-0.118302
0.0198659
0.127256
0.018622
0.10544
-0.0362251
0.534958
-0.301245
-0.233716
-0.185095
0.35958
-0.0282646
0.0750883
-0.0468237
-0.177807
-0.0209884
0.136701
-0.150819
0.0141184
0.0855735
-0.10498
0.0194069
-0.300987
0.381564
-0.121365
0.0736535
0.0775705
-0.108997
0.0314264
-0.529678
0.0704797
-0.000387126
0.00064692
-0.000259794
-0.171571
0.0230614
-0.162591
0.381148
-0.218561
-0.0887515
0.107527
0.0617338
0.148589
-0.210323
-0.119438
0.136269
-0.0168314
0.0530786
-0.0745147
0.0214361
0.000205117
-0.00212707
0.00192195
-0.0253184
0.0783971
-0.022777
0.0426427
-0.0198658
-0.0903589
0.326106
-0.235752
-0.0017073
-0.00887962
0.20636
-0.200754
0.0377859
0.100992
-0.0378321
-0.0631598
-0.00530209
-0.000674674
0.0185933
0.0582404
-0.0768336
0.107387
-0.0298163
-0.0801113
0.122502
-0.0423911
-0.0842713
0.111431
-0.0271595
-0.357542
0.293668
0.0638717
0.0724946
-0.109753
0.0372582
0.245444
0.0996096
-0.0217134
-0.0965884
0.00236953
-0.00230173
-6.77938e-05
0.095419
-0.0111637
-0.00539589
-0.431125
-0.187646
-0.129634
-0.263088
-0.0944566
0.475006
-0.281598
-0.193417
0.0112635
-0.0353389
0.165985
-0.104536
-0.061449
-0.209875
-0.0744392
0.284312
0.0239475
-0.0845121
0.0605646
0.0155712
0.0537457
-0.220527
0.0439461
0.17658
0.0378454
-0.0152704
0.00189185
-0.000921929
-0.000969921
0.08634
0.00907896
-0.277897
-0.206501
-0.00214864
0.00279427
-0.000645636
0.126899
-0.00474851
-0.122151
-0.36484
0.0421265
0.322713
0.0267944
0.000292617
0.0242718
0.145014
0.0905391
0.0363602
-0.0775759
0.201243
-0.123667
-0.0554192
-0.0632694
0.118689
0.0878623
-0.0228265
-0.0650358
0.0148113
-0.0375882
-0.11478
-0.00465838
-0.0894241
0.060885
0.0285391
-0.118732
-0.163558
-0.136984
0.0523627
0.0846214
-0.307283
0.335415
-0.0281333
0.105169
-0.0195956
-0.142133
-0.0294381
0.0460516
0.0549403
0.0117593
-0.000421958
-0.0113373
-0.339671
0.249306
-0.0388437
0.202957
-0.164114
-0.0718448
0.0732986
-0.00145377
0.162522
-0.201366
0.107305
-0.183911
-0.0324857
0.0254159
0.00933939
-0.0347553
-0.00996696
0.000785623
0.139974
0.0978726
-0.237848
0.0274294
0.078566
-0.105995
0.01336
-0.00321441
-0.0101456
-0.0802328
0.0214496
0.211814
-0.18005
-0.031765
-0.189609
-0.107789
0.297397
-0.177293
0.103189
0.074104
0.0955946
0.0703906
-0.22193
-0.0403239
0.00857854
0.00478149
0.0836658
-0.0597183
0.0206581
0.0330448
-0.0537029
0.00329974
0.000703461
-0.372982
0.19286
0.180119
0.0146931
0.400642
0.0320242
-0.0969726
0.0649484
0.00617448
-0.00596937
0.152251
-0.112704
-0.0395473
-0.0657977
-0.0863324
0.107388
-0.0210557
-0.055413
0.153982
-0.0985689
0.000258845
-0.268228
0.14752
0.0860001
-0.04539
-0.04061
-0.00577709
-0.325138
-0.170582
-0.010716
-0.0120945
0.0228105
-0.0903011
0.120309
-0.0300081
-0.122036
0.268749
-0.178918
0.0713067
0.107611
-0.0810292
0.107243
-0.0262141
-0.219858
0.202419
0.0174389
-0.367909
0.00306849
0.00982244
-0.0113272
0.00150471
0.0704735
-0.0498153
-0.367227
0.217014
0.150211
0.00829299
-0.0102664
0.00197346
0.000442028
-0.0609275
0.0795207
-0.291727
0.30533
-0.0136039
0.439999
0.0543832
-0.0787485
0.0243652
-0.052783
-0.167744
0.135845
-0.317748
0.109372
-0.237569
0.128196
-0.120313
0.213387
-0.0930741
-0.0685153
-0.0199339
-0.112534
0.0315047
-0.0903084
-0.0869851
-0.00219661
-0.10234
-0.14055
0.0187502
0.00580795
0.0615773
0.174279
-0.293014
0.324298
0.161933
0.0267757
0.0551977
0.00601148
-0.0912499
0.0852384
-0.0556308
0.0830603
0.0316356
0.0100512
0.0596389
0.0926121
-0.218717
0.187838
0.427605
-0.588841
0.161224
0.0467974
0.0392027
0.0201921
-0.030908
-0.384676
0.121585
-0.191174
0.398632
-0.207461
-0.283385
-0.101294
-0.117563
-0.0821673
-0.0994093
0.015138
0.0820913
-0.0574401
-0.0973254
-0.172899
0.256553
-0.137656
-0.118896
-0.382782
0.209876
0.172903
0.0464363
0.00373023
0.0517222
-0.0580782
0.0937709
-0.0298307
-0.0639402
0.0307064
-0.0879828
0.0572764
-0.252064
0.196585
0.0554783
0.0653286
0.014016
-0.0793446
0.00383322
-0.0874081
0.0410873
0.0998402
-0.140928
0.0170071
-0.110083
0.0930757
-0.00728062
-0.00404572
0.00518614
-0.00114041
-0.0666391
0.0607706
0.353104
0.0871346
-0.440243
0.131832
-0.143682
0.0118495
0.00407105
-0.062453
0.0583819
0.0297879
-0.00437199
0.00594418
0.140567
-0.146511
-0.215528
-0.157457
0.110911
-0.00793868
-0.102972
0.269053
-0.192498
-0.0765562
0.0348385
0.108801
-0.14364
-0.0542558
-0.00522791
0.0594837
0.0309365
-0.0352171
0.00428064
-0.0826532
0.0932422
-0.010589
-0.117498
-0.0230518
0.0105551
0.00120417
-0.264271
0.0305425
0.233728
0.0303664
-0.208174
0.12533
0.136307
-0.261638
-0.239986
0.0867673
0.0278174
-0.0972434
0.0694259
0.171671
0.00207929
-0.173751
0.0092764
-0.000983407
0.0731807
-0.0419585
-0.0312221
-0.189363
0.111787
-0.201926
-0.165303
-0.00138268
-0.00650377
0.00788645
-0.0904394
0.00778618
0.039121
0.0563906
-0.0164759
-0.247795
0.0863628
0.0252307
-0.111594
0.117996
-0.307608
0.160611
-0.027355
-0.133256
0.163745
0.0758574
-0.166602
-0.173074
-0.00692514
0.00832239
-0.00139725
-0.000605495
0.000218369
-0.0654047
0.0275122
0.0378926
0.0245704
-0.260104
-0.232404
0.492497
0.00848399
0.0726741
-0.081158
0.00230592
-0.00528434
0.00297842
0.0582498
-0.113669
0.398015
-0.200954
-0.00115448
0.03279
-0.140943
-0.132074
0.273016
-0.278561
0.181277
0.0972835
0.429974
-0.166837
0.0782358
-0.0504184
0.153644
0.112861
-0.266505
-0.155142
0.036342
-0.0556153
0.0863217
0.00551963
-0.025331
0.0198114
0.251355
-0.141985
0.00241431
0.00720684
-0.0963729
0.132367
-0.0359938
0.0961702
-0.387899
-0.0306266
0.165287
-0.13466
-0.267998
0.139762
0.128235
0.18997
-0.139838
0.0844249
-0.0848915
0.120592
-0.0357009
0.0832964
-0.0774884
0.00310482
-0.00121297
-0.0754324
0.0956681
-0.365632
0.200091
0.16554
-0.00578422
-0.0660606
-0.0382758
0.0282169
0.0100589
0.0165318
0.0323439
-0.0488757
-0.00515958
-0.00205543
0.0203604
-0.0971044
0.076744
0.217466
-0.17716
-0.0403058
0.191595
-0.358203
-0.360701
0.150823
-0.121362
0.183095
0.0727867
0.0204556
0.0258084
0.101031
-0.12684
-0.144167
0.144744
-0.000577446
-0.11785
0.0275485
0.0364825
0.00368028
-0.0691558
0.0654755
0.02739
-0.172749
-0.095249
-0.136708
0.134511
0.00109771
0.00228865
-0.21609
0.0297926
0.186297
0.00263702
0.0282995
0.427592
-0.414492
0.229856
-0.00346933
-0.0143303
0.0177996
-0.12031
-0.0147224
0.135032
-0.164025
-0.0462186
0.210243
0.0776913
0.010171
-0.0947667
-0.00549667
-0.0528282
0.0848524
0.00654991
-0.00199039
-0.161652
0.151925
0.193236
-0.0313918
-0.161845
0.0121986
-0.0010419
0.00776838
-0.0199202
-0.0651866
0.0851068
-0.104961
0.1004
0.00456106
0.0772035
0.0162823
0.0700151
-0.0663349
-9.33266e-05
-0.00862213
0.00871546
-0.0773482
0.0896952
-0.212176
0.115798
-0.0324742
-0.0833237
-0.230195
0.0773744
0.0996339
-0.0268472
0.0762907
0.137381
-0.213673
0.00421198
0.00233793
0.109304
-0.0229411
-0.071086
0.075157
-0.141205
-0.0029621
-0.0010967
0.0923239
-0.0912273
0.149858
-0.0421996
-0.0437291
-0.176882
-0.202654
-0.0053285
0.00128278
0.255955
-0.130626
-0.0409658
0.0757661
-0.0348002
-0.446533
0.143003
0.303528
0.062507
-0.0790501
0.0165431
-0.110734
0.145572
-0.445114
0.281148
0.163964
-0.0735216
-0.187416
0.222985
0.206983
-0.0409808
-0.00665731
0.0476381
-0.00511056
-0.00199178
0.00710234
-0.0179481
-0.0232738
-0.102926
-0.0190858
0.122011
0.0428942
-0.163173
0.120279
0.0916984
0.0155449
-0.280916
0.515515
-0.2346
-0.417403
0.0304667
0.386937
0.0184275
-0.0128179
-0.00560955
-0.255837
0.182314
0.228075
0.116929
-0.345004
0.00690117
-0.0932336
-0.113968
0.467067
-0.0154645
-0.0894969
0.103917
-0.012219
-0.0783753
0.30645
-0.119486
0.273129
-0.00327188
-0.108246
0.111517
-0.16987
-0.0462207
0.126109
-0.126742
0.0352513
0.00259407
-0.00501969
-0.114453
0.119473
0.0787098
-0.09863
0.00904018
-0.139282
0.130241
-0.260526
-0.105107
-0.0417099
0.01637
0.0253399
-0.174069
-0.0221892
0.196258
0.140257
-0.190508
0.0502505
-0.0485883
0.0630957
-0.0145074
-0.0090615
-0.00159366
0.0106552
-0.0951108
0.0940141
0.0741991
-0.0302697
-0.0439294
0.123613
-0.117669
-0.0604965
0.00144356
-0.0105051
0.276439
-0.11454
0.000926799
-0.00780718
0.00688038
-0.0820918
0.041126
-0.330362
-0.0329453
0.363306
0.0369173
-0.00166595
-0.0145653
0.0163328
0.0945784
-0.251324
-0.228472
0.479783
-0.0897606
0.0957721
-0.00753204
-0.015209
0.0227411
0.0910344
0.137461
-0.286808
0.149346
-0.206748
0.0300866
-0.167998
-0.0518603
0.0354811
-0.221584
0.465279
-0.445602
-0.0196902
0.0587876
0.0373121
-0.0317925
-0.171344
0.17856
-0.00721634
0.0327431
0.0118371
-0.27787
0.162925
0.114945
-0.0918547
0.105037
-0.0131821
-0.0664432
-0.00866764
-0.298617
-0.402648
0.109105
-0.170439
0.0613339
-0.519836
0.245503
0.27433
0.178002
0.0338123
-0.187104
0.0504225
0.136682
-0.102648
-0.163258
-0.0766641
0.103204
-0.0265395
0.00694699
0.0394893
-0.171954
0.373017
-0.20107
-0.0132265
0.0215692
-0.00834271
-0.00230368
0.00136239
0.000941295
0.133018
-0.0443351
-0.0886828
0.0539463
0.0618515
-0.0143689
-0.0510358
0.0209908
-0.131707
0.126688
0.120047
0.0312986
-0.151346
-0.00829346
-0.00617108
-0.177101
0.00575712
-0.0114741
0.107457
-0.0959826
-0.268135
0.109275
0.158859
-0.0146731
-0.00273226
0.0174053
0.0681626
-0.127926
0.0597635
0.0809633
-0.0292411
0.0710171
0.0209587
-0.0919758
0.00848717
-4.7703e-05
-0.0679966
0.155509
-0.267324
0.111815
-0.101272
-0.0122032
0.113475
-0.0876552
0.075788
0.0118673
0.0374156
0.0828116
-0.0637927
-0.220392
0.0521802
0.168212
0.0517688
-0.0361977
-0.191734
-0.00617079
0.197905
0.157122
0.120258
-0.277382
-0.185571
0.40855
0.381251
0.105534
-0.486791
-0.00310162
0.00175312
0.0013485
0.0412261
0.0105427
0.23323
-0.249707
-0.0681073
0.074051
-0.00594379
0.141829
-0.108358
-0.0334714
0.0504597
-0.0339279
-0.00651697
0.00140641
-0.0128099
0.0671932
0.0563329
0.0199063
-0.0762392
0.0247572
-0.192353
0.167595
0.00674033
-0.00949603
0.114784
-0.0209727
-0.0879668
0.238397
-0.150431
-0.122853
0.0500868
0.00263394
0.011835
-0.0153043
-0.15028
-0.0937576
-0.159976
0.00580859
0.154168
0.235738
-0.0899424
-0.145796
-0.443087
0.0146909
0.428384
-0.0091553
0.0124805
-0.00332523
-0.0828486
0.103143
-0.0202944
0.00112105
-0.00101337
0.00331929
0.146988
-0.242951
0.0959622
0.250711
0.284243
-0.0195495
-0.103525
0.123075
-0.0702982
-0.359963
-0.325916
0.132873
-0.0279889
-0.159116
-0.148032
0.202893
-0.0548616
0.0348187
0.128121
-0.0599588
-0.0433252
0.103483
-0.0601579
-0.00632451
0.0105997
-0.0042752
0.0966822
0.00371806
-0.326996
-0.119538
-0.0125374
-0.107773
-0.000446825
-0.0853719
0.0858187
0.0171514
-0.011966
-0.00518546
-0.124099
0.112625
0.0760721
-0.0716629
-0.00440914
0.0285121
-0.12699
0.098478
-0.00236583
0.235596
-0.0712078
0.00310051
-0.0523625
0.0491628
0.00319974
0.0322296
0.177256
0.065404
-0.26442
0.199013
0.0653594
-0.0296273
-0.0357321
0.00377558
0.0621152
0.424309
-0.0430638
0.00505252
0.000133618
-0.00222696
0.00222696
-0.0845553
-0.00309991
0.20286
0.196208
0.00635662
-0.00624608
-0.000110538
-0.0103619
0.00822613
0.00213578
-0.0245384
0.141476
0.0301956
-0.447424
0.271594
-0.0402015
0.03545
0.00475142
0.317694
0.158496
-0.0989644
0.06476
0.0342044
0.00688827
-0.00596147
0.0640473
0.0195006
-0.0835478
0.00190904
0.00657813
0.0255743
0.0852367
-0.110811
-0.000790509
-0.000557861
0.00134837
-0.117863
0.0329715
-0.233283
0.198846
0.0344363
0.0487802
-0.208756
0.00763016
-0.00785885
0.000228687
0.0456938
-0.00405436
-0.0416394
-0.000539474
-0.0240344
-0.0111827
0.139998
-0.0446038
-0.0543606
0.152554
-0.43347
-0.119126
0.0390147
-0.0236658
0.105302
-0.0816361
-0.0909433
0.00167223
0.0891098
-0.419474
-0.119107
0.150303
-0.0311959
-0.0710859
0.0795699
0.00595085
-0.0191774
0.00766689
-3.67251e-05
0.00740821
-0.00972731
0.0023191
-0.0768973
0.117985
0.0602486
0.0886041
0.0948941
-0.00855409
0.124298
0.132255
0.161526
0.134671
-0.2962
0.230846
0.0886986
-0.319546
-0.00653901
-0.133242
0.139781
-0.0795963
-0.343249
0.0665489
0.2767
-0.11219
0.0885243
-0.168105
-0.158364
0.326466
-0.448157
-0.176037
-0.195381
0.401653
-0.206277
0.00737583
-0.00496127
-0.00241457
-0.0670493
0.209998
-0.412002
-0.0688005
0.480801
0.100957
-0.120507
0.00581447
0.115847
-0.121661
-0.308075
0.136116
-0.00886297
0.00193782
0.223982
0.0450701
0.159145
0.116602
-0.275749
0.00632708
-0.105386
0.0990589
-0.00133761
-0.0860055
0.087343
0.150199
-0.228468
0.148146
0.0803216
0.00901896
0.0670531
0.0678313
0.170498
-0.106656
-0.0638422
-0.0450664
-0.00729609
0.10645
0.0640479
-0.042899
0.0417446
0.0202753
0.0203549
-0.00885851
-0.0165226
0.0253811
-0.0116207
0.00246536
-0.217984
-0.00286376
0.0137555
-0.0900035
0.0123878
0.0776158
-0.204615
-0.173616
0.378224
-0.00114868
-0.00254972
0.0036984
-0.151279
-0.181708
0.332986
-0.197417
0.403078
-0.205666
-0.102167
-0.031475
0.133642
-0.465384
0.184483
-0.0850736
0.107894
-0.0228205
0.0127995
0.00435187
0.210022
-0.0115183
0.0026598
-0.177546
0.202302
-0.0292564
0.141204
0.00181631
0.0438775
-0.224367
0.397199
-0.172839
-0.00114311
-0.00153935
0.00268246
-0.132374
0.16097
-0.0285956
-0.113774
0.265829
-0.152056
0.328554
-0.189037
-0.139518
-0.00486475
0.23571
-0.0799857
0.0450844
0.0349013
0.0246767
-0.0529412
0.00671892
-0.00886463
0.00214571
0.109244
-0.0125621
0.00586787
-0.00330582
0.122438
-0.100962
-0.0214762
-0.143158
0.0743228
-0.0858523
0.0115295
0.00878029
-0.00137208
-0.013524
0.0698569
0.0301228
0.0449655
0.0267653
0.0670056
-0.0876116
0.114383
-0.0267715
-0.108547
0.161059
-0.052512
-0.0626826
-0.0173031
0.0615762
0.112586
-0.174163
0.0808934
-0.022312
0.34656
0.122511
-0.469077
0.00487643
0.00148019
-0.0452617
0.170693
0.0801248
-0.050002
0.114471
-0.117743
-0.051904
0.204231
-0.152327
0.0589075
-0.0439726
0.180706
0.146437
-0.327146
0.0170323
-0.0881183
-0.167671
0.0352966
0.203247
0.12515
-0.0993415
0.107353
-0.103383
-0.00397029
-0.0322038
0.0772882
-0.0125961
0.0445252
-0.0636525
0.0191273
-0.000594658
0.00560013
-0.00500547
-0.269129
-0.232801
0.00525121
-0.000198691
-0.0859993
-0.202465
0.288464
0.0804982
-0.0736087
-0.00688944
-0.0793107
0.104885
0.0122966
0.171683
0.249447
-0.327822
-0.0697434
-0.109174
0.163497
-0.236836
-0.266442
0.152666
0.144433
-0.031573
-0.11286
0.067465
0.0130332
0.0674358
0.0360473
0.041278
0.0240814
0.00454334
0.0922065
-0.0967499
0.432206
-0.236608
-0.1956
0.114266
-0.0224325
-0.0918333
0.0051831
0.0330401
0.306477
-0.142253
-0.164227
0.0809192
0.0243827
0.0856523
0.0773211
-0.162974
-0.0149087
0.0147934
0.000115294
0.0888087
-0.189245
0.100436
-1.08388e-06
-0.00136926
0.00137034
-0.118043
0.464596
0.0707684
-0.0439928
0.0956624
-0.507665
-0.0555804
-0.0541334
0.109714
-0.218299
0.130331
-0.150596
0.144057
0.0188707
-0.137787
0.118916
0.148644
0.279598
-0.120455
0.429078
-0.270873
-0.158211
0.012054
-0.0530348
0.00951295
-0.00951295
0.151655
-0.108982
-0.042674
-0.00503362
0.0038905
-0.216323
0.213956
-0.0286973
0.129729
0.182732
-0.0278346
-0.0892557
0.0404024
0.0488532
0.00163317
0.0015589
0.123928
0.0277279
0.23529
0.131571
-0.366865
0.0574289
0.0235345
0.13837
0.0501617
-0.266485
-0.0306122
-0.128152
0.158764
0.00720542
-0.00858809
-0.0272434
-0.000601622
0.0278451
-0.0735317
0.0711751
0.00235663
-0.0226255
-0.0561229
-0.0282357
0.0529123
-0.176535
0.0562219
0.295622
-0.212395
-0.0832286
0.0553364
0.0255569
0.204232
0.015852
0.0635176
-0.0793696
0.0335016
0.126268
-0.15977
-0.424012
0.294634
0.129377
0.00508798
0.0144159
-0.0195039
0.0148603
-0.0124265
-0.00243385
-0.222253
0.00846388
-0.00174496
0.131554
-0.122514
-0.0938955
0.105082
-0.0111864
-0.0210467
0.0819317
0.0515736
0.013153
0.0523511
0.0250483
-0.0773994
0.529895
-0.325978
-0.203926
-0.453199
0.0532726
0.399912
-0.00723847
-0.00408561
0.0113241
-0.126295
0.266268
-0.139676
-0.138121
0.153548
0.229099
-0.0936448
-0.135455
0.0395277
-0.0537246
0.0141969
-0.00292255
-0.0750641
0.0779867
0.0189128
-0.00134736
0.00194311
-0.000595754
0.0329227
-0.129296
0.0771784
-0.0526046
0.165078
-0.0794256
0.377709
-0.087899
-0.289814
0.171069
0.270801
-0.44188
-0.299343
-0.0915762
0.390914
0.00873083
-0.00882416
0.00102139
-0.0760425
0.0680954
0.00794716
0.345184
-0.0957373
0.361406
-0.12612
-0.112837
-0.129714
-0.148237
0.277949
0.0264198
-0.128587
-0.128844
-0.0262982
-0.0151815
0.0091817
0.0148852
-0.0240669
-0.0348483
-0.0773419
-0.0508737
0.0773008
-0.0264271
-0.0728711
-0.00317143
-0.139523
0.276983
-0.0809238
0.0182413
0.231415
0.0642067
-0.00317516
-0.029798
-0.0602056
-0.000624511
-0.0011341
0.00175861
-0.0120698
0.0525143
-0.0404445
0.0436603
-0.191693
0.120029
0.0244041
-0.0722516
0.0265352
0.0457164
0.00161539
-0.00116367
-0.000451724
-0.00166642
-0.0992865
0.0622482
0.0370383
0.0825151
-0.082962
-0.00617231
0.00761587
0.343432
-0.457406
0.0916842
0.00320996
-0.0373766
-0.00336294
0.0953529
0.00428097
0.448961
-0.257706
0.126013
0.00210859
5.15235e-05
0.00182688
-0.0018784
-0.0177932
-0.0239167
-0.0611915
0.0935663
-0.0323748
0.312048
-0.141018
-0.17103
0.0220824
0.136945
-0.159028
0.122313
-0.105678
-0.0166353
-0.0127162
0.0117942
0.147843
-0.199748
-0.053564
-0.0271428
0.0807067
-0.139637
0.3053
-0.165665
0.0233663
0.0533636
-0.0846807
0.0313171
0.161631
-0.303887
-0.345591
0.205867
0.139722
-0.0756554
0.151946
-0.165647
0.023514
-0.167085
0.398464
-0.231384
-0.123856
0.185432
-0.179925
0.0582521
-0.0137269
-0.0783346
0.0809437
-0.00260913
-0.0131394
0.0118386
0.328701
-0.0109789
-0.0696888
0.0806676
0.317023
-0.162894
-0.154129
-0.0143895
-0.000232687
-0.0814433
-0.102746
-0.00251579
0.105261
-0.304354
0.164715
-0.167961
-0.0841029
-0.0205809
-0.0560432
0.105979
-0.0280483
-0.0779309
-0.109488
0.140787
0.00816798
-0.000291747
-0.00787623
0.0835215
0.0118314
-0.171325
-0.0851252
0.232113
-0.0469534
0.000176641
-0.00281288
-0.0931216
0.00265918
0.0904624
-0.43664
0.247248
0.189387
-0.0818112
0.0311139
0.0506973
0.243067
0.194172
-0.437241
0.108212
-0.137469
0.341761
-0.264721
-0.0770426
0.0546398
-0.0802226
0.0255829
0.00168391
0.197164
-0.397187
0.200018
0.123418
0.153425
0.0639757
-0.0792265
0.0152508
0.221211
-0.0657022
-0.00842479
-0.0292454
0.0376702
0.00916875
0.000215301
-0.00938405
-0.0910194
0.107368
-0.0163483
-0.117792
-0.357065
0.0568195
0.300246
0.09408
0.247679
0.248611
-0.36666
0.00814609
0.0632794
0.0196916
0.0580742
0.209657
-0.17136
-0.0382977
0.00196669
-0.00311536
-0.396195
0.136081
-0.17751
-0.135799
0.0121987
-0.022626
0.135488
0.160219
-0.295709
-0.012191
0.00839227
-0.224014
0.402456
-0.178448
8.69059e-05
-0.107462
0.107375
0.139231
-0.142954
0.293999
-0.151046
-0.289502
0.254852
0.0346485
-0.182751
0.425815
0.000648401
0.00628827
-0.20405
0.0400243
-0.196049
-0.227963
-0.00871549
0.0493476
-0.0406321
0.126029
-1.66429e-05
0.471144
-0.253004
-0.218143
0.110798
-0.104471
0.0083293
0.128371
-0.10039
0.345891
0.0265382
0.210619
-0.110303
0.00755718
-0.00134071
-2.85473e-05
0.0738913
0.00933323
-0.0832246
0.148079
0.136228
-0.284308
0.0609156
0.0131354
-0.0215406
-0.078241
0.0997816
0.115163
-0.0218408
-0.0933225
-0.136394
-0.0292529
-0.0236624
0.112272
-0.0886098
0.0536796
-0.201097
0.10456
0.0965367
-0.122361
0.0213993
-0.203318
0.292015
0.141435
0.179819
-0.321256
-0.158663
0.336502
-0.177842
-0.0127556
-0.0984589
0.111214
0.0784525
0.0578168
0.118103
-0.0106462
0.121298
0.149372
-0.270671
0.129083
-0.159695
0.0271721
-0.0019493
-0.00715914
0.00910844
0.0408104
-0.0881991
0.271457
0.360351
-0.0904501
-0.269904
-0.115882
0.110516
-0.0456214
-0.0648951
-0.145213
0.0103143
-0.000205779
-0.0101085
0.317223
-0.179816
-0.137407
-0.124058
0.274142
0.0862068
0.0329496
0.0223894
-0.055339
-0.00182988
0.00142228
0.000407596
0.176153
-0.477402
0.0228916
0.149646
-0.172538
0.19045
0.212625
0.0245044
-0.103815
0.462417
-0.251646
-0.210775
-0.187034
-0.0776232
0.264657
-0.0631119
0.0690606
-0.00594865
-0.36539
0.461051
0.161111
-0.308328
0.147215
-0.409194
0.221546
0.187647
-0.105437
0.0520489
0.0533882
0.435871
-0.280382
-0.155494
0.285117
-0.137255
-0.147863
0.00886551
0.0329606
-0.0418262
0.0164325
-0.0677863
0.0513538
0.0398966
-0.0235363
-0.0757501
0.0017318
-0.000733665
-0.000998139
0.113131
-0.0820305
-0.0311004
0.180075
0.137146
-0.355718
0.0998796
0.000976362
0.00853659
0.0364522
-0.223487
0.0362049
0.0843875
-0.019561
0.104798
0.126884
-0.100464
-0.123093
-0.0302623
0.153355
-0.0846424
-0.126989
0.211631
-0.136515
0.0190168
0.177349
-0.20577
0.0284202
0.239723
-0.439259
0.199531
0.0818281
-0.0284645
0.0161039
-0.00606168
-0.0100422
0.127832
-0.0228257
-0.105006
0.155511
-0.45486
-0.0443359
0.0359111
0.0315896
0.00598689
0.00328951
0.00370411
0.00127115
-0.0141133
-0.0797822
0.262292
-0.460477
0.198183
-0.386413
0.13508
-0.00530627
0.418823
-0.413532
0.0232464
-0.455136
0.341852
0.113283
-0.242939
-0.0465639
0.0049958
0.00186912
-0.00686492
0.0325625
-0.105119
0.0923631
-0.196997
-0.158722
0.0959695
-0.0914262
-0.0692478
-0.00362328
-0.228006
-0.21711
0.0876186
0.0717988
-0.101523
-0.0492962
0.0586045
-0.0391492
-0.0194553
-0.100779
0.0843084
0.151429
-0.156925
-0.037497
0.105035
-0.13651
0.425054
-0.210764
-0.214294
-0.00204797
0.0908964
-0.0888484
-0.171863
-0.0468539
-0.032106
0.0596182
0.0212305
-0.0803983
-0.0209811
0.101379
-0.288062
0.147117
-0.0262947
0.126135
0.0020544
-0.00160337
-0.000451031
-0.0354134
0.0151599
0.0648973
0.0172255
-0.0821228
-0.0979423
0.00482073
0.000961926
0.00935234
-0.192847
0.119398
-0.322717
-0.0348254
-0.164733
0.199558
-0.00518058
-0.0514988
-0.305567
-0.125909
0.116574
0.0552952
0.0865341
0.107779
-0.000411684
-0.452118
0.175108
0.277006
-0.475639
0.204486
0.27115
-0.144109
0.234346
0.110659
-0.47605
-0.011244
-0.0670906
-0.0322196
0.00818521
-0.0838888
0.070373
0.0135158
-0.285034
0.199034
-0.00790264
0.00917566
-0.00127302
0.0960349
0.0262785
0.273874
-0.459542
0.185665
-0.0750052
-0.0662
0.448166
0.0178178
-0.465999
-0.017076
-0.0882735
0.105349
0.0470027
-0.202087
0.155084
0.159837
0.152211
-0.00205552
-5.25934e-05
0.00210811
-0.00862213
0.000183982
-0.000968251
0.000784269
0.158415
-0.219514
0.0610989
-0.00383753
-0.00590223
-0.118034
0.00229109
-0.0037441
0.001453
-0.000294649
-0.00176087
-0.458521
-0.115119
0.0914563
0.0683203
-0.0712429
-0.196922
-0.190767
-0.218955
0.409717
0.0042532
-0.0102216
0.0059684
0.133748
-0.218391
0.323598
-0.126433
-0.197167
0.0287949
0.0557826
-0.0845774
-0.0299156
0.345147
-0.0965415
0.129763
0.0286741
-0.158437
0.450023
-0.138619
0.164296
-0.0256765
0.0456753
0.0603039
-0.270871
-0.188675
-0.000573102
-0.000650424
0.00122353
-0.138235
-0.261488
-0.214154
-0.0851743
0.0184144
0.0667598
-0.0858225
0.0997492
-0.0139268
0.0540553
-0.109636
0.376481
0.0789121
-0.0179965
0.161714
0.0992375
0.00322528
-0.288731
0.147712
-0.119644
0.313017
-0.193376
0.0522653
-0.00199221
-0.0502731
0.189006
0.216635
-0.405648
0.000224518
0.209653
-0.0771871
0.105699
0.0257912
-0.0378611
0.0193427
-0.0268748
-0.136539
-0.131597
0.141415
0.0833301
-0.197908
-0.147685
0.174098
0.00217626
-0.176274
-0.158402
0.0498549
-0.0796355
-0.0348054
0.114441
-0.234912
-0.186549
0.421453
-0.00204032
0.163474
-0.310208
0.146732
0.296577
-0.171347
-0.125231
-0.0789109
-0.0265263
-0.0270041
0.0743255
-0.0473213
0.0402757
0.0875562
-0.348777
0.471281
0.0198273
-0.0155741
-0.0992517
0.108929
-0.00967692
0.158011
0.123427
-0.100188
-0.0232389
0.140907
-0.288989
0.156913
-0.00300183
0.0361707
-0.0331688
-0.113158
-0.25972
0.140074
-0.129711
0.266854
-0.137144
-0.00134137
0.00276365
-0.154385
-0.118955
0.273338
0.319379
-0.200405
-0.118976
0.00155343
-0.171673
0.0330538
0.000310447
0.00532319
-0.00563364
-0.138713
0.0637075
-0.342222
-0.100874
-0.218009
0.408455
-0.00989037
0.171318
-0.144532
-0.0267868
0.155443
0.16158
-0.0306244
-0.00957705
0.00516376
-0.00500008
-0.000163683
0.323663
0.112204
-0.0027702
-0.00302049
0.00579069
-0.0869647
0.00656641
0.209066
0.0555417
-0.264609
-0.253687
0.143547
0.11014
-0.04874
-0.0333518
-0.0386904
0.327926
-0.289236
0.0525783
0.0230624
-0.0756408
0.110227
0.019602
-0.368384
0.0815207
-0.0644884
-0.00604523
0.00328962
0.00275561
-0.0131783
0.263894
-0.10257
-0.161325
0.0105176