/*--------------------------------*- C++ -*----------------------------------*\
| =========                 |                                                 |
| \\      /  F ield         | OpenFOAM: The Open Source CFD Toolbox           |
|  \\    /   O peration     | Version:  v2012                                 |
|   \\  /    A nd           | Website:  www.openfoam.com                      |
|    \\/     M anipulation  |                                                 |
\*---------------------------------------------------------------------------*/
FoamFile
{
    version     2.0;
    format      ascii;
    class       volVectorField;
    location    "650";
    object      cellDisplacement;
}
// * * * * * * * * * * * * * * * * * * * * * * * * * * * * * * * * * * * * * //

dimensions      [0 1 0 0 0 0 0];


internalField   nonuniform List<vector> 
18758
(
(0 3.20162e-06 0)
(0 3.26251e-06 0)
(0 -2.96158e-06 0)
(0 3.06762e-06 0)
(0 3.32459e-06 0)
(0 3.32367e-06 0)
(0 3.34166e-06 0)
(0 6.89447e-06 0)
(0 2.97349e-06 0)
(0 1.28734e-06 0)
(0 -2.49802e-06 0)
(0 3.34226e-06 0)
(0 2.26882e-06 0)
(0 1.1505e-06 0)
(0 -2.55358e-05 0)
(0 3.32485e-06 0)
(0 -2.51394e-06 0)
(0 8.97744e-06 0)
(0 -1.68792e-05 0)
(0 1.84578e-06 0)
(0 3.33378e-06 0)
(0 2.36464e-06 0)
(0 3.34382e-06 0)
(0 3.16821e-06 0)
(0 3.27327e-06 0)
(0 7.52058e-06 0)
(0 3.32968e-06 0)
(0 3.32625e-06 0)
(0 3.29573e-06 0)
(0 3.32965e-06 0)
(0 -1.17256e-06 0)
(0 3.35589e-06 0)
(0 1.33549e-06 0)
(0 -1.02254e-05 0)
(0 1.75306e-06 0)
(0 3.53755e-06 0)
(0 1.7347e-06 0)
(0 -5.00515e-06 0)
(0 -5.31031e-06 0)
(0 -1.55275e-06 0)
(0 -5.6702e-06 0)
(0 1.75017e-06 0)
(0 -7.35026e-06 0)
(0 1.39326e-06 0)
(0 3.32236e-06 0)
(0 5.86157e-06 0)
(0 3.34344e-06 0)
(0 -1.17513e-06 0)
(0 1.20507e-06 0)
(0 -9.55399e-06 0)
(0 3.04957e-06 0)
(0 3.31928e-06 0)
(0 -4.29428e-06 0)
(0 -2.69827e-06 0)
(0 3.32783e-06 0)
(0 3.31882e-06 0)
(0 1.93441e-06 0)
(0 3.31546e-06 0)
(0 -3.32476e-06 0)
(0 1.48135e-06 0)
(0 3.13712e-06 0)
(0 3.33944e-06 0)
(0 2.42836e-06 0)
(0 -1.94069e-07 0)
(0 -3.34519e-06 0)
(0 -3.28971e-06 0)
(0 -1.80416e-06 0)
(0 1.68567e-06 0)
(0 -5.09308e-06 0)
(0 3.32268e-06 0)
(0 3.32646e-06 0)
(0 -9.33592e-07 0)
(0 -9.16545e-06 0)
(0 3.33367e-06 0)
(0 -2.07643e-06 0)
(0 -3.16746e-06 0)
(0 2.83521e-06 0)
(0 3.3245e-06 0)
(0 3.22841e-06 0)
(0 3.348e-06 0)
(0 3.33023e-06 0)
(0 3.32421e-06 0)
(0 1.57399e-06 0)
(0 3.32536e-06 0)
(0 2.83076e-06 0)
(0 -1.68125e-06 0)
(0 3.33241e-06 0)
(0 2.40519e-06 0)
(0 3.33394e-06 0)
(0 -3.14857e-06 0)
(0 3.32717e-06 0)
(0 -3.35452e-06 0)
(0 3.33453e-06 0)
(0 1.8326e-06 0)
(0 3.32962e-06 0)
(0 3.33434e-06 0)
(0 2.79349e-06 0)
(0 -2.40836e-06 0)
(0 5.35446e-08 0)
(0 3.33398e-06 0)
(0 1.93983e-06 0)
(0 3.32936e-06 0)
(0 1.23532e-06 0)
(0 2.35309e-06 0)
(0 3.35669e-06 0)
(0 3.3288e-06 0)
(0 3.20193e-06 0)
(0 3.32271e-06 0)
(0 -3.37537e-06 0)
(0 -9.35396e-07 0)
(0 3.33383e-06 0)
(0 3.3337e-06 0)
(0 8.80065e-06 0)
(0 -1.95539e-06 0)
(0 3.28935e-06 0)
(0 3.33366e-06 0)
(0 3.33363e-06 0)
(0 -2.6347e-05 0)
(0 3.34519e-06 0)
(0 3.33023e-06 0)
(0 7.98069e-07 0)
(0 -3.81313e-06 0)
(0 3.31972e-06 0)
(0 3.32993e-06 0)
(0 3.30148e-06 0)
(0 3.32109e-06 0)
(0 3.25715e-06 0)
(0 3.15995e-06 0)
(0 3.33512e-06 0)
(0 1.44848e-06 0)
(0 -2.31858e-06 0)
(0 3.3284e-06 0)
(0 3.3337e-06 0)
(0 3.03145e-06 0)
(0 3.3335e-06 0)
(0 6.95409e-07 0)
(0 2.80346e-06 0)
(0 -1.32859e-06 0)
(0 3.20944e-07 0)
(0 3.22041e-06 0)
(0 3.22955e-06 0)
(0 3.2987e-06 0)
(0 -2.13779e-06 0)
(0 3.32343e-06 0)
(0 -5.96741e-06 0)
(0 -1.90944e-05 0)
(0 3.3337e-06 0)
(0 3.33304e-06 0)
(0 -1.43281e-06 0)
(0 3.28607e-06 0)
(0 3.32305e-06 0)
(0 3.12352e-06 0)
(0 -1.35429e-06 0)
(0 2.61375e-06 0)
(0 3.33255e-06 0)
(0 -8.3712e-07 0)
(0 3.34596e-06 0)
(0 -1.02382e-06 0)
(0 -2.42131e-06 0)
(0 1.10476e-06 0)
(0 6.2286e-06 0)
(0 1.64991e-06 0)
(0 3.33334e-06 0)
(0 -2.49799e-06 0)
(0 3.12007e-06 0)
(0 3.29998e-06 0)
(0 -1.49473e-05 0)
(0 3.32642e-06 0)
(0 3.22731e-06 0)
(0 3.32204e-06 0)
(0 3.3331e-06 0)
(0 8.93949e-06 0)
(0 3.33333e-06 0)
(0 3.32587e-06 0)
(0 1.66558e-06 0)
(0 3.15124e-06 0)
(0 3.30033e-06 0)
(0 -6.87316e-08 0)
(0 3.21104e-06 0)
(0 -3.11006e-06 0)
(0 1.08344e-05 0)
(0 3.3337e-06 0)
(0 3.10696e-06 0)
(0 -1.33768e-05 0)
(0 -1.01865e-05 0)
(0 3.07119e-06 0)
(0 -2.34411e-06 0)
(0 3.33364e-06 0)
(0 -7.65095e-06 0)
(0 -2.72482e-06 0)
(0 3.04175e-06 0)
(0 3.14684e-06 0)
(0 -1.59246e-06 0)
(0 -1.66888e-06 0)
(0 2.47752e-06 0)
(0 2.47877e-06 0)
(0 1.90805e-06 0)
(0 3.23651e-06 0)
(0 6.89163e-06 0)
(0 -7.58414e-06 0)
(0 3.19845e-06 0)
(0 -1.03907e-06 0)
(0 2.09073e-06 0)
(0 2.08482e-06 0)
(0 2.94901e-06 0)
(0 2.41313e-06 0)
(0 1.50965e-06 0)
(0 2.16375e-06 0)
(0 3.33525e-06 0)
(0 1.2582e-06 0)
(0 9.26159e-06 0)
(0 2.41791e-06 0)
(0 -2.25373e-06 0)
(0 1.92336e-06 0)
(0 3.20953e-06 0)
(0 3.33204e-06 0)
(0 3.22379e-06 0)
(0 3.32368e-06 0)
(0 -1.00695e-06 0)
(0 3.32275e-06 0)
(0 9.16873e-06 0)
(0 -3.16128e-06 0)
(0 2.61539e-06 0)
(0 3.33366e-06 0)
(0 3.19992e-06 0)
(0 1.38532e-06 0)
(0 2.00698e-06 0)
(0 2.93438e-06 0)
(0 -1.89985e-05 0)
(0 2.17562e-06 0)
(0 -3.62937e-06 0)
(0 2.46298e-06 0)
(0 3.34131e-06 0)
(0 2.81975e-06 0)
(0 1.95546e-06 0)
(0 -2.30364e-06 0)
(0 -1.80107e-05 0)
(0 6.75124e-06 0)
(0 3.31785e-06 0)
(0 1.60905e-06 0)
(0 6.88191e-06 0)
(0 3.29604e-06 0)
(0 3.20728e-06 0)
(0 -5.95528e-06 0)
(0 3.27926e-06 0)
(0 3.33366e-06 0)
(0 2.78601e-06 0)
(0 3.81287e-06 0)
(0 3.32991e-06 0)
(0 2.29653e-06 0)
(0 3.16423e-06 0)
(0 3.32664e-06 0)
(0 -1.67858e-06 0)
(0 2.3432e-06 0)
(0 -2.44221e-05 0)
(0 1.13998e-06 0)
(0 3.07841e-06 0)
(0 3.32479e-06 0)
(0 1.86863e-06 0)
(0 3.21392e-06 0)
(0 -3.2164e-05 0)
(0 8.93401e-07 0)
(0 4.46253e-06 0)
(0 2.01039e-06 0)
(0 1.17825e-06 0)
(0 2.59614e-06 0)
(0 3.33383e-06 0)
(0 -4.78603e-07 0)
(0 -3.73043e-06 0)
(0 3.30608e-06 0)
(0 -3.83893e-06 0)
(0 -1.0392e-05 0)
(0 2.10109e-06 0)
(0 3.30957e-06 0)
(0 3.33366e-06 0)
(0 -2.26403e-06 0)
(0 2.9835e-06 0)
(0 3.33491e-06 0)
(0 3.3222e-06 0)
(0 -1.19748e-06 0)
(0 -1.12529e-05 0)
(0 5.37602e-07 0)
(0 1.57721e-06 0)
(0 -2.08049e-06 0)
(0 3.33463e-06 0)
(0 3.28819e-06 0)
(0 2.82967e-06 0)
(0 3.3337e-06 0)
(0 3.34163e-06 0)
(0 -1.29379e-05 0)
(0 -3.70614e-06 0)
(0 3.00277e-06 0)
(0 3.33101e-06 0)
(0 1.58445e-06 0)
(0 3.21331e-06 0)
(0 2.59701e-06 0)
(0 7.23159e-07 0)
(0 3.33069e-06 0)
(0 -1.65918e-05 0)
(0 2.70603e-06 0)
(0 3.32445e-06 0)
(0 6.08442e-06 0)
(0 3.32022e-06 0)
(0 2.70414e-06 0)
(0 -5.22398e-06 0)
(0 1.61517e-06 0)
(0 2.54756e-06 0)
(0 -1.88119e-05 0)
(0 3.2618e-06 0)
(0 3.35281e-06 0)
(0 2.76196e-06 0)
(0 2.8359e-06 0)
(0 3.35444e-06 0)
(0 3.3304e-06 0)
(0 3.18458e-06 0)
(0 1.55177e-06 0)
(0 7.00717e-07 0)
(0 3.01072e-06 0)
(0 -5.78267e-06 0)
(0 -1.29449e-05 0)
(0 -9.87407e-06 0)
(0 3.91445e-07 0)
(0 3.23439e-06 0)
(0 2.59887e-06 0)
(0 5.73016e-07 0)
(0 1.54857e-06 0)
(0 1.89837e-06 0)
(0 3.02914e-06 0)
(0 -3.14841e-05 0)
(0 2.05544e-06 0)
(0 3.15517e-06 0)
(0 2.90398e-06 0)
(0 3.01176e-06 0)
(0 3.03705e-06 0)
(0 1.68327e-06 0)
(0 -1.69266e-06 0)
(0 2.16413e-06 0)
(0 2.68631e-06 0)
(0 3.31107e-06 0)
(0 -1.71256e-05 0)
(0 9.75858e-06 0)
(0 -1.62161e-05 0)
(0 6.19067e-07 0)
(0 2.89736e-06 0)
(0 3.26396e-06 0)
(0 -3.83114e-06 0)
(0 -1.38931e-06 0)
(0 -1.14371e-05 0)
(0 3.32688e-06 0)
(0 3.29229e-06 0)
(0 2.92863e-06 0)
(0 3.22444e-06 0)
(0 -1.27992e-05 0)
(0 3.14613e-06 0)
(0 3.19483e-06 0)
(0 1.28736e-06 0)
(0 2.47136e-06 0)
(0 3.34326e-06 0)
(0 3.33355e-06 0)
(0 3.1034e-06 0)
(0 7.31517e-06 0)
(0 2.08555e-06 0)
(0 3.282e-06 0)
(0 3.31222e-06 0)
(0 4.74189e-07 0)
(0 -1.20282e-05 0)
(0 1.6269e-06 0)
(0 -1.17626e-05 0)
(0 -2.55864e-06 0)
(0 3.27674e-06 0)
(0 3.02624e-06 0)
(0 8.70549e-07 0)
(0 1.834e-06 0)
(0 3.33382e-06 0)
(0 -3.24268e-06 0)
(0 -9.06074e-07 0)
(0 -1.41908e-06 0)
(0 -5.00859e-06 0)
(0 1.30573e-06 0)
(0 -2.31718e-06 0)
(0 3.35382e-06 0)
(0 3.30266e-06 0)
(0 -2.44588e-05 0)
(0 3.17232e-06 0)
(0 3.33416e-06 0)
(0 8.10952e-07 0)
(0 2.95702e-06 0)
(0 -3.23469e-06 0)
(0 -2.53263e-06 0)
(0 -1.07592e-05 0)
(0 1.63643e-06 0)
(0 -3.74727e-06 0)
(0 4.59558e-07 0)
(0 3.33373e-06 0)
(0 3.33782e-06 0)
(0 3.33073e-06 0)
(0 3.33315e-06 0)
(0 4.03501e-06 0)
(0 2.81351e-06 0)
(0 3.33971e-06 0)
(0 1.25696e-06 0)
(0 8.35302e-06 0)
(0 2.96818e-06 0)
(0 -6.95032e-06 0)
(0 -2.09146e-05 0)
(0 1.0367e-05 0)
(0 1.41664e-06 0)
(0 -3.32313e-06 0)
(0 1.4346e-06 0)
(0 3.21011e-06 0)
(0 3.31696e-06 0)
(0 -1.00707e-05 0)
(0 3.32582e-06 0)
(0 4.62682e-08 0)
(0 2.06287e-06 0)
(0 -6.71155e-06 0)
(0 -3.33683e-06 0)
(0 9.57368e-06 0)
(0 6.17463e-07 0)
(0 7.69615e-07 0)
(0 3.00404e-06 0)
(0 3.33372e-06 0)
(0 9.10182e-07 0)
(0 -2.76692e-07 0)
(0 3.30326e-06 0)
(0 3.2658e-06 0)
(0 3.05572e-06 0)
(0 3.33322e-06 0)
(0 1.047e-06 0)
(0 -1.2125e-06 0)
(0 1.12603e-06 0)
(0 7.24858e-06 0)
(0 -2.11876e-06 0)
(0 7.27994e-07 0)
(0 -1.34239e-06 0)
(0 -6.22123e-06 0)
(0 2.64172e-06 0)
(0 -1.3852e-06 0)
(0 3.05501e-06 0)
(0 1.36454e-06 0)
(0 -3.3631e-06 0)
(0 1.43715e-06 0)
(0 3.33385e-06 0)
(0 -4.76538e-07 0)
(0 2.96591e-06 0)
(0 1.01629e-06 0)
(0 2.94058e-07 0)
(0 3.3291e-06 0)
(0 1.93966e-06 0)
(0 -4.5085e-06 0)
(0 3.06242e-06 0)
(0 1.83514e-06 0)
(0 2.97524e-06 0)
(0 3.33567e-06 0)
(0 -3.2441e-06 0)
(0 -7.89701e-07 0)
(0 3.32589e-06 0)
(0 3.34318e-06 0)
(0 2.78956e-06 0)
(0 2.83804e-06 0)
(0 1.18262e-06 0)
(0 3.01512e-06 0)
(0 3.3337e-06 0)
(0 1.28939e-06 0)
(0 -9.58088e-07 0)
(0 2.92318e-06 0)
(0 -1.99493e-06 0)
(0 8.19281e-07 0)
(0 -1.55697e-06 0)
(0 3.33578e-06 0)
(0 -2.82475e-06 0)
(0 3.27394e-06 0)
(0 -6.24125e-06 0)
(0 -7.18179e-07 0)
(0 6.33953e-06 0)
(0 3.16616e-06 0)
(0 -8.50579e-06 0)
(0 3.33362e-06 0)
(0 -1.64832e-06 0)
(0 3.29247e-06 0)
(0 5.16118e-06 0)
(0 2.96166e-06 0)
(0 -2.37975e-06 0)
(0 7.94712e-06 0)
(0 7.82506e-08 0)
(0 1.00129e-05 0)
(0 3.22711e-06 0)
(0 3.33496e-06 0)
(0 3.28752e-06 0)
(0 -2.2148e-06 0)
(0 -1.12743e-05 0)
(0 2.54212e-06 0)
(0 3.39455e-06 0)
(0 6.58444e-07 0)
(0 3.31847e-06 0)
(0 -1.90895e-07 0)
(0 -3.65953e-09 0)
(0 2.64796e-06 0)
(0 7.32763e-06 0)
(0 2.82533e-06 0)
(0 2.49402e-06 0)
(0 -3.86464e-07 0)
(0 -3.25534e-06 0)
(0 1.95516e-06 0)
(0 -6.08811e-07 0)
(0 -6.53548e-07 0)
(0 3.27724e-06 0)
(0 -1.30019e-05 0)
(0 2.75944e-06 0)
(0 6.54897e-07 0)
(0 4.59667e-08 0)
(0 3.33307e-06 0)
(0 -9.5573e-07 0)
(0 -2.88057e-06 0)
(0 3.33154e-06 0)
(0 3.33369e-06 0)
(0 -9.49687e-07 0)
(0 3.07084e-06 0)
(0 5.65151e-07 0)
(0 -3.06129e-06 0)
(0 3.33369e-06 0)
(0 -1.54816e-05 0)
(0 3.33367e-06 0)
(0 3.28668e-06 0)
(0 6.82129e-06 0)
(0 3.28267e-06 0)
(0 3.15807e-06 0)
(0 1.63863e-06 0)
(0 5.26975e-06 0)
(0 2.86352e-06 0)
(0 3.31862e-06 0)
(0 -5.34009e-06 0)
(0 -4.56315e-06 0)
(0 -2.4606e-05 0)
(0 -1.84004e-05 0)
(0 -1.85594e-05 0)
(0 5.05104e-06 0)
(0 4.51104e-07 0)
(0 3.31383e-06 0)
(0 -2.73966e-06 0)
(0 3.29998e-06 0)
(0 -4.06466e-06 0)
(0 2.98523e-06 0)
(0 3.27236e-06 0)
(0 4.55584e-06 0)
(0 -7.35253e-06 0)
(0 -2.28251e-06 0)
(0 6.75767e-06 0)
(0 -1.11959e-06 0)
(0 4.69603e-07 0)
(0 -2.95566e-06 0)
(0 2.32451e-06 0)
(0 3.32624e-06 0)
(0 -8.75813e-06 0)
(0 3.31934e-06 0)
(0 3.33031e-06 0)
(0 2.74177e-06 0)
(0 2.90903e-06 0)
(0 3.33072e-06 0)
(0 1.7215e-06 0)
(0 -1.3466e-05 0)
(0 -2.04246e-06 0)
(0 3.32501e-06 0)
(0 -2.76946e-06 0)
(0 -3.58036e-06 0)
(0 -2.13584e-06 0)
(0 3.30192e-06 0)
(0 1.40885e-07 0)
(0 3.28683e-06 0)
(0 2.34958e-06 0)
(0 3.33551e-06 0)
(0 -2.52472e-06 0)
(0 -2.61779e-06 0)
(0 1.91226e-06 0)
(0 3.27253e-06 0)
(0 -1.13855e-06 0)
(0 3.29483e-06 0)
(0 -1.46611e-06 0)
(0 3.22815e-06 0)
(0 -1.06032e-06 0)
(0 -5.90644e-06 0)
(0 9.58645e-06 0)
(0 6.9215e-06 0)
(0 3.32988e-06 0)
(0 3.23366e-06 0)
(0 -3.15889e-06 0)
(0 2.45496e-06 0)
(0 2.22635e-06 0)
(0 3.09005e-06 0)
(0 3.33471e-06 0)
(0 2.97277e-06 0)
(0 3.2404e-06 0)
(0 -2.90715e-05 0)
(0 3.32367e-06 0)
(0 -1.9544e-06 0)
(0 -1.83482e-06 0)
(0 -1.52547e-06 0)
(0 3.32183e-06 0)
(0 3.3322e-06 0)
(0 -9.74711e-06 0)
(0 -1.28428e-07 0)
(0 -1.88056e-06 0)
(0 -1.35431e-06 0)
(0 3.33328e-06 0)
(0 2.24921e-06 0)
(0 3.32723e-06 0)
(0 3.34029e-06 0)
(0 -2.62184e-06 0)
(0 6.8992e-06 0)
(0 1.04743e-06 0)
(0 1.75099e-06 0)
(0 6.55547e-06 0)
(0 4.04311e-07 0)
(0 -2.32559e-05 0)
(0 2.39158e-06 0)
(0 -3.13452e-08 0)
(0 3.21528e-06 0)
(0 3.322e-06 0)
(0 2.80628e-06 0)
(0 5.36344e-06 0)
(0 1.86775e-06 0)
(0 3.0141e-06 0)
(0 3.31845e-06 0)
(0 -3.9032e-06 0)
(0 3.32494e-06 0)
(0 1.7334e-06 0)
(0 -3.07674e-06 0)
(0 2.42141e-06 0)
(0 3.19221e-06 0)
(0 -1.5303e-06 0)
(0 -1.51057e-05 0)
(0 3.28435e-06 0)
(0 3.32794e-06 0)
(0 3.23168e-06 0)
(0 6.83654e-06 0)
(0 3.33358e-06 0)
(0 3.3337e-06 0)
(0 3.27798e-06 0)
(0 -1.02363e-05 0)
(0 3.33403e-06 0)
(0 3.35404e-06 0)
(0 3.33253e-06 0)
(0 -2.51016e-06 0)
(0 3.74196e-06 0)
(0 3.29117e-06 0)
(0 4.56693e-07 0)
(0 2.28313e-06 0)
(0 3.33361e-06 0)
(0 3.01662e-06 0)
(0 3.33525e-06 0)
(0 1.07432e-06 0)
(0 3.33347e-06 0)
(0 9.42859e-07 0)
(0 -2.72905e-06 0)
(0 -1.82159e-07 0)
(0 3.33355e-06 0)
(0 2.87029e-06 0)
(0 3.35378e-06 0)
(0 3.05722e-06 0)
(0 -1.631e-05 0)
(0 2.28791e-06 0)
(0 2.5756e-06 0)
(0 2.09149e-06 0)
(0 7.22367e-07 0)
(0 3.03475e-06 0)
(0 7.28807e-06 0)
(0 1.26269e-06 0)
(0 2.75915e-06 0)
(0 3.32333e-06 0)
(0 3.33349e-06 0)
(0 3.34659e-06 0)
(0 1.38581e-06 0)
(0 1.92338e-06 0)
(0 2.81454e-06 0)
(0 -1.24939e-06 0)
(0 -1.06677e-05 0)
(0 -1.06981e-06 0)
(0 -1.66565e-05 0)
(0 -9.58455e-07 0)
(0 -1.05564e-06 0)
(0 5.52536e-07 0)
(0 7.4158e-06 0)
(0 1.3936e-06 0)
(0 1.02777e-05 0)
(0 3.32501e-06 0)
(0 -8.97426e-07 0)
(0 1.7482e-06 0)
(0 9.04607e-07 0)
(0 1.2509e-06 0)
(0 -8.81484e-06 0)
(0 3.33379e-06 0)
(0 -1.22547e-05 0)
(0 -2.97833e-05 0)
(0 2.08824e-06 0)
(0 2.76426e-06 0)
(0 -1.1052e-05 0)
(0 -1.15209e-06 0)
(0 3.32328e-06 0)
(0 2.78215e-06 0)
(0 1.86062e-06 0)
(0 3.18079e-06 0)
(0 1.84316e-06 0)
(0 2.91607e-06 0)
(0 1.7382e-06 0)
(0 2.31465e-06 0)
(0 3.33244e-06 0)
(0 3.33357e-06 0)
(0 -1.52281e-05 0)
(0 3.32497e-06 0)
(0 3.1627e-06 0)
(0 7.21214e-06 0)
(0 3.33333e-06 0)
(0 1.78159e-06 0)
(0 1.07338e-05 0)
(0 1.65297e-07 0)
(0 8.86111e-06 0)
(0 3.13465e-06 0)
(0 3.32059e-06 0)
(0 -8.22629e-06 0)
(0 3.33303e-06 0)
(0 -2.90859e-05 0)
(0 6.5442e-07 0)
(0 2.79012e-06 0)
(0 -9.44008e-06 0)
(0 3.32857e-06 0)
(0 -1.95652e-07 0)
(0 -9.52666e-06 0)
(0 -2.00249e-06 0)
(0 -1.37665e-06 0)
(0 3.01804e-06 0)
(0 3.19926e-06 0)
(0 3.33439e-06 0)
(0 2.82845e-06 0)
(0 3.32577e-06 0)
(0 1.18651e-06 0)
(0 -6.65823e-07 0)
(0 2.80707e-06 0)
(0 3.34747e-06 0)
(0 3.24701e-06 0)
(0 3.21187e-06 0)
(0 2.91062e-06 0)
(0 -2.31224e-06 0)
(0 -2.50566e-07 0)
(0 3.03146e-06 0)
(0 -1.29589e-06 0)
(0 3.32503e-06 0)
(0 5.17431e-06 0)
(0 3.33406e-06 0)
(0 -1.02141e-05 0)
(0 3.2076e-06 0)
(0 2.00036e-06 0)
(0 -4.4361e-06 0)
(0 3.28905e-06 0)
(0 -1.03999e-07 0)
(0 7.21887e-06 0)
(0 3.26914e-06 0)
(0 -1.59754e-07 0)
(0 1.00934e-05 0)
(0 -1.14282e-06 0)
(0 2.6027e-06 0)
(0 3.03785e-06 0)
(0 3.27731e-06 0)
(0 3.1261e-06 0)
(0 3.33354e-06 0)
(0 6.8052e-06 0)
(0 3.74164e-06 0)
(0 3.33354e-06 0)
(0 -1.76621e-06 0)
(0 3.29968e-06 0)
(0 1.21533e-06 0)
(0 -2.51764e-06 0)
(0 -3.24052e-07 0)
(0 1.597e-06 0)
(0 -3.77027e-06 0)
(0 -9.40518e-06 0)
(0 -4.98643e-06 0)
(0 3.29584e-06 0)
(0 3.21296e-06 0)
(0 3.29104e-06 0)
(0 2.82018e-06 0)
(0 1.13865e-05 0)
(0 -7.53776e-07 0)
(0 3.29788e-06 0)
(0 7.95206e-06 0)
(0 7.15037e-07 0)
(0 -4.41269e-06 0)
(0 3.32134e-06 0)
(0 3.64427e-07 0)
(0 3.33174e-06 0)
(0 4.77472e-06 0)
(0 3.17292e-06 0)
(0 1.35808e-06 0)
(0 1.30587e-06 0)
(0 -1.87563e-06 0)
(0 -1.71075e-05 0)
(0 -1.3638e-05 0)
(0 -9.51732e-06 0)
(0 -3.02463e-05 0)
(0 -5.64922e-06 0)
(0 3.23932e-06 0)
(0 3.3337e-06 0)
(0 -4.49359e-06 0)
(0 3.32701e-06 0)
(0 -2.95958e-06 0)
(0 -1.61102e-06 0)
(0 -1.05237e-06 0)
(0 2.96329e-06 0)
(0 3.34688e-06 0)
(0 -4.6049e-06 0)
(0 -1.32731e-05 0)
(0 3.28929e-06 0)
(0 7.85409e-06 0)
(0 -2.94673e-06 0)
(0 -1.34749e-06 0)
(0 3.3343e-06 0)
(0 3.31434e-06 0)
(0 3.22206e-06 0)
(0 3.01571e-06 0)
(0 3.21098e-06 0)
(0 2.93743e-07 0)
(0 -1.02271e-06 0)
(0 3.32414e-06 0)
(0 1.06639e-05 0)
(0 3.25701e-06 0)
(0 -2.51608e-06 0)
(0 3.669e-06 0)
(0 3.31092e-06 0)
(0 3.31819e-06 0)
(0 6.94235e-07 0)
(0 3.33425e-06 0)
(0 7.63083e-07 0)
(0 -1.21331e-06 0)
(0 3.22852e-06 0)
(0 3.06135e-06 0)
(0 3.31953e-06 0)
(0 3.31029e-06 0)
(0 3.7684e-06 0)
(0 -2.89901e-06 0)
(0 3.32125e-06 0)
(0 -2.3845e-06 0)
(0 -4.65044e-06 0)
(0 -2.31359e-06 0)
(0 -2.63608e-06 0)
(0 3.21396e-06 0)
(0 2.35676e-06 0)
(0 1.1784e-06 0)
(0 3.3295e-06 0)
(0 2.48392e-07 0)
(0 1.6309e-06 0)
(0 -4.68435e-06 0)
(0 7.45768e-06 0)
(0 -2.93442e-06 0)
(0 8.95642e-06 0)
(0 3.33369e-06 0)
(0 3.33342e-06 0)
(0 2.28986e-06 0)
(0 -6.74845e-07 0)
(0 -1.34002e-05 0)
(0 -1.31768e-05 0)
(0 -1.80497e-07 0)
(0 3.44716e-07 0)
(0 1.34486e-06 0)
(0 3.32341e-06 0)
(0 3.31311e-06 0)
(0 5.66198e-07 0)
(0 2.82452e-06 0)
(0 2.36237e-06 0)
(0 -4.74098e-06 0)
(0 3.01555e-06 0)
(0 -1.15548e-06 0)
(0 3.3476e-06 0)
(0 3.15817e-06 0)
(0 3.34562e-06 0)
(0 3.28102e-06 0)
(0 -2.25164e-05 0)
(0 -5.13506e-06 0)
(0 3.32916e-06 0)
(0 3.3296e-06 0)
(0 3.34512e-06 0)
(0 3.00622e-06 0)
(0 3.04325e-06 0)
(0 3.33359e-06 0)
(0 7.15907e-06 0)
(0 2.77781e-06 0)
(0 3.33038e-06 0)
(0 7.69801e-07 0)
(0 7.15492e-06 0)
(0 -4.90395e-06 0)
(0 -1.83977e-07 0)
(0 3.3347e-06 0)
(0 3.33295e-06 0)
(0 3.19881e-06 0)
(0 -4.14948e-06 0)
(0 -1.70642e-05 0)
(0 2.25045e-06 0)
(0 3.33355e-06 0)
(0 -4.49019e-06 0)
(0 3.29649e-06 0)
(0 3.50973e-06 0)
(0 -6.37537e-07 0)
(0 3.06835e-06 0)
(0 8.30795e-06 0)
(0 2.88108e-06 0)
(0 -1.43142e-06 0)
(0 1.22959e-06 0)
(0 7.62247e-06 0)
(0 -1.39564e-06 0)
(0 -1.06841e-05 0)
(0 3.10328e-06 0)
(0 1.93572e-06 0)
(0 3.3319e-06 0)
(0 -1.34947e-05 0)
(0 3.07207e-06 0)
(0 -3.36524e-06 0)
(0 2.83393e-06 0)
(0 2.95558e-06 0)
(0 2.42259e-06 0)
(0 3.18051e-06 0)
(0 -1.24363e-05 0)
(0 3.30371e-06 0)
(0 2.14707e-06 0)
(0 -1.85521e-06 0)
(0 3.33367e-06 0)
(0 6.15593e-07 0)
(0 -3.39013e-06 0)
(0 -2.61879e-06 0)
(0 2.93447e-06 0)
(0 3.33439e-06 0)
(0 2.87842e-06 0)
(0 -3.86439e-06 0)
(0 2.90563e-06 0)
(0 9.64012e-06 0)
(0 5.21435e-07 0)
(0 -5.32016e-06 0)
(0 3.27215e-06 0)
(0 3.33254e-06 0)
(0 1.17231e-05 0)
(0 -1.99089e-05 0)
(0 3.25743e-06 0)
(0 -2.71311e-06 0)
(0 3.27091e-06 0)
(0 3.33367e-06 0)
(0 -9.94913e-07 0)
(0 -1.07999e-06 0)
(0 3.26141e-06 0)
(0 -5.72513e-06 0)
(0 4.10902e-06 0)
(0 3.3337e-06 0)
(0 3.31629e-06 0)
(0 3.03981e-06 0)
(0 -1.68956e-06 0)
(0 3.333e-06 0)
(0 2.91579e-06 0)
(0 -2.636e-06 0)
(0 3.30503e-06 0)
(0 -5.65652e-06 0)
(0 3.32118e-06 0)
(0 -9.93637e-06 0)
(0 2.1289e-06 0)
(0 4.55981e-07 0)
(0 -2.35627e-06 0)
(0 2.81126e-07 0)
(0 9.18732e-06 0)
(0 3.33328e-06 0)
(0 -4.21974e-06 0)
(0 3.76726e-06 0)
(0 3.28784e-06 0)
(0 -1.52249e-07 0)
(0 8.61833e-06 0)
(0 2.17153e-06 0)
(0 2.03019e-06 0)
(0 6.89475e-06 0)
(0 3.30338e-06 0)
(0 7.58565e-06 0)
(0 2.44919e-06 0)
(0 3.33187e-06 0)
(0 -1.42875e-06 0)
(0 -2.91853e-06 0)
(0 2.39221e-06 0)
(0 8.78106e-08 0)
(0 2.64408e-06 0)
(0 1.15566e-06 0)
(0 -8.03439e-08 0)
(0 3.28543e-06 0)
(0 -9.86503e-07 0)
(0 1.3094e-06 0)
(0 -9.30194e-07 0)
(0 -2.56334e-05 0)
(0 5.10438e-06 0)
(0 -5.76586e-06 0)
(0 1.90165e-06 0)
(0 -3.54915e-06 0)
(0 -1.54323e-05 0)
(0 -1.53537e-06 0)
(0 -2.00341e-06 0)
(0 3.34321e-06 0)
(0 2.78488e-06 0)
(0 -2.59903e-06 0)
(0 4.43791e-06 0)
(0 -1.16857e-06 0)
(0 3.10142e-06 0)
(0 6.82719e-06 0)
(0 3.33364e-06 0)
(0 3.2617e-07 0)
(0 -2.14501e-06 0)
(0 3.96832e-06 0)
(0 3.32058e-06 0)
(0 3.32987e-06 0)
(0 6.73686e-06 0)
(0 -4.24501e-06 0)
(0 1.1123e-05 0)
(0 1.34755e-06 0)
(0 1.02253e-05 0)
(0 -3.58284e-06 0)
(0 3.05877e-06 0)
(0 1.6254e-06 0)
(0 -2.76693e-05 0)
(0 3.77295e-06 0)
(0 3.00618e-06 0)
(0 9.74819e-06 0)
(0 -3.61055e-06 0)
(0 3.17728e-06 0)
(0 3.31539e-06 0)
(0 3.32382e-06 0)
(0 2.97612e-06 0)
(0 3.32949e-06 0)
(0 3.05044e-06 0)
(0 -1.11694e-08 0)
(0 -2.73558e-07 0)
(0 3.33369e-06 0)
(0 -3.62742e-06 0)
(0 7.47227e-07 0)
(0 9.27071e-07 0)
(0 4.83418e-07 0)
(0 1.69809e-06 0)
(0 -2.43778e-05 0)
(0 1.88107e-06 0)
(0 -8.87163e-07 0)
(0 -2.45406e-06 0)
(0 3.08465e-06 0)
(0 3.31919e-06 0)
(0 2.68657e-06 0)
(0 9.29661e-06 0)
(0 3.25998e-06 0)
(0 -1.92692e-06 0)
(0 3.35294e-06 0)
(0 3.33667e-06 0)
(0 -1.24302e-06 0)
(0 1.05137e-05 0)
(0 3.81943e-06 0)
(0 -1.33581e-06 0)
(0 -7.54699e-07 0)
(0 1.05776e-05 0)
(0 4.96275e-07 0)
(0 3.32665e-06 0)
(0 3.29258e-06 0)
(0 -6.09495e-06 0)
(0 -9.82411e-08 0)
(0 2.86243e-06 0)
(0 2.34453e-06 0)
(0 8.26301e-06 0)
(0 1.44033e-06 0)
(0 2.05497e-06 0)
(0 3.27867e-06 0)
(0 9.17671e-07 0)
(0 -1.89821e-06 0)
(0 -2.64905e-06 0)
(0 1.91751e-08 0)
(0 1.07219e-05 0)
(0 2.79587e-06 0)
(0 -1.74185e-06 0)
(0 3.33155e-06 0)
(0 1.99606e-06 0)
(0 2.62604e-06 0)
(0 -6.70231e-06 0)
(0 1.17399e-06 0)
(0 3.32934e-06 0)
(0 3.04917e-06 0)
(0 3.27229e-06 0)
(0 2.90149e-06 0)
(0 3.33366e-06 0)
(0 1.07785e-05 0)
(0 -5.53039e-07 0)
(0 -3.69199e-06 0)
(0 2.62388e-06 0)
(0 3.49672e-06 0)
(0 6.48436e-07 0)
(0 2.25066e-06 0)
(0 -9.62807e-07 0)
(0 7.52068e-06 0)
(0 8.61442e-06 0)
(0 -1.50479e-05 0)
(0 1.27305e-06 0)
(0 1.93586e-06 0)
(0 3.10903e-06 0)
(0 3.22153e-06 0)
(0 -1.92186e-06 0)
(0 3.33376e-06 0)
(0 2.31578e-06 0)
(0 6.62839e-06 0)
(0 -5.81925e-06 0)
(0 4.27943e-06 0)
(0 2.38891e-06 0)
(0 -1.87002e-06 0)
(0 -4.14214e-06 0)
(0 3.33212e-06 0)
(0 3.3337e-06 0)
(0 3.33053e-06 0)
(0 -1.80282e-05 0)
(0 3.33371e-06 0)
(0 -4.08449e-06 0)
(0 3.34757e-06 0)
(0 3.33171e-06 0)
(0 -2.12648e-06 0)
(0 -2.79566e-07 0)
(0 2.45642e-06 0)
(0 -3.27811e-06 0)
(0 7.87522e-06 0)
(0 3.3226e-06 0)
(0 -2.42605e-05 0)
(0 5.07003e-06 0)
(0 3.06154e-06 0)
(0 3.27797e-06 0)
(0 3.64971e-06 0)
(0 -1.79882e-06 0)
(0 6.68897e-06 0)
(0 -3.63217e-06 0)
(0 2.10893e-06 0)
(0 6.4007e-06 0)
(0 3.33108e-06 0)
(0 -1.98026e-06 0)
(0 8.68344e-06 0)
(0 3.26233e-06 0)
(0 2.92376e-06 0)
(0 1.20236e-06 0)
(0 6.75704e-07 0)
(0 2.4411e-06 0)
(0 -1.93164e-06 0)
(0 3.32398e-06 0)
(0 -4.12135e-06 0)
(0 1.21464e-06 0)
(0 3.3311e-06 0)
(0 9.20079e-06 0)
(0 3.33005e-06 0)
(0 8.47645e-06 0)
(0 1.8218e-06 0)
(0 3.28858e-06 0)
(0 3.30963e-06 0)
(0 -2.15696e-06 0)
(0 -8.22484e-07 0)
(0 3.19525e-06 0)
(0 4.23026e-07 0)
(0 -1.10167e-07 0)
(0 1.87625e-06 0)
(0 -6.06388e-06 0)
(0 3.35453e-06 0)
(0 4.2404e-06 0)
(0 -1.06146e-05 0)
(0 3.0164e-06 0)
(0 3.27952e-06 0)
(0 2.67446e-06 0)
(0 5.87547e-06 0)
(0 3.31767e-06 0)
(0 2.19575e-06 0)
(0 -4.61876e-06 0)
(0 2.726e-06 0)
(0 -2.11804e-06 0)
(0 -6.61341e-06 0)
(0 3.29819e-06 0)
(0 -1.87786e-06 0)
(0 1.08761e-06 0)
(0 -2.54198e-06 0)
(0 3.32889e-06 0)
(0 -1.87528e-05 0)
(0 1.21515e-06 0)
(0 3.32625e-06 0)
(0 -3.34479e-06 0)
(0 3.33354e-06 0)
(0 -5.43449e-06 0)
(0 -1.25203e-06 0)
(0 1.1147e-05 0)
(0 3.2627e-06 0)
(0 -1.52839e-05 0)
(0 -3.50787e-06 0)
(0 3.2941e-06 0)
(0 3.33336e-06 0)
(0 9.40951e-06 0)
(0 3.35076e-06 0)
(0 2.60023e-06 0)
(0 -2.20286e-05 0)
(0 -2.76678e-06 0)
(0 3.28802e-06 0)
(0 6.07744e-06 0)
(0 2.83841e-06 0)
(0 2.0486e-06 0)
(0 6.13969e-06 0)
(0 3.25867e-06 0)
(0 3.33712e-06 0)
(0 2.83698e-06 0)
(0 -1.82455e-06 0)
(0 3.33361e-06 0)
(0 1.80938e-06 0)
(0 3.31877e-06 0)
(0 3.08085e-06 0)
(0 -2.32058e-06 0)
(0 3.33364e-06 0)
(0 4.94133e-06 0)
(0 2.43968e-06 0)
(0 -1.54967e-05 0)
(0 3.32299e-06 0)
(0 7.96491e-06 0)
(0 -2.3488e-05 0)
(0 2.92189e-06 0)
(0 2.24806e-06 0)
(0 2.76087e-06 0)
(0 9.37297e-06 0)
(0 -2.69637e-06 0)
(0 3.33372e-06 0)
(0 2.65424e-06 0)
(0 1.27116e-06 0)
(0 1.06014e-06 0)
(0 3.23066e-06 0)
(0 -1.03357e-06 0)
(0 -2.39886e-06 0)
(0 1.38857e-06 0)
(0 1.90396e-06 0)
(0 -6.99578e-06 0)
(0 -3.41257e-06 0)
(0 -1.58213e-07 0)
(0 1.05156e-05 0)
(0 -3.83113e-06 0)
(0 1.11874e-05 0)
(0 2.33477e-06 0)
(0 7.16759e-07 0)
(0 3.27696e-06 0)
(0 7.43324e-06 0)
(0 3.31031e-06 0)
(0 -1.83776e-06 0)
(0 -8.62075e-06 0)
(0 8.73391e-06 0)
(0 2.40649e-06 0)
(0 -2.73342e-06 0)
(0 -2.42905e-06 0)
(0 3.33414e-06 0)
(0 3.33182e-06 0)
(0 -1.15855e-06 0)
(0 6.36403e-06 0)
(0 3.3274e-06 0)
(0 7.98572e-07 0)
(0 3.32914e-06 0)
(0 2.79228e-06 0)
(0 3.1904e-06 0)
(0 3.33319e-06 0)
(0 3.3528e-06 0)
(0 3.29708e-06 0)
(0 -1.74899e-05 0)
(0 -2.14293e-05 0)
(0 9.90987e-06 0)
(0 3.12905e-06 0)
(0 -2.54045e-06 0)
(0 4.94391e-06 0)
(0 3.27216e-06 0)
(0 -2.13427e-07 0)
(0 3.98303e-06 0)
(0 1.63552e-06 0)
(0 3.33382e-06 0)
(0 3.2288e-06 0)
(0 8.68325e-06 0)
(0 3.33378e-06 0)
(0 3.31825e-06 0)
(0 -5.36549e-06 0)
(0 4.07664e-06 0)
(0 -1.62478e-06 0)
(0 3.27736e-06 0)
(0 -3.15447e-05 0)
(0 -1.35171e-06 0)
(0 1.02643e-06 0)
(0 7.4273e-06 0)
(0 -2.00888e-05 0)
(0 3.15487e-06 0)
(0 1.03092e-06 0)
(0 -1.11694e-05 0)
(0 -1.57336e-05 0)
(0 -6.12612e-06 0)
(0 3.87954e-06 0)
(0 2.42139e-06 0)
(0 -3.82066e-06 0)
(0 -6.15918e-06 0)
(0 -1.81135e-05 0)
(0 -3.46162e-06 0)
(0 2.77451e-06 0)
(0 2.9098e-06 0)
(0 2.90377e-06 0)
(0 -1.0173e-06 0)
(0 -2.91906e-06 0)
(0 4.18146e-06 0)
(0 6.07501e-06 0)
(0 3.34882e-06 0)
(0 -3.47276e-06 0)
(0 1.8636e-06 0)
(0 3.12288e-06 0)
(0 3.33274e-06 0)
(0 8.88671e-06 0)
(0 3.02282e-06 0)
(0 3.33198e-06 0)
(0 7.12028e-06 0)
(0 3.09839e-06 0)
(0 2.31853e-06 0)
(0 -4.07802e-06 0)
(0 3.33138e-06 0)
(0 3.31355e-06 0)
(0 2.4283e-06 0)
(0 3.34325e-06 0)
(0 -1.09635e-06 0)
(0 5.02924e-07 0)
(0 -2.58153e-05 0)
(0 3.3359e-06 0)
(0 7.09651e-06 0)
(0 3.3298e-06 0)
(0 3.62899e-07 0)
(0 1.45128e-06 0)
(0 3.19155e-06 0)
(0 3.33099e-06 0)
(0 3.29257e-06 0)
(0 3.28548e-06 0)
(0 3.01967e-06 0)
(0 3.28572e-06 0)
(0 9.17999e-06 0)
(0 3.32172e-06 0)
(0 7.57264e-07 0)
(0 8.88475e-06 0)
(0 -2.71164e-05 0)
(0 -3.17468e-05 0)
(0 1.73485e-06 0)
(0 3.04505e-06 0)
(0 3.32696e-06 0)
(0 -3.29006e-06 0)
(0 -1.40655e-06 0)
(0 3.29248e-06 0)
(0 -2.27126e-05 0)
(0 3.33367e-06 0)
(0 3.27006e-06 0)
(0 2.26804e-06 0)
(0 1.20841e-05 0)
(0 2.70337e-06 0)
(0 -7.87436e-07 0)
(0 3.32817e-06 0)
(0 -3.11107e-05 0)
(0 2.02504e-06 0)
(0 3.19221e-06 0)
(0 -3.3995e-06 0)
(0 -5.72176e-06 0)
(0 4.95829e-07 0)
(0 1.32124e-06 0)
(0 3.27093e-06 0)
(0 -9.72753e-07 0)
(0 3.21952e-06 0)
(0 -2.03255e-05 0)
(0 3.84415e-06 0)
(0 3.33371e-06 0)
(0 1.57222e-06 0)
(0 2.26145e-06 0)
(0 3.18536e-06 0)
(0 -6.44158e-06 0)
(0 3.33367e-06 0)
(0 3.33436e-06 0)
(0 3.08898e-06 0)
(0 3.31576e-06 0)
(0 -2.22815e-06 0)
(0 3.19243e-06 0)
(0 3.26127e-06 0)
(0 8.92116e-07 0)
(0 1.30227e-05 0)
(0 3.3165e-06 0)
(0 2.1375e-06 0)
(0 8.94769e-06 0)
(0 -1.17354e-06 0)
(0 3.34246e-06 0)
(0 -1.16707e-06 0)
(0 8.50434e-06 0)
(0 1.74613e-06 0)
(0 1.50941e-06 0)
(0 3.33366e-06 0)
(0 2.21151e-06 0)
(0 -2.1582e-05 0)
(0 1.86752e-06 0)
(0 3.8982e-06 0)
(0 3.1842e-06 0)
(0 -9.52309e-06 0)
(0 3.33366e-06 0)
(0 3.07173e-07 0)
(0 3.35121e-06 0)
(0 2.7558e-06 0)
(0 2.9265e-06 0)
(0 -2.25705e-06 0)
(0 3.28457e-06 0)
(0 3.32444e-06 0)
(0 -4.12636e-06 0)
(0 -1.15967e-06 0)
(0 2.9698e-06 0)
(0 -1.87027e-05 0)
(0 2.80646e-06 0)
(0 3.18628e-06 0)
(0 3.35715e-06 0)
(0 -3.514e-06 0)
(0 -3.26765e-06 0)
(0 3.31825e-06 0)
(0 1.14535e-06 0)
(0 3.31851e-06 0)
(0 3.29185e-06 0)
(0 -1.11738e-05 0)
(0 3.25664e-06 0)
(0 1.72367e-06 0)
(0 3.22053e-06 0)
(0 -3.38911e-06 0)
(0 3.33411e-06 0)
(0 7.17403e-06 0)
(0 3.33324e-06 0)
(0 -6.55578e-06 0)
(0 -2.37741e-08 0)
(0 -1.70263e-05 0)
(0 -1.27318e-06 0)
(0 3.30657e-06 0)
(0 -1.37406e-05 0)
(0 -3.2974e-06 0)
(0 -2.42295e-06 0)
(0 3.33336e-06 0)
(0 7.44687e-06 0)
(0 -4.5931e-06 0)
(0 3.33595e-06 0)
(0 -2.13953e-06 0)
(0 -2.41281e-05 0)
(0 1.12486e-05 0)
(0 -1.66591e-05 0)
(0 5.61998e-07 0)
(0 3.65366e-06 0)
(0 1.54097e-06 0)
(0 3.59258e-06 0)
(0 1.81564e-06 0)
(0 -2.82938e-05 0)
(0 3.28166e-06 0)
(0 3.3374e-06 0)
(0 3.26355e-06 0)
(0 3.33539e-06 0)
(0 -8.85304e-06 0)
(0 1.682e-06 0)
(0 6.90828e-07 0)
(0 1.12172e-05 0)
(0 -7.99654e-06 0)
(0 3.35698e-06 0)
(0 3.34834e-06 0)
(0 -4.49913e-06 0)
(0 1.16935e-06 0)
(0 -3.56995e-07 0)
(0 3.33091e-06 0)
(0 -4.66192e-06 0)
(0 2.97787e-06 0)
(0 2.99311e-06 0)
(0 3.28858e-06 0)
(0 3.3302e-06 0)
(0 3.33376e-06 0)
(0 3.33346e-06 0)
(0 -3.22105e-05 0)
(0 3.00646e-06 0)
(0 3.33343e-06 0)
(0 3.33152e-06 0)
(0 1.12826e-06 0)
(0 -1.68334e-06 0)
(0 -4.12466e-06 0)
(0 3.5512e-06 0)
(0 2.78249e-06 0)
(0 1.80039e-06 0)
(0 1.43778e-06 0)
(0 -5.66936e-07 0)
(0 3.33367e-06 0)
(0 -3.77073e-06 0)
(0 -2.62486e-06 0)
(0 3.20682e-06 0)
(0 2.10365e-06 0)
(0 -1.87514e-06 0)
(0 -3.86178e-06 0)
(0 -3.83398e-06 0)
(0 7.25684e-06 0)
(0 3.33004e-06 0)
(0 3.31389e-06 0)
(0 3.33355e-06 0)
(0 3.30725e-06 0)
(0 5.97969e-07 0)
(0 3.24547e-06 0)
(0 -1.82367e-05 0)
(0 2.92668e-06 0)
(0 5.18403e-06 0)
(0 -3.76474e-06 0)
(0 -2.36789e-05 0)
(0 3.35296e-06 0)
(0 -3.16272e-06 0)
(0 -2.29863e-06 0)
(0 3.31331e-06 0)
(0 3.34722e-06 0)
(0 3.10314e-06 0)
(0 2.27428e-06 0)
(0 -1.69534e-06 0)
(0 1.48535e-06 0)
(0 3.33369e-06 0)
(0 3.33371e-06 0)
(0 3.20534e-06 0)
(0 3.34578e-06 0)
(0 3.25282e-06 0)
(0 3.33008e-06 0)
(0 3.28624e-06 0)
(0 3.13717e-06 0)
(0 1.11474e-06 0)
(0 -6.18359e-06 0)
(0 3.8094e-07 0)
(0 2.44276e-06 0)
(0 -9.91405e-06 0)
(0 3.93018e-07 0)
(0 3.19713e-06 0)
(0 5.81671e-06 0)
(0 -1.82937e-06 0)
(0 -1.74841e-06 0)
(0 3.31977e-06 0)
(0 1.3649e-06 0)
(0 1.0378e-05 0)
(0 9.52463e-07 0)
(0 -4.10962e-06 0)
(0 3.1975e-06 0)
(0 3.18372e-06 0)
(0 3.22249e-06 0)
(0 -1.43354e-05 0)
(0 3.33357e-06 0)
(0 -1.02055e-05 0)
(0 -2.33276e-06 0)
(0 1.82397e-06 0)
(0 3.14086e-06 0)
(0 -5.99807e-06 0)
(0 3.30853e-06 0)
(0 -2.84122e-06 0)
(0 3.32973e-06 0)
(0 8.67303e-06 0)
(0 3.3368e-06 0)
(0 3.05826e-06 0)
(0 -2.11e-06 0)
(0 3.13811e-07 0)
(0 -3.54174e-06 0)
(0 3.33349e-06 0)
(0 3.32774e-06 0)
(0 3.33411e-06 0)
(0 3.80012e-06 0)
(0 -1.95744e-06 0)
(0 -6.34419e-06 0)
(0 3.32914e-06 0)
(0 1.65668e-06 0)
(0 5.79486e-06 0)
(0 3.17782e-06 0)
(0 -3.27011e-06 0)
(0 -2.74858e-06 0)
(0 3.34505e-06 0)
(0 -2.82879e-05 0)
(0 -3.04361e-06 0)
(0 6.1124e-06 0)
(0 2.21531e-06 0)
(0 -2.47777e-05 0)
(0 -2.35224e-05 0)
(0 -1.93122e-06 0)
(0 -1.29406e-06 0)
(0 6.06808e-07 0)
(0 1.20373e-06 0)
(0 1.14502e-05 0)
(0 3.33369e-06 0)
(0 -4.04454e-06 0)
(0 3.32325e-06 0)
(0 3.33371e-06 0)
(0 2.83992e-06 0)
(0 3.33104e-06 0)
(0 3.32935e-06 0)
(0 -2.87297e-06 0)
(0 -2.95928e-06 0)
(0 7.28882e-06 0)
(0 1.18886e-06 0)
(0 3.26257e-06 0)
(0 1.16953e-06 0)
(0 3.27453e-06 0)
(0 1.87307e-06 0)
(0 3.92048e-07 0)
(0 -2.83068e-06 0)
(0 1.85179e-07 0)
(0 6.70141e-06 0)
(0 3.26445e-06 0)
(0 2.95823e-06 0)
(0 3.34715e-06 0)
(0 -1.72943e-05 0)
(0 2.59291e-06 0)
(0 -6.29568e-06 0)
(0 1.10018e-05 0)
(0 -1.34132e-06 0)
(0 -1.81961e-06 0)
(0 -1.37975e-05 0)
(0 3.30344e-06 0)
(0 1.32239e-06 0)