/*--------------------------------*- C++ -*----------------------------------*\
| =========                 |                                                 |
| \\      /  F ield         | OpenFOAM: The Open Source CFD Toolbox           |
|  \\    /   O peration     | Version:  v2012                                 |
|   \\  /    A nd           | Website:  www.openfoam.com                      |
|    \\/     M anipulation  |                                                 |
\*---------------------------------------------------------------------------*/
FoamFile
{
    version     2.0;
    format      ascii;
    class       surfaceScalarField;
    location    "500";
    object      meshPhi;
}
// * * * * * * * * * * * * * * * * * * * * * * * * * * * * * * * * * * * * * //

dimensions      [0 3 -1 0 0 0 0];
oriented        oriented;


internalField   nonuniform List<scalar> 
27284
(
0.000120221
-0.000198996
7.8842e-05
-0.000100168
9.20254e-05
1.13058e-05
7.12054e-05
5.97779e-05
-0.000130958
-6.43772e-05
0.000101867
-2.99252e-05
1.13182e-05
0.000211459
-0.000221597
-0.000220578
-6.23184e-05
0.000283643
0.000137144
-0.000218522
8.29907e-05
0.000220702
-0.00020823
-1.59874e-05
2.15458e-05
2.76784e-07
0.000150925
-0.00017753
2.72217e-05
0.000325689
-0.000110484
-0.000214355
0.00012395
-6.00877e-05
-6.38407e-05
4.37993e-05
8.01702e-05
8.69794e-05
0.000158383
-0.000245071
-3.70992e-05
3.65574e-05
6.75692e-06
5.43262e-05
-7.3357e-05
2.12146e-05
-8.64631e-05
3.10885e-05
-6.60439e-05
0.000273036
-0.000206023
7.67719e-05
7.98369e-05
-0.000156562
0.000128367
7.25366e-05
-0.000199407
9.96075e-05
-0.000223699
0.000124201
5.53941e-05
-0.000262557
0.000208535
-3.65245e-05
7.36231e-05
-3.28304e-05
5.38627e-05
-0.000273795
2.72862e-05
-5.99584e-05
0.000198632
-0.00027165
7.49481e-05
5.78992e-05
0.000174123
-0.000229799
-0.000165152
1.80485e-05
0.000154246
-1.17759e-05
1.11109e-06
0.000305188
-0.000119118
-0.000185448
0.000121988
0.000103387
-0.000225279
8.79595e-05
-0.000247589
0.000159939
-6.8858e-05
-9.72405e-06
8.00858e-05
4.04807e-05
3.63889e-06
-4.22908e-05
1.87255e-07
1.59449e-07
-2.16452e-07
0.000169431
-0.000230028
6.17854e-05
0.000111909
8.35748e-05
-0.000195233
-2.38456e-05
0.000194509
0.000105084
0.00020071
-0.00027076
0.00023567
3.64986e-05
1.98405e-05
2.19938e-05
-2.70043e-05
0.000207244
6.8141e-06
4.21632e-05
-4.71415e-05
8.20838e-05
-9.94973e-05
2.06179e-05
-1.48523e-05
8.06314e-05
-0.000103014
2.23899e-05
-0.000161998
-2.36439e-05
0.000190408
2.14965e-05
-0.000178694
-0.0001486
0.000269769
-4.41388e-05
-0.000222721
1.17802e-05
-5.81208e-06
-4.0765e-06
0.000126789
-0.000208387
8.16319e-05
0.000221807
5.05244e-05
-9.30053e-05
0.000166532
-7.34649e-05
0.000265392
-8.20442e-05
-0.000177309
-8.40724e-05
0.000214027
3.32857e-06
-1.49694e-06
-1.00672e-06
-0.000234616
0.000272392
-7.22114e-05
-9.58819e-05
3.36563e-05
6.22301e-05
4.91559e-05
5.49665e-05
7.0664e-05
-0.000125588
-0.000181737
8.8816e-05
0.000121189
-4.0628e-05
-7.94339e-05
1.02602e-06
0.000168532
-0.000169341
-1.1217e-05
1.03726e-05
2.84062e-06
-3.99436e-05
-0.000146309
0.000186785
-4.05863e-05
0.000152706
3.61149e-05
5.25972e-06
-3.98278e-05
-0.000290963
0.000195231
9.63404e-05
-0.000164245
0.000213105
-4.62156e-05
0.000131195
0.000138645
-4.24258e-05
0.000228916
-0.000186134
0.000283949
-7.04217e-05
-0.000212629
-2.89898e-05
0.000199051
-0.000169182
4.06979e-05
6.39647e-06
-4.54158e-05
-0.000206469
-2.80993e-05
-3.57217e-06
4.59832e-05
-0.000200205
3.86472e-05
0.000179142
-0.00020721
0.000166214
-0.000205574
-0.000168551
0.000240379
-7.10416e-05
4.4088e-05
-0.000183288
-1.62941e-05
0.000200111
-0.000232881
0.000100113
0.000132949
7.15231e-06
2.60398e-06
-6.32052e-06
4.17401e-05
-1.85128e-05
-1.30675e-05
5.37632e-05
-0.000186228
0.000132682
0.000174287
1.47107e-05
-0.00018458
-0.000142201
0.000196194
-2.58277e-05
-0.000185906
0.000271809
-0.000182787
-8.88832e-05
9.9229e-05
-0.000266847
-0.000247252
0.000205799
0.000307731
-0.000117614
-0.000189567
-0.000123822
4.61706e-05
7.86952e-05
0.000169732
-5.23114e-05
-0.000112534
-3.88318e-05
-8.37603e-05
-2.42307e-05
0.000141236
-0.000116919
-0.000205284
-2.187e-05
0.000228467
-0.000148146
-8.45474e-05
-0.00016935
-2.79052e-05
-4.37571e-05
-0.000200712
-9.10327e-07
1.33443e-06
-2.98393e-07
-3.99793e-06
0.00018871
-0.000184212
8.34398e-05
-2.63862e-05
0.000184034
-0.000182773
9.12507e-05
0.00021692
-0.000228717
0.000116432
0.000112521
2.19126e-06
5.36579e-05
-5.37918e-05
2.70608e-06
1.38826e-06
3.19801e-06
-2.88e-06
1.30582e-06
-3.19273e-05
0.00018626
-0.000153935
1.97715e-05
-0.000202513
9.46116e-05
-0.000116515
2.19127e-05
0.00023056
-5.42586e-05
-0.000175848
-0.000211165
4.48331e-05
-3.13974e-05
0.000211416
-3.55778e-05
0.000222996
-0.00018665
-0.000296115
0.000150392
-0.000128748
-0.000161595
-4.85109e-05
0.000119737
-0.000243806
-0.00022516
0.000110778
0.000114581
0.000162267
-0.000192878
-9.17204e-05
8.08413e-05
1.08871e-05
0.000196969
-6.45147e-05
-1.30939e-05
0.000201353
-8.10758e-05
-0.000258889
0.000238052
2.25103e-05
4.62865e-05
0.000128223
0.000247667
-0.000120841
0.000247996
-0.00016362
-8.13234e-05
-0.000178431
8.0841e-05
9.76531e-05
6.18898e-05
-0.00015994
9.81289e-05
-0.000149821
-1.71627e-05
0.000170768
0.000153956
-7.71447e-05
-0.000168553
-7.26471e-05
0.000241737
-6.73075e-05
-2.36346e-06
8.12633e-05
0.000127901
0.000144023
5.12326e-06
-0.000141837
0.000137044
-4.14041e-05
-0.000178466
0.000220899
0.000153579
-0.000182909
3.36194e-05
-9.3481e-05
-0.000143671
-0.000118912
0.000180895
-5.07093e-05
3.59602e-05
2.42426e-05
3.66366e-05
6.29562e-05
-9.95877e-05
3.18813e-06
-1.16632e-06
-1.99812e-06
0.000164812
-0.000196317
-3.53214e-06
5.28782e-06
-1.76406e-06
-0.000154439
-3.00711e-06
-0.000118551
-0.000176889
0.000142346
-4.42759e-05
-9.66977e-05
4.11151e-05
0.00017017
-0.000210025
5.32592e-05
-9.22628e-06
-4.2704e-05
2.52545e-05
2.15578e-05
1.35515e-05
-6.90378e-05
-1.66785e-06
1.15367e-05
-8.58679e-08
0.000156776
-1.71359e-05
-2.03599e-05
-0.000253041
5.53847e-05
0.000198458
7.10119e-05
0.000179638
4.49948e-05
-4.11758e-05
4.32808e-05
0.000176701
-0.00021893
-0.000274486
7.00913e-05
0.000205214
-0.000108536
0.000155793
-4.6684e-05
-4.41786e-05
8.08192e-05
-8.02653e-05
0.000196025
-0.000115699
-0.000149409
-7.31979e-05
0.000222678
0.000166208
-0.000160696
2.15676e-06
1.81073e-06
-2.50733e-06
-8.83015e-05
-9.00599e-05
4.53786e-06
4.13084e-06
-5.5063e-06
0.000112439
-0.000261035
7.84553e-07
8.72643e-07
-1.05698e-06
-1.96944e-05
-1.87301e-05
-1.51307e-06
6.21839e-06
-1.63614e-06
7.64368e-09
1.6542e-06
-0.00025653
0.000132992
0.00012421
-6.81141e-05
-0.000123771
0.000192252
5.00535e-06
5.05152e-06
-6.43486e-06
-0.000146944
3.89933e-05
0.00022177
1.80027e-05
-0.000238336
-3.331e-05
0.000166939
-0.000128281
0.000145216
-0.000120051
-2.43618e-05
-0.000242735
0.000201747
-1.25321e-06
-1.08496e-05
1.66501e-05
-5.06635e-05
0.000200861
-0.000149938
0.000191501
-3.83645e-05
-0.000144311
0.00019297
-1.66693e-05
8.15591e-06
-9.98677e-05
-0.000134611
0.00011046
0.000119778
-9.58494e-05
-2.06485e-05
-4.06629e-05
-6.27177e-06
4.81746e-05
7.20695e-05
-8.60453e-05
2.84149e-05
7.84002e-05
-0.000120974
4.25861e-05
8.48127e-06
5.13849e-06
0.000119885
-0.000198354
7.85191e-05
-8.14403e-06
0.000103415
0.00029506
-0.000207713
-2.83621e-05
-0.000211731
3.84085e-05
0.000227298
-0.000264579
0.000298648
-0.000192956
-9.36145e-06
-8.75391e-07
1.40817e-05
-0.000197587
0.000117385
8.29223e-05
-0.000271649
0.0001906
6.5413e-05
-0.000214753
0.00011048
-0.000138998
7.356e-05
-8.83045e-05
1.63932e-05
0.000146659
-4.00969e-05
-0.000105056
0.000215823
-0.000226883
1.28269e-05
-0.000223747
0.000267732
-4.3252e-05
-0.00015526
4.34625e-05
0.000113095
-5.35099e-05
-0.000100468
2.22884e-06
1.02248e-06
-0.000165977
0.000278456
0.000137898
-0.000205621
0.000143006
-0.000166511
2.37681e-05
-0.000293972
8.38025e-05
0.000212016
-0.000217382
6.838e-05
0.0001535
-9.24907e-05
-0.000135977
3.36614e-05
6.97368e-06
-3.95312e-05
0.000134623
5.2476e-05
-0.000186881
-1.31105e-05
9.31037e-05
-7.91804e-05
-0.000283538
0.000236828
4.73686e-05
4.6087e-05
-0.000177681
0.000132894
7.21682e-06
3.72282e-05
-4.32742e-05
6.26266e-05
-0.000230767
-0.000108763
0.000221832
-0.000112981
-2.50274e-05
0.000210597
-0.000185204
0.000146655
-0.000172014
2.70405e-05
0.000162655
-1.47725e-05
-7.29471e-05
8.81457e-05
4.1995e-05
-0.000170823
0.000215134
-0.000232892
-4.98837e-05
0.000258673
-5.59989e-05
-0.000201548
8.87951e-05
-3.13613e-05
0.000149844
-0.000118216
-0.000148771
9.64261e-05
0.000136796
-4.4586e-05
-8.89862e-05
-0.000134095
-0.000121853
-4.53049e-05
-0.000102095
0.000198213
-1.56587e-05
-0.000182209
-0.000209041
0.000251363
-7.19985e-05
-0.000173377
-2.00141e-05
0.000165806
-0.000140847
-0.000267502
4.45028e-05
-0.000180826
0.000262925
-8.16279e-05
-0.000241599
0.000210871
3.36137e-05
4.09422e-05
8.1314e-05
8.75224e-05
-6.75108e-05
0.000117835
-5.03018e-05
8.47732e-05
-9.70418e-05
-1.28556e-06
-2.62298e-07
-3.86668e-06
9.03295e-05
-8.56273e-05
0.000123544
-0.000154634
5.85616e-05
-5.23126e-05
6.87333e-06
-0.000142096
0.000189619
4.62251e-05
0.000102118
-0.000143853
-4.03877e-06
5.11916e-07
-0.000190973
4.21779e-05
0.000149642
0.000207229
-0.00011291
-9.42295e-05
-0.000188378
0.000128465
6.00573e-05
0.000203134
9.60793e-05
5.38776e-05
0.000206874
-0.000260021
-3.81523e-05
0.000220244
-0.000180977
-5.10851e-05
-0.000100127
0.000151292
-9.4852e-05
0.000145473
0.000174922
1.81035e-05
0.000181833
-0.000197941
-4.91402e-05
-7.37574e-06
5.83211e-05
-0.0002178
0.000257301
0.00016538
-2.21436e-05
1.10719e-05
0.000134926
-0.000138628
-1.58764e-06
-0.000204532
0.000207755
0.000349398
-0.000138756
-0.000209909
2.63865e-05
-0.000172383
-0.000188475
0.000100985
8.75882e-05
-0.000296465
5.55604e-05
0.000345898
-0.000141596
-0.000203401
-1.62457e-05
0.000233748
0.000265478
-7.57626e-05
-0.000189223
-5.48762e-05
7.498e-06
-0.000201399
0.000140379
6.12344e-05
0.000212911
3.40333e-05
-0.000244818
-0.000291142
0.000157655
0.000133902
5.34868e-05
-2.03631e-05
-0.000152801
-3.90621e-06
-6.22871e-07
8.09014e-06
-7.54777e-05
2.61344e-05
-0.000130998
0.000104955
-0.000194978
0.000210709
-1.48656e-05
-0.00019015
5.89513e-05
0.000132484
0.000195829
-0.000232811
-1.10737e-05
-1.95667e-05
7.82836e-06
-4.72894e-05
-8.39931e-05
-0.000104375
0.000221894
-0.000221718
0.000179849
8.47368e-05
-0.000193513
0.000109021
-0.000257475
-1.93481e-05
0.000169305
-0.000149779
7.26984e-05
7.72162e-06
0.000243865
-0.000250508
0.000139423
0.000210655
0.000192841
-0.000225219
3.52637e-05
0.000174133
1.80155e-05
-0.000191759
-9.05428e-05
-9.76515e-05
0.000123775
-9.75529e-05
1.68106e-05
7.18923e-05
-8.82359e-05
-3.90167e-05
-6.85328e-05
0.000107562
-0.000268241
0.000149587
0.00012182
-0.00021191
-4.83636e-05
0.000261636
0.000105084
-0.000183625
7.86254e-05
0.000127411
0.000138461
-0.000102111
-0.000162195
0.00018749
-0.000161026
2.15708e-05
0.000141422
-0.000157393
-9.92685e-05
-4.73454e-05
0.000146687
-0.0001064
6.73962e-05
6.54554e-05
6.61235e-05
-0.000131565
-6.72347e-05
8.45006e-05
0.000207839
-3.30296e-05
-0.000125796
0.000159137
5.74936e-06
0.000186066
-0.000190896
4.48604e-06
-3.59286e-06
-7.30611e-07
-0.000229305
-4.01881e-05
-0.000174531
-0.000233012
8.3982e-06
0.000228153
0.000173526
-1.16497e-07
4.14586e-07
-0.000171111
-3.51445e-05
0.000206786
1.5972e-06
-7.13585e-05
7.18826e-05
0.000278879
-0.000115735
-8.04922e-05
8.2001e-05
1.08681e-05
-4.14172e-05
-0.000227705
-2.50816e-05
-0.000227673
0.000253784
0.000123592
-5.32725e-05
-7.02984e-05
-0.000114302
-8.50057e-05
0.000199364
-0.000180791
0.000165445
1.70614e-05
-8.38322e-05
0.000262225
-0.000211178
-4.95375e-05
0.000190186
-1.15129e-05
-1.35977e-05
-0.000215864
-0.000238262
0.000215691
2.40195e-05
1.2092e-05
0.000139451
2.16241e-05
0.000171367
-0.00018888
3.66083e-05
-4.31225e-05
1.73873e-05
-4.69431e-06
1.27664e-06
3.44685e-06
4.88781e-05
0.000189958
-0.000237471
-2.04757e-05
-0.000167166
0.000191474
-6.68974e-05
0.000119727
-5.2812e-05
-0.000226362
-1.06446e-05
-1.63667e-05
0.000156128
-0.000134793
-0.000212482
3.02426e-05
0.000184429
-2.12646e-05
0.000179271
5.3367e-05
-1.83289e-05
-2.22579e-05
0.000161037
-0.000181946
-3.59807e-05
-7.09211e-06
4.39476e-05
-9.87306e-06
5.46185e-05
-0.000233417
2.95409e-05
-3.92431e-05
-5.66353e-05
-1.1775e-05
9.03817e-05
-7.8092e-05
6.84326e-06
-4.19495e-05
0.000161127
1.28778e-05
-0.000169127
-0.000272348
0.000222669
5.09893e-05
-0.000108862
0.00013506
-6.58845e-06
8.76169e-06
3.45363e-07
-3.17233e-05
0.000200244
-0.000167834
7.76955e-05
-8.89865e-05
0.00034424
-0.000204122
0.000216909
-0.000218276
4.91259e-06
0.000105132
0.000154462
0.000113261
-6.94434e-05
0.000164234
-5.1913e-05
-0.000110949
-9.14682e-05
8.84353e-05
0.000184354
-9.87258e-06
-6.75342e-05
8.29811e-05
-1.36431e-05
-0.000266106
-5.02393e-06
-0.000136597
0.000231577
-9.39812e-05
0.00021263
2.62757e-05
-0.000237321
7.52995e-06
-4.55278e-05
4.74209e-05
0.000204857
-0.000269972
2.37651e-05
-2.64155e-05
9.5717e-06
-0.00021803
-2.06782e-05
0.000240111
-1.37647e-05
9.70278e-05
0.000199792
-0.000206707
7.17816e-06
9.8316e-05
0.000289037
-0.000103378
-0.000185
-3.98443e-06
-5.28454e-06
0.000129614
-0.000262218
4.55418e-05
-2.17675e-05
-0.000177803
0.00020129
-2.27484e-06
-0.00010028
0.000102609
-7.42516e-05
-3.09987e-05
0.000105256
1.48433e-05
7.59733e-05
3.01697e-05
0.000158979
-0.000187507
-0.000127447
5.99633e-05
-7.42508e-05
0.000255927
-0.000180234
-5.30517e-06
-6.47919e-05
-8.65769e-08
8.65767e-08
0.000198134
-0.000106482
-9.15305e-05
6.43848e-05
0.000134996
0.00015861
0.000186335
-0.000137483
-7.96073e-05
-0.000280037
7.80321e-05
0.000202792
-0.000149514
0.000155998
-0.000271633
0.000258387
1.39685e-05
8.36571e-05
-0.000197897
5.8287e-05
0.000105757
-0.000163955
-9.55633e-07
1.12623e-07
5.7654e-05
7.74511e-05
-0.000135098
-0.000239111
0.000218627
-0.000115006
0.000132739
0.000215751
-0.00011603
8.91797e-05
4.27039e-06
-0.000167492
-9.70537e-05
-3.93969e-06
1.70973e-06
2.23078e-06
1.90505e-05
0.000165182
0.000109502
-1.15539e-05
-0.000166274
7.80336e-05
0.000184911
-0.000125392
-5.9108e-05
0.000205238
-9.11258e-05
-0.000114016
0.000262973
-0.000195722
-6.46476e-05
-0.000131128
7.53465e-05
5.8625e-05
9.24101e-05
0.000173874
-0.000208748
0.000139901
3.5736e-05
-0.000173586
-5.68655e-05
-0.000120005
-0.000144673
-4.54388e-05
1.59502e-05
-0.000124145
6.72348e-05
0.000106064
-0.000108282
-4.78016e-05
-8.03849e-05
-0.000293172
5.13089e-05
0.000243198
4.86577e-06
-0.000185301
-0.000183024
-5.86841e-05
0.000241757
-0.000175993
9.37508e-05
8.23744e-05
-0.000185538
0.000235758
0.000260159
-6.47182e-05
0.000104078
-0.000161705
5.7745e-05
5.45325e-06
-2.75037e-05
2.7769e-05
5.81707e-05
1.02275e-05
-6.68982e-05
-0.000163102
-4.67518e-05
-3.38794e-05
-0.000101522
2.72758e-05
1.15501e-05
-7.7308e-05
6.9119e-06
-1.60056e-06
-1.85505e-06
-5.18436e-05
-1.17124e-05
7.53864e-05
8.6925e-05
3.66849e-05
8.59855e-05
-0.000221559
-8.28625e-06
-3.85333e-05
4.79455e-05
-0.000259911
9.39737e-05
-6.65709e-05
-0.00019899
0.000256716
-5.51818e-05
-8.74563e-06
8.7154e-05
-7.88446e-05
0.000133853
0.000261064
-3.78037e-05
-8.08022e-06
3.75611e-05
-8.14487e-05
-9.44042e-05
-8.67851e-05
-2.70796e-06
8.95086e-05
0.000150344
8.17226e-05
-0.00023202
6.67985e-05
4.92805e-06
-6.99575e-05
-9.99153e-05
-0.000103481
0.000203431
-7.12791e-05
1.52577e-05
8.01806e-05
-6.00507e-05
-0.000119627
0.000179837
-0.000229166
4.45961e-05
0.000185263
-4.12526e-06
0.000204154
0.000177211
-0.000219299
0.000171091
0.000215007
6.9824e-05
-0.000142282
0.000198734
-0.000124458
5.75803e-05
3.79433e-05
0.000185787
0.000175074
-7.87701e-05
-9.61356e-05
4.45451e-05
-0.000237828
0.000194605
5.90483e-05
8.85319e-06
-6.6275e-05
-0.000271945
0.000139705
0.00013344
6.56127e-05
-4.92277e-05
0.000129007
-7.97401e-05
8.79696e-05
-0.000118961
0.00018377
-0.00016452
0.00021068
6.32567e-05
-0.00028317
6.45005e-05
0.00022047
0.000235818
4.9066e-05
9.89076e-05
0.000189062
-0.000180532
3.89315e-05
8.7376e-05
-0.000125118
7.29479e-06
3.10552e-05
-3.76685e-05
5.89078e-05
0.00016111
-0.000214116
0.000189337
-4.87601e-05
9.21088e-05
-8.18169e-05
0.000121912
-0.000185209
0.000120895
6.43333e-05
0.000181519
-6.15834e-05
-7.65769e-05
-0.000215317
-4.19843e-05
5.15075e-06
4.56453e-06
0.000166221
1.72998e-08
-3.35434e-06
-5.90285e-07
-8.18639e-05
-4.40735e-05
0.000125959
4.52946e-05
-0.000256098
-2.40281e-05
0.000211434
-0.000186855
0.000218179
3.5294e-05
-0.000252647
-0.000231751
2.0988e-05
0.000211634
0.000219173
-4.57838e-05
-0.000172915
5.57683e-05
-7.25435e-05
1.67773e-05
-6.72472e-05
-0.00010871
0.00017618
0.000198842
-0.000274088
7.7211e-05
7.97285e-05
1.50094e-05
-9.45981e-05
3.00643e-05
2.06069e-05
0.000111074
-8.5731e-05
0.000143393
0.00017947
-0.000162528
-1.66863e-05
-0.000220796
-7.11811e-05
6.91669e-05
-1.33966e-05
0.000142538
-4.73565e-07
-7.69501e-05
-8.92578e-05
-9.23366e-05
0.000180528
-5.94423e-05
-1.49275e-05
7.46848e-05
0.000225331
-0.000186639
-7.3833e-05
-0.000196553
-0.000229499
-2.51361e-05
0.000257584
-0.000143433
0.000185898
-4.19368e-05
-0.000160043
1.61317e-05
-7.52566e-05
0.000173594
-0.000119681
-5.34879e-05
0.000257012
-2.86111e-05
7.85139e-06
-0.000234507
0.000179542
-0.000195321
-0.000231358
0.000164947
0.000209312
5.01764e-05
-0.000258173
-9.56928e-05
0.000112328
-0.000278167
4.56132e-06
8.34143e-05
0.000212545
1.77199e-05
-0.000230087
0.000294802
-5.48024e-05
-0.00023895
-0.00019444
-5.2762e-05
-2.5992e-05
0.000191234
0.00016268
-0.000181704
-4.37686e-06
0.00018244
-0.000173665
8.60351e-05
0.000209668
0.00021786
-0.000272835
5.60029e-05
0.000245083
-3.01277e-05
-5.89932e-05
-0.000166381
0.000151405
0.000127954
4.69698e-05
0.000120226
-0.000162453
0.000225432
-1.26981e-05
0.000209187
6.283e-05
-0.000270887
3.85113e-05
-0.000122505
8.40365e-05
5.98271e-05
5.34497e-05
-0.000150925
0.000150236
0.000208935
-0.0001886
8.09175e-05
0.000120489
-0.000133458
0.000197651
-3.99675e-05
-6.74357e-05
0.000107409
6.03039e-05
-4.21492e-05
0.000230368
-5.88868e-05
-0.000171325
0.000116961
-0.000183969
-2.25926e-05
5.95379e-05
0.000172487
-0.000198033
9.02228e-05
-0.000105155
0.000163529
-8.29039e-06
2.67866e-06
-8.26039e-06
4.27363e-05
-3.31049e-05
0.000105478
5.63085e-05
-0.000161654
7.67722e-05
0.000102922
-8.53863e-05
0.000123942
0.000169602
-0.000131317
-3.02266e-05
-4.70912e-05
0.000117789
-0.000107858
0.000159349
4.8585e-05
-0.000130427
-2.11539e-08
-2.44013e-08
-0.00023824
7.41332e-05
0.000166727
-4.18469e-05
0.000116085
-7.42208e-05
-5.19091e-05
-0.000151261
0.000204524
-0.000266083
3.42512e-05
2.11297e-06
-8.09506e-07
0.000213004
-3.03468e-05
-0.000182127
0.000185479
-5.76905e-05
-0.000126464
3.73127e-05
-0.000207882
0.000121599
-5.61343e-05
-0.000235136
9.78756e-05
0.000137626
1.44701e-05
7.93902e-05
-2.78409e-06
3.85646e-06
5.2754e-08
0.000155189
-2.85957e-05
0.000235051
-0.000204981
-5.96857e-05
-0.000175027
-3.64494e-05
-5.20932e-05
8.85453e-05
8.95082e-05
-2.69124e-05
-5.93964e-05
8.82439e-05
-7.29617e-05
0.000206735
-0.000242909
3.79736e-05
5.4186e-06
-1.86526e-06
5.91289e-05
-0.00021323
0.000154533
2.83019e-07
-3.62413e-06
4.18947e-05
0.00012371
-0.00022489
0.000147781
7.72537e-05
3.38508e-05
0.000143541
-0.000175906
-6.98189e-05
0.000129391
-5.94675e-05
0.000183556
-6.84331e-05
-0.000114818
3.36348e-06
0.000140842
0.000203583
-0.000133811
-6.97182e-05
-0.000192615
-2.34595e-05
-0.000161728
-0.000215712
4.70163e-05
0.000169005
-0.000248934
-9.09925e-06
0.00025972
0.000209028
-3.78951e-05
-0.000165161
7.85125e-05
0.000137155
0.000194594
-0.000264201
0.000136189
-0.000230516
9.53636e-05
-2.87247e-06
-9.91559e-07
-6.03005e-05
0.000184823
-0.000124393
-0.000223107
0.00012727
9.58606e-05
-0.000182195
-5.31972e-05
-5.96667e-05
-0.000190704
0.000250456
-0.000242608
0.000184762
6.25781e-05
-0.000246676
-4.8202e-05
0.000120423
-7.2204e-05
-4.46589e-06
6.41506e-05
-0.000144426
-5.44843e-05
-1.8041e-05
7.48928e-05
-5.65888e-05
-1.85833e-06
-8.2455e-07
2.75287e-06
0.00012435
5.95144e-05
0.00018603
-0.000117619
-6.82877e-05
-1.62509e-05
-6.81109e-05
8.4369e-05
-0.000168623
0.000206486
-0.000147647
-2.6515e-05
0.000176335
-0.000160239
1.17344e-05
-4.19836e-06
2.69337e-05
0.00011901
4.46972e-05
-0.000143891
-0.000275683
0.000187677
9.00116e-05
0.000229135
-0.000191168
-3.69551e-05
0.000121397
-0.000181574
-0.000219672
7.96488e-05
-2.26383e-05
-0.000163491
0.000188498
-5.97715e-05
0.000163964
-1.80782e-05
-7.84189e-05
9.65055e-05
-0.000192056
4.91292e-05
0.000155833
2.2362e-05
-0.000177163
-0.000165154
-2.61511e-05
0.000163127
3.79485e-05
-0.000228577
2.21595e-05
0.000185452
0.000137459
3.68286e-05
-0.00016993
0.000211096
-0.000233211
2.26725e-05
3.81207e-05
-0.000206171
0.000196609
-0.000154316
6.82743e-05
7.40234e-05
-0.000142221
8.73637e-05
0.000177701
-0.000185351
7.66634e-05
7.32698e-06
-4.73223e-05
0.000283527
-0.000242495
-3.93482e-05
-3.31721e-05
-0.000111951
0.000145147
-4.95002e-06
7.13966e-07
0.000260074
-4.84509e-05
-4.23319e-05
-0.000138401
-8.63131e-05
0.000214931
1.23103e-06
-0.000212515
-4.83125e-05
-6.13477e-05
0.000115289
0.000127125
9.80005e-05
-0.000224669
3.39955e-05
0.000179513
-8.27203e-06
4.01214e-05
-3.08468e-05
1.26901e-05
8.41048e-05
-9.57722e-05
1.88378e-05
0.000190876
-0.000209231
1.24578e-05
0.000154135
-0.000271592
0.000168816
3.13947e-05
-1.02677e-05
-1.61136e-05
-0.000152903
-7.20469e-05
0.00011675
-0.000218703
0.000264186
-4.19846e-05
1.7915e-05
-0.000182262
8.58744e-05
-0.000221531
0.000210361
-0.000136609
-7.37236e-05
-7.75224e-06
4.16312e-05
-3.29687e-05
0.00013988
-8.00767e-05
-0.000121278
0.000214251
-8.87585e-05
2.33781e-06
-6.0221e-07
6.81685e-05
-0.000109999
-4.15252e-05
0.000232118
-0.000189871
-0.000225277
0.000166631
-6.21702e-05
-0.000208706
-0.000131312
9.01157e-05
0.000142821
6.75662e-05
0.000101944
-0.000219003
-4.82796e-05
-4.61503e-06
2.7833e-05
3.68954e-05
-3.62598e-05
0.00017813
6.97626e-05
0.000190773
-0.000133539
0.000199693
-0.000115975
7.76978e-06
-9.20103e-06
6.06552e-06
-8.86132e-05
4.86506e-05
0.000219021
3.32408e-05
-0.000250727
-0.000168247
0.000187011
-0.0001992
-9.7098e-05
-0.000205989
0.000258511
0.000206669
0.000181613
-3.41303e-05
-5.66304e-06
4.05243e-05
-8.39707e-05
-3.758e-05
0.00012158
-0.000192635
0.000235484
-3.81554e-05
-4.84546e-05
5.85403e-05
-8.17961e-06
4.88181e-05
8.56908e-06
-5.61533e-05
-0.000185993
6.84565e-05
-0.000196351
0.000115991
-5.08298e-05
-6.51464e-05
-6.29304e-05
1.44624e-05
0.0001094
-0.000130632
0.000204447
-0.000266507
0.000219544
-0.000229176
-2.30089e-05
-4.9645e-05
-0.000147115
0.000198109
0.000195391
-0.000152315
7.79509e-05
-0.000128033
0.000185384
-7.44371e-05
4.58066e-05
-7.3838e-06
0.000228965
-0.000116481
8.8249e-05
-0.000106318
-4.96273e-06
6.71146e-06
-7.47574e-07
0.000140658
-0.0001771
3.71232e-05
6.99108e-07
-2.56058e-06
2.91291e-06
-8.63655e-05
7.19925e-05
-0.000140607
7.0889e-05
-2.06346e-06
2.48404e-07
-5.61003e-05
-0.000207475
-2.51852e-05
2.92941e-05
-0.000196712
6.64355e-07
-4.44842e-06
-0.000144767
0.000197479
-5.24072e-05
0.000188463
-0.000130864
-5.71501e-05
-0.000236632
0.000150248
8.65062e-05
-0.000211085
-5.56801e-05
-9.34089e-05
0.000166324
1.5352e-05
-7.80808e-05
6.30825e-05
-0.000110449
0.00011799
-7.50242e-06
7.74976e-05
0.00014781
2.95454e-05
-0.000254068
0.000134147
0.000120417
-0.000169054
2.34739e-05
-0.000219386
0.000257666
-3.59913e-05
-9.95857e-05
0.000274812
-0.000171089
4.74105e-07
-1.99142e-07
-2.79746e-05
-6.82118e-05
0.000170657
-0.000250693
-7.92068e-06
2.25106e-05
-2.93111e-05
1.20921e-05
3.84956e-05
-3.326e-05
-2.59799e-06
2.94828e-06
2.61679e-07
0.000264602
-5.66172e-05
-0.000206493
-0.000110779
-0.000125721
2.22715e-05
-0.000132678
8.32822e-05
-0.000182124
0.000216633
0.000283155
-7.44268e-05
-0.000206787
-6.27565e-05
-0.00021846
0.000177416
-2.91701e-05
-1.71011e-05
-0.000199968
0.000254591
-1.8015e-06
3.9895e-05
-3.64578e-05
3.87508e-05
0.000127266
-0.000161272
-1.01186e-05
1.26393e-05
-0.00028274
6.91191e-05
0.000211444
4.79166e-05
-0.000258219
1.55815e-05
7.2916e-05
-8.75725e-05
-5.20782e-05
-6.4426e-05
4.77457e-05
0.000240487
-0.000142206
0.000119683
-0.000167005
-0.000115288
2.8519e-05
6.65373e-06
3.83089e-05
-7.0994e-05
8.75129e-05
-0.000263777
5.34987e-05
0.000261068
1.35249e-05
-8.35763e-05
9.9366e-06
5.2645e-05
-6.13076e-05
-0.000100762
0.000265471
3.78695e-05
-3.11936e-05
0.000163489
0.000118742
-0.000281499
-0.000210887
2.35979e-05
-1.92718e-05
0.000265164
-8.72726e-05
-0.00017363
-0.000120293
-0.000133177
-4.9635e-05
-0.000212024
0.000261934
-0.000134012
0.000175227
0.000294598
-0.000194778
-9.84987e-05
3.90769e-05
-2.67097e-05
3.75266e-05
0.000116459
-7.67419e-05
6.21264e-05
0.000196093
-0.000120479
-7.54028e-05
-9.95435e-05
0.00023672
-0.000217361
0.0001443
0.000265903
-5.56507e-05
-5.29036e-05
-0.000197446
0.00025126
-5.23909e-05
-2.01502e-05
1.13957e-05
-3.64587e-06
7.34487e-05
-5.6996e-05
0.000153391
8.82414e-05
-0.000231641
0.000143607
-0.000207195
-6.53516e-05
0.000274221
-2.20249e-05
-6.46227e-05
-6.95463e-06
-2.86589e-05
3.62608e-05
0.000151128
-0.000268244
3.75225e-05
-2.95391e-05
0.000129351
6.69389e-05
-7.62417e-05
6.7522e-05
5.22225e-05
3.48796e-05
2.91858e-05
-1.07675e-05
-1.13605e-05
1.92265e-05
1.64312e-05
-5.43481e-07
-1.06955e-07
9.09898e-07
2.7337e-05
-0.000242305
8.46819e-05
-0.000141584
6.04747e-05
8.11464e-05
-0.000205565
0.000170928
9.33587e-05
-0.000178318
8.50921e-05
-0.000295602
0.000177408
0.000120567
-4.14149e-06
3.92384e-05
-3.36422e-05
-1.69868e-05
7.51102e-06
0.000259985
-7.58209e-05
-0.000179596
0.000195346
-5.14115e-05
-0.000141038
0.000176119
-0.000240158
6.5159e-05
0.000115721
-0.000101179
-3.35878e-05
0.000154931
-0.000101258
-0.000191961
0.000214282
-0.000241769
3.14683e-05
0.000191765
0.000155559
8.4232e-05
0.00017684
-8.33661e-05
0.000206846
-4.35027e-05
8.08244e-05
4.72494e-05
-0.000128045
-2.51045e-05
5.87632e-05
4.7325e-06
-0.000189377
0.000185134
-0.000184453
-2.75717e-05
3.51582e-05
0.000243844
-6.054e-05
-0.000181856
9.28788e-05
-2.3237e-05
-6.05043e-05
0.000274491
-7.86613e-05
9.65193e-05
-0.000147426
5.09838e-05
4.39078e-05
-0.000127847
-1.10095e-05
7.60117e-05
-6.33496e-05
-0.000197199
2.22833e-05
-0.000238864
6.35058e-05
0.000134422
1.79543e-05
-7.03431e-05
-4.0169e-06
0.000160926
3.78222e-05
4.0302e-05
-8.53909e-06
1.36083e-05
-4.40277e-06
-6.98348e-06
0.000169528
-0.000128653
0.000153541
-0.000140001
6.09161e-05
4.33757e-05
-0.000104281
2.80016e-05
5.48299e-06
-3.283e-05
-2.97088e-05
6.58607e-05
-7.52276e-05
-4.9527e-05
-4.21121e-05
9.52894e-05
0.000176627
-0.000251068
3.39684e-05
1.41256e-06
0.000217526
-8.99259e-05
4.40007e-05
-0.000207609
0.000157043
5.99915e-05
-1.12567e-06
-3.54015e-06
6.7899e-05
0.000219762
-0.000137832
0.000259157
-0.000120361
-4.52838e-05
-0.000143389
-0.000234772
0.000200457
3.54536e-05
0.000163529
-5.74079e-05
-0.000108076
-1.89624e-05
0.000127632
5.70357e-05
2.4465e-05
3.18432e-06
-2.38392e-05
-4.19434e-05
7.24844e-05
4.32087e-05
-0.000182879
0.000140833
-9.56086e-06
3.26765e-06
-0.000206712
0.000211996
-0.000143268
2.39963e-05
0.000263486
-4.17323e-05
-0.000219597
0.00026949
-6.04871e-05
-0.000207259
0.000217067
-0.000226126
-0.000172671
0.000261146
8.1986e-05
-6.4458e-05
7.42131e-06
5.15615e-06
-8.49008e-06
9.39547e-06
-1.24697e-05
5.38824e-06
0.00027539
-5.65254e-05
-0.000133984
0.00011477
-2.03398e-05
-0.000180939
0.000205478
0.000157903
-5.20581e-05
6.49275e-06
3.5068e-05
3.91647e-05
-3.11157e-05
0.000115027
0.000309239
-0.000202561
-0.000106224
5.14316e-05
0.000122552
-9.0271e-05
1.77233e-05
0.000104535
-4.36089e-05
-4.73727e-06
4.53702e-05
-3.93985e-05
8.58419e-05
8.66215e-06
-9.37313e-05
-1.15601e-05
0.00019079
-0.00017901
0.000297042
-5.03958e-05
-0.000245552
-0.000205732
0.000236618
0.00017242
0.000257022
-0.00021061
-5.9233e-05
0.000154741
-9.54672e-05
0.000122759
0.000186906
2.11574e-08
-2.11227e-06
4.10803e-05
-4.46005e-05
-3.56198e-06
0.000222094
0.000201687
-0.000272728
7.2416e-05
4.0258e-05
0.000121362
9.94788e-05
9.14325e-06
4.16283e-05
-4.88929e-05
3.94176e-05
0.000226123
4.30963e-05
0.000220198
0.000161499
-0.000102848
-5.85407e-05
-7.28038e-05
0.000196636
-0.000121465
0.000139862
2.2035e-05
-0.000159748
0.000165528
-0.000203095
3.86717e-05
-0.000135293
0.000154919
-0.000104761
9.35198e-05
1.23807e-05
-1.79445e-05
9.84448e-05
-0.000130268
3.18687e-05
8.33583e-05
-0.000124498
4.1182e-05
3.31651e-05
6.93329e-05
-4.94083e-05
5.24927e-05
-5.3922e-05
7.58983e-06
1.33872e-05
5.76309e-05
-7.02482e-05
0.000144723
-0.000193025
0.000214514
-4.31555e-05
-0.000167358
0.000153953
2.45016e-05
3.26383e-06
-2.43239e-05
-0.000145993
7.90227e-05
-6.32948e-05
9.42802e-05
-6.25256e-05
-2.84069e-05
0.000217081
-3.76942e-05
-0.000173655
-0.000168916
6.38532e-05
0.000154291
4.45441e-05
-0.000116919
7.6682e-05
-0.000152993
-4.76178e-05
0.000204765
-0.000242316
0.000117814
0.000124523
1.4346e-05
-1.83843e-05
0.000236494
6.80357e-05
2.944e-05
-1.54199e-05
-7.53638e-05
9.16921e-05
8.3008e-05
-5.63233e-05
-2.45454e-05
-2.30109e-05
0.00017687
-0.000153524
-4.64937e-05
-7.79425e-05
3.84553e-05
0.000184105
0.000170697
-9.08123e-05
-0.000121924
-5.81596e-05
0.000180289
-0.000111633
2.371e-05
8.79349e-05
0.000181122
-8.52644e-05
-9.57728e-05
-1.10076e-05
-0.000135864
0.000153288
8.52133e-05
0.000212719
-2.82674e-05
-0.000144461
0.000176321
5.55481e-05
7.62321e-05
-0.000127446
0.000122728
1.51793e-05
-0.000130766
-0.000160914
-3.86058e-05
0.000200023
-1.90554e-05
0.000220133
-4.2361e-05
0.000168526
7.17783e-05
0.000119934
-0.000191326
0.000108853
5.47275e-05
0.000161589
-4.31036e-05
-0.000289381
8.71584e-05
0.000202714
-0.000222934
-4.40166e-05
0.000268133
3.77326e-05
-4.39569e-05
5.75014e-05
-0.000248107
0.000202327
-0.000229969
2.83643e-05
1.0942e-05
-1.59498e-05
7.96704e-06
1.15228e-05
5.94723e-07
5.16908e-05
6.4314e-05
-9.34367e-05
-0.000129628
8.36991e-05
0.000116048
9.71604e-05
-0.00012443
3.15538e-05
-8.18407e-05
0.000129351
-4.74745e-05
5.56471e-05
5.19071e-05
-0.000201782
0.000202028
1.91463e-05
-0.00022061
-9.06105e-05
-0.00010622
0.000197385
0.000242789
-0.000161268
2.07822e-05
-1.65529e-05
-6.94214e-05
0.000110287
0.000128873
-0.000238294
0.000202335
0.000243404
-5.80472e-05
-0.000116326
6.96089e-05