/*--------------------------------*- C++ -*----------------------------------*\
| =========                 |                                                 |
| \\      /  F ield         | OpenFOAM: The Open Source CFD Toolbox           |
|  \\    /   O peration     | Version:  v2012                                 |
|   \\  /    A nd           | Website:  www.openfoam.com                      |
|    \\/     M anipulation  |                                                 |
\*---------------------------------------------------------------------------*/
FoamFile
{
    version     2.0;
    format      ascii;
    class       volScalarField;
    location    "500";
    object      omega;
}
// * * * * * * * * * * * * * * * * * * * * * * * * * * * * * * * * * * * * * //

dimensions      [0 0 -1 0 0 0 0];


internalField   nonuniform List<scalar> 
18355
(
0.162484
0.0204317
0.230126
0.0210109
0.0343943
0.686079
0.0215398
0.0346389
0.0219731
0.404841
0.0251766
0.105486
0.113635
0.0970925
0.0210776
0.0201961
0.0210073
0.0236949
0.139647
0.0226876
0.157794
0.0219261
0.0204584
0.681257
0.0204689
0.0220257
0.0215802
0.0210177
0.0221578
0.0258013
0.416363
0.0460078
0.020344
0.0200629
0.0211361
0.0222285
0.0268746
0.0222973
0.0262356
0.0218375
0.022164
0.025718
0.0200821
0.0204176
0.020428
0.274879
0.0209939
0.0209825
0.334972
0.0212721
0.0208043
0.267013
0.0213314
0.101542
0.0212872
0.0227137
0.0211465
0.530647
0.0221147
3.7207
0.0200733
0.0700863
0.101054
0.0213847
0.0574531
0.0206074
0.0237718
0.0269716
0.0200157
0.645424
0.0209389
0.0212872
0.0380443
0.0244964
0.125603
0.0200352
0.592955
0.0200452
0.0209098
0.179499
0.0237144
0.398772
0.020026
0.0247845
0.0475001
0.0216641
0.0222716
0.0382847
0.0208748
0.0383721
0.163799
0.130783
0.416683
0.0212632
0.715664
0.0217161
0.0208595
0.0213944
0.0615777
0.0218483
0.0450058
0.020879
0.0212134
0.0195613
0.0239556
0.0202064
0.0569371
0.724233
0.0318507
0.0201507
0.020762
0.0213966
0.0312431
0.0245019
0.472915
0.0271986
0.0208554
0.337285
0.0228822
0.0235636
0.651001
0.230764
0.169622
0.0436668
0.364076
0.315839
0.0215783
0.0210406
0.170686
0.0216733
0.0208635
0.281533
0.0212674
0.0637612
0.0806317
0.0208665
0.142713
0.672456
0.0211923
0.143408
0.025102
0.0358238
0.0209549
0.296242
0.0808607
0.021655
4.0274
0.0196085
0.0309068
0.298721
0.0210106
0.0234971
0.0213365
0.0286144
0.020093
0.0205787
0.0210543
0.0216534
0.0209619
0.020675
0.0239881
0.0212735
0.020159
0.0346776
0.0248233
0.362513
4.02136
0.180028
1.42669
0.0250763
0.021295
0.0601497
0.0215394
0.293584
0.0212011
0.0221262
0.0213166
0.0195247
0.0226367
0.0286654
0.0217183
0.339363
0.0218033
0.0210413
0.257628
0.0211944
0.0217408
0.0375389
0.0213491
0.0216731
0.285593
0.0617238
0.0204607
0.0200439
0.0214098
0.808967
0.0205238
0.202278
0.0204411
0.0941582
0.021159
0.0230588
0.026365
0.0216378
0.17805
0.0215904
1.45386
0.0210366
0.0202958
0.0213015
0.02156
0.469547
0.0230224
0.0219356
0.0196196
0.277202
0.0287127
0.0250071
0.0216085
0.0209954
0.030871
0.0199699
0.0362577
0.0278193
0.0615392
0.0236436
0.0199893
0.668097
0.129971
0.034227
0.0213598
0.023982
0.370016
0.0199814
0.0341131
0.0375739
0.0219835
0.29317
0.0244869
0.0219616
0.0204579
0.0225387
0.0215056
0.0327923
0.0215865
0.0212929
0.0209853
0.473602
0.633756
0.0210118
0.0218261
0.639737
0.141705
0.0270025
0.0195304
0.026172
0.0244743
0.0217478
0.0235586
0.0208094
0.296543
0.0508768
0.0567848
0.0284462
0.0269177
0.0367444
0.0378786
0.0665674
0.0208022
0.0212945
0.0218562
0.0201484
0.0230579
0.0251367
0.020978
0.0215694
0.0289815
0.0208553
0.0693988
0.616115
0.0273658
0.0215872
0.0278832
0.0201377
0.038672
0.0215373
0.0296477
0.0218784
0.0289101
0.277133
0.0203216
0.0399459
0.0227688
0.0233309
0.0369688
0.0213046
0.0200296
0.0655945
0.0215644
0.0393846
0.0268929
1.21282
0.0389169
0.0577252
0.0232945
0.030123
0.0212087
0.0237726
0.0280345
0.0398806
0.30314
3.1345
0.0210794
0.0242708
0.08996
0.0285736
0.0210747
0.0209738
0.0209973
0.0426583
2.85755
3.3251
0.31222
0.0286865
0.0247834
0.40669
0.0196079
0.0215676
0.0247291
0.0213724
0.0343494
0.0210291
0.447966
0.0202259
0.434222
0.0213539
0.0217959
0.023616
0.125118
0.194119
0.0329263
0.265279
0.0219014
0.0208839
0.0213633
0.0238925
0.419069
0.0209063
0.0214788
0.262885
0.0218431
0.0209082
0.145637
0.0234963
0.0209916
0.021249
0.030617
0.0222716
0.0304414
0.020055
0.0214705
0.0218091
2.92747
0.245488
0.0200323
0.0209401
0.0305074
0.0210053
0.0214493
0.428304
0.228188
0.0306461
0.0213462
0.0220335
0.113959
0.0219816
0.0289552
0.0238159
0.020264
0.0302337
0.031567
0.0217292
0.0213496
0.0237282
0.0214638
0.0231548
0.0214048
0.0654134
0.0215425
0.023273
0.0208469
0.0209988
0.0229593
0.0221178
0.0543922
3.69856
0.29876
0.0227358
0.140693
0.0269422
0.0213728
0.0209697
0.0379469
0.0213487
0.0315834
0.0214208
0.0259724
0.392013
0.193451
0.185708
0.0610994
0.01957
2.33997
0.0218508
0.0209677
0.166352
0.0213182
0.0269771
0.0201746
0.0627175
0.0213131
0.0584553
0.435541
0.0532491
0.0212809
0.0204618
0.0549587
0.0228914
0.0209997
0.390847
0.0439048
0.0209616
0.0384555
0.0543905
0.0204572
0.0220626
0.031479
0.279531
0.0373991
0.0218417
0.021255
0.0342945
0.0212883
0.0201893
0.0211295
0.115885
3.75192
0.0202486
0.0220703
0.0214979
0.134526
0.0310732
0.0200294
0.0269262
0.0365194
0.0214845
1.00067
0.0698472
0.0218415
0.0214464
0.03625
0.141803
0.707963
0.0202262
0.391805
0.0212377
0.020241
0.0413412
0.0230393
0.0689054
0.0382006
0.0234198
0.0249691
0.0219367
0.139754
0.0230382
0.0274199
0.021894
0.0202027
0.0217378
0.0202172
0.0687112
3.68405
0.0622137
0.0240522
0.0215925
0.0218907
0.0214963
0.0233208
0.021577
0.020025
0.0213876
0.0386494
0.0204655
0.0215659
2.51867
0.214581
0.0917801
0.021651
0.021919
0.0316485
0.0218898
0.30628
0.934067
0.023904
0.0248254
0.0251356
0.0222804
0.0237151
4.31399
0.0324719
0.0219854
0.340455
0.0215854
0.191617
2.27673
0.0248535
0.0220097
4.25276
0.0209846
0.0561532
0.0465503
0.324013
0.0230321
0.0217142
0.0214712
0.27375
0.568649
0.285119
0.3771
0.0231535
0.0214607
0.0247972
0.0213012
0.0236781
0.145141
0.320902
3.62163
1.23822
0.0278904
0.0427561
0.0325331
0.0210029
0.0211486
0.029285
0.0242344
0.0215531
0.0212986
0.479976
0.0208446
1.19881
0.0252311
0.0648965
0.1232
0.0211549
0.024491
0.180206
0.0213826
3.41739
0.0212777
0.116366
0.0325465
0.0219551
0.0320609
0.06626
0.0622463
0.0218213
0.0200011
0.0330551
0.0250465
0.0650046
0.0213752
0.0709943
0.0208367
0.65642
0.0212382
0.021181
0.204405
0.0274568
0.0343254
0.0210889
0.0251903
0.0229685
0.446433
3.32765
0.0242969
0.0305395
0.0211776
0.0277893
0.021756
0.0241168
3.7069
0.0204201
0.316412
0.0215501
0.021262
0.0243516
0.304192
0.0224671
0.0715333
0.0220071
0.0332197
0.44389
0.0196155
0.0209932
0.265982
0.0376024
2.55297
0.0398057
0.0217004
0.0213044
0.0209832
0.0245069
0.0219899
0.0200802
0.100123
0.29936
0.0211637
0.391959
0.291172
0.0244182
0.245394
0.020205
0.146724
0.231891
0.0196802
0.444487
0.0362352
2.81834
0.457478
0.021069
0.0209732
0.0215235
0.294207
0.0417865
0.0213063
0.021962
0.0992861
0.0218032
0.0371181
0.0210769
0.0346882
2.80262
0.195019
0.0349363
0.182498
0.0394486
0.540965
0.0248404
0.0209184
0.0265683
0.452983
0.0291331
0.0400939
0.0212922
0.126486
0.0215154
0.0217427
2.97116
0.0216603
0.0271595
0.0316242
0.0666999
0.0214722
0.021292
0.0242684
0.0256239
0.019965
0.0215706
0.0337356
0.109157
0.0232306
0.0212765
0.0412752
0.44552
0.02124
0.132462
0.60367
0.021476
0.54405
0.0200008
0.208954
0.0213534
0.0203297
0.206194
0.0232103
0.333753
0.0230977
0.0212939
0.810015
0.0213501
0.0201318
0.0215259
0.0209282
0.0276772
0.0363167
0.189866
0.0220098
3.48866
0.0227179
0.100929
0.586993
0.02209
0.0213558
0.0252034
0.0201319
0.0904069
0.0211916
0.0201083
0.0201263
0.0212923
0.0213726
0.448377
0.0243515
0.0417145
0.022709
0.0242695
0.0236745
0.0254041
0.0478351
0.0204673
0.0684699
0.043931
0.0200015
0.385432
2.77204
0.0207773
0.039619
0.0211932
0.368742
0.0330821
0.0196621
0.0333278
0.026033
0.0719308
0.0208502
0.0241188
0.12801
0.0762768
0.194286
0.0213688
0.318037
0.063245
0.140694
0.0213746
0.0228722
0.0210183
0.0214898
0.0210713
0.0210575
0.0204146
0.0531959
0.0252393
0.0208826
0.0200544
0.0205753
0.0217965
0.0720941
0.0618975
0.0203156
0.0256143
0.0215327
0.0215611
0.0214438
0.0209497
0.0339577
0.0200499
0.0208857
0.02172
0.0216239
0.0232317
0.0214854
0.378797
0.128702
0.0244086
0.0208678
0.135224
0.0200982
0.020058
0.0214648
0.186558
0.0239734
0.0213678
0.0201511
0.0204507
0.0248115
0.0200074
0.0256766
0.021182
0.0217622
0.0210702
0.022798
0.104897
0.02091
0.0218742
0.0211827
0.162234
0.334472
0.0265456
0.0219878
0.0271137
0.0256153
0.0330565
4.31222
0.0216845
0.259316
0.0218929
1.23458
0.0221974
0.020276
0.0200553
0.700511
0.0200173
0.0267537
0.0301534
0.165304
0.0409391
0.0222844
0.0210083
0.0209193
0.0212264
0.0277846
0.0846303
0.432343
0.0414308
0.0215306
0.0200035
0.0225086
0.0210716
0.0208202
0.0218076
0.0417556
0.0244349
0.424566
0.021525
0.0214403
0.0341622
0.0213069
0.14237
0.041614
0.0405516
0.121073
3.72458
0.0276691
0.0209902
0.0200118
0.0216872
0.0212814
0.633013
0.0414713
0.0879668
0.0203014
0.0216036
0.0229279
0.02084
4.31788
0.0360001
0.0200538
0.0200517
0.0209415
0.0210792
0.0209159
0.0212458
0.26215
0.0199635
0.0220495
0.0203085
0.0205855
0.0210807
0.0214709
0.0255012
0.0205802
0.0271536
0.0201431
0.229598
0.250125
0.0236241
0.445681
0.0226723
0.0219039
0.0565471
0.345053
0.0214298
0.0207324
0.0204721
0.0250258
0.0219066
0.0276175
0.213407
0.0215065
0.0220239
0.0214829
1.23111
0.263841
0.0220305
0.0205783
0.0244375
0.0388314
0.0211435
0.0618137
0.0208363
0.0199611
0.0245191
0.072182
0.41711
0.354531
0.267077
0.0200395
0.0515742
0.06846
0.0250944
0.0212203
0.06898
0.0238756
0.157306
0.0773868
0.0207705
0.0200488
0.0214804
0.0220756
0.0200521
0.41279
0.385357
0.0201059
0.0215305
0.0219239
0.0346894
0.0212616
0.0208723
0.0288337
0.0219022
0.0209267
0.336101
0.0763041
0.0682255
0.0212679
0.0202343
0.0201216
0.0215028
0.0254259
0.0301487
0.0208752
0.0206179
0.0226299
0.30992
0.0204606
0.0214178
0.0612595
0.020916
0.0207618
0.0213527
0.774189
0.0202154
0.0214487
0.0204637
0.0231131
0.0202253
0.0259547
0.12908
0.0214184
0.142389
0.0289935
0.216223
0.0500528
0.0209927
0.0257017
0.0208491
0.0207464
0.0210042
0.486418
0.339623
0.0360524
0.0269974
0.109592
0.0583757
0.0221226
0.0804906
0.0461593
0.0236215
0.0200611
0.542019
0.0222476
0.0207146
0.0203838
1.30834
0.296628
0.202961
0.020715
0.0754772
0.260103
0.0264045
0.0293947
0.0240132
0.0229019
0.0322595
0.354959
0.0227645
0.0222885
0.0246051
2.14581
0.376466
0.0212516
0.0213733
0.0210463
3.64888
0.0234904
0.0218904
0.0918151
0.025956
0.0358676
0.0239819
0.29131
0.0206783
1.22219
0.0221088
0.0200657
0.02099
0.0200112
0.0200761
0.0208958
0.0217239
0.681018
0.020519
1.21935
0.02649
0.0216831
0.0207288
0.0737367
0.0212045
0.0215096
0.023038
0.494389
0.0419476
0.0232167
0.0215449
3.568
0.0206736
0.0410589
0.0215276
0.207092
0.0300869
0.286797
0.0264936
0.0209994
0.034834
0.462087
0.0346693
0.0205554
0.0213455
0.0344511
3.70553
0.0195723
0.044508
0.020914
0.0253127
0.0208655
0.0200363
0.0219573
0.0221624
0.0200243
0.0361666
0.0360945
0.0245387
0.115679
0.643635
0.0222395
0.296382
0.0201011
0.0904204
2.97316
0.160805
0.0200149
0.021986
0.0215056
0.911277
0.0210865
0.0208308
0.0732248
0.0215123
0.0215331
0.0221538
0.0220606
0.0212493
2.39801
0.366153
0.0532364
0.0207563
0.0214603
0.110335
0.020096
0.0386648
0.0215921
0.021491
0.0220101
0.0239319
0.257533
0.0208186
0.0214797
0.450636
0.0215774
0.0218074
0.0345944
3.69593
0.346483
0.021432
0.0210587
3.47631
0.461607
0.162778
0.0206166
0.0319836
0.196077
0.0203487
0.0339151
0.0227685
0.479064
0.0236094
0.0215426
0.0222551
0.0200166
3.49657
0.0214702
0.0204545
0.32127
0.029134
0.282566
0.0199802
0.0226938
0.0200451
0.0196481
0.0201993
0.0222514
0.0216199
0.0218372
0.0200232
0.0217614
0.0437853
0.0259513
0.0235945
0.020621
0.0234346
0.0210788
0.276133
0.0216298
0.022134
0.0215093
0.0200579
0.0218004
0.0216913
0.0211589
0.0212333
0.0208326
0.0202085
0.694773
0.0593631
0.0212235
3.5401
0.0333043
0.0216648
0.0217097
0.0222122
0.381859
0.0218653
0.0200901
0.0200976
0.0200224
0.184192
0.0212958
0.0202823
0.151254
0.0200092
0.0197414
0.0243284
0.0255406
0.0765445
0.123404
2.33929
0.0200792
0.840066
0.0255279
0.0212292
0.0204229
0.0243772
0.0212855
0.029875
0.0515464
0.0229864
0.021875
2.99979
0.05241
0.315612
0.653751
0.311996
0.0836093
0.0204935
0.875115
0.499639
0.0201257
0.829387
0.0207119
0.0223925
0.124097
0.020725
0.0366938
0.0252367
0.0228938
0.0218666
0.0469916
0.0213806
1.20915
0.0212392
0.0201688
0.312753
0.0197725
0.0222616
0.0218608
0.0474812
0.0212038
0.0214435
0.0230301
0.303351
0.0211879
0.0212902
0.0202125
0.0239184
0.0211811
0.0223931
0.313775
0.0209706
0.0258487
0.0217256
0.0236909
0.0231852
0.0209425
0.0219338
0.0812024
0.0215615
0.0217906
0.0245173
0.30153
0.0221759
0.0211274
0.0214251
0.0258741
0.0762987
0.0223593
0.0210245
0.0209649
0.0205599
0.0196316
0.020053
0.0251765
0.032757
0.0487691
0.0215447
0.108741
0.0206499
0.0209218
3.80614
0.0405206
0.0199736
0.0659776
0.0210635
0.0210226
0.47964
0.021802
0.0410043
0.0197348
0.136725
0.0205081
0.020009
0.0202482
0.273896
0.086606
0.0215352
0.122059
0.0202293
0.02091
0.0207408
0.128605
0.0212267
0.0206563
0.0217957
0.0227466
0.0212744
0.0214534
0.0208037
0.0218162
0.0215247
0.0208469
0.0233586
0.0199876
0.0817651
0.0553486
0.0201971
0.0601421
0.0259486
0.0209365
0.0206636
0.0218671
0.0207468
0.0285124
0.0247229
0.0398941
0.0404328
0.0216641
0.0610068
0.136698
0.0212209
0.021692
0.0699717
0.023376
0.296911
0.020214
0.0212271
0.0224107
0.0215903
0.0213881
0.0256406
0.0209516
0.0222295
0.0212552
0.0234712
0.0205607
0.105005
0.0213478
0.0240896
0.0290259
0.0209923
0.48516
0.165937
0.023
0.0253174
0.0287083
0.0198693
0.0523909
0.0214364
0.0332811
0.0749338
0.308337
0.0370768
0.0225379
0.0264946
0.0210282
0.0306574
0.0205151
3.59348
0.0301182
0.0214439
0.0208113
0.0586482
0.0376321
0.021225
0.0212217
2.23684
0.0216119
0.0206466
0.687164
0.0465726
0.0201151
0.119742
0.0203053
0.0434427
0.0485244
0.0212681
0.021436
0.0230634
0.173891
0.0208018
0.0262495
0.02144
0.0212768
0.020827
0.104729
0.0218229
0.0213391
0.0211474
0.109087
0.0264752
0.0208154
0.0197702
0.0879587
0.0211515
0.020456
0.114059
4.07832
0.0219317
0.411567
0.0230992
0.042253
0.0221575
0.0502808
0.493442
0.0223881
0.0207456
0.0203125
0.0243504
0.0212031
0.0970501
0.0774065
0.0205281
0.0221773
0.0203307
0.0200232
2.86483
0.0212107
0.0224369
0.0228087
0.0564422
0.0214552
0.021705
0.0247341
0.498322
0.0214726
0.0213511
0.0204406
0.0205648
0.0240951
0.0405991
0.0215717
0.021127
0.021262
0.0210743
0.0203197
2.2564
0.0217057
0.0210584
0.0211007
0.051018
0.0203703
0.0204585
0.0346625
0.0209236
0.0348112
0.0212655
0.0214377
0.301497
3.90126
0.582685
0.0429613
0.0234392
0.0217381
3.04763
0.0206454
0.0247359
0.019985
0.648017
0.0195463
0.0242726
0.0214637
0.515359
0.0399032
0.0284717
3.25117
0.0223455
0.0546255
0.0217375
0.0219484
2.89275
0.0329959
0.0211763
0.0202969
0.0237071
0.0268334
0.0214252
0.0212682
0.0206414
0.0199313
0.174175
0.347212
0.0217344
0.0223482
3.87146
0.0792968
0.0232532
0.0225113
0.0231371
0.0242871
0.0212152
0.0222746
0.0676466
0.0209111
0.0203201
0.0215218
0.0730167
0.148367
0.0255414
0.0215526
0.0215719
0.0267352
0.0213497
0.0256237
0.0418843
0.0370523
0.0230023
0.0503682
0.020117
0.0212286
0.0218498
0.0199733
0.0215513
0.0208551
0.0494361
0.0210116
0.438051
0.0213493
0.020721
0.0204853
0.0274663
0.0223649
0.0399527
0.0554197
0.0201389
2.98424
0.0224647
0.0204948
0.0197983
0.325664
0.543764
0.0198175
0.0208219
0.0207281
0.0222935
0.168223
0.0368912
0.0218771
0.0220925
0.126123
3.27959
0.0219888
0.0212156
2.62311
0.0238558
0.292564
0.0230907
0.0211508
0.0523426
0.0249038
3.89578
0.0261712
0.0569393
0.0203965
0.02091
0.0216718
0.0215928
0.0238206
0.0216977
0.0215584
0.0207925
0.0218165
0.0215452
0.0217271
0.0214051
0.0229458
0.0219012
0.0213449
0.0208359
0.0320386
0.023292
0.0209202
0.021515
0.163424
0.0213266
0.0222329
0.0218651
0.098342
0.02046
0.0356818
0.0228579
0.0201793
0.0211002
3.36975
0.0495502
0.0220058
0.0222358
0.0234393
0.0382757
0.0208702
0.0276968
0.0387104
0.0210586
0.0835868
0.020829
0.0213343
0.0213747
0.0218503
0.0283752
0.0538661
3.58978
0.0249613
0.0201863
0.0215017
0.0211054
0.0539862
0.0219659
0.190494
0.0208193
0.0213766
0.021359
0.0609421
0.0209488
0.0215829
0.0212704
0.121203
0.0204682
2.36887
0.0204238
0.0240488
0.0213039
0.0287196
0.0209952
0.0236284
0.0566244
0.0373283
0.0201965
0.0334554
0.0215121
0.0213494
2.74176
0.0601188
0.0203159
0.0212483
0.0236219
0.0202447
0.0211474
0.0218754
0.0217084
0.0233208
0.0454001
0.0221933
0.0262694
0.0398477
0.0216444
0.0210008
0.0211767
0.0226526
0.0288968
0.0214303
3.74375
0.0206719
3.13604
0.0347867
0.0201343
0.0207139
0.0206944
0.0580423
0.0215361
0.0232543
0.0214866
0.0208546
0.0693022
0.022999
0.0257908
0.0216633
0.0214756
0.0227425
0.0212312
0.0229908
0.0213686
0.0225283
0.0220043
0.0218362
0.738386
0.026702
0.274037
0.0210017
0.0239953
0.0223472
0.256217
0.0577022
0.782656
0.0223933
0.0199529
0.0377069
0.0208695
0.52644
0.02216
0.0364387
0.0223694
3.38012
2.56743
0.0233988
0.0257551
0.0207525
0.0205312
0.0219014
0.0199001
0.0217436
0.0230811
0.0207855
0.0252219
0.0419018
0.220981
0.020893
0.0307782
0.0201017
0.0211886
0.02113
0.0783137
0.0216979
0.0552659
0.0216786
0.0211205
2.7513
0.0208776
0.0231006
0.0210481
0.0231862
0.764278
0.0261492
2.1267
0.0214822
0.0567895
0.0230488
0.02112
0.0211923
0.0279442
0.0238696
0.0212776
0.0227838
0.0213276
0.728048
0.0207337
3.46471
0.549575
0.0602125
0.0252471
0.0940351
0.0260687
0.0198991
0.499177
0.0211872
1.20333
0.021844
0.0227278
0.285844
0.279329
0.0270787
1.14336
0.0213848
0.17602
0.0196096
0.297805
0.020157
0.0233001
0.0369188
0.0214979
0.0207237
0.0219912
0.021281
0.0319295
0.254494
0.0342786
0.265679
0.0206914
0.140828
0.0214432
0.0217203
0.021013
0.0211312
0.535769
0.0216314
0.0205619
0.0342852
0.0218161
0.326022
0.0688107
0.0212689
0.0410873
0.0341127
0.0208578
0.0214443
0.023866
0.0203127
0.0480551
0.0289982
0.0224894
0.022725
0.0204473
0.0212331
0.0498607
0.0219438
0.0214549
0.0222975
0.0199182
0.0201172
0.658173
0.0271794
3.57937
0.0269176
0.0459839
0.0256197
0.0211177
0.0260337
0.0204102
0.0209846
0.211012
0.0238486
0.0231609
0.0443878
0.0217444
0.310414
1.49775
0.0211172
0.024437
0.0278317
2.56446
0.0203034
0.0202855
0.0216417
0.0261582
0.254922
0.0248059
0.0238192
0.0217887
0.0211702
0.019924
0.263626
0.023312
0.023251
0.514732
0.0216339
0.0228176
0.0241358
0.0214965
0.021237
0.0210499
0.0469731
0.0870807
0.0218326
0.0229669
0.343685
0.0209194
0.0219462
0.0233931
0.0216001
0.356435
0.417505
0.356396
0.0738845
0.142551
0.0225579
0.0208431
0.0503646
0.0224888
0.0267143
0.0210602
0.0201878
0.331702
0.0925529
0.0210807
0.0207578
0.0280998
0.0397303
0.0231068
0.0199922
2.57816
0.0229747
0.034273
0.0201406
0.0257732
0.0195869
0.0226438
0.0256857
0.02117
3.63677
0.0219969
0.0356206
0.0830001
0.198024
0.0750561
0.0211945
0.0523177
0.0244186
0.0243159
0.022191
0.0227914
0.0214548
0.0225548
0.316899
0.0228647
0.320055
0.0207899
0.208571
0.0202866
0.0219193
2.18129
0.0245954
0.203772
0.0233508
0.0221272
3.79102
2.69025
0.0208643
2.90717
0.0359628
0.0207229
0.0198381
0.197415
2.65534
0.0204631
0.0202713
0.0212465
0.0202198
3.1001
0.411918
0.0195241
0.0197858
0.0208612
0.271685
0.0420637
0.276628
0.0201931
3.17361
0.0215822
0.0582205
2.19093
0.0240143
0.0205753
0.0205858
0.279089
0.0203321
0.0210606
0.0201905
0.0245751
0.0231184
3.67381
0.0252493
0.0217979
0.0211933
0.0261875
0.196983
0.0421005
0.0211196
0.0208699
0.140967
0.043935
0.0221295
0.56357
0.0267275
0.022938
2.94996
0.0227862
0.0260736
0.0218354
0.323666
0.0214209
0.0218355
0.221424
0.0271854
0.0210515
0.0213525
0.019594
0.0351556
0.0900184
0.0209769
0.0202647
0.0220544
0.0574723
0.0229818
0.0201998
0.0212431
0.0207286
0.0221324
0.0382685
0.0215095
0.0209836
2.79015
0.0211102
0.380975
0.0305893
0.0331253
0.0231569
0.0221743
0.0214827
0.96827
0.0743581
0.0581733
3.66163
0.0298923
0.0208734
3.38121
0.0202148
0.0623484
3.20406
0.0221961
0.0211279
0.0238321
0.0608062
0.0211963
0.021046
2.30954
0.0212653
0.022087
0.020851
0.0216622
0.0203311
0.0652019
0.111257
0.0201265
0.0210263
0.781828
0.0211879
0.0201221
0.0210005
0.0208376
0.175458
0.0228857
0.0230687
0.0222454
0.0219964
0.0202529
0.0329324
0.0901822
0.0264012
1.9451
0.0221923
0.0236006
3.65354
0.020886
0.0203659
0.0210979
0.0208377
0.0218377
0.0197483
0.0222677
3.21475
0.0211825
0.0210959
0.0227265
0.02082
0.237816
0.0216873
2.46519
0.190046
0.0246573
0.0290612
0.344097
0.0238337
0.0211839
0.0231019
0.0209514
0.0224669
0.0215132
0.021743
3.32488
0.0202836
0.0213275
0.0396126
0.152318
0.0217139
0.0208415
0.193064
0.0222308
0.0265746
0.0213129
0.0208523
0.0210046
0.609682
0.0214512
0.17334
0.0464657
0.0211377
0.0208325
0.0210843
0.0241672
0.265433
0.0201355
0.0389593
0.0210998
2.34017
0.266022
0.022185
0.169605
0.0215549
0.0230653
0.0237522
1.33998
0.022774
0.0249621
0.0258264
0.419967
0.0216589
0.0346964
0.0214536
0.0422594
0.133096
0.163554
0.0209808
0.0287413
0.194529
0.203307
0.0228408
0.0239541
0.273013
0.26722
0.0208236
0.0481008
0.0211986
0.0241134
0.0214634
0.0223499
0.022263
1.577
0.0216246
0.021817
0.04932
0.423434
0.60205
0.106993
0.646375
0.0207889
0.224938
0.0530414
0.0210398
0.0211206
0.387677
0.0233638
0.0214919
0.0212444
0.0403448
0.0206985
0.0212569
4.07354
0.02147
0.0217614
0.0210425
0.0214036
0.0226013
0.0204507
2.92365
0.0239257
0.0228222
0.0205026
0.0287501
1.14946
0.0209207
0.0217618
0.270054
0.181933
0.0213558
0.0241642
0.0207098
0.0209347
0.0374096
0.16257
0.0209356
0.0210852
0.271695
0.052205
0.628078
0.0275311
0.0225144
0.418981
0.0207376
0.0247385
0.0240573
0.020556
2.12087
0.721432
0.035794
0.0290218
1.26969
0.0198418
0.0197798
0.0225757
0.0346164
0.617462
0.0203269
0.0367967
0.919232
3.84459
0.0216421
0.0225443
0.927502
0.0209941
0.0239856
0.404058
0.020963
0.0211918
0.0204883
0.315376
0.0208329
0.0238772
0.0218752
0.0333077
0.0273775
0.412568
0.0211902
0.0211343
0.0272481
0.0217075
0.0229663
0.0221858
0.086077
0.104517
0.0209943
0.0213404
3.45934
3.72322
0.128313
0.0207565
0.0213591
0.0226145
0.0215352
0.0212729
0.0214329
0.0217603
0.0218738
0.0206693
0.0207688
0.0529592
0.0232435
0.0275922
0.266836
0.0552261
0.043636
0.0244139
0.045752
0.103755
0.0292551
0.0229814
0.0260943
0.0210736
0.349567
0.0200241
0.0202732
0.0206736
0.511934
0.020918
0.503482
0.0217463
0.0201289
0.0459057
0.0211771
0.0211459
0.0211704
0.028841
0.158652
0.0216341
0.020555
0.0227223
1.2211
0.0431335
0.316905
0.0210593
0.0313072
0.0215358
0.0215414
0.0201761
0.0207243
0.0213586
0.0217238
0.222871
0.0223902
0.0225162
0.104474
0.784926
0.114296
0.0208612
0.0812133
0.0310744
0.694907
0.020547
0.0209954
0.0225008
0.0553965
0.0197903
0.0213549
0.0207161
0.020334
0.111669
0.0221254
0.0601993
0.0216836
0.0197737
0.0241452
0.0214327
0.552559
0.0210853
0.024938
0.0217891
0.0266941
0.0220713
0.0520906
0.324592
0.021231
0.0423913
4.12429
0.0211193
0.0215339
0.0380154
0.0197218
2.85608
0.0273638
0.0209521
0.0497879
0.0200057
0.0218027
0.0214829
0.0207332
0.0202069
0.0221822
0.0206653
0.0207148
0.02153
0.0217765
0.0428837
0.0200616
0.11499
0.0205309
0.0208956
0.027152
0.0438102
0.0220551
0.0197184
0.0211951
0.0222863
0.0417528
1.50535
0.0314358
0.021949
0.0219776
0.0207588
0.0289985
0.0209315
0.0222874
3.55874
0.285808
0.0418269
0.021079
0.0217362
0.0221778
0.019726
0.0399217
0.0201173
0.0975571
0.0220034
0.162413
0.0262903
2.98355
0.0215822
0.0572245
2.51053
0.348863
0.114089
0.0253104
0.346792
3.65368
0.0218858
0.0323493
3.7051
0.0204501
0.0207481
0.0213383
0.0242197
0.0650358
0.0214643
0.024063
0.662197
0.0195281
0.0214659
2.77431
0.27741
0.0873831
0.149927
0.536956
0.0221761
0.060702
0.0232619
0.0236042
0.589628
0.0223444
3.45116
0.0343339
0.0237013
0.0214049
0.0224899
0.0227145
0.0205138
2.48261
0.0197851
0.0212449
0.0213104
0.181343
3.67502
0.0322586
0.0212566
0.0222704
0.0204637
3.08237
0.0209552
0.0220275
0.0235895
0.0507398
0.0206964
0.0628824
2.15561
0.29644
0.0217906
0.218386
0.0205639
0.445916
0.0198219
0.0278833
0.0213476
0.0561417
0.0255997
0.723232
0.10073
0.0227913
0.022854
0.0279139
0.0238252
0.0211036
0.020705
0.0244155
0.0217743
0.271481
0.0196534
0.0210672
0.0214321
0.0214029
0.252924
0.0207424
0.0201321
0.0215056
0.275951
0.0266016
0.0479944
0.0227566
0.0225693
0.0683288
0.0205994
0.0213129
0.062632
0.039703
0.0201343
0.0368526
0.0229796
0.28481
0.0212476
0.0403584
0.0213126
0.0212139
0.0202263
0.0201743
0.0211594
0.0210734
1.44084
0.056212
0.0215544
0.0213202
0.0211324
0.022135
0.0264624
3.31958
0.0215241
0.0307229
0.0238106
0.30052
0.0216212
0.0413807
0.0212963
0.0212553
0.0279865
0.021218
0.0214464
0.0206488
0.0199909
3.72277
0.021384
0.0207338
0.0462361
0.428293
0.0357438
0.021246
0.0198941
0.0240602
2.42696
0.0233042
0.021712
0.0215604
1.44161
0.0218746
0.0211216
0.869891
0.0207653
0.0248984
0.0226672
0.0215503
0.0201469
0.0475119
0.025656
0.0206222
0.0212825
0.0214134
0.0208953
0.428525
0.0226046
0.0213972
0.019765
0.0220034
0.0201787
0.0212395
0.0640101
0.0206397
0.0238743
0.0234473
0.602952
0.0197228
0.0225191
0.047357
0.0266433
0.153209
0.020974
0.0215356
0.153552
0.021403
0.0201277
0.326348
0.0214133
2.54761
1.0247
0.0567363
1.66532
0.0214175
0.0275178
0.688362
0.0212404
0.0199917
0.550917
0.41102
0.0208932
0.0201351
0.0227597
0.0207187
0.238222
0.0545722
1.10336
0.0214895
0.0216615
0.0212181
0.0211033
3.21853
0.47472
3.65014
0.0246245
0.0223751
2.53333
0.021341
0.0208924
0.0227208
0.0209272
0.0218616
0.151507
0.0197198
0.494066
0.0219503
0.0220635
0.021395
0.0261708
0.0207411
3.10457
0.0206777
0.0211988
0.0226569
0.0201599
3.29164
0.0246168
0.0250432
2.24892
0.199646
0.032942
3.26418
0.0213011
2.86188
0.0265879
0.020766
0.0223973
0.0216481
0.415974
3.16474
0.0214953
0.0234487
0.426213
0.0210721
0.020567
0.0235874
2.61282
0.551533
0.0215125
0.0221159
0.0819968
0.023136
0.0575773
0.0568485
0.0615907
0.0201457
2.86689
0.0215761
0.293097
0.0540163
0.0332564
3.90623
3.39614
3.61133
0.0203635
0.848663
0.0199405
0.0197737
0.331534
0.0197552
0.0222204
0.0211434
0.0581701
0.0206076
0.116939
0.0201631
0.028372
0.504776
0.025978
0.0249292
0.418814
0.0218244
0.020239
0.0218742
0.0766967
0.0237734
0.117717
0.0214179
0.02604
0.0217499
0.148566
0.021423
0.0215949
0.0213692
0.432861
0.0303613
0.0215043
3.42915
0.0210817
0.0214077
0.0241785
1.33001
0.0213954
3.97463
0.0215143
2.91871
0.0214276
0.0390407
0.020988
0.0457339
0.021426
0.0571241
0.024705
0.0371853
0.0208931
0.0217068
3.31338
0.0203651
0.0240942
0.0274646
0.0200591
0.0641509
2.96544
0.108152
0.0221606
0.0197303
0.0211849
0.10236
0.0235225
3.72837
0.024062
0.261194
0.0212854
0.372502
0.0205339
0.0325223
0.103207
0.0227583
0.141931
0.0233352
3.00494
0.160107
0.0207783
0.729923
0.0222721
0.0211426
0.0229035
0.072094
0.0232915
0.158444
0.0240327
0.096377
0.0393023
0.0551927
0.0430065
0.49625
0.0214657
0.0215274
3.29031
3.13383
0.0339069
0.0235099
2.60986
1.58309
0.021268
0.0214412
0.02121
1.10737
0.0207115
0.0209412
0.0321557
0.049321
0.0198199
0.0206122
0.0222374
4.0278
0.0205025
0.0239137
0.0198189
0.106549
0.0217691
0.970933
0.0218462
0.0206473
0.0213389
0.0202657
0.578849
0.0343587
1.48903
0.0213279
0.0284537
0.0202034
0.228072
0.135026
0.0445828
0.0207988
0.0533154
0.0208845
0.0215948
3.44789
0.0210796
0.0242298
0.428814
0.0201478
0.0963229
0.0207535
0.0198286
0.0215533
0.135211
0.0207946
3.99332
0.0968051
0.0372998
0.301668
0.0207101
0.104138
0.0552363
3.62087
0.0352083
2.81146
0.184265
0.0215765
0.0357012
0.0217154
0.0292753
0.020928
0.0227707
0.021204
0.0258147
0.0878413
4.0695
0.0238362
0.0230929
0.655823
0.402482
0.0212059
0.0214585
0.0992036
0.0345397
0.0204261
0.439
0.0360039
0.0221613
0.0203726
0.0224393
0.849901
0.0216259
0.0508139
0.0195925
0.375523
3.67141
0.0864163
0.0222021
0.0214815
0.0211537
0.0212857
0.021455
0.0247272
0.022309
0.0215737
3.68723
0.0208349
0.0215283
0.0210637
0.304998
3.79181
0.0212483
0.0213621
2.41266
0.0204819
4.16872
0.0215226
0.0213692
0.0197183
0.0216565
0.0205931
0.022734
0.0202515
0.142628
0.0218616
0.39008
0.021354
0.176744
0.0214685
0.0245202
0.202905
0.194456
0.0212347
0.0214468
0.0330633
0.0197198
0.506281
0.40465
0.022479
0.0207575
0.0212346
0.0203249
0.0527755
0.0770829
0.0415665
0.427032
0.0398292
0.0214348
0.0211839
0.0205268
0.555048
3.15761
0.0219821
0.0211329
0.0208174
0.0271552
0.0213797
3.03586
2.40448
0.0306492
0.0202665
2.68176
0.109834
0.0214443
0.356565
0.021663
0.442314
0.0319864
0.0321327
0.026461
1.20642
0.0318321
3.71304
0.0208584
0.0205234
0.0206978
0.0203086
0.0215118
0.0282673
0.0205123
0.0256211
0.0199977
0.262429
0.0210559
0.0296557
2.26642
0.0221155
0.0198016
0.0293816
4.08037
0.0212551
0.0206019
0.185604
4.05604
2.24493
0.0215992
0.0197277
3.08045
0.10966
0.0239763
0.0471091
0.0213908
0.0325192
0.0215022
0.111757
0.0206634
0.0209506
0.41753
0.0204195
0.0226783
3.46411
0.0543076
0.020637
0.0215429
0.0207501
2.23616
0.0243316
0.026103
0.0214264
0.0207843
0.106405
0.0294496
0.0211578
0.0212953
0.0197263
0.0227037
0.0206432
0.0226776
0.199243
2.88993
0.0231266
0.0377085
0.0208061
0.0455037
0.0212182
0.0215318
0.0207675
0.259144
0.0415613
0.0200218
0.0226338
0.906101
0.0355386
3.74472
0.0451924
0.0212973
0.0207775
0.0273738
0.0224775
3.89935
0.020504
3.59192
3.98664
0.0209005
0.0361522
3.46992
0.0253771
0.314449
0.0949786
0.0216042
3.9624
0.0256414
0.0204351
3.51035
3.02668
0.0839004
0.0217208
3.2625
2.57001
0.0213418
0.172105
3.3085
0.0213806
0.0207096
0.0218347
0.0200194
0.0215522
0.507271
4.14797
0.0214253
0.0236527
2.63844
3.38646
0.0330691
0.0674981
0.0210728
0.0281195
3.97042
0.0560585
3.08437
3.87642
0.0212556
0.0214409
0.0210509
0.0220076
3.93443
3.22619
0.021001
0.0341534
3.50306
0.0909805
0.0544367
0.0211339
0.0214851
0.02196
0.452057
0.0221794
0.0342389
0.030699
0.02204
0.415128
0.0234694
0.0548215
0.126093
3.75463
0.0212169
0.021203
0.0225193
0.0341587
0.225839
2.01262
0.0218884
2.15729
4.00834
0.0331376
0.0309955
3.6004
0.297972
0.302938
2.97444
0.0213305
0.304598
1.11676
0.0289009
0.0276679
0.112732
0.0224129
0.102391
0.0233129
0.0210134
0.019978
0.0215719