/*--------------------------------*- C++ -*----------------------------------*\
| =========                 |                                                 |
| \\      /  F ield         | OpenFOAM: The Open Source CFD Toolbox           |
|  \\    /   O peration     | Version:  v2012                                 |
|   \\  /    A nd           | Website:  www.openfoam.com                      |
|    \\/     M anipulation  |                                                 |
\*---------------------------------------------------------------------------*/
FoamFile
{
    version     2.0;
    format      ascii;
    class       volScalarField;
    location    "800";
    object      omega_0;
}
// * * * * * * * * * * * * * * * * * * * * * * * * * * * * * * * * * * * * * //

dimensions      [0 0 -1 0 0 0 0];


internalField   nonuniform List<scalar> 
18355
(
0.201014
0.0204309
0.186335
0.0210079
0.0327497
0.782456
0.021572
0.0371284
0.022013
0.168597
0.0250247
0.104421
0.111499
0.893455
0.0210819
0.0202019
0.0210042
0.0241066
0.142748
0.0226408
1.69211
0.0218688
0.0204601
0.781572
0.0204709
0.0220033
0.0215922
0.0210136
0.0222025
0.0256387
0.844795
0.0420118
0.0203497
0.0200652
0.0210632
0.0220443
0.0271095
0.0221038
0.0259854
0.0218708
0.0221499
0.025437
0.0200836
0.0204169
0.0204277
0.292468
0.0209847
0.0209741
0.851663
0.0212145
0.0208272
1.51104
0.0212697
0.11899
0.0212802
0.0226396
0.0211069
1.52291
0.0220528
4.37584
0.0200752
0.0798769
0.116034
0.0214264
0.0566764
0.0206236
0.0233838
0.0271542
0.0200225
0.0807349
0.0209169
0.0212801
0.0341551
0.0251675
0.477307
0.020041
1.50427
0.0200504
0.0208906
0.482264
0.0233273
0.48369
0.0200325
0.0241358
0.0473073
0.0217553
0.0222633
0.037904
0.0208763
0.0378996
0.86591
1.67967
0.479207
0.0212066
0.442905
0.0217152
0.0208598
0.0213758
0.074265
0.0218028
0.0445547
0.020862
0.0211611
0.0195569
0.0235044
0.0202135
0.0557719
0.54792
0.0319103
0.0201529
0.0207272
0.0214178
0.0289249
0.0239083
0.562604
0.0258514
0.0208409
0.477787
0.022661
0.0232247
0.0647273
0.18827
0.772342
0.044225
0.481607
0.475722
0.0215988
0.0210372
0.212682
0.0216426
0.020864
1.26406
0.0212643
0.0783258
0.0910737
0.0208671
0.144203
0.0672327
0.0211917
1.70423
0.0248916
0.102604
0.0209487
1.86723
0.0922455
0.0216459
4.28789
0.0195975
0.0287147
0.284393
0.0210069
0.0231692
0.0213572
0.0267904
0.0200943
0.0205829
0.0210506
0.0217468
0.020955
0.0206822
0.0243579
0.0212705
0.0201615
0.0328403
0.0254225
0.174512
4.35288
0.28906
0.889007
0.0248635
0.0212823
0.0732017
0.0216204
0.853946
0.0211503
0.0221103
0.0213385
0.01952
0.0226016
0.0270707
0.0218016
0.13628
0.0217612
0.0210369
0.0991568
0.0211451
0.0218122
0.036546
0.0213467
0.0216703
0.320352
0.0747155
0.0204615
0.0200605
0.0214088
0.635151
0.0205377
0.270471
0.0204406
0.87422
0.0211127
0.023372
0.0262626
0.0217184
0.248641
0.0215691
0.973297
0.0210319
0.0202986
0.0212617
0.0215443
0.3405
0.0223775
0.0219829
0.0196074
0.858218
0.0270785
0.0250819
0.0215839
0.0209855
0.0307332
0.0199799
0.0359144
0.0241975
0.0378949
0.0232813
0.0200019
0.0598058
0.16508
0.0311578
0.0214158
0.0235357
0.231119
0.0199926
0.0319857
0.0358448
0.0219626
0.379184
0.0246282
0.0219894
0.0204575
0.0225028
0.0216321
0.0300584
0.0215641
0.0212864
0.0209778
0.26833
0.657752
0.0209937
0.0217024
0.555975
0.13973
0.0248372
0.0195257
0.0487348
0.0246016
0.0217367
0.0232024
0.0208102
0.284795
0.132456
0.0681841
0.0293279
0.0266874
0.0340325
0.0400838
0.081294
0.0208028
0.0212875
0.0218176
0.0201498
0.0233717
0.0252363
0.0209741
0.0215485
0.0306644
0.0208556
0.0757572
0.404117
0.0288251
0.0215705
0.0263781
0.0201388
0.0388507
0.0215213
0.0277805
0.02187
0.0272377
0.286165
0.0203269
0.0447262
0.0225706
0.0234203
0.0453212
0.0213124
0.0200453
0.0713231
0.0215456
0.113003
0.0272085
0.956
0.0399641
0.0693945
0.0236914
0.0317259
0.0211595
0.0238309
0.0288658
0.0445997
0.127996
0.254033
0.0210636
0.0238204
0.104464
0.0268515
0.0210595
0.0209659
0.020991
0.0472495
0.257339
0.572469
0.115519
0.0301545
0.0246327
0.304392
0.0195976
0.0215482
0.0245701
0.0213606
0.0313221
0.0209386
0.56841
0.0202346
0.486427
0.0213498
0.0218229
0.0240822
0.122507
1.06954
0.0302368
0.0915369
0.0218707
0.0208854
0.0213516
0.0242084
0.243511
0.0209074
0.0214714
0.189501
0.0218096
0.0209099
0.14038
0.0236909
0.0209846
0.0212986
0.0285138
0.0222464
0.0282991
0.0200605
0.0214624
0.0217676
4.30339
0.162075
0.0200366
0.0209349
0.0295733
0.0209989
0.0215173
0.334207
0.180995
0.0323327
0.021335
0.0220087
0.112203
0.021914
0.054991
0.0238819
0.0202698
0.0283214
0.032416
0.0216944
0.021343
0.0241335
0.0214655
0.0231215
0.0214036
0.0587492
0.0216424
0.0230036
0.0208687
0.0209916
0.0232189
0.022062
0.0637557
3.84095
0.213669
0.0227592
0.139778
0.0289738
0.0213684
0.0208904
0.0419285
0.0213461
0.0333332
0.0214537
0.026915
0.356403
0.0420029
1.29495
0.0726782
0.0195649
1.82208
0.0218042
0.0209636
1.64227
0.0213147
0.0267296
0.0202689
0.0640184
0.0213094
0.0710123
0.441459
0.0632699
0.0212808
0.0204599
0.0658713
0.0226686
0.0210306
0.175229
0.0412967
0.0209579
0.0425831
0.0642863
0.0204556
0.022094
0.029044
1.25797
0.0392824
0.0218095
0.021206
0.0371198
0.0212887
0.0201919
0.0211722
0.0410371
3.85065
0.0202535
0.022151
0.021491
0.130547
0.0325504
0.0200454
0.0267782
0.0365959
0.0214789
0.796048
0.0799479
0.0217956
0.0214491
0.0378741
0.135084
1.0688
0.0202288
0.38782
0.0212358
0.020244
0.0426403
0.0227863
0.0634374
0.0343651
0.0231229
0.0257628
0.0218791
0.137755
0.0227907
0.0281267
0.0218497
0.0202041
0.02172
0.0202187
0.0799576
3.72352
0.0628679
0.0245681
0.0216106
0.0218481
0.0214887
0.0237074
0.0215265
0.0200226
0.0213863
0.0391303
0.0204646
0.0215171
0.331312
0.316815
0.1082
0.0216225
0.0220209
0.0292592
0.0218377
0.283812
0.205738
0.0234891
0.0241423
0.0259846
0.0221904
0.0234811
4.64317
0.0309741
0.021841
0.369632
0.0215792
0.566201
1.56214
0.0250652
0.0220451
4.61584
0.0209803
0.0676993
0.0423704
0.317973
0.0227871
0.0216983
0.0214643
0.414138
1.08969
0.310892
0.431441
0.0235141
0.0214538
0.0241543
0.0212946
0.0233032
1.71026
0.857401
3.69309
0.59128
0.0275951
0.0387013
0.0299102
0.0209933
0.0211494
0.0287097
0.0243069
0.0215368
0.0212926
0.474408
0.0208457
0.547381
0.0247511
0.0779922
0.11986
0.0211557
0.0238944
0.224684
0.021381
3.64397
0.0212718
1.18479
0.0309717
0.0219442
0.029651
0.0809513
0.0736248
0.0219085
0.0200113
0.0354363
0.0252883
0.0784535
0.0213741
0.0798167
0.0208378
0.201031
0.0211519
0.0211547
0.177632
0.0251423
0.0335589
0.0210426
0.024404
0.0230721
0.49542
0.730447
0.0241803
0.0311925
0.0211483
0.0262969
0.0217233
0.0239974
4.08991
0.0204201
0.197216
0.0215416
0.0212543
0.0240538
0.277718
0.0224163
0.0777502
0.0220249
0.035516
0.443647
0.0196045
0.0209855
0.265333
0.0366447
0.386148
0.0360262
0.0217188
0.0212987
0.0209585
0.0251486
0.0219678
0.0201316
0.122863
0.834642
0.02114
0.720272
0.946932
0.0243482
0.197487
0.0202075
0.186584
0.365304
0.0196657
0.443513
0.0395734
2.31837
0.433997
0.0211073
0.0209548
0.0216015
0.127004
0.0464614
0.0213032
0.0219468
0.119867
0.0217611
0.0409782
0.0210473
0.0374514
2.66793
0.40152
0.0709762
0.372164
0.0383644
1.53245
0.0241534
0.0209155
0.0254049
0.332759
0.0266099
0.0438821
0.0212915
0.153978
0.0215082
0.021758
0.297429
0.0217275
0.0257946
0.0312919
0.0711132
0.0214736
0.0212884
0.023935
0.0247139
0.0199717
0.0216604
0.0309189
0.126544
0.0229809
0.0212949
0.0413898
0.443248
0.0212358
0.353659
0.719058
0.0214705
1.69922
0.0200061
0.186011
0.0213466
0.020314
0.178524
0.0229389
1.46545
0.0228712
0.0212904
1.77842
0.0213432
0.0201331
0.0215199
0.0209244
0.026173
0.0359655
1.57165
0.0220892
3.6793
0.0228062
0.371328
0.518999
0.0221146
0.0213442
0.0244148
0.0201277
0.100233
0.0211911
0.0201096
0.0201399
0.0212909
0.0213705
0.219509
0.0248659
0.0471618
0.022681
0.0238266
0.0239694
0.0240814
0.201087
0.0204677
0.0793004
0.0442492
0.0200154
0.862156
2.59262
0.0207806
0.348789
0.0211617
0.251995
0.0354608
0.0196481
0.0357089
0.0250122
0.354298
0.020853
0.024219
0.424489
0.0845508
0.124261
0.0213665
0.0651601
0.070039
0.177632
0.0213734
0.022792
0.021048
0.0214754
0.0210577
0.0209734
0.0204143
0.367826
0.025568
0.0208913
0.0200571
0.0205434
0.0217729
0.0790456
0.0692899
0.0203188
0.024705
0.0215415
0.0215748
0.021512
0.0209437
0.0338233
0.0200536
0.0208847
0.0217897
0.0215968
0.0232338
0.0216528
0.338422
1.63721
0.024267
0.0208678
0.128754
0.0200996
0.0200613
0.0216424
0.091703
0.0243604
0.0214219
0.0201626
0.0204509
0.0254534
0.0200146
0.0266676
0.0211819
0.0217253
0.0210583
0.0227169
0.67552
0.0209078
0.0218258
0.0211824
0.153155
0.287525
0.0269364
0.0219669
0.0288138
0.0251177
0.0324897
4.63426
0.0217709
0.332824
0.021842
0.187603
0.0220276
0.0202792
0.0200485
0.316388
0.0200176
0.0272363
0.0287716
0.153336
0.0368218
0.0223035
0.0210187
0.0208406
0.021222
0.0286302
0.101212
0.56595
0.0460788
0.0215307
0.0200121
0.0225016
0.0210616
0.0208064
0.0217726
0.0471445
0.0249106
0.38377
0.0215254
0.0214401
0.0312174
0.0213007
0.134434
0.046315
0.040021
0.126585
4.35137
0.0280068
0.0209809
0.0200203
0.0216753
0.0212787
0.101919
0.0463312
0.098536
0.0203158
0.0215786
0.0229573
0.0208241
4.64327
0.0728961
0.0200584
0.0200526
0.020976
0.0210662
0.020917
0.0212962
0.225664
0.019963
0.0218931
0.0203247
0.0205859
0.0210658
0.0214572
0.0264996
0.0205808
0.0251816
0.0201567
0.161289
0.197854
0.024093
0.0474832
0.02268
0.0218861
0.0666925
0.0569815
0.021424
0.0207447
0.0204743
0.0248071
0.0219852
0.0280208
0.0744166
0.0214944
0.0218928
0.0214844
0.147454
0.0805725
0.0221109
0.0205947
0.0246243
0.0400416
0.0211433
0.0738214
0.0208367
0.0199695
0.0243764
0.75306
0.43626
0.190697
0.230441
0.0200544
0.0428264
0.0722875
0.0253029
0.0212139
0.0735521
0.0234624
0.160829
0.786934
0.0207346
0.0200633
0.0214818
0.0219527
0.0200684
0.0452789
0.210108
0.0201068
0.0215185
0.0218952
0.0374415
0.0212551
0.0208911
0.0301841
0.0218498
0.0209269
0.159959
0.0929566
0.0830723
0.0212655
0.020244
0.0201226
0.0213634
0.0241166
0.0276003
0.0208764
0.0206272
0.022703
0.0681069
0.0204628
0.0214183
0.0719264
0.0209178
0.0207608
0.021347
0.628066
0.0202225
0.0214488
0.0204661
0.0227206
0.0202348
0.0256109
0.12928
0.0214189
0.144223
0.0290291
0.194148
0.0587465
0.020988
0.0259659
0.0208471
0.0207447
0.0210007
0.199357
0.371006
0.034972
0.0272604
0.533118
0.0691244
0.0220724
0.0972224
0.0452676
0.0235395
0.0200699
0.44605
0.0222337
0.0207426
0.0203952
0.245569
0.931285
1.75726
0.0207113
0.0857233
0.357996
0.0246235
0.0302428
0.0236931
0.0229461
0.0343585
0.221266
0.0229663
0.0222755
0.0244643
2.59356
0.21882
0.021243
0.0213496
0.0210795
2.00253
0.0239132
0.021926
0.519589
0.0256227
0.0326331
0.0236715
0.28387
0.0206745
0.107643
0.0220463
0.0200578
0.0209807
0.0200218
0.0200693
0.0208974
0.0216911
0.206223
0.0205266
0.0982579
0.0266994
0.0216756
0.020751
0.0905177
0.0211978
0.0215142
0.0230201
0.833446
0.0419777
0.0229396
0.0215252
0.467432
0.0206698
0.0425674
0.0215087
1.79363
0.0306755
0.270504
0.0255517
0.0210319
0.074829
1.57655
0.0581372
0.0205577
0.0213396
0.037204
4.09542
0.0195633
0.0500979
0.0206259
0.026132
0.0208668
0.020053
0.0219349
0.022088
0.020026
0.0328541
0.0326309
0.0240263
0.119151
0.330923
0.0221489
0.0644942
0.020101
0.0994558
2.0717
0.148539
0.0200297
0.021994
0.0214868
1.0475
0.0210371
0.0208382
0.0847594
0.0214976
0.0215159
0.022136
0.0220003
0.0212443
1.08559
0.356115
0.0638795
0.0207552
0.0214517
0.146696
0.0200901
0.173771
0.0216106
0.0214731
0.0219922
0.0235424
0.245625
0.0205722
0.021476
0.273455
0.0215685
0.0217719
0.0371714
2.5731
0.237719
0.0214301
0.0210384
3.86417
0.268298
0.219452
0.0207943
0.0339771
0.177299
0.0203574
0.0326291
0.022962
0.128586
0.0232767
0.0215308
0.0221426
0.0200179
0.835539
0.0214665
0.020486
0.224474
0.0293058
0.0708744
0.0199814
0.0225099
0.0200385
0.0196325
0.0202008
0.0222739
0.0216181
0.021817
0.0200222
0.021726
0.0491775
0.02693
0.0235998
0.0206117
0.0237627
0.0210676
0.289843
0.0216525
0.022022
0.0215907
0.0200522
0.021774
0.0212237
0.0211618
0.0212339
0.0208199
0.0202096
0.608488
0.284812
0.021232
1.00816
0.0356149
0.021756
0.0216963
0.022137
0.551758
0.0218574
0.0200932
0.0200986
0.020038
0.258718
0.0212899
0.0202877
0.158447
0.0200193
0.0197208
0.0232394
0.0237929
0.0845472
0.127714
1.48399
0.0200432
0.519076
0.0252568
0.0212287
0.0204228
0.0241181
0.0212783
0.0288165
0.0613167
0.0232494
0.0219579
0.298828
0.0521605
0.361072
0.0694826
0.169618
0.0881919
0.0205064
0.201218
0.736574
0.020127
0.480935
0.0207079
0.0223078
0.121471
0.0207402
0.0591966
0.0244463
0.0226726
0.0218382
0.0415085
0.0213763
0.0859282
0.0212349
0.0201799
0.555898
0.0197416
0.0216832
0.0218467
0.0551864
0.0212034
0.0214441
0.0227792
0.0437986
0.0211906
0.0212817
0.0202243
0.0236513
0.0211809
0.0223046
0.104928
0.0209669
0.0262049
0.0216916
0.0233006
0.0226675
0.0209387
0.021917
0.0916706
0.0215742
0.0217055
0.0239924
0.285699
0.0220275
0.0211282
0.021426
0.0260551
0.0879554
0.0224045
0.021022
0.0209614
0.020562
0.0196179
0.020051
0.0249184
0.0307637
0.0573902
0.0215246
0.908524
0.0206599
0.0216883
4.26013
0.0443129
0.0199824
0.0797711
0.0220374
0.0210199
0.263282
0.021824
0.0419558
0.01974
0.138021
0.0205509
0.0200171
0.0202604
0.0795357
0.0915274
0.0215424
0.183757
0.0202392
0.0209331
0.0207391
0.122882
0.0212243
0.0206527
0.0224391
0.0225525
0.0212685
0.0214398
0.0207898
0.0218182
0.0215157
0.0208465
0.0236911
0.0199871
0.848356
0.0665599
0.0202053
0.515883
0.0260747
0.0209319
0.0206735
0.0219478
0.0207637
0.0293067
0.0248821
0.0482492
0.0510561
0.0216812
0.0692665
0.138592
0.0212209
0.0216805
0.0842824
0.0234583
0.285594
0.0202222
0.0212025
0.0224006
0.0219375
0.020918
0.0259362
0.0209477
0.021601
0.0212497
0.0233163
0.0205704
0.103807
0.0213439
0.0241823
0.0284139
0.0209948
0.106888
0.429642
0.0231533
0.0262376
0.0277299
0.0198732
0.0477396
0.0214235
0.0344021
0.411325
0.93865
0.0353441
0.0218398
0.026691
0.0210146
0.0295088
0.0205293
0.577682
0.0287556
0.0214607
0.0207969
0.339313
0.0339828
0.0212221
0.0212223
1.79355
0.0216149
0.0206435
0.650891
0.0526663
0.0201166
0.161155
0.0203108
0.045279
0.05585
0.0212618
0.021436
0.0229169
1.62234
0.0207916
0.0257702
0.0214407
0.0212703
0.0208281
0.80956
0.0218113
0.0213951
0.0211077
0.137144
0.0260687
0.0208049
0.0197778
0.0991214
0.0211522
0.0204573
0.765947
4.31037
0.0219159
0.298282
0.0229532
0.0470414
0.0221908
0.0594355
0.15804
0.0217088
0.0209593
0.020325
0.024046
0.0212033
0.419769
0.0655765
0.0205306
0.022026
0.020336
0.0200198
0.281245
0.0212104
0.0224768
0.0226472
0.0465715
0.0214558
0.0216727
0.0248956
0.247062
0.0214739
0.0214026
0.0204475
0.0205706
0.0238375
0.0441677
0.0215846
0.021126
0.0212522
0.0211116
0.0203344
2.31924
0.0217209
0.0210293
0.0210981
0.0594054
0.0203743
0.0204597
0.0360247
0.0209379
0.0386384
0.0212537
0.0214354
0.0833017
4.49052
1.19749
0.0398522
0.0232819
0.0217026
0.710502
0.0206505
0.0249333
0.0199855
0.679951
0.0195422
0.0239279
0.0214644
0.731415
0.035952
0.0325231
0.495882
0.0221821
0.0508918
0.0217112
0.0219397
0.323495
0.0352563
0.0211761
0.0203031
0.0234824
0.0270661
0.0214261
0.0212536
0.0206442
0.0199348
0.156959
0.370462
0.0217009
0.02219
3.49545
0.838346
0.0232422
0.0220783
0.0230113
0.0243853
0.0212143
0.0221616
0.03357
0.0209082
0.020326
0.0215024
0.0367991
0.17801
0.025273
0.0215311
0.0215213
0.0257939
0.0213414
0.02474
0.0412613
0.0356262
0.0231552
0.314013
0.020118
0.0212254
0.0218393
0.0199851
0.0215528
0.0208559
0.0511479
0.0210082
0.496071
0.0213675
0.0207202
0.0204897
0.0263669
0.0222969
0.0441485
0.0586101
0.0201621
0.26025
0.0239452
0.0205052
0.0198092
0.16291
0.187089
0.0198303
0.0208088
0.0207231
0.0221205
0.155409
0.0414865
0.0224533
0.0219615
0.12713
0.963695
0.0219228
0.0212146
0.221776
0.0237587
0.139479
0.023277
0.021151
0.0623833
0.0257929
4.50891
0.0266921
0.484928
0.0204023
0.0209336
0.0217622
0.0215802
0.0236207
0.0216652
0.0215526
0.0207928
0.0218201
0.0216238
0.0212268
0.0214422
0.0227552
0.0218688
0.0213374
0.0208352
0.0339247
0.0240045
0.0209167
0.0215156
0.153782
0.0213964
0.0217513
0.0218257
0.662749
0.0204612
0.0390256
0.022664
0.0201835
0.0210717
0.320554
0.0340112
0.0219476
0.0216778
0.0231548
0.0389473
0.0208696
0.0263748
0.0347928
0.0210573
0.100988
0.020813
0.0213311
0.0209356
0.0217658
0.0292387
0.0523245
3.92735
0.0251442
0.0201928
0.0214981
0.0211069
0.0437438
0.0219351
0.193298
0.0208204
0.0213717
0.0213562
0.0729696
0.0209773
0.021573
0.0212606
0.127355
0.0204695
1.06811
0.0204279
0.0240076
0.0212724
0.0297328
0.0209915
0.0235528
0.489564
0.0665636
0.0202011
0.0364981
0.0215126
0.0213658
0.376956
0.486251
0.0203209
0.0212437
0.0235586
0.0202564
0.0211116
0.0218651
0.0216982
0.0234829
0.05188
0.0221044
0.0264464
0.0590134
0.0215958
0.0209978
0.0211765
0.0228257
0.0288584
0.0214279
4.16452
0.0206623
0.871175
0.0371677
0.0201334
0.0207264
0.0207064
0.0577328
0.0214742
0.0235897
0.0214873
0.0207207
0.511505
0.0228413
0.0261988
0.0216564
0.0214579
0.0227303
0.0212313
0.0228439
0.0213671
0.0223693
0.021953
0.0218323
0.597105
0.0245989
0.430474
0.0209971
0.0231014
0.0221953
0.300469
0.0672803
0.581533
0.0225409
0.0199548
0.0413952
0.0208955
0.443316
0.0221439
0.0395103
0.0222974
0.359256
0.363521
0.0230885
0.0261445
0.0207474
0.0205336
0.0218912
0.0199058
0.0217243
0.0228657
0.0207854
0.0246095
0.0531375
0.297029
0.0208945
0.0812197
0.0201026
0.021188
0.0211313
0.0873762
0.0215997
0.327372
0.0216783
0.0210891
0.236235
0.0208771
0.0233687
0.0210368
0.0231342
0.600632
0.0255255
1.74975
0.0213651
0.0654563
0.022913
0.0211207
0.0211667
0.0273249
0.0237785
0.0212707
0.022752
0.0213241
0.596051
0.0207322
4.09337
0.190208
0.0722362
0.024456
0.125344
0.0239958
0.0199007
1.56193
0.0211865
0.0874772
0.0218028
0.0225711
0.273646
0.276512
0.0259402
1.06006
0.0213843
0.328672
0.0196029
1.31804
0.0201588
0.0220984
0.0407837
0.0215084
0.0207178
0.0219253
0.0212649
0.0337759
0.115904
0.0335314
0.153855
0.0206402
0.75332
0.0214437
0.0217273
0.0210427
0.0210968
0.473025
0.0216331
0.0205672
0.0366208
0.021808
0.377051
0.0748805
0.0212628
0.045986
0.035546
0.020857
0.0214359
0.0234954
0.0203271
0.0546571
0.0281041
0.022645
0.022945
0.0204464
0.0211614
0.0576671
0.0219395
0.0214468
0.022273
0.0198774
0.0201324
0.362505
0.0258498
3.6812
0.0270953
0.0517736
0.0266026
0.0211163
0.0254776
0.0204391
0.0209801
0.0554206
0.0237651
0.0226509
0.049385
0.0218427
0.407406
1.03091
0.0210825
0.0237375
0.0257028
2.68627
0.0203165
0.0203231
0.021598
0.0260321
0.115185
0.024688
0.0237442
0.0217942
0.0211703
0.019929
0.176074
0.0236768
0.0221453
0.415878
0.0216317
0.022668
0.0238509
0.0214912
0.0212329
0.0210155
0.052043
0.103136
0.0218315
0.0232214
0.746653
0.0209298
0.0219324
0.0230959
0.0215898
0.362576
0.343616
0.295451
0.0814732
0.658394
0.0224092
0.0208436
0.0858653
0.0221704
0.0255699
0.0210396
0.0201934
0.386514
0.0656775
0.0210804
0.0207499
0.0266958
0.153522
0.0232214
0.0199608
0.72973
0.0228771
0.0371088
0.0201422
0.0268169
0.0195772
0.022815
0.0248774
0.0211701
2.72097
0.0219682
0.0372972
0.0969399
0.310239
0.0870811
0.0211938
0.0611733
0.0244783
0.0240665
0.0221512
0.0218696
0.0214376
0.0223941
0.0864773
0.0228538
0.0724668
0.0207811
0.192037
0.0202933
0.0218954
0.222008
0.0246177
0.18747
0.0227051
0.0221096
4.21968
0.566023
0.0208642
0.238999
0.0324784
0.0207208
0.0198451
1.79489
0.231051
0.0204805
0.0202853
0.0212043
0.0202283
0.534933
1.09062
0.0195198
0.0197952
0.0208612
0.225388
0.0464633
0.28447
0.0201942
0.927547
0.0215966
0.0628355
1.25765
0.0239515
0.0205957
0.020617
0.280416
0.0203432
0.0210589
0.0202025
0.0248684
0.0230214
3.27915
0.0246703
0.0217618
0.021192
0.026605
0.176945
0.0374037
0.0211203
0.0208872
0.14028
0.0496851
0.0219741
0.246267
0.0269652
0.0227499
0.28527
0.0227502
0.0250358
0.0218208
0.174958
0.0214083
0.0217921
0.247629
0.0277593
0.0210498
0.0213502
0.0195839
0.0348871
0.106885
0.0209685
0.0202775
0.0220683
0.0623221
0.0224124
0.0202047
0.0212385
0.020728
0.0218583
0.0419513
0.021429
0.0209506
0.346875
0.0211082
1.48001
0.0305646
0.0314781
0.0235133
0.0221234
0.0214814
0.204213
0.084792
0.0660714
2.7406
0.0297729
0.0208729
0.276593
0.0202163
0.0701173
0.364534
0.0220192
0.0211288
0.0236196
0.0726662
0.0211962
0.0210087
0.229604
0.0212598
0.0229883
0.0207046
0.0217074
0.0203433
0.0688727
0.110985
0.0201452
0.0210228
0.181166
0.0211882
0.0201485
0.0209962
0.0208229
1.59281
0.0224495
0.0228361
0.0222806
0.021967
0.0202234
0.0348919
0.0911852
0.0265281
0.242922
0.0233407
0.0232498
2.80105
0.0208846
0.0203657
0.021075
0.0208283
0.0217921
0.0197541
0.0221832
0.329529
0.0212114
0.0210939
0.0227046
0.0208039
0.217345
0.0216626
0.676794
0.166233
0.0251581
0.0300123
0.0739304
0.023609
0.0211747
0.0232769
0.0209477
0.0224032
0.0214898
0.0217691
0.267637
0.0202894
0.0213169
0.0434068
0.170889
0.0216893
0.0208419
0.173843
0.0221753
0.02718
0.0213091
0.0208525
0.0209343
1.34554
0.0213989
0.173453
0.0539794
0.0219791
0.0208331
0.021075
0.0244206
0.0618291
0.0201524
0.0350354
0.0210988
0.904148
0.219034
0.0221733
0.156986
0.021548
0.0228406
0.0237805
0.41963
0.0226597
0.0257861
0.0267898
0.20132
0.0216782
0.0342603
0.0214534
0.0460947
0.136426
0.151766
0.0209454
0.0270348
0.325318
0.546841
0.0227706
0.0236706
0.378316
0.38227
0.0208146
0.0530798
0.02119
0.023685
0.0214638
0.0223338
0.0222485
0.210852
0.0216422
0.0218088
0.058385
0.245026
0.0697597
0.116478
0.0617064
0.0207821
0.373604
0.0637006
0.0210302
0.0211213
0.442814
0.0232605
0.0214908
0.0212427
0.0398924
0.020696
0.0212518
4.25016
0.0214523
0.0217254
0.0210406
0.0214033
0.0225462
0.0204794
0.324251
0.0254211
0.023055
0.0205132
0.0272326
1.26082
0.0208925
0.0216522
0.196841
0.164272
0.0213526
0.0241924
0.0207077
0.020931
0.0473032
0.150549
0.0209316
0.0210777
0.281058
0.489515
0.319669
0.025926
0.0221056
0.291248
0.0207536
0.0248366
0.023967
0.020554
0.27457
0.214221
0.0390863
0.0251058
1.25965
0.0198533
0.019789
0.0227169
0.0342253
0.110796
0.0203344
0.0344675
0.572587
3.55502
0.0216368
0.0224877
0.345468
0.0209957
0.023512
0.382629
0.0209559
0.0211912
0.0205001
0.429113
0.0208203
0.0237891
0.0218635
0.0339138
0.0262851
0.344294
0.0211845
0.0211339
0.0286142
0.0217396
0.0225302
0.0221685
0.0980052
0.110026
0.0209903
0.0213343
3.83056
1.97498
0.570612
0.0207559
0.0213573
0.022653
0.0215313
0.0212659
0.0214341
0.0210281
0.0218679
0.0206781
0.0207611
0.0599263
0.0235278
0.0263836
0.472359
0.0665988
0.0495373
0.0240419
0.041589
0.122104
0.0302272
0.0230791
0.0251111
0.0210674
1.05506
0.0200466
0.0202791
0.0206658
0.40917
0.020888
0.353018
0.0217443
0.02013
0.0415795
0.0211711
0.0211464
0.0211629
0.0252525
0.171017
0.0216375
0.0205462
0.022655
0.271148
0.0489462
0.377339
0.0210447
0.0330305
0.0214931
0.0215413
0.020185
0.020722
0.0213566
0.0214326
0.311666
0.0223659
0.0223606
0.114799
0.187524
0.117641
0.0208396
0.0984901
0.0327261
0.209131
0.0205503
0.0209952
0.0221501
0.467479
0.01979
0.0213484
0.0207133
0.0203427
0.116849
0.0221522
0.0647589
0.0211309
0.0197737
0.0249778
0.0214339
0.414889
0.0211409
0.0234919
0.0217825
0.026721
0.0220561
0.0622749
0.386457
0.0212297
0.0375922
4.39483
0.0211201
0.0215184
0.0418102
0.019726
0.255994
0.0280324
0.0209526
0.05853
0.0200196
0.0215109
0.0214489
0.0206947
0.020213
0.0221446
0.0207031
0.0207127
0.021527
0.021774
0.0488011
0.0200906
0.128923
0.0205282
0.020894
0.0277576
0.0486471
0.021982
0.0197237
0.0211939
0.02232
0.0461631
1.08025
0.033056
0.0219075
0.0219582
0.0207526
0.0298384
0.020927
0.0222702
4.05139
0.296389
0.0457664
0.0210776
0.0216922
0.022141
0.0197323
0.0394376
0.0201183
0.12947
0.0219533
0.156135
0.0263244
4.05927
0.0215846
0.0682454
0.384167
0.366262
0.308604
0.0246249
0.371817
1.33055
0.0218609
0.0342964
3.14834
0.0203859
0.0207472
0.0213271
0.0236976
0.0621549
0.0214528
0.0236247
0.0658372
0.0195239
0.0214671
0.962892
1.0297
0.089624
0.333271
0.477146
0.0221224
0.063088
0.0235221
0.0238923
0.0527798
0.022376
3.75738
0.0372958
0.0237398
0.0213618
0.0226315
0.0229307
0.0205568
0.701598
0.0197846
0.0212401
0.0213069
0.400264
3.1361
0.0375491
0.0212619
0.0223883
0.0204888
1.2954
0.0209815
0.021894
0.0233426
0.0556423
0.020694
0.0772078
2.02509
0.0785017
0.0218361
0.0658312
0.0205761
0.791173
0.01982
0.0776672
0.0220403
0.0613008
0.0264217
0.25277
0.117631
0.0226217
0.0226549
0.0265905
0.0234362
0.0211022
0.0207025
0.0244031
0.0217775
0.0531116
0.0196437
0.0210647
0.0214325
0.0214029
0.0500872
0.0207369
0.0201342
0.0214544
0.153641
0.0266283
0.0558355
0.0225701
0.022524
0.084232
0.0206233
0.0213072
0.0731901
0.0440385
0.0201364
0.0345768
0.0228819
0.214067
0.0212434
0.0335924
0.022028
0.0212144
0.020231
0.0201785
0.0211602
0.0210728
1.16015
0.0663682
0.0215416
0.0213166
0.0211292
0.0221565
0.0268541
0.311021
0.0215342
0.0292689
0.0237312
0.253068
0.0216404
0.0455965
0.0212906
0.0212509
0.0266135
0.0212153
0.0214354
0.0206889
0.020033
3.61664
0.0213834
0.020728
0.0444092
0.438975
0.0449982
0.0216718
0.0198719
0.0237068
0.590289
0.0231516
0.0216855
0.0215433
1.20767
0.0218642
0.0210901
0.211257
0.0207589
0.0249197
0.0227031
0.0215317
0.0201685
0.0555324
0.0248675
0.0206326
0.0212749
0.0213647
0.0208932
0.386047
0.0226458
0.0213964
0.0197647
0.0219395
0.0201833
0.0212394
0.0739711
0.0206505
0.0237857
0.0231796
1.59019
0.0197275
0.0223692
0.0550854
0.0267299
0.155217
0.0209942
0.0214885
0.0277476
0.0214031
0.0201496
0.0903436
0.0213996
0.365711
0.0830532
0.0623298
3.24244
0.021417
0.0262772
0.9469
0.0212409
0.0199899
0.729047
0.822001
0.0208914
0.0201362
0.0225713
0.020738
0.189563
0.20112
0.104041
0.0214833
0.0216394
0.0212183
0.0211278
3.50904
0.491848
3.99827
0.0246172
0.022336
0.278637
0.0213305
0.0208906
0.0226408
0.0209236
0.0218476
0.12814
0.0197256
0.268456
0.0218427
0.0219941
0.0213945
0.0265501
0.0207599
2.33903
0.0206887
0.0211983
0.0224977
0.0201633
3.76885
0.0241174
0.0252632
2.87986
0.169149
0.0310531
0.399784
0.0213419
3.46332
0.0269533
0.0207649
0.0222679
0.0217231
0.378113
0.320054
0.0214494
0.0236557
0.515951
0.021064
0.0205731
0.023559
0.419039
0.433124
0.0215149
0.0220764
0.0946015
0.0228728
0.0648971
0.0648411
0.0713094
0.0201484
4.07982
0.0215364
0.0369607
0.0614181
0.0354478
4.43817
0.278836
3.04102
0.0203636
0.171738
0.0199283
0.0197731
0.309928
0.0197624
0.0221224
0.0211442
0.0669681
0.0206175
0.130744
0.0201668
0.025809
0.342494
0.0263083
0.0249197
0.288965
0.0218137
0.0202436
0.0218549
0.0940902
0.0236843
0.129133
0.0214186
0.0260318
0.0217242
1.24022
0.0214195
0.021585
0.0213679
0.395358
0.0317462
0.021513
2.99728
0.0210824
0.0213495
0.0242671
1.23265
0.021395
4.42814
0.0214378
0.290204
0.0214135
0.0433041
0.0209798
0.0525911
0.0214271
0.0649971
0.0247358
0.0313417
0.0208916
0.0217092
0.266736
0.0203653
0.0236561
0.0265068
0.020057
0.0680682
1.2971
0.124601
0.0219913
0.0197366
0.0211841
0.117808
0.0233108
4.54995
0.0240823
0.237622
0.0211356
0.81893
0.0205393
0.030456
0.104091
0.0227372
1.39016
0.0231793
3.43396
0.151103
0.0207692
0.850776
0.0223119
0.0211398
0.0227933
0.0863712
0.0230771
0.150611
0.0245603
0.10736
0.0435236
0.0610697
0.0473277
1.16943
0.0214533
0.021528
2.62515
3.00624
0.0364475
0.0235341
0.423669
0.208037
0.0211592
0.0214249
0.0212093
0.200828
0.0207048
0.0209377
0.0339709
0.0454983
0.0198186
0.0206112
0.0221462
4.39855
0.0205068
0.0238144
0.0198188
0.119944
0.0229681
0.155965
0.0218262
0.0206445
0.021328
0.0202724
0.0616644
0.0318111
1.18513
0.0213227
0.0291753
0.0202086
0.198638
0.149064
0.0498895
0.0207908
0.0582348
0.0208831
0.0215803
0.291444
0.0210705
0.0237159
0.490007
0.0201507
0.10649
0.0207613
0.0198289
0.021553
0.288294
0.0208044
4.51147
0.118164
0.298464
0.356409
0.020708
0.44571
0.0622901
3.1832
0.0332402
3.0319
0.165205
0.0215627
0.0330551
0.021693
0.0280435
0.0208466
0.0227445
0.021203
0.0258599
0.333107
4.50013
0.0237503
0.0232154
0.640478
0.454416
0.021206
0.0214572
0.0756451
0.0370628
0.02044
0.267203
0.0387682
0.022153
0.0203871
0.0223937
2.78047
0.021622
0.0595736
0.0195823
0.744163
2.58216
0.0956416
0.022317
0.021472
0.0211604
0.0212726
0.0214602
0.0242049
0.022371
0.0215215
3.68133
0.0208352
0.0214564
0.0210571
0.353964
3.13078
0.0212436
0.0213198
2.92221
0.020484
4.5647
0.0215236
0.0213714
0.019724
0.021641
0.0206024
0.0227077
0.0202108
0.174351
0.0217338
0.0646903
0.0213519
1.76145
0.0214663
0.0246055
1.79172
0.169283
0.0212451
0.0214478
0.0313494
0.0197247
0.426491
0.283327
0.0224508
0.0207569
0.0212307
0.0203342
0.191803
0.338646
0.0403231
0.295444
0.0365636
0.0213606
0.0211833
0.020529
0.322308
0.244034
0.0216021
0.0211313
0.020813
0.0276574
0.0213787
0.462643
3.4061
0.0303471
0.0202782
3.42955
0.123085
0.0214454
0.21718
0.0213547
0.811232
0.0338636
0.0339526
0.0262098
0.508073
0.0336109
2.4438
0.0208361
0.0205256
0.0206954
0.0203161
0.0214941
0.028965
0.020541
0.0256276
0.0200112
0.267143
0.02107
0.0276611
0.7683
0.0220682
0.0198008
0.0282786
4.56924
0.0212557
0.0206012
0.16446
4.33115
0.216168
0.0221277
0.0197343
0.389207
0.117225
0.0235024
0.0550068
0.0213937
0.0303151
0.0215138
0.111801
0.0206756
0.0208826
0.215038
0.0204198
0.0227115
0.299914
0.0608812
0.020635
0.0209413
0.0207435
3.30163
0.0239067
0.0264186
0.0214275
0.0207729
0.115302
0.0310722
0.0211496
0.0212901
0.0197321
0.0228042
0.0206522
0.0226443
0.173133
1.16292
0.0231018
0.0409647
0.0207915
0.0422786
0.0212173
0.0215453
0.0207573
0.247879
0.0371773
0.0200188
0.0226723
0.153765
0.0381643
4.15257
0.0519115
0.0212893
0.0207704
0.0262883
0.0224658
4.41227
0.0205195
3.19055
4.48855
0.0208984
0.0393171
0.281919
0.0248932
1.77312
0.0970039
0.0219443
4.39766
0.0258829
0.0203946
2.7397
0.363936
0.09359
0.0216905
0.292082
0.218861
0.021338
0.15768
0.294489
0.0213798
0.0207074
0.0218201
0.0200258
0.0215444
0.749456
4.39934
0.0214253
0.0232065
0.499572
3.15753
0.0312128
0.597626
0.0210716
0.0249933
4.25898
0.0493691
3.16515
4.31681
0.0212511
0.02144
0.0210377
0.0216531
4.31832
0.244481
0.0209989
0.0366077
2.82648
0.298835
0.0522381
0.0211347
0.0214736
0.0219456
0.246667
0.0221972
0.0368795
0.0292591
0.0220238
0.337967
0.0232985
0.55819
0.12844
2.3583
0.0212142
0.0212035
0.0224988
0.03241
0.195177
0.21192
0.0218751
1.04058
4.35791
0.0302264
0.0327431
3.4265
0.382275
0.354218
2.59086
0.0213202
0.361138
0.0973549
0.0302761
0.0261581
0.118193
0.0224607
0.103119