/*--------------------------------*- C++ -*----------------------------------*\
| =========                 |                                                 |
| \\      /  F ield         | OpenFOAM: The Open Source CFD Toolbox           |
|  \\    /   O peration     | Version:  v2012                                 |
|   \\  /    A nd           | Website:  www.openfoam.com                      |
|    \\/     M anipulation  |                                                 |
\*---------------------------------------------------------------------------*/
FoamFile
{
    version     2.0;
    format      ascii;
    class       volVectorField;
    location    "450";
    object      ddt0(U);
}
// * * * * * * * * * * * * * * * * * * * * * * * * * * * * * * * * * * * * * //

dimensions      [0 1 -2 0 0 0 0];


internalField   nonuniform List<vector> 
18758
(
(0.00478742 0.00179418 -3.74982e-18)
(-0.0157772 -0.0187806 2.67209e-17)
(1.57486e-07 9.46899e-06 -5.16394e-19)
(0.113933 0.0420498 3.81908e-19)
(-0.0248498 -0.0182058 -9.70453e-18)
(0.0144129 -0.0172763 -1.31906e-17)
(-0.00130341 -0.000104963 3.04376e-17)
(1.34457e-05 0.000135266 2.33011e-19)
(0.0248453 -0.0160209 2.24551e-17)
(0.00124226 0.000289162 -1.64489e-19)
(0.000467635 0.000514135 -9.28929e-18)
(0.0192785 0.00271489 5.29834e-17)
(5.19023e-05 8.79135e-06 -8.72521e-19)
(-0.00901258 0.0476304 -7.12443e-18)
(-0.00137479 1.14371e-05 4.98816e-19)
(0.00417953 -0.00666097 -2.10654e-18)
(0.00158088 0.00612247 1.25321e-18)
(4.54799e-05 -2.76084e-05 -5.98002e-19)
(-0.000307255 6.32555e-05 -5.82892e-19)
(0.00146069 0.00030994 -4.89015e-19)
(-0.0496557 0.00243903 1.54593e-17)
(1.03508e-05 -0.00014469 -1.20605e-18)
(0.00625172 0.00589274 3.48324e-17)
(0.0345932 -0.0132963 1.64201e-18)
(-0.0124843 0.00891395 -5.14395e-17)
(1.77331e-05 0.000128248 -3.01375e-19)
(0.00757894 -0.00663926 -4.11502e-18)
(-0.0138585 -0.0241416 -1.41235e-18)
(-0.00662447 -0.00672095 2.02811e-17)
(0.0121901 -0.00523137 -1.57255e-17)
(-0.000725687 0.0186835 4.18821e-18)
(-0.0209363 0.00734601 -4.5641e-18)
(4.92428e-05 -1.32242e-05 -8.80241e-19)
(-0.000297515 0.000471355 4.07666e-18)
(0.0157146 0.0263318 -4.86754e-18)
(4.99627e-05 -0.000413135 3.44972e-18)
(2.29306e-05 -2.60019e-05 3.68383e-19)
(5.33394e-05 0.000258723 3.10422e-18)
(8.74382e-05 0.000313468 6.26532e-18)
(0.00283881 0.00549927 7.95452e-18)
(2.98957e-05 0.000226533 -1.34652e-18)
(0.000950469 -0.000441897 4.57044e-18)
(-5.6967e-05 -6.54783e-05 -1.30744e-18)
(0.00108183 -5.92924e-05 -3.60392e-18)
(0.00967785 0.00109412 1.58942e-17)
(-3.44047e-05 6.89283e-07 -2.24301e-19)
(0.0059742 0.0059164 1.39961e-18)
(0.000644297 0.000467915 -2.80655e-18)
(0.00121117 0.000272721 1.90593e-19)
(-5.77182e-05 -9.57622e-05 1.07397e-18)
(-0.00276933 0.00226837 -5.02626e-17)
(-0.0091499 0.0171626 2.33326e-17)
(-1.27025e-05 -4.85588e-05 -5.82053e-19)
(0.000431638 0.000499403 1.97661e-18)
(-0.0106963 -0.0231942 3.65105e-17)
(0.0353665 0.00546606 1.78118e-17)
(2.89283e-05 -2.70887e-05 -1.04572e-18)
(0.00242552 -0.00614014 4.20164e-17)
(0.000287927 -0.000443302 -7.28458e-19)
(-0.00606047 0.0498205 5.17217e-18)
(0.00361738 0.00231285 1.34291e-17)
(-0.000842251 -7.49033e-05 1.53537e-17)
(0.0130333 -0.00536426 1.21543e-17)
(0.00054427 -0.000129506 2.73767e-18)
(-1.71771e-05 -4.85491e-05 1.08891e-19)
(8.74571e-05 0.000132417 4.44373e-18)
(0.00239865 0.00663882 -2.44014e-17)
(5.328e-05 -1.4362e-05 1.19339e-18)
(3.12769e-05 0.00021204 -3.44923e-18)
(-0.00978247 0.0169928 -7.87623e-18)
(-0.0257278 0.00791142 1.20706e-17)
(0.000333786 -0.000401291 -7.55491e-18)
(-5.80129e-05 -9.40653e-05 4.99514e-19)
(0.00240251 0.0135298 -1.51162e-17)
(-2.5673e-05 0.000134796 1.32253e-19)
(0.000333323 -0.000357976 1.96087e-18)
(0.0385546 0.00919425 -2.5914e-18)
(-0.0268752 -0.0143799 -5.75299e-17)
(0.00444739 -0.00191145 -5.09674e-18)
(0.00142546 0.00211998 -5.97644e-17)
(0.0172552 0.0130024 1.4529e-17)
(0.012553 0.00396857 4.1831e-17)
(-0.00409837 0.049638 -9.00512e-18)
(0.0152787 -0.0214169 3.5823e-17)
(0.0389449 0.0114517 -1.60905e-17)
(0.00117224 0.00138419 -3.03721e-18)
(0.0277423 -0.00613469 2.86843e-17)
(0.0123549 -0.00500959 -8.75727e-18)
(-0.00333069 4.23014e-05 8.71981e-17)
(0.000311044 -0.000331189 -1.29601e-18)
(0.0201264 -0.0199841 -1.75076e-18)
(0.000243691 -0.00044405 -1.69747e-18)
(0.011733 -0.00141157 -5.69988e-17)
(0.000986937 -0.000478873 -1.05122e-17)
(0.0198722 0.0137706 -1.59848e-17)
(0.00901106 -0.00121515 4.78842e-17)
(0.0375526 0.0128911 5.63607e-18)
(-2.56039e-05 0.000133532 6.78532e-19)
(0.000182246 -0.000335242 -6.45864e-19)
(-0.0487832 0.00198309 -1.051e-17)
(0.00148113 0.00040941 1.16455e-18)
(0.0250149 -0.0183973 -2.29507e-17)
(0.0123804 0.00992014 5.91776e-18)
(0.000918987 0.000741878 -1.62844e-17)
(-0.0216694 0.00501266 2.22482e-17)
(0.0116026 -0.00182668 2.63221e-18)
(-0.00967762 0.028361 1.17971e-17)
(-0.0277809 -0.0142405 5.91072e-17)
(0.00029956 0.000417187 -3.95066e-18)
(0.000153098 -0.000530793 1.18624e-17)
(0.0127963 -0.00217043 -8.90302e-18)
(0.00700389 -0.0114754 -2.87066e-17)
(5.29563e-05 0.000105011 -1.72672e-20)
(0.000374767 0.000344042 -2.56935e-18)
(-0.0417739 -0.0356913 -4.12715e-18)
(0.052047 -0.000630679 -2.6354e-18)
(0.0333815 -0.00417449 -4.52675e-17)
(-0.00139459 -7.56709e-05 -8.15799e-18)
(0.00824469 0.00307196 2.99659e-17)
(0.0205651 0.0131886 1.29937e-17)
(0.00151938 0.000326433 -2.18376e-18)
(0.000142242 -0.00057558 -1.11488e-18)
(0.036187 0.00931797 -7.69656e-17)
(0.0057293 -0.00766756 1.7992e-17)
(0.00825893 0.00386453 7.72243e-18)
(0.0109299 0.00473234 -1.60844e-17)
(-0.0149866 -0.0190332 2.05476e-17)
(0.0320558 -0.029941 -4.94308e-17)
(0.00873605 -0.000715862 3.99429e-17)
(4.88474e-05 5.38071e-06 4.00969e-19)
(0.00179702 0.00639079 -7.06176e-18)
(0.00765878 -0.0062098 -3.72192e-18)
(-0.0518863 0.00289434 -2.00343e-17)
(0.00282833 -0.00102592 2.1477e-18)
(0.00176896 -0.010045 -5.31373e-18)
(0.000795138 -4.0077e-05 3.99248e-18)
(0.036953 0.0081811 -1.30854e-17)
(0.00330131 0.00585929 1.54967e-19)
(0.000186542 -0.000318361 -6.98312e-19)
(0.00318137 -0.00303105 -6.55827e-18)
(0.00431174 -0.00209296 5.86955e-18)
(0.00687328 -0.00225843 -2.4503e-18)
(0.0003676 0.000156364 1.31272e-18)
(0.0504766 0.00100482 6.50132e-17)
(3.0481e-05 0.000213176 1.74437e-18)
(-0.000403579 9.85237e-05 -5.32873e-19)
(-0.042463 -0.00147164 -1.78771e-17)
(0.0264602 -0.00156859 -1.33589e-17)
(-0.00174684 0.0184504 -3.96626e-18)
(-0.0483528 -0.0334038 -2.36126e-17)
(0.00980212 0.00654598 7.36539e-18)
(0.0518235 0.0445367 -1.61695e-17)
(0.00119993 0.00118062 1.35351e-17)
(-4.30199e-06 -0.000122049 5.21811e-18)
(0.016235 0.0108254 4.40113e-17)
(0.000982203 0.00073145 9.49154e-18)
(0.00506888 0.00250253 -2.01172e-17)
(0.000670272 0.00046586 3.93805e-18)
(0.000438607 2.8775e-06 -8.2822e-19)
(1.76442e-06 -6.22188e-05 -1.08911e-18)
(0.00013472 0.000107617 3.32751e-19)
(-0.00131863 0.048144 8.41606e-18)
(0.0127837 -0.00362797 -1.16277e-16)
(0.000408285 9.49807e-06 1.34444e-18)
(0.00338208 0.00230905 -2.92871e-17)
(-0.00698524 -0.0057492 6.81031e-18)
(-0.000287403 8.58137e-05 -6.23078e-18)
(0.0386457 0.00711662 -4.1669e-17)
(0.00240361 0.00583125 -1.19459e-17)
(0.0062347 -0.0223915 6.94164e-17)
(0.0452149 0.00345252 -2.62267e-17)
(4.24476e-05 -3.07094e-05 1.21638e-18)
(0.0137561 -0.00327545 2.35733e-17)
(-0.0171181 -0.0226945 3.58809e-17)
(-0.000185092 0.0473669 8.74296e-18)
(0.0504257 -0.00866669 -1.11585e-17)
(-0.0215837 -0.0168005 3.62658e-17)
(0.000561014 -0.000120343 -2.02528e-18)
(0.00306858 -0.00302187 -7.98556e-18)
(0.000228408 0.00042318 6.1236e-19)
(7.05263e-05 2.79993e-05 4.55824e-19)
(0.0354707 -0.000799719 -2.85283e-18)
(0.059426 0.0429442 8.8794e-18)
(-9.51437e-05 -8.10728e-05 8.76271e-19)
(-0.00107906 0.00170804 -6.89393e-18)
(0.059268 0.0369301 2.4225e-17)
(0.000215521 -0.000431707 -1.16563e-19)
(0.0516462 -0.000443786 2.83351e-21)
(-5.55529e-05 -6.89567e-05 3.56098e-18)
(0.000164871 -0.000457794 -5.94427e-18)
(0.00298175 -0.000978571 5.25036e-18)
(0.0334467 -0.0285532 7.22836e-17)
(0.000526406 0.000441107 9.01888e-19)
(-0.00189414 0.017406 -8.60946e-18)
(0.00187856 -0.000238935 -7.62862e-18)
(0.0117804 -0.00600905 -9.92779e-18)
(0.00148916 0.000325228 1.07246e-19)
(0.00220457 0.00630525 6.21742e-18)
(7.86514e-05 -0.000100113 5.30236e-20)
(-6.08275e-05 -6.6261e-05 3.18586e-19)
(0.002308 -0.00336353 1.88976e-17)
(0.000667518 0.000464995 -4.39282e-18)
(0.00137959 0.000620655 7.52208e-18)
(0.00723341 -0.00279697 -1.01214e-17)
(4.57653e-05 1.19118e-05 -2.48886e-19)
(0.00183927 -0.000228007 6.16715e-18)
(0.0135493 0.00771553 1.5177e-17)
(-3.51871e-06 -9.42497e-05 -4.52951e-18)
(-0.0470463 0.00174033 2.58816e-18)
(0.00122361 0.000240504 -7.83245e-19)
(5.24393e-05 -5.60593e-05 3.87881e-19)
(0.000833176 0.000809481 -5.18835e-18)
(0.000521601 9.77511e-05 -1.84206e-18)
(0.00124306 0.000600856 -5.67084e-18)
(0.00373538 -0.00225665 -7.80889e-19)
(0.0145608 0.011134 -6.02097e-17)
(0.00390482 -0.00237887 -6.53174e-18)
(0.00326744 -0.00664919 2.07691e-17)
(-3.63221e-05 2.15781e-05 2.59154e-19)
(0.0122704 -0.0165798 9.86642e-18)
(4.64539e-05 -6.92467e-05 -3.82489e-19)
(0.000332485 0.000418158 5.1814e-18)
(0.0324069 0.0218383 1.68587e-17)
(-0.0414891 -0.00462645 1.53709e-17)
(-0.00402338 0.00595744 -7.91829e-18)
(0.0128582 0.00830722 -1.78795e-17)
(0.00153381 -0.00117518 1.56379e-17)
(0.00278853 -0.000213727 -3.29516e-18)
(-8.42809e-05 -3.22696e-05 -8.92912e-19)
(0.0066108 -0.00351715 -1.19655e-17)
(4.98399e-05 0.00010868 6.62378e-18)
(0.0108084 -0.00610883 2.37698e-17)
(0.0069376 0.00664076 2.36723e-17)
(0.0389514 0.015256 -1.28434e-17)
(6.52341e-05 5.26553e-06 7.0728e-19)
(0.000202867 -0.000434186 2.87198e-18)
(-8.66485e-05 -3.80912e-05 1.16072e-18)
(-3.24513e-05 1.90378e-05 1.48712e-19)
(0.0376071 0.00824253 8.87349e-17)
(0.00108251 0.000458831 -1.75552e-18)
(0.000137841 -4.73688e-05 -2.02054e-18)
(0.00170438 0.00990858 5.10435e-17)
(-0.0106318 0.0298553 -7.58457e-18)
(7.33205e-05 0.000528627 -3.97244e-18)
(-0.0492991 -0.0336124 -1.90351e-18)
(0.0125672 -0.00571812 3.30017e-17)
(0.037995 0.0164286 2.6068e-17)
(4.39236e-05 -0.000451709 -8.00709e-19)
(0.018375 0.0132925 -3.58133e-18)
(0.000880469 -0.000974739 2.14314e-18)
(6.99152e-05 -0.000317135 -3.92929e-18)
(0.0363316 0.00808736 -1.39507e-17)
(0.00123369 0.00146256 -1.79574e-18)
(0.000995755 -0.00101037 -7.58257e-19)
(-0.000900285 0.000129293 6.05923e-18)
(0.00155078 0.00011416 3.2278e-17)
(0.0588755 0.00938117 3.55414e-18)
(0.00288105 -0.00689685 -4.50009e-17)
(0.00123663 0.000573096 1.01352e-17)
(0.00445562 -0.0014412 4.11278e-18)
(-0.000157144 6.17562e-05 2.76101e-19)
(0.00962247 0.00702773 -2.80038e-17)
(9.07427e-05 0.000243668 -5.43251e-19)
(0.00786209 -0.00237434 1.22978e-17)
(0.00118766 0.000231778 6.59654e-19)
(0.0318818 0.0231763 1.64121e-17)
(0.0284495 0.00225973 3.61769e-17)
(-4.12295e-05 2.19421e-05 -3.33601e-19)
(0.000258026 0.000399435 -2.40801e-18)
(0.00835509 -0.00112497 -3.39829e-17)
(0.000240073 0.000391147 1.69682e-18)
(-0.00104043 0.00160691 6.21925e-18)
(0.00670186 -0.00308753 2.11554e-17)
(0.00879785 0.0046836 -4.11267e-17)
(0.0323478 -0.00378301 8.62701e-17)
(0.000350232 5.59135e-05 2.32571e-18)
(-0.00252567 0.0012462 2.26365e-17)
(-0.0262349 -0.0401271 -4.11972e-18)
(0.00841963 0.0021701 -6.90469e-18)
(0.000592152 0.000414067 -2.04366e-18)
(-0.000126457 -5.48376e-05 4.08749e-19)
(0.00100666 0.000455864 -1.20556e-18)
(0.00110047 0.000420448 -6.64084e-18)
(0.000358402 0.000115082 6.38026e-19)
(0.00442805 -0.0565095 6.75936e-18)
(0.00227437 0.00950699 -5.0138e-17)
(0.123959 0.0694891 -1.07267e-17)
(-0.0429546 0.000112138 2.7304e-17)
(0.00708992 0.00649534 -3.71915e-17)
(-7.93804e-05 -9.17813e-05 -2.17052e-18)
(-1.63249e-06 1.01829e-05 5.25922e-19)
(0.00306924 -0.000175359 -2.10685e-19)
(0.0168383 0.0113169 -6.39009e-18)
(0.000538719 -0.000635021 1.38514e-17)
(0.00432272 -0.00166196 -7.53725e-18)
(0.00416336 -0.0071547 -1.47957e-17)
(0.00100992 0.000456425 1.05122e-17)
(0.0176761 0.0126839 3.16856e-17)
(-0.000282103 4.27214e-05 -1.72604e-18)
(-0.00741505 0.0723418 -4.02744e-18)
(0.0137663 -0.0208849 -6.65372e-17)
(-3.52704e-05 6.90025e-06 -2.66881e-19)
(0.0261284 0.0325656 4.89441e-19)
(0.00217471 -0.000429015 6.19205e-19)
(3.85928e-05 0.000220387 2.53811e-18)
(0.0012594 0.000501284 1.37667e-18)
(0.000403195 -0.00323552 -1.61134e-17)
(-0.000975225 0.000416991 -1.63999e-18)
(4.8061e-05 -0.000356715 2.15443e-18)
(0.00407777 0.00117828 2.70242e-17)
(0.10752 0.071744 1.21995e-17)
(0.000116775 -0.000225358 1.29123e-18)
(0.00159231 0.000214737 1.97436e-17)
(0.0189846 0.0130665 -1.50832e-17)
(-0.00394829 0.005313 -7.54633e-20)
(7.10869e-05 0.000225266 -5.86678e-18)
(3.92432e-05 -2.14188e-06 -5.20271e-20)
(0.0198818 0.0685046 -2.38096e-17)
(8.63766e-05 0.000502953 -2.55504e-18)
(-9.01409e-05 -8.47254e-05 -1.15262e-18)
(-0.000119349 -2.89198e-05 2.03997e-18)
(0.000170042 -0.00051525 2.47327e-18)
(0.00285232 0.00579024 -1.69626e-17)
(-1.14816e-05 -0.00328188 9.05109e-18)
(0.000989622 0.000466627 -3.99077e-18)
(0.00109859 0.000472887 -2.51226e-18)
(0.00148342 0.000274878 -1.00138e-18)
(0.00295918 -0.000764394 1.9874e-17)
(-0.000151807 6.29865e-05 2.95513e-18)
(2.11437e-06 -0.000123767 1.1884e-18)
(0.0366218 -0.0280903 6.82762e-17)
(0.00249229 0.00112472 -3.23457e-17)
(-0.00291359 0.00137081 2.53915e-17)
(0.113468 0.044248 -1.10581e-17)
(0.000566049 -0.000671899 -3.17699e-18)
(0.000506541 0.000445716 9.82921e-20)
(6.53539e-05 1.86731e-06 -5.88147e-19)
(-0.00898633 0.0729038 1.00225e-17)
(0.0354011 0.0356247 8.31195e-18)
(-8.81741e-05 -5.61991e-05 -1.06589e-18)
(5.18263e-05 -9.12317e-05 1.28629e-18)
(-8.22766e-05 -6.09174e-05 -5.32478e-19)
(0.000743954 -5.16947e-05 -8.57571e-18)
(0.00266352 -0.000247519 2.79698e-18)
(-0.0131723 0.00837133 8.17755e-17)
(9.30252e-05 -0.000540898 -3.72023e-18)
(0.000150345 -0.000573873 -1.69249e-19)
(-5.71818e-05 -9.73578e-05 2.21514e-18)
(0.00448658 -0.00707765 9.38624e-18)
(0.00663588 -0.00205697 -1.64201e-18)
(0.00097605 -0.012088 8.23557e-18)
(0.00484811 0.0030414 2.77044e-18)
(-0.000584649 0.000579909 -5.15906e-18)
(0.0291481 -0.029751 -1.34406e-17)
(0.00469485 0.00153604 1.10211e-17)
(0.00111771 0.000323847 -4.78218e-18)
(0.00112227 -0.00113401 -8.88281e-18)
(0.0152665 0.00253622 1.01849e-17)
(-0.0508059 -0.00262556 -4.90629e-17)
(0.0649693 0.0383753 -2.03589e-17)
(5.6644e-05 6.98012e-05 2.08827e-18)
(0.00158203 0.000357615 1.44999e-18)
(0.011642 -0.00395521 2.85299e-17)
(0.00809955 0.00546106 2.90643e-17)
(0.000974006 0.000341654 -1.06342e-18)
(-7.68699e-05 -9.47671e-05 1.32359e-18)
(0.00340541 -0.00104209 -2.59587e-17)
(-0.000197587 7.54133e-05 3.87212e-18)
(0.00103769 0.00199063 6.85338e-19)
(-0.0142475 -0.0152904 6.28137e-17)
(0.108871 0.0437396 5.13946e-19)
(0.00263782 0.0325652 -8.83596e-18)
(0.00145482 0.000251568 -5.01454e-19)
(0.028119 0.00283695 -1.81555e-18)
(0.000303283 -0.00044084 8.7536e-18)
(0.000701236 0.000463814 4.50042e-18)
(0.000278483 -0.000152744 -4.07762e-18)
(0.000128469 0.000333353 -3.58911e-18)
(0.0117448 0.0237926 2.55381e-17)
(0.000522987 0.000541893 4.55622e-18)
(0.00164434 0.000369096 1.81568e-17)
(0.00657523 -0.00296676 -1.20766e-18)
(-0.000863693 0.000101553 -6.81075e-18)
(0.000106896 -0.00019857 1.88606e-18)
(0.0437692 -0.0038392 -6.37612e-17)
(0.00304583 0.0314338 1.13311e-17)
(0.0259657 -0.0147869 -1.79597e-17)
(0.000275198 -0.000465296 -6.51461e-18)
(-0.00156694 0.0132547 4.7458e-18)
(-0.000119223 -6.07346e-05 1.28619e-18)
(0.000852141 -0.000436485 3.84388e-18)
(0.000169919 -0.00059138 -1.64584e-18)
(-3.68493e-05 3.7846e-05 7.89295e-19)
(0.0125265 -0.00516696 6.14934e-17)
(-0.0462426 0.00242506 -1.52003e-17)
(0.011156 -0.00570755 3.90327e-18)
(0.0235967 -0.00468897 3.68199e-17)
(2.35559e-05 -3.34573e-06 7.36985e-20)
(0.0340738 0.00103455 2.98979e-17)
(-0.0382056 0.00670212 1.88769e-18)
(0.00148569 0.000130188 -1.45239e-17)
(5.18065e-05 0.000117039 4.63839e-20)
(0.115725 0.0481893 7.3867e-18)
(-7.91217e-05 2.85749e-05 2.82012e-18)
(-0.000481708 0.000107516 -4.95789e-18)
(7.08227e-05 3.60299e-05 -4.90444e-19)
(0.0125845 0.0246416 6.88725e-18)
(0.000134547 -0.000491425 1.99534e-18)
(0.00107286 -8.5771e-05 -3.0796e-18)
(0.00453821 0.00296722 2.28741e-18)
(0.0322587 0.00991719 1.24367e-16)
(-0.000124203 -3.39815e-05 -9.11254e-19)
(-0.0253494 -0.016714 -1.38155e-17)
(0.00400896 0.00243945 -3.23245e-17)
(6.9761e-05 0.00023926 4.30191e-18)
(-0.000285203 0.00170185 -6.33263e-18)
(0.00030743 -0.000399612 1.18542e-18)
(5.07862e-05 -8.48941e-05 -1.48511e-18)
(0.000967582 0.000466727 -7.86924e-18)
(0.00843152 0.00550615 3.6245e-17)
(0.00288434 -0.000679158 -9.66953e-18)
(0.0048832 -0.00626817 6.62681e-17)
(0.0015199 0.00030193 8.36994e-18)
(6.28758e-05 0.00028584 -1.2102e-18)
(0.00801661 -0.00127798 2.17774e-17)
(-0.00417864 0.0342342 9.50637e-18)
(0.134271 0.051364 5.06721e-18)
(0.0464335 0.00274469 -2.78063e-17)
(0.00835085 0.0260761 -3.04417e-18)
(0.000579468 0.000386658 -7.63134e-19)
(-3.51257e-05 4.21937e-05 -2.79987e-19)
(0.00013821 -6.3492e-05 1.78908e-18)
(0.000479694 3.43621e-05 2.54382e-19)
(0.000866138 0.0331492 2.22138e-18)
(0.00275778 0.00440945 -1.26478e-19)
(-0.00135863 0.00471303 -6.09051e-18)
(0.00205526 -0.000436132 6.04227e-18)
(0.00125256 0.00125073 -9.34961e-18)
(0.0468541 0.0530833 2.4135e-17)
(0.0131352 0.00939664 2.75828e-18)
(0.00027348 -0.000414699 -4.24173e-19)
(0.00108301 0.000451021 4.09552e-19)
(-0.00247607 -0.000134331 -7.54949e-17)
(0.000717015 0.000212479 -3.97775e-18)
(0.111193 0.0465168 -1.55198e-17)
(4.96609e-05 -3.73052e-06 7.61641e-19)
(1.30973e-05 0.000158038 8.04172e-18)
(0.0510828 -0.0165877 3.88493e-18)
(0.00122187 -0.000372182 3.18156e-18)
(0.000184439 0.000366802 1.93607e-18)
(0.057403 0.0116992 6.16435e-17)
(0.0170688 0.0254831 2.98675e-19)
(0.00296281 -0.000104637 8.11408e-19)
(0.00796216 -0.000889775 2.42081e-17)
(0.000282395 -0.000395438 -2.65697e-18)
(0.000574693 0.000120216 4.26847e-18)
(0.00362937 -0.00701264 1.62971e-17)
(0.0154871 0.00359192 -5.78806e-17)
(0.00146107 -0.00150425 2.73274e-18)
(0.000445962 0.00176004 -4.91604e-18)
(-0.0102271 0.0492521 -7.90086e-18)
(0.042571 0.050491 -2.10763e-17)
(0.0398233 -0.00190472 -3.24651e-18)
(-0.00721662 0.0479092 1.83228e-17)
(0.000308142 -0.000423908 9.85355e-18)
(-0.00323157 -0.00461211 7.80427e-18)
(0.000384947 0.000343672 3.28867e-18)
(0.000536814 0.0342372 5.358e-18)
(0.000551969 0.000467004 4.22208e-19)
(0.0119815 -0.00113986 -9.55697e-18)
(-0.00219851 0.0130069 -1.0935e-17)
(-0.0010006 -0.00428362 -1.05177e-17)
(-0.00123475 0.00455344 3.63272e-18)
(-0.000769455 0.0215126 -6.41183e-18)
(-3.39769e-05 1.209e-05 -6.3972e-21)
(0.0360784 -0.0140952 -1.0147e-18)
(-5.74356e-05 -8.68015e-05 4.52105e-19)
(-0.053531 -0.00211761 6.14182e-17)
(0.000285233 -0.00014418 2.87133e-18)
(0.00757169 0.00261975 -1.40126e-17)
(9.97182e-05 0.000229129 -2.16325e-18)
(0.0118935 0.072347 -1.01604e-17)
(0.0011655 0.0020625 -9.13182e-19)
(0.000115143 0.000105839 -2.88042e-18)
(0.000177495 -0.000342476 1.14649e-18)
(6.83349e-05 5.54126e-05 -3.99189e-20)
(0.00500243 0.0467545 -2.41191e-18)
(-0.0346916 -0.00409293 -1.33313e-17)
(-0.0419869 -0.035434 2.71005e-17)
(0.00183055 0.00724105 1.62676e-17)
(-0.00109613 0.00142293 -5.04716e-18)
(0.000631366 -0.00368999 -4.31213e-17)
(3.18022e-06 -8.38139e-05 3.73874e-20)
(1.39531e-05 -8.81997e-05 5.40488e-18)
(-0.0128084 0.0147224 -3.35576e-17)
(0.000179827 -0.000346706 7.73929e-20)
(4.47755e-05 0.000258297 -3.91285e-18)
(0.00348658 -0.00749406 2.73515e-17)
(5.50294e-05 6.73275e-05 -2.68543e-18)
(0.000612353 0.0017122 1.63054e-17)
(0.00102822 -0.00362279 3.69493e-17)
(4.81562e-05 0.000233677 3.34666e-18)
(0.000142668 -0.00050124 -6.38858e-18)
(0.00109424 -0.000523339 1.11501e-17)
(0.000678677 0.000170285 -9.40337e-20)
(0.00103793 0.000763982 3.58395e-17)
(-0.0492002 -0.0320829 3.853e-17)
(-0.00638411 0.00279019 9.35086e-18)
(0.00151965 -0.00141761 -1.54156e-17)
(0.000984441 0.000431171 3.35792e-19)
(5.4426e-05 0.000275736 -5.53363e-19)
(0.00362357 -0.010024 3.69581e-19)
(0.00023896 -0.000535795 2.42813e-18)
(0.0003647 0.000443917 -3.97659e-18)
(0.00874048 -0.00776824 3.53247e-18)
(0.0510137 -0.00146333 -1.84572e-17)
(-0.00127946 0.0206046 -4.11763e-18)
(0.0275064 0.0697361 7.94468e-19)
(0.000979462 0.000342285 -1.36998e-19)
(0.000335888 0.000427758 2.86807e-18)
(0.0497887 -0.00165811 2.11924e-17)
(-0.000292065 7.11352e-05 4.57306e-18)
(0.0198642 -0.00419976 -3.91298e-19)
(0.00733086 0.00238976 2.60943e-17)
(9.80917e-05 0.000141547 -2.38374e-18)
(-0.0483581 -0.0304378 -5.50249e-17)
(0.0289394 -0.0311211 -4.82797e-18)
(0.00369175 -0.00106534 6.92798e-18)
(3.62886e-05 1.11418e-05 5.67283e-20)
(0.00236821 0.00107056 7.65093e-18)
(0.0100537 0.0275092 3.45844e-18)
(4.91863e-05 0.000243935 -1.22935e-18)
(1.26635e-05 0.000216359 3.322e-18)
(-0.00142537 7.3516e-05 4.22501e-19)
(-0.000923544 0.000420986 -1.20212e-18)
(-0.000417608 0.000125034 1.77528e-18)
(-2.10377e-05 1.51895e-05 1.03784e-19)
(7.98697e-06 -4.37707e-05 -5.10516e-18)
(0.03272 0.0086277 7.57242e-18)
(0.000581287 0.00080503 -6.03663e-19)
(-0.008409 -0.00677289 1.08529e-17)
(9.40292e-05 -0.000529698 -3.8228e-18)
(-0.00444858 -0.00416138 4.55535e-18)
(-0.0129983 -0.0157978 -7.84999e-17)
(8.46826e-05 0.000250039 -1.1072e-19)
(-6.44787e-05 -5.35688e-05 -1.9191e-18)
(0.00060884 0.000719637 -5.00906e-18)
(8.41708e-05 -3.85606e-05 -2.30773e-18)
(0.000609986 0.000418091 7.06592e-19)
(0.000486847 -0.000339106 9.92109e-18)
(0.000229698 0.000436536 -8.25187e-19)
(0.0133626 -0.0032831 -1.34056e-17)
(0.0050439 -0.0069116 3.85744e-19)
(-1.60141e-05 -5.58786e-05 -1.26362e-18)
(0.00377061 0.0247464 1.32152e-17)
(-0.0125908 -0.0191674 -8.56638e-17)
(0.00132759 -0.00146182 -2.32576e-17)
(-0.00291694 -0.00502589 1.91149e-17)
(0.0114995 -0.00717037 1.11211e-17)
(0.00089195 -0.000468532 -1.63265e-17)
(-0.00609252 0.00253407 -2.87968e-18)
(0.000931613 0.00123641 5.15883e-20)
(-0.0251833 0.0072544 7.92846e-18)
(0.000540001 0.000767316 2.2483e-18)
(-0.00147727 0.00983101 -5.04335e-18)
(0.000390279 0.000234974 2.69984e-19)
(0.127264 0.0268173 -2.27262e-17)
(0.00271274 0.00125042 2.63723e-17)
(0.00665585 -0.00157444 2.06271e-18)
(0.0227314 0.00562749 4.09232e-17)
(-0.00150283 -0.000202269 3.1327e-17)
(0.000542169 0.000709367 -5.64989e-19)
(0.000324854 -0.000162997 1.26316e-19)
(0.00194781 -0.00125524 2.47239e-17)
(-0.0125047 0.00991745 -4.76388e-17)
(0.00059741 0.000394909 2.67388e-18)
(0.00762179 0.00377976 7.05832e-19)
(0.000367471 -0.000318609 -2.08569e-18)
(-0.0147909 0.0260625 3.96563e-17)
(0.000620176 0.000448049 6.05133e-19)
(-4.80412e-05 9.54032e-05 4.62168e-18)
(6.861e-05 6.58901e-05 1.18288e-19)
(5.71617e-05 5.35056e-05 -7.65531e-19)
(-0.0191855 -0.0177328 4.79862e-17)
(-0.01412 0.0273648 -1.7998e-17)
(0.000285201 -0.000475134 5.34438e-18)
(0.00801133 0.0565936 -1.09521e-18)
(0.00150085 -0.000424862 2.66859e-18)
(0.128275 0.0477005 -9.97514e-18)
(-0.0336194 -0.00474919 -1.69412e-17)
(0.016623 0.0676901 2.43022e-17)
(-0.0170646 -0.0244561 9.69804e-18)
(-0.000363572 2.37551e-05 1.60989e-18)
(-0.0162626 -0.0251994 -3.63226e-17)
(-0.00278324 0.0170718 1.11491e-17)
(0.000323524 0.00044865 -4.98511e-20)
(0.00281883 0.00658851 2.97923e-17)
(-0.0139819 0.0145847 6.45035e-18)
(0.0462453 -0.0248663 1.64426e-17)
(-0.000260845 0.00046083 2.70871e-18)
(0.000115886 -0.000506265 -1.42154e-17)
(0.000339089 0.000402961 2.70004e-19)
(3.2265e-06 -4.6883e-06 8.48847e-19)
(0.0221679 0.00309594 -1.16948e-17)
(0.0145517 -0.00183703 3.95146e-18)
(-0.0149306 -0.0224622 -5.43016e-17)
(-0.0408898 0.00543273 -1.89236e-17)
(0.000248123 -0.000549927 5.81343e-18)
(8.3241e-05 -7.71739e-05 6.74779e-20)
(0.00543963 0.00100637 -7.13984e-18)
(6.25559e-06 -0.000104803 1.20789e-18)
(0.000130324 9.43214e-05 -4.23727e-19)
(0.000438623 -0.000354023 6.23418e-18)
(-0.00122173 0.00019596 1.47641e-18)
(0.0136333 -0.00446284 -5.899e-18)
(0.00261857 0.00133378 -2.53891e-17)
(0.00143568 0.00588046 -2.70373e-18)
(-0.0282237 -0.0113547 -2.11033e-17)
(0.000287105 0.0015761 4.29414e-18)
(9.32945e-05 0.000209612 4.877e-18)
(0.00114723 -0.000363693 -5.20586e-18)
(-0.0015485 0.00243627 2.07552e-17)
(-0.0236703 0.00404605 4.01309e-18)
(-0.00173306 0.00933049 1.54133e-17)
(0.0181304 0.00523079 4.08499e-17)
(0.00178399 -0.000723201 -2.10633e-18)
(0.00028178 -0.000445646 -5.04076e-18)
(0.00876137 0.0551953 -9.57806e-18)
(0.0672563 0.0583498 -2.74137e-19)
(0.000538426 0.000448837 -7.44943e-19)
(-9.73561e-05 -6.10938e-05 -5.57172e-19)
(0.00272572 -0.00471354 2.53787e-17)
(0.0209297 -0.0201471 -9.08241e-19)
(0.00174354 0.00632212 6.77222e-18)
(5.36312e-05 5.0656e-05 2.61662e-19)
(-0.0516883 -0.00216441 -8.8902e-17)
(-0.043205 0.00174134 -1.05868e-18)
(-0.00915885 0.0105565 6.12533e-17)
(-5.49171e-05 -9.79009e-05 1.68716e-18)
(-0.0024549 -0.000439139 8.37481e-17)
(0.00318419 0.000855345 -8.49451e-17)
(0.0242504 -0.00603141 -9.80875e-19)
(0.000491849 0.000558412 8.1481e-18)
(2.00086e-06 -0.000511399 -6.98927e-19)
(-0.0358389 -0.0300524 -1.18054e-16)
(2.91978e-06 -3.90595e-05 4.03575e-18)
(0.0200063 0.0368417 2.39433e-17)
(0.0215532 -0.00614209 1.37584e-17)
(-0.000230558 -0.014795 -4.90346e-17)
(-0.00111479 -0.000141007 -7.43686e-17)
(0.0116969 0.012589 -2.74384e-18)
(-0.0480674 0.0021111 -1.38348e-17)
(0.00888806 0.00500416 -1.05591e-17)
(0.000406075 -0.000117232 5.94521e-20)
(7.88222e-05 -0.000532888 1.38107e-17)
(0.0464054 0.00227121 -3.9106e-17)
(0.134277 0.0544329 -7.23246e-19)
(0.00327292 0.000806502 -3.95088e-17)
(0.108586 0.0426098 7.6441e-18)
(-0.000308598 7.47675e-05 1.88168e-18)
(0.0207898 0.0355925 -2.45451e-17)
(3.09351e-06 -6.55998e-05 -5.7853e-19)
(0.00131656 -0.00126356 -1.56044e-17)
(0.00904477 0.0177384 -2.16087e-18)
(-0.00233966 0.00227679 5.23421e-17)
(0.000109427 0.000111584 8.66637e-19)
(0.000949399 -0.000106843 1.14288e-17)
(0.032325 0.00205741 8.637e-18)
(-0.00285198 0.0213612 -1.70351e-17)
(0.0451066 0.00290456 -1.57911e-17)
(0.00719255 0.000621065 -1.52388e-17)
(0.00111641 0.000295614 1.50832e-18)
(0.00147902 0.000410921 -6.39267e-18)
(0.0391865 0.0191111 -4.05631e-18)
(0.000160238 -0.000548831 -1.32482e-17)
(-0.000109927 -7.06848e-05 1.67131e-18)
(9.93804e-05 -0.000209826 6.52634e-19)
(-0.00265726 0.00118725 3.35148e-19)
(-0.000358841 0.0195583 -3.02244e-18)
(5.91251e-05 0.000272428 -1.37219e-18)
(0.00823752 0.016912 2.82653e-18)
(0.000127501 -0.000137834 9.90379e-19)
(4.49508e-05 7.04871e-06 -5.07443e-19)
(5.33136e-05 -0.000109474 -6.34684e-19)
(-0.0223708 -0.0199055 -2.98829e-18)
(0.000176257 -0.000513436 -4.61714e-18)
(3.16843e-06 -5.50799e-05 -1.83564e-18)
(0.00504118 0.00119343 -2.15698e-17)
(0.00336075 -0.000218676 7.78085e-18)
(-1.87261e-05 -6.21294e-05 9.75424e-20)
(0.0104278 -0.00357261 -2.69925e-17)
(-0.000204043 7.13745e-05 2.73538e-18)
(-0.000192249 5.08366e-05 5.68411e-19)
(0.000925916 -0.000662912 3.26147e-18)
(0.00161568 -0.00132315 1.59776e-17)
(-0.00113355 0.00152711 -4.12474e-18)
(0.000601986 0.000476149 -6.77681e-19)
(0.013728 0.0074643 -2.9253e-17)
(0.0013782 -0.00151725 3.02089e-17)
(0.00130161 0.000547775 -3.43598e-18)
(0.0627477 0.0672436 6.56917e-19)
(0.00129726 0.000535196 3.15141e-18)
(0.121266 0.0514466 6.70179e-18)
(0.000278384 -0.000788863 5.36273e-18)
(0.0145637 -0.00258727 1.01101e-17)
(0.0201449 -0.00618178 -6.92766e-17)
(0.0201101 0.0020333 1.47675e-17)
(-9.47372e-05 -6.48782e-05 1.89385e-18)
(-0.0221579 0.00966452 1.18799e-17)
(0.037948 -0.0246865 3.22701e-17)
(-9.63399e-06 9.50497e-05 6.38508e-20)
(-0.0414073 -0.00585468 7.68163e-18)
(7.84605e-05 0.000230846 3.00077e-18)
(5.98478e-05 -0.000120501 -6.40083e-19)
(0.00219651 0.000924706 -5.49943e-18)
(4.6501e-05 -3.17765e-06 5.70348e-19)
(0.00287734 0.00308482 4.05526e-17)
(-0.0242961 0.00457374 6.41484e-18)
(-5.78977e-05 -8.01989e-05 2.45306e-18)
(0.0114629 -0.00342043 1.12096e-17)
(-0.000344795 3.17225e-05 5.04908e-20)
(0.00160247 0.00037785 -1.05611e-17)
(0.137256 0.0577064 -1.23891e-18)
(-9.86647e-06 -4.16968e-05 1.09955e-19)
(0.0162521 -0.0220478 3.27165e-17)
(0.000761244 0.000389147 -8.90384e-19)
(-0.000135832 0.000103502 1.04533e-18)
(0.000173704 -0.000424024 -5.83661e-19)
(0.000108328 -0.000227978 -9.89405e-19)
(0.00371665 -0.017391 -1.90734e-17)
(0.0020905 -0.0034132 -3.89995e-17)
(0.0458059 -0.00157302 -2.69523e-17)
(0.000132057 0.00161878 -8.55936e-18)
(0.0208847 -0.0162915 -4.59491e-17)
(0.00504141 0.000397415 8.92532e-18)
(6.01096e-05 0.000275003 2.09119e-18)
(0.0356778 0.00453707 -4.18168e-18)
(0.00712642 0.000947966 -2.279e-17)
(-0.0199717 -0.0247655 -4.49264e-17)
(0.002536 -0.00340559 -3.95659e-18)
(0.00203933 -0.0122469 -3.08613e-17)
(-0.00444404 0.0172431 -1.70613e-17)
(0.000865394 0.000499492 -2.22178e-19)
(0.00211265 -0.0172918 4.58273e-17)
(0.000549081 0.000502271 -8.89511e-19)
(0.0135493 0.00463197 -2.89844e-17)
(4.84904e-05 3.15691e-05 5.47039e-19)
(-0.00191122 -0.000495494 -6.21279e-17)
(-0.000307891 0.000514903 -6.02208e-19)
(0.00264884 -0.00317148 -1.75417e-18)
(0.00108214 -0.00059176 1.51887e-18)
(0.00018045 0.000359144 -6.51013e-18)
(-0.00856771 -0.00946341 1.69557e-17)
(8.21603e-05 -0.000527035 5.40837e-19)
(0.00013058 4.47124e-05 1.21255e-19)
(-0.00682807 -0.00281445 1.50374e-18)
(0.000771089 0.000362653 6.6447e-19)
(5.21351e-05 -0.000107545 -7.45584e-19)
(0.00314188 0.00456702 -3.22913e-18)
(-0.00033576 -0.00256112 6.09362e-18)
(0.00405691 -0.0181506 7.44836e-18)
(-0.00833544 0.0092555 1.13379e-17)
(0.0315913 0.0697539 -2.49176e-17)
(0.0415118 -0.0067854 -3.98871e-17)
(8.28288e-05 -6.03574e-05 3.65482e-19)
(6.54317e-06 -0.000518122 1.58628e-18)
(-0.0492003 -0.00291046 9.04538e-17)
(7.63684e-05 6.8252e-05 4.75296e-18)
(0.00358786 0.00976663 -2.68389e-17)
(0.0126485 0.0132046 -2.59961e-18)
(0.000483162 0.000532269 4.421e-18)
(2.36533e-05 0.000226915 -5.07995e-18)
(0.00125042 0.000502695 -1.42581e-18)
(-3.93262e-07 -0.000107558 -1.69819e-18)
(-0.000130394 8.86634e-05 -1.89599e-18)
(7.09381e-05 0.00263403 -1.88538e-18)
(0.00358945 0.00954129 2.58131e-17)
(0.00108262 0.00595111 1.19463e-17)
(0.00297163 -0.00484246 -3.04978e-17)
(0.00123954 0.00167387 -8.49152e-18)
(9.39914e-05 -9.03406e-05 2.4966e-18)