/*--------------------------------*- C++ -*----------------------------------*\
| =========                 |                                                 |
| \\      /  F ield         | OpenFOAM: The Open Source CFD Toolbox           |
|  \\    /   O peration     | Version:  v2012                                 |
|   \\  /    A nd           | Website:  www.openfoam.com                      |
|    \\/     M anipulation  |                                                 |
\*---------------------------------------------------------------------------*/
FoamFile
{
    version     2.0;
    format      ascii;
    class       volScalarField;
    location    "450";
    object      k_0;
}
// * * * * * * * * * * * * * * * * * * * * * * * * * * * * * * * * * * * * * //

dimensions      [0 2 -2 0 0 0 0];


internalField   nonuniform List<scalar> 
18758
(
0.000174542
0.0223219
0.00014421
0.0395464
0.0741534
0.0851177
0.00830396
0.000145905
0.000227509
0.000156527
0.000152501
0.0518995
0.000148175
0.000211491
0.0001526
0.000196258
0.000170665
0.000147454
0.000148456
0.000158764
0.0298506
0.00014979
0.0403745
0.00184491
0.000985757
0.000145924
0.000245025
0.0761847
0.0771758
0.000426184
0.000183466
0.032532
0.00014914
0.000150902
0.000202082
0.000149065
0.000149462
0.000148509
0.000149421
0.000172162
0.000148503
0.000154907
0.000145889
0.000154783
0.000341374
0.000145201
0.0390892
0.000152867
0.000156199
0.000145606
0.000185954
0.0607248
0.000144692
0.000152137
0.0735239
0.0168859
0.000149394
0.000183503
0.000147835
0.000216016
0.000172995
0.00976943
0.000193313
0.000150598
0.000144758
0.000148044
0.000172824
0.000149108
0.000148163
0.0603461
0.061623
0.000149396
0.000145673
0.000876636
0.000145932
0.000147798
0.000228867
0.071673
0.000168542
0.0288501
0.0586696
0.00112729
0.000215943
0.0825592
0.000230872
0.000160857
0.0512049
0.000192848
0.000903787
0.000147809
0.0791132
0.000147831
0.0355859
0.000155275
0.0609149
0.0294166
0.000229121
0.000145958
0.000147258
0.0336147
0.000159708
0.0732835
0.000188316
0.000166877
0.0268036
0.000190626
0.0147658
0.0728477
0.000150401
0.000149329
0.0377112
0.000923361
0.000146185
0.000148586
0.0786797
0.0216122
0.0306102
0.000152666
0.0401931
0.0588304
0.000165882
0.000147904
0.0777843
0.000229634
0.00021218
0.000251531
0.0116977
0.00103507
0.0289513
0.000148422
0.000171343
0.000241379
0.0191579
0.000163323
0.000458616
0.00015224
0.000227211
0.000173057
0.000147241
0.000166813
0.000168529
0.000180758
0.000148138
0.0337717
0.000148533
0.000148937
0.0277858
0.0257257
0.000183018
0.0722709
0.000620578
0.000780512
0.00016066
0.000149788
0.0485906
0.000158322
0.0356443
0.000152866
0.000148996
0.000149919
0.00014666
0.000215345
0.0376683
0.000148951
0.000173327
0.0813667
0.000148621
0.0754191
0.000190675
0.0870419
0.0437598
0.000147421
0.0414587
0.0757667
0.000215274
0.00153607
0.0863985
0.00015079
0.000166614
0.000148925
0.000146427
0.00902632
0.000547569
0.000146334
0.000155984
0.000405723
0.000147504
0.0254916
0.000145692
0.000147565
0.000163428
0.000630432
0.000149772
0.000181799
0.000159483
0.000193119
0.000159158
0.000194093
0.000148895
0.000145817
0.000165864
0.000152741
0.000162267
0.000184379
0.000148085
0.000159293
0.000189042
0.000149846
0.0281228
0.00015613
0.000147363
0.000167489
0.000149114
0.000162453
0.000166848
0.0558913
0.000167498
0.000194636
0.00014543
0.0860914
0.000147363
0.000150449
0.000222587
0.0325474
0.000201684
0.000188539
0.00017381
0.000163292
0.000145962
0.000184319
0.000148002
0.000192806
0.0401551
0.000232059
0.00014829
0.000147498
0.00014597
0.000145375
0.0763688
0.000163402
0.000146788
0.00025731
0.015855
0.000151454
0.0675681
0.0207127
0.000231561
0.000149111
0.0597244
0.000156783
0.000148926
0.0746355
0.000160967
0.00015701
0.000150995
0.000167465
0.000391316
0.00020162
0.000162038
0.000168343
0.000147187
0.000183201
0.000148125
0.000184091
0.000155779
0.000222255
0.015177
0.000145439
0.000150125
0.000194617
0.000149955
0.00015563
0.000183885
0.0850293
0.025028
0.000148075
0.000183615
0.00953808
0.000389628
0.000150235
0.000147209
0.000158716
0.000163469
0.000148098
0.0106019
0.000247231
0.0141907
0.00980657
0.0420018
0.000145992
0.000144157
0.000164332
0.0602718
0.000153963
0.000168198
0.000189395
0.000158547
0.0567677
0.000148292
0.000318121
0.0839599
0.000145289
0.0520821
0.00016064
0.000148275
0.000160702
0.000181102
0.00015168
0.000148957
0.0146641
0.00976308
0.000147393
0.00965186
0.0579503
0.000199121
0.000148043
0.000149246
0.000451182
0.000151368
0.000146226
0.00014738
0.000150812
0.000191285
0.000181267
0.000158661
0.000162709
0.000158768
0.000164149
0.000147028
0.000149844
0.00087042
0.000166614
0.000185174
0.0396801
0.00015424
0.000149629
0.00014986
0.000291723
0.0518052
0.000146068
0.000147275
0.000146071
0.000152068
0.000162664
0.000643599
0.000147887
0.000149047
0.00014559
0.000204855
0.000179742
0.000200462
0.000179527
0.000151505
0.000546864
0.000173695
0.000164516
0.000157616
0.0470035
0.0335233
0.000458999
0.000148168
0.000159945
0.0228386
0.0864406
0.000153892
0.000146018
0.000175359
0.000148458
0.000161243
0.0487229
0.0392106
0.000198168
0.000158333
0.0185713
0.000148147
0.00015271
0.000147537
0.000149468
0.000196559
0.000153213
0.0116776
0.000181916
0.000150755
0.00014742
0.0332812
0.000197515
0.00022579
0.000148128
0.000177621
0.000147124
0.000154401
0.000147907
0.000145498
0.0300374
0.0297422
0.000266864
0.0497172
0.000147385
0.000221836
0.0462117
0.000167674
0.000146157
0.0405504
0.000147287
0.000149218
0.000146402
0.000197614
0.000147793
0.000154682
0.000178851
0.079797
0.000147292
0.0722405
0.000172812
0.000148083
0.000156482
0.000147964
0.000147289
0.00015797
0.000181367
0.000163514
0.0124244
0.000166635
0.000148225
0.00019126
0.039864
0.0373134
0.0419485
0.000195685
0.000150069
0.000145494
0.000146797
0.000149175
0.000198141
0.000170838
0.000164159
0.00016016
0.000160799
0.000395108
0.000188852
0.00014792
0.000162432
0.000781768
0.000150661
0.0403607
0.00015088
0.000148449
0.0299676
0.000156146
0.000149968
0.000388644
0.00020287
0.000164346
0.028049
0.000147829
0.000150263
0.000203639
0.0485259
0.000159745
0.000172533
0.000212456
0.00035227
0.0106993
0.000212
0.000149308
0.000190518
0.000148578
0.000198684
0.000151408
0.0360111
0.000177246
0.010678
0.000163959
0.000186232
0.00014529
0.00226453
0.000145713
0.0279352
0.000147588
0.000195
0.000148296
0.000452738
0.000161987
0.000148489
0.000147273
0.00014635
0.0237487
0.0261926
0.0771525
0.000172735
0.000155106
0.000181564
0.000149785
0.000149908
0.0620624
0.000147284
0.000148329
0.00018958
0.000148126
0.000171955
0.000181585
0.0001483
0.000147779
0.00015589
0.000150474
0.000158859
0.064296
0.000164118
0.000159298
0.000155999
0.00014825
0.000343469
0.00014943
0.000150406
0.000341535
0.0243583
0.00018511
0.000843308
0.000154161
0.000150326
0.0300483
0.000148532
0.0285028
0.000192709
0.00014845
0.0663552
0.000854209
0.000175957
0.000147475
0.000166137
0.0564772
0.00014853
0.000147826
0.000152761
0.000151602
0.000149009
0.000146041
0.000149956
0.0777865
0.000155041
0.0820338
0.000147925
0.000192565
0.0392405
0.000148164
0.000145756
0.000154925
0.000148757
0.000150389
0.000151333
0.00014886
0.000193069
0.00020264
0.000144761
0.0576531
0.0673027
0.0001591
0.000190525
0.000427204
0.000154748
0.000163399
0.000158987
0.0626148
0.000154915
0.000173717
0.000148358
0.0250173
0.000169275
0.000179759
0.000202196
0.0077998
0.000154775
0.000147832
0.000174196
0.000703663
0.000150236
0.000203978
0.000149131
0.0251571
0.000150591
0.000147406
0.00014633
0.000148167
0.0674412
0.0271852
0.000148197
0.000239629
0.000157705
0.0393786
0.0322587
0.000432521
0.00525713
0.000148659
0.0794034
0.000181385
0.000148335
0.000173418
0.0615055
0.0265357
0.000150792
0.000149962
0.000148444
0.00014448
0.025571
0.00019314
0.074037
0.0421472
0.000148383
0.000148837
0.000176623
0.000149862
0.00014666
0.000151285
0.000152158
0.000193461
0.000168927
0.000191621
0.0720503
0.000172922
0.000148336
0.000155707
0.000181938
0.0662985
0.000172712
0.00423078
0.000171994
0.000148231
0.000237382
0.0222158
0.00014992
0.000146281
0.000172541
0.0772574
0.000193916
0.000148128
0.0290552
0.00914525
0.00110474
0.000145562
0.00455473
0.0133818
0.0479289
0.000153195
0.000149249
0.0806558
0.00014996
0.000217693
0.0354998
0.000207726
0.00882947
0.000188519
0.0411571
0.000181674
0.000148697
0.000149894
0.0315393
0.0408643
0.0117117
0.0387583
0.000148564
0.000217721
0.000149834
0.000174177
0.000189527
0.000184461
0.000148482
0.000153829
0.000219486
0.0585212
0.0342912
0.010359
0.000165045
0.000159768
0.000233531
0.00014914
0.000146919
0.000147636
0.000157024
0.000184484
0.000148163
0.000187835
0.000146891
0.000148684
0.000147188
0.0748564
0.000149396
0.000149777
0.000175364
0.000173322
0.000144818
0.0237378
0.000148486
0.000147451
0.000171949
0.000159578
0.000155431
0.000150848
0.00262473
0.000159264
0.000161299
0.0202013
0.000161418
0.0411188
0.000154236
0.000193438
0.0461882
0.0211981
0.000146172
0.0619931
0.00115841
0.000145706
0.0421534
0.000148344
0.000147099
0.000167513
0.000147509
0.000175758
0.0654923
0.000145653
0.0416884
0.000148526
0.000165719
0.0411372
0.000144642
0.0754283
0.000151973
0.000148503
0.000147465
0.000147617
0.000213967
0.00016563
0.0195139
0.00017328
0.0817399
0.00017633
0.000148172
0.000224616
0.012957
0.0109549
0.000166324
0.000200237
0.000181099
0.000156327
0.000212744
0.000150507
0.0025559
0.000148072
0.00510381
0.000151064
0.000166424
0.000155917
0.00014965
0.0679758
0.00014996
0.000146679
0.00549264
0.000152006
0.00014721
0.000171668
0.000180428
0.000215756
0.00152681
0.00220295
0.0450717
0.000148783
0.000149309
0.0332889
0.000147898
0.000265133
0.000190209
0.000152678
0.00014832
0.000160436
0.000147945
0.000148342
0.000160287
0.000255108
0.000191595
0.000172976
0.000169766
0.000148786
0.000179501
0.0846947
0.000146935
0.000189877
0.000153139
0.0642429
0.000151206
0.0535528
0.000148036
0.00185024
0.000149829
0.000186466
0.000148382
0.00015651
0.000162501
0.000144694
0.000147309
0.000145064
0.0278597
0.0109605
0.000164102
0.0790992
0.00014827
0.000170389
0.00015836
0.000232024
0.0292206
0.000164245
0.000144885
0.000180329
0.000146895
0.000148262
0.000158461
0.0259037
0.0816635
0.00246293
0.000491215
0.000165936
0.000150677
0.000147671
0.00150315
0.000147124
0.00519002
0.00015828
0.000149166
0.0721922
0.089881
0.0001485
0.0242743
0.000156298
0.000194402
0.000169611
0.000776082
0.089127
0.000298652
0.000147823
0.000144696
0.0710925
0.00014813
0.000148131
0.000158887
0.00014821
0.0200558
0.00023179
0.00017667
0.0712721
0.000173002
0.000200991
0.000152997
0.000147777
0.000144614
0.000146366
0.0249725
0.0227845
0.000240954
0.000148293
0.000144822
0.000162957
0.000147439
0.00016767
0.000154295
0.000644837
0.0628284
0.000187549
0.000237388
0.00024413
0.000147937
0.000210325
0.000147698
0.0316371
0.0012617
0.0401882
0.0703241
0.000152284
0.000160451
0.000689293
0.0703284
0.0420299
0.000161401
0.000183351
0.0372821
0.000148171
0.000233778
0.000238992
0.000199481
0.000148129
0.000148361
0.000169019
0.0420389
0.000343708
0.000170749
0.000147905
0.000155885
0.00015622
0.017021
0.000149476
0.000231425
0.000147153
0.000150437
0.000199078
0.000146942
0.000148071
0.000151594
0.00015575
0.00014768
0.000150449
0.000145629
0.00180138
0.000257943
0.0302261
0.000146106
0.000162955
0.000148044
0.000227176
0.000222659
0.000161426
0.000147181
0.000151435
0.000217358
0.000199083
0.00015963
0.0316085
0.000198487
0.000147877
0.000148388
0.0408889
0.00132069
0.000168824
0.000145341
0.000352111
0.000148735
0.000164916
0.000145964
0.000457553
0.0495456
0.000146888
0.000148968
0.00847533
0.000147895
0.0572742
0.0227802
0.000179392
0.000149219
0.000149023
0.000145938
0.000148079
0.0096598
0.0124368
0.000185935
0.00015081
0.0473319
0.0001477
0.00014756
0.0896474
0.00014709
0.0766956
0.000144526
0.000156423
0.000151339
0.000147546
0.000147377
0.000148698
0.0405416
0.000150039
0.000149228
0.000172499
0.000169288
0.000147674
0.000172785
0.00016235
0.000148734
0.000182317
0.000147688
0.000161358
0.0536579
0.0001914
0.000147726
0.000238813
0.000191125
0.000179795
0.000155364
0.000180981
0.064259
0.000153612
0.000176403
0.000147609
0.000145966
0.000147958
0.000172769
0.00016256
0.000173977
0.000148097
0.00015784
0.000181606
0.0188961
0.000234047
0.000147549
0.000146578
0.000150739
0.000175319
0.000146681
0.0235763
0.000147642
0.000148078
0.000146582
0.000188074
0.0711375
0.000148942
0.000152552
0.000147044
0.000190744
0.000146542
0.000147908
0.000394909
0.000149784
0.000146097
0.000148779
0.000187668
0.000146454
0.00014785
0.041166
0.0172481
0.000195938
0.000160963
0.0727977
0.000163118
0.000147609
0.000147304
0.0132257
0.000147914
0.000181523
0.000188022
0.000168527
0.000155006
0.000150324
0.000158342
0.000150753
0.000145375
0.000200373
0.067553
0.000163522
0.000146394
0.0500319
0.000173114
0.0119076
0.00795007
0.000193767
0.000148843
0.000148317
0.000148089
0.000179651
0.000148748
0.000147349
0.0763552
0.000173012
0.000172146
0.000147308
0.000170404
0.000239269
0.000148543
0.00015503
0.000161888
0.000171869
0.000183102
0.000148505
0.000151952
0.000166557
0.000146625
0.000165234
0.000149482
0.00191365
0.000174348
0.000192568
0.000147355
0.000164396
0.0723562
0.0400843
0.000357886
0.000168839
0.0199521
0.000148772
0.000147627
0.000150508
0.000180934
0.000149051
0.000151428
0.000157797
0.000179618
0.000147868
0.000147548
0.000148804
0.000149832
0.000250035
0.0375258
0.00339432
0.000147933
0.0200279
0.000156588
0.000148944
0.000164018
0.000148188
0.000182513
0.000151104
0.000147918
0.0507671
0.00877348
0.065918
0.000150221
0.0107669
0.00014791
0.039989
0.0534133
0.000145177
0.000179875
0.000236156
0.000145382
0.000147585
0.0185515
0.0001501
0.000148044
0.000196075
0.000666866
0.000148041
0.000161971
0.000148913
0.000155131
0.000198951
0.00014903
0.0582964
0.000172034
0.000147586
0.00070546
0.000167711
0.000185446
0.000149914
0.000241035
0.000148623
0.0711386
0.000147892
0.000146717
0.0588012
0.000145799
0.0702206
0.000147627
0.000172603
0.0775602
0.0544895
0.000148297
0.000149432
0.000148118
0.000151209
0.000156597
0.000154751
0.000144272
0.010632
0.000147108
0.000148478
0.000187519
0.000179893
0.000163569
0.000148037
0.0250993
0.000183606
0.000149772
0.000158939
0.000147464
0.000147201
0.0827948
0.000145429
0.000146768
0.000147465
0.0742215
0.000147878
0.00014726
0.0727472
0.000155236
0.0427957
0.000164288
0.0001445
0.000147018
0.0168628
0.000157525
0.000148021
0.0831034
0.0457904
0.000146442
0.0418474
0.000191529
0.000148593
0.000148307
0.000190642
0.000149425
0.0003504
0.000159992
0.000148071
0.00214513
0.0364176
0.000225255
0.000147868
0.0251902
0.000157904
0.000185859
0.000439888
0.000147512
0.0217479
0.000147987
0.000157694
0.000157692
0.0573993
0.000145724
0.000150453
0.000464752
0.000149806
0.000159071
0.000145759
0.000148709
0.0394016
0.000180312
0.000153776
0.000163909
0.00422951
0.000149322
0.000151838
0.000174384
0.000199828
0.000155984
0.000147813
0.000147403
0.000148887
0.000150302
0.0001468
0.000159836
0.000156746
0.000547098
0.000147915
0.00871115
0.000148322
0.000160234
0.000147763
0.000160935
0.000148681
0.000147568
0.0395834
0.0599488
0.000153008
0.000148551
0.0363613
0.000156787
0.0592446
0.000159525
0.000165393
0.0434812
0.00898188
0.0397456
0.000152125
0.000148898
0.000146516
0.0392344
0.000147514
0.000148068
0.000174206
0.000147487
0.000149169
0.000148354
0.0150698
0.00532203
0.000149136
0.000463518
0.0633692
0.000153372
0.000147428
0.000148969
0.0456991
0.000147337
0.000191847
0.000149915
0.000147744
0.000149194
0.000146451
0.000184547
0.000148494
0.000148253
0.000147332
0.000145456
0.000243344
0.000145285
0.000147521
0.000149296
0.000147841
0.000238059
0.000363216
0.000167479
0.000150219
0.000148237
0.000149222
0.000149452
0.0456561
0.000147758
0.000159172
0.000166905
0.0484977
0.000147563
0.00014734
0.0514555
0.000148735
0.00017562
0.000181082
0.00014989
0.0570049
0.0482953
0.000157427
0.0143741
0.000158482
0.000198984
0.00014465
0.00759677
0.000148206
0.00155099
0.000148275
0.000147256
0.00499529
0.0002675
0.000202672
0.000172484
0.000147272
0.0733087
0.000149104
0.0804661
0.000175239
0.000147385
0.000144717
0.000148712
0.000171386
0.000166713
0.073693
0.000170076
0.000147446
0.000147423
0.000148567
0.0203492
0.000178839
0.000159455
0.000148879
0.000147283
0.000160363
0.000213147
0.00014883
0.000159539
0.000165493
0.000147741
0.000153157
0.000150966
0.000176091
0.000174865
0.000153493
0.000166701
0.000145779
0.000148044
0.0294069
0.000165697
0.000183192
0.00485941
0.000145405
0.0248133
0.00305663
0.000163029
0.0727927
0.000147579
0.0203482
0.0380249
0.00019488
0.000146432
0.0817476
0.000201276
0.000147854
0.00016777
0.0447179
0.000150387
0.000147717
0.000164718
0.00014979
0.0287685
0.000157823
0.000149156
0.00014987
0.000147102
0.000164939
0.000164769
0.0243121
0.000192245
0.0342067
0.000174375
0.000149715
0.000147607
0.000237482
0.024409
0.000147996
0.000147669
0.000190988
0.000149264
0.000241038
0.0264149
0.0224825
0.00014787
0.000148093
0.0822985
0.000146668
0.0650194
0.000215673
0.000147013
0.0348812
0.000175036
0.000167585
0.000147834
0.00723286
0.000148099
0.000367769
0.000144424
0.000172977
0.000151602
0.000145961
0.0874452
0.000151126
0.000148047
0.000152012
0.0408395
0.000148456
0.00014524
0.0285661
0.000147488
0.000146893
0.000148719
0.000156212
0.000148326
0.000149168
0.000156356
0.000149125
0.000154581
0.000145676
0.000187288
0.0258041
0.000172796
0.0391103
0.000159755
0.000154748
0.000147222
0.000146705
0.000149036
0.0266358
0.0419509
0.000148014
0.000149837
0.00014739
0.0222558
0.000145178
0.000233988
0.000328641
0.04623
0.068496
0.0316917
0.0429668
0.000146855
0.0354986
0.0431144
0.0613535
0.000154958
0.000148865
0.000171422
0.00014573
0.0202801
0.000197839
0.000176327
0.000156751
0.0299534
0.000147972
0.000144284
0.0302309
0.000200219
0.00014838
0.000144553
0.000172263
0.00014871
0.0283474
0.0187945
0.0310885
0.0382133
0.000186255
0.00233324
0.00014797
0.000229254
0.000148655
0.000147844
0.000146747
0.032222
0.000149012
0.00014751
0.000490282
0.0350835
0.000206859
0.000201428
0.000151
0.00016519
0.0264648
0.0181014
0.0214646
0.0381427
0.000171627
0.0695231
0.00018035
0.000708673
0.000173322
0.000170352
0.000147238
0.00016094
0.00016419
0.000148284
0.0157528
0.00014705
0.000148347
0.00014798
0.07794
0.000154215
0.000146589
0.000147283
0.000147883
0.000176444
0.000169694
0.00456617
0.000151114
0.0349449
0.00014458
0.000147509
0.000184445
0.000167044
0.000144383
0.047308
0.00017014
0.0691434
0.000147805
0.0310713
0.000166696
0.000147507
0.000148329
0.000147874
0.0345856
0.0739999
0.0135782
0.000147735
0.000149258
0.000145033
0.0696265
0.000156584
0.000148364
0.00109359
0.000147707
0.000150299
0.0420643
0.000146228
0.000147736
0.000148397
0.000149887
0.000144532
0.000150669
0.000144463
0.000149157
0.000185988
0.000166313
0.000146739
0.0198011
0.000152916
0.0705615
0.0165108
0.000165403
0.0556964
0.069716
0.000147423
0.000170543
0.00014806
0.000147282
0.0119009
0.000154963
0.0609873
0.000155461
0.000199418
0.000148633
0.000151372
0.000147279
0.0447195
0.00016191
0.0358804
0.000149059
0.000189691
0.000160599
0.000146479
0.0001669
0.000169524
0.000144992
0.0869803
0.000148577
0.000169945
0.000147946
0.000157736
0.000166937
0.000219268
0.000155358
0.000185814
0.00448869
0.00016052
0.000169623
0.000146113
0.0701793
0.000173502
0.000149792
0.000175732
0.00267564
0.0165426
0.000147913
0.000151065
0.000149073
0.000145672
0.000147818
0.0509397
0.000159623
0.000148468
0.0259771
0.000148678
0.000145138
0.000154533
0.0665633
0.000148966
0.0265207
0.0402046
0.000169986
0.0330088
0.000150722
0.0695796
0.000363823
0.00014521
0.000160439
0.00014832
0.000150165
0.000168168
0.0129582
0.000179564
0.000461043
0.000198832
0.000147649
0.0662134
0.000147236
0.0417276
0.000149771
0.0377238
0.0397269
0.000148984
0.000147177
0.000149846
0.000164105
0.000184339
0.000147655
0.0191344
0.000152008
0.000170892
0.00017369
0.000151314
0.000147364
0.0411518
0.000146703
0.000220911
0.000157457
0.0133359
0.000148756
0.000147523
0.0407708
0.000144194
0.000146225
0.00015021
0.000173722
0.000174033
0.000227765
0.000152828
0.000146483
0.000155023
0.000149457
0.000150029
0.06698
0.000147535
0.000166882
0.0648851
0.000216391
0.000147753
0.00018355
0.000147905
0.000149335
0.000187501
0.000207429
0.000184001
0.000149558
0.000147736
0.000152989
0.000187908
0.000147902
0.000162132
0.00014762
0.000149336
0.000146784
0.000148931
0.0452325
0.000144791
0.077545
0.000439318
0.000154283
0.000145949
0.0241037
0.0499028
0.000147219
0.000147833
0.0721121
0.000149491
0.000164643
0.000182632
0.00100692
0.000147329
0.00015052
0.000170652
0.000147884
0.0854479
0.000202751
0.000147436
0.000159342
0.000164337
0.00014851
0.000185198
0.000148937
0.0001634
0.000150922
0.000154281
0.000144573
0.000147671
0.000228354
0.000148261
0.0710415
0.000182648
0.000148186
0.000148129
0.000147755
0.000147186
0.0615534
0.000149795
0.000194921
0.000147217
0.000147203
0.000172873
0.0520686
0.0001463
0.000144877
0.000147776
0.000150194
0.000159868
0.000160195
0.0301274
0.00016072
0.000146743
0.000199603
0.0709245
0.000149359
0.000161921
0.039792
0.000164574
0.000149843
0.0026714
0.000144575
0.0314597
0.000171588
0.000148368
0.000186884
0.000147805
0.00014752
0.000148253
0.0399578
0.0001483
0.000363506
0.0706465
0.000459553
0.000161583
0.000147606
0.025385
0.000149839
0.0144831
0.000146471
0.000243026
0.000154219
0.0001885
0.000150251
0.0349581
0.000159756
0.000149449
0.0404481
0.0372438
0.0001449
0.000343925
0.000147785
0.000159251
0.000147012
0.0067709
0.000853251
0.000149459
0.000148494
0.052264
0.00018503
0.000146854
0.000151676
0.000148128
0.000146516
0.000146112
0.000152453
0.0241276
0.0232496
0.000149898
0.000178081
0.00015384
0.000182148
0.000147893
0.00685538
0.0354668
0.0208072
0.000150288
0.0714315
0.0251851
0.000153525
0.000160699
0.000147202
0.00017561
0.0393276
0.000149236
0.00014609
0.000146435
0.000157681
0.000145065
0.000147893
0.00103814
0.000151073
0.000179752
0.000148332
0.000147685
0.000153796
0.000148158
0.000206186
0.0738659
0.000146366
0.000171854
0.000144926
0.0733914
0.000147471
0.000152726
0.03839
0.000249221
0.000154362
0.0283592
0.000186666
0.000148353
0.000168128
0.00014879
0.000164167
0.000149524
0.000147356
0.000204011
0.000193219
0.0472313
0.000196931
0.000158795
0.0055762
0.00015292
0.000168816
0.000150951
0.0636446
0.0473433
0.0329757
0.000147762
0.000144458
0.0331602
0.0393768
0.000148775
0.0227382
0.000148834
0.000156673
0.000144309
0.000147875
0.000147615
0.000147582
0.000226861
0.000161188
0.000164077
0.000147999
0.000148081
0.00014538
0.000146663
0.000146564
0.000149726
0.000147425
0.0542569
0.0444152
0.0444504
0.000152248
0.0684469
0.000174901
0.0855941
0.0671491
0.000174735
0.000148645
0.000149145
0.000180685
0.000149744
0.0219134
0.0277311
0.000150244
0.000145774
0.000162827
0.0506293
0.000147903
0.0701392
0.000148006
0.000148572
0.0886411
0.000147518
0.000156382
0.000149017
0.0370842
0.000145831
0.000147736
0.000210326
0.000145813
0.000148302
0.000147743
0.000145805
0.000165588
0.000147419
0.00825736
0.000148035
0.000149394
0.000144447
0.0243738
0.000161946
0.000149148
0.0654678
0.000148489
0.000145549
0.000224556
0.000465215
0.000148714
0.0797139
0.0719951
0.000156188
0.0444693
0.000148632
0.000148321
0.000190655
0.000146374
0.0461246
0.0473984
0.000144358
0.00015748
0.000147465
0.0164903
0.000433823
0.000171663
0.00014887
0.00039205
0.000159682
0.000174157
0.00015654
0.000148045
0.000150492
0.000147443
0.00014665
0.0369699
0.000144012
0.000146648
0.000169038
0.0302279
0.000186013
0.0758883
0.000147944
0.00016201
0.000147965
0.000148541
0.000148651
0.000146394
0.00014893
0.000147355
0.000148577
0.00014907
0.000154113
0.000148351
0.000149118
0.000145845
0.0168804
0.0883154
0.000149329
0.000150962
0.0504706
0.000149344
0.000200001
0.0332025
0.000272714
0.0882248
0.000246598
0.0883076
0.0049476
0.025267
0.000147574
0.000160137
0.000147413
0.000169099
0.000153977
0.000149443
0.000147314
0.0220829
0.000145932
0.000156847
0.0755225
0.000145588
0.000146945
0.000174405
0.000145838
0.000147705
0.000147519
0.000149551
0.0487735
0.0180505
0.000148155
0.000147757
0.000148301
0.000150791
0.000161811
0.000150875
0.00290918
0.00019461
0.000149226
0.0549609
0.000163294
0.000147692
0.044312
0.000145708
0.000176195
0.000146329
0.000149732
0.000149753
0.0459885
0.000147788
0.000147595
0.000153339
0.000149602
0.000160581
0.000146873
0.0358213
0.000166531
0.000162624
0.00845534
0.08217
0.000196305
0.000164291
0.0245632
0.000148292
0.000147917
0.000155273
0.0524025
0.000176898
0.00016844
0.0287705
0.000147693
0.000971614
0.000202377
0.00690258
0.000147984
0.00015994
0.00014721
0.000190212
0.000158268
0.000499162
0.0786864
0.000147982
0.000163663
0.000156128
0.000148084
0.000304845
0.000147919
0.000162368
0.000175731
0.000182144
0.000147807
0.000149962
0.000149478
0.000173291
0.000147488
0.000149597
0.00014786
0.000148407
0.000146366
0.000160765
0.00014467
0.00029374
0.0484019
0.000150075
0.000146617
0.000145457
0.000163343
0.000159402
0.000148745
0.0374586
0.000162724
0.00014651
0.000146549
0.0611706
0.04794
0.000147409
0.000218425
0.000159127
0.000147996
0.0216218
0.000154838
0.000175789
0.000149518
0.034398
0.0787736
0.00014968
0.000165595
0.0450482
0.000162444
0.0580204
0.000149558
0.000154149
0.0552863
0.0710227
0.000155207
0.000153895
0.000150126
0.000152688
0.000151687
0.0330016
0.0480151
0.0401426
0.000153556
0.000148351
0.000178486
0.000147736
0.000207626
0.000153909
0.0284024
0.000145805
0.000149191
0.000147304
0.00014819
0.000146776
0.000186376
0.0834637
0.000157908
0.000145456
0.000148593
0.0141136
0.000152001
0.000152489
0.000148947
0.000165384
0.0462595
0.00014583
0.000147751
0.000169076
0.000184805
0.000148663
0.000169512
0.000149389
0.000152234
0.000200375
0.000156593
0.0750173
0.0007374
0.000163295
0.0696779
0.000146857
0.000147773
0.000151254
0.0822981
0.000151368
0.000317065
0.000145894
0.047351
0.000165298
0.000147149
0.000159762
0.00014945
0.0637271
0.000173998
0.00016076
0.000197704
0.000196382
0.000148918
0.000149272
0.000149484
0.000154744
0.0476193
0.000176838
0.000148598
0.000214557
0.000148034
0.0830056
0.000147805
0.0723235
0.000159897
0.0845666
0.000822039
0.000165947
0.00014794
0.00014801
0.000146937
0.0794582
0.000148849
0.000176358
0.0402693
0.000144576
0.0290874
0.000158885
0.000147825
0.000187001
0.000147264
0.000147944
0.0367916
0.00742523
0.0346298
0.000147418
0.000146382
0.000150591
0.000154159
0.000151199
0.000148306
0.052522
0.000186587
0.000354827
0.000150225
0.000163765
0.000559814
0.000232179
0.000157584
0.000146665
0.022641
0.000150937
0.0501826
0.000147473
0.000148069
0.000147901
0.000146463
0.00014456
0.000149965
0.000146372
0.000159805
0.0747872
0.00016531
0.0489192
0.000153746
0.000149331
0.000148734
0.00019938
0.000148098
0.000150191
0.000148205
0.0311385
0.00862564
0.00014635
0.000153687
0.000147178
0.000147905
0.000149842
0.000148342
0.000147387
0.000268383
0.000149193
0.000147382
0.00019146
0.0001469
0.00559416
0.00018769
0.000190421
0.000214301
0.000153747
0.000148433
0.0493391
0.000148715
0.000185907
0.000161301
0.000146877
0.000168936
0.000148311
0.0763867
0.000145649
0.000147511
0.0733863
0.000174305
0.0202621
0.000146147
0.000188745
0.000191022
0.000158516
0.0410064
0.000147019
0.000146561
0.000145749
0.000171831
0.00015041
0.0020233
0.000147974
0.000170363
0.0425809
0.000217336
0.000148053
0.000235207
0.000153615
0.0281649
0.000151782
0.000152852
0.000153489
0.0131398
0.00014786
0.000149679
0.0586012
0.000145575
0.000154652
0.000147267
0.000161995
0.0627647
0.0706703
0.000147712
0.000169702
0.000147977
0.000238317
0.000148058
0.000149831
0.000189347
0.00756457
0.00016255
0.000147869
0.000154134
0.0100888
0.000172174
0.000186663
0.0803415
0.000148079
0.0241483
0.000157691
0.000193186
0.000147737
0.000154758
0.0661582
0.000153811
0.000147311
0.000210551
0.0277828
0.0675649
0.000146036
0.0463628
0.000282928
0.000146391
0.000193593
0.0259962
0.000149841
0.000151695
0.00147194
0.000144416
0.000149776
0.000146655
0.000148549
0.000193549
0.000184656
0.00016662
0.0433019
0.000149789
0.000163684
0.000156671
0.000149101
0.000151278
0.000166228
0.0001484
0.000149469
0.0862834
0.0410937
0.0287846
0.00014649
0.000166292
0.000148813
0.0512956
0.000148517
0.000167129
0.0805064
0.0174701
0.00016539
0.000148348
0.000282567
0.0367644
0.00154153
0.000147931
0.000148742
0.000146803
0.0836831
0.000166169
0.000199271
0.0720447
0.000148655
0.00014935
0.0412833
0.000156272
0.000182113
0.000149082
0.000147394
0.00014801
0.00144001
0.000148337
0.000177104
0.00014706
0.000148645
0.000146422
0.0440931
0.0415119
0.000152257
0.000222124
0.000151115
0.000560178
0.000147347
0.00014721
0.000188244
0.00014851
0.00014749
0.000153722
0.000174783
0.000160251
0.00018774
0.000148505
0.000181436
0.0740876
0.000148682
0.000149412
0.000148307
0.0711046
0.000165779
0.00016235
0.00018846
0.000147022
0.000148134
0.000173802
0.00015669
0.00306133
0.0848459
0.000162007
0.0530577
0.0312329
0.0428739
0.000177052
0.000149371
0.000147838
0.000236031
0.0601424
0.000147038
0.000162041
0.0322363
0.000148615
0.000222401
0.000289178
0.000201473
0.000147521
0.000189923
0.000148798
0.000148604
0.00014653
0.000209642
0.000148895
0.000177216
0.000168525
0.000147727
0.000149153
0.0150176
0.000147271
0.000145278
0.000173285
0.00148473
0.000167783
0.000148074
0.000163087
0.0449232
0.0436997
0.000159391
0.0397925
0.00018841
0.000178737
0.00016832
0.000148967
0.000172927
0.000158091
0.00014592
0.000147004
0.000149602
0.000156626
0.000240437
0.0470491
0.000149403
0.000387715
0.000173859
0.000687586
0.0467801
0.000236408
0.0519219
0.000200637
0.046012
0.000172162
0.0484652
0.000179174
0.000147948
0.000148896
0.083671
0.0393511
0.000197007
0.0159423
0.000147158
0.0479108
0.0501168
0.000148125
0.000145414
0.000163661
0.00017876
0.0423996
0.0251274
0.000179815
0.000146936
0.000147521
0.000149399
0.0863922
0.000153772
0.0365197
0.00015489
0.0487526
0.000208327
0.042201
0.000158828
0.0485813
0.000146657
0.000145182
0.000154549
0.000149009
0.0572237
0.000190338
0.0503095
0.000148551
0.0404784