/*--------------------------------*- C++ -*----------------------------------*\
| =========                 |                                                 |
| \\      /  F ield         | OpenFOAM: The Open Source CFD Toolbox           |
|  \\    /   O peration     | Version:  v2012                                 |
|   \\  /    A nd           | Website:  www.openfoam.com                      |
|    \\/     M anipulation  |                                                 |
\*---------------------------------------------------------------------------*/
FoamFile
{
    version     2.0;
    format      ascii;
    class       surfaceScalarField;
    location    "350";
    object      meshPhiCN_0;
}
// * * * * * * * * * * * * * * * * * * * * * * * * * * * * * * * * * * * * * //

dimensions      [0 3 -1 0 0 0 0];
oriented        oriented;


internalField   nonuniform List<scalar> 
27284
(
-0.000120236
0.000199014
-7.88488e-05
0.000100802
-9.24352e-05
-1.1328e-05
-7.12093e-05
-5.97814e-05
0.000130965
6.4316e-05
-0.000101678
2.98548e-05
-1.13177e-05
-0.000211623
0.000221699
0.000221261
6.24852e-05
-0.0002845
-0.000137124
0.000218567
-8.28834e-05
-0.000220855
0.000208309
1.59818e-05
-2.1537e-05
-2.76637e-07
-0.000150634
0.000177238
-2.71677e-05
-0.000325839
0.000110521
0.000214472
-0.000123957
6.00911e-05
6.38444e-05
-4.38017e-05
-8.01745e-05
-8.70003e-05
-0.00015844
0.00024516
3.70662e-05
-3.65215e-05
-6.75069e-06
-5.41376e-05
7.30938e-05
-2.115e-05
8.64456e-05
-3.10937e-05
6.61121e-05
-0.000273383
0.000206396
-7.67795e-05
-7.98452e-05
0.000156578
-0.00012814
-7.23786e-05
0.000199148
-9.96249e-05
0.00022374
-0.000124224
-5.54173e-05
0.00026217
-0.000208378
3.66631e-05
-7.39242e-05
3.29411e-05
-5.40042e-05
0.000274418
-2.74587e-05
6.0303e-05
-0.000198712
0.000271835
-7.4965e-05
-5.80403e-05
-0.000174432
0.000229957
0.000165033
-1.81099e-05
-0.000154405
1.17721e-05
-1.11088e-06
-0.000305291
0.00011917
0.000185555
-0.00012208
-0.000103487
0.000225457
-8.79158e-05
0.000247464
-0.000159865
6.87358e-05
9.70728e-06
-7.9944e-05
-4.03475e-05
-3.6271e-06
4.21473e-05
-1.8669e-07
-1.58965e-07
2.15262e-07
-0.00016947
0.000230158
-6.16645e-05
-0.000111964
-8.36119e-05
0.000195331
2.38615e-05
-0.000194149
-0.000105115
-0.000200742
0.000270476
-0.000235115
-3.64522e-05
-2.0027e-05
-2.21948e-05
2.71801e-05
-0.000207291
-6.7919e-06
-4.20306e-05
4.69853e-05
-8.29391e-05
0.000100669
-2.0719e-05
1.50426e-05
-8.06345e-05
0.000103017
-2.23906e-05
0.000162048
2.36608e-05
-0.000190443
-2.15011e-05
0.000178832
0.000148658
-0.000271132
4.42349e-05
0.000223665
-1.16565e-05
5.7456e-06
4.03245e-06
-0.000126814
0.000208427
-8.16476e-05
-0.000223166
-5.0934e-05
9.30307e-05
-0.000166584
7.34823e-05
-0.000265764
8.21697e-05
0.000177552
8.40063e-05
-0.000213669
-3.32046e-06
1.49258e-06
1.00464e-06
0.000234642
-0.000272955
7.23932e-05
9.58831e-05
-3.36567e-05
-6.22308e-05
-4.90027e-05
-5.49713e-05
-7.06702e-05
0.000125599
0.000181774
-8.88404e-05
-0.000121035
4.05739e-05
7.93274e-05
-1.02602e-06
-0.000168534
0.000169341
1.10968e-05
-1.02712e-05
-2.80939e-06
3.99445e-05
0.000146315
-0.000186869
4.06061e-05
-0.000152771
-3.60089e-05
-5.24399e-06
3.97112e-05
0.00029122
-0.000195471
-9.65384e-05
0.000163676
-0.000212679
4.6177e-05
-0.000131411
-0.000138895
4.24133e-05
-0.000228831
0.000186086
-0.00028425
7.04876e-05
0.000213013
2.90285e-05
-0.000199263
0.000169414
-4.05879e-05
-6.37847e-06
4.52905e-05
0.00020649
2.81026e-05
3.56274e-06
-4.58595e-05
0.000199681
-3.84999e-05
-0.000179345
0.00020751
-0.000166178
0.000205446
0.000169062
-0.000241064
7.12995e-05
-4.39614e-05
0.000183224
1.62893e-05
-0.000200097
0.000232864
-0.000100097
-0.000132933
-7.18253e-06
-2.61762e-06
6.34815e-06
-4.18525e-05
1.85609e-05
1.31036e-05
-5.37548e-05
0.000186181
-0.000132659
-0.000174475
-1.47229e-05
0.000184777
0.000142179
-0.00019618
2.58196e-05
0.000185846
-0.000271851
0.000182813
8.88955e-05
-9.94424e-05
0.000267634
0.000247038
-0.000205803
-0.000308567
0.000117962
0.000190133
0.000123662
-4.61117e-05
-7.85974e-05
-0.00016984
5.23444e-05
0.000112601
3.87815e-05
8.36489e-05
2.42337e-05
-0.000141256
0.000116936
0.000204985
2.18438e-05
-0.000228152
0.000148138
8.45396e-05
0.000168813
2.78262e-05
4.36169e-05
0.000200517
9.17572e-07
-1.34442e-06
3.00529e-07
3.99541e-06
-0.000188646
0.000184106
-8.32001e-05
2.6297e-05
-0.000184049
0.000182784
-9.13101e-05
-0.000217058
0.000228778
-0.000116463
-0.000112517
-2.18569e-06
-5.35218e-05
5.36485e-05
-2.69977e-06
-1.38576e-06
-3.14715e-06
2.83012e-06
-1.28477e-06
3.19341e-05
-0.000186085
0.00015395
-1.97672e-05
0.000202423
-9.46141e-05
0.000116518
-2.19133e-05
-0.000230619
5.4278e-05
0.000175885
0.000210678
-4.47395e-05
3.14626e-05
-0.00021183
3.55767e-05
-0.000222921
0.00018656
0.000295992
-0.000150394
0.00012906
0.000161852
4.85134e-05
-0.000119744
0.000243708
0.000225183
-0.000110786
-0.000114586
-0.000162782
0.000193331
9.17237e-05
-8.08439e-05
-1.08875e-05
-0.00019716
6.45388e-05
1.3081e-05
-0.000201388
8.10906e-05
0.000259143
-0.00023818
-2.25186e-05
-4.63166e-05
-0.000128311
-0.000247715
0.000120865
-0.000248097
0.000163595
8.13558e-05
0.000178451
-8.08499e-05
-9.76643e-05
-6.1898e-05
0.000159962
-9.81415e-05
0.000149876
1.71436e-05
-0.000170792
-0.000153971
7.71522e-05
0.000168764
7.26782e-05
-0.000241957
6.73901e-05
2.36661e-06
-8.13618e-05
-0.000127922
-0.000144047
-5.12465e-06
0.000141919
-0.000137089
4.14857e-05
0.000179272
-0.000221504
-0.000153989
0.000183295
-3.37226e-05
9.34954e-05
0.000143695
0.00011893
-0.00018092
5.08341e-05
-3.60879e-05
-2.42375e-05
-3.66371e-05
-6.29571e-05
9.95892e-05
-3.20811e-06
1.17375e-06
2.01022e-06
-0.000164855
0.000196572
3.53183e-06
-5.28697e-06
1.76444e-06
0.000154404
2.99896e-06
0.000118494
0.00017681
-0.000142166
4.42167e-05
9.65587e-05
-4.1211e-05
-0.00017085
0.000211147
-5.31028e-05
9.19874e-06
4.30782e-05
-2.54785e-05
-2.17293e-05
-1.35655e-05
6.90553e-05
1.67256e-06
-1.1581e-05
8.60319e-08
-0.00015722
1.72817e-05
2.05566e-05
0.000253213
-5.54026e-05
-0.000198493
-7.09446e-05
-0.000179565
-4.48868e-05
4.10721e-05
-4.35581e-05
-0.000177767
0.000220358
0.000274653
-7.01227e-05
-0.000205304
0.000108417
-0.000155616
4.66408e-05
4.41791e-05
-8.08202e-05
8.02736e-05
-0.000196051
0.00011571
0.000149435
7.32135e-05
-0.000222724
-0.000166214
0.000160741
-2.13103e-06
-1.788e-06
2.47168e-06
8.83109e-05
9.00699e-05
-4.48863e-06
-4.08649e-06
5.44293e-06
-0.000112471
0.000261159
-7.81632e-07
-8.69081e-07
1.05288e-06
1.97967e-05
1.87176e-05
1.49099e-06
-6.12866e-06
1.64463e-06
-7.67785e-09
-1.66251e-06
0.000256726
-0.000133127
-0.0001243
6.81246e-05
0.000123785
-0.000192361
-5.04334e-06
-5.08928e-06
6.48927e-06
0.000146802
-3.89474e-05
-0.000221508
-1.79704e-05
0.000238058
3.33976e-05
-0.000167107
0.000128658
-0.000145111
0.000119964
2.43458e-05
0.00024188
-0.000201064
1.26759e-06
1.09744e-05
-1.6842e-05
5.06608e-05
-0.000200816
0.000149906
-0.000191872
3.84381e-05
0.000144613
-0.000193292
1.66688e-05
-8.15621e-06
9.98712e-05
0.000134628
-0.000110473
-0.000119957
9.60753e-05
2.07089e-05
4.06051e-05
6.26227e-06
-4.81085e-05
-7.20343e-05
8.59817e-05
-2.84234e-05
-7.84023e-05
0.000120978
-4.25872e-05
-8.39735e-06
-5.09014e-06
-0.000119894
0.000198378
-7.85257e-05
8.18222e-06
-0.000103475
-0.000295149
0.000207777
2.82924e-05
0.000211248
-3.84711e-05
-0.000227689
0.00026499
-0.000298709
0.00019303
9.43971e-06
8.8308e-07
-1.41971e-05
0.000197606
-0.000117399
-8.2985e-05
0.000271862
-0.000190909
-6.54241e-05
0.000214791
-0.000110498
0.00013929
-7.34211e-05
8.81365e-05
-1.63613e-05
-0.000146485
4.00467e-05
0.000104914
-0.000217104
0.000228075
-1.28883e-05
0.000224151
-0.000267924
4.33083e-05
0.000155095
-4.34178e-05
-0.000112987
5.34503e-05
0.000100349
-2.24294e-06
-1.02856e-06
0.000166063
-0.000278576
-0.000137942
0.000205594
-0.000143034
0.000166491
-2.37806e-05
0.000294212
-8.38725e-05
-0.000212357
0.00021732
-6.8356e-05
-0.000153478
9.24968e-05
0.000136026
-3.36361e-05
-6.96935e-06
3.95016e-05
-0.000134611
-5.24606e-05
0.000186859
1.30934e-05
-9.29863e-05
7.90746e-05
0.000284943
-0.000238064
-4.75769e-05
-4.60889e-05
0.000177633
-0.000132901
-7.21071e-06
-3.71918e-05
4.32306e-05
-6.27631e-05
0.000231157
0.000108776
-0.000221853
0.000112995
2.50318e-05
-0.000210611
0.000185201
-0.000146449
0.00017156
-2.69671e-05
-0.000162657
1.47549e-05
7.2852e-05
-8.80854e-05
-4.19645e-05
0.000171387
-0.000215742
0.000233586
5.0074e-05
-0.000258672
5.59976e-05
0.000201549
-8.87985e-05
3.13533e-05
-0.000149872
0.000118177
0.0001486
-9.63273e-05
-0.000136349
4.4484e-05
8.8974e-05
0.00013418
0.000121967
4.52501e-05
0.000101962
-0.000198229
1.56588e-05
0.000182212
0.000209034
-0.000251719
7.20983e-05
0.000173632
2.00317e-05
-0.000165922
0.000141004
0.000268299
-4.46092e-05
0.000180861
-0.000263125
8.16921e-05
0.000241933
-0.000211
-3.35662e-05
-4.08929e-05
-8.12166e-05
-8.75828e-05
6.75145e-05
-0.000117841
5.03044e-05
-8.46652e-05
9.6911e-05
1.29243e-06
2.63758e-07
3.8626e-06
-9.02387e-05
8.55305e-05
-0.000123577
0.000154595
-5.87488e-05
5.24963e-05
-6.89516e-06
0.000142065
-0.00018964
-4.62459e-05
-0.000102164
0.000143934
4.0391e-06
-5.11614e-07
0.000190954
-4.21738e-05
-0.000149633
-0.000207256
0.000112924
9.42412e-05
0.000188384
-0.00012848
-6.00659e-05
-0.000203161
-9.61004e-05
-5.41408e-05
-0.000208382
0.00026125
3.8112e-05
-0.000220472
0.000181268
5.10926e-05
0.000100143
-0.000151315
9.49038e-05
-0.000145536
-0.000175175
-1.80648e-05
-0.00018154
0.000197813
4.90111e-05
7.35687e-06
-5.81736e-05
0.000218045
-0.000257635
-0.000165521
2.21483e-05
-1.10924e-05
-0.000135009
0.000138748
1.59462e-06
0.000205237
-0.000208631
-0.00034948
0.000138799
0.000209986
-2.64295e-05
0.00017244
0.000188496
-0.000100996
-8.76001e-05
0.00029699
-5.56457e-05
-0.000346196
0.000141768
0.000203562
1.63322e-05
-0.000234885
-0.000265487
7.57767e-05
0.000189215
5.47256e-05
-7.47766e-06
0.000201328
-0.000140325
-6.12166e-05
-0.000212591
-3.39578e-05
0.000244351
0.000291302
-0.000157741
-0.000133982
-5.391e-05
2.04776e-05
0.000152842
3.89681e-06
6.21721e-07
-8.07532e-06
7.5343e-05
-2.61395e-05
0.000131027
-0.000104973
0.00019503
-0.00021072
1.48664e-05
0.000190024
-5.89162e-05
-0.000132424
-0.000195844
0.000232958
1.10637e-05
1.95508e-05
-7.81799e-06
4.72196e-05
8.40094e-05
0.000104397
-0.000223176
0.000222831
-0.000179724
-8.4768e-05
0.000193579
-0.000109049
0.000257504
1.93449e-05
-0.000169283
0.000149741
-7.27076e-05
-7.73586e-06
-0.000244397
0.000250896
-0.000139459
-0.000210697
-0.00019356
0.000225819
-3.54767e-05
-0.00017424
-1.80254e-05
0.000192131
9.05428e-05
9.76488e-05
-0.000123792
9.75708e-05
-1.67931e-05
-7.18082e-05
8.81598e-05
3.90184e-05
6.85356e-05
-0.000107566
0.000268634
-0.000149922
-0.000121981
0.000212842
4.83668e-05
-0.000261968
-0.0001051
0.000183646
-7.86382e-05
-0.000127417
-0.000138498
0.000102294
0.000162332
-0.000187456
0.000161071
-2.15811e-05
-0.000141631
0.000157541
9.92825e-05
4.7353e-05
-0.000146709
0.000106405
-6.7399e-05
-6.54584e-05
-6.61266e-05
0.000131572
6.71789e-05
-8.44039e-05
-0.00020799
3.30579e-05
0.000125932
-0.000159274
-5.73259e-06
-0.000185658
0.000190484
-4.51429e-06
3.61488e-06
7.35145e-07
0.000229087
4.01855e-05
0.000174671
0.000233106
-8.40034e-06
-0.000228132
-0.000173555
1.15859e-07
-4.13453e-07
0.000170982
3.5112e-05
-0.000206562
-1.593e-06
7.11678e-05
-7.17024e-05
-0.000279596
0.000116064
8.03134e-05
-8.17286e-05
-1.07909e-05
4.1371e-05
0.000227701
2.51335e-05
0.000228228
-0.000254448
-0.000123598
5.32752e-05
7.0302e-05
0.000114312
8.50109e-05
-0.000199369
0.000180733
-0.000165402
-1.70476e-05
8.37728e-05
-0.000262312
0.000211586
4.95716e-05
-0.000190402
1.15286e-05
1.36031e-05
0.000216026
0.000238546
-0.000215767
-2.40914e-05
-1.20751e-05
-0.000139212
-2.16611e-05
-0.000171706
0.000189095
-3.65726e-05
4.3102e-05
-1.73755e-05
4.70224e-06
-1.27734e-06
-3.45121e-06
-4.89856e-05
-0.000190024
0.000238117
2.05227e-05
0.000167315
-0.000191815
6.69006e-05
-0.000119733
5.28145e-05
0.000226762
1.06355e-05
1.6394e-05
-0.000156338
0.000135012
0.000212082
-3.01587e-05
-0.000184346
2.1274e-05
-0.000179359
-5.35158e-05
1.83681e-05
2.23244e-05
-0.000161045
0.000181964
3.59787e-05
7.09106e-06
-4.39459e-05
9.86361e-06
-5.45611e-05
0.000233091
-2.94941e-05
3.92437e-05
5.66361e-05
1.17695e-05
-9.03516e-05
7.80553e-05
-6.84352e-06
4.19463e-05
-0.000161425
-1.29016e-05
0.000169322
0.000272509
-0.00022273
-5.09912e-05
0.000108865
-0.000135139
6.50384e-06
-8.65339e-06
-3.41409e-07
3.16869e-05
-0.000200082
0.000167651
-7.76543e-05
8.89274e-05
-0.000344376
0.000204209
-0.000217006
0.000218417
-4.91427e-06
-0.000105144
-0.000154475
-0.000113267
6.94472e-05
-0.000164079
5.18581e-05
0.000110832
9.13637e-05
-8.83451e-05
-0.000184249
9.88059e-06
6.7403e-05
-8.28278e-05
1.36175e-05
0.000266449
5.03155e-06
0.000137499
-0.00023313
9.45562e-05
-0.000212413
-2.62801e-05
0.000237483
-7.52203e-06
4.54798e-05
-4.73716e-05
-0.000204994
0.000270295
-2.37588e-05
2.64119e-05
-9.5683e-06
0.000218453
2.07339e-05
-0.000240646
1.37597e-05
-9.70774e-05
-0.000199808
0.0002067
-7.17845e-06
-9.82064e-05
-0.000288889
0.000103367
0.000184981
3.94261e-06
5.21959e-06
-0.00012977
0.000262619
-4.5596e-05
2.18208e-05
0.000178047
-0.00020208
2.27507e-06
0.000100293
-0.000102618
7.42534e-05
3.09994e-05
-0.000105259
-1.48362e-05
-7.59368e-05
-3.01578e-05
-0.000159026
0.000187538
0.000127455
-5.99666e-05
7.42492e-05
-0.000255724
0.000180053
5.31161e-06
6.46073e-05
8.61575e-08
-8.61576e-08
-0.000198178
0.000106506
9.15526e-05
-6.45146e-05
-0.000135248
-0.000158648
-0.000186349
0.000137606
7.95864e-05
0.000280013
-7.7995e-05
-0.000202618
0.000149153
-0.000155617
0.000273347
-0.000259679
-1.40152e-05
-8.36629e-05
0.000197919
-5.82953e-05
-0.000105773
0.000163972
9.62982e-07
-1.13573e-07
-5.76552e-05
-7.74519e-05
0.000135103
0.000238741
-0.000218306
0.000115277
-0.000133008
-0.000215787
0.000116049
-8.90025e-05
-4.27926e-06
0.000167731
9.72823e-05
3.95401e-06
-1.71563e-06
-2.23862e-06
-1.90552e-05
-0.000165214
-0.000109536
1.15016e-05
0.000166292
-7.80418e-05
-0.000184915
0.000125388
5.91091e-05
-0.000205264
9.11365e-05
0.00011403
-0.000262806
0.000195743
6.46009e-05
0.000130739
-7.50337e-05
-5.83731e-05
-9.24219e-05
-0.00017387
0.000208713
-0.000140216
-3.5845e-05
0.000174291
5.67826e-05
0.000119825
0.000144653
4.5434e-05
-1.59916e-05
0.000124445
-6.72484e-05
-0.000106072
0.000108295
4.77048e-05
8.0213e-05
0.000293974
-5.1393e-05
-0.000243671
-4.86361e-06
0.000185268
0.00018304
5.86892e-05
-0.000241779
0.000175991
-9.37523e-05
-8.23747e-05
0.000186176
-0.000236007
-0.000260718
6.46439e-05
-0.0001041
0.000161745
-5.77547e-05
-5.45398e-06
2.75058e-05
-2.7772e-05
-5.80455e-05
-1.02053e-05
6.67516e-05
0.000162858
4.67907e-05
3.41116e-05
0.000101524
-2.72764e-05
-1.15272e-05
7.71518e-05
-6.95852e-06
1.61015e-06
1.86895e-06
5.20316e-05
1.17518e-05
-7.56491e-05
-8.6929e-05
-3.66866e-05
-8.6512e-05
0.000222783
8.27782e-06
3.84982e-05
-4.79025e-05
0.000260395
-9.40473e-05
6.6559e-05
0.000199528
-0.00025717
5.52876e-05
8.74586e-06
-8.71562e-05
7.88516e-05
-0.000133865
-0.000260789
3.77875e-05
8.08037e-06
-3.75538e-05
8.14493e-05
9.44037e-05
8.67892e-05
2.70808e-06
-8.95124e-05
-0.000150329
-8.17202e-05
0.000232016
-6.66614e-05
-4.9177e-06
6.98094e-05
9.99114e-05
0.000103481
-0.000203416
7.13902e-05
-1.5279e-05
-8.00223e-05
6.00451e-05
0.000119618
-0.000179847
0.000229096
-4.45934e-05
-0.000185226
4.1255e-06
-0.000204181
-0.000177152
0.000219251
-0.000171009
-0.00021506
-6.99017e-05
0.000142288
-0.000198883
0.000124465
-5.75832e-05
-3.79399e-05
-0.000185855
-0.000175077
7.8772e-05
9.61306e-05
-4.45048e-05
0.000237628
-0.0001941
-5.89211e-05
-8.83366e-06
6.6128e-05
0.000272364
-0.000139861
-0.00013359
-6.54757e-05
4.92321e-05
-0.000129018
7.97472e-05
-8.79718e-05
0.000118964
-0.00018381
0.000164538
-0.000210797
-6.33409e-05
0.000284883
-6.47884e-05
-0.000220947
-0.000235485
-4.90108e-05
-9.88053e-05
-0.00018953
0.000180866
-3.88833e-05
-8.72683e-05
0.000124957
-7.3042e-06
-3.10907e-05
3.77135e-05
-5.89298e-05
-0.000161234
0.000214236
-0.000189286
4.8744e-05
-9.17352e-05
8.17127e-05
-0.000121763
0.000185218
-0.0001209
-6.43368e-05
-0.000181526
6.15879e-05
7.65885e-05
0.000215579
4.20425e-05
-5.1829e-06
-4.59545e-06
-0.000166205
-1.72613e-08
3.35425e-06
5.90427e-07
8.18684e-05
4.40759e-05
-0.000125965
-4.55126e-05
0.000257018
2.40211e-05
-0.000211415
0.000186802
-0.000218587
-3.53414e-05
0.000253134
0.000231801
-2.09903e-05
-0.000211693
-0.000219211
4.58104e-05
0.000172996
-5.57687e-05
7.2544e-05
-1.67774e-05
6.72734e-05
0.000108724
-0.000176261
-0.000199246
0.000274429
-7.73652e-05
-7.97132e-05
-1.50064e-05
9.45776e-05
-3.01503e-05
-2.06681e-05
-0.000111081
8.57326e-05
-0.000143392
-0.000179481
0.000162549
1.66896e-05
0.000221287
7.13612e-05
-6.91674e-05
1.33967e-05
-0.000142481
4.7292e-07
7.69582e-05
8.92674e-05
9.22962e-05
-0.000180456
5.94214e-05
1.49213e-05
-7.4666e-05
-0.000225286
0.00018647
7.39667e-05
0.000196907
0.000229863
2.51921e-05
-0.000258077
0.000143443
-0.000185912
4.19401e-05
0.000160017
-1.61277e-05
7.5225e-05
-0.000173604
0.000119687
5.34916e-05
-0.000257486
2.86616e-05
-7.86006e-06
0.00023484
-0.000179497
0.000195218
0.000231697
-0.000165179
-0.000208967
-5.01517e-05
0.000258342
9.57091e-05
-0.00011245
0.000278429
-4.56144e-06
-8.34163e-05
-0.000212552
-1.77209e-05
0.000230083
-0.00029525
5.48202e-05
0.000239286
0.000194348
5.27388e-05
2.60068e-05
-0.000191136
-0.000162754
0.000181809
4.38199e-06
-0.000182528
0.000173841
-8.61549e-05
-0.000209734
-0.00021774
0.000272802
-5.59749e-05
-0.000244758
3.0097e-05
5.90808e-05
0.000166624
-0.000151673
-0.000128223
-4.70004e-05
-0.000120302
0.000162553
-0.000225458
1.26986e-05
-0.000208962
-6.27247e-05
0.000270237
-3.85152e-05
0.000122518
-8.40456e-05
-5.98302e-05
-5.34524e-05
0.000151119
-0.000150348
-0.000208872
0.000188524
-8.09269e-05
-0.000120509
0.000133444
-0.000197675
3.99685e-05
6.74376e-05
-0.000107412
-6.02404e-05
4.21039e-05
-0.000230397
5.88948e-05
0.000171349
-0.000117007
0.000183983
2.27406e-05
-6.00617e-05
-0.000172512
0.000198215
-9.02342e-05
0.000105169
-0.000163558
8.365e-06
-2.70027e-06
8.24161e-06
-4.26456e-05
3.30331e-05
-0.000105502
-5.63205e-05
0.000161691
-7.67702e-05
-0.000102926
8.5395e-05
-0.000123954
-0.00016991
0.000131566
3.02835e-05
4.70951e-05
-0.000117799
0.000107912
-0.000159433
-4.85878e-05
0.000130434
2.10284e-08
2.41828e-08
0.000237055
-7.37464e-05
-0.000165979
4.18488e-05
-0.00011609
7.42241e-05
5.20211e-05
0.000151706
-0.000205159
0.000266295
-3.43175e-05
-2.10597e-06
8.07162e-07
-0.000212968
3.03414e-05
0.000182113
-0.000185342
5.7642e-05
0.000126346
-3.72852e-05
0.000207762
-0.000121605
5.61368e-05
0.000235125
-9.78772e-05
-0.000137658
-1.44528e-05
-7.92973e-05
2.75487e-06
-3.82173e-06
-5.22836e-08
-0.000155241
2.86192e-05
-0.000235339
0.000205563
5.97085e-05
0.000175057
3.64499e-05
5.20938e-05
-8.85463e-05
-9.08118e-05
2.71745e-05
6.03273e-05
-8.81765e-05
7.29168e-05
-0.000207382
0.0002435
-3.80368e-05
-5.36178e-06
1.84513e-06
-5.91764e-05
0.000213405
-0.000154702
-2.82864e-07
3.62369e-06
-4.18594e-05
-0.000123605
0.000224959
-0.000147808
-7.72738e-05
-3.38075e-05
-0.000143364
0.000175644
6.98247e-05
-0.000129407
5.94722e-05
-0.000183579
6.84452e-05
0.000114809
-3.38504e-06
-0.000140973
-0.00020359
0.000133813
6.97188e-05
0.000192588
2.34603e-05
0.000161736
0.000215681
-4.69991e-05
-0.000168962
0.000249282
9.10134e-06
-0.000259999
-0.000209368
3.79604e-05
0.000165422
-7.84675e-05
-0.000137426
-0.000194673
0.000264504
-0.000136155
0.000230333
-9.51838e-05
2.88388e-06
9.95416e-07
6.03116e-05
-0.000184864
0.000124418
0.000223149
-0.000127293
-9.5877e-05
0.000181495
5.30315e-05
5.96723e-05
0.000190725
-0.000250485
0.00024263
-0.000184865
-6.25924e-05
0.000246766
4.82041e-05
-0.000120428
7.22072e-05
4.45632e-06
-6.40146e-05
0.000144436
5.44903e-05
1.80397e-05
-7.48849e-05
5.65814e-05
1.87045e-06
8.29865e-07
-2.7708e-06
-0.000124351
-5.94992e-05
-0.000186067
0.000117642
6.82974e-05
1.62513e-05
6.81126e-05
-8.43709e-05
0.000168517
-0.00020632
0.00014646
2.6351e-05
-0.000175268
0.000159814
-1.16098e-05
4.15168e-06
-2.69111e-05
-0.000118919
-4.47033e-05
0.000143912
0.000274855
-0.000187007
-8.9754e-05
-0.000229056
0.000191113
3.69509e-05
-0.000121418
0.0001816
0.000219336
-7.96631e-05
2.27019e-05
0.000164078
-0.000189071
5.97842e-05
-0.000163986
1.8079e-05
7.84225e-05
-9.65094e-05
0.000192068
-4.91321e-05
-0.000155797
-2.23567e-05
0.000177115
0.000165162
2.61527e-05
-0.00016313
-3.79431e-05
0.0002286
-2.21616e-05
-0.000185432
-0.000137743
-3.68953e-05
0.000170191
-0.000211216
0.000233264
-2.26832e-05
-3.8099e-05
0.000206067
-0.000196846
0.000154709
-6.82837e-05
-7.4034e-05
0.00014224
-8.72081e-05
-0.000177242
0.000185377
-7.66724e-05
-7.35395e-06
4.74913e-05
-0.000283411
0.000242537
3.93421e-05
3.31749e-05
0.000111958
-0.000145158
4.88446e-06
-7.03888e-07
-0.000260224
4.84668e-05
4.23886e-05
0.000138426
8.6322e-05
-0.000215131
-1.23219e-06
0.000212746
4.84394e-05
6.15072e-05
-0.000115593
-0.000127176
-9.80163e-05
0.000224734
-3.39931e-05
-0.000179482
8.26861e-06
-4.01085e-05
3.0838e-05
-1.2669e-05
-8.3966e-05
9.561e-05
-1.88417e-05
-0.000190835
0.000209246
-1.24618e-05
-0.000154189
0.000271554
-0.000168724
-3.14052e-05
1.0273e-05
1.6118e-05
0.000152907
7.2047e-05
-0.000116776
0.000218807
-0.00026429
4.20125e-05
-1.79155e-05
0.000182267
-8.58766e-05
0.000222059
-0.000210377
0.000136617
7.37297e-05
7.74969e-06
-4.16203e-05
3.29603e-05
-0.000139888
8.00813e-05
0.000121854
-0.000215174
8.91897e-05
-2.34505e-06
6.04121e-07
-6.81714e-05
0.000110004
4.15043e-05
-0.000232027
0.000189699
0.000225301
-0.000166648
6.21546e-05
0.000208745
0.000131669
-9.03637e-05
-0.000142835
-6.75707e-05
-0.000102311
0.00021991
4.81396e-05
4.60208e-06
-2.79314e-05
-3.70457e-05
3.6347e-05
-0.000178603
-6.98027e-05
-0.000190836
0.000133502
-0.000199707
0.000115986
-7.84096e-06
9.28297e-06
-6.11512e-06
8.86155e-05
-4.86518e-05
-0.000219211
-3.32704e-05
0.000251016
0.00016825
-0.000187018
0.000199613
9.72994e-05
0.000206334
-0.000258742
-0.00020669
-0.00018158
3.41661e-05
5.6683e-06
-4.05658e-05
8.39767e-05
3.75826e-05
-0.000121588
0.000193299
-0.000236085
3.823e-05
4.83186e-05
-5.83804e-05
8.15741e-06
-4.8726e-05
-8.55315e-06
5.60446e-05
0.000185797
-6.84814e-05
0.000196475
-0.000115996
5.0832e-05
6.51493e-05
6.2965e-05
-1.44638e-05
-0.000109411
0.000130401
-0.000203991
0.000266554
-0.000218907
0.000229541
2.3042e-05
4.96537e-05
0.00014707
-0.000198125
-0.000195376
0.000152297
-7.78225e-05
0.000128044
-0.000185388
7.44434e-05
-4.57639e-05
7.3758e-06
-0.0002292
0.00011665
-8.82535e-05
0.000106324
4.90994e-06
-6.64295e-06
7.38936e-07
-0.000140658
0.000177095
-3.71229e-05
-6.94084e-07
2.5343e-06
-2.88914e-06
8.62316e-05
-7.19246e-05
0.000140613
-7.08952e-05
2.07648e-06
-2.49989e-07
5.61154e-05
0.000207481
2.51884e-05
-2.92942e-05
0.000196711
-6.57786e-07
4.39745e-06
0.000144684
-0.000197429
5.24043e-05
-0.000188478
0.000130873
5.7154e-05
0.000236662
-0.000150257
-8.65198e-05
0.000211863
5.58525e-05
9.35452e-05
-0.00016644
-1.53368e-05
7.80016e-05
-6.30136e-05
0.000110459
-0.000118003
7.50319e-06
-7.75036e-05
-0.000148059
-2.95953e-05
0.000254163
-0.000134199
-0.000120523
0.000167468
-2.32569e-05
0.000219281
-0.000257553
3.59906e-05
9.96834e-05
-0.000275115
0.000171268
-4.73031e-07
1.98472e-07
2.85002e-05
6.91102e-05
-0.000170661
0.000251275
7.93396e-06
-2.25275e-05
2.93305e-05
-1.20999e-05
-3.83769e-05
3.31542e-05
2.59282e-06
-2.9432e-06
-2.61341e-07
-0.000265574
5.6821e-05
0.000207524
0.000110799
0.00012573
-2.22739e-05
0.000132691
-8.3126e-05
0.000182111
-0.000216616
-0.000284983
7.4919e-05
0.000208657
6.31511e-05
0.000220346
-0.000177314
2.91554e-05
1.71259e-05
0.000200439
-0.000255851
1.79623e-06
-3.97856e-05
3.63546e-05
-3.87829e-05
-0.000127372
0.000161381
1.02346e-05
-1.27846e-05
0.000282994
-6.91529e-05
-0.000211538
-4.7925e-05
0.000258401
-1.55576e-05
-7.28027e-05
8.74305e-05
5.20797e-05
6.44279e-05
-4.77524e-05
-0.000240652
0.000142264
-0.000119763
0.000167109
0.000115294
-2.85204e-05
-6.63408e-06
-3.81945e-05
7.08864e-05
-8.73862e-05
0.000264468
-5.36323e-05
-0.000261111
-1.35048e-05
8.34446e-05
-9.91755e-06
-5.25426e-05
6.11855e-05
0.00010139
-0.000265534
-3.77615e-05
3.1105e-05
-0.00016357
-0.000118959
0.000281957
0.000211448
-2.36752e-05
1.92545e-05
-0.000265321
8.72994e-05
0.00017374
0.000120318
0.000133139
4.96507e-05
0.000212092
-0.000262005
0.000134228
-0.000175602
-0.000294506
0.000194807
9.85116e-05
-3.90823e-05
2.67128e-05
-3.75301e-05
-0.00011647
7.67001e-05
-6.20987e-05
-0.000196122
0.000120508
7.54198e-05
9.96478e-05
-0.000236706
0.000217964
-0.000144726
-0.000265684
5.5565e-05
5.28931e-05
0.00019706
-0.000251432
5.23914e-05
2.01504e-05
-1.14801e-05
3.6753e-06
-7.34387e-05
5.69844e-05
-0.000153395
-8.8237e-05
0.00023162
-0.000143597
0.000206659
6.51809e-05
-0.000273256
2.19836e-05
6.44974e-05
6.96442e-06
2.8701e-05
-3.63122e-05
-0.000151527
0.000269024
-3.75729e-05
2.95805e-05
-0.000129366
-6.69481e-05
7.61476e-05
-6.7525e-05
-5.22249e-05
-3.48645e-05
-2.91581e-05
1.07627e-05
1.13471e-05
-1.92351e-05
-1.64356e-05
5.42271e-07
1.06699e-07
-9.08434e-07
-2.73378e-05
0.000242379
-8.46882e-05
0.000141596
-6.04801e-05
-8.11526e-05
0.000205356
-0.000170698
-9.33715e-05
0.000178346
-8.51036e-05
0.000294995
-0.000177053
-0.000120226
4.13059e-06
-3.91422e-05
3.35577e-05
1.70326e-05
-7.53077e-06
-0.000259999
7.58085e-05
0.000179619
-0.000194286
5.11886e-05
0.000140399
-0.000176016
0.000239972
-6.51181e-05
-0.000115729
0.00010119
3.36064e-05
-0.000154635
0.000101156
0.000191605
-0.000214599
0.000242057
-3.15089e-05
-0.000191737
-0.000155811
-8.42356e-05
-0.000176861
8.33781e-05
-0.00020687
4.35042e-05
-8.08293e-05
-4.72523e-05
0.000128053
2.51048e-05
-5.87639e-05
-4.7352e-06
0.000189547
-0.000185151
0.000184385
2.75674e-05
-3.50604e-05
-0.000244221
6.06179e-05
0.000182186
-9.31372e-05
2.33096e-05
6.06778e-05
-0.000274922
7.8694e-05
-9.65329e-05
0.000147447
-5.09908e-05
-4.3911e-05
0.000127856
1.09911e-05
-7.58915e-05
6.32371e-05
0.000197218
-2.23123e-05
0.000239288
-6.32205e-05
-0.000133843
-1.79545e-05
7.03437e-05
4.01601e-06
-0.000160895
-3.77189e-05
-4.03459e-05
8.54763e-06
-1.33959e-05
4.32814e-06
6.87192e-06
-0.000169639
0.000128861
-0.000153914
0.000139424
-6.09182e-05
-4.33772e-05
0.000104284
-2.80444e-05
-5.49132e-06
3.28802e-05
2.97034e-05
-6.57594e-05
7.50975e-05
4.95163e-05
4.21285e-05
-9.5388e-05
-0.00017693
0.000251041
-3.39504e-05
-1.41555e-06
-0.000217859
8.98785e-05
-4.40084e-05
0.000207701
-0.000157141
-5.98809e-05
1.12846e-06
3.54853e-06
-6.79018e-05
-0.000220281
0.000138682
-0.000260406
0.000121152
4.52487e-05
0.000143257
0.000234838
-0.000200467
-3.54612e-05
-0.000163542
5.74131e-05
0.000107944
1.89362e-05
-0.000127449
-5.72136e-05
-2.47011e-05
-3.21437e-06
2.40915e-05
4.21819e-05
-7.2763e-05
-4.31915e-05
0.000182804
-0.000140791
9.67177e-06
-3.30571e-06
0.00020701
-0.00021213
0.000143168
-2.39778e-05
-0.000264013
4.17998e-05
0.000219486
-0.000270232
6.0623e-05
0.000207826
-0.000217251
0.000226558
0.000172655
-0.000261126
-8.19197e-05
6.44139e-05
-7.50427e-06
-5.21132e-06
8.58445e-06
-9.25363e-06
1.22618e-05
-5.30801e-06
-0.000275293
5.65266e-05
0.000133961
-0.000114763
2.03445e-05
0.000180962
-0.000205524
-0.00015793
5.20652e-05
-6.48464e-06
-3.50243e-05
-3.91449e-05
3.11002e-05
-0.000115106
-0.000309566
0.000202788
0.000106379
-5.14351e-05
-0.000122563
9.01282e-05
-1.77043e-05
-0.000104538
4.36104e-05
4.72891e-06
-4.52961e-05
3.93315e-05
-8.57547e-05
-8.65349e-06
9.36276e-05
1.15615e-05
-0.000190803
0.000179015
-0.000296898
5.03605e-05
0.000245378
0.000205667
-0.000236586
-0.000172465
-0.000258415
0.000211581
5.92392e-05
-0.000154756
9.54771e-05
-0.000122793
-0.000187021
-2.11049e-08
2.10804e-06
-4.10059e-05
4.45166e-05
3.56505e-06
-0.000222253
-0.00020106
0.000272007
-7.23036e-05
-4.01944e-05
-0.000121753
-9.93514e-05
-9.11388e-06
-4.14963e-05
4.87299e-05
-3.94928e-05
-0.000227025
-4.30773e-05
-0.000219832
-0.00016152
0.000102866
5.85509e-05
7.27732e-05
-0.000196511
0.000121462
-0.000138978
-2.19385e-05
0.000158675
-0.000165882
0.000203663
-3.87442e-05
0.000135256
-0.000154729
0.000104602
-9.33786e-05
-1.23617e-05
1.79193e-05
-9.84543e-05
0.00013028
-3.18717e-05
-8.33668e-05
0.000124512
-4.11865e-05
-3.32379e-05
-6.9501e-05
4.9276e-05
-5.23607e-05
5.37597e-05
-7.5675e-06
-1.33778e-05
-5.75864e-05
7.01904e-05
-0.000145068
0.000193417
-0.00021537
4.34548e-05
0.000167354
-0.000153917
-2.46539e-05
-3.28263e-06
2.45033e-05
0.000145933
-7.89363e-05
6.32307e-05
-9.48342e-05
6.29468e-05
2.85448e-05
-0.000217429
3.77623e-05
0.000173934
0.000168933
-6.38615e-05
-0.000154727
-4.45889e-05
0.000117021
-7.67544e-05
0.000153742
4.7848e-05
-0.000205842
0.000242354
-0.000117833
-0.000124545
-1.43067e-05
1.84043e-05
-0.000236774
-6.84516e-05
-2.96729e-05
1.53977e-05
7.52566e-05
-9.15673e-05
-8.27249e-05
5.61122e-05
2.44386e-05
2.30257e-05
-0.000176942
0.00015361
4.64961e-05
7.79467e-05
-3.85081e-05
-0.000184393
-0.000170715
9.08223e-05
0.000121965
5.81838e-05
-0.000180363
0.000111637
-2.37108e-05
-8.7938e-05
-0.000181142
8.52746e-05
9.57841e-05
1.09873e-05
0.000135749
-0.000153211
-8.51997e-05
-0.000212685
2.83401e-05
0.000144649
-0.000176651
-5.56206e-05
-7.63248e-05
0.000127553
-0.000122577
-1.51569e-05
0.000130724
0.000160849
3.85841e-05
-0.000199913
1.90524e-05
-0.000221193
4.257e-05
-0.000168586
-7.1491e-05
-0.000119328
0.000190545
-0.000108863
-5.47318e-05
-0.00016174
4.31073e-05
0.000289342
-8.71689e-05
-0.000202864
0.00022314
4.40344e-05
-0.000268251
-3.77244e-05
4.39465e-05
-5.75093e-05
0.000248135
-0.000202457
0.000230037
-2.83883e-05
-1.0869e-05
1.58492e-05
-7.92325e-06
-1.14174e-05
-5.89506e-07
-5.16931e-05
-6.43167e-05
9.34545e-05
0.000129652
-8.37051e-05
-0.000116053
-9.68593e-05
0.00012418
-3.14655e-05
8.18477e-05
-0.000129362
4.74785e-05
-5.56408e-05
-5.21178e-05
0.000202405
-0.000202095
-1.91504e-05
0.000220736
9.05786e-05
0.000106188
-0.000197277
-0.000243042
0.000161273
-2.07828e-05
1.65346e-05
6.93276e-05
-0.000110307
-0.00012894
0.000238157
-0.000202582
-0.000243556
5.80912e-05