/*--------------------------------*- C++ -*----------------------------------*\
| =========                 |                                                 |
| \\      /  F ield         | OpenFOAM: The Open Source CFD Toolbox           |
|  \\    /   O peration     | Version:  v2012                                 |
|   \\  /    A nd           | Website:  www.openfoam.com                      |
|    \\/     M anipulation  |                                                 |
\*---------------------------------------------------------------------------*/
FoamFile
{
    version     2.0;
    format      ascii;
    class       surfaceScalarField;
    location    "500";
    object      phi;
}
// * * * * * * * * * * * * * * * * * * * * * * * * * * * * * * * * * * * * * //

dimensions      [0 3 -1 0 0 0 0];
oriented        oriented;


internalField   nonuniform List<scalar> 
27284
(
-0.124199
-0.0780628
0.202262
-0.130408
-0.337647
0.468057
-0.130395
0.135347
-0.00495167
0.449992
-0.0638247
-0.386162
-0.510576
0.319806
0.19077
0.382829
-0.300197
-0.0826317
-0.40016
0.0655374
0.334624
-0.240961
-0.269614
0.356571
0.110921
-0.467489
-0.349123
-0.116482
0.465606
0.0741857
-0.269803
0.195617
0.0218369
-0.106124
0.0842867
0.0982693
-0.0764324
0.343914
-0.231704
-0.11221
-0.194672
-0.270135
0.464811
-0.444435
-0.0334973
0.477934
0.0319409
0.418057
-0.324547
0.139535
0.185012
-0.150894
0.159882
-0.00898825
0.410632
-0.406966
-0.00366487
0.176524
-0.0490058
-0.127518
-0.336832
0.200145
0.136688
-0.529977
0.0591681
0.470812
0.309076
0.0737537
-0.461459
-0.0685161
-0.307459
-0.0985026
0.405963
0.453629
-0.330756
-0.122872
0.262671
-0.450755
0.188089
-0.0621615
0.418737
0.0758246
-0.241002
0.165178
0.287876
-0.311358
0.0234819
0.222138
-0.0750867
-0.147051
0.317429
-0.471954
0.154526
-0.371584
0.551969
-0.180383
0.479621
-0.493526
0.0139053
0.29039
0.0103669
-0.300756
0.186322
-0.15731
-0.0290127
0.354459
-0.0640688
0.228502
-0.152677
-0.171286
-0.131784
0.303071
-0.468059
0.479436
-0.0113674
-0.166816
0.505993
-0.347319
-0.158672
-0.323021
-0.126833
0.449856
-0.453427
0.0760689
0.00157119
-0.0776401
0.245453
-0.444316
0.198866
0.440884
-0.195428
0.328576
-0.291766
0.430182
-0.138414
0.0126159
-0.395084
0.38247
0.19437
-0.0505517
-0.143819
0.13572
-0.427484
0.174202
-0.0529714
-0.121231
0.0976721
-0.38511
0.287442
0.405947
0.00468624
0.0143549
-0.402164
0.38781
0.0074513
0.0157627
-0.323221
-0.0267947
0.0715485
-0.0447538
0.134409
0.149745
-0.132459
-0.0172858
-0.00475381
0.178956
0.149692
-0.444298
0.294606
0.274573
-0.117339
-0.157234
-0.155362
-0.31357
0.468934
0.293355
-0.20021
-0.0931451
0.17188
0.0144429
-0.345331
0.525261
-0.179928
-0.00457617
-0.369976
0.374552
0.310912
0.10322
-0.41413
0.315877
-0.218202
-0.257162
0.117193
0.13997
0.12664
-0.314521
0.187881
0.490385
-0.229637
-0.260747
-0.3824
0.506864
-0.124463
0.199451
-0.192
-0.553985
0.171587
-0.11716
0.428074
0.278188
0.212197
0.1497
0.143656
0.421461
-0.0396723
-0.381788
0.161533
0.127053
-0.241357
0.114305
-0.0245652
-0.128934
0.153499
0.435312
-0.485393
0.0500829
0.0471818
-0.441848
0.394673
0.201721
-0.0619489
-0.139772
-0.345142
0.478691
-0.133546
0.121678
0.0800428
0.344765
-0.267292
0.068405
0.128307
-0.196712
0.37223
0.0492309
0.288803
0.141381
0.198344
-0.466745
0.268402
-0.144502
0.451811
-0.307308
0.164352
-0.464247
0.299898
-0.460239
0.315738
-0.212749
0.0814792
0.13127
0.183072
-0.298779
0.115708
0.130309
-0.154874
0.323207
-0.440365
0.43116
-0.142355
0.403132
0.0693787
-0.472511
-0.258596
0.128212
0.130385
0.0990185
-0.543452
0.13993
0.134643
0.450878
-0.252534
-0.0196714
0.157176
-0.137505
-0.622429
0.225434
0.396997
-0.366041
0.380397
0.459001
0.00685436
-0.465854
0.327562
-0.137821
-0.189741
0.251643
-0.12459
0.063658
0.0214904
-0.0851484
0.0871955
-0.234512
0.147316
-0.096245
0.419454
0.49836
-0.220171
-0.279078
0.128068
0.151011
-0.0454057
-0.154804
0.344084
-0.34866
-0.109803
-0.0205921
0.132002
-0.0648211
0.204271
-0.139449
0.240804
0.257557
-0.0565451
-0.0343997
0.0909448
0.0534706
0.478061
-0.446114
0.0653819
-0.189581
-0.124803
-0.141632
0.266436
0.451243
-0.286888
0.0803814
0.113989
0.12153
0.221171
-0.342698
0.00425564
-0.112761
0.108505
0.200975
-0.0946335
-0.106342
0.302273
-0.477312
0.175042
-0.0372813
-0.113613
0.358212
-0.417594
0.0593823
0.378285
-0.524043
0.145766
-0.134571
0.202976
0.231721
-0.12306
-0.10866
-0.481148
0.327335
0.153814
-0.324131
-0.110955
0.435089
-0.195619
0.063976
0.117663
0.0833121
-0.0437634
-0.280256
0.324026
-0.0673788
0.0560177
0.0113612
0.129874
-0.486621
0.356747
0.176827
0.150736
0.437947
-0.0575917
-0.380355
-0.196454
0.45913
-0.190576
0.145171
0.151418
-0.451913
0.300497
0.469512
-0.337856
-0.131655
0.12689
-0.474208
-0.00714341
0.344668
-0.337522
0.479423
-0.00135498
0.404349
0.030965
-0.343039
0.0189099
-0.409258
0.402118
-0.132288
0.309329
-0.177041
0.320156
-0.198624
-0.296408
-0.326019
0.432403
-0.320156
-0.112247
-0.134976
0.311659
-0.176682
0.335106
0.0726447
-0.407751
-0.0640922
-0.00328659
-0.219152
0.0885916
0.130561
0.126383
-0.14306
0.016677
0.0903567
0.141364
0.522623
-0.497621
-0.0250008
-0.129344
0.1336
0.529387
-0.516257
-0.0131283
0.351007
-0.0224315
-0.468813
0.470885
-0.00207161
-0.401324
0.357569
0.396519
0.0624827
-0.331872
0.454395
-0.122523
-0.0137576
-0.178035
0.191793
0.278239
-0.184024
-0.0942139
-0.477763
0.463157
0.0146088
-0.123263
0.45837
-0.193252
0.311601
-0.118347
0.482391
-0.225665
-0.256722
0.133026
0.316562
-0.449588
0.262656
0.168506
-0.520768
0.346847
0.173924
-0.21216
0.0902919
0.121868
0.164962
-0.414273
0.249317
0.136938
-0.467692
-0.0912205
0.0346754
-0.110851
-0.101899
0.131648
0.320476
-0.452121
0.345447
-0.533995
0.188549
0.454649
-0.0106776
-0.443962
-0.0955665
-0.00648096
0.102047
-0.38355
0.396167
-0.147499
-0.0436099
0.191109
-0.460919
0.123275
0.1375
0.206414
0.44455
-0.181892
0.315764
-0.219747
-0.0960161
0.0506123
0.17789
0.370128
-0.51692
0.146795
-0.0661812
-0.152971
0.283469
-0.107784
-0.175683
0.172655
-0.0462716
0.314153
0.168242
-0.325754
-0.12388
0.449635
0.146136
-0.446642
0.300507
-0.190295
-0.124614
0.31491
0.359178
-0.0199171
-0.33926
-0.146194
0.451491
-0.305296
-0.448126
0.301933
-0.379987
0.509861
0.322414
0.0285933
0.181688
0.0965512
-0.118535
-0.0594507
0.177986
-0.114377
0.274987
-0.160609
-0.153962
0.433645
-0.279679
-0.170422
0.15075
-0.346811
0.516393
-0.169582
-0.154479
0.205406
-0.0509269
-0.513824
0.256334
0.257491
-0.232555
-0.136662
0.369217
0.533709
-0.21432
-0.319389
0.503225
-0.366816
-0.136408
0.383193
-0.0249805
-0.192715
0.0568724
0.135842
-0.24488
0.117283
0.127597
-0.270624
-0.170803
0.441429
-0.108896
-0.512573
0.369838
0.142735
0.156415
0.333132
0.0992716
0.166458
-0.399012
0.0795584
-0.253516
0.173959
-0.0151516
0.208671
-0.073645
-0.135026
-0.157741
-0.290384
0.0886856
-0.428694
0.34001
0.159358
-0.173115
-0.448948
0.291208
0.134986
-0.275757
0.140772
0.169093
0.159851
-0.396866
0.237019
-0.46135
0.198384
0.262969
0.0285878
0.33059
0.346075
-0.0954416
-0.250633
-0.180198
-0.239227
0.419427
0.458566
-0.308873
0.326158
0.116419
-0.0139247
-0.102494
-0.297431
-0.216392
0.202071
-0.533943
-0.593143
0.288117
0.305027
0.108762
0.0999092
-0.293873
-0.135908
0.429789
0.324881
0.208829
0.442882
-0.301409
-0.14147
-0.0459093
0.483856
-0.153117
0.417404
-0.264286
-0.0195658
-0.112368
0.131934
0.00934683
0.105838
-0.115185
-0.166478
0.217091
0.408188
-0.285797
-0.122391
-0.478731
0.182927
0.295804
-0.196314
0.154162
0.0421525
0.311536
0.131349
-0.225255
-0.461613
0.1976
0.264015
0.331062
-0.501048
0.169987
0.212039
0.103726
0.0472922
-0.165827
0.452891
-0.310754
-0.142132
0.329467
-0.148797
-0.180669
0.0770796
-0.277462
0.200383
0.45805
-0.155775
-0.0215074
-0.132171
0.153678
0.0257117
0.332743
0.0658948
-0.294198
0.228303
-0.316954
0.126661
0.0567857
-0.222721
0.165936
-0.149926
0.480989
-0.0207766
-0.18067
0.201446
-0.192756
0.307532
-0.114775
-0.014149
0.179555
-0.165406
-0.129303
-0.338747
0.167539
0.312557
-0.490309
0.461138
-0.143707
0.194842
-0.101822
-0.0930195
-0.183995
-0.0924841
0.27648
-0.170067
0.463398
-0.29333
-0.267432
-0.211297
-0.470774
0.276107
0.498103
-0.152655
-0.157398
0.135891
0.124435
0.205034
-0.29822
0.183271
-0.0472806
-0.13599
-0.170614
-0.198359
0.0643859
0.133973
-0.130417
-0.333154
0.13812
0.195034
0.269673
-0.192593
-0.309374
-0.11717
0.426546
-0.144991
0.189982
-0.0449911
-0.132274
0.141621
0.0744774
0.120364
0.524906
-0.384531
-0.140375
-0.10984
0.0822722
0.0275678
-0.0429036
-0.234306
0.277211
0.236964
-0.36087
0.123907
-0.147422
-0.019077
0.166499
0.190648
-0.133862
-0.341635
0.298735
0.182767
0.25812
-0.481765
0.22942
0.252348
0.115006
-0.13527
0.0202636
-0.0288997
-0.0809403
-0.0817292
0.071005
0.0107243
0.355268
0.169639
-0.211567
0.24835
-0.159442
-0.0889084
-0.460584
0.189373
0.271212
0.158792
0.314085
-0.472878
0.189033
-0.296816
0.125291
0.209825
-0.354032
0.144209
-0.109894
0.371247
0.108374
0.298703
-0.406556
0.107853
-0.493923
0.344288
0.149636
-0.10273
0.343534
-0.330386
-0.120937
0.451331
-0.324302
0.153017
-0.335307
0.229076
0.106231
0.0329902
-0.115251
0.0822608
0.135413
-0.219053
0.0836398
-0.141435
-0.134322
0.532429
-0.177161
0.171243
0.13906
-0.310302
0.118395
-0.463534
0.35459
-0.144763
-0.259732
-0.162476
0.42221
-0.523997
0.174875
-0.468531
0.214857
0.253677
0.422402
0.019351
-0.441745
-0.13376
0.500982
-0.367222
0.310048
-0.197632
-0.112415
-0.468372
0.320567
0.147807
0.0873395
0.010354
-0.0976935
0.0980146
-0.357746
-0.464004
0.219915
0.244093
-0.187461
0.455209
-0.267746
0.282577
-0.103021
-0.0268726
0.390729
-0.363848
0.148316
0.134261
0.316968
-0.490686
0.173718
0.383225
0.0391823
-0.11995
0.303023
-0.0638794
0.0370847
-0.546334
0.23415
0.312185
0.51948
-0.202511
-0.320478
0.472589
-0.152108
-0.270154
-0.178036
0.44819
-0.320431
-0.161331
0.355478
0.138123
-0.4936
-0.42639
0.170286
0.256105
-0.300638
-0.245696
0.0334515
0.236222
-0.213255
-0.142526
0.355784
0.226168
-0.146609
0.0153886
0.0828808
0.155725
-0.466391
0.310667
-0.241336
-0.351806
0.0332574
-0.178248
0.354098
0.119042
-0.473139
0.0940965
-0.36425
0.386417
-0.073761
-0.312655
-0.203436
0.315609
-0.112172
0.497893
-0.30683
-0.191056
-0.185697
-0.138849
0.424421
0.021407
-0.445824
0.261488
-0.396041
0.134554
0.404935
0.0497223
-0.137629
-0.0828146
0.220444
-0.29753
0.0582781
-0.205208
0.146931
-0.46633
0.310969
-0.234581
-0.100107
0.312146
-0.455797
0.315174
0.140625
0.176829
-0.092952
-0.0838766
-0.0453024
0.0485687
-0.00326628
0.572057
-0.337907
0.497685
-0.351407
-0.146277
-0.00364567
0.120065
-0.436421
0.159621
0.276801
-0.404835
0.0744568
-0.323339
-0.156117
-0.0242729
-0.10795
0.132223
0.416065
-0.251097
0.23493
-0.201478
-0.269067
0.334606
-0.14241
0.331989
-0.189579
-0.290559
-0.170025
-0.300563
-0.0945138
0.395077
0.206289
-0.0708758
0.170228
-0.148509
-0.0217185
-0.0995664
0.502699
0.0369551
-0.0672681
0.030313
-0.105752
-0.193027
0.297437
0.155459
0.0578853
0.118638
0.336624
-0.457554
0.463135
-0.369038
-0.13058
0.43362
-0.30304
0.255816
-0.115885
-0.0255754
0.362206
-0.0165377
-0.112806
0.0908735
0.248377
-0.33925
-0.00258701
-0.129422
0.132009
0.115066
0.213716
-0.32878
-0.0627756
-0.302972
0.365749
-0.114955
-0.147645
-0.131432
-0.309817
0.451482
-0.141663
-0.456287
0.339805
0.276742
-0.429858
0.453157
-0.155716
-0.126095
0.083768
0.0930607
-0.408574
0.345801
0.126481
-0.279273
0.152793
-0.280941
0.139507
0.219023
-0.229047
0.0100236
-0.0163277
-0.130863
0.147191
0.207655
0.102394
0.0567633
-0.366135
-0.125369
-0.0154743
0.140843
0.504374
-0.288661
-0.215709
-0.343347
0.482489
-0.13914
0.315564
-0.503023
-0.437224
0.000625378
-0.0459278
0.486415
-0.132315
-0.0132181
0.387764
-0.374544
-0.378675
0.387832
-0.00914942
-0.0667696
0.0997597
0.348203
0.0382143
-0.491922
0.342187
0.149736
0.0880946
0.375042
-0.175256
0.262436
0.00843396
-0.270869
-0.0888448
-0.00672169
0.109339
0.0404053
0.0802826
-0.273534
0.373943
0.050482
-0.15122
0.134892
-0.0841593
0.11181
-0.0276503
0.353182
-0.233596
-0.119586
-0.355815
0.510025
-0.154208
-0.186261
0.171273
0.0149877
-0.0565033
0.434795
0.130601
-0.191577
0.155858
0.0357196
-0.136608
0.274614
-0.138006
-0.21128
0.073651
-0.13889
-0.118272
-0.132297
-0.159944
0.286586
-0.217434
-0.119397
-0.0140901
0.10143
0.276956
-0.148888
0.0178088
-0.145353
0.127544
0.320594
-0.144865
-0.175728
-0.329123
0.49258
-0.163457
-0.0667468
0.224098
-0.15735
0.180903
-0.127852
0.0269521
0.1009
0.0382257
0.010343
0.134283
0.121533
-0.168873
0.308409
-0.0974243
0.288204
-0.190778
0.122963
0.454504
-0.308368
-0.122128
-0.211025
0.44835
-0.287292
-0.161058
0.489052
-0.337601
-0.151451
0.428465
-0.217569
-0.210892
0.00886305
-0.189533
-0.319887
0.303214
0.145137
-0.0866518
-0.0835474
0.170199
0.0277917
-0.175291
-0.152176
0.138743
-0.263546
0.318511
-0.331727
-0.132625
0.280428
0.409383
-0.455293
0.116158
-0.135874
0.0197152
0.386027
-0.149063
-0.247056
0.112814
0.134242
-0.202121
0.299497
-0.0973757
0.165776
-0.257335
0.0915592
0.0962971
-0.229685
0.133388
0.0483689
-0.0043718
-0.0439971
0.229604
-0.151106
-0.0784987
-0.307247
-0.0958231
0.403071
-0.426869
0.431147
-0.0042787
-0.327073
0.374261
-0.130461
0.0696606
-0.0327055
-0.0523003
-0.0961279
0.148428
-0.132711
0.259193
-0.000903996
0.0492729
0.161137
-0.471886
-0.132799
0.116261
0.195651
0.0264868
0.296319
-0.512396
0.216077
0.105465
0.171492
-0.259582
0.192836
0.219415
-0.344548
0.125135
0.273273
0.164182
-0.437455
0.142963
0.514746
-0.218426
0.128614
0.243364
-0.371977
0.0975874
-0.317333
0.338047
-0.11863
-0.128268
-0.113088
-0.158729
-0.238133
-0.234674
0.354972
-0.120297
-0.183577
0.301977
0.0204371
0.0542501
-0.0160243
0.161624
-0.202701
0.0410773
0.0804481
-0.296746
0.216298
0.158556
-0.233642
0.311314
-0.134487
-0.26727
-0.177043
-0.446282
0.176692
0.269592
0.302909
-0.22246
-0.215759
-0.091361
0.30712
0.122121
-0.314875
-0.398757
0.240032
0.21559
-0.31832
0.445237
-0.287166
-0.158067
-0.0646938
0.226317
-0.238531
0.322903
-0.0843712
0.13821
-0.0354683
-0.102742
-0.0729511
0.0883396
-0.216661
-0.229619
0.107228
0.144415
0.196581
-0.131199
0.268505
0.159963
-0.043813
0.0373852
0.00642775
0.162975
0.334925
0.0806701
-0.19826
0.11759
0.142668
0.0869368
0.388194
0.0912521
0.16739
0.143924
-0.114835
0.139791
0.0304369
-0.0630266
0.433157
-0.528889
0.218429
0.310461
-0.136072
0.158449
-0.0223762
-0.163184
0.110884
0.115744
0.0224656
0.163665
0.25399
-0.417649
-0.103648
-0.0288107
0.307718
0.137521
0.131132
-0.0149731
-0.449737
0.126397
-0.18081
0.395703
-0.214892
-0.134552
0.0340955
0.100456
-0.463112
0.331258
0.131856
-0.212767
0.379226
-0.16044
-0.308373
0.108735
-0.249766
0.141032
0.167374
-0.478683
0.31131
0.439085
-0.140381
-0.0396952
-0.0420341
-0.0488412
0.167419
-0.118577
0.52606
-0.269725
0.341601
0.154816
-0.496416
-0.135526
-0.311818
0.128381
0.183438
-0.184488
0.135647
0.0238881
-0.0296148
0.00572674
0.151074
-0.449123
0.298051
0.204408
0.367649
-0.18531
-0.123881
0.309192
0.114854
0.40777
0.222412
-0.0915639
-0.130848
0.479725
-0.0703419
0.443162
-0.287436
-0.0840346
-0.114164
0.198199
0.4387
-0.291689
-0.147011
0.152938
-0.00991019
-0.143027
0.0518291
-0.318323
0.266494
-0.327829
-0.241432
0.0556729
0.128059
-0.183732
-0.0904813
-0.149272
0.0626203
-0.108988
0.242197
-0.133209
0.176277
-0.308147
0.131871
0.150521
-0.39401
0.243493
0.435921
-0.3327
-0.194341
-0.120179
0.295042
-0.0777098
-0.217332
0.356324
-0.486903
-0.214514
0.0816569
0.132858
-0.0666892
-0.10488
0.171569
0.189641
-0.370449
-0.239812
0.221876
0.0179354
-0.0207886
-0.18879
0.24969
-0.0608991
-0.11901
0.0256976
0.0933123
-0.525546
0.1822
0.136798
-0.21486
-0.511869
0.256182
0.255687
0.402636
-0.429689
0.0270536
-0.262248
0.314078
0.000125965
0.132308
-0.132434
0.0944732
-0.0700008
-0.0244725
0.340262
0.0988229
0.299731
-0.451891
0.152162
0.255725
0.136425
0.392965
0.463766
-0.33074
0.139851
-0.0248447
-0.085632
-0.213924
0.299557
0.0969022
0.158019
-0.25492
-0.134665
-0.0798494
0.20585
-0.107824
0.433416
-0.297029
-0.136386
-0.137958
0.0125891
0.0631057
-0.0203149
-0.0427909
-0.151309
0.424582
-0.301884
0.439601
-0.137716
0.297787
-0.449095
-0.0995136
0.189806
0.00259797
0.196853
-0.139827
-0.312994
0.436197
-0.1232
-0.122864
-0.111334
0.234198
0.460722
-0.12046
0.157923
0.31159
0.136755
-0.122645
-0.0141096
0.308929
-0.193862
-0.0420771
-0.150637
-0.43055
0.0518829
0.103483
0.194101
-0.297583
-0.150221
0.123087
0.0271346
-0.0714881
0.426968
0.114252
-0.237116
-0.390802
0.116715
-0.200749
-0.203059
0.362372
-0.15931
-0.363643
0.276744
0.0869019
-0.158192
0.209515
-0.0513218
0.246999
-0.138264
-0.503895
0.203854
0.300042
0.495102
-0.354607
-0.140495
-0.304809
0.155729
0.14908
-0.125455
0.0724841
-0.0773508
-0.127857
-0.0734337
0.407862
-0.334425
0.127464
-0.192285
-0.227449
0.31881
0.0379694
-0.356777
0.455517
-0.15773
-0.0251868
-0.0821093
-0.00712319
-0.134953
0.142076
-0.493637
0.195069
0.298569
0.0263737
0.108973
0.428507
-0.146546
-0.281959
-0.0676721
0.501292
-0.0868164
-0.0477354
-0.255308
0.104124
0.151184
-0.00872462
-0.220322
-0.217241
0.13989
-0.0831502
-0.280487
0.130601
-0.137724
0.279396
0.149114
0.373022
-0.522946
0.327898
-0.354762
-0.467477
0.154486
0.24438
-0.130128
0.143457
0.0706884
0.135601
0.457559
-0.00622516
-0.451331
-0.00979635
-0.0340166
-0.262151
0.38611
-0.123959
0.308247
0.147271
0.305198
-0.279487
-0.221757
-0.0575157
0.141337
-0.136952
0.367669
-0.523237
0.155569
0.0920954
-0.116494
0.0243987
0.253824
0.0778306
-0.331651
0.375276
0.113915
-0.489189
-0.327647
0.493833
-0.166185
0.223299
0.423681
-0.155172
0.0173359
-0.107781
0.0904451
-0.303848
0.169119
-0.0946417
-0.218256
-0.188709
-0.103774
-0.257095
0.149061
-0.281348
-0.46512
0.337041
0.128081
0.134172
0.283232
-0.297044
-0.0185129
0.0278909
0.17638
0.139138
-0.505954
-0.0152171
0.317194
0.0096142
0.0534916
-0.379506
0.000726114
0.378781
-0.283963
-0.137979
0.421942
0.510264
-0.211581
-0.298682
-0.186881
-0.325692
0.0383582
0.114579
-0.10041
0.503046
-0.151547
0.122471
-0.233804
0.445942
-0.137695
-0.433891
0.0543854
0.17546
-0.0106884
-0.164772
0.155753
0.243641
-0.399394
-0.0162995
0.147696
-0.131396
0.34717
-0.318582
0.28773
0.135954
0.516076
-0.225871
-0.290205
0.0993592
0.0200632
-0.119422
0.19367
-0.247525
0.411196
0.0323015
0.140338
-0.172639
-0.157986
0.457719
0.201021
0.107822
-0.308841
-0.351511
0.078381
0.273133
-0.162095
-0.33143
-0.428248
0.301417
0.16198
-0.268315
0.356411
0.429867
0.0320666
-0.46193
0.263038
0.288932
0.292791
0.170477
-0.463267
0.140315
-0.31872
0.178406
-0.166994
0.150694
0.117512
-0.0181524
0.135384
0.141404
0.105595
0.109749
-0.301247
0.191499
-0.292888
0.195465
0.145708
-0.416332
-0.431429
0.291866
0.116323
-0.58403
0.256682
0.327349
0.442469
-0.303023
-0.139443
-0.297368
-0.223398
-0.126123
0.264868
-0.21445
0.331119
-0.116668
0.474967
-0.335648
-0.139319
0.0877226
-0.0662322
0.208977
0.0178269
0.149592
-0.309505
-0.154738
0.013238
-0.0973972
0.502168
-0.320991
0.342873
0.132094
-0.0526284
0.399799
0.123633
0.495976
-0.153102
0.473605
-0.33783
-0.135774
-0.140441
0.117318
0.234737
0.290525
-0.237335
0.332734
-0.095399
-0.142373
0.3962
-0.323385
0.101882
-0.363677
0.261797
-0.143953
0.176255
-0.329355
0.172666
0.156689
0.301502
0.134697
0.0486392
0.17864
-0.227278
0.124028
0.38035
-0.117895
0.0806138
-0.216455
-0.295941
-0.0664139
-0.096107
0.162521
0.198049
0.0969938
-0.127672
-0.308748
0.0917209
-0.330251
-0.39213
0.277991
0.11414
-0.0562733
0.0519015
-0.139587
-0.338175
0.218233
0.296513
-0.168794
0.2602
-0.0466716
-0.213529
-0.28201
0.372669
-0.0906578
-0.45296
0.329082
-0.51674
0.359203
0.157538
-0.378907
-0.0878372
0.154328
0.334724
0.0878283
-0.154242
0.284724
-0.0860907
0.0964447
0.275748
0.0223828
0.373148
-0.395526
0.274482
-0.347912
0.361958
-0.511504
0.149545
0.436118
-0.117306
-0.114465
-0.0407626
0.129602
-0.0888389
-0.109007
-0.297548
-0.151611
-0.0213092
0.17292
0.0121534
0.217579
-0.229731
-0.558777
0.22076
0.338018
0.00809494
-0.449937
0.128713
-0.383586
0.254876
0.1203
-0.409078
0.28878
0.227005
-0.0165092
-0.210495
0.0953079
0.0738113
-0.43079
-0.237017
0.233237
-0.221082
-0.210454
-0.150382
0.360839
-0.137419
-0.248232
0.04504
-0.0162986
-0.135312
0.107994
-0.207507
-0.112086
0.125663
-0.0135772
0.0448889
0.0266596
0.273141
-0.114249
-0.158892
0.318125
-0.472084
-0.324039
0.0985354
-0.271128
0.172594
0.0671721
-0.363125
0.295959
0.038546
-0.408521
-0.116639
-0.0196007
0.136239
0.120281
-0.028186
-0.473458
0.173875
0.299584
0.148865
0.390624
-0.129135
0.393393
-0.273091
-0.0499798
-0.00629351
-0.425134
0.123251
-0.297302
0.14901
-0.486611
-0.0919753
0.419268
-0.327292
-0.249626
-0.303405
-0.165124
0.284407
-0.0816479
0.088005
-0.00635703
-0.354995
0.513271
-0.158276
-0.296879
-0.291745
-0.181711
0.484109
-0.32614
-0.157966
-0.263252
-0.117292
0.318314
-0.27803
0.0759098
0.178933
0.305179
-0.136274
-0.326837
0.145959
-0.476571
0.342811
-0.0849144
-0.197186
0.402009
0.0172542
-0.419263
-0.45342
0.283355
-0.104797
-0.158889
0.263687
-0.0439781
0.127746
0.313015
-0.489698
0.176684
0.0939663
-0.319589
0.477701
-0.158109
-0.246273
-0.215184
0.44691
-0.161065
-0.285844
-0.116503
0.463354
0.15952
0.113621
-0.133197
0.44976
0.116689
-0.313632
0.196944
0.123018
-0.361241
0.238224
0.154065
0.228513
0.197352
0.0628481
0.177193
0.355237
0.431628
-0.426579
-0.00504684
0.444641
0.033593
-0.478232
0.0971917
-0.31295
-0.115384
-0.0829744
-0.404372
0.261595
0.142779
0.00194494
-0.150454
-0.446885
0.176753
0.193175
0.323219
-0.141615
-0.0644051
-0.185557
0.249962
0.345298
-0.216684
-0.112841
0.482679
0.00361762
-0.0852655
-0.553317
0.232176
0.321142
-0.37167
0.465826
-0.094155
-0.257817
0.122548
0.135269
0.0902664
-0.303373
0.213108
0.257643
0.178478
-0.123534
0.140122
0.245906
-0.162927
0.0362195
0.126707
-0.24216
0.177755
0.399914
-0.107123
-0.309385
-0.243931
-0.36409
0.161033
0.296722
-0.0140056
-0.282715
-0.301819
0.307496
-0.383642
0.483094
-0.331919
-0.151174
0.314552
-0.197861
0.222645
-0.0514011
0.0179603
0.123956
-0.141917
0.380612
-0.0384769
-0.342133
-0.328124
0.476177
-0.148051
-0.285593
-0.135085
0.420679
-0.308628
-0.152984
-0.134069
-0.286601
0.420671
-0.497371
-0.0560722
-0.095464
0.151536
-0.108252
-0.0196816
0.127934
0.372788
-0.305609
-0.283265
-0.210657
-0.134653
0.507676
0.500258
-0.342721
-0.157537
-0.323296
-0.141823
0.0811399
-0.418995
-0.186239
-0.291071
-0.306556
0.481145
-0.174587
0.283366
0.203922
0.312155
0.124674
0.316858
-0.44153
0.157738
-0.391383
0.233648
-0.0249475
0.164738
-0.253512
0.470683
-0.16694
-0.30374
0.317222
-0.337554
0.0203347
-0.0835579
0.184742
-0.101184
0.443309
-0.355686
0.145235
-0.314294
0.43897
-0.497665
0.353306
0.14436
-0.0251828
0.402738
-0.377554
-0.210573
0.0757807
0.134793
-0.105203
0.091113
0.385241
-0.2275
0.0259386
0.133944
0.1501
-0.169385
0.0192849
0.0291552
-0.0863177
0.0571625
0.012729
-0.132106
0.119377
-0.450823
0.28981
0.161017
0.293545
-0.203278
-0.443805
0.281138
0.162669
-0.332644
0.401843
-0.0691956
-0.308619
0.455852
-0.147228
0.331795
-0.464275
0.132481
-0.348963
0.101045
-0.4212
0.0259613
0.381862
-0.245857
-0.136006
0.0739345
-0.117913
-0.258196
-0.0968348
-0.166825
0.326989
-0.160164
0.223747
-0.33787
0.114124
-0.316486
-0.174199
0.249205
-0.0273288
-0.124237
-0.0848343
0.209072
0.445246
0.0351669
-0.480411
0.158543
-0.472111
0.109267
-0.0919306
-0.176795
0.110106
0.194966
-0.124277
0.409459
-0.0408253
-0.368631
0.0932071
0.0372379
-0.130445
-0.293635
0.46319
-0.131931
-0.1931
0.280203
-0.0871025
0.270304
-0.182489
-0.0878147
0.128475
-0.115121
0.153479
-0.513934
0.327053
-0.306711
0.207406
0.0993059
0.091517
0.0381144
-0.226904
0.0359187
-0.0820834
0.174243
0.20637
0.432066
-0.0904647
0.123087
-0.432902
-0.0787433
-0.00147135
0.0802146
0.326664
-0.25912
0.127337
0.204216
0.177646
-0.097607
-0.112966
-0.298425
0.128896
0.169529
0.172506
0.0977979
-0.354393
0.296802
0.40536
-0.374597
-0.0307597
0.257259
-0.059907
0.106448
0.151342
-0.25779
-0.558713
0.230992
0.327722
0.373373
0.0602737
0.327244
0.13718
-0.464424
-0.228725
-0.329987
0.438965
0.146622
0.168989
-0.1095
-0.307251
0.481743
-0.174489
0.195409
0.0618501
0.12886
-0.17614
0.102295
0.176097
-0.278391
0.281694
-0.373668
0.0234901
-0.118954
0.38614
-0.128495
0.11545
-0.303341
0.187892
0.0975579
-0.448964
-0.104306
-0.207052
0.149937
-0.316762
-0.149843
0.184797
-0.308265
0.12347
0.01288
-0.0889474
0.0760674
0.031166
0.374196
-0.127191
0.31388
-0.129082
0.122357
0.0726091
-0.256801
0.0637015
-0.294606
-0.14591
-0.139299
0.203773
-0.0644744
0.136326
0.315157
0.428381
-0.209837
0.221069
-0.0112312
-0.3018
-0.123333
-0.47202
0.375223
0.0968
0.412018
-0.0947932
-0.154037
0.144127
0.0261032
-0.00221511
-0.302744
-0.17747
0.480214
0.124053
0.0406727
-0.164726
-0.419244
0.0185338
0.40071
-0.302354
0.292455
-0.146332
-0.34559
0.452113
-0.117529
0.223978
0.19293
0.326551
-0.142695
-0.127257
0.24454
0.382855
-0.242732
0.0168683
-0.105511
0.0886427
0.0131109
0.236094
0.239685
-0.073908
-0.550028
0.324157
0.546572
-0.31558
-0.0312835
-0.0852105
0.0457762
0.048697
0.0708445
-0.0847692
0.481326
0.285967
0.152735
-0.123525
-0.188813
0.31234
-0.21135
0.0710639
0.399822
0.373857
0.0560138
0.120159
-0.205809
0.119231
0.188303
-0.447954
0.312055
-0.0959074
0.24725
0.249033
-0.328279
0.0792496
0.0278239
0.0418367
-0.43561
0.346686
0.0189053
-0.132525
0.113619
0.138041
0.0764011
0.0788036
-0.215285
0.136481
0.51668
-0.459631
0.316908
0.142724
0.0978507
0.190354
0.192589
-0.316113
-0.15247
0.249373
-0.340694
0.106021
-0.0602855
0.0618567
-0.486916
0.183515
0.0949216
-0.278435
-0.130588
0.121174
-0.306483
0.0165987
0.210407
-0.0944884
-0.0595489
-0.017087
-0.0616563
-0.309526
0.140453
0.21116
-0.35161
0.194192
-0.0219649
0.0238041
-0.00183927
0.139524
0.321198
0.13608
-0.326533
-0.135408
0.461941
-0.152433
0.0373126
0.0976192
-0.068464
-0.164097
-0.307856
-0.100264
-0.225138
-0.0815729
0.477073
-0.145278
0.158974
-0.240657
0.081683
-0.351594
-0.0170584
0.368659
0.0379178
-0.290626
0.252709
-0.50917
0.303374
0.205796
-0.077377
0.0677513
0.00962567
-0.105573
0.28909
-0.306117
0.487187
-0.18107
-0.528501
0.312046
-0.246469
0.406091
-0.478307
0.168234
0.310073
0.199301
-0.535576
0.336275
0.0130093
-0.197004
-0.525856
0.297131
0.350775
-0.451185
-0.498556
0.205891
0.292666
0.195034
0.119572
-0.314606
-0.173017
-0.121226
0.294244
0.279376
-0.309869
-0.165196
0.16076
-0.0367062
0.094655
-0.270948
0.438322
-0.316558
-0.134615
0.451174
0.129846
-0.268695
-0.234961
0.425563
-0.317371
-0.108193
-0.186792
0.284644
0.303114
-0.265195
-0.403513
-0.112742
-0.362412
-0.111064
-0.505544
0.171034
0.334511
-0.271183
-0.126695
0.397879
0.245441
-0.394187
0.148749
0.29715
-0.177218
-0.321337
-0.449059
0.201097
0.247962
0.427763
-0.293591
-0.116095
-0.287471
0.403568
-0.064497
0.131966
0.026483
0.0951486
0.368011
-0.161046
0.125224
-0.242753
0.440833
-0.270679
-0.170155
-0.139763
0.370293
-0.230529
0.22652
0.320053
0.144715
0.338381
0.351772
0.339028
-0.241427
-0.0976004
-0.333917
-0.136988
-0.308128
0.0127299
0.339869
-0.352599
-0.342326
0.50101
-0.158684
-0.513723
0.171397
0.239333
-0.116785
-0.115732
-0.17641
0.103632
0.512504
-0.160171
-0.352333
-0.246032
0.21788
0.0281521
-0.22231
0.124704
0.332341
-0.368564
0.0362255
-0.277171
-0.304504
0.443792
-0.139287
0.359986
-0.044106
0.0567574
0.129777
-0.186534
-0.116693
-0.206788
-0.0250179
0.231807
0.378967
0.0526633
-0.0952812
-0.05494
-0.327178
0.17924
0.147939
0.199065
0.343559
-0.11445
-0.229109
0.304778
-0.476247
0.171469
-0.132957
0.215665
-0.0827084
-0.317279
0.488352
-0.171072
0.0156232
0.115508
0.0866192
-0.170177
0.349376
-0.495778
0.146403
-0.20189
-0.0441418
0.373703
0.0357586
0.230611
-0.180063
-0.0505477
-0.0136732
-0.101578
0.131865
0.258893
-0.390757
-0.439625
0.137826
0.116482
-0.254376
0.137895
-0.229092
-0.345659
0.247158
-0.0585065
-0.31144
0.369948
0.383489
-0.157451
-0.226035
-0.267482
0.060072
0.20741
-0.136488
0.385523
0.122553
-0.460382
0.275517
0.165316
0.33995
-0.32722
0.486676
-0.335723
-0.150952
0.16168
-0.266476
0.0184656
-0.126202
0.107737
-0.471233
0.290494
0.180745
0.00177759
0.398903
0.126969
0.477826
-0.164811
-0.387276
0.300553
-0.507144
0.354025
0.15312
-0.117741
0.214039
-0.388449
0.24608
0.033383
0.197228
0.340504
0.0485942
0.246269
-0.294861
0.0261452
0.0998478
-0.125993
0.145489
-0.249633
0.104145
0.251198
-0.493106
0.341542
0.151565
-0.451394
0.162116
0.289282
-0.259299
0.100411
-0.0876463
0.124884
-0.183138
-0.21787
-0.0999245
0.317796
0.150192
0.232664
0.463826
-0.121453
-0.342373
-0.358849
0.119918
0.238932
0.265862
0.145721
-0.411578
0.170837
-0.400967
0.230135
0.0815888
0.211957
0.0937644
0.145569
-0.0497214
0.223575
-0.173854
0.405363
-0.130236
-0.275122
0.290449
-0.241852
-0.146617
-0.325401
-0.0555255
0.4063
-0.332926
-0.231688
0.414273
-0.11364
-0.331128
0.182333
-0.00806528
-0.223638
0.129063
0.267322
-0.396383
-0.344601
-0.121739
0.46634
0.038528
-0.0294931
-0.00903489
0.0197799
0.116975
-0.310719
0.156107
0.133041
-0.477642
0.327813
0.0775532
-0.324751
-0.220818
0.164721
-0.325846
-0.140242
0.466088
0.121746
-0.0237461
-0.0980003
-0.465884
0.159768
-0.207486
-0.286151
-0.156122
-0.279918
0.436041
-0.137802
-0.214127
0.0811708
-0.185795
-0.207247
0.0687938
0.138454
-0.308447
-0.45281
0.124688
0.357436
0.0444093
-0.0958784
0.0229273
-0.404765
-0.0928557
0.266995
0.109853
-0.376845
-0.502302
0.207008
0.295294
0.145048
0.153039
0.24201
-0.395045
0.200365
-0.317655
0.133812
0.275707
-0.409517
-0.325066
0.207228
0.117839
0.190671
0.153315
0.304737
0.230535
-0.100688
-0.202391
-0.333184
0.204467
-0.323758
0.119292
-0.113893
0.204163
0.317275
-0.521437
0.215591
0.122191
-0.337782
0.0563147
0.116109
-0.172423
-0.170766
-0.296707
0.369728
-0.240664
0.0309836
-0.254297
0.386164
-0.16769
0.136568
0.0311227
0.201554
-0.0927913
0.369216
-0.17129
-0.197926
0.219866
0.14935
0.287538
-0.11126
-0.0192124
-0.0991613
0.118374
0.101398
0.0203484
-0.063454
0.395798
-0.203676
-0.129638
0.0213863
-0.323091
0.108642
0.109433
-0.140712
-0.48058
0.171307
0.309274
0.458858
-0.15268
-0.306177
0.126903
-0.46255
0.195974
-0.494269
0.298295
0.161415
-0.13527
-0.16433
-0.287059
-0.404051
-0.112164
0.516216
-0.304162
-0.115658
0.339406
-0.476448
0.159169
-0.00840817
-0.0977155