/*--------------------------------*- C++ -*----------------------------------*\
| =========                 |                                                 |
| \\      /  F ield         | OpenFOAM: The Open Source CFD Toolbox           |
|  \\    /   O peration     | Version:  v2012                                 |
|   \\  /    A nd           | Website:  www.openfoam.com                      |
|    \\/     M anipulation  |                                                 |
\*---------------------------------------------------------------------------*/
FoamFile
{
    version     2.0;
    format      ascii;
    class       surfaceVectorField;
    location    "300";
    object      ddtCorrDdt0(Uf);
}
// * * * * * * * * * * * * * * * * * * * * * * * * * * * * * * * * * * * * * //

dimensions      [0 1 -2 0 0 0 0];


internalField   nonuniform List<vector> 
27882
(
(-0.00742486 -0.00384663 -3.22647e-20)
(-0.0072812 -0.00503492 4.54704e-20)
(-0.00637844 -0.00409275 -3.9358e-19)
(-0.0493594 -0.0467291 -3.08892e-19)
(-0.0455668 -0.0600911 7.9403e-19)
(-0.0392822 -0.0533559 -5.38321e-19)
(-0.000330302 -1.15124e-05 3.4886e-19)
(-0.00035011 -1.18604e-05 -3.71753e-20)
(-0.000375796 -1.49171e-05 -2.15967e-19)
(-0.00861833 -0.00339397 4.81161e-19)
(-0.00724785 -0.00269948 -1.28378e-19)
(-0.00656053 0.00571391 1.31226e-19)
(-0.00627626 0.0067971 1.52946e-19)
(-0.00749148 0.00626522 -4.18743e-19)
(0.000451961 4.91097e-05 4.02406e-20)
(0.000470954 7.13111e-05 -9.65512e-20)
(0.000475751 5.25966e-05 -4.29766e-21)
(-0.000315174 0.000316744 -1.9936e-18)
(-0.000321461 0.000333422 2.00658e-18)
(-0.000335953 0.000320349 -2.45722e-18)
(-0.00338371 0.00181248 1.74033e-18)
(-0.00363777 0.00171581 -1.87905e-18)
(-0.00362283 0.00206157 -1.54292e-19)
(-0.00683608 0.00472097 1.25902e-19)
(-0.00583892 0.00526961 2.7695e-19)
(-0.00689037 0.00388422 -5.9566e-20)
(-0.00687507 0.0030168 -3.70166e-19)
(-0.00605485 0.00360359 -1.10206e-19)
(-0.0537828 -0.00857563 -1.04787e-18)
(-0.0505544 -0.0210194 -1.51708e-20)
(-0.0482075 -0.00929246 3.42798e-19)
(-0.00827529 0.181379 3.98206e-18)
(-0.0136162 0.1757 7.64901e-19)
(-0.0191286 0.162158 -3.32349e-20)
(-0.0545593 0.000568585 2.93512e-19)
(-0.0511976 0.00694196 -1.12346e-18)
(-0.0583057 0.00770298 2.31558e-18)
(-0.00280249 -0.00156246 -6.06658e-19)
(-0.00276079 -0.00176939 -2.14603e-19)
(-0.00261491 -0.00160533 -3.95864e-19)
(-0.000274768 0.000297744 5.82195e-19)
(-0.00029525 0.000308669 -1.03253e-18)
(-0.000276303 0.000316117 7.43899e-20)
(-0.000130052 0.000127474 -8.50049e-19)
(-0.000121815 0.000121494 1.36984e-19)
(-0.00012171 0.000130737 4.20734e-20)
(-0.00208345 0.182484 2.74494e-18)
(-0.000635036 0.193536 1.59188e-18)
(0.000922542 0.000122647 -4.79965e-20)
(0.000891155 0.000131415 -9.10315e-22)
(-0.00025666 0.000288065 -6.20062e-19)
(-0.000274287 0.000281849 -5.25302e-19)
(0.00307362 0.00360378 -2.69113e-19)
(0.00355111 0.00385962 1.8293e-19)
(0.00293131 0.0041511 6.82923e-19)
(-0.0348958 0.00361437 -7.6932e-21)
(-0.0330684 0.00470673 3.65032e-19)
(-0.0345162 0.00320633 -1.62687e-19)
(0.0726787 -0.0423139 -1.1521e-17)
(0.0718051 -0.0398865 -5.02642e-19)
(0.0704937 -0.0421839 5.72248e-18)
(0.000414459 3.16851e-05 -9.8878e-21)
(0.000427311 4.89731e-05 -6.08548e-20)
(0.000141641 7.71744e-05 1.26687e-19)
(0.000162052 8.82718e-05 1.5941e-19)
(0.000138414 0.000106482 2.25012e-19)
(0.0736257 -0.0442185 -8.48327e-19)
(0.075043 -0.0419262 -5.82298e-18)
(0.047067 -0.0911204 1.02064e-18)
(0.0462583 -0.0879129 -4.98265e-19)
(0.0504913 -0.0894766 -1.63843e-19)
(-0.010752 0.0285573 -2.15955e-18)
(-0.0117126 0.0352202 1.20378e-18)
(0.00141186 0.0174356 -5.43853e-19)
(-0.103552 -0.0256417 4.49573e-19)
(-0.0951706 -0.0286695 1.72623e-19)
(-0.104461 -0.0349387 2.34791e-18)
(-1.71668e-05 -0.0442286 -4.4478e-19)
(-0.000325416 -0.0470778 9.84463e-19)
(-0.00251346 -0.0447334 1.72998e-18)
(-0.0471258 -0.0898541 3.14153e-20)
(-0.0397845 -0.103722 1.41641e-18)
(-0.0376224 -0.0927302 -1.23573e-19)
(-0.142584 0.580902 -1.79002e-17)
(-0.117889 0.564886 2.60124e-18)
(-0.124928 0.601457 -2.06644e-18)
(-0.00862358 0.0244849 7.19365e-19)
(-0.022572 0.0401992 2.5109e-18)
(-0.00311724 0.00187418 7.45924e-19)
(-0.00317141 0.00160756 4.05908e-19)
(0.0779276 -0.0645734 2.61599e-18)
(0.0805577 -0.0634425 -1.81731e-19)
(0.0811784 -0.0665733 1.29755e-18)
(-0.00592851 0.00787398 -4.30163e-21)
(-0.00567339 0.00887539 -6.86978e-20)
(-0.00695193 0.00843326 -3.72257e-19)
(-0.0530745 -0.0714357 -2.63038e-18)
(-0.0539621 -0.0782711 5.25764e-19)
(-0.0519752 -0.00608251 6.42353e-19)
(-0.0542059 -0.00576766 8.68194e-20)
(-0.005201 0.00721044 2.66886e-20)
(0.0487103 -0.187984 -5.86799e-18)
(0.0696829 -0.167212 3.75294e-18)
(0.0919047 -0.116092 2.75106e-18)
(0.00265248 -0.000335501 -7.51459e-21)
(0.00272409 -8.42769e-05 3.98862e-20)
(0.00248037 -0.000180743 -9.92446e-21)
(-0.00833624 0.109075 9.84683e-19)
(-0.014148 0.0857767 -1.74159e-18)
(-0.00441601 0.0859969 2.00613e-18)
(-0.00764811 0.000899507 6.66079e-19)
(-0.00877346 0.000726701 2.84036e-19)
(-0.00821221 0.00178118 3.25444e-19)
(-0.00758304 0.140425 2.51251e-18)
(-0.0153426 0.143684 1.69278e-18)
(-0.0179896 0.13159 -6.36837e-19)
(0.00177933 0.000429417 2.82521e-19)
(0.00152871 0.000620613 3.82254e-21)
(0.0018381 0.000775931 -2.98975e-19)
(1.54695e-05 4.85088e-05 4.10071e-19)
(8.11762e-06 4.34703e-05 1.09455e-19)
(4.79194e-06 5.41533e-05 2.01082e-19)
(-0.136424 0.55674 -5.38466e-18)
(-0.120659 0.518643 -1.11089e-18)
(-0.123182 0.53403 -1.32537e-18)
(-0.0071986 0.000362682 -5.73335e-19)
(-0.00671933 0.00118922 1.65892e-19)
(-0.00704774 -0.0469602 -1.03966e-18)
(-0.00922575 -0.0450693 5.54184e-19)
(-0.00956011 -0.0484097 -1.24848e-19)
(0.0853329 0.0528372 8.01002e-18)
(0.0646287 0.0702979 2.65472e-18)
(0.0912402 0.0559136 -5.5642e-18)
(-0.00734366 0.000164615 -1.98275e-19)
(-0.00770413 -0.000812015 -3.91472e-19)
(-0.00664112 -0.000591837 -1.61822e-19)
(-0.0562018 0.00520923 1.87029e-18)
(-0.0591013 -0.00650432 1.29578e-18)
(0.361772 0.0263441 7.23184e-19)
(0.383026 0.0321667 -2.08709e-19)
(0.375144 0.0403289 -6.5944e-19)
(-0.00784776 0.00110327 1.86931e-19)
(-0.00668295 0.00102067 1.99547e-19)
(0.00134724 -0.00356264 -4.76805e-20)
(0.000914568 -0.00338514 -5.9934e-20)
(0.000969863 -0.00399514 3.0141e-19)
(0.0447062 -0.0383735 -1.79802e-18)
(0.0466085 -0.0370373 -1.69651e-18)
(0.0469313 -0.0395296 -5.98469e-18)
(-0.0458529 0.0119614 -4.3744e-20)
(-0.0444917 0.00486549 -1.00622e-18)
(-0.000625266 -0.000752938 8.85442e-21)
(-0.000598029 -0.000699111 -5.37652e-20)
(-0.00052726 -0.000758295 1.63904e-19)
(0.00262235 0.00341295 -6.77057e-19)
(0.00314716 0.00310151 -4.58385e-19)
(-0.0113098 -0.043058 1.40624e-19)
(-0.0138487 -0.0439209 -4.60404e-19)
(-0.0129997 -0.0410044 -3.23227e-20)
(-0.000681431 -0.000830313 -2.71585e-19)
(-0.000720074 -0.00073876 -2.07172e-19)
(4.29478e-05 4.5429e-05 -9.0479e-20)
(3.5036e-05 5.38373e-05 2.81422e-19)
(3.49092e-05 4.34209e-05 2.87783e-19)
(0.00196641 0.000188496 -2.08452e-19)
(0.00166878 0.000109805 9.35911e-19)
(0.0710931 0.0602726 3.71876e-18)
(0.0589279 0.061235 1.69139e-18)
(-0.0370619 0.0146381 -9.28908e-19)
(-0.0363583 -0.0357423 3.51879e-18)
(0.00222244 -0.00279796 -7.95739e-19)
(4.64558e-05 3.31224e-05 -3.92952e-19)
(5.54261e-05 4.51636e-05 -4.68487e-20)
(0.0943101 -0.0589732 6.08969e-18)
(0.0940837 -0.0552167 -7.8051e-18)
(0.0884833 -0.0518055 1.96203e-17)
(0.000175087 -3.13061e-05 -1.92334e-20)
(0.000172758 -2.34483e-05 4.17002e-20)
(0.000183213 -2.44329e-05 -7.18196e-20)
(-0.000432241 0.000880862 -1.50274e-19)
(-0.000438823 0.000825785 -8.30652e-20)
(-0.000481006 0.000873371 4.23153e-20)
(-0.099265 -0.0161828 -3.70053e-19)
(-0.110352 -0.0198859 -1.58953e-18)
(0.000948381 0.000161069 5.63075e-21)
(0.000953699 0.000105764 -5.85137e-21)
(0.353867 0.0145071 8.6094e-19)
(0.342523 0.00982541 1.25899e-18)
(0.0569811 -0.0967098 -1.16271e-19)
(0.0532248 -0.0957603 -4.51542e-19)
(0.0559918 -0.0936817 -4.29486e-19)
(-0.00012408 0.00031306 2.84756e-19)
(-0.000132751 0.000322703 3.00193e-19)
(-0.000121697 0.000320905 -4.12992e-19)
(0.0026787 0.0107324 3.74125e-20)
(0.00175951 0.0104591 2.52811e-19)
(0.00235179 0.00973539 4.70746e-19)
(0.037988 0.0506793 -9.33315e-19)
(0.0334206 0.0550005 -6.33988e-19)
(0.032018 0.0474738 -3.77541e-19)
(-0.146736 0.580996 1.79323e-18)
(-0.137834 0.57273 5.82091e-18)
(0.0381267 -0.0619177 -4.08298e-19)
(0.0448351 -0.0624632 -1.86124e-18)
(0.0402028 -0.0697375 1.36321e-18)
(0.0134417 0.173547 -5.32791e-18)
(0.0148568 0.181429 -1.42508e-18)
(0.0220299 0.160339 -2.88041e-18)
(-0.00782909 0.00417603 -2.11015e-19)
(0.00219167 0.143591 -2.72753e-19)
(0.000316876 0.132369 -4.17968e-19)
(0.0222121 -0.0349127 -2.36781e-18)
(0.0232502 -0.033343 -1.48922e-18)
(0.0240778 -0.0354489 -6.53275e-19)
(0.0284465 -0.206669 1.18001e-18)
(0.00154958 -0.261435 -7.06495e-18)
(0.00642427 0.176885 3.03098e-18)
(0.0104437 0.166802 1.95426e-18)
(0.0100484 0.0325865 -1.64952e-19)
(0.0124725 0.0347248 -1.58143e-19)
(0.00929059 0.0361245 -1.25794e-19)
(0.0012781 0.002816 7.80721e-20)
(0.00148832 0.0023127 1.87756e-19)
(0.00184772 0.00285968 2.83816e-19)
(0.0397459 -0.0317438 2.01014e-18)
(0.0409353 -0.0333867 -4.49869e-18)
(0.0384491 -0.033742 -1.36939e-17)
(-0.000340793 -0.0050205 -2.5475e-18)
(-0.000385357 -0.0046897 1.87028e-18)
(0.0029778 0.0119012 4.05371e-19)
(0.00379061 0.0108332 3.31983e-19)
(0.0619991 0.0374032 1.22697e-18)
(0.0843494 0.0609121 -2.02705e-18)
(0.0403855 -0.0294804 7.19013e-18)
(0.0381848 -0.0301872 7.12063e-18)
(0.251663 -0.0343633 2.41886e-18)
(0.220152 -0.0553034 5.9232e-18)
(0.220206 -0.0388037 -4.19817e-19)
(-6.02322e-05 2.28261e-05 -2.16407e-19)
(-4.14923e-05 2.71451e-05 5.20687e-19)
(-4.06609e-05 3.78404e-05 -8.55953e-20)
(0.0162918 -0.0246065 -2.94183e-19)
(0.0173092 -0.0234124 4.36029e-18)
(0.0180445 -0.0255325 1.09441e-17)
(0.0974505 0.0418698 2.17817e-17)
(0.0773185 0.0531405 2.58168e-17)
(-0.000126126 0.000305904 1.08573e-18)
(-0.000116533 0.000305453 -1.43349e-19)
(0.000278103 -0.000138857 -2.17447e-20)
(0.000291881 -0.000149281 6.47007e-20)
(0.000287469 -0.000131373 1.25899e-20)
(0.00155058 0.000121936 7.71335e-20)
(0.00144854 0.000161884 -1.63173e-20)
(0.00148412 5.48737e-05 1.42712e-20)
(-0.00390363 -0.02868 -1.66096e-18)
(-0.00239649 -0.028186 4.23443e-18)
(-0.00281201 -0.0301048 -1.22016e-18)
(0.0177896 0.167666 1.63869e-18)
(0.0124428 0.186981 -9.73543e-19)
(0.0118397 0.190443 -2.70411e-18)
(6.33229e-05 0.000532186 5.50651e-20)
(4.48421e-05 0.000498585 8.26018e-21)
(7.50097e-05 0.000514162 7.1145e-19)
(-0.14522 0.576776 -1.33455e-18)
(-0.147229 0.562099 4.52822e-18)
(0.0111299 0.00460518 -1.2911e-19)
(0.0112132 0.00578229 -1.22556e-19)
(0.0100819 0.00509338 2.66367e-19)
(-0.000379002 0.00088346 1.28623e-19)
(-0.000418313 0.000939359 1.9393e-19)
(0.000270107 -0.000145059 8.14967e-22)
(0.000265775 -0.000130854 -3.43647e-20)
(0.0942115 -0.062491 5.65373e-18)
(0.0954792 -0.0628408 -9.05209e-18)
(-0.0372017 0.00294922 6.85756e-19)
(-0.0379295 -0.000920769 -1.72315e-19)
(-0.00483717 -0.0457391 -2.46648e-18)
(-0.0049553 -0.0489941 2.64851e-19)
(0.276836 -0.0174012 -2.23678e-18)
(0.276641 -0.0278576 -2.24077e-18)
(0.0534571 -0.0599005 9.20359e-19)
(0.0567241 -0.0583121 3.68961e-19)
(0.0577162 -0.0616444 5.11401e-20)
(0.0208013 -0.00866698 7.03665e-19)
(0.0217385 -0.00996246 -4.78407e-19)
(0.0225548 -0.0082976 1.39748e-19)
(-0.000156429 0.000126486 4.26236e-19)
(-0.000146892 0.000120732 -3.81685e-19)
(-0.000155994 0.000116411 7.72566e-19)
(-0.0329864 0.0486856 4.64004e-19)
(-0.0658082 0.0123424 4.73137e-19)
(0.00786713 -0.00310298 9.24756e-20)
(0.00783449 -0.00242577 8.51811e-20)
(0.00726502 -0.00281676 -1.50579e-19)
(-0.000137632 -4.59026e-05 -4.3572e-19)
(-0.000123172 -4.63617e-05 -6.2689e-21)
(-0.000122972 -3.06758e-05 -1.98283e-20)
(0.0120576 0.00395201 1.93208e-19)
(0.0108608 0.00340361 -1.07219e-19)
(-0.0151443 -0.104896 7.65642e-19)
(-0.0171886 -0.120642 -6.06662e-18)
(-0.0323949 -0.107515 -4.51205e-18)
(-0.00572085 -0.0292788 1.22573e-18)
(-0.0052479 -0.0272784 1.14449e-18)
(-0.0011627 -0.000554008 -1.66336e-19)
(-0.00111086 -0.000634447 -1.05921e-19)
(-0.00108467 -0.000555803 1.23236e-19)
(0.00888252 -0.144661 -3.44414e-19)
(0.00120102 -0.160592 2.18976e-18)
(0.0196392 -0.156009 -2.25702e-18)
(1.70743e-05 0.00379755 4.6799e-19)
(0.000651144 0.00392234 -5.03641e-19)
(0.000131345 0.00454071 9.17193e-20)
(-1.41566e-06 -4.34569e-05 4.98276e-19)
(9.31372e-06 -3.72678e-05 1.12188e-19)
(6.99839e-06 -5.07163e-05 -9.58145e-20)
(0.0361685 -0.0565887 -3.4349e-19)
(0.0319728 -0.0630572 6.68627e-19)
(0.000983059 0.00338747 1.03726e-19)
(0.000743682 0.00276922 6.02305e-20)
(-0.000201961 -0.000462848 -7.01849e-21)
(-0.000202605 -0.000487704 3.59695e-19)
(-0.000231434 -0.000452055 7.11332e-19)
(-0.014525 0.209825 -4.13557e-18)
(-0.0131283 0.203633 -3.93681e-18)
(-0.0106201 0.201892 -5.97659e-18)
(0.00182064 -0.00367986 -8.40122e-20)
(0.0015546 -0.00310517 4.13184e-20)
(0.000865065 0.000415156 -1.1381e-19)
(0.00104483 0.000327139 2.06986e-19)
(0.000852717 0.000191399 -1.98906e-20)
(-0.000175739 -0.000471953 -1.33124e-18)
(-0.000205024 -0.0004406 -1.066e-18)
(0.0119707 -0.0708417 1.55382e-18)
(0.0114541 -0.0670823 -1.02873e-18)
(0.0085853 -0.0703855 1.25476e-18)
(-0.00943505 0.227979 6.85804e-19)
(-0.00855515 0.230818 5.6711e-19)
(-0.00890217 -0.0420676 3.1234e-19)
(0.0002199 6.4226e-06 -1.04309e-19)
(0.000205691 5.38773e-06 -1.49738e-19)
(0.000236703 6.19946e-06 -2.82559e-19)
(-0.01201 0.00146792 -1.24871e-19)
(-0.0120831 0.00241945 -5.16187e-19)
(-0.0129753 0.00189829 3.76482e-22)
(0.168963 -0.0871367 2.73106e-18)
(0.14873 -0.0879813 -5.94466e-18)
(0.149081 -0.0924602 -4.07695e-19)
(0.00288105 -0.000504303 -7.6344e-21)
(0.00259756 -0.000581913 2.47557e-20)
(9.93655e-05 -2.4287e-05 4.83092e-20)
(9.33622e-05 -2.75745e-05 -2.89846e-19)
(9.51572e-05 -2.99803e-05 1.56846e-21)
(-0.0244156 -0.0783502 -2.72742e-19)
(-0.0173024 -0.0937427 -1.6881e-18)
(-0.0380548 -0.0941432 -2.44891e-18)
(-0.000282174 0.00274031 -6.00977e-19)
(-0.00013388 0.00324002 3.28431e-19)
(0.000196014 0.00273027 -5.93525e-19)
(-0.0584672 -0.0870845 -3.66152e-18)
(-0.0648316 -0.0951024 -3.94304e-18)
(-0.0673762 -0.0862948 -7.71622e-18)
(0.0209292 -0.0367801 8.89717e-20)
(0.0200872 -0.0346433 4.55832e-18)
(0.00784704 -0.00379541 -7.59117e-20)
(0.00850132 -0.00346197 -2.12496e-19)
(-0.0633744 0.0235085 -3.29406e-18)
(-0.0567283 0.00910581 1.68606e-18)
(-0.0676251 0.00755365 -2.272e-18)
(-0.000615067 -0.0206758 1.77925e-18)
(0.000529742 -0.0201555 -2.54856e-19)
(0.00036684 -0.0218233 -1.52275e-18)
(0.0486421 -0.0610487 -7.03715e-19)
(0.049495 -0.0573416 3.59619e-19)
(-0.0161307 0.215155 -9.80594e-18)
(-0.0180025 0.217045 2.93674e-18)
(0.00988456 -0.01726 5.10855e-18)
(0.0103535 -0.0163142 2.83758e-18)
(0.0110672 -0.0175074 6.78889e-18)
(0.0932865 -0.0655648 2.78647e-18)
(0.0885406 -0.0589786 1.9509e-17)
(0.0110839 -0.0639906 8.51813e-19)
(0.00768759 -0.0630365 -3.79093e-19)
(0.0103416 -0.0604206 1.65901e-18)
(-0.0504091 -0.0333858 2.48175e-20)
(-0.0434574 -0.0298058 -3.16893e-19)
(0.123645 -0.198108 -5.84842e-19)
(0.11719 -0.193138 -3.13533e-19)
(0.149235 -0.165311 1.74922e-18)
(-0.0111602 0.222654 -1.44655e-17)
(-0.0129512 0.224567 2.95642e-18)
(-0.0113106 0.220045 -3.17742e-18)
(-0.0216421 0.264636 -1.3451e-17)
(-0.0151485 0.257582 -1.98401e-17)
(-0.02721 0.249717 -3.84988e-17)
(-0.000820555 -0.000415132 1.60198e-18)
(-0.000829411 -0.000447571 -4.59391e-19)
(-0.000863339 -0.00041466 1.23797e-18)
(-0.00496961 0.00950058 1.56689e-19)
(-0.0038347 0.00907503 1.76818e-19)
(-0.00401245 0.0104262 1.13562e-19)
(-0.00357254 0.132785 -2.58574e-18)
(-0.00728852 0.131605 -5.04557e-19)
(0.169041 -0.0380702 -2.67003e-18)
(0.151666 -0.0264115 -1.6346e-18)
(0.015388 -0.025956 -2.26711e-18)
(0.0149712 -0.0239944 1.38448e-18)
(0.0140793 -0.0735562 -5.32692e-19)
(0.0152888 -0.0700599 -1.04234e-18)
(0.0188717 0.0303366 -9.67868e-20)
(0.0223982 0.0321843 -6.9713e-20)
(0.0218161 0.0281434 6.32715e-20)
(-0.0556871 -0.0356394 -2.943e-19)
(-0.204561 -0.461538 -4.33154e-18)
(-0.234209 -0.487683 8.5787e-18)
(-0.252476 -0.492205 -6.15901e-18)
(-3.84832e-05 -0.000646703 2.36084e-20)
(9.37583e-06 -0.000683426 7.20567e-20)
(6.7424e-06 -0.000641722 -1.23201e-19)
(0.0840917 0.0989642 -6.56304e-18)
(0.0619717 0.121974 -1.00519e-17)
(0.0752525 0.143049 -4.80652e-17)
(0.0941482 -0.0689257 8.25155e-18)
(0.0934001 -0.0698024 -7.00187e-18)
(-0.086102 0.403437 1.13532e-17)
(-0.0176775 0.284806 6.81981e-18)
(-0.0405621 0.316409 9.52924e-18)
(-0.00110789 -0.00114881 8.521e-19)
(-0.00122631 -0.00102861 3.46155e-19)
(-0.00127681 -0.00121475 1.73012e-19)
(-8.52695e-05 -0.000640517 3.55196e-19)
(-8.11324e-05 -0.000604764 2.70308e-19)
(-0.0341349 -0.329015 1.09961e-17)
(-0.0808467 -0.370972 -9.04569e-18)
(-0.0134312 -0.320917 2.53383e-18)
(-0.0101295 0.225095 7.41759e-18)
(-0.0117071 0.229787 6.14661e-18)
(-0.0169546 0.160818 -2.53735e-18)
(-0.023637 0.126604 -3.34017e-18)
(-0.0169636 0.139539 -3.4161e-18)
(-0.0496274 0.289799 -7.65195e-18)
(-0.0388357 0.321743 3.73062e-17)
(-0.038207 0.285967 2.45596e-17)
(-0.000311598 -8.009e-06 6.42855e-19)
(-0.000262128 -8.01149e-06 1.26554e-19)
(-0.000463676 -0.0495062 -1.97214e-18)
(-0.0027819 -0.0507396 2.35669e-19)
(-0.000513708 -0.0525786 -1.97726e-18)
(0.00407817 -0.0637688 1.83554e-18)
(0.00105225 -0.0667298 -2.41307e-19)
(0.057645 -0.0560477 8.16972e-19)
(0.0553651 -0.0554473 -9.69345e-19)
(0.000509793 0.000709163 9.00909e-21)
(0.000486623 0.000754393 1.25588e-20)
(0.000541039 0.000751526 -3.9919e-20)
(-0.000129978 0.000292479 2.14641e-19)
(-0.000142144 0.000309397 6.75525e-19)
(0.0438544 -0.0795073 1.43918e-18)
(0.0466346 -0.0785553 2.81296e-18)
(0.0464915 -0.0820051 -3.40173e-20)
(0.0750529 -0.0662082 -8.11032e-19)
(0.0744612 -0.0627765 1.15576e-18)
(-0.00103544 -0.00150822 1.64671e-18)
(-0.000982148 -0.00143257 -5.48149e-18)
(-0.000170047 0.000684254 1.06364e-19)
(-0.000212452 0.000694716 2.33972e-19)
(-0.000198899 0.000651325 1.87167e-19)
(0.00324827 -0.00259705 -1.87003e-19)
(0.00291774 -0.00218972 -3.58345e-20)
(0.00271965 -0.00269582 -1.41875e-19)
(0.0425368 -0.037801 -3.2661e-18)
(0.04292 -0.039925 -7.24546e-18)
(-0.0011135 -0.00218129 2.32536e-18)
(-0.00112488 -0.00232189 -8.22078e-19)
(0.0369357 -0.29035 -1.61734e-19)
(0.0482912 -0.277242 1.25977e-18)
(-0.00929318 -0.324314 -1.89933e-18)
(-0.000403085 3.42837e-05 -8.30342e-19)
(-0.000401087 2.13335e-05 1.88151e-19)
(-0.000414601 2.91155e-05 -2.27138e-18)
(-0.0289896 -0.109715 -2.87609e-18)
(-0.0345598 -0.113126 2.11115e-19)
(0.00858966 -0.0105522 2.11111e-19)
(0.00930817 -0.00941706 -3.32841e-19)
(0.010145 -0.0110028 -7.56856e-19)
(0.113499 0.0297431 -8.33007e-19)
(0.106528 0.0342227 3.74466e-18)
(0.0804608 0.145524 3.05376e-18)
(0.0496325 0.193573 5.97418e-19)
(0.138096 0.054023 -4.11807e-18)
(-0.0132542 0.265222 2.89435e-17)
(-0.0220957 0.273487 1.70313e-17)
(-0.000406084 5.25106e-05 1.35485e-18)
(-0.000390233 4.2646e-05 -5.34181e-19)
(-0.0606303 -0.00905666 1.38746e-18)
(-0.0611974 -0.0143724 1.22279e-18)
(-0.0654643 -0.00902921 2.55086e-18)
(0.0769098 -0.0537038 -1.66038e-20)
(0.0713117 -0.0575744 8.93165e-19)
(0.0800223 -0.0597902 1.08874e-18)
(0.000229097 0.000582349 9.92162e-20)
(0.000256051 0.000551535 4.88024e-21)
(0.000273921 0.000595755 -8.82668e-20)
(-0.00132642 -0.00210388 -1.30873e-18)
(-0.00120193 -0.0020848 1.40968e-18)
(-0.00126949 -0.00196477 -3.14153e-18)
(-0.0695139 -0.101765 -1.52841e-18)
(-0.0700495 -0.109907 -3.09809e-18)
(-0.0788779 -0.10158 1.86236e-18)
(-0.000809852 -0.000371088 -1.07554e-18)
(-0.000778311 -0.000401021 1.97354e-19)
(0.121381 0.0176923 -8.29366e-18)
(0.122344 0.0237945 -3.47889e-18)
(-0.000268037 6.46465e-05 5.8896e-19)
(-0.000276228 8.38033e-05 -2.55777e-19)
(-0.000243123 6.51943e-05 -4.81969e-19)
(-0.00261791 0.0010927 -3.16666e-19)
(-0.00233139 0.000781406 -1.03573e-19)
(-0.00216198 0.0011106 -7.52712e-20)
(0.0141842 -0.0767041 8.16618e-19)
(0.0170577 -0.075682 -6.19079e-19)
(0.099684 0.040264 -2.76662e-18)
(0.0911193 0.0415151 2.424e-18)
(0.0956098 0.0314599 3.52405e-18)
(-0.000121104 0.000103686 5.25522e-19)
(-0.000113226 9.82277e-05 5.55409e-19)
(-0.000120832 9.53389e-05 4.89465e-19)
(-0.000164741 0.00013153 -2.1824e-19)
(-0.000155721 0.000135262 1.40039e-18)
(0.0997254 0.0814616 1.14893e-17)
(0.0947111 0.069109 -3.85676e-18)
(-3.10658e-05 -0.00104535 -2.20462e-20)
(2.622e-05 -0.00114816 4.7614e-19)
(-0.000103238 -0.00111185 -4.36822e-20)
(-0.00597933 0.0102306 -1.82732e-19)
(-0.00226156 0.232197 1.39194e-17)
(-0.00354777 0.239798 -4.56754e-18)
(-0.000281316 3.1668e-05 -6.24305e-20)
(-0.000273343 2.63739e-05 -1.95546e-20)
(-0.000334246 4.11729e-05 -8.27356e-20)
(0.0149318 -0.0275391 4.58423e-18)
(0.0142785 -0.0290313 1.46982e-18)
(0.0165281 -0.0283856 7.76771e-18)
(-0.0030989 0.000975609 -7.72229e-19)
(-0.00281757 0.00152827 -5.22293e-19)
(0.00431082 0.00011219 1.01768e-19)
(0.00407735 -0.000138514 -7.1788e-20)
(0.00395893 0.000176753 5.85961e-20)
(0.00220536 0.00243602 2.20204e-20)
(0.00227351 0.00282021 4.22894e-19)
(0.00258131 0.00255308 -2.95556e-21)
(0.00165454 7.60921e-05 -4.11174e-20)
(0.0016186 0.00020835 1.00226e-20)
(-0.000148741 4.13592e-05 -7.80735e-19)
(-0.000144974 3.60872e-05 -7.59572e-19)
(-0.00015259 3.48818e-05 1.08856e-18)
(0.0136583 -0.0268517 -6.13234e-18)
(0.000486903 8.93555e-05 3.85452e-20)
(0.000463891 8.7834e-05 -5.71725e-20)
(-0.0314202 0.0111082 -2.05688e-18)
(-0.0356435 0.0352568 -1.21076e-18)
(-0.0396421 0.000614421 -1.11743e-18)
(0.0805708 -0.0491201 8.25279e-20)
(0.0752275 -0.0552126 -1.25304e-18)
(-0.00124925 -0.00108902 -7.60445e-19)
(-0.00111956 -0.00101333 -1.47374e-19)
(-0.00126039 -0.00093016 3.90705e-19)
(-0.00170406 -0.021268 4.48223e-18)
(-0.00151541 -0.0197945 -3.72821e-19)
(0.0149368 -0.0807198 1.12732e-18)
(0.0107548 -0.0782726 4.87412e-19)
(0.119576 0.0333604 -1.49186e-18)
(0.111721 0.0469262 -3.43517e-18)
(0.0123071 -0.0358597 -3.35696e-19)
(0.014451 -0.0376464 2.20147e-19)
(0.0133785 -0.0376807 4.74203e-19)
(0.0426617 0.0460136 -1.16032e-18)
(0.0456556 0.0535703 1.48197e-18)
(0.0415415 -0.0221941 1.36665e-17)
(0.0421392 -0.0240306 2.70478e-17)
(0.0437391 -0.0223484 5.64535e-18)
(-0.147114 -0.421325 -1.09307e-18)
(-0.164615 -0.429945 -7.01368e-18)
(-7.38181e-05 -0.000957297 -1.94073e-19)
(3.2673e-05 -0.0010044 -2.47909e-19)
(0.0489908 -0.0944581 6.51315e-19)
(0.0439952 -0.0930126 4.67155e-19)
(0.00925218 -0.0183028 -3.70219e-18)
(0.00876023 -0.0170682 -8.29634e-18)
(0.058659 -0.0547952 -4.13121e-19)
(0.0596265 -0.0564899 -6.23581e-20)
(9.63895e-05 -1.71267e-05 1.18858e-20)
(0.000107371 -2.25125e-05 -1.3758e-19)
(7.00261e-05 0.000167054 3.35649e-22)
(7.74271e-05 0.000159703 5.01629e-19)
(8.16884e-05 0.000174273 3.75542e-19)
(-0.00141226 -0.00117827 -3.38986e-19)
(-0.00123203 -0.00128159 -1.03321e-18)
(-0.00449502 0.0789054 -1.74606e-19)
(-0.0107952 0.0849128 1.43565e-19)
(-0.00101014 0.0873305 8.00503e-20)
(0.0499156 0.0851638 4.57027e-18)
(0.0337097 0.104492 9.18784e-18)
(0.0562822 0.088878 1.03263e-17)
(-0.0539677 -0.102914 1.48875e-18)
(-0.0103077 -0.0895231 5.76949e-18)
(-0.037641 -0.0915328 1.0626e-17)
(-0.0016867 0.00110882 -5.72737e-19)
(-0.00162776 0.00124612 9.98469e-19)
(-0.00156367 0.00109119 6.15492e-19)
(-0.000173801 0.00013641 7.48462e-20)
(-0.000173747 0.000147793 6.78268e-19)
(-0.000184977 0.0001429 -5.53925e-19)
(-0.00711285 0.0720485 -2.69797e-19)
(0.0012387 0.0735506 -7.81091e-19)
(-0.0544683 -0.0799248 3.39683e-19)
(-0.0514961 -0.0730828 6.08291e-19)
(-0.0582161 -0.0721863 -9.51165e-18)
(-0.00046286 2.94104e-06 3.67908e-20)
(-0.000546539 -2.94758e-06 -9.74558e-20)
(-0.000495784 1.66341e-06 6.12417e-19)
(0.0931436 -0.235318 1.01577e-18)
(0.128392 -0.20179 -3.69003e-19)
(-0.0103253 -0.119981 -1.3963e-18)
(-0.00376581 -0.122641 1.96842e-18)
(-0.004561 -0.113744 -8.93729e-19)
(4.68711e-05 0.000151722 2.63265e-19)
(5.98375e-05 0.000160762 -4.47527e-19)
(5.37469e-05 0.000144432 -6.54219e-19)
(0.000106278 -0.000128211 -7.54321e-20)
(0.000103181 -0.00013798 5.99176e-20)
(9.47247e-05 -0.000130481 -5.72079e-20)
(-0.000972303 -0.00236045 -5.09545e-19)
(-0.00128427 -0.0021463 -4.19563e-19)
(-0.000968224 -0.00200295 2.78766e-19)
(8.23077e-05 0.000558124 -9.74045e-20)
(5.08914e-05 0.000548409 -8.98021e-20)
(-0.0504401 0.287834 -4.45868e-17)
(-0.0554678 0.260974 -6.97433e-17)
(0.000788046 0.000871784 -7.39483e-19)
(0.000661621 0.00112469 3.13925e-20)
(0.000515394 0.000882135 -3.18369e-19)
(0.014076 -0.0290687 -9.88328e-19)
(0.0160082 -0.0310944 -4.46183e-20)
(0.0144768 -0.0311845 5.48191e-19)
(-0.00161024 -0.0012475 1.35245e-18)
(-0.00158394 -0.00104492 -2.87177e-19)
(0.000441299 1.88578e-05 -5.95932e-20)
(0.000479377 2.69888e-05 7.13197e-20)
(0.000422035 1.78604e-05 2.272e-20)
(0.0832176 -0.0715383 -5.7951e-18)
(0.0442887 -0.0781734 -7.38293e-18)
(0.0701157 -0.0731161 1.84302e-18)
(-0.000979999 -0.00109465 -3.48792e-19)
(-0.000869911 -0.00102033 -3.3979e-19)
(-0.00097642 -0.000933206 8.3485e-20)
(0.0566674 -0.0995552 -5.72657e-19)
(0.0586061 -0.0972721 -8.85074e-19)
(-0.000183435 4.40672e-05 4.27685e-19)
(-0.000178644 3.72606e-05 3.63492e-19)
(-0.000176427 4.45993e-05 -5.09538e-19)
(-0.102318 -0.292901 1.20604e-18)
(-0.101079 -0.195794 -1.91856e-18)
(0.0076177 -0.00182434 -1.65381e-19)
(0.00827793 -0.00201358 -5.61044e-20)
(-0.000172283 -0.000523687 2.825e-19)
(-0.000212661 -0.000508435 -1.15457e-18)
(4.29445e-05 0.000161157 -2.78067e-19)
(3.66786e-05 0.000146086 -1.13629e-19)
(-0.0558957 -0.00873646 -1.4048e-18)
(-0.0601979 -0.00450358 -1.65232e-18)
(-0.113573 0.150316 3.13193e-18)
(-0.127937 0.128023 -2.75358e-20)
(-0.0911762 0.0930828 1.39482e-18)
(-0.0962659 0.153648 1.10661e-18)
(-0.148452 0.211086 -3.60786e-18)
(-0.00014768 -0.000554367 9.45643e-19)
(-0.00013831 -0.000530852 1.00179e-18)
(-0.0511 -0.0866019 2.99507e-18)
(-0.000854396 -0.000481352 -1.28747e-18)
(-0.000813871 -0.000482931 -4.25475e-18)
(-0.000400016 0.000732162 -3.26778e-20)
(-0.000409521 0.000817653 -1.47114e-19)
(-0.000469411 0.00075277 -3.77713e-20)
(-0.0290678 -0.162783 2.31693e-18)
(-0.0146431 -0.16297 2.61282e-18)
(-0.0243866 -0.151125 2.25935e-18)
(0.051952 -0.101353 9.29091e-19)
(0.0519822 -0.0984082 -1.15272e-18)
(0.0479383 -0.104341 -2.83696e-18)
(-0.000390144 0.000655902 2.11539e-20)
(-0.000343018 0.000716567 -1.42655e-20)
(-0.000156691 -0.000704565 2.52363e-19)
(-0.000134107 -0.000777068 2.87879e-19)
(-0.00022057 -0.000729192 2.54016e-19)
(0.00668494 -0.00026754 -2.87999e-20)
(0.00733067 -0.000607975 -8.55414e-21)
(0.00737891 0.000264469 -3.11268e-20)
(0.00212511 0.00212593 -4.69445e-19)
(0.00187523 0.00236109 -2.80605e-19)
(-0.00909141 -0.00240128 1.80374e-18)
(-0.00853284 -0.00241678 2.30211e-18)
(-0.00882252 -0.00299069 -3.86992e-19)
(0.000508559 9.14257e-05 1.28777e-20)
(0.00049902 0.000109878 -4.28431e-20)
(0.00453852 0.000390813 1.73875e-19)
(0.00467284 3.41729e-05 6.27028e-20)
(-0.00281404 -0.00137487 9.15805e-19)
(-0.00296141 -0.00153055 -2.86906e-18)
(0.000108513 -0.000118295 8.79576e-21)
(0.000117637 -0.000126712 -1.08791e-19)
(0.000202959 -1.59165e-06 1.98231e-19)
(0.000239634 5.82242e-06 -1.65589e-19)
(0.000222474 -3.45342e-07 -4.03093e-19)
(-0.000213481 0.000121338 5.26447e-20)
(-0.000203998 0.000125541 2.04688e-18)
(-0.000205355 0.00011355 1.13555e-18)
(0.0952831 -0.0722045 1.84761e-17)
(0.0940721 -0.0768377 -7.4078e-19)
(0.0981344 -0.0757728 -8.54032e-18)
(-0.000308975 0.000296963 -2.61444e-19)
(-0.000175321 -0.00063522 1.39388e-19)
(-0.000102911 -0.000676868 -1.20207e-19)
(0.000746948 0.000172469 4.98348e-20)
(0.000737135 0.000191471 6.44935e-21)
(0.000727896 0.000168718 2.38723e-20)
(-0.0459477 -0.0746918 2.70074e-18)
(-0.0484085 -0.0681218 6.22731e-18)
(0.000265419 -0.000157298 -2.28534e-20)
(0.00026176 -0.000165975 7.21767e-20)
(0.000280359 -0.000167147 -2.72222e-20)
(0.000253509 -0.000147615 2.80879e-20)
(-0.000433439 -2.2269e-06 -1.89864e-19)
(-0.000348268 6.66022e-06 -3.95435e-20)
(-0.00133927 -0.00139975 1.30121e-18)
(-0.0013035 -0.0014903 -3.80839e-19)
(-0.00140572 -0.0014825 -9.11974e-19)
(-0.000624568 -0.000653852 3.90834e-19)
(-0.000562772 -0.000642882 -7.64149e-20)
(-0.000590556 2.13168e-05 1.74179e-19)
(-0.000562527 1.87627e-05 1.1372e-19)
(-0.000602075 2.89432e-05 -1.4135e-19)
(-0.000464957 2.2534e-05 5.8196e-21)
(-0.000412006 1.37826e-05 3.22102e-19)
(-0.00048889 3.00118e-05 -5.89006e-20)
(-0.00096048 -0.00329251 -1.01854e-19)
(-0.000985492 -0.00387466 -2.07497e-19)
(-0.000403968 -0.00346645 4.05265e-19)
(0.0101578 -0.0329276 1.23032e-19)
(0.0120521 -0.0336372 -5.9944e-19)
(-7.44386e-05 2.16291e-05 -3.46032e-19)
(-9.25034e-05 1.56522e-05 -2.65495e-19)
(0.000116801 7.03936e-05 -2.67665e-20)
(0.000138573 5.44654e-05 -1.68493e-19)
(-0.00853397 0.197934 -2.79578e-18)
(-0.00867609 0.199625 6.9151e-18)
(-0.00265747 0.190881 2.20498e-18)
(-0.00260355 -0.00408637 5.73716e-20)
(-0.00232798 -0.00400138 8.64254e-18)
(-0.00256425 -0.00384386 5.70824e-19)
(-0.000409962 -3.23601e-05 2.44155e-19)
(-0.000426123 -3.7465e-05 -2.3561e-19)
(-0.000405368 -2.70711e-05 -1.48906e-19)
(-0.00039712 -2.78123e-05 -4.49925e-21)
(-0.000411575 -3.93164e-05 -3.95412e-20)
(0.108316 0.0180542 3.6854e-18)
(0.10039 0.0288907 4.90048e-19)
(0.0945112 -0.000209935 2.27084e-19)
(-0.014292 0.054551 -8.69038e-20)
(-0.0220207 0.0473329 -1.85529e-19)
(-0.014249 0.0449756 -1.20296e-18)
(-0.000140802 0.000676193 2.84766e-21)
(-0.000155821 0.000719659 -2.97551e-19)
(-0.0142896 0.00798705 5.13784e-19)
(-0.0126235 0.00679391 -3.78362e-19)
(-0.012261 0.00884819 6.37072e-19)
(-0.0421725 -0.00245513 -1.27115e-19)
(-0.0365046 0.00469605 3.26434e-20)
(0.00232796 0.000235591 -1.42095e-20)
(0.00215491 -0.000103695 -8.10211e-20)
(-0.0397473 0.0160122 -3.77815e-19)
(-0.0474145 0.0189499 -8.30333e-19)
(-0.000221577 0.000116863 -8.22624e-19)
(-0.00022145 0.00012881 -1.42756e-18)
(-0.0706949 0.152909 3.39133e-19)
(-0.105081 0.220626 -3.97882e-19)
(-0.0455287 0.151582 -1.38121e-18)
(-0.0610672 -0.102098 2.40348e-18)
(-0.0438304 -0.0473704 1.27856e-18)
(-0.0407669 -0.0506363 1.21247e-18)
(-0.0461436 -0.0503232 -1.80664e-19)
(0.000900388 -0.0420972 -3.23682e-18)