/*--------------------------------*- C++ -*----------------------------------*\
| =========                 |                                                 |
| \\      /  F ield         | OpenFOAM: The Open Source CFD Toolbox           |
|  \\    /   O peration     | Version:  v2012                                 |
|   \\  /    A nd           | Website:  www.openfoam.com                      |
|    \\/     M anipulation  |                                                 |
\*---------------------------------------------------------------------------*/
FoamFile
{
    version     2.0;
    format      ascii;
    class       surfaceScalarField;
    location    "800";
    object      meshPhi;
}
// * * * * * * * * * * * * * * * * * * * * * * * * * * * * * * * * * * * * * //

dimensions      [0 3 -1 0 0 0 0];
oriented        oriented;


internalField   nonuniform List<scalar> 
14907
(
-0.000222271
-0.0004819
0.000709225
0.000117902
0.000592284
-0.000705776
-0.000862061
0.00096327
-9.52939e-05
3.50519e-05
2.53374e-05
-2.59289e-05
0.000234635
-0.00020868
-0.000634089
-0.000100279
0.00074185
0.000159615
0.000321676
-0.000480882
-0.000203833
-0.000151575
0.00035568
-5.219e-05
0.000912367
-0.000848085
-0.000531556
0.000671757
-0.00012557
-0.000148508
0.000225302
-7.67941e-05
0.000125581
-2.79216e-05
-0.00052838
0.00010963
0.00046147
4.11842e-05
-0.000293569
0.000296464
8.51053e-05
-0.000733668
0.000650281
0.000159824
0.000508951
-0.000656844
-0.000597851
0.00077013
-7.62842e-05
7.66164e-05
5.1433e-06
0.00066244
-0.000877856
0.000354785
-0.000273869
-8.08929e-05
-0.000682513
0.0007326
-2.02495e-05
0.000484272
-0.000490887
7.07585e-06
-0.000133006
8.07463e-06
0.000178793
-0.000194422
0.000806142
-0.000580048
-0.000493571
0.000614941
4.48286e-05
0.00058419
-0.000626189
-6.2746e-05
0.000619616
-0.000551898
2.34123e-05
0.000703961
-0.000724666
0.000153715
0.000702035
-0.000845207
-1.80119e-05
-0.00077946
0.000801261
-0.000946994
0.000258288
0.000693271
-0.000236322
0.000128343
0.000107978
-0.000604334
8.72718e-05
-0.00114153
0.000725563
0.000421831
0.000723425
-4.94695e-05
-0.000671469
-0.000776314
0.000613328
0.000119558
0.000540796
-0.000657332
0.000642887
-0.000546628
-9.35938e-05
-0.000181359
-0.000556694
-0.000774812
0.00018664
0.00058891
0.000164627
0.000190178
7.60206e-05
0.000654457
-0.000728678
-0.000287122
0.000447115
0.00111366
-0.000235228
-0.000874234
-0.000236829
0.000210927
0.000564958
-1.33712e-05
-0.000549894
-0.000225394
-0.00040543
0.000632935
0.000535369
-0.000589834
5.56254e-05
-0.000868782
0.000542148
0.000329214
0.000612774
3.93028e-05
-0.000649451
-5.22822e-05
0.00011411
-4.74129e-05
-0.000928257
0.000682318
-0.000930091
0.000430608
0.000500391
-0.000272364
-0.000454035
0.000731026
0.000580519
-0.000458294
0.000104881
-0.000730509
-0.000617396
0.000780953
0.000608144
-0.000830833
-0.000339761
-0.000795545
-0.000273828
-0.000654825
-0.000782934
4.52658e-05
0.000742002
0.000697952
-0.000853199
0.000162087
0.000195995
0.000529649
-0.000963843
0.000110125
0.000426131
0.000358215
-0.000782259
0.00101557
-0.00101841
8.87068e-06
0.00103958
-0.000344039
-0.000694392
3.46131e-05
0.00035905
-0.000393622
0.000284745
-0.000186609
-9.81225e-05
-0.000926554
0.000139578
0.000793956
0.000521555
-0.000788866
-0.000101661
0.000796123
0.00032192
-0.000457444
-7.78734e-05
0.00053561
0.000737913
-0.000925344
0.000188951
0.000184527
0.000648739
0.000243469
-8.81641e-06
1.25976e-05
0.000773247
-0.000779878
0.000106003
0.00044989
-0.00055549
-0.000455859
0.000152743
0.000303468
-0.000305881
-0.00056029
2.48547e-05
-0.000261651
0.00104653
-0.000877905
-0.000163625
-9.05731e-05
0.000766168
-0.000673243
0.000161528
0.000880607
-0.000305732
0.000302796
2.24107e-06
-0.00109649
0.00052743
0.000572925
0.000439504
-0.000128589
-0.000310757
0.000252757
-0.000759112
0.000508305
-0.000269982
-0.000819571
0.000990742
-0.000126144
-0.000858225
-0.000182509
0.00020739
-0.000625073
0.000650879
-0.00013226
0.000774804
-0.000789054
-0.00106168
0.000287664
0.000781189
-0.000292978
0.000871537
-0.000569833
0.000853271
-0.000781221
-6.5299e-05
-7.27934e-05
-0.000700764
-0.000127509
0.000744931
-0.00060782
2.68694e-05
-2.68694e-05
-0.000426891
4.05678e-05
0.000386572
1.58729e-05
0.000378964
-0.000394592
8.55105e-06
-0.000312642
-4.52812e-05
0.00077273
-0.000724276
-0.000259822
-0.000178274
0.000438465
0.0002461
0.000486223
-0.000729559
-0.000825395
0.000541036
5.28105e-06
-0.000656729
0.000689283
-0.00062108
3.88732e-05
-0.000198279
0.000202562
-0.000284327
-0.000573135
0.000866036
-8.23629e-05
0.000753233
-0.000668375
0.000162199
0.000122554
-0.000429478
0.000857952
-0.000886987
7.62292e-05
0.000820466
0.000698126
0.000220148
-0.000915956
0.00068007
-9.84467e-05
-0.000954352
-0.000116771
0.00022893
-0.000112157
0.000880631
-0.000625743
0.000262204
-0.000465756
0.000881397
-0.000101151
-0.000775595
0.000817524
-0.000834115
1.92485e-05
3.95601e-05
-0.000466153
0.000411563
0.000639086
0.000271444
-0.00042272
-0.000135806
-0.000396492
0.000534032
-0.000581871
0.000322511
0.00101271
-0.000244214
-0.000761958
0.000499843
-0.00039348
-0.000101285
-0.00068952
0.000794627
-0.000287581
0.000122628
0.000164955
0.000105846
-0.000454717
0.000349283
0.000738947
-0.000855514
0.000521439
-0.000431479
-8.94859e-05
-0.000186719
0.000239816
-5.30961e-05
0.00061632
0.000379032
0.00060436
-6.80773e-05
0.000212627
0.000227001
-0.000786667
0.000113186
0.000675833
0.000917809
-0.000217964
0.000860506
-0.000109516
-0.000748008
0.000242742
0.000207929
-0.000450471
0.000755569
0.000122216
-0.000870473
0.000565702
-0.000841677
0.000278229
-0.000541598
0.000263762
0.000236454
-0.000922276
0.000701841
8.91106e-05
0.000770571
4.50767e-05
0.000610258
-0.000653162
1.57431e-05
-0.000847489
0.000842398
-3.05696e-05
1.57936e-05
1.88815e-05
9.80905e-05
-0.000375917
0.00027803
-0.000258423
0.00022664
3.17858e-05
1.55134e-05
0.000400505
-0.000409283
-0.000479329
-4.61046e-06
2.36339e-05
-0.000760966
0.000738257
0.000822939
-0.000118427
2.53978e-05
0.000496546
-0.000253689
9.32918e-05
0.000160397
-5.72325e-05
0.000211556
-0.000154323
9.64937e-05
-0.000464858
0.000368878
0.000925034
-0.000621485
-0.000299748
-0.000796323
0.000822253
-0.000779355
0.000832756
-4.9364e-05
0.00074425
-0.000841532
-0.000212782
0.000417877
-0.000204885
-0.000204887
-4.88009e-05
-9.31137e-05
-0.000136406
8.83474e-06
-0.000267254
0.000960243
-0.000810045
-0.000144517
-2.60646e-05
0.0009347
-0.000895495
-0.00034389
0.000161406
-0.000315577
-6.83394e-05
0.000383939
0.000557625
-0.000487051
-7.02784e-05
2.07327e-05
-0.00044139
0.000421358
0.000152108
4.50319e-05
-0.000197137
-0.000160452
0.000935965
-0.000771447
-0.000322563
0.000357209
0.000642108
-0.000623472
-1.71703e-05
0.00074947
-0.000724929
-0.000119706
-0.000116616
0.00119056
-0.000811867
-0.000376932
-0.000688546
0.000554962
-0.000649621
0.000727406
0.000151345
-0.000268113
0.000334121
7.24572e-05
-0.000406307
0.000446537
-0.000959861
0.000518327
0.000223697
-7.50231e-05
-0.000148673
0.000803504
-0.000728065
-7.15172e-05
-1.11209e-05
-0.000229038
0.000240164
0.000310205
0.000552091
0.000422391
-0.000324073
-0.000138776
-0.000205072
0.000266381
-0.000479823
0.000214071
-0.00035601
0.000221714
0.000134347
0.000764995
-0.000773456
1.19436e-05
0.000857935
-0.000100819
-0.000753183
-0.000417874
-1.4603e-05
-0.00025904
-0.000427328
0.000689618
0.000573349
-0.0004609
-0.000112169
-0.000201468
0.000652308
0.00126151
-0.000375453
-0.000877136
-0.000313859
-1.70469e-06
0.000847898
-0.000785
-0.000124625
0.000925683
0.000166894
-0.000178011
-0.000416519
0.000538627
-0.00011291
-8.36368e-05
8.38531e-05
4.11654e-06
-0.000191259
0.000221947
-2.85489e-05
-0.000144445
-0.000211488
8.75873e-05
9.04405e-05
-0.000114576
0.000286739
-0.000499261
-0.000305936
3.50263e-05
0.000270968
-9.36296e-06
-0.000750556
0.000318824
1.5559e-05
0.000931666
-0.000191292
-0.000738773
-0.00071851
0.000799961
-7.18744e-05
-0.000120218
-0.000352768
0.00047352
0.000380194
-0.00100163
0.000636575
-0.000697129
0.000617003
-0.000106476
0.000817986
-0.000710338
0.000329499
-4.49769e-05
-0.000284463
0.000539143
0.000106344
-0.000177068
-0.000349892
0.000527528
7.71598e-06
0.000616642
-0.000621661
-5.14922e-05
-0.000259304
0.000311096
0.000214356
0.000695181
-0.000899711
-0.000276556
0.000457176
-0.000180301
-0.000128078
0.000653999
-0.00083731
0.000332876
-0.000329484
-3.35274e-06
-0.000832916
0.000818956
0.000558307
-0.000681811
0.000387102
0.000581312
-0.000526716
0.000573702
-0.000912496
0.000799799
0.000128272
-4.00758e-05
-0.000199957
0.000291519
-0.000931896
0.000309915
0.000626897
-6.8195e-05
-0.00052407
0.000595506
0.000709876
0.000218077
0.000724849
-0.000887197
0.00011235
0.000249349
0.000505677
1.48856e-05
-0.000891294
-0.000196381
-0.000744251
0.000155567
-0.000218425
0.000115743
0.000699405
-0.000741675
0.00104344
-0.000294369
-0.00074385
-3.89045e-06
-6.89442e-05
0.000309125
-0.000278588
1.54508e-05
6.55038e-06
-0.000925835
-0.000636436
0.000729154
-9.10962e-05
0.000299385
3.01551e-05
-0.000289457
0.000386376
9.18078e-05
0.00013189
9.59597e-05
0.000461944
0.000644219
-0.000470781
-0.00017301
0.000615919
-0.000529355
-0.000682616
0.000338376
0.000345743
-0.000253323
-0.000177275
0.000431129
-0.000192712
-0.000733827
-0.0006602
0.000909495
0.000228598
-0.000221413
0.000556365
-0.000811678
-0.000214979
-0.000682665
0.000438218
4.67658e-05
0.000389123
-0.000711382
0.000325467
0.000748605
2.05492e-05
-0.000213542
0.000376705
0.000196909
0.00059425
2.3884e-05
-0.000329758
0.00015763
-0.000435145
0.000370805
6.44978e-05
0.000352342
0.000454121
-0.000666428
0.000601841
0.000910407
-0.00079852
-9.59443e-05
-0.000708461
0.000474287
0.000235847
0.000841205
-7.91159e-05
-3.52167e-05
0.000678426
-0.000662051
0.000922866
-0.000257331
0.000588244
-9.10971e-05
-0.000196481
-0.000812249
4.26331e-05
4.37687e-05
-0.000879748
0.000844271
0.0002954
-0.000548076
-0.000116256
-0.00078885
-0.000165292
0.000850551
-0.000819245
-2.72891e-05
-0.000726452
9.19393e-05
0.000465635
-0.000444164
0.000696221
-0.000167909
-0.00052765
-9.54368e-05
0.000338339
-6.76706e-05
2.73297e-05
-0.000385606
1.14977e-05
0.000788553
0.000947724
-2.34003e-05
-0.000406602
0.000355506
-7.08004e-05
-0.00078105
0.000857972
-0.00076331
-1.31402e-05
-0.000762847
-0.000195434
0.000970984
0.000139529
0.000793943
0.000190263
0.000474038
-0.000661335
-0.000640656
1.9411e-05
0.000622485
0.000476806
-0.00013818
-0.000338372
0.000297797
-0.000311702
1.39481e-05
-0.000917303
0.00064487
-0.000432489
0.000274005
0.000158593
0.000845048
3.00872e-05
-0.000863857
-0.000608934
-9.72356e-05
-0.000611916
0.00055387
-0.000123553
-6.82465e-05
0.000340433
7.76246e-05
-0.000417755
0.000360977
-0.000118294
-0.000242631
-4.51646e-05
-0.00077696
0.000530006
0.000272649
-0.000259335
0.00065142
0.000805309
-0.000659665
0.000749057
-0.000733209
-1.41897e-05
0.000594462
1.31893e-05
-0.000157664
0.000146999
-0.000132308
-0.000357864
0.000490966
-0.000136593
0.000213353
0.000161103
8.7542e-05
-0.000199007
0.00070414
0.000409227
6.78085e-05
-1.61245e-06
-5.074e-05
5.61353e-05
-0.000787614
6.33327e-05
2.08364e-07
0.000780302
-0.000777733
9.9986e-06
-0.000649385
-0.000192681
-1.25805e-05
0.000205269
0.000870252
0.000437417
-0.000415611
-0.000270384
0.000304012
-4.01952e-06
-0.000903306
-5.30078e-05
-0.000650361
0.000447572
0.000203399
-0.000163134
0.000430038
-0.000550646
8.02827e-05
0.000414032
-0.000296982
-0.000116883
-0.000339749
0.000532537
1.51883e-05
-0.000701182
0.000747086
0.000310298
0.000792832
-7.78494e-05
-0.000709755
-1.06312e-06
7.97285e-05
9.76891e-05
-0.000363349
0.000265889
-0.00087515
0.000216401
0.000681108
0.00071894
-0.000685277
-3.25837e-05
0.000696246
0.000912302
-0.000541052
-0.000369873
-0.000737925
0.000515757
0.000204287
-0.000941981
0.000253921
0.000694638
0.000511867
-0.000688137
-0.000474421
-0.000106857
0.000460535
-0.000591875
0.000967964
-0.000222159
-0.000741831
2.67435e-05
-0.000837552
0.000815309
0.000208533
0.000205624
-0.000148349
0.000426948
-0.000966144
0.000409128
0.000562233
-0.00010551
-0.000544142
-0.000960109
0.000326606
0.000641229
-0.00086945
4.99935e-05
-0.000303552
-0.00064774
0.000416208
0.000497512
0.00036066
-0.000274203
-8.63965e-05
0.000636716
7.32865e-05
-0.000706674
-5.20195e-06
0.000159632
-0.000151687
-0.000301473
-0.000614651
2.79135e-05
-2.79135e-05
0.000139286
-0.000137361
-0.000342186
0.00079898
6.35279e-05
0.00081977
-7.44609e-05
-0.000727993
-0.000228681
4.1963e-05
0.000715539
-0.000559872
-0.000140114
-2.70375e-05
0.000416467
-0.000389131
-0.000260787
0.000358705
0.000106569
-0.000563763
-5.35791e-05
0.000510076
-0.000455755
-0.000154665
0.000614583
-1.79195e-05
-0.000595564
0.000132563
0.000200339
-0.000519728
1.71197e-05
0.000506961
0.000705913
-9.07376e-05
7.17828e-05
-7.17828e-05
8.31953e-05
0.000633943
-0.000714601
0.000164574
-0.000584745
0.000421267
-8.56095e-05
0.000587161
-0.000490505
0.000189243
0.000561322
-8.14696e-05
-0.000181998
-8.37283e-05
-2.48201e-06
0.00047626
0.000282162
-0.000332014
-0.000109114
0.000441194
-9.80406e-05
-0.000130991
-0.000628708
-0.000384654
-0.000987379
0.00018725
0.000817316
-0.000196897
0.000103784
0.000380237
0.000884243
6.19057e-05
0.000456929
-9.78205e-05
-0.000204333
-0.000400422
0.000793322
-9.61046e-05
9.36461e-05
0.000146249
-0.000866962
0.000737011
0.000923319
-0.000109211
-0.00080604
-9.02108e-05
0.000300379
-0.000782967
-1.66598e-05
-0.000223808
0.000278248
0.00069376
-0.000336569
8.79825e-05
0.000248644
-7.01592e-06
-0.000238202
0.00089457
-0.000958375
0.000291561
-0.000338083
4.65673e-05
-0.000897119
3.1791e-05
0.000870594
0.000352201
0.000444377
0.000252391
0.000696376
7.20559e-05
-0.000932373
0.00100506
-5.67734e-05
-0.0002377
-0.000733002
-0.000426062
0.000113591
0.000312559
0.000670489
0.000635883
-2.02883e-05
-0.000761292
2.67495e-05
0.000737769
-0.000219428
7.09213e-05
0.000751278
-0.000759589
0.000222239
-0.000757238
2.53277e-05
-0.000680958
0.000778127
-8.31176e-05
0.000779734
-0.000218829
0.000337396
-0.000118528
0.000727419
-8.8364e-05
-0.00062611
0.000651204
-0.000649429
-1.3406e-06
0.000813214
5.32134e-05
-0.000861237
-0.000806146
-0.000127723
-9.83564e-05
0.000191649
0.000796414
-0.000144227
-0.000648154
0.000986931
-0.000583899
-0.000400483
0.000235482
-8.57915e-05
-8.74181e-05
4.53587e-05
-0.000214039
0.000168681
0.000999203
-0.000162648
-0.000828262
0.000264962
0.000534365
0.000104892
0.00060408
-0.000705246
0.00071058
-0.000117234
-0.000219265
0.000412736
-0.000283618
-0.000295833
0.000595796
-0.00109615
0.000669362
0.000704433
-6.44931e-05
-3.08008e-05
-7.12572e-05
0.000693981
-0.000611335
-0.000871565
1.0527e-05
0.00020489
-4.31355e-05
-0.000161754
-0.000907863
1.10877e-05
-6.55335e-05
0.00020245
0.000551312
2.2494e-05
-0.00057299
-0.000393613
-6.63872e-07
-0.000326622
0.000482429
-0.000155221
-8.10033e-07
-8.10395e-05
-0.000650038
2.78683e-05
-0.000216651
-6.60443e-05
0.000542749
5.10941e-05
-0.000893429
0.000845214
0.000821659
-0.000790441
-0.000259198
0.000365358
-0.000559248
-0.000402084
-0.000761673
9.59045e-05
-0.000556318
3.30669e-05
0.000523605
0.00096221
-3.08005e-06
-0.000760858
-9.67809e-06
0.000566156
-0.000671675
-0.000626436
-1.9839e-06
0.000649579
0.000385716
-0.000539584
0.00015409
-0.000445392
0.000934226
0.000618664
0.000120188
0.000162395
6.29073e-05
5.00232e-05
-0.00055133
0.000524439
-0.000815013
1.02488e-05
0.000108356
-0.000526889
0.000427897
-3.34854e-06
-0.000755091
0.000279886
-0.000636733
0.000357713
-0.000623905
-0.00085039
-4.42306e-05
0.000242417
0.000871084
-0.000820848
-4.63773e-05
-0.000146505
-0.000231912
0.000378651
-0.000791473
0.000603099
2.68495e-05
-1.14396e-05
-1.24578e-05
-9.36331e-05
0.00040283
-0.000308999
0.000919487
-7.87242e-05
-0.000838521
0.000157264
0.000832793
-0.000351357
0.000115851
0.00026463
0.000202223
-0.000847916
0.000652173
0.00079933
-0.000291458
-0.000507203
-0.000332233
-0.000123301
0.000761295
-0.000130417
0.000516451
-0.000254941
0.000518976
-0.00058218
-9.42403e-05
9.20731e-05
6.29564e-06
-0.000795745
0.000877048
-7.82259e-05
0.00082775
-4.774e-05
-0.000774058
0.000292031
1.50036e-05
-5.18731e-05
0.000885389
-0.000823504
7.98564e-05
-0.000260602
0.000117965
0.000121852
0.000488995
-0.000563167
-0.000728632
0.000333678
-0.000865799
0.000458993
0.000409663
-0.000373534
-0.000488796
-0.000125944
0.000865582
-0.00023113
0.000244552
3.36004e-05
0.000474823
-0.000480603
6.25147e-06
-0.000424038
-1.91294e-06
-1.47709e-05
-0.000843616
-6.86266e-05
0.000126035
0.000707212
-4.27497e-05
-0.000848109
0.000610288
0.000119282
0.000179
-0.00024335
6.43577e-05
0.000570282
-0.000566083
-3.34461e-06
0.000615986
0.00092518
-0.000835162
-7.99956e-05
-0.000128584
0.000148796
2.34308e-05
0.000698473
-0.000936618
0.000239826
8.16429e-05
0.000624495
0.000637247
-1.62286e-05
6.08463e-05
0.000144043
-0.000199796
0.000101762
-0.000220029
0.000235386
-1.5328e-05
-0.000569608
0.000391714
-0.000657551
5.26597e-05
0.000695124
3.18255e-05
0.000603616
-0.000633459
0.000458849
-0.000538327
8.00389e-05
-0.000176734
-9.97523e-05
0.000276509
-0.000238588
3.37033e-05
9.03569e-05
0.000550567
-0.000640021
-3.62479e-06
0.000278883
-0.000261186
-9.85124e-06
-0.000747476
-3.63001e-05
-0.000426246
-0.000668611
3.97163e-06
0.000282389
-0.000207821
0.000150589
-6.93452e-05
0.000262192
0.000864361
-0.000823013
-4.03429e-06
0.000555001
-0.000549438
0.000295475
1.05113e-06
-6.28404e-05
0.000423284
-0.000359729
-0.000113796
-0.000673123
-0.000520606
0.000547695
-2.65845e-05
0.000611892
-0.000573853
-3.69186e-05
0.000152505
7.38932e-05
-0.000808035
0.000609561
0.000202734
0.000622591
-0.000669753
-0.000268507
0.000660611
-0.000120993
-0.000448171
0.000386363
-8.33488e-05
-0.000302908
5.00407e-05
1.93448e-05
-0.000600021
0.000641889
-1.50313e-05
0.00078447
-0.000765743
0.00111933
-0.000823968
-0.000379589
0.00034981
4.10486e-05
7.34146e-05
0.000724175
0.000830272
-0.000797219
-3.03813e-05
0.000603055
-0.000513824
0.000187725
0.000456032
-0.000422079
-3.37894e-05
-7.34671e-05
-0.000478167
0.000553196
0.0006563
0.000218122
-7.85671e-05
-0.000245024
0.000887605
-0.00082248
-6.19408e-05
-0.000148754
0.000281343
0.000595061
-0.000580684
1.00699e-05
4.50391e-05
-0.000715891
0.000674584
-0.000212009
-0.000278491
-0.000601778
-4.20257e-06
-8.22507e-05
-0.000396495
-0.000260768
0.000659105
0.000660188
7.73332e-05
-0.000239052
0.000161721
0.000644251
-3.62766e-05
-0.000606288
5.8892e-06
-0.00029995
0.000300682
-0.000358857
0.000320627
3.84725e-05
-0.00100089
0.000478541
0.000527229
9.85331e-07
8.36439e-05
-0.000859897
8.18527e-05
0.00078056
0.000841082
-6.82291e-05
-0.00076958
4.77234e-05
-4.77234e-05
0.000223484
-0.000638167
0.000417277
0.000910297
-0.000210449
-0.00015039
-4.93976e-05
-0.000725762
-5.81516e-05
-0.000856519
6.43574e-05
0.000854906
-0.000119615
-0.000729426
-0.000271475
0.000552251
0.000610929
-0.00054083
-6.83202e-05
0.00088342
-6.32509e-05
0.000697956
-4.4726e-05
-0.000649297
-0.000602893
0.000663428
-0.00068172
0.00013811
-0.000109746
0.000907408
-0.000795038
5.64786e-05
0.000556367
0.000112139
0.000724079
7.13496e-05
-0.000750295
0.000957713
-0.000832395
-0.000106849
0.00094125
-0.000782949
-0.000146151
-0.000321395
9.19598e-05
0.000229492
-0.000651985
0.000813403
0.000244419
-0.000393135
-6.66232e-05
-0.000802946
-0.000710175
0.000735442
-1.99277e-05
0.000171034
0.000477332
-0.00062012
4.01519e-05
-0.000615819
0.000578018
0.000563006
-0.000444511
0.000162084
0.000483543
-0.000837699
5.52801e-05
-0.000262169
-9.64556e-05
0.000153278
-1.11207e-05
0.000187258
-0.000473931
-0.000462273
0.000710702
-0.000632249
0.000643513
-0.000132051
0.000151228
-1.41908e-05
0.000746099
-0.000935763
0.000945959
-0.000610928
-0.000388532
0.000614665
-2.06853e-05
0.000767079
-0.000743693
-9.79641e-05
-0.000255483
2.2003e-05
0.000233482
-0.000526313
0.000464345
-0.000454982
-0.000223607
0.000682194
-0.000463217
-8.70414e-05
0.00115768
-0.000195297
-0.000953747
-0.000489423
0.000475293
1.45384e-05
-0.000530869
0.000519115
-5.78737e-05
-0.000530329
-7.99271e-06
-0.000547835
0.000305683
8.07659e-05
-0.000254167
7.74614e-05
-0.000715612
0.000117584
-0.000290006
0.000172443
0.000640108
0.000812404
-0.000751332
-5.68014e-05
-0.00018737
0.000203167
0.000135178
-0.000740632
-0.000183869
0.000538503
-0.000542844
0.000675131
-0.000128723
-0.000565989
0.00085504
-0.000796683
-5.47222e-05
-0.000503683
0.00021462
-1.47001e-05
-1.2031e-05
0.00014757
0.000742969
0.000650534
5.12911e-05
0.000346162
-0.000141883
-0.000204235
4.65941e-05
-0.000677403
-0.000609783
-3.86627e-05
-0.000607588
0.000641414
0.000197349
-4.3367e-05
0.000474805
7.28355e-05
-0.00068652
0.000639916
0.000927204
-0.000869164
-4.61275e-05
3.15891e-05
-0.000808015
0.000896281
7.61983e-05
-0.000234624
0.000111071
-1.00096e-05
0.000530095
-0.000518859
0.000228753
0.000117451
-7.05428e-06
0.000127058
-9.78289e-05
-0.000326461
0.000126536
0.000199941
-0.000237469
0.000214373
2.30992e-05
0.000119576
-0.000380103
-0.000702122
0.000162878
-0.000187673
0.000527073
-0.000445567
0.000169342
-0.000506355
3.7227e-05
0.000469651
5.37785e-06
0.000776734
-4.15279e-05
0.000860232
0.00048326
-0.000122696
-7.30661e-05
-0.000849738
0.00095211
-9.42825e-05
0.000569442
-1.74648e-05
-0.000242666
0.000395502
-0.000152715
-0.000421305
-0.000329157
0.000753149
0.000721058
-0.000837535
0.000127834
0.000478693
0.000646687
4.86801e-05
-0.000717201
0.000670907
0.000504891
0.000448205
-0.00101187
0.000485424
0.000531938
0.000295768
-0.000389213
0.000232767
-1.10027e-05
-0.000750181
3.08477e-05
-0.000739411
-0.000101992
0.000224621
0.000434173
-0.00013129
-0.000302698
0.000789303
0.000888257
-0.000834213
8.741e-05
4.06522e-05
0.000768136
9.12803e-05
0.000200309
-0.000549903
0.000541179
0.00022858
-0.000193509
4.99661e-05
0.000822825
-9.13937e-05
0.000821907
1.82598e-05
-0.000828947
0.000714305
-0.000665041
0.000616247
-5.58629e-05
-0.00055785
0.000501842
-0.0008019
7.3891e-05
0.000223934
-0.000670033
-1.25777e-05
0.000692717
4.09983e-05
-0.000415084
0.00038382
-7.81597e-05
-0.000399365
0.000478146
-0.000936313
9.62955e-05
-0.000648037
1.60273e-05
0.00063515
0.000493901
-0.000113802
-0.000379984
-0.000741755
-6.14813e-05
-0.000145755
0.000214672
-6.89161e-05
4.00615e-05
0.00018873
7.0891e-05
0.000745561
0.000822188
-0.000313111
0.000342946
-2.97064e-05
-0.000183797
-1.59621e-05
0.000199759
0.000518382
-2.05797e-07
-0.000517543
-0.000608864
-0.000124536
0.000396227
0.000315297
-0.000285705
-2.95804e-05
0.000598251
-0.00061858
2.06918e-05
0.000816351
-0.000809059
-1.52851e-05
-0.000228941
0.000629822
-0.000263913
0.000287851
0.000189441
-0.000640902
9.78131e-05
-0.000377661
0.000279888
-3.23635e-06
-8.82775e-05
-0.000165197
-2.7481e-05
-0.000340196
6.60527e-05
0.000826558
5.37196e-05
0.000715309
-0.000812614
0.000102487
-0.000299179
-0.000522083
0.000111991
0.000512954
-0.000319738
-3.29654e-05
0.000651484
-0.000616836
-0.000130753
0.00021328
-8.25212e-05
-0.000199114
-8.46191e-05
0.000283772
-0.000220143
-0.000101194
-0.000761693
-4.80715e-05
-0.000341711
-0.000195083
0.000537681
-1.40256e-05
-0.000491723
0.000415352
-0.000564654
-8.69666e-05
-2.84987e-06
-4.84869e-06
0.000409368
5.5973e-05
-0.00031983
0.000254722
-0.000228452
-1.84169e-05
-5.90469e-05
-0.000794086
0.000236902
-0.000577591
-0.000761639
0.00032554
-0.000445272
-0.00013906
0.000134176
2.10259e-05
0.000596154
3.16585e-05
-0.000620067
0.000143122
0.000451551
-0.000523394
-8.96472e-06
-0.000445355
0.000257191
6.79621e-06
-0.000834496
0.000847733
0.000541032
-0.0004942
-4.57074e-05
-0.000134231
0.000421191
-0.000279952
0.000244294
3.56714e-05
-0.000305951
0.000302634
1.0745e-05
7.55115e-05
0.000271528
-0.000346623
0.000141549
0.000292812
0.000218244
-0.000364539
0.000740257
-4.2074e-05
0.000183918
-1.65292e-05
-0.000167389
-0.000218062
-0.000863973
0.000441026
-0.000298051
-0.000651262
0.000766781
7.7126e-05
-0.000691708
0.000615489
0.000256618
8.04991e-05
-0.000337072
0.000664734
-4.84576e-05
-0.000318926
0.00026146
9.84425e-07
0.000291282
-0.000515094
2.61598e-05
-0.00079656
4.05119e-05
-0.000311792
0.000345059
-1.96169e-05
0.000806554
-0.000799628
-4.26824e-06
-0.000565632
0.000460719
0.000548937
6.32932e-05
-8.7439e-05
6.55785e-05
-0.000606118
-7.22148e-05
0.000750575
0.000363713
-0.000364363
-0.000864783
-7.06672e-06
0.000884054
0.000242816
-0.000141046
-0.000731486
0.000782537
2.24485e-05
0.000684361
-3.77284e-06
-2.46196e-05
0.000802767
0.000129689
-0.000386704
0.000257181
-4.10892e-06
-7.40502e-05
0.000752209
-0.00067641
0.000702309
6.13344e-05
-0.000760743
-0.000125562
-0.000643833
0.00011616
-0.000280657
0.000164506
3.07228e-05
-3.07228e-05
-5.70612e-05
-0.000222875
-0.000662769
-3.19378e-05
-0.000213412
-0.000102687
0.00031615
0.000144189
-9.38252e-05
0.000543677
-0.000655501
5.27373e-05
-0.000252977
0.000328869
9.14587e-05
-0.000423413
-0.000231336
0.000734553
-0.000108892
0.000226492
0.000397138
-0.000483051
8.65297e-05
-6.18619e-05
0.000704519
-0.000641062
-9.7582e-05
6.54982e-05
0.000398085
-0.000278239
0.000742344
-0.000719125
-2.04685e-05
-0.000151587
-5.32747e-06
1.73616e-06
0.000806592
-0.000793363
1.25397e-05
0.00063201
-0.000547977
-8.32156e-05
-4.08078e-06
4.08078e-06
-5.074e-05
0.000350145
0.000143845
-0.000641671
6.91274e-05
9.19191e-05
-1.98864e-05
-0.000597658
0.000140611
0.000457453
0.00083179
-1.26025e-05
-0.00022367
-0.0008094
1.4527e-05
0.00079997
9.87847e-05
-0.000249164
-0.000911545
0.00081025
-0.000533436
3.87829e-06
0.000393458
-0.000174694
-0.000218673
0.000798849
-9.19985e-05
-0.000702291
0.000229267
-5.02616e-05
9.5342e-05
-1.02157e-06
-0.000833736
0.000388567
0.000448252
-0.000274041
-0.000131544
0.000427555
-0.000815025
6.82094e-05
0.000715138
0.000207324
-5.98321e-05
-0.000460234
0.000459954
-0.000101451
-0.000358294
-3.79962e-05
0.000637373
-0.00059706
4.45491e-05
-0.000398855
0.000349725
6.29234e-05
9.91499e-05
-0.000244902
0.000240231
-0.000760331
-0.000919022
0.000957819
-2.57852e-05
0.000456432
-0.000534019
-0.000726724
0.000106092
0.000622786
0.000265561
-0.000225454
0.000832674
-0.000112182
0.000352074
0.00044774
0.00033138
-0.000465373
0.000652489
0.000468896
-1.27726e-05
2.8934e-05
-0.000220635
-0.000198476
0.000451052
-2.68495e-05
8.09058e-05
-0.000292856
0.000211986
-0.000430709
-7.79011e-05
0.00050919
0.000338734
0.000343523
0.000815022
-0.000813454
1.57084e-05
-0.000169507
6.33128e-06
0.000645628
0.000359898
0.000448232
5.97267e-05
0.000800346
0.000789571
-0.000709583
-6.91565e-05
2.74326e-05
-2.68985e-06
0.000754977
0.000606345
-0.000637662
-0.000571391
-2.57921e-05
-7.01792e-05
-0.000836091
0.000116335
-0.00032969
0.000144476
-0.000904094
0.000765085
-0.000176704
-0.000149736
6.1437e-05
-0.000522054
0.000105194
-0.00024002
0.000134839
0.000714754
-0.000445951
-0.000267971
-0.000731925
-9.78876e-05
-5.80125e-05
0.000194624
-0.000136611
0.000543977
6.84731e-05
8.58271e-06
-0.000324783
0.000461176
-0.000136145
-5.63359e-05
-0.000508562
6.56322e-06
0.000133861
-0.000655992
0.000777974
-0.000119523
0.000337764
-0.000283186
0.000767634
0.000181956
-0.000249152
6.72002e-05
-0.000615868
-0.000221687
0.000843528
-0.000198078
-5.74019e-05
0.000483145
-0.000654225
-0.0008013
0.000692079
0.000156542
-0.000169117
-0.000614851
-0.000794259
-3.66335e-05
2.10582e-05
-0.000147322
-0.000708568
0.000667844
0.000208442
-0.000396743
-0.000182552
-7.34152e-06
0.000515522
-0.000489622
-0.000465061
0.000630807
0.000734985
-3.07542e-05
-0.00102907
0.000753322
-0.000766531
0.000764874
-0.000311594
9.27932e-05
0.000630374
-2.49122e-05
-0.000500362
0.000435473
7.02132e-05
-0.000625865
-3.40228e-05
0.000521483
-0.000495901
-2.48502e-05
0.000790023
-0.000759935
-0.000703538
7.89956e-05
0.000635099
0.000247359
-6.53989e-05
0.000693241
0.000110239
-0.00080025
-0.000895967
0.000118919
0.000266046
-0.000673623
-5.09588e-05
-0.000781067
0.000922351
-0.000130321
-7.40716e-05
0.000171054
0.000336974
-0.000507475
-0.000170483
-6.85645e-05
0.000811339
3.09538e-05
-0.000839581
0.000668719
-0.000741021
0.000112577
0.000243124
-0.000355454
0.000832256
0.000154469
0.00077876
1.54067e-06
0.000601217
-0.000665199
6.70041e-05
-0.000659498
-9.5445e-05
-5.99356e-06
-0.00011739
0.00066308
0.000349526
-0.000458561
-0.000333326
0.000242886
9.04759e-05
8.13932e-05
-0.000811909
0.00074314
-3.99409e-05
0.000808373
-0.00076648
-0.000720809
3.26712e-06
-0.00101356
0.000187874
-0.000758272
-0.000512155
0.000439362
0.000106534
-0.000305842
-0.000139403
0.000564141
0.00101478
-0.000158819
-0.000850786
0.000220291
0.00056863
-0.000784594
-0.000840703
0.000914641
-5.67264e-05
-0.000519465
0.000586599
-4.82927e-05
0.000684751
-0.000717739
3.69019e-05
-0.000264239
0.000133493
2.44539e-06
-0.000625463
-0.000719017
-3.41889e-05
3.80581e-05
0.000241403
0.000152151
-0.000756024
0.000738175
-0.000547712
4.71619e-05
-2.87826e-05
0.000736047
0.000198409
-0.000307279
-0.000635677
8.16185e-05
8.00127e-05
-0.000108118
-8.08615e-05
9.2305e-05
-0.00026285
-0.000462417
0.000143423
-0.000395048
0.000251722
5.89387e-05
0.00042054
-0.000476942
-1.60459e-05
-5.61353e-05
-4.25626e-05
0.00067451
-0.000630544
0.000791245
-0.000793706
1.00432e-05
0.00024754
0.000471992
-0.000717218
0.000482419
0.000261539
-0.000742654
-7.62836e-05
0.000524629
4.64135e-05
4.12595e-05
-0.000694237
0.000656939
-0.000766848
0.000619579
0.000149544
-0.000315065
8.19993e-05
0.000233089
0.000370196
-0.000660883
0.000539758
-0.000104712
-0.000434643
0.00073496
-4.88196e-05
-0.000684108
-0.000250513
-8.97183e-05
-3.76106e-06
-0.000740777
0.000751787
-5.61143e-06
-0.000805568
0.000684159
1.19677e-08
-0.000548554
0.000810454
-0.000764463
-4.40601e-05
0.000780347
4.17894e-05
-0.000813605
-9.46499e-06
0.000179669
-0.00016333
-2.07563e-05
-0.00068419
0.000342268
0.000193259
0.000214857
-0.000408018
1.58774e-05
0.000525602
-0.00054055
-0.000727769
-6.88645e-05
0.000251364
-0.000577097
-3.38222e-07
0.000578355
-0.000939487
7.02676e-05
0.000572489
0.000445315
0.000441372
-5.99819e-05
-0.000381051
-0.000716614
4.47655e-05
-0.000842359
1.03777e-05
4.94549e-05
-0.000158588
0.000239524
-0.000370114
0.000225746
0.000168361
-6.41143e-05
-7.83803e-05
0.000750891
8.54465e-05
-0.00045256
-2.66462e-05
4.83763e-06
0.000827091