/*--------------------------------*- C++ -*----------------------------------*\
| =========                 |                                                 |
| \\      /  F ield         | OpenFOAM: The Open Source CFD Toolbox           |
|  \\    /   O peration     | Version:  v2012                                 |
|   \\  /    A nd           | Website:  www.openfoam.com                      |
|    \\/     M anipulation  |                                                 |
\*---------------------------------------------------------------------------*/
FoamFile
{
    version     2.0;
    format      ascii;
    class       volScalarField;
    location    "400";
    object      k;
}
// * * * * * * * * * * * * * * * * * * * * * * * * * * * * * * * * * * * * * //

dimensions      [0 2 -2 0 0 0 0];


internalField   nonuniform List<scalar> 
18758
(
0.000198616
0.00505451
0.000146443
0.000198185
0.000165959
0.000145868
0.000143599
0.000151673
0.000163414
0.000161668
0.00497015
0.00651348
0.0109068
0.00015101
0.000143388
0.00014194
0.00657927
0.00013119
0.000143256
0.000156399
0.00493243
0.000268284
0.000147555
0.00014419
0.00027689
0.000293602
0.000252684
0.00023576
0.000196736
0.00672646
0.026772
0.000404227
0.000151383
0.000318316
0.000168388
0.00697764
0.0106291
0.000166591
0.0133897
0.000136555
0.005107
0.000164471
0.00687259
0.00014835
0.000145166
0.0299052
0.000162053
0.000196306
0.0236036
0.0001917
0.00582817
0.00412473
0.000189857
0.000157034
0.000223231
0.0058789
0.000140022
0.000155848
0.000192325
0.000139766
0.000147328
0.0001482
0.00128703
0.00247261
0.000147691
0.0015504
0.000147242
0.000133996
0.000224545
0.00013139
0.0112789
0.000325192
0.000143284
0.000160932
0.000208628
0.0278226
0.000547312
0.00463443
0.000163538
0.00698615
0.000200774
0.01292
0.00519113
0.000181243
0.000151504
0.000214187
0.000155528
0.000162142
0.00119745
0.000213523
0.0355182
0.000154299
0.000189571
0.0223622
0.000143165
0.0001393
0.000133331
0.000181698
0.00557957
0.000142769
0.0313707
0.000166746
0.000133943
0.000139265
0.00111598
0.00447981
0.000197306
0.0317952
0.000483517
0.000343072
0.000142108
0.00204003
0.000172693
0.000145399
0.000166878
0.0410861
0.000180537
0.000138612
0.0443791
0.000153455
0.000144689
0.000576704
0.000151645
0.000138419
0.0324351
0.000157275
0.000145541
0.000138433
0.000223922
0.0308015
0.0001935
0.000154677
0.000158024
0.00474315
0.00013694
0.000145942
0.00122984
0.000149951
0.000263294
0.000199819
0.000176648
0.00200499
0.000174481
0.000505618
0.0325802
0.000178653
0.00184792
0.000216217
0.00462267
0.0451847
0.0315057
0.0296692
0.00014651
0.00016944
0.00532995
0.000275528
0.00018932
0.000225588
0.00018602
0.00563152
0.0355286
0.000140106
0.0156869
0.00141349
0.0222854
0.00014147
0.000139956
0.0378975
0.0311873
0.00560842
0.0245767
0.000147009
0.000201156
0.00399319
0.00053092
0.000143444
0.00014308
0.000266531
0.00030455
0.000149072
0.000132864
0.000157232
0.000221885
0.000150626
0.0385683
0.000143749
0.00675792
0.000175654
0.0224305
0.0113735
0.0287763
0.00014368
0.000194712
0.00038058
0.000131878
0.000150375
0.000232198
0.000146334
0.0227362
0.000143866
0.000152179
0.000233931
0.00026965
0.000141874
0.000142151
0.0182984
0.000143179
0.000171051
0.0310168
0.0300215
0.000146967
0.000190349
0.000155694
0.000155254
0.000154312
0.000133595
0.000144739
0.00018974
0.000140429
0.00550589
0.000363328
0.000142898
0.00017363
0.000236001
0.000284762
0.00543578
0.000212437
0.000212485
0.0354979
0.000142895
0.000296728
0.000178516
0.00048247
0.000148146
0.000140873
0.000143653
0.000214372
0.0262106
0.000835749
0.00014908
0.00014227
0.0002077
0.000238164
0.000145623
0.0451798
0.000317377
0.000140935
0.000138516
0.000145935
0.000142841
0.0230845
0.00014632
0.00239532
0.000144504
0.00015311
0.002261
0.000140691
0.000334995
0.000143009
0.00873828
0.000173528
0.000138795
0.000141012
0.000192264
0.0206793
0.0213569
0.000138948
0.000261348
0.000146621
0.000145882
0.0410145
0.000434717
0.000145711
0.000142055
0.000170281
0.000153755
0.000156617
0.000138536
0.000156638
0.000150999
0.000138494
0.000155141
0.000142469
0.00177216
0.000143479
0.000141854
0.000130546
0.000231122
0.000139206
0.000139202
0.000146612
0.000149348
0.000139755
0.000142772
0.000146107
0.00015382
0.00541645
0.00015935
0.000146757
0.0327854
0.000153768
0.000141734
0.000141717
0.0138476
0.0040441
0.000132821
0.000200284
0.00379995
0.000149396
0.00473034
0.000142501
0.0201405
0.000271427
0.000205241
0.000195336
0.000328549
0.000133659
0.0098012
0.000248678
0.000147245
0.000202186
0.000182998
0.0453363
0.000140938
0.000133715
0.0302585
0.00419119
0.000140077
0.0320773
0.00019715
0.000181182
0.00693035
0.00014086
0.000141511
0.000142774
0.000145057
0.000149764
0.000158569
0.000151713
0.000143762
0.00014949
0.000148985
0.000578689
0.0137187
0.000148969
0.0115346
0.00429834
0.00013987
0.000164486
0.00468823
0.000275302
0.00202787
0.00161458
0.000143733
0.0304701
0.0125625
0.00018151
0.000148955
0.00017936
0.000155708
0.000147209
0.000129754
0.000411263
0.00231511
0.000225307
0.000439507
0.00014094
0.000156246
0.000158182
0.000181959
0.0241334
0.0360909
0.000500085
0.00908058
0.00515863
0.00782467
0.00015352
0.000864241
0.000219137
0.00491253
0.00260653
0.000142653
0.000144097
0.000268795
0.00218596
0.000425344
0.0361167
0.0322419
0.000149186
0.00606574
0.000344765
0.000142019
0.000150802
0.000154043
0.000156883
0.000145128
0.000156444
0.000144322
0.00015974
0.000145556
0.000147168
0.000162665
0.015432
0.000159502
0.0100008
0.0120395
0.0333943
0.0174716
0.00021781
0.000150818
0.000145463
0.00670423
0.000150798
0.000149259
0.000795591
0.000180923
0.000281803
0.00014079
0.000580529
0.000144668
0.000153938
0.000132434
0.0221581
0.0194651
0.00201071
0.000145559
0.00892194
0.00018868
0.00014431
0.000156712
0.00014805
0.000479689
0.000147213
0.000142242
0.0291615
0.000159818
0.00014933
0.000142953
0.000151645
0.000154451
0.00217055
0.000313351
0.000156268
0.00104708
0.000132362
0.000161766
0.000210685
0.000143801
0.0258427
0.000155862
0.000154802
0.000146002
0.0259072
0.000160802
0.000144263
0.0292569
0.0043791
0.000130677
0.000156245
0.000158565
0.000141896
0.000142772
0.000151679
0.0260423
0.0382763
0.000147402
0.000165849
0.000517878
0.0002651
0.00711391
0.000327818
0.00740234
0.000137917
0.000213673
0.000201076
0.000163589
0.000151348
0.00549088
0.00028012
0.000174963
0.000139859
0.000143631
0.000139298
0.000143783
0.000139256
0.000143904
0.0118435
0.000147599
0.000131905
0.000187858
0.000153733
0.000146155
0.000136817
0.000157595
0.000269993
0.00432854
0.000143456
0.00601375
0.000150507
0.000159661
0.000220694
0.0368351
0.0141413
0.000143095
0.000143809
0.037661
0.00697339
0.0004762
0.000140314
0.00013678
0.0023001
0.000130536
0.000148179
0.0328691
0.000154418
0.000201438
0.000424981
0.000159956
0.000165768
0.000138615
0.000142825
0.000153201
0.000150873
0.000142578
0.000147305
0.00157774
0.000132473
0.000279272
0.000485844
0.000130687
0.000132491
0.00014854
0.000156334
0.000166227
0.000312822
0.000142788
0.0140224
0.00016009
0.00016372
0.000142471
0.000145726
0.000147015
0.00014759
0.000147484
0.0325624
0.0401631
0.000138413
0.00014234
0.00014916
0.0386464
0.000132582
0.000133846
0.000144147
0.000131995
0.000141435
0.000142157
0.000152443
0.000141895
0.000194495
0.0001427
0.000138153
0.000300087
0.0364447
0.000170188
0.000145609
0.000143165
0.000146793
0.000142704
0.000151392
0.000242018
0.00659039
0.000149212
0.000662003
0.00014306
0.00016546
0.000146375
0.000144779
0.000179049
0.00013141
0.000150708
0.00106996
0.000146
0.000150524
0.000224164
0.000142828
0.000143466
0.0227225
0.000138476
0.0138349
0.00189778
0.000142709
0.000146233
0.000178787
0.00015276
0.000166504
0.000143181
0.0122238
0.000576033
0.00720081
0.000138815
0.0330302
0.00013168
0.000147654
0.000142626
0.000184433
0.0192888
0.0011264
0.000147445
0.000150394
0.000153305
0.000599553
0.00037051
0.000141294
0.000212054
0.000153987
0.0275186
0.000157749
0.000194549
0.000140128
0.000180768
0.000181125
0.000142426
0.000140205
0.000132624
0.000139398
0.000156319
0.000286728
0.00223466
0.00122133
0.000192485
0.000159712
0.000142738
0.000138078
0.000286287
0.000273712
0.000137275
0.000173924
0.0301302
0.0325394
0.000149309
0.000153326
0.000184482
0.00625449
0.000131586
0.00431742
0.000144302
0.000157791
0.000161285
0.00014514
0.000147504
0.000150921
0.000138796
0.000153987
0.000298457
0.000178849
0.000679967
0.000154748
0.000141668
0.043639
0.000134177
0.0420967
0.00115733
0.000144484
0.000978103
0.000156467
0.000146253
0.00106379
0.00437828
0.0040498
0.0220008
0.000152366
0.000369582
0.00013253
0.000542429
0.0334993
0.000177735
0.000145464
0.00506346
0.000153612
0.000203143
0.000429482
0.0146645
0.000146083
0.00311527
0.000144257
0.000175279
0.000199662
0.000140731
0.000160976
0.000511185
0.0153541
0.00016042
0.000152896
0.000131974
0.000148929
0.000159556
0.000174789
0.000216917
0.000142194
0.0439049
0.00015887
0.000145861
0.00015676
0.000132162
0.00046689
0.000142388
0.000139464
0.0417051
0.000138257
0.000157318
0.00243204
0.00018925
0.000190309
0.000143937
0.000145617
0.000179988
0.000145436
0.00565166
0.00015346
0.000154939
0.000150079
0.000145889
0.00013176
0.0357626
0.000132168
0.040971
0.000243703
0.000149272
0.0212851
0.000142703
0.000177066
0.000159849
0.00157781
0.000153194
0.000269189
0.00697801
0.00015088
0.00246125
0.000135774
0.000401893
0.000145561
0.000148155
0.000630541
0.00258348
0.000142245
0.000147143
0.00015167
0.000138315
0.000143869
0.00541151
0.0310024
0.000142519
0.000138165
0.000135877
0.00152936
0.000673167
0.000211315
0.000138746
0.00025136
0.000148128
0.000145748
0.000159992
0.00597405
0.000141299
0.000174842
0.000318853
0.00016024
0.00184278
0.000144331
0.000157766
0.000141302
0.000139413
0.000156338
0.000146057
0.000182352
0.000143678
0.00336189
0.000146774
0.000153721
0.000194676
0.013206
0.000174305
0.000146912
0.000145896
0.00575035
0.000311916
0.000197769
0.000139852
0.000142829
0.000160728
0.0155828
0.00271053
0.000141988
0.000142198
0.000149707
0.000146873
0.000152341
0.000142736
0.000143535
0.00703581
0.000142362
0.000143554
0.00608502
0.000138753
0.000335645
0.00021179
0.000578984
0.0449921
0.00198323
0.0312686
0.000142755
0.000142952
0.000154152
0.000142132
0.000141383
0.000138872
0.000140363
0.00014873
0.00360443
0.000219523
0.000329292
0.000155961
0.000142368
0.00016038
0.000162546
0.000185291
0.000148796
0.000155533
0.000139222
0.02777
0.000329186
0.0010231
0.000147977
0.000200492
0.000218823
0.00183342
0.0155051
0.00231972
0.00015163
0.000178847
0.000139063
0.000301364
0.000146936
0.00013318
0.000194571
0.00494254
0.00014242
0.00196412
0.000282734
0.000142559
0.00014249
0.000142643
0.000145963
0.000143546
0.000155282
0.000160304
0.000143643
0.000147061
0.00115665
0.0288275
0.000143161
0.00585308
0.000259017
0.000149967
0.000148389
0.000142677
0.000143386
0.000153292
0.00014981
0.000143411
0.000147608
0.000154446
0.000146785
0.000564592
0.000156794
0.00014249
0.000146251
0.0110293
0.000146251
0.000133167
0.00409105
0.00014145
0.000164498
0.000156352
0.000143591
0.000139737
0.000138279
0.000157217
0.000171061
0.000143365
0.00202718
0.00018719
0.000212176
0.00203085
0.000149449
0.00196512
0.000132533
0.000330199
0.000149399
0.000144879
0.000226689
0.0117753
0.000147175
0.000523347
0.000320335
0.000140842
0.000160382
0.000133251
0.000149937
0.000156868
0.00015001
0.000143167
0.00113648
0.000141159
0.000141943
0.00395261
0.000143249
0.00014139
0.000139768
0.000446759
0.000146663
0.000146951
0.000159849
0.000401106
0.00243067
0.00230729
0.00205841
0.000143056
0.000132039
0.000143665
0.0101163
0.000147854
0.000141913
0.000152184
0.000138653
0.000378947
0.000147149
0.000146003
0.000304915
0.00014243
0.000188693
0.0299282
0.00013201
0.000143561
0.000576278
0.000153588
0.0341944
0.00962987
0.000138026
0.000144529
0.0171269
0.000138887
0.000152271
0.000424677
0.000138042
0.000920484
0.000142561
0.000145584
0.000143418
0.000161773
0.000150435
0.000420666
0.000155267
0.000140989
0.000280096
0.00706556
0.000171599
0.000174517
0.000935701
0.0165898
0.00029675
0.000131568
0.019081
0.000147237
0.0339174
0.00126897
0.000142286
0.000171368
0.000147317
0.0058652
0.000140136
0.00247453
0.000143288
0.00030991
0.000218391
0.000139716
0.000132093
0.000142768
0.000486852
0.000406242
0.000144462
0.00948135
0.000146638
0.000141316
0.000693525
0.000143251
0.000266869
0.000140507
0.000152543
0.000140783
0.00014059
0.000141063
0.000140221
0.000206276
0.000177084
0.000167264
0.000162757
0.000147606
0.000142879
0.00608593
0.000142727
0.000419194
0.000145691
0.00642323
0.000156396
0.0058671
0.000140111
0.000141518
0.000141174
0.0148362
0.000152408
0.000886352
0.00019626
0.000143703
0.000156304
0.000142685
0.00013835
0.00015455
0.000141857
0.00646945
0.000144634
0.000152082
0.000144053
0.000151198
0.0014054
0.00883736
0.000145512
0.000139792
0.0001481
0.000147296
0.000142135
0.000161823
0.000149091
0.000142683
0.000138063
0.000140004
0.000237453
0.000200569
0.000145215
0.000138342
0.0379706
0.000153491
0.0172121
0.000338383
0.000148368
0.0208234
0.000153814
0.000140945
0.000145455
0.00015277
0.000185399
0.000138987
0.000163697
0.0020045
0.000217537
0.0337576
0.0181601
0.0329276
0.000168506
0.00014611
0.000144614
0.00352491
0.000138498
0.000145275
0.000160669
0.00157896
0.000143111
0.000139888
0.0313419
0.000152926
0.000151398
0.000160134
0.000152634
0.000219047
0.000144621
0.000153496
0.000144233
0.000170406
0.000154886
0.000147676
0.000147117
0.00070738
0.000147661
0.000142918
0.00120319
0.000132169
0.000142341
0.000146423
0.000149703
0.000150536
0.00147033
0.000215103
0.00406646
0.00672763
0.0028814
0.00456143
0.000149538
0.00503596
0.000908426
0.000145369
0.000149115
0.000146257
0.000144668
0.00014994
0.000152822
0.000217139
0.000509082
0.000145442
0.000135486
0.000184463
0.000154349
0.0047982
0.000142184
0.000149404
0.000142531
0.00147505
0.000291571
0.000160174
0.00164842
0.000142661
0.000142612
0.000196726
0.000171647
0.000142211
0.00037724
0.000147526
0.000169791
0.00635761
0.000212539
0.000169829
0.000148181
0.000148119
0.000148612
0.000139174
0.000906727
0.000203239
0.0181247
0.000242764
0.0451625
0.000147363
0.0146233
0.0410214
0.0182398
0.000211603
0.0130623
0.000162096
0.00655951
0.000214844
0.000173436
0.000131112
0.000142825
0.000145651
0.000181469
0.00013982
0.000146458
0.000572004
0.0324892
0.0208011
0.00585789
0.00019734
0.00282941
0.000173493
0.000160388
0.000142958
0.0348089
0.000301699
0.000148297
0.00016034
0.0219657
0.0296314
0.0308344
0.000164469
0.000185519
0.000132081
0.033684
0.00014764
0.00108497
0.000299156
0.000168176
0.000219865
0.000216571
0.000144429
0.000143395
0.00251924
0.00025467
0.00023762
0.000147354
0.0001479
0.000155197
0.00257363
0.000165792
0.00540494
0.000148242
0.0097818
0.00596716
0.000157445
0.00342045
0.000208975
0.0328054
0.000132089
0.000177777
0.041635
0.000158471
0.000142023
0.000398436
0.00232268
0.000142605
0.000142672
0.002547
0.000157241
0.000156631
0.000350519
0.000253797
0.000149241
0.000160034
0.010156
0.000160911
0.000152836
0.000152358
0.00606541
0.000157436
0.000140824
0.000141993
0.000222754
0.000139506
0.0438266
0.000137074
0.000138823
0.00727423
0.000148239
0.000142768
0.000749307
0.000131731
0.000152386
0.000138031
0.000142923
0.000144889
0.000199682
0.000144652
0.00456929
0.000223673
0.00203058
0.0243036
0.000153646
0.000138001
0.000139507
0.0411735
0.000156081
0.0001462
0.00459857
0.000162656
0.0193243
0.000140903
0.00013688
0.000138002
0.000141598
0.00014675
0.000135427
0.000152458
0.000155589
0.000143279
0.00564081
0.00019721
0.00644979
0.000156301
0.000138146
0.000170097
0.000859711
0.0359608
0.00396227
0.00116547
0.000679173
0.000366455
0.038943
0.000154151
0.000182059
0.000174654
0.0314747
0.000141707
0.0148479
0.00490131
0.000246624
0.00014286
0.00234001
0.000142085
0.000142645
0.000152949
0.000161609
0.00151848
0.000403103
0.000145932
0.000131654
0.000139662
0.000134831
0.000180954
0.000143531
0.0383326
0.000189066
0.000183513
0.00014774
0.00014261
0.000135128
0.0342505
0.000245786
0.000150282
0.000150162
0.00040586
0.000134718
0.000143635
0.000136003
0.000146406
0.000144739
0.000145006
0.000138134
0.000252287
0.0001519
0.0157185
0.000165551
0.000146863
0.000255855
0.00015037
0.000304588
0.000146951
0.000179408
0.000540782
0.00270466
0.000178622
0.000215073
0.0330422
0.00015619
0.000168496
0.000153545
0.000142511
0.000138861
0.000140733
0.000227905
0.000167093
0.000153501
0.000227487
0.000138577
0.000144941
0.000166341
0.000370171
0.000131562
0.000173447
0.000278144
0.000212494
0.000260508
0.000147609
0.000146742
0.0310381
0.000177621
0.000140082
0.000142614
0.0002165
0.000137793
0.000138711
0.045102
0.000185332
0.000156145
0.000152513
0.000151009
0.0269467
0.000153265
0.0330546
0.00172283
0.000142877
0.000142612
0.014626
0.000163169
0.000206275
0.00015007
0.000256971
0.000170008
0.000139877
0.000155812
0.000266005
0.000169949
0.0327677
0.0064114
0.000165931
0.000593603
0.0153466
0.000140716
0.0024151
0.00266784
0.000162579
0.00938344
0.000146933
0.000242794
0.000199674
0.000216182
0.000235385
0.00021015
0.000164222
0.00753835
0.000142227
0.000133248
0.0244749
0.00015387
0.000142497
0.000142273
0.000147221
0.000135806
0.00014939
0.000141855
0.000142667
0.00833235
0.000575381
0.000143041
0.000148611
0.0135224
0.00200478
0.00013193
0.000266044
0.00261516
0.000175664
0.00014551
0.000141012
0.0337611
0.00014752
0.000181984
0.00020304
0.000138849
0.000194457
0.005712
0.00014333
0.00261115
0.000847433
0.042521
0.000149135
0.000142982
0.000143345
0.000143788
0.000142361
0.0051621
0.000280654
0.000139562
0.000271247
0.000281373
0.000148343
0.00014612
0.000142289
0.0050646
0.0323536
0.000197781
0.000188876
0.000151883
0.00309943
0.00613069
0.00013867
0.000143171
0.000156624
0.000166286
0.00729896
0.00534012
0.000140214
0.00199653
0.00641861
0.000155001
0.000140135
0.000146184
0.000155031
0.00014252
0.00014951
0.000138651
0.000203558
0.00244365
0.000144955
0.000146877
0.000163269
0.000138909
0.000143274
0.000149847
0.0103115
0.000138167
0.000159669
0.0372
0.000254034
0.000234606
0.000198104
0.000154074
0.000156112
0.000149601
0.000137669
0.000141451
0.00014938
0.000263906
0.00017272
0.000150014
0.000200913
0.000138813
0.000420987
0.00480801
0.000143867
0.0421205
0.000141074
0.000150944
0.000238551
0.0450764
0.000156253
0.000152735
0.000153014
0.000197699
0.000132725
0.00035487
0.000433678
0.000138405
0.000197521
0.00347904
0.000145133
0.000150525
0.0102687
0.0001931
0.000147022
0.00277365
0.000154163
0.000142602
0.00179112
0.000261947
0.000253203
0.000140526
0.000979807
0.000173157
0.000135139
0.000178581
0.00015998
0.000149149
0.000219278
0.00752273
0.00327142
0.000196286
0.000197154
0.000138255
0.0003189
0.00600476
0.000258203
0.000372715
0.000145194
0.0145619
0.000145245
0.000142434
0.000175998
0.000149573
0.00174277
0.0093289
0.000146899
0.000580919
0.0163795
0.0286717
0.000158861
0.000191238
0.000131562
0.000153556
0.000152351
0.000131363
5.54071e-05
0.00967313
0.00432984
0.000268457
0.000642996
0.00313098
0.0448532
0.000144664
0.000157354
0.00204353
0.000186598
0.000145309
0.000142413
0.0151448
0.000204028
0.000157014
0.000142933
0.000146345
0.00021139
0.000142702
0.000218907
0.00745281
0.000135895
0.0274562
0.000140229
0.0378158
0.000287011
0.000430503
0.00015561
0.00510515
0.000149193
0.000143549
0.000150054
0.0319523
0.000166434
0.000381493
0.000147465
0.000142717
0.000241045
0.000322399
0.000146841
0.000217873
0.000353313
0.000481796
0.000577157
0.00014082
0.00014545
0.00193062
0.000131481
0.000141517
0.00015399
0.000144039
0.000147123
0.00014053
0.000142232
0.000153715
0.000142148
0.000165883
0.000179494
0.000145273
0.000950336
0.0312026
0.000156381
0.000135615
0.000143223
0.000199262
0.00014371
0.00014287
0.000144916
0.000208813
0.000145217
0.000156723
0.000152839
0.000237674
0.00291845
0.000141744
0.000213743
0.000202706
0.00015715
0.000227956
0.000264846
0.000141605
0.00014288
0.000515869
0.000391398
0.000160326
0.0166211
0.000284783
0.000143198
0.000640554
0.000149693
0.000198359
0.0201478
0.0134486
0.0244161
0.000153518
0.000141407
0.000887862
0.000158638
0.00109905
0.000181946
0.00586778
0.03829
0.000141474
0.000172184
0.000142323
0.000230698
0.000208937
0.0248719
0.000142151
0.000145071
0.000226386
0.000147158
0.00735807
0.000140832
0.00335935
0.00572052
0.000174904
0.000343675
0.0316901
0.000141187
0.000141521
0.000144282
0.000264175
0.0066556
0.000148411
0.000155948
0.000148806
0.0001357
0.000179919
0.000141463
0.00013686
0.00665052
0.000147908
0.000136596
0.00015621
0.0450298
0.0186282
0.0430466
0.000145979
0.000239865
0.000177449
0.000155706
0.000213462
0.0177922
0.03193
0.000144575
0.000191264
0.000131966
0.000166917
0.000194049
0.000183211
0.00629545
0.000147506
0.000215215
0.000138226
0.00598102
0.00621281
0.000136912
0.00015076
0.000151664
0.000152059
0.0332013
0.000144745
0.000144926
0.000148948
0.000147216
0.000141248
0.000150787
0.000143302
0.000147555
0.00014353
0.000141742
0.0029533
0.00348075
0.000350114
0.000136055
0.000132605
0.000133903
0.000136408
0.000133192
0.000177697
0.000133029
0.00013832
0.000142984
0.00014011
0.000160571
0.000142684
0.0381056
0.0329573
0.000171426
0.00210871
0.000146206
0.0110463
0.000211804
0.000252472
0.000139675
0.00251199
0.000150712
0.000144416
0.0001453
0.000251371
0.00021317
0.000140678
0.000183225
0.000166497
0.000142927
0.000201452
0.00538782
0.000169615
0.000141399
0.000159553
0.000255545
0.000154174
0.0135471
0.000140773
0.000153894
0.000144753
0.000158655
0.000174835
0.00766575
0.000172649
0.000136967
0.00059379
0.00020676
0.000218836
0.000141321
0.000156869
0.0169681
0.000140712
0.000147892
0.00016068
0.000483819
0.000135392
0.000144199
0.000138336
0.000170292
0.000146841
0.000641808
0.000145347
0.000155794
0.000159117
0.00709108
0.000139062
0.00013701
0.000132163
0.000161615
0.000135559
0.0452526
0.000940402
0.000168962
0.00312393
0.000143044
0.000583811
0.000145578
0.000138023
0.000194832
0.000189365
0.000255665
0.00498204
0.000821318
0.000266706
0.000176481
0.000166425
0.000150925
0.000284493
0.000145071
0.000166756
0.0178937
0.000147528
0.00333075
0.0027052
0.00140656
0.000476097
0.00594724
0.0199991
0.00407486
0.000198951
0.000154007
0.000187372
0.00014464
0.000137143
0.000141871
0.00269985
0.0200421
0.00271136
0.000156814
0.000153928
0.00327498
0.00014081
0.000182985
0.000136792
0.000167118
0.000142295
0.000133176
0.000152009
0.000173057
0.000601261
0.000168977
0.000159008
0.000137903
0.000177044
0.0149754
0.000138027
0.000201056
0.000288455
0.000131458
0.000186817
0.000137897
0.0320629
0.000149027
0.000315027
0.000149095
0.000146147
0.00016199
0.000193517
0.000880275
0.000202563
0.00560782
0.000150892
0.000145001
0.000145245
0.000145214
0.000136834
0.000143387
0.000789722
0.0262425
0.000178837
0.000146415
0.000160342
0.000160409
0.000146098
0.000147066
0.00020568
0.00266076
0.00733063
0.00014655
0.00300451
0.000137916
0.000190109
0.000150841
0.000172217
0.000523073
0.00359271
0.0100248
0.000133342
0.000144625
0.000140699
0.000142704
0.000144691
0.000142323
0.0412852
0.000146387
0.000150672
0.000148888
0.000177651
0.00014178
0.032832
0.0195653
0.0103251
0.000145404
0.00039946
0.000136677
0.00512466
0.000267939
0.000154246
0.00938661
0.000153378
0.000190553
0.000141283
0.000161096
0.000159376
0.000190762
0.00022216
0.00627857
0.000270356
0.000225164
0.000189104
0.000149613
0.000144177
0.000425837
0.000152433
0.00146924
0.000149657
0.00052034
0.00416633
0.00208766
0.000150492
0.000382692
0.000153051
0.000153811
0.000136515
0.000152442
0.000192392
0.00014285
0.00422353
0.000203625
0.00022362
0.000141468
0.0001599
0.000272271
0.00185249
0.00599617
0.000154732
0.000185646
0.000419191
0.000297476
0.000147817
0.000193147
0.010325
0.000190771
0.0332968
0.00015541
0.000158033
0.000284453
0.000135522
0.0024154
0.000179948
0.000144461
0.00552967
0.00201342
0.00299845
0.000166634
0.000222958
0.00020461
0.000136967
0.000181969
0.000149829
0.000254558
0.000146777
0.0380063
0.0302858
0.00152139
0.00812364
0.000212696
0.00581034
0.000153832
0.000320182
0.00934676
0.00970161
0.000150576
0.000148876
0.000142724
0.000160778
0.00013577
0.000141417
0.0129665
0.000141995
0.000138796
0.000165206
0.000148917
0.000132958
0.00021615
0.00107123
0.000188068
0.000144475
0.00014504
0.000159775
0.00015133
0.000141866
0.000140811
0.00013664
0.00499702
0.000155617
0.000109461
0.000161139
0.000143797
0.000133078
3.54101e-05
0.000247114
0.00194887
0.000189466
0.000147442
0.000166386
0.000140893
0.000158664
0.00027294
0.0329918
0.000232205
0.000152349
0.000138392
0.00015922
0.0019698
0.00552817
0.00228611
0.000155062
0.0001391
0.000138169
0.000154287
0.000235177
0.021922
0.000138312
0.00164738
0.000133069
0.000143814
0.000214156
0.000140895
0.00559889
0.000217165
0.000395037
0.00013479
0.000182004
0.00017259
0.0145919
0.000138916
0.000149137
0.000276687
0.00388267
0.000680453
0.0063426
0.0377698
0.000153772
0.00024181
0.000155261
0.000212692
0.00574898
0.000161878
0.000141488
0.000145782
0.000135682
0.0136743
0.000752858
0.000155068
0.000664935
0.000136397
0.000141648
0.000145967
0.00026271
0.000302453
0.000635044
0.000143808
0.000148867
0.000163553
0.0220338
0.000136555
0.00247293
0.000145166
0.000151664
0.036174
0.00014016
0.00028958
0.0120448
0.00301993
0.000410396
0.000146899
0.000152841
0.000157296
0.0302609
0.000187542
0.000145467
0.0325426
0.00264242
0.000131377
0.000150807
0.0091873
0.000136957
0.0327399
0.0337333
0.000154746
0.000132238
0.000154481
0.000159528
0.00211149
0.000137995
0.000177234
0.000154098
0.0211675
0.0227428
0.000142821
0.000136975
0.00023404
0.000159181
0.000144815
0.000144327
0.000140269
0.000182745
0.000151678
0.000283692
0.000149316
0.000148403
0.000147107
0.000151664
0.000169981
0.000157037
0.013222
0.00771617
0.00258017
0.000148046
0.000136414
0.000357812
0.000161833
0.000191317
0.008577
0.000214424
0.0073081
0.03503
0.000136019
0.000389656
0.00183112
0.000150069
0.000140603
0.000143813
0.000143732
0.000845999
0.00399997
0.000144855
0.00782261
0.00352953
0.0258286
0.000133694
0.000138888
0.0213243
0.000140353
0.000146156
0.000167127
0.000142618
0.000273221
0.000157152
0.00626108
0.00212954
0.000143309
0.0310661
0.00022775
0.019118
0.0177979
0.000143122
0.000155163
0.000169412
0.000290867
0.0329933
0.00264254
0.000148376
0.000143906
0.000204587
0.000136971
0.0017656
0.00245051
0.000140857
0.0144886
0.000137287
0.0314949
0.000151425
0.00346884
0.000149853
0.00119702
0.0420945
0.0334839
0.0320116
0.000135567
0.000820623
0.020845
0.000148816
0.0229004
0.000148188
0.000133597
0.000143958
0.00015757
0.000153933
0.000145821
0.000141573
0.000237019
0.000172877
0.000176399
0.00532179
0.000184565
0.00016608
0.000154473
0.000189272
0.000136858
0.000208765
0.0218831
0.0341807
0.0054698
0.000155422
0.000152684
0.000150269
0.000205958
0.000152013
0.00014134
0.0327906
0.000677292
0.0224139
0.000173829
0.000145763
0.000175256
0.0366102
0.000152238
0.000136735
0.000154885
0.000151652
0.000172041
0.000143579
0.00333525
0.000147437
0.0317456
0.000138729
0.00357924
0.00322232
0.00810144
0.000136258
0.000206191
0.000145183
0.000137516
0.000196792
0.000240092
0.000142328
0.000149264
0.0344663
0.000144394
0.00018537
0.00652831
0.000161391
0.00328996
0.000145901
0.000734082
0.000159859
0.0381813
0.000136301
0.000146402
0.000387955
0.000140517
0.00650522
0.000155109
0.000160694
0.0433239
0.000150459
0.00014391
0.000149428
0.000141777
0.00508162
0.0272087
0.000137491
0.00294119
0.000240023
0.0438553
0.000144356
0.000266476
0.00642506
0.000157088
0.000160253
0.00014412
0.010117
0.000133778
0.0405453
0.000136173
0.000143381
0.00015303
0.000146006
0.000138731
0.000214835
0.000152119
0.000142256
0.00402067
0.000138095
0.000179336
0.000155905
0.0115091
0.000179158
0.00014006
0.000170363
0.000141587
0.000140679
0.000154525
0.0396507
0.00692006
0.0041209
0.00028423
0.000136558
0.000145372
0.000147009
0.000140596
0.000135518
0.0012789
0.000134102
0.00016133
0.000245555
0.000149922
0.000302936
0.000144894
0.000136636
0.0203323
0.0378007
0.000146217
0.00017818
0.000167806
0.0367438
0.000141796
0.000152013
0.000526011
0.000146894
0.00560713
0.000307764
0.000149314
0.000149809
0.000289517
0.000156094
0.000183965
0.00026741
0.00332012
0.000152716
0.000162374
0.000169955
0.000296147
0.000149168
0.00193136
0.0118571
0.002966
0.0326872
0.000139301
0.000144323
0.000142384
0.00638332
0.000282648
0.0429925
0.0327315
0.000136123
0.000284462
0.00013953
0.011855
0.000143591
0.000168833
0.000218021
0.000152991
0.000149603
0.000213138
0.000155183
0.000148007
0.000148821
0.00019361
0.000152217
0.000141225
0.000259693
0.000148643
0.000148253
0.000145221
0.0041607
0.000198172
0.0077161
0.000160624
0.000151821
0.0342528
0.000155888
0.000218538
0.000137299
0.000142434
0.000963548
0.0323796
0.000294088
0.000150778
0.000155563
0.00682175
0.000222368
0.000209162
0.00675879
0.000259848
0.000399056
0.000136414
0.01285
0.000140937
0.000189773
0.000327121
0.00020977
0.000209612
0.000152285
0.0241338
0.000194847
0.0068018
0.000200223
0.000141986
0.000143455
0.000144493
0.000373061
0.000137519
0.00634841
0.00019257
0.00500641
0.000135586
0.0262705
0.00062906
0.00829428
0.00706249
0.000149861
0.000147265
0.000142673
0.000161299
0.000144451
0.000158938
0.0128123
0.000147698
0.00015028
0.0322171
0.00686424
0.0087921
0.000158747
0.000163752
0.000140191
0.0288079
0.000150703
0.00163682
0.000173153
0.00549958
0.000167116
0.000208077
0.000351885
0.000143038
0.000142478
0.0320174
0.00650537
0.0101903
0.000227705
0.000176368
0.000141895
0.000216119
0.000144007
0.000281571
0.000143733
0.000150894
0.006655
0.000149213
0.000208259
0.000137783
0.00116933
0.00584298
0.000169972
0.000160055
0.0210136
0.000162364
0.000136068
0.027255
0.000709533
0.0298426
0.000140262
0.000148668
0.000669957
0.000543195
0.0336173
0.000146184
0.000157307
0.000146271
0.000156496
0.000148181
0.000138663
0.00345893
0.000141367
0.0188887
0.000154397
0.000357499
0.000136378
0.000405111
0.0147954
0.00021154
0.000276712
0.000275579
0.000138927
0.000200937
0.000773142
0.000139992
0.000147778
0.000145093
0.0265019
0.0316795
0.000144706
0.0325415
0.000170045