/*--------------------------------*- C++ -*----------------------------------*\
| =========                 |                                                 |
| \\      /  F ield         | OpenFOAM: The Open Source CFD Toolbox           |
|  \\    /   O peration     | Version:  v2012                                 |
|   \\  /    A nd           | Website:  www.openfoam.com                      |
|    \\/     M anipulation  |                                                 |
\*---------------------------------------------------------------------------*/
FoamFile
{
    version     2.0;
    format      ascii;
    class       surfaceVectorField;
    location    "550";
    object      ddtCorrDdt0(Uf);
}
// * * * * * * * * * * * * * * * * * * * * * * * * * * * * * * * * * * * * * //

dimensions      [0 1 -2 0 0 0 0];


internalField   nonuniform List<vector> 
27274
(
(0.000213682 -0.00058641 -8.52874e-19)
(0.00019601 -0.000549344 -1.48338e-17)
(0.000243446 -0.000554116 -1.10443e-17)
(0.0129349 0.0103659 -1.40259e-17)
(0.014675 0.0115753 -1.99474e-19)
(0.0158805 0.00824777 1.37395e-18)
(4.84871e-05 3.77743e-05 -7.45935e-20)
(4.55918e-05 -7.14645e-07 -2.28319e-18)
(4.95927e-05 2.7699e-05 -1.67842e-18)
(8.06481e-05 -5.90285e-05 -4.29544e-19)
(6.91065e-05 -7.02432e-05 -3.80737e-19)
(7.09054e-05 -6.92493e-05 -2.62369e-20)
(0.00029416 -0.000439738 2.39056e-19)
(0.000289009 -0.000395853 4.99087e-18)
(0.000347912 -0.000423513 -1.97106e-19)
(0.00165695 0.0153127 -1.3944e-18)
(0.000828493 0.0148842 -1.17193e-18)
(0.000843535 0.016038 3.983e-18)
(7.06645e-05 -5.06455e-05 -4.05952e-20)
(7.0259e-05 -2.47054e-05 5.60726e-19)
(6.80466e-05 -4.24749e-05 6.2862e-20)
(-0.00312062 -0.000511688 5.43956e-18)
(-0.0033545 -0.000359344 -1.277e-17)
(-0.00307456 -0.000250738 2.83137e-18)
(-1.65852e-05 0.00054441 2.41661e-19)
(-6.40827e-06 0.00053521 3.01439e-18)
(0.0526312 0.0046711 1.97025e-18)
(0.0529377 0.00372814 1.31506e-17)
(0.0514435 0.00483504 2.17008e-17)
(-6.38186e-05 -4.42805e-06 -5.97815e-19)
(-5.71875e-05 -1.24857e-05 7.37256e-19)
(-6.16962e-05 -5.90947e-06 -1.03308e-18)
(-0.0380345 -0.000434318 1.85091e-17)
(-0.0381474 -0.000150428 2.53955e-17)
(-0.0385331 -0.000301372 -1.18321e-17)
(-0.00610424 -0.00363201 1.19758e-17)
(-0.00636505 -0.00371723 1.68309e-17)
(-0.00625265 -0.00379772 1.17836e-17)
(9.84799e-06 -0.000242387 -1.01827e-18)
(2.37369e-05 -0.000262034 1.94559e-18)
(-6.50164e-06 -0.000228487 -1.33507e-18)
(0.000211657 0.000150503 -3.33276e-19)
(0.000203791 0.000127114 1.11197e-19)
(0.000199753 0.000163225 -8.42661e-19)
(0.000120802 0.000497995 2.97935e-19)
(0.000108646 0.000497089 1.07172e-18)
(0.000109414 0.000501073 -2.07047e-18)
(-0.00459186 0.000996248 -8.96286e-19)
(-0.00432194 0.00129568 -5.40647e-17)
(-0.00420867 0.00104188 6.12267e-17)
(0.000104068 9.74109e-05 -3.43995e-19)
(0.000108694 8.71764e-05 -4.57616e-19)
(0.000102519 0.000114437 7.9317e-20)
(9.72341e-05 0.00040723 1.45642e-18)
(9.71559e-05 0.000425498 1.102e-19)
(9.54503e-05 0.000421114 -8.16296e-19)
(-0.115828 0.0905463 -1.08681e-17)
(-0.114766 0.088773 -4.44675e-18)
(-0.111935 0.0850929 -4.01505e-18)
(7.66356e-05 0.000477468 -1.80218e-18)
(7.51949e-05 0.000479222 -1.19857e-17)
(5.06685e-05 0.000481898 4.75972e-18)
(4.97142e-05 0.000431476 1.96355e-19)
(4.03935e-05 0.000419481 2.80346e-18)
(3.93642e-05 0.000443439 -6.9013e-19)
(0.0296157 -0.0152444 5.30547e-18)
(0.0274922 -0.01633 -1.50386e-17)
(0.0296098 -0.014982 -2.33858e-17)
(0.000280744 -0.000454774 -8.94753e-19)
(0.000260554 -0.000425564 1.0129e-18)
(0.00132267 -0.00141691 -1.60089e-19)
(0.00146471 -0.00156676 1.71455e-18)
(-3.06729e-05 0.000181272 -6.11729e-19)
(-2.63326e-05 0.000158519 -3.10717e-18)
(-3.29298e-05 0.000114871 -2.43199e-18)
(-7.83133e-06 0.000546447 -2.90664e-18)
(-7.84709e-06 0.000550135 1.23616e-18)
(-7.77758e-05 0.000497561 -1.03327e-17)
(-5.18146e-05 0.000480865 6.8934e-18)
(1.58758e-05 0.00051722 1.55875e-19)
(-0.0207839 0.00739375 -2.12055e-19)
(-0.0228187 0.0136447 2.09862e-18)
(-0.0249031 0.010627 2.87083e-18)
(3.25764e-05 -2.22362e-05 -1.71871e-19)
(4.10517e-05 -5.47408e-06 6.25901e-18)
(4.42126e-05 2.27204e-05 3.68526e-18)
(-3.1286e-05 -0.00029656 3.07289e-18)
(2.97107e-07 -0.000300636 4.32064e-19)
(-2.78572e-05 -0.000325849 -7.30398e-19)
(0.000702356 -0.000567502 -3.54649e-19)
(0.00064722 -0.000597092 4.36863e-18)
(0.00072249 -0.000639149 -8.19932e-19)
(0.000102981 0.000104662 1.16382e-20)
(0.000106019 8.26667e-05 -2.584e-19)
(4.89285e-05 7.31179e-06 2.64581e-20)
(4.08046e-05 1.04655e-05 1.67744e-19)
(4.13845e-05 1.13772e-05 -1.92359e-19)
(0.00123675 -0.000854576 -9.23869e-19)
(0.00138302 -0.000836977 -1.74737e-17)
(0.00131478 -0.000956661 6.75553e-18)
(0.000174315 -0.000622595 8.25958e-18)
(0.000232945 -0.000637414 -6.22184e-19)
(-2.26188e-06 0.000405097 1.99443e-18)
(-3.79655e-07 0.000425191 -1.8097e-18)
(0.00264106 0.00313218 -3.52046e-18)
(0.00228611 0.00303173 2.6832e-20)
(0.00253298 0.00279134 -3.09682e-19)
(-3.18579e-05 0.00049388 -1.07453e-17)
(-4.79484e-05 0.000544271 3.82542e-18)
(-5.45159e-05 -2.47996e-05 9.83757e-19)
(-5.01833e-05 -3.42752e-05 -9.49574e-19)
(-5.00486e-05 -3.86822e-05 6.7599e-19)
(7.48627e-06 -0.000244799 -5.95457e-19)
(9.52076e-06 -0.000260998 1.26179e-18)
(-0.00102621 0.000840396 -3.15915e-19)
(-0.00106579 0.000954672 1.00454e-18)
(-0.000951101 0.000925472 5.68796e-19)
(5.05629e-05 7.36287e-05 2.35282e-18)
(4.74298e-05 4.20455e-05 1.53449e-18)
(0.0618796 0.00100374 2.12445e-17)
(0.0609955 0.00150711 4.26021e-18)
(0.0615144 0.00114052 3.7801e-17)
(-4.48148e-05 -3.83989e-07 5.5005e-19)
(-4.34721e-05 1.63539e-06 5.0246e-19)
(-4.40458e-05 -5.17371e-07 1.57308e-19)
(0.0029523 0.00319368 -2.25557e-18)
(0.00269985 0.00341996 -1.54964e-17)
(-0.000167476 -0.00161841 -1.39134e-18)
(-0.000262626 -0.00164099 -1.40357e-17)
(-0.000211248 -0.00172848 2.32173e-18)
(6.15995e-06 0.000523197 -3.08076e-18)
(5.18005e-05 0.000536896 -1.98427e-18)
(1.86354e-05 0.00054908 5.65602e-18)
(-0.000164458 -0.0013261 -7.76634e-18)
(-5.62657e-05 -0.00129417 -2.69516e-18)
(-0.000120631 -0.00120859 1.05698e-17)
(9.82493e-05 0.000156197 4.73263e-19)
(0.000100237 0.000146989 -8.15744e-20)
(0.000103772 0.000139428 -3.91944e-19)
(-2.38473e-05 -0.000125434 2.94898e-19)
(-2.64028e-05 -0.000112261 -9.67661e-19)
(-3.10694e-05 -0.000113251 7.07882e-19)
(0.000144359 0.000274085 -2.94774e-20)
(0.000144393 0.000282714 -1.36363e-19)
(0.00013379 0.000287241 -9.49151e-20)
(-6.42343e-06 -0.000145678 -2.35102e-18)
(-2.40854e-07 -0.000146214 4.33301e-19)
(-2.26107e-06 -9.6117e-05 -9.39655e-19)
(0.0205747 0.0215132 2.59055e-17)
(0.0186098 0.0218987 9.35105e-18)
(0.0151499 0.0238222 1.51295e-17)
(2.30053e-06 0.000348709 1.90403e-18)
(7.66334e-06 0.000353571 -5.57099e-19)
(2.53623e-07 0.000336088 1.53735e-18)
(1.17818e-05 1.19088e-05 9.11015e-19)
(1.77721e-05 1.1708e-05 -2.77734e-20)
(-2.57881e-06 4.8573e-06 7.07281e-19)
(0.0354618 0.0130129 1.11641e-18)
(0.0348972 0.0148947 3.03926e-18)
(0.0371348 0.0142801 5.10814e-18)
(0.000202773 0.00017884 -8.97099e-20)
(0.00021562 0.000144216 -8.57751e-19)
(-0.00024526 -0.00283107 -2.22654e-17)
(-0.000255954 -0.00312153 -6.72685e-17)
(-0.000424201 -0.00280946 2.9375e-18)
(0.00502948 -0.00272396 -2.56373e-17)
(0.00472887 -0.00301347 -1.70924e-17)
(0.00455687 -0.00260145 -1.39001e-17)
(9.11923e-05 0.000165345 6.45394e-20)
(0.00010479 0.000166542 -1.71501e-19)
(-0.00314094 0.00720014 -9.24758e-18)
(-0.00340373 0.00664261 5.53908e-18)
(-0.0027554 0.00666836 6.6544e-19)
(0.000114331 2.85529e-05 9.00483e-19)
(0.000111992 4.47779e-05 7.98312e-19)
(0.000113696 2.1135e-05 -1.11054e-19)
(0.000174614 0.000637768 1.25316e-18)
(0.000170131 0.000564021 2.33083e-19)
(0.000234887 0.000600989 5.55933e-19)
(-0.0376679 -0.000509785 2.77878e-17)
(-0.0379866 -0.000596819 -5.84678e-18)
(0.000177707 -0.000507576 5.15238e-18)
(0.0001461 -0.000536266 1.14583e-18)
(-0.0134786 -0.00535492 -7.43887e-18)
(-0.0180203 0.0030909 -4.22394e-18)
(-0.00964552 0.00049218 -1.53886e-17)
(-9.93361e-05 0.00018938 -4.80714e-18)
(-0.000120795 0.000158849 -5.41592e-18)
(-8.43651e-05 0.00015713 -1.89776e-17)
(-4.03128e-06 0.000538393 3.02801e-18)
(3.47643e-05 0.000423024 -2.47145e-18)
(2.67699e-05 0.00042325 4.59464e-18)
(0.000967803 -0.00209296 1.01813e-17)
(0.000883476 -0.0022486 1.15923e-17)
(0.000846869 -0.00205393 -1.68202e-20)
(-9.86992e-06 -4.88238e-05 8.33987e-19)
(-7.05482e-06 -4.56223e-05 -1.8256e-19)
(-7.79392e-06 -4.24105e-05 -6.82315e-20)
(0.00530221 -0.00235735 -4.54149e-18)
(0.00550339 -0.00290478 1.53725e-17)
(5.87184e-05 0.00015171 3.25188e-20)
(5.3098e-05 0.000138201 4.74456e-20)
(5.54858e-05 0.000147479 3.00556e-20)
(-0.00274601 -0.000569823 4.70878e-18)
(-0.00300253 -0.000886252 -1.03531e-17)
(6.80966e-05 -5.99066e-05 -7.97982e-20)
(6.62428e-05 -6.95479e-05 -1.24458e-19)
(-0.0170485 0.0327373 -4.94815e-18)
(-0.0166791 0.0329267 -7.18983e-19)
(-0.0134832 0.0296755 -9.86928e-18)
(0.000676047 -0.000480461 3.48605e-18)
(0.000665418 -0.000438468 -1.71153e-18)
(0.000744956 -0.000467776 3.60637e-18)
(0.00279094 -0.00117037 -4.00693e-18)
(0.00299508 -0.0012122 -4.07721e-18)
(0.00294405 -0.00100506 -6.41165e-18)
(0.000130056 0.000259588 -6.08979e-20)
(0.000127443 0.000254525 -2.90392e-20)
(0.000123297 0.000264022 -8.50369e-21)
(6.99247e-05 6.04523e-06 4.40752e-19)
(7.23287e-05 -2.82029e-06 5.34286e-19)
(0.000162355 0.00694636 -3.4302e-18)
(0.000601377 0.00798883 3.13771e-17)
(-0.00056337 0.00647388 -1.23547e-17)
(6.04971e-05 0.000488367 4.25415e-18)
(6.94488e-05 0.000464656 7.21324e-18)
(0.000642696 0.000460244 -9.0184e-20)
(0.000684587 0.000528404 -5.82502e-18)
(0.000709151 0.000455421 -3.34124e-18)
(-2.0237e-05 0.00020421 5.74549e-19)
(-2.25563e-05 0.000232791 9.65398e-19)
(-0.00572196 -0.00359385 1.90159e-17)
(-0.00590301 -0.00339222 5.76167e-18)
(-0.100258 0.0242061 1.12342e-18)
(-0.0973871 0.0309613 1.94777e-18)
(-0.0894714 0.0284356 4.30855e-18)
(-0.116786 0.0919913 2.88533e-18)
(-0.119227 0.0953207 -4.94322e-18)
(-0.0180636 0.00324959 -1.66503e-17)
(-0.018053 0.00166125 2.94121e-18)
(0.0290049 0.0081903 -4.37959e-18)
(0.0336507 0.00705068 1.21815e-17)
(0.0309068 0.00662679 -2.39265e-17)
(-0.0392215 0.0223913 -1.76817e-18)
(-0.036699 0.0239726 2.1663e-17)
(-0.0345038 0.0213823 3.46489e-17)
(-4.73045e-05 -1.03764e-06 -8.51668e-19)
(-4.44143e-05 1.12126e-06 -3.48562e-19)
(-9.85083e-06 0.000329026 2.50972e-18)
(-1.53124e-05 0.000306938 1.35295e-18)
(-1.68195e-05 0.000292354 2.2159e-18)
(-5.64288e-05 2.60381e-06 3.41133e-19)
(-5.47585e-05 4.18957e-06 -1.13129e-19)
(-5.36582e-05 6.72043e-06 1.42626e-18)
(-0.00511644 -0.0578183 7.5948e-18)
(-0.00344523 -0.0542539 1.37944e-17)
(0.0293782 -0.0152321 1.72911e-17)
(0.0318727 -0.0138858 1.26812e-17)
(0.000185409 -0.000157647 3.13913e-18)
(0.000180673 -0.000180751 8.20185e-19)
(0.000186033 -0.000179813 5.92724e-19)
(0.00118108 0.000327651 -2.21044e-19)
(0.00109903 0.000350679 -7.40665e-18)
(0.00119789 0.000421047 4.7118e-18)
(0.0222886 0.0209332 3.67926e-17)
(0.0254873 0.0195644 -1.56895e-18)
(0.00142267 0.000543806 1.76762e-17)
(0.00159421 0.000581117 1.22415e-17)
(0.00121617 0.000775535 -1.98386e-17)
(-0.00419309 -0.0317074 -4.95076e-18)
(-0.00384934 -0.0309527 1.86353e-18)
(-0.00159571 -0.0406245 -1.56539e-17)
(-7.59422e-06 0.000862594 2.76038e-17)
(-0.000221043 0.000814735 1.23339e-17)
(-0.000299949 0.0011178 5.83474e-18)
(0.000872234 -0.000194332 4.00168e-18)
(0.000943194 -0.000278252 -1.67859e-18)
(0.00083825 -0.000277123 4.5981e-18)
(0.00816782 0.0229289 -1.41949e-17)
(0.0101447 0.019872 -2.38835e-17)
(4.46696e-05 0.0231147 -3.4044e-18)
(0.000200411 -0.000669956 -5.03559e-18)
(0.000222227 -0.000617435 4.05071e-18)
(0.000271746 -0.000681069 -4.77531e-18)
(-0.0110318 0.00860134 -4.28127e-18)
(-0.0113173 0.00952061 -1.93107e-17)
(-0.0120597 0.00869363 -7.12932e-18)
(-0.0385203 0.000569789 -1.77354e-17)
(-0.0383328 0.000639448 6.09472e-18)
(-0.0396527 0.000369398 4.76134e-18)
(0.000576004 0.00286441 1.05413e-17)
(0.000635389 0.00265892 7.91438e-18)
(0.000843139 0.00279771 6.23779e-18)
(-0.000180808 0.000506721 -1.84334e-17)
(-0.000264585 0.000472328 -5.73713e-19)
(-0.000241921 0.000591666 -5.98644e-18)
(0.000982876 -0.00162631 -6.80677e-18)
(0.00103332 -0.00177015 1.20178e-17)
(3.8696e-05 -2.66154e-05 2.06283e-18)
(3.8803e-05 -9.54374e-06 -9.95936e-19)
(3.88828e-05 2.37478e-07 -4.00509e-19)
(-1.35551e-05 0.000504643 1.10706e-18)
(-1.42662e-05 0.000487679 5.67681e-18)
(-6.90308e-06 0.000498164 4.31081e-18)
(-2.73471e-05 0.00012183 8.88594e-19)
(-3.00311e-05 0.000150215 -8.75009e-19)
(-2.97315e-05 0.000186212 7.56546e-20)
(1.90923e-05 0.000513048 3.59797e-18)
(-3.8988e-06 0.000510962 1.86129e-18)
(-0.00445572 0.0306953 -4.74947e-18)
(-0.000197988 0.0275221 4.08983e-18)
(-0.000404012 0.0289944 6.0489e-18)
(5.14903e-05 1.81004e-05 -1.30347e-19)
(5.27339e-05 1.64977e-05 2.14438e-19)
(4.8835e-05 2.02492e-05 9.5787e-20)
(0.000245914 -0.00240388 1.92445e-18)
(0.000290505 -0.00238219 6.66539e-17)
(0.000230641 -0.00228506 3.15975e-17)
(-0.0205138 0.0357085 -1.57652e-18)
(-0.0165975 0.032758 2.93642e-18)
(-0.000161694 -0.00264241 3.38645e-18)
(-0.000164949 -0.00274815 8.46327e-18)
(-0.000107435 -0.00319872 -3.29863e-17)
(0.000824308 -0.000127116 9.3319e-18)
(0.000908639 -0.000125419 -5.90492e-18)
(0.0519299 0.00541091 -1.11734e-17)
(0.0535023 0.00449207 -1.32962e-17)
(0.017487 -0.00975168 -2.47966e-17)
(0.0171765 -0.0091671 3.63218e-17)
(0.0166279 -0.00707239 -5.63959e-19)
(0.000693219 -0.000520528 2.52322e-18)
(0.000629086 -0.000494315 -9.83046e-19)
(0.00101049 -0.00191054 7.99566e-18)
(0.00115853 -0.00212002 3.47568e-18)
(0.000185953 -0.000131243 1.67819e-18)
(0.000193317 -0.000132707 -1.39725e-18)
(0.000319755 0.0029334 -4.71239e-18)
(0.000530501 0.00310268 5.85038e-18)
(0.000141891 0.000271163 -8.60454e-21)
(0.000148283 0.000257238 -8.51976e-19)
(-8.77083e-06 -0.000158917 9.61859e-19)
(-8.77432e-06 -0.000167165 2.64989e-18)
(-4.63229e-06 -0.000135184 6.72218e-19)
(0.00630368 0.0115666 3.27849e-17)
(-0.000326184 0.00315636 -3.75701e-17)
(-0.00517618 0.0156809 1.35106e-17)
(-4.35364e-05 -6.20233e-06 1.83486e-19)
(-5.3858e-05 1.61512e-05 -1.08223e-18)
(-1.79792e-05 -0.000135668 -1.76642e-18)
(-1.9087e-05 -0.000136827 -6.10435e-19)
(0.0281429 -0.0115362 5.3009e-18)
(0.0233581 -0.0159045 9.40439e-18)
(0.0442525 -0.0130034 1.91749e-17)
(-0.00179219 0.00332116 -8.21556e-19)
(-0.00149841 0.00343617 7.16579e-18)
(-0.00157143 0.00313254 -5.4939e-18)
(0.00126443 0.000329844 -1.33423e-18)
(0.00118574 0.00025316 4.23112e-18)
(-0.00040024 0.000358168 6.97874e-18)
(-0.000367895 0.000341827 -1.42489e-18)
(-0.000349582 0.000379147 9.75073e-18)
(-1.00242e-05 -0.00015567 -2.4081e-18)
(-1.0887e-05 -0.000175474 1.54972e-19)
(0.000198349 0.000208525 -6.92587e-19)
(0.000207137 0.000186196 -1.21947e-18)
(0.000213378 0.000178403 -8.327e-20)
(-6.3805e-05 4.30493e-06 -3.03445e-19)
(-6.39102e-05 3.00362e-06 6.2532e-19)
(4.05785e-05 -0.000241546 -1.62174e-19)
(3.97133e-05 -0.000251393 -2.24299e-19)
(3.09586e-05 -0.000251937 -1.03828e-18)
(0.00270647 -0.00017459 4.76185e-18)
(0.00251196 -5.42417e-05 2.29511e-19)
(0.00250036 -0.000269949 -1.64507e-17)
(-0.00568825 -0.026925 1.9303e-18)
(-0.00417203 -0.034088 -7.25071e-20)
(-0.0155656 -0.0151365 1.81017e-18)
(-0.0144347 -0.0214497 5.78994e-18)
(-0.016892 -0.017709 -1.47848e-18)
(0.000130255 0.00051558 -3.79778e-19)
(0.000123423 0.000511142 2.11103e-18)
(0.000125184 0.000517095 3.5012e-19)
(3.89181e-05 -6.43001e-05 4.30868e-19)
(2.3348e-05 -4.39536e-05 4.11652e-18)
(-0.000166702 -0.0016481 -1.66163e-19)
(-0.000184456 -0.00168004 -2.81815e-17)
(-0.000215012 -0.00164448 -5.01873e-17)
(3.40799e-05 0.000396899 1.12876e-18)
(1.4562e-05 0.000364122 -1.83482e-18)
(3.09406e-05 0.000351865 -1.1125e-18)
(-4.48305e-05 0.000506361 3.59999e-18)
(-4.43031e-05 0.000457484 4.49204e-18)
(5.59735e-06 0.000485472 -6.24658e-18)
(-0.107342 0.0277074 6.31361e-18)
(-0.111974 0.0300894 -1.01362e-17)
(-0.104657 0.0244815 -6.43714e-18)
(0.000592199 -9.22372e-05 3.78797e-18)
(0.000630009 -6.55669e-05 2.89254e-18)
(0.000601854 -6.20773e-05 -2.21416e-18)
(-0.0978924 0.0348281 5.01243e-18)
(-0.0727051 0.0329665 3.92138e-18)
(0.000292997 -0.000316734 -1.32896e-18)
(0.000322141 -0.000321136 4.60825e-18)
(0.00030101 -0.00032505 4.0491e-18)
(2.51188e-05 0.000418753 -4.5002e-18)
(0.00115307 -0.000880469 2.34889e-18)
(0.00119806 -0.000810632 3.64017e-18)
(-0.000262609 -0.00271219 3.33804e-17)
(-0.000154874 -0.00275272 3.1983e-19)
(0.0144882 0.0142929 1.23745e-18)
(0.0133617 0.0149248 1.43598e-17)
(0.0146548 0.0155155 1.74725e-17)
(-5.46339e-06 -5.60097e-05 -9.01458e-19)
(-5.66583e-06 -6.69771e-05 -2.36498e-19)
(-1.94968e-06 -4.87356e-05 -1.36573e-18)
(0.0333248 -0.00929688 4.10225e-18)
(0.00582427 -0.00955749 2.41858e-19)
(-0.000136621 -0.00240101 -2.65279e-17)
(-2.65146e-05 -0.0026364 -2.25398e-17)
(-6.37321e-06 -6.29491e-05 -5.03934e-19)
(-4.80433e-06 -4.82673e-05 -7.8466e-20)
(-0.00463946 0.00629515 -1.97934e-17)
(-0.0040428 0.0065915 -7.33436e-18)
(-0.00463508 0.00695299 -3.86051e-18)
(0.00020852 0.000245391 1.44411e-19)
(0.000199053 0.000260139 1.43669e-19)
(0.000210799 0.000241974 -9.67169e-19)
(0.00023266 -0.000147406 -1.01374e-18)
(0.000224415 -0.000156335 -4.28161e-18)
(0.000231256 -0.00013168 -4.67083e-19)
(-0.00010439 0.000363821 -7.90381e-19)
(-0.000113167 0.000357538 4.7679e-18)
(-0.000108252 0.000362327 2.38576e-17)
(0.00134299 0.000307258 -5.67394e-19)
(0.00136557 0.000388654 -3.23904e-18)
(0.0294162 0.0477426 -2.93609e-18)
(0.0315797 0.0458212 -6.40243e-18)
(0.0289003 0.0453596 5.0031e-18)
(-0.0026844 -0.00292749 -6.50183e-20)
(-0.00259345 -0.0026213 1.28034e-18)
(-0.00228689 -0.00285828 7.01542e-19)
(-0.0148016 0.00620667 1.54589e-17)
(-0.0170816 0.00661553 -3.01929e-17)
(-0.0193707 0.00559214 -1.21938e-17)
(0.000297904 -0.00105953 -6.11084e-18)
(0.000202652 -0.00113221 5.15752e-18)
(0.000217041 -0.00098693 1.12131e-17)
(-0.0104112 -0.0119683 1.81017e-17)
(-0.00975177 -0.0128501 1.52401e-17)
(-0.00943673 -0.0116822 -2.84896e-18)
(9.2134e-05 0.000167312 -1.06588e-19)
(7.96246e-05 0.00017317 -1.16602e-19)
(8.53782e-05 0.000157142 -7.08957e-20)
(-0.0191249 0.122325 7.84708e-18)
(-0.0201372 0.12259 1.15341e-17)
(-0.0207426 0.110913 1.45186e-17)
(0.0293983 -0.0150694 1.58848e-17)
(0.0297178 -0.0144938 1.14101e-17)
(0.0319713 -0.0135648 -1.07417e-17)
(-3.11944e-05 -4.12793e-05 -2.96191e-19)
(-4.37062e-05 -2.44033e-05 -3.09827e-19)
(-5.96875e-05 -2.77612e-05 -5.51934e-19)
(-4.52835e-05 -1.58544e-05 4.49624e-20)
(-4.86588e-05 -2.90334e-05 -1.3897e-18)
(-5.87454e-05 -8.16706e-06 -1.14411e-18)
(9.58077e-05 0.000504718 -1.58837e-18)
(0.00010642 0.000460916 -3.4872e-18)
(-0.0226653 0.0113654 1.69871e-18)
(-0.0245884 0.00864142 1.11863e-18)
(-0.0202121 0.00796822 1.01019e-17)
(0.0173643 0.0020328 4.27606e-18)
(0.0167465 0.00297478 4.1035e-18)
(0.0162228 0.00190905 7.01702e-18)
(-1.18186e-05 0.000300039 -9.67219e-20)
(-1.1321e-05 0.000306068 -1.09177e-18)
(-1.00274e-05 0.000324746 -2.35818e-18)
(0.011347 0.0123149 5.07533e-17)
(0.0114399 0.00958175 2.50492e-17)
(-0.0159662 -0.00493643 -3.76264e-17)
(-0.0226399 -0.00552596 2.4728e-17)
(-0.0211235 -0.00522325 3.26353e-17)
(0.000413625 -0.000769859 -8.8288e-18)
(0.000432275 -0.000710832 8.8987e-18)
(0.000353304 -0.000738106 1.11173e-17)
(-0.0108985 -0.0112702 5.95929e-18)
(-0.0112384 -0.0124144 -6.06609e-18)
(0.00075313 0.000722972 1.90602e-18)
(0.000657805 0.000695 9.11172e-20)
(0.00069458 0.000823795 4.90419e-19)
(5.23044e-05 -0.000105015 -7.08773e-19)
(4.88209e-05 -0.000110634 1.20681e-19)
(4.85572e-05 -0.00010426 -5.95182e-19)
(0.0107956 0.053269 -8.44317e-18)
(0.00926283 0.0517751 4.45449e-18)
(0.00818056 0.0542026 3.57379e-18)
(-0.0322006 0.00971038 8.08426e-18)
(-0.0362669 0.0118944 1.73016e-17)
(-0.0322587 0.013672 1.27378e-18)
(0.0353948 -0.00504808 -4.9232e-18)
(0.033641 -0.00417506 -3.48728e-18)
(0.0318943 -0.00525891 -1.51701e-18)
(-0.0281038 0.0156103 -4.25303e-17)
(-0.0267061 0.0170827 -1.81386e-17)
(-0.0261713 0.0151574 6.69928e-18)
(3.25285e-05 0.000664321 -1.26604e-17)
(-0.000143213 0.000539026 1.03115e-18)
(8.21141e-05 0.000410196 1.62975e-18)
(-0.00489629 0.00089089 -2.6933e-17)
(-0.00360521 0.000489399 7.60627e-17)
(0.0342349 0.011855 8.43495e-18)
(5.88029e-05 0.000111399 -2.52155e-19)
(5.51821e-05 0.000111583 -2.12566e-18)
(6.226e-05 0.000147884 1.34748e-19)
(0.00141368 0.000306258 6.07128e-18)
(0.00134433 0.000239125 3.54129e-19)
(0.0005691 0.0335296 -1.01344e-17)
(0.00451786 0.0307314 4.5967e-18)
(0.000807281 0.0338201 8.43247e-18)
(-0.000533666 0.000344324 -1.49263e-18)
(-0.000485045 0.000314455 -1.59002e-18)
(-0.000538811 0.000276113 3.11386e-18)
(4.67815e-05 0.000430497 -5.63604e-18)
(4.76327e-05 0.000470785 -1.05603e-18)
(5.57046e-05 0.000467295 -9.59911e-19)
(-0.00344956 -0.0307673 -2.13829e-17)
(0.0102459 -0.027374 -2.07695e-17)
(-0.00881687 -0.0291506 4.11739e-17)
(0.000831353 0.000797377 -4.38487e-18)
(0.000816749 0.000662388 6.17861e-18)
(0.000378821 0.00294462 -6.14765e-18)
(0.000190742 0.00280383 4.91454e-18)
(0.000166754 0.00311473 9.21961e-18)
(-6.5542e-05 -5.803e-05 1.27631e-19)
(0.000405988 -0.00024948 -5.77609e-18)
(0.000413949 -0.000254118 1.13229e-18)
(0.000430757 -0.000224265 1.13956e-18)
(-2.25526e-05 0.000594552 2.27854e-18)
(-7.20129e-06 0.000567339 3.10779e-18)
(-4.30224e-05 0.000559614 8.60095e-18)
(-0.0159084 -0.000524756 1.77961e-17)
(-0.0131073 9.54888e-05 4.09966e-17)
(-0.0106091 0.000853493 5.20782e-17)
(0.0368491 -0.00563773 -1.80761e-18)
(0.0386877 -0.00485291 -1.00798e-17)
(-0.0263671 -0.000895128 -2.77136e-18)
(-0.0311307 -0.00188944 9.97362e-19)
(-0.0265108 -0.000709598 6.78989e-19)
(0.0001486 0.00031205 3.89283e-20)
(0.000139949 0.000323313 9.70599e-19)
(0.000148504 0.000306736 7.84521e-19)
(0.000309842 -0.00248951 -4.07925e-17)
(0.000203297 -0.0023657 -3.73576e-17)
(-0.0215219 0.00725771 -6.97974e-17)
(-0.023117 0.0074635 -7.59462e-18)
(-0.0247089 0.0067163 8.68629e-18)
(-0.0262742 0.00037152 3.75726e-17)
(-0.0281509 -0.000287883 -9.26804e-18)
(-0.0292791 0.000217404 1.10633e-17)
(0.000566257 0.00317279 -1.18094e-17)
(0.000629406 0.00285335 -1.19272e-17)
(0.000179539 0.00023384 -4.94121e-20)
(0.00017226 0.000220009 -4.60023e-20)
(0.000274069 -0.000309846 -3.87163e-18)
(0.000293504 -0.000315709 -3.51173e-19)
(-0.117213 0.0931074 1.8439e-18)
(-0.117802 0.0948528 -4.42164e-19)
(-0.12008 0.0982341 -7.37622e-18)
(0.000110388 0.000519526 -3.74714e-19)
(0.000118231 0.000496286 -8.11439e-19)
(8.0456e-05 0.000157901 1.25311e-19)
(8.1464e-05 0.000167024 3.83628e-20)
(0.000994693 0.00686015 -1.40589e-17)
(0.00110221 0.00650997 -2.27909e-17)
(-0.0884236 0.102959 -8.83043e-18)
(-0.0770426 0.0993298 2.00973e-17)
(-0.0694915 0.0975898 -1.06969e-17)
(-0.113379 0.0874251 4.69011e-18)
(-2.27008e-05 6.19579e-05 -7.28419e-20)
(-2.13005e-05 9.06965e-05 2.36044e-19)
(0.000587358 -0.00011354 -2.14616e-18)
(0.000567515 -0.000103094 6.75654e-18)
(0.00679649 0.00559968 -3.60551e-18)
(0.00626407 0.0050917 4.31175e-18)
(0.00702543 0.00513645 -9.78037e-18)
(2.80475e-05 -0.000234152 -1.27209e-18)
(3.56789e-05 -0.000260802 -5.05466e-19)
(6.16911e-05 -0.000240778 -1.35381e-18)
(0.000596926 0.000385736 -1.35178e-19)
(0.000566868 0.000466611 -6.51459e-19)
(0.000195965 0.000158755 -1.73916e-19)
(0.000191429 0.000199452 -5.48383e-19)
(-0.0111679 0.00655308 -1.80777e-17)
(-0.0132328 0.0055624 2.70198e-17)
(6.12557e-05 0.000392426 1.79261e-18)
(3.35994e-05 0.000383616 -1.39962e-18)
(5.94532e-05 0.000428961 -3.25396e-18)
(-0.0175303 0.00855331 -2.50151e-18)
(-0.0185131 0.00824426 -2.60492e-17)
(-0.0182837 0.00793002 -1.27199e-17)
(-0.05726 0.0116449 -1.23485e-17)
(-0.0559936 0.0172566 7.35318e-18)
(-0.0623345 0.0155134 2.6747e-19)
(-0.000150784 -0.00109121 4.30113e-17)
(5.57635e-06 -0.00116169 -1.18328e-18)
(-0.000128046 -0.00127161 4.80268e-17)
(0.000176571 0.0002604 -6.00977e-20)
(0.000177991 0.000256362 -1.8711e-19)
(-8.85804e-06 -0.000142077 4.21543e-19)
(-5.82183e-06 -0.000177764 1.20958e-18)
(0.00257688 -0.0011253 -6.0909e-19)
(0.00262103 -0.00132513 1.40286e-18)
(0.000244833 9.32062e-05 3.93244e-19)
(0.000254759 8.7637e-05 -6.13971e-19)
(0.000250566 6.54309e-05 1.40106e-19)
(-0.0164857 0.00898396 -7.12937e-17)
(-0.0164788 0.00902032 2.09263e-17)
(0.000202216 0.000342784 -9.59752e-20)
(0.000196228 0.000349337 3.28526e-20)
(0.000207582 0.00033673 -4.63508e-19)
(-2.38857e-05 0.000211544 -2.38703e-20)
(-2.73103e-05 0.000194686 6.07038e-19)
(-2.70144e-05 0.000158918 -1.70633e-18)
(-1.64338e-05 0.000297 1.52863e-18)
(-1.20112e-05 0.000273079 1.45053e-18)
(0.000928047 0.00340297 3.99387e-18)
(0.000851299 0.00364456 -5.83371e-18)
(0.0011579 0.00356965 -1.06368e-17)
(-0.0354286 0.0468042 1.27961e-17)
(-0.0358328 0.0485043 5.28518e-18)
(-0.0313667 0.0498328 5.38385e-18)
(-0.0256186 -0.00068488 -5.65578e-17)
(-0.000107859 0.000560801 -2.64438e-18)
(-0.000117163 0.000451699 -7.12324e-18)
(-0.00821012 -0.0134802 -4.30254e-18)
(-0.00696124 -0.0130349 -1.17373e-17)
(-0.00776648 -0.0121978 -1.13334e-17)
(-4.31786e-05 -0.000392743 8.22713e-19)
(-4.75127e-05 -0.000352847 4.45708e-20)
(6.86062e-05 0.00017292 2.12367e-20)
(7.50285e-05 0.00017486 -3.09451e-20)
(7.44701e-05 0.000183159 5.59514e-20)
(5.28566e-05 0.000443021 1.08964e-18)
(1.87358e-05 0.000361673 -3.06833e-18)
(6.6395e-05 0.000394688 -3.25516e-18)
(-0.0520803 0.00944957 -1.86675e-17)
(-0.0574863 0.00674102 -4.86718e-18)
(0.0167556 -0.0165377 -2.19378e-17)
(0.0170457 -0.0179579 -6.94883e-18)
(0.0149419 -0.0151076 1.88828e-17)
(-0.000415077 -0.00203423 8.00713e-17)
(-0.000255623 -0.00210072 2.27289e-17)
(-9.33032e-05 -0.00191226 1.00119e-17)
(0.0156617 0.0133924 -8.15646e-18)
(0.0143984 0.0130646 -1.48142e-17)
(0.000198101 0.000249929 7.91278e-20)
(0.0002063 0.00022339 3.39882e-19)
(0.000398985 -0.000242844 -1.97156e-18)
(0.000388088 -0.000261435 -6.89358e-18)
(-0.00128921 -0.0042636 1.06135e-17)
(-0.00108426 -0.00505477 1.68662e-17)
(-0.0020313 -0.00460928 1.01583e-17)
(0.0009157 0.000845698 -3.01999e-18)
(0.000855009 0.000928897 -7.4412e-18)
(-0.0239261 0.0010497 3.72032e-17)
(-0.0223838 0.000372781 -2.43124e-17)
(5.53326e-05 0.000361058 2.65899e-18)
(5.48382e-05 0.000387711 3.10591e-18)
(6.2432e-05 0.000400789 -5.31431e-19)
(-0.0133062 0.00522235 -3.72119e-17)
(-0.0131161 0.00456525 -1.20172e-17)
(-0.0121686 0.00544933 5.42e-17)
(-0.111256 0.110748 4.91273e-18)
(-0.114149 0.113812 -1.11514e-17)
(-0.10243 0.109297 2.35206e-18)
(-0.00450873 0.00563988 -2.59176e-18)
(-0.00508119 0.00597481 -5.26984e-18)
(6.15097e-05 0.000188805 -2.45235e-18)
(6.55864e-05 0.000204235 9.3518e-19)
(5.2887e-05 0.000162543 -4.15401e-18)
(3.18431e-05 -3.89945e-06 -1.21328e-19)
(2.91644e-05 -3.07253e-06 -1.94876e-20)
(2.61791e-05 -5.1422e-07 -9.16336e-19)
(0.000210879 -0.000479682 1.82849e-18)
(0.00017927 -0.00046807 8.77517e-18)
(0.000926084 -0.00242335 9.1581e-18)
(0.000942952 -0.0025857 4.64761e-18)
(0.00113197 -0.00247255 -1.88344e-18)
(-0.0190838 -0.000592842 -8.79348e-17)
(-0.0214595 -0.00206162 -3.13167e-17)
(-0.00201745 0.00350896 -4.62889e-18)
(-0.00207182 0.0031685 1.15632e-17)
(2.13627e-05 4.27921e-07 -2.3141e-19)
(2.1515e-05 -1.07598e-05 -6.70321e-20)
(2.09872e-05 8.4119e-06 -2.07623e-19)
(7.36198e-05 0.00015619 2.28846e-19)
(6.83823e-05 0.000155713 3.96235e-19)
(6.90314e-05 0.000151961 -8.83976e-21)
(-4.09382e-06 -0.000153127 -1.90348e-18)
(-3.60504e-06 -0.000132232 -4.68447e-19)
(-6.17088e-06 -0.000175771 -1.47428e-18)
(-0.00912643 -0.0137388 9.07109e-18)
(-0.0101206 -0.0140487 -3.57057e-18)
(0.000733452 0.00165049 -4.97297e-18)
(0.000667568 0.00176684 1.10186e-17)
(0.000565041 0.00161876 -2.33276e-18)
(2.82056e-05 -0.000975687 -1.21765e-17)
(-1.51317e-05 -0.00108022 -1.68597e-17)
(0.000123479 -0.00107428 4.68529e-18)
(7.54095e-05 0.000547207 2.69016e-18)
(7.49301e-05 0.000548191 1.71332e-19)
(7.58946e-05 0.000548217 2.07959e-18)
(-0.0483241 0.0349566 5.5998e-18)
(-0.0459582 0.0390803 -6.55799e-18)
(-0.0398396 0.0301048 -2.99976e-18)
(-0.029275 0.0144891 2.15162e-17)
(-0.0295837 0.0165752 -4.07108e-17)
(-0.0108046 0.00771928 6.999e-18)
(-0.0101231 0.0085154 5.14742e-18)
(0.000247528 -0.000202263 1.11057e-18)
(0.000248925 -0.000215404 1.01772e-18)
(0.000251879 -0.000229565 -1.24538e-18)
(0.00644281 -0.0363709 7.27305e-18)
(-0.00910801 -0.031613 -1.6632e-17)
(0.000135747 0.000263824 8.52992e-20)
(0.000139963 0.000247527 2.55153e-19)
(5.21511e-05 7.07176e-05 5.99302e-20)
(5.07849e-05 3.42955e-05 1.16784e-18)
(4.89717e-05 2.64264e-05 6.30931e-19)
(-0.0070795 -0.00235653 3.24425e-17)
(-0.00596618 -9.81338e-05 -6.98747e-18)
(-0.00728745 -0.00403815 -4.90586e-18)
(2.10816e-05 5.98605e-06 -7.06578e-21)
(1.68974e-05 9.56924e-06 -4.78976e-20)
(2.85938e-05 7.57863e-06 1.21627e-19)
(6.96937e-05 -8.08694e-05 4.1646e-19)
(6.95131e-05 -5.63256e-05 -1.09326e-19)
(-0.01156 0.00596725 -6.76618e-18)
(-0.0111316 0.00674038 1.67587e-18)
(-0.0121632 0.00701829 -6.35275e-18)
(5.055e-05 -0.000195018 -2.99013e-19)
(5.41038e-05 -0.00019443 -4.85313e-19)
(4.7851e-05 -0.000181231 -7.68813e-19)
(-0.0149089 -0.0524282 -9.35174e-18)
(-0.0113958 -0.0556255 -1.68165e-17)
(-0.0118483 -0.0611069 4.77619e-18)
(0.00100232 0.000895562 1.85187e-18)
(0.000963229 0.000770034 2.2753e-18)
(-1.97966e-05 0.000525455 -5.80328e-19)
(-1.2713e-05 0.000520363 -1.60323e-18)
(8.18874e-06 0.000536926 4.36967e-18)
(2.56604e-05 6.18138e-06 -1.38553e-19)
(1.63397e-05 5.96829e-06 6.51812e-20)
(0.000330446 -0.000997979 -2.51044e-18)
(0.000372434 -0.00108894 -7.1115e-18)
(-0.0366762 0.00121334 2.4512e-20)
(-0.0374217 0.000893437 2.21995e-17)
(-0.0368699 0.00123384 -6.57255e-17)
(0.000768796 -0.000560247 3.55403e-18)
(7.42137e-05 -5.67511e-05 -2.95571e-19)
(7.90719e-05 -3.9491e-05 4.37143e-19)
(1.36645e-07 -0.000102932 4.53524e-18)
(-1.85953e-06 -0.00013664 1.28964e-18)
(-7.87209e-07 -9.40083e-05 3.25927e-18)
(-0.0125854 0.0197725 -3.68362e-18)
(-0.0126376 0.018369 2.36212e-17)
(-0.0112663 0.0192237 2.1382e-17)
(0.0294537 0.015961 2.22207e-18)
(0.0314776 0.0154158 4.76354e-18)
(0.0319946 0.0137361 -3.37488e-18)
(-6.14529e-06 -0.000141162 -2.13663e-19)
(-7.67801e-06 -0.000182977 -7.51442e-20)