/*--------------------------------*- C++ -*----------------------------------*\
| =========                 |                                                 |
| \\      /  F ield         | OpenFOAM: The Open Source CFD Toolbox           |
|  \\    /   O peration     | Version:  v2012                                 |
|   \\  /    A nd           | Website:  www.openfoam.com                      |
|    \\/     M anipulation  |                                                 |
\*---------------------------------------------------------------------------*/
FoamFile
{
    version     2.0;
    format      ascii;
    class       surfaceScalarField;
    location    "100";
    object      meshPhiCN_0;
}
// * * * * * * * * * * * * * * * * * * * * * * * * * * * * * * * * * * * * * //

dimensions      [0 3 -1 0 0 0 0];
oriented        oriented;


internalField   nonuniform List<scalar> 
27907
(
-9.69604e-05
-0.00022769
0.000324669
-0.000199957
0.000266285
-6.6325e-05
0.000301761
0.000142139
-0.000381534
0.000156354
-0.000296156
0.000139804
0.000163337
-0.000250985
8.76477e-05
-0.000123289
0.000244853
-0.000121563
-0.000162309
0.000181215
-1.89058e-05
-0.000858491
-2.29243e-05
0.000910109
-8.6809e-05
-0.000205813
0.000292634
-0.00034732
0.000604154
-0.000256494
-0.000899372
0.000459015
0.000441643
0.00012844
9.91164e-05
-0.000227556
0.000120986
-5.35355e-05
-3.82955e-05
0.000262584
0.000101301
-0.00036385
0.00011206
0.000651927
-0.000762144
-0.000138352
0.000287044
-0.00014869
0.000590369
-0.000437207
-0.000152943
0.00107194
-0.000306944
-0.000747605
-0.000981722
0.000936601
4.99773e-05
0.000172038
0.000378634
-0.000550431
-0.000107664
0.000180282
-7.26185e-05
8.35052e-05
7.24773e-05
-0.000153588
0.000147412
-0.000239235
9.18236e-05
-0.000168467
-6.39376e-05
0.000232409
-0.000324723
0.000185496
0.000139231
3.87043e-05
-0.00086562
-0.000262453
0.000147689
0.000114766
0.000190058
-0.000247523
5.74656e-05
0.000209798
-0.000271493
6.16974e-05
-0.000210974
2.24956e-05
0.00018848
-0.000313242
0.000504316
-0.000190977
0.000189756
-7.79514e-05
-0.000111804
2.48678e-05
1.39846e-05
-2.53301e-05
-2.89044e-05
0.000779862
-0.000749048
0.000156188
-0.000396166
0.000240012
0.000124516
0.000422541
-0.000545017
-1.87849e-06
-2.76007e-05
3.79924e-05
0.000195742
-0.000968451
0.000775814
0.000922926
-3.77063e-05
-0.000882362
0.000611813
-0.000233363
-0.000378251
0.000440457
0.000606954
-0.0010443
0.000427693
0.000312814
-0.000740155
-0.00109712
0.000269778
0.000839623
0.000619167
1.34179e-05
-0.000632207
-0.000220995
-1.27984e-05
0.000233796
-5.24165e-05
-0.00033625
0.000431106
-4.13643e-05
0.000188776
0.000578007
0.000157289
-0.000734335
0.000336368
-0.000683286
0.00095077
-4.40584e-05
-0.000892043
-0.000253168
-9.54048e-05
0.000348599
0.000182483
6.44506e-05
-0.000246933
-0.000274931
0.000687036
-0.000379594
-0.000310489
-0.000587625
0.000193127
-3.0691e-06
0.000281181
-0.000140257
-0.000140921
-3.88123e-05
4.53273e-05
-0.000215139
-0.000125671
0.000780364
-0.000955063
0.000176978
4.47872e-05
-0.000370439
0.000325683
-0.000420109
0.000132158
0.000287975
3.32494e-05
-0.000195559
-0.000304003
-6.17442e-05
0.000365774
0.000392491
-0.00086668
0.000474853
0.000305164
-0.000551065
0.000110935
0.000785564
-0.00089491
0.000567783
3.45777e-05
-0.00060216
-1.15743e-05
4.78562e-05
0.00108602
-0.000139074
-0.000941602
0.000203344
-2.08605e-05
-6.63449e-05
-0.000117699
0.000184044
0.00087043
-9.84664e-05
-0.000771178
5.44635e-05
0.000910085
0.000142896
-0.000198317
5.54213e-05
0.00105934
-0.000101875
-0.000940839
-0.000738491
0.00103103
-0.00028986
7.13753e-05
-0.000351468
0.000280104
-0.000211018
0.000199823
1.11952e-05
0.000265251
-0.000396984
0.000131752
-6.1704e-05
-0.000135777
0.000197482
0.000105679
0.000115391
-0.000221069
-0.000141234
-9.22885e-05
0.000233524
-0.000235078
0.000279888
0.000275462
-0.000132158
-0.000143304
-0.000229196
0.000300583
0.000464897
0.000246234
-0.000710672
0.000112438
0.000118198
-0.000230635
0.000101159
-0.000405137
-0.000110146
-6.83334e-05
0.00017848
-0.00105687
0.000321209
0.000139403
0.000136059
0.000990909
-0.00020814
7.03326e-05
0.000173297
-0.000243629
-0.000302181
0.000730191
0.000170196
6.69735e-05
-0.000237169
-0.000116717
0.00018705
0.000112612
-0.000341796
0.000310409
0.000762769
-0.00118392
0.000369939
0.000818229
-0.000192657
8.49936e-05
-0.000259549
0.000550859
-0.000291056
-0.000270201
9.48532e-05
0.000175348
0.000323188
-0.000410341
8.72079e-05
0.000483105
-0.000111868
-0.000371121
0.000116038
7.37173e-05
3.84394e-05
-0.000249412
0.000123548
0.000135479
-0.000259024
4.51976e-05
-0.000256215
0.000791421
-0.00100107
0.000211695
-0.000824284
3.95996e-05
0.000785036
-0.000227468
0.000110751
-3.25637e-05
0.000913232
-0.000825489
-5.89501e-05
0.00103482
-0.000196043
-0.000836084
-9.299e-05
-0.000132597
0.000225589
-0.000148673
0.000165496
-1.68224e-05
0.000124898
7.55687e-05
-0.000200466
0.000773244
-0.00065938
0.000159798
-0.000242292
8.24946e-05
-1.07941e-05
0.000180991
0.00067109
-0.000483129
-0.000187704
-0.000167477
-0.000537274
0.000705874
-0.000242251
2.20507e-05
0.000220201
0.000228758
-0.00018521
-4.35472e-05
-0.000282053
0.000154881
0.000127176
6.73724e-05
-0.000288364
7.45146e-05
-0.000274468
-0.000310809
4.7109e-05
0.000263706
-2.93721e-05
0.000202669
-3.19627e-05
5.08736e-06
6.44214e-05
0.000403301
0.000187263
-0.000150054
-0.000112398
0.000109316
7.09666e-05
-0.000128137
0.000395161
-0.000266975
-1.86511e-05
-0.000153393
0.00011349
0.000508659
-0.000621604
-2.21759e-05
-0.000329278
0.000324252
0.000287747
-0.000114632
-0.00106332
-0.000423855
0.000327524
9.63435e-05
-5.54397e-07
0.00026582
-0.000309444
0.000229964
7.94858e-05
-0.000590038
-0.000331636
0.000924354
0.000106327
0.000174856
-0.000357116
0.000800189
0.000857967
1.28767e-05
-0.000867119
-0.000136085
-4.41776e-05
0.000180262
0.000138241
-0.000232534
9.42933e-05
-0.000483422
0.000170277
-0.000273265
4.25246e-05
0.000230742
0.000108133
-0.000249365
-0.00022256
0.000256513
-3.39489e-05
0.000350749
-0.000700346
0.000350041
-0.000116878
-6.58166e-06
0.000131796
-7.25033e-05
-0.000120376
0.000192879
0.000745509
-0.000497474
-0.000247501
0.000204351
-4.45528e-05
-0.000112581
0.000691528
-0.00112528
0.000616846
0.000510036
3.98523e-07
4.18648e-05
-4.05671e-05
-0.00105475
0.000251504
0.000813494
-0.0001466
-0.00015077
0.000297391
-0.000104046
-0.000114803
0.000218849
-0.000442363
-0.000681184
-0.000101616
-0.000318466
2.97431e-05
0.000180056
-0.00100087
0.00099715
7.2965e-06
9.56208e-05
-0.000244182
0.000148562
0.000174389
0.000127455
-0.000301832
0.000239712
-0.00012004
-0.000119671
7.77198e-05
0.000119467
-0.000197186
0.000494994
0.000590944
-0.000224426
0.000120381
0.000137137
8.25404e-05
-0.000219677
-0.000310692
0.000164114
-0.000297896
0.000129433
-9.51102e-05
0.000254069
-0.000158957
-0.00027229
0.000665318
-0.000154045
-0.000269794
-3.21077e-06
0.000845966
-0.000839859
0.000834263
-0.000104626
-0.000701126
-0.000103923
-7.15365e-05
-0.000233406
1.08493e-05
-0.00121164
0.00039002
0.000832901
-0.000810368
0.00021304
0.000598171
0.000349447
-0.000246094
-0.000103346
0.000188102
0.000737959
-0.000922385
6.7541e-05
-0.000216214
0.00101211
-4.64718e-05
-0.000950118
8.66698e-05
-0.000936592
0.000853018
-0.00035286
0.000224764
7.60366e-06
-0.000318406
-0.000870444
0.000331783
0.000540308
-0.000338405
-0.000144907
-0.000525019
0.000471228
5.3903e-05
-0.000253767
0.00035495
-0.000348068
0.000520331
-0.000135222
0.000309623
6.40561e-05
-0.000397448
0.000348984
-0.00101957
-6.29041e-05
0.000383241
-0.000168884
-0.000214347
0.000692558
-0.000804029
-0.000378106
-0.000136838
0.000515137
-0.000394351
2.62735e-05
0.00036812
0.000102765
4.60035e-05
-0.000107117
-0.000417744
-0.000388436
-2.1614e-05
0.000410099
5.94465e-07
-0.000111781
-6.85802e-05
0.000177497
-0.000108916
-0.000274894
0.000611646
0.00104517
-0.000302533
-0.000726093
0.000364739
0.00011846
0.00100202
-0.000684188
-0.000316178
-0.000262825
-0.000155055
0.000418015
0.000242403
0.000162722
-0.000405105
-0.000273333
0.000133028
0.000140306
0.000310698
-6.82784e-05
0.000285101
-0.000161191
-0.000123909
-0.00113057
0.00052134
0.000630684
-0.000238047
0.000114759
0.000754418
4.01119e-05
0.000752912
3.81405e-05
0.000249118
-0.000287245
6.79175e-05
-0.000204002
-0.000317134
0.00020574
0.000111403
2.86079e-05
-0.00041699
0.000507944
2.22096e-05
-0.000530058
-0.000268499
-0.000146913
0.000415481
-0.000582941
-0.000356592
0.000949266
-0.00046625
0.000104784
0.000361509
-0.000687234
0.000799498
-0.00040221
0.000148476
-0.000193399
-3.59669e-06
0.000196996
-0.000176102
0.000288725
-4.8346e-05
2.03945e-05
-0.000832451
0.0010245
0.000533911
-0.00110664
1.27723e-05
0.000423377
-0.00039503
-0.000269304
2.70546e-05
-0.000123076
-0.00032707
0.000450319
-0.00098009
0.000955343
3.43636e-05
-0.00031898
0.000186469
0.000132516
0.000236327
-0.000112776
-0.000412394
0.000757404
-0.000343786
-1.60635e-05
-0.0002572
0.00018681
-8.38517e-05
-0.000102958
0.000116297
-0.000292388
-0.000478108
0.000604296
8.08911e-05
0.000140039
-0.00022093
-0.000313574
0.000576841
-0.000263163
0.000486622
-0.000656208
0.00017184
-0.000137907
0.000233529
0.000563956
-9.86766e-05
0.000315293
-0.000628758
-0.000968825
0.00030598
0.000664881
0.000622922
-0.000555538
-6.72053e-05
-7.59949e-05
0.000277951
-0.00020195
8.7695e-05
0.000197406
0.000231435
-0.000494107
0.000206779
0.000172063
-0.000378821
-0.00106555
0.00104772
-0.000162384
0.000470812
-0.000308345
0.000755611
0.000210426
-0.000958789
6.50964e-05
-0.000459398
0.000374105
-0.000648592
-0.000198913
0.000237065
-0.000153681
0.000177207
-2.35259e-05
-0.000296832
-0.000806391
-0.000973068
0.000260378
0.000714855
-6.29244e-05
-0.000184898
0.000247828
-0.000724184
-0.000246915
-0.000550184
-0.000259059
-0.000439926
0.000231738
-0.000268393
3.66566e-05
-3.86419e-05
0.000163539
0.00101055
-0.00102859
2.08843e-05
0.000454714
-0.000311591
-0.000143091
-5.98586e-05
0.000151952
-9.20933e-05
0.000153581
-0.000245867
0.000303198
0.000501014
-0.000802969
-0.00110306
0.00109421
1.66751e-05
1.84954e-05
0.000435692
-0.000453838
0.00038426
-0.000507138
0.000342366
-0.000929787
0.000128354
-0.000188212
-0.000146431
-0.000172543
-0.000303409
0.00023296
7.04552e-05
-6.61435e-05
-0.000234763
-6.95866e-05
0.00101427
-0.000933514
0.000407007
-6.0757e-05
-0.00046144
0.00024608
0.000215415
-0.000134055
-0.000139277
0.000122972
0.000561064
-0.000683893
-0.000190182
0.000293641
8.18745e-05
-0.000375484
-0.000657002
0.000171386
0.000486008
0.00018657
-7.8997e-05
-0.000897013
5.94666e-05
-0.000234567
0.000175108
0.000107555
0.000391006
-0.00039812
-0.000236881
0.000163096
7.37858e-05
-0.000318861
-0.000154564
0.000473532
0.00086753
0.000222909
-3.29201e-05
0.000544052
-0.000510828
0.00044752
-1.05728e-05
-0.000436896
-0.000446914
-0.000298203
0.000747109
-0.000143588
0.000632757
0.000146803
4.5429e-05
-0.000192232
-5.66454e-05
-0.000246755
-0.000176515
-0.000724893
0.000907741
-0.00017956
3.54887e-06
0.000176011
0.000207013
-0.000198033
-0.000119091
-0.000922168
-0.000110871
0.001038
5.96035e-06
-0.000172099
-5.54241e-05
0.000227528
-0.000877277
0.000466137
-0.00108686
-0.000113342
-0.00114671
0.00043395
0.000718144
-0.000753453
7.15926e-05
0.000682099
-0.000173072
0.000300539
9.31575e-05
0.000354418
0.000492539
-0.000473666
-0.000625408
0.000298481
-0.000179748
0.000558629
-0.00058312
0.000230317
-0.000919605
-0.000138795
-0.000119286
0.00012135
0.000280884
-0.000233769
-0.000465148
0.000270152
0.000195053
0.000312334
0.000142402
-8.54646e-05
0.000241821
0.000599654
-0.00047656
-0.000320998
-0.000547676
-4.24203e-05
8.60379e-06
8.17751e-05
-0.000159195
0.000218669
-0.000134696
-0.000102184
-0.00044434
0.000987454
0.00102409
-0.000278573
-0.000728724
0.000536898
-0.000972009
-0.00049762
0.00061164
0.000241232
-0.000509654
-0.000142908
-0.000181809
-0.000975801
0.000809917
-3.37306e-06
-0.000795235
0.000799083
-2.00768e-05
0.000942309
-0.000908744
-0.000298329
0.000159979
-0.000224264
-8.51731e-05
-0.000128759
0.000354547
-0.000225772
-0.000443438
0.000257014
0.00018644
-0.000295162
-0.000496107
0.000792973
0.000232615
-0.000282298
4.9689e-05
-0.000362223
0.000265286
0.000604014
-0.000405238
-0.000198548
-0.000538453
0.000276694
0.00026183
-0.000113852
0.00012643
6.9195e-05
-0.000195625
0.000126343
0.000223109
-0.000423434
0.000429677
1.37451e-05
-0.000377686
-0.000157266
0.000535157
-0.000303638
0.000169327
0.000134314
1.27465e-05
0.000218993
0.000801034
-0.000520885
-0.000279556
-0.000989403
0.000930804
0.000179803
-0.000448382
0.00026866
0.000425475
0.000601686
-0.00102341
0.000619995
-0.000474607
-0.000144967
-0.000190742
0.0002857
-9.49555e-05
-9.48829e-05
-0.000149426
0.000244311
-0.000373546
3.13073e-05
0.000342277
0.000399387
-0.000578878
6.18325e-05
-0.000215513
0.000729191
-0.000957579
0.000230121
0.000700069
-6.61128e-06
0.000943346
-0.000819373
-0.000120481
-7.72053e-05
0.00100272
0.000457644
-0.000221937
-0.000235665
-0.000483882
0.000727594
-0.000243027
1.60143e-05
-0.000195574
-8.30051e-05
-0.000182396
0.000265407
-0.000299562
-0.000667139
-0.000961179
0.000791442
0.0002158
-0.000115499
-0.000100301
5.04894e-05
-0.00042399
-0.000254945
0.000168145
0.000945503
-0.000214623
-0.000368131
0.000452636
-8.43806e-05
-0.000992776
-0.000102117
0.000309461
-0.000705166
0.000396026
0.000241014
-0.000777741
-0.000947799
0.000672985
0.000156011
4.3814e-05
-0.000199825
-0.000157862
8.92814e-05
8.01144e-05
0.000102624
-0.000182738
-0.000115029
-0.000107965
0.00013139
1.98552e-05
-0.000346769
0.000254972
9.181e-05
0.000235601
-0.000113319
-0.000122281
0.000449946
0.000173088
0.00024117
0.000696978
-0.000335842
0.00025038
0.0010219
-0.00100772
-8.21134e-06
-2.6412e-05
-0.000813825
0.00084334
9.06155e-05
0.000771309
0.00020367
0.000254009
-0.000860764
0.000902499
-4.01658e-05
-9.62696e-05
0.000715827
-0.000230526
-0.000212891
-0.000266347
0.000132664
0.000133684
-0.000162306
-0.000976874
0.000199256
-3.5918e-05
0.000404878
8.94893e-05
-0.000494206
-0.000954404
3.78199e-05
-0.000782283
0.000385187
0.000397826
0.000217462
0.000814098
-0.00102919
0.000737322
-0.000132
-0.000524639
0.000267119
0.000144899
-0.000411942
-0.000289869
-0.00029317
8.92274e-05
9.75823e-05
0.000381059
0.000290218
0.000265563
0.000560669
-0.000823799
-0.000218025
0.000155106
-9.61286e-05
-0.000135387
0.000231518
0.000287593
-0.000198446
-8.9144e-05
-0.000126863
0.000204583
-0.000415278
0.000149078
0.000266248
0.000302951
0.000551645
-0.00085323
-0.000759641
-0.000163533
-4.846e-05
-0.000920675
0.000866138
0.000137378
0.000440891
-0.000409537
0.000544635
-0.000332504
-0.00021195
-0.000544598
-4.14733e-05
0.000586414
0.000232745
-0.000551482
0.000597354
-0.000301767
0.000137172
0.0001646
0.000351841
-0.000586863
0.000806106
-0.000188346
-0.000436809
0.0001105
-0.000220647
-0.000482092
0.000750771
-0.000267823
-0.000277035
0.000182154
5.85032e-06
-8.21583e-06
-0.000933006
0.000205055
-0.000139146
-6.59084e-05
-0.000408537
0.000555499
-0.000146768
0.000661576
-0.000930741
0.000271142
0.000217537
-0.000293525
-0.000202136
0.000358357
-0.000244923
-0.000216472
-0.000216064
0.000186692
0.000370796
0.000661875
0.000297727
-0.000797727
0.000500874
0.000125854
0.000224896
-0.000125779
-0.000656826
0.00048508
0.00017181
-0.000223841
-0.000144233
0.000368113
-0.000116167
0.000378782
-0.000104093
-0.000197668
-0.000178101
0.000100168
7.79335e-05
-0.000269105
0.000904665
-3.34702e-05
-0.000111074
0.000324956
-0.000213861
4.05943e-05
0.000996838
0.00010944
0.00033149
0.000792003
-0.000612255
-0.000178528
1.95962e-05
-0.000235659
0.000120436
-0.000488425
-0.000177176
-0.000126458
0.000101232
-0.000645448
-0.000518579
0.000321096
0.000197566
0.000444587
-0.000220729
0.000156795
-0.000941399
0.00101035
-7.61632e-06
0.000134047
0.000130068
0.000816473
-0.000234835
7.74627e-06
0.000227094
0.000391627
-0.000868694
0.000483489
-0.000157919
-9.85873e-05
0.000256512
0.000481721
0.000138653
2.35874e-05
0.000738622
-0.000753908
0.00127641
-0.000901514
0.00078084
-0.000665578
0.000154334
-0.000285847
0.000131516
-0.000196319
0.000170823
2.54953e-05
-0.000209895
0.000116906
0.00043962
-0.000598624
0.000159197
0.000757011
-0.000231403
-0.00052483
-0.000376597
0.000366067
-8.45362e-05
8.59344e-06
7.95712e-05
6.13588e-05
-7.83307e-05
1.5957e-05
0.000122577
0.000109689
-0.000232266
0.000562021
0.000719182
0.000852811
-0.000845656
-5.70891e-06
0.000425026
-0.000131351
-0.00037502
-2.40248e-05
-0.000454323
0.000230532
7.51296e-05
-0.00045168
0.000863847
-9.79813e-06
-0.000995512
0.000136997
0.000648397
-0.000356601
-0.000291616
0.000415069
-0.000896111
0.000328812
0.000417069
0.000244388
-0.00026045
-0.000788608
0.000354732
0.000434374
-0.000367472
-0.000289272
0.000761401
-0.000258146
-0.000502797
-0.000478117
0.000746311
0.000204471
-7.66937e-06
-0.000196802
0.000689985
-0.000953717
0.000264281
-0.000900983
0.000161401
0.00074106
2.97757e-05
-0.000208514
0.000178739
-0.000164606
0.000191653
-2.7047e-05
-0.000250352
-0.000268144
-3.12946e-05
0.000210487
-0.000179189
0.000404586
0.00039693
-0.000859031
-0.000208613
4.4007e-05
-4.68133e-05
-0.000949266
-0.000185533
0.000103423
8.21105e-05
7.34846e-05
-0.000308311
-0.000713081
0.000809242
-8.8723e-05
1.10744e-05
0.000233315
0.000240223
0.000418191
-0.000238314
-0.000131728
0.000156574
2.52251e-05
-0.000178448
-0.00028663
-0.000249522
0.000172956
7.65664e-05
0.00080534
0.000976715
-9.77457e-05
-0.000874338
-0.000167454
0.000820324
0.00032145
-0.000766559
0.000789662
7.0922e-05
0.000123861
0.000146799
-0.000215443
6.13588e-05
-0.000138212
-0.000128134
-0.000624144
-8.00093e-05
0.00070492
-0.00014304
0.000172784
-1.23082e-05
-0.000845587
0.000859217
-0.000222741
-0.000114264
0.000337024
7.55465e-05
0.00093294
-0.000170624
8.6016e-06
-0.000849871
0.000189227
0.00066143
-0.00010431
0.000348552
-0.000233012
-0.000453179
0.000757522
0.000321451
-0.000639926
0.000318773
-0.0008505
0.000850219
0.00040118
-1.52095e-05
-0.000385937
-0.000227933
-7.0395e-05
0.000948544
-4.64976e-05
-0.00087556
0.00019648
3.39879e-05
-0.000230467
-8.22058e-05
-0.000114809
0.000197015
-0.000184369
0.000485574
-0.000301158
-0.000303488
0.000192431
-0.000118985
0.0001991
0.000622554
-0.000366578
-0.00042149
-0.000498563
0.000693705
-0.000194685
-0.000138655
7.23101e-05
0.000142278
-0.000765558
-0.000563435
0.000374712
0.000188866
0.000115687
-0.000909271
0.000796249
0.000133683
-0.000248884
0.000115201
-0.000640158
0.000161117
0.000479236
1.07011e-05
-0.000234957
-0.000263155
0.000392032
-0.00012885
-0.000129838
0.000163087
-0.000706702
0.000936295
-3.26222e-05
-0.000900755
0.000401226
-0.000534495
0.000133353
0.000233482
6.0347e-05
-0.000293824
0.000805242
-0.000174292
-0.000107754
-0.000377702
0.000958339
-0.000579562
0.000129722
0.000106608
-0.000464051
0.000789419
-0.00032414
-0.00111094
0.00113803
-2.03495e-05
0.00073819
6.66083e-05
-0.000292698
0.000344802
-2.71789e-05
-8.49684e-05
-0.000113197
0.000198166
-9.37835e-05
0.000223507
0.000759116
0.000188422
-0.000281981
-9.47452e-07
0.00028294
-0.000206458
-0.000322603
0.000529228
0.000163193
0.000124404
-1.50111e-05
-0.000181308
-0.000299238
0.000127145
0.000203059
-0.000258704
5.56485e-05
-0.00120077
0.000597853
0.000606832
-0.000143188
-0.000104335
0.00013766
-0.000475957
0.00105237
-0.0002119
-0.000837402
0.000132876
0.000435071
0.000187028
0.000114253
9.0802e-05
0.000796794
-0.000823661
0.0007043
-0.000850189
0.000146053
6.97998e-05
-0.000853331
0.00078592
0.000209117
-0.000314353
0.000155208
0.000172526
3.53005e-05
-0.000207826
0.000375162
3.4803e-05
-0.000409929
0.000194603
0.000107823
0.000127778
-0.000810217
-3.66981e-06
0.000815073
-0.000263215
0.000339149
-0.000468074
0.000354326
0.000113842
0.000104528
-2.01591e-05
-0.00015425
-0.000890193
0.000709986
-0.000388145
0.000726098
8.17638e-05
-0.000806348
0.000339461
-0.000131987
-0.00050796
0.000296025
-7.44767e-05
-0.000221535
0.000159807
6.08944e-05
-0.000220701
0.000328635
-0.00047282
-0.000437909
0.000836402
-0.000700066
0.000291754
0.000369393
-0.000158585
-0.000210781
0.000161631
5.66429e-05
-0.000218273
-0.000238724
-0.000324508
-0.000233508
1.67276e-05
0.000216782
0.000553082
-0.000192744
-0.00036021
0.000951539
-0.000190518
6.9113e-05
-0.000351079
-0.000208454
-6.48086e-06
0.000214938
0.000854845
-0.000521426
-0.00135498
0.000538185
0.000826376
-0.000129922
0.000298135
-0.000168209
-0.000130797
0.000160813
1.30656e-05
-0.000286156
-0.000107161
0.000176356
-8.97669e-05
-8.56924e-05
-2.21567e-05
0.000255643
0.000893135
-0.000922746
-0.000117186
-5.24849e-05
0.000169671
4.39758e-05
0.000165646
-0.000209622
-0.000106227
0.000290302
-0.000773531
3.34909e-05
-0.000490702
7.81047e-05
0.000172449
-0.000250552
-5.62109e-05
5.62109e-05
-0.000119995
-0.000176899
0.00029691
-9.06363e-05
-9.48969e-05
0.000279261
-0.000366813
8.75645e-05
-0.000216422
8.65849e-05
0.000394898
-0.000290184
-0.000104662
-8.08687e-05
-9.62721e-05
0.000177141
-0.00014167
0.000408859
-0.000299105
-0.000561612
0.000862335
0.000803419
-9.89514e-05
-8.6746e-05
-9.56981e-05
0.000182444
-7.13437e-05
0.000283775
-0.000212427
0.000190779
0.000116765
-0.000266189
0.000894307
-0.000287613
0.000167634
-9.04144e-05
6.21822e-06
0.000112957
0.00039505
-0.000397051
0.000147066
0.000250039
0.000179664
-0.000432805
-0.00081976
0.000115458
0.000654456
5.79973e-05
-0.000712084
-0.000276744
-7.00105e-05
0.000204405
-7.92448e-06
0.000107718
-0.000194464
-0.000188506
1.31516e-05
0.000175355
0.000435434
0.00016877
-0.000499761
0.000240403
-0.000172901
0.000289209
0.000746362
-0.000749293
0.000977941
-0.000950767
-2.05427e-05
0.000815805
-0.000952439
0.00014084
-0.000874122
0.000388358
0.000486583
0.000254038
0.000382687
-0.00074565
0.000364501
-0.000143687
-0.000253307
-0.00111209
0.000936221
0.00018712
-2.45106e-05
6.56885e-05
0.000983166
-0.000176152
-0.000788223
0.000106768
0.000112706
-0.000219474
-0.000867366
4.34322e-05
-6.0454e-05
7.18624e-05
-5.87941e-06
-0.000333104
-0.000134877
0.000558058
-0.000378925
-0.000178997
0.000299725
0.000668807
1.60053e-06
0.00015441
-0.000366178
0.000794602
-0.000918153
0.000873026
4.96365e-05
0.000458813
-0.000184517
-0.0002742
0.000579375
-0.00025232
-0.000326986
0.000207756
-1.02845e-05
-0.000708024
0.000719687
-0.000241689
8.18341e-06
0.00030076
-0.00015052
-0.000294633
0.000445353
6.4736e-05
-0.000273187
0.000309355
-0.00045967
-0.000262926
-7.29117e-05
-0.000699831
0.000359983
0.000229674
-0.000127159
-0.000102514
1.08075e-05
0.000161718
-0.000808869
-0.000227072
0.000109374
-0.000120529
0.000281115
-0.00016058
-0.000750718
0.000767099
1.34569e-05
-0.000206401
0.00012618
8.02215e-05
0.000947165
-0.000911235
-3.16005e-05
0.000921207
-0.000171397
-0.000732161
0.00036332
-0.000578301
0.000215171
0.00015192
-0.000880749
-0.000222522
-0.000118111
0.000340656
-4.52983e-05
0.00020693
-0.000972769
0.000125916
0.000103758
-0.000538049
-0.000658684
-0.000589878
0.000107008
-0.000286049
0.000214709
0.000901083
-9.86044e-05
-0.000775405
-0.000213495
0.000133362
8.01331e-05
0.00062286
0.000186217
-0.00080832
-0.000927016
0.000141028
0.000789871
-9.17596e-05
0.000997766
-0.000901808
0.00101302
-0.000194174
-1.28126e-05
0.00033032
-0.000317496
0.000277611
0.000105639
-0.00018778
1.58665e-05
0.000171914
-5.44676e-05
0.000383149
8.46887e-05
0.000160164
0.00010018
0.000394397
-0.000494484
0.000944731
0.00030522
3.17867e-05
-0.000336994
-1.89869e-06
-0.000186608
0.000257481
-5.44189e-05
-0.000385982
0.00021711
-0.000344646
0.000215902
0.000309817
0.000140808
-0.000450522
0.000626634
5.309e-05
-0.000679137
-0.000303615
0.000290812
-0.000946589
0.000535433
0.000412382
-0.000132184
0.00024032
-0.000195523
0.000208631
9.03778e-06
8.64796e-05
-0.000203666
0.000785305
-4.0577e-06
-0.000125301
-0.000260666
0.000282469
0.0003661
-0.000873774
0.000204574
0.000671085
-9.71539e-05
-0.000174336
0.00103546
-0.000945302
-7.91449e-05
-0.000291939
0.000114768
-0.000100318
0.000723883
0.000720428
0.000195738
0.000349078
0.000280065
0.000160901
-0.000440922
0.000257714
7.26164e-05
0.000245847
-0.000213603
-1.51127e-05
0.000228719
0.000191475
-7.65971e-05
-0.000114878
-0.000354538
-0.000328538
7.53272e-05
-0.000182488
0.00112852
-0.000664239
-0.000462042
-0.000219518
-5.97933e-06
0.000225501
0.000280406
0.000114537
0.000725946
-0.000265803
0.000797773
6.69653e-05
-0.000394667
0.000361964
-0.000764246
-0.000467329
-0.000136072
-0.000786923
0.000270229
-0.000659944
0.000390126
6.61246e-05
-0.000285638
-0.000260909
0.000186443
-0.000280153
0.000150234
0.000419879
-0.000273749
-0.000146067
-1.67137e-05
0.000485865
-0.000459029
0.000207195
-0.000418654
0.000211549
-0.000251432
0.000156324
0.000234451
-0.001011
0.000786928
-0.000248825
0.000395944
-0.000906859
0.000683932
0.000223788
-0.000169799
1.4434e-05
0.000155366
0.000765403
-0.000118022
-0.000646989
0.000181089
-3.91962e-05
-0.000141892
-0.000166003
-5.7349e-06
6.67166e-05
0.000214171
-6.00496e-05
1.56716e-06
-0.000488369
0.000391954
9.6479e-05
0.000465318
0.00058946
-0.000373449
-0.000499661
0.00074467
-0.000358757
-0.000385383
0.000880206
-8.77778e-05
-0.000825268
0.000327016
0.000674114
-0.000974239
0.000242287
-8.79514e-05
-0.000121563
-5.38961e-05
0.000283624
0.000349406
-0.000632684
-8.06191e-05
-0.000132875
0.000814668
0.000138198
-0.000559933
0.000227615
0.000180021
-0.000676902
0.000103774
-0.000292318
0.000188552
0.000121766
-0.00018347
-0.000261841
0.000545762
-0.000814646
0.000897604
-6.53734e-05
-0.000206382
0.00021709
-0.000866677
0.00088068
-6.44825e-05
-0.000698622
0.000519192
0.000179976
0.000146612
6.91876e-05
0.000161659
-0.000251448
8.97911e-05
0.00019089
9.91996e-05
-0.000290085
0.000194022
-0.000249441
0.000255842
2.17747e-05
3.40777e-05
-0.000787303
0.000604477
0.000447228
-0.00104794
0.00011744
-0.000249622
0.000762424
-0.00028259
0.000207524
7.50706e-05
0.000702967
-0.000472395
-0.000230024
1.18249e-05
-0.000541706
0.000530312
0.000244242
-0.000133563
-0.000110678
0.000123288
0.000110815
-0.000234102
-0.000768469
-2.99026e-06
-0.00018479
0.00038647
0.000375415
-0.000282576
-6.91026e-05
0.000351735
0.000353805
-0.000181724
0.000162731
-0.000114759
0.000165834
-0.000270313
0.000104482
4.50751e-07
-0.000126705
0.000158107
-0.000144674
0.000367903
-0.00016322
0.000143111
-0.000234038
9.09269e-05
0.000816362
0.000197034
-0.000990241
0.00085602
0.000204863
0.00018661
-0.000949884
0.000765526
-0.000155302
-7.59969e-05
0.000231301
0.000321553
-0.000237743
-8.37948e-05
0.000454593
8.54007e-05
0.00012927
-0.00021467
0.000559003
-0.000153965
-7.38389e-05
-0.000322295
-0.000167092
-0.000738775
-0.000202288
0.000714574
-0.000493539
0.000742828
-0.000597089
-0.00010176
-0.000826363
0.00098354
-0.000134048
-9.51372e-05
-8.2964e-05
0.000173541
0.000156393
0.000184066
-0.000340444
-3.02767e-05
0.000828981
8.10789e-05
-0.000877485
0.00037858
0.000960362
-0.000830426
-0.000125256
0.000550888
-0.000187385
0.000591172
-0.000687061
0.000220956
0.000241602
-0.000108975
-0.000132626
-0.000416298
0.000272669
-0.00034954
8.02634e-05
0.000269286
-0.000128392
0.000284798
0.000884025
9.71542e-05
1.27418e-05
-0.000316344
-0.000368102
0.00097601
6.8574e-05
-0.000323136
0.000202612
-9.56827e-05
0.000212998
-0.000117314
0.000264336
-9.00305e-05
-0.000174303
0.000743338
-1.6132e-05
-0.000350277
0.000620908
0.000157366
-0.000225624
6.82587e-05
0.000102927
0.000103714
-0.000206641
0.000129214
0.00020219
0.000231266
-0.00043344
0.000169296
0.000200115
-0.000122933
-8.56799e-05
-0.000367419
1.39768e-05
9.82335e-05
-0.000271124
8.10178e-05
0.000147741
-0.000238848
0.000348326
1.0179e-06
-9.7199e-05
0.000409168
-0.000540955
0.000110241
8.48291e-05
-0.00019507
0.000152702
5.17692e-05
-0.000229061
-0.000105154
0.000334237
1.09155e-05
-0.000886085
0.000876528
0.000785692
-0.000461378
-0.000323363
0.000171912
0.000380831
-0.000552681
8.12411e-05
-0.000165093
-0.000707081
-0.000164909
-0.000192728
0.000288618
-9.58852e-05
0.000988254
-4.66397e-05
-0.000934502
0.000713593
0.00027967
4.90012e-05
-0.000328658
-0.000893789
-0.000107018
6.17977e-05
0.000851318
-0.000906893
0.000752232
4.08267e-05
-0.000246319
0.000620809
0.000712057
-0.00016771
-0.000524782
-0.000531518
-0.000413835
0.000886028
3.61333e-05
-0.000249733
-0.000211069
-8.1608e-05
0.000292693
-9.27171e-05
-0.000139817
-6.22754e-05
0.000470138
-0.000260322
-0.000209774
-8.23657e-05
0.000874241
-0.000790891
0.000283055
-0.000329457
0.000123655
0.000444629
-0.000536419
9.19239e-05
0.000117221
0.000877487
0.00047853
-0.000772009
0.000264343
-0.000109457
-4.48219e-05
0.000273925
-0.000229079
0.000472636
0.000221571
0.000125662
-0.00020417
7.85076e-05
0.000200233
-0.000439036
0.000405347
-0.000840363
3.13714e-05
2.08529e-05
-0.000163834
9.55005e-05
0.000351625
-0.000459754
0.000108184
3.80521e-05
-0.000768117
0.000750703
-8.00875e-05
0.000233988
-0.000153895
-0.000450007
0.000424754
3.48843e-05
-0.000435638
-0.000153996
-0.000486953
-0.000346387
0.000842709
0.000267701
3.12282e-05
-0.000298924
0.000108586
-0.000821283
7.10512e-05
0.000767065
0.000782007
-0.00076579
0.000223797
5.13693e-05
-0.000275163
-4.28746e-05
0.000981683
-0.00025028
0.000150964
9.93177e-05
0.00012313
-0.000197453
7.43227e-05
0.000172313
0.00032107
-0.000493277
0.000786288
0.000455088
-0.000664487
0.00021073
-0.000958078
0.000481512
-0.000137681
-8.22016e-06
8.77297e-05
0.00012943
-0.000269684
0.00021695
0.000273998
0.000573811
-0.000846442
-9.61771e-05
-0.000110224
-5.91333e-06
-6.79395e-05
-0.000767881
0.000857373
0.000183671
7.03988e-05
0.00103087
-0.000986848
-3.70814e-05
-0.000118724
-0.00013226
0.000810223
-1.89521e-05
-0.000763697
-0.000615971
0.000364182
0.000251931
0.000125839
0.00105601
-0.000182843
-0.000869965
-0.000430359
-0.000439256
0.000874113
-0.000436446
-2.16521e-06
0.000205758
-8.62907e-05
-0.000259805
0.000923181
-0.000516559
0.000528851
0.000371979
-0.000230585
-0.000141389
-0.00010471
0.000514074
9.22723e-05
0.000692048
-0.000769813
0.00019192
0.000266983
-0.000540964
0.000163027
0.000339746
1.82066e-05
0.000146964
0.000527741
1.47191e-05
0.000430021
-0.000167212
0.000128016
0.000354767
-0.000412284
5.75748e-05
0.000954532
-0.000840852
-0.000110894
0.000330868
-0.000331801
0.000428565
-0.000328489
-0.000100013