/*--------------------------------*- C++ -*----------------------------------*\
| =========                 |                                                 |
| \\      /  F ield         | OpenFOAM: The Open Source CFD Toolbox           |
|  \\    /   O peration     | Version:  v2012                                 |
|   \\  /    A nd           | Website:  www.openfoam.com                      |
|    \\/     M anipulation  |                                                 |
\*---------------------------------------------------------------------------*/
FoamFile
{
    version     2.0;
    format      ascii;
    class       volScalarField;
    location    "100";
    object      nut;
}
// * * * * * * * * * * * * * * * * * * * * * * * * * * * * * * * * * * * * * //

dimensions      [0 2 -1 0 0 0 0];


internalField   nonuniform List<scalar> 
18758
(
9.67833e-05
0.00087571
0.00671699
0.0084756
0.0142911
0.0128928
0.00113299
0.00671816
0.000615268
0.000507337
0.00130969
0.00429312
0.00672097
0.000357154
0.0029065
2.40678e-05
0.000675901
0.00671994
0.00436491
0.000432215
0.00329602
0.00672585
0.00721503
0.00102141
0.00039833
0.00671791
3.54235e-05
0.0136661
0.00602761
0.00012048
0.000485658
0.0061484
0.00672353
0.00231352
0.000379243
0.00672342
0.00672451
0.00329759
0.00269973
0.000607064
0.0031261
0.000480849
0.00673702
0.00060604
0.000141351
0.00671604
0.00761692
0.00114981
0.000607705
0.00673477
0.00023293
0.0132534
0.00671706
0.00144169
0.0139509
0.00135857
0.00672427
3.10061e-05
0.00399029
0.000337934
0.000150409
0.00155219
0.000439127
0.00120459
0.00671696
0.0067241
0.0006138
0.00672343
0.00373385
0.013361
0.0133267
0.00195071
0.00673578
1.17691e-05
0.00672634
0.00385177
0.000452519
0.0141283
7.45961e-05
0.00576918
0.00839001
0.000274195
0.000317386
0.0135611
0.000398766
0.000787396
0.00234613
0.000468735
0.000166387
0.00428038
0.013199
0.00397455
0.0022619
0.000474742
0.00888691
0.00232441
0.000436261
0.00672775
0.00672993
0.00478096
0.000373171
0.0134227
0.000451734
0.000314669
0.00409234
7.32985e-05
0.00798501
0.0142473
0.00177934
0.00172631
0.00203668
7.10494e-06
0.00671818
0.00272762
0.00899967
0.00223014
0.0035645
0.00314046
0.00480977
0.0100575
0.000547134
0.00521246
0.00631646
2.02408e-05
0.00012072
0.000169646
0.000641001
0.000547572
0.00258967
0.0067341
0.000689464
3.19389e-05
0.000835949
0.000147163
2.14845e-05
0.000865536
0.000438952
0.000678891
0.00672966
7.18419e-05
6.72686e-05
5.101e-05
0.0034398
0.00202233
0.00338075
0.00440309
0.00242295
0.00386948
0.000495591
0.00972707
0.000239435
0.00336306
0.000797526
0.00672583
0.00956632
0.000857862
0.00548861
0.00117776
0.00245794
0.00672623
0.00672415
0.000340708
0.00199717
0.00210842
0.000153179
0.00683659
0.00376957
0.00622773
0.000136686
0.0128376
0.00889941
0.00672005
0.00212426
0.0142487
0.000344083
0.000844517
0.00783552
0.00126888
7.4463e-05
0.00271349
0.00671816
0.000232649
0.00220348
0.00675642
0.00147434
0.000853944
0.00601213
0.00315784
0.006733
0.00582699
0.000144216
0.000500865
0.00183703
0.000512096
0.000309599
0.000477554
0.000410123
0.000144322
0.00672273
0.00673587
7.80033e-05
0.0012176
0.000380532
0.000460142
0.00672031
0.000333762
0.000452612
0.00672598
0.00331682
0.00053647
0.00671989
0.000319928
0.00224013
0.000367276
8.25648e-05
0.00732529
7.73978e-05
2.55374e-05
0.00672123
0.0121232
0.00671996
0.00189418
0.000419843
0.00360377
0.000199276
0.000452567
0.000424122
0.000171934
0.0067538
0.000389796
0.00672441
0.000473079
0.00793016
0.000427088
0.00672133
0.00608469
0.00675359
0.00671598
0.00626395
0.000484786
0.00672318
0.000271039
0.0084201
0.00200598
0.00853666
0.000428408
0.000425548
0.00672352
0.00880887
0.000335328
0.00672288
0.00689794
0.000848484
0.000307191
0.00335939
0.000577723
0.000539238
2.65383e-05
0.000392554
8.45632e-05
0.00678848
0.000468548
0.00672104
0.000463661
0.000601905
0.000374313
0.00172124
0.00672005
0.00206205
4.93733e-05
0.00211643
0.00151977
0.000431609
0.00741578
0.0023783
0.00362263
0.00021669
0.000312702
0.000144125
0.00160373
0.00618465
0.00068312
0.000472586
0.00413307
0.000299575
0.000304633
0.00307859
0.000276973
0.00767983
0.00674798
0.00671646
0.000160157
0.00741582
0.000563521
8.5917e-05
0.000434512
0.000621121
0.00967214
0.00450235
0.000607919
0.0130641
0.00671603
0.0104467
0.000236032
0.00347629
0.000470034
0.000364776
0.00264016
0.00672304
0.00233508
0.00224204
0.00672458
0.00120764
0.00985923
0.000197634
0.0067217
0.00674828
0.00179169
0.00183911
0.00675326
0.0051458
0.00100241
0.000129523
0.000315083
0.0006702
0.000453858
0.000414792
0.000158158
0.00678593
0.00672601
0.000517008
0.000194135
0.00022154
0.00819281
0.000520487
0.00189922
0.00678517
0.000543088
0.0113
0.00675441
0.00671984
0.00675389
0.000969018
0.000190364
0.000391438
0.00497677
0.00199738
0.00673742
2.38208e-05
5.54873e-05
0.000389745
0.000100701
0.00218744
0.000497744
0.000103741
0.000518146
0.000284619
0.00494049
0.00411053
0.00139572
0.00672027
0.000384948
0.000916907
0.00693519
0.000798132
0.00674775
0.000458777
0.00379124
0.000838051
0.00237533
0.00425733
0.000394517
0.000430857
0.00253246
0.0034968
0.00114511
0.00504942
0.00247583
0.000382695
0.00126004
0.00160163
4.15711e-05
0.00336447
0.00672411
0.00463392
0.000399692
0.000568373
0.00319049
0.000578935
0.00624488
0.000532915
0.00467193
0.00671969
0.00322399
0.00395927
4.54856e-05
0.00243015
0.00672497
0.000479662
0.00992338
0.000481316
0.00671849
0.00828001
0.0055083
0.00380295
0.00671831
0.000405938
0.00548497
0.000573614
0.000115712
0.00646491
0.00596267
0.0141197
0.000619476
0.00672152
0.00127682
0.00360185
0.00671996
0.000713224
0.000505651
0.000149684
0.000472058
0.000514188
0.00672204
4.46786e-05
0.0105031
0.00639628
0.00837108
0.000405316
0.00163726
0.00671938
0.00672273
0.00200853
0.000396022
0.000659886
0.000923676
0.000260321
0.000824457
0.00126314
0.000465743
0.00408613
0.000543479
0.000157521
0.00128153
0.00468301
0.00622287
0.00672233
0.00514527
0.00046212
0.0022057
0.000535978
0.000385903
0.000165933
0.00281204
0.0040225
0.00144973
2.36145e-05
0.0052983
0.000195066
0.000220642
0.000341621
0.000711156
0.000463511
0.00035362
0.00177813
0.000334063
0.00291446
0.000382694
0.00147601
0.00247696
0.000583783
0.00061998
0.00102861
0.000475578
0.0067158
0.00118898
0.00673544
0.00258154
0.00484553
7.37996e-05
0.00672111
0.00178285
0.00084886
0.00672138
0.00672924
0.00671827
0.00885236
0.0020131
0.00863936
0.000648536
0.0015692
0.000365225
0.00672583
0.00672617
0.0124312
0.00672975
0.00672225
0.000373344
0.00672013
0.00022379
0.000368226
0.00672232
0.00530252
0.000427674
0.00140154
0.000742745
0.00944171
0.0012267
0.000197667
0.000771406
0.00672195
1.57119e-05
0.00176063
0.00201319
3.45556e-05
0.00248189
0.000469027
0.0037895
0.000867753
0.00200575
0.00430782
0.00424532
0.00287459
7.89012e-05
0.00672118
0.0098299
0.000506666
0.000475882
0.00674239
0.00020591
0.011005
0.00322393
0.00421746
0.00269558
0.00270391
0.0041395
0.00672858
0.00672634
0.00626936
0.00116096
0.00705104
0.00521878
0.000285997
0.00139277
0.00672103
0.00673369
0.00110956
0.00672223
0.00151739
0.000962244
0.00272987
0.000441098
2.36746e-05
0.00672071
0.0115505
0.0131221
0.000232477
0.000315788
9.90271e-05
0.000525266
0.00103827
0.000904653
0.0134656
0.00101838
0.000694688
0.00322517
0.00167733
0.000547211
4.72033e-05
0.000415952
0.00109439
0.00120458
0.00408054
0.00042362
0.00035907
0.00154711
0.00010542
0.00195535
0.00896035
0.00135345
0.00522695
0.00671845
0.00672027
0.0132842
0.00947122
0.00289056
0.000347753
0.000346391
0.007444
0.0035753
0.00171747
0.000529258
0.00533263
0.0144211
0.000517817
0.00330774
0.000563859
0.0134568
0.00317699
0.00242364
0.00136265
0.0029816
0.00671854
0.00395802
0.000468332
0.0140546
0.00853279
0.0028628
0.00672254
0.000513852
0.00672607
0.00672364
0.00105575
0.00285219
0.000379318
0.000622498
0.000146317
0.0136922
0.000229444
0.006721
0.00046351
0.000206241
0.0135613
0.000632563
0.000539434
0.000432591
0.00322058
0.000349924
0.00833263
0.00178542
0.00675754
5.02145e-05
0.0136481
0.00014166
0.0067201
0.00281873
0.000295045
0.000408913
0.00673496
0.000693605
0.00207039
0.00216668
0.00117985
0.00672397
0.00838183
0.00672633
0.000355274
0.00467121
0.00041811
0.0014195
0.000453835
0.00736757
0.000494315
0.00244798
0.00147793
0.00542559
0.00806843
0.00151755
0.00490892
0.00431428
0.000377984
0.00672593
0.000380479
0.000440252
0.000203848
0.00672138
0.000655082
0.000442206
0.012058
0.00630402
0.0011779
0.000492673
0.000410865
0.000411383
0.00183848
0.00676684
0.00672706
0.0018232
0.000475677
0.0067222
0.000450063
0.00672256
0.0067379
0.00671977
0.0142936
0.00165175
0.00672567
0.00052328
0.000482118
0.0067217
0.0019893
0.00410389
0.00679056
0.000395953
0.000207913
0.00155355
0.00143721
0.000430193
0.000195939
0.000381808
0.00731989
0.000413871
0.00843306
0.000535691
0.000452801
0.00171402
0.00255245
0.00675529
0.0133963
0.00058547
0.0067173
0.00675824
0.00672121
0.00671968
0.000602758
0.00671983
0.000142882
0.0138478
0.00673332
0.00165859
0.00508617
0.000617153
0.00778502
0.0067203
0.0137117
0.00106753
0.00370563
0.00673265
0.00672762
0.000453062
6.83967e-05
0.0017612
0.000235323
0.011786
0.000501867
0.00672213
0.00042892
0.00165226
0.000623249
7.38447e-05
0.000399897
0.000517641
0.000872657
0.000459124
0.00174842
0.000440143
0.00671985
0.000905811
0.00220902
8.32492e-05
0.000407509
0.00238993
0.00444758
0.00132279
0.00672289
0.000522341
0.00109297
0.00671988
0.000628079
0.000327273
0.000537132
0.000404967
0.00565324
0.00784735
0.00672233
0.00672409
0.00402886
0.00672446
0.000299
0.000443296
0.00140398
0.00672238
0.000390172
0.00672852
0.00385445
0.000990102
0.000315385
0.000152478
4.05479e-05
0.000224352
0.00672244
0.000564615
0.00827487
0.0067221
0.000437477
0.00141776
0.0137026
0.000927802
0.00930003
0.00671983
0.000704645
0.00672587
0.000500452
0.00325626
0.00160167
0.0011403
0.00672108
0.00678912
0.00672118
0.0105919
0.00029197
0.000889267
0.0138971
0.00312722
0.000664519
0.000882916
0.000541545
0.00553228
0.000850873
0.00672712
5.3499e-05
0.0067222
0.00319429
0.00085607
0.0028219
0.00650075
0.00046272
0.00207278
7.34843e-05
0.00117015
0.00515453
0.000322103
0.0067198
0.000528111
0.000942478
0.00672359
0.0138525
0.00992152
0.0067223
0.00270875
0.000683275
0.000374815
7.73682e-05
0.00352403
0.0111652
0.000254967
0.00671945
0.00672992
0.0137563
0.00345143
0.00374171
0.000922058
0.00327021
0.0093093
0.00033892
0.000505945
0.0127701
0.000544592
0.00037916
0.00154862
0.00671944
0.0067161
0.00671914
0.00241612
0.0028716
0.000343911
0.00672245
0.00672642
0.00109607
0.00531321
0.000605269
0.000608156
0.000242595
0.0133415
0.000453995
0.000423937
0.000352078
0.00406563
0.000438639
0.00432216
0.00592596
0.000636221
0.00633835
0.00606742
0.00267461
0.000974194
0.000144479
0.0126421
0.00538277
0.000130871
0.000206818
0.00626671
0.0067203
0.000410135
2.2554e-05
0.000341403
0.00672013
0.00336963
0.000633091
0.00808851
1.92284e-05
9.35656e-05
0.00563543
0.00178114
0.000342979
0.000360405
0.0023673
0.000208112
0.00672522
0.00142247
0.000276227
0.00672184
0.00672138
0.00135903
0.000564657
0.00671925
0.00181119
0.00673717
0.00493275
0.000350799
0.00587756
0.00675177
0.000126799
0.00672466
0.000454146
0.000559277
0.000289633
0.00672543
0.00239345
0.00012811
0.00043741
0.00086589
0.00341551
0.000376264
0.00404875
0.00283056
0.00848185
0.000236094
0.000198344
0.00672237
0.000815202
0.00672223
0.000613355
0.00673431
0.000352606
0.00947551
0.00671974
0.00411316
0.000571931
0.00378322
0.00931877
0.00311242
0.000576625
0.00190181
0.00672315
0.00673449
0.00671986
0.000425888
0.00101549
0.000219975
0.00154546
0.00855158
0.00672966
0.00638069
0.00673816
0.00622281
0.0144326
0.00671954
0.000376797
0.000938213
0.00673196
0.00514996
0.0067221
0.00809324
0.00214808
0.0067238
4.24172e-05
0.000621274
0.00672012
0.000390223
0.000407989
0.00672216
4.16821e-05
0.00671932
0.000311398
0.00910723
0.000460902
0.00673208
0.000353818
0.000431424
0.000325486
0.000609628
0.000519754
0.00399307
0.00107542
0.000495373
0.00672716
0.00675985
0.0067211
0.000695
0.000424197
0.000665792
0.00465159
0.000901282
0.000516672
0.00328395
0.0003781
0.00604774
0.00672621
0.00131633
0.000150406
0.0067235
0.0031455
0.00672554
0.0034225
0.00672654
2.97273e-05
0.0129522
0.00672287
0.00153632
0.0067197
0.000443738
0.00671949
0.0044213
0.00114712
0.0067257
0.00676404
0.00672238
0.000252351
0.00671933
0.00413386
0.0080136
0.00114164
2.43723e-05
0.000139892
0.0133106
0.00013103
0.00672602
0.00672894
0.000578419
0.00455891
0.000503745
0.000454001
0.000591086
0.000573229
0.00359147
0.000428127
0.00136335
0.00672165
0.000308754
0.0137931
0.000244516
0.00671895
0.00868507
0.000654487
0.00183028
0.00102535
0.000402914
0.00672272
0.00675828
0.00678418
0.000552107
0.00672232
0.00537541
0.0119996
4.20737e-05
0.000689563
0.00672877
0.00021556
0.000338905
0.00672152
0.000591472
0.000377018
4.66804e-05
0.000502966
0.00300811
0.00148591
0.000626232
0.00671961
0.000215808
0.00196482
0.000257603
0.000433802
0.000447907
0.00552508
0.000529507
0.0129078
0.00863292
0.000351258
0.000203196
0.00240453
0.0067225
0.00672652
0.00187733
0.000334927
0.00672331
0.000961802
0.000331854
0.00054419
0.00671973
0.00672016
0.00403575
0.00672587
0.00034647
0.0039054
0.000504408
0.00672446
0.00265863
0.00031962
0.00672288
0.000862327
0.00677007
0.000390955
0.00150805
0.00531576
0.0103472
0.000214242
0.0123313
0.00314101
0.000492281
0.00528397
0.00812024
0.0105646
0.00673949
0.000538272
0.000331033
0.0067221
0.00671909
0.000885603
0.00374044
0.00672094
0.000278508
0.000392546
0.00671992
0.000769195
0.00672281
0.00115725
0.000413077
0.00672319
0.011107
0.000682843
0.00672008
0.000408729
0.000177631
0.000482723
0.0067262
0.000338518
0.00268185
0.0141251
0.0058058
0.00673362
0.00373673
0.0067169
0.0128617
0.0067202
0.000432638
0.00736486
0.0115477
0.00296826
0.00167698
0.00672122
0.00103126
0.000824366
0.000436352
0.00671558
0.0011986
0.00672496
0.0038873
0.000253604
6.7822e-05
0.000251212
0.00671981
0.00108947
0.000429988
0.00223889
0.000222124
0.0063809
0.00596465
0.00742835
0.00672128
0.0067345
0.00505259
0.0130824
0.0053721
0.00640243
0.0141232
0.00117786
0.00658639
0.000820023
0.00671763
0.00671958
0.000741363
0.00156913
0.00672515
0.00858011
0.00768427
0.00671942
0.00904939
0.000416168
0.00477616
0.00299133
7.14248e-05
0.00672477
0.000864402
0.000377966
0.00671994
0.00042603
0.00267728
0.000475082
0.00406361
0.00390172
0.000438321
3.01707e-05
0.00169417
0.00540671
0.00255531
0.00672105
0.000281385
0.0014594
0.0126012
0.00671705
0.00340583
0.00177691
0.0067259
0.000198559
0.00671672
0.00240633
0.00616595
0.000327274
0.000630626
0.000550751
0.000508418
0.00181903
0.00149095
0.000477989
0.000399788
0.00127526
0.00546474
0.00672771
0.00672289
0.00195333
0.00671932
0.000331533
0.000735254
0.000377291
0.00671979
0.000845909
0.00304462
0.00110067
0.00672016
0.000300845
0.00233218
0.00673219
0.00705295
0.0117516
0.00111692
0.00672157
0.0021802
0.000749627
0.00377055
0.000206642
8.44718e-05
0.0075377
0.000949288
0.00874168
0.00243771
0.00422351
0.00671955
0.00896371
0.00480218
0.00672094
6.03686e-05
0.00485906
0.00672382
0.00672129
0.00160037
0.000539862
0.00672387
8.07636e-05
0.0111841
0.00147261
0.00671849
0.00203682
0.00826653
0.00679042
0.000399715
0.00672618
0.00671951
0.00409633
0.00672654
0.000477656
0.00385861
0.00446228
0.00582008
0.00672662
0.000316155
0.00672176
0.00486913
0.0032167
0.00524394
0.000386667
0.00106625
0.000197916
0.00151162
0.0032153
0.00672398
0.0067249
0.0102412
0.00457976
0.000429933
0.000128957
0.00924115
0.0067198
0.00672467
0.00966561
0.00672221
0.000155972
0.00039491
0.00213812
0.0111147
0.0106435
0.000293726
0.00199846
0.000828721
0.000377623
0.00673239
0.000748754
0.00672051
0.000273178
0.006722
0.00608139
0.00119868
2.47279e-05
0.000104737
4.22391e-05
0.00672499
0.00882919
0.00672372
0.0144626
0.000532755
0.00671887
0.00673467
0.00559391
0.000438416
0.000138428
0.0140927
0.000708796
0.00559754
0.00671787
0.00484275
0.002106
6.6203e-05
0.000336911
0.00672283
0.00672521
0.000741957
2.46704e-05
0.00511259
0.000387659
8.46417e-05
0.00497662
0.00152135
0.00104812
0.000489503
6.25753e-05
0.0011
6.76555e-05
0.00675123
0.00672128
0.00339487
0.000449663
0.000426916
0.000983102
0.00672599
0.002735
0.000111135
0.000122559
0.0136673
0.00673101
0.00775514
0.0105167
0.000407261
0.00671726
0.00758349
0.000432836
0.00672019
0.000665311
0.00711145
0.00156537
0.0067202
0.000420935
0.00672573
0.00260624
0.000330091
0.00405063
0.00672603
0.00672539
7.06388e-05
0.000921196
0.00299863
0.000427963
0.00697917
0.000255255
0.00672554
0.00673131
0.000289398
0.00173729
0.00544022
0.00445041
0.000280729
0.00398505
0.000399308
0.00766998
0.00280587
0.00462146
0.00356641
0.0143929
0.0067339
0.0122854
0.000173968
0.00675037
0.00988565
0.000447177
8.83344e-05
0.00672858
0.000371072
0.0067202
2.16229e-05
0.00671663
0.000602601
0.00266785
0.00672583
0.00752987
0.00269993
0.00350176
0.00143061
0.00689709
0.00672124
0.00672203
0.00618132
0.00568853
0.00677916
0.0067222
0.00169302
0.00672203
0.00672359
0.000502933
0.00672344
0.000442641
0.00675555
7.37855e-05
0.00398073
6.31249e-05
0.00710533
0.00112906
0.000505316
0.00673016
0.0067197
0.00306239
0.00399015
0.00889424
0.00387528
0.00672589
0.00672847
0.00110203
0.00672143
0.000630764
0.000644738
0.00816209
0.0126164
0.00341608
0.00812799
0.00678281
0.00603761
0.00658612
0.0119238
0.000627292
0.00217101
0.000695633
0.00673233
0.00357743
0.000415327
0.000472418
0.000843651
0.00316499
0.00672718
0.00671711
0.00796943
0.000430954
0.0032483
0.00671657
0.000662492
0.00672209
0.0018708
0.00179186
0.00533647
0.0083957
0.000463703
0.000458617
0.00521386
0.000515794
0.00672188
0.00551374
0.00677544
0.0061543
0.00255092
0.0050893
0.000270049
0.00691101
0.000331497
0.000435039
0.00147967
0.000468084
0.00227936
0.0019517
0.00820023
0.00705314
6.64328e-05
0.0127475
5.8277e-05
0.00051191
0.000539527
0.000740616
0.00673046
0.000291596
0.000965968
0.00672153
0.00786562
0.00673833
0.00309087
0.00672368
0.014492
0.000619824
0.00671963
0.00535691
0.0061838
0.000115625
0.000103527
0.000533233
0.00250094
0.00477874
0.0067204
0.00620554
0.000461257
0.000118124
0.00671622
0.0105089
0.000680844
0.0133784
0.00672023
0.0031347
0.000157779
0.00673166
0.00672213
0.00464829
0.00631194
0.0139438
0.00161862
0.0067191
0.00203532
0.00672118
0.0135802
0.000479576
0.00672131
0.000484896
0.00506827
0.00182173
0.00873186
0.00676741
0.00641833
0.00672117
0.00677566
0.00672942
0.00341168
0.0067153
0.00200587
0.000467587
0.000514472
0.00671984
0.00265229
0.00140452
0.0141187
0.00188124
0.000205786
0.00946409
0.013525
0.00486822
0.000697428
0.00672009
0.00573988
0.000645151
0.00061957
0.00883232
0.000439488
0.000365924
0.00266885
0.000989216
0.00672194
0.00862652
0.000169126
0.0066902
0.00374596
0.000411291
0.00104571
0.00671822
0.000704963
0.000680202
0.00672938
0.00784355
0.00672227
0.000716269
0.00672025
0.00039947
0.000295209
0.000371608
0.000591237
0.000472898
0.000615255
0.000806436
0.000752452
0.00676351
0.0130081
0.000391448
0.0067258
0.000318608
0.000469056
0.000824813
0.00613041
0.00182017
0.00672332
0.00674804
0.00396107
0.0100677
0.00101373
0.00672114
0.00231913
0.00672203
0.00672166
0.000639251
0.0139271
0.00204635
0.00212527
0.00707614
7.14012e-05
0.00359755
0.00236747
0.0136464
0.000506324
0.00671639
0.00106885
0.00287804
0.00313648
0.00070763
0.00179728
0.000533329
0.000375281
9.9143e-05
0.00446493
0.0103711
0.00672205
0.00819947
0.00672586
0.0014114
0.00845363
0.00672327
0.00581507
0.00672602
0.000902885
0.000450342
0.0067197
0.000931106
0.00245893
0.000706646
0.00026328
0.00141926
0.00672106
0.00608693
0.0067343
0.000346288
0.000448517
0.000591189
0.00672269
0.00512913
0.00862879
0.00671917
0.00671924
0.00197663
0.000409653
0.000563667
0.000525768
0.000803778
0.00672678
0.00117965
0.00246921
0.00161389
0.0123324
0.00672317
0.000311511
0.0105878
0.000351408
0.00582904
0.000429379
0.00676029
0.00672418
2.84457e-05
0.000316009
0.000437583
0.00672494
0.00621947
0.000652902
0.000455762
0.00391201
0.0011552
0.00511198
0.00255106
0.00671981
0.00388557
0.00902082
0.00671731
0.00611828
7.60364e-05
0.000926183
0.00672795
0.00863534
0.00818211
0.00675129
0.00672931
0.00531617
0.00198569
8.77511e-05
7.30142e-05
0.000398913
0.00672488
0.00123045
0.000457067
0.006728
0.013156
0.000387365
0.00508242
0.000477736
0.000503257
0.00672145
5.60656e-05
0.0067231
0.000128694
0.00159141
0.00106055
0.00671602
0.00502808
0.000506671
0.00326223
0.0111727
0.000503101
0.00327411
0.00345639
0.00671994
0.00673076
0.0114745
0.00672584
0.000270225
0.00672123
0.00673395
0.000432092
0.0117327
0.0067194
0.00672157
0.00457202
0.00162692
0.00071943
0.000858267
0.00455114
0.00125854
0.00671867
0.000454815
0.0131884
0.0020475
0.000800183
0.00826799
0.00062178
0.00212428
0.000504334
0.00673125
0.00344068
0.000716308
0.00672122
0.000474774
0.00426427
0.00631849
0.00395899
0.00919735
0.00308324
0.000907326
0.0132088
0.000554319
0.001184
0.00671917
0.00705778
0.00672597
0.000506178
0.00673806
0.000338339
0.000545542
0.000466385
0.00132151
0.00239096
0.000794799
0.00672456
0.00620188
0.00480411
0.0067216
0.000956596
0.00671987
0.000448154
0.00661836
0.000155415
0.000500085
0.00193414
0.00274854
0.0113385
5.22048e-05
0.00671934
0.00100785
0.00672087
0.00671834
0.00672577
0.000794089
0.00476922
0.00147655
0.00170148
4.75031e-05
0.00308225
0.000505326
0.00672026
0.000163566
0.00638554
0.00275061
0.00124928
0.0123818
0.00354606
0.000721357
0.000773423
0.00673041
0.000614186
0.00540809
0.00303168
0.00672482
0.00672442
0.000923962
0.0067203
0.00672758
0.000429912
0.00109983
6.21965e-05
0.00282464
0.00672081
0.00684056
0.00672038
0.000435718
0.00575749
0.00671713
0.000647107
0.00672861
0.0141283
0.00482043
0.000774443
0.00556938
5.37572e-05
0.000530244
0.00140211
2.95158e-05
0.00672243
0.000207384
0.00239312
0.000838752
0.00672471
0.00672183
0.000429055
0.000449252
0.0107421
0.000396555
0.00021613
0.000644878
0.00291259
0.000606534
0.00216203
0.0116434
0.0110509
0.00203609
0.00578472
0.00671561
0.00389935
0.00751275
0.00672236
0.00851374
0.00672256
0.000865051
0.00671591
0.00413853
0.00461111
0.00493433
0.000400742
0.000181813
0.000414677
0.00497153
0.00672401
0.00671575
0.00671974
0.00671837
0.00672548
0.00672351
0.0115919
0.0082989
0.00891611
0.00118319
0.00633694
0.000461241
0.0133145
0.00578253
0.000496097
0.006722
0.00195064
7.70823e-05
0.00176705
0.00426648
0.00254428
0.00170834
0.00671655
0.00103234
0.00894573
0.00672251
0.00935375
0.00491389
0.00672165
0.0118198
0.00653027
0.000385985
0.00672317
0.00837983
0.00675732
0.00482019
0.000441928
0.00674295
0.00672207
0.00437421
0.00671748
8.75598e-05
0.00589733
0.000421366
0.00672035
0.00672432
0.00672812
0.00326691
0.000507265
0.00218456
0.0117934
0.00672139
0.00675196
0.000327772
9.22156e-05
0.00236086
0.0102284
0.0143025
0.000875556
0.00840226
0.00672187
0.0035073
0.000413283
0.00675152
0.00811042
0.0080253
0.00671953
0.00151814
0.00528314
0.00237416
0.00185478
0.000631949
0.00672273
0.00052957
0.000216238
0.000548781
0.00082835
0.00672037
0.00244465
0.00585286
0.00672278
0.0102756
0.00671513
0.00672242
0.000585954
0.00127829
0.000463969
0.00981429
0.00671999
0.000196487
0.00404837
0.00368523
0.00251595
0.00672413
0.00672295
0.00672829
0.00672167
0.00672329
0.00155909
0.00304637
0.00295409
0.00672485
0.00226197
0.0111617
0.00294211
0.00210947
0.0104273
0.00672418
0.000378135
0.00686253
0.00036952
0.0131548
0.000272145
0.0132152
0.000628074
0.0038248
0.00576189
0.00073281
0.00559171
0.000358297
0.00115065
0.00672472
0.00552323
0.00278224
0.00674501
0.000321502
0.00553297
0.00674461
0.00669083
0.000255163
0.00671849
0.00459613
0.0067388
0.00329657
0.00872166
0.00253075
0.00672075
0.00473932
0.0067222
0.0013427
0.000171035
0.00154913
0.000337912
0.000181401
0.00672397
0.010746
0.000869768
0.00527417
0.00557718
0.00674774
0.000596311
0.00671968
0.00203785
0.00178018
0.00934313
0.00398137
0.00671972
0.00157457
0.00233254
0.000720616
0.00672787
0.00354459
0.000502577
0.000180545
0.000758259
0.0134758
0.000411315
0.000856149
0.00666891
0.00310347
0.00672079
0.00118807
0.00973709
0.000647688
0.000365675
0.00267491
0.0067199
0.000309173
0.00024396
0.000591871
0.00672668
0.000242058
0.00673118
0.000346856
0.00023013
0.000497153
0.0130962
0.00672032
0.000566557
0.000499124
0.00391796
0.000317074
0.00512809
0.00104031
7.04543e-05
0.000381759
0.00489987
0.00672634
0.00672483
0.000434349
0.00671859
0.003684
0.00523936
0.00672112
0.00675454
0.000212538
0.00671596
0.000373459
0.0104913
0.00164058
0.00673448
0.00674833
0.000268885
0.000253788
0.00672222
0.00518921
0.000120232
0.0067262
0.00671739
0.0108194
0.0106545
0.00671894
0.00034222
0.000226282
0.00672247
0.00395405
0.00368215
0.000307962
0.00672482
0.00227129
0.014277
0.00672532
0.000730616
0.00750886
0.000510693
0.00465538
0.00672499
0.000665576
0.0112867
0.00880134
0.00112881
0.000589436
0.00147512
0.00068834
0.00258405
0.00478745
0.0105451
0.00757422
0.00248888
0.00314687
0.000533176
0.00447342
0.000343535
0.000945848
0.00256497
0.00675769
0.00672372
0.00592014
0.00456436
0.00671951
0.000460442
0.00800076
0.000433932
0.00672664
0.00672177
0.0016056
0.00110186
0.00117002
0.00672295
0.000664072
0.00606801
0.00671758
0.00429175
0.000682505
0.000460519
0.00672226
0.000559525
0.00175862
0.00104202
0.000369597
0.000420244
0.00997458
0.000434374
0.000158894
0.00487907
0.00671961
0.00422473
0.00140864
0.0124002
0.0010255
0.00067984
0.00672332
0.0082107
0.000653047
0.00673021
0.000797538
0.00194103
0.013665
0.000450097
0.000796333
0.00017279
0.000390438
0.00672297
0.00672421
0.00672501
0.00122766
0.00853888
0.000600451
0.00672173
0.000458704
0.0048961
0.012502
0.00481204
0.012262
0.000821322
0.0111716
0.000533078
0.000138431
0.00413291
0.00672573
0.00671972
0.0134464
0.00449549
0.000599013
0.00281764
0.00671558
0.00300119
0.000313223
0.00490421
0.000433482
0.00672132
0.00514509
0.00687882
0.00112391
0.00478957
0.00575081
0.00672349
0.00143736
0.00148023
0.00181459
0.00385271
0.0031191
0.000452966
0.000789838
0.0022961
0.000271756
0.000248855
3.61576e-05
0.000397513
0.0067351
0.00420562
0.00148591
0.00941249
0.00546792
0.00672041
0.00673014
0.00673895
0.0067157
0.00388295
0.00671857
0.000208859
0.00816494
0.000736385
0.00979931
0.000693567
0.00672439
0.00672221
9.54344e-05
0.00672388
0.00236015
0.00672074
0.00683042
0.00183265
0.00671879
0.00246231
0.00673128
0.00598111
0.00672593
0.00672115
0.00614975
0.000284211
0.00195367
0.00523188
0.00039255
0.00672816
0.00694556
0.000451596
0.000413235
0.000488787
0.00160763
0.00672181
0.0101743
0.00278765
0.000458014
0.00119941
0.00673503
0.000354261
0.00672081
0.0118386
0.00673935
0.00598242
0.0143593
0.000468151
0.00226674
0.00671802
0.000440105
0.000274582
0.000356107
0.0080703
0.00671931
0.00673492
0.00674107
0.000125702
0.00124887
0.000543519
0.00672291
0.000709822
0.0067244
0.000431959
0.00672395
0.000140669
0.000560135
0.00435196
0.000939073
0.00203804
0.00152102
0.00838916
0.00570268
0.00237738
0.0107872
0.00675166
0.000536405
0.00578551
0.000135343
0.0135859
0.00746727
0.00453058
7.75244e-05
0.00672445
0.00033796
0.00672442
0.00193987
0.000411014
0.000368073
0.000290117
0.00672134
0.000667085
0.00191094
0.000333379
0.00045457
0.0138655
0.00672129
0.00166745
0.00686681
0.000274228
0.00553418
0.00108666
0.00968063
0.000583759
0.00672197
0.000161532
0.00419164
0.0126165
0.00672579
0.0108891
0.000604635
0.00677048
0.000325963
0.00222694
0.006726
0.00275225
0.00510507
0.00672036
0.00181507
0.00671853
0.00266719
0.000439964
0.000445675
0.000921837
0.00768368
0.00672584
9.34463e-05
0.000327682
0.00221283
0.000934359
0.000901152
0.00316769
0.00672476
0.00748161
0.00812477
0.00294313
0.00675453
0.000649596
0.00672258
0.0115256
0.00672205
0.000491416
0.00644609
0.00328814
8.44345e-05
0.00369884
0.000375828
0.00836943
0.000508736
0.00672239
0.00672222
0.00672368
0.0138054
0.000638568
0.000455109
0.0103335
0.00285301
0.00672405
0.00738743
0.000367972
0.000372045
0.00672364
0.00582897
0.00529768
0.000419691
0.00298076
0.000587273
0.00676092
0.00672188
0.00671865
0.00800359
0.00799249
0.000933225
0.000240276
0.00142622
0.000536768
0.00672886
0.00672513
0.000450396
0.00268287
0.00665535
0.000571665
0.000147636
0.000977598
0.000267538
0.00286368
0.000502872
0.0135498
0.00246047
0.00677935
0.00295769
0.0132689
0.000320885
0.00014211
0.00045284
0.00631201
0.00497501
6.55717e-05
0.00132408
0.000448969
0.00648528
0.000414075
0.00978341
0.00174819
0.00696973
0.000559253
0.00187176
0.00671954
0.000373826
0.0109562
0.00672431
0.000301807
0.00675837
0.0067222
0.000355499
0.000220114
0.00039304
0.00592577
0.000381085
0.00225603
0.00672238
0.00677384
2.40606e-05
0.0027786
0.000578851
0.000822545
0.00671912
0.0067237
0.0030671
0.00545145
0.00672704
0.000621768
0.00108778
0.000742113
0.00672119
0.000318372
0.00509505
0.00840795
0.00102934
0.00815452
0.000411773
0.000164517
0.000224364
0.00325412
4.58015e-05
0.000238044
0.00673663
0.00670034
0.00187252
0.00124623
0.000381162
0.00848285
0.00672439
0.00163208
0.000243426
0.000296156
0.0038885
0.000396442
0.0114709
0.000384979
0.0100375
0.000530191
0.00877734
0.000534928
0.00591239
0.00246653
0.0110085
0.00705271
0.000412685
0.00822651
0.00629293
0.00886415
0.00929334
0.00672047
0.00671641
0.000426715
0.000524649
0.00700872
0.0024085
0.000196664
0.00671775
0.00494009
0.00672443
0.00685148
0.000565518
0.00573128
0.00158587
0.00205765
0.000483331
0.00762729
0.00103018
0.0098666
0.00672474
0.00672464
0.000627615
0.00672336
0.0079547
0.000344947
0.0115077
0.00270869
0.00574125
0.00794817
0.00671567
0.000254443
0.00771446
0.000144091
0.0067177
0.00136744
0.0067208
0.0107222
0.00671578
0.00183768
0.00871296
0.000925136
0.000149958
0.000460709
0.00671743
0.00201982
0.000321896
0.00343782
0.00675691
0.00671864
0.00089844
0.00616966
5.26573e-05
0.00672588
7.18405e-05
0.00581966
0.00672203
0.00422895
0.00536955
0.00682132
0.00453726
0.0067213
0.000458406
0.00732813
0.00649345
0.00672321
0.00240365
0.000439888
0.000897917
0.00671848
0.012533
0.00325755
0.00811076
0.00672013
0.00702172
0.0047078
0.000606993
0.00645866
0.000466015
0.000390617
4.34682e-05