/*--------------------------------*- C++ -*----------------------------------*\
| =========                 |                                                 |
| \\      /  F ield         | OpenFOAM: The Open Source CFD Toolbox           |
|  \\    /   O peration     | Version:  v2012                                 |
|   \\  /    A nd           | Website:  www.openfoam.com                      |
|    \\/     M anipulation  |                                                 |
\*---------------------------------------------------------------------------*/
FoamFile
{
    version     2.0;
    format      ascii;
    class       volScalarField;
    location    "750";
    object      k;
}
// * * * * * * * * * * * * * * * * * * * * * * * * * * * * * * * * * * * * * //

dimensions      [0 2 -2 0 0 0 0];


internalField   nonuniform List<scalar> 
18758
(
0.000187476
0.00469955
0.000147325
0.000187507
0.000162711
0.000140069
0.000143547
0.000152571
0.000161062
0.00015919
0.00401209
0.00615238
0.000457247
0.000151459
0.000143334
0.000141867
0.0065513
0.000130767
0.000143197
0.000155776
0.00432052
0.000252923
0.000141097
0.000140039
0.000265095
0.000258919
0.0148275
0.000201011
0.000186486
0.00642996
0.000573864
0.0162976
0.000152192
0.00036926
0.000164747
0.00642576
0.000635356
0.000163623
0.000832368
0.000134849
0.00528071
0.000160226
0.00596468
0.00014495
0.000144994
0.000503566
0.000158462
0.00018563
0.0388407
0.000182745
0.00485429
0.0529653
0.000181981
0.0001541
0.000212491
0.000277936
0.000139618
0.000155201
0.000182393
0.000139375
0.00014699
0.00014468
0.0195289
0.0337144
0.000147348
0.00738923
0.000146857
0.000133367
0.000201109
0.000130951
0.0486742
0.000155646
0.000143141
0.000161429
0.000204838
0.000596882
0.0136755
0.00695365
0.000160819
0.00594515
0.00019232
0.000700825
0.00667252
0.000181584
0.000148947
0.000204636
0.000155391
0.000162703
0.0164586
0.000203938
0.0325955
0.000153416
0.000183498
0.0385339
0.000143015
0.000139049
0.000132611
0.000175741
0.00766974
0.000142466
0.000492817
0.000165255
0.000133299
0.000139018
0.00563925
0.00440749
0.000186271
0.0343149
0.0140511
0.00262759
0.000142048
0.0287197
0.000166176
0.000145739
0.000165335
0.0301687
0.000175027
0.000138077
0.0552133
0.00015321
0.000144686
0.0138107
0.00014968
0.000138131
0.0303335
0.000154476
0.000143287
0.000138139
0.000209528
0.0272682
0.000183246
0.000153485
0.000160423
0.0339799
0.000135142
0.000145755
0.0119628
0.000149019
0.000227834
0.000191211
0.000172532
0.00461538
0.000170782
0.0140867
0.0298171
0.000174872
0.0108779
0.000202963
0.00399638
0.0429482
0.0269548
0.0300089
0.000146402
0.000165914
0.00559003
0.019046
0.000183206
0.000211616
0.000185283
0.00504932
0.0144191
0.000139506
0.0340498
0.0105751
0.000414873
0.000140031
0.000139394
0.0214059
0.0273583
0.00536378
0.0319354
0.00014789
0.000189728
0.00395715
0.0127008
0.000142768
0.000142942
0.000276668
0.000329058
0.00014911
0.000132399
0.000154924
0.000210956
0.000150733
0.022753
0.000143637
0.00660983
0.000170913
0.0384769
0.000361288
0.0300648
0.000143574
0.000182572
0.000553929
0.000131461
0.000150508
0.000381077
0.000146217
0.038834
0.000141377
0.000150214
0.000219141
0.000269715
0.000141807
0.00014209
0.0344653
0.000142861
0.000166813
0.0268926
0.027557
0.000144644
0.000183813
0.000153116
0.000148813
0.000153653
0.000132827
0.000144602
0.000183337
0.000137044
0.00467022
0.000635517
0.000141814
0.000170252
0.000221232
0.000269353
0.00732583
0.000209837
0.000203624
0.0184148
0.000142588
0.00023684
0.000174716
0.0130414
0.000147836
0.00014077
0.000142344
0.000205161
0.0378658
0.00311253
0.000149386
0.000142207
0.000200856
0.00020843
0.000145908
0.0362258
0.0010354
0.000140838
0.000138294
0.000143521
0.000142534
0.0326301
0.000144147
0.0055698
0.000142917
0.000144979
0.0237311
0.000139794
0.00144954
0.000142951
0.00445446
0.000167971
0.000138452
0.000140918
0.000181785
0.00724248
0.00475802
0.000138578
0.000214947
0.000146532
0.000146196
0.0541479
0.025556
0.000145961
0.000141782
0.000146296
0.000153122
0.000157856
0.000135887
0.000149688
0.000151461
0.00013828
0.000153519
0.000142425
0.0162998
0.000143426
0.000141571
0.000130343
0.000203818
0.000138948
0.00013895
0.000147011
0.000149467
0.000139369
0.000142287
0.000145306
0.000149578
0.00726557
0.000157893
0.00014171
0.0299727
0.000154091
0.000141922
0.000141953
0.00357278
0.00250617
0.000132346
0.000215264
0.00480091
0.000145403
0.000250392
0.000142456
0.00552717
0.000242909
0.000186467
0.000185935
0.00046421
0.000133039
0.00732055
0.000234099
0.000146827
0.000184864
0.000182782
0.043586
0.000140775
0.000133104
0.0273567
0.00489176
0.00013973
0.0318632
0.000193116
0.00018305
0.0404025
0.000140706
0.000140248
0.000142727
0.000145412
0.000149018
0.000156506
0.000152665
0.000143337
0.000148839
0.0001493
0.0257939
0.00282585
0.000148069
0.00527124
0.00757047
0.000139536
0.000163135
0.00298557
0.000259625
0.00524489
0.00057328
0.000143618
0.0334099
0.00105007
0.000173286
0.000149265
0.000178673
0.000149468
0.000144275
0.000720163
0.0046681
0.0057403
0.00022279
0.00377427
0.000140842
0.000156401
0.000155766
0.000175578
0.0380311
0.0220948
0.0105655
0.000224886
0.00490027
0.00116796
0.000145298
0.00245985
0.00020516
0.0034697
0.00594848
0.00014241
0.000139859
0.000253741
0.00558724
0.00296714
0.0534817
0.0310192
0.000149521
0.00601093
0.00225518
0.000141951
0.000151312
0.000153094
0.000150603
0.000145063
0.000150122
0.000144167
0.00015697
0.000145913
0.00014395
0.000165714
0.000567041
0.000158974
0.000481693
0.000501656
0.028865
0.000531732
0.000202553
0.0001472
0.000140614
0.00594952
0.000151325
0.000149544
0.0150182
0.000174993
0.00358961
0.000139987
0.0262091
0.00014453
0.000154259
0.000131961
0.0378379
0.00808075
0.00496119
0.00014489
0.0430638
0.000182967
0.000144193
0.000149855
0.000145093
0.011124
0.00014543
0.000141878
0.00042147
0.000159227
0.000149651
0.000142811
0.000152379
0.000156239
0.0192754
0.00540543
0.000148754
0.00347039
0.000131891
0.000159314
0.000202231
0.000143679
0.00056106
0.000148478
0.000156699
0.000146807
0.00838052
0.000153697
0.000144113
0.0361449
0.00281426
0.000130406
0.000156389
0.000156038
0.000141829
0.000143171
0.000151073
0.00219722
0.0333623
0.000147444
0.000164235
0.00589413
0.000265651
0.00718953
0.00043171
0.00680485
0.000137398
0.000199511
0.000195762
0.000165494
0.000152088
0.00449376
0.0011837
0.000169152
0.000139861
0.000143576
0.000139014
0.000143661
0.000138977
0.000143782
0.00025093
0.000148558
0.000131519
0.000182496
0.000152544
0.000146967
0.000134788
0.00015505
0.00108362
0.00436438
0.000143067
0.00482967
0.000142801
0.000159168
0.000208802
0.0337814
0.000227371
0.000143027
0.000143688
0.0336729
0.0374415
0.000413014
0.000139818
0.0114854
0.0159101
0.000130324
0.000141495
0.011055
0.000153895
0.000192536
0.000380677
0.000152432
0.000164142
0.000138383
0.000142181
0.000152721
0.000143672
0.000142303
0.00014705
0.0072352
0.000132176
0.00423196
0.00888575
0.000130403
0.000132184
0.000149654
0.000156892
0.000163345
0.00687722
0.000142511
0.000340195
0.000163119
0.00016555
0.000141169
0.0001429
0.00014454
0.000147685
0.00014755
0.0306429
0.0226934
0.000138211
0.000142045
0.000149263
0.0229439
0.000132091
0.000133099
0.000144027
0.000131593
0.000141139
0.000140949
0.000151671
0.000141825
0.00018339
0.000142423
0.000135688
0.000206263
0.0340835
0.000162102
0.000143481
0.00014275
0.000147684
0.0001426
0.000150904
0.00342824
0.00522708
0.00014929
0.00395979
0.000142616
0.000163937
0.000143739
0.000141692
0.000175042
0.000130962
0.000143904
0.0104818
0.000146818
0.000150674
0.000222751
0.000143203
0.000143393
0.0378426
0.000137902
0.000256939
0.00109395
0.000142789
0.000147062
0.0001794
0.000153623
0.000163387
0.00014254
0.00150253
0.00363097
0.00621844
0.000138566
0.0297172
0.000131356
0.00014501
0.000142388
0.000177178
0.000375706
0.000211779
0.000144829
0.000150503
0.000151906
0.0234795
0.00921208
0.000141212
0.000223828
0.000154406
0.0367985
0.000159988
0.000226118
0.000139733
0.00017464
0.000174841
0.000142643
0.000139803
0.000132143
0.0001391
0.000158263
0.000902446
0.00536143
0.0123996
0.000214157
0.000157578
0.000142495
0.000137886
0.00392151
0.000257987
0.000135088
0.000170349
0.0294397
0.0305393
0.000146334
0.000145658
0.00018418
0.00766339
0.000131263
0.00268024
0.000144063
0.000155574
0.000160615
0.000144982
0.00014757
0.000146392
0.000138566
0.000148576
0.00130727
0.000174821
0.00372036
0.000148347
0.000141383
0.0490067
0.000133333
0.0550104
0.00644075
0.000144262
0.0135315
0.00015064
0.000143931
0.0124759
0.00456988
0.00435063
0.00513945
0.000153118
0.0170178
0.000132247
0.00111848
0.0290662
0.000170418
0.000143544
0.00482654
0.000154053
0.000202434
0.011962
0.0342132
0.000145941
0.00816845
0.000141772
0.00017103
0.00018858
0.000140797
0.00016105
0.0139106
0.000259927
0.000160114
0.000152091
0.000131537
0.00014925
0.000151908
0.000169671
0.000211404
0.000141986
0.0442703
0.000156843
0.00014614
0.000156678
0.00013186
0.000286533
0.000142337
0.00013916
0.0290357
0.000138065
0.000150365
0.00548004
0.000183423
0.000184792
0.000143803
0.000145827
0.000174963
0.000145512
0.00752464
0.000153704
0.000154415
0.00015053
0.000146015
0.000131388
0.0186337
0.000131862
0.0237325
0.00023039
0.000149337
0.0417675
0.000140126
0.000173195
0.000159447
0.000301033
0.000153362
0.00384023
0.00643616
0.000145654
0.00538359
0.000135723
0.0117056
0.000145715
0.000148365
0.0384583
0.00591244
0.000142188
0.000146928
0.000152488
0.000137988
0.000143739
0.00488891
0.0336816
0.000141432
0.000137857
0.000135821
0.0197564
0.000211942
0.00035117
0.000138511
0.000280906
0.000148348
0.000146035
0.000159417
0.00735528
0.000141223
0.000170889
0.0112143
0.000142829
0.00177583
0.000144206
0.000160331
0.000141226
0.000138378
0.000156598
0.000146405
0.000175522
0.000143562
0.0278871
0.000146328
0.000153974
0.000185089
0.000267138
0.000170466
0.0001416
0.000145924
0.00604481
0.000500663
0.00019616
0.00013963
0.000142493
0.000161459
0.0279874
0.00596743
0.000141053
0.000142126
0.000149918
0.000146678
0.000147334
0.000142583
0.000143937
0.00664501
0.000142306
0.000143476
0.00623437
0.000138506
0.00140209
0.0001942
0.0243666
0.0500951
0.00468977
0.0332854
0.00014262
0.000142621
0.000153317
0.000141193
0.000141286
0.000138853
0.000140515
0.000149041
0.0359253
0.000208145
0.0101845
0.00015122
0.000142061
0.000163425
0.000165419
0.000178213
0.000146366
0.00014861
0.000138156
0.039492
0.000323586
0.0101313
0.000147675
0.000188609
0.000204371
0.00165548
0.0287313
0.00762569
0.000151111
0.000150185
0.000136159
0.000305746
0.000146895
0.000132841
0.000181099
0.0078039
0.0001423
0.00492886
0.00364665
0.000142517
0.000142296
0.000142602
0.000144378
0.000143486
0.000154268
0.000160825
0.000143537
0.000147012
0.00845288
0.038215
0.0001431
0.004479
0.000248883
0.000149131
0.000145342
0.000141596
0.000138382
0.000152072
0.000149013
0.000143749
0.000147708
0.000153427
0.000146765
0.0374666
0.000158202
0.000142775
0.00014441
0.00216453
0.000146117
0.000132812
0.000639538
0.000141359
0.000163393
0.000156609
0.000143503
0.000139479
0.000137939
0.000156485
0.000168662
0.000143813
0.00451327
0.00017884
0.00019773
0.00829397
0.00014964
0.00022014
0.00013225
0.0108296
0.000149501
0.000143563
0.000214876
0.0354744
0.000147723
0.00862272
0.000166865
0.000138884
0.000159859
0.000132877
0.000149478
0.000158765
0.000150259
0.000142928
0.00066303
0.000141061
0.000141693
0.00722654
0.000141667
0.000141288
0.000139491
0.0281308
0.00014461
0.000144953
0.000160642
0.000279797
0.00432176
0.0120972
0.00758894
0.000142383
0.000131702
0.000143571
0.0304695
0.000148748
0.000141133
0.000152816
0.000137773
0.0113996
0.00014715
0.000145865
0.000387804
0.000142263
0.000183182
0.000520022
0.000131677
0.000143443
0.0130402
0.000152852
0.0284245
0.00240543
0.000137841
0.000144391
0.000430887
0.000138646
0.000152875
0.0035505
0.000136169
0.0074398
0.000142519
0.000144049
0.000143358
0.00016479
0.000150513
0.00771926
0.000154406
0.000140839
0.00618493
0.00655236
0.000169035
0.000168079
0.00055723
0.033386
0.000287543
0.000131282
0.0327366
0.000147245
0.0132237
0.0103953
0.000141366
0.000166897
0.000147319
0.00764958
0.000139708
0.000716648
0.000141686
0.000400604
0.000208017
0.000139778
0.000131563
0.000142652
0.0112452
0.0115006
0.000144201
0.00492524
0.000146321
0.000141229
0.00779232
0.000143195
0.000255978
0.000140005
0.000153408
0.000140631
0.000140071
0.000140909
0.000139782
0.000190638
0.000173809
0.000168597
0.00016264
0.000148354
0.000142821
0.00496861
0.000142686
0.00850706
0.000145525
0.00665037
0.000156893
0.00557897
0.000139568
0.000140743
0.000141082
0.0482831
0.000144666
0.00557808
0.000193563
0.000143585
0.000156263
0.000142647
0.000138158
0.000153157
0.000141546
0.00552819
0.000144349
0.000151486
0.000143835
0.000151638
0.000622427
0.00519675
0.000145652
0.000139551
0.000146053
0.000148005
0.000141965
0.00015528
0.000148678
0.00014256
0.00013757
0.000139101
0.000224987
0.000191483
0.000145597
0.000137671
0.000247993
0.000151095
0.00824534
0.000359831
0.000148612
0.0339517
0.000152796
0.000139641
0.000143023
0.000153739
0.000196577
0.000138381
0.000162925
0.00225153
0.000201115
0.000244798
0.0255809
0.030631
0.000165424
0.000145988
0.000144464
0.00369279
0.000137592
0.000145837
0.000160453
0.000912477
0.00014344
0.000139939
0.0326113
0.000153039
0.000150688
0.000153597
0.000153451
0.000203024
0.000144481
0.000153687
0.000144053
0.000166179
0.00015348
0.000147792
0.000147403
0.0044465
0.000147678
0.000142865
0.00368866
0.000131602
0.000142644
0.000145387
0.000150125
0.00014811
0.00549684
0.000201246
0.00405622
0.00710384
0.0159973
0.005303
0.000149106
0.0317428
0.00379165
0.000145386
0.000149236
0.000146698
0.000144517
0.0001504
0.000150589
0.000212271
0.000211284
0.000145989
0.000135448
0.000183078
0.000153169
0.00601271
0.000142501
0.000148899
0.000142215
0.00800054
0.00726592
0.000160484
0.0267371
0.000142405
0.000142315
0.00018244
0.000164429
0.000141948
0.000206818
0.000148122
0.000165849
0.00777193
0.000191077
0.000165247
0.00014657
0.000147791
0.000148828
0.000138873
0.00335695
0.000189892
0.0457386
0.00308372
0.036034
0.000148029
0.0343934
0.0300736
0.0260513
0.000201988
0.0111283
0.000158041
0.00541746
0.000198611
0.000168952
0.000130721
0.00014264
0.000145876
0.000180339
0.000139557
0.000144828
0.00048481
0.00715587
0.00512963
0.00419361
0.000188816
0.00493438
0.00016749
0.000151678
0.000142907
0.0117731
0.00038329
0.00014126
0.00016118
0.000570078
0.0345214
0.0295445
0.000166396
0.000184782
0.000131765
0.0286024
0.000147666
0.00258494
0.0035534
0.000165469
0.000207652
0.000200787
0.000144299
0.000143261
0.00492169
0.00369866
0.000225164
0.000147862
0.000144628
0.000153736
0.0034742
0.000163958
0.00370798
0.000148477
0.00588093
0.00424127
0.000157964
0.0123364
0.000205478
0.0301275
0.000131771
0.000171566
0.0287033
0.0001592
0.000141961
0.00219454
0.00472863
0.000142398
0.000142635
0.00542217
0.000154038
0.000149882
0.00641973
0.00490993
0.000145855
0.000159599
0.0007818
0.000160818
0.000153375
0.000153006
0.00574759
0.00015787
0.000140366
0.000141567
0.0101443
0.000139244
0.051231
0.000136915
0.000138585
0.0047225
0.000145475
0.00014251
0.000611314
0.000131379
0.000153371
0.000137738
0.000142541
0.000144746
0.000191473
0.000144995
0.00326772
0.000212973
0.00568749
0.0316729
0.000155284
0.000137805
0.00013925
0.0297471
0.000157378
0.000144013
0.00320619
0.000165297
0.00742277
0.000136955
0.000136749
0.00013782
0.000141245
0.000144313
0.000134184
0.000149939
0.000149775
0.000143213
0.0041054
0.000161564
0.00414457
0.00014979
0.000137842
0.00016227
0.00231043
0.0326933
0.00813938
0.022878
0.00540318
0.000210355
0.0310989
0.000148658
0.000174914
0.000170537
0.0340906
0.000141333
0.00719287
0.0037261
0.000234036
0.000142709
0.00698222
0.000141826
0.000142604
0.000145047
0.000160832
0.0280349
0.0376186
0.000145784
0.000131175
0.000138835
0.00013478
0.000176346
0.000143434
0.0313818
0.000177985
0.000189421
0.000148427
0.000142417
0.000133807
0.0339745
0.000246611
0.000144747
0.000143648
0.0120265
0.000134663
0.000143538
0.000135951
0.000144153
0.000144591
0.000145294
0.000137817
0.00360629
0.000152262
0.00475891
0.000163784
0.000146804
0.000239878
0.000146027
0.000290161
0.000146903
0.000175155
0.000342991
0.00373712
0.000172766
0.000194877
0.031051
0.000150272
0.000169701
0.000152819
0.000142394
0.000138555
0.000140562
0.000233675
0.000169177
0.000154014
0.000233951
0.000138306
0.000145381
0.00016638
0.00247508
0.000131255
0.000170187
0.000280852
0.000202685
0.000277183
0.000148595
0.000146637
0.0290177
0.00017305
0.000139873
0.000142392
0.000204787
0.000137612
0.000138473
0.0309854
0.000176986
0.000149115
0.000149889
0.000147022
0.0385309
0.000153387
0.0288962
0.0154032
0.000142815
0.000142029
0.0139052
0.000165918
0.00017728
0.000150526
0.000201307
0.000162704
0.000139635
0.000154997
0.000220316
0.000171624
0.0267996
0.00716417
0.000164263
0.00450843
0.0114075
0.000140381
0.00786532
0.000335879
0.000158308
0.0170653
0.000146641
0.000230804
0.000186559
0.00538989
0.000191341
0.000306355
0.000165852
0.00444782
0.000141944
0.000132891
0.0313351
0.000152603
0.00014232
0.000142211
0.000147927
0.000134521
0.000149526
0.000141468
0.000142524
0.0285377
0.013996
0.00014267
0.000146028
0.00534835
0.00466528
0.000131578
0.000258229
0.000224518
0.000171102
0.000145599
0.000140846
0.0334844
0.000148205
0.000176004
0.000189269
0.000138595
0.000171805
0.0317393
0.000142522
0.00413286
0.0130058
0.0283703
0.000149249
0.000142448
0.000143284
0.00014425
0.000142306
0.00370527
0.000331146
0.000138052
0.00503009
0.000265559
0.000149273
0.000145999
0.000142243
0.00755012
0.0309016
0.000207837
0.000203339
0.000152233
0.031724
0.00439296
0.000138604
0.000142665
0.000157241
0.000164552
0.0340331
0.00335323
0.000140275
0.0115047
0.00428276
0.000153564
0.000139946
0.000146047
0.000154245
0.000142011
0.000149769
0.000138412
0.000285996
0.0038892
0.000144832
0.000146771
0.000162783
0.000138654
0.000142796
0.000147496
0.00666242
0.000137976
0.000151894
0.0338605
0.000246098
0.000242389
0.000189595
0.00014836
0.000147836
0.000147857
0.000137495
0.000141358
0.000148805
0.00573218
0.000180082
0.000150515
0.000196075
0.000138018
0.0124141
0.000231027
0.000143655
0.0453235
0.000140618
0.000151461
0.00022584
0.0276315
0.000152774
0.000153756
0.000153079
0.000238749
0.000132005
0.0065489
0.000725192
0.000138204
0.000185856
0.00698532
0.000145006
0.00015115
0.00752568
0.000182373
0.000147022
0.00347087
0.00015452
0.000142492
0.00187823
0.000245446
0.0034154
0.000140667
0.0120355
0.000172151
0.000133606
0.00017487
0.000161077
0.000147332
0.000203585
0.000908096
0.00588957
0.000179748
0.000209263
0.000138064
0.00038469
0.00405135
0.000255521
0.0163842
0.000145086
0.00891967
0.000145168
0.000141991
0.000171144
0.000149872
0.00105872
0.00553087
0.000146878
0.0119492
0.000396964
0.0355278
0.000159399
0.000179333
0.000131273
0.000148256
0.000153082
0.000131099
0.00504247
0.000565665
0.0261959
0.00555806
0.000215638
0.00650584
0.0259443
0.00014434
0.000152677
0.00426861
0.000177833
0.000145276
0.000142231
0.000404349
0.000219464
0.000159617
0.000142882
0.000146279
0.00021476
0.000142487
0.000210728
0.00464218
0.000134385
0.032824
0.000137485
0.0248426
0.000280074
0.0460897
0.000148573
0.00425743
0.000146619
0.000142913
0.000150579
0.0327697
0.000168322
0.00513495
0.000146592
0.000142489
0.000242846
0.000521798
0.000146816
0.000206157
0.00784066
0.000591778
0.0134009
0.000140314
0.000145476
0.00260478
0.000131213
0.000138199
0.000155761
0.000143859
0.000146835
0.000140048
0.000142064
0.000154334
0.000142083
0.000167201
0.000174543
0.000142419
0.00039602
0.0339758
0.000157876
0.000135572
0.000143164
0.000201922
0.000143607
0.000142817
0.000144806
0.000200371
0.00014386
0.000155212
0.000153493
0.000484329
0.00609677
0.00014102
0.000215236
0.000249405
0.000159684
0.000234318
0.000786687
0.000140648
0.000142746
0.000328696
0.000269042
0.000158503
0.000274665
0.000279786
0.000143136
0.023603
0.000149008
0.000188165
0.000302454
0.0120758
0.0397338
0.000152613
0.000141322
0.0164554
0.000150458
0.00707424
0.000175835
0.00384822
0.0256514
0.000140522
0.000169251
0.000142046
0.000326467
0.000187747
0.0428806
0.000141709
0.000144938
0.00021348
0.000147591
0.00749121
0.000140277
0.00581814
0.000434139
0.000170546
0.00161444
0.0328306
0.000140771
0.000140852
0.000144225
0.00540481
0.00612845
0.000148618
0.000154928
0.000148554
0.000135653
0.000170428
0.00014107
0.000136733
0.000490361
0.000148084
0.000136501
0.000152698
0.0272027
0.000457888
0.0272467
0.000145834
0.000197381
0.000163013
0.000155621
0.000204186
0.000345374
0.0328632
0.000137823
0.000185367
0.000131585
0.000165012
0.000183107
0.000175393
0.00370991
0.000148331
0.000191737
0.000137254
0.00627911
0.00585464
0.000136784
0.000151373
0.000151346
0.000151767
0.0293052
0.000144622
0.000144852
0.000149055
0.000147569
0.000139286
0.000151444
0.000143239
0.000148309
0.00014343
0.000141675
0.00792857
0.00770968
0.00262834
0.000135263
0.000131942
0.000132797
0.000135846
0.000132981
0.00017621
0.000132649
0.000138119
0.000142935
0.000139878
0.000160269
0.000142645
0.000251193
0.00319843
0.000168454
0.00973985
0.000146099
0.00258107
0.000240484
0.000237346
0.000139447
0.00588372
0.000150269
0.000144361
0.000145204
0.000158837
0.000195433
0.000140444
0.000203636
0.000162676
0.000142733
0.000234144
0.00731408
0.00016885
0.000140774
0.000151039
0.000252716
0.000153827
0.000615819
0.000140534
0.000149418
0.000144681
0.000156318
0.000165844
0.00505254
0.000171782
0.000136851
0.0255157
0.000193102
0.000211886
0.000141232
0.000157157
0.0279377
0.000140356
0.000147967
0.000163219
0.00618821
0.000134265
0.00014276
0.000138093
0.000170773
0.00014465
0.00479715
0.00014528
0.000155672
0.000160446
0.0296012
0.000138764
0.000136862
0.00013172
0.000161926
0.00013552
0.0323161
0.000755969
0.000169154
0.00499426
0.000142989
0.0257002
0.000145457
0.000137839
0.000212916
0.00018722
0.00024424
0.00305776
0.04328
0.000267055
0.000171276
0.000164603
0.000150558
0.00473736
0.000144962
0.000153345
0.000231067
0.000147628
0.00644908
0.0058039
0.00422309
0.00425509
0.00345191
0.000286194
0.00473358
0.000189906
0.000149787
0.000186633
0.000144581
0.000137014
0.000141614
0.0534401
0.046079
0.00616151
0.000158248
0.000155271
0.00543472
0.000140593
0.000202274
0.00013667
0.000167158
0.00014225
0.000132958
0.000149649
0.000169931
0.0229837
0.000168077
0.000159739
0.000137705
0.000191416
0.000585098
0.000137262
0.000198527
0.000287284
0.000131171
0.000181374
0.000137717
0.0314691
0.00014669
0.000301353
0.000148776
0.000146069
0.000159087
0.000209212
0.0153423
0.000184199
0.00618362
0.000151044
0.00014487
0.000145132
0.00014507
0.000136726
0.000143319
0.0199738
0.0325587
0.000176552
0.000143794
0.000156768
0.000151884
0.000145967
0.000146409
0.000190698
0.0062194
0.0059877
0.000144449
0.00431543
0.000137723
0.000183254
0.000151109
0.000168981
0.0283329
0.00705082
0.00750085
0.000133134
0.000144484
0.000140554
0.000142517
0.000144627
0.000142158
0.0303833
0.00014619
0.000146153
0.000149007
0.000176542
0.000141711
0.0302455
0.0335153
0.00642637
0.000145379
0.0255283
0.00013658
0.00766841
0.000286444
0.000148806
0.0056932
0.00015374
0.000183317
0.000140373
0.000149728
0.000159059
0.000189256
0.000200351
0.00334798
0.000216855
0.000213171
0.00017236
0.000150001
0.000143955
0.00242068
0.000153126
0.00823583
0.000148932
0.014887
0.000395046
0.00447911
0.00015105
0.011419
0.000154463
0.00014526
0.000135937
0.000152913
0.000184154
0.0001428
0.00768146
0.000197373
0.000203558
0.000141401
0.000156282
0.0440892
0.00330565
0.00649812
0.000155457
0.000172246
0.0580567
0.00997219
0.000147983
0.000191452
0.0069644
0.000182832
0.000248782
0.000157207
0.000160508
0.000231159
0.000134009
0.00543475
0.000175354
0.000144405
0.00381656
0.0045164
0.000634717
0.000162084
0.00020797
0.00019267
0.00013682
0.000174646
0.000149338
0.000249364
0.000138675
0.00318253
0.0345846
0.000271941
0.00486908
0.000202587
0.000596665
0.000154376
0.000296484
0.00581892
0.0468361
0.000150858
0.000149472
0.000142161
0.000156574
0.000134382
0.000141292
0.00047517
0.000141732
0.000138492
0.000166751
0.000149556
0.000132596
0.000199283
0.0145303
0.000182866
0.000145087
0.000144942
0.000159667
0.000150967
0.000141629
0.00014064
0.000136534
0.00586878
0.000156327
0.000309952
0.000161334
0.000143588
0.000132852
0.0288131
0.00023151
0.00927662
0.00017641
0.000147517
0.000165669
0.000140675
0.000158198
0.000318723
0.00171483
0.00020083
0.000152428
0.000137425
0.000162043
0.00718369
0.00422018
0.00569529
0.000155874
0.000137964
0.000137977
0.000155055
0.000244477
0.0391079
0.000138066
0.00109827
0.000132837
0.000143382
0.000189432
0.000140362
0.00798997
0.000191182
0.00215733
0.000133436
0.000171263
0.000169139
0.0462886
0.000137782
0.000145125
0.000189903
0.00483602
0.0158354
0.00316773
0.01508
0.000151677
0.000230234
0.000156336
0.000168721
0.0528501
0.000158621
0.000141036
0.000145645
0.000135155
0.0013171
0.0168963
0.000156864
0.00136378
0.000135796
0.000141175
0.000145855
0.000219737
0.000288384
0.00149413
0.00014368
0.000149145
0.000165725
0.00154294
0.000136464
0.00607749
0.000140871
0.000151227
0.00233218
0.000139949
0.000343208
0.00879469
0.00707567
0.000396559
0.000144446
0.000153027
0.000155207
0.0349525
0.000197473
0.000145335
0.0273578
0.00154568
0.000131127
0.000151103
0.000523191
0.000136817
0.0299037
0.0055105
0.000155811
0.000131791
0.000155776
0.000155343
0.0241275
0.000137802
0.000169069
0.000148153
0.00439956
0.0403353
0.000142765
0.000136357
0.000221124
0.000159841
0.000144669
0.000142844
0.000140108
0.000175467
0.000152199
0.00023324
0.000148879
0.000148034
0.000141788
0.00015207
0.000159207
0.00014935
0.00604914
0.00533813
0.00612989
0.00014813
0.000136331
0.00191132
0.000156932
0.000184136
0.000459196
0.000202672
0.00499664
0.00752614
0.000135966
0.00175034
0.00122547
0.000150572
0.000140098
0.000143686
0.000143611
0.0226846
0.00324905
0.000144791
0.0172666
0.0181725
0.0331407
0.000132682
0.0001385
0.00290959
0.000140181
0.000146095
0.000164762
0.00014213
0.000281463
0.000155809
0.0523123
0.00581528
0.000141913
0.000253892
0.000236208
0.0590327
0.050458
0.000143064
0.000156171
0.000171692
0.000290015
0.0515898
0.00161248
0.00014818
0.000143772
0.000190912
0.000136827
0.057413
0.00852682
0.000140618
0.000936483
0.000137147
0.0339048
0.00014685
0.00239802
0.000150344
0.0175413
0.0225272
0.0332218
0.0274341
0.000135025
0.00376999
0.0332484
0.000149054
0.0445933
0.000148418
0.000133408
0.000143743
0.00016032
0.000155188
0.000145662
0.000141274
0.000264732
0.000169207
0.000173524
0.0115875
0.000175451
0.000162407
0.000148664
0.00018353
0.000136215
0.000200202
0.00123412
0.000686562
0.00614051
0.000148832
0.000152747
0.000150819
0.00018819
0.00015282
0.000141269
0.0294184
0.0174977
0.0342917
0.000148576
0.00014561
0.000170542
0.00101495
0.000147354
0.000136619
0.000148249
0.000151953
0.000168668
0.000143485
0.00543552
0.000147419
0.0351917
0.000138356
0.00223846
0.0182751
0.000325993
0.000135437
0.000198576
0.000145064
0.000137355
0.000181532
0.018508
0.000141838
0.00014943
0.033528
0.000144259
0.000175788
0.00350753
0.00016144
0.00263499
0.000145839
0.0141937
0.000160355
0.0584327
0.000136222
0.000141114
0.0151275
0.000140022
0.0038828
0.000156249
0.00016367
0.0273767
0.000150969
0.000143775
0.000149752
0.000141542
0.000381597
0.0373693
0.000137333
0.00412945
0.00021208
0.00137901
0.000144168
0.00552785
0.00515461
0.000159627
0.000159842
0.000144021
0.0216472
0.000133616
0.0311987
0.0001361
0.000139961
0.000154441
0.000145866
0.000138514
0.000216464
0.000152998
0.00014183
0.00351749
0.000137879
0.000180448
0.000156374
0.00165569
0.000201456
0.000139826
0.000170986
0.000141254
0.000140551
0.000155713
0.0119677
0.00352689
0.00385633
0.000282317
0.000136459
0.000143675
0.00014468
0.000140363
0.000135458
0.0580579
0.000133351
0.000152522
0.000232314
0.000149105
0.0145523
0.00014477
0.00013653
0.0388887
0.000457273
0.000146087
0.000174569
0.000165331
0.0155626
0.000141591
0.00015247
0.000269979
0.000146692
0.00247428
0.000159116
0.000149462
0.000150289
0.000290138
0.000156479
0.000175238
0.000253824
0.000554159
0.00015402
0.000156516
0.000172359
0.000299738
0.000149361
0.00933691
0.00683082
0.000391264
0.0333994
0.000138692
0.000144232
0.000142272
0.00526439
0.00495514
0.0491664
0.0311876
0.000135314
0.000300007
0.00013895
0.021414
0.00014338
0.000170462
0.000199452
0.000147495
0.000149901
0.000204096
0.000156706
0.000148213
0.000148889
0.000185614
0.000153305
0.000140833
0.000288214
0.000148729
0.000148485
0.000143549
0.002458
0.000188131
0.00528247
0.000163201
0.000152656
0.03337
0.000157534
0.000195588
0.000137156
0.000142336
0.01237
0.0309823
0.00822568
0.0001466
0.000155828
0.0118725
0.000196039
0.000194122
0.00345031
0.00023011
0.000240824
0.000136329
0.00369197
0.000140263
0.000181846
0.00178091
0.000200742
0.000200733
0.000151643
0.0404849
0.000180834
0.00479025
0.000267872
0.000141744
0.000143361
0.000144402
0.00167935
0.000137343
0.00341387
0.000183216
0.00774482
0.000135519
0.0303385
0.00916939
0.00492313
0.00463343
0.000150338
0.000147242
0.000142344
0.000157169
0.000144357
0.000157831
0.0250722
0.000144697
0.000150846
0.0310526
0.00392695
0.0053316
0.000159496
0.000166653
0.00013975
0.0377566
0.000147634
0.032216
0.000169257
0.00235654
0.000167503
0.000199951
0.00210128
0.000142983
0.000142393
0.0278186
0.00332631
0.0002752
0.000215203
0.000171177
0.00014125
0.000214756
0.00014387
0.00319758
0.000143612
0.000151009
0.00438987
0.000149522
0.000200033
0.000137605
0.0114673
0.000247068
0.000166885
0.00016307
0.0463172
0.000157545
0.000135999
0.0366918
0.00812821
0.0365089
0.000140105
0.00014849
0.0123107
0.00124615
0.0265842
0.000146123
0.000154248
0.000146156
0.000158984
0.000148348
0.00013846
0.00846289
0.00014096
0.0450404
0.000154615
0.0108036
0.00013553
0.000498666
0.000810723
0.000201188
0.000265171
0.00706148
0.000138618
0.000183786
0.0245437
0.000139796
0.000147927
0.000145085
0.0404058
0.0278466
0.000144563
0.0303565
0.000172511
0.000142722
0.0476485
0.000151995
0.00018012
0.0385688
0.0400124
0.000146092