/*--------------------------------*- C++ -*----------------------------------*\
| =========                 |                                                 |
| \\      /  F ield         | OpenFOAM: The Open Source CFD Toolbox           |
|  \\    /   O peration     | Version:  v2012                                 |
|   \\  /    A nd           | Website:  www.openfoam.com                      |
|    \\/     M anipulation  |                                                 |
\*---------------------------------------------------------------------------*/
FoamFile
{
    version     2.0;
    format      ascii;
    class       volVectorField;
    location    "700";
    object      ddt0(U);
}
// * * * * * * * * * * * * * * * * * * * * * * * * * * * * * * * * * * * * * //

dimensions      [0 1 -2 0 0 0 0];


internalField   nonuniform List<vector> 
18758
(
(-0.000556556 -0.00137136 2.00154e-17)
(-0.0148016 -0.0148974 -4.40978e-17)
(0.00125783 -5.69009e-06 3.32359e-19)
(0.0822137 0.0405522 1.27507e-17)
(-0.0113628 0.0127731 6.30508e-18)
(-0.0248115 -0.0149505 -9.90595e-18)
(0.00558355 0.000504566 -1.5e-16)
(0.000765543 0.000132641 2.5376e-19)
(0.021001 0.0148417 6.90531e-18)
(0.000437104 0.000161053 2.34064e-19)
(0.000260139 0.00060875 -4.23144e-18)
(-0.00472226 0.0031498 4.42177e-17)
(0.000777662 1.00876e-05 -5.59036e-19)
(-0.0225336 0.0289825 -6.41412e-18)
(-0.00105646 -0.000980946 -1.36743e-18)
(-0.000609626 0.000417675 3.3539e-17)
(-0.00231474 0.00624881 7.27643e-19)
(0.000466992 -7.84188e-06 -1.87381e-18)
(-0.000118953 -0.000300873 2.31144e-19)
(0.00047442 -7.19057e-05 4.06509e-18)
(-0.00253675 0.00382699 -7.32812e-19)
(5.97242e-05 -6.23384e-05 -5.98385e-19)
(0.00367898 0.00233766 2.11915e-17)
(0.0256459 0.0333979 -1.10996e-17)
(0.00251343 -0.00969798 7.08648e-17)
(0.000834365 0.00012503 -1.95439e-19)
(-0.000586291 0.000508799 1.23287e-18)
(-0.020176 0.00589858 -8.24199e-18)
(-0.0514277 -0.0142756 -2.10658e-17)
(-0.00198945 0.00193984 -1.29175e-19)
(-0.00986675 0.0135312 7.35214e-18)
(0.0277682 0.00553053 1.12196e-18)
(0.000395168 -3.91836e-06 -3.1707e-19)
(-0.000462116 0.000142253 4.21289e-19)
(-0.0043686 0.0238823 1.19676e-17)
(7.56956e-05 -0.000112512 3.47108e-18)
(0.000274773 -9.40984e-06 -8.6961e-19)
(6.12015e-05 0.000280553 -3.18893e-19)
(4.21033e-05 0.000324197 1.05969e-17)
(-0.00115627 0.0067354 6.90487e-18)
(5.30153e-05 0.00022845 -3.10083e-19)
(9.52251e-05 0.000344317 1.74444e-17)
(0.000479608 -8.11112e-05 1.91619e-18)
(0.000213927 0.000299115 -2.23755e-18)
(-0.000353903 0.00252647 -9.86608e-18)
(0.00105658 8.02721e-06 -4.58297e-21)
(0.00447331 0.00223665 -1.82722e-17)
(0.000440705 0.000543652 -4.05635e-18)
(0.000415913 0.000186044 3.37536e-19)
(0.000500205 -0.000146515 1.09578e-18)
(0.00291064 -0.00440074 -9.73529e-18)
(0.0338496 0.0209345 1.9446e-17)
(0.000916072 -7.0482e-05 -2.24849e-19)
(0.000235554 0.000588605 1.20041e-17)
(-0.0239081 0.00472127 1.44928e-17)
(-0.0206817 0.000465162 -1.98826e-17)
(0.000276687 -9.26425e-06 4.07552e-18)
(-0.0003481 0.000413098 5.35424e-18)
(0.000238374 -0.000226091 6.2141e-18)
(-0.0210242 0.0307536 -1.94379e-17)
(-0.000167833 -0.00165723 2.37635e-17)
(0.0050926 0.00067753 2.04158e-16)
(0.0113359 0.00947497 -1.50347e-17)
(0.000161108 0.000267478 3.79374e-18)
(0.000936585 -6.51614e-05 1.00689e-19)
(6.70911e-05 0.000265391 4.12886e-18)
(-0.00203054 0.00720268 -2.88864e-18)
(0.000429659 -3.57964e-06 6.12394e-20)
(0.000126708 0.000238487 9.38607e-19)
(0.0323419 0.0206007 -2.33562e-17)
(0.0156969 0.0176037 -2.34199e-18)
(0.000131255 -1.09395e-05 -2.37544e-19)
(0.000502499 -0.000143186 -6.27771e-19)
(-0.00480034 -0.0261482 8.03769e-19)
(0.000548023 0.000158225 3.74477e-19)
(0.000298871 -0.000190734 -5.79522e-18)
(0.0108543 0.0277735 -4.68017e-17)
(-0.00737643 0.0147031 3.35904e-17)
(-0.000495471 -0.000245786 1.44456e-17)
(0.0038604 0.00231072 4.61559e-17)
(0.000205967 0.000681434 -1.17597e-16)
(-0.002 -0.000528636 -3.59405e-18)
(-0.0197968 0.0308416 5.52525e-18)
(-0.0234905 -0.0116328 2.08565e-17)
(0.00979971 0.02881 4.84694e-17)
(0.000525504 0.0020516 -5.78129e-18)
(-0.00736661 0.00319445 -3.52121e-17)
(0.0111405 0.00894655 4.80653e-18)
(0.00282446 -0.00035061 5.8617e-17)
(0.000264889 -0.000169524 -6.46255e-18)
(-0.0224857 -0.0113014 3.38988e-17)
(0.000235535 -0.000231674 -6.16267e-18)
(-0.00132652 0.00193783 1.10854e-16)
(8.61276e-05 0.000336591 -2.13107e-17)
(-0.000217867 -0.000237381 2.81317e-17)
(-0.000859114 0.00173923 1.40981e-16)
(0.00861043 0.0286266 -3.38992e-17)
(0.000554235 0.00015744 -2.91837e-20)
(0.000283753 -0.000211462 1.93895e-18)
(-0.000950764 0.00485409 1.2586e-18)
(0.000581757 -0.000153307 -4.76397e-19)
(-0.0232054 -0.00972317 -5.16048e-18)
(0.00148512 0.0149402 -5.06777e-18)
(0.00176425 -0.00108688 2.43886e-17)
(0.0287429 0.0038267 5.73201e-18)
(-0.00242386 -0.00130759 -4.56626e-18)
(0.0342639 0.0451673 3.36969e-17)
(-0.00292054 0.0163506 -2.82199e-17)
(0.000131971 0.000490346 1.38485e-18)
(2.76358e-05 -7.81444e-05 6.20113e-18)
(-0.00160703 0.00171938 -8.07624e-17)
(-0.00162237 0.00531007 5.9785e-17)
(0.000834713 9.014e-05 1.71304e-19)
(0.000297599 0.000404627 2.2452e-18)
(-0.0342246 -0.00103383 -1.12398e-17)
(-0.00729166 -0.00223965 -7.86093e-17)
(-0.033451 -0.00348743 -7.04761e-17)
(-0.00103455 -0.00107445 1.55863e-18)
(0.00104451 0.00268597 -7.97681e-17)
(0.0017901 -0.000610539 1.27787e-17)
(0.00218431 0.0013486 6.44439e-18)
(0.000115104 -0.00026945 -2.15984e-18)
(-0.0300297 0.000481111 7.73785e-17)
(-0.000917129 0.000443417 7.65394e-18)
(-0.00158357 -0.00160308 1.50162e-17)
(-0.00110997 -0.000972477 -1.89402e-18)
(-0.000544454 -0.0152816 3.28845e-17)
(0.0317058 0.0177358 6.18925e-19)
(-0.00082991 0.00199282 -1.81431e-16)
(0.000892144 2.96496e-06 -6.87866e-19)
(-0.00231943 0.00658208 2.01079e-17)
(-0.000894926 0.000500522 -3.33461e-18)
(-0.00197547 0.00199513 1.79229e-17)
(-0.000149117 -0.000180806 -3.52499e-18)
(-0.000296285 0.00100187 5.82975e-17)
(0.000181517 0.000377669 1.45934e-18)
(0.0109793 0.0268947 2.82912e-17)
(-0.0010053 0.00707627 -4.67709e-18)
(0.000332813 -0.000204051 -5.32128e-19)
(-0.000349404 9.23866e-05 -2.86268e-17)
(-0.000483913 -0.000183946 -1.41807e-17)
(-0.000962354 -0.000281485 4.21668e-18)
(0.000307102 0.000216481 -1.98362e-18)
(-0.0267305 0.00165987 6.43301e-17)
(6.38044e-05 0.000207244 -1.31004e-18)
(-0.00020916 -0.000348885 -1.99835e-18)
(-0.0337126 0.00261991 9.0487e-18)
(0.0621345 0.000675132 -7.65093e-18)
(-0.0104245 0.0129989 -8.31073e-18)
(-0.00969754 0.0179246 1.3499e-17)
(-0.0020713 -0.0022658 2.21335e-18)
(0.0010737 0.0439056 1.71821e-17)
(0.000726117 0.0018563 9.9706e-18)
(0.000170601 -5.22118e-05 1.99576e-18)
(0.00647909 0.000926228 -1.07244e-18)
(0.000840421 0.0011279 6.00147e-18)
(0.00217846 0.00267754 6.72739e-17)
(0.000443807 0.000534608 2.57838e-18)
(0.000244779 0.000171744 8.36039e-19)
(4.70261e-05 -2.72389e-05 2.64473e-18)
(0.000517505 9.36658e-05 5.78234e-19)
(-0.0180302 0.030288 -2.67309e-19)
(-0.0018688 0.00189833 -1.28032e-17)
(0.000235966 0.000171987 2.61514e-18)
(-0.000104201 -0.00166521 -1.49123e-17)
(-0.049515 -0.0148139 3.97824e-18)
(-0.000150642 -0.000245937 5.69751e-18)
(-0.0240065 0.00205147 -6.18965e-17)
(-0.000508113 -0.00330882 -6.19684e-18)
(-0.0267009 -0.0125973 8.31384e-17)
(0.00495558 -0.00492189 1.2019e-17)
(0.000466321 -5.26544e-06 -3.40129e-19)
(-0.00175053 0.00178817 -4.11155e-17)
(-0.0185456 0.00737959 -7.52839e-17)
(-0.0173107 0.0299845 2.15523e-17)
(0.0237801 0.0334165 3.15587e-17)
(-0.0453139 -0.0165699 3.01583e-17)
(0.000162 0.000286746 1.24505e-17)
(-0.000341117 7.98197e-05 -7.2044e-18)
(0.000191717 0.000493183 7.7612e-19)
(0.000811404 1.62474e-05 2.9229e-19)
(-0.00779309 -0.000424014 -2.71181e-17)
(-0.000439306 0.042857 -1.85175e-17)
(0.000427827 -0.000236073 -2.63938e-18)
(-0.00185348 0.000850077 -3.17401e-18)
(0.00284006 0.0407941 -1.52858e-17)
(0.000248852 -0.000260547 8.78694e-18)
(-0.00669545 -0.00285972 9.46701e-17)
(0.000508745 -8.65214e-05 5.12827e-19)
(0.000184941 -0.000256737 -7.74238e-18)
(-0.000155764 -0.000204006 1.09163e-17)
(0.0303931 0.0164873 -2.28924e-17)
(0.000318785 0.000524836 8.38867e-19)
(-0.0100995 0.0122736 1.02259e-18)
(0.000137773 -5.37415e-05 -4.25983e-18)
(0.0118166 0.00820858 4.61739e-17)
(0.000514747 -0.000104439 1.52408e-18)
(-0.000600858 -0.00347581 -2.59253e-19)
(0.000373655 -4.11358e-06 3.3402e-19)
(0.000491342 -8.94337e-05 -1.11802e-18)
(-0.000249133 0.000179022 3.66992e-18)
(0.000428145 0.000531944 -1.77196e-18)
(0.000972983 -0.000439977 4.57744e-18)
(0.00794879 0.00616072 4.06471e-18)
(0.000821698 1.43434e-05 -1.99866e-18)
(0.000166698 -4.34235e-05 3.13422e-18)
(0.00326008 0.01467 -5.8818e-17)
(0.000113938 -4.06963e-05 -1.93905e-18)
(0.00387841 0.00371909 5.83635e-18)
(0.000387992 0.000190038 -7.79061e-19)
(0.000477567 -3.62042e-05 -3.94229e-20)
(0.00180841 -0.000989974 -8.70026e-18)
(0.000283897 0.000245894 1.59456e-18)
(0.00115168 -0.000349358 8.96838e-18)
(-0.000406554 -9.93309e-05 7.27384e-18)
(-0.00016382 0.0022104 -3.45121e-17)
(-0.000439206 -8.82343e-05 3.20181e-18)
(-0.000459554 0.000397006 -2.41298e-17)
(0.00069973 3.96548e-05 5.6748e-21)
(-0.0260787 -0.0152874 5.37452e-17)
(0.000484831 -3.89021e-05 1.38251e-18)
(0.000143921 0.000499668 8.18471e-19)
(0.00347061 0.0289192 2.06281e-17)
(-0.0322413 0.00309433 -1.41775e-17)
(0.00122857 -0.00611647 -5.30749e-18)
(0.00258604 0.014511 6.83024e-17)
(0.0045033 0.000795188 1.13046e-17)
(-1.49255e-05 -0.00040405 -2.23751e-19)
(0.000456681 -0.000224866 7.05796e-20)
(0.00834058 0.00525021 4.7706e-17)
(6.27615e-05 0.000237155 -9.08242e-19)
(0.0115266 0.00759705 -2.77667e-17)
(0.00485594 0.0021 1.00242e-16)
(0.00816163 0.0299802 -2.1559e-17)
(0.000780406 7.11624e-06 1.5206e-18)
(0.000249475 -0.000260406 -2.70944e-18)
(0.000429355 -0.00022346 -1.32079e-18)
(0.00105099 2.71656e-05 -3.08345e-20)
(-0.0306783 0.00032963 -2.70126e-17)
(0.00157371 -9.28703e-05 4.04477e-19)
(0.000568638 -3.69912e-05 1.57141e-18)
(-0.00137944 -0.00430971 4.80069e-17)
(0.0391158 0.0444014 1.65617e-17)
(-0.000174057 0.00044613 -3.9821e-18)
(-0.00593948 0.0209686 -1.61315e-17)
(-0.0117106 0.00215641 5.05599e-17)
(0.00716333 0.029809 3.88564e-18)
(4.97747e-05 -0.000138379 2.28917e-18)
(8.78649e-05 0.000185814 6.54149e-18)
(-4.39689e-06 0.000332676 -1.66681e-17)
(0.000101312 -4.72985e-05 1.54591e-19)
(-0.0229971 0.00221779 2.71301e-17)
(0.000522374 0.00216418 3.32556e-18)
(7.54805e-06 0.000318462 6.0404e-18)
(-0.000605221 -0.000637663 -8.72583e-18)
(0.00254926 0.00116751 -1.77924e-17)
(0.0147895 0.0351523 -6.15e-17)
(-0.000481109 0.000435197 3.26451e-17)
(0.00108419 -0.00031163 -1.05987e-17)
(-0.000489753 -0.000349644 -6.59657e-18)
(0.000382672 -0.000192755 -1.75309e-18)
(0.00188869 0.0119204 -5.12114e-18)
(0.000267986 0.000272763 -2.59252e-18)
(0.00763727 0.00637698 9.40678e-18)
(0.000372925 0.000218176 1.33152e-18)
(0.00269297 0.0290674 -4.49028e-17)
(0.0135915 4.1503e-05 4.30698e-18)
(0.000820341 4.06981e-05 -6.23076e-20)
(0.000120298 0.000462995 -1.79126e-19)
(-0.00123812 -0.000487536 -3.81739e-18)
(0.00015865 0.000450899 1.70247e-19)
(-0.00178861 0.00077889 -1.2845e-18)
(0.00785487 0.00547706 -2.81437e-17)
(-0.0439588 -0.00988676 -2.83771e-17)
(-0.0348997 -0.00272872 6.99035e-17)
(0.000300262 0.00013499 -1.06288e-19)
(0.00341025 -0.00395986 -2.1486e-17)
(0.0248678 -0.0455987 3.89557e-18)
(-0.00118178 -0.00138525 -1.92071e-17)
(0.000308437 0.000512343 1.0215e-18)
(0.000235798 -0.000195312 2.15616e-19)
(0.00110996 0.000419182 -7.26608e-18)
(0.00166173 -5.52289e-05 -2.23306e-17)
(0.000307622 0.000182565 2.68418e-19)
(0.0708902 -0.033201 -1.69047e-18)
(-0.00134859 -0.00401047 -1.41432e-17)
(0.102347 0.0389524 -1.39429e-17)
(-0.00302994 0.00165602 -7.7368e-18)
(0.00382137 0.00234149 -1.00581e-16)
(0.000391939 -0.000219884 4.25454e-19)
(0.00123376 -5.35527e-06 -6.3816e-20)
(-8.27585e-05 -0.000494539 -2.85163e-18)
(-0.00479003 0.00223982 4.36779e-17)
(4.01647e-05 0.000370292 -3.9153e-18)
(-0.00046834 -0.000288204 -6.00276e-18)
(0.0106237 0.00223524 -1.15641e-17)
(0.00101976 0.000308385 -7.1862e-18)
(0.00236674 0.00041387 4.86359e-17)
(-4.24941e-05 -0.000295066 -1.26388e-18)
(0.0308257 0.0408196 -2.03524e-17)
(-0.0241559 -0.0124942 7.50536e-18)
(0.00104202 1.46767e-05 2.95148e-20)
(0.0492523 0.0188186 -4.61706e-18)
(5.70592e-05 -0.000112967 1.33743e-18)
(0.000114417 0.000234091 -5.64571e-19)
(0.000995828 -0.000153564 -7.36388e-18)
(0.00669913 -0.000543681 2.21074e-17)
(-0.00097976 -0.000373399 5.66686e-19)
(9.46072e-05 -7.15189e-05 1.82632e-18)
(0.00880471 0.000847642 1.53276e-17)
(0.0980348 0.0390914 5.18934e-21)
(0.00029095 -0.00012509 1.68822e-18)
(0.00837299 0.00040067 7.41713e-17)
(0.00207062 -1.83675e-05 -8.29836e-17)
(0.00152972 -0.00587792 -6.78475e-18)
(0.000309913 0.000270146 9.61567e-19)
(0.00105005 -5.47466e-07 1.298e-18)
(0.00991051 0.0360564 5.70069e-18)
(-0.000143021 0.000434666 -2.35072e-18)
(0.000473031 -0.000228171 1.97096e-18)
(9.40247e-05 -0.000141582 8.62179e-20)
(3.07344e-05 0.0001682 -1.12992e-18)
(-0.000660913 -0.00321488 -2.53932e-17)
(0.00671777 -0.000848392 -5.41054e-18)
(0.00107486 0.000389799 1.0929e-17)
(0.00148299 -3.67533e-05 6.55708e-18)
(0.000449638 -6.27401e-05 -3.34553e-18)
(-0.000150887 -0.000275044 -2.07435e-19)
(0.000413393 -0.000184617 9.17953e-20)
(4.69012e-05 -5.38807e-05 3.39145e-18)
(0.0308069 0.01954 -1.88151e-19)
(0.000344928 -0.00109777 7.49509e-18)
(0.00336768 -0.00424232 3.18548e-17)
(0.0844116 0.0412206 2.34621e-18)
(3.8547e-05 0.00037641 7.7142e-18)
(0.000306168 0.00052588 6.21221e-19)
(0.00113011 5.53261e-07 9.99395e-21)
(0.0367501 0.040713 1.57121e-17)
(0.0542953 0.0201292 -1.26874e-17)
(0.000362853 -0.000239033 1.48464e-18)
(0.00048785 -6.47986e-05 2.2886e-18)
(0.000331354 -0.000234644 -4.6423e-19)
(0.000170814 0.000370044 -1.4552e-17)
(1.04363e-05 -0.000367316 1.80854e-18)
(0.00391344 -0.00976935 2.30948e-17)
(0.000118815 -0.000254545 5.41805e-19)
(3.93585e-05 -0.000154461 1.36095e-18)
(0.000492407 -0.000182782 -1.0001e-18)
(-0.000646513 0.000418714 6.65374e-18)
(-0.00091171 -0.000326807 3.94373e-18)
(0.0139675 -0.000840945 -5.35468e-17)
(-0.000685629 -0.00180893 4.94269e-18)
(-0.000711262 4.16835e-05 -5.34281e-18)
(0.0304011 0.0137793 4.80691e-18)
(-0.000517082 -0.001287 -1.15105e-17)
(0.00190738 0.000353305 -1.58403e-17)
(-2.3545e-05 0.000319004 1.34997e-17)
(-0.00259213 0.00299034 -3.98082e-17)
(-0.0213412 0.00337161 6.59324e-18)
(0.0031076 0.0420823 -1.30441e-18)
(0.000557348 7.46597e-05 -2.32344e-18)
(0.000525446 -0.000204936 8.62154e-20)
(-0.0343287 -0.0113079 -4.70669e-17)
(-0.0430094 -0.00999571 1.90026e-17)
(0.000433564 0.000344294 1.41488e-19)
(0.000388772 -0.000210633 4.41754e-19)
(0.00491164 0.00299574 1.12322e-17)
(-9.51955e-05 -0.00014328 1.82005e-18)
(-8.76241e-05 0.00254461 1.03365e-17)
(-0.0493135 -0.0148093 4.40793e-18)
(0.105656 0.0398193 1.45425e-17)
(-0.0127056 0.0226084 -1.10803e-17)
(0.000433803 -3.03429e-05 -1.87558e-20)
(0.0127777 -5.6127e-05 -1.61342e-17)
(0.000191883 -0.000194889 -7.59618e-19)
(0.000475776 0.000521886 1.36865e-18)
(0.000333134 -6.43096e-05 6.95645e-19)
(4.07133e-05 0.000355198 -1.00681e-17)
(-0.00511198 0.021204 -8.71197e-18)
(0.000312425 0.000660627 7.05198e-18)
(0.00782622 0.000761814 -2.95979e-17)
(-0.000892845 -0.000152829 -1.65516e-18)
(-0.00050352 -0.000617419 6.57313e-18)
(0.000290322 -0.000101974 1.4741e-18)
(-0.0217034 -0.00402993 1.41297e-17)
(-0.012089 0.0220963 6.49123e-18)
(0.0206153 0.015667 -5.41439e-18)
(0.000171485 -0.000213184 1.15705e-18)
(-0.00816127 0.00964785 1.02758e-17)
(0.000256642 -0.000185898 -2.20576e-19)
(8.92125e-05 0.000356594 -5.23527e-18)
(8.36686e-05 -0.00027403 -3.40402e-18)
(0.000830366 5.94015e-05 8.76649e-20)
(-0.0414134 -0.00126206 5.78625e-17)
(0.00535778 0.00438295 -4.23188e-19)
(-0.000961878 0.000706617 -1.32001e-17)
(-0.00572416 0.00274463 1.34483e-16)
(0.00111427 -3.569e-06 -3.65754e-20)
(0.0136581 0.023515 -8.41266e-18)
(0.00892627 0.00980021 7.99284e-18)
(0.0026712 0.00109938 8.89407e-18)
(0.000823275 0.000100929 8.90185e-19)
(0.0845438 0.0436923 9.78206e-18)
(0.000121654 -6.13691e-06 -3.38174e-18)
(-0.000258962 -0.000401615 -4.11446e-18)
(0.000825434 2.38468e-05 4.81441e-19)
(-0.0050759 0.0218911 -2.94248e-18)
(0.000119313 -0.000234213 6.82668e-18)
(0.000200213 0.000305353 1.65547e-17)
(-0.000577544 -0.00181364 6.48291e-18)
(-0.0335821 -0.000873949 2.61676e-17)
(0.000252991 -0.000151094 -1.7196e-19)
(-0.0126079 0.012534 1.07077e-17)
(0.00191293 0.00551933 4.02976e-18)
(0.000285921 0.0002751 -3.28573e-21)
(-0.00116017 0.00134256 6.56624e-18)
(0.000238775 -0.000192872 5.67869e-18)
(0.000486842 -5.91389e-05 -1.30828e-18)
(0.000954294 0.00033429 7.94552e-19)
(0.00217627 0.0104113 -3.30562e-17)
(-0.000114513 -0.000282401 6.17759e-18)
(-0.00271209 0.00722029 5.29605e-17)
(0.00235634 0.00137096 -1.21229e-17)
(0.000122453 0.000324888 -2.46524e-18)
(-0.00120077 -0.000482442 1.27578e-17)
(0.0590801 0.0326824 -1.12544e-17)
(0.08877 0.03778 -1.84379e-19)
(0.00407054 -0.00481498 -9.62251e-17)
(-0.0076127 0.0210852 1.78538e-18)
(0.000290048 0.000494019 2.94177e-18)
(0.000816677 6.28149e-05 -1.34403e-19)
(0.000514409 -4.88637e-05 -6.84013e-19)
(0.000259082 0.000228588 2.85992e-18)
(-0.0137656 0.0224302 -1.42713e-18)
(-0.00032246 0.00586368 -4.09503e-19)
(-0.00379422 0.00340405 -1.22723e-17)
(7.24296e-05 -8.35426e-05 -7.53768e-18)
(0.000709981 0.00197737 4.26286e-18)
(-0.00818267 0.0409733 -1.99876e-17)
(0.00212593 0.0151123 4.35389e-19)
(0.000216642 -0.000210039 -1.09295e-17)
(0.001418 6.65448e-06 -7.93158e-18)
(0.00187033 -0.00101823 3.18133e-17)
(0.00026519 0.000413746 -5.43159e-18)
(0.106357 0.0414751 -1.88951e-17)
(0.00121913 -1.02751e-06 -2.19384e-19)
(1.09532e-05 0.000266179 -4.96373e-19)
(0.0818653 -0.00136283 1.91777e-17)
(0.000114873 0.000277213 -4.46675e-18)
(6.93635e-05 0.000403721 4.39484e-18)
(0.0133527 0.0352832 9.76575e-18)
(-0.00348792 0.0240235 -1.84566e-17)
(-3.96067e-05 -0.000508479 -1.99306e-19)
(-0.000554686 0.0020586 2.11736e-17)
(0.000235917 -0.000195523 6.68309e-19)
(0.000220001 0.00035291 -6.4531e-18)
(-0.000605728 0.000382506 -3.23014e-17)
(-0.00263379 0.00295543 -4.79749e-17)
(-7.73239e-05 0.000228013 -1.98999e-17)
(0.00172887 -0.00214444 1.25824e-17)
(-0.0235227 0.0298553 1.14886e-18)
(-0.00637369 0.039858 1.43229e-17)
(-0.0289757 -0.000704924 2.60246e-17)
(-0.0214397 0.029438 1.28815e-17)
(0.000119505 -2.7296e-05 4.19497e-18)
(0.00799845 -0.00357535 2.34944e-17)
(0.000298836 0.000399047 -3.53272e-18)
(-0.0142875 0.0229445 1.49819e-17)
(0.000362624 0.000546268 -2.33102e-18)
(-0.00173575 0.00228179 7.94981e-18)
(-0.00847597 0.00920426 -1.07793e-17)
(-0.0135652 -0.0129429 1.18442e-17)
(-0.00358051 0.00333596 8.50814e-18)
(-0.0110061 0.015245 3.8112e-18)
(0.00104588 2.07339e-05 -2.02607e-20)
(0.0264217 0.0320571 -1.59678e-17)
(0.000498464 -0.000124094 3.62557e-19)
(-0.0208723 0.00232802 -2.03355e-17)
(0.000315581 -5.37554e-05 -5.75023e-19)
(-0.00130207 -0.00137866 -2.75248e-17)
(0.000235067 0.000269119 4.85413e-19)
(0.0476885 0.0349036 6.87817e-18)
(-9.34495e-06 0.00270618 -1.01299e-18)
(0.0002735 0.000183623 -1.62123e-18)
(0.000277281 -0.000216078 2.57415e-19)
(0.000817735 4.12691e-05 2.71421e-22)
(0.0588828 0.0360296 -2.43418e-18)
(-0.0393581 0.00202436 -1.7424e-18)
(-0.0356633 -0.00228597 -4.14345e-18)
(-0.00284309 0.00722168 1.04076e-17)
(-0.00166647 0.000571882 1.438e-18)
(0.007125 -0.000325485 -6.27383e-18)
(9.52181e-05 -3.59122e-05 -2.22487e-18)
(-1.75507e-05 -3.82643e-05 -4.43825e-18)
(0.0311437 0.0214033 -1.37333e-17)
(0.000290618 -0.000217432 1.9337e-19)
(5.1002e-05 0.000326068 -4.05957e-18)
(0.0107224 0.00168356 2.79779e-18)
(0.000647715 7.14755e-05 3.04113e-18)
(0.00163277 -0.0020173 1.01448e-17)
(0.00710655 6.04424e-05 -2.28795e-18)
(3.94015e-05 0.000331622 -2.30409e-18)
(0.000155019 -0.000246004 -1.51091e-18)
(7.87408e-05 0.000310505 2.84147e-17)
(0.000263806 0.000387682 3.55044e-18)
(0.000960389 0.00116659 -2.75734e-18)
(-0.00359344 0.0256487 -5.73865e-17)
(-0.0070701 -0.000536391 6.70218e-18)
(-5.13101e-05 0.000224647 1.74269e-18)
(0.00066581 0.000261142 -7.33783e-18)
(0.00014124 0.000325046 2.16378e-18)
(-0.000653868 0.000969241 -1.62797e-17)
(8.1217e-05 -6.83462e-05 -6.74e-18)
(0.00022061 0.000522431 -3.69612e-18)
(0.000425036 0.00211567 1.52477e-17)
(-0.0134524 -0.00295028 2.33441e-17)
(-0.0109352 0.0145242 3.89392e-18)
(0.0289066 0.0346274 6.84608e-18)
(0.000438136 0.000331334 1.16702e-19)
(0.000151143 0.000507416 -2.48695e-18)
(-0.0141061 -0.00402146 -2.29564e-17)
(-0.000125945 -0.00026353 -3.23454e-18)
(-0.0392061 -0.00152754 -3.06452e-17)
(-0.00126025 -0.0013512 3.32395e-17)
(0.000275779 0.000214328 -2.08601e-18)
(-0.00396154 0.0234109 5.5949e-17)
(0.0319441 0.0150079 -1.30092e-17)
(0.00506238 0.00331033 -2.66719e-18)
(0.00123658 5.19385e-06 -5.32922e-19)
(0.00039897 -0.00105456 1.28309e-18)
(0.0448276 0.0208709 1.10106e-17)
(4.62859e-05 0.000261021 1.73181e-19)
(0.000161576 0.000242514 1.27185e-18)
(-0.00114988 -0.000954861 -2.6532e-19)
(-0.00094425 -0.000336695 2.31499e-18)
(-0.000141371 -0.000337979 3.92528e-19)
(0.00120523 1.65699e-05 5.17208e-20)
(3.39015e-06 -1.86009e-05 4.58812e-18)
(-0.0354126 -0.00117191 5.0867e-17)
(0.000214901 0.000969108 2.18052e-18)
(-0.0483964 -0.014904 -1.57738e-18)
(8.96733e-05 -0.000245315 4.00005e-18)
(0.00771946 -0.00450436 -1.28043e-17)
(-0.0408891 -0.0143241 -6.61924e-17)
(0.000249305 0.000278618 3.85215e-18)
(0.000488456 -7.35937e-05 -4.98774e-19)
(0.000319166 0.000900316 -3.17251e-18)
(0.000381488 3.09603e-05 -1.96104e-18)
(0.000317509 0.000515132 -8.37912e-19)
(0.000107314 0.000275833 3.61003e-18)
(0.000198244 0.000505484 -2.31631e-18)
(0.0101439 0.0105463 -2.12221e-18)
(-0.000680149 0.000361367 1.93626e-17)
(0.000810824 -0.000104401 -8.01743e-20)
(0.041729 0.0210731 -9.86363e-18)
(-0.0278213 0.00461156 1.00287e-17)
(-4.05147e-05 0.000271906 -1.5667e-17)
(0.00837369 -0.00330691 -4.15936e-17)
(-0.00316435 0.00282185 1.78651e-18)
(8.76677e-05 0.000353963 5.16501e-18)
(-0.00668083 -0.000650974 1.98667e-18)
(0.000376454 0.00172449 -2.69311e-18)
(0.0162248 0.0184473 -6.92509e-18)
(0.000201535 0.000917279 -2.85038e-18)
(-0.00649542 0.00729405 9.38572e-18)
(0.000311222 0.000297712 1.61436e-18)
(0.0972881 0.0424387 2.65233e-18)
(0.00210215 0.00345506 1.01745e-17)
(-0.00092678 -0.000421848 9.88252e-18)
(0.00799325 0.0190925 4.92195e-18)
(0.00515637 0.000467188 -1.06381e-16)
(0.000231932 0.000871938 4.36979e-18)
(0.000304891 -4.47269e-05 2.54201e-18)
(0.00468787 0.00130042 3.03618e-18)
(0.00283751 -0.01028 -8.81166e-18)
(0.000293816 0.000500798 -3.18838e-18)
(-0.00144769 -0.00145691 1.13316e-17)
(0.000171652 -1.28487e-06 1.87597e-18)
(0.0433006 0.0420637 1.23062e-17)
(0.000333471 0.000529235 -1.36137e-18)
(0.000161735 7.93396e-05 1.59935e-18)
(0.000818803 5.07798e-05 2.96179e-20)
(0.000634228 5.6385e-05 -1.53295e-18)
(-0.0245566 0.00751614 1.54928e-17)
(0.0455342 0.0409319 -8.00663e-18)
(0.000209535 -0.000216215 2.44279e-19)
(-0.0138976 0.0349805 2.49291e-18)
(0.000107083 0.000158581 2.1287e-17)
(0.0850285 0.0373412 2.2966e-17)
(-0.0381444 0.0022744 6.86222e-18)
(-0.000864322 0.0367111 -8.13718e-18)
(0.0189285 -0.0134288 1.73944e-17)
(0.000115005 -0.000423898 1.26119e-18)
(-0.0164297 0.00655218 2.25504e-17)
(-0.0105514 0.0117056 5.68851e-18)
(0.000304008 0.000487084 1.90091e-19)
(-0.00166766 0.00744685 1.18224e-17)
(0.0281923 0.0197985 -2.5206e-18)
(0.0829362 -0.00961949 -2.14584e-18)
(-0.000421496 0.000163014 3.86901e-18)
(3.07352e-05 3.85344e-05 -2.27407e-18)
(0.000305599 0.000444714 -2.43895e-18)
(0.00121968 -1.71643e-05 5.75e-20)
(0.0585597 0.00281269 -5.96074e-19)
(0.00944102 0.0116683 -8.74366e-18)
(-0.0215029 0.00655629 6.51745e-17)
(0.0076678 0.0082486 5.75343e-18)
(0.00014198 -0.000233288 2.24793e-18)
(0.000382757 9.91994e-06 -3.9181e-19)
(0.00395113 0.00573999 -8.5501e-18)
(3.32534e-05 -4.58446e-05 -1.8527e-19)
(0.00053559 8.10827e-05 -8.00326e-19)
(0.000105065 0.000256372 -8.85794e-19)
(-0.00101023 -0.000732596 2.23616e-19)
(0.0109499 0.0104075 -1.17498e-17)
(0.00190275 0.00344433 -6.5258e-18)
(-0.000282051 -0.00373037 2.1217e-17)
(0.000633995 0.0176508 -1.00061e-17)
(0.00188807 -0.00214445 -1.1738e-17)
(0.000248604 0.000258005 3.68584e-19)
(0.000115183 0.000286721 1.65079e-19)
(0.0022896 -0.00372252 -5.44491e-17)
(0.0195082 0.0208871 7.06394e-18)
(-0.00640838 0.00684067 7.63504e-18)
(-0.00681505 -0.000681153 -2.62814e-17)
(0.00399318 0.00122058 -4.08721e-18)
(0.000200306 -0.000194037 -3.20684e-18)
(-0.0136807 0.0344387 -3.85682e-18)
(0.0907161 0.0274892 1.27157e-17)
(0.000321968 0.000532012 2.24314e-18)
(0.000394337 -0.000239464 2.44198e-18)
(-0.000356184 0.000275351 -2.27132e-17)
(-0.0230001 -0.0101171 2.00658e-17)
(-0.000532996 -0.00373229 -3.11997e-17)
(0.00058691 5.34716e-05 1.65608e-18)
(-0.0229108 0.00289199 4.45201e-17)
(0.00168639 0.00179028 -4.19352e-18)
(0.000869102 -0.00877087 -8.17398e-19)
(0.00050561 -0.000160364 7.79172e-19)
(0.00326758 0.000333636 6.41468e-17)
(0.00827133 0.000794318 7.66178e-17)
(-0.00617171 0.00284517 -2.80519e-17)
(0.000283524 0.000670806 1.03911e-17)
(-9.61813e-07 -0.00018353 4.04994e-18)
(-0.0409943 -0.00968504 2.37481e-17)
(1.23188e-06 -1.64507e-05 3.78473e-18)
(-0.0060641 0.0295351 -1.23078e-17)
(-0.0376577 -0.00219624 -6.61958e-18)
(0.0158119 -0.00202534 2.85195e-18)
(0.00473234 0.000592116 6.01821e-17)
(-0.000255321 0.015849 -4.18865e-18)
(-0.00633986 0.00677808 -7.85816e-18)
(0.00275764 0.0104533 1.63282e-17)
(0.000243226 7.13897e-05 -7.56248e-18)
(1.90555e-05 1.61612e-05 3.29942e-18)
(0.00516532 -0.00283686 -4.92003e-17)
(0.0831818 0.0470632 -1.69383e-17)
(0.00906198 0.000554007 -5.92882e-18)
(0.0989642 0.0376619 2.15053e-18)
(-0.00013109 -0.000287712 5.78396e-19)
(-0.00556645 0.029452 7.4395e-18)
(2.27683e-05 -2.81548e-05 -3.65429e-19)
(0.0045934 0.000566114 -4.55476e-18)
(-0.00400599 0.0171542 -1.18053e-17)
(0.00267132 -0.00414361 3.36898e-17)
(0.000266398 0.000190847 2.31359e-18)
(0.000176269 0.000345003 2.28604e-18)
(0.0125525 0.023093 -1.52276e-17)
(0.0364273 0.0199435 9.11825e-18)
(0.0061038 -0.00305973 3.66913e-17)
(0.0106647 0.000336959 9.06982e-19)
(0.00202401 0.0003062 -8.77485e-18)
(0.000627958 -0.000172017 4.51442e-18)
(0.00660278 0.0310541 2.01923e-18)
(4.04309e-05 -0.000123435 -1.39848e-17)
(0.000210981 -0.000188132 4.21612e-20)
(0.000267401 -6.11017e-05 -1.20327e-18)
(-0.00295479 -0.000447128 -3.2141e-18)
(-0.0100089 0.0141999 5.59359e-18)
(8.63495e-05 0.000326997 1.23023e-18)
(-0.00406244 0.0163534 6.16034e-18)
(0.000511074 -0.000106987 2.30172e-19)
(0.000909368 5.19892e-06 5.73248e-18)
(0.00053414 -8.32573e-05 2.36518e-18)
(-0.0137172 0.0109919 -6.00116e-17)
(4.45188e-05 -6.04578e-05 -7.03535e-18)
(0.000117564 -2.33755e-05 1.19619e-18)
(0.00376191 0.00567003 1.28855e-17)
(0.00402662 0.00332401 4.23127e-17)
(0.000896644 -0.000109773 -3.82037e-19)
(-0.0425784 -0.000749802 -6.01963e-17)
(-0.000108373 -0.000163629 1.05216e-18)
(0.00030974 -0.000248851 -5.88415e-19)
(0.00380494 3.09663e-05 -1.36132e-17)
(-5.75688e-05 0.000188158 -2.49943e-17)
(-0.00181864 0.000651746 1.7704e-18)
(0.000332236 0.000551867 2.70067e-18)
(-0.00588147 -0.000277043 2.36616e-18)
(-7.63491e-05 0.000281286 2.81302e-17)
(0.000939139 -0.000280467 8.21616e-18)
(0.0884857 0.0281072 -1.34367e-17)
(0.00100497 -0.000283246 5.97064e-19)
(0.0833928 0.0459619 -8.21099e-18)
(1.5953e-05 0.0003871 1.31677e-17)
(0.0100385 0.0115372 5.48309e-18)
(-0.0043978 0.00323115 -4.29715e-17)
(0.0576154 0.00181963 2.26064e-18)
(0.000330329 -0.000237408 -1.56288e-19)
(0.0198499 0.0186498 1.38237e-17)
(0.0300535 0.0249744 -3.551e-17)
(0.000890522 0.000101885 -7.49895e-20)
(-0.0275812 0.00520618 3.10589e-18)
(0.000179567 0.000288524 8.20948e-18)
(0.000557939 -9.49383e-05 -1.12843e-18)
(0.00204289 0.0026792 -1.08714e-17)
(0.000468128 1.2256e-05 2.1295e-19)
(-2.24993e-05 -0.00213317 9.05958e-18)
(0.0173322 0.0201897 -7.20167e-18)
(0.000511517 -0.000109577 -4.2592e-19)
(-0.00161229 0.00166769 8.59067e-17)
(0.000172245 -0.000405732 -1.02221e-18)
(0.00210238 0.00147252 9.63932e-18)
(0.0838682 0.0502597 1.76428e-17)
(0.00085325 -9.58448e-05 -4.75714e-19)
(-0.0253608 -0.00722509 -6.75115e-17)
(0.000352189 0.000464538 -5.8971e-20)
(5.3889e-06 -4.16391e-05 -1.18857e-18)
(0.00023146 -0.0002446 -2.06445e-18)
(0.000228734 -8.13875e-05 7.87073e-19)
(0.0184713 0.000482054 6.20118e-18)
(-0.000243395 0.000203717 -1.29299e-18)
(-0.0216114 -0.00175835 2.20911e-17)
(0.00198208 -0.00223683 -8.29032e-18)
(-0.0221592 -0.0147002 -5.60562e-17)
(0.00428688 0.00512352 1.04615e-17)
(6.01937e-05 0.000327573 9.19107e-18)
(0.0123595 0.0252612 -3.10929e-17)
(0.0100784 0.000601788 -3.80817e-17)
(0.0103953 -0.0142157 -1.91842e-17)
(-0.000268413 0.000167053 -1.12541e-17)
(0.0143092 -9.9225e-05 2.40169e-17)
(-0.0117065 0.0111667 8.78198e-18)
(0.000771457 0.000588609 1.49647e-17)
(0.018052 -0.000765264 -5.64175e-17)
(0.00032211 0.000567401 1.4615e-19)
(-0.00364041 -0.00108361 -3.66107e-17)
(0.000656283 3.29288e-05 1.80717e-18)
(0.00280321 0.000447394 -8.83175e-17)
(-0.000497763 0.00016619 -4.11801e-19)
(-0.00029654 0.000141552 -1.31378e-18)
(6.69372e-05 0.000308984 -2.79712e-18)
(0.000104465 0.000400638 2.85856e-18)
(-0.0541448 -0.0146647 -7.42465e-18)
(1.75722e-05 3.23778e-05 -1.66081e-18)
(0.000548586 3.71381e-05 -1.72983e-19)
(-0.00330559 -0.013624 7.64012e-19)
(0.000344716 0.00045654 7.69409e-19)
(0.000491271 -8.02703e-05 -1.84201e-18)
(-0.000183446 0.00617968 -1.23591e-18)
(0.0060994 -0.00115904 2.58886e-17)
(0.019356 0.000580647 -2.69986e-17)
(-0.000943463 -0.0101475 -6.5402e-17)
(0.0500236 0.0351411 9.16485e-18)
(-0.0225972 -0.00634383 -2.4497e-17)
(0.000398099 1.79356e-05 -8.26766e-20)
(-4.16396e-06 -0.000191512 1.65284e-18)
(-0.0229218 0.00206591 -3.31372e-17)
(8.17869e-05 0.000177518 -6.26511e-18)
(-0.00151565 -0.00334285 4.56398e-17)
(-6.46051e-05 0.0166305 2.72974e-18)
(0.000279531 0.000629094 1.12336e-18)
(2.74913e-05 0.000325856 2.47096e-18)
(0.000931443 -0.000131635 6.95115e-19)
(-3.80036e-05 8.06101e-05 2.39304e-18)
(-3.88225e-06 -4.55201e-05 -7.67568e-19)
(-0.00136479 0.00245926 -2.89221e-18)
(-0.00164029 -0.00387072 -3.56808e-17)