/*--------------------------------*- C++ -*----------------------------------*\
| =========                 |                                                 |
| \\      /  F ield         | OpenFOAM: The Open Source CFD Toolbox           |
|  \\    /   O peration     | Version:  v2012                                 |
|   \\  /    A nd           | Website:  www.openfoam.com                      |
|    \\/     M anipulation  |                                                 |
\*---------------------------------------------------------------------------*/
FoamFile
{
    version     2.0;
    format      ascii;
    class       volVectorField;
    location    "700";
    object      ddtCorrDdt0(U);
}
// * * * * * * * * * * * * * * * * * * * * * * * * * * * * * * * * * * * * * //

dimensions      [0 1 -2 0 0 0 0];


internalField   nonuniform List<vector> 
18758
(
(-0.000575032 -0.00136618 2.00154e-17)
(-0.0148085 -0.0148975 -4.40978e-17)
(-7.58162e-05 -5.38382e-06 3.32402e-19)
(0.0822124 0.0405516 1.27507e-17)
(-0.011363 0.012773 6.30508e-18)
(-0.0248117 -0.0149505 -9.90595e-18)
(0.00558357 0.000504566 -1.5e-16)
(-7.73806e-05 0.0001369 2.5377e-19)
(0.0209855 0.0148407 6.90532e-18)
(0.000344012 0.000170603 2.34066e-19)
(7.31245e-05 0.000616055 -4.23142e-18)
(-0.00472245 0.00314985 4.42177e-17)
(-1.38649e-05 1.03369e-05 -5.59138e-19)
(-0.0225594 0.0289812 -6.41412e-18)
(-0.00130292 -0.000982766 -1.36746e-18)
(-0.000610542 0.000418444 3.3539e-17)
(-0.00240378 0.00624787 7.27665e-19)
(-4.54709e-05 -4.0733e-06 -1.87386e-18)
(-0.000472926 -0.000298742 2.31214e-19)
(0.000406566 -6.37225e-05 4.06511e-18)
(-0.00253676 0.00382699 -7.32812e-19)
(4.63494e-06 -6.23061e-05 -5.98391e-19)
(0.00367902 0.00233767 2.11915e-17)
(0.0256382 0.033397 -1.10996e-17)
(0.00250552 -0.00969717 7.08648e-17)
(-7.13282e-05 0.000129434 -1.95451e-19)
(-0.000587997 0.000510274 1.23287e-18)
(-0.0201761 0.0058985 -8.24199e-18)
(-0.0514305 -0.0142757 -2.10658e-17)
(-0.00199195 0.00194148 -1.29183e-19)
(-0.00992328 0.0135292 7.35217e-18)
(0.0277682 0.00553052 1.12196e-18)
(1.74033e-05 -3.87285e-06 -3.17101e-19)
(-0.000735593 0.000145828 4.21355e-19)
(-0.00439623 0.0238808 1.19675e-17)
(2.1019e-05 -0.000112441 3.47111e-18)
(9.06986e-06 -9.36326e-06 -8.69587e-19)
(-0.000247684 0.000287486 -3.18944e-19)
(-0.00025794 0.000331775 1.0597e-17)
(-0.00123632 0.00673464 6.90487e-18)
(-0.000270802 0.000235239 -3.10104e-19)
(3.97299e-05 0.000348874 1.74444e-17)
(-0.0001908 -7.59914e-05 1.91625e-18)
(0.000136983 0.000306284 -2.23759e-18)
(-0.000358378 0.00252837 -9.86608e-18)
(-0.000129902 9.83489e-06 -4.58649e-21)
(0.00447336 0.00223666 -1.82722e-17)
(0.000281711 0.000551883 -4.05643e-18)
(0.000328018 0.000194865 3.37539e-19)
(-0.000174286 -0.000142594 1.09586e-18)
(0.00288771 -0.00439818 -9.73528e-18)
(0.0338491 0.0209344 1.9446e-17)
(-0.000110291 -6.848e-05 -2.2483e-19)
(3.55079e-05 0.00059619 1.20042e-17)
(-0.0239082 0.00472121 1.44928e-17)
(-0.0206864 0.00046604 -1.98826e-17)
(1.11098e-05 -9.21165e-06 4.07564e-18)
(-0.000348745 0.000413512 5.35425e-18)
(5.47408e-05 -0.000221986 6.21424e-18)
(-0.0210486 0.0307523 -1.94379e-17)
(-0.000187684 -0.00165254 2.37636e-17)
(0.00509262 0.00067753 2.04158e-16)
(0.0113119 0.00947428 -1.50348e-17)
(7.43604e-05 0.000271408 3.79371e-18)
(-0.000115255 -6.30373e-05 1.00674e-19)
(-3.72882e-06 0.000265738 4.1289e-18)
(-0.00210372 0.00720172 -2.88859e-18)
(1.81547e-05 -3.51554e-06 6.12597e-20)
(-0.000251864 0.000246259 9.3859e-19)
(0.0323414 0.0206006 -2.33562e-17)
(0.0156966 0.0176037 -2.34199e-18)
(5.42137e-05 -8.92585e-06 -2.37573e-19)
(-0.00017964 -0.00013897 -6.27778e-19)
(-0.00480033 -0.0261482 8.03769e-19)
(-0.000149093 0.0001642 3.74464e-19)
(6.36328e-05 -0.000185315 -5.79535e-18)
(0.0108411 0.0277725 -4.68018e-17)
(-0.00737663 0.014703 3.35904e-17)
(-0.000507186 -0.000241574 1.44456e-17)
(0.00386046 0.00231073 4.61559e-17)
(0.000205948 0.000681446 -1.17597e-16)
(-0.00200468 -0.000526857 -3.59407e-18)
(-0.019821 0.0308403 5.52525e-18)
(-0.0234906 -0.0116328 2.08565e-17)
(0.00978664 0.028809 4.84694e-17)
(0.000428816 0.00205401 -5.78138e-18)
(-0.00736734 0.00319471 -3.52121e-17)
(0.0111175 0.00894594 4.80659e-18)
(0.00282447 -0.000350607 5.8617e-17)
(6.245e-05 -0.000164747 -6.46266e-18)
(-0.0224857 -0.0113014 3.38988e-17)
(3.61232e-05 -0.000227308 -6.1628e-18)
(-0.00132662 0.00193789 1.10854e-16)
(3.24028e-05 0.00034122 -2.13108e-17)
(-0.000217886 -0.000237371 2.81317e-17)
(-0.000859176 0.00173928 1.40981e-16)
(0.00859694 0.0286255 -3.38993e-17)
(-0.000152945 0.000163705 -2.91734e-20)
(1.28765e-05 -0.000206753 1.93905e-18)
(-0.000950771 0.00485408 1.2586e-18)
(0.000514232 -0.000145019 -4.76404e-19)
(-0.0232055 -0.00972321 -5.16048e-18)
(0.00144562 0.0149387 -5.06777e-18)
(0.00171722 -0.00108163 2.43886e-17)
(0.0287429 0.0038267 5.73201e-18)
(-0.00242628 -0.00130609 -4.56625e-18)
(0.0342589 0.0451667 3.36969e-17)
(-0.00292076 0.0163505 -2.82199e-17)
(-7.3541e-05 0.000497458 1.38486e-18)
(1.97788e-05 -7.80533e-05 6.20116e-18)
(-0.00160716 0.00171944 -8.07625e-17)
(-0.00162249 0.00531023 5.9785e-17)
(-3.81674e-05 9.47665e-05 1.71304e-19)
(6.13832e-05 0.000412905 2.24522e-18)
(-0.0342273 -0.00103422 -1.12398e-17)
(-0.00729165 -0.00223965 -7.86093e-17)
(-0.033451 -0.00348743 -7.04761e-17)
(-0.00127973 -0.00107644 1.55867e-18)
(0.0010445 0.002686 -7.97681e-17)
(0.00179011 -0.000610532 1.27787e-17)
(0.0021068 0.00135216 6.4443e-18)
(8.29315e-06 -0.000268304 -2.15983e-18)
(-0.0300311 0.000481221 7.73785e-17)
(-0.000918027 0.000444317 7.65394e-18)
(-0.00159132 -0.0016005 1.50162e-17)
(-0.00111428 -0.000970719 -1.89402e-18)
(-0.000551825 -0.0152817 3.28845e-17)
(0.0316965 0.0177349 6.18929e-19)
(-0.000829957 0.00199286 -1.81431e-16)
(-3.18219e-05 3.08397e-06 -6.87873e-19)
(-0.00240749 0.00658105 2.0108e-17)
(-0.000896932 0.000502145 -3.33461e-18)
(-0.00197548 0.00199513 1.79229e-17)
(-0.000169358 -0.000176076 -3.52499e-18)
(-0.000296308 0.00100194 5.82975e-17)
(0.000102147 0.000382853 1.45935e-18)
(0.0109648 0.0268936 2.82913e-17)
(-0.00107558 0.00707552 -4.67711e-18)
(1.51303e-05 -0.000198542 -5.32149e-19)
(-0.000357233 9.4989e-05 -2.86268e-17)
(-0.000495676 -0.000179704 -1.41807e-17)
(-0.000969845 -0.000277883 4.21669e-18)
(7.19409e-05 0.000223644 -1.98365e-18)
(-0.0267341 0.00166053 6.43301e-17)
(-0.000276474 0.000214292 -1.31013e-18)
(-0.000549283 -0.00034757 -1.99841e-18)
(-0.0337126 0.00261991 9.0487e-18)
(0.0621344 0.000675126 -7.65093e-18)
(-0.0104806 0.012997 -8.31074e-18)
(-0.00969966 0.0179242 1.3499e-17)
(-0.00207593 -0.00226411 2.21335e-18)
(0.00106555 0.0439048 1.71821e-17)
(0.000619633 0.00185936 9.9706e-18)
(-1.43655e-06 -5.21167e-05 1.99577e-18)
(0.00647915 0.000926234 -1.07244e-18)
(0.000719451 0.00113296 6.00159e-18)
(0.00217848 0.00267757 6.72739e-17)
(0.00030495 0.000542038 2.57842e-18)
(8.54294e-05 0.000177578 8.36067e-19)
(7.98053e-07 -2.72287e-05 2.64474e-18)
(-1.09587e-05 0.00010039 5.78242e-19)
(-0.0180551 0.0302866 -2.67315e-19)
(-0.00186896 0.00189842 -1.28032e-17)
(7.53329e-05 0.000177826 2.61515e-18)
(-0.000124737 -0.00166046 -1.49123e-17)
(-0.0495174 -0.014814 3.97824e-18)
(-0.000501136 -0.0002432 5.69758e-18)
(-0.0240075 0.0020516 -6.18965e-17)
(-0.000523064 -0.00330571 -6.19685e-18)
(-0.0267012 -0.0125974 8.31384e-17)
(0.00495563 -0.00492189 1.2019e-17)
(-4.59365e-05 -1.41395e-06 -3.40109e-19)
(-0.0017507 0.00178826 -4.11155e-17)
(-0.0185458 0.00737952 -7.52839e-17)
(-0.0173353 0.0299831 2.15523e-17)
(0.0237721 0.0334157 3.15587e-17)
(-0.0453162 -0.0165702 3.01583e-17)
(7.16107e-05 0.000290992 1.24506e-17)
(-0.000348957 8.23548e-05 -7.20441e-18)
(-9.23175e-05 0.000501933 7.76129e-19)
(-2.03738e-05 2.03807e-05 2.9225e-19)
(-0.00779309 -0.000424014 -2.71181e-17)
(-0.000447193 0.0428563 -1.85175e-17)
(-0.000209483 -0.000232454 -2.63951e-18)
(-0.00202688 0.000850377 -3.17409e-18)
(0.0028304 0.0407932 -1.52858e-17)
(2.2853e-05 -0.000256382 8.78713e-18)
(-0.00669544 -0.00285972 9.46701e-17)
(-0.000181826 -8.18623e-05 5.12862e-19)
(1.01565e-05 -0.000253848 -7.74247e-18)
(-0.000173996 -0.00019969 1.09163e-17)
(0.0303841 0.0164865 -2.28924e-17)
(0.000113671 0.000534484 8.38885e-19)
(-0.0101605 0.0122715 1.0226e-18)
(9.59399e-05 -4.72986e-05 -4.25987e-18)
(0.0117923 0.00820796 4.61741e-17)
(0.000446529 -9.60636e-05 1.52408e-18)
(-0.000614435 -0.00347302 -2.59234e-19)
(2.62925e-05 -3.42875e-06 3.33993e-19)
(-0.00018972 -8.45034e-05 -1.11813e-18)
(-0.000254454 0.000180508 3.66993e-18)
(0.000290834 0.000539305 -1.77203e-18)
(0.000910783 -0.000432501 4.57746e-18)
(0.00791496 0.00616048 4.0647e-18)
(-1.71138e-05 1.47466e-05 -1.99866e-18)
(0.000120277 -3.6469e-05 3.13425e-18)
(0.00322559 0.0146687 -5.88182e-17)
(-1.22581e-06 -4.06463e-05 -1.93906e-18)
(0.00387841 0.00371908 5.83635e-18)
(0.00030161 0.000198816 -7.79061e-19)
(-4.15837e-05 -3.23806e-05 -3.93761e-20)
(0.00176549 -0.000985081 -8.70029e-18)
(0.000117453 0.000252342 1.59469e-18)
(0.00107761 -0.000341262 8.96839e-18)
(-0.000418339 -9.53624e-05 7.27385e-18)
(-0.000163853 0.00221042 -3.45121e-17)
(-0.000450219 -8.43549e-05 3.20182e-18)
(-0.000460255 0.000397583 -2.41298e-17)
(-0.00014182 4.3849e-05 5.67319e-21)
(-0.026079 -0.0152875 5.37452e-17)
(-4.36568e-05 -3.49182e-05 1.38257e-18)
(-4.43461e-05 0.000506422 8.18493e-19)
(0.0034542 0.028918 2.06281e-17)
(-0.0322413 0.00309433 -1.41775e-17)
(0.00121441 -0.00611462 -5.30749e-18)
(0.00254635 0.0145096 6.83025e-17)
(0.00445932 0.000797165 1.13047e-17)
(-4.6896e-05 -0.000397219 -2.2375e-19)
(-0.0001486 -0.000223015 7.05798e-20)
(0.00830939 0.00525011 4.77061e-17)
(-3.21914e-06 0.000237494 -9.08261e-19)
(0.0114987 0.00759641 -2.77667e-17)
(0.00485598 0.00210001 1.00242e-16)
(0.00814786 0.0299791 -2.1559e-17)
(-3.96929e-06 7.3021e-06 1.52074e-18)
(2.92576e-05 -0.000256475 -2.70947e-18)
(-0.000155466 -0.000221511 -1.32089e-18)
(-0.000122864 2.92532e-05 -3.08443e-20)
(-0.03068 0.000329789 -2.70126e-17)
(0.00149182 -8.57157e-05 4.0446e-19)
(-3.19494e-06 -2.98495e-05 1.57146e-18)
(-0.00138729 -0.00430804 4.8007e-17)
(0.0391107 0.0444008 1.65618e-17)
(-0.000405697 0.000451444 -3.98223e-18)
(-0.00594179 0.0209682 -1.61315e-17)
(-0.0117106 0.00215641 5.05599e-17)
(0.00714968 0.0298079 3.88564e-18)
(1.83392e-05 -0.000138341 2.28917e-18)
(8.78485e-05 0.000185823 6.54149e-18)
(-2.67322e-05 0.000334572 -1.66681e-17)
(2.72597e-05 -4.71701e-05 1.54587e-19)
(-0.0229981 0.0022179 2.71301e-17)
(0.000421051 0.00216658 3.32564e-18)
(-1.61851e-05 0.000320632 6.04038e-18)
(-0.000915252 -0.000638645 -8.72586e-18)
(0.00249138 0.00117033 -1.77924e-17)
(0.01478 0.0351513 -6.15e-17)
(-0.000481582 0.000435608 3.26451e-17)
(0.0010054 -0.000303064 -1.05988e-17)
(-0.000502781 -0.000345187 -6.59658e-18)
(-7.97368e-05 -0.000193605 -1.75306e-18)
(0.00184428 0.0119192 -5.12114e-18)
(4.14385e-06 0.000274739 -2.5925e-18)
(0.00760504 0.00637673 9.40681e-18)
(0.000285738 0.000226801 1.33152e-18)
(0.00267614 0.0290662 -4.49028e-17)
(0.0135915 4.15028e-05 4.30698e-18)
(-0.000143237 4.53541e-05 -6.22933e-20)
(-0.000110788 0.000470504 -1.79029e-19)
(-0.00124499 -0.000484364 -3.81739e-18)
(-0.000124433 0.00045986 1.70241e-19)
(-0.00193644 0.000779225 -1.28452e-18)
(0.00782094 0.00547694 -2.81437e-17)
(-0.0439606 -0.00988678 -2.83771e-17)
(-0.0348997 -0.00272872 6.99035e-17)
(6.79439e-05 0.000141835 -1.06339e-19)
(0.00338578 -0.00395737 -2.1486e-17)
(0.0248677 -0.0455987 3.89557e-18)
(-0.0011865 -0.00138342 -1.92071e-17)
(0.000134949 0.000521306 1.0215e-18)
(-0.000298079 -0.000190456 2.15639e-19)
(0.000980878 0.000427981 -7.26613e-18)
(0.00157722 -4.80147e-05 -2.23307e-17)
(7.14173e-05 0.000189599 2.68432e-19)
(0.0708901 -0.033201 -1.69047e-18)
(-0.00135795 -0.00400852 -1.41432e-17)
(0.102338 0.0389514 -1.39429e-17)
(-0.00302994 0.00165602 -7.7368e-18)
(0.00382141 0.00234151 -1.00581e-16)
(-0.000188272 -0.000216747 4.2545e-19)
(-7.55073e-05 -5.07788e-06 -6.38503e-20)
(-0.000109692 -0.000488342 -2.85163e-18)
(-0.00479015 0.00223985 4.36779e-17)
(1.5474e-05 0.000371426 -3.91529e-18)
(-0.000480728 -0.000283949 -6.00276e-18)
(0.0105989 0.0022353 -1.15642e-17)
(0.00091736 0.000315983 -7.18623e-18)
(0.00236676 0.00041388 4.86359e-17)
(-0.000447103 -0.00029253 -1.26398e-18)
(0.0308139 0.0408188 -2.03525e-17)
(-0.0241561 -0.0124943 7.50536e-18)
(-0.000128531 1.6502e-05 2.95143e-20)
(0.0492516 0.0188185 -4.61706e-18)
(2.12594e-05 -0.000106703 1.33744e-18)
(-0.00025501 0.000241818 -5.64507e-19)
(0.000923867 -0.00014615 -7.36384e-18)
(0.00666231 -0.000542197 2.21074e-17)
(-0.00122388 -0.000373408 5.66734e-19)
(1.76305e-05 -7.1394e-05 1.82633e-18)
(0.00880472 0.000847642 1.53276e-17)
(0.0980264 0.0390905 5.18921e-21)
(-1.50298e-05 -0.000121065 1.68822e-18)
(0.008373 0.00040067 7.41713e-17)
(0.00207063 -1.83588e-05 -8.29836e-17)
(0.00151453 -0.00587597 -6.78475e-18)
(1.87746e-08 0.000272611 9.6164e-19)
(-1.6522e-05 -4.68332e-07 1.29805e-18)
(0.00990158 0.0360558 5.70069e-18)
(-0.00038082 0.0004403 -2.35076e-18)
(-0.000203918 -0.000224318 1.97106e-18)
(-0.000310846 -0.000137274 8.62459e-20)
(8.86911e-06 0.000168511 -1.12993e-18)
(-0.000675869 -0.00321166 -2.53932e-17)
(0.00668482 -0.000846999 -5.41053e-18)
(0.000945575 0.000398781 1.09291e-17)
(0.00139672 -2.92761e-05 6.55712e-18)
(0.000377961 -5.39176e-05 -3.34555e-18)
(-0.000177645 -0.000268747 -2.07416e-19)
(-8.44625e-05 -0.000185337 9.1838e-20)
(8.22456e-07 -5.38611e-05 3.39147e-18)
(0.0307977 0.0195392 -1.88163e-19)
(0.000310802 -0.00109123 7.49512e-18)
(0.00334427 -0.00423995 3.18547e-17)
(0.0844104 0.04122 2.34621e-18)
(1.43152e-05 0.000377584 7.71422e-18)
(0.000105446 0.000535034 6.21244e-19)
(-2.58364e-05 7.27365e-07 1.00042e-20)
(0.0367383 0.0407122 1.57121e-17)
(0.0542943 0.0201291 -1.26874e-17)
(-0.000166727 -0.000236997 1.48472e-18)
(-4.1973e-05 -6.09016e-05 2.28861e-18)
(-0.000169357 -0.000232571 -4.64266e-19)
(9.05215e-05 0.000375113 -1.45521e-17)
(-2.36368e-05 -0.00036028 1.80854e-18)
(0.00390402 -0.0097684 2.30948e-17)
(8.46035e-06 -0.000253383 5.41785e-19)
(2.13738e-05 -0.000154256 1.36091e-18)
(-0.000165548 -0.00017939 -1.00011e-18)
(-0.000647584 0.000419678 6.65375e-18)
(-0.000919303 -0.000323256 3.94374e-18)
(0.0139477 -0.000841005 -5.35468e-17)
(-0.000701271 -0.00180469 4.9427e-18)
(-0.00102293 4.40066e-05 -5.34274e-18)
(0.0303918 0.0137785 4.80688e-18)
(-0.000535537 -0.00128179 -1.15106e-17)
(0.00183976 0.000357951 -1.58404e-17)
(-4.39974e-05 0.000321092 1.34997e-17)
(-0.00259226 0.00299039 -3.98082e-17)
(-0.0213412 0.00337161 6.59324e-18)
(0.00309886 0.0420814 -1.30441e-18)
(-9.99838e-06 7.59561e-05 -2.32353e-18)
(0.000464644 -0.000197001 8.62144e-20)
(-0.0343346 -0.0113077 -4.70669e-17)
(-0.0430109 -0.00999575 1.90026e-17)
(0.000312981 0.000354019 1.41488e-19)
(-0.000193367 -0.000207235 4.41767e-19)
(0.00486152 0.00299682 1.12323e-17)
(-0.000446153 -0.000139304 1.82011e-18)
(-0.000189281 0.0025462 1.03366e-17)
(-0.049319 -0.0148095 4.40795e-18)
(0.105655 0.0398189 1.45425e-17)
(-0.0127379 0.0226068 -1.10803e-17)
(0.00036048 -2.15072e-05 -1.87532e-20)
(0.0127777 -5.61271e-05 -1.61342e-17)
(5.90609e-05 -0.000191778 -7.59568e-19)
(0.000312112 0.000530928 1.36872e-18)
(5.00798e-05 -5.78043e-05 6.95645e-19)
(-0.000226615 0.000362225 -1.00683e-17)
(-0.0051388 0.0212026 -8.71196e-18)
(0.000125725 0.000668015 7.05193e-18)
(0.00782624 0.000761814 -2.95979e-17)
(-0.000898767 -0.000149791 -1.65516e-18)
(-0.000861314 -0.000618417 6.57325e-18)
(-1.8899e-05 -9.80217e-05 1.47408e-18)
(-0.0217033 -0.00402993 1.41297e-17)
(-0.0121219 0.0220947 6.49124e-18)
(0.0206003 0.015666 -5.41439e-18)
(4.77687e-05 -0.000210367 1.15701e-18)
(-0.00822794 0.00964599 1.02759e-17)
(-0.00028809 -0.000180907 -2.20572e-19)
(3.60592e-05 0.000360534 -5.23524e-18)
(9.84775e-06 -0.000273207 -3.40405e-18)
(-0.00013861 6.41819e-05 8.76623e-20)
(-0.0414134 -0.00126206 5.78625e-17)
(0.00535777 0.00438294 -4.23188e-19)
(-0.000963769 0.000708021 -1.32001e-17)
(-0.00572467 0.00274481 1.34483e-16)
(-4.80728e-05 -3.06312e-06 -3.66059e-20)
(0.0136424 0.0235138 -8.41265e-18)
(0.0089262 0.00980019 7.99284e-18)
(0.00258882 0.00110352 8.89407e-18)
(-4.09416e-05 0.000105731 8.90201e-19)
(0.0845425 0.0436917 9.78206e-18)
(-0.000282266 -8.5454e-07 -3.3818e-18)
(-0.000591113 -0.00040093 -4.11448e-18)
(-2.11864e-05 2.83073e-05 4.81531e-19)
(-0.00510748 0.0218894 -2.9425e-18)
(1.00861e-05 -0.000232866 6.82677e-18)
(0.00012478 0.000312312 1.65548e-17)
(-0.000594685 -0.00180913 6.48292e-18)
(-0.0335835 -0.000873859 2.61676e-17)
(-0.000307345 -0.000145339 -1.71944e-19)
(-0.0126081 0.0125339 1.07077e-17)
(0.0018421 0.00551952 4.0298e-18)
(-7.70661e-06 0.000277372 -3.34717e-21)
(-0.00131513 0.00134403 6.56633e-18)
(6.14492e-05 -0.000188741 5.6787e-18)
(-4.26751e-05 -5.51386e-05 -1.30826e-18)
(0.000848843 0.000341912 7.94565e-19)
(0.00212393 0.0104102 -3.30563e-17)
(-0.000141266 -0.000276259 6.17763e-18)
(-0.00271211 0.00722028 5.29605e-17)
(0.00227027 0.00137491 -1.2123e-17)
(6.30244e-06 0.000325405 -2.46525e-18)
(-0.00120739 -0.000479387 1.27578e-17)
(0.0590775 0.0326821 -1.12544e-17)
(0.0887664 0.0377793 -1.84378e-19)
(0.0040706 -0.00481498 -9.62251e-17)
(-0.00764679 0.0210836 1.78539e-18)
(0.000126759 0.000502236 2.94179e-18)
(-0.000135796 6.73507e-05 -1.34403e-19)
(-1.98252e-06 -4.26014e-05 -6.84049e-19)
(9.89327e-05 0.000234938 2.8599e-18)
(-0.0137979 0.0224286 -1.42713e-18)
(-0.000400216 0.00586339 -4.09468e-19)
(-0.00390075 0.00340312 -1.22724e-17)
(3.61006e-05 -7.74354e-05 -7.5377e-18)
(0.000604578 0.00198025 4.26296e-18)
(-0.00819122 0.0409726 -1.99877e-17)
(0.00208592 0.0151108 4.35388e-19)
(4.82141e-05 -0.000206261 -1.09296e-17)
(0.00134138 1.31712e-05 -7.93163e-18)
(0.00187034 -0.00101823 3.18133e-17)
(0.000142858 0.000420424 -5.43169e-18)
(0.106356 0.0414747 -1.88951e-17)
(-1.483e-05 -9.06364e-07 -2.19427e-19)
(3.62229e-06 0.000266179 -4.96371e-19)
(0.0818651 -0.00136287 1.91777e-17)
(6.54633e-05 0.000282349 -4.46671e-18)
(-0.000188162 0.000411149 4.3949e-18)
(0.0133433 0.0352822 9.76576e-18)
(-0.00351526 0.0240219 -1.84567e-17)
(-7.01258e-05 -0.000501641 -1.99307e-19)
(-0.000554727 0.00205865 2.11736e-17)
(5.04131e-05 -0.00019123 6.68418e-19)
(9.94031e-05 0.000358932 -6.45319e-18)
(-0.000606492 0.000383194 -3.23014e-17)
(-0.0026339 0.00295548 -4.79749e-17)
(-9.59956e-05 0.000230623 -1.98999e-17)
(0.00169185 -0.0021394 1.25824e-17)
(-0.023549 0.0298539 1.14885e-18)
(-0.00638393 0.0398571 1.43229e-17)
(-0.0289757 -0.000704924 2.60246e-17)
(-0.0214656 0.0294367 1.28816e-17)
(4.68838e-05 -2.55013e-05 4.19501e-18)
(0.00797523 -0.00357434 2.34945e-17)
(6.59484e-05 0.000407282 -3.53278e-18)
(-0.0143185 0.022943 1.49819e-17)
(0.000164057 0.000555983 -2.33101e-18)
(-0.00173585 0.00228184 7.94981e-18)
(-0.00854267 0.00920241 -1.07794e-17)
(-0.0135723 -0.0129426 1.18442e-17)
(-0.00369817 0.00333502 8.50828e-18)
(-0.011055 0.0152431 3.81119e-18)
(-0.000126301 2.28196e-05 -2.02579e-20)
(0.026414 0.0320562 -1.59678e-17)
(-0.000183125 -0.000119651 3.62529e-19)
(-0.0208723 0.00232802 -2.03355e-17)
(5.21122e-05 -4.755e-05 -5.75021e-19)
(-0.0013113 -0.00137547 -2.75248e-17)
(1.76697e-05 0.000270437 4.85439e-19)
(0.0476802 0.034903 6.87817e-18)
(-0.000111232 0.0027077 -1.01292e-18)
(2.31556e-05 0.000184854 -1.62129e-18)
(1.13601e-05 -0.000211596 2.57384e-19)
(-2.38802e-05 4.5704e-05 2.43734e-22)
(0.058879 0.0360292 -2.43418e-18)
(-0.0393581 0.00202436 -1.7424e-18)
(-0.035666 -0.00228635 -4.14346e-18)
(-0.00291535 0.00722061 1.04076e-17)
(-0.00189113 0.000572333 1.43798e-18)
(0.00708835 -0.000324175 -6.27381e-18)
(1.29107e-06 -3.58706e-05 -2.22487e-18)
(6.01099e-06 -3.82684e-05 -4.43825e-18)
(0.0311431 0.0214032 -1.37333e-17)
(1.26513e-05 -0.000212717 1.93416e-19)
(7.35062e-06 0.000326131 -4.05957e-18)
(0.0106948 0.00168367 2.7978e-18)
(-1.25638e-05 7.29584e-05 3.04129e-18)
(0.00159216 -0.0020117 1.01448e-17)
(0.00707364 6.15418e-05 -2.28797e-18)
(2.68436e-06 0.000331669 -2.30411e-18)
(1.23969e-05 -0.000244155 -1.51098e-18)
(3.5854e-05 0.000314596 2.84147e-17)
(0.000131408 0.000394666 3.55051e-18)
(0.000820284 0.00117254 -2.75745e-18)
(-0.00359577 0.0256483 -5.73865e-17)
(-0.00719341 -0.000538845 6.70221e-18)
(-7.32053e-05 0.000227684 1.74269e-18)
(0.000544209 0.000271052 -7.3379e-18)
(9.5721e-06 0.000325599 2.1638e-18)
(-0.000653942 0.000969381 -1.62797e-17)
(3.83377e-05 -6.76423e-05 -6.74001e-18)
(-1.04948e-05 0.000531012 -3.69616e-18)
(0.00042365 0.00211692 1.52477e-17)
(-0.0134524 -0.00295028 2.33441e-17)
(-0.0109817 0.0145225 3.89398e-18)
(0.0288984 0.0346267 6.84609e-18)
(0.00031461 0.000341553 1.16702e-19)
(-3.58052e-05 0.000514176 -2.48699e-18)
(-0.014106 -0.00402146 -2.29564e-17)
(-0.000488674 -0.000260885 -3.23456e-18)
(-0.0392061 -0.00152754 -3.06452e-17)
(-0.00127002 -0.00134785 3.32395e-17)
(2.19479e-05 0.000215631 -2.08603e-18)
(-0.00396378 0.0234106 5.5949e-17)
(0.031935 0.0150072 -1.30092e-17)
(0.00500933 0.00331132 -2.66723e-18)
(-3.49589e-05 5.75917e-06 -5.32982e-19)
(0.000360743 -0.00104747 1.2831e-18)
(0.0448269 0.0208708 1.10106e-17)
(-0.00025838 0.000267762 1.73221e-19)
(-0.000234377 0.00025016 1.27188e-18)
(-0.00139494 -0.000956636 -2.65298e-19)
(-0.00118396 -0.000336539 2.31499e-18)
(-0.00057051 -0.00033619 3.92582e-19)
(-0.000101406 1.76674e-05 5.17065e-20)
(3.39015e-06 -1.86009e-05 4.58812e-18)
(-0.0354145 -0.00117179 5.0867e-17)
(7.63978e-05 0.000973583 2.18046e-18)
(-0.0483989 -0.0149042 -1.57738e-18)
(1.00856e-05 -0.000244616 4.00011e-18)
(0.00769999 -0.00450342 -1.28043e-17)
(-0.0408946 -0.0143242 -6.61924e-17)
(3.44724e-06 0.000280392 3.85217e-18)
(-0.000187379 -6.87516e-05 -4.98781e-19)
(0.000164824 0.000905868 -3.17258e-18)
(2.42987e-05 3.17486e-05 -1.96112e-18)
(0.000142255 0.00052443 -8.37922e-19)
(4.73907e-05 0.000278137 3.61008e-18)
(-8.54922e-05 0.0005143 -2.31631e-18)
(0.0101181 0.0105455 -2.12222e-18)
(-0.000681041 0.000362145 1.93626e-17)
(-0.00010792 -0.000102125 -8.01471e-20)
(0.0417284 0.0210729 -9.86363e-18)
(-0.0278213 0.00461152 1.00287e-17)
(-5.23814e-05 0.000273359 -1.5667e-17)
(0.00835151 -0.00330601 -4.15936e-17)
(-0.00316626 0.00282335 1.7865e-18)
(3.29297e-05 0.000358195 5.16496e-18)
(-0.00681875 -0.000653648 1.98669e-18)
(0.00024787 0.00172794 -2.69304e-18)
(0.0162245 0.0184472 -6.92509e-18)
(6.08108e-05 0.000921906 -2.85032e-18)
(-0.00656415 0.00729254 9.3857e-18)
(7.72093e-05 0.000305403 1.61436e-18)
(0.0972879 0.0424386 2.65233e-18)
(0.00204104 0.00345619 1.01744e-17)
(-0.000935085 -0.000418184 9.88252e-18)
(0.00796772 0.0190911 4.92195e-18)
(0.00515639 0.000467189 -1.06381e-16)
(9.1888e-05 0.000876845 4.36981e-18)
(6.73449e-05 -3.85814e-05 2.54199e-18)
(0.00463569 0.00130244 3.03617e-18)
(0.00282983 -0.0102792 -8.81166e-18)
(0.000133669 0.000509104 -3.18837e-18)
(-0.00145654 -0.00145404 1.13316e-17)
(6.38997e-05 1.88164e-06 1.87599e-18)
(0.0432964 0.0420632 1.23062e-17)
(0.000150504 0.000539176 -1.36138e-18)
(-0.000267912 8.57106e-05 1.59931e-18)
(-2.51147e-05 5.54641e-05 2.9671e-20)
(-9.54715e-06 5.74767e-05 -1.53295e-18)
(-0.0245566 0.00751609 1.54928e-17)
(0.0455301 0.0409314 -8.00663e-18)
(5.55049e-05 -0.000212755 2.44225e-19)
(-0.0139137 0.0349794 2.49291e-18)
(6.43352e-05 0.000164036 2.12871e-17)
(0.0850257 0.0373406 2.2966e-17)
(-0.0381444 0.0022744 6.86222e-18)
(-0.000874057 0.0367104 -8.13718e-18)
(0.0189206 -0.013429 1.73944e-17)
(-0.000293282 -0.000424764 1.26124e-18)
(-0.01643 0.00655208 2.25504e-17)
(-0.0106108 0.0117037 5.68852e-18)
(2.59785e-05 0.000495961 1.90087e-19)
(-0.00173642 0.00744594 1.18223e-17)
(0.0281918 0.0197984 -2.5206e-18)
(0.0829364 -0.00961944 -2.14584e-18)
(-0.000694422 0.000166855 3.86911e-18)
(1.77293e-05 3.86388e-05 -2.27408e-18)
(4.91175e-05 0.000453303 -2.43897e-18)
(-8.56301e-05 -1.66189e-05 5.75247e-20)
(0.0585597 0.00281269 -5.96074e-19)
(0.0094134 0.0116674 -8.74369e-18)
(-0.021503 0.00655622 6.51745e-17)
(0.00766777 0.00824859 5.75343e-18)
(4.40356e-05 -0.000231348 2.24792e-18)
(2.65596e-05 1.06667e-05 -3.91953e-19)
(0.00390026 0.00574006 -8.55016e-18)
(2.63794e-06 -4.58318e-05 -1.85269e-19)
(-1.15832e-05 8.78315e-05 -8.00352e-19)
(3.83084e-05 0.000258825 -8.85837e-19)
(-0.00127804 -0.000733887 2.23579e-19)
(0.0109259 0.0104068 -1.17498e-17)
(0.00182668 0.00344569 -6.52575e-18)
(-0.000297376 -0.00372742 2.12171e-17)
(0.00063374 0.0176507 -1.00061e-17)
(0.00185225 -0.00213984 -1.17381e-17)
(1.63941e-05 0.000259343 3.68633e-19)
(6.2674e-05 0.000291973 1.64995e-19)
(0.00226186 -0.00371909 -5.44491e-17)
(0.0195078 0.020887 7.06394e-18)
(-0.00649158 0.00683892 7.63508e-18)
(-0.00681958 -0.000679822 -2.62814e-17)
(0.00393476 0.00122311 -4.08719e-18)
(5.07654e-05 -0.000190609 -3.20681e-18)
(-0.0136973 0.0344376 -3.85682e-18)
(0.0907117 0.0274887 1.27157e-17)
(0.000119075 0.000541813 2.24317e-18)
(-0.000194745 -0.000236694 2.44209e-18)
(-0.00035805 0.00027617 -2.27132e-17)
(-0.0230001 -0.0101172 2.00658e-17)
(-0.000545611 -0.00372977 -3.11997e-17)
(-1.32577e-05 5.4468e-05 1.65606e-18)
(-0.0229108 0.00289199 4.45201e-17)
(0.00168639 0.00179028 -4.19352e-18)
(0.00086112 -0.00876994 -8.17412e-19)
(-0.000168832 -0.000156671 7.79218e-19)
(0.00326759 0.000333637 6.41468e-17)
(0.00827134 0.000794318 7.66178e-17)
(-0.00617239 0.00284543 -2.80519e-17)
(8.44396e-05 0.000678378 1.03912e-17)
(2.73525e-06 -0.000183528 4.04994e-18)
(-0.0409969 -0.00968536 2.37482e-17)
(1.23189e-06 -1.64507e-05 3.78473e-18)
(-0.00608504 0.0295337 -1.23078e-17)
(-0.0376577 -0.00219625 -6.61958e-18)
(0.0157958 -0.0020255 2.85194e-18)
(0.00473236 0.000592116 6.01821e-17)
(-0.000294518 0.0158474 -4.18865e-18)
(-0.00633988 0.00677808 -7.85816e-18)
(0.0027064 0.0104522 1.63283e-17)
(8.02355e-05 7.67528e-05 -7.56258e-18)
(6.77364e-06 1.62468e-05 3.29943e-18)
(0.00516535 -0.00283686 -4.92003e-17)
(0.0831793 0.0470625 -1.69383e-17)
(0.009062 0.000554006 -5.92882e-18)
(0.0989637 0.0376614 2.15053e-18)
(-0.00049529 -0.000285325 5.78361e-19)
(-0.00558722 0.0294506 7.43952e-18)
(1.36253e-06 -2.81473e-05 -3.65429e-19)
(0.00454846 0.000568236 -4.55479e-18)
(-0.00404709 0.0171525 -1.18053e-17)
(0.00264823 -0.00414095 3.36898e-17)
(2.34962e-05 0.000192051 2.31359e-18)
(0.000105865 0.0003508 2.28598e-18)
(0.0125348 0.0230918 -1.52276e-17)
(0.0364267 0.0199434 9.11825e-18)
(0.00610383 -0.00305973 3.66913e-17)
(0.0106647 0.000336959 9.06982e-19)
(0.0019535 0.000311111 -8.7749e-18)
(0.000562788 -0.000164073 4.51443e-18)
(0.00658933 0.031053 2.01922e-18)
(2.2414e-05 -0.000123218 -1.39848e-17)
(-0.000265999 -0.000184013 4.21112e-20)
(-6.66561e-06 -5.76891e-05 -1.2033e-18)
(-0.00314849 -0.000448983 -3.21419e-18)
(-0.010055 0.0141982 5.59356e-18)
(5.67702e-06 0.000327374 1.23022e-18)
(-0.00410486 0.0163518 6.16039e-18)
(-7.10347e-06 -0.000100825 2.30176e-19)
(-2.90656e-05 5.3831e-06 5.73306e-18)
(-4.05929e-05 -7.90562e-05 2.36533e-18)
(-0.0137174 0.0109918 -6.00116e-17)
(2.22024e-05 -6.0159e-05 -7.03537e-18)
(1.44027e-06 -2.33387e-05 1.19618e-18)
(0.00370013 0.00567022 1.28856e-17)
(0.00396232 0.00332533 4.23128e-17)
(-0.000112025 -0.000107099 -3.82094e-19)
(-0.0425784 -0.000749802 -6.01963e-17)
(-0.000454476 -0.000159852 1.05213e-18)
(-0.000135191 -0.000249364 -5.88429e-19)
(0.0037562 3.38919e-05 -1.36132e-17)
(-7.93769e-05 0.000191397 -2.49944e-17)
(-0.00197805 0.000651985 1.77043e-18)
(0.000170097 0.0005603 2.70071e-18)
(-0.00588607 -0.000275723 2.36616e-18)
(-8.99677e-05 0.000283045 2.81302e-17)
(0.000862843 -0.000271888 8.21621e-18)
(0.0884815 0.0281068 -1.34368e-17)
(0.000927754 -0.000274681 5.97061e-19)
(0.0833911 0.0459612 -8.21099e-18)
(7.73447e-06 0.000387266 1.31677e-17)
(0.0100127 0.0115363 5.48311e-18)
(-0.00439845 0.00323147 -4.29715e-17)
(0.0576154 0.00181963 2.26064e-18)
(-0.000185475 -0.000235045 -1.56266e-19)
(0.0198496 0.0186497 1.38237e-17)
(0.0300449 0.0249735 -3.55101e-17)
(-9.73841e-05 0.000105813 -7.50016e-20)
(-0.0275812 0.00520618 3.10589e-18)
(1.44512e-05 0.000289352 8.20961e-18)
(-3.62099e-05 -9.06318e-05 -1.12845e-18)
(0.0019565 0.00268149 -1.08715e-17)
(-4.45463e-05 1.58432e-05 2.12952e-19)
(-4.09425e-05 -0.0021292 9.05956e-18)
(0.0173318 0.0201896 -7.20167e-18)
(-0.000179471 -0.000105131 -4.26002e-19)
(-0.00161245 0.00166779 8.59067e-17)
(-0.000273876 -0.000406632 -1.0222e-18)
(0.00201966 0.00147611 9.63952e-18)
(0.0838656 0.0502589 1.76428e-17)
(-9.64176e-05 -9.38757e-05 -4.75734e-19)
(-0.0253608 -0.00722514 -6.75115e-17)
(0.000210293 0.000473993 -5.89722e-20)
(-0.000412582 -3.56526e-05 -1.18857e-18)
(1.59387e-05 -0.000240983 -2.06443e-18)
(-7.03295e-06 -7.83894e-05 7.87076e-19)
(0.0184554 0.000481652 6.20121e-18)
(-0.000249979 0.000205516 -1.29298e-18)
(-0.0216114 -0.00175835 2.20911e-17)
(0.00194984 -0.00223273 -8.29032e-18)
(-0.0221594 -0.0147003 -5.60562e-17)
(0.00423491 0.0051238 1.04615e-17)
(6.10512e-06 0.000327813 9.19111e-18)
(0.0123449 0.0252601 -3.10929e-17)
(0.0100785 0.000601788 -3.80817e-17)
(0.0103873 -0.0142159 -1.91843e-17)
(-0.00027416 0.000168775 -1.12541e-17)
(0.0142899 -9.93477e-05 2.40169e-17)
(-0.0117681 0.0111647 8.78201e-18)
(0.000661491 0.000594921 1.49648e-17)
(0.0180361 -0.000765592 -5.64175e-17)
(0.00013437 0.000576796 1.46157e-19)
(-0.00364483 -0.00108203 -3.66107e-17)
(-1.74655e-05 3.36372e-05 1.80716e-18)
(0.00280322 0.000447395 -8.83175e-17)
(-0.000766573 0.000169604 -4.11826e-19)
(-0.000302822 0.000143459 -1.31376e-18)
(2.55909e-05 0.000312904 -2.79716e-18)
(-0.000181441 0.000408828 2.85851e-18)
(-0.0541486 -0.0146648 -7.42468e-18)
(1.19303e-05 3.24053e-05 -1.66081e-18)
(-8.40043e-06 4.37388e-05 -1.72969e-19)
(-0.00331285 -0.0136237 7.64008e-19)
(0.000205857 0.000465881 7.69408e-19)
(-4.17207e-05 -7.62628e-05 -1.84207e-18)
(-0.000256302 0.00617931 -1.23591e-18)
(0.00606902 -0.00115752 2.58887e-17)
(0.0193394 0.000580179 -2.69986e-17)
(-0.000951188 -0.0101467 -6.5402e-17)
(0.0500167 0.0351405 9.16485e-18)
(-0.0225971 -0.00634383 -2.4497e-17)
(2.5225e-05 1.87197e-05 -8.26763e-20)
(1.05666e-06 -0.000191511 1.65284e-18)
(-0.0229218 0.00206591 -3.31372e-17)
(-3.67161e-06 0.000178226 -6.26513e-18)
(-0.00152417 -0.00334088 4.56398e-17)
(-0.000100074 0.016629 2.7297e-18)
(7.92925e-05 0.000636811 1.1233e-18)
(4.77491e-06 0.000325877 2.47095e-18)