/*--------------------------------*- C++ -*----------------------------------*\
| =========                 |                                                 |
| \\      /  F ield         | OpenFOAM: The Open Source CFD Toolbox           |
|  \\    /   O peration     | Version:  v2012                                 |
|   \\  /    A nd           | Website:  www.openfoam.com                      |
|    \\/     M anipulation  |                                                 |
\*---------------------------------------------------------------------------*/
FoamFile
{
    version     2.0;
    format      ascii;
    class       volScalarField;
    location    "1000";
    object      k;
}
// * * * * * * * * * * * * * * * * * * * * * * * * * * * * * * * * * * * * * //

dimensions      [0 2 -2 0 0 0 0];


internalField   nonuniform List<scalar> 
18355
(
0.0223963
0.000136983
0.000240632
0.000140864
0.000166344
0.000978776
0.000146688
0.000175131
0.00015195
0.00183392
0.000159861
0.000205168
0.000206724
0.00162104
0.000142817
0.000135449
0.000140851
0.000157423
0.00023446
0.000152882
0.0329525
0.000148962
0.000136917
0.000705655
0.000136994
0.000149706
0.000146833
0.00014096
0.000152669
0.00016147
0.00206566
0.000176104
0.000137584
0.000134311
0.000144887
0.000148645
0.000159136
0.000148895
0.000162262
0.000149253
0.00015118
0.00016083
0.000134453
0.000136804
0.000136904
0.000235603
0.000141078
0.000140964
0.00146956
0.000144239
0.000142267
0.0155382
0.000144536
0.000233651
0.000143053
0.000152866
0.000144877
0.000562967
0.000149939
0.00150238
0.000134405
0.000195997
0.000230323
0.000145239
0.000183348
0.000140288
0.000153627
0.000159191
0.000134079
0.00286426
0.000142234
0.000143088
0.000170157
0.000160177
0.00344078
0.000134235
0.000554754
0.00013434
0.000141984
0.00278789
0.000153579
0.00162204
0.000134184
0.000155183
0.000176291
0.000149509
0.000153391
0.000169574
0.000140487
0.000169578
0.00159566
0.0035184
0.00123642
0.000144211
0.00347974
0.000146914
0.000140056
0.000144804
0.000194481
0.000148689
0.000174373
0.000141599
0.000143951
0.000130532
0.000153972
0.000135568
0.000182972
0.00345748
0.000164425
0.000135035
0.000141753
0.000147212
0.000166326
0.000154811
0.000249256
0.000159618
0.000141372
0.00347354
0.000152143
0.000153306
0.00122099
0.000240449
0.00304027
0.000174448
0.00320065
0.000241796
0.000146881
0.000141202
0.0248933
0.00014753
0.000140135
0.0169322
0.0001435
0.000195797
0.000211184
0.000140492
0.000237393
0.00421227
0.000142371
0.0133256
0.000156004
0.000251463
0.000140889
0.00296288
0.000210826
0.000146517
0.00104056
0.000131295
0.000166203
0.00189816
0.000140885
0.000153132
0.000145414
0.000178448
0.000134561
0.000138256
0.000141375
0.000149406
0.000140962
0.000139289
0.00015817
0.00014362
0.000135097
0.000199721
0.000160863
0.000304919
0.0014372
0.0402125
0.0240256
0.000155979
0.000146201
0.000193229
0.000148413
0.000909776
0.000145426
0.000150549
0.00014648
0.000130215
0.000151076
0.000159231
0.000149694
0.000274216
0.000148366
0.000141216
0.000340763
0.000143904
0.000150156
0.000168318
0.000143264
0.000147276
0.000237721
0.000194192
0.000137248
0.000134977
0.000143789
0.000253034
0.000139432
0.0406816
0.000137076
0.00126189
0.000143683
0.000154848
0.000163054
0.0001494
0.0386583
0.000146728
0.0181829
0.000141182
0.000137077
0.000144804
0.000146972
0.000249937
0.000151968
0.000148646
0.000131475
0.000827234
0.000159259
0.000156134
0.000146952
0.000141219
0.0001633
0.000134063
0.000167905
0.000179163
0.000262401
0.00015945
0.000134294
0.00419207
0.000903172
0.000165647
0.000145406
0.000153979
0.000411629
0.000134234
0.000201533
0.000229675
0.000148924
0.00023812
0.000155296
0.000148789
0.000137297
0.000150835
0.000146751
0.000163929
0.000146741
0.000143052
0.000140887
0.000250009
0.000305129
0.000142991
0.000147243
0.000285408
0.000220326
0.000181501
0.000130244
0.00021779
0.000155285
0.000147429
0.000159134
0.000139636
0.00161593
0.00131055
0.000190659
0.000161863
0.000163969
0.000199583
0.000211638
0.00019828
0.00013958
0.000143092
0.000147998
0.000135099
0.00015487
0.000156414
0.000140627
0.000146919
0.000173023
0.000140344
0.00019697
0.00717561
0.000168894
0.000147213
0.000160835
0.000134981
0.000170477
0.000146078
0.000160203
0.000148606
0.000159691
0.00464141
0.000137322
0.000175845
0.000151732
0.00015946
0.00021511
0.000145166
0.000134767
0.000193354
0.000146929
0.000263017
0.000159235
0.00418979
0.000171681
0.000191441
0.000156056
0.000175485
0.000143864
0.000153815
0.000161279
0.000175841
0.000363534
0.000265241
0.000142063
0.000155116
0.000220468
0.000161663
0.000141996
0.000140911
0.000140901
0.000177809
0.000263974
0.00034153
0.000314786
0.000171823
0.000155551
0.000352612
0.000131183
0.000146499
0.000155484
0.000144061
0.000165577
0.0001441
0.000498716
0.000135866
0.00319839
0.000143491
0.000148993
0.000157137
0.000211977
0.0380738
0.000163935
0.000316018
0.00014924
0.000140605
0.000143951
0.000162394
0.00189366
0.000140846
0.000145301
0.00056947
0.000148846
0.00014095
0.000219053
0.000159669
0.000140894
0.000144771
0.000161159
0.000151825
0.000161084
0.000135437
0.000145238
0.0001485
0.000551438
0.000410367
0.000135142
0.000140705
0.000195269
0.000140963
0.000147954
0.000368599
0.000444586
0.000177374
0.000143805
0.000149126
0.000207671
0.000149049
0.000225639
0.000153962
0.000136543
0.000189446
0.000195386
0.000148033
0.00014411
0.000157499
0.000146231
0.000155813
0.000143737
0.000197538
0.000146876
0.000152707
0.000142738
0.000140948
0.000154254
0.000149519
0.000187984
0.000397437
0.000578157
0.000154152
0.000220156
0.000184517
0.000143706
0.000143763
0.000173668
0.000143276
0.000180734
0.000145982
0.000164437
0.000396944
0.000276379
0.0393759
0.000193008
0.000130671
0.000563099
0.000148671
0.000140563
0.0329476
0.000143054
0.000179386
0.000136909
0.000188797
0.000143022
0.000191898
0.00459897
0.00018786
0.000144152
0.000137454
0.000189235
0.000152096
0.000143117
0.000698634
0.000700383
0.000140508
0.000174268
0.000188297
0.000137376
0.000150468
0.000162378
0.000531574
0.00017122
0.00014888
0.000144143
0.000169561
0.000144505
0.000136066
0.000144075
0.000277547
0.000406761
0.000136332
0.000151439
0.000145135
0.000213785
0.000197854
0.00013489
0.000180019
0.000168609
0.00014517
0.000252989
0.000196127
0.000148562
0.000145948
0.000170005
0.000214496
0.00162935
0.000136109
0.0386101
0.000142865
0.000136312
0.00017368
0.000152345
0.000199341
0.000169927
0.000152984
0.000161555
0.000148976
0.000218354
0.000152498
0.000160368
0.000149039
0.00013588
0.000147747
0.000136073
0.000196201
0.000366054
0.000188333
0.000158653
0.000147502
0.000149068
0.000146273
0.000156105
0.000145937
0.000135514
0.000143684
0.000170862
0.000137403
0.000145827
0.0281348
0.0405913
0.000223487
0.000147352
0.000150999
0.000162423
0.000148805
0.00140268
0.000253838
0.000154204
0.000155409
0.000161896
0.000150171
0.000153542
0.0274691
0.00016332
0.000147978
0.00469593
0.000146957
0.0400311
6.78508e-05
0.00015601
0.000150214
0.0298115
0.000140688
0.000190401
0.000177159
0.00606022
0.000152575
0.000147605
0.000145036
0.00373948
0.00114887
0.00569298
0.00418487
0.000155402
0.000144898
0.000155152
0.000143105
0.000153161
0.0233904
0.000989893
0.000385152
0.000300421
0.00016595
0.000173543
0.000168336
0.000141132
0.000142236
0.000169723
0.000157179
0.000146281
0.000143055
0.00465663
0.000139962
0.000306181
0.000157787
0.000195369
0.000209756
0.000142294
0.000154862
0.034878
0.00014364
0.000400857
0.000143455
6.99718e-05
0.000163213
0.000149175
0.000168208
0.000197518
0.000194249
0.000150226
0.00013412
0.000168021
0.000156362
0.000195638
0.000143462
0.000195942
0.000139901
0.000250564
0.00014614
0.000143387
0.000232243
0.000168654
0.00021464
0.000144358
0.000155998
0.000156441
0.000351027
0.000341519
0.000154718
0.000196181
0.000145211
0.000160375
0.00014829
0.00015439
0.0289319
0.000136739
0.000585431
0.000147001
0.000145742
0.000154643
0.00112163
0.000153197
0.00019906
0.00014977
0.000168281
0.00499551
0.000131312
0.000140944
0.0397705
0.000168378
0.0327496
0.000170227
0.000148345
0.000143067
0.000142636
0.000160086
0.000149796
0.00013623
0.000250808
0.0199523
0.00014317
0.000476258
0.000494345
0.000158063
0.000239034
0.000136278
0.0077091
0.00594971
0.000132324
0.00538437
0.000171766
0.000266398
0.00105145
0.000143553
0.000142653
0.000148366
0.000374865
0.000177111
0.000144511
0.000148805
0.000251502
0.0001484
0.000172811
0.000143351
0.000170032
0.000453268
0.00349431
0.000280455
0.00282358
0.000169757
0.000497397
0.000155331
0.000140597
0.000158167
0.00122685
0.000177528
0.000175166
0.00014432
0.000187787
0.000145314
0.000148624
0.000484076
0.000149055
0.000158597
0.000201246
0.000192409
0.000144636
0.000142839
0.000154472
0.000156535
0.000134104
0.000147029
0.000170551
0.000240439
0.000152602
0.000145426
0.000172497
0.00496851
0.000143664
0.00261074
0.000251076
0.000145057
0.0139115
0.000134657
0.000242177
0.000143586
0.000137607
0.000231786
0.000153072
0.000533201
0.000152322
0.000142855
0.0117396
0.000143558
0.000134871
0.000145671
0.000140693
0.000159261
0.00016794
0.0367143
0.000151864
0.000423749
0.000154223
0.00262761
0.0066037
0.000150559
0.000143911
0.000155887
0.000136545
0.000205284
0.000142525
0.000134763
0.000135838
0.000144329
0.000143555
0.000246502
0.00015954
0.000177569
0.000153261
0.000155041
0.000157129
0.000164217
0.0015025
0.000137344
0.000195713
0.000174438
0.000134475
0.00173143
0.000470398
0.000141735
0.0023946
0.000145227
0.000569428
0.000168126
0.00013216
0.000168433
0.000157512
0.00238827
0.000142508
0.00015457
0.00441413
0.000202442
0.000229082
0.00014352
0.00262117
0.000190956
0.00475228
0.000143468
0.000151741
0.000143109
0.000146184
0.000141874
0.000144255
0.000136742
0.00250891
0.000171093
0.000141199
0.000134253
0.000140154
0.000148696
0.000197345
0.000190626
0.00013731
0.000156691
0.000147018
0.00014726
0.000146049
0.000140804
0.000199922
0.000134291
0.000140269
0.000149747
0.000147147
0.000153834
0.000146486
0.000244377
0.0017188
0.000154906
0.000140116
0.000212624
0.00013466
0.000134346
0.000146312
0.000226698
0.000158233
0.000145201
0.000136081
0.000137142
0.000160979
0.000134017
0.000163729
0.000142422
0.000148224
0.00014179
0.000151551
0.0015396
0.000140545
0.00014868
0.000143461
0.000242908
0.00592974
0.000158908
0.000149812
0.000184235
0.000159047
0.000196691
0.0196202
0.000149661
0.00582347
0.000148778
0.000280624
0.000148533
0.0001368
0.000135933
0.00419831
0.00013552
0.000159235
0.00019243
0.000222736
0.00017294
0.000154031
0.00014249
0.00014291
0.000143487
0.000160902
0.000207064
0.000587034
0.000176493
0.000145478
0.000134055
0.000155203
0.000141736
0.000140756
0.000148243
0.000177626
0.000165928
0.000402333
0.000145406
0.00014437
0.000170677
0.000143112
0.000214748
0.000177003
0.000171288
0.000215585
0.00138855
0.000166927
0.000141123
0.000134124
0.000147407
0.000142941
0.002308
0.000177032
0.000204087
0.000136894
0.000146959
0.000155019
0.000141023
0.0179898
0.000329926
0.000134391
0.000135808
0.000143285
0.000141899
0.000140931
0.000144751
0.000237178
0.000134961
0.000148126
0.000136951
0.000137916
0.000141993
0.000145961
0.000163221
0.000137873
0.000168942
0.00013607
0.00042421
0.000238253
0.000157153
0.000287118
0.000154509
0.000148559
0.000189853
0.00148696
0.000144519
0.000140294
0.000137025
0.000188535
0.000151058
0.000167087
0.000318684
0.000146474
0.00014849
0.000144696
0.000282795
0.000322438
0.000151948
0.000139681
0.000158225
0.000171653
0.000142289
0.000194264
0.000140297
0.000133988
0.000155141
0.00521029
0.00445604
0.000319142
0.000237436
0.000134821
0.000213552
0.000195026
0.000159915
0.000143432
0.000195343
0.000154166
0.0002567
0.00869221
0.00014171
0.00013489
0.00014473
0.000148344
0.000135034
0.000268984
0.000314869
0.000134566
0.000146739
0.000149402
0.000170041
0.000143956
0.000141919
0.000202181
0.000148089
0.000141992
0.00041156
0.000203291
0.000197919
0.000142766
0.000135932
0.000134766
0.000144589
0.000163236
0.000184331
0.000140562
0.000139136
0.000153657
0.00330104
0.000137041
0.000143929
0.000192752
0.000141007
0.000139167
0.000143524
0.031501
0.000135723
0.000144467
0.000137103
0.000154284
0.000135758
0.000157151
0.000215937
0.00014396
0.000241478
0.000161496
0.00022889
0.000185145
0.000140789
0.00016157
0.00014037
0.000139032
0.000140806
0.00408989
0.00434654
0.000206145
0.000159337
0.00253064
0.00019105
0.000149566
0.000205508
0.000216246
0.000154855
0.000135458
0.000355234
0.000149865
0.000140826
0.000138029
0.000254202
0.0219232
0.02975
0.000138842
0.000199001
0.00598769
0.000165891
0.000171644
0.000155745
0.000155007
0.0001671
0.000632376
0.000153889
0.000150007
0.000158363
0.000385148
0.000245463
0.000143855
0.000146543
0.000143519
0.000275447
0.000156533
0.000149616
0.00257975
0.000157145
0.000173437
0.000155756
0.00214031
0.000138556
0.000281555
0.000149534
0.000135755
0.0001412
0.000135773
0.00013579
0.000140785
0.000148042
0.000250931
0.000138165
0.000287927
0.000158589
0.000147359
0.000141222
0.000202077
0.000143231
0.000146777
0.000155476
0.00320001
0.000205575
0.000152972
0.000146301
0.000293952
0.000138526
0.000173552
0.000146083
0.025253
0.000172429
0.00647527
0.000157145
0.000143111
0.000235046
0.000436146
0.000357075
0.000137721
0.000143459
0.000169715
0.0254018
0.000130875
0.000179741
0.000140809
0.000162611
0.000140409
0.000134941
0.000148834
0.000149722
0.000135107
0.000173462
0.000167552
0.000156646
0.000212191
0.00071924
0.000150017
0.0012399
0.00013616
0.00020422
0.000266398
0.000223571
0.00013468
0.000149718
0.000145873
0.00212928
0.000144296
0.000140598
0.000198277
0.000146462
0.000146084
0.000151093
0.000149342
0.00014293
6.49256e-05
0.00688251
0.000188057
0.000139126
0.000145213
0.000252697
0.000136248
0.000440752
0.000147496
0.000145656
0.000148997
0.000154046
0.00023237
0.000139784
0.000145054
0.0411112
0.000147254
0.000148253
0.000169771
0.000275494
0.000734513
0.000144349
0.000143346
0.0124972
0.0021019
0.0299051
0.000141244
0.000166753
0.000225827
0.000137592
0.000195837
0.000153886
0.0037892
0.000154178
0.000145968
0.00014917
0.00013564
0.000315992
0.000144928
0.000139122
0.00522015
0.000191492
0.000270876
0.000135293
0.000151531
0.000135429
0.000131879
0.000136051
0.000150304
0.00014663
0.000148946
0.000135677
0.000148279
0.000178667
0.000164449
0.000165281
0.000139999
0.000156424
0.00014183
0.00339588
0.000147766
0.00014858
0.000148258
0.000135938
0.000148675
0.000145239
0.000144084
0.000143362
0.000141056
0.000136081
0.00233109
0.00185667
0.000144749
0.00031133
0.000168319
0.0001497
0.000147559
0.000149921
0.00211007
0.000148172
0.000136127
0.000134521
0.000134724
0.0387065
0.00014439
0.000136801
0.00024965
0.000134187
0.000133177
0.000178296
0.000186079
0.000202722
0.000216468
0.017437
0.000135591
0.0162918
0.000156609
0.000143153
0.000136793
0.000161844
0.000143089
0.000161164
0.000186478
0.000154786
0.000151454
0.000488001
0.000230838
0.0390223
0.000320473
0.00303756
0.000208579
0.00013922
0.000253422
0.0343162
0.000135002
0.015727
0.000138822
0.000150455
0.000210639
0.000140505
0.000455895
0.000156542
0.000152047
0.000148846
0.00021052
0.000143795
0.000290614
0.000142831
0.000136315
0.00201001
0.000133452
0.000147703
0.000148373
0.000182918
0.000142256
0.000144034
0.000152392
0.00135822
0.000144397
0.000144322
0.000136892
0.000153875
0.000142385
0.00015044
0.000323982
0.000141422
0.000157773
0.000147858
0.000153148
0.000156881
0.000140397
0.000148698
0.000201228
0.000147259
0.000147322
0.000156638
0.00241293
0.000149214
0.000141766
0.000143964
0.000161881
0.000202794
0.000151865
0.000140941
0.000141334
0.000137756
0.000131734
0.00013546
0.000159471
0.000194988
0.000184133
0.000146658
0.00110165
0.000139614
0.000147271
0.0226651
0.00017564
0.000134177
0.000197009
0.000150083
0.000140924
0.00351005
0.000149002
0.000173025
0.00013252
0.000220271
0.000139611
0.000134726
0.000136044
0.000315923
0.000209538
0.000147017
0.00308946
0.000135837
0.000142262
0.000138989
0.000210457
0.000145529
0.000138438
0.000150041
0.000151743
0.000142914
0.000145709
0.00014029
0.000148204
0.000146747
0.000140276
0.000156196
0.00013531
0.00609033
0.000189543
0.000136576
0.000386029
0.000157673
0.000140745
0.000139801
0.000151366
0.000140773
0.000161858
0.000155752
0.000206056
0.000215452
0.00014808
0.000190728
0.000221462
0.00014306
0.000147312
0.000198556
0.000154769
0.00232764
0.000135625
0.000143114
0.000152216
0.000147766
0.000142629
0.000157403
0.000140458
0.000151186
0.000143886
0.000153846
0.000139747
0.000203909
0.000144707
0.000154492
0.000190735
0.00014304
0.00406337
0.00482735
0.00015655
0.000162608
0.000159908
0.000134281
0.000183762
0.000145489
0.000166981
0.00345744
0.0172134
0.000202926
0.000153382
0.000163535
0.000142584
0.000161822
0.000139
0.000291797
0.000189615
0.000147592
0.000140503
0.000286894
0.000168199
0.000142804
0.00014321
0.00026191
0.000147583
0.000138359
0.0106569
0.000181507
0.000134887
0.00167992
0.000136149
0.000215792
0.000183523
0.000142949
0.000144297
0.000157032
0.00655986
0.000140006
0.000157382
0.000144288
0.000142967
0.000139801
0.000879533
0.000148253
0.000145427
0.000143501
0.000303638
0.000157805
0.000140171
0.000132984
0.000205106
0.000142216
0.000136891
0.000152084
0.00117737
0.000148666
0.000244875
0.000157061
0.000177666
0.000150898
0.000185647
0.00474563
0.000147712
0.000142716
0.000137095
0.000154657
0.000142819
0.00358212
0.000225631
0.000137456
0.000149014
0.00013646
0.000135632
0.000822972
0.000142911
0.000152187
0.00015163
0.000211295
0.000144518
0.000147719
0.000155773
0.00480669
0.000146391
0.000145495
0.000137405
0.00013839
0.000154229
0.000175471
0.000147111
0.00014212
0.000144987
0.000143591
0.000137149
0.000497059
0.000148366
0.000143209
0.000141847
0.000185635
0.000136564
0.000136909
0.000168448
0.000142239
0.000189347
0.000144044
0.000144438
0.000954171
0.0396863
0.0333763
0.000194377
0.000157262
0.00014804
0.000394863
0.000139606
0.000155798
0.000135246
0.00901638
0.000130376
0.000154479
0.000144617
0.0055572
0.000170585
0.000212039
0.000352166
0.000149844
0.000185967
0.000147817
0.000149664
0.00336367
0.000167832
0.000142128
0.000136096
0.000153498
0.000164424
0.000143989
0.00014498
0.00013958
0.000134958
0.000239007
0.00288556
0.000147879
0.000150716
0.000284213
0.00766106
0.000153836
0.000149999
0.000152372
0.000154897
0.000142335
0.000151009
0.000237429
0.000140263
0.000136349
0.000146077
0.000260266
0.000276887
0.000156614
0.000146675
0.000146861
0.000157536
0.000143605
0.000157172
0.00017215
0.000173833
0.00015652
0.00209129
0.000134677
0.000142833
0.000148266
0.000135389
0.000146911
0.000140071
0.000222042
0.000140873
0.00217549
0.00014544
0.000139043
0.000137617
0.000211159
0.00015125
0.000175508
0.000184853
0.00013629
0.000382101
0.000159293
0.000138111
0.000133424
0.00464211
0.000256673
0.000133682
0.000140324
0.000140686
0.000150802
0.000225313
0.000231021
0.000150571
0.000148345
0.000214371
0.000354002
0.000149286
0.000142597
0.000269496
0.000153917
0.000490422
0.000155003
0.00014235
0.000187156
0.000182136
0.0420286
0.000189308
0.00387869
0.000136936
0.000142285
0.000149506
0.000146437
0.000153726
0.000147714
0.000146107
0.000139481
0.000148262
0.000146808
0.000145548
0.000145323
0.000151967
0.000149211
0.000143543
0.000141397
0.000182445
0.000164154
0.000140344
0.000145279
0.000237414
0.000144931
0.000148045
0.000148668
0.00244065
0.000136927
0.000171241
0.00015109
0.000136048
0.000143191
0.000316548
0.000289273
0.000149235
0.000147398
0.000153894
0.00017064
0.000140041
0.00015832
0.000176771
0.000141193
0.00020843
0.00014075
0.000143162
0.000142856
0.000147618
0.000161654
0.000232487
0.0114457
0.00019304
0.000136297
0.000144908
0.000143462
0.000202073
0.000148875
0.00237516
0.000139739
0.000143768
0.000143444
0.000192993
0.000142669
0.000146476
0.000144083
0.000216899
0.000137003
0.0217306
0.000137046
0.000168837
0.000144835
0.000162267
0.000140746
0.000153476
0.00416524
0.000232943
0.000136325
0.000186342
0.000145276
0.000146687
0.0374911
0.00388386
0.000136252
0.000142716
0.000154881
0.000135959
0.000143485
0.00014837
0.000147525
0.000159229
0.000180842
0.000149881
0.000158194
0.000223848
0.000147276
0.000140776
0.000142107
0.000154678
0.00016124
0.000144089
0.0288826
0.000140313
0.000366157
0.000169662
0.000136553
0.000140307
0.000140043
0.00028369
0.000146101
0.000155839
0.000146509
0.000140858
0.00357867
0.000151833
0.000179506
0.000147193
0.000145457
0.000151385
0.00014327
0.000151965
0.000143399
0.000152166
0.000149135
0.000149078
0.00301079
0.000166059
0.00414981
0.00014085
0.000183818
0.000150132
0.00607272
0.000190262
0.0154932
0.000152248
0.000134943
0.000173241
0.000142807
0.00451106
0.000149575
0.000219057
0.000151191
0.000320444
0.0280606
0.000153453
0.000179561
0.000139306
0.000137482
0.000148498
0.000134621
0.000147805
0.000152266
0.000139427
0.000159676
0.000137012
0.00579686
0.000140676
0.000261965
0.000134602
0.000142432
0.000143756
0.000199564
0.000146881
0.000258557
0.000148054
0.000143224
0.000369863
0.000140215
0.000155211
0.000142186
0.00015582
0.0145064
0.000162939
0.0117935
0.00014434
0.000189008
0.000152139
0.000141737
0.000143675
0.000187216
0.000164886
0.000143041
0.000151492
0.000143116
0.00253907
0.000139058
0.000396029
0.000261145
0.000192725
0.000156386
0.000235999
0.000179589
0.000134615
0.000443838
0.000142383
0.00028501
0.000148774
0.000151415
0.00603558
0.00557886
0.000157714
0.00032296
0.000143523
0.00582542
0.000131067
0.0313708
0.000135154
0.000151645
0.000218651
0.000145534
0.000139051
0.000149264
0.000144243
0.000182208
0.00392629
0.000165787
0.00264463
0.000140946
0.00192383
0.000144353
0.00014739
0.000143051
0.000144845
0.00444133
0.000147239
0.000138051
0.000169187
0.000148097
0.00463178
0.000194977
0.000142919
0.000170493
0.000167937
0.000140436
0.000144726
0.000154878
0.000136676
0.000182579
0.000160397
0.000152737
0.000153435
0.00013718
0.000145708
0.000184474
0.000149679
0.000144864
0.000150065
0.000134724
0.0001358
0.0353046
0.000159277
0.000381094
0.000159141
0.000180761
0.000163566
0.000142015
0.000163156
0.000138871
0.000140715
0.000424422
0.000164883
0.000159584
0.000179205
0.000148326
0.000242789
0.0136239
0.000143187
0.000161591
0.00019567
0.000491267
0.000136517
0.000138122
0.000147386
0.000175952
0.00321069
0.000164543
0.00015382
0.00014886
0.000142036
0.000135087
0.000570522
0.000156104
0.000152081
0.00460322
0.000146795
0.000152627
0.000156368
0.000144975
0.00014278
0.000142795
0.000180848
0.000214659
0.000149094
0.00015431
0.00024661
0.00014217
0.000149303
0.00015359
0.000146677
0.00628668
0.00664693
0.000354176
0.000201779
0.00344256
0.000151325
0.000139804
0.000265208
0.000151111
0.000159311
0.000142873
0.000135333
0.00454463
0.000298716
0.000141385
0.000139455
0.000158677
0.000481142
0.000156827
0.000134865
0.00059307
0.000152002
0.000169584
0.000134923
0.000164046
0.00013101
0.000152844
0.000158131
0.000142043
0.0211059
0.000148986
0.00016947
0.000213185
0.00584037
0.000204369
0.0001422
0.000186561
0.000155095
0.000161614
0.000150577
0.000149538
0.000145254
0.000151062
0.000311097
0.000151692
0.000398899
0.000139847
0.000225046
0.000135998
0.000148683
0.000265542
0.000155385
0.0002243
0.000157331
0.00014944
0.0192992
0.000377879
0.00014004
0.000348109
0.000167757
0.000138813
0.000133935
0.0289851
0.000340636
0.000138797
0.000136241
0.000143329
0.000136902
0.000380523
0.000250814
0.000130199
0.000133215
0.000139957
0.000238094
0.00017708
0.00430935
0.000135843
0.000263373
0.000147203
0.000187144
0.0124397
0.000164436
0.000139447
0.00013971
0.00508113
0.000136754
0.000141205
0.000136639
0.000166415
0.000152799
0.0304233
0.000159539
0.000148543
0.000142388
0.000158352
0.000226721
0.00018078
0.00014169
0.00014187
0.000221456
0.000179524
0.000148356
0.00506269
0.000164781
0.000152657
0.0001531
0.000151508
0.000157295
0.000148246
0.000508394
0.000145258
0.000148471
0.0403899
0.00015993
0.000141135
0.000143274
0.000131049
0.00018103
0.000217057
0.000140984
0.000136113
0.000150339
0.00018666
0.000154148
0.000135104
0.000142772
0.000139147
0.000153862
0.000173762
0.000145401
0.000142426
0.0318898
0.000141951
0.000478727
0.000163077
0.000163816
0.000155387
0.000150394
0.000145003
0.00033104
0.00020322
0.000189131
0.0235236
0.000162291
0.000140108
0.000302283
0.000136302
0.000191121
0.000356558
0.000154135
0.000141795
0.000153778
0.000192655
0.000142706
0.000142764
0.000352627
0.00014284
0.00015349
0.000140729
0.000147462
0.000137331
0.000189714
0.000207024
0.000136031
0.000141021
0.0042738
0.000142612
0.00013654
0.000140813
0.000140525
0.0131523
0.000168433
0.000152798
0.000153488
0.000149013
0.00013733
0.000184732
0.000199696
0.000158351
0.000256439
0.000155066
0.000153977
0.0250545
0.000140111
0.000136259
0.000143168
0.000140381
0.000148502
0.000132713
0.000149482
0.000356108
0.000144812
0.000141769
0.000156058
0.000140503
0.00279792
0.000147496
0.00291643
0.000233527
0.000180988
0.000162539
0.00116605
0.000159094
0.000142999
0.000154989
0.000140445
0.000151724
0.000145788
0.000148637
0.000297646
0.00013591
0.000143726
0.000174687
0.00027064
0.000147665
0.000139761
0.0002263
0.000150522
0.000190684
0.000143003
0.000139893
0.000143683
0.0249544
0.00014601
0.000267027
0.000182123
0.000152087
0.000139673
0.000143115
0.000161947
0.0032436
0.000136076
0.000176793
0.000141765
0.00295406
0.000237759
0.000149819
0.00022178
0.000146096
0.000152918
0.000155813
0.000254195
0.00016942
0.000161669
0.000163826
0.00536565
0.000148046
0.000180082
0.000144551
0.000141564
0.000220512
0.000238472
0.000142408
0.000162202
0.00591091
0.00213186
0.00015381
0.00015396
0.00583548
0.00559816
0.000140211
0.00018164
0.000143183
0.000155341
0.000146247
0.000152652
0.000151894
0.000340841
0.00014778
0.000148083
0.000184786
0.00557725
0.000340523
0.000212404
0.00141901
0.000139757
0.00587094
0.000187977
0.000142157
0.000141766
0.00409536
0.000157079
0.000145123
0.000142573
0.000171194
0.000138613
0.000142785
0.000907571
0.000145451
0.000148063
0.000141073
0.000143827
0.000151005
0.000139106
0.000402982
0.000180514
0.000154183
0.000139132
0.000163628
0.000319625
0.000142095
0.000147127
0.00502934
0.000232893
0.000143413
0.000154615
0.000138688
0.000140373
0.000211438
0.000223145
0.00014041
0.000143133
0.00601989
0.00428126
0.00181555
0.000191758
0.000150133
0.0011329
0.000140662
0.000155743
0.000154277
0.000139524
0.0293358
0.000984374
0.000171189
0.000190176
0.0104523
0.000133973
0.000133172
0.000153059
0.000166505
0.00419786
0.00013653
0.000166265
0.0150617
0.000285228
0.00014702
0.000150829
0.000253118
0.000142623
0.000154079
0.003317
0.000140811
0.000142546
0.000139195
0.000242076
0.000141372
0.000164566
0.000149265
0.000203238
0.000161809
0.00594979
0.000143042
0.000142182
0.000168162
0.000148159
0.000158883
0.000149701
0.000204105
0.000208759
0.000140752
0.000144426
0.00889382
0.000276612
0.00414609
0.00013904
0.000143329
0.000155188
0.000145252
0.000143082
0.000144026
0.000145179
0.000148489
0.000139591
0.000139575
0.000185544
0.000155204
0.00016808
0.00516323
0.000189563
0.000179397
0.000156849
0.000197368
0.000241353
0.000162915
0.000156859
0.000158445
0.000141644
0.000909708
0.000135758
0.000135807
0.000140328
0.00492457
0.000142085
0.00511435
0.000148558
0.000134933
0.000176844
0.000142876
0.000142263
0.000142824
0.000179964
0.000335915
0.000147294
0.000139522
0.000151328
0.00574509
0.000178882
0.00490418
0.000142865
0.000180414
0.000146231
0.000145679
0.000136316
0.000138848
0.000143337
0.000154002
0.0012592
0.000151915
0.000152853
0.000211026
0.00729913
0.000210781
0.000141789
0.000206276
0.000165408
0.00470437
0.000137903
0.000142353
0.000157637
0.00359408
0.000132447
0.000144623
0.000138799
0.000136665
0.000210853
0.000152962
0.000188543
0.000144581
0.000132236
0.00018105
0.000144002
0.00579986
0.000144459
0.00016618
0.000147931
0.000158663
0.000149242
0.000187082
0.00489724
0.000142466
0.000180857
0.00557001
0.00014167
0.00014669
0.000173634
0.000131957
0.000684889
0.00020256
0.000142698
0.000184928
0.000134398
0.000145804
0.000147778
0.00014147
0.000136607
0.0001497
0.000140718
0.000138738
0.000145187
0.000148459
0.000178775
0.000136191
0.000227394
0.000138324
0.000140367
0.000159862
0.000178281
0.000149617
0.000132065
0.000142438
0.000153863
0.000176856
0.00821349
0.000165818
0.000148887
0.000148876
0.0001394
0.000162343
0.000140657
0.000152394
0.000355988
0.0002389
0.000176592
0.000141355
0.000147878
0.000149674
0.000132199
0.000191779
0.000134806
0.000240546
0.000149099
0.000241581
0.000158085
0.000388707
0.000147002
0.000190692
0.0399735
0.00560726
0.00289591
0.000155818
0.00332107
0.000275336
0.000148532
0.00016706
0.000314981
0.000138698
0.000138988
0.000143842
0.000154403
0.00024327
0.000145963
0.000155908
0.00396818
0.000130223
0.000144587
0.000261794
0.000537324
0.000198844
0.0035393
0.00435233
0.000149716
0.00018627
0.00015524
0.000156289
0.000202245
0.000154204
0.0282596
0.00021511
0.000153659
0.000145744
0.00015266
0.000161327
0.000139625
0.0235839
0.000132346
0.000142823
0.000143245
0.00366573
0.0294285
0.000212123
0.000145049
0.000151696
0.00013885
0.00037694
0.000143521
0.000148347
0.000153265
0.000277108
0.000138598
0.000195151
0.00285342
0.00287504
0.00014818
0.000377387
0.000139755
0.00177348
0.000132719
0.000253837
0.000148879
0.000186213
0.000162887
0.00506339
0.000226747
0.000152273
0.000150912
0.000197635
0.000154579
0.000141834
0.00013867
0.00015831
0.00014854
0.00273332
0.000131529
0.00014288
0.000144201
0.000143762
0.00113723
0.000139203
0.000134586
0.000146413
0.000496705
0.000163079
0.000183494
0.000151947
0.000150909
0.00019879
0.000139799
0.000143125
0.00019413
0.000175411
0.000134601
0.000166306
0.000151989
0.00448924
0.00014268
0.000242993
0.000148562
0.000143155
0.000135295
0.000134911
0.000142294
0.000141327
0.00473298
0.00018947
0.000146972
0.00014305
0.000142254
0.000152833
0.00015871
0.000329667
0.000145719
0.000198745
0.000164705
0.0061547
0.000147758
0.000176086
0.000143
0.000142703
0.000162221
0.000142573
0.00014573
0.000140715
0.000135692
0.000315863
0.000143525
0.000139145
0.000199316
0.00411603
0.000205883
0.000146525
0.000134666
0.000154092
0.011804
0.000152738